/*--------------------------------*- C++ -*----------------------------------*\
  =========                 |
  \\      /  F ield         | OpenFOAM: The Open Source CFD Toolbox
   \\    /   O peration     | Website:  https://openfoam.org
    \\  /    A nd           | Version:  6
     \\/     M anipulation  |
\*---------------------------------------------------------------------------*/
FoamFile
{
    version     2.0;
    format      ascii;
    class       volVectorField;
    location    "99.8";
    object      U;
}
// * * * * * * * * * * * * * * * * * * * * * * * * * * * * * * * * * * * * * //

dimensions      [0 1 -1 0 0 0 0];

internalField   nonuniform List<vector> 
8800
(
(0.987183 -0.0766652 0)
(1.00189 -0.0551899 0)
(0.999722 -0.0285478 0)
(1.00003 -0.0151426 0)
(1.0001 -0.00854388 0)
(1.00012 -0.00504593 0)
(1.00008 -0.00300004 0)
(1.00002 -0.00169892 0)
(0.999991 -0.000792173 0)
(1.00006 -7.55136e-05 0)
(0.999959 0.000657486 0)
(1.00001 0.00142509 0)
(1.00006 0.00242906 0)
(1.00007 0.00399854 0)
(1.00006 0.00663256 0)
(1.00005 0.0113721 0)
(0.999957 0.0208157 0)
(0.999174 0.0386705 0)
(1.0071 0.0724575 0)
(0.771215 0.0366617 0)
(0.363081 -0.0160163 0)
(1.04332 -0.0768107 0)
(1.0846 -0.0704385 0)
(1.0452 -0.0535317 0)
(1.02329 -0.0388817 0)
(1.01203 -0.0262023 0)
(1.00644 -0.0168381 0)
(1.0036 -0.010302 0)
(1.00215 -0.00563711 0)
(1.00143 -0.0019738 0)
(1.00128 0.00134895 0)
(1.00167 0.00473822 0)
(1.00269 0.00865888 0)
(1.00468 0.0139765 0)
(1.00861 0.0216846 0)
(1.01657 0.0326509 0)
(1.03252 0.0465622 0)
(1.06269 0.0616783 0)
(1.09187 0.0761058 0)
(0.838664 0.0565645 0)
(0.216875 -0.00242853 0)
(1.07592 -0.0501211 0)
(1.09989 -0.048289 0)
(1.06466 -0.0404369 0)
(1.04006 -0.0335735 0)
(1.02393 -0.0260454 0)
(1.01413 -0.018453 0)
(1.00856 -0.0116221 0)
(1.00558 -0.00574349 0)
(1.0043 -0.000318068 0)
(1.00463 0.00493283 0)
(1.00661 0.0103239 0)
(1.01063 0.0163815 0)
(1.01794 0.0233985 0)
(1.03053 0.0308602 0)
(1.05062 0.0378829 0)
(1.08037 0.0445626 0)
(1.10627 0.0513707 0)
(0.942494 0.0416307 0)
(0.216113 0.00246305 0)
(0.175223 -0.000814941 0)
(1.01776 -0.0354619 0)
(1.10523 -0.0413434 0)
(1.0783 -0.0360189 0)
(1.0535 -0.0300757 0)
(1.03624 -0.0244889 0)
(1.02403 -0.0187454 0)
(1.0159 -0.0126484 0)
(1.01102 -0.00644479 0)
(1.00879 -9.75971e-05 0)
(1.00934 0.00616511 0)
(1.01266 0.0121616 0)
(1.01889 0.0179515 0)
(1.02875 0.0235146 0)
(1.04318 0.0288078 0)
(1.0637 0.0342788 0)
(1.09356 0.0402556 0)
(1.09339 0.042005 0)
(0.827033 0.0229337 0)
(0.173937 0.000855058 0)
(0.15405 -0.000608586 0)
(0.956332 -0.0254264 0)
(1.10353 -0.0350732 0)
(1.08773 -0.0325826 0)
(1.06179 -0.0279172 0)
(1.04417 -0.0228772 0)
(1.03169 -0.0176089 0)
(1.02282 -0.0120535 0)
(1.01698 -0.0060958 0)
(1.0141 0.000390458 0)
(1.01475 0.00686222 0)
(1.01878 0.0127414 0)
(1.0258 0.0179787 0)
(1.03605 0.0228809 0)
(1.0506 0.0276283 0)
(1.07184 0.0321414 0)
(1.10005 0.0360624 0)
(1.06799 0.0340984 0)
(0.739299 0.0143423 0)
(0.152109 0.00065418 0)
(0.139715 -0.000464487 0)
(0.899551 -0.0190332 0)
(1.09592 -0.0300004 0)
(1.09584 -0.0290875 0)
(1.06935 -0.0253381 0)
(1.05091 -0.0211766 0)
(1.03796 -0.0163746 0)
(1.02883 -0.0110561 0)
(1.02267 -0.00528339 0)
(1.01949 0.00106643 0)
(1.02007 0.00739127 0)
(1.02422 0.0130196 0)
(1.03135 0.017914 0)
(1.04181 0.0223605 0)
(1.05692 0.0263102 0)
(1.07911 0.0297482 0)
(1.1022 0.0323543 0)
(1.03576 0.0282147 0)
(0.672558 0.0102501 0)
(0.136969 0.000517103 0)
(0.129222 -0.000358651 0)
(0.850128 -0.0146576 0)
(1.08364 -0.0258397 0)
(1.10158 -0.026099 0)
(1.07625 -0.0227887 0)
(1.05728 -0.0191157 0)
(1.04387 -0.0148318 0)
(1.03437 -0.00986664 0)
(1.02796 -0.00429577 0)
(1.02457 0.00188214 0)
(1.02499 0.0079983 0)
(1.02909 0.0133476 0)
(1.03631 0.0178161 0)
(1.04703 0.0216544 0)
(1.06254 0.0249343 0)
(1.08517 0.0278456 0)
(1.10122 0.0295718 0)
(1.00065 0.0237333 0)
(0.620489 0.00789815 0)
(0.125494 0.00042057 0)
(0.121238 -0.000277425 0)
(0.808208 -0.011484 0)
(1.06851 -0.0221962 0)
(1.10519 -0.0234147 0)
(1.08257 -0.0205095 0)
(1.06318 -0.0170429 0)
(1.04949 -0.0130557 0)
(1.0397 -0.00841714 0)
(1.03299 -0.00310754 0)
(1.02933 0.00286006 0)
(1.02955 0.00873361 0)
(1.0336 0.0137344 0)
(1.04086 0.0177148 0)
(1.05166 0.0210421 0)
(1.06737 0.0239048 0)
(1.09034 0.0265085 0)
(1.09731 0.0273261 0)
(0.965094 0.0202352 0)
(0.578528 0.00637865 0)
(0.116317 0.000351089 0)
(0.11508 -0.000213541 0)
(0.773022 -0.00910308 0)
(1.05196 -0.0189783 0)
(1.10768 -0.0209171 0)
(1.08852 -0.0183729 0)
(1.06874 -0.0150407 0)
(1.05481 -0.0112032 0)
(1.04481 -0.00676164 0)
(1.03784 -0.00167966 0)
(1.03387 0.00404538 0)
(1.03384 0.00962535 0)
(1.03775 0.0142485 0)
(1.04492 0.0177909 0)
(1.05568 0.0207278 0)
(1.07159 0.0232582 0)
(1.09419 0.0255068 0)
(1.09051 0.025493 0)
(0.93038 0.0175567 0)
(0.543644 0.0053497 0)
(0.108706 0.000301647 0)
(0.110313 -0.000161855 0)
(0.743638 -0.0072473 0)
(1.03505 -0.0161141 0)
(1.10926 -0.0185486 0)
(1.09421 -0.0162986 0)
(1.07414 -0.0130459 0)
(1.05993 -0.00928278 0)
(1.04972 -0.00494641 0)
(1.04251 -2.2194e-05 0)
(1.03822 0.00547451 0)
(1.03786 0.0107492 0)
(1.04152 0.015012 0)
(1.04851 0.0181622 0)
(1.05921 0.020751 0)
(1.0753 0.0229821 0)
(1.09673 0.024839 0)
(1.08118 0.0240313 0)
(0.897045 0.0155492 0)
(0.513768 0.0046424 0)
(0.102177 0.000267566 0)
(0.106659 -0.00011857 0)
(0.719248 -0.00574208 0)
(1.01863 -0.0135309 0)
(1.11006 -0.0162447 0)
(1.09981 -0.0142518 0)
(1.07948 -0.0109957 0)
(1.06497 -0.00724442 0)
(1.05453 -0.00295073 0)
(1.04703 0.0018783 0)
(1.04237 0.00719159 0)
(1.0416 0.0121867 0)
(1.04494 0.0161127 0)
(1.05169 0.0188853 0)
(1.0623 0.021138 0)
(1.07855 0.0230923 0)
(1.09787 0.0245182 0)
(1.06969 0.0229413 0)
(0.865174 0.0140975 0)
(0.487426 0.00416693 0)
(0.096382 0.000245835 0)
(0.103931 -8.0682e-05 0)
(0.699222 -0.0044706 0)
(1.00331 -0.01116 0)
(1.11025 -0.0139683 0)
(1.1053 -0.0121461 0)
(1.08486 -0.00883461 0)
(1.07002 -0.00503315 0)
(1.05929 -0.000718458 0)
(1.05145 0.00407571 0)
(1.04635 0.00925904 0)
(1.04507 0.0140114 0)
(1.04802 0.0176203 0)
(1.05449 0.0200195 0)
(1.06497 0.0219418 0)
(1.08132 0.0236211 0)
(1.0979 0.0246989 0)
(1.05626 0.0222426 0)
(0.834562 0.0131197 0)
(0.463498 0.00386952 0)
(0.091056 0.00023412 0)
(0.102015 -4.54626e-05 0)
(0.683103 -0.00334494 0)
(0.989569 -0.00892891 0)
(1.11006 -0.0116301 0)
(1.11066 -0.00989653 0)
(1.09035 -0.0064989 0)
(1.07516 -0.00258279 0)
(1.06409 0.00182241 0)
(1.05583 0.00664734 0)
(1.05018 0.0117553 0)
(1.0483 0.0162984 0)
(1.05077 0.0196029 0)
(1.05689 0.0216276 0)
(1.06721 0.0232181 0)
(1.08358 0.0246029 0)
(1.09703 0.0252197 0)
(1.041 0.0219429 0)
(0.804825 0.0125397 0)
(0.441091 0.0037115 0)
(0.0859881 0.000230252 0)
(0.100854 -1.06118e-05 0)
(0.670604 -0.00229468 0)
(0.977774 -0.0067618 0)
(1.1098 -0.00917243 0)
(1.11602 -0.00744148 0)
(1.09604 -0.00391054 0)
(1.08046 0.000188162 0)
(1.06899 0.00475625 0)
(1.06023 0.00968241 0)
(1.0539 0.0147732 0)
(1.0513 0.0191418 0)
(1.0532 0.0221519 0)
(1.05891 0.0238006 0)
(1.06903 0.0250507 0)
(1.08537 0.0261385 0)
(1.0948 0.0262295 0)
(1.02394 0.0220502 0)
(0.775483 0.0123126 0)
(0.419477 0.0036689 0)
(0.0810112 0.000232969 0)
(0.100442 2.64906e-05 0)
(0.661588 -0.00126278 0)
(0.968254 -0.00458479 0)
(1.10983 -0.00653363 0)
(1.12154 -0.00470684 0)
(1.10203 -0.00098041 0)
(1.08603 0.00337551 0)
(1.07408 0.00818428 0)
(1.0647 0.0132874 0)
(1.05757 0.0184229 0)
(1.05409 0.0226504 0)
(1.05529 0.0253741 0)
(1.06053 0.0266509 0)
(1.0704 0.0275382 0)
(1.0866 0.0282897 0)
(1.09113 0.0277577 0)
(1.00494 0.0226099 0)
(0.745985 0.0124146 0)
(0.398027 0.00372856 0)
(0.0759827 0.000241572 0)
(0.100788 6.01356e-05 0)
(0.656046 -0.000190379 0)
(0.961318 -0.00232155 0)
(1.1105 -0.00364461 0)
(1.1274 -0.00160622 0)
(1.10843 0.00239413 0)
(1.09195 0.00709088 0)
(1.07943 0.0122265 0)
(1.06931 0.0175898 0)
(1.06121 0.0228363 0)
(1.05667 0.0269559 0)
(1.05706 0.0294023 0)
(1.06172 0.0302998 0)
(1.07128 0.0308013 0)
(1.08697 0.0311727 0)
(1.0857 0.0298944 0)
(0.98378 0.0236595 0)
(0.71571 0.0128303 0)
(0.376164 0.00388041 0)
(0.0707763 0.000255143 0)
(0.101988 0.000115805 0)
(0.654144 0.000967024 0)
(0.957297 0.000106326 0)
(1.1122 -0.000425474 0)
(1.13378 0.00196085 0)
(1.11535 0.0063326 0)
(1.09836 0.011467 0)
(1.08516 0.0170278 0)
(1.07414 0.0227419 0)
(1.06487 0.0281691 0)
(1.05906 0.0322137 0)
(1.05847 0.0343917 0)
(1.06246 0.0348843 0)
(1.07162 0.0349786 0)
(1.08633 0.0349271 0)
(1.07825 0.0327245 0)
(0.960052 0.0252377 0)
(0.683969 0.0135487 0)
(0.353345 0.00411467 0)
(0.0652823 0.000272658 0)
(0.104184 0.000167895 0)
(0.656045 0.00209795 0)
(0.956556 0.00279389 0)
(1.11539 0.00322908 0)
(1.14093 0.00610788 0)
(1.12297 0.0109799 0)
(1.10538 0.0166682 0)
(1.09136 0.022769 0)
(1.07925 0.0289341 0)
(1.06856 0.034609 0)
(1.06126 0.0385975 0)
(1.05952 0.0404671 0)
(1.0627 0.0405616 0)
(1.07137 0.0402213 0)
(1.08446 0.0396506 0)
(1.06842 0.0363513 0)
(0.933218 0.0273889 0)
(0.650017 0.0145602 0)
(0.329067 0.00442055 0)
(0.0594109 0.000292878 0)
(0.107483 0.000231803 0)
(0.662393 0.00359007 0)
(0.959437 0.00575238 0)
(1.12053 0.00745813 0)
(1.14909 0.0109791 0)
(1.13146 0.0165209 0)
(1.11318 0.0228985 0)
(1.09816 0.0296682 0)
(1.08472 0.0363909 0)
(1.07233 0.0423768 0)
(1.06324 0.0463113 0)
(1.06018 0.0478581 0)
(1.06238 0.0475185 0)
(1.07048 0.0467025 0)
(1.08134 0.0455062 0)
(1.05572 0.0408953 0)
(0.902561 0.0301466 0)
(0.613047 0.0158431 0)
(0.302868 0.00478151 0)
(0.0530974 0.00031395 0)
(0.112176 0.000319715 0)
(0.673531 0.00534803 0)
(0.966517 0.00926513 0)
(1.12815 0.0124259 0)
(1.1586 0.0167901 0)
(1.14108 0.0231966 0)
(1.12194 0.0304248 0)
(1.1057 0.0380087 0)
(1.09062 0.0453933 0)
(1.07617 0.051734 0)
(1.06498 0.0555885 0)
(1.06033 0.0567815 0)
(1.06148 0.0559615 0)
(1.06887 0.0546229 0)
(1.07689 0.0526882 0)
(1.03948 0.0464637 0)
(0.86717 0.0335151 0)
(0.572213 0.0173506 0)
(0.274367 0.00517006 0)
(0.0463145 0.000333182 0)
(0.118622 0.000436616 0)
(0.690279 0.00753579 0)
(0.978662 0.0135577 0)
(1.13882 0.0183664 0)
(1.16984 0.0238088 0)
(1.15209 0.0313343 0)
(1.13189 0.0396041 0)
(1.11409 0.0481558 0)
(1.09699 0.0562902 0)
(1.08007 0.062987 0)
(1.06643 0.0666889 0)
(1.05987 0.0674324 0)
(1.05992 0.0660932 0)
(1.06662 0.0641811 0)
(1.07075 0.0613813 0)
(1.01882 0.0531222 0)
(0.825936 0.0374422 0)
(0.526686 0.0189899 0)
(0.24333 0.00554305 0)
(0.0390921 0.000346957 0)
(0.12735 0.000599929 0)
(0.713659 0.0103974 0)
(0.996606 0.0188902 0)
(1.1532 0.025624 0)
(1.18329 0.0324157 0)
(1.16486 0.0413934 0)
(1.14324 0.0509202 0)
(1.12346 0.0605831 0)
(1.10383 0.0695037 0)
(1.08396 0.0764807 0)
(1.06748 0.079882 0)
(1.05879 0.0800478 0)
(1.05767 0.078116 0)
(1.06342 0.0755324 0)
(1.06233 0.0715976 0)
(0.992557 0.0608773 0)
(0.777565 0.0417739 0)
(0.475767 0.0206018 0)
(0.209774 0.00583923 0)
(0.0315379 0.000350929 0)
(0.139174 0.000839508 0)
(0.745052 0.0143153 0)
(1.02152 0.0257413 0)
(1.17209 0.0347495 0)
(1.19962 0.0432219 0)
(1.17977 0.0540589 0)
(1.1562 0.0650667 0)
(1.13382 0.075927 0)
(1.11104 0.0855548 0)
(1.08766 0.0925903 0)
(1.06798 0.0954285 0)
(1.057 0.0948379 0)
(1.05475 0.0922791 0)
(1.05894 0.0889107 0)
(1.05075 0.0835337 0)
(0.95912 0.0695855 0)
(0.720668 0.0462037 0)
(0.419087 0.0219446 0)
(0.174096 0.00598132 0)
(0.0238543 0.000340677 0)
(0.1554 0.00121405 0)
(0.786461 0.019938 0)
(1.05507 0.0349021 0)
(1.19646 0.0467055 0)
(1.21973 0.0576495 0)
(1.19721 0.0704106 0)
(1.17085 0.0830422 0)
(1.14503 0.0950038 0)
(1.11837 0.105038 0)
(1.09093 0.111701 0)
(1.06774 0.113567 0)
(1.05436 0.111971 0)
(1.05106 0.108694 0)
(1.05302 0.10458 0)
(1.03481 0.0971215 0)
(0.916494 0.0788644 0)
(0.65397 0.0502172 0)
(0.35692 0.0226955 0)
(0.137207 0.00588751 0)
(0.0163432 0.000312761 0)
(0.178284 0.00186371 0)
(0.841124 0.0284255 0)
(1.10018 0.0479719 0)
(1.22739 0.0633562 0)
(1.24404 0.0772929 0)
(1.21726 0.092124 0)
(1.18694 0.106206 0)
(1.15667 0.118787 0)
(1.12537 0.128569 0)
(1.09338 0.134159 0)
(1.06648 0.134472 0)
(1.05067 0.131535 0)
(1.0464 0.127399 0)
(1.0455 0.122279 0)
(1.01269 0.112059 0)
(0.862203 0.0879949 0)
(0.576819 0.0530749 0)
(0.290659 0.0225028 0)
(0.100627 0.00549476 0)
(0.00939168 0.000265144 0)
(0.211325 0.00330133 0)
(0.914915 0.0425491 0)
(1.15983 0.0688588 0)
(1.26522 0.0882163 0)
(1.27243 0.10529 0)
(1.23933 0.121648 0)
(1.20362 0.136226 0)
(1.1679 0.148286 0)
(1.13136 0.156685 0)
(1.09454 0.160193 0)
(1.0639 0.158228 0)
(1.04576 0.153538 0)
(1.04061 0.148415 0)
(1.03548 0.142036 0)
(0.981713 0.127684 0)
(0.793487 0.0957847 0)
(0.490261 0.0539152 0)
(0.22353 0.0211699 0)
(0.0665924 0.00480257 0)
(0.00348044 0.000197256 0)
(0.25641 0.00977203 9.78995e-21)
(1.01161 0.0705234 8.39857e-21)
(1.23158 0.104408 -2.93245e-21)
(1.30713 0.125305 0)
(1.30189 0.145424 -7.46136e-35)
(1.26114 0.161403 1.09056e-21)
(1.2193 0.174644 -1.96352e-21)
(1.17767 0.184723 0)
(1.13558 0.190669 4.0513e-35)
(1.09372 0.191352 -2.44505e-21)
(1.05918 0.186721 0)
(1.03884 0.180327 -2.9246e-21)
(1.03362 0.17505 -8.64644e-21)
(1.02068 0.167382 -4.09992e-21)
(0.935726 0.145855 -1.23535e-21)
(0.702209 0.102298 -7.33662e-22)
(0.389602 0.0524505 0)
(0.155182 0.0189769 5.13042e-22)
(0.0352426 0.00393804 6.07565e-22)
(-0.00148367 7.78766e-05 1.11131e-20)
(0.288007 0.0255702 6.96121e-21)
(1.09209 0.114805 1.19175e-22)
(1.29076 0.155034 7.71615e-22)
(1.34538 0.175965 0)
(1.32803 0.196102 -3.73212e-21)
(1.28025 0.210056 -4.24611e-21)
(1.23242 0.221159 -1.9665e-21)
(1.18496 0.229012 -7.00187e-21)
(1.1373 0.232599 0)
(1.09022 0.230748 1.03261e-20)
(1.05158 0.223824 1.02677e-20)
(1.02851 0.215857 3.05028e-21)
(1.02031 0.209508 1.11873e-20)
(0.991923 0.197892 1.58032e-20)
(0.859028 0.164751 0)
(0.574653 0.106252 2.22512e-20)
(0.27444 0.0490383 3.18982e-20)
(0.0873944 0.0155596 3.54885e-20)
(0.00616922 0.00193317 -4.0704e-20)
(-0.00585034 -0.000472678 -7.76756e-22)
(0.290117 0.0435384 0)
(1.14424 0.171952 1.14878e-21)
(1.33177 0.216917 0)
(1.37561 0.237669 -4.73633e-21)
(1.34903 0.254653 0)
(1.29533 0.264721 -8.23116e-21)
(1.24194 0.272163 3.97743e-21)
(1.189 0.2766 -1.39679e-20)
(1.13614 0.27691 -3.32234e-22)
(1.0843 0.27185 5.29067e-21)
(1.04205 0.262253 2.24401e-20)
(1.01661 0.252535 -2.42397e-23)
(1.00459 0.244465 -8.09411e-21)
(0.958781 0.227549 -1.47467e-20)
(0.784374 0.180778 1.74733e-20)
(0.475684 0.107313 -3.0908e-20)
(0.202864 0.04519 -4.06601e-21)
(0.0497129 0.012115 0)
(-0.00892415 -0.000423724 -3.30617e-24)
(-0.00795204 -0.00111756 0)
(0.283724 0.0585595 1.36729e-20)
(1.17352 0.232921 -6.83188e-21)
(1.35806 0.283565 -5.46789e-21)
(1.39612 0.304616 2.18634e-21)
(1.36329 0.317483 -3.6598e-21)
(1.30524 0.32297 1.70569e-20)
(1.24735 0.325992 8.20239e-21)
(1.18979 0.326266 0)
(1.13243 0.322633 -2.62276e-20)
(1.07644 0.313811 0)
(1.03108 0.3012 -1.16579e-20)
(1.0036 0.289561 -1.4493e-20)
(0.987281 0.279059 -8.74738e-21)
(0.924378 0.255625 -1.06456e-20)
(0.718441 0.194581 0)
(0.403885 0.108489 0)
(0.156531 0.0426411 -2.62818e-20)
(0.0257448 0.00890304 5.18461e-21)
(-0.0186926 -0.00298289 -3.0583e-21)
(-0.00933195 -0.00181638 -3.62263e-21)
(0.275728 0.0716548 -4.20123e-21)
(1.18729 0.29378 0)
(1.37325 0.351179 1.04051e-20)
(1.40798 0.372745 5.92038e-21)
(1.37089 0.381588 8.46746e-21)
(1.30972 0.382461 0)
(1.24842 0.3809 7.89311e-21)
(1.18719 0.376743 1.52017e-20)
(1.12614 0.36882 1.33039e-20)
(1.06667 0.355897 2.45206e-20)
(1.01869 0.340006 0)
(0.989422 0.326227 -3.09662e-20)
(0.968636 0.312852 -1.86949e-20)
(0.890363 0.281973 -1.10644e-20)
(0.662261 0.207118 6.77432e-20)
(0.351946 0.110326 8.01994e-21)
(0.125172 0.0408101 3.77734e-20)
(0.00867481 0.00558673 -1.78523e-19)
(-0.0262224 -0.0058181 1.05732e-19)
(-0.0104761 -0.0025715 -1.29067e-19)
(0.267702 0.0833428 -4.0616e-22)
(1.19091 0.352492 6.98674e-22)
(1.38023 0.417763 -9.48228e-22)
(1.41288 0.440156 -5.47496e-21)
(1.37279 0.445204 -6.81662e-21)
(1.30934 0.441601 3.55579e-22)
(1.24543 0.435546 -8.50931e-21)
(1.1813 0.426955 1.55131e-20)
(1.11725 0.414649 -2.84066e-20)
(1.05491 0.397468 0)
(1.00476 0.378127 -1.39734e-20)
(0.973953 0.362046 -3.02153e-22)
(0.948855 0.345506 -2.03496e-20)
(0.857508 0.306672 0)
(0.61509 0.218811 -1.458e-20)
(0.313624 0.112845 -3.44661e-20)
(0.102195 0.0393822 9.15643e-20)
(-0.00485346 0.00208121 -9.01526e-20)
(-0.0327199 -0.00893296 1.28147e-19)
(-0.0115138 -0.00338195 -1.34842e-19)
(0.260539 0.0939822 -1.16632e-22)
(1.18791 0.408276 2.52035e-22)
(1.38116 0.482231 -1.73974e-21)
(1.4123 0.505718 1.93569e-21)
(1.37004 0.507302 -3.34161e-21)
(1.3049 0.499449 0)
(1.23896 0.489086 -7.76344e-21)
(1.17249 0.476178 -1.61206e-20)
(1.10596 0.459521 -1.46622e-20)
(1.04122 0.438021 0)
(0.989303 0.415121 -1.42692e-20)
(0.957262 0.396583 -1.77391e-20)
(0.928277 0.376637 2.18991e-20)
(0.826294 0.329692 -1.33222e-20)
(0.575677 0.229813 -6.28761e-20)
(0.284553 0.115896 3.71486e-20)
(0.084229 0.0381174 1.09635e-20)
(-0.016669 -0.001753 0)
(-0.0390535 -0.0124262 -1.22605e-19)
(-0.0126193 -0.00428251 -4.54328e-21)
(0.254448 0.103922 6.84034e-22)
(1.18061 0.460919 -8.92214e-22)
(1.37754 0.544018 6.12501e-22)
(1.40745 0.568766 7.11949e-21)
(1.36359 0.567245 -1.17708e-20)
(1.29721 0.555448 1.50683e-20)
(1.22965 0.541026 1.66157e-20)
(1.16124 0.52398 -2.56363e-20)
(1.0926 0.503064 9.06802e-21)
(1.02581 0.477234 -5.92751e-20)
(0.972462 0.450669 -1.61193e-20)
(0.939465 0.429476 0)
(0.907143 0.405935 2.35964e-20)
(0.796853 0.350919 2.82275e-20)
(0.542702 0.240132 3.36949e-20)
(0.261918 0.11917 -3.99572e-20)
(0.0694876 0.0367012 -1.17889e-20)
(-0.0275883 -0.00608921 1.38954e-20)
(-0.0456913 -0.0164513 0)
(-0.0139555 -0.00533783 -9.76452e-21)
(0.249363 0.113228 -1.24231e-20)
(1.17078 0.510457 6.37478e-21)
(1.37069 0.603079 -2.46517e-22)
(1.39934 0.628961 3.89966e-21)
(1.35426 0.624657 -4.96925e-21)
(1.28696 0.609241 -8.54462e-22)
(1.2181 0.591065 -1.81387e-20)
(1.14805 0.570116 -9.25945e-21)
(1.07757 0.545077 -2.53092e-20)
(1.00897 0.514933 3.83273e-23)
(0.954399 0.484585 -5.00497e-20)
(0.920666 0.460514 4.24244e-20)
(0.88557 0.433148 -2.57281e-20)
(0.769138 0.370197 3.0815e-20)
(0.514918 0.249592 0)
(0.243958 0.122265 -2.14963e-20)
(0.0572017 0.0348434 2.50823e-23)
(-0.037614 -0.0110288 -5.98808e-20)
(-0.0525868 -0.0210905 -8.85142e-21)
(-0.015565 -0.00659756 0)
(0.245266 0.122176 0)
(1.15948 0.557127 7.57775e-21)
(1.36147 0.65944 1.93923e-21)
(1.38879 0.686151 -3.14384e-21)
(1.34276 0.679345 -6.67342e-21)
(1.27477 0.660644 0)
(1.20485 0.63903 -8.05697e-21)
(1.13338 0.614443 -2.35113e-22)
(1.06123 0.585474 5.40918e-20)
(0.990943 0.551066 -8.07998e-21)
(0.935261 0.516802 -3.60926e-20)
(0.900938 0.489611 2.1981e-20)
(0.863564 0.45814 -3.98381e-22)
(0.742889 0.387426 3.26973e-20)
(0.491176 0.257999 1.97466e-20)
(0.229443 0.124769 -4.61367e-20)
(0.0471529 0.0323653 5.44497e-20)
(-0.0463291 -0.0164878 1.61054e-20)
(-0.0592634 -0.0262357 6.67138e-20)
(-0.0173677 -0.00805897 -1.80522e-19)
(0.242083 0.130932 -4.56291e-21)
(1.14754 0.601104 5.78719e-21)
(1.35054 0.712753 -3.64496e-21)
(1.37648 0.740302 1.63455e-21)
(1.32967 0.731232 0)
(1.26116 0.709562 -6.44771e-21)
(1.19035 0.684836 2.72495e-20)
(1.11762 0.656903 2.01909e-20)
(1.04392 0.624229 0)
(0.97197 0.585649 -1.16446e-19)
(0.915171 0.547339 9.74394e-20)
(0.880301 0.516764 0)
(0.841058 0.480901 2.98121e-20)
(0.717742 0.40258 -3.33276e-22)
(0.4704 0.265195 -6.3289e-20)
(0.21747 0.126465 2.47564e-20)
(0.0393109 0.0293887 0)
(-0.0531765 -0.0221545 8.65566e-20)
(-0.0650478 -0.0315722 0)
(-0.019174 -0.0096592 -8.49563e-20)
(0.239741 0.139508 5.57219e-21)
(1.13549 0.642632 7.88589e-21)
(1.33841 0.763098 -3.50998e-21)
(1.36294 0.79144 0)
(1.31547 0.780328 -5.05558e-21)
(1.24658 0.755989 0)
(1.17501 0.728456 -2.6621e-20)
(1.10112 0.697482 -9.2642e-21)
(1.02591 0.661368 9.50068e-21)
(0.952264 0.618749 -5.76409e-20)
(0.894233 0.576289 1.00629e-20)
(0.858773 0.542047 0)
(0.817968 0.501502 -6.36222e-20)
(0.6933 0.415688 2.74158e-22)
(0.451606 0.271171 0)
(0.207301 0.127387 5.00642e-23)
(0.0333514 0.0261314 7.87683e-20)
(-0.0579071 -0.0276104 -7.44854e-20)
(-0.069399 -0.0366827 2.20579e-20)
(-0.0207697 -0.0112696 0)
(0.237905 0.147881 0)
(1.12356 0.681917 9.71888e-21)
(1.32554 0.8106 5.70424e-21)
(1.34861 0.839648 -5.33662e-22)
(1.30058 0.826682 -1.207e-21)
(1.23138 0.799954 -1.45763e-20)
(1.15915 0.769911 1.00957e-20)
(1.08419 0.736202 -1.10719e-20)
(1.00749 0.696938 4.26075e-20)
(0.932024 0.650472 -9.24191e-20)
(0.872552 0.603791 -8.53616e-22)
(0.836374 0.565567 -2.79397e-20)
(0.794235 0.520056 1.03206e-19)
(0.669079 0.426902 -3.91857e-22)
(0.434111 0.27588 -4.89213e-20)
(0.198348 0.127629 -8.62746e-20)
(0.0290488 0.02291 0)
(-0.0605133 -0.032481 0)
(-0.0720471 -0.0411822 2.37529e-20)
(-0.0219864 -0.0127691 -1.40921e-20)
(0.236743 0.156241 8.05329e-21)
(1.11197 0.718996 -2.22319e-20)
(1.31226 0.855376 -6.11248e-21)
(1.33383 0.885017 0)
(1.28531 0.87037 -3.09398e-22)
(1.21588 0.841514 -1.28786e-20)
(1.14307 0.809247 2.41181e-20)
(1.06709 0.773101 4.34068e-20)
(0.988891 0.731005 5.54884e-20)
(0.911461 0.68094 -7.57832e-20)
(0.850255 0.630026 -8.43346e-20)
(0.813119 0.587485 7.49167e-20)
(0.769801 0.536667 0)
(0.64484 0.43631 -2.2465e-20)
(0.417375 0.279391 -5.26936e-20)
(0.190213 0.127339 -6.19832e-20)
(0.0260335 0.0199498 -7.30666e-20)
(-0.0613112 -0.0365047 2.16347e-20)
(-0.073048 -0.0448593 -1.27706e-20)
(-0.0227391 -0.0140594 5.18651e-23)
(0.23584 0.164412 0)
(1.10111 0.753931 0)
(1.29883 0.89754 5.08506e-22)
(1.31886 0.927654 0)
(1.26993 0.911494 1.34815e-21)
(1.20033 0.880749 8.36829e-21)
(1.127 0.846521 0)
(1.05006 0.808231 5.12378e-21)
(0.970348 0.763631 9.29978e-20)
(0.890786 0.710284 -1.74911e-19)
(0.827474 0.655197 0)
(0.789042 0.607997 -4.85495e-20)
(0.744605 0.551363 -5.04944e-22)
(0.620549 0.44381 -2.89189e-22)
(0.401082 0.281625 5.67584e-20)
(0.182723 0.126602 4.51465e-23)
(0.024035 0.0174935 -1.57397e-19)
(-0.0607918 -0.0394954 4.65398e-20)
(-0.0727158 -0.0476345 1.38099e-20)
(-0.0230295 -0.0150746 0)
(0.235193 0.172354 -3.28572e-20)
(1.09073 0.787147 -1.53349e-20)
(1.28535 0.937183 -1.89844e-20)
(1.30391 0.967673 1.59172e-20)
(1.25464 0.950139 -6.08424e-22)
(1.18491 0.917739 0)
(1.11114 0.8818 1.45805e-20)
(1.03328 0.841651 -1.15464e-20)
(0.952052 0.794879 8.01491e-22)
(0.870202 0.738621 1.29711e-20)
(0.804365 0.679523 1.10451e-19)
(0.76415 0.627333 -1.71113e-20)
(0.718516 0.564202 -6.4179e-20)
(0.596092 0.449182 -2.6262e-20)
(0.385317 0.282259 3.0628e-20)
(0.176139 0.125392 6.06966e-23)
(0.0230863 0.0159252 4.24189e-20)
(-0.0596992 -0.0410501 -1.00207e-19)
(-0.0719288 -0.0494376 1.18926e-19)
(-0.0230486 -0.0158583 1.75597e-20)
(0.234598 0.180057 1.25512e-20)
(1.08085 0.8187 -8.6711e-21)
(1.27203 0.974441 1.32413e-21)
(1.28915 1.00521 1.08465e-20)
(1.23959 0.986426 1.5107e-21)
(1.1698 0.952569 -1.44676e-20)
(1.09565 0.91515 4.09298e-21)
(1.01692 0.873406 -4.83045e-20)
(0.934185 0.824793 -1.03582e-19)
(0.849894 0.766028 -1.0533e-19)
(0.781095 0.703211 0)
(0.738468 0.645779 -7.57564e-20)
(0.691352 0.575282 9.29577e-20)
(0.571175 0.452042 0)
(0.370252 0.280573 -6.59027e-20)
(0.171502 0.12302 3.8833e-20)
(0.0245623 0.0154474 -4.57001e-20)
(-0.0578816 -0.0407718 -5.40263e-20)
(-0.0723612 -0.0507449 -9.59524e-20)
(-0.0236211 -0.016833 -7.57744e-20)
(0.234344 0.187611 -1.42939e-20)
(1.07135 0.84861 9.2929e-21)
(1.25895 1.0094 2.06601e-20)
(1.27471 1.04035 1.62964e-20)
(1.22493 1.02046 -2.2713e-21)
(1.1551 0.985334 -7.42081e-21)
(1.08064 0.946634 1.39011e-20)
(1.00111 0.903555 -4.98391e-20)
(0.916879 0.853421 -6.18408e-20)
(0.830045 0.792583 1.11335e-19)
(0.757839 0.726443 2.45921e-19)
(0.712046 0.663665 0)
(0.662844 0.584816 0)
(0.545231 0.451961 -3.03424e-20)
(0.355699 0.275204 0)
(0.170367 0.117712 8.34786e-20)
(0.031772 0.0137622 9.8325e-20)
(-0.051437 -0.0407036 0)
(-0.0733981 -0.0530107 0)
(-0.0260102 -0.0189315 8.16613e-20)
(0.233961 0.194748 1.63417e-20)
(1.06226 0.876899 1.28766e-20)
(1.24621 1.04217 1.50564e-20)
(1.26066 1.07325 -1.6141e-20)
(1.21072 1.05235 -3.84113e-21)
(1.14092 1.01612 6.92813e-21)
(1.06622 0.97632 -1.9193e-20)
(0.985953 0.932139 -2.7673e-22)
(0.900264 0.880789 -1.06246e-21)
(0.810812 0.818322 -6.04536e-22)
(0.734801 0.749369 1.27492e-19)
(0.684976 0.681318 0)
(0.632724 0.593201 9.56239e-20)
(0.517275 0.448856 6.56008e-20)
(0.34008 0.264564 1.54937e-19)
(0.171772 0.104921 4.52309e-20)
(0.0485358 0.00158177 -5.30157e-20)
(-0.0279394 -0.0519893 -3.13289e-20)
(-0.0582869 -0.0590071 0)
(-0.0269697 -0.0215091 8.82905e-20)
(0.233925 0.201914 -3.71726e-20)
(1.05355 0.903673 0)
(1.23381 1.07283 1.79615e-20)
(1.24705 1.104 -1.384e-20)
(1.19706 1.0822 6.29239e-21)
(1.1273 1.045 -6.09267e-21)
(1.05244 1.00426 3.71001e-20)
(0.971511 0.959196 -3.99169e-21)
(0.884427 0.906919 0)
(0.792338 0.843246 -1.24692e-19)
(0.712189 0.77209 -2.80199e-19)
(0.657413 0.69907 1.14831e-20)
(0.600841 0.600983 1.3405e-19)
(0.486358 0.443271 0)
(0.320842 0.248426 1.05531e-19)
(0.170796 0.0801082 0)
(0.0684967 -0.0343695 0)
(0.0184946 -0.0971369 -3.38999e-20)
(0.0140114 -0.0803067 0)
(0.0154299 -0.0064427 2.38045e-20)
(0.23363 0.208542 -4.16619e-20)
(1.04521 0.929265 0)
(1.22176 1.10158 3.02091e-20)
(1.23385 1.13283 0)
(1.18389 1.11027 -4.17521e-21)
(1.1142 1.07229 0)
(1.03925 1.03077 1.73134e-21)
(0.957705 0.985057 7.03211e-21)
(0.869259 0.932161 7.93485e-21)
(0.77447 0.867721 -1.37924e-19)
(0.68983 0.795063 8.47649e-21)
(0.629051 0.717682 9.3281e-20)
(0.566561 0.609116 1.31817e-19)
(0.450983 0.436042 1.7569e-20)
(0.294646 0.228104 8.3627e-20)
(0.158556 0.0447419 0)
(0.0724403 -0.0945699 1.12117e-19)
(0.0425539 -0.12259 -6.57516e-20)
(0.0204265 0.0279943 7.71939e-20)
(-0.039077 0.463426 -9.16879e-20)
(0.233378 0.215015 3.46054e-20)
(1.037 0.953497 5.18667e-20)
(1.20999 1.12874 0)
(1.22091 1.16021 9.8734e-22)
(1.17104 1.13716 1.30729e-20)
(1.10134 1.09864 3.53868e-21)
(1.02634 1.05664 1.27332e-20)
(0.94411 1.01064 0)
(0.854211 0.957582 5.25783e-20)
(0.756504 0.893003 -7.20678e-21)
(0.66675 0.8197 0)
(0.598415 0.738692 0)
(0.527341 0.61857 1.19626e-19)
(0.407831 0.427346 -5.45698e-20)
(0.257658 0.205383 -8.59959e-20)
(0.129302 0.00246297 0)
(0.0460517 -0.0575326 5.73188e-20)
(0.00158551 0.446275 -6.62874e-20)
(0.0270549 1.94998 -3.71839e-20)
(0.0528915 2.83599 -4.57392e-20)
(0.232865 0.220998 -2.61496e-20)
(1.029 0.976554 -6.6863e-20)
(1.19851 1.15433 1.80799e-20)
(1.20825 1.18599 1.41533e-20)
(1.15858 1.16266 0)
(1.08883 1.12381 3.43087e-22)
(1.01392 1.08155 1.70142e-20)
(0.930941 1.03554 -3.43355e-21)
(0.839599 0.98269 7.94621e-21)
(0.738883 0.918544 1.3291e-19)
(0.643663 0.845489 1.4527e-19)
(0.566592 0.762301 1.0747e-19)
(0.483882 0.630307 1.2212e-19)
(0.357279 0.417235 -1.30743e-19)
(0.214099 0.185586 -1.3186e-19)
(0.0868643 0.0646521 0)
(0.0324407 0.924991 0)
(0.0772592 2.60099 3.20086e-20)
(0.0805884 3.22163 0)
(0.0829033 3.39239 8.34163e-20)
(0.23521 0.226677 0)
(1.02157 0.998848 0)
(1.18701 1.17821 0)
(1.19568 1.21005 4.38853e-21)
(1.14615 1.18654 1.2084e-20)
(1.07649 1.14763 -2.25092e-21)
(1.00194 1.10542 1.08541e-20)
(0.918135 1.05961 -3.36593e-21)
(0.825363 1.00731 6.64727e-20)
(0.721618 0.944181 -1.46203e-21)
(0.620706 0.872259 2.90317e-19)
(0.534018 0.788735 -1.25397e-20)
(0.436189 0.645892 1.50905e-20)
(0.300306 0.404754 1.91803e-20)
(0.157666 0.200117 -9.07088e-22)
(0.0757644 1.04189 3.40296e-22)
(0.110589 2.78499 -1.73722e-19)
(0.114951 3.30354 -6.5164e-20)
(0.108126 3.42261 3.4313e-20)
(0.0997133 3.44183 -3.88924e-20)
(0.157943 0.171912 1.60641e-20)
(1.00969 1.0231 0)
(1.17527 1.2006 -3.7441e-20)
(1.18364 1.23283 -3.91466e-20)
(1.13421 1.20926 3.01081e-20)
(1.06499 1.17059 3.36141e-21)
(0.990162 1.12825 -1.1106e-20)
(0.905726 1.08291 3.72609e-20)
(0.811592 1.03152 -5.49456e-20)
(0.704961 0.970034 0)
(0.598255 0.900109 1.44665e-19)
(0.501314 0.817922 -8.9296e-20)
(0.389041 0.676112 0)
(0.235324 0.396653 1.90028e-20)
(0.110087 0.695391 4.41885e-20)
(0.125185 2.59939 -4.92589e-20)
(0.170243 3.32607 5.56401e-20)
(0.155711 3.42898 2.9913e-20)
(0.130422 3.44793 3.36515e-20)
(0.112806 3.45698 5.3786e-20)
(0.269436 0.263614 -3.08897e-20)
(0.990631 1.03211 0)
(1.15573 1.22598 4.06079e-20)
(1.16811 1.26397 4.35722e-20)
(1.1159 1.24275 -3.4676e-20)
(1.04609 1.20438 -8.09841e-21)
(0.970025 1.16356 9.31221e-21)
(0.884848 1.11938 2.96644e-21)
(0.788887 1.07009 5.28639e-20)
(0.678425 1.01254 1.17806e-19)
(0.563987 0.948514 8.19152e-21)
(0.450377 0.86543 8.09735e-20)
(0.299358 0.695644 1.4673e-20)
(0.192559 0.838693 -1.85164e-20)
(0.199048 2.48845 -4.08803e-20)
(0.249966 3.3259 4.00896e-20)
(0.232745 3.44952 -4.38712e-20)
(0.199868 3.46942 -2.50753e-20)
(0.167826 3.49456 -2.29008e-20)
(0.123554 3.49103 -3.28756e-21)
(0.259232 0.262248 0)
(0.986931 1.0545 1.20336e-20)
(1.14628 1.24937 -8.42562e-21)
(1.15638 1.28748 -5.26993e-21)
(1.10417 1.26601 -2.42947e-20)
(1.03432 1.22779 8.88431e-21)
(0.957846 1.18713 -4.44453e-21)
(0.872248 1.14375 2.66654e-21)
(0.775324 1.09592 -5.54098e-20)
(0.662671 1.04129 -2.55692e-21)
(0.543572 0.982043 -2.6593e-19)
(0.420522 0.90061 1.16774e-20)
(0.274298 0.769318 -1.40112e-20)
(0.229027 1.5225 -1.7139e-20)
(0.293749 3.14553 3.64119e-21)
(0.30464 3.44883 3.52039e-23)
(0.264596 3.49586 6.64935e-20)
(0.231732 3.52149 3.38557e-20)
(0.186711 3.54252 -1.13791e-20)
(0.137728 3.5404 -1.6817e-20)
(0.244994 0.259937 3.09576e-20)
(0.982271 1.07939 8.16239e-20)
(1.13644 1.27484 -2.3976e-20)
(1.14425 1.31262 -1.97281e-20)
(1.09195 1.29075 0)
(1.02214 1.25253 1.8737e-20)
(0.945548 1.2121 -3.41575e-21)
(0.859789 1.1695 2.33975e-21)
(0.762228 1.12329 -6.2364e-21)
(0.647968 1.072 -1.0837e-19)
(0.525263 1.01829 -1.23794e-19)
(0.39395 0.937305 -9.60863e-20)
(0.274334 0.927536 -1.06264e-19)
(0.297071 2.33308 1.08954e-19)
(0.376616 3.37736 9.1759e-20)
(0.34546 3.50186 0)
(0.299007 3.5416 0)
(0.263049 3.57663 -9.21562e-21)
(0.221129 3.62154 0)
(0.152239 3.60867 -1.4538e-20)
(0.234959 0.261561 -4.62556e-20)
(0.975659 1.10506 -6.92711e-20)
(1.12517 1.30153 0)
(1.13084 1.33859 1.19857e-21)
(1.07844 1.31614 -2.7115e-20)
(1.00886 1.27785 3.19472e-20)
(0.932466 1.23771 -4.72534e-22)
(0.846782 1.19584 1.26766e-21)
(0.748855 1.15127 -3.95542e-20)
(0.633472 1.10344 5.41335e-21)
(0.508219 1.05544 0)
(0.368278 0.977211 0)
(0.295998 1.24133 -9.71837e-20)
(0.37964 2.98533 3.94712e-20)