/*--------------------------------*- C++ -*----------------------------------*\
  =========                 |
  \\      /  F ield         | OpenFOAM: The Open Source CFD Toolbox
   \\    /   O peration     | Website:  https://openfoam.org
    \\  /    A nd           | Version:  6
     \\/     M anipulation  |
\*---------------------------------------------------------------------------*/
FoamFile
{
    version     2.0;
    format      ascii;
    class       volVectorField;
    location    "97.5";
    object      U;
}
// * * * * * * * * * * * * * * * * * * * * * * * * * * * * * * * * * * * * * //

dimensions      [0 1 -1 0 0 0 0];

internalField   nonuniform List<vector> 
8800
(
(0.987184 -0.0766652 0)
(1.00189 -0.0551899 0)
(0.999722 -0.0285477 0)
(1.00003 -0.0151425 0)
(1.0001 -0.00854356 0)
(1.00012 -0.00504541 0)
(1.00008 -0.00299954 0)
(1.00002 -0.00169859 0)
(0.999991 -0.000792074 0)
(1.00006 -7.59255e-05 0)
(0.999958 0.000656744 0)
(1.00001 0.00142493 0)
(1.00006 0.00243015 0)
(1.00007 0.00399905 0)
(1.00006 0.00663286 0)
(1.00005 0.0113723 0)
(0.999955 0.0208158 0)
(0.999173 0.0386705 0)
(1.0071 0.0724575 0)
(0.771215 0.0366617 0)
(0.36308 -0.0160163 0)
(1.04332 -0.0768111 0)
(1.0846 -0.070439 0)
(1.04519 -0.0535323 0)
(1.02329 -0.0388823 0)
(1.01203 -0.0262028 0)
(1.00644 -0.0168388 0)
(1.0036 -0.010303 0)
(1.00215 -0.00563846 0)
(1.00144 -0.00197526 0)
(1.00128 0.00134712 0)
(1.00166 0.00473593 0)
(1.00269 0.00865808 0)
(1.00468 0.0139755 0)
(1.00861 0.0216835 0)
(1.01657 0.0326499 0)
(1.03251 0.0465614 0)
(1.06269 0.0616775 0)
(1.09187 0.0761054 0)
(0.838664 0.0565643 0)
(0.216873 -0.00242861 0)
(1.07592 -0.050122 0)
(1.09989 -0.0482904 0)
(1.06465 -0.0404384 0)
(1.04005 -0.0335751 0)
(1.02393 -0.0260471 0)
(1.01413 -0.0184554 0)
(1.00856 -0.0116254 0)
(1.00558 -0.00574742 0)
(1.0043 -0.00032239 0)
(1.00463 0.00492787 0)
(1.00661 0.0103199 0)
(1.01063 0.0163795 0)
(1.01794 0.023396 0)
(1.03053 0.0308578 0)
(1.05062 0.037881 0)
(1.08037 0.0445609 0)
(1.10627 0.0513693 0)
(0.942496 0.04163 0)
(0.216115 0.00246297 0)
(0.17522 -0.000815041 0)
(1.01776 -0.0354634 0)
(1.10523 -0.0413457 0)
(1.07829 -0.0360216 0)
(1.0535 -0.0300785 0)
(1.03624 -0.0244921 0)
(1.02403 -0.0187495 0)
(1.0159 -0.0126536 0)
(1.01102 -0.00645107 0)
(1.00879 -0.000104888 0)
(1.00934 0.0061568 0)
(1.01265 0.0121546 0)
(1.01889 0.0179471 0)
(1.02875 0.0235101 0)
(1.04318 0.0288038 0)
(1.0637 0.0342756 0)
(1.09356 0.0402529 0)
(1.09339 0.0420029 0)
(0.827038 0.0229327 0)
(0.173941 0.000854953 0)
(0.154045 -0.000608699 0)
(0.956323 -0.0254285 0)
(1.10353 -0.0350766 0)
(1.08773 -0.0325866 0)
(1.06178 -0.0279215 0)
(1.04417 -0.0228821 0)
(1.03169 -0.017615 0)
(1.02282 -0.012061 0)
(1.01698 -0.00610429 0)
(1.0141 0.000381163 0)
(1.01475 0.00685177 0)
(1.01877 0.0127324 0)
(1.0258 0.0179729 0)
(1.03606 0.0228745 0)
(1.0506 0.0276225 0)
(1.07184 0.0321366 0)
(1.10005 0.0360583 0)
(1.06799 0.0340953 0)
(0.739311 0.014341 0)
(0.152115 0.00065405 0)
(0.139708 -0.000464613 0)
(0.899535 -0.0190358 0)
(1.09591 -0.030005 0)
(1.09583 -0.0290931 0)
(1.06934 -0.0253442 0)
(1.0509 -0.0211836 0)
(1.03796 -0.0163833 0)
(1.02882 -0.0110666 0)
(1.02267 -0.00529534 0)
(1.01949 0.00105333 0)
(1.02007 0.00737683 0)
(1.02421 0.0130064 0)
(1.03135 0.0179044 0)
(1.04181 0.0223506 0)
(1.05692 0.0263016 0)
(1.07911 0.0297409 0)
(1.1022 0.032348 0)
(1.03577 0.0282102 0)
(0.672578 0.0102483 0)
(0.136977 0.00051694 0)
(0.129212 -0.000358798 0)
(0.850102 -0.0146608 0)
(1.08362 -0.0258457 0)
(1.10157 -0.0261063 0)
(1.07624 -0.0227968 0)
(1.05727 -0.0191251 0)
(1.04386 -0.0148433 0)
(1.03436 -0.00988053 0)
(1.02796 -0.00431168 0)
(1.02457 0.00186431 0)
(1.02499 0.0079788 0)
(1.02908 0.0133309 0)
(1.03632 0.017804 0)
(1.04704 0.0216416 0)
(1.06255 0.0249228 0)
(1.08517 0.0278355 0)
(1.10122 0.029563 0)
(1.00067 0.0237273 0)
(0.620519 0.00789585 0)
(0.125505 0.000420375 0)
(0.121225 -0.000277601 0)
(0.808171 -0.011488 0)
(1.06849 -0.0222038 0)
(1.10518 -0.0234244 0)
(1.08256 -0.0205202 0)
(1.06317 -0.0170553 0)
(1.04948 -0.0130709 0)
(1.03969 -0.00843517 0)
(1.03299 -0.00312774 0)
(1.02933 0.00283823 0)
(1.02955 0.00870969 0)
(1.03359 0.0137122 0)
(1.04086 0.0176973 0)
(1.05167 0.0210243 0)
(1.06738 0.0238889 0)
(1.09035 0.0264949 0)
(1.09732 0.0273146 0)
(0.965126 0.0202277 0)
(0.578571 0.00637585 0)
(0.116331 0.000350869 0)
(0.115063 -0.000213748 0)
(0.77297 -0.00910797 0)
(1.05193 -0.0189879 0)
(1.10766 -0.0209295 0)
(1.08851 -0.0183867 0)
(1.06873 -0.0150566 0)
(1.05479 -0.0112225 0)
(1.0448 -0.00678451 0)
(1.03783 -0.00170568 0)
(1.03387 0.00401712 0)
(1.03384 0.00959507 0)
(1.03774 0.0142207 0)
(1.04493 0.0177689 0)
(1.0557 0.0207052 0)
(1.0716 0.0232378 0)
(1.09421 0.0254889 0)
(1.09053 0.0254781 0)
(0.930428 0.0175473 0)
(0.543702 0.00534626 0)
(0.108725 0.000301383 0)
(0.110291 -0.000162098 0)
(0.743569 -0.00725322 0)
(1.03501 -0.0161259 0)
(1.10924 -0.0185642 0)
(1.09418 -0.0163161 0)
(1.07412 -0.0130662 0)
(1.05991 -0.0093073 0)
(1.04971 -0.00497524 0)
(1.0425 -5.48533e-05 0)
(1.03821 0.00543834 0)
(1.03785 0.0107099 0)
(1.04152 0.0149752 0)
(1.04852 0.0181324 0)
(1.05923 0.0207212 0)
(1.07532 0.0229553 0)
(1.09675 0.024816 0)
(1.08122 0.0240119 0)
(0.897114 0.0155373 0)
(0.513847 0.00463814 0)
(0.102202 0.000267244 0)
(0.106631 -0.000118859 0)
(0.719157 -0.00574921 0)
(1.01856 -0.0135453 0)
(1.11003 -0.0162642 0)
(1.09979 -0.0142737 0)
(1.07946 -0.0110212 0)
(1.06495 -0.00727504 0)
(1.05451 -0.00298655 0)
(1.04702 0.00183766 0)
(1.04237 0.00714683 0)
(1.0416 0.0121383 0)
(1.04494 0.0160676 0)
(1.05171 0.0188484 0)
(1.06232 0.0211006 0)
(1.07857 0.0230582 0)
(1.0979 0.0244888 0)
(1.06974 0.0229167 0)
(0.865272 0.0140825 0)
(0.487529 0.00416169 0)
(0.0964139 0.000245454 0)
(0.103897 -8.10284e-05 0)
(0.699104 -0.00447915 0)
(1.00322 -0.0111774 0)
(1.11021 -0.0139921 0)
(1.10527 -0.0121731 0)
(1.08483 -0.00886631 0)
(1.06999 -0.00507091 0)
(1.05927 -0.000762529 0)
(1.05144 0.00402573 0)
(1.04634 0.00920377 0)
(1.04507 0.0139511 0)
(1.04802 0.0175632 0)
(1.0545 0.0199711 0)
(1.065 0.0218931 0)
(1.08136 0.0235768 0)
(1.09794 0.0246575 0)
(1.05633 0.0222113 0)
(0.834695 0.0131009 0)
(0.463632 0.00386308 0)
(0.0910963 0.000233658 0)
(0.101974 -4.58788e-05 0)
(0.682954 -0.00335514 0)
(0.989456 -0.00894991 0)
(1.10999 -0.011659 0)
(1.11061 -0.00992961 0)
(1.09031 -0.00653793 0)
(1.07512 -0.00262943 0)
(1.06406 0.001768 0)
(1.05581 0.0065855 0)
(1.05017 0.0116871 0)
(1.0483 0.0162249 0)
(1.05077 0.0195353 0)
(1.05691 0.0215679 0)
(1.06725 0.0231573 0)
(1.08362 0.0245467 0)
(1.09708 0.0251696 0)
(1.04111 0.0219036 0)
(0.805003 0.0125165 0)
(0.441263 0.00370371 0)
(0.0860386 0.000229709 0)
(0.100803 -1.11096e-05 0)
(0.670418 -0.0023068 0)
(0.977628 -0.00678703 0)
(1.10972 -0.00920709 0)
(1.11596 -0.00748155 0)
(1.09599 -0.0039582 0)
(1.08041 0.000131648 0)
(1.06895 0.00469053 0)
(1.0602 0.00960759 0)
(1.05389 0.0146898 0)
(1.05129 0.0190501 0)
(1.0532 0.02207 0)
(1.05893 0.0237232 0)
(1.06907 0.0249727 0)
(1.08542 0.0260663 0)
(1.09486 0.026166 0)
(1.02408 0.0220009 0)
(0.775718 0.0122841 0)
(0.419696 0.00365956 0)
(0.0810737 0.00023234 0)
(0.10038 2.59126e-05 0)
(0.661358 -0.00127736 0)
(0.968068 -0.00461492 0)
(1.10973 -0.00657453 0)
(1.12147 -0.00475463 0)
(1.10197 -0.0010378 0)
(1.08597 0.00330713 0)
(1.07402 0.0081044 0)
(1.06466 0.0131964 0)
(1.05755 0.0183214 0)
(1.05408 0.0225391 0)
(1.05529 0.0252739 0)
(1.06056 0.0265527 0)
(1.07044 0.0274394 0)
(1.08665 0.0281973 0)
(1.09122 0.0276776 0)
(1.00514 0.0225484 0)
(0.746292 0.0123796 0)
(0.398303 0.00371737 0)
(0.0760595 0.000240848 0)
(0.100713 5.91194e-05 0)
(0.655765 -0.000207755 0)
(0.961087 -0.00235728 0)
(1.11037 -0.00369293 0)
(1.12731 -0.00166364 0)
(1.10835 0.00232451 0)
(1.09188 0.00700814 0)
(1.07937 0.0121298 0)
(1.06926 0.0174786 0)
(1.06119 0.0227121 0)
(1.05666 0.0268197 0)
(1.05705 0.0292755 0)
(1.06176 0.0301766 0)
(1.07133 0.0306774 0)
(1.08704 0.0310555 0)
(1.08583 0.029794 0)
(0.984045 0.0235831 0)
(0.716108 0.0127877 0)
(0.37651 0.00386722 0)
(0.0708697 0.000254329 0)
(0.101898 0.000114831 0)
(0.653799 0.000945421 0)
(0.957009 6.31223e-05 0)
(1.11202 -0.000482036 0)
(1.13367 0.00189326 0)
(1.11525 0.0062503 0)
(1.09826 0.0113695 0)
(1.08507 0.0169137 0)
(1.07408 0.0226104 0)
(1.06483 0.02802 0)
(1.05905 0.0320488 0)
(1.05846 0.0342285 0)
(1.0625 0.0347296 0)
(1.07168 0.0348226 0)
(1.08642 0.0347784 0)
(1.07842 0.0325986 0)
(0.960407 0.0251435 0)
(0.68448 0.0134977 0)
(0.353773 0.00409945 0)
(0.0653946 0.000271777 0)
(0.104077 0.000166975 0)
(0.655639 0.00207231 0)
(0.956204 0.00274142 0)
(1.11517 0.00316377 0)
(1.14079 0.00602795 0)
(1.12285 0.0108823 0)
(1.10526 0.0165511 0)
(1.09126 0.0226308 0)
(1.07917 0.0287745 0)
(1.06852 0.0344291 0)
(1.06124 0.0383974 0)
(1.0595 0.0402664 0)
(1.06274 0.0403698 0)
(1.07144 0.0400271 0)
(1.08456 0.0394648 0)
(1.06864 0.0361949 0)
(0.933691 0.027274 0)
(0.650667 0.0145001 0)
(0.329592 0.0044035 0)
(0.0595441 0.000291979 0)
(0.107358 0.000231239 0)
(0.66193 0.00356468 0)
(0.959017 0.00569532 0)
(1.12027 0.00738401 0)
(1.14892 0.0108859 0)
(1.13132 0.0164053 0)
(1.11304 0.0227607 0)
(1.09804 0.0295057 0)
(1.08462 0.0362013 0)
(1.07227 0.0421601 0)
(1.06321 0.0460694 0)
(1.06016 0.0476098 0)
(1.06243 0.0472833 0)
(1.07056 0.0464632 0)
(1.08147 0.0452833 0)
(1.05601 0.0407028 0)
(0.903186 0.0300089 0)
(0.613868 0.0157743 0)
(0.303504 0.00476327 0)
(0.0532522 0.000313122 0)
(0.112025 0.000318346 0)
(0.672988 0.00531836 0)
(0.966038 0.00920955 0)
(1.12783 0.0123414 0)
(1.15839 0.0166834 0)
(1.14089 0.0230631 0)
(1.12177 0.0302639 0)
(1.10554 0.0378172 0)
(1.09049 0.0451697 0)
(1.07609 0.0514773 0)
(1.06494 0.0553002 0)
(1.0603 0.0564759 0)
(1.06152 0.0556727 0)
(1.06896 0.0543263 0)
(1.07704 0.052412 0)
(1.03988 0.0462298 0)
(0.867992 0.0333534 0)
(0.573238 0.0172746 0)
(0.275125 0.00515182 0)
(0.0464904 0.000332542 0)
(0.118439 0.000435144 0)
(0.689636 0.00750401 0)
(0.978088 0.0134956 0)
(1.13842 0.0182704 0)
(1.16958 0.0236845 0)
(1.15187 0.0311771 0)
(1.13167 0.0394129 0)
(1.1139 0.0479267 0)
(1.09683 0.0560216 0)
(1.07997 0.0626802 0)
(1.06637 0.0663433 0)
(1.05983 0.067064 0)
(1.05996 0.0657426 0)
(1.06671 0.0638188 0)
(1.07094 0.061045 0)
(1.01936 0.0528408 0)
(0.82701 0.0372576 0)
(0.527952 0.0189107 0)
(0.244215 0.00552676 0)
(0.039286 0.000346662 0)
(0.127131 0.000598018 0)
(0.712898 0.01036 0)
(0.995923 0.0188198 0)
(1.15273 0.0255152 0)
(1.18297 0.0322734 0)
(1.16458 0.0412113 0)
(1.14297 0.0506985 0)
(1.12322 0.0603166 0)
(1.10363 0.0691884 0)
(1.08382 0.0761148 0)
(1.0674 0.0794699 0)
(1.05873 0.079603 0)
(1.0577 0.0776948 0)
(1.06352 0.0750948 0)
(1.06256 0.0711994 0)
(0.993291 0.0605499 0)
(0.778959 0.0415744 0)
(0.477304 0.0205277 0)
(0.21078 0.00582802 0)
(0.031743 0.000351189 0)
(0.138906 0.00083691 0)
(0.744155 0.0142688 0)
(1.02071 0.0256595 0)
(1.17153 0.034625 0)
(1.19923 0.0430566 0)
(1.17944 0.0538483 0)
(1.15587 0.0648069 0)
(1.13352 0.0756115 0)
(1.1108 0.0851818 0)
(1.08749 0.0921605 0)
(1.06788 0.0949458 0)
(1.05692 0.094306 0)
(1.05476 0.0917765 0)
(1.05906 0.0883796 0)
(1.05107 0.0830625 0)
(0.960125 0.0692175 0)
(0.722459 0.0460048 0)
(0.420911 0.0218878 0)
(0.175197 0.00597899 0)
(0.0240593 0.000341681 0)
(0.15507 0.00121042 0)
(0.785408 0.0198817 0)
(1.05413 0.0348069 0)
(1.1958 0.0465584 0)
(1.21926 0.0574486 0)
(1.19679 0.070161 0)
(1.17045 0.0827318 0)
(1.14467 0.0946282 0)
(1.11807 0.104595 0)
(1.09072 0.111193 0)
(1.06761 0.112996 0)
(1.05425 0.111341 0)
(1.05104 0.1081 0)
(1.05315 0.103955 0)
(1.03526 0.0965757 0)
(0.917874 0.0784729 0)
(0.656237 0.0500459 0)
(0.359017 0.0226726 0)
(0.138352 0.00589777 0)
(0.0165328 0.000314595 0)
(0.177871 0.00185778 0)
(0.839886 0.0283493 0)
(1.09907 0.0478576 0)
(1.22662 0.0631873 0)
(1.24347 0.0770571 0)
(1.21676 0.0918302 0)
(1.18645 0.105841 0)
(1.15623 0.118345 0)
(1.12501 0.128045 0)
(1.09312 0.133557 0)
(1.06632 0.133802 0)
(1.05053 0.130796 0)
(1.04633 0.126702 0)
(1.04565 0.121547 0)
(1.01336 0.111451 0)
(0.864094 0.0876166 0)
(0.579628 0.0529731 0)
(0.292965 0.0225322 0)
(0.101742 0.00552013 0)
(0.00954829 0.000267756 0)
(0.210798 0.00329012 0)
(0.913459 0.0424408 0)
(1.15856 0.0687122 0)
(1.26435 0.0880279 0)
(1.27174 0.105007 0)
(1.23871 0.121294 0)
(1.20304 0.135788 0)
(1.16738 0.147758 0)
(1.13092 0.156069 0)
(1.09423 0.159494 0)
(1.0637 0.157452 0)
(1.04559 0.152682 0)
(1.0405 0.147601 0)
(1.03568 0.141192 0)
(0.982744 0.127039 0)
(0.796045 0.0954807 0)
(0.493618 0.0539332 0)
(0.225918 0.0212652 0)
(0.0675859 0.00484295 0)
(0.00358823 0.00020034 0)
(0.255729 0.00974458 9.25424e-21)
(1.00992 0.0703493 7.94886e-21)
(1.23016 0.104197 -2.78133e-21)
(1.30611 0.125065 0)
(1.30107 0.145061 -7.13717e-35)
(1.26039 0.160964 1.04472e-21)
(1.21859 0.174111 -1.89005e-21)
(1.17704 0.184091 0)
(1.13506 0.189935 3.9194e-35)
(1.09334 0.190521 -2.37196e-21)
(1.05894 0.185811 0)
(1.03861 0.17932 -2.84526e-21)
(1.0334 0.174064 -8.4174e-21)
(1.02104 0.166414 -3.99322e-21)
(0.937358 0.14524 -1.20414e-21)
(0.705685 0.102187 -7.15368e-22)
(0.393473 0.0526527 0)
(0.157483 0.0191497 5.00341e-22)
(0.0360321 0.00399687 5.92522e-22)
(-0.00143548 8.20056e-05 1.08364e-20)
(0.287178 0.0255112 6.45076e-21)
(1.09017 0.114522 1.18669e-22)
(1.2892 0.154737 7.25951e-22)
(1.34419 0.175615 0)
(1.32708 0.195652 -3.55176e-21)
(1.27937 0.209521 -4.05255e-21)
(1.23159 0.22052 -1.88856e-21)
(1.18421 0.228258 -6.75358e-21)
(1.13667 0.231724 0)
(1.08975 0.229753 1.00154e-20)
(1.05127 0.222729 9.97395e-21)
(1.02824 0.214653 2.96637e-21)
(1.02008 0.208277 1.08947e-20)
(0.992667 0.196825 1.54045e-20)
(0.861813 0.164308 0)
(0.579448 0.106492 2.17066e-20)
(0.278578 0.0495168 3.11207e-20)
(0.0893677 0.015834 3.46241e-20)
(0.00662488 0.00200711 -3.97127e-20)
(-0.00588658 -0.000473035 -7.57799e-22)
(0.289218 0.0433966 0)
(1.14209 0.171537 1.03255e-21)
(1.33006 0.216513 0)
(1.37426 0.237186 -4.42375e-21)
(1.34793 0.254108 0)
(1.29431 0.264087 -7.82221e-21)
(1.24098 0.271415 3.81258e-21)
(1.18813 0.275722 -1.34427e-20)
(1.1354 0.275889 -3.31327e-22)
(1.08373 0.270679 5.12669e-21)
(1.04166 0.260961 2.18145e-20)
(1.01632 0.251144 -2.47755e-23)
(1.00438 0.24302 -7.88583e-21)
(0.960085 0.226465 -1.43833e-20)
(0.78849 0.180658 1.70499e-20)
(0.481628 0.108022 -3.01646e-20)
(0.207089 0.0458992 -3.96931e-21)
(0.0514535 0.0124516 0)
(-0.00870139 -0.000363869 -3.35402e-24)
(-0.00805122 -0.00112963 0)
(0.282778 0.0583514 1.1419e-20)
(1.17115 0.232356 -5.85174e-21)
(1.35617 0.283029 -4.86359e-21)
(1.39464 0.304023 2.02094e-21)
(1.36206 0.316839 -3.39389e-21)
(1.30409 0.322233 1.61913e-20)
(1.24626 0.32513 7.85431e-21)
(1.18879 0.325262 0)
(1.13156 0.321461 -2.53458e-20)
(1.07576 0.312461 0)
(1.0306 0.299689 -1.1328e-20)
(1.00326 0.287927 -1.4111e-20)
(0.987178 0.277406 -8.52567e-21)
(0.926362 0.254607 -1.03877e-20)
(0.723966 0.194888 0)
(0.410784 0.109716 0)
(0.160907 0.0436356 -2.56657e-20)
(0.0272449 0.0093174 5.06361e-21)
(-0.0187334 -0.00295018 -2.98627e-21)
(-0.00949899 -0.0018463 -3.53737e-21)
(0.274754 0.0713921 -2.7804e-21)
(1.18473 0.293056 0)
(1.3712 0.350508 8.91829e-21)
(1.40637 0.372044 5.39844e-21)
(1.36954 0.380845 7.90159e-21)
(1.30844 0.381624 0)
(1.2472 0.379933 7.52728e-21)
(1.18606 0.37562 1.46132e-20)
(1.12513 0.367509 1.28389e-20)
(1.06585 0.354369 2.37861e-20)
(1.01808 0.338262 0)
(0.989001 0.324341 -3.01577e-20)
(0.968657 0.311027 -1.82254e-20)
(0.89316 0.281079 -1.07902e-20)
(0.669233 0.207982 6.61516e-20)
(0.359748 0.112132 7.83503e-21)
(0.129743 0.0421245 3.69023e-20)
(0.00991771 0.00606847 -1.74412e-19)
(-0.0266107 -0.00584858 1.03296e-19)
(-0.0107396 -0.00263172 -1.26093e-19)
(0.26672 0.0830295 9.2412e-22)
(1.18818 0.351611 4.25517e-22)
(1.37804 0.416961 -7.2468e-22)
(1.41116 0.439356 -4.74262e-21)
(1.37132 0.444375 -6.22112e-21)
(1.30794 0.440677 3.56197e-22)
(1.24408 0.434489 -8.12094e-21)
(1.18003 0.42573 1.48955e-20)
(1.11609 0.413213 -2.74251e-20)
(1.05392 0.395761 0)
(1.004 0.376148 -1.35966e-20)
(0.97344 0.359871 -3.01911e-22)
(0.949048 0.34346 -1.98489e-20)
(0.861216 0.305906 0)
(0.62354 0.220281 -1.42414e-20)
(0.322375 0.115265 -3.36789e-20)
(0.10705 0.041043 8.94912e-20)
(-0.00389937 0.00260435 -8.81114e-20)
(-0.0335732 -0.00908459 1.25246e-19)
(-0.0119219 -0.00349405 -1.31788e-19)
(0.259567 0.0936268 -1.15868e-22)
(1.18505 0.407248 5.38377e-22)
(1.37885 0.481308 -7.94646e-22)
(1.41047 0.50483 1.54856e-21)
(1.36846 0.506402 -3.02727e-21)
(1.30338 0.498456 0)
(1.23747 0.487957 -7.35459e-21)
(1.17106 0.474869 -1.54682e-20)
(1.10463 0.457972 -1.41439e-20)
(1.04004 0.436154 0)
(0.988355 0.412899 -1.38803e-20)
(0.956601 0.394077 -1.7289e-20)
(0.928635 0.374359 2.1369e-20)
(0.830939 0.32907 -1.30115e-20)
(0.585646 0.231919 -6.14459e-20)
(0.294388 0.118942 3.63191e-20)
(0.089535 0.0401114 1.07223e-20)
(-0.0159368 -0.00123631 0)
(-0.0404546 -0.012775 -1.19883e-19)
(-0.0132333 -0.00447924 -4.44296e-21)
(0.253503 0.103533 8.69962e-22)
(1.17767 0.459758 -1.19505e-21)
(1.37513 0.542987 1.10203e-22)
(1.40553 0.567804 5.88648e-21)
(1.36191 0.566287 -1.044e-20)
(1.29558 0.554402 1.39898e-20)
(1.22804 0.539838 1.57517e-20)
(1.15967 0.522605 -2.46005e-20)
(1.0911 0.501429 8.79252e-21)
(1.02442 0.47523 -5.75476e-20)
(0.971266 0.448212 -1.5704e-20)
(0.938584 0.426633 0)
(0.907594 0.403364 2.30381e-20)
(0.802414 0.350402 2.75786e-20)
(0.554186 0.242852 3.29362e-20)
(0.272981 0.122787 -3.90848e-20)
(0.075504 0.0389761 -1.15345e-20)
(-0.0268247 -0.00561149 1.35923e-20)
(-0.0475643 -0.0170501 0)
(-0.0148107 -0.00565144 -9.55441e-21)
(0.248461 0.112817 -1.43833e-20)
(1.16779 0.509181 7.65754e-21)
(1.36821 0.601945 2.85208e-22)
(1.39734 0.627938 3.02928e-21)
(1.3525 0.623655 -4.26412e-21)
(1.28523 0.608155 -8.52297e-22)
(1.21638 0.589837 -1.72222e-20)
(1.14634 0.568697 -8.89327e-21)
(1.07589 0.543389 -2.44376e-20)
(1.00734 0.512831 4.20381e-23)
(0.952895 0.481925 -4.87639e-20)
(0.919477 0.457357 4.14218e-20)
(0.885999 0.430277 -2.51461e-20)
(0.775486 0.369791 3.0139e-20)
(0.527812 0.252875 0)
(0.25633 0.126377 -2.10455e-20)
(0.0642449 0.0373703 2.73259e-23)
(-0.0364 -0.010559 -5.8632e-20)
(-0.0546365 -0.0219089 -8.66457e-21)
(-0.0166304 -0.00703864 0)
(0.244418 0.121755 0)
(1.15648 0.555757 8.94497e-21)
(1.35894 0.65823 3.06772e-21)
(1.38674 0.685078 -2.21883e-21)
(1.34092 0.67831 -5.91985e-21)
(1.27296 0.65953 0)
(1.20302 0.637781 -7.57141e-21)
(1.13154 0.613007 -2.31673e-22)
(1.05937 0.583765 5.22529e-20)
(0.989056 0.548911 -7.84056e-21)
(0.933402 0.513995 -3.51862e-20)
(0.899336 0.48619 2.14581e-20)
(0.863819 0.455024 -4.02354e-22)
(0.7498 0.387141 3.19981e-20)
(0.505228 0.261807 1.93462e-20)
(0.243074 0.129338 -4.51922e-20)
(0.0555006 0.0352145 5.33536e-20)
(-0.0441769 -0.0158723 1.57877e-20)
(-0.0610386 -0.0271223 6.53822e-20)
(-0.0185379 -0.0086001 -1.76912e-19)
(0.241298 0.130509 -5.00408e-21)
(1.14457 0.599661 6.51129e-21)
(1.34799 0.711482 -4.23934e-21)
(1.37438 0.73919 6.53189e-22)
(1.32777 0.730175 0)
(1.25927 0.708433 -5.8051e-21)
(1.18843 0.683582 2.57008e-20)
(1.11565 0.655477 1.93695e-20)
(1.04188 0.62253 0)
(0.969823 0.583492 -1.13164e-19)
(0.912921 0.544463 9.50863e-20)
(0.8782 0.513172 0)
(0.840966 0.477647 2.9193e-20)
(0.72493 0.402493 -3.44487e-22)
(0.485206 0.269597 -6.20751e-20)
(0.232132 0.131572 2.42734e-20)
(0.0489742 0.0327421 0)
(-0.0497102 -0.0211445 8.49289e-20)
(-0.0660808 -0.0322985 0)
(-0.0202977 -0.0102353 -8.33528e-20)
(0.239025 0.139094 6.04222e-21)
(1.13257 0.641138 8.65416e-21)
(1.33585 0.761779 -4.14705e-21)
(1.36081 0.7903 0)
(1.31353 0.779256 -4.20611e-21)
(1.24463 0.754857 0)
(1.17301 0.727213 -2.49711e-20)
(1.09905 0.696086 -8.82718e-21)
(1.02371 0.659712 9.15642e-21)
(0.949863 0.616641 -5.60313e-20)
(0.891577 0.573434 9.81394e-21)
(0.856113 0.538404 0)
(0.817403 0.498277 -6.23599e-20)
(0.700406 0.415956 2.90495e-22)
(0.466742 0.276197 0)
(0.222663 0.133178 5.40071e-23)
(0.0441753 0.0301547 7.7363e-20)
(-0.0529786 -0.0259535 -7.31732e-20)
(-0.069357 -0.036979 2.16692e-20)
(-0.0216994 -0.0117947 0)
(0.237263 0.147486 0)
(1.12072 0.68039 1.05375e-20)
(1.32298 0.809246 6.38001e-21)
(1.34646 0.838488 -5.32964e-22)
(1.2986 0.825603 -7.54974e-22)
(1.22939 0.79883 -1.31143e-20)
(1.15709 0.768696 9.50903e-21)
(1.08202 0.73485 -1.06058e-20)
(1.00515 0.695354 4.11407e-20)
(0.929391 0.648462 -8.98693e-20)
(0.869503 0.601047 -8.68442e-22)
(0.833131 0.562016 -2.73562e-20)
(0.79306 0.517041 1.01256e-19)
(0.67568 0.427726 -4.08834e-22)
(0.449142 0.281642 -4.81142e-20)
(0.214049 0.134229 -8.48474e-20)
(0.0408028 0.027758 0)
(-0.0542063 -0.0299948 0)
(-0.0708102 -0.0408675 2.33611e-20)
(-0.022604 -0.0131589 -1.38646e-20)
(0.236175 0.155871 8.58787e-21)
(1.10923 0.717441 -2.39836e-20)
(1.30973 0.853996 -6.83593e-21)
(1.33167 0.883843 0)
(1.28331 0.869291 -3.08871e-22)
(1.21386 0.840405 -1.13178e-20)
(1.14097 0.808068 2.25515e-20)
(1.06486 0.771806 4.14145e-20)
(0.98644 0.729513 5.35315e-20)
(0.908628 0.679076 -7.36642e-20)
(0.846844 0.627473 -8.23954e-20)
(0.809323 0.584178 7.33765e-20)
(0.767995 0.534039 0)
(0.650837 0.43782 -2.21066e-20)
(0.431849 0.28595 -5.18779e-20)
(0.205841 0.134799 -6.10365e-20)
(0.0383788 0.025694 -7.19387e-20)
(-0.0538808 -0.033117 2.13086e-20)
(-0.0706458 -0.0438521 -1.25711e-20)
(-0.0229892 -0.0142559 5.82434e-23)
(0.235346 0.164073 0)
(1.09848 0.752382 0)
(1.29633 0.896146 5.08127e-22)
(1.3167 0.926473 0)
(1.26791 0.91042 -1.98878e-22)
(1.19828 0.879662 7.11641e-21)
(1.12487 0.845383 0)
(1.04777 0.807006 4.85747e-21)
(0.967809 0.762247 8.96451e-20)
(0.887792 0.708594 -1.70052e-19)
(0.823761 0.652909 0)
(0.784741 0.605058 -4.75721e-20)
(0.742146 0.549304 -5.16806e-22)
(0.625767 0.446113 -3.04503e-22)
(0.414653 0.288994 5.59267e-20)
(0.197886 0.134852 4.99676e-23)
(0.0366075 0.0240659 -1.55104e-19)
(-0.0525677 -0.0352551 4.58678e-20)
(-0.0692819 -0.0458725 1.3614e-20)
(-0.0229103 -0.0150406 0)
(0.234769 0.172049 -3.46892e-20)
(1.08821 0.785613 -1.63356e-20)
(1.2829 0.93578 -2.06364e-20)
(1.30177 0.96649 1.86273e-20)
(1.25262 0.949075 -3.36966e-21)
(1.18286 0.916677 0)
(1.10899 0.880707 1.35017e-20)
(1.03097 0.840499 -1.09748e-20)
(0.949455 0.793616 8.01978e-22)
(0.867088 0.737124 1.2625e-20)
(0.800409 0.677553 1.07898e-19)
(0.759426 0.624877 -1.67598e-20)
(0.715452 0.56287 -6.3044e-20)
(0.600382 0.45239 -2.58853e-20)
(0.397734 0.2904 3.02076e-20)
(0.190448 0.134274 6.5914e-23)
(0.035572 0.023052 4.18275e-20)
(-0.0508356 -0.0362118 -9.88174e-20)
(-0.0675355 -0.0470169 1.1732e-19)
(-0.0225801 -0.0155914 1.73183e-20)
(0.234244 0.179789 1.32048e-20)
(1.07845 0.817192 -9.20794e-21)
(1.26963 0.973038 1.32163e-21)
(1.28703 1.00403 1.22983e-20)
(1.23759 0.985374 2.10085e-21)
(1.16775 0.951534 -1.20717e-20)
(1.0935 0.914103 3.70852e-21)
(1.0146 0.87233 -4.58508e-20)
(0.931554 0.823655 -9.97114e-20)
(0.846704 0.764738 -1.02336e-19)
(0.776971 0.701593 0)
(0.733426 0.643898 -7.42492e-20)
(0.687753 0.574816 9.13567e-20)
(0.574478 0.456227 0)
(0.381187 0.289435 -6.50196e-20)
(0.184522 0.132294 3.83404e-20)
(0.0364535 0.0226893 -4.51048e-20)
(-0.0484352 -0.0356346 -5.33102e-20)
(-0.0668136 -0.0475999 -9.46042e-20)
(-0.0226632 -0.0162294 -7.47647e-20)
(0.234054 0.187383 -1.4994e-20)
(1.06907 0.847135 9.86688e-21)
(1.25661 1.008 2.20778e-20)
(1.27261 1.03917 1.82378e-20)
(1.22293 1.01942 -3.53809e-21)
(1.15306 0.984326 -5.87602e-21)
(1.0785 0.945634 1.26627e-20)
(0.998786 0.902556 -4.7202e-20)
(0.914238 0.852407 -5.94917e-20)
(0.826818 0.791499 1.08083e-19)
(0.753619 0.725192 2.40127e-19)
(0.7068 0.662416 0)
(0.65882 0.585331 0)
(0.547479 0.457223 -2.99136e-20)
(0.364692 0.284731 0)
(0.181465 0.12718 8.24455e-20)
(0.0423353 0.0210157 9.70805e-20)
(-0.0420803 -0.0351407 0)
(-0.0664991 -0.0488381 0)
(-0.0243106 -0.0178019 8.05841e-20)
(0.233729 0.194555 1.70919e-20)
(1.0601 0.875464 1.34896e-20)
(1.24393 1.04078 1.60692e-20)
(1.2586 1.07208 -1.7808e-20)
(1.20875 1.05132 -5.20016e-21)
(1.1389 1.01513 4.99553e-21)
(1.06408 0.975364 -1.74178e-20)
(0.983639 0.931213 -2.67201e-22)
(0.897633 0.879895 -1.06208e-21)
(0.807587 0.817442 -6.26597e-22)
(0.730555 0.748482 1.24454e-19)
(0.679646 0.680726 0)
(0.628418 0.594775 9.39643e-20)
(0.518571 0.455309 6.46327e-20)
(0.3472 0.274988 1.52934e-19)
(0.180619 0.115105 4.46731e-20)
(0.0567755 0.00982711 -5.23501e-20)
(-0.0204479 -0.0449007 -3.09175e-20)
(-0.051934 -0.0536655 0)
(-0.0246827 -0.0197977 8.7102e-20)
(0.233762 0.201761 -3.87771e-20)
(1.05151 0.902284 0)
(1.2316 1.07145 1.90484e-20)
(1.24503 1.10284 -1.51819e-20)
(1.19511 1.08118 7.75271e-21)
(1.1253 1.04405 -3.42747e-21)
(1.05033 1.00335 3.32814e-20)
(0.969223 0.95834 -3.81051e-21)
(0.881823 0.906137 0)
(0.789147 0.842559 -1.20873e-19)
(0.707984 0.771553 -2.73297e-19)
(0.65212 0.699127 1.12333e-20)
(0.596423 0.60365 1.31624e-19)
(0.48684 0.450992 0)
(0.326196 0.259935 1.04132e-19)
(0.177371 0.0915393 0)
(0.0745461 -0.0239505 0)
(0.0231763 -0.0878384 -3.3461e-20)
(0.0170691 -0.0742875 0)
(0.0162792 -0.00532307 2.34736e-20)
(0.233507 0.208429 -4.33849e-20)
(1.04328 0.927922 0)
(1.21962 1.10021 3.19292e-20)
(1.23186 1.13168 0)
(1.18198 1.10927 -4.93898e-21)
(1.11223 1.07135 0)
(1.03718 1.0299 1.48606e-21)
(0.955451 0.984266 6.64011e-21)
(0.866698 0.931483 7.62618e-21)
(0.771342 0.867213 -1.33582e-19)
(0.685726 0.794856 8.25185e-21)
(0.62391 0.718361 9.12823e-20)
(0.56221 0.612886 1.29384e-19)
(0.450876 0.445091 1.72783e-20)
(0.298512 0.240889 8.24729e-20)
(0.163236 0.0576663 0)
(0.0767271 -0.0813799 1.10724e-19)
(0.0448056 -0.114455 -6.49711e-20)
(0.0214898 0.0303272 7.61773e-20)
(-0.0390571 0.462764 -9.04833e-20)
(0.233296 0.214942 3.59895e-20)
(1.03518 0.952201 5.41053e-20)
(1.20791 1.12739 0)
(1.21897 1.15906 9.90247e-22)
(1.16916 1.13617 1.50829e-20)
(1.0994 1.09773 -1.30117e-21)
(1.0243 1.0558 1.11913e-20)
(0.941898 1.00992 0)
(0.851708 0.957003 5.03436e-20)
(0.753467 0.892667 -6.95811e-21)
(0.662807 0.819811 0)
(0.593548 0.739976 0)
(0.523275 0.623481 1.17311e-19)
(0.407416 0.437781 -5.36673e-20)
(0.260366 0.219624 -8.47279e-20)
(0.132419 0.0168363 0)
(0.0479298 -0.0461242 5.65949e-20)
(0.00202959 0.448273 -6.54552e-20)
(0.0273813 1.94795 -3.66919e-20)
(0.0533132 2.83497 -4.51399e-20)
(0.232821 0.220959 -2.71393e-20)
(1.02728 0.975306 -6.9648e-20)
(1.1965 1.153 1.90527e-20)
(1.20635 1.18486 1.52056e-20)
(1.15672 1.16169 0)
(1.08693 1.12292 -3.04007e-21)
(1.01192 1.08075 1.45978e-20)
(0.92878 1.03487 -3.22085e-21)
(0.837164 0.9822 7.61288e-21)
(0.73596 0.918363 1.28526e-19)
(0.639933 0.845887 1.4139e-19)
(0.562112 0.764125 1.04934e-19)
(0.48033 0.636298 1.1964e-19)
(0.356952 0.429004 -1.28411e-19)
(0.216214 0.201234 -1.29783e-19)
(0.0885293 0.079066 0)
(0.0330466 0.92132 0)
(0.0781424 2.59909 3.15601e-20)
(0.0814489 3.22064 0)
(0.0836754 3.39208 8.21859e-20)
(0.235195 0.226665 0)
(1.01994 0.997647 0)
(1.18507 1.17689 0)
(1.19382 1.20892 4.66553e-21)
(1.14433 1.18557 1.38686e-20)
(1.07462 1.14675 -4.73949e-21)
(0.999982 1.10465 9.17405e-21)
(0.916031 1.05899 -3.14472e-21)
(0.823008 1.0069 6.33815e-20)
(0.718829 0.944138 -1.49275e-21)
(0.617234 0.872907 2.82203e-19)
(0.530025 0.791008 -1.22444e-20)
(0.433357 0.652804 1.4755e-20)
(0.300596 0.417712 1.88232e-20)
(0.159362 0.21663 -8.6963e-22)
(0.0770621 1.03862 3.42382e-22)
(0.111879 2.78279 -1.71097e-19)
(0.116279 3.30329 -6.41814e-20)
(0.109201 3.42267 3.37506e-20)
(0.100598 3.44196 -3.82139e-20)
(0.158041 0.171987 1.66275e-20)
(1.00817 1.02195 0)
(1.17339 1.19929 -3.92572e-20)
(1.18182 1.23171 -4.1788e-20)
(1.13244 1.20831 3.36288e-20)
(1.06317 1.16973 5.9637e-21)
(0.988258 1.12752 -9.19051e-21)
(0.903685 1.08233 3.42335e-20)
(0.809327 1.03118 -5.22461e-20)
(0.702323 0.97011 0)
(0.595075 0.900965 1.40398e-19)
(0.49789 0.820524 -8.70302e-20)
(0.386912 0.682974 0)
(0.236233 0.410345 1.8602e-20)
(0.112055 0.700468 4.33647e-20)
(0.126552 2.59608 -4.83942e-20)
(0.171862 3.32624 5.46668e-20)
(0.157052 3.42944 2.93527e-20)
(0.131438 3.44839 3.30357e-20)
(0.113661 3.45741 5.26757e-20)
(0.269453 0.263671 -3.20198e-20)
(0.989274 1.03108 0)
(1.15397 1.22473 4.24425e-20)
(1.16635 1.26285 4.62286e-20)
(1.11418 1.24182 -3.82073e-20)
(1.04432 1.20355 -1.07181e-20)
(0.96818 1.16286 6.66184e-21)
(0.882875 1.11887 2.73458e-21)
(0.786731 1.06984 4.99745e-20)
(0.675972 1.01275 1.13307e-19)
(0.561194 0.949586 7.92501e-21)
(0.447863 0.868821 7.87242e-20)
(0.298735 0.703863 1.42979e-20)
(0.193827 0.846691 -1.80931e-20)
(0.200254 2.48356 -4.00153e-20)
(0.251198 3.32666 3.91571e-20)
(0.233958 3.45053 -4.28044e-20)
(0.200927 3.47031 -2.44745e-20)
(0.168713 3.49538 -2.2201e-20)
(0.124335 3.49169 -3.19505e-21)
(0.259295 0.262334 0)
(0.985658 1.05352 1.24619e-20)
(1.14458 1.24814 -8.77182e-21)
(1.15466 1.28638 -5.54963e-21)
(1.10249 1.26509 -2.65527e-20)
(1.0326 1.22698 1.14007e-20)
(0.956057 1.18645 -2.73039e-21)
(0.870342 1.14328 2.4401e-21)
(0.773264 1.09572 -5.22118e-20)
(0.660385 1.04157 -2.58085e-21)
(0.54109 0.983228 -2.57269e-19)
(0.418665 0.904222 1.13498e-20)
(0.274489 0.777571 -1.36324e-20)
(0.230168 1.52411 -1.67175e-20)
(0.29474 3.14528 3.64887e-21)
(0.305828 3.45016 5.80547e-23)
(0.265594 3.49718 6.43092e-20)
(0.232607 3.52256 3.25922e-20)
(0.1875 3.54347 -1.06579e-20)
(0.138392 3.54121 -1.61401e-20)
(0.245099 0.260068 3.19671e-20)
(0.981085 1.07846 8.44593e-20)
(1.13481 1.27364 -2.49666e-20)
(1.14259 1.31153 -2.07981e-20)
(1.09032 1.28983 0)
(1.02047 1.25173 2.22017e-20)
(0.943817 1.21145 -9.28036e-22)
(0.857953 1.16906 2.119e-21)
(0.760265 1.12314 -5.88556e-21)
(0.645849 1.07233 -1.03646e-19)
(0.523081 1.01955 -1.19462e-19)
(0.392758 0.94112 -9.31956e-20)
(0.274988 0.934151 -1.03201e-19)
(0.297938 2.33057 1.05953e-19)
(0.377368 3.37863 8.90235e-20)
(0.346488 3.5036 0)
(0.299844 3.54299 0)
(0.2638 3.57788 -8.5803e-21)
(0.221637 3.62282 0)
(0.152654 3.60966 -1.32803e-20)
(0.235102 0.261733 -4.76814e-20)
(0.974566 1.10419 -7.15661e-20)
(1.12361 1.30036 0)
(1.12924 1.33751 1.20279e-21)
(1.07687 1.31524 -2.91755e-20)
(1.00724 1.27707 3.69381e-20)
(0.930799 1.23708 1.13319e-21)
(0.845021 1.19543 1.0554e-21)
(0.746989 1.15115 -3.68215e-20)
(0.631519 1.10379 5.14293e-21)
(0.50632 1.05673 0)
(0.368191 0.981228 0)
(0.296687 1.24559 -9.41446e-20)