/*--------------------------------*- C++ -*----------------------------------*\
  =========                 |
  \\      /  F ield         | OpenFOAM: The Open Source CFD Toolbox
   \\    /   O peration     | Website:  https://openfoam.org
    \\  /    A nd           | Version:  6
     \\/     M anipulation  |
\*---------------------------------------------------------------------------*/
FoamFile
{
    version     2.0;
    format      ascii;
    class       volScalarField;
    location    "66.4";
    object      p;
}
// * * * * * * * * * * * * * * * * * * * * * * * * * * * * * * * * * * * * * //

dimensions      [0 2 -2 0 0 0 0];

internalField   nonuniform List<scalar> 
8800
(
0.778729
0.729413
0.691445
0.663373
0.643206
0.628612
0.618003
0.610447
0.60554
0.603443
0.604782
0.609101
0.615876
0.625285
0.638013
0.655328
0.679201
0.712297
0.755233
0.807746
0.613227
0.619571
0.628719
0.632265
0.629651
0.623556
0.616605
0.610349
0.605528
0.602633
0.602371
0.604971
0.609591
0.615704
0.622794
0.629821
0.634694
0.634567
0.62789
0.61899
0.586751
0.592985
0.597482
0.601348
0.60429
0.60523
0.604129
0.60199
0.599986
0.599116
0.600116
0.602542
0.60541
0.607666
0.608178
0.606384
0.603013
0.598997
0.594215
0.590499
0.582463
0.585227
0.58783
0.589982
0.591712
0.59327
0.594359
0.594692
0.594553
0.594618
0.595388
0.596502
0.597223
0.597058
0.596073
0.594711
0.593037
0.590732
0.588319
0.586753
0.577423
0.578848
0.580683
0.582757
0.584461
0.585742
0.586825
0.587783
0.588563
0.589263
0.589935
0.590364
0.590365
0.589985
0.589306
0.588183
0.586521
0.584623
0.583268
0.582466
0.572455
0.573357
0.574599
0.576218
0.577902
0.579421
0.580687
0.581784
0.582816
0.583792
0.584534
0.584889
0.584873
0.584486
0.583671
0.582474
0.581106
0.579836
0.579013
0.578489
0.567574
0.568229
0.569185
0.570494
0.57193
0.573431
0.574895
0.576232
0.577457
0.578614
0.579516
0.57997
0.579958
0.5795
0.578705
0.577752
0.576753
0.575844
0.575263
0.574878
0.562778
0.563282
0.564062
0.565193
0.56648
0.56788
0.569366
0.570875
0.572344
0.573745
0.574843
0.575406
0.575451
0.575105
0.574525
0.573824
0.573078
0.57241
0.571982
0.571682
0.558013
0.558414
0.559068
0.560078
0.561294
0.562639
0.564118
0.565722
0.567405
0.569087
0.570436
0.571189
0.571425
0.571307
0.570966
0.570486
0.569945
0.569471
0.569154
0.568911
0.553199
0.553526
0.554093
0.555025
0.556194
0.557527
0.559041
0.560746
0.562626
0.564606
0.566285
0.567342
0.567863
0.56801
0.567908
0.567655
0.567311
0.566999
0.566766
0.566563
0.548249
0.548521
0.549028
0.549913
0.551067
0.552429
0.55402
0.55587
0.557982
0.56031
0.562403
0.563854
0.56472
0.565167
0.565324
0.5653
0.565155
0.564986
0.564821
0.564645
0.543074
0.543303
0.543772
0.544642
0.545819
0.547252
0.548964
0.551013
0.553429
0.556189
0.558788
0.560709
0.561978
0.562768
0.563216
0.563432
0.563487
0.563449
0.56334
0.563184
0.53758
0.537776
0.538226
0.53911
0.540353
0.5419
0.543789
0.546105
0.54891
0.552206
0.55542
0.557901
0.559642
0.560825
0.5616
0.562075
0.562345
0.562432
0.56237
0.562227
0.531666
0.531835
0.532284
0.533211
0.534559
0.536273
0.538406
0.541072
0.544367
0.548327
0.552286
0.555436
0.557732
0.559369
0.560517
0.561301
0.561787
0.561994
0.561972
0.561837
0.52521
0.525357
0.525819
0.526818
0.528317
0.530258
0.532713
0.535827
0.539734
0.544509
0.549369
0.55332
0.556275
0.558445
0.560022
0.561147
0.561876
0.562208
0.562223
0.562092
0.518072
0.518195
0.518687
0.519789
0.521489
0.523729
0.526598
0.530277
0.534945
0.540714
0.546663
0.55157
0.555304
0.558104
0.560183
0.561696
0.562702
0.563165
0.563214
0.563083
0.510061
0.510169
0.510706
0.511943
0.513905
0.516527
0.519918
0.524305
0.529913
0.536897
0.544155
0.550204
0.554857
0.558397
0.561081
0.563053
0.564365
0.564964
0.565044
0.564909
0.500948
0.501051
0.501639
0.503052
0.505356
0.508463
0.512513
0.517785
0.524554
0.533016
0.541848
0.549253
0.554993
0.559403
0.562798
0.565305
0.566964
0.567708
0.567817
0.567675
0.490418
0.490507
0.491186
0.492833
0.495572
0.499299
0.504184
0.510567
0.518778
0.529044
0.539756
0.548755
0.555772
0.561206
0.565416
0.568554
0.570605
0.571499
0.571632
0.571479
0.478091
0.478167
0.478948
0.480909
0.484208
0.488733
0.494689
0.50248
0.512487
0.524951
0.537902
0.548762
0.557255
0.563879
0.569041
0.572903
0.575378
0.576421
0.576572
0.576404
0.463407
0.463476
0.464402
0.466776
0.470813
0.476387
0.483737
0.493332
0.505587
0.520726
0.53632
0.54933
0.559507
0.567493
0.573752
0.578421
0.581346
0.582527
0.582685
0.5825
0.445584
0.445645
0.446787
0.449747
0.454794
0.461785
0.470986
0.482923
0.498004
0.51638
0.535063
0.550522
0.562599
0.572115
0.57958
0.585146
0.588522
0.589814
0.589964
0.589759
0.423457
0.423523
0.425008
0.428846
0.435343
0.444326
0.456066
0.471103
0.489753
0.512015
0.534238
0.552423
0.566588
0.577784
0.586562
0.593063
0.596845
0.598199
0.598322
0.598097
0.395233
0.395328
0.397413
0.402669
0.411413
0.423332
0.438661
0.457828
0.48095
0.507799
0.533989
0.555127
0.571519
0.584497
0.594671
0.60207
0.606157
0.607497
0.60757
0.607326
0.357848
0.358069
0.361374
0.369244
0.381775
0.398215
0.418672
0.443278
0.471869
0.503986
0.534502
0.558745
0.577443
0.592232
0.603806
0.61197
0.61618
0.617405
0.617406
0.617149
0.305428
0.306524
0.313092
0.326369
0.345518
0.368946
0.396493
0.427952
0.462952
0.500901
0.535983
0.563391
0.58438
0.600906
0.613758
0.622447
0.626513
0.62752
0.627441
0.627177
0.229486
0.236934
0.251996
0.275194
0.304223
0.33701
0.373185
0.412493
0.454577
0.498846
0.538818
0.569592
0.593042
0.611435
0.625412
0.63434
0.638104
0.638875
0.638742
0.638509
0.14875
0.165013
0.189472
0.223342
0.262772
0.305079
0.349926
0.397244
0.446775
0.497991
0.543674
0.57854
0.604937
0.625439
0.640557
0.649303
0.65245
0.652951
0.652844
0.652696
0.0795858
0.0994588
0.131765
0.174834
0.223527
0.274795
0.328092
0.383287
0.440099
0.497995
0.549051
0.587685
0.61672
0.638987
0.654667
0.662928
0.665529
0.665928
0.665883
0.665785
0.0229909
0.0450925
0.0827968
0.132462
0.188412
0.247202
0.307974
0.370418
0.43409
0.498353
0.554486
0.596634
0.628063
0.651788
0.668026
0.67618
0.678609
0.678972
0.678962
0.678892
-0.0238887
-0.00046431
0.0411513
0.0959716
0.157733
0.222729
0.289901
0.358789
0.428745
0.498959
0.559953
0.605473
0.639219
0.66449
0.681437
0.689671
0.692097
0.692458
0.692475
0.692429
-0.0636804
-0.0394658
0.00503647
0.0640539
0.13072
0.201024
0.273745
0.348334
0.424005
0.499801
0.565459
0.614295
0.650326
0.677132
0.694914
0.70356
0.70609
0.706451
0.706477
0.706446
-0.0984209
-0.0736789
-0.0269155
0.0355824
0.106444
0.181377
0.25903
0.338798
0.419785
0.500844
0.570951
0.623001
0.661293
0.689651
0.708402
0.717494
0.720203
0.720589
0.720616
0.7206
-0.129612
-0.104437
-0.0558118
0.00965024
0.0841517
0.163168
0.245283
0.329815
0.415754
0.501812
0.576216
0.631375
0.671884
0.701749
0.721405
0.731014
0.733961
0.734388
0.734417
0.734406
-0.158275
-0.132702
-0.0824839
-0.014439
0.0632678
0.145913
0.232055
0.320968
0.411575
0.502478
0.581063
0.639256
0.681873
0.713207
0.733736
0.743803
0.746982
0.74749
0.747496
0.747485
-0.185222
-0.159216
-0.107569
-0.0371992
0.0433392
0.129221
0.219015
0.312002
0.407047
0.502616
0.585333
0.646495
0.691168
0.72385
0.745171
0.755663
0.759015
0.759561
0.759542
0.75952
-0.210848
-0.184424
-0.131457
-0.0590226
0.0240414
0.112835
0.205964
0.302719
0.401952
0.502056
0.588899
0.653043
0.699715
0.733669
0.755638
0.766381
0.769858
0.770419
0.770373
0.770333
-0.235593
-0.208669
-0.154482
-0.0801764
0.0051556
0.096571
0.192735
0.292962
0.39615
0.500701
0.591687
0.658877
0.707531
0.742629
0.765094
0.775995
0.779487
0.780033
0.779954
0.779896
-0.259596
-0.232166
-0.176824
-0.100828
-0.0134671
0.0803074
0.179225
0.282661
0.389577
0.498452
0.593643
0.663999
0.714694
0.75087
0.773672
0.784554
0.787984
0.788497
0.788391
0.788314
-0.282986
-0.255017
-0.198604
-0.121073
-0.0318973
0.0639914
0.165401
0.271772
0.382172
0.49523
0.594704
0.668431
0.721302
0.758527
0.781497
0.792192
0.79548
0.795924
0.795797
0.795704
-0.305863
-0.277343
-0.219875
-0.140951
-0.0501679
0.0476132
0.151262
0.260294
0.373914
0.490989
0.594809
0.67217
0.727475
0.765788
0.788769
0.799075
0.802093
0.802437
0.802278
0.802173
-0.328286
-0.299137
-0.240648
-0.160466
-0.0682574
0.0311892
0.136833
0.248253
0.36482
0.485689
0.593886
0.675183
0.733309
0.772882
0.795712
0.805359
0.807926
0.808112
0.807927
0.807817
-0.350116
-0.32037
-0.260909
-0.179608
-0.0861408
0.0147743
0.122165
0.235713
0.354931
0.479333
0.591855
0.677391
0.738834
0.780047
0.802682
0.811308
0.813115
0.813047
0.812844
0.812742
-0.371329
-0.341012
-0.280649
-0.198341
-0.10377
-0.0015783
0.107342
0.222738
0.344311
0.471929
0.588653
0.678674
0.743988
0.78747
0.810185
0.81749
0.817993
0.817365
0.817132
0.817092
-0.391982
-0.361035
-0.299846
-0.216639
-0.121089
-0.0177908
0.092446
0.209422
0.333041
0.463522
0.584207
0.678897
0.7486
0.795138
0.818719
0.824893
0.823456
0.821466
0.820936
0.821187
-0.411923
-0.380413
-0.318445
-0.234439
-0.138044
-0.0337825
0.0775684
0.195869
0.321229
0.454194
0.578475
0.677888
0.752408
0.802731
0.828394
0.834678
0.831556
0.827056
0.824409
0.82334
-0.431247
-0.399152
-0.336455
-0.251773
-0.154669
-0.0495928
0.0626584
0.182023
0.308803
0.443882
0.571301
0.67539
0.755168
0.809758
0.838669
0.847215
0.844512
0.837323
0.827842
0.828313
-0.44987
-0.41732
-0.354012
-0.268838
-0.171258
-0.0655491
0.0473052
0.167404
0.295226
0.431967
0.562038
0.670654
0.756455
0.815647
0.848065
0.860525
0.858971
0.847662
0.829093
0.827351
-0.467658
-0.434879
-0.370949
-0.285447
-0.187547
-0.0813517
0.0317125
0.15233
0.280784
0.418676
0.550712
0.662971
0.755397
0.819191
0.852505
0.865454
0.865734
0.840147
0.782448
0.757559
-0.484491
-0.452705
-0.386868
-0.301159
-0.202761
-0.0965211
0.0161606
0.137074
0.265755
0.404179
0.537381
0.651724
0.75089
0.819407
0.847114
0.854888
0.840921
0.789108
0.727076
0.689308
-0.527342
-0.470075
-0.401497
-0.316868
-0.217647
-0.112016
0.000790512
0.121516
0.249935
0.38812
0.521633
0.636254
0.738999
0.812946
0.829455
0.81557
0.767168
0.701512
0.632387
0.594411
-0.502445
-0.48427
-0.423787
-0.338462
-0.240673
-0.135293
-0.0231951
0.0968497
0.224325
0.361086
0.493225
0.605928
0.700395
0.781619
0.764354
0.654727
0.563407
0.499986
0.435635
0.462231
-0.533261
-0.501797
-0.440479
-0.355643
-0.25822
-0.153003
-0.0407506
0.0786137
0.205042
0.340011
0.469561
0.578757
0.66242
0.707945
0.655509
0.515114
0.405405
0.331462
0.249052
0.294087
-0.557167
-0.523275
-0.46021
-0.375311
-0.277949
-0.172759
-0.0606458
0.0579002
0.182937
0.315477
0.441186
0.544374
0.616373
0.623855
0.516506
0.360606
0.230977
0.138099
0.0423847
0.0734305
-0.580443
-0.545479
-0.481024
-0.395456
-0.298023
-0.192965
-0.0813873
0.0361667
0.159569
0.289255
0.410067
0.505025
0.559925
0.534567
0.375679
0.198099
0.0378106
-0.0963447
-0.220871
-0.208385
-0.603449
-0.568078
-0.502697
-0.416525
-0.318959
-0.214129
-0.103232
0.0131709
0.134635
0.261029
0.376072
0.462792
0.496833
0.426037
0.237151
0.039618
-0.147695
-0.301805
-0.507372
-0.586419
-0.626871
-0.591534
-0.525597
-0.438992
-0.341266
-0.236626
-0.126351
-0.0111447
0.108239
0.231047
0.339835
0.417163
0.425508
0.303199
0.110823
-0.0986681
-0.290965
-0.452919
-0.57693
-0.695177
-0.651784
-0.616331
-0.550081
-0.463237
-0.365486
-0.261139
-0.15159
-0.0377716
0.0791657
0.197798
0.299895
0.364402
0.345307
0.186603
-0.00737906
-0.21087
-0.386431
-0.483876
-0.510178
-0.523682
-0.678313
-0.642761
-0.576279
-0.489355
-0.391764
-0.287891
-0.179326
-0.0672255
0.0467932
0.160478
0.255429
0.30234
0.263892
0.0745479
-0.117575
-0.300895
-0.433421
-0.471386
-0.480382
-0.48074
-0.706734
-0.670945
-0.604229
-0.51733
-0.42005
-0.31689
-0.209585
-0.0995664
0.0110457
0.119047
0.205805
0.236389
0.166457
-0.0278435
-0.213895
-0.373391
-0.447796
-0.461851
-0.462937
-0.462824
-0.737056
-0.700913
-0.633943
-0.547157
-0.450358
-0.348128
-0.242376
-0.134816
-0.0280747
0.0736033
0.150886
0.166906
0.0584575
-0.120654
-0.296651
-0.423616
-0.452571
-0.453014
-0.453423
-0.452971
-0.769017
-0.732489
-0.665318
-0.578752
-0.482599
-0.381551
-0.277675
-0.172955
-0.0705241
0.0242742
0.0918641
0.0888968
-0.037494
-0.206192
-0.361628
-0.434402
-0.44964
-0.447841
-0.447609
-0.447183
-0.802047
-0.76532
-0.69808
-0.611873
-0.516576
-0.416991
-0.315328
-0.21386
-0.116084
-0.0285465
0.0291597
0.00995212
-0.126331
-0.281436
-0.403752
-0.441675
-0.442293
-0.443646
-0.44384
-0.443606
-0.835693
-0.798861
-0.731728
-0.646087
-0.551921
-0.454112
-0.355039
-0.257245
-0.164469
-0.0839893
-0.0386812
-0.0648777
-0.207629
-0.341527
-0.428256
-0.437438
-0.440385
-0.441537
-0.441586
-0.441533
-0.86899
-0.832205
-0.765501
-0.680732
-0.588056
-0.49241
-0.396323
-0.302608
-0.215265
-0.141216
-0.106842
-0.140287
-0.278289
-0.389826
-0.437698
-0.447669
-0.442722
-0.440536
-0.439812
-0.439708
-0.900016
-0.864034
-0.798337
-0.714886
-0.624169
-0.531149
-0.438481
-0.349193
-0.267678
-0.199809
-0.170367
-0.218995
-0.3371
-0.434293
-0.456967
-0.452673
-0.445071
-0.439354
-0.437618
-0.437112
-0.927716
-0.892795
-0.828791
-0.747304
-0.659156
-0.569343
-0.480598
-0.396061
-0.320414
-0.259284
-0.232587
-0.287743
-0.381405
-0.459572
-0.485547
-0.46743
-0.451628
-0.444286
-0.441612
-0.440371
-0.949298
-0.916333
-0.855052
-0.776411
-0.691644
-0.605759
-0.521504
-0.44213
-0.372098
-0.317753
-0.294347
-0.341795
-0.408568
-0.454424
-0.462283
-0.471208
-0.475593
-0.472796
-0.46873
-0.46672
-0.962594
-0.932431
-0.874977
-0.800395
-0.720039
-0.638948
-0.559812
-0.486063
-0.421637
-0.372328
-0.350275
-0.388544
-0.427197
-0.447142
-0.454751
-0.476952
-0.489308
-0.489839
-0.487717
-0.487549
-0.96484
-0.938621
-0.886376
-0.817335
-0.742642
-0.66735
-0.594069
-0.526123
-0.467954
-0.421996
-0.397094
-0.432638
-0.46204
-0.465232
-0.47257
-0.478648
-0.478875
-0.478726
-0.47948
-0.479973
-0.953752
-0.932389
-0.887074
-0.825404
-0.757916
-0.689497
-0.622859
-0.560653
-0.508952
-0.467842
-0.432552
-0.468863
-0.515314
-0.556838
-0.534038
-0.500153
-0.482843
-0.477239
-0.475059
-0.474011
-0.926575
-0.910842
-0.875065
-0.8233
-0.764732
-0.704425
-0.644875
-0.588815
-0.541682
-0.508223
-0.466532
-0.481204
-0.501613
-0.58487
-0.554848
-0.496202
-0.466117
-0.458515
-0.456369
-0.455343
-0.88674
-0.876657
-0.851334
-0.811248
-0.76301
-0.711856
-0.659632
-0.609813
-0.565731
-0.537666
-0.506497
-0.452613
-0.363807
-0.343823
-0.360896
-0.387369
-0.414862
-0.425265
-0.428523
-0.428774
-0.841378
-0.83564
-0.820927
-0.792288
-0.754987
-0.712445
-0.667785
-0.622717
-0.582276
-0.551055
-0.520026
-0.446445
-0.3051
-0.147395
-0.15597
-0.295964
-0.415775
-0.464321
-0.477175
-0.48061
-0.800824
-0.797353
-0.790354
-0.77203
-0.743714
-0.708614
-0.669806
-0.629042
-0.589068
-0.55532
-0.530606
-0.513425
-0.535217
-0.574002
-0.716013
-0.904076
-0.92768
-0.839162
-0.784098
-0.786246
-0.771618
-0.769533
-0.765939
-0.755003
-0.733239
-0.703441
-0.668354
-0.629623
-0.58858
-0.554689
-0.526821
-0.61647
-0.949148
-1.47422
-1.81045
-1.81081
-1.65347
-1.46272
-1.3113
-1.23797
-0.75031
-0.749591
-0.748404
-0.742871
-0.726449
-0.699762
-0.665801
-0.625596
-0.582751
-0.537239
-0.509323
-0.519776
-0.658448
-0.776119
-0.912591
-0.895861
-0.755239
-0.619648
-0.525726
-0.479272
-0.737689
-0.737475
-0.736897
-0.73417
-0.722539
-0.697714
-0.662401
-0.620897
-0.570215
-0.51124
-0.463416
-0.388156
-0.281205
-0.0895514
0.118088
0.341741
0.505105
0.573728
0.609044
0.621559
-0.728678
-0.728488
-0.727943
-0.726841
-0.719619
-0.697144
-0.660787
-0.613673
-0.556142
-0.489845
-0.405304
-0.306958
-0.0908341
0.293396
0.68064
1.02882
1.24434
1.32047
1.35177
1.35804
-0.723514
-0.723257
-0.722603
-0.721982
-0.718186
-0.699826
-0.661045
-0.607042
-0.546055
-0.462876
-0.364079
-0.2505
0.000513549
0.401064
0.813372
1.18918
1.43311
1.53759
1.56655
1.56917
-0.721351
-0.721602
-0.722246
-0.722907
-0.722249
-0.706194
-0.6631
-0.60507
-0.536434
-0.446566
-0.344764
-0.223606
-0.00551622
0.351132
0.703688
1.02374
1.23337
1.31203
1.32735
1.32602
-0.716646
-0.718233
-0.722156
-0.728184
-0.73106
-0.711385
-0.665279
-0.608737
-0.535746
-0.443757
-0.339097
-0.236733
-0.0536804
0.218533
0.459101
0.654523
0.773564
0.832072
0.864795
0.877895
-0.715716
-0.717312
-0.71818
-0.715174
-0.712058
-0.696416
-0.664678
-0.620458
-0.548092
-0.447965
-0.345907
-0.260135
-0.107595
0.0872675
0.275726
0.419201
0.504204
0.563391
0.60568
0.622384
-0.743379
-0.743052
-0.731922
-0.697724
-0.659754
-0.661437
-0.671072
-0.642644
-0.563825
-0.45683
-0.360322
-0.285749
-0.168348
0.0248226
0.189814
0.320702
0.421901
0.491713
0.527413
0.538303
-0.795539
-0.792559
-0.782577
-0.754737
-0.727581
-0.723879
-0.737699
-0.684143
-0.580969
-0.468589
-0.377546
-0.302235
-0.21678
-0.056002
0.0992066
0.236017
0.339049
0.406108
0.433969
0.440629
-0.898005
-0.904245
-0.935695
-0.974564
-0.9824
-0.954032
-0.887687
-0.753041
-0.601309
-0.484733
-0.38418
-0.314101
-0.244931
-0.119113
0.0253559
0.137426
0.226348
0.281081
0.302614
0.30625
-1.03955
-1.06074
-1.11099
-1.15604
-1.16727
-1.12922
-1.00898
-0.802429
-0.623671
-0.493358
-0.386372
-0.318196
-0.265093
-0.166858
-0.0431588
0.0444747
0.116115
0.156141
0.171413
0.172395
-1.08386
-1.10554
-1.14108
-1.17223
-1.17994
-1.14034
-0.995666
-0.776909
-0.615685
-0.481125
-0.381691
-0.311867
-0.275664
-0.205059
-0.109409
-0.038863
0.0170563
0.0467662
0.0581727
0.0584856
-0.954136
-0.972781
-1.00578
-1.03878
-1.05062
-1.0053
-0.853213
-0.688813
-0.552645
-0.439636
-0.362524
-0.306338
-0.275335
-0.226452
-0.160788
-0.107184
-0.0661456
-0.044645
-0.0375698
-0.0386556
-0.654425
-0.672754
-0.707223
-0.746943
-0.769489
-0.736028
-0.644923
-0.544776
-0.448974
-0.379883
-0.332179
-0.288699
-0.268559
-0.239232
-0.200229
-0.167018
-0.141794
-0.129941
-0.126676
-0.128501
-0.297261
-0.30893
-0.333649
-0.368892
-0.397407
-0.40615
-0.396416
-0.373167
-0.341884
-0.316873
-0.28917
-0.27109
-0.265283
-0.25231
-0.2353
-0.223266
-0.218025
-0.219016
-0.219523
-0.220375
-0.0321805
-0.0380361
-0.0541445
-0.0841642
-0.127815
-0.171788
-0.207724
-0.235312
-0.250838
-0.251795
-0.252759
-0.249291
-0.251818
-0.25081
-0.256616
-0.266529
-0.277097
-0.285351
-0.287323
-0.287213
0.0929173
0.0895092
0.0778152
0.0518117
0.00937204
-0.0459002
-0.101011
-0.146344
-0.179407
-0.204301
-0.221371
-0.226542
-0.236532
-0.247971
-0.263464
-0.280932
-0.299978
-0.310254
-0.31295
-0.312944
0.122857
0.120569
0.112007
0.0918302
0.0570865
0.0113293
-0.0393678
-0.0892577
-0.132642
-0.167347
-0.197364
-0.217969
-0.232194
-0.24496
-0.263137
-0.282013
-0.299422
-0.306236
-0.306609
-0.306291
0.111294
0.109777
0.10383
0.0894986
0.0640958
0.0285941
-0.0133242
-0.0566702
-0.0987931
-0.138499
-0.182416
-0.223298
-0.246282
-0.241308
-0.247336
-0.259733
-0.270463
-0.273733
-0.273058
-0.272612
0.0879468
0.0870143
0.0830843
0.0733961
0.0558327
0.0302884
-0.00199568
-0.0377655
-0.075486
-0.115392
-0.162043
-0.215007
-0.242426
-0.225951
-0.215551
-0.217618
-0.218324
-0.217717
-0.217387
-0.217379
0.0644853
0.0640318
0.0615807
0.0553262
0.0435621
0.0257442
0.00222143
-0.0250107
-0.0556277
-0.0884794
-0.127258
-0.168894
-0.184166
-0.16905
-0.160585
-0.160325
-0.158461
-0.157889
-0.158144
-0.15879
0.045066
0.0447796
0.043309
0.0394
0.0317855
0.0198582
0.00352035
-0.0158186
-0.0374672
-0.0596187
-0.0818882
-0.0976808
-0.0994427
-0.0980242
-0.101708
-0.107833
-0.11181
-0.113828
-0.11523
-0.115777
0.029771
0.0296551
0.0288568
0.0265922
0.0219323
0.0143562
0.00369985
-0.00915492
-0.0229573
-0.0345167
-0.0375855
-0.0285072
-0.0153786
-0.0327456
-0.0521148
-0.0660334
-0.0748323
-0.0792566
-0.0811689
-0.0814857
0.0179412
0.0179297
0.0175832
0.0164333
0.0138846
0.00953711
0.00328176
-0.00418779
-0.0115832
-0.0147759
-0.00682809
0.012918
0.0290051
0.00805095
-0.0167841
-0.0327429
-0.0424868
-0.0473843
-0.0491722
-0.049282
0.00884497
0.00891324
0.0088125
0.00840259
0.00723519
0.00516532
0.0021348
-0.00141236
-0.00474101
-0.00405443
0.00736153
0.0271318
0.0412898
0.0234274
0.00231951
-0.00982065
-0.0151604
-0.0178907
-0.0189797
-0.0193955
0.00129634
0.00135014
0.00131652
0.00141064
0.00160188
0.00145761
0.000944477
0.00015973
-0.000449081
-0.000714732
0.0009146
0.00785691
0.0133576
0.0136893
0.00517353
0.00461433
0.00286026
0.000522677
-0.00114041
-0.00149485
-0.0763569
0.112931
0.287043
0.434641
0.553162
0.647013
0.725203
0.788736
0.804979
0.801329
0.214905
0.336892
0.451323
0.550681
0.634269
0.703292
0.757689
0.794464
0.814142
0.830706
0.413109
0.494696
0.575115
0.645531
0.705534
0.755315
0.794538
0.824423
0.846905
0.866123
0.56045
0.617815
0.675272
0.727097
0.771947
0.81013
0.84218
0.869082
0.889339
0.908218
0.676412
0.7197
0.762544
0.80273
0.8387
0.870492
0.898286
0.921831
0.939768
0.957799
0.773043
0.808689
0.844173
0.877979
0.909101
0.937275
0.962142
0.982994
0.998768
1.01624
0.861561
0.893523
0.925846
0.957098
0.986125
1.0125
1.03562
1.05456
1.06847
1.08549
0.948563
0.981143
1.01357
1.04479
1.07358
1.09938
1.12152
1.13905
1.15143
1.16796
1.04297
1.07939
1.11417
1.14664
1.17582
1.20118
1.2223
1.23859
1.25021
1.26635
1.15606
1.19668
1.23371
1.26666
1.29515
1.31914
1.33876
1.35404
1.36594
1.38201
1.29751
1.33855
1.3738
1.40338
1.42858
1.4502
1.4687
1.48419
1.4973
1.51325
1.46902
1.50135
1.52826
1.55058
1.57067
1.5894
1.60714
1.62391
1.63882
1.65455
1.65532
1.67258
1.6897
1.70639
1.72248
1.73722
1.75112
1.76561
1.78085
1.79814
1.83871
1.84868
1.86187
1.87286
1.88227
1.89193
1.90254
1.91271
1.92201
1.94767
2.0566
2.0509
2.03795
2.02369
2.0174
2.02311
2.04126
2.06978
2.10354
2.13987
2.35942
2.22346
2.14396
2.10144
2.08412
2.08809
2.11553
2.17339
2.28106
2.45946
0.682424
0.676121
0.668391
0.657275
0.643703
0.631052
0.620653
0.612639
0.606919
0.603587
0.603238
0.606077
0.611314
0.618676
0.628228
0.64006
0.653624
0.666554
0.675545
0.683086
0.591493
0.597412
0.605484
0.611615
0.614683
0.61417
0.611081
0.607084
0.603493
0.601209
0.601079
0.603339
0.607099
0.611551
0.615656
0.617905
0.616833
0.612199
0.605145
0.597313
0.584742
0.587115
0.590382
0.593154
0.595603
0.597791
0.598968
0.59882
0.597881
0.597076
0.597297
0.59872
0.60051
0.601745
0.601675
0.600213
0.598058
0.595698
0.592718
0.5897
0.579953
0.581042
0.582958
0.585295
0.587166
0.588563
0.58978
0.590771
0.59137
0.591752
0.592315
0.593069
0.593546
0.593437
0.592815
0.591898
0.590571
0.588604
0.586499
0.585022
0.57493
0.575563
0.576692
0.578449
0.580292
0.581884
0.583134
0.584196
0.585178
0.586081
0.586879
0.587414
0.587565
0.587369
0.58684
0.585873
0.584451
0.582844
0.581509
0.580707
0.570005
0.570444
0.571233
0.572536
0.574057
0.57562
0.577096
0.578391
0.579546
0.580639
0.581606
0.582227
0.582423
0.582201
0.581547
0.580556
0.579409
0.57827
0.577369
0.576836
0.56517
0.565497
0.56611
0.567179
0.568474
0.569873
0.571351
0.572824
0.574217
0.575525
0.57669
0.577459
0.577706
0.577478
0.576894
0.576121
0.575283
0.574435
0.573776
0.573385
0.560399
0.560653
0.561147
0.562058
0.563231
0.564539
0.56596
0.567487
0.569067
0.570637
0.572054
0.573001
0.573369
0.573291
0.572926
0.572393
0.57177
0.57115
0.570672
0.570373
0.555621
0.555823
0.556234
0.557036
0.558131
0.559392
0.560801
0.562373
0.564096
0.565915
0.567632
0.568848
0.569458
0.56963
0.569509
0.569206
0.568793
0.568366
0.568028
0.567793
0.550751
0.550913
0.551266
0.551995
0.553045
0.554289
0.555729
0.557388
0.559273
0.561354
0.563425
0.565012
0.565957
0.566428
0.566569
0.5665
0.566303
0.566053
0.565832
0.565645
0.545699
0.545831
0.546143
0.546828
0.547861
0.549133
0.550643
0.552434
0.554533
0.556938
0.559443
0.561488
0.562835
0.563652
0.56409
0.564275
0.564293
0.564215
0.564093
0.563942
0.540377
0.540484
0.540768
0.541434
0.542488
0.54383
0.545456
0.547432
0.549817
0.552632
0.55567
0.558266
0.560087
0.561305
0.562078
0.56254
0.562786
0.56288
0.562844
0.56272
0.534687
0.534772
0.535041
0.535714
0.536823
0.538276
0.540073
0.542303
0.545056
0.548385
0.552078
0.555336
0.557718
0.5594
0.560554
0.561339
0.561838
0.562095
0.562137
0.562034
0.528518
0.528584
0.528846
0.529548
0.530749
0.532363
0.534394
0.536961
0.540182
0.544149
0.548639
0.552694
0.555745
0.557972
0.559566
0.560713
0.561491
0.561926
0.562042
0.561956
0.521739
0.521786
0.522051
0.522804
0.524137
0.525966
0.528307
0.531304
0.535114
0.53987
0.545331
0.550344
0.554188
0.55706
0.559169
0.560726
0.561824
0.562452
0.562641
0.562568
0.514197
0.514222
0.514491
0.51532
0.516829
0.518939
0.521677
0.525217
0.529761
0.535485
0.542123
0.548287
0.553073
0.556705
0.559426
0.56147
0.562933
0.563768
0.56403
0.563966
0.505662
0.505679
0.50596
0.50689
0.508629
0.511099
0.514341
0.518565
0.524021
0.530935
0.538997
0.546536
0.552439
0.556964
0.560407
0.563038
0.564915
0.565977
0.566312
0.566254
0.495859
0.495851
0.496181
0.497256
0.499294
0.502222
0.506102
0.511185
0.517777
0.526151
0.535936
0.545108
0.552331
0.557912
0.562202
0.565511
0.567868
0.569181
0.56959
0.569533
0.484476
0.484447
0.484827
0.486093
0.488503
0.492021
0.496716
0.50289
0.510907
0.521081
0.532943
0.544046
0.552807
0.559618
0.564901
0.568992
0.5719
0.573479
0.573956
0.573897
0.471019
0.470968
0.471426
0.472944
0.47584
0.480127
0.485879
0.493451
0.503265
0.515661
0.530018
0.543384
0.553919
0.562145
0.568585
0.573577
0.577091
0.578944
0.57948
0.579413
0.454831
0.454757
0.455341
0.457211
0.460756
0.466067
0.473219
0.482614
0.494716
0.509853
0.527189
0.543182
0.555741
0.565569
0.573313
0.579317
0.583491
0.585609
0.586188
0.586105
0.434953
0.434862
0.435648
0.43803
0.442491
0.449225
0.458283
0.470104
0.48515
0.503672
0.524523
0.543511
0.558334
0.569946
0.579119
0.586241
0.591094
0.593441
0.594033
0.593927
0.409945
0.409854
0.410978
0.414151
0.419991
0.428805
0.440573
0.455703
0.474564
0.497229
0.522162
0.544486
0.561772
0.575317
0.586033
0.59433
0.599816
0.602317
0.602882
0.602745
0.37746
0.377416
0.379147
0.383688
0.391834
0.403892
0.419648
0.439336
0.463093
0.490739
0.5203
0.546235
0.566127
0.581691
0.594013
0.603475
0.609465
0.611994
0.612482
0.61231
0.333308
0.333466
0.336518
0.343899
0.356355
0.373748
0.395418
0.421261
0.451099
0.484529
0.519175
0.548919
0.571481
0.589066
0.602971
0.61348
0.619722
0.622097
0.622458
0.622253
0.26966
0.270997
0.278402
0.292318
0.312669
0.338535
0.368541
0.402197
0.439195
0.479052
0.519079
0.552684
0.577868
0.597389
0.612665
0.623924
0.630088
0.632086
0.632283
0.632068
0.193704
0.196332
0.210713
0.234664
0.265807
0.301731
0.34078
0.382709
0.42733
0.474224
0.520428
0.558721
0.587218
0.609165
0.626026
0.637805
0.643693
0.645414
0.645563
0.645441
0.115986
0.122945
0.14453
0.178528
0.220159
0.2659
0.313995
0.364264
0.41659
0.470592
0.52305
0.566092
0.597876
0.622212
0.640678
0.652622
0.657802
0.659027
0.659115
0.659063
0.0526217
0.0614511
0.0876741
0.128787
0.178687
0.232767
0.289025
0.347121
0.406804
0.46762
0.526027
0.573501
0.608309
0.634681
0.654136
0.666069
0.670867
0.671978
0.67211
0.672114
0.00073926
0.0102856
0.0400399
0.0864495
0.142573
0.203331
0.26647
0.331473
0.397898
0.465111
0.529159
0.580835
0.618467
0.646762
0.667282
0.679505
0.684156
0.685196
0.685382
0.685426
-0.0426595
-0.0328062
-0.00064202
0.049906
0.111137
0.177451
0.246427
0.31745
0.389911
0.463004
0.532395
0.588156
0.628552
0.658786
0.680475
0.693052
0.697767
0.698973
0.699188
0.699263
-0.0800466
-0.0700604
-0.0360912
0.0177726
0.0832812
0.15437
0.228435
0.304779
0.382717
0.461294
0.535763
0.59546
0.63858
0.670702
0.693596
0.706847
0.711903
0.713173
0.713383
0.713462
-0.113102
-0.103069
-0.0676806
-0.0110712
0.0580764
0.133305
0.211892
0.293075
0.376086
0.459807
0.539098
0.602584
0.648377
0.682382
0.706548
0.720481
0.725898
0.727266
0.727471
0.727535
-0.143087
-0.13302
-0.0964781
-0.037509
0.034795
0.113668
0.196302
0.281901
0.3696
0.458202
0.54216
0.609339
0.657689
0.693518
0.71886
0.733518
0.73931
0.740781
0.740973
0.74102
-0.170958
-0.160839
-0.123274
-0.0622068
0.0128919
0.0949857
0.181242
0.270872
0.362973
0.45625
0.544774
0.615549
0.666405
0.703951
0.73042
0.745705
0.75189
0.753439
0.753598
0.753616
-0.197281
-0.187099
-0.148585
-0.0856304
-0.00806505
0.0768979
0.166429
0.259768
0.355996
0.453743
0.546732
0.621104
0.674411
0.713617
0.741119
0.756901
0.763322
0.764935
0.765072
0.765057
-0.22252
-0.21221
-0.172806
-0.108138
-0.0283706
0.0591688
0.15167
0.248407
0.348476
0.450516
0.54793
0.625944
0.681706
0.72248
0.750853
0.767009
0.773549
0.775183
0.775297
0.775251
-0.246973
-0.236459
-0.196206
-0.129963
-0.0482155
0.0416298
0.136816
0.236663
0.340315
0.446479
0.548295
0.630018
0.688306
0.730611
0.759717
0.776097
0.782625
0.784212
0.784305
0.784233
-0.270746
-0.26
-0.218931
-0.15125
-0.0677258
0.0241894
0.121794
0.22448
0.33146
0.441543
0.547731
0.633318
0.694265
0.738129
0.767851
0.784256
0.790661
0.792169
0.792217
0.792123
-0.293973
-0.282957
-0.241103
-0.172066
-0.0869569
0.00680343
0.106583
0.211841
0.321877
0.435664
0.546175
0.635804
0.699651
0.745176
0.775412
0.791662
0.797804
0.799166
0.799164
0.799051
-0.316641
-0.305385
-0.262741
-0.192443
-0.10592
-0.0105228
0.091197
0.19876
0.311576
0.42882
0.543569
0.63742
0.704507
0.751926
0.782629
0.798486
0.804179
0.805318
0.805245
0.805112
-0.338837
-0.32727
-0.283825
-0.212373
-0.124604
-0.0277652
0.0756668
0.185284
0.300599
0.421019
0.539857
0.638093
0.708828
0.758539
0.789777
0.804979
0.809906
0.810678
0.810527
0.81039
-0.360359
-0.348582
-0.304347
-0.23185
-0.142968
-0.0448596
0.060054
0.171477
0.289006
0.412301
0.535004
0.637727
0.712539
0.765108
0.797213
0.811589
0.815308
0.815407
0.815113
0.814998
-0.381362
-0.36927
-0.324282
-0.250852
-0.160988
-0.0617716
0.0444456
0.157413
0.276875
0.402733
0.528992
0.636216
0.7155
0.771591
0.805251
0.819019
0.821079
0.819846
0.819126
0.819095
-0.401666
-0.3893
-0.343616
-0.269333
-0.17859
-0.0784201
0.028921
0.143207
0.264305
0.392375
0.521834
0.633446
0.717523
0.777767
0.813935
0.828047
0.828623
0.825218
0.823073
0.82285
-0.421375
-0.408698
-0.362294
-0.287239
-0.195738
-0.0947391
0.0135651
0.128938
0.251402
0.381354
0.513583
0.629288
0.718388
0.783244
0.822788
0.838851
0.839587
0.834373
0.828452
0.819947
-0.440375
-0.427458
-0.380405
-0.304735
-0.212654
-0.111007
-0.00195344
0.114208
0.237725
0.369183
0.503745
0.623197
0.717736
0.787811
0.831251
0.85089
0.854293
0.848368
0.837285
0.83615
-0.458626
-0.445656
-0.397946
-0.321765
-0.229324
-0.127187
-0.0176059
0.0989969
0.22324
0.355731
0.492131
0.614662
0.714789
0.790675
0.837417
0.860123
0.865718
0.862046
0.827948