/*--------------------------------*- C++ -*----------------------------------*\
  =========                 |
  \\      /  F ield         | OpenFOAM: The Open Source CFD Toolbox
   \\    /   O peration     | Website:  https://openfoam.org
    \\  /    A nd           | Version:  6
     \\/     M anipulation  |
\*---------------------------------------------------------------------------*/
FoamFile
{
    version     2.0;
    format      ascii;
    class       surfaceScalarField;
    location    "103.7";
    object      phi;
}
// * * * * * * * * * * * * * * * * * * * * * * * * * * * * * * * * * * * * * //

dimensions      [0 3 -1 0 0 0 0];

internalField   nonuniform List<scalar> 
17370
(
-0.0899999
0.0898488
0.289162
-0.0714621
0.0537521
0.364486
-0.0381189
0.0276897
0.426597
-0.0196379
0.0146051
0.504285
-0.0107635
0.00827348
0.601892
-0.00627419
0.00489785
0.720434
-0.00373379
0.00289287
0.863747
-0.00215086
0.00159127
1.03601
-0.00107421
0.000661367
1.24292
-0.000253681
-0.000144999
1.49159
0.000525131
-0.00093517
1.4916
0.00133148
-0.00181482
1.24317
0.00233637
-0.00303956
1.03634
0.00385426
-0.00500006
0.864052
0.00636706
-0.0083606
0.721051
0.0108463
-0.0146827
0.603051
0.0197097
-0.0277539
0.507484
0.0381753
-0.0537997
0.431793
0.0715014
-0.0898754
0.36515
0.0900164
0.198994
-0.128139
0.0882306
0.0399079
-0.364601
0.353383
-0.0746675
0.0858852
-0.446477
0.454323
-0.0843804
0.0765346
-0.521192
0.529905
-0.0684363
0.0597236
-0.612791
0.621572
-0.0515336
0.0427529
-0.726897
0.734168
-0.0352909
0.0280198
-0.867477
0.872596
-0.0224168
0.0172982
-1.03848
1.04193
-0.0134852
0.010032
-1.2446
1.24704
-0.00741829
0.00498228
-1.49262
1.49461
-0.00303043
0.00104434
-1.49251
1.49423
0.000627335
-0.00235046
-1.24397
1.24586
0.00426014
-0.00614465
-1.03751
1.04003
0.00849103
-0.0110067
-0.866097
0.869825
0.0143525
-0.0180805
-0.724388
0.729931
0.0231213
-0.0286638
-0.608696
0.616108
0.0358767
-0.0432889
-0.514895
0.523037
0.0520176
-0.0601604
-0.439855
0.447912
0.0688216
-0.0768788
-0.375293
0.376736
0.0846726
-0.0861154
-0.257328
0.222472
0.0748233
-0.0399676
-0.0685264
0.0587032
0.00982321
-0.0517946
0.0583722
-0.374135
0.367557
-0.0574518
0.0536961
-0.4536
0.457356
-0.0486032
0.0446478
-0.527954
0.53191
-0.0408045
0.0371622
-0.621572
0.625214
-0.0330561
0.0289756
-0.735358
0.739438
-0.0243989
0.0202332
-0.874349
0.878515
-0.0158801
0.0121797
-1.0435
1.0472
-0.00843557
0.00525748
-1.24857
1.25175
-0.00192484
-0.00115251
-1.49666
1.49974
0.00420338
-0.00747172
-1.4972
1.50047
0.0105491
-0.0141414
-1.25006
1.25366
0.0176821
-0.0218606
-1.04592
1.05009
0.0258825
-0.0303195
-0.87775
0.882187
0.0342866
-0.0382797
-0.73989
0.743884
0.0418258
-0.0455701
-0.626764
0.630509
0.0494405
-0.0544525
-0.534803
0.539815
0.0581175
-0.0589244
-0.457467
0.458274
0.0522115
-0.0319998
-0.335738
0.315526
0.00989088
-0.0683354
0.0584445
-0.0529561
0.0489646
0.00399146
-0.033134
0.0436668
-0.358134
0.347601
-0.0473551
0.0467208
-0.459301
0.459935
-0.0436587
0.0403006
-0.535819
0.539177
-0.0365221
0.0332123
-0.628547
0.631857
-0.0297672
0.0267277
-0.742669
0.745709
-0.0234594
0.0203432
-0.88204
0.885156
-0.0168023
0.0134137
-1.05079
1.05418
-0.00961098
0.00606478
-1.25519
1.25873
-0.00208834
-0.00171458
-1.50325
1.50705
0.0054847
-0.00936066
-1.50413
1.508
0.0127638
-0.0163573
-1.2574
1.261
0.0195261
-0.0228234
-1.0539
1.05719
0.0257342
-0.0287985
-0.885664
0.888729
0.0316698
-0.0349469
-0.747134
0.750412
0.0381147
-0.0417493
-0.634285
0.63792
0.0449844
-0.0479055
-0.544116
0.547037
0.0483901
-0.0444905
-0.456549
0.45265
0.0337043
-0.0162367
-0.296145
0.278677
0.00407616
-0.0526203
0.0485442
-0.0458919
0.0434019
0.00249009
-0.0227681
0.0331272
-0.336928
0.326569
-0.0389314
0.0399368
-0.45963
0.458625
-0.0387365
0.0364424
-0.541904
0.544199
-0.0337668
0.0311626
-0.634919
0.637523
-0.0280892
0.0251791
-0.748764
0.751674
-0.0219011
0.0188944
-0.888119
0.891126
-0.015575
0.0124631
-1.05732
1.06044
-0.00892431
0.00550534
-1.2622
1.26562
-0.00153299
-0.0023581
-1.51094
1.51483
0.00620491
-0.0100425
-1.51188
1.51572
0.0132717
-0.0165363
-1.26444
1.2677
0.019361
-0.0223613
-1.06029
1.06329
0.0250952
-0.0280984
-0.891764
0.894767
0.0307791
-0.0336216
-0.753605
0.756448
0.0360307
-0.0385113
-0.640974
0.643455
0.0406392
-0.041619
-0.548828
0.549808
0.0403812
-0.0342363
-0.44735
0.441205
0.0235028
-0.0102582
-0.263434
0.25019
0.00259501
-0.0453747
0.0427796
-0.0413333
0.0395731
0.00176024
-0.0166963
0.0259196
-0.316741
0.307518
-0.0324984
0.0346199
-0.457042
0.45492
-0.0341842
0.0325027
-0.546188
0.54787
-0.030311
0.0282049
-0.639841
0.641947
-0.0257599
0.0233479
-0.754332
0.756744
-0.0204715
0.0176647
-0.894034
0.896841
-0.014409
0.0113226
-1.06349
1.06658
-0.00781497
0.00447521
-1.26895
1.27229
-0.000629989
-0.00311221
-1.51862
1.52236
0.00679783
-0.0104709
-1.51944
1.52312
0.0135684
-0.0167272
-1.27095
1.27411
0.0194484
-0.0222967
-1.06631
1.06916
0.024752
-0.0272721
-0.897558
0.900078
0.0293861
-0.0315323
-0.758881
0.761028
0.0333879
-0.0353279
-0.645594
0.647534
0.0367671
-0.0369028
-0.550307
0.550442
0.0344239
-0.0273443
-0.434508
0.427429
0.0176152
-0.00743569
-0.238625
0.228446
0.00188858
-0.0405924
0.0387038
-0.0380591
0.0367384
0.00132066
-0.0127217
0.0206292
-0.298959
0.291052
-0.0273402
0.0302345
-0.452386
0.449492
-0.0304168
0.0292794
-0.549318
0.550455
-0.0272719
0.0253403
-0.644001
0.645932
-0.0231214
0.0209642
-0.759
0.761157
-0.0184245
0.0159172
-0.899432
0.901939
-0.0129479
0.0100443
-1.06954
1.07244
-0.00665716
0.00339542
-1.27556
1.27882
0.00036984
-0.00401121
-1.52602
1.52966
0.00758145
-0.0111296
-1.5267
1.53025
0.0140871
-0.0170377
-1.27724
1.28019
0.0194855
-0.0219463
-1.07188
1.07434
0.0240133
-0.0261039
-0.902336
0.904426
0.0278841
-0.0297235
-0.76299
0.76483
0.0313384
-0.033039
-0.649335
0.651036
0.0338228
-0.0332196
-0.550206
0.549603
0.0298126
-0.0224138
-0.420128
0.412729
0.0138546
-0.00577926
-0.219417
0.211342
0.00147694
-0.0370452
0.0355682
-0.0355876
0.0345739
0.00101371
-0.00990853
0.0165734
-0.283793
0.277129
-0.0230023
0.0263346
-0.446363
0.44303
-0.027083
0.0263596
-0.551385
0.552108
-0.0245797
0.0227755
-0.64785
0.649654
-0.0206801
0.0186365
-0.763252
0.765296
-0.0162315
0.0138718
-0.904299
0.906659
-0.0110967
0.00837883
-1.07518
1.0779
-0.00518701
0.00207398
-1.28197
1.28508
0.00156179
-0.00509252
-1.53322
1.53675
0.00853492
-0.0119011
-1.53367
1.53704
0.0146381
-0.0172917
-1.28305
1.2857
0.0194484
-0.0215972
-1.0767
1.07884
0.0234124
-0.0252602
-0.906368
0.908216
0.0268354
-0.0284597
-0.766552
0.768176
0.0298705
-0.0312231
-0.652593
0.653946
0.031508
-0.0301612
-0.548633
0.547286
0.0261204
-0.018784
-0.405331
0.397994
0.0112986
-0.00468595
-0.204064
0.197451
0.00120391
-0.0342416
0.0330377
-0.0336873
0.0329026
0.000784723
-0.00781585
0.0133948
-0.271039
0.26546
-0.0193209
0.0228341
-0.439603
0.43609
-0.0240456
0.0235617
-0.552754
0.553238
-0.0220413
0.0203406
-0.651465
0.653166
-0.0183325
0.0163666
-0.767293
0.769259
-0.0140443
0.0117635
-0.908907
0.911188
-0.00908255
0.00646696
-1.08048
1.0831
-0.00340826
0.00043176
-1.28808
1.29105
0.003039
-0.00640064
-1.54016
1.54352
0.00965363
-0.0127933
-1.54025
1.54339
0.0153092
-0.0177101
-1.28829
1.2907
0.0196404
-0.0215559
-1.08095
1.08287
0.0231686
-0.0248054
-0.909935
0.911572
0.0261953
-0.0276232
-0.76969
0.771118
0.0288312
-0.0297929
-0.655102
0.656064
0.0296982
-0.0276697
-0.545585
0.543556
0.0232086
-0.0161162
-0.390768
0.383676
0.00951649
-0.00393482
-0.1914
0.185819
0.001016
-0.0319377
0.0309217
-0.0322177
0.0316116
0.000606157
-0.0061933
0.0108414
-0.260378
0.25573
-0.0161577
0.0196528
-0.432592
0.429097
-0.0211709
0.0209031
-0.553661
0.553929
-0.0196049
0.0179576
-0.654898
0.656545
-0.0159967
0.0140711
-0.771192
0.773117
-0.0117969
0.00956456
-0.913362
0.915594
-0.00694109
0.00438608
-1.08561
1.08816
-0.00140795
-0.00147179
-1.29392
1.2968
0.00480029
-0.00799243
-1.54676
1.54995
0.011052
-0.0139769
-1.54637
1.54929
0.0162957
-0.0184741
-1.29307
1.29525
0.0201967
-0.0218897
-1.08477
1.08646
0.0233071
-0.0247415
-0.913078
0.914512
0.0259597
-0.0272074
-0.772443
0.773691
0.028271
-0.0288085
-0.656821
0.657358
0.0283147
-0.025703
-0.541227
0.538615
0.0209698
-0.0141793
-0.376737
0.369946
0.00826987
-0.00341666
-0.180635
0.175782
0.000887141
-0.0299779
0.0290907
-0.0310879
0.0306274
0.000460415
-0.00487918
0.0087208
-0.251515
0.247674
-0.0133814
0.0167079
-0.425703
0.422377
-0.0183905
0.0183011
-0.554165
0.554255
-0.0171844
0.0155646
-0.658256
0.659876
-0.0136153
0.0116934
-0.775022
0.776944
-0.00942492
0.00720468
-0.917723
0.919944
-0.00460531
0.00208392
-1.09061
1.09313
0.000841582
-0.0036525
-1.29959
1.3024
0.00687362
-0.00992867
-1.55302
1.55607
0.0128225
-0.0155529
-1.55205
1.55478
0.0176827
-0.0196397
-1.29741
1.29937
0.0211543
-0.0226281
-1.08815
1.08963
0.02386
-0.0251086
-0.915817
0.917065
0.026173
-0.0272576
-0.774839
0.775923
0.0281086
-0.0282746
-0.657695
0.657861
0.0273502
-0.0242294
-0.535741
0.532621
0.0193129
-0.0128078
-0.363311
0.356806
0.00741302
-0.00306725
-0.171211
0.166865
0.000801891
-0.0282531
0.0274512
-0.0302381
0.0299021
0.000336016
-0.0037699
0.00689882
-0.244218
0.241089
-0.0108899
0.0139357
-0.419217
0.416171
-0.0156534
0.015703
-0.554345
0.554296
-0.0146557
0.0130961
-0.661554
0.663113
-0.011128
0.00917511
-0.778854
0.780807
-0.0068713
0.00462538
-0.922066
0.924312
-0.00200959
-0.000512698
-1.09555
1.09807
0.00341967
-0.00619121
-1.30512
1.30789
0.00933736
-0.012285
-1.55902
1.56197
0.0150374
-0.0175894
-1.55735
1.5599
0.019537
-0.021275
-1.30133
1.30307
0.022584
-0.023843
-1.09112
1.09238
0.0248946
-0.0259637
-0.91818
0.919249
0.0268815
-0.0278061
-0.776896
0.777821
0.028394
-0.0282558
-0.657873
0.657735
0.0268484
-0.0232479
-0.529261
0.525661
0.0181811
-0.0118969
-0.35043
0.344146
0.00685994
-0.00284881
-0.162711
0.1587
0.000750895
-0.0266811
0.0259302
-0.0296304
0.0294065
0.000223859
-0.00278884
0.00527002
-0.238312
0.23583
-0.00858929
0.0112694
-0.413342
0.410661
-0.0129057
0.0130183
-0.554299
0.554187
-0.0119997
0.0104675
-0.664757
0.666289
-0.00845447
0.00643868
-0.782752
0.784768
-0.00406102
0.00175197
-0.926463
0.928772
0.00092336
-0.00348653
-1.10051
1.10307
0.00641787
-0.00918623
-1.31058
1.31335
0.0122918
-0.015158
-1.56481
1.56767
0.0177885
-0.0201764
-1.56228
1.56467
0.0219509
-0.0234743
-1.30484
1.30636
0.0245768
-0.0256182
-1.09368
1.09472
0.0264844
-0.0273632
-0.920178
0.921057
0.0281197
-0.0288759
-0.778572
0.779329
0.0291778
-0.0286876
-0.657465
0.656975
0.0268108
-0.0227503
-0.521852
0.517791
0.0175265
-0.0113704
-0.33795
0.331794
0.00655071
-0.00273419
-0.154808
0.150992
0.000726936
-0.0251971
0.0244702
-0.029244
0.0291278
0.000116221
-0.00187148
0.0037403
-0.233682
0.231814
-0.00638
0.00862196
-0.408241
0.405999
-0.0100672
0.0101621
-0.554188
0.554093
-0.00913553
0.00758867
-0.667944
0.669491
-0.00549911
0.00338696
-0.786778
0.78889
-0.000895785
-0.00151407
-0.930987
0.933397
0.00429175
-0.00693569
-1.10555
1.10819
0.00993477
-0.0127373
-1.31605
1.31886
0.0158384
-0.0186501
-1.57044
1.57325
0.0211777
-0.0234149
-1.56687
1.56911
0.0250218
-0.0263302
-1.30793
1.30924
0.0272269
-0.0280469
-1.09581
1.09663
0.0287187
-0.0293987
-0.921789
0.922469
0.029998
-0.030604
-0.779902
0.780508
0.030538
-0.0296291
-0.65631
0.655402
0.0272564
-0.0227245
-0.51353
0.508999
0.0173049
-0.0111701
-0.325678
0.319543
0.00644227
-0.00270425
-0.147236
0.143498
0.000725041
-0.02375
0.023025
-0.0290735
0.0290653
8.21329e-06
-0.000968825
0.00223615
-0.23027
0.229003
-0.00417902
0.0059169
-0.404057
0.402319
-0.00706656
0.00706062
-0.554181
0.554187
-0.00597622
0.00437217
-0.6712
0.672805
-0.00216291
-8.28717e-05
-0.790996
0.793242
0.00273179
-0.00528475
-0.935714
0.938267
0.0082123
-0.0109804
-1.11076
1.11353
0.0140936
-0.0169702
-1.3216
1.32448
0.0201057
-0.0228923
-1.57597
1.57876
0.0253372
-0.0274343
-1.57115
1.57325
0.0288773
-0.0299766
-1.31061
1.31171
0.0306671
-0.0312634
-1.09752
1.09812
0.0317343
-0.032201
-0.922996
0.923463
0.0326114
-0.0329414
-0.78084
0.78117
0.03257
-0.031159
-0.654311
0.6529
0.0282478
-0.0231972
-0.504254
0.499204
0.0175088
-0.0112711
-0.31339
0.307153
0.00651397
-0.00274949
-0.139767
0.136003
0.000742688
-0.0222969
0.0215542
-0.0291223
0.0292281
-0.00010581
-3.14012e-05
0.000688717
-0.228061
0.227404
-0.00190296
0.00306934
-0.400918
0.399751
-0.00382119
0.00362852
-0.554455
0.554648
-0.00242593
0.000704518
-0.674621
0.676343
0.00166558
-0.00409019
-0.795481
0.797906
0.00694823
-0.00969218
-0.940728
0.943472
0.0128229
-0.0157637
-1.11624
1.11918
0.0190421
-0.0220356
-1.3273
1.3303
0.0252464
-0.0280379
-1.58145
1.58424
0.0304207
-0.0323884
-1.57514
1.5771
0.033672
-0.0345603
-1.31288
1.31377
0.0350384
-0.0353983
-1.09877
1.09913
0.035659
-0.0359044
-0.923767
0.924013
0.0361046
-0.0360882
-0.781199
0.781183
0.0353627
-0.0333644
-0.651287
0.649288
0.0298432
-0.0241919
-0.493915
0.488263
0.0181334
-0.0116553
-0.300833
0.294355
0.00674996
-0.00286179
-0.132198
0.12831
0.000777377
-0.0208001
0.0200227
-0.0294058
0.0296494
-0.000243674
0.000944293
-0.000962183
-0.227089
0.227107
0.000536598
-1.6732e-05
-0.398962
0.398442
-0.000234453
-0.00023833
-0.555202
0.555674
0.00162959
-0.00353022
-0.678329
0.68023
0.00612269
-0.00877892
-0.800321
0.802977
0.0119051
-0.0148951
-0.946128
0.949118
0.0182898
-0.0214577
-1.12206
1.12523
0.0249578
-0.0281147
-1.33325
1.33641
0.0314429
-0.034266
-1.58695
1.58977
0.0365994
-0.0384465
-1.57884
1.58068
0.0395795
-0.0402547
-1.3147
1.31537
0.0405062
-0.0406099
-1.09954
1.09965
0.0406406
-0.0406482
-0.924074
0.924081
0.0406573
-0.0401851
-0.780859
0.780387
0.0390212
-0.0363343
-0.647079
0.644392
0.0321034
-0.0257331
-0.482328
0.475958
0.0191764
-0.0123075
-0.287724
0.280855
0.00713579
-0.00303308
-0.124336
0.120233
0.000826426
-0.0192264
0.0184
-0.0299632
0.0303542
-0.000390946
0.00205713
-0.00270616
-0.227441
0.22809
0.00315803
-0.00341014
-0.398333
0.398585
0.00381567
-0.0046746
-0.556648
0.557507
0.00632225
-0.00847427
-0.682454
0.684606
0.0113651
-0.014321
-0.80562
0.808576
0.0177875
-0.0210892
-0.952026
0.955328
0.0248188
-0.0282759
-1.12836
1.13182
0.0320601
-0.0354295
-1.33954
1.34291
0.0389173
-0.0417957
-1.59251
1.59539
0.044084
-0.045801
-1.58225
1.58397
0.0467728
-0.0472396
-1.31606
1.31653
0.0472555
-0.0470847
-1.09979
1.09962
0.0468708
-0.0466286
-0.923864
0.923622
0.0463951
-0.0454095
-0.779636
0.77865
0.0436999
-0.0401823
-0.641485
0.637968
0.0350993
-0.0278474
-0.46924
0.461988
0.0206357
-0.0132121
-0.273755
0.266331
0.00765608
-0.00325436
-0.116002
0.1116
0.000886744
-0.0175488
0.016662
-0.0308271
0.0313945
-0.000567399
0.00333315
-0.00479874
-0.229177
0.230642
0.00617448
-0.00724925
-0.399244
0.400319
0.00841462
-0.00978952
-0.559024
0.560399
0.0118339
-0.0143222
-0.687139
0.689627
0.0176017
-0.0209358
-0.811513
0.814847
0.0248266
-0.0285159
-0.958559
0.962248
0.0326608
-0.0364752
-1.13525
1.13906
0.0406093
-0.0442399
-1.34626
1.34989
0.0479257
-0.0508793
-1.59818
1.60113
0.0531263
-0.0547
-1.58536
1.58694
0.0554981
-0.0557386
-1.31694
1.31718
0.0555013
-0.0550389
-1.09947
1.09901
0.0545689
-0.0540461
-0.923109
0.922586
0.0534168
-0.051943
-0.777476
0.776002
0.0495242
-0.0450036
-0.634211
0.62969
0.0388863
-0.0305454
-0.454305
0.445964
0.0224942
-0.0143413
-0.258593
0.25044
0.00828661
-0.00351199
-0.107032
0.102257
0.000953711
-0.0157467
0.014793
-0.0320592
0.0328613
-0.000802137
0.00491002
-0.00728649
-0.232562
0.234938
0.00973967
-0.0117466
-0.40189
0.403897
0.0138072
-0.015827
-0.562572
0.564592
0.0184048
-0.0213277
-0.692559
0.695482
0.0251112
-0.0289136
-0.818164
0.821966
0.0333285
-0.0374941
-0.965883
0.970048
0.0421452
-0.0463896
-1.14286
1.14711
0.0509384
-0.0548724
-1.35351
1.35745
0.0587803
-0.0618091
-1.60399
1.60702
0.0639985
-0.065405
-1.58815
1.58955
0.0659991
-0.0659763
-1.31726
1.31724
0.0654768
-0.0646969
-1.09855
1.09777
0.0639558
-0.0631665
-0.921752
0.920963
0.0620265
-0.0599532
-0.774389
0.772316
0.0566631
-0.0508941
-0.624873
0.619104
0.0434963
-0.0338042
-0.437083
0.427391
0.0247025
-0.0156416
-0.241886
0.232825
0.00898607
-0.0037843
-0.0972865
0.0920847
0.00102035
-0.0138097
0.0127894
-0.03376
0.0348669
-0.00110688
0.00688532
-0.0103656
-0.237802
0.241282
0.0140965
-0.0171936
-0.406582
0.409679
0.020275
-0.0230627
-0.56759
0.570378
0.0263295
-0.0298172
-0.698939
0.702427
0.034251
-0.0386437
-0.825761
0.830154
0.0437045
-0.0484469
-0.974178
0.97892
0.0537004
-0.0584455
-1.15135
1.1561
0.0634617
-0.0677207
-1.36136
1.36562
0.071844
-0.0749165
-1.60993
1.613
0.0770048
-0.0781998
-1.59054
1.59173
0.0785544
-0.0782296
-1.3169
1.31658
0.0774422
-0.0763101
-1.09695
1.09582
0.0752916
-0.0742038
-0.919816
0.918729
0.0724973
-0.0696536
-0.770157
0.767313
0.0652439
-0.0578841
-0.612964
0.605605
0.0488859
-0.0375281
-0.417032
0.405674
0.0271495
-0.0170163
-0.223283
0.21315
0.00968677
-0.00403838
-0.0866724
0.081024
0.00107671
-0.0117432
0.0106664
-0.0360615
0.0375875
-0.00152599
0.00948215
-0.0143352
-0.245257
0.25011
0.0195816
-0.0239341
-0.413673
0.418026
0.0281929
-0.0319039
-0.574406
0.578117
0.0360417
-0.0402857
-0.706553
0.710797
0.0455395
-0.0506694
-0.834547
0.839677
0.0565174
-0.0619442
-0.983651
0.989078
0.0678895
-0.0731846
-1.16085
1.16615
0.0786842
-0.0832474
-1.36984
1.3744
0.0875267
-0.0905603
-1.6159
1.61893
0.092456
-0.0933476
-1.59242
1.59331
0.0934021
-0.0927752
-1.31581
1.31519
0.0916125
-0.0901188
-1.09464
1.09315
0.0888216
-0.0872482
-0.917148
0.915574
0.0850251
-0.0811275
-0.76437
0.760473
0.0752786
-0.0658905
-0.597774
0.588386
0.0548928
-0.0415094
-0.393507
0.380124
0.0296334
-0.0183086
-0.202474
0.191149
0.0102875
-0.00422853
-0.0751758
0.0691169
0.00110992
-0.00957335
0.00846343
-0.0391727
0.0413053
-0.00213256
0.0130609
-0.01967
-0.255432
0.262041
0.0267406
-0.0325573
-0.423651
0.429467
0.0381864
-0.0430232
-0.583407
0.588244
0.048243
-0.0534479
-0.715797
0.721002
0.0597729
-0.0658167
-0.844812
0.850856
0.072593
-0.0787881
-0.994511
1.00071
0.085468
-0.091304
-1.17142
1.17726
0.0972243
-0.101992
-1.37886
1.38363
0.10628
-0.109119
-1.6217
1.62454
0.110669
-0.111118
-1.59359
1.59403
0.110789
-0.109782
-1.31393
1.31292
0.10823
-0.106343
-1.09161
1.08973
0.10475
-0.102629
-0.913372
0.911251
0.0997607
-0.0944323
-0.756433
0.751105
0.0866589
-0.0746489
-0.578383
0.566373
0.0611639
-0.0453766
-0.365795
0.350007
0.0318324
-0.0192932
-0.179265
0.166726
0.0106541
-0.00429892
-0.0629053
0.0565501
0.00110539
-0.00735317
0.00624778
-0.0434332
0.0465014
-0.00306826
0.0182606
-0.02717
-0.269077
0.277987
0.0364712
-0.0440549
-0.437197
0.444781
0.0513291
-0.0575155
-0.595101
0.601287
0.0641598
-0.0707004
-0.727094
0.733634
0.0782855
-0.085348
-0.856878
0.863941
0.0931132
-0.100071
-1.0069
1.01385
0.107406
-0.113648
-1.183
1.18925
0.119783
-0.124532
-1.38816
1.39291
0.128564
-0.13096
-1.62699
1.62938
0.131945
-0.131759
-1.59374
1.59355
0.130897
-0.129387
-1.31106
1.30955
0.127452
-0.125151
-1.08779
1.08549
0.123126
-0.120491
-0.908332
0.905697
0.116601
-0.109315
-0.745512
0.738226
0.0989748
-0.0836038
-0.553567
0.538196
0.0670829
-0.0485593
-0.333185
0.314662
0.0332995
-0.0196902
-0.153695
0.140085
0.0106355
-0.00419263
-0.0501362
0.0436934
0.00104974
-0.00516358
0.00411384
-0.0494372
0.0540868
-0.00464955
0.0263156
-0.0383283
-0.287378
0.299391
0.0505041
-0.0604432
-0.455421
0.46536
0.0697657
-0.0775805
-0.610063
0.617878
0.0859702
-0.0940513
-0.740961
0.749042
0.103008
-0.111071
-0.870955
0.879018
0.119685
-0.127184
-1.02071
1.0282
0.134846
-0.141145
-1.19522
1.20152
0.147083
-0.151433
-1.39723
1.40158
0.154796
-0.156397
-1.6312
1.6328
0.156521
-0.155457
-1.59248
1.59142
0.153904
-0.151788
-1.307
1.30488
0.149414
-0.146614
-1.08304
1.08024
0.144141
-0.140773
-0.901879
0.89851
0.135377
-0.12525
-0.730406
0.720278
0.11143
-0.0918108
-0.521795
0.502176
0.0717202
-0.0503072
-0.295148
0.273734
0.0335162
-0.019222
-0.12619
0.111895
0.0101017
-0.00386798
-0.0373353
0.0311016
0.000933323
-0.00310745
0.00217413
-0.0583144
0.0662514
-0.00793692
0.0404251
-0.0570169
-0.31254
0.329132
0.0732413
-0.0862992
-0.479919
0.492977
0.0977552
-0.107159
-0.628817
0.638221
0.117282
-0.12679
-0.757616
0.767124
0.136831
-0.145426
-0.886798
0.895392
0.154252
-0.161659
-1.03532
1.04273
0.168966
-0.174695
-1.20723
1.21296
0.179796
-0.183159
-1.40519
1.40856
0.185297
-0.185638
-1.63358
1.63392
0.184518
-0.182293
-1.58932
1.58709
0.179852
-0.17701
-1.30145
1.29861
0.174108
-0.170736
-1.07718
1.0738
0.167653
-0.163094
-0.893342
0.888782
0.155371
-0.14109
-0.709182
0.6949
0.12253
-0.0977928
-0.481204
0.456467
0.0739184
-0.0499093
-0.251663
0.227654
0.0321187
-0.0177746
-0.0977299
0.0833857
0.00902693
-0.00332282
-0.0251365
0.0194324
0.000752256
-0.00129424
0.000541981
-0.0736187
0.0781102
-0.00449149
0.0310623
-0.0456268
-0.348602
0.363167
0.0602182
-0.0722594
-0.511973
0.524014
0.0833016
-0.0938574
-0.651215
0.661771
0.105949
-0.117067
-0.775944
0.787063
0.129498
-0.140646
-0.902991
0.914139
0.152678
-0.163545
-1.04925
1.06012
0.175164
-0.1854
-1.21768
1.22792
0.195993
-0.204905
-1.41085
1.41976
0.213549
-0.220097
-1.63317
1.63971
0.224589
-0.227745
-1.58362
1.58677
0.229575
-0.230952
-1.29412
1.29549
0.23174
-0.231253
-1.06975
1.06926
0.229781
-0.224313
-0.881253
0.875785
0.212022
-0.188602
-0.67902
0.655599
0.158501
-0.120826
-0.430224
0.392549
0.0872752
-0.0558671
-0.203719
0.172311
0.0343318
-0.0181272
-0.0699166
0.0537119
0.00875295
-0.00300336
-0.0142208
0.00847124
0.000600577
0.000222723
-0.0008233
-0.0859424
0.0840701
0.00187229
0.00882589
-0.0184805
-0.380689
0.390344
0.029719
-0.0385719
-0.541026
0.549878
0.047646
-0.0565839
-0.67508
0.684018
0.0676377
-0.078038
-0.797616
0.808017
0.0892776
-0.0996149
-0.924725
0.935062
0.110764
-0.120503
-1.07076
1.0805
0.131141
-0.140181
-1.23803
1.24707
0.149572
-0.157304
-1.42849
1.43622
0.164516
-0.169948
-1.64578
1.65121
0.173514
-0.175824
-1.58934
1.59165
0.176747
-0.177347
-1.29515
1.29575
0.177577
-0.176755
-1.067
1.06618
0.173893
-0.165962
-0.864808
0.856877
0.151627
-0.128224
-0.627705
0.604302
0.101853
-0.0724603
-0.352576
0.323184
0.0492602
-0.029842
-0.142214
0.122796
0.0175002
-0.00882331
-0.038871
0.0301942
0.00404189
-0.00129631
-0.00304825
0.000302669
0.000213596
0.00160598
-0.00181958
-0.0877282
0.0847542
0.00297405
-0.000488426
-0.00524185
-0.402794
0.408524
0.012834
-0.0195144
-0.562924
0.569604
0.0264393
-0.0341606
-0.695518
0.703239
0.0438151
-0.0528872
-0.817328
0.8264
0.0629163
-0.071998
-0.944595
0.953676
0.0815767
-0.0903695
-1.09012
1.09891
0.0997998
-0.107962
-1.25576
1.26392
0.116057
-0.122654
-1.44345
1.45005
0.128992
-0.133518
-1.65626
1.66078
0.136273
-0.137865
-1.59348
1.59507
0.13824
-0.138402
-1.29496
1.29513
0.13793
-0.136599
-1.0624
1.06107
0.132859
-0.123667
-0.844707
0.835515
0.109136
-0.0876609
-0.5776
0.556125
0.0660202
-0.044393
-0.292037
0.27041
0.0291891
-0.0173832
-0.103823
0.0920175
0.0101359
-0.00513937
-0.0217542
0.0167576
0.00238105
-0.000775949
0.00261312
-0.00421822
0.000134776
0.00223193
-0.00236671
-0.0865553
0.0836783
0.002877
-0.00463261
0.00162191
-0.417826
0.420836
0.00342213
-0.00856996
-0.579558
0.584706
0.0144844
-0.0209954
-0.712408
0.718919
0.0293038
-0.0371234
-0.834681
0.842501
0.0457419
-0.0535842
-0.962191
0.970033
0.0622676
-0.0698299
-1.10727
1.11483
0.078156
-0.0849335
-1.27171
1.27848
0.0920531
-0.0978211
-1.4565
1.46227
0.103139
-0.106647
-1.6651
1.6686
0.108915
-0.110149
-1.59626
1.59749
0.110226
-0.109619
-1.29419
1.29358
0.108724
-0.106903
-1.05642
1.0546
0.1026
-0.093369
-0.822402
0.813171
0.0796455
-0.0614303
-0.532071
0.513856
0.0447115
-0.0295296
-0.247784
0.232602
0.0194099
-0.0117723
-0.0796409
0.0720033
0.00703502
-0.00369275
-0.0113485
0.00800626
0.0017875
-0.000617548
0.00610776
-0.00727771
0.000119768
0.0026308
-0.00275057
-0.0850404
0.0824268
0.00261358
-0.00624168
0.0049521
-0.428058
0.429348
-0.001123
-0.00278524
-0.592986
0.596894
0.0075592
-0.0134138
-0.726646
0.7325
0.0203956
-0.0272533
-0.849496
0.856354
0.0347241
-0.0415478
-0.97739
0.984214
0.0490264
-0.0557402
-1.12224
1.12895
0.0628541
-0.0689991
-1.28511
1.29126
0.0751578
-0.0800995
-1.46769
1.47263
0.0845725
-0.0873949
-1.67207
1.67489
0.0891147
-0.089711
-1.59813
1.59872
0.0894752
-0.0886524
-1.29233
1.2915
0.0873326
-0.0848281
-1.04961
1.0471
0.0804947
-0.0717261
-0.800228
0.791459
0.0597679
-0.0448401
-0.49352
0.478592
0.0322311
-0.0214359
-0.216114
0.205319
0.0143429
-0.00900739
-0.0635225
0.058187
0.00560807
-0.00307415
-0.00411487
0.00158094
0.00155883
-0.000565994
0.00872177
-0.00971461
0.000124078
0.00295499
-0.00307907
-0.0835075
0.0812047
0.00230275
-0.00654897
0.00590392
-0.43514
0.435785
-0.00356157
0.000377268
-0.603404
0.606589
0.00418604
-0.00916757
-0.738699
0.743681
0.0151313
-0.0210431
-0.862299
0.868211
0.0276205
-0.0336605
-0.990638
0.996678
0.0404085
-0.046243
-1.13535
1.14118
0.0525387
-0.0579568
-1.29707
1.30248
0.0632816
-0.0674847
-1.47727
1.48147
0.0711619
-0.0737074
-1.67767
1.68022
0.0748547
-0.0751825
-1.59892
1.59925
0.0746468
-0.0735282
-1.2901
1.28899
0.0721381
-0.0691294
-1.0422
1.03919
0.0646819
-0.0567656
-0.779236
0.77132
0.0465058
-0.0344665
-0.46172
0.44968
0.0248998
-0.016958
-0.19313
0.185189
0.0118077
-0.00777504
-0.0518932
0.0478606
0.00504601
-0.0028895
0.00150296
-0.00365947
0.00152014
-0.000580764
0.0109197
-0.0118591
0.000135804
0.00323979
-0.00337559
-0.0821934
0.080324
0.00186942
-0.00602693
0.00588101
-0.440299
0.440444
-0.00400009
0.00161449
-0.612398
0.614783
0.00254531
-0.0069976
-0.749061
0.753513
0.0125432
-0.0175746
-0.873635
0.878667
0.0232686
-0.0285349
-1.00263
1.0079
0.0347643
-0.0399221
-1.14699
1.15214
0.0453715
-0.0502519
-1.30765
1.31253
0.0553018
-0.0588928
-1.48562
1.48921
0.062064
-0.0639567
-1.68233
1.68422
0.06494
-0.0646237
-1.59935
1.59904
0.0639936
-0.0627881
-1.2874
1.28619
0.0610318
-0.0580242
-1.03445
1.03144
0.0536194
-0.0463109
-0.759946
0.752638
0.0377963
-0.0280382
-0.435627
0.425869
0.0206505
-0.0147295
-0.1759
0.169979
0.0107315
-0.00744149
-0.0428732
0.0395832
0.00506582
-0.00303484
0.00635179
-0.00838277
0.00166034
-0.000661626
0.0129892
-0.0139879
0.000165793
0.00351723
-0.00368302
-0.0812889
0.0797634
0.00152549
-0.00523089
0.0053822
-0.444169
0.444018
-0.00375687
0.00158707
-0.620065
0.622235
0.00222739
-0.00616039
-0.758208
0.762141
0.0108338
-0.0155495
-0.883578
0.888294
0.0206744
-0.0259015
-1.01289
1.01812
0.0311334
-0.0358417
-1.15733
1.16204
0.0410954
-0.0453791
-1.31718
1.32146
0.0494771
-0.0530026
-1.49259
1.49612
0.0557305
-0.0572698
-1.6861
1.68763
0.0577395
-0.0573242
-1.59885
1.59843
0.0564414
-0.054965
-1.28439
1.28291
0.0530805
-0.0499041
-1.0269
1.02372
0.0456313
-0.0392053
-0.742383
0.735957
0.0317687
-0.0239711
-0.414214
0.406417
0.0182876
-0.0136647
-0.16272
0.158097
0.0104481
-0.00764919
-0.0353742
0.0325753
0.00543258
-0.00340574
0.0109119
-0.0129387
0.00194494
-0.000808097
0.0151606
-0.0162975
0.000216172
0.00383722
-0.00405339
-0.0808601
0.0795299
0.00133021
-0.00415193
0.00418881
-0.447355
0.447318
-0.00288816
0.000841383
-0.626892
0.628939
0.00258158
-0.00628765
-0.766522
0.770228
0.0106414
-0.0148008
-0.892738
0.896897
0.0198766
-0.0240968
-1.02267
1.02689
0.0290641
-0.0333431
-1.16682
1.1711
0.0381503
-0.0422755
-1.32561
1.32973
0.0462158
-0.0490123
-1.49925
1.50204
0.0514348
-0.0526688
-1.68894
1.69017
0.0530528
-0.0521645
-1.59774
1.59685
0.0510522
-0.0492943
-1.28128
1.27952
0.0472307
-0.0438331
-1.01919
1.01579
0.039745
-0.0338076
-0.726612
0.720675
0.0275066
-0.0211755
-0.396788
0.390457
0.0166801
-0.0131169
-0.152265
0.148702
0.0104567
-0.00798352
-0.0288598
0.0263866
0.0058895
-0.00384863
0.0154009
-0.0174418
0.00227467
-0.000995311
0.0175562
-0.0188356
0.000277614
0.0042356
-0.00451321
-0.0806612
0.0796616
0.00099955
-0.00314453
0.00279599
-0.450362
0.45071
-0.00176639
-0.000249653
-0.632749
0.634765
0.003244
-0.00672504
-0.774071
0.777552
0.0107764
-0.0149421
-0.900863
0.905029
0.0192192
-0.0234425
-1.03126
1.03548
0.0281544
-0.0319802
-1.17573
1.17956
0.0365809
-0.0403265
-1.33352
1.33727
0.0438762
-0.0467315
-1.5051
1.50796
0.0490021
-0.0497961
-1.69124
1.69204
0.0496173
-0.0486289
-1.59593
1.59495
0.0473503
-0.0452107
-1.27735
1.27521
0.0427709
-0.0393771
-1.0114
1.00801
0.0349267
-0.0295901
-0.712087
0.70675
0.0241615
-0.0189263
-0.382513
0.377278
0.0153951
-0.0124826
-0.143858
0.140945
0.010252
-0.0080578
-0.0230905
0.0208962
0.00611698
-0.00413016
0.0198305
-0.0218173
0.00253498
-0.00115743
0.020191
-0.0215685
0.000342015
0.00473135
-0.00507337
-0.0808421
0.0800181
0.000823994
-0.00227155
0.00203407
-0.453374
0.453611
-0.000556257
-0.0012233
-0.638488
0.640268
0.00431751
-0.00758603
-0.780906
0.784174
0.0113706
-0.0150113
-0.908804
0.912445
0.0192821
-0.0230328
-1.03963
1.04338
0.0274984
-0.0315727
-1.18376
1.18783
0.0355219
-0.0393025
-1.34093
1.34471
0.0428839
-0.0453674
-1.51052
1.513
0.0473885
-0.0482625
-1.69282
1.69369
0.0477367
-0.0465083
-1.59354
1.59231
0.0446604
-0.0421933
-1.27279
1.27033
0.0395249
-0.0356991
-1.00342
0.99959
0.0312962
-0.0261236
-0.698782
0.693609
0.0212997
-0.0168168
-0.370407
0.365924
0.0138451
-0.0114383
-0.136907
0.134501
0.00952301
-0.00762665
-0.017983
0.0160866
0.00591783
-0.00411162
0.0240325
-0.0258387
0.00259581
-0.00123128
0.0229349
-0.0242994
0.000380951
0.00532085
-0.0057018
-0.0813097
0.0806604
0.000649318
-0.00125385
0.000886413
-0.456385
0.456753
0.000378213
-0.0024074
-0.643663
0.645692
0.00537517
-0.00841884
-0.787323
0.790366
0.0122004
-0.0155974
-0.916019
0.919416
0.0195896
-0.0233407
-1.04756
1.05132
0.0275473
-0.0314037
-1.19166
1.19552
0.0353432
-0.0388858
-1.34828
1.35182
0.0422916
-0.0451331
-1.5156
1.51844
0.0470208
-0.0475062
-1.69423
1.69471
0.0468854
-0.0450765
-1.59062
1.58881
0.0429899
-0.0402416
-1.26745
1.2647
0.0369298
-0.0327133
-0.994809
0.990592
0.0281148
-0.022897
-0.686189
0.680971
0.0185299
-0.0145376
-0.360056
0.356064
0.0119859
-0.00987879
-0.130993
0.128886
0.00827357
-0.00669138
-0.0135473
0.0119651
0.00528365
-0.00376225
0.0277861
-0.0293075
0.00243768
-0.00120284
0.025559
-0.0267938
0.000398937
0.00595154
-0.00635047
-0.0820108
0.0814847
0.000526128
-0.000414268
-3.33756e-05
-0.459453
0.459901