/*--------------------------------*- C++ -*----------------------------------*\
  =========                 |
  \\      /  F ield         | OpenFOAM: The Open Source CFD Toolbox
   \\    /   O peration     | Website:  https://openfoam.org
    \\  /    A nd           | Version:  6
     \\/     M anipulation  |
\*---------------------------------------------------------------------------*/
FoamFile
{
    version     2.0;
    format      ascii;
    class       volScalarField;
    location    "48";
    object      p;
}
// * * * * * * * * * * * * * * * * * * * * * * * * * * * * * * * * * * * * * //

dimensions      [0 2 -2 0 0 0 0];

internalField   nonuniform List<scalar> 
8800
(
0.804783
0.755465
0.717493
0.689415
0.669239
0.654629
0.643999
0.636416
0.631472
0.629324
0.630606
0.634876
0.641615
0.650998
0.663706
0.681006
0.70487
0.737959
0.780891
0.833403
0.63929
0.645633
0.654777
0.658316
0.655695
0.649589
0.642622
0.636341
0.631485
0.628544
0.628224
0.630768
0.635343
0.641422
0.648487
0.655497
0.66036
0.660224
0.653541
0.644637
0.612834
0.619065
0.623557
0.627415
0.630346
0.63127
0.630147
0.627976
0.625928
0.625
0.625937
0.628308
0.631133
0.633358
0.633847
0.632035
0.628652
0.624627
0.619838
0.616121
0.608576
0.611338
0.613934
0.616077
0.617794
0.619333
0.620397
0.620694
0.620505
0.620506
0.621204
0.622257
0.62293
0.622728
0.621715
0.620332
0.618642
0.616324
0.613905
0.612338
0.603578
0.605001
0.606828
0.608891
0.610579
0.611839
0.612891
0.613808
0.61453
0.615154
0.615744
0.616103
0.616047
0.615622
0.614909
0.61376
0.612078
0.610165
0.608803
0.608001
0.598663
0.599564
0.600798
0.602403
0.604068
0.605561
0.606791
0.60784
0.608803
0.609688
0.610334
0.610606
0.610522
0.610082
0.609225
0.607996
0.606602
0.605313
0.604482
0.603958
0.59385
0.594504
0.595451
0.596744
0.598158
0.599629
0.601053
0.602332
0.603478
0.604531
0.605315
0.605666
0.605571
0.605046
0.604197
0.603203
0.60217
0.601238
0.600647
0.600264
0.589138
0.589641
0.590412
0.591525
0.592786
0.594152
0.59559
0.597033
0.598411
0.599687
0.600644
0.601079
0.601019
0.600588
0.59994
0.599187
0.598397
0.597701
0.597262
0.596965
0.584477
0.584878
0.585522
0.586512
0.587699
0.589005
0.590429
0.591958
0.593537
0.595076
0.596252
0.596843
0.596945
0.596719
0.596292
0.595744
0.595147
0.594636
0.594308
0.594067
0.57979
0.580117
0.580673
0.581582
0.582717
0.584006
0.585458
0.587075
0.588829
0.590633
0.592105
0.592968
0.593324
0.593335
0.593122
0.592782
0.592367
0.59201
0.591765
0.591564
0.574994
0.575265
0.575761
0.576622
0.577738
0.579049
0.580566
0.582309
0.58427
0.586384
0.588229
0.589446
0.590112
0.590389
0.590409
0.590272
0.590037
0.589814
0.589634
0.589463
0.570006
0.570234
0.570691
0.571534
0.57267
0.574042
0.575666
0.577585
0.579818
0.582323
0.584622
0.586259
0.587287
0.587871
0.588146
0.588224
0.588165
0.58806
0.587935
0.587784
0.56474
0.564934
0.565371
0.566227
0.567424
0.568902
0.570689
0.572856
0.575444
0.578436
0.58129
0.583428
0.584871
0.585798
0.586357
0.586651
0.586777
0.586785
0.586706
0.586571
0.559104
0.559272
0.559707
0.560604
0.561901
0.563539
0.565559
0.568059
0.571111
0.574719
0.578244
0.580971
0.582895
0.584208
0.585084
0.585641
0.585947
0.586059
0.586018
0.585893
0.552988
0.553132
0.55358
0.554547
0.555991
0.557847
0.560175
0.5631
0.566723
0.571081
0.575429
0.578875
0.581374
0.583144
0.584378
0.585214
0.585723
0.585944
0.58594
0.585821
0.54626
0.54638
0.546855
0.547923
0.549564
0.551708
0.554428
0.557882
0.56222
0.567507
0.572849
0.577152
0.580343
0.582656
0.584315
0.585471
0.586208
0.586542
0.586573
0.586457
0.538759
0.538855
0.539374
0.540574
0.542468
0.544982
0.548201
0.552327
0.557545
0.563959
0.570518
0.575868
0.579878
0.582832
0.584994
0.586523
0.587513
0.587966
0.588029
0.587914
0.530249
0.53035
0.530916
0.532285
0.534512
0.537497
0.54136
0.546349
0.552694
0.560515
0.568533
0.575101
0.580065
0.58376
0.586522
0.588483
0.589756
0.590338
0.590435
0.590317
0.520449
0.520532
0.521184
0.522786
0.525447
0.529036
0.533707
0.539769
0.547501
0.557046
0.566825
0.574857
0.580962
0.585546
0.589002
0.59148
0.593079
0.593801
0.593929
0.593805
0.508999
0.509067
0.509823
0.511731
0.514932
0.519297
0.525011
0.532434
0.541892
0.553546
0.565451
0.575218
0.582671
0.588305
0.592566
0.595651
0.597621
0.598493
0.598651
0.598518
0.495358
0.495415
0.496315
0.498632
0.502553
0.507942
0.515016
0.524202
0.53585
0.550088
0.564538
0.57633
0.585317
0.592164
0.597369
0.601144
0.603521
0.604549
0.604733
0.604586
0.47879
0.47884
0.479951
0.482837
0.487746
0.494523
0.503419
0.514912
0.529351
0.54677
0.564182
0.578284
0.589029
0.59725
0.603527
0.608088
0.610905
0.612084
0.612286
0.612121
0.458161
0.458214
0.459656
0.463391
0.469709
0.478428
0.489802
0.50432
0.522231
0.543444
0.56435
0.581119
0.59387
0.603641
0.611134
0.616571
0.619849
0.621164
0.621368
0.621182
0.431692
0.431773
0.4338
0.438919
0.44742
0.459023
0.473934
0.492542
0.514907
0.540674
0.56547
0.585094
0.599985
0.611466
0.620256
0.626632
0.630352
0.631765
0.631949
0.631737
0.396358
0.396561
0.399782
0.407469
0.419682
0.435723
0.455675
0.479632
0.507382
0.538367
0.567497
0.590245
0.607419
0.620685
0.630894
0.638199
0.642285
0.64372
0.643852
0.643612
0.346403
0.347459
0.353885
0.366872
0.385566
0.408471
0.435396
0.466127
0.500242
0.537057
0.570772
0.596713
0.616202
0.631257
0.642893
0.65104
0.65533
0.65668
0.656728
0.656458
0.273408
0.280686
0.295477
0.318207
0.346612
0.378725
0.414162
0.452666
0.49385
0.537035
0.575748
0.605198
0.627271
0.644373
0.657494
0.666404
0.670851
0.672131
0.672131
0.671889
0.195508
0.211452
0.235522
0.268766
0.30741
0.348906
0.392943
0.439453
0.488169
0.53851
0.583271
0.61721
0.64266
0.662336
0.67728
0.686996
0.691452
0.692585
0.692615
0.692486
0.128808
0.148331
0.180175
0.222466
0.270227
0.320564
0.372986
0.427387
0.483487
0.540729
0.591214
0.629323
0.657851
0.67987
0.696322
0.706572
0.710948
0.712011
0.7121
0.712039
0.0742158
0.0959621
0.13317
0.181974
0.236872
0.294635
0.354483
0.416137
0.479181
0.542975
0.598873
0.640897
0.672229
0.696293
0.714117
0.725124
0.729937
0.731081
0.73118
0.731162
0.0288608
0.0519451
0.0930439
0.146956
0.207588
0.271479
0.337673
0.405756
0.475145
0.545064
0.606032
0.651717
0.685697
0.711676
0.730917
0.742904
0.748187
0.749419
0.749575
0.74959
-0.00985482
0.0140605
0.0580496
0.11612
0.181575
0.250702
0.32239
0.396162
0.47129
0.546859
0.612571
0.661651
0.698078
0.725865
0.746364
0.759205
0.764982
0.76643
0.766646
0.766677
-0.0439301
-0.0194262
0.0268382
0.088344
0.157916
0.231601
0.308163
0.387064
0.467457
0.548261
0.618431
0.670659
0.709286
0.738631
0.76021
0.773686
0.779864
0.781625
0.78193
0.781965
-0.0748274
-0.0498238
-0.00166745
0.0627661
0.135899
0.21358
0.294521
0.378112
0.463404
0.549147
0.623511
0.67871
0.719311
0.750033
0.772473
0.786461
0.792968
0.794956
0.7953
0.795324
-0.103529
-0.0780518
-0.0282794
0.0387317
0.114984
0.196201
0.28109
0.36899
0.45888
0.54936
0.627767
0.685782
0.728236
0.760174
0.783295
0.797566
0.804313
0.806431
0.806779
0.80678
-0.130802
-0.104795
-0.0535344
0.0157667
0.0947724
0.179146
0.267609
0.359489
0.453708
0.548758
0.631137
0.691918
0.736174
0.769178
0.792741
0.807171
0.814028
0.816238
0.816582
0.816552
-0.156972
-0.130479
-0.0778412
-0.00648007
0.0749915
0.1622
0.25391
0.349459
0.447765
0.547235
0.633578
0.69718
0.743262
0.777248
0.801171
0.815701
0.822607
0.82485
0.825189
0.82513
-0.182441
-0.15537
-0.101456
-0.0282272
0.0554612
0.145219
0.239884
0.338816
0.440967
0.544721
0.635075
0.701632
0.749613
0.78458
0.80883
0.823432
0.830324
0.832504
0.832823
0.832749
-0.207302
-0.179643
-0.124529
-0.0495985
0.0360785
0.128134
0.225481
0.327523
0.433269
0.541182
0.635623
0.705328
0.755335
0.791308
0.815887
0.830514
0.837339
0.839441
0.839687
0.839569
-0.231648
-0.203388
-0.147142
-0.0706505
0.0168098
0.110924
0.210691
0.315572
0.424665
0.536584
0.635194
0.708285
0.76051
0.797586
0.822509
0.837102
0.843736
0.845684
0.845845
0.845688
-0.255548
-0.226656
-0.169308
-0.0913991
-0.00235496
0.0936049
0.195544
0.302997
0.415172
0.530918
0.633745
0.710472
0.765203
0.803566
0.828846
0.843285
0.849599
0.851305
0.85137
0.851188
-0.279032
-0.24943
-0.191015
-0.111828
-0.0213704
0.0762205
0.180099
0.289852
0.40483
0.524176
0.631215
0.711813
0.769433
0.809406
0.835095
0.849179
0.854959
0.856336
0.856304
0.856106
-0.30193
-0.271661
-0.212231
-0.131906
-0.0401902
0.0588453
0.164423
0.276218
0.393705
0.516384
0.627536
0.712203
0.773151
0.815247
0.841543
0.855028
0.859919
0.860805
0.860664
0.860467
-0.324202
-0.2933
-0.232925
-0.151576
-0.0587493
0.041547
0.148614
0.262178
0.381884
0.507572
0.622658
0.711515
0.776225
0.821132
0.848574
0.861361
0.864799
0.864793
0.864479
0.864325
-0.345902
-0.314307
-0.253061
-0.170794
-0.0769774
0.0244151
0.132766
0.24784
0.369462
0.497804
0.61653
0.709619
0.778439
0.826891
0.856483
0.869095
0.870585
0.868746
0.867818
0.867877
-0.366862
-0.334649
-0.272579
-0.189485
-0.0948094
0.00753852
0.116979
0.233319
0.356559
0.487181
0.609133
0.706369
0.77953
0.832083
0.8651
0.879171
0.879457
0.874869
0.871335
0.869641
-0.387176
-0.354328
-0.29148
-0.207679
-0.112279
-0.00912577
0.1012
0.218551
0.343098
0.47563
0.60031
0.701502
0.779213
0.836114
0.873545
0.89152
0.8935
0.887429
0.876882
0.876257
-0.406754
-0.373416
-0.309901
-0.225572
-0.129688
-0.0259245
0.0849999
0.203032
0.328511
0.462488
0.589364
0.694199
0.77691
0.838135
0.879779
0.903111
0.908033
0.898496
0.88049
0.876727
-0.425451
-0.391874
-0.327667
-0.242955
-0.146777
-0.0425491
0.0685978
0.187096
0.313105
0.448019
0.576398
0.683921
0.771962
0.836992
0.879375
0.902545
0.91107
0.888495
0.829967
0.804224
-0.443146
-0.410513
-0.344367
-0.259301
-0.162845
-0.0585076
0.052267
0.171015
0.297162
0.432399
0.561497
0.670168
0.763503
0.832016
0.867735
0.885156
0.878216
0.830143
0.768864
0.731199
-0.487625
-0.428502
-0.359881
-0.275218
-0.178686
-0.0747215
0.0361394
0.15467
0.280485
0.4153
0.544289
0.652474
0.747979
0.821499
0.843815
0.838012
0.797569
0.736653
0.669418
0.632463
-0.462398
-0.443919
-0.383371
-0.29874
-0.202769
-0.0990188
0.0110928
0.128918
0.253718
0.386905
0.513984
0.61961
0.705991
0.78585
0.775038
0.674699
0.589622
0.530368
0.468562
0.4975
-0.494424
-0.462265
-0.400836
-0.316757
-0.220887
-0.117453
-0.00720149
0.109944
0.23368
0.365026
0.489329
0.591208
0.667685
0.712059
0.66662
0.534252
0.430432
0.360404
0.280451
0.328067
-0.519401
-0.484723
-0.421404
-0.337138
-0.241326
-0.137955
-0.0278011
0.0885398
0.210901
0.339822
0.460253
0.556109
0.621679
0.629049
0.529289
0.380015
0.255598
0.166628
0.0732695
0.106466
-0.543792
-0.507955
-0.443157
-0.358176
-0.262212
-0.158937
-0.0492565
0.0661275
0.186904
0.313017
0.428659
0.517303
0.566318
0.541994
0.390571
0.218822
0.0630399
-0.0674222
-0.189375
-0.175267
-0.56793
-0.531621
-0.465833
-0.380212
-0.284013
-0.180901
-0.071834
0.0424567
0.161379
0.28431
0.394446
0.475743
0.504756
0.437628
0.254461
0.0622008
-0.121038
-0.27169
-0.474842
-0.553185
-0.592495
-0.556186
-0.489777
-0.40366
-0.30721
-0.204209
-0.0956873
0.0174885
0.134447
0.253966
0.358283
0.430357
0.435713
0.317509
0.130604
-0.073985
-0.262194
-0.421311
-0.5435
-0.661538
-0.618572
-0.582139
-0.515355
-0.428925
-0.332357
-0.229559
-0.121675
-0.0097834
0.104876
0.220452
0.318496
0.378533
0.357795
0.203404
0.0148883
-0.183874
-0.355593
-0.450509
-0.476314
-0.489851
-0.646301
-0.609768
-0.542702
-0.456113
-0.359609
-0.257179
-0.150178
-0.0398779
0.0720343
0.182942
0.27424
0.317611
0.278722
0.0939642
-0.092735
-0.271229
-0.400764
-0.437737
-0.446452
-0.446796
-0.675969
-0.639197
-0.571853
-0.485205
-0.388909
-0.287077
-0.181221
-0.0728565
0.0358406
0.141375
0.224949
0.252795
0.183734
-0.00605888
-0.186678
-0.3417
-0.413872
-0.427874
-0.428698
-0.428444
-0.707581
-0.670459
-0.602815
-0.516189
-0.420265
-0.319239
-0.214816
-0.108746
-0.00370461
0.0958144
0.170413
0.184215
0.077863
-0.0967414
-0.26727
-0.389241
-0.417013
-0.418129
-0.418865
-0.418366
-0.740869
-0.703369
-0.635473
-0.548971
-0.453578
-0.353607
-0.250937
-0.147535
-0.0465664
0.0463465
0.111681
0.107024
-0.0167796
-0.181144
-0.330969
-0.398353
-0.413594
-0.412733
-0.412835
-0.412561
-0.775241
-0.73756
-0.669543
-0.583301
-0.488643
-0.390007
-0.289429
-0.189113
-0.0925658
-0.0066254
0.048772
0.0288833
-0.104646
-0.257017
-0.374599
-0.409399
-0.408563
-0.408408
-0.408087
-0.407886
-0.810233
-0.772468
-0.704515
-0.61873
-0.525074
-0.428087
-0.329994
-0.233214
-0.141466
-0.0622308
-0.0199151
-0.0450922
-0.184459
-0.316398
-0.40242
-0.40848
-0.40838
-0.406957
-0.406056
-0.405549
-0.844829
-0.807159
-0.739592
-0.654572
-0.562273
-0.467325
-0.372133
-0.279364
-0.192888
-0.119828
-0.0887619
-0.122832
-0.253097
-0.361119
-0.410224
-0.419243
-0.413156
-0.410833
-0.409298
-0.408358
-0.877127
-0.840288
-0.773688
-0.689873
-0.599395
-0.506953
-0.415111
-0.326827
-0.246097
-0.179142
-0.153538
-0.207457
-0.312652
-0.397581
-0.422723
-0.422325
-0.418656
-0.41513
-0.414078
-0.413521
-0.905986
-0.870268
-0.805317
-0.723349
-0.635293
-0.545933
-0.45795
-0.374613
-0.299963
-0.2397
-0.218691
-0.288435
-0.368464
-0.413863
-0.441224
-0.437997
-0.431052
-0.427203
-0.427205
-0.426914
-0.92861
-0.894904
-0.832622
-0.753359
-0.668534
-0.582951
-0.499398
-0.421454
-0.353251
-0.300045
-0.283734
-0.365753
-0.436755
-0.43749
-0.444613
-0.468804
-0.478149
-0.48076
-0.480343
-0.478972
-0.942765
-0.91192
-0.8534
-0.778015
-0.697417
-0.616451
-0.537933
-0.46575
-0.404603
-0.35821
-0.343423
-0.44482
-0.556208
-0.541622
-0.54751
-0.575553
-0.598766
-0.596766
-0.586045
-0.582028
-0.945586
-0.918764
-0.865387
-0.795303
-0.720069
-0.644721
-0.571877
-0.505518
-0.452052
-0.412687
-0.399928
-0.5086
-0.726477
-0.83853
-0.762969
-0.696124
-0.665196
-0.652274
-0.64142
-0.638728
-0.934936
-0.91294
-0.866317
-0.803277
-0.734776
-0.666022
-0.59949
-0.53876
-0.492127
-0.463214
-0.449901
-0.542517
-0.722166
-0.96163
-0.834347
-0.671341
-0.610596
-0.594148
-0.59261
-0.591982
-0.907713
-0.891359
-0.854097
-0.800501
-0.740325
-0.678923
-0.619081
-0.564015
-0.52112
-0.500797
-0.482846
-0.500055
-0.400894
-0.394758
-0.36195
-0.458521
-0.517386
-0.51764
-0.51552
-0.513288
-0.867085
-0.856487
-0.829464
-0.787016
-0.736402
-0.683005
-0.629625
-0.579439
-0.537921
-0.520049
-0.502924
-0.413404
-0.17137
0.114316
-0.00323765
-0.258852
-0.402925
-0.431533
-0.442169
-0.448826
-0.819715
-0.813672
-0.797212
-0.765746
-0.724976
-0.67908
-0.631136
-0.584209
-0.543858
-0.514883
-0.518063
-0.496629
-0.530602
-0.634653
-0.867011
-1.01418
-0.980714
-0.862811
-0.757244
-0.752598
-0.775593
-0.772025
-0.763742
-0.7422
-0.709409
-0.669322
-0.625034
-0.579208
-0.534642
-0.507209
-0.506187
-0.604585
-0.933168
-1.31226
-1.51101
-1.69836
-1.73639
-1.6573
-1.52407
-1.43361
-0.741974
-0.73979
-0.735482
-0.721487
-0.694429
-0.657262
-0.613995
-0.564772
-0.514807
-0.468794
-0.43951
-0.521897
-0.819439
-1.32865
-1.64958
-1.58942
-1.34804
-1.10873
-0.927923
-0.838985
-0.715757
-0.714879
-0.71346
-0.705882
-0.683505
-0.647179
-0.600643
-0.546844
-0.48247
-0.406996
-0.323774
-0.253887
-0.269047
-0.223152
-0.0693078
0.173816
0.443927
0.668324
0.803872
0.852086
-0.69978
-0.699352
-0.698798
-0.695149
-0.677269
-0.639989
-0.588179
-0.524453
-0.445297
-0.346922
-0.220208
-0.0390672
0.170871
0.497732
0.947989
1.38242
1.7494
1.98144
2.06847
2.09571
-0.689013
-0.688877
-0.688495
-0.687186
-0.673435
-0.636648
-0.579819
-0.507208
-0.416301
-0.295756
-0.170417
-0.0120066
0.229561
0.65474
1.22381
1.73416
2.10993
2.30709
2.38607
2.40299
-0.681929
-0.68121
-0.678975
-0.677025
-0.669568
-0.639665
-0.581102
-0.496446
-0.397996
-0.277413
-0.148284
-0.0198163
0.208231
0.605961
1.08066
1.50412
1.80698
1.97916
2.04633
2.0621
-0.69113
-0.687678
-0.679456
-0.673622
-0.675887
-0.656689
-0.591789
-0.495243
-0.386442
-0.272248
-0.146542
-0.0420032
0.108509
0.43617
0.801897
1.11315
1.34228
1.46921
1.52111
1.53513
-0.736874
-0.733375
-0.730471
-0.733254
-0.735911
-0.701517
-0.609255
-0.496154
-0.375926
-0.264949
-0.157154
-0.0716576
0.0212543
0.250717
0.534884
0.760809
0.917088
1.00577
1.0437
1.05311
-0.810354
-0.816365
-0.834889
-0.846079
-0.833455
-0.758326
-0.621681
-0.486585
-0.36583
-0.253465
-0.165973
-0.0956411
-0.0287448
0.162623
0.348956
0.493523
0.598564
0.656897
0.680689
0.686254
-0.831919
-0.848456
-0.87305
-0.885444
-0.859567
-0.751798
-0.594559
-0.458636
-0.344103
-0.242236
-0.16819
-0.119533
-0.0819164
0.0398018
0.18163
0.296382
0.364821
0.402986
0.41885
0.422378
-0.700599
-0.71571
-0.737929
-0.749012
-0.719751
-0.623289
-0.506835
-0.399899
-0.302758
-0.222811
-0.160768
-0.114666
-0.086079
0.0137086
0.109653
0.170244
0.213721
0.239079
0.249524
0.251335
-0.437321
-0.447568
-0.463691
-0.475746
-0.464754
-0.422042
-0.368268
-0.307986
-0.247752
-0.190105
-0.141532
-0.0972901
-0.0647388
-0.00483217
0.0691178
0.108201
0.130793
0.142073
0.146407
0.147213
-0.17655
-0.181081
-0.191352
-0.207444
-0.221969
-0.229611
-0.226424
-0.211735
-0.188202
-0.147824
-0.114358
-0.076299
-0.0413222
-0.00323442
0.0370823
0.059754
0.0790853
0.0923447
0.097731
0.0974507
-0.0139399
-0.0162519
-0.0246316
-0.0437178
-0.0727348
-0.102897
-0.124712
-0.135794
-0.133669
-0.114533
-0.0885219
-0.0553708
-0.0266667
0.001788
0.0310111
0.0447605
0.0562642
0.0624124
0.064714
0.06393
0.0535096
0.0519077
0.0449563
0.0273659
-0.00119033
-0.0339859
-0.0632604
-0.0844552
-0.0937485
-0.0892027
-0.0694541
-0.0423394
-0.0172576
-0.0097185
0.00486214
0.0175428
0.0302876
0.0392587
0.0411794
0.039956
0.0666975
0.0654828
0.0602416
0.046854
0.0243479
-0.00281111
-0.0301287
-0.0530294
-0.0681723
-0.0719259
-0.062278
-0.0405215
-0.0205354
-0.0217303
-0.0167152
-0.00829669
0.0016934
0.00804634
0.00951077
0.00808164
0.0574936
0.0566272
0.0529625
0.0435701
0.0274037
0.00652927
-0.015927
-0.0373566
-0.0547484
-0.065342
-0.0666799
-0.0582986
-0.0481137
-0.053469
-0.0529653
-0.0437075
-0.0341687
-0.0293374
-0.0285213
-0.0302306
0.0417758
0.0411815
0.0386829
0.0322812
0.0209817
0.00561639
-0.0123851
-0.0311024
-0.0496561
-0.0669007
-0.0817728
-0.0944473
-0.104413
-0.113406
-0.107337
-0.0956827
-0.0847964
-0.0802334
-0.0792802
-0.0804572
0.026143
0.0257457
0.0240657
0.0197508
0.0118974
0.000687992
-0.0133169
-0.0296234
-0.048414
-0.0714067
-0.101063
-0.137725
-0.171215
-0.174732
-0.156715
-0.140971
-0.132835
-0.131383
-0.131711
-0.13218
0.0130532
0.012768
0.0116583
0.00879513
0.00342688
-0.00466837
-0.0155137
-0.0292573
-0.0472611
-0.0730747
-0.113073
-0.170483
-0.215462
-0.21088
-0.186413
-0.170414
-0.166111
-0.166903
-0.167482
-0.167284
0.0033027
0.00308453
0.0023567
0.000556469
-0.00297931
-0.00855389
-0.0166194
-0.0274685
-0.0427697
-0.0672032
-0.106798
-0.164001
-0.201954
-0.18856
-0.17121
-0.164039
-0.166512
-0.170458
-0.171319
-0.170867
-0.0030825
-0.00323552
-0.00368751
-0.0047003
-0.00679893
-0.0103317
-0.0158263
-0.0235777
-0.0351185
-0.0530299
-0.0815422
-0.121479
-0.140317
-0.127921
-0.122481
-0.127385
-0.135025
-0.140545
-0.141525
-0.14124
-0.006424
-0.00654348
-0.00676519
-0.00719298
-0.00817941
-0.0100224
-0.0131524
-0.0175748
-0.024123
-0.0329081
-0.0440829
-0.0589115
-0.061697
-0.0551891
-0.0604135
-0.0736686
-0.084285
-0.0892722
-0.0897929
-0.0896368
-0.00722312
-0.0073175
-0.00740475
-0.00746844
-0.00770413
-0.00836374
-0.00952351
-0.0109613
-0.0124197
-0.0117425
-0.00415103
0.00785334
0.0264793
0.0283889
0.00828416
-0.0120815
-0.0231742
-0.026842
-0.0274398
-0.0276912
-0.00630951
-0.00635831
-0.00636403
-0.00623711
-0.00602711
-0.00597126
-0.0057541
-0.00519025
-0.0028198
0.00503742
0.027061
0.0656971
0.100201
0.0913883
0.0633679
0.0416949
0.0341012
0.0323056
0.0309577
0.0299391
-0.00453234
-0.00456692
-0.00453735
-0.0043538
-0.00399601
-0.00359234
-0.00286524
-0.00145546
0.00263612
0.0130012
0.0392727
0.0818284
0.118831
0.105395
0.0811322
0.0685458
0.0650707
0.0659842
0.0644531
0.062789
-0.00245363
-0.00248306
-0.00246306
-0.00231879
-0.00205078
-0.00164595
-0.00102783
0.000182216
0.00333854
0.0112979
0.0313437
0.0636573
0.0864341
0.0723139
0.0579812
0.0555561
0.0572678
0.0594177
0.0575263
0.0558558
-0.000364915
-0.00038014
-0.000368973
-0.00039311
-0.000401266
-0.000350956
-0.000248893
-1.68892e-05
0.000416895
0.00151402
0.0045291
0.0122281
0.0186385
0.0206178
0.0167364
0.0184863
0.0179185
0.0164226
0.0128262
0.0124798
-0.0408173
0.148971
0.323652
0.472322
0.592627
0.688862
0.769576
0.835176
0.852062
0.848191
0.253116
0.375621
0.490671
0.591129
0.676228
0.746897
0.802717
0.840442
0.86056
0.877056
0.452886
0.534801
0.615982
0.687525
0.748775
0.799657
0.839698
0.870112
0.89288
0.912113
0.600584
0.658427
0.717336
0.770321
0.816055
0.8549
0.887415
0.914614
0.935059
0.953962
0.718078
0.762156
0.80615
0.847021
0.883411
0.915521
0.943561
0.96728
0.985322
1.00337
0.817848
0.85358
0.8888
0.922782
0.954102
0.982428
1.00742
1.02836
1.0442
1.06168
0.906177
0.93845
0.970834
1.00211
1.03122
1.05768
1.08087
1.09986
1.11382
1.13084
0.993418
1.0261
1.05861
1.08988
1.11871
1.14455
1.16673
1.1843
1.19672
1.21325
1.08796
1.1244
1.15921
1.19172
1.22094
1.24634
1.2675
1.28381
1.29545
1.3116
1.20108
1.24164
1.27871
1.31173
1.34027
1.36429
1.38395
1.39924
1.41115
1.42723
1.34245
1.38359
1.41887
1.4485
1.47373
1.49537
1.51388
1.52938
1.5425
1.55846
1.51407
1.54657
1.57343
1.59575
1.61584
1.63457
1.65232
1.6691
1.68401
1.69974
1.70046
1.71775
1.73488
1.75156
1.76766
1.7824
1.7963
1.81079
1.82603
1.84333
1.88384
1.89384
1.90704
1.91803
1.92744
1.9371
1.94771
1.95789
1.96719
1.99285
2.10177
2.09607
2.08313
2.06887
2.06257
2.06829
2.08643
2.11495
2.14872
2.18505
2.40459
2.26863
2.18913
2.14662
2.1293
2.13328
2.16071
2.21857
2.32624
2.50464
0.708481
0.702177
0.694444
0.683323
0.669743
0.657081
0.646665
0.638626
0.632873
0.629497
0.629091
0.631875
0.637068
0.644397
0.653926
0.665742
0.679295
0.692218
0.701203
0.708742
0.617565
0.623483
0.63155
0.637675
0.640734
0.640209
0.637104
0.633081
0.629455
0.627123
0.626933
0.629134
0.632847
0.637263
0.641344
0.643574
0.64249
0.637846
0.630787
0.622951
0.61084
0.613212
0.616475
0.619239
0.621677
0.62385
0.625008
0.624831
0.623853
0.622995
0.623151
0.624509
0.626247
0.627443
0.627344
0.625859
0.623688
0.621316
0.618327
0.615306
0.606086
0.607175
0.609086
0.611414
0.613272
0.614652
0.615845
0.616803
0.617358
0.617677
0.618164
0.618847
0.619266
0.61911
0.618453
0.617509
0.616162
0.614181
0.612065
0.610584
0.60111
0.601744
0.602867
0.604614
0.606442
0.608014
0.609236
0.61026
0.611189
0.612019
0.612728
0.613179
0.613261
0.61301
0.612439
0.611438
0.60999
0.608364
0.607016
0.606212
0.596246
0.596685
0.597468
0.59876
0.600263
0.601802
0.603246
0.604496
0.605588
0.606595
0.607457
0.607977
0.608089
0.6078
0.607094
0.606062
0.604882
0.603718
0.602802
0.602266
0.591486
0.591814
0.592421
0.593477
0.594752
0.596123
0.597563
0.598984
0.600305
0.601515
0.602555
0.603198
0.603341
0.603029
0.602379
0.601552
0.600672
0.599793
0.599116
0.598722
0.586809
0.587064
0.587552
0.588449
0.589599
0.590876
0.592253
0.593719
0.595216
0.596673
0.597943
0.598734
0.598969
0.598786
0.598336
0.597734
0.597056
0.596396
0.595896
0.595595
0.582145
0.582348
0.582754
0.58354
0.584609
0.585834
0.587193
0.588696
0.590324
0.592006
0.593544
0.594572
0.59502
0.595057
0.594829
0.594437
0.593954
0.593477
0.593114
0.592876
0.577413
0.577577
0.577924
0.578637
0.579659
0.580862
0.582245
0.583823
0.585593
0.587513
0.58937
0.590727
0.591472
0.591777
0.591782
0.591601
0.591313
0.590999
0.590747
0.590558
0.572533
0.572666
0.572972
0.573639
0.574641
0.575864
0.577306
0.578998
0.580957
0.583161
0.585405
0.587179
0.588289
0.588904
0.589174
0.58922
0.589125
0.588967
0.588808
0.588655
0.567417
0.567525
0.567803
0.568451
0.569468
0.570755
0.572301
0.574163
0.576381
0.578962
0.581691
0.583954
0.585484
0.586453
0.587018
0.587301
0.587402
0.587398
0.587321
0.587196
0.561979
0.562065
0.562327
0.562979
0.564049
0.565443
0.56715
0.56925
0.571811
0.574863
0.578186
0.581047
0.583071
0.584445
0.585337
0.585896
0.586211
0.586347
0.586341
0.586238
0.556118
0.556185
0.55644
0.55712
0.558279
0.559827
0.561761
0.564183
0.56719
0.570841
0.574895
0.578467
0.581075
0.582917
0.584179
0.585042
0.585587
0.585875
0.585936
0.585851
0.549711
0.549759
0.550015
0.550746
0.552035
0.553792
0.556021
0.558848
0.562406
0.566791
0.571739
0.57618
0.579494
0.581897
0.583601
0.584803
0.585614
0.586061
0.586189
0.58612
0.542619
0.542647
0.542911
0.543713
0.545172
0.5472
0.549809
0.553151
0.557398
0.562685
0.568723
0.574217
0.578382
0.581455
0.583675
0.585278
0.586393
0.587016
0.587211
0.587155
0.53465
0.534667
0.534932
0.535834
0.537515
0.539892
0.54299
0.546992
0.552115
0.558529
0.565899
0.572655
0.577819
0.581672
0.584502
0.586583
0.58804
0.588853
0.589118
0.589072
0.525509
0.525501
0.525819
0.526861
0.528836
0.531664
0.535384
0.540224
0.546449
0.554269
0.56326
0.571522
0.577866
0.582633
0.586182
0.588831
0.59068
0.591706
0.592043
0.592005
0.514932
0.514901
0.515266
0.516492
0.518832
0.522235
0.526748
0.532638
0.540236
0.54979
0.560762
0.570818
0.578568
0.584433
0.588838
0.592147
0.594453
0.595716
0.596128
0.596096
0.502436
0.502382
0.502821
0.504292
0.507107
0.511259
0.5168
0.524055
0.533388
0.545068
0.558433
0.570658
0.580057
0.587193
0.592595
0.596666
0.599498
0.601021
0.60151
0.601479
0.487398
0.487321
0.487879
0.48969
0.493143
0.498297
0.50521
0.514255
0.525848
0.540238
0.55649
0.571189
0.582461
0.59105
0.5976
0.602541
0.605958
0.607756
0.608316
0.60828
0.468901
0.468805
0.469555
0.471861
0.476203
0.482749
0.491531
0.502952
0.517418
0.535102
0.554788
0.572402
0.585838
0.596086
0.603942
0.609876
0.613939
0.616016
0.616634
0.616587
0.445517
0.445417
0.446497
0.449571
0.455249
0.463825
0.475254
0.489922
0.50815
0.529925
0.553635
0.574512
0.590324
0.602397
0.611705
0.618747
0.623492
0.625831
0.626485
0.626416
0.414927
0.414872
0.416549
0.420962
0.428901
0.440657
0.456016
0.475185
0.498255
0.524968
0.55326
0.577708
0.596075
0.610105
0.620948
0.629174
0.634579
0.637123
0.63777
0.637667
0.373016
0.373158
0.376137
0.383332
0.395489
0.412474
0.433635
0.458852
0.487916
0.520357
0.553737
0.582029
0.603089
0.619152
0.631621
0.641046
0.647008
0.649627
0.650205
0.650057
0.312113
0.313405
0.320663
0.334267
0.354156
0.379466
0.408828
0.441757
0.477925
0.516785
0.555564
0.587759
0.611493
0.629535
0.643531
0.654
0.660336
0.662817
0.663229
0.663046
0.238988
0.241546
0.255687
0.279184
0.309687
0.344897
0.383186
0.424324
0.46811
0.514096
0.559254
0.59642
0.623779
0.644579
0.660576
0.672245
0.67896
0.681474
0.681913
0.681838
0.163974
0.170795
0.19205
0.225445
0.26629
0.311161
0.358392
0.407837
0.459385
0.512629
0.564336
0.606636
0.637706
0.661394
0.679581
0.692397
0.699258
0.701541
0.701876
0.70188
0.102858
0.111517
0.137409
0.177854
0.226811
0.279891
0.335202
0.392449
0.451406
0.511611
0.569542
0.616671
0.651163
0.677372
0.697383
0.711203
0.718229
0.720466
0.721021
0.721114
0.0527486
0.0621149
0.0915268
0.137229
0.192325
0.251989
0.314115
0.378239
0.443962
0.510684
0.574493
0.626162
0.663857
0.692391
0.71409
0.72896
0.736563
0.7393
0.73998
0.740107
0.0106553
0.0203363
0.0521666
0.101994
0.162129
0.227271
0.295166
0.365269
0.437047
0.509745
0.579035
0.634939
0.675619
0.706364
0.729688
0.745725
0.754117
0.757208
0.757978
0.758098
-0.025856
-0.016019
0.0176476
0.0707785
0.135116
0.204956
0.277876
0.353265
0.430499
0.508674
0.583071
0.64293
0.686356
0.719076
0.743826
0.760847
0.769951
0.773341
0.774218
0.77434
-0.0584295
-0.0485131
-0.0133833
0.0424868
0.110391
0.184294
0.261661
0.341818
0.424057
0.507329
0.586507
0.650092
0.696022
0.730486
0.756459
0.774253
0.783896
0.787636
0.788574
0.788689
-0.0882804
-0.0782986
-0.0419857
0.0162707
0.0872724
0.164725
0.246051
0.330545
0.417412
0.505497
0.589244
0.656356
0.70463
0.740665
0.767691
0.786049
0.796083
0.800047
0.801022
0.801118
-0.116317
-0.106259
-0.0688475
-0.00847571
0.0652479
0.145833
0.2307
0.319151
0.41033
0.502992
0.591181
0.661706
0.712237
0.749728
0.777586
0.796315
0.806525
0.810641
0.811658
0.811732
-0.143085
-0.132901
-0.0944782
-0.0322057
0.0439389
0.127319
0.215381
0.307449
0.402648
0.49968
0.592209
0.666152
0.718935
0.757822
0.786349
0.805303
0.815603
0.819763
0.820799
0.820867
-0.168969
-0.158607
-0.11923
-0.0552167
0.023096
0.108985
0.199935
0.295311
0.394259
0.495463
0.592266
0.669707
0.724828
0.765118
0.794256
0.813407
0.823766
0.827915
0.828904
0.828906
-0.194223
-0.183605
-0.143314
-0.0776987
0.00257071
0.0907047
0.184271
0.282674
0.385098
0.49028
0.591325
0.672396
0.730004
0.771743
0.801485
0.820798
0.831155
0.835236
0.836169
0.836156
-0.218904
-0.208016
-0.166852
-0.0997577
-0.0177197
0.0724336
0.168355
0.269512
0.375149
0.484094
0.589352
0.674235
0.734529
0.777818
0.808198
0.827654
0.837949
0.841892
0.842727
0.842668
-0.243103
-0.231929
-0.189914
-0.121425
-0.0378016
0.0541545
0.15219
0.255838
0.364421
0.476906
0.586316
0.675193
0.738435
0.783465
0.814559
0.834108
0.844219
0.847939
0.848628
0.848516
-0.266818
-0.255352
-0.212481
-0.142706
-0.0576657
0.0358969
0.135822
0.241703
0.352954
0.468724
0.582188
0.675203
0.741707
0.78879
0.820739
0.840298
0.850035
0.85339
0.853903
0.853749
-0.290093
-0.278266
-0.234525
-0.163576
-0.0772764
0.0177088
0.119308
0.227175
0.340811
0.459584
0.576938
0.674178
0.744277
0.793867
0.826956
0.846435
0.855506
0.858295
0.85859
0.858403
-0.312683
-0.300611
-0.256016
-0.184001
-0.0965751
-0.000328159
0.102722
0.212333
0.328076
0.449551
0.570543
0.672027
0.746027
0.798684
0.833449
0.852911
0.860915
0.862751
0.86271
0.862503
-0.334744
-0.322323
-0.276913
-0.203943
-0.115519
-0.0181653
0.0861656
0.197268
0.314842
0.438711
0.56301
0.668651
0.746795
0.803089
0.840356
0.86032
0.866967
0.867129
0.866335
0.866107
-0.356086
-0.343357
-0.297193
-0.223343
-0.134019
-0.0357105
0.0697273
0.182105
0.301221
0.42714
0.554374
0.663959
0.746396
0.806782
0.847508
0.869223
0.875068
0.87284
0.870078
0.869364
-0.376804
-0.363736
-0.316792
-0.242139
-0.152031
-0.0528905
0.0534979
0.16693
0.287328
0.414976
0.544705
0.657855
0.744641
0.809358
0.85424
0.879446
0.886674
0.88319
0.876763
0.867303
-0.39678
-0.38345
-0.335803
-0.260497
-0.169783
-0.0700004
0.037126
0.15132
0.272689
0.40169
0.533455
0.649718
0.741027
0.810397
0.859667
0.889825
0.901557
0.898876
0.888339
0.885807
-0.415965
-0.40258
-0.354219
-0.27835
-0.187245
-0.0870123
0.0206487
0.135261
0.257277
0.387165
0.520456