/*--------------------------------*- C++ -*----------------------------------*\
  =========                 |
  \\      /  F ield         | OpenFOAM: The Open Source CFD Toolbox
   \\    /   O peration     | Website:  https://openfoam.org
    \\  /    A nd           | Version:  6
     \\/     M anipulation  |
\*---------------------------------------------------------------------------*/
FoamFile
{
    version     2.0;
    format      ascii;
    class       volScalarField;
    location    "95.4";
    object      p;
}
// * * * * * * * * * * * * * * * * * * * * * * * * * * * * * * * * * * * * * //

dimensions      [0 2 -2 0 0 0 0];

internalField   nonuniform List<scalar> 
8800
(
0.872276
0.822962
0.784999
0.756932
0.736775
0.722193
0.711603
0.704074
0.699204
0.697155
0.698548
0.70291
0.709718
0.719154
0.731899
0.749226
0.773108
0.806208
0.849147
0.901662
0.706765
0.71311
0.722262
0.725813
0.723208
0.717124
0.710191
0.703959
0.699171
0.69632
0.696112
0.698762
0.703423
0.709565
0.716675
0.723717
0.728602
0.728482
0.721811
0.712915
0.680269
0.686506
0.691009
0.694884
0.697837
0.698793
0.697714
0.695605
0.693642
0.692826
0.693885
0.696362
0.699267
0.701552
0.702084
0.700304
0.696945
0.692937
0.68816
0.684444
0.675951
0.678718
0.681328
0.68349
0.685234
0.68681
0.687924
0.688292
0.6882
0.688325
0.689161
0.690332
0.691096
0.690964
0.690004
0.68866
0.687
0.684704
0.682298
0.680732
0.670872
0.672298
0.674142
0.676228
0.677948
0.679251
0.680363
0.681362
0.682196
0.682966
0.683714
0.684209
0.684261
0.68392
0.68327
0.68217
0.680525
0.67864
0.677292
0.676489
0.665851
0.666755
0.668006
0.66964
0.671343
0.672888
0.67419
0.675335
0.67643
0.677489
0.678321
0.678753
0.678799
0.67846
0.67768
0.676511
0.675165
0.673911
0.673095
0.672571
0.660904
0.66156
0.662527
0.663853
0.665313
0.666846
0.668352
0.669745
0.671046
0.672302
0.673311
0.673858
0.673922
0.673522
0.672772
0.671854
0.670883
0.669992
0.669419
0.669034
0.656026
0.656532
0.657323
0.658475
0.65979
0.661228
0.662763
0.66434
0.6659
0.667419
0.668647
0.669323
0.66946
0.669187
0.668662
0.668006
0.667295
0.66665
0.66623
0.66593
0.651162
0.651564
0.65223
0.653265
0.654514
0.655904
0.657442
0.659127
0.660916
0.66274
0.664247
0.665139
0.665488
0.665461
0.665191
0.664766
0.66427
0.663824
0.663517
0.663272
0.646227
0.646555
0.647135
0.648095
0.649304
0.650691
0.652275
0.654075
0.656082
0.658232
0.660102
0.661329
0.661992
0.662252
0.662239
0.662058
0.66177
0.66149
0.661268
0.661062
0.641131
0.641402
0.641925
0.642842
0.644043
0.645467
0.647143
0.649105
0.65137
0.653901
0.656225
0.657884
0.658925
0.659512
0.659781
0.659848
0.659771
0.659643
0.65949
0.659311
0.63578
0.636008
0.636493
0.6374
0.638633
0.640138
0.641949
0.644132
0.646729
0.649734
0.652612
0.654786
0.656269
0.657233
0.657821
0.658143
0.658292
0.658306
0.65821
0.65805
0.630075
0.630269
0.630737
0.631663
0.632969
0.634602
0.636606
0.63908
0.6421
0.64569
0.64924
0.652029
0.654032
0.65543
0.656382
0.657006
0.657381
0.657526
0.657478
0.65733
0.623908
0.624074
0.624542
0.625515
0.626936
0.628749
0.631015
0.633866
0.637415
0.641724
0.646086
0.649611
0.65223
0.654134
0.655505
0.656468
0.657088
0.657366
0.65736
0.657218
0.617148
0.617292
0.617775
0.618824
0.620405
0.622459
0.625067
0.628395
0.6326
0.637786
0.64313
0.647536
0.650886
0.653387
0.655237
0.656587
0.657486
0.657903
0.657934
0.657795
0.609646
0.609766
0.610278
0.611435
0.613227
0.615593
0.618636
0.622561
0.627575
0.633829
0.640354
0.64581
0.650026
0.653233
0.655656
0.657456
0.658666
0.659226
0.659292
0.65915
0.601208
0.601311
0.601857
0.603154
0.605219
0.607981
0.611569
0.616238
0.622248
0.629801
0.637742
0.644448
0.649685
0.653723
0.656835
0.659161
0.660722
0.661432
0.661528
0.66138
0.591545
0.59165
0.592265
0.593735
0.596152
0.599414
0.603686
0.60928
0.616517
0.625646
0.635282
0.643465
0.649907
0.654925
0.658843
0.661787
0.663745
0.664611
0.664734
0.664576
0.580364
0.580445
0.581146
0.582871
0.585733
0.589631
0.594766
0.601518
0.610267
0.621308
0.632964
0.642883
0.650735
0.656903
0.661753
0.665424
0.667819
0.668843
0.668984
0.668812
0.567241
0.567309
0.568121
0.570161
0.573589
0.578303
0.58454
0.59275
0.603374
0.616735
0.630786
0.642728
0.652206
0.659709
0.665644
0.670137
0.673001
0.674172
0.674321
0.674132
0.551581
0.551642
0.552605
0.555067
0.55924
0.56502
0.572683
0.582755
0.595718
0.611889
0.628759
0.643031
0.654362
0.663386
0.67055
0.675955
0.679299
0.680591
0.680733
0.680525
0.532548
0.532604
0.533792
0.536848
0.542038
0.549257
0.558815
0.571303
0.587205
0.606769
0.626914
0.643824
0.657235
0.667956
0.67647
0.682862
0.686652
0.688015
0.68813
0.687901
0.508908
0.508969
0.51051
0.514462
0.521116
0.530356
0.542514
0.558195
0.577798
0.601429
0.625318
0.645152
0.660842
0.673415
0.683378
0.690758
0.694901
0.696257
0.696321
0.696076
0.478733
0.478826
0.480982
0.48639
0.495342
0.507565
0.523406
0.54334
0.567573
0.595996
0.624083
0.64708
0.665195
0.679711
0.691193
0.699455
0.70377
0.705016
0.705009
0.704753
0.438758
0.43899
0.44242
0.450519
0.463361
0.480232
0.501338
0.526876
0.556769
0.590692
0.62336
0.649694
0.670299
0.686792
0.699746
0.708654
0.712876
0.713894
0.713804
0.713549
0.38276
0.383937
0.390801
0.404524
0.424177
0.448248
0.476662
0.509277
0.545812
0.585819
0.623324
0.653077
0.676164
0.694556
0.708795
0.717961
0.721747
0.72245
0.722287
0.722045
0.301718
0.309681
0.325507
0.349567
0.379412
0.413126
0.450423
0.491116
0.534953
0.581512
0.624162
0.657568
0.683341
0.703757
0.718956
0.727948
0.731083
0.731471
0.731268
0.731068
0.215312
0.232783
0.258499
0.293662
0.334254
0.377724
0.423876
0.472705
0.524065
0.57763
0.626074
0.663736
0.692723
0.715337
0.731302
0.739402
0.741571
0.741675
0.741506
0.741383
0.141105
0.162488
0.196456
0.241121
0.291222
0.343878
0.398639
0.455432
0.514086
0.574277
0.628022
0.66946
0.701194
0.725513
0.741567
0.74851
0.749965
0.749971
0.749842
0.749755
0.0801231
0.103886
0.143517
0.195002
0.252512
0.312818
0.375141
0.439197
0.504615
0.570952
0.629542
0.674327
0.708368
0.733941
0.74986
0.756023
0.757133
0.757105
0.756997
0.756922
0.029447
0.0546447
0.0983693
0.155141
0.218567
0.28513
0.353853
0.424269
0.495776
0.567734
0.63075
0.678557
0.714618
0.741215
0.756965
0.762546
0.763458
0.763412
0.763315
0.76324
-0.0135304
0.0125072
0.0592532
0.120299
0.188679
0.260566
0.334801
0.410807
0.487786
0.564876
0.63195
0.682478
0.72029
0.747673
0.763181
0.768331
0.769139
0.769095
0.769006
0.768926
-0.0508882
-0.0243096
0.0247864
0.0893722
0.161986
0.238513
0.317643
0.398685
0.480678
0.562524
0.633352
0.686326
0.725605
0.753522
0.768729
0.773566
0.774332
0.774314
0.774242
0.774157
-0.0841486
-0.0571604
-0.00614085
0.061465
0.137758
0.21838
0.301927
0.387608
0.474291
0.560656
0.635037
0.690268
0.730798
0.759042
0.773904
0.778494
0.779256
0.779294
0.779261
0.779174
-0.114377
-0.0870287
-0.0343841
0.0358629
0.11541
0.199687
0.287253
0.377246
0.468398
0.559147
0.637011
0.694415
0.736092
0.76456
0.779071
0.78345
0.784226
0.784336
0.784358
0.784278
-0.142421
-0.114705
-0.0606112
0.0120259
0.0944742
0.182044
0.273289
0.367321
0.462771
0.557848
0.639243
0.698856
0.741687
0.770379
0.784581
0.788778
0.789556
0.789736
0.789819
0.789753
-0.168718
-0.140669
-0.0852533
-0.0104744
0.0745866
0.165144
0.259778
0.357601
0.457206
0.55663
0.641687
0.703641
0.747711
0.776687
0.790667
0.794703
0.795462
0.795678
0.795807
0.795757
-0.193787
-0.165327
-0.10869
-0.0319564
0.0554685
0.148743
0.246513
0.347904
0.451525
0.555345
0.64427
0.708775
0.754198
0.783566
0.797353
0.801246
0.801944
0.80216
0.802311
0.802279
-0.217803
-0.18893
-0.131148
-0.0526407
0.0369199
0.132676
0.233336
0.338082
0.445578
0.553838
0.6469
0.71422
0.761126
0.790901
0.804536
0.808263
0.808867
0.809046
0.809194
0.809175
-0.240951
-0.211645
-0.1528
-0.0726732
0.0188187
0.116827
0.220139
0.328014
0.439236
0.551949
0.649428
0.71992
0.768471
0.798622
0.812024
0.815513
0.815989
0.816105
0.816232
0.816234
-0.263368
-0.233593
-0.173743
-0.0921394
0.00107743
0.101124
0.206858
0.31763
0.432388
0.549521
0.651693
0.72581
0.776253
0.80668
0.819618
0.822736
0.823055
0.8231
0.823192
0.823202
-0.285157
-0.254866
-0.194025
-0.111086
-0.0163313
0.0855319
0.19346
0.306886
0.424958
0.546409
0.653515
0.731781
0.784539
0.815168
0.827235
0.829714
0.829825
0.829833
0.829897
0.829897
-0.306226
-0.275446
-0.213662
-0.129547
-0.0334258
0.0700584
0.179938
0.295774
0.416909
0.542514
0.654698
0.737687
0.793392
0.824385
0.835143
0.836395
0.836103
0.836154
0.836295
0.836282
-0.326583
-0.29534
-0.232681
-0.14752
-0.0501936
0.054716
0.166328
0.284303
0.408235
0.537745
0.655057
0.74332
0.802822
0.834741
0.84396
0.843222
0.841898
0.842032
0.842607
0.842745
-0.34631
-0.314544
-0.251094
-0.165005
-0.0666058
0.0395488
0.152673
0.272521
0.398951
0.532061
0.654401
0.748425
0.81268
0.846553
0.854754
0.851526
0.848122
0.847961
0.849555
0.850607
-0.365291
-0.333053
-0.268871
-0.18196
-0.0826331
0.0246113
0.139036
0.260491
0.389111
0.525465
0.652572
0.752684
0.822638
0.859756
0.868311
0.86333
0.857257
0.855052
0.856124
0.857194
-0.38362
-0.3509
-0.28603
-0.198435
-0.0983252
0.00985225
0.125354
0.248146
0.378631
0.517871
0.649381
0.755796
0.832418
0.874024
0.884703
0.879839
0.871628
0.863826
0.855509
0.858162
-0.401243
-0.368151
-0.302717
-0.214626
-0.113975
-0.00504706
0.111231
0.235032
0.367016
0.508723
0.64428
0.757156
0.841848
0.889267
0.903264
0.900378
0.889658
0.874578
0.852504
0.854673
-0.41805
-0.384797
-0.318788
-0.230358
-0.129333
-0.0198034
0.0968431
0.221431
0.354494
0.498146
0.637085
0.755689
0.849528
0.903815
0.919826
0.917294
0.90412
0.872757
0.816486
0.793082
-0.433943
-0.401848
-0.333851
-0.245199
-0.143601
-0.03393
0.0824691
0.207614
0.341334
0.48628
0.627744
0.750573
0.853739
0.915765
0.928599
0.92029
0.894173
0.836
0.773343
0.735562
-0.475744
-0.418668
-0.347606
-0.26011
-0.15755
-0.0484284
0.0682564
0.193443
0.327299
0.472707
0.61568
0.740851
0.850475
0.919567
0.925061
0.895818
0.833894
0.760678
0.689247
0.649791
-0.449499
-0.430758
-0.368468
-0.280324
-0.179229
-0.0702484
0.0458842
0.170693
0.304127
0.449029
0.592001
0.717435
0.820891
0.897428
0.867769
0.742593
0.641833
0.57185
0.503872
0.525551
-0.4793
-0.447455
-0.384288
-0.296586
-0.195853
-0.0869731
0.0294524
0.153763
0.286438
0.430041
0.571071
0.693501
0.785738
0.828439
0.761681
0.60832
0.489671
0.409609
0.323713
0.363356
-0.502105
-0.46796
-0.403106
-0.315354
-0.214664
-0.105754
0.0106347
0.134269
0.265767
0.407263
0.544746
0.661193
0.741169
0.745733
0.623815
0.457602
0.320328
0.221418
0.12268
0.148562
-0.524137
-0.489026
-0.422877
-0.334507
-0.233745
-0.124931
-0.0090195
0.113724
0.243734
0.382558
0.515155
0.622231
0.684559
0.655109
0.482752
0.296971
0.130794
-0.00778497
-0.135437
-0.128558
-0.545798
-0.510377
-0.443393
-0.354481
-0.253609
-0.145019
-0.0297621
0.0918872
0.220036
0.355614
0.482132
0.579399
0.620241
0.540523
0.343371
0.139196
-0.0520851
-0.20927
-0.415573
-0.495781
-0.567776
-0.53249
-0.465053
-0.375788
-0.274803
-0.166425
-0.0517947
0.0686692
0.194736
0.326628
0.446282
0.534003
0.546153
0.415328
0.215602
0.000879932
-0.194665
-0.357764
-0.481476
-0.596059
-0.591135
-0.555842
-0.488213
-0.39881
-0.297867
-0.189826
-0.0759538
0.043093
0.166642
0.294113
0.406164
0.480374
0.463128
0.296226
0.0956944
-0.112615
-0.291416
-0.39002
-0.416043
-0.429228
-0.616013
-0.580729
-0.512998
-0.423636
-0.322944
-0.215447
-0.102622
0.0146327
0.135115
0.25725
0.361106
0.415941
0.378233
0.18158
-0.016547
-0.204455
-0.339721
-0.378199
-0.38677
-0.387106
-0.642698
-0.607279
-0.539453
-0.450253
-0.349986
-0.243303
-0.131836
-0.0167852
0.100067
0.216034
0.310845
0.347751
0.275196
0.0763114
-0.114991
-0.278255
-0.354291
-0.368429
-0.369472
-0.369344
-0.671194
-0.635526
-0.567602
-0.478669
-0.379021
-0.273398
-0.163621
-0.0511955
0.0615005
0.170589
0.255029
0.27556
0.163716
-0.0197038
-0.19998
-0.329181
-0.358577
-0.359277
-0.359892
-0.359501
-0.701255
-0.665315
-0.597355
-0.508812
-0.409974
-0.305693
-0.197965
-0.0885906
0.0194692
0.12104
0.194921
0.195522
0.0653691
-0.107328
-0.266531
-0.340901
-0.355796
-0.354039
-0.353801
-0.35344
-0.732331
-0.696301
-0.628456
-0.54046
-0.442666
-0.34004
-0.234732
-0.128859
-0.0258075
0.0678459
0.130966
0.11501
-0.0244313
-0.18398
-0.311556
-0.350201
-0.349505
-0.349605
-0.34934
-0.349043
-0.763978
-0.727954
-0.66042
-0.573201
-0.476753
-0.376121
-0.273639
-0.171726
-0.0740333
0.0120042
0.0620194
0.0392836
-0.104833
-0.244491
-0.338517
-0.346534
-0.347235
-0.34714
-0.346877
-0.346616
-0.795225
-0.759411
-0.69253
-0.606405
-0.511683
-0.413459
-0.314219
-0.216695
-0.124771
-0.0456231
-0.00683753
-0.036342
-0.172735
-0.287188
-0.344294
-0.354034
-0.347861
-0.346468
-0.345904
-0.34559
-0.824379
-0.789398
-0.72375
-0.639188
-0.546678
-0.451342
-0.355794
-0.263015
-0.177221
-0.104581
-0.0704578
-0.113822
-0.226995
-0.319756
-0.342511
-0.345575
-0.346292
-0.345721
-0.345371
-0.345165
-0.850242
-0.816412
-0.752689
-0.670351
-0.580675
-0.488824
-0.39748
-0.309744
-0.230143
-0.16433
-0.132227
-0.180727
-0.267257
-0.337854
-0.359337
-0.348589
-0.345233
-0.344267
-0.34403
-0.343938
-0.870177
-0.83836
-0.777593
-0.698374
-0.612357
-0.524714
-0.438157
-0.355804
-0.282237
-0.223005
-0.193508
-0.232986
-0.29358
-0.337121
-0.343375
-0.344129
-0.343055
-0.342865
-0.342908
-0.342838
-0.882156
-0.85315
-0.796402
-0.72152
-0.640198
-0.557626
-0.476497
-0.399953
-0.332341
-0.278022
-0.249779
-0.276464
-0.310438
-0.331913
-0.334638
-0.340881
-0.3436
-0.344169
-0.344288
-0.344235
-0.883501
-0.858417
-0.807027
-0.737946
-0.662567
-0.58609
-0.511083
-0.440689
-0.379203
-0.328813
-0.297166
-0.316399
-0.331179
-0.341457
-0.346186
-0.347267
-0.347916
-0.347904
-0.347785
-0.347725
-0.871863
-0.851552
-0.807342
-0.745919
-0.677998
-0.608729
-0.54059
-0.476464
-0.421129
-0.376624
-0.332486
-0.356474
-0.354307
-0.376154
-0.367155
-0.35667
-0.352393
-0.350913
-0.350377
-0.350216
-0.845049
-0.830209
-0.795512
-0.744225
-0.685442
-0.624566
-0.56396
-0.506242
-0.456325
-0.419138
-0.3715
-0.367507
-0.358566
-0.370308
-0.35609
-0.350488
-0.3485
-0.348452
-0.348721
-0.348747
-0.806519
-0.797061
-0.772744
-0.733146
-0.684939
-0.633341
-0.58068
-0.529438
-0.484096
-0.452388
-0.420244
-0.38381
-0.333723
-0.320258
-0.338682
-0.346632
-0.349017
-0.3517
-0.353855
-0.354379
-0.763312
-0.75792
-0.743963
-0.715782
-0.678585
-0.635935
-0.590891
-0.545712
-0.504297
-0.473319
-0.445009
-0.409741
-0.367513
-0.330845
-0.328003
-0.347239
-0.372807
-0.387882
-0.392679
-0.393375
-0.725258
-0.721966
-0.715322
-0.697446
-0.669255
-0.634192
-0.595582
-0.555174
-0.515898
-0.484158
-0.45721
-0.447169
-0.455618
-0.494576
-0.516699
-0.535088
-0.52568
-0.497073
-0.480114
-0.481574
-0.697879
-0.695927
-0.692544
-0.682001
-0.660614
-0.631179
-0.596712
-0.558682
-0.519553
-0.483635
-0.456461
-0.452441
-0.50878
-0.60143
-0.687308
-0.713244
-0.702537
-0.656301
-0.601056
-0.582436
-0.677837
-0.677146
-0.676002
-0.6708
-0.655199
-0.629424
-0.596243
-0.558051
-0.515771
-0.473108
-0.443544
-0.415069
-0.397391
-0.407089
-0.434433
-0.451415
-0.435138
-0.414408
-0.384534
-0.370039
-0.666192
-0.665963
-0.665343
-0.662925
-0.652353
-0.628753
-0.595247
-0.555062
-0.508395
-0.457403
-0.413412
-0.357627
-0.275416
-0.181472
-0.110378
-0.0527101
-0.0257431
-0.00814619
0.00699515
0.0155076
-0.658219
-0.658068
-0.65765
-0.656939
-0.650501
-0.629303
-0.594944
-0.551229
-0.499334
-0.436853
-0.372843
-0.291439
-0.149769
0.0328195
0.196417
0.318851
0.3862
0.425762
0.444381
0.452267
-0.653122
-0.653074
-0.652941
-0.652772
-0.648939
-0.631121
-0.595769
-0.547964
-0.490279
-0.41703
-0.335201
-0.239548
-0.0629464
0.171839
0.404441
0.59444
0.72489
0.804959
0.847547
0.864237
-0.64908
-0.649078
-0.649016
-0.648909
-0.647553
-0.633586
-0.598084
-0.546611
-0.483448
-0.40258
-0.30819
-0.205825
-0.01416
0.258116
0.554128
0.820052
1.02057
1.13813
1.19283
1.21153
-0.645674
-0.645737
-0.645738
-0.645634
-0.645469
-0.635666
-0.601516
-0.548537
-0.481068
-0.395729
-0.295119
-0.190424
-0.00417206
0.272798
0.583526
0.874781
1.10964
1.24929
1.30707
1.32192
-0.643028
-0.643105
-0.643149
-0.643176
-0.643687
-0.636693
-0.606273
-0.553469
-0.484216
-0.397612
-0.298286
-0.199374
-0.0468492
0.208491
0.486921
0.740483
0.950636
1.07803
1.12814
1.13969
-0.640923
-0.640967
-0.640874
-0.640578
-0.640048
-0.636389
-0.611756
-0.561654
-0.492998
-0.407885
-0.315024
-0.227386
-0.10946
0.101635
0.330354
0.525939
0.682376
0.776918
0.81331
0.820903
-0.641398
-0.641373
-0.640826
-0.639294
-0.637035
-0.635762
-0.618898
-0.573543
-0.505878
-0.42411
-0.340767
-0.263923
-0.176119
-0.0134289
0.161367
0.301442
0.408262
0.469917
0.492561
0.496896
-0.645787
-0.646035
-0.646439
-0.64693
-0.647107
-0.647205
-0.634269
-0.58862
-0.520367
-0.4454
-0.372099
-0.305247
-0.241311
-0.124884
0.00346972
0.102168
0.173409
0.212494
0.226568
0.229341
-0.649923
-0.650955
-0.65449
-0.663589
-0.676398
-0.681154
-0.659407
-0.603537
-0.535708
-0.470813
-0.403957
-0.34549
-0.296199
-0.211009
-0.118466
-0.0511864
-0.00604425
0.0192564
0.0291911
0.0312583
-0.652475
-0.653775
-0.658691
-0.672278
-0.693185
-0.701744
-0.672636
-0.609511
-0.552748
-0.496878
-0.43415
-0.383234
-0.34773
-0.281642
-0.209861
-0.158983
-0.124507
-0.105389
-0.098316
-0.0969378
-0.663208
-0.664043
-0.666165
-0.665812
-0.658678
-0.655766
-0.634908
-0.600736
-0.56887
-0.519112
-0.459246
-0.417629
-0.388985
-0.337198
-0.27845
-0.235418
-0.204627
-0.186724
-0.18033
-0.179882
-0.682865
-0.682986
-0.682112
-0.659662
-0.602027
-0.552402
-0.56335
-0.588244
-0.581096
-0.534862
-0.480892
-0.446892
-0.422587
-0.375993
-0.325382
-0.288264
-0.260156
-0.243666
-0.238515
-0.238579
-0.70681
-0.705308
-0.70093
-0.674873
-0.614311
-0.56156
-0.573374
-0.615262
-0.606029
-0.549357
-0.500085
-0.469482
-0.447762
-0.406659
-0.36102
-0.327246
-0.302149
-0.288051
-0.283617
-0.284068
-0.757507
-0.755384
-0.767351
-0.786284
-0.79379
-0.766845
-0.743046
-0.714707
-0.650994
-0.568926
-0.516393
-0.484003
-0.459306
-0.421192
-0.383146
-0.354764
-0.333431
-0.321908
-0.31827
-0.31875
-0.876539
-0.887248
-0.927977
-0.982451
-1.0083
-0.992843
-0.938988
-0.840864
-0.70482
-0.591042
-0.528682
-0.485966
-0.458436
-0.423489
-0.389667
-0.366183
-0.350613
-0.342991
-0.340241
-0.340628
-0.998676
-1.01606
-1.05726
-1.09863
-1.12114
-1.10656
-1.03931
-0.897821
-0.723076
-0.600078
-0.52479
-0.472776
-0.444942
-0.413813
-0.383539
-0.363511
-0.351599
-0.345568
-0.343287
-0.343548
-1.024
-1.03911
-1.06647
-1.09573
-1.11445
-1.10219
-1.03052
-0.861498
-0.692639
-0.578449
-0.493672
-0.44565
-0.420452
-0.388501
-0.360783
-0.343734
-0.332869
-0.327085
-0.324968
-0.325287
-0.926954
-0.938088
-0.959484
-0.98435
-1.00245
-0.992863
-0.924782
-0.767976
-0.631291
-0.522042
-0.442481
-0.406487
-0.381299
-0.350955
-0.326283
-0.3094
-0.297815
-0.291252
-0.289188
-0.28974
-0.727444
-0.738722
-0.760492
-0.787756
-0.81034
-0.806214
-0.741441
-0.633404
-0.532059
-0.439476
-0.385464
-0.353758
-0.331276
-0.306829
-0.284144
-0.266773
-0.25375
-0.246275
-0.244294
-0.245108
-0.463944
-0.474778
-0.49675
-0.527052
-0.555324
-0.559844
-0.523038
-0.46463
-0.40216
-0.349235
-0.318048
-0.290631
-0.279679
-0.25839
-0.236105
-0.219466
-0.207008
-0.200214
-0.198767
-0.199711
-0.200422
-0.208289
-0.226716
-0.256256
-0.289841
-0.313708
-0.316299
-0.303522
-0.279196
-0.258752
-0.237073
-0.22931
-0.226082
-0.206048
-0.187132
-0.172922
-0.162283
-0.157357
-0.156645
-0.157529
-0.0183986
-0.0243016
-0.0395683
-0.0663537
-0.102331
-0.139482
-0.167357
-0.17866
-0.175532
-0.167485
-0.162032
-0.164638
-0.164256
-0.148844
-0.134979
-0.124722
-0.118448
-0.116373
-0.116139
-0.116738
0.0516859
0.0470871
0.0355451
0.0146463
-0.0134953
-0.0437514
-0.0692532
-0.0834103
-0.0881034
-0.0896509
-0.0913208
-0.0931811
-0.0954844
-0.0857568
-0.0775424
-0.0724843
-0.0700788
-0.0698022
-0.0699245
-0.0703647
0.0287898
0.0272616
0.0239761
0.0170447
0.00762531
-0.00188529
-0.00898588
-0.0142473
-0.0172509
-0.0180924
-0.0180883
-0.0183224
-0.0194579
-0.0189633
-0.0179561
-0.019031
-0.0200314
-0.0199221
-0.0176427
-0.0166076
-0.00253524
0.18233
0.351379
0.493728
0.606238
0.693564
0.765254
0.823281
0.837226
0.834238
0.278205
0.396208
0.506453
0.601293
0.680395
0.745126
0.795885
0.830161
0.848562
0.865467
0.467946
0.546179
0.623375
0.690859
0.748096
0.795429
0.832754
0.861397
0.88304
0.902318
0.608229
0.663888
0.719786
0.769855
0.813018
0.849762
0.880687
0.906702
0.92663
0.945539
0.721879
0.763805
0.805386
0.84433
0.879161
0.910017
0.937054
0.960044
0.977816
0.995908
0.816804
0.851658
0.885961
0.918874
0.949261
0.97683
1.00123
1.02179
1.03739
1.05488
0.903721
0.935174
0.966868
0.997558
1.02613
1.05214
1.07498
1.09372
1.1075
1.12451
0.989755
1.02203
1.05411
1.08503
1.11356
1.13912
1.16107
1.17846
1.19074
1.20724
1.08361
1.11993
1.15452
1.1868
1.2158
1.24099
1.26198
1.27816
1.2897
1.30582
1.19645
1.23717
1.27404
1.30677
1.33509
1.35897
1.3785
1.39371
1.40554
1.4216
1.3379
1.37877
1.41393
1.44337
1.46847
1.49002
1.50847
1.52391
1.53699
1.55292
1.50921
1.54118
1.56813
1.59047
1.61052
1.62921
1.64692
1.66367
1.67856
1.69427
1.69527
1.71246
1.72954
1.74622
1.76231
1.77703
1.79092
1.80539
1.82061
1.83791
1.87864
1.88856
1.90172
1.9127
1.9221
1.93176
1.94235
1.95252
1.9618
1.98747
2.09644
2.09074
2.07779
2.06353
2.05723
2.06293
2.08107
2.10959
2.14335
2.17967
2.39926
2.26332
2.1838
2.14125
2.12392
2.12791
2.15533
2.21319
2.32085
2.49926
0.775968
0.769666
0.761939
0.750829
0.737264
0.724625
0.714242
0.706251
0.700564
0.697275
0.69698
0.699866
0.705143
0.712533
0.722106
0.733953
0.747526
0.760464
0.769459
0.777003
0.685022
0.690943
0.699019
0.705157
0.708233
0.707732
0.704661
0.700689
0.697133
0.694894
0.69482
0.697132
0.700934
0.705416
0.709544
0.711808
0.710749
0.706122
0.699073
0.691243
0.678247
0.68062
0.683892
0.686672
0.689132
0.691334
0.692532
0.692411
0.69151
0.690755
0.691037
0.692519
0.694356
0.695626
0.695582
0.694139
0.691997
0.689648
0.686675
0.683661
0.673423
0.674512
0.676434
0.67878
0.680664
0.682078
0.683318
0.684341
0.684984
0.685422
0.686055
0.686878
0.687408
0.68734
0.686749
0.685855
0.684545
0.682591
0.680495
0.679021
0.668354
0.668987
0.670121
0.67189
0.673748
0.675361
0.676638
0.677738
0.678771
0.679741
0.68062
0.681235
0.681449
0.681301
0.680811
0.679872
0.678471
0.676881
0.675556
0.674758
0.66337
0.663809
0.664603
0.66592
0.66746
0.669047
0.670557
0.671896
0.673112
0.674284
0.675348
0.676063
0.676335
0.676172
0.675565
0.674609
0.673489
0.67237
0.671482
0.670952
0.658462
0.658789
0.659407
0.660492
0.661809
0.663238
0.664755
0.666281
0.667745
0.669149
0.67043
0.671312
0.671652
0.671497
0.670971
0.670242
0.669439
0.668615
0.667972
0.667583
0.653601
0.653854
0.654354
0.655283
0.656482
0.657825
0.659294
0.660884
0.662549
0.664232
0.665789
0.666874
0.667356
0.667369
0.667075
0.666599
0.666019
0.66543
0.66497
0.664674
0.648713
0.648913
0.649331
0.650153
0.65128
0.652583
0.654047
0.655695
0.657519
0.659473
0.661358
0.662743
0.663494
0.663778
0.663747
0.663515
0.663155
0.662769
0.662452
0.66222
0.643709
0.64387
0.64423
0.644982
0.646068
0.647362
0.648868
0.650616
0.652621
0.654864
0.657138
0.65893
0.660048
0.660658
0.660912
0.660934
0.660806
0.660607
0.660409
0.660223
0.638498
0.638627
0.638946
0.639657
0.640734
0.642063
0.643651
0.645547
0.647791
0.650388
0.653137
0.655432
0.656991
0.65798
0.658558
0.658857
0.658961
0.658947
0.658853
0.658703
0.632983
0.633087
0.633378
0.634074
0.635177
0.636587
0.638303
0.640404
0.642959
0.646005
0.649337
0.652235
0.654315
0.655743
0.656691
0.657293
0.657658
0.657826
0.657822
0.6577
0.627061
0.627143
0.627419
0.628125
0.62929
0.630822
0.632724
0.6351
0.638053
0.641657
0.645702
0.649325
0.652024
0.653966
0.65534
0.656306
0.656946
0.657295
0.657374
0.657272
0.620615
0.620676
0.620947
0.621685
0.62295
0.624652
0.626805
0.62954
0.632995
0.637286
0.642196
0.646693
0.650129
0.65268
0.654545
0.655916
0.656872
0.657421
0.657579
0.657493
0.613502
0.613544
0.613819
0.614612
0.616015
0.617943
0.620423
0.623613
0.627694
0.632829
0.638788
0.644332
0.648646
0.651916
0.654364
0.656201
0.657521
0.658286
0.658523
0.658449
0.605566
0.605584
0.605861
0.606732
0.608316
0.610535
0.61343
0.617192
0.62205
0.628217
0.635444
0.642242
0.647594
0.651712
0.654854
0.657253
0.658986
0.659986
0.660301
0.660234
0.596536
0.596546
0.59685
0.597825
0.599645
0.602233
0.60565
0.610126
0.615944
0.623375
0.632131
0.64042
0.647005
0.652121
0.656079
0.659149
0.661358
0.662614
0.663005
0.662941
0.586151
0.586135
0.586481
0.587609
0.58973
0.59279
0.596865
0.602234
0.609244
0.618221
0.628817
0.638874
0.646907
0.653199
0.65812
0.661965
0.664725
0.666258
0.666722
0.666656
0.57405
0.574013
0.57441
0.575725
0.578226
0.581891
0.586805
0.593302
0.601796
0.612665
0.625473
0.637614
0.647333
0.654996
0.661046
0.665782
0.669165
0.670986
0.671514
0.67144
0.559717
0.559658
0.560136
0.561705
0.564696
0.569141
0.575137
0.583075
0.593433
0.606628
0.622081
0.636659
0.648319
0.65755
0.664908
0.670659
0.674721
0.676825
0.6774
0.67731
0.542449
0.542368
0.542974
0.544899
0.548544
0.554029
0.56145
0.57126
0.583988
0.600046
0.618643
0.636036
0.6499
0.660904
0.669715
0.676606
0.681386
0.683741
0.684332
0.68422
0.521223
0.521125
0.521939
0.524385
0.528953
0.535879
0.545244
0.557546
0.573321
0.592906
0.615205
0.63579
0.652111
0.665073
0.675473
0.683599
0.689076
0.691608
0.692174
0.692031
0.494495
0.494398
0.495565
0.498818
0.504793
0.513823
0.525955
0.541658
0.561372
0.585269
0.611859
0.635992
0.654979
0.670051
0.682155
0.691541
0.697606
0.70019
0.700677
0.7005
0.459756
0.459714
0.461516
0.466168
0.474511
0.486871
0.503088
0.523475
0.548241
0.577312
0.608764
0.63675
0.658548
0.675818
0.689671
0.700247
0.706674
0.709132
0.709488
0.709278
0.412561
0.412749
0.415964
0.423567
0.436333
0.454181
0.476483
0.503209
0.53426
0.569342
0.606136
0.638189
0.662869
0.682333
0.697899
0.709449
0.715863
0.717979
0.718166
0.717935
0.344575
0.346049
0.353893
0.368322
0.389266
0.415871
0.446768
0.481557
0.520013
0.56177
0.604214
0.640408
0.667962
0.689519
0.706556
0.718651
0.724602
0.726183
0.726209
0.725987
0.263382
0.266248
0.281538
0.3065
0.338669
0.375596
0.415763
0.459014
0.505242
0.554174
0.602946
0.644033
0.675152
0.699376
0.717936
0.730057
0.735263
0.736374
0.736342
0.73621
0.180159
0.18762
0.210615
0.246089
0.289089
0.336114
0.385541
0.437276
0.491285
0.547345
0.602373
0.648255
0.682811
0.709587
0.729563
0.741204
0.745153
0.745701
0.745629
0.745553
0.11198
0.121556
0.14943
0.192338
0.243806
0.299358
0.357103
0.416759
0.478142
0.54093
0.60175
0.651939
0.68948
0.718288
0.738964
0.7499
0.753106
0.753477
0.753412
0.753361
0.056021
0.0663516
0.09794
0.146346
0.204199
0.266529
0.331222
0.397793
0.465819
0.534783
0.60092
0.655016
0.695178
0.725668
0.746829
0.75722
0.759946
0.760214
0.760158
0.76012
0.0091133
0.0197959
0.0539339
0.106608
0.169654
0.237592
0.308123
0.380651
0.45456
0.529112
0.600118
0.657769
0.700278
0.732208
0.753684
0.763592
0.766006
0.766225
0.766176
0.766143
-0.0311899
-0.0203591
0.0156715
0.0717577
0.139129
0.211868
0.287479
0.365256
0.444449
0.524104
0.599596
0.660486
0.705052
0.738142
0.759756
0.769242
0.771465
0.771671
0.771638
0.771611
-0.0666066
-0.0557337
-0.0182301
0.0406776
0.11173
0.188638
0.26876
0.351286
0.435337
0.519754
0.599454
0.66334
0.709719
0.743708
0.765296
0.774402
0.776506
0.776734
0.77674
0.776728
-0.09841
-0.0875297
-0.0488591
0.012475
0.0867312
0.167315
0.251478
0.338361
0.426953
0.515913
0.599674
0.666416
0.71446
0.749172
0.770633
0.779385
0.781407
0.781684
0.781755
0.781771
-0.127632
-0.116725
-0.0770272
-0.0135421
0.063566
0.147424
0.235238
0.326139
0.419031
0.512389
0.600171
0.669761
0.71943
0.754814
0.776128
0.784564
0.786511
0.786837
0.786987
0.787045
-0.154858
-0.143913
-0.103297
-0.0378766
0.0417783
0.128582
0.219725
0.314352
0.411326
0.508999
0.600849
0.673394
0.724755
0.760851
0.782065
0.790248
0.79211
0.792473
0.792685
0.792786
-0.180583
-0.169583
-0.128109
-0.0609277
0.021024
0.110492
0.204685
0.302781
0.403643
0.505574
0.601608
0.677301
0.730484
0.767389
0.788596
0.796552
0.798327
0.798687
0.79893
0.799066
-0.2052
-0.194056
-0.151779
-0.0829746
0.00105502
0.0929336
0.189928
0.291258
0.395818
0.501951
0.602335
0.681431
0.73663
0.774419
0.795668
0.803431
0.805093
0.805407
0.805645
0.805798
-0.228852
-0.217541
-0.174498
-0.104215
-0.0183051
0.0757652
0.175319
0.279646
0.387717
0.497973
0.602873
0.685708
0.743146
0.781871
0.803149
0.810692
0.812207
0.812438
0.812642
0.812786
-0.25174
-0.240211
-0.196433
-0.124766
-0.0371622
0.0588834
0.160768
0.267858
0.379232
0.493509
0.60305
0.690017
0.750026
0.789733
0.810905
0.818094
0.8194
0.819531
0.81968
0.819804
-0.273875
-0.262143
-0.217659
-0.144698
-0.0555758
0.0422378
0.146232
0.255846
0.370293
0.48843
0.602701
0.694214
0.757254
0.798053
0.818869
0.825419
0.826419
0.826448
0.826547
0.826646
-0.295361
-0.283393
-0.238184
-0.164041
-0.0735795
0.0258057
0.131688
0.243592
0.360864
0.482651
0.601659
0.698123
0.764795
0.806993
0.827176
0.83262
0.833045
0.832985
0.833086
0.833179
-0.316082
-0.303949
-0.258029
-0.182823
-0.0911738
0.00961074
0.11715
0.2311
0.350937
0.476128
0.599772
0.701541
0.772561
0.816775
0.836301
0.839984
0.839242
0.838992
0.839295
0.839507
-0.336185
-0.323813
-0.277205
-0.20106
-0.108363
-0.00634749
0.102665
0.218399
0.34053
0.468848
0.596917
0.704237
0.780372
0.827535
0.846901
0.848469
0.845647
0.844611
0.84542
0.846281
-0.355549
-0.342945
-0.295725
-0.21873
-0.125095
-0.0220156
0.0882802
0.205566
0.329692
0.4608
0.593011
0.705965
0.787938
0.839179
0.859551
0.859573
0.85412
0.851211
0.852251
0.854534
-0.374275
-0.361423
-0.313556
-0.235798
-0.141359
-0.0373511
0.0740563
0.19265
0.318489
0.452052
0.58801
0.706459
0.794877
0.851288
0.87414
0.874267
0.867022
0.861053
0.857315
0.851506
-0.392264
-0.37924
-0.33079
-0.252436
-0.157376
-0.0526273
0.0596751
0.179275
0.30652
0.442181
0.581522
0.705338
0.801063
0.864
0.890753
0.893001
0.8855
0.875205
0.862269
0.86224
-0.409509
-0.396481
-0.347447
-0.268598
-0.173148
-0.0678196
0.0451512
0.165401
0.293722
0.43101
0.57326
0.701921
0.805459
0.876381
0.907513
0.912501
0.904609
0.892267
0.855892
0.818308
-0.425827
-0.413013
-0.363504
-0.284167
-0.188685
-0.0829458
0.0304659
0.151142
0.280127
0.418514
0.56302
0.695616
0.806446
0.886905
0.922
0.925013