/*--------------------------------*- C++ -*----------------------------------*\
  =========                 |
  \\      /  F ield         | OpenFOAM: The Open Source CFD Toolbox
   \\    /   O peration     | Website:  https://openfoam.org
    \\  /    A nd           | Version:  6
     \\/     M anipulation  |
\*---------------------------------------------------------------------------*/
FoamFile
{
    version     2.0;
    format      ascii;
    class       volScalarField;
    location    "34";
    object      p;
}
// * * * * * * * * * * * * * * * * * * * * * * * * * * * * * * * * * * * * * //

dimensions      [0 2 -2 0 0 0 0];

internalField   nonuniform List<scalar> 
918
(
0.572111
1.30781
0.00684248
0.572001
0.00562082
1.27567
-0.455226
0.740242
0.553188
-0.0684146
-0.0128728
0.549551
1.13265
0.898962
-1.14132
0.0920171
0.693656
-0.382669
0.551089
-0.0268364
0.773132
0.559928
0.562403
0.553202
0.609407
0.857242
1.01002
-0.0209325
-0.0143965
-0.00752446
0.043447
0.0601945
0.0764382
1.1588
1.21074
1.2339
0.520407
0.350663
-0.344092
-0.397645
-0.379004
-0.479885
0.73195
0.732086
-0.143313
0.740738
0.748765
0.539114
0.552573
0.553414
0.554601
0.553449
0.554753
0.441578
-0.073482
-0.105052
-0.0493336
-0.0402437
0.102647
-0.0172935
-0.0210693
-0.00791997
-0.00333911
0.471385
0.545625
0.542962
0.554481
0.563597
1.24798
1.2217
1.24775
1.15843
1.17601
1.10959
1.08248
0.920653
0.94458
0.883144
0.868955
-1.60762
-2.56708
-0.556272
-0.272168
-0.0253031
0.0843385
0.0860565
0.683792
0.683573
0.695322
0.704995
1.06757
-0.35186
-0.423185
0.551535
0.55008
0.559437
0.560342
0.555279
0.5553
-0.0156238
-0.00767157
-0.0409498
-0.0296663
-0.028849
0.764104
0.763589
0.552655
0.550118
0.572856
0.595587
0.584717
0.298347
0.616928
0.631086
0.714053
0.861983
0.851746
0.863177
0.985639
0.953737
1.04119
1.06295
-0.0437621
-0.0525944
0.0740632
0.0891777
0.0976509
0.516191
0.509872
0.536411
0.523965
0.526911
0.254456
0.102122
0.433635
0.457907
-0.259552
-0.304184
-0.411243
-0.409603
-0.520089
0.622854
0.727467
0.724942
-0.165577
-0.0874473
-0.215468
-0.0271389
-0.0852045
0.530278
0.536375
0.532545
0.547693
0.541909
0.544316
0.556691
0.553829
0.555446
0.500009
0.629595
0.35937
0.331669
-0.23063
-0.12333
-0.216095
-0.0296693
-0.0255296
0.111358
0.138132
0.0934388
0.0877
-0.0215177
-0.0192268
-0.0228849
0.0033212
0.00212119
0.463145
0.451058
0.482169
0.489312
0.534858
0.536039
0.539947
0.538107
1.0332
1.05654
1.0624
1.03843
-3.55799
-6.2154
0.0808182
0.244334
-0.0987253
-0.0748172
-0.0473347
0.024283
-0.0162812
-0.00306103
0.0610693
0.0608445
0.0745673
0.0687715
0.674752
0.673254
1.03161
1.05679
1.01557
0.996387
0.540827
0.542794
0.547415
0.544312
0.00391607
-0.0073142
0.000619191
0.749946
0.7569
0.757311
0.259482
0.174542
0.346586
0.375956
0.663557
0.640171
0.658048
0.775512
0.815104
1.08001
1.10417
1.08808
1.10103
1.152
1.17494
1.14006
0.495478
0.506007
0.500501
0.539631
0.537204
0.538307
0.534123
0.535418
0.53386
-0.0112029
-0.387503
0.517537
0.51643
0.499576
0.507504
0.705703
0.784864
0.705188
0.716334
0.714223
0.0183382
-0.0287893
0.290684
0.260329
0.404967
0.438197
0.420921
1.00898
0.969058
1.01715
0.992517
0.956649
0.981147
-0.325136
-2.10524
-1.09146
0.654373
0.453513
0.547181
0.073366
0.0595384
0.0628296
1.05796
1.10005
0.699792
0.884102
0.839245
0.838966
0.864676
0.928839
0.860274
0.895267
0.926701
0.901205
0.579649
0.525365
0.536005
0.861682
0.919052
0.140656
0.0686368
0.0450664
0.158596
0.218904
0.188194
1.07445
0.97751
1.04531
0.550362
0.551262
-0.0513652
-0.0496601
0.555335
0.55505
0.0411265
0.0888423
0.564834
-0.916329
0.155246
0.544607
0.534713
0.551288
-0.0333115
0.374497
-0.0195202
0.0852225
0.0630973
0.545504
0.482763
0.441552
-0.0789689
0.0827393
-0.0109693
-0.1726
0.548113
0.546487
0.55066
0.551528
0.55227
-0.0850452
-0.041592
-0.0979389
-0.0334522
-0.0419035
-0.0354417
0.515374
0.533912
-0.142411
0.550939
0.553039
0.552751
0.546772
0.551791
0.550334
0.0687217
0.0760668
0.0827991
0.242746
0.371322
0.753938
0.833804
0.699827
0.529019
0.226295
0.686551
0.741031
0.663766
0.79725
0.718052
0.727272
0.217225
0.076367
0.216343
0.153513
0.541613
0.540928
0.53224
0.529253
0.546087
0.543888
0.548912
0.54616
0.549218
0.550399
0.00365689
-0.0313967
-0.0437017
-0.0943672
0.337348
0.600479
0.267664
0.296704
0.200403
-0.0015594
-0.00559437
-0.0210358
-0.0192478
0.0376352
0.0471635
0.0834623
0.093535
0.0785021
0.0603655
0.0340187
0.0408292
0.0290119
0.539389
0.538566
0.544133
0.552444
0.491896
0.495641
0.462107
0.481297
0.467669
0.409524
0.439777
0.417066
0.0109295
-0.0267555
-0.00571762
0.0720078
0.0720582
-0.0133406
-0.0371434
-0.0383217
-0.0453968
-0.0345887
0.00290356
0.00566518
-0.135225
-0.250347
1.00532
0.924416
0.154191
0.53808
0.543706
0.540889
0.54543
0.548597
0.549293
0.546946
0.543519
0.534211
0.535709
0.532297
0.53318
-0.086772
-0.193895
-0.022181
-0.0922598
0.176586
0.65283
0.380662
0.329881
0.314871
0.533301
0.736892
0.672959
0.751077
0.754045
-0.366514
0.0517647
-0.29153
0.255989
0.24028
0.777991
0.820045
0.836555
0.794397
0.749877
-0.00341489
0.569328
-0.0122858
0.0321001
0.218726
0.112612
0.736054
0.696262
0.702124
0.715696
0.735231
0.711906
0.695278
0.686375
0.716643
0.721788
0.529294
0.273046
0.236276
0.187808
0.678215
0.566796
0.622353
0.544161
0.536897
0.539535
0.53835
0.520029
0.527159
0.523002
0.529462
0.532897
0.540789
0.540915
0.53696
0.538857
-0.0186494
-0.0195023
-0.03396
-0.0851915
-0.0809493
-0.122791
-0.0586173
0.138166
0.0867877
0.265629
0.404279
0.10925
-0.0195671
-0.00572366
0.0471615
0.21379
0.210941
0.096118
0.207375
0.171291
0.16124
0.253212
0.274093
0.011055
0.00784056
0.00564615
-0.00264297
0.0582557
0.15212
0.142701
0.0477191
0.0316065
-0.00589143
0.00115675
0.0288876
0.0190905
0.0218719
0.0476223
0.00551796
0.0572737
0.0598655
0.0514844
0.0458436
0.0458712
0.533046
0.535047
0.534937
0.543816
0.557572
0.572042
0.537117
0.512803
0.504033
0.507146
0.480563
0.489647
0.485799
0.500033
0.52124
0.529797
0.527535
0.530065
0.512831
0.514352
0.500472
0.50491
0.476929
0.458904
0.448888
-0.0139135
-0.0289505
-0.0201855
-0.0097239
-0.00581243
0.00551575
0.0624856
0.0788085
0.0572981
0.0667728
0.0543198
-0.00226667
0.000829527
-0.0392054
0.0381049
-0.142275
-0.189514
-0.23954
0.91564
1.04812
0.829543
0.624481
0.628749
0.864423
0.953916
0.592978
0.772246
0.804927
0.596771
0.875504
0.541997
0.54164
0.53951
0.538709
0.539711
0.0159628
0.114901
0.137234
0.186909
0.301695
0.408619
0.332832
0.218779
0.353516
0.379302
0.652748
0.663295
0.610046
0.631519
0.627632
0.451947
0.534159
0.576055
0.525601
0.594598
0.627792
0.579224
0.620203
0.538532
0.491251
0.485137
0.437151
0.471513
0.453331
0.427584
0.532818
0.510257
0.520987
0.511335
0.531937
0.555777
0.556195
0.578556
0.593485
0.514082
0.465548
0.481991
0.50806
0.46572
0.4809
0.5012
0.201897
0.107871
0.273025
-0.0607899
0.0332321
0.0693655
0.0285421
-0.0185091
0.289717
-0.356978
-0.298827
-0.983662
0.509758
0.900258
0.697781
0.711253
0.73161
0.712377
0.719751
0.735547
0.743177
0.670909
0.68574
0.689304
0.650644
0.682587
0.683004
0.690356
0.530205
0.441809
0.440123
0.37908
0.247586
0.284626
0.457092
0.397131
0.331102
0.326803
0.497325
0.366629
0.441539
0.497674
0.430341
0.361063
0.588921
0.639777
0.62498
0.598949
0.511737
0.533209
0.556661
0.596512
0.621728
0.649129
0.528507
0.534608
0.53558
0.532886
0.530993
0.534021
0.534145
0.536461
0.537071
0.539589
0.538852
-0.00798906
0.00278546
-0.00788364
-0.0135835
0.0536109
0.027117
0.0294807
-0.00391359
0.0269832
0.0280358
0.00716961
-0.00479079
0.000866667
0.0126014
0.107596
0.123638
0.128336
0.0937702
0.283691
0.443552
0.509665
0.386074
0.236232
0.253007
0.330515
0.0426812
0.0633559
0.046811
0.0972984
0.0763392
0.0128024
0.00626414
0.0101397
0.0142456
0.0237265
0.012839
0.0243364
0.0250853
0.0171516
0.00576608
0.00392889
0.514181
0.507415
0.510914
0.503676
0.501943
0.518002
0.522211
0.523409
0.528731
0.530997
0.521134
0.526964
0.530649
0.0497546
0.0121877
0.0189562
0.0254131
0.0218867
0.0215073
0.0210417
0.149131
0.054929
0.0871249
0.0220693
-0.0967689
-0.0374132
0.522322
0.51948
0.518883
0.734883
0.578067
0.494248
0.591015
0.707624
0.292727
0.499575
0.330572
0.909262
0.808757
0.953876
0.580401
0.272243
0.434426
0.448229
0.283803
0.410467
0.375559
0.252923
0.291961
0.312302
0.395822
0.280404
0.258758
0.017656
0.195447
0.308704
0.290558
0.420115
0.478222
0.283117
0.197899
0.146999
0.63898
0.655625
0.667886
0.637306
0.660327
0.595365
0.586301
0.604173
0.611529
0.605933
-0.622661
-0.211611
-1.4145
-0.822648
-0.372919
0.535435
0.52579
0.768961
0.676679
0.732373
0.717144
0.652335
0.61793
0.649102
0.677414
0.369291
0.474378
0.439525
0.451134
0.386637
0.313243
0.607932
0.60898
0.631784
0.656409
0.63127
0.659302
0.526996
0.526738
0.525821
0.522235
0.520628
0.523533
0.0669232
0.0403832
0.0719126
0.0648464
0.0516523
0.0552685
0.0418153
0.0322002
0.0342748
0.0364701
0.053888
0.045766
0.19431
0.137446
0.0462917
0.0924637
0.0242711
-0.0562265
-0.0594121
0.028039
0.127817
0.109314
0.41282
0.687603
0.513675
0.678661
0.470744
0.574577
0.50109
0.471702
0.503146
0.397939
0.486682
0.038941
-0.155239
-0.21452
0.831477
0.788376
0.576775
0.322623
0.209773
0.511013
0.549205
0.508823
0.543563
0.594169
0.582582
0.0235734
0.122992
0.185361
0.494833
0.297419
0.311111
0.306266
0.46099
0.439614
)
;

boundaryField
{
    wall-4
    {
        type            zeroGradient;
    }
    velocity-inlet-5
    {
        type            zeroGradient;
    }
    velocity-inlet-6
    {
        type            zeroGradient;
    }
    pressure-outlet-7
    {
        type            fixedValue;
        value           uniform 0;
    }
    wall-8
    {
        type            zeroGradient;
    }
    frontAndBackPlanes
    {
        type            empty;
    }
}


// ************************************************************************* //
