/*--------------------------------*- C++ -*----------------------------------*\
  =========                 |
  \\      /  F ield         | OpenFOAM: The Open Source CFD Toolbox
   \\    /   O peration     | Website:  https://openfoam.org
    \\  /    A nd           | Version:  6
     \\/     M anipulation  |
\*---------------------------------------------------------------------------*/
FoamFile
{
    version     2.0;
    format      ascii;
    class       volScalarField;
    location    "58";
    object      p;
}
// * * * * * * * * * * * * * * * * * * * * * * * * * * * * * * * * * * * * * //

dimensions      [0 2 -2 0 0 0 0];

internalField   nonuniform List<scalar> 
8800
(
0.910289
0.860978
0.823012
0.794935
0.774762
0.760158
0.749539
0.741971
0.737048
0.734929
0.736246
0.740545
0.747306
0.756706
0.769428
0.786741
0.810613
0.843707
0.886633
0.939164
0.744767
0.751112
0.76026
0.763801
0.761185
0.755089
0.748135
0.741873
0.737041
0.734127
0.733842
0.736418
0.741018
0.747115
0.75419
0.761206
0.766072
0.765943
0.759265
0.750365
0.718331
0.724566
0.729061
0.732923
0.735855
0.736784
0.735671
0.733518
0.731495
0.730602
0.731576
0.733981
0.736831
0.739076
0.739582
0.737786
0.734414
0.730393
0.725608
0.72189
0.714051
0.716814
0.719415
0.721565
0.72329
0.72484
0.725916
0.726232
0.72607
0.726109
0.72685
0.72794
0.728643
0.728466
0.727471
0.726102
0.724419
0.722107
0.719691
0.718125
0.709028
0.710452
0.712283
0.714353
0.71605
0.717323
0.718392
0.719333
0.720088
0.720757
0.721395
0.721796
0.721775
0.721378
0.720684
0.719551
0.717881
0.715977
0.71462
0.713817
0.704082
0.704984
0.706222
0.707835
0.70951
0.711017
0.712269
0.713346
0.714349
0.715288
0.715991
0.716312
0.716268
0.71586
0.715028
0.713818
0.712441
0.711164
0.710338
0.709814
0.699229
0.699884
0.700836
0.702137
0.703563
0.705051
0.706498
0.70781
0.709002
0.710115
0.710969
0.711383
0.711338
0.710853
0.710037
0.709069
0.708056
0.707138
0.706553
0.70617
0.694468
0.694972
0.695748
0.69687
0.698146
0.69953
0.700994
0.702475
0.703906
0.705256
0.706296
0.706808
0.706811
0.706432
0.705826
0.705105
0.704343
0.703663
0.703231
0.702932
0.689746
0.690147
0.690796
0.691797
0.692998
0.694326
0.69578
0.697351
0.698988
0.70061
0.701889
0.702579
0.702762
0.702603
0.702229
0.701723
0.701161
0.700673
0.700352
0.70011
0.684985
0.685312
0.685873
0.686794
0.687947
0.68926
0.690745
0.692412
0.694238
0.696145
0.697739
0.698718
0.699175
0.69927
0.699126
0.698839
0.698468
0.698139
0.697902
0.6977
0.680098
0.680369
0.680871
0.681744
0.682879
0.684216
0.685774
0.687577
0.689626
0.691865
0.693857
0.695213
0.696001
0.696381
0.696486
0.69642
0.696241
0.696052
0.695882
0.695708
0.674998
0.675227
0.67569
0.676546
0.677704
0.679107
0.68078
0.682774
0.685113
0.687765
0.690242
0.69205
0.693223
0.693932
0.694313
0.694478
0.694489
0.694427
0.694312
0.694157
0.669597
0.669793
0.670236
0.671105
0.672324
0.673839
0.675681
0.677932
0.680645
0.683816
0.686882
0.689225
0.690848
0.691931
0.692624
0.69303
0.693247
0.693305
0.693236
0.693095
0.663793
0.663962
0.664404
0.665314
0.666636
0.668313
0.670393
0.672984
0.676173
0.679983
0.683765
0.686747
0.688898
0.69041
0.691455
0.692153
0.692572
0.692743
0.692714
0.692583
0.657471
0.657618
0.658073
0.659054
0.660524
0.662424
0.66482
0.66785
0.671636
0.676237
0.680885
0.68463
0.687404
0.689418
0.690863
0.691876
0.692526
0.692818
0.692825
0.692698
0.650493
0.650617
0.651101
0.652184
0.653852
0.656047
0.658848
0.66243
0.666956
0.672521
0.67822
0.682882
0.686398
0.689004
0.690922
0.692301
0.693204
0.693618
0.693659
0.693533
0.642681
0.642782
0.643311
0.64453
0.646458
0.649029
0.652344
0.656619
0.662063
0.668808
0.675773
0.681531
0.685923
0.689228
0.691711
0.693512
0.694702
0.695246
0.695319
0.695191
0.633801
0.633906
0.634483
0.635874
0.638138
0.641189
0.645153
0.650298
0.656879
0.665066
0.673556
0.680618
0.686046
0.690173
0.69332
0.695618
0.69713
0.697812
0.697915
0.697781
0.623549
0.62364
0.624309
0.625934
0.628633
0.632298
0.637091
0.643335
0.651338
0.661292
0.671607
0.680203
0.686841
0.691932
0.695844
0.698723
0.700601
0.70143
0.70156
0.701417
0.61156
0.611636
0.612408
0.614346
0.617606
0.622064
0.627918
0.635555
0.64533
0.657444
0.66994
0.680329
0.688381
0.694595
0.699397
0.702949
0.705228
0.706204
0.706357
0.706201
0.597288
0.597356
0.598273
0.600623
0.604615
0.610117
0.617355
0.626775
0.638765
0.653508
0.668593
0.681072
0.690743
0.698248
0.704078
0.708389
0.711098
0.712219
0.712385
0.712213
0.579965
0.580025
0.581155
0.584088
0.589084
0.595994
0.605071
0.616815
0.631604
0.649542
0.667661
0.682525
0.694021
0.702984
0.709958
0.715108
0.718264
0.719512
0.719681
0.719489
0.558445
0.558511
0.559983
0.563786
0.570227
0.57912
0.590722
0.605547
0.623881
0.645667
0.66727
0.684793
0.698308
0.708873
0.717086
0.723139
0.726719
0.728059
0.728212
0.728
0.530978
0.531071
0.533133
0.538342
0.547009
0.558821
0.573987
0.592911
0.615685
0.642024
0.667546
0.687969
0.703659
0.715937
0.725488
0.732436
0.736366
0.737737
0.737853
0.737619
0.494525
0.49474
0.498006
0.505806
0.518227
0.534523
0.554779
0.579102
0.607297
0.638866
0.6687
0.692197
0.710149
0.724198
0.735111
0.742857
0.746997
0.748308
0.748364
0.748111
0.443308
0.444378
0.45086
0.464008
0.482982
0.50621
0.533499
0.564637
0.599226
0.636612
0.670991
0.697626
0.717835
0.733599
0.745799
0.754164
0.758282
0.759429
0.759407
0.75914
0.368938
0.376251
0.391114
0.414053
0.442827
0.47534
0.511198
0.55014
0.591789
0.635498
0.674803
0.704852
0.727543
0.745209
0.758651
0.767435
0.771414
0.772375
0.7723
0.772065
0.289792
0.305785
0.329931
0.363444
0.402516
0.444472
0.488959
0.535899
0.585029
0.635787
0.680951
0.715278
0.741096
0.761081
0.77597
0.785031
0.78864
0.789352
0.789295
0.789154
0.222001
0.241548
0.273459
0.31609
0.364353
0.41521
0.468118
0.522949
0.579418
0.636972
0.687678
0.725972
0.754682
0.776721
0.792658
0.801695
0.804947
0.80554
0.805523
0.805438
0.166518
0.188276
0.225541
0.274715
0.330186
0.388524
0.44888
0.510957
0.574318
0.638342
0.694333
0.736364
0.767691
0.791544
0.808474
0.81776
0.821017
0.821639
0.821645
0.821594
0.120508
0.143591
0.18474
0.239033
0.300274
0.364783
0.431517
0.500044
0.569747
0.639826
0.700826
0.746415
0.780239
0.805847
0.82387
0.833707
0.837196
0.837799
0.837837
0.837812
0.0813615
0.10525
0.149277
0.20774
0.273852
0.343643
0.415912
0.490149
0.565602
0.641322
0.707056
0.756084
0.792343
0.819674
0.838839
0.849388
0.853156
0.853823
0.853888
0.853884
0.0470625
0.0715047
0.117796
0.179718
0.249994
0.324385
0.401565
0.480959
0.561716
0.642737
0.712978
0.765251
0.803849
0.832859
0.85311
0.864304
0.868425
0.869219
0.869315
0.86932
0.0161306
0.0410379
0.0892027
0.154069
0.227951
0.306387
0.387994
0.47213
0.557829
0.643859
0.718399
0.773759
0.814555
0.845092
0.866368
0.878155
0.882616
0.883574
0.883673
0.883677
-0.0124327
0.0129086
0.0626764
0.130118
0.207167
0.289192
0.374795
0.463291
0.553636
0.644457
0.723154
0.781502
0.824331
0.856284
0.878425
0.890729
0.895479
0.89657
0.896667
0.896659
-0.0394175
-0.013598
0.037624
0.107369
0.187214
0.27244
0.361659
0.454184
0.548922
0.644366
0.727146
0.788413
0.833203
0.866439
0.889312
0.901979
0.906929
0.908095
0.908184
0.908157
-0.0651956
-0.038917
0.0136486
0.0854487
0.167786
0.255887
0.348396
0.444642
0.543527
0.643466
0.730306
0.794499
0.841214
0.875633
0.899115
0.912011
0.917026
0.918225
0.918287
0.918236
-0.0901839
-0.063361
-0.00955297
0.0641067
0.14868
0.239365
0.334873
0.43455
0.537335
0.641658
0.732595
0.799784
0.84846
0.884003
0.907948
0.920925
0.925944
0.927135
0.927176
0.927099
-0.114506
-0.0871295
-0.0321461
0.0431956
0.129769
0.222781
0.321007
0.423846
0.530294
0.638876
0.733972
0.804308
0.855044
0.891703
0.916012
0.928953
0.933887
0.935018
0.935043
0.934948
-0.138277
-0.110329
-0.0542369
0.0226367
0.111002
0.206096
0.306775
0.412503
0.522375
0.635068
0.734386
0.808096
0.86108
0.898905
0.9235
0.936262
0.941014
0.942051
0.942024
0.941904
-0.161586
-0.13304
-0.0758659
0.00240606
0.092358
0.189313
0.292195
0.400542
0.513573
0.630198
0.733788
0.811141
0.866666
0.905773
0.930552
0.942976
0.947405
0.948279
0.948195
0.948056
-0.184476
-0.155255
-0.0970368
-0.017491
0.0738681
0.172463
0.27731
0.388001
0.503914
0.624242
0.732114
0.813393
0.871858
0.912495
0.937375
0.949207
0.953125
0.953765
0.953626
0.953478
-0.206793
-0.176932
-0.117717
-0.0370423
0.0555651
0.155611
0.262178
0.374953
0.493454
0.617214
0.729294
0.814761
0.876647
0.919258
0.944282
0.95522
0.958305
0.958581
0.958381
0.958236
-0.228502
-0.198032
-0.137889
-0.0561991
0.0375073
0.138818
0.246892
0.361475
0.482268
0.609136
0.725277
0.815124
0.880938
0.926165
0.951704
0.961553
0.963263
0.962823
0.962514
0.962419
-0.249658
-0.218517
-0.157525
-0.0749237
0.0197602
0.122168
0.231539
0.347667
0.470445
0.600062
0.720005
0.814351
0.884536
0.933114
0.960024
0.969133
0.968913
0.966897
0.966116
0.966249
-0.270099
-0.238361
-0.176564
-0.0931497
0.00238396
0.105749
0.216218
0.33364
0.458099
0.590089
0.713448
0.812285
0.887174
0.939709
0.969204
0.978988
0.977319
0.972707
0.969544
0.968099
-0.289917
-0.257565
-0.195009
-0.110906
-0.0146549
0.0895203
0.200877
0.319336
0.445158
0.579149
0.705447
0.80867
0.888585
0.945397
0.978548
0.991288
0.99062
0.983896
0.973999
0.973949
-0.309025
-0.276192
-0.212998
-0.12839
-0.0316515
0.0731453
0.185097
0.304263
0.431068
0.566604
0.695331
0.802726
0.888269
0.949474
0.986343
1.00364
1.00492
0.994519
0.976388
0.973555
-0.327286
-0.294196
-0.230361
-0.145406
-0.0483396
0.0569288
0.16909
0.288748
0.416129
0.552701
0.683162
0.793818
0.885445
0.950763
0.988419
1.00591
1.00995
0.985891
0.92775
0.902308
-0.344562
-0.312385
-0.246689
-0.161481
-0.0639665
0.0413545
0.153137
0.273066
0.400622
0.537614
0.669015
0.781371
0.87913
0.948459
0.980078
0.992268
0.981538
0.931449
0.869517
0.831949
-0.38815
-0.330342
-0.261737
-0.177357
-0.079286
0.0254877
0.137376
0.257095
0.384345
0.520995
0.652505
0.764786
0.865555
0.939996
0.959479
0.949461
0.90476
0.841371
0.772781
0.735086
-0.363325
-0.344976
-0.284601
-0.19968
-0.102871
0.00167236
0.112843
0.231868
0.358128
0.49323
0.623139
0.73312
0.825097
0.906593
0.892784
0.787429
0.698748
0.636849
0.57381
0.602814
-0.394748
-0.362974
-0.301799
-0.217489
-0.120813
-0.0164536
0.0948552
0.2132
0.338397
0.471665
0.598886
0.705274
0.786784
0.832682
0.784056
0.647078
0.539779
0.467306
0.385884
0.433556
-0.419243
-0.385013
-0.321993
-0.237571
-0.140958
-0.0366315
0.0745519
0.192087
0.315891
0.446723
0.570084
0.670498
0.740643
0.748986
0.645446
0.492428
0.364896
0.273481
0.179012
0.212862
-0.443138
-0.407785
-0.343305
-0.258168
-0.161476
-0.0572741
0.0534056
0.169969
0.292154
0.42015
0.538675
0.631091
0.684671
0.660532
0.505259
0.330221
0.171828
0.0386613
-0.0855776
-0.0705945
-0.466793
-0.43099
-0.36554
-0.279768
-0.182902
-0.0789
0.0311372
0.146584
0.266869
0.391617
0.504482
0.589014
0.622186
0.553958
0.36749
0.172233
-0.0134292
-0.166224
-0.371479
-0.451147
-0.490896
-0.455098
-0.389052
-0.302808
-0.205737
-0.101881
0.00758041
0.121879
0.240142
0.361378
0.468153
0.543642
0.551835
0.432025
0.242003
0.0345096
-0.156357
-0.317249
-0.440858
-0.560146
-0.516528
-0.480598
-0.414195
-0.327667
-0.230523
-0.126908
-0.0181183
0.0948554
0.210753
0.327923
0.42822
0.491359
0.472514
0.316308
0.124745
-0.076925
-0.251208
-0.347936
-0.374076
-0.387608
-0.543828
-0.507777
-0.441103
-0.354447
-0.257411
-0.154212
-0.0463377
0.065
0.178081
0.29045
0.383828
0.429644
0.392016
0.205376
0.015685
-0.165836
-0.297294
-0.334967
-0.343902
-0.344214
-0.573078
-0.53677
-0.469824
-0.383142
-0.286358
-0.183803
-0.0771073
0.0322513
0.142048
0.248921
0.334368
0.364429
0.296
0.104044
-0.0796367
-0.237229
-0.310829
-0.324785
-0.325879
-0.325735
-0.604295
-0.567616
-0.500376
-0.413751
-0.317384
-0.215679
-0.110443
-0.00341642
0.102661
0.203441
0.27967
0.295548
0.189179
0.0123327
-0.161591
-0.286502
-0.314763
-0.315237
-0.315702
-0.315274
-0.637225
-0.600142
-0.532657
-0.446193
-0.350404
-0.249792
-0.146325
-0.0419914
0.0599745
0.15411
0.220943
0.218071
0.0942719
-0.0721514
-0.226073
-0.297159
-0.31165
-0.309242
-0.30879
-0.308341
-0.671299
-0.634002
-0.566401
-0.480237
-0.38523
-0.285985
-0.184606
-0.0833626
0.0142063
0.101299
0.158584
0.139745
0.00636542
-0.14621
-0.267346
-0.304654
-0.303852
-0.304215
-0.303826
-0.303399
-0.706073
-0.668659
-0.601119
-0.515458
-0.421503
-0.323932
-0.225003
-0.127259
-0.0343841
0.0459272
0.0911656
0.0660258
-0.0739368
-0.203698
-0.289024
-0.297754
-0.3002
-0.301034
-0.300894
-0.300625
-0.740568
-0.703204
-0.636052
-0.551202
-0.458656
-0.363149
-0.267056
-0.173197
-0.0854085
-0.011165
0.0236492
-0.00844531
-0.144049
-0.249178
-0.292989
-0.303988
-0.299989
-0.298316
-0.297573
-0.297341
-0.772888
-0.736329
-0.67015
-0.586557
-0.495891
-0.402915
-0.310099
-0.22046
-0.138109
-0.069635
-0.038998
-0.0858432
-0.204625
-0.29598
-0.312424
-0.308266
-0.300366
-0.293974
-0.292072
-0.291569
-0.801953
-0.7665
-0.701978
-0.620296
-0.532126
-0.442263
-0.353261
-0.268145
-0.19133
-0.128817
-0.100494
-0.151135
-0.251246
-0.334609
-0.352446
-0.327239
-0.304469
-0.292451
-0.288828
-0.287499
-0.825003
-0.791546
-0.729734
-0.650859
-0.566016
-0.47998
-0.395425
-0.315194
-0.243988
-0.186536
-0.162483
-0.197981
-0.275296
-0.343845
-0.343569
-0.336933
-0.329374
-0.322271
-0.316395
-0.313319
-0.839871
-0.809268
-0.751286
-0.676442
-0.59599
-0.514657
-0.435222
-0.360426
-0.29498
-0.24053
-0.217835
-0.235004
-0.259146
-0.327045
-0.327441
-0.349444
-0.370226
-0.369431
-0.363035
-0.361427
-0.843803
-0.8172
-0.764454
-0.695129
-0.62034
-0.544831
-0.471126
-0.402522
-0.34258
-0.291946
-0.261686
-0.272738
-0.218
-0.230195
-0.268726
-0.321282
-0.351382
-0.359559
-0.361894
-0.363646
-0.834442
-0.812789
-0.767035
-0.705088
-0.637494
-0.569065
-0.501841
-0.439715
-0.385306
-0.343041
-0.293829
-0.318865
-0.251848
-0.127714
-0.240341
-0.317678
-0.353503
-0.373628
-0.38345
-0.386446
-0.809088
-0.793164
-0.757023
-0.705012
-0.646344
-0.586115
-0.526492
-0.470295
-0.423253
-0.388625
-0.349747
-0.404721
-0.489102
-0.485484
-0.492848
-0.496637
-0.494391
-0.491282
-0.490063
-0.490337
-0.771169
-0.761013
-0.735428
-0.695055
-0.646754
-0.595496
-0.544121
-0.494035
-0.453096
-0.426854
-0.424511
-0.523385
-0.764526
-0.963191
-0.840236
-0.692209
-0.626424
-0.595316
-0.58051
-0.576154
-0.727789
-0.722086
-0.707194
-0.678211
-0.640538
-0.598073
-0.553627
-0.510769
-0.472191
-0.453392
-0.446017
-0.554192
-0.624836
-0.74354
-0.631794
-0.537081
-0.520375
-0.504308
-0.490647
-0.48921
-0.689118
-0.685759
-0.678694
-0.659816
-0.630759
-0.595216
-0.556788
-0.516963
-0.481078
-0.454881
-0.443982
-0.435547
-0.343136
-0.295027
-0.396637
-0.496092
-0.539948
-0.489439
-0.416604
-0.406907
-0.661132
-0.659222
-0.655637
-0.644059
-0.621358
-0.59031
-0.554691
-0.516112
-0.477624
-0.44312
-0.444433
-0.390343
-0.311354
-0.261738
-0.210286
-0.290313
-0.351742
-0.365699
-0.333742
-0.316832
-0.63994
-0.639215
-0.638005
-0.632199
-0.614926
-0.586683
-0.550695
-0.509939
-0.464215
-0.426024
-0.400834
-0.359188
-0.221447
-0.12394
-0.0745127
-0.0673692
-0.0960417
-0.139664
-0.149884
-0.148591
-0.62758
-0.627244
-0.626581
-0.624009
-0.611789
-0.584455
-0.545518
-0.498192
-0.448143
-0.387938
-0.326463
-0.262487
-0.148585
-0.0923459
-0.109491
-0.118779
-0.116045
-0.050187
0.0228652
0.055421
-0.619934
-0.619729
-0.619352
-0.619009
-0.61145
-0.584286
-0.540397
-0.487424
-0.422978
-0.341498
-0.256713
-0.104161
0.026004
0.114414
0.189399
0.238741
0.34592
0.532736
0.672658
0.729984
-0.614922
-0.615325
-0.616272
-0.61771
-0.612352
-0.584882
-0.536899
-0.47693
-0.399347
-0.306555
-0.192929
-0.0398348
0.201879
0.451643
0.714347
0.982512
1.23735
1.43819
1.54876
1.58582
-0.606169
-0.607301
-0.609601
-0.611579
-0.606998
-0.58148
-0.536462
-0.474518
-0.390892
-0.277881
-0.158665
-0.0328391
0.206862
0.49549
0.908777
1.28456
1.57444
1.76714
1.85138
1.87368
-0.604884
-0.60417
-0.597449
-0.58487
-0.577731
-0.571178
-0.545135
-0.483306
-0.388855
-0.269598
-0.143133
-0.0178889
0.170757
0.483913
0.844379
1.17643
1.43328
1.58104
1.64062
1.65482
-0.640005
-0.635561
-0.618799
-0.591542
-0.578352
-0.590872
-0.577693
-0.501084
-0.392159
-0.272286
-0.146966
-0.0301428
0.0948178
0.334221
0.648997
0.913144
1.11153
1.21426
1.25396
1.26165
-0.722611
-0.72166
-0.727634
-0.738926
-0.734757
-0.721917
-0.653339
-0.527337
-0.39671
-0.276171
-0.155352
-0.0570539
0.0391216
0.205888
0.435012
0.62523
0.764477
0.83389
0.859065
0.861035
-0.847143
-0.862047
-0.901093
-0.931879
-0.927601
-0.87776
-0.736056
-0.552467
-0.402025
-0.274523
-0.169076
-0.088743
-0.0239866
0.104279
0.254052
0.375685
0.463276
0.504649
0.518088
0.520361
-0.905043
-0.92694
-0.961737
-0.987272
-0.981921
-0.915246
-0.732929
-0.540032
-0.39163
-0.268005
-0.178103
-0.113844
-0.0704394
0.0102552
0.108103
0.18076
0.221933
0.237629
0.244141
0.244923
-0.782482
-0.802663
-0.836037
-0.86488
-0.861404
-0.7817
-0.61699
-0.471026
-0.34254
-0.244192
-0.177207
-0.133057
-0.0993222
-0.0483573
0.00601523
0.0377852
0.0473855
0.0495406
0.0539373
0.0557065
-0.479291
-0.496858
-0.527704
-0.559659
-0.5663
-0.516638
-0.432005
-0.343878
-0.260916
-0.203431
-0.165698
-0.137756
-0.129881
-0.079541
-0.0401169
-0.0270759
-0.0291457
-0.0297374
-0.0275699
-0.0258167
-0.136088
-0.14563
-0.166136
-0.194603
-0.218769
-0.224322
-0.218482
-0.199721
-0.17576
-0.149871
-0.136824
-0.138753
-0.141338
-0.106157
-0.0722144
-0.0493817
-0.0399315
-0.0334729
-0.030743
-0.0303736
0.0965068
0.0922332
0.0790262
0.0520238
0.0130176
-0.0295999
-0.0630402
-0.0863763
-0.0971499
-0.0936225
-0.100832
-0.116209
-0.125221
-0.077705
-0.0426491
-0.0277105
-0.015891
-0.010282
-0.008341
-0.00864735
0.192897
0.190542
0.180958
0.157732
0.119322
0.0716805
0.0267221
-0.00910946
-0.0329835
-0.0443495
-0.0538772
-0.0626464
-0.0645933
-0.0358392
-0.00696408
0.0048122
0.0139562
0.0175112
0.0184
0.0178286
0.208835
0.207241
0.200489
0.183471
0.15414
0.11653
0.0766642
0.0410731
0.0147111
0.00175167
-0.00128754
0.00463862
0.0185395
0.0297097
0.0366451
0.0384066
0.0415552
0.0437279
0.0440618
0.0434901
0.192798
0.191816
0.187452
0.176165
0.156085
0.128896
0.0985547
0.0701792
0.048463
0.0398533
0.046514
0.0677546
0.0887946
0.0916839
0.0859782
0.0792669
0.0762486
0.0755016
0.0746481
0.0738043
0.167145
0.166616
0.163959
0.156851
0.143769
0.12539
0.10387
0.0831293
0.0675139
0.0650764
0.0812828
0.112129
0.138586
0.131911
0.117079
0.107954
0.104525
0.103434
0.102627
0.101668
0.139925
0.139759
0.138245
0.133961
0.125748
0.113828
0.0993898
0.0852853
0.0753476
0.0772983
0.0983338
0.133191
0.160799
0.150289
0.132299
0.123501
0.121444
0.121071
0.119783
0.118424
0.114069
0.113974
0.11314
0.110621
0.105543
0.0979632
0.0884466
0.0789617
0.072574
0.0754824
0.0950306
0.126996
0.150144
0.137162
0.1226
0.117529
0.11645
0.116082
0.114714
0.113535
0.0900572
0.0900694
0.0896105
0.0881581
0.0850725
0.0802089
0.0738677
0.0670611
0.0616681
0.0617802
0.0721704
0.0912793
0.102841
0.091502
0.0838385
0.0863891
0.0905226
0.092237
0.0915079
0.0903655
0.0680957
0.0681294
0.067898
0.0671023
0.0652801
0.0621656
0.0577372
0.0523043
0.0461367
0.0400239
0.0340982
0.0285686
0.0199547
0.0150516
0.0239884
0.0377697
0.0468997
0.0498471
0.0497179
0.0488846
0.0483877
0.0484144
0.0482864
0.0478595
0.0468518
0.0448659
0.0416512
0.0368183
0.0297095
0.0166828
-0.00786878
-0.0455217
-0.0768576
-0.0695732
-0.0415107
-0.0176431
-0.00508931
-0.0021557
-0.00173102
-0.00191863
0.030971
0.0309791
0.030913
0.0307588
0.03029
0.0291825
0.0271082
0.0231456
0.0156838
-0.000341603
-0.0362505
-0.0970089
-0.133434
-0.112408
-0.0753705
-0.0526705
-0.0452555
-0.0433915
-0.0419327
-0.0412834
0.0158609
0.0158511
0.0158235
0.0158367
0.0157408
0.0152446
0.0139288
0.0114719
0.00660011
-0.00601923
-0.036248
-0.0899291
-0.112688
-0.0881721
-0.0609345
-0.0505721
-0.050013
-0.0508927
-0.0492396
-0.0481975
0.00283665
0.00284507
0.00282679
0.00286013
0.00303832
0.00315169
0.00308256
0.00276049
0.0019701
0.000395791
-0.00497587
-0.0165148
-0.029109
-0.0234467
-0.0220003
-0.0210781
-0.0211569
-0.018852
-0.0161108
-0.0143936
0.0625853
0.252312
0.426648
0.574904
0.694363
0.789337
0.868764
0.933447
0.950083
0.94653
0.355133
0.477345
0.59205
0.692021
0.776473
0.846441
0.901708
0.939193
0.959278
0.975852
0.553954
0.635536
0.716353
0.787527
0.848405
0.898964
0.938796
0.969118
0.991849
1.0111
0.700805
0.758471
0.817179
0.869938
0.915483
0.954177
0.986586
1.01373
1.03416
1.05308
0.817905
0.861864
0.90577
0.946507
0.982781
1.01481
1.04279
1.06648
1.08451
1.10256
0.917574
0.953196
0.9883
1.02221
1.05346
1.08174
1.10669
1.12762
1.14345
1.16093
1.00573
1.03796
1.07028
1.10151
1.13059
1.15702
1.18018
1.19916
1.2131
1.23012
1.09288
1.12553
1.15802
1.18927
1.21808
1.2439
1.26606
1.28362
1.29601
1.31256
1.18738
1.22381
1.25861
1.2911
1.3203
1.34568
1.36683
1.38313
1.39476
1.41093
1.30048
1.34106
1.3781
1.41109
1.43961
1.46362
1.48327
1.49856
1.51046
1.52657
1.44185
1.48296
1.51824
1.54785
1.57308
1.59471
1.61323
1.62872
1.64183
1.65782
1.61348
1.64594
1.67283
1.69517
1.71527
1.734
1.75174
1.76849
1.78341
1.79922
1.79991
1.8172
1.83433
1.85102
1.86711
1.88185
1.89574
1.91019
1.92543
1.94285
1.98313
1.99307
2.00624
2.0172
2.0266
2.03624
2.04684
2.05704
2.06638
2.09178
2.20059
2.19482
2.18182
2.16757
2.16128
2.16698
2.18509
2.21359
2.24737
2.28366
2.50386
2.36802
2.28855
2.246
2.2286
2.23262
2.26011
2.31803
2.42568
2.6039
0.813949
0.807649
0.799915
0.788799
0.77523
0.762583
0.752183
0.744163
0.738432
0.735083
0.73471
0.737526
0.742744
0.750089
0.759627
0.771446
0.784997
0.79792
0.806909
0.814447
0.723063
0.72899
0.737054
0.743177
0.746237
0.745715
0.742619
0.738612
0.735008
0.732705
0.732552
0.734787
0.738527
0.742963
0.747058
0.749301
0.748228
0.743594
0.736545
0.728711
0.716325
0.718697
0.721964
0.724736
0.727181
0.72936
0.730526
0.730362
0.729406
0.728578
0.728772
0.730169
0.731939
0.733161
0.733083
0.731615
0.729455
0.727089
0.724101
0.721083
0.711549
0.712637
0.714551
0.716885
0.718751
0.720142
0.721349
0.722325
0.722904
0.723259
0.723791
0.724517
0.724972
0.724845
0.72421
0.723281
0.721946
0.719972
0.717862
0.716384
0.706545
0.707179
0.708305
0.710057
0.711893
0.713477
0.714715
0.715761
0.716721
0.717594
0.718355
0.718856
0.71898
0.718761
0.718216
0.717235
0.715803
0.714189
0.712849
0.712047
0.701645
0.702085
0.702871
0.704169
0.705682
0.707234
0.708696
0.709972
0.711101
0.712159
0.713083
0.713663
0.713825
0.713576
0.712902
0.711894
0.710735
0.709586
0.708679
0.708145
0.696842
0.69717
0.69778
0.698843
0.700129
0.701515
0.702976
0.704427
0.705788
0.707055
0.708169
0.708887
0.709093
0.708833
0.708223
0.707429
0.706575
0.705714
0.705049
0.704657
0.69211
0.692365
0.692856
0.69376
0.694922
0.696215
0.697617
0.699117
0.700662
0.702183
0.703539
0.704424
0.70474
0.704621
0.704223
0.703664
0.70302
0.702385
0.701899
0.701599
0.687379
0.687582
0.68799
0.688784
0.689867
0.691111
0.692497
0.694038
0.69572
0.697482
0.699125
0.700265
0.700811
0.700931
0.700768
0.700431
0.699992
0.699546
0.699199
0.698963
0.682566
0.68273
0.68308
0.6838
0.684836
0.68606
0.687473
0.689095
0.69093
0.692943
0.694925
0.69642
0.697287
0.697694
0.697782
0.697671
0.697442
0.697168
0.696935
0.696746
0.677584
0.677717
0.678026
0.678701
0.679719
0.680967
0.682446
0.684194
0.686235
0.688557
0.690955
0.692889
0.69414
0.694878
0.695249
0.69538
0.695358
0.695249
0.695114
0.694961
0.672346
0.672454
0.672735
0.673391
0.674426
0.675742
0.677331
0.679257
0.68157
0.684284
0.687195
0.689657
0.691362
0.692483
0.693176
0.693569
0.693759
0.693818
0.693768
0.693643
0.666757
0.666843
0.667108
0.66777
0.668858
0.670282
0.672037
0.674209
0.676879
0.680091
0.68363
0.686727
0.688967
0.690528
0.691581
0.692281
0.69271
0.692923
0.692946
0.692843
0.660709
0.660776
0.661035
0.661725
0.662904
0.664484
0.666468
0.668968
0.672094
0.675926
0.680235
0.684094
0.686969
0.689047
0.690514
0.691553
0.692243
0.692624
0.69272
0.692634
0.654076
0.654125
0.654386
0.655127
0.656435
0.658228
0.660517
0.663438
0.66714
0.671738
0.676984
0.681764
0.685395
0.688082
0.690031
0.691451
0.692444
0.693004
0.69317
0.693098
0.646704
0.646734
0.647004
0.647818
0.6493
0.65137
0.65405
0.657504
0.661921
0.667463
0.67385
0.679735
0.684266
0.687674
0.690198
0.692073
0.693404
0.694159
0.694395
0.694333
0.638396
0.638414
0.638687
0.639601
0.641311
0.643736
0.646913
0.651038
0.656348
0.663048
0.670818
0.678032
0.683633
0.687889
0.691091
0.693509
0.695227
0.696194
0.696502
0.696447
0.628846
0.62884
0.629167
0.630224
0.63223
0.63511
0.638917
0.643892
0.650322
0.658456
0.667902
0.676694
0.683556
0.688809
0.692805
0.695858
0.698019
0.699223
0.699603
0.699552
0.61777
0.617742
0.618117
0.619366
0.621745
0.625213
0.62983
0.635885
0.643723
0.653627
0.665102
0.675763
0.684098
0.690519
0.695445
0.699226
0.701899
0.703357
0.703808
0.703758
0.604689
0.604638
0.60509
0.606588
0.609452
0.613686
0.619353
0.626793
0.636406
0.648499
0.662422
0.67528
0.685324
0.693093
0.699107
0.703727
0.706973
0.708696
0.709213
0.709157
0.588955
0.588882
0.589456
0.591304
0.594815
0.600068
0.607125
0.616371
0.628244
0.643038
0.659891
0.675319
0.687323
0.696623
0.703873
0.709443
0.713314
0.715307
0.715877
0.71581
0.56963
0.56954
0.570313
0.572668
0.577091
0.583759
0.592713
0.604372
0.619172
0.637319
0.657639
0.675999
0.690195
0.701202
0.709812
0.716434
0.720965
0.723206
0.723807
0.723722
0.5453
0.545208
0.546313
0.549454
0.555248
0.563988
0.575634
0.590579
0.609166
0.63143
0.655786
0.677422
0.694022
0.706891
0.716964
0.72472
0.729893
0.732328
0.732928
0.732816
0.513655
0.513607
0.515314
0.519807
0.527886
0.539842
0.555449
0.574921
0.598364
0.625567
0.654517
0.67973
0.698892
0.713729
0.725353
0.734245
0.739967
0.742498
0.743051
0.742906
0.470556
0.470705
0.473714
0.481016
0.493363
0.510609
0.53208
0.557659
0.587148
0.620103
0.654121
0.683123
0.704915
0.721745
0.734912
0.744872
0.750945
0.753407
0.75386
0.75368
0.408302
0.409607
0.416902
0.430655
0.450808
0.476454
0.506194
0.539534
0.576154
0.615523
0.654907
0.687764
0.712167
0.73091
0.745474
0.756262
0.762408
0.764573
0.764865
0.764668
0.333908
0.336468
0.350637
0.374305
0.405133
0.440756
0.479481
0.521053
0.565274
0.611704
0.657349
0.695024
0.72286
0.744147
0.760485
0.772042
0.778176
0.780186
0.780444
0.780347
0.257711
0.26454
0.285813
0.31942
0.360653
0.406004
0.453716
0.503612
0.555571
0.609198
0.661237
0.703829
0.735176
0.759072
0.777258
0.789522
0.79531
0.796887
0.79707
0.797042
0.195591
0.204263
0.230139
0.270797
0.320233
0.373868
0.429708
0.48742
0.546758
0.607265
0.665405
0.712645
0.747226
0.773465
0.793056
0.80578
0.811495
0.812941
0.813173
0.8132
0.144704
0.154087
0.18347
0.229385
0.285001
0.34527
0.407958
0.472561
0.538657
0.605632
0.669565
0.72122
0.758835
0.787217
0.80829
0.821631
0.827378
0.829021
0.829344
0.829413
0.102066
0.111759
0.143545
0.193574
0.254261
0.320053
0.388553
0.45917
0.531338
0.604268
0.67363
0.7295
0.770038
0.800513
0.823012
0.837162
0.843382
0.845273
0.84563
0.845714
0.0652257
0.0750625
0.10866
0.161992
0.226925
0.297461
0.37103
0.44696
0.524602
0.603037
0.677537
0.737407
0.78078
0.813293
0.837204
0.852308
0.85905
0.861107
0.8615
0.86158
0.032523
0.0424227
0.0774561
0.133526
0.202069
0.276712
0.35477
0.43551
0.5182
0.601788
0.681152
0.744825
0.790866
0.825292
0.850562
0.8665
0.873812
0.876076
0.876488
0.876549
0.00271918
0.0126696
0.0488729
0.107308
0.178979
0.257225
0.339291
0.424421
0.511791
0.600237
0.684251
0.751592
0.800147
0.836363
0.862824
0.879533
0.887348
0.88979
0.890216
0.890257
-0.0251148
-0.0150965
0.0221624
0.0826976
0.157129
0.238559
0.324213
0.413343
0.50508
0.598156
0.686683
0.757588
0.80857
0.846424
0.873973
0.891274
0.899466
0.902059
0.902495
0.902511
-0.0515308
-0.0414274
-0.00318457
0.0592401
0.13611
0.220374
0.309266
0.402057
0.497872
0.595384
0.688324
0.762773
0.816137
0.855549
0.884036
0.901812
0.910194
0.912881
0.913321
0.913307
-0.0769727
-0.0667103
-0.027546
0.0365975
0.115644
0.202448
0.29427
0.390417
0.490031
0.591787
0.689096
0.767126
0.822897
0.863827
0.893142
0.911255
0.919689
0.922364
0.9228
0.922765
-0.101711
-0.091215
-0.0511682
0.0145561
0.0955581
0.184635
0.279107
0.378327
0.48147
0.587283
0.688939
0.770642
0.828917
0.871385
0.901428
0.919722
0.928133
0.93076
0.931156
0.931089
-0.125838
-0.115084
-0.074188
-0.00701202
0.075747
0.166865
0.263721
0.365739
0.472154
0.581818
0.687785
0.773314
0.834273
0.878363
0.909104
0.927469
0.935731
0.938244
0.938587
0.938499
-0.149455
-0.13843
-0.096708
-0.0281597
0.0561709
0.149108
0.248103
0.352652
0.462073
0.575371
0.685582
0.775116
0.83903
0.884909
0.91633
0.93462
0.942618
0.944944
0.945198
0.945077
-0.172573
-0.161278
-0.118734
-0.0489075
0.0368319
0.131379
0.232284
0.339101
0.45125
0.56793
0.682285
0.775994
0.843205
0.891156
0.923291
0.941324
0.948853
0.950887
0.951026
0.950876
-0.195253
-0.183619
-0.140235
-0.0692411
0.0177467
0.113715
0.216309
0.325144
0.439739
0.559516
0.677853
0.775869
0.846761
0.897221
0.930228
0.947801
0.954567
0.956138
0.956137
0.95597
-0.21727
-0.205402
-0.161191
-0.0891381
-0.00103867
0.0961885
0.200245
0.310853
0.427612
0.550183
0.672259
0.774651
0.849604
0.903144
0.937425
0.95447
0.960064
0.96083
0.960593
0.960423
-0.238775
-0.226572
-0.181571
-0.10857
-0.0194867
0.0788433
0.184188
0.296312
0.414955
0.540007
0.665503
0.772242
0.851584
0.908823
0.945098
0.961962
0.966023
0.965307
0.964476
0.964328
-0.259584
-0.247086
-0.201354
-0.127484
-0.0375142
0.061767
0.168224
0.281642
0.401876
0.529057
0.65761
0.76854
0.852516
0.913988
0.953167
0.970929
0.973811
0.970848
0.968329
0.96779
-0.279794
-0.266966
-0.220479
-0.14582
-0.0550821
0.0450304
0.152441
0.266926
0.388485
0.517468
0.648645
0.763434
0.852197
0.918228
0.961055
0.981378
0.984954
0.980472
0.974282
0.965244
-0.299284
-0.286204
-0.239035
-0.163744
-0.0724136
0.028348
0.136498
0.251755
0.374327
0.504732
0.638085
0.756343
0.850204
0.921225
0.968053
0.992499
0.999544
0.995056
0.984355
0.982596
-0.318016
-0.30487
-0.257012
-0.181197
-0.0894872
0.0117558
0.120428
0.236113
0.35937
0.490727
0.625755
0.746784
0.845807
0.922178
0.972172
0.999914
1.00953
1.00834
0.974627
0.935545
-0.335758
-0.32284
-0.274349
-0.198058
-0.106284
-0.00475431
0.104237
0.220133
0.343686
0.475492
0.611588
0.734418
0.837908
0.920258
0.971484
0.994689
1.00423
0.985893
0.933917
0.878808
-0.355171
-0.338829