/*--------------------------------*- C++ -*----------------------------------*\
  =========                 |
  \\      /  F ield         | OpenFOAM: The Open Source CFD Toolbox
   \\    /   O peration     | Website:  https://openfoam.org
    \\  /    A nd           | Version:  6
     \\/     M anipulation  |
\*---------------------------------------------------------------------------*/
FoamFile
{
    version     2.0;
    format      ascii;
    class       volVectorField;
    location    "36";
    object      U;
}
// * * * * * * * * * * * * * * * * * * * * * * * * * * * * * * * * * * * * * //

dimensions      [0 1 -1 0 0 0 0];

internalField   nonuniform List<vector> 
8800
(
(0.987199 -0.0767054 0)
(1.0019 -0.0551753 0)
(0.999751 -0.0285473 0)
(1.00004 -0.0151462 0)
(1.00005 -0.00854137 0)
(1.00003 -0.0050378 0)
(1.00001 -0.00300515 0)
(0.999982 -0.00172518 0)
(0.999969 -0.000831716 0)
(1.00005 -0.000122464 0)
(0.999981 0.000601163 0)
(0.999996 0.00136232 0)
(1.00001 0.00239578 0)
(1.00002 0.00398185 0)
(1.00003 0.00662061 0)
(1.00002 0.0113638 0)
(0.999928 0.0208093 0)
(0.99916 0.0386522 0)
(1.0071 0.072455 0)
(0.771226 0.0366889 0)
(0.363024 -0.0160173 0)
(1.0433 -0.0768368 0)
(1.08463 -0.0704626 0)
(1.04524 -0.0535693 0)
(1.02329 -0.0389188 0)
(1.01196 -0.0262431 0)
(1.00635 -0.016902 0)
(1.00353 -0.0104078 0)
(1.00211 -0.0057753 0)
(1.00143 -0.00213481 0)
(1.00131 0.001166 0)
(1.00169 0.00454245 0)
(1.00266 0.00848168 0)
(1.00464 0.0138425 0)
(1.0086 0.0215716 0)
(1.01658 0.0325525 0)
(1.03252 0.0464798 0)
(1.0627 0.061615 0)
(1.09191 0.0760554 0)
(0.838719 0.0565661 0)
(0.216768 -0.00242356 0)
(1.07584 -0.0501793 0)
(1.09986 -0.0483766 0)
(1.06461 -0.0405343 0)
(1.03994 -0.0336812 0)
(1.02378 -0.0261783 0)
(1.01402 -0.01864 0)
(1.00849 -0.0118575 0)
(1.00555 -0.00600835 0)
(1.00432 -0.000625603 0)
(1.00469 0.00458867 0)
(1.00663 0.00997932 0)
(1.01062 0.0161068 0)
(1.01793 0.0231747 0)
(1.03055 0.0306734 0)
(1.05064 0.0377254 0)
(1.08037 0.044434 0)
(1.10632 0.0512738 0)
(0.94267 0.0415775 0)
(0.216259 0.00244749 0)
(0.175057 -0.000816966 0)
(1.01754 -0.0355348 0)
(1.10514 -0.0414624 0)
(1.07818 -0.0361615 0)
(1.05331 -0.0302359 0)
(1.03601 -0.0246817 0)
(1.02385 -0.019019 0)
(1.01577 -0.0130029 0)
(1.01095 -0.00686048 0)
(1.00879 -0.000562442 0)
(1.0094 0.00567145 0)
(1.01268 0.0116571 0)
(1.01888 0.0175202 0)
(1.02878 0.0231404 0)
(1.04326 0.0284922 0)
(1.06378 0.0340142 0)
(1.09363 0.0400311 0)
(1.09357 0.041835 0)
(0.827508 0.0228554 0)
(0.174199 0.000843872 0)
(0.153803 -0.000612227 0)
(0.955889 -0.0255191 0)
(1.10332 -0.0352374 0)
(1.08754 -0.0327907 0)
(1.0615 -0.028161 0)
(1.04386 -0.0231818 0)
(1.03144 -0.0180133 0)
(1.02263 -0.0125482 0)
(1.01688 -0.00666639 0)
(1.01411 -0.000255743 0)
(1.01484 0.00616872 0)
(1.01884 0.0120475 0)
(1.02585 0.0173818 0)
(1.03616 0.0223676 0)
(1.05079 0.0271893 0)
(1.07204 0.0317632 0)
(1.10025 0.0357339 0)
(1.06843 0.0338527 0)
(0.740206 0.0142377 0)
(0.152515 0.000642763 0)
(0.139373 -0.000468975 0)
(0.898808 -0.0191425 0)
(1.09553 -0.0302023 0)
(1.09551 -0.0293439 0)
(1.06892 -0.0256368 0)
(1.05047 -0.0215508 0)
(1.0376 -0.016889 0)
(1.02855 -0.0117181 0)
(1.02251 -0.00606372 0)
(1.01947 0.000199572 0)
(1.02017 0.00648707 0)
(1.02432 0.0121155 0)
(1.03148 0.0170954 0)
(1.04203 0.0216102 0)
(1.05722 0.0256542 0)
(1.07944 0.0291849 0)
(1.10257 0.0318665 0)
(1.03663 0.0278702 0)
(0.67406 0.0101107 0)
(0.137561 0.000504097 0)
(0.128771 -0.00036409 0)
(0.849009 -0.0147836 0)
(1.08299 -0.0260905 0)
(1.1011 -0.0264322 0)
(1.07567 -0.0231864 0)
(1.05666 -0.0196198 0)
(1.04333 -0.0154935 0)
(1.03394 -0.0106912 0)
(1.02767 -0.00527821 0)
(1.02447 0.000766436 0)
(1.02508 0.00679688 0)
(1.02922 0.0121393 0)
(1.0365 0.0167196 0)
(1.04735 0.0206627 0)
(1.063 0.0240481 0)
(1.08568 0.0270727 0)
(1.10187 0.0289006 0)
(1.00217 0.0232712 0)
(0.622777 0.00771702 0)
(0.126322 0.000405334 0)
(0.120668 -0.000283429 0)
(0.806665 -0.0116202 0)
(1.06751 -0.0224769 0)
(1.10445 -0.0238095 0)
(1.08176 -0.0210086 0)
(1.06235 -0.0176921 0)
(1.04876 -0.0138981 0)
(1.03909 -0.00945447 0)
(1.03253 -0.00434553 0)
(1.0291 0.00144527 0)
(1.02959 0.0072036 0)
(1.03374 0.0121758 0)
(1.04113 0.0162883 0)
(1.05213 0.0197294 0)
(1.06799 0.0227045 0)
(1.09101 0.0254362 0)
(1.09834 0.0263942 0)
(0.967552 0.0196152 0)
(0.581859 0.00614304 0)
(0.117447 0.000332458 0)
(0.114381 -0.000220324 0)
(0.771016 -0.00924389 0)
(1.05053 -0.0192842 0)
(1.10665 -0.0213637 0)
(1.08744 -0.0189248 0)
(1.0676 -0.0157718 0)
(1.05375 -0.0121953 0)
(1.04389 -0.00802471 0)
(1.03711 -0.00321186 0)
(1.03345 0.00226975 0)
(1.03376 0.00768795 0)
(1.03784 0.012241 0)
(1.04522 0.0159072 0)
(1.05626 0.0189421 0)
(1.07239 0.0215981 0)
(1.09517 0.0240406 0)
(1.09215 0.0242344 0)
(0.934154 0.0167342 0)
(0.54834 0.00504554 0)
(0.110221 0.000278973 0)
(0.109478 -0.000169295 0)
(0.74116 -0.0073818 0)
(1.0331 -0.0164245 0)
(1.10784 -0.0190586 0)
(1.09278 -0.0169922 0)
(1.07265 -0.0139687 0)
(1.05854 -0.0104754 0)
(1.04851 -0.00644879 0)
(1.04156 -0.00187483 0)
(1.03766 0.00326871 0)
(1.03775 0.00827486 0)
(1.04165 0.0124114 0)
(1.04891 0.0157125 0)
(1.05997 0.0184524 0)
(1.07632 0.0208232 0)
(1.09809 0.0228863 0)
(1.08369 0.0223527 0)
(0.90263 0.0144666 0)
(0.520251 0.00425201 0)
(0.104179 0.000239904 0)
(0.105685 -0.000126581 0)
(0.716337 -0.00586037 0)
(1.01612 -0.0138176 0)
(1.10812 -0.0167441 0)
(1.09791 -0.0149616 0)
(1.07756 -0.0120138 0)
(1.06319 -0.00864086 0)
(1.05295 -0.00476752 0)
(1.04576 -0.000405157 0)
(1.0416 0.00446909 0)
(1.04139 0.00912578 0)
(1.04507 0.0128577 0)
(1.05221 0.0157555 0)
(1.06329 0.0181158 0)
(1.07982 0.0201552 0)
(1.09973 0.0218693 0)
(1.07344 0.0206771 0)
(0.873227 0.0126737 0)
(0.496237 0.00366744 0)
(0.0989963 0.000211723 0)
(0.102812 -8.98252e-05 0)
(0.695943 -0.0045702 0)
(1.00023 -0.0114211 0)
(1.10773 -0.0144907 0)
(1.10285 -0.0129377 0)
(1.08234 -0.0100112 0)
(1.06764 -0.00669316 0)
(1.05717 -0.00290499 0)
(1.04976 0.0013174 0)
(1.04529 0.00591572 0)
(1.04472 0.0101819 0)
(1.04809 0.0135244 0)
(1.05503 0.0160573 0)
(1.06608 0.0180546 0)
(1.08283 0.0197997 0)
(1.1005 0.0211244 0)
(1.0618 0.0193015 0)
(0.845886 0.0112916 0)
(0.475287 0.00324787 0)
(0.0944281 0.000193993 0)
(0.100748 -5.52196e-05 0)
(0.679574 -0.00340896 0)
(0.985901 -0.00911342 0)
(1.10676 -0.0121219 0)
(1.10744 -0.0107779 0)
(1.08709 -0.00788527 0)
(1.07203 -0.00453766 0)
(1.06123 -0.000779696 0)
(1.05344 0.00331556 0)
(1.04851 0.00767142 0)
(1.04754 0.0115956 0)
(1.05059 0.0145048 0)
(1.05737 0.016623 0)
(1.06844 0.0182674 0)
(1.08533 0.0196856 0)
(1.10021 0.0205659 0)
(1.04897 0.018117 0)
(0.820462 0.0102039 0)
(0.45667 0.00293825 0)
(0.0902902 0.000182307 0)
(0.0994443 -2.12142e-05 0)
(0.666985 -0.00230905 0)
(0.973598 -0.00684143 0)
(1.10558 -0.00955926 0)
(1.11177 -0.00828943 0)
(1.09182 -0.00538508 0)
(1.07645 -0.00201105 0)
(1.06529 0.00169072 0)
(1.05708 0.00566361 0)
(1.05166 0.0098105 0)
(1.05012 0.0133875 0)
(1.05276 0.0158458 0)
(1.05929 0.0174743 0)
(1.07029 0.0186535 0)
(1.08714 0.019693 0)
(1.09888 0.020172 0)
(1.03525 0.0171166 0)
(0.796767 0.00936161 0)
(0.439834 0.00271894 0)
(0.0864448 0.000176805 0)
(0.0988947 1.66104e-05 0)
(0.658135 -0.00121639 0)
(0.963712 -0.00452157 0)
(1.10464 -0.00679062 0)
(1.11614 -0.00552115 0)
(1.09667 -0.00258082 0)
(1.08089 0.000830623 0)
(1.06938 0.00458528 0)
(1.06072 0.00852884 0)
(1.05467 0.012437 0)
(1.05248 0.0155894 0)
(1.05456 0.0175709 0)
(1.06069 0.0187298 0)
(1.07159 0.0194584 0)
(1.08845 0.0200663 0)
(1.09644 0.0200116 0)
(1.02087 0.0163739 0)
(0.77456 0.00874982 0)
(0.424343 0.00258488 0)
(0.0827763 0.000177208 0)
(0.0991129 4.48378e-05 0)
(0.653013 -9.01645e-05 0)
(0.956504 -0.00210458 0)
(1.10409 -0.00379451 0)
(1.12047 -0.0025085 0)
(1.10155 0.000494698 0)
(1.08535 0.00406826 0)
(1.07333 0.00791957 0)
(1.06407 0.0118673 0)
(1.05729 0.0156427 0)
(1.05425 0.0184558 0)
(1.05564 0.0199408 0)
(1.06137 0.0205231 0)
(1.07214 0.0207162 0)
(1.08879 0.0208536 0)
(1.09274 0.0201939 0)
(1.00574 0.0158801 0)
(0.753537 0.00835312 0)
(0.409754 0.00252581 0)
(0.0791612 0.000182707 0)
(0.100189 0.000108883 0)
(0.6518 0.00113887 0)
(0.952344 0.000467367 0)
(1.10431 -0.000402036 0)
(1.12491 0.00107972 0)
(1.10665 0.00422282 0)
(1.09007 0.00799487 0)
(1.07744 0.0120117 0)
(1.06737 0.015991 0)
(1.05957 0.0195905 0)
(1.05558 0.0219649 0)
(1.05623 0.0228418 0)
(1.06144 0.0228243 0)
(1.07196 0.0224385 0)
(1.08807 0.0219405 0)
(1.08758 0.0205855 0)
(0.989987 0.0156291 0)
(0.733418 0.00816281 0)
(0.395703 0.00253452 0)
(0.0755051 0.000191838 0)
(0.102243 0.000150502 0)
(0.65434 0.00231833 0)
(0.951661 0.00324685 0)
(1.10592 0.00333169 0)
(1.12982 0.00516805 0)
(1.11211 0.00855962 0)
(1.09509 0.0125678 0)
(1.08185 0.0168055 0)
(1.07098 0.0209319 0)
(1.06209 0.024433 0)
(1.05679 0.0263937 0)
(1.0563 0.0266999 0)
(1.06077 0.0259621 0)
(1.07091 0.0248659 0)
(1.08625 0.0236633 0)
(1.08095 0.0214907 0)
(0.973498 0.0158149 0)
(0.71373 0.00825263 0)
(0.381768 0.00263041 0)
(0.0717267 0.000204719 0)
(0.105438 0.000218059 0)
(0.661478 0.00373548 0)
(0.954523 0.00612143 0)
(1.10915 0.00741349 0)
(1.13529 0.00969477 0)
(1.11793 0.0134714 0)
(1.10035 0.0179158 0)
(1.08627 0.0225543 0)
(1.07419 0.0269314 0)
(1.06376 0.0303835 0)
(1.057 0.0319181 0)
(1.0554 0.0315237 0)
(1.059 0.0300333 0)
(1.06865 0.0281927 0)
(1.08308 0.0262362 0)
(1.07265 0.023088 0)
(0.955908 0.0165794 0)
(0.693843 0.00873366 0)
(0.367337 0.00284902 0)
(0.0677152 0.000223064 0)
(0.10999 0.000300352 0)
(0.673308 0.00531251 0)
(0.961318 0.00932328 0)
(1.11441 0.0119659 0)
(1.14166 0.0149061 0)
(1.12456 0.019276 0)
(1.1064 0.0243457 0)
(1.09138 0.0295415 0)
(1.07796 0.0342821 0)
(1.06579 0.0377123 0)
(1.05711 0.0387629 0)
(1.05394 0.0375942 0)
(1.05637 0.0352556 0)
(1.06532 0.0326147 0)
(1.0784 0.0298245 0)
(1.06245 0.0255592 0)
(0.93694 0.0181595 0)
(0.672864 0.00973562 0)
(0.351568 0.00322391 0)
(0.0633047 0.000250273 0)
(0.116128 0.000404841 0)
(0.690137 0.00717352 0)
(0.972786 0.0130219 0)
(1.1224 0.0172198 0)
(1.1494 0.0211201 0)
(1.13225 0.0264173 0)
(1.11326 0.0323197 0)
(1.09687 0.0382047 0)
(1.08164 0.0433509 0)
(1.06722 0.046726 0)
(1.05631 0.0471252 0)
(1.05139 0.0450237 0)
(1.05261 0.0416899 0)
(1.06074 0.0382119 0)
(1.07208 0.0345848 0)
(1.0503 0.0291688 0)
(0.916082 0.0207049 0)
(0.649609 0.0112649 0)
(0.333531 0.00374721 0)
(0.058287 0.000286771 0)
(0.124269 0.00055085 0)
(0.712599 0.009621 0)
(0.989415 0.0175747 0)
(1.13384 0.0234987 0)
(1.15928 0.0287077 0)
(1.14148 0.0353056 0)
(1.12123 0.0422786 0)
(1.10305 0.0490167 0)
(1.08552 0.0545965 0)
(1.06836 0.0577651 0)
(1.05481 0.0573024 0)
(1.04784 0.054048 0)
(1.04764 0.0496294 0)
(1.05492 0.0451585 0)
(1.06417 0.0407154 0)
(1.03592 0.0340452 0)
(0.892456 0.0241835 0)
(0.622854 0.0132383 0)
(0.312446 0.00438032 0)
(0.0524912 0.000329757 0)
(0.13514 0.000767169 0)
(0.741862 0.0130627 0)
(1.01193 0.0235291 0)
(1.14935 0.0313804 0)
(1.17195 0.0381147 0)
(1.15267 0.0463215 0)
(1.13057 0.0546124 0)
(1.10995 0.0623502 0)
(1.08945 0.0683879 0)
(1.06895 0.071266 0)
(1.05232 0.0697786 0)
(1.04308 0.0651736 0)
(1.04136 0.0594285 0)
(1.04768 0.053848 0)
(1.05453 0.0484003 0)
(1.01866 0.040153 0)
(0.865047 0.0284709 0)
(0.591511 0.0155352 0)
(0.287779 0.00506763 0)
(0.0458266 0.000373174 0)
(0.149954 0.00111009 0)
(0.779752 0.0181581 0)
(1.04195 0.0317551 0)
(1.1696 0.0419621 0)
(1.18788 0.0507562 0)
(1.1661 0.0606431 0)
(1.14139 0.0704316 0)
(1.11751 0.0791325 0)
(1.09327 0.0854127 0)
(1.06879 0.0876592 0)
(1.04868 0.0848242 0)
(1.03688 0.0786584 0)
(1.03344 0.0714007 0)
(1.03868 0.0643583 0)
(1.0426 0.0574174 0)
(0.997643 0.0474341 0)
(0.832828 0.0335311 0)
(0.554669 0.018058 0)
(0.259277 0.005765 0)
(0.0383193 0.00041137 0)
(0.170864 0.0017136 0)
(0.829483 0.0260568 0)
(1.08219 0.0438129 0)
(1.19556 0.0572089 0)
(1.2075 0.0686601 0)
(1.18192 0.0804369 0)
(1.15351 0.0915253 0)
(1.12538 0.100707 0)
(1.09661 0.106505 0)
(1.06758 0.107293 0)
(1.0436 0.102301 0)
(1.02908 0.0940396 0)
(1.02374 0.0850695 0)
(1.02745 0.0765141 0)
(1.02771 0.0679107 0)
(0.972255 0.0559588 0)
(0.794601 0.0392805 0)
(0.511738 0.0207352 0)
(0.227021 0.00643033 0)
(0.0301156 0.000437612 0)
(0.201247 0.00305788 0)
(0.897005 0.0394471 0)
(1.13558 0.0634858 0)
(1.22786 0.0804552 0)
(1.23097 0.0950308 0)
(1.19954 0.108299 0)
(1.16608 0.119775 0)
(1.13261 0.128262 0)
(1.09857 0.132341 0)
(1.06453 0.130463 0)
(1.03648 0.122361 0)
(1.01921 0.111364 0)
(1.01208 0.10027 0)
(1.01413 0.0902418 0)
(1.00989 0.0802522 0)
(0.941645 0.0660397 0)
(0.748829 0.0454462 0)
(0.462977 0.0235513 0)
(0.191906 0.00706585 0)
(0.0216213 0.000445554 0)
(0.242855 0.00925125 6.40527e-20)
(0.986137 0.0661018 5.5612e-20)
(1.19983 0.0971691 -1.9242e-20)
(1.26461 0.115441 0)
(1.25586 0.133168 -4.68493e-34)
(1.2171 0.146221 6.79111e-21)
(1.17753 0.156325 -1.19019e-20)
(1.13807 0.162691 0)
(1.09828 0.164045 2.37069e-34)
(1.05879 0.158876 -1.40485e-20)
(1.02627 0.147495 0)
(1.00585 0.133787 -1.63628e-20)
(0.996758 0.120646 -4.80447e-20)
(0.997312 0.10935 -2.26245e-20)
(0.987577 0.0982148 -6.77983e-21)
(0.901081 0.0802195 -4.0166e-21)
(0.690943 0.05411 0)
(0.40557 0.0277178 2.81425e-21)
(0.154621 0.00868697 3.32518e-21)
(0.0136338 0.000686838 5.98327e-20)
(0.27076 0.0246059 5.15088e-20)
(1.05922 0.108232 5.19492e-22)
(1.25199 0.145373 5.33734e-21)
(1.29869 0.16395 0)
(1.27823 0.181352 -2.44678e-20)
(1.23235 0.192518 -2.73763e-20)
(1.18649 0.200459 -1.21858e-20)
(1.14089 0.204584 -4.23451e-20)
(1.09504 0.203558 0)
(1.0495 0.195878 6.00738e-20)
(1.0116 0.182294 5.902e-20)
(0.986943 0.166996 1.74384e-20)
(0.974668 0.152468 6.29655e-20)
(0.970772 0.13868 8.78622e-20)
(0.948747 0.122322 0)
(0.843773 0.0987238 1.23547e-19)
(0.623893 0.0663487 1.77423e-19)
(0.34833 0.0347235 1.97157e-19)
(0.122519 0.0113379 -2.25567e-19)
(0.00737863 0.000707224 -4.23294e-21)
(0.271047 0.0406471 0)
(1.10441 0.163018 1.00555e-20)
(1.28729 0.204408 0)
(1.32514 0.223199 -3.47795e-20)
(1.29599 0.237038 0)
(1.24399 0.244342 -5.5039e-20)
(1.1923 0.248831 2.51954e-20)
(1.14105 0.249817 -8.64411e-20)
(1.08961 0.24594 -1.57882e-21)
(1.0386 0.235577 3.13542e-20)
(0.995776 0.219658 1.29675e-19)
(0.966793 0.202453 -3.0609e-22)
(0.949869 0.185883 -4.57647e-20)
(0.938715 0.168992 -8.29639e-20)
(0.907121 0.148436 9.81766e-20)
(0.799825 0.120477 -1.73807e-19)
(0.588268 0.0829274 -2.29705e-20)
(0.329033 0.0449646 0)
(0.118867 0.0158058 6.66339e-24)
(0.00754605 0.0010167 0)
(0.263851 0.0543421 1.572e-19)
(1.12739 0.221353 -7.29024e-20)
(1.30872 0.268281 -5.0979e-20)
(1.34209 0.287234 1.71211e-20)
(1.30736 0.296822 -2.84333e-20)
(1.25093 0.299658 1.16113e-19)
(1.19466 0.300144 5.2988e-20)
(1.13866 0.297538 0)
(1.08238 0.290315 -1.5993e-19)
(1.02638 0.276677 0)
(0.978848 0.257542 -6.84468e-20)
(0.945426 0.237439 -8.34809e-20)
(0.923283 0.218122 -4.98951e-20)
(0.905407 0.198605 -6.02845e-20)
(0.869234 0.175857 0)
(0.768191 0.14568 0)
(0.572209 0.103977 -1.50359e-19)
(0.331284 0.0598844 2.96875e-20)
(0.12794 0.0229743 -1.74321e-20)
(0.0106224 0.00199504 -2.03806e-20)
(0.255963 0.0665384 -8.14759e-20)
(1.13619 0.279537 0)
(1.31965 0.333212 1.13762e-19)
(1.35058 0.352595 5.04742e-20)
(1.31233 0.358111 6.42015e-20)
(1.25298 0.356606 0)
(1.19342 0.353101 5.29864e-20)
(1.1336 0.346776 9.66195e-20)
(1.07315 0.335865 8.26847e-20)
(1.01262 0.318319 1.47617e-19)
(0.960601 0.295253 0)
(0.922891 0.271755 -1.80231e-19)
(0.896133 0.249756 -1.07904e-19)
(0.873404 0.228355 -6.36028e-20)
(0.835954 0.204928 3.88597e-19)
(0.743356 0.173505 4.63348e-20)
(0.563916 0.128052 2.18204e-19)
(0.33949 0.077525 -1.03111e-18)
(0.140887 0.0323703 6.12535e-19)
(0.0148636 0.00358753 -7.3825e-19)
(0.248804 0.0775505 -6.22261e-20)
(1.13629 0.335785 1.54989e-20)
(1.32298 0.397369 -1.46058e-20)
(1.35224 0.417554 -5.86186e-20)
(1.31183 0.419413 -5.86114e-20)
(1.25071 0.413887 1.76274e-21)
(1.18872 0.406604 -5.72698e-20)
(1.12583 0.396573 1.00731e-19)
(1.0618 0.381795 -1.77914e-19)
(0.997133 0.359992 0)
(0.941025 0.332743 -8.20992e-20)
(0.899505 0.305888 -1.61695e-21)
(0.869035 0.281596 -1.17771e-19)
(0.843143 0.259057 0)
(0.805749 0.235005 -8.4075e-20)
(0.72186 0.202244 -2.00174e-19)
(0.55758 0.153428 5.36026e-19)
(0.347928 0.0965673 -5.27161e-19)
(0.152986 0.0429624 7.49995e-19)
(0.0189037 0.00551856 -7.79309e-19)
(0.243112 0.0878447 -4.98918e-22)
(1.13132 0.38954 -1.22433e-20)
(1.32092 0.459743 -5.21721e-20)
(1.34867 0.481005 2.68965e-20)
(1.30696 0.479752 -3.01234e-20)
(1.24487 0.470643 0)
(1.18107 0.459824 -5.51405e-20)
(1.11562 0.446153 -1.05953e-19)
(1.04839 0.427472 -9.2984e-20)
(0.980029 0.401322 0)
(0.920231 0.369927 -8.55715e-20)
(0.875576 0.339967 -1.04743e-19)
(0.842386 0.313625 1.2748e-19)
(0.814632 0.290146 -7.69888e-20)
(0.777914 0.265617 -3.65814e-19)
(0.699961 0.231737 2.18585e-19)
(0.549605 0.179449 6.55703e-20)
(0.352395 0.115842 0)
(0.161226 0.0536188 -7.23361e-19)
(0.021941 0.00750382 -2.65087e-20)
(0.238906 0.0977428 -5.70063e-21)
(1.12359 0.440633 1.0346e-20)
(1.31528 0.520296 2.65636e-20)
(1.34127 0.542255 9.10119e-20)
(1.29872 0.53843 -1.17348e-19)
(1.23617 0.526209 1.20738e-19)
(1.17099 0.512123 1.18448e-19)
(1.10334 0.494951 -1.69384e-19)
(1.03326 0.472425 5.59669e-20)
(0.961541 0.442012 -3.62925e-19)
(0.898484 0.406605 -9.60084e-20)
(0.851223 0.373644 0)
(0.81611 0.34532 1.37889e-19)
(0.787262 0.320678 1.64411e-19)
(0.751369 0.295199 1.9638e-19)
(0.678398 0.25964 -2.36527e-19)
(0.538792 0.204119 -7.0036e-20)
(0.351544 0.133808 8.24591e-20)
(0.164277 0.0630836 0)
(0.0235405 0.00918342 -5.73423e-20)
(0.235977 0.107352 3.82765e-20)
(1.11465 0.489161 -3.2778e-20)
(1.30714 0.578225 -2.66273e-20)
(1.33117 0.600908 5.95079e-20)
(1.28803 0.594964 -5.65979e-20)
(1.22529 0.580065 -4.06864e-21)
(1.159 0.563018 -1.28591e-19)
(1.08944 0.54255 -6.10666e-20)
(1.01679 0.51634 -1.61118e-19)
(0.941991 0.48183 2.56423e-22)
(0.875996 0.442553 -3.01358e-19)
(0.826554 0.406597 2.50494e-19)
(0.790011 0.376183 -1.50692e-19)
(0.760481 0.350082 1.8021e-19)
(0.725285 0.323413 0)
(0.656118 0.285788 -1.27677e-19)
(0.525036 0.226723 -6.84621e-22)
(0.345507 0.149499 -3.57638e-19)
(0.162703 0.0705266 -5.26041e-20)
(0.0238506 0.0103909 0)
(0.234184 0.116857 0)
(1.10535 0.53536 -3.14239e-20)
(1.29736 0.633311 -4.54545e-20)
(1.31928 0.656752 -5.88002e-20)
(1.2756 0.649041 -6.68713e-20)
(1.21279 0.631859 0)
(1.1456 0.612158 -6.08472e-20)
(1.07435 0.588653 -1.1714e-21)
(0.999363 0.559011 3.4483e-19)
(0.921705 0.520631 -5.00979e-20)
(0.852987 0.47759 -2.17111e-19)
(0.801647 0.438587 1.30736e-19)
(0.763991 0.405884 -2.06764e-21)
(0.734067 0.378076 1.91576e-19)
(0.699474 0.349831 1.17572e-19)
(0.633168 0.309705 -2.75332e-19)
(0.508151 0.246411 3.26814e-19)
(0.334468 0.161935 9.66224e-20)
(0.156937 0.0753903 3.98555e-19)
(0.022818 0.0109352 -1.06692e-18)
(0.233348 0.126384 7.78956e-22)
(1.0962 0.57936 -8.69547e-21)
(1.28663 0.685634 1.2015e-20)
(1.30629 0.709738 5.45124e-20)
(1.26207 0.700504 0)
(1.1992 0.681362 -6.05849e-20)
(1.13122 0.659315 2.01424e-19)
(1.05847 0.633069 1.34613e-19)
(0.98133 0.600296 0)
(0.900969 0.558316 -7.1665e-19)
(0.829651 0.511619 5.85382e-19)
(0.776519 0.469478 0)
(0.737913 0.434254 1.75128e-19)
(0.707697 0.404423 -2.04281e-21)
(0.673547 0.37418 -3.75012e-19)
(0.609191 0.330997 1.46955e-19)
(0.488303 0.262622 0)
(0.319336 0.170886 5.20468e-19)
(0.147587 0.0778423 0)
(0.0208259 0.0108993 -5.03346e-19)
(0.233255 0.135925 2.53015e-21)
(1.08744 0.621313 -1.24512e-21)
(1.27531 0.735218 1.45409e-20)
(1.29268 0.759869 0)
(1.24788 0.749306 -6.35955e-20)
(1.18494 0.728475 0)
(1.11625 0.704359 -2.02759e-19)
(1.04214 0.675681 -6.43589e-20)
(0.962998 0.640111 6.15114e-20)
(0.880039 0.594836 -3.54128e-19)
(0.806119 0.544612 6.06961e-20)
(0.751185 0.499241 0)
(0.71165 0.461247 -3.7381e-19)
(0.68118 0.42909 2.07725e-21)
(0.647279 0.396418 0)
(0.584036 0.349628 2.14379e-21)
(0.465714 0.275327 4.73999e-19)
(0.300525 0.17609 -4.49215e-19)
(0.135484 0.077915 1.32453e-19)
(0.0182051 0.0103142 0)
(0.23353 0.145333 0)
(1.07923 0.661187 5.02393e-21)
(1.26375 0.782165 -6.10071e-21)
(1.2788 0.80721 -2.35369e-21)
(1.2334 0.795456 -2.68767e-20)
(1.17036 0.773163 -1.3578e-19)
(1.10102 0.74724 7.47592e-20)
(1.02565 0.716433 -7.41884e-20)
(0.944637 0.678407 2.72047e-19)
(0.859115 0.630176 -5.65083e-19)
(0.782512 0.576593 -3.51983e-21)
(0.725647 0.527905 -1.65067e-19)
(0.685114 0.486903 6.05107e-19)
(0.654366 0.452103 -2.43479e-21)
(0.620513 0.416568 -2.89917e-19)
(0.557608 0.365498 -5.1814e-19)
(0.440678 0.284519 0)
(0.278712 0.177719 0)
(0.121311 0.0755967 1.42972e-19)
(0.0151909 0.00925766 -8.37137e-20)
(0.234382 0.154719 1.12174e-20)
(1.07158 0.699096 -1.86069e-20)
(1.25214 0.826569 6.07182e-21)
(1.26491 0.851843 0)
(1.2189 0.839003 -1.59688e-21)
(1.15572 0.815439 -1.31137e-19)
(1.08579 0.787954 1.85069e-19)
(1.00928 0.755311 2.96804e-19)
(0.92647 0.715174 3.54679e-19)
(0.838399 0.664349 -4.62117e-19)
(0.758974 0.607629 -5.0088e-19)
(0.699957 0.555586 4.41156e-19)
(0.658272 0.511318 0)
(0.627151 0.473514 -1.31682e-19)
(0.593163 0.434637 -3.13391e-19)
(0.529937 0.378537 -3.71746e-19)
(0.413285 0.289999 -4.41715e-19)
(0.254554 0.175782 1.30672e-19)
(0.105608 0.0709531 -7.68749e-20)
(0.0118624 0.00775698 3.03896e-22)
(0.235359 0.163925 0)
(1.06448 0.735352 0)
(1.2406 0.868511 2.65144e-21)
(1.25117 0.893862 0)
(1.20458 0.880036 7.6382e-20)
(1.14123 0.855363 9.47166e-20)
(1.07077 0.826526 0)
(0.9932 0.792325 3.60868e-20)
(0.908696 0.750414 5.93112e-19)
(0.818086 0.697378 -1.06063e-18)
(0.735673 0.637813 0)
(0.674213 0.58244 -2.83307e-19)
(0.631073 0.53464 -2.951e-21)
(0.599409 0.4934 -2.39154e-21)
(0.565117 0.450578 3.3468e-19)
(0.501032 0.388583 -3.76277e-22)
(0.383707 0.291653 -9.50267e-19)
(0.22834 0.170225 2.81045e-19)
(0.0893453 0.0644769 8.30612e-20)
(0.00856164 0.00599962 0)
(0.236312 0.172977 -6.47754e-20)
(1.05768 0.769952 -2.40263e-20)
(1.22919 0.908053 -1.20756e-20)
(1.23772 0.933371 -4.83792e-20)
(1.19057 0.918629 1.19194e-19)
(1.12706 0.892998 0)
(1.05612 0.863007 1.15006e-19)
(0.977588 0.827505 -7.94193e-20)
(0.89148 0.784146 3.9058e-21)
(0.798355 0.729295 7.76145e-20)
(0.712777 0.667231 6.47385e-19)
(0.648499 0.608644 -9.94951e-20)
(0.603471 0.557085 -3.71845e-19)
(0.57097 0.511853 -1.53049e-19)
(0.536199 0.464255 1.81897e-19)
(0.470925 0.395335 -2.03755e-22)
(0.352749 0.289349 2.56135e-19)
(0.201354 0.161469 -6.04342e-19)
(0.0732351 0.0566446 7.14619e-19)
(0.00544661 0.00412169 1.04169e-19)
(0.237015 0.181759 2.74603e-20)
(1.05119 0.802963 -1.55872e-20)
(1.21802 0.945307 6.22829e-21)
(1.22464 0.970495 -1.32709e-20)
(1.17697 0.954897 -1.85617e-20)
(1.11331 0.92842 -1.70053e-19)
(1.04196 0.897451 3.54872e-20)
(0.962564 0.860876 -3.32264e-19)
(0.874959 0.816372 -6.55188e-19)
(0.779353 0.760105 -6.32242e-19)
(0.690444 0.695957 0)
(0.622926 0.634374 -4.34448e-19)
(0.575481 0.578933 5.34491e-19)
(0.541612 0.529044 0)
(0.506102 0.475464 -3.89175e-19)
(0.439603 0.398286 2.32826e-19)
(0.321 0.282759 -2.7507e-19)
(0.174763 0.149815 -3.25315e-19)
(0.0581781 0.0480074 -5.75571e-19)
(0.00269529 0.0022723 -4.48724e-19)
(0.238004 0.190365 -3.38336e-20)
(1.04485 0.834352 1.67338e-20)
(1.20712 0.980328 3.31944e-20)
(1.21198 1.00532 -8.46266e-21)
(1.16387 0.988932 4.30291e-20)
(1.10007 0.961721 -9.80043e-20)
(1.02838 0.929916 1.16522e-19)
(0.948219 0.892488 -3.43494e-19)
(0.85922 0.847116 -3.88028e-19)
(0.761206 0.789824 6.61813e-19)
(0.668823 0.724046 1.41883e-18)
(0.597665 0.659798 0)
(0.547152 0.600497 0)
(0.511072 0.545297 -1.75993e-19)
(0.474257 0.484026 0)
(0.406774 0.396496 5.01062e-19)
(0.289311 0.27097 5.92103e-19)
(0.150383 0.135285 0)
(0.0454702 0.0391533 0)
(0.00047411 0.000609234 4.82282e-19)
(0.238599 0.198458 4.16692e-20)
(1.03869 0.864102 3.28403e-20)
(1.19653 1.01322 2.56863e-20)
(1.19977 1.03796 -5.15899e-21)
(1.15128 1.02084 3.81716e-20)
(1.08739 0.99298 1.0949e-19)
(1.01543 0.960469 -1.61089e-19)
(0.934615 0.922373 2.06932e-22)
(0.844343 0.876384 -5.06523e-21)
(0.744012 0.818446 -5.65187e-21)
(0.648092 0.751541 7.30045e-19)
(0.572891 0.685035 0)
(0.518623 0.622087 5.38492e-19)
(0.479152 0.561118 3.74924e-19)
(0.439782 0.490108 9.07005e-19)
(0.371397 0.388788 2.69438e-19)
(0.25834 0.25173 -3.19348e-19)
(0.131797 0.115943 -1.87539e-19)
(0.0395558 0.0294257 0)
(-0.000224219 -0.000644535 5.18206e-19)
(0.239486 0.206532 -1.00399e-19)
(1.03267 0.89237 0)
(1.18625 1.04404 3.7402e-20)
(1.18804 1.06851 -9.6274e-21)
(1.13926 1.05071 -2.8677e-20)
(1.0753 1.02229 -1.32063e-19)
(1.00317 0.989171 3.20835e-19)
(0.921789 0.950572 -2.76549e-20)
(0.830369 0.90419 0)
(0.727856 0.845939 -7.30921e-19)
(0.628406 0.778448 -1.58606e-18)
(0.548811 0.710179 6.3993e-20)
(0.490142 0.643946 7.39666e-19)
(0.445832 0.577132 0)
(0.401674 0.494596 6.10755e-19)
(0.331051 0.374733 0)
(0.225871 0.220959 0)
(0.1227 0.0803541 -2.03238e-19)
(0.062802 0.00533835 0)
(0.0251156 0.00597026 1.38869e-19)
(0.239899 0.213984 -1.17698e-19)
(1.02677 0.919332 0)
(1.17626 1.07298 6.81096e-20)
(1.17671 1.09719 0)
(1.12775 1.07881 9.883e-21)
(1.06374 1.04992 0)
(0.991513 1.01634 1.72707e-20)
(0.90965 0.977429 4.7323e-20)
(0.817186 0.930909 4.84489e-20)
(0.712586 0.872697 -8.02346e-19)
(0.609625 0.80522 4.7867e-20)
(0.525243 0.735828 5.1232e-19)
(0.461425 0.666698 7.20313e-19)
(0.410519 0.594222 9.67393e-20)
(0.358386 0.499478 4.77384e-19)
(0.281402 0.356252 0)
(0.181454 0.178194 6.74225e-19)
(0.0950278 0.0243473 -3.94999e-19)
(0.0334655 0.057084 4.57672e-19)
(-0.0378753 0.446733 -5.45341e-19)
(0.240224 0.221235 1.00694e-19)
(1.02079 0.944895 1.4723e-19)
(1.16648 1.10035 0)
(1.16567 1.12444 5.37587e-21)
(1.11656 1.10571 -1.51372e-20)
(1.05246 1.07659 1.94897e-19)
(0.980165 1.04278 1.15709e-19)
(0.897804 1.0039 0)
(0.804281 0.957652 3.25512e-19)
(0.697542 0.900031 -4.23661e-20)
(0.590859 0.833346 0)
(0.501033 0.763757 0)
(0.430985 0.692147 6.42994e-19)
(0.371471 0.613752 -2.97857e-19)
(0.307363 0.507661 -4.81483e-19)
(0.218453 0.338581 0)
(0.102261 0.169401 3.39028e-19)
(0.010056 0.460418 -3.93646e-19)
(0.0345856 1.9063 -2.217e-19)
(0.0618185 2.81385 -2.78579e-19)
(0.240159 0.227882 -7.94053e-20)
(1.01477 0.96923 -1.96106e-19)
(1.15692 1.12616 4.47402e-20)
(1.1549 1.15012 2.52654e-20)
(1.10576 1.1312 0)
(1.04152 1.102 1.23313e-19)
(0.96932 1.06818 1.64469e-19)
(0.886433 1.02955 -2.32878e-20)
(0.791922 0.983897 4.82481e-20)
(0.683099 0.927325 7.65707e-19)
(0.572719 0.862124 8.0021e-19)
(0.477164 0.793614 5.7136e-19)
(0.399862 0.720019 6.44287e-19)
(0.330642 0.634282 -6.95018e-19)
(0.255607 0.521825 -7.23744e-19)
(0.141051 0.372114 0)
(0.0486577 0.863934 0)
(0.096231 2.56713 1.89314e-19)
(0.0984997 3.20231 0)
(0.099193 3.38576 4.65503e-19)
(0.242789 0.234016 0)
(1.00895 0.992662 0)
(1.14731 1.15026 0)
(1.14418 1.17404 9.84379e-21)
(1.09505 1.15507 -8.09925e-21)
(1.03072 1.12602 7.51684e-20)
(0.9589 1.09244 1.07987e-19)
(0.875465 1.05426 -2.29512e-20)
(0.780044 1.00947 4.10277e-19)
(0.669251 0.954417 -1.00989e-20)
(0.555297 0.891334 1.5806e-18)
(0.454068 0.825433 -6.54523e-20)
(0.368305 0.750747 7.81181e-20)
(0.290491 0.653538 1.00195e-19)
(0.196263 0.543815 -8.37986e-22)
(0.106741 1.00386 1.60813e-21)
(0.137164 2.73612 -9.77668e-19)
(0.143259 3.29616 -3.71309e-19)
(0.13166 3.42452 1.96302e-19)
(0.11881 3.44505 -2.20271e-19)
(0.164982 0.178726 4.9687e-20)
(0.999193 1.01807 0)
(1.13758 1.17292 -1.02777e-19)
(1.13385 1.19647 -8.25895e-20)
(1.08489 1.1778 1.6761e-20)
(1.02069 1.14909 -7.2926e-20)
(0.948689 1.11558 -1.14124e-19)
(0.864934 1.07805 2.67403e-19)
(0.768765 1.03439 -3.38328e-19)
(0.656265 0.981325 0)
(0.538932 0.920951 7.78281e-19)
(0.432319 0.859022 -4.65134e-19)
(0.336862 0.786974 0)
(0.245915 0.677891 9.33429e-20)
(0.151241 0.842293 2.26917e-19)
(0.151889 2.52529 -2.65321e-19)
(0.204068 3.32957 3.00541e-19)
(0.184105 3.43919 1.65808e-19)
(0.151733 3.45796 1.8954e-19)
(0.130862 3.46649 3.10597e-19)
(0.278356 0.273105 -9.31386e-20)
(0.9829 1.02908 0)
(1.12016 1.19892 1.19339e-19)
(1.11967 1.22974 1.07688e-19)
(1.0689 1.21174 -4.17986e-20)
(1.00416 1.18356 4.61821e-20)
(0.931104 1.15144 1.2524e-19)
(0.846658 1.11512 2.06711e-20)
(0.749082 1.07359 3.27644e-19)
(0.633767 1.02436 6.68181e-19)
(0.511338 0.969804 4.4355e-20)
(0.396586 0.915864 4.1336e-19)
(0.28222 0.851092 7.33449e-20)
(0.215105 1.01644 -9.14293e-20)
(0.221985 2.39205 -2.09241e-19)
(0.273684 3.33792 2.0961e-19)
(0.257494 3.47018 -2.38339e-19)
(0.221698 3.48805 -1.39847e-19)
(0.186506 3.51161 -1.28525e-19)
(0.14024 3.50447 -1.50201e-20)
(0.268653 0.272119 0)
(0.980589 1.05227 3.95334e-20)
(1.11227 1.22262 -2.62456e-20)
(1.10977 1.25322 -1.45943e-20)
(1.0587 1.2351 -3.90016e-20)
(0.994025 1.20718 -3.82834e-20)
(0.920648 1.17532 -7.17538e-20)
(0.836022 1.13984 1.88627e-20)
(0.737993 1.09976 -3.44105e-19)
(0.621535 1.05333 -1.47516e-20)
(0.496692 1.00332 -1.41315e-18)
(0.377848 0.95476 5.86871e-20)
(0.271894 0.925931 -6.93659e-20)
(0.251018 1.5651 -8.52179e-20)
(0.311717 3.13359 1.75271e-20)
(0.327901 3.47453 2.15096e-21)
(0.285469 3.52284 3.72337e-19)
(0.250261 3.54314 1.94506e-19)
(0.203514 3.56228 -7.16233e-20)
(0.152143 3.55683 -8.0557e-20)
(0.254483 0.270087 1.05166e-19)
(0.977373 1.07807 2.74535e-19)
(1.10398 1.24838 -7.62174e-20)
(1.09944 1.27823 -5.53521e-20)
(1.04814 1.25992 0)
(0.983548 1.23205 -1.79194e-20)
(0.910092 1.20047 -8.80111e-20)
(0.825543 1.16577 1.69433e-20)
(0.72737 1.12723 -3.79666e-20)
(0.610286 1.08378 -6.12265e-19)
(0.48386 1.03874 -6.55554e-19)
(0.362641 0.996847 -4.86198e-19)
(0.276763 1.06634 -5.23131e-19)
(0.313821 2.28239 5.34785e-19)
(0.391163 3.39876 4.61745e-19)
(0.366874 3.53459 0)
(0.316764 3.56944 0)
(0.279445 3.60201 -5.86209e-20)
(0.232345 3.64781 0)
(0.161746 3.62823 -9.72341e-20)
(0.244354 0.27192 -1.6289e-19)
(0.972155 1.10474 -2.40117e-19)
(1.09433 1.2754 0)
(1.08792 1.30414 6.43142e-21)
(1.03644 1.28543 -6.14418e-20)
(0.972051 1.25749 1.02305e-21)
(0.898826 1.22619 -4.69433e-20)
(0.814577 1.19217 1.1672e-20)
(0.71651 1.15509 -2.51531e-19)
(0.599203 1.1146 3.13763e-20)
(0.471994 1.0747 0)
(0.352617 1.04347 0)
(0.305023 1.3384 -4.79277e-19)
(0.39015 2.94962 1.94807e-19)
(0.457052 3.50434 2.57974e-19)
(0.405156 3.57079 0)
(0.362108 3.62467 -5.12629e-20)
(0.318702 3.67123 1.30659e-20)