/*--------------------------------*- C++ -*----------------------------------*\
  =========                 |
  \\      /  F ield         | OpenFOAM: The Open Source CFD Toolbox
   \\    /   O peration     | Website:  https://openfoam.org
    \\  /    A nd           | Version:  6
     \\/     M anipulation  |
\*---------------------------------------------------------------------------*/
FoamFile
{
    version     2.0;
    format      ascii;
    class       volScalarField;
    location    "42";
    object      p;
}
// * * * * * * * * * * * * * * * * * * * * * * * * * * * * * * * * * * * * * //

dimensions      [0 2 -2 0 0 0 0];

internalField   nonuniform List<scalar> 
918
(
0.547615
1.28324
0.00479209
0.547515
-0.00951091
1.25099
-0.477779
0.700683
0.528727
-0.0963451
-0.036037
0.526733
1.10825
0.875359
-1.15844
-0.00224348
0.655379
-0.403538
0.526659
-0.0176859
0.737567
0.535436
0.537906
0.528699
0.585857
0.831708
0.985635
0.0126662
0.00290891
0.00182818
-0.0114068
-0.0302895
-0.0221997
1.13411
1.18606
1.20924
0.495662
0.330007
-0.367403
-0.419112
-0.402345
-0.502749
0.694207
0.693377
-0.18149
0.702869
0.71001
0.514551
0.528113
0.528945
0.530111
0.528982
0.530275
0.414503
-0.10231
-0.132636
-0.0800037
-0.0770001
0.0631353
-0.0356981
-0.0378694
-0.0352543
-0.0392652
0.445565
0.522704
0.519696
0.531597
0.541131
1.22341
1.1971
1.22315
1.13393
1.15142
1.08514
1.05801
0.896503
0.919687
0.858339
0.844447
-1.62397
-2.58244
-0.574093
-0.291238
-0.0109887
-0.0046536
0.00820504
0.646861
0.646614
0.657319
0.665791
1.05223
-0.373943
-0.444935
0.527144
0.525679
0.534949
0.535857
0.530803
0.530818
-0.0247589
-0.0299251
-0.0112283
-0.0186594
-0.0205074
0.728663
0.726323
0.528144
0.525602
0.549885
0.57168
0.560784
0.268464
0.592134
0.60688
0.690691
0.838821
0.826727
0.838941
0.961347
0.928659
1.01728
1.03895
0.0137268
0.00217651
-0.00687953
-0.00897837
-0.0089606
0.491457
0.485108
0.51214
0.499233
0.502221
0.234124
0.081973
0.412722
0.436495
-0.287673
-0.329638
-0.43529
-0.432921
-0.539682
0.601378
0.689411
0.686203
-0.197827
-0.121263
-0.247044
-0.0660589
-0.121727
0.505628
0.511778
0.507906
0.523163
0.517358
0.519772
0.532204
0.52936
0.530969
0.475116
0.607196
0.332092
0.30509
-0.258227
-0.149429
-0.241519
-0.0631258
-0.0557167
0.0754097
0.102239
0.0499801
0.0371018
-0.0486547
-0.0418234
-0.0463013
-0.0384554
-0.0369737
0.43714
0.424468
0.456647
0.464007
0.510804
0.512152
0.516404
0.514516
1.00922
1.03224
1.03816
1.01435
-3.57236
-6.22832
0.0609503
0.223746
-0.00421526
-0.00866801
0.00207293
-0.00543971
0.000680079
-0.00100945
0.000180159
0.00177981
0.00589577
0.00387134
0.639972
0.639857
1.01119
1.04123
0.998644
0.976191
0.516469
0.518385
0.523027
0.519916
-0.0371176
-0.0321073
-0.0380382
0.711468
0.720707
0.718366
0.228701
0.141772
0.317991
0.348408
0.632564
0.615068
0.629332
0.75145
0.790166
1.05542
1.07977
1.06361
1.07642
1.12732
1.15025
1.11558
0.470371
0.4811
0.475489
0.515285
0.512934
0.513961
0.509927
0.511151
0.509637
-0.0310052
-0.407028
0.487948
0.4906
0.477974
0.484387
0.68728
0.770946
0.666945
0.678576
0.675081
-0.0182426
-0.0657426
0.262904
0.233419
0.377679
0.4116
0.39391
0.98445
0.944607
0.992842
0.968212
0.932602
0.957436
-0.344507
-2.12269
-1.11034
0.631366
0.431869
0.524569
0.0212787
0.00251829
0.00822547
1.04438
1.08477
0.675732
0.862279
0.814682
0.813661
0.840538
0.902961
0.83503
0.870164
0.901298
0.87759
0.555195
0.495085
0.508469
0.84933
0.906789
0.106639
0.0322281
0.00856152
0.125119
0.191617
0.161241
1.0568
0.963752
1.02997
0.52584
0.526763
0.00570905
0.000840242
0.530846
0.53057
-0.00864231
0.000782186
0.543162
-0.931909
0.116448
0.520249
0.510136
0.52683
-0.0629572
0.348482
-0.0326341
0.0500096
0.0129586
0.522283
0.457672
0.415922
0.0113518
-0.0167669
-0.0226062
-0.196661
0.523583
0.521942
0.526208
0.52705
0.527808
-0.00490757
-0.000427497
-0.00186157
-0.0200173
-0.0138119
-0.0183161
0.490553
0.509804
-0.169362
0.526483
0.52858
0.528292
0.522392
0.527387
0.525956
-0.00702134
-0.00915964
-0.013708
0.211042
0.343901
0.729941
0.807458
0.677659
0.50798
0.206829
0.66372
0.717618
0.641348
0.772935
0.682477
0.691308
0.180763
0.0445564
0.185846
0.11887
0.517163
0.516497
0.507696
0.504657
0.52162
0.519321
0.524486
0.521675
0.524811
0.525987
-0.0191302
-0.0568577
-0.07386
-0.126724
0.314456
0.573498
0.243478
0.268036
0.17237
-0.0310051
-0.0337316
-0.0327019
-0.0386573
0.00456327
-0.00392252
0.0427491
0.0481314
0.0300562
0.00357363
-0.0040519
-0.00383952
-0.010187
0.515772
0.515116
0.520674
0.529006
0.467061
0.470692
0.43747
0.456075
0.442361
0.383122
0.412911
0.39022
0.00216473
0.0148238
0.00641366
-0.0125257
-0.00986222
-0.0198789
-0.0136993
-0.0120737
-0.00440091
-0.0118681
-0.0211733
-0.0307444
-0.160054
-0.277202
0.972466
0.903318
0.144287
0.513523
0.519152
0.516342
0.520945
0.524148
0.52482
0.522437
0.518952
0.510008
0.511491
0.50823
0.509206
-0.112127
-0.217623
-0.0495059
-0.12187
0.156014
0.62111
0.352137
0.30029
0.285178
0.505957
0.723814
0.651366
0.72145
0.720986
-0.382705
0.0341098
-0.30893
0.240725
0.224852
0.754156
0.796122
0.813776
0.770579
0.726446
-0.022759
0.553002
-0.0426332
0.00340009
0.193029
0.0837859
0.705089
0.661746
0.666633
0.682543
0.699639
0.677025
0.662784
0.651847
0.681094
0.685841
0.510396
0.23987
0.200336
0.152426
0.644293
0.542342
0.596095
0.514042
0.512577
0.515122
0.513981
0.495286
0.502558
0.498317
0.505071
0.508599
0.516229
0.516411
0.512375
0.514277
-0.0503419
-0.0539236
-0.0663364
-0.109688
-0.114295
-0.155075
-0.0798893
0.121012
0.0664848
0.257458
0.400743
0.0902339
-0.0386323
-0.0248521
0.0309738
0.192787
0.1969
0.0642031
0.179845
0.136059
0.128442
0.21914
0.24302
-0.0187608
-0.0185542
-0.0183914
-0.0248495
0.0252699
0.122955
0.108901
0.00494541
-0.00277872
-0.0364156
-0.0370325
0.00711087
-0.00576364
-0.000697675
0.0128208
-0.0361689
-0.0118853
0.00072616
0.00593152
0.00202842
0.00305162
0.509246
0.51142
0.511233
0.51932
0.533887
0.548927
0.512031
0.48797
0.47907
0.482143
0.455546
0.46473
0.459898
0.475414
0.496697
0.505565
0.503113
0.505745
0.488185
0.489871
0.475397
0.479919
0.450092
0.43204
0.422353
-0.0332835
0.00431443
-0.009441
-0.0318288
-0.00280157
-0.0163571
-5.07972e-05
0.0124373
-0.00184743
-0.00248672
-0.00587407
-0.0117939
-0.0103094
-0.0625907
0.0186425
-0.164048
-0.21381
-0.264322
0.89429
1.02984
0.817494
0.617734
0.617548
0.840377
0.932607
0.570475
0.740748
0.781311
0.573146
0.863441
0.517402
0.517043
0.514935
0.514128
0.51511
-0.00746656
0.0924361
0.113208
0.165519
0.280246
0.387332
0.309016
0.199123
0.333899
0.35758
0.619594
0.628841
0.581971
0.603348
0.603041
0.420997
0.5017
0.544306
0.493308
0.566482
0.599772
0.547222
0.589623
0.510098
0.460497
0.452112
0.408385
0.442773
0.424214
0.398505
0.5087
0.485922
0.496582
0.486461
0.507505
0.528773
0.531562
0.555794
0.569677
0.488011
0.437159
0.453819
0.480874
0.438503
0.45443
0.475222
0.179997
0.0845347
0.251187
-0.0776549
0.0131443
0.0498359
0.00880906
-0.0375165
0.269493
-0.373615
-0.317035
-1.00134
0.494169
0.882181
0.666471
0.680885
0.698228
0.679262
0.689208
0.704843
0.71085
0.63524
0.649209
0.652115
0.622902
0.654023
0.652185
0.661041
0.509384
0.415109
0.417651
0.351504
0.219503
0.257911
0.437271
0.371954
0.301396
0.294948
0.465974
0.3342
0.410437
0.46752
0.396954
0.327788
0.559477
0.606504
0.595778
0.568102
0.46751
0.497779
0.513913
0.559057
0.590008
0.614931
0.503887
0.510144
0.51109
0.508359
0.506561
0.509622
0.509808
0.512098
0.512539
0.515078
0.514422
-0.0313269
-0.020574
-0.0378152
-0.0403735
0.0390489
0.0117168
0.00832368
-0.0288952
-0.000809446
-0.00204063
-0.0172829
-0.0340755
-0.0249861
-0.0121099
0.0816094
0.101776
0.109468
0.0755758
0.255616
0.436933
0.506605
0.376101
0.217093
0.237914
0.320361
0.0229451
0.0394468
0.0244585
0.0752714
0.0534632
-0.0279263
-0.0312323
-0.0237825
-0.0185669
-0.0107382
-0.0253595
-0.0300938
-0.0210367
-0.0267586
-0.032533
-0.0348487
0.489629
0.482553
0.485932
0.478478
0.476751
0.493331
0.497734
0.499043
0.504452
0.506966
0.496782
0.502582
0.506602
-0.00376875
-0.018006
-0.0234354
-0.014515
-0.0137156
-0.013657
-0.0142348
0.129956
0.0378723
0.0724802
0.00339098
-0.119034
-0.0590629
0.49865
0.493712
0.48855
0.719425
0.55985
0.475288
0.570645
0.688823
0.275067
0.48094
0.312043
0.892798
0.794944
0.940607
0.562827
0.254072
0.416689
0.430557
0.265509
0.390668
0.355229
0.22998
0.269086
0.292646
0.376953
0.25776
0.235927
-0.00581285
0.171511
0.285896
0.26726
0.398172
0.455976
0.26058
0.175092
0.124103
0.604693
0.62286
0.633818
0.606637
0.629526
0.569483
0.559267
0.577017
0.586574
0.580502
-0.639674
-0.228487
-1.43004
-0.83643
-0.385437
0.521234
0.511671
0.753633
0.659685
0.708141
0.689919
0.62324
0.588606
0.625721
0.650118
0.344607
0.440196
0.415576
0.406429
0.349163
0.286872
0.572135
0.574508
0.597338
0.622159
0.596233
0.623343
0.502511
0.502312
0.501136
0.497532
0.496107
0.499117
0.0336333
0.00945792
0.049582
0.0503358
0.0349941
0.034405
-0.00191478
-0.0119205
-0.0148434
-0.0119343
-0.00306034
-0.00078004
0.172666
0.115897
0.0263964
0.0715561
0.00200544
-0.0783279
-0.080362
0.00688226
0.105505
0.0867232
0.397266
0.67042
0.496089
0.663101
0.457117
0.562071
0.472685
0.447652
0.477079
0.373889
0.462142
0.0245344
-0.172501
-0.230487
0.819568
0.775617
0.563032
0.309704
0.19823
0.498471
0.525279
0.484211
0.519021
0.568494
0.553654
0.00733224
0.106538
0.17148
0.482372
0.275863
0.293278
0.285263
0.444458
0.419144
)
;

boundaryField
{
    wall-4
    {
        type            zeroGradient;
    }
    velocity-inlet-5
    {
        type            zeroGradient;
    }
    velocity-inlet-6
    {
        type            zeroGradient;
    }
    pressure-outlet-7
    {
        type            fixedValue;
        value           uniform 0;
    }
    wall-8
    {
        type            zeroGradient;
    }
    frontAndBackPlanes
    {
        type            empty;
    }
}


// ************************************************************************* //
