/*--------------------------------*- C++ -*----------------------------------*\
  =========                 |
  \\      /  F ield         | OpenFOAM: The Open Source CFD Toolbox
   \\    /   O peration     | Website:  https://openfoam.org
    \\  /    A nd           | Version:  6
     \\/     M anipulation  |
\*---------------------------------------------------------------------------*/
FoamFile
{
    version     2.0;
    format      ascii;
    class       volScalarField;
    location    "43";
    object      p;
}
// * * * * * * * * * * * * * * * * * * * * * * * * * * * * * * * * * * * * * //

dimensions      [0 2 -2 0 0 0 0];

internalField   nonuniform List<scalar> 
918
(
0.540334
1.27312
0.00519151
0.540237
-0.010624
1.24098
-0.483837
0.689633
0.52145
-0.0988139
-0.036855
0.519595
1.09787
0.866415
-1.16543
-0.00680505
0.646445
-0.406074
0.519389
-0.0261732
0.726852
0.528155
0.530626
0.521419
0.57863
0.822239
0.974966
0.0109652
0.00378472
0.0027186
-0.0118825
-0.0312487
-0.0218769
1.12413
1.17605
1.1992
0.488354
0.322616
-0.37424
-0.425727
-0.408762
-0.50832
0.683668
0.683005
-0.189676
0.69169
0.698837
0.507267
0.520837
0.521669
0.522831
0.521705
0.522997
0.41019
-0.10417
-0.134332
-0.0821614
-0.0792969
0.0599749
-0.0381638
-0.0403522
-0.0355457
-0.0396439
0.438186
0.515537
0.512548
0.524467
0.53403
1.21329
1.18706
1.21312
1.12359
1.14125
1.07492
1.04788
0.886899
0.910125
0.851043
0.837666
-1.63083
-2.58878
-0.581536
-0.298857
-0.0118603
-0.00435555
0.00570386
0.638288
0.638126
0.648183
0.656024
1.04844
-0.377228
-0.448014
0.51988
0.518411
0.527673
0.528579
0.523526
0.52354
-0.0319804
-0.0361176
-0.016953
-0.0260708
-0.0255641
0.717842
0.715278
0.520863
0.51832
0.542823
0.564391
0.553584
0.260726
0.584792
0.599863
0.682008
0.830623
0.817966
0.830519
0.950228
0.91879
1.00648
1.02819
0.0139999
0.00170412
-0.00997568
-0.0118712
-0.0115323
0.484144
0.477789
0.50487
0.491932
0.494923
0.226776
0.0746116
0.405305
0.429093
-0.29514
-0.3369
-0.439654
-0.438474
-0.544272
0.593969
0.679156
0.675614
-0.205372
-0.12975
-0.256012
-0.0745844
-0.130108
0.498335
0.504492
0.500617
0.51588
0.510074
0.512489
0.524929
0.522086
0.523694
0.469049
0.599195
0.327077
0.299912
-0.260531
-0.151446
-0.243255
-0.065265
-0.0572501
0.0721015
0.0994032
0.0472533
0.0339426
-0.0503569
-0.0440499
-0.0485682
-0.0395213
-0.0391557
0.429756
0.417025
0.449277
0.456639
0.503604
0.504962
0.509213
0.507292
0.998609
1.02164
1.02773
1.00384
-3.5784
-6.23379
0.0528731
0.215207
-0.00550041
-0.0106757
0.00108695
-0.00664361
0.000855104
-0.00139415
-0.00239094
-0.00137155
0.00143226
0.00175024
0.631817
0.632109
1.01454
1.04057
0.993262
0.970542
0.509201
0.511118
0.515756
0.512645
-0.0395369
-0.037864
-0.042284
0.700581
0.709805
0.70736
0.220835
0.133854
0.310391
0.340846
0.625231
0.608166
0.622189
0.741908
0.782615
1.0454
1.06936
1.05354
1.06647
1.11734
1.14026
1.10517
0.463012
0.473774
0.468151
0.508021
0.505667
0.506702
0.502689
0.503893
0.502387
-0.0383149
-0.414379
0.480673
0.483235
0.470626
0.476976
0.679751
0.763097
0.656951
0.668162
0.664954
-0.0269175
-0.0743928
0.258877
0.229904
0.370193
0.404139
0.386458
0.974243
0.934755
0.982554
0.957858
0.922375
0.945645
-0.352015
-2.12967
-1.11765
0.622789
0.423182
0.516006
0.0178332
0.000994325
0.00550195
1.03371
1.07364
0.66981
0.857482
0.811876
0.806886
0.833523
0.893602
0.828198
0.860869
0.890617
0.866074
0.547558
0.487763
0.500858
0.841237
0.899
0.0986519
0.0240844
0.000399683
0.12209
0.188707
0.158487
1.04871
0.955717
1.022
0.518558
0.519482
0.00415744
-0.00382299
0.523573
0.523296
-0.0115375
-0.0012628
0.534475
-0.938927
0.108043
0.512974
0.502854
0.519554
-0.0641431
0.342307
-0.0351262
0.0466113
0.0100072
0.515073
0.450292
0.408511
0.00916803
-0.0168519
-0.0290802
-0.200892
0.516301
0.514661
0.518932
0.519772
0.520532
-0.00661073
-0.00293121
-0.00384831
-0.0263735
-0.0205299
-0.0261499
0.483242
0.502574
-0.176736
0.519209
0.52131
0.52102
0.515124
0.520117
0.518692
-0.00829517
-0.0109945
-0.0153511
0.203111
0.336358
0.720879
0.798172
0.668975
0.49942
0.198636
0.654638
0.708327
0.632268
0.764183
0.672413
0.680657
0.172549
0.0358489
0.177689
0.110195
0.509882
0.509227
0.50041
0.497364
0.514349
0.512046
0.517211
0.514407
0.517537
0.518717
-0.02059
-0.0590818
-0.0750884
-0.129228
0.309274
0.569038
0.235915
0.262979
0.169071
-0.030916
-0.0334845
-0.0349473
-0.0406684
0.00299152
-0.00646374
0.0405292
0.046688
0.0270426
0.000732524
-0.00589038
-0.00625123
-0.011868
0.508529
0.507876
0.513469
0.521852
0.459717
0.463344
0.430125
0.448671
0.434992
0.375575
0.405436
0.382742
-0.000237313
0.0124553
0.00577524
-0.0135779
-0.0129575
-0.0227753
-0.0170034
-0.0163138
-0.00905818
-0.0154441
-0.0268289
-0.0367969
-0.164932
-0.282419
0.973503
0.904167
0.132478
0.506241
0.51187
0.50906
0.513668
0.516872
0.51754
0.515152
0.511666
0.502765
0.504232
0.500997
0.501985
-0.119086
-0.224444
-0.0571307
-0.129525
0.14873
0.613783
0.344575
0.292483
0.277357
0.498332
0.716466
0.642639
0.711879
0.710784
-0.389942
0.0262512
-0.316271
0.23321
0.218449
0.743697
0.785779
0.804203
0.761314
0.717067
-0.0302575
0.547367
-0.0500873
-0.00393804
0.185861
0.0755428
0.694836
0.65171
0.656524
0.672196
0.689109
0.666764
0.650538
0.642231
0.670294
0.675289
0.50225
0.231902
0.191878
0.144448
0.635258
0.532421
0.586531
0.505245
0.505318
0.507851
0.506721
0.487978
0.495266
0.491012
0.497807
0.501343
0.508934
0.509123
0.50509
0.506981
-0.0521096
-0.0555715
-0.0676075
-0.113003
-0.116433
-0.157712
-0.0809701
0.121026
0.0662534
0.241445
0.366649
0.0918742
-0.0407315
-0.0248658
0.0284206
0.201089
0.194115
0.060937
0.176523
0.132998
0.12508
0.214986
0.23878
-0.0210493
-0.0202748
-0.0203426
-0.0271154
0.0220971
0.120046
0.105382
0.00239211
-0.00493003
-0.036908
-0.0378664
0.00616083
-0.0073586
-0.00202621
0.0118025
-0.0363331
-0.012294
-0.00144822
0.0029091
-0.00179288
-0.000171329
0.502025
0.504197
0.504046
0.51209
0.526783
0.541907
0.504668
0.480663
0.471743
0.474827
0.448247
0.457385
0.452556
0.468039
0.489463
0.498315
0.495845
0.49849
0.480905
0.482572
0.468134
0.47262
0.442607
0.424496
0.414827
-0.0329623
0.000171001
-0.0107601
-0.0313559
-0.00455012
-0.0161602
-0.00481426
0.00943591
-0.00571223
-0.00617366
-0.0118268
-0.0162242
-0.0139106
-0.0675154
0.014017
-0.170438
-0.219508
-0.27039
0.887182
1.02216
0.807857
0.589485
0.600613
0.841179
0.93687
0.556336
0.758887
0.776309
0.565389
0.855027
0.510113
0.509755
0.507651
0.506844
0.507815
-0.0141534
0.0856571
0.10587
0.158725
0.27291
0.379916
0.301894
0.190622
0.32545
0.349458
0.611865
0.62081
0.574973
0.596248
0.596037
0.413065
0.493944
0.536212
0.485452
0.559234
0.592339
0.539804
0.5823
0.502431
0.452525
0.443951
0.400906
0.4349
0.416474
0.390892
0.501473
0.47856
0.489321
0.479104
0.500227
0.521219
0.524253
0.548754
0.562512
0.48054
0.429553
0.446069
0.473337
0.430926
0.446888
0.467825
0.173303
0.0776095
0.244208
-0.0844138
0.00598931
0.0426676
0.00166237
-0.044325
0.262617
-0.380298
-0.324444
-1.0084
0.488394
0.874131
0.656319
0.670855
0.687872
0.669544
0.679658
0.694822
0.700366
0.626538
0.639379
0.642565
0.613059
0.643018
0.642826
0.650874
0.502795
0.407917
0.410042
0.344058
0.211385
0.2503
0.431818
0.365301
0.293798
0.287435
0.458073
0.326101
0.40246
0.4592
0.388291
0.319431
0.550745
0.598093
0.587526
0.559793
0.457412
0.487935
0.503098
0.548622
0.580558
0.606246
0.49661
0.502866
0.503813
0.501077
0.499283
0.50235
0.502543
0.504834
0.505261
0.507802
0.507153
-0.0335328
-0.0225015
-0.0400473
-0.0425681
0.0379584
0.0105185
0.0072886
-0.0302632
-0.00233788
-0.0037133
-0.0192184
-0.0360609
-0.0275169
-0.0143315
0.0777568
0.0955884
0.109967
0.0763866
0.274563
0.411214
0.473786
0.350767
0.229435
0.246526
0.314254
0.0219202
0.0374507
0.023013
0.072964
0.0514486
-0.028886
-0.0327392
-0.0261214
-0.0206929
-0.0130227
-0.0276374
-0.0342859
-0.0247185
-0.0302453
-0.0353213
-0.0377559
0.482331
0.475239
0.478646
0.471215
0.46946
0.486048
0.490457
0.491775
0.497201
0.499724
0.48951
0.495335
0.499368
-0.00706911
-0.0216882
-0.0258897
-0.0186777
-0.01811
-0.0180617
-0.0180429
0.120886
0.030434
0.063001
-0.00303274
-0.125057
-0.0649247
0.490887
0.486175
0.481304
0.711304
0.551238
0.467175
0.562973
0.681232
0.265431
0.472131
0.303184
0.884244
0.786422
0.932344
0.553925
0.24761
0.410599
0.424763
0.259206
0.384433
0.348172
0.222939
0.262238
0.286135
0.370818
0.250565
0.22887
-0.0128617
0.164601
0.278654
0.259988
0.390783
0.44858
0.253503
0.168197
0.117229
0.596824
0.614873
0.625556
0.598317
0.620755
0.56223
0.551928
0.569906
0.579233
0.573048
-0.646138
-0.23468
-1.43644
-0.842764
-0.391842
0.515137
0.505909
0.74693
0.653079
0.699486
0.680938
0.614044
0.578838
0.617688
0.641525
0.337425
0.431586
0.408668
0.396871
0.340271
0.279021
0.562049
0.564788
0.588321
0.612729
0.586939
0.613508
0.495231
0.495037
0.49386
0.490234
0.488815
0.491832
0.0322044
0.00802826
0.0497342
0.0504783
0.0331878
0.0324084
-0.0048595
-0.0142136
-0.0182523
-0.0159887
-0.00790466
-0.00519534
0.164992
0.107121
0.0195223
0.0620036
-0.00473164
-0.084618
-0.0867221
0.000484753
0.0982906
0.0796104
0.386268
0.660476
0.48601
0.652173
0.445367
0.54863
0.465366
0.440259
0.469731
0.366479
0.454562
0.0192847
-0.178236
-0.236136
0.813132
0.769369
0.556662
0.303553
0.191403
0.491766
0.518657
0.480261
0.51065
0.559716
0.542896
0.00140102
0.099979
0.16615
0.476966
0.269159
0.286725
0.278448
0.438424
0.412838
)
;

boundaryField
{
    wall-4
    {
        type            zeroGradient;
    }
    velocity-inlet-5
    {
        type            zeroGradient;
    }
    velocity-inlet-6
    {
        type            zeroGradient;
    }
    pressure-outlet-7
    {
        type            fixedValue;
        value           uniform 0;
    }
    wall-8
    {
        type            zeroGradient;
    }
    frontAndBackPlanes
    {
        type            empty;
    }
}


// ************************************************************************* //
