/*--------------------------------*- C++ -*----------------------------------*\
  =========                 |
  \\      /  F ield         | OpenFOAM: The Open Source CFD Toolbox
   \\    /   O peration     | Website:  https://openfoam.org
    \\  /    A nd           | Version:  6
     \\/     M anipulation  |
\*---------------------------------------------------------------------------*/
FoamFile
{
    version     2.0;
    format      ascii;
    class       surfaceScalarField;
    location    "43";
    object      phi;
}
// * * * * * * * * * * * * * * * * * * * * * * * * * * * * * * * * * * * * * //

dimensions      [0 3 -1 0 0 0 0];

internalField   nonuniform List<scalar> 
1300
(
3.75095
5.62643
-3.18945
3.75095
-7.66159
5.62643
-4.27191
4.27191
-0.79164
0.79164
1.87647
1.87449
-2.63406
2.63406
-2.06332
2.06332
-2.54707
2.54707
-5.24799
5.24799
-5.06952
5.06952
4.71599
-4.71599
-6.25441
6.25441
-1.1242
1.1242
-3.68255
3.68255
3.17299
-3.17299
-2.12681
2.12681
-0.200978
0.200978
-0.554099
4.30505
3.19685
3.19685
-1.98582
1.98582
-4.87397
4.87397
6.22259
-6.22259
5.14089
-5.14089
-1.95144
-2.34041
1.79359
-11.5508
-5.868
-5.868
-8.44101
8.44101
-2.81458
2.81185
2.94551
-2.94551
-1.7338
1.7338
-4.25491
-0.0169966
-4.25491
4.25656
0.0153475
4.25656
-0.881182
0.0895418
-0.881182
3.82967
-3.82967
0.671403
0.120238
0.671403
3.06693
-3.06693
-1.87687
3.75333
1.87408
-1.87205
6.17711
-1.8789
3.75339
-6.04942
6.04942
-2.83977
0.205705
-2.83977
2.44275
0.191311
2.44275
-6.85122
6.85122
-2.1354
0.0720809
-2.1354
2.0241
0.0392168
2.0241
2.88047
-2.88047
-2.6433
0.0962336
-2.6433
2.41722
0.129852
2.41722
0.353438
5.27299
-5.97987
8.79172
-5.27299
0.0250052
5.21023
0.0377528
5.21023
-5.10518
0.0356551
-5.10518
5.01227
0.0572492
5.01227
4.81039
-0.0943977
4.81039
-4.83026
0.114264
-4.83026
-3.41319
-4.11279
-6.41741
0.162999
-6.41741
-1.13685
0.0126458
-1.13685
1.07282
0.051382
1.07282
-3.67164
3.67164
-4.00174
0.319188
-4.00174
3.12788
0.0451142
3.12788
1.86812
1.88283
5.61907
-5.61907
2.44608
-2.02715
-0.0996668
-2.02715
-2.18621
-2.95469
2.18621
-0.0593927
-0.424264
0.223286
-0.424264
3.157
0.0398547
3.157
2.25949
0.157726
-2.25949
0.273671
3.27206
-3.27206
1.31663
0.669192
1.31663
-5.55917
5.55917
4.96099
0.0512792
-4.96099
0.0870218
6.15727
0.0653165
6.15727
-6.20779
-0.0147988
-6.20779
2.63295
-4.97335
-2.54372
6.0629
0.191509
-6.0629
0.194896
2.91615
0.0293524
2.91615
-2.92042
2.92042
-2.98312
0.0376167
-2.98312
-2.16032
0.426515
-2.16032
1.41462
0.319188
1.41462
-4.12533
-0.129585
-4.12533
-4.13792
0.136177
4.13792
0.118642
1.07406
-1.07406
-0.953114
0.0719314
-0.953114
-3.93907
-0.186251
3.93907
-0.1094
-3.78695
-0.0427228
-3.78695
-3.02119
0.0380636
3.02119
0.0457417
3.1119
0.0450968
-3.1119
0.0449756
-1.87097
3.7538
-1.87999
3.75407
-5.66552
-0.383898
-5.66552
6.3438
-0.294383
6.3438
3.23105
0.4515
-3.23105
0.391286
2.30306
0.139696
2.30306
-6.8289
-0.022319
-6.8289
6.85484
-0.00362208
6.85484
2.20431
0.0987451
-2.20431
0.0689104
2.00529
0.0188134
2.00529
2.90462
-0.024146
2.90462
-2.87652
-0.00395773
-2.87652
2.79653
-2.79653
2.72516
0.0713672
-2.72516
0.0818534
-11.1239
11.1091
-0.0362488
-11.0877
5.17399
5.17399
4.26585
0.544541
4.26585
-5.01977
0.189508
-5.01977
2.77526
-5.31897
3.11133
-6.52453
4.70872
-16.2595
4.31528
-8.42808
6.69075
-6.69075
6.55854
0.132216
-6.55854
0.141133
-1.19121
0.0543559
-1.19121
-3.07778
-0.593859
-3.07778
4.32319
-0.651549
4.32319
-3.02827
3.02827
-3.07686
0.0485958
3.07686
0.051017
1.98075
0.0245417
-1.98075
-0.0464
0.537804
0.133598
-0.537804
0.11354
3.48307
-0.211015
3.48307
-3.07652
-0.195537
-3.07652
-1.25641
0.0651998
1.25641
0.0602243
-5.80819
0.249015
-5.80819
-11.1817
0.0939701
-11.1439
-6.11382
-6.11382
2.32719
11.1189
-2.89339
0.0168727
2.89339
0.0227645
2.97589
0.0523795
-2.97589
0.055464
-2.86078
0.0642525
2.86078
0.0596454
-2.53175
0.371433
-2.53175
-1.01777
1.01777
-1.17495
0.157188
1.17495
0.239663
1.36242
-0.28836
1.36242
1.01728
0.0555397
-1.01728
0.0641689
-3.75678
-0.0301728
-3.75678
6.58098
-0.237178
6.58098
-2.95296
-0.123559
2.95296
-0.0483413
-0.034931
11.1441
-5.13905
0.0338766
5.13905
-11.2094
11.2433
-3.24137
0.709616
3.24137
1.02448
5.28553
0.273639
-5.28553
0.265763
6.78987
0.064971
-6.78987
0.0991165
-2.57287
-0.504909
-2.57287
-5.06362
-0.601895
5.06362
-0.740434
-11.4823
-0.203
11.6853
-11.425
6.01119
0.146086
-6.01119
11.3894
-0.969716
-0.10434
0.969716
0.0480491
1.69988
-0.337463
1.69988
3.68675
-0.20368
-3.68675
-0.0700269
-6.72661
-0.102289
6.72661
-0.145633
-2.12899
-0.443889
2.12899
-0.429106
-4.26723
4.30709
1.90987
-2.46344
-2.50992
-5.41813
1.85494
1.89885
4.30102
-10.2092
-6.05031
-10.0143
7.21276
-6.947
-9.36147
9.26707
7.76592
-7.80864
-5.77816
5.82917
6.48395
-6.4382
1.87922
1.87411
7.98837
-7.78267
-15.7046
15.3207
7.54461
-7.47253
15.8661
-15.8884
-17.9258
17.9908
-5.7037
5.79993
-6.73258
6.72862
-6.9652
6.91686
-2.86788
-3.65665
13.1986
-13.0356
8.43027
-8.52994
-8.63218
8.95137
3.38451
0.922578
3.42961
-1.88196
3.76118
-1.87143
3.7813
2.68482
-5.5527
2.63416
-5.14407
4.24951
4.18076
-4.19012
-1.22801
-5.92589
5.95524
-5.81326
5.87291
9.01993
-9.03692
-1.88503
3.75915
-1.86904
3.76789
-3.4235
-2.35465
3.37839
0.922633
8.10899
5.08956
-8.3005
-1.71381
-7.9513
7.74762
-8.18751
7.99198
-0.437785
5.83701
-5.39922
4.43619
-1.65254
7.48955
5.56022
5.74973
5.86012
-5.58648
1.08688
-6.4861
-6.39908
-2.48205
2.55398
2.45412
-2.33389
6.01043
1.7555
5.90103
-5.72414
-2.08451
-5.75431
3.82044
2.00874
3.86903
4.081
2.40295
4.11906
3.03008
-3.03611
0.00602943
-3.05891
6.08899
0.723036
-5.41356
-4.49093
5.0113
2.97708
5.20261
-5.57686
-2.20581
-5.18557
-9.58208
-6.12253
-10.184
10.1099
5.2108
9.81553
-11.9929
11.8473
4.83082
2.71379
4.87004
-4.95653
-2.516
-4.88762
11.6751
-2.63484
-9.04027
-10.3574
-7.56843
10.361
5.50507
11.0131
6.97771
11.1122
4.44499
7.23012
-9.95006
2.38163
-3.86452
-1.83917
-3.78267
3.66335
2.13658
3.7932
-4.21569
-2.51689
-4.19882
-4.29113
-2.67407
4.31528
2.41334
-4.40656
-3.78096
4.53012
2.38674
4.0874
-10.1377
4.34068
-7.99733
-9.25605
-3.7795
-9.11492
3.48999
2.62592
-6.11592
-2.06271
8.43478
-4.25402
7.20678
-5.16739
-3.36255
-5.21379
-6.90564
-1.72653
-6.76947
-8.9552
8.45029
-9.22921
8.57766
12.6371
-5.67356
-6.96354
-3.96677
-2.47143
3.9218
-0.49219
-3.71039
3.71642
0.0507908
3.83209
4.75467
4.26248
-3.88362
-1.92964
-3.82816
3.82545
2.04746
3.8897
6.77154
2.24839
6.78688
-6.46919
-2.56774
-6.59877
9.13773
-8.71122
2.87
-2.8048
5.33467
2.65731
-5.12366
-2.82764
6.22711
-3.17486
-3.05225
-12.3578
10.8514
1.50637
-4.86826
-0.432072
-0.231093
-5.5863
-3.77517
5.47204
0.277694
11.1291
7.35396
-5.51465
5.76367
6.17061
6.22189
-0.177191
5.91848
-5.20886
5.3464
-2.57057
-2.77583
5.34746
-5.53371
-1.25131
-5.44072
4.18941
0.367313
1.71305
-1.48977
-1.91911
-0.562946
-1.85494
1.45029
1.00383
1.58389
0.90879
1.64519
-2.95565
0.599151
2.3565
-2.04686
-1.73473
-3.66564
-1.13257
4.79821
5.63599
2.11164
-5.56596
-0.188353
2.64891
-2.59753
-0.73605
-2.92959
2.17683
-2.91288
-3.54979
-1.86356
5.41334
-3.36944
-0.458723
3.31706
0.551977
-3.82724
-2.09865
3.78962
0.329443
-3.1273
6.19001
-3.06271
-5.05694
2.529
3.55999
4.53773
-4.79086
2.44864
2.34222
-1.23087
4.28711
0.915498
4.42681
-7.00597
4.80015
5.7159
3.23547
-6.1674
0.981828
-6.02414
8.39955
-7.25965
-1.13991
3.92373
4.47583
7.07785
5.55924
-5.71968
12.7975
-1.05286
-6.20679
7.07699
-3.84153
4.78027
-8.62179
-10.3395
4.13272
-9.22963
11.037
-1.80737
-3.61967
-8.37322
12.8493
-1.20513
-11.6442
8.6104
-4.22753
-4.28545
8.51298
-6.86236
6.80146
-1.95515
-4.84631
-10.1626
-5.72582
10.2649
1.58237
-9.88201
12.2636
-2.65189
4.15802
0.712018
4.17683
3.28203
-5.42875
2.14673
3.58034
-5.53548
2.05786
-7.48662
-6.78621
12.1334
-5.34715
-10.5657
-9.59638
-0.969339
2.55428
9.70935
-9.53199
7.46686
2.06514
3.3025
0.587209
-3.37386
-0.408806
0.245352
4.51803
-4.76338
4.03855
4.19628
3.25678
1.26125
3.84675
2.10849
-3.86952
-0.329304
-4.16095
1.48688
-1.74761
-3.68534
5.17222
-4.0634
0.378058
-2.74252
-3.498
6.24052
-4.58169
3.03777
3.15224
5.08523
-4.913
1.415
-2.3944
-2.5186
2.6484
-4.39601
1.98574
3.18648
4.37248
0.591527
5.92336
6.21
-8.54928
0.551956
11.2996
-9.58575
2.49324
8.61898
-9.9601
0.363724
-8.75119
0.977561
-5.23158
-5.13835
5.13171
-6.85824
-3.49008
6.21546
0.571425
-6.3341
-0.435366
-6.07655
-2.87865
-6.52044
-3.05701
-6.1722
-8.7767
-1.68423
-7.09247
6.76606
-6.70526
-3.47872
7.44569
1.13198
-7.48328
7.37894
-7.54746
7.20999
0.0943013
3.62212
4.35678
1.88535
-2.39125
4.2766
-5.06723
7.31562
-8.6548
3.58757
4.11953
-6.68726
-4.53528
5.0728
4.06493
5.39199
8.97946
-10.4778
1.49834
-10.7498
12.0841
-1.33423
-16.5532
5.80337
-7.57375
2.54906
0.320945
2.60341
0.606817
2.47648
-3.0833
-2.19799
-2.13776
-2.39071
-3.49271
5.88342
1.11577
-3.41549
2.29972
-3.57075
4.68651
0.00850096
-3.42399
5.20463
-2.72815
5.52558
-3.56224
1.96333
3.49896
5.8147
-2.31574
4.42189
-1.76459
1.89847
-4.21421
-1.59425
-2.95986
5.09645
-3.28066
3.65872
-0.333061
3.99178
-4.08103
0.906165
-0.824246
3.37203
3.6457
4.31831
-3.05706
2.94815
-4.71273
-1.26606
-4.1212
-0.934722
-0.220408
-3.84175
4.06216
6.06441
-6.28482
-5.30924
9.5686
-4.25936
7.73055
-5.4616
-2.26895
-4.31176
-4.39946
3.94032
1.97815
9.7087
0.17846
-5.64006
-5.0304
-4.00592
3.19887
2.14753
-1.887
3.39336
2.11809
-0.405037
0.48876
1.09513
1.85383
-1.36507
0.281095
1.57273
-1.20867
1.8752
0.773707
-1.93074
0.0758033
-1.26343
3.44025
1.09307
-2.0969
0.731838
0.969551
-3.54012
4.9063
-2.63705
-2.26925
5.87585
1.15194
-3.78899
4.28879
-3.92147
2.40559
-3.53816
-1.3834
-5.30487
-3.54938
-2.53704
4.83677
-3.34638
5.45801
1.28698
-5.26966
6.55664
-3.60399
1.74043
-3.06439
3.8381
-1.08252
-1.98187
2.94929
2.46405
-3.08094
0.151353
-0.131649
2.38521
-2.51685
-0.527671
-2.57453
-4.57491
4.90435
-2.10463
4.55328
2.17196
-1.91627
6.46954
1.80915
-3.72542
-3.24779
-3.70652
-1.3832
3.15454
-0.584502
-4.30312
-5.43081
4.20437
0.222437
-6.83084
7.7705
-0.939658
-3.85376
-0.946391
4.87012
-6.00381
0.468323
-3.94594
3.82455
4.74005
4.96249
-11.4198
-0.224349
-6.20903
1.11205
-7.32108
5.58788
-3.57084
7.70356
-10.3587
6.87995
-9.2267
6.56365
-0.757427
6.23687
-4.09014
2.8034
-8.52922
-6.94686
5.46274
-2.74894
6.17475
-3.11215
9.2869
-5.76404
5.2223
4.0646
-1.02059
-4.19321
-5.23046
4.20988
-0.00816571
4.16867
4.98359
-2.87511
4.65429
2.25861
-4.653
-2.1374
-6.48967
1.83667
-3.33743
-1.91946
3.75613
3.16577
3.75297
1.23753
-3.34417
7.23801
-8.20735
-1.89086
-3.24749
5.19934
-0.989467
3.39479
-6.64228
-1.8368
4.81343
-0.756359
-4.05708
0.860125
-4.35021
1.67514
-6.02535
5.1831
-5.61847
2.24666
-9.8204
-5.23662
-5.18857
-2.27822
-5.26924
-7.62471
5.34649
-1.82134
5.5576
-8.59726
7.84091
-3.48681
8.8333
-5.46622
-1.05422
5.89533
1.31467
10.148
0.112315
-4.64759
-1.92928
3.84078
-1.9115
1.26959
-3.72944
0.111338
2.47153
3.40432
-6.66095
-0.0263174
-4.67391
-3.91813
7.98306
5.65047
11.7149
1.23708
9.18197
-1.1989
10.419
4.19309
4.43275
-3.04316
4.5415
1.019
4.60658
-0.856006
2.81934
1.74741
1.76005
0.837473
2.29472
1.35098
3.20088
0.117586
-2.02017
4.65259
-8.6585
-0.987476
-8.11396
1.15311
5.4293
-4.27619
3.00809
-0.860563
1.09659
-0.0119317
-1.54087
1.5528
-2.78776
-1.9459
-0.373173
-1.6275
2.35933
1.81276
-1.98616
-0.801599
0.317317
-3.86669
3.22084
-3.06949
-0.605442
5.9512
-2.81302
0.296168
-1.07259
-2.27837
-2.84131
2.76551
6.17471
0.294833
3.112
5.19919
3.10054
0.225428
3.89615
-5.70352
-3.59046
-5.92787
-0.339993
4.53012
1.71629
7.99306
5.78089
4.79143
-1.85085
-10.0582
6.54053
-1.99903
5.2063
-1.14923
-4.87613
5.05314
2.26248
-5.62456
0.00609648
-4.87003
-6.86906
-0.4917
8.33261
-9.65626
8.60205
5.7234
1.36907
-4.44454
-0.744034
4.28735
0.145395
10.5644
-0.904393
-7.16337
8.06776
-4.52491
3.53743
0.730817
2.66255
2.28362
1.42305
-5.74031
-10.0165
-1.94444
-1.59568
-4.21369
0.584521
-2.39728
6.10376
-2.56633
3.83482
5.50143
6.59803
-2.06926
-4.21556
6.32862
-2.4938
4.10422
)
;

boundaryField
{
    wall-4
    {
        type            calculated;
        value           uniform 0;
    }
    velocity-inlet-5
    {
        type            calculated;
        value           uniform -3.75095;
    }
    velocity-inlet-6
    {
        type            calculated;
        value           uniform -5.62643;
    }
    pressure-outlet-7
    {
        type            calculated;
        value           nonuniform List<scalar> 8(3.18945 7.66159 4.29185 9.75721 7.52599 5.17666 5.88659 9.024);
    }
    wall-8
    {
        type            calculated;
        value           uniform 0;
    }
    frontAndBackPlanes
    {
        type            empty;
        value           nonuniform 0();
    }
}


// ************************************************************************* //
