/*--------------------------------*- C++ -*----------------------------------*\
  =========                 |
  \\      /  F ield         | OpenFOAM: The Open Source CFD Toolbox
   \\    /   O peration     | Website:  https://openfoam.org
    \\  /    A nd           | Version:  6
     \\/     M anipulation  |
\*---------------------------------------------------------------------------*/
FoamFile
{
    version     2.0;
    format      ascii;
    class       surfaceScalarField;
    location    "7.2";
    object      phi;
}
// * * * * * * * * * * * * * * * * * * * * * * * * * * * * * * * * * * * * * //

dimensions      [0 3 -1 0 0 0 0];

internalField   nonuniform List<scalar> 
17370
(
-0.0899252
0.0897247
0.289211
-0.0712752
0.0534639
0.364587
-0.0376944
0.0271236
0.426739
-0.0190276
0.014068
0.504211
-0.0103028
0.00787381
0.601831
-0.00586702
0.00445238
0.720472
-0.0032363
0.00240364
0.863739
-0.00171684
0.0012696
1.0359
-0.000877142
0.000564368
1.24282
-0.000233935
-2.57267e-05
1.49145
0.000306173
-0.00063733
1.49152
0.000944033
-0.00132863
1.24307
0.00177032
-0.00245535
1.03632
0.00328749
-0.00450052
0.86412
0.00591119
-0.00791489
0.721061
0.0103376
-0.0140955
0.602972
0.0190492
-0.0271412
0.507531
0.0377105
-0.0534785
0.431936
0.0712881
-0.0897335
0.365221
0.0899306
0.19908
-0.128387
0.0887888
0.0395984
-0.364837
0.353913
-0.0739319
0.0848552
-0.446567
0.454178
-0.0832074
0.0755968
-0.521279
0.529751
-0.0678685
0.0593967
-0.61264
0.621615
-0.0511639
0.042189
-0.7266
0.734062
-0.0344473
0.0269847
-0.867352
0.872298
-0.0213167
0.0163709
-1.03847
1.04169
-0.0127132
0.0094888
-1.24462
1.24683
-0.00705795
0.00484646
-1.49277
1.49449
-0.00308753
0.00136756
-1.4924
1.49397
0.000225471
-0.00179555
-1.24401
1.24575
0.00351412
-0.00525473
-1.03749
1.03987
0.00742604
-0.00980697
-0.865982
0.869605
0.0129785
-0.0166022
-0.724121
0.729769
0.0215182
-0.0271659
-0.608448
0.616183
0.0346122
-0.0423476
-0.514904
0.523129
0.0513173
-0.0595421
-0.439953
0.447665
0.0679978
-0.0757097
-0.375374
0.377001
0.0833017
-0.0849287
-0.257641
0.223278
0.0739805
-0.0396173
-0.0696197
0.0605435
0.00907621
-0.0480015
0.0537818
-0.374925
0.369144
-0.0520919
0.0477266
-0.453651
0.458016
-0.0425592
0.0387614
-0.527878
0.531676
-0.0352321
0.0319542
-0.621237
0.624514
-0.0284837
0.0251915
-0.734941
0.738233
-0.0215922
0.0182326
-0.873752
0.877112
-0.0147449
0.0116876
-1.04286
1.04592
-0.00856126
0.00576817
-1.248
1.25079
-0.00267472
-0.000462196
-1.49624
1.49938
0.00354673
-0.00657457
-1.4967
1.49972
0.00931658
-0.0123861
-1.24946
1.25253
0.0153985
-0.0188417
-1.04532
1.04876
0.0221408
-0.0256645
-0.877277
0.8808
0.0288913
-0.0323022
-0.739588
0.742999
0.0355609
-0.0390666
-0.626611
0.630116
0.0428369
-0.0479763
-0.534835
0.539975
0.0523102
-0.0539618
-0.458094
0.459745
0.0481348
-0.0295059
-0.337236
0.318607
0.00909859
-0.0695639
0.0604653
-0.055635
0.0527844
0.00285056
-0.0248495
0.0335735
-0.360744
0.35202
-0.0372101
0.0372771
-0.459894
0.459828
-0.0350636
0.032388
-0.535364
0.53804
-0.0293238
0.026979
-0.627739
0.630084
-0.0244943
0.0220662
-0.740724
0.743152
-0.0193301
0.0168722
-0.879612
0.88207
-0.0140795
0.0114508
-1.04868
1.05131
-0.00844464
0.00562134
-1.25373
1.25656
-0.00244439
-0.000494142
-1.50264
1.50558
0.00344832
-0.0066056
-1.50303
1.50618
0.00938442
-0.0123288
-1.25557
1.25851
0.0148853
-0.0175957
-1.05157
1.05428
0.0199867
-0.0226518
-0.883337
0.886002
0.0250265
-0.027469
-0.746134
0.748577
0.0297284
-0.0327282
-0.633817
0.636817
0.0353629
-0.0375276
-0.544263
0.546428
0.0374155
-0.0337265
-0.458256
0.454567
0.0249527
-0.0116287
-0.301737
0.288413
0.00286791
-0.0555347
0.0526667
-0.0514168
0.0510657
0.000351134
-0.00811733
0.0140217
-0.344524
0.338619
-0.0190299
0.0219105
-0.458163
0.455283
-0.0237971
0.0246492
-0.538776
0.537924
-0.0249736
0.0244117
-0.6313
0.631862
-0.0233261
0.0219438
-0.745113
0.746496
-0.0199308
0.0177381
-0.884554
0.886747
-0.0150432
0.0123495
-1.05403
1.05672
-0.00919418
0.00613883
-1.25943
1.26248
-0.00261762
-0.000793501
-1.5086
1.51201
0.00419126
-0.00765947
-1.50939
1.51286
0.0106472
-0.013725
-1.26154
1.26462
0.0163339
-0.0189234
-1.0571
1.05969
0.0210101
-0.022902
-0.888455
0.890347
0.0241788
-0.0251756
-0.750175
0.751171
0.0256669
-0.0252309
-0.63797
0.637534
0.0243014
-0.0223398
-0.54631
0.544348
0.0193933
-0.0143032
-0.449847
0.444757
0.00831253
-0.00263462
-0.279277
0.273599
0.000384164
-0.0512744
0.0508903
-0.0510284
0.0509109
0.000117419
-0.00367482
0.00767408
-0.333867
0.329868
-0.0126454
0.0166754
-0.451664
0.447633
-0.0200566
0.0218568
-0.536421
0.534621
-0.0226849
0.0228777
-0.631785
0.631592
-0.02252
0.0215783
-0.747639
0.74858
-0.0200007
0.0181238
-0.888716
0.890593
-0.0156254
0.0129865
-1.05939
1.06203
-0.00973386
0.00646994
-1.26569
1.26895
-0.00259486
-0.00122429
-1.51572
1.51954
0.00500465
-0.00879097
-1.51656
1.52035
0.0119504
-0.0150567
-1.26772
1.27082
0.0175509
-0.0198861
-1.0621
1.06443
0.0216145
-0.0230282
-0.89192
0.893333
0.0237982
-0.0239953
-0.751719
0.751916
0.0236573
-0.0227043
-0.636485
0.635532
0.0207799
-0.0172634
-0.541374
0.537857
0.0131127
-0.00801054
-0.43957
0.434468
0.00389686
-0.00109886
-0.269883
0.267085
0.000154568
-0.0508166
0.0506621
-0.0507834
0.0507559
2.75563e-05
-0.00169097
0.00411304
-0.326611
0.324189
-0.00789066
0.0116073
-0.443516
0.439799
-0.0152602
0.0178705
-0.532249
0.529639
-0.0197783
0.0206141
-0.631278
0.630442
-0.020611
0.0199557
-0.749423
0.750078
-0.0186027
0.01694
-0.892418
0.894081
-0.0146681
0.0122327
-1.06461
1.06705
-0.0091706
0.0060443
-1.2722
1.27532
-0.00222353
-0.00165126
-1.52344
1.52731
0.00550609
-0.00924095
-1.52416
1.5279
0.0122095
-0.0150557
-1.27386
1.2767
0.0172697
-0.0192843
-1.06667
1.06869
0.0207207
-0.0218253
-0.894582
0.895686
0.0222799
-0.0220875
-0.752109
0.751916
0.0210668
-0.0189495
-0.634121
0.632004
0.0161619
-0.0123281
-0.533954
0.530121
0.00845598
-0.00451833
-0.429756
0.425818
0.00195963
-0.000519443
-0.264979
0.263539
7.13488e-05
-0.050494
0.0504226
-0.0507809
0.0508002
-1.92946e-05
-0.0006209
0.00175602
-0.322512
0.321377
-0.00376439
0.00596884
-0.436832
0.434628
-0.00837473
0.0103089
-0.527295
0.52536
-0.0119658
0.0130214
-0.629356
0.6283
-0.0136207
0.0136727
-0.750301
0.750249
-0.0132102
0.0123313
-0.895343
0.896222
-0.0108783
0.0091264
-1.06918
1.07093
-0.00676139
0.00422429
-1.27821
1.28075
-0.00106103
-0.00211889
-1.53092
1.5341
0.00524411
-0.00824872
-1.53134
1.53435
0.0105869
-0.0126853
-1.27922
1.28132
0.0141688
-0.0153116
-1.0703
1.07144
0.0159039
-0.0160617
-0.896271
0.896428
0.0157354
-0.0148439
-0.751213
0.750321
0.0135352
-0.0116237
-0.629879
0.627968
0.00947458
-0.00685095
-0.526838
0.524214
0.00446065
-0.00225896
-0.422811
0.420609
0.000956094
-0.000260817
-0.262575
0.26188
3.74835e-05
-0.0503981
0.0503606
-0.0508144
0.0508413
-2.69127e-05
-0.000193414
0.000681154
-0.320619
0.320132
-0.00160705
0.00269574
-0.433053
0.431964
-0.00397858
0.00509634
-0.523854
0.522737
-0.00616013
0.00693024
-0.627367
0.626597
-0.00749871
0.00773485
-0.75006
0.749823
-0.00764701
0.00723533
-0.896828
0.89724
-0.00640011
0.00529149
-1.07233
1.07344
-0.00369722
0.00192042
-1.28289
1.28467
0.000338068
-0.00260851
-1.53682
1.53909
0.00480529
-0.00685935
-1.53687
1.53892
0.00837925
-0.0096451
-1.28299
1.28425
0.0104264
-0.0108816
-1.07221
1.07266
0.0109437
-0.0106524
-0.896314
0.896023
0.0100808
-0.00916161
-0.749377
0.748458
0.00808941
-0.00671685
-0.626323
0.624951
0.00533707
-0.003787
-0.522181
0.520631
0.00247022
-0.00130643
-0.419012
0.417848
0.000611328
-0.000204491
-0.261352
0.260945
4.37763e-05
-0.0503126
0.0502689
-0.0508774
0.0509208
-4.34409e-05
6.96375e-05
9.91604e-05
-0.319835
0.319666
-0.000473268
0.000942548
-0.431236
0.430767
-0.00152435
0.00205539
-0.521947
0.521416
-0.00259118
0.00300366
-0.62601
0.625597
-0.00333433
0.00349368
-0.749605
0.749446
-0.00347548
0.0032543
-0.897525
0.897746
-0.00275935
0.00206521
-1.07431
1.07501
-0.00103168
-0.000145721
-1.28612
1.2873
0.00166023
-0.00318568
-1.54096
1.54248
0.00463213
-0.00591178
-1.54056
1.54184
0.0067907
-0.00741858
-1.28517
1.28579
0.00769486
-0.00772636
-1.07287
1.07291
0.0075192
-0.00707574
-0.895628
0.895185
0.00650871
-0.0057514
-0.747612
0.746854
0.00497064
-0.0040571
-0.62383
0.622916
0.00320432
-0.00229445
-0.519453
0.518543
0.00154431
-0.000878228
-0.416983
0.416317
0.000455457
-0.000175176
-0.260618
0.260338
4.41901e-05
-0.0502278
0.0501836
-0.0509704
0.0510277
-5.73088e-05
0.000225587
-0.000235286
-0.319603
0.319613
0.00014537
4.61664e-06
-0.430482
0.430332
-0.000204849
0.000390484
-0.521081
0.520895
-0.0005755
0.000709589
-0.625336
0.625201
-0.00079743
0.000803189
-0.749362
0.749356
-0.00070298
0.000492938
-0.897948
0.898158
-0.000110416
-0.000389847
-1.07558
1.07608
0.00111066
-0.00191535
-1.28826
1.28907
0.0029331
-0.00393146
-1.54372
1.54472
0.00483611
-0.0055666
-1.54281
1.54354
0.00597489
-0.00618601
-1.2862
1.28641
0.00620789
-0.00602063
-1.07281
1.07262
0.00570536
-0.00523835
-0.894724
0.894257
0.00473073
-0.00411827
-0.746178
0.745566
0.0035318
-0.00288311
-0.622158
0.621509
0.00230321
-0.00170097
-0.517817
0.517215
0.00120549
-0.000749561
-0.41578
0.415324
0.000432039
-0.000189029
-0.260083
0.25984
5.48548e-05
-0.0501343
0.0500794
-0.0510914
0.0511625
-7.1054e-05
0.000359761
-0.000473649
-0.319673
0.319787
0.000546123
-0.000585238
-0.430287
0.430326
0.000615932
-0.000648523
-0.520829
0.520862
0.000700072
-0.000770632
-0.625177
0.625247
0.000884273
-0.00103261
-0.749428
0.749577
0.00125759
-0.00153227
-0.898395
0.898669
0.00192142
-0.00236313
-1.07654
1.07698
0.00294244
-0.00354562
-1.28975
1.29036
0.00426083
-0.00491341
-1.54552
1.54618
0.00544761
-0.00581737
-1.54408
1.54445
0.00596283
-0.00592146
-1.28647
1.28642
0.00572064
-0.0053889
-1.07236
1.07203
0.00500303
-0.00451572
-0.893782
0.893295
0.00403599
-0.0034934
-0.744998
0.744455
0.00299779
-0.00246818
-0.620934
0.620405
0.00200602
-0.00153143
-0.516692
0.516218
0.00113661
-0.0007567
-0.414917
0.414537
0.000467717
-0.000220267
-0.259599
0.259351
6.83503e-05
-0.0500183
0.04995
-0.0512429
0.0513347
-9.17923e-05
0.000504024
-0.000714141
-0.319952
0.320162
0.000915688
-0.00108604
-0.430434
0.430604
0.00127553
-0.00146244
-0.520976
0.521163
0.00168875
-0.00191948
-0.625402
0.625632
0.00220327
-0.00249572
-0.749798
0.75009
0.00285795
-0.00323096
-0.89899
0.899363
0.00368848
-0.00414861
-1.07743
1.07789
0.00469089
-0.00520209
-1.2909
1.29141
0.00574636
-0.00617716
-1.5467
1.54714
0.00645771
-0.00654887
-1.54467
1.54476
0.00646533
-0.00624596
-1.28631
1.28609
0.00592179
-0.00548051
-1.07164
1.0712
0.0050241
-0.00449312
-0.892789
0.892258
0.0039972
-0.00345719
-0.743921
0.743381
0.00297745
-0.00247485
-0.619898
0.619395
0.00204175
-0.00159859
-0.515768
0.515325
0.00122493
-0.000851358
-0.414167
0.413794
0.000547876
-0.000268362
-0.259091
0.258811
8.60836e-05
-0.0498733
0.0497872
-0.0514388
0.0515564
-0.00011761
0.00066892
-0.000971619
-0.320417
0.32072
0.00128864
-0.0015763
-0.430834
0.431121
0.00190503
-0.00222761
-0.521419
0.521741
0.00260986
-0.00298744
-0.625937
0.626314
0.00343343
-0.00387108
-0.750454
0.750892
0.00438326
-0.00487848
-0.899794
0.900289
0.00544537
-0.00597493
-1.07837
1.0789
0.00655012
-0.00704408
-1.29191
1.2924
0.00750899
-0.00780789
-1.54749
1.54779
0.00791721
-0.00781716
-1.54475
1.54465
0.00756114
-0.00715011
-1.28576
1.28535
0.00669479
-0.00612902
-1.0707
1.07013
0.00558067
-0.00496695
-0.891692
0.891078
0.00441018
-0.0038167
-0.742821
0.742227
0.00329751
-0.00275945
-0.618881
0.618343
0.00229882
-0.00182792
-0.514874
0.514403
0.00142678
-0.00101529
-0.413406
0.412994
0.000667138
-0.000333139
-0.258507
0.258173
0.000108511
-0.0496906
0.0495821
-0.0516894
0.0518399
-0.000150497
0.000869281
-0.00127606
-0.321073
0.321479
0.00171618
-0.00212478
-0.431468
0.431877
0.00259575
-0.0030572
-0.522132
0.522593
0.00360042
-0.0041318
-0.626767
0.627298
0.00475132
-0.00534898
-0.751407
0.752005
0.00603355
-0.00667807
-0.900855
0.9015
0.00739217
-0.00803317
-1.07948
1.08013
0.00869512
-0.00922624
-1.29291
1.29344
0.00967446
-0.00989755
-1.54805
1.54827
0.00988087
-0.00961654
-1.54447
1.5442
0.00920379
-0.00861624
-1.28485
1.28427
0.00800335
-0.00728217
-1.06949
1.06877
0.00660444
-0.00586255
-0.890406
0.889664
0.00520036
-0.00450276
-0.741588
0.74089
0.00389763
-0.00327426
-0.617768
0.617145
0.00274247
-0.00219895
-0.513901
0.513357
0.00173308
-0.00124803
-0.41255
0.412065
0.000828444
-0.00041741
-0.257804
0.257393
0.000136872
-0.0494602
0.0493233
-0.0520106
0.0522041
-0.00019355
0.00112449
-0.00165753
-0.321946
0.322479
0.0022415
-0.00278838
-0.432351
0.432898
0.0034207
-0.00403992
-0.52313
0.523749
0.00476679
-0.0054749
-0.627914
0.628622
0.00629586
-0.007082
-0.752692
0.753478
0.00797375
-0.00880287
-0.902232
0.903061
0.00970661
-0.0105008
-1.08084
1.08163
0.0112973
-0.0119093
-1.29401
1.29462
0.0123855
-0.0125661
-1.54847
1.54865
0.0124433
-0.0120163
-1.54386
1.54343
0.0114332
-0.0106483
-1.28359
1.2828
0.00985183
-0.00893469
-1.06796
1.06704
0.00808587
-0.00716727
-0.88884
0.887922
0.00635419
-0.00550292
-0.740122
0.739271
0.00476781
-0.00401296
-0.616462
0.615707
0.00337023
-0.00271339
-0.512762
0.512106
0.00214855
-0.00155587
-0.411531
0.410938
0.00103749
-0.000524651
-0.256934
0.256421
0.000172436
-0.0491697
0.0489972
-0.0524244
0.0526743
-0.00024988
0.00145396
-0.00214603
-0.323086
0.323778
0.00290785
-0.00362365
-0.433524
0.43424
0.00445195
-0.00526255
-0.524459
0.525269
0.00621222
-0.00713519
-0.629432
0.630355
0.00820186
-0.00921913
-0.754374
0.755391
0.0103669
-0.0114267
-0.903999
0.905059
0.0125714
-0.0135649
-1.08252
1.08351
0.0145439
-0.0152755
-1.29529
1.29602
0.0158129
-0.0159683
-1.54882
1.54897
0.0157393
-0.0151322
-1.54292
1.54231
0.0143489
-0.0133252
-1.2819
1.28088
0.0123022
-0.0111367
-1.06601
1.06484
0.0100667
-0.00891564
-0.886894
0.885743
0.00790132
-0.00684281
-0.738323
0.737265
0.00593091
-0.00499606
-0.614869
0.613934
0.00420086
-0.00338829
-0.511377
0.510564
0.00268838
-0.00195127
-0.410278
0.409541
0.00130333
-0.000659722
-0.255847
0.255203
0.000216848
-0.0488038
0.048587
-0.0529602
0.0532843
-0.000324059
0.00188413
-0.00278101
-0.324565
0.325462
0.00376987
-0.00469993
-0.435054
0.435984
0.00577557
-0.00682667
-0.526192
0.527243
0.0080555
-0.00924731
-0.631405
0.632597
0.0106213
-0.0119279
-0.756546
0.757852
0.0133968
-0.0147465
-0.906255
0.907605
0.016195
-0.0174413
-1.08463
1.08587
0.0186539
-0.0195416
-1.29682
1.29771
0.0201649
-0.0202988
-1.54912
1.54925
0.0199467
-0.0191226
-1.5416
1.54078
0.0180934
-0.016771
-1.27971
1.27839
0.0154626
-0.0139817
-1.06353
1.06205
0.0126287
-0.0111785
-0.884452
0.883001
0.00990391
-0.00857638
-0.73608
0.734753
0.00743428
-0.00626446
-0.612889
0.611719
0.00526983
-0.00425337
-0.509656
0.50864
0.00337708
-0.00245268
-0.408717
0.407792
0.00163857
-0.000829046
-0.254482
0.253672
0.000272209
-0.048344
0.0480717
-0.0536581
0.0540814
-0.000423261
0.00245349
-0.00361925
-0.32648
0.327646
0.00490524
-0.00611391
-0.437035
0.438244
0.00750845
-0.0088663
-0.528436
0.529794
0.0104491
-0.0119809
-0.633952
0.635484
0.013743
-0.015415
-0.759334
0.761006
0.0172886
-0.0190032
-0.909127
0.910842
0.0208324
-0.0223938
-1.08727
1.08883
0.0238953
-0.0249741
-1.29869
1.29977
0.0256989
-0.0258005
-1.54937
1.54947
0.02529
-0.0241908
-1.53982
1.53872
0.0228512
-0.0211512
-1.27689
1.27519
0.0194819
-0.0176019
-1.06038
1.0585
0.0158905
-0.0140606
-0.881371
0.879541
0.0124553
-0.0107854
-0.733263
0.731593
0.00934969
-0.00787947
-0.610409
0.608938
0.00662919
-0.00535086
-0.507503
0.506225
0.00424809
-0.00308419
-0.406757
0.405593
0.00205917
-0.00104063
-0.252765
0.251746
0.000341135
-0.0477673
0.0474261
-0.0545736
0.0551346
-0.000560974
0.00322565
-0.00475285
-0.328964
0.330491
0.00643663
-0.00801177
-0.439599
0.441174
0.0098169
-0.0115638
-0.53134
0.533087
0.0135922
-0.0155529
-0.637236
0.639197
0.0178061
-0.019942
-0.762906
0.765041
0.0223289
-0.0245036
-0.912771
0.914946
0.0268078
-0.0287567
-1.09057
1.09252
0.0306059
-0.0319061
-1.30095
1.30225
0.0327352
-0.0327753
-1.54955
1.54959
0.032049
-0.0305926
-1.53746
1.536
0.0288572
-0.0266793
-1.27327
1.27109
0.0245551
-0.0221731
-1.05638
1.05399
0.0200115
-0.0177052
-0.877482
0.875175
0.0156852
-0.0135856
-0.729715
0.727615
0.0117809
-0.00993171
-0.60729
0.605441
0.00835711
-0.0067445
-0.504797
0.503184
0.00535156
-0.00388137
-0.404293
0.402823
0.00258866
-0.00130659
-0.250605
0.249323
0.000427941
-0.0470458
0.0466179
-0.0557846
0.0565476
-0.000762944
0.00431327
-0.00633789
-0.332199
0.334224
0.00855519
-0.0106
-0.442931
0.444975
0.0129134
-0.015137
-0.535111
0.537335
0.0177155
-0.020216
-0.641475
0.643976
0.0230978
-0.0258316
-0.767472
0.770206
0.0288775
-0.0316357
-0.917376
0.920134
0.0345305
-0.0369482
-1.09467
1.09709
0.0392022
-0.0407431
-1.30366
1.3052
0.0416586
-0.0415825
-1.54957
1.5495
0.0405561
-0.0386335
-1.53433
1.5324
0.0363941
-0.0336158
-1.26862
1.26585
0.030924
-0.0279174
-1.05131
1.0483
0.0251973
-0.0223012
-0.872574
0.869678
0.0197687
-0.0171388
-0.725245
0.722615
0.0148777
-0.0125576
-0.603364
0.601044
0.0105757
-0.00853758
-0.501395
0.499356
0.00677061
-0.00490373
-0.401194
0.399327
0.00326685
-0.00164828
-0.247892
0.246273
0.000540981
-0.046146
0.045605
-0.0574085
0.0584773
-0.0010688
0.00589688
-0.00860535
-0.336448
0.339157
0.0115085
-0.0141174
-0.447303
0.449912
0.0170249
-0.0198205
-0.540041
0.542837
0.023091
-0.0262973
-0.646949
0.650155
0.0300169
-0.0335443
-0.773291
0.776818
0.0374476
-0.0409424
-0.923156
0.926651
0.0445568
-0.0475196
-1.0997
1.10266
0.0502152
-0.0519875
-1.30682
1.30859
0.0529328
-0.0526477
-1.5493
1.54902
0.0512024
-0.0486743
-1.53018
1.52766
0.0458005
-0.0422788
-1.2627
1.25918
0.0388893
-0.0351178
-1.04491
1.04114
0.0317151
-0.0281001
-0.866395
0.862781
0.0249454
-0.0216735
-0.71962
0.716348
0.0188611
-0.0159704
-0.598422
0.595531
0.0134889
-0.010916
-0.497115
0.494542
0.0086644
-0.00627005
-0.3973
0.394905
0.00417381
-0.00210783
-0.244486
0.24242
0.000696772
-0.0450273
0.0443306
-0.05964
0.061176
-0.00153603
0.00825958
-0.0118977
-0.342112
0.34575
0.0156585
-0.0189482
-0.453103
0.456392
0.0225854
-0.0261334
-0.546506
0.550054
0.0303663
-0.0345624
-0.654003
0.658199
0.0394308
-0.0439984
-0.780674
0.785242
0.0489699
-0.0533326
-0.930342
0.934705
0.0577455
-0.0612698
-1.10575
1.10927
0.0643673
-0.066289
-1.31035
1.31227
0.0671277
-0.0664768
-1.54851
1.54786
0.0644452
-0.0611368
-1.52473
1.52142
0.0574782
-0.0530549
-1.2552
1.25078
0.0488271
-0.044139
-1.03689
1.0322
0.0399172
-0.0354388
-0.858655
0.854177
0.0315376
-0.0274999
-0.712557
0.708519
0.0240342
-0.0204724
-0.592199
0.588637
0.0173994
-0.0141771
-0.491722
0.4885
0.0113065
-0.00819816
-0.392408
0.3893
0.00545859
-0.00275792
-0.240218
0.237518
0.000919158
-0.0436374
0.0427182
-0.0628091
0.0651247
-0.00231563
0.0120773
-0.0170438
-0.34979
0.354757
0.0219422
-0.0261578
-0.460848
0.465063
0.0308321
-0.0354931
-0.554988
0.559649
0.0411283
-0.0466873
-0.663087
0.668646
0.0530179
-0.058798
-0.790001
0.795781
0.0649192
-0.0701383
-0.939137
0.944356
0.0752638
-0.0792179
-1.11278
1.11674
0.0825218
-0.0843817
-1.31403
1.31589
0.0848544
-0.0835898
-1.54683
1.54557
0.0807412
-0.0764388
-1.51758
1.51327
0.0718287
-0.0663382
-1.2458
1.24031
0.0611323
-0.0553793
-1.02693
1.02118
0.0502002
-0.0447031
-0.849043
0.843545
0.0399132
-0.0349586
-0.70374
0.698786
0.0307123
-0.0263563
-0.584378
0.580022
0.0225874
-0.0186001
-0.484906
0.480919
0.0149716
-0.010931
-0.386232
0.382191
0.0072989
-0.00367938
-0.234851
0.231231
0.00122303
-0.0418919
0.0406688
-0.0674952
0.0713398
-0.00384462
0.0190158
-0.0259589
-0.360476
0.367419
0.032382
-0.0378287
-0.471412
0.476859
0.0439996
-0.0502624
-0.56619
0.572453
0.0577489
-0.0649119
-0.674776
0.681939
0.0727887
-0.0797175
-0.801578
0.808507
0.086815
-0.0926685
-0.949503
0.955356
0.0982076
-0.102278
-1.1205
1.12457
0.105417
-0.10686
-1.31738
1.31882
0.106586
-0.104372
-1.54373
1.54151
0.100419
-0.0948814
-1.5083
1.50276
0.0891452
-0.0824342
-1.23417
1.22746
0.0761321
-0.069196
-1.01476
1.00782
0.0629514
-0.0563044
-0.83728
0.830633
0.0504878
-0.0444492
-0.692866
0.686827
0.0392601
-0.0339238
-0.574615
0.569279
0.0292948
-0.0243883
-0.476271
0.471365
0.019837
-0.0146367
-0.378312
0.373112
0.00983008
-0.00494242
-0.227962
0.223075
0.00161273
-0.0396386
0.0380259
-0.0749176
0.0821941
-0.00727654
0.0329209
-0.0431236
-0.376181
0.386384
0.0515092
-0.0585042
-0.486087
0.493082
0.0666196
-0.0747853
-0.58089
0.589056
0.0841729
-0.0926808
-0.689413
0.697921
0.101607
-0.109157
-0.815211
0.82276
0.116615
-0.122516
-0.960842
0.966744
0.127828
-0.131422
-1.1281
1.1317
0.133787
-0.13427
-1.31957
1.32005
0.132731
-0.129143
-1.53847
1.53488
0.123762
-0.116754
-1.4964
1.48939
0.109741
-0.101716
-1.22003
1.21201
0.0942631
-0.0861179
-1.0002
0.992052
0.0787971
-0.070994
-0.823203
0.8154
0.0641365
-0.0569764
-0.679723
0.672563
0.0507744
-0.0443614
-0.562621
0.556208
0.0388073
-0.0329039
-0.465358
0.459454
0.027226
-0.0203377
-0.367947
0.361058
0.01364
-0.00669539
-0.218712
0.211767
0.00206427
-0.0366668
0.0346025
-0.089487
0.09232
-0.00283299
0.0203561
-0.0292458
-0.399762
0.408652
0.0375984
-0.0453552
-0.505746
0.513503
0.0546585
-0.064432
-0.598857
0.608631
0.0751709
-0.0847348
-0.706053
0.715617
0.0953556
-0.10473
-0.82957
0.838944
0.114462
-0.122799
-0.971733
0.98007
0.131081
-0.137725
-1.13423
1.14088
0.143655
-0.147571
-1.3194
1.32332
0.14972
-0.149249
-1.53015
1.52968
0.146013
-0.140383
-1.4814
1.47577
0.133671
-0.125053
-1.20323
1.19461
0.116546
-0.106235
-0.983247
0.972935
0.0966634
-0.0860063
-0.806893
0.796236
0.0763568
-0.0659838
-0.664388
0.654015
0.0565351
-0.0468293
-0.548355
0.538649
0.0385835
-0.0295118
-0.451917
0.442845
0.0212388
-0.0126838
-0.354223
0.345668
0.00607473
-0.00147448
-0.205345
0.200745
-0.000308304
-0.0324526
0.0327609
-0.0997131
0.0950928
0.00462026
-0.00298648
-0.00177737
-0.42107
0.425834
0.00873279
-0.0158097
-0.524959
0.532036
0.0247291
-0.033182
-0.618504
0.626957
0.042746
-0.0514438
-0.725102
0.733799
0.0607202
-0.0691277
-0.847815
0.856222
0.0778721
-0.0851048
-0.988117
0.995349
0.0925325
-0.0982008
-1.14742
1.15309
0.10327
-0.106388
-1.32711
1.33023
0.107601
-0.106519
-1.52864
1.52756
0.102884
-0.0970969
-1.46962
1.46383
0.0902991
-0.0818968
-1.18581
1.17741
0.073793
-0.0645024
-0.962725
0.953434
0.0557744
-0.0460482
-0.785364
0.775637
0.0372957
-0.0282497
-0.642608
0.633562
0.0204915
-0.0125235
-0.527109
0.519141
0.00572761
0.000819171
-0.431297
0.424751
-0.00554641
0.00867426
-0.334919
0.331791
-0.00899748
0.00635454
-0.193618
0.196261
-0.00295915
-0.0309094
0.0338686
-0.0969839
0.092602
0.00438191
-0.00956582
0.00779772
-0.435324
0.437092
-0.00340978
-0.00224845
-0.541276
0.546934
0.00934321
-0.0163501
-0.635462
0.642468
0.0242521
-0.0315027
-0.741938
0.749189
0.03947
-0.0465614
-0.863949
0.87104
0.053753
-0.0600746
-1.00239
1.00872
0.0664169
-0.0713944
-1.15837
1.16335
0.0755113
-0.0779437
-1.33285
1.33529
0.0789531
-0.07782
-1.52615
1.52502
0.0744455
-0.0692956
-1.45801
1.45286
0.0634214
-0.0564564
-1.16952
1.16256
0.0495467
-0.0419869
-0.944573
0.937013
0.035054
-0.0275049
-0.766918
0.759369
0.021074
-0.0145016
-0.624875
0.618302
0.00913485
-0.00368688
-0.510447
0.504999
-0.000458977
0.00406063
-0.416494
0.412892
-0.00643657
0.00726803
-0.324911
0.324079
-0.00619017
0.00375528
-0.192847
0.195282
-0.00167023
-0.0334751
0.0351453
-0.0933449
0.089446
0.00389887
-0.0112545
0.0111788
-0.44424
0.444316
-0.00838988
0.00381444
-0.55382
0.558396
0.00217312
-0.00780533
-0.649107
0.654739
0.0143083
-0.0202953
-0.756107
0.762094
0.0268207
-0.0326547
-0.877629
0.883463
0.0389639
-0.0441711
-1.01461
1.01982
0.0496253
-0.053545
-1.168
1.17192
0.0571469
-0.0593067
-1.33768
1.33984
0.0601276
-0.0589353
-1.52381
1.52262
0.0561868
-0.0520013
-1.44773
1.44355
0.0471926
-0.0412668
-1.15602
1.1501
0.0357538
-0.029853
-0.929922
0.924021
0.0243639
-0.018765
-0.752618
0.747019
0.01371
-0.00878886
-0.611826
0.606905
0.00478342
-0.00107437
-0.498986
0.495277
-0.00160098
0.00387468
-0.406931
0.404658
-0.00530005
0.00534294
-0.318868
0.318826
-0.00447667
0.00273935
-0.192234
0.193971
-0.00124956
-0.0341813
0.0354309
-0.0902662
0.0872485
0.00301772
-0.0103525
0.0112621
-0.449912
0.449002
-0.00908671
0.00556271
-0.564065
0.567589
-0.000936146
-0.00388002
-0.660238
0.665054
0.00907393
-0.0140952
-0.767617
0.772638
0.0194787
-0.024332
-0.888886
0.89374
0.0295299
-0.0340234
-1.02488
1.02937
0.0385429
-0.0421395
-1.17576
1.17936
0.0452829
-0.0472144
-1.34181
1.34374
0.0480418
-0.0471172
-1.52157
1.52064
0.044905
-0.0413175
-1.43919
1.4356
0.0373482
-0.0325991
-1.14465
1.1399
0.0281022
-0.0231922
-0.918371
0.913461
0.0188375
-0.0143
-0.741661
0.737123
0.0103993
-0.00650976
-0.602104
0.598215
0.00343786
-0.000621209
-0.490761
0.487944
-0.00155028
0.00324799
-0.400295
0.398598
-0.00406328
0.00419143
-0.314552
0.314424
-0.00359715
0.00209614
-0.190767
0.192268
-0.00101478
-0.034332
0.0353468
-0.0881726
0.0858226
0.00234994
-0.00867796
0.00964625
-0.453675
0.452707
-0.00849763
0.00561913
-0.571747
0.574626
-0.00151698
-0.00231604
-0.669268
0.673101
0.00651362
-0.0106459
-0.77704
0.781172
0.015209
-0.019367
-0.898265
0.902423
0.0239704
-0.0277938
-1.0336
1.03743
0.0317919
-0.035017
-1.18274
1.18597
0.0378269
-0.0395961
-1.34554
1.34731
0.0404303
-0.0400798
-1.51987
1.51952
0.0382496
-0.0353957
-1.43195
1.42909
0.0320319
-0.0279843
-1.13533
1.13129
0.0243715
-0.020085
-0.908782
0.904496
0.0163388
-0.0125745
-0.732786
0.729022
0.00927481
-0.00596982
-0.594455
0.59115
0.00330187
-0.000680704
-0.484356
0.481735
-0.00101957
0.00245242
-0.395
0.393567
-0.00340124
0.00351456
-0.31068
0.310567
-0.00294492
0.00176777
-0.1892
0.190377
-0.000835862
-0.0342112
0.0350471
-0.0869198
0.0851809
0.00173889
-0.00678524
0.00779703
-0.456483
0.455471
-0.00677423
0.00465631
-0.578225
0.580343
-0.00119068
-0.00203433
-0.676669
0.679894
0.00582245
-0.00916903
-0.785037
0.788384
0.0129657
-0.016472
-0.906542
0.910048
0.0207088
-0.0240719
-1.04126
1.04462
0.0275279
-0.0305499
-1.18905
1.19207
0.0335304
-0.0352384
-1.3492
1.35091
0.0362844
-0.0361054
-1.51897
1.51879
0.0349455
-0.0323478
-1.42628
1.42368
0.0296016
-0.0262139
-1.12733
1.12394
0.0229339
-0.0193056
-0.900446
0.896817
0.0159298
-0.0123869
-0.725171
0.721628
0.00962113
-0.00653118
-0.587762
0.584672
0.00396373
-0.00167388
-0.478608
0.476318
-6.93026e-05
0.00160838
-0.390493
0.388954
-0.00245075
0.0026592
-0.307364
0.307155
-0.00226282
0.00138822
-0.187598
0.188473
-0.000684633
-0.0339258
0.0346104
-0.0863868
0.0850272
0.00135959
-0.00519158
0.00615032
-0.458757
0.457798
-0.00514193
0.00323359
-0.583549
0.585458
-0.000298004
-0.00238299
-0.682922
0.685603
0.00540526
-0.00850845
-0.791769
0.794872
0.0118392
-0.0153749
-0.913365
0.916901
0.018819
-0.0219118
-1.04803
1.05112
0.0254118
-0.0281678
-1.19498
1.19774
0.0306963
-0.0328375
-1.35261
1.35475
0.0341544
-0.0343804
-1.51881
1.51903
0.0335183
-0.0315999
-1.42142
1.4195
0.029251
-0.0262136
-1.12038
1.11734
0.0232936
-0.0199249
-0.893169
0.889801
0.0167883
-0.0135976
-0.718193
0.715002
0.0106852
-0.00778889
-0.581468
0.578572
0.0054002
-0.00296321
-0.473469
0.471032
0.00109451
0.000281493
-0.386046
0.38467
-0.00126802
0.00174847
-0.304121
0.30364
-0.00163944
0.00102377
-0.18588
0.186495
-0.000544612
-0.0335278
0.0340724
-0.0864341
0.0852234
0.00121068
-0.00376688
0.00438381
-0.460922
0.460305
-0.00355839
0.00177775
-0.588149
0.58993
0.000679585
-0.00314151
-0.688403
0.690865
0.00591211
-0.0085559
-0.797845
0.800489
0.0119001
-0.014597
-0.919885
0.922582
0.0178964
-0.0207188
-1.05432
1.05714
0.0240053
-0.0268761
-1.20045
1.20332
0.0296473
-0.0315842
-1.3567
1.35864
0.0332817
-0.0339794
-1.51932
1.52001
0.0338131
-0.0322522
-1.4176
1.41604
0.0303072
-0.0275785
-1.11447
1.11174
0.024897
-0.0216411
-0.886269
0.883013
0.0187
-0.015454
-0.71161
0.708364
0.0125708
-0.00960069
-0.575489
0.572518
0.00704318
-0.00471375
-0.468219
0.46589
0.00267134
-0.00108389
-0.381677
0.380089
-0.000168626
0.000844395
-0.300737
0.300061
-0.000940251
0.000736349
-0.183871
0.184075
-0.00040099
-0.0329606
0.0333616
-0.0866682
0.0857099
0.000958325
-0.0027553
0.00286353
-0.463248
0.46314
-0.00218619
0.000485653
-0.591929
0.59363
0.00153945
-0.00381484
-0.693223
0.695498
0.00635418
-0.00904
-0.803053
0.805739
0.0117111
-0.0144577
-0.925451
0.928198
0.0176
-0.0201125
-1.06032
1.06284
0.0233668
-0.0261001
-1.20597
1.20871
0.0288507
-0.0312873
-1.36099
1.36343
0.0334807
-0.0345494
-1.52087
1.52194
0.0347209
-0.0338979
-1.41476
1.41393
0.0324667
-0.0300072
-1.10895
1.10649
0.0274235
-0.0244559
-0.879695
0.876727
0.0212132
-0.0180829
-0.704878
0.701748
0.0151413
-0.0119822
-0.569546
0.566387
0.00943622
-0.006812
-0.46284
0.460216
0.00466367
-0.00264026
-0.377324
0.375301
0.00126298
-0.000282002
-0.297164
0.296183
-0.000258938
0.000404929
-0.181564
0.181418
-0.000302926
-0.0321589
0.0324618
-0.0871572
0.0863184
0.000838827
-0.00201383
0.00214611
-0.465733
0.4656
-0.000918904
-0.000443088
-0.595681
0.597043
0.00251268
-0.00459415
-0.697449
0.699531
0.00691917
-0.00916757
-0.808138
0.810387
0.0118659
-0.0142201
-0.930918
0.933273
0.0171884
-0.0199863
-1.06572
1.06852
0.0227641
-0.0256927
-1.21145
1.21438
0.0287373
-0.031209
-1.36577
1.36824
0.0338023
-0.0357138
-1.52332
1.52523
0.0364589
-0.0363834
-1.41316
1.41308
0.0352243
-0.0331799
-1.10414
1.10209
0.0308969
-0.0279004
-0.873389
0.870393
0.0247962
-0.0215045
-0.698139
0.694847
0.0184289
-0.0150208
-0.563061
0.559653
0.0121586
-0.00936162
-0.457157
0.45436
0.00681946
-0.00453464
-0.372413
0.370128
0.00282067
-0.00145168
-0.293159
0.29179
0.000612299
-4.07336e-05
-0.178907
0.178335
-0.000156203
-0.0311808
0.031337
-0.0877946
0.0870805
0.000714117
-0.0012609
0.00118742
-0.468267
0.46834
-0.000111012
-0.00138385
-0.598934
0.600429
0.00329751
-0.00517585
-0.701324
0.703203
0.00750943
-0.00954433
-0.81261
0.814645
0.0120028
-0.0143686
-0.936023
0.938388
0.017123
-0.01976
-1.07113
1.07376
0.0225874
-0.0254061
-1.21718
1.22
0.0284998
-0.0316075
-1.371
1.37411
0.0346121
-0.036927
-1.52719
1.5295
0.0385521
-0.039025
-1.41311
1.41358
0.0385735
-0.0371558
-1.10013
1.09871
0.0349175