/*--------------------------------*- C++ -*----------------------------------*\
  =========                 |
  \\      /  F ield         | OpenFOAM: The Open Source CFD Toolbox
   \\    /   O peration     | Website:  https://openfoam.org
    \\  /    A nd           | Version:  6
     \\/     M anipulation  |
\*---------------------------------------------------------------------------*/
FoamFile
{
    version     2.0;
    format      ascii;
    class       volVectorField;
    location    "66.1";
    object      U;
}
// * * * * * * * * * * * * * * * * * * * * * * * * * * * * * * * * * * * * * //

dimensions      [0 1 -1 0 0 0 0];

internalField   nonuniform List<vector> 
8800
(
(0.987184 -0.0766664 0)
(1.00189 -0.0551922 0)
(0.999722 -0.0285511 0)
(1.00002 -0.0151469 0)
(1.00009 -0.00854954 0)
(1.00011 -0.00505347 0)
(1.00007 -0.0030089 0)
(1.00002 -0.00170796 0)
(0.999998 -0.000800819 0)
(1.00006 -8.35285e-05 0)
(0.999981 0.000647036 0)
(0.999991 0.00141418 0)
(1.00003 0.00243468 0)
(1.00005 0.00400344 0)
(1.00004 0.00663364 0)
(1.00002 0.0113716 0)
(0.999903 0.0208148 0)
(0.999152 0.0386713 0)
(1.0071 0.0724573 0)
(0.771213 0.0366612 0)
(0.363063 -0.016018 0)
(1.04331 -0.0768201 0)
(1.08459 -0.0704539 0)
(1.04519 -0.0535521 0)
(1.02328 -0.0389071 0)
(1.01201 -0.0262338 0)
(1.00642 -0.016876 0)
(1.00359 -0.0103456 0)
(1.00215 -0.00568548 0)
(1.00145 -0.00202691 0)
(1.00131 0.00129698 0)
(1.00167 0.00468172 0)
(1.00265 0.00861691 0)
(1.00466 0.0139516 0)
(1.00859 0.0216575 0)
(1.01655 0.0326268 0)
(1.03247 0.0465415 0)
(1.06264 0.0616595 0)
(1.09187 0.0760987 0)
(0.838673 0.0565609 0)
(0.216832 -0.00243053 0)
(1.07588 -0.0501449 0)
(1.09987 -0.0483238 0)
(1.06463 -0.0404802 0)
(1.04002 -0.0336269 0)
(1.0239 -0.0261102 0)
(1.01411 -0.01853 0)
(1.00855 -0.0117102 0)
(1.00558 -0.00584097 0)
(1.00432 -0.000421045 0)
(1.00466 0.00482765 0)
(1.00659 0.0102218 0)
(1.0106 0.0163166 0)
(1.01794 0.0233401 0)
(1.03052 0.0308054 0)
(1.05061 0.0378373 0)
(1.08032 0.0445222 0)
(1.10625 0.0513395 0)
(0.942532 0.0416144 0)
(0.216158 0.00246141 0)
(0.175149 -0.000817278 0)
(1.01766 -0.0354965 0)
(1.10518 -0.0413989 0)
(1.07824 -0.0360875 0)
(1.05344 -0.0301579 0)
(1.03618 -0.0245868 0)
(1.02398 -0.0188612 0)
(1.01587 -0.0127822 0)
(1.01101 -0.00659326 0)
(1.00881 -0.000255827 0)
(1.00938 0.00600245 0)
(1.01263 0.0120048 0)
(1.01886 0.017841 0)
(1.02877 0.0234135 0)
(1.0432 0.0287167 0)
(1.06371 0.0342043 0)
(1.09354 0.0401908 0)
(1.0934 0.0419559 0)
(0.827158 0.0229113 0)
(0.174014 0.000852719 0)
(0.153938 -0.000611213 0)
(0.956123 -0.0254724 0)
(1.10342 -0.0351524 0)
(1.08765 -0.0326817 0)
(1.06169 -0.028034 0)
(1.04408 -0.0230151 0)
(1.03162 -0.0177722 0)
(1.02277 -0.0122417 0)
(1.01696 -0.00630414 0)
(1.01411 0.000168569 0)
(1.01479 0.00663463 0)
(1.01876 0.0125227 0)
(1.02579 0.0178189 0)
(1.0361 0.0227324 0)
(1.05065 0.0274937 0)
(1.07189 0.032031 0)
(1.10006 0.0359678 0)
(1.06808 0.0340286 0)
(0.739549 0.014313 0)
(0.152227 0.000651426 0)
(0.139557 -0.000467473 0)
(0.899192 -0.0190919 0)
(1.09573 -0.0301062 0)
(1.0957 -0.0292218 0)
(1.06921 -0.0254952 0)
(1.05078 -0.0213599 0)
(1.03785 -0.0165907 0)
(1.02874 -0.0113066 0)
(1.02263 -0.0055627 0)
(1.0195 0.000768264 0)
(1.02012 0.00708487 0)
(1.02421 0.012725 0)
(1.03136 0.0176912 0)
(1.04189 0.0221514 0)
(1.05701 0.0261212 0)
(1.07921 0.0295917 0)
(1.10226 0.0322188 0)
(1.03598 0.0281194 0)
(0.672976 0.010212 0)
(0.137141 0.000513822 0)
(0.129007 -0.000362124 0)
(0.849572 -0.0147307 0)
(1.08333 -0.0259769 0)
(1.10137 -0.026276 0)
(1.07606 -0.0229948 0)
(1.05709 -0.0193556 0)
(1.04371 -0.0151154 0)
(1.03425 -0.010194 0)
(1.0279 -0.00465917 0)
(1.02457 0.00149339 0)
(1.02505 0.00759767 0)
(1.02909 0.0129619 0)
(1.03636 0.0175169 0)
(1.04717 0.0213692 0)
(1.06268 0.0246761 0)
(1.08532 0.0276298 0)
(1.10136 0.0293861 0)
(1.00105 0.0236083 0)
(0.621125 0.00785003 0)
(0.125732 0.000416657 0)
(0.120955 -0.000281476 0)
(0.807402 -0.0115735 0)
(1.06803 -0.0223688 0)
(1.10489 -0.0236425 0)
(1.0823 -0.0207752 0)
(1.06292 -0.0173501 0)
(1.04927 -0.0134158 0)
(1.03953 -0.0088341 0)
(1.03289 -0.003575 0)
(1.02932 0.00236006 0)
(1.02962 0.00821886 0)
(1.03361 0.0132372 0)
(1.04094 0.017326 0)
(1.05185 0.0206692 0)
(1.06758 0.0235641 0)
(1.09055 0.0262182 0)
(1.09757 0.0270787 0)
(0.965755 0.0200738 0)
(0.579441 0.00631832 0)
(0.116637 0.000346376 0)
(0.114715 -0.000218294 0)
(0.771906 -0.00921155 0)
(1.05125 -0.0191924 0)
(1.10727 -0.0212052 0)
(1.08816 -0.0187069 0)
(1.0684 -0.0154253 0)
(1.05451 -0.0116553 0)
(1.04457 -0.00728498 0)
(1.03769 -0.00226504 0)
(1.03384 0.00341341 0)
(1.03391 0.00896699 0)
(1.03777 0.0136079 0)
(1.04505 0.017279 0)
(1.05596 0.0202316 0)
(1.07188 0.022806 0)
(1.09451 0.0251208 0)
(1.09094 0.0251691 0)
(0.931393 0.01735 0)
(0.544907 0.00527419 0)
(0.109129 0.000295908 0)
(0.10985 -0.000167435 0)
(0.742144 -0.00737754 0)
(1.03404 -0.0163756 0)
(1.1087 -0.0189084 0)
(1.09374 -0.0167182 0)
(1.07369 -0.0135306 0)
(1.05953 -0.00985038 0)
(1.04941 -0.00560085 0)
(1.0423 -0.000756615 0)
(1.03816 0.00468324 0)
(1.03794 0.00992894 0)
(1.04156 0.0142095 0)
(1.0487 0.0175136 0)
(1.05957 0.0201175 0)
(1.07569 0.0223996 0)
(1.09717 0.0243331 0)
(1.08186 0.0236095 0)
(0.898523 0.0152859 0)
(0.515471 0.0045484 0)
(0.102724 0.000260595 0)
(0.10608 -0.000125145 0)
(0.717296 -0.00589761 0)
(1.01724 -0.0138471 0)
(1.1093 -0.0166854 0)
(1.09921 -0.0147664 0)
(1.07891 -0.0115855 0)
(1.06446 -0.00793485 0)
(1.05411 -0.00375171 0)
(1.04675 0.000974825 0)
(1.04228 0.00620845 0)
(1.04168 0.0111552 0)
(1.045 0.0150945 0)
(1.05194 0.0180452 0)
(1.06277 0.0203077 0)
(1.07905 0.0223311 0)
(1.09849 0.0238662 0)
(1.0707 0.0223986 0)
(0.867256 0.0137671 0)
(0.489675 0.00405121 0)
(0.0970822 0.00023744 0)
(0.103214 -8.84569e-05 0)
(0.696722 -0.00465556 0)
(1.00145 -0.0115398 0)
(1.10923 -0.014505 0)
(1.10454 -0.0127758 0)
(1.08413 -0.00956134 0)
(1.06936 -0.00588673 0)
(1.05874 -0.00170474 0)
(1.05107 0.00296313 0)
(1.0462 0.00804155 0)
(1.04515 0.0127263 0)
(1.0481 0.0163492 0)
(1.05481 0.0189668 0)
(1.06556 0.0208935 0)
(1.08197 0.0226523 0)
(1.09881 0.0237801 0)
(1.05775 0.0215511 0)
(0.837418 0.0127038 0)
(0.466427 0.00372728 0)
(0.0919421 0.000224019 0)
(0.101135 -5.46451e-05 0)
(0.679953 -0.00356377 0)
(0.987128 -0.00938071 0)
(1.1087 -0.0122735 0)
(1.10968 -0.0106572 0)
(1.08943 -0.00738156 0)
(1.07432 -0.00361755 0)
(1.06339 0.00062052 0)
(1.05534 0.0052825 0)
(1.04997 0.0102575 0)
(1.04838 0.0147097 0)
(1.05087 0.0180136 0)
(1.05731 0.0202873 0)
(1.06794 0.0218719 0)
(1.08438 0.0233667 0)
(1.09811 0.0240772 0)
(1.04315 0.0210719 0)
(0.808681 0.0120235 0)
(0.444871 0.00353797 0)
(0.0871018 0.000218313 0)
(0.0997822 -2.15058e-05 0)
(0.666687 -0.00255344 0)
(0.974635 -0.00729794 0)
(1.10804 -0.00993885 0)
(1.11479 -0.00834758 0)
(1.0949 -0.00496487 0)
(1.0794 -0.00105542 0)
(1.06809 0.00330763 0)
(1.05957 0.00803225 0)
(1.0536 0.0129424 0)
(1.05135 0.0171796 0)
(1.0533 0.0201779 0)
(1.05941 0.0221124 0)
(1.0699 0.0233353 0)
(1.08635 0.024557 0)
(1.09617 0.024812 0)
(1.02695 0.0209587 0)
(0.780607 0.011675 0)
(0.424305 0.0034594 0)
(0.0823967 0.000218995 0)
(0.0991396 1.32277e-05 0)
(0.656773 -0.00156895 0)
(0.964281 -0.00521672 0)
(1.10756 -0.00743808 0)
(1.12 -0.00579085 0)
(1.10061 -0.00225853 0)
(1.0847 0.00186838 0)
(1.07294 0.00642944 0)
(1.06385 0.0112798 0)
(1.05714 0.0161943 0)
(1.0541 0.0202597 0)
(1.05541 0.0229446 0)
(1.0611 0.024503 0)
(1.07143 0.0253564 0)
(1.08776 0.026265 0)
(1.09295 0.025989 0)
(1.00911 0.0212376 0)
(0.752717 0.0116275 0)
(0.404142 0.00347594 0)
(0.0776925 0.000225267 0)
(0.0992262 4.61805e-05 0)
(0.650183 -0.000563144 0)
(0.956371 -0.00306624 0)
(1.1076 -0.00469591 0)
(1.12545 -0.00287006 0)
(1.10667 0.000894134 0)
(1.0903 0.00531226 0)
(1.07799 0.0101359 0)
(1.06821 0.0151783 0)
(1.06062 0.0201283 0)
(1.05662 0.0240166 0)
(1.05714 0.0263925 0)
(1.06236 0.0275739 0)
(1.07249 0.0280281 0)
(1.0884 0.0285694 0)
(1.08819 0.0276536 0)
(0.989475 0.0219467 0)
(0.724471 0.0118678 0)
(0.383849 0.0035801 0)
(0.0728673 0.000236614 0)
(0.100093 8.82416e-05 0)
(0.646999 0.000475912 0)
(0.951222 -0.00077365 0)
(1.10855 -0.00164176 0)
(1.13138 0.000480999 0)
(1.11319 0.00455967 0)
(1.0963 0.00935423 0)
(1.08334 0.0145405 0)
(1.07272 0.0198577 0)
(1.06405 0.0248986 0)
(1.0589 0.0286246 0)
(1.0585 0.0306623 0)
(1.06315 0.0314574 0)
(1.07302 0.0314909 0)
(1.08815 0.031603 0)
(1.08163 0.0299071 0)
(0.967744 0.0231122 0)
(0.695272 0.0123842 0)
(0.36292 0.00376403 0)
(0.0678116 0.000252293 0)
(0.101933 0.000147288 0)
(0.647612 0.00163725 0)
(0.949203 0.00175347 0)
(1.11082 0.00184658 0)
(1.13795 0.004394 0)
(1.12031 0.00889486 0)
(1.10284 0.0141703 0)
(1.08909 0.0198097 0)
(1.07744 0.0254834 0)
(1.06747 0.0306882 0)
(1.06094 0.0342847 0)
(1.05945 0.0359355 0)
(1.06341 0.0362879 0)
(1.07295 0.0358631 0)
(1.08672 0.0354772 0)
(1.073 0.0328268 0)
(0.943526 0.0247766 0)
(0.664485 0.0131745 0)
(0.340887 0.00402173 0)
(0.0624308 0.000271607 0)
(0.104808 0.000209924 0)
(0.652444 0.00307379 0)
(0.950756 0.0046629 0)
(1.1149 0.00589904 0)
(1.14541 0.00903426 0)
(1.12819 0.0141193 0)
(1.11003 0.0199935 0)
(1.09532 0.0261921 0)
(1.08242 0.0323003 0)
(1.07087 0.037673 0)
(1.0627 0.0410889 0)
(1.05994 0.0423164 0)
(1.06308 0.0422157 0)
(1.07223 0.0412734 0)
(1.08399 0.0403615 0)
(1.06193 0.0365199 0)
(0.916271 0.0269825 0)
(0.631417 0.0142307 0)
(0.317293 0.00434466 0)
(0.0566431 0.000293379 0)
(0.109002 0.000292752 0)
(0.661893 0.00475194 0)
(0.956356 0.00809002 0)
(1.12129 0.0106654 0)
(1.15409 0.0145675 0)
(1.13706 0.0204037 0)
(1.11806 0.0270292 0)
(1.10216 0.0339275 0)
(1.0877 0.0405547 0)
(1.07423 0.0461256 0)
(1.06413 0.0493184 0)
(1.05992 0.0500444 0)
(1.06208 0.0494263 0)
(1.07075 0.0478963 0)
(1.08003 0.046372 0)
(1.04792 0.0410921 0)
(0.885294 0.0297501 0)
(0.595325 0.0155344 0)
(0.291723 0.0047176 0)
(0.0503902 0.000315901 0)
(0.114855 0.000405106 0)
(0.676808 0.00685815 0)
(0.966691 0.0122449 0)
(1.13055 0.0164003 0)
(1.16427 0.0212916 0)
(1.14717 0.0281158 0)
(1.12711 0.0356566 0)
(1.1097 0.0433718 0)
(1.09332 0.0505858 0)
(1.07752 0.0563382 0)
(1.06516 0.0592076 0)
(1.05918 0.0592918 0)
(1.06033 0.0581034 0)
(1.06849 0.0559315 0)
(1.07455 0.0536961 0)
(1.03032 0.0466244 0)
(0.849747 0.0330815 0)
(0.555442 0.0170419 0)
(0.263829 0.00511629 0)
(0.0436486 0.000336716 0)
(0.122888 0.000561506 0)
(0.698105 0.00961404 0)
(0.982621 0.0174321 0)
(1.14338 0.0234323 0)
(1.17649 0.0296025 0)
(1.15883 0.0377313 0)
(1.13737 0.0463763 0)
(1.11804 0.0550219 0)
(1.09924 0.0628192 0)
(1.08065 0.0686175 0)
(1.06567 0.0709716 0)
(1.05772 0.0702782 0)
(1.05774 0.0683841 0)
(1.06535 0.0654853 0)
(1.06717 0.0623075 0)
(1.00829 0.0531724 0)
(0.808639 0.0369254 0)
(0.511038 0.0186718 0)
(0.233405 0.0055024 0)
(0.0364474 0.000352453 0)
(0.133835 0.000788497 0)
(0.727084 0.0134044 0)
(1.0053 0.0241218 0)
(1.16055 0.0323064 0)
(1.19136 0.0400693 0)
(1.1724 0.0498616 0)
(1.14901 0.0598085 0)
(1.12715 0.0694521 0)
(1.10533 0.0777327 0)
(1.08343 0.0833514 0)
(1.06548 0.0849074 0)
(1.0554 0.0832099 0)
(1.0542 0.0804787 0)
(1.06098 0.076696 0)
(1.05723 0.0723736 0)
(0.980735 0.0607221 0)
(0.760875 0.0411415 0)
(0.461522 0.0202866 0)
(0.200466 0.0058215 0)
(0.028888 0.000358916 0)
(0.148945 0.00114377 0)
(0.765717 0.0188565 0)
(1.03638 0.0330944 0)
(1.18299 0.0439638 0)
(1.20964 0.053842 0)
(1.18821 0.0655901 0)
(1.1621 0.0769454 0)
(1.13689 0.0874594 0)
(1.11134 0.0959032 0)
(1.08558 0.100889 0)
(1.06436 0.101212 0)
(1.05203 0.0982402 0)
(1.04958 0.0945346 0)
(1.05508 0.0899405 0)
(1.0439 0.0839957 0)
(0.946271 0.0691136 0)
(0.705368 0.0454772 0)
(0.406634 0.021682 0)
(0.165379 0.00600446 0)
(0.0211631 0.000351543 0)
(0.1704 0.00176019 0)
(0.817243 0.0270945 0)
(1.07846 0.0458863 0)
(1.21187 0.0602689 0)
(1.23196 0.0729827 0)
(1.20633 0.086581 0)
(1.17633 0.0991495 0)
(1.1468 0.110038 0)
(1.11676 0.117958 0)
(1.08668 0.121555 0)
(1.06202 0.120035 0)
(1.04744 0.115442 0)
(1.04377 0.110572 0)
(1.04762 0.10508 0)
(1.02609 0.097037 0)
(0.903187 0.0779848 0)
(0.641318 0.0495119 0)
(0.346797 0.0225958 0)
(0.129025 0.00597552 0)
(0.0135734 0.000325698 0)
(0.201546 0.00311107 0)
(0.887389 0.0407113 0)
(1.13519 0.0662789 0)
(1.2476 0.0848087 0)
(1.25803 0.100235 0)
(1.22613 0.115144 0)
(1.19086 0.127994 0)
(1.15605 0.138124 0)
(1.12094 0.144391 0)
(1.08626 0.1456 0)
(1.05813 0.141478 0)
(1.04143 0.134812 0)
(1.03666 0.128537 0)
(1.03813 0.121977 0)
(1.00222 0.111153 0)
(0.84949 0.0866671 0)
(0.568832 0.0526728 0)
(0.283839 0.0228142 0)
(0.0931341 0.00569574 0)
(0.00659553 0.000275338 0)
(0.244052 0.00928761 7.37887e-21)
(0.980142 0.06764 6.36384e-21)
(1.20416 0.100808 -2.2433e-21)
(1.28698 0.121256 0)
(1.28496 0.139218 -5.94321e-35)
(1.24541 0.153638 8.7494e-22)
(1.20414 0.164984 -1.61459e-21)
(1.16354 0.172918 0)
(1.12304 0.176459 3.40355e-35)
(1.08348 0.174472 -2.07888e-21)
(1.05167 0.167259 0)
(1.03275 0.158351 -2.50796e-21)
(1.02712 0.150812 -7.4272e-21)
(1.02527 0.143858 -3.52363e-21)
(0.968239 0.128852 -1.06513e-21)
(0.779203 0.0964546 -6.33854e-22)
(0.482834 0.0552808 0)
(0.216348 0.0227292 4.44369e-22)
(0.0577902 0.00543987 5.26292e-22)
(0.000210441 0.000203543 9.60622e-21)
(0.273506 0.0244303 4.80477e-21)
(1.05692 0.110183 1.10221e-22)
(1.26108 0.150015 5.70657e-22)
(1.32227 0.170436 0)
(1.30855 0.18862 -2.92673e-21)
(1.26191 0.200903 -3.37422e-21)
(1.2147 0.209937 -1.60639e-21)
(1.16827 0.215391 -5.84356e-21)
(1.12215 0.216181 0)
(1.07732 0.211076 8.81382e-21)
(1.04142 0.200824 8.81074e-21)
(1.02002 0.189672 2.63173e-21)
(1.01223 0.180293 9.67269e-21)
(1.00227 0.170632 1.36754e-20)
(0.914733 0.149208 0)
(0.684145 0.106713 1.93534e-20)
(0.38167 0.0577714 2.77926e-20)
(0.146217 0.0220282 3.09354e-20)
(0.0224579 0.00401053 -3.54902e-20)
(-0.00625058 -0.000436967 -6.76506e-22)
(0.274921 0.041182 0)
(1.10577 0.16523 6.84893e-22)
(1.29961 0.210203 0)
(1.34976 0.230335 -3.42056e-21)
(1.32704 0.245811 0)
(1.27443 0.254197 -6.46111e-21)
(1.22164 0.259475 3.2432e-21)
(1.16968 0.261328 -1.16062e-20)
(1.11823 0.258499 -3.19119e-22)
(1.06844 0.249612 4.52913e-21)
(1.02869 0.23586 1.94196e-20)
(1.00492 0.222135 -4.35844e-23)
(0.994758 0.210663 -7.03509e-21)
(0.976041 0.197586 -1.28808e-20)
(0.86643 0.168953 1.52844e-20)
(0.615859 0.116237 -2.71008e-20)
(0.322346 0.0598443 -3.58318e-21)
(0.109124 0.0209276 0)
(0.00402982 0.00186351 -2.67231e-24)
(-0.00994314 -0.00133086 0)
(0.268402 0.0552739 5.22763e-21)
(1.13221 0.223933 -3.10197e-21)
(1.32344 0.274912 -3.10481e-21)
(1.36794 0.29554 1.51388e-21)
(1.33901 0.307324 -2.59125e-21)
(1.28193 0.31116 1.34368e-20)
(1.22456 0.311989 6.71795e-21)
(1.16781 0.30956 0)
(1.1116 0.302529 -2.23483e-20)
(1.05722 0.289356 0)
(1.01389 0.271778 -1.01508e-20)
(0.98782 0.255225 -1.26742e-20)
(0.975262 0.241305 -7.66506e-21)
(0.949411 0.224299 -9.35866e-21)
(0.826964 0.188438 0)
(0.571944 0.126676 0)
(0.291272 0.06392 -2.3351e-20)
(0.0907913 0.0205889 4.6211e-21)
(-0.00640593 -0.000511057 -2.71173e-21)
(-0.0126266 -0.0024067 -3.2125e-21)
(0.260637 0.0676696 8.26922e-22)
(1.14381 0.282546 0)
(1.33652 0.340607 4.84648e-21)
(1.37784 0.362184 3.90445e-21)
(1.34457 0.370254 6.2308e-21)
(1.28422 0.369552 0)
(1.22326 0.365829 6.41109e-21)
(1.16256 0.358932 1.2731e-20)
(1.10224 0.347439 1.1346e-20)
(1.04382 0.32973 2.13961e-20)
(0.997137 0.308071 0)
(0.968767 0.288464 -2.73334e-20)
(0.95383 0.27192 -1.6558e-20)
(0.922541 0.250938 -9.81957e-21)
(0.794673 0.208787 6.04715e-20)
(0.544395 0.139271 7.20925e-21)
(0.276551 0.0699731 3.39152e-20)
(0.0839644 0.0214407 -1.60543e-19)
(-0.0110182 -0.00249855 9.51219e-20)
(-0.0143435 -0.0034907 -1.16104e-19)
(0.253176 0.078794 4.0699e-21)
(1.14597 0.33917 -2.58885e-22)
(1.34184 0.40544 -1.53981e-22)
(1.38109 0.428349 -2.78618e-21)
(1.34467 0.432903 -4.57407e-21)
(1.28188 0.427848 3.63717e-22)
(1.21809 0.419713 -6.97139e-21)
(1.15418 0.408414 1.30563e-20)
(1.09038 0.392457 -2.44384e-20)
(1.02832 0.370187 0)
(0.97848 0.344367 -1.23205e-20)
(0.947811 0.321591 -3.20871e-22)
(0.930575 0.302433 -1.81653e-20)
(0.895508 0.277718 0)
(0.767374 0.230007 -1.31205e-20)
(0.526948 0.153724 -3.12396e-20)
(0.271937 0.0784284 8.33593e-20)
(0.084893 0.0238726 -8.21213e-20)
(-0.010795 -0.00354972 1.16798e-19)
(-0.0149284 -0.00439652 -1.22903e-19)
(0.246851 0.0890537 -1.05915e-22)
(1.14225 0.393143 1.19534e-21)
(1.34157 0.468392 1.49386e-21)
(1.37916 0.492884 5.64401e-22)
(1.34041 0.49426 -2.19847e-21)
(1.27577 0.485108 0)
(1.20971 0.472792 -6.20804e-21)
(1.14308 0.457288 -1.3605e-20)
(1.07621 0.437008 -1.26321e-20)
(1.01087 0.410255 0)
(0.958103 0.380357 -1.27293e-20)
(0.925207 0.354459 -1.59499e-20)
(0.905768 0.332646 1.97443e-20)
(0.868084 0.304435 -1.20367e-20)
(0.742631 0.251922 -5.74648e-20)
(0.51418 0.169725 3.42077e-20)
(0.271899 0.0883552 1.01737e-20)
(0.08992 0.0279645 0)
(-0.00704826 -0.00330439 -1.13278e-19)
(-0.0144413 -0.00496161 -4.21219e-21)
(0.241806 0.0987834 1.26653e-21)
(1.13498 0.444302 -1.85705e-21)
(1.33722 0.52891 -1.0798e-21)
(1.37327 0.555093 2.81832e-21)
(1.33273 0.553665 -7.05739e-21)
(1.26667 0.540752 1.11307e-20)
(1.19875 0.524554 1.34138e-20)
(1.12979 0.505102 -2.17297e-20)
(1.06022 0.480716 8.01474e-21)
(0.991906 0.449633 -5.26836e-20)
(0.936394 0.415816 -1.45159e-20)
(0.901344 0.386856 0)
(0.879834 0.362431 2.14782e-20)
(0.84031 0.331018 2.58565e-20)
(0.71911 0.273787 3.10117e-20)
(0.502743 0.186671 -3.72844e-20)
(0.272948 0.0994378 -1.10519e-20)
(0.0963705 0.0334653 1.2967e-20)
(-0.00140114 -0.00180891 0)
(-0.0132122 -0.00515948 -9.17564e-21)
(0.237931 0.108086 -1.83319e-20)
(1.12582 0.492725 1.03398e-20)
(1.33006 0.586858 1.50923e-21)
(1.36444 0.614613 9.31493e-22)
(1.32245 0.610715 -2.52641e-21)
(1.2553 0.594388 -8.28954e-22)
(1.18585 0.574662 -1.47843e-20)
(1.1149 0.551567 -7.89777e-21)
(1.04291 0.523338 -2.20344e-20)
(0.971779 0.488142 6.57691e-23)
(0.913666 0.450517 -4.53663e-20)
(0.876556 0.41852 3.8811e-20)
(0.853143 0.391635 -2.37141e-20)
(0.812145 0.357121 2.86301e-20)
(0.695285 0.295472 0)
(0.490521 0.203795 -2.03379e-20)
(0.273034 0.110934 5.08497e-23)
(0.102568 0.0398797 -5.68356e-20)
(0.00483762 0.000555504 -8.36567e-21)
(-0.0115584 -0.00504649 0)
(0.235132 0.117198 0)
(1.11577 0.53863 1.18013e-20)
(1.32096 0.642486 5.58501e-21)
(1.35348 0.671276 -2.93585e-23)
(1.31028 0.665182 -4.0506e-21)
(1.24228 0.645794 0)
(1.17157 0.622898 -6.3108e-21)
(1.09885 0.596497 -2.12564e-22)
(1.02461 0.564717 4.72991e-20)
(0.95086 0.525667 -7.20201e-21)
(0.89022 0.484299 -3.28435e-20)
(0.85118 0.449424 2.0129e-20)
(0.825985 0.420091 -4.50768e-22)
(0.783699 0.382549 3.04956e-20)
(0.670598 0.316477 1.88415e-20)
(0.476467 0.220436 -4.39582e-20)
(0.270334 0.122293 5.21314e-20)
(0.106829 0.0465789 1.54662e-20)
(0.0104633 0.00344073 6.39358e-20)
(-0.00976318 -0.00468956 -1.72913e-19)
(0.233325 0.126246 -5.85021e-21)
(1.10549 0.5822 7.97348e-21)
(1.31049 0.695282 -5.49318e-21)
(1.34103 0.72502 -1.62861e-21)
(1.29677 0.716959 0)
(1.22811 0.694844 -4.20472e-21)
(1.15632 0.669137 2.16666e-20)
(1.08203 0.639773 1.71751e-20)
(1.00573 0.604761 0)
(0.92945 0.562103 -1.04488e-19)
(0.866328 0.517154 8.91412e-20)
(0.825413 0.479472 0)
(0.798538 0.447648 2.78588e-20)
(0.754936 0.406951 -4.48899e-22)
(0.644538 0.336424 -6.04956e-20)
(0.460485 0.235692 2.36861e-20)
(0.264767 0.132825 0)
(0.108373 0.0528309 8.36775e-20)
(0.0145662 0.00622526 0)
(-0.00815588 -0.00425548 -8.20764e-20)
(0.232347 0.135275 6.94305e-21)
(1.09541 0.623629 1.01685e-20)
(1.29907 0.745289 -5.51351e-21)
(1.32761 0.77586 0)
(1.2824 0.766033 -2.13944e-21)
(1.2132 0.741504 0)
(1.1405 0.713314 -2.06848e-20)
(1.06481 0.681323 -7.66495e-21)
(0.986568 0.643418 8.22763e-21)
(0.907785 0.597408 -5.17583e-20)
(0.842192 0.549083 9.17038e-21)
(0.799426 0.508545 0)
(0.770956 0.474069 -5.95816e-20)
(0.726022 0.430001 4.34685e-22)
(0.61769 0.354726 0)
(0.442241 0.249118 2.2464e-22)
(0.256212 0.141742 7.65488e-20)
(0.106854 0.0578686 -7.24223e-20)
(0.0166387 0.00838716 2.14433e-20)
(-0.00695598 -0.00388037 0)
(0.231855 0.144197 0)
(1.08569 0.663071 1.21515e-20)
(1.28713 0.792613 7.8007e-21)
(1.3136 0.823867 -5.13367e-22)
(1.26754 0.812437 3.2278e-22)
(1.19792 0.785776 -9.37951e-21)
(1.12444 0.755411 7.95165e-21)
(1.04746 0.72111 -9.33627e-21)
(0.967365 0.680642 3.71253e-20)
(0.886103 0.631597 -8.28702e-20)
(0.817981 0.580068 -8.3078e-22)
(0.773322 0.536554 -2.59253e-20)
(0.743304 0.499241 9.69265e-20)
(0.696932 0.451464 -5.19942e-22)
(0.590078 0.371069 -4.71663e-20)
(0.422125 0.260244 -8.39898e-20)
(0.245094 0.148568 0)
(0.102902 0.0612072 0)
(0.0169189 0.00959989 2.31745e-20)
(-0.00617155 -0.00366449 -1.37676e-20)
(0.231962 0.153147 9.62787e-21)
(1.07657 0.700297 -2.75194e-20)
(1.27495 0.83734 -8.39072e-21)
(1.29932 0.869121 0)
(1.25247 0.856229 -3.12161e-22)
(1.18253 0.827691 -7.29403e-21)
(1.10838 0.795433 1.83628e-20)
(1.03022 0.759128 3.59288e-20)
(0.948357 0.716431 4.80407e-20)
(0.864616 0.664694 -6.76135e-20)
(0.793835 0.610116 -7.70201e-20)
(0.747167 0.563523 6.94346e-20)
(0.715587 0.523145 0)
(0.667662 0.471117 -2.1458e-20)
(0.561863 0.385038 -5.10573e-20)
(0.400325 0.26875 -6.04628e-20)
(0.231657 0.152922 -7.1536e-20)
(0.096694 0.0626829 2.11854e-20)
(0.0157145 0.00983871 -1.24902e-20)
(-0.00575331 -0.00361581 6.20736e-23)
(0.23233 0.161921 0)
(1.06811 0.735914 0)
(1.26272 0.87957 5.1854e-22)
(1.28498 0.911727 0)
(1.23744 0.897496 -4.00807e-21)
(1.16725 0.86731 3.83706e-21)
(1.09252 0.83341 0)
(1.01329 0.795385 4.10851e-21)
(0.929737 0.750789 7.98901e-20)
(0.843498 0.696728 -1.55771e-19)
(0.769884 0.639275 0)
(0.721011 0.589584 -4.48076e-20)
(0.687729 0.545746 -6.10129e-22)
(0.638122 0.488719 -4.64513e-22)
(0.533059 0.396307 5.47135e-20)
(0.376998 0.274328 -1.35074e-23)
(0.216508 0.154643 -1.54228e-19)
(0.0887609 0.0622917 4.56e-20)
(0.0134124 0.0092178 1.35266e-20)
(-0.00557133 -0.00368156 0)
(0.232872 0.170535 -3.83581e-20)
(1.06008 0.769879 -1.84027e-20)
(1.25053 0.919363 -2.42911e-20)
(1.27077 0.951789 2.50446e-20)
(1.22262 0.936311 -1.03208e-20)
(1.15225 0.904695 0)
(1.07704 0.869385 1.04491e-20)
(0.996835 0.829906 -9.31029e-21)
(0.911655 0.783731 7.94739e-22)
(0.822912 0.72773 1.15617e-20)
(0.746258 0.667644 9.99749e-20)
(0.694884 0.614902 -1.57112e-20)
(0.659603 0.567043 -6.00105e-20)
(0.60815 0.504065 -2.50825e-20)
(0.503774 0.404542 2.97296e-20)
(0.352956 0.276722 2.11423e-23)
(0.200077 0.15362 4.15723e-20)
(0.0797686 0.0601121 -9.81989e-20)
(0.0104756 0.00787836 1.16496e-19)
(-0.00553216 -0.0038292 1.71979e-20)
(0.23325 0.178922 1.45482e-20)
(1.05248 0.802284 -1.03604e-20)
(1.23853 0.956841 1.2924e-21)
(1.25681 0.989434 1.58265e-20)
(1.20814 0.972784 3.59729e-21)
(1.13765 0.939916 -5.56171e-21)
(1.06205 0.903407 2.62074e-21)
(0.980966 0.862711 -3.85458e-20)
(0.89425 0.815261 -8.76616e-20)
(0.802997 0.757701 -9.28261e-20)
(0.723103 0.695338 0)
(0.668822 0.639629 -6.93609e-20)
(0.631083 0.587121 8.67332e-20)
(0.577495 0.517015 0)
(0.473959 0.409335 -6.37597e-20)
(0.328807 0.275463 3.79577e-20)
(0.18378 0.149711 -4.47425e-20)
(0.0710013 0.0564615 -5.28762e-20)
(0.00758256 0.00613726 -9.38892e-20)
(-0.00557262 -0.00402629 -7.41326e-20)
(0.233994 0.187179 -1.64657e-20)
(1.04517 0.833113 1.1098e-20)
(1.22678 0.992064 2.53336e-20)
(1.2432 1.02473 2.29918e-20)
(1.19411 1.00701 -6.84934e-21)
(1.12356 0.973058 -1.52736e-21)
(1.04765 0.935526 9.07084e-21)
(0.96578 0.893844 -3.91289e-20)
(0.877614 0.845403 -5.18587e-20)
(0.783879 0.78666 9.7068e-20)
(0.700549 0.72246 2.20206e-19)
(0.642888 0.663895 0)
(0.602065 0.606191 0)
(0.54577 0.527581 -2.89378e-20)
(0.443262 0.410182 0)
(0.304826 0.269619 8.16339e-20)
(0.169061 0.142144 9.6248e-20)
(0.0645036 0.0512653 0)
(0.0059346 0.00431697 0)
(-0.00561479 -0.00422966 7.9722e-20)
(0.234401 0.19498 1.87174e-20)
(1.03816 0.862357 1.48542e-20)
(1.21536 1.02514 1.84378e-20)
(1.23002 1.0578 -2.20266e-20)
(1.18058 1.03909 -8.8264e-21)
(1.11003 1.0042 -5.43253e-22)
(1.0339 0.965801 -1.21147e-20)
(0.951347 0.923333 -9.49752e-23)
(0.861832 0.87416 -1.03899e-21)
(0.765664 0.814607 -9.38796e-22)
(0.678747 0.749079 1.13573e-19)
(0.61718 0.68781 0)
(0.572504 0.624568 8.82663e-20)
(0.512539 0.535988 6.18912e-20)
(0.410892 0.406828 1.49239e-19)
(0.280576 0.25776 4.40499e-20)
(0.157464 0.128114 -5.18283e-20)
(0.0649137 0.0412454 -3.05112e-20)
(0.0114267 0.00109452 0)
(-0.00421146 -0.00411012 8.57276e-20)
(0.235171 0.202806 -4.23485e-20)
(1.03142 0.89016 0)
(1.20425 1.05613 2.16744e-20)
(1.21728 1.08873 -1.86722e-20)
(1.16762 1.06913 1.17688e-20)
(1.09711 1.03342 4.33303e-21)
(1.02084 0.994286 2.15471e-20)
(0.937708 0.951211 -3.34909e-21)
(0.846951 0.901542 0)
(0.74844 0.841516 -1.06911e-19)
(0.657842 0.775218 -2.47015e-19)
(0.591838 0.711509 1.0259e-20)
(0.542448 0.642589 1.22203e-19)
(0.477478 0.542727 0)
(0.375643 0.399756 1.00971e-19)
(0.253654 0.238677 0)
(0.147111 0.101214 0)
(0.0781371 0.0106187 -3.30121e-20)
(0.049803 -0.017148 0)
(0.0262031 0.00559595 2.29889e-20)
(0.235507 0.210063 -4.73329e-20)
(1.0249 0.916723 0)
(1.19346 1.08522 3.61189e-20)
(1.20496 1.11777 0)
(1.15519 1.0974 -7.09277e-21)
(1.08473 1.06101 0)
(1.00843 1.02129 7.27015e-22)
(0.924769 0.977816 5.32004e-21)
(0.832849 0.927912 6.52361e-21)
(0.732035 0.867771 -1.17182e-19)
(0.637644 0.801315 7.37048e-21)
(0.566585 0.735652 8.30998e-20)
(0.511426 0.66104 1.19521e-19)
(0.439648 0.548512 1.61731e-20)
(0.335635 0.390532 7.93638e-20)
(0.218985 0.213333 0)
(0.125842 0.0573031 1.09388e-19)
(0.0707687 -0.0281479 -6.4255e-20)
(0.0316769 0.0555155 7.50353e-20)
(-0.0382755 0.455717 -8.91584e-20)
(0.235795 0.217161 3.92359e-20)
(1.01841 0.941929 5.94461e-20)
(1.18289 1.11274 0)
(1.1929 1.14535 1.04899e-21)
(1.14309 1.12446 2.08057e-20)
(1.07263 1.08765 -1.59092e-20)
(0.996325 1.04762 6.28277e-21)
(0.912113 1.00409 0)
(0.818988 0.954371 4.23031e-20)
(0.715763 0.894689 -6.01213e-21)
(0.617226 0.828867 0)
(0.540113 0.761987 0)
(0.477389 0.681299 1.07219e-19)
(0.396535 0.553808 -5.00982e-20)
(0.287714 0.38098 -8.05737e-20)
(0.172404 0.184835 0)
(0.0720606 0.0732631 5.56578e-20)
(0.00616445 0.464023 -6.46948e-20)
(0.0311955 1.92602 -3.62935e-20)
(0.05783 2.82432 -4.45149e-20)
(0.235718 0.223699 -2.956e-20)
(1.01197 0.965949 -7.64618e-20)
(1.17258 1.13869 2.15401e-20)
(1.1811 1.17134 1.80729e-20)
(1.13138 1.15014 0)
(1.06089 1.11308 -1.34151e-20)
(0.984756 1.07297 6.74898e-21)
(0.899937 1.02961 -2.47156e-21)
(0.805653 0.980403 6.35808e-21)
(0.700019 0.92167 1.11149e-19)
(0.597216 0.857199 1.24838e-19)
(0.513397 0.790334 9.32054e-20)
(0.441138 0.703399 1.08112e-19)
(0.349529 0.557723 -1.18031e-19)
(0.238204 0.37475 -1.21929e-19)
(0.113994 0.23698 0)
(0.0399184 0.882097 0)
(0.0876214 2.58054 3.08172e-20)
(0.0903676 3.21144 0)
(0.0916358 3.38921 8.02281e-20)
(0.238428 0.229794 0)
(1.00587 0.989163 0)
(1.16223 1.16292 0)
(1.16937 1.19562 5.42357e-21)
(1.11973 1.17418 1.91505e-20)
(1.04934 1.13715 -1.25949e-20)
(0.973641 1.09723 3.61588e-21)
(0.888174 1.05423 -2.34957e-21)
(0.792782 1.00583 5.17054e-20)
(0.684793 0.948553 -1.83517e-21)
(0.577702 0.886094 2.46138e-19)
(0.486811 0.820775 -1.08156e-20)
(0.402585 0.72801 1.31084e-20)
(0.30071 0.558409 1.7135e-20)
(0.178375 0.392515 -4.96793e-22)
(0.0919303 1.01335 3.49258e-22)
(0.125138 2.76162 -1.63175e-19)
(0.129893 3.30119 -6.1644e-20)
(0.120214 3.42398 3.24959e-20)
(0.109595 3.44385 -3.65915e-20)
(0.161636 0.175412 1.80704e-20)
(0.995709 1.0143 0)
(1.15165 1.18563 -4.41015e-20)
(1.1581 1.21861 -4.9234e-20)
(1.10857 1.19706 4.42071e-20)
(1.03865 1.16034 1.42374e-20)
(0.962819 1.12037 -2.72142e-21)
(0.876859 1.07802 2.32612e-20)
(0.780447 1.03074 -4.18523e-20)
(0.6703 0.975455 0)
(0.558967 0.915621 1.20811e-19)
(0.4609 0.853073 -7.59827e-20)
(0.363265 0.758046 0)
(0.243693 0.559769 1.65265e-20)
(0.131616 0.768518 3.94984e-20)
(0.139711 2.56395 -4.48677e-20)
(0.187952 3.32922 5.10011e-20)
(0.170317 3.43511 2.73799e-20)
(0.141359 3.4538 3.12086e-20)
(0.122013 3.46242 4.93683e-20)
(0.273495 0.268232 -3.49374e-20)
(0.979014 1.02515 0)
(1.13396 1.21193 4.7517e-20)
(1.14384 1.24998 5.39812e-20)
(1.09131 1.23085 -4.90808e-20)
(1.0208 1.19451 -1.93243e-20)
(0.94379 1.15609 -2.54091e-21)
(0.85728 1.11506 1.86434e-21)
(0.759448 1.07007 3.84563e-20)
(0.646351 1.01899 9.40145e-20)
(0.529389 0.965502 6.69647e-21)
(0.419543 0.908019 6.7183e-20)
(0.292433 0.795462 1.23014e-20)
(0.205487 0.940162 -1.58294e-20)
(0.210958 2.43835 -3.58346e-20)
(0.26195 3.33433 3.50742e-20)
(0.244913 3.46153 -3.83421e-20)
(0.210594 3.47996 -2.21451e-20)
(0.176848 3.50418 -1.95696e-20)
(0.131743 3.49877 -2.87839e-21)
(0.263918 0.267265 0)
(0.976501 1.04834 1.36197e-20)
(1.12549 1.23578 -9.73134e-21)
(1.13297 1.27374 -6.36471e-21)
(1.08037 1.25429 -3.36545e-20)
(1.00985 1.21814 1.97227e-20)
(0.932519 1.17996 3.33426e-21)
(0.845766 1.1398 1.57623e-21)
(0.747312 1.09634 -3.92394e-20)
(0.632745 1.04828 -2.83443e-21)
(0.512625 0.9997 -2.15737e-19)
(0.396613 0.945296 9.62113e-21)
(0.277477 0.868876 -1.15965e-20)
(0.240331 1.55057 -1.44697e-20)
(0.302515 3.14404 3.67384e-21)
(0.315815 3.46411 2.83741e-22)
(0.2742 3.51101 5.50787e-20)
(0.240193 3.53369 2.74203e-20)
(0.19441 3.55338 -7.86812e-21)
(0.144433 3.54962 -1.36468e-20)
(0.250022 0.265455 3.47328e-20)
(0.973097 1.07414 9.22905e-20)
(1.11668 1.26172 -2.78213e-20)
(1.12174 1.29913 -2.40128e-20)
(1.06896 1.27919 0)
(0.998516 1.24308 3.38927e-20)
(0.921157 1.2052 7.9732e-21)
(0.834415 1.16585 1.26452e-21)
(0.735649 1.12402 -4.42275e-21)
(0.620145 1.07923 -8.2545e-20)
(0.497762 1.03616 -9.83963e-20)
(0.37733 0.984614 -7.80952e-20)
(0.276361 1.01239 -8.65644e-20)
(0.304951 2.31071 8.97869e-20)
(0.382565 3.39201 7.53257e-20)
(0.354716 3.52131 0)
(0.306569 3.55729 0)
(0.269876 3.59046 -5.99214e-21)
(0.225692 3.63544 0)
(0.156254 3.61957 -8.4999e-21)
(0.240258 0.267543 -5.17346e-20)
(0.967775 1.10087 -7.80512e-20)
(1.10651 1.28893 0)
(1.10927 1.32536 1.27378e-21)
(1.05633 1.30478 -3.57904e-20)
(0.986129 1.26861 5.39744e-20)
(0.909057 1.23104 6.98074e-21)
(0.822553 1.19244 2.48687e-22)
(0.723731 1.15221 -2.54577e-20)
(0.60772 1.1107 3.95091e-21)
(0.483972 1.07328 0)
(0.3592 1.02766 0)
(0.299988 1.30204 -7.76963e-20)
(0.38289 2.97383 3.15945e-20)
(0.447307 3.49199 3.94866e-20)