/*--------------------------------*- C++ -*----------------------------------*\
  =========                 |
  \\      /  F ield         | OpenFOAM: The Open Source CFD Toolbox
   \\    /   O peration     | Website:  https://openfoam.org
    \\  /    A nd           | Version:  6
     \\/     M anipulation  |
\*---------------------------------------------------------------------------*/
FoamFile
{
    version     2.0;
    format      ascii;
    class       volVectorField;
    location    "76";
    object      U;
}
// * * * * * * * * * * * * * * * * * * * * * * * * * * * * * * * * * * * * * //

dimensions      [0 1 -1 0 0 0 0];

internalField   nonuniform List<vector> 
8800
(
(0.987184 -0.0766658 0)
(1.00189 -0.0551911 0)
(0.999723 -0.0285493 0)
(1.00003 -0.0151445 0)
(1.0001 -0.00854563 0)
(1.00012 -0.00504747 0)
(1.00007 -0.00300202 0)
(1.00003 -0.00170165 0)
(0.999996 -0.000795399 0)
(1.00006 -7.94831e-05 0)
(0.999968 0.000651596 0)
(0.999983 0.00142016 0)
(1.00004 0.00243727 0)
(1.00006 0.00400334 0)
(1.00004 0.00663498 0)
(1.00003 0.0113734 0)
(0.999921 0.0208161 0)
(0.99916 0.0386715 0)
(1.0071 0.0724576 0)
(0.771213 0.0366614 0)
(0.36307 -0.0160173 0)
(1.04331 -0.0768164 0)
(1.08459 -0.0704477 0)
(1.04519 -0.0535436 0)
(1.02329 -0.0388958 0)
(1.01202 -0.0262185 0)
(1.00643 -0.0168574 0)
(1.00359 -0.0103256 0)
(1.00215 -0.00566469 0)
(1.00144 -0.00200484 0)
(1.0013 0.00131884 0)
(1.00166 0.00470443 0)
(1.00265 0.00863811 0)
(1.00467 0.0139652 0)
(1.0086 0.02167 0)
(1.01655 0.0326383 0)
(1.03248 0.046551 0)
(1.06265 0.0616673 0)
(1.09187 0.0761019 0)
(0.838669 0.0565624 0)
(0.216848 -0.00242972 0)
(1.0759 -0.0501355 0)
(1.09988 -0.04831 0)
(1.06464 -0.0404624 0)
(1.04003 -0.0336035 0)
(1.02392 -0.0260806 0)
(1.01412 -0.0184956 0)
(1.00856 -0.0116729 0)
(1.00558 -0.00580113 0)
(1.00432 -0.000379422 0)
(1.00465 0.00487008 0)
(1.00658 0.0102636 0)
(1.01061 0.0163473 0)
(1.01794 0.0233623 0)
(1.03052 0.0308274 0)
(1.05061 0.0378564 0)
(1.08034 0.0445386 0)
(1.10625 0.0513519 0)
(0.942516 0.0416207 0)
(0.216141 0.00246207 0)
(0.175177 -0.000816366 0)
(1.0177 -0.0354831 0)
(1.1052 -0.0413771 0)
(1.07826 -0.0360599 0)
(1.05347 -0.0301232 0)
(1.03621 -0.0245445 0)
(1.024 -0.0188125 0)
(1.01588 -0.012728 0)
(1.01101 -0.00653423 0)
(1.0088 -0.000193581 0)
(1.00936 0.00606589 0)
(1.01262 0.0120678 0)
(1.01887 0.0178928 0)
(1.02876 0.0234548 0)
(1.04318 0.0287537 0)
(1.06371 0.0342346 0)
(1.09354 0.0402165 0)
(1.0934 0.041975 0)
(0.827109 0.0229199 0)
(0.173984 0.00085363 0)
(0.153981 -0.000610184 0)
(0.956204 -0.0254547 0)
(1.10347 -0.0351215 0)
(1.08768 -0.0326419 0)
(1.06172 -0.0279851 0)
(1.04411 -0.0229563 0)
(1.03165 -0.0177037 0)
(1.02279 -0.0121655 0)
(1.01696 -0.00622187 0)
(1.0141 0.000254341 0)
(1.01476 0.00672028 0)
(1.01874 0.0126075 0)
(1.02579 0.0178891 0)
(1.03609 0.022791 0)
(1.05063 0.0275478 0)
(1.07187 0.032075 0)
(1.10005 0.0360048 0)
(1.06804 0.0340556 0)
(0.739453 0.0143243 0)
(0.152182 0.000652499 0)
(0.139616 -0.000466308 0)
(0.899329 -0.0190695 0)
(1.09581 -0.0300653 0)
(1.09575 -0.0291684 0)
(1.06926 -0.0254304 0)
(1.05083 -0.0212837 0)
(1.03789 -0.0165031 0)
(1.02878 -0.0112075 0)
(1.02265 -0.00545321 0)
(1.0195 0.000883133 0)
(1.02009 0.00719934 0)
(1.02418 0.0128372 0)
(1.03136 0.0177862 0)
(1.04186 0.0222329 0)
(1.05697 0.0261963 0)
(1.07917 0.0296536 0)
(1.10224 0.0322721 0)
(1.0359 0.0281564 0)
(0.672816 0.0102268 0)
(0.137075 0.000515109 0)
(0.129087 -0.000360767 0)
(0.849783 -0.0147027 0)
(1.08345 -0.0259239 0)
(1.10145 -0.026206 0)
(1.07613 -0.022911 0)
(1.05716 -0.0192569 0)
(1.04377 -0.0150002 0)
(1.0343 -0.0100643 0)
(1.02792 -0.00451809 0)
(1.02457 0.00164309 0)
(1.02501 0.00774947 0)
(1.02906 0.0131099 0)
(1.03634 0.017645 0)
(1.04712 0.0214833 0)
(1.06263 0.0247806 0)
(1.08526 0.0277153 0)
(1.10131 0.0294591 0)
(1.0009 0.0236567 0)
(0.620883 0.00786863 0)
(0.125641 0.000418175 0)
(0.121061 -0.000279909 0)
(0.807707 -0.0115396 0)
(1.06822 -0.0223027 0)
(1.10501 -0.0235529 0)
(1.0824 -0.0206675 0)
(1.06302 -0.0172247 0)
(1.04935 -0.0132724 0)
(1.03959 -0.00867082 0)
(1.03293 -0.00339207 0)
(1.02932 0.00255352 0)
(1.02958 0.00841326 0)
(1.03357 0.0134259 0)
(1.04091 0.0174842 0)
(1.05178 0.0208112 0)
(1.0675 0.0236977 0)
(1.09047 0.0263308 0)
(1.09747 0.0271749 0)
(0.965505 0.0201361 0)
(0.579093 0.0063415 0)
(0.116515 0.000348178 0)
(0.114851 -0.000216467 0)
(0.772326 -0.00917063 0)
(1.05152 -0.0191107 0)
(1.10742 -0.021093 0)
(1.08829 -0.018574 0)
(1.06853 -0.0152725 0)
(1.05462 -0.0114786 0)
(1.04466 -0.00708271 0)
(1.03774 -0.00204136 0)
(1.03385 0.00365416 0)
(1.03387 0.00921646 0)
(1.03772 0.0138552 0)
(1.045 0.0174925 0)
(1.05585 0.0204278 0)
(1.07177 0.0229877 0)
(1.09438 0.0252709 0)
(1.09078 0.0252949 0)
(0.93101 0.0174295 0)
(0.544426 0.00530318 0)
(0.108967 0.0002981 0)
(0.110023 -0.00016532 0)
(0.742702 -0.00732882 0)
(1.03442 -0.0162766 0)
(1.10891 -0.0187688 0)
(1.09391 -0.0165507 0)
(1.07386 -0.013336 0)
(1.05968 -0.00962591 0)
(1.04953 -0.00534616 0)
(1.04238 -0.000472701 0)
(1.03818 0.00498467 0)
(1.03789 0.0102322 0)
(1.04151 0.0145088 0)
(1.04864 0.0177698 0)
(1.05944 0.0203565 0)
(1.07554 0.0226263 0)
(1.097 0.0245274 0)
(1.08161 0.0237717 0)
(0.897965 0.0153874 0)
(0.514821 0.00458457 0)
(0.102515 0.000263251 0)
(0.106294 -0.000122692 0)
(0.718019 -0.00583989 0)
(1.01776 -0.0137285 0)
(1.10959 -0.0165172 0)
(1.09944 -0.0145654 0)
(1.07913 -0.0113566 0)
(1.06465 -0.00767183 0)
(1.05427 -0.00344713 0)
(1.04685 0.00131934 0)
(1.04231 0.00658388 0)
(1.04163 0.011546 0)
(1.04493 0.0154853 0)
(1.05186 0.0183869 0)
(1.0626 0.0206334 0)
(1.07887 0.0226337 0)
(1.09826 0.0241184 0)
(1.07033 0.0226092 0)
(0.866466 0.0138948 0)
(0.488815 0.00409599 0)
(0.0968138 0.000240652 0)
(0.103479 -8.56094e-05 0)
(0.69764 -0.00458742 0)
(1.00214 -0.0113982 0)
(1.10961 -0.014301 0)
(1.10482 -0.0125313 0)
(1.0844 -0.00928005 0)
(1.06961 -0.00555812 0)
(1.05895 -0.00132799 0)
(1.05122 0.00338543 0)
(1.04626 0.00850393 0)
(1.04511 0.01321 0)
(1.04802 0.0168283 0)
(1.05471 0.0193754 0)
(1.06534 0.0212912 0)
(1.08173 0.0230294 0)
(1.09847 0.0241324 0)
(1.0572 0.0218177 0)
(0.836336 0.0128641 0)
(0.465306 0.00378206 0)
(0.0916028 0.000227858 0)
(0.101458 -5.13864e-05 0)
(0.681097 -0.00348409 0)
(0.988024 -0.00921525 0)
(1.10921 -0.0120323 0)
(1.11005 -0.0103628 0)
(1.08978 -0.00704019 0)
(1.07464 -0.00322251 0)
(1.06365 0.00107865 0)
(1.05553 0.00580404 0)
(1.05005 0.010825 0)
(1.04832 0.0153034 0)
(1.05078 0.0186194 0)
(1.05718 0.0208147 0)
(1.06767 0.0223904 0)
(1.0841 0.0238485 0)
(1.09767 0.0245369 0)
(1.04235 0.0214107 0)
(0.807213 0.0122248 0)
(0.44342 0.0036055 0)
(0.0866741 0.00022292 0)
(0.100171 -1.77756e-05 0)
(0.668094 -0.00246069 0)
(0.975779 -0.00710505 0)
(1.10869 -0.00965455 0)
(1.11525 -0.00800525 0)
(1.09533 -0.00457182 0)
(1.07981 -0.000592413 0)
(1.06844 0.00385017 0)
(1.05983 0.00865237 0)
(1.05372 0.0136371 0)
(1.05131 0.0179233 0)
(1.05321 0.0209351 0)
(1.05925 0.022762 0)
(1.06958 0.0239939 0)
(1.08599 0.0251644 0)
(1.09566 0.025366 0)
(1.02582 0.0213805 0)
(0.778649 0.0119221 0)
(0.422446 0.00354059 0)
(0.081863 0.000224313 0)
(0.0996063 1.81792e-05 0)
(0.658484 -0.001464 0)
(0.965725 -0.00499586 0)
(1.1084 -0.00710334 0)
(1.12058 -0.00537631 0)
(1.10115 -0.00177121 0)
(1.08521 0.00244127 0)
(1.07337 0.00709434 0)
(1.06418 0.0120414 0)
(1.05732 0.0170361 0)
(1.05408 0.0211506 0)
(1.05531 0.0238706 0)
(1.06092 0.0253245 0)
(1.07105 0.0261912 0)
(1.08734 0.0270387 0)
(1.0923 0.0266773 0)
(1.00755 0.0217693 0)
(0.750137 0.011934 0)
(0.401782 0.0035742 0)
(0.0770329 0.000231526 0)
(0.0997852 4.96146e-05 0)
(0.652257 -0.000444816 0)
(0.958168 -0.00281146 0)
(1.10868 -0.00431124 0)
(1.12619 -0.00239869 0)
(1.10734 0.00144754 0)
(1.09093 0.00596785 0)
(1.07854 0.0109144 0)
(1.06864 0.016084 0)
(1.06086 0.0211502 0)
(1.05662 0.0251215 0)
(1.05706 0.0275448 0)
(1.06217 0.0286259 0)
(1.07204 0.0291045 0)
(1.08789 0.0295689 0)
(1.08729 0.0285271 0)
(0.987324 0.0226143 0)
(0.721101 0.0122449 0)
(0.380873 0.00369794 0)
(0.0720581 0.000243808 0)
(0.100781 9.84478e-05 0)
(0.649541 0.000634306 0)
(0.953427 -0.000468143 0)
(1.10989 -0.0011947 0)
(1.13228 0.0010289 0)
(1.11401 0.00520756 0)
(1.09709 0.010131 0)
(1.08404 0.0154608 0)
(1.07328 0.020935 0)
(1.06438 0.0261364 0)
(1.05895 0.0299873 0)
(1.05843 0.0320927 0)
(1.06295 0.0327834 0)
(1.0725 0.032846 0)
(1.08751 0.032887 0)
(1.08039 0.0310072 0)
(0.964826 0.0239441 0)
(0.690908 0.012843 0)
(0.359199 0.00390242 0)
(0.0668295 0.000260264 0)
(0.102745 0.000154427 0)
(0.650627 0.00179605 0)
(0.95186 0.00209952 0)
(1.11249 0.00234549 0)
(1.13907 0.00502519 0)
(1.12132 0.00966511 0)
(1.10381 0.0150964 0)
(1.08996 0.0209118 0)
(1.07815 0.0267771 0)
(1.06791 0.032159 0)
(1.06106 0.0358952 0)
(1.05942 0.0376481 0)
(1.06322 0.0379426 0)
(1.07238 0.0375508 0)
(1.08592 0.0370819 0)
(1.07131 0.0342055 0)
(0.939597 0.0258036 0)
(0.658878 0.0137234 0)
(0.336275 0.00418035 0)
(0.0612534 0.000279986 0)
(0.105764 0.000218274 0)
(0.656001 0.00325456 0)
(0.953905 0.00503642 0)
(1.11696 0.00645774 0)
(1.14681 0.00972941 0)
(1.12944 0.0149741 0)
(1.11123 0.0210409 0)
(1.09642 0.0274653 0)
(1.08333 0.0338173 0)
(1.07146 0.0394405 0)
(1.06292 0.0430578 0)
(1.05998 0.04442 0)
(1.06291 0.044279 0)
(1.0716 0.0433886 0)
(1.08304 0.0423919 0)
(1.05963 0.0382377 0)
(0.911025 0.0282338 0)
(0.624269 0.014875 0)
(0.31164 0.00452034 0)
(0.0552544 0.000301617 0)
(0.110131 0.00030298 0)
(0.666048 0.00495928 0)
(0.960061 0.00851111 0)
(1.12378 0.0112963 0)
(1.15578 0.0153615 0)
(1.13859 0.0214017 0)
(1.11955 0.0282558 0)
(1.10353 0.0354149 0)
(1.08886 0.0423433 0)
(1.07503 0.0482285 0)
(1.06449 0.051677 0)
(1.06003 0.052595 0)
(1.06197 0.0519793 0)
(1.0701 0.0505243 0)
(1.07889 0.0489159 0)
(1.04478 0.0432121 0)
(0.878329 0.0312502 0)
(0.58629 0.0162676 0)
(0.284883 0.00490255 0)
(0.0487846 0.000323021 0)
(0.116187 0.000417016 0)
(0.681611 0.00709351 0)
(0.971009 0.0127106 0)
(1.13355 0.0170889 0)
(1.16635 0.022175 0)
(1.14904 0.0292636 0)
(1.12894 0.0370801 0)
(1.11141 0.0451142 0)
(1.09477 0.0526861 0)
(1.07858 0.0588143 0)
(1.06571 0.0620095 0)
(1.05941 0.0623637 0)
(1.06032 0.061232 0)
(1.06787 0.0591515 0)
(1.07318 0.0567895 0)
(1.02603 0.0491989 0)
(0.840559 0.0348335 0)
(0.544142 0.0178403 0)
(0.2557 0.00529515 0)
(0.041841 0.000341237 0)
(0.12446 0.000575954 0)
(0.703596 0.00988222 0)
(0.987599 0.0179431 0)
(1.14691 0.0241828 0)
(1.17903 0.0305567 0)
(1.16112 0.0389932 0)
(1.13961 0.0479725 0)
(1.12014 0.0570105 0)
(1.10106 0.0652525 0)
(1.08202 0.0715422 0)
(1.06646 0.0743247 0)
(1.05811 0.0739614 0)
(1.05789 0.0722011 0)
(1.06478 0.0694125 0)
(1.06545 0.066019 0)
(1.00241 0.0562544 0)
(0.796602 0.038901 0)
(0.497094 0.0194837 0)
(0.223958 0.00565117 0)
(0.0344827 0.000352489 0)
(0.135686 0.000805725 0)
(0.733328 0.0137156 0)
(1.011 0.0246793 0)
(1.16467 0.0331309 0)
(1.19441 0.0411284 0)
(1.17519 0.0513051 0)
(1.15175 0.061646 0)
(1.12973 0.0717469 0)
(1.1076 0.0805559 0)
(1.08519 0.0867532 0)
(1.06659 0.0888381 0)
(1.05604 0.0875955 0)
(1.05462 0.0851546 0)
(1.06043 0.0814629 0)
(1.05495 0.0768566 0)
(0.972631 0.0643124 0)
(0.74523 0.0432504 0)
(0.444612 0.0210179 0)
(0.189815 0.00590582 0)
(0.0268507 0.000352363 0)
(0.151142 0.00116726 0)
(0.772799 0.0192122 0)
(1.04286 0.0336985 0)
(1.18778 0.0448636 0)
(1.21337 0.0550995 0)
(1.19159 0.0672355 0)
(1.16541 0.0790575 0)
(1.14003 0.0901142 0)
(1.11413 0.0991731 0)
(1.08781 0.104843 0)
(1.06588 0.105815 0)
(1.05302 0.103407 0)
(1.05042 0.100165 0)
(1.05461 0.0957011 0)
(1.04073 0.0892938 0)
(0.935071 0.0731372 0)
(0.685259 0.0475299 0)
(0.386613 0.0221891 0)
(0.153845 0.00598223 0)
(0.0191838 0.000336529 0)
(0.173028 0.0017929 0)
(0.825255 0.0275139 0)
(1.08589 0.0465591 0)
(1.21737 0.0612612 0)
(1.23641 0.074358 0)
(1.21042 0.0884068 0)
(1.18033 0.101526 0)
(1.1506 0.113044 0)
(1.12018 0.121685 0)
(1.0895 0.126119 0)
(1.06405 0.125395 0)
(1.04888 0.121489 0)
(1.04513 0.117243 0)
(1.04729 0.111812 0)
(1.02142 0.103173 0)
(0.887697 0.0822356 0)
(0.615897 0.0512007 0)
(0.323857 0.022689 0)
(0.117192 0.00580568 0)
(0.0118238 0.000301187 0)
(0.20474 0.00316865 0)
(0.896476 0.0412672 0)
(1.14353 0.0670877 0)
(1.2538 0.08591 0)
(1.26327 0.101818 0)
(1.23102 0.117244 0)
(1.19565 0.130711 0)
(1.16059 0.141551 0)
(1.12508 0.148638 0)
(1.08975 0.150796 0)
(1.06079 0.14764 0)
(1.04344 0.141839 0)
(1.03862 0.136404 0)
(1.03782 0.129884 0)
(0.995081 0.118031 0)
(0.82816 0.0907416 0)
(0.537546 0.0535669 0)
(0.258711 0.0222912 0)
(0.0818235 0.00534662 0)
(0.00526153 0.000242116 0)
(0.248006 0.0094388 9.73025e-21)
(0.990391 0.0684922 8.33868e-21)
(1.21339 0.101912 -2.90744e-21)
(1.294 0.122518 0)
(1.29106 0.141144 -7.37193e-35)
(1.25118 0.156111 1.07702e-21)
(1.20978 0.168115 -1.93831e-21)
(1.16893 0.176823 0)
(1.12801 0.18127 3.98658e-35)
(1.08782 0.180378 -2.40222e-21)
(1.05519 0.174328 0)
(1.03564 0.166528 -2.86217e-21)
(1.03017 0.160214 -8.45435e-21)
(1.02467 0.153179 -4.00437e-21)
(0.95689 0.136191 -1.20632e-21)
(0.749674 0.0995339 -7.16795e-22)
(0.445258 0.0546472 0)
(0.190195 0.0213192 5.0182e-22)
(0.0479205 0.00481035 5.94306e-22)
(-0.000526351 0.000146875 1.08614e-20)
(0.278013 0.0248115 7.03313e-21)
(1.06821 0.11153 1.13053e-22)
(1.27101 0.151531 7.70499e-22)
(1.33024 0.172086 0)
(1.31551 0.190877 -3.71637e-21)
(1.26856 0.203725 -4.22215e-21)
(1.22123 0.213465 -1.94832e-21)
(1.17459 0.219754 -6.9317e-21)
(1.12814 0.221574 0)
(1.08279 0.217754 1.01772e-20)
(1.0462 0.208986 1.01015e-20)
(1.0243 0.199318 2.99961e-21)
(1.01638 0.191413 1.09671e-20)
(1.0002 0.181995 1.54587e-20)
(0.895344 0.156473 0)
(0.641573 0.107859 2.17978e-20)
(0.336732 0.0550078 3.12746e-20)
(0.119576 0.0195234 3.48016e-20)
(0.0145788 0.00311717 -3.99202e-20)
(-0.00610672 -0.000455731 -7.61534e-22)
(0.279511 0.0418828 0)
(1.11791 0.16718 1.18974e-21)
(1.31024 0.21221 0)
(1.35857 0.232439 -4.78264e-21)
(1.33481 0.248399 0)
(1.28193 0.257338 -8.2451e-21)
(1.22905 0.263333 3.96313e-21)
(1.17693 0.26605 -1.38973e-20)
(1.12526 0.26433 -3.2237e-22)
(1.07513 0.256884 5.2422e-21)
(1.03496 0.244894 2.21387e-20)
(1.01095 0.23304 -3.50997e-23)
(1.00033 0.223273 -7.94703e-21)
(0.973199 0.210183 -1.44706e-20)
(0.83828 0.175606 1.71517e-20)
(0.56081 0.11477 -3.03695e-20)
(0.269795 0.0549834 -4.00419e-21)
(0.0800525 0.0175177 0)
(-0.00379401 0.000803341 -3.64881e-24)
(-0.00926277 -0.00125614 0)
(0.272869 0.0562096 1.49952e-20)
(1.14498 0.226505 -7.35039e-21)
(1.33469 0.277455 -5.7275e-21)
(1.37745 0.298091 2.23305e-21)
(1.34749 0.310238 -3.74679e-21)
(1.2902 0.314604 1.72029e-20)
(1.23277 0.316126 8.23143e-21)
(1.17595 0.314559 0)
(1.11966 0.308648 -2.61675e-20)
(1.06524 0.297017 0)
(1.02187 0.281357 -1.15676e-20)
(0.995999 0.266966 -1.43122e-20)
(0.982794 0.254876 -8.6159e-21)
(0.946139 0.237137 -1.04691e-20)
(0.790964 0.193484 0)
(0.506123 0.122123 0)
(0.230742 0.0564057 -2.59645e-20)
(0.0562133 0.0156712 5.12918e-21)
(-0.0167377 -0.00208148 -3.01915e-21)
(-0.0120475 -0.00228505 -3.5767e-21)
(0.264873 0.0687671 -5.32869e-21)
(1.15695 0.2857 0)
(1.34825 0.343655 1.12959e-20)
(1.3879 0.365141 6.1716e-21)
(1.35364 0.373466 8.69011e-21)
(1.29314 0.373242 0)
(1.23221 0.37015 8.00005e-21)
(1.17155 0.364061 1.52822e-20)
(1.11134 0.353655 1.33549e-20)
(1.05315 0.337483 2.45411e-20)
(1.00687 0.317844 0)
(0.979207 0.300529 -3.07425e-20)
(0.963539 0.285668 -1.85207e-20)
(0.919583 0.262894 -1.09549e-20)
(0.753209 0.210667 6.70397e-20)
(0.470895 0.130347 7.96293e-21)
(0.208633 0.058755 3.74879e-20)
(0.0418113 0.0138034 -1.77305e-19)
(-0.0262826 -0.00543283 1.05025e-19)
(-0.0146253 -0.0035206 -1.28199e-19)
(0.257086 0.0799972 -1.70242e-21)
(1.15923 0.342827 9.25755e-22)
(1.3539 0.408926 -1.12492e-21)
(1.39159 0.431644 -5.96827e-21)
(1.35425 0.43634 -7.16364e-21)
(1.29135 0.431689 3.62353e-22)
(1.22765 0.424106 -8.659e-21)
(1.16388 0.41354 1.5737e-20)
(1.10035 0.398598 -2.86795e-20)
(1.03882 0.377778 0)
(0.989855 0.353954 -1.39081e-20)
(0.960432 0.333471 -3.12384e-22)
(0.942459 0.315621 -2.02246e-20)
(0.892978 0.287888 0)
(0.722844 0.227904 -1.44867e-20)
(0.448633 0.139736 -3.43583e-20)
(0.197035 0.0621046 9.14766e-20)
(0.0343044 0.0123078 -9.01004e-20)
(-0.0325363 -0.00885114 1.28122e-19)
(-0.0167956 -0.00487396 -1.34823e-19)
(0.250366 0.0902996 -1.08683e-22)
(1.15539 0.397191 -5.12439e-23)
(1.35381 0.472233 -2.61758e-21)
(1.38998 0.49644 2.24851e-21)
(1.35036 0.497844 -3.5705e-21)
(1.28565 0.489018 0)
(1.21974 0.477173 -7.99173e-21)
(1.15337 0.462305 -1.64481e-20)
(1.08695 0.442933 -1.48803e-20)
(1.02242 0.417505 0)
(0.970923 0.389432 -1.43787e-20)
(0.939714 0.36566 -1.78224e-20)
(0.919613 0.34467 2.18945e-20)
(0.86641 0.312094 -1.32705e-20)
(0.697468 0.245351 -6.30421e-20)
(0.434304 0.150286 3.73646e-20)
(0.19262 0.0667266 1.10771e-20)
(0.0324299 0.0116731 0)
(-0.0352782 -0.0117639 -1.2357e-19)
(-0.018263 -0.00618145 -4.59005e-21)
(0.244881 0.100016 4.5454e-22)
(1.14777 0.448624 -5.33282e-22)
(1.34947 0.533025 1.11135e-21)
(1.38429 0.558847 8.20882e-21)
(1.34296 0.557339 -1.2887e-20)
(1.27687 0.544671 1.58551e-20)
(1.20916 0.52886 1.72073e-20)
(1.14055 0.509932 -2.6269e-20)
(1.07158 0.486311 9.21107e-21)
(1.0043 0.456391 -6.01552e-20)
(0.950367 0.424141 -1.6268e-20)
(0.917364 0.39702 0)
(0.895264 0.37287 2.37463e-20)
(0.839595 0.335653 2.8453e-20)
(0.674685 0.263062 3.39652e-20)
(0.423676 0.161915 -4.05676e-20)
(0.191746 0.0724092 -1.20059e-20)
(0.0342589 0.012315 1.40997e-20)
(-0.0347729 -0.013649 0)
(-0.0187866 -0.00723358 -9.96021e-21)
(0.240541 0.109243 -9.71383e-21)
(1.13807 0.497202 4.71043e-21)
(1.34217 0.591157 -8.266e-22)
(1.37556 0.618517 4.75577e-21)
(1.33286 0.614442 -5.62778e-21)
(1.26572 0.598281 -8.35218e-22)
(1.19652 0.578851 -1.88366e-20)
(1.12598 0.556158 -9.51326e-21)
(1.05469 0.52852 -2.58613e-20)
(0.984795 0.494277 6.56327e-23)
(0.928523 0.457967 -5.09502e-20)
(0.893705 0.427512 4.3019e-20)
(0.869672 0.400274 -2.61099e-20)
(0.812329 0.358687 3.13503e-20)
(0.652827 0.280718 0)
(0.414129 0.174173 -2.20783e-20)
(0.191892 0.0790789 6.99983e-23)
(0.0380266 0.0142318 -6.15692e-20)
(-0.0320155 -0.0144272 -9.06881e-21)
(-0.0184893 -0.0079546 0)
(0.237276 0.118234 0)
(1.12733 0.543159 5.77389e-21)
(1.33282 0.646909 6.10474e-22)
(1.36458 0.675289 -4.10952e-21)
(1.32077 0.668943 -7.37811e-21)
(1.25282 0.649642 0)
(1.18238 0.626942 -8.46862e-21)
(1.11014 0.600806 -2.12216e-22)
(1.0367 0.569444 5.54755e-20)
(0.964309 0.531095 -8.26719e-21)
(0.90572 0.490834 -3.68236e-20)
(0.86909 0.457137 2.23852e-20)
(0.843181 0.426856 -4.47227e-22)
(0.784567 0.38111 3.3445e-20)
(0.630857 0.297921 2.04183e-20)
(0.403902 0.186511 -4.76451e-20)
(0.191732 0.0861418 5.63901e-20)
(0.0423168 0.0170198 1.67263e-20)
(-0.0279514 -0.014246 6.91503e-20)
(-0.0175931 -0.00833752 -1.87057e-19)
(0.234996 0.127129 -3.88473e-21)
(1.11629 0.586676 4.76201e-21)
(1.32201 0.699767 -2.85324e-21)
(1.35204 0.729116 2.72973e-21)
(1.30727 0.720742 0)
(1.23868 0.698635 -7.07278e-21)
(1.1672 0.673014 2.86163e-20)
(1.09342 0.643776 2.08788e-20)
(1.01799 0.609004 0)
(0.943177 0.566816 -1.19347e-19)
(0.88224 0.522726 9.98334e-20)
(0.84381 0.485876 0)
(0.816105 0.452589 3.06133e-20)
(0.756369 0.402742 -4.38053e-22)
(0.608022 0.314387 -6.57787e-20)
(0.392085 0.198406 2.57167e-20)
(0.189829 0.0931793 0)
(0.0459123 0.0203553 9.04495e-20)
(-0.0234801 -0.0132972 0)
(-0.0162948 -0.00841259 -8.87172e-20)
(0.233574 0.135962 4.83739e-21)
(1.10538 0.627969 6.73907e-21)
(1.31019 0.749793 -2.68009e-21)
(1.33844 0.780015 0)
(1.29283 0.769828 -5.94662e-21)
(1.22374 0.745225 0)
(1.15136 0.717008 -2.81219e-20)
(1.07621 0.685008 -9.64472e-21)
(0.998883 0.647168 9.79589e-21)
(0.921651 0.601416 -5.91183e-20)
(0.858336 0.553664 1.0322e-20)
(0.818085 0.51367 0)
(0.788633 0.477334 -6.55558e-20)
(0.72777 0.423317 4.12723e-22)
(0.584106 0.32968 0)
(0.378409 0.209175 1.50118e-22)
(0.18571 0.0996351 8.27869e-20)
(0.0479505 0.0236522 -7.82758e-20)
(-0.0195181 -0.012031 2.31695e-20)
(-0.0148949 -0.00828091 0)
(0.232662 0.144671 0)
(1.09481 0.667221 8.47632e-21)
(1.29782 0.797096 4.77526e-21)
(1.32421 0.828057 -5.21541e-22)
(1.27784 0.81623 -1.70522e-21)
(1.20835 0.789416 -1.6004e-20)
(1.13521 0.758916 1.06221e-20)
(1.05879 0.724477 -1.14716e-20)
(0.979644 0.683913 4.38726e-20)
(0.899985 0.634911 -9.48121e-20)
(0.834205 0.583661 -8.75676e-22)
(0.792088 0.540496 -2.87398e-20)
(0.760933 0.50094 1.06585e-19)
(0.6989 0.442565 -5.08783e-22)
(0.558804 0.343536 -5.13142e-20)
(0.362837 0.218261 -9.09493e-20)
(0.179454 0.104984 0)
(0.0481173 0.0263838 0)
(-0.0165227 -0.0108504 2.50443e-20)
(-0.0135917 -0.00807156 -1.48782e-20)
(0.232395 0.153425 7.20541e-21)
(1.0848 0.704259 -1.96175e-20)
(1.28518 0.841772 -5.14024e-21)
(1.30967 0.873325 0)
(1.26261 0.860008 -3.09493e-22)
(1.19281 0.83124 -1.43988e-20)
(1.119 0.798749 2.55206e-20)
(1.04142 0.762186 4.5091e-20)
(0.96052 0.719244 5.71264e-20)
(0.878414 0.667335 -7.76499e-20)
(0.810021 0.612763 -8.6445e-20)
(0.765923 0.566353 7.70334e-20)
(0.733064 0.523306 0)
(0.669816 0.460142 -2.34369e-20)
(0.532821 0.355405 -5.54727e-20)
(0.345641 0.225395 -6.54992e-20)
(0.171271 0.10876 -7.73301e-20)
(0.0466753 0.0281201 2.28931e-20)
(-0.0145497 -0.0100307 -1.34986e-20)
(-0.0124782 -0.00786809 6.78006e-23)
(0.232337 0.162005 0)
(1.07552 0.739543 0)
(1.27248 0.883924 5.12905e-22)
(1.29504 0.915923 0)
(1.24737 0.90125 3.01535e-21)
(1.17734 0.870761 9.56042e-21)
(1.10296 0.836541 0)
(1.02431 0.798154 5.33953e-21)
(0.941724 0.753169 9.55872e-20)
(0.857122 0.698717 -1.78954e-19)
(0.785933 0.641045 0)
(0.739654 0.591293 -4.97834e-20)
(0.705007 0.544334 -5.96398e-22)
(0.640469 0.475748 -4.30676e-22)
(0.506227 0.364871 5.95817e-20)
(0.327247 0.230154 1.49903e-23)
(0.161546 0.110704 -1.66754e-19)
(0.0438892 0.0287694 4.92737e-20)
(-0.0134719 -0.00963257 1.46196e-20)
(-0.011554 -0.0076872 0)
(0.232541 0.170399 -2.99919e-20)
(1.0667 0.77317 -1.38529e-20)
(1.25982 0.923622 -1.67961e-20)
(1.28052 0.955958 1.27356e-20)
(1.23232 0.94003 2.27265e-21)
(1.16212 0.908047 0)
(1.08726 0.872339 1.54351e-20)
(1.00763 0.832404 -1.197e-20)
(0.923414 0.78571 8.0009e-22)
(0.83629 0.7291 1.32347e-20)
(0.762088 0.668591 1.12619e-19)
(0.713321 0.615437 -1.7503e-20)
(0.67665 0.563997 -6.61154e-20)
(0.610763 0.489106 -2.73865e-20)
(0.479249 0.371533 3.22874e-20)
(0.307846 0.23221 4.27878e-23)
(0.150977 0.11067 4.49446e-20)
(0.0402343 0.0283462 -1.06138e-19)
(-0.0130179 -0.00961913 1.25895e-19)
(-0.0107931 -0.00754203 1.85906e-20)
(0.232645 0.178545 1.15505e-20)
(1.05836 0.805219 -7.90962e-21)
(1.24736 0.960989 1.30025e-21)
(1.26626 0.993558 9.20224e-21)
(1.2176 0.976461 8.99317e-22)
(1.14729 0.94317 -1.65784e-20)
(1.07203 0.906196 4.39725e-21)
(0.991514 0.86496 -4.99906e-20)
(0.90574 0.816868 -1.05941e-19)
(0.816077 0.758506 -1.07245e-19)
(0.738628 0.695501 0)
(0.686953 0.638933 -7.71722e-20)
(0.647859 0.582363 9.5552e-20)
(0.580462 0.499967 0)
(0.451929 0.374868 -6.93126e-20)
(0.288497 0.231066 4.10965e-20)
(0.140477 0.10843 -4.83884e-20)
(0.0366092 0.0270402 -5.71575e-20)
(-0.0128565 -0.00979305 -1.01483e-19)
(-0.0102026 -0.00743348 -8.01466e-20)
(0.233141 0.186569 -1.32455e-20)
(1.05035 0.835684 8.47705e-21)
(1.23516 0.996093 1.88508e-20)
(1.25234 1.0288 1.41208e-20)
(1.20331 1.01064 -1.03976e-21)
(1.13295 0.976219 -8.65862e-21)
(1.05738 0.938163 1.48087e-20)
(0.976059 0.895865 -5.14581e-20)
(0.888804 0.846669 -6.29846e-20)
(0.796614 0.786956 1.12748e-19)
(0.715688 0.721863 2.48945e-19)
(0.660609 0.661957 0)
(0.618476 0.599607 0)
(0.54915 0.50822 -3.15914e-20)
(0.424005 0.37422 0)
(0.269748 0.225636 8.83377e-20)
(0.131988 0.103101 1.04055e-19)
(0.0352507 0.0245788 0)
(-0.0119415 -0.0100661 0)
(-0.00987918 -0.00744951 8.6205e-20)
(0.233329 0.194148 1.5252e-20)
(1.04269 0.864564 1.20258e-20)
(1.2233 1.02905 1.37994e-20)
(1.23884 1.06182 -1.438e-20)
(1.18952 1.04267 -2.579e-21)
(1.11916 1.00727 8.39146e-21)
(1.04336 0.968299 -2.03602e-20)
(0.961345 0.925147 -1.52115e-22)
(0.872702 0.87512 -1.04942e-21)
(0.778014 0.814451 -8.48703e-22)
(0.693423 0.747752 1.28608e-19)
(0.63437 0.684674 0)
(0.588392 0.616023 9.73926e-20)
(0.516318 0.514007 6.77232e-20)
(0.394652 0.369147 1.62124e-19)
(0.251278 0.21407 4.76867e-20)
(0.127525 0.0911579 -5.60052e-20)
(0.0417127 0.0168044 -3.29935e-20)
(-0.00339374 -0.0121846 0)
(-0.00829849 -0.00732249 9.27274e-20)
(0.233912 0.201764 -3.49001e-20)
(1.03535 0.891988 0)
(1.21177 1.0599 1.66779e-20)
(1.2258 1.09269 -1.25023e-20)
(1.17631 1.07266 5.03711e-21)
(1.10598 1.03641 -8.00102e-21)
(1.03005 0.996658 3.93105e-20)
(0.947418 0.95284 -4.19472e-21)
(0.857486 0.902229 0)
(0.760377 0.840967 -1.25246e-19)
(0.671985 0.773206 -2.80863e-19)
(0.608363 0.707255 1.15122e-20)
(0.557598 0.631955 1.3515e-19)
(0.481526 0.517834 0)
(0.362451 0.359951 1.09736e-19)
(0.230411 0.194552 0)
(0.125108 0.0645639 0)
(0.0631069 -0.0145912 -3.56563e-20)
(0.0420396 -0.0295012 0)
(0.0241892 0.00347196 2.4881e-20)
(0.234084 0.208828 -3.93308e-20)
(1.02829 0.918197 0)
(1.20058 1.08886 2.81986e-20)
(1.21318 1.12166 0)
(1.16362 1.10087 -3.56593e-21)
(1.09335 1.06393 0)
(1.01736 1.02355 1.86728e-21)
(0.934184 0.979278 7.16002e-21)
(0.843035 0.928357 7.98655e-21)
(0.743526 0.866875 -1.37949e-19)
(0.651179 0.798677 8.45866e-21)
(0.582276 0.73037 9.30912e-20)
(0.525554 0.648222 1.3232e-19)
(0.443718 0.520438 1.77817e-20)
(0.32525 0.34806 8.62983e-20)
(0.201335 0.167703 0)
(0.110714 0.0187914 1.17985e-19)
(0.0640273 -0.0493104 -6.93006e-20)
(0.029516 0.0501131 8.10568e-20)
(-0.0384887 0.457571 -9.63053e-20)
(0.234228 0.215739 3.27923e-20)
(1.02129 0.943055 4.90618e-20)
(1.18963 1.11625 0)
(1.20082 1.14917 1.02901e-21)
(1.15126 1.12789 1.1518e-20)
(1.08099 1.0905 6.52777e-21)
(1.00499 1.04977 1.34615e-20)
(0.921222 1.0054 0)
(0.828804 0.954598 5.28566e-20)
(0.726765 0.893477 -7.19403e-21)
(0.63006 0.825652 0)
(0.55475 0.755699 0)
(0.490079 0.666088 1.19008e-19)
(0.400161 0.522167 -5.50069e-20)
(0.27968 0.33516 -8.77893e-20)
(0.159275 0.136374 0)
(0.0645338 0.0411909 6.00092e-20)
(0.0051389 0.460738 -6.97184e-20)
(0.0302067 1.93154 -3.92579e-20)
(0.0566771 2.82705 -4.80938e-20)
(0.234046 0.222113 -2.49325e-20)
(1.0144 0.966736 -6.35209e-20)
(1.17895 1.14207 1.70482e-20)
(1.18874 1.17509 1.32138e-20)
(1.13929 1.15352 0)
(1.069 1.11587 2.27767e-21)
(0.993147 1.07502 1.79998e-20)
(0.908732 1.03078 -3.46822e-21)
(0.815086 0.980437 7.92996e-21)
(0.710498 0.92018 1.31961e-19)
(0.609271 0.853497 1.43378e-19)
(0.526771 0.783112 1.05299e-19)
(0.451941 0.68581 1.20338e-19)
(0.352017 0.522327 -1.3006e-19)
(0.23151 0.325079 -1.33185e-19)
(0.106441 0.193145 0)
(0.0379068 0.892439 0)
(0.0851202 2.58518 3.34351e-20)
(0.0880916 3.21373 0)
(0.0896156 3.38997 8.73976e-20)
(0.236662 0.228085 0)
(1.00793 0.989627 0)
(1.16823 1.16618 0)
(1.17673 1.1993 4.14313e-21)
(1.12738 1.17752 1.0889e-20)
(1.05719 1.13988 -1.04379e-21)
(0.981757 1.09918 1.14382e-20)
(0.896648 1.05528 -3.38481e-21)
(0.801816 1.0057 6.62338e-20)
(0.694718 0.946821 -1.74338e-21)
(0.588907 0.882001 2.84422e-19)
(0.498706 0.812687 -1.22047e-20)
(0.411021 0.708289 1.46926e-20)
(0.301133 0.519215 1.89114e-20)
(0.172631 0.343022 -5.99095e-22)
(0.08778 1.01807 3.49879e-22)
(0.121671 2.76698 -1.77728e-19)
(0.126326 3.30175 -6.71767e-20)
(0.117336 3.4236 3.56711e-20)
(0.107272 3.44332 -4.03739e-20)
(0.160054 0.173842 1.54271e-20)
(0.997303 1.01447 0)
(1.15729 1.18878 -3.56761e-20)
(1.16522 1.22223 -3.70237e-20)
(1.11596 1.20035 2.78982e-20)
(1.04624 1.16301 2.15784e-21)
(0.97063 1.12226 -1.16358e-20)
(0.885 1.07896 3.73875e-20)
(0.789071 1.03047 -5.45035e-20)
(0.679647 0.973519 0)
(0.569262 0.911237 1.40688e-19)
(0.471092 0.844207 -8.65028e-20)
(0.370395 0.737679 0)
(0.241795 0.517239 1.84001e-20)
(0.126075 0.746715 4.3592e-20)
(0.13632 2.57205 -4.93727e-20)
(0.183785 3.32826 5.61314e-20)
(0.166904 3.43351 3.03444e-20)
(0.138837 3.45231 3.45538e-20)
(0.119907 3.46106 5.53345e-20)
(0.271373 0.265954 -2.96693e-20)
(0.979945 1.02475 0)
(1.1391 1.21478 3.9003e-20)
(1.15046 1.25345 4.16681e-20)
(1.09837 1.23406 -3.27113e-20)
(1.02806 1.19709 -7.16149e-21)
(0.951254 1.15789 9.78578e-21)
(0.865029 1.11589 2.94559e-21)
(0.767594 1.06966 5.19359e-20)
(0.655034 1.01688 1.14994e-19)
(0.538507 0.960902 7.93072e-21)
(0.428175 0.897434 7.73658e-20)
(0.293664 0.769724 1.39836e-20)
(0.202278 0.912542 -1.77619e-20)
(0.208212 2.44944 -4.00159e-20)
(0.259335 3.33212 3.97003e-20)
(0.242253 3.45848 -4.3684e-20)
(0.208254 3.47732 -2.52056e-20)
(0.174893 3.5018 -2.31196e-20)
(0.129919 3.49687 -3.35635e-21)
(0.261619 0.264878 0)
(0.977107 1.04769 1.16168e-20)
(1.13033 1.23848 -8.12116e-21)
(1.13932 1.27713 -5.06714e-21)
(1.08718 1.25745 -2.31835e-20)
(1.01685 1.22067 8.04011e-21)
(0.939709 1.18169 -4.63332e-21)
(0.853198 1.14055 2.63048e-21)
(0.755067 1.09585 -5.41209e-20)
(0.640884 1.04608 -2.7679e-21)
(0.520845 0.995024 -2.5545e-19)
(0.403794 0.934094 1.10861e-20)
(0.275219 0.843114 -1.32753e-20)
(0.237694 1.54128 -1.63927e-20)
(0.300814 3.14387 3.67327e-21)
(0.313532 3.46023 2.2143e-22)
(0.272242 3.50725 6.58179e-20)
(0.238477 3.53069 3.36579e-20)
(0.192844 3.55075 -1.14428e-20)
(0.143016 3.54742 -1.70561e-20)
(0.247697 0.262965 2.99894e-20)
(0.973358 1.0732 7.90334e-20)
(1.12122 1.26427 -2.32146e-20)
(1.12782 1.30245 -1.90476e-20)
(1.07552 1.28231 0)
(1.00526 1.24556 1.78109e-20)
(0.928068 1.20686 -3.58289e-21)
(0.841526 1.16654 2.29064e-21)
(0.743014 1.12348 -6.05113e-21)
(0.627755 1.07701 -1.04343e-19)
(0.505155 1.03151 -1.18106e-19)
(0.382215 0.972108 -9.10464e-20)
(0.278322 0.989659 -1.00076e-19)
(0.303477 2.31432 1.03266e-19)
(0.38171 3.38814 8.80423e-20)
(0.353004 3.51651 0)
(0.305188 3.55344 0)
(0.268643 3.58714 -9.0942e-21)
(0.224904 3.63219 0)
(0.155476 3.61699 -1.4738e-20)
(0.237925 0.264953 -4.50171e-20)
(0.967691 1.09958 -6.72982e-20)
(1.11074 1.29131 0)
(1.11506 1.32859 1.25124e-21)
(1.06262 1.30783 -2.62309e-20)
(0.992594 1.27103 3.08115e-20)
(0.915678 1.23265 -4.72828e-22)
(0.829334 1.19307 1.23416e-21)
(0.7307 1.15164 -3.81164e-20)
(0.614811 1.1085 5.19879e-21)
(0.490631 1.06867 0)
(0.362927 1.0143 0)
(0.30065 1.28464 -9.11051e-20)
(0.382956 2.9753 3.72415e-20)
(0.446854 3.48699 4.79522e-20)
(0.393452 3.55095 0)