/*--------------------------------*- C++ -*----------------------------------*\
  =========                 |
  \\      /  F ield         | OpenFOAM: The Open Source CFD Toolbox
   \\    /   O peration     | Website:  https://openfoam.org
    \\  /    A nd           | Version:  6
     \\/     M anipulation  |
\*---------------------------------------------------------------------------*/
FoamFile
{
    version     2.0;
    format      ascii;
    class       surfaceScalarField;
    location    "39";
    object      phi;
}
// * * * * * * * * * * * * * * * * * * * * * * * * * * * * * * * * * * * * * //

dimensions      [0 3 -1 0 0 0 0];

internalField   nonuniform List<scalar> 
17370
(
-0.0900015
0.0898506
0.289162
-0.0714644
0.0537544
0.364485
-0.0381213
0.0276923
0.426597
-0.0196395
0.0146048
0.504286
-0.0107601
0.00826723
0.601895
-0.00626642
0.00489254
0.720431
-0.00373636
0.00290528
0.863738
-0.00217369
0.00162078
1.036
-0.0011076
0.000696792
1.24291
-0.000291056
-9.67204e-05
1.49158
0.000471472
-0.000875591
1.4916
0.00127063
-0.00176191
1.24318
0.0022967
-0.00301334
1.03635
0.00383624
-0.00498759
0.864058
0.00635728
-0.00835165
0.721052
0.0108372
-0.0146736
0.603051
0.0197015
-0.0277476
0.507485
0.0381711
-0.0537964
0.431793
0.0714983
-0.0898729
0.36515
0.0900142
0.198997
-0.12813
0.0882157
0.039914
-0.364592
0.353365
-0.0746849
0.0859116
-0.446473
0.454311
-0.0844128
0.0765743
-0.521186
0.529894
-0.0684795
0.0597708
-0.612782
0.621561
-0.0515831
0.0428036
-0.726888
0.734152
-0.0353435
0.0280787
-0.867471
0.872566
-0.0224887
0.0173931
-1.03847
1.0419
-0.0136032
0.0101719
-1.24459
1.24702
-0.00757175
0.0051468
-1.49263
1.4946
-0.00320658
0.00123956
-1.4925
1.49422
0.000437277
-0.00215277
-1.24398
1.24586
0.00405121
-0.00593287
-1.03751
1.04005
0.00829454
-0.0108368
-0.8661
0.869846
0.01421
-0.0179554
-0.724395
0.729948
0.0230093
-0.0285624
-0.608705
0.616125
0.0357851
-0.0432043
-0.514904
0.523053
0.0519389
-0.0600877
-0.439861
0.447925
0.0687567
-0.0768208
-0.375301
0.376752
0.084627
-0.0860784
-0.257339
0.222499
0.0747988
-0.0399588
-0.0684995
0.0586684
0.00983109
-0.0518453
0.0584406
-0.374107
0.367512
-0.0575334
0.0537879
-0.453581
0.457326
-0.048702
0.0447538
-0.527928
0.531876
-0.0409177
0.0372831
-0.621541
0.625175
-0.0331895
0.029129
-0.735326
0.739387
-0.0245838
0.0204491
-0.874318
0.878453
-0.0161297
0.0124555
-1.04347
1.04714
-0.00873903
0.00558004
-1.24854
1.2517
-0.00226142
-0.000815456
-1.49665
1.49972
0.00386776
-0.00712576
-1.49721
1.50047
0.010202
-0.0138088
-1.25009
1.2537
0.0173779
-0.0215866
-1.04595
1.05015
0.0256315
-0.0300923
-0.877783
0.882244
0.0340819
-0.0380977
-0.739923
0.743938
0.0416594
-0.0454161
-0.626799
0.630555
0.0492973
-0.0543197
-0.534832
0.539854
0.0580007
-0.0588269
-0.457496
0.458322
0.0521405
-0.0319629
-0.335787
0.31561
0.00988004
-0.0683712
0.0584912
-0.0529108
0.048909
0.00400176
-0.0332069
0.0437718
-0.358061
0.347496
-0.047485
0.0468669
-0.459252
0.45987
-0.0438169
0.0404666
-0.535765
0.539115
-0.0366963
0.0333976
-0.628486
0.631784
-0.0299736
0.0269636
-0.742605
0.745614
-0.0237371
0.0206602
-0.881964
0.885041
-0.0171596
0.0138042
-1.05071
1.05406
-0.0100379
0.00652323
-1.25512
1.25863
-0.00258445
-0.0011863
-1.50323
1.507
0.0049312
-0.00879465
-1.50414
1.508
0.0122033
-0.0158251
-1.25745
1.26107
0.019036
-0.0223783
-1.05396
1.0573
0.0253229
-0.0284209
-0.885744
0.888842
0.0313232
-0.0346338
-0.747215
0.750526
0.0378291
-0.0414885
-0.634362
0.638021
0.0447441
-0.047689
-0.544181
0.547126
0.0481998
-0.0443373
-0.456631
0.452768
0.0335972
-0.0161849
-0.296279
0.278866
0.00406083
-0.0526823
0.0486214
-0.0458231
0.0433204
0.00250265
-0.0228586
0.0332641
-0.336779
0.326373
-0.0391098
0.0401441
-0.459533
0.458499
-0.038971
0.0366984
-0.541812
0.544084
-0.0340472
0.031469
-0.634807
0.637385
-0.0284308
0.0255607
-0.748642
0.751512
-0.0223333
0.019372
-0.887989
0.890951
-0.0160998
0.0130282
-1.05719
1.06026
-0.00953424
0.00615481
-1.26207
1.26545
-0.00222199
-0.00163695
-1.51085
1.51471
0.0054612
-0.00928871
-1.5119
1.51572
0.0125252
-0.0158272
-1.26453
1.26783
0.0187043
-0.0217612
-1.06043
1.06348
0.0245388
-0.0275854
-0.891912
0.894958
0.0303061
-0.0331903
-0.753744
0.756628
0.0356301
-0.0381342
-0.641107
0.643611
0.0402807
-0.0412927
-0.548952
0.549964
0.0400949
-0.0340142
-0.447522
0.441441
0.0233552
-0.0101891
-0.263693
0.250527
0.00257487
-0.0454719
0.042897
-0.0412367
0.039461
0.00177578
-0.0168089
0.0260954
-0.316487
0.307201
-0.0327357
0.0348978
-0.456873
0.454711
-0.0344915
0.0328296
-0.546037
0.547699
-0.0306552
0.0285713
-0.639662
0.641746
-0.0261648
0.0238056
-0.754136
0.756495
-0.021004
0.0182704
-0.893816
0.896549
-0.015095
0.0120781
-1.06326
1.06628
-0.00863825
0.00535274
-1.26874
1.27203
-0.0015507
-0.00216152
-1.51849
1.5222
0.00582863
-0.00949272
-1.51947
1.52314
0.0125936
-0.0157848
-1.27109
1.27428
0.0185507
-0.0214435
-1.06651
1.0694
0.0239315
-0.0264913
-0.89779
0.90035
0.0286539
-0.0308622
-0.759101
0.761309
0.0327727
-0.0347627
-0.645794
0.647784
0.0362469
-0.0364378
-0.550517
0.550708
0.0340282
-0.0270485
-0.434833
0.427853
0.0174242
-0.00734783
-0.239057
0.228981
0.00186356
-0.0407355
0.0388719
-0.0379294
0.0365909
0.00133847
-0.0128518
0.0208362
-0.298569
0.290584
-0.0276305
0.0305902
-0.452114
0.449154
-0.0308307
0.0297447
-0.5491
0.550186
-0.0277854
0.0259062
-0.643749
0.645629
-0.0237542
0.0216639
-0.758703
0.760793
-0.0191981
0.0167532
-0.899087
0.901532
-0.0138489
0.0110084
-1.06917
1.07201
-0.0076952
0.00450584
-1.27524
1.27843
-0.000814054
-0.00276991
-1.52582
1.52941
0.00629513
-0.00981443
-1.52673
1.53025
0.0127731
-0.0157756
-1.27743
1.28044
0.0183055
-0.0208609
-1.07216
1.07471
0.0230009
-0.025162
-0.902661
0.904822
0.0270019
-0.0289009
-0.763317
0.765216
0.0305608
-0.032297
-0.649641
0.651377
0.0331273
-0.0325892
-0.550544
0.550006
0.0292781
-0.0220223
-0.42068
0.413425
0.0136065
-0.00566649
-0.220077
0.212137
0.00144516
-0.0372458
0.0358006
-0.0354201
0.034386
0.00103411
-0.0100572
0.0168119
-0.283239
0.276484
-0.0233413
0.0267517
-0.445943
0.442533
-0.027565
0.0268913
-0.551043
0.551717
-0.0251609
0.0234089
-0.647474
0.649226
-0.0213896
0.0194346
-0.762828
0.764782
-0.0171431
0.0148935
-0.903826
0.906075
-0.0122405
0.00963102
-1.07467
1.07728
-0.00655077
0.00352529
-1.2815
1.28453
3.5967e-05
-0.00352015
-1.53293
1.53642
0.0069316
-0.0102761
-1.53371
1.53705
0.0130102
-0.0157071
-1.28331
1.28601
0.0179317
-0.0201472
-1.0771
1.07932
0.0220075
-0.0239024
-0.906836
0.908731
0.0255317
-0.0272343
-0.766991
0.768693
0.0287239
-0.0301648
-0.652978
0.654419
0.0305267
-0.0292962
-0.549138
0.547907
0.0254049
-0.0182716
-0.406212
0.399079
0.0109777
-0.00454119
-0.205022
0.198585
0.00116325
-0.0345151
0.0333519
-0.033477
0.0326688
0.000808119
-0.00798273
0.0136651
-0.270294
0.264612
-0.0197168
0.0233396
-0.439006
0.435383
-0.0246508
0.0242407
-0.552296
0.552706
-0.0227901
0.0211586
-0.650972
0.652604
-0.0192453
0.0173817
-0.766696
0.76856
-0.015181
0.0130117
-0.90821
0.91038
-0.0104546
0.00795227
-1.07975
1.08225
-0.00502175
0.00216701
-1.28742
1.29027
0.00116596
-0.00440543
-1.53976
1.543
0.00756083
-0.0106377
-1.54027
1.54335
0.0131454
-0.0156106
-1.28861
1.29108
0.0176444
-0.019671
-1.08144
1.08347
0.0213643
-0.0230727
-0.910527
0.912236
0.024528
-0.0260416
-0.770288
0.771802
0.0273353
-0.0283969
-0.655665
0.656726
0.0283883
-0.0265169
-0.546371
0.5445
0.022265
-0.0154492
-0.392103
0.385288
0.00910234
-0.00374928
-0.192743
0.18739
0.000964186
-0.0323024
0.0313382
-0.031959
0.0313272
0.000631816
-0.0063726
0.0111317
-0.259419
0.25466
-0.0165859
0.0202076
-0.431757
0.428135
-0.0218542
0.0216941
-0.553015
0.553175
-0.0205132
0.018972
-0.654225
0.655766
-0.0171404
0.0153408
-0.7704
0.7722
-0.0132103
0.0111109
-0.912454
0.914553
-0.00864357
0.00624246
-1.08463
1.08703
-0.00344273
0.00072259
-1.293
1.29572
0.00244327
-0.00550689
-1.54612
1.54918
0.00846124
-0.0113013
-1.54631
1.54915
0.013589
-0.0158157
-1.29346
1.29569
0.0176383
-0.0194425
-1.08543
1.08723
0.0209443
-0.0224617
-0.913862
0.915379
0.0237559
-0.0250918
-0.773201
0.774537
0.0262389
-0.0269093
-0.65757
0.658241
0.0265469
-0.0241589
-0.542382
0.539994
0.0197221
-0.0133106
-0.378682
0.372271
0.00773647
-0.00318051
-0.182476
0.17792
0.000822227
-0.0304574
0.0296352
-0.0307768
0.0302874
0.000489404
-0.0050741
0.00903674
-0.250329
0.246366
-0.0138542
0.0173293
-0.424605
0.42113
-0.019158
0.0191778
-0.553299
0.553279
-0.0181701
0.0166478
-0.657364
0.658886
-0.0148413
0.0130836
-0.773965
0.775723
-0.0110244
0.00901039
-0.916506
0.91852
-0.00664488
0.00433726
-1.08929
1.09159
-0.00164223
-0.000964809
-1.29833
1.30093
0.00397438
-0.00685094
-1.55212
1.55499
0.00959895
-0.0122222
-1.55189
1.55451
0.0143099
-0.0163109
-1.29784
1.29984
0.0179213
-0.0194857
-1.08893
1.0905
0.0207684
-0.0220614
-0.916785
0.918078
0.0231826
-0.0243729
-0.775792
0.776982
0.0253714
-0.0257247
-0.658729
0.659082
0.0250124
-0.0222202
-0.537435
0.534643
0.0177092
-0.0117023
-0.366087
0.36008
0.00673954
-0.00277199
-0.173696
0.169728
0.000721573
-0.0288782
0.0281566
-0.0298679
0.0294999
0.000367985
-0.00397466
0.00722742
-0.242787
0.239534
-0.011385
0.0146059
-0.417805
0.414584
-0.0165259
0.0167546
-0.553219
0.552991
-0.0158929
0.0144999
-0.660422
0.661815
-0.0127231
0.0109555
-0.777463
0.779231
-0.00886571
0.00682641
-0.920429
0.922469
-0.00445675
0.00217921
-1.09378
1.09606
0.000440323
-0.00293781
-1.30341
1.30591
0.00578704
-0.00847994
-1.55773
1.56042
0.0110145
-0.0133877
-1.55701
1.55938
0.0152456
-0.0170147
-1.30178
1.30354
0.0184333
-0.0198128
-1.09201
1.09339
0.020951
-0.0221006
-0.919325
0.920475
0.0230882
-0.0241035
-0.778064
0.77908
0.0248265
-0.0248762
-0.659275
0.659325
0.0237805
-0.0206317
-0.531694
0.528545
0.01611
-0.0104839
-0.354292
0.348666
0.00600695
-0.00247861
-0.166014
0.162486
0.000651378
-0.0274839
0.0268325
-0.029195
0.028937
0.000257989
-0.00299884
0.00560396
-0.236632
0.234027
-0.00909197
0.0119519
-0.41158
0.40872
-0.0137998
0.0141073
-0.552791
0.552484
-0.0133027
0.0119783
-0.663241
0.664566
-0.0102162
0.00845058
-0.780963
0.782729
-0.00636849
0.00434876
-0.92438
0.926399
-0.00201617
-0.000213486
-1.09821
1.10044
0.00276827
-0.0051952
-1.30829
1.31072
0.00794435
-0.0105094
-1.56301
1.56557
0.0128835
-0.0150547
-1.56165
1.56382
0.0167087
-0.0182348
-1.30523
1.30676
0.0194348
-0.0205884
-1.09471
1.09586
0.0215227
-0.0224527
-0.921551
0.922481
0.0232377
-0.0240263
-0.779974
0.780763
0.0244909
-0.0242764
-0.659214
0.658999
0.0228073
-0.019379
-0.525289
0.521861
0.0148887
-0.0095908
-0.343243
0.337945
0.00548678
-0.0022778
-0.159152
0.155943
0.000606031
-0.0262202
0.0256141
-0.0287372
0.0285849
0.000152314
-0.002081
0.00406889
-0.231756
0.229768
-0.00687689
0.00931247
-0.406115
0.403679
-0.010999
0.011318
-0.552272
0.551953
-0.0105311
0.00921416
-0.665984
0.667301
-0.00741174
0.00560605
-0.784457
0.786263
-0.00349986
0.00147274
-0.928272
0.930299
0.000859459
-0.00308341
-1.10253
1.10476
0.00561003
-0.00797749
-1.31303
1.3154
0.0105951
-0.0129676
-1.56799
1.57036
0.015106
-0.0170258
-1.56586
1.56778
0.0184471
-0.0197112
-1.30821
1.30947
0.0206647
-0.02154
-1.09691
1.09778
0.0222357
-0.0229381
-0.923316
0.924018
0.0235647
-0.0242161
-0.781496
0.782147
0.0244047
-0.0239213
-0.658579
0.658095
0.0221221
-0.0184454
-0.518364
0.514687
0.0139843
-0.00895033
-0.332835
0.327801
0.00512722
-0.00214627
-0.15289
0.149909
0.000578895
-0.0250412
0.0244623
-0.0284893
0.0284434
4.59221e-05
-0.00117034
0.00254359
-0.228109
0.226736
-0.00464417
0.00658515
-0.401537
0.399596
-0.00802267
0.00831351
-0.551771
0.55148
-0.00756649
0.00628937
-0.668711
0.669988
-0.00446335
0.00259964
-0.788026
0.78989
-0.000401822
-0.0017127
-0.932203
0.934317
0.00412779
-0.00639541
-1.10687
1.10914
0.00892779
-0.0112531
-1.31765
1.31998
0.0137799
-0.0160173
-1.5726
1.57484
0.017973
-0.0196362
-1.56955
1.57122
0.0208134
-0.0218237
-1.31067
1.31168
0.0225588
-0.0232071
-1.0986
1.09925
0.0236872
-0.0241388
-0.924655
0.925107
0.0245239
-0.0249083
-0.782654
0.783039
0.0247652
-0.0239254
-0.657317
0.656477
0.0217415
-0.0177999
-0.51095
0.507008
0.0133525
-0.00852296
-0.322934
0.318104
0.0049042
-0.00207645
-0.147049
0.144221
0.000569951
-0.0239085
0.0233385
-0.0284547
0.0285194
-6.46531e-05
-0.000216507
0.000961275
-0.225692
0.224947
-0.00231686
0.0036802
-0.398001
0.396638
-0.00473205
0.00487513
-0.551413
0.55127
-0.00408597
0.00278488
-0.671386
0.672688
-0.000908436
-0.0010369
-0.791697
0.793642
0.00333707
-0.00553623
-0.936301
0.9385
0.00802131
-0.0103296
-1.11128
1.11359
0.0128777
-0.0151838
-1.32219
1.32449
0.0176417
-0.0197568
-1.57695
1.57906
0.021514
-0.0229222
-1.57274
1.57414
0.0238204
-0.0244993
-1.31258
1.31325
0.0249241
-0.0252362
-1.0998
1.10011
0.025426
-0.0255943
-0.925492
0.925661
0.0257682
-0.0258669
-0.783158
0.783257
0.0254595
-0.0241519
-0.655277
0.65397
0.0215949
-0.0174296
-0.503071
0.498906
0.0129876
-0.00829596
-0.313437
0.308745
0.00480473
-0.00205885
-0.14149
0.138744
0.000573946
-0.0227916
0.0222176
-0.0286491
0.0288504
-0.000201266
0.000766198
-0.000714163
-0.224533
0.224481
0.000162249
0.000552455
-0.395656
0.394941
-0.0011127
0.000994503
-0.551461
0.551579
-4.32336e-05
-0.00139445
-0.674207
0.675644
0.00340194
-0.00545755
-0.795532
0.797588
0.00785371
-0.010126
-0.940522
0.942794
0.0126889
-0.015065
-1.11576
1.11813
0.0176687
-0.0199864
-1.32669
1.32901
0.0223774
-0.0243403
-1.58103
1.58299
0.0258696
-0.0269842
-1.57538
1.5765
0.0275924
-0.027909
-1.31381
1.31412
0.027992
-0.0279305
-1.1003
1.10024
0.0277899
-0.0276274
-0.925727
0.925564
0.0275215
-0.0272895
-0.783014
0.782782
0.0265852
-0.024798
-0.652393
0.650606
0.0218659
-0.0174324
-0.49477
0.490337
0.0129278
-0.0082846
-0.304184
0.299541
0.00483978
-0.00210244
-0.136065
0.133328
0.000596125
-0.0216602
0.0210641
-0.0291163
0.0294521
-0.000335785
0.00186946
-0.00248011
-0.224726
0.225336
0.00281946
-0.00285328
-0.394642
0.394676
0.00288555
-0.00331847
-0.552124
0.552557
0.00440591
-0.00596046
-0.677328
0.678882
0.00811916
-0.0103463
-0.799588
0.801816
0.0129644
-0.0154511
-0.944929
0.947416
0.018238
-0.0207831
-1.1204
1.12294
0.0235072
-0.0258607
-1.33121
1.33356
0.0281909
-0.0299804
-1.58477
1.58656
0.0312547
-0.0320186
-1.5774
1.57817
0.0322952
-0.032237
-1.3143
1.31424
0.0319728
-0.0315499
-1.10003
1.09961
0.0310853
-0.0305581
-0.92524
0.924713
0.0301043
-0.0294109
-0.782128
0.781435
0.0282843
-0.0259278
-0.648628
0.646271
0.0225349
-0.0177755
-0.485938
0.481179
0.0131534
-0.00847483
-0.295012
0.290334
0.00499689
-0.00219853
-0.130635
0.127836
0.000632646
-0.0204815
0.0198489
-0.0298693
0.0303817
-0.000512347
0.0031257
-0.00452538
-0.226357
0.227757
0.00579837
-0.00668532
-0.395134
0.396021
0.0074745
-0.0083407
-0.553516
0.554382
0.00966945
-0.0113972
-0.680711
0.682439
0.01377
-0.0162339
-0.803994
0.806458
0.0191364
-0.021871
-0.949773
0.952507
0.0248962
-0.0276188
-1.12537
1.12809
0.0304922
-0.0329218
-1.33579
1.33822
0.0352562
-0.0369429
-1.5882
1.58989
0.0379788
-0.0383694
-1.5787
1.57909
0.03825
-0.0377418
-1.31399
1.31348
0.0370669
-0.036201
-1.09895
1.09809
0.0353486
-0.0343983
-0.923935
0.922985
0.0335497
-0.0322895
-0.780251
0.778991
0.0305945
-0.0275983
-0.643766
0.64077
0.0237184
-0.0185822
-0.47649
0.471354
0.0137479
-0.0089084
-0.285739
0.280899
0.00529394
-0.00235053
-0.125056
0.122113
0.000682463
-0.0192281
0.0185456
-0.0309897
0.0317306
-0.000740831
0.00465863
-0.00694689
-0.22961
0.231898
0.00926913
-0.0110653
-0.397337
0.399134
0.0127242
-0.0141924
-0.555951
0.557419
0.0159887
-0.0180661
-0.68456
0.686638
0.0208054
-0.0235914
-0.808869
0.811655
0.0268286
-0.0298519
-0.95509
0.958113
0.0331705
-0.0361242
-1.13069
1.13364
0.0391802
-0.041685
-1.34051
1.34302
0.043953
-0.0454183
-1.59137
1.59283
0.046101
-0.0460478
-1.5792
1.57915
0.0454761
-0.0444717
-1.3127
1.3117
0.0433056
-0.0419045
-1.09691
1.09551
0.0405876
-0.0391601
-0.9217
0.920272
0.0378818
-0.036072
-0.777228
0.775418
0.0338001
-0.0301337
-0.63769
0.634024
0.0256777
-0.0200207
-0.466288
0.460631
0.0148254
-0.00965934
-0.276099
0.270933
0.00577225
-0.00257271
-0.119152
0.115952
0.000747814
-0.0178731
0.0171253
-0.0325613
0.0335911
-0.00102977
0.00651298
-0.00984169
-0.23466
0.237988
0.0133746
-0.0161944
-0.401504
0.404323
0.0187979
-0.0209395
-0.559743
0.561884
0.023304
-0.0258367
-0.689206
0.691738
0.0290674
-0.0322921
-0.814402
0.817627
0.0359972
-0.039425
-0.961004
0.964432
0.0431524
-0.0464238
-1.13649
1.13976
0.0497346
-0.0523508
-1.34537
1.34799
0.0545753
-0.0558222
-1.59404
1.59529
0.0561296
-0.0555685
-1.57876
1.5782
0.0544745
-0.0528486
-1.31033
1.3087
0.0511439
-0.0491731
-1.09372
1.09175
0.0473436
-0.0453796
-0.918418
0.916454
0.0435856
-0.0411694
-0.77309
0.770674
0.0382291
-0.0337678
-0.630289
0.625827
0.0286054
-0.0222684
-0.455043
0.448706
0.0165349
-0.0108239
-0.26575
0.260039
0.00648278
-0.00288329
-0.112686
0.109087
0.000832284
-0.016385
0.0155527
-0.0346948
0.0361076
-0.00141279
0.00886939
-0.0134518
-0.241765
0.246347
0.0183846
-0.0223613
-0.407882
0.411859
0.0260129
-0.0289279
-0.565112
0.568027
0.031988
-0.0351103
-0.69486
0.697983
0.039005
-0.0428305
-0.820828
0.824654
0.0471827
-0.0511647
-0.967767
0.971749
0.0554291
-0.0590918
-1.14294
1.14661
0.0626917
-0.065419
-1.35045
1.35318
0.0675732
-0.0685409
-1.59625
1.59721
0.0684004
-0.0672165
-1.57725
1.57606
0.0654996
-0.0631955
-1.30664
1.30433
0.0608891
-0.058276
-1.08924
1.08663
0.0558941
-0.0533426
-0.913957
0.911405
0.0509167
-0.0478121
-0.767758
0.764653
0.0440947
-0.0387181
-0.621303
0.615927
0.0327209
-0.025501
-0.442439
0.435219
0.0189821
-0.012444
-0.254229
0.247691
0.00743995
-0.00328845
-0.105365
0.101213
0.000939336
-0.0147225
0.0137832
-0.0375659
0.0395281
-0.00196223
0.0121041
-0.0182752
-0.25132
0.257491
0.0248649
-0.030182
-0.416894
0.422211
0.0350765
-0.0389974
-0.572383
0.576304
0.0430033
-0.0469584
-0.701836
0.705791
0.0517714
-0.0563856
-0.828466
0.83308
0.0615311
-0.0661468
-0.975653
0.980268
0.0709742
-0.0750014
-1.15015
1.15417
0.0788092
-0.0815234
-1.35567
1.35838
0.0834204
-0.083917
-1.59779
1.59828
0.0831187
-0.0811377
-1.57438
1.5724
0.0786813
-0.0755671
-1.3015
1.29838
0.072554
-0.0692349
-1.0834
1.08008
0.0662669
-0.0631028
-0.908155
0.904991
0.059986
-0.0561141
-0.761013
0.757141
0.0515475
-0.0451268
-0.610507
0.604086
0.0381062
-0.0297086
-0.428053
0.419655
0.0220995
-0.0144392
-0.240984
0.233324
0.00858248
-0.0037579
-0.0969052
0.0920806
0.0010599
-0.012846
0.0117861
-0.0414812
0.0442937
-0.00281246
0.0168301
-0.0250845
-0.263991
0.272246
0.0336868
-0.0406033
-0.429157
0.436073
0.0470286
-0.0522422
-0.582115
0.587329
0.0575992
-0.0627921
-0.710653
0.715846
0.0688002
-0.074354
-0.837673
0.843227
0.0803553
-0.0855792
-0.984781
0.990005
0.0908682
-0.0951057
-1.15799
1.16223
0.0988827
-0.10132
-1.36071
1.36315
0.102615
-0.102299
-1.59821
1.59789
0.100537
-0.0975022
-1.56978
1.56674
0.094117
-0.0900591
-1.29465
1.29059
0.0862544
-0.08215
-1.07602
1.07191
0.0785558
-0.0747863
-0.901006
0.897236
0.0710673
-0.0663529
-0.752598
0.747883
0.0607907
-0.0530712
-0.59759
0.58987
0.0447069
-0.0347458
-0.411258
0.401297
0.0257178
-0.0166626
-0.225466
0.216411
0.00980721
-0.00424156
-0.0871019
0.0815362
0.00117915
-0.010735
0.0095559
-0.0469887
0.0512541
-0.00426539
0.0242815
-0.0354159
-0.28088
0.292014
0.0466673
-0.0557364
-0.445688
0.454757
0.0640038
-0.0707448
-0.594947
0.601688
0.0777752
-0.0844364
-0.721941
0.728602
0.0917329
-0.0981886
-0.84871
0.855165
0.104908
-0.110536
-0.99503
1.00066
0.11599
-0.120118
-1.16608
1.1702
0.123488
-0.125295
-1.36499
1.3668
0.125618
-0.124158
-1.59678
1.59532
0.121157
-0.116804
-1.56292
1.55856
0.112281
-0.107065
-1.28581
1.28059
0.102325
-0.0973501
-1.06699
1.06202
0.0930923
-0.0886245
-0.89236
0.887892
0.08424
-0.0785285
-0.742318
0.736606
0.0717363
-0.0623298
-0.581929
0.572523
0.0522442
-0.0403454
-0.391288
0.379389
0.0295994
-0.0189286
-0.207224
0.196554
0.0109832
-0.00467094
-0.075886
0.0695737
0.00127291
-0.00840514
0.00713223
-0.0551565
0.0624521
-0.0072956
0.0375513
-0.0530369
-0.304122
0.319607
0.0680673
-0.079967
-0.467969
0.479869
0.0901296
-0.0982568
-0.611309
0.619436
0.106854
-0.114782
-0.735849
0.743777
0.123001
-0.129887
-0.86131
0.868196
0.136734
-0.142208
-1.00583
1.0113
0.147237
-0.150727
-1.17367
1.17716
0.153171
-0.153903
-1.36777
1.3685
0.152868
-0.149989
-1.59291
1.59003
0.145537
-0.139713
-1.55334
1.54751
0.133935
-0.127453
-1.27461
1.26813
0.121616
-0.115533
-1.05606
1.04998
0.11037
-0.104965
-0.881965
0.876561
0.0996616
-0.0924655
-0.72964
0.722444
0.084006
-0.0725128
-0.562603
0.55111
0.0603514
-0.0461739
-0.367375
0.353198
0.0335029
-0.0211149
-0.185965
0.173577
0.0120426
-0.00500929
-0.063372
0.0563387
0.00131982
-0.00591967
0.00459985
-0.0692983
0.0733044
-0.00400602
0.0283563
-0.0418348
-0.337699
0.351177
0.0552694
-0.0660808
-0.497166
0.507977
0.0757629
-0.0848872
-0.630861
0.639986
0.0952831
-0.104635
-0.751127
0.760479
0.114989
-0.124124
-0.874122
0.883257
0.133754
-0.142194
-1.01586
1.0243
0.150833
-0.157988
-1.17958
1.18674
0.164717
-0.169561
-1.36805
1.3729
0.173017
-0.173998
-1.58591
1.5869
0.17239
-0.168696
-1.54058
1.53689
0.163953
-0.157794
-1.26079
1.25463
0.151855
-0.144682
-1.04287
1.0357
0.138236
-0.130989
-0.86928
0.862033
0.123813
-0.114136
-0.713539
0.703862
0.102092
-0.0861192
-0.538784
0.522812
0.0696835
-0.0509966
-0.338673
0.319986
0.0353009
-0.0210126
-0.161583
0.147294
0.0112511
-0.00433826
-0.0499311
0.0430182
0.000994462
-0.00338153
0.00238707
-0.0806196
0.07855
0.00206966
0.00692977
-0.0154568
-0.367422
0.37595
0.0255851
-0.0334102
-0.523327
0.531152
0.0412335
-0.0489791
-0.651661
0.659407
0.0584516
-0.0671982
-0.769401
0.778148
0.0765032
-0.0849661
-0.891851
0.900314
0.0939022
-0.101411
-1.03248
1.03999
0.109266
-0.115385
-1.1937
1.19981
0.12103
-0.124693
-1.37734
1.38101
0.126527
-0.125959
-1.58677
1.5862
0.122772
-0.117421
-1.53199
1.52664
0.111008
-0.103146
-1.24754
1.23968
0.0957363
-0.0875285
-1.02758
1.01937
0.0800924
-0.072002
-0.85229
0.8442
0.0645684
-0.0560499
-0.690128
0.681609
0.0466246
-0.0351815
-0.504604
0.493161
0.0247582
-0.0152
-0.300835
0.291277
0.00878759
-0.00422241
-0.133522
0.128957
0.00169204
-0.000378121
-0.0364312
0.0351172
-5.14474e-05
-0.00110844
0.00115989
-0.0817787
0.0788887
0.00288992
-0.00172919
-0.00301201
-0.387431
0.392172
0.00961223
-0.0154725
-0.542779
0.548639
0.0215242
-0.0282646
-0.66942
0.676161
0.0365463
-0.0441842
-0.785991
0.793629
0.0525342
-0.0599908
-0.90806
0.915516
0.0676277
-0.0743971
-1.04736
1.05412
0.0812556
-0.0866661
-1.20549
1.2109
0.0911779
-0.0938388
-1.38394
1.38661
0.094949
-0.09366
-1.58483
1.58354
0.0899306
-0.0842224
-1.52058
1.51487
0.0777009
-0.0699997
-1.2316
1.2239
0.0623671
-0.0540998
-1.0106
1.00233
0.0464033
-0.0377103
-0.834916
0.826223
0.0297111
-0.0209815
-0.668752
0.660022
0.0129148
-0.00460788
-0.479456
0.471149
-0.000788224
0.00378128
-0.280623
0.27763
-0.00458163
0.0040495
-0.12316
0.123692
-0.00294291
0.00154626
-0.0331815
0.0345782
-0.000558854
-0.000690423
0.00124928
-0.0804786
0.0776944
0.00278423
-0.00531064
0.00303374
-0.400597
0.402874
0.00117206
-0.00566302
-0.557562
0.562053
0.0109642
-0.0167336
-0.684191
0.68996
0.0239483
-0.0306363
-0.800718
0.807406
0.0379137
-0.0444131
-0.922507
0.929007
0.0514157
-0.0572028
-1.06047
1.06626
0.0632419
-0.0675764
-1.21591
1.22025
0.0714985
-0.0737936
-1.38908
1.39138
0.0745806
-0.0731384
-1.58202
1.58058
0.0699619
-0.0650882
-1.50903
1.50415
0.05938
-0.0521441
-1.21635
1.20911
0.0450276
-0.0367983
-0.99359
0.98536
0.0284187
-0.0188716
-0.815914
0.806367
0.00972271
-0.00069637
-0.647325
0.638299
-0.00612587
0.0111998
-0.460868
0.455794
-0.0130486
0.0123663
-0.271824
0.272506
-0.0105311
0.00765198
-0.122905
0.125784
-0.00505771
0.00242433
-0.0351511
0.0377845
-0.00077715
-0.00126243
0.00203958
-0.0789673
0.0765365
0.00243074
-0.00641339
0.00566636
-0.409393
0.41014
-0.00252091
-0.000891247
-0.569577
0.572989
0.00527246
-0.0105983
-0.696832
0.702157
0.0167883
-0.0227919
-0.813485
0.819488
0.0292161
-0.0349462
-0.935114
0.940844
0.0410229
-0.046237
-1.07192
1.07714
0.0514345
-0.0555305
-1.22447
1.22857
0.0590719
-0.0612163
-1.39344
1.39558
0.0620855
-0.0609803
-1.57926
1.57816
0.0583262
-0.0538918
-1.49899
1.49455
0.0487187
-0.0420659
-1.20204
1.19539
0.0351639
-0.0267478
-0.976552
0.968135
0.0183299
-0.0086815
-0.795505
0.785857
7.86762e-05
0.00805185
-0.626861
0.61873
-0.0135202
0.0167836
-0.448012
0.444749
-0.0173124
0.0152476
-0.269402
0.271467
-0.0123201
0.00878217
-0.127043
0.130581
-0.00566887
0.0026392
-0.0395446
0.0425743
-0.000820706
-0.00241287
0.00323358
-0.0776099
0.0755458
0.00206405
-0.00629772
0.00602985
-0.415387
0.415655
-0.00420264
0.00138413
-0.578971
0.58179
0.00291901
-0.00755479
-0.707759
0.712395
0.0129754
-0.0182722
-0.824769
0.830066
0.0240496
-0.0292212
-0.94626
0.951431
0.034842
-0.0394935
-1.0821
1.08675
0.0442924
-0.048144
-1.23245
1.2363
0.0515074
-0.0536215
-1.3976
1.39971
0.0545816
-0.054042
-1.57716
1.57662
0.0515918
-0.0475309
-1.48981
1.48575
0.0425102
-0.0359821
-1.18852
1.18199
0.0294324
-0.0211411
-0.959395
0.951104
0.0131264
-0.00440581
-0.775694
0.766973
-0.00314215
0.00995606
-0.609266
0.602452
-0.014206
0.0167116
-0.438732
0.436227
-0.0167473
0.014692
-0.269646
0.271701
-0.0119127
0.00845024
-0.132399
0.135861
-0.00536815
0.00250686
-0.0445018
0.0473631
-0.000773368
-0.00364592
0.00441929
-0.076611
0.0750141
0.00159693
-0.0053976
0.0054531
-0.419786
0.419731
-0.00395141
0.00183779
-0.58722
0.589333
0.00216169
-0.00638025
-0.71736
0.721579
0.0115401
-0.0161426
-0.835008
0.83961
0.0212522
-0.0258761
-0.95659
0.961214
0.0312679
-0.0355847
-1.09146
1.09578
0.040003
-0.0438167
-1.24005
1.24386
0.0475243
-0.0496805
-1.40195
1.4041
0.0508865
-0.0503818
-1.57576
1.57526
0.048326
-0.0441222
-1.48143
1.47723
0.0393779
-0.0332092
-1.17522
1.16905
0.0268611
-0.0193687
-0.94281
0.935318
0.0121282
-0.00432698
-0.757868
0.750066
-0.00190137
0.00778612
-0.594427
0.588543
-0.0115404
0.0134063
-0.431399
0.429533
-0.0135746
0.0121424
-0.27048
0.271912
-0.00985602
0.00696074
-0.137432
0.140327
-0.0044073
0.00208013
-0.0489409
0.0512681
-0.0006596
-0.00474443
0.00540403
-0.0761283
0.074893
0.00123532
-0.00426842
0.00444826
-0.423234
0.423054
-0.00306991
0.00110388
-0.594348
0.596314
0.0025964
-0.00636593
-0.725988
0.729758
0.0107849
-0.0151999
-0.844182
0.848597
0.0199267
-0.0247079
-0.965661
0.970442
0.0294306
-0.0336432
-1.10024
1.10445
0.0383063
-0.0420142
-1.24762
1.25133
0.0453875
-0.0480424
-1.40623
1.40889
0.0494621
-0.0492066
-1.5748
1.57455
0.047199
-0.0434152
-1.47312
1.46934
0.0389104
-0.0331021
-1.16253
1.15672
0.0273401
-0.0206108
-0.927781
0.921052
0.0143158
-0.00782935
-0.742368
0.735882
0.00232804
0.00257302
-0.581834
0.576933
-0.00576889
0.0077792
-0.425084
0.423074
-0.00834272
0.00751607
-0.27058
0.271407
-0.00614033
0.00430175
-0.140994
0.142833
-0.00274357
0.00131496
-0.0521978
0.0536264
-0.000439459
-0.00559367
0.00603313
-0.0761985
0.0751769
0.00102155
-0.00290743
0.00282169
-0.426305
0.426391
-0.00162423
-0.000321044
-0.600807
0.602752
0.0036186
-0.00718955
-0.733938
0.737509
0.0113676
-0.0153436
-0.852819
0.856795
0.0201735
-0.0241895
-0.974665
0.978681
0.0289407
-0.0330614
-1.10886
1.11298
0.037709
-0.0416905
-1.25507
1.25905
0.0454272
-0.0479031
-1.41134
1.41382
0.0496297
-0.0496725
-1.57418
1.57422
0.0481756
-0.0445915
-1.46536
1.46178
0.040479
-0.0351366
-1.15099
1.14565
0.0299526
-0.0239051
-0.914215
0.908168
0.0184768
-0.0127145
-0.729212
0.723449
0.00789513
-0.00341437
-0.571221
0.566741
0.000239687
0.00176483
-0.418838
0.416834
-0.00273037
0.00275311
-0.269423
0.2694
-0.00244263
0.00172308
-0.142528
0.143248
-0.00111295
0.000581788
-0.0537013
0.0542325
-0.000215862
-0.00603125
0.00624712
-0.076577
0.0758771
0.000699964
-0.00167523
0.00109369
-0.429509
0.430091
-0.000101731
-0.00193208
-0.606426
0.60846
0.00485692
-0.00824516
-0.741218
0.744607
0.0121841
-0.0162453
-0.860642
0.864704
0.0204561
-0.0246599
-0.982927
0.987131
0.0294299
-0.0334074
-1.11757
1.12154
0.0382225
-0.0422197
-1.26288
1.26688
0.0460444
-0.0490381
-1.41671
1.4197
0.0511983
-0.0514433
-1.57426
1.57451
0.050093
-0.0471519
-1.45831
1.45537
0.0435798
-0.0386807
-1.14019
1.13529
0.0339029
-0.0286446
-0.902114
0.896856
0.0234441
-0.018398
-0.71744
0.712394
0.0139991
-0.00968261
-0.561716
0.5574
0.00658477
-0.00406328
-0.412521
0.409999
0.00258835
-0.00162604
-0.266951
0.265989
0.0010391
-0.000566664
-0.14195
0.141477
0.000163466
8.95815e-05
-0.0535797
0.0533266
-0.000113187
-0.00603112
0.00614431
-0.0773894
0.076856
0.000533475
-0.000622637
6.22035e-05
-0.433009
0.43357
0.00149454
-0.00335889
-0.612064
0.613928
0.00641891
-0.00963062
-0.747877
0.751088
0.0133621
-0.0169987
-0.86845
0.872086
0.0213367
-0.025258
-0.991358
0.99528
0.0300246
-0.0344851
-1.12601
1.13047
0.0389921
-0.0433406
-1.27096
1.2753
0.0475899
-0.0506553
-1.4226
1.42566
0.0531356
-0.0540824
-1.57493
1.57588
0.0531286
-0.0507752
-1.45226
1.44991
0.0474265
-0.0430512
-1.13042
1.12604
0.0387907
-0.0338654
-0.891233
0.886308
0.0292172
-0.024482
-0.706845
0.70211
0.0203428
-0.0160786
-0.552497
0.548233
0.0127676
-0.00988782
-0.40578
0.4029
0.00762631
-0.00573726
-0.262796
0.260907
0.00413263
-0.00254772
-0.139264
0.137679
0.0013228
-0.000398853
-0.0519357
0.0510117
9.79478e-06
-0.00570153
0.00569174
-0.0784981
0.0781484
0.000349655
0.000509139
-0.00130145
-0.436725
0.437517
0.00275644
-0.00491135
-0.617283
0.619438
0.00788641
-0.0109132
-0.754195
0.757222
0.0146906
-0.0181645
-0.875713
0.879187
0.022354
-0.0264191
-0.999696
1.00376
0.0311303
-0.0355852
-1.13481
1.13926
0.0403328
-0.0447156
-1.27959
1.28398
0.0491333
-0.0529099
-1.42901
1.43278
0.0557815
-0.0569836
-1.57674
1.57794
0.0566755
-0.0546326
-1.44742
1.44538
0.0518485
-0.048038
-1.1216
1.11779
0.0439097
-0.0393094
-0.881117
0.876517
0.0349449
-0.0302922
-0.696976
0.692323
0.0263391
-0.0220016
-0.543661
0.539323
0.018511
-0.015009
-0.398438
0.394936
0.0121758
-0.00936322
-0.256907
0.254094
0.00676753
-0.00425539
-0.13453
0.132017
0.00233299
-0.000853769
-0.0490443
0.0475651
0.000142804
-0.00515329
0.00501049
-0.0798494
0.0796255
0.000223827