/*--------------------------------*- C++ -*----------------------------------*\
  =========                 |
  \\      /  F ield         | OpenFOAM: The Open Source CFD Toolbox
   \\    /   O peration     | Website:  https://openfoam.org
    \\  /    A nd           | Version:  6
     \\/     M anipulation  |
\*---------------------------------------------------------------------------*/
FoamFile
{
    version     2.0;
    format      ascii;
    class       volVectorField;
    location    "22";
    object      U;
}
// * * * * * * * * * * * * * * * * * * * * * * * * * * * * * * * * * * * * * //

dimensions      [0 1 -1 0 0 0 0];

internalField   nonuniform List<vector> 
918
(
(0.984984 -0.000755755 0)
(0.00531091 2.96626 0)
(-0.0187954 1.55811 0)
(0.979597 0.00190579 0)
(-0.00268651 1.54612 1.051e-20)
(-0.00705793 2.94854 -2.00025e-18)
(0.842539 1.16796 7.28813e-19)
(0.419527 0.161646 -8.47846e-21)
(0.999918 -0.000275529 0)
(0.080077 0.751627 0)
(-0.0551363 0.877722 0)
(0.75446 -0.010578 0)
(0.0101907 2.93152 0)
(0.00281757 2.79441 0)
(-0.000200448 3.20369 1.13922e-18)
(-0.000545874 1.42868 2.44978e-20)
(0.515593 0.0581597 5.34752e-19)
(0.222342 1.14797 6.48854e-19)
(0.964955 0.00681654 0)
(-0.000906471 1.25242 0)
(0.152772 0.241219 -4.44194e-19)
(1.00206 -0.00446676 0)
(0.999958 -0.00887075 0)
(0.975272 -0.00623374 0)
(0.667569 -0.0346271 0)
(0.0241383 2.64014 0)
(-0.0125939 2.9122 6.90242e-19)
(-0.0283389 1.57996 0)
(-0.0364535 1.72616 0)
(-0.0292337 1.57127 0)
(-0.00676896 1.86163 0)
(0.00416632 1.57071 -8.31169e-21)
(0.000167443 1.43908 0)
(-0.0222363 2.98758 -7.04244e-23)
(-0.0165333 3.00551 1.5549e-18)
(0.00230236 3.00065 0)
(0.872126 -0.00718519 0)
(0.365493 0.911055 -5.15524e-20)
(0.843642 1.17989 -1.06856e-18)
(0.982104 1.02644 9.80548e-19)
(0.705232 1.26709 -1.68089e-19)
(0.711857 1.25165 9.50112e-19)
(0.459262 0.261495 8.27196e-21)
(0.453424 0.147194 0)
(1.1714 0.524386 0)
(0.417747 0.274157 3.84445e-20)
(0.379896 0.180258 -3.98962e-20)
(0.920573 -0.00595672 0)
(1.00031 5.93944e-05 0)
(0.999912 0.000311923 0)
(1.00353 -0.00747406 0)
(1.00093 -0.00111495 0)
(1.00012 -6.11343e-05 0)
(0.0847292 1.8149 -2.85069e-19)
(0.0315775 0.903891 0)
(0.124251 0.850125 0)
(0.0405123 0.843669 0)
(0.0408098 0.675669 0)
(-0.0469972 1.59557 0)
(-0.0638672 0.924874 0)
(-0.0331287 0.744525 0)
(-0.0570431 1.06592 0)
(-0.0437904 1.00673 0)
(0.841478 -0.0066024 0)
(0.86077 0.0161431 0)
(0.775086 -0.00166183 0)
(0.850114 0.0215683 0)
(0.734862 -0.0145052 0)
(0.0139986 3.00017 7.34219e-19)
(0.0112576 3.00574 0)
(0.00641985 3.00397 0)
(0.0118986 2.99698 8.21688e-24)
(0.00835324 2.9587 -1.09123e-18)
(0.0122018 2.98297 0)
(0.00891548 2.90477 0)
(0.0211007 2.93133 1.52029e-24)
(0.00395746 2.82417 0)
(0.0263145 2.91853 0)
(-0.000910065 2.74349 0)
(0.312799 3.60685 0)
(-0.123284 3.69076 0)
(0.15443 3.29469 -1.06033e-18)
(0.00815112 3.02367 0)
(-0.0311955 1.83337 0)
(0.0133674 1.61044 -2.41656e-20)
(0.00238826 1.42528 3.74277e-20)
(0.582743 0.137952 -1.83708e-19)
(0.527973 0.0222002 -1.74717e-19)
(0.562226 0.163865 -5.52454e-19)
(0.517506 0.088739 -3.7274e-19)
(0.254143 0.926123 0)
(0.30875 1.29226 -6.46574e-19)
(0.376515 1.27765 1.06639e-18)
(0.988322 0.00813851 0)
(0.944074 0.00617235 0)
(1.00029 0.000701559 0)
(1.00252 0.00912519 0)
(1.00311 0.00900176 -9.64482e-19)
(0.992107 0.00951653 7.29027e-19)
(-0.0173453 1.42123 0)
(-0.0154049 1.23617 0)
(-0.0344892 1.58609 0)
(-0.0220645 1.4775 0)
(-0.00359332 1.29448 0)
(0.202041 0.25006 1.37179e-19)
(0.243234 0.22528 0)
(0.993676 -0.00738801 0)
(0.953948 -0.00639111 0)
(0.81658 0.02736 0)
(0.779903 0.0377601 0)
(0.7059 -0.023862 0)
(0.993623 0.00104696 0)
(0.727113 0.049329 0)
(0.577247 -0.0305937 6.88116e-19)
(-0.0401445 2.86271 4.1336e-19)
(0.0345919 2.91317 0)
(0.0437772 2.89058 0)
(0.00307016 2.69989 0)
(-0.00842013 2.98662 6.45041e-19)
(-0.0143727 2.89504 0)
(-0.0109242 2.99179 -2.01779e-18)
(-0.0117004 2.92984 6.91691e-19)
(-0.0357115 1.81134 0)
(-0.0309188 1.81112 0)
(0.00598554 1.58606 6.4373e-22)
(0.00691726 1.56295 0)
(-0.00405354 1.43722 0)
(0.937022 -0.00334963 0)
(0.856987 -0.00788943 0)
(0.867462 0.00938071 0)
(0.948402 -0.00485175 0)
(0.882469 -0.00712106 0)
(0.491523 1.11364 5.23324e-20)
(0.541141 1.18899 0)
(0.322486 0.837768 1.9731e-21)
(0.266607 0.704778 0)
(0.942261 1.06264 -2.86571e-19)
(1.0596 0.856967 5.80156e-19)
(0.47468 1.36694 0)
(0.553412 1.34293 0)
(0.580713 1.26192 0)
(0.0903819 0.136952 -1.14023e-19)
(0.486673 0.243197 0)
(0.467791 0.1476 1.0686e-19)
(1.02047 0.912625 0)
(1.08745 0.750929 0)
(1.11749 0.685428 -5.06461e-19)
(1.15001 0.591973 0)
(1.20546 0.384899 4.81028e-20)
(0.956267 -0.00708202 0)
(0.962809 -0.00776752 0)
(0.899525 -0.00698383 0)
(0.983965 -0.00772058 0)
(0.974304 -0.00756662 0)
(0.936438 -0.00602411 0)
(1.0002 0.00247855 0)
(1.00088 0.00132743 0)
(0.999965 0.00078268 0)
(0.0406972 2.03573 1.66984e-19)
(0.174779 1.73345 0)
(-0.00814081 2.10667 2.05132e-19)
(0.0162121 1.87646 -1.22458e-19)
(0.123742 1.14399 -5.38142e-19)
(0.0821858 1.00933 0)
(0.1796 0.988264 0)
(0.0127834 0.788039 0)
(-0.00324225 0.636756 0)
(-0.0541627 1.85474 2.70441e-21)
(-0.053158 1.74646 0)
(0.00730512 1.74299 1.64147e-19)
(-0.0230666 1.46308 -3.19858e-19)
(-0.00592619 0.7718 0)
(-0.0321947 0.82284 0)
(-0.017556 0.658528 0)
(-0.04965 1.19382 0)
(-0.0321278 1.1022 0)
(0.9318 0.0155786 0)
(0.860179 -0.00211111 0)
(0.920118 0.00619259 0)
(0.842209 -0.00826906 0)
(0.819619 0.00435708 0)
(0.906445 0.01548 0)
(0.885715 0.0181803 0)
(0.794107 0.0011276 0)
(0.0104997 3.06716 -6.47244e-21)
(0.0148637 3.05968 0)
(0.0124723 2.97046 0)
(0.00753457 2.87652 0)
(0.90359 4.00793 0)
(1.19993 3.39819 1.02868e-18)
(0.0847141 3.10437 0)
(-0.0141754 2.92592 0)
(-0.0392504 1.80084 0)
(-0.043307 1.82568 0)
(-0.0356389 1.81064 0)
(-0.0142457 1.85079 4.18434e-21)
(-0.0357243 1.84561 0)
(-0.0230884 1.83983 0)
(0.022949 1.4386 -3.01846e-20)
(0.04562 1.6379 -1.07111e-19)
(0.0264039 1.62159 -3.80627e-20)
(0.00847598 1.42516 0)
(0.597422 0.10831 2.71968e-19)
(0.526696 5.16395e-05 -2.654e-19)
(0.241992 1.53428 0)
(0.285094 0.659223 -2.15265e-19)
(0.181218 1.62087 -7.17808e-19)
(0.266115 1.15132 7.1802e-19)
(0.903997 0.00775773 0)
(0.967748 0.0106659 0)
(0.975587 0.0099066 0)
(0.924215 0.00710701 0)
(-0.0426215 1.30116 0)
(-0.0291284 1.37792 0)
(-0.0270694 1.18012 0)
(0.363226 0.28314 3.52479e-19)
(0.309987 0.264225 -4.29342e-19)
(0.323979 0.207633 0)
(1.11888 0.0894472 -7.12663e-21)
(1.10545 0.0426328 0)
(1.02821 0.0433455 0)
(0.930035 0.00899949 0)
(0.616868 0.0840995 0)
(0.665239 0.0608836 -1.11535e-18)
(0.539573 -0.0122284 4.32854e-19)
(0.0115161 2.97759 4.93912e-19)
(-0.0330889 2.86295 4.62349e-20)
(0.00830813 3.05306 -1.38983e-20)
(0.0154564 3.04355 5.28877e-19)
(-0.0119025 3.00005 2.30256e-20)
(-0.0122096 2.95243 -9.353e-23)
(-0.0150068 3.01336 -4.41405e-19)
(0.0139921 3.0269 3.09432e-19)
(0.00745757 3.03447 -4.95921e-19)
(0.928707 0.00209928 0)
(0.935223 -0.000354784 0)
(0.847305 -0.00669829 0)
(0.957471 0.0109486 0)
(0.944115 0.0126811 0)
(0.884489 0.00826062 0)
(0.921956 0.0143046 0)
(0.928692 0.0129165 0)
(0.845055 0.00576048 0)
(0.669973 1.42236 3.1056e-19)
(0.691041 1.53594 0)
(0.175069 0.357375 2.0483e-20)
(0.156206 0.548169 1.62274e-19)
(0.230999 0.657394 -9.00308e-20)
(0.196041 0.547648 1.63157e-19)
(0.29621 0.710523 6.69229e-19)
(0.112415 0.177752 2.09493e-19)
(0.547884 0.206543 4.01705e-19)
(0.519671 0.237013 9.91643e-20)
(0.495568 0.127681 2.01099e-19)
(1.19596 0.441676 3.2713e-19)
(1.22384 0.239865 3.43801e-19)
(-0.062968 2.11581 4.07098e-20)
(-0.0316039 1.9043 0)
(0.976182 0.0336008 0)
(0.943141 0.0219168 0)
(0.883534 -0.00184365 0)
(0.0119332 3.07489 0)
(0.0169928 2.94377 8.83722e-19)
(0.0141327 2.95685 0)
(0.00581326 2.84994 -8.77018e-19)
(0.00914885 3.08985 2.11801e-19)
(0.0119553 3.08341 0)
(0.712904 1.83676 -2.53231e-19)
(1.24419 2.65016 8.42351e-19)
(0.698799 2.0172 -1.66738e-18)
(0.0234658 2.97826 -3.81362e-19)
(0.0430324 3.00454 0)
(-0.0369985 2.88292 0)
(0.0593516 1.6717 7.89574e-21)
(0.0626809 1.66627 2.89854e-19)
(0.0404794 1.43505 -2.74873e-21)
(0.26256 1.32461 6.95586e-19)
(0.248255 0.445076 -4.79284e-19)
(0.0786427 1.93842 4.46788e-19)
(0.125359 1.81464 -5.72831e-19)
(0.220375 1.47668 9.25597e-20)
(0.0043508 3.12038 -1.25524e-18)
(0.0174297 3.11987 1.35967e-18)
(-0.00473445 2.98098 5.75889e-19)
(-0.00035226 2.97543 -5.258e-19)
(-0.0177804 2.87852 -5.86558e-19)
(0.012381 3.10037 -1.55431e-18)
(0.00555111 3.10585 1.53092e-18)
(0.197116 0.588847 0)
(0.15625 0.557945 -3.37197e-19)
(0.0726832 0.183144 1.51513e-19)
(0.318008 0.815468 6.31992e-19)
(0.174588 0.219309 -9.63304e-19)
(1.20761 0.172456 -7.34401e-20)
(1.22145 0.299011 0)
(1.20506 0.117579 1.37645e-19)
(-0.0439834 1.9927 2.12052e-21)
(-0.0481947 2.07126 0)
(-0.0258474 1.85525 0)
(0.30798 1.23407 -2.41862e-19)
(0.325076 1.04089 -5.13389e-19)
(0.204452 0.320766 8.82828e-19)
(1.00638 -0.0102974 0)
(1.00772 -0.0076783 1.76064e-19)
(-0.0394107 1.79047 0)
(-0.0454443 1.79821 0)
(1.00251 0.0035451 1.52979e-21)
(1.00321 0.00789117 3.62736e-19)
(-0.0193994 1.86241 -5.43518e-21)
(-0.0136559 1.86884 0)
(0.0463045 3.17813 2.05203e-19)
(0.385017 3.56793 0)
(1.08915 0.683281 7.21737e-20)
(1.01254 0.0112009 -2.47984e-21)
(1.02103 -0.00935149 0)
(1.00168 7.09418e-05 6.16357e-23)
(0.162861 1.30895 0)
(0.174519 2.58916 0)
(-0.207058 1.12665 0)
(-0.218821 2.64123 -2.10326e-19)
(-0.210794 2.35062 -5.53846e-20)
(1.00903 0.02033 3.36955e-21)
(1.04772 0.00317402 0)
(1.07797 0.0292344 0)
(-0.048643 1.8255 0)
(-0.0385454 1.9498 0)
(-0.0821641 1.70911 0)
(0.281712 1.46148 -4.39256e-19)
(1.01118 -0.0087375 0)
(1.00985 -0.0138098 0)
(1.00226 0.000421537 2.22566e-19)
(1.00598 -0.00533855 -2.65315e-19)
(1.00124 -0.000956317 0)
(-0.0631176 1.80605 0)
(-0.0466325 1.78564 0)
(-0.0489225 1.7988 0)
(-0.069006 1.71817 0)
(-0.0428219 1.75635 0)
(-0.0504661 1.74936 0)
(1.03243 -0.00916964 0)
(1.01927 0.0121333 -1.12618e-21)
(0.759979 1.30797 5.44305e-19)
(1.00273 0.000284481 -2.24682e-19)
(1.00371 0.00496461 2.69546e-19)
(1.00116 0.00192333 0)
(1.0118 0.00981504 2.18289e-19)
(1.00713 0.00777299 -2.72986e-19)
(1.0076 0.0118467 0)
(-0.0359108 1.94386 0)
(-0.0269644 1.90237 -1.0944e-20)
(-0.0233995 1.90721 1.03805e-20)
(1.19756 0.270012 -1.37733e-19)
(1.1313 0.0923972 0)
(0.0516854 3.08949 -5.89979e-19)
(0.0528912 2.86756 -4.43107e-20)
(0.110894 3.20288 7.55068e-19)
(0.127655 3.21624 -8.74967e-20)
(0.152051 3.26928 0)
(0.0248313 3.13856 1.47613e-19)
(0.066384 3.16261 5.84736e-19)
(0.0665148 3.18139 -2.79205e-19)
(0.0289562 3.12852 0)
(0.655616 0.331648 0)
(0.605889 0.376559 0)
(1.07981 0.710553 -2.68264e-19)
(1.04209 0.854832 4.08492e-19)
(1.13581 0.600747 0)
(1.16206 0.534854 0)
(1.01563 0.0120269 -4.00913e-19)
(1.01454 0.0126183 5.01591e-19)
(1.02529 -0.00953232 0)
(1.02385 -0.0108857 0)
(1.00686 0.00265045 0)
(1.01025 0.00360518 0)
(1.00433 0.00173234 0)
(1.00984 0.00652524 0)
(1.00751 0.00473273 0)
(1.00477 0.00520894 0)
(0.139195 1.31674 0)
(0.108804 1.21059 0)
(0.177546 1.40632 0)
(0.126939 1.39294 0)
(0.137293 2.58704 0)
(0.198046 2.64084 -2.03629e-19)
(0.111315 2.65458 0)
(0.0920295 2.645 -1.13383e-21)
(-0.000405696 2.70489 1.97219e-19)
(-0.177195 1.19259 0)
(-0.188129 1.2141 0)
(-0.167614 1.12847 0)
(-0.101715 0.998743 0)
(-0.299507 2.31719 3.645e-19)
(-0.24399 2.47545 -1.98524e-19)
(-0.215451 2.63473 -2.55404e-19)
(-0.20702 2.56408 0)
(-0.194899 2.33377 1.12259e-19)
(-0.127772 2.24077 1.26734e-19)
(-0.346964 2.28519 -3.30458e-19)
(-0.309181 2.4096 2.67684e-19)
(-0.294233 2.49694 3.45978e-19)
(1.01808 0.028809 3.94709e-19)
(1.01202 0.0177832 -4.88904e-19)
(1.01007 0.0307911 -4.1558e-19)
(0.993214 0.0208652 5.33568e-19)
(1.04851 0.0047185 0)
(1.0365 -0.0114218 0)
(1.0713 0.038999 0)
(1.05519 0.0126175 0)
(1.05392 0.00514854 0)
(1.1119 0.0765838 0)
(1.08705 0.0489319 0)
(1.09335 0.0426975 0)
(-0.0421544 1.86677 -9.25655e-22)
(-0.0635256 1.84655 0)
(-0.0450364 1.8496 0)
(-0.0492892 1.99237 -4.59788e-21)
(-0.0390104 2.01235 8.77206e-22)
(-0.113896 1.81433 4.76146e-21)
(-0.0775304 1.80482 -4.83419e-21)
(-0.0974449 1.74723 0)
(-0.0744741 1.77373 0)
(-0.0662426 1.77907 0)
(-0.108601 1.6709 0)
(-0.0816974 1.60838 0)
(0.374323 1.49008 8.30982e-19)
(0.379041 1.50251 3.22384e-19)
(0.604405 2.44854 -1.61327e-19)
(0.392152 2.5382 4.28953e-19)
(0.350796 2.10005 -5.43868e-20)
(1.0205 -0.00858198 0)
(1.01515 -0.00951879 0)
(1.01458 -0.0138527 0)
(1.00786 -0.00102934 0)
(1.00451 -0.00109973 0)
(1.00724 -0.00474469 0)
(1.01036 -0.00317177 0)
(1.01377 -0.00459467 0)
(1.02024 0.0142495 3.82835e-19)
(1.01632 0.0128886 -4.85811e-19)
(1.02123 0.0159496 -3.847e-19)
(1.01677 0.0137864 4.79789e-19)
(0.729781 1.34734 0)
(0.656192 1.39441 6.14607e-19)
(0.838048 1.21642 3.6429e-19)
(0.860678 1.2029 -4.83341e-19)
(1.15632 2.62856 -5.60643e-19)
(0.826713 0.115707 2.76212e-19)
(1.13685 0.102008 0)
(1.17292 0.187567 1.12261e-19)
(1.15705 0.162335 5.23797e-21)
(0.990556 0.127671 0)
(0.0980164 3.03197 -8.79256e-20)
(0.0963688 2.90561 -6.70598e-19)
(0.0459645 2.35833 4.43697e-19)
(0.148752 0.0329359 -2.11722e-19)
(0.351277 3.46748 -4.85597e-19)
(0.200816 3.35418 0)
(0.231398 3.41866 6.32544e-19)
(0.23722 3.09016 -2.09925e-19)
(0.272368 3.21126 0)
(0.00712396 3.12238 3.10924e-20)
(0.017338 3.13139 -3.78565e-19)
(0.016248 3.12711 5.57188e-19)
(0.0355827 3.14017 0)
(0.0339334 3.15048 0)
(1.26124 2.59867 0)
(0.504326 0.839185 -2.22789e-19)
(0.970303 1.04126 -2.09223e-19)
(0.952306 1.06438 0)
(0.799462 0.943402 5.86428e-20)
(1.03216 0.892443 3.0006e-20)
(0.445821 0.425727 -5.19136e-19)
(0.704151 0.338536 -2.45854e-20)
(0.68725 0.29197 2.1129e-19)
(0.619188 0.395949 1.65686e-20)
(0.554464 0.384225 -6.8261e-19)
(0.668926 0.353354 0)
(0.698039 0.423608 3.43757e-19)
(0.695071 0.424347 0)
(0.645957 0.38484 0)
(0.621242 0.343147 0)
(0.751072 0.608029 1.07406e-19)
(1.20056 0.2882 1.07569e-19)
(1.18144 0.426495 0)
(1.19838 0.390023 0)
(0.773659 0.201785 3.17157e-19)
(0.812226 0.535622 -1.69468e-19)
(0.742768 0.497736 2.76857e-19)
(0.909204 0.419523 -2.48295e-19)
(1.01839 0.0135473 2.61107e-19)
(1.01695 0.0133728 -2.69189e-19)
(1.01561 0.0138152 0)
(1.03369 -0.00753218 0)
(1.02951 -0.00934172 -2.38026e-19)
(1.02792 -0.0111495 2.35409e-19)
(1.0261 0.00788211 0)
(1.02489 0.0133492 0)
(1.01217 0.00412424 0)
(1.01423 0.00899549 0)
(1.01569 0.00340854 0)
(1.0147 0.00216302 0)
(0.131505 1.18693 0)
(0.0873769 1.02704 0)
(0.179556 1.42695 3.97029e-19)
(0.259454 1.46479 2.55731e-19)
(0.180383 1.45358 5.7507e-19)
(0.189181 1.44646 -9.33784e-19)
(0.164747 1.42997 0)
(0.145978 1.58659 2.25848e-19)
(0.156228 1.57828 0)
(0.342162 2.05848 7.91613e-20)
(0.322568 2.36751 2.32096e-19)
(0.13586 1.48471 -1.97545e-19)
(0.257975 1.38216 1.97569e-19)
(0.173196 1.40341 -1.59068e-19)
(0.275666 1.31567 3.5015e-19)
(0.226789 1.58311 0)
(0.249792 1.64686 -2.34938e-19)
(0.0384811 2.41712 1.53152e-19)
(-0.0112501 2.70717 0)
(0.0898788 2.43441 -2.03725e-19)
(0.0602632 2.50511 0)
(0.0846697 2.6609 -4.26948e-22)
(0.0241089 2.71169 0)
(-0.294607 1.48587 4.89978e-19)
(-0.264039 1.65314 0)
(-0.136692 1.30714 0)
(-0.220955 1.27259 -5.52346e-19)
(-0.204939 2.68576 -8.87287e-20)
(-0.087854 2.75994 -3.00327e-19)
(-0.158152 2.72135 -1.68737e-21)
(-0.441609 2.08996 -9.19297e-20)
(-0.440301 2.03545 -1.34722e-19)
(-0.171637 1.30608 0)
(-0.132719 1.3469 0)
(0.0383094 1.81096 -6.92009e-19)
(-0.0116429 1.43903 -7.59774e-19)
(-0.0764339 1.63116 9.63303e-19)
(0.177681 1.81234 0)
(-0.120935 1.91817 6.83076e-22)
(-0.097845 1.9732 -5.19373e-21)
(-0.124343 2.01402 4.05472e-21)
(-0.411598 1.97338 1.11356e-19)
(-0.211046 2.16781 1.40686e-20)
(-0.240763 2.22408 -6.85932e-20)
(1.0207 0.0183453 -2.61264e-19)
(1.01747 0.0236387 2.61096e-19)
(1.01204 0.0172007 0)
(1.00679 0.0499076 3.78303e-19)
(0.994445 0.0334714 -4.49414e-19)
(0.966916 0.0333185 5.12866e-19)
(1.00719 0.087186 -4.84475e-20)
(1.03792 -0.00888886 0)
(1.0396 -0.00688391 2.10417e-19)
(1.0322 -0.0151054 -2.121e-19)
(1.0594 0.0428076 -1.13372e-20)
(1.05432 0.0280777 1.02065e-19)
(1.05703 0.0587163 0)
(1.04968 0.0484729 -3.9032e-20)
(1.03678 0.0329116 0)
(1.03253 0.0248622 0)
(1.02926 0.0110928 0)
(1.02676 0.0127104 0)
(1.04688 0.0281773 8.08996e-20)
(1.04592 0.0185222 -1.84992e-19)
(1.04975 0.0292464 -8.02603e-20)
(1.04837 0.0299854 -9.46222e-20)
(1.06332 0.0620788 1.60257e-19)
(1.07922 0.0536034 0)
(1.07877 0.0944084 0)
(-0.113326 1.90867 4.92882e-21)
(-0.0803733 1.85173 -8.39915e-22)
(-0.0933869 1.86483 0)
(-0.0729082 1.91397 -4.93275e-21)
(-0.050411 1.87507 1.68831e-21)
(-0.0593369 1.89406 7.85212e-22)
(-0.104759 2.20537 -1.29052e-19)
(-0.127442 2.06793 2.1333e-21)
(-0.155815 2.11958 -1.68245e-20)
(-0.0574357 2.08943 4.02622e-20)
(-0.0628932 2.11284 -4.51506e-20)
(-0.15324 1.77419 -7.35527e-22)
(-0.143859 1.82209 7.62748e-21)
(0.397628 1.40131 -4.29313e-19)
(0.374958 1.35387 -4.37302e-19)
(0.621135 1.43606 -5.9226e-19)
(0.508479 1.49745 -3.20425e-19)
(0.530352 1.47463 0)
(0.604504 2.4237 1.18556e-19)
(0.673436 2.40364 2.19268e-19)
(0.410691 2.51356 7.84684e-20)
(0.396458 2.56066 -1.76124e-19)
(0.502897 2.51497 2.36448e-19)
(0.552784 2.46445 0)
(0.487976 2.51068 -3.40282e-19)
(0.250637 2.57815 5.9463e-19)
(0.360163 2.54957 -6.75735e-20)
(0.286297 2.63086 -9.09518e-19)
(0.938398 2.38437 2.02356e-19)
(0.834012 2.37912 0)
(1.01054 0.000976 8.75814e-21)
(1.01546 -0.00575427 -7.2402e-21)
(1.01801 -0.00450481 -1.30164e-19)
(1.01509 -0.00105121 1.29514e-19)
(1.01246 0.00135226 0)
(0.608782 1.28368 0)
(0.630739 1.16579 0)
(0.742412 1.0827 0)
(0.617335 1.12666 0)
(1.18805 2.64786 4.59974e-20)
(1.07538 2.38304 0)
(0.821858 2.24409 -2.05312e-21)
(0.830228 2.48449 0)
(0.914913 2.56699 1.30967e-20)
(0.945309 2.51762 -8.80475e-21)
(0.844916 0.136958 0)
(0.808327 0.151347 8.01436e-20)
(0.926628 0.130813 3.99968e-19)
(0.861601 0.101726 -1.64394e-19)
(0.844822 0.06781 -4.85463e-19)
(1.03765 0.215073 -1.97065e-19)
(0.942931 0.265516 -7.67104e-21)
(0.916206 0.303594 3.39905e-19)
(0.981135 0.209602 2.49403e-19)
(0.9296 0.168516 -4.96032e-19)
(0.893647 0.179259 6.65198e-20)
(0.919368 0.290981 -1.1743e-19)
(0.896249 0.193267 0)
(0.974106 0.158537 2.33532e-19)
(1.01635 0.176727 0)
(1.01055 0.187423 0)
(1.09217 0.112377 6.15722e-20)
(1.02692 0.161736 -1.00102e-20)
(1.03148 0.223039 -4.0894e-20)
(1.08343 0.198048 0)
(1.0237 0.0322039 1.9772e-19)
(1.04072 0.0533486 2.31423e-19)
(1.03752 0.0343721 -1.96201e-19)
(1.03689 0.0571546 -1.56472e-19)
(1.01957 0.0580495 -2.66294e-19)
(0.970743 0.131717 0)
(0.980946 0.0787858 0)
(0.965799 0.0449683 -1.85721e-19)
(0.933594 0.0628856 7.98503e-20)
(1.02725 0.0890064 2.17715e-19)
(1.04688 0.116901 -2.00642e-19)
(1.04095 0.150085 1.90242e-19)
(1.0176 0.121154 0)
(1.05868 0.10255 0)
(1.04111 0.0921305 -8.56709e-20)
(1.03551 0.0855883 -1.73353e-19)
(0.575765 1.11006 -1.21178e-19)
(0.620596 1.48055 2.16961e-19)
(1.1421 2.75687 9.74029e-20)
(1.19754 3.13013 -7.08487e-20)
(1.2495 2.7524 5.67402e-19)
(1.29501 2.72391 -2.94295e-19)
(1.26812 2.33863 -3.46155e-20)
(1.18483 3.03665 2.23585e-19)
(1.20107 2.99348 -2.42515e-19)
(1.1798 3.2837 -2.48805e-19)
(1.40216 2.9989 3.06166e-19)
(1.4149 2.9384 0)
(0.532453 0.863256 -9.89023e-21)
(0.258135 1.2458 2.85807e-19)
(0.491858 0.523461 3.32279e-19)
(0.356366 0.298449 3.90704e-19)
(0.565722 0.412548 3.81781e-19)
(0.566722 0.492071 -5.90441e-19)
(0.568509 0.494903 4.87774e-19)
(0.531487 0.453728 -2.0022e-19)
(0.489614 0.387488 4.58241e-19)
(0.786732 0.237727 -1.76565e-19)
(0.741504 0.30084 0)
(0.730079 0.23596 1.18602e-20)
(0.726936 0.507255 1.8148e-19)
(0.683457 0.477853 -6.68561e-19)
(0.648775 0.475447 2.35206e-20)
(0.646621 0.449337 0)
(0.665391 0.728818 1.28193e-19)
(0.758519 0.768759 7.18511e-20)
(0.690117 0.815722 -8.96814e-20)
(0.828053 0.782444 -1.12239e-20)
(0.878011 0.835366 1.63379e-20)
(0.885011 0.842696 -1.67602e-20)
(0.822442 0.646707 -1.81771e-19)
(0.89009 0.697057 1.0443e-20)
(0.946542 0.706339 0)
(0.941569 0.685928 3.58458e-21)
(0.977467 0.301152 5.88013e-20)
(1.10744 0.298685 -2.74419e-20)
(1.01843 0.253956 8.0188e-20)
(0.947055 0.346281 -1.31107e-19)
(0.983623 0.441226 0)
(1.06652 0.396479 0)
(0.867861 0.387148 1.11869e-20)
(0.830216 0.290193 0)
(0.854795 0.276319 1.88366e-19)
(0.871657 0.306357 9.30773e-21)
(0.90916 0.436056 6.79656e-19)
(0.849415 0.508726 1.63068e-19)
(0.859731 0.455739 -2.34003e-19)
(0.798636 0.445403 2.4818e-19)
(0.79225 0.43918 1.68896e-19)
(0.762078 0.409733 -1.65975e-19)
(1.02784 -0.00138528 2.07129e-19)
(1.01987 -3.34233e-05 0)
(1.01836 0.000821145 1.37783e-19)
(1.02291 -0.000670986 -3.09539e-19)
(1.02129 0.00350907 1.50636e-19)
(1.02059 0.0102445 -3.16978e-19)
(1.02148 0.010027 0)
(1.02033 0.0117929 -6.67175e-20)
(1.01615 0.0077782 1.67726e-19)
(1.01675 0.0104952 -8.49468e-20)
(1.01783 0.00964226 6.21004e-20)
(-0.068207 1.05844 0)
(-0.0590163 1.22851 0)
(0.0262346 1.06283 0)
(-0.0215415 0.964025 0)
(0.206661 1.35368 -8.48353e-19)
(0.202585 1.32148 2.64666e-19)
(0.209998 1.51004 1.90088e-19)
(0.216543 1.3875 -2.28315e-19)
(0.123317 1.50891 6.95505e-19)
(0.159578 1.47082 -5.23925e-19)
(0.244048 1.33222 -2.69579e-20)
(0.205226 1.25935 5.99126e-19)
(0.125728 1.1939 8.70371e-20)
(0.0846142 1.19742 8.79017e-20)
(0.118655 2.39361 2.19545e-19)
(0.107823 2.43126 0)
(0.14419 2.06649 -3.98915e-20)
(0.189001 1.75772 -1.12582e-19)
(0.200832 2.04163 2.53026e-20)
(0.212447 2.44777 0)
(0.247429 2.40542 -1.5311e-19)
(0.291903 2.40619 1.08754e-19)
(0.24265 2.00231 9.2039e-20)
(0.132318 2.17118 -6.82116e-21)
(0.112232 2.30403 0)
(-0.0241542 2.21463 6.91278e-19)
(-0.205863 2.6149 6.26889e-19)
(-0.167918 2.50536 0)
(-0.0329743 2.62134 -3.2334e-20)
(0.0181659 2.47637 -3.22684e-19)
(-0.331438 1.41167 -4.62006e-20)
(-0.278713 1.44509 6.69847e-19)
(-0.31339 1.5222 -1.47854e-19)
(-0.388572 1.51736 -2.75178e-19)
(-0.358472 1.46076 0)
(-0.299836 1.50928 0)
(-0.138435 1.56828 -3.75767e-20)
(-0.224714 1.59371 1.3503e-20)
(-0.276172 1.52444 0)
(-0.170529 1.43569 -3.79156e-20)
(-0.103092 1.49212 6.39725e-20)
(1.03768 0.00282848 0)
(1.03899 0.000785106 -1.94626e-20)
(1.04628 0.013871 -1.4559e-19)
(1.05026 0.0129493 0)
(1.04579 0.0101277 0)
(1.04035 0.00263373 -6.51062e-21)
(1.034 0.00434608 2.43494e-19)
(1.03667 0.00905346 2.92989e-19)
(1.02875 0.016255 0)
(1.02761 0.0187121 0)
(1.04078 0.0192634 1.47786e-19)
(1.03264 0.0224934 0)
(1.02914 0.0218893 0)
(-0.244056 1.94635 0)
(-0.176755 1.82909 1.03204e-21)
(-0.19269 1.91045 -2.60643e-22)
(-0.19986 1.64457 0)
(-0.230587 1.78547 -1.35416e-20)
(-0.179854 1.752 -2.20562e-21)
(-0.171809 1.69668 0)
(0.419916 1.68494 0)
(0.35264 1.28885 7.25017e-19)
(0.275757 1.3479 0)
(0.424101 1.2775 -9.2391e-19)
(0.481303 1.44123 0)
(0.443553 1.37588 4.22521e-19)
(1.02857 2.7027 -3.91318e-21)
(0.958004 2.40791 -2.55248e-19)
(0.899323 2.16565 2.82005e-19)
(0.847251 2.37259 1.06581e-19)
(0.850215 2.52011 0)
(0.912952 2.51785 0)
(0.92255 2.37848 0)
(0.900377 2.35861 -3.98132e-19)
(0.703295 2.5084 1.63174e-20)
(0.808701 2.49177 -1.02184e-20)
(0.816308 2.4669 7.81414e-21)
(0.691898 2.38856 0)
(0.79707 2.37869 0)
(0.761111 2.39211 -2.18737e-19)
(0.776176 2.50061 0)
(0.570422 1.06041 0)
(0.500402 0.906813 -3.87002e-20)
(0.501251 0.966471 -6.46271e-22)
(0.483939 1.08934 0)
(0.475386 1.0106 6.47907e-20)
(0.729051 0.860468 1.21839e-20)
(0.749476 0.997341 0)
(0.72515 0.974566 -6.54332e-20)
(0.615341 1.0151 0)
(0.603119 0.932452 0)
(1.15623 2.78531 7.04121e-20)
(1.13158 2.84613 1.35229e-19)
(0.92188 2.3861 -3.12797e-19)
(0.897072 2.3598 4.51265e-20)
(1.12313 2.75989 0)
(1.07463 2.72942 -5.43414e-20)
(1.08833 2.50839 -5.25465e-20)
(0.983262 2.24329 -2.74548e-20)
(0.48858 1.37347 0)
(0.495028 1.08664 1.06624e-19)
(0.549944 1.16042 0)
(0.864161 0.205035 0)
(0.821124 0.175695 0)
(0.77173 0.16875 0)
(0.861252 0.211348 -2.95225e-19)
(0.807936 0.209494 1.8452e-19)
(0.940416 0.0551316 -1.64676e-19)
(0.951042 0.103494 0)
(0.919828 0.110283 7.48361e-20)
(0.887754 0.0710894 3.06168e-19)
(0.877406 0.0532415 -1.87634e-19)
(1.10482 3.37838 -9.4973e-19)
(1.16695 3.30006 0)
(1.12676 3.46449 -2.04375e-18)
(0.665158 3.61055 1.72874e-18)
(1.03857 3.0963 4.39183e-19)
(0.511308 0.854889 1.85676e-19)
(0.500468 0.822687 0)
(0.399515 0.556722 -7.92017e-20)
(0.455423 0.695091 3.6237e-19)
(0.519044 0.531845 -1.07985e-19)
(0.518438 0.545715 1.23571e-19)
(0.678739 0.534948 2.42286e-19)
(0.699514 0.555987 0)
(0.640938 0.62418 0)
(0.605232 0.562267 0)
(0.949232 0.599206 -5.46338e-20)
(0.898086 0.545989 -1.56006e-19)
(0.921642 0.582237 4.57393e-20)
(0.96413 0.501963 -1.11426e-19)
(1.00903 0.473527 0)
(1.02474 0.583701 2.77529e-21)
(0.821795 0.3996 -3.76748e-19)
(0.818073 0.389661 -4.49622e-19)
(0.781893 0.391022 2.95375e-19)
(0.777679 0.356613 -3.36472e-19)
(0.822565 0.308092 -2.48389e-19)
(0.78436 0.311268 3.05389e-19)
(1.02598 0.00385258 -1.54362e-19)
(1.02594 0.00342881 3.13049e-19)
(1.0302 -0.0013064 1.96361e-19)
(1.03117 -0.00122603 -2.36405e-19)
(1.03275 0.000787232 0)
(1.031 0.00112299 -3.82169e-19)
(0.181031 1.7822 -1.04503e-19)
(0.163502 1.73582 0)
(0.190197 1.77793 -5.82834e-19)
(0.192129 1.75492 5.47456e-19)
(0.198262 1.61245 -3.49793e-19)
(0.265747 1.62938 0)
(-0.403105 1.96226 0)
(-0.362407 1.72347 1.78712e-20)
(-0.30777 1.70964 -1.61817e-20)
(-0.260898 1.80138 -1.50855e-22)
(-0.269446 1.96693 1.12326e-20)
(-0.317229 1.97876 -1.13651e-20)
(0.485377 1.38275 4.16073e-19)
(0.493685 1.379 -4.44668e-19)
(0.43183 1.28193 4.72859e-19)
(0.427329 1.29731 -2.67617e-20)
(0.600359 1.29112 0)
(0.536451 1.37129 5.52652e-19)
(0.541937 1.39054 -5.34659e-19)
(0.463209 1.25578 -4.47873e-19)
(0.497309 1.22705 0)
(0.559347 1.20023 0)
(0.680394 2.47187 -2.40992e-20)
(0.671295 2.48127 5.34906e-19)
(0.730417 2.49555 -3.66132e-19)
(0.63733 2.47307 -1.13458e-19)
(0.557572 2.5813 8.00113e-20)
(0.495368 2.53538 -2.52717e-19)
(0.969301 2.3789 -1.54231e-19)
(1.01175 2.40797 0)
(0.913027 2.15312 -1.91858e-19)
(1.04339 2.7094 0)
(1.04245 2.69321 0)
(0.628294 2.33801 3.71019e-19)
(1.12233 3.08603 4.49424e-19)
(1.01296 3.00056 -5.42946e-19)
(0.349877 0.922181 0)
(0.380943 0.846989 -1.31174e-19)
(0.553649 0.761362 -5.22178e-20)
(0.404062 2.19375 0)
(0.420402 2.75886 -3.07806e-19)
(0.433305 2.50456 0)
(0.668826 0.676738 -2.7002e-19)
(0.720388 0.658495 3.75493e-19)
(0.737198 0.630994 -3.74422e-19)
(0.670312 0.646586 -4.02086e-20)
(0.718693 0.593899 -1.69533e-19)
(0.980758 2.78455 -3.40425e-19)
(1.01467 2.78277 2.58271e-19)
(0.588082 2.28416 -1.80156e-19)
(0.620958 1.77317 7.58165e-20)
(0.713357 1.90716 5.16678e-20)
(0.979923 2.43252 -8.51568e-20)
(0.977019 2.39728 -1.11862e-19)
(0.671823 1.84838 -1.71652e-21)
(0.467068 1.35185 -6.55285e-20)
)
;

boundaryField
{
    wall-4
    {
        type            noSlip;
    }
    velocity-inlet-5
    {
        type            fixedValue;
        value           uniform (1 0 0);
    }
    velocity-inlet-6
    {
        type            fixedValue;
        value           uniform (0 3 0);
    }
    pressure-outlet-7
    {
        type            zeroGradient;
    }
    wall-8
    {
        type            noSlip;
    }
    frontAndBackPlanes
    {
        type            empty;
    }
}


// ************************************************************************* //
