/*--------------------------------*- C++ -*----------------------------------*\
  =========                 |
  \\      /  F ield         | OpenFOAM: The Open Source CFD Toolbox
   \\    /   O peration     | Website:  https://openfoam.org
    \\  /    A nd           | Version:  6
     \\/     M anipulation  |
\*---------------------------------------------------------------------------*/
FoamFile
{
    version     2.0;
    format      ascii;
    class       surfaceScalarField;
    location    "51";
    object      phi;
}
// * * * * * * * * * * * * * * * * * * * * * * * * * * * * * * * * * * * * * //

dimensions      [0 3 -1 0 0 0 0];

internalField   nonuniform List<scalar> 
17370
(
-0.0900017
0.0898519
0.289161
-0.0714667
0.0537579
0.364484
-0.0381257
0.0276974
0.426596
-0.0196464
0.0146141
0.504284
-0.0107729
0.00828333
0.601892
-0.00628483
0.00490992
0.720432
-0.00374809
0.00290898
0.863746
-0.00216817
0.00160902
1.03601
-0.00109213
0.000679515
1.24292
-0.000271604
-0.000118902
1.49158
0.000496815
-0.000903049
1.4916
0.00129782
-0.00178694
1.24318
0.00231838
-0.00303064
1.03635
0.00384941
-0.0049969
0.864054
0.00636462
-0.00835814
0.721051
0.0108431
-0.0146786
0.60305
0.0197058
-0.0277512
0.507485
0.0381744
-0.0537995
0.431793
0.0715009
-0.0898747
0.365149
0.0900152
0.198996
-0.128132
0.0882177
0.0399143
-0.364594
0.353369
-0.074684
0.0859095
-0.446474
0.454314
-0.0844117
0.0765713
-0.521188
0.529895
-0.0684778
0.0597713
-0.612786
0.621561
-0.0515867
0.0428113
-0.726891
0.734156
-0.0353539
0.0280884
-0.867471
0.872582
-0.0224919
0.0173816
-1.03847
1.04192
-0.0135759
0.0101295
-1.2446
1.24703
-0.00752125
0.00509143
-1.49263
1.4946
-0.00314757
0.00117487
-1.4925
1.49422
0.000504448
-0.00222687
-1.24398
1.24586
0.00412813
-0.00601024
-1.03751
1.04005
0.00836714
-0.0109021
-0.866103
0.86984
0.014266
-0.0180031
-0.724394
0.729943
0.0230501
-0.0285991
-0.608701
0.616119
0.0358195
-0.0432372
-0.514901
0.523047
0.0519697
-0.060116
-0.439859
0.44792
0.0687824
-0.0768438
-0.375299
0.376746
0.0846476
-0.0860948
-0.257335
0.222488
0.0748102
-0.0399635
-0.0685075
0.0586768
0.00983063
-0.0518395
0.0584312
-0.374115
0.367523
-0.0575235
0.0537778
-0.453586
0.457332
-0.0486945
0.0447488
-0.527938
0.531883
-0.0409161
0.0372837
-0.621552
0.625185
-0.0331891
0.0291199
-0.735335
0.739404
-0.0245566
0.0204024
-0.874325
0.878479
-0.0160618
0.0123723
-1.04348
1.04717
-0.0086406
0.00547216
-1.24855
1.25172
-0.00214776
-0.000924767
-1.49665
1.49973
0.00397258
-0.00723556
-1.49721
1.50047
0.010315
-0.0139256
-1.25008
1.25369
0.0174944
-0.0216988
-1.04594
1.05014
0.0257342
-0.0301805
-0.877777
0.882223
0.0341571
-0.0381626
-0.739914
0.743919
0.0417193
-0.0454726
-0.626787
0.630541
0.0493503
-0.0543688
-0.534822
0.53984
0.0580447
-0.0588637
-0.457485
0.458304
0.0521684
-0.0319777
-0.33577
0.315579
0.00988439
-0.0683594
0.058475
-0.0529219
0.0489217
0.00400015
-0.0331936
0.043753
-0.35808
0.347521
-0.0474637
0.0468453
-0.459265
0.459884
-0.043798
0.0404527
-0.535781
0.539126
-0.0366883
0.0333914
-0.628503
0.6318
-0.0299618
0.0269381
-0.74262
0.745643
-0.0236891
0.0205916
-0.881987
0.885085
-0.0170721
0.0137028
-1.05074
1.05411
-0.00992045
0.00639007
-1.25515
1.25868
-0.00242893
-0.00136281
-1.50323
1.50703
0.00512439
-0.00899568
-1.50414
1.50802
0.0124045
-0.016023
-1.25744
1.26106
0.0192274
-0.0225585
-1.05395
1.05728
0.0254886
-0.0285679
-0.885725
0.888805
0.031454
-0.0347497
-0.747188
0.750484
0.0379343
-0.0415841
-0.634334
0.637984
0.0448316
-0.0477673
-0.544158
0.547094
0.0482689
-0.0443931
-0.456602
0.452726
0.0336363
-0.0162042
-0.296231
0.278799
0.00406662
-0.0526605
0.0485938
-0.0458392
0.0433385
0.00250077
-0.0228444
0.0332426
-0.336815
0.326417
-0.0390826
0.0401129
-0.45956
0.45853
-0.038936
0.0366597
-0.54184
0.544116
-0.0340046
0.0314206
-0.634841
0.637425
-0.0283718
0.0254862
-0.748676
0.751562
-0.0222364
0.019255
-0.888024
0.891006
-0.0159626
0.0128743
-1.05723
1.06032
-0.00936036
0.0059621
-1.26212
1.26552
-0.00200915
-0.0018675
-1.5109
1.51477
0.00570414
-0.0095381
-1.51191
1.51575
0.0127767
-0.0160772
-1.26451
1.26781
0.0189498
-0.0219945
-1.06038
1.06343
0.0247534
-0.0277749
-0.89187
0.894891
0.0304729
-0.0333385
-0.753704
0.756569
0.0357704
-0.0382716
-0.641063
0.643564
0.0404149
-0.0414167
-0.54891
0.549912
0.0402047
-0.0340995
-0.447462
0.441357
0.023412
-0.0102159
-0.2636
0.250404
0.00258278
-0.0454372
0.0428544
-0.0412579
0.0394847
0.00177321
-0.0167914
0.0260673
-0.316543
0.307267
-0.0326981
0.0348565
-0.456917
0.454758
-0.0344518
0.0327942
-0.546083
0.54774
-0.0306275
0.0285451
-0.639716
0.641798
-0.0261283
0.0237447
-0.75419
0.756574
-0.0209035
0.0181324
-0.893883
0.896655
-0.0149193
0.0118724
-1.06335
1.06639
-0.00840455
0.00509496
-1.26883
1.27214
-0.0012722
-0.0024574
-1.51856
1.52229
0.00613682
-0.00980881
-1.51949
1.52316
0.0129157
-0.0161125
-1.27106
1.27426
0.0188854
-0.0217819
-1.06646
1.06935
0.0242652
-0.0268084
-0.897726
0.900269
0.0289469
-0.0311256
-0.759034
0.761213
0.033013
-0.0349824
-0.645729
0.647698
0.0364477
-0.0366165
-0.550445
0.550613
0.0341798
-0.0271621
-0.434717
0.427699
0.0174979
-0.00738178
-0.238899
0.228783
0.00187316
-0.0406834
0.0388102
-0.0379562
0.0366201
0.0013361
-0.012837
0.020812
-0.298649
0.290674
-0.0275945
0.0305422
-0.45218
0.449232
-0.030768
0.0296656
-0.549159
0.550261
-0.027688
0.025788
-0.64382
0.64572
-0.0236092
0.0214934
-0.758793
0.760908
-0.0190023
0.0165395
-0.899202
0.901665
-0.0136173
0.0107552
-1.06931
1.07217
-0.00741194
0.00418859
-1.27537
1.2786
-0.000459271
-0.00315643
-1.52593
1.52954
0.00670967
-0.0102518
-1.52677
1.53031
0.0132226
-0.0162265
-1.2774
1.2804
0.0187452
-0.0212721
-1.07209
1.07462
0.0233766
-0.0254947
-0.902579
0.904697
0.0273005
-0.0291748
-0.763219
0.765093
0.0308271
-0.032566
-0.649534
0.651273
0.0333871
-0.0328306
-0.550426
0.549869
0.0294862
-0.0221762
-0.42048
0.41317
0.0137044
-0.00571082
-0.21983
0.211837
0.00145746
-0.0371716
0.0357141
-0.0354518
0.03442
0.00103181
-0.010046
0.0167937
-0.28334
0.276592
-0.0233141
0.0267174
-0.44604
0.442637
-0.0275259
0.0268475
-0.551144
0.551823
-0.0251119
0.02335
-0.647593
0.649355
-0.0213057
0.0193126
-0.762955
0.764949
-0.0169664
0.014663
-0.903977
0.906281
-0.0119522
0.00929333
-1.07486
1.07752
-0.00616249
0.00309787
-1.2817
1.28477
0.000498058
-0.00400514
-1.53309
1.53659
0.00743469
-0.0107972
-1.53377
1.53713
0.0135482
-0.0162597
-1.28328
1.28599
0.0184939
-0.0207155
-1.077
1.07922
0.0225737
-0.0244559
-0.906706
0.908588
0.0260624
-0.0277271
-0.766866
0.768531
0.0291826
-0.0305898
-0.652862
0.654269
0.0309188
-0.0296436
-0.548964
0.547689
0.0256932
-0.0184794
-0.405883
0.39867
0.0111085
-0.00460018
-0.204656
0.198148
0.00117975
-0.0344123
0.0332325
-0.0335126
0.0327065
0.00080607
-0.00797882
0.0136578
-0.27041
0.264731
-0.0196979
0.0233027
-0.439126
0.435521
-0.0245914
0.0241615
-0.552415
0.552845
-0.022692
0.0210396
-0.651118
0.652771
-0.0190926
0.0171909
-0.766893
0.768794
-0.0149465
0.0127401
-0.908463
0.91067
-0.0101403
0.00759629
-1.08003
1.08258
-0.00461223
0.00169975
-1.2877
1.29061
0.0017079
-0.00502097
-1.53998
1.54329
0.00824077
-0.0113658
-1.54036
1.54349
0.0138975
-0.0163684
-1.28859
1.29106
0.0183908
-0.020388
-1.08135
1.08335
0.0220454
-0.0237193
-0.910388
0.912062
0.0251486
-0.0266331
-0.770113
0.771598
0.0279077
-0.0289546
-0.655474
0.656521
0.0289204
-0.0269926
-0.54609
0.544162
0.0226591
-0.0157305
-0.391595
0.384666
0.00927785
-0.00382781
-0.19222
0.18677
0.000985993
-0.0321632
0.0311772
-0.031997
0.0313655
0.00063158
-0.0063856
0.0111522
-0.259537
0.25477
-0.0166073
0.0202196
-0.431912
0.428299
-0.021844
0.0216548
-0.553196
0.553385
-0.0204368
0.0188574
-0.654443
0.656022
-0.0169803
0.0151359
-0.770659
0.772503
-0.0129527
0.0108033
-0.912768
0.914917
-0.00827181
0.00580213
-1.085
1.08747
-0.00291764
0.000118967
-1.2934
1.2962
0.0031309
-0.00626541
-1.54647
1.54961
0.00928472
-0.0121896
-1.54649
1.54939
0.0145262
-0.0167907
-1.29345
1.29572
0.0186299
-0.0204298
-1.08529
1.08709
0.021908
-0.023388
-0.913666
0.915146
0.0246453
-0.0259426
-0.772998
0.774296
0.0270609
-0.0276942
-0.65734
0.657973
0.027297
-0.0248228
-0.541972
0.539497
0.020263
-0.0136891
-0.377925
0.371351
0.00796892
-0.00328265
-0.181741
0.177055
0.000849829
-0.030271
0.0294211
-0.0308135
0.0303232
0.000490317
-0.00510456
0.009086
-0.250423
0.246442
-0.0139132
0.0173833
-0.424768
0.421298
-0.0191963
0.0191999
-0.553529
0.553525
-0.0181743
0.016627
-0.657659
0.659206
-0.0147696
0.012943
-0.774325
0.776152
-0.0107915
0.008687
-0.916951
0.919055
-0.00621993
0.00381884
-1.08981
1.09222
-0.00101951
-0.00168629
-1.29889
1.30159
0.00480702
-0.00778729
-1.55263
1.55561
0.0106269
-0.0133261
-1.55218
1.55488
0.0154658
-0.0175049
-1.29788
1.29992
0.0191332
-0.0207047
-1.08882
1.09039
0.0219892
-0.023288
-0.916568
0.917867
0.0244089
-0.0255686
-0.775541
0.7767
0.0265098
-0.0267977
-0.65841
0.658698
0.0260183
-0.0230959
-0.53681
0.533888
0.0184155
-0.0121926
-0.364974
0.358751
0.00703827
-0.00290164
-0.172678
0.168542
0.000756134
-0.0286299
0.0278737
-0.0299006
0.0295295
0.000371068
-0.00403221
0.00732453
-0.24283
0.239537
-0.0115145
0.0147391
-0.41797
0.414745
-0.0166276
0.0168033
-0.553502
0.553326
-0.0158704
0.0144078
-0.660797
0.66226
-0.0125561
0.0107215
-0.777961
0.779795
-0.00855648
0.0064414
-0.921054
0.923169
-0.00397253
0.0015881
-1.0945
1.09689
0.00116463
-0.00379654
-1.30419
1.30682
0.00679874
-0.00962998
-1.55846
1.56129
0.0122911
-0.0147858
-1.55745
1.55994
0.0167403
-0.0185843
-1.30189
1.30373
0.0200418
-0.0214289
-1.09193
1.09332
0.0225461
-0.0236691
-0.91911
0.920233
0.0246361
-0.0256192
-0.777789
0.778772
0.026309
-0.0262961
-0.658843
0.65883
0.0251225
-0.021803
-0.530778
0.527458
0.017048
-0.0111268
-0.352708
0.346787
0.00639417
-0.00264466
-0.164631
0.160882
0.000695062
-0.0271604
0.0264653
-0.0292191
0.0289544
0.000264719
-0.00309307
0.00576398
-0.236579
0.233908
-0.00931569
0.0122071
-0.411714
0.408822
-0.014049
0.0143178
-0.553173
0.552904
-0.0134438
0.0120386
-0.663777
0.665182
-0.0101744
0.00830566
-0.781615
0.783484
-0.00610081
0.00395888
-0.925181
0.927322
-0.00147592
-0.000905967
-1.09916
1.10154
0.00363951
-0.00623593
-1.30935
1.31195
0.00917235
-0.0119054
-1.56402
1.56675
0.0144316
-0.0167481
-1.56232
1.56464
0.0185159
-0.0201407
-1.30548
1.30711
0.0213957
-0.0225659
-1.09467
1.09584
0.0234929
-0.0244302
-0.921321
0.922258
0.0252487
-0.0260643
-0.779673
0.780489
0.0264847
-0.026216
-0.658679
0.658411
0.0246065
-0.0209172
-0.523974
0.520285
0.0161018
-0.0104106
-0.341021
0.33533
0.00597438
-0.00248353
-0.157296
0.153805
0.000658881
-0.0258015
0.0251426
-0.028747
0.0285831
0.000163908
-0.00222473
0.00431304
-0.231552
0.229464
-0.00722312
0.00971439
-0.406166
0.403674
-0.0114042
0.0116821
-0.55272
0.552442
-0.0108178
0.00941428
-0.66669
0.668094
-0.0074954
0.00556243
-0.78534
0.787273
-0.00328996
0.00109413
-0.929347
0.931543
0.00143895
-0.00385512
-1.10381
1.10623
0.00660443
-0.0091831
-1.31445
1.31703
0.0120499
-0.0146629
-1.56937
1.57198
0.0170287
-0.0191525
-1.56683
1.56896
0.0207383
-0.0221552
-1.30865
1.31006
0.023211
-0.024152
-1.09698
1.09792
0.0248763
-0.0256156
-0.92315
0.92389
0.0262827
-0.0269608
-0.78122
0.781898
0.0270917
-0.0264802
-0.657919
0.657307
0.0244632
-0.0204236
-0.516469
0.512429
0.0155313
-0.00998612
-0.329762
0.324217
0.00573749
-0.00240105
-0.150427
0.14709
0.000643812
-0.0245056
0.0238618
-0.0284761
0.0284138
6.22609e-05
-0.00137704
0.00289525
-0.227682
0.226164
-0.00514659
0.00717402
-0.401451
0.399423
-0.00861802
0.0088443
-0.552294
0.552068
-0.00797635
0.00656932
-0.669619
0.671026
-0.00458143
0.00255522
-0.789195
0.791221
-0.000160903
-0.0021484
-0.933637
0.935946
0.00479387
-0.00728976
-1.10855
1.11105
0.0100922
-0.0126824
-1.31951
1.3221
0.0155141
-0.0180426
-1.57448
1.57701
0.0202673
-0.0221938
-1.57094
1.57287
0.0235808
-0.0247752
-1.31138
1.31257
0.0256336
-0.0263559
-1.09887
1.09959
0.0268694
-0.0273937
-0.924602
0.925126
0.0278854
-0.0283465
-0.782408
0.782869
0.0281893
-0.0271718
-0.656439
0.655422
0.024715
-0.0203054
-0.508272
0.503863
0.0152985
-0.00981057
-0.318762
0.313274
0.00565277
-0.0023831
-0.143827
0.140558
0.00064576
-0.0232332
0.0225875
-0.0284096
0.0284564
-4.67861e-05
-0.000499046
0.0014405
-0.224956
0.224015
-0.00300494
0.00449963
-0.397703
0.396208
-0.00558275
0.00565319
-0.552046
0.551976
-0.00470104
0.00321548
-0.672602
0.674088
-0.0011167
-0.00103469
-0.793232
0.795384
0.00356907
-0.00599767
-0.938138
0.940566
0.00876081
-0.0113503
-1.11344
1.11603
0.0142348
-0.0168711
-1.3246
1.32724
0.0197049
-0.0221712
-1.57944
1.58191
0.0242707
-0.0260087
-1.57467
1.5764
0.027192
-0.0281344
-1.31365
1.31459
0.0287459
-0.0291956
-1.1003
1.10075
0.0294685
-0.029748
-0.925627
0.925907
0.0300495
-0.0302507
-0.783057
0.783258
0.0298312
-0.0283309
-0.654127
0.652626
0.0254018
-0.0205906
-0.499361
0.494549
0.015408
-0.0098754
-0.30784
0.302308
0.00571269
-0.00242693
-0.137325
0.134039
0.000664367
-0.0219507
0.0212864
-0.0285595
0.0287237
-0.000164187
0.000430431
-0.000103417
-0.223398
0.22307
-0.000724923
0.00161335
-0.395053
0.394164
-0.00223705
0.00206966
-0.552187
0.552355
-0.000968611
-0.000658154
-0.675804
0.677431
0.0029226
-0.0052473
-0.797522
0.799847
0.00797641
-0.0105774
-0.942875
0.945476
0.0135211
-0.0162582
-1.11852
1.12126
0.0192715
-0.021975
-1.32979
1.33249
0.0248055
-0.0271847
-1.58426
1.58663
0.0291205
-0.0306287
-1.57799
1.5795
0.0315819
-0.0322588
-1.3154
1.31608
0.0326271
-0.0328113
-1.10119
1.10137
0.0328326
-0.0328498
-0.926162
0.92618
0.0329427
-0.0328214
-0.783098
0.782977
0.032077
-0.030008
-0.650884
0.648815
0.0265578
-0.0212822
-0.489651
0.484376
0.0158456
-0.0101632
-0.29679
0.291107
0.00590418
-0.00252594
-0.130758
0.12738
0.000697498
-0.0206257
0.0199283
-0.028967
0.0292715
-0.000304447
0.00143277
-0.00175528
-0.223102
0.223425
0.00176841
-0.00159021
-0.393636
0.393458
0.00155065
-0.00205276
-0.552893
0.553395
0.00334998
-0.00514998
-0.67932
0.68112
0.00762107
-0.0101687
-0.802156
0.804704
0.0131619
-0.0160048
-0.947976
0.950819
0.0191978
-0.0221329
-1.12391
1.12684
0.0253146
-0.0281193
-1.3351
1.33791
0.0309909
-0.0333199
-1.58889
1.59122
0.0351152
-0.0363824
-1.58083
1.5821
0.037077
-0.037428
-1.31659
1.31695
0.0375038
-0.0373807
-1.1015
1.10138
0.0371269
-0.0368619
-0.926147
0.925882
0.0367292
-0.0361606
-0.782396
0.781828
0.0349808
-0.0322684
-0.646564
0.643852
0.0282236
-0.022404
-0.479014
0.473194
0.0166202
-0.0106729
-0.285398
0.279451
0.00622409
-0.00267807
-0.123974
0.120428
0.0007444
-0.0192297
0.0184853
-0.0296475
0.0301233
-0.000475828
0.00269404
-0.00375546
-0.224129
0.22519
0.00465167
-0.00528238
-0.393662
0.394293
0.00596657
-0.00692247
-0.554413
0.555369
0.00852748
-0.0105849
-0.683246
0.685303
0.0133552
-0.016193
-0.807229
0.810067
0.0195052
-0.0226268
-0.953554
0.956676
0.0261033
-0.0292695
-1.12969
1.13286
0.0326622
-0.035597
-1.34062
1.34356
0.0385114
-0.0407611
-1.59341
1.59566
0.0423629
-0.0433443
-1.58316
1.58414
0.0437331
-0.0437457
-1.31711
1.31712
0.0434973
-0.0430219
-1.10114
1.10067
0.0424505
-0.0418607
-0.9255
0.92491
0.0414062
-0.040381
-0.780771
0.779746
0.0386609
-0.0352104
-0.641005
0.637554
0.0304765
-0.023996
-0.467278
0.460798
0.017747
-0.0114074
-0.273431
0.267091
0.00667172
-0.00288224
-0.116824
0.113035
0.000804657
-0.0177354
0.0169308
-0.0306779
0.0313713
-0.00069344
0.00417966
-0.00612295
-0.226694
0.228637
0.00807007
-0.00958772
-0.395348
0.396866
0.0111065
-0.0126513
-0.557015
0.55856
0.0147224
-0.0171423
-0.687773
0.690193
0.0203228
-0.0235303
-0.812884
0.816092
0.0272385
-0.0307073
-0.95969
0.963159
0.034544
-0.0380025
-1.13594
1.1394
0.0416471
-0.0447217
-1.3464
1.34947
0.0476597
-0.049791
-1.59774
1.59987
0.051149
-0.0517794
-1.58488
1.58551
0.0517872
-0.051405
-1.3169
1.31651
0.0507838
-0.0499071
-1.1
1.09912
0.0489737
-0.0480032
-0.924133
0.923163
0.0471326
-0.0456218
-0.77821
0.776699
0.0432398
-0.0389227
-0.634002
0.629685
0.0333686
-0.0260818
-0.454199
0.446912
0.0192333
-0.0123639
-0.260631
0.253762
0.00724106
-0.00313356
-0.109158
0.10505
0.000876135
-0.0161174
0.0152413
-0.032142
0.0331182
-0.000976231
0.0060434
-0.00906197
-0.231042
0.23406
0.0122437
-0.0148139
-0.398966
0.401536
0.0172969
-0.0195339
-0.56096
0.563197
0.0221755
-0.0250562
-0.69309
0.695971
0.0287433
-0.0324199
-0.819282
0.822959
0.0366493
-0.0405787
-0.966549
0.970478
0.0448753
-0.0486849
-1.14279
1.1466
0.0526127
-0.0558298
-1.35243
1.35565
0.058776
-0.0607481
-1.60181
1.60378
0.0617927
-0.0619776
-1.58585
1.58604
0.0615361
-0.0606555
-1.31578
1.3149
0.0595967
-0.058266
-1.09794
1.09661
0.0569313
-0.0555463
-0.921931
0.920546
0.0541418
-0.052025
-0.774629
0.772512
0.0488446
-0.0434926
-0.625282
0.61993
0.0369603
-0.0286902
-0.43949
0.43122
0.0210839
-0.0135335
-0.246725
0.239175
0.00792044
-0.00342358
-0.10083
0.096333
0.000955268
-0.0143554
0.0134001
-0.0341633
0.0355344
-0.00137112
0.0085122
-0.0128575
-0.237528
0.241873
0.0175199
-0.0213207
-0.404883
0.408684
0.0249403
-0.0280434
-0.566554
0.569657
0.0314628
-0.034977
-0.699419
0.702934
0.0393432
-0.0436196
-0.826627
0.830904
0.0484732
-0.0529227
-0.974338
0.978788
0.0577147
-0.0618852
-1.15033
1.1545
0.0660836
-0.0694057
-1.35872
1.36204
0.0722761
-0.0739802
-1.6055
1.6072
0.0745958
-0.0742221
-1.58587
1.5855
0.0732517
-0.0717464
-1.31355
1.31205
0.0701635
-0.0682949
-1.09486
1.09299
0.0665084
-0.0646546
-0.918782
0.916928
0.0626278
-0.0597754
-0.769793
0.76694
0.0556289
-0.0490279
-0.614504
0.607903
0.0413068
-0.0318289
-0.422791
0.413313
0.0232829
-0.0148907
-0.231413
0.223021
0.00868639
-0.00373851
-0.0917029
0.086755
0.00103733
-0.0124361
0.0113988
-0.0369445
0.0388848
-0.00194024
0.0119334
-0.0179826
-0.246634
0.252683
0.0244314
-0.029664
-0.41359
0.418823
0.0346184
-0.038782
-0.574235
0.578399
0.0432181
-0.0475964
-0.707146
0.711524
0.0528616
-0.0578787
-0.835173
0.84019
0.0634593
-0.0684879
-0.983165
0.988193
0.073804
-0.0783183
-1.15856
1.16307
0.0827058
-0.0859982
-1.36513
1.36842
0.0885889
-0.0898046
-1.60851
1.60973
0.0897855
-0.0886712
-1.58466
1.58355
0.0870203
-0.0848049
-1.31002
1.3078
0.0826205
-0.0801602
-1.09058
1.08812
0.0778706
-0.075401
-0.914552
0.912082
0.0727659
-0.0689759
-0.763389
0.759599
0.0636563
-0.0555444
-0.601218
0.593106
0.0463884
-0.0354504
-0.403668
0.39273
0.0257665
-0.0163706
-0.214388
0.204992
0.00948794
-0.00405057
-0.0816677
0.0762304
0.00111303
-0.0103578
0.00924476
-0.0408068
0.0436259
-0.00281908
0.0168936
-0.0251878
-0.25909
0.267384
0.0338399
-0.0407821
-0.425744
0.432686
0.0473338
-0.0527669
-0.584472
0.589905
0.0584377
-0.063898
-0.716715
0.722176
0.0702842
-0.0761815
-0.845188
0.851086
0.0825785
-0.0881975
-0.993143
0.998762
0.0939654
-0.0986825
-1.16739
1.17211
0.103045
-0.106086
-1.37136
1.3744
0.108148
-0.108648
-1.61042
1.61092
0.10777
-0.105685
-1.58185
1.57977
0.103171
-0.100073
-1.30494
1.30184
0.0971793
-0.0940592
-1.08492
1.0818
0.0912237
-0.0880457
-0.908903
0.905725
0.084716
-0.0797633
-0.754981
0.750029
0.0729952
-0.0630444
-0.584868
0.574917
0.0521597
-0.0394654
-0.381631
0.368937
0.0284243
-0.0178682
-0.195358
0.184801
0.0102452
-0.00431752
-0.0706735
0.0647458
0.00116836
-0.00813956
0.0069712
-0.0463119
0.05061
-0.0042981
0.0245765
-0.0359109
-0.276056
0.28739
0.0474035
-0.0566409
-0.442352
0.45159
0.0651871
-0.0721377
-0.597819
0.604769
0.0793286
-0.0862245
-0.728486
0.735382
0.0937787
-0.100493
-0.856885
0.8636
0.107547
-0.113532
-1.00421
1.01019
0.119424
-0.124004
-1.17646
1.18104
0.127936
-0.13034
-1.37688
1.37928
0.131436
-0.130829
-1.61071
1.6101
0.128756
-0.125437
-1.57698
1.57366
0.121888
-0.117767
-1.29801
1.29389
0.114056
-0.110183
-1.07771
1.07384
0.106744
-0.102766
-0.901581
0.897603
0.0985612
-0.0921136
-0.744062
0.737615
0.083566
-0.0713909
-0.564753
0.552578
0.058445
-0.0436862
-0.356116
0.341357
0.0310725
-0.0192276
-0.174082
0.162238
0.0108448
-0.00448151
-0.0587666
0.0524033
0.00118374
-0.00582966
0.00464592
-0.0545209
0.0618609
-0.00734003
0.0379551
-0.0537575
-0.299649
0.315452
0.0692668
-0.0816799
-0.465079
0.477492
0.0923791
-0.100715
-0.614745
0.62308
0.10946
-0.117643
-0.742828
0.751011
0.126126
-0.133216
-0.870006
0.877096
0.140295
-0.146008
-1.01571
1.02142
0.15134
-0.155154
-1.18494
1.18875
0.158018
-0.159202
-1.38081
1.38199
0.158776
-0.156593
-1.6085
1.60632
0.152956
-0.148113
-1.56946
1.56461
0.143297
-0.137943
-1.28894
1.28359
0.133251
-0.128503
-1.06883
1.06408
0.124386
-0.119599
-0.892394
0.887607
0.114181
-0.10586
-0.72993
0.721609
0.0950844
-0.0801859
-0.539948
0.525049
0.0648262
-0.0477933
-0.326529
0.309496
0.0334752
-0.0203045
-0.150459
0.137288
0.0111938
-0.00449491
-0.0461516
0.0394528
0.00113271
-0.00351101
0.0023783
-0.0687065
0.0728038
-0.00409736
0.0289292
-0.0427321
-0.333804
0.347606
0.0565612
-0.067996
-0.495337
0.506772
0.0781474
-0.0876041
-0.634947
0.644404
0.0981174
-0.107795
-0.758605
0.768283
0.118471
-0.127835
-0.883164
0.892528
0.137694
-0.146351
-1.02619
1.03485
0.155265
-0.162723
-1.19146
1.19891
0.16987
-0.175205
-1.38195
1.38728
0.179374
-0.181245
-1.60284
1.60472
0.180775
-0.178512
-1.55863
1.55637
0.175237
-0.170879
-1.2773
1.27294
0.166849
-0.162111
-1.05798
1.05324
0.158037
-0.152927
-0.880928
0.875818
0.145898
-0.134051
-0.711594
0.699747
0.118337
-0.0974238
-0.509488
0.488575
0.0767393
-0.0545077
-0.292304
0.270073
0.036763
-0.0213315
-0.124667
0.109235
0.0112096
-0.00424798
-0.0332793
0.0263177
0.000967533
-0.00127684
0.000309307
-0.0801165
0.0782072
0.00190937
0.00761842
-0.0164933
-0.364111
0.372986
0.0269547
-0.0351779
-0.522785
0.531008
0.0433677
-0.0511779
-0.656451
0.664261
0.0607566
-0.0697011
-0.777429
0.786373
0.0792113
-0.0878075
-0.901274
0.909871
0.0968383
-0.104416
-1.0432
1.05078
0.112373
-0.118634
-1.20612
1.21238
0.124533
-0.128581
-1.39221
1.39626
0.131087
-0.13146
-1.60564
1.60601
0.129511
-0.125737
-1.55325
1.54948
0.120937
-0.115005
-1.26793
1.262
0.10948
-0.103363
-1.047
1.04088
0.0976756
-0.0910815
-0.866222
0.859628
0.0839086
-0.0736448
-0.684079
0.673816
0.0619126
-0.0478879
-0.46618
0.452155
0.0353264
-0.0234402
-0.247962
0.236076
0.0149041
-0.00821206
-0.0944888
0.0877968
0.00412012
-0.00148913
-0.0195859
0.0169549
0.000302665
0.000912811
-0.00121548
-0.0815393
0.0787072
0.00283212
-0.00114462
-0.00390589
-0.384638
0.389689
0.0108095
-0.0168016
-0.54306
0.549053
0.0228613
-0.0295797
-0.674553
0.681271
0.0378714
-0.0456158
-0.794381
0.802125
0.0540668
-0.0615494
-0.917658
0.92514
0.0691605
-0.0759055
-1.05818
1.06492
0.0827669
-0.0882255
-1.21818
1.22364
0.0928774
-0.0957737
-1.39958
1.40248
0.0972913
-0.0965501
-1.60556
1.60482
0.0935341
-0.088738
-1.54493
1.54013
0.0831466
-0.0765801
-1.25572
1.24915
0.0700892
-0.063105
-1.03359
1.0266
0.0565645
-0.0492096
-0.850131
0.842776
0.0423073
-0.0337101
-0.660134
0.651537
0.0251908
-0.0163538
-0.436366
0.427529
0.0100261
-0.00539039
-0.223429
0.218794
0.00279601
-0.00126481
-0.0808353
0.0793042
0.000510275
-0.000151761
-0.0139965
0.013638
-4.39712e-08
0.00182042
-0.00182037
-0.0803707
0.0776409
0.00272977
-0.00481984
0.00229078
-0.39827
0.400799
0.00217062
-0.00667695
-0.558136
0.562642
0.0117824
-0.0174158
-0.68942
0.695054
0.0245527
-0.0312111
-0.809198
0.815856
0.0384364
-0.0448585
-0.932068
0.93849
0.051771
-0.0574851
-1.07122
1.07694
0.0634568
-0.0677346
-1.22867
1.23295
0.0716096
-0.0738477
-1.40509
1.40733
0.0745395
-0.0729571
-1.6036
1.60202
0.0695925
-0.0645081
-1.53477
1.52968
0.0586526
-0.0513868
-1.24223
1.23497
0.0444915
-0.0369486
-1.01858
1.01103
0.0297849
-0.0223219
-0.833026
0.825563
0.01553
-0.00847125
-0.639925
0.632866
0.00252978
0.00204808
-0.417315
0.412737
-0.00409546
0.00450196
-0.212104
0.211698
-0.0039973
0.00278635
-0.0768038
0.0780147
-0.00176828
0.000792081
-0.0127195
0.0136957
-0.000244851
0.00216999
-0.00192514
-0.0789559
0.0765634
0.00239252
-0.00595858
0.00497244
-0.407463
0.408449
-0.00160324
-0.0017662
-0.570227
0.573597
0.00586184
-0.010987
-0.701926
0.707051
0.0170171
-0.0228956
-0.821788
0.827666
0.0291788
-0.0347832
-0.944459
0.950063
0.0407347
-0.0458338
-1.08251
1.08761
0.0508824
-0.0548021
-1.23707
1.24099
0.058062
-0.0598252
-1.40919
1.41096
0.0600877
-0.0581769
-1.60026
1.59835
0.0545212
-0.0489621
-1.52386
1.5183
0.0428938
-0.0355925
-1.22754
1.22024
0.0286096
-0.0208402
-1.00277
0.994996
0.0137736
-0.00633944
-0.816188
0.808754
9.5417e-05
0.00562639
-0.623086
0.617364
-0.0096888
0.0118497
-0.405558
0.403397
-0.0118002
0.0101265
-0.208703
0.210377
-0.00800356
0.00543887
-0.0783172
0.0808818
-0.00333364
0.00144944
-0.0142458
0.01613
-0.000412773
0.00194337
-0.0015306
-0.0776758
0.0756467
0.00202912
-0.00584535
0.00532047
-0.41386
0.414385
-0.00327659
0.000506287
-0.579622
0.582392
0.00352811
-0.00795047
-0.712567
0.71699
0.0131706
-0.0182962
-0.832729
0.837855
0.0239031
-0.0289386
-0.955318
0.960353
0.0344168
-0.0389108
-1.09244
1.09693
0.0434761
-0.0470182
-1.24462
1.24817
0.0498821
-0.0513531
-1.41245
1.41392
0.0513277
-0.0495669
-1.5963
1.59454
0.0457283
-0.0402706
-1.51224
1.50678
0.0342682
-0.0271621
-1.21275
1.20564
0.0206759
-0.0131304
-0.986951
0.979405
0.00629705
0.000783476
-0.800118
0.793037
-0.00666752
0.0115883
-0.608992
0.604072
-0.0146962
0.0160406
-0.39815
0.396806
-0.0150229
0.0124638
-0.209393
0.211952
-0.00981908
0.00670199
-0.0825621
0.0856792
-0.00409294
0.00181233
-0.0175876
0.0198682
-0.000520501
0.00126835
-0.000747846
-0.0767483
0.0751835
0.0015648
-0.00495557
0.00473557
-0.418717
0.418937
-0.00301345
0.000899283
-0.587897
0.590011
0.00290034
-0.00695019
-0.72185
0.7259
0.0119355
-0.016373
-0.842574
0.847012
0.0213202
-0.0258092
-0.965354
0.969844
0.0310403
-0.0351523
-1.10146
1.10557
0.0392501
-0.0426455
-1.25154
1.25493
0.0457104
-0.0470684
-1.41541
1.41677
0.0471234
-0.0453396
-1.59238
1.5906
0.0420097
-0.036698
-1.50119
1.49588
0.0313258
-0.0249303
-1.19854
1.19215
0.01878
-0.0118462
-0.971841
0.964907
0.00528614
0.00166572
-0.784892
0.77794
-0.00701372
0.0117051
-0.596325
0.591634
-0.0145023
0.0155989
-0.392614
0.391517
-0.0148571
0.0125902
-0.211649
0.213916
-0.0099986
0.00686366
-0.0878513
0.0909863
-0.00422555
0.00190721
-0.021586
0.0239044
-0.000562469
0.000392882
0.000169588
-0.0763344
0.0751281
0.00120633
-0.00385161
0.00374011
-0.422665
0.422777
-0.00211278
0.000100738
-0.595151
0.597163
0.00350576
-0.00717466
-0.730238
0.733907
0.0114744
-0.0157642
-0.851396
0.855686
0.0203576
-0.0250141
-0.974137
0.978793
0.0295498
-0.0335143
-1.1098
1.11376
0.0377916
-0.0410096
-1.25822
1.26144
0.0436639
-0.0454837
-1.41805
1.41987
0.0457927
-0.0444433
-1.58893
1.58758
0.0414918
-0.0370166
-1.49091
1.48644
0.0321738
-0.0262427
-1.18557
1.17964
0.0205216
-0.0139184
-0.957743
0.95114
0.00775853
-0.00145317
-0.770471
0.764165
-0.00382469
0.00825363
-0.584603
0.580174
-0.0108104
0.012251
-0.387693
0.386253
-0.0121118
0.0104226
-0.213606
0.215295
-0.00840375
0.00583686
-0.0927371
0.095304
-0.00364638
0.00167493
-0.0254478
0.0274193
-0.000508982
-0.00051627
0.00102525
-0.0764705
0.075467
0.00100355
-0.00254882
0.002179
-0.426269
0.426639
-0.000724697
-0.00131874
-0.601857
0.6039
0.00463893
-0.00820331
-0.738074
0.741639
0.0123475
-0.016253
-0.859776
0.863681
0.0209875
-0.0248785
-0.98287
0.986761
0.029423
-0.0332609
-1.1179
1.12174
0.0374784
-0.0409368
-1.26465
1.26811
0.0439431
-0.045619
-1.42147
1.42314
0.0463805
-0.0455679
-1.58623
1.58542
0.0433921
-0.0393095
-1.48194
1.47785
0.0348896
-0.0292991
-1.17382
1.16823
0.0239459
-0.0177543
-0.944276
0.938085
0.0122418
-0.00640023
-0.757316
0.751474
0.00146274
0.00306094
-0.573861
0.569337
-0.00597853
0.00750592
-0.382281
0.380753
-0.00794436
0.0071014
-0.214509
0.215352
-0.00587063
0.00414599
-0.0963889
0.0981136
-0.00263604
0.00125871
-0.0284941
0.0298714
-0.000398255
-0.00128727
0.00168552
-0.0769066
0.076212
0.000694533
-0.00139323
0.000548506
-0.429988
0.430832
0.000716132
-0.00290825
-0.607837
0.610029
0.00594153
-0.00940034
-0.745408
0.748866
0.0133869
-0.0174349
-0.867457
0.871505
0.0215771
-0.0256614
-0.990868
0.994952
0.030209
-0.0338812
-1.12601
1.12969
0.038245
-0.0417107
-1.27139
1.27485
0.0448291
-0.0471013
-1.42525
1.42753
0.0484535
-0.0480127
-1.58469
1.58425
0.0460894
-0.0426531
-1.47393
1.47049
0.0387014
-0.0334671
-1.16251
1.15728
0.0284909
-0.0231516
-0.931907
0.926568
0.0179088
-0.0127209
-0.745191
0.740003
0.00796801
-0.00317621
-0.563488
0.558696
-6.35161e-05
0.00224966
-0.376373
0.374187
-0.00314857
0.00322309
-0.214107
0.214032
-0.00278449
0.00203668
-0.0983364
0.0990843
-0.00137342
0.000705304
-0.0303584
0.0310266
-0.000245425
-0.00182992
0.00207535
-0.0777506
0.0772204
0.000530217
-0.000419413
-0.000371794
-0.433967
0.434759
0.00220266
-0.00425862
-0.613926
0.615982
0.00750028
-0.0108545
-0.752265
0.755619
0.0147001
-0.0183657
-0.875234
0.8789
0.0226603
-0.0264626
-0.999044
1.00285
0.0309967
-0.0351446
-1.13382
1.13797
0.0391927
-0.0430237
-1.27838
1.28221
0.0466166
-0.0490432
-1.42972
1.43214
0.0508397
-0.0511929
-1.58404
1.58439
0.0496923
-0.0468251
-1.4669
1.46403
0.0431164
-0.0385242
-1.15217
1.14758
0.034259
-0.0294577
-0.920995
0.916194
0.0248425
-0.0198136
-0.734113
0.729084
0.0150143
-0.00987187
-0.552687
0.547545
0.00607179
-0.00329221
-0.369652
0.366873
0.00155698
-0.000575873
-0.211989
0.211007
7.24592e-05
0.000176967
-0.0983625
0.098113
-0.000273261
0.000237146
-0.0308787
0.0309149
-0.000121362
-0.00207722
0.00219858
-0.0788764
0.0785246
0.000351823
0.000638515
-0.00162644
-0.438103
0.43909
0.00333955
-0.0057089
-0.619648
0.622017
0.00891725
-0.012136
-0.758908
0.762127
0.0160725
-0.0196078
-0.882554
0.88609
0.0237713
-0.0277209
-1.00713
1.01108
0.0321953
-0.0363359
-1.14198
1.14612
0.0406337
-0.0445254
-1.28597
1.28986
0.0483463
-0.0515653
-1.43487
1.43809
0.053844
-0.0545048
-1.58469
1.58535
0.0536853
-0.0512109
-1.46107
1.45859
0.0482315
-0.0444737
-1.1431
1.13934
0.0405656
-0.0362064
-0.911249
0.90689
0.0317731
-0.0265067
-0.723371
0.718105
0.021549
-0.0160197
-0.541573
0.536043
0.0118313
-0.00826549
-0.361947
0.358382
0.00588574
-0.00398921
-0.208106
0.206209
0.00252274
-0.00134429
-0.0965364
0.095358
0.00057916
-9.51408e-05
-0.0301714
0.0296874
-4.93864e-05
-0.00203104
0.00208043
-0.08023
0.0800006