/*--------------------------------*- C++ -*----------------------------------*\
  =========                 |
  \\      /  F ield         | OpenFOAM: The Open Source CFD Toolbox
   \\    /   O peration     | Website:  https://openfoam.org
    \\  /    A nd           | Version:  6
     \\/     M anipulation  |
\*---------------------------------------------------------------------------*/
FoamFile
{
    version     2.0;
    format      ascii;
    class       surfaceScalarField;
    location    "59";
    object      phi;
}
// * * * * * * * * * * * * * * * * * * * * * * * * * * * * * * * * * * * * * //

dimensions      [0 3 -1 0 0 0 0];

internalField   nonuniform List<scalar> 
4262
(
0.106784
0.471204
0.0925003
0.707869
0.0647344
0.860069
0.0423009
1.0212
0.0262778
1.21454
0.0161894
1.44831
0.0099004
1.73215
0.00568219
2.07525
0.00242335
2.4885
-0.000519731
2.98524
-0.00335207
2.98512
-0.00646566
2.48836
-0.0105936
2.07516
-0.0167815
1.73205
-0.0267149
1.44815
-0.0425577
1.21436
-0.0648249
1.02103
-0.0924845
0.859963
-0.106833
0.707934
0.471156
0.114803
0.356401
0.14
0.682672
0.125367
0.874702
0.101826
1.04474
0.0736325
1.24273
0.0475834
1.47436
0.0271376
1.7526
0.0131602
2.08923
0.00470355
2.49696
-0.000966389
2.99091
-0.00654018
2.9907
-0.0152863
2.4971
-0.0290442
2.08892
-0.0491899
1.7522
-0.0750897
1.47405
-0.103281
1.24255
-0.126853
1.0446
-0.140784
0.873894
-0.115205
0.682356
0.35595
0.0916993
0.264702
0.126297
0.648074
0.124815
0.876185
0.110912
1.05864
0.0964251
1.25722
0.0765553
1.49423
0.0544502
1.7747
0.0328899
2.11079
0.0136923
2.51616
-0.0023465
3.00694
-0.0184566
3.00681
-0.0369292
2.51558
-0.0581082
2.1101
-0.0798342
1.77392
-0.0991558
1.49337
-0.112846
1.25624
-0.125906
1.05766
-0.127596
0.875584
-0.0923115
0.647071
0.263639
0.0628312
0.201871
0.104005
0.606901
0.106779
0.87341
0.0972066
1.06821
0.0860671
1.26836
0.0753873
1.50491
0.0605782
1.78951
0.0415925
2.12978
0.0202208
2.53753
-0.00320949
3.03037
-0.026457
3.03006
-0.0473916
2.53651
-0.0655664
2.12828
-0.0795323
1.78789
-0.0895473
1.50339
-0.100324
1.26702
-0.109605
1.06694
-0.106046
0.872026
-0.063728
0.604753
0.199911
0.0370268
0.164844
0.0793624
0.564565
0.0897064
0.863066
0.0829334
1.07499
0.0716853
1.27961
0.0626392
1.51395
0.0524633
1.79969
0.0385715
2.14367
0.019672
2.55643
-0.00464918
3.0547
-0.0284021
3.05381
-0.0464287
2.55454
-0.0594788
2.14133
-0.0687838
1.79719
-0.0769276
1.51153
-0.087346
1.27743
-0.093177
1.07277
-0.0815536
0.860402
-0.0378046
0.561004
0.162106
0.0195481
0.145296
0.0566788
0.527435
0.0717341
0.848011
0.0692017
1.07752
0.0601386
1.28867
0.0501031
1.52399
0.040548
1.80924
0.0293371
2.15488
0.014416
2.57135
-0.00570238
3.07481
-0.0256502
3.07376
-0.0396576
2.56854
-0.0496347
2.1513
-0.0579424
1.8055
-0.0669028
1.52049
-0.0748314
1.28536
-0.076168
1.07411
-0.0594174
0.843652
-0.0204156
0.522002
0.141691
0.010742
0.134554
0.0420615
0.496115
0.0576232
0.832449
0.0572951
1.07785
0.0503139
1.29565
0.0401692
1.53413
0.0302505
1.81916
0.0199647
2.16517
0.00771508
2.5836
-0.00762569
3.09015
-0.0221531
3.08828
-0.0331571
2.57955
-0.0421133
2.16026
-0.0504911
1.81388
-0.0592734
1.52928
-0.0647348
1.29082
-0.063438
1.07281
-0.0456257
0.825839
-0.0118438
0.48822
0.129847
0.00664412
0.12791
0.0328747
0.469884
0.0485953
0.816729
0.0494408
1.077
0.0436594
1.30143
0.0343755
1.54342
0.0241967
1.82934
0.0137663
2.1756
0.00279595
2.59457
-0.00930758
3.10226
-0.0211334
3.10011
-0.0308653
2.58928
-0.0392538
2.16865
-0.0473137
1.82194
-0.0547379
1.5367
-0.0586775
1.29476
-0.0556559
1.06979
-0.0370961
0.80728
-0.00792226
0.459046
0.121924
0.00473133
0.123178
0.0265624
0.448053
0.0421616
0.80113
0.0438596
1.0753
0.038724
1.30657
0.0305395
1.5516
0.0207114
1.83917
0.00995477
2.18635
-0.00103004
2.60555
-0.0120277
3.11326
-0.0219193
3.11
-0.0309221
2.59828
-0.0396979
2.17742
-0.0474926
1.82973
-0.053513
1.54272
-0.0561967
1.29745
-0.051387
1.06498
-0.0319497
0.787842
-0.00638831
0.433485
0.115536
0.00380354
0.119375
0.0217948
0.430062
0.0369496
0.785975
0.0396807
1.07257
0.0351384
1.31111
0.0273344
1.55941
0.0179035
1.8486
0.00740992
2.19685
-0.00353806
2.6165
-0.0147365
3.12445
-0.0252853
3.12055
-0.0341822
2.60718
-0.0415876
2.18483
-0.0479121
1.83606
-0.0526826
1.54749
-0.0540174
1.29878
-0.0478786
1.05884
-0.0281798
0.768144
-0.00576545
0.411071
0.109771
0.00304863
0.116326
0.0174723
0.415638
0.0312409
0.772206
0.0341215
1.06969
0.0300949
1.31514
0.0232402
1.56626
0.0148403
1.857
0.00486671
2.20682
-0.00641669
2.62779
-0.0182092
3.13625
-0.0285799
3.13092
-0.0371828
2.61578
-0.0441756
2.19182
-0.049475
1.84136
-0.0532828
1.5513
-0.0535272
1.29903
-0.0457489
1.05107
-0.0256796
0.748074
-0.00556216
0.390953
0.104209
0.0024526
0.113874
0.0141389
0.403952
0.0269259
0.759419
0.030122
1.0665
0.0261394
1.31912
0.018972
1.57343
0.0103712
1.8656
0.000616546
2.21658
-0.0104933
2.63889
-0.0228331
3.14859
-0.0340393
3.14213
-0.0418678
2.62361
-0.0473678
2.19732
-0.0514561
1.84545
-0.0540938
1.55394
-0.053408
1.29834
-0.0442339
1.04189
-0.0239513
0.727792
-0.00548964
0.372492
0.0987189
0.00181459
0.112059
0.0108371
0.39493
0.0218204
0.748436
0.0245406
1.06378
0.0204955
1.32317
0.0136324
1.58029
0.00535103
1.87388
-0.00436091
2.22629
-0.0155033
2.65004
-0.0277807
3.16086
-0.0382908
3.15264
-0.0454059
2.63073
-0.0505183
2.20243
-0.0542462
1.84917
-0.0557601
1.55545
-0.054032
1.29661
-0.0434123
1.03127
-0.0227735
0.707153
-0.00542833
0.355146
0.0932906
0.00083781
0.111221
0.0071891
0.388578
0.016328
0.739297
0.0185481
1.06156
0.0141946
1.32752
0.00676748
1.58772
-0.00210698
1.88276
-0.0120164
2.2362
-0.0229086
2.66093
-0.0348538
3.17281
-0.0447198
3.1625
-0.0508961
2.6369
-0.054435
2.20597
-0.0568396
1.85158
-0.0575053
1.55612
-0.0548741
1.29398
-0.0429477
1.01935
-0.021969
0.686174
-0.00537785
0.338555
0.0879127
0.00013502
0.111086
0.00420953
0.384504
0.011112
0.732395
0.0122238
1.06044
0.00737506
1.33237
-8.64235e-05
1.59518
-0.0089313
1.8916
-0.0190468
2.24631
-0.0303631
2.67225
-0.0419864
3.18443
-0.0510678
3.17158
-0.0565044
2.64234
-0.0596075
2.20908
-0.0614168
1.85339
-0.0611324
1.55583
-0.0568595
1.28971
-0.0433049
1.00579
-0.0216615
0.664531
-0.00537849
0.322272
0.0825343
-0.000937407
0.112024
0.000209913
0.383356
0.0048712
0.727733
0.0051088
1.06021
-0.000381882
1.33786
-0.00898023
1.60378
-0.01911
1.90173
-0.0300473
2.25725
-0.0413419
2.68354
-0.0520988
3.19519
-0.0600462
3.17953
-0.0640464
2.64634
-0.0658518
2.21088
-0.0665933
1.85413
-0.0656146
1.55485
-0.0598699
1.28396
-0.0444946
0.990416
-0.0219171
0.641953
-0.00552605
0.305881
0.0770082
-0.00190377
0.113927
-0.00305824
0.384511
-0.00159647
0.726271
-0.00342952
1.06204
-0.0100093
1.34444
-0.0191076
1.61288
-0.0294514
1.91208
-0.0405779
2.26838
-0.0521556
2.69512
-0.0635035
3.20654
-0.0709669
3.187
-0.0745513
2.64992
-0.0756085
2.21194
-0.0751156
1.85364
-0.0721682
1.55191
-0.0642632
1.27606
-0.0466626
0.972815
-0.0227371
0.618028
-0.00580934
0.288953
0.0711989
-0.00317958
0.117107
-0.00668058
0.388012
-0.00855102
0.728142
-0.012061
1.06555
-0.0197757
1.35215
-0.0304409
1.62354
-0.0423959
1.92403
-0.0549905
2.28097
-0.0674119
2.70754
-0.0779076
3.21703
-0.0834604
3.19255
-0.0853286
2.65179
-0.0849432
2.21155
-0.0836345
1.85233
-0.0798816
1.54815
-0.0699895
1.26617
-0.0497631
0.952589
-0.0240899
0.592355
-0.00620638
0.27107
0.0649925
-0.00453133
0.121638
-0.0111126
0.394593
-0.0163901
0.733419
-0.0228817
1.07204
-0.0321424
1.36141
-0.0438713
1.63527
-0.0566511
1.93681
-0.0702544
2.29457
-0.08378
2.72107
-0.0958361
3.22909
-0.102306
3.19902
-0.10289
2.65238
-0.100417
2.20908
-0.0964422
1.84835
-0.0901196
1.54183
-0.0774209
1.25347
-0.0540961
0.929264
-0.0260289
0.564287
-0.00670983
0.251751
0.0582827
-0.00588931
0.127528
-0.0158274
0.404531
-0.025163
0.742755
-0.0343
1.08118
-0.0453649
1.37248
-0.0591797
1.64908
-0.0745517
1.95218
-0.0909331
2.31096
-0.106806
2.73694
-0.118322
3.24061
-0.121317
3.20201
-0.119598
2.65066
-0.115746
2.20523
-0.110586
1.84319
-0.102672
1.53392
-0.0867372
1.23753
-0.0595045
0.902032
-0.0284132
0.533196
-0.00728291
0.23062
0.0509997
-0.00829071
0.135818
-0.0229469
0.419187
-0.0376033
0.757411
-0.0502426
1.09382
-0.0633668
1.3856
-0.0792308
1.66495
-0.0969958
1.96995
-0.115582
2.32954
-0.13226
2.75362
-0.143084
3.25143
-0.145679
3.20461
-0.142256
2.64724
-0.136287
2.19926
-0.128647
1.83555
-0.117418
1.52269
-0.0975426
1.21766
-0.0658136
0.870303
-0.0310255
0.498408
-0.00783086
0.207426
0.0431689
-0.010693
0.146511
-0.0300139
0.438508
-0.0508241
0.778221
-0.0687861
1.11178
-0.0857749
1.40259
-0.105206
1.68438
-0.126518
1.99126
-0.147994
2.35102
-0.166249
2.77187
-0.176559
3.26174
-0.175068
3.20311
-0.167449
2.63962
-0.158424
2.19023
-0.148257
1.82539
-0.13427
1.5087
-0.109676
1.19307
-0.0724601
0.833087
-0.0335979
0.459546
-0.00829523
0.182123
0.0348737
-0.0153466
0.161858
-0.042168
0.46533
-0.0698857
0.805939
-0.092898
1.13479
-0.11396
1.42365
-0.137933
1.70835
-0.163221
2.01655
-0.18684
2.37464
-0.204215
2.78925
-0.210494
3.26802
-0.205508
3.19813
-0.195945
2.63005
-0.184535
2.17882
-0.171597
1.81245
-0.153344
1.49045
-0.123507
1.16323
-0.0800946
0.789674
-0.0361861
0.415637
-0.0086701
0.154607
0.0262036
-0.0191893
0.181047
-0.0544262
0.500567
-0.0914708
0.842984
-0.12274
1.16606
-0.151176
1.45209
-0.18265
1.73983
-0.212596
2.04649
-0.237213
2.39925
-0.251814
2.80385
-0.252835
3.26904
-0.242268
3.18756
-0.22761
2.6154
-0.212587
2.1638
-0.196612
1.79647
-0.17455
1.46838
-0.13767
1.12635
-0.0864725
0.738477
-0.0378822
0.367047
-0.00862543
0.12535
0.0175781
-0.0316046
0.212652
-0.0795442
0.548506
-0.128322
0.891762
-0.167296
1.20503
-0.201378
1.48617
-0.238834
1.77728
-0.270523
2.07818
-0.292705
2.42143
-0.301777
2.81292
-0.296743
3.26401
-0.280433
3.17125
-0.262256
2.59722
-0.244999
2.14654
-0.225864
1.77734
-0.197316
1.43984
-0.152446
1.08148
-0.0934313
0.679463
-0.0394568
0.313072
-0.00843194
0.0943254
0.00914619
-0.0448965
0.257548
-0.1174
0.62101
-0.182141
0.956503
-0.22903
1.25192
-0.270972
1.52811
-0.311888
1.8182
-0.339788
2.10608
-0.355624
2.43727
-0.359045
2.81634
-0.348496
3.25346
-0.327275
3.15003
-0.303188
2.57313
-0.278027
2.12138
-0.251175
1.75049
-0.215978
1.40464
-0.162469
1.02797
-0.0949687
0.611962
-0.0381515
0.256255
-0.00814114
0.0643151
0.00100504
-0.0320606
0.289609
-0.0964058
0.685355
-0.155981
1.01608
-0.204969
1.30091
-0.25706
1.5802
-0.301195
1.86234
-0.340852
2.14574
-0.374017
2.47044
-0.397855
2.84018
-0.409256
3.26486
-0.402866
3.14364
-0.38387
2.55414
-0.359946
2.09746
-0.327346
1.71789
-0.274358
1.35165
-0.195279
0.94889
-0.105951
0.522634
-0.0404304
0.190735
-0.00919008
0.0330748
-0.00818503
-0.0136205
0.303229
-0.0478917
0.719627
-0.087619
1.05581
-0.128762
1.34205
-0.169297
1.62074
-0.200488
1.89353
-0.230859
2.17611
-0.258533
2.49811
-0.279021
2.86067
-0.284753
3.27059
-0.27416
3.13305
-0.258903
2.53888
-0.236735
2.07529
-0.204846
1.686
-0.160201
1.30701
-0.101955
0.890644
-0.0461915
0.466871
-0.016529
0.161072
-0.00403216
0.0205779
-0.0122172
-0.0031273
0.306357
-0.0237042
0.740204
-0.0509551
1.08306
-0.0788947
1.36999
-0.105688
1.64753
-0.132789
1.92063
-0.160199
2.20352
-0.185172
2.52308
-0.202094
2.87759
-0.205837
3.27433
-0.196927
3.12414
-0.176641
2.51859
-0.150245
2.0489
-0.119759
1.65551
-0.0806725
1.26792
-0.0396882
0.84966
-0.0118995
0.439082
-0.00383253
0.153005
-0.00133981
0.0180852
-0.013557
0.000653347
0.305703
-0.0142268
0.755084
-0.0341953
1.10302
-0.0545814
1.39038
-0.0742511
1.6672
-0.0955587
1.94194
-0.117391
2.22535
-0.136732
2.54243
-0.149547
2.8904
-0.151126
3.27591
-0.138306
3.11132
-0.117287
2.49757
-0.0909822
2.02259
-0.0583772
1.62291
-0.0275384
1.23708
-0.00256189
0.824683
0.00747627
0.429044
0.00510987
0.155372
0.00111319
0.0220819
-0.0124438
0.00314725
0.302556
-0.00628261
0.764514
-0.0229247
1.11967
-0.0408704
1.40832
-0.0578644
1.6842
-0.0749879
1.95906
-0.0921115
2.24247
-0.107039
2.55735
-0.116704
2.90007
-0.115797
3.275
-0.102587
3.09811
-0.0804384
2.47543
-0.0534509
1.9956
-0.0265836
1.59604
0.000812838
1.20968
0.0195022
0.805994
0.0206622
0.427884
0.0114782
0.164556
0.00300706
0.030553
-0.00943675
0.00421435
0.298342
-0.00221677
0.770945
-0.0167384
1.13419
-0.033451
1.42504
-0.0496133
1.70036
-0.064514
1.97396
-0.0784155
2.25638
-0.0902102
2.56915
-0.0970559
2.90691
-0.0948612
3.27281
-0.0814917
3.08474
-0.0603738
2.45431
-0.0361574
1.97139
-0.0088728
1.56875
0.0138391
1.18697
0.0255283
0.794305
0.023853
0.42956
0.0132134
0.175195
0.00362829
0.0401381
-0.00580846
0.00382284
0.294519
-0.000246343
0.775014
-0.0125437
1.14649
-0.0279833
1.44048
-0.0437377
1.71611
-0.058479
1.9887
-0.0719327
2.26983
-0.0826602
2.57988
-0.0877032
2.91196
-0.0838981
3.269
-0.0690628
3.0699
-0.0476686
2.43291
-0.0241789
1.9479
-0.00206669
1.54664
0.0181327
1.16677
0.0284105
0.784027
0.0245428
0.433427
0.0136706
0.186067
0.003934
0.0498746
-0.00187445
0.00242983
0.292089
-0.00115798
0.778602
-0.0116516
1.15698
-0.0254866
1.45431
-0.0407063
1.73133
-0.0556048
2.0036
-0.069164
2.28339
-0.0796134
2.59032
-0.0844368
2.91678
-0.0806613
3.26523
-0.0668055
3.05605
-0.0480323
2.41414
-0.0258752
1.92574
-0.00168704
1.52245
0.0163627
1.14872
0.0245555
0.775834
0.0219664
0.436016
0.0123889
0.195645
0.00366822
0.0585953
0.00179377
0.00111279
0.290976
-0.0025193
0.782234
-0.0119629
1.16642
-0.0244938
1.46684
-0.0386959
1.74553
-0.0535828
2.01849
-0.0681899
2.298
-0.0803354
2.60247
-0.0866885
2.92313
-0.0821436
3.26068
-0.0660957
3.04
-0.046339
2.39438
-0.0253738
1.90477
-0.0074288
1.50451
0.00949391
1.1318
0.0189317
0.766396
0.0169787
0.437969
0.00972337
0.2029
0.00298129
0.0653374
0.00477506
-0.000696365
0.291673
-0.00497685
0.786514
-0.013607
1.17505
-0.0249352
1.47817
-0.0382583
1.75886
-0.0529464
2.03317
-0.0682601
2.31331
-0.0818987
2.61611
-0.0898152
2.93105
-0.0869744
3.25784
-0.0728381
3.02586
-0.0544274
2.37597
-0.0357453
1.88609
-0.0151065
1.48387
0.000121524
1.11657
0.00887389
0.757644
0.00997535
0.436868
0.00610316
0.206772
0.002076
0.0693646
0.00685106
-0.00198405
0.293657
-0.00676241
0.791293
-0.0151598
1.18345
-0.0259463
1.48896
-0.0385819
1.77149
-0.0528626
2.04745
-0.0686239
2.32907
-0.0840371
2.63152
-0.0952283
2.94224
-0.0954162
3.25803
-0.0798865
3.01033
-0.0590535
2.35514
-0.0403625
1.8674
-0.0257855
1.46929
-0.0105613
1.10135
0.000585411
0.746497
0.00342838
0.434025
0.00261694
0.207584
0.00113796
0.0708435
0.00798902
-0.00329572
0.296952
-0.0088449
0.796842
-0.0170788
1.19168
-0.0273221
1.4992
-0.0394799
1.78365
-0.0533803
2.06136
-0.0690532
2.34474
-0.0853327
2.6478
-0.0993654
2.95627
-0.103602
3.26227
-0.0915249
2.99826
-0.0723721
2.33599
-0.053841
1.84887
-0.0349234
1.45038
-0.0203289
1.08675
-0.00922194
0.73539
-0.00306011
0.427863
-0.0008033
0.205327
0.000104671
0.0699356
0.00809369
-0.00399563
0.300948
-0.0101006
0.802947
-0.0184988
1.20008
-0.0287233
1.50943
-0.0406323
1.79556
-0.0540667
2.07479
-0.0694067
2.36008
-0.08637
2.66476
-0.103638
2.97354
-0.113303
3.27193
-0.104213
2.98917
-0.0830025
2.31478
-0.0597428
1.82561
-0.0436886
1.43432
-0.0277803
1.07085
-0.0149089
0.722519
-0.0078601
0.420814
-0.00301967
0.200487
-0.000530018
0.0674459
0.00756367
-0.00464893
0.305597
-0.0115668
0.809865
-0.0200301
1.20855
-0.0299604
1.51936
-0.0415604
1.80716
-0.0546287
2.08786
-0.0695943
2.37505
-0.0865938
2.68176
-0.105302
2.99225
-0.119879
3.28651
-0.117514
2.9868
-0.0999815
2.29724
-0.0754532
1.80108
-0.0501348
1.409
-0.0329156
1.05363
-0.0201843
0.709787
-0.0103759
0.411006
-0.00413021
0.194241
-0.000833507
0.0641492
0.00673017
-0.00497763
0.310575
-0.0122776
0.817165
-0.0209314
1.2172
-0.0309494
1.52937
-0.0424218
1.81863
-0.0551177
2.10055
-0.0696995
2.38963
-0.0868011
2.69887
-0.10674
3.01219
-0.125436
3.30521
-0.127998
2.98936
-0.111597
2.28084
-0.0837573
1.77324
-0.0567362
1.38198
-0.0341986
1.03109
-0.0194303
0.695019
-0.0106365
0.402212
-0.00369531
0.1873
-0.000656388
0.0611103
0.00607378
-0.00527925
0.315854
-0.0131494
0.825035
-0.0218359
1.22589
-0.0315858
1.53912
-0.0427312
1.82978
-0.055087
2.11291
-0.0695028
2.40405
-0.0866738
2.71604
-0.106628
3.03214
-0.126929
3.32551
-0.135613
2.99805
-0.125918
2.27115
-0.101776
1.7491
-0.0651264
1.34533
-0.0341283
1.00009
-0.0163275
0.677218
-0.00606325
0.391948
-0.00119253
0.182429
0.000110782
0.059807
0.00618456
-0.00531167
0.321166
-0.0132895
0.833013
-0.0221163
1.23471
-0.0319272
1.54893
-0.0428498
1.8407
-0.0548589
2.12492
-0.0692971
2.41849
-0.0868275
2.73357
-0.107094
3.05241
-0.128113
3.34653
-0.140113
3.01005
-0.133822
2.26486
-0.109738
1.72502
-0.0753411
1.31094
-0.0347356
0.959485
-0.00543486
0.647917
0.00544356
0.38107
0.00636239
0.18151
0.00259294
0.0635764
0.0087775
-0.00536964
0.326535
-0.0136143
0.841257
-0.0223947
1.24349
-0.0319176
1.55846
-0.0422917
1.85107
-0.0539927
2.13662
-0.0688023
2.43329
-0.0868461
2.75161
-0.106838
3.0724
-0.127445
3.36713
-0.142261
3.02486
-0.142809
2.2654
-0.125781
1.70799
-0.0866097
1.27176
-0.0393866
0.912262
0.0045579
0.603973
0.0286037
0.357024
0.0269209
0.183193
0.0109954
0.0795019
0.0197729
-0.00519922
0.331734
-0.0133323
0.84939
-0.0221192
1.25228
-0.0316735
1.56801
-0.0415389
1.86094
-0.0530284
2.14811
-0.0683532
2.44862
-0.0870613
2.77032
-0.107128
3.09247
-0.127508
3.38751
-0.142809
3.04016
-0.146069
2.26866
-0.129868
1.69179
-0.0966271
1.23852
-0.0438001
0.859435
0.0139793
0.546194
0.0642467
0.306756
0.0817273
0.165712
0.0539042
0.107325
0.073677
-0.00508839
0.336823
-0.0128601
0.857162
-0.0209091
1.26033
-0.029835
1.57694
-0.0409546
1.87206
-0.0548522
2.16201
-0.0719606
2.46573
-0.0916417
2.79
-0.112302
3.11313
-0.132057
3.40727
-0.146179
3.05429
-0.149517
2.272
-0.139058
1.68133
-0.103767
1.20323
-0.0515976
0.807266
0.0212795
0.473316
0.0987344
0.229301
0.152415
0.112032
0.14671
0.113029
0.220387
-0.00493867
0.341761
-0.0123036
0.864527
-0.0202111
1.26824
-0.0294704
1.5862
-0.0414254
1.88401
-0.0565087
2.17709
-0.0749559
2.48418
-0.0962201
2.81126
-0.119488
3.1364
-0.143006
3.43079
-0.161
3.07228
-0.167709
2.27871
-0.155633
1.66925
-0.125397
1.173
-0.0631396
0.745008
-0.00174589
0.411923
-0.0527645
0.28032
-0.384233
0.443501
-1.00631
0.735105
0.928578
-1.7145
-0.0048331
0.346595
-0.0123016
0.871995
-0.0202518
1.27619
-0.0293126
1.59526
-0.0404613
1.89516
-0.0549809
2.19161
-0.0739067
2.5031
-0.096375
2.83373
-0.121021
3.16104
-0.147431
3.4572
-0.171694
3.09654
-0.185981
2.293
-0.18747
1.67074
-0.159828
1.14535
-0.126996
0.712176
-0.247273
0.5322
-0.765163
0.798209
-1.51954
1.19788
-2.10668
1.32225
1.20566
-2.38376
-0.00453104
0.351126
-0.0117052
0.87917
-0.0195792
1.28406
-0.0285024
1.60418
-0.039554
1.90621
-0.0543192
2.20637
-0.0738089
2.52259
-0.0971788
2.8571
-0.123682
3.18754
-0.153691
3.48721
-0.182875
3.12573
-0.204424
2.31455
-0.208164
1.67448
-0.19988
1.13707
-0.318494
0.83079
-0.847988
1.06169
-1.62821
1.57843
-2.14897
1.71864
-2.36844
1.54171
1.30857
-2.47135
-0.00402461
0.35515
-0.0114164
0.886561
-0.0190442
1.29169
-0.0273603
1.6125
-0.0381049
1.91696
-0.0531446
2.22141
-0.0732408
2.54269
-0.0974212
2.88128
-0.125593
3.21572
-0.159678
3.52129
-0.196279
3.16233
-0.228989
2.34726
-0.249995
1.69549
-0.33754
1.22461
-0.729207
1.22246
-1.50431
1.8368
-2.05801
2.13213
-2.28264
1.94327
-2.38799
1.64705
1.37528
-2.4547
-0.00316509
0.358315
-0.00921625
0.892613
-0.016305
1.29878
-0.0252288
1.62142
-0.0373611
1.92909
-0.0531536
2.23721
-0.0731914
2.56272
-0.0976436
2.90574
-0.127939
3.24601
-0.166655
3.56001
-0.210063
3.20574
-0.25005
2.38724
-0.293544
1.73898
-0.524649
1.45572
-1.20322
1.90103
-1.86724
2.50082
-2.15477
2.41965
-2.2891
2.0776
-2.36653
1.72449
1.43264
-2.42389
-0.0027773
0.361093
-0.00771636
0.897552
-0.0146897
1.30575
-0.0246172
1.63135
-0.0379105
1.94239
-0.0544698
2.25377
-0.0747413
2.583
-0.0998951
2.93089
-0.132476
3.27859
-0.176132
3.60366
-0.227093
3.2567
-0.275894
2.43604
-0.401058
1.86415
-0.824417
1.87908
-1.57331
2.64992
-1.99884
2.92635
-2.17357
2.59438
-2.26463
2.16867
-2.33495
1.7948
1.49158
-2.39389
-0.00266864
0.363761
-0.00790825
0.902791
-0.0154897
1.31333
-0.026179
1.64204
-0.0401987
1.9564
-0.0574776
2.27105
-0.0785778
2.6041
-0.105002
2.95731
-0.140101
3.31369
-0.188918
3.65248
-0.246925
3.3147
-0.317563
2.50668
-0.531622
2.07821
-1.14284
2.49029
-1.75565
3.26274
-1.99343
3.16413
-2.12494
2.72589
-2.22493
2.26866
-2.30801
1.87788
1.55
-2.36642
-0.00297889
0.36674
-0.0092284
0.909041
-0.0174156
1.32152
-0.0281589
1.65278
-0.0422295
1.97048
-0.0599521
2.28877
-0.082062
2.62621
-0.110058
2.98531
-0.147625
3.35126
-0.201243
3.7061
-0.264344
3.37781
-0.366556
2.60889
-0.695515
2.40717
-1.3788
3.17358
-1.80927
3.69321
-1.9981
3.35296
-2.12426
2.85205
-2.22271
2.3671
-2.29648
1.95165
1.57947
-2.32595
-0.00324536
0.369985
-0.00980563
0.915601
-0.0187242
1.33044
-0.0302443
1.6643
-0.0449331
1.98516
-0.0632286
2.30706
-0.0861311
2.64911
-0.115479
3.01466
-0.155693
3.39147
-0.213358
3.76376
-0.283155
3.4476
-0.433865
2.7596
-0.869051
2.84235
-1.50655
3.81108
-1.81891
4.00557
-1.97193
3.50598
-2.06134
2.94146
-2.13863
2.44439
-2.18715
2.00017
1.52247
-2.13015
-0.00362413
0.37361
-0.0110231
0.923
-0.0205144
1.33993
-0.03229
1.67608
-0.0471665
2.00004
-0.0658802
2.32578
-0.0897303
2.67296
-0.120611
3.04554
-0.163354
3.43422
-0.227134
3.82754
-0.32192
3.54239
-0.522446
2.96013
-1.02665
3.34656
-1.55895
4.34337
-1.79253
4.23916
-1.92737
3.64081
-2.00602
3.02011
-2.01125
2.44962
-1.92548
1.9144
1.4381
-1.84111
-0.00358689
0.377196
-0.011042
0.930455
-0.0211399
1.35003
-0.033863
1.6888
-0.0496345
2.01581
-0.0688675
2.34501
-0.0928955
2.69699
-0.124049
3.07669
-0.16746
3.47763
-0.228564
3.88865
-0.330412
3.64424
-0.568164
3.19788
-1.10927
3.88767
-1.5128
4.7469
-1.66702
4.39338
-1.74223
3.71603
-1.76948
3.04737
-1.63571
2.31586
-1.11639
1.39508
0.321702
-0.00360913
0.380806
-0.0117965
0.938642
-0.0223965
1.36063
-0.0355585
1.70196
-0.0520934
2.03235
-0.0726895
2.36561
-0.0988136
2.72311
-0.133148
3.11103
-0.181068
3.52555
-0.248163
3.95574
-0.369342
3.76542
-0.67246
3.501
-1.25575
4.47096
-1.57644
5.06759
-1.68413
4.50106
-1.71271
3.7446
-1.60637
2.94103
-1.24597
1.95545
-0.473104
0.622215
-0.151402
-0.00330953
0.384115
-0.0112177
0.946551
-0.0225373
1.37195
-0.0369697
1.71639
-0.0549736
2.05035
-0.0771058
2.38774
-0.105157
2.75116
-0.142228
3.1481
-0.194021
3.57734
-0.268687
4.03041
-0.420614
3.91734
-0.797177
3.87756
-1.3669
5.04068
-1.59469
5.29538
-1.66131
4.56768
-1.62919
3.71249
-1.36438
2.67622
-0.63834
1.22942
-0.0167896
0.000664489
-0.168192
-0.00271285
0.386828
-0.0115575
0.955395
-0.0233453
1.38373
-0.037883
1.73093
-0.0561814
2.06865
-0.0794415
2.411
-0.10973
2.78145
-0.150139
3.18851
-0.205547
3.63275
-0.296948
4.12181
-0.48171
4.1021
-0.920119
4.31597
-1.44038
5.56094
-1.59655
5.45155
-1.63039
4.60152
-1.47904
3.56114
-0.973218
2.17039
-0.165833
0.422032
0.038697
-0.203865
-0.129494
-0.00209972
0.388928
-0.00973343
0.963029
-0.021861
1.39586
-0.0377097
1.74678
-0.0576319
2.08857
-0.0824991
2.43587
-0.114637
2.81359
-0.157774
3.23164
-0.215956
3.69093
-0.316486
4.22234
-0.528545
4.31416
-1.03963
4.82706
-1.4713
5.9926
-1.57178
5.55204
-1.54719
4.57693
-1.26179
3.27574
-0.500281
1.40888
0.00708222
-0.0853312
0.0251626
-0.221946
-0.104332
-0.00113436
0.390062
-0.00902672
0.970921
-0.0211218
1.40796
-0.0366066
1.76227
-0.0562894
2.10825
-0.0818629
2.46144
-0.116003
2.84773
-0.162764
3.2784
-0.225618
3.75378
-0.335614
4.33233
-0.579585
4.55814
-1.13373
5.38121
-1.4487
6.30757
-1.50272
5.60606
-1.41038
4.48459
-0.9719
2.83726
-0.153992
0.590975
0.0191014
-0.258425
0.0176833
-0.220528
-0.0866485
0.00105057
0.389011
-0.00484407
0.976816
-0.0167792
1.41989
-0.0333039
1.77879
-0.0545278
2.12948
-0.0815263
2.48844
-0.117065
2.88327
-0.165725
3.32706
-0.231658
3.81972
-0.3509
4.45157
-0.632655
4.83989
-1.1869
5.93545
-1.40741
6.52808
-1.43049
5.62914
-1.21123
4.26533
-0.573744
2.19977
-0.00751553
0.0247469
0.0128611
-0.278801
0.0061152
-0.213782
-0.0805333
0.00256304
0.386448
-0.00199409
0.981373
-0.0129651
1.43086
-0.0283527
1.79418
-0.0483986
2.14952
-0.0752056
2.51524
-0.111759
2.91982
-0.162235
3.37754
-0.234311
3.89179
-0.365486
4.58275
-0.679027
5.15343
-1.18749
6.44392
-1.33495
6.67554
-1.30897
5.60316
-0.986159
3.94252
-0.282687
1.4963
-0.0213845
-0.236556
-0.00364993
-0.296536
-0.00275413
-0.214678
-0.0832875
0.00671983
0.379729
0.00585869
0.982234
-0.00352298
1.44025
-0.0192585
1.80991
-0.0404132
2.17068
-0.0681165
2.54295
-0.105016
2.95672
-0.155507
3.42803
-0.229665
3.96595
-0.369038
4.72212
-0.706972
5.49137
-1.1429
6.87984
-1.21267
6.74531
-1.15159
5.54208
-0.791088
3.58202
-0.0577412
0.762951
0.0175018
-0.311799
0.0233883
-0.302422
0.00937929
-0.200669
-0.0739082
0.0102923
0.369436
0.0128301
0.979696
0.00608992
1.44699
-0.00721795
1.82322
-0.0258738
2.18933
-0.0520452
2.56912
-0.0883815
2.99306
-0.137998
3.47765
-0.216409
4.04436
-0.365469
4.87118
-0.707296
5.8332
-1.0496
7.22215
-1.09223
6.78793
-0.967254
5.41711
-0.521532
3.13629
0.0718439
0.169575
0.0780345
-0.317989
0.0614847
-0.285872
0.0237245
-0.162909
-0.0501837
0.0175624
0.351874
0.0271269
0.970132
0.0244765
1.44964
0.0122575
1.83544
-0.00678055
2.20837
-0.032946
2.59528
-0.0682363
3.02835
-0.115661
3.52507
-0.189081
4.11778
-0.324933
5.00703
-0.662165
6.17043
-0.924017
7.484
-0.950282
6.8142
-0.778431
5.24526
-0.29327
2.65113
0.0448571
-0.168551
0.073865
-0.346997
0.061588
-0.273595
0.0226876
-0.124008
-0.0274961
0.0246207
0.327253
0.0416419
0.953111
0.0441164
1.44716
0.0363124
1.84324
0.0218541
2.22283
-0.000913011
2.61805
-0.033728
3.06116
-0.0795014
3.57084
-0.147726
4.18601
-0.269864
5.12917
-0.575346
6.47591
-0.762525
7.67118
-0.779085
6.83076
-0.625652
5.09182
-0.199214
2.22469
-0.0852014
-0.282564
-0.0191691
-0.41303
0.0249561
-0.317721
0.015922
-0.114974
-0.0115741
0.0366243
0.290629
0.0658802
0.923855
0.0762355
1.43681
0.0720478
1.84743
0.0594529
2.23543
0.0385149
2.63899
0.00914063
3.09054
-0.0325485
3.61253
-0.09361
4.24707
-0.193004
5.22857
-0.423798
6.7067
-0.560119
7.8075
-0.592051
6.86269
-0.469531
4.9693
-0.127276
1.88244
-0.125121
-0.284719
-0.0789611
-0.459189
-0.0197514
-0.37693
0.0179154
-0.152641
0.00634128
0.0487364
0.241893
0.0919682
0.880623
0.111498
1.41728
0.115296
1.84363
0.110765
2.23996
0.0961555
2.6536
0.0726495
3.11404
0.0352341
3.64995
-0.0214176
4.30372
-0.109039
5.31619
-0.225906
6.82357
-0.309686
7.89128
-0.343879
6.89689
-0.29597
4.92139
-0.137725
1.7242
-0.253259
-0.169185
-0.21676
-0.495688
-0.12959
-0.464101
-0.00893086
-0.2733
-0.00258958
0.0641191
0.177773
0.126619
0.818123
0.162957
1.38094
0.176752
1.82984
0.177649
2.23906
0.168075
2.66317
0.151233
3.13088
0.122953
3.67823
0.081243
4.34543
0.038429
5.359
0.0208167
6.84118
0.00424203
7.90786
-0.045133
6.94626
-0.0844435
4.9607
-0.152849
1.7926
-0.404003
0.081969
-0.393384
-0.506307
-0.277832
-0.579653
-0.0946462
-0.456486
-0.0972357
0.0662973
0.111476
0.160461
0.72396
0.220695
1.3207
0.251175
1.79936
0.263697
2.22654
0.263863
2.66301
0.255648
3.1391
0.23997
3.69391
0.214199
4.3712
0.202894
5.37031
0.28838
6.7557
0.358209
7.83803
0.391162
6.91331
0.283545
5.06832
-0.0033268
2.07947
-0.310283
0.388925
-0.416807
-0.399783
-0.334538
-0.661921
-0.171632
-0.619392
-0.268868
0.0573629
0.0541133
0.19688
0.584443
0.29835
1.21923
0.349615
1.74809
0.370835
2.20532
0.38018
2.65366
0.38022
3.13906
0.384155
3.68997
0.376241
4.37912
0.368859
5.37769
0.582301
6.54225
0.795175
7.62515
0.903708
6.80477
0.798564
5.17346
0.240279
2.63776
-0.0215614
0.650766
-0.178762
-0.242582
-0.232945
-0.607739
-0.158107
-0.69423
-0.426975
0.0425957
0.0115175
0.242066
0.384973
0.376189
1.08511
0.454642
1.66964
0.499791
2.16017
0.526148
2.6273
0.538453
3.12675
0.55583
3.67259
0.581411
4.35354
0.635487
5.32361
0.949684
6.22806
1.32923
7.2456
1.56636
6.56765
1.53067
5.20915
0.882021
3.28641
0.38369
1.1491
0.0968553
0.0442526
-0.0959456
-0.414938
-0.124205
-0.665971
-0.55118
0.0259226
-0.014405
0.241245
0.16965
0.464996
0.86136
0.595983
1.53865
0.662341
2.09381
0.701392
2.58825
0.729645
3.0985
0.755056
3.64718
0.816849
4.29174
0.942632
5.19783
1.35786
5.81283
1.90509
6.69837
2.20596
6.26678
2.32194
5.09318
2.02368
3.58467
1.2849
1.88787
0.676891
0.652267
0.251262
0.010691
0.0445138
-0.459223
-0.506666
0.0234767
-0.0378818
0.16733
0.0257968
0.523489
0.505201
0.741881
1.32026
0.851313
1.98438
0.909334
2.53023
0.955493
3.05234
0.989044
3.61363
1.07591
4.20488
1.24241
5.03132
1.67163
5.38361
2.43644
5.93356
2.7249
5.97832
2.9003
4.91778
2.67894
3.80603
1.98087
2.58594
1.23363
1.39951
0.66894
0.575379
0.245124
-0.0354061
-0.261542
0.0018646
-0.0397464
0.0719884
-0.0443271
0.413656
0.163533
0.747593
0.986325
0.914149
1.81782
0.968594
2.47579
0.982384
3.03855
0.979245
3.61677
0.995471
4.18865
1.06058
4.96621
1.28094
5.16325
1.81161
5.40289
1.8243
5.96563
1.88746
4.85462
1.78454
3.90895
1.44317
2.92731
0.931665
1.91102
0.502319
1.00473
0.190075
0.276838
-0.0714671
0.000833111
-0.0405795
0.0384037
-0.0818977
0.19683
0.00510736
0.562206
0.620949
0.777115
1.60291
0.857778
2.39512
0.87678
3.01955
0.878347
3.61521
0.858406
4.20859
0.893128
4.93149
0.986868
5.06951
1.27533
5.11443
1.56689
5.67407
1.56559
4.85592
1.50698
3.96755
1.31975
3.11453
0.981885
2.24888
0.608688
1.37792
0.239597
0.645929
0.16813
-0.00474071
-0.0358388
0.00742414
-0.0940625
0.0740106
-0.0614791
0.389464
0.305495
0.627391
1.36499
0.736164
2.28635
0.759144
2.99657
0.756634
3.61772
0.729477
4.23575
0.734208
4.92676
0.777078
5.02665
0.998349
4.89316
1.24613
5.42629
1.22857
4.87349
1.16399
4.03213
1.03049
3.24803
0.806558
2.47282
0.518137
1.66634
0.218381
0.945684
0.386511
-0.00863447
-0.0272043
-0.000334286
-0.102363
0.0402474
-0.102061
0.23978
0.105962
0.479518
1.12525
0.587783
2.17809
0.611623
2.97273
0.61472
3.61462
0.597535
4.25294
0.593327
4.93097
0.610097
5.00987
0.735455
4.7678
0.900827
5.26092
0.881745
4.89257
0.81546
4.09841
0.710414
3.35308
0.556338
2.62689
0.358559
1.86412
0.153613
1.15063
0.540124
0.00191162
-0.0291159
0.0357059
-0.136157
0.0816635
-0.148018
0.163963
0.0236626
0.357954
0.931258
0.446574
2.08947
0.470739
2.94857
0.476508
3.60885
0.470725
4.25872
0.467874
4.93382
0.466033
5.01172
0.515761
4.71807
0.603816
5.17286
0.609333
4.88705
0.547074
4.16067
0.457595
3.44256
0.3527