/*--------------------------------*- C++ -*----------------------------------*\
  =========                 |
  \\      /  F ield         | OpenFOAM: The Open Source CFD Toolbox
   \\    /   O peration     | Website:  https://openfoam.org
    \\  /    A nd           | Version:  6
     \\/     M anipulation  |
\*---------------------------------------------------------------------------*/
FoamFile
{
    version     2.0;
    format      ascii;
    class       volScalarField;
    location    "7.5";
    object      Ma;
}
// * * * * * * * * * * * * * * * * * * * * * * * * * * * * * * * * * * * * * //

dimensions      [0 0 0 0 0 0 0];

internalField   nonuniform List<scalar> 
5250
(
2.99999
2.99997
2.9999
2.9998
2.99937
2.99878
2.9964
2.99293
2.97984
2.95792
2.88982
2.73853
2.4059
1.66588
0.628169
0.067904
0.167265
0.285747
0.328384
0.302671
0.240595
0.169889
0.120845
0.0799858
0.0516814
2.99999
2.99997
2.9999
2.9998
2.99938
2.99879
2.99641
2.99296
2.97993
2.9581
2.89026
2.73961
2.40812
1.66978
0.633715
0.0770619
0.175572
0.291995
0.332534
0.305957
0.245164
0.177961
0.132558
0.0961343
0.0737538
2.99999
2.99998
2.9999
2.9998
2.99938
2.9988
2.99644
2.99303
2.9801
2.95851
2.8912
2.74208
2.41317
1.67853
0.648523
0.0978797
0.191693
0.301896
0.339612
0.31284
0.255124
0.195048
0.156753
0.127716
0.111497
2.99999
2.99998
2.9999
2.9998
2.99939
2.99882
2.9965
2.99313
2.98038
2.95914
2.89269
2.74589
2.42116
1.69293
0.670729
0.126804
0.21345
0.314215
0.349627
0.324341
0.271999
0.220661
0.19025
0.168251
0.157056
2.99999
2.99998
2.99991
2.99981
2.9994
2.99884
2.99657
2.99327
2.98077
2.96002
2.89479
2.75121
2.43237
1.71312
0.701478
0.163214
0.2397
0.328263
0.362173
0.339877
0.294505
0.251854
0.228692
0.212854
0.205844
2.99999
2.99998
2.99991
2.99981
2.99942
2.99887
2.99666
2.99346
2.98128
2.96117
2.89755
2.7582
2.44712
1.73982
0.741455
0.206917
0.268751
0.343241
0.377124
0.359231
0.321864
0.28798
0.271778
0.261805
0.258968
3
2.99998
2.99991
2.99982
2.99944
2.99892
2.99678
2.99371
2.98194
2.96265
2.90109
2.76711
2.46598
1.77425
0.791663
0.258238
0.297658
0.359692
0.394381
0.381843
0.352963
0.328428
0.32007
0.31706
0.320658
3
2.99998
2.99992
2.99983
2.99947
2.99897
2.99694
2.99402
2.98277
2.9645
2.90557
2.77848
2.48963
1.81987
0.855315
0.315996
0.323991
0.380321
0.414835
0.408316
0.388066
0.373464
0.374168
0.380618
0.396264
3
2.99998
2.99992
2.99984
2.99951
2.99904
2.99713
2.9944
2.98379
2.9668
2.91104
2.79262
2.51868
1.8773
0.936312
0.380308
0.350493
0.400082
0.436163
0.437276
0.427012
0.423897
0.434733
0.456861
0.500062
3
2.99998
2.99993
2.99986
2.99956
2.99914
2.99746
2.99495
2.9857
2.96973
2.91979
2.80743
2.55637
1.94131
1.01991
0.45096
0.374255
0.41841
0.458665
0.468547
0.468527
0.47733
0.503237
0.554436
0.662939
3
2.99998
2.99996
2.99985
2.9997
2.99909
2.99819
2.99493
2.98912
2.97129
2.93031
2.83289
2.57059
2.08039
1.09175
0.527335
0.38725
0.429422
0.478303
0.500395
0.511903
0.533202
0.578617
0.668589
0.826627
3
2.99999
2.99996
2.99987
2.99973
2.99919
2.9984
2.99542
2.99046
2.97434
2.93942
2.85253
2.62444
2.18966
1.26638
0.630831
0.413985
0.449404
0.504971
0.535518
0.555041
0.588004
0.647914
0.754751
0.908237
3
2.99999
2.99996
2.99991
2.99971
2.99942
2.99828
2.99659
2.99019
2.97983
2.94561
2.8747
2.70032
2.2827
1.50454
0.733238
0.460843
0.491891
0.545773
0.579192
0.601034
0.638064
0.702948
0.803224
0.930021
3
2.99999
2.99996
2.99992
2.99974
2.99949
2.99849
2.99706
2.99144
2.98286
2.95268
2.89711
2.74529
2.40667
1.71167
0.82188
0.498739
0.540222
0.591216
0.626323
0.64885
0.685164
0.746528
0.833431
0.940493
3
3
2.99997
2.99993
2.99978
2.99957
2.99871
2.9975
2.99269
2.98543
2.95953
2.91199
2.78262
2.47932
1.86698
0.903095
0.542115
0.582956
0.629308
0.667203
0.69092
0.724586
0.781634
0.856147
0.948573
3
3
2.99998
2.99994
2.99982
2.99964
2.99893
2.99792
2.99392
2.98783
2.96669
2.92509
2.81627
2.54272
2.02429
1.04733
0.634149
0.614667
0.656848
0.694611
0.723598
0.757011
0.808472
0.875808
0.956416
3
3
2.99998
2.99996
2.99985
2.9997
2.99911
2.99827
2.99494
2.98993
2.97216
2.93866
2.8466
2.61813
2.17559
1.25512
0.754659
0.641346
0.671365
0.709109
0.747273
0.782487
0.829596
0.891103
0.963414
3
3
2.99999
2.99997
2.99988
2.99976
2.99929
2.99862
2.99594
2.99197
2.97759
2.95165
2.87725
2.69785
2.3377
1.51294
0.901682
0.688564
0.698422
0.729385
0.769975
0.806893
0.849674
0.904735
0.969011
3.00001
3
2.99999
2.99997
2.99991
2.99982
2.99944
2.99892
2.99682
2.99378
2.98225
2.9635
2.90467
2.77753
2.49398
1.8667
1.07109
0.764796
0.747916
0.765444
0.796937
0.833096
0.871574
0.920198
0.976133
3.00001
3
2.99999
2.99998
2.99993
2.99986
2.99957
2.99916
2.99753
2.9952
2.98614
2.97201
2.92477
2.82706
2.60003
2.04775
1.24291
0.837405
0.786755
0.800768
0.826777
0.861254
0.896163
0.937025
0.985308
3.00001
3
3
2.99999
2.99995
2.99989
2.99967
2.99937
2.99813
2.99635
2.98958
2.97865
2.94298
2.86655
2.68915
2.23732
1.48633
0.961924
0.824653
0.830432
0.853324
0.886955
0.91916
0.956735
0.997451
3.00001
3.00001
3
2.99999
2.99996
2.99992
2.99976
2.99952
2.99859
2.99727
2.9921
2.98428
2.95669
2.90688
2.76956
2.46781
1.83494
1.12022
0.882945
0.870324
0.884897
0.912422
0.942639
0.975476
1.01314
3.00001
3.00001
3
3
2.99997
2.99994
2.99982
2.99965
2.99896
2.99799
2.99416
2.98846
2.96789
2.93153
2.82965
2.59435
2.10992
1.276
0.940834
0.899281
0.913501
0.937339
0.967207
0.996095
1.02902
3.00001
3.00001
3
3
2.99998
2.99996
2.99987
2.99975
2.99926
2.99854
2.99579
2.99163
2.97688
2.95018
2.87392
2.69377
2.32501
1.55559
1.07304
0.940236
0.94102
0.959167
0.988189
1.01741
1.04616
3.00001
3.00001
3.00001
3
2.99999
2.99997
2.99993
2.99978
2.99957
2.99875
2.99752
2.99301
2.98571
2.96163
2.91609
2.79097
2.52918
1.92176
1.24884
1.00742
0.978396
0.987613
1.01023
1.03937
1.06587
3.00001
3.00001
3.00001
3
3
2.99998
2.99995
2.99985
2.9997
2.99911
2.99825
2.99497
2.99
2.97235
2.941
2.85261
2.65181
2.2198
1.45737
1.09176
1.01422
1.01656
1.03275
1.058
1.08349
3.00001
3.00001
3.00001
3
3
2.99999
2.99996
2.99992
2.99975
2.99949
2.99854
2.99711
2.99183
2.98334
2.95538
2.90099
2.75981
2.43997
1.7911
1.23535
1.06371
1.04938
1.05908
1.07881
1.10353
3.00001
3.00001
3.00001
3.00001
3
3
2.99998
2.99994
2.99983
2.99965
2.99899
2.99802
2.99433
2.98864
2.96887
2.93408
2.83108
2.62786
2.11094
1.44426
1.14253
1.08408
1.08489
1.09942
1.1197
3.00001
3.00001
3.00001
3.00001
3
3
2.99999
2.99996
2.99991
2.99972
2.99945
2.99842
2.99686
2.99118
2.98197
2.952
2.89205
2.74274
2.39413
1.72524
1.27172
1.13271
1.11412
1.11883
1.13117
3.00001
3.00001
3.00001
3.00001
3.00001
3
2.99999
2.99998
2.99993
2.99985
2.99957
2.99915
2.99758
2.99517
2.98666
2.97216
2.92786
2.83298
2.61573
2.12213
1.45351
1.19988
1.1533
1.14644
1.1465
3.00001
3.00001
3.00001
3.00001
3.00001
3
3
2.99999
2.99996
2.99989
2.99977
2.99933
2.99868
2.99624
2.99249
2.97948
2.95617
2.88905
2.73694
2.41283
1.74184
1.31207
1.18297
1.16456
1.15715
3.00001
3.00001
3.00001
3.00001
3.00001
3
3
2.99999
2.99998
2.99993
2.99985
2.99956
2.99914
2.9975
2.99515
2.98627
2.97234
2.92691
2.83838
2.6203
2.1438
1.50913
1.24432
1.1856
1.16108
3.00001
3.00001
3.00001
3.00001
3.00001
3.00001
3
3
2.99999
2.99996
2.99991
2.99972
2.99945
2.9984
2.99688
2.99116
2.9823
2.95235
2.89555
2.75122
2.40817
1.78128
1.35205
1.20552
1.1502
3.00001
3.00001
3.00001
3.00001
3.00001
3.00001
3.00001
3
2.99999
2.99998
2.99993
2.99986
2.99958
2.99917
2.99766
2.99534
2.98709
2.97334
2.93083
2.84275
2.63275
2.17161
1.5289
1.24763
1.12595
3.00001
3.00001
3.00001
3.00001
3.00001
3.00001
3.00001
3
3
2.99999
2.99997
2.99989
2.99978
2.99936
2.99873
2.99644
2.99285
2.98051
2.95872
2.89542
2.75728
2.44986
1.83932
1.32488
1.06058
3.00001
3.00001
3.00001
3.00001
3.00001
3.00001
3.00001
3.00001
3
3
2.99997
2.99994
2.99982
2.99964
2.99895
2.99792
2.99411
2.98807
2.96775
2.93001
2.82684
2.60013
2.10549
1.38621
0.929813
3.00001
3.00001
3.00001
3.00001
3.00001
3.00001
3.00001
3.00001
3
3
2.99998
2.99996
2.99986
2.99972
2.99918
2.9984
2.99532
2.99081
2.9742
2.9453
2.86217
2.66855
2.28182
1.49419
0.774347
3.00001
3.00001
3.00001
3.00001
3.00001
3.00001
3.00001
3.00001
3
3
2.99999
2.99997
2.99989
2.99977
2.99932
2.99866
2.99609
2.99208
2.97836
2.95134
2.878
2.69632
2.33604
1.54489
0.638293
3.00001
3.00001
3.00001
3.00001
3.00001
3.00001
3.00001
3.00001
3.00001
3
2.99999
2.99996
2.99992
2.99976
2.99951
2.99854
2.99704
2.99149
2.98198
2.95129
2.88455
2.72165
2.32945
1.55478
0.544201
3.00001
3.00001
3.00001
3.00001
3.00001
3.00001
3.00001
3.00001
3.00001
3
2.99999
2.99998
2.99992
2.99983
2.99948
2.99894
2.997
2.99326
2.98216
2.95559
2.89168
2.71766
2.37739
1.60139
0.557828
3.00001
3.00001
3.00001
3.00001
3.00001
3.00001
3.00001
3.00001
3.00001
3
3
2.99997
2.99994
2.99979
2.99957
2.9987
2.99734
2.99225
2.98328
2.95467
2.89015
2.73535
2.35386
1.58633
0.534821
3.00001
3.00001
3.00001
3.00001
3.00001
3.00001
3.00001
3.00001
3.00001
3
2.99999
2.99998
2.99993
2.99985
2.99953
2.99902
2.99718
2.99357
2.98282
2.95704
2.89467
2.72472
2.39103
1.6201
0.554921
3.00001
3.00001
3.00001
3.00001
3.00001
3.00001
3.00001
3.00001
3.00001
3
3
2.99997
2.99994
2.99979
2.99958
2.99869
2.99738
2.9921
2.98357
2.95383
2.89452
2.73445
2.37156
1.59527
0.542773
3.00001
3.00001
3.00001
3.00001
3.00001
3.00001
3.00001
3.00001
3.00001
3
3
2.99997
2.99994
2.99979
2.99959
2.99869
2.99741
2.99205
2.98382
2.95339
2.89747
2.73467
2.38425
1.59849
0.547364
3.00001
3.00001
3.00001
3.00001
3.00001
3.00001
3.00001
3.00001
3.00001
3
3
2.99998
2.99994
2.99981
2.99962
2.99877
2.99757
2.99247
2.98462
2.95517
2.90089
2.74081
2.39482
1.6111
0.568067
3.00001
3.00001
3.00001
3.00001
3.00001
3.00001
3.00001
3.00001
3.00001
3
3
2.99998
2.99995
2.99984
2.99967
2.99897
2.99788
2.99344
2.98615
2.95896
2.90513
2.75267
2.40903
1.63227
0.608424
3.00001
3.00001
3.00001
3.00001
3.00001
3.00001
3.00001
3.00001
3.00001
3
3
2.99999
2.99995
2.99988
2.99964
2.99925
2.99778
2.99507
2.98609
2.96612
2.90986
2.76803
2.45698
1.71167
0.658148
3.00001
3.00001
3.00001
3.00001
3.00001
3.00001
3.00001
3.00001
3.00001
3
3
2.99999
2.99995
2.99989
2.99964
2.99928
2.99779
2.99549
2.98656
2.96999
2.91664
2.78972
2.49337
1.77075
0.728752
3.00001
3.00001
3.00001
3.00001
3.00001
3.00001
3.00001
3.00001
3.00001
3
3
2.99999
2.99995
2.9999
2.99967
2.99935
2.99805
2.99593
2.9886
2.97271
2.92813
2.80737
2.53861
1.84309
0.791675
3.00001
3.00001
3.00001
3.00001
3.00001
3.00001
3.00001
3.00001
3.00001
3
3
2.99999
2.99996
2.99988
2.99975
2.99926
2.9985
2.99584
2.99035
2.97487
2.93279
2.83368
2.54054
1.956
0.819575
0.965252
0.966896
0.534955
0.270307
0.19565
0.243984
0.322442
0.391647
0.451906
0.502155
0.542937
0.580742
0.615334
0.650185
0.677417
0.692555
0.696118
0.694553
0.684825
0.663729
0.632863
0.594541
0.553445
0.511861
0.471368
0.432718
0.395138
0.359102
0.324699
0.291556
0.259584
0.228753
0.198703
0.168778
0.138899
0.109054
0.0802498
0.0520185
0.0269918
0.0190016
0.0429029
0.0653546
0.0883817
0.111332
0.134296
0.156102
0.177779
0.199756
0.221926
0.243458
0.264449
0.284788
0.304745
0.324339
0.343592
0.362508
0.381242
0.399488
0.417714
0.435563
0.45323
0.470696
0.48792
0.504975
0.521699
0.538494
0.554805
0.571129
0.587236
0.602983
0.618829
0.634153
0.649513
0.664575
0.67935
0.694016
0.708312
0.722516
0.736261
0.750125
0.76326
0.776821
0.789484
0.802632
0.815106
0.827701
0.840171
0.852283
0.864606
0.876493
0.88843
0.900161
0.911585
0.922927
0.933674
0.94416
0.95361
0.962089
0.968368
0.972917
0.986184
0.936504
0.685409
0.332439
0.214846
0.14606
0.081799
0.147183
0.213488
0.265522
0.306382
0.345992
0.38457
0.422269
0.45539
0.47377
0.475599
0.46949
0.456232
0.432412
0.398346
0.358123
0.316533
0.276161
0.238145
0.202394
0.168864
0.136625
0.106049
0.0771835
0.0516168
0.0357851
0.0429232
0.0642483
0.0860978
0.108505
0.13216
0.155673
0.179043
0.201723
0.223521
0.244515
0.26541
0.286251
0.306783
0.326498
0.3458
0.365389
0.385062
0.404288
0.423175
0.441414
0.459564
0.477185
0.49463
0.51181
0.528659
0.545352
0.561756
0.57811
0.593989
0.610077
0.625548
0.641205
0.656491
0.671648
0.686773
0.701519
0.716281
0.730782
0.745019
0.759247
0.773014
0.786866
0.800188
0.813656
0.826443
0.83959
0.851789
0.864615
0.876313
0.888717
0.900131
0.911992
0.923318
0.934662
0.945915
0.956922
0.967987
0.978858
0.989605
1.00041
1.01087
1.02145
1.03147
1.04122
1.05002
1.05785
1.06368
1.06761
0.987362
0.974632
0.871099
0.691198
0.572885
0.477095
0.375016
0.281809
0.195387
0.126598
0.0663117
0.0995511
0.143153
0.183375
0.218701
0.240478
0.237284
0.218189
0.202643
0.178424
0.145288
0.11353
0.0863813
0.0709192
0.0718347
0.0877478
0.105703
0.126349
0.148637
0.171441
0.1946
0.217988
0.240884
0.262885
0.284149
0.305243
0.326192
0.346792
0.367016
0.386648
0.405563
0.423933
0.442013
0.459954
0.477639
0.494517
0.511143
0.527705
0.544772
0.561525
0.577806
0.593789
0.609444
0.624922
0.640154
0.655351
0.670115
0.685102
0.699584
0.714246
0.728593
0.7428
0.757056
0.770855
0.78494
0.798537
0.812313
0.825809
0.839248
0.852557
0.865666
0.878682
0.89141
0.904097
0.916353
0.928756
0.940499
0.952611
0.963875
0.97558
0.986525
0.997646
1.00849
1.01896
1.02978
1.03977
1.05044
1.06023
1.0707
1.08041
1.09089
1.10058
1.11092
1.12028
1.13006
1.1387
1.14738
1.15432
1.16022
1.16342
1.0076
1.02938
0.994549
0.908242
0.820552
0.744439
0.664059
0.581114
0.497746
0.418716
0.346728
0.281536
0.221379
0.165416
0.116169
0.0746459
0.0415128
0.0624047
0.0937372
0.130719
0.175367
0.210807
0.239913
0.265313
0.28809
0.309123
0.328927
0.348709
0.368335
0.387986
0.407395
0.42685
0.445634
0.463921
0.481476
0.498806
0.515811
0.532456
0.548885
0.564684
0.580223
0.595174
0.609997
0.624765
0.63919
0.653141
0.666525
0.680181
0.694103
0.708244
0.721853
0.735471
0.748362
0.761583
0.774134
0.787047
0.799471
0.812034
0.824384
0.836584
0.84886
0.860836
0.873009
0.884932
0.896944
0.908855
0.920695
0.932554
0.944275
0.95605
0.967662
0.979334
0.990729
1.00228
1.01335
1.02474
1.03544
1.04659
1.05698
1.0677
1.07792
1.08808
1.09826
1.1079
1.11802
1.12737
1.13735
1.14677
1.15674
1.16642
1.17617
1.18576
1.19518
1.20458
1.21354
1.22238
1.23037
1.23778
1.24327
1.24713
1.02224
1.06271
1.06652
1.03088
0.981482
0.928777
0.872941
0.810256
0.745746
0.678954
0.613341
0.551153
0.493537
0.441
0.395635
0.360131
0.342314
0.34467
0.367818
0.398309
0.430027
0.460866
0.48648
0.507122
0.524086
0.539343
0.553532
0.567614
0.581747
0.595951
0.610231
0.624144
0.637845
0.650976
0.663773
0.67621
0.688376
0.700374
0.712039
0.723667
0.734824
0.745969
0.756992
0.768107
0.77918
0.790196
0.800614
0.811327
0.822027
0.833631
0.844604
0.855947
0.866582
0.877667
0.888351
0.899355
0.910196
0.921076
0.931981
0.942754
0.953645
0.964377
0.975208
0.985933
0.996678
1.00736
1.01799
1.02857
1.03904
1.04949
1.05977
1.07018
1.08021
1.09065
1.10041
1.11083
1.12033
1.13059
1.13993
1.14986
1.15915
1.16866
1.17794
1.18711
1.19633
1.20549
1.21475
1.22398
1.23294
1.24202
1.25067
1.25957
1.26797
1.27656
1.28462
1.29261
1.29994
1.30658
1.31183
1.31496
1.03122
1.08179
1.10565
1.10129
1.08013
1.0498
1.01399
0.97292
0.927167
0.878851
0.828401
0.776023
0.72329
0.671122
0.624894
0.590103
0.572376
0.577079
0.598361
0.6293
0.662143
0.691404
0.715795
0.731864
0.74287
0.750267
0.757207
0.764267
0.771854
0.779721
0.787814
0.795948
0.803882
0.811695
0.819222
0.826566
0.833859
0.841052
0.848265
0.855375
0.862506
0.869675
0.876878
0.884396
0.891962
0.899682
0.906856
0.914387
0.922125
0.931052
0.939928
0.949108
0.958002
0.967038
0.97617
0.985352
0.994821
1.00415
1.0138
1.02327
1.033
1.04265
1.05244
1.06225
1.07209
1.08201
1.09186
1.10184
1.1116
1.12158
1.13114
1.14112
1.15042
1.1604
1.16946
1.17936
1.18826
1.19797
1.20681
1.21619
1.22508
1.23414
1.2432
1.25217
1.26144
1.27029
1.27941
1.28808
1.29698
1.3055
1.31416
1.32252
1.33098
1.33909
1.34724
1.35485
1.36231
1.36876
1.37421
1.3773
1.03486
1.09036
1.12646
1.14095
1.1397
1.12787
1.10885
1.08435
1.05507
1.02122
0.98371
0.940951
0.895211
0.848986
0.806592
0.775245
0.75959
0.764408
0.78492
0.817756
0.853925
0.884398
0.908314
0.922568
0.92833
0.926422
0.923647
0.921827
0.921297
0.92232
0.924355
0.926856
0.929796
0.932801
0.936043
0.939338
0.942939
0.946791
0.950846
0.955345
0.959806
0.964813
0.969772
0.975434
0.981067
0.987314
0.992833
0.998902
1.00496
1.0123
1.01979
1.02762
1.03532
1.04297
1.05085
1.05863
1.06689
1.07494
1.0835
1.09176
1.10051
1.10902
1.11788
1.12659
1.1355
1.14438
1.15331
1.16237
1.17128
1.18057
1.18944
1.19895
1.20777
1.21741
1.22617
1.23579
1.24454
1.25394
1.26273
1.27186
1.28075
1.28961
1.29855
1.30709
1.31595
1.32421
1.3329
1.34097
1.34944
1.35738
1.36566
1.37346
1.38155
1.38914
1.39697
1.40415
1.41136
1.41757
1.42296
1.426
1.03592
1.09274
1.13534
1.16259
1.17467
1.17749
1.17181
1.15983
1.1427
1.11919
1.08935
1.05349
1.01183
0.97112
0.932501
0.903174
0.889888
0.896797
0.918059
0.952728
0.990622
1.02231
1.0441
1.05874
1.06418
1.05976
1.04993
1.04012
1.03261
1.02809
1.02566
1.02473
1.02455
1.02509
1.02592
1.02716
1.02865
1.03065
1.03281
1.03559
1.03843
1.04192
1.0455
1.04968
1.05405
1.05889
1.06337
1.068
1.07298
1.07872
1.08523
1.09179
1.09874
1.10549
1.11273
1.11977
1.12744
1.13486
1.14288
1.15061
1.15879
1.16673
1.17502
1.18316
1.19155
1.19989
1.20836
1.21691
1.22539
1.23416
1.24259
1.2515
1.25985
1.26882
1.27715
1.28607
1.2945
1.3033
1.31185
1.32045
1.32913
1.33753
1.34631
1.35448
1.36323
1.37119
1.37983
1.38766
1.39615
1.40391
1.41223
1.41991
1.42804
1.43555
1.44338
1.45055
1.45774
1.46404
1.46948
1.47276
1.03635
1.09254
1.13805
1.17228
1.19466
1.20688
1.2118
1.20931
1.19963
1.18251
1.15586
1.12248
1.0849
1.04493
1.00381
0.977192
0.970463
0.980262
1.0053
1.0437
1.08647
1.11995
1.14183
1.15608
1.16421
1.16487
1.15703
1.14412
1.13137
1.12103
1.1141
1.10931
1.1064
1.10437
1.10321
1.10256
1.10222
1.10224
1.1027
1.1035
1.10469
1.10635
1.10832
1.11085
1.11365
1.11701
1.12014
1.12354
1.12708
1.13157
1.1368
1.14234
1.14819
1.1541
1.1604
1.16664
1.17328
1.17986
1.18687
1.19388
1.20122
1.20861
1.21617
1.22389
1.23164
1.23971
1.24761
1.25604
1.26407
1.27284
1.28095
1.28997
1.29814
1.30728
1.31553
1.3246
1.33288
1.34175
1.35004
1.35869
1.36701
1.37542
1.38375
1.39191
1.40022
1.40814
1.41636
1.42413
1.4322
1.43988
1.44775
1.45534
1.46299
1.47041
1.47777
1.48487
1.49166
1.49796
1.50316
1.50657
1.03913
1.09137
1.138
1.1755
1.2038
1.22325
1.23444
1.2384
1.233
1.21669
1.19104
1.16008
1.12178
1.07545
1.03394
1.01696
1.01765
1.03206
1.06285
1.1061
1.14968
1.18484
1.20908
1.22335
1.23314
1.23676
1.23455
1.22535
1.21165
1.19683
1.18434
1.17434
1.16733
1.1622
1.159
1.15651
1.15493
1.15354
1.15279
1.15224
1.15234
1.15292
1.1539
1.15538
1.1573
1.1598
1.16233
1.16488
1.16781
1.17139
1.17585
1.18067
1.18597
1.19136
1.19724
1.2031
1.2094
1.21564
1.2223
1.22896
1.23592
1.24298
1.25013
1.25753
1.26483
1.27259
1.28002
1.28816
1.29572
1.30421
1.31191
1.32067
1.32853
1.33736
1.34538
1.3542
1.36243
1.37117
1.37958
1.38816
1.39663
1.40496
1.41342
1.42144
1.42982
1.43757
1.4458
1.45335
1.46138
1.46881
1.47662
1.48394
1.49152
1.49868
1.50595
1.51278
1.51944
1.5255
1.53057
1.53386
1.04406
1.0923
1.13654
1.17561
1.20657
1.22979
1.24438
1.25029
1.24362
1.22611
1.20126
1.16838
1.12145
1.07128
1.04163
1.03487
1.04161
1.0639
1.10168
1.14747
1.18913
1.22364
1.24946
1.26707
1.2775
1.28428
1.28691
1.28456
1.27645
1.26396
1.24863
1.23469
1.2229
1.21411
1.20782
1.20349
1.20042
1.19828
1.19666
1.19565
1.19521
1.19516
1.19561
1.19663
1.19804
1.19994
1.20204
1.20407
1.2065
1.20942
1.21322
1.21743
1.22222
1.22705
1.23249
1.23783
1.24377
1.2495
1.25578
1.26192
1.26854
1.27516
1.28209
1.28918
1.29633
1.30385
1.3112
1.31913
1.32667
1.33493
1.34265
1.35103
1.35886
1.36721
1.37521
1.38351
1.39169
1.39996
1.40828
1.41652
1.42489
1.43301
1.44139
1.44931
1.45766
1.46538
1.47362
1.48115
1.48921
1.49658
1.50443
1.51166
1.51925
1.5263
1.53351
1.54022
1.54673
1.55264
1.55747
1.56076
1.05264
1.09542
1.13674
1.17384
1.20546
1.22979
1.24428
1.24711
1.23639
1.21834
1.19008
1.14635
1.09115
1.05049
1.03785
1.03994
1.05439
1.08573
1.12942
1.17237
1.21065
1.24318
1.26994
1.29051
1.30556
1.31502
1.32089
1.32339
1.3218
1.31533
1.30446
1.28987
1.27471
1.26175
1.25125
1.2435
1.23782
1.23397
1.23124
1.22959
1.22838
1.22783
1.22752
1.22784
1.22857
1.22986
1.2315
1.2332
1.23519
1.23768
1.24093
1.24473
1.24906
1.25352
1.25851
1.26354
1.2691
1.2746
1.28053
1.28646
1.29273
1.2992
1.30582
1.31283
1.31972
1.32721
1.33433
1.34229
1.34969
1.35797
1.36555
1.37396
1.38173
1.39014
1.39812
1.40648
1.41461
1.42294
1.43112
1.4394
1.44759
1.45573
1.4639
1.47181
1.47997
1.48762
1.4957
1.50313
1.51103
1.51826
1.52593
1.53298
1.54035
1.54717
1.55411
1.56053
1.56668
1.57225
1.57664
1.57981
1.06476
1.10217
1.1394
1.17356
1.20183
1.2235
1.23285
1.22866
1.21469
1.19229
1.15269
1.09647
1.04868
1.02946
1.02909
1.03857
1.06327
1.10216
1.14483
1.18416
1.21928
1.25017
1.27697
1.29971
1.31817
1.332
1.34138
1.34707
1.34931
1.34906
1.34502
1.3363
1.32334
1.30841
1.29444
1.28272
1.27372
1.2672
1.26293
1.26018
1.25852
1.25758
1.2572
1.25726
1.25786
1.25892
1.2605
1.26203
1.26381
1.266
1.26899
1.27247
1.27653
1.28072
1.28545
1.29019
1.29552
1.30085
1.30668
1.31252
1.3187
1.32508
1.3316
1.33851
1.34527
1.35262
1.35954
1.36725
1.37431
1.38222
1.38946
1.39748
1.40498
1.41303
1.42083
1.4289
1.4369
1.445
1.45309
1.46118
1.46929
1.47729
1.4854
1.4932
1.50129
1.50885
1.51685
1.52419
1.53199
1.53911
1.54662
1.5535
1.56065
1.56719
1.57383
1.57984
1.58552
1.59059
1.59449
1.5974
1.07716
1.11008
1.14285
1.17286
1.19644
1.21022
1.21035
1.1994
1.1808
1.14524
1.08992
1.03745
1.0128
1.01018
1.01759
1.03819
1.07261
1.11305
1.15153
1.18661
1.21855
1.24764
1.27429
1.29796
1.31896
1.33632
1.35063
1.36061
1.36713
1.36978
1.37096
1.36899
1.36282
1.35223
1.33837
1.32449
1.31209
1.30222
1.295
1.29014
1.28699
1.28521
1.28428
1.28408
1.28445
1.28537
1.28689
1.28839
1.29014
1.29204
1.29472
1.29782
1.30154
1.30534
1.30981
1.31423
1.31933
1.32442
1.33013
1.33585
1.34191
1.34814
1.35445
1.36124
1.36783
1.37516
1.38198
1.38961
1.39658
1.40436
1.41158
1.41942
1.42697
1.43481
1.44263
1.45048
1.45845
1.46633
1.47431
1.48221
1.49015
1.49799
1.50591
1.51358
1.52149
1.52892
1.53676
1.54392
1.5516
1.55847
1.56586
1.57238
1.5793
1.58537
1.59156
1.59694
1.60198
1.60641
1.60946
1.61189
1.09324
1.1211
1.14814
1.17169
1.187
1.18875
1.17912
1.16263
1.129
1.07499
1.0195
0.991312
0.986752
0.993525
1.01167
1.04271
1.08091
1.1173
1.15133
1.18254
1.21216
1.23988
1.26618
1.29052
1.3131
1.3329
1.35049
1.36479
1.37649
1.38375
1.38824
1.38962
1.38967
1.38623
1.37855
1.36708
1.35403
1.34173
1.33141
1.32344
1.31785
1.31429
1.31228
1.3115
1.3115
1.31223
1.31362
1.31514
1.31687
1.31857
1.32094
1.32365
1.3271
1.3305
1.33468
1.33882
1.34374
1.34859
1.35409
1.35963
1.36554
1.37158
1.37768
1.38421
1.39063
1.39772
1.40439
1.41182
1.4187
1.42627
1.43342
1.44102
1.44851
1.45612
1.46389
1.47154
1.47945
1.48719
1.4951
1.5029
1.51077
1.51851
1.5264
1.53397
1.54189
1.54919
1.55705
1.56403
1.57169
1.57829
1.5856
1.59173
1.59843
1.60393
1.60962
1.61426
1.61861
1.62208
1.6239
1.62562
1.10761
1.13119
1.15158
1.1665
1.16905
1.16027
1.14433
1.11137
1.05715
0.999165
0.968404
0.962035
0.968353
0.984888
1.01378
1.04974
1.08478
1.11697
1.14723
1.17573
1.2034
1.23006
1.25598
1.2805
1.30389
1.32532
1.34529
1.36274
1.378
1.39038
1.39981
1.40516
1.40826
1.4097
1.40899
1.40457
1.396
1.38478
1.3728
1.36209
1.35315
1.34663
1.34233
1.33974
1.33879
1.3386
1.33946
1.34072
1.34226
1.34371
1.34559
1.34779
1.35082
1.35394
1.3578
1.36168
1.36638
1.37102
1.37626
1.38155
1.38724
1.39313
1.39906
1.4055
1.41172
1.41868
1.42523
1.43259
1.43945
1.44692
1.45406
1.46148
1.46893
1.47633
1.48403
1.49147
1.49925
1.50682
1.51458
1.52223
1.52994
1.53756
1.5453
1.55274
1.56054
1.56769
1.57544
1.58222
1.5897
1.59607
1.60302
1.60882
1.61497
1.61983
1.62484
1.62864
1.63191
1.63405
1.63429
1.63543
1.12312
1.1396
1.15122
1.15246
1.14293
1.12674
1.09394
1.03887
0.979322
0.946881
0.939542
0.945538
0.961732
0.989576
1.0239
1.05689
1.0875
1.11568
1.14282
1.16925
1.19533
1.22112
1.24631
1.27084
1.29467
1.31715
1.33875
1.35818
1.3762
1.39154
1.40492
1.41559
1.42317
1.42787
1.43051
1.43187
1.43033
1.42447
1.41511
1.40376
1.39281
1.38311
1.37561
1.37042
1.36705
1.36571
1.36524
1.36611
1.36755
1.36902
1.37075
1.37266
1.37534
1.37826
1.38192
1.38554
1.38996
1.39441
1.39936
1.40448
1.40983
1.41574
1.42146
1.42794
1.43384
1.44074
1.44702
1.45426
1.46096
1.46826
1.47526
1.48246
1.48974
1.49688
1.50438
1.51158
1.51917
1.52649
1.53408
1.54149
1.54905
1.55648
1.564
1.57132
1.57886
1.5859
1.59336
1.60003
1.60709
1.6133
1.61962
1.62513
1.63031
1.63476
1.63848
1.64156
1.64285
1.64329
1.64214
1.64275
1.13726
1.14552
1.1429
1.13059
1.11253
1.07758
1.02012
0.958589
0.924993
0.917379
0.923214
0.939883
0.968191
1.00169
1.03368
1.06247
1.08919
1.11441
1.13929
1.16403
1.18869
1.21348
1.23785
1.26213
1.28588
1.30882
1.33105
1.3519
1.37145
1.3896
1.40574
1.42006
1.43162
1.4408
1.44712
1.45104
1.45369
1.45431
1.45184
1.44515
1.43501
1.42449
1.41445
1.40622
1.40015
1.39608
1.3942
1.39349
1.39432
1.39568
1.39731
1.39893
1.40114
1.4037
1.40708
1.41045
1.41456
1.4187
1.4235
1.42823
1.43352
1.43898
1.44484
1.45092
1.45696
1.46343
1.4697
1.47658
1.48318
1.49019
1.49707
1.50396
1.51109
1.5179
1.52524
1.53216
1.53955
1.5467
1.55399
1.56133
1.56854
1.57586
1.58305
1.59017
1.59729
1.60419
1.61101
1.6176
1.62387
1.62984
1.63521
1.64013
1.64412
1.64791
1.64987
1.65158
1.65058
1.64869
1.64646
1.64681
1.14373
1.1417
1.12799
1.10715
1.06895
1.00676
0.940626
0.904103
0.895751
0.901304
0.919008
0.948436
0.982227
1.01359
1.04143
1.06669
1.09021
1.11341
1.13621
1.15965
1.18281
1.20674
1.23023
1.25414
1.27758
1.30075
1.32328
1.34502
1.36564
1.3855
1.40356
1.42065
1.43549
1.44872
1.45895
1.4671
1.47267
1.47691
1.47902
1.47902
1.4755
1.46803
1.45836
1.4484
1.4397
1.43266
1.42786
1.42514
1.42399
1.42448
1.42573
1.42715
1.42901
1.43107
1.43403
1.43706
1.44085
1.44471
1.44905
1.45373
1.45841
1.46398
1.46916
1.47541
1.48086
1.48738
1.49319
1.49991
1.50631
1.51312
1.51995
1.52667
1.53369
1.54032
1.54744
1.55413
1.56129
1.56811
1.57522
1.58213
1.58914
1.59602
1.60294
1.60964
1.61642
1.62282
1.6293
1.6352
1.6411
1.64605
1.65089
1.65434
1.65785
1.6594
1.66015
1.65862
1.65618
1.65282
1.64702
1.64575
1.14632
1.13059
1.10689
1.06605
0.999016
0.926388
0.885808
0.876098
0.881147
0.899827
0.931026
0.96522
0.996747
1.02429
1.04854
1.07088
1.09218
1.1134
1.13457
1.15644
1.17844
1.20124
1.22407
1.24736
1.27047
1.29349
1.31603
1.33819
1.35956
1.38052
1.40017
1.41925
1.43648
1.45271
1.46671
1.47907
1.48839
1.49606
1.50158
1.50559
1.50693
1.50609
1.50183
1.49418
1.48467
1.47554
1.46773
1.46212
1.45832
1.45676
1.45643
1.45754
1.45912
1.4607
1.46278
1.4655
1.46874
1.47246
1.47624
1.48073
1.48505
1.49025
1.49515
1.50095
1.50636
1.51245
1.51821
1.52451
1.53069
1.53723
1.54373
1.55033
1.55696
1.56357
1.57026
1.57693
1.58367
1.59039
1.59712
1.60377
1.61043
1.61693
1.62345
1.62971
1.63597
1.64185
1.64765
1.65288
1.65784
1.66178
1.66549
1.66762
1.66961
1.66906
1.6671
1.66443
1.66015
1.65358
1.64196
1.6368
1.14331
1.1159
1.06973
0.99711
0.91683
0.870139
0.858103
0.862592
0.882235
0.914962
0.95039
0.98257
1.01014
1.03392
1.05516
1.07519
1.09469
1.1142
1.13421
1.15461
1.17587
1.19743
1.21988
1.24234
1.26526
1.28791
1.31065
1.33303
1.3552
1.37685
1.39789
1.41819
1.43755
1.45563
1.47262
1.48764
1.50117
1.51217
1.52118
1.52835
1.53415
1.5373
1.53835
1.53645
1.53106
1.52286
1.51416
1.50601
1.49936
1.49462
1.49209
1.491
1.49171
1.49296
1.49453
1.49627
1.49899
1.50187
1.50564
1.50924
1.51353
1.51795
1.52273
1.52792
1.53323
1.53894
1.54456
1.55053
1.55646
1.56267
1.56889
1.57523
1.58159
1.58798
1.59434
1.60082
1.60715
1.61367
1.61994
1.62637
1.63251
1.63874
1.64461
1.65058
1.65594
1.66151
1.66603
1.67081
1.67399
1.67724
1.67892
1.68005
1.679
1.67654
1.67326
1.6677
1.65897
1.64726
1.63149
1.62479
1.13161
1.07918
0.998848
0.913403
0.861162
0.845832
0.849231
0.869397
0.903107
0.939172
0.971786
0.99957
1.02291
1.04325
1.06191
1.07994
1.09793
1.11623
1.13521
1.15481
1.17537
1.1965
1.21846
1.24057
1.26319
1.28572
1.30849
1.33109
1.35366
1.3759
1.39771
1.41883
1.43946
1.45878
1.47776
1.4949
1.51133
1.52558
1.53838
1.54855
1.55747
1.56465
1.56962
1.57125
1.57167
1.56885
1.56289
1.55427
1.54583
1.5381
1.53243
1.52829
1.52667
1.52618
1.52719
1.52827
1.52978
1.53186
1.53487
1.53813
1.54197
1.54607
1.55056
1.55528
1.56039
1.56563
1.57124
1.57678
1.58271
1.58849
1.59465
1.60067
1.60693
1.61306
1.61928
1.62546
1.63159
1.63777
1.64374
1.6498
1.65551
1.66128
1.66664
1.67182
1.67675
1.68097
1.68497
1.68781
1.69016
1.69132
1.69148
1.68977
1.68726
1.68281
1.67619
1.66556
1.65141
1.63666
1.61984
1.61344
1.08815
0.996416
0.906936
0.854486
0.8383
0.841219
0.8628
0.897293
0.933162
0.966441
0.994352
1.01802
1.03769
1.05526
1.07175
1.08797
1.10463
1.12184
1.13995
1.15886
1.17866
1.19923
1.22047
1.24218
1.26436
1.28671
1.30939
1.33205
1.3547
1.37711
1.39916
1.42091
1.44199
1.46276
1.48285
1.50232
1.52049
1.53771
1.55288
1.56664
1.57778
1.58721
1.59544
1.60126
1.60459
1.60523
1.60399
1.59976
1.5926
1.58391
1.57551
1.5683
1.56314
1.5599
1.55837
1.55853
1.55932
1.5604
1.56224
1.56475
1.56831
1.57194
1.57627
1.58062
1.58557
1.59058
1.59607
1.60148
1.60724
1.61284
1.6188
1.62461
1.63076
1.63677
1.64298
1.64904
1.65521
1.66113
1.66716
1.67278
1.67856
1.68362
1.68894
1.6932
1.69758
1.70077
1.70332
1.70484
1.70546
1.70494
1.70263
1.6991
1.6939
1.68499
1.67278
1.65783
1.64124
1.62628
1.61127
1.60643
0.998067
0.88807
0.83222
0.819401
0.826474
0.853854
0.892844
0.929415
0.962668
0.990594
1.01401
1.03276
1.04919
1.06435
1.07953
1.09496
1.11126
1.12832
1.14626
1.1651
1.18461
1.20501
1.22584
1.24732
1.2691
1.29129
1.3136
1.33612
1.35847
1.38086
1.40292
1.42496
1.44681
1.46827
1.48902
1.50902
1.52816
1.54636
1.56315
1.57875
1.59225
1.60435
1.61412
1.62308
1.63003
1.63444
1.63578
1.63536
1.63296
1.62717
1.61883
1.60989
1.60171
1.595
1.59022
1.58782
1.5868
1.58746
1.58832
1.58981
1.5923
1.59578
1.59973
1.60399
1.60859
1.6134
1.61849
1.62371
1.62914
1.63461
1.64029
1.64596
1.65186
1.65767
1.66372
1.66957
1.67561
1.68136
1.68718
1.69268
1.69796
1.70305
1.70745
1.71166
1.7148
1.71717
1.71843
1.71874
1.71788
1.71532
1.71159
1.7044
1.69432
1.68056
1.66501
1.64877
1.63279
1.62024
1.60891
1.60621
0.867063
0.797889
0.790588
0.804783
0.840739
0.885405