/*--------------------------------*- C++ -*----------------------------------*\
  =========                 |
  \\      /  F ield         | OpenFOAM: The Open Source CFD Toolbox
   \\    /   O peration     | Website:  https://openfoam.org
    \\  /    A nd           | Version:  6
     \\/     M anipulation  |
\*---------------------------------------------------------------------------*/
FoamFile
{
    version     2.0;
    format      ascii;
    class       volVectorField;
    location    "63";
    object      U;
}
// * * * * * * * * * * * * * * * * * * * * * * * * * * * * * * * * * * * * * //

dimensions      [0 1 -1 0 0 0 0];

internalField   nonuniform List<vector> 
8800
(
(0.987195 -0.0767054 0)
(1.0019 -0.055177 0)
(0.999724 -0.0285499 0)
(1.00002 -0.0151535 0)
(1.00008 -0.00855623 0)
(1.0001 -0.00505816 0)
(1.00006 -0.00301228 0)
(1.00002 -0.00171046 0)
(0.999999 -0.000802503 0)
(1.00006 -8.48161e-05 0)
(0.999985 0.00064568 0)
(0.999993 0.0014122 0)
(1.00002 0.00243435 0)
(1.00005 0.00400567 0)
(1.00004 0.00663775 0)
(1.00001 0.0113774 0)
(0.999899 0.0208176 0)
(0.999151 0.0386583 0)
(1.0071 0.0724578 0)
(0.771226 0.0366898 0)
(0.36304 -0.0160156 0)
(1.04332 -0.0768277 0)
(1.08461 -0.0704458 0)
(1.04522 -0.0535495 0)
(1.0233 -0.0389016 0)
(1.01202 -0.0262314 0)
(1.00642 -0.0168784 0)
(1.00359 -0.010351 0)
(1.00215 -0.00569231 0)
(1.00145 -0.00203571 0)
(1.00131 0.00128935 0)
(1.00168 0.00467248 0)
(1.00266 0.00860697 0)
(1.00467 0.0139432 0)
(1.00861 0.0216473 0)
(1.01657 0.0326135 0)
(1.03249 0.0465295 0)
(1.06266 0.0616522 0)
(1.09189 0.0760854 0)
(0.838672 0.0565777 0)
(0.21682 -0.00242184 0)
(1.07587 -0.0501548 0)
(1.09986 -0.0483381 0)
(1.06462 -0.0404885 0)
(1.04001 -0.0336318 0)
(1.02389 -0.0261155 0)
(1.0141 -0.0185374 0)
(1.00855 -0.0117203 0)
(1.00558 -0.0058539 0)
(1.00433 -0.000436378 0)
(1.00467 0.00481148 0)
(1.0066 0.010204 0)
(1.0106 0.0162989 0)
(1.01794 0.0233236 0)
(1.03053 0.0307904 0)
(1.05061 0.0378278 0)
(1.08032 0.0445218 0)
(1.10625 0.0513432 0)
(0.942532 0.0416118 0)
(0.21616 0.00245222 0)
(0.175141 -0.000815032 0)
(1.01764 -0.035501 0)
(1.10517 -0.0414075 0)
(1.07823 -0.0360985 0)
(1.05343 -0.0301721 0)
(1.03617 -0.0246035 0)
(1.02397 -0.018879 0)
(1.01586 -0.0128012 0)
(1.011 -0.00661444 0)
(1.00881 -0.000279434 0)
(1.00938 0.0059782 0)
(1.01264 0.01198 0)
(1.01886 0.0178201 0)
(1.02877 0.023398 0)
(1.0432 0.028703 0)
(1.06372 0.0341924 0)
(1.09354 0.0401815 0)
(1.09341 0.0419481 0)
(0.827179 0.022906 0)
(0.174027 0.000849823 0)
(0.153924 -0.000610264 0)
(0.956095 -0.0254785 0)
(1.10341 -0.035163 0)
(1.08764 -0.0326953 0)
(1.06168 -0.0280511 0)
(1.04406 -0.0230369 0)
(1.0316 -0.0177972 0)
(1.02276 -0.0122695 0)
(1.01695 -0.00633446 0)
(1.01411 0.000135382 0)
(1.01479 0.00660002 0)
(1.01877 0.0124887 0)
(1.0258 0.0177908 0)
(1.03611 0.0227107 0)
(1.05067 0.0274729 0)
(1.0719 0.0320114 0)
(1.10007 0.0359517 0)
(1.0681 0.0340168 0)
(0.739589 0.0143078 0)
(0.152246 0.000649716 0)
(0.139536 -0.000467101 0)
(0.899144 -0.0190999 0)
(1.09571 -0.0301211 0)
(1.09569 -0.0292415 0)
(1.06919 -0.0255191 0)
(1.05076 -0.0213893 0)
(1.03783 -0.0166251 0)
(1.02873 -0.0113449 0)
(1.02262 -0.00560413 0)
(1.0195 0.0007236 0)
(1.02013 0.00703928 0)
(1.02422 0.0126802 0)
(1.03137 0.0176527 0)
(1.0419 0.0221203 0)
(1.05703 0.0260926 0)
(1.07923 0.0295672 0)
(1.10228 0.0321986 0)
(1.03601 0.0281049 0)
(0.67304 0.0102062 0)
(0.137166 0.000512597 0)
(0.128978 -0.000362034 0)
(0.849498 -0.0147403 0)
(1.08329 -0.0259955 0)
(1.10135 -0.0263015 0)
(1.07603 -0.0230262 0)
(1.05707 -0.0193925 0)
(1.04368 -0.0151573 0)
(1.03423 -0.0102419 0)
(1.02788 -0.00471311 0)
(1.02457 0.00143522 0)
(1.02506 0.00753846 0)
(1.0291 0.0129042 0)
(1.03637 0.0174675 0)
(1.04719 0.0213292 0)
(1.06271 0.0246389 0)
(1.08535 0.0275979 0)
(1.10139 0.0293594 0)
(1.00111 0.0235898 0)
(0.621221 0.0078429 0)
(0.125767 0.000415561 0)
(0.120917 -0.000281605 0)
(0.807295 -0.0115853 0)
(1.06797 -0.0223923 0)
(1.10486 -0.0236748 0)
(1.08227 -0.0208143 0)
(1.06289 -0.0173965 0)
(1.04923 -0.0134707 0)
(1.0395 -0.00889577 0)
(1.03287 -0.00364139 0)
(1.02932 0.00228866 0)
(1.02963 0.00814598 0)
(1.03362 0.0131649 0)
(1.04095 0.0172586 0)
(1.05188 0.0206117 0)
(1.06762 0.0235113 0)
(1.0906 0.0261745 0)
(1.09761 0.0270417 0)
(0.965855 0.0200496 0)
(0.579577 0.00630918 0)
(0.116684 0.000345246 0)
(0.114666 -0.000218604 0)
(0.771758 -0.00922581 0)
(1.05116 -0.0192211 0)
(1.10722 -0.0212458 0)
(1.08812 -0.0187566 0)
(1.06835 -0.0154842 0)
(1.05446 -0.011723 0)
(1.04453 -0.00736214 0)
(1.03766 -0.00235186 0)
(1.03383 0.0033226 0)
(1.03392 0.00887795 0)
(1.03779 0.0135203 0)
(1.04507 0.0171977 0)
(1.05599 0.020161 0)
(1.07193 0.0227392 0)
(1.09456 0.0250633 0)
(1.09101 0.0251196 0)
(0.931546 0.0173185 0)
(0.545095 0.0052627 0)
(0.109191 0.000294709 0)
(0.109789 -0.000167919 0)
(0.741947 -0.00739457 0)
(1.03391 -0.0164106 0)
(1.10862 -0.018958 0)
(1.09368 -0.0167774 0)
(1.07363 -0.0135986 0)
(1.05947 -0.00992967 0)
(1.04935 -0.00569275 0)
(1.04226 -0.000860018 0)
(1.03814 0.00456862 0)
(1.03795 0.00980697 0)
(1.04159 0.0140891 0)
(1.04872 0.0174041 0)
(1.05962 0.0200194 0)
(1.07575 0.0223077 0)
(1.09725 0.0242578 0)
(1.08196 0.0235459 0)
(0.898745 0.0152462 0)
(0.515725 0.0045343 0)
(0.102805 0.000259305 0)
(0.106003 -0.000125793 0)
(0.71704 -0.00591758 0)
(1.01706 -0.0138888 0)
(1.1092 -0.0167467 0)
(1.09914 -0.0148423 0)
(1.07883 -0.0116755 0)
(1.06438 -0.00803937 0)
(1.05404 -0.00386973 0)
(1.0467 0.000842878 0)
(1.04226 0.00606548 0)
(1.0417 0.0110073 0)
(1.04503 0.0149485 0)
(1.05198 0.017915 0)
(1.06283 0.0201925 0)
(1.07913 0.0222179 0)
(1.09859 0.0237687 0)
(1.07086 0.0223173 0)
(0.867566 0.0137167 0)
(0.490011 0.00403362 0)
(0.0971862 0.000235975 0)
(0.10312 -8.92769e-05 0)
(0.696398 -0.00467877 0)
(1.00121 -0.0115884 0)
(1.1091 -0.0145765 0)
(1.10444 -0.0128639 0)
(1.08403 -0.00966333 0)
(1.06926 -0.006004 0)
(1.05866 -0.00184172 0)
(1.05101 0.002806 0)
(1.04618 0.00786805 0)
(1.04517 0.0125436 0)
(1.04814 0.016162 0)
(1.05486 0.0187907 0)
(1.06564 0.0207313 0)
(1.08206 0.0224987 0)
(1.09894 0.0236433 0)
(1.05797 0.0214433 0)
(0.837845 0.0126399 0)
(0.466867 0.00370538 0)
(0.0920742 0.000222299 0)
(0.101021 -5.56827e-05 0)
(0.679548 -0.00359092 0)
(0.98681 -0.0094383 0)
(1.10853 -0.0123601 0)
(1.10955 -0.0107635 0)
(1.0893 -0.0075055 0)
(1.0742 -0.00376305 0)
(1.06328 0.000453613 0)
(1.05525 0.00509343 0)
(1.04993 0.0100461 0)
(1.04839 0.0144874 0)
(1.05091 0.0177903 0)
(1.05736 0.0200787 0)
(1.06804 0.0216759 0)
(1.0845 0.0231736 0)
(1.09829 0.023901 0)
(1.04347 0.0209391 0)
(0.809258 0.0119447 0)
(0.44544 0.00351162 0)
(0.0872682 0.000216381 0)
(0.099644 -2.27215e-05 0)
(0.66619 -0.00258428 0)
(0.974229 -0.00736344 0)
(1.1078 -0.0100387 0)
(1.11462 -0.00847482 0)
(1.09474 -0.00511603 0)
(1.07925 -0.00123074 0)
(1.06796 0.0031025 0)
(1.05947 0.00779469 0)
(1.05355 0.0126817 0)
(1.05136 0.0169071 0)
(1.05335 0.0199021 0)
(1.05947 0.0218439 0)
(1.07002 0.0230785 0)
(1.08648 0.0243089 0)
(1.0964 0.0245823 0)
(1.0274 0.0207893 0)
(0.781377 0.0115757 0)
(0.425035 0.00342689 0)
(0.0826045 0.000216709 0)
(0.0989742 1.17776e-05 0)
(0.656171 -0.00160436 0)
(0.963774 -0.00529205 0)
(1.10726 -0.00755299 0)
(1.11978 -0.00593228 0)
(1.10041 -0.00242272 0)
(1.08451 0.00167215 0)
(1.07276 0.00619423 0)
(1.06371 0.0110044 0)
(1.05707 0.015875 0)
(1.0541 0.0199051 0)
(1.05545 0.0225856 0)
(1.06117 0.0241708 0)
(1.07156 0.0250277 0)
(1.08793 0.0259507 0)
(1.09322 0.025712 0)
(1.00973 0.0210248 0)
(0.753734 0.0115054 0)
(0.405072 0.00343691 0)
(0.0779502 0.000222698 0)
(0.0990322 4.51153e-05 0)
(0.649466 -0.00060326 0)
(0.955746 -0.00315039 0)
(1.10722 -0.00482963 0)
(1.12518 -0.00304244 0)
(1.10642 0.000686926 0)
(1.09006 0.00506505 0)
(1.07777 0.00984644 0)
(1.06804 0.0148423 0)
(1.06051 0.0197491 0)
(1.0566 0.0236046 0)
(1.05718 0.0259579 0)
(1.06243 0.0271583 0)
(1.07264 0.027618 0)
(1.0886 0.0281717 0)
(1.08854 0.0273068 0)
(0.990316 0.021683 0)
(0.725799 0.011718 0)
(0.385022 0.00353381 0)
(0.0731834 0.000233757 0)
(0.0998564 8.53514e-05 0)
(0.646152 0.000433498 0)
(0.950463 -0.00086572 0)
(1.10807 -0.00178879 0)
(1.13104 0.000291383 0)
(1.11288 0.00433086 0)
(1.096 0.00907777 0)
(1.08306 0.0142048 0)
(1.0725 0.0194597 0)
(1.06391 0.0244457 0)
(1.05887 0.028131 0)
(1.05853 0.0301343 0)
(1.06321 0.0309331 0)
(1.07319 0.0309649 0)
(1.08838 0.0310973 0)
(1.0821 0.0294685 0)
(0.968888 0.02278 0)
(0.696998 0.0122009 0)
(0.364393 0.00370893 0)
(0.0681962 0.000249098 0)
(0.101658 0.00014546 0)
(0.646622 0.00159104 0)
(0.948291 0.00164744 0)
(1.11022 0.00167795 0)
(1.13753 0.00418151 0)
(1.11992 0.00863833 0)
(1.10246 0.0138541 0)
(1.08874 0.019424 0)
(1.07715 0.0250183 0)
(1.06727 0.0301337 0)
(1.06087 0.0336599 0)
(1.05946 0.035275 0)
(1.06346 0.035632 0)
(1.07314 0.035197 0)
(1.08702 0.0348347 0)
(1.07364 0.0322756 0)
(0.945065 0.0243668 0)
(0.666711 0.0129539 0)
(0.342718 0.00395843 0)
(0.0628932 0.000268186 0)
(0.104485 0.000207113 0)
(0.651263 0.00301455 0)
(0.949677 0.0045422 0)
(1.11417 0.00571087 0)
(1.14489 0.00878759 0)
(1.12771 0.0138086 0)
(1.10956 0.019612 0)
(1.09489 0.0257297 0)
(1.08205 0.0317436 0)
(1.07061 0.0370206 0)
(1.06258 0.0403574 0)
(1.05992 0.0415208 0)
(1.06311 0.0414068 0)
(1.07243 0.0404517 0)
(1.08435 0.0395622 0)
(1.06279 0.0358363 0)
(0.918329 0.0264796 0)
(0.634261 0.013972 0)
(0.319545 0.00427441 0)
(0.05719 0.000290073 0)
(0.108624 0.000289276 0)
(0.660536 0.00468684 0)
(0.955102 0.00795799 0)
(1.12041 0.0104648 0)
(1.15345 0.0143087 0)
(1.13647 0.0200704 0)
(1.11748 0.0266062 0)
(1.10162 0.0333975 0)
(1.08723 0.03991 0)
(1.07388 0.0453583 0)
(1.06395 0.0484446 0)
(1.05984 0.0490851 0)
(1.06207 0.0484292 0)
(1.07094 0.0468814 0)
(1.08044 0.0453677 0)
(1.04909 0.040248 0)
(0.888027 0.0291483 0)
(0.598927 0.0152387 0)
(0.294454 0.00464349 0)
(0.0510239 0.000313044 0)
(0.114412 0.000401255 0)
(0.675259 0.00678787 0)
(0.965247 0.0121008 0)
(1.12952 0.0161805 0)
(1.1635 0.0210085 0)
(1.14645 0.0277436 0)
(1.1264 0.0351798 0)
(1.10904 0.0427716 0)
(1.09273 0.0498384 0)
(1.07707 0.0554293 0)
(1.0649 0.0581604 0)
(1.05908 0.0581415 0)
(1.06027 0.0568779 0)
(1.06866 0.0546802 0)
(1.07503 0.0524454 0)
(1.03193 0.0455911 0)
(0.853356 0.0323758 0)
(0.559959 0.0167169 0)
(0.267087 0.00504365 0)
(0.044364 0.000334853 0)
(0.122372 0.000556723 0)
(0.696345 0.00953543 0)
(0.980974 0.0172761 0)
(1.14215 0.0231972 0)
(1.17555 0.029287 0)
(1.15795 0.0372976 0)
(1.1365 0.0458184 0)
(1.11722 0.0543198 0)
(1.09851 0.0619485 0)
(1.08008 0.067561 0)
(1.0653 0.0697409 0)
(1.05752 0.0689022 0)
(1.05759 0.0669069 0)
(1.06545 0.0639642 0)
(1.06777 0.0607918 0)
(1.01051 0.0519386 0)
(0.813376 0.0361205 0)
(0.516632 0.0183367 0)
(0.237208 0.00544031 0)
(0.0372282 0.000352282 0)
(0.133232 0.000782674 0)
(0.725111 0.0133137 0)
(1.00344 0.023953 0)
(1.15912 0.03206 0)
(1.19022 0.039742 0)
(1.17134 0.0493965 0)
(1.14796 0.0591917 0)
(1.12615 0.0686575 0)
(1.10443 0.0767371 0)
(1.0827 0.0821257 0)
(1.06497 0.0834595 0)
(1.05507 0.0815843 0)
(1.05391 0.0787044 0)
(1.06103 0.0748512 0)
(1.05798 0.0706082 0)
(0.983801 0.0592651 0)
(0.767045 0.0402771 0)
(0.468334 0.0199768 0)
(0.204779 0.00578367 0)
(0.0297022 0.000361311 0)
(0.148246 0.00113676 0)
(0.763524 0.018751 0)
(1.0343 0.0329098 0)
(1.18135 0.0436956 0)
(1.20827 0.0534633 0)
(1.18692 0.0650733 0)
(1.16082 0.0762563 0)
(1.13567 0.0865724 0)
(1.11021 0.0947771 0)
(1.08463 0.0994858 0)
(1.06366 0.0995336 0)
(1.05154 0.0963315 0)
(1.04912 0.0924023 0)
(1.05504 0.0877198 0)
(1.04495 0.0818947 0)
(0.950511 0.0674807 0)
(0.713317 0.0446146 0)
(0.414745 0.0214533 0)
(0.170086 0.00600781 0)
(0.0219594 0.000357382 0)
(0.169581 0.00175061 0)
(0.814808 0.026972 0)
(1.07611 0.0456806 0)
(1.20999 0.0599612 0)
(1.23033 0.0725498 0)
(1.2048 0.0859799 0)
(1.17481 0.0983562 0)
(1.14534 0.109021 0)
(1.11542 0.116676 0)
(1.08552 0.119964 0)
(1.06111 0.118119 0)
(1.04674 0.113233 0)
(1.04309 0.108063 0)
(1.04747 0.102457 0)
(1.02762 0.0945958 0)
(0.909054 0.0762366 0)
(0.651401 0.0487672 0)
(0.356173 0.0225209 0)
(0.13391 0.00603719 0)
(0.0142831 0.000335446 0)
(0.200573 0.00309746 0)
(0.884674 0.0405597 0)
(1.13255 0.0660369 0)
(1.24545 0.0844579 0)
(1.25611 0.0997421 0)
(1.22431 0.114469 0)
(1.18908 0.127103 0)
(1.15432 0.136983 0)
(1.11933 0.142959 0)
(1.08482 0.143806 0)
(1.05693 0.139301 0)
(1.04043 0.132286 0)
(1.03567 0.125636 0)
(1.03791 0.118913 0)
(1.00456 0.108405 0)
(0.857574 0.084934 0)
(0.581301 0.0521947 0)
(0.29426 0.0229711 0)
(0.0978921 0.00582945 0)
(0.00714038 0.000289263 0)
(0.242869 0.00925442 4.07978e-20)
(0.977114 0.0674127 3.57334e-20)
(1.20126 0.100483 -1.25536e-20)
(1.28457 0.120892 0)
(1.28274 0.138654 -3.26855e-34)
(1.24328 0.152878 4.79615e-21)
(1.20205 0.163992 -8.74328e-21)
(1.16152 0.171657 0)
(1.12112 0.174874 1.8189e-34)
(1.08171 0.172492 -1.10291e-20)
(1.05013 0.164821 0)
(1.03137 0.155458 -1.31905e-20)
(1.02565 0.14742 -3.89716e-20)
(1.02496 0.140306 -1.84323e-20)
(0.971975 0.125884 -5.55564e-21)
(0.79038 0.094997 -3.30257e-21)
(0.497811 0.0552937 0)
(0.227472 0.0231849 2.3095e-21)
(0.0621249 0.00567133 2.72652e-21)
(0.000514459 0.000226335 4.91415e-20)
(0.272187 0.0243179 2.83433e-20)
(1.05362 0.109823 5.3845e-22)
(1.25796 0.149562 3.26938e-21)
(1.31957 0.16993 0)
(1.30606 0.18794 -1.63405e-20)
(1.25948 0.200025 -1.87091e-20)
(1.2123 0.208829 -8.76294e-21)
(1.16592 0.214009 -3.15396e-20)
(1.11988 0.214455 0)
(1.07515 0.208894 4.69047e-20)
(1.03937 0.198107 4.6695e-20)
(1.01801 0.186379 1.39075e-20)
(1.01017 0.176407 5.0894e-20)
(1.00167 0.166439 7.16978e-20)
(0.921118 0.146123 0)
(0.700124 0.105881 1.01069e-19)
(0.400062 0.0585289 1.44929e-19)
(0.158073 0.0228562 1.60929e-19)
(0.0265878 0.00434924 -1.83947e-19)
(-0.0061596 -0.000424239 -3.46107e-21)
(0.273602 0.0409914 0)
(1.10226 0.164713 4.56335e-21)
(1.29629 0.209606 0)
(1.34678 0.229685 -2.01554e-20)
(1.32428 0.245012 0)
(1.27174 0.253212 -3.62909e-20)
(1.21898 0.258268 1.7797e-20)
(1.16705 0.259845 -6.30535e-20)
(1.11563 0.256672 -1.58985e-21)
(1.06584 0.247324 2.41868e-20)
(1.02609 0.233015 1.0282e-19)
(1.0022 0.218645 -2.31986e-22)
(0.99197 0.206546 -3.70018e-20)
(0.975468 0.193368 -6.75481e-20)
(0.875313 0.166497 7.99453e-20)
(0.63595 0.116555 -1.41572e-19)
(0.343722 0.061516 -1.86922e-20)
(0.122588 0.022244 0)
(0.00896942 0.00240118 -1.21476e-23)
(-0.0097476 -0.00130957 0)
(0.267149 0.0550299 4.90198e-20)
(1.12858 0.223261 -2.55592e-20)
(1.31994 0.274172 -2.17095e-20)
(1.36474 0.294762 9.22827e-21)
(1.33603 0.30643 -1.56695e-20)
(1.27901 0.310095 7.57786e-20)
(1.22164 0.31072 3.70108e-20)
(1.16487 0.308042 0)
(1.10862 0.300679 -1.20281e-19)
(1.0542 0.287055 0)
(1.01073 0.268866 -5.38675e-20)
(0.984385 0.251652 -6.68709e-20)
(0.971745 0.237159 -4.03174e-20)
(0.948778 0.220306 -4.90795e-20)
(0.837747 0.186958 0)
(0.594957 0.128519 0)
(0.314999 0.0668929 -1.2173e-19)
(0.106338 0.0228464 2.40398e-20)
(5.16275e-05 0.000499193 -1.40712e-20)
(-0.0121095 -0.00232015 -1.64546e-20)
(0.259483 0.0673866 -1.13573e-20)
(1.14014 0.281736 0)
(1.33291 0.339738 3.99834e-20)
(1.37447 0.3613 2.49395e-20)
(1.34138 0.369293 3.69541e-20)
(1.28109 0.368442 0)
(1.22012 0.364532 3.57595e-20)
(1.15941 0.3574 6.94928e-20)
(1.09904 0.3456 6.13347e-20)
(1.04045 0.327474 1.14175e-19)
(0.993479 0.305253 0)
(0.96468 0.285018 -1.4427e-19)
(0.949663 0.268068 -8.7137e-20)
(0.921841 0.247643 -5.15908e-20)
(0.806561 0.208627 3.16338e-19)
(0.569109 0.142775 3.76106e-20)
(0.302171 0.074675 1.76457e-19)
(0.10222 0.0249876 -8.35445e-19)
(-0.00254638 -0.000738582 4.93876e-19)
(-0.0133271 -0.00326131 -5.9504e-19)
(0.252146 0.0784927 4.97476e-21)
(1.14235 0.338252 1.7359e-21)
(1.33819 0.404464 -3.23171e-21)
(1.37761 0.427376 -2.18287e-20)
(1.34135 0.43188 -2.91797e-20)
(1.2786 0.426691 1.81145e-21)
(1.2148 0.418392 -3.88249e-20)
(1.15084 0.406893 7.1581e-20)
(1.0869 0.390672 -1.32102e-19)
(1.0246 0.368033 0)
(0.97438 0.341738 -6.51978e-20)
(0.943165 0.318386 -1.61144e-21)
(0.925844 0.29891 -9.55122e-20)
(0.894647 0.275115 0)
(0.779618 0.231182 -6.86221e-20)
(0.552275 0.158903 -1.62906e-19)
(0.298941 0.0848222 4.3356e-19)
(0.105291 0.028918 -4.27299e-19)
(-0.000233685 -0.000779703 6.06499e-19)
(-0.0132903 -0.00393454 -6.30204e-19)
(0.245959 0.0887537 -5.08782e-22)
(1.13875 0.392149 2.61132e-21)
(1.33793 0.467328 -3.24195e-21)
(1.37561 0.491826 7.10289e-21)
(1.33698 0.493171 -1.43862e-20)
(1.27236 0.483911 0)
(1.20626 0.47147 -3.5327e-20)
(1.13956 0.455812 -7.47814e-20)
(1.07254 0.435319 -6.84749e-20)
(1.00693 0.408258 0)
(0.953699 0.377955 -6.75317e-20)
(0.920153 0.351551 -8.4159e-20)
(0.900623 0.329571 1.03772e-19)
(0.867091 0.30278 -6.31072e-20)
(0.754881 0.254181 -3.00509e-19)
(0.539236 0.176594 1.78431e-19)
(0.299386 0.0964548 5.28945e-20)
(0.111894 0.0345449 0)
(0.00522297 0.000581702 -5.88032e-19)
(-0.0122306 -0.00422766 -2.15859e-20)
(0.241058 0.0985019 3.99614e-21)
(1.13165 0.443271 -5.60944e-21)
(1.33362 0.527777 3.5493e-22)
(1.36968 0.553959 2.77948e-20)
(1.32923 0.552518 -4.99111e-20)
(1.26317 0.53953 6.72431e-20)
(1.19522 0.523248 7.62357e-20)
(1.12619 0.503688 -1.19478e-19)
(1.05646 0.479149 4.28959e-20)
(0.987786 0.447823 -2.81133e-19)
(0.931739 0.413656 -7.67272e-20)
(0.895981 0.384289 0)
(0.874399 0.359929 1.12788e-19)
(0.839065 0.33019 1.35502e-19)
(0.730748 0.277298 1.62206e-19)
(0.526918 0.195024 -1.94414e-19)
(0.300538 0.109044 -5.75106e-20)
(0.119125 0.0415792 6.75253e-20)
(0.0120305 0.00312942 0)
(-0.0105551 -0.0041512 -4.69923e-20)
(0.23733 0.107839 -6.57608e-20)
(1.12272 0.491692 3.56668e-20)
(1.32655 0.585723 1.36574e-21)
(1.36085 0.613419 1.44836e-20)
(1.31892 0.60952 -2.05023e-20)
(1.25178 0.593153 -4.11612e-21)
(1.18229 0.573382 -8.36907e-20)
(1.11124 0.550229 -4.33384e-20)
(1.03903 0.521896 -1.19259e-19)
(0.967539 0.486532 3.21195e-22)
(0.908841 0.448629 -2.4011e-19)
(0.871031 0.41641 2.041e-19)
(0.847553 0.389667 -1.24321e-19)
(0.810788 0.357183 1.49803e-19)
(0.706183 0.300093 0)
(0.5134 0.213538 -1.0597e-19)
(0.299607 0.121955 1.91686e-22)
(0.125327 0.0493695 -2.95619e-19)
(0.018837 0.00644839 -4.33657e-20)
(-0.00858955 -0.00378142 0)
(0.234674 0.116997 0)
(1.11291 0.537625 4.17787e-20)
(1.31755 0.64132 1.45374e-20)
(1.3499 0.670032 -1.06989e-20)
(1.30673 0.663951 -2.85989e-20)
(1.23874 0.644558 0)
(1.16798 0.621653 -3.68112e-20)
(1.09515 0.595236 -1.0663e-21)
(1.0207 0.563407 2.55839e-19)
(0.946566 0.524246 -3.85249e-20)
(0.88533 0.482748 -1.7363e-19)
(0.845544 0.447664 1.05986e-19)
(0.820338 0.418601 -2.24461e-21)
(0.782198 0.383322 1.5949e-19)
(0.680317 0.322256 9.83986e-20)
(0.498097 0.231248 -2.29086e-19)
(0.295625 0.134575 2.71223e-19)
(0.128893 0.0571366 8.03493e-20)
(0.0243275 0.0100149 3.31002e-19)
(-0.00670372 -0.00324588 -8.83954e-19)
(0.233008 0.126098 -2.30196e-20)
(1.10291 0.581253 3.04566e-20)
(1.30719 0.6941 -2.01321e-20)
(1.3375 0.723738 3.21897e-21)
(1.29324 0.715704 0)
(1.22458 0.693613 -2.81612e-20)
(1.15274 0.667931 1.25061e-19)
(1.07835 0.638587 9.45989e-20)
(1.00183 0.60358 0)
(0.92513 0.56088 -5.57065e-19)
(0.861411 0.515892 4.70586e-19)
(0.819742 0.477966 0)
(0.792935 0.446584 1.45741e-19)
(0.753432 0.408407 -2.24264e-21)
(0.653656 0.343092 -3.15482e-19)
(0.480666 0.247436 1.23328e-19)
(0.288616 0.146047 0)
(0.129156 0.0641072 4.3398e-19)
(0.0277353 0.0131658 0)
(-0.005188 -0.00272155 -4.19114e-19)
(0.232158 0.135191 2.79186e-20)
(1.0931 0.62276 4.05968e-20)
(1.29591 0.744105 -1.97404e-20)
(1.32413 0.774553 0)
(1.2789 0.764761 -2.02933e-20)
(1.20971 0.740279 0)
(1.13697 0.712142 -1.21312e-19)
(1.06116 0.680208 -4.30037e-20)
(0.982681 0.642353 4.47864e-20)
(0.903492 0.596396 -2.75744e-19)
(0.837275 0.548026 4.84908e-20)
(0.79377 0.507312 0)
(0.765442 0.47346 -3.11493e-19)
(0.724535 0.432089 2.18834e-21)
(0.626234 0.362197 0)
(0.461035 0.261549 1.23776e-21)
(0.278509 0.15554 3.97514e-19)
(0.126271 0.069425 -3.75165e-19)
(0.0287684 0.0153742 1.10677e-19)
(-0.00421357 -0.00234858 0)
(0.231784 0.144179 0)
(1.08367 0.662266 4.96655e-20)
(1.28412 0.791434 3.04872e-20)
(1.31021 0.822542 -2.52469e-21)
(1.26409 0.811149 -3.58569e-21)
(1.19448 0.784554 -6.30474e-20)
(1.12095 0.754267 4.60606e-20)
(1.04385 0.720064 -5.16045e-20)
(0.963535 0.679696 2.01041e-19)
(0.881865 0.630778 -4.41133e-19)
(0.813084 0.579195 -4.06268e-21)
(0.767719 0.535677 -1.35913e-19)
(0.737879 0.499073 5.06124e-19)
(0.695493 0.454109 -2.59782e-21)
(0.598139 0.379151 -2.45421e-19)
(0.439601 0.273162 -4.36692e-19)
(0.265728 0.162674 0)
(0.120718 0.0727755 0)
(0.0279013 0.0164055 1.19522e-19)
(-0.00371432 -0.00219712 -7.01269e-20)
(0.231992 0.153188 4.00537e-20)
(1.07483 0.699603 -1.1383e-19)
(1.27209 0.836174 -3.28336e-20)
(1.29602 0.867786 0)
(1.24909 0.854923 -1.5527e-21)
(1.17915 0.826469 -5.37629e-20)
(1.10495 0.794316 1.0866e-19)
(1.02669 0.758145 2.00652e-19)
(0.944606 0.715601 2.60606e-19)
(0.860445 0.664043 -3.60056e-19)
(0.788991 0.609461 -4.05524e-19)
(0.741631 0.563046 3.63738e-19)
(0.710239 0.52333 0)
(0.666283 0.474256 -1.11634e-19)
(0.569417 0.393643 -2.65483e-19)
(0.416341 0.282018 -3.14084e-19)
(0.250613 0.167083 -3.70986e-19)
(0.112774 0.0740073 1.09586e-19)
(0.0255007 0.0163386 -6.43397e-20)
(-0.00359025 -0.00223934 2.95803e-22)
(0.232472 0.162019 0)
(1.06663 0.735331 0)
(1.26002 0.878421 2.56387e-21)
(1.28178 0.910385 0)
(1.23413 0.89617 -2.19435e-21)
(1.16394 0.866084 3.30662e-20)
(1.08918 0.832317 0)
(1.00985 0.79446 2.33426e-20)
(0.926075 0.750065 4.33924e-19)
(0.839413 0.696222 -8.2854e-19)
(0.76513 0.638895 0)
(0.715543 0.589446 -2.34422e-19)
(0.682458 0.546229 -3.05298e-21)
(0.636776 0.492373 -2.3554e-21)
(0.540117 0.405418 2.84175e-19)
(0.391731 0.287804 -1.09251e-22)
(0.233694 0.168681 -7.99401e-19)
(0.103019 0.0731484 2.35782e-19)
(0.0219041 0.0152627 6.96686e-20)
(-0.00369938 -0.00241985 0)
(0.233087 0.170697 -1.62447e-19)
(1.05883 0.769408 -7.80841e-20)
(1.24798 0.918237 -1.00082e-19)
(1.26767 0.950446 9.23023e-20)
(1.21939 0.934964 -1.97228e-20)
(1.14902 0.903461 0)
(1.07378 0.868314 6.36519e-20)
(0.993481 0.829034 -5.24477e-20)
(0.908097 0.783104 3.94204e-21)
(0.818933 0.727353 6.1273e-20)
(0.741622 0.667558 5.25585e-19)
(0.689494 0.615005 -8.21967e-20)
(0.654434 0.567872 -3.12545e-19)
(0.606823 0.508291 -1.30223e-19)
(0.510295 0.414116 1.54318e-19)
(0.366411 0.290278 7.16455e-23)
(0.215513 0.167341 2.15311e-19)
(0.0922397 0.0703113 -5.07347e-19)
(0.0177771 0.0133827 5.99648e-19)
(-0.00393639 -0.00269796 8.74277e-20)
(0.233532 0.179145 6.21054e-20)
(1.05145 0.801923 -4.42859e-20)
(1.23613 0.955738 6.33719e-21)
(1.25382 0.988083 6.13635e-20)
(1.205 0.971415 1.109e-20)
(1.13451 0.938673 -5.40796e-20)
(1.05888 0.902354 1.71982e-20)
(0.977712 0.861887 -2.17708e-19)
(0.890806 0.814719 -4.76661e-19)
(0.799142 0.757452 -4.93437e-19)
(0.718603 0.695513 0)
(0.663539 0.639916 -3.61911e-19)
(0.626048 0.588422 4.51046e-19)
(0.576134 0.521854 0)
(0.479862 0.419315 -3.30656e-19)
(0.340949 0.289041 1.96689e-19)
(0.197415 0.162953 -2.3152e-19)
(0.0817174 0.0658461 -2.72968e-19)
(0.0138017 0.0110649 -4.82935e-19)
(-0.00420564 -0.00301514 -3.76532e-19)
(0.234324 0.187462 -7.054e-20)
(1.04433 0.832859 4.73897e-20)
(1.22452 0.990983 1.07734e-19)
(1.24032 1.02336 9.09953e-20)
(1.19106 1.00562 -1.95955e-20)
(1.12051 0.971807 -2.4469e-20)
(1.04458 0.934489 5.83396e-20)
(0.962632 0.893063 -2.22082e-19)
(0.874288 0.844932 -2.81959e-19)
(0.780166 0.786539 5.15936e-19)
(0.696203 0.72283 1.15544e-18)
(0.637752 0.664395 0)
(0.597183 0.608083 0)
(0.544337 0.533066 -1.50002e-19)
(0.448467 0.4206 0)
(0.315558 0.283225 4.22743e-19)
(0.180758 0.154757 4.97699e-19)
(0.0734577 0.0597225 0)
(0.0111884 0.00867343 0)
(-0.00440825 -0.00330839 4.0455e-19)
(0.23478 0.195315 8.06923e-20)
(1.0375 0.862205 6.5228e-20)
(1.21323 1.02408 7.8533e-20)
(1.22725 1.05642 -8.94124e-20)
(1.17763 1.03768 -2.83617e-20)
(1.10707 1.00294 1.83327e-20)
(1.03092 0.964778 -7.89319e-20)
(0.948305 0.922587 -3.79801e-22)
(0.858628 0.87375 -5.1349e-21)
(0.762104 0.81461 -4.79471e-21)
(0.674568 0.749578 5.953e-19)
(0.612235 0.688613 0)
(0.567796 0.627102 4.57678e-19)
(0.511029 0.542182 3.20393e-19)
(0.415339 0.417801 7.72153e-19)
(0.289751 0.271459 2.27822e-19)
(0.16697 0.140094 -2.67812e-19)
(0.071874 0.0488902 -1.57274e-19)
(0.0155733 0.00496207 0)
(-0.00313901 -0.00325347 4.34704e-19)
(0.23558 0.203188 -1.82842e-19)
(1.03091 0.890109 0)
(1.20225 1.05509 9.34215e-20)
(1.21463 1.08734 -7.65823e-20)
(1.16476 1.0677 4.18086e-20)
(1.09424 1.03215 -7.42317e-21)
(1.01797 0.993275 1.46825e-19)
(0.934773 0.950494 -1.86213e-20)
(0.843871 0.901182 0)
(0.745041 0.841634 -5.67994e-19)
(0.653845 0.775804 -1.29376e-18)
(0.587125 0.7127 5.34079e-20)
(0.537954 0.645738 6.32397e-19)
(0.475934 0.54974 0)
(0.379334 0.411445 5.21572e-19)
(0.26118 0.252664 0)
(0.1542 0.112949 0)
(0.082572 0.0181476 -1.70031e-19)
(0.0519239 -0.013854 0)
(0.0266491 0.00613094 1.16434e-19)
(0.235946 0.210484 -2.05295e-19)
(1.02454 0.916764 0)
(1.19157 1.0842 1.56335e-19)
(1.20241 1.11636 0)
(1.15242 1.09595 -2.64762e-20)
(1.08195 1.05974 0)
(1.00565 1.02029 6.16445e-21)
(0.921941 0.977124 3.02383e-20)
(0.829896 0.927594 3.53065e-20)
(0.728803 0.867988 -6.21961e-19)
(0.633852 0.80198 3.86583e-20)
(0.562146 0.737274 4.31076e-19)
(0.507221 0.664738 6.17356e-19)
(0.438147 0.55649 8.34107e-20)
(0.338643 0.403126 4.0922e-19)
(0.224937 0.227891 0)
(0.130766 0.0693875 5.64489e-19)
(0.0727998 -0.0221628 -3.29398e-19)
(0.0322795 0.0566244 3.82513e-19)
(-0.0381855 0.45488 -4.56003e-19)
(0.236262 0.217619 1.70609e-19)
(1.01816 0.942055 2.62395e-19)
(1.18112 1.11174 0)
(1.19045 1.14393 5.15902e-21)
(1.1404 1.123 8.01537e-20)
(1.06994 1.08638 -2.67527e-20)
(0.993642 1.04663 4.69716e-20)
(0.909394 1.00342 0)
(0.816168 0.95409 2.31157e-19)
(0.712707 0.894985 -3.21505e-20)
(0.61367 0.829631 0)
(0.536006 0.76403 0)
(0.473624 0.685537 5.53637e-19)
(0.395212 0.562931 -2.58177e-19)
(0.290204 0.394775 -4.15106e-19)
(0.176979 0.200361 0)
(0.0747677 0.0829852 2.84691e-19)
(0.00654552 0.463963 -3.28843e-19)
(0.0316444 1.92352 -1.83926e-19)
(0.0581995 2.82323 -2.31979e-19)
(0.23621 0.22419 -1.2868e-19)
(1.01181 0.966151 -3.37826e-19)
(1.17091 1.1377 9.35621e-20)
(1.17875 1.16992 7.6566e-20)
(1.12878 1.14866 0)
(1.0583 1.1118 -3.0151e-20)
(0.982168 1.07198 5.80737e-20)
(0.897327 1.02895 -1.42938e-20)
(0.802967 0.980151 3.4609e-20)
(0.697143 0.922019 5.90976e-19)
(0.593919 0.858092 6.53164e-19)
(0.509673 0.792697 4.83383e-19)
(0.437996 0.708164 5.57688e-19)
(0.348572 0.568053 -6.07379e-19)
(0.240468 0.390182 -6.2747e-19)
(0.116598 0.250445 0)
(0.040669 0.87754 0)
(0.0886177 2.57841 1.57677e-19)
(0.0912426 3.2105 0)
(0.0925281 3.38896 3.81757e-19)
(0.23888 0.2303 0)
(1.00577 0.989417 0)
(1.16067 1.16194 0)
(1.1671 1.19418 2.33487e-20)
(1.11721 1.17268 7.44707e-20)
(1.04684 1.13586 -3.58105e-20)
(0.971146 1.09624 3.488e-20)
(0.88567 1.05358 -1.37381e-20)
(0.790229 1.0056 2.84799e-19)
(0.682099 0.94893 -9.2097e-21)
(0.574685 0.887138 1.28853e-18)
(0.483528 0.823309 -5.59581e-20)
(0.400249 0.733271 6.7599e-20)
(0.300388 0.569919 8.8069e-20)
(0.180491 0.407947 -2.24904e-21)
(0.093539 1.01055 1.70847e-21)
(0.126497 2.75911 -8.32543e-19)
(0.131313 3.30082 -3.11917e-19)
(0.121527 3.42415 1.61309e-19)
(0.110651 3.44407 -1.7947e-19)
(0.162116 0.175797 7.63282e-20)
(0.995889 1.01475 0)
(1.15019 1.18466 -1.89205e-19)
(1.15588 1.21712 -2.09045e-19)
(1.10614 1.19555 1.78735e-19)
(1.03623 1.15904 4.27953e-20)
(0.960418 1.11937 -3.25453e-20)
(0.874467 1.07736 1.43387e-19)
(0.778027 1.03053 -2.31127e-19)
(0.667789 0.975836 0)
(0.556241 0.916811 6.31708e-19)
(0.458135 0.855625 -3.93995e-19)
(0.361487 0.763656 0)
(0.244265 0.572443 8.25272e-20)
(0.133834 0.774803 1.99392e-19)
(0.140951 2.56007 -2.28467e-19)
(0.18973 3.32935 2.56957e-19)
(0.171949 3.4356 1.39244e-19)
(0.142383 3.45433 1.56644e-19)
(0.122891 3.46297 2.52034e-19)
(0.274142 0.268883 -1.45491e-19)
(0.979193 1.0256 0)
(1.13249 1.21099 2.07308e-19)
(1.14166 1.24859 2.31748e-19)
(1.089 1.2293 -2.00875e-19)
(1.01849 1.1932 -6.74197e-20)
(0.94151 1.15507 1.38594e-20)
(0.85502 1.11439 1.13555e-20)
(0.757186 1.06984 2.159e-19)
(0.644053 1.01932 5.03436e-19)
(0.527065 0.966802 3.53021e-20)
(0.417468 0.910697 3.48855e-19)
(0.292088 0.802875 6.31273e-20)
(0.206829 0.947922 -8.09326e-20)
(0.212141 2.43344 -1.81807e-19)
(0.263281 3.33489 1.76191e-19)
(0.246301 3.46255 -1.96943e-19)
(0.211699 3.48098 -1.14348e-19)
(0.177871 3.5051 -9.95453e-20)
(0.132748 3.49917 -1.17201e-20)
(0.264532 0.26794 0)
(0.976771 1.04888 6.0358e-20)
(1.12414 1.23489 -4.29227e-20)
(1.13097 1.27244 -2.777e-20)
(1.07815 1.25275 -1.3999e-19)
(1.00763 1.21684 7.06195e-20)
(0.930349 1.17896 -5.17693e-22)
(0.843629 1.13915 9.87529e-21)
(0.745201 1.09613 -2.22327e-19)
(0.630649 1.04859 -1.41013e-20)
(0.510627 1.001 -1.13489e-18)
(0.395062 0.948045 4.98966e-20)
(0.278156 0.876071 -5.94224e-20)
(0.241553 1.55231 -7.44912e-20)
(0.303457 3.14356 1.77294e-20)
(0.3172 3.46543 1.47151e-21)
(0.275377 3.51245 2.90435e-19)
(0.241267 3.53483 1.45866e-19)
(0.195475 3.55442 -4.36895e-20)
(0.145407 3.5502 -5.75163e-20)
(0.250637 0.266137 1.53614e-19)
(0.973467 1.07476 4.11771e-19)
(1.11542 1.26084 -1.23239e-19)
(1.11981 1.2978 -1.05022e-19)
(1.06681 1.27766 0)
(0.996395 1.24177 1.30639e-19)
(0.919088 1.20419 1.47543e-20)
(0.832389 1.1652 8.27825e-21)
(0.733674 1.1238 -2.49205e-20)
(0.61823 1.0795 -4.47454e-19)
(0.496058 1.03734 -5.19953e-19)
(0.376401 0.987588 -4.05231e-19)
(0.276845 1.01844 -4.48056e-19)
(0.305791 2.30798 4.60143e-19)
(0.38348 3.39315 3.84721e-19)
(0.355921 3.52304 0)
(0.307617 3.55873 0)
(0.270799 3.59179 -3.4907e-20)
(0.226158 3.63683 0)
(0.156659 3.62024 -5.02266e-20)
(0.240847 0.268211 -2.30645e-19)
(0.968221 1.10155 -3.50664e-19)
(1.10532 1.28805 0)
(1.10742 1.324 6.20858e-21)
(1.05426 1.30323 -1.53194e-19)
(0.984102 1.26729 2.13957e-19)
(0.907086 1.23002 1.8685e-20)
(0.820633 1.19177 3.23243e-21)
(0.721884 1.15196 -1.49918e-19)
(0.605982 1.11091 2.18245e-20)
(0.482543 1.07425 0)
(0.358616 1.03087 0)
(0.300834 1.30587 -4.04354e-19)
(0.383459 2.97242 1.62188e-19)
(0.448263 3.49365 2.062e-19)
(0.395222 3.55782 0)
(0.353064 3.61377 -1.38477e-20)