/*--------------------------------*- C++ -*----------------------------------*\
  =========                 |
  \\      /  F ield         | OpenFOAM: The Open Source CFD Toolbox
   \\    /   O peration     | Website:  https://openfoam.org
    \\  /    A nd           | Version:  6
     \\/     M anipulation  |
\*---------------------------------------------------------------------------*/
FoamFile
{
    version     2.0;
    format      ascii;
    class       surfaceScalarField;
    location    "86.5";
    object      phi;
}
// * * * * * * * * * * * * * * * * * * * * * * * * * * * * * * * * * * * * * //

dimensions      [0 3 -1 0 0 0 0];

internalField   nonuniform List<scalar> 
17370
(
-0.0900001
0.089849
0.289162
-0.0714624
0.0537523
0.364486
-0.038119
0.0276896
0.426597
-0.0196375
0.0146042
0.504285
-0.0107618
0.00827114
0.601893
-0.00627118
0.00489453
0.720434
-0.00373061
0.00289017
0.863747
-0.00214892
0.00159003
1.03601
-0.00107367
0.000661469
1.24292
-0.000254564
-0.000141481
1.49159
0.000520871
-0.000930959
1.4916
0.00132934
-0.00181807
1.24318
0.00234397
-0.00304803
1.03634
0.0038613
-0.00500537
0.864051
0.00637125
-0.00836389
0.72105
0.0108489
-0.0146845
0.60305
0.019711
-0.0277549
0.507483
0.0381763
-0.0538005
0.431792
0.0715019
-0.0898756
0.365149
0.0900162
0.198995
-0.128137
0.0882282
0.0399089
-0.3646
0.35338
-0.0746704
0.0858896
-0.446477
0.454322
-0.0843857
0.0765408
-0.521191
0.529903
-0.0684429
0.0597305
-0.612789
0.62157
-0.0515406
0.0427598
-0.726895
0.734166
-0.0352977
0.0280268
-0.867476
0.872593
-0.0224246
0.0173076
-1.03847
1.04193
-0.0134965
0.0100455
-1.2446
1.24703
-0.00743368
0.0049995
-1.49262
1.4946
-0.00304992
0.00106814
-1.49251
1.49423
0.000605131
-0.00232902
-1.24397
1.24586
0.00423451
-0.0061202
-1.03751
1.04003
0.00847514
-0.0109992
-0.8661
0.869826
0.0143471
-0.0180733
-0.72439
0.729932
0.0231127
-0.0286554
-0.608697
0.61611
0.035869
-0.0432818
-0.514896
0.523039
0.0520107
-0.0601537
-0.439855
0.447913
0.0688154
-0.0768729
-0.375295
0.376738
0.0846686
-0.086112
-0.257329
0.222475
0.0748212
-0.0399671
-0.0685222
0.0586977
0.0098245
-0.0518029
0.0583833
-0.374131
0.36755
-0.0574648
0.0537104
-0.453597
0.457352
-0.0486182
0.0446635
-0.52795
0.531905
-0.0408208
0.0371793
-0.621568
0.625209
-0.0330744
0.0289958
-0.735353
0.739432
-0.0244221
0.0202596
-0.874345
0.878508
-0.0159103
0.0122132
-1.04349
1.04719
-0.00847214
0.00529634
-1.24857
1.25174
-0.00196556
-0.00110934
-1.49666
1.49974
0.0041579
-0.00742526
-1.4972
1.50047
0.0105059
-0.0141092
-1.25007
1.25367
0.0176596
-0.0218405
-1.04592
1.0501
0.025861
-0.0302972
-0.877756
0.882192
0.0342651
-0.0382598
-0.739895
0.74389
0.0418076
-0.0455532
-0.626769
0.630515
0.0494245
-0.054437
-0.534806
0.539819
0.0581038
-0.0589128
-0.45747
0.458279
0.0522033
-0.0319955
-0.335744
0.315537
0.0098896
-0.0683403
0.0584507
-0.0529488
0.0489556
0.00399317
-0.033146
0.043684
-0.358122
0.347584
-0.0473761
0.0467442
-0.459293
0.459925
-0.0436838
0.040327
-0.53581
0.539167
-0.0365498
0.0332416
-0.628538
0.631846
-0.0297988
0.0267624
-0.742659
0.745695
-0.0234985
0.0203871
-0.88203
0.885142
-0.0168515
0.0134673
-1.05078
1.05417
-0.00966888
0.00612599
-1.25518
1.25872
-0.00215273
-0.00164716
-1.50325
1.50705
0.00541422
-0.00928889
-1.50413
1.50801
0.0126963
-0.016303
-1.25741
1.26102
0.0194828
-0.022783
-1.05391
1.05721
0.025693
-0.0287581
-0.885677
0.888742
0.0316316
-0.0349117
-0.747145
0.750425
0.0380825
-0.0417197
-0.634295
0.637932
0.0449565
-0.0478797
-0.544125
0.547048
0.048367
-0.0444717
-0.45656
0.452664
0.0336911
-0.0162304
-0.296162
0.278701
0.00407434
-0.0526284
0.048554
-0.0458807
0.0433884
0.00249223
-0.0227838
0.0331507
-0.336904
0.326537
-0.0389614
0.0399708
-0.459615
0.458605
-0.0387737
0.0364817
-0.54189
0.544182
-0.0338081
0.0312063
-0.634902
0.637503
-0.0281364
0.0252307
-0.748746
0.751652
-0.0219589
0.0189585
-0.888101
0.891101
-0.0156461
0.0125402
-1.05731
1.06041
-0.00900731
0.005593
-1.26218
1.2656
-0.0016253
-0.00226134
-1.51093
1.51482
0.00610403
-0.00994026
-1.51189
1.51573
0.0131756
-0.0164576
-1.26445
1.26773
0.019296
-0.0222994
-1.06031
1.06331
0.0250325
-0.0280374
-0.891785
0.89479
0.0307214
-0.0335683
-0.753625
0.756472
0.0359816
-0.0384661
-0.640992
0.643476
0.0405965
-0.0415802
-0.548845
0.549828
0.0403472
-0.0342097
-0.447373
0.441235
0.0234851
-0.01025
-0.263467
0.250232
0.00259262
-0.0453871
0.0427945
-0.0413171
0.0395542
0.00176287
-0.016716
0.02595
-0.316699
0.307465
-0.0325388
0.0346668
-0.457015
0.454887
-0.0342358
0.0325576
-0.546165
0.547844
-0.0303688
0.028266
-0.639815
0.641918
-0.0258258
0.0234198
-0.754303
0.756709
-0.0205516
0.0177531
-0.894004
0.896803
-0.0145064
0.0114277
-1.06347
1.06654
-0.00792762
0.00459392
-1.26893
1.27226
-0.000754456
-0.00298249
-1.51861
1.52235
0.00666304
-0.0103338
-1.51946
1.52313
0.013438
-0.0166174
-1.27097
1.27415
0.0193545
-0.0222063
-1.06634
1.06919
0.0246614
-0.0271845
-0.897592
0.900115
0.0293035
-0.0314557
-0.758912
0.761065
0.0333174
-0.0352628
-0.645621
0.647567
0.0367065
-0.0368478
-0.550335
0.550476
0.0343767
-0.0273089
-0.43455
0.427482
0.0175923
-0.00742518
-0.23868
0.228512
0.00188556
-0.0406104
0.0387248
-0.0380369
0.036713
0.00132385
-0.012746
0.0206674
-0.298892
0.290971
-0.0273925
0.0302965
-0.452341
0.449437
-0.0304858
0.0293538
-0.549283
0.550415
-0.0273498
0.0254224
-0.643962
0.645889
-0.0232099
0.0210605
-0.758957
0.761107
-0.0185312
0.0160342
-0.899387
0.901884
-0.0130763
0.0101825
-1.06949
1.07239
-0.00680518
0.00355135
-1.27553
1.27878
0.000206559
-0.00384165
-1.526
1.52964
0.00740593
-0.0109514
-1.52672
1.53026
0.0139173
-0.0168929
-1.27727
1.28024
0.0193592
-0.0218231
-1.07193
1.07439
0.02389
-0.0259849
-0.902385
0.90448
0.0277715
-0.0296187
-0.763036
0.764883
0.0312413
-0.0329493
-0.649375
0.651083
0.0337398
-0.0331449
-0.55025
0.549655
0.0297496
-0.022368
-0.420198
0.412816
0.0138256
-0.00576604
-0.219498
0.211439
0.00147316
-0.0370701
0.0355969
-0.0355582
0.0345406
0.00101756
-0.00993813
0.0166206
-0.283695
0.277012
-0.0230683
0.0264144
-0.446293
0.442947
-0.0271733
0.0264566
-0.551334
0.55205
-0.0246821
0.0228832
-0.647796
0.649595
-0.020796
0.0187625
-0.763192
0.765226
-0.0163708
0.014024
-0.904236
0.906582
-0.011263
0.00855734
-1.07511
1.07782
-0.00537788
0.00227504
-1.28192
1.28502
0.0013509
-0.0048732
-1.5332
1.53672
0.00830776
-0.0116702
-1.5337
1.53706
0.0144173
-0.0171014
-1.28309
1.28578
0.0192797
-0.0214315
-1.07676
1.07892
0.023247
-0.0251008
-0.906437
0.908291
0.0266842
-0.0283184
-0.766615
0.768249
0.0297392
-0.031103
-0.652648
0.654012
0.0313964
-0.030062
-0.5487
0.547365
0.0260384
-0.0187255
-0.40544
0.398127
0.011262
-0.00466941
-0.20418
0.197587
0.00119921
-0.0342751
0.0330759
-0.0336492
0.0328598
0.000789352
-0.00785166
0.0134523
-0.270901
0.2653
-0.0194026
0.0229346
-0.4395
0.435968
-0.0241606
0.0236858
-0.552682
0.553156
-0.0221725
0.0204788
-0.651392
0.653086
-0.0184812
0.0165282
-0.767212
0.769165
-0.0142223
0.0119574
-0.90882
0.911085
-0.00929371
0.00669322
-1.0804
1.083
-0.00364996
0.000686266
-1.28801
1.29097
0.00277195
-0.00612269
-1.54013
1.54348
0.00936565
-0.0125006
-1.54028
1.54342
0.015029
-0.0174671
-1.28835
1.29079
0.0194225
-0.0213405
-1.08105
1.08296
0.0229535
-0.0245976
-0.910029
0.911673
0.0259973
-0.0274372
-0.769776
0.771216
0.0286577
-0.0296344
-0.655178
0.656154
0.029551
-0.0275403
-0.545686
0.543675
0.0231033
-0.0160423
-0.390931
0.38387
0.00947075
-0.00391425
-0.19156
0.186004
0.00101019
-0.0319817
0.0309715
-0.0321692
0.0315574
0.000611718
-0.00623643
0.0109111
-0.260192
0.255517
-0.0162578
0.0197774
-0.432444
0.428925
-0.0213151
0.0210591
-0.553562
0.553818
-0.0197708
0.0181318
-0.654802
0.656441
-0.0161846
0.0142752
-0.771085
0.772994
-0.0120215
0.00980873
-0.913246
0.915458
-0.00720652
0.00467004
-1.08549
1.08803
-0.00171082
-0.00115319
-1.29383
1.29669
0.00446615
-0.00764467
-1.54671
1.54989
0.0106912
-0.0136087
-1.54641
1.54932
0.0159413
-0.0181628
-1.29314
1.29537
0.0199135
-0.0216078
-1.08489
1.08658
0.0230258
-0.0244704
-0.9132
0.914645
0.0257015
-0.0269639
-0.772555
0.773817
0.0280408
-0.0285954
-0.656927
0.657482
0.028122
-0.025536
-0.541375
0.538789
0.020836
-0.0140867
-0.376969
0.370219
0.00821301
-0.00339126
-0.18085
0.176028
0.000879997
-0.0300348
0.0291548
-0.0310269
0.0305598
0.000467101
-0.004931
0.00880479
-0.251271
0.247397
-0.013503
0.0168607
-0.425498
0.42214
-0.0185688
0.0184949
-0.55403
0.554104
-0.0173915
0.0157826
-0.658134
0.659743
-0.0138506
0.011949
-0.774882
0.776784
-0.00970562
0.00750909
-0.917572
0.919768
-0.00493561
0.00243728
-1.09046
1.09296
0.000464045
-0.00325457
-1.29946
1.30225
0.00645564
-0.00949358
-1.55296
1.556
0.0123715
-0.015093
-1.5521
1.55482
0.0172402
-0.0192488
-1.29751
1.29952
0.0207956
-0.0222688
-1.08831
1.08978
0.0235006
-0.0247609
-0.915973
0.917233
0.0258401
-0.0269415
-0.774983
0.776085
0.0278115
-0.0279999
-0.657841
0.65803
0.0270997
-0.0240165
-0.535952
0.532869
0.0191447
-0.0126928
-0.363633
0.357181
0.00734295
-0.00303616
-0.171493
0.167186
0.000793205
-0.0283257
0.0275325
-0.0301623
0.0298183
0.000344047
-0.00383202
0.00699968
-0.243903
0.240735
-0.0110366
0.0141212
-0.418939
0.415854
-0.0158715
0.0159413
-0.554163
0.554094
-0.0149099
0.0133657
-0.661397
0.662941
-0.0114196
0.00949148
-0.778675
0.780604
-0.00721791
0.0050005
-0.921871
0.924088
-0.00241609
-7.81078e-05
-1.09535
1.09785
0.00295546
-0.0057015
-1.30495
1.3077
0.00882148
-0.0117458
-1.55894
1.56186
0.0144763
-0.0170151
-1.5574
1.55994
0.0189826
-0.0207808
-1.30145
1.30325
0.022125
-0.0233809
-1.09131
1.09257
0.0244326
-0.0255168
-0.918376
0.91946
0.0264516
-0.0273915
-0.777079
0.778018
0.0280003
-0.0278882
-0.658071
0.657958
0.0265238
-0.022978
-0.529559
0.526013
0.0179704
-0.0117541
-0.350868
0.344651
0.00677346
-0.00281068
-0.163077
0.159115
0.000740313
-0.0267729
0.0260326
-0.029537
0.0293035
0.000233524
-0.00286323
0.00539081
-0.237912
0.235385
-0.00876526
0.0114927
-0.412975
0.410248
-0.0131695
0.0133078
-0.554057
0.553919
-0.0123096
0.0107973
-0.664558
0.66607
-0.00881241
0.00682738
-0.782527
0.784512
-0.00448683
0.00221263
-0.926214
0.928488
0.000424334
-0.00295293
-1.10025
1.10278
0.00584749
-0.00858413
-1.31037
1.3131
0.0116575
-0.0144955
-1.56469
1.56753
0.0170989
-0.0194698
-1.56234
1.56471
0.0212671
-0.0228605
-1.30498
1.30657
0.0240011
-0.025035
-1.09391
1.09495
0.025901
-0.0267992
-0.920419
0.921317
0.0275777
-0.0283516
-0.778804
0.779578
0.0286762
-0.0282341
-0.657709
0.657267
0.0264048
-0.0224136
-0.522267
0.518275
0.0172656
-0.011195
-0.338536
0.332465
0.00644531
-0.00268813
-0.155279
0.151521
0.00071427
-0.0253122
0.0245979
-0.0291298
0.029002
0.000127872
-0.00196062
0.00388459
-0.233183
0.231259
-0.00659004
0.00888878
-0.407767
0.405468
-0.0103831
0.0105102
-0.55387
0.553743
-0.00950966
0.00798897
-0.667691
0.669211
-0.00593497
0.00386031
-0.786495
0.78857
-0.00141356
-0.000954559
-0.930672
0.93304
0.00368561
-0.00628674
-1.10523
1.10783
0.00923961
-0.0120018
-1.31577
1.31853
0.0150614
-0.0178362
-1.57028
1.57306
0.0203286
-0.0225419
-1.56693
1.56914
0.0241744
-0.0255627
-1.3081
1.30949
0.0264956
-0.0273017
-1.0961
1.09691
0.0279726
-0.0286734
-0.922084
0.922784
0.0292957
-0.0299272
-0.780176
0.780808
0.0299026
-0.0290511
-0.656642
0.655791
0.0267439
-0.0223038
-0.5141
0.50966
0.0169819
-0.0109551
-0.326449
0.320423
0.00631416
-0.00264877
-0.147833
0.144168
0.000709927
-0.0238926
0.0231827
-0.0289345
0.0289135
2.091e-05
-0.00107579
0.00240841
-0.229653
0.22832
-0.00442894
0.00623379
-0.403452
0.401647
-0.00744144
0.00747448
-0.553768
0.553735
-0.00642266
0.00485274
-0.670881
0.67245
-0.00268743
0.000487565
-0.790645
0.792845
0.00210722
-0.00460914
-0.935318
0.93782
0.00747961
-0.0101954
-1.11035
1.11307
0.0132517
-0.0160779
-1.32123
1.32406
0.0191605
-0.0218999
-1.57575
1.57849
0.0242997
-0.0263654
-1.5712
1.57326
0.0278355
-0.0290165
-1.31081
1.31199
0.0297417
-0.0303174
-1.09786
1.09844
0.0307867
-0.0312782
-0.923348
0.92384
0.0317188
-0.0320915
-0.781175
0.781548
0.0317699
-0.0304309
-0.65475
0.653411
0.0276045
-0.0226736
-0.505028
0.500098
0.0171105
-0.0110088
-0.314396
0.308294
0.00635911
-0.00268318
-0.140521
0.136845
0.000724855
-0.0224724
0.0217475
-0.028953
0.0290426
-8.95607e-05
-0.000160326
0.000892733
-0.227306
0.226573
-0.00219849
0.00344304
-0.40016
0.398915
-0.0042624
0.0041168
-0.553927
0.554073
-0.00295573
0.0012784
-0.674219
0.675896
0.00103558
-0.00340364
-0.795045
0.797413
0.00619631
-0.00887889
-0.940233
0.942916
0.0119403
-0.0148166
-1.11572
1.1186
0.0180241
-0.0209546
-1.32683
1.32976
0.0240995
-0.0268319
-1.58116
1.58389
0.0291573
-0.0310812
-1.57516
1.57708
0.0323872
-0.0333585
-1.3131
1.31407
0.033871
-0.0342086
-1.09917
1.09951
0.0344662
-0.0347374
-0.924184
0.924455
0.0349706
-0.0350115
-0.781606
0.781647
0.0343573
-0.0324495
-0.651871
0.649963
0.0290401
-0.0235453
-0.494956
0.489461
0.0176469
-0.0113389
-0.302133
0.295825
0.00656543
-0.00278395
-0.133141
0.129359
0.000756814
-0.021014
0.0202572
-0.029204
0.0294264
-0.000222305
0.000798625
-0.000722546
-0.226169
0.226093
0.00018549
0.000423116
-0.398021
0.397413
-0.00074922
0.000333155
-0.554532
0.554948
0.00100951
-0.00285507
-0.677826
0.679671
0.0053764
-0.00796378
-0.799782
0.80237
0.0110117
-0.0139278
-0.945513
0.948429
0.0172382
-0.0203268
-1.12142
1.1245
0.0237391
-0.0268166
-1.33265
1.33573
0.0300598
-0.0328058
-1.58655
1.5893
0.0350649
-0.0368499
-1.57883
1.58061
0.0379926
-0.0387512
-1.31493
1.31569
0.0390418
-0.0391204
-1.1
1.10008
0.0391472
-0.0391837
-0.924557
0.924594
0.0392279
-0.0388414
-0.781363
0.780976
0.0377629
-0.0351927
-0.647856
0.645285
0.0311093
-0.0249422
-0.483719
0.477551
0.0185887
-0.0119311
-0.289391
0.282733
0.00691972
-0.00294368
-0.125506
0.121529
0.00080336
-0.0194846
0.0186812
-0.0297212
0.0300888
-0.000367635
0.00186973
-0.00242222
-0.226342
0.226894
0.00274764
-0.00289511
-0.397181
0.397328
0.00321365
-0.00401162
-0.555805
0.556603
0.00559913
-0.00767994
-0.68183
0.68391
0.0104832
-0.0133553
-0.804957
0.807829
0.0167269
-0.0199383
-0.951265
0.954476
0.0235648
-0.0269246
-1.12755
1.13091
0.0306002
-0.0338709
-1.33878
1.34205
0.0372529
-0.0400362
-1.59197
1.59476
0.0422336
-0.0438673
-1.58218
1.58382
0.0448297
-0.0453719
-1.3163
1.31685
0.0454349
-0.0452349
-1.1003
1.1001
0.0450116
-0.0447989
-0.924416
0.924203
0.044615
-0.0437217
-0.780263
0.779369
0.0421274
-0.038767
-0.642518
0.639157
0.0338803
-0.0268923
-0.471084
0.464096
0.0199371
-0.0127733
-0.275877
0.268713
0.00740921
-0.00315472
-0.11744
0.113185
0.000861805
-0.0178561
0.0169943
-0.0305311
0.0310773
-0.000546231
0.0031603
-0.00450101
-0.227874
0.229215
0.00573231
-0.00667901
-0.397844
0.398791
0.00774427
-0.00904038
-0.557982
0.559279
0.0109987
-0.0133955
-0.686369
0.688765
0.0165659
-0.0197985
-0.810696
0.813929
0.0235758
-0.0271567
-0.957617
0.961198
0.0311765
-0.0348716
-1.13424
1.13793
0.0388719
-0.0423803
-1.3453
1.3488
0.0459337
-0.0487666
-1.59747
1.60031
0.0508977
-0.0523623
-1.58521
1.58668
0.0531267
-0.0534399
-1.31717
1.31748
0.0532557
-0.0527556
-1.10002
1.09952
0.0522692
-0.0517875
-0.923719
0.923237
0.051231
-0.0498695
-0.778233
0.776871
0.0475841
-0.0432679
-0.635592
0.631276
0.0374103
-0.0294105
-0.456737
0.448737
0.0216809
-0.0138438
-0.261273
0.253436
0.00801437
-0.00340593
-0.10878
0.104171
0.000928376
-0.0161063
0.0151779
-0.0317056
0.0324815
-0.00077592
0.00470952
-0.00694921
-0.231001
0.233241
0.00926474
-0.0111434
-0.400227
0.402105
0.0130693
-0.014981
-0.56131
0.563222
0.0174459
-0.0202546
-0.69161
0.694419
0.0239075
-0.027589
-0.817158
0.82084
0.0318668
-0.0358999
-0.96472
0.968754
0.0403974
-0.0444959
-1.14161
1.1457
0.0488804
-0.0526628
-1.35229
1.35607
0.056405
-0.0592823
-1.60306
1.60594
0.0613261
-0.0625917
-1.58787
1.58914
0.0631229
-0.0631807
-1.31746
1.31751
0.0627275
-0.0618961
-1.09913
1.0983
0.0611225
-0.0603643
-0.922415
0.921656
0.0593368
-0.0573974
-0.775298
0.773359
0.0542811
-0.0487924
-0.626726
0.621238
0.041742
-0.0324896
-0.440273
0.431021
0.0237862
-0.0151014
-0.24524
0.236555
0.00870182
-0.00367914
-0.0993797
0.0943571
0.000997019
-0.0142217
0.0132247
-0.0333375
0.0344102
-0.00107276
0.00664261
-0.00998829
-0.235948
0.239294
0.0135671
-0.0165207
-0.404605
0.407559
0.0194415
-0.0220969
-0.566076
0.568731
0.0252184
-0.0285779
-0.697767
0.701126
0.0328494
-0.0370951
-0.824525
0.828771
0.0419891
-0.0465703
-0.972745
0.977326
0.0516368
-0.0562036
-1.1498
1.15436
0.0610194
-0.0650949
-1.35983
1.3639
0.0690193
-0.0719098
-1.60871
1.6116
0.0738204
-0.0748339
-1.5901
1.59112
0.0750763
-0.0748284
-1.31705
1.31681
0.0740922
-0.0728951
-1.09754
1.09635
0.0718198
-0.0707683
-0.920499
0.919447
0.0691793
-0.0665307
-0.771254
0.768606
0.0623621
-0.0553929
-0.615464
0.608495
0.0468578
-0.0360603
-0.421194
0.410397
0.0261657
-0.0164667
-0.227433
0.217734
0.00941483
-0.00394623
-0.0891329
0.0836643
0.00105908
-0.0122021
0.011143
-0.0355528
0.0370401
-0.00148728
0.00919487
-0.0138985
-0.243083
0.247787
0.0189807
-0.0231802
-0.411341
0.415541
0.0272573
-0.030812
-0.572603
0.576158
0.0347746
-0.0388519
-0.705128
0.709205
0.0439171
-0.0488715
-0.833025
0.837979
0.0545172
-0.0597476
-0.981887
0.987117
0.0654657
-0.0705452
-1.15892
1.164
0.0758029
-0.0801435
-1.36792
1.37226
0.0841798
-0.0869908
-1.61433
1.61714
0.0886695
-0.0893369
-1.59177
1.59243
0.089239
-0.0886542
-1.31589
1.3153
0.0875737
-0.0859896
-1.09521
1.09363
0.0846038
-0.0830875
-0.917876
0.91636
0.080994
-0.0773665
-0.765764
0.762136
0.0718647
-0.0630249
-0.601168
0.592328
0.0526425
-0.0399623
-0.398904
0.386224
0.0286572
-0.0178094
-0.207535
0.196687
0.0100669
-0.00416696
-0.0779964
0.0720965
0.00110284
-0.0100657
0.0089629
-0.0385607
0.0406384
-0.00207766
0.0127202
-0.0191572
-0.252894
0.259331
0.0260433
-0.031692
-0.42093
0.426579
0.0371316
-0.0417857
-0.581288
0.585942
0.0467989
-0.0518056
-0.714052
0.719059
0.0578992
-0.0637276
-0.842941
0.848769
0.0702566
-0.0762135
-0.992341
0.998298
0.0826189
-0.0881948
-1.16905
1.17463
0.0938234
-0.0983236
-1.37648
1.38098
0.102322
-0.104898
-1.61971
1.62228
0.106196
-0.106378
-1.59264
1.59283
0.105848
-0.104796
-1.31387
1.31282
0.103344
-0.101387
-1.0921
1.09014
0.0996751
-0.0975956
-0.91419
0.91211
0.0949191
-0.0899913
-0.758258
0.75333
0.0827347
-0.0714992
-0.583016
0.571781
0.0588233
-0.0438946
-0.372733
0.357804
0.030991
-0.0189344
-0.185312
0.173256
0.0105382
-0.00428972
-0.0660316
0.0597831
0.00111431
-0.00785555
0.00674123
-0.0426886
0.0456824
-0.00299384
0.0178353
-0.0265544
-0.266123
0.274842
0.0356635
-0.043053
-0.434047
0.441437
0.0501077
-0.0560827
-0.592629
0.598604
0.0624807
-0.0687485
-0.724979
0.731247
0.0760741
-0.0828888
-0.854573
0.861387
0.0903611
-0.0970341
-1.00423
1.01091
0.104042
-0.109975
-1.18009
1.18602
0.115767
-0.120204
-1.38524
1.38967
0.123898
-0.12599
-1.62448
1.62657
0.126684
-0.126192
-1.59244
1.59195
0.125088
-0.123464
-1.31082
1.30919
0.121627
-0.119254
-1.08811
1.08574
0.117112
-0.114472
-0.909218
0.906578
0.110909
-0.104234
-0.748036
0.741361
0.0946668
-0.0803825
-0.559925
0.545641
0.0649036
-0.0473815
-0.34199
0.324468
0.0327807
-0.0195882
-0.160716
0.147524
0.0106857
-0.00425789
-0.0534467
0.0470189
0.00107933
-0.00564173
0.0045624
-0.048524
0.0530605
-0.00453656
0.0257476
-0.0375489
-0.283951
0.295752
0.0495324
-0.059261
-0.45176
0.461489
0.0683636
-0.075938
-0.607205
0.614779
0.0840043
-0.0917936
-0.738356
0.746146
0.100423
-0.108176
-0.868128
0.875881
0.116434
-0.123594
-1.01745
1.02461
0.130871
-0.136811
-1.19167
1.19761
0.14235
-0.146334
-1.39365
1.39764
0.149302
-0.150552
-1.62809
1.62934
0.150344
-0.148936
-1.59076
1.58935
0.147093
-0.144807
-1.30649
1.3042
0.142521
-0.139694
-1.08314
1.08032
0.13706
-0.133762
-0.902867
0.899569
0.128863
-0.119694
-0.734055
0.724886
0.107024
-0.0889012
-0.530527
0.512404
0.0701033
-0.0497674
-0.3061
0.285765
0.0335496
-0.0194964
-0.134018
0.119965
0.0103702
-0.00402198
-0.0406311
0.0342828
0.000985407
-0.00351905
0.00253365
-0.0571712
0.0649015
-0.00773025
0.0395706
-0.0559101
-0.308557
0.324896
0.071947
-0.0848535
-0.475695
0.488602
0.0961156
-0.105186
-0.62552
0.634591
0.114886
-0.124053
-0.754471
0.763637
0.133726
-0.141967
-0.883336
0.891577
0.150383
-0.157398
-1.03137
1.03838
0.164261
-0.169577
-1.20294
1.20826
0.174221
-0.177169
-1.40086
1.40381
0.178858
-0.178798
-1.62977
1.6297
0.177303
-0.174691
-1.58709
1.58448
0.171901
-0.168818
-1.30066
1.29758
0.166004
-0.162662
-1.07703
1.07369
0.159433
-0.155067
-0.894661
0.890294
0.148186
-0.135446
-0.714684
0.701943
0.11858
-0.0957712
-0.49312
0.470312
0.0733927
-0.0503791
-0.264861
0.241847
0.032919
-0.0185128
-0.105973
0.0915669
0.00953946
-0.00356681
-0.0281541
0.0221815
0.000823293
-0.00159586
0.000772562
-0.0720788
0.0764137
-0.00433491
0.0302454
-0.0445545
-0.343943
0.358252
0.0589291
-0.0708318
-0.507225
0.519127
0.0816151
-0.0918145
-0.64734
0.657539
0.103387
-0.114117
-0.772167
0.782897
0.126108
-0.136804
-0.898789
0.909485
0.148286
-0.1586
-1.0445
1.05482
0.16956
-0.179142
-1.21254
1.22212
0.188957
-0.197102
-1.40566
1.4138
0.204846
-0.210524
-1.62855
1.63422
0.214147
-0.216365
-1.58082
1.58303
0.217311
-0.21781
-1.29303
1.29353
0.218211
-0.217647
-1.06938
1.06881
0.216155
-0.211374
-0.883359
0.878578
0.200872
-0.180415
-0.68755
0.667093
0.153498
-0.119064
-0.446212
0.411778
0.0875838
-0.0572674
-0.218862
0.188546
0.0358593
-0.019304
-0.0779443
0.061389
0.00949344
-0.00332971
-0.0166859
0.0105222
0.000688574
6.43226e-05
-0.000752897
-0.084057
0.0821282
0.00192882
0.0082472
-0.0175966
-0.375382
0.384732
0.0285817
-0.0372607
-0.535809
0.544488
0.0460821
-0.0546158
-0.670518
0.679051
0.0651702
-0.0751404
-0.79306
0.80303
0.085897
-0.0957526
-0.919565
0.929421
0.10632
-0.115473
-1.06486
1.07402
0.125401
-0.133727
-1.23153
1.23986
0.142254
-0.149116
-1.42169
1.42855
0.155282
-0.159675
-1.6393
1.64369
0.16219
-0.163403
-1.58482
1.58604
0.163297
-0.162764
-1.29285
1.29231
0.162278
-0.161318
-1.06592
1.06496
0.158874
-0.152233
-0.868705
0.862063
0.140347
-0.120526
-0.642546
0.622726
0.097584
-0.0712306
-0.3753
0.348946
0.0496645
-0.0310051
-0.159165
0.140506
0.0187249
-0.00977026
-0.0460383
0.0370837
0.00464794
-0.00157059
-0.00461567
0.00153831
0.000291091
0.00164439
-0.00193548
-0.0856321
0.0826657
0.00296633
-0.00094484
-0.00447512
-0.396852
0.402272
0.0118201
-0.0182628
-0.557178
0.563621
0.0248526
-0.0322062
-0.690217
0.697571
0.0413964
-0.0500604
-0.811961
0.820625
0.0596208
-0.0682238
-0.938437
0.94704
0.0772111
-0.0853943
-1.08301
1.09119
0.0940739
-0.101467
-1.24777
1.25516
0.108616
-0.11424
-1.43482
1.44044
0.119383
-0.122697
-1.64757
1.65088
0.124213
-0.124524
-1.58681
1.58712
0.123753
-0.12266
-1.29101
1.28992
0.12125
-0.119551
-1.06085
1.05915
0.116472
-0.109219
-0.85152
0.844267
0.0977789
-0.0803516
-0.599962
0.582535
0.062204
-0.0433109
-0.320984
0.302091
0.0294785
-0.0183283
-0.121938
0.110788
0.0111796
-0.00598777
-0.0282628
0.023071
0.0029378
-0.00103431
0.0017416
-0.00364509
0.000207198
0.00243301
-0.00264021
-0.0843709
0.0814827
0.00288814
-0.00499386
0.0022562
-0.411235
0.413973
0.00254246
-0.00743995
-0.573202
0.5781
0.0129882
-0.0191521
-0.706427
0.712591
0.0270428
-0.0344731
-0.82852
0.835951
0.0426311
-0.0500005
-0.955045
0.962414
0.0580936
-0.0650436
-1.09891
1.10586
0.0726026
-0.0785835
-1.26212
1.2681
0.0846999
-0.0894151
-1.44583
1.45055
0.0934106
-0.0955379
-1.65384
1.65596
0.0963703
-0.0961078
-1.58698
1.58672
0.094878
-0.0929017
-1.28819
1.28622
0.0909326
-0.0885143
-1.05457
1.05215
0.0848883
-0.0781526
-0.833091
0.826356
0.0679137
-0.0539772
-0.562692
0.548755
0.040717
-0.0282319
-0.282286
0.269801
0.0196012
-0.0127914
-0.0990054
0.0921956
0.00828297
-0.00479603
-0.0173131
0.0138261
0.00254324
-0.000984725
0.00596876
-0.00752728
0.00022844
0.00301434
-0.00324278
-0.0827738
0.0801731
0.00260071
-0.00648139
0.00544147
-0.420885
0.421925
-0.00184444
-0.00181266
-0.586041
0.589698
0.00622817
-0.0117692
-0.720022
0.725563
0.0183803
-0.0248728
-0.842562
0.849055
0.0319026
-0.0382708
-0.969275
0.975643
0.0451787
-0.051293
-1.11263
1.11874
0.057649
-0.0629899
-1.27389
1.27923
0.06812
-0.0719596
-1.45484
1.45868
0.0750127
-0.0763056
-1.6579
1.6592
0.0763898
-0.0752471
-1.58575
1.58461
0.0734851
-0.0710889
-1.28387
1.28147
0.0685645
-0.06534
-1.04736
1.04414
0.0615649
-0.0554458
-0.815594
0.809475
0.0471513
-0.0366022
-0.532785
0.522236
0.0274797
-0.0195278
-0.256097
0.248145
0.0141777
-0.00996695
-0.0845326
0.0803219
0.00697902
-0.00438467
-0.00966493
0.00707059
0.0025271
-0.00106241
0.00949248
-0.0109572
0.000279763
0.00360054
-0.00388031
-0.0812014
0.078932
0.00226942
-0.00666828
0.00623251
-0.427447
0.427883
-0.00409753
0.00114733
-0.595916
0.598866
0.0030892
-0.00779511
-0.731482
0.736188
0.0134249
-0.0190045
-0.854649
0.860229
0.0251775
-0.0307965
-0.9816
0.987219
0.0370102
-0.0422791
-1.12452
1.12979
0.0478482
-0.0524826
-1.28421
1.28884
0.0567861
-0.0598699
-1.46214
1.46523
0.0620665
-0.0629642
-1.6603
1.6612
0.0622909
-0.0606098
-1.58291
1.58123
0.0582692
-0.0552798
-1.27858
1.27559
0.0524638
-0.0485656
-1.03923
1.03534
0.0444967
-0.0390667
-0.799605
0.794175
0.0324105
-0.0246596
-0.509789
0.502038
0.0185795
-0.0136885
-0.238903
0.234012
0.0106405
-0.00813185
-0.075177
0.0726684
0.00611136
-0.00416034
-0.00385428
0.00190327
0.0025658
-0.00116986
0.0127389
-0.0141348
0.000336092
0.00424171
-0.0045778
-0.0798931
0.0780739
0.00181921
-0.00602235
0.00602993
-0.432182
0.432175
-0.00432736
0.00214741
-0.604429
0.606609
0.00173502
-0.00594987
-0.741312
0.745526
0.0111982
-0.0159367
-0.865334
0.870073
0.0212728
-0.0261648
-0.992746
0.997638
0.0319119
-0.036555
-1.13502
1.13967
0.0413342
-0.0454778
-1.2932
1.29734
0.0495465
-0.0520408
-1.4682
1.47069
0.0537185
-0.0538989
-1.66155
1.66173
0.0529242
-0.0503762
-1.57914
1.5766
0.0476743
-0.0442809
-1.27211
1.26872
0.0408129
-0.0365892
-1.03026
1.02604
0.0321976
-0.0269968
-0.785055
0.779854
0.0217754
-0.0159782
-0.492314
0.486517
0.0119666
-0.00927392
-0.227852
0.225159
0.00766258
-0.00631576
-0.0692191
0.0678722
0.0051109
-0.00374974
0.000617279
-0.00197843
0.0024596
-0.00120422
0.0157625
-0.0170179
0.000379459
0.00494905
-0.00532851
-0.0790363
0.0775743
0.00146197
-0.00510576
0.00535173
-0.435742
0.435496
-0.00387262
0.00187152
-0.611695
0.613696
0.00172305
-0.00545947
-0.749998
0.753735
0.00988148
-0.014346
-0.874707
0.879172
0.019166
-0.0240676
-1.00226
1.00717
0.0288863
-0.0331443
-1.14434
1.1486
0.0378005
-0.041422
-1.30126
1.30488
0.0446253
-0.0471209
-1.47295
1.47545
0.048415
-0.048254
-1.66179
1.66163
0.0467131
-0.043929
-1.57402
1.57124
0.0407783
-0.0368318
-1.26464
1.26069
0.0329457
-0.0282
-1.02071
1.01597
0.023502
-0.0186427
-0.771574
0.766715
0.0139086
-0.00950403
-0.478821
0.474417
0.00691374
-0.00544609
-0.220953
0.219485
0.00475688
-0.00427522
-0.065567
0.0650854
0.0037039
-0.00292345
0.00376929
-0.00454974
0.00204393
-0.00107192
0.0183419
-0.019314
0.000371077
0.00567105
-0.00604213
-0.0786906
0.0774381
0.00125251
-0.00391854
0.00399539
-0.438733
0.438656
-0.00279841
0.000887585
-0.618201
0.620112
0.00238519
-0.00593162
-0.757933
0.76148
0.010076
-0.0140323
-0.883387
0.887344
0.0188562
-0.0228155
-1.01141
1.01537
0.0274405
-0.031346
-1.15294
1.15685
0.0356512
-0.0392095
-1.30837
1.31193
0.0423707
-0.0442591
-1.47755
1.47944
0.0453785
-0.0450189
-1.66119
1.66083
0.0434468
-0.0401809
-1.56807
1.5648
0.0367218
-0.0323352
-1.25649
1.2521
0.0280584
-0.022798
-1.01021
1.00495
0.0178675
-0.0128051
-0.758824
0.753762
0.0085529
-0.00488777
-0.468034
0.464369
0.0029182
-0.00221826
-0.216385
0.215685
0.00204787
-0.00210102
-0.0636583
0.0637114
0.00204487
-0.00182773
0.00560865
-0.00582579
0.00140116
-0.00081772
0.0202008
-0.0207842
0.000308847
0.00629902
-0.00660787
-0.0786113
0.0776944
0.000916832
-0.00281873
0.00246014
-0.441653
0.442012
-0.00148358
-0.000442133
-0.623831
0.625756
0.00333491
-0.00668825
-0.765187
0.768541
0.0105777
-0.0145854
-0.891131
0.895139
0.0186734
-0.0226929
-1.01948
1.0235
0.0271388
-0.030676
-1.16112
1.16466
0.0348806
-0.0381763
-1.31518
1.31848
0.0410963
-0.0431946
-1.48161
1.48371
0.0443536
-0.0437539
-1.66031
1.65971
0.0418064
-0.038581
-1.56146
1.55824
0.0350275
-0.0302923
-1.24726
1.24253
0.0256142
-0.0202444
-0.999
0.99363
0.0146859
-0.00954089
-0.746028
0.740883
0.00544463
-0.00207323
-0.458775
0.455404
0.000394915
0.000196326
-0.213124
0.212533
-0.000136902
-0.000166582
-0.0629279
0.0632314
0.000473518
-0.000706887
0.00629618
-0.00606281
0.000711191
-0.000509468
0.02122
-0.0214217
0.000226146
0.0067397
-0.00696585
-0.0789378
0.0781992
0.000738656
-0.00187005
0.00157243
-0.44468
0.444978
-0.000113819
-0.00162433
-0.629426
0.631165
0.00465131
-0.00782682
-0.771809
0.774984
0.0115007
-0.0150335
-0.898781
0.902314
0.0191685
-0.0227778
-1.02747
1.03108
0.0270552
-0.0309202
-1.16859
1.17246
0.0345912
-0.0380429
-1.32173
1.32518
0.0411566
-0.0430692
-1.48557
1.48748
0.0442221
-0.0439639
-1.65915
1.65889
0.0419632
-0.0387904
-1.55463
1.55146
0.034916
-0.0300762
-1.23755
1.23271
0.0253291
-0.0196117
-0.987358
0.98164
0.0140188
-0.00850317
-0.733326
0.727811
0.00430153
-0.000941628
-0.449885
0.446525
-0.000844805
0.0015522
-0.210311
0.209603
-0.00160021
0.00122926
-0.0627316
0.0631025
-0.000762596
0.000251952
0.00609482
-0.00558418
4.80685e-05
-0.000170783
0.0214445
-0.0213217
0.000112557
0.00698092
-0.00709348
-0.0795675
0.0790077
0.000559803
-0.000799215
0.000335932
-0.4478
0.448263
0.000955021
-0.00297588
-0.634542
0.636563
0.00590879
-0.00889367
-0.778087
0.781072
0.0126114
-0.0159446
-0.905798
0.909131
0.0198544
-0.0235189
-1.03513
1.03879
0.0276134
-0.0313442
-1.17611
1.17984
0.0351141
-0.0384534
-1.32846
1.3318
0.0415618
-0.0440192
-1.48957
1.49203
0.0453091
-0.0449855
-1.65839
1.65807
0.0432557
-0.0399319
-1.54795
1.54463
0.0361938
-0.0314664
-1.22758
1.22285
0.0263965
-0.0205481
-0.975276
0.969427
0.0148422
-0.00892517
-0.720518
0.714601
0.00459089
-0.000978315
-0.441113
0.437501
-0.000952168
0.00200354
-0.207335
0.206284
-0.00224702
0.00199811
-0.0626355
0.0628844
-0.00154879
0.000933303
0.00537176
-0.00475627
-0.000462532
0.000110033
0.0210313
-0.0206788
2.17371e-05
0.00701463
-0.00703637
-0.0804425
0.0800101
0.000432354