/*--------------------------------*- C++ -*----------------------------------*\
  =========                 |
  \\      /  F ield         | OpenFOAM: The Open Source CFD Toolbox
   \\    /   O peration     | Website:  https://openfoam.org
    \\  /    A nd           | Version:  6
     \\/     M anipulation  |
\*---------------------------------------------------------------------------*/
FoamFile
{
    version     2.0;
    format      ascii;
    class       surfaceScalarField;
    location    "34";
    object      phi;
}
// * * * * * * * * * * * * * * * * * * * * * * * * * * * * * * * * * * * * * //

dimensions      [0 3 -1 0 0 0 0];

internalField   nonuniform List<scalar> 
4262
(
0.106819
0.47117
0.0925881
0.707816
0.0648765
0.860015
0.042482
1.02116
0.0264253
1.21457
0.0162186
1.44843
0.00986484
1.73222
0.00582179
2.07508
0.00277535
2.48829
-0.000282868
2.98535
-0.00324251
2.98525
-0.00630544
2.48831
-0.0103629
2.07509
-0.016668
1.73217
-0.0267495
1.4483
-0.0427351
1.2145
-0.0650705
1.0211
-0.0926824
0.859915
-0.106893
0.707796
0.471095
0.11476
0.356409
0.139918
0.682659
0.125237
0.874695
0.101636
1.04476
0.073579
1.24263
0.0483706
1.47363
0.0288853
1.7517
0.0150255
2.08894
0.00566624
2.49765
-0.000708546
2.99173
-0.0072308
2.99177
-0.0167831
2.49786
-0.0305328
2.08884
-0.0497056
1.75134
-0.0747102
1.47331
-0.102599
1.24239
-0.12601
1.04451
-0.140405
0.87431
-0.115029
0.68242
0.356067
0.0916386
0.264771
0.126181
0.648116
0.124717
0.87616
0.110853
1.05862
0.0961788
1.2573
0.0760481
1.49377
0.0539771
1.77377
0.0329065
2.11001
0.014306
2.51625
-0.00178764
3.00782
-0.017905
3.00789
-0.0359605
2.51591
-0.056601
2.10948
-0.0783809
1.77312
-0.0982133
1.49314
-0.1124
1.25658
-0.12587
1.05798
-0.127167
0.875607
-0.0921114
0.647364
0.263955
0.062811
0.20196
0.103972
0.606956
0.106675
0.873456
0.0970453
1.06825
0.0858339
1.26852
0.0744631
1.50514
0.0588488
1.78939
0.0397844
2.12907
0.0194323
2.5366
-0.00260131
3.02985
-0.0243101
3.0296
-0.0440429
2.53565
-0.0625754
2.12802
-0.0776722
1.78822
-0.0884179
1.50388
-0.099276
1.26744
-0.108586
1.06729
-0.105311
0.872332
-0.0633709
0.605424
0.200585
0.0370333
0.164926
0.0793466
0.564642
0.0896876
0.863115
0.0828628
1.07508
0.0716421
1.27974
0.0623746
1.5144
0.0515596
1.8002
0.0371975
2.14344
0.0191019
2.5547
-0.00322365
3.05218
-0.0252293
3.05161
-0.0429502
2.55337
-0.0566685
2.14173
-0.0668844
1.79843
-0.0756349
1.51263
-0.0863246
1.27813
-0.0923981
1.07336
-0.0811769
0.861111
-0.037688
0.561935
0.162897
0.019564
0.145362
0.0565397
0.527667
0.0714654
0.84819
0.0687967
1.07775
0.059662
1.28887
0.0498528
1.52421
0.0404042
1.80965
0.0291201
2.15472
0.0145381
2.56928
-0.00454506
3.07126
-0.0232085
3.07027
-0.0368791
2.56704
-0.0471687
2.15202
-0.0556207
1.80689
-0.0644596
1.52147
-0.0726822
1.28635
-0.0744795
1.07516
-0.0584047
0.845036
-0.0201724
0.523703
0.142724
0.0107804
0.134582
0.0421171
0.49633
0.0576824
0.832624
0.0573809
1.07805
0.0504213
1.29583
0.0403948
1.53424
0.0310494
1.819
0.0211003
2.16467
0.00897382
2.58141
-0.00540018
3.08564
-0.0193541
3.08422
-0.0306282
2.57831
-0.0397328
2.16113
-0.0478197
1.81497
-0.0569157
1.53057
-0.0628257
1.29226
-0.0618644
1.0742
-0.0446271
0.827799
-0.0115406
0.490616
0.131184
0.00673497
0.127847
0.03316
0.469905
0.0491295
0.816655
0.0503123
1.07686
0.0448618
1.30128
0.0359198
1.54318
0.026196
1.82872
0.0163466
2.17452
0.00490713
2.59285
-0.00731108
3.09785
-0.0191051
3.09602
-0.0295888
2.5888
-0.0378209
2.16936
-0.0455427
1.82269
-0.0531
1.53813
-0.0569974
1.29616
-0.0542263
1.07143
-0.0362351
0.809807
-0.00770562
0.462087
0.123478
0.00484192
0.123005
0.0266816
0.448065
0.0423936
0.800943
0.0445973
1.07466
0.0402769
1.3056
0.0330382
1.55042
0.0239617
1.8378
0.0141107
2.18437
0.00329353
2.60366
-0.00870562
3.10985
-0.0200833
3.10739
-0.0294187
2.59813
-0.0372467
2.17719
-0.0447251
1.83017
-0.050313
1.54371
-0.0530912
1.29893
-0.048888
1.06722
-0.0304408
0.79136
-0.00600375
0.43765
0.117474
0.00382394
0.119181
0.021706
0.430183
0.0369138
0.785735
0.0398535
1.07172
0.035881
1.30957
0.0289335
1.55737
0.0203818
1.84635
0.0106264
2.19413
0.000386238
2.6139
-0.0111293
3.12137
-0.0216642
3.11793
-0.0300919
2.60656
-0.037748
2.18485
-0.0441843
1.83661
-0.0488755
1.54841
-0.0503402
1.3004
-0.0447189
1.0616
-0.0262696
0.772911
-0.0052741
0.416654
0.1122
0.00299505
0.116186
0.0172792
0.415899
0.0311767
0.771838
0.0344387
1.06846
0.0308041
1.31321
0.0242844
1.56389
0.0165663
1.85407
0.00748418
2.20321
-0.00232495
2.62371
-0.0135658
3.13261
-0.0239552
3.12832
-0.0315933
2.6142
-0.0382003
2.19145
-0.0434089
1.84182
-0.0473446
1.55234
-0.0480343
1.30109
-0.0413558
1.05492
-0.0230256
0.754581
-0.00480275
0.398431
0.107397
0.00214168
0.114044
0.0130544
0.404986
0.0254784
0.759414
0.0289043
1.06503
0.0255001
1.31661
0.019322
1.57007
0.0120521
1.86134
0.00349683
2.21176
-0.00590689
2.63312
-0.0168834
3.14359
-0.0269967
3.13843
-0.0336672
2.62087
-0.0391309
2.19692
-0.0430398
1.84573
-0.0456567
1.55496
-0.0455312
1.30096
-0.037673
1.04707
-0.020057
0.736965
-0.00437964
0.382754
0.103018
0.00120261
0.112842
0.00888308
0.397306
0.0189167
0.74938
0.0215816
1.06237
0.0183825
1.31981
0.0129877
1.57546
0.00630418
1.86802
-0.00164629
2.21971
-0.0106627
2.64213
-0.0211777
3.1541
-0.0301833
3.14744
-0.0359309
2.62662
-0.0396066
2.20059
-0.0423079
1.84843
-0.0436774
1.55633
-0.0426403
1.29993
-0.0342331
1.03866
-0.0175143
0.720246
-0.00404124
0.369281
0.0989765
0.000388182
0.112454
0.00474237
0.392952
0.0121597
0.741963
0.0144543
1.06007
0.0111902
1.32308
0.00526379
1.58139
-0.00163899
1.87492
-0.00896164
2.22704
-0.0173236
2.65049
-0.0261503
3.16293
-0.0329717
3.15426
-0.0373392
2.63098
-0.039697
2.20295
-0.0417301
1.85046
-0.0423224
1.55692
-0.0400489
1.29765
-0.0310021
1.02961
-0.0153483
0.704592
-0.00381298
0.357746
0.0951636
-0.000524941
0.112979
0.000628747
0.391798
0.00566765
0.736924
0.00656028
1.05918
0.00300546
1.32663
-0.00263621
1.58703
-0.00947229
1.88176
-0.0168135
2.23438
-0.0248255
2.65851
-0.0318442
3.16995
-0.0370779
3.15949
-0.0404458
2.63435
-0.042093
2.2046
-0.0427281
1.8511
-0.0417864
1.55598
-0.0383928
1.29426
-0.0287576
1.01998
-0.013761
0.689596
-0.00356768
0.347552
0.0915959
-0.00155961
0.114538
-0.00253075
0.392769
-0.000185161
0.734578
-0.000194852
1.05919
-0.00422111
1.33066
-0.0106015
1.59341
-0.0181602
1.88932
-0.0259768
2.24219
-0.0340489
2.66658
-0.0404362
3.17633
-0.0443582
3.16342
-0.0460195
2.63601
-0.0460406
2.20462
-0.0449548
1.85001
-0.0430344
1.55406
-0.0382332
1.28946
-0.0274598
1.0092
-0.0129392
0.675075
-0.00352483
0.338138
0.088071
-0.00267995
0.117218
-0.00578952
0.395879
-0.00711342
0.735902
-0.00892574
1.061
-0.0133809
1.33511
-0.0194927
1.59952
-0.026703
1.89653
-0.0349869
2.25048
-0.0435079
2.6751
-0.0503559
3.18318
-0.0538353
3.16689
-0.0539765
2.63615
-0.0518194
2.20246
-0.0487194
1.84691
-0.0447206
1.55006
-0.0383677
1.2831
-0.0269639
0.9978
-0.0128205
0.660932
-0.00359438
0.328912
0.0844767
-0.00376137
0.120979
-0.0100797
0.402197
-0.014425
0.740247
-0.01791
1.06449
-0.0233332
1.34054
-0.0305995
1.60679
-0.038715
1.90464
-0.047549
2.25931
-0.0559484
2.6835
-0.0626875
3.18992
-0.0649114
3.16912
-0.0628831
2.63413
-0.0590396
2.19862
-0.0547215
1.84259
-0.0492652
1.5446
-0.0411483
1.27499
-0.0281073
0.984759
-0.0136683
0.646493
-0.0039866
0.31923
0.0804901
-0.00548712
0.126467
-0.0153649
0.412075
-0.0234842
0.748367
-0.02962
1.07062
-0.0360772
1.34699
-0.0441897
1.6149
-0.0531948
1.91365
-0.0627398
2.26886
-0.0715351
2.69229
-0.0775814
3.19597
-0.0777892
3.16933
-0.0739254
2.63026
-0.0677739
2.19247
-0.0609004
1.83572
-0.0532035
1.53691
-0.0433381
1.26512
-0.0295884
0.971009
-0.0149172
0.631822
-0.00443252
0.308745
0.0760575
-0.00659245
0.133059
-0.0190294
0.424512
-0.0309755
0.760313
-0.04003
1.07968
-0.0487535
1.35572
-0.0589732
1.62512
-0.0699165
1.92459
-0.0812332
2.28017
-0.0910131
2.70207
-0.0967135
3.20167
-0.0947574
3.16737
-0.0879286
2.62343
-0.0793041
2.18384
-0.0705331
1.82695
-0.061203
1.52758
-0.0493405
1.25326
-0.0335079
0.955177
-0.0172123
0.615526
-0.00509283
0.296626
0.0709647
-0.00894337
0.142002
-0.0255005
0.441069
-0.0417789
0.776591
-0.0539689
1.09187
-0.0644996
1.36625
-0.0766179
1.63724
-0.09021
1.93818
-0.103948
2.29391
-0.115304
2.71343
-0.120534
3.2069
-0.115857
3.16269
-0.106062
2.61364
-0.0944859
2.17227
-0.0827914
1.81525
-0.0706816
1.51547
-0.0566078
1.23919
-0.0390046
0.937574
-0.0204871
0.597008
-0.0060386
0.282177
0.0649261
-0.0108078
0.15281
-0.0306538
0.460915
-0.0510011
0.796939
-0.0676566
1.10852
-0.0828979
1.38149
-0.0993948
1.65373
-0.116552
1.95534
-0.132758
2.31012
-0.144736
2.72541
-0.147985
3.21015
-0.140606
3.15531
-0.127896
2.60093
-0.113786
2.15815
-0.099726
1.80119
-0.0852293
1.50097
-0.0680513
1.22201
-0.0465696
0.916092
-0.0243404
0.574779
-0.00706517
0.264902
0.0578609
-0.0153643
0.168175
-0.0424641
0.488015
-0.0689113
0.823386
-0.0899924
1.1296
-0.108774
1.40027
-0.129069
1.67403
-0.15036
1.97663
-0.16902
2.32878
-0.180814
2.7372
-0.181546
3.21088
-0.170483
3.14425
-0.153886
2.58433
-0.136237
2.14051
-0.118716
1.78367
-0.100717
1.48297
-0.0798527
1.20114
-0.0547454
0.890985
-0.0286549
0.548689
-0.00816034
0.244408
0.0497006
-0.0191061
0.187281
-0.0535995
0.522508
-0.0879199
0.857706
-0.115869
1.15755
-0.14172
1.42612
-0.169382
1.70169
-0.194638
2.00189
-0.213701
2.34784
-0.222794
2.74629
-0.21881
3.20689
-0.20342
3.12886
-0.184049
2.56496
-0.16352
2.11998
-0.142789
1.76294
-0.120922
1.4611
-0.0949249
1.17515
-0.0638735
0.859933
-0.0325734
0.517389
-0.00889894
0.220733
0.0408017
-0.0316698
0.21895
-0.0770729
0.567911
-0.120309
0.900942
-0.155934
1.19318
-0.18977
1.45996
-0.222444
1.73437
-0.248621
2.02807
-0.265535
2.36475
-0.27118
2.75194
-0.26355
3.19926
-0.244461
3.10977
-0.220772
2.54127
-0.195769
2.09497
-0.170374
1.73755
-0.143374
1.4341
-0.111673
1.14345
-0.0748749
0.823135
-0.0379488
0.480463
-0.00996614
0.19275
0.0308355
-0.0452147
0.264165
-0.115059
0.637756
-0.174545
0.960428
-0.218242
1.23688
-0.259212
1.50093
-0.291282
1.76644
-0.312979
2.04976
-0.324781
2.37656
-0.325445
2.7526
-0.312277
3.1861
-0.287524
3.08502
-0.259369
2.51311
-0.22993
2.06553
-0.199509
1.70713
-0.166596
1.40119
-0.128323
1.10517
-0.0848654
0.779677
-0.040733
0.43633
-0.00960867
0.161626
0.0212268
-0.0314432
0.295608
-0.0923481
0.69866
-0.148604
1.01668
-0.196668
1.28494
-0.241758
1.54602
-0.278133
1.80281
-0.311815
2.08344
-0.341306
2.40605
-0.362388
2.77369
-0.368857
3.19256
-0.356686
3.07285
-0.33088
2.48731
-0.29593
2.03059
-0.252931
1.66413
-0.203546
1.35181
-0.147628
1.04925
-0.0878165
0.719866
-0.0365613
0.385075
-0.00822204
0.133287
0.0130048
-0.0116568
0.307265
-0.0420354
0.729039
-0.0775794
1.05223
-0.112905
1.32027
-0.147933
1.58105
-0.182882
1.83776
-0.215777
2.11634
-0.243587
2.43386
-0.262062
2.79216
-0.264524
3.19503
-0.247295
3.05562
-0.21671
2.45672
-0.179684
1.99356
-0.140381
1.62482
-0.098936
1.31036
-0.0576474
1.00797
-0.02304
0.685259
-0.00403436
0.36607
0.00028687
0.128966
0.0132917
-0.00107283
0.308338
-0.0193133
0.74728
-0.0445414
1.07746
-0.0699994
1.34572
-0.0949366
1.60598
-0.122565
1.86539
-0.151392
2.14517
-0.176871
2.45934
-0.194001
2.80929
-0.196765
3.19779
-0.179484
3.03834
-0.149372
2.42661
-0.114685
1.95887
-0.0771859
1.58732
-0.0394203
1.2726
-0.00839377
0.976939
0.00983906
0.667026
0.0123719
0.363537
0.00507675
0.136261
0.0183684
0.000837612
0.3075
-0.0121156
0.760233
-0.02979
1.09513
-0.0488374
1.36477
-0.0680605
1.62521
-0.0895704
1.8869
-0.112687
2.16828
-0.133809
2.48046
-0.147801
2.82328
-0.148425
3.19841
-0.131358
3.02127
-0.104967
2.40022
-0.074209
1.92811
-0.0418012
1.55492
-0.0142365
1.24503
0.0076247
0.955078
0.0188938
0.655757
0.0164559
0.365975
0.00598024
0.146736
0.0243487
0.00390584
0.303594
-0.005146
0.769285
-0.0216298
1.11161
-0.0390459
1.38219
-0.0556819
1.64184
-0.0730436
1.90426
-0.0913444
2.18658
-0.108192
2.49731
-0.119613
2.8347
-0.120096
3.1989
-0.104218
3.0054
-0.0806381
2.37664
-0.054353
1.90183
-0.0288519
1.52942
-0.00317774
1.21936
0.0158495
0.936051
0.022493
0.649113
0.0165972
0.37187
0.00566359
0.15767
0.0300123
0.00451379
0.299081
-0.000933699
0.774732
-0.0153969
1.12608
-0.032454
1.39924
-0.0490876
1.65847
-0.0651501
1.92032
-0.0812027
2.20264
-0.0958083
2.51191
-0.106042
2.84494
-0.105127
3.19798
-0.089926
2.9902
-0.0695514
2.35626
-0.0460183
1.8783
-0.0211644
1.50456
-0.000788811
1.19898
0.014348
0.920914
0.0195088
0.643952
0.0135163
0.377863
0.00428226
0.166904
0.0342945
0.00340553
0.295675
-0.000586395
0.778724
-0.0127997
1.13829
-0.0283114
1.41476
-0.0446263
1.67479
-0.0609085
1.9366
-0.076679
2.21841
-0.0903102
2.52554
-0.098847
2.85347
-0.096096
3.19523
-0.0823135
2.97641
-0.0642812
2.33823
-0.0424915
1.85651
-0.0214395
1.48351
-0.00198402
1.17953
0.0106652
0.908265
0.0145812
0.640036
0.010058
0.382386
0.00328765
0.173674
0.0375822
0.00211477
0.29356
-0.00147434
0.782313
-0.012111
1.14893
-0.0262597
1.4289
-0.0420554
1.69059
-0.0585829
1.95313
-0.0749482
2.23477
-0.0893587
2.53995
-0.0983316
2.86245
-0.097059
3.19396
-0.0844856
2.96384
-0.066768
2.32052
-0.0463677
1.83611
-0.0259532
1.46309
-0.0105891
1.16416
0.000680466
0.896996
0.00529237
0.635425
0.00341275
0.384266
0.00135954
0.175727
0.0389417
0.000393781
0.293166
-0.0036846
0.786392
-0.0132706
1.15851
-0.0260158
1.44165
-0.0409416
1.70551
-0.0575632
1.96975
-0.0748047
2.25201
-0.0902483
2.5554
-0.0995849
2.87178
-0.0973007
3.19167
-0.0849183
2.95146
-0.0685497
2.30415
-0.0510108
1.81857
-0.0352145
1.4473
-0.0200301
1.14898
-0.0101805
0.887146
-0.00546854
0.630713
-0.00333224
0.382129
-0.000974952
0.17337
0.0379668
-0.00119584
0.294362
-0.0056422
0.790838
-0.0146146
1.16749
-0.0266913
1.45373
-0.0411216
1.71994
-0.0575105
1.98614
-0.0750186
2.26952
-0.0914331
2.57181
-0.102905
2.88325
-0.103828
3.1926
-0.0943207
2.94195
-0.0775945
2.28742
-0.0596368
1.80061
-0.0432561
1.43092
-0.0301221
1.13584
-0.0188097
0.875833
-0.0108344
0.622737
-0.00621551
0.377511
-0.00191429
0.169069
0.0360525
-0.0026852
0.297048
-0.00783185
0.795985
-0.0165094
1.17616
-0.0279559
1.46517
-0.0418215
1.73381
-0.057937
2.00226
-0.075639
2.28722
-0.0930482
2.58922
-0.106311
2.89652
-0.10927
3.19556
-0.101024
2.9337
-0.0846186
2.27101
-0.0670215
1.78301
-0.0520526
1.41595
-0.0375539
1.12134
-0.0265013
0.864781
-0.0177932
0.614029
-0.00929552
0.369013
-0.00287449
0.162648
0.033178
-0.0036799
0.300727
-0.00945061
0.801755
-0.0181898
1.1849
-0.0294936
1.47648
-0.0430632
1.74738
-0.0586895
2.01788
-0.0760585
2.30459
-0.0938245
2.60699
-0.109305
2.912
-0.118405
3.20466
-0.113151
2.92845
-0.0945715
2.25244
-0.0763633
1.7648
-0.058794
1.39838
-0.0454184
1.10797
-0.0320853
0.851448
-0.0204297
0.602374
-0.0107348
0.359318
-0.00320105
0.155114
0.0299769
-0.00431478
0.305042
-0.0108283
0.808269
-0.0196446
1.19372
-0.0307574
1.48759
-0.0440413
1.76066
-0.0593284
2.03317
-0.0763759
2.32164
-0.0943645
2.62498
-0.11196
2.92959
-0.125005
3.2177
-0.122804
2.92625
-0.106197
2.23583
-0.0844468
1.74305
-0.0667335
1.38067
-0.0504136
1.09165
-0.0378437
0.838878
-0.0256287
0.590159
-0.0123946
0.346084
-0.0034614
0.146181
0.0265155
-0.0048181
0.30986
-0.0119324
0.815383
-0.0209571
1.20274
-0.0320072
1.49864
-0.0449935
1.77365
-0.0597515
2.04793
-0.076262
2.33815
-0.0943065
2.64302
-0.11337
2.94866
-0.129995
3.23432
-0.132289
2.92854
-0.118474
2.22201
-0.0972011
1.72178
-0.0732349
1.3567
-0.0561054
1.07452
-0.0407835
0.823556
-0.0260816
0.575457
-0.0129895
0.332992
-0.00333848
0.13653
0.0231771
-0.00512753
0.314988
-0.0126863
0.822942
-0.0216855
1.21174
-0.032551
1.5095
-0.0452892
1.78639
-0.0597313
2.06237
-0.0759663
2.35439
-0.0940196
2.66107
-0.113825
2.96846
-0.133541
3.25404
-0.141582
2.93658
-0.132359
2.21279
-0.108788
1.69821
-0.0819479
1.32986
-0.0582431
1.05081
-0.0431589
0.808472
-0.0292334
0.561531
-0.0135592
0.317318
-0.00303728
0.126008
0.0201398
-0.00530879
0.320297
-0.0132327
0.830866
-0.0223346
1.22084
-0.0330558
1.52023
-0.0454205
1.79875
-0.0593396
2.07629
-0.0752767
2.37032
-0.0934386
2.67923
-0.113774
2.9888
-0.135207
3.27547
-0.146112
2.94749
-0.14188
2.20856
-0.124731
1.68106
-0.0941662
1.29929
-0.0635852
1.02023
-0.0397435
0.78463
-0.0235163
0.545304
-0.0112774
0.305079
-0.00217092
0.116902
0.0179689
-0.00534343
0.32564
-0.0133956
0.838918
-0.0223788
1.22983
-0.032806
1.53065
-0.044774
1.81072
-0.058407
2.08992
-0.0743765
2.38629
-0.0927928
2.69765
-0.113366
3.00937
-0.13546
3.29757
-0.149997
2.96203
-0.150295
2.20886
-0.134725
1.66549
-0.108095
1.27266
-0.0696651
0.981804
-0.035138
0.750103
-0.016292
0.526458
-0.0033508
0.292137
0.00035576
0.113195
0.0183246
-0.00528597
0.330926
-0.0134328
0.847065
-0.0224121
1.23881
-0.0325608
1.5408
-0.0439259
1.82208
-0.0572026
2.1032
-0.0732882
2.40238
-0.0919261
2.71629
-0.112697
3.03014
-0.135654
3.32052
-0.151708
2.97808
-0.155827
2.21298
-0.148011
1.65768
-0.122057
1.24671
-0.0829352
0.942682
-0.0316863
0.698854
0.00588948
0.488882
0.0181445
0.279882
0.00871611
0.122623
0.0270408
-0.0051194
0.336045
-0.0131953
0.855141
-0.0219796
1.24759
-0.0317024
1.55052
-0.0423316
1.83271
-0.0556102
2.11648
-0.072045
2.41881
-0.090917
2.73516
-0.112054
3.05128
-0.135375
3.34385
-0.152738
2.99544
-0.160333
2.22057
-0.153122
1.65047
-0.133761
1.22735
-0.0934195
0.902341
-0.0388789
0.644314
0.0290892
0.420914
0.0661342
0.242837
0.0485197
0.140238
0.0755605
-0.00491449
0.34096
-0.0124803
0.862707
-0.020651
1.25576
-0.0302022
1.56008
-0.0419279
1.84444
-0.0560558
2.13061
-0.0731615
2.43592
-0.0929727
2.75497
-0.11491
3.07322
-0.138751
3.36769
-0.156896
3.01359
-0.164655
2.22833
-0.162233
1.64804
-0.141674
1.20679
-0.107139
0.867805
-0.040113
0.577288
0.0507212
0.33008
0.12673
0.166828
0.136277
0.130691
0.211837
-0.00478699
0.345747
-0.0119977
0.869917
-0.0198745
1.26364
-0.0295728
1.56977
-0.0419293
1.85679
-0.0569227
2.1456
-0.0751897
2.45419
-0.0968669
2.77665
-0.121708
3.09806
-0.148967
3.39494
-0.171372
3.03599
-0.185799
2.24276
-0.185272
1.64752
-0.169649
1.19117
-0.127187
0.825343
-0.076175
0.526276
-0.103631
0.357535
-0.39179
0.454988
-0.990733
0.729634
0.924079
-1.70298
-0.00463716
0.350384
-0.0118188
0.877099
-0.0197281
1.27155
-0.0291122
1.57916
-0.0406778
1.86836
-0.0556515
2.16057
-0.0745206
2.47306
-0.0969636
2.79909
-0.123572
3.12467
-0.154857
3.42623
-0.184046
3.06518
-0.2035
2.26221
-0.215872
1.65989
-0.21154
1.18683
-0.19757
0.811374
-0.299091
0.627796
-0.75578
0.814225
-1.48937
1.18858
-2.08446
1.32472
1.20963
-2.37001
-0.00438969
0.354774
-0.0113493
0.884059
-0.0189999
1.2792
-0.0279062
1.58806
-0.039283
1.87974
-0.0546184
2.17591
-0.073973
2.49241
-0.0972546
2.82237
-0.125744
3.15316
-0.159508
3.45999
-0.192178
3.09785
-0.222544
2.29258
-0.244051
1.6814
-0.254437
1.19722
-0.369742
0.926679
-0.839257
1.09731
-1.59609
1.57106
-2.13222
1.72471
-2.35633
1.54883
1.31443
-2.46113
-0.00381894
0.358593
-0.0109063
0.891146
-0.0183592
1.28665
-0.0266267
1.59633
-0.0378446
1.89095
-0.0536357
2.1917
-0.0733134
2.51209
-0.0971968
2.84626
-0.127748
3.18371
-0.166658
3.4989
-0.208936
3.14013
-0.24735
2.33099
-0.282611
1.71666
-0.3814
1.29601
-0.742952
1.28823
-1.4804
1.83476
-2.04483
2.13549
-2.27342
1.9533
-2.38053
1.65594
1.38164
-2.44774
-0.00291594
0.361509
-0.00876262
0.896993
-0.0157123
1.2936
-0.0246623
1.60528
-0.0369925
1.90328
-0.0528952
2.2076
-0.0724098
2.5316
-0.0969894
2.87084
-0.129451
3.21617
-0.170914
3.54037
-0.217375
3.18659
-0.269325
2.38294
-0.334554
1.78189
-0.550879
1.51233
-1.18379
1.92114
-1.8475
2.49847
-2.14595
2.43393
-2.28396
2.09131
-2.36294
1.73492
1.44028
-2.42158
-0.00238905
0.363898
-0.00695721
0.901561
-0.0140199
1.30066
-0.0244188
1.61568
-0.0378749
1.91674
-0.0538705
2.2236
-0.0735485
2.55128
-0.0992469
2.89654
-0.133964
3.25089
-0.181113
3.58752
-0.237232
3.24271
-0.291951
2.43766
-0.418159
1.90809
-0.826692
1.92087
-1.55664
2.65109
-1.99314
2.93496
-2.17029
2.61109
-2.26264
2.18366
-2.33324
1.80552
1.49954
-2.3925
-0.00227104
0.366169
-0.00724237
0.906532
-0.0147917
1.30821
-0.0256358
1.62653
-0.0396253
1.93073
-0.0563191
2.24029
-0.0768624
2.57182
-0.10395
2.92362
-0.140807
3.28774
-0.190762
3.63747
-0.250406
3.30236
-0.330379
2.51763
-0.547299
2.12501
-1.1312
2.50477
-1.74032
3.26021
-1.98869
3.18333
-2.12238
2.74478
-2.22323
2.28451
-2.30661
1.8889
1.55953
-2.36659
-0.00241158
0.36858
-0.00821699
0.912337
-0.0164329
1.31643
-0.027457
1.63755
-0.0416145
1.94489
-0.0589257
2.2576
-0.0803591
2.59326
-0.108719
2.95198
-0.148192
3.32722
-0.203935
3.69321
-0.272798
3.37122
-0.379147
2.62398
-0.696592
2.44246
-1.36047
3.16865
-1.80306
3.7028
-1.99475
3.37502
-2.12427
2.87429
-2.22448
2.38473
-2.30118
1.96559
1.59065
-2.3323
-0.00273719
0.371317
-0.00897603
0.918576
-0.0176988
1.32515
-0.0290662
1.64892
-0.0435734
1.9594
-0.0614392
2.27547
-0.0837863
2.6156
-0.113583
2.98178
-0.15523
3.36886
-0.212726
3.75071
-0.282971
3.44146
-0.434642
2.77565
-0.859966
2.86778
-1.49309
3.80177
-1.8145
4.02421
-1.97086
3.53139
-2.06428
2.96771
-2.14473
2.46517
-2.19742
2.01829
1.53413
-2.1409
-0.00296023
0.374278
-0.00967501
0.925291
-0.0190902
1.33457
-0.0310425
1.66087
-0.0459029
1.97426
-0.0642512
2.29382
-0.0872847
2.63864
-0.118143
3.01264
-0.162545
3.41327
-0.227646
3.81581
-0.32561
3.53943
-0.526282
2.97632
-1.00816
3.34966
-1.54496
4.33857
-1.78845
4.2677
-1.92967
3.6726
-2.01043
3.04848
-2.02034
2.47509
-1.94082
1.93876
1.4633
-1.86999
-0.00299499
0.377273
-0.0100266
0.932323
-0.0197684
1.34431
-0.0321425
1.67324
-0.047512
1.98963
-0.0661248
2.31243
-0.0895573
2.66207
-0.121054
3.04413
-0.165367
3.45758
-0.225785
3.87623
-0.326488
3.64013
-0.564302
3.21414
-1.08776
3.87312
-1.50214
4.75295
-1.66369
4.42925
-1.74318
3.75209
-1.77607
3.08137
-1.6461
2.34511
-1.13141
1.42407
0.331895
-0.00285549
0.380128
-0.0100657
0.939533
-0.0205022
1.35475
-0.0338646
1.68661
-0.0502557
2.00602
-0.0700329
2.33221
-0.0952047
2.68724
-0.129526
3.07846
-0.178029
3.50608
-0.245968
3.94417
-0.370139
3.7643
-0.662136
3.50614
-1.23208
4.44306
-1.56687
5.08775
-1.6792
4.54158
-1.7124
3.78529
-1.61157
2.98053
-1.26257
1.99612
-0.485358
0.646855
-0.153463
-0.0025395
0.382668
-0.0100091
0.947002
-0.0208032
1.36554
-0.0346001
1.7004
-0.0519064
2.02332
-0.0731017
2.3534
-0.100238
2.71438
-0.137185
3.1154
-0.189292
3.55819
-0.263178
4.01805
-0.408551
3.90967
-0.772089
3.86967
-1.34277
5.01374
-1.58229
5.32727
-1.65243
4.61172
-1.62548
3.75834
-1.3704
2.72546
-0.6548
1.28052
-0.0176059
0.00966156
-0.171069
-0.00203618
0.384704
-0.00941967
0.954386
-0.0208585
1.37698
-0.0355484
1.71509
-0.0536657
2.04144
-0.0759408
2.37568
-0.104592
2.74303
-0.143887
3.1547
-0.199109
3.61341
-0.291495
4.11044
-0.475836
4.09401
-0.89178
4.28562
-1.41437
5.53632
-1.57993
5.49284
-1.61809
4.64987
-1.48507
3.62532
-0.996546
2.23694
-0.181164
0.465138
0.0346882
-0.206191
-0.136381
-0.0012545
0.385958
-0.00836277
0.961494
-0.0197553
1.38837
-0.0346562
1.72999
-0.0536073
2.06039
-0.0772595
2.39933
-0.107843
2.77361
-0.149442
3.1963
-0.206553
3.67052
-0.306314
4.2102
-0.514229
4.30193
-0.995885
4.76727
-1.44233
5.98277
-1.55154
5.60205
-1.53805
4.63639
-1.25671
3.34398
-0.522859
1.50308
0.00658106
-0.0643015
0.024965
-0.224575
-0.111416
7.20981e-05
0.385886
-0.00623403
0.9678
-0.0179529
1.40009
-0.0336601
1.7457
-0.0532577
2.07999
-0.0776481
2.42372
-0.109431
2.8054
-0.153252
3.24012
-0.21276
3.73003
-0.320249
4.31769
-0.557696
4.53938
-1.0895
5.29908
-1.42008
6.31335
-1.47532
5.65728
-1.3938
4.55487
-0.995409
2.94559
-0.181411
0.689084
0.0243313
-0.270044
0.0213828
-0.221626
-0.0900329
0.00158742
0.384299
-0.00332131
0.972709
-0.0142754
1.41104
-0.0295885
1.76101
-0.0496316
2.10003
-0.0753381
2.44943
-0.108823
2.83888
-0.153876
3.28517
-0.214831
3.79099
-0.32803
4.43089
-0.596828
4.80817
-1.13423
5.83648
-1.36486
6.54398
-1.39216
5.68458
-1.20413
4.36683
-0.616144
2.3576
-3.35365e-05
0.072974
0.0250993
-0.295177
0.0139525
-0.21048
-0.0760804
0.00400091
0.380298
0.00132696
0.975383
-0.00904832
1.42142
-0.024725
1.77669
-0.044903
2.12021
-0.0706536
2.47518
-0.104741
2.87297
-0.150423
3.33085
-0.212913
3.85348
-0.330217
4.54819
-0.626633
5.10459
-1.13541
6.34526
-1.29231
6.70087
-1.27658
5.66885
-0.96184
4.05209
-0.301588
1.69735
-0.0170699
-0.211544
0.00336383
-0.31561
0.00253656
-0.209652
-0.0735439
0.00713162
0.373166
0.00722362
0.975291
-0.000892785
1.42954
-0.0149605
1.79076
-0.0345996
2.13985
-0.0612333
2.50181
-0.0963876
2.90812
-0.141997
3.37646
-0.205324
3.9168
-0.324688
4.66756
-0.636161
5.41606
-1.08063
6.78973
-1.183
6.80325
-1.13147
5.61733
-0.814346
3.73497
-0.105861
0.988866
-0.0151424
-0.302262
0.0132425
-0.343995
0.0120312
-0.208441
-0.0615126
0.0117212
0.361445
0.0163079
0.970704
0.0104731
1.43537
-0.00298372
1.80421
-0.0216909
2.15856
-0.04692
2.52704
-0.082017
2.94322
-0.128161
3.42261
-0.192299
3.98094
-0.308596
4.78385
-0.605889
5.71336
-0.968669
7.15251
-1.0394
6.87398
-0.955643
5.53357
-0.565568
3.34489
0.075378
0.347921
0.0814274
-0.308312
0.0700659
-0.332634
0.0442288
-0.182604
-0.0172838
0.0174409
0.344004
0.0276972
0.960448
0.0263368
1.43673
0.0164079
1.81414
-0.000215215
2.17518
-0.024803
2.55163
-0.0593958
2.97781
-0.104991
3.4682
-0.169939
4.04589
-0.278285
4.8922
-0.532115
5.96719
-0.812266
7.43266
-0.880871
6.94258
-0.794298
5.447
-0.382449
2.93304
-0.0594609
0.0249323
-0.00882657
-0.358946
0.0205209
-0.361981
0.0372029
-0.199286
0.019919
0.0250698
0.318934
0.0435584
0.941959
0.046825
1.43346
0.0392454
1.82172
0.0257299
2.18869
0.00547725
2.57188
-0.0256652
3.00895
-0.0717131
3.51425
-0.133956
4.10813
-0.223284
4.98153
-0.409779
6.15368
-0.600506
7.62338
-0.693849
7.03593
-0.681823
5.43497
-0.382195
2.63341
-0.385431
0.0281677
-0.312569
-0.431807
-0.18595
-0.4886
-0.0403045
-0.344932
-0.0203854
0.0344967
0.284438
0.0631609
0.913295
0.0741442
1.42248
0.0722463
1.82362
0.0632804
2.19766
0.0471836
2.58798
0.0228534
3.03328
-0.0167423
3.55384
-0.0797112
4.1711
-0.154259
5.05607
-0.261334
6.26076
-0.355906
7.71796
-0.442017
7.12204
-0.445902
5.43886
-0.319582
2.50709
-0.538202
0.246787
-0.548504
-0.421505
-0.391319
-0.645785
-0.169241
-0.56701
-0.189627
0.0456367
0.238801
0.0881665
0.870765
0.107759
1.40289
0.111165
1.82021
0.108139
2.20069
0.0991776
2.59694
0.0852144
3.04725
0.0576081
3.58145
0.00714956
4.22156
-0.0591626
5.12239
-0.0766524
6.27825
-0.0521676
7.69347
-0.0404272
7.1103
-0.0772995
5.47573
-0.1651
2.59489
-0.422885
0.504572
-0.512353
-0.332036
-0.425962
-0.732176
-0.23328
-0.759693
-0.422906
0.0569742
0.181827
0.116384
0.811356
0.151057
1.36822
0.165086
1.80618
0.169058
2.19671
0.166703
2.59929
0.163327
3.05062
0.15506
3.58972
0.132246
4.24437
0.0998539
5.15478
0.183601
6.1945
0.331113
7.54596
0.471171
6.97024
0.491198
5.4557
0.136915
2.94918
-0.103149
0.744636
-0.211929
-0.223256
-0.253877
-0.690229
-0.168962
-0.844607
-0.591869
0.0611421
0.120685
0.146503
0.725995
0.201467
1.31325
0.228555
1.7791
0.241324
2.18395
0.246778
2.59384
0.255223
3.04218
0.26894
3.576
0.286791
4.22652
0.308069
5.1335
0.512456
5.99011
0.828256
7.23016
1.04108
6.75742
1.09029
5.4065
0.623326
3.41614
0.210934
1.15703
-0.0234901
0.0111681
-0.157144
-0.556575
-0.132129
-0.869621
-0.723998
0.054067
0.0666177
0.17502
0.605043
0.263403
1.22487
0.30996
1.73254
0.333129
2.16078
0.347014
2.57995
0.364136
3.02506
0.396033
3.5441
0.455928
4.16663
0.563803
5.02563
0.898534
5.65538
1.39873
6.72996
1.75041
6.40573
1.99015
5.16676
1.73745
3.66883
1.06163
1.83285
0.529547
0.543254
0.186236
-0.213264
0.0180516
-0.701438
-0.705946
0.0430183
0.0235994
0.207588
0.440473
0.327501
1.10496
0.398045
1.66199
0.437134
2.12169
0.464566
2.55252
0.490602
2.99902
0.537198
3.49751
0.622459
4.08137
0.797496
4.85059
1.23327
5.21961
1.92675
6.03648
2.27199
6.06049
2.48955
4.94921
2.38719
3.77119
1.8085
2.41155
1.17076
1.18099
0.635957
0.321539
0.21562
-0.281101
-0.490326
0.0308317
-0.00723234
0.224753
0.246552
0.397109
0.9326
0.496324
1.56278
0.551559
2.06645
0.594389
2.50969
0.629906
2.9635
0.693378
3.43404
0.798431
3.97631
0.969592
4.67943
1.34592
4.84328
2.17622
5.20618
2.52751
5.70921
2.72976
4.74696
2.75467
3.74627
2.39993
2.76628
1.74622
1.83471
1.01873
1.04902
0.402303
0.33533
-0.0880226
0.0276473
-0.0348796
0.189054
0.0851448
0.444097
0.677556
0.603254
1.40362
0.682057
1.98765
0.732889
2.45886
0.775656
2.92074
0.834093
3.3756
0.934974
3.87543
1.08644
4.52797
1.31927
4.61045
1.966
4.55945
2.41458
5.26063
2.43408
4.72746
2.34975
3.8306
2.01504
3.10099
1.49485
2.3549
0.959128
1.58474
0.432442
0.862015
0.34442
0.023441
-0.0583207
0.121601
-0.0130151
0.389038
0.41012
0.580917
1.21174
0.673751
1.89482
0.709358
2.42325
0.729052
2.90104
0.730044
3.37461
0.755183
3.85029
0.810077
4.47307
0.85617
4.56435
0.994065
4.42155
1.15233
5.10236
1.13855
4.74124
1.00681
3.96234
0.859187
3.24862
0.689177
2.52491
0.490375
1.78355
0.232245
1.12014
0.576665
0.0181094
-0.0764301
0.0648423
-0.059748
0.21854
0.256422
0.374173
1.05611
0.474262
1.79473
0.52518
2.37234
0.556275
2.86995
0.559712
3.37117
0.567978
3.84203
0.593976
4.44707
0.59318
4.56515
0.655292
4.35944
0.823134
4.93452
0.805613
4.75876
0.69849
4.06946
0.607483
3.33962
0.492648
2.63974
0.342023
1.93417
0.15099
1.31118
0.727655
0.0209724
-0.0974025
0.0477515
-0.0865271
0.0916374
0.212536
0.192165
0.955583
0.275988
1.7109
0.338816
2.30951
0.381786
2.82698
0.395893
3.35706
0.395484
3.84244
0.413518
4.42904
0.441778
4.53689
0.443737
4.35748
0.516866
4.86139
0.524746
4.75088
0.476264
4.11795
0.395924
3.41996
0.290375
2.74529
0.179027
2.04552
0.0630852
1.42712
0.79074
0.0148722
-0.112275
0.01605
-0.087705
-0.00150135
0.230088
0.0357981
0.918284
0.0956862
1.65102
0.159984
2.24521
0.21529
2.77167
0.24685
3.3255
0.254257
3.83503
0.25258
4.43072
0.272667
4.5168
0.264786
4.36537
0.323517
4.80266
0.342988
4.73141
0.317426
4.14351
0.253995
3.48339
0.17313
2.82616
0.078832
2.13982
-0.00398573
1.50994
0.786754
-0.00179377
-0.110481
-0.0339337
-0.055565
-0.0820159
0.27817
-0.0916224
0.92789
-0.0509489
1.61034
0.00833764
2.18592
0.0701822
2.70983
0.12353
3.27216
0.152909
3.80565
0.151255
4.43237
0.13566
4.53239
0.157493
4.34353
0.205784
4.75437
0.216666
4.72053
0.185319
4.17485
0.136166
3.53255
0.0773339
2.88499
0.00978435
2.20737
-0.0354707
1.55519
0.751284
-0.0222923
-0.0881885