/*--------------------------------*- C++ -*----------------------------------*\
  =========                 |
  \\      /  F ield         | OpenFOAM: The Open Source CFD Toolbox
   \\    /   O peration     | Website:  https://openfoam.org
    \\  /    A nd           | Version:  6
     \\/     M anipulation  |
\*---------------------------------------------------------------------------*/
FoamFile
{
    version     2.0;
    format      ascii;
    class       surfaceScalarField;
    location    "52.3";
    object      phi;
}
// * * * * * * * * * * * * * * * * * * * * * * * * * * * * * * * * * * * * * //

dimensions      [0 3 -1 0 0 0 0];

internalField   nonuniform List<scalar> 
17370
(
-0.0900017
0.089852
0.289161
-0.0714669
0.0537582
0.364484
-0.0381263
0.0276983
0.426596
-0.0196479
0.0146161
0.504284
-0.0107753
0.00828581
0.601892
-0.00628704
0.00491151
0.720433
-0.00374872
0.0029088
0.863746
-0.00216744
0.0016081
1.03601
-0.00109125
0.000678804
1.24292
-0.000270917
-0.000119524
1.49158
0.000497643
-0.00090425
1.4916
0.00129914
-0.00178797
1.24318
0.00231902
-0.00303091
1.03635
0.00384951
-0.00499699
0.864054
0.00636481
-0.00835855
0.721051
0.0108437
-0.0146793
0.60305
0.0197064
-0.0277516
0.507485
0.0381747
-0.0537996
0.431793
0.0715011
-0.0898748
0.365149
0.0900152
0.198996
-0.128132
0.0882181
0.0399142
-0.364594
0.353369
-0.0746836
0.085909
-0.446474
0.454314
-0.084411
0.0765707
-0.521189
0.529895
-0.0684773
0.059771
-0.612786
0.621561
-0.0515864
0.0428111
-0.72689
0.734156
-0.0353536
0.0280877
-0.867471
0.872583
-0.0224902
0.0173785
-1.03847
1.04192
-0.0135715
0.0101246
-1.2446
1.24703
-0.00751648
0.00508702
-1.49263
1.4946
-0.00314299
0.0011695
-1.4925
1.49422
0.000511286
-0.00223496
-1.24398
1.24586
0.00413683
-0.0060193
-1.03751
1.04005
0.00837706
-0.0109129
-0.866102
0.869838
0.0142768
-0.0180123
-0.724394
0.729941
0.0230564
-0.0286034
-0.608701
0.616118
0.0358229
-0.0432404
-0.514901
0.523047
0.0519728
-0.0601191
-0.439859
0.44792
0.0687852
-0.0768462
-0.375299
0.376746
0.0846495
-0.0860962
-0.257335
0.222487
0.0748112
-0.0399639
-0.0685081
0.058678
0.00983004
-0.051837
0.0584281
-0.374116
0.367525
-0.0575197
0.0537734
-0.453587
0.457333
-0.0486894
0.0447429
-0.527938
0.531885
-0.0409093
0.0372758
-0.621553
0.625187
-0.0331802
0.0291107
-0.735337
0.739406
-0.0245474
0.0203937
-0.874326
0.87848
-0.0160533
0.0123634
-1.04348
1.04717
-0.00863078
0.00546193
-1.24855
1.25172
-0.00213772
-0.000933303
-1.49666
1.49973
0.00397977
-0.00724301
-1.49721
1.50047
0.0103233
-0.0139346
-1.25008
1.25369
0.0175033
-0.021707
-1.04593
1.05014
0.0257416
-0.0301868
-0.877776
0.882222
0.0341621
-0.0381662
-0.739914
0.743918
0.0417221
-0.0454753
-0.626786
0.63054
0.0493532
-0.0543718
-0.534821
0.539839
0.0580476
-0.0588663
-0.457485
0.458303
0.0521703
-0.0319785
-0.335768
0.315577
0.00988458
-0.0683583
0.0584738
-0.0529232
0.0489233
0.00399983
-0.033191
0.0437492
-0.358082
0.347523
-0.0474589
0.04684
-0.459267
0.459885
-0.0437926
0.0404475
-0.535783
0.539128
-0.0366836
0.0333875
-0.628505
0.631801
-0.0299585
0.0269348
-0.742621
0.745645
-0.0236848
0.0205857
-0.88199
0.885089
-0.0170645
0.0136939
-1.05075
1.05412
-0.00991052
0.00637874
-1.25515
1.25868
-0.00241499
-0.00137982
-1.50323
1.50703
0.00514412
-0.0090164
-1.50414
1.50802
0.0124249
-0.0160432
-1.25744
1.26106
0.0192473
-0.0225784
-1.05395
1.05728
0.0255083
-0.0285866
-0.885721
0.888799
0.0314708
-0.0347642
-0.747186
0.75048
0.0379471
-0.041595
-0.634333
0.637981
0.0448404
-0.0477742
-0.544157
0.54709
0.0482742
-0.0443971
-0.456599
0.452722
0.0336391
-0.0162056
-0.296227
0.278793
0.00406707
-0.0526586
0.0485915
-0.0458412
0.0433408
0.0025004
-0.0228416
0.0332384
-0.336819
0.326423
-0.0390767
0.0401053
-0.459562
0.458534
-0.0389265
0.0366482
-0.541841
0.54412
-0.0339906
0.0314037
-0.634843
0.63743
-0.0283514
0.0254627
-0.74868
0.751569
-0.022211
0.0192298
-0.888029
0.89101
-0.0159393
0.0128527
-1.05724
1.06032
-0.00933964
0.00594147
-1.26213
1.26553
-0.00198888
-0.0018869
-1.5109
1.51478
0.00572299
-0.00955683
-1.51191
1.51575
0.0127952
-0.0160943
-1.2645
1.2678
0.0189642
-0.0220045
-1.06038
1.06342
0.0247592
-0.0277781
-0.891868
0.894886
0.0304759
-0.0333426
-0.753698
0.756565
0.0357754
-0.0382778
-0.641057
0.643559
0.0404224
-0.0414251
-0.548906
0.549908
0.0402129
-0.0341061
-0.447457
0.441351
0.0234164
-0.010218
-0.263593
0.250394
0.00258337
-0.0454344
0.042851
-0.0412606
0.0394879
0.0017727
-0.016788
0.0260622
-0.316551
0.307276
-0.0326915
0.0348491
-0.456922
0.454764
-0.0344441
0.0327866
-0.546088
0.547746
-0.0306205
0.0285395
-0.639723
0.641804
-0.0261253
0.0237437
-0.754197
0.756578
-0.0209022
0.0181273
-0.893888
0.896663
-0.0149065
0.011852
-1.06335
1.06641
-0.00837821
0.00506601
-1.26883
1.27214
-0.00124296
-0.00248621
-1.51856
1.52229
0.00616475
-0.00983646
-1.51949
1.52316
0.0129443
-0.0161432
-1.27106
1.27426
0.018919
-0.0218192
-1.06645
1.06935
0.0243045
-0.0268468
-0.897718
0.90026
0.0289812
-0.0311535
-0.75903
0.761202
0.0330356
-0.035001
-0.645726
0.647691
0.0364634
-0.0366294
-0.550439
0.550605
0.0341905
-0.02717
-0.434707
0.427687
0.017503
-0.00738408
-0.238886
0.228767
0.00187377
-0.0406792
0.0388054
-0.0379598
0.0366244
0.00133539
-0.0128326
0.0208049
-0.29866
0.290688
-0.0275838
0.0305277
-0.452187
0.449243
-0.0307497
0.0296444
-0.549163
0.550268
-0.0276646
0.0257625
-0.643824
0.645726
-0.0235803
0.0214607
-0.7588
0.76092
-0.018967
0.0165048
-0.899216
0.901678
-0.0135868
0.010729
-1.06932
1.07218
-0.00738772
0.00416249
-1.27538
1.27861
-0.000427375
-0.00319504
-1.52594
1.52956
0.00675438
-0.0102997
-1.52677
1.53031
0.0132698
-0.0162686
-1.27739
1.28039
0.0187794
-0.0212973
-1.07208
1.0746
0.0233961
-0.025512
-0.902571
0.904687
0.0273178
-0.0291924
-0.763207
0.765082
0.0308453
-0.0325849
-0.649522
0.651261
0.0334053
-0.0328481
-0.550415
0.549858
0.0295014
-0.0221877
-0.420463
0.41315
0.0137118
-0.00571428
-0.219811
0.211814
0.0014585
-0.0371658
0.0357073
-0.0354565
0.0344253
0.00103123
-0.0100416
0.0167865
-0.283356
0.276611
-0.0233035
0.0267039
-0.446053
0.442652
-0.0275092
0.026828
-0.551156
0.551837
-0.0250895
0.0233263
-0.647608
0.649371
-0.0212829
0.0192917
-0.762972
0.764963
-0.0169465
0.0146404
-0.903989
0.906295
-0.0119213
0.00925261
-1.07487
1.07753
-0.00611284
0.00304503
-1.28171
1.28478
0.000547923
-0.00404816
-1.5331
1.5366
0.00747094
-0.0108304
-1.53376
1.53712
0.0135836
-0.0162999
-1.28326
1.28598
0.0185387
-0.0207617
-1.07698
1.0792
0.0226172
-0.024495
-0.906693
0.908571
0.026099
-0.0277629
-0.766857
0.768521
0.0292181
-0.0306238
-0.652854
0.65426
0.0309501
-0.029671
-0.548951
0.547672
0.025716
-0.0184955
-0.405858
0.398638
0.0111185
-0.00460469
-0.204628
0.198115
0.00118102
-0.0344044
0.0332234
-0.0335186
0.0327129
0.000805626
-0.00797438
0.0136499
-0.270431
0.264755
-0.0196854
0.0232864
-0.439141
0.43554
-0.0245735
0.0241451
-0.552427
0.552856
-0.0226796
0.0210306
-0.651132
0.652781
-0.019084
0.0171788
-0.766907
0.768812
-0.0149274
0.0127151
-0.908486
0.910698
-0.0101123
0.00756822
-1.08006
1.08261
-0.00458314
0.00166506
-1.28772
1.29064
0.00175474
-0.00508293
-1.53999
1.54331
0.00831543
-0.0114478
-1.54036
1.54349
0.0139804
-0.0164483
-1.28859
1.29105
0.0184664
-0.0204601
-1.08135
1.08334
0.0221167
-0.0237895
-0.910371
0.912044
0.0252148
-0.0266903
-0.770093
0.771568
0.0279557
-0.0289955
-0.655456
0.656495
0.0289575
-0.0270241
-0.546066
0.544132
0.0226848
-0.0157489
-0.391555
0.384619
0.00928941
-0.00383296
-0.19218
0.186724
0.000987413
-0.0321524
0.031165
-0.0320045
0.0313735
0.000631078
-0.00638144
0.0111454
-0.259564
0.2548
-0.0165973
0.020206
-0.431937
0.428328
-0.021824
0.021626
-0.553214
0.553412
-0.0203957
0.0188038
-0.654459
0.656051
-0.0169154
0.0150653
-0.770683
0.772533
-0.0128817
0.010735
-0.912794
0.91494
-0.00820519
0.00573351
-1.08503
1.0875
-0.00284403
4.19569e-05
-1.29343
1.29624
0.00320711
-0.00633574
-1.5465
1.54963
0.00934908
-0.0122523
-1.54649
1.5494
0.0145893
-0.0168526
-1.29343
1.29569
0.0186865
-0.0204758
-1.08526
1.08705
0.0219435
-0.023419
-0.913645
0.915121
0.0246804
-0.0259878
-0.772977
0.774284
0.0271146
-0.0277502
-0.657318
0.657954
0.0273506
-0.0248711
-0.541939
0.53946
0.0203022
-0.0137161
-0.37787
0.371284
0.00798555
-0.00329011
-0.181688
0.176993
0.00085195
-0.0302572
0.0294052
-0.0308221
0.0303326
0.000489529
-0.00509913
0.00907725
-0.250457
0.246478
-0.0139008
0.0173694
-0.424799
0.421331
-0.0191842
0.0191922
-0.553558
0.55355
-0.0181726
0.0166309
-0.657692
0.659234
-0.0147767
0.0129477
-0.774356
0.776185
-0.010785
0.008664
-0.916982
0.919103
-0.00617703
0.00376162
-1.08985
1.09227
-0.000952709
-0.00175866
-1.29892
1.30164
0.00488611
-0.00787356
-1.55264
1.55563
0.0107193
-0.0134221
-1.55218
1.55488
0.0155655
-0.0176112
-1.29788
1.29992
0.0192477
-0.020828
-1.0888
1.09038
0.0221172
-0.0234158
-0.916537
0.917835
0.0245301
-0.0256767
-0.775514
0.776661
0.0266053
-0.0268815
-0.658383
0.658659
0.0260937
-0.0231571
-0.536762
0.533825
0.018463
-0.0122252
-0.364893
0.358655
0.0070582
-0.00291043
-0.172606
0.168458
0.000758568
-0.0286115
0.0278529
-0.0299109
0.0295407
0.000370161
-0.0040269
0.00731624
-0.24287
0.239581
-0.0115017
0.0147196
-0.418009
0.414791
-0.0165971
0.0167611
-0.553526
0.553362
-0.0158152
0.0143417
-0.660818
0.662292
-0.012479
0.0106372
-0.777998
0.77984
-0.00847097
0.00636101
-0.921111
0.923221
-0.00390026
0.00151933
-1.09456
1.09694
0.00123808
-0.00388136
-1.30424
1.30688
0.00690008
-0.0097477
-1.5585
1.56135
0.0124239
-0.0149297
-1.55746
1.55997
0.0168868
-0.0187251
-1.30187
1.30371
0.0201701
-0.0215387
-1.09191
1.09328
0.0226397
-0.0237529
-0.919084
0.920197
0.0247208
-0.0257107
-0.777746
0.778736
0.0264062
-0.0263882
-0.658798
0.65878
0.0252058
-0.0218761
-0.530705
0.527375
0.017107
-0.0111671
-0.352596
0.346656
0.00641832
-0.00265489
-0.164535
0.160772
0.00069763
-0.0271368
0.0264391
-0.0292311
0.0289671
0.000264034
-0.00308901
0.00575761
-0.236626
0.233957
-0.00930634
0.0121952
-0.411765
0.408876
-0.0140339
0.0142974
-0.553222
0.552958
-0.0134143
0.0119985
-0.663827
0.665243
-0.010124
0.00824724
-0.781668
0.783544
-0.00603178
0.00387634
-0.925229
0.927385
-0.00137515
-0.00102289
-1.09922
1.10162
0.00376893
-0.00636958
-1.30942
1.31202
0.00930359
-0.0120309
-1.56408
1.56681
0.0145502
-0.0168625
-1.56235
1.56466
0.0186346
-0.0202691
-1.30547
1.3071
0.0215324
-0.0227067
-1.09463
1.0958
0.0236379
-0.0245806
-0.921273
0.922216
0.0254015
-0.0262147
-0.779641
0.780454
0.0266281
-0.0263551
-0.658628
0.658355
0.0247327
-0.0210217
-0.523876
0.520165
0.0161822
-0.0104646
-0.340866
0.335148
0.00600686
-0.00249771
-0.157168
0.153659
0.000662794
-0.0257714
0.0251087
-0.0287606
0.0285976
0.000163062
-0.00222007
0.00430535
-0.231604
0.229519
-0.00721015
0.00969486
-0.406222
0.403737
-0.0113781
0.0116542
-0.55277
0.552494
-0.0107932
0.00939482
-0.666746
0.668144
-0.0074773
0.00553742
-0.785408
0.787348
-0.00324967
0.00103684
-0.929434
0.931647
0.00151369
-0.00394347
-1.10391
1.10634
0.00670744
-0.00930299
-1.31453
1.31713
0.0121946
-0.014835
-1.56944
1.57208
0.0172234
-0.0193613
-1.56686
1.56899
0.0209537
-0.0223744
-1.30864
1.31006
0.0234328
-0.0243727
-1.09696
1.0979
0.0250885
-0.025825
-0.923113
0.923849
0.0264867
-0.0271543
-0.781168
0.781835
0.0272698
-0.0266409
-0.657853
0.657224
0.0246062
-0.020544
-0.516323
0.51226
0.0156262
-0.0100501
-0.329551
0.323975
0.00577537
-0.00241693
-0.15026
0.146902
0.000647827
-0.0244673
0.0238195
-0.0284918
0.0284306
6.12439e-05
-0.00137297
0.00288951
-0.22774
0.226224
-0.00513818
0.00716032
-0.401521
0.399499
-0.00859178
0.00879936
-0.552358
0.552151
-0.00790539
0.00647344
-0.669679
0.671111
-0.00446281
0.00242551
-0.789278
0.791315
-2.94375e-05
-0.00227674
-0.933742
0.936048
0.00492098
-0.00742278
-1.10866
1.11117
0.0102404
-0.0128485
-1.31963
1.32224
0.0156981
-0.0182379
-1.57461
1.57715
0.0204743
-0.022416
-1.57101
1.57295
0.0238163
-0.0250166
-1.31138
1.31258
0.0258695
-0.0265822
-1.09883
1.09955
0.0270885
-0.0276059
-0.924554
0.925072
0.0281065
-0.0285782
-0.782349
0.782821
0.0284219
-0.0273911
-0.656345
0.655314
0.0249144
-0.0204712
-0.508078
0.503634
0.0154256
-0.0098944
-0.318482
0.312951
0.00570203
-0.00240389
-0.143613
0.140315
0.000651203
-0.0231857
0.0225345
-0.0284269
0.0284745
-4.7622e-05
-0.000496357
0.00143709
-0.225017
0.224076
-0.0029997
0.00449186
-0.39778
0.396288
-0.00557252
0.00564133
-0.552138
0.552069
-0.00468559
0.00319263
-0.672707
0.6742
-0.00107899
-0.00108912
-0.793342
0.79551
0.0036478
-0.00610374
-0.938254
0.94071
0.00889991
-0.0115179
-1.11358
1.1162
0.0144282
-0.0170823
-1.32476
1.32741
0.0199309
-0.0224093
-1.57958
1.58206
0.0245177
-0.026264
-1.57475
1.57649
0.0274569
-0.0284167
-1.31366
1.31462
0.0290471
-0.0295087
-1.10027
1.10073
0.0297842
-0.0300693
-0.925574
0.925859
0.0303727
-0.030568
-0.78301
0.783205
0.0301384
-0.028616
-0.654012
0.652489
0.0256533
-0.0207945
-0.49909
0.494231
0.015563
-0.00997683
-0.307468
0.301881
0.00577146
-0.00245113
-0.13705
0.13373
0.000670448
-0.0218915
0.021221
-0.0285786
0.0287435
-0.000164895
0.000431861
-0.000104291
-0.22346
0.223132
-0.000722861
0.00160623
-0.395136
0.394253
-0.00221943
0.0020411
-0.55228
0.552458
-0.000930777
-0.000702958
-0.675913
0.677547
0.00297452
-0.00531211
-0.797663
0.800001
0.0080612
-0.0106833
-0.943053
0.945675
0.0136496
-0.0164074
-1.11872
1.12148
0.0194464
-0.0221813
-1.32998
1.33272
0.0250587
-0.0274871
-1.58444
1.58686
0.0294701
-0.0310154
-1.5781
1.57964
0.0319835
-0.0326638
-1.31544
1.31612
0.0330331
-0.0332145
-1.10118
1.10136
0.0332364
-0.0332596
-0.926122
0.926145
0.0333564
-0.0332245
-0.783029
0.782897
0.0324596
-0.0303555
-0.65073
0.648625
0.0268668
-0.0215347
-0.48928
0.483948
0.0160361
-0.0102858
-0.2963
0.29055
0.00597405
-0.00255414
-0.130408
0.126988
0.000704386
-0.020553
0.0198486
-0.0289878
0.0292932
-0.000305419
0.00143334
-0.00175441
-0.223164
0.223485
0.00176589
-0.00159012
-0.39373
0.393554
0.00156306
-0.00208706
-0.553013
0.553537
0.00341666
-0.00524684
-0.679455
0.681285
0.0077521
-0.0103231
-0.802325
0.804896
0.0133319
-0.0161842
-0.948186
0.951038
0.0193911
-0.0223469
-1.12415
1.1271
0.0255602
-0.0283955
-1.33537
1.3382
0.0312951
-0.0336468
-1.58916
1.59151
0.0354643
-0.0367608
-1.58101
1.58231
0.0374853
-0.0378694
-1.31666
1.31704
0.0379647
-0.0378451
-1.10151
1.10139
0.0375898
-0.0373336
-0.926112
0.925856
0.0372144
-0.0366483
-0.78231
0.781744
0.0354577
-0.0327117
-0.646348
0.643602
0.0286145
-0.0227161
-0.478515
0.472617
0.0168515
-0.0108193
-0.284761
0.278729
0.00630624
-0.00271064
-0.123535
0.11994
0.000752231
-0.0191416
0.0183893
-0.0296699
0.0301463
-0.00047632
0.00269127
-0.00374893
-0.224186
0.225244
0.00463843
-0.00526715
-0.393756
0.394384
0.00595543
-0.00691856
-0.554566
0.555529
0.008537
-0.0106124
-0.683443
0.685518
0.0134047
-0.0162691
-0.807447
0.810311
0.0196159
-0.0227755
-0.953795
0.956955
0.0262988
-0.0295071
-1.12998
1.13319
0.0329397
-0.0359081
-1.34095
1.34392
0.0388627
-0.0411548
-1.59373
1.59602
0.0427967
-0.0438086
-1.5834
1.58441
0.0442227
-0.0442691
-1.31723
1.31728
0.0440515
-0.0435954
-1.10117
1.10072
0.0430357
-0.0424608
-0.925484
0.924909
0.0420182
-0.0409983
-0.780696
0.779676
0.0392553
-0.0357544
-0.64072
0.637219
0.0309494
-0.0243701
-0.466606
0.460026
0.0180211
-0.0115775
-0.272611
0.266167
0.00676496
-0.00291801
-0.11628
0.112433
0.000812834
-0.0176303
0.0168175
-0.0307008
0.0313946
-0.000693782
0.00417521
-0.00611446
-0.226743
0.228682
0.00805975
-0.0095804
-0.39544
0.396961
0.0111077
-0.0126622
-0.557174
0.558729
0.0147417
-0.0171735
-0.687995
0.690427
0.0203693
-0.0236057
-0.813154
0.81639
0.0273581
-0.030872
-0.960019
0.963533
0.0347543
-0.0382516
-1.13632
1.13982
0.0419423
-0.0450658
-1.3468
1.34993
0.0480649
-0.0502541
-1.59816
1.60035
0.0516649
-0.0523468
-1.58519
1.58588
0.0523952
-0.05206
-1.31706
1.31673
0.0514754
-0.050634
-1.10008
1.09923
0.0497281
-0.0487774
-0.924152
0.923201
0.0479173
-0.0463957
-0.778137
0.776615
0.0439754
-0.0395913
-0.633617
0.629233
0.0339453
-0.0265292
-0.453311
0.445895
0.0195537
-0.0125573
-0.259587
0.252591
0.00734416
-0.00317166
-0.108492
0.104319
0.000884324
-0.0159948
0.0151104
-0.0321658
0.0331435
-0.00097768
0.00604129
-0.00905105
-0.23108
0.23409
0.0122279
-0.0147993
-0.399063
0.401634
0.0172967
-0.0195665
-0.561151
0.563421
0.0222573
-0.0251802
-0.693349
0.696271
0.0289154
-0.032625
-0.819614
0.823324
0.0368777
-0.0408247
-0.966955
0.970902
0.0451491
-0.0489974
-1.14325
1.1471
0.0529806
-0.0562541
-1.35294
1.35621
0.0592601
-0.0612873
-1.60235
1.60438
0.0623942
-0.0626507
-1.58628
1.58654
0.062271
-0.0614452
-1.31605
1.31522
0.0604221
-0.0591175
-1.0981
1.0968
0.0578051
-0.056469
-0.922001
0.920665
0.0550827
-0.0529649
-0.774546
0.772428
0.0497453
-0.0443013
-0.62476
0.619316
0.0376417
-0.0292046
-0.438316
0.429879
0.0214433
-0.0137434
-0.245409
0.237709
0.00802815
-0.00346139
-0.100027
0.0954603
0.000962772
-0.0142149
0.0132521
-0.0341879
0.03556
-0.00137216
0.00850286
-0.0128422
-0.237549
0.241888
0.0174991
-0.0212967
-0.404976
0.408773
0.0249179
-0.0280319
-0.566803
0.569917
0.031478
-0.0350278
-0.699768
0.703318
0.0394355
-0.0437477
-0.827028
0.83134
0.0486444
-0.0531414
-0.97479
0.979287
0.0579939
-0.0622229
-1.15087
1.1551
0.0664846
-0.0698654
-1.35934
1.36272
0.0728079
-0.0745875
-1.60614
1.60792
0.0752786
-0.0749789
-1.58643
1.58613
0.0740713
-0.0726335
-1.31394
1.3125
0.0711172
-0.0692974
-1.0951
1.09328
0.0675377
-0.0657322
-0.918951
0.917146
0.0637377
-0.0608848
-0.769726
0.766873
0.0566782
-0.049955
-0.613789
0.607066
0.0420751
-0.0323945
-0.421258
0.411578
0.0236653
-0.0151035
-0.229779
0.221217
0.0087893
-0.00377118
-0.0907549
0.0857368
0.00104246
-0.0122797
0.0112372
-0.0369677
0.0389078
-0.00194016
0.0119247
-0.017968
-0.246637
0.25268
0.0244141
-0.0296481
-0.413674
0.418908
0.0346038
-0.0387703
-0.574499
0.578665
0.0432116
-0.0476006
-0.707549
0.711938
0.0528955
-0.0579598
-0.835652
0.840717
0.0636099
-0.068706
-0.98373
0.988827
0.0740915
-0.078665
-1.15922
1.1638
0.08312
-0.0864835
-1.36588
1.36924
0.0891676
-0.0904796
-1.60933
1.61065
0.0905492
-0.0895153
-1.58538
1.58435
0.087937
-0.0858113
-1.31052
1.30839
0.0837184
-0.0813486
-1.09093
1.08856
0.0791209
-0.0766938
-0.914826
0.912399
0.0740935
-0.070282
-0.763329
0.759518
0.0648763
-0.0566
-0.60025
0.591974
0.0472395
-0.0360516
-0.401694
0.390506
0.0261553
-0.0165742
-0.212395
0.202814
0.00957912
-0.00407568
-0.0805749
0.0750714
0.00111535
-0.0101903
0.0090749
-0.0408276
0.0436479
-0.00282035
0.0168917
-0.0251836
-0.259075
0.267367
0.0338384
-0.0407905
-0.425831
0.432783
0.047367
-0.0528337
-0.584765
0.590231
0.0585492
-0.0640544
-0.717158
0.722663
0.0704945
-0.0764364
-0.845764
0.851706
0.0828766
-0.0885345
-0.993833
0.99949
0.0943495
-0.0991198
-1.16818
1.17295
0.103551
-0.10666
-1.37225
1.37536
0.108798
-0.109376
-1.61144
1.61202
0.108587
-0.106607
-1.58276
1.58079
0.104193
-0.101211
-1.30562
1.30264
0.0984224
-0.0954065
-1.08544
1.08242
0.0926476
-0.0895359
-0.909274
0.906162
0.0862493
-0.0812622
-0.754889
0.749902
0.0743674
-0.0641893
-0.583559
0.573381
0.0530419
-0.0400535
-0.379121
0.366133
0.0287805
-0.0180378
-0.192977
0.182234
0.010312
-0.00433128
-0.0694468
0.063466
0.00116745
-0.00796658
0.00679913
-0.046332
0.0506315
-0.00429946
0.0245782
-0.0359141
-0.276028
0.287364
0.0474127
-0.0566593
-0.442455
0.451702
0.0652337
-0.072225
-0.598202
0.605193
0.0794683
-0.086414
-0.729037
0.735983
0.0940211
-0.100773
-0.857542
0.864294
0.107862
-0.113885
-1.00497
1.01099
0.119832
-0.124471
-1.17735
1.18199
0.128479
-0.130961
-1.37791
1.38039
0.132158
-0.131663
-1.61189
1.61139
0.129712
-0.126519
-1.5781
1.57491
0.123074
-0.119057
-1.29891
1.29489
0.115436
-0.111656
-1.07846
1.07468
0.108305
-0.104397
-0.90211
0.898202
0.100234
-0.0937089
-0.743911
0.737386
0.0849835
-0.072517
-0.562975
0.550509
0.0592567
-0.044171
-0.352989
0.337903
0.0313258
-0.0193205
-0.171319
0.159313
0.0108657
-0.00447696
-0.0574355
0.0510468
0.0011785
-0.00565715
0.00447865
-0.0545394
0.0618797
-0.00734038
0.0379569
-0.0537649
-0.299613
0.315421
0.069288
-0.0817136
-0.4652
0.477626
0.0924275
-0.100776
-0.615206
0.623554
0.109538
-0.117749
-0.743477
0.751687
0.126279
-0.133423
-0.870743
0.877888
0.140572
-0.146353
-1.01656
1.02235
0.15176
-0.155642
-1.18596
1.18984
0.158584
-0.159847
-1.382
1.38327
0.159519
-0.157436
-1.6099
1.60781
0.1539
-0.149176
-1.57082
1.5661
0.144484
-0.139282
-1.29006
1.28486
0.13473
-0.130114
-1.06978
1.06516
0.126076
-0.121344
-0.893088
0.888356
0.115932
-0.107467
-0.729626
0.721161
0.0964311
-0.0811555
-0.537563
0.522287
0.0654321
-0.0480589
-0.322733
0.30536
0.0335403
-0.0202697
-0.147377
0.134106
0.0111424
-0.00446285
-0.0447727
0.0380932
0.00112132
-0.00334648
0.00222516
-0.068723
0.0728219
-0.00409892
0.0289411
-0.0427556
-0.333771
0.347586
0.0566019
-0.0680627
-0.495485
0.506945
0.0782264
-0.0876914
-0.635441
0.644906
0.0982073
-0.107909
-0.759317
0.769019
0.118633
-0.128053
-0.884011
0.893431
0.137981
-0.146704
-1.02718
1.03591
0.155692
-0.16323
-1.19261
1.20015
0.17048
-0.175925
-1.38331
1.38876
0.180238
-0.182263
-1.60447
1.60649
0.181968
-0.1799
-1.56026
1.55819
0.176811
-0.172678
-1.2787
1.27456
0.168893
-0.164461
-1.05917
1.05473
0.160639
-0.155676
-0.881716
0.876753
0.148504
-0.136348
-0.710994
0.698839
0.120167
-0.0986488
-0.506331
0.484813
0.0774497
-0.0548078
-0.287852
0.26521
0.036856
-0.0213361
-0.121409
0.105889
0.0111983
-0.00424143
-0.0319333
0.0249764
0.000968535
-0.00112926
0.000160724
-0.0801352
0.078227
0.0019082
0.00762732
-0.0165128
-0.364094
0.37298
0.0269929
-0.0352446
-0.522984
0.531236
0.0434669
-0.0512883
-0.656988
0.66481
0.0608851
-0.0698592
-0.778193
0.787167
0.0794071
-0.0880391
-0.90222
0.910852
0.0971109
-0.104731
-1.04432
1.05194
0.112744
-0.119063
-1.20743
1.21375
0.125034
-0.129157
-1.39378
1.3979
0.131771
-0.132291
-1.60755
1.60807
0.130532
-0.126988
-1.55529
1.55175
0.122403
-0.116693
-1.26979
1.26408
0.11135
-0.105418
-1.04869
1.04276
0.0998854
-0.0934414
-0.86716
0.860716
0.0862199
-0.0756633
-0.682914
0.672358
0.0635562
-0.0491058
-0.461844
0.447394
0.0362129
-0.0240546
-0.242746
0.230588
0.0153391
-0.00849114
-0.0910886
0.0842406
0.00428368
-0.00155931
-0.0182607
0.0155363
0.000323354
0.00105156
-0.00137491
-0.0815596
0.0787251
0.00283447
-0.00114735
-0.00390717
-0.384634
0.389689
0.0108257
-0.0168346
-0.54332
0.549329
0.0229161
-0.0296568
-0.675141
0.681882
0.0379706
-0.0457419
-0.79521
0.802981
0.0542173
-0.0617158
-0.918663
0.926162
0.069343
-0.0761081
-1.05936
1.06613
0.0830006
-0.0884996
-1.2196
1.2251
0.0932172
-0.0962028
-1.40131
1.4043
0.09786
-0.0972698
-1.60781
1.60722
0.0943949
-0.0897316
-1.54743
1.54277
0.0842568
-0.077833
-1.258
1.25157
0.0715013
-0.0647193
-1.03555
1.02877
0.0583737
-0.0511865
-0.85116
0.843973
0.0442591
-0.0354786
-0.658458
0.649677
0.0267396
-0.01765
-0.431203
0.422113
0.0111025
-0.00623606
-0.217687
0.21282
0.00344661
-0.00171719
-0.0771494
0.07542
0.000791229
-0.000277545
-0.0125206
0.0120069
3.74883e-05
0.00198359
-0.00202107
-0.0803869
0.0776508
0.00273605
-0.00483878
0.00231445
-0.398266
0.40079
0.00215019
-0.00665919
-0.558424
0.562933
0.011771
-0.0174123
-0.690055
0.695696
0.0245533
-0.0312228
-0.810077
0.816746
0.0384572
-0.0448839
-0.933096
0.939523
0.0518031
-0.0575289
-1.07245
1.07817
0.0635235
-0.0678349
-1.23017
1.23448
0.0717619
-0.0740572
-1.407
1.4093
0.0748008
-0.0732411
-1.60609
1.60453
0.0698912
-0.0648531
-1.53747
1.53243
0.0590853
-0.0519736
-1.24479
1.23768
0.0452727
-0.0379641
-1.02098
1.01367
0.0309744
-0.0236546
-0.834295
0.826975
0.0169355
-0.00984006
-0.637916
0.630821
0.00382765
0.000831586
-0.41171
0.407051
-0.00298694
0.00355936
-0.206025
0.205452
-0.00323662
0.00224134
-0.0727146
0.0737099
-0.00141405
0.000621754
-0.0109427
0.011735
-0.000192491
0.00239152
-0.00219903
-0.0789608
0.0765605
0.00240026
-0.00598634
0.00501111
-0.407443
0.408419
-0.00164914
-0.00170718
-0.57051
0.573866
0.00578983
-0.0109059
-0.702576
0.707692
0.0169219
-0.0227993
-0.822685
0.828563
0.0290851
-0.0346945
-0.945494
0.951103
0.0406557
-0.0457679
-1.08376
1.08888
0.0508369
-0.0547788
-1.23863
1.24257
0.0580602
-0.0598316
-1.41119
1.41296
0.0600923
-0.0582134
-1.60279
1.60091
0.0546583
-0.0492748
-1.52672
1.52134
0.0433923
-0.0362761
-1.23046
1.22334
0.0294018
-0.0216812
-1.00554
0.997815
0.0146328
-0.00723454
-0.817525
0.810127
0.00105793
0.00471817
-0.621056
0.61528
-0.00876934
0.0108941
-0.399857
0.397732
-0.0108551
0.00929815
-0.202402
0.203959
-0.00731152
0.00492222
-0.0738364
0.0762257
-0.00299064
0.00128352
-0.0121093
0.0138164
-0.000361091
0.00226154
-0.00190045
-0.077666
0.0756296
0.00203635
-0.00587408
0.00536305
-0.413817
0.414328
-0.00332868
0.000578689
-0.579874
0.582624
0.00343094
-0.00783282
-0.713197
0.717599
0.0130275
-0.0181443
-0.833622
0.838739
0.0237528
-0.0287972
-0.956363
0.961407
0.0342894
-0.0387965
-1.09372
1.09822
0.0433755
-0.0469239
-1.24623
1.24977
0.0497843
-0.0512491
-1.41446
1.41592
0.0512456
-0.0495689
-1.59894
1.59727
0.0458565
-0.0405189
-1.51548
1.51015
0.0345678
-0.0274414
-1.21597
1.20884
0.0208915
-0.0132663
-0.98971
0.982084
0.0064099
0.000601501
-0.801438
0.794426
-0.00639158
0.0112034
-0.606937
0.602125
-0.0142454
0.0154654
-0.39249
0.39127
-0.014377
0.0118795
-0.203021
0.205518
-0.00931414
0.0063183
-0.0777816
0.0807775
-0.00383251
0.00167956
-0.0151375
0.0172904
-0.000475905
0.00167967
-0.00120377
-0.0767235
0.0751519
0.00157167
-0.00498525
0.00477804
-0.418647
0.418854
-0.00306435
0.000969793
-0.588109
0.590203
0.00280443
-0.00683157
-0.72244
0.726467
0.0117896
-0.0162168
-0.843451
0.847879
0.0211661
-0.0256631
-0.966417
0.970914
0.0309042
-0.0350205
-1.10276
1.10688
0.039113
-0.0424924
-1.25314
1.25652
0.045533
-0.0468784
-1.4174
1.41875
0.0469505
-0.0451803
-1.59518
1.59341
0.0418098
-0.0363738
-1.50456
1.49912
0.0308429
-0.0242857
-1.20161
1.19506
0.0180634
-0.0111714
-0.974469
0.967577
0.00472807
0.00209047
-0.786349
0.779531
-0.0073305
0.01187
-0.594435
0.589896
-0.0145965
0.0155554
-0.387157
0.386198
-0.0146784
0.0123508
-0.205321
0.207649
-0.00976657
0.00667167
-0.0829055
0.0860004
-0.00408745
0.00183153
-0.0189446
0.0212005
-0.000534277
0.000870395
-0.000336118
-0.0762946
0.0750814
0.00121322
-0.00388476
0.00378552
-0.422571
0.42267
-0.00216641
0.000166791
-0.595326
0.597326
0.00342064
-0.00707081
-0.730788
0.734438
0.0113473
-0.0156285
-0.852256
0.856538
0.0202202
-0.0248764
-0.97521
0.979866
0.0294055
-0.0333539
-1.1111
1.11505
0.0375989
-0.0407772
-1.25978
1.26296
0.0433874
-0.0451751
-1.42001
1.4218
0.0454412
-0.0439904
-1.5917
1.59024
0.0408661
-0.0361824
-1.49396
1.48928
0.0312104
-0.0252534
-1.18836
1.1824
0.0196142
-0.0131595
-0.960524
0.954069
0.00709283
-0.000797209
-0.772109
0.765813
-0.00448884
0.00883023
-0.582817
0.578476
-0.0112808
0.0125708
-0.382564
0.381274
-0.012281
0.010494
-0.207451
0.209238
-0.00842691
0.00582797
-0.0878012
0.0904001
-0.00362603
0.00165677
-0.0227509
0.0247201
-0.000499469
-1.14737e-05
0.000510942
-0.0764144
0.0754048
0.00100964
-0.0025859
0.0022298
-0.426152
0.426508
-0.00078459
-0.00124688
-0.602005
0.604036
0.00455962
-0.00811164
-0.738594
0.742146
0.0122385
-0.0161343
-0.860622
0.864518
0.0208589
-0.0247345
-0.983934
0.98781
0.0292506
-0.0330496
-1.11916
1.12296
0.0372114
-0.0406149
-1.26612
1.26953
0.0435641
-0.0451839
-1.42335
1.42497
0.0458458
-0.0448882
-1.58876
1.5878
0.0425744
-0.0384333
-1.48462
1.48048
0.0340724
-0.0286342
-1.17667
1.17123
0.0234137
-0.0172697
-0.947335
0.941191
0.0116806
-0.0056935
-0.758853
0.752866
0.000691952
0.0037534
-0.572103
0.567657
-0.00650847
0.007914
-0.377455
0.37605
-0.00826535
0.00734858
-0.208565
0.209482
-0.00605963
0.00426954
-0.0915843
0.0933744
-0.00270204
0.00127807
-0.0258487
0.0272727
-0.000399194
-0.000785612
0.00118481
-0.0768331
0.076133
0.00070011
-0.00143419
0.000603656
-0.429846
0.430676
0.000653646
-0.00283312
-0.607965
0.610144
0.00585892
-0.0093082
-0.745908
0.749357
0.013282
-0.0173178
-0.868285
0.87232
0.0214393
-0.0254936
-0.991892
0.995947
0.029994
-0.0336112
-1.12718
1.1308
0.0379085
-0.0413149
-1.27274
1.27615
0.0443693
-0.0465706
-1.42702
1.42922
0.0478084
-0.0472662
-1.58694
1.5864
0.0453234
-0.0419931
-1.4766
1.47327
0.0381894
-0.0330688
-1.1657
1.16058
0.0280693
-0.0225417
-0.934937
0.92941
0.0170605
-0.0116918
-0.746369
0.741
0.00693821
-0.00229702
-0.561863
0.557222
-0.00076373
0.00283012
-0.371774
0.369708
-0.00367468
0.00368031
-0.208338
0.208332
-0.0031555
0.00230023
-0.0937171
0.0945724
-0.00153957
0.000777345
-0.0278505
0.0286127
-0.000263771
-0.00134759
0.00161136
-0.07766
0.0771237
0.000536291
-0.000462762
-0.000313962
-0.433794
0.43457
0.00213362
-0.00417656
-0.614038
0.616081
0.00740508
-0.0107499
-0.752751
0.756096
0.0145869
-0.0182362
-0.876036
0.879685
0.0225
-0.0262607
-1
1.00376
0.0307368
-0.034825
-1.13488
1.13896
0.0388083
-0.0425842
-1.27962
1.28339
0.046113
-0.048465
-1.43133
1.43368
0.0501668
-0.050484
-1.58612
1.58644
0.0490381
-0.0462823
-1.46981
1.46706
0.0426166
-0.0379228
-1.15549
1.15079
0.0334291
-0.0283146
-0.923545
0.91843
0.023491
-0.0184263
-0.734954
0.729889
0.0137521
-0.00880507
-0.551332
0.546385
0.00516316
-0.00251248
-0.365274
0.362623
0.000882776
-2.7573e-05
-0.206443
0.205588
-0.000348718
0.000457864
-0.0940213
0.0939122
-0.000433949
0.000298526
-0.0285783
0.0287138
-0.000133958
-0.00164635
0.00178031
-0.0787686
0.078411
0.000357686
0.000596113
-0.00156691
-0.437894
0.438865
0.00326486
-0.00561773
-0.619741
0.622094
0.0088093
-0.0120177
-0.759379
0.762587
0.0159451
-0.0194589
-0.883319
0.886832
0.0235841
-0.0274867
-1.008
1.0119
0.0319015
-0.0359873
-1.14291
1.147
0.0402307
-0.0440744
-1.2871
1.29094
0.0478334
-0.0509814
-1.43634
1.43948
0.0531916
-0.0538447
-1.58671
1.58737
0.0530536
-0.0505471
-1.46416
1.46165
0.0474095
-0.0433541
-1.1461
1.14204
0.0391499
-0.0345777
-0.913183
0.908611
0.0301518
-0.0250936
-0.724254
0.719196
0.0203818
-0.0150538
-0.540594
0.535266
0.0109656
-0.00748276
-0.357792
0.354309
0.00518405
-0.00340281
-0.202826
0.201044
0.00207075
-0.00104794
-0.0925034
0.0914806
0.000408131
-2.51909e-05
-0.0281021
0.0277191
-6.44715e-05
-0.00165468
0.00171915
-0.0801065
0.0798723