/*--------------------------------*- C++ -*----------------------------------*\
  =========                 |
  \\      /  F ield         | OpenFOAM: The Open Source CFD Toolbox
   \\    /   O peration     | Website:  https://openfoam.org
    \\  /    A nd           | Version:  6
     \\/     M anipulation  |
\*---------------------------------------------------------------------------*/
FoamFile
{
    version     2.0;
    format      ascii;
    class       surfaceScalarField;
    location    "13.7";
    object      phi;
}
// * * * * * * * * * * * * * * * * * * * * * * * * * * * * * * * * * * * * * //

dimensions      [0 3 -1 0 0 0 0];

internalField   nonuniform List<scalar> 
17370
(
-0.0899896
0.0898338
0.289167
-0.0714423
0.0537329
0.364485
-0.0381098
0.027709
0.426569
-0.0196912
0.014679
0.504264
-0.0108325
0.00831216
0.601922
-0.00626569
0.00485239
0.720471
-0.00365844
0.00281227
0.863753
-0.00208418
0.00154473
1.03599
-0.00105011
0.00065883
1.24289
-0.000284666
-4.5188e-05
1.49152
0.000377947
-0.000769844
1.49158
0.00116329
-0.00165206
1.24318
0.00218304
-0.00289829
1.03635
0.00373301
-0.0049168
0.86409
0.00632249
-0.00836484
0.7211
0.0108837
-0.0147253
0.603056
0.019731
-0.0277413
0.50745
0.0381365
-0.0537546
0.431786
0.0714601
-0.0898456
0.365161
0.0899967
0.199014
-0.128182
0.0883087
0.0398738
-0.364646
0.353462
-0.0745874
0.0857715
-0.446499
0.45441
-0.0842344
0.0763234
-0.521121
0.530022
-0.0680958
0.0591951
-0.612726
0.621544
-0.0508796
0.0420612
-0.726886
0.734008
-0.0346606
0.0275391
-0.867493
0.87248
-0.022053
0.0170659
-1.03848
1.0418
-0.0133529
0.0100334
-1.24461
1.24692
-0.00755177
0.00524784
-1.49265
1.49457
-0.00337765
0.00146463
-1.4924
1.49413
0.000255237
-0.00198816
-1.24398
1.24583
0.00386774
-0.00571472
-1.0375
1.03996
0.00800003
-0.0104606
-0.866088
0.869771
0.0137497
-0.0174325
-0.724407
0.729858
0.0223836
-0.0278349
-0.608678
0.616052
0.0349203
-0.0422945
-0.514849
0.523144
0.0510882
-0.0593838
-0.439853
0.44806
0.0682618
-0.076469
-0.375349
0.376859
0.0843568
-0.0858673
-0.257413
0.22266
0.0746519
-0.0398986
-0.068639
0.0589131
0.00972595
-0.0512519
0.0577326
-0.374214
0.367733
-0.0568508
0.0532233
-0.453719
0.457347
-0.0483401
0.0444723
-0.528103
0.531971
-0.0405596
0.0367232
-0.621506
0.625343
-0.0323827
0.0282474
-0.735113
0.739248
-0.0237913
0.0197955
-0.874107
0.878102
-0.0156651
0.0121084
-1.04325
1.04681
-0.0085589
0.00556165
-1.2484
1.2514
-0.00243872
-0.000498979
-1.49656
1.4995
0.003421
-0.00650531
-1.49713
1.50021
0.00945518
-0.0129387
-1.24991
1.25339
0.0164292
-0.0204873
-1.04578
1.04984
0.0244223
-0.0288211
-0.877576
0.881974
0.0329092
-0.0372007
-0.739824
0.744115
0.0409903
-0.0448514
-0.626943
0.630804
0.0486748
-0.0535168
-0.535098
0.53994
0.0571064
-0.0579449
-0.457663
0.458502
0.0514121
-0.0315546
-0.336044
0.316186
0.00975177
-0.0685617
0.0588099
-0.0532709
0.0493875
0.00388343
-0.0323839
0.0426269
-0.358514
0.348271
-0.0460588
0.0452485
-0.459256
0.460066
-0.0420603
0.0387016
-0.535704
0.539063
-0.0350031
0.0318538
-0.628617
0.631766
-0.0286393
0.0257256
-0.74262
0.745534
-0.0225112
0.0194726
-0.881654
0.884692
-0.0161163
0.0129898
-1.05024
1.05337
-0.00954157
0.00634277
-1.25456
1.25775
-0.0027489
-0.000736865
-1.50271
1.50619
0.00419295
-0.00772285
-1.50356
1.50709
0.0108593
-0.0142228
-1.25692
1.26028
0.0172577
-0.0205129
-1.05359
1.05685
0.0234607
-0.0265738
-0.885686
0.888799
0.0294036
-0.032553
-0.747526
0.750676
0.0356369
-0.0392694
-0.634522
0.638155
0.0425749
-0.0457061
-0.544163
0.547294
0.0464554
-0.0429381
-0.456969
0.453452
0.0325976
-0.0156798
-0.297241
0.280324
0.00391674
-0.0531378
0.049221
-0.046466
0.0441806
0.00228542
-0.0211547
0.0308512
-0.338051
0.328354
-0.0362774
0.0371693
-0.45999
0.459098
-0.0359205
0.0336348
-0.541873
0.544158
-0.031018
0.0285557
-0.634628
0.63709
-0.0257538
0.0231786
-0.748281
0.750856
-0.0203413
0.0177733
-0.887299
0.889867
-0.0148784
0.0121651
-1.05615
1.05886
-0.00902736
0.00598483
-1.26092
1.26396
-0.00244283
-0.000993295
-1.50982
1.51325
0.00441208
-0.00789864
-1.51071
1.5142
0.010851
-0.0138745
-1.26341
1.26643
0.0164766
-0.019248
-1.05964
1.06241
0.0217054
-0.0244233
-0.891598
0.894316
0.0268837
-0.0295618
-0.753692
0.75637
0.0319359
-0.034461
-0.641251
0.643776
0.0366644
-0.0378086
-0.549427
0.550572
0.0368154
-0.0312564
-0.448654
0.443095
0.0214228
-0.0092823
-0.265919
0.253779
0.0023254
-0.0462653
0.0439399
-0.0423418
0.0408449
0.00149696
-0.0144278
0.0225312
-0.319376
0.311273
-0.0282946
0.0301805
-0.457562
0.455676
-0.0299359
0.0286499
-0.545885
0.547171
-0.0269516
0.0252217
-0.639226
0.640956
-0.0231561
0.0211312
-0.753173
0.755198
-0.0186851
0.0162704
-0.892467
0.894881
-0.0134682
0.0108166
-1.06161
1.06426
-0.00782532
0.00501529
-1.26686
1.26967
-0.00179745
-0.0013033
-1.51642
1.51952
0.00437327
-0.0075106
-1.51746
1.5206
0.0102083
-0.0130451
-1.26943
1.27226
0.0155357
-0.0181488
-1.06522
1.06783
0.0203989
-0.022675
-0.896886
0.899162
0.0245782
-0.0264912
-0.758715
0.760628
0.0280815
-0.0296466
-0.645841
0.647406
0.0308297
-0.0309583
-0.551024
0.551152
0.0289446
-0.0230095
-0.437183
0.431248
0.0147376
-0.00612456
-0.243501
0.234888
0.00154394
-0.042057
0.0405131
-0.0396511
0.0387742
0.00087697
-0.00856004
0.0144682
-0.304198
0.29829
-0.0197534
0.0221681
-0.453546
0.451131
-0.0225368
0.021872
-0.54817
0.548835
-0.0206689
0.0195274
-0.642279
0.643421
-0.0181977
0.0168532
-0.756839
0.758183
-0.0152459
0.0136064
-0.89692
0.89856
-0.0116071
0.00954341
-1.06668
1.06874
-0.00701909
0.00446241
-1.27241
1.27497
-0.00138006
-0.00173055
-1.52269
1.5258
0.00479235
-0.00774384
-1.52369
1.52664
0.0101407
-0.0124696
-1.2749
1.27723
0.0143469
-0.0161441
-1.07009
1.07189
0.017589
-0.0189635
-0.900979
0.902354
0.0201061
-0.0212477
-0.762047
0.763189
0.0222292
-0.0232576
-0.648633
0.649661
0.0237483
-0.0231818
-0.551008
0.550442
0.0205662
-0.0150453
-0.425456
0.419935
0.00893231
-0.00358231
-0.227913
0.222563
0.000936431
-0.0392659
0.0383295
-0.0382196
0.0379289
0.00029074
-0.0038023
0.00733704
-0.293616
0.290081
-0.0114247
0.0139963
-0.448522
0.44595
-0.0151158
0.0152441
-0.549077
0.548949
-0.0146814
0.0140088
-0.644389
0.645062
-0.0132537
0.0124455
-0.759296
0.760104
-0.0113831
0.0102248
-0.899912
0.901071
-0.00871009
0.00710636
-1.07051
1.07212
-0.00508457
0.00299831
-1.27727
1.27936
-0.000427637
-0.00215742
-1.52868
1.53127
0.00469257
-0.00711606
-1.52934
1.53177
0.00901521
-0.010782
-1.27923
1.281
0.0121196
-0.0133298
-1.07331
1.07452
0.0142088
-0.0149874
-0.903388
0.904166
0.0155159
-0.0160273
-0.764064
0.764575
0.0164864
-0.0168281
-0.6504
0.650741
0.0164958
-0.0151503
-0.549421
0.548075
0.0123516
-0.00800376
-0.414907
0.410559
0.00423985
-0.0015256
-0.218691
0.215977
0.000359987
-0.0377113
0.0373513
-0.0378116
0.0377873
2.43616e-05
-0.00158556
0.00365085
-0.287438
0.285373
-0.00650565
0.0086632
-0.443597
0.44144
-0.00997933
0.0105253
-0.548585
0.548039
-0.0106888
0.0106421
-0.645358
0.645405
-0.0103045
0.00983575
-0.760624
0.761092
-0.00913219
0.00827537
-0.902041
0.902898
-0.00705687
0.00567157
-1.07361
1.075
-0.00386121
0.00194885
-1.28133
1.28324
0.000387754
-0.00270838
-1.53367
1.53599
0.00497779
-0.00715003
-1.53402
1.5362
0.00883108
-0.0103333
-1.28263
1.28413
0.0114193
-0.0122912
-1.07554
1.07641
0.0128459
-0.0132427
-0.904652
0.905049
0.013419
-0.0133344
-0.764723
0.764638
0.0130582
-0.012601
-0.650657
0.6502
0.0117768
-0.0101511
-0.546569
0.544943
0.00769612
-0.00450662
-0.40689
0.4037
0.0021467
-0.000660378
-0.21404
0.212554
0.000114002
-0.0371548
0.0370408
-0.0377953
0.0378068
-1.1563e-05
-0.000992728
0.00257286
-0.283619
0.282039
-0.00510491
0.0073997
-0.439295
0.437
-0.00921109
0.0101726
-0.547288
0.546326
-0.0105571
0.0106318
-0.645369
0.645294
-0.0105086
0.0100571
-0.761614
0.762066
-0.00923937
0.00824383
-0.90378
0.904775
-0.00687447
0.00535886
-1.07636
1.07788
-0.00340229
0.0013694
-1.28515
1.28718
0.00107477
-0.00344049
-1.53826
1.54063
0.00572741
-0.00793695
-1.53832
1.54053
0.00966808
-0.0112358
-1.28558
1.28715
0.0123563
-0.0132645
-1.07725
1.07816
0.0137891
-0.0140558
-0.905468
0.905735
0.0140742
-0.0138948
-0.764486
0.764306
0.0135108
-0.012765
-0.649553
0.648807
0.0114612
-0.00925626
-0.543117
0.540912
0.0065824
-0.00362891
-0.400722
0.397768
0.0016822
-0.00052698
-0.21129
0.210135
9.66552e-05
-0.0369519
0.0368553
-0.0378162
0.0378297
-1.3523e-05
-0.000621764
0.00186546
-0.280603
0.27936
-0.00424313
0.0069206
-0.434474
0.431797
-0.00968216
0.0115526
-0.544952
0.543081
-0.0126976
0.0130472
-0.645082
0.644733
-0.0128842
0.0123271
-0.76259
0.763147
-0.0113522
0.0100661
-0.905919
0.907205
-0.00826183
0.00630264
-1.07962
1.08158
-0.0038487
0.00136666
-1.28944
1.29192
0.00159066
-0.00448138
-1.54324
1.54613
0.00727926
-0.00995589
-1.54296
1.54564
0.0120528
-0.0139753
-1.28891
1.29083
0.0154014
-0.0166065
-1.07925
1.08046
0.0173649
-0.0178471
-0.906134
0.906616
0.0178247
-0.017379
-0.763947
0.763501
0.0166061
-0.0148961
-0.647659
0.645949
0.0125259
-0.00922367
-0.538141
0.534838
0.00606012
-0.00316571
-0.394796
0.391901
0.00147618
-0.000513188
-0.209064
0.208101
0.000122481
-0.0367416
0.0366192
-0.0378583
0.0379073
-4.90175e-05
-8.36222e-05
0.000803422
-0.278369
0.27765
-0.00253261
0.00489679
-0.429169
0.426805
-0.00785868
0.0102796
-0.540832
0.538412
-0.0122589
0.0130452
-0.644283
0.643496
-0.0130802
0.0126967
-0.763571
0.763954
-0.0115931
0.010134
-0.908606
0.910065
-0.00812635
0.00597274
-1.08369
1.08584
-0.00329807
0.000602352
-1.29456
1.29726
0.00261471
-0.005764
-1.54922
1.55237
0.00878729
-0.0116231
-1.54846
1.5513
0.0137992
-0.0157974
-1.29285
1.29485
0.0172612
-0.0184386
-1.08169
1.08287
0.0190698
-0.0192315
-0.906976
0.907138
0.0191044
-0.0184699
-0.763027
0.762392
0.0169177
-0.0142644
-0.643693
0.64104
0.0112626
-0.00767908
-0.531243
0.527659
0.00475539
-0.00241741
-0.389231
0.386894
0.0011557
-0.000437541
-0.207264
0.206546
0.000118573
-0.0364975
0.0363789
-0.037982
0.0380835
-0.000101503
0.00039382
-0.000233266
-0.27721
0.27705
-0.000607115
0.00204602
-0.424868
0.423429
-0.00412939
0.00604915
-0.536113
0.534193
-0.00778779
0.00888189
-0.642332
0.641238
-0.00932685
0.00904832
-0.76439
0.764669
-0.00822787
0.00704648
-0.91146
0.912642
-0.00532388
0.00341311
-1.08793
1.08984
-0.00098415
-0.00149385
-1.29989
1.30237
0.00444725
-0.00730182
-1.55543
1.55829
0.00998883
-0.0124571
-1.55402
1.55648
0.0143037
-0.0158498
-1.29667
1.29822
0.0168704
-0.0176205
-1.0839
1.08465
0.0179496
-0.0178531
-0.907224
0.907128
0.01714
-0.0156095
-0.761245
0.759714
0.0136983
-0.0110904
-0.638262
0.635654
0.00842562
-0.00556692
-0.524351
0.521493
0.00343423
-0.0018246
-0.384928
0.383318
0.000945591
-0.000394955
-0.205925
0.205374
0.00011575
-0.0362625
0.0361467
-0.0382087
0.038356
-0.000147333
0.000817825
-0.00100338
-0.277076
0.277262
0.000902409
-0.00036078
-0.422472
0.42193
-0.000642569
0.00166516
-0.532726
0.531703
-0.00264724
0.00327945
-0.640363
0.63973
-0.00358251
0.00347878
-0.764804
0.764907
-0.00295834
0.00212433
-0.913622
0.914456
-0.000836732
-0.000647633
-1.09153
1.09301
0.0025772
-0.004564
-1.30462
1.3066
0.00691692
-0.00912452
-1.56084
1.56305
0.0111225
-0.0128224
-1.55859
1.56029
0.0139436
-0.0148004
-1.29945
1.30031
0.0152156
-0.0152528
-1.08501
1.08505
0.0149163
-0.0141863
-0.906658
0.905928
0.0131534
-0.0116656
-0.758195
0.756707
0.0100225
-0.00799418
-0.633338
0.631309
0.00607351
-0.00412842
-0.519122
0.517177
0.00271065
-0.00160425
-0.382002
0.380896
0.000923565
-0.000418418
-0.204863
0.204358
0.000127399
-0.0360286
0.0359012
-0.0385233
0.0387107
-0.000187491
0.00111675
-0.00160188
-0.277591
0.278076
0.00194628
-0.00202697
-0.421738
0.421819
0.00184649
-0.00156651
-0.531099
0.530819
0.00128955
-0.00116623
-0.639367
0.639243
0.0012272
-0.00149174
-0.765075
0.76534
0.00203408
-0.00276781
-0.915208
0.915941
0.00383315
-0.00502616
-1.09432
1.09551
0.00654451
-0.00807215
-1.30834
1.30987
0.00982704
-0.0113983
-1.56492
1.56649
0.0127047
-0.0136983
-1.56163
1.56262
0.014202
-0.0143143
-1.30076
1.30087
0.0141225
-0.013604
-1.08479
1.08427
0.0128881
-0.011863
-0.905025
0.904
0.010744
-0.00936065
-0.755272
0.753889
0.00799177
-0.00643726
-0.629549
0.627994
0.00505136
-0.00367595
-0.515571
0.514196
0.0026334
-0.00172599
-0.379922
0.379015
0.00107016
-0.000508737
-0.203835
0.203274
0.000158852
-0.0357615
0.0356027
-0.038923
0.0391597
-0.000236631
0.00144672
-0.00213886
-0.278649
0.279341
0.00282809
-0.0033098
-0.422074
0.422555
0.00366831
-0.00392724
-0.530871
0.53113
0.00420107
-0.00451152
-0.639393
0.639703
0.00496924
-0.00551844
-0.765757
0.766306
0.00627681
-0.00711712
-0.916696
0.917536
0.00819471
-0.00930374
-1.09661
1.09772
0.010621
-0.0118628
-1.31121
1.31245
0.0131854
-0.0142501
-1.56778
1.56885
0.0149839
-0.0153128
-1.56328
1.5636
0.0152339
-0.0148803
-1.30074
1.30038
0.0142893
-0.0133982
-1.08351
1.08262
0.0124185
-0.0112237
-0.90287
0.901675
0.0100584
-0.00873584
-0.752545
0.751223
0.00751582
-0.00620118
-0.626602
0.625288
0.00505893
-0.00390823
-0.512982
0.511831
0.00297178
-0.00205985
-0.378129
0.377217
0.00132269
-0.000642731
-0.202663
0.201983
0.000203641
-0.0354274
0.0352237
-0.0394294
0.0397276
-0.00029819
0.00184321
-0.00275506
-0.280134
0.281046
0.00371444
-0.00449837
-0.423174
0.423958
0.00523864
-0.00586516
-0.531626
0.532252
0.00656307
-0.00726602
-0.640309
0.641012
0.00813189
-0.00902791
-0.767043
0.767939
0.010123
-0.0112091
-0.918445
0.919532
0.0124665
-0.0136536
-1.0988
1.09999
0.0149595
-0.0160915
-1.31358
1.31471
0.0171689
-0.0178852
-1.56969
1.57041
0.0181925
-0.0180473
-1.56367
1.56353
0.0175586
-0.0167278
-1.29977
1.29894
0.0157639
-0.014556
-1.08155
1.08035
0.0133623
-0.0120038
-0.900383
0.899024
0.010748
-0.00938277
-0.749887
0.748522
0.00816381
-0.00687576
-0.624034
0.622746
0.0057562
-0.00459625
-0.510732
0.509572
0.0035963
-0.00255374
-0.376263
0.375221
0.00166453
-0.000817237
-0.201236
0.200388
0.000261555
-0.0350043
0.0347428
-0.0400726
0.0404512
-0.000378567
0.00234709
-0.0035179
-0.282094
0.283265
0.00476857
-0.00581698
-0.424908
0.425956
0.00685314
-0.00777558
-0.533153
0.534076
0.00884721
-0.00993543
-0.641991
0.643079
0.0112579
-0.0125735
-0.768989
0.770305
0.0140991
-0.0155329
-0.920675
0.922109
0.017099
-0.0184835
-1.10121
1.10259
0.0199109
-0.021063
-1.31578
1.31693
0.0220347
-0.0225202
-1.57096
1.57144
0.0224926
-0.0219341
-1.56315
1.56259
0.0210609
-0.0198201
-1.29788
1.29664
0.0185148
-0.0169753
-1.07894
1.0774
0.0155268
-0.0139373
-0.897511
0.895921
0.0125102
-0.0109905
-0.747066
0.745546
0.00964927
-0.0082337
-0.621449
0.620033
0.00698851
-0.00566444
-0.508418
0.507094
0.00448353
-0.00321148
-0.37411
0.372838
0.00210549
-0.00103893
-0.199463
0.198396
0.000335081
-0.0344724
0.0341374
-0.0408973
0.0413812
-0.000483923
0.0029986
-0.00449499
-0.284632
0.286129
0.00610037
-0.00745516
-0.427281
0.428636
0.00881871
-0.0100615
-0.535398
0.536641
0.0115307
-0.0130394
-0.644428
0.645937
0.0148559
-0.0166164
-0.771692
0.773453
0.0186107
-0.0204491
-0.92356
0.925398
0.022436
-0.0241597
-1.10401
1.10574
0.0258577
-0.0271335
-1.31804
1.31931
0.0280897
-0.0284083
-1.57178
1.5721
0.0280852
-0.0271268
-1.5618
1.56084
0.0258564
-0.0241753
-1.29516
1.29348
0.022485
-0.0205515
-1.07562
1.07369
0.0187757
-0.0168668
-0.894094
0.892185
0.0151817
-0.0134094
-0.74384
0.742068
0.0118528
-0.0102043
-0.618553
0.616904
0.008734
-0.00713567
-0.505778
0.504179
0.00567636
-0.00406076
-0.37151
0.369894
0.00265553
-0.00130967
-0.197253
0.195908
0.000423008
-0.0338078
0.0333848
-0.0419677
0.042599
-0.000631241
0.00387243
-0.00580132
-0.287914
0.289843
0.00787883
-0.00964222
-0.430377
0.43214
0.0114221
-0.0130498
-0.538409
0.540037
0.0149783
-0.0169534
-0.647715
0.64969
0.0193368
-0.0216405
-0.775249
0.777553
0.0242359
-0.0266026
-0.927232
0.929598
0.0291057
-0.0312191
-1.10743
1.10955
0.0332354
-0.0346794
-1.32054
1.32198
0.035659
-0.0358255
-1.57228
1.57244
0.0351963
-0.0337994
-1.55964
1.55824
0.0320785
-0.0298809
-1.29153
1.28933
0.0277203
-0.0252892
-1.07146
1.06903
0.0230849
-0.0207438
-0.889939
0.887598
0.0187006
-0.0165736
-0.739985
0.737858
0.0147161
-0.0127473
-0.61511
0.613141
0.0109714
-0.00900291
-0.502604
0.500636
0.00716518
-0.00512719
-0.368303
0.366265
0.00334268
-0.00163474
-0.194499
0.192791
0.000524967
-0.0329785
0.0324535
-0.0433626
0.0442175
-0.000854898
0.00513981
-0.00767767
-0.292149
0.294687
0.0103909
-0.0126703
-0.434396
0.436676
0.0149548
-0.0170574
-0.542345
0.544448
0.01957
-0.0221414
-0.652007
0.654578
0.0252199
-0.0281773
-0.779847
0.782804
0.0314732
-0.0344217
-0.931892
0.934841
0.0374935
-0.0400452
-1.11163
1.11418
0.0424304
-0.0440775
-1.32338
1.32502
0.0450924
-0.0450841
-1.57244
1.57243
0.0440952
-0.0421772
-1.55656
1.55464
0.0399158
-0.0370927
-1.28681
1.28398
0.0343525
-0.0312952
-1.06624
1.06318
0.0285401
-0.0256305
-0.884825
0.881915
0.0231068
-0.0204999
-0.735282
0.732675
0.0182375
-0.0158458
-0.610916
0.608524
0.0136732
-0.0112346
-0.498708
0.49627
0.00894913
-0.00641317
-0.364288
0.361752
0.00419013
-0.00204707
-0.19106
0.188917
0.000654792
-0.0319523
0.0312975
-0.045209
0.0464012
-0.00119229
0.00701583
-0.0104184
-0.297654
0.301056
0.013988
-0.0169386
-0.439614
0.442564
0.0198737
-0.0226001
-0.547468
0.550194
0.0258658
-0.0291887
-0.657546
0.660869
0.033124
-0.0368389
-0.785734
0.789448
0.0409146
-0.0445264
-0.937755
0.941366
0.048248
-0.0512975
-1.11672
1.11977
0.0540781
-0.0559094
-1.32658
1.32841
0.0568945
-0.0566199
-1.57218
1.57191
0.0551593
-0.0525912
-1.55236
1.54979
0.0496694
-0.0460872
-1.28077
1.27719
0.0426431
-0.0388208
-1.0597
1.05588
0.0353855
-0.0317629
-0.878497
0.874874
0.0286277
-0.025405
-0.729491
0.726269
0.0226246
-0.0197026
-0.605745
0.602823
0.0170483
-0.0140554
-0.493856
0.490864
0.0112042
-0.00801882
-0.359294
0.356109
0.00523049
-0.00255349
-0.186764
0.184087
0.000814746
-0.0306858
0.0298711
-0.0477104
0.0494077
-0.00169737
0.00979732
-0.0144071
-0.304889
0.309499
0.0190926
-0.0228978
-0.446411
0.450216
0.0266697
-0.0302265
-0.554124
0.557681
0.0345057
-0.038814
-0.664669
0.668977
0.043825
-0.0484755
-0.793216
0.797867
0.0535034
-0.0578896
-0.945013
0.949399
0.0623254
-0.0658627
-1.12279
1.12633
0.0689599
-0.070859
-1.33008
1.33198
0.0716496
-0.0709307
-1.57129
1.57057
0.0688171
-0.0654183
-1.54675
1.54335
0.0616838
-0.0571855
-1.27313
1.26863
0.0529021
-0.0481711
-1.05156
1.04682
0.043927
-0.0394508
-0.870662
0.866186
0.0355774
-0.0316011
-0.72234
0.718364
0.0281798
-0.0245999
-0.59935
0.59577
0.021349
-0.0176693
-0.487809
0.484129
0.0141265
-0.010092
-0.353058
0.349023
0.00656269
-0.00318911
-0.181434
0.178061
0.00101101
-0.0291269
0.0281159
-0.0511992
0.0537181
-0.00251884
0.0140781
-0.0203519
-0.314596
0.32087
0.0264535
-0.0313506
-0.455383
0.46028
0.0362266
-0.0409122
-0.562836
0.567521
0.0465577
-0.0521328
-0.673826
0.679401
0.0584759
-0.0642391
-0.802589
0.808352
0.0703384
-0.075527
-0.953795
0.958983
0.0806226
-0.0845348
-1.12977
1.13368
0.0877732
-0.0895429
-1.33362
1.33539
0.089889
-0.0884751
-1.56938
1.56797
0.085468
-0.081009
-1.53936
1.5349
0.0762797
-0.0706888
-1.26355
1.25795
0.065419
-0.0596289
-1.0415
1.03571
0.0544455
-0.0489773
-0.861017
0.855549
0.044242
-0.0393743
-0.713529
0.708661
0.0351874
-0.0308181
-0.59144
0.58707
0.0268429
-0.0223051
-0.480269
0.475731
0.0178852
-0.0128018
-0.345201
0.340118
0.00828727
-0.00398587
-0.174803
0.170501
0.00124812
-0.0272128
0.0259646
-0.0562467
0.0602633
-0.00401668
0.0213298
-0.0301104
-0.327892
0.336673
0.0382214
-0.044574
-0.467353
0.473706
0.0509611
-0.0571604
-0.574301
0.5805
0.0645409
-0.0716113
-0.685529
0.6926
0.0793893
-0.0862168
-0.81414
0.820968
0.0932092
-0.0989618
-0.964075
0.969828
0.104389
-0.108341
-1.13732
1.14128
0.111335
-0.112616
-1.3367
1.33798
0.112128
-0.109682
-1.56589
1.56345
0.105486
-0.0997121
-1.5297
1.52393
0.0938011
-0.0869459
-1.25168
1.24483
0.0805554
-0.0735735
-1.02924
1.02226
0.0673389
-0.0607595
-0.849284
0.842704
0.0550477
-0.0491575
-0.702767
0.696877
0.0440914
-0.0388155
-0.581683
0.576407
0.0339845
-0.0283789
-0.470842
0.465237
0.0228288
-0.01636
-0.335295
0.328826
0.0105654
-0.00504137
-0.166456
0.160932
0.00155373
-0.0248555
0.0233018
-0.0640145
0.0712467
-0.00723219
0.0349355
-0.047828
-0.347001
0.359893
0.0587817
-0.0667595
-0.483638
0.491616
0.0748402
-0.0828085
-0.589242
0.59721
0.092019
-0.100419
-0.700048
0.708448
0.109262
-0.116717
-0.827618
0.835074
0.124065
-0.129837
-0.97524
0.981012
0.134975
-0.138369
-1.14468
1.14807
0.140482
-0.140698
-1.3385
1.33872
0.138828
-0.134892
-1.56007
1.55614
0.129151
-0.121797
-1.51725
1.5099
0.114518
-0.106264
-1.2372
1.22895
0.0986606
-0.0904197
-1.01455
1.00631
0.083085
-0.0753516
-0.835271
0.827537
0.0686221
-0.061652
-0.689832
0.682862
0.0556378
-0.0493769
-0.569776
0.563515
0.0436197
-0.036793
-0.458983
0.452156
0.0297763
-0.0214475
-0.322578
0.31425
0.0138268
-0.0064787
-0.155847
0.148499
0.00189718
-0.0219535
0.0200563
-0.078262
0.0816021
-0.00334017
0.0242187
-0.0351657
-0.375728
0.386675
0.0451058
-0.053014
-0.504979
0.512887
0.0619292
-0.0715941
-0.607334
0.616999
0.0823727
-0.0920066
-0.716446
0.72608
0.102728
-0.112197
-0.841762
0.85123
0.122036
-0.130461
-0.985876
0.994302
0.138822
-0.145483
-1.15044
1.1571
0.151373
-0.155166
-1.3378
1.34159
0.157096
-0.156306
-1.55099
1.5502
0.152666
-0.146572
-1.50146
1.49537
0.139445
-0.130412
-1.21984
1.2108
0.121585
-0.111008
-0.997319
0.986743
0.101311
-0.0906443
-0.818952
0.808286
0.0811001
-0.0709767
-0.674722
0.664599
0.0618496
-0.0524519
-0.555549
0.546151
0.0440547
-0.0340676
-0.444284
0.434297
0.0246481
-0.0151035
-0.3059
0.296356
0.00787999
-0.00265314
-0.141842
0.136615
0.000315969
-0.0183693
0.0180533
-0.0891088
0.0857307
0.0033781
0.0016453
-0.00776402
-0.400494
0.406612
0.0154895
-0.0221488
-0.525492
0.532151
0.0306315
-0.0390559
-0.627082
0.635506
0.0487679
-0.0576369
-0.735628
0.744497
0.0671024
-0.0756771
-0.860235
0.868809
0.0846075
-0.0919841
-1.00245
1.00982
0.09954
-0.105273
-1.16366
1.16939
0.110326
-0.113323
-1.34523
1.34823
0.114253
-0.11274
-1.54871
1.5472
0.108526
-0.102019
-1.48855
1.48204
0.0944956
-0.0852609
-1.20135
1.19212
0.0763775
-0.0662436
-0.975948
0.965814
0.0567608
-0.0462652
-0.796897
0.786401
0.036881
-0.0272638
-0.652664
0.643047
0.0190285
-0.0105851
-0.53412
0.525676
0.00338856
0.00300173
-0.422376
0.415985
-0.00687372
0.00846276
-0.285439
0.28385
-0.00772312
0.00500625
-0.129888
0.132605
-0.00208213
-0.0164363
0.0185184
-0.088234
0.0847031
0.00353084
-0.00608689
0.00337033
-0.416426
0.419143
0.00130288
-0.00661331
-0.542499
0.547809
0.0136027
-0.0208555
-0.644284
0.651537
0.0291441
-0.0367323
-0.752836
0.760424
0.0450414
-0.0524399
-0.876735
0.884134
0.0599502
-0.0665393
-1.01706
1.02365
0.0731389
-0.078268
-1.17476
1.17989
0.082451
-0.0847938
-1.35071
1.35305
0.0854976
-0.0838187
-1.54524
1.54356
0.0796962
-0.0735875
-1.47525
1.46914
0.066727
-0.0586257
-1.18313
1.17503
0.0506009
-0.0417907
-0.955786
0.946976
0.0336508
-0.0247633
-0.776445
0.767558
0.0171057
-0.00927707
-0.632932
0.625104
0.0028271
0.00362866
-0.515527
0.509071
-0.00851734
0.0122093
-0.407149
0.403458
-0.0135489
0.0121148
-0.278288
0.279722
-0.00908188
0.00520189
-0.132369
0.136249
-0.00192866
-0.0187271
0.0206557
-0.0857983
0.0824381
0.0033602
-0.00879486
0.00803231
-0.426315
0.427077
-0.00517567
0.00089914
-0.555758
0.560035
0.00515485
-0.0112019
-0.658613
0.66466
0.0182588
-0.0247437
-0.767718
0.774203
0.0318095
-0.038127
-0.891117
0.897434
0.0449343
-0.0505597
-1.02987
1.0355
0.056412
-0.0605952
-1.18471
1.1889
0.0643529
-0.0664802
-1.35532
1.35745
0.0670481
-0.0653499
-1.54174
1.54004
0.0618606
-0.0567002
-1.46294
1.45778
0.050884
-0.0437665
-1.16723
1.16011
0.0371186
-0.0299464
-0.938503
0.931331
0.0232775
-0.0163804
-0.759354
0.752457
0.0101634
-0.00405569
-0.617034
0.610927
-0.000905864
0.0054187
-0.501442
0.49693
-0.00852569
0.0106487
-0.396903
0.39478
-0.0109908
0.00894649
-0.275962
0.278007
-0.00643941
0.00352191
-0.136551
0.139469
-0.00130887
-0.0208589
0.0221678
-0.0834226
0.0806586
0.00276396
-0.00901523
0.00942721
-0.432641
0.432229
-0.00721723
0.00385891
-0.56676
0.570118
0.00105379
-0.00647275
-0.670729
0.676148
0.0124142
-0.0181287
-0.780288
0.786003
0.0242702
-0.0298013
-0.903439
0.90897
0.0357165
-0.0407978
-1.04108
1.04617
0.0458613
-0.0498558
-1.19306
1.19706
0.0532658
-0.0552501
-1.35938
1.36136
0.0558789
-0.0544889
-1.53841
1.53702
0.0515458
-0.0469827
-1.45232
1.44775
0.0420329
-0.036154
-1.15339
1.14751
0.0306153
-0.0245613
-0.924371
0.918317
0.0191779
-0.0135528
-0.745811
0.740186
0.00872264
-0.00393298
-0.604833
0.600044
0.000188814
0.00310666
-0.491184
0.487889
-0.00543402
0.00682131
-0.390058
0.388671
-0.00677155
0.00542533
-0.274752
0.276098
-0.00392193
0.00210422
-0.138749
0.140567
-0.000865804
-0.0218979
0.0227637
-0.0815392
0.0792589
0.0022803
-0.00826301
0.00884466
-0.436753
0.436171
-0.00763824
0.00474673
-0.57539
0.578282
-0.000100826
-0.00451854
-0.681096
0.685715
0.00965096
-0.0146449
-0.791182
0.796176
0.020143
-0.0251404
-0.914269
0.919267
0.0306331
-0.0351953
-1.05107
1.05563
0.0399124
-0.0436561
-1.20091
1.20465
0.0468504
-0.0487638
-1.36325
1.36516
0.0494502
-0.0486556
-1.5357
1.5349
0.0461261
-0.042352
-1.44302
1.43925
0.0380704
-0.032987
-1.14176
1.13667
0.0284324
-0.0231425
-0.912479
0.907189
0.0185208
-0.0138625
-0.7348
0.730142
0.00980934
-0.00578519
-0.595321
0.591297
0.0025922
0.000384453
-0.483414
0.480437
-0.00218678
0.00341426
-0.384771
0.383544
-0.00384875
0.00323728
-0.27289
0.273501
-0.00242007
0.00140518
-0.138954
0.139969
-0.000630943
-0.0221534
0.0227844
-0.08021
0.0784593
0.00175066
-0.00693789
0.00768467
-0.439735
0.438988
-0.00661912
0.00428567
-0.583041
0.585374
-6.01769e-05
-0.00411374
-0.690158
0.694332
0.00901913
-0.0133806
-0.800988
0.80535
0.0182774
-0.0227776
-0.924336
0.928836
0.0280659
-0.0323125
-1.0603
1.06455
0.0366436
-0.0403323
-1.20833
1.21202
0.0438481
-0.0457938
-1.36724
1.36918
0.0467724
-0.0461858
-1.53389
1.5333
0.0443244
-0.0408049
-1.43539
1.43187
0.0371514
-0.0327351
-1.13157
1.12715
0.0285355
-0.0239447
-0.902073
0.897482
0.0197404
-0.0153599
-0.725353
0.720973
0.0119073
-0.00816694
-0.587087
0.583347
0.00512487
-0.00250126
-0.47656
0.473936
0.000618843
0.000871995
-0.380061
0.37857
-0.00152994
0.00156034
-0.270422
0.270391
-0.00134708
0.000911698
-0.137901
0.138336
-0.000484596
-0.0219874
0.022472
-0.0794967
0.0781359
0.00136085
-0.00555402
0.00635412
-0.442083
0.441283
-0.00526022
0.00294461
-0.589705
0.592021
0.000920918
-0.00466745
-0.698367
0.702113
0.00891683
-0.0131471
-0.80982
0.81405
0.0177158
-0.0223822
-0.933232
0.937899
0.0270211
-0.0311526
-1.06895
1.07308
0.0356847
-0.0392526
-1.21567
1.21924
0.042455
-0.0449361
-1.37117
1.37365
0.0462419
-0.0460761
-1.5329
1.53273
0.044484
-0.0415814
-1.42856
1.42566
0.0382704
-0.0341615
-1.12245
1.11834
0.0302833
-0.0259337
-0.892767
0.888418
0.0219672
-0.017955
-0.716622
0.71261
0.0143691
-0.0108277
-0.579377
0.575835
0.00795161
-0.0051254
-0.470394
0.467568
0.00303471
-0.00154702
-0.375131
0.373643
0.000513759
0.000129817
-0.267184
0.26654
-0.00048013
0.000516706
-0.136037
0.136
-0.000374415
-0.0215696
0.021944
-0.0793775
0.0782333
0.00114426
-0.00406898
0.00457411
-0.444285
0.44378
-0.00360813
0.00127771
-0.595799
0.59813
0.00220841
-0.00581078
-0.706021
0.709624
0.00989559
-0.0137605
-0.818219
0.822083
0.0184646
-0.0223942
-0.942083
0.946013
0.0270383
-0.0310395
-1.07742
1.08142
0.0355168
-0.0393331
-1.22284
1.22666
0.0428952
-0.0452856
-1.37598
1.37837
0.0470585
-0.0473693
-1.53262
1.53293
0.0464256
-0.0437732
-1.42267
1.42001
0.0407652
-0.0368679
-1.11425
1.11036
0.0331693
-0.0288763
-0.883781
0.879488
0.0250737
-0.0209788
-0.70828
0.704185
0.0174074
-0.0137654
-0.571977
0.568335
0.010689
-0.00791687
-0.464037
0.461265
0.0055673
-0.00373423
-0.369986
0.368153
0.00228332
-0.00120244
-0.263248
0.262167
0.000397823
0.000187216
-0.133465
0.13288
-0.000276418
-0.0209182
0.0211946
-0.0795472
0.0787174
0.000829745
-0.00284252
0.0028212
-0.446708
0.446729
-0.0019739
-0.000366662
-0.601172
0.603512
0.00348559
-0.00695324
-0.71316
0.716628
0.0108741
-0.0148684
-0.82593
0.829924
0.0189955
-0.0230946
-0.95021
0.954309
0.0277187
-0.0315385
-1.08587
1.08969
0.0361508
-0.0399765
-1.23033
1.23416
0.0436672
-0.0466438
-1.38121
1.38419
0.0489737
-0.0496356
-1.53336
1.53402
0.0489439
-0.0469178
-1.41755
1.41552
0.044297
-0.0405368
-1.10625
1.10249
0.0368474
-0.0327751
-0.874985
0.870913
0.0286265
-0.0246073
-0.699718
0.695699
0.0209519
-0.0171034
-0.564544
0.560695
0.0140006
-0.010873
-0.457471
0.454344
0.00833887
-0.00595379
-0.364613
0.362228
0.00421824
-0.00264929
-0.258703
0.257134
0.00126055
-0.000204214
-0.130252
0.129196
-0.000186126
-0.0200433
0.0202294
-0.0800922
0.0794125
0.000679735
-0.00183769
0.00177592
-0.449378
0.449439
-0.000332393
-0.00171508
-0.606636
0.608684
0.00492398
-0.00824052
-0.719803
0.723119
0.0120018
-0.0156104
-0.833691
0.8373
0.0198608
-0.0236697
-0.958467
0.962276
0.0282596
-0.0325196
-1.094
1.09826
0.0368136
-0.0409889
-1.23808
1.24225
0.0451469
-0.0482762
-1.38713
1.39026
0.0510367
-0.0525065
-1.53497
1.53644
0.0522911
-0.0508495
-1.41337
1.41193
0.0483285
-0.0448284
-1.09868
1.09518
0.0413304
-0.0371535
-0.86628
0.862103
0.0330852
-0.0288421
-0.691048
0.686805
0.0250055
-0.0208739
-0.556521
0.552389
0.0174299
-0.014083
-0.450539
0.447192
0.0110969
-0.00835303
-0.358527
0.355783
0.00616666
-0.00406787
-0.253361
0.251263
0.00225969
-0.000705506
-0.126378
0.124824
-2.97618e-05
-0.0189987
0.0190285
-0.0808875
0.0803649
0.000522635
-0.000766848
0.000445041
-0.452227
0.452548
0.000863906
-0.00307267
-0.611673
0.613882
0.00615781
-0.00928688
-0.726176
0.729305
0.0131073
-0.016567
-0.840956
0.844416
0.0206676
-0.0245952
-0.96659
0.970518
0.0291005
-0.0333353
-1.10242
1.10666
0.0378602
-0.0420889
-1.2464
1.25063
0.0464667
-0.0503747
-1.39372
1.39763
0.0536459
-0.0554909
-1.53794
1.53979
0.0560039
-0.0548799
-1.41039
1.40927
0.0528492
-0.0497361
-1.09155
1.08843
0.0461386
-0.0419645
-0.857438
0.853264
0.0378343
-0.0332807
-0.682065
0.677511
0.0292742
-0.0247893
-0.548203
0.543718
0.0211051
-0.017291
-0.443114
0.4393
0.014107
-0.0109946
-0.351747
0.348635
0.00823592
-0.00558011