/*--------------------------------*- C++ -*----------------------------------*\
  =========                 |
  \\      /  F ield         | OpenFOAM: The Open Source CFD Toolbox
   \\    /   O peration     | Website:  https://openfoam.org
    \\  /    A nd           | Version:  6
     \\/     M anipulation  |
\*---------------------------------------------------------------------------*/
FoamFile
{
    version     2.0;
    format      ascii;
    class       volVectorField;
    location    "3";
    object      U;
}
// * * * * * * * * * * * * * * * * * * * * * * * * * * * * * * * * * * * * * //

dimensions      [0 1 -1 0 0 0 0];

internalField   nonuniform List<vector> 
8800
(
(0.986148 -0.0778692 0)
(1.00642 -0.0579674 0)
(1.00095 -0.0296827 0)
(0.999979 -0.0148515 0)
(1.00075 -0.00711781 0)
(1.00102 -0.00353417 0)
(1.00051 -0.00234438 0)
(1.00019 -0.00153533 0)
(0.999988 -0.000810891 0)
(0.999901 -0.000146015 0)
(0.999926 0.000491919 0)
(1.00007 0.00120882 0)
(1.00033 0.00196884 0)
(1.00073 0.00289994 0)
(1.00116 0.00471121 0)
(1.00033 0.0103369 0)
(1.00016 0.0211304 0)
(1.00243 0.0408444 0)
(1.01063 0.0752741 0)
(0.769197 0.037092 0)
(0.388174 -0.0117553 0)
(1.04282 -0.0633593 0)
(1.0759 -0.0542287 0)
(1.03771 -0.0466609 0)
(1.0151 -0.0356864 0)
(1.00334 -0.0257666 0)
(0.997916 -0.0178311 0)
(0.995973 -0.011713 0)
(0.99546 -0.00686754 0)
(0.995433 -0.00274763 0)
(0.995413 0.00119219 0)
(0.995323 0.00517024 0)
(0.995521 0.00951724 0)
(0.996597 0.0148838 0)
(0.999929 0.0217836 0)
(1.00834 0.0306467 0)
(1.02415 0.0414222 0)
(1.05683 0.0509893 0)
(1.08167 0.0571628 0)
(0.849801 0.0424372 0)
(0.288881 -0.00126048 0)
(1.07238 -0.0215562 0)
(1.07343 -0.0263098 0)
(1.05237 -0.0272919 0)
(1.03751 -0.025984 0)
(1.0273 -0.0226344 0)
(1.02043 -0.017803 0)
(1.01613 -0.0123359 0)
(1.01366 -0.00674512 0)
(1.01259 -0.000899765 0)
(1.01291 0.00495583 0)
(1.01457 0.0105205 0)
(1.01783 0.0159135 0)
(1.02327 0.0209982 0)
(1.03167 0.0250427 0)
(1.04392 0.0272845 0)
(1.06209 0.0274965 0)
(1.08143 0.02454 0)
(0.995249 0.0184025 0)
(0.288693 0.00127433 0)
(0.278643 0.000620381 0)
(1.03036 -0.00603354 0)
(1.04771 -0.0139601 0)
(1.03907 -0.019257 0)
(1.02992 -0.0204385 0)
(1.02285 -0.0185703 0)
(1.01721 -0.0152463 0)
(1.01262 -0.0110215 0)
(1.0095 -0.00616684 0)
(1.00801 -0.000600684 0)
(1.00839 0.00506611 0)
(1.01056 0.0100877 0)
(1.01439 0.0143685 0)
(1.01944 0.0179507 0)
(1.0257 0.0204324 0)
(1.03376 0.0210295 0)
(1.0429 0.0173762 0)
(1.04783 0.0105553 0)
(0.948556 0.00237227 0)
(0.278286 -0.000611125 0)
(0.280607 -8.63792e-05 0)
(1.0184 -0.0024262 0)
(1.03915 -0.00575171 0)
(1.03695 -0.00884782 0)
(1.03321 -0.0110462 0)
(1.02861 -0.0118987 0)
(1.02397 -0.01112 0)
(1.01993 -0.00871677 0)
(1.017 -0.00501848 0)
(1.01543 -0.000325198 0)
(1.01576 0.00461615 0)
(1.01783 0.00861584 0)
(1.02116 0.0114786 0)
(1.02549 0.0128033 0)
(1.0301 0.0125114 0)
(1.03433 0.0106785 0)
(1.03748 0.00780532 0)
(1.03604 0.00432771 0)
(0.939434 0.00119375 0)
(0.280111 9.39403e-05 0)
(0.279304 -7.74415e-06 0)
(1.01117 -0.00119334 0)
(1.03158 -0.0028189 0)
(1.0307 -0.0045111 0)
(1.02886 -0.00590346 0)
(1.02645 -0.00665906 0)
(1.02368 -0.0064943 0)
(1.02092 -0.00525324 0)
(1.01859 -0.00293653 0)
(1.01732 0.000314016 0)
(1.01748 0.00356674 0)
(1.01895 0.00617009 0)
(1.02128 0.00765394 0)
(1.02391 0.00803893 0)
(1.02642 0.00741803 0)
(1.0285 0.00602477 0)
(1.02997 0.00419825 0)
(1.02775 0.00227257 0)
(0.933193 0.00068284 0)
(0.278579 2.15505e-05 0)
(0.278917 -1.04215e-05 0)
(1.00828 -0.000587735 0)
(1.02866 -0.0013443 0)
(1.02844 -0.00216698 0)
(1.02753 -0.00291495 0)
(1.02618 -0.00341099 0)
(1.02448 -0.00343691 0)
(1.02259 -0.0027923 0)
(1.02084 -0.00137503 0)
(1.01969 0.000759351 0)
(1.01967 0.00299218 0)
(1.02066 0.00451487 0)
(1.02215 0.0051784 0)
(1.02372 0.00508821 0)
(1.02509 0.0044367 0)
(1.02611 0.00345828 0)
(1.02674 0.00236543 0)
(1.02411 0.00130803 0)
(0.930256 0.000439539 0)
(0.277943 2.77523e-05 0)
(0.278702 6.33845e-07 0)
(1.00683 -0.000249969 0)
(1.02715 -0.000598366 0)
(1.02716 -0.00098353 0)
(1.02663 -0.00133792 0)
(1.02582 -0.0015672 0)
(1.02473 -0.00153822 0)
(1.02343 -0.00110586 0)
(1.02211 -0.000169099 0)
(1.0211 0.00124976 0)
(1.02088 0.0026836 0)
(1.02139 0.00355059 0)
(1.02222 0.003785 0)
(1.02307 0.00353282 0)
(1.02379 0.00296974 0)
(1.02431 0.00226228 0)
(1.02461 0.00153334 0)
(1.02184 0.000858344 0)
(0.928351 0.000300379 0)
(0.277418 2.12006e-05 0)
(0.278689 5.23902e-06 0)
(1.00625 -3.89202e-05 0)
(1.02653 -0.000151075 0)
(1.02665 -0.000272615 0)
(1.02631 -0.000366925 0)
(1.02577 -0.000383342 0)
(1.02501 -0.000246657 0)
(1.02405 0.000131802 0)
(1.02299 0.000816483 0)
(1.02206 0.0017771 0)
(1.02162 0.0026603 0)
(1.02172 0.00309902 0)
(1.02207 0.00307312 0)
(1.02246 0.00274359 0)
(1.0228 0.00224241 0)
(1.02304 0.00168294 0)
(1.02316 0.00113824 0)
(1.02032 0.000647292 0)
(0.927024 0.000238454 0)
(0.277012 1.9999e-05 0)
(0.278807 1.49271e-05 0)
(1.0062 9.55584e-05 0)
(1.02645 0.000144998 0)
(1.02662 0.00020928 0)
(1.02637 0.000306323 0)
(1.02596 0.000463958 0)
(1.02537 0.000721956 0)
(1.02458 0.00112457 0)
(1.02364 0.00169421 0)
(1.02268 0.00237645 0)
(1.02203 0.0028967 0)
(1.02176 0.00305895 0)
(1.02175 0.00284015 0)
(1.02183 0.00243731 0)
(1.02193 0.0019481 0)
(1.022 0.00144729 0)
(1.02202 0.000979948 0)
(1.01913 0.000566789 0)
(0.925945 0.000218956 0)
(0.27664 2.09908e-05 0)
(0.279047 1.99697e-05 0)
(1.00654 0.000227763 0)
(1.02678 0.000398935 0)
(1.02696 0.000602118 0)
(1.02674 0.000852145 0)
(1.02638 0.00116269 0)
(1.02585 0.00154968 0)
(1.02511 0.00202367 0)
(1.02417 0.00256783 0)
(1.0231 0.00309578 0)
(1.02218 0.00337155 0)
(1.02163 0.00326656 0)
(1.02131 0.00294047 0)
(1.02115 0.00246007 0)
(1.02107 0.00193591 0)
(1.02103 0.00142878 0)
(1.02098 0.000969291 0)
(1.01806 0.000568398 0)
(0.924931 0.000227673 0)
(0.276257 2.39093e-05 0)
(0.279406 2.74405e-05 0)
(1.00722 0.000344759 0)
(1.02743 0.000630987 0)
(1.02762 0.000967147 0)
(1.02739 0.0013642 0)
(1.02703 0.00182864 0)
(1.02649 0.00236048 0)
(1.0257 0.00294412 0)
(1.02466 0.00352754 0)
(1.02338 0.0039872 0)
(1.02217 0.00410123 0)
(1.0213 0.00383662 0)
(1.02073 0.00333664 0)
(1.02037 0.0027407 0)
(1.02014 0.00213523 0)
(1.02001 0.00156955 0)
(1.0199 0.00106664 0)
(1.01695 0.000631754 0)
(0.923857 0.000259267 0)
(0.275822 2.87912e-05 0)
(0.279895 3.60299e-05 0)
(1.00823 0.000474205 0)
(1.02842 0.000880416 0)
(1.02858 0.00135569 0)
(1.02834 0.00191046 0)
(1.02793 0.00254546 0)
(1.02731 0.00324856 0)
(1.02641 0.00398134 0)
(1.02517 0.00465727 0)
(1.0236 0.00510874 0)
(1.02202 0.00510186 0)
(1.02081 0.00466566 0)
(1.01997 0.00399635 0)
(1.01942 0.00324968 0)
(1.01906 0.00251726 0)
(1.01884 0.00184619 0)
(1.01868 0.00125573 0)
(1.0157 0.000747744 0)
(0.922619 0.000310812 0)
(0.275303 3.54996e-05 0)
(0.280541 4.69412e-05 0)
(1.00962 0.00062844 0)
(1.02976 0.00117242 0)
(1.0299 0.00180837 0)
(1.02961 0.00254661 0)
(1.02912 0.003384 0)
(1.02837 0.00429673 0)
(1.02728 0.00522444 0)
(1.02575 0.0060428 0)
(1.02378 0.0065317 0)
(1.02174 0.00642442 0)
(1.02014 0.00580493 0)
(1.019 0.00493169 0)
(1.01824 0.00398879 0)
(1.01774 0.00308024 0)
(1.01743 0.00225633 0)
(1.01722 0.00153554 0)
(1.01421 0.000917176 0)
(0.921124 0.000383886 0)
(0.274663 4.44981e-05 0)
(0.281383 6.08439e-05 0)
(1.01144 0.000819568 0)
(1.03155 0.00153167 0)
(1.03164 0.00236325 0)
(1.03127 0.00332616 0)
(1.03067 0.00441304 0)
(1.02974 0.00558842 0)
(1.02836 0.00676681 0)
(1.02645 0.00778039 0)
(1.02394 0.00834425 0)
(1.02133 0.00814018 0)
(1.01925 0.00730744 0)
(1.01776 0.00618 0)
(1.01676 0.00498373 0)
(1.0161 0.00384194 0)
(1.01569 0.00281216 0)
(1.01542 0.00191386 0)
(1.01236 0.00114467 0)
(0.919271 0.000480556 0)
(0.273863 5.6005e-05 0)
(0.282475 7.88755e-05 0)
(1.01382 0.00106247 0)
(1.03387 0.00198566 0)
(1.0339 0.00306327 0)
(1.03343 0.00430854 0)
(1.03266 0.00570998 0)
(1.03148 0.00721758 0)
(1.02973 0.00871614 0)
(1.0273 0.00998472 0)
(1.0241 0.0106567 0)
(1.02076 0.0103444 0)
(1.01809 0.00924967 0)
(1.01618 0.00780137 0)
(1.01488 0.00628005 0)
(1.01403 0.00483612 0)
(1.0135 0.00353792 0)
(1.01317 0.00240769 0)
(1.01006 0.0014406 0)
(0.916947 0.000605327 0)
(0.272856 7.0605e-05 0)
(0.283893 0.000102568 0)
(1.01689 0.00137581 0)
(1.03687 0.0025692 0)
(1.03683 0.00396099 0)
(1.03622 0.00556675 0)
(1.03523 0.00736906 0)
(1.0337 0.00929975 0)
(1.03147 0.0112054 0)
(1.02835 0.0127981 0)
(1.02427 0.013609 0)
(1.02001 0.0131616 0)
(1.0166 0.0117355 0)
(1.01417 0.009879 0)
(1.01251 0.00794252 0)
(1.01142 0.00611146 0)
(1.01074 0.00446876 0)
(1.01032 0.0030405 0)
(1.00715 0.00181901 0)
(0.914015 0.000764218 0)
(0.271586 8.90654e-05 0)
(0.285739 0.000133941 0)
(1.02087 0.00178486 0)
(1.04075 0.00332779 0)
(1.0406 0.00512519 0)
(1.0398 0.00719538 0)
(1.03852 0.00951208 0)
(1.03655 0.0119825 0)
(1.03366 0.0144032 0)
(1.02965 0.0164005 0)
(1.02444 0.0173774 0)
(1.01901 0.0167496 0)
(1.01468 0.014898 0)
(1.01159 0.0125209 0)
(1.00949 0.0100564 0)
(1.00811 0.0077331 0)
(1.00725 0.00565222 0)
(1.00672 0.00384446 0)
(1.00347 0.00229915 0)
(0.91031 0.000965187 0)
(0.269986 0.000112259 0)
(0.288153 0.000176261 0)
(1.02603 0.00232464 0)
(1.04577 0.00432444 0)
(1.04547 0.0066501 0)
(1.04443 0.00932242 0)
(1.04274 0.0123019 0)
(1.04017 0.015461 0)
(1.03642 0.0185293 0)
(1.03126 0.0210223 0)
(1.02459 0.022184 0)
(1.01769 0.0213055 0)
(1.01221 0.0189038 0)
(1.00831 0.015864 0)
(1.00565 0.0127301 0)
(1.00392 0.00978375 0)
(1.00283 0.00714822 0)
(1.00217 0.00486024 0)
(0.998824 0.00290505 0)
(0.905626 0.00121806 0)
(0.267968 0.000141197 0)
(0.291335 0.000234282 0)
(1.03272 0.00304717 0)
(1.05228 0.00565061 0)
(1.05178 0.00866972 0)
(1.05039 0.0121285 0)
(1.04816 0.0159647 0)
(1.04478 0.0200008 0)
(1.0399 0.0238749 0)
(1.03323 0.0269601 0)
(1.0247 0.0283069 0)
(1.01596 0.0270728 0)
(1.00905 0.0239584 0)
(1.00413 0.0200781 0)
(1.00079 0.0161003 0)
(0.998608 0.0123692 0)
(0.997242 0.00903491 0)
(0.996411 0.00614136 0)
(0.992943 0.00366892 0)
(0.899707 0.00153615 0)
(0.26543 0.000177478 0)
(0.295576 0.000316095 0)
(1.04148 0.00403236 0)
(1.06078 0.00744472 0)
(1.05998 0.0113849 0)
(1.0581 0.0158774 0)
(1.05512 0.0208235 0)
(1.05063 0.02597 0)
(1.04422 0.0308293 0)
(1.03559 0.0345937 0)
(1.02469 0.0360883 0)
(1.01366 0.0343438 0)
(1.00499 0.0303098 0)
(0.998836 0.0253716 0)
(0.994642 0.0203379 0)
(0.991895 0.0156244 0)
(0.990174 0.0114131 0)
(0.989131 0.00775731 0)
(0.985508 0.00463241 0)
(0.892231 0.00193672 0)
(0.262238 0.000223011 0)
(0.301325 0.000435806 0)
(1.05301 0.00541508 0)
(1.07192 0.00993505 0)
(1.07068 0.0151134 0)
(1.0681 0.0209747 0)
(1.06402 0.0273575 0)
(1.05798 0.0338927 0)
(1.04951 0.0399181 0)
(1.03832 0.0444058 0)
(1.02446 0.0459389 0)
(1.01063 0.0434605 0)
(0.99982 0.0382516 0)
(0.99214 0.0320003 0)
(0.986885 0.0256616 0)
(0.983427 0.0197281 0)
(0.981252 0.0144209 0)
(0.979936 0.00980703 0)
(0.976113 0.00585681 0)
(0.882787 0.0024459 0)
(0.258222 0.000281098 0)
(0.309326 0.000622474 0)
(1.06829 0.00746609 0)
(1.08663 0.0135457 0)
(1.08472 0.0204042 0)
(1.08104 0.0280783 0)
(1.07533 0.0363048 0)
(1.06707 0.0445268 0)
(1.05579 0.0518466 0)
(1.04129 0.0569937 0)
(1.02378 0.0583311 0)
(1.00659 0.0548045 0)
(0.99324 0.04812 0)
(0.983718 0.0402769 0)
(0.977146 0.0323593 0)
(0.972776 0.0249343 0)
(0.970005 0.0182688 0)
(0.968327 0.0124519 0)
(0.964243 0.00744995 0)
(0.870843 0.00311192 0)
(0.253144 0.000358007 0)
(0.321015 0.000951049 0)
(1.08883 0.0108521 0)
(1.10631 0.019159 0)
(1.10326 0.0282532 0)
(1.09774 0.0382929 0)
(1.08945 0.0488183 0)
(1.07792 0.0589547 0)
(1.06283 0.0675245 0)
(1.04414 0.0730527 0)
(1.02225 0.0737692 0)
(1.00118 0.0687702 0)
(0.984905 0.0602809 0)
(0.973207 0.0505787 0)
(0.965003 0.0408245 0)
(0.959439 0.0316365 0)
(0.955847 0.0233273 0)
(0.953667 0.01602 0)
(0.949235 0.00966836 0)
(0.855685 0.00407379 0)
(0.246627 0.000470986 0)
(0.339371 0.0016563 0)
(1.11746 0.0171896 0)
(1.1336 0.0284806 0)
(1.12812 0.0404143 0)
(1.11915 0.0534599 0)
(1.10662 0.0666394 0)
(1.09031 0.0786185 0)
(1.07013 0.0880196 0)
(1.04628 0.0933034 0)
(1.01935 0.0927279 0)
(0.993994 0.0857223 0)
(0.974481 0.0751022 0)
(0.960297 0.0633481 0)
(0.9501 0.051604 0)
(0.942938 0.0404882 0)
(0.938121 0.0303238 0)
(0.935095 0.0212753 0)
(0.930102 0.013223 0)
(0.836322 0.00580971 0)
(0.238015 0.000683345 0)
(0.368292 0.00354967 0)
(1.15956 0.0307011 0)
(1.17234 0.0450385 0)
(1.16124 0.0605647 0)
(1.14596 0.0770129 0)
(1.12686 0.0924661 0)
(1.10394 0.105381 0)
(1.07733 0.114506 0)
(1.04743 0.118441 0)
(1.01491 0.11561 0)
(0.984999 0.105973 0)
(0.962055 0.0929488 0)
(0.945124 0.0790972 0)
(0.932538 0.0654357 0)
(0.923217 0.0525168 0)
(0.916414 0.0406082 0)
(0.911626 0.0299068 0)
(0.905184 0.0198936 0)
(0.811095 0.00932615 0)
(0.22698 0.00115022 0)
(0.412177 0.0137116 1.0125e-20)
(1.21773 0.0606942 8.9077e-21)
(1.22033 0.0779395 -3.13232e-21)
(1.19994 0.0965933 0)
(1.17597 0.114433 -7.74393e-35)
(1.14857 0.129742 1.12231e-21)
(1.11776 0.141446 -1.96879e-21)
(1.08383 0.148565 0)
(1.0472 0.149863 3.92135e-35)
(1.00855 0.14392 -2.31205e-21)
(0.973585 0.13125 0)
(0.946711 0.115815 -2.68657e-21)
(0.926437 0.100119 -7.88821e-21)
(0.910734 0.0850147 -3.71978e-21)
(0.898266 0.070974 -1.11518e-21)
(0.888144 0.0583226 -6.63804e-22)
(0.879711 0.0472334 0)
(0.869882 0.0378162 4.71991e-22)
(0.776911 0.0251831 5.62051e-22)
(0.215258 0.00704647 1.02833e-20)
(0.430317 0.0384238 7.35422e-21)
(1.27166 0.116213 1.00196e-22)
(1.26496 0.132918 8.54797e-22)
(1.23517 0.148686 0)
(1.20229 0.163998 -3.9966e-21)
(1.16672 0.176944 -4.48326e-21)
(1.12841 0.186351 -2.00282e-21)
(1.08739 0.191033 -6.95655e-21)
(1.04395 0.189676 0)
(0.998527 0.180855 9.79907e-21)
(0.957402 0.165681 9.5992e-21)
(0.925407 0.148589 2.8202e-21)
(0.90072 0.132015 1.01923e-20)
(0.880957 0.116699 1.42907e-20)
(0.864593 0.102997 0)
(0.850598 0.0912825 2.02976e-20)
(0.83827 0.081723 2.9426e-20)
(0.825036 0.0753953 3.29354e-20)
(0.737832 0.0604499 -3.82336e-20)
(0.209577 0.0190795 -6.99415e-22)
(0.420926 0.0638397 0)
(1.30698 0.189848 1.48263e-21)
(1.29713 0.201471 0)
(1.26089 0.212146 -5.58634e-21)
(1.22155 0.22258 0)
(1.17946 0.231231 -8.99239e-21)
(1.13468 0.236712 4.13571e-21)
(1.08736 0.23766 -1.41699e-20)
(1.03783 0.23271 -2.37424e-22)
(0.986555 0.220466 5.07698e-21)
(0.94042 0.202595 2.0814e-20)
(0.904561 0.183996 1.61826e-24)
(0.876829 0.167024 -7.32878e-21)
(0.854636 0.152149 -1.32207e-20)
(0.836408 0.139524 1.57485e-20)
(0.821146 0.129227 -2.79316e-20)
(0.808121 0.121346 -3.72289e-21)
(0.794662 0.116369 0)
(0.714077 0.0999406 1.81521e-22)
(0.208248 0.0305121 0)
(0.414593 0.0868162 2.0153e-20)
(1.32498 0.264191 -1.04266e-20)
(1.31463 0.273805 -7.85711e-21)
(1.27578 0.279603 2.75768e-21)
(1.23275 0.285169 -4.62852e-21)
(1.18628 0.289062 1.90907e-20)
(1.13664 0.290084 8.70621e-21)
(1.0842 0.286792 0)
(1.0295 0.277762 -2.59306e-20)
(0.973206 0.261616 0)
(0.922942 0.240714 -1.08523e-20)
(0.884226 0.220385 -1.31524e-20)
(0.854632 0.202701 -7.83399e-21)
(0.83128 0.187761 -9.46114e-21)
(0.812447 0.175432 0)
(0.796976 0.165581 0)
(0.784035 0.158047 -2.3962e-20)
(0.770857 0.153115 4.74013e-21)
(0.693427 0.134014 -2.84282e-21)
(0.204585 0.0408629 -3.34748e-21)
(0.412221 0.108547 -1.03282e-20)
(1.33385 0.336235 0)
(1.32313 0.344356 1.82743e-20)
(1.28242 0.346406 8.35791e-21)
(1.23692 0.347942 1.06598e-20)
(1.18731 0.347719 0)
(1.13393 0.344511 8.79361e-21)
(1.07732 0.336956 1.5839e-20)
(1.01829 0.323598 1.34197e-20)
(0.957864 0.303175 2.33646e-20)
(0.904438 0.278799 0)
(0.863815 0.256312 -2.78153e-20)
(0.83318 0.237452 -1.64919e-20)
(0.809339 0.221979 -9.62769e-21)
(0.790357 0.209451 5.89768e-20)
(0.774971 0.199486 7.02043e-21)
(0.762235 0.191933 3.35691e-20)
(0.749381 0.186651 -1.61095e-19)
(0.674878 0.164902 9.6517e-20)
(0.201199 0.0503949 -1.1802e-19)
(0.410382 0.129098 -7.64681e-21)
(1.33744 0.404838 2.38076e-21)
(1.32579 0.4124 -2.46769e-21)
(1.28369 0.411602 -9.92185e-21)
(1.23626 0.409814 -9.94472e-21)
(1.18411 0.405963 3.37971e-22)
(1.1276 0.398872 -9.56072e-21)
(1.06745 0.387198 1.66549e-20)
(1.00468 0.369414 -2.88317e-20)
(0.940749 0.344387 0)
(0.884877 0.316071 -1.27068e-20)
(0.843049 0.290966 -9.6941e-23)
(0.811974 0.270536 -1.76242e-20)
(0.788089 0.254139 0)
(0.769279 0.241076 -1.24904e-20)
(0.754182 0.230722 -2.95747e-20)
(0.741792 0.222837 7.99937e-20)
(0.729332 0.217009 -7.97898e-20)
(0.657375 0.19277 1.14255e-19)
(0.197876 0.0591648 -1.2052e-19)
(0.40911 0.148833 -2.91487e-22)
(1.33746 0.470349 -2.04256e-21)
(1.32448 0.477659 -9.07997e-21)
(1.28113 0.474629 4.69675e-21)
(1.23202 0.470119 -5.31236e-21)
(1.17765 0.463149 0)
(1.11841 0.45256 -9.41194e-21)
(1.05503 0.436916 -1.76964e-20)
(0.988867 0.41469 -1.51655e-20)
(0.921847 0.384748 0)
(0.86409 0.352012 -1.30172e-20)
(0.821657 0.323827 -1.54845e-20)
(0.790659 0.301477 1.85796e-20)
(0.767106 0.28389 -1.12599e-20)
(0.748735 0.270039 -5.22097e-20)
(0.734094 0.259208 3.12342e-20)
(0.722121 0.250838 9.46386e-21)
(0.710121 0.244432 0)
(0.640591 0.217841 -1.06365e-19)
(0.194817 0.0672998 -3.91347e-21)
(0.408452 0.168014 -7.16698e-22)
(1.33496 0.533073 1.88871e-21)
(1.32049 0.540251 4.92049e-21)
(1.27593 0.535406 1.67887e-20)
(1.22522 0.528622 -2.1461e-20)
(1.16879 0.518963 2.14057e-20)
(1.10693 0.505246 2.0668e-20)
(1.04051 0.485849 -2.85741e-20)
(0.971121 0.459156 8.86404e-21)
(0.901221 0.423963 -5.64419e-20)
(0.841976 0.386241 -1.42091e-20)
(0.799497 0.354539 0)
(0.769041 0.329959 1.94876e-20)
(0.746219 0.31101 2.28328e-20)
(0.728526 0.296337 2.7322e-20)
(0.714476 0.284873 -3.25579e-20)
(0.703052 0.276059 -9.60281e-21)
(0.691539 0.269086 1.16367e-20)
(0.624391 0.240357 0)
(0.192249 0.0749783 -8.21761e-21)
(0.408243 0.18659 5.00097e-21)
(1.33093 0.593091 -6.23438e-21)
(1.31473 0.600236 -5.52459e-21)
(1.26895 0.593909 1.1645e-20)
(1.21667 0.585257 -1.08264e-20)
(1.15818 0.573308 -5.57546e-22)
(1.0938 0.556743 -2.28445e-20)
(1.02434 0.53384 -1.03781e-20)
(0.951667 0.502673 -2.64795e-20)
(0.878897 0.461862 5.64341e-23)
(0.818425 0.418552 -4.41765e-20)
(0.776404 0.382783 3.48962e-20)
(0.747069 0.355702 -2.03365e-20)
(0.72542 0.335294 2.39651e-20)
(0.708686 0.319783 0)
(0.695405 0.307822 -1.66701e-20)
(0.684548 0.298652 -4.09561e-22)
(0.673594 0.291152 -4.75855e-20)
(0.60897 0.260727 -7.21273e-21)
(0.190225 0.0823157 0)
(0.408486 0.204664 0)
(1.32581 0.650539 -7.65574e-21)
(1.30784 0.657737 -1.03235e-20)
(1.26079 0.650207 -1.20866e-20)
(1.20694 0.640011 -1.28748e-20)
(1.1464 0.626079 0)
(1.07942 0.607004 -1.12378e-20)
(1.0069 0.580864 3.64739e-23)
(0.930744 0.545292 5.71742e-20)
(0.85487 0.498517 -7.91749e-21)
(0.793308 0.448824 -3.14196e-20)
(0.752281 0.408324 1.82444e-20)
(0.724731 0.378482 1.15083e-22)
(0.704771 0.356596 2.46302e-20)
(0.689392 0.340384 1.49144e-20)
(0.677059 0.328038 -3.51397e-20)
(0.666927 0.318632 4.14523e-20)
(0.656524 0.310852 1.22066e-20)
(0.594445 0.279014 5.16539e-20)
(0.188901 0.0894207 -1.40434e-19)
(0.409302 0.222557 2.64964e-22)
(1.32014 0.705615 -2.93595e-21)
(1.30032 0.712871 3.83354e-21)
(1.25196 0.704378 1.23126e-20)
(1.1965 0.692892 0)
(1.13387 0.677307 -1.2194e-20)
(1.06427 0.656052 3.81433e-20)
(0.988495 0.626933 2.4046e-20)
(0.908614 0.587096 0)
(0.829232 0.533992 -1.12064e-19)
(0.7664 0.477026 8.28731e-20)
(0.726906 0.430933 0)
(0.702024 0.397901 2.18048e-20)
(0.684524 0.374636 2.4196e-22)
(0.670933 0.357929 -4.48283e-20)
(0.659822 0.345581 1.78765e-20)
(0.650438 0.33621 0)
(0.640648 0.328365 6.29092e-20)
(0.581224 0.295735 0)
(0.188623 0.0965914 -6.30279e-20)
(0.410577 0.240258 -9.0496e-23)
(1.31424 0.758396 -1.87419e-21)
(1.29254 0.765713 4.59469e-21)
(1.2428 0.756454 0)
(1.18564 0.74392 -1.40199e-20)
(1.12094 0.726949 0)
(1.04869 0.703835 -3.96738e-20)
(0.969535 0.672087 -1.20688e-20)
(0.885572 0.628248 1.08058e-20)
(0.801972 0.568637 -5.56133e-20)
(0.737431 0.503245 8.80841e-21)
(0.700054 0.45021 0)
(0.679013 0.413472 -4.43238e-20)
(0.664978 0.389 -2.79228e-22)
(0.653812 0.372352 0)
(0.644156 0.360452 2.07401e-22)
(0.635655 0.351545 5.35419e-20)
(0.626433 0.344007 -5.15806e-20)
(0.569799 0.311205 1.53623e-20)
(0.189382 0.104052 0)
(0.411929 0.257291 0)
(1.30831 0.809031 -1.32315e-21)
(1.28471 0.816411 -3.65782e-21)
(1.23361 0.806472 -5.07709e-22)
(1.17475 0.793071 -6.44878e-21)
(1.10794 0.774981 -2.9808e-20)
(1.03301 0.75034 1.50066e-20)
(0.950292 0.716376 -1.393e-20)
(0.861808 0.668934 4.78583e-20)
(0.773195 0.602731 -9.02863e-20)
(0.70613 0.527614 2.9954e-22)
(0.671264 0.465948 -2.05339e-20)
(0.655604 0.424684 6.79029e-20)
(0.646511 0.399241 4.78561e-22)
(0.638634 0.383346 -3.02105e-20)
(0.630811 0.372677 -5.50806e-20)
(0.623197 0.364871 0)
(0.614452 0.358168 0)
(0.560799 0.326 1.5844e-20)
(0.191478 0.112023 -9.14076e-21)
(0.414072 0.274318 9.16332e-22)
(1.30236 0.857647 2.92676e-21)
(1.27693 0.865066 4.26911e-21)
(1.22451 0.854535 0)
(1.16403 0.840369 -1.27561e-22)
(1.09515 0.821376 -3.06859e-20)
(1.01753 0.795522 3.88745e-20)
(0.931179 0.759819 5.81734e-20)
(0.83776 0.70929 6.45192e-20)
(0.743021 0.636667 -7.61604e-20)
(0.671985 0.550546 -6.98597e-20)
(0.639888 0.477822 5.37753e-20)
(0.631637 0.430585 0)
(0.629755 0.404572 -1.24659e-20)
(0.626386 0.390695 -3.06939e-20)
(0.62067 0.382367 -3.64048e-20)
(0.613859 0.376509 -4.38616e-20)
(0.605381 0.371287 1.29061e-20)
(0.554805 0.34066 -7.97158e-21)
(0.195066 0.120773 -2.61796e-22)
(0.41602 0.290998 0)
(1.29648 0.904273 0)
(1.26929 0.911672 2.80902e-22)
(1.21561 0.900651 0)
(1.15361 0.885876 2.17981e-20)
(1.0828 0.866114 2.38193e-20)
(1.00257 0.839342 0)
(0.912486 0.802406 7.53806e-21)
(0.813744 0.74949 1.12314e-19)
(0.711631 0.671009 -1.76832e-19)
(0.634675 0.572652 0)
(0.604894 0.485456 -3.30328e-20)
(0.60684 0.429864 4.49092e-22)
(0.615556 0.403887 1.17198e-22)
(0.618443 0.394055 2.89591e-20)
(0.614784 0.38978 -4.9144e-22)
(0.608236 0.387188 -8.77535e-20)
(0.599512 0.384189 2.66344e-20)
(0.55231 0.356014 7.83968e-21)
(0.2 0.130378 0)
(0.417838 0.307301 -7.44668e-21)
(1.29072 0.948995 1.3656e-22)
(1.26181 0.95622 7.03915e-21)
(1.20692 0.944755 -2.44672e-20)
(1.14353 0.929527 3.79084e-20)
(1.07093 0.909223 0)
(0.988272 0.881903 2.69119e-20)
(0.89461 0.844063 -1.69057e-20)
(0.790177 0.789543 3.93803e-22)
(0.679424 0.706123 1.28035e-20)
(0.593832 0.594825 9.27344e-20)
(0.564807 0.488784 -1.18774e-20)
(0.58035 0.42055 -3.50299e-20)
(0.605331 0.395387 -1.01564e-20)
(0.617093 0.393097 1.42516e-20)
(0.615369 0.396413 -7.23408e-22)
(0.607987 0.398543 2.19682e-20)
(0.598276 0.398096 -5.36294e-20)
(0.552752 0.372737 6.43915e-20)
(0.205273 0.140483 9.78914e-21)
(0.419237 0.323073 3.28738e-21)
(1.28513 0.991802 -3.67791e-25)
(1.25464 0.998786 1.14979e-21)
(1.19855 0.986875 -1.18337e-20)
(1.13381 0.971207 -7.18985e-21)
(1.05958 0.950586 -4.60515e-20)
(0.974815 0.922982 8.85639e-21)
(0.877773 0.884868 -7.29728e-20)
(0.767624 0.829471 -1.32935e-19)
(0.64697 0.742441 -1.11747e-19)
(0.549228 0.618234 0)
(0.517624 0.488108 -4.68761e-20)
(0.550626 0.399858 4.35451e-20)
(0.60142 0.37599 0)
(0.626807 0.389229 -2.6723e-20)
(0.625685 0.405389 1.60954e-20)
(0.61334 0.414582 -2.11744e-20)
(0.597664 0.416374 -2.76564e-20)
(0.552494 0.39283 -5.0425e-20)
(0.207894 0.149714 -4.04119e-20)
(0.420987 0.338627 -4.0376e-21)
(1.27957 1.03267 -1.16404e-23)
(1.24771 1.03933 -3.02696e-21)
(1.19059 1.027 -1.45948e-20)
(1.12465 1.01095 1.65709e-20)
(1.04891 0.990038 -2.9101e-20)
(0.96219 0.96241 2.95288e-20)
(0.862099 0.92463 -7.85024e-20)
(0.746496 0.869382 -8.19526e-20)
(0.615094 0.780318 1.23887e-19)
(0.501077 0.644342 2.12949e-19)
(0.460873 0.484594 0)
(0.514384 0.363712 0)
(0.607062 0.339349 -9.18014e-21)
(0.656926 0.380746 0)
(0.652943 0.421467 3.20254e-20)
(0.622443 0.44435 4.28347e-20)
(0.595569 0.443357 0)
(0.549413 0.41484 0)
(0.202741 0.155988 4.41028e-20)
(0.422189 0.35329 5.37374e-21)
(1.27411 1.07164 2.72174e-21)
(1.24098 1.07789 -2.05594e-21)
(1.18296 1.06515 1.12433e-20)
(1.11605 1.04876 1.70006e-20)
(1.03903 1.02769 3.5068e-20)
(0.950456 1.00021 -4.25942e-20)
(0.847598 0.963064 -1.06303e-21)
(0.726956 0.909121 -6.35481e-22)
(0.584709 0.819994 1.65891e-21)
(0.450233 0.674763 1.12568e-19)
(0.391833 0.48075 0)
(0.46511 0.306853 2.74515e-20)
(0.626141 0.273331 9.08283e-21)
(0.722674 0.368453 1.84389e-20)
(0.712483 0.449201 1.11556e-20)
(0.651064 0.48779 -2.3941e-20)
(0.600697 0.487892 -1.66943e-20)
(0.536277 0.441721 0)
(0.180135 0.150296 5.07035e-20)
(0.423833 0.368047 -1.34556e-20)
(1.26872 1.1088 0)
(1.23445 1.11445 -8.34449e-22)
(1.17565 1.10125 8.57427e-21)
(1.10793 1.08455 -1.6934e-20)
(1.02991 1.06342 -4.61474e-20)
(0.939935 1.03629 9.0052e-20)
(0.834424 1.00014 -5.36159e-21)
(0.709113 0.948158 0)
(0.556333 0.861705 -1.4895e-19)
(0.398498 0.711049 -2.61774e-19)
(0.308529 0.481209 7.75912e-21)
(0.391773 0.223017 1.41271e-20)
(0.662391 0.151731 0)
(0.844858 0.350839 -1.43252e-20)
(0.791971 0.542361 0)
(0.643232 0.598943 0)
(0.542368 0.566603 -2.05543e-20)
(0.466316 0.456106 0)
(0.137201 0.118573 1.49232e-20)
(0.424837 0.381827 -1.60034e-20)
(1.26328 1.14425 0)
(1.22805 1.14913 2.58103e-22)
(1.1687 1.13549 0)
(1.10032 1.11856 8.26297e-21)
(1.02137 1.09749 0)
(0.930396 1.07094 5.3124e-21)
(0.822906 1.03612 1.2014e-20)
(0.693093 0.987007 1.11539e-20)
(0.5302 0.905502 -1.70706e-19)
(0.347225 0.755656 8.81817e-21)
(0.209047 0.492883 5.5524e-20)
(0.274302 0.103134 1.73231e-21)
(0.690833 -0.100602 -7.82907e-21)
(1.05302 0.220554 -4.96886e-20)
(0.972942 0.579452 0)
(0.701824 0.717563 5.46565e-20)
(0.479423 0.683471 -4.1917e-20)
(0.232138 0.47212 5.7018e-20)
(-0.0381329 0.733349 -7.29762e-20)
(0.425974 0.395542 1.41698e-20)
(1.25768 1.17827 1.38135e-20)
(1.22161 1.18218 0)
(1.162 1.16828 7.39901e-22)
(1.09309 1.15142 -2.01168e-20)
(1.01337 1.13066 7.9335e-20)
(0.921531 1.10495 3.53182e-20)
(0.81242 1.0722 0)
(0.678884 1.02711 7.85676e-20)
(0.505698 0.953307 -9.58497e-21)
(0.295335 0.813717 0)
(0.0896758 0.529463 0)
(0.0555972 -0.0427825 -1.73334e-20)
(0.514147 -0.21736 7.13187e-20)
(1.17852 0.43338 1.27101e-19)
(1.12291 0.912176 0)
(0.722804 1.17941 2.65464e-20)
(0.265135 1.10067 -4.74402e-20)
(0.167564 2.25649 -2.88174e-20)
(0.150677 2.95903 -3.04512e-20)
(0.427021 0.40854 -1.16534e-20)
(1.25157 1.21081 -1.91244e-20)
(1.21522 1.21335 8.04698e-22)
(1.15565 1.19941 -4.09538e-21)
(1.0862 1.18278 0)
(1.00591 1.16253 5.41032e-20)
(0.913642 1.13798 5.35261e-20)
(0.803114 1.10754 -6.38384e-21)
(0.667078 1.06759 1.19844e-20)
(0.485142 1.00451 1.74109e-19)
(0.247292 0.884781 1.56083e-19)
(-0.0404063 0.616812 7.88916e-20)
(-0.325672 0.075312 -3.7615e-20)
(-0.0877732 0.308109 3.03455e-19)
(0.973288 1.36359 2.95064e-19)
(1.04602 1.77698 0)
(0.523441 1.80842 0)
(0.331508 2.79373 5.66239e-21)
(0.26375 3.21063 0)
(0.205046 3.27268 2.40921e-20)
(0.430428 0.422014 0)
(1.24404 1.24144 0)
(1.20896 1.24233 0)
(1.14941 1.2287 -4.91211e-22)
(1.07949 1.21243 -1.77561e-20)
(0.998706 1.19284 3.81382e-20)
(0.906616 1.1698 3.6695e-20)
(0.795209 1.14214 -6.53609e-21)
(0.657237 1.1077 1.06868e-19)
(0.469868 1.05845 1.00738e-21)
(0.20934 0.970007 3.34038e-19)
(-0.155466 0.776521 -7.17599e-21)
(-0.675464 0.464754 9.76648e-22)
(-0.78297 1.20441 -5.33126e-20)
(0.379718 2.22908 1.20369e-21)
(0.552526 2.65073 -7.48148e-21)
(0.325173 3.19289 1.16657e-19)
(0.299955 3.41468 2.42436e-20)
(0.225622 3.39531 -1.68731e-21)
(0.17919 3.36911 4.14729e-21)
(0.298374 0.337009 8.08727e-21)
(1.23552 1.26962 0)
(1.20342 1.26945 -4.81963e-21)
(1.14357 1.25653 7.30309e-21)
(1.0734 1.24085 -2.95703e-20)
(0.992478 1.22204 -3.90948e-20)
(0.900734 1.19949 -4.1072e-20)
(0.789482 1.17469 8.28409e-20)
(0.651269 1.14605 -9.18092e-20)
(0.462306 1.11092 0)
(0.196123 1.06365 1.77498e-19)
(-0.188104 0.99369 -8.12838e-20)
(-0.716793 0.94701 0)
(-1.26697 1.89996 -2.69514e-20)
(-0.286981 3.02781 -8.32141e-20)
(0.00362221 3.47403 5.87852e-20)
(0.0970732 3.577 -5.19034e-20)
(0.165484 3.5122 -2.47835e-20)
(0.149228 3.45388 -1.78277e-20)
(0.140005 3.42077 -2.81813e-20)
(0.504438 0.511911 -1.0825e-20)
(1.21979 1.28949 0)
(1.19436 1.31001 7.63827e-21)
(1.13304 1.29815 -3.31788e-21)
(1.06219 1.2834 2.5815e-20)
(0.980556 1.26589 3.56701e-20)
(0.88705 1.24628 5.23185e-20)
(0.775176 1.22554 6.52221e-21)
(0.635894 1.20583 9.53531e-20)
(0.444043 1.19304 1.75201e-19)
(0.171463 1.20494 1.09822e-20)
(-0.22656 1.28176 8.75605e-20)
(-0.777719 1.61724 9.24214e-21)
(-0.96708 2.55912 5.05816e-21)
(-0.474246 3.23582 3.75111e-20)
(-0.179 3.44634 -4.16183e-20)
(-0.0132769 3.4623 4.75894e-20)
(0.0608645 3.44295 2.50849e-20)
(0.0847988 3.43778 2.81419e-20)
(0.0884939 3.43975 3.34489e-21)
(0.50373 0.515575 0)
(1.21925 1.31758 4.6759e-21)
(1.18874 1.33797 -2.22787e-21)
(1.12709 1.32696 -2.93424e-22)
(1.05587 1.31259 1.46186e-20)
(0.974258 1.29591 -3.33233e-20)
(0.88094 1.27737 -3.26313e-20)
(0.769434 1.25878 6.21069e-21)
(0.632073 1.24539 -1.03528e-19)
(0.445949 1.24796 -1.1194e-21)
(0.187277 1.29539 -3.56349e-19)
(-0.159392 1.44584 1.18833e-20)
(-0.570016 1.83715 -1.15059e-20)
(-0.688354 2.56962 1.59068e-21)
(-0.339349 3.08709 -9.72427e-21)
(-0.102325 3.25462 -3.26175e-21)
(0.0249455 3.34708 -8.88498e-20)
(0.0823664 3.39104 -5.52197e-20)
(0.0972295 3.42346 3.73323e-20)
(0.0844092 3.43917 3.03384e-20)
(0.484343 0.509887 1.54253e-20)
(1.21832 1.35058 3.29886e-20)
(1.18356 1.36908 -6.32433e-21)
(1.12102 1.35794 -8.27324e-22)
(1.04958 1.34382 0)
(0.968104 1.3275 -4.00732e-20)
(0.874822 1.3094 -4.48493e-20)
(0.765045 1.29362 5.8639e-21)
(0.631152 1.28606 -1.15342e-20)
(0.453263 1.30303 -1.74453e-19)
(0.220733 1.37769 -1.73037e-19)
(-0.0597805 1.56873 -1.12261e-19)
(-0.333801 1.95239 -9.28045e-20)
(-0.369622 2.50425 3.84788e-20)
(-0.148319 2.91453 -2.55962e-20)
(0.0179633 3.12711 0)
(0.112584 3.26324 0)
(0.159028 3.36625 3.40233e-20)
(0.147724 3.42479 0)
(0.0967847 3.45077 6.60837e-20)
(0.464622 0.506599 -2.5842e-20)
(1.21532 1.38643 -3.09476e-20)
(1.17749 1.40265 0)
(1.11384 1.39052 1.22293e-21)
(1.04225 1.37622 8.60419e-21)
(0.961147 1.35963 -5.32581e-20)
(0.868544 1.34211 -2.75415e-20)
(0.761308 1.32919 4.76428e-21)
(0.631888 1.32672 -8.26346e-20)
(0.463183 1.35051 9.41883e-21)
(0.254488 1.44364 0)
(0.03963 1.65422 0)
(-0.121002 2.01068 -9.25223e-20)
(-0.113539 2.44581 2.03095e-20)
(0.0487937 2.80428 -4.40268e-21)
(0.17655 3.04335 0)
(0.248205 3.20545 5.55231e-20)