/*--------------------------------*- C++ -*----------------------------------*\
  =========                 |
  \\      /  F ield         | OpenFOAM: The Open Source CFD Toolbox
   \\    /   O peration     | Website:  https://openfoam.org
    \\  /    A nd           | Version:  6
     \\/     M anipulation  |
\*---------------------------------------------------------------------------*/
FoamFile
{
    version     2.0;
    format      ascii;
    class       volVectorField;
    location    "14.5";
    object      U;
}
// * * * * * * * * * * * * * * * * * * * * * * * * * * * * * * * * * * * * * //

dimensions      [0 1 -1 0 0 0 0];

internalField   nonuniform List<vector> 
8800
(
(0.987165 -0.0766598 0)
(1.00186 -0.0551874 0)
(0.999819 -0.0285545 0)
(1.00011 -0.0151189 0)
(1.00003 -0.00849464 0)
(1.00007 -0.00498899 0)
(1.00008 -0.00293839 0)
(1.00005 -0.00168294 0)
(1 -0.000823888 0)
(1.00004 -0.000142618 0)
(0.99999 0.000550187 0)
(1.00003 0.00131816 0)
(1.00008 0.00232863 0)
(1.00008 0.00390068 0)
(1.00004 0.00654407 0)
(1.00007 0.0113035 0)
(1.00007 0.0207806 0)
(0.999161 0.0386504 0)
(1.00703 0.0724421 0)
(0.771207 0.0366544 0)
(0.363269 -0.015999 0)
(1.04346 -0.0767007 0)
(1.08457 -0.0702611 0)
(1.045 -0.053271 0)
(1.02325 -0.0386488 0)
(1.01207 -0.0260105 0)
(1.00631 -0.0166243 0)
(1.00333 -0.010135 0)
(1.00188 -0.00559993 0)
(1.00123 -0.00213433 0)
(1.00116 0.000988073 0)
(1.00147 0.00416827 0)
(1.00244 0.00805784 0)
(1.00452 0.0133622 0)
(1.00871 0.0211782 0)
(1.01673 0.0321732 0)
(1.03242 0.0460708 0)
(1.06261 0.0612757 0)
(1.09198 0.0758273 0)
(0.839093 0.0564595 0)
(0.2173 -0.00238953 0)
(1.0763 -0.0497909 0)
(1.1003 -0.0478976 0)
(1.06485 -0.0399763 0)
(1.03956 -0.0329576 0)
(1.02307 -0.0254556 0)
(1.0133 -0.0182699 0)
(1.00794 -0.0117629 0)
(1.00532 -0.00603286 0)
(1.00433 -0.000780888 0)
(1.0046 0.00426585 0)
(1.00625 0.00961049 0)
(1.01002 0.0156037 0)
(1.01728 0.0223152 0)
(1.03006 0.0296288 0)
(1.05072 0.0368829 0)
(1.08102 0.0437715 0)
(1.10692 0.0506744 0)
(0.943601 0.0412309 0)
(0.216981 0.00240316 0)
(0.176213 -0.000753152 0)
(1.01889 -0.0348686 0)
(1.10521 -0.040517 0)
(1.07821 -0.0353534 0)
(1.05335 -0.0295463 0)
(1.03582 -0.0239878 0)
(1.02359 -0.0182557 0)
(1.01564 -0.0123524 0)
(1.01088 -0.00661363 0)
(1.00886 -0.000804575 0)
(1.00943 0.00493512 0)
(1.01267 0.0105539 0)
(1.01885 0.0162162 0)
(1.02871 0.0219569 0)
(1.04339 0.0273935 0)
(1.06415 0.032942 0)
(1.09387 0.0388231 0)
(1.09448 0.0407689 0)
(0.830342 0.022331 0)
(0.175683 0.000769392 0)
(0.155897 -0.00053234 0)
(0.959616 -0.0241227 0)
(1.10427 -0.0330725 0)
(1.08741 -0.0302416 0)
(1.06128 -0.0257488 0)
(1.04369 -0.0211208 0)
(1.0312 -0.0165376 0)
(1.02231 -0.0117899 0)
(1.01654 -0.00658801 0)
(1.01387 -0.000637711 0)
(1.0146 0.00548453 0)
(1.01865 0.0108122 0)
(1.02579 0.0155411 0)
(1.03631 0.019977 0)
(1.05099 0.0243922 0)
(1.07223 0.0287067 0)
(1.10115 0.0329351 0)
(1.07128 0.0317303 0)
(0.746566 0.0132434 0)
(0.155111 0.000549793 0)
(0.14283 -0.000356894 0)
(0.906786 -0.0170691 0)
(1.09735 -0.027042 0)
(1.09543 -0.0261756 0)
(1.06818 -0.0228655 0)
(1.04916 -0.0192734 0)
(1.03618 -0.0150634 0)
(1.02725 -0.0104102 0)
(1.02145 -0.00545004 0)
(1.01863 -0.000162372 0)
(1.01933 0.0050475 0)
(1.02338 0.0100021 0)
(1.03046 0.0145464 0)
(1.04104 0.0186743 0)
(1.05668 0.0222898 0)
(1.07962 0.0255121 0)
(1.10394 0.0280177 0)
(1.04236 0.0246725 0)
(0.686178 0.00868203 0)
(0.141734 0.000377577 0)
(0.134164 -0.000238386 0)
(0.864392 -0.0112522 0)
(1.08658 -0.0204524 0)
(1.09962 -0.0206944 0)
(1.07335 -0.0185197 0)
(1.05381 -0.0160696 0)
(1.04003 -0.0130695 0)
(1.0305 -0.00938481 0)
(1.02442 -0.00494591 0)
(1.02154 0.000185823 0)
(1.02214 0.00537574 0)
(1.02617 0.00985868 0)
(1.03359 0.0135881 0)
(1.04493 0.0165625 0)
(1.06115 0.0189554 0)
(1.08439 0.0208972 0)
(1.10325 0.0221709 0)
(1.01358 0.0179699 0)
(0.643813 0.00540906 0)
(0.13269 0.000263846 0)
(0.12929 -9.11449e-05 0)
(0.834463 -0.00584769 0)
(1.07415 -0.0134513 0)
(1.10132 -0.015047 0)
(1.07718 -0.0139019 0)
(1.05834 -0.0121973 0)
(1.04541 -0.0100484 0)
(1.03624 -0.00724347 0)
(1.03007 -0.00370013 0)
(1.02697 0.000768435 0)
(1.02751 0.00537274 0)
(1.03156 0.00902829 0)
(1.03871 0.0117335 0)
(1.04921 0.0136693 0)
(1.06452 0.0150477 0)
(1.08733 0.0161413 0)
(1.09981 0.0160829 0)
(0.987976 0.011009 0)
(0.617868 0.00265564 0)
(0.127357 0.000120454 0)
(0.127725 1.32525e-05 0)
(0.816769 -0.00246331 0)
(1.06173 -0.00762108 0)
(1.10014 -0.00969015 0)
(1.07884 -0.00945588 0)
(1.05959 -0.00878923 0)
(1.04671 -0.00758617 0)
(1.03795 -0.00549001 0)
(1.03223 -0.0024702 0)
(1.0294 0.00137857 0)
(1.02959 0.00529389 0)
(1.03305 0.00832967 0)
(1.0396 0.0102852 0)
(1.04974 0.0112441 0)
(1.06534 0.0116274 0)
(1.08772 0.0116483 0)
(1.09355 0.0106402 0)
(0.968241 0.006053 0)
(0.604484 0.00113332 0)
(0.125235 2.38301e-05 0)
(0.127664 3.21954e-05 0)
(0.806414 -0.00136726 0)
(1.05191 -0.00527096 0)
(1.09812 -0.00751784 0)
(1.07923 -0.0080455 0)
(1.06111 -0.00734563 0)
(1.04908 -0.00620125 0)
(1.04095 -0.00430333 0)
(1.03549 -0.00149999 0)
(1.03261 0.00209077 0)
(1.0326 0.00562492 0)
(1.0356 0.0083554 0)
(1.04146 0.0100088 0)
(1.05078 0.0108398 0)
(1.06507 0.0110763 0)
(1.08622 0.0102894 0)
(1.08696 0.00860933 0)
(0.953914 0.00436887 0)
(0.596781 0.000762041 0)
(0.12447 1.19863e-05 0)
(0.127794 2.43016e-05 0)
(0.79834 -0.000991912 0)
(1.04185 -0.00479757 0)
(1.09474 -0.00817064 0)
(1.07914 -0.00896598 0)
(1.06243 -0.00886725 0)
(1.05112 -0.00733612 0)
(1.0436 -0.00485795 0)
(1.03858 -0.00139488 0)
(1.03564 0.00280252 0)
(1.03536 0.00687374 0)
(1.03781 0.0100598 0)
(1.04285 0.0121547 0)
(1.05125 0.0132402 0)
(1.06444 0.0129507 0)
(1.08375 0.0120652 0)
(1.07857 0.00914859 0)
(0.940604 0.00403679 0)
(0.590427 0.000748139 0)
(0.123738 3.18076e-05 0)
(0.127972 2.25483e-05 0)
(0.79193 -0.000441697 0)
(1.03003 -0.00376533 0)
(1.08807 -0.00841538 0)
(1.07818 -0.0107185 0)
(1.06395 -0.0104846 0)
(1.05394 -0.00871406 0)
(1.04712 -0.00554822 0)
(1.04222 -0.00132768 0)
(1.03908 0.00369701 0)
(1.03851 0.00862606 0)
(1.0405 0.0124253 0)
(1.04482 0.0149401 0)
(1.05206 0.0161686 0)
(1.06311 0.0159499 0)
(1.07833 0.0138864 0)
(1.06597 0.00903773 0)
(0.927291 0.00341807 0)
(0.58493 0.000677277 0)
(0.122838 4.33516e-05 0)
(0.128389 4.22158e-05 0)
(0.788201 0.000172964 0)
(1.01919 -0.00189837 0)
(1.07874 -0.0061895 0)
(1.07603 -0.00944834 0)
(1.06507 -0.00978129 0)
(1.05739 -0.00790525 0)
(1.05136 -0.00457198 0)
(1.04662 -0.000182999 0)
(1.04334 0.00503197 0)
(1.0423 0.0100463 0)
(1.04367 0.0137308 0)
(1.047 0.016033 0)
(1.05236 0.0168284 0)
(1.06125 0.0163568 0)
(1.06951 0.0129233 0)
(1.05165 0.00740633 0)
(0.916105 0.00261176 0)
(0.580601 0.000602335 0)
(0.121918 4.77606e-05 0)
(0.129175 6.04495e-05 0)
(0.78759 0.000767299 0)
(1.01237 8.80631e-05 0)
(1.07078 -0.00248621 0)
(1.07214 -0.00481492 0)
(1.06611 -0.00544527 0)
(1.06033 -0.0042171 0)
(1.05513 -0.00151526 0)
(1.0506 0.00230173 0)
(1.04709 0.00686852 0)
(1.04549 0.0110364 0)
(1.04607 0.0138497 0)
(1.04834 0.0152191 0)
(1.052 0.0152326 0)
(1.05686 0.0134299 0)
(1.06029 0.00996308 0)
(1.03966 0.00547778 0)
(0.90806 0.00208122 0)
(0.577116 0.000595059 0)
(0.120994 5.2694e-05 0)
(0.130317 7.71109e-05 0)
(0.788967 0.00119446 0)
(1.00991 0.00157383 0)
(1.06648 0.000643545 0)
(1.06994 -0.00043277 0)
(1.06656 -0.000613577 0)
(1.06249 0.000386687 0)
(1.05819 0.00252575 0)
(1.05393 0.0055806 0)
(1.05012 0.00913686 0)
(1.04779 0.0120915 0)
(1.04746 0.0136382 0)
(1.04839 0.0137492 0)
(1.05019 0.0127416 0)
(1.05237 0.0106246 0)
(1.05289 0.00764221 0)
(1.03122 0.00439222 0)
(0.902295 0.00200163 0)
(0.573811 0.000687004 0)
(0.11997 6.43891e-05 0)
(0.1318 9.76689e-05 0)
(0.792149 0.00160334 0)
(1.01051 0.00263208 0)
(1.06542 0.00292987 0)
(1.06961 0.00297115 0)
(1.06748 0.00347687 0)
(1.06438 0.00471383 0)
(1.06063 0.00667855 0)
(1.05647 0.00920774 0)
(1.05224 0.0118811 0)
(1.04907 0.0137267 0)
(1.04754 0.0141431 0)
(1.04721 0.0133626 0)
(1.04753 0.0116154 0)
(1.0481 0.00934108 0)
(1.04712 0.00675924 0)
(1.02512 0.00423574 0)
(0.897391 0.00226274 0)
(0.570083 0.000855792 0)
(0.11871 8.26513e-05 0)
(0.133686 0.000122346 0)
(0.796746 0.0020405 0)
(1.01307 0.00360701 0)
(1.06674 0.00467453 0)
(1.07105 0.00559146 0)
(1.06934 0.00688488 0)
(1.06656 0.00867212 0)
(1.06293 0.010821 0)
(1.05855 0.0131537 0)
(1.05365 0.0152344 0)
(1.04942 0.0161591 0)
(1.04671 0.0155562 0)
(1.04516 0.0140471 0)
(1.04438 0.0118875 0)
(1.04395 0.00947701 0)
(1.04222 0.00703587 0)
(1.01994 0.00473776 0)
(0.892312 0.00275512 0)
(0.56552 0.00108545 0)
(0.117115 0.000106651 0)
(0.136082 0.000154691 0)
(0.802859 0.00259063 0)
(1.01745 0.00465942 0)
(1.06991 0.00630882 0)
(1.0741 0.00799601 0)
(1.0723 0.0101042 0)
(1.06936 0.0125642 0)
(1.06548 0.0151837 0)
(1.0605 0.0176403 0)
(1.05461 0.0194029 0)
(1.04907 0.0196269 0)
(1.0451 0.0182713 0)
(1.04246 0.0160181 0)
(1.04077 0.0133867 0)
(1.03964 0.0107188 0)
(1.03742 0.00815724 0)
(1.01471 0.00573069 0)
(0.886425 0.003451 0)
(0.559805 0.00137539 0)
(0.115099 0.000136215 0)
(0.139155 0.000198036 0)
(0.810796 0.00329606 0)
(1.02365 0.00597326 0)
(1.07482 0.00826916 0)
(1.07856 0.0106786 0)
(1.0764 0.0136214 0)
(1.07305 0.0168857 0)
(1.0685 0.0201626 0)
(1.06257 0.0229805 0)
(1.0553 0.0246116 0)
(1.04818 0.024243 0)
(1.0428 0.0221298 0)
(1.03906 0.0191379 0)
(1.03652 0.0159136 0)
(1.03478 0.0128157 0)
(1.03214 0.00992765 0)
(1.00882 0.0071511 0)
(0.879409 0.00435296 0)
(0.552672 0.00172147 0)
(0.112578 0.000169381 0)
(0.143177 0.000262469 0)
(0.821125 0.00427686 0)
(1.03168 0.00777348 0)
(1.08134 0.010785 0)
(1.08449 0.0139742 0)
(1.0818 0.0178751 0)
(1.07777 0.0221421 0)
(1.0722 0.0262254 0)
(1.06485 0.029494 0)
(1.05575 0.0311048 0)
(1.04672 0.0301715 0)
(1.03975 0.0272238 0)
(1.03481 0.0233717 0)
(1.03141 0.019373 0)
(1.02906 0.0156381 0)
(1.02596 0.0122235 0)
(1.00186 0.00889776 0)
(0.870841 0.00545103 0)
(0.543842 0.00216718 0)
(0.109439 0.000209851 0)
(0.148506 0.000358583 0)
(0.834607 0.00569263 0)
(1.04209 0.0102744 0)
(1.08981 0.014142 0)
(1.09223 0.018329 0)
(1.08875 0.0233912 0)
(1.0836 0.0287441 0)
(1.07651 0.0337162 0)
(1.06726 0.0375752 0)
(1.05586 0.039209 0)
(1.04454 0.0376446 0)
(1.03573 0.033721 0)
(1.02947 0.0288232 0)
(1.02513 0.0238356 0)
(1.02214 0.0192376 0)
(1.01855 0.0151001 0)
(0.993449 0.0110699 0)
(0.860133 0.00680388 0)
(0.532914 0.00269495 0)
(0.105571 0.000260012 0)
(0.155657 0.000498832 0)
(0.852184 0.00775468 0)
(1.05552 0.0137811 0)
(1.10079 0.01874 0)
(1.1022 0.0242571 0)
(1.0975 0.0306932 0)
(1.09071 0.0373055 0)
(1.08156 0.0433411 0)
(1.06981 0.0478155 0)
(1.05554 0.0493661 0)
(1.04146 0.0469796 0)
(1.03054 0.0418621 0)
(1.02277 0.0356975 0)
(1.01737 0.0294969 0)
(1.01365 0.0238082 0)
(1.00947 0.018739 0)
(0.983123 0.0138221 0)
(0.846868 0.00853455 0)
(0.519276 0.00336304 0)
(0.100812 0.000323848 0)
(0.165396 0.000707871 0)
(0.875048 0.0107369 0)
(1.07282 0.0185446 0)
(1.11506 0.0248758 0)
(1.11502 0.0321203 0)
(1.10862 0.0403267 0)
(1.0996 0.0485408 0)
(1.08765 0.0557742 0)
(1.07261 0.0607845 0)
(1.05473 0.0620259 0)
(1.03738 0.058508 0)
(1.024 0.0518995 0)
(1.01444 0.0442066 0)
(1.00777 0.0365546 0)
(1.00316 0.0295516 0)
(0.998271 0.0233335 0)
(0.970345 0.0173227 0)
(0.830519 0.0107485 0)
(0.502463 0.00419712 0)
(0.0950047 0.000398175 0)
(0.17903 0.00106029 0)
(0.905386 0.0153313 0)
(1.09543 0.0254605 0)
(1.13368 0.0336844 0)
(1.13139 0.0432175 0)
(1.1225 0.053559 0)
(1.11032 0.0635003 0)
(1.09462 0.0718121 0)
(1.07544 0.0770925 0)
(1.05324 0.0776308 0)
(1.0321 0.0725622 0)
(1.01588 0.0641158 0)
(1.00427 0.0546092 0)
(0.996059 0.0452479 0)
(0.990307 0.0366952 0)
(0.984451 0.0290939 0)
(0.954519 0.0217628 0)
(0.810365 0.0135675 0)
(0.481943 0.00525331 0)
(0.0879904 0.000484791 0)
(0.198815 0.00170839 0)
(0.946542 0.0228986 0)
(1.12552 0.0362514 0)
(1.15804 0.0470835 0)
(1.1519 0.0594108 0)
(1.13907 0.0721186 0)
(1.12241 0.0836084 0)
(1.10188 0.0925455 0)
(1.07772 0.0974565 0)
(1.05057 0.096618 0)
(1.02523 0.0894553 0)
(1.0059 0.0788138 0)
(0.99195 0.0672458 0)
(0.981936 0.0559597 0)
(0.974752 0.0456365 0)
(0.967566 0.036418 0)
(0.934945 0.027521 0)
(0.785394 0.0172696 0)
(0.45682 0.00664839 0)
(0.0795219 0.00059653 0)
(0.228185 0.00315668 0)
(1.00427 0.0363619 0)
(1.1655 0.0545289 0)
(1.18924 0.0687191 0)
(1.1767 0.0838802 0)
(1.15786 0.0984234 0)
(1.13516 0.110567 0)
(1.10869 0.119078 0)
(1.07879 0.122534 0)
(1.04622 0.119352 0)
(1.0164 0.109427 0)
(0.993757 0.0962335 0)
(0.977268 0.0824312 0)
(0.965189 0.0691383 0)
(0.956232 0.0569528 0)
(0.947191 0.0460078 0)
(0.910604 0.0353159 0)
(0.754305 0.0223863 0)
(0.426514 0.00860441 0)
(0.0698197 0.000717403 0)
(0.26922 0.00998876 -2.96058e-21)
(1.08129 0.0639139 -2.24528e-21)
(1.21363 0.0866817 6.29503e-22)
(1.22458 0.104332 0)
(1.2034 0.120627 2.1246e-36)
(1.17703 0.134916 2.5649e-24)
(1.1472 0.145937 -2.0768e-22)
(1.11405 0.152608 0)
(1.07791 0.153613 8.76688e-36)
(1.03942 0.147403 -6.83155e-22)
(1.0046 0.134364 0)
(0.97811 0.11854 -9.99404e-22)
(0.958499 0.102577 -3.06981e-21)
(0.943689 0.0874655 -1.49008e-21)
(0.932162 0.0738083 -4.71638e-22)
(0.920171 0.0615199 -2.86587e-22)
(0.879449 0.0494402 0)
(0.714064 0.0327378 2.07619e-22)
(0.389449 0.0148885 2.47252e-22)
(0.0605815 0.00214099 4.4273e-21)
(0.294513 0.0266805 -5.21448e-21)
(1.1428 0.109308 1.038e-22)
(1.25616 0.135006 -2.98262e-22)
(1.2565 0.153403 0)
(1.22728 0.168116 5.17778e-22)
(1.19354 0.180569 3.29069e-22)
(1.15671 0.189649 -1.12554e-22)
(1.1168 0.194187 -1.0743e-21)
(1.07409 0.192826 0)
(1.02899 0.183921 2.88743e-21)
(0.988023 0.168242 3.23196e-21)
(0.95634 0.150335 1.04743e-21)
(0.932252 0.13283 4.17184e-21)
(0.91341 0.116519 6.18134e-21)
(0.898042 0.101883 0)
(0.881707 0.0891172 9.26199e-21)
(0.835697 0.0756884 1.36303e-20)
(0.671388 0.0549336 1.53301e-20)
(0.364445 0.0302647 -1.78255e-20)
(0.0572777 0.004935 -3.30807e-22)
(0.290038 0.0437555 0)
(1.17821 0.167602 -1.57132e-21)
(1.28858 0.196287 0)
(1.28157 0.212501 2.53017e-21)
(1.24604 0.223561 0)
(1.20591 0.232558 1.40259e-21)
(1.16275 0.238373 6.49286e-23)
(1.11666 0.239743 -1.47302e-21)
(1.06782 0.235272 -3.10239e-22)
(1.01661 0.223315 1.38603e-21)
(0.970074 0.205021 7.57367e-21)
(0.933844 0.185417 -5.52923e-23)
(0.905935 0.167045 -3.14217e-21)
(0.883722 0.150496 -6.13741e-21)
(0.865322 0.136036 7.47467e-21)
(0.846526 0.123544 -1.34706e-20)
(0.802214 0.110291 -1.85874e-21)
(0.655445 0.0858895 0)
(0.372652 0.0507156 3.8971e-23)
(0.06464 0.00927925 0)
(0.279796 0.0579322 -3.94216e-20)
(1.1944 0.229232 1.60657e-20)
(1.30894 0.262433 8.51006e-21)
(1.2979 0.276208 -1.64313e-21)
(1.25802 0.283325 2.51288e-21)
(1.21317 0.288313 -3.34334e-21)
(1.165 0.290237 -5.26765e-23)
(1.11371 0.287898 0)
(1.05959 0.279868 -5.23986e-21)
(1.00303 0.264522 0)
(0.951748 0.24356 -3.84489e-21)
(0.911825 0.22237 -5.48437e-21)
(0.881101 0.203327 -3.52604e-21)
(0.856707 0.18677 -4.5778e-21)
(0.836702 0.172751 0)
(0.81728 0.160859 0)
(0.776834 0.147846 -1.24843e-20)
(0.646649 0.120387 2.50731e-21)
(0.380439 0.0732771 -1.47021e-21)
(0.0703553 0.0139915 -1.74097e-21)
(0.269952 0.0705959 2.90225e-20)
(1.19834 0.290265 0)
(1.31992 0.329301 -2.37276e-20)
(1.3066 0.340961 -6.14025e-21)
(1.26367 0.344368 -4.75015e-21)
(1.21537 0.345406 0)
(1.16336 0.343442 -7.87352e-22)
(1.10787 0.337307 1.19497e-21)
(1.0494 0.325529 2.21935e-21)
(0.988382 0.306607 7.03677e-21)
(0.933269 0.28277 0)
(0.890659 0.259752 -1.19336e-20)
(0.858143 0.239799 -7.6779e-21)
(0.832622 0.222959 -4.63708e-21)
(0.811979 0.209072 3.05934e-20)
(0.792766 0.197585 3.76663e-21)
(0.75602 0.18443 1.80782e-20)
(0.636489 0.153603 -8.78926e-20)
(0.381074 0.0940571 5.25799e-20)
(0.072455 0.0182313 -6.42655e-20)
(0.261467 0.0818803 3.05728e-20)
(1.19472 0.348831 -5.59986e-21)
(1.3239 0.394998 4.1578e-21)
(1.30921 0.404989 1.13163e-20)
(1.26407 0.404939 7.00591e-21)
(1.21323 0.402214 3.29507e-22)
(1.15824 0.39657 7.41459e-22)
(1.09943 0.386747 7.20828e-22)
(1.03732 0.371303 -4.87261e-21)
(0.972641 0.348713 0)
(0.914317 0.321737 -5.0924e-21)
(0.869514 0.296621 -2.98194e-22)
(0.835707 0.275377 -8.60193e-21)
(0.80952 0.257842 0)
(0.788709 0.243596 -6.67283e-21)
(0.770075 0.231858 -1.62731e-20)
(0.736322 0.217913 4.5216e-20)
(0.62366 0.182983 -4.53275e-20)
(0.376219 0.111892 6.48227e-20)
(0.0720844 0.0217133 -6.83125e-20)
(0.254684 0.0923517 -1.14061e-22)
(1.1866 0.404348 6.83044e-21)
(1.32272 0.458393 1.98368e-20)
(1.30728 0.467134 -6.9071e-21)
(1.26053 0.463981 3.99611e-21)
(1.20769 0.45787 0)
(1.15026 0.448804 1.98667e-21)
(1.0887 0.435458 -3.8875e-22)
(1.02347 0.416494 -2.15478e-21)
(0.955484 0.390233 0)
(0.89442 0.359958 -4.93431e-21)
(0.847941 0.3324 -7.02012e-21)
(0.813285 0.309433 9.41155e-21)
(0.786843 0.290678 -6.05502e-21)
(0.76619 0.275562 -2.93888e-20)
(0.74819 0.263134 1.81277e-20)
(0.716489 0.247966 5.76585e-21)
(0.608313 0.208725 0)
(0.36761 0.126981 -6.29163e-20)
(0.0704043 0.0245673 -2.33914e-21)
(0.249443 0.102319 4.99854e-21)
(1.17587 0.456677 -7.84647e-21)
(1.31778 0.518925 -1.08416e-20)
(1.30185 0.526865 -2.13083e-20)
(1.25389 0.520964 1.93145e-20)
(1.19949 0.511833 -1.05076e-20)
(1.14013 0.499597 -4.21318e-21)
(1.0762 0.483008 -4.45922e-22)
(1.00825 0.460666 2.33614e-21)
(0.937365 0.430835 -1.71128e-20)
(0.874033 0.397177 -6.11879e-21)
(0.82609 0.366871 0)
(0.79074 0.341744 1.02982e-20)
(0.764138 0.321337 1.27742e-20)
(0.74371 0.304968 1.57768e-20)
(0.726307 0.291491 -1.97861e-20)
(0.695957 0.274705 -5.97679e-21)
(0.590918 0.231071 7.13003e-21)
(0.356407 0.13952 0)
(0.0678551 0.026788 -5.10323e-21)
(0.245438 0.111863 -5.79253e-20)
(1.16385 0.505973 3.59343e-20)
(1.31003 0.576455 1.19232e-20)
(1.29388 0.58386 -1.62487e-20)
(1.24503 0.575552 1.15167e-20)
(1.18939 0.563759 -7.77859e-22)
(1.12844 0.548668 4.19872e-21)
(1.06252 0.529121 -2.66515e-22)
(0.992254 0.503602 -3.88435e-21)
(0.918668 0.470327 2.99962e-23)
(0.853013 0.433234 -1.81458e-20)
(0.803652 0.399921 1.79631e-20)
(0.767633 0.372311 -1.15636e-20)
(0.740918 0.349888 1.44341e-20)
(0.72079 0.331935 0)
(0.703939 0.317091 -1.07536e-20)
(0.674535 0.298431 -2.62338e-22)
(0.571863 0.250351 -3.11926e-20)
(0.343326 0.149838 -4.64063e-21)
(0.0646258 0.0283073 0)
(0.242488 0.121182 0)
(1.15136 0.552488 3.89551e-20)
(1.30033 0.630901 2.77756e-20)
(1.28403 0.637982 1.83238e-20)
(1.23448 0.627553 1.11559e-20)
(1.17786 0.613401 0)
(1.11562 0.595786 3.7727e-21)
(1.04802 0.573567 -2.50375e-22)
(0.975589 0.545178 8.17897e-21)
(0.899485 0.508621 -2.05752e-21)
(0.831422 0.468085 -1.33269e-20)
(0.780606 0.4316 8.96535e-21)
(0.743855 0.40124 -3.90725e-22)
(0.716998 0.376498 1.5208e-20)
(0.697174 0.356635 9.9857e-21)
(0.680876 0.340151 -2.34473e-20)
(0.652159 0.319308 2.84808e-20)
(0.551358 0.266585 8.55791e-21)
(0.328542 0.157836 3.56405e-20)
(0.0607659 0.0292163 -9.64532e-20)
(0.240412 0.13036 -1.48318e-20)
(1.13894 0.596349 2.24701e-20)
(1.28929 0.682276 -1.72793e-20)
(1.27288 0.689186 -2.12404e-20)
(1.2228 0.676871 0)
(1.16539 0.660641 9.04114e-21)
(1.10207 0.640812 -1.10382e-20)
(1.03293 0.616252 -4.9783e-22)
(0.958523 0.585297 0)
(0.879988 0.545772 -3.22068e-20)
(0.809454 0.501851 3.63646e-20)
(0.756953 0.462026 0)
(0.719333 0.428683 1.37321e-20)
(0.692269 0.401335 -3.95956e-22)
(0.672727 0.379179 -3.16431e-20)
(0.657 0.36081 1.24582e-20)
(0.6287 0.337524 0)
(0.529269 0.27992 4.64098e-20)
(0.312076 0.163531 0)
(0.0563474 0.0294618 -4.60343e-20)
(0.239018 0.139381 1.65164e-20)
(1.12684 0.637755 2.56643e-20)
(1.27741 0.730724 -1.81274e-20)
(1.26088 0.737484 0)
(1.21041 0.723498 1.52929e-20)
(1.15234 0.705459 0)
(1.0881 0.683697 1.42718e-20)
(1.01767 0.657103 1.74106e-21)
(0.941431 0.623921 6.9013e-22)
(0.860417 0.581691 -1.58961e-20)
(0.787293 0.534555 3.50525e-21)
(0.732793 0.491359 0)
(0.694168 0.454763 -2.92459e-20)
(0.666758 0.424544 4.11806e-22)
(0.647361 0.39988 0)
(0.631985 0.379263 4.89002e-22)
(0.603841 0.35315 4.20672e-20)
(0.505449 0.290242 -4.07434e-20)
(0.29387 0.166801 1.21096e-20)
(0.0513697 0.0289932 0)
(0.237952 0.148157 0)
(1.11515 0.676893 2.86872e-20)
(1.26505 0.776367 2.12469e-20)
(1.24836 0.782932 -4.36723e-22)
(1.19758 0.767468 9.52493e-21)
(1.13903 0.747855 2.13859e-20)
(1.07404 0.724434 -4.65587e-21)
(1.00247 0.696101 8.73293e-22)
(0.924506 0.661052 4.58314e-21)
(0.841004 0.616513 -2.4632e-20)
(0.765032 0.566434 -6.21072e-22)
(0.708234 0.519909 -1.18869e-20)
(0.668279 0.479858 4.80418e-20)
(0.640256 0.446439 -4.96662e-22)
(0.620781 0.41899 -2.5078e-20)
(0.605569 0.395696 -4.59321e-20)
(0.57743 0.366252 0)
(0.479814 0.297584 0)
(0.273926 0.167523 1.33236e-20)
(0.0459215 0.0277972 -7.89129e-21)
(0.237362 0.156847 2.0519e-20)
(1.10403 0.713675 -6.27621e-20)
(1.25246 0.819233 -2.27706e-20)
(1.2356 0.825601 0)
(1.18462 0.808841 -3.0728e-22)
(1.12571 0.787863 2.55784e-20)
(1.06009 0.763025 -1.5325e-20)
(0.987485 0.733233 -7.74442e-21)
(0.907933 0.696635 4.25356e-21)
(0.821926 0.650208 -1.87618e-20)
(0.742844 0.597629 -3.07071e-20)
(0.683228 0.547971 3.17038e-20)
(0.641281 0.504382 0)
(0.612432 0.46732 -1.12933e-20)
(0.592867 0.436542 -2.761e-20)
(0.577826 0.410302 -3.33871e-20)
(0.549417 0.376899 -4.0694e-20)
(0.452084 0.301818 1.22354e-20)
(0.252058 0.165284 -7.20777e-21)
(0.0399659 0.0258329 9.58674e-23)
(0.236823 0.165236 0)
(1.09362 0.748395 0)
(1.23985 0.859413 5.04719e-22)
(1.22281 0.865585 0)
(1.17169 0.847699 -3.57845e-20)
(1.11253 0.825542 -2.25326e-20)
(1.04642 0.799494 0)
(0.97294 0.768511 -1.73095e-21)
(0.891891 0.730703 4.35683e-21)
(0.80344 0.682801 -4.30381e-20)
(0.721043 0.628065 0)
(0.65817 0.575456 -2.03093e-20)
(0.613465 0.528169 -6.09216e-22)
(0.583255 0.487232 -5.03174e-22)
(0.563415 0.45289 2.95519e-20)
(0.548433 0.423121 -7.67275e-23)
(0.519498 0.385311 -8.86701e-20)
(0.421622 0.302851 2.67671e-20)
(0.228202 0.160139 7.98533e-21)
(0.0335483 0.0231008 0)
(0.236328 0.173266 -7.55619e-20)
(1.08361 0.781213 -3.84818e-20)
(1.22733 0.897011 -5.70752e-20)
(1.21013 0.902989 7.94881e-20)
(1.15897 0.884117 -6.70829e-20)
(1.09965 0.860955 0)
(1.03317 0.833892 -1.29011e-20)
(0.958953 0.801968 3.31861e-21)
(0.876533 0.763265 7.43541e-22)
(0.785674 0.714352 3.43352e-21)
(0.699819 0.658008 3.83079e-20)
(0.633315 0.60282 -6.92718e-21)
(0.585367 0.551954 -2.97431e-20)
(0.552948 0.506835 -1.34876e-20)
(0.532381 0.468273 1.65162e-20)
(0.517272 0.434333 -6.44667e-23)
(0.487423 0.390943 2.44398e-20)
(0.388542 0.300247 -5.82131e-20)
(0.201869 0.151477 6.97525e-20)
(0.0267497 0.0195994 1.02321e-20)
(0.235683 0.180916 2.77612e-20)
(1.074 0.812184 -2.10541e-20)
(1.21503 0.932165 1.20335e-21)
(1.19769 0.937951 4.49039e-20)
(1.14655 0.918216 1.56492e-20)
(1.08717 0.894176 4.50368e-20)
(1.02045 0.86627 -5.63514e-21)
(0.945616 0.833612 1.57046e-20)
(0.861971 0.79432 -4.93533e-23)
(0.768771 0.744788 -2.30362e-20)
(0.679385 0.687371 0)
(0.608818 0.630114 -3.12571e-20)
(0.55713 0.5761 4.32469e-20)
(0.521592 0.526808 0)
(0.499475 0.483162 -3.54041e-20)
(0.483859 0.443978 2.20666e-20)
(0.452963 0.393951 -2.64809e-20)
(0.352837 0.293674 -3.20644e-20)
(0.173823 0.139537 -5.69855e-20)
(0.0197841 0.0154515 -4.50607e-20)
(0.235204 0.188265 -3.05419e-20)
(1.06463 0.84132 2.25388e-20)
(1.20301 0.964982 5.32888e-20)
(1.18557 0.970577 6.17685e-20)
(1.13452 0.950086 -3.28461e-20)
(1.07516 0.92529 3.10334e-20)
(1.00831 0.89668 -1.76077e-20)
(0.933008 0.863496 1.91409e-20)
(0.848277 0.823879 1.31921e-21)
(0.752881 0.77416 2.14969e-20)
(0.659887 0.716216 8.09513e-20)
(0.58497 0.657509 0)
(0.528798 0.600746 0)
(0.489131 0.54731 -1.56309e-20)
(0.464361 0.498182 0)
(0.447581 0.451911 4.8199e-20)
(0.415479 0.392927 5.81245e-20)
(0.314775 0.282055 0)
(0.145194 0.124328 0)
(0.013243 0.0110167 4.92774e-20)
(0.234442 0.195054 3.37086e-20)
(1.05553 0.868646 2.69736e-20)
(1.19133 0.995592 3.83496e-20)
(1.17383 1.001 -5.51671e-20)
(1.12293 0.979833 -3.66291e-20)
(1.06366 0.954371 -4.11086e-20)
(0.996802 0.925189 2.61083e-20)
(0.921162 0.891646 1.2021e-22)
(0.835516 0.851948 -9.56343e-22)
(0.738079 0.802403 -1.25403e-21)
(0.641571 0.744502 4.09064e-20)
(0.562077 0.684915 0)
(0.500789 0.626128 4.36683e-20)
(0.455815 0.569205 3.29149e-20)
(0.426681 0.514171 8.46468e-20)
(0.407061 0.458522 2.60291e-20)
(0.373508 0.386441 -3.23135e-20)
(0.275077 0.262719 -1.90917e-20)
(0.119375 0.105395 0)
(0.00832304 0.00676154 5.38019e-20)
(0.233883 0.201718 -7.42477e-20)
(1.04667 0.894325 0)
(1.18 1.02409 4.28718e-20)
(1.1625 1.02932 -4.52502e-20)
(1.11182 1.00756 4.14589e-20)
(1.05271 0.981513 5.99816e-20)
(0.98595 0.951859 -6.03548e-20)
(0.9101 0.918104 7.23898e-22)
(0.823698 0.878529 0)
(0.724417 0.829491 -1.90634e-20)
(0.624539 0.772209 -8.40927e-20)
(0.540353 0.71247 4.21627e-21)
(0.473648 0.652384 5.92017e-20)
(0.422176 0.593 0)
(0.386342 0.532875 5.70724e-20)
(0.360571 0.465404 0)
(0.322682 0.372737 0)
(0.232167 0.227444 -2.14129e-20)
(0.110498 0.0726172 0)
(0.0240176 0.00792366 1.4567e-20)
(0.232969 0.207726 -8.11905e-20)
(1.03804 0.918591 0)
(1.169 1.05067 6.95489e-20)
(1.15156 1.05576 0)
(1.10115 1.0335 -2.25262e-20)
(1.04225 1.00699 0)
(0.975682 0.976988 -4.48046e-21)
(0.899724 0.943198 -3.30491e-21)
(0.812711 0.90397 -4.24012e-22)
(0.711772 0.855788 -1.7962e-20)
(0.608691 0.799685 2.1521e-21)
(0.519798 0.740535 3.49869e-20)
(0.447294 0.679851 5.72962e-20)
(0.388275 0.619577 8.23943e-21)
(0.34288 0.556254 4.45769e-20)
(0.305737 0.476608 0)
(0.252484 0.355712 7.0881e-20)
(0.164294 0.165127 -4.24938e-20)
(0.055197 0.0810917 4.93398e-20)
(-0.0324508 0.406623 -5.85502e-20)
(0.23201 0.213455 6.62594e-20)
(1.02945 0.941352 1.02823e-19)
(1.15827 1.07566 0)
(1.14086 1.08073 9.80774e-22)
(1.09075 1.05821 6.11843e-20)
(1.03204 1.03144 -1.1614e-19)
(0.965732 1.00132 -2.65576e-20)
(0.8897 0.967819 0)
(0.802129 0.929319 -7.59141e-21)
(0.699595 0.882573 -3.8956e-22)
(0.593265 0.828421 0)
(0.499335 0.770993 0)
(0.420566 0.7105 5.00094e-20)
(0.353426 0.65101 -2.56749e-20)
(0.294739 0.588733 -4.41944e-20)
(0.240139 0.50074 0)
(0.140073 0.346353 3.63537e-20)
(0.0339547 0.465957 -4.34306e-20)
(0.0477914 1.77945 -2.37304e-20)
(0.0797563 2.75045 -2.89861e-20)
(0.23074 0.218583 -4.8633e-20)
(1.021 0.962793 -1.29965e-19)
(1.14782 1.09904 4.02083e-20)
(1.13046 1.10411 3.85472e-20)
(1.0807 1.0815 0)
(1.02215 1.05463 -8.31944e-20)
(0.956268 1.02457 -4.43822e-20)
(0.880179 0.991555 2.16105e-21)
(0.792165 0.954069 -1.05468e-21)
(0.68821 0.909215 1.2161e-20)
(0.578812 0.857661 3.63357e-20)
(0.479971 0.803187 3.52966e-20)
(0.394687 0.743599 4.88078e-20)
(0.320294 0.685323 -5.8139e-20)
(0.248113 0.6314 -6.49307e-20)
(0.168343 0.545953 0)
(0.0766344 0.838943 0)
(0.125711 2.47382 1.89189e-20)
(0.133015 3.16348 0)
(0.132391 3.37062 4.73075e-20)
(0.232268 0.223438 0)
(1.01291 0.983175 0)
(1.13735 1.1207 0)
(1.12015 1.12571 1.07414e-20)
(1.07075 1.1032 5.48472e-20)
(1.01239 1.0764 -6.35239e-20)
(0.947215 1.04665 -3.17834e-20)
(0.871088 1.01429 2.44017e-21)
(0.782761 0.978051 -1.64263e-20)
(0.677595 0.93552 -2.12067e-21)
(0.565412 0.887206 6.40061e-20)
(0.462039 0.83691 -4.15013e-21)
(0.370104 0.779649 5.42675e-21)
(0.290105 0.719506 8.24897e-21)
(0.210511 0.681467 5.32463e-22)
(0.137812 0.94411 3.1482e-22)
(0.175003 2.61298 -9.15457e-20)
(0.193699 3.27119 -3.48626e-20)
(0.176099 3.4234 1.68824e-20)
(0.158088 3.44862 -1.76015e-20)
(0.154315 0.168434 2.87147e-20)
(0.999271 1.0054 0)
(1.12689 1.14085 -7.89147e-20)
(1.1104 1.14593 -1.00074e-19)
(1.06129 1.12377 1.1386e-19)
(1.00333 1.09719 6.73362e-20)
(0.938377 1.06758 3.73742e-20)
(0.862441 1.03605 -4.13733e-20)
(0.774007 1.00129 1.71855e-20)
(0.668063 0.961359 0)
(0.553588 0.916756 2.65838e-20)
(0.446266 0.871342 -2.5839e-20)
(0.347492 0.820382 0)
(0.264012 0.759186 7.33783e-21)
(0.194149 0.877159 1.80439e-20)
(0.183459 2.28724 -2.16938e-20)
(0.260881 3.30955 2.4801e-20)
(0.23831 3.44539 1.19823e-20)
(0.1987 3.46949 1.3977e-20)
(0.172329 3.4799 1.75284e-20)
(0.264433 0.257371 -5.61458e-20)
(0.978459 1.01067 0)
(1.10757 1.1628 8.15986e-20)
(1.09695 1.1763 1.04382e-19)
(1.04633 1.15406 -1.18147e-19)
(0.988594 1.12805 -7.20023e-20)
(0.923445 1.09985 -5.72378e-20)
(0.847652 1.0698 -3.07418e-21)
(0.758761 1.03769 -2.39019e-20)
(0.651219 1.00249 -4.59927e-21)
(0.532928 0.965403 8.65222e-22)
(0.419609 0.929176 1.8926e-20)
(0.310256 0.895013 4.26009e-21)
(0.239804 1.00708 -6.28743e-21)
(0.267246 2.18379 -1.47878e-20)
(0.334765 3.31235 1.05548e-20)
(0.321889 3.48486 -9.18376e-21)
(0.280698 3.50822 -5.37131e-21)
(0.239623 3.53583 1.20712e-21)
(0.182679 3.5273 -1.36945e-22)
(0.252808 0.254707 0)
(0.974036 1.03032 2.14822e-20)
(1.09881 1.18362 -1.61043e-20)
(1.08688 1.19695 -1.15906e-20)
(1.03678 1.1748 -7.73571e-20)
(0.979537 1.14904 7.01405e-20)
(0.914556 1.12114 3.84226e-20)
(0.839205 1.09208 -3.21066e-21)
(0.750642 1.06183 2.92857e-20)
(0.642942 1.02988 -2.92772e-21)
(0.523325 0.99847 -2.82872e-20)
(0.407801 0.968829 2.66982e-21)
(0.301964 0.960077 -3.587e-21)
(0.284846 1.41523 -4.97806e-21)
(0.372629 3.01137 3.97251e-21)
(0.408474 3.47931 5.00008e-22)
(0.356628 3.55244 -7.71825e-21)
(0.315675 3.57406 -1.03405e-20)
(0.259112 3.59651 1.57276e-20)
(0.196063 3.58958 7.5145e-21)
(0.237345 0.250749 5.30985e-20)
(0.968306 1.05203 1.43684e-19)
(1.08942 1.20603 -4.57991e-20)
(1.07649 1.21895 -4.39024e-20)
(1.02691 1.1967 0)
(0.970161 1.17097 1.02242e-19)
(0.905641 1.14339 5.84234e-20)
(0.831034 1.11527 -3.36214e-21)
(0.743153 1.08691 3.0664e-21)
(0.635748 1.05824 1.88143e-20)
(0.51561 1.03279 -5.66657e-21)
(0.399655 1.01123 -1.69086e-20)
(0.311779 1.06857 -2.21767e-20)
(0.364202 2.00586 2.39769e-20)
(0.469298 3.3627 8.59813e-21)
(0.460835 3.55755 0)
(0.400451 3.60349 0)
(0.354082 3.64811 1.46362e-20)
(0.283146 3.70818 0)
(0.206846 3.67641 3.40564e-20)
(0.225913 0.250436 -7.7091e-20)
(0.960345 1.07406 -1.1904e-19)
(1.07863 1.22935 0)
(1.06499 1.2416 1.10861e-21)
(1.01597 1.21898 -7.485e-20)
(0.959853 1.19317 1.51526e-19)
(0.89614 1.16589 3.91941e-20)
(0.822564 1.13866 -4.10935e-21)
(0.735625 1.11203 3.2036e-20)
(0.629001 1.0867 -1.80413e-21)
(0.509242 1.06732 0)
(0.395589 1.05595 0)
(0.344781 1.25333 -1.42265e-20)
(0.462925 2.66569 3.36447e-21)
(0.558309 3.50409 -6.55507e-21)
(0.508421 3.60682 0)
(0.463485 3.66398 3.78891e-20)
(0.395696 3.74002 -5.71388e-20)
(0.341825 3.72391 -5.00205e-20)
(0.224557 3.6964 5.28806e-21)