/*--------------------------------*- C++ -*----------------------------------*\
  =========                 |
  \\      /  F ield         | OpenFOAM: The Open Source CFD Toolbox
   \\    /   O peration     | Website:  https://openfoam.org
    \\  /    A nd           | Version:  6
     \\/     M anipulation  |
\*---------------------------------------------------------------------------*/
FoamFile
{
    version     2.0;
    format      ascii;
    class       volScalarField;
    location    "110.5";
    object      p;
}
// * * * * * * * * * * * * * * * * * * * * * * * * * * * * * * * * * * * * * //

dimensions      [0 2 -2 0 0 0 0];

internalField   nonuniform List<scalar> 
8800
(
1.062
1.01269
0.974729
0.946664
0.926509
0.911932
0.901348
0.893827
0.888967
0.886933
0.888341
0.892714
0.899533
0.908977
0.921727
0.939057
0.962941
0.996043
1.03898
1.0915
0.896491
0.902837
0.91199
0.915543
0.91294
0.906859
0.89993
0.893705
0.888927
0.886089
0.885897
0.888562
0.893234
0.899385
0.906501
0.913548
0.918435
0.918317
0.911648
0.902754
0.869989
0.876227
0.880732
0.884609
0.887566
0.888526
0.887453
0.885354
0.883403
0.882603
0.883678
0.88617
0.889086
0.891379
0.891917
0.890142
0.886786
0.88278
0.878005
0.874289
0.865663
0.86843
0.871042
0.873207
0.874955
0.876537
0.877659
0.878037
0.877957
0.878101
0.878956
0.880143
0.88092
0.880798
0.879844
0.878506
0.876849
0.874557
0.872152
0.870586
0.860572
0.861998
0.863844
0.865935
0.86766
0.868969
0.87009
0.8711
0.87195
0.87274
0.873511
0.874024
0.874091
0.873762
0.873121
0.872026
0.870387
0.868506
0.867159
0.866356
0.855535
0.85644
0.857694
0.859332
0.861041
0.862594
0.863906
0.865065
0.866179
0.867261
0.86812
0.868574
0.868638
0.868313
0.867544
0.866382
0.865043
0.863793
0.862979
0.862455
0.850569
0.851226
0.852195
0.853527
0.854994
0.856536
0.858055
0.859464
0.860787
0.862072
0.863112
0.863686
0.863771
0.863389
0.862651
0.861744
0.860781
0.859896
0.859325
0.858939
0.845668
0.846174
0.846968
0.848126
0.849451
0.850899
0.85245
0.854046
0.855632
0.857185
0.85845
0.859159
0.859323
0.859071
0.858563
0.857919
0.857219
0.85658
0.856163
0.855862
0.840775
0.841177
0.841847
0.842889
0.844148
0.845552
0.847108
0.848815
0.850637
0.852501
0.854053
0.854985
0.855367
0.855366
0.855116
0.854708
0.854224
0.853786
0.853482
0.853237
0.835805
0.836133
0.836717
0.837685
0.838907
0.84031
0.841915
0.843743
0.845787
0.847986
0.84991
0.851186
0.85189
0.852182
0.852194
0.852033
0.851762
0.851492
0.851273
0.851066
0.830667
0.830939
0.831465
0.832393
0.833608
0.835051
0.836751
0.838746
0.841055
0.843645
0.846036
0.847753
0.848844
0.849471
0.849772
0.849865
0.849809
0.849692
0.849543
0.849363
0.825266
0.825494
0.825984
0.826902
0.828151
0.829679
0.831519
0.83374
0.83639
0.839465
0.842423
0.844669
0.846213
0.847227
0.847855
0.848209
0.848383
0.848412
0.84832
0.848158
0.819501
0.819695
0.820168
0.821106
0.822432
0.82409
0.826128
0.828648
0.83173
0.835404
0.839049
0.841926
0.844003
0.845462
0.846465
0.847132
0.847537
0.847699
0.847655
0.847505
0.813262
0.813428
0.813901
0.814888
0.816331
0.818173
0.820479
0.823383
0.827005
0.831413
0.83589
0.839521
0.842232
0.844211
0.845646
0.84666
0.847318
0.847617
0.847615
0.847471
0.806416
0.806559
0.807047
0.808113
0.809718
0.811806
0.814459
0.817849
0.822139
0.827443
0.832923
0.837457
0.84092
0.843513
0.845442
0.846857
0.847803
0.848243
0.848279
0.848137
0.79881
0.798931
0.799448
0.800621
0.802441
0.804845
0.807939
0.811936
0.81705
0.823443
0.83013
0.835739
0.84009
0.843412
0.845932
0.847812
0.84908
0.849667
0.849737
0.849593
0.790243
0.790346
0.790898
0.792214
0.794312
0.797117
0.800764
0.805516
0.811642
0.819356
0.82749
0.834378
0.839777
0.843954
0.847187
0.849612
0.851242
0.851983
0.852083
0.851931
0.780425
0.780526
0.781148
0.782643
0.785099
0.788409
0.792747
0.798437
0.805808
0.815125
0.824986
0.833386
0.840022
0.845207
0.849273
0.852338
0.854377
0.855277
0.855402
0.85524
0.769065
0.769144
0.769855
0.771603
0.774503
0.778452
0.783662
0.790522
0.799427
0.810688
0.822607
0.832779
0.840862
0.847232
0.852257
0.856074
0.858563
0.859619
0.859761
0.859584
0.755717
0.755784
0.756606
0.758671
0.762139
0.76691
0.773231
0.781566
0.79237
0.805986
0.820342
0.83258
0.842329
0.850068
0.856214
0.860877
0.863842
0.865043
0.86519
0.864995
0.739774
0.739832
0.740808
0.743298
0.747514
0.753359
0.761119
0.771336
0.784509
0.800977
0.818199
0.832812
0.844455
0.853755
0.861162
0.86676
0.870208
0.871523
0.871658
0.871443
0.720381
0.720435
0.721638
0.724728
0.729966
0.737259
0.746931
0.75959
0.775739
0.79565
0.816204
0.833501
0.847267
0.858303
0.867089
0.873692
0.877577
0.878948
0.87905
0.878816
0.696281
0.696341
0.697902
0.701894
0.708605
0.717933
0.730229
0.746118
0.766017
0.790053
0.814413
0.834688
0.850772
0.863697
0.873961
0.88155
0.885761
0.887103
0.887148
0.886899
0.665501
0.665593
0.667777
0.673241
0.682267
0.694603
0.710621
0.730815
0.755407
0.784308
0.812933
0.836428
0.854979
0.869873
0.881673
0.890123
0.894458
0.89566
0.89563
0.895373
0.624705
0.624939
0.628415
0.636604
0.649559
0.66659
0.687935
0.713803
0.744138
0.778631
0.811916
0.838802
0.859889
0.876793
0.890055
0.89909
0.903259
0.904204
0.904092
0.90384
0.567517
0.568719
0.575694
0.589592
0.609435
0.633755
0.662499
0.695542
0.732623
0.773312
0.811535
0.841904
0.865506
0.884327
0.898848
0.908037
0.911685
0.912298
0.912118
0.911883
0.484693
0.492843
0.508961
0.533356
0.563517
0.597603
0.635348
0.676585
0.721085
0.768453
0.811943
0.846049
0.872376
0.893208
0.908615
0.917473
0.920383
0.920675
0.920462
0.920273
0.396176
0.414142
0.440349
0.47603
0.517083
0.561039
0.607743
0.657213
0.709335
0.763819
0.813218
0.851694
0.881297
0.904298
0.920265
0.928004
0.929881
0.929907
0.929736
0.929624
0.320049
0.342045
0.376672
0.422003
0.472686
0.525943
0.581359
0.638888
0.698395
0.759609
0.814433
0.856791
0.889218
0.913899
0.929709
0.936079
0.93722
0.937165
0.937039
0.936962
0.257276
0.281739
0.322154
0.374404
0.432595
0.493584
0.556643
0.621511
0.687857
0.755312
0.815106
0.86098
0.895818
0.921679
0.937108
0.942519
0.943304
0.943226
0.943125
0.943063
0.204932
0.230911
0.275521
0.33313
0.397294
0.464593
0.534098
0.605368
0.677847
0.750986
0.815338
0.864418
0.901447
0.928294
0.943295
0.947953
0.948521
0.948431
0.948345
0.948288
0.160438
0.187315
0.235029
0.29696
0.366113
0.438756
0.513789
0.590652
0.668597
0.746886
0.815389
0.867382
0.906385
0.934044
0.948573
0.952661
0.953089
0.952989
0.952909
0.952855
0.121712
0.149172
0.199299
0.264808
0.338209
0.415496
0.495412
0.577279
0.660175
0.743159
0.815441
0.870047
0.910772
0.939037
0.953106
0.956773
0.957103
0.956986
0.956905
0.956849
0.0872422
0.115139
0.16724
0.235792
0.312878
0.394247
0.47855
0.564992
0.652469
0.739816
0.815551
0.872473
0.914646
0.943347
0.956967
0.960318
0.960575
0.960439
0.960349
0.960288
0.0559687
0.0842419
0.138004
0.209215
0.289552
0.374558
0.462836
0.553504
0.6453
0.736783
0.815733
0.874706
0.918062
0.946995
0.960173
0.963278
0.963486
0.963336
0.963238
0.963168
0.0270397
0.0556902
0.110936
0.184548
0.267781
0.356059
0.447969
0.542577
0.638488
0.733979
0.81602
0.876839
0.921113
0.950051
0.962745
0.965651
0.965841
0.965701
0.965605
0.965526
2.04192e-05
0.0289984
0.0855917
0.16136
0.247207
0.338458
0.433711
0.532015
0.63189
0.731357
0.816475
0.87901
0.923951
0.952648
0.964786
0.967515
0.967723
0.967632
0.967556
0.96747
-0.0256224
0.00375816
0.0615925
0.139334
0.227556
0.321519
0.419872
0.52166
0.625378
0.728862
0.817173
0.881391
0.926783
0.954993
0.966488
0.969046
0.969304
0.969296
0.969264
0.969177
-0.0500706
-0.0202924
0.0387022
0.118245
0.208622
0.305072
0.406299
0.511381
0.618836
0.726428
0.818181
0.88419
0.929872
0.95735
0.968101
0.970478
0.970805
0.970903
0.970929
0.970849
-0.0735237
-0.0433389
0.0167359
0.0979347
0.190272
0.288993
0.392879
0.501064
0.612151
0.723953
0.819516
0.887616
0.933519
0.959995
0.969858
0.972033
0.972442
0.972643
0.972726
0.972656
-0.0961306
-0.0654922
-0.00441281
0.0783037
0.172403
0.273195
0.379531
0.490629
0.605219
0.721305
0.821125
0.891844
0.938079
0.963232
0.971923
0.973828
0.974353
0.974643
0.974751
0.974682
-0.118012
-0.0868833
-0.024801
0.0592898
0.15497
0.257626
0.366207
0.480008
0.597952
0.718341
0.822881
0.896975
0.943952
0.967506
0.974431
0.975766
0.976448
0.976911
0.977057
0.976952
-0.139084
-0.107494
-0.044462
0.0408436
0.137939
0.242274
0.352876
0.469173
0.590283
0.714938
0.824587
0.902987
0.951529
0.973444
0.977792
0.977771
0.978407
0.979422
0.979952
0.979828
-0.159374
-0.127354
-0.0634367
0.0229513
0.121304
0.227132
0.339551
0.4581
0.582168
0.710964
0.826019
0.909698
0.961081
0.981965
0.983198
0.980547
0.980401
0.982379
0.984275
0.984562
-0.178975
-0.146464
-0.0817496
0.00560118
0.10508
0.212225
0.32625
0.446807
0.573581
0.70632
0.826913
0.916796
0.972593
0.99391
0.992466
0.986489
0.984528
0.987498
0.991888
0.993852
-0.197782
-0.164833
-0.0993815
-0.0111788
0.0892818
0.19759
0.313016
0.435329
0.564535
0.700944
0.827012
0.923838
0.985689
1.00941
1.00691
0.99818
0.993473
0.994924
0.999925
1.00267
-0.2159
-0.182504
-0.116361
-0.0274457
0.07385
0.183165
0.299771
0.423581
0.55492
0.694707
0.826061
0.930412
0.999947
1.02811
1.02663
1.01656
1.00821
1.00177
0.994961
0.9995
-0.233287
-0.199545
-0.132842
-0.0434021
0.0584859
0.168627
0.286119
0.411109
0.544245
0.687064
0.823529
0.93595
1.01528
1.0501
1.05121
1.04112
1.02742
1.01196
0.988637
0.993676
-0.249841
-0.215965
-0.148684
-0.0588751
0.043429
0.154251
0.272219
0.398173
0.532701
0.678064
0.819063
0.939092
1.02983
1.07328
1.07629
1.06431
1.04578
1.01257
0.958107
0.936367
-0.265476
-0.232822
-0.163481
-0.073437
0.0294844
0.140522
0.258344
0.385037
0.52054
0.66781
0.812494
0.938783
1.04119
1.09489
1.09461
1.07645
1.04407
0.983913
0.922218
0.885296
-0.30729
-0.249502
-0.176947
-0.0880784
0.0158693
0.126418
0.24464
0.37155
0.5075
0.655829
0.803111
0.933716
1.04553
1.10789
1.10393
1.06231
0.99344
0.917004
0.84529
0.805653
-0.279949
-0.260791
-0.197383
-0.107868
-0.00530815
0.105189
0.222994
0.349771
0.485729
0.634363
0.783029
0.91603
1.02428
1.09396
1.05369
0.918061
0.812013
0.738464
0.668796
0.687314
-0.309591
-0.277247
-0.212941
-0.12381
-0.0215782
0.0888793
0.207086
0.333522
0.468985
0.616807
0.764252
0.894932
0.991651
1.03138
0.952422
0.789672
0.665527
0.581831
0.494097
0.530241
-0.332108
-0.297479
-0.231459
-0.142253
-0.0400353
0.0705158
0.188782
0.314684
0.449189
0.595273
0.739637
0.864641
0.949106
0.950394
0.816806
0.643446
0.501331
0.398651
0.298311
0.320557
-0.353772
-0.318196
-0.250881
-0.161045
-0.058725
0.0517841
0.169652
0.294781
0.42798
0.571642
0.711372
0.826592
0.892499
0.859226
0.676689
0.485586
0.315889
0.174929
0.0455957
0.0478878
-0.374988
-0.339131
-0.270996
-0.180613
-0.0781571
0.0321707
0.149445
0.273575
0.40505
0.54561
0.679232
0.783669
0.827449
0.740608
0.537798
0.329556
0.136327
-0.0219979
-0.227747
-0.308887
-0.396448
-0.360768
-0.292209
-0.201476
-0.0988944
0.011251
0.127943
0.250954
0.380435
0.517347
0.64382
0.738253
0.752045
0.614443
0.409842
0.192271
-0.00457223
-0.167409
-0.289564
-0.400657
-0.419207
-0.383579
-0.314868
-0.224018
-0.121475
-0.0116492
0.104314
0.225948
0.352951
0.485382
0.603925
0.683884
0.668046
0.494162
0.289407
0.0785138
-0.101378
-0.199784
-0.225414
-0.238271
-0.443419
-0.40786
-0.339102
-0.248324
-0.146042
-0.0367572
0.0781692
0.19802
0.321945
0.448889
0.558321
0.618765
0.580231
0.37831
0.176189
-0.014045
-0.150206
-0.188564
-0.196738
-0.197109
-0.469381
-0.433744
-0.364952
-0.274382
-0.172549
-0.0640926
0.0494633
0.167085
0.287305
0.407845
0.507387
0.549553
0.473104
0.271596
0.0765669
-0.0887785
-0.16498
-0.178973
-0.179895
-0.17976
-0.497093
-0.461268
-0.392448
-0.302199
-0.201026
-0.0936641
0.0181643
0.133097
0.249022
0.362344
0.451037
0.474948
0.359911
0.17427
-0.00939197
-0.140347
-0.16935
-0.169904
-0.17039
-0.169974
-0.526314
-0.49028
-0.421504
-0.331712
-0.231405
-0.12544
-0.0157268
0.096057
0.207147
0.312513
0.390206
0.392938
0.260162
0.0858049
-0.0762582
-0.151996
-0.166643
-0.164571
-0.164254
-0.163848
-0.556496
-0.520437
-0.451868
-0.362701
-0.263515
-0.159281
-0.0520784
0.0560687
0.161916
0.258927
0.325053
0.310774
0.16926
0.00861834
-0.120804
-0.160147
-0.159535
-0.16003
-0.159801
-0.159492
-0.587198
-0.551216
-0.483061
-0.394763
-0.297015
-0.194874
-0.0906146
0.0134102
0.113638
0.202596
0.254772
0.23367
0.0884362
-0.0518135
-0.146335
-0.15491
-0.15658
-0.156966
-0.156928
-0.156763
-0.617434
-0.581761
-0.514372
-0.427277
-0.331364
-0.231746
-0.130869
-0.0314149
0.0627594
0.144418
0.185083
0.156165
0.0201246
-0.0940441
-0.150921
-0.161233
-0.156033
-0.155034
-0.154693
-0.154536
-0.645625
-0.610814
-0.544779
-0.459369
-0.36579
-0.269193
-0.172164
-0.0776486
0.010105
0.084882
0.12065
0.0774556
-0.035006
-0.126472
-0.149478
-0.152819
-0.153527
-0.153048
-0.152845
-0.152715
-0.670479
-0.636891
-0.572904
-0.489849
-0.399238
-0.30627
-0.213608
-0.124344
-0.0430354
0.0245741
0.0579572
0.0101441
-0.0765866
-0.145549
-0.166281
-0.156612
-0.153161
-0.152024
-0.151668
-0.1515
-0.689431
-0.657915
-0.597015
-0.517218
-0.430405
-0.341793
-0.254085
-0.170407
-0.0953418
-0.0346489
-0.00415841
-0.042423
-0.103992
-0.149107
-0.154452
-0.153653
-0.152014
-0.151367
-0.151125
-0.150953
-0.70051
-0.671845
-0.615077
-0.53976
-0.45778
-0.374381
-0.292267
-0.214566
-0.145687
-0.090161
-0.0608206
-0.0862532
-0.12015
-0.146383
-0.146371
-0.149811
-0.151169
-0.151301
-0.151283
-0.151201
-0.701075
-0.676356
-0.625043
-0.555659
-0.479749
-0.40258
-0.32673
-0.255333
-0.192816
-0.141331
-0.108147
-0.125696
-0.13389
-0.147911
-0.150765
-0.151406
-0.152116
-0.152427
-0.152553
-0.152551
-0.688735
-0.668777
-0.624799
-0.56321
-0.494871
-0.425028
-0.356153
-0.291193
-0.234929
-0.189364
-0.14387
-0.162265
-0.149481
-0.157347
-0.158667
-0.156517
-0.155799
-0.15595
-0.156142
-0.156143
-0.661566
-0.647038
-0.612597
-0.561238
-0.502125
-0.440749
-0.379518
-0.321054
-0.270277
-0.232325
-0.184311
-0.178861
-0.170548
-0.17513
-0.168389
-0.165243
-0.163152
-0.163051
-0.16332
-0.16334
-0.623057
-0.613819
-0.589756
-0.550095
-0.501585
-0.449514
-0.396266
-0.344332
-0.298353
-0.265862
-0.234308
-0.206444
-0.17869
-0.182365
-0.188085
-0.18098
-0.176817
-0.176063
-0.176494
-0.176502
-0.580229
-0.574957
-0.561173
-0.532897
-0.49536
-0.452202
-0.40652
-0.360686
-0.318572
-0.287272
-0.259208
-0.231516
-0.197006
-0.170796
-0.153032
-0.16219
-0.185642
-0.199262
-0.203081
-0.203441
-0.542717
-0.539484
-0.532879
-0.514896
-0.486291
-0.450617
-0.411306
-0.370097
-0.329948
-0.297148
-0.27132
-0.253635
-0.245115
-0.254889
-0.279505
-0.315291
-0.321298
-0.289241
-0.271159
-0.273234
-0.515671
-0.513754
-0.510425
-0.499794
-0.477966
-0.447842
-0.412528
-0.37354
-0.333207
-0.29656
-0.268707
-0.262603
-0.302131
-0.376012
-0.453871
-0.493336
-0.496857
-0.460277
-0.412163
-0.394984
-0.495826
-0.495153
-0.494042
-0.488793
-0.472837
-0.446333
-0.412197
-0.372859
-0.329555
-0.286211
-0.255752
-0.231349
-0.224351
-0.249504
-0.303736
-0.319545
-0.303389
-0.274992
-0.241593
-0.224613
-0.484167
-0.483947
-0.483344
-0.480965
-0.47016
-0.445809
-0.411308
-0.369787
-0.321792
-0.268897
-0.223742
-0.16142
-0.0834276
-0.0134027
0.0254959
0.0571106
0.0939577
0.129285
0.158549
0.17322
-0.476058
-0.475913
-0.475513
-0.474859
-0.468298
-0.446413
-0.410851
-0.365783
-0.312105
-0.247042
-0.180205
-0.0938011
0.047677
0.225403
0.394596
0.52959
0.618131
0.672411
0.701041
0.712869
-0.470709
-0.470667
-0.470556
-0.47041
-0.466558
-0.44817
-0.411573
-0.362253
-0.302523
-0.227005
-0.14189
-0.0459018
0.139038
0.395764
0.661807
0.89313
1.05426
1.1415
1.17978
1.19248
-0.466314
-0.466308
-0.466235
-0.466136
-0.46476
-0.450364
-0.413711
-0.360645
-0.295401
-0.212674
-0.116062
-0.0135754
0.181359
0.469128
0.782324
1.06618
1.27996
1.39807
1.44501
1.45906
-0.462586
-0.462577
-0.462449
-0.462181
-0.461989
-0.45202
-0.41713
-0.362275
-0.292697
-0.205887
-0.104667
0.000212593
0.18048
0.458639
0.764775
1.04883
1.27244
1.4008
1.45163
1.4645
-0.459803
-0.459811
-0.459763
-0.459704
-0.460068
-0.453106
-0.421872
-0.366374
-0.294874
-0.207533
-0.108457
-0.0104351
0.13841
0.386218
0.651051
0.890024
1.0845
1.20005
1.24512
1.25577
-0.457039
-0.457139
-0.457397
-0.457859
-0.458185
-0.454472
-0.426994
-0.372555
-0.301997
-0.2175
-0.125047
-0.0382888
0.0758936
0.279034
0.49549
0.678711
0.824874
0.912935
0.947287
0.954857
-0.454034
-0.454214
-0.454513
-0.454943
-0.455454
-0.45426
-0.431033
-0.379844
-0.312933
-0.233389
-0.149578
-0.0742257
0.00995229
0.16616
0.333452
0.467224
0.569491
0.630081
0.65283
0.657587
-0.4512
-0.451375
-0.451558
-0.451718
-0.452148
-0.451794
-0.432776
-0.387358
-0.326296
-0.253183
-0.178255
-0.114403
-0.0529562
0.0609614
0.186068
0.282658
0.353415
0.393902
0.40888
0.411829
-0.449307
-0.449338
-0.449046
-0.448116
-0.446837
-0.446015
-0.43234
-0.394756
-0.340683
-0.273777
-0.207912
-0.154498
-0.108118
-0.0237173
0.0679788
0.136129
0.184697
0.21258
0.222912
0.224479
-0.450272
-0.450092
-0.449216
-0.44686
-0.44287
-0.440329
-0.433513
-0.403759
-0.354632
-0.293227
-0.237455
-0.192265
-0.157705
-0.0935597
-0.0229985
0.0277528
0.0630993
0.0834738
0.0902873
0.0911519
-0.455372
-0.455264
-0.454851
-0.453814
-0.451877
-0.449985
-0.444214
-0.416857
-0.367403
-0.311988
-0.264224
-0.225752
-0.19716
-0.148784
-0.094236
-0.054464
-0.0257802
-0.00955986
-0.00372366
-0.00332424
-0.46171
-0.462198
-0.464042
-0.469256
-0.47706
-0.479553
-0.470048
-0.432961
-0.379284
-0.32971
-0.288097
-0.252746
-0.230253
-0.189994
-0.145591
-0.113729
-0.0903953
-0.0772256
-0.0731539
-0.0733209
-0.463359
-0.464438
-0.468608
-0.481187
-0.501569
-0.510867
-0.492179
-0.44279
-0.389635
-0.346456
-0.305665
-0.273065
-0.255638
-0.223321
-0.185834
-0.158938
-0.139644
-0.129158
-0.126034
-0.126477
-0.460729
-0.461601
-0.464634
-0.472131
-0.48466
-0.494924
-0.475752
-0.434964
-0.395214
-0.357121
-0.314931
-0.286945
-0.271465
-0.242483
-0.212219
-0.191057
-0.175853
-0.167986
-0.165619
-0.166059
-0.461829
-0.46222
-0.461974
-0.450484
-0.42215
-0.403492
-0.41012
-0.407654
-0.393598
-0.357676
-0.318823
-0.29319
-0.278965
-0.252161
-0.225709
-0.208823
-0.197734
-0.192533
-0.190731
-0.191081
-0.470129
-0.469448
-0.465251
-0.440425
-0.389163
-0.353415
-0.370609
-0.39741
-0.392055
-0.355405
-0.317701
-0.293756
-0.276565
-0.252244
-0.229713
-0.214914
-0.205368
-0.200486
-0.198699
-0.198992
-0.493053
-0.490395
-0.489205
-0.481112
-0.461835
-0.434063
-0.433031
-0.438406
-0.40974
-0.357079
-0.315032
-0.289867
-0.269449
-0.244449
-0.223289
-0.208543
-0.198166
-0.192399
-0.190414
-0.190783
-0.562772
-0.565987
-0.5882
-0.618191
-0.627393
-0.605855
-0.569529
-0.510512
-0.432739
-0.355961
-0.311404
-0.281195
-0.257527
-0.23315
-0.210502
-0.192626
-0.179831
-0.172671
-0.170381
-0.170898
-0.659213
-0.670569
-0.702248
-0.733563
-0.744142
-0.722628
-0.666355
-0.564071
-0.442251
-0.350083
-0.300222
-0.264876
-0.241873
-0.218205
-0.192596
-0.171117
-0.155396
-0.146495
-0.144074
-0.144872
-0.700844
-0.712421
-0.735259
-0.756973
-0.765758
-0.745287
-0.679774
-0.549232
-0.418368
-0.32847
-0.272355
-0.238468
-0.221933
-0.196523
-0.16795
-0.145486
-0.129507
-0.121078
-0.118998
-0.119886
-0.645818
-0.655028
-0.67205
-0.690061
-0.699367
-0.681858
-0.613273
-0.476274
-0.359231
-0.278337
-0.224504
-0.203047
-0.191781
-0.166112
-0.138822
-0.118353
-0.104108
-0.0972702
-0.0957975
-0.0966159
-0.50284
-0.512901
-0.530476
-0.549741
-0.560311
-0.54313
-0.472715
-0.363326
-0.273457
-0.203224
-0.164575
-0.156055
-0.147775
-0.124697
-0.102362
-0.0864618
-0.0761839
-0.0718606
-0.0712787
-0.0720336
-0.289925
-0.301842
-0.322096
-0.346316
-0.359075
-0.340692
-0.279844
-0.212353
-0.157347
-0.11454
-0.0983982
-0.0938431
-0.0900889
-0.0736484
-0.0593403
-0.0504883
-0.0444383
-0.0424056
-0.0426065
-0.0433029
0.0101086
-0.00674197
-0.0503312
-0.0798405
-0.085485
-0.0793469
-0.0671444
-0.0510915
-0.0375151
-0.0269373
-0.0233939
-0.0195651
-0.0197569
-0.0175793
-0.0139028
-0.0147611
-0.0147295
-0.014171
-0.011996
-0.0109685
0.169525
0.350512
0.515222
0.653411
0.761586
0.844548
0.912235
0.967148
0.980133
0.977688
0.44178
0.556718
0.663987
0.755737
0.831833
0.893806
0.942335
0.975138
0.992862
1.01007
0.625748
0.701802
0.776886
0.842314
0.897637
0.943357
0.979497
1.00738
1.02845
1.0478
0.762405
0.816638
0.871034
0.919732
0.961699
0.997479
1.02768
1.05316
1.07281
1.09172
0.873784
0.914798
0.955311
0.993346
1.02743
1.05767
1.08422
1.10685
1.1245
1.14259
0.967126
1.0014
1.03506
1.0674
1.09731
1.12448
1.14858
1.16893
1.18442
1.20191
1.05306
1.08414
1.11545
1.14579
1.17407
1.19984
1.22249
1.24109
1.25478
1.27178
1.13849
1.17055
1.2024
1.2331
1.26145
1.28686
1.30868
1.32598
1.33819
1.35468
1.23198
1.2682
1.30265
1.33479
1.36368
1.38877
1.40966
1.42578
1.43727
1.45337
1.34462
1.38532
1.42209
1.45471
1.48295
1.50676
1.52623
1.54139
1.5532
1.56923
1.48599
1.52677
1.56187
1.59126
1.61631
1.63781
1.65622
1.67164
1.6847
1.70062
1.65717
1.68906
1.71599
1.73831
1.75834
1.777
1.79469
1.81143
1.8263
1.84201
1.84316
1.86032
1.87739
1.89405
1.91012
1.92483
1.93871
1.95317
1.96838
1.98568
2.02652
2.0364
2.04955
2.06052
2.06993
2.07957
2.09016
2.10031
2.10959
2.13526
2.24427
2.23856
2.22561
2.21136
2.20505
2.21073
2.22887
2.25739
2.29115
2.32747
2.5471
2.41116
2.33163
2.28905
2.27172
2.27571
2.30313
2.36099
2.46864
2.64705
0.965696
0.959395
0.951669
0.94056
0.926997
0.914361
0.903983
0.895999
0.890321
0.887045
0.886764
0.889666
0.894954
0.902352
0.911931
0.923782
0.937359
0.950298
0.959294
0.966839
0.874746
0.880667
0.888744
0.894884
0.897963
0.897465
0.8944
0.890434
0.886888
0.884663
0.884605
0.886933
0.890747
0.895237
0.899372
0.901641
0.900584
0.89596
0.888913
0.881083
0.867964
0.870337
0.87361
0.876392
0.878855
0.881062
0.882265
0.882152
0.881263
0.880522
0.880822
0.882321
0.884171
0.885452
0.885415
0.883977
0.88184
0.879494
0.876523
0.87351
0.86313
0.864218
0.866142
0.868491
0.870378
0.871798
0.873044
0.874077
0.874732
0.875187
0.87584
0.876682
0.877229
0.877172
0.87659
0.875703
0.874398
0.872448
0.870354
0.868881
0.858047
0.85868
0.859816
0.861588
0.863451
0.865069
0.866355
0.867466
0.868513
0.869502
0.870405
0.871043
0.871276
0.871142
0.870662
0.869732
0.868337
0.866752
0.865431
0.864633
0.853046
0.853485
0.85428
0.855601
0.857147
0.858741
0.860261
0.861613
0.862846
0.864041
0.865133
0.865876
0.86617
0.866024
0.86543
0.864485
0.863373
0.86226
0.861376
0.860846
0.848116
0.848443
0.849063
0.850152
0.851477
0.852914
0.854443
0.855985
0.857469
0.858901
0.860215
0.86113
0.861497
0.861363
0.860853
0.860138
0.859345
0.858529
0.857889
0.857502
0.843229
0.843482
0.843984
0.844919
0.846126
0.847479
0.848962
0.85057
0.852261
0.853976
0.855573
0.856698
0.857212
0.857251
0.856979
0.856518
0.855951
0.855372
0.854917
0.854621
0.83831
0.83851
0.83893
0.839758
0.840894
0.84221
0.84369
0.84536
0.847214
0.849207
0.85114
0.852573
0.853364
0.85368
0.853676
0.853464
0.853121
0.852746
0.852435
0.852203
0.833268
0.833428
0.83379
0.834549
0.835647
0.836956
0.838481
0.840255
0.842295
0.844584
0.846917
0.848768
0.849935
0.850585
0.850871
0.850918
0.850811
0.850626
0.850435
0.85025
0.828011
0.828139
0.82846
0.829179
0.830269
0.831616
0.833227
0.835154
0.837439
0.840092
0.842911
0.845277
0.846896
0.847934
0.848553
0.848884
0.849014
0.849017
0.848931
0.848782
0.822441
0.822544
0.822838
0.823542
0.824661
0.82609
0.827833
0.829971
0.832575
0.835687
0.839103
0.842087
0.844239
0.845729
0.846727
0.84737
0.847768
0.847958
0.847963
0.847841
0.816454
0.816534
0.816813
0.817528
0.818711
0.820265
0.822198
0.824617
0.827628
0.83131
0.835455
0.839183
0.84197
0.843988
0.845424
0.846442
0.847122
0.847498
0.847587
0.847485
0.809928
0.809989
0.810262
0.811011
0.812294
0.814022
0.816212
0.818996
0.822519
0.826902
0.831932
0.836554
0.840097
0.84274
0.844683
0.846118
0.847125
0.847706
0.847876
0.84779
0.802724
0.802761
0.803039
0.803844
0.805268
0.807225
0.809746
0.812993
0.817153
0.822397
0.828498
0.834191
0.838635
0.842017
0.844562
0.84648
0.847862
0.848666
0.848916
0.848841
0.794666
0.794685
0.794967
0.795851
0.797458
0.799711
0.802652
0.806479
0.811428
0.817723
0.825116
0.832092
0.837601
0.841856
0.845116
0.847615
0.849424
0.85047
0.850799
0.850731
0.785499
0.785506
0.785814
0.786805
0.788651
0.791278
0.794748
0.799298
0.805222
0.8128
0.821752
0.830252
0.837023
0.842304
0.846406
0.849599
0.851901
0.853209
0.853616
0.85355
0.774957
0.774938
0.775287
0.776427
0.778573
0.781674
0.785809
0.791264
0.798395
0.807542
0.818367
0.828672
0.836926
0.843417
0.848513
0.852504
0.855376
0.856967
0.857446
0.857377
0.762653
0.762613
0.763014
0.764344
0.766872
0.77058
0.775561
0.782154
0.790788
0.801856
0.814929
0.827359
0.837339
0.845236
0.851495
0.856406
0.859918
0.861801
0.862341
0.862262
0.748069
0.748007
0.748489
0.750074
0.753093
0.757588
0.763658
0.771706
0.782226
0.795653
0.811413
0.826324
0.83829
0.847792
0.855398
0.861352
0.865559
0.867724
0.868305
0.868209
0.730481
0.730396
0.731008
0.73295
0.736628
0.74217
0.749676
0.759615
0.772534
0.788862
0.807818
0.825594
0.839805
0.851123
0.860216
0.867338
0.872272
0.874679
0.875268
0.875147
0.70885
0.708748
0.709572
0.712038
0.716643
0.723635
0.7331
0.745558
0.761559
0.781463
0.804177
0.825202
0.841915
0.85523
0.865949
0.874327
0.879951
0.882515
0.883066
0.882913
0.681594
0.681494
0.682674
0.685953
0.691978
0.70109
0.713348
0.729242
0.749232
0.77351
0.80058
0.825214
0.844642
0.860103
0.872553
0.882201
0.888385
0.890965
0.891424
0.891236
0.646149
0.646108
0.647938
0.65263
0.661043
0.673514
0.689898
0.710531
0.735639
0.765169
0.797181
0.825729
0.848021
0.865719
0.879938
0.890756
0.897245
0.899651
0.899965
0.899747
0.597963
0.598163
0.601438
0.609121
0.622005
0.640027
0.662568
0.689619
0.721101
0.756738
0.794193
0.826881
0.852102
0.872024
0.88797
0.89971
0.906093
0.908105
0.908245
0.908011
0.528494
0.530021
0.538032
0.552647
0.573822
0.600717
0.631963
0.667189
0.706188
0.74862
0.791844
0.828769
0.856919
0.878944
0.89636
0.908554
0.914354
0.915796
0.915781
0.915562
0.445445
0.448383
0.464031
0.489377
0.521954
0.559285
0.599913
0.643706
0.690582
0.7403
0.789973
0.831904
0.863706
0.888406
0.90726
0.919268
0.924187
0.925136
0.925072
0.924944
0.360144
0.367792
0.39136
0.427414
0.470975
0.518535
0.568535
0.620914
0.675666
0.732612
0.788655
0.835498
0.870815
0.898132
0.918269
0.929534
0.933055
0.933455
0.933364
0.93329
0.290044
0.299929
0.328492
0.372122
0.424266
0.48045
0.538864
0.599256
0.661467
0.72523
0.787178
0.838467
0.876882
0.906258
0.926934
0.937251
0.93994
0.940163
0.940086
0.94004
0.232371
0.243032
0.275411
0.324637
0.383247
0.446282
0.51171
0.579078
0.647994
0.717998
0.785368
0.840723
0.881937
0.91305
0.934034
0.943551
0.945684
0.94581
0.945746
0.945716
0.183865
0.194913
0.229931
0.283502
0.347356
0.416036
0.487335
0.560686
0.635505
0.711126
0.783438
0.842506
0.886275
0.918947
0.940101
0.948893
0.950641
0.950709
0.950653
0.950631
0.142115
0.153335
0.190312
0.247356
0.315566
0.389063
0.465449
0.544044
0.624119
0.70481
0.781622
0.844057
0.890127
0.924131
0.945322
0.953505
0.954988
0.955011
0.954953
0.954933
0.105401
0.116681
0.155185
0.215095
0.287005
0.364673
0.445556
0.528867
0.613734
0.699081
0.780019
0.845495
0.893572
0.928669
0.949803
0.957485
0.958781
0.958764
0.958695
0.958671
0.0724657
0.083762
0.123468
0.185843
0.260965
0.342302
0.427201
0.514813
0.604121
0.693843
0.778629
0.846852
0.896658
0.93263
0.953597
0.960853
0.962013
0.961963
0.961881
0.961849
0.0422748
0.0536023
0.0943673
0.158921
0.236897
0.321494
0.410014
0.501577
0.595057
0.688957
0.777423
0.848177
0.899457
0.936032
0.956726
0.963598
0.964664
0.9646
0.964515
0.964475
0.0142408
0.0256064
0.0673101
0.133824
0.21435
0.301884
0.393702
0.488921
0.586345
0.684302
0.776392
0.849566
0.902095
0.939005
0.959271
0.965766
0.966771
0.966727
0.966663
0.966623
-0.0121344
-0.000720208
0.0418544
0.110152
0.192984
0.283183
0.378027
0.476651
0.577834
0.679783
0.775548
0.851138
0.904746
0.941721
0.961386
0.967487
0.968456
0.968475
0.968463
0.968435
-0.0372558
-0.0257074
0.0176763
0.0876216
0.172551
0.265168
0.362803
0.464613
0.569386
0.675303
0.774896
0.853031
0.907633
0.944425
0.963313
0.968985
0.969931
0.970043
0.970109
0.970107
-0.0612771
-0.0495771
-0.00542566
0.0660255
0.152864
0.247692
0.347891
0.452679
0.560886
0.670744
0.7744
0.855386
0.911017
0.947396
0.965307
0.9705
0.97143
0.971647
0.9718
0.971832
-0.0844142
-0.0725124
-0.0276285
0.0452349
0.133805
0.230638
0.333189
0.440749
0.552231
0.665996
0.773972
0.85829
0.91518
0.950956
0.967611
0.97222
0.973143
0.97347
0.973688
0.973745
-0.106687
-0.0946019
-0.0490185
0.0251684
0.115298
0.213939
0.31864
0.428761
0.54334
0.660938
0.773478
0.861751
0.920404
0.955511
0.97048
0.974196
0.975096
0.975581
0.975841
0.975893
-0.128227
-0.115911
-0.0696158
0.00577983
0.0972918
0.197554
0.304201
0.416676
0.53415
0.655465
0.772748
0.865679
0.926919
0.961577
0.974309
0.976423
0.977042
0.977814
0.978319
0.978413
-0.148911
-0.136454
-0.0894597
-0.0129743
0.079771
0.181489
0.289864
0.404472
0.524626
0.649497
0.771601
0.869877
0.934821
0.969762
0.979931
0.979408
0.978884
0.979985
0.981444
0.982019
-0.168918
-0.156242
-0.10857
-0.0311218
0.0627154
0.165726
0.275652
0.392149
0.51475
0.64298
0.769861
0.874064
0.943995
0.980591
0.988703
0.984844
0.981942
0.982951
0.986192
0.988277
-0.188137
-0.175241
-0.126975
-0.0486547
0.0461636
0.150302
0.261595
0.379761
0.504536
0.635848
0.767368
0.877898
0.954107
0.994168
1.00176
0.995028
0.989128
0.989089
0.994051
0.999073
-0.206664
-0.193553
-0.14465
-0.0655474
0.030116
0.135246
0.247736
0.367333
0.494016
0.62812
0.763997
0.880979
0.964603
1.00999
1.0191
1.01117
1.00255
0.998961
0.99805
0.994215
-0.224427
-0.211163
-0.161694
-0.0819802
0.0143443
0.120279
0.233753
0.354487
0.482792
0.619378
0.759368
0.882967
0.975392
1.02829
1.04101
1.03371
1.02296
1.01172
0.999559
1.00075
-0.241427
-0.228173
-0.178137
-0.0979124
-0.00115958
0.105416
0.219651
0.341171
0.470781
0.609409
0.753117
0.883037
0.985223
1.04796
1.06548
1.05967
1.04546
1.03077
0.993821
0.957436
-0.257492
-0.244455
-0.193978
-0.113223
-0.0164183
0.0906316
0.205399
0.327481
0.457989
0.598145
0.744943
0.880393
0.992087
1.06685
1.08973
1.08147
1.06194
1.02768
0.973518
0.922123
-0.275327
-0.258934
-0.209028
-0.127448
-0.0311536
0.076161
0.190604
0.313437
0.444469
0.585629