/*--------------------------------*- C++ -*----------------------------------*\
  =========                 |
  \\      /  F ield         | OpenFOAM: The Open Source CFD Toolbox
   \\    /   O peration     | Website:  https://openfoam.org
    \\  /    A nd           | Version:  6
     \\/     M anipulation  |
\*---------------------------------------------------------------------------*/
FoamFile
{
    version     2.0;
    format      ascii;
    class       surfaceScalarField;
    location    "20.4";
    object      phi;
}
// * * * * * * * * * * * * * * * * * * * * * * * * * * * * * * * * * * * * * //

dimensions      [0 3 -1 0 0 0 0];

internalField   nonuniform List<scalar> 
17370
(
-0.0899997
0.0898473
0.289163
-0.0714598
0.0537488
0.364487
-0.0381148
0.027685
0.426598
-0.0196316
0.0145977
0.504286
-0.0107559
0.00826784
0.60189
-0.00626994
0.00488896
0.720438
-0.0037154
0.00286566
0.863756
-0.00211908
0.00156581
1.036
-0.00106592
0.000677955
1.24289
-0.000297999
-5.10519e-05
1.49154
0.000397312
-0.000781936
1.49158
0.00116963
-0.00166323
1.24318
0.00221091
-0.00295385
1.03638
0.00380046
-0.0049678
0.864074
0.00634038
-0.0083291
0.721046
0.010811
-0.0146477
0.603051
0.019677
-0.0277248
0.507487
0.0381493
-0.0537772
0.431796
0.0714826
-0.0898624
0.365155
0.0900086
0.199002
-0.128137
0.0882356
0.0399014
-0.364598
0.353384
-0.0746556
0.0858697
-0.446475
0.454322
-0.0843603
0.0765133
-0.521194
0.529909
-0.0684117
0.0596961
-0.612779
0.621574
-0.0515024
0.0427074
-0.726846
0.734138
-0.0352208
0.0279286
-0.867439
0.872505
-0.0223334
0.0172682
-1.03846
1.04183
-0.0135249
0.010162
-1.24463
1.24698
-0.00763178
0.00527741
-1.49267
1.49463
-0.00336747
0.00140883
-1.49246
1.49421
0.000312261
-0.00206715
-1.24401
1.24589
0.00398699
-0.00585976
-1.03752
1.04
0.00817371
-0.0106626
-0.86608
0.869784
0.01398
-0.0176846
-0.724361
0.729927
0.022711
-0.0282764
-0.608692
0.616148
0.0355374
-0.0429931
-0.514918
0.523083
0.0517545
-0.05992
-0.43987
0.44795
0.0686066
-0.0766861
-0.375308
0.376785
0.084507
-0.0859845
-0.25736
0.222558
0.0747334
-0.0399314
-0.0685282
0.0587125
0.00981565
-0.0517459
0.0583145
-0.374125
0.367556
-0.0573954
0.0536517
-0.453579
0.457322
-0.0485821
0.0446506
-0.527916
0.531847
-0.0408273
0.037195
-0.621553
0.625186
-0.0330864
0.0290013
-0.735322
0.739407
-0.0244268
0.0202784
-0.874247
0.878395
-0.0159921
0.0123564
-1.04339
1.04703
-0.00871464
0.0056448
-1.2485
1.25157
-0.00243879
-0.000555025
-1.49661
1.4996
0.00353116
-0.00669659
-1.49719
1.50035
0.00972971
-0.013317
-1.25004
1.25363
0.0168941
-0.0211141
-1.0459
1.05012
0.0252003
-0.0297078
-0.877783
0.882291
0.0337331
-0.037778
-0.739989
0.744034
0.041355
-0.0451207
-0.626832
0.630597
0.0490035
-0.0540266
-0.534853
0.539876
0.0577218
-0.0585827
-0.457538
0.458399
0.051948
-0.0318586
-0.335877
0.315787
0.00984876
-0.0684349
0.0585862
-0.0529796
0.0490036
0.00397598
-0.0330449
0.0435552
-0.358161
0.34765
-0.0472228
0.0465581
-0.459291
0.459955
-0.0434427
0.040021
-0.535768
0.53919
-0.0361927
0.0328827
-0.628468
0.631778
-0.0294897
0.0265262
-0.742562
0.745525
-0.0233733
0.0203805
-0.881881
0.884874
-0.0169824
0.0137277
-1.05054
1.0538
-0.0100809
0.00665931
-1.25491
1.25833
-0.00281672
-0.0008713
-1.50307
1.50676
0.00454083
-0.00832911
-1.50395
1.50774
0.0116735
-0.0152221
-1.25728
1.26083
0.0183843
-0.0216755
-1.05389
1.05718
0.0245689
-0.0276136
-0.885777
0.888821
0.0304788
-0.0337691
-0.747297
0.750588
0.0369925
-0.0407379
-0.634438
0.638184
0.0440923
-0.0471329
-0.544272
0.547313
0.0477211
-0.0439481
-0.456788
0.453015
0.0333153
-0.0160409
-0.296573
0.279298
0.00401674
-0.0528172
0.0488004
-0.0459474
0.0434887
0.00245867
-0.0225282
0.0327907
-0.337015
0.326753
-0.0385543
0.0395957
-0.459612
0.458571
-0.0384853
0.0363088
-0.541873
0.544049
-0.033734
0.0311735
-0.634809
0.637369
-0.028121
0.0252287
-0.748536
0.751428
-0.0219884
0.01905
-0.887768
0.890707
-0.0158312
0.0128428
-1.05687
1.05985
-0.00946411
0.00622781
-1.26169
1.26492
-0.00249542
-0.00114982
-1.51045
1.5141
0.00477339
-0.00844482
-1.51151
1.51518
0.0115919
-0.0148484
-1.26423
1.26748
0.017708
-0.0207779
-1.06027
1.06334
0.0235807
-0.0266765
-0.891902
0.894998
0.0294475
-0.0323806
-0.753859
0.756792
0.0348369
-0.0373001
-0.641308
0.643771
0.0393833
-0.0403789
-0.549155
0.550151
0.0392231
-0.0332989
-0.447855
0.441931
0.0228643
-0.0099564
-0.264313
0.251405
0.00250768
-0.0456989
0.0431912
-0.0414547
0.0397408
0.00171385
-0.0162974
0.0253249
-0.317057
0.308029
-0.031742
0.0337655
-0.457004
0.454981
-0.0332676
0.0315642
-0.545935
0.547638
-0.029414
0.027403
-0.639566
0.641577
-0.0251246
0.0229154
-0.75401
0.756219
-0.020288
0.0177228
-0.893535
0.896101
-0.0147494
0.0119309
-1.06277
1.06558
-0.0086968
0.00560783
-1.26806
1.27115
-0.00199854
-0.0015396
-1.5177
1.52124
0.00503961
-0.00854527
-1.51875
1.52225
0.0115032
-0.0145729
-1.27063
1.2737
0.0172282
-0.0200157
-1.06633
1.06911
0.0224083
-0.0248521
-0.897862
0.900305
0.0269023
-0.0290078
-0.759268
0.761374
0.0308756
-0.0328863
-0.645906
0.647916
0.0344655
-0.0348121
-0.550746
0.551093
0.0326163
-0.0259668
-0.435557
0.428908
0.0167114
-0.00702131
-0.24024
0.23055
0.001774
-0.0411027
0.0393287
-0.0382841
0.0370316
0.00125248
-0.0121081
0.0196976
-0.299722
0.292133
-0.0261661
0.0289702
-0.452537
0.449733
-0.0291626
0.0280663
-0.54909
0.550187
-0.0261306
0.024285
-0.643496
0.645342
-0.0222143
0.0202662
-0.758211
0.760159
-0.0180244
0.0158275
-0.89841
0.900607
-0.0132087
0.0106263
-1.06829
1.07087
-0.00760605
0.00468568
-1.27418
1.2771
-0.00129894
-0.00198093
-1.52468
1.52796
0.00522286
-0.00848751
-1.52569
1.52895
0.0112507
-0.0140631
-1.27667
1.27948
0.0164361
-0.0188109
-1.07167
1.07404
0.0207843
-0.0227862
-0.902415
0.904417
0.0245286
-0.0263871
-0.763304
0.765163
0.0280505
-0.0298042
-0.649821
0.651574
0.0307073
-0.0302979
-0.55109
0.55068
0.027253
-0.0204785
-0.422133
0.415359
0.0126064
-0.00521782
-0.22211
0.214721
0.00132468
-0.0378062
0.0364815
-0.035958
0.0350582
0.000899786
-0.00884131
0.0149205
-0.285284
0.279205
-0.0208666
0.0240026
-0.446688
0.443552
-0.0247879
0.0242374
-0.550945
0.551495
-0.0227338
0.0211906
-0.647055
0.648598
-0.0193987
0.0176275
-0.762062
0.763833
-0.015568
0.0135675
-0.902746
0.904747
-0.0112441
0.00896782
-1.07332
1.0756
-0.00629051
0.00365292
-1.27988
1.28252
-0.000549936
-0.0025106
-1.53109
1.53415
0.00552044
-0.00846491
-1.53204
1.53498
0.0108898
-0.0132859
-1.2821
1.2845
0.0152799
-0.0172859
-1.07628
1.07828
0.0190036
-0.0207658
-0.906345
0.908107
0.0222724
-0.0238065
-0.766893
0.768427
0.0251269
-0.026396
-0.653097
0.654366
0.0267192
-0.0256502
-0.549901
0.548832
0.0221994
-0.0158655
-0.408732
0.402398
0.00944257
-0.00386588
-0.208274
0.202697
0.000987948
-0.035328
0.0343401
-0.0343127
0.0336865
0.000626155
-0.00628264
0.0109468
-0.273868
0.269204
-0.0160314
0.0191048
-0.440428
0.437355
-0.020213
0.0198797
-0.551936
0.552269
-0.0186881
0.017351
-0.650011
0.651348
-0.0157759
0.0142641
-0.765459
0.766971
-0.0125108
0.010806
-0.906578
0.908283
-0.00881475
0.00686688
-1.07768
1.07963
-0.00455579
0.00226197
-1.28499
1.28728
0.000483677
-0.00320501
-1.5371
1.53982
0.00585445
-0.00839881
-1.53775
1.5403
0.0104311
-0.0123902
-1.28666
1.28862
0.0139879
-0.0155975
-1.08006
1.08167
0.0169587
-0.0183367
-0.909665
0.911043
0.0194947
-0.0206999
-0.769773
0.770978
0.0217334
-0.0226071
-0.655417
0.65629
0.022629
-0.0211319
-0.547532
0.546034
0.0176502
-0.0120885
-0.396439
0.390877
0.00701147
-0.00285104
-0.197885
0.193724
0.00073522
-0.0334971
0.0327619
-0.0331633
0.0327591
0.000404214
-0.00406548
0.0074213
-0.265184
0.261828
-0.0115266
0.0143645
-0.434371
0.431533
-0.0157149
0.0156617
-0.552477
0.55253
-0.0147858
0.0136772
-0.652614
0.653723
-0.0124096
0.0112193
-0.768351
0.769541
-0.0098145
0.00839768
-0.909852
0.911269
-0.00665002
0.00489053
-1.08148
1.08324
-0.0027891
0.000722027
-1.28943
1.2915
0.00168301
-0.00398954
-1.54228
1.54459
0.00621289
-0.00836757
-1.5426
1.54476
0.0100915
-0.0117493
-1.29044
1.2921
0.0130547
-0.0142569
-1.0831
1.0843
0.0151883
-0.0161048
-0.912187
0.913104
0.0169074
-0.0177785
-0.772061
0.772932
0.0185366
-0.0190068
-0.657
0.65747
0.018671
-0.0168306
-0.544363
0.542523
0.0134827
-0.00879536
-0.385732
0.381045
0.00494545
-0.00200559
-0.190171
0.187231
0.000538687
-0.03212
0.0315813
-0.0324851
0.0323392
0.000145978
-0.00189687
0.00394769
-0.259141
0.25709
-0.00694331
0.00940212
-0.428871
0.426412
-0.0109509
0.011325
-0.552389
0.552015
-0.0110436
0.0103967
-0.654615
0.655261
-0.00949077
0.00851978
-0.770626
0.771597
-0.0073183
0.00605632
-0.912579
0.913841
-0.00452348
0.00297561
-1.08485
1.0864
-0.00110226
-0.000756446
-1.29346
1.29532
0.00294087
-0.00504175
-1.5468
1.5489
0.00703735
-0.00890575
-1.54678
1.54865
0.0103402
-0.0116431
-1.29356
1.29487
0.0126422
-0.0135779
-1.08535
1.08629
0.0143021
-0.0149397
-0.913872
0.914509
0.0153622
-0.0156647
-0.773506
0.773809
0.0158056
-0.0155186
-0.657578
0.657291
0.0146086
-0.0124124
-0.540499
0.538303
0.00931913
-0.00562568
-0.376849
0.373155
0.0029821
-0.0011688
-0.184895
0.183082
0.000313863
-0.0311616
0.0308478
-0.0322924
0.0323189
-2.64756e-05
-0.000505004
0.00155611
-0.255588
0.254536
-0.00346176
0.00535725
-0.424193
0.422298
-0.00687924
0.00751331
-0.551468
0.550834
-0.00756308
0.00718898
-0.655739
0.656113
-0.00656741
0.0058679
-0.772479
0.773179
-0.00490468
0.00384396
-0.915055
0.916116
-0.00247708
0.00104317
-1.08788
1.08932
0.000695959
-0.00241785
-1.29706
1.29878
0.0044435
-0.00637843
-1.55087
1.55281
0.00816145
-0.00973673
-1.55037
1.55194
0.0108766
-0.0118872
-1.29606
1.29708
0.0125898
-0.0131069
-1.08705
1.08757
0.0133799
-0.0135355
-0.914906
0.915062
0.0135911
-0.013558
-0.773876
0.773843
0.013351
-0.0126267
-0.656728
0.656004
0.0113591
-0.00906775
-0.536015
0.533723
0.00641307
-0.00365982
-0.369957
0.367204
0.00187092
-0.000709408
-0.181672
0.180511
0.000180973
-0.0306222
0.0304413
-0.032394
0.0324974
-0.000103381
7.33218e-05
0.00043764
-0.253812
0.253301
-0.00151892
0.00270644
-0.420768
0.41958
-0.00374577
0.00418028
-0.550281
0.549847
-0.00414536
0.00383118
-0.656445
0.656759
-0.00329042
0.0026919
-0.773839
0.774438
-0.001922
0.00104194
-0.917059
0.917939
0.000146466
-0.00140285
-1.09061
1.09187
0.00294475
-0.00449303
-1.30038
1.30193
0.00630268
-0.00802124
-1.55464
1.55636
0.00956177
-0.01083
-1.55342
1.55469
0.0116579
-0.0122719
-1.29787
1.29848
0.0125919
-0.012723
-1.08784
1.08797
0.0126733
-0.0124836
-0.915011
0.914821
0.0122709
-0.0119879
-0.773664
0.773381
0.011563
-0.0107096
-0.655215
0.654362
0.00942022
-0.00738577
-0.531551
0.529517
0.00524095
-0.00308916
-0.364821
0.362669
0.00164322
-0.000640263
-0.179488
0.178485
0.000161584
-0.0302915
0.0301299
-0.0326112
0.0327387
-0.00012755
0.000305403
8.25143e-06
-0.252915
0.252601
-0.000746871
0.0015268
-0.418673
0.417893
-0.00212291
0.00226666
-0.549591
0.549447
-0.00198841
0.00146871
-0.657153
0.657673
-0.000773927
0.000103895
-0.775153
0.775823
0.000748694
-0.00167849
-0.918823
0.919753
0.00285778
-0.00406349
-1.09298
1.09419
0.00551591
-0.0069405
-1.30332
1.30474
0.00854891
-0.00998043
-1.55787
1.5593
0.0111933
-0.0121334
-1.5558
1.55674
0.0126892
-0.0130452
-1.29898
1.29934
0.0132069
-0.0132004
-1.08805
1.08804
0.0130366
-0.0127202
-0.914525
0.914208
0.0123439
-0.0118372
-0.772861
0.772354
0.0112745
-0.0104257
-0.6535
0.652652
0.00925595
-0.00742573
-0.527681
0.525851
0.00543588
-0.00333756
-0.360637
0.358539
0.00184537
-0.000752772
-0.177474
0.176381
0.000200636
-0.0299706
0.02977
-0.0328795
0.0330325
-0.000152945
0.000542135
-0.000332272
-0.252346
0.252136
-0.000367555
0.00120338
-0.417165
0.416329
-0.00188446
0.00198413
-0.54937
0.54927
-0.00165727
0.00104077
-0.658292
0.658908
-0.000240756
-0.000602534
-0.776697
0.777541
0.00167822
-0.00284309
-0.920724
0.921889
0.00430539
-0.00577901
-1.09537
1.09685
0.00752671
-0.00918536
-1.30616
1.30781
0.0110003
-0.0125559
-1.56069
1.56224
0.0138393
-0.0148359
-1.5577
1.5587
0.0153914
-0.0156802
-1.29964
1.29993
0.01566
-0.0153945
-1.08789
1.08762
0.0150748
-0.014747
-0.913846
0.913518
0.0143791
-0.0138796
-0.771767
0.771268
0.0133455
-0.0123451
-0.651788
0.650788
0.0108531
-0.00854571
-0.523963
0.521656
0.00615284
-0.00375349
-0.356358
0.353959
0.00210408
-0.000894688
-0.175258
0.174048
0.000254805
-0.0295663
0.0293115
-0.0332051
0.0334057
-0.000200665
0.00102313
-0.00111485
-0.252084
0.252176
0.00057361
0.000405462
-0.415455
0.414476
-0.00158784
0.00223539
-0.548931
0.548283
-0.00228055
0.00200525
-0.659384
0.659659
-0.00125347
0.000295796
-0.778689
0.779647
0.0010905
-0.00267691
-0.923206
0.924792
0.00469117
-0.00672141
-1.09842
1.10045
0.00908868
-0.0113122
-1.30963
1.31185
0.0137337
-0.0158561
-1.564
1.56612
0.0176443
-0.0190718
-1.55989
1.56132
0.0199487
-0.0205374
-1.30041
1.301
0.0208193
-0.020894
-1.08744
1.08751
0.0207331
-0.0202208
-0.912974
0.912461
0.0195314
-0.0186472
-0.770561
0.769677
0.0173598
-0.0152925
-0.649402
0.647335
0.0127214
-0.00943582
-0.518992
0.515706
0.00654899
-0.00396124
-0.351524
0.348937
0.00226234
-0.00100053
-0.172856
0.171594
0.000299199
-0.029061
0.0287618
-0.0336536
0.0339331
-0.000279536
0.00166171
-0.00220521
-0.252451
0.252995
0.0022241
-0.00148788
-0.413662
0.412926
9.08059e-05
0.00114329
-0.547267
0.546033
-0.0018123
0.0017358
-0.659813
0.65989
-0.00121523
0.000310196
-0.780793
0.781698
0.00129492
-0.00328645
-0.926464
0.928455
0.00588686
-0.00848747
-1.10263
1.10523
0.0114884
-0.0142891
-1.31429
1.31709
0.0173335
-0.0199916
-1.56848
1.57114
0.0222539
-0.0240593
-1.56298
1.56478
0.0251865
-0.025965
-1.30179
1.30256
0.02635
-0.0263979
-1.08756
1.0876
0.0260346
-0.0252965
-0.911679
0.910941
0.0243275
-0.0226017
-0.768362
0.766637
0.0201953
-0.0168881
-0.644686
0.641379
0.0133845
-0.00955789
-0.512196
0.50837
0.00658519
-0.00408009
-0.346475
0.34397
0.00241451
-0.00110758
-0.170373
0.169066
0.000341538
-0.0284709
0.0281294
-0.0342836
0.034673
-0.000389387
0.00243429
-0.00351157
-0.253777
0.254855
0.00427806
-0.0043197
-0.412649
0.412691
0.00346115
-0.00234957
-0.54481
0.543698
0.00130408
-0.00100799
-0.659722
0.659426
0.00151596
-0.0026527
-0.78284
0.783977
0.00466836
-0.00699185
-0.930511
0.932834
0.00989773
-0.0127663
-1.10786
1.11073
0.0160569
-0.0190921
-1.31995
1.32299
0.022335
-0.0250825
-1.57383
1.57658
0.0272953
-0.0289471
-1.56657
1.56822
0.0298357
-0.0302998
-1.30331
1.30378
0.0303121
-0.0299348
-1.08736
1.08698
0.029261
-0.0281087
-0.909935
0.908783
0.0263829
-0.0237287
-0.76431
0.761656
0.0206734
-0.0168224
-0.637758
0.633907
0.0131829
-0.00951436
-0.504734
0.501066
0.00676608
-0.00439258
-0.341676
0.339303
0.00269801
-0.00126833
-0.167786
0.166357
0.000395724
-0.0278024
0.0274067
-0.035149
0.0356853
-0.000536249
0.0033898
-0.00504947
-0.256268
0.257928
0.00664153
-0.00758022
-0.413225
0.414163
0.00784142
-0.00760934
-0.543231
0.542999
0.00730263
-0.00737734
-0.659233
0.659307
0.00819476
-0.00961553
-0.785184
0.786605
0.0117448
-0.0140816
-0.934966
0.937302
0.0169793
-0.0198262
-1.11345
1.1163
0.0230539
-0.0259658
-1.32588
1.32879
0.0289581
-0.0313289
-1.57911
1.58148
0.0330374
-0.0340463
-1.56957
1.57058
0.0343021
-0.0339856
-1.30395
1.30363
0.033281
-0.0321642
-1.08617
1.08505
0.0307897
-0.0287408
-0.907006
0.904957
0.0264148
-0.0233922
-0.758621
0.755599
0.0202582
-0.0165979
-0.630172
0.626511
0.0133072
-0.0100211
-0.497822
0.494536
0.00745252
-0.00503822
-0.337123
0.334708
0.00316316
-0.00150152
-0.164923
0.163261
0.000468302
-0.0270272
0.0265589
-0.0363183
0.0370225
-0.000704149
0.00444478
-0.00670727
-0.259941
0.262203
0.00907725
-0.0108693
-0.415596
0.417388
0.0121869
-0.013023
-0.543679
0.544515
0.0138567
-0.0148609
-0.659943
0.660947
0.0164321
-0.0182921
-0.787971
0.789831
0.020729
-0.0232312
-0.939431
0.941933
0.0262014
-0.0290148
-1.11891
1.12172
0.032087
-0.0347314
-1.33143
1.33408
0.0372589
-0.039012
-1.58348
1.58523
0.0399482
-0.0400481
-1.57114
1.57124
0.0394442
-0.03817
-1.30287
1.3016
0.0366262
-0.0345658
-1.08333
1.08127
0.0323523
-0.0296618
-0.902383
0.899693
0.0269982
-0.0238842
-0.752352
0.749238
0.020889
-0.0175418
-0.623088
0.619741
0.0145437
-0.0114195
-0.491663
0.488539
0.00877172
-0.00606408
-0.332414
0.329706
0.00385408
-0.00183543
-0.161558
0.159539
0.000571504
-0.0261065
0.025535
-0.0378317
0.0387822
-0.000950531
0.00589943
-0.00890907
-0.264849
0.267859
0.0121534
-0.0147986
-0.419759
0.422405
0.017102
-0.0188757
-0.546271
0.548044
0.0207498
-0.0227225
-0.662537
0.66451
0.0252343
-0.0278035
-0.791738
0.794307
0.0308576
-0.0337749
-0.944308
0.947225
0.0370326
-0.0399562
-1.12435
1.12727
0.0429725
-0.0453878
-1.33644
1.33886
0.0474405
-0.0485197
-1.58654
1.58762
0.0485997
-0.0476658
-1.57077
1.56984
0.0461183
-0.0438851
-1.29983
1.2976
0.0414841
-0.0385476
-1.07866
1.07572
0.0356917
-0.0324793
-0.896553
0.893341
0.0295092
-0.0262491
-0.745844
0.742584
0.0232588
-0.0199781
-0.616504
0.613224
0.0169728
-0.0136591
-0.48572
0.482407
0.0106582
-0.00744834
-0.327077
0.323867
0.00475085
-0.00226096
-0.157462
0.154972
0.000702182
-0.0249858
0.0242836
-0.0398266
0.0411214
-0.0012948
0.00791042
-0.0118985
-0.271258
0.275246
0.0161758
-0.01968
-0.425717
0.429221
0.0228747
-0.0255148
-0.550865
0.553505
0.0284273
-0.0313924
-0.667104
0.670069
0.0349691
-0.0384316
-0.796958
0.800421
0.0423381
-0.0458938
-0.950096
0.953652
0.0496803
-0.0529059
-1.13009
1.13331
0.0560252
-0.0583016
-1.34102
1.3433
0.0599202
-0.0603292
-1.58825
1.58866
0.0595515
-0.0576104
-1.56834
1.5664
0.0551343
-0.0518983
-1.29483
1.29159
0.0486216
-0.0448448
-1.07229
1.06851
0.0413441
-0.0375478
-0.889629
0.885832
0.0341643
-0.0305744
-0.738891
0.735301
0.0273586
-0.0238435
-0.609845
0.60633
0.0205398
-0.0167439
-0.479298
0.475502
0.013146
-0.00922199
-0.320703
0.316779
0.00588737
-0.00279287
-0.152428
0.149333
0.000862823
-0.0236203
0.0227575
-0.0425031
0.0443048
-0.00180169
0.0107903
-0.0160834
-0.279626
0.284919
0.0216358
-0.0261242
-0.433672
0.43816
0.0303013
-0.0338939
-0.557472
0.561064
0.0379746
-0.0420621
-0.673679
0.677766
0.0468569
-0.0513526
-0.803954
0.80845
0.0562611
-0.0605856
-0.95718
0.961504
0.065023
-0.0686317
-1.13643
1.14003
0.0719012
-0.0740441
-1.34531
1.34745
0.0751997
-0.0748874
-1.58858
1.58827
0.0731896
-0.0701793
-1.56386
1.56085
0.0667213
-0.0624348
-1.2878
1.28351
0.0582606
-0.0535827
-1.0642
1.05952
0.0493411
-0.044825
-0.88144
0.876924
0.04087
-0.0367387
-0.731089
0.726958
0.0330737
-0.0290576
-0.602485
0.598469
0.0252095
-0.0206854
-0.471794
0.46727
0.0162876
-0.0113719
-0.312929
0.308013
0.0071959
-0.00337504
-0.146232
0.142411
0.00102786
-0.0219543
0.0209264
-0.0461695
0.048804
-0.00263447
0.0152505
-0.022366
-0.290656
0.297772
0.0295685
-0.0352567
-0.444133
0.449822
0.0406114
-0.0453436
-0.566364
0.571096
0.0508456
-0.0562643
-0.682498
0.687917
0.0624563
-0.0680917
-0.812979
0.818615
0.0740666
-0.0791635
-0.965778
0.970875
0.0841982
-0.0881011
-1.14346
1.14737
0.0913962
-0.0932749
-1.34924
1.35112
0.0938078
-0.0926182
-1.58738
1.58619
0.0898543
-0.0856375
-1.55716
1.55295
0.0810924
-0.0756591
-1.27861
1.27318
0.0704997
-0.0648087
-1.05425
1.04856
0.0597054
-0.0543169
-0.871703
0.866315
0.0496316
-0.0447659
-0.722014
0.717148
0.0404622
-0.035724
-0.5939
0.589162
0.0311119
-0.0255902
-0.462723
0.457201
0.0201442
-0.0140267
-0.303247
0.29713
0.0088239
-0.00410219
-0.138621
0.133899
0.00123516
-0.0199619
0.0187267
-0.0514059
0.0554996
-0.00409373
0.0225451
-0.0322931
-0.305502
0.31525
0.0417401
-0.0490693
-0.45794
0.465269
0.0559356
-0.0621427
-0.57806
0.584267
0.0694475
-0.076391
-0.693949
0.700893
0.0840336
-0.0907399
-0.824221
0.830927
0.0976062
-0.103253
-0.975824
0.981471
0.108588
-0.11248
-1.15093
1.15482
0.115443
-0.116731
-1.35244
1.35373
0.116292
-0.113933
-1.58424
1.58188
0.109856
-0.104225
-1.54793
1.5423
0.0984424
-0.091725
-1.26706
1.26034
0.0854647
-0.0786383
-1.0422
1.03537
0.0725612
-0.0661698
-0.860116
0.853725
0.0606274
-0.0548833
-0.71128
0.705536
0.0498014
-0.0441497
-0.583607
0.577956
0.0385632
-0.0317637
-0.451533
0.444733
0.024987
-0.0173431
-0.291204
0.28356
0.0108332
-0.00497127
-0.129291
0.12343
0.00146835
-0.0175833
0.0161149
-0.0593226
0.0665129
-0.00719031
0.035891
-0.049822
-0.326355
0.340286
0.0625599
-0.0718564
-0.476355
0.485652
0.0803594
-0.0882485
-0.593336
0.601225
0.0974154
-0.105729
-0.708206
0.71652
0.114443
-0.121757
-0.837382
0.844696
0.128944
-0.13457
-0.986705
0.992332
0.139573
-0.142862
-1.15807
1.16136
0.144882
-0.145029
-1.35416
1.35431
0.143114
-0.139165
-1.57851
1.57456
0.133444
-0.126146
-1.5357
1.5284
0.118945
-0.110802
-1.25283
1.24469
0.103329
-0.0952705
-1.02781
1.01975
0.0881453
-0.0806858
-0.846438
0.838979
0.0742244
-0.0675236
-0.698581
0.69188
0.0615804
-0.054888
-0.571204
0.564511
0.048045
-0.0396012
-0.437578
0.429134
0.0311148
-0.021546
-0.276071
0.266502
0.0133703
-0.00604904
-0.117891
0.11057
0.00171606
-0.0147887
0.0130727
-0.0734373
0.0770441
-0.00360681
0.0259304
-0.0381328
-0.357279
0.369481
0.0492595
-0.0580041
-0.500124
0.508868
0.0668609
-0.0764039
-0.612036
0.621579
0.0871989
-0.0968319
-0.724302
0.733935
0.10752
-0.116935
-0.851172
0.860586
0.126708
-0.135077
-0.997017
1.00538
0.143383
-0.150011
-1.16355
1.17018
0.155887
-0.159686
-1.35323
1.35703
0.161644
-0.160894
-1.56931
1.56856
0.157305
-0.15129
-1.51994
1.51393
0.144264
-0.135394
-1.23564
1.22677
0.126776
-0.116489
-1.01091
1.00062
0.107134
-0.096953
-0.830584
0.820403
0.0879596
-0.0784866
-0.683808
0.674335
0.06975
-0.0602014
-0.556231
0.546683
0.0507155
-0.0389413
-0.42009
0.408316
0.0280647
-0.0171838
-0.256892
0.246011
0.00913807
-0.00333762
-0.103825
0.0980244
0.000617702
-0.0115987
0.010981
-0.0844397
0.0816751
0.00276468
0.00402232
-0.0111765
-0.384622
0.391776
0.0194527
-0.0263524
-0.52223
0.529129
0.0345962
-0.0429141
-0.632181
0.640498
0.0526572
-0.0615459
-0.743348
0.752237
0.0709831
-0.0795058
-0.869524
0.878047
0.0883723
-0.0956803
-1.01346
1.02077
0.103153
-0.108785
-1.17665
1.18229
0.113716
-0.116586
-1.36055
1.36342
0.117364
-0.115674
-1.56693
1.56524
0.111283
-0.104601
-1.507
1.50031
0.0969176
-0.087529
-1.2173
1.20791
0.0785262
-0.0682971
-0.98993
0.979701
0.0587693
-0.0482878
-0.809135
0.798654
0.0390048
-0.0296513
-0.662276
0.652922
0.0217504
-0.0136943
-0.534034
0.525978
0.00674686
-0.000606203
-0.39578
0.389639
-0.00297943
0.00467795
-0.234302
0.232604
-0.00461627
0.00300748
-0.0911835
0.0927923
-0.00131842
-0.00939694
0.0107154
-0.0844971
0.0813221
0.00317499
-0.00403577
0.000548465
-0.402434
0.405921
0.00450624
-0.00973185
-0.539931
0.545157
0.0166105
-0.0238512
-0.649516
0.656757
0.0322118
-0.0398388
-0.760497
0.768124
0.0481366
-0.0555001
-0.885918
0.893282
0.0629479
-0.0694638
-1.02793
1.03444
0.0759709
-0.0809963
-1.18753
1.19256
0.0850165
-0.087154
-1.36573
1.36787
0.0875787
-0.0855697
-1.56299
1.56098
0.0810515
-0.0744785
-1.49313
1.48656
0.0671635
-0.0585435
-1.19853
1.18991
0.0500158
-0.040655
-0.969274
0.959913
0.0319888
-0.0225348
-0.788345
0.778891
0.0143848
-0.00611006
-0.642339
0.634064
-0.000638429
0.0071695
-0.515493
0.508962
-0.0116152
0.0141514
-0.381221
0.378684
-0.0140906
0.0116432
-0.2276
0.230047
-0.00845452
0.00460619
-0.0925965
0.0964448
-0.0016514
-0.010695
0.0123464
-0.0826433
0.0795888
0.00305452
-0.00708734
0.00575965
-0.413618
0.414946
-0.00267721
-0.00147728
-0.553601
0.557756
0.00750841
-0.013554
-0.663998
0.670044
0.0206763
-0.0272138
-0.77541
0.781947
0.0343041
-0.0406242
-0.900246
0.906566
0.0474057
-0.0529773
-1.0406
1.04617
0.0587423
-0.062799
-1.19726
1.20131
0.0663721
-0.0682695
-1.3699
1.3718
0.0684797
-0.0663378
-1.55875
1.55661
0.0623191
-0.0565227
-1.47974
1.47395
0.0500611
-0.0421866
-1.18139
1.17352
0.034799
-0.0267753
-0.950621
0.942597
0.0192794
-0.011464
-0.769751
0.761935
0.00441337
0.00251004
-0.624936
0.618013
-0.00807267
0.0129161
-0.500614
0.495771
-0.0158666
0.017034
-0.37254
0.371373
-0.0158279
0.0121785
-0.228282
0.231931
-0.00859166
0.00442135
-0.0981576
0.102328
-0.00150271
-0.0127934
0.0142961
-0.0807315
0.078179
0.00255248
-0.00761822
0.00757453
-0.420909
0.420953
-0.00521087
0.0019641
-0.564906
0.568153
0.00295145
-0.00838043
-0.676284
0.681713
0.0143882
-0.0201723
-0.788058
0.793842
0.0263666
-0.031915
-0.912577
0.918126
0.0378243
-0.0428916
-1.0517
1.05676
0.0479023
-0.0517867
-1.20534
1.20922
0.0550157
-0.0567554
-1.37347
1.37521
0.0570176
-0.0551539
-1.55452
1.55265
0.051661
-0.0464592
-1.46779
1.46258
0.0408682
-0.0342181
-1.16598
1.15933
0.0279301
-0.0210135
-0.934691
0.927775
0.0148151
-0.00828365
-0.754222
0.74769
0.00264791
0.00292826
-0.610753
0.605177
-0.00720606
0.0107541
-0.489185
0.485637
-0.0128861
0.0133649
-0.366864
0.366385
-0.011951
0.0089645
-0.230913
0.233899
-0.00616086
0.00308346
-0.103504
0.106581
-0.00107851
-0.0146446
0.0157232
-0.07918
0.0770616
0.00211839
-0.00708266
0.00726491
-0.425794
0.425612
-0.00590532
0.00311881
-0.573795
0.576582
0.00151144
-0.00614971
-0.686838
0.691477
0.011374
-0.0164602
-0.799085
0.804171
0.0220351
-0.0270752
-0.923461
0.928502
0.0325907
-0.0371482
-1.06165
1.06621
0.0418113
-0.0454769
-1.21295
1.21661
0.0485205
-0.0502251
-1.37683
1.37853
0.0505875
-0.049386
-1.55088
1.54968
0.046342
-0.0419428
-1.45718
1.45278
0.0370563
-0.0312845
-1.15279
1.14701
0.0260886
-0.0200844
-0.921063
0.915059
0.0148123
-0.00946612
-0.741381
0.736035
0.0048375
-0.000303821
-0.59952
0.594986
-0.0031677
0.00613115
-0.480546
0.477583
-0.00756664
0.00787227
-0.362892
0.362587
-0.00711664
0.00516485
-0.232418
0.23437
-0.0034082
0.00174095
-0.106707
0.108374
-0.000637827
-0.0157044
0.0163423
-0.0781109
0.0764939
0.00161699
-0.00590297
0.00622577
-0.429441
0.429118
-0.00494476
0.00273724
-0.581721
0.583929
0.00144893
-0.00564509
-0.696105
0.700302
0.0106502
-0.0151078
-0.809054
0.813512
0.0200882
-0.0246438
-0.933626
0.938181
0.0299787
-0.034232
-1.07088
1.07513
0.0385289
-0.0421486
-1.2202
1.22382
0.0455396
-0.0473114
-1.38038
1.38215
0.0479958
-0.0470459
-1.54823
1.54728
0.0447358
-0.0406678
-1.44832
1.44425
0.0365139
-0.0315783
-1.14124
1.1363
0.0269222
-0.0218466
-0.909267
0.904191
0.0171998
-0.0123595
-0.730606
0.725766
0.00854073
-0.00450305
-0.590167
0.586129
0.00133972
0.00117407
-0.473355
0.470841
-0.00269994
0.00345906
-0.3595
0.35874
-0.00329981
0.00247916
-0.232392
0.233213
-0.00170531
0.000962799
-0.107591
0.108334
-0.000428467
-0.0159796
0.0164081
-0.077615
0.0763626
0.00125248
-0.00465498
0.00500992
-0.432416
0.432061
-0.0037306
0.00150346
-0.588682
0.59091
0.00235533
-0.006144
-0.704516
0.708305
0.0105067
-0.0148504
-0.81807
0.822413
0.0195261
-0.0242786
-0.942653
0.947406
0.0289769
-0.0331307
-1.07956
1.08371
0.0376534
-0.0411625
-1.2274
1.23091
0.0442434
-0.0465686
-1.38392
1.38625
0.047642
-0.0471775
-1.54649
1.54602
0.0452217
-0.0418968
-1.44045
1.43713
0.0381888
-0.0336719
-1.13109
1.12658
0.0294676
-0.0247908
-0.898975
0.894298
0.0205413
-0.0162355
-0.720989
0.716683
0.0124194
-0.0087249
-0.581773
0.578079
0.00584482
-0.00320951
-0.467073
0.464437
0.00147858
-0.000560822
-0.355555
0.354637
1.69892e-06
0.000282259
-0.230746
0.230462
-0.000435376
0.000412061
-0.10678
0.106803
-0.000291059
-0.0158196
0.0161106
-0.0776797
0.0766345
0.00104523
-0.00328131
0.00338457
-0.435233
0.43513
-0.00223725
-6.90225e-05
-0.595106
0.597412
0.00360651
-0.00728005
-0.712406
0.716079
0.0115004
-0.0154947
-0.826687
0.830681
0.0203323
-0.0243635
-0.951683
0.955714
0.0290934
-0.0331434
-1.08809
1.09214
0.0376413
-0.0414286
-1.23448
1.23827
0.0449034
-0.0471352
-1.38842
1.39065
0.0486785
-0.0487152
-1.54554
1.54557
0.0474808
-0.0445028
-1.4337
1.43073
0.0411991
-0.037004
-1.12212
1.11792
0.0330735
-0.0285752
-0.889318
0.88482
0.0246227
-0.0203837
-0.7121
0.707861
0.0166994
-0.0129958
-0.57401
0.570307
0.00995559
-0.00735922
-0.46074
0.458144
0.00528972
-0.00383864
-0.351047
0.349596
0.00259947
-0.00150544
-0.227652
0.226558
0.000643151
2.70674e-05
-0.104678
0.104008
-0.000205593
-0.0152808
0.0154864
-0.0780277
0.0772898
0.000737936
-0.00210985
0.00173991
-0.438253
0.438623
-0.000714556
-0.00168165
-0.600836
0.603232
0.00489815
-0.00846
-0.719814
0.723376
0.0125347
-0.0166796
-0.834653
0.838798
0.0209604
-0.0251899
-0.960027
0.964256
0.0299291
-0.0338245
-1.09666
1.10056
0.0384792
-0.0422941
-1.24193
1.24574
0.0459068
-0.0487476
-1.39335
1.39619
0.0508554
-0.0512451
-1.54569
1.54607
0.0502774
-0.0479686
-1.42787
1.42556
0.0451329
-0.0411802
-1.11353
1.10958
0.0373418
-0.0331461
-0.880129
0.875933
0.0289187
-0.0248439
-0.703267
0.699192
0.0211514
-0.0173083
-0.566421
0.562578
0.0142669
-0.0112728
-0.454238
0.451244
0.00891544
-0.00675337
-0.345924
0.343761
0.00502662
-0.00321471
-0.223298
0.221486
0.00163342
-0.000411625
-0.10157
0.100348
-9.16126e-05
-0.0144797
0.0145713
-0.0787638
0.078172
0.000591787
-0.00114195
0.000783294
-0.441521
0.44188
0.00081528
-0.00300741
-0.60667
0.608862
0.00636979
-0.00980827
-0.726762
0.7302
0.0137462
-0.0175247
-0.842717
0.846496
0.021955
-0.0259089
-0.968551
0.972505
0.0306316
-0.0349904
-1.10494
1.1093
0.0393444
-0.0435283
-1.24966
1.25384
0.0476185
-0.0506238
-1.39899
1.402
0.0531788
-0.0543999
-1.54672
1.54794
0.0539093
-0.0521748
-1.4231
1.42136
0.0494504
-0.0457883
-1.10554
1.10188
0.0421623
-0.0378869
-0.871222
0.866947
0.0337775
-0.0295522
-0.694504
0.690279
0.0257608
-0.0216946
-0.558387
0.554321
0.0183437
-0.0151115
-0.447326
0.444094
0.0122103
-0.00951231
-0.339729
0.337031
0.00718034
-0.00473132
-0.217677
0.215227
0.0026615
-0.000938517
-0.0976135
0.0958905
9.35735e-05
-0.0135216
0.0134281
-0.0797468
0.0793164
0.0004304
-0.000101767
-0.000488265
-0.444955
0.445545
0.00195913
-0.0043731
-0.612112
0.614526
0.00764227
-0.0109266
-0.733481
0.736766
0.0149499
-0.0185993
-0.850328
0.853977
0.0228977
-0.0269877
-0.976974
0.981064
0.0316443
-0.0359948
-1.11356
1.11791
0.0405964
-0.0448475
-1.25799
1.26225
0.0491744
-0.052968
-1.40534
1.40913
0.056031
-0.0576076
-1.54915
1.55073
0.0578117
-0.0563946
-1.4195
1.41808
0.0541705
-0.0509204
-1.09806
1.09481
0.0472265
-0.0429799
-0.862291
0.858044
0.0388377
-0.0343366
-0.685573
0.681072
0.0304561
-0.0261283
-0.550155
0.545827
0.0225654
-0.0188337
-0.439892
0.43616
0.0156264
-0.0123629
-0.332576
0.329312
0.00930686
-0.00621024
-0.21091
0.207814
0.00363149
-0.00143286