/*--------------------------------*- C++ -*----------------------------------*\
  =========                 |
  \\      /  F ield         | OpenFOAM: The Open Source CFD Toolbox
   \\    /   O peration     | Website:  https://openfoam.org
    \\  /    A nd           | Version:  6
     \\/     M anipulation  |
\*---------------------------------------------------------------------------*/
FoamFile
{
    version     2.0;
    format      ascii;
    class       surfaceScalarField;
    location    "80";
    object      phi;
}
// * * * * * * * * * * * * * * * * * * * * * * * * * * * * * * * * * * * * * //

dimensions      [0 3 -1 0 0 0 0];

internalField   nonuniform List<scalar> 
17370
(
-0.0900003
0.0898494
0.289162
-0.0714628
0.0537529
0.364485
-0.0381197
0.0276905
0.426597
-0.0196386
0.0146055
0.504285
-0.0107634
0.00827279
0.601893
-0.0062729
0.00489629
0.720434
-0.00373239
0.00289196
0.863747
-0.00215069
0.00159177
1.03601
-0.00107532
0.000663014
1.24292
-0.000255855
-0.000138951
1.49159
0.000518325
-0.000929071
1.4916
0.00132759
-0.00181705
1.24318
0.00234424
-0.0030491
1.03634
0.00386207
-0.00500553
0.86405
0.00637117
-0.00836377
0.72105
0.0108487
-0.0146842
0.60305
0.0197107
-0.0277548
0.507483
0.0381764
-0.0538007
0.431792
0.071502
-0.0898756
0.365149
0.0900161
0.198995
-0.128136
0.0882268
0.0399096
-0.364599
0.353379
-0.0746721
0.0858921
-0.446476
0.454321
-0.0843889
0.0765446
-0.52119
0.529902
-0.0684472
0.0597354
-0.612789
0.621569
-0.0515461
0.0427659
-0.726895
0.734165
-0.0353044
0.0280341
-0.867475
0.872592
-0.0224324
0.017316
-1.03847
1.04192
-0.0135055
0.0100552
-1.2446
1.24703
-0.00744397
0.00501041
-1.49262
1.4946
-0.00306169
0.00108153
-1.4925
1.49423
0.000593572
-0.00231848
-1.24398
1.24586
0.004223
-0.00610886
-1.03751
1.04004
0.0084658
-0.0109932
-0.866101
0.869826
0.0143435
-0.0180693
-0.72439
0.729933
0.0231075
-0.02865
-0.608697
0.616111
0.035864
-0.0432773
-0.514897
0.52304
0.0520064
-0.0601497
-0.439856
0.447914
0.0688118
-0.0768698
-0.375295
0.376739
0.0846666
-0.0861102
-0.25733
0.222477
0.0748201
-0.0399668
-0.0685201
0.0586949
0.0098252
-0.0518073
0.0583892
-0.374129
0.367547
-0.057472
0.0537186
-0.453596
0.457349
-0.0486273
0.0446735
-0.527948
0.531902
-0.0408319
0.0371913
-0.621565
0.625206
-0.0330876
0.0290099
-0.735351
0.739429
-0.0244375
0.0202763
-0.874343
0.878504
-0.0159284
0.0122326
-1.04349
1.04719
-0.00849289
0.00531801
-1.24856
1.25174
-0.00198776
-0.00108656
-1.49666
1.49973
0.00413461
-0.00740168
-1.4972
1.50047
0.0104828
-0.0140886
-1.25007
1.25367
0.017643
-0.0218269
-1.04592
1.05011
0.0258478
-0.0302841
-0.877759
0.882195
0.0342528
-0.0382488
-0.739898
0.743894
0.0417977
-0.045544
-0.626771
0.630518
0.0494159
-0.054429
-0.534808
0.539821
0.0580969
-0.058907
-0.457472
0.458282
0.0521993
-0.0319935
-0.335747
0.315542
0.00988904
-0.0683427
0.0584537
-0.0529452
0.0489511
0.00399407
-0.0331522
0.0436929
-0.358116
0.347576
-0.0473873
0.046757
-0.459289
0.45992
-0.0436982
0.0403426
-0.535806
0.539162
-0.0365668
0.0332598
-0.628533
0.63184
-0.0298185
0.0267837
-0.742654
0.745689
-0.0235219
0.0204125
-0.882025
0.885134
-0.0168792
0.0134969
-1.05078
1.05416
-0.00970024
0.00615847
-1.25517
1.25872
-0.00218603
-0.00161329
-1.50324
1.50704
0.00537971
-0.00925419
-1.50413
1.50801
0.0126628
-0.0162739
-1.25741
1.26102
0.0194599
-0.0227641
-1.05391
1.05722
0.0256743
-0.0287389
-0.885683
0.888748
0.031613
-0.0348946
-0.747151
0.750432
0.0380668
-0.041705
-0.6343
0.637939
0.0449426
-0.0478669
-0.544129
0.547054
0.0483557
-0.0444625
-0.456565
0.452672
0.0336846
-0.0162273
-0.296171
0.278713
0.00407348
-0.0526324
0.0485589
-0.0458751
0.0433817
0.00249333
-0.0227918
0.0331628
-0.336892
0.326521
-0.0389772
0.0399892
-0.459607
0.458595
-0.0387943
0.0365038
-0.541883
0.544174
-0.033832
0.0312319
-0.634893
0.637493
-0.0281641
0.0252607
-0.748737
0.75164
-0.0219916
0.0189939
-0.888091
0.891089
-0.0156846
0.0125813
-1.0573
1.0604
-0.00905098
0.00563842
-1.26218
1.26559
-0.00167181
-0.00221458
-1.51093
1.51481
0.00605707
-0.00989305
-1.5119
1.51573
0.0131289
-0.0164152
-1.26445
1.26774
0.0192607
-0.0222691
-1.06032
1.06333
0.0250029
-0.028008
-0.891797
0.894802
0.0306935
-0.0335426
-0.753635
0.756484
0.0359583
-0.0384445
-0.641001
0.643487
0.0405759
-0.0415616
-0.548853
0.549839
0.0403308
-0.0341969
-0.447384
0.44125
0.0234766
-0.010246
-0.263484
0.250253
0.00259151
-0.0453933
0.0428018
-0.0413091
0.0395449
0.0017642
-0.016726
0.0259656
-0.316678
0.307438
-0.0325598
0.0346915
-0.457001
0.45487
-0.0342634
0.0325874
-0.546154
0.54783
-0.0304007
0.0283001
-0.639802
0.641902
-0.0258627
0.0234598
-0.754289
0.756691
-0.0205953
0.0178007
-0.893989
0.896784
-0.0145583
0.0114832
-1.06345
1.06653
-0.0079868
0.00465592
-1.26891
1.27224
-0.000818756
-0.00291687
-1.51861
1.52234
0.00659652
-0.0102673
-1.51946
1.52313
0.0133734
-0.0165596
-1.27098
1.27416
0.019306
-0.0221637
-1.06636
1.06921
0.0246197
-0.0271435
-0.897609
0.900133
0.0292644
-0.0314195
-0.758928
0.761083
0.0332841
-0.0352321
-0.645635
0.647583
0.0366776
-0.0368215
-0.550349
0.550493
0.034354
-0.0272918
-0.434571
0.427508
0.0175813
-0.00742014
-0.238707
0.228545
0.00188415
-0.0406194
0.0387353
-0.0380259
0.0367005
0.00132546
-0.0127582
0.0206869
-0.298859
0.29093
-0.0274193
0.0303286
-0.452319
0.44941
-0.0305219
0.029393
-0.549266
0.550395
-0.0273915
0.0254671
-0.643943
0.645867
-0.0232583
0.021113
-0.758936
0.761081
-0.0185887
0.0160965
-0.899364
0.901857
-0.0131438
0.0102547
-1.06947
1.07236
-0.00688216
0.00363216
-1.27551
1.27876
0.00012254
-0.00375559
-1.526
1.52963
0.00731857
-0.0108639
-1.52673
1.53027
0.0138317
-0.0168158
-1.27728
1.28027
0.019294
-0.0217655
-1.07195
1.07442
0.0238335
-0.0259296
-0.902411
0.904507
0.0277187
-0.0295693
-0.763059
0.764909
0.0311955
-0.0329072
-0.649395
0.651107
0.0337004
-0.0331093
-0.550272
0.549681
0.0297195
-0.0223459
-0.420233
0.412859
0.0138117
-0.00575969
-0.219539
0.211487
0.00147138
-0.0370826
0.0356112
-0.0355436
0.0345241
0.00101952
-0.00995312
0.0166446
-0.283646
0.276955
-0.0231018
0.0264551
-0.446259
0.442905
-0.0272195
0.0265068
-0.551308
0.552021
-0.0247359
0.0229405
-0.647769
0.649565
-0.0208578
0.0188293
-0.763162
0.76519
-0.0164438
0.014103
-0.904204
0.906544
-0.0113487
0.00864884
-1.07508
1.07778
-0.00547498
0.00237638
-1.28189
1.28499
0.00124606
-0.00476601
-1.53319
1.53671
0.00819893
-0.0115607
-1.53371
1.53707
0.0143089
-0.0170017
-1.28312
1.28581
0.0191931
-0.0213528
-1.0768
1.07896
0.0231695
-0.0250255
-0.906473
0.908329
0.0266125
-0.0282509
-0.766647
0.768285
0.0296764
-0.0310466
-0.652675
0.654045
0.0313435
-0.0300145
-0.548734
0.547405
0.0259989
-0.0186972
-0.405495
0.398193
0.0112443
-0.0046614
-0.204238
0.197655
0.00119695
-0.0342919
0.033095
-0.0336304
0.0328386
0.000791732
-0.00786985
0.0134815
-0.270833
0.265221
-0.0194439
0.0229854
-0.439448
0.435907
-0.0242191
0.0237495
-0.552646
0.553116
-0.022241
0.0205518
-0.651356
0.653046
-0.0185601
0.0166133
-0.767171
0.769117
-0.0143153
0.012058
-0.908777
0.911034
-0.00940269
0.00680961
-1.08036
1.08295
-0.00377389
0.000816204
-1.28797
1.29093
0.00263703
-0.00598477
-1.54012
1.54347
0.00922591
-0.0123601
-1.5403
1.54343
0.01489
-0.0173387
-1.28838
1.29083
0.0193095
-0.021236
-1.08109
1.08302
0.0228504
-0.0244976
-0.910076
0.911724
0.025902
-0.0273474
-0.769819
0.771265
0.0285747
-0.0295608
-0.655215
0.656201
0.0294811
-0.0274777
-0.545737
0.543734
0.0230518
-0.0160059
-0.391012
0.383966
0.0094482
-0.00390411
-0.19164
0.186096
0.00100733
-0.0320037
0.0309964
-0.0321452
0.0315306
0.000614594
-0.0062583
0.0109462
-0.2601
0.255412
-0.016308
0.0198399
-0.432371
0.428839
-0.021388
0.0211392
-0.553513
0.553761
-0.0198576
0.0182238
-0.654755
0.656389
-0.0162833
0.0143815
-0.77103
0.772932
-0.012137
0.00993336
-0.913187
0.915391
-0.00734147
0.00481444
-1.08543
1.08796
-0.00186518
-0.000990463
-1.29378
1.29664
0.00429548
-0.00746816
-1.54669
1.54987
0.0105108
-0.0134269
-1.54643
1.54934
0.0157621
-0.0179979
-1.29319
1.29542
0.0197669
-0.0214706
-1.08495
1.08665
0.0228905
-0.0243398
-0.913261
0.914711
0.0255771
-0.0268455
-0.772612
0.77388
0.0279276
-0.0284892
-0.656981
0.657542
0.0280289
-0.0254533
-0.541451
0.538875
0.0207691
-0.0140403
-0.377085
0.370356
0.00818448
-0.00337852
-0.180957
0.176151
0.000876422
-0.0300633
0.0291868
-0.0309969
0.0305263
0.000470581
-0.00495717
0.00884688
-0.25115
0.247261
-0.0135636
0.0169371
-0.425396
0.422023
-0.0186591
0.0185944
-0.553964
0.554028
-0.0174993
0.0158965
-0.658073
0.659676
-0.0139728
0.0120805
-0.774812
0.776705
-0.00984894
0.00766391
-0.917495
0.91968
-0.00510295
0.00261547
-1.09038
1.09287
0.000274744
-0.00305589
-1.2994
1.30218
0.00624781
-0.00927874
-1.55293
1.55596
0.0121513
-0.0148698
-1.55212
1.55484
0.0170186
-0.0190429
-1.29756
1.29959
0.0206092
-0.0220911
-1.08838
1.08986
0.0233242
-0.0245901
-0.916052
0.917318
0.0256764
-0.0267848
-0.775056
0.776165
0.0276637
-0.0278632
-0.657914
0.658114
0.0269757
-0.0239116
-0.536058
0.532993
0.0190619
-0.0126362
-0.363793
0.357368
0.00730848
-0.00302088
-0.171634
0.167346
0.000788943
-0.0283621
0.0275732
-0.0301251
0.0297768
0.000348242
-0.00386316
0.00704983
-0.243747
0.240561
-0.0111094
0.0142139
-0.418802
0.415698
-0.0159822
0.0160641
-0.554074
0.553992
-0.0150425
0.0135064
-0.661319
0.662855
-0.0115709
0.00965449
-0.778586
0.780502
-0.0073953
0.0051916
-0.921772
0.923976
-0.0026225
0.000142388
-1.09526
1.09774
0.00271994
-0.00545359
-1.30487
1.3076
0.00856249
-0.0114791
-1.55889
1.56181
0.0142037
-0.0167381
-1.55743
1.55996
0.0187066
-0.0205224
-1.30152
1.30333
0.0218883
-0.0231531
-1.0914
1.09267
0.0242071
-0.0252983
-0.918473
0.919565
0.02624
-0.0271846
-0.77717
0.778115
0.0278022
-0.0277034
-0.658169
0.658071
0.0263606
-0.0228422
-0.529707
0.526189
0.0178643
-0.0116821
-0.351086
0.344904
0.0067298
-0.0027914
-0.16326
0.159322
0.000734955
-0.0268188
0.0260838
-0.0294912
0.0292526
0.000238562
-0.0029003
0.00545068
-0.237716
0.235166
-0.00885286
0.0116048
-0.412795
0.410043
-0.0133037
0.0134563
-0.553938
0.553785
-0.0124692
0.0109665
-0.664457
0.66596
-0.00899425
0.00702332
-0.782414
0.784385
-0.00470036
0.00244324
-0.926089
0.928346
0.000174603
-0.0026859
-1.10013
1.10264
0.00556193
-0.0082821
-1.31025
1.31297
0.0113383
-0.0141623
-1.56463
1.56746
0.0167551
-0.0191194
-1.56236
1.56472
0.0209192
-0.0225357
-1.30505
1.30667
0.0237022
-0.0247441
-1.09403
1.09507
0.0256114
-0.0265191
-0.92054
0.921448
0.0273083
-0.0280899
-0.77892
0.779702
0.028423
-0.028008
-0.657828
0.657413
0.0262022
-0.0222453
-0.522474
0.518517
0.0171351
-0.0111073
-0.338828
0.3328
0.00639263
-0.00266514
-0.155514
0.151786
0.000707986
-0.0253699
0.0246619
-0.0290738
0.0289399
0.000133883
-0.00200501
0.00395641
-0.232938
0.230987
-0.00669529
0.00902349
-0.407534
0.405206
-0.010544
0.0106885
-0.553713
0.553569
-0.00970171
0.00819397
-0.667564
0.669072
-0.00615695
0.0041007
-0.786354
0.78841
-0.00167617
-0.000671091
-0.930513
0.93286
0.00337934
-0.0059598
-1.10506
1.10764
0.00889035
-0.0116331
-1.31562
1.31837
0.0146734
-0.017433
-1.5702
1.57296
0.0199125
-0.0221158
-1.56695
1.56915
0.0237483
-0.0251628
-1.30819
1.3096
0.0261231
-0.0269358
-1.09624
1.09705
0.0276071
-0.0283174
-0.922231
0.922941
0.0289499
-0.0295883
-0.780316
0.780955
0.0295846
-0.0287607
-0.656808
0.655984
0.0264873
-0.0220935
-0.514384
0.50999
0.0168205
-0.0108476
-0.326835
0.320862
0.00625001
-0.00262099
-0.148133
0.144504
0.000702383
-0.0239643
0.0232619
-0.0288663
0.0288383
2.80366e-05
-0.00112994
0.0024952
-0.229351
0.227986
-0.00455458
0.00639332
-0.403156
0.401317
-0.00763088
0.00768439
-0.553564
0.553511
-0.00664992
0.00509741
-0.67072
0.672273
-0.0029531
0.000774943
-0.790468
0.792646
0.00179428
-0.00427166
-0.935119
0.937596
0.00711387
-0.00980303
-1.11015
1.11284
0.0128304
-0.0156313
-1.32105
1.32385
0.0186883
-0.0214058
-1.57564
1.57836
0.0237867
-0.0258369
-1.57122
1.57327
0.0273052
-0.0285151
-1.31091
1.31212
0.0292687
-0.0298473
-1.09803
1.09861
0.0303155
-0.0308178
-0.923524
0.924026
0.0312734
-0.0316667
-0.781341
0.781734
0.0313732
-0.0300697
-0.654967
0.653664
0.0272847
-0.0224123
-0.505415
0.500543
0.0169111
-0.010877
-0.314899
0.308865
0.0062812
-0.00264982
-0.140899
0.137267
0.000715925
-0.0225608
0.0218449
-0.0288714
0.0289522
-8.08001e-05
-0.000229219
0.000998616
-0.226937
0.226167
-0.00234758
0.00363053
-0.399788
0.398505
-0.00448417
0.00436291
-0.553667
0.553788
-0.00322304
0.00156705
-0.674017
0.675673
0.000721334
-0.00306273
-0.794827
0.797168
0.00582338
-0.00847519
-0.939985
0.942637
0.0115019
-0.0143461
-1.11546
1.1183
0.017518
-0.0204159
-1.32659
1.32949
0.0235263
-0.0262293
-1.581
1.5837
0.0285287
-0.0304313
-1.57517
1.57707
0.0317328
-0.0327344
-1.31321
1.31421
0.0332775
-0.0336167
-1.09936
1.0997
0.0338719
-0.0341537
-0.924392
0.924674
0.034407
-0.0344821
-0.781807
0.781882
0.0338609
-0.0319939
-0.652165
0.650298
0.0286384
-0.0232205
-0.495476
0.490058
0.0174017
-0.0111788
-0.302785
0.296562
0.00647189
-0.00274439
-0.133615
0.129887
0.00074634
-0.0211221
0.0203758
-0.0291061
0.0293161
-0.000209985
0.000723965
-0.00059775
-0.225722
0.225596
8.48087e-06
0.000643541
-0.397561
0.396909
-0.00100703
0.00061961
-0.554202
0.55459
0.000695532
-0.00251265
-0.677575
0.679393
0.00499925
-0.00755316
-0.799512
0.802066
0.0105626
-0.0134422
-0.945203
0.948083
0.0167108
-0.0197599
-1.12109
1.12414
0.0231284
-0.026167
-1.33235
1.33539
0.02937
-0.0320813
-1.58634
1.58905
0.0343083
-0.0360624
-1.57881
1.58057
0.0371932
-0.0379774
-1.31505
1.31584
0.0382992
-0.0383806
-1.10022
1.1003
0.0384058
-0.0384551
-0.924798
0.924847
0.0385178
-0.0381786
-0.781612
0.781273
0.0371421
-0.0346231
-0.648246
0.645727
0.0306101
-0.0245434
-0.484414
0.478347
0.0182914
-0.0117399
-0.290227
0.283676
0.00680957
-0.0028979
-0.126095
0.122183
0.000791486
-0.0196153
0.0188238
-0.0296025
0.0299585
-0.000356061
0.00178268
-0.00228926
-0.225805
0.226312
0.00255554
-0.00264463
-0.396621
0.39671
0.00291695
-0.00368297
-0.555391
0.556157
0.00524044
-0.00728715
-0.681517
0.683564
0.0100491
-0.0128815
-0.804623
0.807456
0.0162071
-0.0193737
-0.950882
0.954048
0.022948
-0.0262581
-1.12714
1.13045
0.0298784
-0.0330983
-1.33839
1.34161
0.0364252
-0.0391594
-1.5917
1.59443
0.041313
-0.0429064
-1.58214
1.58373
0.0438505
-0.0444133
-1.31642
1.31699
0.0445074
-0.0443087
-1.10054
1.10034
0.044081
-0.0438804
-0.92469
0.92449
0.0437173
-0.0428768
-0.780572
0.779732
0.0413377
-0.0380526
-0.643034
0.639749
0.0332629
-0.0264067
-0.472007
0.46515
0.0195806
-0.0125485
-0.276943
0.269911
0.00728216
-0.00310318
-0.118166
0.113987
0.00084884
-0.0180122
0.0171634
-0.0303877
0.0309223
-0.000534577
0.00307441
-0.00436231
-0.227238
0.228526
0.00551836
-0.00640958
-0.397167
0.398058
0.00742002
-0.00867229
-0.557472
0.558724
0.0105865
-0.0129388
-0.685985
0.688337
0.0160572
-0.0192399
-0.810287
0.81347
0.0229597
-0.0264855
-0.957142
0.960668
0.030442
-0.034077
-1.13372
1.13736
0.0380094
-0.0414554
-1.3448
1.34824
0.0449425
-0.0477171
-1.5971
1.59987
0.0497953
-0.0512095
-1.58512
1.58653
0.0519407
-0.0522655
-1.31728
1.31761
0.0521097
-0.0516083
-1.10028
1.09978
0.0511132
-0.0506465
-0.924024
0.923557
0.0501271
-0.0488189
-0.778611
0.777303
0.0466015
-0.0423885
-0.636279
0.632066
0.0366608
-0.0288316
-0.457954
0.450125
0.0212638
-0.013587
-0.262622
0.254945
0.00787287
-0.00335035
-0.109665
0.105143
0.000914966
-0.01629
0.0153751
-0.0315358
0.032297
-0.000761271
0.00460618
-0.00678629
-0.230248
0.232428
0.00903151
-0.010845
-0.399418
0.401232
0.0127035
-0.0145614
-0.560689
0.562547
0.016971
-0.0197259
-0.691136
0.693891
0.0233134
-0.0269352
-0.816653
0.820275
0.0311447
-0.0351116
-0.964135
0.968101
0.0395318
-0.043556
-1.14097
1.14499
0.0478573
-0.0515636
-1.35166
1.35537
0.0552241
-0.0580282
-1.60257
1.60537
0.0600044
-0.0612037
-1.58771
1.58891
0.0616884
-0.0617509
-1.31755
1.31761
0.0613234
-0.0604866
-1.0994
1.09856
0.0596972
-0.0589483
-0.922743
0.921994
0.057978
-0.0561045
-0.775749
0.773875
0.0530731
-0.0477208
-0.62765
0.622298
0.0408425
-0.0318108
-0.441871
0.432839
0.0233095
-0.0148175
-0.246933
0.238441
0.00855094
-0.00362262
-0.100445
0.0955172
0.000984259
-0.0144334
0.0134492
-0.0331338
0.0341911
-0.00105727
0.00653099
-0.00979729
-0.235068
0.238335
0.013302
-0.0161877
-0.403645
0.40653
0.0190345
-0.0216283
-0.565329
0.567922
0.0246834
-0.0279809
-0.697183
0.700481
0.032176
-0.0363505
-0.823905
0.82808
0.0411619
-0.0456622
-0.972023
0.976524
0.050634
-0.05511
-1.149
1.15348
0.0598225
-0.0638008
-1.35904
1.36302
0.0676176
-0.0704118
-1.60806
1.61086
0.0722349
-0.0731636
-1.58985
1.59078
0.0733398
-0.0730867
-1.31712
1.31687
0.0723716
-0.0711653
-1.09781
1.09661
0.0700614
-0.0690188
-0.920836
0.919794
0.0674869
-0.0649336
-0.771797
0.769243
0.0608876
-0.0541134
-0.616704
0.609929
0.0458098
-0.0352942
-0.423282
0.412766
0.0256463
-0.016172
-0.229537
0.220063
0.00926653
-0.00389477
-0.0903935
0.0850218
0.00104883
-0.0124399
0.011391
-0.0353113
0.0367794
-0.00146811
0.00904892
-0.0136813
-0.242042
0.246675
0.018685
-0.0228107
-0.410216
0.414341
0.0268032
-0.0302842
-0.571719
0.5752
0.0341652
-0.0381638
-0.70442
0.708419
0.0431363
-0.048003
-0.832265
0.837132
0.0535472
-0.0586792
-0.980998
0.98613
0.0642829
-0.0692525
-1.15794
1.16291
0.0743856
-0.0786117
-1.36693
1.37116
0.0825241
-0.0852235
-1.61349
1.61619
0.086798
-0.0873585
-1.59138
1.59194
0.0871671
-0.0865299
-1.31591
1.31527
0.0854745
-0.0838869
-1.09546
1.09387
0.0824627
-0.0809613
-0.918232
0.91673
0.0789271
-0.0754273
-0.766449
0.762949
0.0700978
-0.0615316
-0.602849
0.594283
0.0514583
-0.0391355
-0.401616
0.389293
0.0281257
-0.01753
-0.210113
0.199518
0.00993885
-0.00412873
-0.0794535
0.0736434
0.00109739
-0.0103237
0.0092263
-0.0382706
0.0403221
-0.00205153
0.0125589
-0.0189163
-0.251686
0.258044
0.025717
-0.0312858
-0.419623
0.425192
0.0366296
-0.0411974
-0.58025
0.584818
0.0461162
-0.0510281
-0.713187
0.718099
0.0570052
-0.062726
-0.842006
0.847727
0.069133
-0.074972
-0.991249
0.997088
0.0812401
-0.0866843
-1.16784
1.17328
0.0921635
-0.0965237
-1.37525
1.37961
0.100368
-0.102803
-1.61864
1.62107
0.10397
-0.104025
-1.59209
1.59214
0.103387
-0.102252
-1.31381
1.31267
0.100822
-0.0988524
-1.09228
1.09031
0.0970825
-0.0950096
-0.91457
0.912497
0.0924033
-0.0876797
-0.759145
0.754422
0.0806836
-0.0698346
-0.585313
0.574464
0.057567
-0.0430785
-0.376231
0.361743
0.0305114
-0.0187166
-0.188416
0.176622
0.0104586
-0.00427664
-0.0676647
0.0614827
0.00111678
-0.00812288
0.0070061
-0.0423385
0.0452979
-0.00295938
0.0176383
-0.0262682
-0.264727
0.273357
0.0352875
-0.0425913
-0.432541
0.439844
0.0495506
-0.0554294
-0.591421
0.5973
0.0617135
-0.0678529
-0.72393
0.730069
0.0750514
-0.0817445
-0.853426
0.860119
0.0890723
-0.0956032
-1.0029
1.00943
0.102445
-0.10822
-1.17861
1.18438
0.113832
-0.1181
-1.38371
1.38798
0.121607
-0.12353
-1.62312
1.62504
0.124067
-0.123419
-1.59167
1.59103
0.122181
-0.120445
-1.31062
1.30888
0.118611
-0.116228
-1.0882
1.08582
0.11404
-0.111381
-0.909624
0.906965
0.107954
-0.101567
-0.749256
0.742869
0.0923786
-0.0786361
-0.563075
0.549332
0.0636882
-0.0466881
-0.346451
0.329451
0.0324442
-0.0194911
-0.164356
0.151403
0.010687
-0.00428224
-0.0552012
0.0487964
0.00109249
-0.00590145
0.00480897
-0.0480987
0.0525853
-0.00448668
0.0254961
-0.0372014
-0.282344
0.294049
0.0490938
-0.0587248
-0.450021
0.459652
0.0677312
-0.0751938
-0.605821
0.613284
0.0831096
-0.0907618
-0.737076
0.744728
0.0992333
-0.106836
-0.866728
0.87433
0.11492
-0.121912
-1.01582
1.02282
0.128996
-0.134752
-1.18985
1.19561
0.140082
-0.143873
-1.39178
1.39557
0.146628
-0.147681
-1.62638
1.62744
0.147286
-0.145691
-1.58972
1.58813
0.143682
-0.141248
-1.30612
1.30369
0.138925
-0.136094
-1.0831
1.08027
0.133398
-0.130105
-0.903306
0.900013
0.125429
-0.116717
-0.735804
0.727092
0.104615
-0.0872452
-0.534853
0.517483
0.0691189
-0.049363
-0.311688
0.291932
0.0334764
-0.0195869
-0.138133
0.124243
0.010484
-0.00409346
-0.0424114
0.0360209
0.00101097
-0.0037491
0.00273813
-0.0566453
0.0642868
-0.00764147
0.039202
-0.0554302
-0.306705
0.322933
0.0713804
-0.0842158
-0.473705
0.486541
0.09539
-0.104309
-0.62393
0.632849
0.113819
-0.122824
-0.752932
0.761938
0.132319
-0.140388
-0.881628
0.889697
0.148605
-0.155428
-1.02939
1.03622
0.162071
-0.167178
-1.20075
1.20586
0.171583
-0.174305
-1.39858
1.40131
0.175737
-0.17544
-1.62765
1.62735
0.173726
-0.1709
-1.58573
1.58291
0.167922
-0.164641
-1.3001
1.29682
0.161732
-0.158405
-1.07682
1.0735
0.155151
-0.150845
-0.895226
0.89092
0.144335
-0.13232
-0.717309
0.705294
0.116291
-0.0944725
-0.499044
0.477226
0.0729
-0.0504605
-0.27167
0.24923
0.0332324
-0.0188475
-0.110393
0.0960078
0.00978633
-0.00368907
-0.0298265
0.0237293
0.000860036
-0.00177216
0.000912119
-0.0713827
0.0756549
-0.00427219
0.0299116
-0.0441122
-0.341802
0.356003
0.0583905
-0.0702327
-0.505001
0.516843
0.0809072
-0.0909561
-0.645483
0.655532
0.1023
-0.11285
-0.770331
0.780881
0.124633
-0.135118
-0.896728
0.907212
0.146338
-0.156388
-1.04213
1.05218
0.167025
-0.176279
-1.20992
1.21917
0.185693
-0.193433
-1.40291
1.41065
0.200691
-0.205881
-1.62593
1.63112
0.209006
-0.210701
-1.57907
1.58076
0.211169
-0.211153
-1.29222
1.2922
0.211182
-0.210462
-1.06902
1.0683
0.208927
-0.204317
-0.884245
0.879635
0.194595
-0.175602
-0.691594
0.6726
0.150299
-0.117586
-0.454218
0.421505
0.0873082
-0.0577199
-0.226818
0.19723
0.0365003
-0.0198508
-0.0823665
0.0657169
0.00985505
-0.0034946
-0.0181022
0.0117417
0.000733728
-3.86776e-05
-0.00069505
-0.0832186
0.0812765
0.00194209
0.00803632
-0.0172636
-0.37297
0.382197
0.02814
-0.0367461
-0.533387
0.541993
0.0454686
-0.0538391
-0.668362
0.676733
0.0641745
-0.0739503
-0.790875
0.800651
0.0844861
-0.0941205
-0.91706
0.926695
0.104417
-0.113295
-1.06195
1.07083
0.122884
-0.130861
-1.22823
1.2362
0.138958
-0.145372
-1.41809
1.42451
0.150976
-0.154789
-1.63565
1.63946
0.156705
-0.157286
-1.58201
1.58259
0.156602
-0.155405
-1.29121
1.29002
0.154347
-0.152979
-1.06512
1.06375
0.150587
-0.144466
-0.870287
0.864166
0.133679
-0.115639
-0.649579
0.631539
0.0944851
-0.0698392
-0.386871
0.362225
0.0493087
-0.0312701
-0.168421
0.150382
0.0191806
-0.010192
-0.0501993
0.0412106
0.00494333
-0.00171177
-0.00559799
0.00236643
0.000332514
0.00164646
-0.00197897
-0.0847245
0.0817721
0.00295243
-0.00108531
-0.00421852
-0.394188
0.399491
0.0114604
-0.0178024
-0.554544
0.560886
0.0242728
-0.0314864
-0.687741
0.694955
0.0404684
-0.0489472
-0.809421
0.8179
0.0582974
-0.0666879
-0.935479
0.94387
0.0754119
-0.0833208
-1.07953
1.08743
0.0916571
-0.0986893
-1.24375
1.25078
0.105381
-0.110519
-1.43028
1.43542
0.115043
-0.117691
-1.64268
1.64533
0.118498
-0.11805
-1.58268
1.58223
0.116592
-0.114743
-1.28823
1.28638
0.112679
-0.110449
-1.05948
1.05725
0.107338
-0.100847
-0.854129
0.847637
0.0907051
-0.0752202
-0.610619
0.595135
0.0589349
-0.0417194
-0.336073
0.318857
0.0288912
-0.0184059
-0.132278
0.121793
0.0115393
-0.00640301
-0.0322924
0.0271561
0.00326215
-0.00120696
0.00110186
-0.00315704
0.00026178
0.00252874
-0.00279052
-0.0834482
0.0805701
0.00287809
-0.00507746
0.00243227
-0.408327
0.410973
0.00227235
-0.00706895
-0.570328
0.575125
0.0124986
-0.0185319
-0.703661
0.709695
0.0262309
-0.0334911
-0.82564
0.8329
0.0414552
-0.0486273
-0.951656
0.958829
0.0564721
-0.0631613
-1.09487
1.10156
0.0703873
-0.0760127
-1.25736
1.26299
0.0816673
-0.0858823
-1.44029
1.44451
0.0892239
-0.0906287
-1.64755
1.64895
0.0906624
-0.0895196
-1.58125
1.58011
0.087484
-0.08462
-1.28398
1.28112
0.0818713
-0.0787482
-1.05246
1.04934
0.0749068
-0.0688945
-0.837091
0.831079
0.0599884
-0.0480049
-0.577242
0.565258
0.0365746
-0.0257775
-0.300757
0.28996
0.0182892
-0.0123416
-0.110678
0.10473
0.00830748
-0.00506488
-0.0214327
0.0181901
0.00282869
-0.00116974
0.00568544
-0.00734438
0.000296876
0.00324801
-0.00354489
-0.0818442
0.0792645
0.00257968
-0.00650214
0.00553345
-0.417777
0.418746
-0.00201825
-0.00154589
-0.582943
0.586507
0.0058527
-0.0112803
-0.717002
0.722429
0.0177283
-0.0240714
-0.839369
0.845712
0.0309278
-0.0371177
-0.965488
0.971678
0.0437992
-0.0496716
-1.10806
1.11394
0.0557153
-0.0607179
-1.26841
1.27341
0.0654041
-0.0687503
-1.44827
1.45162
0.0711399
-0.0716836
-1.65012
1.65066
0.0709159
-0.0687929
-1.57818
1.57606
0.0661038
-0.0626912
-1.27788
1.27447
0.0592913
-0.0552344
-1.0442
1.04014
0.0510209
-0.0453551
-0.820909
0.815243
0.0382485
-0.029434
-0.551163
0.542349
0.0219598
-0.0156411
-0.277908
0.271589
0.0115556
-0.00846526
-0.0979294
0.094839
0.00622294
-0.00416981
-0.0142922
0.0122391
0.00255049
-0.00115418
0.0094065
-0.0108028
0.00033031
0.00398498
-0.00431529
-0.0802858
0.078046
0.0022398
-0.00662979
0.00624383
-0.424183
0.424569
-0.00417127
0.00130228
-0.592632
0.595501
0.00284526
-0.00746312
-0.728239
0.732857
0.0129552
-0.0184068
-0.85118
0.856631
0.0244298
-0.0298936
-0.977458
0.982921
0.0359083
-0.0409632
-1.11947
1.12453
0.0462528
-0.0505813
-1.27804
1.28237
0.0544788
-0.0571051
-1.45458
1.45721
0.0586727
-0.0588345
-1.65098
1.65114
0.0573053
-0.0546188
-1.57333
1.57064
0.0512984
-0.0471966
-1.27055
1.26644
0.0433923
-0.0385219
-1.03469
1.02982
0.0338105
-0.0285845
-0.805839
0.800613
0.0227319
-0.01631
-0.531552
0.52513
0.0116326
-0.00830421
-0.263925
0.260597
0.00660652
-0.00538147
-0.0907183
0.0894933
0.00435664
-0.00325783
-0.00956598
0.00846718
0.00218252
-0.00108975
0.0124975
-0.0135903
0.000345327
0.00473459
-0.00507992
-0.0790115
0.0772274
0.00178416
-0.00593082
0.0059623
-0.428811
0.428779
-0.00430509
0.00218764
-0.600997
0.603114
0.00163733
-0.00578211
-0.737887
0.742032
0.0109091
-0.0155427
-0.861633
0.866267
0.020757
-0.0255218
-0.988296
0.993061
0.0311037
-0.0355702
-1.12955
1.13402
0.0401183
-0.0440041
-1.28643
1.29032
0.0477232
-0.0498204
-1.45972
1.46182
0.0509438
-0.0504578
-1.65074
1.65025
0.0486766
-0.0451597
-1.56752
1.564
0.0414973
-0.0369926
-1.26184
1.25733
0.0325208
-0.0273011
-1.02401
1.01879
0.0221746
-0.0168041
-0.791792
0.786422
0.0120213
-0.00711266
-0.516693
0.511784
0.00419871
-0.00289186
-0.25559
0.254283
0.00253681
-0.00247392
-0.0871634
0.0871005
0.00235076
-0.00204133
-0.00689689
0.00658746
0.00152911
-0.00085614
0.0147997
-0.0154726
0.000309487
0.0054241
-0.00573358
-0.0782046
0.0767808
0.00142374
-0.00496729
0.00521107
-0.432316
0.432072
-0.00376083
0.00180198
-0.608151
0.61011
0.00176251
-0.00544545
-0.746433
0.750116
0.00976762
-0.0141498
-0.870822
0.875204
0.018877
-0.0236799
-0.997568
1.00237
0.0283745
-0.0324979
-1.13853
1.14265
0.0369758
-0.0403989
-1.29399
1.29741
0.0433289
-0.0455015
-1.4637
1.46587
0.0463363
-0.045617
-1.64966
1.64895
0.0433889
-0.0397516
-1.56046
1.55683
0.0357398
-0.0307887
-1.25218
1.24722
0.0259808
-0.0203053
-1.01264
1.00696
0.0148953
-0.00960048
-0.778134
0.772839
0.00505371
-0.00119723
-0.504835
0.500978
-0.000704046
0.00117327
-0.250847
0.250378
-0.000851152
0.000210306
-0.0860917
0.0867325
0.000282947
-0.000657242
-0.00594045
0.00631475
0.000703782
-0.000496275
0.0161105
-0.016318
0.000217454
0.00596173
-0.00617919
-0.0779203
0.0767102
0.00121008
-0.00374007
0.00379255
-0.435303
0.43525
-0.00260517
0.000721537
-0.614585
0.616468
0.00254387
-0.00605336
-0.754262
0.757771
0.0101216
-0.0140199
-0.879361
0.88326
0.0187778
-0.0226719
-1.00652
1.01042
0.0272117
-0.0310254
-1.14687
1.15069
0.0352071
-0.0386256
-1.30072
1.30414
0.0415924
-0.0432484
-1.46768
1.46934
0.0440239
-0.0432389
-1.64798
1.6472
0.0411362
-0.0372021
-1.55285
1.54892
0.0330536
-0.027865
-1.24209
1.2369
0.022867
-0.0168968
-1.00046
0.994494
0.0114103
-0.0058393
-0.764906
0.759335
0.00157733
0.00185736
-0.494864
0.49143
-0.00354807
0.0036483
-0.247762
0.247662
-0.00309021
0.00214276
-0.0863587
0.0873061
-0.00130908
0.000496105
-0.00636271
0.00717568
-4.43374e-05
-0.000153282
0.0164151
-0.0162174
0.000109731
0.00625499
-0.00636472
-0.0779152
0.0770396
0.000875641
-0.00261148
0.00221025
-0.438265
0.438666
-0.00122597
-0.000696064
-0.620181
0.622103
0.00359614
-0.00692762
-0.761446
0.764777
0.0107651
-0.0147358
-0.887011
0.890981
0.0187869
-0.0227683
-1.01448
1.01846
0.0271659
-0.0306523
-1.15488
1.15836
0.0347844
-0.0379978
-1.30728
1.31049
0.0408021
-0.0427575
-1.4713
1.47326
0.0437001
-0.0428232
-1.6463
1.64542
0.0405186
-0.0368376
-1.54498
1.5413
0.03281
-0.0275237
-1.23137
1.22608
0.0223591
-0.0165221
-0.98802
0.982183
0.0105861
-0.0049687
-0.751664
0.746047
0.000741391
0.00258835
-0.48576
0.48243
-0.0042251
0.00462337
-0.24532
0.244921
-0.00416405
0.00327816
-0.087258
0.0881439
-0.0023475
0.00134539
-0.00762433
0.00862644
-0.000641026
0.000156752
0.0159303
-0.015446
9.55191e-06
0.00631885
-0.0063284
-0.0783237
0.0776243
0.000699451
-0.00164205
0.00128632
-0.441374
0.44173
0.000196691
-0.00194903
-0.625781
0.627533
0.00499388
-0.00816218
-0.768031
0.7712
0.011807
-0.0153244
-0.894606
0.898124
0.019445
-0.0230426
-1.02239
1.02599
0.0273044
-0.0311518
-1.16226
1.16611
0.0347999
-0.0382209
-1.31368
1.3171
0.0412899
-0.0431467
-1.47501
1.47686
0.0442088
-0.04382
-1.64464
1.64425
0.0416383
-0.0382193
-1.53733
1.53391
0.0340881
-0.0289464
-1.22067
1.21553
0.0239427
-0.0180077
-0.975616
0.969681
0.0122523
-0.00643235
-0.738649
0.732829
0.00197558
0.00158663
-0.476645
0.473083
-0.0034682
0.00424205
-0.242631
0.241857
-0.00425121
0.00364402
-0.0880555
0.0886627
-0.00283021
0.00183057
-0.00922818
0.0102278
-0.00103442
0.000387418
0.014913
-0.014266
-7.69327e-05
0.00619193
-0.006115
-0.0790361
0.0785163
0.000519769
-0.000560071
2.68524e-05
-0.444607
0.44514
0.00130575
-0.00335315
-0.630931
0.632979
0.0063133
-0.00930374
-0.774305
0.777295
0.0130118
-0.0163472
-0.901607
0.904942
0.0202632
-0.0239362
-1.03004
1.03371
0.0280428
-0.0317866
-1.16976
1.1735
0.0355739
-0.0389302
-1.32037
1.32373
0.0420594
-0.0445345
-1.47893
1.4814
0.0458438
-0.0455262
-1.64368
1.64336
0.0437782
-0.0404059
-1.53024
1.52687
0.0366031
-0.0318006
-1.21021
1.20541
0.0266907
-0.0208462
-0.963255
0.957411
0.0151693
-0.00916903
-0.725712
0.719711
0.0045273
-0.000555309
-0.467467
0.463495
-0.00168453
0.00299467
-0.239252
0.237942
-0.00338806
0.00317037
-0.0882421
0.0884598
-0.00265708
0.00185997
-0.01076
0.0115571
-0.00113856
0.000481526
0.0136426
-0.0129855
-0.000114627
0.00591981
-0.00580518
-0.0799945
0.0796027