/*--------------------------------*- C++ -*----------------------------------*\
  =========                 |
  \\      /  F ield         | OpenFOAM: The Open Source CFD Toolbox
   \\    /   O peration     | Website:  https://openfoam.org
    \\  /    A nd           | Version:  6
     \\/     M anipulation  |
\*---------------------------------------------------------------------------*/
FoamFile
{
    version     2.0;
    format      ascii;
    class       surfaceScalarField;
    location    "30.9";
    object      phi;
}
// * * * * * * * * * * * * * * * * * * * * * * * * * * * * * * * * * * * * * //

dimensions      [0 3 -1 0 0 0 0];

internalField   nonuniform List<scalar> 
17370
(
-0.0900014
0.08985
0.289162
-0.0714634
0.053753
0.364486
-0.0381196
0.0276903
0.426597
-0.0196363
0.0145997
0.504288
-0.0107523
0.00825645
0.601898
-0.0062523
0.00487586
0.720434
-0.0037185
0.00288912
0.863736
-0.00216335
0.00161915
1.03599
-0.00111707
0.000713597
1.24291
-0.000311659
-7.33176e-05
1.49158
0.000449993
-0.000858966
1.4916
0.00125753
-0.00175007
1.24318
0.00228341
-0.00299686
1.03635
0.00381649
-0.00496484
0.864055
0.00633385
-0.00833025
0.721054
0.0108192
-0.0146596
0.603055
0.0196902
-0.0277379
0.507487
0.0381614
-0.0537879
0.431795
0.0714915
-0.0898686
0.365153
0.0900123
0.198999
-0.128129
0.0882156
0.0399137
-0.364591
0.353364
-0.0746849
0.0859123
-0.446473
0.454309
-0.0844136
0.0765774
-0.521185
0.529892
-0.0684836
0.0597765
-0.612781
0.621559
-0.0515913
0.0428143
-0.726885
0.73415
-0.0353555
0.0280901
-0.867466
0.872563
-0.0224981
0.0174008
-1.03846
1.04189
-0.0136102
0.0101839
-1.24459
1.24701
-0.00759209
0.00517816
-1.49265
1.49459
-0.00325161
0.00130476
-1.4925
1.4942
0.000359115
-0.00206496
-1.24398
1.24587
0.00396318
-0.0058568
-1.0375
1.04005
0.0082304
-0.0107823
-0.866096
0.869848
0.0141649
-0.0179166
-0.724398
0.729949
0.0229715
-0.028523
-0.608708
0.616128
0.035744
-0.0431643
-0.514906
0.523058
0.0519022
-0.0600541
-0.439863
0.44793
0.0687263
-0.0767934
-0.375302
0.376761
0.0845983
-0.0860564
-0.257344
0.222513
0.0747828
-0.0399518
-0.068498
0.0586685
0.00982951
-0.0518381
0.0584323
-0.374105
0.367511
-0.0575222
0.0537736
-0.453577
0.457325
-0.0486828
0.044729
-0.527919
0.531873
-0.040886
0.0372451
-0.621531
0.625172
-0.0331451
0.0290852
-0.735316
0.739376
-0.0245509
0.0204357
-0.874313
0.878428
-0.0161457
0.0124979
-1.04346
1.04711
-0.00880988
0.00566706
-1.24853
1.25168
-0.00236442
-0.000711997
-1.49663
1.49971
0.00376026
-0.00701526
-1.49721
1.50046
0.0100876
-0.0136892
-1.25009
1.25369
0.0172564
-0.0214568
-1.04595
1.05015
0.0254934
-0.029947
-0.877794
0.882247
0.0339357
-0.0379591
-0.739932
0.743956
0.0415331
-0.0453073
-0.626801
0.630575
0.0492039
-0.0542407
-0.534836
0.539873
0.0579322
-0.0587714
-0.457507
0.458346
0.0520958
-0.0319384
-0.335807
0.31565
0.0098722
-0.0683832
0.058511
-0.0529114
0.0489105
0.00400089
-0.0331999
0.043764
-0.358059
0.347495
-0.0474792
0.0468645
-0.45925
0.459865
-0.0438187
0.0404729
-0.535763
0.539109
-0.0367089
0.033416
-0.628481
0.631774
-0.0299957
0.0269844
-0.74259
0.745601
-0.0237543
0.0206783
-0.881932
0.885008
-0.0171887
0.0138483
-1.05067
1.05401
-0.0101059
0.00661341
-1.25509
1.25858
-0.00270467
-0.00103535
-1.5032
1.50694
0.00475025
-0.00858619
-1.50413
1.50796
0.0119839
-0.0156109
-1.25743
1.26105
0.0188392
-0.0222078
-1.05395
1.05731
0.0251772
-0.0282924
-0.885757
0.888872
0.0312003
-0.03451
-0.747248
0.750558
0.0377065
-0.0413728
-0.634391
0.638057
0.0446366
-0.0475905
-0.544207
0.547161
0.0481102
-0.0442629
-0.456663
0.452816
0.0335442
-0.0161586
-0.296336
0.278951
0.00405307
-0.0527092
0.0486561
-0.0458265
0.0433271
0.0024995
-0.0228372
0.0332329
-0.336783
0.326387
-0.0390691
0.040098
-0.45952
0.458492
-0.038922
0.0366501
-0.541788
0.54406
-0.0339985
0.0314191
-0.634779
0.637359
-0.0283851
0.0255286
-0.748625
0.751481
-0.0223298
0.0194042
-0.887975
0.8909
-0.0161753
0.0131389
-1.05714
1.06018
-0.00967241
0.00631508
-1.26199
1.26535
-0.0023982
-0.00144501
-1.51077
1.51461
0.00525518
-0.00906563
-1.51183
1.51564
0.0122906
-0.0155905
-1.26451
1.26781
0.0184674
-0.0215227
-1.06045
1.06351
0.0242968
-0.0273388
-0.891966
0.895008
0.0300571
-0.0329431
-0.753789
0.756675
0.0353922
-0.0379118
-0.641135
0.643655
0.0400742
-0.0411101
-0.548985
0.550021
0.0399372
-0.0338934
-0.447591
0.441547
0.0232744
-0.0101505
-0.263813
0.250689
0.00256336
-0.0455163
0.042953
-0.0412462
0.0394752
0.00177103
-0.0167691
0.0260376
-0.316511
0.307242
-0.0326667
0.0348252
-0.456873
0.454715
-0.0344167
0.032751
-0.546025
0.547691
-0.030572
0.028488
-0.639635
0.641719
-0.026091
0.0237551
-0.754079
0.756415
-0.0209953
0.0183072
-0.893733
0.896421
-0.0151768
0.0121955
-1.06315
1.06613
-0.00878862
0.00553532
-1.26862
1.27187
-0.00177224
-0.00190524
-1.51838
1.52205
0.00554113
-0.00917422
-1.51939
1.52302
0.0122568
-0.015447
-1.27104
1.27423
0.0182176
-0.0211136
-1.0665
1.06939
0.023599
-0.0261557
-0.897817
0.900374
0.028318
-0.0305288
-0.759166
0.761377
0.032447
-0.034454
-0.645872
0.647879
0.0359591
-0.0361764
-0.550602
0.550819
0.0337994
-0.0268722
-0.43498
0.428053
0.0173082
-0.00729441
-0.23927
0.229256
0.00184848
-0.040804
0.0389556
-0.0379489
0.0366185
0.00133035
-0.0127855
0.0207347
-0.298633
0.290684
-0.0274993
0.0304488
-0.452112
0.449162
-0.0306992
0.0296333
-0.549062
0.550128
-0.0277054
0.0258463
-0.643692
0.645551
-0.0237065
0.0216272
-0.758622
0.760701
-0.0191821
0.0167682
-0.898971
0.901385
-0.0139083
0.0111146
-1.06901
1.07181
-0.00785632
0.0047174
-1.27504
1.27817
-0.00108424
-0.00244438
-1.52562
1.52914
0.00591727
-0.00938747
-1.52657
1.53004
0.0123093
-0.015287
-1.27736
1.28034
0.01781
-0.0203765
-1.07216
1.07472
0.0225394
-0.02473
-0.902713
0.904904
0.0265895
-0.0284962
-0.763403
0.765309
0.0301487
-0.0318684
-0.649723
0.651443
0.0327057
-0.032192
-0.550662
0.550148
0.0289361
-0.0217698
-0.420942
0.413776
0.0134452
-0.00559332
-0.220425
0.212573
0.00142469
-0.0373468
0.0359221
-0.0354555
0.0344342
0.00102128
-0.00994898
0.0166448
-0.283381
0.276685
-0.0231201
0.0264944
-0.445975
0.442601
-0.0272757
0.0265778
-0.550982
0.55168
-0.0248252
0.0230721
-0.647368
0.649121
-0.02109
0.0192043
-0.762703
0.764589
-0.0170132
0.014854
-0.903649
0.905808
-0.0122872
0.00974395
-1.0744
1.07695
-0.00673179
0.00376912
-1.28119
1.28415
-0.000278264
-0.00312712
-1.53262
1.53603
0.00646571
-0.00975209
-1.53347
1.53675
0.0124418
-0.015106
-1.28317
1.28584
0.0173048
-0.0194857
-1.07708
1.07926
0.0213139
-0.0231793
-0.906892
0.908757
0.0247898
-0.02649
-0.767082
0.768782
0.0279938
-0.0294685
-0.653074
0.654548
0.0298785
-0.02872
-0.549338
0.54818
0.024922
-0.0179192
-0.40667
0.399667
0.0107547
-0.00444174
-0.205561
0.199248
0.00113627
-0.0346596
0.0335233
-0.0335377
0.0327481
0.000789595
-0.00781657
0.0134025
-0.270563
0.264977
-0.0193672
0.0229503
-0.439096
0.435512
-0.0242604
0.0238726
-0.552243
0.552631
-0.0224551
0.0208519
-0.650834
0.652437
-0.018974
0.0171578
-0.766472
0.768289
-0.0150296
0.0129311
-0.907908
0.910007
-0.0104548
0.00803141
-1.07937
1.08179
-0.00519829
0.00244099
-1.28697
1.28972
0.000772479
-0.00390093
-1.53926
1.54239
0.00695343
-0.00993485
-1.53989
1.54288
0.0123778
-0.0147841
-1.28841
1.29081
0.0167773
-0.0187751
-1.08136
1.08336
0.0204612
-0.0221843
-0.910524
0.912247
0.0236673
-0.0251978
-0.770365
0.771895
0.0264832
-0.027528
-0.655822
0.656867
0.027533
-0.0257186
-0.546705
0.544891
0.0215835
-0.0149557
-0.392842
0.386214
0.00879514
-0.00361514
-0.193551
0.188371
0.00092885
-0.0325059
0.0315771
-0.0320566
0.0314526
0.000603998
-0.00612624
0.0107364
-0.259901
0.255291
-0.0160369
0.019555
-0.431943
0.428425
-0.0211412
0.0209719
-0.552888
0.553057
-0.0198111
0.0183185
-0.653985
0.655478
-0.0165641
0.0148602
-0.770109
0.771813
-0.012851
0.0108651
-0.912046
0.914032
-0.00852717
0.00625222
-1.08408
1.08635
-0.00360411
0.00103248
-1.29234
1.29491
0.00196926
-0.0048963
-1.54539
1.54831
0.00772148
-0.0104249
-1.54571
1.54841
0.0125982
-0.0147134
-1.29311
1.29523
0.0164537
-0.0181924
-1.08527
1.08701
0.0196553
-0.0211491
-0.91386
0.915354
0.022434
-0.0237659
-0.773276
0.774608
0.0248932
-0.0255755
-0.657715
0.658397
0.0252531
-0.0230002
-0.542869
0.540616
0.0187661
-0.0126342
-0.37985
0.373719
0.00731986
-0.00300003
-0.183662
0.179342
0.000774895
-0.0307385
0.0299636
-0.0309272
0.0304734
0.000453761
-0.00473612
0.00848419
-0.251128
0.24738
-0.0130787
0.0164048
-0.424997
0.421671
-0.0181424
0.0181379
-0.553167
0.553171
-0.017141
0.0156799
-0.656999
0.65846
-0.0139808
0.0123595
-0.773505
0.775126
-0.0104755
0.00862937
-0.915889
0.917735
-0.00644661
0.00431042
-1.08848
1.09062
-0.00180538
-0.000620836
-1.29736
1.29979
0.00342614
-0.00610147
-1.5511
1.55377
0.00866088
-0.01111
-1.551
1.55345
0.0130586
-0.0149296
-1.29726
1.29913
0.0164245
-0.017876
-1.08863
1.09008
0.0190733
-0.0202839
-0.916683
0.917894
0.0213453
-0.0224982
-0.775788
0.776941
0.0234847
-0.0238613
-0.658919
0.659295
0.0232231
-0.0206313
-0.53823
0.535638
0.0164088
-0.0107936
-0.367867
0.362252
0.00618848
-0.00253811
-0.175393
0.171743
0.000661645
-0.0292597
0.0285981
-0.0300877
0.0297628
0.000324844
-0.00353705
0.00649943
-0.244038
0.241075
-0.0103474
0.0133618
-0.418493
0.415479
-0.0151701
0.015389
-0.553078
0.552859
-0.0145848
0.0132932
-0.659899
0.66119
-0.0116725
0.0100818
-0.776769
0.778359
-0.00820432
0.00635473
-0.919511
0.92136
-0.00419131
0.00210424
-1.09264
1.09473
0.0002926
-0.00257504
-1.30209
1.30437
0.00516433
-0.00759452
-1.55628
1.55871
0.00987531
-0.0120109
-1.55575
1.55789
0.0136861
-0.0152712
-1.30091
1.3025
0.016536
-0.0177652
-1.09146
1.09269
0.0187864
-0.0198423
-0.919023
0.920079
0.0207723
-0.0217433
-0.777955
0.778926
0.0224321
-0.0224829
-0.659518
0.659569
0.0214724
-0.0185729
-0.532923
0.530024
0.0144343
-0.00932891
-0.35692
0.351814
0.0053175
-0.00219253
-0.168389
0.165264
0.000580923
-0.0279922
0.0274113
-0.0295033
0.0293026
0.000200765
-0.00241364
0.00462331
-0.238495
0.236285
-0.00768087
0.0102473
-0.41269
0.410123
-0.0119419
0.0122571
-0.552613
0.552298
-0.0115768
0.010437
-0.662463
0.663602
-0.00890941
0.00735793
-0.779956
0.781508
-0.00550345
0.0036926
-0.92311
0.924921
-0.001611
-0.000365569
-1.09668
1.09865
0.00261792
-0.00475728
-1.30652
1.30866
0.00718478
-0.0094581
-1.56103
1.56331
0.011534
-0.0134026
-1.55991
1.56178
0.0147985
-0.0160672
-1.304
1.30527
0.0170604
-0.0180115
-1.09387
1.09482
0.0187973
-0.0196048
-0.921001
0.921809
0.0202814
-0.0209297
-0.779637
0.780286
0.0212911
-0.0210444
-0.659423
0.659177
0.0196799
-0.0166196
-0.527084
0.524024
0.01267
-0.0080792
-0.347008
0.342417
0.00459201
-0.00190861
-0.162397
0.159714
0.000514868
-0.026882
0.0263671
-0.0291647
0.0290829
8.1762e-05
-0.00136168
0.00285389
-0.234449
0.232957
-0.00510668
0.00713758
-0.407846
0.405815
-0.00857026
0.00883942
-0.552047
0.551777
-0.00815946
0.00705148
-0.664808
0.665916
-0.00555663
0.00406262
-0.783055
0.784549
-0.00230092
0.000582466
-0.926572
0.92829
0.00141651
-0.00332845
-1.10047
1.10238
0.00549715
-0.00751251
-1.31065
1.31267
0.00973134
-0.0117075
-1.5654
1.56737
0.013472
-0.0150045
-1.56348
1.56501
0.0160956
-0.017022
-1.30643
1.30735
0.0176883
-0.0182901
-1.09563
1.09623
0.0187562
-0.0191804
-0.922436
0.922861
0.0195738
-0.0200377
-0.7808
0.781264
0.0201289
-0.0196152
-0.65873
0.658217
0.0180353
-0.0149066
-0.520986
0.517858
0.0111821
-0.00707
-0.338124
0.334012
0.00402801
-0.00169863
-0.157251
0.154922
0.000469898
-0.0258955
0.0254256
-0.0290581
0.0290921
-3.40352e-05
-0.000280403
0.00106808
-0.23183
0.231042
-0.00252323
0.00400211
-0.40409
0.402611
-0.00516323
0.00541
-0.551606
0.551359
-0.00480168
0.00377979
-0.667107
0.668129
-0.00234603
0.000879994
-0.78602
0.787486
0.000875079
-0.00259895
-0.929845
0.931568
0.00459918
-0.00649707
-1.10415
1.10604
0.00863007
-0.0105969
-1.31458
1.31655
0.0127072
-0.0145424
-1.56921
1.57104
0.0160979
-0.0173694
-1.56642
1.5677
0.0182022
-0.0188456
-1.30823
1.30887
0.0192281
-0.0194811
-1.09671
1.09696
0.0196327
-0.0197565
-0.923147
0.92327
0.0198157
-0.0198468
-0.781432
0.781463
0.0196285
-0.018782
-0.657458
0.656611
0.0168566
-0.0135716
-0.514744
0.511459
0.0100106
-0.00629024
-0.330163
0.326442
0.00360739
-0.0015543
-0.152777
0.150724
0.000445961
-0.0249915
0.0245456
-0.0291984
0.029381
-0.000182647
0.00076692
-0.000727381
-0.23064
0.230601
0.000128068
0.000709404
-0.401493
0.400656
-0.00148385
0.00164415
-0.551249
0.551088
-0.00110603
0.000172514
-0.669217
0.670151
0.00122624
-0.00273732
-0.788951
0.790462
0.00458623
-0.00639191
-0.933168
0.934973
0.00844913
-0.010369
-1.1078
1.10972
0.012488
-0.0143894
-1.31838
1.32028
0.016385
-0.0180648
-1.57275
1.57443
0.0193741
-0.0203061
-1.56882
1.56975
0.0207934
-0.0210385
-1.30937
1.30962
0.0210982
-0.0210371
-1.09712
1.09706
0.0208855
-0.0206519
-0.923229
0.922995
0.0204179
-0.0201232
-0.781235
0.78094
0.0194874
-0.0180598
-0.655393
0.653965
0.0157999
-0.0124286
-0.508242
0.50487
0.00905781
-0.00568785
-0.322999
0.319629
0.00329057
-0.00143972
-0.148843
0.146992
0.000420206
-0.0241421
0.0237219
-0.029627
0.0299252
-0.000298168
0.00175158
-0.00234134
-0.230855
0.231445
0.00258664
-0.00244924
-0.400253
0.400115
0.00222877
-0.00234829
-0.551221
0.55134
0.00300203
-0.00402588
-0.671253
0.672276
0.00551265
-0.00710071
-0.791933
0.793521
0.00902338
-0.010883
-0.936592
0.938451
0.0129945
-0.0149494
-1.11149
1.11344
0.0170857
-0.0189732
-1.32205
1.32394
0.0208958
-0.0224153
-1.57596
1.57748
0.0234979
-0.0241207
-1.57054
1.57116
0.0242749
-0.0241143
-1.30975
1.30958
0.0237646
-0.023242
-1.0968
1.09627
0.0227117
-0.022116
-0.922514
0.921918
0.0215752
-0.0208825
-0.780264
0.779571
0.0198261
-0.0180157
-0.652388
0.650577
0.0155229
-0.0120793
-0.501636
0.498193
0.0088073
-0.0056009
-0.316473
0.313267
0.00329321
-0.00146139
-0.145237
0.143405
0.000429212
-0.0233354
0.0229062
-0.030304
0.0307354
-0.000431399
0.00263464
-0.00380355
-0.232347
0.233516
0.00480153
-0.00538486
-0.400418
0.401001
0.00580865
-0.00631746
-0.551894
0.552402
0.00721495
-0.00845151
-0.673551
0.674788
0.0101719
-0.0119717
-0.795086
0.796886
0.0141107
-0.0161488
-0.940144
0.942182
0.0184302
-0.0205101
-1.11525
1.11733
0.022731
-0.0246247
-1.32569
1.32758
0.026453
-0.0277524
-1.57881
1.58011
0.0285199
-0.0287633
-1.57158
1.57182
0.028579
-0.0280343
-1.30927
1.30872
0.0273322
-0.0264268
-1.09554
1.09463
0.0255336
-0.0245581
-0.921056
0.920081
0.0236777
-0.0226109
-0.778503
0.777436
0.0212418
-0.0190581
-0.648684
0.6465
0.0163013
-0.0126889
-0.494892
0.49128
0.00935167
-0.0060711
-0.310187
0.306907
0.00363458
-0.00163058
-0.141588
0.139584
0.000479091
-0.022498
0.022019
-0.0312459
0.0318114
-0.000565549
0.00354087
-0.00526578
-0.235001
0.236726
0.00697875
-0.00822284
-0.401938
0.403182
0.0092619
-0.0101839
-0.55344
0.554362
0.0114022
-0.0129126
-0.676338
0.677849
0.0149391
-0.01703
-0.798653
0.800744
0.0195026
-0.0218474
-0.944087
0.946431
0.0244574
-0.0268145
-1.11933
1.12169
0.0292802
-0.0313368
-1.32939
1.33145
0.0332199
-0.0344394
-1.58124
1.58246
0.0350238
-0.0349658
-1.57186
1.5718
0.0344461
-0.0335044
-1.30799
1.30705
0.0324248
-0.0311063
-1.09349
1.09218
0.0298524
-0.0284897
-0.91879
0.917427
0.0272553
-0.0257407
-0.775972
0.774457
0.0239379
-0.021287
-0.644243
0.641592
0.0181559
-0.0142179
-0.487786
0.483848
0.010623
-0.00701927
-0.303664
0.300061
0.00425236
-0.00191889
-0.137527
0.135193
0.000563864
-0.0215471
0.0209832
-0.0324634
0.0332056
-0.000742233
0.00467154
-0.00703941
-0.238805
0.241173
0.00953598
-0.0114994
-0.404841
0.406805
0.0132247
-0.0145906
-0.555875
0.557241
0.0161433
-0.0179372
-0.679659
0.681453
0.0203314
-0.0228087
-0.802782
0.80526
0.0257466
-0.0285239
-0.948688
0.951465
0.0315963
-0.034338
-1.124
1.12675
0.0371771
-0.03948
-1.33346
1.33576
0.0415211
-0.0427737
-1.5836
1.58485
0.0432102
-0.0428427
-1.57154
1.57117
0.0419494
-0.0405555
-1.30586
1.30447
0.0390433
-0.0372683
-1.09056
1.08878
0.0356012
-0.033767
-0.915671
0.913837
0.0320862
-0.0299847
-0.772513
0.770411
0.0276816
-0.02447
-0.638838
0.635627
0.0208785
-0.0164939
-0.480001
0.475617
0.0124592
-0.00831113
-0.296429
0.29228
0.0050567
-0.00228486
-0.132769
0.129997
0.000671298
-0.0204202
0.0197489
-0.0340426
0.0350307
-0.000988071
0.00618173
-0.00934866
-0.243934
0.247101
0.0127802
-0.0156061
-0.409324
0.41215
0.0181974
-0.0202704
-0.559423
0.561496
0.0224584
-0.0247738
-0.683647
0.685962
0.0277403
-0.0307475
-0.807685
0.810692
0.0342359
-0.0374996
-0.954149
0.957413
0.0410727
-0.0442097
-1.12944
1.13258
0.0473663
-0.0498302
-1.33797
1.34044
0.0518896
-0.0529658
-1.58593
1.587
0.0530721
-0.0522358
-1.57054
1.5697
0.0508738
-0.0489433
-1.30277
1.30084
0.0469251
-0.0445174
-1.08658
1.08417
0.0422578
-0.0398256
-0.911479
0.909047
0.0376287
-0.034943
-0.767858
0.765173
0.0321375
-0.0283973
-0.632332
0.628591
0.0243422
-0.0193776
-0.47134
0.466375
0.0147007
-0.00980866
-0.288056
0.283164
0.00595862
-0.00268815
-0.127124
0.123854
0.000788875
-0.0190784
0.0182896
-0.0361118
0.0374593
-0.00134755
0.00830782
-0.0125294
-0.250689
0.25491
0.017099
-0.0209129
-0.41572
0.419534
0.0245324
-0.0275147
-0.564641
0.567624
0.0306664
-0.0338496
-0.688876
0.692059
0.0376993
-0.0414239
-0.813682
0.817407
0.045642
-0.0494881
-0.960595
0.964441
0.0535803
-0.0570574
-1.13561
1.13909
0.0604159
-0.0628943
-1.34271
1.34519
0.0647248
-0.065339
-1.58772
1.58834
0.0647855
-0.0631472
-1.56841
1.56677
0.0610111
-0.0582565
-1.29847
1.29571
0.0555511
-0.0525475
-1.08135
1.07835
0.0498542
-0.04695
-0.906062
0.903158
0.0442982
-0.041154
-0.762024
0.75888
0.0379216
-0.0336532
-0.624821
0.620552
0.0289104
-0.0229652
-0.461431
0.455486
0.0173302
-0.0114975
-0.278155
0.272322
0.00695992
-0.00313018
-0.120492
0.116662
0.000914597
-0.0175111
0.0165965
-0.0388792
0.0407521
-0.00187296
0.0113419
-0.0169795
-0.259547
0.265185
0.0229354
-0.0278227
-0.424347
0.429235
0.0324707
-0.0364362
-0.571957
0.575923
0.0407241
-0.0449538
-0.695968
0.700197
0.0499202
-0.0546092
-0.821178
0.825867
0.0597451
-0.0642731
-0.968215
0.972743
0.0689413
-0.0727821
-1.14242
1.14626
0.0763616
-0.0788325
-1.34742
1.34989
0.080401
-0.0805347
-1.58851
1.58865
0.079341
-0.0769114
-1.56461
1.56218
0.0740117
-0.070381
-1.29242
1.28879
0.0668551
-0.0629911
-1.07475
1.07089
0.0595992
-0.0561436
-0.899655
0.896199
0.0531487
-0.0496125
-0.755293
0.751757
0.0458076
-0.0405016
-0.616109
0.610803
0.0345
-0.0270982
-0.449404
0.442003
0.0202904
-0.0134035
-0.2664
0.259513
0.00809103
-0.00362317
-0.112746
0.108279
0.00105133
-0.0156964
0.0146451
-0.0426472
0.045348
-0.00270079
0.0159259
-0.0235231
-0.271216
0.278813
0.0312446
-0.0373723
-0.435609
0.441736
0.0430823
-0.048003
-0.581525
0.586446
0.0534257
-0.0587766
-0.70516
0.710511
0.0649559
-0.0706185
-0.830591
0.836254
0.0766758
-0.0819282
-0.977194
0.982446
0.0872439
-0.091537
-1.14996
1.15426
0.0954058
-0.0979437
-1.35212
1.35466
0.0993647
-0.0991614
-1.5884
1.5882
0.0975088
-0.0945099
-1.55933
1.55633
0.0910488
-0.0867735
-1.28473
1.28046
0.0826297
-0.0780229
-1.06644
1.06183
0.0739168
-0.0696313
-0.891935
0.88765
0.0657117
-0.0610829
-0.747428
0.742799
0.0557709
-0.0485219
-0.604834
0.597584
0.0407642
-0.0317171
-0.434417
0.42537
0.0236718
-0.0156141
-0.252618
0.244561
0.00939284
-0.00417459
-0.103741
0.0985224
0.00119764
-0.0136179
0.0124202
-0.0479653
0.0521044
-0.00413908
0.0232992
-0.0336965
-0.28689
0.297287
0.0438672
-0.0518106
-0.450364
0.458308
0.0588967
-0.0648407
-0.593427
0.59937
0.0713861
-0.0777744
-0.716474
0.722862
0.0849451
-0.0914089
-0.841779
0.848243
0.0982755
-0.104156
-0.987573
0.993453
0.110015
-0.114618
-1.15835
1.16295
0.118603
-0.121055
-1.35687
1.35932
0.12216
-0.121477
-1.58756
1.58688
0.119217
-0.115529
-1.55287
1.54918
0.111444
-0.10648
-1.27578
1.27081
0.10168
-0.0962827
-1.05665
1.05125
0.091323
-0.0857858
-0.882275
0.876738
0.0803271
-0.0736161
-0.736613
0.729902
0.0662729
-0.0569226
-0.589394
0.580044
0.047542
-0.0369927
-0.416324
0.405774
0.0276374
-0.0181822
-0.236601
0.227146
0.0108526
-0.00475787
-0.0932872
0.0871924
0.00133934
-0.0112647
0.00992537
-0.0559044
0.0630625
-0.00715809
0.0365512
-0.0512422
-0.308765
0.323456
0.0650238
-0.0755017
-0.470227
0.480705
0.084135
-0.0910776
-0.607894
0.614836
0.0987421
-0.105979
-0.729537
0.736774
0.113832
-0.120738
-0.854374
0.86128
0.12793
-0.133933
-0.999004
1.00501
0.139718
-0.144009
-1.16708
1.17137
0.14744
-0.149149
-1.36113
1.36284
0.149264
-0.147476
-1.58545
1.58367
0.14403
-0.139106
-1.54478
1.53985
0.133924
-0.127783
-1.26522
1.25908
0.121905
-0.115273
-1.04507
1.03844
0.109005
-0.101774
-0.869758
0.862527
0.094595
-0.0859215
-0.721312
0.712639
0.0769556
-0.0660648
-0.569822
0.558931
0.0553767
-0.0432968
-0.395332
0.383252
0.0323558
-0.0211817
-0.217918
0.206744
0.0124995
-0.0053754
-0.0812448
0.0741207
0.00146711
-0.00866392
0.00719681
-0.0698104
0.0736335
-0.00382319
0.0272293
-0.0399959
-0.340831
0.353597
0.052366
-0.0618303
-0.496456
0.50592
0.0701469
-0.0782832
-0.624923
0.633059
0.0876912
-0.0962227
-0.743442
0.751974
0.106082
-0.115123
-0.867312
0.876353
0.124951
-0.133769
-1.01012
1.01894
0.142997
-0.150828
-1.17464
1.18247
0.158437
-0.164204
-1.36341
1.36918
0.168807
-0.170944
-1.58064
1.58277
0.170449
-0.167689
-1.53376
1.531
0.163425
-0.157252
-1.25193
1.24576
0.150699
-0.142059
-1.03075
1.02211
0.133452
-0.123091
-0.853713
0.843352
0.112877
-0.100972
-0.702035
0.690129
0.0889013
-0.0747628
-0.547165
0.533026
0.0612938
-0.0460407
-0.37103
0.355777
0.0326745
-0.019827
-0.195792
0.182945
0.0106538
-0.0040649
-0.0676367
0.0610478
0.000900265
-0.0059135
0.00501324
-0.0808798
0.0785876
0.00229227
0.00586151
-0.0137359
-0.369201
0.377075
0.0229413
-0.0298783
-0.519915
0.526852
0.0368973
-0.0439522
-0.643465
0.65052
0.0525851
-0.0606384
-0.760263
0.768316
0.0694807
-0.0777813
-0.884911
0.893212
0.0867629
-0.0944716
-1.02744
1.03515
0.102707
-0.109309
-1.19004
1.19665
0.115626
-0.120029
-1.37451
1.37891
0.122785
-0.123141
-1.58373
1.58408
0.120802
-0.116089
-1.52686
1.52215
0.109895
-0.101771
-1.23837
1.23025
0.0935185
-0.0835855
-1.01232
1.00239
0.0738354
-0.0626741
-0.831099
0.819938
0.0525442
-0.0422528
-0.67482
0.664528
0.0334161
-0.0240608
-0.516946
0.507591
0.0160593
-0.00895932
-0.339985
0.332885
0.00424499
-0.00105479
-0.170371
0.167181
-0.000450676
0.00076133
-0.0545116
0.0542009
-0.000454785
-0.00363366
0.00408844
-0.0816627
0.078733
0.00292963
-0.00237287
-0.00192239
-0.388177
0.392472
0.00772416
-0.0129711
-0.537621
0.542868
0.0186607
-0.0248905
-0.659425
0.665655
0.0324082
-0.0394206
-0.775683
0.782695
0.0472914
-0.0544896
-0.900814
0.908013
0.0620061
-0.0687956
-1.04264
1.04943
0.0758112
-0.0814772
-1.20272
1.20839
0.0863886
-0.0894927
-1.38247
1.38558
0.0911235
-0.0902644
-1.58344
1.58258
0.0867633
-0.0809809
-1.51639
1.51061
0.0740738
-0.0655809
-1.22156
1.21307
0.0568817
-0.0470816
-0.991777
0.981977
0.0378178
-0.0276195
-0.808557
0.798359
0.0188608
-0.0101969
-0.652254
0.64359
0.00339361
0.00294157
-0.496324
0.489989
-0.00703836
0.00898495
-0.323703
0.321756
-0.00888074
0.00734193
-0.161958
0.163497
-0.00524081
0.00276807
-0.0529807
0.0554534
-0.000980258
-0.00373213
0.00471238
-0.080251
0.0774659
0.00278511
-0.0055427
0.00351103
-0.400666
0.402698
0.000118676
-0.00418569
-0.551269
0.555336
0.00931205
-0.0146861
-0.672804
0.678178
0.0212517
-0.0273705
-0.789344
0.795463
0.0341443
-0.040317
-0.914764
0.920937
0.0471045
-0.0528098
-1.05576
1.06146
0.0588603
-0.0632733
-1.21358
1.218
0.0673234
-0.0697026
-1.38834
1.39072
0.0704587
-0.0687393
-1.58112
1.5794
0.0649714
-0.0591733
-1.50416
1.49836
0.0524491
-0.0440354
-1.20432
1.1959
0.0359536
-0.0270261
-0.971908
0.962981
0.018605
-0.00977686
-0.788017
0.779189
0.0019195
0.00551807
-0.633113
0.625675
-0.0111115
0.0152767
-0.481489
0.477324
-0.0169409
0.0161796
-0.316213
0.316974
-0.0137893
0.0102241
-0.162951
0.166516
-0.00690828
0.00339626
-0.0568055
0.0603175
-0.00110308
-0.00495355
0.00605663
-0.0787443
0.0763728
0.00237149
-0.00630163
0.00563613
-0.409109
0.409774
-0.00286467
-0.000281726
-0.562537
0.565683
0.00461538
-0.00962462
-0.684347
0.689356
0.0152734
-0.0207742
-0.801129
0.80663
0.0267312
-0.0321502
-0.926773
0.932192
0.038007
-0.0430978
-1.06705
1.07214
0.0482093
-0.052237
-1.22224
1.22627
0.05565
-0.0575496
-1.3927
1.3946
0.0579158
-0.0560205
-1.57747
1.57558
0.0523002
-0.0466158
-1.49191
1.48623
0.040397
-0.0328743
-1.18761
1.18009
0.0256382
-0.0175769
-0.953948
0.945887
0.0102894
-0.00261737
-0.770125
0.762453
-0.00392281
0.0101485
-0.61719
0.610965
-0.0145685
0.0175694
-0.470342
0.467341
-0.0185739
0.0171583
-0.313582
0.314997
-0.0141368
0.0103084
-0.167585
0.171413
-0.00682046
0.00324749
-0.0623871
0.06596
-0.00103862
-0.0065316
0.00757022
-0.0774943
0.0755179
0.00197647
-0.00594182
0.00560006
-0.415032
0.415374
-0.00393598
0.00127247
-0.571499
0.574162
0.00306993
-0.00747218
-0.694418
0.69882
0.0124663
-0.0173571
-0.811559
0.81645
0.0227572
-0.0276816
-0.937379
0.942303
0.0331165
-0.0376365
-1.07699
1.08151
0.0422898
-0.0459565
-1.23004
1.2337
0.0489907
-0.0506424
-1.39624
1.39789
0.0508488
-0.0493671
-1.57362
1.57214
0.0458658
-0.0407877
-1.48022
1.47514
0.0351324
-0.0283934
-1.17256
1.16582
0.0222168
-0.0150443
-0.93794
0.930767
0.00865913
-0.00212007
-0.75474
0.748201
-0.00347315
0.00877222
-0.603978
0.598679
-0.0125462
0.015191
-0.461887
0.459242
-0.0157579
0.0145396
-0.312623
0.313841
-0.0121374
0.00876229
-0.172567
0.175942
-0.00571248
0.00275061
-0.0677448
0.0707066
-0.00088888
-0.00796277
0.00885165
-0.0766632
0.075156
0.00150712
-0.00492066
0.00478033
-0.419598
0.419738
-0.00323383
0.00109331
-0.579571
0.581711
0.00295761
-0.00701449
-0.703425
0.707482
0.0118751
-0.0161993
-0.821131
0.825455
0.0210531
-0.0255095
-0.947303
0.951759
0.0307573
-0.034939
-1.08611
1.09029
0.0391584
-0.0426995
-1.23722
1.24077
0.0459691
-0.0475716
-1.39959
1.40119
0.0479837
-0.0466383
-1.57031
1.56896
0.0438027
-0.0390366
-1.46996
1.46519
0.0341365
-0.0282746
-1.15908
1.15322
0.022711
-0.0166146
-0.923806
0.917709
0.0110385
-0.00522771
-0.741479
0.735668
0.000644475
0.00397065
-0.592669
0.588054
-0.0073061
0.00950864
-0.454556
0.452353
-0.0102533
0.00969889
-0.311931
0.312485
-0.00805117
0.00564879
-0.176416
0.178818
-0.00361774
0.00176602
-0.0717396
0.0735913
-0.00060028
-0.00906416
0.00966444
-0.0763617
0.0752064
0.00115533
-0.00376359
0.00367377
-0.423382
0.423471
-0.00209059
-5.58303e-05
-0.58679
0.588936
0.00383045
-0.00754136
-0.71172
0.715431
0.0118188
-0.0160821
-0.829876
0.834139
0.0206673
-0.0253438
-0.956121
0.960798
0.0299542
-0.0340216
-1.09463
1.0987
0.0384409
-0.0418265
-1.24423
1.24761
0.0447211
-0.0468231
-1.40274
1.40484
0.0475504
-0.0466544
-1.56772
1.56683
0.0441727
-0.0402007
-1.46068
1.4567
0.03587
-0.0306357
-1.14717
1.14193
0.0257401
-0.0202895
-0.911593
0.906143
0.0153507
-0.0103562
-0.729919
0.724925
0.00601627
-0.00195378
-0.582807
0.578745
-0.000984478
0.00326217
-0.448282
0.446004
-0.00425322
0.00414698
-0.310279
0.310385
-0.00353814
0.0024766
-0.178214
0.179275
-0.00160136
0.000803341
-0.0736558
0.0744538
-0.000311554
-0.00962873
0.00994028
-0.0766076
0.0756444
0.000963232
-0.00246058
0.00211853
-0.426925
0.427267
-0.000717218
-0.00156208
-0.593503
0.595783
0.00507074
-0.00871753
-0.719589
0.723236
0.0128989
-0.0168456
-0.838326
0.842273
0.0216284
-0.0255966
-0.964991
0.968959
0.0302478
-0.0342097
-1.10297
1.10694
0.038586
-0.0422264
-1.25102
1.25466
0.045493
-0.047475
-1.40675
1.40873
0.0486535
-0.0482631
-1.56589
1.5655
0.0465268
-0.0429842
-1.45265
1.4491
0.0391804
-0.0344444
-1.13681
1.13207
0.0300344
-0.025013
-0.900514
0.895493
0.0206005
-0.0159141
-0.719682
0.714996
0.0119177
-0.00804127
-0.574074
0.570197
0.00505497
-0.00281433
-0.442095
0.439854
0.00137476
-0.000752769
-0.30757
0.306948
0.000280134
-6.47593e-05
-0.177741
0.177525
-9.87863e-05
0.000225255
-0.0736051
0.0734786
-0.000173814
-0.00964322
0.00981703
-0.0771427
0.0764771
0.000665605
-0.00132791
0.000548397
-0.430649
0.431429
0.00072819
-0.00314136
-0.599558
0.601972
0.00637793
-0.00994902
-0.727045
0.730616
0.0140166
-0.0181447
-0.846195
0.850323
0.0223904
-0.0265756
-0.973208
0.977393
0.0312502
-0.0350614
-1.11136
1.11517
0.0395955
-0.0432597
-1.25815
1.26181
0.0466547
-0.0492388
-1.41115
1.41374
0.050985
-0.0509629
-1.56517
1.56515
0.0495389
-0.0467498
-1.44573
1.44294
0.0434967
-0.0391308
-1.12719
1.12283
0.0349646
-0.0304524
-0.890366
0.885854
0.0259647
-0.0216642
-0.710012
0.705711
0.0178441
-0.0139773
-0.565963
0.562096
0.0110597
-0.00840906
-0.435807
0.433156
0.00655434
-0.00498586
-0.30375
0.302181
0.00369021
-0.00232367
-0.175207
0.173841
0.00114972
-0.000264794
-0.0718496
0.0709647
-7.43963e-05
-0.00920752
0.00928191
-0.0780591
0.0775474
0.00051169
-0.000383686
-0.000354195
-0.434605
0.435343
0.00220414
-0.00445569
-0.605743
0.607995
0.00788459
-0.0113625
-0.73409
0.737568
0.0153186
-0.0190987
-0.854221
0.858001
0.0235174
-0.0274422
-0.981644
0.985569
0.0321157
-0.0364056
-1.11947
1.12376
0.0406418
-0.0446824
-1.26556
1.2696
0.0485596
-0.051302
-1.41625
1.419
0.0534897
-0.0542967
-1.56536
1.56617
0.0533633
-0.0512024
-1.44001
1.43785
0.0481485
-0.0441902
-1.11845
1.11449
0.0403612
-0.0359387
-0.880884
0.876461
0.031748
-0.0274817
-0.70086
0.696594
0.0237055
-0.0197227
-0.557757
0.553774
0.0165173
-0.0135431
-0.429124
0.42615
0.0109832
-0.00861015
-0.29838
0.296007
0.00644203
-0.0041592
-0.170668
0.168385
0.00230537
-0.000825184
-0.0687802
0.0673
0.000110107
-0.00854174
0.00843163
-0.0792324
0.0788905
0.00034184
0.000641605
-0.00157857
-0.438717
0.439654
0.00330488
-0.00583155
-0.61156
0.614087
0.00920726
-0.0125528
-0.740952
0.744298
0.0166157
-0.0202838
-0.861836
0.865504
0.024589
-0.0286688
-0.990016
0.994096
0.0332922
-0.0375844
-1.12795
1.13224
0.0420818
-0.0461946
-1.2736
1.27771
0.0503078
-0.0538387
-1.42205
1.42558
0.0565259
-0.057679
-1.56694
1.56809
0.0574569
-0.0556234
-1.43556
1.43373
0.0530927
-0.0495991
-1.11041
1.10691
0.0457697
-0.0414791
-0.871698
0.867407
0.0373749
-0.0329828
-0.691892
0.6875
0.0292405
-0.0250817
-0.549593
0.545434
0.0216715
-0.0181108
-0.421845
0.418284
0.015061
-0.0118851
-0.291559
0.288383
0.00882182
-0.00572519
-0.164405
0.161308
0.00325849
-0.00125902
-0.0646167
0.0626173
0.000243796