/*--------------------------------*- C++ -*----------------------------------*\
  =========                 |
  \\      /  F ield         | OpenFOAM: The Open Source CFD Toolbox
   \\    /   O peration     | Website:  https://openfoam.org
    \\  /    A nd           | Version:  6
     \\/     M anipulation  |
\*---------------------------------------------------------------------------*/
FoamFile
{
    version     2.0;
    format      ascii;
    class       volScalarField;
    location    "64.2";
    object      p;
}
// * * * * * * * * * * * * * * * * * * * * * * * * * * * * * * * * * * * * * //

dimensions      [0 2 -2 0 0 0 0];

internalField   nonuniform List<scalar> 
8800
(
0.916747
0.867431
0.829463
0.801389
0.781222
0.766626
0.756015
0.748456
0.743546
0.741443
0.742778
0.747091
0.753863
0.76327
0.775995
0.793309
0.817182
0.850277
0.893212
0.945725
0.751246
0.75759
0.766737
0.770282
0.767668
0.761572
0.754619
0.748361
0.743536
0.740636
0.740368
0.742963
0.747579
0.753689
0.760776
0.767802
0.772674
0.772546
0.765869
0.756968
0.724772
0.731006
0.735502
0.739368
0.742308
0.743247
0.742143
0.740001
0.737992
0.737117
0.73811
0.740532
0.743395
0.745649
0.746158
0.744362
0.740991
0.736974
0.732191
0.728475
0.720487
0.723251
0.725853
0.728004
0.729733
0.731289
0.732375
0.732705
0.73256
0.73262
0.733382
0.734491
0.735207
0.735038
0.73405
0.732687
0.731011
0.728705
0.726292
0.724725
0.715452
0.716876
0.71871
0.720783
0.722486
0.723765
0.724844
0.725798
0.726572
0.727265
0.727929
0.728351
0.728346
0.727962
0.72728
0.726154
0.72449
0.722591
0.721236
0.720433
0.710489
0.711391
0.712632
0.714249
0.715931
0.717447
0.718709
0.719802
0.720827
0.721794
0.722527
0.722873
0.722851
0.722459
0.72164
0.720439
0.719069
0.717798
0.716974
0.71645
0.705614
0.706269
0.707224
0.708532
0.709965
0.711463
0.712923
0.714254
0.715471
0.716617
0.717507
0.717952
0.717933
0.717468
0.716668
0.715712
0.714709
0.713798
0.713216
0.712832
0.700827
0.701331
0.70211
0.703239
0.704523
0.705919
0.707399
0.708902
0.710362
0.711751
0.712835
0.713386
0.713421
0.713066
0.71248
0.711775
0.711025
0.710354
0.709925
0.709626
0.696072
0.696473
0.697126
0.698134
0.699346
0.700687
0.702159
0.703756
0.705427
0.707095
0.708427
0.709165
0.709389
0.709261
0.708913
0.708426
0.70788
0.707403
0.707085
0.706842
0.691271
0.691599
0.692164
0.693093
0.694258
0.695586
0.697093
0.698789
0.700655
0.702618
0.704276
0.705315
0.705821
0.705955
0.705843
0.705583
0.705232
0.704916
0.704683
0.70448
0.686336
0.686608
0.687114
0.687996
0.689145
0.690501
0.692084
0.693922
0.696019
0.698325
0.700394
0.701822
0.70267
0.703101
0.703246
0.703212
0.703058
0.702885
0.702719
0.702544
0.681179
0.681408
0.681876
0.682742
0.683915
0.68534
0.687043
0.689078
0.691475
0.694208
0.696779
0.698673
0.699919
0.700691
0.701123
0.701328
0.701372
0.701328
0.701218
0.701062
0.675708
0.675903
0.676352
0.677232
0.678469
0.680008
0.681885
0.684186
0.686968
0.690235
0.693413
0.695861
0.697573
0.698733
0.699488
0.699947
0.700205
0.700285
0.700222
0.700079
0.66982
0.669989
0.670436
0.671359
0.6727
0.674405
0.676524
0.679172
0.68244
0.686364
0.69028
0.693391
0.695653
0.69726
0.698385
0.699149
0.699619
0.699818
0.699794
0.69966
0.663396
0.663543
0.664003
0.664998
0.666488
0.668419
0.670859
0.673953
0.677831
0.682564
0.687372
0.691275
0.694187
0.696321
0.697866
0.698965
0.699675
0.699998
0.700012
0.699881
0.656296
0.656419
0.656909
0.658005
0.659697
0.661926
0.664777
0.668432
0.673066
0.678786
0.684674
0.689523
0.693205
0.695959
0.698001
0.699483
0.700466
0.700917
0.700964
0.700834
0.64833
0.648436
0.648971
0.650204
0.652158
0.654768
0.65814
0.6625
0.668068
0.674994
0.682182
0.688161
0.692752
0.696236
0.698871
0.700804
0.702088
0.702674
0.702753
0.702619
0.639274
0.639379
0.639964
0.64137
0.643663
0.646756
0.650785
0.656025
0.662749
0.671144
0.679893
0.687216
0.692882
0.697224
0.700562
0.703018
0.704644
0.705374
0.705482
0.705341
0.628809
0.628899
0.629575
0.631217
0.633945
0.637656
0.642519
0.648867
0.657028
0.667216
0.677833
0.686735
0.693662
0.699014
0.703154
0.706233
0.708243
0.709122
0.709254
0.709103
0.616563
0.616639
0.617417
0.619372
0.622662
0.62717
0.6331
0.640853
0.650804
0.663182
0.676022
0.686767
0.695154
0.701682
0.706758
0.710548
0.712977
0.714005
0.714156
0.713991
0.601975
0.602044
0.602969
0.605337
0.609363
0.61492
0.622242
0.631794
0.643985
0.659025
0.674494
0.687375
0.69743
0.7053
0.711456
0.716041
0.718917
0.720084
0.720244
0.720061
0.584272
0.584333
0.585472
0.588426
0.59346
0.600432
0.609603
0.621493
0.636502
0.65477
0.673311
0.688624
0.70056
0.709942
0.717288
0.72276
0.726084
0.727366
0.72752
0.727318
0.562292
0.562358
0.56384
0.567669
0.574154
0.583116
0.594823
0.609806
0.628375
0.650516
0.672584
0.690607
0.704611
0.715656
0.7243
0.730694
0.734431
0.735782
0.735912
0.735689
0.534253
0.534349
0.536428
0.541672
0.550399
0.562292
0.577581
0.59669
0.619726
0.646446
0.672465
0.69342
0.709635
0.722442
0.732465
0.739759
0.743812
0.745159
0.745242
0.745
0.497098
0.497318
0.500613
0.508467
0.520974
0.53738
0.55779
0.582324
0.610816
0.642792
0.673129
0.697178
0.715685
0.73029
0.741701
0.749767
0.753963
0.75521
0.755224
0.754967
0.444986
0.446075
0.452619
0.465862
0.484971
0.508352
0.535837
0.567216
0.602108
0.639908
0.674803
0.702007
0.72279
0.739116
0.751805
0.760417
0.7645
0.765541
0.765475
0.76521
0.36946
0.376868
0.391874
0.415002
0.44397
0.47669
0.512785
0.552002
0.593975
0.638096
0.677886
0.708453
0.731696
0.749882
0.763713
0.772598
0.776414
0.777232
0.777112
0.776878
0.289151
0.305331
0.329699
0.363471
0.402811
0.445034
0.489797
0.537026
0.586458
0.637546
0.68308
0.717783
0.743995
0.764344
0.779358
0.788149
0.7914
0.791953
0.79186
0.791714
0.220352
0.240123
0.272312
0.315264
0.363852
0.415021
0.468221
0.523321
0.580043
0.637855
0.688814
0.727343
0.756266
0.778425
0.794142
0.802559
0.8053
0.80575
0.805716
0.805622
0.164053
0.186046
0.223618
0.27315
0.328983
0.387664
0.44834
0.510708
0.574323
0.638532
0.694619
0.73672
0.768107
0.791843
0.80823
0.816659
0.819249
0.819662
0.81966
0.819595
0.117407
0.140721
0.182195
0.236873
0.298511
0.363399
0.430477
0.499283
0.569177
0.63937
0.700383
0.745929
0.779694
0.805058
0.822271
0.8309
0.833563
0.833967
0.833984
0.83394
0.0777884
0.101896
0.146252
0.205121
0.271654
0.341838
0.414453
0.48897
0.564619
0.640436
0.706142
0.755045
0.791138
0.818099
0.836264
0.845373
0.848181
0.848601
0.848631
0.848607
0.0431622
0.0678029
0.114417
0.176759
0.247479
0.32229
0.39985
0.479562
0.56053
0.641608
0.711793
0.763931
0.802338
0.830879
0.85005
0.859692
0.862729
0.863188
0.863222
0.863211
0.0120325
0.037113
0.0855919
0.150897
0.225255
0.304148
0.386161
0.470621
0.556533
0.642649
0.717138
0.772408
0.813023
0.84312
0.863229
0.873399
0.876709
0.877245
0.877285
0.877278
-0.016614
0.00887352
0.0589482
0.126836
0.204391
0.2869
0.372931
0.46178
0.552382
0.643334
0.722017
0.780304
0.823034
0.854572
0.875578
0.886258
0.889813
0.890445
0.890465
0.890455
-0.04358
-0.0176506
0.0338574
0.104064
0.184443
0.270185
0.359873
0.452794
0.547822
0.643426
0.726247
0.787503
0.832272
0.865168
0.886958
0.898041
0.901791
0.902474
0.902474
0.902451
-0.0692576
-0.0428991
0.00993345
0.0822026
0.165103
0.253754
0.346766
0.44344
0.542646
0.642802
0.729734
0.793974
0.840721
0.874869
0.897304
0.908643
0.912518
0.913222
0.913195
0.913151
-0.0940788
-0.0672087
-0.013151
0.0609854
0.146147
0.237409
0.333446
0.433592
0.536755
0.641344
0.732416
0.799695
0.848427
0.88372
0.906651
0.91814
0.922011
0.922704
0.922643
0.92258
-0.11818
-0.0907912
-0.0355744
0.0402471
0.127429
0.221045
0.319834
0.423182
0.530063
0.638963
0.734243
0.804688
0.855471
0.891854
0.915124
0.926576
0.930392
0.93105
0.930967
0.930884
-0.141688
-0.113751
-0.0574543
0.0198995
0.108891
0.204616
0.305892
0.412164
0.522518
0.635596
0.735155
0.808975
0.861958
0.899416
0.922883
0.934154
0.93781
0.938392
0.938285
0.938185
-0.164699
-0.136198
-0.078838
-9.30013e-05
0.0905003
0.188112
0.291618
0.400546
0.514114
0.631197
0.735091
0.812555
0.868004
0.906604
0.930127
0.941012
0.944383
0.944851
0.944706
0.944592
-0.18727
-0.158127
-0.0997386
-0.0197333
0.0722814
0.171553
0.277049
0.388361
0.504865
0.625729
0.733982
0.815391
0.873697
0.913629
0.937064
0.947304
0.950201
0.950492
0.950316
0.950197
-0.209255
-0.179505
-0.120137
-0.0390077
0.054263
0.154999
0.262239
0.375672
0.494816
0.6192
0.731757
0.817401
0.879054
0.920722
0.944053
0.953295
0.955409
0.955416
0.95521
0.955098
-0.230629
-0.200297
-0.14002
-0.0578794
0.0364953
0.138506
0.247272
0.362546
0.484036
0.611619
0.728353
0.818465
0.88401
0.928046
0.951573
0.959546
0.960333
0.959736
0.959478
0.959425
-0.251446
-0.220473
-0.159362
-0.0763177
0.0190363
0.122152
0.232232
0.349082
0.472609
0.603034
0.723703
0.818449
0.888388
0.935564
0.960092
0.967026
0.965871
0.963853
0.963247
0.963465
-0.271552
-0.240007
-0.178108
-0.0942583
0.00194233
0.106021
0.217213
0.335385
0.460643
0.593533
0.717768
0.817186
0.891925
0.942936
0.969675
0.976847
0.974068
0.969511
0.966711
0.965543
-0.29104
-0.258901
-0.196266
-0.111733
-0.014821
0.090073
0.202166
0.321398
0.448068
0.583051
0.710389
0.814422
0.894372
0.949653
0.979734
0.989321
0.987115
0.980004
0.970433
0.970764
-0.309824
-0.277224
-0.213969
-0.128939
-0.0315472
0.0739784
0.186674
0.306638
0.434341
0.570964
0.700915
0.809401
0.895289
0.955118
0.988728
1.00236
1.00151
0.990435
0.971996
0.97
-0.32777
-0.294936
-0.231049
-0.145687
-0.0479725
0.0580383
0.170946
0.291424
0.419751
0.557506
0.689379
0.801432
0.893827
0.958139
0.992554
1.0066
1.00784
0.98264
0.924841
0.899838
-0.344754
-0.312901
-0.247106
-0.161528
-0.0633274
0.0427329
0.15526
0.276032
0.404578
0.542845
0.675843
0.789911
0.888917
0.957785
0.986399
0.99525
0.982114
0.930745
0.868773
0.830996
-0.38782
-0.330387
-0.261881
-0.177336
-0.07836
0.0271068
0.139757
0.260339
0.388617
0.526628
0.659902
0.774189
0.87667
0.950853
0.968043
0.955106
0.90764
0.842498
0.77355
0.735655
-0.363025
-0.344837
-0.2844
-0.199198
-0.101584
0.00363662
0.11558
0.235482
0.362812
0.499383
0.631253
0.743576
0.837745
0.919187
0.902729
0.794139
0.703454
0.640447
0.576347
0.60318
-0.394028
-0.362513
-0.301239
-0.216526
-0.119265
-0.0142132
0.0978856
0.21711
0.343391
0.478167
0.607434
0.716258
0.799886
0.845486
0.794
0.654429
0.545308
0.471746
0.389563
0.434892
-0.418121
-0.384166
-0.321129
-0.236342
-0.139144
-0.0341161
0.0778494
0.196262
0.321154
0.453509
0.578947
0.681853
0.753797
0.761606
0.655179
0.499923
0.370799
0.278293
0.182764
0.214064
-0.441603
-0.406564
-0.342123
-0.256661
-0.159383
-0.0544795
0.0569612
0.174392
0.297659
0.427172
0.547746
0.642604
0.69751
0.672647
0.514581
0.337519
0.177633
0.0437766
-0.0805645
-0.0678224
-0.464831
-0.429375
-0.363998
-0.277924
-0.180499
-0.0758132
0.0349612
0.151256
0.272601
0.398839
0.513684
0.600439
0.634664
0.564655
0.376291
0.179189
-0.0078298
-0.16168
-0.367145
-0.446292
-0.488492
-0.453061
-0.387117
-0.300599
-0.203002
-0.09849
0.0116802
0.126797
0.246086
0.368756
0.477413
0.554821
0.5636
0.442015
0.250184
0.0410841
-0.150971
-0.31276
-0.436622
-0.555065
-0.513667
-0.478112
-0.411842
-0.325073
-0.227435
-0.123198
-0.0137329
0.10002
0.216894
0.335416
0.437451
0.50212
0.483569
0.325578
0.132187
-0.0708752
-0.24616
-0.343483
-0.36972
-0.383217
-0.540484
-0.504821
-0.438308
-0.351444
-0.253949
-0.150164
-0.0416567
0.0704102
0.184404
0.298022
0.392949
0.440117
0.402253
0.213757
0.0222198
-0.160599
-0.292838
-0.330748
-0.339736
-0.340077
-0.569224
-0.533315
-0.466556
-0.3797
-0.282495
-0.1794
-0.0721191
0.0379061
0.148539
0.256533
0.343293
0.374112
0.305198
0.111654
-0.0738793
-0.232833
-0.306904
-0.320917
-0.32203
-0.321921
-0.599901
-0.56363
-0.496602
-0.409841
-0.313094
-0.210899
-0.105135
0.00248389
0.109303
0.21105
0.288338
0.304808
0.197572
0.0192831
-0.156501
-0.28308
-0.311587
-0.311879
-0.312219
-0.311757
-0.632258
-0.595593
-0.528347
-0.441786
-0.345661
-0.244613
-0.140683
-0.0358385
0.0667438
0.161697
0.22932
0.226838
0.102261
-0.0656015
-0.221382
-0.294147
-0.308678
-0.306329
-0.305869
-0.305377
-0.665732
-0.62886
-0.561526
-0.475303
-0.380006
-0.280382
-0.178614
-0.0769453
0.0210764
0.108878
0.16671
0.148139
0.0143538
-0.13952
-0.262662
-0.300819
-0.300496
-0.301357
-0.301279
-0.300936
-0.699878
-0.662892
-0.595647
-0.509965
-0.415769
-0.317878
-0.218636
-0.120564
-0.027406
0.053477
0.0991228
0.0738752
-0.0658313
-0.196943
-0.284316
-0.293965
-0.296688
-0.297693
-0.297663
-0.297561
-0.733737
-0.696793
-0.629956
-0.545121
-0.452382
-0.356611
-0.26028
-0.166202
-0.0782962
-0.00370187
0.0312855
-0.0010295
-0.135454
-0.241439
-0.288498
-0.300232
-0.296338
-0.294695
-0.294165
-0.294093
-0.765394
-0.729248
-0.663404
-0.579861
-0.489048
-0.39586
-0.302868
-0.213121
-0.130826
-0.0622729
-0.0315929
-0.0795839
-0.195049
-0.283788
-0.304196
-0.302916
-0.296979
-0.291895
-0.290424
-0.290018
-0.793806
-0.758726
-0.694559
-0.612958
-0.52468
-0.434661
-0.345509
-0.260405
-0.183745
-0.121731
-0.0930733
-0.147962
-0.243602
-0.314978
-0.335728
-0.319594
-0.303664
-0.29564
-0.29295
-0.291759
-0.816193
-0.783078
-0.721626
-0.642857
-0.557933
-0.471798
-0.387092
-0.306966
-0.235848
-0.179977
-0.15451
-0.200477
-0.277404
-0.328927
-0.329761
-0.331524
-0.331323
-0.326783
-0.321937
-0.319452
-0.830408
-0.800104
-0.742478
-0.667763
-0.587247
-0.505844
-0.426291
-0.351503
-0.286137
-0.233996
-0.210756
-0.24136
-0.295001
-0.33597
-0.330503
-0.343507
-0.353337
-0.350692
-0.346515
-0.345585
-0.833704
-0.807354
-0.754947
-0.685772
-0.610947
-0.535317
-0.46161
-0.392603
-0.333156
-0.283463
-0.256099
-0.275639
-0.292431
-0.336738
-0.330961
-0.32649
-0.32579
-0.326848
-0.328275
-0.329008
-0.823778
-0.802318
-0.756873
-0.695085
-0.627481
-0.558881
-0.491587
-0.428917
-0.374669
-0.330576
-0.28494
-0.303025
-0.270598
-0.274289
-0.292195
-0.301648
-0.310745
-0.317781
-0.32099
-0.321368
-0.797901
-0.782109
-0.746244
-0.694437
-0.635771
-0.575442
-0.51539
-0.458977
-0.409616
-0.373566
-0.322484
-0.315156
-0.253532
-0.205422
-0.263468
-0.310182
-0.335449
-0.34789
-0.352553
-0.35407
-0.759531
-0.749435
-0.724088
-0.683994
-0.635827
-0.58456
-0.532668
-0.481909
-0.438528
-0.406972
-0.379445
-0.365027
-0.353164
-0.288901
-0.322191
-0.38618
-0.419083
-0.430335
-0.434909
-0.436938
-0.715828
-0.710115
-0.695445
-0.666832
-0.629609
-0.587267
-0.542866
-0.498466
-0.458577
-0.431051
-0.415628
-0.452893
-0.578533
-0.730356
-0.706095
-0.618412
-0.582845
-0.562399
-0.552284
-0.549568
-0.677101
-0.673691
-0.666777
-0.648458
-0.620117
-0.585315
-0.546983
-0.507648
-0.469551
-0.442712
-0.423417
-0.514008
-0.634381
-0.791173
-0.832104
-0.792552
-0.728322
-0.627394
-0.56469
-0.559144
-0.649531
-0.647578
-0.644068
-0.633019
-0.611237
-0.581448
-0.547213
-0.508966
-0.471829
-0.436311
-0.419167
-0.406843
-0.394913
-0.417839
-0.462155
-0.495821
-0.526004
-0.497509
-0.441424
-0.413885
-0.629127
-0.628444
-0.627277
-0.621734
-0.605417
-0.578935
-0.544966
-0.507405
-0.464218
-0.422183
-0.404887
-0.363136
-0.2522
-0.127727
-0.0300692
0.00426424
0.0387519
0.0398958
0.0540592
0.0626229
-0.617112
-0.616868
-0.616229
-0.613523
-0.602158
-0.57755
-0.542755
-0.50137
-0.452931
-0.404362
-0.354664
-0.297162
-0.0950785
0.118816
0.346218
0.495949
0.508099
0.485207
0.457112
0.444295
-0.609025
-0.608833
-0.608325
-0.607483
-0.600648
-0.578096
-0.541198
-0.493301
-0.440665
-0.370769
-0.299975
-0.20139
-0.0176784
0.202492
0.375061
0.462079
0.482978
0.506432
0.537467
0.552511
-0.604738
-0.604546
-0.604103
-0.603962
-0.600637
-0.581288
-0.540602
-0.487219
-0.42241
-0.341635
-0.252361
-0.122309
0.0825968
0.252758
0.395154
0.492767
0.561925
0.686344
0.797916
0.846241
-0.602018
-0.602643
-0.604189
-0.606009
-0.605338
-0.58652
-0.540821
-0.482524
-0.409965
-0.321705
-0.213778
-0.0966824
0.124446
0.379296
0.648205
0.891666
1.09522
1.26239
1.36164
1.3952
-0.59535
-0.597005
-0.600796
-0.606263
-0.607744
-0.585993
-0.540565
-0.485518
-0.411471
-0.307979
-0.19609
-0.0864006
0.126574
0.386669
0.725111
1.04044
1.29058
1.46144
1.53713
1.55724
-0.600449
-0.601144
-0.596919
-0.583503
-0.571431
-0.562362
-0.54248
-0.500591
-0.418863
-0.307158
-0.194182
-0.0872458
0.0678095
0.344024
0.647713
0.922839
1.13954
1.27083
1.3238
1.33629
-0.637907
-0.635626
-0.619712
-0.580396
-0.544142
-0.551986
-0.568182
-0.526087
-0.431124
-0.315378
-0.205458
-0.100616
0.0116638
0.216014
0.479642
0.698372
0.868026
0.960251
0.996321
1.00313
-0.7063
-0.704117
-0.706809
-0.707659
-0.700746
-0.690975
-0.667134
-0.571288
-0.44518
-0.329491
-0.21818
-0.127459
-0.0427658
0.107163
0.309935
0.473224
0.59622
0.65738
0.679851
0.681188
-0.836583
-0.851148
-0.894182
-0.938861
-0.946917
-0.908576
-0.804798
-0.62887
-0.466773
-0.340435
-0.233318
-0.15793
-0.0975927
0.0174813
0.15595
0.269719
0.35201
0.39287
0.407034
0.408992
-0.944523
-0.967032
-1.00996
-1.04474
-1.04996
-1.00777
-0.863823
-0.644435
-0.475251
-0.343438
-0.2414
-0.177759
-0.137977
-0.0587533
0.0382465
0.11018
0.155207
0.177591
0.185716
0.185356
-0.907242
-0.925508
-0.957999
-0.987019
-0.992894
-0.943895
-0.779073
-0.588742
-0.443513
-0.319916
-0.239106
-0.189487
-0.154901
-0.107449
-0.0567569
-0.023162
-0.00446793
0.00238206
0.00504932
0.00501597
-0.680741
-0.700802
-0.736136
-0.773443
-0.787008
-0.734483
-0.605074
-0.476589
-0.359365
-0.273202
-0.22527
-0.18192
-0.165399
-0.130631
-0.110608
-0.108103
-0.110773
-0.117128
-0.117618
-0.117178
-0.330245
-0.345281
-0.374752
-0.411221
-0.433693
-0.421608
-0.374695
-0.316394
-0.254198
-0.218866
-0.187889
-0.171331
-0.15873
-0.139569
-0.137806
-0.148554
-0.172105
-0.176605
-0.175027
-0.173249
-0.0113129
-0.0193053
-0.0385361
-0.0704613
-0.107467
-0.133894
-0.153615
-0.161613
-0.162461
-0.150647
-0.14992
-0.157024
-0.158365
-0.134902
-0.129217
-0.136495
-0.149012
-0.150544
-0.147528
-0.146578
0.17245
0.168345
0.1551
0.127336
0.0835232
0.0295436
-0.0176883
-0.0544652
-0.0772604
-0.0907876
-0.107433
-0.129725
-0.146548
-0.113584
-0.0887529
-0.0798314
-0.0723852
-0.0703643
-0.0688128
-0.0693359
0.23463
0.232152
0.222701
0.200312
0.162546
0.114149
0.062986
0.0180608
-0.0154535
-0.0367383
-0.0545801
-0.0730769
-0.0784567
-0.0536259
-0.0333763
-0.0215583
-0.0103985
-0.0037629
-0.00328499
-0.00437348
0.232929
0.231373
0.224977
0.209212
0.181477
0.144285
0.10279
0.0634364
0.0317543
0.0130216
0.00215575
0.00377945
0.0124334
0.0222669
0.0296186
0.0333069
0.0388874
0.0416526
0.0413748
0.0403147
0.20755
0.206683
0.202681
0.19246
0.173929
0.147847
0.117221
0.0875523
0.0634788
0.0514715
0.0554714
0.0745711
0.0935235
0.0860683
0.0774584
0.0722574
0.0708883
0.0705084
0.0698456
0.0689329
0.175928
0.175546
0.173252
0.167056
0.155393
0.138449
0.117764
0.0972565
0.0813087
0.0783431
0.0920535
0.120744
0.142346
0.12992
0.111408
0.0999818
0.0943042
0.0911065
0.0890955
0.0881976
0.144056
0.143955
0.1428
0.139274
0.132338
0.12193
0.109
0.0967069
0.088654
0.0924294
0.113419
0.145159
0.16355
0.149801
0.131326
0.118099
0.110021
0.1044
0.101692
0.101089
0.113793
0.113817
0.113296
0.111449
0.107573
0.101594
0.0941476
0.087488
0.0850574
0.0937105
0.118359
0.150052
0.165786
0.150051
0.133219
0.12369
0.118732
0.114866
0.1126
0.1119
0.0848103
0.0849326
0.0848058
0.0840299
0.082132
0.079035
0.0752447
0.0723652
0.0731381
0.0831892
0.106451
0.134452
0.145719
0.132344
0.121377
0.117722
0.11685
0.115093
0.113717
0.112946
0.0571686
0.0573029
0.0573518
0.0572308
0.0564924
0.0551586
0.0535117
0.052616
0.0545269
0.0630105
0.0795948
0.097254
0.104214
0.0956835
0.0913061
0.0956825
0.0989121
0.10015
0.0991081
0.0980546
0.0308238
0.0309413
0.0310589
0.0311307
0.031019
0.0306264
0.030085
0.0300186
0.0313871
0.0361311
0.0427935
0.039491
0.0328517
0.0363736
0.0446139
0.0558354
0.0635286
0.0645044
0.0633073
0.062284
0.00574114
0.00578784
0.00576047
0.00588344
0.0061849
0.00635182
0.00636818
0.00631532
0.0064964
0.00622694
0.00640408
0.00288878
-0.00336703
0.00378155
0.00876975
0.010677
0.00797703
0.00769484
0.00967371
0.0107423
0.0645172
0.253945
0.428132
0.575799
0.694494
0.788621
0.867153
0.930986
0.947335
0.943677
0.356223
0.478171
0.592535
0.691964
0.775786
0.845088
0.899729
0.936686
0.956459
0.973033
0.554302
0.635676
0.716215
0.786921
0.84723
0.89727
0.936659
0.966653
0.989203
1.00844
0.70087
0.758514
0.816667
0.868876
0.913914
0.952232
0.984378
1.01133
1.03163
1.05053
0.818235
0.861545
0.90452
0.944836
0.980871
1.01269
1.04053
1.06411
1.08206
1.1001
0.915328
0.951124
0.986424
1.0202
1.05135
1.07954
1.10441
1.12528
1.14106
1.15854
1.00381
1.03582
1.06814
1.09937
1.1284
1.15478
1.1779
1.19684
1.21076
1.22778
1.09083
1.12342
1.15586
1.18708
1.21586
1.24166
1.26379
1.28133
1.29372
1.31024
1.18526
1.22168
1.25644
1.2889
1.31808
1.34345
1.36457
1.38087
1.39249
1.40864
1.29833
1.33889
1.37593
1.4089
1.4374
1.46141
1.48104
1.49631
1.50822
1.5243
1.43969
1.48077
1.51604
1.54565
1.57086
1.59247
1.61098
1.62647
1.63959
1.65554
1.61125
1.64368
1.67055
1.69287
1.71296
1.73168
1.74942
1.76619
1.78111
1.79683
1.7976
1.81487
1.83199
1.84867
1.86477
1.8795
1.89341
1.90789
1.92313
1.94043
1.98098
1.99096
2.00416
2.01514
2.02455
2.03421
2.04482
2.055
2.06429
2.08995
2.19889
2.19319
2.18024
2.16598
2.15968
2.1654
2.18354
2.21206
2.24583
2.28215
2.5017
2.36574
2.28624
2.24373
2.2264
2.23038
2.25781
2.31568
2.42334
2.60175
0.820442
0.814139
0.806408
0.795292
0.781719
0.769068
0.758667
0.75065
0.744927
0.741591
0.741236
0.744069
0.749302
0.756661
0.766211
0.778042
0.791604
0.804534
0.813524
0.821065
0.729512
0.735432
0.743503
0.749634
0.752701
0.752186
0.749096
0.745096
0.741502
0.739213
0.739077
0.741331
0.745087
0.749535
0.753638
0.755885
0.754813
0.750177
0.743123
0.73529
0.722765
0.725137
0.728404
0.731175
0.733623
0.735809
0.736985
0.736833
0.735891
0.73508
0.735295
0.736712
0.738496
0.739728
0.739656
0.738191
0.736034
0.733674
0.730692
0.727675
0.717979
0.719068
0.720984
0.72332
0.725189
0.726585
0.727799
0.728787
0.729382
0.729757
0.730312
0.73106
0.731531
0.731417
0.730792
0.729872
0.728544
0.726576
0.724469
0.722992
0.712961
0.713594
0.714722
0.716478
0.718319
0.71991
0.721156
0.722215
0.723191
0.724087
0.724876
0.725403
0.725547
0.725346
0.724814
0.723843
0.722418
0.72081
0.719474
0.718672
0.708042
0.708481
0.709269
0.710571
0.71209
0.71365
0.715124
0.716414
0.717563
0.718647
0.719604
0.720215
0.720402
0.720174
0.719516
0.718521
0.717371
0.716229
0.715327
0.714793
0.703215
0.703542
0.704154
0.705222
0.706515
0.70791
0.709384
0.710852
0.712237
0.713535
0.714688
0.715444
0.715682
0.715446
0.714856
0.714078
0.713237
0.712385
0.711725
0.711333
0.698453
0.698708
0.699201
0.70011
0.70128
0.702584
0.704001
0.705521
0.707093
0.708651
0.710053
0.710986
0.711341
0.711254
0.71088
0.710341
0.709713
0.70909
0.70861
0.708311
0.693687
0.693889
0.694299
0.695099
0.696191
0.697448
0.69885
0.700415
0.702128
0.703934
0.705633
0.70683
0.707425
0.707585
0.707455
0.707143
0.706724
0.706293
0.705953
0.705718
0.68883
0.688993
0.689345
0.690072
0.691118
0.692357
0.69379
0.69544
0.697312
0.699377
0.701427
0.702992
0.703918
0.704374
0.704503
0.704424
0.70422
0.703964
0.70374
0.703553
0.683795
0.683927
0.684238
0.684921
0.68595
0.687216
0.688719
0.690499
0.692584
0.694969
0.697448
0.699466
0.700791
0.70159
0.702011
0.702184
0.702193
0.702107
0.701982
0.70183
0.678493
0.6786
0.678884
0.679547
0.680596
0.681931
0.683548
0.685512
0.687879
0.69067
0.693677
0.696241
0.698035
0.69923
0.699984
0.70043
0.700663
0.700749
0.70071
0.700586
0.672827
0.672913
0.67318
0.67385
0.674954
0.6764
0.678186
0.680403
0.683135
0.686436
0.690091
0.693312
0.69566
0.697313
0.698443
0.699208
0.69969
0.699938
0.699975
0.699873
0.666687
0.666753
0.667015
0.667713
0.668909
0.670514
0.672533
0.675083
0.67828
0.682215
0.686662
0.69067
0.693679
0.695871
0.697435
0.698558
0.699315
0.699738
0.699849
0.699762
0.659942
0.65999
0.660254
0.661004
0.66233
0.66415
0.666478
0.669456
0.67324
0.677957
0.683366
0.688323
0.692117
0.694945
0.697017
0.698542
0.699616
0.700228
0.700412
0.700338
0.652437
0.652466
0.652737
0.653561
0.655062
0.657162
0.659886
0.663405
0.667919
0.673599
0.680177
0.686273
0.690997
0.694576
0.69725
0.699257
0.700689
0.701505
0.701761
0.701697
0.64396
0.643977
0.644255
0.645181
0.646913
0.649372
0.652598
0.656797
0.662217
0.669078
0.67707
0.684531
0.690363
0.694824
0.69821
0.70079
0.70263
0.70367
0.703999
0.703942
0.634217
0.63421
0.634539
0.635609
0.637638
0.640554
0.644415
0.649472
0.656025
0.66434
0.674043
0.683124
0.69026
0.695762
0.699984
0.703232
0.705544
0.706832
0.707233
0.707178
0.622906
0.622877
0.623256
0.624517
0.62692
0.630425
0.635101
0.641244
0.649217
0.659324
0.671091
0.682088
0.690747
0.697466
0.702664
0.706683
0.709537
0.711087
0.711558
0.711501
0.609538
0.609487
0.609944
0.611457
0.614345
0.618619
0.62435
0.63189
0.641656
0.653977
0.668227
0.681469
0.691886
0.700001
0.70634
0.711243
0.714694
0.716517
0.717049
0.716984
0.593457
0.593383
0.593965
0.595829
0.599367
0.604664
0.611793
0.621151
0.633197
0.64825
0.665466
0.68132
0.693743
0.703444
0.71107
0.71697
0.721075
0.723164
0.72374
0.723661
0.573712
0.573621
0.574404
0.57678
0.581232
0.587951
0.596985
0.608766
0.623751
0.642177
0.662896
0.681729
0.696397
0.707864
0.716895
0.723907
0.728683
0.731005
0.7316
0.731498
0.548869
0.548777
0.549897
0.553063
0.558893
0.567689
0.579428
0.594512
0.613304
0.635867
0.660656
0.682805
0.699921
0.713299
0.723863
0.732029
0.737444
0.73993
0.740504
0.740372
0.516591
0.516546
0.518271
0.522802
0.530931
0.542967
0.558687
0.578324
0.602004
0.629538
0.658941
0.684689
0.704396
0.719776
0.731925
0.741253
0.747181
0.749712
0.750215
0.750049
0.472702
0.472858
0.475897
0.483259
0.495692
0.51305
0.534673
0.56045
0.590199
0.623508
0.657989
0.687536
0.709899
0.727293
0.741008
0.751385
0.75759
0.759989
0.760371
0.760172
0.409418
0.410745
0.418119
0.431992
0.452295
0.478108
0.508049
0.541627
0.578527
0.618253
0.658111
0.691514
0.716487
0.7358
0.750884
0.762025
0.768187
0.770229
0.770449
0.770237
0.333877
0.336486
0.350803
0.374676
0.405737
0.441586
0.480556
0.522398
0.566925
0.613704
0.659752
0.697864
0.726162
0.747916
0.764615
0.776314
0.78225
0.784038
0.784215
0.7841
0.256566
0.263487
0.284975
0.318865
0.360393
0.406039
0.454045
0.504224
0.556453
0.610349
0.662691
0.705606
0.737254
0.761446
0.77979
0.791778
0.797088
0.798391
0.798503
0.798459
0.193535
0.202314
0.228429
0.269414
0.319196
0.373167
0.429321
0.487321
0.546927
0.607681
0.666022
0.713416
0.748145
0.774452
0.793901
0.805998
0.811006
0.812206
0.812349
0.812359
0.141918
0.151412
0.181049
0.227317
0.283311
0.343953
0.406993
0.471914
0.538272
0.605429
0.66945
0.721121
0.758738
0.787057
0.807709
0.820206
0.825094
0.826253
0.826467
0.826517
0.0987239
0.108525
0.140568
0.190967
0.252063
0.318257
0.387126
0.458053
0.530447
0.60352
0.672938
0.728747
0.769185
0.799482
0.821371
0.834365
0.839441
0.840795
0.841034
0.841109
0.0614818
0.0714186
0.105266
0.158975
0.224338
0.295295
0.369246
0.445509
0.523414
0.601996
0.676503
0.736271
0.779484
0.811721
0.834932
0.848643
0.854103
0.855545
0.855784
0.855861
0.0285152
0.0385025
0.0737701
0.130222
0.199219
0.274315
0.352794
0.433899
0.516859
0.600584
0.679934
0.743528
0.789412
0.823565
0.848027
0.862536
0.868411
0.869976
0.870222
0.870283
-0.00143176
0.0085941
0.0450201
0.103835
0.175987
0.25472
0.337234
0.422739
0.510394
0.599015
0.683065
0.750337
0.798797
0.834768
0.860466
0.875671
0.881974
0.88367
0.883905
0.883947
-0.0293032
-0.0192201
0.018234
0.0791472
0.154086
0.236029
0.32216
0.411704
0.503772
0.597062
0.685661
0.756535
0.807488
0.845171
0.871982
0.887852
0.89455
0.89634
0.896553
0.896566
-0.0556598
-0.0455112
-0.00709984
0.0557002
0.1331
0.21791
0.307315
0.400562
0.496736
0.594494
0.687554
0.762038
0.815425
0.854751
0.882581
0.898933
0.905875
0.907748
0.907947
0.907928
-0.0809636
-0.0706784
-0.0313696
0.033144
0.112741
0.200122
0.292486
0.389118
0.489132
0.591183
0.688669
0.766778
0.822618
0.863503
0.8922
0.908929
0.91598
0.917863
0.918046
0.917997
-0.105504
-0.0950069
-0.0548416
0.0112475
0.0928158
0.182494
0.277536
0.377275
0.480871
0.587034
0.688912
0.770734
0.829098
0.871523
0.900959
0.917903
0.924925
0.926763
0.926922
0.926852
-0.129386
-0.11865
-0.07766
-0.0101317
0.0732066
0.164949
0.262407
0.36498
0.47189
0.581961
0.68821
0.773892
0.834928
0.87893
0.908993
0.925968
0.932871
0.934622
0.934733
0.934638
-0.152734
-0.141728
-0.0999415
-0.0310553
0.0538642
0.147446
0.247073
0.352209
0.462167
0.575935
0.6865
0.776218
0.840175
0.885872
0.916496
0.933335
0.939964
0.941558
0.941614
0.941497
-0.175543
-0.164289
-0.121703
-0.0515512
0.0347782
0.129992
0.231551
0.338988
0.45172
0.568935
0.683721
0.77766
0.844879
0.892519
0.923674
0.940151
0.946322
0.947675
0.947648
0.947509
-0.197893
-0.186321
-0.142922
-0.0716121
0.0159638
0.112615
0.215882
0.325368
0.440592
0.56097
0.679828
0.778141
0.849024
0.899016
0.930798
0.946667
0.952063
0.953022
0.952903
0.952758
-0.219575
-0.207785
-0.163588
-0.0912267
-0.00253588
0.0953818
0.200127
0.311414
0.428844
0.552085
0.674786
0.777571
0.85253
0.905447
0.938208
0.953326
0.957515
0.957763
0.957476
0.957346
-0.240741
-0.228631
-0.18367
-0.110371
-0.0206958
0.0783295
0.184377
0.297203
0.41656
0.542352
0.668582
0.775843
0.855259
0.911755
0.94619
0.960809
0.963363
0.962238
0.961475
0.961411
-0.26121
-0.248821
-0.203154
-0.128995
-0.0384376
0.061541
0.168711
0.282853
0.40384
0.53183
0.661235
0.772847
0.857024
0.917702
0.954755
0.969853
0.970994
0.967674
0.965415
0.965097
-0.281085
-0.268378
-0.221982
-0.147044
-0.0557249
0.045084
0.153217
0.268445
0.390791
0.520651
0.652799
0.76846
0.857612
0.922893
0.963396
0.980582
0.982013
0.97696
0.970932
0.962294
-0.300248
-0.287297
-0.240243
-0.164684
-0.0727803
0.0286783
0.13756
0.253575
0.37697
0.50832
0.642776
0.762127
0.856648
0.927095
0.971515
0.992385
0.996673
0.991099
0.980093
0.978833
-0.318659
-0.305654
-0.257933
-0.181857
-0.089588
0.0123601
0.12177
0.238226
0.362341
0.494711
0.630976
0.753343
0.853368
0.929517
0.977184
1.00114
1.00772
1.00468
0.970676
0.932157
-0.336087
-0.32331
-0.274982
-0.198445
-0.106139
-0.00387674
0.105849
0.22253
0.346971
0.479855
0.617319
0.74174
0.846608
0.929268
0.978442
0.998183
1.00457
0.984293
0.93192
0.877028
-0.355234
-0.339057
-0.291061
-0.213971
-0.122156
-0.0197913
0.0894469
0.20653
0.33095
0.463858
0.601733
0.727061