/*--------------------------------*- C++ -*----------------------------------*\
  =========                 |
  \\      /  F ield         | OpenFOAM: The Open Source CFD Toolbox
   \\    /   O peration     | Website:  https://openfoam.org
    \\  /    A nd           | Version:  6
     \\/     M anipulation  |
\*---------------------------------------------------------------------------*/
FoamFile
{
    version     2.0;
    format      ascii;
    class       surfaceScalarField;
    location    "105.9";
    object      phi;
}
// * * * * * * * * * * * * * * * * * * * * * * * * * * * * * * * * * * * * * //

dimensions      [0 3 -1 0 0 0 0];

internalField   nonuniform List<scalar> 
17370
(
-0.0899999
0.0898488
0.289162
-0.0714621
0.0537521
0.364485
-0.0381189
0.0276898
0.426597
-0.0196381
0.0146054
0.504284
-0.0107639
0.00827407
0.601892
-0.00627491
0.00489863
0.720434
-0.00373456
0.00289357
0.863747
-0.00215146
0.00159178
1.03601
-0.00107465
0.000661725
1.24292
-0.000253842
-0.000145191
1.49159
0.000525523
-0.000935703
1.4916
0.00133164
-0.00181423
1.24317
0.00233545
-0.00303876
1.03634
0.00385369
-0.00499969
0.864053
0.00636681
-0.00836042
0.721051
0.0108461
-0.0146825
0.603051
0.0197096
-0.0277539
0.507484
0.0381753
-0.0537997
0.431793
0.0715014
-0.0898754
0.36515
0.0900164
0.198994
-0.128139
0.0882308
0.0399078
-0.364601
0.353384
-0.0746672
0.0858849
-0.446478
0.454323
-0.0843799
0.0765341
-0.521192
0.529905
-0.0684358
0.0597231
-0.612791
0.621572
-0.0515332
0.0427526
-0.726897
0.734168
-0.0352907
0.0280196
-0.867477
0.872596
-0.0224166
0.0172978
-1.03848
1.04193
-0.0134846
0.0100311
-1.2446
1.24704
-0.00741713
0.00498091
-1.49262
1.49461
-0.00302884
0.00104241
-1.49251
1.49423
0.000629129
-0.00235245
-1.24397
1.24586
0.00426255
-0.00614662
-1.03751
1.04003
0.00849175
-0.0110068
-0.866097
0.869825
0.0143529
-0.0180814
-0.724388
0.729931
0.0231223
-0.0286649
-0.608696
0.616108
0.0358777
-0.0432899
-0.514895
0.523037
0.0520185
-0.0601613
-0.439854
0.447912
0.0688224
-0.0768795
-0.375293
0.376736
0.0846731
-0.0861159
-0.257328
0.222472
0.0748236
-0.0399677
-0.0685268
0.0587037
0.0098231
-0.0517938
0.0583712
-0.374135
0.367558
-0.0574507
0.0536949
-0.453601
0.457356
-0.0486019
0.0446465
-0.527955
0.53191
-0.0408033
0.037161
-0.621572
0.625215
-0.0330549
0.0289742
-0.735358
0.739439
-0.0243972
0.0202311
-0.87435
0.878516
-0.0158776
0.012177
-1.0435
1.0472
-0.00843245
0.00525407
-1.24857
1.25175
-0.00192103
-0.00115687
-1.49666
1.49974
0.00420823
-0.0074767
-1.4972
1.50047
0.0105534
-0.0141441
-1.25006
1.25365
0.0176841
-0.0218629
-1.04591
1.05009
0.0258851
-0.0303221
-0.877749
0.882186
0.0342891
-0.0382821
-0.73989
0.743883
0.0418281
-0.0455722
-0.626764
0.630508
0.0494425
-0.0544543
-0.534802
0.539814
0.058119
-0.0589257
-0.457466
0.458273
0.0522125
-0.0320003
-0.335737
0.315525
0.00989103
-0.068335
0.0584439
-0.0529568
0.0489655
0.00399131
-0.0331329
0.0436652
-0.358135
0.347603
-0.0473532
0.0467187
-0.459302
0.459936
-0.0436565
0.0402984
-0.535819
0.539177
-0.0365198
0.03321
-0.628548
0.631858
-0.0297648
0.026725
-0.74267
0.74571
-0.0234561
0.0203395
-0.882041
0.885158
-0.016798
0.0134089
-1.0508
1.05418
-0.00960578
0.00605927
-1.25519
1.25873
-0.00208246
-0.00172098
-1.50325
1.50705
0.00549174
-0.00936792
-1.50413
1.508
0.0127701
-0.0163617
-1.2574
1.26099
0.0195296
-0.0228273
-1.0539
1.05719
0.0257384
-0.0288027
-0.885663
0.888727
0.0316738
-0.0349506
-0.747133
0.75041
0.0381182
-0.0417525
-0.634284
0.637919
0.0449874
-0.0479082
-0.544116
0.547036
0.0483924
-0.0444924
-0.456548
0.452648
0.0337056
-0.0162373
-0.296143
0.278675
0.00407634
-0.0526195
0.0485432
-0.0458931
0.0434032
0.0024899
-0.0227667
0.033125
-0.336931
0.326572
-0.0389286
0.0399337
-0.459632
0.458626
-0.0387331
0.0364389
-0.541906
0.5442
-0.0337633
0.031159
-0.63492
0.637525
-0.0280853
0.0251748
-0.748766
0.751676
-0.0218961
0.0188887
-0.888121
0.891129
-0.0155685
0.0124559
-1.05733
1.06044
-0.00891649
0.00549698
-1.2622
1.26562
-0.00152416
-0.00236741
-1.51094
1.51483
0.00621487
-0.0100529
-1.51188
1.51572
0.0132812
-0.0165436
-1.26443
1.2677
0.0193673
-0.0223679
-1.06029
1.06329
0.0251019
-0.0281049
-0.891762
0.894765
0.0307851
-0.0336272
-0.753604
0.756446
0.0360358
-0.0385161
-0.640973
0.643453
0.0406436
-0.0416229
-0.548827
0.549806
0.0403847
-0.0342389
-0.447348
0.441202
0.0235045
-0.010259
-0.263431
0.250186
0.00259525
-0.0453734
0.0427782
-0.0413349
0.0395749
0.00176001
-0.0166945
0.0259167
-0.316745
0.307523
-0.0324945
0.0346155
-0.457044
0.454923
-0.0341795
0.0324977
-0.54619
0.547872
-0.0303059
0.0281996
-0.639844
0.64195
-0.0257542
0.0233417
-0.754335
0.756747
-0.0204644
0.0176568
-0.894037
0.896845
-0.0144002
0.011313
-1.0635
1.06658
-0.00780448
0.00446402
-1.26895
1.27229
-0.00061801
-0.00312498
-1.51862
1.52236
0.00681132
-0.0104846
-1.51944
1.52312
0.0135807
-0.0167368
-1.27095
1.2741
0.0194567
-0.0223054
-1.0663
1.06915
0.0247609
-0.0272807
-0.897554
0.900074
0.0293943
-0.0315399
-0.758878
0.761024
0.033395
-0.0353345
-0.645591
0.647531
0.0367733
-0.0369084
-0.550304
0.550439
0.0344287
-0.0273479
-0.434504
0.427423
0.0176175
-0.00743676
-0.23862
0.228439
0.00188889
-0.0405906
0.0387018
-0.0380613
0.0367409
0.00132037
-0.0127194
0.0206256
-0.298966
0.29106
-0.0273352
0.0302286
-0.45239
0.449497
-0.0304104
0.0292726
-0.549321
0.550459
-0.0272649
0.025333
-0.644004
0.645936
-0.0231136
0.0209556
-0.759004
0.761162
-0.0184148
0.0159063
-0.899436
0.901944
-0.0129359
0.0100313
-1.06954
1.07244
-0.00664323
0.0033807
-1.27556
1.27883
0.000385461
-0.00402783
-1.52602
1.52966
0.00759908
-0.0111477
-1.5267
1.53024
0.0141038
-0.0170514
-1.27723
1.28018
0.0194978
-0.0219589
-1.07187
1.07433
0.0240259
-0.026116
-0.902331
0.904421
0.0278956
-0.0297342
-0.762986
0.764825
0.0313483
-0.0330483
-0.649332
0.651032
0.0338313
-0.0332272
-0.550202
0.549598
0.0298189
-0.0224184
-0.420121
0.412721
0.0138575
-0.00578058
-0.219409
0.211332
0.00147732
-0.0370427
0.0355654
-0.0355905
0.0345771
0.00101335
-0.0099057
0.0165689
-0.283803
0.27714
-0.022996
0.026327
-0.446369
0.443038
-0.0270746
0.0263507
-0.55139
0.552114
-0.0245705
0.0227659
-0.647855
0.64966
-0.0206696
0.018625
-0.763258
0.765302
-0.0162187
0.0138576
-0.904305
0.906666
-0.0110811
0.00836196
-1.07518
1.0779
-0.00516879
0.0020546
-1.28198
1.28509
0.00158235
-0.00511416
-1.53322
1.53675
0.00855753
-0.0119238
-1.53367
1.53704
0.0146586
-0.0173085
-1.28304
1.28569
0.0194638
-0.0216132
-1.07669
1.07884
0.0234286
-0.0252759
-0.906361
0.908208
0.0268503
-0.0284736
-0.766545
0.768169
0.0298836
-0.0312354
-0.652588
0.65394
0.0315193
-0.0301711
-0.548626
0.547278
0.0261286
-0.0187899
-0.40532
0.397981
0.0113022
-0.0046876
-0.204052
0.197438
0.00120438
-0.0342384
0.033034
-0.0336911
0.0329068
0.000784297
-0.00781242
0.0133893
-0.271052
0.265476
-0.019313
0.0228244
-0.439613
0.436102
-0.0240348
0.0235502
-0.552761
0.553245
-0.0220292
0.020328
-0.651472
0.653173
-0.0183188
0.0163517
-0.767301
0.769268
-0.0140276
0.0117453
-0.908916
0.911198
-0.00906255
0.00644547
-1.08049
1.08311
-0.00338525
0.000407449
-1.28808
1.29106
0.00306471
-0.00642771
-1.54017
1.54353
0.00968205
-0.0128221
-1.54025
1.54339
0.0153352
-0.0177321
-1.28829
1.29069
0.0196611
-0.0215774
-1.08094
1.08286
0.0231902
-0.0248263
-0.909927
0.911563
0.0262151
-0.0276418
-0.769682
0.771109
0.0288487
-0.0298091
-0.655095
0.656055
0.0297132
-0.0276827
-0.545575
0.543545
0.0232191
-0.0161236
-0.390753
0.383657
0.00952104
-0.00393687
-0.191385
0.1858
0.00101658
-0.0319334
0.0309168
-0.0322225
0.0316168
0.000605644
-0.00618916
0.0108347
-0.260396
0.255751
-0.0161481
0.0196408
-0.432607
0.429114
-0.0211573
0.0208885
-0.553671
0.55394
-0.0195895
0.0179415
-0.654907
0.656555
-0.0159792
0.014052
-0.771202
0.773129
-0.0117758
0.00954145
-0.913373
0.915607
-0.00691589
0.00435905
-1.08562
1.08817
-0.00137901
-0.00150234
-1.29393
1.29681
0.00483255
-0.00802631
-1.54676
1.54995
0.0110874
-0.0140123
-1.54636
1.54929
0.0163273
-0.018501
-1.29306
1.29524
0.0202228
-0.0219172
-1.08476
1.08645
0.0233348
-0.0247682
-0.913066
0.9145
0.0259852
-0.0272314
-0.772432
0.773678
0.0282938
-0.0288296
-0.656811
0.657346
0.0283341
-0.0257196
-0.541212
0.538598
0.0209831
-0.0141885
-0.376714
0.369919
0.00827551
-0.00341917
-0.180614
0.175758
0.000887846
-0.0299723
0.0290844
-0.0310939
0.0306341
0.000459797
-0.00487419
0.00871268
-0.25154
0.247701
-0.0133697
0.0166932
-0.425724
0.4224
-0.0183735
0.0182828
-0.554179
0.554269
-0.0171651
0.0155443
-0.658268
0.659889
-0.0135932
0.0116694
-0.775035
0.776959
-0.00939831
0.0071757
-0.917738
0.919961
-0.00457375
0.00205008
-1.09062
1.09315
0.000877791
-0.00369076
-1.2996
1.30241
0.00691413
-0.00997141
-1.55302
1.55608
0.0128674
-0.0155982
-1.55205
1.55478
0.0177239
-0.0196756
-1.2974
1.29936
0.0211895
-0.0226646
-1.08814
1.08961
0.0238963
-0.0251434
-0.915802
0.917049
0.0262062
-0.0272891
-0.774825
0.775908
0.0281384
-0.0283024
-0.657681
0.657845
0.0273754
-0.0242507
-0.535721
0.532596
0.0193297
-0.0128192
-0.363279
0.356769
0.00742
-0.00307035
-0.171183
0.166834
0.000802758
-0.028246
0.0274432
-0.0302456
0.0299103
0.000335265
-0.00376391
0.00688903
-0.244249
0.241124
-0.0108757
0.0139178
-0.419244
0.416202
-0.0156325
0.0156804
-0.554363
0.554315
-0.0146318
0.0130709
-0.661569
0.66313
-0.0111005
0.00914511
-0.778871
0.780826
-0.00683822
0.00458941
-0.922085
0.924334
-0.00197046
-0.000554677
-1.09557
1.0981
0.0034647
-0.00623888
-1.30514
1.30791
0.00938772
-0.0123378
-1.55903
1.56198
0.0150925
-0.0176445
-1.55734
1.5599
0.019587
-0.0213188
-1.30132
1.30305
0.0226274
-0.0238885
-1.0911
1.09236
0.0249402
-0.0260077
-0.918162
0.919229
0.0269241
-0.0278473
-0.776879
0.777802
0.0284334
-0.0282922
-0.657855
0.657713
0.0268806
-0.0232746
-0.529232
0.525626
0.018202
-0.011911
-0.350387
0.344096
0.00686848
-0.00285256
-0.162675
0.158659
0.000751929
-0.0266721
0.0259202
-0.0296396
0.0294166
0.000222957
-0.00278162
0.00525826
-0.238351
0.235875
-0.00857218
0.0112478
-0.413378
0.410702
-0.0128804
0.0129907
-0.554323
0.554213
-0.0119704
0.0104363
-0.664776
0.666311
-0.0084205
0.00640166
-0.782774
0.784793
-0.00402038
0.00170799
-0.926487
0.9288
0.000971035
-0.00353758
-1.10053
1.1031
0.00647257
-0.00924419
-1.31061
1.31338
0.0123533
-0.0152229
-1.56482
1.56769
0.0178566
-0.0202455
-1.56227
1.56466
0.0220145
-0.0235303
-1.30482
1.30634
0.0246326
-0.0256767
-1.09365
1.0947
0.0265426
-0.0274191
-0.920155
0.921032
0.0281734
-0.028928
-0.77855
0.779305
0.0292275
-0.0287329
-0.657441
0.656946
0.0268513
-0.0227838
-0.521811
0.517744
0.0175524
-0.0113877
-0.337892
0.331728
0.00656112
-0.00273873
-0.154762
0.15094
0.000728179
-0.0251859
0.0244577
-0.0292553
0.0291401
0.000115137
-0.0018628
0.00372628
-0.233732
0.231869
-0.00635973
0.00859633
-0.408288
0.406052
-0.010037
0.010129
-0.554219
0.554127
-0.00910011
0.00755078
-0.667968
0.669518
-0.00545768
0.00334178
-0.786805
0.788921
-0.000846152
-0.00156788
-0.931017
0.933431
0.00435022
-0.00699838
-1.10558
1.10823
0.010002
-0.0128086
-1.31608
1.31889
0.0159139
-0.0187297
-1.57046
1.57327
0.0212613
-0.0234996
-1.56687
1.56911
0.0251002
-0.026401
-1.30791
1.30922
0.0272975
-0.0281211
-1.09578
1.09661
0.0287928
-0.0294703
-0.921761
0.922439
0.0300674
-0.0306709
-0.779876
0.780479
0.0306008
-0.0296865
-0.656278
0.655364
0.0273073
-0.0227662
-0.513474
0.508933
0.0173369
-0.0111913
-0.325602
0.319456
0.00645488
-0.00270969
-0.147177
0.143431
0.000726515
-0.023736
0.0230095
-0.0290872
0.0290803
6.95092e-06
-0.000958583
0.00221973
-0.230332
0.22907
-0.00415516
0.00588658
-0.404116
0.402385
-0.00703065
0.00702102
-0.554221
0.554231
-0.00593363
0.00432634
-0.671231
0.672839
-0.00211269
-0.000137681
-0.79103
0.793281
0.00279195
-0.00534985
-0.935752
0.93831
0.00828294
-0.0110563
-1.1108
1.11358
0.0141752
-0.017057
-1.32163
1.32452
0.0201981
-0.02299
-1.57599
1.57878
0.02544
-0.0275392
-1.57115
1.57325
0.0289749
-0.0300656
-1.3106
1.31169
0.0307567
-0.0313568
-1.09749
1.09809
0.0318275
-0.0322913
-0.922962
0.923426
0.032699
-0.0330248
-0.780808
0.781134
0.0326488
-0.0312308
-0.654268
0.65285
0.0283113
-0.0232488
-0.504178
0.499116
0.017548
-0.0112969
-0.313291
0.30704
0.00652912
-0.00275594
-0.139693
0.13592
0.00074441
-0.0222798
0.0215353
-0.0291389
0.0292465
-0.00010762
-1.91423e-05
0.000668779
-0.228136
0.227486
-0.00187366
0.00303241
-0.400993
0.399834
-0.003778
0.00358129
-0.554507
0.554704
-0.00237516
0.000649724
-0.67466
0.676386
0.00172587
-0.00415601
-0.795523
0.797953
0.0070204
-0.00977024
-0.940775
0.943525
0.0129075
-0.0158544
-1.11629
1.11923
0.0191395
-0.0221393
-1.32735
1.33035
0.0253572
-0.0281557
-1.58148
1.58428
0.0305454
-0.0325164
-1.57513
1.5771
0.0337931
-0.0346726
-1.31286
1.31374
0.0351518
-0.0355162
-1.09874
1.0991
0.0357767
-0.036019
-0.923728
0.92397
0.0362161
-0.0361941
-0.78116
0.781138
0.0354619
-0.0334547
-0.65123
0.649223
0.0299224
-0.0242555
-0.493812
0.488145
0.0181812
-0.0116863
-0.300705
0.29421
0.00676794
-0.00286933
-0.132105
0.128207
0.000779353
-0.0207792
0.0199999
-0.0294258
0.0296715
-0.000245745
0.000958943
-0.000985735
-0.22718
0.227207
0.000571289
-5.97743e-05
-0.399055
0.398544
-0.000184705
-0.00029341
-0.555267
0.555746
0.00168881
-0.00359479
-0.678378
0.680284
0.00619433
-0.00885756
-0.800373
0.803036
0.0119916
-0.014989
-0.946187
0.949184
0.0183921
-0.021568
-1.12213
1.1253
0.0250768
-0.0282415
-1.33331
1.33648
0.031578
-0.0344092
-1.58699
1.58982
0.0367503
-0.0386022
-1.57884
1.58069
0.0397287
-0.0403948
-1.31468
1.31534
0.0406476
-0.0407566
-1.0995
1.09961
0.0407874
-0.0407918
-0.924028
0.924033
0.0407981
-0.0403178
-0.78081
0.78033
0.0391455
-0.0364467
-0.647003
0.644304
0.0322011
-0.0258106
-0.482191
0.4758
0.0192339
-0.0123442
-0.287559
0.280669
0.00715673
-0.00304169
-0.124221
0.120106
0.000828626
-0.0192013
0.0183727
-0.029987
0.0303793
-0.000392328
0.00207533
-0.00273804
-0.227548
0.228211
0.00320221
-0.00346229
-0.398449
0.398709
0.00387429
-0.0047384
-0.556732
0.557596
0.00639186
-0.00855087
-0.682515
0.684674
0.0114504
-0.0144145
-0.805684
0.808648
0.0178901
-0.0212003
-0.9521
0.95541
0.0249396
-0.0284059
-1.12844
1.1319
0.0322006
-0.0355798
-1.33961
1.34299
0.0390783
-0.0419673
-1.59256
1.59545
0.0442667
-0.045991
-1.58226
1.58398
0.0469557
-0.0474136
-1.31604
1.3165
0.0474312
-0.0472665
-1.09974
1.09958
0.0470525
-0.046806
-0.923812
0.923566
0.0465668
-0.045573
-0.779576
0.778582
0.0438535
-0.0403211
-0.641384
0.637852
0.0352189
-0.0279408
-0.469058
0.46178
0.0207038
-0.0132546
-0.273545
0.266096
0.00767983
-0.00326386
-0.115861
0.111445
0.00088909
-0.0175191
0.01663
-0.0308561
0.0314261
-0.000569984
0.00335067
-0.00482645
-0.229308
0.230784
0.00621526
-0.00730282
-0.399383
0.400471
0.00847916
-0.00986204
-0.559126
0.560508
0.011915
-0.0144122
-0.687213
0.68971
0.0177022
-0.021046
-0.811592
0.814935
0.0249477
-0.0286473
-0.958649
0.962349
0.0328044
-0.0366302
-1.13534
1.13917
0.040777
-0.0444196
-1.34636
1.35
0.0481188
-0.0510849
-1.59825
1.60121
0.053345
-0.0549313
-1.58538
1.58696
0.0557297
-0.055959
-1.31693
1.31715
0.0557188
-0.0552629
-1.09941
1.09896
0.0547942
-0.0542669
-0.923052
0.922525
0.0536303
-0.0521459
-0.777404
0.77592
0.0497141
-0.0451735
-0.634075
0.629535
0.0390304
-0.0306557
-0.454064
0.44569
0.0225728
-0.0143889
-0.258329
0.250145
0.00831245
-0.00352192
-0.106861
0.10207
0.000956034
-0.015712
0.014756
-0.0320942
0.0328986
-0.000804473
0.00492941
-0.00731836
-0.232718
0.235107
0.00978645
-0.011807
-0.402057
0.404078
0.0138804
-0.0159101
-0.562696
0.564725
0.0184987
-0.0214327
-0.69265
0.695584
0.0252285
-0.0290429
-0.81826
0.822074
0.0334712
-0.0376496
-0.965994
0.970173
0.0423155
-0.0465742
-1.14298
1.14724
0.051139
-0.0550876
-1.35363
1.35758
0.0590115
-0.0620558
-1.60408
1.60712
0.0642611
-0.065683
-1.58817
1.58959
0.0662813
-0.0662449
-1.31724
1.31721
0.0657415
-0.06497
-1.09849
1.09772
0.0642323
-0.0634399
-0.92169
0.920898
0.0622894
-0.0602033
-0.774303
0.772217
0.0568956
-0.0510987
-0.624691
0.618894
0.0436665
-0.0339309
-0.436768
0.427032
0.0247901
-0.0156927
-0.241556
0.232459
0.00901257
-0.0037939
-0.0970826
0.0918639
0.00102241
-0.0137704
0.012748
-0.033802
0.034912
-0.00110996
0.00690825
-0.0104018
-0.237987
0.241481
0.0141473
-0.0172585
-0.406778
0.409889
0.0203553
-0.0231562
-0.567738
0.570539
0.0264378
-0.029938
-0.699052
0.702552
0.0343876
-0.0387943
-0.82588
0.830286
0.0438709
-0.0486285
-0.974316
0.979073
0.0538997
-0.0586616
-1.1515
1.15627
0.0636968
-0.0679738
-1.36151
1.36579
0.0721171
-0.0752092
-1.61004
1.61313
0.0773171
-0.0785313
-1.59058
1.59179
0.0788943
-0.0785553
-1.31689
1.31655
0.077763
-0.0766415
-1.09689
1.09577
0.0756286
-0.0745367
-0.919754
0.918662
0.0728191
-0.0699568
-0.770052
0.76719
0.0655229
-0.0581246
-0.612719
0.60532
0.0490807
-0.0376677
-0.416621
0.405208
0.0272419
-0.017067
-0.222876
0.212701
0.00971123
-0.00404634
-0.0864342
0.0807693
0.00107812
-0.0116997
0.0106216
-0.036112
0.037642
-0.00152994
0.00950959
-0.0143776
-0.245475
0.250343
0.0196406
-0.0240084
-0.413904
0.418272
0.0282852
-0.0320117
-0.574582
0.578309
0.0361663
-0.0404265
-0.70669
0.71095
0.0456981
-0.0508447
-0.834693
0.83984
0.0567124
-0.0621583
-0.98382
0.989266
0.0681256
-0.0734414
-1.16103
1.16635
0.0789638
-0.0835479
-1.37002
1.3746
0.0878499
-0.0909049
-1.61605
1.6191
0.0928237
-0.0937391
-1.59248
1.5934
0.0938061
-0.093166
-1.31581
1.31517
0.0919977
-0.0905193
-1.09459
1.09311
0.0892314
-0.087651
-0.917082
0.915501
0.0854153
-0.0814896
-0.764236
0.76031
0.075606
-0.066164
-0.59744
0.587998
0.0551059
-0.0416537
-0.392975
0.379523
0.0297226
-0.0183526
-0.20198
0.19061
0.010306
-0.00423312
-0.0749049
0.0688321
0.0011102
-0.00952738
0.00841719
-0.0392338
0.0413717
-0.0021379
0.0130948
-0.0197211
-0.255687
0.262313
0.0268103
-0.0326436
-0.423922
0.429755
0.0382903
-0.0431451
-0.583614
0.588469
0.0483874
-0.0536129
-0.715966
0.721191
0.0599594
-0.0660235
-0.844992
0.851056
0.0728234
-0.0790413
-0.994719
1.00094
0.0857475
-0.0916082
-1.17165
1.17751
0.0975557
-0.102348
-1.37908
1.38388
0.106664
-0.109527
-1.62189
1.62476
0.111103
-0.11158
-1.59367
1.59415
0.111266
-0.110247
-1.31393
1.31292
0.108691
-0.106823
-1.09157
1.0897
0.105241
-0.103112
-0.913297
0.911169
0.100225
-0.094858
-0.756253
0.750886
0.0870327
-0.0749461
-0.577925
0.565839
0.061382
-0.045511
-0.365113
0.349242
0.0319057
-0.0193219
-0.178678
0.166095
0.0106616
-0.00429815
-0.0626084
0.0562449
0.00110408
-0.00730719
0.00620311
-0.0435076
0.0465832
-0.00307558
0.0183026
-0.0272309
-0.269374
0.278302
0.0365511
-0.0441554
-0.437511
0.445116
0.0514521
-0.0576594
-0.595342
0.60155
0.0643282
-0.0708947
-0.727298
0.733865
0.0785038
-0.0855896
-0.8571
0.864186
0.0933829
-0.100368
-1.00715
1.01414
0.107735
-0.114005
-1.18328
1.18955
0.120173
-0.124952
-1.38844
1.39322
0.129016
-0.131441
-1.62722
1.62965
0.132455
-0.1323
-1.59386
1.59371
0.13146
-0.129953
-1.31109
1.30958
0.12801
-0.125722
-1.08775
1.08546
0.123707
-0.121066
-0.908253
0.905611
0.117143
-0.109796
-0.745265
0.737919
0.0993781
-0.0838998
-0.552938
0.537459
0.0672781
-0.0486585
-0.332322
0.313703
0.0333376
-0.019692
-0.153019
0.139374
0.010626
-0.00418446
-0.0498263
0.0433848
0.00104644
-0.00512097
0.00407454
-0.0495287
0.0541899
-0.00466125
0.0263742
-0.0384082
-0.287724
0.299758
0.0506027
-0.0605628
-0.455787
0.465747
0.0699075
-0.0777462
-0.610343
0.618182
0.0861676
-0.0942771
-0.741213
0.749322
0.103265
-0.111359
-0.871227
0.87932
0.120008
-0.12754
-1.02102
1.02855
0.135239
-0.141572
-1.19555
1.20189
0.147547
-0.151928
-1.39757
1.40195
0.155325
-0.15696
-1.63149
1.63312
0.157116
-0.156087
-1.59264
1.59161
0.154562
-0.152457
-1.30704
1.30493
0.150073
-0.147281
-1.08303
1.08024
0.14482
-0.141437
-0.901788
0.898404
0.13599
-0.125765
-0.730045
0.719821
0.111831
-0.0920638
-0.520931
0.501164
0.0718509
-0.0503374
-0.294081
0.272567
0.0334967
-0.0191857
-0.125446
0.111135
0.0100706
-0.00385122
-0.0370331
0.0308138
0.000927894
-0.00307233
0.00214444
-0.0584298
0.0663885
-0.00795865
0.0405145
-0.057132
-0.312943
0.329561
0.0733748
-0.086448
-0.480342
0.493415
0.0979243
-0.107363
-0.62914
0.638579
0.117529
-0.127071
-0.757921
0.767463
0.137148
-0.145777
-0.887132
0.89576
0.154643
-0.162087
-1.0357
1.04314
0.169435
-0.175202
-1.20764
1.21341
0.180344
-0.183746
-1.40559
1.409
0.185924
-0.1863
-1.63393
1.6343
0.185214
-0.183025
-1.58951
1.58732
0.180616
-0.177792
-1.30152
1.29869
0.174875
-0.171507
-1.07718
1.07382
0.168437
-0.163846
-0.893216
0.888626
0.156035
-0.141598
-0.708633
0.694195
0.122869
-0.0979443
-0.480027
0.455103
0.0739322
-0.0498357
-0.25039
0.226293
0.0320228
-0.0176934
-0.0969618
0.0826325
0.00897284
-0.00329777
-0.0248681
0.0191931
0.000745109
-0.0012706
0.000525495
-0.0737757
0.0782844
-0.00450866
0.0311507
-0.0457418
-0.349076
0.363667
0.0603547
-0.0724099
-0.51245
0.524505
0.0834797
-0.0940735
-0.651597
0.662191
0.106218
-0.117374
-0.776313
0.787469
0.129847
-0.141039
-0.903398
0.91459
0.153125
-0.164045
-1.04971
1.06063
0.175727
-0.186025
-1.21817
1.22847
0.19669
-0.20567
-1.41133
1.42031
0.214393
-0.221018
-1.63358
1.6402
0.225591
-0.228839
-1.58385
1.5871
0.230752
-0.232194
-1.29421
1.29565
0.232989
-0.232515
-1.06977
1.0693
0.231051
-0.225492
-0.881045
0.875486
0.213014
-0.189297
-0.678162
0.654445
0.158884
-0.120899
-0.428654
0.390669
0.0871604
-0.0556744
-0.202281
0.170795
0.0341483
-0.0179942
-0.0691885
0.0530344
0.00867122
-0.00296787
-0.0140122
0.0083089
0.000590909
0.000232047
-0.000822956
-0.0861367
0.0842721
0.00186462
0.00889284
-0.0185809
-0.381232
0.39092
0.0298454
-0.0387161
-0.541551
0.550422
0.0478174
-0.0567993
-0.675533
0.684515
0.0679036
-0.0783464
-0.798063
0.808505
0.0896338
-0.100019
-0.925225
0.935611
0.111227
-0.121023
-1.07132
1.08112
0.131729
-0.140836
-1.23864
1.24775
0.150307
-0.158118
-1.42912
1.43693
0.165423
-0.170943
-1.64635
1.65187
0.174598
-0.177009
-1.58973
1.59214
0.178034
-0.178744
-1.29534
1.29605
0.179031
-0.1782
-1.0671
1.06627
0.17529
-0.167182
-0.864406
0.856298
0.152577
-0.128818
-0.626205
0.602446
0.102119
-0.0724598
-0.350366
0.320707
0.0491288
-0.0296731
-0.140655
0.1212
0.0173489
-0.00871585
-0.0382552
0.0296221
0.00397673
-0.00126773
-0.00293485
0.000225851
0.000205807
0.00159554
-0.00180135
-0.0879481
0.084975
0.0029731
-0.000430955
-0.00533477
-0.403406
0.409172
0.012953
-0.0196585
-0.563506
0.570212
0.0266241
-0.0343864
-0.696046
0.703808
0.0440871
-0.0532
-0.817857
0.82697
0.063277
-0.0724077
-0.945196
0.954327
0.0820463
-0.0908997
-1.0908
1.09965
0.100403
-0.108639
-1.25651
1.26475
0.116823
-0.123507
-1.44424
1.45093
0.129949
-0.134579
-1.65702
1.66165
0.137437
-0.139133
-1.59404
1.59573
0.139605
-0.139873
-1.29528
1.29555
0.139474
-0.138158
-1.06251
1.06119
0.134313
-0.124883
-0.843973
0.834543
0.110026
-0.0881575
-0.575348
0.553479
0.0662012
-0.0443553
-0.289284
0.267438
0.0290606
-0.0172358
-0.10222
0.0903951
0.0100064
-0.00504598
-0.0212356
0.0162752
0.00232319
-0.00074985
0.00264945
-0.00422279
0.000127406
0.00220451
-0.00233192
-0.0867883
0.0839151
0.00287323
-0.00458189
0.00153806
-0.418513
0.421557
0.00353369
-0.00870922
-0.580208
0.585383
0.0146691
-0.0212196
-0.713008
0.719559
0.0295698
-0.0374295
-0.835295
0.843154
0.0460965
-0.0539881
-0.962894
0.970786
0.0627319
-0.070356
-1.10808
1.1157
0.0787583
-0.0856136
-1.27261
1.27947
0.0928279
-0.0986923
-1.45748
1.46334
0.104127
-0.107752
-1.66607
1.6697
0.110136
-0.11149
-1.59701
1.59836
0.111669
-0.111176
-1.29464
1.29415
0.110359
-0.108557
-1.05652
1.05471
0.104085
-0.0945718
-0.82124
0.811726
0.0804873
-0.0618683
-0.52901
0.510391
0.044857
-0.029482
-0.244589
0.229214
0.0192796
-0.0116156
-0.0780158
0.0703518
0.00689264
-0.00358781
-0.0109176
0.00761274
0.00172221
-0.000588237
0.00607245
-0.00720642
0.000111453
0.00258716
-0.00269861
-0.0852872
0.0826753
0.00261189
-0.00620079
0.00487884
-0.428816
0.430138
-0.0010223
-0.00291466
-0.593704
0.597641
0.00773259
-0.0136253
-0.727317
0.73321
0.0206466
-0.027543
-0.850192
0.857088
0.0350607
-0.0419329
-0.978194
0.985067
0.049472
-0.0562485
-1.12318
1.12995
0.0634404
-0.0696663
-1.28618
1.29241
0.0759263
-0.0809731
-1.46887
1.47391
0.0855755
-0.0885305
-1.6733
1.67625
0.0903852
-0.0911214
-1.59912
1.59986
0.0910059
-0.0903019
-1.29296
1.29226
0.0890717
-0.0866003
-1.04962
1.04715
0.0821044
-0.0729707
-0.798555
0.789421
0.0606051
-0.0452543
-0.48963
0.474279
0.0323571
-0.0213678
-0.212525
0.201536
0.014183
-0.00881546
-0.0618533
0.0564858
0.00543151
-0.00294313
-0.00377402
0.00128564
0.00147612
-0.000529489
0.00860508
-0.00955172
0.000114313
0.00289345
-0.00300776
-0.0837646
0.0814615
0.00230308
-0.00651843
0.00584385
-0.435964
0.436639
-0.00347552
0.00026401
-0.604188
0.607399
0.00434086
-0.00935739
-0.73944
0.744456
0.015358
-0.0213067
-0.863074
0.869023
0.0279294
-0.0340166
-0.991542
0.997629
0.0408243
-0.0467213
-1.13641
1.14231
0.0530957
-0.0585966
-1.2983
1.3038
0.0640268
-0.0683415
-1.47866
1.48298
0.0721586
-0.0748505
-1.67917
1.68187
0.0761504
-0.0766318
-1.6002
1.60068
0.0762188
-0.0752074
-1.29092
1.28991
0.073873
-0.0708586
-1.04215
1.03913
0.0662674
-0.0579755
-0.776886
0.768594
0.0472984
-0.0348271
-0.456967
0.444495
0.024969
-0.0168205
-0.189143
0.180994
0.0115634
-0.00749249
-0.0501688
0.0460979
0.00478651
-0.00269419
0.0017311
-0.00382343
0.00139477
-0.000524101
0.0106959
-0.0115666
0.000120225
0.00315649
-0.00327671
-0.0824565
0.080585
0.00187152
-0.00600776
0.005837
-0.441182
0.441352
-0.00393201
0.00152139
-0.613241
0.615652
0.002676
-0.00716021
-0.749865
0.754349
0.0127397
-0.0178053
-0.874485
0.879551
0.0235421
-0.0288534
-1.00363
1.00894
0.0351402
-0.0403583
-1.14818
1.1534
0.0458848
-0.0508478
-1.30905
1.31401
0.0560039
-0.0597097
-1.48724
1.49095
0.0630312
-0.065086
-1.68414
1.6862
0.0662422
-0.066107
-1.60094
1.60081
0.0656273
-0.0645603
-1.28841
1.28735
0.0628789
-0.059852
-1.03431
1.03128
0.0552734
-0.0475819
-0.756876
0.749185
0.0386162
-0.0284018
-0.429996
0.419781
0.0206956
-0.0145314
-0.17148
0.165316
0.0104022
-0.0070597
-0.0410777
0.0377352
0.00470546
-0.00275663
0.00642801
-0.00837684
0.00147626
-0.00057493
0.0126084
-0.0135098
0.00014041
0.00339913
-0.00353954
-0.0815539
0.0800246
0.00152927
-0.00522375
0.00535545
-0.445102
0.44497
-0.00370799
0.00151603
-0.620963
0.623155
0.00233142
-0.0062925
-0.75907
0.763031
0.0109955
-0.0157424
-0.884498
0.889245
0.0209067
-0.0261758
-1.01399
1.01926
0.0314604
-0.0362251
-1.15865
1.16341
0.0415519
-0.0459149
-1.31875
1.32311
0.0501172
-0.0537591
-1.49445
1.4981
0.0566447
-0.0583618
-1.68825
1.68996
0.0590271
-0.0588267
-1.60082
1.60062
0.0581322
-0.0568331
-1.28568
1.28438
0.0550505
-0.0518686
-1.02665
1.02347
0.0474282
-0.0406125
-0.738566
0.731751
0.0327129
-0.0244309
-0.407655
0.399373
0.0183949
-0.0134916
-0.157789
0.152886
0.0101121
-0.00723002
-0.0334728
0.0305907
0.00501863
-0.003069
0.0108072
-0.0127568
0.00170997
-0.000691216
0.0145674
-0.0155861
0.000179343
0.00366398
-0.00384333
-0.0811229
0.0797871
0.00133578
-0.00415661
0.00417937
-0.448326
0.448303
-0.00285983
0.000792351
-0.627837
0.629904
0.00265727
-0.00638739
-0.767435
0.771165
0.0107666
-0.0149533
-0.893721
0.897908
0.0200644
-0.0243212
-1.02385
1.0281
0.0293356
-0.0336655
-1.16825
1.17258
0.0385398
-0.0427392
-1.32734
1.33154
0.0467798
-0.0496907
-1.50135
1.50426
0.0522726
-0.0536938
-1.69146
1.69288
0.0542946
-0.0536545
-1.60017
1.59953
0.0527689
-0.0512339
-1.28294
1.2814
0.049315
-0.0459566
-1.0189
1.01554
0.0417352
-0.0354294
-0.72203
0.715725
0.0286758
-0.0218595
-0.389258
0.382441
0.0169976
-0.0131257
-0.146751
0.142879
0.0102709
-0.00767235
-0.0267831
0.0241846
0.00553849
-0.00353203
0.0151407
-0.0171471
0.00203734
-0.000866609
0.016723
-0.0178937
0.000233995
0.00398679
-0.00422078
-0.0809177
0.0799113
0.00100639
-0.00316071
0.00280363
-0.451361
0.451718
-0.00176084
-0.000273605
-0.633732
0.635766
0.00329037
-0.00679197
-0.775028
0.77853
0.0108643
-0.0150535
-0.901901
0.90609
0.0193601
-0.0236148
-1.03251
1.03676
0.0283672
-0.0322371
-1.17726
1.18113
0.0368973
-0.0407101
-1.3354
1.33921
0.0443524
-0.0473158
-1.50744
1.5104
0.0497403
-0.050722
-1.69415
1.69513
0.0507727
-0.0500578
-1.59888
1.59816
0.0490393
-0.0471709
-1.27947
1.27761
0.0449269
-0.0416306
-1.01116
1.00787
0.0371053
-0.0314603
-0.706794
0.701149
0.0256238
-0.0199416
-0.374026
0.368344
0.0160596
-0.0128382
-0.137716
0.134495
0.0103851
-0.00800899
-0.0207453
0.0183693
0.00595916
-0.00393121
0.0195174
-0.0215454
0.00235814
-0.00104681
0.019153
-0.0204643
0.000299575
0.0043995
-0.00469908
-0.0810891
0.0802572
0.00083182
-0.00229767
0.00205802
-0.45439
0.45463
-0.000569675
-0.00122371
-0.639501
0.641295
0.00433668
-0.00762157
-0.7819
0.785185
0.0114223
-0.0150818
-0.909889
0.913549
0.0193769
-0.023153
-1.04094
1.04472
0.027652
-0.0317635
-1.18538
1.18949
0.0357626
-0.0396015
-1.34294
1.34678
0.0432644
-0.0458444
-1.51307
1.51565
0.0480063
-0.0490592
-1.6961
1.69716
0.0487614
-0.0478193
-1.59704
1.5961
0.046254
-0.0440986
-1.27549
1.27333
0.0416722
-0.0380043
-1.00335
0.999685
0.0335965
-0.0282033
-0.692905
0.687511
0.023051
-0.0181998
-0.361067
0.356216
0.0149273
-0.0122284
-0.130142
0.127443
0.0100745
-0.00794117
-0.0152537
0.0131203
0.00604986
-0.00411068
0.023829
-0.0257682
0.00253799
-0.00116995
0.0217932
-0.0231613
0.000350237
0.00491639
-0.00526663
-0.081544
0.0808862
0.000657755
-0.00128768
0.000922487
-0.457408
0.457773
0.000347775
-0.00238722
-0.644698
0.646737
0.0053694
-0.0084251
-0.788346
0.791402
0.0122186
-0.01563
-0.917141
0.920552
0.0196408
-0.0234118
-1.04892
1.05269
0.0276446
-0.0315304
-1.19335
1.19724
0.0355097
-0.0390991
-1.3504
1.35399
0.0425716
-0.045495
-1.51834
1.52126
0.0475049
-0.0481492
-1.69787
1.69851
0.0477394
-0.0462085
-1.5947
1.59317
0.0444121
-0.041994
-1.27078
1.26836
0.0389535
-0.0349476
-0.995051
0.991045
0.0304156
-0.0250742
-0.679901
0.67456
0.0204817
-0.0162257
-0.350033
0.345777
0.0134363
-0.0110714
-0.123646
0.121281
0.00922203
-0.00736456
-0.0103327
0.00847523
0.00571851
-0.0039821
0.0278743
-0.0296107
0.00252255
-0.00120738
0.0244599
-0.0257751
0.000386082
0.00550446
-0.00589054
-0.0822305
0.0816952
0.000535281
-0.000454063
1.27079e-05
-0.460472
0.460914
0.00128403
-0.0033212
-0.649839
0.651876