/*--------------------------------*- C++ -*----------------------------------*\
  =========                 |
  \\      /  F ield         | OpenFOAM: The Open Source CFD Toolbox
   \\    /   O peration     | Website:  https://openfoam.org
    \\  /    A nd           | Version:  6
     \\/     M anipulation  |
\*---------------------------------------------------------------------------*/
FoamFile
{
    version     2.0;
    format      ascii;
    class       volScalarField;
    location    "22";
    object      p;
}
// * * * * * * * * * * * * * * * * * * * * * * * * * * * * * * * * * * * * * //

dimensions      [0 2 -2 0 0 0 0];

internalField   nonuniform List<scalar> 
918
(
0.206787
0.971715
0.00958781
0.206608
-0.00242085
0.939799
-0.833009
0.38584
0.18779
-0.458309
-0.234573
0.180722
0.796736
0.563746
-1.51542
-0.0228328
0.345447
-0.715706
0.18546
-0.00269284
0.448844
0.194656
0.197068
0.187746
0.244791
0.528668
0.673331
0.000499636
-0.000281477
-0.00389204
0.000460334
-0.0120976
-0.0133662
0.822945
0.874876
0.897992
0.155721
-0.0174808
-0.711064
-0.769955
-0.742257
-0.875888
0.374833
0.377156
-0.503759
0.38477
0.398291
0.173824
0.187072
0.187917
0.189386
0.188065
0.189438
0.159529
-0.458908
-0.500181
-0.456619
-0.462076
-0.186013
-0.287863
-0.339323
-0.194508
-0.150232
0.110853
0.177982
0.174764
0.184431
0.193502
0.911889
0.885563
0.911549
0.822595
0.840035
0.77365
0.746525
0.585918
0.608992
0.546811
0.536114
-1.9894
-2.95803
-0.923566
-0.632711
0.000173468
-0.0293621
-0.0338689
0.330619
0.331014
0.342571
0.355968
0.70645
-0.7034
-0.853617
0.185842
0.184389
0.194004
0.194954
0.189877
0.189936
0.00027297
-0.00539273
-0.0133263
0.000908376
-0.0053015
0.43382
0.428794
0.187209
0.18475
0.204064
0.228101
0.216509
-0.0523788
0.255124
0.272925
0.373809
0.531376
0.520667
0.532028
0.648647
0.615789
0.705412
0.726973
0.0107281
0.00353782
-0.024518
-0.0175074
-0.0229668
0.152113
0.146664
0.170175
0.159287
0.162201
-0.112358
-0.264552
0.062802
0.084704
-0.622765
-0.670811
-0.798607
-0.780077
-0.868208
0.206656
0.37031
0.370926
-0.523988
-0.441321
-0.576749
-0.380876
-0.441535
0.165798
0.171076
0.167814
0.182392
0.176679
0.179072
0.191165
0.188305
0.189864
0.177978
0.30132
0.0910198
0.0810301
-0.58501
-0.504763
-0.571599
-0.456246
-0.452834
-0.169073
-0.149945
-0.187659
-0.18935
-0.445688
-0.392319
-0.415794
-0.111025
-0.0777973
0.102579
0.0922764
0.120864
0.126956
0.16795
0.170158
0.172563
0.17139
0.69747
0.720164
0.726533
0.702911
-3.95826
-6.63519
-0.271873
-0.104001
0.000545204
0.00279017
0.00229792
0.00571279
0.00117736
-0.000984446
-0.137096
-0.107515
-0.0481711
-0.0684374
0.321932
0.323414
0.660563
0.68669
0.662505
0.639009
0.174941
0.177154
0.181798
0.178776
-0.0444765
-0.0141987
-0.0283792
0.398654
0.414732
0.411044
-0.0911696
-0.176218
-0.00566126
0.0231031
0.312066
0.284629
0.305324
0.435219
0.474664
0.743609
0.768325
0.751946
0.765125
0.816175
0.839109
0.804239
0.132151
0.142974
0.137408
0.173918
0.171396
0.172759
0.167313
0.169373
0.167329
-0.379052
-0.757516
0.143328
0.151773
0.121144
0.127596
0.285771
0.368664
0.354179
0.362259
0.364411
-0.330503
-0.384723
0.00599046
-0.0468834
0.0500254
0.0816869
0.0657818
0.67277
0.63379
0.681444
0.656907
0.621823
0.645279
-0.694929
-2.48967
-1.4672
0.313513
0.10892
0.203651
-0.169833
-0.176127
-0.169979
0.690941
0.725827
0.362895
0.534391
0.49901
0.503943
0.532977
0.589227
0.519685
0.554903
0.588973
0.568174
0.176506
0.145042
0.150323
0.45023
0.513544
-0.210595
-0.281243
-0.310457
-0.133664
-0.0741919
-0.10669
0.689701
0.5762
0.646068
0.185238
0.186105
0.00742246
0.00651297
0.189811
0.189645
0.0043598
-0.00533759
0.222507
-1.29811
-0.19646
0.178939
0.169089
0.185711
-0.410143
0.042268
-0.295977
-0.250839
-0.127334
0.176223
0.121689
0.0860435
0.00621215
-0.0099101
-0.0138432
-0.512273
0.182879
0.181368
0.185204
0.186088
0.186838
0.00470406
0.00432191
0.00372927
-0.00784498
-0.00129869
-0.000435027
0.151395
0.168568
-0.502786
0.18532
0.187415
0.187199
0.181048
0.18624
0.184695
-0.00535503
-0.00585068
-0.0184904
-0.106295
0.0182082
0.420279
0.506032
0.360275
0.184995
-0.124546
0.34744
0.405683
0.323525
0.463631
0.357079
0.366409
-0.13768
-0.276912
-0.134835
-0.190824
0.176399
0.175566
0.166901
0.164357
0.180796
0.178667
0.18338
0.180418
0.183327
0.184624
-0.391396
-0.438553
-0.41146
-0.464282
0.063493
0.278233
-0.0704328
0.0345948
-0.117449
-0.263477
-0.199873
-0.38268
-0.411324
-0.575097
-0.174368
-0.226951
-0.255305
-0.0328298
-0.153834
-0.386647
-0.237361
-0.284288
0.170175
0.169869
0.176582
0.183331
0.12973
0.132101
0.103598
0.120418
0.106703
0.0548339
0.08439
0.0621921
0.00467341
0.00862524
0.00399212
-0.00747848
-0.0231138
0.00183337
0.00625336
0.0101866
-0.00233784
-0.00178544
-0.0167138
-0.013928
-0.488915
-0.594034
0.636022
0.586464
-0.228883
0.172495
0.178678
0.17566
0.180211
0.183261
0.183721
0.181405
0.178408
0.168728
0.170239
0.166555
0.166717
-0.44922
-0.554346
-0.381986
-0.453256
-0.192024
0.296716
0.0261614
-0.0238329
-0.0382784
0.174692
0.372926
0.332231
0.428543
0.431652
-0.739339
-0.307085
-0.657487
-0.108728
-0.128888
0.439852
0.485482
0.505558
0.46016
0.41291
-0.373085
0.188582
-0.371922
-0.330804
-0.14791
-0.245469
0.397777
0.33788
0.345079
0.358789
0.380232
0.348194
0.326077
0.322575
0.351624
0.358887
0.167393
-0.0751741
-0.108583
-0.158766
0.322893
0.199528
0.251286
0.179531
0.171458
0.174213
0.17287
0.156041
0.162137
0.158468
0.163749
0.167054
0.175803
0.175898
0.171731
0.173726
-0.435665
-0.434275
-0.406666
-0.446923
-0.458735
-0.495416
-0.425734
-0.18463
-0.223553
-0.0944555
0.0484135
-0.228702
-0.401203
-0.365074
-0.342762
-0.126193
-0.151186
-0.334503
-0.126472
-0.161029
-0.219466
-0.0311569
-0.0190552
-0.469033
-0.550983
-0.527922
-0.464963
-0.254898
-0.211949
-0.175296
-0.181613
-0.316346
-0.161527
-0.101123
-0.481911
-0.555316
-0.54165
-0.464214
-0.000286384
-0.00704476
-0.0208826
-0.0730031
-0.0466829
-0.0586127
0.166978
0.167855
0.169081
0.18023
0.190983
0.206339
0.173372
0.148739
0.141872
0.143986
0.119326
0.127856
0.123067
0.137055
0.156837
0.163203
0.161705
0.164057
0.148942
0.149361
0.137863
0.142071
0.116941
0.101496
0.0925004
0.000717604
0.00391914
0.00075198
-0.0079634
0.00632903
0.00193068
-0.0589247
-0.0206843
-0.0335821
-0.0271082
-0.0813718
0.0091625
0.00448911
-0.416479
-0.348585
-0.511233
-0.546186
-0.606061
0.542552
0.659021
0.477883
0.270052
0.262086
0.493331
0.583878
0.258181
0.428389
0.45415
0.187355
0.463479
0.176865
0.176217
0.173837
0.173413
0.17456
-0.354451
-0.258936
-0.227804
-0.184614
-0.0710311
0.0356723
-0.047895
-0.163711
-0.0228223
0.00949541
0.29012
0.30525
0.248378
0.275439
0.272689
0.0961901
0.173658
0.212529
0.166359
0.229187
0.261135
0.208317
0.251617
0.179067
0.13613
0.130529
0.0798756
0.114298
0.0952495
0.0692526
0.16817
0.148198
0.157503
0.150515
0.168083
0.195921
0.193835
0.214385
0.229224
0.15232
0.108456
0.122906
0.147679
0.109901
0.123785
0.142085
-0.178312
-0.271255
-0.115974
-0.438302
-0.338579
-0.303444
-0.342473
-0.401307
-0.0964427
-0.736036
-0.672167
-1.36241
0.124447
0.543317
0.362986
0.380612
0.378495
0.357033
0.364604
0.387664
0.395475
0.314225
0.328775
0.333871
0.282843
0.317718
0.327836
0.333985
0.157954
0.0774261
0.0714277
0.0157091
-0.113798
-0.0800811
0.0943693
0.0353636
-0.0294059
-0.032862
0.139223
0.0155164
0.0862379
0.137498
0.079885
0.013766
0.226932
0.284087
0.271154
0.238672
0.156605
0.17167
0.199233
0.239595
0.26028
0.290991
0.162768
0.169375
0.170319
0.167479
0.166165
0.168641
0.168384
0.170944
0.171796
0.174185
0.173387
-0.471461
-0.514192
-0.445622
-0.458901
-0.397937
-0.37285
-0.296922
-0.355198
-0.48722
-0.449212
-0.430975
-0.443522
-0.465959
-0.48555
-0.20739
-0.211521
-0.197131
-0.246189
-0.0438558
0.106172
0.151906
0.0381817
-0.0936974
-0.0665814
0.0212009
-0.452445
-0.399799
-0.53663
-0.37509
-0.392347
-0.283529
-0.219491
-0.231038
-0.310025
-0.352588
-0.152593
-0.0267072
-0.0499877
-0.0751722
-0.0565322
-0.0348757
0.151563
0.146408
0.145312
0.139566
0.13922
0.1514
0.156217
0.157818
0.162698
0.164392
0.156649
0.161374
0.164017
-0.0221064
0.00705945
0.00734962
-0.0362903
-0.00616593
0.001076
-0.01301
-0.231408
-0.322833
-0.294311
-0.348607
-0.459843
-0.404935
0.131137
0.117006
0.131721
0.330942
0.186265
0.0949302
0.178004
0.288005
-0.0867096
0.118081
-0.051449
0.516284
0.40966
0.553492
0.199571
-0.106069
0.0445725
0.0592752
-0.100912
0.0182293
0.00306388
-0.117961
-0.0797937
-0.0657754
0.0135414
-0.0985201
-0.124947
-0.363784
-0.190878
-0.0697131
-0.0897938
0.0444351
0.102108
-0.0987431
-0.18405
-0.231845
0.281638
0.299667
0.313319
0.286484
0.308818
0.233447
0.225993
0.24513
0.253838
0.245456
-1.00414
-0.593938
-1.80226
-1.21276
-0.760721
0.152769
0.134371
0.392895
0.301103
0.375087
0.357674
0.29791
0.262612
0.280322
0.314893
0.0108319
0.11572
0.0791865
0.0989109
0.0357172
-0.0403161
0.25217
0.24986
0.276968
0.301102
0.274613
0.302274
0.162146
0.16162
0.160293
0.157697
0.156231
0.158313
-0.340048
-0.416492
-0.271538
-0.291159
-0.343774
-0.393828
-0.0376174
-0.0605339
-0.0473298
-0.0354743
-0.00438378
-0.0306289
-0.184384
-0.244517
-0.330962
-0.289873
-0.347649
-0.426111
-0.432973
-0.345971
-0.246171
-0.265277
0.0324962
0.311715
0.140168
0.30599
0.0859489
0.194569
0.123987
0.10272
0.138193
0.0161655
0.100618
-0.36834
-0.546941
-0.612958
0.453962
0.405847
0.195778
-0.0690854
-0.168012
0.14202
0.184432
0.148453
0.184365
0.231087
0.225658
-0.362529
-0.256355
-0.210732
0.0993365
-0.0975113
-0.0762492
-0.0862995
0.0649333
0.039396
)
;

boundaryField
{
    wall-4
    {
        type            zeroGradient;
    }
    velocity-inlet-5
    {
        type            zeroGradient;
    }
    velocity-inlet-6
    {
        type            zeroGradient;
    }
    pressure-outlet-7
    {
        type            fixedValue;
        value           uniform 0;
    }
    wall-8
    {
        type            zeroGradient;
    }
    frontAndBackPlanes
    {
        type            empty;
    }
}


// ************************************************************************* //
