/*--------------------------------*- C++ -*----------------------------------*\
  =========                 |
  \\      /  F ield         | OpenFOAM: The Open Source CFD Toolbox
   \\    /   O peration     | Website:  https://openfoam.org
    \\  /    A nd           | Version:  6
     \\/     M anipulation  |
\*---------------------------------------------------------------------------*/
FoamFile
{
    version     2.0;
    format      ascii;
    class       volVectorField;
    location    "72";
    object      U;
}
// * * * * * * * * * * * * * * * * * * * * * * * * * * * * * * * * * * * * * //

dimensions      [0 1 -1 0 0 0 0];

internalField   nonuniform List<vector> 
2200
(
(0.877615 -0.0201791 0)
(1.0047 -0.0399816 0)
(1.0028 -0.0342696 0)
(1.00028 -0.0231861 0)
(0.999891 -0.0154564 0)
(1.00003 -0.010093 0)
(1.00001 -0.00639774 0)
(1 -0.00388532 0)
(1.00006 -0.00208693 0)
(1.00013 -0.000566661 0)
(1.00017 0.000795252 0)
(1.00044 0.00225856 0)
(1.00038 0.00414507 0)
(1.00027 0.00670063 0)
(1.00012 0.0103717 0)
(0.999911 0.0156883 0)
(1.00043 0.0232589 0)
(1.00307 0.0341105 0)
(1.00471 0.0400626 0)
(0.877644 0.0201913 0)
(0.70084 -0.0265879 0)
(0.993619 -0.0586135 0)
(1.02977 -0.0596638 0)
(1.02184 -0.0487905 0)
(1.01389 -0.0360557 0)
(1.00828 -0.0249693 0)
(1.00505 -0.016626 0)
(1.00319 -0.0105137 0)
(1.00207 -0.00570924 0)
(1.0016 -0.0015083 0)
(1.00145 0.00288701 0)
(1.00167 0.00706988 0)
(1.00277 0.0115965 0)
(1.00471 0.0174157 0)
(1.00804 0.0255702 0)
(1.01362 0.0365711 0)
(1.02144 0.0494584 0)
(1.02924 0.0605439 0)
(0.99352 0.0587143 0)
(0.700561 0.0266196 0)
(0.530477 -0.0214097 0)
(0.966298 -0.0552521 0)
(1.05274 -0.0606132 0)
(1.0484 -0.053249 0)
(1.03238 -0.0414967 0)
(1.02135 -0.0316049 0)
(1.01384 -0.0228295 0)
(1.00916 -0.0152638 0)
(1.00645 -0.00853929 0)
(1.00517 -0.00220983 0)
(1.00524 0.00392007 0)
(1.00659 0.0101158 0)
(1.00924 0.0167631 0)
(1.01369 0.0242866 0)
(1.02095 0.0329605 0)
(1.03194 0.0426736 0)
(1.04811 0.054049 0)
(1.05272 0.0604593 0)
(0.965456 0.0556586 0)
(0.529249 0.0215675 0)
(0.3932 -0.0132584 0)
(0.90994 -0.0453543 0)
(1.05586 -0.0512303 0)
(1.06661 -0.047211 0)
(1.05115 -0.0388535 0)
(1.03573 -0.0309863 0)
(1.02469 -0.0237333 0)
(1.01698 -0.0165966 0)
(1.0119 -0.00945689 0)
(1.00901 -0.00214701 0)
(1.00884 0.00531418 0)
(1.01126 0.0125232 0)
(1.01606 0.0193188 0)
(1.02368 0.0259802 0)
(1.03477 0.0327576 0)
(1.05015 0.0402464 0)
(1.06527 0.0481711 0)
(1.05402 0.052078 0)
(0.907569 0.045854 0)
(0.39024 0.0134578 0)
(0.309269 -0.00618137 0)
(0.846355 -0.0330361 0)
(1.04809 -0.0428384 0)
(1.07716 -0.0391014 0)
(1.06532 -0.0330307 0)
(1.04879 -0.0270565 0)
(1.03596 -0.0218244 0)
(1.02645 -0.0161031 0)
(1.01996 -0.00953025 0)
(1.01639 -0.00206833 0)
(1.01616 0.00565117 0)
(1.01947 0.0128918 0)
(1.02573 0.0191908 0)
(1.0349 0.0247607 0)
(1.04734 0.0297412 0)
(1.06366 0.0353216 0)
(1.07541 0.040767 0)
(1.04553 0.0440822 0)
(0.84201 0.0336617 0)
(0.304779 0.00638381 0)
(0.265559 -0.00189811 0)
(0.789116 -0.0218499 0)
(1.03249 -0.0337119 0)
(1.08178 -0.0320082 0)
(1.07509 -0.0274194 0)
(1.05865 -0.0223519 0)
(1.04543 -0.018107 0)
(1.03497 -0.0133183 0)
(1.0271 -0.00758023 0)
(1.02221 -0.000901852 0)
(1.02189 0.00628437 0)
(1.02592 0.0127709 0)
(1.03307 0.0180573 0)
(1.04314 0.0221585 0)
(1.05622 0.025781 0)
(1.07258 0.0302949 0)
(1.0784 0.0342646 0)
(1.02764 0.0353523 0)
(0.782005 0.0226542 0)
(0.259588 0.0021641 0)
(0.241327 -0.000323271 0)
(0.738662 -0.0139436 0)
(1.01273 -0.0266085 0)
(1.08242 -0.0264703 0)
(1.08135 -0.0229804 0)
(1.06635 -0.0185489 0)
(1.05339 -0.0149903 0)
(1.04318 -0.0110151 0)
(1.03553 -0.00603387 0)
(1.03087 -2.19555e-05 0)
(1.03024 0.00640632 0)
(1.03404 0.0121086 0)
(1.04111 0.0165781 0)
(1.05073 0.0201401 0)
(1.06319 0.0231574 0)
(1.07751 0.0268287 0)
(1.07799 0.0294157 0)
(1.00596 0.0286657 0)
(0.728489 0.0149674 0)
(0.233594 0.000681393 0)
(0.226753 -4.42315e-06 0)
(0.696223 -0.00912144 0)
(0.992605 -0.0216126 0)
(1.08099 -0.0227538 0)
(1.08563 -0.0198421 0)
(1.07251 -0.0158592 0)
(1.05971 -0.0122671 0)
(1.04959 -0.00840319 0)
(1.04174 -0.0037852 0)
(1.03656 0.00157539 0)
(1.03584 0.00703832 0)
(1.03946 0.0119133 0)
(1.04608 0.0159093 0)
(1.05533 0.0188207 0)
(1.06773 0.021527 0)
(1.08026 0.0245741 0)
(1.07393 0.0265399 0)
(0.981906 0.0242158 0)
(0.681399 0.0104177 0)
(0.216663 0.000457621 0)
(0.217063 -1.79498e-05 0)
(0.660773 -0.0062788 0)
(0.972347 -0.0181389 0)
(1.07857 -0.0202172 0)
(1.08923 -0.0176561 0)
(1.07762 -0.0139331 0)
(1.06527 -0.0104005 0)
(1.05576 -0.006682 0)
(1.04855 -0.00236031 0)
(1.04389 0.00251991 0)
(1.04279 0.00775451 0)
(1.04571 0.0123422 0)
(1.05165 0.0158176 0)
(1.06013 0.0187691 0)
(1.07167 0.0213841 0)
(1.08189 0.0239546 0)
(1.06928 0.0250453 0)
(0.957806 0.021379 0)
(0.640994 0.0079507 0)
(0.204275 0.00058361 0)
(0.210057 -7.25222e-05 0)
(0.632558 -0.00453038 0)
(0.953788 -0.0153575 0)
(1.07578 -0.0182264 0)
(1.09267 -0.0160733 0)
(1.08252 -0.0125762 0)
(1.06997 -0.00884502 0)
(1.06025 -0.00495263 0)
(1.05272 -0.000469161 0)
(1.04755 0.00444008 0)
(1.04619 0.00901069 0)
(1.04878 0.0131154 0)
(1.05415 0.0166572 0)
(1.06244 0.0191857 0)
(1.07425 0.0215384 0)
(1.08293 0.0234912 0)
(1.06236 0.0241034 0)
(0.933156 0.0193216 0)
(0.605941 0.00659636 0)
(0.19373 0.00073695 0)
(0.204321 -4.89773e-05 0)
(0.609613 -0.00329831 0)
(0.936451 -0.0128287 0)
(1.07304 -0.0159915 0)
(1.09616 -0.0140733 0)
(1.08737 -0.0108425 0)
(1.07491 -0.00732559 0)
(1.06534 -0.00352428 0)
(1.05817 0.00076916 0)
(1.05329 0.00545707 0)
(1.05148 0.0104272 0)
(1.05331 0.0147339 0)
(1.05836 0.0178253 0)
(1.06619 0.0203415 0)
(1.07715 0.0224056 0)
(1.08334 0.0239769 0)
(1.05561 0.0234954 0)
(0.909238 0.0177919 0)
(0.575366 0.00589224 0)
(0.183917 0.000869127 0)
(0.199865 1.20252e-05 0)
(0.591612 -0.00230538 0)
(0.921168 -0.0106351 0)
(1.07025 -0.0141086 0)
(1.09971 -0.012415 0)
(1.09239 -0.00919898 0)
(1.07961 -0.00545723 0)
(1.06935 -0.00152248 0)
(1.06121 0.00305655 0)
(1.05537 0.00816258 0)
(1.05309 0.0127597 0)
(1.05482 0.0165805 0)
(1.0595 0.0196417 0)
(1.06752 0.021681 0)
(1.07891 0.0234014 0)
(1.083 0.0243466 0)
(1.04632 0.023196 0)
(0.884347 0.0167021 0)
(0.547225 0.00556226 0)
(0.174158 0.000973749 0)
(0.196316 0.00012326 0)
(0.57708 -0.00153437 0)
(0.907069 -0.00840648 0)
(1.06776 -0.011856 0)
(1.10336 -0.0102833 0)
(1.09732 -0.00716961 0)
(1.08446 -0.00352031 0)
(1.07407 0.000386073 0)
(1.06615 0.00487881 0)
(1.06026 0.00969789 0)
(1.05733 0.0146732 0)
(1.0581 0.0187766 0)
(1.06267 0.0215617 0)
(1.07031 0.0234303 0)
(1.08054 0.0247314 0)
(1.08204 0.0250466 0)
(1.03687 0.0232026 0)
(0.859684 0.0159268 0)
(0.521263 0.00547676 0)
(0.164528 0.00105752 0)
(0.1943 0.000312596 0)
(0.566842 -0.000502228 0)
(0.895834 -0.00622812 0)
(1.06553 -0.00933084 0)
(1.1071 -0.00759558 0)
(1.10253 -0.00431231 0)
(1.08942 -0.000435083 0)
(1.07823 0.00365658 0)
(1.06874 0.00828159 0)
(1.06164 0.0135523 0)
(1.05817 0.0181189 0)
(1.05918 0.0215832 0)
(1.06317 0.0237677 0)
(1.07097 0.0251006 0)
(1.0809 0.0260031 0)
(1.07961 0.025985 0)
(1.02457 0.0232743 0)
(0.833686 0.0154917 0)
(0.495993 0.00550067 0)
(0.154783 0.0011109 0)
(0.19366 0.000485259 0)
(0.559523 0.000176001 0)
(0.886288 -0.00396035 0)
(1.06444 -0.00674708 0)
(1.11139 -0.00493494 0)
(1.10815 -0.00149247 0)
(1.09507 0.00249576 0)
(1.0837 0.00665676 0)
(1.07462 0.0113493 0)
(1.06721 0.0162256 0)
(1.06271 0.0210879 0)
(1.06198 0.0246471 0)
(1.06563 0.0267914 0)
(1.07297 0.0278523 0)
(1.08107 0.0282166 0)
(1.07678 0.0273428 0)
(1.01172 0.0240699 0)
(0.807224 0.015487 0)
(0.471361 0.00567597 0)
(0.145033 0.00119048 0)
(0.194518 0.000529093 0)
(0.556125 0.00143895 0)
(0.880074 -0.00187531 0)
(1.0638 -0.00404305 0)
(1.11597 -0.00180882 0)
(1.11403 0.00214016 0)
(1.10063 0.00667427 0)
(1.08834 0.0112348 0)
(1.07746 0.0161847 0)
(1.06841 0.0213315 0)
(1.06317 0.0255386 0)
(1.06276 0.0283559 0)
(1.06577 0.0299982 0)
(1.07281 0.0304982 0)
(1.0803 0.0305148 0)
(1.07168 0.0293569 0)
(0.995739 0.0248895 0)
(0.779047 0.0157107 0)
(0.446338 0.00594098 0)
(0.134974 0.00127937 0)
(0.197176 0.000721667 0)
(0.556916 0.00216358 0)
(0.876613 0.000828591 0)
(1.06561 -0.000467367 0)
(1.12156 0.0020649 0)
(1.12056 0.00629525 0)
(1.10702 0.0110375 0)
(1.09444 0.0157977 0)
(1.08382 0.0207798 0)
(1.07503 0.0261876 0)
(1.06828 0.0307506 0)
(1.06527 0.0337215 0)
(1.06724 0.0347415 0)
(1.07357 0.0350811 0)
(1.07853 0.0343285 0)
(1.06572 0.0319037 0)
(0.978589 0.0266508 0)
(0.749455 0.0164187 0)
(0.420697 0.00642934 0)
(0.12455 0.0014077 0)
(0.201788 0.00107066 0)
(0.560318 0.00308335 0)
(0.877703 0.00362401 0)
(1.06823 0.00276866 0)
(1.12785 0.00598354 0)
(1.12807 0.0109125 0)
(1.11426 0.016337 0)
(1.10077 0.0216894 0)
(1.08822 0.0272912 0)
(1.07637 0.0323939 0)
(1.06829 0.0365761 0)
(1.06557 0.0387651 0)
(1.06659 0.0399679 0)
(1.07207 0.0393416 0)
(1.07617 0.0381319 0)
(1.05747 0.0352184 0)
(0.957622 0.0283945 0)
(0.71725 0.0174737 0)
(0.393572 0.00701196 0)
(0.11345 0.00153358 0)
(0.209143 0.0015551 0)
(0.568797 0.00450385 0)
(0.882916 0.00635767 0)
(1.07437 0.0075306 0)
(1.13549 0.0112211 0)
(1.13638 0.0166866 0)
(1.12201 0.0226045 0)
(1.10784 0.0284417 0)
(1.09507 0.0342727 0)
(1.08338 0.0399671 0)
(1.07389 0.0450226 0)
(1.06782 0.0472028 0)
(1.06719 0.0471469 0)
(1.07155 0.0462526 0)
(1.07214 0.0439699 0)
(1.04737 0.0391468 0)
(0.934669 0.0314388 0)
(0.682466 0.019093 0)
(0.364567 0.00773403 0)
(0.101619 0.00167737 0)
(0.218093 0.00200899 0)
(0.580535 0.00597466 0)
(0.891745 0.00896906 0)
(1.08246 0.0114953 0)
(1.14455 0.0165315 0)
(1.14627 0.0230705 0)
(1.13137 0.0298854 0)
(1.11603 0.0364492 0)
(1.10083 0.0429914 0)
(1.08567 0.0491057 0)
(1.07276 0.0532108 0)
(1.0666 0.0549784 0)
(1.06505 0.0553273 0)
(1.06795 0.0530366 0)
(1.06747 0.0499652 0)
(1.03443 0.0446337 0)
(0.90627 0.0346481 0)
(0.643107 0.0210366 0)
(0.332675 0.00852325 0)
(0.088794 0.00181127 0)
(0.231447 0.002577 0)
(0.600327 0.00841124 0)
(0.908127 0.0137008 0)
(1.09473 0.0178648 0)
(1.15567 0.0237507 0)
(1.15724 0.0313765 0)
(1.14104 0.0392429 0)
(1.12416 0.0467212 0)
(1.10768 0.0538304 0)
(1.09132 0.0602575 0)
(1.07692 0.0650508 0)
(1.06747 0.066802 0)
(1.06402 0.0652894 0)
(1.06557 0.0625123 0)
(1.06008 0.0581858 0)
(1.01812 0.050254 0)
(0.874441 0.0390863 0)
(0.599821 0.0233344 0)
(0.297999 0.00931556 0)
(0.0751379 0.00191228 0)
(0.248274 0.00326982 0)
(0.626283 0.0102853 0)
(0.931392 0.0180972 0)
(1.11142 0.024677 0)
(1.16949 0.0322522 0)
(1.17106 0.0412709 0)
(1.15339 0.0501436 0)
(1.13453 0.0586002 0)
(1.11471 0.0666794 0)
(1.09367 0.073799 0)
(1.07503 0.0784941 0)
(1.06417 0.0788448 0)
(1.06001 0.0769886 0)
(1.0595 0.07252 0)
(1.05163 0.0664024 0)
(0.998072 0.0577147 0)
(0.835113 0.0433047 0)
(0.549725 0.0256658 0)
(0.259646 0.00994773 0)
(0.0606342 0.00194066 0)
(0.270734 0.00452563 0)
(0.659201 0.0144782 0)
(0.960305 0.0245876 0)
(1.13233 0.0336012 0)
(1.18612 0.0427492 0)
(1.18629 0.0538059 0)
(1.16611 0.0645415 0)
(1.14407 0.0745908 0)
(1.12115 0.083692 0)
(1.09763 0.0908442 0)
(1.0768 0.0942712 0)
(1.06322 0.0936129 0)
(1.05677 0.0901913 0)
(1.05468 0.0848119 0)
(1.03956 0.0774142 0)
(0.972575 0.0650225 0)
(0.790367 0.0488749 0)
(0.494589 0.0281981 0)
(0.21878 0.0103571 0)
(0.0458787 0.00189723 0)
(0.303077 0.00559456 0)
(0.707178 0.01775 0)
(1.00191 0.0323797 0)
(1.16048 0.0447907 0)
(1.20682 0.0563148 0)
(1.20464 0.0700474 0)
(1.18072 0.0827467 0)
(1.15512 0.0940868 0)
(1.1276 0.103536 0)
(1.09834 0.110141 0)
(1.0727 0.11283 0)
(1.05728 0.11064 0)
(1.04971 0.105443 0)
(1.04499 0.0978682 0)
(1.02515 0.0876542 0)
(0.941733 0.0740797 0)
(0.735007 0.0535798 0)
(0.429979 0.0298905 0)
(0.174628 0.01028 0)
(0.0310045 0.00173739 0)
(0.339022 0.00891119 0)
(0.76433 0.0263609 0)
(1.05042 0.0449229 0)
(1.19418 0.0618804 0)
(1.23163 0.0760281 0)
(1.2248 0.0926337 0)
(1.19596 0.10691 0)
(1.16535 0.119311 0)
(1.13304 0.129056 0)
(1.10027 0.134584 0)
(1.07211 0.134366 0)
(1.05345 0.128658 0)
(1.04418 0.121476 0)
(1.03724 0.112287 0)
(1.0062 0.10055 0)
(0.902167 0.0821904 0)
(0.671978 0.0590123 0)
(0.362226 0.0313727 0)
(0.13103 0.00978745 0)
(0.0176888 0.00154038 0)
(0.417766 0.0138347 0)
(0.850754 0.0365149 0)
(1.11857 0.0628781 0)
(1.23681 0.0849273 0)
(1.26099 0.101867 6.30015e-34)
(1.24778 0.12232 -2.8336e-34)
(1.21216 0.138344 0)
(1.17583 0.150901 0)
(1.13744 0.158968 0)
(1.09792 0.161401 0)
(1.06419 0.157764 0)
(1.04493 0.150079 0)
(1.03453 0.139727 0)
(1.02298 0.127436 0)
(0.982558 0.111806 0)
(0.8549 0.091372 0)
(0.595087 0.0620269 0)
(0.281309 0.0299956 0)
(0.0834594 0.0085225 0)
(0.00368593 0.0013204 0)
(0.483785 0.0285198 4.7229e-20)
(0.95103 0.0574217 -3.57295e-20)
(1.18803 0.0921023 0)
(1.2786 0.120519 2.72429e-20)
(1.29101 0.1401 -2.20821e-20)
(1.26756 0.163009 2.98985e-34)
(1.2246 0.178844 0)
(1.18232 0.190666 1.6081e-20)
(1.1384 0.197422 -5.30391e-20)
(1.09517 0.197201 1.0882e-20)
(1.06044 0.189161 0)
(1.03738 0.174721 -2.79783e-20)
(1.02422 0.161036 -3.36002e-20)
(1.00784 0.146966 5.8804e-20)
(0.945687 0.129126 -4.63879e-20)
(0.780797 0.0995539 0)
(0.487975 0.0638886 -1.65792e-20)
(0.190613 0.0280252 0)
(0.0375539 0.00747767 -9.18201e-20)
(-0.0107979 0.000597166 1.08209e-19)
(0.520017 0.0540394 -6.184e-21)
(1.01548 0.0950394 1.06944e-19)
(1.24068 0.136166 -6.61232e-21)
(1.31378 0.165346 -6.68576e-20)
(1.31742 0.186879 -4.61498e-20)
(1.28505 0.209726 7.49448e-20)
(1.2352 0.225586 0)
(1.18696 0.236848 0)
(1.13713 0.241069 8.42456e-20)
(1.08713 0.236305 0)
(1.04447 0.222891 1.00592e-19)
(1.01994 0.206934 3.00213e-20)
(1.00483 0.190444 5.17729e-22)
(0.97749 0.170485 -6.37563e-20)
(0.898378 0.143226 0)
(0.704157 0.110052 0)
(0.397404 0.0664489 -2.69229e-19)
(0.129188 0.0262658 6.77112e-19)
(0.00467631 0.00446016 -4.00255e-19)
(-0.0218719 -0.00149475 -4.71315e-19)
(0.531335 0.0788896 -6.06005e-20)
(1.05168 0.143331 2.32067e-20)
(1.27552 0.189029 1.24557e-20)
(1.34104 0.219441 1.15243e-19)
(1.33752 0.24161 1.39036e-20)
(1.29731 0.263209 -1.94835e-19)
(1.24116 0.277209 6.66009e-20)
(1.18711 0.285725 0)
(1.1319 0.287487 -1.78069e-19)
(1.07852 0.280174 1.59731e-19)
(1.03608 0.263086 -2.7126e-19)
(1.00803 0.240045 1.27223e-19)
(0.987405 0.216735 -8.19411e-20)
(0.9567 0.192593 1.85321e-19)
(0.86014 0.163965 0)
(0.6479 0.119508 -6.67411e-20)
(0.342012 0.0686892 0)
(0.101249 0.0243445 3.67974e-19)
(-0.0113786 0.000809293 -8.71235e-19)
(-0.028222 -0.00383644 5.45211e-19)
(0.53145 0.103746 1.62592e-19)
(1.07703 0.197088 -7.22743e-20)
(1.30169 0.250445 -1.4721e-20)
(1.36008 0.280793 0)
(1.35105 0.301022 -8.44225e-20)
(1.3051 0.319928 1.04257e-19)
(1.2433 0.331344 -7.1646e-20)
(1.18386 0.336924 0)
(1.1239 0.334473 1.26532e-19)
(1.06572 0.321342 -1.12093e-19)
(1.01676 0.297511 2.34121e-19)
(0.986536 0.272164 0)
(0.967088 0.246995 -1.74031e-19)
(0.928503 0.217011 9.84042e-20)
(0.82629 0.177246 2.44725e-19)
(0.609939 0.129756 -2.15269e-19)
(0.315554 0.0741618 3.39298e-19)
(0.0942207 0.0237101 -7.50689e-19)
(-0.0186192 -0.00217191 4.7427e-19)
(-0.0326635 -0.00626008 -5.92996e-19)
(0.51873 0.131359 -5.3081e-20)
(1.08197 0.246191 3.78416e-20)
(1.31326 0.308953 -4.81992e-20)
(1.37032 0.342998 9.80849e-20)
(1.35749 0.363118 -9.32056e-20)
(1.30673 0.379576 3.27697e-20)
(1.24051 0.387603 3.52358e-21)
(1.17691 0.38836 -1.4226e-19)
(1.11328 0.381414 -1.3303e-19)
(1.05224 0.364252 -2.40652e-19)
(1.00409 0.338086 -5.02918e-19)
(0.972329 0.306216 -1.54706e-19)
(0.947042 0.272963 2.12332e-21)
(0.907422 0.239736 -3.33871e-19)
(0.800943 0.199768 -4.22138e-21)
(0.585301 0.143231 3.1212e-19)
(0.309818 0.0798416 -9.32875e-20)
(0.0961118 0.0267066 -5.42051e-20)
(-0.0173003 -0.00388127 0)
(-0.0337832 -0.00849531 1.25653e-18)
(0.504293 0.156409 0)
(1.08327 0.296787 -2.26659e-21)
(1.31963 0.370117 -6.98847e-21)
(1.37365 0.406482 -1.25988e-20)
(1.35783 0.425253 8.90502e-20)
(1.30393 0.438817 -7.67297e-20)
(1.23438 0.443491 7.82485e-20)
(1.16727 0.44018 2.34068e-19)
(1.10009 0.428254 -7.42684e-20)
(1.03544 0.40525 1.18767e-19)
(0.982348 0.3719 2.70076e-19)
(0.948667 0.337343 3.36878e-19)
(0.923885 0.305077 -2.02104e-19)
(0.879587 0.266972 3.61068e-19)
(0.774326 0.21581 -2.85574e-19)
(0.566585 0.158319 0)
(0.306534 0.0902034 -7.08019e-19)
(0.10316 0.0315618 9.53986e-19)
(-0.0101918 -0.0036114 7.11343e-20)
(-0.0316566 -0.00977856 -1.32806e-18)
(0.486274 0.177834 -6.61632e-21)
(1.07229 0.341331 -9.10746e-21)
(1.31668 0.425565 5.00271e-20)
(1.37132 0.466746 -7.35478e-20)
(1.35338 0.485966 7.48621e-20)
(1.29668 0.497581 -7.42646e-20)
(1.22451 0.499173 1.55121e-19)
(1.15497 0.491036 -6.9674e-20)
(1.08562 0.473956 -2.99347e-19)
(1.01999 0.446154 4.80772e-23)
(0.968341 0.410264 -2.92648e-19)
(0.931669 0.371263 -3.61786e-19)
(0.901412 0.331988 2.2313e-19)
(0.858997 0.290336 -1.29487e-19)
(0.752921 0.242433 3.1056e-19)
(0.553948 0.174663 0)
(0.308181 0.102585 -4.40492e-19)
(0.113182 0.0383271 6.50605e-19)
(-0.000300726 -0.00134089 1.22982e-18)
(-0.0276597 -0.0100239 -1.44663e-18)
(0.472173 0.198794 -8.42842e-20)
(1.06354 0.387629 3.51362e-20)
(1.31184 0.48235 -2.91562e-20)
(1.36491 0.526252 7.51159e-20)
(1.345 0.544695 1.19841e-20)
(1.28641 0.55406 -1.44744e-19)
(1.21252 0.552655 -9.08867e-20)
(1.14137 0.540695 -9.06132e-20)
(1.07022 0.518732 -1.69235e-19)
(1.00225 0.485308 2.72589e-19)
(0.944891 0.442979 2.95875e-19)
(0.905152 0.401695 5.74125e-19)
(0.877021 0.364298 0)
(0.830473 0.319494 5.99683e-21)
(0.728096 0.259846 -8.5295e-19)
(0.538643 0.192931 2.00538e-19)
(0.308231 0.115418 9.56849e-19)
(0.122692 0.0462257 -2.82411e-19)
(0.0103638 0.00249906 5.852e-19)
(-0.0226779 -0.00937431 -4.88548e-20)
(0.458117 0.217268 8.02101e-21)
(1.04856 0.428299 5.6106e-20)
(1.3021 0.533635 -7.88611e-21)
(1.35544 0.581839 7.4565e-20)
(1.33412 0.600627 -1.40743e-19)
(1.27383 0.608366 1.43443e-19)
(1.19853 0.604434 9.41321e-20)
(1.12608 0.588414 2.69577e-19)
(1.05365 0.561878 3.39276e-19)
(0.983966 0.524103 -3.15361e-19)
(0.926351 0.479243 0)
(0.885715 0.434108 -2.17212e-19)
(0.853336 0.390174 2.49382e-19)
(0.808293 0.34282 3.13846e-19)
(0.708026 0.287342 -1.8195e-19)
(0.527616 0.210311 -4.39654e-19)
(0.309626 0.12932 -1.30815e-19)
(0.13197 0.0555687 -2.09923e-21)
(0.0206943 0.00752096 0)
(-0.0174916 -0.00807931 0)
(0.447946 0.235563 -8.42535e-20)
(1.03743 0.470447 0)
(1.29198 0.585565 7.39297e-21)
(1.34382 0.636127 -1.62139e-20)
(1.3211 0.654143 1.62429e-19)
(1.25957 0.659915 -4.03858e-20)
(1.18322 0.653379 9.60438e-20)
(1.10986 0.634141 -1.82055e-19)
(1.03583 0.603674 2.57922e-19)
(0.963126 0.561095 -1.04446e-19)
(0.901131 0.509785 1.69911e-19)
(0.859333 0.462424 6.89833e-19)
(0.827129 0.421089 1.42235e-20)
(0.78034 0.371519 -3.28447e-19)
(0.684248 0.303495 6.05576e-19)
(0.511879 0.229308 2.99311e-21)
(0.306819 0.142647 1.39954e-19)
(0.137655 0.0648405 -6.67e-19)
(0.0287674 0.0126883 6.87255e-19)
(-0.0129282 -0.00655015 -8.09482e-19)
(0.439088 0.252741 4.44131e-23)
(1.02321 0.507681 0)
(1.27908 0.632309 0)
(1.33057 0.686484 1.28863e-21)
(1.3068 0.704599 -4.70246e-20)
(1.2441 0.708777 6.72329e-20)
(1.16687 0.700087 -1.76856e-19)
(1.09242 0.677648 0)
(1.01675 0.643615 -3.80426e-19)
(0.942777 0.597242 4.57701e-19)
(0.881994 0.543762 4.85427e-19)
(0.838983 0.49312 -2.52991e-19)
(0.803565 0.445003 -3.06421e-19)
(0.758827 0.392219 7.18368e-19)
(0.663966 0.330382 -2.15629e-19)
(0.498877 0.245246 -2.56262e-19)
(0.303162 0.155657 -1.53072e-19)
(0.14101 0.073717 -7.21229e-19)
(0.0348917 0.017476 1.05829e-19)
(-0.00914525 -0.00504107 8.7698e-19)
(0.433503 0.269613 -4.15137e-20)
(1.01248 0.546102 -5.39108e-20)
(1.2666 0.679364 2.31787e-20)
(1.31626 0.73537 1.34045e-22)
(1.29136 0.75266 -5.26816e-20)
(1.22771 0.75496 1.0763e-19)
(1.14971 0.743961 0)
(1.07453 0.718977 1.11096e-19)
(0.99786 0.682007 -8.75996e-20)
(0.922267 0.631709 7.65546e-19)
(0.857472 0.572318 -1.09232e-19)
(0.811988 0.519101 1.25787e-19)
(0.777218 0.47359 0)
(0.73172 0.418842 -3.88915e-19)
(0.63943 0.343863 4.70246e-19)
(0.480615 0.262177 0)
(0.295363 0.166985 -3.2947e-19)
(0.141573 0.0810515 9.70006e-19)
(0.038853 0.0214553 1.15283e-19)
(-0.00621175 -0.00371123 -1.08143e-18)
(0.428282 0.287417 -1.03309e-19)
(0.999774 0.580091 1.28713e-19)
(1.25252 0.721577 0)
(1.30118 0.780521 2.21929e-20)
(1.27536 0.797765 0)
(1.21085 0.79846 -1.41264e-19)
(1.1324 0.785541 0)
(1.05677 0.758055 0)
(0.97941 0.718522 -1.16634e-19)
(0.902864 0.665348 -7.27763e-19)
(0.837659 0.604311 -8.97465e-19)
(0.790505 0.547488 1.4705e-19)
(0.754423 0.494222 5.30421e-19)
(0.709293 0.435541 4.28002e-19)
(0.618198 0.368221 -1.50941e-18)
(0.46512 0.274472 -6.02242e-19)
(0.286862 0.176812 3.53252e-19)
(0.139255 0.0868197 0)
(0.0406745 0.0240935 9.91395e-19)
(-0.00411746 -0.0027051 -1.16649e-18)
(0.425003 0.304425 1.23211e-19)
(0.990253 0.615253 -1.49278e-19)
(1.23934 0.763998 0)
(1.28578 0.824251 -1.16493e-20)
(1.25898 0.840658 -2.88664e-21)
(1.19385 0.839524 0)
(1.11522 0.824497 5.55982e-20)
(1.03966 0.795003 7.75851e-20)
(0.961984 0.753547 -2.19161e-19)
(0.883323 0.697539 9.63976e-20)
(0.812711 0.630986 0)
(0.763226 0.570905 6.1122e-19)
(0.726651 0.519296 6.45024e-21)
(0.681301 0.459008 2.30947e-19)
(0.592663 0.376586 2.73682e-19)
(0.44397 0.287495 0)
(0.274937 0.183317 -5.74806e-19)
(0.135124 0.089553 1.12417e-18)
(0.0406381 0.0255188 -1.19993e-18)
(-0.00295743 -0.00201765 2.51335e-18)
(0.422486 0.320779 0)
(0.979348 0.646232 0)
(1.2253 0.801907 -7.44487e-20)
(1.27024 0.864497 0)
(1.24263 0.880782 0)
(1.17705 0.878052 -1.19239e-19)
(1.09866 0.861275 5.70772e-20)
(1.02335 0.829848 1.81372e-20)
(0.944958 0.786647 -5.00369e-20)
(0.864236 0.728705 0)
(0.792306 0.661063 -1.3706e-19)
(0.740421 0.597146 -4.98304e-19)
(0.702056 0.535979 -5.99246e-19)
(0.656655 0.469801 -2.40715e-19)
(0.570208 0.396144 2.96269e-19)
(0.427677 0.293951 -6.97608e-19)
(0.265666 0.187923 1.23412e-18)
(0.132278 0.0902572 1.19185e-21)
(0.0401816 0.0261938 -1.1485e-18)
(-0.00233208 -0.0016661 -1.69545e-19)
(0.421308 0.33606 0)
(0.971399 0.678347 -1.21434e-19)
(1.21244 0.840093 8.95166e-20)
(1.25488 0.903493 0)
(1.22648 0.918905 0)
(1.16069 0.914362 2.39986e-19)
(1.08265 0.895635 0)
(1.00771 0.862649 0)
(0.928711 0.81828 -4.80367e-19)
(0.845446 0.758651 1.33611e-19)
(0.767941 0.686427 -1.21881e-18)
(0.711913 0.618278 0)
(0.670965 0.557424 -6.55098e-19)
(0.626436 0.488682 9.47438e-21)
(0.543213 0.396541 -9.54692e-19)
(0.407353 0.30012 3.75009e-19)
(0.256319 0.18705 1.0919e-21)
(0.131502 0.0890989 -1.29333e-18)
(0.0409229 0.0263464 6.17548e-19)
(-0.00144767 -0.00151074 1.81384e-19)
(0.420578 0.350623 0)
(0.962283 0.706455 -1.65569e-19)
(1.19912 0.874032 9.53701e-20)
(1.23976 0.939247 1.25574e-19)
(1.21068 0.954451 -1.06393e-20)
(1.1448 0.948325 2.63105e-20)
(1.06737 0.927977 -3.38895e-20)
(0.992744 0.89346 4.60738e-19)
(0.912819 0.848005 5.13861e-19)
(0.827409 0.78751 1.01609e-18)
(0.748214 0.715436 1.01265e-18)
(0.687623 0.643668 1.78316e-19)
(0.643954 0.571502 9.41075e-19)
(0.597647 0.492126 5.80248e-19)
(0.517926 0.40854 6.8455e-19)
(0.39237 0.295861 -4.09791e-19)
(0.252732 0.181109 -4.69882e-19)
(0.134902 0.0857279 5.59118e-19)
(0.0469417 0.0256984 -3.32434e-19)
(0.00146667 -0.00132931 5.85946e-19)
(0.420495 0.364406 2.33957e-19)
(0.955677 0.735713 2.59948e-19)
(1.18702 0.908366 5.55251e-20)
(1.22508 0.973956 1.57714e-20)
(1.19533 0.988219 -1.78326e-21)
(1.12951 0.98028 -6.61055e-20)
(1.05265 0.958099 3.29219e-20)
(0.978402 0.922337 -1.92449e-20)
(0.897919 0.876351 -5.97705e-19)
(0.810406 0.815428 -1.10302e-18)
(0.725285 0.740215 7.02757e-20)
(0.659168 0.664474 0)
(0.610447 0.591692 0)
(0.562563 0.50795 -3.03523e-19)
(0.484925 0.397761 -1.12442e-18)
(0.371294 0.289276 8.82276e-19)
(0.251292 0.167837 5.1518e-19)
(0.146553 0.0751793 0)
(0.0662893 0.0222157 1.06678e-18)
(0.0141034 0.000757179 -6.30109e-19)
(0.420404 0.377637 -1.2302e-19)
(0.947867 0.761043 1.09904e-19)
(1.17459 0.938612 -1.31719e-19)
(1.21077 1.00561 -1.0695e-19)
(1.18043 1.01959 -1.65447e-20)
(1.11476 1.01011 -1.9889e-20)
(1.03874 0.986459 0)
(0.964863 0.949475 -5.7998e-19)
(0.883608 0.902923 7.33842e-20)
(0.794213 0.842179 0)
(0.707077 0.768484 0)
(0.635517 0.690967 1.14454e-19)
(0.581757 0.606541 1.52942e-19)
(0.528069 0.506402 -3.29244e-19)
(0.452862 0.402546 8.07094e-19)
(0.348635 0.264874 -9.61024e-19)
(0.249222 0.141304 -1.10724e-18)
(0.175922 0.0479097 9.83295e-19)
(0.139904 0.0122559 -3.81091e-19)
(0.087499 0.0206974 2.2123e-19)
(0.420525 0.390034 1.54474e-19)
(0.942143 0.787518 0)
(1.1633 0.969369 0)
(1.19695 1.03641 -2.89703e-20)
(1.1661 1.04941 2.34553e-20)
(1.10077 1.03817 -1.9253e-20)
(1.02558 1.01286 1.50514e-19)
(0.952179 0.97494 5.9533e-19)
(0.870475 0.928262 1.0832e-18)
(0.77911 0.867868 -8.32353e-20)
(0.686079 0.792488 1.72767e-19)
(0.60889 0.712554 -1.02657e-18)
(0.54764 0.628469 -1.02566e-18)
(0.487954 0.525805 -1.77308e-19)
(0.405402 0.383351 0)
(0.315416 0.249099 -3.34998e-21)
(0.237806 0.0843651 6.11237e-19)
(0.200493 -0.0313593 -1.04722e-18)
(0.154703 -0.0962869 8.01491e-19)
(0.076722 -0.0533967 6.79974e-19)
(0.420342 0.402194 -3.41221e-19)
(0.934854 0.809941 -1.53722e-19)
(1.15147 0.996091 8.45615e-21)
(1.18345 1.06449 6.1135e-20)
(1.15221 1.07731 0)
(1.08725 1.06475 -7.15748e-20)
(1.013 1.03824 -2.16154e-19)
(0.93986 0.999411 -1.80648e-21)
(0.85708 0.952426 -5.67522e-19)
(0.763384 0.892606 -8.17253e-20)
(0.668739 0.820358 7.59078e-20)
(0.586175 0.741547 9.02165e-19)
(0.518216 0.648165 1.00041e-18)
(0.447926 0.525409 1.73322e-19)
(0.364648 0.395237 8.75984e-19)
(0.252381 0.201408 0)
(0.153263 0.0666557 0)
(0.00964612 0.196327 6.8958e-19)
(-0.0443724 0.699464 -1.57641e-20)
(0.00392885 1.67842 -7.83516e-19)
(0.42036 0.413696 1.88701e-19)
(0.929546 0.833952 4.34207e-19)
(1.14073 1.02389 -6.01561e-19)
(1.17037 1.09233 2.98835e-19)
(1.13891 1.10445 -7.76064e-21)
(1.07464 1.09055 -2.41713e-20)
(1.00127 1.06287 0)
(0.928337 1.02361 -4.96078e-19)
(0.844556 0.976862 0)
(0.748396 0.917874 1.1479e-18)
(0.647566 0.845179 -9.34434e-20)
(0.559197 0.765925 1.04779e-19)
(0.482179 0.676203 1.15379e-18)
(0.401882 0.561711 -3.74402e-19)
(0.276334 0.376391 -4.43436e-19)
(0.176559 0.260536 0)
(0.0688679 0.512446 0)
(0.0193724 1.48734 0)
(0.0539106 2.52101 -3.9922e-19)
(0.0656273 2.93075 -2.41023e-19)
(0.419705 0.424713 0)
(0.922753 0.853924 0)
(1.12958 1.04779 2.19737e-19)
(1.15774 1.11755 -2.42168e-19)
(1.12622 1.12984 1.05131e-19)
(1.06269 1.11522 3.17206e-20)
(0.990296 1.087 2.76593e-20)
(0.917176 1.04733 -2.15348e-20)
(0.831645 1.00056 8.04265e-20)
(0.732603 0.942489 -1.31782e-18)
(0.630504 0.874355 1.69097e-19)
(0.536929 0.79938 9.09726e-19)
(0.452373 0.704172 -1.14944e-18)
(0.353437 0.563192 -1.26457e-18)
(0.244413 0.443524 4.23545e-19)
(0.141125 0.661572 0)
(0.0757873 1.73389 5.73803e-19)
(0.090328 2.73515 6.29654e-19)
(0.0952635 3.08858 -7.0961e-19)
(0.0850465 3.21062 7.67906e-19)
(0.419209 0.435251 0)
(0.917927 0.875636 3.83275e-19)
(1.11963 1.07295 -5.46585e-20)
(1.1457 1.14265 3.38749e-19)
(1.11429 1.1545 -1.10353e-19)
(1.05172 1.13905 0)
(0.980061 1.1102 0)
(0.906651 1.07056 0)
(0.819692 1.02435 4.51676e-19)
(0.718293 0.967536 6.0811e-20)
(0.610275 0.899743 0)
(0.51194 0.825994 -9.04005e-19)
(0.418797 0.736482 0)
(0.301861 0.61437 9.00416e-19)
(0.193707 0.696515 -6.1444e-19)
(0.13048 1.57831 -4.87603e-19)
(0.12971 2.73154 -1.11608e-18)
(0.145477 3.1248 -5.97283e-19)
(0.124723 3.24945 -8.42437e-19)
(0.110471 3.2847 7.3315e-19)
(0.417447 0.444497 -1.34781e-19)
(0.911534 0.892996 1.6244e-20)
(1.10929 1.09415 -6.08357e-20)
(1.13418 1.16517 -2.61101e-19)
(1.10303 1.17745 0)
(1.0413 1.16182 0)
(0.970363 1.13301 0)
(0.89629 1.09341 3.44595e-20)
(0.807329 1.04752 -5.71295e-19)
(0.703206 0.991955 0)
(0.595084 0.929643 0)
(0.493261 0.862509 0)
(0.383478 0.760313 0)
(0.307531 0.727461 6.64253e-19)
(0.230414 1.24243 1.63003e-18)
(0.186338 2.52735 4.75971e-19)
(0.200185 3.09744 9.61484e-19)
(0.188292 3.26641 -7.39227e-19)
(0.153421 3.31913 2.61407e-19)
(0.13491 3.33049 0)
(0.415807 0.452881 1.3885e-19)
(0.906324 0.912212 -8.51589e-19)
(1.09974 1.11727 -2.31603e-19)
(1.1231 1.1885 -5.05877e-20)
(1.09241 1.2005 2.60403e-20)
(1.03157 1.18431 -9.55485e-20)
(0.960949 1.15521 -2.19592e-21)
(0.886256 1.11606 -3.77405e-19)
(0.795993 1.07119 0)
(0.690302 1.01746 -7.85229e-20)
(0.577159 0.955925 7.14317e-20)
(0.472424 0.889222 0)
(0.371723 0.822129 0)
(0.29892 0.99222 -8.34169e-19)
(0.224102 1.96856 1.10166e-19)
(0.219876 2.99166 -3.66383e-19)
(0.247879 3.26936 7.83011e-19)
(0.227201 3.35037 5.84743e-19)
(0.175549 3.37064 -8.7736e-19)
(0.156839 3.38041 4.38248e-19)
(0.412871 0.460984 2.72821e-19)
(0.898526 0.927752 8.29342e-19)
(1.08885 1.13768 2.77742e-19)
(1.11186 1.21092 0)
(1.08174 1.2235 0)
(1.02153 1.20724 7.44766e-20)
(0.951268 1.1783 5.91019e-20)
(0.875773 1.13939 3.3613e-19)
(0.783865 1.09518 2.21636e-20)
(0.676128 1.04299 1.00387e-18)
(0.564975 0.987169 -1.19823e-18)
(0.45254 0.92481 0)
(0.380114 0.90712 0)
(0.316393 1.36227 -5.68103e-19)
(0.278225 2.64149 -6.89559e-19)
(0.318785 3.20412 0)
(0.336276 3.33674 -8.75534e-19)
(0.262496 3.38778 -1.09448e-20)
(0.197742 3.42172 5.83157e-19)
(0.174084 3.43905 -2.46738e-19)
(0.410102 0.469697 -5.18211e-19)
(0.892216 0.948249 -3.97908e-19)
(1.07834 1.16269 0)
(1.10022 1.23624 0)
(1.07072 1.2484 0)
(1.01124 1.23123 0)
(0.940963 1.20167 -7.06462e-20)
(0.864961 1.16329 2.88613e-19)
(0.772479 1.1205 0)
(0.664635 1.07068 -9.13561e-19)
(0.549714 1.0152 2.14927e-18)
(0.446345 0.96416 8.77592e-20)
(0.389411 1.05798 1.16392e-19)
(0.341242 1.89973 9.18309e-19)
(0.332639 2.97985 -5.05141e-19)
(0.372433 3.30328 0)
(0.345494 3.39987 2.60395e-19)
(0.265057 3.47212 7.19e-20)
(0.218342 3.51392 4.50343e-20)
(0.18351 3.50729 9.48084e-20)
(0.406302 0.479444 2.45453e-19)
(0.882949 0.964807 -4.04872e-19)
(1.06609 1.18444 0)
(1.08788 1.2604 -7.45459e-20)
(1.05889 1.27326 2.58209e-19)
(0.99983 1.25592 0)
(0.929895 1.22638 0)
(0.853426 1.18815 -4.97454e-19)
(0.760104 1.14621 -5.8023e-20)
(0.651314 1.09808 8.96245e-19)
(0.536203 1.0462 -1.02382e-18)
(0.453706 1.02168 5.92668e-19)
(0.407973 1.29505 0)
(0.376679 2.34299 -4.85714e-19)
(0.399549 3.18678 3.15269e-19)
(0.44828 3.39552 2.19686e-19)
(0.419655 3.47089 0)
(0.362915 3.52138 1.94106e-20)
(0.314893 3.53239 -2.10685e-19)
(0.2354 3.47125 -3.5989e-20)
(0.403082 0.489953 -4.85305e-19)