/*--------------------------------*- C++ -*----------------------------------*\
  =========                 |
  \\      /  F ield         | OpenFOAM: The Open Source CFD Toolbox
   \\    /   O peration     | Website:  https://openfoam.org
    \\  /    A nd           | Version:  6
     \\/     M anipulation  |
\*---------------------------------------------------------------------------*/
FoamFile
{
    version     2.0;
    format      ascii;
    class       surfaceScalarField;
    location    "69";
    object      phi;
}
// * * * * * * * * * * * * * * * * * * * * * * * * * * * * * * * * * * * * * //

dimensions      [0 3 -1 0 0 0 0];

internalField   nonuniform List<scalar> 
1300
(
3.75095
5.62643
-3.33484
3.75095
-7.7622
5.62643
-4.26938
4.26938
-0.408432
0.408432
1.87649
1.87447
-2.42497
2.42497
-1.81331
1.81331
-2.53051
2.53051
-5.24798
5.24798
-5.06915
5.06915
4.70104
-4.70104
-6.33383
6.33383
-0.964445
0.964445
-3.57243
3.57243
3.1725
-3.1725
-1.91061
1.91061
0.0304859
-0.0304859
-0.554085
4.30504
3.19687
3.19687
-1.99169
1.99169
-4.87371
4.87371
6.22199
-6.22199
5.2521
-5.2521
-1.91725
-2.49198
1.80199
-11.5012
-5.96021
-5.96021
-8.44103
8.44103
-2.8146
2.81183
2.94716
-2.94716
-1.72665
1.72665
-4.28506
0.0156815
-4.28506
4.24048
0.0288992
4.24048
-0.50437
0.0959386
-0.50437
3.94277
-3.94277
0.31956
0.0888718
0.31956
3.06727
-3.06727
-1.87686
3.75334
1.8741
-1.87209
6.17713
-1.87886
3.75333
-6.07718
6.07718
-2.67346
0.248487
-2.67346
2.19602
0.228951
2.19602
-6.88851
6.88851
-1.84888
0.0355674
-1.84888
1.82051
-0.00720253
1.82051
2.88793
-2.88793
-2.62772
0.0972099
-2.62772
2.3885
0.142011
2.3885
0.35349
5.27294
-5.97992
8.79175
-5.27294
0.0249641
5.21037
0.0376065
5.21037
-5.10535
0.0361991
-5.10535
5.01376
0.055389
5.01376
4.7908
-0.0897602
4.7908
-4.82016
0.119126
-4.82016
-3.36127
-4.07511
-6.49387
0.160038
-6.49387
-1.03298
0.0685322
-1.03298
0.85684
0.107605
0.85684
-3.72166
3.72166
-3.92909
0.356665
-3.92909
3.12747
0.0450245
3.12747
1.86812
1.88283
5.61908
-5.61908
2.44658
-1.85132
-0.0592897
-1.85132
-1.98225
-3.26985
1.98225
-0.0716436
-0.18722
0.217706
-0.18722
3.15711
0.0397581
3.15711
2.22054
0.167955
-2.22054
0.228859
3.2997
-3.2997
1.32195
0.669731
1.32195
-5.55939
5.55939
4.96162
0.0521435
-4.96162
0.0879053
6.15705
0.0649472
6.15705
-6.20748
-0.0145125
-6.20748
2.48674
-4.97872
-2.6471
6.14704
0.18679
-6.14704
0.186829
2.91871
0.0284521
2.91871
-2.91959
2.91959
-2.98417
0.0370024
-2.98417
-2.14931
0.422663
-2.14931
1.41218
0.314474
1.41218
-4.19917
-0.0858947
-4.19917
-4.08757
0.158477
4.08757
0.152911
1.11688
-1.11688
-0.608026
0.103655
-0.608026
-4.04697
-0.152196
4.04697
-0.1042
-3.88441
-0.058357
-3.88441
-3.02187
0.0377019
3.02187
0.0453992
3.11209
0.0450169
-3.11209
0.0448252
-1.87099
3.75382
-1.87996
3.75406
-5.69444
-0.382742
-5.69444
6.35883
-0.281645
6.35883
3.09998
0.472449
-3.09998
0.42652
2.02649
0.169532
2.02649
-6.86137
-0.0271327
-6.86137
6.89488
-0.00637149
6.89488
1.91415
0.112335
-1.91415
0.0652768
1.83119
-0.0106836
1.83119
2.91553
-0.0276008
2.91553
-2.88172
-0.0062019
-2.88172
2.79207
-2.79207
2.71632
0.0757452
-2.71632
0.088604
-11.1241
11.1096
-0.0362717
-11.0879
5.1741
5.1741
4.24527
0.545522
4.24527
-5.01603
0.195865
-5.01603
2.66448
-5.31158
3.09825
-6.45952
4.67754
-16.1787
4.29739
-8.3725
6.7442
-6.7442
6.62569
0.118511
-6.62569
0.131822
-1.13443
0.101455
-1.13443
-3.12482
-0.596834
-3.12482
4.36505
-0.643394
4.36505
-3.02771
3.02771
-3.07643
0.0487132
3.07643
0.0510459
1.83475
-0.0035551
-1.83475
-0.0165674
0.234007
0.0855527
-0.234007
0.0467876
3.52106
-0.221362
3.52106
-3.09577
-0.203932
-3.09577
-1.22353
0.0890956
1.22353
0.0984267
-5.80719
0.247797
-5.80719
-11.1814
0.0935631
-11.1438
-6.11392
-6.11392
2.32711
11.1189
-2.89706
0.0153388
2.89706
0.0216491
2.97529
0.0524216
-2.97529
0.0557056
-2.85889
0.066816
2.85889
0.0606992
-2.5175
0.368184
-2.5175
-1.0264
1.0264
-1.17478
0.148382
1.17478
0.237398
1.41659
-0.299716
1.41659
0.740128
0.116711
-0.740128
0.132103
-3.8309
-0.0535173
-3.8309
6.59689
-0.238062
6.59689
-2.9669
-0.128862
2.9669
-0.0513766
-0.0349516
11.1446
-5.13915
0.033797
5.13915
-11.2095
11.2433
-3.22338
0.70588
3.22338
1.0219
5.28533
0.274056
-5.28533
0.269307
6.83524
0.0596359
-6.83524
0.0910419
-2.63378
-0.491038
-2.63378
-5.09411
-0.600336
5.09411
-0.729057
-11.4815
-0.203279
11.6848
-11.4261
6.01047
0.14658
-6.01047
11.3899
-0.995244
-0.121635
0.995244
0.0311521
1.75596
-0.339367
1.75596
3.73706
-0.216001
-3.73706
-0.093837
-6.75291
-0.108466
6.75291
-0.156017
-2.18475
-0.449029
2.18475
-0.428793
-4.26738
4.30713
1.90975
-2.33582
-2.6429
-5.60567
1.85525
1.89858
4.30182
-10.1667
-6.01201
-9.97989
7.2151
-6.9458
-9.33001
9.24025
7.92298
-7.98134
-5.77752
5.82856
6.4846
-6.4392
1.87941
1.87393
8.06101
-7.81253
-15.6759
15.2931
7.58387
-7.54831
15.8299
-15.857
-17.878
17.9376
-5.70225
5.79946
-6.74246
6.73626
-6.97897
6.92759
-2.79847
-3.66105
13.1376
-12.9776
8.58265
-8.64194
-8.66741
9.02407
3.3846
0.922535
3.42962
-1.88181
3.76123
-1.87151
3.78127
2.74661
-5.54507
2.56498
-5.20787
4.36549
4.21716
-4.29385
-1.31182
-5.92853
5.95699
-5.80887
5.86957
9.16906
-9.15338
-1.88498
3.75891
-1.86908
3.76766
-3.42308
-2.35444
3.37805
0.923772
8.08018
5.05746
-8.26697
-1.71292
-8.0225
7.8065
-8.21481
8.01088
-0.437117
5.83799
-5.40088
4.43659
-1.6534
7.4914
5.5617
5.75757
5.86081
-5.58675
1.08499
-6.48587
-6.39796
-2.30626
2.40992
2.19671
-2.10784
6.13522
1.78776
6.03102
-5.80188
-2.17946
-5.8554
3.8199
2.00867
3.86861
4.08206
2.40254
4.11976
3.02967
-3.03667
0.00699901
-3.05923
6.0889
0.722235
-5.41367
-4.4899
4.98898
3.07204
5.21793
-5.58823
-2.2243
-5.16171
-9.56733
-6.10853
-10.1677
10.0901
5.20298
9.8085
-11.9646
11.8085
4.87114
2.71274
4.86393
-4.95523
-2.59308
-4.88995
11.6828
-2.64878
-9.03405
-10.3352
-7.54279
10.3416
5.48829
10.9817
6.95596
11.0727
4.43151
7.25131
-9.9198
2.37701
-3.86583
-1.83641
-3.77723
3.65361
2.14585
3.79562
-4.21878
-2.52369
-4.20344
-4.29489
-2.68408
4.32249
2.41377
-4.41655
-3.79826
4.54541
2.38218
4.05637
-10.0684
4.31612
-7.97717
-9.21277
-3.76483
-9.08095
3.54268
2.60064
-6.14332
-2.0024
8.52209
-4.30493
7.21027
-5.20137
-3.44057
-5.21794
-6.95886
-1.70854
-6.80039
-8.93062
8.43958
-9.21054
8.56715
12.5234
-5.64011
-6.88327
-3.96699
-2.47222
3.92216
-0.492544
-3.71005
3.71705
0.0511777
3.83245
4.75498
4.26244
-3.88192
-1.92695
-3.82621
3.82082
2.04875
3.88763
6.84259
2.32647
6.87149
-6.60446
-2.54892
-6.69036
9.10587
-8.68321
2.79144
-2.70235
5.37338
2.6375
-5.15202
-2.87049
6.23782
-3.2079
-3.02992
-12.345
10.7997
1.54529
-4.85363
-0.417031
-0.447517
-5.57121
-3.7588
5.45209
0.305477
11.1052
7.34641
-5.51546
5.76325
6.16932
6.22146
-0.176501
5.89351
-5.18763
5.27228
-2.70672
-2.56556
5.47011
-5.62231
-1.22024
-5.53973
4.31949
0.40871
1.52167
-1.30396
-1.79673
-0.509537
-1.66462
1.22488
0.971834
1.31043
0.94384
1.46608
-2.92377
0.545821
2.37795
-1.97993
-1.56202
-3.79658
-1.15268
4.94926
5.72645
2.08005
-5.63262
-0.22278
2.57328
-2.46568
-0.817595
-2.97899
2.23265
-3.05024
-3.47512
-1.93305
5.40817
-3.36863
-0.457579
3.31621
0.552399
-3.82809
-2.10044
3.79109
0.328672
-3.12883
6.19026
-3.06142
-5.05579
2.52895
3.55995
4.53762
-4.79
2.44913
2.34087
-1.23005
4.26014
0.957792
4.42967
-7.06074
4.83644
5.73076
3.29331
-6.20321
1.04151
-6.01923
8.54939
-7.39698
-1.15242
4.09869
4.4507
7.01941
5.50398
-5.70936
12.7288
-1.16011
-6.23686
7.17934
-3.88603
4.86587
-8.75191
-10.3699
4.13299
-9.20414
11.0682
-1.86404
-3.60901
-8.35555
12.8132
-1.21488
-11.5983
8.59361
-4.33043
-4.38454
8.71498
-6.97921
6.97762
-2.00126
-4.97636
-10.1515
-5.70551
10.2599
1.5486
-9.93664
12.3136
-2.68532
4.1605
0.70343
4.14982
3.35761
-5.48039
2.12277
3.6216
-5.62286
2.06274
-7.54313
-6.75905
12.1004
-5.34132
-10.5239
-9.55226
-0.971622
2.55264
9.76101
-9.50859
7.44199
2.0666
3.29699
0.590645
-3.37273
-0.404498
0.239891
4.51004
-4.74993
4.03551
4.20346
3.21713
1.29292
3.84928
2.1077
-3.87093
-0.33251
-4.16836
1.48427
-1.75458
-3.69384
5.17811
-4.06172
0.367881
-2.74548
-3.49168
6.23716
-4.5819
3.03641
3.15385
5.08516
-4.9127
1.42102
-2.39046
-2.52224
2.6407
-4.39528
2.00032
3.17779
4.3825
0.584243
5.90728
6.19309
-8.50792
0.530749
11.2505
-9.53763
2.48006
8.59265
-9.92205
0.369792
-8.71116
0.977429
-5.28236
-5.16589
5.21893
-6.92747
-3.53298
6.24643
0.625053
-6.39934
-0.401044
-6.06831
-2.8623
-6.51734
-3.04487
-6.16567
-8.75423
-1.67708
-7.07715
6.7625
-6.7114
-3.45626
7.44045
1.12669
-7.48175
7.36011
-7.54053
7.20116
0.094889
3.62216
4.35733
1.88511
-2.39211
4.27721
-5.06996
7.39644
-8.73558
3.66561
4.2291
-6.77802
-4.50647
5.06113
4.04474
5.3756
8.92535
-10.3803
1.45492
-10.6546
11.9941
-1.33944
-16.436
5.78131
-7.51061
2.42989
0.361551
2.53135
0.547312
2.50736
-3.05467
-2.15504
-2.05661
-2.44135
-3.49546
5.93681
1.0655
-3.46972
2.40422
-3.57333
4.63883
-0.0669153
-3.40281
5.19857
-2.69122
5.56012
-3.64024
1.91988
3.5466
5.84416
-2.29756
4.42217
-1.78467
1.94377
-4.24133
-1.55168
-2.95345
5.09931
-3.28371
3.65159
-0.349373
4.00096
-4.04183
0.833927
-0.824702
3.37876
3.60762
4.3345
-3.04158
2.93675
-4.72142
-1.30458
-4.13717
-0.959384
-0.185503
-3.78595
3.97145
6.00761
-6.19311
-5.28412
9.52775
-4.24363
7.70564
-5.44127
-2.26436
-4.29374
-4.38947
3.92555
1.96796
9.67359
0.179517
-5.62079
-5.00811
-3.98622
3.09451
2.17777
-1.75112
3.29641
2.19864
-0.67697
0.394625
0.915804
1.76709
-1.37246
0.341373
1.42571
-0.962592
1.71463
0.858658
-1.83134
0.166714
-1.29084
3.52348
1.08711
-2.05895
0.686488
0.893027
-3.59974
5.07467
-2.72249
-2.35218
5.9677
1.14577
-3.86826
4.39396
-3.98525
2.43999
-3.59266
-1.42827
-5.41353
-3.62576
-2.48879
4.89301
-3.44802
5.52807
1.41788
-5.30529
6.72317
-3.63064
1.69758
-3.06228
3.92094
-1.0082
-2.05408
2.88221
2.52597
-3.12773
0.148744
-0.245524
2.42194
-2.66746
-0.628302
-2.60823
-4.57596
4.90463
-2.1038
4.55293
2.17342
-1.91752
6.47045
1.80775
-3.72527
-3.24803
-3.70561
-1.3844
3.15322
-0.598871
-4.29108
-5.57523
4.17875
0.250922
-7.06103
7.92664
-0.865604
-3.989
-0.847443
4.94613
-6.09982
0.476957
-4.03707
3.88956
4.84735
5.09827
-11.3626
-0.235674
-6.15962
1.11161
-7.27123
5.56231
-3.51033
7.64332
-10.3451
6.88886
-9.21843
6.49091
-0.780321
6.2556
-4.13282
2.77845
-8.48396
-6.93536
5.54272
-2.82998
6.24615
-3.19967
9.44582
-5.88499
5.33589
4.10992
-1.04671
-4.17123
-5.31093
4.26422
0.0249616
4.17478
4.98703
-2.87932
4.65452
2.26445
-4.65491
-2.13083
-6.48774
1.83283
-3.33389
-1.9221
3.75494
3.16306
3.7537
1.23269
-3.3492
7.23749
-8.20911
-1.89617
-3.26972
5.28882
-1.0246
3.4341
-6.70382
-1.84826
4.74982
-0.72757
-4.02225
0.890296
-4.42328
1.67077
-6.09405
5.2567
-5.65774
2.25459
-9.7652
-5.22716
-5.19601
-2.27984
-5.26069
-7.58102
5.30118
-1.7997
5.56041
-8.52044
7.79287
-3.47365
8.77483
-5.46338
-1.05396
5.89218
1.30899
10.0838
0.158627
-4.6651
-1.93857
3.73934
-1.80077
1.15594
-3.62732
0.112015
2.48782
3.47988
-6.80731
0.0292844
-4.63581
-3.91102
7.95576
5.61674
11.6243
1.24407
9.14307
-1.18732
10.3871
4.18829
4.42568
-3.00888
4.46381
0.962571
4.62818
-0.898213
2.81809
1.63314
1.70167
0.764012
2.30368
1.30394
3.13761
0.0829376
-1.97367
4.63533
-8.62154
-0.985463
-8.07602
1.16424
5.42912
-4.26488
2.88256
-0.704787
1.08179
-0.162856
-1.22764
1.39049
-2.72842
-1.90461
-0.478894
-1.64971
2.33619
1.87378
-1.8573
-0.871117
0.332686
-3.95845
3.25998
-3.11123
-0.585267
6.13791
-2.89259
0.225126
-1.19501
-2.38311
-2.89264
2.72593
6.17421
0.296238
3.11279
5.20087
3.10043
0.221103
3.8178
-5.68184
-3.72533
-5.91751
-0.355196
4.59094
1.75002
8.01099
5.85995
4.83534
-1.86848
-10.0776
6.50941
-2.0456
5.16996
-1.14772
-4.94633
5.07223
2.32421
-5.69728
0.0395408
-4.90679
-6.95239
-0.480849
8.27372
-9.60297
8.54901
5.68671
1.39044
-4.4392
-0.756806
4.29082
0.134862
10.522
-0.910553
-7.06365
7.9742
-4.51857
3.5331
0.678694
2.61772
2.06919
1.3644
-5.69925
-9.96413
-2.05917
-1.54057
-4.41135
0.537909
-2.41169
6.074
-2.54089
3.80963
5.4333
6.51509
-2.04915
-4.14396
6.29277
-2.48314
4.03195
)
;

boundaryField
{
    wall-4
    {
        type            calculated;
        value           uniform 0;
    }
    velocity-inlet-5
    {
        type            calculated;
        value           uniform -3.75095;
    }
    velocity-inlet-6
    {
        type            calculated;
        value           uniform -5.62643;
    }
    pressure-outlet-7
    {
        type            calculated;
        value           nonuniform List<scalar> 8(3.33484 7.7622 4.40924 9.69919 7.43638 5.13383 5.76273 8.97492);
    }
    wall-8
    {
        type            calculated;
        value           uniform 0;
    }
    frontAndBackPlanes
    {
        type            empty;
        value           nonuniform 0();
    }
}


// ************************************************************************* //
