/*--------------------------------*- C++ -*----------------------------------*\
  =========                 |
  \\      /  F ield         | OpenFOAM: The Open Source CFD Toolbox
   \\    /   O peration     | Website:  https://openfoam.org
    \\  /    A nd           | Version:  6
     \\/     M anipulation  |
\*---------------------------------------------------------------------------*/
FoamFile
{
    version     2.0;
    format      ascii;
    class       volScalarField;
    location    "0.5";
    object      T;
}
// * * * * * * * * * * * * * * * * * * * * * * * * * * * * * * * * * * * * * //

dimensions      [0 0 0 1 0 0 0];

internalField   nonuniform List<scalar> 
5250
(
1
1
1
1
1.00001
1.00002
1.00007
1.00013
1.00041
1.00075
1.00236
1.00469
1.01296
1.03187
1.07507
1.22224
1.53832
2.53941
2.97876
2.75774
2.96914
3.02122
3.06818
3.15532
3.3981
1
1
1
1
1.00001
1.00002
1.00007
1.00013
1.00041
1.00075
1.00235
1.00465
1.01287
1.03158
1.0744
1.22005
1.53221
2.52924
2.97191
2.7576
2.9736
3.01997
3.06599
3.15087
3.391
1
1
1
1
1.00001
1.00002
1.00007
1.00012
1.0004
1.00074
1.00232
1.00458
1.01267
1.03095
1.07294
1.21518
1.51846
2.50421
2.95622
2.75872
2.97759
3.01763
3.06283
3.14746
3.38341
1
1
1
1
1.00001
1.00002
1.00007
1.00012
1.00039
1.00072
1.00226
1.00446
1.01235
1.02992
1.07061
1.20736
1.49622
2.46178
2.93033
2.76048
2.98092
3.01287
3.05627
3.1401
3.37577
1
1
1
1
1.00001
1.00002
1.00007
1.00012
1.00038
1.0007
1.00219
1.00429
1.01194
1.02853
1.06747
1.19675
1.46596
2.40107
2.89172
2.76267
2.98524
3.00636
3.04592
3.12784
3.36058
1
1
1
1
1.00001
1.00002
1.00006
1.00011
1.00037
1.00067
1.00212
1.0041
1.01149
1.02689
1.06383
1.1842
1.43001
2.32424
2.83273
2.76612
2.99169
2.99593
3.02905
3.10694
3.34483
1
1
1
1
1.00001
1.00002
1.00006
1.00011
1.00036
1.00064
1.00203
1.0039
1.01106
1.02528
1.06046
1.17137
1.39404
2.22647
2.75744
2.76949
3.00137
2.98337
3.01158
3.08206
3.30824
1
1
1
1
1.00001
1.00002
1.00006
1.0001
1.00034
1.00061
1.00194
1.00369
1.01059
1.02387
1.05756
1.16083
1.3692
2.13893
2.72362
2.78268
2.99628
2.95977
2.98018
3.04548
3.26796
1
1
1
1
1.00001
1.00002
1.00005
1.00009
1.00031
1.00057
1.00182
1.00345
1.01009
1.02235
1.05463
1.15026
1.34766
2.05775
2.70412
2.79389
2.96397
2.93503
2.94285
2.98247
3.16379
1
1
1
1
1.00001
1.00001
1.00005
1.00008
1.00028
1.00051
1.00162
1.00316
1.00896
1.02083
1.05009
1.14183
1.32389
1.94717
2.67861
2.81269
2.92834
2.89932
2.89671
2.91735
3.05225
1
1
1
1
1
1.00002
1.00003
1.0001
1.00019
1.00061
1.00116
1.00363
1.00729
1.02064
1.0479
1.12146
1.31357
1.96936
2.59365
2.81957
2.89673
2.84581
2.81596
2.79097
2.79787
1
1
1
1
1
1.00001
1.00003
1.00009
1.00016
1.00054
1.00103
1.00329
1.00651
1.01933
1.04204
1.11564
1.27414
1.95731
2.45353
2.78742
2.84708
2.79528
2.731
2.65998
2.65175
1
1
1
1
1
1.00001
1.00003
1.00005
1.00017
1.00032
1.00106
1.00209
1.00635
1.0146
1.03674
1.10335
1.23566
1.7659
2.42754
2.76766
2.80718
2.7787
2.68022
2.55744
2.52503
1
1
1
1
1
1.00001
1.00002
1.00004
1.00014
1.00026
1.00087
1.00169
1.00539
1.01144
1.03202
1.08239
1.20164
1.59906
2.31361
2.76276
2.80067
2.77238
2.62801
2.50531
2.44265
1
1
1
1
1
1.00001
1.00002
1.00003
1.00011
1.0002
1.00066
1.00127
1.0039
1.00879
1.02333
1.06539
1.14833
1.47486
2.06761
2.75023
2.8083
2.74932
2.59329
2.49549
2.42596
1
1
1
1
1
1
1.00001
1.00002
1.00008
1.00015
1.0005
1.00094
1.00304
1.00614
1.01786
1.04463
1.10588
1.32619
1.80301
2.65916
2.76019
2.673
2.56514
2.48734
2.42879
1
1
1
1
1
1
1.00001
1.00002
1.00006
1.00011
1.00037
1.00069
1.00223
1.00449
1.01295
1.03189
1.07753
1.22758
1.57844
2.34979
2.64033
2.59841
2.53426
2.47544
2.43353
1
1
1
1
1
1
1.00001
1.00001
1.00004
1.00008
1.00026
1.00048
1.00156
1.00308
1.00935
1.02142
1.05627
1.15352
1.40267
2.0197
2.55622
2.55521
2.51016
2.45253
2.42188
1
1
1
1
1
1
1
1.00001
1.00003
1.00005
1.00017
1.00031
1.00102
1.00196
1.00606
1.01306
1.03606
1.09344
1.24142
1.62424
2.37643
2.46309
2.44716
2.40631
2.37304
1
1
1
1
1
1
1
1.00001
1.00002
1.00003
1.00011
1.00021
1.00068
1.00128
1.00405
1.00844
1.0228
1.06131
1.13779
1.43234
2.05602
2.38094
2.40844
2.38907
2.35938
1
1
1
1
1
1
1
1
1.00001
1.00002
1.00007
1.00013
1.00044
1.00081
1.00262
1.0051
1.01536
1.03335
1.09064
1.22477
1.67936
2.18159
2.31828
2.33864
2.32562
1
1
1
1
1
1
1
1
1.00001
1.00001
1.00004
1.00008
1.00026
1.00049
1.00158
1.00309
1.00915
1.02055
1.0525
1.13935
1.35187
1.88829
2.19283
2.28206
2.2803
1
1
1
1
1
1
1
1
1
1.00001
1.00002
1.00004
1.00015
1.00028
1.00092
1.00171
1.00544
1.01103
1.03056
1.07549
1.18556
1.47926
2.00244
2.14824
2.21347
1
1
1
1
1
1
1
1
1
1
1.00001
1.00002
1.00008
1.00015
1.0005
1.00096
1.00298
1.00621
1.0169
1.04318
1.0992
1.2899
1.73393
2.05636
2.14739
1
1
1
1
1
1
1
1
1
1
1.00001
1.00002
1.00003
1.0001
1.0002
1.00062
1.00126
1.00365
1.00839
1.02153
1.05907
1.13143
1.38391
1.83248
2.03394
1
1
1
1
1
1
1
1
1
1
1
1.00001
1.00002
1.00005
1.0001
1.00034
1.00065
1.00213
1.00413
1.01257
1.02656
1.07292
1.17168
1.52895
1.83201
1
1
1
1
1
1
1
1
1
1
1
1
1.00001
1.00002
1.00006
1.00012
1.00039
1.00078
1.00234
1.00526
1.01338
1.03661
1.07974
1.24077
1.57293
1
1
1
1
1
1
1
1
1
1
1
1
1
1.00001
1.00003
1.00005
1.00018
1.00035
1.00117
1.00229
1.00728
1.01508
1.04504
1.09912
1.31946
1
1
1
1
1
1
1
1
1
1
1
1
1
1
1.00001
1.00003
1.00006
1.00019
1.00038
1.0012
1.00254
1.00771
1.01691
1.04925
1.10967
1
1
1
1
1
1
1
1
1
1
1
1
1
1
1
1.00001
1.00003
1.00006
1.00019
1.0004
1.00123
1.00265
1.00795
1.01765
1.05016
1
1
1
1
1
1
1
1
1
1
1
1
1
1
1
1
1.00001
1.00003
1.00006
1.00019
1.00039
1.00122
1.00261
1.0078
1.01751
1
1
1
1
1
1
1
1
1
1
1
1
1
1
1
1
1
1.00001
1.00002
1.00007
1.00014
1.00046
1.00093
1.00291
1.00636
1
1
1
1
1
1
1
1
1
1
1
1
1
1
1
1
1
1
1.00001
1.00003
1.00005
1.00016
1.00032
1.00106
1.00214
1
1
1
1
1
1
1
1
1
1
1
1
1
1
1
1
1
1
1
1.00001
1.00002
1.00004
1.00013
1.00027
1.00083
1
1
1
1
1
1
1
1
1
1
1
1
1
1
1
1
1
1
1
1
1
1.00001
1.00003
1.0001
1.00021
1
1
1
1
1
1
1
1
1
1
1
1
1
1
1
1
1
1
1
1
1
1
1.00001
1.00002
1.00007
1
1
1
1
1
1
1
1
1
1
1
1
1
1
1
1
1
1
1
1
1
1
1
1.00001
1.00002
1
1
1
1
1
1
1
1
1
1
1
1
1
1
1
1
1
1
1
1
1
1
1
1
1
1
1
1
1
1
1
1
1
1
1
1
1
1
1
1
1
1
1
1
1
1
1
1
1
1
1
1
1
1
1
1
1
1
1
1
1
1
1
1
1
1
1
1
1
1
1
1
1
1
1
1
1
1
1
1
1
1
1
1
1
1
1
1
1
1
1
1
1
1
1
1
1
1
1
1
1
1
1
1
1
1
1
1
1
1
1
1
1
1
1
1
1
1
1
1
1
1
1
1
1
1
1
1
1
1
1
1
1
1
1
1
1
1
1
1
1
1
1
1
1
1
1
1
1
1
1
1
1
1
1
1
1
1
1
1
1
1
1
1
1
1
1
1
1
1
1
1
1
1
1
1
1
1
1
1
1
1
1
1
1
1
1
1
1
1
1
1
1
1
1
1
1
1
1
1
1
1
1
1
1
1
1
1
1
1
1
1
1
1
1
1
1
1
1
1
1
1
1
1
1
1
1
1
1
1
1
1
1
1
1
1
1
1
1
1
1
1
1
1
1
1
1
1
1
1
1
1
1
1
1
1
1
1
1
1
1
1
1
1
1
1
1
1
1
1
1
1
1
1
1
1
1
1
1
1
1
1
1
1
1
1
1
1
1
1
1
1
1
1
1
1
1
1
1
1
1
1
1
1
1
1
1
1
1
1
1
1
1
1
1
1
1
1
1
1
1
1
1
1
1
2.74949
2.61915
2.52947
2.50945
2.56902
2.60989
2.69054
2.7208
2.78234
2.79324
2.78927
2.78464
2.76915
2.74311
2.71743
2.69568
2.67542
2.65005
2.61621
2.57585
2.53441
2.49755
2.46868
2.45045
2.44478
2.44654
2.45631
2.48235
2.52369
2.5685
2.61165
2.64881
2.67749
2.69573
2.70204
2.70071
2.69158
2.66673
2.6297
2.58976
2.54482
2.49191
2.42973
2.35854
2.27899
2.19032
2.09348
1.99103
1.88636
1.78298
1.6839
1.59129
1.50653
1.43037
1.36303
1.30438
1.25397
1.2112
1.17542
1.14592
1.12199
1.1029
1.08799
1.07663
1.06814
1.06186
1.05715
1.05344
1.05023
1.04713
1.04389
1.04034
1.03647
1.0324
1.02839
1.0248
1.02173
1.01903
1.01639
1.01346
1.01027
1.00686
1.0035
1.00125
0.999877
0.999138
0.998825
0.998763
0.998807
0.998972
0.99921
0.99941
0.999569
0.999693
0.999786
0.999854
0.999903
0.999937
0.999961
0.999973
2.61826
2.546
2.48706
2.44974
2.42927
2.39248
2.34185
2.29278
2.29318
2.29962
2.31506
2.32424
2.32376
2.32
2.30804
2.28992
2.27001
2.24863
2.22398
2.19472
2.1619
2.12921
2.1008
2.07969
2.06737
2.06343
2.06422
2.06968
2.08512
2.11348
2.14692
2.18221
2.21584
2.24399
2.26426
2.27568
2.27843
2.27663
2.26889
2.25149
2.22757
2.1964
2.15689
2.10999
2.05712
1.99754
1.93113
1.85894
1.78291
1.70543
1.62895
1.55555
1.48667
1.42315
1.3653
1.31313
1.26652
1.2253
1.18926
1.15821
1.13188
1.10988
1.09179
1.07711
1.06536
1.05611
1.04892
1.04331
1.03882
1.03498
1.03143
1.02795
1.02448
1.02113
1.0181
1.0156
1.01365
1.01207
1.01054
1.00893
1.00622
1.00288
1.00048
0.998968
0.998155
0.997834
0.997797
0.997898
0.998205
0.998591
0.998922
0.999194
0.99941
0.999577
0.999702
0.999795
0.999861
0.999908
0.99994
0.999959
2.51161
2.47974
2.42313
2.34694
2.26034
2.18235
2.12164
2.08218
2.07506
2.07868
2.0873
2.09687
2.0998
2.09783
2.09322
2.0877
2.07697
2.06273
2.04653
2.02894
2.00896
1.98658
1.96374
1.94348
1.92855
1.92084
1.91947
1.92101
1.92742
1.94345
1.96962
2.00009
2.03192
2.06155
2.08564
2.10179
2.10913
2.10991
2.10746
2.09847
2.07974
2.05362
2.01943
1.97809
1.93094
1.87767
1.81843
1.75426
1.68696
1.61861
1.55127
1.48658
1.42574
1.36947
1.3181
1.27164
1.22996
1.19289
1.16026
1.13195
1.10782
1.08768
1.07123
1.05812
1.04789
1.04011
1.03433
1.03013
1.02703
1.02462
1.02248
1.02033
1.01808
1.01581
1.01376
1.01215
1.01101
1.01012
1.00923
1.00803
1.00531
1.0022
1.00005
0.998712
0.998013
0.997761
0.997757
0.997891
0.998246
0.998633
0.998958
0.999224
0.999434
0.999596
0.999717
0.999807
0.99987
0.999914
0.999945
0.999963
2.41044
2.38275
2.33129
2.26304
2.18749
2.12163
2.06728
2.03318
2.01177
1.99651
1.98206
1.96939
1.95947
1.9554
1.95377
1.95249
1.94987
1.94612
1.9397
1.92711
1.9112
1.89347
1.87516
1.85801
1.84428
1.83639
1.83456
1.83559
1.84033
1.85295
1.87649
1.90358
1.92992
1.95202
1.96742
1.97414
1.97411
1.96995
1.95701
1.93721
1.91621
1.89084
1.85819
1.81802
1.772
1.72072
1.66502
1.60656
1.54722
1.48882
1.43291
1.38053
1.33229
1.28841
1.24886
1.21344
1.18195
1.15407
1.12954
1.10811
1.08959
1.07386
1.06079
1.0502
1.04186
1.03544
1.03056
1.02685
1.02395
1.02155
1.0194
1.01729
1.01512
1.01294
1.01096
1.00945
1.00844
1.00783
1.00715
1.00559
1.00294
1.00043
0.998695
0.997683
0.997234
0.997146
0.99723
0.99755
0.99804
0.998473
0.998836
0.999132
0.999366
0.999546
0.999681
0.99978
0.999851
0.999901
0.999935
0.999956
2.37138
2.32619
2.2789
2.22502
2.16794
2.1134
2.06298
2.02007
1.97925
1.9414
1.9092
1.88487
1.8702
1.86886
1.87069
1.87471
1.87589
1.87492
1.87122
1.86273
1.85018
1.83539
1.81941
1.80337
1.78902
1.77949
1.77665
1.7774
1.78151
1.79273
1.81266
1.83335
1.85107
1.8633
1.86795
1.86719
1.86102
1.84374
1.81751
1.79208
1.76677
1.73854
1.70518
1.66679
1.62459
1.57942
1.53245
1.48488
1.43783
1.3923
1.34909
1.30868
1.27134
1.2371
1.2059
1.17764
1.15219
1.12943
1.10918
1.09129
1.07563
1.06211
1.05068
1.04132
1.03391
1.02828
1.02412
1.02108
1.01878
1.01689
1.01517
1.01344
1.01167
1.00999
1.00854
1.00754
1.00702
1.00679
1.0062
1.00479
1.00232
0.999949
0.998362
0.997481
0.997125
0.997086
0.997216
0.997613
0.998107
0.998532
0.998886
0.999172
0.999397
0.99957
0.999699
0.999794
0.999861
0.999908
0.999941
0.99996
2.37155
2.3165
2.2606
2.20564
2.15022
2.09715
2.04599
1.99422
1.94434
1.90034
1.86551
1.84167
1.82808
1.82257
1.82289
1.82401
1.82379
1.82215
1.81883
1.81335
1.80367
1.78967
1.77326
1.7562
1.74039
1.72954
1.72617
1.72688
1.73084
1.74128
1.75625
1.76972
1.77853
1.78094
1.77947
1.77229
1.75406
1.72496
1.69365
1.66473
1.6384
1.61162
1.58138
1.54714
1.51055
1.47241
1.43367
1.39511
1.35732
1.32079
1.28598
1.25329
1.22298
1.19512
1.16967
1.14653
1.12569
1.10707
1.09058
1.0761
1.06348
1.05255
1.04326
1.03559
1.02949
1.02485
1.02145
1.01896
1.01703
1.01539
1.0138
1.01214
1.0104
1.00867
1.0072
1.00635
1.00592
1.00552
1.00496
1.00379
1.00139
0.999073
0.997636
0.996921
0.996699
0.996732
0.99697
0.997504
0.998022
0.998468
0.998837
0.999136
0.99937
0.99955
0.999684
0.999783
0.999853
0.999902
0.999936
0.999956
2.3828
2.32393
2.26261
2.20183
2.14069
2.07942
2.01991
1.96452
1.91674
1.87828
1.8479
1.82677
1.81176
1.80134
1.79409
1.78922
1.78437
1.77835
1.77211
1.76505
1.75498
1.74115
1.72502
1.70837
1.69367
1.68419
1.68135
1.68192
1.68515
1.69326
1.70283
1.70933
1.71094
1.70935
1.70223
1.68474
1.65807
1.6269
1.59482
1.5657
1.5394
1.51333
1.48492
1.45389
1.42145
1.38844
1.35566
1.32377
1.29309
1.2638
1.23599
1.20979
1.18538
1.16286
1.1422
1.1233
1.10609
1.0906
1.07682
1.06475
1.05426
1.04518
1.03741
1.03088
1.02558
1.02149
1.01847
1.0163
1.01466
1.01322
1.01173
1.01011
1.00844
1.00692
1.00587
1.00549
1.00504
1.00479
1.00423
1.00306
1.0005
0.998484
0.997279
0.996721
0.99659
0.99667
0.997007
0.997576
0.998088
0.998525
0.998885
0.999174
0.9994
0.999573
0.999701
0.999795
0.999862
0.999909
0.999941
0.999959
2.38484
2.32819
2.26169
2.19137
2.1214
2.05562
1.99703
1.94745
1.90696
1.87427
1.84796
1.82765
1.81305
1.80181
1.79112
1.78018
1.76957
1.75816
1.74544
1.73252
1.71879
1.70302
1.68532
1.66776
1.6535
1.64547
1.6434
1.64391
1.64654
1.65236
1.65606
1.65621
1.65377
1.64522
1.62659
1.60204
1.57474
1.54492
1.51408
1.48542
1.45985
1.43551
1.40967
1.38151
1.35243
1.32351
1.2953
1.26835
1.24287
1.21888
1.19631
1.17506
1.1552
1.13674
1.11971
1.10408
1.08976
1.07677
1.06516
1.05499
1.04625
1.03881
1.0325
1.02721
1.02288
1.01949
1.01697
1.01513
1.01374
1.01248
1.0111
1.00948
1.00774
1.00632
1.0057
1.00505
1.00472
1.00444
1.00372
1.00206
0.999569
0.997837
0.996849
0.996436
0.996385
0.996529
0.996982
0.997574
0.998091
0.998529
0.998889
0.999177
0.999402
0.999574
0.999701
0.999795
0.999861
0.999908
0.99994
0.999958
2.35582
2.32105
2.25523
2.17669
2.10181
2.03715
1.9847
1.94286
1.90856
1.88059
1.85987
1.8439
1.83056
1.81748
1.80287
1.78633
1.76775
1.74875
1.72995
1.71038
1.69014
1.66983
1.64946
1.63012
1.61527
1.60743
1.60544
1.60573
1.60744
1.60941
1.60919
1.6065
1.59813
1.58061
1.55828
1.53384
1.50728
1.47869
1.44914
1.42165
1.39695
1.37328
1.34887
1.32292
1.29656
1.27093
1.24636
1.22327
1.20175
1.18178
1.1633
1.14618
1.13033
1.11549
1.1016
1.0887
1.07682
1.06594
1.05608
1.04734
1.03984
1.03357
1.0284
1.02416
1.02068
1.01786
1.01561
1.01386
1.01248
1.0113
1.01003
1.00856
1.00704
1.00604
1.00513
1.00445
1.00423
1.00395
1.0032
1.00113
0.998854
0.997358
0.996558
0.996277
0.996294
0.99652
0.997076
0.997661
0.998167
0.998593
0.998941
0.999218
0.999434
0.999598
0.999719
0.999808
0.99987
0.999914
0.999944
0.999962
2.34071
2.3011
2.23613
2.16417
2.09297
2.0326
1.9846
1.94677
1.91863
1.89825
1.88281
1.86893
1.85395
1.8365
1.81563
1.79354
1.76992
1.74644
1.72234
1.6981
1.67276
1.64758
1.62368
1.603
1.58702
1.57639
1.57144
1.57013
1.56933
1.56742
1.56299
1.55385
1.53932
1.51974
1.49715
1.47323
1.44812
1.42122
1.39364
1.36759
1.34393
1.32149
1.29873
1.27515
1.25161
1.22906
1.20755
1.18735
1.16887
1.1524
1.13724
1.12332
1.11025
1.09793
1.08651
1.07595
1.06612
1.05695
1.04853
1.04095
1.03436
1.02889
1.02461
1.02128
1.01869
1.01657
1.01475
1.01313
1.01172
1.01046
1.00929
1.00809
1.00714
1.0062
1.00491
1.00427
1.00404
1.00367
1.00272
1.00043
0.998293
0.996966
0.996321
0.996153
0.996223
0.996551
0.997168
0.997738
0.998232
0.998645
0.998981
0.999249
0.999456
0.999613
0.99973
0.999815
0.999875
0.999917
0.999946
0.999962
2.31278
2.28602
2.22824
2.15254
2.08704
2.0304
1.98682
1.95591
1.93419
1.91779
1.90284
1.88659
1.86738
1.84503
1.82011
1.79439
1.76857
1.74325
1.71713
1.68993
1.66243
1.63355
1.60733
1.58402
1.56568
1.55297
1.54428
1.53827
1.53331
1.52654
1.51598
1.5021
1.48471
1.46415
1.44079
1.41708
1.39356
1.36918
1.34422
1.32021
1.29791
1.27669
1.25561
1.23442
1.21389
1.19398
1.17503
1.15766
1.14219
1.12837
1.11589
1.10468
1.09443
1.08464
1.07522
1.06626
1.05783
1.05012
1.04312
1.03688
1.03109
1.02602
1.02216
1.01943
1.01743
1.01587
1.0144
1.0129
1.01131
1.00979
1.00849
1.00759
1.00698
1.00567
1.00467
1.00414
1.00388
1.00346
1.00232
0.999842
0.997809
0.99666
0.996174
0.996105
0.996235
0.996675
0.9973
0.997854
0.998328
0.998723
0.999043
0.999296
0.999492
0.99964
0.999749
0.999828
0.999884
0.999923
0.99995
0.999965
2.26952
2.24813
2.20758
2.14227
2.07799
2.02664
1.98706
1.95837
1.93795
1.92223
1.90735
1.89029
1.86963
1.8456
1.81951
1.79277
1.76646
1.7402
1.71391
1.68587
1.65642
1.62736
1.59887
1.57395
1.55285
1.53622
1.52345
1.5123
1.50135
1.48929
1.47424
1.45654
1.43634
1.4147
1.39176
1.368
1.34502
1.32267
1.30044
1.27818
1.25664
1.23619
1.21707
1.19849
1.18078
1.1635
1.14713
1.1325
1.11968
1.10845
1.09841
1.08942
1.08108
1.07335
1.066
1.05876
1.05144
1.04474
1.03872
1.0336
1.02927
1.02512
1.02137
1.01884
1.01721
1.01605
1.01495
1.01358
1.01187
1.01005
1.00858
1.00776
1.00644
1.00534
1.00477
1.00453
1.0043
1.00361
1.0019
0.999157
0.997395
0.996478
0.996146
0.996143
0.996331
0.996854
0.997456
0.997984
0.998433
0.998806
0.999107
0.999344
0.999527
0.999665
0.999766
0.99984
0.999892
0.999928
0.999954
0.999967
2.21477
2.21096
2.18617
2.12588
2.06043
2.01014
1.97717
1.95362
1.93491
1.91842
1.90137
1.88195
1.85974
1.83499
1.80931
1.7838
1.75933
1.73509
1.70996
1.68309
1.65424
1.62455
1.5957
1.56937
1.54605
1.52583
1.50851
1.49169
1.47473
1.45691
1.43698
1.41592
1.39365
1.37065
1.34772
1.3253
1.30264
1.28051
1.25991
1.23962
1.21906
1.19891
1.18063
1.16403
1.14845
1.13349
1.11942
1.10706
1.09705
1.08808
1.08
1.07317
1.06748
1.06194
1.05615
1.05039
1.04494
1.03972
1.03478
1.03046
1.02698
1.02427
1.02159
1.01909
1.01771
1.01681
1.01599
1.0148
1.01307
1.01109
1.00954
1.00767
1.00607
1.00531
1.0051
1.00508
1.00484
1.00367
1.00084
0.998466
0.997062
0.996376
0.996173
0.996216
0.996483
0.997066
0.997633
0.99813
0.998552
0.998899
0.999179
0.999399
0.999567
0.999694
0.999787
0.999854
0.999902
0.999935
0.999958
0.99997
2.15985
2.15312
2.14157
2.10577
2.04625
1.99447
1.95565
1.92957
1.91408
1.89947
1.88113
1.85901
1.83587
1.81314
1.79173
1.77112
1.75098
1.73001
1.70692
1.68125
1.65302
1.62354
1.59434
1.56671
1.54182
1.51838
1.4961
1.47465
1.45222
1.42939
1.40621
1.38212
1.3581
1.33463
1.31077
1.28808
1.26655
1.24499
1.22436
1.20547
1.18656
1.16716
1.1486
1.13259
1.11844
1.10514
1.09292
1.08213
1.07421
1.06709
1.06029
1.05596
1.05188
1.04788
1.044
1.0401
1.0364
1.03294
1.02968
1.02694
1.02431
1.02219
1.02087
1.01955
1.01824
1.01763
1.01706
1.01615
1.01461
1.01285
1.01048
1.0078
1.00624
1.00575
1.00578
1.0058
1.0052
1.00289
0.99999
0.998037
0.996902
0.996388
0.996277
0.996365
0.996721
0.997302
0.997832
0.998293
0.998681
0.999
0.999256
0.999456
0.999609
0.999724
0.999808
0.999869
0.999912
0.999941
0.999962
0.999973
2.1097
2.1089
2.09976
2.07605
2.02621
1.97803
1.93967
1.91093
1.88576
1.86462
1.84576
1.82523
1.80347
1.78292
1.76594
1.75195
1.73839
1.72238
1.70249
1.67854
1.65128
1.62214
1.5926
1.56387
1.53597
1.50921
1.4829
1.45669
1.43128
1.40548
1.37996
1.35491
1.32968
1.30532
1.28172
1.25863
1.23666
1.21609
1.19546
1.17569
1.1581
1.14047
1.12291
1.10687
1.09392
1.08301
1.07225
1.06249
1.05543
1.04996
1.04393
1.04024
1.03727
1.03436
1.03167
1.02917
1.02693
1.02499
1.02331
1.0219
1.02071
1.01975
1.01906
1.01851
1.01815
1.01788
1.01753
1.01696
1.01602
1.01407
1.01093
1.00816
1.00659
1.00615
1.00621
1.00614
1.00501
1.00205
0.999462
0.997764
0.996835
0.996466
0.99643
0.996572
0.997005
0.997554
0.998042
0.998463
0.998817
0.999105
0.999336
0.999515
0.999652
0.999755
0.99983
0.999884
0.999922
0.999948
0.999966
0.999976
1.97936
2.05308
2.05343
2.04786
2.01432
1.96055
1.91679
1.88577
1.86233
1.83945
1.81522
1.79287
1.77248
1.75462
1.74018
1.72881
1.71925
1.70815
1.6921
1.67055
1.64468
1.61598
1.58599
1.55542
1.52477
1.49479
1.46577
1.43793
1.41064
1.38428
1.35824
1.33244
1.30747
1.28288
1.25918
1.23669
1.21478
1.19401
1.17421
1.15463
1.13614
1.11973
1.10371
1.08841
1.07564
1.06558
1.05676
1.04799
1.04122
1.03705
1.03239
1.02843
1.02656
1.02437
1.02245
1.02077
1.01944
1.01847
1.01778
1.01731
1.01703
1.01696
1.01704
1.01725
1.01739
1.0174
1.01735
1.01712
1.01636
1.01444
1.01136
1.0086
1.00698
1.00645
1.00638
1.00613
1.00451
1.00142
0.999071
0.997613
0.996882
0.996643
0.996662
0.99686
0.997333
0.997829
0.998267
0.998643
0.998958
0.999214
0.999418
0.999576
0.999696
0.999786
0.999851
0.999898
0.999932
0.999954
0.999971
0.999979
1.89165
1.97626
2.00234
1.99545
1.98168
1.94429
1.9005
1.86389
1.83599
1.81442
1.79366
1.77107
1.74918
1.73146
1.71815
1.70739
1.69644
1.68349
1.66761
1.64762
1.6236
1.59648
1.5673
1.53702
1.50674
1.47694
1.44794
1.41983
1.39263
1.36608
1.34015
1.31485
1.29
1.2662
1.24314
1.22107
1.1999
1.17944
1.15967
1.14095
1.12304
1.10659
1.09221
1.07869
1.06644
1.05658
1.04856
1.04102
1.03401
1.02949
1.02609
1.02169
1.0194
1.01776
1.01617
1.0149
1.01411
1.01381
1.01376
1.01383
1.01412
1.01474
1.01547
1.01615
1.01668
1.01695
1.01698
1.01681
1.01606
1.01421
1.01143
1.00886
1.0073
1.0067
1.00648
1.00591
1.00391
1.00087
0.998759
0.997565
0.997033
0.996906
0.996962
0.997213
0.997674
0.998108
0.998493
0.998823
0.999098
0.999321
0.999498
0.999635
0.999739
0.999816
0.999873
0.999913
0.999942
0.999961
0.999975
0.999982
1.58266
1.87462
1.9445
1.95205
1.9413
1.92321
1.88669
1.85183
1.82084
1.79406
1.77225
1.75333
1.73498
1.71619
1.69771
1.68055
1.66473
1.64935
1.63302
1.61477
1.59396
1.57046
1.54461
1.51709
1.48868
1.46007
1.43179
1.40418
1.37729
1.35114
1.32565
1.30089
1.27706
1.25412
1.23219
1.21109
1.1905
1.17077
1.1517
1.13343
1.11674
1.10111
1.08714
1.07509
1.06397
1.05435
1.04645
1.03966
1.03327
1.02792
1.02478
1.02125
1.01747
1.01615
1.01466
1.01344
1.01278
1.01268
1.01276
1.01305
1.01367
1.01458
1.0155
1.01631
1.01692
1.01722
1.01722
1.01692
1.01593
1.01393
1.01149
1.00928
1.00786
1.00722
1.00677
1.00575
1.00321
1.00031
0.998557
0.997665
0.997317
0.997266
0.997343
0.997612
0.998017
0.99839
0.998719
0.999002
0.999236
0.999426
0.999576
0.999692
0.99978
0.999845
0.999893
0.999927
0.999951
0.999967
0.999979
0.999984
1.36455
1.57661
1.84453
1.90966
1.90807
1.89413
1.87132
1.83841
1.81045
1.78529
1.7608
1.73719
1.71477
1.69348
1.67327
1.65422
1.63612
1.61897
1.60243
1.58555
1.56728
1.54679
1.52384
1.49876
1.47219
1.44498
1.41775
1.39093
1.36471
1.33921
1.31445
1.29061
1.26774
1.24596
1.22503
1.20489
1.18536
1.16641
1.14835
1.13133
1.11536
1.10107
1.08808
1.07639
1.06652
1.05759
1.04978
1.04324
1.03728
1.03205
1.02807
1.0252
1.02143
1.01871
1.0177
1.01644
1.0156
1.0154
1.01546
1.01571
1.01629
1.01709
1.01787
1.01853
1.01893
1.01901
1.01881
1.01805
1.01645
1.01442
1.01218
1.01029
1.00907
1.00836
1.00737
1.00558
1.0021
0.999822
0.998561
0.997947
0.997722
0.9977
0.997778
0.998021
0.998357
0.998666
0.998941
0.999175
0.99937
0.999527
0.999651
0.999747
0.999819
0.999873
0.999912
0.999939
0.99996
0.999972
0.999983
0.999987
1.11578
1.36419
1.5701
1.81223
1.86973
1.86448
1.84811
1.82177
1.79292
1.76991
1.74713
1.72325
1.69914
1.67538
1.65248
1.63116
1.61169
1.59412
1.5779
1.56195
1.54513
1.52638
1.50525
1.4819
1.45699
1.43124
1.40536
1.37976
1.35462
1.33008
1.30627
1.28341
1.26156
1.24074
1.22074
1.20152
1.18294
1.16521
1.1483
1.13254
1.11807
1.10473
1.09288
1.08217
1.07247
1.06439
1.05697
1.05053
1.04479
1.03974
1.03547
1.03216
1.02917
1.02562
1.024
1.02298
1.02207
1.02149
1.02143
1.02153
1.02182
1.0223
1.02273
1.02296
1.02295
1.02268
1.02188
1.02038
1.01845
1.01626
1.01416
1.01251
1.01135
1.00998
1.00774
1.00386
1.00134
0.999788
0.998865
0.998383
0.998199
0.998181
0.998241
0.99843
0.998694
0.998939
0.999157
0.999343
0.999498
0.999623
0.999722
0.999798
0.999855
0.999898
0.999929
0.999951
0.999968
0.999978
0.999986
0.999989
1.04845
1.1156
1.34718
1.55912
1.77491
1.82402
1.81708
1.80087
1.7776
1.75345
1.73191
1.70761
1.68167
1.65628
1.63258
1.61112
1.59209
1.57492
1.55889
1.54302
1.52637
1.50829
1.48835
1.46661
1.4435
1.41959
1.39529
1.37099
1.34695
1.32345
1.30066
1.27877
1.25782
1.23784
1.2187
1.20037
1.18279
1.16612
1.15057
1.13629
1.12316
1.11116
1.10014
1.09031
1.08139
1.07338
1.06658
1.06037
1.05482
1.04993
1.04573
1.04211
1.0391
1.03596
1.03323
1.03229
1.03126
1.0305
1.03005
1.02984
1.02983
1.02983
1.02976
1.02951
1.02884
1.0277
1.02615
1.02419
1.02196
1.01971
1.01776
1.01598
1.01371
1.00961
1.00593
1.00334
1.00149
1.00019
0.99936
0.9989
0.998715
0.998688
0.99872
0.998839
0.999025
0.999203
0.999364
0.999503
0.999619
0.999713
0.999788
0.999845
0.999889
0.999921
0.999945
0.999962
0.999975
0.999983
0.999989
0.999991
1.01792
1.04297
1.11405
1.26805
1.54628
1.74379
1.77912
1.77043
1.75301
1.73272
1.71343
1.69185
1.66602
1.64035
1.61761
1.59779
1.57977
1.56246
1.54512
1.52769
1.51001
1.49187
1.47291
1.45286
1.43168
1.40972
1.38721
1.36445
1.34172
1.3193
1.29747
1.27645
1.25632
1.23707
1.21864
1.20104
1.18449
1.16918
1.1551
1.1421
1.13017
1.11918
1.10911
1.09992
1.09164
1.08417
1.07747
1.07171
1.06639
1.06169
1.05762
1.05403
1.05083
1.04794
1.04512
1.0433
1.04254
1.04151
1.04064
1.04009
1.03956
1.03899
1.03829
1.03726
1.03582
1.03402
1.03181
1.02936
1.02697
1.02466
1.0218
1.01692
1.01258
1.00899
1.00606
1.00374
1.002
1.00078
0.99998
0.999498
0.99926
0.999192
0.999196
0.999239
0.999339
0.999452
0.999557
0.99965
0.999729
0.999795
0.999847
0.999888
0.999919
0.999942
0.99996
0.999972
0.999981
0.999987
0.999992
0.999993
1.00673
1.01423
1.04171
1.09325
1.29209
1.45836
1.68827
1.72516
1.71903
1.70516
1.6901
1.67586
1.65567
1.63225
1.61047
1.59117
1.57278
1.55405
1.5348
1.51551
1.49681
1.47868
1.46063
1.44206
1.42255
1.40219
1.38124
1.35988
1.33843
1.3172
1.2964
1.27616
1.25663
1.23795
1.22028
1.2038
1.18856
1.17449
1.16156
1.14968
1.13874
1.12864
1.11932
1.11075
1.10296
1.0959
1.08958
1.08387
1.07891
1.0743
1.07032
1.06688
1.06379
1.06082
1.05815
1.05579
1.05476
1.05352
1.05238
1.05132
1.05023
1.04904
1.04762
1.04581
1.04374
1.04125
1.03865
1.03583
1.03193
1.0267
1.02183
1.01721
1.01307
1.00953
1.00662
1.00435
1.00265
1.00145
1.00064
1.00013
0.999827
0.999665
0.999608
0.999607
0.999626
0.999672
0.999727
0.999779
0.999825
0.999865
0.999898
0.999924
0.999945
0.99996
0.999972
0.99998
0.999987
0.999991
0.999994
0.999995
1.0018
1.00542
1.01202
1.03427
1.07881
1.2428
1.38516
1.62151
1.67035
1.67286
1.66451
1.65538
1.64428
1.62545
1.60571
1.58727
1.56881
1.5491
1.52851
1.50809
1.48865
1.47037
1.45264
1.43474
1.41624
1.39706
1.37741
1.35748
1.33731
1.31708
1.297
1.27748
1.25878
1.24113
1.22463
1.20921
1.1949
1.18178
1.16979
1.15884
1.14873
1.13934
1.13063
1.12258
1.11524
1.10855
1.10253
1.09709
1.09223
1.08782
1.08388
1.08033
1.07737
1.07451
1.07174
1.06924
1.06753
1.06628
1.06472
1.06312
1.0614
1.05955
1.05738
1.05495
1.05221
1.04876
1.04413
1.03918
1.03382
1.02828
1.02292
1.01802
1.01372
1.01012
1.00721
1.00496
1.00329
1.00209
1.00125
1.00068
1.00032
1.00009
0.999957
0.999886
0.999858
0.999857
0.999865
0.999882
0.999903
0.999922
0.999939
0.999954
0.999966
0.999975
0.999982
0.999987
0.999991
0.999994
0.999996
0.999996
1.00064
1.0014
1.00425
1.0094
1.02745
1.06172
1.18913
1.31569
1.54927
1.62083
1.63641
1.62932
1.62163
1.61304
1.59797
1.58149
1.56438
1.54582
1.52583
1.50545
1.48575
1.46702
1.44908
1.43127
1.41322
1.39486
1.37619
1.3572
1.33784
1.31845
1.29949
1.28128
1.2638
1.24713
1.23139
1.21672
1.20322
1.19095
1.17981
1.1696
1.16014
1.15129
1.14304
1.13542
1.12845
1.12211
1.11635
1.11114
1.10642
1.10211
1.09821
1.09469
1.09153
1.08859
1.08571
1.08296
1.08103
1.0794
1.07732
1.07509
1.07272
1.06997
1.06685
1.06318
1.05885
1.05377
1.04801
1.04177
1.03541
1.02923
1.0235
1.01842
1.01406
1.01045
1.00757
1.00538
1.00374
1.00255
1.00169
1.00109
1.00067
1.00039
1.00021
1.00009
1.00002
0.999984
0.999965
0.999959
0.99996
0.999964
0.99997
0.999976
0.999981
0.999986
0.999989
0.999992
0.999995
0.999996
0.999998
0.999998
1.00015
1.00045
1.00103
1.00301
1.00704
1.01999
1.04601
1.13423
1.24884
1.46159
1.58147
1.60366
1.59434
1.58559
1.578
1.56764
1.55675
1.54251
1.5249
1.50553
1.48602
1.46715
1.44901
1.43117
1.41321
1.39513
1.37694
1.35862
1.34034
1.32235
1.30468
1.28747
1.27093
1.25509
1.24019
1.22638
1.2137
1.20217
1.19168
1.18203
1.173
1.16453
1.15663
1.14934
1.14268
1.13662
1.13111
1.12607
1.12146
1.11721
1.11327
1.10965
1.10631
1.1031
1.09992
1.09695
1.09465
1.09247
1.08956
1.08643
1.08306
1.07928
1.07488
1.06971
1.06373
1.05708
1.05
1.0428
1.03578
1.02923
1.02332
1.01811
1.01374
1.01023
1.00752
1.00545
1.0039
1.00275
1.0019
1.00129
1.00086
1.00056
1.00035
1.00021
1.00012
1.00006
1.00003
1.00001
0.999996
0.999991
0.99999
0.99999
0.999992
0.999993
0.999995
0.999996
0.999997
0.999998
0.999999
0.999998
1.00004
1.00013
1.00026
1.00086
1.00177
1.00549
1.01198
1.03344
1.07881
1.20818
1.36539
1.53147
1.55425
1.55637
1.55327
1.547
1.54081
1.53407
1.52148
1.50511
1.48725
1.46925
1.45138
1.43378
1.41605
1.39835
1.3808
1.36353
1.34622
1.32907
1.31229
1.29603
1.28048
1.26559
1.25151
1.23843
1.22648
1.21555
1.20552
1.19621
1.18741
1.17913
1.1714
1.16435
1.15793
1.15209
1.14672
1.14177
1.13717
1.13287
1.12882
1.12498
1.1213
1.11769
1.11409
1.11076
1.10801
1.10471
1.10076
1.09655
1.09186
1.0865
1.08036
1.07347
1.06596
1.05807
1.05007
1.04225
1.0348
1.02786
1.02173
1.01665
1.01261
1.00945
1.007
1.00513
1.00371
1.00265
1.00187
1.0013
1.00089
1.0006
1.00039
1.00025
1.00016
1.0001
1.00006
1.00003
1.00002
1.00001
1
0.999999
0.999998
0.999998
0.999998
0.999998
0.999999
0.999999
0.999999
0.999999
1.00001
1.00003
1.00006
1.0002
1.00042
1.00133
1.00288
1.00846
1.01945
1.05125
1.12256
1.26776
1.42389
1.5075
1.52012
1.5238
1.52165
1.5148
1.5071
1.49844
1.48505
1.46965
1.45415
1.43852
1.42219
1.40517
1.38815
1.37129
1.35474
1.33832
1.32258
1.30753
1.29299
1.27892
1.26548
1.25291
1.24148
1.23101
1.22121
1.212
1.20321
1.19496
1.18728
1.18035
1.17403
1.16829
1.16296
1.15799
1.15326
1.14876
1.14439
1.14012
1.13593
1.13174
1.12764
1.12388
1.11993
1.11499
1.10964
1.10382
1.0974
1.09029
1.08254
1.07425
1.06562
1.05684
1.048
1.03928
1.03123
1.02438
1.01883
1.01441
1.0109
1.00816
1.00605
1.00443
1.00321
1.0023
1.00163
1.00114
1.00079
1.00054
1.00036
1.00024
1.00016
1.0001
1.00006
1.00004
1.00002
1.00001
1.00001
1
1
1
1
1
1
1
1
0.999999
1
1.00001
1.00001
1.00004
1.0001
1.00025
1.00069
1.0017
1.0047
1.01135
1.02961
1.0714
1.17646
1.29984
1.44016
1.4895
1.4938
1.49023
1.48725
1.48027
1.47097
1.46208
1.45135
1.43864
1.42465
1.40949
1.39403
1.37887
1.36386
1.34912
1.33468
1.32093
1.30743
1.29396
1.281
1.2689
1.25784
1.24769
1.23803
1.22874
1.21981
1.21146
1.20375
1.19681
1.19048
1.18468
1.17919
1.17401
1.16896
1.16403
1.15913
1.15424
1.14924
1.14418
1.1393
1.13417
1.12797
1.12142
1.11448
1.10706
1.09912
1.09063
1.08168
1.07226
1.0622
1.05169
1.04158
1.03285
1.02572
1.01996
1.01532
1.01164
1.00875
1.00651
1.0048
1.00351
1.00254
1.00182
1.00129
1.00091
1.00063
1.00043
1.0003
1.0002
1.00013
1.00009
1.00006
1.00003
1.00002
1.00001
1.00001
1
1
1
1
1
1
1
1
1
1
1
1
1.00001
1.00002
1.00004
1.00013
1.00032
1.00088
1.00227