/*--------------------------------*- C++ -*----------------------------------*\
  =========                 |
  \\      /  F ield         | OpenFOAM: The Open Source CFD Toolbox
   \\    /   O peration     | Website:  https://openfoam.org
    \\  /    A nd           | Version:  6
     \\/     M anipulation  |
\*---------------------------------------------------------------------------*/
FoamFile
{
    version     2.0;
    format      ascii;
    class       volVectorField;
    location    "43.3";
    object      U;
}
// * * * * * * * * * * * * * * * * * * * * * * * * * * * * * * * * * * * * * //

dimensions      [0 1 -1 0 0 0 0];

internalField   nonuniform List<vector> 
8800
(
(0.987187 -0.0766664 0)
(1.0019 -0.0551909 0)
(0.999746 -0.028549 0)
(1.00004 -0.0151413 0)
(1.00007 -0.00853807 0)
(1.00006 -0.00503907 0)
(1.00004 -0.00300531 0)
(1.00002 -0.00171587 0)
(0.999996 -0.000816029 0)
(1.00005 -0.000103703 0)
(0.999986 0.000622071 0)
(0.999996 0.00138269 0)
(1.00001 0.00240521 0)
(1.00002 0.00398666 0)
(1.00003 0.00662764 0)
(1 0.0113676 0)
(0.999891 0.0208116 0)
(0.999145 0.0386693 0)
(1.00709 0.072456 0)
(0.771212 0.0366606 0)
(0.363048 -0.0160196 0)
(1.04329 -0.0768285 0)
(1.0846 -0.0704691 0)
(1.04521 -0.0535694 0)
(1.02327 -0.0389214 0)
(1.01196 -0.0262446 0)
(1.00636 -0.0168976 0)
(1.00356 -0.0103867 0)
(1.00213 -0.00574146 0)
(1.00145 -0.00209952 0)
(1.00132 0.00121024 0)
(1.00168 0.00458589 0)
(1.00265 0.00851939 0)
(1.00463 0.013871 0)
(1.00858 0.021601 0)
(1.01655 0.0325876 0)
(1.03246 0.0465085 0)
(1.06263 0.0616328 0)
(1.09188 0.0760817 0)
(0.838699 0.0565539 0)
(0.216784 -0.0024325 0)
(1.07585 -0.0501697 0)
(1.09986 -0.0483613 0)
(1.06461 -0.0405247 0)
(1.03996 -0.0336759 0)
(1.02381 -0.0261721 0)
(1.01404 -0.0186184 0)
(1.00852 -0.0118161 0)
(1.00557 -0.00595903 0)
(1.00432 -0.000558065 0)
(1.00468 0.00467926 0)
(1.00661 0.0100697 0)
(1.0106 0.0161765 0)
(1.01792 0.0232315 0)
(1.03053 0.0307254 0)
(1.05062 0.0377705 0)
(1.08033 0.0444629 0)
(1.10627 0.0512926 0)
(0.94261 0.0415909 0)
(0.216224 0.00245853 0)
(0.17507 -0.00081972 0)
(1.01756 -0.0355341 0)
(1.10514 -0.0414593 0)
(1.07819 -0.0361571 0)
(1.05335 -0.0302323 0)
(1.03606 -0.0246764 0)
(1.02389 -0.0189875 0)
(1.0158 -0.0129418 0)
(1.01098 -0.00678024 0)
(1.00881 -0.000467749 0)
(1.0094 0.00577502 0)
(1.01267 0.0117706 0)
(1.01887 0.0176232 0)
(1.02877 0.0232338 0)
(1.04324 0.028573 0)
(1.06377 0.0340878 0)
(1.09357 0.0400946 0)
(1.09348 0.0418843 0)
(0.827361 0.0228792 0)
(0.174126 0.000849113 0)
(0.15382 -0.000613889 0)
(0.955908 -0.0255199 0)
(1.10332 -0.0352359 0)
(1.08755 -0.0327883 0)
(1.06154 -0.0281621 0)
(1.04391 -0.0231794 0)
(1.03149 -0.0179776 0)
(1.02269 -0.0124738 0)
(1.01692 -0.00656359 0)
(1.01412 -0.000124625 0)
(1.01483 0.00631915 0)
(1.01883 0.0122047 0)
(1.02584 0.0175395 0)
(1.03614 0.022512 0)
(1.05074 0.0273054 0)
(1.07199 0.0318698 0)
(1.10016 0.0358283 0)
(1.06827 0.0339232 0)
(0.739937 0.0142684 0)
(0.152402 0.000647062 0)
(0.139391 -0.000470545 0)
(0.898823 -0.0191506 0)
(1.09553 -0.0302127 0)
(1.09553 -0.0293558 0)
(1.06898 -0.0256501 0)
(1.05054 -0.021548 0)
(1.03766 -0.0168337 0)
(1.02861 -0.0116143 0)
(1.02255 -0.00592338 0)
(1.01949 0.000377028 0)
(1.02017 0.00668568 0)
(1.0243 0.0123168 0)
(1.03144 0.0172983 0)
(1.04198 0.0218037 0)
(1.05715 0.0258199 0)
(1.07936 0.0293371 0)
(1.10244 0.0320076 0)
(1.03635 0.0279719 0)
(0.673618 0.0101528 0)
(0.137394 0.00050859 0)
(0.128785 -0.000365698 0)
(0.849004 -0.0148017 0)
(1.08299 -0.0261162 0)
(1.10113 -0.0264649 0)
(1.07576 -0.0232232 0)
(1.05678 -0.0196376 0)
(1.04344 -0.0154558 0)
(1.03405 -0.0105833 0)
(1.02777 -0.00510486 0)
(1.02455 0.000985646 0)
(1.02511 0.00704682 0)
(1.02921 0.0124034 0)
(1.03647 0.017009 0)
(1.0473 0.0209463 0)
(1.06291 0.0243006 0)
(1.08559 0.0272997 0)
(1.10167 0.0291072 0)
(1.0017 0.0234139 0)
(0.622098 0.00777449 0)
(0.126086 0.000410499 0)
(0.12067 -0.000285332 0)
(0.806603 -0.011653 0)
(1.06751 -0.022529 0)
(1.1045 -0.0238696 0)
(1.08188 -0.021063 0)
(1.06251 -0.0177033 0)
(1.04892 -0.0138385 0)
(1.03925 -0.00934146 0)
(1.03269 -0.00416448 0)
(1.02923 0.00171433 0)
(1.02966 0.0075513 0)
(1.03376 0.0125549 0)
(1.04111 0.0166726 0)
(1.05206 0.0200924 0)
(1.06787 0.0230369 0)
(1.09088 0.0257546 0)
(1.09802 0.026684 0)
(0.966792 0.0198138 0)
(0.580847 0.00622038 0)
(0.117119 0.00033877 0)
(0.11436 -0.000222611 0)
(0.770843 -0.00930054 0)
(1.05051 -0.0193822 0)
(1.10675 -0.0214779 0)
(1.08763 -0.0190314 0)
(1.06785 -0.0158204 0)
(1.05401 -0.0121458 0)
(1.04416 -0.00788223 0)
(1.03739 -0.00297169 0)
(1.03368 0.00260712 0)
(1.03393 0.00809638 0)
(1.03793 0.0127128 0)
(1.04522 0.0164202 0)
(1.05621 0.0194601 0)
(1.07227 0.0220808 0)
(1.095 0.0244925 0)
(1.09165 0.0246403 0)
(0.932975 0.0170101 0)
(0.546872 0.00514872 0)
(0.109771 0.000286486 0)
(0.109418 -0.000171907 0)
(0.740799 -0.00746997 0)
(1.03303 -0.016578 0)
(1.10798 -0.01923 0)
(1.09304 -0.0171487 0)
(1.07299 -0.0140647 0)
(1.05891 -0.0104749 0)
(1.04887 -0.00633142 0)
(1.04189 -0.00162696 0)
(1.03794 0.00367188 0)
(1.03794 0.00882028 0)
(1.04176 0.0130565 0)
(1.04895 0.016422 0)
(1.05993 0.0191699 0)
(1.07618 0.0214984 0)
(1.09784 0.0235064 0)
(1.08293 0.0229101 0)
(0.900839 0.0148389 0)
(0.518163 0.00438787 0)
(0.103568 0.000249062 0)
(0.105565 -0.00012998 0)
(0.715661 -0.00599235 0)
(1.01593 -0.0140593 0)
(1.10835 -0.0170141 0)
(1.0983 -0.0151883 0)
(1.07801 -0.0121162 0)
(1.06365 -0.00862719 0)
(1.0534 -0.00463982 0)
(1.04619 -0.000106358 0)
(1.04196 0.00496081 0)
(1.04165 0.00980301 0)
(1.0452 0.0136729 0)
(1.05223 0.0166412 0)
(1.06322 0.0190007 0)
(1.07967 0.0210587 0)
(1.0994 0.0227364 0)
(1.07231 0.0214689 0)
(0.870575 0.0131882 0)
(0.493308 0.00384785 0)
(0.0981808 0.000223365 0)
(0.102611 -9.38672e-05 0)
(0.694793 -0.00475161 0)
(0.999801 -0.0117629 0)
(1.10803 -0.0148911 0)
(1.10342 -0.0133085 0)
(1.08299 -0.0102381 0)
(1.06831 -0.00672357 0)
(1.05784 -0.00273986 0)
(1.05038 0.00169016 0)
(1.04581 0.00651269 0)
(1.04512 0.0109962 0)
(1.04835 0.0145094 0)
(1.05516 0.0171668 0)
(1.0661 0.0192553 0)
(1.08273 0.0210431 0)
(1.10006 0.0222737 0)
(1.0601 0.0203491 0)
(0.842062 0.0119576 0)
(0.471265 0.00347164 0)
(0.0933555 0.000207027 0)
(0.100438 -6.01505e-05 0)
(0.67775 -0.00365227 0)
(0.985116 -0.00958756 0)
(1.1071 -0.0126549 0)
(1.1082 -0.0112348 0)
(1.088 -0.00816729 0)
(1.07301 -0.00462696 0)
(1.06221 -0.000645645 0)
(1.05437 0.00371304 0)
(1.04934 0.00839305 0)
(1.0482 0.0126277 0)
(1.05107 0.0157822 0)
(1.05769 0.0180663 0)
(1.06861 0.0198036 0)
(1.08528 0.021283 0)
(1.09967 0.0221471 0)
(1.04651 0.0194976 0)
(0.815077 0.0110711 0)
(0.451244 0.0032202 0)
(0.0889021 0.000198013 0)
(0.0989842 -2.73234e-05 0)
(0.664231 -0.00262759 0)
(0.972266 -0.00748175 0)
(1.10605 -0.0103117 0)
(1.11292 -0.00892365 0)
(1.09307 -0.00577638 0)
(1.07769 -0.00218063 0)
(1.06653 0.00181744 0)
(1.05829 0.00615101 0)
(1.05274 0.0106736 0)
(1.05103 0.0146067 0)
(1.05343 0.0174054 0)
(1.05974 0.0192734 0)
(1.07059 0.0205891 0)
(1.08735 0.0217952 0)
(1.0982 0.0222716 0)
(1.03174 0.0189443 0)
(0.7893 0.0104742 0)
(0.432619 0.00306908 0)
(0.0846725 0.000195076 0)
(0.0982318 6.40715e-06 0)
(0.65409 -0.00162508 0)
(0.961526 -0.00536392 0)
(1.10508 -0.00780803 0)
(1.11767 -0.00644615 0)
(1.09832 -0.00322045 0)
(1.08251 0.000556118 0)
(1.07093 0.00470985 0)
(1.06215 0.00908204 0)
(1.05592 0.0134594 0)
(1.05354 0.0170773 0)
(1.05542 0.0194637 0)
(1.06138 0.0209571 0)
(1.07215 0.0219269 0)
(1.0889 0.0227659 0)
(1.09559 0.0227415 0)
(1.01581 0.0186722 0)
(0.764375 0.0101233 0)
(0.414884 0.00300107 0)
(0.0805362 0.000197733 0)
(0.0982099 3.89031e-05 0)
(0.647337 -0.000600812 0)
(0.953253 -0.0031596 0)
(1.10453 -0.00501577 0)
(1.12248 -0.00354072 0)
(1.1038 -0.000193131 0)
(1.08759 0.00378726 0)
(1.07548 0.0080994 0)
(1.06606 0.0125313 0)
(1.05907 0.016852 0)
(1.05583 0.020206 0)
(1.05702 0.022169 0)
(1.06256 0.023156 0)
(1.07319 0.023655 0)
(1.08962 0.0240844 0)
(1.09158 0.0235268 0)
(0.998736 0.0186954 0)
(0.739954 0.0100062 0)
(0.3976 0.00301129 0)
(0.076389 0.000205437 0)
(0.0989775 8.38284e-05 0)
(0.644134 0.000472751 0)
(0.94781 -0.000797851 0)
(1.10487 -0.00190862 0)
(1.1277 -0.000146411 0)
(1.10962 0.00346649 0)
(1.09287 0.00767837 0)
(1.08012 0.0121831 0)
(1.06992 0.0167577 0)
(1.06194 0.0209974 0)
(1.05768 0.0239892 0)
(1.05805 0.0254883 0)
(1.06309 0.0259606 0)
(1.07358 0.0259184 0)
(1.08947 0.0258995 0)
(1.08612 0.024701 0)
(0.98046 0.019073 0)
(0.715613 0.0101204 0)
(0.380342 0.00309727 0)
(0.07212 0.00021822 0)
(0.100701 0.000140797 0)
(0.644791 0.00165007 0)
(0.945526 0.00177649 0)
(1.10646 0.00159066 0)
(1.13347 0.00370289 0)
(1.11585 0.00761693 0)
(1.09849 0.0122128 0)
(1.08501 0.0170814 0)
(1.07382 0.0218513 0)
(1.06459 0.0260511 0)
(1.0591 0.0287419 0)
(1.05853 0.0296766 0)
(1.06294 0.029547 0)
(1.07321 0.0289574 0)
(1.08823 0.0283561 0)
(1.07904 0.0263375 0)
(0.96072 0.0197857 0)
(0.690916 0.0104582 0)
(0.362702 0.00325516 0)
(0.0676273 0.000235644 0)
(0.103464 0.000200076 0)
(0.649761 0.00310262 0)
(0.946907 0.00479279 0)
(1.10971 0.00574014 0)
(1.13984 0.00830324 0)
(1.12269 0.0126318 0)
(1.10472 0.0177338 0)
(1.09031 0.0230398 0)
(1.07792 0.0280721 0)
(1.06721 0.0322404 0)
(1.06019 0.0345212 0)
(1.05844 0.0348391 0)
(1.06209 0.0340278 0)
(1.07203 0.0328019 0)
(1.08565 0.0315092 0)
(1.07001 0.0284599 0)
(0.939357 0.0209047 0)
(0.66541 0.0110456 0)
(0.344274 0.00348993 0)
(0.0628159 0.00025753 0)
(0.107575 0.000283349 0)
(0.659539 0.00480774 0)
(0.952287 0.00819786 0)
(1.11524 0.010576 0)
(1.14721 0.0138943 0)
(1.13031 0.0188909 0)
(1.11155 0.0245445 0)
(1.09598 0.0302992 0)
(1.08212 0.0356508 0)
(1.06959 0.039798 0)
(1.0607 0.0416144 0)
(1.05755 0.0411974 0)
(1.06028 0.0395452 0)
(1.06983 0.0375291 0)
(1.0816 0.0354885 0)
(1.05883 0.0312716 0)
(0.91597 0.0225403 0)
(0.63849 0.0119159 0)
(0.32459 0.00380741 0)
(0.0575785 0.000284089 0)
(0.113356 0.000393241 0)
(0.674754 0.00691526 0)
(0.962536 0.0123559 0)
(1.12358 0.016271 0)
(1.15602 0.0204906 0)
(1.13891 0.0263641 0)
(1.11909 0.0327968 0)
(1.10208 0.0392426 0)
(1.08632 0.0449961 0)
(1.07149 0.0490305 0)
(1.06048 0.050183 0)
(1.0557 0.0488624 0)
(1.05729 0.0462961 0)
(1.06641 0.043421 0)
(1.07605 0.0404886 0)
(1.04515 0.0348876 0)
(0.890026 0.0247297 0)
(0.609499 0.0130771 0)
(0.303178 0.00419768 0)
(0.0518333 0.000312192 0)
(0.121305 0.000547509 0)
(0.696392 0.00965402 0)
(0.978321 0.0174927 0)
(1.13521 0.0232207 0)
(1.16659 0.0285584 0)
(1.14893 0.0355549 0)
(1.12781 0.0429926 0)
(1.10898 0.0502463 0)
(1.09092 0.0564105 0)
(1.0734 0.0603 0)
(1.05973 0.0606658 0)
(1.05293 0.0582149 0)
(1.05317 0.0545909 0)
(1.06161 0.050771 0)
(1.06866 0.0467956 0)
(1.02847 0.0394821 0)
(0.860942 0.0276307 0)
(0.577626 0.0145897 0)
(0.27952 0.00466307 0)
(0.0455301 0.000339975 0)
(0.132185 0.000773302 0)
(0.725737 0.0133537 0)
(1.00076 0.0240175 0)
(1.15095 0.0319246 0)
(1.17954 0.0388039 0)
(1.16064 0.0473424 0)
(1.13768 0.0559651 0)
(1.11632 0.064069 0)
(1.09521 0.0705287 0)
(1.07437 0.0739761 0)
(1.05774 0.0731921 0)
(1.04883 0.0693756 0)
(1.04765 0.0645021 0)
(1.0552 0.0595808 0)
(1.05907 0.0543874 0)
(1.00826 0.0453098 0)
(0.827876 0.0314028 0)
(0.541849 0.0165018 0)
(0.253019 0.00519954 0)
(0.0386344 0.000366381 0)
(0.147203 0.00112393 0)
(0.764589 0.0186489 0)
(1.03139 0.0326992 0)
(1.17188 0.04324 0)
(1.19585 0.0522201 0)
(1.17448 0.0626759 0)
(1.14887 0.0726018 0)
(1.12424 0.081454 0)
(1.09945 0.0879177 0)
(1.07472 0.0904545 0)
(1.05474 0.0881219 0)
(1.04339 0.0826692 0)
(1.04071 0.0763159 0)
(1.0472 0.0700575 0)
(1.04686 0.0636575 0)
(0.983835 0.0525141 0)
(0.789833 0.036091 0)
(0.501055 0.0187609 0)
(0.223183 0.00576512 0)
(0.0311513 0.000387923 0)
(0.168446 0.00172937 0)
(0.815899 0.0266666 0)
(1.07276 0.0450649 0)
(1.199 0.0589364 0)
(1.21618 0.0707021 0)
(1.19057 0.0829538 0)
(1.16111 0.0940503 0)
(1.13218 0.103242 0)
(1.10288 0.109111 0)
(1.07369 0.110154 0)
(1.0501 0.105732 0)
(1.03626 0.0982408 0)
(1.03205 0.0902646 0)
(1.0373 0.0826945 0)
(1.03168 0.0747044 0)
(0.954294 0.0610818 0)
(0.745681 0.0415915 0)
(0.454355 0.0211984 0)
(0.189947 0.00628188 0)
(0.0231975 0.000398499 0)
(0.199184 0.00306672 0)
(0.885223 0.0400799 0)
(1.12795 0.064936 0)
(1.23253 0.0826448 0)
(1.24012 0.0971482 0)
(1.2083 0.110658 0)
(1.17366 0.122082 0)
(1.13946 0.130542 0)
(1.10503 0.13477 0)
(1.07106 0.133339 0)
(1.04367 0.126078 0)
(1.0273 0.116112 0)
(1.02154 0.10622 0)
(1.02521 0.0972627 0)
(1.01281 0.0874584 0)
(0.91855 0.0708207 0)
(0.694281 0.0474457 0)
(0.401898 0.0235571 0)
(0.15436 0.00667149 0)
(0.015171 0.000387994 0)
(0.241141 0.00919725 9.73169e-21)
(0.976497 0.0667918 8.33357e-21)
(1.1946 0.0989172 -2.90147e-21)
(1.2696 0.11819 0)
(1.26499 0.135426 -7.30903e-35)
(1.22569 0.14846 1.06672e-21)
(1.18507 0.158453 -1.91667e-21)
(1.14505 0.164774 0)
(1.10505 0.166263 3.92188e-35)
(1.06588 0.161465 -2.36023e-21)
(1.03435 0.15074 0)
(1.01518 0.138059 -2.79628e-21)
(1.00756 0.12628 -8.24557e-21)
(1.00919 0.11612 -3.89699e-21)
(0.988206 0.10479 -1.17393e-21)
(0.872357 0.0841052 -6.97941e-22)
(0.630013 0.0549345 0)
(0.341141 0.0264564 4.90255e-22)
(0.117239 0.00760307 5.80839e-22)
(0.00754386 0.000490529 1.05795e-20)
(0.270026 0.0242427 7.18206e-21)
(1.05186 0.109075 1.05886e-22)
(1.24916 0.147524 7.77438e-22)
(1.30331 0.166789 0)
(1.28688 0.184263 -3.72895e-21)
(1.24055 0.195289 -4.22546e-21)
(1.1939 0.203086 -1.93865e-21)
(1.14781 0.206997 -6.88766e-21)
(1.10179 0.205707 0)
(1.05667 0.197652 1.00634e-20)
(1.02004 0.183706 9.97171e-21)
(0.997314 0.168477 2.9653e-21)
(0.987437 0.15476 1.07951e-20)
(0.98452 0.142407 1.51529e-20)
(0.950711 0.127347 0)
(0.8108 0.101262 2.14374e-20)
(0.554941 0.0646431 3.08421e-20)
(0.278612 0.0304753 3.43553e-20)
(0.0829825 0.00850679 -3.94381e-20)
(0.000774019 0.00015951 -7.49511e-22)
(0.271311 0.0407038 0)
(1.09961 0.163919 1.25528e-21)
(1.28623 0.207041 0)
(1.32974 0.226319 -4.89975e-21)
(1.30411 0.240933 0)
(1.25178 0.248212 -8.33201e-21)
(1.19938 0.252404 3.9729e-21)
(1.1475 0.252853 -1.39033e-20)
(1.09578 0.248147 -3.15362e-22)
(1.0451 0.236683 5.2257e-21)
(1.00368 0.219606 2.19996e-20)
(0.977287 0.201897 -5.91719e-23)
(0.964324 0.186059 -7.86455e-21)
(0.956424 0.171104 -1.43519e-20)
(0.915261 0.152265 1.70253e-20)
(0.766372 0.120322 -3.02268e-20)
(0.513984 0.0763391 -4.01435e-21)
(0.254203 0.036155 0)
(0.0740105 0.0101576 -4.09405e-25)
(-0.000771959 -0.00011592 0)
(0.26502 0.0546573 1.67388e-20)
(1.12535 0.222492 -8.07599e-21)
(1.30942 0.271337 -6.13496e-21)
(1.3472 0.291144 2.32052e-21)
(1.31517 0.301846 -3.89694e-21)
(1.25826 0.304748 1.75058e-20)
(1.2011 0.304672 8.31812e-21)
(1.14425 0.301145 0)
(1.08749 0.292624 -2.62767e-20)
(1.03167 0.277285 0)
(0.985626 0.256375 -1.15839e-20)
(0.955566 0.235505 -1.42928e-20)
(0.939419 0.217489 -8.59596e-21)
(0.928048 0.201188 -1.04566e-20)
(0.882574 0.179774 0)
(0.734925 0.142189 0)
(0.495446 0.0918321 -2.63202e-20)
(0.253189 0.0459612 5.21791e-21)
(0.0785035 0.0138608 -3.05531e-21)
(0.000412478 1.32949e-05 -3.61895e-21)
(0.257775 0.0670357 -6.69896e-21)
(1.13671 0.281076 0)
(1.32229 0.336791 1.25505e-20)
(1.35663 0.35731 6.54461e-21)
(1.32013 0.36417 9.02536e-21)
(1.25984 0.362709 0)
(1.19901 0.358367 8.15863e-21)
(1.13811 0.350809 1.54558e-20)
(1.07697 0.338301 1.34863e-20)
(1.01638 0.318694 2.47411e-20)
(0.965853 0.293789 0)
(0.932425 0.270164 -3.09078e-20)
(0.913939 0.250725 -1.86286e-20)
(0.900208 0.23353 -1.10161e-20)
(0.85172 0.209048 6.78599e-20)
(0.710432 0.166654 8.12516e-21)
(0.48845 0.110981 3.83436e-20)
(0.261272 0.0587758 -1.81852e-19)
(0.0893512 0.0199482 1.07865e-19)
(0.00363627 0.000802198 -1.31663e-19)
(0.251024 0.0782444 -3.17397e-21)
(1.13914 0.337818 1.20377e-21)
(1.32767 0.401527 -1.34876e-21)
(1.35962 0.423036 -6.62294e-21)
(1.3199 0.426317 -7.6211e-21)
(1.25712 0.420709 3.57417e-22)
(1.19345 0.412365 -8.84877e-21)
(1.12923 0.400916 1.60124e-20)
(1.06425 0.384411 -2.9064e-20)
(0.999371 0.360623 0)
(0.944882 0.332335 -1.401e-20)
(0.908531 0.306918 -3.24525e-22)
(0.887901 0.286524 -2.04089e-20)
(0.87123 0.267451 0)
(0.820627 0.238929 -1.47242e-20)
(0.688833 0.192455 -3.51696e-20)
(0.485189 0.132195 9.44815e-20)
(0.271452 0.0738297 -9.31615e-20)
(0.101465 0.0276887 1.32579e-19)
(0.0074246 0.00208985 -1.39525e-19)
(0.245527 0.0886968 -1.04945e-22)
(1.1361 0.392063 -3.86339e-22)
(1.32768 0.464514 -3.65225e-21)
(1.35762 0.487239 2.63667e-21)
(1.31553 0.487333 -3.8312e-21)
(1.25094 0.47792 0)
(1.18504 0.465879 -8.23701e-21)
(1.11801 0.450702 -1.67726e-20)
(1.04965 0.430303 -1.51134e-20)
(0.981086 0.402675 0)
(0.92333 0.371646 -1.45474e-20)
(0.88441 0.344591 -1.80275e-20)
(0.861186 0.322613 2.21559e-20)
(0.840766 0.300524 -1.34826e-20)
(0.788971 0.268246 -6.43294e-20)
(0.668024 0.218762 3.85227e-20)
(0.480919 0.154728 1.15769e-20)
(0.279345 0.0898455 0)
(0.11167 0.0362148 -1.28325e-19)
(0.0108525 0.00363208 -4.7666e-21)
(0.241358 0.0987109 2.2121e-22)
(1.12983 0.443641 -1.62103e-22)
(1.32387 0.525218 1.67521e-21)
(1.35189 0.549243 9.42069e-21)
(1.30796 0.546567 -1.40603e-20)
(1.24209 0.533755 1.66466e-20)
(1.17437 0.518306 1.77273e-20)
(1.10489 0.499559 -2.67932e-20)
(1.03363 0.475452 9.33119e-21)
(0.961939 0.444315 -6.09156e-20)
(0.901451 0.410616 -1.64579e-20)
(0.860089 0.38128 0)
(0.833843 0.35651 2.40248e-20)
(0.809703 0.330922 2.88135e-20)
(0.758065 0.295713 3.45828e-20)
(0.646836 0.244258 -4.18071e-20)
(0.473792 0.17669 -1.24207e-20)
(0.282577 0.105474 1.46303e-20)
(0.118095 0.0443795 0)
(0.0132599 0.00510666 -1.03387e-20)
(0.238343 0.108377 -7.1809e-21)
(1.12193 0.492577 3.09423e-21)
(1.31757 0.583866 -1.4186e-21)
(1.34344 0.608679 5.62201e-21)
(1.29803 0.603577 -6.27094e-21)
(1.23121 0.587746 -8.22303e-22)
(1.16199 0.569164 -1.93506e-20)
(1.09038 0.547045 -9.68976e-21)
(1.0166 0.519469 -2.62529e-20)
(0.942223 0.485037 5.00419e-23)
(0.879222 0.448285 -5.1484e-20)
(0.835423 0.41581 4.34713e-20)
(0.806045 0.387526 -2.63739e-20)
(0.778715 0.358686 3.17358e-20)
(0.728032 0.321335 0)
(0.62514 0.26814 -2.26276e-20)
(0.463542 0.197077 -8.54339e-23)
(0.280968 0.119549 -6.36653e-20)
(0.120122 0.0513068 -9.39901e-21)
(0.0145303 0.00629034 0)
(0.236358 0.117882 0)
(1.11325 0.53907 4.09455e-21)
(1.30936 0.639664 -6.6842e-22)
(1.3331 0.66533 -5.0261e-21)
(1.28642 0.65809 -8.00486e-21)
(1.21886 0.639576 0)
(1.14835 0.618105 -8.75555e-21)
(1.0749 0.592864 -2.36015e-22)
(0.998917 0.562116 5.62006e-20)
(0.922117 0.524477 -8.35315e-21)
(0.85662 0.48422 -3.71664e-20)
(0.810344 0.448023 2.25977e-20)
(0.778126 0.416121 -4.26528e-22)
(0.748433 0.384602 3.37072e-20)
(0.698935 0.345714 2.08571e-20)
(0.602152 0.290507 -4.88405e-20)
(0.450037 0.215357 5.80847e-20)
(0.274655 0.131245 1.7233e-20)
(0.118271 0.0563499 7.13555e-20)
(0.0147387 0.00704103 -1.93098e-19)
(0.235275 0.127361 -3.34362e-21)
(1.10437 0.583277 3.88704e-21)
(1.29992 0.692695 -2.17964e-21)
(1.3215 0.71913 3.66177e-21)
(1.2737 0.709956 0)
(1.2055 0.689031 -7.51185e-21)
(1.13386 0.664916 2.93551e-20)
(1.05882 0.636861 2.11569e-20)
(0.980879 0.603254 0)
(0.901724 0.562458 -1.20193e-19)
(0.833665 0.518397 1.00406e-19)
(0.784936 0.47825 0)
(0.750317 0.442912 3.07519e-20)
(0.719036 0.40905 -4.191e-22)
(0.670614 0.368508 -6.64895e-20)
(0.578228 0.310437 2.60951e-20)
(0.433202 0.230532 0)
(0.263992 0.139841 9.2874e-20)
(0.112916 0.0590714 0)
(0.0138532 0.00721972 -9.12402e-20)
(0.23491 0.136809 4.29382e-21)
(1.09562 0.625342 5.84616e-21)
(1.28963 0.742968 -1.98468e-21)
(1.30909 0.770068 0)
(1.26027 0.759134 -6.54744e-21)
(1.19151 0.736021 0)
(1.11888 0.709506 -2.88568e-20)
(1.04244 0.678969 -9.78632e-21)
(0.962712 0.642835 9.87297e-21)
(0.881197 0.598965 -5.94276e-20)
(0.810437 0.551003 1.03589e-20)
(0.759287 0.506922 0)
(0.722669 0.468313 -6.56169e-20)
(0.69029 0.432129 4.20057e-22)
(0.64256 0.389395 0)
(0.553207 0.327713 3.85686e-22)
(0.413375 0.242368 8.4442e-20)
(0.249531 0.145119 -8.01857e-20)
(0.10466 0.059784 2.37387e-20)
(0.0122984 0.00695452 0)
(0.234915 0.146125 0)
(1.08714 0.665334 7.58952e-21)
(1.27886 0.790569 4.08052e-21)
(1.29623 0.818194 -4.88139e-22)
(1.24647 0.805632 -2.04581e-21)
(1.1772 0.78052 -1.66541e-20)
(1.1037 0.751867 1.07954e-20)
(1.02604 0.719193 -1.15495e-20)
(0.944615 0.680841 4.40456e-20)
(0.860672 0.634065 -9.48068e-20)
(0.78706 0.582287 -7.24085e-22)
(0.733472 0.534372 -2.87312e-20)
(0.695115 0.492557 1.06394e-19)
(0.661895 0.453873 -4.91427e-22)
(0.614463 0.408389 -5.14785e-20)
(0.526893 0.342399 -9.21872e-20)
(0.390875 0.250898 0)
(0.231742 0.14705 0)
(0.0940868 0.0583785 2.56069e-20)
(0.0103219 0.00627994 -1.51954e-20)
(0.235409 0.155409 6.68676e-21)
(1.0791 0.703166 -1.78983e-20)
(1.26781 0.835586 -4.45947e-21)
(1.28314 0.863578 0)
(1.23253 0.849495 -3.28645e-22)
(1.16281 0.82256 -1.49761e-20)
(1.08857 0.792041 2.58963e-20)
(1.00982 0.757563 4.53082e-20)
(0.92676 0.7173 5.71191e-20)
(0.840304 0.66785 -7.73366e-20)
(0.763682 0.612483 -8.60783e-20)
(0.707558 0.560854 7.6819e-20)
(0.667585 0.515756 0)
(0.633636 0.474231 -2.33388e-20)
(0.586188 0.425374 -5.56971e-20)
(0.499453 0.354243 -6.61739e-20)
(0.365963 0.255782 -7.87082e-20)
(0.211351 0.145587 2.33344e-20)
(0.0817675 0.054825 -1.3776e-20)
(0.00796619 0.00521381 5.4548e-23)
(0.236147 0.164471 0)
(1.07153 0.739316 0)
(1.25664 0.878093 5.50707e-22)
(1.27002 0.906306 0)
(1.21866 0.890808 3.81983e-21)
(1.14853 0.862218 9.90466e-21)
(1.07368 0.830094 0)
(0.993951 0.794126 5.34069e-21)
(0.909299 0.752237 9.50736e-20)
(0.820267 0.700415 -1.77718e-19)
(0.740461 0.641783 0)
(0.681629 0.58657 -4.93831e-20)
(0.639972 0.537977 -5.95048e-22)
(0.605278 0.493115 -4.76284e-22)
(0.557584 0.440122 5.94712e-20)
(0.470975 0.362943 -6.84195e-23)
(0.33874 0.256812 -1.6938e-19)
(0.188872 0.140661 5.01867e-20)
(0.068778 0.0496167 1.48857e-20)
(0.0055554 0.00391155 0)
(0.236894 0.173378 -2.85849e-20)
(1.06421 0.773761 -1.30497e-20)
(1.24542 0.918151 -1.5604e-20)
(1.257 0.946471 1.11238e-20)
(1.205 0.929644 3.37351e-21)
(1.13454 0.89958 0)
(1.05917 0.866106 1.53966e-20)
(0.978568 0.828929 -1.18875e-20)
(0.892365 0.785692 7.86718e-22)
(0.800727 0.731846 1.30896e-20)
(0.717569 0.670334 1.11286e-19)
(0.655762 0.611694 -1.73173e-20)
(0.612174 0.559354 -6.54982e-20)
(0.576557 0.510468 -2.71721e-20)
(0.528437 0.452371 3.23577e-20)
(0.441585 0.368166 -3.05711e-23)
(0.310371 0.253911 4.56475e-20)
(0.165764 0.132801 -1.07947e-19)
(0.0558595 0.0432388 1.28081e-19)
(0.0032436 0.00249511 1.89121e-20)
(0.237409 0.182028 1.11204e-20)
(1.05717 0.806593 -7.55545e-21)
(1.23428 0.955871 1.3026e-21)
(1.24419 0.984192 8.53905e-21)
(1.19163 0.966118 6.99319e-22)
(1.12092 0.934739 -1.68258e-20)
(1.04517 0.900153 4.3794e-21)
(0.963773 0.86201 -4.94192e-20)
(0.87608 0.817678 -1.04371e-19)
(0.78183 0.762183 -1.05724e-19)
(0.695174 0.698239 0)
(0.630051 0.636391 -7.59604e-20)
(0.584104 0.580085 9.43268e-20)
(0.547151 0.526316 0)
(0.498427 0.461803 -6.92619e-20)
(0.411384 0.36938 4.14697e-20)
(0.281625 0.246845 -4.90444e-20)
(0.143301 0.122435 -5.80984e-20)
(0.0439155 0.0362577 -1.03171e-19)
(0.00119796 0.00109653 -8.14542e-20)
(0.238257 0.190515 -1.28638e-20)
(1.05029 0.837796 8.0992e-21)
(1.22329 0.991309 1.8142e-20)
(1.23167 1.01955 1.33289e-20)
(1.17866 1.00033 -7.68523e-22)
(1.10778 0.967802 -8.57333e-21)
(1.03174 0.932304 1.46259e-20)
(0.949643 0.893415 -5.05554e-20)
(0.860525 0.848227 -6.16741e-20)
(0.763714 0.791465 1.1042e-19)
(0.673428 0.725567 2.44142e-19)
(0.604613 0.660807 0)
(0.555729 0.600423 0)
(0.516697 0.540859 -3.13012e-20)
(0.466975 0.468101 0)
(0.380223 0.365629 8.92627e-20)
(0.253606 0.234868 1.05564e-19)
(0.123422 0.10974 0)
(0.0342011 0.0292523 0)
(-0.000439799 -0.000151254 8.75495e-20)
(0.238735 0.198512 1.49322e-20)
(1.0436 0.867366 1.17832e-20)
(1.21252 1.02458 1.33608e-20)
(1.21948 1.05268 -1.39508e-20)
(1.16614 1.03239 -2.41981e-21)
(1.09517 0.998861 8.12859e-21)
(1.01894 0.962628 -1.98838e-20)
(0.93623 0.923174 2.02171e-23)
(0.84578 0.877349 -1.02647e-21)
(0.746484 0.819697 -1.08841e-21)
(0.652498 0.752361 1.25704e-19)
(0.579594 0.685058 0)
(0.527109 0.620659 9.53507e-20)
(0.484869 0.554512 6.6739e-20)
(0.433163 0.471275 1.61786e-19)
(0.347238 0.355652 4.80586e-20)
(0.227328 0.215759 -5.69131e-20)
(0.109985 0.0926369 -3.35002e-20)
(0.0314076 0.0213074 0)
(-0.000611806 -0.00103307 9.40893e-20)
(0.239547 0.206516 -3.44156e-20)
(1.03709 0.895447 0)
(1.20198 1.05572 1.63702e-20)
(1.20766 1.08364 -1.23098e-20)
(1.15411 1.0624 5.06696e-21)
(1.08313 1.02801 -7.44609e-21)
(1.0068 0.991185 3.78433e-20)
(0.923568 0.951319 -4.23934e-21)
(0.831887 0.905055 0)
(0.730229 0.846853 -1.21549e-19)
(0.632538 0.778633 -2.72903e-19)
(0.555178 0.709246 1.11806e-20)
(0.498404 0.641044 1.31258e-19)
(0.451511 0.56786 0)
(0.395876 0.472065 1.09171e-19)
(0.310049 0.33877 0)
(0.20088 0.184901 0)
(0.107462 0.05828 -3.63013e-20)
(0.0589541 -0.00145389 0)
(0.0260683 0.00642789 2.52246e-20)
(0.239907 0.213924 -3.89927e-20)
(1.03074 0.922262 0)
(1.19166 1.08494 2.78017e-20)
(1.19618 1.11269 0)
(1.14255 1.09062 -3.66563e-21)
(1.07159 1.05554 0)
(0.995268 1.01829 1.76318e-21)
(0.911565 0.978186 6.88638e-21)
(0.818739 0.931716 7.71235e-21)
(0.714803 0.873322 -1.33261e-19)
(0.613409 0.804829 8.18042e-21)
(0.531152 0.733965 9.00217e-20)
(0.469267 0.662223 1.28069e-19)
(0.415903 0.581745 1.72865e-20)
(0.353444 0.472345 8.55604e-20)
(0.264113 0.316551 0)
(0.16362 0.140286 1.20302e-19)
(0.0874409 0.00613651 -7.08022e-20)
(0.0325082 0.0575289 8.25784e-20)
(-0.038419 0.452071 -9.80735e-20)
(0.2402 0.221154 3.26257e-20)
(1.02435 0.947694 4.87493e-20)
(1.18151 1.11256 0)
(1.1849 1.14027 1.11315e-21)
(1.13126 1.11764 1.18772e-20)
(1.06032 1.08216 4.76848e-21)
(0.984032 1.04473 1.26456e-20)
(0.899828 1.00473 0)
(0.805826 0.958442 5.08055e-20)
(0.699545 0.900411 -6.91928e-21)
(0.594206 0.832418 0)
(0.50632 0.760953 0)
(0.438044 0.685872 1.1436e-19)
(0.376067 0.597288 -5.33562e-20)
(0.303072 0.474609 -8.64365e-20)
(0.205442 0.293557 0)
(0.0919123 0.138001 6.11714e-20)
(0.00824433 0.46534 -7.13211e-20)
(0.0326749 1.91859 -4.01286e-20)
(0.0595854 2.82038 -4.90641e-20)
(0.240118 0.227802 -2.4949e-20)
(1.01799 0.971924 -6.33943e-20)
(1.17155 1.13859 1.69962e-20)
(1.17384 1.16622 1.32983e-20)
(1.12034 1.14328 0)
(1.04938 1.10758 8.16757e-22)
(0.973295 1.07022 1.65187e-20)
(0.888537 1.0305 -3.28354e-21)
(0.793416 0.984712 7.57125e-21)
(0.684837 0.927511 1.26478e-19)
(0.575549 0.860722 1.3735e-19)
(0.481677 0.789926 1.0022e-19)
(0.405708 0.7118 1.14714e-19)
(0.333798 0.613299 -1.24747e-19)
(0.251601 0.481774 -1.30153e-19)
(0.132139 0.331179 0)
(0.044663 0.870285 0)
(0.092003 2.57507 3.39699e-20)
(0.0941748 3.20727 0)
(0.0949477 3.38776 8.89375e-20)
(0.242812 0.233972 0)
(1.01191 0.995306 0)
(1.1615 1.16287 0)
(1.16278 1.19037 4.17672e-21)
(1.10949 1.1673 1.14976e-20)
(1.03857 1.13166 -2.42216e-21)
(0.962979 1.09463 1.02833e-20)
(0.877621 1.05539 -3.17544e-21)
(0.781445 1.01035 6.28447e-20)
(0.670671 0.954459 -1.98204e-21)
(0.557532 0.889527 2.70553e-19)
(0.457662 0.820947 -1.15358e-20)
(0.372398 0.740553 1.38715e-20)
(0.291512 0.627529 1.80205e-20)
(0.190011 0.50091 -2.73353e-22)
(0.100378 1.01155 3.35471e-22)
(0.131318 2.75155 -1.76809e-19)
(0.136371 3.29976 -6.73478e-20)
(0.125513 3.42468 3.59933e-20)
(0.113653 3.4447 -4.06638e-20)
(0.165056 0.17882 1.55374e-20)
(1.00175 1.02052 0)
(1.15123 1.18571 -3.5977e-20)
(1.15207 1.213 -3.74424e-20)
(1.09917 1.19021 2.94081e-20)
(1.02857 1.15488 3.67863e-21)
(0.952929 1.11794 -1.01549e-20)
(0.867139 1.07937 3.43711e-20)
(0.77003 1.03538 -5.13465e-20)
(0.657293 0.981311 0)
(0.540434 0.918888 1.32874e-19)
(0.434859 0.853808 -8.14809e-20)
(0.338627 0.775055 0)
(0.242941 0.644875 1.72523e-20)
(0.143078 0.824995 4.16516e-20)
(0.145529 2.54938 -4.79734e-20)
(0.195434 3.33129 5.49358e-20)
(0.17642 3.43811 2.98352e-20)
(0.145752 3.45643 3.44065e-20)
(0.125645 3.46474 5.50901e-20)
(0.278212 0.273077 -2.99033e-20)
(0.985144 1.03156 0)
(1.1331 1.21169 3.9522e-20)
(1.13746 1.24643 4.26855e-20)
(1.08256 1.224 -3.4595e-20)
(1.0117 1.18927 -9.06444e-21)
(0.935126 1.15405 7.41845e-21)
(0.848781 1.11684 2.68683e-21)
(0.750139 1.07485 4.81764e-20)
(0.634308 1.02438 1.08043e-19)
(0.511921 0.967496 7.43867e-21)
(0.397066 0.909494 7.19043e-20)
(0.280199 0.832636 1.2956e-20)
(0.208955 1.0003 -1.64809e-20)
(0.215032 2.41931 -3.78687e-20)
(0.265714 3.33889 3.79612e-20)
(0.24897 3.46732 -4.19831e-20)
(0.214239 3.48476 -2.44665e-20)
(0.179917 3.50825 -2.2417e-20)
(0.134804 3.50192 -3.29681e-21)
(0.26868 0.272171 0)
(0.982602 1.05485 1.17557e-20)
(1.12476 1.23545 -8.23525e-21)
(1.12708 1.27002 -5.18065e-21)
(1.07204 1.24743 -2.4572e-20)
(1.00144 1.21302 9.94509e-21)
(0.924625 1.17819 -2.96296e-21)
(0.838068 1.14186 2.36256e-21)
(0.738824 1.10123 -4.97426e-20)
(0.621615 1.0534 -2.93863e-21)
(0.496468 1.0009 -2.3796e-19)
(0.377003 0.94764 1.02304e-20)
(0.270448 0.908879 -1.22248e-20)
(0.243957 1.5741 -1.51477e-20)
(0.303713 3.14522 3.6041e-21)
(0.318502 3.4715 3.96687e-22)
(0.276681 3.51782 6.24788e-20)
(0.242377 3.53886 3.19735e-20)
(0.196545 3.55774 -1.07385e-20)
(0.146624 3.55313 -1.65001e-20)
(0.254627 0.270309 3.04141e-20)
(0.979171 1.08075 8.01836e-20)
(1.11602 1.26133 -2.36651e-20)
(1.11626 1.29516 -1.95984e-20)
(1.06114 1.27236 0)
(0.990824 1.23811 2.0772e-20)
(0.914024 1.2037 -1.02698e-21)
(0.827496 1.16816 2.0159e-21)
(0.727954 1.12898 -5.53692e-21)
(0.609887 1.08399 -9.62996e-20)
(0.482848 1.03637 -1.09127e-19)
(0.35914 0.98856 -8.38473e-20)
(0.273173 1.05275 -9.13356e-20)
(0.306404 2.30885 9.45344e-20)
(0.381841 3.39946 8.13079e-20)
(0.356184 3.52979 0)
(0.307684 3.5639 0)
(0.270891 3.59594 -8.33702e-21)
(0.226185 3.64049 0)
(0.1572 3.6235 -1.36719e-20)
(0.244673 0.272367 -4.58175e-20)
(0.973782 1.10756 -6.84465e-20)
(1.1059 1.28847 0)
(1.10421 1.32121 1.34258e-21)
(1.04906 1.29799 -2.7715e-20)
(0.979154 1.26381 3.53583e-20)
(0.902687 1.22985 1.30291e-21)
(0.816403 1.195 9.76272e-22)
(0.716812 1.15719 -3.40856e-20)
(0.598293 1.11504 4.74988e-21)
(0.470177 1.07242 0)
(0.34795 1.03499 0)
(0.299839 1.33631 -8.26351e-20)
(0.381556 2.97248 3.38795e-20)
(0.445755 3.50098 4.36092e-20)
(0.393821 3.56473 0)
(0.351947 3.61883 -4.56362e-21)
(0.31071 3.66234 -3.93653e-21)