/*--------------------------------*- C++ -*----------------------------------*\
  =========                 |
  \\      /  F ield         | OpenFOAM: The Open Source CFD Toolbox
   \\    /   O peration     | Website:  https://openfoam.org
    \\  /    A nd           | Version:  6
     \\/     M anipulation  |
\*---------------------------------------------------------------------------*/
FoamFile
{
    version     2.0;
    format      ascii;
    class       volScalarField;
    location    "101.6";
    object      p;
}
// * * * * * * * * * * * * * * * * * * * * * * * * * * * * * * * * * * * * * //

dimensions      [0 2 -2 0 0 0 0];

internalField   nonuniform List<scalar> 
8800
(
0.915712
0.866398
0.828435
0.800369
0.780213
0.765634
0.755046
0.747521
0.742656
0.740614
0.742013
0.746381
0.753194
0.762634
0.775381
0.79271
0.816592
0.849693
0.892633
0.945148
0.750199
0.756545
0.765697
0.769249
0.766645
0.760563
0.753631
0.747403
0.742619
0.739775
0.739574
0.742231
0.746897
0.753043
0.760157
0.7672
0.772087
0.771967
0.765298
0.756402
0.723701
0.729938
0.734442
0.738318
0.741272
0.74223
0.741154
0.73905
0.737093
0.736284
0.737351
0.739835
0.742745
0.745034
0.745569
0.743791
0.740433
0.736427
0.73165
0.727934
0.719379
0.722146
0.724756
0.72692
0.728666
0.730245
0.731363
0.731735
0.731649
0.731783
0.732628
0.733806
0.734577
0.734449
0.733491
0.732151
0.730492
0.728198
0.725792
0.724226
0.714294
0.71572
0.717565
0.719653
0.721376
0.722682
0.723798
0.724802
0.725643
0.726423
0.727182
0.727685
0.727744
0.727409
0.726763
0.725665
0.724024
0.72214
0.720792
0.71999
0.709266
0.71017
0.711422
0.713058
0.714764
0.716313
0.717619
0.718771
0.719875
0.720945
0.72179
0.722232
0.722286
0.721954
0.721179
0.720013
0.718671
0.717418
0.716604
0.716079
0.70431
0.704967
0.705934
0.707263
0.708726
0.710263
0.711775
0.713176
0.714487
0.715757
0.716781
0.717341
0.717414
0.717023
0.716278
0.715365
0.714398
0.71351
0.712938
0.712553
0.699421
0.699927
0.70072
0.701874
0.703194
0.704637
0.706179
0.707765
0.709337
0.710872
0.712118
0.71281
0.712959
0.712695
0.712179
0.711528
0.710822
0.71018
0.709762
0.709461
0.694543
0.694945
0.695613
0.696651
0.697905
0.699302
0.700848
0.702544
0.704348
0.706191
0.707719
0.70863
0.708995
0.70898
0.708719
0.708302
0.707812
0.70737
0.707063
0.706819
0.689592
0.68992
0.690502
0.691466
0.69268
0.694075
0.695669
0.697482
0.699507
0.70168
0.703575
0.704826
0.705507
0.705782
0.705781
0.70561
0.705329
0.705054
0.704833
0.704627
0.684476
0.684748
0.685272
0.686194
0.687401
0.688835
0.690522
0.692499
0.694785
0.697344
0.6997
0.701386
0.702451
0.703056
0.70334
0.70342
0.703353
0.703229
0.703078
0.702899
0.679101
0.679329
0.679817
0.680729
0.681969
0.683486
0.68531
0.687511
0.690133
0.693171
0.696087
0.698295
0.699807
0.700794
0.701401
0.701738
0.701899
0.70192
0.701825
0.701664
0.673368
0.673562
0.674033
0.674964
0.676279
0.677924
0.679944
0.68244
0.68549
0.68912
0.692715
0.695545
0.697583
0.699009
0.699986
0.70063
0.701018
0.701172
0.701125
0.700976
0.667166
0.667333
0.667803
0.668783
0.670214
0.672041
0.674326
0.677201
0.680785
0.685142
0.689559
0.693134
0.695796
0.697735
0.699137
0.700123
0.700761
0.701049
0.701045
0.700902
0.660366
0.660509
0.660995
0.662052
0.663644
0.665714
0.668344
0.671701
0.675947
0.681189
0.686598
0.691064
0.694468
0.697012
0.6989
0.70028
0.701201
0.701628
0.701662
0.701521
0.652813
0.652934
0.653449
0.654613
0.656419
0.658803
0.66187
0.66583
0.670891
0.677212
0.683814
0.689343
0.693623
0.696884
0.699353
0.70119
0.702428
0.703
0.703068
0.702925
0.644315
0.644418
0.644967
0.646273
0.648353
0.651136
0.654752
0.65946
0.665527
0.673156
0.68119
0.687983
0.693297
0.697401
0.700569
0.702942
0.704535
0.705259
0.705358
0.705208
0.63458
0.634684
0.635301
0.636782
0.639217
0.642501
0.646805
0.652445
0.659747
0.668966
0.678709
0.686998
0.693532
0.698629
0.702616
0.705617
0.707613
0.708495
0.708619
0.708459
0.623307
0.623387
0.624093
0.625832
0.628712
0.632635
0.637807
0.64461
0.653435
0.664582
0.676364
0.686405
0.694368
0.700631
0.705564
0.709304
0.711743
0.712782
0.712924
0.71275
0.61008
0.610148
0.610965
0.613016
0.616462
0.621204
0.627482
0.635753
0.646464
0.659948
0.674147
0.686231
0.695839
0.703455
0.70949
0.714063
0.716975
0.718161
0.718309
0.718118
0.594284
0.594344
0.595313
0.597788
0.601983
0.607793
0.615504
0.625646
0.638711
0.655025
0.672067
0.686503
0.697984
0.70714
0.71442
0.719917
0.723312
0.724615
0.724754
0.724543
0.575079
0.575134
0.576329
0.579401
0.584614
0.591869
0.601482
0.614054
0.630075
0.649808
0.670152
0.68725
0.700833
0.711706
0.720351
0.726843
0.73068
0.732048
0.732157
0.731926
0.551219
0.551279
0.55283
0.556801
0.563483
0.572765
0.58499
0.600771
0.620518
0.644346
0.668465
0.688515
0.704397
0.717142
0.727249
0.734731
0.738909
0.74026
0.740316
0.740068
0.520756
0.520849
0.523018
0.528452
0.53744
0.549717
0.565643
0.585702
0.610109
0.638765
0.667116
0.690356
0.708688
0.723388
0.735025
0.743381
0.74771
0.748937
0.74892
0.748663
0.480393
0.480626
0.484077
0.492218
0.505114
0.52206
0.54328
0.568975
0.599082
0.633282
0.666256
0.692862
0.713705
0.730401
0.743509
0.752485
0.756687
0.757673
0.757573
0.757319
0.423835
0.425023
0.431939
0.445742
0.465483
0.489671
0.518241
0.551059
0.587856
0.628195
0.666055
0.696117
0.71946
0.738067
0.752449
0.761638
0.765364
0.766027
0.765856
0.765617
0.341959
0.350009
0.365969
0.390182
0.420173
0.454059
0.491565
0.532515
0.576668
0.623619
0.666684
0.700447
0.726501
0.747131
0.762441
0.771382
0.774417
0.77476
0.774552
0.774357
0.254575
0.272271
0.29821
0.333609
0.374412
0.418105
0.464512
0.51364
0.56536
0.619369
0.668287
0.706359
0.735673
0.758494
0.774484
0.782431
0.784467
0.784533
0.784361
0.784243
0.179479
0.20114
0.235407
0.280373
0.330738
0.383667
0.438726
0.495858
0.554911
0.61559
0.66987
0.711779
0.743878
0.768404
0.784376
0.791066
0.792375
0.792351
0.792224
0.792141
0.117673
0.141752
0.181736
0.233564
0.291382
0.351993
0.414647
0.479071
0.544915
0.61178
0.670956
0.716304
0.750784
0.77654
0.792277
0.798099
0.799053
0.799
0.798896
0.798827
0.0662359
0.0917828
0.135905
0.193051
0.256806
0.323695
0.392763
0.463558
0.535501
0.608003
0.671658
0.720104
0.756705
0.783527
0.798988
0.80415
0.80489
0.804817
0.804724
0.804658
0.0225735
0.0489836
0.0961616
0.1576
0.226321
0.298539
0.373121
0.449497
0.526896
0.604516
0.672254
0.723504
0.761971
0.78962
0.804773
0.809451
0.810063
0.809977
0.809884
0.809816
-0.0153945
0.0115726
0.0611257
0.126118
0.199076
0.275932
0.355396
0.436786
0.519154
0.601476
0.672942
0.726679
0.766713
0.794954
0.80977
0.814098
0.814639
0.814548
0.814456
0.81438
-0.049186
-0.0218003
0.0296957
0.0977164
0.174354
0.255295
0.339158
0.425149
0.512143
0.598882
0.673804
0.729753
0.771066
0.799661
0.814102
0.818168
0.818681
0.818605
0.818523
0.818439
-0.079865
-0.0521153
0.00101946
0.071688
0.151577
0.236163
0.324022
0.414277
0.505663
0.596645
0.674869
0.73285
0.77521
0.803944
0.817954
0.821803
0.822322
0.822297
0.822242
0.822154
-0.108282
-0.0801634
-0.0255671
0.0474957
0.130283
0.218153
0.309669
0.403916
0.499507
0.594661
0.676162
0.736098
0.77936
0.808072
0.821603
0.82525
0.825797
0.825852
0.825848
0.825764
-0.134873
-0.106427
-0.0505002
0.0247101
0.110112
0.200964
0.29585
0.393848
0.493505
0.592838
0.677709
0.739631
0.783743
0.81234
0.82537
0.828817
0.829393
0.829539
0.829599
0.829524
-0.160167
-0.131318
-0.074162
0.00301205
0.0907849
0.184355
0.282363
0.383899
0.487503
0.591068
0.679516
0.743567
0.788551
0.816997
0.829527
0.832764
0.833347
0.83357
0.833693
0.833634
-0.184342
-0.155089
-0.0967833
-0.0178229
0.0720964
0.168154
0.269051
0.373923
0.481357
0.589236
0.681555
0.747991
0.793926
0.822207
0.834225
0.837221
0.837781
0.838053
0.838226
0.838185
-0.207591
-0.17792
-0.118544
-0.0379472
0.0539186
0.15224
0.2558
0.363799
0.474937
0.587199
0.683734
0.752956
0.79998
0.828059
0.839477
0.842192
0.842691
0.842978
0.843177
0.843153
-0.230056
-0.199925
-0.139546
-0.057454
0.0361552
0.136534
0.242534
0.35345
0.468131
0.584798
0.685916
0.758456
0.806843
0.834597
0.845231
0.847553
0.847967
0.848243
0.848442
0.848429
-0.251851
-0.221218
-0.159844
-0.076398
0.0187702
0.120989
0.229212
0.342816
0.460852
0.581874
0.68792
0.764426
0.814662
0.842018
0.851454
0.853094
0.853395
0.853688
0.85387
0.853844
-0.272886
-0.241779
-0.179462
-0.0948205
0.0017366
0.105606
0.215816
0.331877
0.453042
0.578308
0.689527
0.770731
0.823565
0.85067
0.858332
0.858672
0.858671
0.859127
0.859457
0.859433
-0.29318
-0.261626
-0.198432
-0.112728
-0.0149416
0.0903844
0.202369
0.320626
0.444675
0.573985
0.690521
0.777134
0.833587
0.861047
0.866608
0.864691
0.863708
0.864512
0.865563
0.865768
-0.31282
-0.280757
-0.216773
-0.130126
-0.0312427
0.0753614
0.188903
0.309098
0.435748
0.568832
0.690668
0.783328
0.844581
0.873591
0.877551
0.872745
0.869674
0.870626
0.873286
0.874697
-0.331692
-0.299176
-0.234458
-0.146978
-0.0471435
0.0605838
0.175471
0.297343
0.426295
0.562825
0.689762
0.788935
0.856169
0.888266
0.892102
0.885089
0.879195
0.878246
0.880925
0.882751
-0.349897
-0.316918
-0.251511
-0.163337
-0.0626977
0.0459953
0.162006
0.285286
0.416224
0.555859
0.687585
0.793604
0.868008
0.904727
0.910364
0.902876
0.894176
0.886558
0.878773
0.882115
-0.367389
-0.334048
-0.268083
-0.179403
-0.0782001
0.0312764
0.148111
0.272475
0.405042
0.547385
0.683602
0.796747
0.879966
0.922953
0.93179
0.925492
0.913155
0.897548
0.874669
0.877877
-0.384059
-0.350569
-0.28403
-0.195
-0.0934058
0.016706
0.133955
0.259182
0.392961
0.537497
0.67756
0.797165
0.890445
0.941073
0.952087
0.94564
0.9295
0.896992
0.841305
0.818449
-0.399815
-0.367516
-0.298959
-0.2097
-0.107513
0.00277091
0.119816
0.245675
0.380244
0.52632
0.669362
0.793945
0.897475
0.956865
0.965022
0.952423
0.923364
0.863866
0.801328
0.76373
-0.441564
-0.384263
-0.312576
-0.224475
-0.121299
-0.0115393
0.105839
0.231813
0.366642
0.513417
0.658374
0.786015
0.897041
0.964098
0.966169
0.932204
0.866965
0.792024
0.720215
0.680513
-0.414876
-0.395961
-0.333205
-0.244475
-0.142734
-0.0330793
0.0838007
0.209496
0.344072
0.490664
0.636095
0.764745
0.870485
0.944878
0.911343
0.781929
0.678764
0.607122
0.538282
0.558614
-0.444569
-0.412535
-0.348893
-0.260577
-0.159187
-0.0496096
0.0676072
0.192867
0.326785
0.472261
0.616013
0.74181
0.836448
0.877616
0.806445
0.649526
0.528576
0.446931
0.360173
0.398331
-0.467217
-0.432895
-0.367561
-0.279185
-0.177827
-0.0681952
0.0490224
0.173661
0.306482
0.449978
0.590366
0.710149
0.792429
0.795595
0.66931
0.500276
0.361012
0.260522
0.161055
0.185442
-0.489057
-0.453781
-0.387156
-0.29816
-0.196721
-0.0871653
0.0296045
0.153395
0.284796
0.425693
0.561304
0.671344
0.735849
0.704828
0.528519
0.340551
0.172878
0.0332493
-0.0951494
-0.0900384
-0.510493
-0.474923
-0.407473
-0.317937
-0.21638
-0.107033
0.00910265
0.131832
0.26142
0.399101
0.528599
0.628325
0.671143
0.588621
0.389181
0.183304
-0.00887588
-0.166646
-0.372875
-0.453442
-0.532217
-0.496801
-0.428914
-0.33903
-0.237358
-0.128216
-0.0126915
0.108873
0.236406
0.370393
0.492857
0.582975
0.596284
0.462869
0.261206
0.0452481
-0.150949
-0.314097
-0.437336
-0.550647
-0.555288
-0.51989
-0.45183
-0.361822
-0.260194
-0.151386
-0.0366128
0.083544
0.208565
0.33809
0.452767
0.529067
0.512701
0.343155
0.140961
-0.068438
-0.247816
-0.346484
-0.37239
-0.38545
-0.579849
-0.544486
-0.476351
-0.386399
-0.285032
-0.176771
-0.0630459
0.0553152
0.177254
0.301373
0.40748
0.464402
0.426608
0.227953
0.0282315
-0.160668
-0.296388
-0.334882
-0.343321
-0.343667
-0.606192
-0.57072
-0.502517
-0.412751
-0.311823
-0.204387
-0.0920308
0.0241088
0.142377
0.260225
0.356945
0.395801
0.321955
0.122063
-0.0707325
-0.23489
-0.31108
-0.325167
-0.326179
-0.326053
-0.634321
-0.598624
-0.530356
-0.440884
-0.340597
-0.23424
-0.123595
-0.0101133
0.103932
0.214761
0.3009
0.322719
0.209759
0.025461
-0.156199
-0.286178
-0.315455
-0.316072
-0.316617
-0.316217
-0.663991
-0.628049
-0.559781
-0.47073
-0.371281
-0.266294
-0.157731
-0.0473468
0.0619709
0.165105
0.240511
0.241977
0.110894
-0.0625164
-0.222909
-0.298017
-0.312778
-0.310761
-0.310458
-0.310069
-0.694653
-0.658649
-0.590536
-0.502069
-0.403701
-0.300405
-0.194305
-0.0874827
0.0167238
0.111762
0.176102
0.160873
0.0207493
-0.139274
-0.267717
-0.306749
-0.306089
-0.306305
-0.306021
-0.305699
-0.725867
-0.689898
-0.622141
-0.534493
-0.437513
-0.336257
-0.233035
-0.130244
-0.0315055
0.0557274
0.106664
0.0846058
-0.0597081
-0.199657
-0.293952
-0.302274
-0.303526
-0.303748
-0.303589
-0.303352
-0.756655
-0.720937
-0.653881
-0.567375
-0.47217
-0.373374
-0.273458
-0.175129
-0.0822823
-0.00210485
0.0375462
0.0083262
-0.127738
-0.241859
-0.298903
-0.308938
-0.30346
-0.302397
-0.301986
-0.301775
-0.785372
-0.750498
-0.684728
-0.599838
-0.506898
-0.411047
-0.314893
-0.221385
-0.134801
-0.0612571
-0.0264268
-0.0695864
-0.182461
-0.274256
-0.296894
-0.300284
-0.301019
-0.300571
-0.300349
-0.300222
-0.810785
-0.777089
-0.713295
-0.630685
-0.540637
-0.448333
-0.35645
-0.268077
-0.18778
-0.121183
-0.0885688
-0.136511
-0.22355
-0.29332
-0.314257
-0.303828
-0.300183
-0.299049
-0.298753
-0.298619
-0.830286
-0.798625
-0.737841
-0.658409
-0.572078
-0.484045
-0.397014
-0.314119
-0.239901
-0.180069
-0.150175
-0.188666
-0.250317
-0.295639
-0.301229
-0.300527
-0.298768
-0.298188
-0.298008
-0.297838
-0.841875
-0.813037
-0.756317
-0.68128
-0.599702
-0.516796
-0.435269
-0.358237
-0.290061
-0.235292
-0.206507
-0.231934
-0.265623
-0.291682
-0.292278
-0.296593
-0.298538
-0.298787
-0.298756
-0.298656
-0.842889
-0.81798
-0.766654
-0.697471
-0.621889
-0.545129
-0.469787
-0.398949
-0.337034
-0.28616
-0.253559
-0.271143
-0.279368
-0.292679
-0.296931
-0.298652
-0.299991
-0.300393
-0.300476
-0.300493
-0.830966
-0.81082
-0.766733
-0.705263
-0.63718
-0.567683
-0.49923
-0.434762
-0.379032
-0.333897
-0.288928
-0.308633
-0.296137
-0.303357
-0.305194
-0.303494
-0.302833
-0.302989
-0.303216
-0.303291
-0.804026
-0.789327
-0.754757
-0.703457
-0.644547
-0.583466
-0.522592
-0.464592
-0.414236
-0.376727
-0.328903
-0.325527
-0.319666
-0.324926
-0.315772
-0.31183
-0.30912
-0.308633
-0.308727
-0.308711
-0.765538
-0.756177
-0.731978
-0.692363
-0.644036
-0.592234
-0.539341
-0.487799
-0.442192
-0.41032
-0.379147
-0.351905
-0.326852
-0.335627
-0.340233
-0.328455
-0.320321
-0.318194
-0.318305
-0.318225
-0.722529
-0.717189
-0.703306
-0.675087
-0.637743
-0.594883
-0.549544
-0.504113
-0.462507
-0.431641
-0.40345
-0.374168
-0.336497
-0.30759
-0.291299
-0.299433
-0.321606
-0.33562
-0.339554
-0.339725
-0.684738
-0.681471
-0.674839
-0.656909
-0.628533
-0.593203
-0.55426
-0.513515
-0.473837
-0.441266
-0.415022
-0.393424
-0.377309
-0.371384
-0.384616
-0.421366
-0.432752
-0.412446
-0.401508
-0.404672
-0.657527
-0.65559
-0.652222
-0.641631
-0.620039
-0.590288
-0.555444
-0.51685
-0.477063
-0.440948
-0.412501
-0.403925
-0.441698
-0.520547
-0.607659
-0.659109
-0.668072
-0.631742
-0.580226
-0.563358
-0.637592
-0.636908
-0.635771
-0.630532
-0.614766
-0.58867
-0.555027
-0.516332
-0.47364
-0.430548
-0.400234
-0.376717
-0.386634
-0.43759
-0.528568
-0.556141
-0.53182
-0.491215
-0.446563
-0.423995
-0.625974
-0.625748
-0.625129
-0.622714
-0.612019
-0.588091
-0.554132
-0.513347
-0.465961
-0.413944
-0.370048
-0.311896
-0.243274
-0.180203
-0.159939
-0.13206
-0.0781302
-0.0291225
0.00929671
0.0277729
-0.617999
-0.61785
-0.617438
-0.616743
-0.610223
-0.588717
-0.553808
-0.50949
-0.456775
-0.393186
-0.327049
-0.244227
-0.103174
0.0878882
0.284625
0.451657
0.548237
0.596243
0.613157
0.618803
-0.612859
-0.612814
-0.612692
-0.61253
-0.608654
-0.590562
-0.5547
-0.506191
-0.447517
-0.373022
-0.28934
-0.192711
-0.00672391
0.257274
0.527396
0.7641
0.922824
0.997448
1.02439
1.03201
-0.60873
-0.608725
-0.608654
-0.608541
-0.607149
-0.592925
-0.556948
-0.504741
-0.440477
-0.358741
-0.263404
-0.160938
0.032452
0.312073
0.612014
0.878417
1.07049
1.17623
1.22324
1.23957
-0.605279
-0.605306
-0.605232
-0.605037
-0.604852
-0.594942
-0.560407
-0.506364
-0.437836
-0.352313
-0.251839
-0.147789
0.0324092
0.306179
0.605489
0.882026
1.09836
1.22431
1.27828
1.29385
-0.602645
-0.602698
-0.602759
-0.602829
-0.603276
-0.596238
-0.565094
-0.510595
-0.440743
-0.354155
-0.255288
-0.157725
-0.00620035
0.244159
0.512453
0.755155
0.955129
1.0787
1.12874
1.14077
-0.600018
-0.600155
-0.600414
-0.60084
-0.601076
-0.597152
-0.569895
-0.517631
-0.448821
-0.364183
-0.271672
-0.185214
-0.0704745
0.137881
0.363604
0.556392
0.711993
0.807217
0.844729
0.853072
-0.598285
-0.598375
-0.598198
-0.597558
-0.596671
-0.594998
-0.573957
-0.526935
-0.461294
-0.38054
-0.29562
-0.220218
-0.132248
0.0293455
0.203563
0.344689
0.456071
0.522492
0.547005
0.551496
-0.599686
-0.599587
-0.598847
-0.596735
-0.593673
-0.592195
-0.57919
-0.538934
-0.476444
-0.400022
-0.325111
-0.260054
-0.196867
-0.0774247
0.0532939
0.153905
0.228186
0.270643
0.286097
0.288656
-0.604777
-0.604781
-0.604619
-0.604014
-0.602697
-0.601766
-0.592949
-0.554244
-0.49187
-0.421742
-0.356276
-0.299901
-0.250753
-0.166321
-0.0734594
-0.00378297
0.0454983
0.0716004
0.0805042
0.081917
-0.610454
-0.611167
-0.613703
-0.620376
-0.629836
-0.63404
-0.619491
-0.571507
-0.506642
-0.44459
-0.386793
-0.336294
-0.298291
-0.234075
-0.167574
-0.12136
-0.0911645
-0.0753122
-0.0693865
-0.0684514
-0.61222
-0.613559
-0.618593
-0.632857
-0.655192
-0.665067
-0.642318
-0.581603
-0.520784
-0.467955
-0.413786
-0.36829
-0.338866
-0.291
-0.239161
-0.203732
-0.18176
-0.16977
-0.165845
-0.165151
-0.614698
-0.615685
-0.61909
-0.626391
-0.636767
-0.646268
-0.619478
-0.573437
-0.532296
-0.486789
-0.434034
-0.395822
-0.371292
-0.33168
-0.288448
-0.258139
-0.237297
-0.225467
-0.221085
-0.220879
-0.625217
-0.625679
-0.625789
-0.612272
-0.574831
-0.544501
-0.547529
-0.549413
-0.537534
-0.497505
-0.450071
-0.418105
-0.398996
-0.361354
-0.320174
-0.291162
-0.269969
-0.257828
-0.253997
-0.254157
-0.642355
-0.641718
-0.637823
-0.61009
-0.545632
-0.490703
-0.505098
-0.546526
-0.546476
-0.506693
-0.460996
-0.434867
-0.416192
-0.381629
-0.342818
-0.313609
-0.291492
-0.278883
-0.274975
-0.27541
-0.673045
-0.670063
-0.669348
-0.662047
-0.639521
-0.603224
-0.597259
-0.60681
-0.580248
-0.518133
-0.470644
-0.44456
-0.422673
-0.387708
-0.351546
-0.324381
-0.303866
-0.292365
-0.28867
-0.289178
-0.757651
-0.761212
-0.78861
-0.828992
-0.84778
-0.828401
-0.787505
-0.720506
-0.62508
-0.531046
-0.479764
-0.444111
-0.41935
-0.385479
-0.351123
-0.325311
-0.306737
-0.29682
-0.293619
-0.294152
-0.883713
-0.89818
-0.937849
-0.980812
-1.00082
-0.984173
-0.922931
-0.807306
-0.656175
-0.541174
-0.476615
-0.432203
-0.404751
-0.372025
-0.339782
-0.31595
-0.299619
-0.291128
-0.288215
-0.288659
-0.954081
-0.969062
-0.99873
-1.02843
-1.04451
-1.02831
-0.959267
-0.808078
-0.642153
-0.52842
-0.452091
-0.404908
-0.379802
-0.34642
-0.315036
-0.293204
-0.279071
-0.271711
-0.26921
-0.269618
-0.915319
-0.925315
-0.946131
-0.968823
-0.983037
-0.970109
-0.901174
-0.740205
-0.590469
-0.481916
-0.402102
-0.363543
-0.340027
-0.307075
-0.277736
-0.257763
-0.244496
-0.237425
-0.235213
-0.235714
-0.772099
-0.782097
-0.800906
-0.823699
-0.840845
-0.831363
-0.761039
-0.628468
-0.510304
-0.40584
-0.338688
-0.308605
-0.284311
-0.254928
-0.230133
-0.211868
-0.198419
-0.191118
-0.189258
-0.189983
-0.555246
-0.566372
-0.587155
-0.613093
-0.634907
-0.628691
-0.568258
-0.477935
-0.388855
-0.311085
-0.267947
-0.239113
-0.220252
-0.197392
-0.175957
-0.159259
-0.146838
-0.140304
-0.139031
-0.139991
-0.298634
-0.308129
-0.329334
-0.361029
-0.389731
-0.392301
-0.35848
-0.307309
-0.252939
-0.211413
-0.183505
-0.163089
-0.154917
-0.137679
-0.120577
-0.107458
-0.0972609
-0.0922892
-0.0918454
-0.0928537
-0.0816611
-0.0916022
-0.113277
-0.141829
-0.16821
-0.180784
-0.174041
-0.155718
-0.131737
-0.112641
-0.0957575
-0.0897413
-0.0890663
-0.0761811
-0.0662863
-0.0583385
-0.0515919
-0.0489691
-0.0494591
-0.0504322
0.0225543
0.0162768
0.00449416
-0.00972309
-0.0221406
-0.0294196
-0.0338854
-0.0334816
-0.0286746
-0.0252928
-0.0213318
-0.0189
-0.017416
-0.0162049
-0.0144652
-0.0151823
-0.0153475
-0.0156527
-0.0134462
-0.0124335
0.0341888
0.217584
0.385001
0.525761
0.636531
0.722027
0.791957
0.848527
0.861886
0.8591
0.3116
0.428421
0.5375
0.631069
0.708907
0.772442
0.822199
0.855785
0.873819
0.890832
0.499014
0.576354
0.652666
0.719287
0.775705
0.822331
0.859129
0.887426
0.908774
0.928075
0.637697
0.692789
0.748067
0.797555
0.840202
0.876522
0.90712
0.932861
0.952711
0.971625
0.750395
0.791933
0.833073
0.871631
0.906136
0.936719
0.96353
0.986359
1.00411
1.02222
0.844646
0.879252
0.913281
0.945948
0.976128
1.00353
1.0278
1.04828
1.06384
1.08133
0.931137
0.962434
0.993965
1.02451
1.05295
1.07886
1.10162
1.12031
1.13406
1.15106
1.01691
1.0491
1.08108
1.11191
1.14036
1.16587
1.18776
1.20511
1.21736
1.23386
1.11061
1.1469
1.18143
1.21366
1.24261
1.26776
1.2887
1.30486
1.31637
1.33249
1.22338
1.2641
1.30093
1.3336
1.36189
1.38574
1.40525
1.42044
1.43225
1.4483
1.3648
1.40563
1.44077
1.47018
1.49526
1.51679
1.53522
1.55065
1.56372
1.57965
1.53606
1.56798
1.59492
1.61726
1.6373
1.65598
1.67368
1.69042
1.70531
1.72102
1.72208
1.73926
1.75633
1.773
1.78908
1.8038
1.81769
1.83215
1.84737
1.86467
1.90545
1.91535
1.9285
1.93948
1.94888
1.95853
1.96913
1.97929
1.98857
2.01424
2.12323
2.11752
2.10457
2.09032
2.08401
2.0897
2.10784
2.13636
2.17012
2.20645
2.42605
2.29011
2.21058
2.16802
2.15069
2.15468
2.1821
2.23996
2.34762
2.52603
0.819403
0.813102
0.805375
0.794265
0.780702
0.768064
0.757683
0.749696
0.744012
0.74073
0.740442
0.743335
0.748617
0.756011
0.765587
0.777435
0.79101
0.803949
0.812945
0.820489
0.728455
0.734376
0.742453
0.748591
0.751669
0.75117
0.748101
0.744132
0.740581
0.738349
0.738282
0.740602
0.744409
0.748895
0.753026
0.755293
0.754234
0.749609
0.742561
0.734731
0.721677
0.72405
0.727322
0.730103
0.732565
0.734769
0.73597
0.735852
0.734957
0.734209
0.734499
0.735989
0.737832
0.739107
0.739067
0.737626
0.735487
0.733139
0.730167
0.727153
0.716849
0.717937
0.71986
0.722207
0.724093
0.725509
0.726753
0.72778
0.728429
0.728875
0.729517
0.730349
0.730887
0.730824
0.730237
0.729346
0.728039
0.726087
0.723992
0.722518
0.711773
0.712406
0.713541
0.715311
0.717171
0.718787
0.720068
0.721173
0.722213
0.723192
0.724082
0.724708
0.724931
0.72479
0.724304
0.723369
0.721971
0.720383
0.71906
0.718262
0.706781
0.70722
0.708015
0.709333
0.710876
0.712466
0.713981
0.715326
0.71655
0.717733
0.71881
0.719538
0.71982
0.719666
0.719065
0.718114
0.716998
0.715882
0.714995
0.714465
0.701863
0.702189
0.702809
0.703895
0.705216
0.706649
0.708171
0.709705
0.711179
0.712596
0.713892
0.71479
0.715142
0.714997
0.714479
0.713756
0.712958
0.712138
0.711496
0.711108
0.69699
0.697242
0.697743
0.698675
0.699878
0.701226
0.702701
0.7043
0.705977
0.707675
0.709251
0.710355
0.710852
0.710877
0.710593
0.710124
0.70955
0.708966
0.708508
0.708212
0.692087
0.692287
0.692706
0.69353
0.694661
0.695971
0.697443
0.699101
0.700939
0.702911
0.704819
0.706226
0.706996
0.707296
0.707277
0.707054
0.706702
0.706321
0.706007
0.705775
0.687065
0.687226
0.687586
0.688342
0.689433
0.690734
0.692249
0.69401
0.696031
0.698296
0.700597
0.702417
0.703559
0.704188
0.704456
0.70449
0.704372
0.704179
0.703984
0.703799
0.681832
0.681961
0.682281
0.682995
0.684078
0.685416
0.687015
0.688926
0.691188
0.693812
0.696595
0.698923
0.70051
0.701523
0.70212
0.702433
0.70255
0.702544
0.702453
0.702304
0.676291
0.676394
0.676687
0.677387
0.678497
0.679916
0.681645
0.683764
0.686342
0.689419
0.692791
0.69573
0.697844
0.699301
0.700273
0.700893
0.701274
0.701452
0.701452
0.70133
0.670338
0.670419
0.670697
0.671407
0.672581
0.674122
0.67604
0.678436
0.681417
0.685058
0.68915
0.692823
0.695563
0.697541
0.698944
0.699935
0.700593
0.700955
0.701038
0.700937
0.663854
0.663915
0.664187
0.66493
0.666204
0.667918
0.670088
0.672847
0.676334
0.680669
0.685637
0.690193
0.69368
0.696274
0.698175
0.699576
0.700556
0.70112
0.701284
0.701198
0.656699
0.656737
0.657014
0.657812
0.659225
0.661167
0.663667
0.666884
0.671003
0.67619
0.682217
0.687832
0.692207
0.69553
0.698024
0.699899
0.701248
0.702031
0.702274
0.7022
0.648704
0.648721
0.649001
0.649878
0.651473
0.653709
0.656626
0.660419
0.66532
0.671549
0.678855
0.685738
0.691165
0.695347
0.698545
0.700991
0.70276
0.703781
0.704102
0.704035
0.639609
0.639617
0.639924
0.640906
0.642738
0.645344
0.648786
0.653298
0.659167
0.666669
0.675518
0.683909
0.690582
0.695777
0.699803
0.702931
0.705183
0.706463
0.706862
0.706797
0.629148
0.62913
0.629478
0.630612
0.632745
0.635824
0.639928
0.645338
0.652407
0.661466
0.672172
0.682347
0.690488
0.696873
0.701876
0.705791
0.708604
0.710164
0.710635
0.710568
0.616948
0.61691
0.617309
0.618631
0.621146
0.624831
0.629778
0.636322
0.644883
0.655849
0.668785
0.681063
0.690909
0.698683
0.704832
0.709651
0.713095
0.714946
0.71548
0.715404
0.602497
0.602436
0.602915
0.604492
0.607497
0.611966
0.617998
0.625989
0.636426
0.649733
0.665335
0.680074
0.69188
0.701241
0.708718
0.714565
0.718696
0.72083
0.721408
0.721316
0.585075
0.584992
0.585601
0.587534
0.591195
0.596707
0.60417
0.614042
0.626863
0.643052
0.661824
0.679402
0.693434
0.704589
0.713535
0.720536
0.725391
0.727772
0.728362
0.728246
0.563655
0.563555
0.564374
0.56683
0.571415
0.578373
0.587787
0.600164
0.616049
0.635789
0.65829
0.67909
0.695602
0.708734
0.71929
0.727536
0.733084
0.735633
0.736193
0.736046
0.536675
0.536576
0.53775
0.541016
0.547014
0.556084
0.568276
0.584072
0.603919
0.628002
0.654826
0.679203
0.698409
0.71367
0.725942
0.735455
0.74158
0.744165
0.74464
0.744458
0.501602
0.50156
0.503375
0.508046
0.516422
0.528835
0.545131
0.565637
0.590567
0.619861
0.651588
0.67985
0.701892
0.719371
0.733405
0.744102
0.750564
0.753002
0.753338
0.753124
0.453939
0.454133
0.457375
0.465015
0.477836
0.495766
0.518181
0.545061
0.576319
0.611669
0.648788
0.681156
0.706104
0.725795
0.741551
0.753201
0.759608
0.761679
0.761845
0.761612
0.385257
0.386755
0.394676
0.409191
0.430242
0.456981
0.488041
0.523036
0.56175
0.603833
0.646659
0.683219
0.711073
0.732864
0.750093
0.762249
0.768138
0.769657
0.769664
0.769443
0.303198
0.306098
0.321551
0.346689
0.379045
0.416157
0.456538
0.500041
0.546575
0.595884
0.645098
0.686608
0.718081
0.742546
0.761266
0.773351
0.778432
0.779467
0.77942
0.77929
0.219013
0.22656
0.249815
0.285552
0.328807
0.376076
0.425765
0.477797
0.532152
0.588633
0.644157
0.690521
0.725466
0.752538
0.772619
0.784107
0.787862
0.78834
0.788258
0.788182
0.149949
0.159665
0.187849
0.231083
0.282857
0.338694
0.396741
0.456732
0.518495
0.581741
0.643104
0.693849
0.731854
0.760957
0.781681
0.792359
0.795327
0.795628
0.795557
0.795509
0.0932043
0.103683
0.135625
0.1844
0.242593
0.305238
0.370258
0.437185
0.505613
0.575054
0.641777
0.696495
0.737211
0.768072
0.789232
0.799238
0.801682
0.801878
0.801817
0.801784
0.0455701
0.0564162
0.0909457
0.144021
0.207427
0.275692
0.34656
0.419448
0.493758
0.568785
0.640396
0.698732
0.741899
0.774293
0.795722
0.80516
0.807257
0.807392
0.807333
0.807304
0.00461687
0.0156207
0.0520703
0.108581
0.176323
0.249392
0.325339
0.403467
0.483035
0.563132
0.639206
0.700817
0.746143
0.77979
0.801353
0.810309
0.812182
0.81228
0.812219
0.812189
-0.0313742
-0.0203219
0.0176215
0.0769715
0.1484
0.225637
0.306082
0.388937
0.473322
0.558111
0.638319
0.702894
0.75007
0.784692
0.806238
0.814782
0.816513
0.816598
0.816544
0.816513
-0.0636703
-0.0526083
-0.0134849
0.0483058
0.12294
0.203847
0.288319
0.375499
0.464371
0.553608
0.637734
0.705048
0.753826
0.789159
0.810539
0.8187
0.820341
0.820447
0.820422
0.820397
-0.0933061
-0.0822172
-0.0420551
0.0218974
0.0993834
0.183558
0.271666
0.36283
0.455934
0.54946
0.637412
0.707358
0.757579
0.793416
0.814495
0.822279
0.823856
0.824015
0.824048
0.824045
-0.120869
-0.109741
-0.0686561
-0.00275894
0.0772759
0.164392
0.255816
0.350677
0.447796
0.545514
0.637316
0.709906
0.761507
0.797722
0.818415
0.825816
0.827336
0.827567
0.82768
0.827711
-0.146853
-0.135677
-0.0937301
-0.0260629
0.0562735
0.146057
0.240522
0.338825
0.439782
0.541636
0.637399
0.712773
0.765788
0.80233
0.822593
0.829617
0.831069
0.831366
0.831561
0.831635
-0.171663
-0.160349
-0.117599
-0.0482976
0.0361264
0.128327
0.225593
0.327113
0.431731
0.537696
0.637598
0.716007
0.770559
0.807433
0.827253
0.833893
0.83525
0.835588
0.835848
0.835963
-0.195444
-0.183972
-0.140458
-0.0696658
0.0166528
0.111057
0.210889
0.315406
0.423513
0.533544
0.637801
0.719622
0.775922
0.813161
0.832505
0.83871
0.839938
0.840284
0.840582
0.84073
-0.218408
-0.206726
-0.162479
-0.0902913
-0.00226089
0.0941344
0.196312
0.303606
0.415017
0.52905
0.637862
0.723562
0.781977
0.819594
0.838334
0.844025
0.845077
0.845398
0.8457
0.845863
-0.240568
-0.228694
-0.183747
-0.11025
-0.0206829
0.0775011
0.181811
0.291654
0.406166
0.524077
0.63761
0.727714
0.78878
0.826901
0.844777
0.849696
0.850488
0.850786
0.851069
0.851221
-0.262042
-0.249936
-0.204273
-0.129582
-0.0386548
0.0611249
0.167353
0.279521
0.396905
0.518527
0.636859
0.731906
0.796352
0.835322
0.852037
0.855622
0.855904
0.856212
0.856552
0.856697
-0.282713
-0.270452
-0.224087
-0.148323
-0.0561851
0.0450203
0.15294
0.267199
0.387212
0.512331
0.635433
0.735911
0.804623
0.845139
0.860569
0.862054
0.861171
0.861419
0.862158
0.862523
-0.30274
-0.29025
-0.243203
-0.166491
-0.0732863
0.0291784
0.138609
0.254703
0.377085
0.505454
0.633178
0.739453
0.813386
0.856553
0.871223
0.870108
0.866961
0.866621
0.86831
0.86963
-0.322013
-0.309292
-0.261644
-0.184074
-0.0899125
0.0136454
0.124397
0.242098
0.366561
0.497861
0.629971
0.742234
0.822308
0.869501
0.884711
0.88153
0.875479
0.873473
0.876024
0.879404
-0.340616
-0.32767
-0.279379
-0.201039
-0.106057
-0.00154249
0.110359
0.229424
0.355689
0.489598
0.625732
0.743927
0.830923
0.883497
0.900951
0.897379
0.889099
0.883731
0.881039
0.876036
-0.358475
-0.345367
-0.296502
-0.217562
-0.121943
-0.0166602
0.0961758
0.216304
0.344072
0.480247
0.62008
0.74417
0.839127
0.898723
0.920125
0.918166
0.908923
0.897596
0.884966
0.885117
-0.375586
-0.362477
-0.313039
-0.2336
-0.137576
-0.0316871
0.081857
0.202695
0.331636
0.469615
0.612694
0.742221
0.845786
0.914165
0.940259
0.940735
0.929821
0.915948
0.879109
0.841866
-0.391768
-0.378875
-0.328977
-0.249035
-0.152971
-0.0466446
0.067379
0.188701
0.318405
0.457662
0.603331
0.73741
0.84912
0.928045