/*--------------------------------*- C++ -*----------------------------------*\
  =========                 |
  \\      /  F ield         | OpenFOAM: The Open Source CFD Toolbox
   \\    /   O peration     | Website:  https://openfoam.org
    \\  /    A nd           | Version:  6
     \\/     M anipulation  |
\*---------------------------------------------------------------------------*/
FoamFile
{
    version     2.0;
    format      ascii;
    class       surfaceScalarField;
    location    "10.8";
    object      phi;
}
// * * * * * * * * * * * * * * * * * * * * * * * * * * * * * * * * * * * * * //

dimensions      [0 3 -1 0 0 0 0];

internalField   nonuniform List<scalar> 
17370
(
-0.0899873
0.0898257
0.289172
-0.0714313
0.0537136
0.364493
-0.0380535
0.027564
0.426658
-0.0194307
0.014339
0.504343
-0.0104702
0.00800517
0.601867
-0.00608393
0.00479061
0.720351
-0.00370527
0.00291895
0.863693
-0.00220896
0.00166428
1.03599
-0.00114613
0.000726305
1.24292
-0.000317295
-5.01389e-05
1.49156
0.000407859
-0.000828529
1.49161
0.00124761
-0.00176152
1.2432
0.00230155
-0.00300406
1.03634
0.0037805
-0.00485269
0.863979
0.00613598
-0.00804953
0.720971
0.0105105
-0.014376
0.60308
0.0194656
-0.0275964
0.50757
0.0380822
-0.0537372
0.431823
0.0714497
-0.0898377
0.365164
0.0899943
0.199017
-0.128196
0.0884301
0.0397661
-0.364642
0.353582
-0.0743143
0.0853742
-0.446387
0.454324
-0.0837297
0.0757927
-0.521125
0.529743
-0.067708
0.0590904
-0.612849
0.621537
-0.0510049
0.042317
-0.727012
0.734227
-0.0349018
0.0276864
-0.867415
0.872593
-0.0220276
0.016849
-1.03841
1.04181
-0.013008
0.00960852
-1.2446
1.24686
-0.00709371
0.00483441
-1.49274
1.49448
-0.00306725
0.00132115
-1.49245
1.49402
0.000229263
-0.00180147
-1.244
1.24574
0.00351917
-0.00526545
-1.03745
1.03993
0.00749494
-0.00997463
-0.865996
0.86981
0.0133368
-0.0171509
-0.724383
0.730021
0.0223038
-0.0279425
-0.608813
0.616205
0.0351332
-0.0425249
-0.514926
0.522988
0.0511847
-0.0592471
-0.439767
0.447836
0.0678422
-0.0759115
-0.375262
0.376884
0.0838335
-0.0854558
-0.257416
0.222833
0.0743702
-0.0397873
-0.0688715
0.0591593
0.00971225
-0.0511208
0.0575251
-0.374436
0.368032
-0.0563823
0.0523818
-0.453719
0.457719
-0.0470568
0.0429076
-0.52795
0.532099
-0.0388928
0.0351172
-0.621439
0.625215
-0.0309862
0.0270586
-0.735194
0.739122
-0.0228047
0.0189826
-0.874072
0.877894
-0.0150803
0.0117565
-1.04314
1.04646
-0.00843407
0.00554906
-1.24821
1.25109
-0.00247343
-0.00049274
-1.4964
1.49936
0.00342339
-0.00646695
-1.49689
1.49993
0.00930855
-0.0125786
-1.24974
1.25301
0.0158519
-0.0196906
-1.04567
1.04951
0.0234412
-0.0276199
-0.87764
0.881819
0.0314878
-0.0355716
-0.739855
0.743939
0.0393205
-0.0432902
-0.6268
0.63077
0.0473938
-0.0526724
-0.534996
0.540275
0.0566229
-0.0577178
-0.457837
0.458932
0.0512661
-0.0314686
-0.336375
0.316578
0.0097362
-0.0688011
0.0590649
-0.0536538
0.0500286
0.00362524
-0.0306718
0.0403787
-0.358969
0.349262
-0.0437727
0.0432604
-0.459586
0.460098
-0.0405458
0.0374705
-0.535962
0.539037
-0.0339337
0.0309548
-0.628578
0.631557
-0.0278623
0.0250318
-0.74222
0.74505
-0.0219489
0.0190637
-0.881198
0.884083
-0.0158233
0.01275
-1.04979
1.05286
-0.00930879
0.00613976
-1.25421
1.25738
-0.00265089
-0.000628727
-1.50253
1.50581
0.00389573
-0.00735727
-1.50326
1.50672
0.0104784
-0.0138532
-1.25643
1.25981
0.01685
-0.019998
-1.05311
1.05626
0.0228111
-0.0258186
-0.885158
0.888165
0.0285708
-0.0315855
-0.74729
0.750304
0.034494
-0.0379693
-0.634623
0.638098
0.0409937
-0.0436542
-0.54455
0.547211
0.044114
-0.0406468
-0.457321
0.453854
0.0308577
-0.0148051
-0.298082
0.28203
0.00365284
-0.0535351
0.0498823
-0.0473066
0.0451712
0.00213536
-0.0197182
0.0288011
-0.339688
0.330605
-0.0336908
0.0343247
-0.459953
0.459319
-0.0330523
0.0310741
-0.541312
0.54329
-0.0289079
0.0267549
-0.634107
0.63626
-0.0242067
0.02187
-0.747719
0.750055
-0.0192172
0.01681
-0.886753
0.88916
-0.0140923
0.0115444
-1.05562
1.05816
-0.00860294
0.00576184
-1.26041
1.26325
-0.0023882
-0.000972268
-1.50919
1.51255
0.00431015
-0.00761007
-1.51016
1.51346
0.010354
-0.0131734
-1.26289
1.26571
0.015607
-0.0181916
-1.05908
1.06167
0.0204828
-0.0230153
-0.891035
0.893567
0.0252456
-0.0276717
-0.75311
0.755536
0.0297088
-0.0317626
-0.64078
0.642834
0.0336645
-0.0348505
-0.548961
0.550147
0.0341308
-0.0291258
-0.449469
0.444464
0.0199288
-0.00856926
-0.268364
0.257005
0.00216867
-0.0471263
0.0449576
-0.0436323
0.0427195
0.00091283
-0.00970331
0.0161468
-0.322591
0.316148
-0.0212734
0.0233123
-0.457973
0.455934
-0.0235129
0.0226825
-0.544865
0.545696
-0.0214195
0.0201456
-0.637862
0.639136
-0.0188961
0.0177304
-0.751921
0.753087
-0.0162263
0.0145188
-0.891296
0.893003
-0.0123647
0.0101658
-1.06057
1.06277
-0.0075481
0.00494684
-1.26596
1.26856
-0.00186109
-0.0012056
-1.51575
1.51882
0.00423308
-0.00722329
-1.51659
1.51958
0.00972363
-0.0122092
-1.26838
1.27087
0.0142659
-0.0162557
-1.06405
1.06604
0.017787
-0.0190857
-0.895589
0.896888
0.020101
-0.0212411
-0.757259
0.758399
0.022419
-0.0235742
-0.644448
0.645603
0.024298
-0.0239699
-0.550609
0.550281
0.0218071
-0.0165358
-0.439076
0.433805
0.00996151
-0.00384515
-0.248255
0.242139
0.00095598
-0.0433826
0.0424267
-0.0422868
0.0420924
0.000194405
-0.00388545
0.00765374
-0.311259
0.307491
-0.0117161
0.0141778
-0.453597
0.451135
-0.0154236
0.0158103
-0.545853
0.545466
-0.01588
0.0158264
-0.639827
0.639881
-0.0153232
0.0145006
-0.753972
0.754794
-0.0133516
0.012123
-0.894267
0.895496
-0.0105018
0.00874556
-1.06462
1.06638
-0.00649214
0.00415382
-1.27099
1.27333
-0.00131622
-0.00148564
-1.52175
1.52456
0.00426632
-0.00701077
-1.52243
1.52517
0.00920769
-0.0112766
-1.27304
1.27511
0.0128542
-0.0142738
-1.06753
1.06895
0.0153357
-0.016323
-0.89788
0.898867
0.0169831
-0.017277
-0.759233
0.759527
0.0171653
-0.0169332
-0.646032
0.6458
0.0164052
-0.0150041
-0.549369
0.547967
0.0123902
-0.00814816
-0.429064
0.424822
0.00421413
-0.00135034
-0.238055
0.235191
0.000248081
-0.0419459
0.0416978
-0.0419925
0.0419525
4.00788e-05
-0.00198665
0.00458414
-0.30442
0.301823
-0.00822278
0.0112349
-0.448447
0.445435
-0.0135954
0.0149704
-0.54458
0.543205
-0.0156643
0.0158668
-0.639723
0.63952
-0.0157025
0.0151321
-0.755434
0.756005
-0.01411
0.0128216
-0.896819
0.898108
-0.0110237
0.00905534
-1.06825
1.07022
-0.00656785
0.00402366
-1.27572
1.27827
-0.000974022
-0.00201994
-1.52737
1.53036
0.00496598
-0.00787943
-1.52795
1.53086
0.0102465
-0.012502
-1.27728
1.27953
0.0142398
-0.0157742
-1.0705
1.07203
0.0168205
-0.0175736
-0.899742
0.900495
0.0178719
-0.0177464
-0.75942
0.759294
0.0173417
-0.0164352
-0.645186
0.64428
0.0148568
-0.0122772
-0.546005
0.543426
0.00905493
-0.00518177
-0.420842
0.416969
0.00237945
-0.000680181
-0.233026
0.231327
0.00010326
-0.0415401
0.0414369
-0.0419443
0.0419396
4.79814e-06
-0.00111535
0.00297696
-0.299603
0.297741
-0.00622045
0.00960913
-0.442137
0.438749
-0.0129454
0.0152665
-0.541331
0.53901
-0.0166306
0.0170306
-0.639185
0.638785
-0.0169511
0.0164414
-0.756588
0.757098
-0.0153459
0.0138954
-0.899442
0.900893
-0.0118737
0.00967689
-1.07229
1.07449
-0.00691338
0.00409147
-1.28097
1.2838
-0.000689922
-0.00268958
-1.53356
1.53694
0.00601074
-0.00923661
-1.53394
1.53717
0.0118143
-0.0142523
-1.28189
1.28433
0.016117
-0.0177513
-1.07359
1.07522
0.0188377
-0.0195447
-0.901256
0.901963
0.0197663
-0.0195529
-0.759157
0.758944
0.0188745
-0.0171683
-0.643023
0.641317
0.0145541
-0.0109112
-0.540241
0.536598
0.00724939
-0.00371614
-0.413199
0.409666
0.00160328
-0.000468549
-0.229954
0.228819
8.39235e-05
-0.0413579
0.041274
-0.0419381
0.0419543
-1.62016e-05
-0.000476409
0.00157058
-0.296254
0.29516
-0.00382063
0.00658532
-0.435542
0.432777
-0.00979233
0.0123543
-0.53642
0.533858
-0.014459
0.0155546
-0.638162
0.637066
-0.0158092
0.0153724
-0.757542
0.757978
-0.0142882
0.0128861
-0.902387
0.903789
-0.0109235
0.00878233
-1.07673
1.07887
-0.00606912
0.00328467
-1.28665
1.28944
0.000106674
-0.00349473
-1.54041
1.5438
0.00681202
-0.00997867
-1.54045
1.54361
0.0124558
-0.0147417
-1.28675
1.28904
0.0164437
-0.0179074
-1.07684
1.07831
0.0188506
-0.0193973
-0.902557
0.903104
0.0193577
-0.018686
-0.758691
0.75802
0.0171531
-0.0146525
-0.639097
0.636597
0.011742
-0.00816682
-0.532808
0.529232
0.00507954
-0.00248421
-0.406541
0.403945
0.00108392
-0.000354245
-0.227892
0.227163
8.21666e-05
-0.041184
0.0411018
-0.0419956
0.0420577
-6.21269e-05
7.46405e-05
0.000366948
-0.294432
0.293991
-0.00149738
0.0030845
-0.430605
0.429018
-0.00513452
0.00691261
-0.531645
0.529867
-0.00850619
0.00952834
-0.635888
0.634866
-0.0100932
0.0101039
-0.758177
0.758167
-0.00961707
0.00875099
-0.904923
0.905789
-0.00736151
0.00572003
-1.08079
1.08243
-0.00353549
0.00122452
-1.29203
1.29434
0.00161281
-0.00441563
-1.54694
1.54975
0.00710591
-0.00962755
-1.5465
1.54903
0.0115176
-0.0131588
-1.29105
1.29269
0.0142694
-0.0150408
-1.07945
1.08023
0.0153366
-0.0152101
-0.903374
0.903247
0.014643
-0.0134442
-0.756914
0.755716
0.0119305
-0.00981444
-0.634209
0.632093
0.00759106
-0.0050839
-0.526149
0.523642
0.0030939
-0.00152883
-0.401902
0.400337
0.000703497
-0.000252203
-0.226598
0.226147
6.36879e-05
-0.0410323
0.0409686
-0.0421335
0.042223
-8.95127e-05
0.000370062
-0.000334589
-0.293785
0.29375
-6.64175e-05
0.000761253
-0.427928
0.427234
-0.00175758
0.00269549
-0.528529
0.527591
-0.00359911
0.00422288
-0.634032
0.633408
-0.00462897
0.00472079
-0.758073
0.757981
-0.00448982
0.00397064
-0.906448
0.906968
-0.00305479
0.00191307
-1.0838
1.08494
-0.000339742
-0.00135671
-1.29634
1.29803
0.00344753
-0.00548666
-1.55217
1.5542
0.00739381
-0.0090842
-1.55114
1.55283
0.0102837
-0.0111908
-1.29394
1.29485
0.0116373
-0.0117717
-1.08065
1.08079
0.0115636
-0.0110115
-0.902862
0.90231
0.0102291
-0.00909929
-0.754534
0.753405
0.00785633
-0.00631547
-0.63027
0.628729
0.00483299
-0.00327386
-0.521657
0.520098
0.0020835
-0.00114239
-0.399137
0.398196
0.000602149
-0.00025063
-0.225762
0.22541
7.13241e-05
-0.0409031
0.0408317
-0.0423222
0.0424335
-0.000111355
0.000594221
-0.000762923
-0.293814
0.293982
0.000786904
-0.000629792
-0.426848
0.426691
0.000313358
1.23718e-05
-0.526991
0.526665
-0.000331741
0.000540387
-0.632998
0.632789
-0.000638181
0.00058149
-0.757947
0.758004
-0.000330673
-8.95191e-05
-0.907411
0.907831
0.000776969
-0.00161263
-1.0859
1.08674
0.00274938
-0.00396021
-1.29946
1.30068
0.00542823
-0.00681464
-1.55589
1.55728
0.00804005
-0.00902961
-1.55413
1.55512
0.00958487
-0.00985327
-1.29544
1.2957
0.00986449
-0.00959267
-1.08069
1.08042
0.00912895
-0.00842119
-0.90166
0.900953
0.00762798
-0.00664119
-0.752345
0.751359
0.00566616
-0.00455838
-0.627431
0.626324
0.00355865
-0.00254322
-0.518859
0.517843
0.0017596
-0.00109259
-0.397425
0.396758
0.000646591
-0.000296699
-0.225068
0.224718
9.03814e-05
-0.0407521
0.0406617
-0.042556
0.0426918
-0.000135835
0.000783042
-0.00111687
-0.294245
0.294579
0.00139146
-0.00154708
-0.42671
0.426865
0.00164122
-0.00170945
-0.526559
0.526627
0.00180456
-0.00193611
-0.632762
0.632893
0.00214955
-0.00242495
-0.758167
0.758442
0.00283322
-0.00331692
-0.908269
0.908752
0.00397959
-0.00470533
-1.0875
1.08823
0.00562297
-0.00654381
-1.30172
1.30264
0.00759491
-0.00851686
-1.55841
1.55934
0.00923728
-0.00969735
-1.55584
1.5563
0.0098372
-0.00973049
-1.29574
1.29564
0.00938894
-0.00883697
-1.07999
1.07944
0.00820541
-0.00741076
-0.900198
0.899404
0.00662518
-0.0057293
-0.750428
0.749532
0.00490309
-0.00401381
-0.62535
0.624461
0.00323858
-0.0024547
-0.516974
0.51619
0.00182232
-0.00122867
-0.396146
0.395552
0.000774261
-0.00037242
-0.224348
0.223946
0.000117266
-0.0405587
0.0404414
-0.0428456
0.0430169
-0.000171325
0.00101752
-0.00149249
-0.294982
0.295457
0.00196492
-0.00234009
-0.427135
0.42751
0.00271198
-0.00305323
-0.526839
0.52718
0.00345348
-0.0038573
-0.633167
0.63357
0.00435049
-0.00485531
-0.758833
0.759337
0.00547495
-0.00610549
-0.909302
0.909933
0.0068668
-0.00761746
-1.08895
1.0897
0.00848081
-0.00927133
-1.30348
1.30427
0.0100825
-0.0106924
-1.56008
1.56069
0.0110518
-0.0111115
-1.55654
1.5566
0.0109121
-0.0104789
-1.29538
1.29494
0.00991434
-0.00916878
-1.07879
1.07805
0.00840728
-0.00752558
-0.89857
0.897688
0.00670332
-0.00580774
-0.748648
0.747753
0.00501144
-0.00417671
-0.623616
0.622781
0.003458
-0.00272378
-0.515448
0.514714
0.00210407
-0.00147775
-0.394952
0.394326
0.000957994
-0.000470217
-0.223505
0.223017
0.000150156
-0.0403086
0.0401584
-0.0432121
0.0434285
-0.000216436
0.00130458
-0.00193745
-0.296007
0.29664
0.00260358
-0.00317636
-0.427978
0.428551
0.00378526
-0.00435706
-0.527635
0.528207
0.00502155
-0.00567097
-0.634099
0.634749
0.00643212
-0.0071748
-0.759962
0.760705
0.00803825
-0.00886679
-0.910657
0.911486
0.00980529
-0.0106701
-1.0905
1.09136
0.0115923
-0.0123648
-1.30504
1.30581
0.0130644
-0.0134798
-1.56119
1.56161
0.0135806
-0.0133399
-1.5565
1.55626
0.0128682
-0.0121482
-1.29436
1.29364
0.0113607
-0.0104028
-1.0772
1.07624
0.00948289
-0.00845946
-0.896743
0.895719
0.00753402
-0.00654938
-0.746823
0.745838
0.00568864
-0.00479622
-0.62193
0.621038
0.00402976
-0.00323829
-0.513963
0.513172
0.00255005
-0.00182466
-0.393658
0.392933
0.00119767
-0.000592912
-0.222475
0.22187
0.000190447
-0.0399895
0.0397991
-0.0436777
0.0439544
-0.000276755
0.00167552
-0.00250111
-0.297361
0.298187
0.00339002
-0.00417532
-0.429213
0.429998
0.00502621
-0.00582859
-0.528887
0.52969
0.00675666
-0.00765619
-0.635529
0.636429
0.00869927
-0.00970365
-0.761581
0.762586
0.0108507
-0.0119263
-0.91243
0.913506
0.0131086
-0.0141582
-1.09231
1.09336
0.0152246
-0.0160603
-1.3066
1.30744
0.0167363
-0.0170321
-1.56196
1.56225
0.0169306
-0.0164238
-1.55589
1.55538
0.0156911
-0.0146833
-1.29278
1.29177
0.0136462
-0.0124362
-1.07516
1.07395
0.0113064
-0.0100749
-0.894597
0.893366
0.00897835
-0.00782425
-0.744778
0.743624
0.00682258
-0.00578786
-0.620088
0.619053
0.00489847
-0.00397334
-0.512328
0.511403
0.00315606
-0.0022768
-0.392139
0.39126
0.00150246
-0.000746423
-0.221196
0.22044
0.000240387
-0.0395863
0.0393459
-0.0442741
0.0446331
-0.000358984
0.0021657
-0.00323672
-0.29912
0.300191
0.00439883
-0.00543129
-0.43088
0.431912
0.00654966
-0.00760183
-0.530624
0.531676
0.00881464
-0.00999116
-0.637495
0.638671
0.0113563
-0.0126698
-0.763752
0.765066
0.0141629
-0.0155504
-0.914716
0.916104
0.017053
-0.0183586
-1.09451
1.09581
0.0196453
-0.0206094
-1.30832
1.30928
0.0213238
-0.0215421
-1.5625
1.56272
0.0212595
-0.0204828
-1.55474
1.55396
0.0194692
-0.0181357
-1.2906
1.28927
0.0168002
-0.0152745
-1.07258
1.07106
0.0138711
-0.0123582
-0.891993
0.890481
0.0110219
-0.00962238
-0.742351
0.740952
0.0084104
-0.00715807
-0.617927
0.616675
0.00607863
-0.0049498
-0.510401
0.509272
0.0039451
-0.00285507
-0.39029
0.3892
0.0018884
-0.000939823
-0.219596
0.218648
0.000303442
-0.0390803
0.0387769
-0.0450442
0.0455156
-0.000471415
0.00281893
-0.00420627
-0.301396
0.302783
0.00570648
-0.00702756
-0.433071
0.434393
0.00844347
-0.00977408
-0.532933
0.534263
0.0113132
-0.0128254
-0.640085
0.641597
0.014597
-0.0163081
-0.766573
0.768284
0.0182455
-0.0200272
-0.917632
0.919413
0.0219358
-0.0235735
-1.09722
1.09886
0.0251554
-0.0263032
-1.3103
1.31144
0.027098
-0.027254
-1.56289
1.56304
0.0267794
-0.0256955
-1.55303
1.55194
0.0243501
-0.0226254
-1.28774
1.28602
0.0209239
-0.0190022
-1.06933
1.06741
0.0172508
-0.0153763
-0.888771
0.886897
0.0137289
-0.0120082
-0.739383
0.737662
0.0105178
-0.00897329
-0.6153
0.613756
0.00763479
-0.00622587
-0.508054
0.506645
0.00496613
-0.00359591
-0.388
0.38663
0.0023808
-0.00118689
-0.217595
0.216401
0.000384973
-0.0384492
0.0380642
-0.0460497
0.0466714
-0.000621647
0.00368226
-0.00547551
-0.304347
0.30614
0.00739294
-0.00905607
-0.43593
0.437593
0.0108202
-0.0124836
-0.535952
0.537616
0.0144363
-0.0163997
-0.643427
0.645391
0.0187312
-0.020986
-0.770179
0.772434
0.023517
-0.0258035
-0.921323
0.923609
0.0281947
-0.0302164
-1.10058
1.10261
0.0321515
-0.033521
-1.31262
1.31399
0.0344106
-0.0344881
-1.56312
1.5632
0.0337772
-0.0323151
-1.55066
1.5492
0.0305596
-0.0283495
-1.28404
1.28183
0.0261924
-0.0237751
-1.06522
1.0628
0.0215867
-0.0192584
-0.884748
0.882419
0.0172221
-0.0151016
-0.735697
0.733577
0.0132644
-0.0113527
-0.61205
0.610138
0.00968206
-0.00790457
-0.505151
0.503373
0.00630364
-0.00455836
-0.38515
0.383405
0.00301765
-0.00150658
-0.215092
0.213581
0.000491836
-0.0376658
0.0371739
-0.0473796
0.0482038
-0.000824171
0.00483467
-0.00716444
-0.30819
0.31052
0.00962898
-0.0117383
-0.439641
0.44175
0.0139514
-0.0160513
-0.539867
0.541967
0.0185503
-0.0210874
-0.647737
0.650274
0.0241333
-0.0270557
-0.77478
0.777702
0.0303004
-0.0332142
-0.925969
0.928883
0.0362491
-0.0387753
-1.10473
1.10726
0.0411256
-0.0427314
-1.31537
1.31697
0.0436906
-0.043631
-1.56315
1.56309
0.0425983
-0.0406492
-1.54747
1.54552
0.0383763
-0.035557
-1.27931
1.27649
0.0328299
-0.0297928
-1.06004
1.057
0.0270573
-0.0241623
-0.879712
0.876817
0.0216443
-0.0190353
-0.731096
0.728487
0.0167795
-0.0144276
-0.607994
0.605642
0.0123533
-0.0101134
-0.501532
0.499292
0.00806783
-0.00582076
-0.381595
0.379348
0.00384456
-0.00191709
-0.211969
0.210042
0.00062819
-0.0366955
0.0360673
-0.0491576
0.0502837
-0.00112613
0.00650067
-0.00959411
-0.313215
0.316309
0.0128168
-0.0155303
-0.44445
0.447164
0.0183484
-0.0210536
-0.544927
0.547632
0.0243218
-0.027648
-0.653264
0.65659
0.0315842
-0.0353191
-0.780659
0.784394
0.0394299
-0.0430714
-0.931803
0.935445
0.0468171
-0.0498655
-1.1098
1.11285
0.0526242
-0.0544306
-1.31854
1.32034
0.055384
-0.0550805
-1.56283
1.56253
0.0535965
-0.0510129
-1.54323
1.54064
0.0480857
-0.044506
-1.27327
1.26969
0.0410712
-0.0372637
-1.05352
1.04972
0.0338446
-0.0302382
-0.87342
0.869814
0.0271152
-0.0238987
-0.725352
0.722135
0.0211323
-0.0182564
-0.60292
0.600044
0.0157071
-0.0129201
-0.496997
0.49421
0.0103315
-0.00744796
-0.377145
0.374262
0.00489982
-0.00242066
-0.208074
0.205595
0.000788149
-0.0354908
0.0347027
-0.051568
0.0531898
-0.00162184
0.00912562
-0.0133201
-0.319848
0.324043
0.0175301
-0.0209958
-0.450767
0.454232
0.0245859
-0.0280899
-0.551523
0.555027
0.0323746
-0.0367155
-0.660373
0.664714
0.0417857
-0.0465019
-0.788124
0.79284
0.0515969
-0.0560349
-0.939066
0.943504
0.0605119
-0.0640797
-1.11588
1.11945
0.0672095
-0.0691365
-1.32204
1.32397
0.0699507
-0.069244
-1.56194
1.56123
0.0671366
-0.0637369
-1.53762
1.53422
0.0599963
-0.0554893
-1.26563
1.26113
0.0511963
-0.0464529
-1.04539
1.04065
0.0421971
-0.0377075
-0.865595
0.861106
0.0338219
-0.029832
-0.718211
0.714221
0.0264171
-0.0228866
-0.596592
0.593062
0.0197585
-0.0163231
-0.491301
0.487865
0.0130872
-0.00943112
-0.371544
0.367888
0.00619681
-0.00305912
-0.20319
0.200052
0.000987633
-0.0339913
0.0330036
-0.0549315
0.0573923
-0.00246078
0.013389
-0.0191679
-0.32877
0.334549
0.0246929
-0.0291783
-0.459138
0.463623
0.0338689
-0.0385225
-0.560138
0.564791
0.0441872
-0.0497984
-0.669554
0.675165
0.0561834
-0.0619779
-0.797563
0.803357
0.0681065
-0.0733341
-0.947921
0.953149
0.078479
-0.0824452
-1.12291
1.12687
0.0857498
-0.0875796
-1.32563
1.32746
0.087988
-0.0866289
-1.56007
1.55871
0.0836659
-0.0792349
-1.53025
1.52582
0.0745132
-0.068914
-1.25606
1.25046
0.0636232
-0.0577963
-1.03532
1.02949
0.0525674
-0.0470378
-0.855926
0.850396
0.0422383
-0.0373041
-0.709375
0.704441
0.0330831
-0.0287322
-0.588729
0.584378
0.0248876
-0.0206627
-0.484154
0.479929
0.0166404
-0.0120494
-0.364452
0.359861
0.00791215
-0.00387265
-0.197061
0.193021
0.00123584
-0.0321253
0.0308895
-0.0598642
0.0638167
-0.00395252
0.0205056
-0.0286015
-0.341104
0.3492
0.0359614
-0.0418509
-0.470392
0.476282
0.0480665
-0.0542968
-0.571459
0.57769
0.0617637
-0.0689001
-0.68132
0.688456
0.0767435
-0.0836432
-0.809188
0.816088
0.0907217
-0.0965558
-0.958286
0.96412
0.102069
-0.106099
-1.13057
1.1346
0.109167
-0.110517
-1.32883
1.33018
0.110105
-0.107735
-1.55669
1.55432
0.103609
-0.0978943
-1.52066
1.51494
0.0920137
-0.085168
-1.24419
1.23734
0.0787664
-0.0717494
-1.023
1.01599
0.0654584
-0.0587911
-0.84411
0.837443
0.0529852
-0.0469877
-0.698516
0.692518
0.0418363
-0.0365256
-0.578984
0.573673
0.0318324
-0.0266192
-0.475188
0.469975
0.0215587
-0.0156709
-0.355473
0.349586
0.0102931
-0.005019
-0.189279
0.184005
0.00158314
-0.029796
0.0282128
-0.0675413
0.0747725
-0.00723122
0.0342049
-0.0460436
-0.358988
0.370826
0.0559832
-0.0635741
-0.485745
0.493336
0.0716171
-0.0796699
-0.586266
0.594319
0.0889933
-0.0974773
-0.695937
0.704421
0.10639
-0.113911
-0.82279
0.830311
0.121333
-0.127184
-0.969577
0.975428
0.132422
-0.135924
-1.13806
1.14156
0.13816
-0.138486
-1.33079
1.33112
0.136733
-0.132903
-1.55105
1.54722
0.127258
-0.119983
-1.50833
1.50105
0.112757
-0.104535
-1.22973
1.22151
0.0969377
-0.0886743
-1.00825
0.999986
0.0812907
-0.0734702
-0.82996
0.82214
0.0666413
-0.0595499
-0.685409
0.678317
0.0534295
-0.0471198
-0.56703
0.56072
0.0415463
-0.0352457
-0.463919
0.457619
0.0288388
-0.021107
-0.343875
0.336143
0.0138124
-0.00656875
-0.179189
0.171945
0.00195661
-0.0268582
0.0249016
-0.0818613
0.0850556
-0.0031943
0.0229648
-0.0330482
-0.385728
0.395811
0.0422917
-0.0500891
-0.506257
0.514054
0.0592332
-0.069004
-0.604264
0.614035
0.0798185
-0.0894576
-0.712518
0.722157
0.100167
-0.109615
-0.837124
0.846571
0.119422
-0.127824
-0.980411
0.988813
0.136179
-0.142869
-1.14402
1.15071
0.148821
-0.152703
-1.33029
1.33417
0.154744
-0.154066
-1.5422
1.54152
0.150537
-0.144541
-1.49273
1.48673
0.137493
-0.128527
-1.21245
1.20348
0.119731
-0.109149
-0.990992
0.98041
0.0993993
-0.0886294
-0.813511
0.802741
0.0789441
-0.0686033
-0.670105
0.659765
0.0592558
-0.0497037
-0.552804
0.543252
0.0414267
-0.0319633
-0.449928
0.440465
0.0231748
-0.0140595
-0.328502
0.319386
0.00716394
-0.00223736
-0.165348
0.160421
0.000116206
-0.0230363
0.0229201
-0.0926052
0.0888176
0.00378768
-1.9777e-05
-0.0055266
-0.409043
0.41459
0.0128659
-0.0197322
-0.526154
0.53302
0.0284839
-0.0370011
-0.623999
0.632516
0.0467173
-0.0555816
-0.731751
0.740615
0.0650505
-0.0736298
-0.855622
0.864202
0.0825634
-0.0899538
-0.997018
1.00441
0.0975122
-0.103241
-1.15735
1.16308
0.108322
-0.111386
-1.3379
1.34096
0.112442
-0.111097
-1.54017
1.53883
0.107082
-0.100811
-1.4801
1.47383
0.0934989
-0.0844932
-1.19419
1.18518
0.0758179
-0.0658953
-0.969729
0.959806
0.0565957
-0.0462673
-0.791415
0.781086
0.0369938
-0.0274456
-0.647905
0.638357
0.0192488
-0.0108194
-0.531285
0.522856
0.0035941
0.0030926
-0.428679
0.421992
-0.00745803
0.00953606
-0.308867
0.306789
-0.00890423
0.00585237
-0.153666
0.156718
-0.0024774
-0.0212766
0.023754
-0.0911401
0.0873208
0.00381931
-0.00747115
0.00518141
-0.424198
0.426488
-0.000740555
-0.00482475
-0.542932
0.548497
0.0119926
-0.0192472
-0.641232
0.648486
0.027471
-0.0350137
-0.748961
0.756504
0.0432929
-0.0506783
-0.872115
0.879501
0.0581984
-0.0647973
-1.01167
1.01827
0.0714053
-0.0765693
-1.16852
1.17369
0.0807958
-0.0832141
-1.34358
1.346
0.084061
-0.0825869
-1.53709
1.53561
0.0787232
-0.0729231
-1.46734
1.46154
0.0663828
-0.0586455
-1.17653
1.16879
0.0509782
-0.0425873
-0.950119
0.941728
0.0348616
-0.0264518
-0.771507
0.763098
0.0192467
-0.0118877
-0.628711
0.621352
0.00584747
0.000239713
-0.513188
0.5071
-0.00490958
0.00878727
-0.413262
0.409384
-0.0107233
0.0103507
-0.300475
0.300848
-0.00803341
0.00470839
-0.155535
0.15886
-0.00186067
-0.0238957
0.0257564
-0.088269
0.0846811
0.00358799
-0.0099631
0.00953483
-0.433539
0.433967
-0.00681725
0.0022803
-0.556036
0.560573
0.00391592
-0.00993166
-0.655494
0.66151
0.0169017
-0.0233194
-0.76378
0.770197
0.0303307
-0.0366183
-0.886469
0.892757
0.0433981
-0.0490032
-1.02448
1.03008
0.0548647
-0.0590766
-1.17856
1.18278
0.0628897
-0.0651022
-1.34841
1.35063
0.065811
-0.0643114
-1.53405
1.53255
0.0610824
-0.0562482
-1.4557
1.45087
0.0507704
-0.0440667
-1.16141
1.15471
0.0378307
-0.0311247
-0.933754
0.927048
0.0249048
-0.0185018
-0.755442
0.749039
0.0127316
-0.00707677
-0.613905
0.608251
0.00246851
0.00177711
-0.500065
0.495819
-0.00479231
0.00710897
-0.402922
0.400606
-0.00805138
0.0069924
-0.296217
0.297276
-0.00521258
0.00297706
-0.157873
0.160109
-0.00120166
-0.0255194
0.0267211
-0.0855654
0.0826614
0.00290405
-0.00986069
0.0105641
-0.439469
0.438766
-0.00846089
0.00483796
-0.56689
0.570513
0.000182075
-0.00552878
-0.667493
0.672839
0.0113378
-0.0169326
-0.776222
0.781817
0.0229602
-0.0283927
-0.898699
0.904131
0.0342106
-0.0392509
-1.03561
1.04065
0.0443094
-0.0483133
-1.18695
1.19095
0.0517808
-0.0538449
-1.35267
1.35474
0.0546016
-0.0533899
-1.53117
1.52996
0.0507035
-0.0464843
-1.4458
1.44158
0.0418799
-0.0363911
-1.14844
1.14295
0.0312156
-0.0255562
-0.92057
0.914911
0.0205291
-0.0152905
-0.742879
0.73764
0.0107942
-0.00632865
-0.602654
0.598188
0.00281823
0.000338458
-0.490509
0.487352
-0.0026837
0.00434286
-0.395836
0.394177
-0.00485328
0.00434846
-0.29342
0.293925
-0.00337563
0.00189813
-0.158287
0.159764
-0.000858501
-0.0260768
0.0269353
-0.0835087
0.081149
0.00235963
-0.00885195
0.00971836
-0.443311
0.442445
-0.00860149
0.00544737
-0.575335
0.57849
-0.000751162
-0.00375861
-0.677654
0.682164
0.00872756
-0.0135774
-0.786898
0.791748
0.0189201
-0.0237738
-0.909332
0.914186
0.0291327
-0.0336054
-1.04549
1.04997
0.0382405
-0.0419611
-1.19476
1.19848
0.0451887
-0.047187
-1.35667
1.35867
0.0480466
-0.0474776
-1.52889
1.52832
0.045203
-0.0417172
-1.43724
1.43375
0.0377073
-0.0329104
-1.13759
1.13279
0.0286068
-0.0235899
-0.909442
0.904425
0.0192103
-0.0148015
-0.7326
0.728191
0.0109623
-0.00714263
-0.5938
0.58998
0.00408934
-0.00117062
-0.483179
0.48026
-0.000690104
0.00215879
-0.39022
0.388751
-0.00301444
0.00289305
-0.290266
0.290387
-0.00233845
0.00143423
-0.157387
0.158291
-0.000682167
-0.0260575
0.0267397
-0.0820913
0.0802991
0.00179226
-0.00731037
0.00828346
-0.446071
0.445098
-0.00722012
0.00470736
-0.582799
0.585312
-0.000519692
-0.00348567
-0.686448
0.690453
0.00817091
-0.0123427
-0.796407
0.800579
0.0170412
-0.0213722
-0.919107
0.923438
0.0264954
-0.030604
-1.05454
1.05865
0.0348194
-0.0384567
-1.20212
1.20576
0.0419675
-0.0439856
-1.36079
1.36281
0.0451193
-0.0447507
-1.5275
1.52713
0.0431272
-0.0398483
-1.4302
1.42692
0.0364083
-0.0322277
-1.12799
1.12381
0.0282281
-0.0238492
-0.899583
0.895204
0.0198245
-0.0156238
-0.72365
0.719449
0.0123162
-0.00870379
-0.586005
0.582393
0.00573258
-0.00310497
-0.476602
0.473974
0.00113586
0.000555645
-0.385295
0.383604
-0.00147353
0.00167713
-0.287032
0.286828
-0.00149117
0.00101153
-0.155813
0.156293
-0.000537338
-0.0257674
0.0263047
-0.0813447
0.0799527
0.00139204
-0.00580271
0.00675659
-0.448231
0.447277
-0.00567144
0.00328219
-0.589256
0.591645
0.000475846
-0.00402489
-0.694298
0.697847
0.00803683
-0.0120588
-0.804861
0.808883
0.0164088
-0.02089
-0.927665
0.932146
0.0253428
-0.0293089
-1.06293
1.0669
0.0336905
-0.0371508
-1.20937
1.21283
0.0403005
-0.0428167
-1.36483
1.36735
0.0442515
-0.0442896
-1.52688
1.52692
0.0429484
-0.0402982
-1.42388
1.42123
0.0371905
-0.0333015
-1.11935
1.11546
0.0296123
-0.0254429
-0.890716
0.886547
0.0216237
-0.0177425
-0.715295
0.711414
0.0142538
-0.0107936
-0.578589
0.575129
0.00795732
-0.00511844
-0.470582
0.467744
0.00296353
-0.00135512
-0.380243
0.378635
0.00019474
0.000445995
-0.283491
0.28285
-0.000714253
0.000634026
-0.153793
0.153873
-0.000426562
-0.0252876
0.0257142
-0.0812073
0.0800354
0.00117193
-0.0042388
0.00486216
-0.450257
0.449634
-0.00391144
0.00161424
-0.595121
0.597418
0.0017154
-0.00510249
-0.701551
0.704938
0.00893469
-0.0125708
-0.812839
0.816475
0.0170297
-0.0207528
-0.936136
0.939859
0.0251718
-0.0289877
-1.07107
1.07488
0.0333026
-0.0369995
-1.21636
1.22006
0.040493
-0.0428834
-1.36974
1.37213
0.0447444
-0.0452306
-1.52695
1.52743
0.0445349
-0.0421682
-1.41845
1.41609
0.0393843
-0.0357079
-1.11161
1.10793
0.032185
-0.0280521
-0.882106
0.877973
0.0243682
-0.0203817
-0.707253
0.703266
0.0168844
-0.0133029
-0.571404
0.567823
0.0102535
-0.00746812
-0.464346
0.46156
0.00508201
-0.00318755
-0.3751
0.373206
0.00168597
-0.000735373
-0.279528
0.278578
0.000110485
0.000315836
-0.151228
0.150802
-0.000316591
-0.0246076
0.0249241
-0.0813657
0.0805151
0.000850598
-0.00294105
0.00300546
-0.452499
0.452435
-0.00219791
-2.82875e-05
-0.600207
0.602433
0.00293659
-0.00615598
-0.708246
0.711465
0.00979399
-0.0135313
-0.820079
0.823816
0.0173916
-0.0212585
-0.943823
0.94769
0.0256419
-0.0292667
-1.07915
1.08278
0.033694
-0.0374028
-1.22365
1.22736
0.0410238
-0.0439903
-1.37503
1.378
0.0463957
-0.0472239
-1.52806
1.52889
0.0467768
-0.0450395
-1.41384
1.41211
0.0426653
-0.0391354
-1.10405
1.10052
0.0356034
-0.0316649
-0.87366
0.869721
0.0276135
-0.0236853
-0.698941
0.695013
0.0200921
-0.016294
-0.564145
0.560347
0.0132226
-0.0101003
-0.457902
0.45478
0.00756517
-0.00518312
-0.369845
0.367463
0.00348247
-0.00209982
-0.275141
0.273758
0.000932383
-6.29959e-05
-0.148123
0.147253
-0.000224918
-0.0236946
0.0239196
-0.0819153
0.0812101
0.000705282
-0.00192438
0.0019519
-0.455009
0.454981
-0.000584363
-0.00130906
-0.605288
0.607182
0.00428111
-0.0073285
-0.714386
0.717434
0.0107811
-0.0141102
-0.82731
0.83064
0.0180618
-0.02161
-0.951583
0.955131
0.0259362
-0.0299804
-1.08687
1.09092
0.0340823
-0.0381379
-1.23117
1.23522
0.0422293
-0.045375
-1.38099
1.38413
0.0482513
-0.0499073
-1.53006
1.53172
0.0499396
-0.0487769
-1.41025
1.40908
0.0465133
-0.0432482
-1.09694
1.09367
0.0398882
-0.0358196
-0.865287
0.861218
0.0318274
-0.0276672
-0.69048
0.68632
0.0239003
-0.019812
-0.556264
0.552176
0.0164089
-0.0131102
-0.451072
0.447773
0.0101622
-0.00745754
-0.363949
0.361244
0.00534386
-0.00346728
-0.270111
0.268234
0.00191257
-0.000555741
-0.144445
0.143088
-7.62886e-05
-0.0226103
0.0226866
-0.0827007
0.0821458
0.00055496
-0.000885518
0.000660604
-0.457683
0.457908
0.000547288
-0.00256949
-0.609887
0.611909
0.00538459
-0.00823091
-0.720208
0.723055
0.0117185
-0.0148755
-0.833996
0.837153
0.018649
-0.0222863
-0.959147
0.962785
0.026503
-0.0305075
-1.09484
1.09885
0.0348296
-0.0389369
-1.23924
1.24335
0.0432604
-0.047207
-1.38764
1.39159
0.0506478
-0.0527268
-1.53348
1.53556
0.053512
-0.0526934
-1.40792
1.4071
0.05094
-0.048081
-1.09031
1.08745
0.0446323
-0.0405542
-0.856778
0.8527
0.0364914
-0.0320079
-0.681663
0.677179
0.028115
-0.0237116
-0.548018
0.543615
0.0200571