/*--------------------------------*- C++ -*----------------------------------*\
  =========                 |
  \\      /  F ield         | OpenFOAM: The Open Source CFD Toolbox
   \\    /   O peration     | Website:  https://openfoam.org
    \\  /    A nd           | Version:  6
     \\/     M anipulation  |
\*---------------------------------------------------------------------------*/
FoamFile
{
    version     2.0;
    format      ascii;
    class       volVectorField;
    location    "10.8";
    object      U;
}
// * * * * * * * * * * * * * * * * * * * * * * * * * * * * * * * * * * * * * //

dimensions      [0 1 -1 0 0 0 0];

internalField   nonuniform List<vector> 
8800
(
(0.98718 -0.0766382 0)
(1.00189 -0.0551552 0)
(0.99986 -0.0284759 0)
(1.00007 -0.0149315 0)
(0.999904 -0.00828185 0)
(0.999885 -0.00492306 0)
(0.999932 -0.00301028 0)
(0.999978 -0.00175958 0)
(1 -0.000857698 0)
(1.00004 -0.000136512 0)
(1.00001 0.00056781 0)
(0.999994 0.00136518 0)
(0.999961 0.0024071 0)
(0.999937 0.00391979 0)
(0.999858 0.00639391 0)
(0.999989 0.0110801 0)
(1.00009 0.0206386 0)
(0.999209 0.03861 0)
(1.00703 0.0724457 0)
(0.771224 0.0366544 0)
(0.363517 -0.0159496 0)
(1.04359 -0.076479 0)
(1.0842 -0.0698215 0)
(1.04456 -0.0530059 0)
(1.02302 -0.0386162 0)
(1.01186 -0.0260844 0)
(1.00594 -0.0163964 0)
(1.00326 -0.00975913 0)
(1.00204 -0.00522952 0)
(1.00147 -0.00189874 0)
(1.00134 0.000867296 0)
(1.00168 0.00384539 0)
(1.00249 0.00762323 0)
(1.0043 0.0130196 0)
(1.00836 0.0210804 0)
(1.01653 0.0321825 0)
(1.03215 0.0459044 0)
(1.06202 0.0608042 0)
(1.09181 0.0754424 0)
(0.839269 0.0562825 0)
(0.21815 -0.00231998 0)
(1.07715 -0.0495697 0)
(1.10085 -0.0473023 0)
(1.06471 -0.0389026 0)
(1.03928 -0.0318999 0)
(1.02325 -0.0245273 0)
(1.01351 -0.0174246 0)
(1.00786 -0.0112335 0)
(1.00503 -0.00588913 0)
(1.00411 -0.000790614 0)
(1.00431 0.00415144 0)
(1.00605 0.0092272 0)
(1.01012 0.0148351 0)
(1.01755 0.0214169 0)
(1.03001 0.0285531 0)
(1.0504 0.0357785 0)
(1.08125 0.0428564 0)
(1.10765 0.0502355 0)
(0.944742 0.0410469 0)
(0.217865 0.00233157 0)
(0.178266 -0.000616014 0)
(1.02101 -0.0330361 0)
(1.10554 -0.0382709 0)
(1.07831 -0.0335045 0)
(1.05314 -0.0278784 0)
(1.03538 -0.0227875 0)
(1.02292 -0.0176528 0)
(1.01493 -0.0121704 0)
(1.01034 -0.0065331 0)
(1.00841 -0.000841572 0)
(1.00896 0.00480098 0)
(1.01203 0.0102992 0)
(1.01814 0.0158215 0)
(1.02816 0.0209287 0)
(1.04317 0.0258457 0)
(1.06409 0.0311278 0)
(1.0941 0.0366522 0)
(1.0953 0.0384682 0)
(0.834396 0.0211499 0)
(0.177809 0.000628701 0)
(0.159361 -0.000395462 0)
(0.965883 -0.0224386 0)
(1.10483 -0.0303911 0)
(1.08628 -0.0276821 0)
(1.0604 -0.0239052 0)
(1.0429 -0.0198272 0)
(1.03092 -0.0154922 0)
(1.02249 -0.0109935 0)
(1.01694 -0.00613228 0)
(1.01426 -0.000612619 0)
(1.01504 0.00509948 0)
(1.01902 0.0100891 0)
(1.0258 0.014513 0)
(1.03578 0.0187011 0)
(1.05013 0.0227198 0)
(1.07127 0.0264285 0)
(1.10066 0.0300359 0)
(1.07436 0.0293462 0)
(0.755644 0.0120396 0)
(0.158682 0.000410462 0)
(0.149059 -0.000153528 0)
(0.920049 -0.0116568 0)
(1.0985 -0.0200598 0)
(1.09261 -0.0201014 0)
(1.06486 -0.0179804 0)
(1.04566 -0.0159186 0)
(1.03272 -0.013277 0)
(1.02429 -0.00968703 0)
(1.0191 -0.0053319 0)
(1.01687 -0.000264304 0)
(1.01729 0.00489164 0)
(1.02076 0.00942055 0)
(1.02732 0.0131585 0)
(1.03762 0.0159728 0)
(1.05324 0.017851 0)
(1.07659 0.0199206 0)
(1.10262 0.0212154 0)
(1.04875 0.0179308 0)
(0.705622 0.00526898 0)
(0.148124 0.000172255 0)
(0.14588 7.38965e-06 0)
(0.891548 -0.00496681 0)
(1.08719 -0.0116979 0)
(1.09349 -0.0135905 0)
(1.06785 -0.0138332 0)
(1.04993 -0.0128648 0)
(1.03799 -0.0110878 0)
(1.02984 -0.00835535 0)
(1.02451 -0.00460449 0)
(1.02197 8.83226e-05 0)
(1.02246 0.00485726 0)
(1.02597 0.00886872 0)
(1.03233 0.0117829 0)
(1.04195 0.013698 0)
(1.05644 0.0150144 0)
(1.0784 0.0147747 0)
(1.09902 0.0139397 0)
(1.02571 0.0094549 0)
(0.681727 0.00193053 0)
(0.144609 1.43964e-05 0)
(0.145186 2.75206e-05 0)
(0.873817 -0.00266775 0)
(1.0741 -0.00870835 0)
(1.08955 -0.0125301 0)
(1.06709 -0.0137093 0)
(1.05083 -0.0135025 0)
(1.03979 -0.0117068 0)
(1.03239 -0.00871576 0)
(1.02757 -0.00459055 0)
(1.02511 0.000458279 0)
(1.02544 0.00554112 0)
(1.02849 0.00985707 0)
(1.03412 0.013019 0)
(1.04293 0.0150324 0)
(1.05603 0.0154452 0)
(1.0759 0.0148184 0)
(1.09088 0.0121212 0)
(1.00651 0.006312 0)
(0.669242 0.000985174 0)
(0.143514 -1.80463e-06 0)
(0.145101 1.89969e-05 0)
(0.860985 -0.0015458 0)
(1.0583 -0.00695998 0)
(1.08219 -0.0124256 0)
(1.0661 -0.014727 0)
(1.05265 -0.0146526 0)
(1.04323 -0.0127379 0)
(1.03665 -0.00938341 0)
(1.03205 -0.00478315 0)
(1.02946 0.000855032 0)
(1.02968 0.00660365 0)
(1.03251 0.0113122 0)
(1.03747 0.0147365 0)
(1.04492 0.0167589 0)
(1.05563 0.0170498 0)
(1.07199 0.0158947 0)
(1.07823 0.011351 0)
(0.988396 0.00465809 0)
(0.661291 0.00065842 0)
(0.142941 1.33615e-05 0)
(0.145119 1.74513e-05 0)
(0.852452 -0.000706737 0)
(1.0429 -0.00450065 0)
(1.07177 -0.00979679 0)
(1.06396 -0.0132367 0)
(1.05386 -0.0135746 0)
(1.04667 -0.0118493 0)
(1.04103 -0.00858186 0)
(1.03679 -0.00408371 0)
(1.03429 0.001538 0)
(1.03423 0.0072896 0)
(1.0365 0.0118217 0)
(1.0406 0.014944 0)
(1.04632 0.0166297 0)
(1.05488 0.0167598 0)
(1.06447 0.0139452 0)
(1.06302 0.00876331 0)
(0.973404 0.00311766 0)
(0.655989 0.000476665 0)
(0.142345 2.12126e-05 0)
(0.145402 3.01409e-05 0)
(0.848249 -2.66984e-05 0)
(1.03245 -0.00194115 0)
(1.06288 -0.00532688 0)
(1.05994 -0.00793397 0)
(1.05445 -0.00884225 0)
(1.04925 -0.00803831 0)
(1.04461 -0.00573082 0)
(1.0408 -0.00210818 0)
(1.03833 0.00259139 0)
(1.03794 0.00726135 0)
(1.03961 0.0107312 0)
(1.04272 0.012773 0)
(1.04689 0.0133227 0)
(1.05177 0.0123287 0)
(1.0565 0.00955039 0)
(1.05068 0.00553143 0)
(0.963578 0.00187823 0)
(0.652725 0.00033703 0)
(0.141862 2.03267e-05 0)
(0.145931 4.10363e-05 0)
(0.847059 0.000382539 0)
(1.02722 -0.000322894 0)
(1.05753 -0.00196709 0)
(1.05718 -0.00345288 0)
(1.0542 -0.00412036 0)
(1.05082 -0.00373427 0)
(1.04733 -0.00221563 0)
(1.04411 0.000387123 0)
(1.04167 0.00384784 0)
(1.04086 0.00715494 0)
(1.04169 0.00937259 0)
(1.0436 0.0102114 0)
(1.04601 0.00986292 0)
(1.04852 0.00845444 0)
(1.05042 0.00620576 0)
(1.04273 0.00351656 0)
(0.957812 0.0013263 0)
(0.650504 0.000329844 0)
(0.141407 2.64485e-05 0)
(0.146623 4.65188e-05 0)
(0.847429 0.000600102 0)
(1.02536 0.00063165 0)
(1.05512 0.000119207 0)
(1.05581 -0.000407436 0)
(1.0541 -0.000568429 0)
(1.05183 -0.000153375 0)
(1.04917 0.00098137 0)
(1.04638 0.00285425 0)
(1.0439 0.00527121 0)
(1.04257 0.0073939 0)
(1.04261 0.00848033 0)
(1.04339 0.0084634 0)
(1.04449 0.00765147 0)
(1.04556 0.00622364 0)
(1.04608 0.00445641 0)
(1.03776 0.0026387 0)
(0.954106 0.00119898 0)
(0.64853 0.000385928 0)
(0.140855 3.55827e-05 0)
(0.147472 5.66135e-05 0)
(0.848952 0.000837865 0)
(1.02545 0.00128571 0)
(1.05469 0.0014483 0)
(1.05571 0.00160735 0)
(1.05456 0.00195953 0)
(1.05285 0.00263143 0)
(1.05064 0.00371921 0)
(1.04806 0.00522043 0)
(1.04542 0.0069378 0)
(1.04354 0.00820348 0)
(1.04267 0.00855226 0)
(1.04256 0.00794171 0)
(1.04274 0.00678947 0)
(1.04297 0.00537245 0)
(1.04283 0.00387427 0)
(1.03428 0.00246231 0)
(0.951161 0.00130333 0)
(0.64639 0.000481061 0)
(0.140141 4.71615e-05 0)
(0.148532 7.09637e-05 0)
(0.851268 0.00109413 0)
(1.02673 0.00187176 0)
(1.05553 0.00249756 0)
(1.05661 0.00316126 0)
(1.05563 0.00397485 0)
(1.05412 0.00499346 0)
(1.05203 0.00623862 0)
(1.0494 0.00764104 0)
(1.04641 0.0089527 0)
(1.04385 0.00958904 0)
(1.04222 0.00925215 0)
(1.0413 0.00828258 0)
(1.0408 0.00691852 0)
(1.04051 0.0054302 0)
(1.04 0.00398604 0)
(1.0313 0.00267588 0)
(0.948275 0.00154236 0)
(0.643846 0.000605456 0)
(0.139221 6.08547e-05 0)
(0.149872 8.95106e-05 0)
(0.85442 0.0014075 0)
(1.02895 0.00250787 0)
(1.05731 0.00352866 0)
(1.05834 0.00462983 0)
(1.05733 0.00588541 0)
(1.05577 0.00730448 0)
(1.05354 0.00883672 0)
(1.05061 0.0103268 0)
(1.04706 0.0114424 0)
(1.04369 0.0116324 0)
(1.04127 0.0108235 0)
(1.03964 0.00943176 0)
(1.0386 0.00778105 0)
(1.03791 0.00610727 0)
(1.03716 0.00454588 0)
(1.02829 0.00314803 0)
(0.94506 0.00189061 0)
(0.640716 0.000762482 0)
(0.13805 7.73702e-05 0)
(0.151578 0.000114532 0)
(0.858543 0.00180976 0)
(1.03208 0.00328054 0)
(1.05996 0.00470377 0)
(1.06086 0.00624273 0)
(1.05969 0.00796361 0)
(1.05788 0.00984852 0)
(1.0553 0.0117771 0)
(1.05183 0.0134944 0)
(1.04747 0.0145586 0)
(1.04314 0.0144046 0)
(1.03984 0.0131392 0)
(1.03753 0.0112967 0)
(1.03597 0.00926632 0)
(1.03495 0.00728337 0)
(1.03397 0.00546646 0)
(1.0249 0.003844 0)
(0.941232 0.00235168 0)
(0.636812 0.00095948 0)
(0.136571 9.76636e-05 0)
(0.153774 0.000148816 0)
(0.863884 0.00233885 0)
(1.03623 0.00426334 0)
(1.06356 0.00613007 0)
(1.06425 0.00814382 0)
(1.06281 0.0103971 0)
(1.06058 0.0128503 0)
(1.05741 0.0152998 0)
(1.05313 0.0173688 0)
(1.0477 0.0184835 0)
(1.04219 0.0180248 0)
(1.03789 0.0162669 0)
(1.03484 0.0138888 0)
(1.03276 0.0113639 0)
(1.03139 0.00894699 0)
(1.03019 0.00674883 0)
(1.02085 0.00477963 0)
(0.936523 0.00294543 0)
(0.63191 0.00120758 0)
(0.13471 0.00012314 0)
(0.156626 0.000196051 0)
(0.870816 0.0030415 0)
(1.04169 0.00552617 0)
(1.06839 0.007886 0)
(1.06878 0.0104464 0)
(1.0669 0.0133727 0)
(1.06404 0.0165563 0)
(1.06 0.0196637 0)
(1.05461 0.0222072 0)
(1.04778 0.0234418 0)
(1.04082 0.0226628 0)
(1.03533 0.0203217 0)
(1.03143 0.0172873 0)
(1.02877 0.0141337 0)
(1.02701 0.0111535 0)
(1.02557 0.00845072 0)
(1.01587 0.00600944 0)
(0.930629 0.00370951 0)
(0.625724 0.00152351 0)
(0.132376 0.000155959 0)
(0.160368 0.000259934 0)
(0.879873 0.0039677 0)
(1.04895 0.00714373 0)
(1.07488 0.0100774 0)
(1.07478 0.0133219 0)
(1.07232 0.017189 0)
(1.06856 0.0213406 0)
(1.0633 0.0252265 0)
(1.05642 0.0283437 0)
(1.04776 0.029724 0)
(1.03898 0.0285519 0)
(1.03206 0.0254869 0)
(1.02715 0.0216343 0)
(1.02378 0.017691 0)
(1.02157 0.0140061 0)
(1.01982 0.0106748 0)
(1.00968 0.0076298 0)
(0.923188 0.00470719 0)
(0.617886 0.00193067 0)
(0.129451 0.000198857 0)
(0.165344 0.000347143 0)
(0.891754 0.00520344 0)
(1.05849 0.00928381 0)
(1.08346 0.0129558 0)
(1.08268 0.0171137 0)
(1.07929 0.0221539 0)
(1.07435 0.0274697 0)
(1.06759 0.0324165 0)
(1.05871 0.0361964 0)
(1.04769 0.0376873 0)
(1.03663 0.0359787 0)
(1.02796 0.0319936 0)
(1.02181 0.0271139 0)
(1.01758 0.0221806 0)
(1.01478 0.0176221 0)
(1.01264 0.0135322 0)
(1.00193 0.00975517 0)
(0.913827 0.00602375 0)
(0.607976 0.00245458 0)
(0.125795 0.000253397 0)
(0.17209 0.000476926 0)
(0.907336 0.00699383 0)
(1.07075 0.0123185 0)
(1.09451 0.0169858 0)
(1.09289 0.0224589 0)
(1.0883 0.0289463 0)
(1.08181 0.0356696 0)
(1.07298 0.0417683 0)
(1.06152 0.0462207 0)
(1.04751 0.0477086 0)
(1.03364 0.0452415 0)
(1.02286 0.0400809 0)
(1.01519 0.0339192 0)
(1.0099 0.0277472 0)
(1.00634 0.0220915 0)
(1.00367 0.0170748 0)
(0.99227 0.0124365 0)
(0.902212 0.00772384 0)
(0.595628 0.00311282 0)
(0.121264 0.000316591 0)
(0.181429 0.000686853 0)
(0.927861 0.00980382 0)
(1.08662 0.0167254 0)
(1.10875 0.0226968 0)
(1.10583 0.0298565 0)
(1.09962 0.0381869 0)
(1.0909 0.0465115 0)
(1.07927 0.0538201 0)
(1.06452 0.0589013 0)
(1.04689 0.0601782 0)
(1.02971 0.0566502 0)
(1.01643 0.0500126 0)
(1.00696 0.0422879 0)
(1.00038 0.0345958 0)
(0.9959 0.0275564 0)
(0.992546 0.0213631 0)
(0.980309 0.0156695 0)
(0.887947 0.00979674 0)
(0.580478 0.00393364 0)
(0.115664 0.00039572 0)
(0.194639 0.00104313 0)
(0.955318 0.0142948 0)
(1.10762 0.0233279 0)
(1.12733 0.0312231 0)
(1.12228 0.0406152 0)
(1.11343 0.0510753 0)
(1.10147 0.0611079 0)
(1.0861 0.0695489 0)
(1.06728 0.0749555 0)
(1.04539 0.0755904 0)
(1.02442 0.070585 0)
(1.0083 0.0621476 0)
(0.996747 0.052595 0)
(0.988624 0.0431277 0)
(0.983016 0.0344246 0)
(0.978822 0.0267716 0)
(0.965519 0.0197641 0)
(0.870289 0.0124872 0)
(0.561773 0.00501453 0)
(0.108809 0.000493429 0)
(0.213963 0.00170327 0)
(0.992799 0.0215813 0)
(1.13559 0.0335523 0)
(1.15164 0.0441834 0)
(1.14313 0.0564599 0)
(1.13027 0.0693206 0)
(1.11373 0.0809721 0)
(1.09342 0.0900807 0)
(1.06955 0.0951446 0)
(1.04269 0.0944467 0)
(1.01751 0.0874075 0)
(0.99823 0.0768256 0)
(0.984293 0.0652277 0)
(0.974308 0.0538134 0)
(0.967237 0.0432659 0)
(0.961869 0.0339157 0)
(0.947099 0.0253392 0)
(0.84815 0.0162114 0)
(0.538682 0.00651652 0)
(0.100382 0.000634273 0)
(0.242952 0.00320131 0)
(1.04607 0.0350033 0)
(1.17272 0.0511866 0)
(1.18268 0.0654241 0)
(1.16844 0.0807056 0)
(1.14967 0.0953814 0)
(1.12701 0.107669 0)
(1.10061 0.116348 0)
(1.07089 0.120033 0)
(1.03855 0.117087 0)
(1.00883 0.107361 0)
(0.986147 0.0942845 0)
(0.969554 0.0804904 0)
(0.957358 0.0670717 0)
(0.948384 0.0546559 0)
(0.941257 0.0435025 0)
(0.92425 0.0333057 0)
(0.820127 0.021722 0)
(0.510075 0.00864093 0)
(0.0905785 0.00078823 0)
(0.283914 0.0104304 -1.45199e-21)
(1.11634 0.0628546 -9.56891e-22)
(1.21841 0.0829926 1.91677e-22)
(1.21774 0.101041 0)
(1.19543 0.117403 -7.22928e-36)
(1.16913 0.131787 1.34388e-22)
(1.13936 0.142878 -4.15952e-22)
(1.10625 0.149672 0)
(1.07024 0.15091 1.24389e-35)
(1.03196 0.145027 -8.83477e-22)
(0.997229 0.132304 0)
(0.970636 0.116701 -1.2132e-21)
(0.950798 0.100841 -3.68543e-21)
(0.935702 0.0856759 -1.77636e-21)
(0.923981 0.0718192 -5.55462e-22)
(0.913991 0.0594257 -3.35968e-22)
(0.893744 0.0482224 0)
(0.783721 0.0338922 2.42812e-22)
(0.473827 0.016865 2.89366e-22)
(0.0808399 0.00281621 5.20213e-21)
(0.307962 0.027844 -3.79335e-21)
(1.17291 0.1092 1.04664e-22)
(1.26036 0.132505 -1.65378e-22)
(1.24975 0.15017 0)
(1.21958 0.16477 -3.45667e-24)
(1.18591 0.177321 -2.28075e-22)
(1.14916 0.186539 -3.3414e-22)
(1.10937 0.191192 -1.77048e-21)
(1.06676 0.190004 0)
(1.02181 0.181466 3.73754e-21)
(0.980906 0.166276 4.02873e-21)
(0.949101 0.148836 1.27333e-21)
(0.924699 0.131698 4.95491e-21)
(0.905399 0.115665 7.25015e-21)
(0.889624 0.101173 0)
(0.875534 0.0886826 1.07449e-20)
(0.850221 0.0775269 1.57819e-20)
(0.742851 0.0599633 1.77541e-20)
(0.450225 0.0372121 -2.06858e-20)
(0.0788557 0.00693805 -3.83306e-22)
(0.301118 0.045481 0)
(1.20541 0.168875 -1.23243e-21)
(1.29205 0.194777 0)
(1.27482 0.209228 1.61002e-21)
(1.23846 0.220105 0)
(1.19848 0.229142 2.19878e-22)
(1.15554 0.235016 5.3449e-22)
(1.10962 0.236567 -2.95208e-21)
(1.06097 0.232321 -3.08693e-22)
(1.00996 0.220779 1.83548e-21)
(0.963546 0.20314 9.25753e-21)
(0.927198 0.184229 -5.21077e-23)
(0.89901 0.166518 -3.69591e-21)
(0.876408 0.150634 -7.09984e-21)
(0.857715 0.136931 8.6064e-21)
(0.841116 0.12547 -1.54607e-20)
(0.815703 0.115485 -2.11942e-21)
(0.72076 0.0967244 0)
(0.453498 0.063086 6.4073e-23)
(0.08648 0.0125978 0)
(0.28913 0.0600016 -3.29457e-20)
(1.2196 0.231767 1.31874e-20)
(1.31188 0.261566 6.70166e-21)
(1.29109 0.272923 -1.15196e-21)
(1.25038 0.279758 1.72254e-21)
(1.20572 0.284653 -8.30874e-22)
(1.15784 0.286603 9.4071e-22)
(1.10691 0.284426 0)
(1.05316 0.276701 -7.68419e-21)
(0.996921 0.261864 0)
(0.945898 0.241666 -4.73334e-21)
(0.906145 0.221298 -6.49671e-21)
(0.875473 0.203117 -4.10796e-21)
(0.851084 0.187424 -5.25068e-21)
(0.831224 0.174254 0)
(0.814094 0.163596 0)
(0.790396 0.154119 -1.41123e-20)
(0.705285 0.134197 2.83008e-21)
(0.453931 0.0886099 -1.66822e-21)
(0.0897496 0.0180515 -1.97588e-21)
(0.278075 0.0728905 2.48281e-20)
(1.22194 0.294061 0)
(1.32221 0.329027 -1.91749e-20)
(1.2994 0.337688 -4.56372e-21)
(1.25583 0.34061 -3.06927e-21)
(1.20795 0.341358 0)
(1.15635 0.3394 2.67419e-22)
(1.1014 0.333376 2.85629e-21)
(1.04345 0.321997 3.51537e-21)
(0.982995 0.30368 9.03879e-21)
(0.928348 0.28071 0)
(0.886007 0.258645 -1.40665e-20)
(0.853689 0.23957 -8.90128e-21)
(0.828333 0.223542 -5.34565e-21)
(0.807958 0.210403 3.47055e-20)
(0.790788 0.199971 4.24659e-21)
(0.768753 0.190538 2.03439e-20)
(0.69011 0.168345 -9.87766e-20)
(0.448618 0.11115 5.91907e-20)
(0.0898009 0.0227261 -7.23459e-20)
(0.26892 0.0844246 2.65433e-20)
(1.21707 0.353763 -4.75817e-21)
(1.32552 0.395026 3.4556e-21)
(1.30156 0.401464 9.0502e-21)
(1.25594 0.400707 5.19744e-21)
(1.20558 0.397698 3.24401e-22)
(1.15123 0.391969 -3.79172e-22)
(1.09316 0.382258 2.47857e-21)
(1.03176 0.367214 -7.6183e-21)
(0.967659 0.345391 0)
(0.909887 0.319419 -6.09525e-21)
(0.865532 0.295236 -2.95697e-22)
(0.832103 0.274782 -9.9046e-21)
(0.806253 0.257917 0)
(0.785857 0.244265 -7.54831e-21)
(0.769078 0.233454 -1.83188e-20)
(0.748331 0.223366 5.06454e-20)
(0.673641 0.198464 -5.07773e-20)
(0.439626 0.130631 7.26849e-20)
(0.0882356 0.0266926 -7.66165e-20)
(0.261728 0.0951191 -1.20885e-22)
(1.20784 0.410227 5.91746e-21)
(1.32356 0.458559 1.68195e-20)
(1.29904 0.46322 -5.68604e-21)
(1.25204 0.459147 3.03122e-21)
(1.19983 0.452753 0)
(1.14327 0.443523 7.85861e-22)
(1.08258 0.430328 -2.25635e-21)
(1.01827 0.41179 -3.61645e-21)
(0.951119 0.386416 0)
(0.890788 0.357249 -5.9957e-21)
(0.844828 0.330616 -8.22736e-21)
(0.810593 0.308384 1.07978e-20)
(0.78453 0.290226 -6.8553e-21)
(0.76429 0.275604 -3.3127e-20)
(0.747944 0.263992 2.03144e-20)
(0.728126 0.252929 6.41897e-21)
(0.656061 0.225139 0)
(0.428524 0.147651 -7.03856e-20)
(0.0857893 0.0300265 -2.61647e-21)
(0.256219 0.105305 4.40918e-21)
(1.19616 0.46337 -6.85891e-21)
(1.31776 0.518976 -9.21609e-21)
(1.293 0.522314 -1.74044e-20)
(1.24503 0.515381 1.51727e-20)
(1.19145 0.505971 -7.24923e-21)
(1.13314 0.493606 -1.6729e-21)
(1.07037 0.477161 -3.41573e-21)
(1.00367 0.455343 3.10503e-21)
(0.933812 0.426471 -2.19255e-20)
(0.871063 0.393993 -7.25179e-21)
(0.823603 0.364641 0)
(0.788686 0.340265 1.1784e-20)
(0.762495 0.320427 1.44987e-20)
(0.742489 0.304492 1.77844e-20)
(0.726593 0.291771 -2.21393e-20)
(0.707521 0.279495 -6.67246e-21)
(0.637497 0.248788 7.96141e-21)
(0.415908 0.162352 0)
(0.0827314 0.0327428 -5.7064e-21)
(0.252012 0.115066 -5.15155e-20)
(1.18328 0.513332 3.17008e-20)
(1.30912 0.576189 1.01674e-20)
(1.28435 0.578484 -1.34537e-20)
(1.2357 0.569055 9.28953e-21)
(1.18115 0.556964 -7.69708e-22)
(1.12151 0.541782 1.50973e-21)
(1.05698 0.522465 -1.31708e-21)
(0.988119 0.497589 -6.35333e-21)
(0.915763 0.465407 2.72403e-23)
(0.850691 0.429563 -2.17747e-20)
(0.801756 0.397267 2.07346e-20)
(0.766164 0.37042 -1.31637e-20)
(0.739873 0.348574 1.62916e-20)
(0.720122 0.331013 0)
(0.704682 0.316944 -1.20279e-20)
(0.686274 0.303239 -2.68262e-22)
(0.61797 0.269509 -3.47834e-20)
(0.401968 0.174846 -5.17975e-21)
(0.0791382 0.0347818 0)
(0.248876 0.12458 0)
(1.16994 0.560347 3.43195e-20)
(1.29849 0.630149 2.3986e-20)
(1.27383 0.631592 1.53239e-20)
(1.22473 0.619966 8.80089e-21)
(1.16943 0.605498 0)
(1.10873 0.587856 2.32356e-21)
(1.04274 0.565988 -2.57487e-22)
(0.971915 0.538425 1.34246e-20)
(0.89723 0.503182 -2.74003e-21)
(0.829824 0.463997 -1.59176e-20)
(0.779282 0.428597 1.04483e-20)
(0.742913 0.398986 -3.97531e-22)
(0.716457 0.374795 1.72152e-20)
(0.696942 0.355324 1.11552e-20)
(0.681983 0.339677 -2.61908e-20)
(0.664171 0.324333 3.1738e-20)
(0.597266 0.28734 9.53616e-21)
(0.38662 0.185003 3.97544e-20)
(0.0749277 0.036067 -1.076e-19)
(0.246628 0.133919 -1.33176e-20)
(1.15667 0.604578 1.99679e-20)
(1.28653 0.680852 -1.5211e-20)
(1.26198 0.681595 -1.80081e-20)
(1.21258 0.66803 0)
(1.15677 0.651467 7.04712e-21)
(1.09525 0.631701 -6.4492e-21)
(1.02806 0.607647 1.86823e-21)
(0.95547 0.577763 0)
(0.878376 0.539775 -4.16783e-20)
(0.808564 0.497419 4.33225e-20)
(0.756227 0.45879 0)
(0.718876 0.426174 1.56015e-20)
(0.692123 0.399315 -4.07046e-22)
(0.67281 0.37761 -3.54708e-20)
(0.6583 0.360084 1.39467e-20)
(0.641037 0.342914 0)
(0.575339 0.302366 5.16901e-20)
(0.369802 0.192829 0)
(0.0701631 0.036708 -5.1336e-20)
(0.245036 0.143077 1.48676e-20)
(1.14375 0.646178 2.2966e-20)
(1.27369 0.72835 -1.59109e-20)
(1.24929 0.728507 0)
(1.19973 0.713251 1.2586e-20)
(1.14359 0.694884 0)
(1.08148 0.673284 9.35839e-21)
(1.01323 0.647374 4.70522e-22)
(0.939024 0.615529 1.67785e-21)
(0.859458 0.575233 -2.05668e-20)
(0.78707 0.529947 4.24708e-21)
(0.732681 0.488088 0)
(0.694054 0.452238 -3.33073e-20)
(0.666744 0.422368 4.23691e-22)
(0.647528 0.398134 0)
(0.633424 0.378358 4.90555e-22)
(0.616728 0.359046 4.68806e-20)
(0.552053 0.314631 -4.53851e-20)
(0.351436 0.198224 1.34959e-20)
(0.0647959 0.0365667 0)
(0.243717 0.151927 0)
(1.13127 0.685265 2.57577e-20)
(1.26038 0.772747 1.88369e-20)
(1.2361 0.772388 -4.23049e-22)
(1.18651 0.755658 8.04951e-21)
(1.13019 0.735749 1.68924e-20)
(1.06763 0.712602 -2.92915e-21)
(0.998545 0.68517 -4.66455e-22)
(0.922826 0.651734 8.78668e-21)
(0.840887 0.609508 -3.21127e-20)
(0.765613 0.561634 -6.47447e-22)
(0.708787 0.516689 -1.37604e-20)
(0.668399 0.477452 5.46585e-20)
(0.640146 0.444272 -5.14901e-22)
(0.620832 0.416977 -2.81258e-20)
(0.607358 0.39468 -5.12706e-20)
(0.591272 0.372806 0)
(0.527252 0.324152 0)
(0.331334 0.201073 1.48805e-20)
(0.0588198 0.0355854 -8.8014e-21)
(0.242806 0.160603 1.85746e-20)
(1.11935 0.721698 -5.63852e-20)
(1.24687 0.814175 -2.01775e-20)
(1.22271 0.813347 0)
(1.17317 0.795341 -3.02628e-22)
(1.1168 0.774124 2.07515e-20)
(1.05395 0.749674 -1.06978e-20)
(0.984187 0.721015 -2.02153e-21)
(0.907134 0.686379 9.84146e-21)
(0.822892 0.642644 -2.49684e-20)
(0.744403 0.592683 -3.67573e-20)
(0.684623 0.544821 3.67524e-20)
(0.641904 0.502109 0)
(0.612296 0.465312 -1.27198e-20)
(0.592784 0.434382 -3.09334e-20)
(0.579841 0.409272 -3.72989e-20)
(0.564115 0.384344 -4.53368e-20)
(0.50028 0.330822 1.36355e-20)
(0.30918 0.20101 -8.0384e-21)
(0.0522016 0.0337172 1.11158e-22)
(0.241866 0.168894 0)
(1.10801 0.756039 0)
(1.23336 0.852806 4.88904e-22)
(1.2093 0.851531 0)
(1.15993 0.832419 -3.07033e-20)
(1.10361 0.810088 -1.86473e-20)
(1.04061 0.784542 0)
(0.97031 0.754924 -9.67056e-22)
(0.89208 0.719463 1.3856e-20)
(0.805523 0.674761 -5.72829e-20)
(0.723631 0.623219 0)
(0.660309 0.57268 -2.36013e-20)
(0.614913 0.526444 -6.26042e-22)
(0.583585 0.485736 -5.16458e-22)
(0.563345 0.451093 3.32073e-20)
(0.550252 0.422168 -6.47632e-23)
(0.534572 0.393682 -9.88819e-20)
(0.470777 0.334543 2.98741e-20)
(0.284737 0.197838 8.92028e-21)
(0.044927 0.0309128 0)
(0.240899 0.176736 -6.87138e-20)
(1.09699 0.788271 -3.47278e-20)
(1.21996 0.888784 -5.09861e-20)
(1.19604 0.887074 7.00256e-20)
(1.14691 0.866993 -5.79873e-20)
(1.09077 0.843708 0)
(1.02775 0.817262 -9.76032e-21)
(0.957054 0.786919 1.6998e-21)
(0.87775 0.750994 7.46524e-22)
(0.788977 0.705827 4.45951e-21)
(0.703584 0.653126 4.62999e-20)
(0.636367 0.600401 -8.1016e-21)
(0.587943 0.550828 -3.39465e-20)
(0.554218 0.506187 -1.52093e-20)
(0.532263 0.467142 1.85204e-20)
(0.518866 0.43383 -5.26937e-23)
(0.502986 0.400569 2.72827e-20)
(0.438635 0.334661 -6.50111e-20)
(0.257513 0.190939 7.80426e-20)
(0.0370106 0.0271032 1.14445e-20)
(0.239714 0.184138 2.52851e-20)
(1.08631 0.818494 -1.90103e-20)
(1.2068 0.922248 1.16366e-21)
(1.18304 0.92012 3.97813e-20)
(1.13422 0.899187 1.36714e-20)
(1.07835 0.875075 3.76596e-20)
(1.01546 0.847905 -4.4998e-21)
(0.944514 0.817059 8.8159e-21)
(0.864316 0.780956 -1.08197e-20)
(0.773467 0.735781 -3.17224e-20)
(0.684591 0.682548 0)
(0.613084 0.628328 -3.63984e-20)
(0.560396 0.576187 4.93501e-20)
(0.523101 0.527253 0)
(0.498908 0.482738 -3.97538e-20)
(0.484493 0.444442 2.47e-20)
(0.468552 0.405989 -2.96064e-20)
(0.403173 0.331665 -3.59051e-20)
(0.226937 0.18009 -6.38653e-20)
(0.0284538 0.022242 -5.05306e-20)
(0.238667 0.191158 -2.78497e-20)
(1.07585 0.846736 2.03565e-20)
(1.19393 0.953338 4.79195e-20)
(1.17038 0.950792 5.48662e-20)
(1.12194 0.929109 -2.86589e-20)
(1.06644 0.904285 2.62985e-20)
(1.00379 0.876543 -1.40014e-20)
(0.932769 0.845442 1.18066e-20)
(0.851874 0.809409 -5.13866e-21)
(0.75906 0.764681 3.07933e-20)
(0.666535 0.711696 9.88736e-20)
(0.590254 0.656562 0)
(0.532169 0.602227 0)
(0.490066 0.549042 -1.76189e-20)
(0.462991 0.499704 0)
(0.446874 0.45389 5.39525e-20)
(0.430811 0.407745 6.50497e-20)
(0.364435 0.323742 0)
(0.19408 0.164891 0)
(0.019843 0.0165919 5.54096e-20)
(0.237319 0.197544 3.0786e-20)
(1.06562 0.873208 2.45535e-20)
(1.18142 0.982194 3.45015e-20)
(1.15812 0.979241 -4.91952e-20)
(1.1101 0.956875 -3.21198e-20)
(1.05506 0.931419 -3.51701e-20)
(0.99277 0.903232 2.09903e-20)
(0.921869 0.87204 1.45194e-22)
(0.840477 0.836371 -9.6245e-22)
(0.745825 0.79249 -1.25021e-21)
(0.649588 0.740275 5.02353e-20)
(0.568588 0.68506 0)
(0.504819 0.62883 4.99268e-20)
(0.456201 0.572389 3.71911e-20)
(0.42455 0.517371 9.49521e-20)
(0.404708 0.463923 2.91312e-20)
(0.387487 0.406262 -3.62477e-20)
(0.321786 0.308461 -2.15055e-20)
(0.161391 0.1444 0)
(0.0126818 0.0107593 6.06821e-20)
(0.236151 0.203749 -6.78909e-20)
(1.05556 0.897973 0)
(1.16929 1.00896 3.8677e-20)
(1.14628 1.00558 -4.04328e-20)
(1.09875 0.98259 3.65829e-20)
(1.04423 0.956577 5.17542e-20)
(0.982436 0.928033 -4.94186e-20)
(0.911782 0.896888 1.86284e-22)
(0.830077 0.861794 0)
(0.733878 0.819134 -2.97233e-20)
(0.634168 0.768219 -1.04884e-19)
(0.548234 0.713524 5.01355e-21)
(0.478387 0.656795 6.7917e-20)
(0.422475 0.598205 0)
(0.383701 0.539606 6.39501e-20)
(0.356988 0.475564 0)
(0.334362 0.400509 0)
(0.272093 0.278001 -2.41537e-20)
(0.140063 0.109062 0)
(0.0247097 0.00924609 1.64632e-20)
(0.234633 0.209285 -7.42924e-20)
(1.0457 0.921095 0)
(1.15751 1.03383 6.28467e-20)
(1.1348 1.03004 0)
(1.08783 1.0065 -1.9963e-20)
(1.03389 0.980029 0)
(0.972683 0.951237 -3.7683e-21)
(0.90239 0.920306 -2.25422e-21)
(0.82052 0.886008 4.02375e-22)
(0.723045 0.844961 -2.99385e-20)
(0.620127 0.795995 2.80718e-21)
(0.52919 0.742636 4.13663e-20)
(0.453297 0.685928 6.58365e-20)
(0.389412 0.627171 9.35677e-21)
(0.340224 0.565908 4.98653e-20)
(0.301818 0.494891 0)
(0.261394 0.396094 7.92128e-20)
(0.19673 0.223707 -4.77727e-20)
(0.0708595 0.101284 5.59305e-20)
(-0.0295584 0.393335 -6.6488e-20)
(0.233101 0.214528 6.0671e-20)
(1.03591 0.942685 9.37094e-20)
(1.14598 1.05714 0)
(1.12357 1.05302 9.38652e-22)
(1.07717 1.02912 5.43763e-20)
(1.0238 1.00237 -1.01201e-19)
(0.963275 0.973534 -2.21805e-20)
(0.893449 0.943131 0)
(0.811546 0.910037 -1.69257e-21)
(0.712855 0.871254 -1.06045e-21)
(0.606765 0.825231 0)
(0.510623 0.774393 0)
(0.427821 0.718629 5.77238e-20)
(0.355772 0.661004 -2.90656e-20)
(0.293188 0.603274 -4.94196e-20)
(0.238626 0.528619 0)
(0.151031 0.400548 4.04657e-20)
(0.0468344 0.485682 -4.88413e-20)
(0.0513395 1.72582 -2.70717e-20)
(0.0859194 2.72462 -3.27964e-20)
(0.231302 0.219139 -4.45764e-20)
(1.02626 0.962926 -1.18494e-19)
(1.13472 1.07887 3.63716e-20)
(1.11261 1.0744 3.46533e-20)
(1.06683 1.05029 0)
(1.01403 1.02338 -7.2751e-20)
(0.954352 0.994652 -3.75302e-20)
(0.88505 0.964973 1.60195e-21)
(0.803302 0.933413 -1.82322e-22)
(0.703659 0.897285 2.40403e-20)
(0.59448 0.855024 4.75346e-20)
(0.493308 0.807775 4.28657e-20)
(0.403546 0.753989 5.66409e-20)
(0.323711 0.698119 -6.61259e-20)
(0.249738 0.649213 -7.26549e-20)
(0.174273 0.584079 0)
(0.0858294 0.843721 0)
(0.136015 2.43174 2.12925e-20)
(0.145805 3.14948 0)
(0.144449 3.36463 5.39006e-20)
(0.23239 0.223498 0)
(1.01685 0.982032 0)
(1.12346 1.09895 0)
(1.10174 1.09403 9.68586e-21)
(1.05659 1.06984 4.88412e-20)
(1.00436 1.04293 -5.5854e-20)
(0.945824 1.0145 -2.70476e-20)
(0.877123 0.985686 1.86385e-21)
(0.795724 0.955886 -8.447e-21)
(0.695384 0.922901 -2.08432e-21)
(0.583475 0.885198 8.69811e-20)
(0.477255 0.84264 -5.01958e-21)
(0.380769 0.792548 6.42059e-21)
(0.294828 0.735025 9.39414e-21)
(0.216977 0.703664 5.16593e-22)
(0.145932 0.948973 3.13278e-22)
(0.185613 2.55158 -1.01831e-19)
(0.210541 3.26343 -3.90483e-20)
(0.191893 3.4219 1.92576e-20)
(0.172401 3.44893 -2.02925e-20)
(0.152696 0.167352 2.6339e-20)
(1.00124 1.00287 0)
(1.11224 1.11762 -7.1512e-20)
(1.09136 1.1123 -9.01899e-20)
(1.04682 1.08823 1.01787e-19)
(0.995366 1.06141 5.93059e-20)
(0.937488 1.03311 3.19999e-20)
(0.86968 1.00533 -3.34838e-20)
(0.788905 0.977594 1.02938e-20)
(0.688336 0.948183 0)
(0.574284 0.915513 3.84066e-20)
(0.463791 0.878185 -3.24009e-20)
(0.360409 0.834907 0)
(0.270472 0.778355 8.48819e-21)
(0.20493 0.886852 2.06122e-20)
(0.188747 2.18061 -2.45661e-20)
(0.279265 3.29729 2.80647e-20)
(0.257608 3.44488 1.37939e-20)
(0.216045 3.47197 1.6111e-20)
(0.18796 3.4834 2.08873e-20)
(0.264217 0.25669 -5.12674e-20)
(0.97815 1.00572 0)
(1.09183 1.13639 7.40121e-20)
(1.07687 1.13936 9.42181e-20)
(1.03167 1.11491 -1.05907e-19)
(0.981149 1.08851 -6.38507e-20)
(0.924363 1.06159 -4.97709e-20)
(0.857951 1.03552 -2.48072e-21)
(0.778088 1.0115 -1.66363e-20)
(0.67689 0.988587 7.27647e-21)
(0.559317 0.966155 1.59673e-21)
(0.44017 0.938949 2.53421e-20)
(0.327257 0.911749 5.32683e-21)
(0.250962 1.00396 -7.44018e-21)
(0.286391 2.11102 -1.72477e-20)
(0.357066 3.2951 1.29173e-20)
(0.348256 3.48611 -1.16064e-20)
(0.303599 3.5137 -6.76319e-21)
(0.260422 3.54321 1.37341e-22)
(0.199244 3.53375 -3.11645e-22)
(0.252046 0.253564 0)
(0.972633 1.02388 1.96173e-20)
(1.0821 1.15527 -1.4639e-20)
(1.06608 1.15763 -1.04834e-20)
(1.02174 1.13309 -6.94637e-20)
(0.97219 1.10675 6.22885e-20)
(0.916271 1.08005 3.3606e-20)
(0.851154 1.05514 -2.63462e-21)
(0.772598 1.03375 2.13051e-20)
(0.672122 1.01555 -2.91699e-21)
(0.553825 0.999944 -5.20878e-20)
(0.431572 0.981409 3.60731e-21)
(0.322506 0.974741 -4.68128e-21)
(0.300265 1.38233 -6.1543e-21)
(0.399119 2.94721 4.03111e-21)
(0.441987 3.47487 4.43708e-22)
(0.386796 3.55861 -4.807e-21)
(0.342373 3.58551 -9.38501e-21)
(0.279754 3.60918 1.56854e-20)
(0.21444 3.59941 6.89006e-21)
(0.235946 0.248939 4.86443e-20)
(0.965631 1.04399 1.3117e-19)
(1.07148 1.17542 -4.15787e-20)
(1.0548 1.17694 -3.96953e-20)
(1.01139 1.15207 0)
(0.962859 1.12556 9.12246e-20)
(0.908175 1.09905 5.13748e-20)
(0.844801 1.07531 -2.80261e-21)
(0.768168 1.05665 2.18907e-21)
(0.668818 1.04332 6.51724e-21)
(0.54994 1.03455 -1.77668e-20)
(0.426778 1.02597 -2.50788e-20)
(0.336147 1.07053 -3.13409e-20)
(0.385863 1.929 3.26139e-20)
(0.504003 3.33287 1.53298e-20)
(0.504673 3.55781 0)
(0.437206 3.6135 0)
(0.385417 3.66616 1.54437e-20)
(0.303807 3.73014 0)
(0.226489 3.68656 3.32115e-20)
(0.22391 0.247967 -7.06455e-20)
(0.956221 1.06437 -1.08703e-19)
(1.05927 1.1962 0)
(1.04224 1.19658 1.01648e-21)
(0.999841 1.1711 -6.73961e-20)
(0.952561 1.14422 1.35475e-19)
(0.899556 1.11789 3.46359e-20)
(0.838361 1.09528 -3.55335e-21)
(0.763952 1.07918 2.53067e-20)
(0.666237 1.07055 -1.11081e-21)
(0.546514 1.069 0)
(0.42345 1.07272 0)
(0.372303 1.2305 -2.34783e-20)
(0.494256 2.54471 6.98317e-21)
(0.603864 3.49116 -2.65423e-21)
(0.560637 3.61234 0)
(0.509252 3.67844 3.92529e-20)
(0.432438 3.76439 -6.02392e-20)