/*--------------------------------*- C++ -*----------------------------------*\
  =========                 |
  \\      /  F ield         | OpenFOAM: The Open Source CFD Toolbox
   \\    /   O peration     | Website:  https://openfoam.org
    \\  /    A nd           | Version:  6
     \\/     M anipulation  |
\*---------------------------------------------------------------------------*/
FoamFile
{
    version     2.0;
    format      ascii;
    class       volScalarField;
    location    "2";
    object      p;
}
// * * * * * * * * * * * * * * * * * * * * * * * * * * * * * * * * * * * * * //

dimensions      [1 -1 -2 0 0 0 0];

internalField   nonuniform List<scalar> 
5250
(
1
1.00002
1.00004
1.00011
1.00023
1.00066
1.00134
1.0038
1.00766
1.02218
1.04353
1.13589
1.26144
1.87813
3.06566
7.52298
16.3777
14.5302
12.5026
11.7911
11.8746
12.1687
12.4438
12.5759
12.6395
1
1.00002
1.00004
1.00011
1.00023
1.00066
1.00134
1.00378
1.00763
1.02211
1.0434
1.13541
1.26062
1.87502
3.05843
7.49759
16.3243
14.4801
12.4578
11.7657
11.859
12.164
12.4356
12.5627
12.6309
1
1.00002
1.00004
1.00011
1.00023
1.00065
1.00133
1.00376
1.00757
1.02194
1.04311
1.13435
1.25881
1.86793
3.04144
7.43638
16.2037
14.3786
12.3643
11.7031
11.8092
12.1292
12.3912
12.5099
12.5851
1
1.00002
1.00004
1.00011
1.00023
1.00064
1.00131
1.00371
1.00748
1.02168
1.04262
1.13266
1.25567
1.85652
3.01351
7.33439
16.0171
14.236
12.2356
11.6051
11.7205
12.0502
12.2964
12.4033
12.4859
1
1.00002
1.00004
1.00011
1.00022
1.00063
1.00129
1.00364
1.00735
1.02129
1.04185
1.13038
1.25063
1.84117
2.97431
7.19394
15.766
14.0504
12.0747
11.4756
11.5965
11.9258
12.1542
12.2506
12.3363
1
1.00001
1.00004
1.00011
1.00022
1.00062
1.00126
1.00356
1.00717
1.02078
1.0408
1.1274
1.24375
1.82112
2.92225
7.00983
15.4414
13.8287
11.8848
11.3144
11.4368
11.7583
11.9634
12.0461
12.1343
1
1.00001
1.00003
1.0001
1.00021
1.0006
1.00122
1.00345
1.00695
1.02014
1.03948
1.12368
1.2352
1.79605
2.85744
6.78563
15.0421
13.5618
11.668
11.122
11.2396
11.5401
11.713
11.7719
11.8528
1
1.00001
1.00003
1.0001
1.0002
1.00057
1.00117
1.00331
1.00668
1.01936
1.03789
1.11915
1.22508
1.76583
2.78026
6.52544
14.5634
13.2417
11.4286
10.9021
11.0065
11.2675
11.39
11.4069
11.4519
1
1.00001
1.00003
1.00009
1.00019
1.00055
1.00111
1.00315
1.00636
1.01844
1.03606
1.11377
1.21352
1.73038
2.69026
6.22996
13.9998
12.8714
11.1661
10.6555
10.7373
10.9349
10.9731
10.9166
10.8361
1
1.00001
1.00003
1.00009
1.00018
1.0005
1.00102
1.0029
1.00578
1.01734
1.03196
1.10933
1.196
1.69278
2.59147
5.88675
13.3668
12.4691
10.8964
10.3923
10.4373
10.5315
10.4713
10.2448
9.79066
1
1.00001
1.00003
1.00007
1.00019
1.0004
1.00113
1.00229
1.00658
1.01294
1.04012
1.07283
1.25455
1.4965
2.67082
5.32998
12.6583
12.0104
10.6643
10.1315
10.118
10.074
9.86027
9.24049
7.50866
1
1.00001
1.00003
1.00006
1.00018
1.00037
1.00105
1.00212
1.00609
1.01204
1.03702
1.06773
1.23517
1.45345
2.54453
4.92742
11.8047
11.4332
10.4755
9.89757
9.79168
9.63558
9.25804
8.4226
6.65306
1
1.00001
1.00002
1.00007
1.00014
1.00039
1.00079
1.00226
1.00446
1.0136
1.02455
1.08634
1.15017
1.54567
2.19738
4.74154
10.817
10.7779
10.284
9.68376
9.47441
9.24725
8.77375
7.9004
6.491
1
1.00001
1.00002
1.00006
1.00013
1.00036
1.00073
1.00206
1.00416
1.01219
1.02315
1.07643
1.13522
1.48788
2.03466
4.317
9.69061
10.3502
10.067
9.49823
9.19934
8.90918
8.40118
7.60144
6.49482
1
1.00001
1.00002
1.00005
1.00011
1.00031
1.00064
1.0018
1.00364
1.01054
1.0204
1.06543
1.11695
1.41738
1.87158
3.79385
8.37274
10.0907
9.88702
9.38755
8.9755
8.62412
8.12849
7.41934
6.50469
1
1.00001
1.00002
1.00004
1.00009
1.00026
1.00053
1.0015
1.00304
1.00875
1.01714
1.0536
1.09702
1.33848
1.69929
3.21274
6.85858
10.0062
9.81947
9.30705
8.78723
8.38924
7.91862
7.28537
6.50327
1
1.00001
1.00001
1.00004
1.00008
1.00021
1.00043
1.00121
1.00245
1.00693
1.01378
1.04125
1.07716
1.25413
1.52055
2.59711
5.04781
9.83628
9.71129
9.25434
8.64262
8.19557
7.74124
7.17617
6.49676
1
1
1.00001
1.00003
1.00006
1.00017
1.00035
1.00096
1.00196
1.00551
1.01109
1.03229
1.06208
1.19904
1.38569
2.28903
4.09045
9.1657
9.4152
9.13484
8.53337
8.02702
7.5799
7.0735
6.47993
1
1
1.00001
1.00002
1.00005
1.00013
1.00027
1.00076
1.00154
1.00433
1.00866
1.02551
1.04777
1.1598
1.29195
2.02556
3.39071
7.65868
9.01151
8.86424
8.44304
7.88611
7.43891
6.97693
6.45143
1
1
1.00001
1.00002
1.00004
1.0001
1.00021
1.00059
1.0012
1.00335
1.00676
1.01951
1.03777
1.11998
1.22269
1.76132
2.73524
5.91295
8.77328
8.68621
8.36647
7.79376
7.33441
6.90266
6.42703
1
1
1
1.00001
1.00003
1.00008
1.00016
1.00044
1.0009
1.00251
1.00507
1.01438
1.02873
1.08425
1.17069
1.51217
2.17174
4.2203
8.27877
8.48459
8.28316
7.79613
7.2833
6.84834
6.40793
1
1
1
1.00001
1.00002
1.00006
1.00012
1.00033
1.00067
1.00185
1.00374
1.01057
1.02101
1.06269
1.11901
1.38452
1.82913
3.45866
7.12059
8.21983
8.10988
7.77952
7.27199
6.81699
6.39574
1
1
1
1.00001
1.00002
1.00004
1.00009
1.00024
1.00048
1.00134
1.00271
1.00764
1.01507
1.04555
1.08356
1.28084
1.5678
2.75441
5.3873
7.91022
7.89715
7.71824
7.29196
6.81644
6.39209
1
1
1
1.00001
1.00001
1.00003
1.00006
1.00017
1.00034
1.00094
1.0019
1.0053
1.01066
1.03071
1.05925
1.18477
1.36504
2.13716
3.6206
7.2752
7.76648
7.64403
7.31741
6.82972
6.39716
1
1
1
1
1.00001
1.00002
1.00005
1.0001
1.00027
1.00055
1.00152
1.00308
1.00868
1.01708
1.05175
1.09474
1.31847
1.6409
2.96613
5.77981
7.52782
7.49361
7.30334
6.87753
6.41731
1
1
1
1
1.00001
1.00001
1.00003
1.00007
1.00018
1.00038
1.00103
1.00209
1.00583
1.01162
1.03395
1.06379
1.20408
1.40068
2.21689
3.84925
7.04702
7.38538
7.26526
6.95613
6.46671
1
1
1
1
1
1.00001
1.00002
1.00005
1.00011
1.00029
1.0006
1.00165
1.00333
1.00937
1.01861
1.05477
1.10625
1.32687
1.71514
3.00056
5.87723
7.16689
7.1389
6.95631
6.55949
1
1
1
1
1
1.00001
1.00001
1.00004
1.00007
1.0002
1.0004
1.0011
1.00223
1.00618
1.01231
1.0359
1.06732
1.21549
1.42431
2.28136
4.00999
6.69612
7.00367
6.90827
6.64167
1
1
1
1
1
1
1.00001
1.00002
1.00005
1.00011
1.0003
1.00061
1.00169
1.00342
1.0096
1.01924
1.05509
1.11295
1.32336
1.72872
2.94789
5.60561
6.77669
6.7639
6.62653
1
1
1
1
1
1
1.00001
1.00001
1.00003
1.00008
1.00017
1.00046
1.00093
1.00256
1.00516
1.01453
1.02878
1.0846
1.1671
1.50104
2.11678
3.87474
6.28802
6.63024
6.56157
1
1
1
1
1
1
1
1.00001
1.00002
1.00004
1.00012
1.00025
1.00067
1.00137
1.00377
1.00749
1.02171
1.04027
1.13048
1.23661
1.77409
2.68988
5.21468
6.40872
6.41619
1
1
1
1
1
1
1
1.00001
1.00001
1.00003
1.00008
1.00016
1.00043
1.00087
1.00236
1.00478
1.01323
1.02631
1.0758
1.15011
1.43993
1.96698
3.41412
5.90068
6.31671
1
1
1
1
1
1
1
1
1.00001
1.00002
1.00005
1.0001
1.00026
1.00054
1.00146
1.00295
1.00814
1.01622
1.04633
1.09162
1.26787
1.58095
2.56668
4.70933
6.06347
1
1
1
1
1
1
1
1
1
1.00001
1.00002
1.00007
1.00014
1.00037
1.00075
1.00206
1.00415
1.01148
1.02308
1.06468
1.13361
1.37085
1.82636
3.0593
5.45028
1
1
1
1
1
1
1
1
1
1.00001
1.00002
1.00004
1.0001
1.00019
1.00053
1.00107
1.00291
1.00585
1.01642
1.03148
1.09689
1.17855
1.56853
2.21867
4.12494
1
1
1
1
1
1
1
1
1
1
1.00001
1.00002
1.00005
1.00013
1.00027
1.00073
1.00148
1.00404
1.0081
1.02276
1.04376
1.13272
1.25389
1.75941
2.66049
1
1
1
1
1
1
1
1
1
1
1.00001
1.00001
1.00003
1.00008
1.00016
1.00043
1.00088
1.00237
1.00478
1.01309
1.02596
1.07439
1.14454
1.42424
1.91381
1
1
1
1
1
1
1
1
1
1
1
1.00001
1.00002
1.00005
1.00009
1.00025
1.00051
1.00137
1.00277
1.00754
1.01518
1.04189
1.08609
1.23657
1.5188
1
1
1
1
1
1
1
1
1
1
1
1
1.00001
1.00002
1.00006
1.00012
1.00033
1.00067
1.00181
1.00364
1.00995
1.02012
1.05508
1.11492
1.30912
1
1
1
1
1
1
1
1
1
1
1
1
1.00001
1.00001
1.00003
1.00008
1.00016
1.00043
1.00088
1.00236
1.00476
1.01304
1.02581
1.07398
1.14317
1
1
1
1
1
1
1
1
1
1
1
1
1
1.00001
1.00002
1.00004
1.0001
1.00021
1.00056
1.00112
1.00303
1.00602
1.01706
1.03166
1.0995
1
1
1
1
1
1
1
1
1
1
1
1
1
1
1.00001
1.00002
1.00005
1.00013
1.00027
1.00071
1.00144
1.00387
1.00777
1.02146
1.04184
1
1
1
1
1
1
1
1
1
1
1
1
1
1
1.00001
1.00001
1.00003
1.00006
1.00017
1.00034
1.00089
1.0018
1.00483
1.00968
1.02668
1
1
1
1
1
1
1
1
1
1
1
1
1
1
1
1.00001
1.00002
1.00003
1.00009
1.00018
1.00049
1.00099
1.00262
1.00527
1.01443
1
1
1
1
1
1
1
1
1
1
1
1
1
1
1
1
1.00001
1.00002
1.00005
1.0001
1.00026
1.00053
1.00142
1.00287
1.00768
1
1
1
1
1
1
1
1
1
1
1
1
1
1
1
1
1
1.00001
1.00003
1.00005
1.00014
1.00028
1.00074
1.00149
1.00396
1
1
1
1
1
1
1
1
1
1
1
1
1
1
1
1
1
1.00001
1.00001
1.00003
1.00006
1.00016
1.00033
1.00087
1.00177
1
1
1
1
1
1
1
1
1
1
1
1
1
1
1
1
1
1
1.00001
1.00002
1.00003
1.00009
1.00018
1.00046
1.00094
1
1
1
1
1
1
1
1
1
1
1
1
1
1
1
1
1
1
1
1.00001
1.00002
1.00005
1.0001
1.00026
1.00053
1
1
1
1
1
1
1
1
1
1
1
1
1
1
1
1
1
1
1
1.00001
1.00001
1.00003
1.00008
1.00016
1.00043
3.52363
1.84064
1.19447
0.933406
0.921008
0.943524
1.01386
1.16722
1.29825
1.34446
1.34854
1.34796
1.34831
1.3499
1.35372
1.3606
1.36585
1.36977
1.37181
1.37337
1.3744
1.37506
1.3754
1.37539
1.37527
1.37484
1.3738
1.37163
1.36887
1.36565
1.36185
1.35733
1.35251
1.34745
1.34169
1.33717
1.33765
1.33972
1.34606
1.36284
1.40404
1.50099
1.72571
2.25231
3.53835
4.95879
4.73696
4.63575
4.64429
4.68528
4.73569
4.78541
4.799
4.79254
4.7741
4.74522
4.69849
4.64136
4.57938
4.51718
4.45404
4.38975
4.32408
4.25715
4.18902
4.12017
4.05101
3.98205
3.91359
3.84589
3.7791
3.71333
3.64869
3.58524
3.52304
3.46208
3.4024
3.34391
3.28666
3.23053
3.17558
3.1217
3.06894
3.01715
2.96635
2.91643
2.86748
2.81948
2.77244
2.72631
2.68113
2.63684
2.5935
2.55103
2.50962
2.46927
2.43055
2.39426
2.36335
2.34053
3.95561
2.37688
1.67585
1.40926
1.34533
1.32613
1.28761
1.25664
1.26316
1.28142
1.31495
1.34145
1.35683
1.3635
1.36591
1.36777
1.36974
1.37162
1.37314
1.37429
1.37509
1.37561
1.37572
1.37564
1.37539
1.37479
1.37357
1.37149
1.36864
1.36529
1.36144
1.35699
1.35218
1.3469
1.3415
1.33659
1.33695
1.33874
1.34446
1.35942
1.39747
1.48597
1.69426
2.17533
3.31358
5.0031
4.90833
4.75367
4.6908
4.69385
4.70826
4.73646
4.74249
4.74057
4.73159
4.71136
4.67394
4.62069
4.56149
4.50134
4.44009
4.37725
4.31276
4.2468
4.17954
4.11145
4.04302
3.9747
3.90684
3.83962
3.77328
3.70788
3.64364
3.58053
3.51873
3.4581
3.39879
3.34061
3.28368
3.22779
3.17305
3.11933
3.06671
3.01505
2.9644
2.9147
2.86594
2.81806
2.77112
2.72504
2.67995
2.63567
2.59243
2.54994
2.50861
2.46815
2.4293
2.39264
2.36008
2.33712
4.73175
3.39812
2.53959
1.9898
1.64617
1.43584
1.30537
1.22264
1.2116
1.218
1.23754
1.27827
1.3129
1.3359
1.34879
1.35578
1.36024
1.36331
1.36566
1.36747
1.36899
1.37017
1.37098
1.37129
1.37124
1.37098
1.37026
1.36867
1.36577
1.36241
1.35862
1.35435
1.34963
1.34458
1.33934
1.33545
1.33587
1.33786
1.344
1.36004
1.39767
1.48573
1.68128
2.11634
3.05624
4.95997
5.14072
5.06329
4.90263
4.81433
4.76259
4.71479
4.69524
4.68089
4.66614
4.65209
4.63135
4.59216
4.54125
4.48572
4.42689
4.36547
4.30209
4.23689
4.17017
4.10251
4.03454
3.96665
3.89925
3.83244
3.76655
3.70153
3.63775
3.57503
3.51373
3.45353
3.39468
3.3369
3.28044
3.22497
3.1707
3.11727
3.06493
3.01338
2.96289
2.9132
2.86454
2.81665
2.7698
2.7237
2.67871
2.6344
2.59129
2.54875
2.50752
2.46693
2.42797
2.39087
2.35689
2.33303
5.16361
3.98636
3.08133
2.42814
1.98076
1.68455
1.49168
1.37926
1.32048
1.29152
1.29178
1.29586
1.30735
1.33073
1.35011
1.36525
1.37471
1.37904
1.37996
1.37981
1.37941
1.37856
1.37765
1.37672
1.37573
1.37452
1.37292
1.37077
1.36785
1.36436
1.36036
1.35594
1.35109
1.34616
1.34125
1.33999
1.34084
1.34427
1.35393
1.3772
1.43249
1.54874
1.80025
2.30869
2.97606
3.86926
4.68499
5.00091
4.97868
4.92164
4.83384
4.74687
4.69032
4.65015
4.61688
4.59211
4.56703
4.53541
4.4976
4.45204
4.39956
4.3433
4.28359
4.22057
4.1552
4.08838
4.02094
3.95341
3.88642
3.82006
3.75477
3.69036
3.6273
3.56527
3.50473
3.44531
3.38734
3.3303
3.27449
3.21945
3.16554
3.11233
3.06023
3.00881
2.95851
2.9089
2.86043
2.81264
2.76599
2.72
2.6752
2.63097
2.58802
2.54553
2.50443
2.46382
2.42479
2.38737
2.35264
2.32731
5.42459
4.38794
3.5218
2.85233
2.35827
2.00297
1.74891
1.57032
1.44679
1.36468
1.3169
1.29167
1.292
1.29574
1.3054
1.32426
1.33953
1.35144
1.35924
1.36377
1.3664
1.36702
1.36693
1.36665
1.36609
1.36504
1.3636
1.36178
1.35944
1.35654
1.35308
1.34912
1.34487
1.34048
1.33842
1.33898
1.34143
1.34913
1.36669
1.41292
1.50411
1.71079
2.12187
2.66804
2.99043
3.31814
3.72344
4.18512
4.58005
4.79441
4.81385
4.79542
4.74897
4.66967
4.61484
4.57616
4.53306
4.49196
4.44986
4.40402
4.35698
4.30918
4.25579
4.19772
4.13632
4.07199
4.00592
3.93908
3.87246
3.80634
3.74144
3.67759
3.61542
3.55445
3.49506
3.43665
3.37957
3.32322
3.26803
3.21344
3.15997
3.1071
3.05536
3.00422
2.95424
2.90488
2.8567
2.80912
2.76275
2.71692
2.67236
2.62826
2.5855
2.5431
2.50212
2.46155
2.42254
2.38491
2.34991
2.32324
5.60035
4.69871
3.89921
3.24222
2.72394
2.32735
2.02508
1.79769
1.62752
1.50367
1.41681
1.35956
1.32733
1.31291
1.31354
1.31704
1.32531
1.34026
1.35301
1.36385
1.3706
1.37408
1.37422
1.37391
1.37301
1.3711
1.36857
1.36572
1.36265
1.3593
1.35563
1.35171
1.34758
1.34529
1.34572
1.34797
1.3543
1.37209
1.40895
1.49999
1.67927
2.05838
2.62299
2.90342
3.02244
3.12666
3.27235
3.46369
3.70503
4.04656
4.37145
4.57859
4.67941
4.67292
4.65222
4.61139
4.54407
4.48652
4.42837
4.36956
4.31839
4.26614
4.21423
4.16257
4.10753
4.0484
3.9866
3.92253
3.85745
3.79199
3.72754
3.66416
3.60253
3.54216
3.48343
3.42569
3.36924
3.3135
3.25887
3.20478
3.15178
3.09926
3.04788
2.99702
2.94733
2.89823
2.85034
2.803
2.7569
2.71129
2.66697
2.62305
2.58051
2.53826
2.49746
2.45698
2.41805
2.38029
2.34525
2.31769
5.72251
4.93636
4.20849
3.58075
3.05899
2.63945
2.30443
2.04175
1.83528
1.67589
1.55309
1.46181
1.39625
1.35299
1.32795
1.31663
1.31721
1.32007
1.32681
1.33782
1.34742
1.35498
1.35991
1.36209
1.36204
1.36161
1.36046
1.35803
1.35491
1.35133
1.34778
1.34394
1.34182
1.34222
1.34429
1.35013
1.36592
1.40014
1.48131
1.6457
1.99083
2.57922
2.90794
3.01182
3.04295
3.06309
3.08472
3.12917
3.21621
3.35439
3.55033
3.84982
4.17975
4.42526
4.57292
4.59171
4.57789
4.53968
4.46349
4.38218
4.31051
4.239
4.17797
4.12094
4.06541
4.01089
3.95562
3.89738
3.83712
3.77523
3.71296
3.65071
3.58955
3.52941
3.47088
3.41345
3.35744
3.30225
3.2482
3.19477
3.14239
3.09027
3.03966
2.98914
2.94003
2.8913
2.84386
2.79689
2.75116
2.70586
2.66189
2.61824
2.576
2.53397
2.49342
2.4531
2.41436
2.3766
2.3416
2.31351
5.80798
5.11539
4.45544
3.86455
3.35417
2.92724
2.57399
2.28678
2.05304
1.86549
1.71458
1.59561
1.50245
1.43284
1.38272
1.3498
1.33094
1.32303
1.3236
1.32595
1.33139
1.34057
1.34848
1.35485
1.35876
1.35969
1.35949
1.35873
1.3569
1.35338
1.3497
1.34659
1.34691
1.34877
1.35419
1.36876
1.40083
1.47672
1.63155
1.95542
2.55643
2.91807
3.0401
3.06302
3.05834
3.04106
3.00412
2.97953
2.98619
3.01592
3.08351
3.21195
3.39412
3.68115
4.01456
4.29359
4.46885
4.50768
4.49437
4.45418
4.36776
4.26557
4.18206
4.10007
4.0307
3.97033
3.91348
3.85924
3.8055
3.75028
3.69347
3.63508
3.57613
3.51707
3.45881
3.40137
3.34522
3.29002
3.23604
3.18286
3.13079
3.07925
3.02909
2.97892
2.93068
2.88215
2.83553
2.78885
2.74362
2.69861
2.65501
2.61163
2.56975
2.52794
2.48772
2.44762
2.40907
2.37142
2.33647
2.30804
5.8645
5.25088
4.65297
4.10137
3.61036
3.18605
2.82489
2.52215
2.26943
2.06044
1.88768
1.74637
1.63122
1.53889
1.46612
1.41125
1.37165
1.3455
1.33049
1.32384
1.32425
1.32594
1.32981
1.3365
1.34215
1.34597
1.34837
1.3484
1.34813
1.34724
1.34522
1.34539
1.34673
1.35157
1.36321
1.39575
1.46036
1.61023
1.9071
2.50867
2.93097
3.07339
3.09787
3.09205
3.06833
3.0185
2.95829
2.90661
2.87403
2.86171
2.86862
2.89604
2.95765
3.07803
3.24563
3.51291
3.84629
4.15459
4.35516
4.4133
4.40032
4.35671
4.26139
4.14242
4.04919
3.95912
3.88297
3.81991
3.76381
3.71156
3.66041
3.60842
3.55505
3.50018
3.44446
3.38843
3.33276
3.27767
3.22356
3.17037
3.11831
3.06718
3.01726
2.96773
2.92008
2.87212
2.82627
2.77986
2.73562
2.69065
2.64802
2.60445
2.56353
2.52161
2.48198
2.4421
2.40372
2.36625
2.33137
2.30271
5.90378
5.35609
4.81333
4.30049
3.83261
3.41733
3.05525
2.74405
2.47861
2.25389
2.06425
1.90505
1.77194
1.66139
1.57066
1.49707
1.43896
1.39471
1.36288
1.3415
1.32932
1.32327
1.3235
1.32453
1.32699
1.33193
1.33619
1.33913
1.34122
1.34242
1.34353
1.34614
1.35142
1.36527
1.39209
1.46036
1.59334
1.88276
2.45791
2.943
3.11042
3.14347
3.13774
3.11378
3.06385
2.99622
2.93113
2.87237
2.82237
2.78468
2.75865
2.7494
2.7556
2.77991
2.83448
2.94396
3.09552
3.33646
3.66256
3.99572
4.22326
4.30915
4.29543
4.24972
4.14949
4.01815
3.91723
3.82291
3.74275
3.67743
3.62073
3.56947
3.52048
3.47141
3.42131
3.36983
3.3172
3.26397
3.21076
3.15796
3.10596
3.05487
3.00494
2.95581
2.90822
2.86081
2.81541
2.76965
2.72597
2.68139
2.6395
2.59612
2.5559
2.51415
2.47498
2.43539
2.39724
2.35997
2.3252
2.29636
5.93349
5.44026
4.94502
4.46828
4.02491
3.62249
3.26439
2.95017
2.67702
2.4414
2.23894
2.06584
1.91824
1.79292
1.68714
1.59839
1.525
1.465
1.4174
1.38079
1.35439
1.33617
1.32571
1.31996
1.31961
1.32013
1.32164
1.32477
1.32852
1.33205
1.33695
1.34376
1.35806
1.38525
1.44956
1.57343
1.84413
2.38469
2.94631
3.14872
3.19187
3.18729
3.16493
3.11616
3.04563
2.97532
2.91049
2.8511
2.79713
2.74841
2.70706
2.67424
2.65054
2.63984
2.64479
2.6647
2.71052
2.80715
2.94574
3.15857
3.46719
3.81855
4.07685
4.19658
4.1821
4.13536
4.0331
3.89493
3.78707
3.69086
3.60901
3.54177
3.48403
3.4333
3.386
3.3393
3.29199
3.24353
3.19389
3.14354
3.09306
3.04275
2.99315
2.94425
2.89648
2.84955
2.80393
2.75868
2.71531
2.67117
2.62992
2.58685
2.54727
2.50582
2.46714
2.4279
2.39005
2.35301
2.31843
2.28943
5.9592
5.50694
5.052
4.6091
4.19024
3.80375
3.45332
3.14028
2.86338
2.62061
2.40878
2.22487
2.06563
1.92821
1.81004
1.70877
1.6226
1.54976
1.48909
1.43917
1.39929
1.36841
1.34574
1.33006
1.32055
1.31526
1.31518
1.31596
1.31827
1.32321
1.33267
1.34687
1.37402
1.43445
1.54886
1.80054
2.29786
2.92882
3.18019
3.2358
3.23381
3.21492
3.1705
3.09896
3.02541
2.95623
2.89276
2.83414
2.77982
2.72897
2.68189
2.63852
2.60053
2.56858
2.54534
2.53093
2.53472
2.54926
2.58657
2.66583
2.79346
2.98131
3.26308
3.6217
3.92353
4.07488
4.05959
4.01266
3.91065
3.77122
3.65876
3.56284
3.48094
3.41267
3.35423
3.30344
3.25721
3.21241
3.16752
3.12188
3.07528
3.02788
2.98016
2.93242
2.88511
2.83838
2.79269
2.74744
2.70416
2.66
2.61924
2.57641
2.53726
2.49617
2.45797
2.41916
2.38168
2.34493
2.31064
2.28155
5.97768
5.55863
5.13908
4.72691
4.33265
3.96334
3.62333
3.31463
3.0374
2.79051
2.57221
2.37998
2.21146
2.0641
1.93562
1.82394
1.72706
1.64359
1.57183
1.51099
1.45963
1.41739
1.38299
1.3566
1.33638
1.32318
1.31418
1.3145
1.31656
1.32213
1.33486
1.35963
1.41422
1.51934
1.74538
2.19426
2.88033
3.188
3.27152
3.27074
3.25543
3.21908
3.14852
3.07257
3.00096
2.935
2.87467
2.81833
2.76535
2.71462
2.66625
2.61977
2.57588
2.53449
2.49715
2.4636
2.43956
2.42125
2.42315
2.43274
2.46097
2.52419
2.63989
2.80597
3.05695
3.4087
3.75679
3.94377
3.92739
3.88157
3.78477
3.65042
3.53428
3.43932
3.3577
3.28995
3.23163
3.18067
3.13518
3.09187
3.04897
3.00569
2.96175
2.91699
2.87181
2.82633
2.78145
2.73615
2.69322
2.64883
2.60812
2.56534
2.52636
2.48553
2.44763
2.40922
2.37214
2.33573
2.30182
2.27273
5.9954
5.60329
5.21256
4.82843
4.45682
4.10444
3.77568
3.47312
3.19795
2.94958
2.72717
2.5291
2.35335
2.19809
2.06105
1.94071
1.83484
1.74245
1.66147
1.59146
1.53052
1.47883
1.43442
1.39826
1.36763
1.34608
1.32671
1.32534
1.32771
1.3362
1.3554
1.40214
1.49347
1.6928
2.08824
2.77684
3.17025
3.28798
3.29905
3.28685
3.25521
3.18993
3.11162
3.03823
2.97212
2.91169
2.85569
2.8023
2.75105
2.70111
2.65269
2.60529
2.55946
2.51471
2.47182
2.43093
2.39302
2.35894
2.3325
2.31201
2.30865
2.31449
2.33651
2.38702
2.48654
2.63631
2.85557
3.19316
3.57271
3.80336
3.78654
3.74361
3.65724
3.53114
3.41451
3.32059
3.24031
3.1741
3.11637
3.06519
3.0199
2.97737
2.93579
2.89426
2.85245
2.80982
2.76725
2.72337
2.68132
2.63746
2.59684
2.55417
2.5151
2.47439
2.43657
2.39841
2.36157
2.32546
2.29192
2.26286
6.01954
5.64536
5.27978
4.91904
4.56724
4.2303
3.91295
3.61755
3.34575
3.09803
2.87344
2.67151
2.49031
2.32895
2.18487
2.05741
1.94397
1.84401
1.75527
1.67752
1.60854
1.54888
1.49603
1.45164
1.41218
1.38285
1.35482
1.354
1.35798
1.37243
1.40611
1.48944
1.65368
1.9999
2.66333
3.13541
3.29494
3.31993
3.30887
3.27798
3.21342
3.13515
3.06322
2.99875
2.9405
2.88604
2.83422
2.78363
2.73421
2.68536
2.6375
2.59019
2.54388
2.49804
2.45339
2.40937
2.36709
2.3265
2.28846
2.25453
2.22528
2.20395
2.19456
2.19867
2.2149
2.25474
2.33679
2.47254
2.66779
2.98601
3.37684
3.65448
3.63916
3.60115
3.53019
3.41419
3.30026
3.2068
3.12872
3.06394
3.00707
2.95605
2.91034
2.86785
2.82712
2.78674
2.74686
2.70588
2.66584
2.62382
2.58418
2.5424
2.50355
2.46322
2.42532
2.38731
2.35058
2.31462
2.28134
2.25219
6.06095
5.69712
5.34521
5.00052
4.66558
4.34262
4.03602
3.74869
3.48157
3.23589
3.01114
2.80715
2.62208
2.45618
2.30646
2.17299
2.05325
1.94672
1.8513
1.76686
1.69104
1.62447
1.56476
1.51296
1.46733
1.42999
1.40169
1.40317
1.41219
1.43833
1.50691
1.64954
1.95687
2.5666
3.0953
3.30727
3.34498
3.33457
3.30148
3.23162
3.15041
3.07784
3.01529
2.9588
2.90656
2.8565
2.80796
2.75986
2.71237
2.66502
2.6183
2.57174
2.52582
2.48008
2.43502
2.39025
2.34658
2.3035
2.2622
2.22224
2.1848
2.15077
2.12025
2.09799
2.08383
2.08661
2.09811
2.12917
2.19598
2.31759
2.49833
2.79264
3.18385
3.5023
3.48944
3.45831
3.40143
3.29741
3.18915
3.09673
3.02118
2.95755
2.90188
2.85103
2.8049
2.76226
2.72225
2.68275
2.64463
2.6053
2.56757
2.52778
2.49014
2.45116
2.41356
2.37603
2.33957
2.30372
2.27067
2.24124
6.12002
5.74668
5.40315
5.07159
4.75101
4.44253
4.1471
3.86808
3.60687
3.36445
3.14053
2.93623
2.74868
2.57927
2.4254
2.28671
2.16176
2.04944
1.94837
1.85782
1.77649
1.70342
1.63854
1.57999
1.53089
1.48645
1.47099
1.47588
1.49536
1.55117
1.67613
1.95214
2.50963
3.08405
3.34228
3.38785
3.37867
3.34058
3.25888
3.16768
3.09018
3.02463
2.96846
2.91643
2.86797
2.82106
2.77521
2.72944
2.68405
2.63857
2.59342
2.54818
2.50333
2.4584
2.4139
2.3695
2.32575
2.28235
2.24003
2.19832
2.15824
2.11923
2.08266
2.04863
2.01829
1.99504
1.978
1.9794
1.98739
2.0116
2.06682
2.17475
2.34388
2.61239
2.99928
3.34685
3.33856
3.3155
3.27173
3.18046
3.07921
2.98918
2.91611
2.85421
2.79996
2.74941
2.70327
2.66061
2.62126
2.58266
2.54616
2.50866
2.47278
2.43583
2.39967
2.36337
2.32783
2.2925
2.25994
2.23038
6.19176
5.80018
5.45763
5.13781
4.82777
4.53121
4.24796
3.97786
3.72303
3.48507
3.26308
3.05877
2.87056
2.69809
2.54126
2.39808
2.26881
2.15123
2.04557
1.94893
1.86353
1.78449
1.71519
1.65263
1.59945
1.56064
1.56266
1.57671
1.62129
1.73078
1.98018
2.4953
3.12472
3.41712
3.4666
3.45556
3.40707
3.30847
3.21308
3.12732
3.05255
2.98669
2.92796
2.87523
2.82782
2.7821
2.73754
2.69327
2.64955
2.60574
2.56225
2.51858
2.47516
2.43153
2.38818
2.34474
2.30174
2.25892
2.2168
2.17508
2.13439
2.0943
2.05567
2.01809
1.98283
1.94965
1.92042
1.89666
1.87892
1.87807
1.88323
1.90338
1.94986
2.04421
2.20373
2.44427
2.82437
3.18513
3.18953
3.17704
3.14068
3.06274
2.96924
2.88436
2.81371
2.75402
2.70142
2.6514
2.60571
2.56337
2.52476
2.48722
2.4519
2.41648
2.38206
2.34749
2.31358
2.27953
2.24802
2.21906
6.30321
5.87259
5.51522
5.19967
4.90338
4.61703
4.34205
4.07989
3.83176
3.59826
3.3794
3.17559
2.98726
2.81306
2.6535
2.50712
2.37366
2.25215
2.14151
2.04139
1.94973
1.86818
1.79383
1.73016
1.67554
1.66641
1.67578
1.71289
1.80977
2.03953
2.52159
3.21148
3.5422
3.59526
3.58178
3.52177
3.40256
3.29073
3.19413
3.10992
3.03565
2.96856
2.90645
2.84871
2.79552
2.74685
2.70049
2.65553
2.61183
2.56853
2.52591
2.48334
2.44116
2.39884
2.3568
2.31465
2.27287
2.23117
2.19001
2.14913
2.10902
2.06932
2.03067
1.99267
1.95607
1.92061
1.8873
1.85589
1.82824
1.80465
1.78726
1.78326
1.78731
1.80409
1.84267
1.9242
2.07474
2.28501
2.65678
3.01521
3.0466
3.03722
3.00884
2.94367
2.85966
2.78332
2.71517
2.65741
2.60617
2.55744
2.51294
2.47122
2.43329
2.39679
2.36243
2.32871
2.2961
2.26356
2.23337
2.20585
6.35319
5.9475
5.58142
5.26488
4.97484
4.69802
4.43223
4.17787
3.93534
3.70545
3.48946
3.28718
3.09861
2.92379
2.76185
2.61321
2.47624
2.35133
2.23682
2.13259
2.0377
1.95187
1.87672
1.81133
1.78416
1.7912
1.8227
1.91159
2.12383
2.58036
3.33899
3.71437
3.77191
3.75447
3.67948
3.53355
3.39933
3.28557
3.18901
3.10503
3.03065
2.96212
2.89742
2.83642
2.77799
2.72217
2.67044
2.62214
2.57606
2.53124
2.48786
2.4451
2.40321
2.36153
2.32039
2.27935
2.2388
2.19839
2.15857
2.11899
2.08012
2.04161
2.00397
1.96678
1.93072
1.89535
1.86134
1.82848
1.79746
1.7682
1.74214
1.71932
1.70218
1.69556
1.6987
1.71239
1.74419
1.81509
1.94941
2.14008
2.4915
2.84097
2.90608
2.90143
2.87838
2.82467
2.75343
2.68588
2.62045
2.5638
2.51456
2.46839
2.42524
2.38435
2.34698
2.31152
2.27834
2.24594
2.21645
2.19006
6.32983
6.09331
5.6856
5.34332
5.04951
4.77809
4.51946
4.27135
4.03381
3.80896
3.59466
3.3935
3.20486
3.02944
2.86631
2.71534
2.57632
2.44813
2.33063
2.22338
2.12527
2.03886
1.96268
1.91737
1.92262
1.94875
2.0336
2.23142
2.6709
3.49452
3.92299
3.9883
3.96599
3.87435
3.70108
3.5421
3.40707
3.29363
3.19657
3.11061
3.03281
2.96108
2.89494
2.83208
2.77011
2.70987
2.65227
2.59767
2.54699
2.49872
2.45284
2.40827
2.36521
2.32291
2.28166
2.24093
2.20104
2.16159
2.12294
2.08469
2.04728
2.01026
1.97412
1.93838
1.90365
1.86935
1.83623
1.80371
1.77248
1.74223
1.71349
1.6863
1.66165
1.63964
1.62279
1.61377
1.61619
1.62624
1.65463
1.71196
1.82943
1.99912
2.33074
2.66757
2.76878
2.76654
2.75048
2.71518
2.65063
2.58899
2.5297
2.47425
2.42731
2.38378
2.34226
2.30241
2.26628
2.2314
2.20123
2.17373
6.27495
6.12516
5.8054
5.44156
5.13056
4.85735
4.60321
4.36107
4.12822
3.90624
3.69566
3.49571
3.30789
3.13157
2.96768
2.8151
2.67347
2.54317
2.42277
2.31326
2.21395
2.13053
2.06379
2.06648
2.08922
2.16927
2.36271
2.80136
3.66811
4.16255
4.23934
4.21184
4.10264
3.90199
3.72082
3.56747
3.4374
3.32462
3.22478
3.13411
3.05087
2.97306
2.90049
2.83153
2.76761
2.70474
2.64377
2.5843
2.52767
2.47416
2.42449
2.37673
2.3311
2.28683
2.2442
2.20264
2.16242
2.12313
2.08503
2.04768
2.01144
1.97578
1.94117
1.90702
1.87387
1.84112
1.80943
1.77808
1.74787
1.71806
1.68943
1.6615
1.63481
1.60944
1.58597
1.56481
1.5482
1.53684
1.53848
1.54619
1.56855
1.6159
1.71514
1.86532
2.16571
2.4961
2.62494
2.64053
2.63093
2.60263
2.54799
2.49415
2.44188
2.38998
2.34454
2.3028
2.26433
2.22537
2.19279
2.16139
6.17373
6.10504
5.91919
5.55346
5.22738
4.94428
4.68644
4.44589
4.21744
3.9987
3.79066
3.59337
3.40666
3.23077
3.06596
2.91238
2.76952
2.63712
2.51553
2.40417
2.31057
2.228
2.22163
2.24135
2.31641
2.51026
2.96069
3.86359
4.43396
4.52089
4.48794
4.3606
4.13395
3.92978
3.75842
3.61214
3.48438
3.36978
3.26545
3.16892
3.07932
2.99511
2.91614
2.84119
2.7706
2.70355
2.64092
2.57833
2.51825
2.45999
2.40489
2.35293
2.30378
2.25657
2.21151
2.16806
2.12649
2.08636
2.04789
2.01064
1.97487
1.94003
1.90651
1.87364
1.84193
1.81068
1.78048
1.75059
1.7217
1.69303
1.66538
1.63794
1.61155
1.58559
1.56072
1.53688
1.51452
1.49424
1.47768
1.46467
1.46497
1.46967
1.48717
1.52412
1.60699
1.74066
1.9986
2.32352
2.48438
2.51634
2.51202
2.49272
2.45591
2.40199
2.35568
2.31003
2.26665
2.22571
2.1928
2.15722
6.03764
6.02654
5.92345
5.68449
5.33673
5.03526
4.77317
4.53125
4.30332
4.0872
3.88213
3.68669
3.50147
3.3269
3.16205
3.00807
2.864
2.73096
2.60761
2.50332
2.40996
2.38702
2.40532
2.47784
2.67412
3.13246
4.07824
4.73429
4.83247
4.79329
4.64578
4.39217
4.1652
3.97495
3.81243
3.66952
3.54102
3.42307
3.31386
3.21162
3.11592
3.02547
2.94033
2.85938
2.78298
2.71028
2.64146
2.57656
2.51461
2.45342
2.39458
2.33775
2.28431
2.23372
2.18567
2.13965
2.09592
2.0541
2.01439
1.97634
1.9402
1.90538
1.8722
1.83999
1.80917
1.77898
1.74996
1.72133
1.6937
1.66627
1.63977
1.61335
1.58785
1.56242
1.53794
1.51371
1.49049
1.46799
1.44676
1.42736
1.41062
1.39734
1.39421
1.3974
1.40963
1.44038
1.5052
1.62141
1.83893
2.14561
2.34711
2.39244
2.40343
2.3913
2.35918
2.3121
2.27321
2.23184
2.19632
2.15832
5.68676
5.92363
5.88167
5.74021
5.44615
5.13019
4.85707
4.61428
4.38944
4.175
3.97053
3.77726
3.59404
3.42043
3.25644
3.10153
2.95734
2.82317
2.70688
2.60511
2.56636
2.58327
2.65484
2.8522
3.32312
4.31744
5.0581
5.17041
5.12461
4.95688
4.67467
4.42368
4.2142
4.03458
3.87638
3.73354
3.60251
3.48052
3.36641
3.25877
3.1574
3.06118
2.97034
2.88382
2.80208
2.72412
2.6505
2.58034
2.51405
2.45128
2.39007
2.33034
2.27312
2.21847
2.16718
2.11822
2.07193
2.0279
1.98635
1.94683
1.90958
1.874
1.84042
1.8081
1.77746
1.74769
1.71929
1.69143
1.66469
1.63823
1.61272
1.5873
1.56277
1.53823
1.51456
1.49089
1.46811
1.44546
1.42376
1.40253
1.38246
1.36381
1.34706
1.33393
1.32698
1.3291
1.33833
1.36086
1.41162
1.50807
1.68619
1.96474
2.20421
2.27095
2.29421
2.28709
2.2658
2.23317
2.19725
2.16329
4.89045
5.71784
5.77832
5.71946
5.56006
5.2407
4.95116
4.70039
4.47347
4.26193
4.06093
3.86908
3.68503
3.51132
3.34666
3.19333
3.0496
2.92177
2.81172
2.75926
2.77485
2.84539
3.04536
3.52996
4.57479
5.40443
5.53276
5.48047
5.29228
4.98013
4.70482
4.47482
4.27746
4.10275
3.94509
3.8002
3.66563
3.5393
3.42043
3.30777
3.20132
3.1
3.00414
2.9127
2.82618
2.74355
2.66542
2.59069
2.5201
2.45239
2.38881
2.32743
2.26786
2.21016
2.15533
2.10338
2.05454
2.00817
1.96452
1.92315
1.88433
1.84744
1.81282
1.77971
1.74855
1.71848
1.69002
1.66229
1.63587
1.60988
1.58497
1.56027
1.5365
1.51279
1.48996
1.46709
1.44509
1.42304
1.40183
1.38067
1.36037
1.34036
1.32141
1.30339
1.28702
1.27385
1.26387
1.26502
1.27083
1.28786
1.32354
1.4028
1.5408
1.7891
2.0427
2.14855
2.18175
2.19227
2.18345
2.16241
3.23562
5.22227
5.66186
5.6506
5.56669
5.36976
5.06645
4.79799
4.56297
4.34872
4.14769
3.95637
3.77517
3.6019
3.43938
3.28474
3.14731
3.02832
2.96302
2.97729
3.04649
3.24902
3.74817
4.8394
5.77799
5.92409
5.86393
5.65226
5.30908
5.00774
4.75672
4.54022
4.34818
4.17429
4.01493
3.86688
3.72839
3.59774
3.47436
3.35712
3.2461
3.14025
3.03996
2.94418
2.85346
2.76671
2.68453
2.60581
2.53121
2.45963
2.3919
2.32697
2.26608
2.20637
2.14926
2.09447
2.04303
1.99431
1.94855
1.90525
1.86467
1.82618
1.79016
1.75583
1.72363
1.69271
1.6636
1.63539
1.60869
1.58259
1.55775
1.53329
1.5099
1.4867
1.46447
1.44231
1.42103
1.39973
1.37925
1.35872
1.33896
1.31918
1.30015
1.2813
1.26336
1.24603
1.23029
1.21665
1.20581
1.20384
1.20682
1.21998
1.24474
1.30784
1.4126
1.6199
1.86012
2.03385
2.06795
2.12168
2.33677
4.0849