/*--------------------------------*- C++ -*----------------------------------*\
  =========                 |
  \\      /  F ield         | OpenFOAM: The Open Source CFD Toolbox
   \\    /   O peration     | Website:  https://openfoam.org
    \\  /    A nd           | Version:  6
     \\/     M anipulation  |
\*---------------------------------------------------------------------------*/
FoamFile
{
    version     2.0;
    format      ascii;
    class       surfaceScalarField;
    location    "16";
    object      phi;
}
// * * * * * * * * * * * * * * * * * * * * * * * * * * * * * * * * * * * * * //

dimensions      [0 3 -1 0 0 0 0];

internalField   nonuniform List<scalar> 
4262
(
0.106534
0.471454
0.0924904
0.70763
0.0647478
0.860046
0.0423762
1.02114
0.0261613
1.21473
0.0160497
1.44833
0.0100567
1.73186
0.00587483
2.07522
0.00251911
2.4886
-0.000151315
2.98496
-0.00277056
2.98491
-0.00612095
2.48859
-0.010336
2.07525
-0.0163277
1.73186
-0.0264051
1.4483
-0.0425727
1.21468
-0.0648811
1.02107
-0.0925625
0.859984
-0.106589
0.707613
0.471399
0.113793
0.357661
0.138164
0.683259
0.123176
0.875033
0.0994435
1.04487
0.0726766
1.2415
0.0497322
1.47128
0.0315487
1.75004
0.0171567
2.08961
0.00669421
2.49906
-0.000594854
2.99225
-0.00810229
2.99242
-0.0186524
2.49914
-0.0328061
2.0894
-0.0507031
1.74975
-0.0734242
1.47102
-0.10004
1.2413
-0.123651
1.04468
-0.138524
0.874857
-0.113992
0.683081
0.357407
0.091584
0.266077
0.125397
0.649446
0.123446
0.876984
0.109406
1.05891
0.0936154
1.25729
0.0726217
1.49227
0.0502682
1.77239
0.0305314
2.10935
0.0139073
2.51569
-0.00111867
3.00728
-0.0161399
3.00744
-0.0325207
2.51552
-0.0521345
2.10902
-0.0742899
1.77191
-0.0950821
1.49181
-0.11062
1.25684
-0.124401
1.05846
-0.126073
0.87653
-0.0918823
0.64889
0.265525
0.0610958
0.204981
0.101458
0.609084
0.104057
0.874385
0.0936328
1.06933
0.0812043
1.26972
0.0683483
1.50513
0.0521106
1.78863
0.0346354
2.12682
0.0171601
2.53316
-0.00174707
3.02618
-0.0203461
3.02604
-0.0373219
2.5325
-0.0544008
2.1261
-0.0703246
1.78783
-0.0828368
1.50432
-0.0949672
1.26897
-0.105147
1.06864
-0.102238
0.87362
-0.0614121
0.608064
0.204112
0.0337917
0.171189
0.0723702
0.570506
0.0807825
0.865973
0.07367
1.07645
0.0631979
1.28019
0.0545773
1.51375
0.0451721
1.79804
0.0330835
2.13891
0.0174679
2.54878
-0.00216369
3.04582
-0.0214943
3.04537
-0.0368969
2.5479
-0.0485942
2.1378
-0.0577383
1.79698
-0.0657638
1.51235
-0.075755
1.27896
-0.0823968
1.07529
-0.0734138
0.864637
-0.0341751
0.568825
0.169937
0.0177572
0.153432
0.0511235
0.537139
0.0637862
0.85331
0.0606493
1.07958
0.0525051
1.28833
0.0440481
1.5222
0.0356508
1.80643
0.0256757
2.14889
0.013264
2.56119
-0.00306774
3.06215
-0.0191062
3.06141
-0.0306598
2.55946
-0.0400002
2.14714
-0.0477465
1.80472
-0.0556345
1.52024
-0.0633718
1.2867
-0.0658607
1.07777
-0.0524203
0.851197
-0.0181827
0.534588
0.151755
0.00909257
0.14434
0.0355687
0.510663
0.0497105
0.839168
0.0500777
1.07921
0.0441933
1.29422
0.0349035
1.53149
0.0266607
1.81468
0.018276
2.15727
0.00827228
2.57119
-0.00399824
3.07442
-0.0157702
3.07318
-0.0250666
2.56875
-0.0325888
2.15466
-0.0394269
1.81156
-0.0479564
1.52877
-0.0530177
1.29176
-0.0519034
1.07666
-0.0369061
0.8362
-0.00954363
0.507225
0.142211
0.00318314
0.141156
0.0204925
0.493354
0.0328569
0.826804
0.0358081
1.07626
0.0335612
1.29646
0.0280868
1.53697
0.0217897
1.82097
0.0148813
2.16418
0.00592859
2.58014
-0.00444179
3.08479
-0.0147798
3.08352
-0.0232304
2.5772
-0.0288672
2.16029
-0.0331974
1.81589
-0.0382365
1.5338
-0.0394673
1.29299
-0.0354864
1.07268
-0.0219473
0.822661
-0.00378855
0.489067
0.138423
-0.000558378
0.141715
0.00745198
0.485344
0.0160492
0.818206
0.0200198
1.07229
0.0210019
1.29548
0.0200021
1.53797
0.0165504
1.82443
0.0108479
2.16988
0.00311862
2.58787
-0.00632444
3.09423
-0.0151258
3.09232
-0.0212767
2.58335
-0.0250802
2.1641
-0.0273019
1.81811
-0.0266439
1.53315
-0.0243524
1.2907
-0.0191742
1.0675
-0.0093259
0.812812
-0.000128354
0.479869
0.138294
-0.00192138
0.143636
0.000276265
0.483146
0.00553921
0.812944
0.00945645
1.06838
0.0120742
1.29286
0.0128221
1.53722
0.0111078
1.82614
0.00681666
2.17417
0.000312413
2.59438
-0.0079884
3.10253
-0.0153526
3.09968
-0.0202874
2.58829
-0.0229131
2.16672
-0.023554
1.81875
-0.0202789
1.52987
-0.015882
1.2863
-0.0102887
1.06191
-0.00322977
0.805753
0.000883675
0.475756
0.139178
-0.00114348
0.14478
-0.000536818
0.482539
0.00294226
0.809464
0.00635972
1.06496
0.00869307
1.29053
0.00919616
1.53672
0.00722681
1.82811
0.00332042
2.17808
-0.00236983
2.60007
-0.00962366
3.10979
-0.0162788
3.10634
-0.0204838
2.59249
-0.0227443
2.16898
-0.0224385
1.81845
-0.0194953
1.52693
-0.0149395
1.28174
-0.00917685
1.05614
-0.00310996
0.799687
-0.000100279
0.472746
0.139078
-0.000351389
0.145131
-0.000157484
0.482345
0.00290617
0.806401
0.00622676
1.06164
0.00811812
1.28864
0.00808814
1.53675
0.00562701
1.83057
0.00101857
2.18269
-0.00534345
2.60643
-0.0126865
3.11713
-0.0193364
3.11299
-0.023193
2.59635
-0.0244111
2.1702
-0.0233402
1.81738
-0.0208039
1.52439
-0.0159571
1.2769
-0.00985756
1.05005
-0.00417854
0.794007
-0.00110244
0.46967
0.137975
-0.000743402
0.145874
-0.00122452
0.482826
0.000695459
0.804481
0.00401633
1.05832
0.00629243
1.28636
0.0061836
1.53685
0.00371859
1.83304
-0.00132759
2.18773
-0.00828885
2.61339
-0.0160368
3.12488
-0.0223938
3.11935
-0.0259884
2.59995
-0.0265436
2.17076
-0.0252299
1.81606
-0.0216431
1.52081
-0.0157622
1.27102
-0.00914468
1.04343
-0.00389729
0.78876
-0.00117909
0.466952
0.136796
-0.00146836
0.147343
-0.00317315
0.484531
-0.00285008
0.804158
-0.000269129
1.05574
0.00182881
1.28427
0.00169864
1.53698
-0.000915858
1.83565
-0.00595893
2.19278
-0.0127216
2.62015
-0.020134
3.13229
-0.0256553
3.12487
-0.0282683
2.60256
-0.0284218
2.17091
-0.0258649
1.81351
-0.0209366
1.51588
-0.0145098
1.26459
-0.00796494
1.03688
-0.00327792
0.784073
-0.000927494
0.464601
0.135869
-0.00195378
0.149297
-0.00476695
0.487344
-0.00584449
0.805235
-0.00533727
1.05523
-0.00458748
1.28352
-0.00523798
1.53764
-0.00791435
1.83833
-0.0124991
2.19736
-0.0185314
2.62619
-0.0250581
3.13882
-0.0294213
3.12923
-0.0306448
2.60378
-0.0294964
2.16976
-0.0260239
1.81003
-0.0208094
1.51066
-0.0146135
1.25839
-0.00852105
1.03079
-0.00400365
0.779556
-0.00128446
0.461882
0.134584
-0.00204826
0.151345
-0.00555438
0.490851
-0.00755878
0.80724
-0.00827613
1.05595
-0.00920337
1.28444
-0.0114386
1.53987
-0.0152727
1.84216
-0.0204301
2.20252
-0.0263681
2.63212
-0.0320519
3.1445
-0.0349492
3.13213
-0.0344558
2.60329
-0.0316099
2.16692
-0.0270213
1.80544
-0.0213444
1.50499
-0.0152556
1.25231
-0.00957226
1.02511
-0.00508183
0.775065
-0.00176778
0.458568
0.132816
-0.00271675
0.154062
-0.00731414
0.495448
-0.0109628
0.810888
-0.0133069
1.05829
-0.0157614
1.2869
-0.0190804
1.54319
-0.0235756
1.84666
-0.0291606
2.2081
-0.0351133
2.63808
-0.0400123
3.1494
-0.0413766
3.13349
-0.0392457
2.60116
-0.0350407
2.16271
-0.0296589
1.80006
-0.0236989
1.49903
-0.0176305
1.24624
-0.01184
1.01932
-0.0066573
0.769882
-0.00234699
0.454258
0.130469
-0.00325673
0.157318
-0.00875643
0.500948
-0.0136275
0.815759
-0.017757
1.06242
-0.0223021
1.29144
-0.0276935
1.54858
-0.0339048
1.85287
-0.0405241
2.21472
-0.0467092
2.64426
-0.05075
3.15344
-0.0502989
3.13304
-0.0463035
2.59716
-0.0402958
2.1567
-0.0333709
1.79314
-0.0262494
1.4919
-0.0194408
1.23943
-0.0132406
1.01312
-0.00763467
0.764277
-0.00271669
0.44934
0.127753
-0.00467404
0.161992
-0.0125045
0.508778
-0.0194512
0.822706
-0.0252206
1.06819
-0.0310294
1.29725
-0.0377702
1.55532
-0.0454104
1.86051
-0.0533529
2.22267
-0.060308
2.65122
-0.0638394
3.15697
-0.0616199
3.13082
-0.0555345
2.59108
-0.0476601
2.14883
-0.0393664
1.78484
-0.0313996
1.48394
-0.0240057
1.23203
-0.0169522
1.00606
-0.00990209
0.757226
-0.00345499
0.442893
0.124298
-0.00556829
0.167561
-0.0147018
0.517912
-0.0233495
0.831354
-0.0316128
1.07645
-0.0405553
1.30619
-0.0502393
1.56501
-0.0603254
1.87059
-0.0701782
2.23252
-0.0779593
2.659
-0.0807878
3.1598
-0.0764602
3.12649
-0.0679199
2.58254
-0.0577198
2.13863
-0.047314
1.77444
-0.0373998
1.47402
-0.0282765
1.22291
-0.0198112
0.997598
-0.0115997
0.749015
-0.00411514
0.435408
0.120182
-0.00806576
0.175626
-0.0211578
0.531004
-0.0327489
0.842945
-0.042921
1.08662
-0.0534609
1.31673
-0.0652913
1.57684
-0.0781614
1.88346
-0.0903066
2.24466
-0.099148
2.66784
-0.101221
3.16187
-0.0945839
3.11986
-0.083235
2.57119
-0.0702463
2.12564
-0.0574153
1.76161
-0.0457343
1.46234
-0.0352679
1.21244
-0.0253116
0.987641
-0.0149546
0.738658
-0.00518095
0.425634
0.115002
-0.00962698
0.185253
-0.0249134
0.54629
-0.0396915
0.857723
-0.0538516
1.10078
-0.0692694
1.33215
-0.0857489
1.59332
-0.102289
1.9
-0.116889
2.25926
-0.126542
2.67749
-0.127162
3.16249
-0.117616
3.11031
-0.103075
2.55665
-0.0870471
2.10961
-0.0712869
1.74585
-0.0565111
1.44757
-0.0430144
1.19895
-0.0302202
0.974847
-0.0175871
0.726025
-0.00611986
0.414167
0.108882
-0.0147505
0.200004
-0.0369145
0.568454
-0.0561389
0.876947
-0.0734882
1.11813
-0.0923061
1.35097
-0.112752
1.61376
-0.133048
1.9203
-0.149795
2.27601
-0.159017
2.68672
-0.15734
3.16082
-0.144217
3.09719
-0.125827
2.53826
-0.105911
2.0897
-0.0866026
1.72654
-0.0690105
1.42997
-0.053159
1.1831
-0.0381841
0.959872
-0.0224579
0.710299
-0.00764007
0.399349
0.101242
-0.0186211
0.218625
-0.0464738
0.596307
-0.0722555
0.902729
-0.0964937
1.14237
-0.123447
1.37792
-0.150625
1.64094
-0.174372
1.94405
-0.191385
2.29302
-0.199081
2.69441
-0.194436
3.15617
-0.17687
3.07962
-0.154323
2.51571
-0.130832
2.06621
-0.107886
1.70359
-0.0864
1.40849
-0.0664731
1.16317
-0.0467308
0.94013
-0.0267568
0.690325
-0.00881903
0.381411
0.0924226
-0.03246
0.251085
-0.0705406
0.634387
-0.104244
0.936432
-0.137341
1.17547
-0.171873
1.41245
-0.202197
1.67126
-0.225991
1.96784
-0.241373
2.30841
-0.246748
2.69979
-0.237612
3.14703
-0.21459
3.0566
-0.186885
2.48801
-0.158666
2.03799
-0.13165
1.67658
-0.106029
1.38287
-0.0819163
1.13906
-0.0588318
0.917045
-0.0347255
0.666218
-0.0109099
0.357596
0.0815126
-0.0443961
0.295481
-0.106604
0.696595
-0.157294
0.987123
-0.201663
1.21984
-0.239599
1.45039
-0.268709
1.70037
-0.289828
1.98896
-0.30202
2.3206
-0.302744
2.70051
-0.286914
3.13121
-0.257769
3.02745
-0.224848
2.45508
-0.191791
2.00493
-0.160824
1.64561
-0.132564
1.35461
-0.105257
1.11175
-0.0755866
0.887375
-0.0415723
0.632204
-0.0120407
0.328064
0.0694719
-0.0281573
0.323638
-0.0805662
0.749004
-0.131933
1.03849
-0.177456
1.26536
-0.217683
1.49062
-0.25568
1.73837
-0.290462
2.02374
-0.319715
2.34985
-0.337718
2.71851
-0.337075
3.13056
-0.316046
3.00643
-0.282858
2.4219
-0.242909
1.96498
-0.199748
1.60245
-0.156102
1.31096
-0.113098
1.06875
-0.0703173
0.844594
-0.0314108
0.593298
-0.00744733
0.304101
0.0620246
-0.00706875
0.330707
-0.0301756
0.772111
-0.0609332
1.06925
-0.0978553
1.30228
-0.136447
1.52921
-0.174187
1.77611
-0.208047
2.0576
-0.23557
2.37737
-0.250328
2.73327
-0.247025
3.12726
-0.223825
2.98323
-0.189616
2.38769
-0.150592
1.92596
-0.110282
1.56214
-0.071245
1.27193
-0.0361813
1.03368
-0.00834194
0.816755
0.00695291
0.578003
0.00737914
0.303675
0.0694037
0.00275901
0.327948
-0.0125988
0.787469
-0.0351607
1.09181
-0.0614322
1.32855
-0.0904854
1.55826
-0.121624
1.80725
-0.15171
2.08769
-0.175963
2.40163
-0.188362
2.74567
-0.185049
3.12395
-0.163743
2.96192
-0.133809
2.35775
-0.101209
1.89336
-0.0695041
1.53043
-0.0404339
1.24285
-0.0150107
1.00826
0.00436401
0.79738
0.0126513
0.569716
0.0076716
0.308654
0.0770753
0.00207983
0.325868
-0.00925165
0.7988
-0.0263263
1.10888
-0.0461302
1.34836
-0.0679406
1.58007
-0.0920508
1.83136
-0.116789
2.11243
-0.136841
2.42168
-0.148101
2.75693
-0.146487
3.12233
-0.129085
2.94452
-0.104413
2.33308
-0.0784804
1.86742
-0.0537333
1.50569
-0.0307024
1.21982
-0.0105259
0.988082
0.00398381
0.78287
0.00956425
0.564135
0.00511237
0.313106
0.0821877
0.00610787
0.31976
-0.0011042
0.806012
-0.0182558
1.12604
-0.0374633
1.36757
-0.0567668
1.59938
-0.076919
1.85151
-0.0972661
2.13277
-0.113746
2.43816
-0.124575
2.76776
-0.12413
3.12189
-0.11034
2.93073
-0.0907693
2.31351
-0.0688393
1.84549
-0.0472418
1.48409
-0.0275014
1.20008
-0.0106438
0.971225
0.000923842
0.771302
0.00464132
0.560418
0.00228684
0.315461
0.0844746
0.0061526
0.313608
0.00241271
0.809752
-0.0122606
1.14071
-0.0308554
1.38616
-0.0499294
1.61845
-0.069045
1.87063
-0.0870742
2.1508
-0.101681
2.45277
-0.111983
2.77806
-0.111781
3.12169
-0.0995106
2.91846
-0.0814662
2.29547
-0.062579
1.82661
-0.0443402
1.46585
-0.0282119
1.18396
-0.0148167
0.95783
-0.00522715
0.761713
-0.00089549
0.556086
3.32996e-05
0.314532
0.0845079
0.00461272
0.308995
0.00221919
0.812146
-0.0100056
1.15293
-0.0268937
1.40305
-0.0454205
1.63698
-0.064373
1.88958
-0.0816048
2.16803
-0.0959718
2.46713
-0.106141
2.78823
-0.10633
3.12188
-0.0956451
2.90777
-0.0795273
2.27935
-0.0615553
1.80863
-0.0450368
1.44933
-0.0301358
1.16905
-0.0182512
0.945945
-0.010074
0.753536
-0.00500546
0.551017
-0.00147077
0.310997
0.0830371
0.00274283
0.306252
0.000203591
0.814685
-0.0105238
1.16366
-0.0256253
1.41815
-0.0430324
1.65438
-0.0614753
1.90802
-0.0786338
2.18519
-0.0938117
2.48231
-0.104289
2.79871
-0.104971
3.12256
-0.095054
2.89785
-0.0801638
2.26446
-0.06422
1.79269
-0.0484482
1.43356
-0.0359024
1.15651
-0.025016
0.935059
-0.0152039
0.743724
-0.00766983
0.543483
-0.00227554
0.305603
0.0807616
0.00056478
0.305687
-0.00264771
0.817897
-0.012352
1.17337
-0.0261357
1.43193
-0.0424324
1.67068
-0.0600963
1.92569
-0.0773034
2.2024
-0.0933322
2.49834
-0.104549
2.80992
-0.107051
3.12506
-0.0981944
2.889
-0.0830339
2.2493
-0.0669194
1.77658
-0.0521265
1.41877
-0.037112
1.14149
-0.0249826
0.922929
-0.0160865
0.734828
-0.00874662
0.536143
-0.0027248
0.299581
0.0780367
-0.00137065
0.307058
-0.00523673
0.821763
-0.0142782
1.18241
-0.027283
1.44494
-0.0427787
1.68618
-0.0597402
1.94265
-0.0769738
2.21963
-0.0937301
2.5151
-0.10647
2.82266
-0.111397
3.12999
-0.104357
2.88196
-0.0905027
2.23544
-0.0740143
1.76009
-0.0578676
1.40262
-0.0445588
1.12819
-0.0320016
0.910372
-0.0204019
0.723228
-0.0105892
0.526331
-0.00334368
0.292335
0.0746931
-0.0030317
0.31009
-0.00777259
0.826504
-0.0165348
1.19117
-0.0288921
1.4573
-0.0436982
1.70098
-0.0600742
1.95903
-0.0772423
2.2368
-0.0946716
2.53253
-0.109194
2.83718
-0.11641
3.1372
-0.110955
2.8765
-0.0965964
2.22109
-0.0797767
1.74327
-0.0628971
1.38574
-0.0473769
1.11267
-0.0346733
0.897668
-0.0231189
0.711673
-0.0124351
0.515647
-0.00402212
0.283922
0.070671
-0.00375412
0.313844
-0.00914216
0.831892
-0.0179143
1.19994
-0.0300582
1.46944
-0.044487
1.71541
-0.0604409
1.97498
-0.0775197
2.25388
-0.0955313
2.55054
-0.111681
2.85333
-0.122102
3.14763
-0.120093
2.87449
-0.107122
2.20811
-0.0886378
1.72478
-0.070991
1.36809
-0.0545723
1.09625
-0.0384983
0.881594
-0.0252124
0.698388
-0.0137725
0.504207
-0.00449382
0.274644
0.0661771
-0.00421522
0.318059
-0.0103712
0.838048
-0.019228
1.2088
-0.0310475
1.48126
-0.0450806
1.72944
-0.060584
1.99048
-0.0775047
2.2708
-0.0960429
2.56908
-0.113911
2.8712
-0.127211
3.16093
-0.127618
2.8749
-0.114865
2.19536
-0.0958907
1.70581
-0.0756956
1.3479
-0.0575619
1.07811
-0.044074
0.868107
-0.0301227
0.684436
-0.0159885
0.490073
-0.00516837
0.263824
0.0610088
-0.00446023
0.322519
-0.0109031
0.844491
-0.0197807
1.21768
-0.0314236
1.4929
-0.0451403
1.74316
-0.0601788
2.00552
-0.0769822
2.2876
-0.0960094
2.5881
-0.115471
2.89066
-0.131502
3.17696
-0.136593
2.87999
-0.129033
2.1878
-0.111014
1.68779
-0.0872302
1.32411
-0.0669746
1.05786
-0.0474822
0.848614
-0.0312702
0.668224
-0.0171295
0.475932
-0.00546566
0.25216
0.0555431
-0.0046946
0.327214
-0.0115352
0.851332
-0.0203076
1.22645
-0.0315822
1.50418
-0.0448457
1.75642
-0.05938
2.02006
-0.0760893
2.30431
-0.0954243
2.60744
-0.116136
2.91138
-0.135013
3.19583
-0.143612
2.88859
-0.138302
2.18249
-0.120112
1.6696
-0.0960468
1.30005
-0.0700335
1.03184
-0.0515553
0.830136
-0.0353137
0.651983
-0.0188896
0.459508
-0.00572074
0.238991
0.0498224
-0.00474401
0.331958
-0.0116447
0.858232
-0.0203298
1.23513
-0.0313266
1.51517
-0.0440945
1.76919
-0.0581178
2.03408
-0.0747275
2.32092
-0.0941645
2.62687
-0.115842
2.93305
-0.137253
3.21724
-0.148721
2.90006
-0.147169
2.18094
-0.136535
1.65897
-0.112014
1.27553
-0.0812047
1.00103
-0.0525194
0.801451
-0.0334606
0.632924
-0.0181924
0.44424
-0.00454057
0.225339
0.0452818
-0.00475173
0.33671
-0.0118194
0.8653
-0.0203282
1.24364
-0.030865
1.52571
-0.0429889
1.78132
-0.0565381
2.04763
-0.0730866
2.33747
-0.0925348
2.64632
-0.114982
2.9555
-0.139049
3.24131
-0.154857
2.91587
-0.156581
2.18266
-0.14666
1.64905
-0.125898
1.25477
-0.0931131
0.968249
-0.0581266
0.766464
-0.030915
0.605712
-0.0148845
0.428209
-0.00267891
0.213133
0.0426029
-0.00458302
0.341293
-0.0116022
0.872319
-0.0199673
1.25201
-0.0300362
1.53578
-0.0414825
1.79276
-0.0546836
2.06083
-0.0712261
2.35401
-0.090641
2.66574
-0.113339
2.9782
-0.13839
3.26636
-0.155753
2.93323
-0.162293
2.1892
-0.160555
1.64731
-0.145184
1.2394
-0.115298
0.938363
-0.0669981
0.718164
-0.0219852
0.560699
0.002561
0.403663
0.00645184
0.209243
0.0490547
-0.0043916
0.345684
-0.0114716
0.879399
-0.0195722
1.26011
-0.0289373
1.54514
-0.0396808
1.80351
-0.0526598
2.07381
-0.0692173
2.37057
-0.0886257
2.68515
-0.111472
3.00104
-0.138153
3.29304
-0.160805
2.95588
-0.172271
2.20067
-0.165659
1.6407
-0.153065
1.2268
-0.130156
0.915454
-0.088705
0.676713
-0.0221902
0.494184
0.038814
0.342659
0.0402125
0.207844
0.0892672
-0.00412891
0.349813
-0.0106187
0.885889
-0.0182024
1.26769
-0.0274082
1.55435
-0.0381893
1.81429
-0.0513993
2.08702
-0.068158
2.38733
-0.087629
2.70462
-0.110591
3.02401
-0.137596
3.32005
-0.160743
2.97903
-0.17379
2.21372
-0.178581
1.64549
-0.167665
1.21589
-0.147068
0.894858
-0.101312
0.630957
-0.017092
0.409965
0.0798064
0.245761
0.112231
0.175419
0.201499
-0.00402151
0.353835
-0.0102273
0.892095
-0.01753
1.27499
-0.02673
1.56355
-0.0377521
1.82531
-0.0516747
2.10094
-0.0695002
2.40515
-0.0905627
2.72568
-0.115927
3.04937
-0.146861
3.35098
-0.176829
3.009
-0.198812
2.2357
-0.20502
1.6517
-0.197967
1.20883
-0.17443
0.871321
-0.149408
0.605935
-0.173673
0.43423
-0.406628
0.478715
-0.960139
0.728931
0.914739
-1.67338
-0.0039061
0.357741
-0.00994076
0.89813
-0.0169825
1.28204
-0.0256056
1.57217
-0.0362404
1.83594
-0.0503675
2.11507
-0.0686135
2.4234
-0.0905622
2.74763
-0.117559
3.07637
-0.151651
3.38507
-0.187039
3.04438
-0.21599
2.26465
-0.240425
1.67613
-0.250436
1.21884
-0.254681
0.875567
-0.347424
0.698678
-0.740587
0.827392
-1.44094
1.17907
-2.04011
1.3281
1.21652
-2.34189
-0.00375274
0.361494
-0.00956406
0.903941
-0.0161805
1.28865
-0.0242744
1.58027
-0.0348319
1.8465
-0.0492505
2.12949
-0.0678006
2.44195
-0.0905754
2.7704
-0.119224
3.10502
-0.156442
3.42229
-0.196086
3.08403
-0.233352
2.30192
-0.263166
1.70595
-0.28772
1.2434
-0.401585
0.989431
-0.816036
1.11313
-1.54876
1.56012
-2.10261
1.73292
-2.33442
1.5599
1.32515
-2.44304
-0.00319884
0.364692
-0.00905191
0.909794
-0.0151664
1.29477
-0.0226366
1.58774
-0.033362
1.85723
-0.0480152
2.14414
-0.0666126
2.46055
-0.0900753
2.79387
-0.120616
3.13556
-0.161511
3.46319
-0.209297
3.13181
-0.254095
2.34671
-0.303246
1.7551
-0.405199
1.34535
-0.736265
1.3205
-1.43982
1.81669
-2.01963
2.13992
-2.25622
1.96951
-2.3681
1.67179
1.39437
-2.43733
-0.00207883
0.366771
-0.00688825
0.914603
-0.0129308
1.30081
-0.0212133
1.59602
-0.0324096
1.86842
-0.0469175
2.15865
-0.0653343
2.47896
-0.0893405
2.81787
-0.121617
3.16783
-0.165208
3.50678
-0.217416
3.18402
-0.273795
2.40309
-0.345308
1.82661
-0.543914
1.54395
-1.13421
1.9108
-1.80828
2.49076
-2.12624
2.45788
-2.27221
2.11548
-2.35492
1.7545
1.45501
-2.41557
-0.00123855
0.36801
-0.00473389
0.918099
-0.0113296
1.3074
-0.0209558
1.60565
-0.0326984
1.88017
-0.0472833
2.17323
-0.0659412
2.49762
-0.0907428
2.84267
-0.124729
3.20182
-0.171919
3.55397
-0.230612
3.24271
-0.290325
2.46281
-0.408447
1.94473
-0.798849
1.93436
-1.51401
2.62596
-1.97219
2.94894
-2.15673
2.64241
-2.2524
2.21115
-2.32491
1.827
1.51541
-2.38531
-0.00107441
0.369084
-0.00489807
0.921922
-0.0118426
1.31435
-0.021785
1.61559
-0.0340082
1.89239
-0.0491596
2.18838
-0.0685022
2.51697
-0.0944707
2.86864
-0.130463
3.23781
-0.181726
3.60523
-0.247313
3.3083
-0.330956
2.54645
-0.537671
2.15145
-1.08091
2.4776
-1.69657
3.24161
-1.96744
3.21981
-2.10812
2.7831
-2.21199
2.31502
-2.29662
1.91163
1.58236
-2.36357
-0.00111917
0.370203
-0.00555366
0.926357
-0.0127635
1.32156
-0.0227031
1.62553
-0.0352273
1.90491
-0.0509615
2.20412
-0.071098
2.5371
-0.0982737
2.89582
-0.135894
3.27543
-0.190463
3.6598
-0.260395
3.37823
-0.361756
2.64781
-0.661258
2.45095
-1.30092
3.11726
-1.77125
3.71194
-1.9725
3.42107
-2.11427
2.92486
-2.22673
2.42748
-2.31521
2.00011
1.61915
-2.35199
-0.00136368
0.371567
-0.00614795
0.931141
-0.0137199
1.32913
-0.0238274
1.63564
-0.036546
1.91763
-0.0527328
2.22031
-0.0736352
2.558
-0.102026
2.92421
-0.141691
3.3151
-0.200836
3.71895
-0.280623
3.45802
-0.419005
2.78619
-0.811405
2.84335
-1.4391
3.74496
-1.78431
4.05715
-1.9516
3.58836
-2.05736
3.03063
-2.15129
2.52141
-2.21517
2.06399
1.5631
-2.15912
-0.00134122
0.372908
-0.00635242
0.936152
-0.0143644
1.33714
-0.0247991
1.64607
-0.0377751
1.93061
-0.054377
2.23691
-0.0760378
2.57967
-0.105676
2.95385
-0.147026
3.35645
-0.206776
3.7787
-0.295984
3.54723
-0.488022
2.97823
-0.936781
3.29211
-1.48586
4.29404
-1.75672
4.328
-1.92129
3.75293
-2.01033
3.11966
-2.03233
2.54341
-1.97088
2.00254
1.52675
-1.93453
-0.00130233
0.374211
-0.00647593
0.941326
-0.014767
1.34543
-0.0255023
1.65681
-0.0386737
1.94378
-0.0554053
2.25364
-0.0774005
2.60166
-0.107501
2.98395
-0.148826
3.39777
-0.210057
3.83993
-0.312376
3.64955
-0.53139
3.19724
-1.0036
3.76432
-1.44552
4.73596
-1.6328
4.51528
-1.7276
3.84773
-1.78087
3.17292
-1.66297
2.42551
-1.16612
1.50569
0.360633
-0.000873665
0.375084
-0.00594518
0.946398
-0.0146393
1.35413
-0.0260122
1.66818
-0.0398918
1.95766
-0.0575444
2.27129
-0.0811297
2.62525
-0.113821
3.01664
-0.15856
3.44251
-0.221223
3.90259
-0.331492
3.75981
-0.601107
3.46686
-1.13831
4.30153
-1.5063
5.10395
-1.63587
4.64485
-1.68652
3.89838
-1.60878
3.09517
-1.2966
2.11334
-0.515357
0.724446
-0.154723
-0.000525573
0.37561
-0.00556392
0.951436
-0.0143948
1.36296
-0.026035
1.67982
-0.0405124
1.97214
-0.0590358
2.28981
-0.0840303
2.65024
-0.119573
3.05218
-0.168188
3.49113
-0.23841
3.97281
-0.371825
3.89323
-0.687477
3.78251
-1.23733
4.85137
-1.52089
5.38751
-1.6083
4.73226
-1.59546
3.88555
-1.35929
2.859
-0.700482
1.45453
-0.0209761
0.0449403
-0.175699
0.000202017
0.375408
-0.00438906
0.956027
-0.013424
1.37199
-0.0254101
1.6918
-0.0403311
1.98706
-0.059459
2.30894
-0.0854906
2.67627
-0.123369
3.09006
-0.175553
3.54331
-0.252993
4.05025
-0.403838
4.04407
-0.768672
4.14734
-1.29751
5.38021
-1.49188
5.58188
-1.54234
4.78273
-1.45769
3.80089
-1.05886
2.46017
-0.24168
0.63735
0.0256959
-0.222436
-0.150004
0.000978297
0.37443
-0.00283155
0.959837
-0.011607
1.38077
-0.0236831
1.70388
-0.0390592
2.00243
-0.0587619
2.32865
-0.0852084
2.70272
-0.124561
3.12941
-0.180284
3.59903
-0.264878
4.13485
-0.4261
4.2053
-0.829927
4.55117
-1.31289
5.86318
-1.45502
5.724
-1.46059
4.78829
-1.22382
3.56413
-0.611733
1.84809
-0.00879627
0.0344132
0.0281134
-0.259346
-0.12189
0.00229128
0.372138
-0.000339516
0.962468
-0.00888189
1.38931
-0.0208992
1.7159
-0.0363197
2.01785
-0.0562639
2.34859
-0.0829011
2.72936
-0.123503
3.17001
-0.184382
3.65991
-0.275097
4.22556
-0.448585
4.37878
-0.88082
4.98341
-1.27532
6.25768
-1.35759
5.80627
-1.31883
4.74953
-1.01151
3.25682
-0.27103
1.1076
0.0126542
-0.249271
0.0216561
-0.268347
-0.100234
0.00401513
0.368123
0.00299367
0.963489
-0.00442772
1.39673
-0.0160337
1.7275
-0.0314696
2.03329
-0.0515249
2.36864
-0.0773964
2.75523
-0.116083
3.2087
-0.180657
3.72449
-0.278513
4.32342
-0.44967
4.54994
-0.882683
5.41642
-1.19036
6.56536
-1.26918
5.88508
-1.16526
4.64562
-0.731991
2.82355
-0.0285491
0.40416
0.0197579
-0.297578
0.0255197
-0.274109
-0.0747144
0.00641039
0.361713
0.00752919
0.96237
0.00124422
1.40302
-0.00951193
1.73826
-0.0239305
2.04771
-0.0435042
2.38822
-0.0680358
2.77976
-0.101587
3.24225
-0.163383
3.78628
-0.269695
4.42973
-0.433386
4.71363
-0.828641
5.81168
-1.05528
6.792
-1.1231
5.9529
-0.986783
4.5093
-0.447304
2.28407
-0.016122
-0.0270216
0.00534775
-0.319047
0.021027
-0.289789
-0.0536873
0.00939956
0.352313
0.0136793
0.958091
0.0097102
1.40699
0.000300187
1.74767
-0.0129648
2.06097
-0.0312837
2.40654
-0.0546574
2.80313
-0.0825004
3.2701
-0.14037
3.84415
-0.255232
4.54459
-0.410083
4.86848
-0.71691
6.1185
-0.874246
6.94934
-0.957716
6.03637
-0.883748
4.43534
-0.41164
1.81196
-0.277843
-0.160819
-0.168304
-0.428586
-0.0680887
-0.390004
-0.121776
0.0130661
0.339247
0.0212336
0.949923
0.0197533
1.40847
0.0126702
1.75475
0.00209171
2.07155
-0.0129764
2.42161
-0.0341218
2.82428
-0.0565886
3.29256
-0.0964349
3.884
-0.210681
4.65884
-0.362362
5.02016
-0.569334
6.32548
-0.668982
7.04898
-0.744862
6.11225
-0.684061
4.37453
-0.458666
1.58657
-0.522153
-0.0973316
-0.386096
-0.564643
-0.201324
-0.574776
-0.3231
0.0172641
0.321983
0.0308699
0.936317
0.0337671
1.40557
0.0295895
1.75893
0.0217394
2.0794
0.0107641
2.43258
-0.0066651
2.84171
-0.024582
3.31048
-0.0333362
3.89275
-0.115001
4.7405
-0.253768
5.15893
-0.354815
6.42652
-0.360767
7.05494
-0.363154
6.11463
-0.387583
4.39896
-0.467111
1.66609
-0.584349
0.0199068
-0.496782
-0.65221
-0.263918
-0.80764
-0.587018
0.0218362
0.300147
0.041503
0.91665
0.0493178
1.39776
0.0498572
1.75839
0.046722
2.08254
0.0427389
2.43656
0.0329637
2.85148
0.0158059
3.32764
0.0132498
3.89531
-0.00845814
4.76221
-0.118123
5.26859
-0.059775
6.36818
0.0256063
6.96956
0.141016
5.99922
0.144181
4.3958
-0.135154
1.94543
-0.331
0.215753
-0.380316
-0.602895
-0.201522
-0.986434
-0.78854
0.0264987
0.273648
0.0545479
0.888601
0.0700771
1.38223
0.0765778
1.75189
0.0784857
2.08063
0.081853
2.4332
0.0842204
2.84911
0.0730395
3.33882
0.0618278
3.90652
0.0901822
4.73386
0.0938131
5.26496
0.356895
6.10509
0.541267
6.78518
0.772507
5.76798
0.831065
4.33724
0.447633
2.32886
0.0768956
0.58649
-0.151222
-0.374777
-0.157681
-0.979976
-0.946221
0.0303089
0.243339
0.066862
0.852048
0.0908862
1.3582
0.105822
1.73695
0.116745
2.06971
0.127756
2.42219
0.141531
2.83534
0.144717
3.33563
0.137047
3.91419
0.172805
4.6981
0.29676
5.14101
0.843154
5.5587
1.21497
6.41336
1.56222
5.42074
1.74193
4.15752
1.40041
2.67039
0.878064
1.10883
0.418275
0.0850132
0.111823
-0.673524
-0.834398
0.0338852
0.209454
0.081308
0.804625
0.116888
1.32262
0.141607
1.71224
0.16318
2.04813
0.183956
2.40141
0.210597
2.8087
0.23556
3.31067
0.250524
3.89923
0.275781
4.67284
0.480269
4.93652
1.09952
4.93945
1.59832
5.91456
1.91846
5.1006
2.06917
4.00682
1.92045
2.8191
1.41423
1.61506
0.865632
0.63361
0.377905
-0.185796
-0.456494
0.0359449
0.173509
0.0928524
0.747718
0.141178
1.2743
0.179442
1.67397
0.21696
2.01062
0.257218
2.36115
0.307447
2.75847
0.363828
3.25429
0.424265
3.83879
0.489174
4.60793
0.681919
4.74377
1.09432
4.52705
1.65188
5.357
1.94535
4.80713
2.04617
3.90599
1.89605
2.96922
1.47762
2.03349
0.990304
1.12093
0.446907
0.3576
-0.00958661
0.0366582
0.136851
0.102315
0.682061
0.165243
1.21137
0.220669
1.61855
0.276359
1.95493
0.340405
2.29711
0.422584
2.67629
0.530766
3.14611
0.689077
3.68048
0.852125
4.44488
0.928797
4.6671
1.02565
4.43019
1.34956
5.03309
1.42681
4.72988
1.41251
3.92029
1.27898
3.10276
1.04745
2.26502
0.719363
1.44901
0.329835
0.747128
0.320249
0.0388917
0.0979591
0.105388
0.615565
0.178908
1.13785
0.252969
1.54449
0.330927
1.87697
0.422285
2.20575
0.540572
2.558
0.725663
2.96101
1.00358
3.40257
1.23668
4.21178
1.20545
4.69833
1.06323
4.57241
1.06593
5.03039
1.06313
4.73268
0.997321
3.9861
0.870101
3.22998
0.648341
2.48678
0.434597
1.66276
0.178325
1.0034
0.498574
0.0392389
0.0587203
0.107118
0.547686
0.187614
1.05735
0.277097
1.455
0.377104
1.77696
0.497427
2.08543
0.661667
2.39376
0.920125
2.70256
1.26755
3.05514
1.57789
3.90144
1.54176
4.73446
1.27683
4.83734
1.09085
5.21638
0.957876
4.86565
0.73173
4.21225
0.493458
3.46825
0.326135
2.6541
0.220326
1.76857
0.062953
1.16077
0.561527
0.038334
0.0203862
0.120281
0.465739
0.206701
0.970932
0.300034
1.36167
0.409068
1.66793
0.542671
1.95182
0.725389
2.21105
0.981182
2.44676
1.30829
2.72804
1.68313
3.52659
1.69756
4.72004
1.3171
5.2178
0.963091
5.57039
0.641558
5.18718
0.337494
4.51631
0.139558
3.66619
0.122326
2.67134
0.0710913
1.8198
-0.00180827
1.23367
0.559719
0.0248663
-0.00448009
0.085681
0.404925
0.153275
0.903338
0.233811
1.28113
0.326265
1.57547
0.429689
1.8484
0.544079
2.09666
0.661645
2.3292
0.783465
2.60622
0.906817
3.40324
0.812212
4.81464
0.439257
5.59075
0.150572
5.85908
-0.0373338
5.37509
-0.125448
4.60442
-0.100043
3.64078
-0.0155576
2.58685
-0.0133933
1.81764
-0.0195668
1.23985
0.540152
0.00119187
-0.00567196
0.0103509
0.395766
0.0286339
0.885055
0.0666441
1.24312
0.120564
1.52155
0.179483
1.78948
0.224806
2.05133
0.245847
2.30816
0.23461
2.61745
0.186039
3.45181
0.0161852
4.9845
-0.349703
5.95664
-0.531851
6.04122
-0.571718
5.41495
-0.468776
4.50148
-0.277209
3.44922
-0.123097
2.43274
-0.0733325
1.76787
-0.0410933
1.20761
0.499058
-0.0171008
0.0114288
-0.0321776
0.410843
-0.0457131
0.89859
-0.0493635
1.24677
-0.0492524
1.52144
-0.0508525
1.79108
-0.0777464
2.07823
-0.150609
2.38102
-0.293185
2.76003
-0.513951
3.67258
-0.769612
5.24016
-1.01396
6.20099
-0.996553
6.02381
-0.860607
5.27901
-0.560615
4.20149
-0.289242
3.17784
-0.147659
2.29116
-0.0920883
1.7123
-0.0477768
1.16329
0.451282
-0.0285848
0.0400136
-0.0625277
0.444785
-0.0943392
0.930402
-0.126179
1.27861
-0.164962
1.56022
-0.220959
1.84708
-0.311156
2.16842
-0.462382
2.53225
-0.705243
3.00289
-1.02813
3.99546
-1.27956
5.49159
-1.32022
6.24164
-1.1376
5.8412
-0.855672
4.99707
-0.489234
3.83505
-0.237321
2.92593
-0.134898
2.18873
-0.0913141
1.66872
-0.0470425
1.11902
0.404239
-0.0349771
0.0749907
-0.0829857
0.492794
-0.124555
0.971971
-0.170974
1.32503
-0.233091
1.62234
-0.322246
1.93623
-0.453205
2.29938
-0.651705
2.73074
-0.943884
3.29507
-1.27941
4.33099
-1.43293
5.6451
-1.32536
6.13408
-1.02722
5.54307
-0.657585
4.62743
-0.35567
3.53314
-0.175816
2.74608
-0.114673
2.12759
-0.0831264