/*--------------------------------*- C++ -*----------------------------------*\
  =========                 |
  \\      /  F ield         | OpenFOAM: The Open Source CFD Toolbox
   \\    /   O peration     | Website:  https://openfoam.org
    \\  /    A nd           | Version:  6
     \\/     M anipulation  |
\*---------------------------------------------------------------------------*/
FoamFile
{
    version     2.0;
    format      ascii;
    class       volVectorField;
    location    "103.8";
    object      U;
}
// * * * * * * * * * * * * * * * * * * * * * * * * * * * * * * * * * * * * * //

dimensions      [0 1 -1 0 0 0 0];

internalField   nonuniform List<vector> 
8800
(
(0.987183 -0.0766651 0)
(1.00189 -0.05519 0)
(0.999721 -0.0285479 0)
(1.00003 -0.015143 0)
(1.0001 -0.00854464 0)
(1.00012 -0.00504703 0)
(1.00008 -0.00300109 0)
(1.00002 -0.00169964 0)
(0.99999 -0.000792596 0)
(1.00006 -7.51273e-05 0)
(0.999961 0.000658292 0)
(1.00002 0.00142511 0)
(1.00007 0.00242748 0)
(1.00007 0.00399783 0)
(1.00006 0.00663217 0)
(1.00006 0.0113718 0)
(0.99996 0.0208156 0)
(0.999176 0.0386703 0)
(1.0071 0.0724575 0)
(0.771215 0.0366617 0)
(0.363082 -0.0160161 0)
(1.04332 -0.0768101 0)
(1.0846 -0.0704376 0)
(1.0452 -0.0535307 0)
(1.02329 -0.0388809 0)
(1.01203 -0.0262017 0)
(1.00644 -0.0168374 0)
(1.0036 -0.0103004 0)
(1.00215 -0.00563483 0)
(1.00143 -0.00197081 0)
(1.00128 0.0013531 0)
(1.00167 0.00474272 0)
(1.0027 0.00865978 0)
(1.00468 0.0139778 0)
(1.00861 0.0216862 0)
(1.01657 0.0326523 0)
(1.03252 0.0465634 0)
(1.06269 0.0616795 0)
(1.09187 0.0761063 0)
(0.838663 0.0565648 0)
(0.216878 -0.00242841 0)
(1.07592 -0.0501196 0)
(1.09989 -0.0482869 0)
(1.06466 -0.0404346 0)
(1.04006 -0.0335712 0)
(1.02394 -0.0260429 0)
(1.01413 -0.0184495 0)
(1.00856 -0.0116174 0)
(1.00558 -0.00573774 0)
(1.0043 -0.000311516 0)
(1.00464 0.004941 0)
(1.00662 0.0103303 0)
(1.01064 0.0163848 0)
(1.01794 0.0234027 0)
(1.03053 0.030864 0)
(1.05062 0.037886 0)
(1.08037 0.0445654 0)
(1.10627 0.0513729 0)
(0.942491 0.041632 0)
(0.216109 0.00246318 0)
(0.175228 -0.000814789 0)
(1.01777 -0.0354595 0)
(1.10524 -0.0413398 0)
(1.0783 -0.0360149 0)
(1.05351 -0.0300715 0)
(1.03625 -0.0244841 0)
(1.02403 -0.0187391 0)
(1.0159 -0.0126404 0)
(1.01102 -0.00643535 0)
(1.00879 -8.70966e-05 0)
(1.00935 0.00617734 0)
(1.01267 0.0121716 0)
(1.01889 0.0179577 0)
(1.02875 0.0235219 0)
(1.04317 0.0288144 0)
(1.0637 0.0342844 0)
(1.09356 0.0402605 0)
(1.09338 0.0420088 0)
(0.827023 0.0229354 0)
(0.173932 0.000855244 0)
(0.154058 -0.000608414 0)
(0.956347 -0.0254233 0)
(1.10354 -0.035068 0)
(1.08774 -0.0325764 0)
(1.06179 -0.0279107 0)
(1.04418 -0.0228697 0)
(1.0317 -0.0175993 0)
(1.02283 -0.0120416 0)
(1.01698 -0.006082 0)
(1.0141 0.000405869 0)
(1.01475 0.00687974 0)
(1.01879 0.0127561 0)
(1.0258 0.0179888 0)
(1.03605 0.022892 0)
(1.0506 0.0276383 0)
(1.07184 0.0321499 0)
(1.10004 0.0360697 0)
(1.06798 0.0341038 0)
(0.73928 0.0143446 0)
(0.152101 0.000654398 0)
(0.139726 -0.000464288 0)
(0.899576 -0.0190291 0)
(1.09593 -0.0299932 0)
(1.09585 -0.0290789 0)
(1.06936 -0.0253289 0)
(1.05092 -0.0211659 0)
(1.03797 -0.0163612 0)
(1.02883 -0.0110397 0)
(1.02268 -0.00526454 0)
(1.01949 0.0010872 0)
(1.02007 0.00741453 0)
(1.02423 0.0130396 0)
(1.03135 0.0179286 0)
(1.0418 0.0223761 0)
(1.05691 0.0263241 0)
(1.0791 0.0297602 0)
(1.10219 0.0323646 0)
(1.03574 0.0282219 0)
(0.672526 0.0102529 0)
(0.136956 0.000517352 0)
(0.129237 -0.000358419 0)
(0.850168 -0.0146524 0)
(1.08366 -0.0258303 0)
(1.10159 -0.0260874 0)
(1.07627 -0.0227762 0)
(1.0573 -0.0191012 0)
(1.04388 -0.0148137 0)
(1.03438 -0.00984478 0)
(1.02797 -0.00427078 0)
(1.02457 0.00190954 0)
(1.02499 0.00802848 0)
(1.0291 0.0133744 0)
(1.03631 0.0178365 0)
(1.04702 0.0216755 0)
(1.06253 0.0249531 0)
(1.08516 0.0278619 0)
(1.1012 0.0295857 0)
(1.00062 0.0237426 0)
(0.620442 0.00790173 0)
(0.125476 0.000420862 0)
(0.121259 -0.000277154 0)
(0.808267 -0.0114777 0)
(1.06855 -0.0221841 0)
(1.10521 -0.0233996 0)
(1.08259 -0.020493 0)
(1.0632 -0.0170237 0)
(1.04951 -0.013032 0)
(1.03971 -0.00838882 0)
(1.033 -0.0030752 0)
(1.02933 0.00289588 0)
(1.02956 0.00877279 0)
(1.03361 0.0137693 0)
(1.04085 0.017742 0)
(1.05164 0.0210699 0)
(1.06735 0.0239297 0)
(1.09032 0.0265302 0)
(1.09729 0.0273445 0)
(0.965042 0.0202472 0)
(0.57846 0.00638313 0)
(0.116293 0.000351444 0)
(0.115106 -0.000213221 0)
(0.773104 -0.00909532 0)
(1.05201 -0.0189631 0)
(1.10771 -0.0208975 0)
(1.08855 -0.0183515 0)
(1.06877 -0.0150157 0)
(1.05483 -0.0111727 0)
(1.04483 -0.0067255 0)
(1.03785 -0.00163856 0)
(1.03387 0.00409092 0)
(1.03384 0.00967504 0)
(1.03776 0.014293 0)
(1.04491 0.0178269 0)
(1.05566 0.0207643 0)
(1.07156 0.023291 0)
(1.09417 0.0255352 0)
(1.09047 0.025517 0)
(0.930303 0.017572 0)
(0.54355 0.00535525 0)
(0.108675 0.000302074 0)
(0.110347 -0.000161474 0)
(0.743749 -0.00723789 0)
(1.03512 -0.0160954 0)
(1.1093 -0.0185239 0)
(1.09424 -0.0162713 0)
(1.07417 -0.013014 0)
(1.05996 -0.00924414 0)
(1.04975 -0.0049009 0)
(1.04252 2.94973e-05 0)
(1.03822 0.00553159 0)
(1.03786 0.0108112 0)
(1.04153 0.015067 0)
(1.04849 0.0182084 0)
(1.05919 0.020798 0)
(1.07527 0.0230247 0)
(1.0967 0.0248758 0)
(1.08113 0.0240621 0)
(0.896933 0.0155685 0)
(0.513643 0.00464925 0)
(0.102137 0.000268078 0)
(0.106702 -0.000118117 0)
(0.719393 -0.00573076 0)
(1.01873 -0.0135081 0)
(1.11012 -0.016214 0)
(1.09986 -0.0142174 0)
(1.07953 -0.0109555 0)
(1.06501 -0.00719606 0)
(1.05456 -0.00289405 0)
(1.04705 0.00194259 0)
(1.04238 0.00726268 0)
(1.0416 0.0122639 0)
(1.04495 0.0161798 0)
(1.05167 0.018945 0)
(1.06227 0.0211986 0)
(1.07851 0.0231475 0)
(1.09782 0.0245654 0)
(1.06961 0.0229807 0)
(0.865018 0.0141216 0)
(0.487261 0.00417537 0)
(0.0963311 0.000246453 0)
(0.103985 -8.01419e-05 0)
(0.699409 -0.00445705 0)
(1.00345 -0.0111322 0)
(1.11033 -0.0139306 0)
(1.10536 -0.0121035 0)
(1.08491 -0.00878456 0)
(1.07007 -0.00497318 0)
(1.05933 -0.000648367 0)
(1.05148 0.00415519 0)
(1.04636 0.00934706 0)
(1.04508 0.0141074 0)
(1.04803 0.0177023 0)
(1.05446 0.0200957 0)
(1.06493 0.022019 0)
(1.08128 0.0236916 0)
(1.09784 0.024765 0)
(1.05614 0.022293 0)
(0.834349 0.0131499 0)
(0.463283 0.00387982 0)
(0.0909916 0.000234855 0)
(0.102081 -4.4814e-05 0)
(0.68334 -0.00332873 0)
(0.989748 -0.00889541 0)
(1.11015 -0.0115844 0)
(1.11073 -0.00984443 0)
(1.09042 -0.0064372 0)
(1.07522 -0.00250913 0)
(1.06414 0.00190838 0)
(1.05587 0.00674507 0)
(1.05019 0.0118638 0)
(1.04831 0.0164173 0)
(1.05078 0.0197046 0)
(1.05685 0.0217251 0)
(1.06716 0.023316 0)
(1.08352 0.0246927 0)
(1.09694 0.0252999 0)
(1.04084 0.022006 0)
(0.804539 0.0125768 0)
(0.440814 0.00372394 0)
(0.0859076 0.000231109 0)
(0.100935 -9.83192e-06 0)
(0.670901 -0.00227516 0)
(0.978006 -0.00672156 0)
(1.10993 -0.00911754 0)
(1.11611 -0.00737823 0)
(1.09613 -0.00383513 0)
(1.08054 0.000277955 0)
(1.06906 0.004861 0)
(1.06028 0.00980188 0)
(1.05393 0.0149062 0)
(1.05131 0.0192874 0)
(1.0532 0.0222787 0)
(1.05886 0.0239249 0)
(1.06896 0.025175 0)
(1.0853 0.0262542 0)
(1.09469 0.0263312 0)
(1.02371 0.0221292 0)
(0.775105 0.0123584 0)
(0.419126 0.00368388 0)
(0.0809115 0.000233973 0)
(0.100537 2.69217e-05 0)
(0.661953 -0.00123968 0)
(0.968549 -0.00453696 0)
(1.11 -0.0064684 0)
(1.12166 -0.00463069 0)
(1.10214 -0.000888981 0)
(1.08612 0.00348414 0)
(1.07416 0.00831108 0)
(1.06476 0.0134324 0)
(1.0576 0.0185851 0)
(1.0541 0.0228286 0)
(1.0553 0.0255317 0)
(1.06048 0.0268084 0)
(1.07032 0.0276956 0)
(1.08651 0.028437 0)
(1.09099 0.027886 0)
(1.00463 0.0227085 0)
(0.745491 0.0124707 0)
(0.397584 0.00374645 0)
(0.0758602 0.000242726 0)
(0.100911 6.06915e-05 0)
(0.656495 -0.000163978 0)
(0.961689 -0.00226507 0)
(1.11072 -0.00356803 0)
(1.12754 -0.00151571 0)
(1.10856 0.00250374 0)
(1.09207 0.00722126 0)
(1.07954 0.012379 0)
(1.06939 0.0177649 0)
(1.06125 0.0230334 0)
(1.05669 0.0271735 0)
(1.05707 0.0296011 0)
(1.06167 0.0304977 0)
(1.07119 0.0309996 0)
(1.08686 0.0313605 0)
(1.08551 0.0300553 0)
(0.983356 0.0237819 0)
(0.715071 0.0128983 0)
(0.375611 0.00390143 0)
(0.0706274 0.00025643 0)
(0.102132 0.000117368 0)
(0.654696 0.00100025 0)
(0.957758 0.000174964 0)
(1.11247 -0.000336267 0)
(1.13396 0.00206753 0)
(1.11551 0.00646355 0)
(1.09851 0.011623 0)
(1.08529 0.0172108 0)
(1.07424 0.0229526 0)
(1.06492 0.0284076 0)
(1.05909 0.0324783 0)
(1.05848 0.0346397 0)
(1.0624 0.0351311 0)
(1.07152 0.0352266 0)
(1.0862 0.0351645 0)
(1.07799 0.0329256 0)
(0.959482 0.0253883 0)
(0.683149 0.0136302 0)
(0.35266 0.00413885 0)
(0.0651033 0.000274039 0)
(0.10435 0.000169485 0)
(0.656694 0.00214095 0)
(0.95712 0.00287826 0)
(1.11573 0.00333385 0)
(1.14114 0.00623563 0)
(1.12316 0.0111353 0)
(1.10556 0.0168534 0)
(1.09152 0.0229868 0)
(1.07938 0.0291863 0)
(1.06864 0.0348958 0)
(1.0613 0.0389175 0)
(1.05954 0.0407894 0)
(1.06263 0.0408678 0)
(1.07125 0.0405294 0)
(1.08429 0.0399398 0)
(1.06807 0.0366007 0)
(0.93246 0.0275723 0)
(0.648974 0.0146559 0)
(0.328227 0.00444755 0)
(0.0591992 0.000294278 0)
(0.107683 0.000232698 0)
(0.663123 0.00362958 0)
(0.96011 0.00584255 0)
(1.12096 0.00757553 0)
(1.14936 0.0111266 0)
(1.1317 0.0167035 0)
(1.1134 0.0231173 0)
(1.09836 0.0299271 0)
(1.08488 0.0366919 0)
(1.07243 0.04272 0)
(1.0633 0.0466983 0)
(1.06022 0.0482531 0)
(1.06231 0.0478967 0)
(1.07035 0.0470847 0)
(1.08114 0.0458617 0)
(1.05525 0.0412035 0)
(0.901559 0.0303666 0)
(0.611732 0.0159527 0)
(0.301852 0.00481034 0)
(0.0528514 0.000315239 0)
(0.112413 0.000321735 0)
(0.674398 0.00539345 0)
(0.967284 0.00935261 0)
(1.12868 0.0125599 0)
(1.15892 0.0169607 0)
(1.14137 0.0234109 0)
(1.12222 0.0306824 0)
(1.10595 0.0383149 0)
(1.09082 0.0457511 0)
(1.0763 0.0521442 0)
(1.06506 0.0560512 0)
(1.06039 0.0572664 0)
(1.06141 0.0564222 0)
(1.06874 0.055093 0)
(1.07664 0.0531269 0)
(1.03885 0.0468376 0)
(0.865853 0.0337725 0)
(0.570571 0.0174707 0)
(0.273158 0.0051986 0)
(0.0460356 0.000334144 0)
(0.118911 0.000439031 0)
(0.69131 0.00758776 0)
(0.979584 0.0136577 0)
(1.13945 0.0185192 0)
(1.17025 0.0240078 0)
(1.15245 0.0315837 0)
(1.13223 0.0399057 0)
(1.1144 0.0485164 0)
(1.09724 0.0567141 0)
(1.08024 0.0634749 0)
(1.06652 0.0672404 0)
(1.05995 0.0680217 0)
(1.05986 0.0666529 0)
(1.06648 0.0647563 0)
(1.07044 0.0619174 0)
(1.01796 0.0535672 0)
(0.824215 0.0377343 0)
(0.524662 0.0191139 0)
(0.241921 0.00556804 0)
(0.0387861 0.000347328 0)
(0.127702 0.000602958 0)
(0.71488 0.010458 0)
(0.997705 0.0190038 0)
(1.15396 0.0257978 0)
(1.18379 0.0326442 0)
(1.1653 0.0416831 0)
(1.14366 0.0512741 0)
(1.12384 0.0610089 0)
(1.10415 0.0700058 0)
(1.08417 0.077059 0)
(1.0676 0.0805369 0)
(1.0589 0.0807569 0)
(1.05762 0.078786 0)
(1.06327 0.0762308 0)
(1.06195 0.0722345 0)
(0.991383 0.0613988 0)
(0.775334 0.0420892 0)
(0.473314 0.0207174 0)
(0.208178 0.00585596 0)
(0.0312159 0.000350415 0)
(0.139603 0.000843561 0)
(0.746492 0.0143879 0)
(1.02282 0.0258717 0)
(1.17298 0.0349478 0)
(1.20024 0.0434939 0)
(1.18031 0.054397 0)
(1.15672 0.0654826 0)
(1.13429 0.0764294 0)
(1.11143 0.0861479 0)
(1.08793 0.0932746 0)
(1.06815 0.0962027 0)
(1.05714 0.0956838 0)
(1.05473 0.0930736 0)
(1.05875 0.0897538 0)
(1.05025 0.0842801 0)
(0.957508 0.0701682 0)
(0.717802 0.0465162 0)
(0.416181 0.0220312 0)
(0.172355 0.00598368 0)
(0.0235342 0.000338997 0)
(0.155929 0.00121992 0)
(0.788154 0.0200284 0)
(1.05659 0.0350528 0)
(1.19751 0.0469415 0)
(1.22048 0.0579681 0)
(1.19787 0.0708064 0)
(1.17148 0.0835325 0)
(1.1456 0.0955986 0)
(1.11885 0.105739 0)
(1.09126 0.112508 0)
(1.06795 0.114474 0)
(1.05455 0.112966 0)
(1.05109 0.109633 0)
(1.05283 0.105567 0)
(1.03409 0.0979824 0)
(0.914277 0.0794786 0)
(0.650343 0.0504817 0)
(0.353589 0.0227263 0)
(0.135404 0.00586948 0)
(0.0160499 0.000309759 0)
(0.178946 0.00187319 0)
(0.843112 0.0285473 0)
(1.10194 0.0481544 0)
(1.22862 0.0636296 0)
(1.24495 0.0776686 0)
(1.21807 0.0925943 0)
(1.18771 0.106791 0)
(1.15736 0.119494 0)
(1.12595 0.129398 0)
(1.0938 0.135108 0)
(1.06674 0.135528 0)
(1.05091 0.132703 0)
(1.04649 0.128502 0)
(1.04526 0.123434 0)
(1.01162 0.113016 0)
(0.859165 0.0885827 0)
(0.572333 0.0532258 0)
(0.287011 0.0224495 0)
(0.0988847 0.00545292 0)
(0.00915334 0.000260968 0)
(0.21217 0.00331963 0)
(0.917254 0.0427258 0)
(1.16186 0.0690959 0)
(1.26663 0.0885248 0)
(1.27352 0.105749 0)
(1.24031 0.122217 0)
(1.20455 0.136929 0)
(1.16874 0.149129 0)
(1.13205 0.157668 0)
(1.09504 0.161308 0)
(1.06422 0.159458 0)
(1.04605 0.154895 0)
(1.04076 0.149702 0)
(1.03515 0.143366 0)
(0.980056 0.128693 0)
(0.78939 0.0962502 0)
(0.484915 0.0538715 0)
(0.219774 0.0210113 0)
(0.065055 0.00473719 0)
(0.00332167 0.000192362 0)
(0.257509 0.00981643 1.08312e-20)
(1.01434 0.0708075 9.27241e-21)
(1.23386 0.104748 -3.22596e-21)
(1.30876 0.125695 0)
(1.30319 0.146005 -8.09001e-35)
(1.26232 0.162107 1.17943e-21)
(1.22041 0.175496 -2.10583e-21)
(1.17866 0.185732 0)
(1.13641 0.191835 4.30621e-35)
(1.09432 0.192666 -2.58609e-21)
(1.05957 0.188162 0)
(1.03923 0.181929 -3.07715e-21)
(1.03392 0.176557 -9.08669e-21)
(1.02011 0.168895 -4.30477e-21)
(0.933099 0.146811 -1.29524e-21)
(0.696645 0.102445 -7.68778e-22)
(0.383483 0.0520986 0)
(0.15161 0.0186927 5.37433e-22)
(0.03405 0.00384289 6.36454e-22)
(-0.0015434 7.14541e-05 1.16444e-20)
(0.289349 0.0256646 7.95693e-21)
(1.0952 0.115269 1.19987e-22)
(1.29326 0.155517 8.60492e-22)
(1.34728 0.176535 0)
(1.32956 0.196829 -4.08284e-21)
(1.28164 0.210919 -4.62229e-21)
(1.23373 0.222189 -2.11772e-21)
(1.18613 0.230222 -7.48326e-21)
(1.13828 0.233998 0)
(1.09094 0.232326 1.09265e-20)
(1.05206 0.225555 1.08345e-20)
(1.02892 0.217746 3.21212e-21)
(1.02067 0.211486 1.17503e-20)
(0.990708 0.199547 1.65692e-20)
(0.854556 0.165387 0)
(0.567029 0.105807 2.32973e-20)
(0.267977 0.04826 3.33925e-20)
(0.0843748 0.0151244 3.71499e-20)
(0.00551254 0.00182037 -4.26095e-20)
(-0.00577892 -0.000470797 -8.13188e-22)
(0.291579 0.0437695 0)
(1.14772 0.172632 1.37626e-21)
(1.33454 0.217576 0)
(1.37776 0.238464 -5.34629e-21)
(1.35077 0.255545 0)
(1.29694 0.265757 -9.02787e-21)
(1.24345 0.273379 4.29801e-21)
(1.19036 0.27802 -1.49883e-20)
(1.1373 0.278549 -3.33676e-22)
(1.08518 0.27371 5.60847e-21)
(1.04264 0.26429 2.36486e-20)
(1.0171 0.254757 -2.33774e-23)
(1.00489 0.246749 -8.49507e-21)
(0.956671 0.229211 -1.54452e-20)
(0.777764 0.180896 1.82875e-20)
(0.466295 0.106134 -3.23383e-20)
(0.196325 0.0440558 -4.25225e-21)
(0.0471177 0.0115953 0)
(-0.00917738 -0.000506981 -3.24357e-24)
(-0.00776973 -0.00109518 0)
(0.28527 0.0589007 1.80986e-20)
(1.17736 0.233848 -8.755e-21)
(1.36111 0.284441 -6.65195e-21)
(1.39849 0.305596 2.50973e-21)
(1.36525 0.318542 -4.18011e-21)
(1.30706 0.324179 1.87468e-20)
(1.24907 0.327393 8.88107e-21)
(1.19135 0.327893 0)
(1.13378 0.324513 -2.79427e-20)
(1.07749 0.315959 0)
(1.03181 0.303576 -1.22974e-20)
(1.00415 0.292105 -1.52304e-20)
(0.987414 0.281625 -9.17447e-21)
(0.92115 0.257145 -1.11416e-20)
(0.709598 0.193974 0)
(0.393067 0.106492 0)
(0.149861 0.0410957 -2.74696e-20)
(0.023565 0.0082903 5.41798e-21)
(-0.0185351 -0.00301102 -3.19713e-21)
(-0.00904486 -0.00176405 -3.78696e-21)
(0.277328 0.0720882 -6.99952e-21)
(1.19146 0.294972 0)
(1.37656 0.352281 1.33257e-20)
(1.41056 0.373905 6.94405e-21)
(1.37305 0.382809 9.57591e-21)
(1.31176 0.383834 0)
(1.25035 0.382479 8.60875e-21)
(1.18897 0.378568 1.63501e-20)
(1.12769 0.370938 1.42108e-20)
(1.06791 0.358339 2.59513e-20)
(1.01957 0.342743 0)
(0.990038 0.329147 -3.25318e-20)
(0.968557 0.315617 -1.96019e-20)
(0.885792 0.283206 -1.15934e-20)
(0.651143 0.205578 7.08097e-20)
(0.339845 0.107408 8.37674e-21)
(0.118322 0.038786 3.94546e-20)
(0.00694894 0.00489176 -1.86462e-19)
(-0.0255511 -0.00574454 1.10436e-19)
(-0.0100583 -0.00247454 -1.3481e-19)
(0.269328 0.0838631 -3.03296e-21)
(1.19537 0.353949 1.237e-21)
(1.38378 0.419087 -1.3886e-21)
(1.41566 0.441483 -6.91525e-21)
(1.37514 0.446573 -7.9864e-21)
(1.31157 0.443122 3.54627e-22)
(1.24757 0.437286 -9.27022e-21)
(1.1833 0.428964 1.67229e-20)
(1.11904 0.416991 -3.03267e-20)
(1.05638 0.400204 0)
(1.00584 0.381255 -1.47045e-20)
(0.974662 0.365414 -3.02796e-22)
(0.948442 0.348568 -2.13179e-20)
(0.851443 0.307574 0)
(0.601702 0.216193 -1.52331e-20)
(0.300232 0.108918 -3.59869e-20)
(0.0951091 0.0368175 9.5575e-20)
(-0.00600212 0.00133721 -9.4103e-20)
(-0.0313336 -0.00867374 1.33763e-19)
(-0.0109028 -0.00321228 -1.40752e-19)
(0.262161 0.0945768 -1.17911e-22)
(1.19259 0.409987 -3.14163e-22)
(1.38491 0.483763 -3.60524e-21)
(1.41524 0.507196 2.69859e-21)
(1.37257 0.5088 -3.96048e-21)
(1.30733 0.5011 0)
(1.2413 0.490964 -8.56662e-21)
(1.17471 0.478346 -1.74013e-20)
(1.108 0.462062 -1.56786e-20)
(1.04297 0.441045 0)
(0.990651 0.41866 -1.503e-20)
(0.958117 0.400454 -1.86175e-20)
(0.927492 0.380025 2.29278e-20)
(0.818625 0.330246 -1.39216e-20)
(0.559937 0.226058 -6.56469e-20)
(0.269699 0.110905 3.8758e-20)
(0.0767555 0.0350033 1.14334e-20)
(-0.0171784 -0.0024643 0)
(-0.0367151 -0.0118485 -1.27897e-19)
(-0.0117096 -0.00399013 -4.73859e-21)
(0.256037 0.104577 3.15507e-22)
(1.18546 0.462862 -2.92305e-22)
(1.38146 0.545738 1.60499e-21)
(1.41054 0.570377 9.55238e-21)
(1.36628 0.568851 -1.43953e-20)
(1.29981 0.557206 1.71923e-20)
(1.2322 0.543015 1.83165e-20)
(1.16369 0.526273 -2.76737e-20)
(1.09492 0.50577 9.60949e-21)
(1.02789 0.480514 -6.26697e-20)
(0.974148 0.454616 -1.69331e-20)
(0.940566 0.433908 0)
(0.906025 0.409723 2.46868e-20)
(0.787517 0.351143 2.94947e-20)
(0.524522 0.235244 3.51718e-20)
(0.245345 0.113156 -4.16613e-20)
(0.0613233 0.0331123 -1.22874e-20)
(-0.027604 -0.00665551 1.44874e-20)
(-0.0423061 -0.0154138 0)
(-0.0126429 -0.00485858 -1.01771e-20)
(0.250895 0.113926 -8.52962e-21)
(1.17573 0.512603 3.82966e-21)
(1.37475 0.604985 -1.29875e-21)
(1.40257 0.630685 5.61961e-21)
(1.3571 0.626349 -6.36175e-21)
(1.28973 0.611079 -8.5817e-22)
(1.22084 0.593136 -1.99452e-20)
(1.15074 0.572499 -9.98081e-21)
(1.08018 0.547904 -2.70248e-20)
(1.01141 0.518425 3.20716e-23)
(0.956516 0.48891 -5.2588e-20)
(0.922151 0.465523 4.43999e-20)
(0.884248 0.437401 -2.68757e-20)
(0.758216 0.37015 3.21475e-20)
(0.494307 0.243656 0)
(0.225436 0.115367 -2.23893e-20)
(0.0478512 0.0308803 2.33017e-23)
(-0.0376523 -0.0113912 -6.23561e-20)
(-0.0483721 -0.0195298 -9.22051e-21)
(-0.0138133 -0.00587856 0)
(0.246719 0.1229 0)
(1.16448 0.559444 4.8641e-21)
(1.36562 0.661481 -2.96594e-22)
(1.39213 0.687966 -4.97336e-21)
(1.34573 0.681103 -8.1618e-21)
(1.27769 0.662538 0)
(1.20777 0.641152 -9.01516e-21)
(1.13629 0.61688 -2.41166e-22)
(1.06413 0.588372 5.77198e-20)
(0.993785 0.554701 -8.55282e-21)
(0.937907 0.521446 -3.78866e-20)
(0.902967 0.495154 2.30152e-20)
(0.862253 0.462862 -3.93731e-22)
(0.730622 0.387128 3.40912e-20)
(0.468344 0.251114 2.05476e-20)
(0.20887 0.117134 -4.80222e-20)
(0.036091 0.0280501 5.66404e-20)
(-0.0471659 -0.0167622 1.67455e-20)
(-0.0548087 -0.0242464 6.93837e-20)
(-0.01526 -0.00709765 -1.87766e-19)
(0.243442 0.131666 -3.68487e-21)
(1.15252 0.603558 4.34825e-21)
(1.35476 0.714907 -2.46504e-21)
(1.37991 0.742187 3.57747e-21)
(1.33274 0.733037 0)
(1.26421 0.71149 -7.71773e-21)
(1.19343 0.686979 3.03076e-20)
(1.12074 0.659355 2.18127e-20)
(1.04711 0.627146 0)
(0.975234 0.589344 -1.22942e-19)
(0.918428 0.552208 1.02117e-19)
(0.883048 0.522733 0)
(0.840045 0.486003 3.10568e-20)
(0.704535 0.401987 -3.16617e-22)
(0.445796 0.257422 -6.57641e-20)
(0.194967 0.118131 2.57365e-20)
(0.0261552 0.0245576 0)
(-0.055619 -0.0226613 8.98779e-20)
(-0.0611249 -0.0294557 0)
(-0.0169079 -0.00851975 -8.82227e-20)
(0.240993 0.140233 4.63649e-21)
(1.1404 0.645189 6.35775e-21)
(1.34266 0.765342 -2.24579e-21)
(1.36644 0.79338 0)
(1.31864 0.782161 -6.73585e-21)
(1.24973 0.757931 0)
(1.17823 0.730596 -2.988e-20)
(1.10443 0.69991 -1.01271e-20)
(1.02937 0.664253 1.01807e-20)
(0.955956 0.622422 -6.08282e-20)
(0.898157 0.581249 1.05576e-20)
(0.862383 0.548273 0)
(0.817548 0.506791 -6.61725e-20)
(0.679663 0.41467 2.4966e-22)
(0.425907 0.262449 0)
(0.18321 0.118223 4.3822e-23)
(0.0180646 0.0205034 8.16483e-20)
(-0.0625144 -0.0287768 -7.71989e-20)
(-0.0667282 -0.0348519 2.28606e-20)
(-0.0185916 -0.0100721 0)
(0.239043 0.148583 0)
(1.12838 0.684543 8.09019e-21)
(1.32979 0.812912 4.36216e-21)
(1.35215 0.841627 -5.3469e-22)
(1.30382 0.828531 -2.10171e-21)
(1.23463 0.801893 -1.74653e-20)
(1.16249 0.772027 1.12542e-20)
(1.08766 0.738574 -1.19921e-20)
(1.0112 0.699738 4.55052e-20)
(0.936127 0.654039 -9.74672e-20)
(0.87716 0.608689 -8.24272e-22)
(0.840946 0.571842 -2.91096e-20)
(0.794648 0.52525 1.07159e-19)
(0.655725 0.425245 -3.62689e-22)
(0.407993 0.266182 -5.06067e-20)
(0.173162 0.117439 -8.92673e-20)
(0.0118476 0.0162055 0)
(-0.0675041 -0.0347079 0)
(-0.0711308 -0.0400696 2.45666e-20)
(-0.0201276 -0.011655 -1.45679e-20)
(0.237762 0.156907 6.98906e-21)
(1.11664 0.721683 -1.87486e-20)
(1.31648 0.857738 -4.67635e-21)
(1.33739 0.887021 0)
(1.2886 0.872224 -3.10508e-22)
(1.2192 0.843436 -1.59621e-20)
(1.1465 0.811318 2.72106e-20)
(1.0707 0.775394 4.73382e-20)
(0.992819 0.733678 5.93511e-20)
(0.915938 0.684327 -7.997e-20)
(0.855521 0.634703 -8.81839e-20)
(0.818692 0.593562 7.79979e-20)
(0.771265 0.541454 0)
(0.63232 0.433728 -2.32044e-20)
(0.391587 0.268564 -5.44076e-20)
(0.164514 0.11598 -6.39835e-20)
(0.00731883 0.0119656 -7.54342e-20)
(-0.0705768 -0.0400837 2.23214e-20)
(-0.0740815 -0.0447705 -1.31901e-20)
(-0.0213718 -0.0131617 3.89235e-23)
(0.23674 0.165033 0)
(1.10561 0.756624 0)
(1.303 0.899936 5.09488e-22)
(1.32242 0.929674 0)
(1.27324 0.913343 4.40808e-21)
(1.20368 0.882644 1.08402e-20)
(1.1305 0.848533 0)
(1.05377 0.810425 5.64874e-21)
(0.974451 0.766144 9.96054e-20)
(0.895581 0.713423 -1.84497e-19)
(0.833338 0.659517 0)
(0.795573 0.613607 -5.04921e-20)
(0.747212 0.555428 -4.86033e-22)
(0.609194 0.440095 -2.65891e-22)
(0.376391 0.269611 5.84863e-20)
(0.15717 0.114075 3.24393e-23)
(0.004286 0.00823541 -1.62205e-19)
(-0.0720745 -0.0445064 4.79517e-20)
(-0.0757058 -0.048712 1.42248e-20)
(-0.0222304 -0.0144851 0)
(0.235978 0.17292 -2.92125e-20)
(1.09506 0.789828 -1.33455e-20)
(1.28946 0.939597 -1.57072e-20)
(1.30746 0.969699 1.05503e-20)
(1.25797 0.951978 4.84951e-21)
(1.1883 0.919599 0)
(1.11468 0.883744 1.67056e-20)
(1.03707 0.84373 -1.26716e-20)
(0.956289 0.79721 8.00514e-22)
(0.875251 0.741462 1.36527e-20)
(0.810731 0.68337 1.15482e-19)
(0.771548 0.632238 -1.78067e-20)
(0.722323 0.567204 -6.64484e-20)
(0.586296 0.444133 -2.70204e-20)
(0.362368 0.269086 3.1502e-20)
(0.151481 0.111899 4.58275e-23)
(0.00280181 0.00582075 4.36388e-20)
(-0.0729067 -0.0471907 -1.03067e-19)
(-0.0770978 -0.0518071 1.22363e-19)
(-0.0229461 -0.015691 1.80712e-20)
(0.23527 0.180566 1.12518e-20)
(1.085 0.82135 -7.60497e-21)
(1.27606 0.976864 1.32843e-21)
(1.29268 1.00723 7.97353e-21)
(1.24292 0.98825 3.44524e-22)
(1.17319 0.954391 -1.91921e-20)
(1.09921 0.917022 4.85016e-21)
(1.02076 0.875364 -5.31301e-20)
(0.93851 0.826927 -1.11184e-19)
(0.855128 0.768544 -1.11212e-19)
(0.78785 0.706499 0)
(0.746585 0.649774 -7.87164e-20)
(0.696296 0.576897 9.61304e-20)
(0.563246 0.445388 0)
(0.34969 0.266194 -6.7716e-20)
(0.148803 0.108951 3.98385e-20)
(0.00460106 0.0052439 -4.6933e-20)
(-0.073103 -0.0475486 -5.55075e-20)
(-0.0805807 -0.054656 -9.86011e-20)
(-0.024578 -0.0173435 -7.78609e-20)
(0.234909 0.188057 -1.29029e-20)
(1.07531 0.851215 8.15292e-21)
(1.26289 1.01182 1.78502e-20)
(1.2782 1.04237 1.24563e-20)
(1.22824 1.02226 2.2946e-22)
(1.15849 0.987115 -1.04629e-20)
(1.0842 0.948431 1.63377e-20)
(1.00497 0.90539 -5.50185e-20)
(0.921251 0.855353 -6.64442e-20)
(0.835392 0.794755 1.17696e-19)
(0.764857 0.729123 2.57249e-19)
(0.720687 0.666596 0)
(0.668771 0.584762 0)
(0.539313 0.443461 -3.11985e-20)
(0.3383 0.259502 0)
(0.150549 0.103165 8.56512e-20)
(0.0139036 0.00319289 1.00877e-19)
(-0.0671629 -0.0489226 0)
(-0.0847429 -0.0593576 0)
(-0.0286151 -0.0205911 8.38734e-20)
(0.234428 0.195133 1.48519e-20)
(1.06603 0.879448 1.16603e-20)
(1.25006 1.04459 1.305e-20)
(1.26411 1.07527 -1.2847e-20)
(1.21401 1.05413 -1.1603e-21)
(1.14429 1.01786 1.0731e-20)
(1.06976 0.978043 -2.26812e-20)
(0.989801 0.933852 -2.91135e-22)
(0.904647 0.882523 -1.06265e-21)
(0.816206 0.82015 -5.70066e-22)
(0.741953 0.751422 1.33415e-19)
(0.693927 0.6831 0)
(0.639401 0.591256 9.88497e-20)
(0.513369 0.438212 6.74936e-20)
(0.326268 0.247307 1.58902e-19)
(0.155946 0.0885843 4.63515e-20)
(0.0344663 -0.0114819 -5.4365e-20)
(-0.0404315 -0.0637034 -3.21635e-20)
(-0.068748 -0.0678741 0)
(-0.0307023 -0.0242368 9.06643e-20)
(0.234293 0.202232 -3.3983e-20)
(1.05714 0.906154 0)
(1.23757 1.07523 1.58104e-20)
(1.25045 1.106 -1.1191e-20)
(1.20031 1.08396 3.41505e-21)
(1.13064 1.0467 -1.13335e-20)
(1.05596 1.00592 4.45945e-20)
(0.975335 0.960793 -4.35034e-21)
(0.888788 0.908461 0)
(0.797718 0.844742 -1.32126e-19)
(0.719352 0.773525 -2.9359e-19)
(0.666449 0.69968 1.19662e-20)
(0.607954 0.597012 1.38708e-19)
(0.484185 0.430257 0)
(0.310324 0.228969 1.0826e-19)
(0.158858 0.0610725 0)
(0.0579172 -0.0518963 0)
(0.00976059 -0.112507 -3.47424e-20)
(0.0093345 -0.0903344 0)
(0.014342 -0.00809737 2.44669e-20)
(0.233919 0.208799 -3.82469e-20)
(1.04862 0.931678 0)
(1.22542 1.10396 2.68056e-20)
(1.23719 1.13483 0)
(1.18711 1.11202 -2.67178e-21)
(1.1175 1.07395 0)
(1.04273 1.03236 2.2125e-21)
(0.961486 0.986544 7.79836e-21)
(0.87357 0.933523 8.53645e-21)
(0.77978 0.868901 -1.46359e-19)
(0.696887 0.795902 8.9115e-21)
(0.637948 0.717144 9.71281e-20)
(0.573766 0.603061 1.36475e-19)
(0.450153 0.420506 1.81242e-20)
(0.286948 0.206101 8.5852e-20)
(0.149878 0.0224503 0)
(0.0645499 -0.11684 1.14895e-19)
(0.0372477 -0.136211 -6.74076e-20)
(0.0189164 0.0246618 7.92231e-20)
(-0.039058 0.464653 -9.40973e-20)
(0.233593 0.215208 3.18635e-20)
(1.04024 0.955837 4.7434e-20)
(1.21354 1.1311 0)
(1.22418 1.16219 9.8298e-22)
(1.17421 1.13889 9.11802e-21)
(1.10459 1.10027 1.30411e-20)
(1.02977 1.05816 1.57541e-20)
(0.947833 1.01203 0)
(0.858446 0.95877 5.69319e-20)
(0.761693 0.893877 -7.6896e-21)
(0.673586 0.819955 0)
(0.606939 0.737007 0)
(0.534236 0.610328 1.24034e-19)
(0.407839 0.409115 -5.62836e-20)
(0.252249 0.180466 -8.84146e-20)
(0.123771 -0.0231967 0)
(0.0453692 -0.0774496 5.87065e-20)
(0.000763313 0.44333 -6.79516e-20)
(0.0264949 1.95341 -3.81673e-20)
(0.0521905 2.83775 -4.69364e-20)
(0.233013 0.221132 -2.41912e-20)
(1.03207 0.978819 -6.13528e-20)
(1.20196 1.15667 1.61582e-20)
(1.21146 1.18796 1.20794e-20)
(1.16169 1.16437 0)
(1.09203 1.12539 6.98085e-21)
(1.01729 1.08301 2.17439e-20)
(0.934593 1.03682 -3.84833e-21)
(0.843734 0.983716 8.59388e-21)
(0.743906 0.919136 1.41399e-19)
(0.650171 0.845211 1.52737e-19)
(0.574518 0.759569 1.12314e-19)
(0.490019 0.619962 1.26826e-19)
(0.35739 0.396331 -1.35146e-19)
(0.210151 0.157697 -1.35798e-19)
(0.0840223 0.0392718 0)
(0.0315207 0.931248 0)
(0.0758038 2.60432 3.28895e-20)
(0.0791297 3.2234 0)
(0.081586 3.39297 8.58445e-20)
(0.235306 0.226766 0)
(1.0245 1.00104 0)
(1.19037 1.18052 0)
(1.19882 1.212 3.84262e-21)
(1.14921 1.18823 8.57788e-21)
(1.07963 1.14918 2.62541e-21)
(1.00524 1.10682 1.41397e-20)
(0.921703 1.0608 -3.79683e-21)
(0.829377 1.00818 7.24781e-20)
(0.726433 0.944517 -1.40863e-21)
(0.626791 0.871515 3.059e-19)
(0.541138 0.785111 -1.31014e-20)
(0.441155 0.633707 1.57264e-20)
(0.299507 0.381387 1.98528e-20)
(0.154466 0.170096 -9.69806e-22)
(0.0734337 1.04805 3.35964e-22)
(0.108368 2.78892 -1.78756e-19)
(0.112684 3.30406 -6.70625e-20)
(0.106283 3.4226 3.54115e-20)
(0.0981872 3.44168 -4.0214e-20)
(0.157823 0.171832 1.4951e-20)
(1.01241 1.02521 0)
(1.17852 1.20288 -3.38577e-20)
(1.18671 1.23476 -3.39483e-20)
(1.13722 1.21094 2.31958e-20)
(1.06807 1.17211 -1.73606e-21)
(0.993389 1.1296 -1.48482e-20)
(0.909197 1.08402 4.31548e-20)
(0.815466 1.03226 -6.01855e-20)
(0.709532 0.970145 0)
(0.603835 0.898984 1.5284e-19)
(0.507447 0.813615 -9.36142e-20)
(0.392814 0.663949 0)
(0.233545 0.371648 1.97576e-20)
(0.106485 0.686667 4.574e-20)
(0.122715 2.60531 -5.0899e-20)
(0.16736 3.3259 5.74944e-20)
(0.153348 3.42831 3.09865e-20)
(0.128631 3.44724 3.48415e-20)
(0.111301 3.4563 5.5936e-20)
(0.269486 0.263599 -2.86576e-20)
(0.993096 1.03404 0)
(1.15877 1.22819 3.69946e-20)
(1.17111 1.26591 3.83508e-20)
(1.11881 1.2444 -2.77502e-20)
(1.04908 1.20585 -2.97458e-21)
(0.973163 1.16484 1.44832e-20)
(0.888207 1.1204 3.41709e-21)
(0.792597 1.07068 5.84615e-20)
(0.682705 1.01239 1.26477e-19)
(0.568954 0.946884 8.70282e-21)
(0.454946 0.859514 8.52575e-20)
(0.301005 0.680735 1.5383e-20)
(0.190174 0.824248 -1.93132e-20)
(0.196841 2.49743 -4.25148e-20)
(0.247677 3.32469 4.18607e-20)
(0.230518 3.44786 -4.59022e-20)
(0.197932 3.46796 -2.62241e-20)
(0.166208 3.49319 -2.42433e-20)
(0.12215 3.48995 -3.46603e-21)
(0.259205 0.262182 0)
(0.989259 1.05634 1.11889e-20)
(1.14923 1.25153 -7.74376e-21)
(1.15931 1.2894 -4.72015e-21)
(1.10701 1.26764 -1.98704e-20)
(1.03724 1.22924 3.96413e-21)
(0.960903 1.18836 -7.78583e-21)
(0.875501 1.1447 3.10625e-21)
(0.778876 1.09641 -6.15995e-20)
(0.666677 1.04099 -2.51336e-21)
(0.548011 0.980183 -2.82506e-19)
(0.423951 0.894208 1.22998e-20)
(0.273598 0.754369 -1.47263e-20)
(0.226528 1.51985 -1.79354e-20)
(0.291854 3.14614 3.62455e-21)
(0.302403 3.44659 -6.11638e-24)
(0.262727 3.49362 7.06587e-20)
(0.230098 3.5197 3.62703e-20)
(0.185243 3.5409 -1.27632e-20)
(0.136507 3.53903 -1.81186e-20)
(0.244889 0.259788 2.8968e-20)
(0.984452 1.08115 7.60388e-20)
(1.13928 1.27696 -2.20282e-20)
(1.1471 1.31453 -1.76274e-20)
(1.09472 1.29235 0)
(1.02499 1.25395 1.19692e-20)
(0.948517 1.2133 -8.26226e-21)
(0.86293 1.17039 2.76811e-21)
(0.765614 1.12371 -6.91448e-21)
(0.651699 1.07161 -1.17462e-19)
(0.529192 1.01628 -1.32079e-19)
(0.396371 0.93051 -1.01595e-19)
(0.273078 0.915519 -1.12025e-19)
(0.295232 2.33807 1.14611e-19)
(0.375074 3.37525 9.69343e-20)
(0.343493 3.49887 0)
(0.297406 3.53921 0)
(0.261613 3.5745 -1.04315e-20)
(0.220144 3.61932 0)
(0.151453 3.60696 -1.6955e-20)
(0.234783 0.261337 -4.34498e-20)
(0.977684 1.10671 -6.47542e-20)
(1.1279 1.30361 0)
(1.1336 1.34047 1.19189e-21)
(1.08114 1.31773 -2.30812e-20)
(1.01162 1.27924 2.22033e-20)
(0.935341 1.23887 -3.59807e-21)
(0.849804 1.19669 1.67995e-21)
(0.752066 1.15164 -4.48371e-20)
(0.636927 1.10299 5.93442e-21)
(0.511654 1.05333 0)
(0.369433 0.969792 0)
(0.294814 1.23379 -1.02891e-19)
(0.3785 2.9881 4.18375e-20)