/*--------------------------------*- C++ -*----------------------------------*\
  =========                 |
  \\      /  F ield         | OpenFOAM: The Open Source CFD Toolbox
   \\    /   O peration     | Website:  https://openfoam.org
    \\  /    A nd           | Version:  6
     \\/     M anipulation  |
\*---------------------------------------------------------------------------*/
FoamFile
{
    version     2.0;
    format      ascii;
    class       surfaceScalarField;
    location    "62";
    object      phi;
}
// * * * * * * * * * * * * * * * * * * * * * * * * * * * * * * * * * * * * * //

dimensions      [0 3 -1 0 0 0 0];

internalField   nonuniform List<scalar> 
17370
(
-0.0899999
0.0898535
0.289157
-0.0714612
0.0537567
0.36448
-0.0381249
0.0276997
0.426593
-0.0196515
0.0146204
0.504283
-0.0107788
0.00828807
0.601893
-0.00628793
0.00491112
0.720434
-0.00374697
0.00290599
0.863747
-0.00216381
0.00160382
1.03601
-0.0010862
0.000672814
1.24292
-0.000264036
-0.000128642
1.49158
0.000508106
-0.000917421
1.4916
0.00131487
-0.0018056
1.24318
0.00233698
-0.00304744
1.03635
0.00386359
-0.00500825
0.864051
0.00637456
-0.0083682
0.721051
0.0108542
-0.0146902
0.603051
0.019716
-0.0277581
0.507481
0.0381775
-0.0538014
0.431792
0.0714979
-0.089878
0.365156
0.0900144
0.198996
-0.128132
0.088212
0.0399197
-0.364591
0.353404
-0.0746886
0.0858752
-0.446477
0.454319
-0.0843813
0.0765395
-0.521187
0.529896
-0.0684497
0.0597402
-0.612785
0.621561
-0.0515536
0.0427777
-0.726893
0.734157
-0.0353217
0.0280585
-0.867475
0.872586
-0.0224632
0.0173525
-1.03847
1.04192
-0.0135457
0.0100979
-1.2446
1.24703
-0.00748813
0.00505592
-1.49263
1.4946
-0.00310954
0.00113436
-1.4925
1.49423
0.000548831
-0.00227282
-1.24398
1.24586
0.00417557
-0.00605976
-1.03751
1.04004
0.0084178
-0.010951
-0.866104
0.869833
0.0143095
-0.0180385
-0.724395
0.729935
0.0230753
-0.0286154
-0.6087
0.616113
0.0358279
-0.0432411
-0.514897
0.523043
0.0519714
-0.0601167
-0.439856
0.447911
0.0687821
-0.0768365
-0.375302
0.376741
0.0846372
-0.086076
-0.257331
0.222478
0.0748253
-0.0399729
-0.0685096
0.058685
0.00982461
-0.0518293
0.0584181
-0.374123
0.367534
-0.0575062
0.0537556
-0.453593
0.457343
-0.0486666
0.044714
-0.527943
0.531895
-0.0408745
0.0372373
-0.621558
0.625195
-0.0331382
0.0290657
-0.735341
0.739414
-0.0244989
0.0203429
-0.874332
0.878489
-0.0160003
0.012309
-1.04348
1.04717
-0.00857412
0.00540264
-1.24856
1.25173
-0.00207467
-0.000998288
-1.49666
1.49973
0.00404646
-0.00731214
-1.49721
1.50047
0.0103923
-0.0140007
-1.25007
1.25368
0.0175634
-0.0217587
-1.04593
1.05012
0.0257856
-0.0302242
-0.877767
0.882206
0.0341952
-0.0381963
-0.739905
0.743906
0.0417512
-0.0455049
-0.62678
0.630533
0.0493833
-0.0544012
-0.534816
0.539834
0.058075
-0.0588898
-0.457484
0.458298
0.0521876
-0.0319802
-0.335769
0.315561
0.00988311
-0.0683485
0.0584654
-0.0529328
0.048935
0.00399776
-0.0331749
0.0437255
-0.358095
0.347544
-0.0474291
0.0468055
-0.459278
0.459901
-0.0437535
0.0404045
-0.535795
0.539144
-0.0366371
0.033338
-0.62852
0.631819
-0.0299052
0.0268773
-0.742636
0.745664
-0.0236219
0.0205178
-0.882003
0.885107
-0.01699
0.0136129
-1.05076
1.05413
-0.00982207
0.00628529
-1.25516
1.25869
-0.00231769
-0.00147848
-1.50324
1.50703
0.00524322
-0.00911699
-1.50414
1.50801
0.0125268
-0.0161439
-1.25743
1.26104
0.0193424
-0.0226633
-1.05393
1.05725
0.0255833
-0.0286534
-0.885705
0.888775
0.0315321
-0.0348199
-0.747174
0.750461
0.0379981
-0.0416415
-0.634323
0.637966
0.0448835
-0.0478134
-0.544148
0.547078
0.0483086
-0.0444244
-0.456586
0.452701
0.0336583
-0.016215
-0.296202
0.278759
0.00407014
-0.052648
0.0485779
-0.0458552
0.0433575
0.00249763
-0.0228218
0.0332079
-0.336849
0.326463
-0.0390361
0.0400576
-0.459582
0.458561
-0.038872
0.0365891
-0.541861
0.544144
-0.0339273
0.0313373
-0.634866
0.637456
-0.0282813
0.0253882
-0.748705
0.751598
-0.0221298
0.019141
-0.888055
0.891044
-0.0158409
0.0127455
-1.05726
1.06036
-0.00922322
0.0058172
-1.26215
1.26555
-0.00185623
-0.00202681
-1.51091
1.51479
0.00586813
-0.00970472
-1.51191
1.51574
0.0129432
-0.0162381
-1.26448
1.26778
0.0191
-0.0221289
-1.06035
1.06338
0.0248737
-0.0278839
-0.891838
0.894848
0.0305741
-0.033431
-0.753673
0.75653
0.0358554
-0.0383497
-0.641036
0.643531
0.0404878
-0.0414835
-0.548886
0.549882
0.0402634
-0.0341452
-0.447427
0.441309
0.0234426
-0.0102303
-0.263546
0.250334
0.00258701
-0.045417
0.0428299
-0.0412803
0.0395109
0.0017694
-0.0167635
0.0260236
-0.316602
0.307342
-0.0326384
0.034785
-0.456955
0.454809
-0.03437
0.0327047
-0.546118
0.547783
-0.0305301
0.0284412
-0.639757
0.641846
-0.0260171
0.0236265
-0.754236
0.756627
-0.0207754
0.0179928
-0.893931
0.896713
-0.0147637
0.0117005
-1.06339
1.06646
-0.00821599
0.00489434
-1.26887
1.27219
-0.00106417
-0.00266793
-1.51858
1.52231
0.00634684
-0.0100187
-1.51948
1.52315
0.0131276
-0.0163234
-1.27102
1.27422
0.0190896
-0.0219723
-1.06641
1.06929
0.0244415
-0.026972
-0.897673
0.900203
0.0291001
-0.0312665
-0.758988
0.761154
0.0331433
-0.0351023
-0.64569
0.647649
0.0365573
-0.0367141
-0.550404
0.550561
0.0342628
-0.027224
-0.434649
0.427611
0.0175379
-0.00740031
-0.238809
0.228672
0.00187853
-0.0406536
0.038775
-0.0379865
0.0366548
0.00133168
-0.0128039
0.020759
-0.29874
0.290785
-0.0275194
0.0304498
-0.452242
0.449312
-0.0306611
0.0295477
-0.549209
0.550322
-0.0275605
0.0256505
-0.643877
0.645787
-0.0234583
0.0213285
-0.758858
0.760988
-0.0188213
0.0163447
-0.899278
0.901754
-0.0134091
0.0105352
-1.06938
1.07226
-0.00717841
0.00394087
-1.27544
1.27867
-0.000195877
-0.00343238
-1.52596
1.52959
0.0069941
-0.0105405
-1.52675
1.5303
0.0135113
-0.0165066
-1.27735
1.28034
0.0190085
-0.0215101
-1.07203
1.07453
0.0235939
-0.0256989
-0.902504
0.904609
0.0274979
-0.0293636
-0.763146
0.765011
0.0310059
-0.0327326
-0.649472
0.651199
0.0335387
-0.032966
-0.550357
0.549785
0.0295999
-0.0222592
-0.420365
0.413024
0.0137571
-0.00573495
-0.219694
0.211672
0.00146443
-0.0371299
0.0356655
-0.0354913
0.0344645
0.0010269
-0.0100082
0.0167325
-0.283471
0.276747
-0.0232263
0.0266083
-0.446137
0.442755
-0.0273975
0.0267037
-0.551221
0.551915
-0.0249512
0.0231731
-0.647676
0.649454
-0.0211101
0.0191006
-0.763052
0.765061
-0.0167366
0.0144158
-0.904082
0.906402
-0.0116837
0.00900398
-1.07496
1.07764
-0.00585099
0.00276925
-1.28179
1.28487
0.000839241
-0.00435139
-1.53314
1.53665
0.00778131
-0.0111442
-1.53375
1.53711
0.0138972
-0.0166054
-1.2832
1.28591
0.0188272
-0.0210237
-1.07691
1.0791
0.0228576
-0.0247225
-0.906603
0.908468
0.0263206
-0.0279774
-0.766767
0.768424
0.0294236
-0.0308159
-0.65278
0.654172
0.0311286
-0.0298258
-0.548862
0.547559
0.0258438
-0.0185868
-0.405702
0.398445
0.0111755
-0.0046304
-0.204459
0.197913
0.00118826
-0.0343555
0.0331672
-0.0335628
0.0327623
0.000800472
-0.00793566
0.0135875
-0.270589
0.264938
-0.0195961
0.0231752
-0.439267
0.435688
-0.024442
0.0239963
-0.552521
0.552967
-0.0225108
0.0208421
-0.651229
0.652897
-0.0188739
0.0169505
-0.76702
0.768944
-0.0146796
0.0124478
-0.90861
0.910842
-0.00982046
0.00725234
-1.08019
1.08276
-0.0042423
0.00130576
-1.28783
1.29077
0.00212845
-0.00546399
-1.54005
1.54338
0.00869881
-0.0118322
-1.54034
1.54347
0.0143664
-0.0168323
-1.2885
1.29097
0.01884
-0.0208101
-1.08124
1.08321
0.0224432
-0.0241
-0.910252
0.911908
0.0255176
-0.0269857
-0.76998
0.771449
0.0282403
-0.0292582
-0.655358
0.656376
0.0291981
-0.0272314
-0.545929
0.543962
0.0228519
-0.0158657
-0.39132
0.384334
0.00936148
-0.00386522
-0.191944
0.186447
0.000996441
-0.0320875
0.031091
-0.0320595
0.0314346
0.000624898
-0.00633646
0.0110728
-0.259773
0.255037
-0.0164915
0.0200713
-0.43211
0.42853
-0.0216624
0.0214443
-0.553339
0.553557
-0.020193
0.0185829
-0.654584
0.656195
-0.0166712
0.0147978
-0.77083
0.772704
-0.0125867
0.0104147
-0.912965
0.915137
-0.00785827
0.00536356
-1.08521
1.0877
-0.00244812
-0.000380066
-1.29359
1.29642
0.00366095
-0.00681866
-1.54659
1.54975
0.00985353
-0.0127678
-1.54648
1.54939
0.0151062
-0.0173605
-1.29334
1.29559
0.0191737
-0.0209283
-1.08514
1.08689
0.0223678
-0.0238269
-0.91349
0.914949
0.0250798
-0.0263753
-0.772822
0.774117
0.0274873
-0.0280894
-0.657178
0.65778
0.02766
-0.0251346
-0.541732
0.539206
0.0205133
-0.0138628
-0.377526
0.370876
0.00807561
-0.00333005
-0.181365
0.17662
0.000862941
-0.0301719
0.029309
-0.0308897
0.0304071
0.000482673
-0.00504939
0.00899674
-0.250723
0.246776
-0.0137823
0.0172151
-0.425035
0.421603
-0.0189914
0.0189657
-0.553726
0.553751
-0.0179083
0.0163337
-0.657853
0.659427
-0.014444
0.012586
-0.774552
0.77641
-0.0103951
0.0082495
-0.917205
0.919351
-0.00573327
0.00328689
-1.09008
1.09253
-0.000440412
-0.00230384
-1.29914
1.30188
0.00546059
-0.00846647
-1.55279
1.55579
0.0113232
-0.0140347
-1.55218
1.55489
0.0161852
-0.018232
-1.29775
1.2998
0.0198536
-0.0213965
-1.08863
1.09017
0.0226506
-0.0239273
-0.916344
0.917621
0.0250328
-0.0261733
-0.775325
0.776465
0.0270904
-0.0273267
-0.658191
0.658427
0.0265
-0.0235017
-0.536462
0.533463
0.0187363
-0.0124129
-0.364408
0.358085
0.00717253
-0.00296081
-0.172174
0.167962
0.000772361
-0.0285013
0.0277289
-0.0299927
0.0296303
0.000362407
-0.00397146
0.00722609
-0.243201
0.239946
-0.0113675
0.0145442
-0.418317
0.41514
-0.0163806
0.0165127
-0.553753
0.553621
-0.0155363
0.0140369
-0.661036
0.662535
-0.0121432
0.010269
-0.778252
0.780126
-0.00806042
0.00590573
-0.921398
0.923552
-0.00339201
0.000962991
-1.09487
1.0973
0.00184421
-0.0045303
-1.30453
1.30721
0.0075933
-0.0104766
-1.55869
1.56158
0.0131789
-0.0157017
-1.55748
1.56
0.0176692
-0.0195097
-1.30175
1.30359
0.0209417
-0.0222772
-1.09171
1.09305
0.0233515
-0.0244516
-0.918839
0.91994
0.0254104
-0.0263801
-0.77751
0.77848
0.0270435
-0.0269902
-0.658537
0.658484
0.025734
-0.0223193
-0.530272
0.526857
0.0174553
-0.0114045
-0.351924
0.345873
0.00656197
-0.00271771
-0.163964
0.16012
0.000714738
-0.0269953
0.0262806
-0.0293291
0.0290739
0.000255154
-0.00302694
0.00565671
-0.237028
0.234399
-0.00915496
0.0119934
-0.412158
0.409319
-0.013776
0.0139913
-0.553511
0.553296
-0.0130597
0.0116022
-0.664093
0.665551
-0.00968066
0.00776083
-0.78199
0.78391
-0.00549963
0.00330315
-0.925611
0.927808
-0.000755108
-0.00169078
-1.09963
1.10208
0.00449601
-0.00715527
-1.30981
1.31247
0.010153
-0.0129335
-1.56436
1.56714
0.0154954
-0.0178403
-1.5624
1.56475
0.0196312
-0.0212692
-1.30533
1.30696
0.0225109
-0.023632
-1.0944
1.09552
0.0245188
-0.0254405
-0.920988
0.921909
0.0262564
-0.0270602
-0.779347
0.78015
0.0274358
-0.0271059
-0.658288
0.657958
0.0254051
-0.0215864
-0.523261
0.519442
0.0166239
-0.010763
-0.339954
0.334093
0.00618581
-0.00257506
-0.156423
0.152812
0.000683505
-0.0255921
0.0249086
-0.0288769
0.0287237
0.000153236
-0.00215218
0.00419557
-0.232086
0.230042
-0.00704647
0.0094777
-0.406714
0.404283
-0.0111006
0.0113221
-0.553154
0.552933
-0.0104024
0.00894976
-0.6671
0.668553
-0.00697299
0.00497904
-0.785821
0.787815
-0.00263075
0.000358832
-0.929908
0.93218
0.00226278
-0.00476208
-1.10443
1.10693
0.0076038
-0.0102678
-1.31504
1.31771
0.013229
-0.0159264
-1.56982
1.57252
0.0183598
-0.0205335
-1.56697
1.56914
0.022151
-0.0235883
-1.3085
1.30994
0.0246367
-0.0255335
-1.09669
1.09759
0.0262182
-0.0269431
-0.922771
0.923495
0.0276064
-0.0282657
-0.780832
0.781492
0.0283303
-0.0276258
-0.65741
0.656705
0.0254827
-0.0212675
-0.51547
0.511255
0.0161846
-0.0104232
-0.328326
0.322565
0.0059972
-0.00251197
-0.149295
0.14581
0.000673086
-0.0242416
0.0235685
-0.0286283
0.0285784
4.98827e-05
-0.00129866
0.00277013
-0.228307
0.226836
-0.00495959
0.00692019
-0.402121
0.40016
-0.00828087
0.00842773
-0.552841
0.552694
-0.00747481
0.00599139
-0.67013
0.671613
-0.00392195
0.00182149
-0.789801
0.791902
0.000652932
-0.00303723
-0.934358
0.936742
0.00577253
-0.00836103
-1.10934
1.11193
0.0112772
-0.0139792
-1.3203
1.323
0.0169357
-0.0195728
-1.57513
1.57776
0.0218906
-0.0238955
-1.57119
1.57319
0.0253362
-0.0265652
-1.31125
1.31248
0.0274101
-0.0280704
-1.09856
1.09922
0.0285441
-0.0290594
-0.924166
0.924681
0.0295576
-0.0300053
-0.78195
0.782398
0.0297908
-0.0286425
-0.655767
0.654619
0.0260208
-0.0213793
-0.506897
0.502255
0.0161224
-0.0103557
-0.316855
0.311088
0.00597349
-0.0025185
-0.142374
0.138919
0.000681019
-0.0229038
0.0222227
-0.0285862
0.0286462
-6.00276e-05
-0.00041809
0.00131203
-0.225674
0.22478
-0.00281378
0.00423966
-0.398502
0.397076
-0.00523616
0.00522266
-0.552742
0.552755
-0.00417764
0.0026049
-0.673269
0.674841
-0.000407951
-0.0018387
-0.793997
0.796243
0.00448362
-0.00702092
-0.939031
0.941569
0.00991481
-0.012633
-1.11444
1.11716
0.0156648
-0.0184364
-1.32563
1.3284
0.0214142
-0.0240053
-1.58031
1.58291
0.0262121
-0.0280434
-1.57506
1.5769
0.0292981
-0.0303083
-1.31357
1.31458
0.0309411
-0.0313589
-1.09997
1.10039
0.0316125
-0.031903
-0.925141
0.925432
0.0322104
-0.0323817
-0.782535
0.782706
0.0318834
-0.0301934
-0.653249
0.651559
0.027053
-0.0219363
-0.497477
0.49236
0.0164303
-0.010544
-0.305325
0.299439
0.00610136
-0.00258848
-0.135471
0.131958
0.000705625
-0.0215427
0.0208371
-0.0287639
0.0289407
-0.000176732
0.000509067
-0.000231037
-0.22421
0.223932
-0.000534028
0.00134777
-0.395986
0.395173
-0.00187161
0.00160705
-0.553037
0.553302
-0.000403013
-0.00131551
-0.676639
0.678358
0.00368675
-0.0061239
-0.798486
0.800923
0.00899141
-0.0117312
-0.944015
0.946755
0.0148377
-0.0177318
-1.1198
1.1227
0.0209246
-0.023801
-1.33111
1.33398
0.0268314
-0.0293958
-1.58541
1.58797
0.0314988
-0.0331497
-1.57859
1.58024
0.034206
-0.0349753
-1.31543
1.31619
0.035379
-0.0355376
-1.1009
1.10106
0.0355551
-0.0356052
-0.925652
0.925702
0.0357171
-0.0355252
-0.782492
0.7823
0.0346481
-0.0323543
-0.64969
0.647396
0.0286248
-0.0229524
-0.487095
0.481422
0.0171014
-0.010973
-0.293504
0.287376
0.00636801
-0.00271518
-0.128414
0.124762
0.000744689
-0.0201263
0.0193816
-0.0291985
0.0295189
-0.000320389
0.00152133
-0.00188556
-0.224007
0.224371
0.00196107
-0.00186179
-0.394713
0.394614
0.00194249
-0.00256581
-0.553931
0.554554
0.0039951
-0.00591686
-0.680353
0.682275
0.00853174
-0.0112173
-0.803355
0.806041
0.0143681
-0.0173635
-0.949406
0.952401
0.0207385
-0.0238571
-1.12552
1.12864
0.0272598
-0.0302787
-1.3368
1.33982
0.0333902
-0.0359386
-1.59045
1.593
0.0379334
-0.0393875
-1.58173
1.58319
0.040228
-0.0407299
-1.31676
1.31726
0.0408816
-0.0407565
-1.10127
1.10114
0.0405124
-0.0402992
-0.925646
0.925433
0.0402025
-0.0395445
-0.781668
0.78101
0.0382078
-0.0352175
-0.644955
0.641964
0.0308042
-0.0244626
-0.475576
0.469235
0.0181468
-0.0116406
-0.281142
0.274636
0.00676877
-0.00289552
-0.121041
0.117168
0.000797162
-0.018626
0.0178288
-0.0299106
0.0304047
-0.000494117
0.00278954
-0.00390146
-0.225129
0.226241
0.00483813
-0.0055351
-0.394881
0.395578
0.00634377
-0.00743162
-0.555672
0.55676
0.00918701
-0.0113878
-0.684545
0.686746
0.0143288
-0.0173342
-0.808722
0.811727
0.0208424
-0.0241592
-0.955313
0.95863
0.0278706
-0.0312689
-1.13171
1.1351
0.0349306
-0.0381225
-1.34278
1.34597
0.0413299
-0.0438561
-1.59545
1.59797
0.045717
-0.0469387
-1.58446
1.58568
0.0475144
-0.047743
-1.31752
1.31775
0.0476252
-0.0471869
-1.10103
1.10059
0.0466565
-0.0461598
-0.925056
0.92456
0.0457272
-0.044619
-0.779924
0.778816
0.042683
-0.0388683
-0.638844
0.635029
0.0336439
-0.0264854
-0.462681
0.455523
0.0195638
-0.0125349
-0.267963
0.260934
0.00729206
-0.00312253
-0.113192
0.109023
0.000860542
-0.0170162
0.0161556
-0.0309741
0.0316864
-0.000712232
0.00427357
-0.00626376
-0.227779
0.229769
0.00827765
-0.00987583
-0.396715
0.398313
0.0115095
-0.0131799
-0.55851
0.560181
0.0154006
-0.0179743
-0.68937
0.691944
0.0213385
-0.0247454
-0.814728
0.818135
0.0286988
-0.0324143
-0.961875
0.965591
0.0365395
-0.0402768
-1.13846
1.14219
0.0442463
-0.0476387
-1.34911
1.3525
0.0509504
-0.0534396
-1.60039
1.60288
0.0551333
-0.0560744
-1.5867
1.58764
0.0563398
-0.0562429
-1.31765
1.31755
0.0558154
-0.0550294
-1.10011
1.09932
0.054183
-0.0533595
-0.923825
0.923002
0.0525166
-0.0508876
-0.777299
0.775669
0.0482189
-0.0434121
-0.631088
0.626281
0.0372073
-0.0290432
-0.448101
0.439937
0.0213499
-0.0136414
-0.253673
0.245965
0.00792297
-0.00338701
-0.104719
0.100183
0.000931459
-0.0152767
0.0143452
-0.0324708
0.0334728
-0.00100203
0.00616205
-0.00920851
-0.23221
0.235256
0.0124639
-0.0151212
-0.400478
0.403135
0.0177274
-0.0201142
-0.562718
0.565105
0.0229458
-0.0260207
-0.695024
0.698099
0.0299449
-0.0338542
-0.821548
0.825458
0.0383555
-0.0425518
-0.969246
0.973442
0.0471656
-0.0512928
-1.14589
1.15001
0.0556026
-0.0591996
-1.35582
1.35942
0.0625895
-0.0649909
-1.60522
1.60762
0.0664523
-0.0670387
-1.58835
1.58893
0.0669305
-0.0664331
-1.317
1.3165
0.0656568
-0.0644743
-1.09842
1.09723
0.0632689
-0.0621194
-0.921873
0.920724
0.0607418
-0.0584998
-0.773634
0.771392
0.0549399
-0.0489151
-0.62134
0.615315
0.0415129
-0.0321148
-0.431451
0.422053
0.0234656
-0.0149186
-0.237962
0.229415
0.00862921
-0.00367159
-0.0954888
0.0905312
0.00100414
-0.0133949
0.0123908
-0.0345325
0.035932
-0.00139959
0.00861956
-0.0130204
-0.238746
0.243147
0.0177594
-0.0216448
-0.406546
0.410432
0.0253802
-0.0286339
-0.568635
0.571889
0.0322579
-0.0359951
-0.701787
0.705524
0.0406435
-0.0451928
-0.829381
0.833931
0.050364
-0.0551296
-0.977591
0.982357
0.0603022
-0.0648517
-1.1541
1.15865
0.0694966
-0.0732535
-1.3629
1.36666
0.0766329
-0.0788366
-1.60981
1.61201
0.0799514
-0.0800763
-1.58922
1.58934
0.0795245
-0.0785093
-1.31543
1.31441
0.0773281
-0.075723
-1.09583
1.09423
0.0741581
-0.0725813
-0.919158
0.917582
0.0706613
-0.0676129
-0.768709
0.765661
0.062937
-0.0554111
-0.609141
0.601615
0.0465428
-0.0356416
-0.412271
0.40137
0.0258374
-0.0162993
-0.220518
0.210979
0.0093619
-0.00395137
-0.0854023
0.0799917
0.00107064
-0.011371
0.0103004
-0.0373519
0.0393231
-0.00197119
0.0120549
-0.0181634
-0.247917
0.254025
0.0246937
-0.030016
-0.415407
0.420729
0.0350846
-0.0393954
-0.576651
0.580962
0.0440249
-0.0486258
-0.709998
0.714599
0.0542014
-0.0595368
-0.83849
0.843826
0.0654998
-0.0709058
-0.987086
0.992492
0.0766642
-0.0816097
-1.16312
1.16806
0.0865075
-0.0903089
-1.37024
1.37404
0.0935149
-0.0953488
-1.61391
1.61574
0.0959459
-0.0954467
-1.58908
1.58858
0.0943353
-0.0927037
-1.31276
1.31113
0.0910278
-0.0889706
-1.09225
1.0902
0.0870058
-0.0848602
-0.915441
0.913296
0.0824112
-0.0783094
-0.76208
0.757978
0.0722444
-0.0628564
-0.593902
0.584514
0.0521952
-0.0394866
-0.39003
0.377321
0.0283268
-0.0176711
-0.201056
0.190401
0.0100452
-0.0041902
-0.0744172
0.0685622
0.00112004
-0.00922213
0.00810209
-0.0412535
0.0441076
-0.00285413
0.0170521
-0.0254147
-0.260438
0.268801
0.034157
-0.0411987
-0.427737
0.434779
0.0478839
-0.0534844
-0.587253
0.592853
0.0594003
-0.0651245
-0.720079
0.725804
0.0718677
-0.0781213
-0.84915
0.855404
0.0849333
-0.0909571
-0.99784
1.00386
0.0972015
-0.102393
-1.17285
1.17804
0.107325
-0.110936
-1.37753
1.38114
0.113683
-0.114878
-1.61712
1.61832
0.114714
-0.113378
-1.58757
1.58624
0.11154
-0.109187
-1.30881
1.30645
0.106935
-0.10437
-1.08758
1.08502
0.101983
-0.0991446
-0.910407
0.907569
0.0960045
-0.0905569
-0.753222
0.747774
0.0827505
-0.0710658
-0.57486
0.563175
0.0582347
-0.043399
-0.364149
0.349314
0.030708
-0.0188669
-0.179373
0.167532
0.0105734
-0.00434079
-0.0625822
0.0563496
0.00113879
-0.00698775
0.00584896
-0.0468062
0.0511508
-0.00434457
0.0247821
-0.0362045
-0.277485
0.288908
0.0478126
-0.0571638
-0.444558
0.45391
0.0658814
-0.0730321
-0.601049
0.6082
0.0805123
-0.0877195
-0.732444
0.739651
0.0956616
-0.102748
-0.861555
0.868641
0.110228
-0.11663
-1.00972
1.01612
0.123025
-0.128109
-1.18289
1.18797
0.132654
-0.135677
-1.38422
1.38725
0.137534
-0.137717
-1.61886
1.61904
0.136472
-0.134029
-1.58425
1.58181
0.131276
-0.128044
-1.30331
1.30008
0.125115
-0.121977
-1.08169
1.07855
0.119078
-0.115527
-0.903878
0.900327
0.111408
-0.104185
-0.741477
0.734253
0.094143
-0.0796336
-0.551078
0.536568
0.064237
-0.0469957
-0.334062
0.316821
0.0326688
-0.0196753
-0.155426
0.142433
0.0108196
-0.00434882
-0.0500789
0.0436081
0.00111106
-0.00473305
0.00362199
-0.0550814
0.0624882
-0.00740684
0.0382163
-0.0541289
-0.301201
0.317113
0.0697967
-0.0823746
-0.467556
0.480133
0.0932763
-0.101808
-0.618494
0.627025
0.110815
-0.119314
-0.747442
0.755941
0.128207
-0.135696
-0.875415
0.882904
0.143239
-0.149407
-1.02208
1.02825
0.15528
-0.159633
-1.1924
1.19675
0.163148
-0.164998
-1.38943
1.39128
0.165399
-0.164082
-1.6183
1.61698
0.161351
-0.157488
-1.57855
1.57469
0.153588
-0.14929
-1.29595
1.29166
0.145593
-0.141846
-1.07436
1.07062
0.138301
-0.133902
-0.895661
0.891261
0.128362
-0.118721
-0.725834
0.716193
0.105749
-0.087773
-0.521364
0.503388
0.0695096
-0.0497881
-0.299331
0.27961
0.0338907
-0.019936
-0.129463
0.115508
0.0107014
-0.00417997
-0.03726
0.0307386
0.00101724
-0.00254751
0.00153027
-0.0693687
0.0734919
-0.00412319
0.0291055
-0.0430154
-0.335539
0.349449
0.0569995
-0.0686288
-0.498157
0.509787
0.0789723
-0.0886142
-0.639222
0.648864
0.0993408
-0.109325
-0.763896
0.77388
0.120433
-0.130234
-0.889353
0.899154
0.140621
-0.149816
-1.03348
1.04268
0.159396
-0.167555
-1.20002
1.20818
0.175599
-0.181903
-1.39194
1.39825
0.187343
-0.190616
-1.61445
1.61772
0.191704
-0.191194
-1.56978
1.56927
0.189605
-0.187232
-1.28635
1.28397
0.185172
-0.182658
-1.06536
1.06285
0.180216
-0.175853
-0.88502
0.880657
0.168062
-0.153673
-0.704821
0.690432
0.134133
-0.108195
-0.484577
0.458639
0.0831894
-0.0574288
-0.259853
0.234093
0.0378203
-0.0214925
-0.102186
0.0858581
0.0111302
-0.00415707
-0.0246744
0.0177013
0.000939598
-0.000504355
-0.000435244
-0.0808526
0.0789202
0.0019324
0.00764245
-0.0165891
-0.366024
0.37497
0.0271742
-0.0355583
-0.525974
0.534358
0.0439621
-0.0518959
-0.66123
0.669164
0.0616608
-0.0708821
-0.783337
0.792558
0.0807585
-0.0897264
-0.908296
0.917264
0.0992086
-0.10725
-1.05156
1.0596
0.115793
-0.122673
-1.21608
1.22296
0.12937
-0.134284
-1.40415
1.40906
0.13794
-0.139625
-1.6201
1.62179
0.1392
-0.137193
-1.56807
1.56606
0.134084
-0.130096
-1.2809
1.27692
0.126452
-0.122472
-1.05815
1.05417
0.11852
-0.113011
-0.87154
0.866031
0.104721
-0.0918867
-0.67228
0.659445
0.0767907
-0.0587637
-0.431208
0.413181
0.0430177
-0.0285172
-0.208757
0.194257
0.0182856
-0.0102384
-0.0705243
0.0624772
0.00526465
-0.00196953
-0.0109578
0.00766264
0.000438725
0.00161881
-0.00205754
-0.0822603
0.0793812
0.0028791
-0.00123781
-0.00383816
-0.386662
0.391738
0.0108343
-0.0169215
-0.546568
0.552655
0.0230928
-0.0299482
-0.679713
0.686569
0.0384031
-0.0463782
-0.800847
0.808823
0.0551323
-0.0629152
-0.925385
0.933168
0.0708855
-0.0780039
-1.06744
1.07456
0.0853404
-0.0913115
-1.22937
1.23534
0.0966396
-0.100296
-1.41326
1.41691
0.10286
-0.103318
-1.62271
1.62317
0.101659
-0.0984094
-1.56335
1.5601
0.0942963
-0.08942
-1.27252
1.26764
0.0845283
-0.079314
-1.04825
1.04304
0.074251
-0.0680182
-0.856235
0.850002
0.0605084
-0.0500352
-0.643602
0.633128
0.0392342
-0.0277181
-0.39369
0.382174
0.019083
-0.0121469
-0.179389
0.172453
0.00773826
-0.00452919
-0.0543986
0.0511895
0.00246438
-0.0010109
-0.00417134
0.00271785
0.000252665
0.0027375
-0.00299017
-0.081025
0.0782271
0.00279788
-0.00503255
0.0025316
-0.400318
0.402819
0.0019745
-0.00653362
-0.561807
0.566366
0.0117104
-0.0174417
-0.694878
0.70061
0.0246724
-0.031491
-0.816129
0.822947
0.0389352
-0.045577
-0.940355
0.946997
0.0527581
-0.0587512
-1.08121
1.0872
0.0650847
-0.0697556
-1.24085
1.24552
0.0741601
-0.0769966
-1.42027
1.42311
0.0784906
-0.0777943
-1.6231
1.6224
0.0754229
-0.0714918
-1.55619
1.55226
0.0667663
-0.0608399
-1.26228
1.25636
0.0552674
-0.0491861
-1.0363
1.03022
0.0432175
-0.0367714
-0.839936
0.83349
0.0298701
-0.0218342
-0.619755
0.611719
0.0147266
-0.00866274
-0.369657
0.363593
0.00512122
-0.00297825
-0.164605
0.162462
0.0018548
-0.00125454
-0.0471825
0.0465822
0.000781422
-0.000392848
-0.000794676
0.000406101
0.000110921
0.00347351
-0.00358443
-0.079501
0.0770277
0.00247324
-0.00627065
0.00536526
-0.409438
0.410343
-0.00200062
-0.00136922
-0.573958
0.577327
0.00548352
-0.0106577
-0.707591
0.712765
0.0167174
-0.022695
-0.829048
0.835025
0.0291221
-0.0348727
-0.953145
0.958896
0.041003
-0.0462911
-1.09303
1.09832
0.0515847
-0.0557734
-1.25001
1.25419
0.0593876
-0.0615401
-1.4255
1.42765
0.0623175
-0.0610073
-1.62144
1.62013
0.0580823
-0.0534263
-1.54754
1.54288
0.0482688
-0.0420226
-1.25019
1.24394
0.0360155
-0.0292631
-1.023
1.01625
0.0229975
-0.0163329
-0.82391
0.817246
0.0104567
-0.00428996
-0.601259
0.595092
-9.12457e-05
0.00264894
-0.355544
0.352986
-0.00329698
0.00288815
-0.158544
0.158953
-0.00209451
0.00118465
-0.0452404
0.0461503
-0.000576166
0.000147171
0.000370146
5.88495e-05
-1.61282e-05
0.00388746
-0.00387133
-0.07808
0.0759647
0.00211524
-0.00623091
0.00583746
-0.41567
0.416064
-0.00383921
0.00111138
-0.583301
0.586029
0.00289766
-0.00731863
-0.718326
0.722747
0.0125048
-0.0176702
-0.840195
0.84536
0.0233564
-0.0284765
-0.964261
0.969381
0.0340592
-0.0386594
-1.1033
1.1079
0.0433628
-0.0470528
-1.25806
1.26175
0.0501046
-0.0517793
-1.42947
1.43115
0.0520433
-0.0506809
-1.61864
1.61728
0.0473653
-0.0425477
-1.53769
1.53287
0.0371367
-0.0306495
-1.23738
1.23089
0.024666
-0.0175627
-1.00877
1.00167
0.011101
-0.00457215
-0.80838
0.801851
-0.000731388
0.00556227
-0.586576
0.581745
-0.00842628
0.00930621
-0.34762
0.34674
-0.00832738
0.00661747
-0.157678
0.159388
-0.0049223
0.00306262
-0.0465055
0.0483652
-0.00169262
0.000636936
-0.000264683
0.00132037
-0.000147487
0.00394127
-0.00379378
-0.0769919
0.0753408
0.00165101
-0.00539361
0.00533997
-0.420277
0.42033
-0.00369788
0.00165936
-0.591441
0.593479
0.0020849
-0.00609039
-0.727598
0.731603
0.0109918
-0.0154206
-0.850133
0.854562
0.0203931
-0.0249127
-0.97444
0.978959
0.0301825
-0.0343251
-1.11251
1.11665
0.0384551
-0.0418801
-1.26522
1.26865
0.0449815
-0.0463868
-1.43278
1.43419
0.0465499
-0.044929
-1.61545
1.61383
0.0417991
-0.0366946
-1.52778
1.52268
0.0314661
-0.0251664
-1.22417
1.21787
0.0190881
-0.0122656
-0.994236
0.987414
0.00588128
0.000683106
-0.793495
0.78693
-0.00544356
0.00961777
-0.574275
0.570101
-0.0119284
0.0121167
-0.342864
0.342676
-0.0107625
0.00866778
-0.159403
0.161498
-0.0065669
0.00423237
-0.0497012
0.0520357
-0.00243723
0.000992281
-0.00218483
0.00362978
-0.000251918
0.00367559
-0.00342367
-0.0764065
0.0751166
0.00128999
-0.00432409
0.00440809
-0.423914
0.42383
-0.00290904
0.000978436
-0.598495
0.600426
0.0025587
-0.0061577
-0.735892
0.739491
0.0103365
-0.0145836
-0.858957
0.863205
0.0191547
-0.0237943
-0.983253
0.987893
0.0282955
-0.0322149
-1.12087
1.12479
0.0364262
-0.0395633
-1.27192
1.27505
0.0421146
-0.0438479
-1.43546
1.4372
0.0440745
-0.0426305
-1.61223
1.61079
0.039537
-0.0348638
-1.51775
1.51307
0.0298404
-0.0237478
-1.21124
1.20515
0.0179483
-0.011344
-0.980208
0.973604
0.00522089
0.000969218
-0.779239
0.773049
-0.00590162
0.0096253
-0.563229
0.559505
-0.0116742
0.0121726
-0.339569
0.339071
-0.0111448
0.00906493
-0.161902
0.163982
-0.00700048
0.00463013
-0.0536357
0.0560061
-0.00274823
0.00117179
-0.00480131
0.00637774
-0.000316585
0.00319911
-0.00288253
-0.0763627
0.0752887
0.00107401
-0.00302632
0.00286936
-0.42717
0.427327
-0.00157736
-0.000336283
-0.60495
0.606864
0.00361431
-0.00709137
-0.743582
0.747059
0.0110879
-0.014918
-0.867267
0.871097
0.0195897
-0.0234083
-0.991919
0.995737
0.0278545
-0.0315762
-1.12885
1.13257
0.0356378
-0.0389272
-1.27814
1.28143
0.0417239
-0.043188
-1.43866
1.44012
0.0436838
-0.0425579
-1.60924
1.60811
0.040032
-0.035578
-1.50827
1.50382
0.0308993
-0.0251386
-1.19916
1.1934
0.019698
-0.0133987
-0.966638
0.960339
0.00769954
-0.00162219
-0.765787
0.759709
-0.00325299
0.00701743
-0.553043
0.549279
-0.00914675
0.00988726
-0.336134
0.335393
-0.00949613
0.00802597
-0.164015
0.165485
-0.00638399
0.00434305
-0.0574991
0.05954
-0.00265088
0.00118098
-0.00757176
0.00904166
-0.000339547
0.00261057
-0.00227102
-0.0766171
0.0758641
0.000753043
-0.00186579
0.00122606
-0.43051
0.431149
-0.000111331
-0.0019169
-0.610663
0.612691
0.00487462
-0.00822069
-0.750732
0.754078
0.0120468
-0.0159996
-0.874812
0.878764
0.0200369
-0.0240072
-0.999746
1.00372
0.0283992
-0.0318931
-1.1367
1.1402
0.0360305
-0.0392567
-1.2845
1.28773
0.0420786
-0.0440451
-1.44198
1.44395
0.0449942
-0.044113
-1.60701
1.60612
0.0417661
-0.0379832
-1.49954
1.49575
0.0338284
-0.0284446
-1.18755
1.18217
0.0232974
-0.0176227
-0.953904
0.948229
0.0119227
-0.00628106
-0.752807
0.747165
0.00148779
0.00261994
-0.543209
0.539102
-0.00491551
0.00617683
-0.332119
0.330857
-0.00639033
0.00578638
-0.165164
0.165768
-0.00475792
0.00336153
-0.0605514
0.0619478
-0.00213146
0.000989291
-0.0100142
0.0111563
-0.000298254
0.00201433
-0.00171608
-0.077294
0.0767037
0.000590308
-0.000881743
0.000274601
-0.43408
0.434687
0.00138448
-0.00327538
-0.616468
0.618359
0.00641071
-0.0096338
-0.757374
0.760597
0.0133178
-0.0168668
-0.882402
0.885951
0.021025
-0.0246733
-1.00767
1.01132
0.0290044
-0.0329323
-1.14413
1.14806
0.036699
-0.0402455
-1.29098
1.29453
0.0434839
-0.0455316
-1.44579
1.44784
0.0468398
-0.0467084
-1.60545
1.60532
0.0447872
-0.0416151
-1.49184
1.48867
0.0377059
-0.0328565
-1.17689
1.17204
0.0282157
-0.0228046
-0.942126
0.936715
0.0175746
-0.0120846
-0.740581
0.735091
0.00731019
-0.00280413
-0.533112
0.528606
-5.46782e-05
0.0018836
-0.327195
0.325366
-0.00283406
0.00298486
-0.164821
0.16467
-0.00267257
0.00201983
-0.0622871
0.0629398
-0.001358
0.000673859
-0.0117558
0.01244
-0.000219652
0.00151983
-0.00130018
-0.0782581
0.077848
0.000410029
0.000195272
-0.000997391
-0.437819
0.438621
0.00253565
-0.00474038
-0.621892
0.624096
0.00781543
-0.0108916
-0.763777
0.766853
0.0146746
-0.0180784
-0.889486
0.89289
0.0220776
-0.0258461
-1.01543
1.0192
0.0300838
-0.0339745
-1.15182
1.15571
0.0379623
-0.0415387
-1.29798
1.30156
0.0449631
-0.0477609
-1.45016
1.45296
0.0495055
-0.0496624
-1.60511
1.60527
0.0484182
-0.0455904
-1.48539
1.48257
0.0422823
-0.0380458
-1.1672
1.16297
0.0335368
-0.0284421
-0.931023
0.925928
0.0234728
-0.0179998
-0.728851
0.723378
0.01328
-0.00840627
-0.522906
0.518033
0.00502867
-0.00236484
-0.321249
0.318585
0.000778403
0.000166786
-0.162897
0.161952
-0.000622636
0.000694617
-0.0625691
0.0624971
-0.00057547
0.000341887
-0.0125866
0.0128202
-0.000130399
0.00119325
-0.00106285