/*--------------------------------*- C++ -*----------------------------------*\
  =========                 |
  \\      /  F ield         | OpenFOAM: The Open Source CFD Toolbox
   \\    /   O peration     | Website:  https://openfoam.org
    \\  /    A nd           | Version:  6
     \\/     M anipulation  |
\*---------------------------------------------------------------------------*/
FoamFile
{
    version     2.0;
    format      ascii;
    class       volVectorField;
    location    "62";
    object      U;
}
// * * * * * * * * * * * * * * * * * * * * * * * * * * * * * * * * * * * * * //

dimensions      [0 1 -1 0 0 0 0];

internalField   nonuniform List<vector> 
8800
(
(0.987195 -0.0767055 0)
(1.0019 -0.0551771 0)
(0.999724 -0.0285501 0)
(1.00002 -0.0151539 0)
(1.00008 -0.00855653 0)
(1.00009 -0.00505822 0)
(1.00006 -0.00301231 0)
(1.00002 -0.00171057 0)
(0.999999 -0.000802752 0)
(1.00006 -8.53306e-05 0)
(0.999986 0.000644939 0)
(0.999994 0.00141103 0)
(1.00002 0.00243347 0)
(1.00005 0.00400542 0)
(1.00004 0.00663759 0)
(1.00001 0.0113772 0)
(0.999898 0.0208175 0)
(0.999151 0.0386583 0)
(1.0071 0.0724578 0)
(0.771226 0.0366897 0)
(0.363039 -0.0160156 0)
(1.04331 -0.076828 0)
(1.08461 -0.0704464 0)
(1.04522 -0.0535502 0)
(1.0233 -0.0389024 0)
(1.01202 -0.0262326 0)
(1.00642 -0.0168802 0)
(1.00359 -0.0103533 0)
(1.00215 -0.00569465 0)
(1.00145 -0.00203803 0)
(1.00132 0.00128677 0)
(1.00168 0.00466962 0)
(1.00266 0.00860437 0)
(1.00466 0.0139415 0)
(1.00861 0.0216455 0)
(1.01658 0.0326118 0)
(1.03249 0.0465281 0)
(1.06266 0.0616512 0)
(1.09189 0.0760848 0)
(0.838673 0.0565775 0)
(0.216818 -0.00242191 0)
(1.07587 -0.0501557 0)
(1.09986 -0.0483395 0)
(1.06462 -0.0404901 0)
(1.04 -0.033634 0)
(1.02389 -0.0261187 0)
(1.0141 -0.0185415 0)
(1.00855 -0.011725 0)
(1.00558 -0.00585887 0)
(1.00433 -0.000441372 0)
(1.00467 0.00480658 0)
(1.0066 0.0101989 0)
(1.0106 0.0162944 0)
(1.01794 0.0233205 0)
(1.03053 0.0307874 0)
(1.05061 0.037825 0)
(1.08032 0.0445195 0)
(1.10625 0.0513415 0)
(0.942534 0.041611 0)
(0.216162 0.00245212 0)
(0.175138 -0.000815152 0)
(1.01764 -0.0355027 0)
(1.10517 -0.0414102 0)
(1.07823 -0.0361017 0)
(1.05342 -0.0301759 0)
(1.03616 -0.0246085 0)
(1.02397 -0.0188853 0)
(1.01586 -0.012808 0)
(1.011 -0.00662154 0)
(1.00881 -0.000286981 0)
(1.00939 0.00597056 0)
(1.01264 0.0119726 0)
(1.01886 0.0178139 0)
(1.02877 0.0233929 0)
(1.0432 0.028698 0)
(1.06372 0.0341881 0)
(1.09354 0.040178 0)
(1.09341 0.0419455 0)
(0.827186 0.0229049 0)
(0.174031 0.000849699 0)
(0.153919 -0.000610383 0)
(0.956086 -0.0254806 0)
(1.10341 -0.0351666 0)
(1.08763 -0.0327 0)
(1.06167 -0.0280569 0)
(1.04406 -0.0230442 0)
(1.0316 -0.0178055 0)
(1.02276 -0.0122787 0)
(1.01695 -0.0063448 0)
(1.01411 0.000124507 0)
(1.0148 0.00658972 0)
(1.01877 0.0124782 0)
(1.0258 0.017781 0)
(1.03611 0.0227027 0)
(1.05067 0.0274656 0)
(1.07191 0.0320052 0)
(1.10007 0.0359466 0)
(1.0681 0.0340131 0)
(0.739602 0.0143063 0)
(0.152252 0.000649569 0)
(0.139529 -0.000467233 0)
(0.899129 -0.0191025 0)
(1.0957 -0.0301257 0)
(1.09568 -0.0292476 0)
(1.06918 -0.0255266 0)
(1.05075 -0.0213986 0)
(1.03783 -0.0166359 0)
(1.02872 -0.0113571 0)
(1.02262 -0.00561728 0)
(1.0195 0.000709201 0)
(1.02013 0.00702408 0)
(1.02422 0.0126656 0)
(1.03137 0.0176406 0)
(1.04191 0.0221105 0)
(1.05703 0.0260826 0)
(1.07923 0.029558 0)
(1.10228 0.0321911 0)
(1.03603 0.0280999 0)
(0.673061 0.0102042 0)
(0.137175 0.000512423 0)
(0.128968 -0.000362191 0)
(0.849474 -0.0147436 0)
(1.08327 -0.0260015 0)
(1.10134 -0.0263096 0)
(1.07602 -0.0230364 0)
(1.05706 -0.0194052 0)
(1.04368 -0.0151717 0)
(1.03422 -0.0102581 0)
(1.02788 -0.00473115 0)
(1.02457 0.00141633 0)
(1.02506 0.00751981 0)
(1.02911 0.0128854 0)
(1.03637 0.0174506 0)
(1.04719 0.0213158 0)
(1.06272 0.0246267 0)
(1.08536 0.0275865 0)
(1.1014 0.0293499 0)
(1.00113 0.0235835 0)
(0.621252 0.00784053 0)
(0.125779 0.000415373 0)
(0.120905 -0.000281785 0)
(0.80726 -0.0115892 0)
(1.06795 -0.0223998 0)
(1.10484 -0.023685 0)
(1.08225 -0.0208268 0)
(1.06287 -0.0174112 0)
(1.04922 -0.0134874 0)
(1.03949 -0.00891536 0)
(1.03287 -0.0036637 0)
(1.02932 0.00226417 0)
(1.02963 0.00812021 0)
(1.03363 0.0131397 0)
(1.04096 0.0172363 0)
(1.05189 0.020593 0)
(1.06763 0.0234941 0)
(1.09061 0.0261597 0)
(1.09763 0.0270299 0)
(0.965887 0.0200419 0)
(0.579621 0.00630629 0)
(0.1167 0.000345031 0)
(0.11465 -0.000218812 0)
(0.77171 -0.00923041 0)
(1.05113 -0.0192304 0)
(1.1072 -0.0212589 0)
(1.0881 -0.0187727 0)
(1.06834 -0.0155035 0)
(1.05444 -0.0117457 0)
(1.04452 -0.00738737 0)
(1.03765 -0.00237924 0)
(1.03383 0.00329273 0)
(1.03393 0.00884718 0)
(1.0378 0.0134902 0)
(1.04507 0.0171716 0)
(1.056 0.0201391 0)
(1.07194 0.0227175 0)
(1.09458 0.0250448 0)
(1.09103 0.0251039 0)
(0.931595 0.0173084 0)
(0.545157 0.00525896 0)
(0.109211 0.000294423 0)
(0.109769 -0.000168158 0)
(0.741882 -0.0074 0)
(1.03387 -0.0164217 0)
(1.1086 -0.0189739 0)
(1.09365 -0.0167972 0)
(1.07361 -0.0136217 0)
(1.05945 -0.00995608 0)
(1.04934 -0.00572354 0)
(1.04225 -0.000895243 0)
(1.03814 0.00453165 0)
(1.03796 0.00977043 0)
(1.0416 0.0140519 0)
(1.04873 0.0173671 0)
(1.05964 0.0199871 0)
(1.07577 0.0222776 0)
(1.09727 0.0242323 0)
(1.082 0.023524 0)
(0.898816 0.0152328 0)
(0.515808 0.00452946 0)
(0.102832 0.000258936 0)
(0.105978 -0.000126078 0)
(0.716957 -0.005924 0)
(1.017 -0.0139022 0)
(1.10917 -0.016766 0)
(1.09911 -0.0148654 0)
(1.0788 -0.011702 0)
(1.06435 -0.0080707 0)
(1.05402 -0.00390577 0)
(1.04668 0.000802426 0)
(1.04225 0.00601957 0)
(1.0417 0.0109576 0)
(1.04504 0.0148994 0)
(1.05199 0.0178707 0)
(1.06285 0.0201521 0)
(1.07915 0.0221793 0)
(1.09862 0.0237369 0)
(1.07091 0.0222903 0)
(0.867667 0.0136999 0)
(0.490122 0.00402777 0)
(0.0972206 0.000235564 0)
(0.10309 -8.96009e-05 0)
(0.696293 -0.00468617 0)
(1.00113 -0.011604 0)
(1.10905 -0.0145998 0)
(1.1044 -0.0128938 0)
(1.08399 -0.00969931 0)
(1.06923 -0.00604535 0)
(1.05863 -0.00188874 0)
(1.05099 0.00275247 0)
(1.04617 0.00781038 0)
(1.04518 0.0124842 0)
(1.04815 0.0161011 0)
(1.05487 0.0187338 0)
(1.06566 0.0206809 0)
(1.08209 0.0224493 0)
(1.09899 0.0235975 0)
(1.05805 0.0214075 0)
(0.837986 0.0126184 0)
(0.467012 0.00369801 0)
(0.092118 0.000221781 0)
(0.100984 -5.60505e-05 0)
(0.679418 -0.00359935 0)
(0.986707 -0.00945612 0)
(1.10847 -0.0123864 0)
(1.10951 -0.0107956 0)
(1.08926 -0.00754254 0)
(1.07415 -0.00380702 0)
(1.06324 0.000400615 0)
(1.05523 0.00503141 0)
(1.04992 0.00997565 0)
(1.0484 0.014411 0)
(1.05092 0.0177126 0)
(1.05737 0.0200051 0)
(1.06807 0.0216071 0)
(1.08454 0.0231072 0)
(1.09835 0.0238423 0)
(1.04357 0.0208947 0)
(0.809449 0.0119183 0)
(0.445629 0.00350277 0)
(0.0873234 0.000215793 0)
(0.0995998 -2.31664e-05 0)
(0.666031 -0.00259406 0)
(0.974099 -0.00738428 0)
(1.10773 -0.010071 0)
(1.11457 -0.00851596 0)
(1.09468 -0.00516533 0)
(1.0792 -0.00128868 0)
(1.06791 0.00303661 0)
(1.05944 0.00771945 0)
(1.05353 0.0125967 0)
(1.05137 0.0168163 0)
(1.05337 0.0198084 0)
(1.05949 0.021756 0)
(1.07006 0.0229973 0)
(1.08653 0.0242274 0)
(1.09647 0.0245068 0)
(1.02754 0.0207326 0)
(0.781631 0.0115423 0)
(0.425277 0.00341597 0)
(0.0826736 0.000216 0)
(0.0989214 1.12702e-05 0)
(0.65598 -0.0016153 0)
(0.963611 -0.00531531 0)
(1.10716 -0.0075889 0)
(1.11971 -0.00597882 0)
(1.10034 -0.00247888 0)
(1.08444 0.00160562 0)
(1.0727 0.00611463 0)
(1.06367 0.0109116 0)
(1.05704 0.0157732 0)
(1.0541 0.0197988 0)
(1.05546 0.0224762 0)
(1.06119 0.0240604 0)
(1.07161 0.0249187 0)
(1.08798 0.0258455 0)
(1.09331 0.0256185 0)
(1.00993 0.0209538 0)
(0.754072 0.0114642 0)
(0.405382 0.0034237 0)
(0.078036 0.000221871 0)
(0.0989696 4.45786e-05 0)
(0.649239 -0.00061563 0)
(0.955547 -0.00317649 0)
(1.1071 -0.00487069 0)
(1.12509 -0.0030937 0)
(1.10633 0.000626685 0)
(1.08997 0.00499174 0)
(1.07769 0.00975742 0)
(1.06797 0.0147366 0)
(1.06047 0.0196236 0)
(1.05659 0.0234624 0)
(1.0572 0.0258113 0)
(1.06245 0.0270164 0)
(1.07269 0.027478 0)
(1.08867 0.028036 0)
(1.08866 0.0271893 0)
(0.990594 0.0215922 0)
(0.726243 0.0116667 0)
(0.385415 0.00351785 0)
(0.0732888 0.000232807 0)
(0.0997827 8.45579e-05 0)
(0.645885 0.000419777 0)
(0.950223 -0.000894094 0)
(1.10791 -0.00183563 0)
(1.13092 0.000228564 0)
(1.11277 0.00425335 0)
(1.0959 0.00898492 0)
(1.08297 0.0140951 0)
(1.07242 0.0193293 0)
(1.06386 0.0242947 0)
(1.05885 0.027963 0)
(1.05854 0.0299571 0)
(1.06323 0.0307581 0)
(1.07324 0.0307925 0)
(1.08846 0.0309275 0)
(1.08226 0.0293207 0)
(0.969267 0.0226669 0)
(0.697575 0.0121386 0)
(0.364887 0.00369016 0)
(0.068325 0.000248044 0)
(0.101571 0.000144844 0)
(0.646313 0.0015772 0)
(0.948003 0.00161639 0)
(1.11003 0.00162718 0)
(1.13738 0.00411563 0)
(1.11979 0.00855668 0)
(1.10233 0.0137519 0)
(1.08862 0.0192968 0)
(1.07706 0.0248653 0)
(1.06721 0.0299567 0)
(1.06085 0.0334633 0)
(1.05946 0.0350612 0)
(1.06348 0.0354139 0)
(1.0732 0.0349795 0)
(1.08711 0.0346223 0)
(1.07385 0.032091 0)
(0.945577 0.0242298 0)
(0.667456 0.0128797 0)
(0.343333 0.00393715 0)
(0.0630481 0.000267116 0)
(0.104384 0.000206198 0)
(0.650897 0.00299648 0)
(0.949336 0.00450504 0)
(1.11393 0.00565255 0)
(1.14472 0.008714 0)
(1.12755 0.0137172 0)
(1.10941 0.0194969 0)
(1.09474 0.0255861 0)
(1.08193 0.031567 0)
(1.07052 0.0368081 0)
(1.06254 0.0401162 0)
(1.05991 0.041259 0)
(1.06312 0.0411344 0)
(1.07249 0.040172 0)
(1.08446 0.0392899 0)
(1.06308 0.0356055 0)
(0.919016 0.0263085 0)
(0.635217 0.0138836 0)
(0.320303 0.00425029 0)
(0.0573734 0.000288972 0)
(0.108505 0.000288205 0)
(0.660118 0.00466748 0)
(0.954708 0.00791857 0)
(1.12013 0.0104028 0)
(1.15323 0.0142248 0)
(1.13628 0.0199601 0)
(1.11729 0.0264684 0)
(1.10143 0.0332271 0)
(1.08707 0.0397 0)
(1.07376 0.0451055 0)
(1.06389 0.0481554 0)
(1.05982 0.0487667 0)
(1.06207 0.0480945 0)
(1.071 0.0465449 0)
(1.08057 0.0450297 0)
(1.04948 0.0399612 0)
(0.88894 0.028945 0)
(0.600139 0.0151377 0)
(0.295375 0.00461815 0)
(0.0512369 0.000312132 0)
(0.114275 0.000400051 0)
(0.674785 0.00676743 0)
(0.964798 0.012058 0)
(1.12918 0.0161159 0)
(1.16324 0.0209233 0)
(1.14621 0.0276277 0)
(1.12616 0.0350274 0)
(1.10881 0.0425766 0)
(1.09253 0.0495972 0)
(1.07692 0.0551352 0)
(1.06481 0.0578171 0)
(1.05903 0.0577612 0)
(1.06024 0.0564712 0)
(1.0687 0.0542645 0)
(1.07518 0.0520227 0)
(1.03246 0.0452413 0)
(0.854562 0.0321343 0)
(0.561483 0.0166052 0)
(0.268189 0.00501847 0)
(0.0446049 0.000334254 0)
(0.122212 0.000555203 0)
(0.695812 0.00951211 0)
(0.980465 0.0172296 0)
(1.14176 0.0231266 0)
(1.17524 0.0291942 0)
(1.15766 0.0371701 0)
(1.13621 0.0456495 0)
(1.11694 0.0541024 0)
(1.09826 0.0616738 0)
(1.07988 0.067221 0)
(1.06517 0.069339 0)
(1.05745 0.0684535 0)
(1.05752 0.0664173 0)
(1.06546 0.0634531 0)
(1.06796 0.0602814 0)
(1.01123 0.0515162 0)
(0.814961 0.0358466 0)
(0.518523 0.0182212 0)
(0.238497 0.00541863 0)
(0.037492 0.000352271 0)
(0.133047 0.000780825 0)
(0.724513 0.0132871 0)
(1.00287 0.0239024 0)
(1.15866 0.0319845 0)
(1.18985 0.0396372 0)
(1.17098 0.0492453 0)
(1.14761 0.058994 0)
(1.12582 0.0684046 0)
(1.10413 0.0764168 0)
(1.08244 0.0817311 0)
(1.06478 0.0829909 0)
(1.05495 0.0810539 0)
(1.05381 0.0781132 0)
(1.06102 0.0742415 0)
(1.05821 0.0700246 0)
(0.984806 0.0587758 0)
(0.76911 0.0399804 0)
(0.470641 0.0198689 0)
(0.206245 0.00577002 0)
(0.0299781 0.000362195 0)
(0.148033 0.0011346 0)
(0.762866 0.0187196 0)
(1.03366 0.0328558 0)
(1.18082 0.0436179 0)
(1.20781 0.0533474 0)
(1.1865 0.064912 0)
(1.1604 0.0760391 0)
(1.13526 0.086289 0)
(1.10984 0.0944175 0)
(1.08432 0.0990351 0)
(1.06342 0.0989899 0)
(1.05136 0.0957117 0)
(1.04895 0.0917015 0)
(1.05499 0.0869884 0)
(1.04527 0.0811959 0)
(0.951901 0.0669268 0)
(0.71598 0.0443154 0)
(0.417499 0.0213707 0)
(0.171693 0.00600764 0)
(0.0222302 0.000359437 0)
(0.169335 0.00174771 0)
(0.814085 0.0269362 0)
(1.0754 0.04562 0)
(1.20939 0.0598743 0)
(1.2298 0.0724246 0)
(1.20429 0.0858064 0)
(1.17431 0.098116 0)
(1.14486 0.108706 0)
(1.11497 0.116274 0)
(1.08513 0.119455 0)
(1.06079 0.117499 0)
(1.04649 0.112512 0)
(1.04284 0.107241 0)
(1.04737 0.101588 0)
(1.02809 0.0937663 0)
(0.910979 0.0756387 0)
(0.654782 0.0485039 0)
(0.359367 0.0224883 0)
(0.135588 0.00605656 0)
(0.0145258 0.000338886 0)
(0.200284 0.00309276 0)
(0.883875 0.0405145 0)
(1.13176 0.0659641 0)
(1.24478 0.0843522 0)
(1.25549 0.0995909 0)
(1.22371 0.114263 0)
(1.18848 0.126831 0)
(1.15375 0.13663 0)
(1.1188 0.142509 0)
(1.08434 0.143242 0)
(1.05651 0.138606 0)
(1.04008 0.131467 0)
(1.03532 0.124682 0)
(1.03777 0.117892 0)
(1.00529 0.107468 0)
(0.860226 0.0843314 0)
(0.585491 0.0520135 0)
(0.297831 0.0230126 0)
(0.0995433 0.00587198 0)
(0.00732862 0.000294073 0)
(0.242522 0.00924187 3.16902e-20)
(0.976228 0.0673476 2.79523e-20)
(1.20038 0.100388 -9.9373e-21)
(1.28381 0.120778 0)
(1.28202 0.138478 -2.70787e-34)
(1.24259 0.152641 4.00386e-21)
(1.20137 0.163685 -7.47807e-21)
(1.16086 0.171267 0)
(1.12048 0.174383 1.59405e-34)
(1.08111 0.171867 -9.79217e-21)
(1.04959 0.164045 0)
(1.03087 0.154529 -1.18651e-20)
(1.02513 0.146322 -3.51558e-20)
(1.02479 0.139121 -1.66637e-20)
(0.973119 0.124883 -5.03902e-21)
(0.794039 0.0944812 -2.99932e-21)
(0.502866 0.055266 0)
(0.231326 0.0233192 2.09901e-21)
(0.0636708 0.00574376 2.47804e-21)
(0.000628686 0.000233925 4.4632e-20)
(0.271806 0.0242835 1.94919e-20)
(1.05266 0.109722 5.37043e-22)
(1.25702 0.149433 2.47221e-21)
(1.31871 0.169783 0)
(1.30525 0.187746 -1.31842e-20)
(1.2587 0.199769 -1.53268e-20)
(1.21152 0.208498 -7.41075e-21)
(1.16515 0.21359 -2.72474e-20)
(1.11913 0.213924 0)
(1.07443 0.20822 4.16092e-20)
(1.03867 0.197265 4.17195e-20)
(1.01731 0.18535 1.24915e-20)
(1.00942 0.17518 4.5996e-20)
(1.00135 0.165121 6.50605e-20)
(0.923089 0.145122 0)
(0.705331 0.105586 9.19958e-20)
(0.406264 0.0587634 1.31974e-19)
(0.162208 0.0231283 1.46563e-19)
(0.0281283 0.00446758 -1.67532e-19)
(-0.00609021 -0.000417441 -3.15088e-21)
(0.273228 0.040936 0)
(1.10126 0.164568 2.49353e-21)
(1.29529 0.209435 0)
(1.34585 0.229503 -1.46087e-20)
(1.3234 0.24479 0)
(1.27087 0.252927 -2.90693e-20)
(1.21811 0.257909 1.49096e-20)
(1.16619 0.259401 -5.38885e-20)
(1.11476 0.256121 -1.58831e-21)
(1.06496 0.246627 2.13627e-20)
(1.0252 0.232125 9.2197e-20)
(1.00127 0.217547 -2.36125e-22)
(0.991001 0.205251 -3.35151e-20)
(0.975129 0.192028 -6.14862e-20)
(0.87802 0.165696 7.28813e-20)
(0.642427 0.116642 -1.29156e-19)
(0.350882 0.0620787 -1.70738e-20)
(0.127269 0.0227086 0)
(0.0108101 0.00260703 -1.19177e-23)
(-0.00962417 -0.00129446 0)
(0.266801 0.0549604 8.75415e-21)
(1.12754 0.223075 -7.91502e-21)
(1.31891 0.273959 -1.08127e-20)
(1.36375 0.29454 6.2652e-21)
(1.33507 0.306173 -1.08802e-20)
(1.27806 0.309784 6.03555e-20)
(1.22068 0.310347 3.0847e-20)
(1.16392 0.30759 0)
(1.10766 0.300123 -1.04855e-19)
(1.0532 0.286352 0)
(1.00967 0.267983 -4.8201e-20)
(0.983224 0.250573 -6.04109e-20)
(0.970529 0.235906 -3.65987e-20)
(0.948425 0.219103 -4.47692e-20)
(0.84099 0.186514 0)
(0.602292 0.12915 0)
(0.322862 0.0679019 -1.11364e-19)
(0.111673 0.0236555 2.20111e-20)
(0.002403 0.000879644 -1.28704e-20)
(-0.0118669 -0.00227715 -1.50508e-20)
(0.259173 0.0673098 1.44106e-20)
(1.13911 0.281518 0)
(1.33185 0.339491 1.28295e-20)
(1.37343 0.361046 1.54505e-20)
(1.34037 0.369011 2.67142e-20)
(1.28009 0.368115 0)
(1.21911 0.364152 2.91798e-20)
(1.15839 0.356949 5.90363e-20)
(1.09799 0.345056 5.3098e-20)
(1.03934 0.326804 1.01292e-19)
(0.992266 0.304418 0)
(0.963315 0.283976 -1.30481e-19)
(0.948259 0.266888 -7.92047e-20)
(0.921483 0.246602 -4.69899e-20)
(0.810096 0.208596 2.89631e-19)
(0.576924 0.143901 3.44931e-20)
(0.310577 0.0762486 1.61797e-19)
(0.108412 0.0262147 -7.66274e-19)
(0.000450081 -0.00010247 4.53078e-19)
(-0.012924 -0.00316841 -5.45833e-19)
(0.251881 0.0784151 2.9426e-20)
(1.14135 0.338014 -3.29113e-21)
(1.33711 0.404193 9.12527e-22)
(1.37653 0.427099 -8.31896e-21)
(1.3403 0.431584 -1.8247e-20)
(1.27755 0.42636 1.81169e-21)
(1.21374 0.418017 -3.17917e-20)
(1.14975 0.406461 6.04174e-20)
(1.08576 0.390159 -1.14503e-19)
(1.02339 0.367407 0)
(0.97303 0.340943 -5.87258e-20)
(0.941634 0.317415 -1.61268e-21)
(0.924252 0.297842 -8.70366e-20)
(0.894212 0.274368 0)
(0.783259 0.231533 -6.29199e-20)
(0.56023 0.160574 -1.49608e-19)
(0.30772 0.0869325 3.98469e-19)
(0.112125 0.030632 -3.92723e-19)
(0.00341946 0.000191829 5.57538e-19)
(-0.0126843 -0.0037626 -5.79302e-19)
(0.245745 0.0886817 -5.07912e-22)
(1.1378 0.391903 7.9777e-21)
(1.33686 0.467041 1.44739e-20)
(1.37451 0.491533 -1.1297e-22)
(1.3359 0.492869 -8.54592e-21)
(1.27127 0.483584 0)
(1.20516 0.471109 -2.78159e-20)
(1.13843 0.455404 -6.28492e-20)
(1.07136 0.434845 -5.90679e-20)
(1.00565 0.407677 0)
(0.952254 0.377247 -6.06188e-20)
(0.918497 0.350707 -7.62854e-20)
(0.898911 0.328683 9.47134e-20)
(0.866597 0.302284 -5.78637e-20)
(0.75849 0.254855 -2.76182e-19)
(0.547045 0.178784 1.64248e-19)
(0.3083 0.0991049 4.87441e-20)
(0.119163 0.0367608 0)
(0.00938448 0.00191286 -5.4154e-19)
(-0.0114478 -0.00396615 -1.98874e-20)
(0.240897 0.0984415 7.48302e-21)
(1.13079 0.44303 -1.13458e-20)
(1.33258 0.527484 -9.11644e-21)
(1.36858 0.553658 4.65133e-21)
(1.32812 0.552216 -2.49515e-20)
(1.26207 0.539209 4.71584e-20)
(1.1941 0.522899 6.01737e-20)
(1.12504 0.503305 -1.00339e-19)
(1.05523 0.478714 3.78616e-20)
(0.986436 0.447305 -2.49648e-19)
(0.930218 0.413052 -6.93314e-20)
(0.894238 0.383579 0)
(0.872599 0.359201 1.03096e-19)
(0.838506 0.329976 1.24268e-19)
(0.734109 0.278375 1.49164e-19)
(0.534397 0.197681 -1.7924e-19)
(0.309355 0.112155 -5.3077e-20)
(0.126591 0.0442752 6.22616e-20)
(0.0165292 0.00479593 0)
(-0.00963604 -0.00380159 -4.33612e-20)
(0.237222 0.107796 -1.03007e-19)
(1.12194 0.491466 6.02027e-20)
(1.32556 0.585448 1.14937e-20)
(1.35975 0.613113 -2.0008e-21)
(1.31781 0.609216 -7.16566e-21)
(1.25066 0.592835 -4.11113e-21)
(1.18115 0.573047 -6.65123e-20)
(1.11005 0.549873 -3.65145e-20)
(1.03777 0.521504 -1.03119e-19)
(0.96616 0.48609 3.1874e-22)
(0.907284 0.448117 -2.16365e-19)
(0.869233 0.415775 1.86068e-19)
(0.845719 0.389063 -1.13945e-19)
(0.810174 0.357184 1.37784e-19)
(0.709216 0.301545 0)
(0.520469 0.21662 -9.78298e-20)
(0.308056 0.125529 1.68718e-22)
(0.132716 0.0524984 -2.73071e-19)
(0.0234469 0.00840826 -4.00413e-20)
(-0.00759056 -0.00335392 0)
(0.234617 0.116974 0)
(1.11224 0.537424 6.80069e-20)
(1.31661 0.641048 3.61874e-20)
(1.34883 0.669721 6.9167e-21)
(1.30562 0.663642 -1.4329e-20)
(1.23762 0.644243 0)
(1.16683 0.621335 -2.76334e-20)
(1.09396 0.59491 -1.06729e-21)
(1.01944 0.563065 2.21307e-19)
(0.94517 0.523878 -3.40201e-20)
(0.883738 0.482298 -1.56688e-19)
(0.843712 0.447104 9.63379e-20)
(0.818507 0.418169 -2.23972e-21)
(0.78156 0.383564 1.46603e-19)
(0.683123 0.324044 9.09348e-20)
(0.504772 0.234663 -2.1166e-19)
(0.30365 0.138538 2.50756e-19)
(0.136001 0.0605833 7.43084e-20)
(0.0288288 0.0121673 3.06061e-19)
(-0.00569628 -0.00276894 -8.17291e-19)
(0.233002 0.126099 -3.15358e-20)
(1.10233 0.581087 4.44758e-20)
(1.3063 0.693838 -3.16914e-20)
(1.33645 0.723426 -1.56089e-20)
(1.29214 0.715391 0)
(1.22347 0.693303 -1.58939e-20)
(1.15161 0.667631 9.55987e-20)
(1.07716 0.638295 7.89823e-20)
(1.00056 0.603286 0)
(0.923724 0.560578 -4.94359e-19)
(0.859794 0.515499 4.25217e-19)
(0.817906 0.477546 0)
(0.791105 0.446318 1.33833e-19)
(0.752794 0.408865 -2.23884e-21)
(0.656282 0.345158 -2.91388e-19)
(0.486862 0.251125 1.1395e-19)
(0.296161 0.150283 0)
(0.135812 0.067752 4.01565e-19)
(0.0319544 0.0154078 0)
(-0.00423019 -0.00222469 -3.8784e-19)
(0.232199 0.13522 3.70224e-20)
(1.09263 0.622635 5.55939e-20)
(1.29507 0.743857 -3.21003e-20)
(1.32312 0.774243 0)
(1.27782 0.764446 -3.98615e-21)
(1.20861 0.739976 0)
(1.13584 0.711862 -8.981e-20)
(1.05998 0.67995 -3.46587e-20)
(0.981416 0.642109 3.81987e-20)
(0.902083 0.596145 -2.44772e-19)
(0.835653 0.547728 4.36351e-20)
(0.791937 0.50704 0)
(0.763618 0.473304 -2.85961e-19)
(0.723907 0.432704 2.1898e-21)
(0.628687 0.364461 0)
(0.466825 0.265424 1.27442e-21)
(0.285557 0.159937 3.68055e-19)
(0.132473 0.0731375 -3.47442e-19)
(0.0326314 0.0176036 1.02485e-19)
(-0.00333639 -0.00185899 0)
(0.231868 0.144237 0)
(1.0833 0.662178 6.57111e-20)
(1.28334 0.791202 4.36892e-20)
(1.30923 0.822237 -2.52077e-21)
(1.26304 0.810834 5.12432e-21)
(1.1934 0.784261 -3.49754e-20)
(1.11984 0.754009 3.48248e-20)
(1.04269 0.719839 -4.26681e-20)
(0.962285 0.679499 1.72836e-19)
(0.880459 0.630577 -3.91369e-19)
(0.811472 0.579012 -4.02656e-21)
(0.765889 0.535498 -1.24045e-19)
(0.736064 0.498975 4.65101e-19)
(0.694894 0.454873 -2.59393e-21)
(0.600464 0.381598 -2.26958e-19)
(0.444977 0.277195 -4.0442e-19)
(0.272245 0.167158 0)
(0.126387 0.0764764 0)
(0.0313795 0.0185633 1.10761e-19)
(-0.00293752 -0.00173327 -6.49958e-20)
(0.232115 0.153272 5.04616e-20)
(1.07455 0.699571 -1.48183e-19)
(1.27137 0.835963 -4.69406e-20)
(1.29508 0.86749 0)
(1.24806 0.854612 -1.5523e-21)
(1.1781 0.826189 -2.37595e-20)
(1.10387 0.794081 7.86262e-20)
(1.02555 0.75795 1.62436e-19)
(0.943372 0.715446 2.22877e-19)
(0.859052 0.663899 -3.18608e-19)
(0.787398 0.609383 -3.66502e-19)
(0.739802 0.562895 3.31961e-19)
(0.708455 0.523308 0)
(0.665704 0.475185 -1.03138e-19)
(0.571589 0.396265 -2.45737e-19)
(0.421262 0.286141 -2.91e-19)
(0.256602 0.171581 -3.43946e-19)
(0.11787 0.077617 1.0162e-19)
(0.0285731 0.0183883 -5.96406e-20)
(-0.00290867 -0.00180541 2.91331e-22)
(0.23264 0.162129 0)
(1.06644 0.735356 0)
(1.25935 0.878232 2.56305e-21)
(1.28087 0.910102 0)
(1.23313 0.895866 -3.20508e-20)
(1.16292 0.86582 9.01235e-21)
(1.08812 0.832105 0)
(1.00873 0.794296 1.82377e-20)
(0.924861 0.749949 3.69322e-19)
(0.838042 0.696143 -7.33456e-19)
(0.763554 0.638884 0)
(0.713721 0.589313 -2.13971e-19)
(0.680712 0.546339 -3.05219e-21)
(0.636207 0.493469 -2.36411e-21)
(0.542147 0.408179 2.62978e-19)
(0.396265 0.291976 -1.24351e-22)
(0.239126 0.173137 -7.41413e-19)
(0.107527 0.0765966 2.18713e-19)
(0.0245511 0.0171535 6.46375e-20)
(-0.00311189 -0.00202397 0)
(0.233288 0.170836 -1.97962e-19)
(1.05873 0.76949 -9.77248e-20)
(1.24736 0.918071 -1.32291e-19)
(1.26679 0.950178 1.4478e-19)
(1.21842 0.93467 -7.29253e-20)
(1.14803 0.903214 0)
(1.07275 0.868123 4.30456e-20)
(0.992386 0.828899 -4.15159e-20)
(0.906906 0.783026 3.93437e-21)
(0.817589 0.727341 5.44825e-20)
(0.74006 0.667578 4.74413e-19)
(0.687689 0.614937 -7.49008e-20)
(0.65272 0.568155 -2.87332e-19)
(0.606239 0.509531 -1.20471e-19)
(0.512155 0.416982 1.42999e-19)
(0.370575 0.294487 5.83208e-23)
(0.220402 0.171707 1.99792e-19)
(0.096167 0.073541 -4.7078e-19)
(0.0200388 0.015093 5.56474e-19)
(-0.00343495 -0.00234293 8.11202e-20)
(0.23376 0.179315 7.47689e-20)
(1.05143 0.802063 -5.47815e-20)
(1.23555 0.955597 6.33177e-21)
(1.25298 0.987827 8.94135e-20)
(1.20406 0.971131 2.24517e-20)
(1.13354 0.938443 -8.2615e-21)
(1.05788 0.902185 9.86474e-21)
(0.976644 0.861781 -1.70949e-19)
(0.889639 0.814678 -4.02688e-19)
(0.797827 0.757501 -4.3535e-19)
(0.717057 0.695552 0)
(0.661758 0.639979 -3.30607e-19)
(0.624348 0.588872 4.15032e-19)
(0.575521 0.52323 0)
(0.481536 0.4223 -3.06403e-19)
(0.344728 0.29329 1.82528e-19)
(0.201734 0.167174 -2.14894e-19)
(0.0850713 0.0688077 -2.53392e-19)
(0.0157087 0.0125834 -4.48283e-19)
(-0.00377451 -0.00269681 -3.49535e-19)
(0.234577 0.187661 -8.40246e-20)
(1.04438 0.833057 5.8601e-20)
(1.22399 0.990867 1.35276e-19)
(1.23952 1.02312 1.28446e-19)
(1.19015 1.00535 -4.38693e-20)
(1.11957 0.971593 4.91089e-21)
(1.0436 0.934341 3.48149e-20)
(0.96159 0.892984 -1.72088e-19)
(0.873148 0.844928 -2.37423e-19)
(0.778878 0.786638 4.53731e-19)
(0.694679 0.722902 1.04175e-18)
(0.636001 0.664626 0)
(0.595488 0.608661 0)
(0.543693 0.534607 -1.38838e-19)
(0.449937 0.423727 0)
(0.318923 0.287502 3.92449e-19)
(0.184465 0.158779 4.62126e-19)
(0.0762397 0.0623784 0)
(0.012778 0.0100007 0)
(-0.00402759 -0.00301812 3.75635e-19)
(0.235055 0.195541 9.51134e-20)
(1.03761 0.86246 7.72085e-20)
(1.21275 1.02399 9.81326e-20)
(1.22648 1.05619 -1.2142e-19)
(1.17675 1.03742 -5.4302e-20)
(1.10616 1.00274 -1.82681e-20)
(1.02997 0.96465 -4.54041e-20)
(0.947292 0.922535 -3.54142e-22)
(0.857516 0.873781 -5.12246e-21)
(0.760845 0.814748 -4.83686e-21)
(0.673076 0.749708 5.36422e-19)
(0.610518 0.689002 0)
(0.566117 0.627773 4.21476e-19)
(0.510363 0.543944 2.96445e-19)
(0.416589 0.421092 7.16529e-19)
(0.292659 0.275777 2.11587e-19)
(0.169995 0.143902 -2.4878e-19)
(0.0740296 0.0512732 -1.46055e-19)
(0.016805 0.00612278 0)
(-0.00280546 -0.00298624 4.03721e-19)
(0.235874 0.203441 -2.13504e-19)
(1.03109 0.89042 0)
(1.20181 1.05502 1.14346e-19)
(1.21389 1.08713 -1.02201e-19)
(1.16391 1.06746 6.95157e-20)
(1.09336 1.03197 4.28265e-20)
(1.01704 0.993166 7.51951e-20)
(0.933787 0.950469 -1.50675e-20)
(0.842788 0.901248 0)
(0.743811 0.8418 -4.9676e-19)
(0.652393 0.776017 -1.16337e-18)
(0.585448 0.713199 4.85996e-20)
(0.536319 0.646503 5.82419e-19)
(0.475257 0.551774 0)
(0.380366 0.41493 4.84312e-19)
(0.263601 0.257071 0)
(0.156486 0.116639 0)
(0.0839673 0.0204556 -1.5803e-19)
(0.0525809 -0.012891 0)
(0.0267985 0.00630089 1.08144e-19)
(0.236256 0.210762 -2.38053e-19)
(1.02477 0.917129 0)
(1.19117 1.08416 1.8935e-19)
(1.20171 1.11616 0)
(1.1516 1.09571 -4.08682e-20)
(1.0811 1.05957 0)
(1.00475 1.0202 1.58716e-21)
(0.920984 0.977124 2.29849e-20)
(0.828845 0.927692 2.96121e-20)
(0.727604 0.868176 -5.42143e-19)
(0.632449 0.802287 3.451e-20)
(0.56052 0.737823 3.93288e-19)
(0.505667 0.66563 5.68554e-19)
(0.437469 0.558821 7.71477e-20)
(0.339486 0.406866 3.80264e-19)
(0.226877 0.232454 0)
(0.132398 0.0731204 5.25197e-19)
(0.073522 -0.0203944 -3.06419e-19)
(0.0324473 0.0569902 3.55485e-19)
(-0.0381496 0.454798 -4.23808e-19)
(0.236586 0.217919 1.96865e-19)
(1.01844 0.942473 3.05529e-19)
(1.18077 1.11173 0)
(1.18979 1.14374 5.15703e-21)
(1.13962 1.12278 1.17921e-19)
(1.06912 1.08622 -1.17054e-19)
(0.992776 1.04656 1.83641e-20)
(0.908467 1.00345 0)
(0.81515 0.954218 1.90166e-19)
(0.711546 0.895197 -2.76179e-20)
(0.612327 0.830032 0)
(0.534452 0.764577 0)
(0.472198 0.686629 5.09656e-19)
(0.394557 0.565561 -2.39195e-19)
(0.29091 0.398898 -3.85841e-19)
(0.178477 0.205165 0)
(0.0756688 0.0859825 2.65123e-19)
(0.0067064 0.464298 -3.06057e-19)
(0.0317559 1.92328 -1.70531e-19)
(0.0583003 2.82315 -2.15491e-19)
(0.236545 0.224511 -1.47312e-19)
(1.01214 0.966621 -3.91158e-19)
(1.1706 1.13771 1.12014e-19)
(1.17813 1.16974 9.63951e-20)
(1.12802 1.14845 0)
(1.05751 1.11166 -9.29626e-20)
(0.981331 1.07193 1.35272e-20)
(0.89643 1.029 -1.04159e-20)
(0.801986 0.980307 2.85819e-20)
(0.696026 0.922256 5.12105e-19)
(0.592645 0.858564 5.84232e-19)
(0.508219 0.793211 4.39507e-19)
(0.436741 0.709507 5.13133e-19)
(0.347999 0.570955 -5.62527e-19)
(0.241116 0.394855 -5.83176e-19)
(0.11743 0.254647 0)
(0.0409312 0.876968 0)
(0.0888512 2.57825 1.46132e-19)
(0.091431 3.21045 0)
(0.0926796 3.38899 3.52333e-19)
(0.239226 0.230636 0)
(1.00613 0.989936 0)
(1.1604 1.16197 0)
(1.16652 1.19402 2.85536e-20)
(1.11648 1.17249 1.07628e-19)
(1.04608 1.13574 -8.16274e-20)
(0.970338 1.09621 4.10996e-21)
(0.884806 1.05366 -9.73656e-21)
(0.789287 1.00579 2.29212e-19)
(0.681032 0.949197 -9.25147e-21)
(0.573485 0.887647 1.14827e-18)
(0.482204 0.823806 -5.10077e-20)
(0.399201 0.734845 6.19702e-20)
(0.30001 0.573105 8.15896e-20)
(0.181035 0.412727 -2.18798e-21)
(0.0939289 1.01072 1.71541e-21)
(0.126767 2.75901 -7.72862e-19)
(0.131572 3.30094 -2.88903e-19)
(0.121729 3.42427 1.48178e-19)
(0.110808 3.44419 -1.64161e-19)
(0.162372 0.17606 8.64788e-20)
(0.996299 1.01531 0)
(1.14997 1.18472 -2.22757e-19)
(1.15532 1.21695 -2.57805e-19)
(1.10546 1.19537 2.44026e-19)
(1.03549 1.15893 9.06633e-20)
(0.959648 1.11936 2.16678e-21)
(0.873643 1.07746 8.92121e-20)
(0.777126 1.03073 -1.83205e-19)
(0.666777 0.976137 0)
(0.555117 0.917312 5.60051e-19)
(0.456956 0.856186 -3.56735e-19)
(0.360639 0.765348 0)
(0.244207 0.576152 7.61876e-20)
(0.134307 0.777517 1.84632e-19)
(0.141154 2.56002 -2.11289e-19)
(0.189953 3.32962 2.37201e-19)
(0.172141 3.43584 1.27602e-19)
(0.142519 3.45453 1.43256e-19)
(0.123008 3.46315 2.279e-19)
(0.274557 0.269316 -1.65428e-19)
(0.979667 1.02623 0)
(1.13229 1.21109 2.41171e-19)
(1.14114 1.24854 2.80571e-19)
(1.08834 1.22915 -2.65369e-19)
(1.01779 1.19311 -1.1483e-19)
(0.940767 1.15509 -3.37531e-20)
(0.85422 1.11451 7.24449e-21)
(0.756307 1.07007 1.65309e-19)
(0.643075 1.01966 4.26121e-19)
(0.526023 0.967234 3.08544e-20)
(0.416457 0.911459 3.13684e-19)
(0.291541 0.804843 5.74417e-20)
(0.206934 0.950802 -7.43818e-20)
(0.212211 2.43348 -1.6696e-19)
(0.263276 3.33528 1.59428e-19)
(0.246306 3.46289 -1.76934e-19)
(0.211723 3.48125 -1.02579e-19)
(0.177902 3.50532 -8.62295e-20)
(0.132827 3.49935 -1.02488e-20)
(0.264968 0.268386 0)
(0.977277 1.04955 6.83413e-20)
(1.12397 1.23501 -4.93402e-20)
(1.13047 1.2724 -3.2928e-20)
(1.07751 1.25261 -1.811e-19)
(1.00695 1.21677 1.16152e-19)
(0.929633 1.17899 3.01276e-20)
(0.842857 1.13929 5.88366e-21)
(0.744351 1.09637 -1.66759e-19)
(0.629701 1.04895 -1.41262e-20)
(0.509631 1.00138 -9.93995e-19)
(0.39414 0.948896 4.49032e-20)
(0.277871 0.878118 -5.37956e-20)
(0.241554 1.55411 -6.79461e-20)
(0.303296 3.14405 1.77159e-20)
(0.317075 3.46586 1.50429e-21)
(0.275278 3.51278 2.5018e-19)
(0.24118 3.53507 1.22349e-19)
(0.195434 3.5546 -3.05166e-20)
(0.145436 3.55035 -4.71628e-20)
(0.251064 0.266588 1.72291e-19)
(0.974007 1.07548 4.64566e-19)
(1.11529 1.26098 -1.4149e-19)
(1.11935 1.29778 -1.24665e-19)
(1.0662 1.27753 0)
(0.995745 1.24172 1.93046e-19)
(0.9184 1.20424 5.90993e-20)
(0.831644 1.16535 4.40784e-21)
(0.732851 1.12406 -1.88882e-20)
(0.617309 1.07988 -3.68259e-19)
(0.495097 1.03767 -4.50453e-19)
(0.375487 0.988459 -3.61073e-19)
(0.276658 1.02058 -4.02808e-19)
(0.305632 2.30902 4.15049e-19)
(0.383141 3.3937 3.40939e-19)
(0.355684 3.52345 0)
(0.307415 3.55903 0)
(0.270613 3.59199 -2.33114e-20)
(0.22602 3.63695 0)
(0.15663 3.62035 -2.81283e-20)
(0.241265 0.26867 -2.56953e-19)
(0.968793 1.10232 -3.93382e-19)
(1.10522 1.28823 0)
(1.10699 1.32399 6.20287e-21)
(1.05368 1.30312 -1.90651e-19)
(0.983483 1.26725 3.03667e-19)
(0.906427 1.23009 4.71642e-20)
(0.819918 1.19195 -5.03041e-22)
(0.721093 1.15223 -1.03008e-19)
(0.605088 1.11131 1.72716e-20)
(0.48161 1.07457 0)
(0.35778 1.03181 0)
(0.300629 1.30799 -3.59432e-19)
(0.383097 2.9733 1.43207e-19)
(0.44779 3.49417 1.76852e-19)
(0.394836 3.55821 0)