/*--------------------------------*- C++ -*----------------------------------*\
  =========                 |
  \\      /  F ield         | OpenFOAM: The Open Source CFD Toolbox
   \\    /   O peration     | Website:  https://openfoam.org
    \\  /    A nd           | Version:  6
     \\/     M anipulation  |
\*---------------------------------------------------------------------------*/
FoamFile
{
    version     2.0;
    format      ascii;
    class       volScalarField;
    location    "66.8";
    object      p;
}
// * * * * * * * * * * * * * * * * * * * * * * * * * * * * * * * * * * * * * //

dimensions      [0 2 -2 0 0 0 0];

internalField   nonuniform List<scalar> 
8800
(
0.774456
0.725139
0.687172
0.6591
0.638933
0.624339
0.61373
0.606175
0.601269
0.599172
0.600513
0.604832
0.611608
0.621018
0.633746
0.651061
0.674935
0.70803
0.750966
0.80348
0.608953
0.615297
0.624445
0.627991
0.625378
0.619283
0.612332
0.606077
0.601257
0.598362
0.598101
0.600702
0.605323
0.611437
0.618527
0.625554
0.630428
0.630301
0.623624
0.614724
0.582477
0.588711
0.593208
0.597075
0.600017
0.600957
0.599856
0.597718
0.595714
0.594845
0.595846
0.598274
0.601142
0.603399
0.603912
0.602117
0.598747
0.594731
0.589949
0.586233
0.578188
0.580953
0.583555
0.585708
0.587438
0.588997
0.590086
0.59042
0.590282
0.590348
0.591119
0.592234
0.592956
0.592791
0.591807
0.590446
0.588771
0.586466
0.584054
0.582487
0.573148
0.574573
0.576408
0.578483
0.580187
0.581468
0.582551
0.58351
0.584291
0.584993
0.585666
0.586096
0.586098
0.585719
0.58504
0.583918
0.582256
0.580358
0.579004
0.578201
0.568179
0.569081
0.570323
0.571943
0.573627
0.575146
0.576413
0.577511
0.578544
0.579522
0.580265
0.580621
0.580607
0.580221
0.579406
0.578209
0.576842
0.575572
0.57475
0.574226
0.563296
0.563952
0.564908
0.566217
0.567653
0.569155
0.57062
0.571958
0.573185
0.574344
0.575247
0.575703
0.575693
0.575236
0.574441
0.57349
0.57249
0.571582
0.571001
0.570616
0.558499
0.559003
0.559784
0.560915
0.562203
0.563603
0.56509
0.5666
0.568071
0.569475
0.570575
0.57114
0.571187
0.570842
0.570262
0.569563
0.568817
0.56815
0.567722
0.567422
0.553733
0.554134
0.554788
0.555799
0.557014
0.558361
0.55984
0.561446
0.563131
0.564816
0.566168
0.566924
0.567161
0.567045
0.566706
0.566227
0.565687
0.565213
0.564896
0.564653
0.548917
0.549244
0.549811
0.550743
0.551913
0.553247
0.554762
0.556469
0.558351
0.560334
0.562017
0.563077
0.563601
0.56375
0.56365
0.563398
0.563055
0.562743
0.562511
0.562308
0.543964
0.544236
0.544743
0.545629
0.546783
0.548147
0.54974
0.551591
0.553707
0.556038
0.558136
0.55959
0.56046
0.560909
0.561068
0.561046
0.560902
0.560734
0.560569
0.560393
0.538786
0.539015
0.539484
0.540354
0.541533
0.542967
0.544681
0.546732
0.549152
0.551915
0.55452
0.556446
0.557719
0.558512
0.558963
0.559181
0.559238
0.559201
0.559093
0.558936
0.533288
0.533484
0.533935
0.534819
0.536063
0.537612
0.539503
0.541822
0.54463
0.547932
0.551152
0.553639
0.555385
0.556573
0.557351
0.557828
0.5581
0.558188
0.558127
0.557983
0.52737
0.527538
0.527988
0.528915
0.530264
0.53198
0.534116
0.536786
0.540085
0.544052
0.548018
0.551175
0.553477
0.555119
0.556272
0.557059
0.557547
0.557756
0.557734
0.557599
0.520908
0.521055
0.521518
0.522518
0.524017
0.525961
0.528418
0.531536
0.535449
0.540231
0.545099
0.549059
0.552022
0.554199
0.555781
0.55691
0.557643
0.557977
0.557992
0.557861
0.513763
0.513886
0.514378
0.515481
0.517183
0.519426
0.522297
0.525981
0.530655
0.536434
0.542392
0.54731
0.551053
0.55386
0.555947
0.557466
0.558476
0.55894
0.55899
0.558858
0.505744
0.505853
0.50639
0.507628
0.509592
0.512216
0.51561
0.520002
0.525617
0.532611
0.539883
0.545943
0.550608
0.554158
0.55685
0.558829
0.560146
0.560747
0.560828
0.560692
0.496621
0.496725
0.497314
0.498727
0.501033
0.504143
0.508197
0.513474
0.520252
0.528726
0.537573
0.544992
0.550746
0.555167
0.558573
0.561088
0.562753
0.5635
0.563609
0.563466
0.48608
0.486169
0.486848
0.488497
0.491238
0.494967
0.499856
0.506245
0.514466
0.524746
0.535476
0.544491
0.551524
0.556972
0.561196
0.564345
0.566402
0.567298
0.567432
0.567278
0.473739
0.473815
0.474596
0.476558
0.47986
0.484388
0.490348
0.498147
0.508164
0.520643
0.533615
0.544495
0.553007
0.559648
0.564825
0.5687
0.571183
0.572228
0.572379
0.572211
0.459037
0.459106
0.460033
0.462409
0.466447
0.472025
0.479379
0.488982
0.50125
0.516406
0.532023
0.545056
0.555255
0.563262
0.569538
0.574223
0.577156
0.57834
0.578498
0.578312
0.441194
0.441255
0.442397
0.445359
0.450407
0.457402
0.466609
0.478555
0.49365
0.512045
0.530754
0.54624
0.558342
0.567881
0.575368
0.58095
0.584335
0.585629
0.585778
0.585573
0.419041
0.419106
0.420593
0.424432
0.430932
0.439918
0.451665
0.466711
0.485376
0.50766
0.529912
0.548126
0.56232
0.573544
0.582345
0.588864
0.592655
0.59401
0.594131
0.593906
0.390783
0.390879
0.392964
0.398222
0.40697
0.418893
0.434229
0.453408
0.476546
0.503419
0.529642
0.550812
0.567237
0.580245
0.590446
0.597863
0.601957
0.603295
0.603366
0.603122
0.353355
0.353577
0.356883
0.364757
0.377293
0.393738
0.414205
0.438824
0.467434
0.499578
0.530128
0.554407
0.57314
0.587962
0.599565
0.607746
0.611958
0.613179
0.613179
0.612921
0.30088
0.301977
0.308549
0.321832
0.340989
0.364427
0.391986
0.423461
0.458482
0.496458
0.531576
0.559023
0.580049
0.596611
0.609493
0.618195
0.622258
0.623259
0.623178
0.622914
0.224862
0.232316
0.24739
0.2706
0.29964
0.332439
0.368629
0.407955
0.450061
0.49436
0.534368
0.565182
0.588671
0.607102
0.621107
0.630042
0.633797
0.63456
0.634424
0.634192
0.144045
0.160323
0.184799
0.218687
0.258134
0.300456
0.345321
0.392656
0.442208
0.49345
0.539165
0.574064
0.6005
0.621032
0.636169
0.644909
0.648039
0.648531
0.648421
0.648273
0.0748107
0.0947027
0.127031
0.170122
0.218835
0.270122
0.323437
0.378651
0.435484
0.4934
0.544479
0.583137
0.612197
0.634487
0.650165
0.658402
0.660979
0.66137
0.661322
0.661223
0.0181596
0.0402816
0.0780109
0.1277
0.183673
0.242484
0.303276
0.365736
0.429423
0.493699
0.549846
0.592009
0.62345
0.647175
0.663395
0.671501
0.673903
0.674259
0.674247
0.674176
-0.0287649
-0.00531942
0.0363229
0.0911691
0.152953
0.21797
0.285161
0.354064
0.424035
0.494261
0.555258
0.60078
0.634525
0.659782
0.676685
0.684853
0.68724
0.687594
0.687611
0.687564
-0.0685916
-0.0443564
0.000173315
0.0592175
0.125907
0.196233
0.268975
0.343582
0.419264
0.495063
0.560719
0.609547
0.645572
0.672352
0.690068
0.698628
0.701112
0.701464
0.701491
0.701458
-0.103359
-0.0785969
-0.0318054
0.0307209
0.101608
0.176565
0.254238
0.334021
0.415015
0.496078
0.566179
0.618218
0.656493
0.684818
0.703492
0.712491
0.715144
0.715518
0.715545
0.715528
-0.134567
-0.109374
-0.0607204
0.00477137
0.0792995
0.158339
0.240474
0.325024
0.410975
0.497034
0.57143
0.626576
0.667069
0.696896
0.71647
0.725974
0.72886
0.729271
0.729298
0.729286
-0.16324
-0.137649
-0.0874039
-0.019329
0.0584059
0.141077
0.227242
0.316174
0.406792
0.497693
0.576272
0.634453
0.677056
0.708351
0.728793
0.738753
0.741866
0.742354
0.742359
0.742347
-0.190188
-0.164167
-0.112493
-0.0420931
0.0384756
0.124385
0.214203
0.307208
0.402263
0.497839
0.580549
0.641704
0.686363
0.719009
0.74024
0.750628
0.753911
0.754435
0.754415
0.754393
-0.215809
-0.189372
-0.13638
-0.0639146
0.0191804
0.108003
0.201156
0.297932
0.397181
0.497291
0.584131
0.648269
0.694933
0.728854
0.75074
0.761376
0.764784
0.76532
0.765272
0.765232
-0.240546
-0.213611
-0.1594
-0.0850627
0.000300901
0.0917465
0.187938
0.288189
0.391395
0.495954
0.586941
0.654128
0.702776
0.737842
0.760224
0.771019
0.774445
0.774967
0.774885
0.774828
-0.264536
-0.237097
-0.181732
-0.105705
-0.0183109
0.0754954
0.174442
0.277903
0.38484
0.493729
0.588925
0.659279
0.709969
0.746111
0.768829
0.779609
0.782973
0.783463
0.783353
0.783278
-0.287911
-0.259934
-0.2035
-0.125938
-0.0367276
0.0591937
0.160634
0.267034
0.377457
0.490534
0.590017
0.663745
0.716607
0.753796
0.776678
0.787272
0.790496
0.790918
0.790788
0.790696
-0.310771
-0.282246
-0.224757
-0.145801
-0.0549833
0.0428317
0.146513
0.255576
0.369224
0.486322
0.590156
0.66752
0.722813
0.761081
0.783968
0.794172
0.79713
0.797455
0.797294
0.797191
-0.333175
-0.304023
-0.245514
-0.1653
-0.0730562
0.0264258
0.132104
0.243557
0.360155
0.481053
0.589269
0.670572
0.728682
0.768199
0.790925
0.80047
0.80298
0.80315
0.802965
0.802857
-0.354984
-0.325238
-0.265758
-0.184425
-0.0909219
0.0100295
0.117456
0.231039
0.350292
0.474729
0.587277
0.672824
0.734247
0.77539
0.797906
0.806426
0.808182
0.808103
0.807901
0.807802
-0.376176
-0.345861
-0.28548
-0.203141
-0.108533
-0.00630407
0.102654
0.218087
0.339698
0.467357
0.584116
0.674155
0.739448
0.782844
0.805419
0.81261
0.813068
0.812437
0.812209
0.812172
-0.396807
-0.365863
-0.304658
-0.221421
-0.125833
-0.0224974
0.087778
0.204793
0.328454
0.458981
0.579712
0.674428
0.744115
0.790553
0.813971
0.820015
0.818533
0.816551
0.816037
0.816294
-0.416726
-0.385221
-0.323239
-0.239202
-0.14277
-0.0384699
0.0729205
0.191263
0.316667
0.449684
0.574021
0.673473
0.747986
0.7982
0.823677
0.829808
0.82663
0.822144
0.819529
0.818478
-0.436027
-0.40394
-0.34123
-0.256518
-0.159377
-0.0542614
0.0580303
0.177438
0.304266
0.439402
0.566887
0.671032
0.750815
0.805297
0.834007
0.842372
0.839586
0.832386
0.822925
0.823426
-0.454628
-0.422087
-0.358768
-0.273565
-0.175948
-0.0701988
0.0426968
0.16284
0.290714
0.427517
0.557666
0.666357
0.752183
0.811279
0.843492
0.855748
0.854072
0.842724
0.824136
0.82244
-0.472394
-0.439625
-0.375686
-0.290156
-0.192218
-0.0859825
0.0271235
0.147787
0.276295
0.414256
0.54638
0.658735
0.751212
0.814936
0.84806
0.860817
0.860928
0.835272
0.777589
0.752721
-0.489207
-0.457432
-0.391587
-0.305852
-0.207414
-0.101134
0.0115904
0.132552
0.261289
0.399787
0.533087
0.647547
0.746794
0.815277
0.842829
0.85041
0.836293
0.784392
0.722341
0.684573
-0.532022
-0.474788
-0.406197
-0.32155
-0.22228
-0.116611
-0.00376121
0.117013
0.24549
0.383753
0.517373
0.63213
0.734988
0.808925
0.825319
0.811258
0.762676
0.696913
0.627742
0.589748
-0.507119
-0.488947
-0.428455
-0.343105
-0.24528
-0.139861
-0.0277195
0.0923764
0.219913
0.356757
0.48901
0.601869
0.696473
0.777715
0.760304
0.650452
0.558985
0.495464
0.431047
0.457601
-0.537907
-0.506453
-0.445128
-0.360268
-0.262811
-0.157554
-0.0452565
0.0741597
0.20065
0.335703
0.465368
0.574726
0.658498
0.704077
0.651454
0.510849
0.40099
0.326949
0.244464
0.289451
-0.561787
-0.527908
-0.464839
-0.379917
-0.282522
-0.177291
-0.0651325
0.0534661
0.178567
0.31119
0.437009
0.540351
0.612475
0.619977
0.512409
0.356324
0.22655
0.133567
0.0377807
0.0687719
-0.585033
-0.550085
-0.485628
-0.400041
-0.302575
-0.197477
-0.0858542
0.0317526
0.155219
0.284985
0.405898
0.500984
0.556034
0.530607
0.37152
0.193775
0.0333475
-0.10092
-0.225526
-0.213085
-0.608009
-0.572656
-0.507275
-0.421086
-0.323488
-0.21862
-0.107679
0.00877704
0.130306
0.256775
0.371906
0.458726
0.49288
0.421961
0.232922
0.0352411
-0.152207
-0.306443
-0.512096
-0.59114
-0.631399
-0.596081
-0.530148
-0.443527
-0.345772
-0.241096
-0.130777
-0.015518
0.103929
0.226809
0.335668
0.413064
0.421473
0.299047
0.106531
-0.103091
-0.295528
-0.457618
-0.581721
-0.699958
-0.656278
-0.620847
-0.554602
-0.467745
-0.369967
-0.265585
-0.155995
-0.0421236
0.0748768
0.193577
0.295724
0.360261
0.341187
0.182386
-0.0117225
-0.215328
-0.391027
-0.488615
-0.514956
-0.528447
-0.68277
-0.647241
-0.580768
-0.493834
-0.396219
-0.292313
-0.183708
-0.0715553
0.0425259
0.156277
0.25125
0.298149
0.259701
0.0702712
-0.121962
-0.305353
-0.437986
-0.476046
-0.485059
-0.485414
-0.711152
-0.675388
-0.608683
-0.521777
-0.424476
-0.321287
-0.213943
-0.103873
0.00680174
0.114868
0.201631
0.23215
0.162204
-0.0321563
-0.218331
-0.377822
-0.452265
-0.466403
-0.467518
-0.46741
-0.741433
-0.705317
-0.638361
-0.551572
-0.454755
-0.352499
-0.24671
-0.1391
-0.0322928
0.0694491
0.146712
0.162619
0.054178
-0.124958
-0.301165
-0.428113
-0.45704
-0.457537
-0.45797
-0.457522
-0.773349
-0.736851
-0.669697
-0.583131
-0.486965
-0.385894
-0.281985
-0.177215
-0.0747146
0.0201518
0.0877385
0.0846399
-0.0417686
-0.210426
-0.366227
-0.43919
-0.45426
-0.452409
-0.45216
-0.45173
-0.806332
-0.769637
-0.702418
-0.616215
-0.520909
-0.421307
-0.319613
-0.218098
-0.120249
-0.0326266
0.025094
0.00577497
-0.130597
-0.285474
-0.40818
-0.44647
-0.446868
-0.448138
-0.448311
-0.448073
-0.839928
-0.803129
-0.736022
-0.65039
-0.55622
-0.4584
-0.3593
-0.261464
-0.168607
-0.0880184
-0.0426185
-0.0689231
-0.211911
-0.345248
-0.431686
-0.441384
-0.444581
-0.445834
-0.445929
-0.44589
-0.873168
-0.836422
-0.769749
-0.684995
-0.592321
-0.49667
-0.400563
-0.30681
-0.21938
-0.145193
-0.110647
-0.14426
-0.282739
-0.393703
-0.440328
-0.451279
-0.446853
-0.444869
-0.444225
-0.444145
-0.904139
-0.868197
-0.802537
-0.719106
-0.628399
-0.535381
-0.442705
-0.353381
-0.27179
-0.203757
-0.174078
-0.222905
-0.34214
-0.440003
-0.461673
-0.457326
-0.449815
-0.444166
-0.442454
-0.441955
-0.93178
-0.896901
-0.832939
-0.75148
-0.66335
-0.573549
-0.48481
-0.400242
-0.324548
-0.263192
-0.236227
-0.291546
-0.386807
-0.468283
-0.493019
-0.473505
-0.457194
-0.449751
-0.446997
-0.445729
-0.953301
-0.920379
-0.859147
-0.78054
-0.695803
-0.609936
-0.525708
-0.446312
-0.376281
-0.321678
-0.29818
-0.345168
-0.412514
-0.462027
-0.469482
-0.47666
-0.480495
-0.477485
-0.473403
-0.471429
-0.966538
-0.936418
-0.879016
-0.804475
-0.72416
-0.643102
-0.564002
-0.490279
-0.425851
-0.376387
-0.354274
-0.391218
-0.426249
-0.448417
-0.456705
-0.478969
-0.491316
-0.492181
-0.490415
-0.49037
-0.968719
-0.942546
-0.890356
-0.821363
-0.746714
-0.671485
-0.598232
-0.530407
-0.472165
-0.426373
-0.400852
-0.435787
-0.456029
-0.454188
-0.466722
-0.477988
-0.481035
-0.48199
-0.483137
-0.483737
-0.957568
-0.936246
-0.89099
-0.829376
-0.761933
-0.693594
-0.62702
-0.56495
-0.513311
-0.472532
-0.437095
-0.474579
-0.517246
-0.541523
-0.528936
-0.503734
-0.489805
-0.484847
-0.48282
-0.481905
-0.930339
-0.914641
-0.878914
-0.827201
-0.768694
-0.708429
-0.649058
-0.593043
-0.546368
-0.513173
-0.472978
-0.495717
-0.533457
-0.627019
-0.588417
-0.518818
-0.481043
-0.470262
-0.467127
-0.465906
-0.890457
-0.880399
-0.855117
-0.815067
-0.766885
-0.715789
-0.663666
-0.614071
-0.570382
-0.543088
-0.514357
-0.471771
-0.415876
-0.425369
-0.42134
-0.416781
-0.42625
-0.428822
-0.429126
-0.428477
-0.845042
-0.839319
-0.824625
-0.79601
-0.758722
-0.716278
-0.671613
-0.626813
-0.58657
-0.556497
-0.525461
-0.45348
-0.294276
-0.146687
-0.140847
-0.264763
-0.381175
-0.428752
-0.440782
-0.443215
-0.804392
-0.800928
-0.793928
-0.775604
-0.747312
-0.712209
-0.673544
-0.632659
-0.592862
-0.55833
-0.533634
-0.49646
-0.467451
-0.409244
-0.501389
-0.703992
-0.765424
-0.716239
-0.682858
-0.6899
-0.775013
-0.772923
-0.769312
-0.758394
-0.736655
-0.706892
-0.67172
-0.633094
-0.591597
-0.557316
-0.527189
-0.583046
-0.856307
-1.36048
-1.71189
-1.77538
-1.67063
-1.50467
-1.35949
-1.28694
-0.753564
-0.752833
-0.751629
-0.746112
-0.729727
-0.70303
-0.669132
-0.628689
-0.585643
-0.540423
-0.511594
-0.543761
-0.751321
-0.984741
-1.22403
-1.25525
-1.09257
-0.911198
-0.783728
-0.723629
-0.740931
-0.740723
-0.740164
-0.737463
-0.725806
-0.70088
-0.665586
-0.623696
-0.573668
-0.513611
-0.466114
-0.394638
-0.322246
-0.193873
-0.0732604
0.0974581
0.2824
0.395443
0.45676
0.480352
-0.731818
-0.731646
-0.731137
-0.730056
-0.722741
-0.700133
-0.663564
-0.617045
-0.558557
-0.491463
-0.407729
-0.304143
-0.113727
0.255489
0.65303
1.0228
1.27263
1.36164
1.39165
1.39625
-0.7264
-0.726143
-0.725472
-0.724787
-0.720833
-0.702397
-0.664056
-0.610025
-0.548344
-0.465873
-0.363931
-0.250198
-0.0018447
0.410989
0.83437
1.22441
1.49228
1.6096
1.65212
1.66056
-0.724142
-0.724333
-0.724815
-0.72525
-0.724519
-0.708807
-0.666319
-0.607943
-0.539944
-0.448419
-0.344878
-0.221843
-0.00712724
0.372646
0.759812
1.10609
1.34801
1.45246
1.47908
1.4799
-0.719818
-0.721343
-0.725156
-0.731054
-0.733887
-0.715017
-0.668892
-0.611877
-0.538783
-0.446416
-0.340537
-0.234289
-0.0501575
0.242682
0.516366
0.760621
0.92349
0.992658
1.01496
1.01999
-0.718182
-0.719879
-0.721407
-0.720103
-0.718699
-0.702524
-0.668265
-0.623194
-0.551399
-0.452623
-0.35002
-0.260829
-0.115379
0.0938528
0.285213
0.427581
0.506809
0.553014
0.585693
0.599455
-0.74423
-0.744146
-0.73408
-0.701557
-0.664905
-0.665048
-0.672106
-0.644904
-0.568294
-0.462761
-0.366421
-0.29255
-0.175842
-0.00284176
0.148691
0.254855
0.326471
0.377575
0.409399
0.420946
-0.794494
-0.791659
-0.7803
-0.74911
-0.717378
-0.714058
-0.73107
-0.684708
-0.586526
-0.475532
-0.387313
-0.317113
-0.236439
-0.0782902
0.0586517
0.174832
0.259394
0.314555
0.339901
0.346807
-0.890801
-0.895617
-0.923561
-0.959809
-0.966111
-0.939398
-0.882206
-0.754707
-0.607418
-0.49216
-0.396997
-0.330591
-0.263497
-0.139002
-0.0100019
0.0965784
0.178459
0.231404
0.252402
0.256379
-1.03442
-1.05504
-1.10642
-1.15349
-1.16581
-1.12827
-1.01239
-0.810681
-0.63082
-0.503493
-0.398217
-0.336573
-0.28449
-0.181392
-0.0611222
0.0230651
0.0913745
0.131465
0.14631
0.148069
-1.09338
-1.11501
-1.15179
-1.18405
-1.19259
-1.15441
-1.01334
-0.791608
-0.627642
-0.492207
-0.393897
-0.324962
-0.285323
-0.212236
-0.116053
-0.0481894
0.00841943
0.0391303
0.0514413
0.0514061
-0.980112
-0.998795
-1.03136
-1.06351
-1.07498
-1.03113
-0.879049
-0.707936
-0.568664
-0.452906
-0.372132
-0.313537
-0.276454
-0.225149
-0.156718
-0.10328
-0.0618824
-0.0391693
-0.032551
-0.0329814
-0.694113
-0.712844
-0.747732
-0.787709
-0.809856
-0.774289
-0.675338
-0.568132
-0.466758
-0.3919
-0.340345
-0.294613
-0.268164
-0.232192
-0.18904
-0.152805
-0.122939
-0.107362
-0.102742
-0.10463
-0.335293
-0.347718
-0.373626
-0.40947
-0.437248
-0.442463
-0.425965
-0.394747
-0.357208
-0.327264
-0.294841
-0.270219
-0.256475
-0.244089
-0.220524
-0.199001
-0.186031
-0.181641
-0.180856
-0.182432
-0.0564052
-0.062674
-0.0793548
-0.109831
-0.152425
-0.19359
-0.226104
-0.251235
-0.262998
-0.260424
-0.256056
-0.249123
-0.250254
-0.247023
-0.245683
-0.247188
-0.249433
-0.255181
-0.256928
-0.257348
0.0815087
0.0779513
0.0659484
0.0395803
-0.00338788
-0.0590145
-0.113598
-0.157313
-0.188505
-0.210163
-0.223641
-0.225203
-0.234992
-0.243357
-0.256098
-0.271527
-0.28943
-0.299467
-0.302128
-0.301977
0.117979
0.115602
0.106769
0.0860185
0.0504539
0.00371254
-0.047793
-0.0980348
-0.140431
-0.17327
-0.197691
-0.210502
-0.222983
-0.240562
-0.261265
-0.281013
-0.299192
-0.308032
-0.309919
-0.30991
0.108386
0.106796
0.100594
0.085716
0.059375
0.022684
-0.0203294
-0.0645729
-0.107221
-0.14557
-0.183959
-0.21269
-0.231202
-0.241413
-0.255948
-0.273115
-0.288439
-0.294144
-0.294267
-0.294035
0.084971
0.0839732
0.0798098
0.069611
0.0511952
0.0244645
-0.00922073
-0.0465621
-0.0857652
-0.127237
-0.174337
-0.223434
-0.249534
-0.240703
-0.242963
-0.250553
-0.257078
-0.258914
-0.258007
-0.257669
0.0609277
0.0604235
0.0577622
0.0510514
0.0385073
0.0195434
-0.00554709
-0.0349275
-0.0686601
-0.107105
-0.154983
-0.211066
-0.236609
-0.218919
-0.205852
-0.207035
-0.206172
-0.204939
-0.204638
-0.204785
0.0411023
0.0407594
0.0391181
0.0348206
0.0265138
0.0135044
-0.00445783
-0.0262146
-0.0519646
-0.0817898
-0.119129
-0.156257
-0.167303
-0.155378
-0.149425
-0.151733
-0.153017
-0.153663
-0.154241
-0.154714
0.0259524
0.0257882
0.0248556
0.0222715
0.017033
0.00851358
-0.00364751
-0.0188854
-0.0368558
-0.0562741
-0.0740343
-0.0843264
-0.0827109
-0.0862397
-0.0951801
-0.103634
-0.109526
-0.112545
-0.114065
-0.114325
0.0148255
0.0147789
0.0143284
0.0129483
0.00997529
0.00490309
-0.00252355
-0.0119208
-0.0226859
-0.0320455
-0.0338875
-0.0231876
-0.00966363
-0.0271381
-0.0481064
-0.0621397
-0.0707197
-0.075155
-0.0767186
-0.0767914
0.00692005
0.00696889
0.00681252
0.00627499
0.0048478
0.00235373
-0.00139482
-0.00601855
-0.01138
-0.0141299
-0.0078537
0.00834718
0.0239224
0.00538631
-0.0143312
-0.0283668
-0.0350417
-0.038315
-0.0391687
-0.0392932
0.000896577
0.000951168
0.000915639
0.00100352
0.00118368
0.000992916
0.000410287
-0.000530566
-0.00155339
-0.00242553
-0.00153687
0.00373549
0.00853408
0.00400743
-0.00211187
-0.00285124
-0.00316254
-0.00381418
-0.0055598
-0.00590261
-0.0811231
0.108183
0.282343
0.429971
0.548484
0.642292
0.720424
0.783899
0.800118
0.79647
0.210129
0.332182
0.44667
0.546027
0.629574
0.698541
0.752891
0.789633
0.809295
0.825857
0.40848
0.490134
0.570515
0.640859
0.700798
0.750533
0.789724
0.819591
0.842064
0.86128
0.556018
0.613303
0.670586
0.722344
0.76716
0.805323
0.837356
0.86425
0.884501
0.903379
0.671554
0.7149
0.757754
0.797918
0.833879
0.865665
0.893456
0.916998
0.934932
0.952962
0.768245
0.803815
0.839334
0.873151
0.904271
0.932444
0.957309
0.97816
0.993933
1.01141
0.856733
0.888684
0.921005
0.952259
0.981288
1.00766
1.03079
1.04972
1.06364
1.08066
0.943726
0.976304
1.00874
1.03996
1.06875
1.09455
1.11669
1.13421
1.1466
1.16313
1.03813
1.07456
1.10934
1.14181
1.17099
1.19635
1.21747
1.23376
1.24538
1.26152
1.15123
1.19187
1.22889
1.26183
1.29032
1.31431
1.33393
1.34921
1.36111
1.37718
1.29269
1.33373
1.36898
1.39855
1.42375
1.44537
1.46387
1.47936
1.49247
1.50842
1.4642
1.49651
1.52342
1.54575
1.56584
1.58457
1.60231
1.61908
1.63399
1.64972
1.65049
1.66775
1.68487
1.70156
1.71765
1.73239
1.74629
1.76078
1.77602
1.79331
1.83388
1.84385
1.85704
1.86803
1.87744
1.8871
1.8977
1.90788
1.91718
1.94284
2.05177
2.04607
2.03312
2.01886
2.01257
2.01828
2.03642
2.06495
2.09871
2.13504
2.35459
2.21863
2.13913
2.09661
2.07928
2.08326
2.11069
2.16856
2.27623
2.45463
0.67815
0.671848
0.664117
0.653002
0.63943
0.626779
0.61638
0.608367
0.602648
0.599317
0.598969
0.601808
0.607046
0.614408
0.623961
0.635793
0.649357
0.662288
0.671278
0.67882
0.587219
0.593138
0.60121
0.607342
0.610409
0.609896
0.606809
0.602812
0.599222
0.596938
0.59681
0.59907
0.602831
0.607283
0.611389
0.613638
0.612567
0.607932
0.600879
0.593047
0.580468
0.582841
0.586108
0.58888
0.591329
0.593517
0.594695
0.594547
0.59361
0.592805
0.593028
0.594452
0.596242
0.597478
0.597409
0.595946
0.593792
0.591433
0.588452
0.585435
0.575678
0.576767
0.578683
0.581021
0.582892
0.584289
0.585506
0.586498
0.587098
0.587481
0.588045
0.588801
0.589279
0.58917
0.588549
0.587632
0.586305
0.584339
0.582234
0.580757
0.570654
0.571288
0.572417
0.574174
0.576017
0.57761
0.57886
0.579923
0.580906
0.58181
0.582609
0.583146
0.583298
0.583103
0.582575
0.581608
0.580186
0.57858
0.577245
0.576444
0.565729
0.566168
0.566956
0.56826
0.569781
0.571344
0.572822
0.574117
0.575273
0.576368
0.577337
0.577959
0.578156
0.577936
0.577283
0.576292
0.575146
0.574007
0.573106
0.572573
0.560892
0.56122
0.561832
0.562902
0.564197
0.565597
0.567075
0.568549
0.569943
0.571254
0.57242
0.573191
0.57344
0.573214
0.572631
0.571859
0.571021
0.570173
0.569515
0.569124
0.55612
0.556374
0.556868
0.557779
0.558952
0.560261
0.561683
0.563211
0.564793
0.566365
0.567785
0.568734
0.569104
0.569028
0.568664
0.568132
0.56751
0.56689
0.566413
0.566114
0.55134
0.551542
0.551953
0.552755
0.553851
0.555113
0.556522
0.558096
0.559821
0.561642
0.563362
0.564581
0.565194
0.565368
0.565249
0.564947
0.564535
0.564109
0.563772
0.563537
0.546467
0.54663
0.546982
0.547712
0.548762
0.550007
0.551448
0.553109
0.554996
0.55708
0.559155
0.560745
0.561694
0.562168
0.562311
0.562244
0.562048
0.561799
0.561578
0.561391
0.541413
0.541545
0.541856
0.542542
0.543576
0.544849
0.54636
0.548153
0.550255
0.552663
0.555172
0.557222
0.558573
0.559394
0.559834
0.560022
0.560041
0.559965
0.559843
0.559692
0.536087
0.536194
0.536478
0.537145
0.5382
0.539543
0.54117
0.543149
0.545537
0.548356
0.5514
0.554001
0.555827
0.557048
0.557825
0.55829
0.558538
0.558633
0.558598
0.558474
0.530393
0.530478
0.530746
0.53142
0.53253
0.533985
0.535783
0.538017
0.540773
0.544107
0.547806
0.551071
0.553459
0.555146
0.556304
0.557093
0.557595
0.557854
0.557897
0.557794
0.524219
0.524285
0.524547
0.52525
0.526452
0.528067
0.530101
0.53267
0.535896
0.539868
0.544366
0.54843
0.551488
0.553721
0.55532
0.556472
0.557254
0.55769
0.557807
0.557721
0.517434
0.517481
0.517746
0.5185
0.519834
0.521664
0.524008
0.527008
0.530823
0.535586
0.541056
0.546079
0.549932
0.552811
0.554927
0.55649
0.557593
0.558223
0.558413
0.558339
0.509885
0.50991
0.510179
0.511008
0.512518
0.51463
0.517372
0.520916
0.525465
0.531197
0.537846
0.544021
0.548819
0.55246
0.555189
0.55724
0.558708
0.559547
0.55981
0.559745
0.50134
0.501358
0.501639
0.50257
0.504311
0.506782
0.510027
0.514255
0.519718
0.526641
0.534716
0.542269
0.548184
0.552721
0.556175
0.558813
0.560697
0.561763
0.5621
0.562041
0.491526
0.491519
0.491848
0.492924
0.494964
0.497895
0.501778
0.506866
0.513466
0.52185
0.531649
0.540838
0.548077
0.553671
0.557974
0.561294
0.563659
0.564976
0.565385
0.565329
0.480132
0.480102
0.480483
0.48175
0.484161
0.487681
0.49238
0.498559
0.506585
0.516771
0.528649
0.539772
0.54855
0.555378
0.560676
0.564781
0.567698
0.569281
0.569759
0.5697
0.466659
0.466608
0.467067
0.468585
0.471482
0.475772
0.481528
0.489105
0.498929
0.511338
0.525714
0.539103
0.54966
0.557905
0.564362
0.569369
0.572895
0.574753
0.57529
0.575223
0.450452
0.450378
0.450962
0.452832
0.456379
0.461693
0.468849
0.478251
0.490363
0.505516
0.522874
0.538892
0.551475
0.561326
0.569091
0.575113
0.579299
0.581423
0.582001
0.581918
0.43055
0.430459
0.431246
0.433629
0.438091
0.444828
0.453891
0.46572
0.480777
0.499316
0.520192
0.539208
0.554059
0.565697
0.574895
0.582037
0.586903
0.589255
0.589846
0.589739
0.405513
0.405421
0.406546
0.409721
0.415563
0.42438
0.436153
0.451292
0.470166
0.49285
0.517811
0.540166
0.557482
0.571058
0.5818
0.59012
0.595619
0.598123
0.598686
0.598549
0.37299
0.372946
0.374678
0.379221
0.387369
0.399433
0.415195
0.434893
0.458664
0.486332
0.515922
0.541892
0.561818
0.577415
0.589768
0.599254
0.605254
0.607783
0.608268
0.608096
0.328789
0.328948
0.332002
0.339386
0.351847
0.369247
0.390926
0.416781
0.446637
0.48009
0.514767
0.544548
0.567148
0.584767
0.598706
0.609238
0.615486
0.617858
0.618214
0.618009
0.265075
0.266414
0.273825
0.287749
0.308109
0.333985
0.364003
0.397674
0.434691
0.474573
0.514634
0.548277
0.573501
0.59306
0.608371
0.619651
0.625815
0.627806
0.627999
0.627783
0.189042
0.191673
0.206066
0.230032
0.26119
0.297127
0.336191
0.378137
0.422777
0.469695
0.515932
0.55426
0.582797
0.604781
0.621676
0.633467
0.639347
0.641056
0.6412
0.641077
0.111246
0.118213
0.139815
0.173834
0.215485
0.261243
0.309356
0.359642
0.411987
0.466012
0.518495
0.561567
0.593379
0.617745
0.636235
0.648176
0.653334
0.654546
0.65463
0.654577
0.0478185
0.0566572
0.082901
0.124038
0.17396
0.228061
0.284339
0.342453
0.402155
0.462987
0.521412
0.568904
0.603732
0.630122
0.649579
0.661486
0.666251
0.667346
0.667476
0.667479
-0.00411427
0.00544178
0.0352185
0.0816543
0.137802
0.198581
0.261741
0.326761
0.3932
0.460426
0.524486
0.57617
0.61381
0.642106
0.662606
0.674783
0.679394
0.680415
0.680597
0.680639
-0.0475531
-0.0376899
-0.00550248
0.045073
0.106328
0.172664
0.241661
0.312702
0.385179
0.458283
0.527677
0.583435
0.623828
0.654052
0.675707
0.688214
0.692867
0.694048
0.69426
0.694335
-0.0849711
-0.0749754
-0.040983
0.0129093
0.0784435
0.149556
0.223643
0.300007
0.377957
0.456539
0.531006
0.590698
0.633806
0.66591
0.688748
0.701915
0.706902
0.708144
0.70835
0.70843
-0.118048
-0.108007
-0.0725954
-0.0159564
0.0532189
0.128473
0.207081
0.288281
0.371306
0.455033
0.534323
0.597798
0.643577
0.677559
0.70167
0.715504
0.720839
0.722174
0.722373
0.722438
-0.148047
-0.137972
-0.101408
-0.0424089
0.0299236
0.108822
0.191479
0.277099
0.364814
0.453422
0.537374
0.604542
0.65288
0.688683
0.713962
0.728519
0.734223
0.735657
0.735842
0.73589
-0.175924
-0.165797
-0.128212
-0.0671149
0.00801396
0.0901359
0.176418
0.266069
0.358184
0.451468
0.539988
0.610757
0.6616
0.699126
0.725532
0.740711
0.746803
0.748312
0.748464
0.748483
-0.202246
-0.192057
-0.153524
-0.0905395
-0.0129428
0.0720498
0.161607
0.254967
0.351212
0.448969
0.541959
0.616323
0.669623
0.708808
0.73625
0.75193
0.75826
0.75983
0.759957
0.759943
-0.227478
-0.217163
-0.17774
-0.113044
-0.0332444
0.0543253
0.146854
0.243616
0.343706
0.445757
0.543174
0.621184
0.676941
0.717701
0.746017
0.76207
0.768518
0.770109
0.770213
0.770168
-0.25192
-0.241402
-0.201133
-0.134861
-0.0530812
0.0367959
0.132012
0.231886
0.335559
0.441739
0.543562
0.625285
0.68357
0.725859
0.754907
0.771184
0.777626
0.779171
0.779253
0.779183
-0.275679
-0.26493
-0.223846
-0.156137
-0.0725797
0.0193686
0.117005
0.219719
0.326723
0.436825
0.543026
0.628614
0.68956
0.733407
0.763069
0.779373
0.78569
0.787157
0.787195
0.787103
-0.29889
-0.287872
-0.246004
-0.17694
-0.091797
0.00199726
0.101809
0.207098
0.317162
0.430972
0.5415
0.631135
0.694979
0.740483
0.770653
0.786799
0.792857
0.794179
0.794169
0.794057
-0.32154
-0.310283
-0.267627
-0.197302
-0.110745
-0.0153126
0.0864414
0.194037
0.306884
0.424156
0.538926
0.632789
0.699872
0.747262
0.777889
0.793638
0.799248
0.800352
0.800273
0.800141
-0.343716
-0.33215
-0.288695
-0.217216
-0.129412
-0.0325372
0.0709303
0.180582
0.295931
0.416383
0.535249
0.633502
0.704233
0.753907
0.785054
0.80014
0.804988
0.80573
0.805574
0.805439
-0.365218
-0.353442
-0.309199
-0.236675
-0.147758
-0.0496131
0.0553371
0.166796
0.284362
0.407694
0.530431
0.63318
0.707989
0.760512
0.792508
0.806756
0.810396
0.810472
0.810179
0.810067
-0.386199
-0.37411
-0.329116
-0.25566
-0.16576
-0.0665063
0.0397484
0.152754
0.272255
0.398155
0.524455
0.631714
0.711002
0.767041
0.80057
0.814192
0.816169
0.81492
0.814211
0.814186
-0.40648
-0.394118
-0.34843
-0.274123
-0.183344
-0.083136
0.0242435
0.138569
0.259709
0.387824
0.517334
0.628991
0.713083
0.773271
0.80929
0.823232
0.823712
0.820297
0.818176
0.817971
-0.426167
-0.413495
-0.367088
-0.29201
-0.200473
-0.0994365
0.00890694
0.12432
0.246828
0.37683
0.509118
0.62488
0.71401
0.778814
0.818196
0.834064
0.834681
0.829443
0.823543
0.815068
-0.445145
-0.432233
-0.38518
-0.309487
-0.217372
-0.115686
-0.00659225
0.109611
0.233175
0.364686
0.499316
0.618839
0.713426
0.783461
0.826737
0.846163
0.849413
0.843428
0.832335
0.831227
-0.463373
-0.45041
-0.402701
-0.326499
-0.234024
-0.131847
-0.0222256
0.0944205
0.218712
0.351261
0.487736
0.610354
0.710552
0.786421
0.83301
0.855499
0.860922
0.857139
0.823026
0.78461
-0.480625
-0.467888
-0.419585
-0.34293