/*--------------------------------*- C++ -*----------------------------------*\
  =========                 |
  \\      /  F ield         | OpenFOAM: The Open Source CFD Toolbox
   \\    /   O peration     | Website:  https://openfoam.org
    \\  /    A nd           | Version:  6
     \\/     M anipulation  |
\*---------------------------------------------------------------------------*/
FoamFile
{
    version     2.0;
    format      ascii;
    class       surfaceScalarField;
    location    "4.7";
    object      phi;
}
// * * * * * * * * * * * * * * * * * * * * * * * * * * * * * * * * * * * * * //

dimensions      [0 3 -1 0 0 0 0];

internalField   nonuniform List<scalar> 
17370
(
-0.0899617
0.0897421
0.28923
-0.0711639
0.0532661
0.364673
-0.0376305
0.0274585
0.42634
-0.019492
0.0144438
0.5043
-0.0105782
0.00821011
0.60177
-0.00629352
0.00508488
0.720266
-0.00402187
0.00323864
0.86369
-0.00243536
0.00183358
1.03605
-0.00122643
0.000743719
1.24299
-0.000258007
-3.20565e-05
1.49148
0.000352332
-0.000851557
1.49169
0.00133103
-0.00193484
1.24329
0.00253027
-0.00332756
1.03644
0.00411514
-0.00517334
0.863965
0.00636732
-0.00827493
0.720965
0.0106291
-0.0144815
0.603067
0.0195214
-0.0274836
0.507401
0.0376525
-0.0532843
0.4318
0.0711779
-0.0897509
0.365349
0.0899668
0.199044
-0.128609
0.0902263
0.0383826
-0.364953
0.353829
-0.0719145
0.0830384
-0.447196
0.455503
-0.0812595
0.0729526
-0.521315
0.530483
-0.0639614
0.0547936
-0.612491
0.621043
-0.0465035
0.0379516
-0.726759
0.733063
-0.030884
0.0245795
-0.867185
0.871483
-0.0197503
0.0154525
-1.03813
1.04105
-0.0121279
0.00920782
-1.24449
1.24647
-0.00697938
0.00500016
-1.49259
1.49439
-0.00331244
0.00150835
-1.49232
1.49402
0.000184356
-0.00187785
-1.2439
1.24556
0.00365041
-0.00531023
-1.03726
1.03948
0.00727932
-0.00950279
-0.865705
0.869012
0.0124093
-0.0157168
-0.724152
0.728958
0.0199899
-0.024796
-0.608432
0.615475
0.0310646
-0.0381078
-0.514876
0.523149
0.0466352
-0.0549084
-0.440109
0.449089
0.0640595
-0.0730403
-0.375847
0.377611
0.0813339
-0.0830978
-0.257508
0.223951
0.0719551
-0.0383982
-0.0733004
0.0663986
0.00690184
-0.0347388
0.0401584
-0.374198
0.368779
-0.0414181
0.0407222
-0.453274
0.45397
-0.0389075
0.0371156
-0.527569
0.529361
-0.0347059
0.0320519
-0.620318
0.622972
-0.0287249
0.0252806
-0.733477
0.736921
-0.0214848
0.0180991
-0.872658
0.876044
-0.0145289
0.0114075
-1.04245
1.04558
-0.00821493
0.00543981
-1.24816
1.25094
-0.00249814
-0.00028846
-1.49663
1.49941
0.00305425
-0.00597229
-1.49706
1.49998
0.00870766
-0.0118363
-1.2493
1.25243
0.0148948
-0.0184263
-1.04443
1.04796
0.0217873
-0.0255736
-0.875701
0.879487
0.0289837
-0.0322807
-0.73809
0.741386
0.0349144
-0.0373115
-0.625895
0.628292
0.0390814
-0.0408673
-0.534754
0.53654
0.0415389
-0.0402529
-0.457242
0.455956
0.0348091
-0.0214152
-0.338739
0.325345
0.00691502
-0.0732513
0.0663363
-0.0636175
0.0630215
0.000595998
-0.0118442
0.018348
-0.362562
0.356058
-0.0238833
0.0275921
-0.452742
0.449033
-0.0296656
0.0301499
-0.529964
0.529479
-0.0296918
0.0287267
-0.624115
0.62508
-0.0270698
0.0253287
-0.739124
0.740865
-0.0228798
0.0202718
-0.87897
0.881578
-0.017084
0.0139907
-1.04865
1.05174
-0.0104004
0.00700164
-1.25409
1.25749
-0.00309315
-0.000727166
-1.50277
1.5066
0.00453209
-0.00841009
-1.50345
1.50733
0.0117569
-0.0152687
-1.25585
1.25936
0.018284
-0.0213671
-1.05126
1.05434
0.0238506
-0.0261462
-0.882361
0.884657
0.0277827
-0.0293502
-0.743089
0.744657
0.0302333
-0.0306083
-0.629187
0.629562
0.0300704
-0.0279366
-0.536877
0.534744
0.0241698
-0.018571
-0.452681
0.447083
0.0119999
-0.00458292
-0.314856
0.307439
0.000620936
-0.0635346
0.0629136
-0.0632791
0.0633592
-8.00969e-05
-0.00329636
0.00716915
-0.350649
0.346776
-0.0119916
0.0160573
-0.444401
0.440336
-0.0197386
0.0221531
-0.527622
0.525208
-0.0238271
0.0244247
-0.625462
0.624865
-0.0241272
0.0230626
-0.742405
0.743469
-0.0212562
0.0191267
-0.883972
0.886102
-0.0163861
0.0135642
-1.05477
1.05759
-0.0101824
0.00682333
-1.2609
1.26426
-0.00286304
-0.0010318
-1.51053
1.51442
0.00489315
-0.00876086
-1.51126
1.51513
0.01202
-0.0152746
-1.26277
1.26603
0.0179565
-0.0205499
-1.05722
1.05981
0.0225638
-0.0242489
-0.886695
0.888381
0.0252065
-0.0253771
-0.745712
0.745883
0.0246594
-0.0228374
-0.628822
0.627
0.0203051
-0.0165001
-0.530982
0.527177
0.0123304
-0.00740503
-0.441021
0.436096
0.00344866
-0.000698331
-0.302951
0.3002
-5.55792e-05
-0.0631453
0.0632009
-0.0631926
0.0630875
0.000105027
-0.00174228
0.00359599
-0.34407
0.342216
-0.00616445
0.00858487
-0.437163
0.434743
-0.0110178
0.0128977
-0.523069
0.521189
-0.0144577
0.0154002
-0.624087
0.623144
-0.0158521
0.0157694
-0.743915
0.743998
-0.0151209
0.0140843
-0.887588
0.888625
-0.0124548
0.0105591
-1.05991
1.0618
-0.0080285
0.00536424
-1.26731
1.26997
-0.00205541
-0.00130842
-1.51814
1.5215
0.00465839
-0.00790164
-1.51876
1.52201
0.0104341
-0.0127958
-1.26885
1.27121
0.0145263
-0.0159568
-1.06175
1.06318
0.0168024
-0.0172438
-0.889316
0.889757
0.0171463
-0.0165076
-0.745562
0.744923
0.0154076
-0.0136904
-0.62528
0.623563
0.0116799
-0.00911667
-0.524038
0.521474
0.0065848
-0.00390012
-0.432434
0.429749
0.0019461
-0.000647703
-0.298297
0.296999
0.000140082
-0.0630053
0.0628652
-0.0630764
0.0630656
1.07717e-05
-0.000669579
0.00146854
-0.340999
0.3402
-0.00265004
0.00385207
-0.432993
0.431791
-0.00517763
0.00631337
-0.519657
0.518521
-0.00741043
0.00821629
-0.62219
0.621384
-0.00882629
0.00909097
-0.743829
0.743565
-0.00902235
0.00860404
-0.88931
0.889728
-0.00773847
0.00658088
-1.06332
1.06448
-0.0049205
0.00306521
-1.27223
1.27408
-0.000713909
-0.00163236
-1.52436
1.52671
0.00392243
-0.00611933
-1.52473
1.52693
0.00781596
-0.0092733
-1.27311
1.27456
0.0102248
-0.010855
-1.06418
1.06481
0.0110564
-0.0108889
-0.889821
0.889654
0.0104145
-0.00958447
-0.744092
0.743262
0.00858874
-0.00729708
-0.621989
0.620697
0.00599495
-0.00450084
-0.519462
0.517968
0.00315693
-0.00183119
-0.427849
0.426523
0.000910192
-0.000295625
-0.296139
0.295525
5.10435e-05
-0.0628174
0.0627664
-0.0630465
0.0630389
7.50693e-06
-0.000320567
0.00068927
-0.339658
0.339289
-0.00123442
0.00180133
-0.430968
0.430401
-0.00244543
0.00302075
-0.51771
0.517135
-0.00360457
0.00406494
-0.620764
0.620304
-0.00444964
0.00465925
-0.743309
0.7431
-0.00469332
0.0045154
-0.889988
0.890166
-0.00405932
0.00339144
-1.06535
1.06601
-0.00237222
0.00119324
-1.27556
1.27674
0.000349802
-0.00194214
-1.52864
1.53024
0.00348771
-0.00489107
-1.52869
1.5301
0.00587793
-0.00664313
-1.27563
1.2764
0.00705919
-0.00722844
-1.06517
1.06534
0.0071436
-0.00682555
-0.889381
0.889063
0.00636456
-0.00571646
-0.742522
0.741874
0.00502827
-0.00421036
-0.619677
0.618859
0.00343581
-0.00258913
-0.51686
0.516013
0.0018515
-0.00113305
-0.425567
0.424848
0.000616788
-0.000238242
-0.295048
0.294669
5.77981e-05
-0.0627022
0.0626444
-0.0630443
0.0630587
-1.44069e-05
-7.33011e-05
0.000224741
-0.339046
0.338895
-0.000460129
0.00071006
-0.430018
0.429768
-0.000999091
0.00126155
-0.516736
0.516474
-0.00153262
0.00174872
-0.619975
0.619759
-0.00192925
0.00202053
-0.742947
0.742855
-0.00201272
0.00188301
-0.890305
0.890435
-0.00158067
0.00114252
-1.06654
1.06698
-0.000472641
-0.000306662
-1.27769
1.27847
0.00132836
-0.00237015
-1.53153
1.53257
0.00335601
-0.00420407
-1.5312
1.53204
0.00475311
-0.00511685
-1.27694
1.2773
0.0052453
-0.0051973
-1.06538
1.06533
0.00500377
-0.00466355
-0.888726
0.888386
0.00426506
-0.00376342
-0.741305
0.740803
0.00327032
-0.00271515
-0.618191
0.617636
0.00221137
-0.0016771
-0.51535
0.514815
0.0012199
-0.000773224
-0.424291
0.423845
0.000441604
-0.000182419
-0.294362
0.294103
4.77474e-05
-0.0625943
0.0625466
-0.0630821
0.0631122
-3.00376e-05
8.20958e-05
-6.09498e-05
-0.338814
0.338792
-1.17726e-06
7.50804e-05
-0.429616
0.429542
-0.000160626
0.000234663
-0.516316
0.516242
-0.000303677
0.00034713
-0.619637
0.619593
-0.000361767
0.000332425
-0.742826
0.742855
-0.00023756
7.88304e-05
-0.890574
0.890732
0.000190494
-0.000534172
-1.06736
1.06771
0.00102523
-0.00157276
-1.27912
1.27967
0.0022647
-0.00294042
-1.53341
1.53408
0.00354464
-0.00402407
-1.53269
1.53317
0.00427986
-0.00437796
-1.27752
1.27762
0.00435206
-0.0041877
-1.06522
1.06505
0.00394749
-0.00361157
-0.888049
0.887713
0.00326064
-0.00284893
-0.740354
0.739942
0.00246336
-0.00204393
-0.617161
0.616742
0.00167257
-0.00128541
-0.514369
0.513982
0.000956287
-0.000631475
-0.423472
0.423147
0.000380796
-0.000170417
-0.293874
0.293664
4.93252e-05
-0.0624986
0.0624492
-0.0631502
0.0631947
-4.44956e-05
0.00020212
-0.000257322
-0.338812
0.338867
0.000307201
-0.000352473
-0.429533
0.429578
0.000406721
-0.000464621
-0.516239
0.516297
0.000541281
-0.000628
-0.619619
0.619706
0.000747314
-0.000885106
-0.74294
0.743078
0.00107576
-0.00129356
-0.890918
0.891136
0.00158777
-0.001911
-1.06803
1.06836
0.00232523
-0.00274928
-1.28014
1.28057
0.0032439
-0.0036856
-1.53463
1.53507
0.00403664
-0.00426037
-1.53351
1.53373
0.00433423
-0.00429044
-1.27763
1.27759
0.00412156
-0.0038664
-1.06484
1.06459
0.00357996
-0.00322843
-0.887372
0.88702
0.0028884
-0.00250872
-0.739553
0.739173
0.00216519
-0.00180037
-0.616358
0.615993
0.00148277
-0.00115517
-0.513633
0.513305
0.000877407
-0.000600011
-0.422852
0.422575
0.000377794
-0.000179132
-0.293463
0.293264
5.52137e-05
-0.0623975
0.0623423
-0.0632471
0.0633089
-6.18052e-05
0.000325677
-0.000457859
-0.338963
0.339096
0.000597585
-0.000730542
-0.429668
0.429801
0.000888487
-0.00104701
-0.516407
0.516565
0.00123867
-0.00143245
-0.619847
0.620041
0.00166784
-0.00190659
-0.743267
0.743505
0.00219698
-0.00249021
-0.89139
0.891683
0.00284271
-0.00319041
-1.06869
1.06903
0.00359244
-0.00396425
-1.28096
1.28133
0.00435135
-0.00464773
-1.53543
1.53573
0.00482827
-0.00486879
-1.53386
1.5339
0.00477734
-0.00458856
-1.27748
1.27729
0.00434544
-0.00401326
-1.06429
1.06396
0.00367507
-0.00328468
-0.886653
0.886262
0.00292265
-0.0025305
-0.738792
0.7384
0.00218338
-0.00182052
-0.615635
0.615272
0.00150804
-0.00118793
-0.512986
0.512666
0.000916744
-0.000643086
-0.422304
0.42203
0.000417136
-0.000205293
-0.293062
0.29285
6.5691e-05
-0.0622824
0.0622168
-0.0633803
0.0634617
-8.14463e-05
0.000450488
-0.000651081
-0.339262
0.339462
0.000875226
-0.00109221
-0.429976
0.430193
0.00134903
-0.00160342
-0.516772
0.517026
0.00190549
-0.00220376
-0.620287
0.620585
0.00255555
-0.00289974
-0.743796
0.74414
0.00330087
-0.00368652
-0.89202
0.892406
0.00412494
-0.00453106
-1.06941
1.06981
0.00496775
-0.00533813
-1.2817
1.28207
0.00568046
-0.00589319
-1.53598
1.53619
0.00596023
-0.00587006
-1.53387
1.53378
0.00566798
-0.00534381
-1.27703
1.2767
0.00498996
-0.00455894
-1.06358
1.06315
0.0041444
-0.00368297
-0.885841
0.885379
0.00326605
-0.00282283
-0.737987
0.737544
0.00243578
-0.00203511
-0.614894
0.614494
0.00169242
-0.00134283
-0.512336
0.511986
0.00104672
-0.000745683
-0.421746
0.421445
0.000492075
-0.000247166
-0.292624
0.292379
8.06365e-05
-0.0621441
0.0620635
-0.0635545
0.0636602
-0.000105719
0.000597257
-0.00087285
-0.339699
0.339975
0.00118653
-0.00149196
-0.430453
0.430759
0.00185318
-0.00220951
-0.51733
0.517686
0.00263005
-0.0030419
-0.620938
0.62135
0.00352242
-0.0039861
-0.744541
0.745005
0.00451716
-0.00501679
-0.892845
0.893345
0.00556966
-0.00606488
-1.07026
1.07076
0.00657473
-0.00698195
-1.28245
1.28286
0.00732292
-0.00748906
-1.53638
1.53654
0.00747034
-0.00726135
-1.53363
1.53342
0.00694183
-0.00648969
-1.27632
1.27586
0.00601821
-0.00546601
-1.06266
1.06211
0.00494854
-0.00438344
-0.88487
0.884305
0.00387988
-0.00335002
-0.737062
0.736532
0.00289079
-0.00241805
-0.614061
0.613588
0.00201528
-0.00160544
-0.51161
0.5112
0.00125835
-0.000903982
-0.421121
0.420766
0.00060199
-0.000305554
-0.292111
0.291814
0.000100634
-0.0619736
0.0618729
-0.0637806
0.0639174
-0.000136859
0.000779582
-0.00114431
-0.340293
0.340657
0.00156225
-0.00196999
-0.431113
0.431521
0.00245201
-0.00292663
-0.518099
0.518574
0.00348533
-0.00403053
-0.621825
0.622371
0.00466359
-0.00527066
-0.745537
0.746144
0.00596031
-0.00660239
-0.893912
0.894554
0.00730326
-0.00791999
-1.07131
1.07192
0.00853938
-0.00901612
-1.2833
1.28377
0.00938829
-0.00953135
-1.53669
1.53684
0.00943939
-0.00911201
-1.53315
1.53282
0.00866376
-0.00806148
-1.27534
1.27474
0.00744971
-0.00674505
-1.06149
1.06078
0.00609323
-0.00538813
-0.883675
0.88297
0.00476434
-0.00411143
-0.735945
0.735292
0.00354779
-0.00296922
-0.613067
0.612489
0.00247733
-0.00197745
-0.510749
0.510249
0.00155416
-0.00112103
-0.420376
0.419943
0.000749749
-0.000382365
-0.291485
0.291117
0.000126439
-0.0617602
0.0616337
-0.0640731
0.0642502
-0.00017715
0.00101132
-0.00148662
-0.341074
0.341549
0.00203258
-0.00256551
-0.431987
0.43252
0.00319538
-0.00381491
-0.519117
0.519736
0.00454312
-0.00525229
-0.622993
0.623702
0.00607363
-0.00685854
-0.746835
0.74762
0.00774626
-0.00856795
-0.89528
0.896102
0.00945806
-0.0102333
-1.07261
1.07339
0.0110006
-0.0115777
-1.2843
1.28487
0.0120074
-0.0121409
-1.53697
1.53711
0.0119756
-0.0115159
-1.53243
1.53197
0.0109166
-0.0101306
-1.27405
1.27326
0.00934326
-0.0084448
-1.05999
1.05909
0.00761935
-0.00673096
-0.882179
0.881291
0.00594801
-0.00513093
-0.734563
0.733746
0.00442712
-0.00370587
-0.611844
0.611122
0.00309337
-0.00247135
-0.509693
0.509071
0.00194465
-0.00140512
-0.41946
0.418921
0.000941364
-0.000480881
-0.290707
0.290246
0.000159184
-0.0614919
0.0613327
-0.064452
0.0646819
-0.000229904
0.00131086
-0.00192682
-0.342091
0.342707
0.00263471
-0.00332562
-0.433128
0.433818
0.00414197
-0.00494416
-0.520442
0.521244
0.00588603
-0.00680198
-0.624509
0.625425
0.00786077
-0.00887017
-0.74851
0.749519
0.0100082
-0.0110574
-0.897031
0.89808
0.012188
-0.0131658
-1.07426
1.07524
0.0141238
-0.0148327
-1.28551
1.28622
0.0153423
-0.0154718
-1.53724
1.53737
0.0152217
-0.0146017
-1.53144
1.53082
0.0138158
-0.0127994
-1.27237
1.27135
0.0117898
-0.0106445
-1.05807
1.05693
0.00959652
-0.00847216
-0.880292
0.879167
0.00748346
-0.00645344
-0.732829
0.731799
0.00556734
-0.00466017
-0.610314
0.609407
0.00389033
-0.00310891
-0.508374
0.507593
0.00244733
-0.00176936
-0.418316
0.417638
0.00118597
-0.000605951
-0.28973
0.28915
0.00020051
-0.0611541
0.0609535
-0.0649442
0.0652439
-0.000299704
0.0017028
-0.00250052
-0.343407
0.344205
0.00341679
-0.00431066
-0.434604
0.435498
0.0053663
-0.00640259
-0.522156
0.523192
0.00761787
-0.00879801
-0.626465
0.627645
0.0101597
-0.0114549
-0.750663
0.751958
0.012911
-0.0142486
-0.899265
0.900602
0.0156832
-0.0169162
-1.07634
1.07757
0.0181135
-0.0189871
-1.28701
1.28788
0.0195954
-0.0197176
-1.53749
1.53762
0.0193591
-0.0185354
-1.5301
1.52928
0.0175129
-0.016204
-1.2702
1.26889
0.0149122
-0.0134527
-1.05563
1.05417
0.0121213
-0.0106959
-0.877901
0.876476
0.00944456
-0.0081424
-0.730641
0.729339
0.00702315
-0.00587799
-0.608388
0.607243
0.00490661
-0.00392087
-0.506715
0.505729
0.00308638
-0.00223111
-0.416877
0.416022
0.001495
-0.000763265
-0.288498
0.287766
0.000252228
-0.0607286
0.0604764
-0.0655872
0.0659804
-0.000393228
0.00222203
-0.00325757
-0.345113
0.346149
0.0044454
-0.00560329
-0.436515
0.437673
0.00696942
-0.00830883
-0.52437
0.525709
0.00987728
-0.0113977
-0.628984
0.630504
0.0131482
-0.0148088
-0.753425
0.755086
0.0166696
-0.0183718
-0.902112
0.903814
0.0201879
-0.0217381
-1.07895
1.0805
0.023229
-0.0243
-1.28885
1.28992
0.0250195
-0.0251202
-1.53773
1.53783
0.0246142
-0.0235254
-1.52833
1.52724
0.0221995
-0.020518
-1.26741
1.26572
0.0188678
-0.0170101
-1.05253
1.05067
0.0153197
-0.013513
-0.874871
0.873064
0.0119288
-0.0102817
-0.727875
0.726227
0.00886677
-0.00741974
-0.605956
0.604509
0.00619267
-0.00494768
-0.504622
0.503377
0.00389377
-0.0028136
-0.415061
0.413981
0.00188408
-0.000960733
-0.286944
0.286021
0.000316904
-0.0601936
0.0598767
-0.0664337
0.0669543
-0.000520601
0.00292044
-0.00427186
-0.347329
0.348681
0.00581888
-0.00732516
-0.438991
0.440497
0.0090985
-0.0108339
-0.527233
0.528968
0.0128616
-0.0148225
-0.632232
0.634193
0.0170737
-0.0192021
-0.756966
0.759095
0.0215767
-0.0237376
-0.905733
0.907893
0.0260276
-0.0279654
-1.08224
1.08418
0.0298065
-0.0311032
-1.2911
1.2924
0.0319344
-0.0319822
-1.53791
1.53796
0.0312693
-0.0298315
-1.52599
1.52455
0.0281152
-0.0259598
-1.26382
1.26166
0.0238563
-0.0214964
-1.04858
1.04622
0.0193536
-0.0170667
-0.871031
0.868744
0.0150632
-0.0129814
-0.724375
0.722293
0.0111938
-0.00936586
-0.602882
0.601054
0.00781582
-0.00624302
-0.501978
0.500405
0.00491143
-0.0035466
-0.412767
0.411402
0.00237262
-0.00120788
-0.284984
0.283819
0.000397524
-0.0595217
0.0591242
-0.0675605
0.0682593
-0.000698802
0.00388123
-0.00566231
-0.350222
0.352003
0.00769452
-0.00966741
-0.442213
0.444185
0.0119794
-0.0142347
-0.530948
0.533203
0.0168608
-0.0193926
-0.636425
0.638957
0.0222884
-0.0250141
-0.761506
0.764232
0.0280378
-0.0307695
-0.910325
0.913057
0.0336375
-0.0360357
-1.08633
1.08873
0.0382764
-0.0398127
-1.29381
1.29535
0.0407322
-0.0406684
-1.53796
1.5379
0.0396615
-0.0377631
-1.5229
1.521
0.0355469
-0.0327931
-1.25923
1.25647
0.0301212
-0.0271337
-1.04356
1.04057
0.0244262
-0.0215396
-0.866173
0.863286
0.0190122
-0.0163864
-0.719953
0.717328
0.0141317
-0.0118255
-0.599
0.596694
0.00986899
-0.00788243
-0.498638
0.496652
0.00619924
-0.0044732
-0.40987
0.408144
0.00298916
-0.0015191
-0.282512
0.281042
0.000498852
-0.0586789
0.05818
-0.0690825
0.0700467
-0.000964136
0.00526371
-0.00765325
-0.354022
0.356412
0.010358
-0.0129605
-0.446431
0.449033
0.015982
-0.0189138
-0.535794
0.538726
0.0223132
-0.0255809
-0.641857
0.645124
0.0293033
-0.0327875
-0.767323
0.770807
0.0366218
-0.0400502
-0.916118
0.919547
0.0436012
-0.0465206
-1.09138
1.0943
0.049184
-0.0509405
-1.297
1.29876
0.0518817
-0.0516066
-1.53774
1.53747
0.0501817
-0.0476798
-1.51882
1.51632
0.0448311
-0.0413329
-1.25337
1.24987
0.0379599
-0.0341997
-1.03721
1.03345
0.0307973
-0.0271712
-0.860044
0.856418
0.0239966
-0.0206974
-0.714376
0.711077
0.0178628
-0.0149606
-0.594101
0.591199
0.0124946
-0.0099855
-0.494424
0.491914
0.00785398
-0.00566379
-0.406213
0.404023
0.00378046
-0.00191853
-0.279394
0.277532
0.000629598
-0.0576216
0.056992
-0.0711774
0.0725813
-0.0014039
0.00741815
-0.0107021
-0.359066
0.36235
0.014334
-0.0177587
-0.452018
0.455443
0.0216762
-0.0254646
-0.542173
0.545961
0.0298512
-0.0340656
-0.648917
0.653131
0.0388495
-0.0432924
-0.774754
0.779197
0.0481212
-0.0523704
-0.923352
0.927602
0.0566843
-0.0601437
-1.09747
1.10093
0.0631928
-0.0650881
-1.30059
1.30248
0.0659169
-0.0652737
-1.53703
1.53639
0.0632622
-0.0599817
-1.51345
1.51017
0.0563486
-0.051947
-1.24594
1.24153
0.0477309
-0.0430441
-1.02924
1.02456
0.0388073
-0.0342904
-0.852349
0.847832
0.0303332
-0.0262163
-0.707359
0.703242
0.0226747
-0.0190424
-0.587923
0.58429
0.0159465
-0.0127816
-0.489102
0.485937
0.0100746
-0.0072736
-0.401595
0.398794
0.0048549
-0.00246458
-0.275458
0.273068
0.000812709
-0.0562936
0.0554809
-0.0741457
0.0763526
-0.0022069
0.0110679
-0.0156204
-0.365899
0.370451
0.0204209
-0.0248407
-0.459574
0.463994
0.0298491
-0.0347304
-0.550661
0.555542
0.0404229
-0.0458915
-0.658097
0.663566
0.0520514
-0.0576836
-0.784159
0.789792
0.0636731
-0.0688117
-0.932201
0.937339
0.0738775
-0.0777957
-1.10457
1.10849
0.0810784
-0.0829294
-1.30434
1.30619
0.0834132
-0.0821718
-1.53545
1.53421
0.0793562
-0.0750949
-1.50641
1.50215
0.0705172
-0.0650571
-1.23661
1.23115
0.0598666
-0.0541132
-1.01934
1.01358
0.048915
-0.0433677
-0.842765
0.837218
0.0385001
-0.0334257
-0.698566
0.693491
0.0290515
-0.0245559
-0.58013
0.575635
0.0207082
-0.0167441
-0.482363
0.478399
0.0133074
-0.00968618
-0.39575
0.392128
0.00649909
-0.00331643
-0.27048
0.267298
0.00110852
-0.0546188
0.0535102
-0.0785926
0.0823635
-0.00377083
0.0176768
-0.0239412
-0.375536
0.3818
0.030148
-0.0358081
-0.470033
0.475693
0.0423295
-0.0487541
-0.561999
0.568423
0.0562612
-0.0633638
-0.669913
0.677016
0.0711573
-0.0780559
-0.795798
0.802696
0.0851395
-0.0909987
-0.942619
0.948478
0.0965448
-0.100621
-1.11236
1.11643
0.103768
-0.105227
-1.30778
1.30924
0.104982
-0.102815
-1.53247
1.5303
0.0989212
-0.0934541
-1.49726
1.4918
0.0877802
-0.0811336
-1.22507
1.21843
0.0748757
-0.0679688
-1.00721
1.00031
0.061732
-0.0550671
-0.831002
0.824337
0.0492045
-0.0430729
-0.687654
0.681522
0.0377706
-0.0323051
-0.570321
0.564855
0.0275978
-0.022696
-0.473773
0.468872
0.0183651
-0.0136234
-0.38827
0.383528
0.00927341
-0.00478711
-0.264128
0.259642
0.00161413
-0.0524683
0.0508542
-0.0858548
0.0931934
-0.00733861
0.0315761
-0.0405826
-0.389825
0.398831
0.0485614
-0.0557605
-0.48468
0.491879
0.0643193
-0.0727304
-0.57689
0.585301
0.0822549
-0.0908723
-0.68467
0.693287
0.0999
-0.107522
-0.809536
0.817157
0.11502
-0.120935
-0.954078
0.959993
0.126231
-0.129807
-1.12007
1.12364
0.132143
-0.132621
-1.31008
1.31055
0.131092
-0.127551
-1.52735
1.52381
0.122238
-0.115327
-1.48554
1.47863
0.108415
-0.100498
-1.21108
1.20317
0.0931389
-0.0850781
-0.992731
0.98467
0.0778178
-0.0700553
-0.816925
0.809162
0.0632088
-0.0560228
-0.674427
0.667241
0.0497782
-0.0432984
-0.558173
0.551694
0.0376788
-0.0318
-0.462818
0.456939
0.0264471
-0.0201139
-0.378516
0.372183
0.0138294
-0.00703926
-0.255591
0.248801
0.00225825
-0.0495506
0.0472924
-0.100818
0.103383
-0.00256484
0.0186434
-0.0267637
-0.411377
0.419497
0.0350687
-0.0431221
-0.504281
0.512335
0.0528506
-0.0628569
-0.595163
0.605169
0.0737241
-0.0833419
-0.701562
0.71118
0.0939823
-0.103365
-0.824066
0.833449
0.113079
-0.121385
-0.965067
0.973372
0.129617
-0.136188
-1.12625
1.13282
0.142032
-0.14586
-1.30998
1.31381
0.147945
-0.147436
-1.51918
1.51867
0.144228
-0.138679
-1.47078
1.46523
0.132083
-0.123625
-1.19452
1.18606
0.11528
-0.105166
-0.975966
0.965853
0.095757
-0.0852464
-0.80072
0.790209
0.0756932
-0.065384
-0.659098
0.648788
0.0559619
-0.0462289
-0.54384
0.534107
0.0379709
-0.0290463
-0.44942
0.440496
0.0211135
-0.0127081
-0.365468
0.357062
0.00599308
-0.00116397
-0.242613
0.237784
-0.000649781
-0.0449334
0.0455832
-0.1107
0.105253
0.00544755
-0.00465498
-6.39195e-05
-0.431776
0.436495
0.00760556
-0.0150416
-0.523537
0.530973
0.024223
-0.0327736
-0.615159
0.62371
0.0423753
-0.0511059
-0.720757
0.729488
0.0603947
-0.0687676
-0.84236
0.850733
0.0774308
-0.0845534
-0.981366
0.988489
0.0917995
-0.0972938
-1.13926
1.14476
0.102152
-0.105117
-1.31751
1.32047
0.106175
-0.105054
-1.51767
1.51655
0.101475
-0.0958669
-1.45929
1.45368
0.089312
-0.0812205
-1.1776
1.16951
0.0734589
-0.0645612
-0.956019
0.947121
0.0562197
-0.0469186
-0.779754
0.770453
0.0385636
-0.0299287
-0.637829
0.629195
0.0225363
-0.0149487
-0.523031
0.515443
0.00857897
-0.00246393
-0.429161
0.423046
-0.00230225
0.00599042
-0.346261
0.342572
-0.00736219
0.00608083
-0.229801
0.231082
-0.00310437
-0.043298
0.0464024
-0.106911
0.102415
0.00449643
-0.00922204
0.00720588
-0.446517
0.448533
-0.00239159
-0.00330801
-0.540193
0.545892
0.0103569
-0.0172854
-0.63222
0.639149
0.0251242
-0.0322929
-0.73758
0.744749
0.040124
-0.0470755
-0.858294
0.865246
0.0540851
-0.0602075
-0.995345
1.00147
0.066299
-0.0710327
-1.14986
1.15459
0.0748624
-0.0770245
-1.32295
1.32511
0.077761
-0.0764293
-1.5151
1.51377
0.0729804
-0.0678791
-1.44802
1.44292
0.0621572
-0.0554677
-1.16196
1.15527
0.0488694
-0.0417216
-0.938709
0.931561
0.0352039
-0.0281365
-0.762295
0.755228
0.0221488
-0.0160297
-0.621199
0.61508
0.0110582
-0.00598542
-0.507574
0.502502
0.00215331
0.00120227
-0.41541
0.412054
-0.00361153
0.00516765
-0.335585
0.334029
-0.00518222
0.00346125
-0.225547
0.227268
-0.00177211
-0.045141
0.0469132
-0.103342
0.0997832
0.00355886
-0.00925357
0.00874338
-0.456248
0.456758
-0.00556479
0.00108127
-0.552718
0.557202
0.00465657
-0.0100499
-0.645623
0.651016
0.0162883
-0.0220313
-0.751453
0.757196
0.028304
-0.0339065
-0.871595
0.877197
0.0399234
-0.044837
-1.00706
1.01198
0.0499299
-0.0534733
-1.15888
1.16243
0.0566127
-0.058326
-1.32713
1.32885
0.0586933
-0.0571465
-1.51231
1.51076
0.0541904
-0.049958
-1.43785
1.43362
0.045238
-0.0395371
-1.14902
1.14332
0.0343046
-0.0287644
-0.924901
0.91936
0.0236429
-0.0184533
-0.748963
0.743773
0.0137661
-0.00921184
-0.609177
0.604623
0.0054814
-0.00197427
-0.497172
0.493665
-0.000590841
0.00284981
-0.406655
0.404396
-0.00441395
0.00494404
-0.328676
0.328146
-0.00473501
0.00315388
-0.222584
0.224165
-0.00156142
-0.0453787
0.0469401
-0.101261
0.0987214
0.00253966
-0.00743369
0.00771172
-0.463035
0.462757
-0.00514767
0.00178778
-0.562619
0.565979
0.00251144
-0.00702296
-0.656235
0.660746
0.0118989
-0.0166506
-0.762404
0.767155
0.0217445
-0.0263063
-0.882287
0.886849
0.0311507
-0.0352686
-1.01664
1.02076
0.0393044
-0.0423874
-1.16576
1.16884
0.0448953
-0.0461867
-1.33025
1.33154
0.0463153
-0.0448146
-1.50926
1.50776
0.0421929
-0.0383995
-1.42918
1.42539
0.0344312
-0.029839
-1.13809
1.1335
0.0255979
-0.021025
-0.914092
0.909519
0.0170088
-0.0128554
-0.738848
0.734695
0.00929668
-0.00573312
-0.600258
0.596694
0.00290046
-0.000260264
-0.489603
0.486962
-0.00181333
0.00348682
-0.400402
0.398729
-0.00434879
0.00472633
-0.323952
0.323575
-0.00445213
0.00272839
-0.220064
0.221788
-0.00135779
-0.0455603
0.046918
-0.100467
0.0984265
0.00204059
-0.00589973
0.00601541
-0.468169
0.468053
-0.00428554
0.00141035
-0.56987
0.572745
0.00248748
-0.00609472
-0.664689
0.668297
0.0100503
-0.0139547
-0.771289
0.775193
0.01823
-0.0220846
-0.891034
0.894888
0.026287
-0.0296522
-1.02451
1.02788
0.0330304
-0.0355814
-1.17156
1.17411
0.0375385
-0.0384409
-1.33255
1.33345
0.0382813
-0.0370582
-1.50625
1.50503
0.0345706
-0.0313262
-1.42147
1.41822
0.0278536
-0.0238955
-1.1291
1.12514
0.0205034
-0.0165548
-0.905204
0.901256
0.0131716
-0.00983443
-0.730782
0.727445
0.00691857
-0.00401079
-0.593366
0.590458
0.00166884
0.000670983
-0.483827
0.481488
-0.00217505
0.00346169
-0.395543
0.394256
-0.00432284
0.0044969
-0.320031
0.319857
-0.00404779
0.00254511
-0.2182
0.219703
-0.00121948
-0.0456563
0.0468757
-0.100301
0.0986646
0.00163683
-0.00454746
0.004572
-0.472606
0.472582
-0.00274764
0.000434521
-0.576234
0.578547
0.00302498
-0.00618459
-0.671711
0.67487
0.0098804
-0.0131064
-0.778859
0.782085
0.016704
-0.0199512
-0.898685
0.901932
0.0237698
-0.0266197
-1.03118
1.03403
0.0293545
-0.0315449
-1.17637
1.17856
0.0334284
-0.0339851
-1.33425
1.3348
0.0336585
-0.0322548
-1.50341
1.50201
0.0300983
-0.0268432
-1.41491
1.41165
0.0238525
-0.0204706
-1.12127
1.11788
0.0173959
-0.0141458
-0.897602
0.894352
0.0111966
-0.00816377
-0.72409
0.721057
0.00588444
-0.0033089
-0.587579
0.585004
0.00117591
0.000698297
-0.478891
0.477017
-0.0021262
0.00339762
-0.391689
0.390418
-0.00403525
0.00414077
-0.316998
0.316893
-0.00366723
0.00230871
-0.216664
0.218023
-0.00111835
-0.0457354
0.0468538
-0.100573
0.0992063
0.00136661
-0.00343423
0.00336974
-0.476664
0.476729
-0.00139195
-0.000898305
-0.581815
0.584105
0.00403378
-0.00683403
-0.677911
0.680711
0.00994417
-0.0130647
-0.785384
0.788505
0.0163223
-0.0196668
-0.904996
0.90834
0.022747
-0.0253279
-1.03689
1.03947
0.0280104
-0.0297777
-1.18051
1.18228
0.030925
-0.0315642
-1.3351
1.33574
0.0310333
-0.0295583
-1.50051
1.49903
0.0272874
-0.0243763
-1.40859
1.40567
0.0215855
-0.0184781
-1.11433
1.11123
0.01576
-0.0128226
-0.891147
0.88821
0.0102073
-0.00765979
-0.718231
0.715684
0.00536256
-0.00314261
-0.582442
0.580222
0.001342
0.000514227
-0.474814
0.472958
-0.00191748
0.00287869
-0.388151
0.387189
-0.00353565
0.00374435
-0.31434
0.314132
-0.00337087
0.002106
-0.215402
0.216667
-0.00103411
-0.0458664
0.0469005
-0.101271
0.100038
0.00123271
-0.0022394
0.00185369
-0.480651
0.481037
2.84518e-05
-0.00233617
-0.587035
0.589343
0.00518981
-0.00795299
-0.683694
0.686457
0.0109999
-0.0138221
-0.791532
0.794354
0.0172439
-0.0198763
-0.911154
0.913787
0.0228917
-0.0252154
-1.04211
1.04444
0.0276254
-0.0293441
-1.18387
1.18559
0.0304244
-0.0304581
-1.33591
1.33595
0.0297295
-0.0281218
-1.49724
1.49564
0.0259932
-0.0230036
-1.40256
1.39957
0.0203756
-0.0174549
-1.10826
1.10534
0.0149847
-0.0122368
-0.885197
0.882449
0.00993884
-0.00751031
-0.713064
0.710635
0.00541351
-0.00331397
-0.577953
0.575854
0.00152856
1.69158e-05
-0.470936
0.46939
-0.00142259
0.00240486
-0.384976
0.383994
-0.0031649
0.00337393
-0.31187
0.311661
-0.00300876
0.00198016
-0.214236
0.215265
-0.000909788
-0.0460008
0.0469106
-0.102113
0.101201
0.000912224
-0.0012194
0.000309126
-0.4848
0.48571
0.00145204
-0.00380302
-0.591741
0.594092
0.0064044
-0.00914233
-0.689177
0.691915
0.0121386
-0.0151719
-0.797138
0.800171
0.0181049
-0.0209236
-0.916603
0.919421
0.0238964
-0.02597
-1.04706
1.04914
0.0282999
-0.0297332
-1.18694
1.18837
0.0304814
-0.0305507
-1.33608
1.33615
0.0296328
-0.0276324
-1.49372
1.49172
0.0251378
-0.0223118
-1.39657
1.39374
0.0198762
-0.0170635
-1.10232
1.09951
0.0146769
-0.0123344
-0.879757
0.877415
0.00989361
-0.00779617
-0.708122
0.706024
0.00585658
-0.00380934
-0.57392
0.571872
0.00225387
-0.000647201
-0.46734
0.465733
-0.000644901
0.0018357
-0.382179
0.380989
-0.00252462
0.00282456
-0.309577
0.309278
-0.00270703
0.00180518
-0.213182
0.214084
-0.000831146
-0.046056
0.0468871
-0.103279
0.102542
0.000736644
-0.000337674
-0.000573053
-0.489134
0.490045
0.00293278
-0.00506395
-0.596701
0.598832
0.00788886
-0.0106145
-0.694426
0.697152
0.0135975
-0.0163701
-0.802982
0.805755
0.0195088
-0.0220867
-0.922234
0.924812
0.0250265
-0.027454
-1.05152
1.05395
0.0293222
-0.0308265
-1.18964
1.19115
0.0315511
-0.0311697
-1.33577
1.33539
0.0298666
-0.027783
-1.48949
1.4874
0.0249456
-0.0221248
-1.39055
1.38773
0.0195245
-0.01693
-1.09677
1.09417
0.0148353
-0.0126022
-0.874851
0.872618
0.0105095
-0.0085068
-0.703642
0.701639
0.00670437
-0.0046939
-0.569859
0.567849
0.00307917
-0.00157938
-0.463924
0.462424
0.000126795
0.00108019
-0.379264
0.378057
-0.00189775
0.00234836
-0.307264
0.306814
-0.00227927
0.00152286
-0.212239
0.212996
-0.000686913
-0.0461053
0.0467923
-0.104678
0.104149
0.000529178
0.000686172
-0.00184832
-0.493585
0.494747
0.00407752
-0.00645814
-0.601455
0.603836
0.00930547
-0.0120131
-0.699694
0.702402
0.0152204
-0.0179833
-0.808602
0.811365
0.0211016
-0.0238754
-0.927838
0.930612
0.0267523
-0.0291137
-1.05613
1.05849
0.0310632
-0.0323709
-1.19234
1.19365
0.0328615
-0.0326079
-1.33488
1.33463
0.0308504
-0.0281048
-1.48471
1.48197
0.0249901