/*--------------------------------*- C++ -*----------------------------------*\
  =========                 |
  \\      /  F ield         | OpenFOAM: The Open Source CFD Toolbox
   \\    /   O peration     | Website:  https://openfoam.org
    \\  /    A nd           | Version:  6
     \\/     M anipulation  |
\*---------------------------------------------------------------------------*/
FoamFile
{
    version     2.0;
    format      ascii;
    class       volVectorField;
    location    "38.6";
    object      U;
}
// * * * * * * * * * * * * * * * * * * * * * * * * * * * * * * * * * * * * * //

dimensions      [0 1 -1 0 0 0 0];

internalField   nonuniform List<vector> 
8800
(
(0.987188 -0.0766667 0)
(1.0019 -0.0551917 0)
(0.999747 -0.0285506 0)
(1.00004 -0.0151435 0)
(1.00006 -0.00853927 0)
(1.00005 -0.00503799 0)
(1.00003 -0.00300597 0)
(1 -0.00172343 0)
(0.999987 -0.000824781 0)
(1.00005 -0.000111088 0)
(0.999988 0.000611381 0)
(1 0.0013719 0)
(1.00001 0.00239991 0)
(1.00002 0.00398353 0)
(1.00002 0.00662259 0)
(1.00001 0.0113628 0)
(0.999904 0.0208089 0)
(0.999152 0.0386675 0)
(1.00709 0.0724554 0)
(0.771213 0.0366605 0)
(0.363046 -0.0160197 0)
(1.04329 -0.0768289 0)
(1.0846 -0.0704699 0)
(1.04521 -0.0535722 0)
(1.02327 -0.0389274 0)
(1.01195 -0.0262546 0)
(1.00635 -0.0169148 0)
(1.00355 -0.0104115 0)
(1.00213 -0.00576219 0)
(1.00145 -0.00211669 0)
(1.00131 0.00118597 0)
(1.00169 0.0045502 0)
(1.00266 0.00849578 0)
(1.00463 0.0138627 0)
(1.00858 0.0215973 0)
(1.01655 0.0325783 0)
(1.03247 0.0464976 0)
(1.06264 0.0616227 0)
(1.09188 0.076072 0)
(0.838712 0.0565501 0)
(0.216776 -0.00243234 0)
(1.07586 -0.0501699 0)
(1.09987 -0.0483614 0)
(1.06461 -0.0405217 0)
(1.03994 -0.0336679 0)
(1.02379 -0.0261598 0)
(1.01403 -0.0186225 0)
(1.0085 -0.0118464 0)
(1.00555 -0.00600544 0)
(1.00432 -0.000600445 0)
(1.00467 0.00464409 0)
(1.00661 0.0100267 0)
(1.0106 0.0161318 0)
(1.01792 0.0231874 0)
(1.03054 0.0306873 0)
(1.05062 0.0377405 0)
(1.08035 0.0444402 0)
(1.10629 0.0512761 0)
(0.942647 0.0415831 0)
(0.216247 0.00245738 0)
(0.175059 -0.000819631 0)
(1.01755 -0.0355358 0)
(1.10515 -0.0414624 0)
(1.0782 -0.036161 0)
(1.05333 -0.030236 0)
(1.03604 -0.0246891 0)
(1.02387 -0.019019 0)
(1.01579 -0.0129781 0)
(1.01097 -0.00682024 0)
(1.00881 -0.000530151 0)
(1.00941 0.00569042 0)
(1.01268 0.0116942 0)
(1.01888 0.017566 0)
(1.02878 0.0231923 0)
(1.04326 0.0285361 0)
(1.06379 0.0340517 0)
(1.09362 0.040062 0)
(1.09353 0.0418583 0)
(0.827445 0.0228672 0)
(0.174167 0.000847588 0)
(0.153805 -0.00061374 0)
(0.955896 -0.0255202 0)
(1.10332 -0.0352347 0)
(1.08754 -0.0327845 0)
(1.0615 -0.0281536 0)
(1.04387 -0.0231657 0)
(1.03147 -0.0179866 0)
(1.02267 -0.0125217 0)
(1.01689 -0.00664183 0)
(1.0141 -0.000211078 0)
(1.01483 0.00623973 0)
(1.01885 0.0121204 0)
(1.02586 0.0174357 0)
(1.03616 0.0224045 0)
(1.05076 0.027225 0)
(1.072 0.0318007 0)
(1.10019 0.0357664 0)
(1.06835 0.0338798 0)
(0.740092 0.0142506 0)
(0.152467 0.000645232 0)
(0.139372 -0.000470506 0)
(0.8988 -0.0191523 0)
(1.09554 -0.0302196 0)
(1.09554 -0.029358 0)
(1.06896 -0.0256398 0)
(1.0505 -0.021543 0)
(1.0376 -0.0168601 0)
(1.02856 -0.0116621 0)
(1.02252 -0.00599518 0)
(1.01948 0.000272225 0)
(1.02018 0.00655238 0)
(1.0243 0.0121782 0)
(1.03144 0.0171629 0)
(1.04199 0.0216772 0)
(1.0572 0.0257102 0)
(1.07942 0.0292494 0)
(1.10253 0.0319338 0)
(1.03651 0.0279185 0)
(0.673865 0.0101303 0)
(0.137489 0.000506706 0)
(0.128765 -0.000365277 0)
(0.84898 -0.0147964 0)
(1.08297 -0.0261077 0)
(1.1011 -0.0264637 0)
(1.0757 -0.0232446 0)
(1.05672 -0.0196812 0)
(1.04341 -0.0155158 0)
(1.03401 -0.0106686 0)
(1.02773 -0.00521775 0)
(1.02451 0.000850077 0)
(1.0251 0.00690146 0)
(1.02924 0.0122472 0)
(1.03652 0.016846 0)
(1.04735 0.0208098 0)
(1.06295 0.0241985 0)
(1.08562 0.0271899 0)
(1.10177 0.0289927 0)
(1.00195 0.0233327 0)
(0.62248 0.00774272 0)
(0.12622 0.00040791 0)
(0.120652 -0.000284906 0)
(0.80659 -0.0116433 0)
(1.0675 -0.0225133 0)
(1.10446 -0.0238317 0)
(1.08181 -0.0209968 0)
(1.0624 -0.0176535 0)
(1.04881 -0.0138623 0)
(1.03914 -0.00943061 0)
(1.0326 -0.0042993 0)
(1.02916 0.00154643 0)
(1.02961 0.00735407 0)
(1.03374 0.0123406 0)
(1.04111 0.0164322 0)
(1.05208 0.0198337 0)
(1.06794 0.02279 0)
(1.09097 0.0255519 0)
(1.09821 0.0265242 0)
(0.96722 0.0197078 0)
(0.581411 0.0061788 0)
(0.117305 0.000335613 0)
(0.114346 -0.000221967 0)
(0.770856 -0.0092793 0)
(1.05048 -0.0193496 0)
(1.10669 -0.0214621 0)
(1.08754 -0.0190511 0)
(1.0677 -0.0158865 0)
(1.05386 -0.0122304 0)
(1.04402 -0.00797245 0)
(1.03727 -0.00310091 0)
(1.0336 0.0023993 0)
(1.03388 0.00781166 0)
(1.03792 0.0123996 0)
(1.04524 0.016136 0)
(1.05626 0.0192367 0)
(1.07237 0.0218774 0)
(1.09512 0.0242749 0)
(1.09195 0.0244273 0)
(0.933634 0.01686 0)
(0.547687 0.00509183 0)
(0.110024 0.000282347 0)
(0.109419 -0.000171037 0)
(0.740881 -0.00743403 0)
(1.03299 -0.0165122 0)
(1.10783 -0.0191415 0)
(1.09284 -0.0170561 0)
(1.0728 -0.0140124 0)
(1.05872 -0.0105085 0)
(1.04866 -0.00645565 0)
(1.04168 -0.00182732 0)
(1.03774 0.00341387 0)
(1.03781 0.00852332 0)
(1.0417 0.0127017 0)
(1.04896 0.0160061 0)
(1.06 0.0187142 0)
(1.07627 0.0210615 0)
(1.09798 0.0231293 0)
(1.08335 0.0225752 0)
(0.901842 0.0146263 0)
(0.519323 0.00431071 0)
(0.10391 0.000243653 0)
(0.105587 -0.000129255 0)
(0.715856 -0.00594136 0)
(1.01593 -0.0139745 0)
(1.10823 -0.0169334 0)
(1.0981 -0.015116 0)
(1.07772 -0.0120935 0)
(1.06334 -0.00866964 0)
(1.05312 -0.00475077 0)
(1.04597 -0.000301494 0)
(1.0418 0.00464937 0)
(1.04156 0.00937143 0)
(1.04516 0.0131837 0)
(1.05222 0.0161341 0)
(1.06323 0.0184989 0)
(1.0798 0.020558 0)
(1.09966 0.0222821 0)
(1.07298 0.0210605 0)
(0.872037 0.012918 0)
(0.494917 0.00375335 0)
(0.098638 0.000217619 0)
(0.102664 -9.25142e-05 0)
(0.695184 -0.0046735 0)
(0.999855 -0.0116142 0)
(1.10778 -0.0147434 0)
(1.10309 -0.0132329 0)
(1.08263 -0.0102549 0)
(1.06795 -0.00679802 0)
(1.05749 -0.00287943 0)
(1.05003 0.00143258 0)
(1.0455 0.0061319 0)
(1.04491 0.0105076 0)
(1.04825 0.0139053 0)
(1.05515 0.0164957 0)
(1.06615 0.0185732 0)
(1.08284 0.0203693 0)
(1.10034 0.0216593 0)
(1.06103 0.0197683 0)
(0.844154 0.0115902 0)
(0.473468 0.00334732 0)
(0.0939529 0.000199517 0)
(0.100538 -5.84447e-05 0)
(0.67843 -0.0035463 0)
(0.985339 -0.00938593 0)
(1.10683 -0.0124149 0)
(1.10772 -0.0110024 0)
(1.08748 -0.00801503 0)
(1.07248 -0.00461015 0)
(1.06167 -0.000789649 0)
(1.05387 0.0034056 0)
(1.04895 0.00792677 0)
(1.04788 0.0120179 0)
(1.05085 0.0150568 0)
(1.05758 0.0172473 0)
(1.06857 0.0189141 0)
(1.08531 0.0203409 0)
(1.10001 0.0212482 0)
(1.04789 0.0187283 0)
(0.818025 0.0105978 0)
(0.45421 0.00306575 0)
(0.0896769 0.000189266 0)
(0.0991501 -2.44501e-05 0)
(0.665343 -0.00248402 0)
(0.972729 -0.00719972 0)
(1.10576 -0.00999858 0)
(1.11233 -0.00866447 0)
(1.09237 -0.00561609 0)
(1.07696 -0.00214447 0)
(1.0658 0.00169292 0)
(1.0576 0.00584555 0)
(1.05213 0.0101246 0)
(1.05055 0.0138077 0)
(1.0531 0.0164207 0)
(1.05951 0.0181729 0)
(1.07048 0.0194591 0)
(1.08738 0.0206111 0)
(1.0987 0.0211142 0)
(1.03375 0.0179672 0)
(0.79337 0.00987529 0)
(0.436555 0.00287947 0)
(0.0856622 0.000185129 0)
(0.0984907 1.04275e-05 0)
(0.655822 -0.00143007 0)
(0.962351 -0.00496931 0)
(1.10471 -0.00736522 0)
(1.11681 -0.00610146 0)
(1.09739 -0.00304652 0)
(1.08161 0.000576347 0)
(1.07006 0.00454264 0)
(1.06132 0.00866896 0)
(1.0552 0.0128029 0)
(1.05295 0.0161861 0)
(1.055 0.0183569 0)
(1.0611 0.0196979 0)
(1.07193 0.0205889 0)
(1.08874 0.0213028 0)
(1.09622 0.0212382 0)
(1.01861 0.0174053 0)
(0.769916 0.00936267 0)
(0.420036 0.00276916 0)
(0.0817802 0.00018611 0)
(0.098581 4.14779e-05 0)
(0.649869 -0.000329551 0)
(0.954617 -0.00264464 0)
(1.10411 -0.00441017 0)
(1.1213 -0.00302121 0)
(1.10258 0.000160052 0)
(1.08642 0.00390509 0)
(1.07434 0.007939 0)
(1.06501 0.0120794 0)
(1.05814 0.0160711 0)
(1.05505 0.0191013 0)
(1.05638 0.0207703 0)
(1.06206 0.0215565 0)
(1.07278 0.0218808 0)
(1.08933 0.0221792 0)
(1.09236 0.0215928 0)
(1.0027 0.017103 0)
(0.747416 0.00908095 0)
(0.404259 0.00273614 0)
(0.0779383 0.000191929 0)
(0.0994928 0.00010041 0)
(0.647649 0.000847686 0)
(0.949839 -0.000155833 0)
(1.10447 -0.00115503 0)
(1.12617 0.000502421 0)
(1.10796 0.00389145 0)
(1.09126 0.00780783 0)
(1.07858 0.0119897 0)
(1.06845 0.0162112 0)
(1.06058 0.0200835 0)
(1.05649 0.0227407 0)
(1.05705 0.0238887 0)
(1.06224 0.0240467 0)
(1.07282 0.0237903 0)
(1.08892 0.0235527 0)
(1.08718 0.0223292 0)
(0.985921 0.0171395 0)
(0.725433 0.00901967 0)
(0.388787 0.0027818 0)
(0.0740149 0.000203722 0)
(0.101367 0.000143725 0)
(0.649183 0.00199533 0)
(0.948295 0.00256386 0)
(1.10601 0.00248418 0)
(1.13146 0.0043894 0)
(1.11374 0.0079937 0)
(1.09654 0.0122947 0)
(1.08322 0.0168526 0)
(1.0722 0.0212574 0)
(1.06314 0.0250093 0)
(1.05784 0.0272287 0)
(1.05737 0.0277908 0)
(1.06182 0.0273361 0)
(1.07209 0.02651 0)
(1.08743 0.0255642 0)
(1.08051 0.0235003 0)
(0.968062 0.017463 0)
(0.70363 0.00918139 0)
(0.373246 0.00289924 0)
(0.0699107 0.000219784 0)
(0.104334 0.000208482 0)
(0.655362 0.00346107 0)
(0.950502 0.00555714 0)
(1.10913 0.00669648 0)
(1.13725 0.00908744 0)
(1.12007 0.0130744 0)
(1.10232 0.0178019 0)
(1.08807 0.0226952 0)
(1.07588 0.0273098 0)
(1.06537 0.0310477 0)
(1.05849 0.0328842 0)
(1.05684 0.0327376 0)
(1.06052 0.0315083 0)
(1.07034 0.0299621 0)
(1.0845 0.0282414 0)
(1.07195 0.0251396 0)
(0.949037 0.0182524 0)
(0.681498 0.00962445 0)
(0.357199 0.00310057 0)
(0.0655366 0.000239557 0)
(0.1087 0.000294287 0)
(0.666405 0.00516327 0)
(0.956714 0.00894296 0)
(1.11457 0.0115187 0)
(1.14405 0.0146585 0)
(1.12706 0.0192839 0)
(1.10857 0.0245532 0)
(1.09321 0.0299229 0)
(1.07954 0.0348389 0)
(1.06719 0.0384468 0)
(1.0585 0.0396767 0)
(1.05547 0.03876 0)
(1.05813 0.0366621 0)
(1.06742 0.0342722 0)
(1.08003 0.0317729 0)
(1.06144 0.0275819 0)
(0.928416 0.019678 0)
(0.658343 0.010436 0)
(0.340075 0.00341035 0)
(0.0607929 0.000263413 0)
(0.114755 0.000405329 0)
(0.682877 0.00719827 0)
(0.967798 0.0129708 0)
(1.12278 0.0170617 0)
(1.15232 0.0210629 0)
(1.13514 0.0265189 0)
(1.11572 0.0325618 0)
(1.09905 0.0386086 0)
(1.0836 0.0439474 0)
(1.06905 0.0475259 0)
(1.05812 0.0481727 0)
(1.05331 0.0463357 0)
(1.05473 0.0432419 0)
(1.0633 0.0399438 0)
(1.07403 0.0365746 0)
(1.04866 0.0310535 0)
(0.905654 0.0219093 0)
(0.633269 0.0117378 0)
(0.321109 0.00385492 0)
(0.0555539 0.000292879 0)
(0.122924 0.00055558 0)
(0.705434 0.00977829 0)
(0.984199 0.0178313 0)
(1.13417 0.0236468 0)
(1.16233 0.028734 0)
(1.14453 0.0353457 0)
(1.12384 0.04244 0)
(1.10534 0.0493605 0)
(1.08753 0.0551707 0)
(1.07019 0.0586518 0)
(1.05668 0.058533 0)
(1.0499 0.055578 0)
(1.04994 0.0514057 0)
(1.05771 0.0471169 0)
(1.06628 0.0427096 0)
(1.0332 0.0357039 0)
(0.880143 0.0251261 0)
(0.605076 0.013559 0)
(0.299422 0.00443165 0)
(0.0496589 0.000328626 0)
(0.133903 0.000774241 0)
(0.735102 0.0133129 0)
(1.0069 0.0240145 0)
(1.14961 0.0319181 0)
(1.17482 0.0385335 0)
(1.15577 0.0467873 0)
(1.13338 0.0551543 0)
(1.11248 0.0629897 0)
(1.09174 0.0691403 0)
(1.0711 0.0721943 0)
(1.05449 0.0709533 0)
(1.04538 0.0666237 0)
(1.04391 0.0611621 0)
(1.05066 0.0557554 0)
(1.05652 0.0502834 0)
(1.01481 0.041701 0)
(0.850983 0.0293546 0)
(0.572471 0.0158203 0)
(0.274277 0.00509875 0)
(0.0429873 0.000367419 0)
(0.148875 0.00111739 0)
(0.773629 0.0184269 0)
(1.0374 0.0322895 0)
(1.17022 0.0427819 0)
(1.19085 0.0517142 0)
(1.16929 0.0619011 0)
(1.14425 0.0716688 0)
(1.12004 0.0803047 0)
(1.09554 0.0864549 0)
(1.07096 0.0885645 0)
(1.05092 0.0856506 0)
(1.03936 0.0795901 0)
(1.03627 0.072685 0)
(1.04208 0.0660271 0)
(1.0445 0.0594716 0)
(0.992905 0.0491632 0)
(0.816897 0.0344526 0)
(0.534317 0.0183677 0)
(0.245246 0.00578621 0)
(0.0355072 0.000402867 0)
(0.16995 0.00172067 0)
(0.824175 0.0262977 0)
(1.07846 0.044368 0)
(1.19703 0.0580705 0)
(1.21102 0.0698626 0)
(1.18521 0.0819364 0)
(1.15625 0.0929822 0)
(1.12772 0.101984 0)
(1.09869 0.107599 0)
(1.06959 0.108212 0)
(1.04583 0.103204 0)
(1.03168 0.0950583 0)
(1.02699 0.0863827 0)
(1.03161 0.0783875 0)
(1.02993 0.0704014 0)
(0.966351 0.0579298 0)
(0.776617 0.0401905 0)
(0.489934 0.0210314 0)
(0.21242 0.00641194 0)
(0.0273572 0.000425518 0)
(0.200461 0.00305932 0)
(0.892479 0.0396807 0)
(1.13268 0.0640391 0)
(1.23008 0.0812333 0)
(1.2349 0.0957963 0)
(1.20294 0.109161 0)
(1.16869 0.120574 0)
(1.13484 0.128979 0)
(1.10065 0.133123 0)
(1.06667 0.131509 0)
(1.039 0.123898 0)
(1.02215 0.113404 0)
(1.01572 0.102729 0)
(1.0188 0.0930175 0)
(1.01168 0.0830608 0)
(0.933821 0.0676614 0)
(0.729157 0.0463492 0)
(0.439581 0.0236693 0)
(0.176908 0.0069413 0)
(0.0189789 0.000426666 0)
(0.242232 0.00923039 1.0405e-20)
(0.982517 0.0664962 8.90069e-21)
(1.19771 0.0979728 -3.09256e-21)
(1.26651 0.11636 0)
(1.25955 0.133658 -7.71482e-35)
(1.22029 0.146462 1.12383e-21)
(1.1801 0.156489 -2.00688e-21)
(1.14042 0.162968 0)
(1.10062 0.164575 4.08e-35)
(1.06135 0.1598 -2.44707e-21)
(1.02933 0.148826 0)
(1.00947 0.135619 -2.88819e-21)
(1.00084 0.122946 -8.50894e-21)
(1.00146 0.111535 -4.01814e-21)
(0.988096 0.0997758 -1.20955e-21)
(0.891807 0.0814386 -7.18926e-22)
(0.669264 0.0545418 0)
(0.380644 0.0272472 5.05254e-22)
(0.139604 0.00825958 5.98693e-22)
(0.011075 0.000606822 1.09004e-20)
(0.270712 0.0244415 7.84286e-21)
(1.05676 0.108872 1.0552e-22)
(1.25062 0.146542 8.3638e-22)
(1.29979 0.165096 0)
(1.28116 0.182288 -3.96005e-21)
(1.23519 0.193156 -4.47167e-21)
(1.18915 0.201139 -2.03603e-21)
(1.14342 0.205368 -7.19479e-21)
(1.09749 0.204264 0)
(1.052 0.196079 1.04402e-20)
(1.01445 0.181452 1.03257e-20)
(0.990497 0.165176 3.0671e-21)
(0.979014 0.150308 1.11451e-20)
(0.975863 0.137501 1.56233e-20)
(0.952465 0.123469 0)
(0.834889 0.100075 2.21035e-20)
(0.598978 0.0658076 3.18168e-20)
(0.321297 0.0330126 3.54483e-20)
(0.106746 0.0102127 -4.07012e-20)
(0.00463213 0.000475713 -7.72917e-22)
(0.271588 0.0407523 0)
(1.10352 0.163844 1.41084e-21)
(1.28674 0.206064 0)
(1.32589 0.224981 -5.31493e-21)
(1.29823 0.239069 0)
(1.24657 0.246433 -8.86136e-21)
(1.19491 0.250958 4.18192e-21)
(1.14329 0.251752 -1.4564e-20)
(1.09143 0.247137 -3.15621e-22)
(1.03999 0.235409 5.4294e-21)
(0.997227 0.217884 2.27706e-20)
(0.969343 0.19974 -6.08011e-23)
(0.955207 0.18376 -8.11876e-21)
(0.948395 0.169307 -1.48019e-20)
(0.915483 0.150785 1.75595e-20)
(0.790705 0.12105 -3.11791e-20)
(0.560825 0.0803326 -4.14386e-21)
(0.300315 0.0414457 0)
(0.101347 0.0135427 5.40011e-25)
(0.00418496 0.000553645 0)
(0.264918 0.0546077 1.98198e-20)
(1.12836 0.222429 -9.41369e-21)
(1.3096 0.270412 -6.96025e-21)
(1.34331 0.289848 2.54369e-21)
(1.30943 0.300203 -4.25544e-21)
(1.25335 0.303436 1.86338e-20)
(1.19686 0.303776 8.76428e-21)
(1.14017 0.300469 0)
(1.0831 0.292072 -2.73868e-20)
(1.02655 0.27698 0)
(0.979258 0.257084 -1.19972e-20)
(0.947662 0.237466 -1.47692e-20)
(0.929828 0.219874 -8.8724e-21)
(0.917362 0.202368 -1.07824e-20)
(0.878086 0.179031 0)
(0.757605 0.144691 0)
(0.544095 0.0992399 -2.7181e-20)
(0.301916 0.0545128 5.38745e-21)
(0.109057 0.0194366 -3.15718e-21)
(0.00669404 0.00122389 -3.73871e-21)
(0.257341 0.0668893 -8.69063e-21)
(1.13886 0.280815 0)
(1.32246 0.335767 1.46195e-20)
(1.35312 0.355925 7.25824e-21)
(1.31486 0.362605 9.78255e-21)
(1.25531 0.361564 0)
(1.19496 0.35756 8.63212e-21)
(1.13418 0.350125 1.62055e-20)
(1.07289 0.337956 1.40751e-20)
(1.01202 0.319541 2.56654e-20)
(0.960795 0.29681 0)
(0.925478 0.274771 -3.19227e-20)
(0.903126 0.254571 -1.92166e-20)
(0.884535 0.233854 -1.13566e-20)
(0.842186 0.207776 6.98571e-20)
(0.731685 0.171143 8.36444e-21)
(0.5365 0.121834 3.95207e-20)
(0.310278 0.070533 -1.87569e-19)
(0.121378 0.0276754 1.113e-19)
(0.010692 0.00255059 -1.35859e-19)
(0.25024 0.0779521 -5.07232e-21)
(1.14023 0.337156 1.58938e-21)
(1.32789 0.400229 -1.66368e-21)
(1.35677 0.421363 -7.64244e-21)
(1.31532 0.424486 -8.43254e-21)
(1.25298 0.419202 3.53611e-22)
(1.18963 0.411026 -9.35051e-21)
(1.12563 0.399729 1.6802e-20)
(1.0609 0.38393 -3.03079e-20)
(0.99637 0.361955 0)
(0.941471 0.335696 -1.44824e-20)
(0.902509 0.310318 -3.24137e-22)
(0.875733 0.28711 -2.10301e-20)
(0.852337 0.26394 0)
(0.809669 0.236686 -1.51368e-20)
(0.709273 0.198858 -3.61492e-20)
(0.531033 0.14588 9.72327e-20)
(0.319148 0.0881953 -9.5913e-20)
(0.133354 0.037192 1.36562e-19)
(0.0145502 0.00422443 -1.4372e-19)
(0.244381 0.0882338 -1.04245e-22)
(1.13588 0.390852 -7.9636e-22)
(1.32778 0.462797 -4.9934e-21)
(1.35542 0.4851 3.18018e-21)
(1.31167 0.484879 -4.25958e-21)
(1.24719 0.47554 0)
(1.18152 0.463543 -8.77142e-21)
(1.11493 0.448697 -1.76093e-20)
(1.0473 0.429389 -1.57727e-20)
(0.979426 0.403602 0)
(0.921089 0.373336 -1.50395e-20)
(0.878698 0.344395 -1.85934e-20)
(0.848218 0.318348 2.28042e-20)
(0.821588 0.29354 -1.38506e-20)
(0.779679 0.265466 -6.60077e-20)
(0.688613 0.226483 3.95548e-20)
(0.524542 0.170176 1.19149e-20)
(0.325105 0.106031 0)
(0.142402 0.0469588 -1.3198e-19)
(0.017684 0.00601113 -4.90086e-21)
(0.239868 0.0980542 -4.97831e-23)
(1.12815 0.441798 2.74725e-22)
(1.32351 0.523047 2.38838e-21)
(1.35009 0.546509 1.11402e-20)
(1.30471 0.543235 -1.5887e-20)
(1.23871 0.530218 1.8089e-20)
(1.17128 0.514814 1.88579e-20)
(1.10254 0.496708 -2.81284e-20)
(1.03229 0.473991 9.68375e-21)
(0.961276 0.444237 -6.31312e-20)
(0.899658 0.409824 -1.69865e-20)
(0.854294 0.377442 0)
(0.821019 0.348919 2.47068e-20)
(0.792416 0.322867 2.95807e-20)
(0.751595 0.294257 3.54615e-20)
(0.666876 0.25393 -4.28731e-20)
(0.515175 0.194131 -1.27437e-20)
(0.325776 0.12328 1.50289e-20)
(0.146864 0.0560114 0)
(0.0196329 0.00763818 -1.06182e-20)
(0.236573 0.107533 -4.27834e-21)
(1.11871 0.490086 1.22262e-21)
(1.3163 0.581148 -2.17435e-21)
(1.34164 0.605273 6.83986e-21)
(1.29515 0.59927 -7.24603e-21)
(1.22817 0.583024 -8.20081e-22)
(1.15941 0.564647 -2.05537e-20)
(1.08881 0.543559 -1.01652e-20)
(1.01612 0.517516 -2.73782e-20)
(0.942096 0.483798 5.13859e-23)
(0.877406 0.445294 -5.31729e-20)
(0.829461 0.409605 4.4744e-20)
(0.794162 0.378776 -2.70814e-20)
(0.76446 0.351384 3.25268e-20)
(0.724719 0.321711 0)
(0.644886 0.27937 -2.31761e-20)
(0.502573 0.215962 -1.18825e-22)
(0.321434 0.138335 -6.53046e-20)
(0.146474 0.063251 -9.64481e-21)
(0.0202304 0.00880604 0)
(0.234396 0.116891 0)
(1.10859 0.535983 2.09319e-21)
(1.30683 0.636356 -2.28854e-21)
(1.33084 0.661216 -6.32595e-21)
(1.28364 0.652859 -9.0384e-21)
(1.21612 0.633856 0)
(1.14633 0.612889 -9.40235e-21)
(1.07409 0.589064 -2.3484e-22)
(0.999087 0.559839 5.86171e-20)
(0.922147 0.522265 -8.67106e-21)
(0.854544 0.479807 -3.83731e-20)
(0.804348 0.440882 2.3284e-20)
(0.76753 0.407732 -4.18266e-22)
(0.737125 0.378708 3.45599e-20)
(0.69816 0.347533 2.13458e-20)
(0.621997 0.302626 -5.0024e-20)
(0.487027 0.235028 5.95438e-20)
(0.312203 0.150483 1.7672e-20)
(0.142286 0.0681908 7.3205e-20)
(0.0196851 0.00942417 -1.98099e-19)
(0.233253 0.126262 -2.66403e-21)
(1.09848 0.579698 2.80334e-21)
(1.29592 0.688781 -1.30082e-21)
(1.31838 0.714295 5.05494e-21)
(1.27071 0.70393 0)
(1.20297 0.682622 -8.39186e-21)
(1.13238 0.659404 3.14285e-20)
(1.05865 0.633072 2.22517e-20)
(0.981457 0.600856 0)
(0.901692 0.559628 -1.24652e-19)
(0.831285 0.513364 1.03636e-19)
(0.779051 0.471223 0)
(0.74099 0.435588 3.15491e-20)
(0.710118 0.404668 -4.12091e-22)
(0.671671 0.371595 -6.80581e-20)
(0.598008 0.323609 2.67105e-20)
(0.468225 0.25101 0)
(0.298702 0.15938 9.52218e-20)
(0.134413 0.0707212 0)
(0.0181 0.00946274 -9.35811e-20)
(0.232937 0.135681 3.55545e-21)
(1.0888 0.621374 4.66433e-21)
(1.28406 0.738431 -1.04364e-21)
(1.30482 0.76453 0)
(1.25686 0.752479 -7.73347e-21)
(1.18911 0.72926 0)
(1.11788 0.704072 -3.1082e-20)
(1.04277 0.675462 -1.03734e-20)
(0.9635 0.640496 1.0338e-20)
(0.880983 0.59588 -6.16356e-20)
(0.807804 0.545972 1.07051e-20)
(0.753574 0.500564 0)
(0.714418 0.462242 -6.73388e-20)
(0.683163 0.429094 4.17229e-22)
(0.645022 0.393615 0)
(0.572924 0.341911 4.15334e-22)
(0.446517 0.263446 8.65202e-20)
(0.281341 0.164586 -8.22325e-20)
(0.12364 0.0709936 2.43497e-20)
(0.0158655 0.00898715 0)
(0.233072 0.145001 0)
(1.07975 0.661035 6.30008e-21)
(1.27175 0.785401 3.05005e-21)
(1.29062 0.81197 -4.85498e-22)
(1.24246 0.798514 -2.68695e-21)
(1.17484 0.77372 -1.86671e-20)
(1.10307 0.746812 1.15907e-20)
(1.0267 0.716149 -1.21814e-20)
(0.945457 0.678702 4.60465e-20)
(0.860234 0.631015 -9.83588e-20)
(0.784225 0.577645 -7.18248e-22)
(0.727947 0.52891 -2.95554e-20)
(0.687694 0.487652 1.09154e-19)
(0.656078 0.451936 -4.88371e-22)
(0.617999 0.413553 -5.27024e-20)
(0.546566 0.357436 -9.44206e-20)
(0.42225 0.272368 0)
(0.260826 0.166226 0)
(0.110664 0.0689262 2.62718e-20)
(0.0132091 0.00805137 -1.55882e-20)
(0.233854 0.154343 5.80505e-21)
(1.07141 0.698735 -1.50924e-20)
(1.2593 0.829792 -3.34922e-21)
(1.27617 0.856687 0)
(1.22784 0.842058 -3.25998e-22)
(1.16042 0.815969 -1.71387e-20)
(1.0882 0.787566 2.80299e-20)
(1.01067 0.755082 4.80156e-20)
(0.927544 0.71545 5.98019e-20)
(0.839641 0.665037 -8.02891e-20)
(0.760701 0.608433 -8.88295e-20)
(0.702198 0.556332 7.90233e-20)
(0.660748 0.51186 0)
(0.628713 0.473197 -2.39041e-20)
(0.590476 0.431378 -5.70357e-20)
(0.518988 0.370072 -6.77921e-20)
(0.395645 0.277545 -8.07195e-20)
(0.23788 0.164328 2.39429e-20)
(0.0960844 0.0645788 -1.41348e-20)
(0.0102197 0.00669114 5.91308e-23)
(0.23486 0.163522 0)
(1.06381 0.734846 0)
(1.24693 0.8717 5.3943e-22)
(1.26173 0.898774 0)
(1.21324 0.883169 6.04024e-21)
(1.14606 0.856012 1.16461e-20)
(1.07346 0.826308 0)
(0.994865 0.792236 5.70339e-21)
(0.909958 0.750723 9.96684e-20)
(0.819402 0.697958 -1.84469e-19)
(0.737386 0.638409 0)
(0.6764 0.58295 -5.0789e-20)
(0.633519 0.534984 -5.911e-22)
(0.600926 0.492899 -4.77248e-22)
(0.562349 0.446999 6.09163e-20)
(0.49022 0.379646 -7.31812e-23)
(0.366794 0.278876 -1.73762e-19)
(0.212872 0.158847 5.15195e-20)
(0.0809498 0.0584821 1.52833e-20)
(0.00723751 0.00508729 0)
(0.235867 0.17259 -2.54322e-20)
(1.05665 0.769351 -1.138e-20)
(1.23473 0.911189 -1.29547e-20)
(1.24751 0.938334 7.02421e-21)
(1.19888 0.921895 7.35399e-21)
(1.13193 0.893863 0)
(1.059 0.863041 1.68673e-20)
(0.979448 0.827609 -1.26649e-20)
(0.892863 0.784526 7.86989e-22)
(0.799695 0.729803 1.35672e-20)
(0.714444 0.667646 1.14832e-19)
(0.650642 0.608923 -1.78172e-20)
(0.60594 0.557203 -6.71996e-20)
(0.572526 0.511087 -2.78414e-20)
(0.533448 0.460241 3.31602e-20)
(0.460352 0.385827 -3.70565e-23)
(0.336661 0.276209 4.68638e-20)
(0.187202 0.150259 -1.1085e-19)
(0.0659807 0.0511146 1.3156e-19)
(0.00442056 0.00337274 1.94217e-20)
(0.236649 0.181423 9.97698e-21)
(1.04994 0.802321 -6.64578e-21)
(1.22284 0.948387 1.28038e-21)
(1.23366 0.975495 6.31338e-21)
(1.18487 0.958326 -1.63984e-22)
(1.11814 0.929561 -2.01517e-20)
(1.04496 0.897786 4.9053e-21)
(0.96455 0.861206 -5.27432e-20)
(0.876405 0.816849 -1.09603e-19)
(0.780672 0.76057 -1.09798e-19)
(0.692039 0.696212 0)
(0.62502 0.634416 -7.8063e-20)
(0.577986 0.578765 9.67449e-20)
(0.543267 0.527882 0)
(0.503467 0.470843 -7.09841e-20)
(0.429413 0.388061 4.25557e-20)
(0.305915 0.269248 -5.0362e-20)
(0.16209 0.138933 -5.97021e-20)
(0.0520924 0.0430488 -1.06017e-19)
(0.00194285 0.00169061 -8.37033e-20)
(0.237745 0.190102 -1.16215e-20)
(1.04348 0.833716 7.12529e-21)
(1.21131 0.983355 1.57771e-20)
(1.22027 1.01035 1.0327e-20)
(1.17133 0.992539 1.06401e-21)
(1.10482 0.963166 -1.07098e-20)
(1.03144 0.930573 1.63109e-20)
(0.950272 0.893059 -5.41044e-20)
(0.86068 0.847709 -6.4801e-20)
(0.762466 0.79027 1.14715e-19)
(0.670317 0.724157 2.51832e-19)
(0.59967 0.659589 0)
(0.549685 0.599972 0)
(0.512847 0.543572 -3.20693e-20)
(0.471826 0.47857 0)
(0.397157 0.385413 9.16499e-20)
(0.275518 0.25719 1.08474e-19)
(0.139399 0.124976 0)
(0.0405577 0.0348773 0)
(-3.82752e-05 0.000191912 9.00114e-20)
(0.238453 0.19829 1.35829e-20)
(1.03727 0.863512 1.06858e-20)
(1.20019 1.01621 1.16663e-20)
(1.20738 1.04302 -1.13528e-20)
(1.15831 1.02463 -4.49439e-22)
(1.09202 0.99474 1.08004e-20)
(1.0185 0.961454 -2.22848e-20)
(0.936687 0.923191 2.78792e-23)
(0.845778 0.877106 -1.02476e-21)
(0.745181 0.818893 -1.11456e-21)
(0.649445 0.75152 1.29639e-19)
(0.574767 0.684561 0)
(0.521139 0.621135 9.77203e-20)
(0.481017 0.558637 6.83618e-20)
(0.437621 0.483536 1.65881e-19)
(0.362609 0.376685 4.93417e-20)
(0.246273 0.237797 -5.85398e-20)
(0.122826 0.106401 -3.44553e-20)
(0.0359185 0.0258313 0)
(-0.000512477 -0.000908427 9.67764e-20)
(0.239463 0.206471 -3.14941e-20)
(1.03127 0.891877 0)
(1.18945 1.047 1.45217e-20)
(1.19502 1.07359 -1.02184e-20)
(1.14587 1.05468 2.94515e-21)
(1.07978 1.02436 -1.11318e-20)
(1.00621 0.990477 4.29724e-20)
(0.923842 0.951634 -4.49977e-21)
(0.831747 0.90505 0)
(0.728904 0.846403 -1.26349e-19)
(0.629584 0.778308 -2.81428e-19)
(0.550508 0.709435 1.14883e-20)
(0.492563 0.642503 1.3441e-19)
(0.447705 0.57369 0)
(0.399805 0.486577 1.11893e-19)
(0.323363 0.36134 0)
(0.216099 0.206761 0)
(0.11639 0.0711936 -3.73745e-20)
(0.0609961 0.00225421 0)
(0.025429 0.00607507 2.59532e-20)
(0.239997 0.214041 -3.58422e-20)
(1.02543 0.91895 0)
(1.17907 1.07592 2.48454e-20)
(1.18313 1.1023 0)
(1.13396 1.08295 -2.55743e-21)
(1.06806 1.0523 0)
(0.994491 1.01796 2.09291e-21)
(0.911656 0.978734 7.39499e-21)
(0.818482 0.931914 8.10251e-21)
(0.713488 0.873191 -1.38574e-19)
(0.610593 0.804974 8.44929e-21)
(0.526699 0.734812 9.23801e-20)
(0.463653 0.664716 1.31093e-19)
(0.412276 0.589595 1.76829e-20)
(0.356782 0.489645 8.76458e-20)
(0.274991 0.341144 0)
(0.174493 0.163 1.23865e-19)
(0.0919244 0.0165 -7.29308e-20)
(0.0328362 0.0571114 8.50489e-20)
(-0.0382401 0.449429 -1.00989e-19)
(0.240443 0.22142 3.0084e-20)
(1.01955 0.944649 4.46763e-20)
(1.16897 1.10331 0)
(1.17157 1.12957 1.10182e-21)
(1.1224 1.11003 8.94014e-21)
(1.0566 1.07926 1.14238e-20)
(0.98306 1.0447 1.46941e-20)
(0.899737 1.00545 0)
(0.805472 0.958815 5.36086e-20)
(0.698272 0.900577 -7.22028e-21)
(0.591576 0.833011 0)
(0.502172 0.762469 0)
(0.432842 0.689538 1.1697e-19)
(0.37289 0.607634 -5.45353e-20)
(0.305898 0.495475 -8.84478e-20)
(0.213493 0.321074 0)
(0.0981624 0.15663 6.29812e-20)
(0.00910923 0.46326 -7.34921e-20)
(0.0335377 1.91295 -4.13874e-20)
(0.0607005 2.81726 -5.05518e-20)
(0.240474 0.228193 -2.31252e-20)
(1.01366 0.969146 -5.8306e-20)
(1.15914 1.12913 1.53206e-20)
(1.16034 1.15528 1.16238e-20)
(1.11124 1.1357 0)
(1.04548 1.10496 5.45632e-21)
(0.972119 1.0704 1.9709e-20)
(0.888275 1.03135 -3.55235e-21)
(0.792989 0.985228 7.97534e-21)
(0.68364 0.927943 1.31598e-19)
(0.573153 0.861729 1.41592e-19)
(0.477924 0.792081 1.02734e-19)
(0.401158 0.716733 1.17222e-19)
(0.331443 0.626498 -1.27312e-19)
(0.254146 0.506804 -1.3303e-19)
(0.137305 0.356046 0)
(0.0468016 0.867999 0)
(0.0940862 2.57166 3.49946e-20)
(0.0962843 3.20487 0)
(0.096938 3.38674 9.1769e-20)
(0.243267 0.234447 0)
(1.00798 0.992779 0)
(1.1493 1.15327 0)
(1.1492 1.17925 3.72491e-21)
(1.1002 1.15974 8.92436e-21)
(1.0345 1.12926 9.65456e-22)
(0.961597 1.09495 1.24861e-20)
(0.877203 1.0563 -3.45135e-21)
(0.780972 1.01098 6.65712e-20)
(0.669583 0.955125 -2.01886e-21)
(0.555421 0.890918 2.7891e-19)
(0.454393 0.823694 -1.18053e-20)
(0.368819 0.746809 1.4169e-20)
(0.29039 0.643893 1.83705e-20)
(0.193396 0.527433 -2.09836e-22)
(0.103604 1.00893 3.32624e-22)
(0.134204 2.74418 -1.81371e-19)
(0.139764 3.29805 -6.92331e-20)
(0.128448 3.42459 3.71047e-20)
(0.116093 3.44486 -4.19487e-20)
(0.165412 0.179263 1.44951e-20)
(0.9983 1.01824 0)
(1.13937 1.17598 -3.28278e-20)
(1.13847 1.20173 -3.32512e-20)
(1.08973 1.18263 2.42899e-20)
(1.02431 1.1526 1.4117e-22)
(0.95128 1.11837 -1.26405e-20)
(0.866572 1.08033 3.81253e-20)
(0.769553 1.03609 -5.45466e-20)
(0.656376 0.98215 0)
(0.538707 0.920573 1.37032e-19)
(0.432158 0.857107 -8.34973e-20)
(0.336362 0.782556 0)
(0.244071 0.665479 1.75646e-20)
(0.147246 0.837171 4.24603e-20)
(0.148652 2.53803 -4.90479e-20)
(0.199559 3.33068 5.62598e-20)
(0.180022 3.43876 3.06299e-20)
(0.14864 3.45723 3.54208e-20)
(0.128142 3.46559 5.68431e-20)
(0.279004 0.273928 -2.78043e-20)
(0.982469 1.02975 0)
(1.12188 1.20211 3.63259e-20)
(1.12392 1.235 3.84444e-20)
(1.07334 1.21679 -2.94706e-20)
(1.00748 1.18743 -5.52317e-21)
(0.933428 1.15464 1.08319e-20)
(0.848041 1.11778 2.9669e-21)
(0.749588 1.07559 5.148e-20)
(0.633519 1.02541 1.128e-19)
(0.510589 0.969535 7.69424e-21)
(0.39548 0.913739 7.36675e-20)
(0.280387 0.844224 1.32329e-20)
(0.211744 1.01228 -1.67677e-20)
(0.218156 2.40586 -3.86418e-20)
(0.269265 3.33871 3.89268e-20)
(0.25281 3.46888 -4.314e-20)
(0.217686 3.48638 -2.51887e-20)
(0.182937 3.50985 -2.32324e-20)
(0.137277 3.50331 -3.41767e-21)
(0.269561 0.273052 0)
(0.980293 1.05315 1.0969e-20)
(1.11386 1.22587 -7.62094e-21)
(1.11371 1.25853 -4.72168e-21)
(1.06286 1.24028 -2.13008e-20)
(0.997135 1.21129 6.5461e-21)
(0.922788 1.17877 -5.15284e-21)
(0.837216 1.14272 2.63276e-21)
(0.738275 1.10195 -5.33323e-20)
(0.62099 1.05451 -2.97012e-21)
(0.495495 1.00311 -2.45693e-19)
(0.376065 0.952455 1.04691e-20)
(0.269858 0.920055 -1.24951e-20)
(0.247109 1.57178 -1.54283e-20)
(0.307137 3.14024 3.60901e-21)
(0.322524 3.47317 4.23955e-22)
(0.28058 3.52029 6.46144e-20)
(0.24588 3.54087 3.32262e-20)
(0.199627 3.55987 -1.14491e-20)
(0.149029 3.55501 -1.7267e-20)
(0.255486 0.271193 2.85522e-20)
(0.977247 1.0792 7.49815e-20)
(1.10549 1.25175 -2.19372e-20)
(1.1031 1.28361 -1.78795e-20)
(1.05202 1.26527 0)
(0.986456 1.23642 1.60872e-20)
(0.912053 1.2042 -4.19707e-21)
(0.826551 1.16891 2.27635e-21)
(0.727433 1.12964 -5.91832e-21)
(0.609452 1.08515 -1.00982e-19)
(0.482252 1.0387 -1.12854e-19)
(0.359635 0.994324 -8.60149e-20)
(0.273779 1.06255 -9.3306e-20)
(0.30949 2.29715 9.64569e-20)
(0.385672 3.39938 8.33522e-20)
(0.360756 3.53226 0)
(0.311607 3.56647 0)
(0.274642 3.59876 -8.90081e-21)
(0.228939 3.64383 0)
(0.159224 3.6259 -1.48902e-20)
(0.245485 0.273225 -4.32003e-20)
(0.972238 1.10618 -6.4235e-20)
(1.09579 1.27892 0)
(1.09134 1.30964 1.33417e-21)
(1.04006 1.29096 -2.4696e-20)
(0.974752 1.26214 2.86128e-20)
(0.9006 1.23022 -7.29547e-22)
(0.81539 1.19559 1.23269e-21)
(0.716347 1.15776 -3.7067e-20)
(0.598085 1.1162 5.02249e-21)
(0.469999 1.07486 0)
(0.349031 1.04117 0)
(0.301212 1.34018 -8.45828e-20)
(0.384895 2.96202 3.47113e-20)
(0.450374 3.5027 4.48924e-20)
(0.398657 3.56762 0)
(0.356252 3.62155 -5.32624e-21)
(0.314169 3.66635 -3.11267e-21)
(0.264314 3.63081 -1.58532e-20)
(0.171225 3.60861 8.71461e-22)