/*--------------------------------*- C++ -*----------------------------------*\
  =========                 |
  \\      /  F ield         | OpenFOAM: The Open Source CFD Toolbox
   \\    /   O peration     | Website:  https://openfoam.org
    \\  /    A nd           | Version:  6
     \\/     M anipulation  |
\*---------------------------------------------------------------------------*/
FoamFile
{
    version     2.0;
    format      ascii;
    class       volScalarField;
    location    "15";
    object      p;
}
// * * * * * * * * * * * * * * * * * * * * * * * * * * * * * * * * * * * * * //

dimensions      [0 2 -2 0 0 0 0];

internalField   nonuniform List<scalar> 
8800
(
0.415841
0.366542
0.328602
0.300558
0.280422
0.265852
0.255262
0.247732
0.242845
0.240685
0.241735
0.245709
0.252184
0.26137
0.273929
0.291117
0.314895
0.347919
0.390805
0.443299
0.250304
0.256663
0.265837
0.269419
0.266864
0.260831
0.253948
0.247782
0.242986
0.240028
0.239565
0.241864
0.24617
0.251971
0.258804
0.265644
0.270372
0.270135
0.263389
0.254441
0.223673
0.229954
0.234559
0.23855
0.24164
0.242746
0.241785
0.239646
0.237511
0.236434
0.237181
0.239382
0.241996
0.243948
0.244121
0.242048
0.238452
0.234251
0.229342
0.225606
0.219298
0.222103
0.224819
0.22712
0.229008
0.230721
0.231883
0.232265
0.232084
0.231917
0.232423
0.233206
0.233551
0.233068
0.231767
0.230093
0.228154
0.225629
0.223085
0.221509
0.214113
0.215564
0.217604
0.219917
0.221803
0.223171
0.224311
0.225314
0.226103
0.226662
0.226951
0.226895
0.226464
0.225706
0.22473
0.22329
0.221272
0.219037
0.217495
0.216711
0.209241
0.210156
0.211647
0.213612
0.215634
0.217425
0.21886
0.22001
0.220975
0.221751
0.222064
0.221917
0.221417
0.220545
0.219215
0.21748
0.215586
0.213873
0.212841
0.212356
0.204714
0.205346
0.206713
0.208607
0.210568
0.212594
0.214531
0.216092
0.217222
0.218001
0.218479
0.218436
0.217765
0.216478
0.214798
0.213058
0.211276
0.209667
0.208808
0.20851
0.201129
0.201481
0.202613
0.204236
0.205859
0.207359
0.208802
0.21032
0.211768
0.212925
0.213406
0.213209
0.21255
0.21169
0.210668
0.209379
0.207919
0.206569
0.20594
0.20581
0.199063
0.19925
0.200003
0.20123
0.202584
0.204014
0.205506
0.206895
0.208184
0.209325
0.210052
0.210214
0.209908
0.209198
0.208271
0.207271
0.206212
0.205323
0.204959
0.2049
0.197291
0.197417
0.197806
0.198482
0.199358
0.200413
0.201592
0.20298
0.204443
0.205817
0.206749
0.207065
0.206953
0.206635
0.206111
0.205615
0.205153
0.204799
0.204632
0.204582
0.19467
0.194762
0.195011
0.195423
0.196013
0.196873
0.197923
0.199182
0.200616
0.202131
0.203367
0.204088
0.204381
0.204407
0.204314
0.204206
0.204082
0.203959
0.203871
0.203829
0.191229
0.191292
0.191535
0.191971
0.192553
0.193341
0.194447
0.195835
0.19748
0.199295
0.200876
0.201902
0.202458
0.202716
0.202856
0.202894
0.202861
0.202786
0.202742
0.202717
0.187323
0.187355
0.187589
0.188076
0.188746
0.189485
0.190656
0.192135
0.193966
0.196121
0.198152
0.199635
0.200601
0.201223
0.201599
0.201766
0.201781
0.201749
0.201747
0.201735
0.183105
0.183126
0.183338
0.183822
0.184507
0.1856
0.186834
0.188514
0.190672
0.193296
0.195879
0.197859
0.199229
0.200094
0.200646
0.200984
0.201103
0.201155
0.201192
0.201184
0.17851
0.178545
0.178754
0.179254
0.18003
0.181119
0.182598
0.184589
0.187193
0.190432
0.193709
0.196286
0.198135
0.199391
0.200183
0.200675
0.200947
0.201098
0.201164
0.201155
0.173297
0.173327
0.173573
0.174102
0.174968
0.176223
0.177984
0.180399
0.1836
0.187634
0.19176
0.19506
0.197415
0.199087
0.200196
0.200905
0.201338
0.201583
0.201678
0.201666
0.167241
0.167276
0.167575
0.168198
0.169205
0.170702
0.172846
0.175824
0.179803
0.184848
0.190034
0.194192
0.19726
0.199378
0.200819
0.201765
0.202359
0.202695
0.202819
0.202803
0.160101
0.160143
0.160508
0.161292
0.16253
0.164364
0.167038
0.170762
0.175745
0.182074
0.188589
0.193841
0.197664
0.20035
0.20218
0.203393
0.204163
0.204597
0.20475
0.204728
0.151598
0.151657
0.152123
0.153093
0.154672
0.157012
0.160382
0.165073
0.171351
0.179306
0.187475
0.194031
0.198796
0.202144
0.204436
0.205961
0.206928
0.207471
0.207664
0.207637
0.141366
0.141448
0.142048
0.143295
0.145321
0.14833
0.152628
0.158604
0.166559
0.176561
0.186757
0.19489
0.200789
0.204938
0.207785
0.209686
0.210895
0.211567
0.211802
0.211766
0.128844
0.128955
0.129743
0.131388
0.134047
0.137953
0.143532
0.151219
0.161323
0.173881
0.186549
0.196584
0.203843
0.208948
0.212458
0.214811
0.216311
0.217139
0.217428
0.217382
0.113236
0.113383
0.114449
0.116687
0.120256
0.125452
0.132788
0.142732
0.155599
0.171334
0.186984
0.199279
0.208155
0.214407
0.218719
0.221623
0.223484
0.224499
0.224849
0.224792
0.0933922
0.0936033
0.0951022
0.0982367
0.103146
0.1102
0.119978
0.132966
0.149392
0.169024
0.188206
0.203144
0.213923
0.221547
0.226841
0.230435
0.232757
0.234028
0.23445
0.234372
0.067516
0.0678493
0.0700745
0.074662
0.0816929
0.0915456
0.10483
0.121917
0.142829
0.167127
0.190389
0.208345
0.22132
0.230574
0.237076
0.241552
0.244474
0.246081
0.246606
0.2465
0.0324025
0.0330101
0.0367271
0.0440685
0.0547329
0.0689965
0.0873095
0.109783
0.136196
0.165904
0.193725
0.21502
0.230464
0.241616
0.249598
0.255227
0.258974
0.261047
0.2617
0.261555
-0.0179653
-0.0161327
-0.00854873
0.00442805
0.0214326
0.0424856
0.0677254
0.0970017
0.129891
0.165627
0.198355
0.22321
0.24133
0.254618
0.264383
0.271502
0.276449
0.279294
0.280178
0.279974
-0.0928588
-0.0833511
-0.0662061
-0.0431573
-0.0166618
0.0133808
0.0470493
0.0841462
0.124227
0.166564
0.204679
0.233548
0.254814
0.270758
0.282896
0.292274
0.299188
0.303558
0.30517
0.305215
-0.171836
-0.152237
-0.124573
-0.0911336
-0.0548882
-0.0157811
0.0263559
0.0714265
0.119099
0.168785
0.213337
0.247312
0.272735
0.292263
0.307605
0.319861
0.329649
0.336709
0.339571
0.339796
-0.236667
-0.213389
-0.177714
-0.135855
-0.0910664
-0.0435173
0.00672487
0.059491
0.114476
0.171119
0.221568
0.259983
0.288835
0.31113
0.328787
0.34297
0.354237
0.36237
0.365271
0.365696
-0.288374
-0.26282
-0.222243
-0.174539
-0.123225
-0.0688003
-0.0115864
0.0480786
0.109749
0.172753
0.228419
0.270509
0.30188
0.325929
0.34476
0.359769
0.371591
0.379948
0.383287
0.383786
-0.330473
-0.303918
-0.259978
-0.207812
-0.151393
-0.0914465
-0.0284047
0.0372651
0.104856
0.173547
0.233749
0.278788
0.311972
0.33709
0.356524
0.371831
0.383772
0.392097
0.395593
0.39608
-0.366281
-0.339199
-0.292825
-0.237046
-0.176426
-0.111867
-0.0438651
0.0269997
0.0998768
0.173665
0.237962
0.285646
0.320374
0.346323
0.36612
0.381471
0.393297
0.401501
0.405101
0.405601
-0.397832
-0.370478
-0.322203
-0.263511
-0.199368
-0.13082
-0.0584071
0.0171117
0.0948291
0.173415
0.241589
0.2917
0.327792
0.354419
0.37447
0.389834
0.401566
0.409641
0.413246
0.413753
-0.426591
-0.399023
-0.3492
-0.288004
-0.220808
-0.148762
-0.0724564
0.00730969
0.0895008
0.1726
0.244454
0.296976
0.334472
0.361844
0.382232
0.397684
0.409379
0.417303
0.420895
0.421418
-0.453421
-0.425634
-0.374475
-0.311114
-0.2413
-0.166194
-0.0864013
-0.00276884
0.0835704
0.171026
0.246679
0.301774
0.340822
0.369064
0.38988
0.405492
0.417188
0.425018
0.428532
0.429094
-0.47898
-0.450917
-0.398561
-0.333262
-0.261138
-0.183316
-0.100414
-0.0132692
0.0770214
0.168775
0.248321
0.306175
0.346984
0.376271
0.397652
0.413528
0.425291
0.433045
0.436458
0.437011
-0.503516
-0.475182
-0.421751
-0.354729
-0.280551
-0.200315
-0.11461
-0.0242092
0.069791
0.16573
0.249268
0.310157
0.353013
0.383581
0.405703
0.421957
0.433864
0.441581
0.444861
0.445366
-0.527365
-0.498626
-0.444256
-0.375722
-0.299716
-0.217315
-0.129068
-0.0357207
0.0617258
0.161746
0.249425
0.313648
0.358869
0.391006
0.414087
0.430868
0.443005
0.450729
0.453866
0.454273
-0.550574
-0.52145
-0.466186
-0.396295
-0.318672
-0.234355
-0.143862
-0.0478485
0.0528022
0.156763
0.248667
0.316509
0.364463
0.398498
0.422801
0.440299
0.452776
0.460544
0.463548
0.463803
-0.573208
-0.543682
-0.487594
-0.41649
-0.337446
-0.251454
-0.158968
-0.0605626
0.0430203
0.150712
0.246845
0.318581
0.369676
0.405995
0.431806
0.450212
0.463131
0.470959
0.473831
0.473938
-0.595294
-0.565353
-0.508477
-0.436302
-0.356021
-0.268556
-0.174327
-0.0738244
0.0323799
0.143532
0.243818
0.319628
0.374278
0.413345
0.441029
0.460569
0.474046
0.481941
0.48464
0.484591
-0.616846
-0.586434
-0.528813
-0.455691
-0.374331
-0.285606
-0.189881
-0.0875735
0.0209356
0.135226
0.239478
0.319433
0.377948
0.42029
0.450345
0.471308
0.485407
0.493302
0.495736
0.49554
-0.637711
-0.606866
-0.548556
-0.47462
-0.392331
-0.302534
-0.205556
-0.101714
0.00876326
0.125815
0.23374
0.317798
0.380396
0.426541
0.459638
0.482451
0.497197
0.504901
0.506949
0.506587
-0.657854
-0.626612
-0.567675
-0.493031
-0.409952
-0.319262
-0.221243
-0.11615
-0.00404024
0.115356
0.226572
0.314529
0.381281
0.431657
0.468644
0.494129
0.50962
0.516601
0.517909
0.517376
-0.677324
-0.645637
-0.58614
-0.510877
-0.427123
-0.335698
-0.236847
-0.130763
-0.0173602
0.103949
0.217959
0.309506
0.380237
0.435024
0.476794
0.506434
0.523506
0.528883
0.52827
0.527496
-0.695977
-0.663917
-0.603899
-0.528096
-0.443787
-0.351764
-0.252269
-0.145437
-0.0310587
0.0917228
0.207971
0.302658
0.377002
0.435926
0.48304
0.518769
0.540093
0.544633
0.539436
0.535627
-0.71389
-0.681462
-0.620963
-0.544719
-0.459974
-0.367505
-0.267563
-0.160232
-0.0452046
0.0786135
0.196482
0.293751
0.371304
0.433567
0.485774
0.529182
0.55855
0.568346
0.558931
0.551072
-0.731007
-0.698333
-0.637468
-0.56092
-0.475965
-0.383247
-0.28313
-0.175639
-0.0603573
0.063929
0.182764
0.281879
0.362357
0.426639
0.48179
0.532305
0.568981
0.579222
0.569853
0.554002
-0.747225
-0.714518
-0.653264
-0.576503
-0.491548
-0.398703
-0.298752
-0.191322
-0.0761804
0.0480041
0.167064
0.266835
0.349895
0.414858
0.46672
0.517208
0.552036
0.549188
0.488376
0.453282
-0.762452
-0.730674
-0.667902
-0.590978
-0.506148
-0.413431
-0.314187
-0.207032
-0.0924022
0.0310567
0.149513
0.248518
0.333315
0.399409
0.440035
0.474114
0.491697
0.453835
0.386408
0.342922
-0.803191
-0.745709
-0.681373
-0.605102
-0.520447
-0.428248
-0.32933
-0.222867
-0.109191
0.0128534
0.129802
0.226851
0.31038
0.381647
0.398047
0.402931
0.381489
0.325342
0.25047
0.209399
-0.775681
-0.758104
-0.701312
-0.626373
-0.541691
-0.450205
-0.352439
-0.24735
-0.13562
-0.0165751
0.0963647
0.18923
0.264143
0.330767
0.334262
0.227403
0.130553
0.0660424
-0.00406123
0.0361163
-0.804254
-0.773959
-0.716632
-0.64166
-0.557585
-0.466745
-0.369236
-0.265257
-0.155252
-0.0388758
0.070048
0.158584
0.224728
0.259035
0.209391
0.059915
-0.0649064
-0.146857
-0.240856
-0.175858
-0.825649
-0.793101
-0.734196
-0.659082
-0.575377
-0.484873
-0.387864
-0.285132
-0.177185
-0.0638867
0.0401503
0.122694
0.178167
0.178834
0.0601729
-0.128933
-0.285062
-0.392783
-0.507809
-0.457262
-0.845896
-0.812465
-0.752461
-0.676959
-0.593342
-0.50319
-0.406998
-0.305684
-0.19993
-0.0900262
0.00841299
0.0837573
0.124236
0.0831347
-0.103305
-0.328172
-0.53171
-0.705928
-0.856444
-0.808066
-0.865377
-0.831821
-0.771252
-0.695438
-0.611868
-0.522149
-0.426888
-0.327136
-0.223722
-0.117708
-0.0254398
0.0419771
0.0628225
-0.0225042
-0.267951
-0.527517
-0.777095
-0.992841
-1.26554
-1.35917
-0.884768
-0.851552
-0.790802
-0.71483
-0.63132
-0.542006
-0.447639
-0.349437
-0.248428
-0.146655
-0.0607276
-0.00219077
-0.0014769
-0.147841
-0.420353
-0.705006
-0.976935
-1.20437
-1.38896
-1.61356
-0.90481
-0.871991
-0.811336
-0.735402
-0.652079
-0.56326
-0.469914
-0.373354
-0.275182
-0.178121
-0.099016
-0.0505182
-0.0794197
-0.285496
-0.564743
-0.852609
-1.10627
-1.25747
-1.29917
-1.3201
-0.925726
-0.893304
-0.832877
-0.757145
-0.674167
-0.585993
-0.493891
-0.399224
-0.304494
-0.212493
-0.141042
-0.104776
-0.169238
-0.417176
-0.700364
-0.966854
-1.17239
-1.24167
-1.25825
-1.25926
-0.947734
-0.91554
-0.855368
-0.779931
-0.697419
-0.610088
-0.519405
-0.427023
-0.336147
-0.249604
-0.186523
-0.16611
-0.263398
-0.543861
-0.823296
-1.06815
-1.21432
-1.23453
-1.2363
-1.23554
-0.970574
-0.938635
-0.878717
-0.803625
-0.721712
-0.635369
-0.546285
-0.456591
-0.369695
-0.289581
-0.234829
-0.234544
-0.363942
-0.66139
-0.93454
-1.15313
-1.22119
-1.22882
-1.22655
-1.22511
-0.994001
-0.962287
-0.9027
-0.828015
-0.746787
-0.6616
-0.574301
-0.487487
-0.404996
-0.332234
-0.285672
-0.306696
-0.4772
-0.767772
-1.03487
-1.21836
-1.23746
-1.22911
-1.22464
-1.22206
-1.01727
-0.986059
-0.926937
-0.85275
-0.77226
-0.688422
-0.603023
-0.519176
-0.441798
-0.376718
-0.337917
-0.387554
-0.598341
-0.861192
-1.09945
-1.24529
-1.25704
-1.24114
-1.23143
-1.22885
-1.03985
-1.00938
-0.950899
-0.877281
-0.79764
-0.715211
-0.631888
-0.551194
-0.478865
-0.422267
-0.389422
-0.472576
-0.74278
-0.955928
-1.10139
-1.20022
-1.28456
-1.31503
-1.31764
-1.31483
-1.06128
-1.03154
-0.973877
-0.900867
-0.822254
-0.741132
-0.660214
-0.582786
-0.51417
-0.467674
-0.440308
-0.548292
-0.922122
-1.14362
-1.11213
-1.09845
-1.38069
-1.65346
-1.69202
-1.66002
-1.08018
-1.05154
-0.99495
-0.922674
-0.845063
-0.765407
-0.686862
-0.612315
-0.547022
-0.508841
-0.490467
-0.617436
-1.1113
-1.53445
-1.53132
-1.49881
-1.73382
-1.97647
-1.96021
-1.94682
-1.09537
-1.06823
-1.01297
-0.94161
-0.86488
-0.786984
-0.710208
-0.638385
-0.577146
-0.540274
-0.542128
-0.671663
-1.27902
-2.08327
-2.70237
-2.9897
-3.01188
-2.6562
-2.2753
-2.22318
-1.10553
-1.08025
-1.02668
-0.956185
-0.880535
-0.804119
-0.729157
-0.659797
-0.601041
-0.561845
-0.580666
-0.721143
-1.37204
-2.42194
-3.45991
-3.87974
-3.88638
-3.58112
-3.14985
-2.91353
-1.10931
-1.08614
-1.03461
-0.964963
-0.890372
-0.815319
-0.742406
-0.674712
-0.615538
-0.571487
-0.591893
-0.709772
-1.25528
-2.02268
-2.89964
-3.25098
-3.31997
-3.19526
-2.9607
-2.79517
-1.10506
-1.08443
-1.03474
-0.966115
-0.892559
-0.819474
-0.748927
-0.682476
-0.620227
-0.564614
-0.569211
-0.532429
-0.850854
-1.19454
-1.60748
-1.86215
-1.69207
-1.38616
-1.10149
-0.963137
-1.08964
-1.07153
-1.02456
-0.957366
-0.885595
-0.815091
-0.747618
-0.683536
-0.617498
-0.539453
-0.483418
-0.414463
-0.244231
-0.105424
0.217171
0.622258
1.01061
1.36505
1.58326
1.66583
-1.06112
-1.04556
-1.00166
-0.936872
-0.867987
-0.801302
-0.738954
-0.680446
-0.618985
-0.52017
-0.415094
-0.272154
0.052262
0.608842
1.28362
1.96336
2.49159
2.79312
2.9393
2.9765
-1.01771
-1.0046
-0.964065
-0.903301
-0.83902
-0.77851
-0.72492
-0.681017
-0.632551
-0.530145
-0.386011
-0.192515
0.124651
0.620283
1.24793
1.84271
2.26466
2.51483
2.62465
2.65434
-0.955515
-0.944653
-0.909587
-0.856217
-0.799465
-0.748074
-0.707379
-0.684143
-0.679318
-0.639853
-0.544937
-0.326947
0.0411343
0.381494
0.880282
1.32696
1.64845
1.84355
1.939
1.96748
-0.877942
-0.869259
-0.841827
-0.797994
-0.751673
-0.712203
-0.688887
-0.69933
-0.773358
-0.944085
-1.09977
-0.810429
-0.292756
0.0358669
0.451945
0.797132
1.06867
1.23558
1.31851
1.33322
-0.79052
-0.783981
-0.763333
-0.730629
-0.69636
-0.669774
-0.664545
-0.714351
-0.913618
-1.42942
-1.99828
-1.64998
-0.926526
-0.462276
-0.0258575
0.318201
0.550923
0.677803
0.732654
0.74461
-0.686164
-0.683125
-0.670556
-0.649456
-0.627253
-0.612012
-0.618328
-0.684598
-0.926777
-1.58017
-2.26315
-1.92348
-1.22597
-0.70041
-0.262686
0.0507762
0.237189
0.332212
0.378376
0.38915
-0.576755
-0.575788
-0.567927
-0.554482
-0.540527
-0.531711
-0.539622
-0.595853
-0.793014
-1.3139
-1.82265
-1.57882
-1.04532
-0.577198
-0.240402
-0.0416723
0.0554597
0.101586
0.121274
0.12518
-0.465787
-0.465309
-0.459848
-0.450297
-0.440295
-0.432852
-0.434949
-0.464831
-0.573
-0.852095
-1.09248
-0.915822
-0.594578
-0.310798
-0.130505
-0.048413
-0.0139159
0.00140337
0.00778613
0.00901921
-0.354808
-0.354768
-0.35095
-0.343954
-0.335783
-0.327575
-0.322108
-0.326455
-0.358609
-0.444242
-0.484886
-0.385942
-0.192912
-0.0848526
-0.0269485
-0.0078017
-0.0038534
-0.00427957
-0.00503076
-0.00553471
-0.250065
-0.250335
-0.248368
-0.243939
-0.237684
-0.229436
-0.219291
-0.20833
-0.199168
-0.188941
-0.142356
-0.0773165
-0.00386746
0.0288142
0.0370374
0.0346606
0.0285324
0.0231077
0.0201985
0.0191107
-0.159158
-0.15964
-0.159497
-0.157857
-0.15399
-0.147021
-0.135989
-0.119737
-0.0962364
-0.0603587
-0.0072403
0.0364379
0.0650681
0.0751809
0.0719261
0.0648355
0.0573452
0.0517585
0.0488166
0.0476884
-0.0874315
-0.088005
-0.0890174
-0.0893632
-0.0877566
-0.0829608
-0.0735681
-0.0578614
-0.0334775
0.00250467
0.0450673
0.0750157
0.0883178
0.0913371
0.0873029
0.0810726
0.0749647
0.0704925
0.0681321
0.0671755
-0.0354738
-0.0360228
-0.037492
-0.0388429
-0.0386479
-0.0358108
-0.0289595
-0.0164435
0.00368258
0.0328101
0.0639479
0.0844346
0.0927646
0.0939558
0.0910371
0.0864554
0.0818759
0.0785391
0.0767813
0.076043
-0.00025534
-0.000707551
-0.00218165
-0.00388102
-0.00445673
-0.00292061
0.00176517
0.0109518
0.0260233
0.047574
0.0695969
0.0837197
0.0896559
0.0904399
0.0883164
0.0849784
0.0815922
0.0790659
0.0777571
0.0772138
0.0221659
0.0218248
0.020567
0.0189145
0.0179385
0.0185229
0.0215504
0.0279769
0.0387172
0.0540241
0.0693963
0.0791754
0.0833029
0.0837952
0.0823118
0.0798943
0.0773332
0.0753828
0.0744028
0.0740113
0.0354521
0.0352071
0.0342381
0.0328458
0.0318408
0.0318505
0.0335616
0.03779
0.0452188
0.0558499
0.0663971
0.0730684
0.075969
0.0763482
0.0752201
0.0733709
0.0713914
0.0698586
0.0691144
0.0688349
0.0426215
0.0424426
0.04174
0.040643
0.0397605
0.0395518
0.0404997
0.0431298
0.0479947
0.0551931
0.0624388
0.0670316
0.0689561
0.0690533
0.0681095
0.0666547
0.0650884
0.0638702
0.0632997
0.0630994
0.0458898
0.0457502
0.0452263
0.044358
0.0435859
0.0432343
0.0436874
0.0453464
0.048545
0.0533102
0.0580924
0.061058
0.0622313
0.0621824
0.0613921
0.0602299
0.0589936
0.0580385
0.0576059
0.0574611
0.046628
0.0465138
0.0460967
0.0453804
0.0446938
0.0442653
0.0443491
0.0452355
0.047202
0.050293
0.0534375
0.0553674
0.0560623
0.0558882
0.0552023
0.0542703
0.0533002
0.0525624
0.0522377
0.0521317
0.0456351
0.0455409
0.0451974
0.0445966
0.0439886
0.0435426
0.043441
0.043878
0.0450317
0.0469482
0.0489219
0.0500742
0.0503927
0.0501349
0.04954
0.0487859
0.0480229
0.0474532
0.0472074
0.0471284
0.0434277
0.0433511
0.0430645
0.0425521
0.0420086
0.0415573
0.0413241
0.0414492
0.0420618
0.0431886
0.0443635
0.0450056
0.0450983
0.0448059
0.0442935
0.0436857
0.0430881
0.0426485
0.0424612
0.0424017
0.0403633
0.0403026
0.04007
0.0396418
0.0391697
0.0387457
0.0384563
0.0383949
0.0386518
0.0392535
0.0398991
0.0401972
0.0401364
0.0398299
0.0393877
0.0388937
0.0384209
0.038078
0.0379338
0.037889
0.0367096
0.0366617
0.0364776
0.0361283
0.0357296
0.0353486
0.0350448
0.0348828
0.0349241
0.0351862
0.0354799
0.0355562
0.0354096
0.0351108
0.0347318
0.0343295
0.0339539
0.0336856
0.0335748
0.033541
0.0326679
0.0326299
0.0324868
0.03221
0.0318834
0.0315559
0.0312663
0.0310583
0.0309742
0.0310283
0.0311064
0.0310519
0.0308628
0.0305832
0.0302613
0.0299342
0.0296359
0.0294268
0.0293416
0.029316
0.0283885
0.0283584
0.0282483
0.0280332
0.0277724
0.0275003
0.0272417
0.0270256
0.0268804
0.0268162
0.0267684
0.0266438
0.0264427
0.0261918
0.0259226
0.0256589
0.025424
0.025262
0.0251965
0.0251771
0.0239717
0.023948
0.0238636
0.0236982
0.0234934
0.0232731
0.0230524
0.0228504
0.0226858
0.0225657
0.0224559
0.0223039
0.0221118
0.0218953
0.021675
0.0214655
0.0212823
0.0211574
0.0211072
0.0210925
0.0194775
0.0194592
0.019395
0.0192691
0.0191112
0.0189376
0.0187576
0.018583
0.018426
0.0182911
0.018162
0.0180121
0.0178429
0.017664
0.0174885
0.0173253
0.0171845
0.0170891
0.0170509
0.0170398
0.0149383
0.0149246
0.0148766
0.0147827
0.0146641
0.0145324
0.0143932
0.0142539
0.0141219
0.0139997
0.0138803
0.0137514
0.0136148
0.0134758
0.0133419
0.0132186
0.013113
0.0130414
0.013013
0.0130049
0.0103693
0.0103595
0.0103251
0.0102583
0.0101745
0.0100821
0.00998456
0.00988545
0.00978936
0.00969777
0.00960716
0.00951228
0.00941471
0.009317
0.00922328
0.00913649
0.00906134
0.00901015
0.00898981
0.00898398
0.00577631
0.00576978
0.00574835
0.00570732
0.00565801
0.00560561
0.00555103
0.00549568
0.0054413
0.00538978
0.00533842
0.00528476
0.00522998
0.00517532
0.00512254
0.00507254
0.0050273
0.0049955
0.00498263
0.00497842
0.00116859
0.00116927
0.00117291
0.00116797
0.00115658
0.00114387
0.00113046
0.00111646
0.00110194
0.00108631
0.00107096
0.00105611
0.00104165
0.0010276
0.00101423
0.00100141
0.000989347
0.000980371
0.000980261
0.000983028
-0.643417
-0.401782
-0.173554
0.0122252
0.165599
0.291257
0.39954
0.488762
0.518015
0.513974
-0.262471
-0.10583
0.0392604
0.165971
0.274548
0.366217
0.439913
0.491184
0.519088
0.534967
-0.00615641
0.095021
0.195649
0.285066
0.362299
0.426932
0.478105
0.516609
0.544015
0.563175
0.173315
0.244501
0.316698
0.3816
0.437855
0.485492
0.524905
0.556956
0.580783
0.59987
0.312431
0.36445
0.417729
0.466602
0.509771
0.547465
0.579877
0.606906
0.626986
0.645319
0.426534
0.467345
0.508262
0.547378
0.582968
0.614836
0.642685
0.665789
0.683027
0.700716
0.523957
0.559708
0.595266
0.629569
0.661409
0.690165
0.715209
0.735624
0.750555
0.767773
0.61639
0.651104
0.685837
0.719092
0.749662
0.776995
0.800385
0.818862
0.831949
0.848664
0.714272
0.752007
0.78826
0.822073
0.852389
0.878685
0.900594
0.917548
0.929604
0.945879
0.829614
0.871257
0.909088
0.942738
0.971897
0.996495
1.01667
1.03236
1.04452
1.06069
0.972687
1.01404
1.04978
1.07977
1.10541
1.12743
1.14625
1.16201
1.17533
1.19133
1.14488
1.17711
1.20446
1.22717
1.24754
1.26652
1.28447
1.30138
1.31641
1.33218
1.33146
1.34883
1.36617
1.38308
1.39934
1.41422
1.42824
1.44283
1.45814
1.4755
1.51524
1.52521
1.53848
1.54953
1.55901
1.56877
1.57951
1.58977
1.59914
1.62484
1.7333
1.72764
1.7147
1.70045
1.69422
1.70003
1.71821
1.74678
1.78059
1.81694
2.03606
1.9001
1.8207
1.77837
1.7611
1.76506
1.79256
1.85042
1.95809
2.1365
0.319513
0.313221
0.305516
0.294435
0.280904
0.268299
0.257961
0.249995
0.244284
0.240911
0.240387
0.242897
0.247826
0.254917
0.26424
0.275898
0.289339
0.302176
0.311097
0.318602
0.228504
0.234438
0.242559
0.248772
0.251929
0.25152
0.248516
0.244569
0.240973
0.238605
0.238268
0.240226
0.243684
0.247857
0.251708
0.253729
0.252463
0.247675
0.240505
0.232614
0.221621
0.224
0.227346
0.23023
0.232828
0.235184
0.236536
0.236511
0.235588
0.234587
0.234547
0.235747
0.237239
0.238096
0.237664
0.235871
0.233439
0.230865
0.227726
0.224641
0.216698
0.217782
0.219824
0.22238
0.22446
0.226015
0.227333
0.228343
0.228892
0.229152
0.22944
0.229848
0.229962
0.229547
0.22861
0.227371
0.225719
0.223419
0.221055
0.219502
0.211632
0.212237
0.213487
0.215464
0.217531
0.219277
0.220587
0.221738
0.222815
0.223734
0.224272
0.224237
0.223817
0.223134
0.222243
0.22095
0.219153
0.217182
0.215573
0.214716
0.206929
0.20732
0.208311
0.210086
0.212118
0.214192
0.216143
0.21766
0.218733
0.21952
0.220094
0.220341
0.220124
0.219354
0.217965
0.216179
0.214307
0.212481
0.211121
0.21052
0.202723
0.202927
0.203725
0.205332
0.207137
0.208885
0.210626
0.212368
0.213958
0.215191
0.215945
0.216057
0.215505
0.214468
0.21318
0.211764
0.210203
0.208582
0.207398
0.207011
0.199956
0.200036
0.200587
0.201874
0.203389
0.204882
0.206298
0.207656
0.208979
0.210224
0.211129
0.211427
0.211234
0.210688
0.209872
0.208802
0.207564
0.206286
0.20542
0.205211
0.198241
0.198288
0.198601
0.199373
0.200426
0.201607
0.202997
0.204457
0.205911
0.207267
0.208346
0.208854
0.208779
0.208291
0.207557
0.206811
0.206041
0.205327
0.204893
0.204778
0.196102
0.196142
0.196325
0.196715
0.197288
0.198156
0.199058
0.200209
0.201557
0.203003
0.204297
0.205107
0.205424
0.205472
0.205318
0.20496
0.204742
0.204526
0.204366
0.204294
0.19303
0.193057
0.193211
0.193556
0.194073
0.19466
0.19567
0.196919
0.198369
0.199984
0.201563
0.202708
0.203314
0.203522
0.203539
0.203607
0.203524
0.203437
0.203349
0.203304
0.189317
0.189323
0.189452
0.189812
0.190367
0.191028
0.191956
0.193206
0.194782
0.196645
0.19859
0.200138
0.201124
0.201723
0.202062
0.202238
0.2023
0.202252
0.202209
0.202195
0.185244
0.185239
0.185346
0.185706
0.186286
0.187104
0.188163
0.189529
0.191299
0.193483
0.195894
0.197942
0.199356
0.200246
0.200917
0.201246
0.201372
0.201387
0.2014
0.201407
0.180865
0.180857
0.180964
0.181323
0.181952
0.182841
0.184022
0.185607
0.187697
0.190345
0.193349
0.195993
0.19791
0.199254
0.200034
0.200594
0.20088
0.20102
0.201099
0.201118
0.175997
0.175985
0.176113
0.17648
0.177137
0.178102
0.179468
0.181353
0.183881
0.187135
0.190894
0.194283
0.196769
0.198522
0.199698
0.200461
0.200927
0.201199
0.201338
0.201363
0.170402
0.17039
0.170538
0.170955
0.171677
0.17279
0.174417
0.176708
0.17982
0.183864
0.188581
0.192868
0.195999
0.19829
0.19985
0.200885
0.201552
0.201957
0.202154
0.202187
0.163845
0.16383
0.164012
0.164519
0.165385
0.166729
0.168721
0.17155
0.17542
0.180478
0.186397
0.191786
0.19582
0.198674
0.200658
0.201994
0.202873
0.203414
0.203671
0.203712
0.156074
0.156055
0.156286
0.156909
0.158005
0.159705
0.162186
0.165734
0.1706
0.176956
0.184381
0.191138
0.196178
0.199766
0.202249
0.203932
0.205046
0.205732
0.206054
0.20611
0.146752
0.146725
0.14703
0.147845
0.149245
0.151405
0.15458
0.159098
0.165258
0.173261
0.182566
0.190992
0.197246
0.201706
0.204797
0.206891
0.208284
0.209149
0.209553
0.209618
0.13542
0.135386
0.135797
0.136876
0.138704
0.141506
0.145623
0.15142
0.159256
0.169361
0.181001
0.191457
0.199182
0.204688
0.208506
0.211097
0.212819
0.213891
0.214392
0.214473
0.12143
0.121394
0.121969
0.12342
0.125843
0.129543
0.134923
0.142428
0.152476
0.165254
0.179768
0.192671
0.202156
0.208913
0.21361
0.216805
0.218935
0.220266
0.22089
0.220984
0.103837
0.10381
0.10464
0.106629
0.109921
0.114902
0.122065
0.131925
0.144872
0.161001
0.178996
0.194798
0.206358
0.214601
0.220356
0.224293
0.226929
0.228579
0.229358
0.229472
0.0811372
0.0811362
0.0823897
0.0852428
0.0899016
0.0968378
0.106614
0.119716
0.136441
0.156731
0.178859
0.198018
0.211981
0.221973
0.228999
0.233853
0.237129
0.239192
0.240161
0.240303
0.0509585
0.0510544
0.0530845
0.0574343
0.0643767
0.0744305
0.0880887
0.105681
0.127298
0.152638
0.179543
0.20249
0.219169
0.231186
0.239746
0.24575
0.249867
0.252482
0.253702
0.253874
0.00902062
0.00941511
0.0131502
0.0206034
0.0317634
0.0469809
0.0664099
0.0900756
0.117786
0.149023
0.181252
0.208327
0.22798
0.242276
0.252653
0.260116
0.265382
0.268791
0.27036
0.270562
-0.0526818
-0.0508184
-0.0420222
-0.0277391
-0.00866982
0.0147836
0.0422728
0.0736139
0.108481
0.146275
0.184183
0.215565
0.238331
0.255072
0.267491
0.276734
0.283493
0.288021
0.290169
0.29045
-0.127252
-0.123514
-0.106649
-0.0815693
-0.0520035
-0.0190359
0.017213
0.0567448
0.0993136
0.144407
0.189011
0.225894
0.252967
0.273328
0.288914
0.300997
0.31049
0.316853
0.319534
0.32039
-0.202825
-0.193496
-0.168408
-0.133429
-0.0941413
-0.0520131
-0.00708725
0.0406075
0.090866
0.143276
0.194648
0.23707
0.2684
0.292261
0.310903
0.325708
0.337487
0.345772
0.350276
0.351824
-0.261026
-0.250553
-0.220552
-0.178841
-0.132196
-0.082412
-0.0298226
0.0253383
0.0827878
0.142046
0.199615
0.24687
0.281661
0.308116
0.328726
0.345061
0.357986
0.367376
0.372621
0.37435
-0.308123
-0.29701
-0.26371
-0.217279
-0.165193
-0.109457
-0.050601
0.0109922
0.0748613
0.140311
0.203422
0.254778
0.292198
0.320334
0.341994
0.358957
0.372307
0.382087
0.387617
0.389393
-0.347075
-0.335902
-0.300551
-0.250477
-0.194002
-0.133421
-0.0693709
-0.00229628
0.0671411
0.138117
0.206128
0.260991
0.300556
0.329942
0.352291
0.369582
0.383004
0.392778
0.398239
0.399997
-0.3809
-0.369757
-0.332876
-0.279902
-0.21985
-0.155219
-0.0866943
-0.0148035
0.0596254
0.135604
0.208191
0.266346
0.307837
0.338274
0.361103
0.378522
0.391895
0.401619
0.407067
0.408748
-0.411158
-0.400087
-0.362069
-0.306747
-0.243657
-0.175517
-0.103022
-0.0268497
0.0521602
0.132818
0.209721
0.270949
0.314253
0.345674
0.368968
0.386552
0.399932
0.409621
0.415068
0.416624
-0.439036
-0.428003
-0.389084
-0.331724
-0.266017
-0.194841
-0.118867
-0.0388148
0.0443965
0.129428
0.210474
0.274858
0.320097
0.352624
0.376488
0.394312
0.407749
0.417411
0.422835
0.424294
-0.465327
-0.454296
-0.414536
-0.355413
-0.287419
-0.21358
-0.13452
-0.050975
0.0360875
0.125343
0.210596
0.278282
0.325629
0.359415
0.383973
0.402132
0.415691
0.425348
0.430754
0.43212
-0.490437
-0.479404
-0.438893
-0.378147
-0.30814
-0.231935
-0.150124
-0.063426
0.0272505
0.12056
0.210018
0.281174
0.330876
0.366153
0.391594
0.410226
0.424001
0.4337
0.439058
0.440363
-0.514698
-0.50359
-0.462381
-0.400203
-0.328427
-0.250114
-0.165825
-0.0762304
0.0177771
0.114918
0.208589
0.283465
0.33584
0.372896
0.399441
0.418714
0.432813
0.442603
0.44788
0.44915
-0.538317
-0.52705
-0.485162
-0.421729
-0.348374
-0.268187
-0.181685
-0.0895034
0.00755061
0.108351
0.206224
0.285049
0.340446
0.379628
0.407536
0.427626
0.442171
0.452128
0.457327
0.458552
-0.561327
-0.54988
-0.507364
-0.442786
-0.368021
-0.286183
-0.197742
-0.103251
-0.00341496
0.100809
0.202807
0.285758
0.344515
0.386216
0.415821
0.436963
0.452095
0.462283
0.467423
0.46854
-0.583807
-0.572134
-0.529011
-0.463382
-0.387389
-0.304109
-0.213954
-0.117418
-0.0150936
0.092272
0.198238
0.285412
0.347843
0.39247
0.424182
0.446664
0.462557
0.473046
0.478116
0.479086
-0.605669
-0.593792
-0.550085
-0.483511
-0.406438
-0.321896
-0.230257
-0.131955
-0.0274534
0.0827411
0.192452
0.283852
0.350239
0.398237
0.432515
0.456668
0.473481
0.48429
0.489267
0.490044
-0.626944
-0.61483
-0.570538
-0.503127
-0.425119
-0.339499
-0.246596
-0.146787
-0.0404136
0.0722618
0.185391
0.2809
0.351402
0.403229
0.440645
0.466934
0.484841
0.4959
0.500632
0.501178
-0.647461
-0.635193
-0.590336
-0.522192
-0.443376
-0.356834
-0.262889
-0.161816
-0.0538802
0.0609123
0.177062
0.276437
0.351042
0.407013
0.448237
0.477409
0.496734
0.507831
0.512006
0.512227
-0.667333
-0.654849
-0.609446
-0.540667
-0.461162
-0.373845
-0.279027
-0.17695
-0.0677449
0.0487953
0.167505
0.270379
0.348926
0.409122
0.454793
0.487961
0.509561
0.520399
0.523164
0.522779
-0.686415
-0.673723
-0.627854
-0.5585
-0.478392
-0.390444
-0.294927
-0.192058
-0.0818812
0.0360087
0.156798
0.262695
0.34488
0.409101
0.459529
0.498009
0.523834
0.535132
0.534839
0.53241
-0.704766
-0.691881
-0.645503
-0.575641
-0.495032
-0.406567
-0.310504
-0.207056
-0.0961645
0.0227156
0.145079
0.25338
0.338789
0.406508
0.461377
0.506119
0.53891
0.55452
0.552411
0.540112
-0.722292
-0.709288
-0.662485
-0.592249
-0.511286
-0.422496
-0.326093
-0.222354
-0.111073
0.00836355
0.131735
0.241733
0.329982