/*--------------------------------*- C++ -*----------------------------------*\
  =========                 |
  \\      /  F ield         | OpenFOAM: The Open Source CFD Toolbox
   \\    /   O peration     | Website:  https://openfoam.org
    \\  /    A nd           | Version:  6
     \\/     M anipulation  |
\*---------------------------------------------------------------------------*/
FoamFile
{
    version     2.0;
    format      ascii;
    class       volVectorField;
    location    "15";
    object      U;
}
// * * * * * * * * * * * * * * * * * * * * * * * * * * * * * * * * * * * * * //

dimensions      [0 1 -1 0 0 0 0];

internalField   nonuniform List<vector> 
8800
(
(0.987172 -0.0766595 0)
(1.00187 -0.0551853 0)
(0.999793 -0.0285382 0)
(1.00008 -0.0150695 0)
(1.00005 -0.00844807 0)
(1.00008 -0.00497377 0)
(1.00006 -0.00293437 0)
(1.00001 -0.00168637 0)
(0.999969 -0.000830203 0)
(1.00004 -0.000150704 0)
(0.999957 0.000553462 0)
(0.999992 0.00131718 0)
(1.00004 0.00232453 0)
(1.00008 0.00389478 0)
(1.00006 0.00651491 0)
(1.00007 0.0112462 0)
(1.00003 0.0207455 0)
(0.999169 0.0386457 0)
(1.00705 0.0724438 0)
(0.771212 0.0366557 0)
(0.363242 -0.016 0)
(1.04343 -0.0767081 0)
(1.08455 -0.0702723 0)
(1.04506 -0.053408 0)
(1.02328 -0.0388788 0)
(1.01202 -0.0261341 0)
(1.0062 -0.0166682 0)
(1.00327 -0.010182 0)
(1.00189 -0.00561281 0)
(1.00129 -0.00211924 0)
(1.00121 0.00098011 0)
(1.0015 0.00418648 0)
(1.00241 0.0080962 0)
(1.00443 0.0134124 0)
(1.00861 0.0212395 0)
(1.01674 0.0323776 0)
(1.03247 0.0462726 0)
(1.06261 0.0613254 0)
(1.09194 0.0758277 0)
(0.83905 0.0564565 0)
(0.217235 -0.00239713 0)
(1.07626 -0.049876 0)
(1.1002 -0.0479069 0)
(1.06469 -0.0398277 0)
(1.03954 -0.0328359 0)
(1.02326 -0.02552 0)
(1.01352 -0.0183123 0)
(1.00811 -0.0117583 0)
(1.00541 -0.00603309 0)
(1.00436 -0.000788193 0)
(1.00466 0.00427136 0)
(1.00639 0.00960733 0)
(1.01023 0.0156238 0)
(1.01752 0.0224095 0)
(1.03013 0.0296104 0)
(1.05063 0.0367192 0)
(1.08083 0.0436937 0)
(1.10689 0.0507539 0)
(0.943513 0.0412958 0)
(0.216909 0.00241132 0)
(0.176081 -0.000759204 0)
(1.01877 -0.0349161 0)
(1.10543 -0.0406803 0)
(1.07848 -0.0355712 0)
(1.05338 -0.0296863 0)
(1.03576 -0.0240233 0)
(1.02355 -0.0183281 0)
(1.01559 -0.0124483 0)
(1.01085 -0.00666637 0)
(1.00884 -0.000798637 0)
(1.0094 0.00497472 0)
(1.01261 0.0106579 0)
(1.01882 0.0163342 0)
(1.02865 0.0220218 0)
(1.04337 0.0275127 0)
(1.06426 0.0331409 0)
(1.09418 0.0390446 0)
(1.09452 0.0408649 0)
(0.830101 0.0223669 0)
(0.175542 0.000775625 0)
(0.155648 -0.000543663 0)
(0.959132 -0.0243119 0)
(1.10389 -0.0333079 0)
(1.08719 -0.0305722 0)
(1.06128 -0.026169 0)
(1.04362 -0.0214634 0)
(1.03113 -0.0167203 0)
(1.02228 -0.0118619 0)
(1.01652 -0.00660378 0)
(1.01383 -0.000637513 0)
(1.01457 0.00550172 0)
(1.01863 0.0108627 0)
(1.02572 0.0156568 0)
(1.03622 0.0202211 0)
(1.05097 0.0247761 0)
(1.07217 0.0291022 0)
(1.10081 0.0332028 0)
(1.07088 0.0319579 0)
(0.745881 0.0133588 0)
(0.154849 0.00056135 0)
(0.142426 -0.000369407 0)
(0.905892 -0.0172878 0)
(1.09736 -0.0273938 0)
(1.09558 -0.0263931 0)
(1.06832 -0.0228979 0)
(1.04953 -0.0192762 0)
(1.03653 -0.0151066 0)
(1.02751 -0.0104917 0)
(1.02164 -0.00553971 0)
(1.01878 -0.000178612 0)
(1.01949 0.00515006 0)
(1.02359 0.0101204 0)
(1.03077 0.0146584 0)
(1.04144 0.018756 0)
(1.05691 0.0223412 0)
(1.07971 0.0256595 0)
(1.10408 0.0283655 0)
(1.04195 0.0250026 0)
(0.684934 0.00882788 0)
(0.141309 0.00039056 0)
(0.133549 -0.000251564 0)
(0.862568 -0.0117494 0)
(1.08619 -0.0211677 0)
(1.09997 -0.0213826 0)
(1.07374 -0.0190102 0)
(1.05397 -0.0163768 0)
(1.04012 -0.0132292 0)
(1.03064 -0.00942124 0)
(1.02462 -0.00490152 0)
(1.02177 0.00022106 0)
(1.02236 0.00533561 0)
(1.02633 0.00987412 0)
(1.03368 0.0136851 0)
(1.04499 0.0167863 0)
(1.06143 0.0193375 0)
(1.08482 0.0214893 0)
(1.10331 0.0229133 0)
(1.01244 0.0186133 0)
(0.641515 0.00571217 0)
(0.132049 0.000277221 0)
(0.128141 -0.000121501 0)
(0.831108 -0.0065896 0)
(1.07381 -0.0145617 0)
(1.10205 -0.0160178 0)
(1.07787 -0.0147607 0)
(1.05892 -0.0128811 0)
(1.04584 -0.0104921 0)
(1.03647 -0.0074926 0)
(1.03013 -0.00380071 0)
(1.02689 0.000774938 0)
(1.0275 0.00548275 0)
(1.0317 0.00925193 0)
(1.03906 0.012146 0)
(1.04975 0.014316 0)
(1.06516 0.0159365 0)
(1.08813 0.0171167 0)
(1.10025 0.0171885 0)
(0.986156 0.0120615 0)
(0.613581 0.00306183 0)
(0.126171 0.000151736 0)
(0.126048 -2.97784e-06 0)
(0.811688 -0.00282678 0)
(1.06085 -0.00840223 0)
(1.10108 -0.0105538 0)
(1.07987 -0.0100767 0)
(1.0606 -0.00922865 0)
(1.04753 -0.00785855 0)
(1.03858 -0.00563137 0)
(1.03274 -0.00252713 0)
(1.02983 0.00139946 0)
(1.03003 0.00539023 0)
(1.03359 0.00849253 0)
(1.04029 0.0105407 0)
(1.05062 0.0116066 0)
(1.06632 0.0120833 0)
(1.08877 0.0124237 0)
(1.09395 0.0115202 0)
(0.965089 0.00665988 0)
(0.598553 0.00131832 0)
(0.123515 4.01687e-05 0)
(0.125847 3.37861e-05 0)
(0.800832 -0.00136793 0)
(1.0507 -0.00520297 0)
(1.09936 -0.00722796 0)
(1.0807 -0.00756729 0)
(1.06203 -0.00679955 0)
(1.0497 -0.00577032 0)
(1.04129 -0.00397757 0)
(1.03561 -0.00131087 0)
(1.03264 0.00215054 0)
(1.03263 0.00559152 0)
(1.03577 0.00817281 0)
(1.04189 0.00968841 0)
(1.05148 0.0104333 0)
(1.06627 0.0107208 0)
(1.08774 0.0100105 0)
(1.08729 0.00851027 0)
(0.950212 0.00438884 0)
(0.59041 0.000777717 0)
(0.122595 1.1512e-05 0)
(0.126018 2.80355e-05 0)
(0.792992 -0.000999246 0)
(1.0416 -0.00456427 0)
(1.09676 -0.0072883 0)
(1.08081 -0.0076968 0)
(1.06344 -0.00751681 0)
(1.05172 -0.00611185 0)
(1.04393 -0.00394067 0)
(1.03875 -0.000853161 0)
(1.03579 0.00292477 0)
(1.03549 0.00654756 0)
(1.03802 0.00934173 0)
(1.04327 0.0110882 0)
(1.05204 0.0118355 0)
(1.06574 0.0115144 0)
(1.08558 0.0108844 0)
(1.07998 0.00862584 0)
(0.937465 0.00402115 0)
(0.584037 0.000759317 0)
(0.121891 2.84429e-05 0)
(0.126207 2.31838e-05 0)
(0.786442 -0.000552458 0)
(1.03088 -0.00393191 0)
(1.09179 -0.00807306 0)
(1.08034 -0.00976005 0)
(1.06488 -0.00939909 0)
(1.05411 -0.0076818 0)
(1.04689 -0.00477018 0)
(1.04184 -0.000851154 0)
(1.03865 0.0038058 0)
(1.03808 0.0083293 0)
(1.04017 0.0118207 0)
(1.04473 0.0140693 0)
(1.05247 0.0152157 0)
(1.06455 0.0149503 0)
(1.08155 0.0133078 0)
(1.06909 0.00912724 0)
(0.924377 0.00364689 0)
(0.57826 0.000732151 0)
(0.120984 4.45518e-05 0)
(0.126576 3.81331e-05 0)
(0.782124 4.92826e-05 0)
(1.01979 -0.00234974 0)
(1.08335 -0.00684531 0)
(1.07899 -0.00988873 0)
(1.06628 -0.00982276 0)
(1.05748 -0.00797774 0)
(1.05106 -0.00457937 0)
(1.04617 -0.000149495 0)
(1.04282 0.00505929 0)
(1.0418 0.0100671 0)
(1.0433 0.0137498 0)
(1.0469 0.0161505 0)
(1.05299 0.0170022 0)
(1.0629 0.0166769 0)
(1.07368 0.0136518 0)
(1.05498 0.00809734 0)
(0.91242 0.00292138 0)
(0.573465 0.000661881 0)
(0.119997 5.09165e-05 0)
(0.1273 5.99838e-05 0)
(0.780856 0.000706428 0)
(1.01171 -0.000332595 0)
(1.07453 -0.00350525 0)
(1.07529 -0.00623491 0)
(1.06746 -0.00682365 0)
(1.06076 -0.0052907 0)
(1.05506 -0.00221522 0)
(1.05028 0.00194463 0)
(1.04668 0.00685001 0)
(1.04511 0.0113779 0)
(1.04585 0.0145472 0)
(1.04847 0.0162275 0)
(1.05281 0.0166501 0)
(1.05925 0.0150643 0)
(1.06403 0.0113466 0)
(1.04173 0.00625208 0)
(0.903263 0.00232098 0)
(0.569582 0.000638605 0)
(0.118999 5.57984e-05 0)
(0.128414 7.70212e-05 0)
(0.781818 0.00116041 0)
(1.00808 0.00135302 0)
(1.06897 -4.8487e-05 0)
(1.0725 -0.00157331 0)
(1.06817 -0.00191409 0)
(1.06333 -0.000770016 0)
(1.05852 0.00167925 0)
(1.05396 0.00512631 0)
(1.05004 0.00912815 0)
(1.04775 0.0125209 0)
(1.04764 0.0144263 0)
(1.04896 0.0149461 0)
(1.05136 0.0141857 0)
(1.05443 0.0120313 0)
(1.05561 0.00870723 0)
(1.03184 0.00490648 0)
(0.896654 0.0021346 0)
(0.566037 0.000709922 0)
(0.117928 6.59822e-05 0)
(0.129902 9.82315e-05 0)
(0.784875 0.0016162 0)
(1.0081 0.00257297 0)
(1.06695 0.00256573 0)
(1.07165 0.00227411 0)
(1.06905 0.00260946 0)
(1.06544 0.00387958 0)
(1.06129 0.00602695 0)
(1.05685 0.00885341 0)
(1.05249 0.0119111 0)
(1.04936 0.0141523 0)
(1.04805 0.0149187 0)
(1.04807 0.0143134 0)
(1.04878 0.0126616 0)
(1.04982 0.0102909 0)
(1.049 0.00742315 0)
(1.02476 0.00453555 0)
(0.891257 0.00234269 0)
(0.562172 0.000872318 0)
(0.116646 8.38477e-05 0)
(0.131809 0.000122776 0)
(0.789479 0.00206207 0)
(1.01036 0.0036072 0)
(1.0678 0.00452206 0)
(1.07273 0.00523679 0)
(1.07079 0.00641273 0)
(1.06771 0.00819131 0)
(1.06382 0.0104375 0)
(1.05921 0.0129577 0)
(1.05419 0.015311 0)
(1.04999 0.0165189 0)
(1.04743 0.016123 0)
(1.0461 0.0147573 0)
(1.04556 0.0125907 0)
(1.04537 0.0100788 0)
(1.04354 0.00744849 0)
(1.01902 0.00493731 0)
(0.885886 0.00282379 0)
(0.557502 0.00110352 0)
(0.115033 0.000108043 0)
(0.134231 0.000154807 0)
(0.795671 0.00261507 0)
(1.01465 0.00469005 0)
(1.07072 0.00626957 0)
(1.07557 0.00788242 0)
(1.07364 0.00990688 0)
(1.07055 0.0123304 0)
(1.06649 0.0149989 0)
(1.06136 0.0175848 0)
(1.05536 0.0195239 0)
(1.04982 0.0199337 0)
(1.04596 0.0186811 0)
(1.04345 0.016496 0)
(1.04187 0.0138565 0)
(1.04084 0.0111188 0)
(1.03842 0.00845042 0)
(1.01347 0.00590595 0)
(0.879824 0.00352685 0)
(0.551691 0.00139218 0)
(0.113002 0.000136972 0)
(0.137336 0.000198408 0)
(0.803732 0.00332502 0)
(1.02086 0.00603335 0)
(1.07549 0.00832513 0)
(1.07987 0.0106982 0)
(1.07767 0.0135821 0)
(1.07425 0.0168464 0)
(1.06959 0.020151 0)
(1.06355 0.0230244 0)
(1.05619 0.0247621 0)
(1.04906 0.0245118 0)
(1.04372 0.0224715 0)
(1.04004 0.0194949 0)
(1.03756 0.016248 0)
(1.03586 0.0131043 0)
(1.03295 0.0101553 0)
(1.00739 0.00730165 0)
(0.872704 0.00442378 0)
(0.544466 0.00174444 0)
(0.110459 0.000169932 0)
(0.141396 0.000264728 0)
(0.814235 0.00433277 0)
(1.02898 0.00788297 0)
(1.08193 0.0109136 0)
(1.0857 0.0140772 0)
(1.08302 0.0179577 0)
(1.07893 0.0222088 0)
(1.07328 0.0262859 0)
(1.06585 0.029588 0)
(1.05669 0.0312699 0)
(1.04764 0.0304128 0)
(1.04069 0.0275079 0)
(1.03578 0.0236605 0)
(1.03241 0.0196404 0)
(1.03006 0.015872 0)
(1.02669 0.0124168 0)
(1.00031 0.00903103 0)
(0.86392 0.00552546 0)
(0.535541 0.00219044 0)
(0.107301 0.000210762 0)
(0.146769 0.000361698 0)
(0.827942 0.0057738 0)
(1.03954 0.0104412 0)
(1.09041 0.0143641 0)
(1.0934 0.0185397 0)
(1.08991 0.0235767 0)
(1.08469 0.0288965 0)
(1.07754 0.0338565 0)
(1.06823 0.0377298 0)
(1.0568 0.0394012 0)
(1.04546 0.0378826 0)
(1.03667 0.0339869 0)
(1.03042 0.0290943 0)
(1.0261 0.0240946 0)
(1.0231 0.0194751 0)
(1.01921 0.0153095 0)
(0.991768 0.0112302 0)
(0.853025 0.00689192 0)
(0.524445 0.00272003 0)
(0.103407 0.000260892 0)
(0.153961 0.000500611 0)
(0.845722 0.0078433 0)
(1.05311 0.0139725 0)
(1.10138 0.0189959 0)
(1.10336 0.0245087 0)
(1.09865 0.0309281 0)
(1.09182 0.0375281 0)
(1.08262 0.0435597 0)
(1.07081 0.0480314 0)
(1.05649 0.0495934 0)
(1.0424 0.0472288 0)
(1.03148 0.0421287 0)
(1.0237 0.0359722 0)
(1.0183 0.0297729 0)
(1.01457 0.0240794 0)
(1.01009 0.0189923 0)
(0.981298 0.0140222 0)
(0.839497 0.00864788 0)
(0.510632 0.00339629 0)
(0.0986192 0.000325069 0)
(0.163751 0.000709553 0)
(0.868832 0.010825 0)
(1.07063 0.0187387 0)
(1.11566 0.0251309 0)
(1.11616 0.0323813 0)
(1.10978 0.0405749 0)
(1.10075 0.0487885 0)
(1.08876 0.0560176 0)
(1.07366 0.0610272 0)
(1.05573 0.0622758 0)
(1.03835 0.0587676 0)
(1.02496 0.0521672 0)
(1.01539 0.0444815 0)
(1.00871 0.0368391 0)
(1.00406 0.0298465 0)
(0.998843 0.0236206 0)
(0.968352 0.0175549 0)
(0.822857 0.0108735 0)
(0.493613 0.00422865 0)
(0.0927865 0.000398063 0)
(0.177439 0.00106453 0)
(0.89954 0.0154723 0)
(1.09352 0.0257564 0)
(1.13426 0.0340277 0)
(1.13248 0.0435549 0)
(1.12361 0.0538787 0)
(1.11142 0.063799 0)
(1.0957 0.0720866 0)
(1.07648 0.0773564 0)
(1.05425 0.077895 0)
(1.03309 0.0728313 0)
(1.01686 0.0643911 0)
(1.00524 0.0548926 0)
(0.997015 0.0455449 0)
(0.99123 0.0370115 0)
(0.985009 0.02941 0)
(0.952349 0.0220178 0)
(0.802374 0.0136931 0)
(0.472873 0.00527564 0)
(0.0857516 0.000482827 0)
(0.197269 0.00170728 0)
(0.941072 0.0230448 0)
(1.12403 0.036568 0)
(1.15866 0.047407 0)
(1.15294 0.0597438 0)
(1.1401 0.0724397 0)
(1.12344 0.0839285 0)
(1.10291 0.0928597 0)
(1.07872 0.0977505 0)
(1.05155 0.0968948 0)
(1.0262 0.0897275 0)
(1.00687 0.0790899 0)
(0.992926 0.0675334 0)
(0.982913 0.0562685 0)
(0.975709 0.0459714 0)
(0.968131 0.0367613 0)
(0.932539 0.0277951 0)
(0.777023 0.0173945 0)
(0.447512 0.00665855 0)
(0.0772804 0.000591677 0)
(0.226675 0.0031497 0)
(0.99927 0.0365063 0)
(1.16436 0.0548645 0)
(1.18993 0.0690371 0)
(1.17775 0.084252 0)
(1.1589 0.0987772 0)
(1.13618 0.110909 0)
(1.1097 0.11941 0)
(1.07979 0.12285 0)
(1.0472 0.119644 0)
(1.01737 0.109701 0)
(0.994733 0.0965033 0)
(0.978259 0.0827108 0)
(0.966195 0.0694435 0)
(0.957227 0.0572957 0)
(0.947749 0.0463768 0)
(0.907918 0.0355683 0)
(0.745508 0.0224521 0)
(0.41702 0.00858667 0)
(0.0675984 0.000708374 0)
(0.267732 0.00994522 -2.82453e-21)
(1.07695 0.0639934 -2.13402e-21)
(1.21289 0.0870992 5.92871e-22)
(1.22534 0.104697 0)
(1.20441 0.121006 1.35148e-36)
(1.17803 0.135285 1.35083e-23)
(1.14819 0.146277 -2.25407e-22)
(1.11503 0.152931 0)
(1.07888 0.15393 9.08593e-36)
(1.0404 0.147699 -7.00944e-22)
(1.00557 0.134632 0)
(0.979096 0.118791 -1.01858e-21)
(0.959513 0.102826 -3.12503e-21)
(0.94474 0.0877357 -1.51568e-21)
(0.933223 0.0741091 -4.79091e-22)
(0.920774 0.0618348 -2.90937e-22)
(0.876379 0.0495715 0)
(0.704765 0.0325983 2.1054e-22)
(0.379865 0.0146614 2.50666e-22)
(0.0584146 0.00207 4.48998e-21)
(0.29315 0.0265619 -5.07757e-21)
(1.13911 0.109287 1.03737e-22)
(1.25549 0.135254 -2.87014e-22)
(1.25729 0.15376 0)
(1.22826 0.168534 4.73475e-22)
(1.1945 0.180966 2.81577e-22)
(1.15765 0.190027 -1.31687e-22)
(1.11773 0.194538 -1.13576e-21)
(1.07501 0.193144 0)
(1.02991 0.184208 2.96447e-21)
(0.988957 0.168484 3.30467e-21)
(0.957307 0.150535 1.06829e-21)
(0.933269 0.133002 4.2437e-21)
(0.914484 0.116666 6.27769e-21)
(0.899139 0.102036 0)
(0.882243 0.0892144 9.39174e-21)
(0.832889 0.0754007 1.38116e-20)
(0.661752 0.0542991 1.55276e-20)
(0.354629 0.029464 -1.80433e-20)
(0.0549465 0.00471986 -3.35309e-22)
(0.288924 0.043581 0)
(1.17493 0.167442 -1.5409e-21)
(1.28801 0.196478 0)
(1.28238 0.212874 2.4525e-21)
(1.24701 0.223986 0)
(1.20687 0.232976 1.30071e-21)
(1.16368 0.238767 1.06094e-22)
(1.11757 0.240109 -1.60513e-21)
(1.0687 0.235597 -3.1059e-22)
(1.01748 0.223597 1.42775e-21)
(0.970949 0.205239 7.73209e-21)
(0.934744 0.185561 -5.57478e-23)
(0.906883 0.167115 -3.19411e-21)
(0.884741 0.150503 -6.22807e-21)
(0.866379 0.135959 7.57935e-21)
(0.847088 0.123336 -1.3655e-20)
(0.799581 0.109554 -1.88269e-21)
(0.646283 0.0846026 0)
(0.363074 0.0492668 3.65939e-23)
(0.0621554 0.00890414 0)
(0.278867 0.0577236 -3.8798e-20)
(1.1914 0.228916 1.58037e-20)
(1.30846 0.262555 8.35527e-21)
(1.29871 0.276589 -1.60163e-21)
(1.25896 0.283755 2.4455e-21)
(1.21408 0.288739 -3.12303e-21)
(1.16588 0.29067 3.6723e-23)
(1.11457 0.288294 0)
(1.06043 0.280227 -5.46919e-21)
(1.00384 0.264806 0)
(0.952551 0.243753 -3.93108e-21)
(0.912636 0.222472 -5.58301e-21)
(0.88193 0.203341 -3.58304e-21)
(0.857556 0.186685 -4.64417e-21)
(0.837532 0.172556 0)
(0.81761 0.160445 0)
(0.774345 0.146839 -1.26444e-20)
(0.638398 0.118539 2.53869e-21)
(0.371732 0.0714272 -1.48781e-21)
(0.0680918 0.0135343 -1.76155e-21)
(0.269157 0.0703736 2.86298e-20)
(1.19557 0.289827 0)
(1.31952 0.32938 -2.33478e-20)
(1.30743 0.341349 -6.00774e-21)
(1.26462 0.34481 -4.60565e-21)
(1.2163 0.345861 0)
(1.16424 0.343896 -6.91631e-22)
(1.10869 0.337754 1.34927e-21)
(1.05018 0.32592 2.34296e-21)
(0.989122 0.306916 7.23538e-21)
(0.933963 0.282973 0)
(0.891331 0.259857 -1.21502e-20)
(0.8588 0.239797 -7.80381e-21)
(0.833266 0.222848 -4.7106e-21)
(0.812575 0.208852 3.10269e-20)
(0.792906 0.197175 3.81796e-21)
(0.753634 0.183406 1.83186e-20)
(0.629034 0.151567 -8.89999e-20)
(0.373142 0.0920061 5.32161e-20)
(0.0704731 0.0177197 -6.50421e-20)
(0.260765 0.0816422 3.02062e-20)
(1.19212 0.34829 -5.52781e-21)
(1.32354 0.395011 4.10094e-21)
(1.31007 0.40539 1.11306e-20)
(1.26504 0.405418 6.85315e-21)
(1.21413 0.402722 3.30185e-22)
(1.1591 0.39706 6.38073e-22)
(1.10021 0.387226 8.87988e-22)
(1.03802 0.371741 -5.14078e-21)
(0.973302 0.349068 0)
(0.914955 0.321975 -5.19404e-21)
(0.870117 0.29674 -2.98869e-22)
(0.836268 0.275384 -8.73837e-21)
(0.810041 0.257755 0)
(0.789167 0.243427 -6.76675e-21)
(0.770128 0.231523 -1.64955e-20)
(0.734105 0.216931 4.58042e-20)
(0.616777 0.180842 -4.58929e-20)
(0.36886 0.109669 6.5611e-20)
(0.0702639 0.0211555 -6.91411e-20)
(0.254061 0.0921091 -1.13385e-22)
(1.18416 0.403736 6.75516e-21)
(1.32237 0.458412 1.95952e-20)
(1.30816 0.467615 -6.80867e-21)
(1.26151 0.464549 3.91467e-21)
(1.20861 0.458437 0)
(1.15112 0.449344 1.87733e-21)
(1.08947 0.435976 -5.68309e-22)
(1.02414 0.41697 -2.29867e-21)
(0.956083 0.390632 0)
(0.894984 0.360241 -5.04432e-21)
(0.848446 0.332558 -7.1473e-21)
(0.813735 0.309494 9.55961e-21)
(0.787235 0.290665 -6.14166e-21)
(0.766516 0.275484 -2.97974e-20)
(0.748159 0.262895 1.83689e-20)
(0.714398 0.247046 5.8356e-21)
(0.601833 0.206461 0)
(0.360643 0.124597 -6.36782e-20)
(0.0686995 0.0239642 -2.36735e-21)
(0.248885 0.102074 4.94773e-21)
(1.1736 0.456024 -7.76739e-21)
(1.31749 0.518968 -1.0714e-20)
(1.30277 0.527406 -2.09936e-20)
(1.25487 0.521604 1.89692e-20)
(1.2004 0.512469 -1.02217e-20)
(1.14096 0.500207 -3.97669e-21)
(1.07695 0.483576 -7.36285e-22)
(1.00891 0.461179 2.41577e-21)
(0.93789 0.431267 -1.76136e-20)
(0.874509 0.397498 -6.23825e-21)
(0.826527 0.367088 0)
(0.791116 0.341888 1.04578e-20)
(0.76445 0.321417 1.29608e-20)
(0.743951 0.304992 1.59961e-20)
(0.72621 0.291363 -2.00453e-20)
(0.693927 0.273834 -6.05295e-21)
(0.58468 0.22869 7.21836e-21)
(0.349673 0.136918 0)
(0.0662179 0.0261359 -5.16322e-21)
(0.244933 0.111618 -5.73977e-20)
(1.16178 0.50526 3.55977e-20)
(1.30986 0.576474 1.17895e-20)
(1.2948 0.584449 -1.60264e-20)
(1.24601 0.576255 1.13341e-20)
(1.19029 0.56446 -7.79372e-22)
(1.12924 0.549364 3.94325e-21)
(1.06322 0.529761 -3.71282e-22)
(0.992864 0.50418 -4.13647e-21)
(0.91919 0.470785 3.07474e-23)
(0.853439 0.433588 -1.85323e-20)
(0.804037 0.400202 1.82595e-20)
(0.76795 0.372531 -1.17356e-20)
(0.741166 0.350051 1.46348e-20)
(0.720969 0.332046 0)
(0.703807 0.31705 -1.08921e-20)
(0.672543 0.297568 -2.60801e-22)
(0.565752 0.247786 -3.15721e-20)
(0.336724 0.147005 -4.6956e-21)
(0.0630302 0.0276028 0)
(0.242023 0.120934 0)
(1.14944 0.551728 3.8609e-20)
(1.30028 0.630849 2.74955e-20)
(1.285 0.638641 1.80886e-20)
(1.23549 0.628325 1.09583e-20)
(1.17877 0.614186 0)
(1.11641 0.596571 3.63859e-21)
(1.04868 0.574303 -2.50148e-22)
(0.976146 0.545824 8.72323e-21)
(0.89996 0.50916 -2.12986e-21)
(0.831787 0.468502 -1.3604e-20)
(0.780925 0.431923 9.124e-21)
(0.744118 0.401513 -3.90829e-22)
(0.717209 0.376719 1.54221e-20)
(0.697329 0.35679 1.01118e-20)
(0.680757 0.340156 -2.37433e-20)
(0.650187 0.318418 2.88268e-20)
(0.545276 0.263821 8.65837e-21)
(0.322021 0.154772 3.60485e-20)
(0.0592029 0.0284641 -9.7557e-20)
(0.239989 0.130112 -1.47185e-20)
(1.13711 0.59558 2.22895e-20)
(1.28932 0.682374 -1.71355e-20)
(1.27388 0.689946 -2.09937e-20)
(1.22382 0.67773 0)
(1.1663 0.661521 8.86981e-21)
(1.10285 0.641681 -1.06025e-20)
(1.03358 0.617073 -2.55619e-22)
(0.959034 0.586006 0)
(0.880369 0.546341 -3.32282e-20)
(0.809787 0.50229 3.71123e-20)
(0.757224 0.462362 0)
(0.719592 0.428955 1.39287e-20)
(0.692503 0.401581 -3.95721e-22)
(0.672904 0.379373 -3.20439e-20)
(0.656859 0.360834 1.26155e-20)
(0.626659 0.336557 0)
(0.523195 0.276933 4.69467e-20)
(0.30562 0.160238 0)
(0.0548194 0.0286646 -4.65466e-20)
(0.238643 0.13915 1.63989e-20)
(1.12512 0.636992 2.54747e-20)
(1.27749 0.730969 -1.79746e-20)
(1.26192 0.738335 0)
(1.21144 0.724468 1.50729e-20)
(1.15325 0.706445 0)
(1.08886 0.684663 1.38097e-20)
(1.01827 0.658005 1.61386e-21)
(0.941886 0.624717 7.94595e-22)
(0.860745 0.582324 -1.6403e-20)
(0.787559 0.535024 3.58546e-21)
(0.733035 0.491715 0)
(0.694434 0.455041 -2.96652e-20)
(0.666996 0.424811 4.1122e-22)
(0.647508 0.400164 0)
(0.631742 0.379332 4.88979e-22)
(0.601684 0.35211 4.25558e-20)
(0.499338 0.287018 -4.11929e-20)
(0.287467 0.163288 1.2241e-20)
(0.0498866 0.0281608 0)
(0.237629 0.147943 0)
(1.11356 0.67614 2.84907e-20)
(1.26521 0.776651 2.10892e-20)
(1.24945 0.783877 -4.37772e-22)
(1.19864 0.768559 9.41127e-21)
(1.13993 0.748955 2.09936e-20)
(1.07476 0.725499 -4.48863e-21)
(1.003 0.697092 7.33714e-22)
(0.924887 0.661909 5.03659e-21)
(0.841239 0.617211 -2.54557e-20)
(0.765179 0.566988 -6.23188e-22)
(0.70835 0.520347 -1.20828e-20)
(0.668377 0.480227 4.87107e-20)
(0.640388 0.446762 -4.95705e-22)
(0.620888 0.419274 -2.53763e-20)
(0.605322 0.395789 -4.64591e-20)
(0.575219 0.365098 0)
(0.473635 0.29408 0)
(0.267573 0.163784 1.34574e-20)
(0.0444974 0.02694 -7.97196e-21)
(0.237083 0.15665 2.03941e-20)
(1.10255 0.712932 -6.23585e-20)
(1.25271 0.819585 -2.26058e-20)
(1.23674 0.826673 0)
(1.18569 0.810063 -3.0841e-22)
(1.12659 0.789084 2.51662e-20)
(1.06078 0.764198 -1.48835e-20)
(0.987975 0.734316 -7.15288e-21)
(0.908224 0.69757 4.86269e-21)
(0.822088 0.650921 -1.94537e-20)
(0.742925 0.59812 -3.13617e-20)
(0.683258 0.548328 3.223e-20)
(0.641236 0.504651 0)
(0.61248 0.467577 -1.1428e-20)
(0.592954 0.436833 -2.79248e-20)
(0.577573 0.410406 -3.3755e-20)
(0.547129 0.375681 -4.11204e-20)
(0.445818 0.298045 1.23576e-20)
(0.245755 0.161328 -7.27986e-21)
(0.0386071 0.0249627 9.439e-23)
(0.236587 0.16506 0)
(1.09223 0.747679 0)
(1.24017 0.859881 5.07936e-22)
(1.22398 0.866808 0)
(1.17279 0.84906 -3.54069e-20)
(1.1134 0.826888 -2.22082e-20)
(1.04708 0.800786 0)
(0.973366 0.769701 -1.65293e-21)
(0.892107 0.731717 5.40664e-21)
(0.803504 0.683585 -4.46358e-20)
(0.721058 0.628587 0)
(0.658207 0.575765 -2.06501e-20)
(0.6135 0.528343 -6.07724e-22)
(0.583348 0.487427 -5.01544e-22)
(0.563544 0.453161 2.98827e-20)
(0.548211 0.423149 -7.73415e-23)
(0.517093 0.383837 -8.956e-20)
(0.415314 0.29875 2.70179e-20)
(0.222027 0.155986 8.05793e-21)
(0.0322825 0.0222361 0)
(0.236141 0.17312 -7.51671e-20)
(1.08232 0.780561 -3.82686e-20)
(1.22772 0.897625 -5.67286e-20)
(1.21133 0.904376 7.88837e-20)
(1.16007 0.885621 -6.64247e-20)
(1.1005 0.862429 0)
(1.03379 0.835307 -1.26009e-20)
(0.959312 0.803255 3.14906e-21)
(0.876665 0.764352 7.45206e-22)
(0.785627 0.715145 3.549e-21)
(0.699728 0.658528 3.9181e-20)
(0.63326 0.603133 -7.04968e-21)
(0.585468 0.552216 -3.01528e-20)
(0.553143 0.507121 -1.36381e-20)
(0.532592 0.468525 1.66884e-20)
(0.517082 0.434409 -6.48877e-23)
(0.484932 0.389324 2.46657e-20)
(0.382141 0.295775 -5.8735e-20)
(0.195861 0.147169 7.0344e-20)
(0.0256131 0.0187749 1.03213e-20)
(0.235555 0.180809 2.76268e-20)
(1.07282 0.81162 -2.09466e-20)
(1.21548 0.93293 1.20812e-21)
(1.19891 0.939499 4.45946e-20)
(1.14765 0.919859 1.55142e-20)
(1.088 0.895785 4.44245e-20)
(1.02102 0.86781 -5.53155e-21)
(0.945908 0.83501 1.49786e-20)
(0.862009 0.795482 -1.26647e-21)
(0.768631 0.745638 -2.40277e-20)
(0.679186 0.687867 0)
(0.608703 0.630356 -3.17853e-20)
(0.557205 0.576183 4.38315e-20)
(0.521836 0.526921 0)
(0.499801 0.483385 -3.57699e-20)
(0.483785 0.443829 2.22702e-20)
(0.450446 0.391963 -2.67155e-20)
(0.346479 0.288823 -3.23204e-20)
(0.168168 0.135175 -5.74342e-20)
(0.0188233 0.0147095 -4.54105e-20)
(0.235137 0.188204 -3.04057e-20)
(1.06358 0.840853 2.24237e-20)
(1.20353 0.965892 5.3019e-20)
(1.18681 0.972277 6.1365e-20)
(1.13561 0.951869 -3.25564e-20)
(1.07597 0.927039 3.06488e-20)
(1.00883 0.898351 -1.72723e-20)
(0.933225 0.865003 1.83649e-20)
(0.848219 0.825123 5.79869e-22)
(0.75264 0.775035 2.25738e-20)
(0.65958 0.716712 8.29318e-20)
(0.584745 0.657687 0)
(0.528741 0.600796 0)
(0.489369 0.547284 -1.58026e-20)
(0.464797 0.498138 0)
(0.447619 0.451627 4.86213e-20)
(0.412974 0.390551 5.8598e-20)
(0.30859 0.276786 0)
(0.140084 0.120035 0)
(0.0125028 0.0104044 4.96194e-20)
(0.234437 0.195043 3.35712e-20)
(1.0546 0.868282 2.68657e-20)
(1.19192 0.996644 3.8162e-20)
(1.17508 1.00285 -5.48389e-20)
(1.12402 0.981757 -3.63275e-20)
(1.06445 0.956264 -4.06394e-20)
(0.997275 0.926992 2.56314e-20)
(0.921304 0.893262 1.16944e-22)
(0.835354 0.853272 -9.5916e-22)
(0.737712 0.803326 -1.24804e-21)
(0.641152 0.745001 4.19423e-20)
(0.561754 0.685064 0)
(0.500713 0.625981 4.42636e-20)
(0.45603 0.568992 3.32898e-20)
(0.42719 0.513984 8.54683e-20)
(0.407273 0.45772 2.62554e-20)
(0.371174 0.383408 -3.25371e-20)
(0.269377 0.257062 -1.92132e-20)
(0.1151 0.10136 0)
(0.0078279 0.00631727 5.41315e-20)
(0.233939 0.201762 -7.39748e-20)
(1.04588 0.894048 0)
(1.18066 1.02528 4.26864e-20)
(1.16377 1.03131 -4.49962e-20)
(1.1129 1.00962 4.11503e-20)
(1.05348 0.983551 5.93529e-20)
(0.986372 0.953794 -5.93484e-20)
(0.910164 0.919831 6.68354e-22)
(0.823432 0.879933 0)
(0.723932 0.830448 -2.03217e-20)
(0.623991 0.772669 -8.64281e-20)
(0.539923 0.712492 4.30124e-21)
(0.47346 0.652144 6.00436e-20)
(0.422375 0.59257 0)
(0.386921 0.53217 5.76338e-20)
(0.360921 0.463966 0)
(0.320669 0.368765 0)
(0.227456 0.221376 -2.15216e-20)
(0.107695 0.0689169 0)
(0.0239826 0.00777108 1.46479e-20)
(0.233086 0.207828 -8.09193e-20)
(1.03737 0.918432 0)
(1.16974 1.052 6.92671e-20)
(1.15285 1.05789 0)
(1.10223 1.03571 -2.23719e-20)
(1.04299 1.00917 0)
(0.976052 0.979055 -4.41857e-21)
(0.899708 0.945033 -3.19072e-21)
(0.812343 0.905455 -3.26906e-22)
(0.711151 0.856781 -1.93875e-20)
(0.607993 0.800152 2.22732e-21)
(0.519183 0.740528 3.56604e-20)
(0.446963 0.679421 5.81282e-20)
(0.388383 0.618912 8.34267e-21)
(0.343358 0.555154 4.50258e-20)
(0.306079 0.474109 0)
(0.250893 0.350293 7.13016e-20)
(0.160568 0.158547 -4.26955e-20)
(0.0538398 0.0791527 4.95454e-20)
(-0.0325823 0.40832 -5.87834e-20)
(0.232186 0.213617 6.60535e-20)
(1.0289 0.941315 1.02497e-19)
(1.15908 1.07712 0)
(1.14217 1.08301 9.8938e-22)
(1.09183 1.06057 6.07924e-20)
(1.03275 1.03378 -1.1505e-19)
(0.966048 1.00353 -2.6163e-20)
(0.889601 0.969767 0)
(0.801647 0.930889 -6.90099e-21)
(0.698831 0.883604 -4.69858e-22)
(0.59241 0.828878 0)
(0.49856 0.770854 0)
(0.420071 0.709902 5.07777e-20)
(0.353402 0.650057 -2.59907e-20)
(0.294998 0.586977 -4.46674e-20)
(0.240231 0.496829 0)
(0.138847 0.339604 3.6563e-20)
(0.0326907 0.46423 -4.36012e-20)
(0.047444 1.78633 -2.38249e-20)
(0.0790379 2.75373 -2.91155e-20)
(0.230973 0.218808 -4.85019e-20)
(1.02056 0.962885 -1.29593e-19)
(1.14868 1.10064 4.00659e-20)
(1.13179 1.10654 3.83756e-20)
(1.08178 1.08402 0)
(1.02284 1.05711 -8.24493e-20)
(0.956529 1.02692 -4.37801e-20)
(0.87999 0.993622 2.1005e-21)
(0.791567 0.955727 -9.51359e-22)
(0.687293 0.910286 1.35918e-20)
(0.577784 0.858108 3.76235e-20)
(0.478993 0.803007 3.61217e-20)
(0.393977 0.74282 4.96088e-20)
(0.31998 0.684119 -5.89094e-20)
(0.247878 0.629005 -6.56714e-20)
(0.167498 0.540724 0)
(0.0753872 0.839348 0)
(0.12445 2.47914 1.90387e-20)
(0.131442 3.16513 0)
(0.130922 3.37134 4.76461e-20)
(0.232552 0.22372 0)
(1.01257 0.983408 0)
(1.13828 1.12244 0)
(1.12149 1.12829 1.07005e-20)
(1.07183 1.10588 5.45131e-20)
(1.01304 1.07905 -6.2998e-20)
(0.947422 1.04913 -3.13716e-20)
(0.87081 1.01648 2.37805e-21)
(0.78204 0.979808 -1.54898e-20)
(0.676524 0.936646 -2.1143e-21)
(0.564197 0.887646 6.66886e-20)
(0.460852 0.836703 -4.24459e-21)
(0.369134 0.778705 5.53325e-21)
(0.289517 0.717955 8.36209e-21)
(0.209457 0.678473 5.30183e-22)
(0.136717 0.944127 3.26512e-22)
(0.173427 2.61957 -9.24358e-20)
(0.191509 3.27241 -3.52023e-20)
(0.174142 3.42347 1.70762e-20)
(0.156319 3.44847 -1.78473e-20)
(0.154711 0.168783 2.86543e-20)
(0.999105 1.00578 0)
(1.12786 1.14272 -7.8689e-20)
(1.11176 1.14867 -9.96716e-20)
(1.06237 1.1266 1.13249e-19)
(1.00396 1.09999 6.67946e-20)
(0.938526 1.0702 3.69149e-20)
(0.862073 1.03837 -4.05642e-20)
(0.773168 1.00314 1.63791e-20)
(0.666839 0.962551 0)
(0.552203 0.917216 2.79929e-20)
(0.444873 0.871153 -2.6565e-20)
(0.346194 0.81935 0)
(0.26315 0.75725 7.45977e-21)
(0.192295 0.876169 1.83014e-20)
(0.182582 2.30128 -2.19818e-20)
(0.258385 3.31081 2.51226e-20)
(0.235837 3.4452 1.218e-20)
(0.196564 3.46898 1.42102e-20)
(0.170464 3.47929 1.79956e-20)
(0.264805 0.257821 -5.60404e-20)
(0.978496 1.01132 0)
(1.10859 1.16495 8.14097e-20)
(1.09834 1.17926 1.04041e-19)
(1.04739 1.15715 -1.1758e-19)
(0.989151 1.1311 -7.14985e-20)
(0.923453 1.10272 -5.66405e-20)
(0.847091 1.07234 -3.01179e-21)
(0.757674 1.03968 -2.30533e-20)
(0.649692 1.00379 -3.16167e-21)
(0.531199 0.96587 9.53341e-22)
(0.417989 0.928931 1.96509e-20)
(0.308573 0.894049 4.37574e-21)
(0.237904 1.00818 -6.42113e-21)
(0.264354 2.19315 -1.50699e-20)
(0.331643 3.314 1.09087e-20)
(0.318703 3.48423 -9.61885e-21)
(0.27784 3.50725 -5.6253e-21)
(0.237203 3.53468 8.36416e-22)
(0.180787 3.52622 -1.83677e-22)
(0.253263 0.255239 0)
(0.974162 1.03116 2.14487e-20)
(1.09989 1.18594 -1.60735e-20)
(1.08829 1.2001 -1.15595e-20)
(1.03783 1.17809 -7.70197e-20)
(0.980052 1.15227 6.9666e-20)
(0.914484 1.12418 3.80494e-20)
(0.838522 1.09476 -3.15095e-21)
(0.749383 1.06391 2.83536e-20)
(0.641249 1.03125 -2.9306e-21)
(0.521426 0.998918 -3.11966e-20)
(0.405893 0.968713 2.77418e-21)
(0.299825 0.959239 -3.70446e-21)
(0.28384 1.41861 -5.11423e-21)
(0.369169 3.01784 3.94991e-21)
(0.404885 3.4791 4.90039e-22)
(0.352812 3.55108 -6.65952e-21)
(0.312194 3.57236 -9.64653e-21)
(0.256923 3.59458 1.52063e-20)
(0.194135 3.58792 7.11293e-21)
(0.237884 0.251384 5.3032e-20)
(0.968543 1.05307 1.435e-19)
(1.09056 1.20856 -4.57244e-20)
(1.07792 1.22231 -4.37896e-20)
(1.02796 1.2002 0)
(0.970632 1.1744 1.01646e-19)
(0.905486 1.14662 5.79052e-20)
(0.830216 1.1181 -3.3053e-21)
(0.74172 1.08914 2.96337e-21)
(0.633897 1.05978 1.7345e-20)
(0.513572 1.0334 -7.1223e-21)
(0.397634 1.0111 -1.78607e-20)
(0.309169 1.06994 -2.3191e-20)
(0.362816 2.01296 2.49589e-20)
(0.465073 3.36492 9.62422e-21)
(0.456984 3.55634 0)
(0.396016 3.60196 0)
(0.350061 3.64587 1.416e-20)
(0.281223 3.70428 0)
(0.204606 3.67356 3.31024e-20)
(0.226537 0.251185 -7.70304e-20)
(0.960711 1.07531 -1.1893e-19)
(1.07984 1.23211 0)
(1.06645 1.2452 1.12342e-21)
(1.017 1.22272 -7.45901e-20)
(0.960273 1.19683 1.50716e-19)
(0.895891 1.16935 3.88757e-20)
(0.821588 1.14167 -4.06004e-21)
(0.734013 1.11446 3.12807e-20)
(0.626904 1.08835 -1.72157e-21)
(0.506935 1.06795 0)
(0.393109 1.05592 0)
(0.341213 1.25977 -1.52274e-20)
(0.460958 2.67614 3.81084e-21)
(0.552905 3.50432 -5.80025e-21)
(0.503937 3.60466 0)
(0.458271 3.66237 3.71404e-20)
(0.392141 3.73644 -5.60753e-20)
(0.339027 3.71898 -4.90521e-20)