/*--------------------------------*- C++ -*----------------------------------*\
  =========                 |
  \\      /  F ield         | OpenFOAM: The Open Source CFD Toolbox
   \\    /   O peration     | Website:  https://openfoam.org
    \\  /    A nd           | Version:  6
     \\/     M anipulation  |
\*---------------------------------------------------------------------------*/
FoamFile
{
    version     2.0;
    format      ascii;
    class       volScalarField;
    location    "64";
    object      p;
}
// * * * * * * * * * * * * * * * * * * * * * * * * * * * * * * * * * * * * * //

dimensions      [0 2 -2 0 0 0 0];

internalField   nonuniform List<scalar> 
8800
(
0.924404
0.875088
0.83712
0.809047
0.788879
0.774283
0.763672
0.756113
0.751202
0.749099
0.750433
0.754746
0.761518
0.770924
0.783649
0.800963
0.824836
0.85793
0.900866
0.953379
0.758903
0.765247
0.774395
0.77794
0.775326
0.769229
0.762276
0.756018
0.751193
0.748292
0.748024
0.750618
0.755234
0.761343
0.768431
0.775456
0.780328
0.7802
0.773522
0.764622
0.732429
0.738663
0.74316
0.747025
0.749966
0.750904
0.7498
0.747658
0.745649
0.744773
0.745766
0.748187
0.751049
0.753303
0.753812
0.752016
0.748644
0.744627
0.739844
0.736128
0.728145
0.730909
0.733511
0.735662
0.73739
0.738946
0.740032
0.740362
0.740217
0.740275
0.741038
0.742145
0.742861
0.742692
0.741704
0.74034
0.738664
0.736358
0.733945
0.732378
0.72311
0.724534
0.726369
0.728442
0.730144
0.731422
0.732501
0.733455
0.734229
0.73492
0.735584
0.736005
0.736
0.735615
0.734933
0.733807
0.732143
0.730244
0.728888
0.728086
0.718147
0.71905
0.720291
0.721908
0.723589
0.725105
0.726367
0.72746
0.728484
0.72945
0.730182
0.730528
0.730504
0.730113
0.729293
0.728092
0.726721
0.72545
0.724626
0.724102
0.713274
0.713929
0.714884
0.716191
0.717624
0.719122
0.720581
0.721911
0.723128
0.724273
0.725162
0.725606
0.725586
0.725121
0.72432
0.723363
0.72236
0.721449
0.720867
0.720483
0.708487
0.708991
0.70977
0.710899
0.712183
0.713578
0.715058
0.71656
0.71802
0.719407
0.72049
0.72104
0.721074
0.720719
0.720131
0.719426
0.718676
0.718005
0.717575
0.717276
0.703734
0.704135
0.704788
0.705795
0.707007
0.708347
0.709819
0.711414
0.713085
0.714751
0.716082
0.716819
0.717041
0.716912
0.716563
0.716076
0.71553
0.715052
0.714734
0.714492
0.698934
0.699261
0.699827
0.700755
0.701919
0.703247
0.704754
0.706448
0.708314
0.710274
0.711931
0.712968
0.713472
0.713606
0.713493
0.713231
0.712881
0.712564
0.712331
0.712127
0.694
0.694272
0.694778
0.69566
0.696808
0.698163
0.699745
0.701582
0.703678
0.705982
0.708049
0.709475
0.710321
0.71075
0.710894
0.710859
0.710705
0.710531
0.710365
0.71019
0.688845
0.689074
0.689541
0.690407
0.691579
0.693004
0.694706
0.69674
0.699135
0.701866
0.704434
0.706325
0.707569
0.708339
0.708769
0.708973
0.709017
0.708972
0.708862
0.708706
0.683376
0.683571
0.68402
0.6849
0.686135
0.687673
0.68955
0.691849
0.694629
0.697893
0.701068
0.703513
0.705223
0.70638
0.707133
0.707591
0.707847
0.707927
0.707863
0.707721
0.67749
0.677659
0.678106
0.679028
0.680369
0.682073
0.684191
0.686837
0.690103
0.694023
0.697935
0.701042
0.703301
0.704905
0.706028
0.70679
0.707259
0.707457
0.707433
0.707299
0.671069
0.671216
0.671676
0.67267
0.67416
0.67609
0.678529
0.681621
0.685496
0.690224
0.695028
0.698926
0.701834
0.703964
0.705507
0.706603
0.707312
0.707634
0.707647
0.707517
0.663973
0.664096
0.664585
0.665681
0.667372
0.6696
0.67245
0.676103
0.680733
0.686449
0.692331
0.697174
0.700851
0.703601
0.705639
0.707118
0.708099
0.708549
0.708596
0.708466
0.656012
0.656117
0.656652
0.657885
0.659838
0.662446
0.665817
0.670174
0.675739
0.682659
0.68984
0.695813
0.700398
0.703876
0.706507
0.708436
0.709717
0.710302
0.71038
0.710247
0.646961
0.647065
0.64765
0.649056
0.651348
0.654439
0.658466
0.663703
0.670423
0.678813
0.687553
0.694868
0.700527
0.704863
0.708195
0.710647
0.71227
0.712998
0.713106
0.712965
0.636502
0.636592
0.637268
0.638909
0.641636
0.645346
0.650206
0.656552
0.664707
0.674888
0.685496
0.694389
0.701307
0.706652
0.710785
0.713859
0.715865
0.716742
0.716874
0.716723
0.624263
0.624339
0.625118
0.627072
0.630361
0.634867
0.640795
0.648545
0.65849
0.67086
0.683689
0.694424
0.702801
0.709319
0.714387
0.71817
0.720595
0.721621
0.721772
0.721607
0.609685
0.609754
0.610678
0.613046
0.61707
0.622626
0.629946
0.639494
0.651678
0.666709
0.682167
0.695035
0.705079
0.712938
0.719084
0.723661
0.726532
0.727698
0.727858
0.727676
0.591993
0.592055
0.593193
0.596146
0.601179
0.608149
0.617317
0.629203
0.644205
0.662463
0.680991
0.69629
0.708213
0.717582
0.724917
0.73038
0.733699
0.73498
0.735135
0.734933
0.570027
0.570094
0.571575
0.575404
0.581887
0.590847
0.60255
0.617528
0.63609
0.658219
0.680273
0.698281
0.71227
0.7233
0.731932
0.738316
0.742048
0.743399
0.743529
0.743307
0.542005
0.542101
0.544179
0.549423
0.558148
0.570039
0.585324
0.604427
0.627456
0.654163
0.680166
0.701104
0.717303
0.730094
0.740102
0.747387
0.751436
0.752784
0.752868
0.752626
0.504872
0.505092
0.508386
0.516239
0.528743
0.545146
0.565551
0.590079
0.618561
0.650524
0.680844
0.704876
0.723365
0.737953
0.749349
0.757404
0.7616
0.762848
0.762863
0.762607
0.452789
0.453877
0.460419
0.473659
0.492764
0.51614
0.543619
0.574991
0.609873
0.647659
0.682537
0.709722
0.730486
0.746794
0.759467
0.768072
0.772156
0.773201
0.773136
0.77287
0.377301
0.384706
0.399707
0.422828
0.45179
0.484503
0.520591
0.559799
0.601762
0.64587
0.685643
0.716191
0.739415
0.757583
0.771401
0.780281
0.784102
0.784924
0.784805
0.784571
0.297031
0.313204
0.337563
0.371327
0.410659
0.452873
0.497629
0.544849
0.59427
0.645346
0.690867
0.725556
0.751753
0.772088
0.787093
0.795889
0.79915
0.799708
0.799616
0.79947
0.228267
0.248029
0.280207
0.323149
0.371727
0.422886
0.476076
0.531166
0.587881
0.645684
0.696634
0.735154
0.764068
0.786218
0.80194
0.810373
0.813128
0.813582
0.813549
0.813455
0.171996
0.193979
0.231539
0.281059
0.33688
0.39555
0.456217
0.518578
0.582186
0.646388
0.702471
0.744568
0.775953
0.799691
0.816093
0.824547
0.827153
0.827572
0.827571
0.827506
0.125372
0.148677
0.190137
0.244802
0.306427
0.371304
0.438373
0.507169
0.577056
0.647247
0.708261
0.753809
0.787576
0.812948
0.830185
0.838852
0.841538
0.841947
0.841964
0.841921
0.0857695
0.109868
0.15421
0.213065
0.279585
0.349756
0.422361
0.49687
0.572516
0.648332
0.714042
0.762949
0.799049
0.826023
0.844225
0.853374
0.856209
0.856635
0.856665
0.856642
0.0511547
0.0757864
0.122387
0.184715
0.255421
0.330219
0.40777
0.487473
0.568436
0.649514
0.719704
0.771848
0.810265
0.838822
0.85803
0.867723
0.870792
0.871258
0.871293
0.871282
0.0200325
0.0451045
0.0935704
0.158861
0.233204
0.312084
0.394085
0.478535
0.564442
0.65056
0.725055
0.780333
0.820957
0.851074
0.871222
0.881444
0.884788
0.885334
0.885376
0.885369
-0.0086097
0.0168701
0.0669316
0.134804
0.212344
0.294838
0.380856
0.469696
0.560293
0.651245
0.729934
0.788228
0.830966
0.862521
0.883569
0.894304
0.897896
0.89854
0.898561
0.898551
-0.0355744
-0.00965181
0.0418431
0.112034
0.192396
0.278122
0.367797
0.460708
0.555728
0.651333
0.734159
0.795422
0.840197
0.87311
0.894942
0.906077
0.909865
0.910562
0.910564
0.910541
-0.0612537
-0.0349009
0.0179189
0.090171
0.173054
0.261688
0.354685
0.451347
0.550546
0.650701
0.737637
0.801883
0.848636
0.882799
0.905275
0.916669
0.92058
0.921297
0.921272
0.921228
-0.0860789
-0.0592135
-0.00516806
0.0689505
0.154093
0.245337
0.341358
0.441491
0.544646
0.649232
0.740309
0.807592
0.85633
0.891638
0.91461
0.926151
0.930058
0.930766
0.930707
0.930643
-0.110186
-0.0828012
-0.0275962
0.0482071
0.135369
0.228966
0.327738
0.431071
0.537943
0.646838
0.742121
0.812572
0.863362
0.899761
0.923072
0.934576
0.938428
0.9391
0.93902
0.938936
-0.133702
-0.105768
-0.0494824
0.027853
0.116823
0.212529
0.313786
0.420042
0.530385
0.643458
0.743018
0.816844
0.869836
0.907314
0.930826
0.942149
0.94584
0.946434
0.94633
0.946229
-0.156722
-0.128224
-0.0708736
0.00785307
0.0984249
0.196015
0.299502
0.408413
0.521967
0.639043
0.742937
0.820408
0.875869
0.914495
0.938066
0.949004
0.952409
0.952889
0.952746
0.952631
-0.179303
-0.150161
-0.0917827
-0.0117954
0.0801973
0.179447
0.284923
0.396216
0.512705
0.633559
0.741809
0.823226
0.881547
0.921513
0.945003
0.955297
0.958226
0.958527
0.958353
0.958233
-0.201299
-0.171549
-0.11219
-0.0310785
0.0621698
0.162883
0.270102
0.383515
0.502642
0.627013
0.739565
0.825216
0.886888
0.928599
0.951993
0.961293
0.963437
0.963451
0.963246
0.963133
-0.222683
-0.19235
-0.132082
-0.0499592
0.044393
0.14638
0.255124
0.370377
0.491848
0.619414
0.73614
0.826258
0.891825
0.935914
0.959516
0.967552
0.968367
0.967773
0.967513
0.967459
-0.243511
-0.212536
-0.151433
-0.0684065
0.0269247
0.130016
0.240073
0.356901
0.480407
0.610812
0.73147
0.826217
0.89618
0.943418
0.968034
0.975039
0.973912
0.971893
0.97128
0.971495
-0.263627
-0.23208
-0.170189
-0.0863561
0.0098217
0.113876
0.225045
0.343193
0.468428
0.601294
0.725514
0.824928
0.899691
0.950768
0.977608
0.984865
0.982119
0.977558
0.974745
0.973568
-0.283124
-0.250983
-0.188355
-0.10384
-0.00695041
0.0979191
0.209987
0.329195
0.45584
0.590796
0.718114
0.822137
0.902108
0.957457
0.98765
0.997336
0.995176
0.988072
0.978494
0.97881
-0.301918
-0.269315
-0.206067
-0.121054
-0.0236854
0.0818155
0.194486
0.314424
0.442101
0.578693
0.708616
0.817086
0.902987
0.962883
0.996609
1.01036
1.00957
0.998515
0.980089
0.978065
-0.319873
-0.287035
-0.223155
-0.13781
-0.0401191
0.0658665
0.178749
0.2992
0.427498
0.565219
0.697057
0.809086
0.901483
0.965857
1.00038
1.01454
1.01586
0.990694
0.932882
0.907865
-0.336866
-0.305009
-0.23922
-0.153659
-0.0554829
0.0505523
0.163054
0.283798
0.412313
0.550543
0.683497
0.797532
0.896531
0.965451
0.994166
1.00312
0.990054
0.938718
0.876742
0.838959
-0.379946
-0.3225
-0.254003
-0.169472
-0.070525
0.0349179
0.147542
0.268095
0.396341
0.534311
0.667534
0.781779
0.884243
0.958478
0.975753
0.962899
0.915506
0.850401
0.781459
0.743566
-0.355154
-0.336966
-0.276536
-0.191351
-0.0937613
0.0114359
0.123353
0.243226
0.370521
0.507046
0.638856
0.751124
0.845273
0.926781
0.910413
0.801897
0.711253
0.648274
0.584188
0.611045
-0.386168
-0.354651
-0.293384
-0.208688
-0.11145
-0.00642217
0.10565
0.224845
0.351091
0.485819
0.615019
0.723781
0.807394
0.85306
0.801663
0.662149
0.553067
0.479531
0.397361
0.442723
-0.410273
-0.376313
-0.313282
-0.228511
-0.131336
-0.0263336
0.0856053
0.203989
0.328845
0.46115
0.586518
0.689355
0.761286
0.769159
0.662816
0.507607
0.378517
0.286042
0.190523
0.221857
-0.433767
-0.398723
-0.334286
-0.248841
-0.151585
-0.0467062
0.0647085
0.182111
0.305342
0.434805
0.555308
0.650099
0.704985
0.680176
0.5222
0.345175
0.185316
0.0514791
-0.072847
-0.0600617
-0.457008
-0.421545
-0.356172
-0.270114
-0.172711
-0.0680493
0.0426999
0.158966
0.280278
0.406466
0.521239
0.607924
0.642113
0.5722
0.383896
0.186827
-0.000181586
-0.15402
-0.359495
-0.438623
-0.480683
-0.445244
-0.379304
-0.292801
-0.195225
-0.0907362
0.0194098
0.1345
0.253757
0.37638
0.484969
0.562291
0.571053
0.449556
0.257787
0.0487111
-0.143337
-0.305133
-0.429019
-0.547499
-0.505872
-0.470309
-0.404042
-0.317287
-0.219669
-0.115455
-0.00601263
0.107716
0.224561
0.343039
0.445013
0.509595
0.491025
0.333134
0.139797
-0.0632515
-0.238524
-0.335839
-0.362083
-0.375587
-0.532705
-0.497034
-0.430522
-0.343671
-0.246196
-0.142432
-0.0339462
0.0780989
0.192067
0.305649
0.40052
0.447575
0.40974
0.221352
0.0298655
-0.152978
-0.285219
-0.323103
-0.332089
-0.332429
-0.561462
-0.525544
-0.458785
-0.371942
-0.274756
-0.17168
-0.0644188
0.0455878
0.1562
0.264167
0.350884
0.381654
0.312758
0.119312
-0.0661719
-0.225223
-0.299334
-0.313285
-0.314365
-0.314247
-0.592157
-0.555877
-0.488848
-0.402099
-0.305369
-0.203193
-0.097446
0.0101586
0.116963
0.218693
0.295957
0.312376
0.205226
0.0270338
-0.148658
-0.27538
-0.303964
-0.304171
-0.304474
-0.304001
-0.624534
-0.58786
-0.520613
-0.434062
-0.337953
-0.236921
-0.133006
-0.0281716
0.0744025
0.169351
0.236978
0.234451
0.110007
-0.0577325
-0.213307
-0.286141
-0.300781
-0.298432
-0.297967
-0.297473
-0.658029
-0.621147
-0.553812
-0.467597
-0.372315
-0.272706
-0.17095
-0.0692884
0.0287359
0.116543
0.174402
0.155841
0.0221367
-0.13154
-0.25432
-0.292511
-0.29237
-0.293305
-0.293249
-0.292909
-0.692197
-0.655202
-0.587955
-0.502281
-0.408097
-0.31022
-0.210987
-0.11292
-0.0197462
0.0611488
0.106831
0.0816306
-0.0580739
-0.188982
-0.276069
-0.2857
-0.288538
-0.289603
-0.289596
-0.289499
-0.72608
-0.689127
-0.622288
-0.53746
-0.444733
-0.348974
-0.252649
-0.158571
-0.0706427
0.00397491
0.0390592
0.00672978
-0.127802
-0.233662
-0.280476
-0.292131
-0.288256
-0.286632
-0.28611
-0.286039
-0.757762
-0.721608
-0.655761
-0.572225
-0.481423
-0.388248
-0.295259
-0.205507
-0.123185
-0.0545958
-0.0238117
-0.0717789
-0.187532
-0.276309
-0.296392
-0.294992
-0.288976
-0.283834
-0.28234
-0.281929
-0.7862
-0.751113
-0.686943
-0.60535
-0.517083
-0.427076
-0.33793
-0.252812
-0.17613
-0.114049
-0.085303
-0.139894
-0.236084
-0.308329
-0.328605
-0.311979
-0.295638
-0.287385
-0.28463
-0.283426
-0.808615
-0.775493
-0.714039
-0.635278
-0.550367
-0.464244
-0.379552
-0.2994
-0.228278
-0.172265
-0.146824
-0.1919
-0.269236
-0.322691
-0.323181
-0.323895
-0.323128
-0.318372
-0.313443
-0.310919
-0.822857
-0.79255
-0.734922
-0.660215
-0.579717
-0.498325
-0.418795
-0.343989
-0.278615
-0.226267
-0.20311
-0.232186
-0.284022
-0.327227
-0.321963
-0.334975
-0.345204
-0.342682
-0.338471
-0.3375
-0.826181
-0.799829
-0.747423
-0.678257
-0.603452
-0.527846
-0.45415
-0.385187
-0.325658
-0.275856
-0.248254
-0.266831
-0.276713
-0.319437
-0.316541
-0.315668
-0.316832
-0.318645
-0.320352
-0.321195
-0.816281
-0.794821
-0.749377
-0.687603
-0.620018
-0.551461
-0.484175
-0.421605
-0.367267
-0.323253
-0.277128
-0.295284
-0.257871
-0.249277
-0.272781
-0.290721
-0.30346
-0.311871
-0.315653
-0.316249
-0.790426
-0.774637
-0.738774
-0.686981
-0.628339
-0.568049
-0.508077
-0.451685
-0.402549
-0.366529
-0.31568
-0.313492
-0.260459
-0.208782
-0.266543
-0.312324
-0.337398
-0.349491
-0.353975
-0.355527
-0.752074
-0.741982
-0.716639
-0.676552
-0.628415
-0.577173
-0.5254
-0.474735
-0.431651
-0.40062
-0.375156
-0.371912
-0.381606
-0.335702
-0.364413
-0.410449
-0.430666
-0.43629
-0.438925
-0.440417
-0.708375
-0.702669
-0.687999
-0.659388
-0.622168
-0.579891
-0.535514
-0.491379
-0.451697
-0.425267
-0.410417
-0.459184
-0.604778
-0.780705
-0.735611
-0.616802
-0.568817
-0.545267
-0.533751
-0.530087
-0.66962
-0.666219
-0.659303
-0.640967
-0.612625
-0.577833
-0.539599
-0.500295
-0.462526
-0.435789
-0.416918
-0.492422
-0.566502
-0.662301
-0.691656
-0.680259
-0.64155
-0.557722
-0.504274
-0.500631
-0.641948
-0.640003
-0.636484
-0.625417
-0.603623
-0.573835
-0.539613
-0.501463
-0.464356
-0.428568
-0.412404
-0.390747
-0.361826
-0.367944
-0.397596
-0.442041
-0.478959
-0.456994
-0.403416
-0.377888
-0.621369
-0.620682
-0.619505
-0.613955
-0.597636
-0.571145
-0.537182
-0.499644
-0.456404
-0.415363
-0.398128
-0.354495
-0.23726
-0.116172
-0.027608
0.00812613
0.0280239
0.0169157
0.0236988
0.0293349
-0.60922
-0.608975
-0.608336
-0.605636
-0.594257
-0.569578
-0.534728
-0.493094
-0.444963
-0.396089
-0.346004
-0.293323
-0.0973039
0.0919419
0.299879
0.417347
0.403056
0.368374
0.339279
0.327544
-0.601011
-0.600823
-0.600321
-0.599498
-0.592646
-0.569971
-0.532865
-0.484906
-0.431994
-0.361187
-0.291743
-0.187707
-0.0289167
0.149698
0.258405
0.288678
0.303859
0.354812
0.41639
0.445621
-0.596604
-0.596413
-0.595976
-0.595841
-0.592485
-0.572952
-0.532035
-0.478552
-0.412736
-0.332005
-0.24051
-0.107173
0.0970225
0.25583
0.397077
0.506965
0.596388
0.74652
0.869207
0.920328
-0.593682
-0.594337
-0.595957
-0.597871
-0.59715
-0.577965
-0.532111
-0.473432
-0.400712
-0.310984
-0.200959
-0.0831532
0.139507
0.405297
0.70288
0.981209
1.21554
1.39644
1.49508
1.52651
-0.586831
-0.588463
-0.592131
-0.597491
-0.598723
-0.576921
-0.531692
-0.476767
-0.40206
-0.296891
-0.183519
-0.0703014
0.14131
0.417243
0.771561
1.09886
1.35974
1.53299
1.60752
1.62666
-0.592628
-0.593226
-0.58849
-0.574019
-0.561172
-0.552967
-0.534071
-0.492167
-0.409321
-0.296741
-0.182521
-0.0730001
0.0801109
0.35499
0.670095
0.950058
1.16855
1.2965
1.34766
1.35931
-0.630946
-0.628475
-0.612345
-0.573173
-0.537874
-0.546174
-0.561942
-0.51804
-0.421599
-0.305621
-0.194886
-0.0892444
0.0195591
0.223097
0.486883
0.706
0.874752
0.964241
0.998727
1.00357
-0.701391
-0.699487
-0.70337
-0.707243
-0.701277
-0.690528
-0.663078
-0.563523
-0.435857
-0.319806
-0.208118
-0.119184
-0.0356837
0.112814
0.310206
0.470909
0.589232
0.647018
0.668367
0.67033
-0.83331
-0.848521
-0.892238
-0.936647
-0.944202
-0.905139
-0.798058
-0.619412
-0.457033
-0.330298
-0.224474
-0.149951
-0.0920168
0.0227339
0.155389
0.262766
0.33897
0.376758
0.390767
0.392096
-0.936925
-0.959087
-1.00118
-1.03526
-1.04
-0.997098
-0.850889
-0.631928
-0.463759
-0.332757
-0.23164
-0.170338
-0.130668
-0.0552129
0.0359187
0.102315
0.141431
0.15978
0.166364
0.166219
-0.890727
-0.909432
-0.94188
-0.97097
-0.976802
-0.926795
-0.760833
-0.57354
-0.430171
-0.307766
-0.230273
-0.181164
-0.147207
-0.100328
-0.0558403
-0.0302241
-0.0161481
-0.0126047
-0.0106819
-0.0105219
-0.656419
-0.67646
-0.711873
-0.749411
-0.763199
-0.710686
-0.584515
-0.459613
-0.343907
-0.261347
-0.21493
-0.17342
-0.157295
-0.123211
-0.106946
-0.108179
-0.115949
-0.123721
-0.123837
-0.122954
-0.303595
-0.31824
-0.347116
-0.383248
-0.405721
-0.395591
-0.353074
-0.298172
-0.239863
-0.206238
-0.177085
-0.164165
-0.152213
-0.130043
-0.128282
-0.137415
-0.160895
-0.163689
-0.160432
-0.157815
0.00983826
0.00213005
-0.0166783
-0.0482974
-0.0860745
-0.114422
-0.135639
-0.145785
-0.148298
-0.136859
-0.137846
-0.148366
-0.152847
-0.122561
-0.106422
-0.106297
-0.110439
-0.109362
-0.10758
-0.107194
0.186078
0.182115
0.169148
0.141667
0.0981306
0.0440868
-0.00371362
-0.0408419
-0.0634308
-0.0765411
-0.0910484
-0.110818
-0.124562
-0.0889758
-0.0612111
-0.0476052
-0.0356097
-0.0305979
-0.0290404
-0.030126
0.243151
0.240766
0.231561
0.209615
0.172464
0.12489
0.0745085
0.0303127
-0.00233215
-0.0212301
-0.0347823
-0.0440623
-0.0423949
-0.0220368
-0.00399327
0.00710309
0.0182572
0.0241134
0.0245638
0.0237501
0.238932
0.237449
0.231266
0.215946
0.188929
0.152624
0.112145
0.073988
0.0439411
0.0278782
0.0232838
0.0331241
0.0467409
0.0515735
0.0544657
0.0558038
0.0598872
0.0620731
0.0621273
0.060921
0.212277
0.211463
0.207621
0.19775
0.179804
0.154532
0.124885
0.0963305
0.0736895
0.0641209
0.0715196
0.0953508
0.116712
0.107487
0.0959976
0.0891271
0.0864526
0.0856639
0.0848168
0.0839091
0.179764
0.17942
0.177233
0.171275
0.160023
0.143666
0.123732
0.104111
0.0892896
0.0878308
0.103542
0.133359
0.154046
0.141809
0.123525
0.112237
0.106309
0.102165
0.0998363
0.0989409
0.147122
0.147032
0.145932
0.142541
0.135856
0.125818
0.113361
0.101574
0.0940387
0.098199
0.119415
0.150568
0.167841
0.153864
0.136763
0.124615
0.116915
0.111581
0.108927
0.108352
0.116066
0.116101
0.115602
0.113827
0.11008
0.104285
0.0970452
0.0905044
0.0879592
0.0958761
0.118941
0.148898
0.162773
0.147122
0.132301
0.124859
0.121237
0.118191
0.116199
0.115484
0.0863722
0.086497
0.0863751
0.0856164
0.0837654
0.0807228
0.0769469
0.0738922
0.0739831
0.082219
0.101938
0.125925
0.134688
0.124788
0.115448
0.114084
0.114549
0.114046
0.112756
0.111936
0.0581022
0.0582313
0.0582783
0.0581482
0.0574215
0.0560775
0.0543339
0.0530908
0.0540744
0.0600457
0.0709714
0.0806841
0.0829822
0.0769471
0.0788771
0.0871749
0.0924461
0.0941294
0.0933496
0.0923064
0.031269
0.0313793
0.0314893
0.0315632
0.0314454
0.0310338
0.0304283
0.0301683
0.0305817
0.0331427
0.0337732
0.0180027
0.0071254
0.0149708
0.031056
0.0462824
0.0539313
0.0552393
0.054581
0.0538438
0.00582932
0.00587554
0.00584847
0.00596771
0.00627171
0.00644542
0.00646169
0.00635646
0.00652331
0.00602676
0.00538643
-0.000357251
-0.0126115
-0.00286269
0.00146201
0.00618771
0.00426165
0.00438355
0.0069902
0.00811166
0.0723161
0.261763
0.435975
0.583674
0.702407
0.796574
0.875146
0.93901
0.95537
0.951709
0.364047
0.486022
0.600419
0.699881
0.783735
0.853065
0.90773
0.944704
0.964484
0.981057
0.562179
0.643581
0.724145
0.794868
0.8552
0.90526
0.944662
0.974664
0.997221
1.01646
0.708794
0.766437
0.824617
0.876845
0.921897
0.960228
0.992383
1.01934
1.03965
1.05854
0.826185
0.869498
0.912492
0.952829
0.988866
1.02069
1.04853
1.07211
1.09007
1.10811
0.923325
0.959127
0.994415
1.02819
1.05934
1.08754
1.11242
1.13329
1.14907
1.16655
1.01179
1.04381
1.07614
1.10737
1.1364
1.16278
1.18591
1.20485
1.21877
1.23578
1.09882
1.13142
1.16386
1.19508
1.22386
1.24966
1.2718
1.28933
1.30172
1.31825
1.19326
1.22968
1.26444
1.2969
1.32609
1.35145
1.37258
1.38887
1.40049
1.41664
1.30632
1.34689
1.38393
1.4169
1.4454
1.46941
1.48904
1.50432
1.51622
1.5323
1.44768
1.48877
1.52404
1.55365
1.57886
1.60047
1.61898
1.63447
1.64759
1.66354
1.61925
1.65168
1.67855
1.70087
1.72096
1.73968
1.75742
1.77419
1.78911
1.80483
1.8056
1.82287
1.83999
1.85667
1.87277
1.88751
1.90141
1.91589
1.93113
1.94843
1.98898
1.99896
2.01216
2.02315
2.03255
2.04221
2.05282
2.063
2.07229
2.09796
2.20689
2.20119
2.18825
2.17398
2.16768
2.1734
2.19154
2.22006
2.25383
2.29015
2.5097
2.37374
2.29424
2.25173
2.2344
2.23838
2.26581
2.32368
2.43134
2.60975
0.8281
0.821797
0.814066
0.80295
0.789377
0.776725
0.766324
0.758307
0.752584
0.749247
0.748892
0.751724
0.756957
0.764315
0.773865
0.785696
0.799258
0.812188
0.821178
0.828719
0.73717
0.743089
0.75116
0.757291
0.760358
0.759843
0.756753
0.752753
0.749158
0.746869
0.746733
0.748986
0.752741
0.757189
0.761292
0.763539
0.762466
0.757831
0.750777
0.742944
0.730422
0.732795
0.736061
0.738832
0.741281
0.743467
0.744642
0.74449
0.743547
0.742736
0.74295
0.744367
0.746151
0.747382
0.747309
0.745844
0.743688
0.741327
0.738346
0.735328
0.725637
0.726726
0.728642
0.730978
0.732847
0.734242
0.735456
0.736444
0.737038
0.737413
0.737968
0.738715
0.739186
0.739071
0.738446
0.737526
0.736197
0.734228
0.732122
0.730645
0.720619
0.721253
0.722381
0.724137
0.725978
0.727568
0.728814
0.729872
0.730848
0.731743
0.732531
0.733058
0.733201
0.733
0.732467
0.731496
0.730071
0.728463
0.727126
0.726325
0.715701
0.71614
0.716928
0.71823
0.719749
0.721309
0.722782
0.724072
0.72522
0.726303
0.727259
0.72787
0.728056
0.727827
0.727168
0.726173
0.725023
0.723881
0.722978
0.722445
0.710875
0.711202
0.711814
0.712882
0.714174
0.71557
0.717043
0.71851
0.719894
0.721192
0.722343
0.723099
0.723335
0.723099
0.722508
0.72173
0.720888
0.720036
0.719376
0.718984
0.706114
0.706368
0.706861
0.707771
0.70894
0.710244
0.71166
0.71318
0.714751
0.716308
0.717709
0.71864
0.718994
0.718906
0.718532
0.717992
0.717364
0.71674
0.716259
0.71596
0.701349
0.701551
0.701961
0.702761
0.703852
0.705109
0.706511
0.708075
0.709787
0.711591
0.713288
0.714484
0.715078
0.715237
0.715105
0.714793
0.714373
0.713941
0.713601
0.713366
0.696493
0.696656
0.697008
0.697735
0.69878
0.700019
0.701451
0.7031
0.704972
0.707035
0.709083
0.710645
0.71157
0.712025
0.712152
0.712073
0.711867
0.711611
0.711387
0.7112
0.69146
0.691592
0.691903
0.692585
0.693615
0.69488
0.696382
0.69816
0.700245
0.702627
0.705104
0.70712
0.708442
0.709239
0.709659
0.709831
0.709839
0.709753
0.709627
0.709475
0.68616
0.686267
0.68655
0.687214
0.688262
0.689597
0.691212
0.693175
0.695541
0.698329
0.701334
0.703895
0.705685
0.706878
0.70763
0.708075
0.708307
0.708392
0.708353
0.708228
0.680496
0.680581
0.680849
0.681518
0.682622
0.684067
0.685852
0.688068
0.690799
0.694096
0.697748
0.700965
0.70331
0.70496
0.706088
0.706851
0.707332
0.707578
0.707616
0.707513
0.674359
0.674425
0.674686
0.675385
0.67658
0.678184
0.680202
0.68275
0.685945
0.689877
0.69432
0.698324
0.701328
0.703517
0.705078
0.706198
0.706954
0.707375
0.707486
0.7074
0.667617
0.667665
0.667929
0.668679
0.670004
0.671823
0.67415
0.677126
0.680907
0.68562
0.691024
0.695977
0.699766
0.70259
0.704658
0.70618
0.707251
0.707862
0.708045
0.707972
0.660116
0.660144
0.660416
0.661239
0.66274
0.664839
0.667562
0.671079
0.67559
0.681266
0.687838
0.693927
0.698646
0.70222
0.704889
0.706892
0.708322
0.709135
0.709391
0.709327
0.651644
0.651661
0.651939
0.652864
0.654596
0.657054
0.660278
0.664474
0.669891
0.676748
0.684733
0.692186
0.698011
0.702467
0.705847
0.708422
0.710259
0.711297
0.711625
0.711568
0.641906
0.641899
0.642228
0.643298
0.645327
0.648241
0.652101
0.657155
0.663704
0.672014
0.681709
0.690781
0.697909
0.703404
0.707619
0.710861
0.713169
0.714454
0.714855
0.7148
0.630602
0.630573
0.630952
0.632214
0.634615
0.638119
0.642793
0.648934
0.656902
0.667003
0.678761
0.689747
0.698397
0.705107
0.710297
0.71431
0.717158
0.718706
0.719176
0.719119
0.617243
0.617192
0.617649
0.619161
0.622048
0.626321
0.63205
0.639587
0.649349
0.661663
0.675903
0.689133
0.699539
0.707644
0.713972
0.718867
0.722313
0.724133
0.724664
0.7246
0.601172
0.601099
0.60168
0.603544
0.607081
0.612377
0.619503
0.628858
0.640898
0.655944
0.673148
0.68899
0.701399
0.711088
0.718703
0.724594
0.728692
0.730778
0.731354
0.731275
0.58144
0.581349
0.582132
0.584507
0.588958
0.595676
0.604707
0.616485
0.631463
0.649881
0.670587
0.689405
0.704059
0.715512
0.72453
0.731532
0.7363
0.73862
0.739215
0.739114
0.556613
0.556521
0.55764
0.560806
0.566634
0.575429
0.587164
0.602244
0.62103
0.643584
0.668359
0.690492
0.707592
0.720954
0.731504
0.739657
0.745065
0.74755
0.748124
0.747994
0.524354
0.524308
0.526033
0.530563
0.538691
0.550725
0.566442
0.586073
0.609745
0.637269
0.666657
0.692388
0.712077
0.727441
0.739573
0.748889
0.754811
0.757342
0.757846
0.757681
0.48049
0.480646
0.483684
0.491044
0.503474
0.520829
0.542447
0.568218
0.597959
0.631257
0.665722
0.695251
0.717595
0.734971
0.748669
0.759033
0.765235
0.767635
0.76802
0.767821
0.41724
0.418566
0.425937
0.439806
0.460104
0.485912
0.515847
0.549418
0.586308
0.626021
0.665864
0.699248
0.724203
0.743497
0.758563
0.769692
0.775854
0.7779
0.778122
0.77791
0.341737
0.344343
0.358655
0.382521
0.413574
0.449416
0.488379
0.530213
0.57473
0.621499
0.667532
0.705628
0.733908
0.755645
0.77233
0.784022
0.789962
0.791757
0.791936
0.791822
0.264463
0.271381
0.29286
0.32674
0.368259
0.413896
0.461893
0.512063
0.564282
0.618168
0.6705
0.713404
0.74504
0.769219
0.787554
0.799548
0.80487
0.80618
0.806295
0.806252
0.201463
0.210238
0.236344
0.277316
0.327087
0.381048
0.437191
0.495183
0.554781
0.615529
0.673863
0.72125
0.755972
0.782274
0.801724
0.813838
0.818866
0.820074
0.820217
0.820229
0.149872
0.159361
0.188988
0.235242
0.291225
0.351855
0.414885
0.479797
0.546147
0.613297
0.677316
0.728986
0.766602
0.794924
0.815589
0.828111
0.833023
0.834194
0.834411
0.834461
0.106697
0.116494
0.148526
0.198912
0.259994
0.326176
0.395032
0.465949
0.538337
0.611407
0.680826
0.736638
0.77708
0.807382
0.829289
0.842322
0.847432
0.848801
0.849042
0.849117
0.0694688
0.0794012
0.113237
0.166933
0.232282
0.303225
0.377165
0.453419
0.531318
0.609899
0.684406
0.74418
0.787401
0.819649
0.842887
0.856638
0.862138
0.863597
0.863839
0.863916
0.0365116
0.0464948
0.0817518
0.13819
0.207172
0.282255
0.360722
0.441817
0.524769
0.608492
0.687845
0.751446
0.797338
0.831504
0.855994
0.870551
0.876469
0.878054
0.878304
0.878364
0.00657049
0.0165926
0.0530083
0.111809
0.183945
0.262664
0.345164
0.430658
0.518307
0.606926
0.69098
0.758258
0.806726
0.842708
0.868436
0.883691
0.890043
0.89176
0.891999
0.892041
-0.021298
-0.0112182
0.026226
0.0871243
0.162047
0.243974
0.330091
0.419624
0.511684
0.60497
0.693571
0.764453
0.815412
0.853107
0.879947
0.895869
0.902613
0.904427
0.904646
0.904658
-0.0476545
-0.0375089
0.000893171
0.063678
0.14106
0.225854
0.315244
0.408478
0.504642
0.602396
0.695459
0.769949
0.823341
0.862676
0.890535
0.906937
0.913927
0.915825
0.91603
0.916011
-0.0729613
-0.0626782
-0.0233781
0.0411202
0.120699
0.208062
0.300409
0.397027
0.497031
0.599077
0.696565
0.774679
0.830524
0.871418
0.900142
0.916922
0.924019
0.925926
0.926116
0.926066
-0.0975071
-0.0870112
-0.0468538
0.0192198
0.100769
0.190428
0.285453
0.385176
0.488761
0.594917
0.696795
0.778622
0.836991
0.879425
0.908889
0.925883
0.93295
0.934813
0.934978
0.934909
-0.121396
-0.110661
-0.0696781
-0.00216501
0.0811532
0.172875
0.270316
0.372871
0.479768
0.589831
0.69608
0.781765
0.842809
0.886821
0.916914
0.93394
0.940889
0.942663
0.94278
0.942685
-0.144752
-0.133747
-0.0919667
-0.0230954
0.0618035
0.155364
0.254971
0.36009
0.470033
0.583792
0.694353
0.784076
0.848041
0.893752
0.924412
0.941303
0.947977
0.949593
0.949655
0.949538
-0.167571
-0.156317
-0.113736
-0.0435991
0.0427094
0.137901
0.23944
0.346857
0.459574
0.576777
0.691557
0.7855
0.85273
0.900389
0.931585
0.948118
0.954334
0.955707
0.955686
0.955546
-0.189931
-0.178358
-0.134965
-0.0636688
0.0238864
0.120515
0.22376
0.333226
0.448432
0.568796
0.687646
0.785962
0.856856
0.906875
0.938706
0.954637
0.960077
0.961055
0.960939
0.960793
-0.211623
-0.199833
-0.155639
-0.0832923
0.00537777
0.103272
0.207996
0.319261
0.436672
0.559896
0.682585
0.785371
0.860342
0.913293
0.946114
0.961301
0.965534
0.965798
0.965512
0.965381
-0.2328
-0.220689
-0.175731
-0.102445
-0.0127912
0.0862107
0.192234
0.305039
0.424374
0.550147
0.676362
0.783621
0.863048
0.919584
0.954091
0.96879
0.971391
0.970277
0.969511
0.969445
-0.25328
-0.240888
-0.195224
-0.121079
-0.0305421
0.0694128
0.176559
0.290678
0.411642
0.539611
0.668996
0.780602
0.864788
0.925509
0.962645
0.977836
0.979031
0.97572
0.973452
0.973125
-0.273164
-0.260456
-0.214061
-0.139137
-0.0478382
0.0529468
0.161055
0.276259
0.398582
0.528416
0.660542
0.77619
0.865348
0.930672
0.971267
0.98856
0.990057
0.985018
0.978981
0.970333
-0.292337
-0.279384
-0.232332
-0.156785
-0.0649024
0.0365322
0.145389
0.26138
0.384749
0.516072
0.6505
0.769831
0.864352
0.934839
0.979355
1.00034
1.00471
0.999174
0.988176
0.986903
-0.310758
-0.29775
-0.25003
-0.173966
-0.0817185
0.0202052
0.12959
0.246021
0.370108
0.502448
0.638682
0.76102
0.861037
0.937218
0.984982
1.00905
1.01573
1.01275
0.978752
0.940222
-0.328194
-0.315415
-0.267087
-0.190563
-0.0982774
0.00395953
0.113661
0.230315
0.354728
0.487579
0.625006
0.749389
0.85424
0.936923
0.986185
1.00603
1.01252
0.992298
0.939933
0.885026
-0.347351
-0.331171
-0.283174
-0.206096
-0.114302
-0.0119636
0.0972499
0.214306
0.338697
0.47157