/*--------------------------------*- C++ -*----------------------------------*\
  =========                 |
  \\      /  F ield         | OpenFOAM: The Open Source CFD Toolbox
   \\    /   O peration     | Website:  https://openfoam.org
    \\  /    A nd           | Version:  6
     \\/     M anipulation  |
\*---------------------------------------------------------------------------*/
FoamFile
{
    version     2.0;
    format      ascii;
    class       volVectorField;
    location    "9.5";
    object      U;
}
// * * * * * * * * * * * * * * * * * * * * * * * * * * * * * * * * * * * * * //

dimensions      [0 1 -1 0 0 0 0];

internalField   nonuniform List<vector> 
5250
(
(3 2.23691e-09 0)
(2.99999 1.70856e-08 0)
(2.99996 5.29267e-08 0)
(2.99992 1.58611e-07 0)
(2.99979 3.75917e-07 0)
(2.99953 9.95279e-07 0)
(2.99879 2.22959e-06 0)
(2.99734 5.86373e-06 0)
(2.99279 1.27143e-05 0)
(2.98471 3.56011e-05 0)
(2.95591 7.52566e-05 0)
(2.89651 0.000218245 0)
(2.71461 0.000544837 0)
(2.13698 0.00139379 0)
(0.821182 0.00449147 0)
(-0.111533 0.0121505 0)
(0.196777 0.0195804 0)
(0.490028 0.0258404 0)
(0.564483 0.0291515 0)
(0.502896 0.0314665 0)
(0.383918 0.0324525 0)
(0.269354 0.0352702 0)
(0.192732 0.0401658 0)
(0.122373 0.0468934 0)
(0.0631053 0.0547312 0)
(3 6.87217e-09 0)
(2.99999 5.29059e-08 0)
(2.99996 1.63161e-07 0)
(2.99992 4.89929e-07 0)
(2.99979 1.15655e-06 0)
(2.99953 3.0692e-06 0)
(2.99879 6.84627e-06 0)
(2.99735 1.81401e-05 0)
(2.99281 3.87457e-05 0)
(2.98476 0.000111848 0)
(2.95606 0.000230053 0)
(2.89692 0.000697511 0)
(2.71552 0.00172965 0)
(2.14028 0.00448267 0)
(0.829884 0.0146977 0)
(-0.102692 0.0384276 0)
(0.205985 0.0579875 0)
(0.496535 0.0720878 0)
(0.566488 0.0776577 0)
(0.503183 0.0805244 0)
(0.385838 0.0806881 0)
(0.273969 0.0849293 0)
(0.197096 0.0919684 0)
(0.123279 0.099031 0)
(0.0614271 0.102703 0)
(3 1.1917e-08 0)
(2.99999 9.20809e-08 0)
(2.99996 2.83348e-07 0)
(2.99992 8.51862e-07 0)
(2.99979 2.00666e-06 0)
(2.99954 5.33535e-06 0)
(2.9988 1.18721e-05 0)
(2.99737 3.16517e-05 0)
(2.99287 6.68971e-05 0)
(2.98487 0.000197769 0)
(2.95639 0.000398497 0)
(2.89782 0.00125069 0)
(2.71754 0.00308946 0)
(2.14806 0.00808226 0)
(0.850839 0.026787 0)
(-0.0802735 0.0684363 0)
(0.221731 0.099022 0)
(0.504708 0.119018 0)
(0.568263 0.12791 0)
(0.502928 0.13389 0)
(0.387835 0.137552 0)
(0.280283 0.146743 0)
(0.203465 0.158251 0)
(0.125316 0.168082 0)
(0.0595812 0.170889 0)
(3 1.75093e-08 0)
(2.99999 1.35262e-07 0)
(2.99997 4.16245e-07 0)
(2.99992 1.25143e-06 0)
(2.99979 2.94768e-06 0)
(2.99954 7.83904e-06 0)
(2.99881 1.74396e-05 0)
(2.9974 4.65575e-05 0)
(2.99295 9.81495e-05 0)
(2.98504 0.000292081 0)
(2.95691 0.000584228 0)
(2.89927 0.00185627 0)
(2.72082 0.004571 0)
(2.16083 0.0120161 0)
(0.884812 0.0396222 0)
(-0.0450318 0.0995166 0)
(0.242864 0.140551 0)
(0.514562 0.163304 0)
(0.571414 0.17558 0)
(0.505073 0.186078 0)
(0.393284 0.196153 0)
(0.290352 0.211468 0)
(0.21337 0.228342 0)
(0.130294 0.242754 0)
(0.0590909 0.248415 0)
(3 2.38027e-08 0)
(2.99999 1.83667e-07 0)
(2.99997 5.65355e-07 0)
(2.99992 1.69773e-06 0)
(2.9998 3.99817e-06 0)
(2.99955 1.06131e-05 0)
(2.99883 2.35971e-05 0)
(2.99744 6.28944e-05 0)
(2.99307 0.000132124 0)
(2.98528 0.000394554 0)
(2.95765 0.000780152 0)
(2.90131 0.00250339 0)
(2.72543 0.00614623 0)
(2.17869 0.0161165 0)
(0.931804 0.0526494 0)
(0.00272299 0.131208 0)
(0.26814 0.183287 0)
(0.523528 0.20609 0)
(0.575279 0.221554 0)
(0.510156 0.236799 0)
(0.402756 0.25432 0)
(0.303825 0.276073 0)
(0.226606 0.298747 0)
(0.139375 0.318759 0)
(0.0616278 0.329135 0)
(3 3.15912e-08 0)
(2.99999 2.43556e-07 0)
(2.99997 7.50384e-07 0)
(2.99992 2.2512e-06 0)
(2.9998 5.30966e-06 0)
(2.99956 1.40602e-05 0)
(2.99886 3.13295e-05 0)
(2.99749 8.28485e-05 0)
(2.99323 0.00017576 0)
(2.98559 0.000512466 0)
(2.95862 0.00102055 0)
(2.90396 0.00321162 0)
(2.73138 0.00779414 0)
(2.20166 0.0211432 0)
(0.991417 0.0652487 0)
(0.0631278 0.163665 0)
(0.297035 0.226556 0)
(0.530849 0.248481 0)
(0.580267 0.266982 0)
(0.518524 0.286834 0)
(0.41671 0.311987 0)
(0.321615 0.341282 0)
(0.244044 0.371439 0)
(0.152346 0.399066 0)
(0.0667844 0.415867 0)
(3 4.10849e-08 0)
(2.99999 3.16599e-07 0)
(2.99997 9.76352e-07 0)
(2.99993 2.92591e-06 0)
(2.99981 6.91374e-06 0)
(2.99957 1.82498e-05 0)
(2.99889 4.07833e-05 0)
(2.99756 0.000106623 0)
(2.99343 0.000230088 0)
(2.98599 0.000643446 0)
(2.95984 0.00132205 0)
(2.90721 0.00395028 0)
(2.73929 0.00956561 0)
(2.22954 0.0267615 0)
(1.06206 0.0775886 0)
(0.137566 0.195786 0)
(0.330456 0.269575 0)
(0.538819 0.290771 0)
(0.587396 0.311939 0)
(0.530913 0.336216 0)
(0.436238 0.369235 0)
(0.345379 0.407386 0)
(0.268018 0.447286 0)
(0.171946 0.485994 0)
(0.0763322 0.514335 0)
(3 5.26918e-08 0)
(2.99999 4.05113e-07 0)
(2.99997 1.24984e-06 0)
(2.99993 3.72943e-06 0)
(2.99981 8.8027e-06 0)
(2.99959 2.30566e-05 0)
(2.99893 5.14166e-05 0)
(2.99765 0.000132732 0)
(2.99367 0.0002866 0)
(2.9865 0.000782549 0)
(2.9613 0.00161935 0)
(2.91113 0.00470984 0)
(2.74893 0.0112974 0)
(2.26225 0.0318585 0)
(1.1434 0.0896871 0)
(0.223338 0.227905 0)
(0.367836 0.313046 0)
(0.546792 0.33287 0)
(0.596651 0.356285 0)
(0.547616 0.384848 0)
(0.462416 0.425866 0)
(0.376935 0.47448 0)
(0.301148 0.527145 0)
(0.202543 0.581906 0)
(0.0939445 0.633466 0)
(3 7.58285e-08 0)
(2.99999 5.73984e-07 0)
(2.99997 1.77986e-06 0)
(2.99993 5.27124e-06 0)
(2.99982 1.25475e-05 0)
(2.99961 3.25462e-05 0)
(2.99898 7.35556e-05 0)
(2.99775 0.000183734 0)
(2.99397 0.000416736 0)
(2.98711 0.00100902 0)
(2.96302 0.00229253 0)
(2.91558 0.00561661 0)
(2.76013 0.0137662 0)
(2.29912 0.0363458 0)
(1.23719 0.0986955 0)
(0.3222 0.259375 0)
(0.409656 0.354065 0)
(0.554545 0.373702 0)
(0.607832 0.398831 0)
(0.568642 0.432315 0)
(0.495881 0.480335 0)
(0.418884 0.541441 0)
(0.347797 0.608374 0)
(0.253957 0.688648 0)
(0.129353 0.789009 0)
(3 -3.89645e-08 0)
(2.99999 1.08317e-06 0)
(2.99997 1.25251e-06 0)
(2.99994 9.16876e-06 0)
(2.99984 9.64515e-06 0)
(2.99964 5.70884e-05 0)
(2.99906 5.44099e-05 0)
(2.99793 0.000347935 0)
(2.99436 0.000212951 0)
(2.98808 0.00229244 0)
(2.96504 -2.06922e-06 0)
(2.92109 0.0141835 0)
(2.77205 0.00199315 0)
(2.34101 0.0668704 0)
(1.32682 0.103853 0)
(0.428263 0.299501 0)
(0.452937 0.3875 0)
(0.562502 0.414058 0)
(0.621355 0.439423 0)
(0.593821 0.478331 0)
(0.536974 0.531303 0)
(0.472165 0.60234 0)
(0.414602 0.688118 0)
(0.345845 0.81115 0)
(0.200233 1.02697 0)
(3 -3.20097e-08 0)
(2.99999 1.02239e-06 0)
(2.99998 1.24014e-06 0)
(2.99994 8.71419e-06 0)
(2.99986 9.53915e-06 0)
(2.99964 5.44992e-05 0)
(2.99922 5.43978e-05 0)
(2.99789 0.000335678 0)
(2.99558 0.000219921 0)
(2.98695 0.0022632 0)
(2.97244 0.000138168 0)
(2.91819 0.0141481 0)
(2.79032 0.00289153 0)
(2.42584 0.0663986 0)
(1.33887 0.124516 0)
(0.509749 0.345954 0)
(0.472457 0.412572 0)
(0.568608 0.445103 0)
(0.633252 0.471373 0)
(0.620668 0.515119 0)
(0.581462 0.57254 0)
(0.538982 0.650724 0)
(0.514324 0.754086 0)
(0.528836 0.903029 0)
(0.53359 1.1465 0)
(3 2.15604e-07 0)
(2.99999 2.75259e-07 0)
(2.99998 2.94282e-06 0)
(2.99994 3.41193e-06 0)
(2.99988 2.02586e-05 0)
(2.99968 2.18377e-05 0)
(2.99929 0.000124013 0)
(2.99807 0.000109826 0)
(2.99596 0.000819001 0)
(2.98806 0.000344113 0)
(2.97491 0.00591225 0)
(2.92525 0.00177068 0)
(2.81032 0.0379891 0)
(2.48195 0.0386655 0)
(1.47102 0.188904 0)
(0.61999 0.416044 0)
(0.488539 0.44312 0)
(0.574533 0.464139 0)
(0.646563 0.489576 0)
(0.649973 0.538213 0)
(0.629662 0.600928 0)
(0.612992 0.683775 0)
(0.62253 0.7931 0)
(0.694026 0.934188 0)
(0.801609 1.106 0)
(3 1.99172e-07 0)
(2.99999 2.83046e-07 0)
(2.99998 2.77232e-06 0)
(2.99995 3.4299e-06 0)
(2.99988 1.91645e-05 0)
(2.99973 2.22503e-05 0)
(2.9993 0.000117619 0)
(2.99846 0.000119843 0)
(2.99577 0.000772137 0)
(2.99113 0.000501841 0)
(2.9737 0.00564559 0)
(2.9427 0.00285798 0)
(2.82684 0.0360249 0)
(2.51942 0.0471724 0)
(1.73487 0.198339 0)
(0.743519 0.490091 0)
(0.503234 0.47707 0)
(0.583512 0.477953 0)
(0.665254 0.499989 0)
(0.684997 0.552303 0)
(0.680147 0.618694 0)
(0.685975 0.700222 0)
(0.719716 0.801554 0)
(0.809182 0.916832 0)
(0.942086 1.01676 0)
(3 8.40463e-08 0)
(2.99999 6.6041e-07 0)
(2.99998 2.0264e-06 0)
(2.99996 6.16732e-06 0)
(2.99989 1.45494e-05 0)
(2.99976 3.92903e-05 0)
(2.99937 8.75915e-05 0)
(2.99862 0.00023905 0)
(2.99629 0.000501082 0)
(2.99211 0.0015623 0)
(2.97707 0.00291321 0)
(2.95039 0.0106612 0)
(2.85366 0.021684 0)
(2.59726 0.0808856 0)
(1.95253 0.201458 0)
(0.883406 0.562887 0)
(0.52028 0.522419 0)
(0.601348 0.503067 0)
(0.694898 0.515783 0)
(0.727895 0.563701 0)
(0.732317 0.627783 0)
(0.750767 0.702221 0)
(0.797668 0.786655 0)
(0.889373 0.874596 0)
(1.01955 0.936934 0)
(3 9.23573e-08 0)
(2.99999 7.17251e-07 0)
(2.99998 2.20916e-06 0)
(2.99996 6.68136e-06 0)
(2.99991 1.58609e-05 0)
(2.99979 4.24353e-05 0)
(2.99946 9.5638e-05 0)
(2.99881 0.000253261 0)
(2.99687 0.000552268 0)
(2.99314 0.0015728 0)
(2.98117 0.00309348 0)
(2.95861 0.0105687 0)
(2.88198 0.0208384 0)
(2.68527 0.0753022 0)
(2.17691 0.184492 0)
(1.07217 0.553485 0)
(0.590849 0.551883 0)
(0.652888 0.54029 0)
(0.745493 0.54048 0)
(0.783425 0.576688 0)
(0.789235 0.631569 0)
(0.809426 0.694547 0)
(0.858728 0.761359 0)
(0.944886 0.826122 0)
(1.06561 0.86814 0)
(3 8.47402e-08 0)
(3 6.58078e-07 0)
(2.99999 2.02549e-06 0)
(2.99997 6.11259e-06 0)
(2.99992 1.4497e-05 0)
(2.99982 3.86115e-05 0)
(2.99955 8.70176e-05 0)
(2.999 0.000227338 0)
(2.99738 0.000504691 0)
(2.99424 0.00133968 0)
(2.98447 0.00292849 0)
(2.96552 0.00821285 0)
(2.90433 0.0180406 0)
(2.75116 0.0551751 0)
(2.34775 0.136304 0)
(1.26472 0.421795 0)
(0.66806 0.538569 0)
(0.703643 0.573522 0)
(0.79068 0.572493 0)
(0.838471 0.594597 0)
(0.845986 0.635492 0)
(0.863302 0.684239 0)
(0.908723 0.734808 0)
(0.986459 0.781633 0)
(1.09444 0.811185 0)
(3 7.54943e-08 0)
(3 5.85851e-07 0)
(2.99999 1.80358e-06 0)
(2.99997 5.43564e-06 0)
(2.99993 1.28883e-05 0)
(2.99985 3.42382e-05 0)
(2.99962 7.71411e-05 0)
(2.99916 0.000200353 0)
(2.9978 0.000447048 0)
(2.99517 0.00114982 0)
(2.98685 0.00264649 0)
(2.97141 0.00654596 0)
(2.91906 0.0159679 0)
(2.79137 0.0405115 0)
(2.4449 0.106492 0)
(1.42464 0.303347 0)
(0.733936 0.561241 0)
(0.727567 0.616687 0)
(0.805353 0.619523 0)
(0.87034 0.618606 0)
(0.888826 0.640857 0)
(0.907511 0.674502 0)
(0.949255 0.70997 0)
(1.0185 0.742751 0)
(1.1127 0.761366 0)
(3 6.7001e-08 0)
(3 5.18686e-07 0)
(2.99999 1.59853e-06 0)
(2.99998 4.80775e-06 0)
(2.99995 1.14045e-05 0)
(2.99988 3.01963e-05 0)
(2.99969 6.80023e-05 0)
(2.9993 0.000176029 0)
(2.99817 0.000391005 0)
(2.99608 0.00101741 0)
(2.98894 0.00225377 0)
(2.97677 0.00602269 0)
(2.93136 0.0135109 0)
(2.83068 0.0378072 0)
(2.53613 0.096872 0)
(1.62638 0.282483 0)
(0.862944 0.619558 0)
(0.73973 0.647916 0)
(0.801071 0.649696 0)
(0.873279 0.634399 0)
(0.912291 0.641736 0)
(0.938493 0.662306 0)
(0.979691 0.685911 0)
(1.04204 0.706557 0)
(1.12316 0.715055 0)
(3 5.93249e-08 0)
(3 4.58932e-07 0)
(2.99999 1.4151e-06 0)
(2.99998 4.25547e-06 0)
(2.99996 1.00982e-05 0)
(2.9999 2.67369e-05 0)
(2.99974 6.01921e-05 0)
(2.99943 0.000156141 0)
(2.9985 0.000344852 0)
(2.99672 0.000922068 0)
(2.99099 0.0019253 0)
(2.98089 0.00576242 0)
(2.94441 0.0117061 0)
(2.86477 0.0378717 0)
(2.62992 0.0881843 0)
(1.88101 0.28004 0)
(1.03342 0.671232 0)
(0.75672 0.66935 0)
(0.801361 0.659543 0)
(0.873164 0.637784 0)
(0.925461 0.63659 0)
(0.959514 0.647718 0)
(1.00102 0.661767 0)
(1.05688 0.670289 0)
(1.12729 0.669918 0)
(3 5.10602e-08 0)
(3 3.962e-07 0)
(2.99999 1.22015e-06 0)
(2.99999 3.67943e-06 0)
(2.99996 8.72747e-06 0)
(2.99992 2.32168e-05 0)
(2.99979 5.2262e-05 0)
(2.99954 0.000136382 0)
(2.99881 0.000302404 0)
(2.99739 0.000804827 0)
(2.99295 0.00172992 0)
(2.98499 0.00502612 0)
(2.95713 0.0103178 0)
(2.89803 0.032705 0)
(2.72329 0.0780639 0)
(2.1771 0.239414 0)
(1.27476 0.637086 0)
(0.842284 0.675552 0)
(0.841549 0.665241 0)
(0.894369 0.640407 0)
(0.94861 0.628197 0)
(0.98214 0.630855 0)
(1.01801 0.634806 0)
(1.06613 0.633379 0)
(1.12807 0.626152 0)
(3 4.15533e-08 0)
(3 3.21904e-07 0)
(3 9.91601e-07 0)
(2.99999 2.98353e-06 0)
(2.99997 7.07461e-06 0)
(2.99994 1.87449e-05 0)
(2.99984 4.21649e-05 0)
(2.99963 0.000109312 0)
(2.99906 0.000242372 0)
(2.99792 0.000635676 0)
(2.99449 0.00137837 0)
(2.9881 0.00384948 0)
(2.96682 0.0080578 0)
(2.92402 0.023694 0)
(2.78912 0.0582697 0)
(2.39823 0.164684 0)
(1.55698 0.466014 0)
(0.928492 0.658033 0)
(0.882123 0.662888 0)
(0.919444 0.646442 0)
(0.97182 0.621567 0)
(1.00549 0.611119 0)
(1.03468 0.604899 0)
(1.07526 0.597081 0)
(1.12943 0.585365 0)
(3 3.38073e-08 0)
(3 2.62255e-07 0)
(3 8.077e-07 0)
(2.99999 2.43155e-06 0)
(2.99998 5.77042e-06 0)
(2.99995 1.52869e-05 0)
(2.99987 3.4483e-05 0)
(2.99971 8.91486e-05 0)
(2.99925 0.000198707 0)
(2.99834 0.000513352 0)
(2.99562 0.00114185 0)
(2.99059 0.00298688 0)
(2.97329 0.0066142 0)
(2.94133 0.0177689 0)
(2.83 0.0425374 0)
(2.52648 0.120576 0)
(1.8067 0.323503 0)
(1.01056 0.682102 0)
(0.883825 0.675921 0)
(0.920078 0.655948 0)
(0.974211 0.618854 0)
(1.0162 0.593359 0)
(1.04699 0.577635 0)
(1.08406 0.564481 0)
(1.13233 0.549537 0)
(3 2.79598e-08 0)
(3 2.16106e-07 0)
(3 6.66133e-07 0)
(2.99999 2.00112e-06 0)
(2.99998 4.7523e-06 0)
(2.99996 1.25602e-05 0)
(2.9999 2.83534e-05 0)
(2.99977 7.30879e-05 0)
(2.99941 0.000162899 0)
(2.9987 0.000420529 0)
(2.99655 0.000926631 0)
(2.99268 0.00248812 0)
(2.97892 0.00517998 0)
(2.9547 0.0158132 0)
(2.86739 0.0328 0)
(2.6403 0.110312 0)
(2.06934 0.275503 0)
(1.14714 0.723419 0)
(0.871323 0.700836 0)
(0.904053 0.659027 0)
(0.960254 0.612379 0)
(1.01396 0.57499 0)
(1.05212 0.5519 0)
(1.09011 0.534831 0)
(1.13555 0.518092 0)
(3 1.25942e-08 0)
(3 2.01916e-07 0)
(3 4.66467e-07 0)
(2.99999 1.79754e-06 0)
(2.99999 3.38568e-06 0)
(2.99997 1.1164e-05 0)
(2.99992 2.01446e-05 0)
(2.99982 6.46665e-05 0)
(2.99954 0.000114471 0)
(2.99898 0.000371985 0)
(2.99734 0.000634332 0)
(2.99414 0.00223172 0)
(2.98424 0.00331207 0)
(2.96481 0.0146128 0)
(2.90311 0.0201615 0)
(2.74807 0.0956789 0)
(2.3445 0.194411 0)
(1.36707 0.618383 0)
(0.917291 0.677168 0)
(0.908626 0.64083 0)
(0.955977 0.59796 0)
(1.01302 0.554805 0)
(1.05804 0.526833 0)
(1.09776 0.507531 0)
(1.14139 0.490399 0)
(3 9.20076e-09 0)
(3 1.54066e-07 0)
(3 3.51339e-07 0)
(3 1.3728e-06 0)
(2.99999 2.55934e-06 0)
(2.99997 8.54455e-06 0)
(2.99994 1.5276e-05 0)
(2.99985 4.96481e-05 0)
(2.99967 8.71854e-05 0)
(2.99914 0.000285644 0)
(2.9981 0.000487632 0)
(2.99492 0.00167596 0)
(2.98911 0.00261448 0)
(2.96905 0.010268 0)
(2.9306 0.0143725 0)
(2.80117 0.0615892 0)
(2.44878 0.11639 0)
(1.63314 0.370072 0)
(0.941655 0.631324 0)
(0.888762 0.614074 0)
(0.938899 0.579474 0)
(1.00276 0.534902 0)
(1.05869 0.504864 0)
(1.10374 0.484514 0)
(1.14799 0.467578 0)
(3 2.2909e-08 0)
(3 7.22286e-08 0)
(3 3.79133e-07 0)
(3 7.39927e-07 0)
(2.99999 2.63964e-06 0)
(2.99998 4.7282e-06 0)
(2.99995 1.57016e-05 0)
(2.99988 2.74812e-05 0)
(2.99974 9.06591e-05 0)
(2.99931 0.000155546 0)
(2.9985 0.000527271 0)
(2.99592 0.000842512 0)
(2.99139 0.00323742 0)
(2.97476 0.00415984 0)
(2.94511 0.0204135 0)
(2.83688 0.0268 0)
(2.54874 0.124995 0)
(1.84547 0.268022 0)
(0.986085 0.65242 0)
(0.82796 0.603595 0)
(0.891053 0.556236 0)
(0.970615 0.51009 0)
(1.04509 0.480988 0)
(1.10056 0.461995 0)
(1.14936 0.446927 0)
(3 1.74647e-08 0)
(3 5.23753e-08 0)
(3 2.85089e-07 0)
(3 5.38792e-07 0)
(2.99999 1.97642e-06 0)
(2.99998 3.42267e-06 0)
(2.99996 1.1688e-05 0)
(2.99991 1.96688e-05 0)
(2.99977 6.69899e-05 0)
(2.9995 0.000110179 0)
(2.99867 0.000387483 0)
(2.99717 0.000599549 0)
(2.99189 0.00238506 0)
(2.98306 0.00308847 0)
(2.9498 0.0158208 0)
(2.87926 0.0206908 0)
(2.66404 0.100259 0)
(2.02584 0.234993 0)
(1.11252 0.64118 0)
(0.778925 0.589983 0)
(0.849431 0.536385 0)
(0.944571 0.486969 0)
(1.03425 0.454652 0)
(1.09828 0.43704 0)
(1.15101 0.42542 0)
(3 2.93685e-09 0)
(3 6.78834e-08 0)
(3 1.4202e-07 0)
(3 5.98022e-07 0)
(2.99999 1.03398e-06 0)
(2.99999 3.69668e-06 0)
(2.99997 6.09373e-06 0)
(2.99993 2.12704e-05 0)
(2.99981 3.40131e-05 0)
(2.99958 0.000121135 0)
(2.9989 0.000183211 0)
(2.99758 0.000719628 0)
(2.99348 0.000901097 0)
(2.98594 0.00469119 0)
(2.96028 0.00480346 0)
(2.90564 0.0298918 0)
(2.74522 0.045273 0)
(2.26173 0.18166 0)
(1.30556 0.476252 0)
(0.783972 0.530456 0)
(0.825652 0.508935 0)
(0.91734 0.471787 0)
(1.01927 0.435093 0)
(1.09511 0.416032 0)
(1.15289 0.406977 0)
(3 5.62555e-09 0)
(3 4.33291e-08 0)
(3 1.33685e-07 0)
(3 4.00837e-07 0)
(3 9.53052e-07 0)
(2.99999 2.51316e-06 0)
(2.99998 5.68355e-06 0)
(2.99994 1.45944e-05 0)
(2.99986 3.26254e-05 0)
(2.99962 8.33002e-05 0)
(2.99917 0.000185853 0)
(2.99777 0.000469972 0)
(2.99518 0.00106599 0)
(2.98633 0.0026467 0)
(2.97014 0.00604546 0)
(2.9143 0.0148255 0)
(2.77659 0.0404994 0)
(2.39791 0.0887543 0)
(1.37709 0.285519 0)
(0.740082 0.470755 0)
(0.760866 0.47176 0)
(0.862405 0.449367 0)
(0.979112 0.413367 0)
(1.07437 0.395675 0)
(1.14336 0.390134 0)
(3 4.9488e-09 0)
(3 2.61507e-08 0)
(3 9.86315e-08 0)
(3 2.52269e-07 0)
(3 7.03806e-07 0)
(2.99999 1.61359e-06 0)
(2.99998 4.26123e-06 0)
(2.99995 9.56983e-06 0)
(2.99987 2.5041e-05 0)
(2.99971 5.62291e-05 0)
(2.99923 0.000145768 0)
(2.99831 0.000335146 0)
(2.99529 0.000832875 0)
(2.99008 0.00198346 0)
(2.97032 0.00477805 0)
(2.93425 0.0119004 0)
(2.80251 0.0287642 0)
(2.44573 0.0869802 0)
(1.57413 0.212339 0)
(0.740344 0.474223 0)
(0.674502 0.444148 0)
(0.781511 0.408796 0)
(0.915989 0.376553 0)
(1.03523 0.368711 0)
(1.11792 0.370555 0)
(3 -3.49312e-10 0)
(3 2.72048e-08 0)
(3 3.90961e-08 0)
(3 2.35175e-07 0)
(3 3.01617e-07 0)
(2.99999 1.46909e-06 0)
(2.99998 1.83089e-06 0)
(2.99995 8.63192e-06 0)
(2.99989 1.05088e-05 0)
(2.99972 5.04941e-05 0)
(2.9994 5.89636e-05 0)
(2.99834 0.000306005 0)
(2.99655 0.000302217 0)
(2.98962 0.00205234 0)
(2.97836 0.00132879 0)
(2.93417 0.0144607 0)
(2.83735 0.0112379 0)
(2.54309 0.0868289 0)
(1.65947 0.190148 0)
(0.779208 0.495298 0)
(0.560945 0.404643 0)
(0.68629 0.341888 0)
(0.850448 0.32436 0)
(0.994358 0.333011 0)
(1.08646 0.34411 0)
(3 2.79264e-09 0)
(3 1.49615e-08 0)
(3 5.61215e-08 0)
(3 1.43753e-07 0)
(3 3.99497e-07 0)
(2.99999 9.15416e-07 0)
(2.99998 2.40775e-06 0)
(2.99996 5.37009e-06 0)
(2.9999 1.40639e-05 0)
(2.99975 3.09776e-05 0)
(2.99944 8.40887e-05 0)
(2.99852 0.000173313 0)
(2.99674 0.000551211 0)
(2.99096 0.000986053 0)
(2.98067 0.00380013 0)
(2.94351 0.00745528 0)
(2.86104 0.0262748 0)
(2.61886 0.0635049 0)
(1.83787 0.205772 0)
(0.843974 0.531262 0)
(0.466785 0.377847 0)
(0.626327 0.29053 0)
(0.825392 0.286704 0)
(0.980217 0.304536 0)
(1.07026 0.318728 0)
(3 4.87698e-09 0)
(3 8.45511e-09 0)
(3 7.02592e-08 0)
(3 9.76927e-08 0)
(3 4.88266e-07 0)
(2.99999 6.52655e-07 0)
(2.99999 2.96615e-06 0)
(2.99996 3.96206e-06 0)
(2.99992 1.76631e-05 0)
(2.99978 2.35293e-05 0)
(2.99952 0.000105538 0)
(2.99873 0.000136365 0)
(2.99723 0.000652083 0)
(2.99231 0.000705636 0)
(2.98379 0.00442921 0)
(2.95235 0.00329376 0)
(2.88654 0.0286621 0)
(2.68862 0.037031 0)
(2.07774 0.168849 0)
(0.989608 0.434938 0)
(0.457758 0.348195 0)
(0.621187 0.289918 0)
(0.836911 0.284155 0)
(0.985953 0.29408 0)
(1.06474 0.302288 0)
(3 1.86887e-09 0)
(3 1.03241e-08 0)
(3 3.84352e-08 0)
(3 9.86517e-08 0)
(3 2.74962e-07 0)
(2.99999 6.33852e-07 0)
(2.99999 1.67969e-06 0)
(2.99997 3.80317e-06 0)
(2.99992 9.99738e-06 0)
(2.99982 2.26181e-05 0)
(2.99953 5.86356e-05 0)
(2.99897 0.000136906 0)
(2.99722 0.000329224 0)
(2.99409 0.000829407 0)
(2.98288 0.0018896 0)
(2.96277 0.0043942 0)
(2.8921 0.011741 0)
(2.71493 0.0295063 0)
(2.23351 0.0781174 0)
(1.00919 0.237112 0)
(0.371931 0.278369 0)
(0.566365 0.291249 0)
(0.803787 0.289509 0)
(0.961616 0.289768 0)
(1.04027 0.28879 0)
(3 6.86308e-10 0)
(3 5.47883e-09 0)
(3 1.67651e-08 0)
(3 5.10513e-08 0)
(3 1.2034e-07 0)
(2.99999 3.20519e-07 0)
(2.99999 7.14831e-07 0)
(2.99997 1.85558e-06 0)
(2.99993 4.06915e-06 0)
(2.99982 1.06011e-05 0)
(2.99961 2.30979e-05 0)
(2.99896 6.24125e-05 0)
(2.99781 0.00012799 0)
(2.99361 0.000403504 0)
(2.98676 0.00072091 0)
(2.96047 0.00268485 0)
(2.90761 0.00562924 0)
(2.74048 0.0178715 0)
(2.24406 0.048112 0)
(1.11855 0.135671 0)
(0.363003 0.242084 0)
(0.537722 0.2949 0)
(0.764958 0.29249 0)
(0.925998 0.280544 0)
(1.00473 0.26927 0)
(3 2.43013e-09 0)
(3 -2.77555e-09 0)
(3 2.34953e-08 0)
(3 -1.17284e-08 0)
(3 1.52359e-07 0)
(3 -6.72444e-08 0)
(2.99999 8.65654e-07 0)
(2.99997 -4.97674e-07 0)
(2.99993 4.75455e-06 0)
(2.99984 -3.86996e-06 0)
(2.99958 2.70457e-05 0)
(2.99906 -3.23107e-05 0)
(2.9975 0.000183603 0)
(2.99458 -0.000289591 0)
(2.98478 0.00149694 0)
(2.96685 -0.00196681 0)
(2.90479 0.0107979 0)
(2.75013 -0.00329906 0)
(2.32774 0.04507 0)
(1.1354 0.0904423 0)
(0.381242 0.218628 0)
(0.516605 0.289375 0)
(0.721227 0.284903 0)
(0.880977 0.26292 0)
(0.963997 0.245235 0)
(3 7.91287e-10 0)
(3 6.14332e-09 0)
(3 1.89492e-08 0)
(3 5.70555e-08 0)
(3 1.35549e-07 0)
(3 3.58877e-07 0)
(2.99999 8.10939e-07 0)
(2.99997 2.09436e-06 0)
(2.99993 4.69125e-06 0)
(2.99984 1.2084e-05 0)
(2.99959 2.71018e-05 0)
(2.99909 6.88557e-05 0)
(2.99759 0.000161756 0)
(2.9947 0.000372591 0)
(2.98543 0.000972973 0)
(2.96813 0.00200286 0)
(2.90902 0.00513373 0)
(2.76246 0.0125958 0)
(2.36401 0.0320207 0)
(1.18422 0.0925028 0)
(0.421437 0.207403 0)
(0.505031 0.266379 0)
(0.675851 0.261202 0)
(0.833894 0.23768 0)
(0.922562 0.219872 0)
(3 -4.32302e-10 0)
(3 1.35804e-08 0)
(3 1.65207e-08 0)
(3 1.14444e-07 0)
(3 1.26455e-07 0)
(3 7.0371e-07 0)
(2.99999 7.53997e-07 0)
(2.99997 4.08779e-06 0)
(2.99994 4.25419e-06 0)
(2.99986 2.36002e-05 0)
(2.99962 2.3143e-05 0)
(2.99917 0.000137789 0)
(2.99776 0.00010882 0)
(2.99526 0.000855425 0)
(2.98613 0.000271037 0)
(2.97036 0.00547152 0)
(2.91333 -0.000492629 0)
(2.77344 0.0302004 0)
(2.39093 0.0173265 0)
(1.26675 0.1106 0)
(0.475585 0.218459 0)
(0.499286 0.244065 0)
(0.640502 0.236465 0)
(0.793083 0.210297 0)
(0.886731 0.193174 0)
(3 1.17408e-09 0)
(3 8.91195e-09 0)
(3 2.76251e-08 0)
(3 8.21194e-08 0)
(3 1.95374e-07 0)
(3 5.10345e-07 0)
(2.99999 1.15472e-06 0)
(2.99998 2.9341e-06 0)
(2.99995 6.57279e-06 0)
(2.99986 1.65256e-05 0)
(2.99968 3.71647e-05 0)
(2.99916 8.98655e-05 0)
(2.99819 0.000214347 0)
(2.99484 0.000470178 0)
(2.9892 0.00110289 0)
(2.96759 0.00260502 0)
(2.92697 0.00581698 0)
(2.7842 0.0140652 0)
(2.38424 0.0386778 0)
(1.42045 0.0954407 0)
(0.544666 0.228915 0)
(0.502745 0.231825 0)
(0.618829 0.216015 0)
(0.763205 0.183975 0)
(0.863111 0.167879 0)
(3 1.24466e-09 0)
(3 6.74487e-09 0)
(3 2.50673e-08 0)
(3 6.44444e-08 0)
(3 1.76505e-07 0)
(3 4.05517e-07 0)
(2.99999 1.04604e-06 0)
(2.99998 2.34987e-06 0)
(2.99995 5.97253e-06 0)
(2.99988 1.33449e-05 0)
(2.99968 3.34777e-05 0)
(2.99932 7.59798e-05 0)
(2.99807 0.000183467 0)
(2.996 0.000421939 0)
(2.98791 0.00102063 0)
(2.97425 0.00222311 0)
(2.92259 0.0059307 0)
(2.80051 0.014525 0)
(2.45066 0.0354449 0)
(1.42654 0.103323 0)
(0.573575 0.248576 0)
(0.465248 0.227037 0)
(0.578334 0.189572 0)
(0.730982 0.152667 0)
(0.847578 0.141596 0)
(3 7.37261e-10 0)
(3 5.7699e-09 0)
(3 1.77531e-08 0)
(3 5.38373e-08 0)
(3 1.27899e-07 0)
(3 3.42166e-07 0)
(2.99999 7.74472e-07 0)
(2.99998 2.02556e-06 0)
(2.99995 4.54461e-06 0)
(2.99988 1.18337e-05 0)
(2.99974 2.6758e-05 0)
(2.99928 6.86777e-05 0)
(2.99848 0.000157434 0)
(2.99554 0.000406382 0)
(2.9907 0.00089961 0)
(2.97168 0.00247978 0)
(2.93704 0.00568439 0)
(2.80839 0.0148818 0)
(2.45821 0.0444019 0)
(1.5779 0.109199 0)
(0.612748 0.286412 0)
(0.415544 0.222919 0)
(0.532743 0.153239 0)
(0.70658 0.116577 0)
(0.843407 0.113669 0)
(3 6.25183e-10 0)
(3 3.16861e-09 0)
(3 1.22327e-08 0)
(3 3.11365e-08 0)
(3 8.90952e-08 0)
(3 2.04469e-07 0)
(2.99999 5.54359e-07 0)
(2.99998 1.24203e-06 0)
(2.99995 3.34375e-06 0)
(2.9999 7.42365e-06 0)
(2.99973 2.05154e-05 0)
(2.99943 4.30078e-05 0)
(2.99835 0.000136956 0)
(2.99662 0.000244288 0)
(2.98963 0.000939052 0)
(2.97821 0.00187282 0)
(2.93291 0.00608655 0)
(2.83197 0.0148622 0)
(2.528 0.0435083 0)
(1.60889 0.131355 0)
(0.651952 0.33095 0)
(0.345374 0.210365 0)
(0.494784 0.10978 0)
(0.704736 0.083365 0)
(0.860154 0.0909453 0)
(3 -8.90715e-10 0)
(3 5.15133e-09 0)
(3 -2.15466e-09 0)
(3 4.10295e-08 0)
(3 -5.32751e-09 0)
(3 2.57435e-07 0)
(2.99999 -9.93596e-09 0)
(2.99998 1.54199e-06 0)
(2.99996 -4.00717e-08 0)
(2.99989 9.21303e-06 0)
(2.99977 -9.56225e-07 0)
(2.99938 6.03767e-05 0)
(2.99865 -2.25896e-05 0)
(2.99621 0.000468815 0)
(2.99205 -0.000186927 0)
(2.97598 0.00389736 0)
(2.94774 -0.000597807 0)
(2.83955 0.0274253 0)
(2.55607 0.0245079 0)
(1.80969 0.143284 0)
(0.680327 0.377483 0)
(0.264491 0.197956 0)
(0.459375 0.0767613 0)
(0.71253 0.0622882 0)
(0.879254 0.0745116 0)
(3 3.75173e-10 0)
(3 1.8377e-09 0)
(3 7.27493e-09 0)
(3 1.84226e-08 0)
(3 5.46832e-08 0)
(3 1.26389e-07 0)
(2.99999 3.566e-07 0)
(2.99998 8.06785e-07 0)
(2.99996 2.25602e-06 0)
(2.9999 5.02774e-06 0)
(2.99977 1.42603e-05 0)
(2.99941 3.1104e-05 0)
(2.99869 9.60308e-05 0)
(2.99648 0.000184966 0)
(2.99249 0.000755851 0)
(2.97804 0.00119153 0)
(2.95255 0.00590234 0)
(2.85838 0.0115065 0)
(2.61192 0.0499183 0)
(1.97498 0.127157 0)
(0.716116 0.386259 0)
(0.18229 0.181224 0)
(0.426829 0.0730904 0)
(0.724016 0.0649062 0)
(0.893586 0.0695353 0)
(3 4.53001e-10 0)
(3 2.50747e-09 0)
(3 9.4306e-09 0)
(3 2.41917e-08 0)
(3 6.92219e-08 0)
(3 1.61064e-07 0)
(2.99999 4.40445e-07 0)
(2.99998 1.00838e-06 0)
(2.99996 2.73528e-06 0)
(2.9999 6.23595e-06 0)
(2.99979 1.69004e-05 0)
(2.99945 3.83065e-05 0)
(2.99877 0.000104521 0)
(2.99676 0.000232028 0)
(2.99289 0.000670627 0)
(2.98022 0.00136691 0)
(2.95652 0.00468391 0)
(2.87451 0.00930942 0)
(2.66349 0.0348401 0)
(2.11065 0.0866465 0)
(0.742567 0.275789 0)
(0.0967256 0.151041 0)
(0.390498 0.0922669 0)
(0.723766 0.0759837 0)
(0.893979 0.0633647 0)
(3 1.37234e-09 0)
(3 -5.3144e-10 0)
(3 1.51791e-08 0)
(3 2.47125e-09 0)
(3 1.02803e-07 0)
(3 2.96154e-08 0)
(2.99999 6.25603e-07 0)
(2.99998 2.25361e-07 0)
(2.99997 3.75222e-06 0)
(2.99991 1.54538e-06 0)
(2.9998 2.26191e-05 0)
(2.99948 9.74678e-06 0)
(2.99886 0.000138509 0)
(2.99696 4.55292e-05 0)
(2.99344 0.000912261 0)
(2.98136 -9.82585e-05 0)
(2.95937 0.00655272 0)
(2.88218 -0.00164935 0)
(2.68578 0.0353504 0)
(2.15712 0.0363659 0)
(0.749767 0.142063 0)
(0.0196612 0.133441 0)
(0.356 0.119092 0)
(0.704363 0.0816947 0)
(0.883243 0.0530697 0)
(3 1.1469e-09 0)
(3 -1.74836e-09 0)
(3 1.05538e-08 0)
(3 -9.04074e-09 0)
(3 6.94867e-08 0)
(3 -4.62737e-08 0)
(2.99999 4.1515e-07 0)
(2.99999 -2.50257e-07 0)
(2.99996 2.44171e-06 0)
(2.99992 -1.4185e-06 0)
(2.99979 1.44567e-05 0)
(2.99954 -8.53642e-06 0)
(2.9988 8.78345e-05 0)
(2.9974 -6.23583e-05 0)
(2.99278 0.000604432 0)
(2.98481 -0.000726227 0)
(2.95547 0.00479747 0)
(2.89426 -0.00508027 0)
(2.70906 0.0244665 0)
(2.1292 0.0117741 0)
(0.842182 0.0834521 0)
(0.0351722 0.113289 0)
(0.354689 0.113578 0)
(0.689583 0.0703671 0)
(0.880629 0.0403191 0)
(3 1.20014e-10 0)
(3 9.48982e-10 0)
(3 2.90371e-09 0)
(3 8.86345e-09 0)
(3 2.1053e-08 0)
(3 5.67542e-08 0)
(2.99999 1.28649e-07 0)
(2.99999 3.38371e-07 0)
(2.99996 7.59658e-07 0)
(2.99992 1.98857e-06 0)
(2.9998 4.45377e-06 0)
(2.99954 1.16226e-05 0)
(2.99881 2.62324e-05 0)
(2.99738 6.58722e-05 0)
(2.9929 0.000162751 0)
(2.98483 0.000367336 0)
(2.95638 0.000919109 0)
(2.89696 0.00207638 0)
(2.71624 0.00588071 0)
(2.1456 0.0132688 0)
(0.890546 0.0425358 0)
(0.0589126 0.0793207 0)
(0.356825 0.0875988 0)
(0.677845 0.057134 0)
(0.878097 0.0326838 0)
(3 -7.9387e-10 0)
(3 3.64293e-09 0)
(3 -3.43067e-09 0)
(3 2.72378e-08 0)
(3 -1.83854e-08 0)
(3 1.63808e-07 0)
(2.99999 -1.02281e-07 0)
(2.99999 9.56234e-07 0)
(2.99997 -5.84869e-07 0)
(2.99992 5.59988e-06 0)
(2.9998 -3.52303e-06 0)
(2.99956 3.31848e-05 0)
(2.99885 -2.45948e-05 0)
(2.99751 0.000210319 0)
(2.99303 -0.000253755 0)
(2.98544 0.00159999 0)
(2.95687 -0.00282319 0)
(2.89854 0.00994097 0)
(2.71802 -0.0116843 0)
(2.15884 0.0219105 0)
(0.899326 0.00906795 0)
(0.0713984 0.0392505 0)
(0.353685 0.0527698 0)
(0.664663 0.0423928 0)
(0.86921 0.0268755 0)
(3 -9.00871e-10 0)
(3 2.85477e-09 0)
(3 -5.87703e-09 0)
(3 1.99602e-08 0)
(3 -3.59257e-08 0)
(3 1.16913e-07 0)
(2.99999 -2.11058e-07 0)
(2.99999 6.69478e-07 0)
(2.99997 -1.25049e-06 0)
(2.99992 3.84999e-06 0)
(2.99982 -7.61997e-06 0)
(2.99953 2.26191e-05 0)
(2.99896 -5.02943e-05 0)
(2.99719 0.000154458 0)
(2.99405 -0.000433435 0)
(2.98271 0.0013748 0)
(2.96266 -0.0038304 0)
(2.89112 0.00852022 0)
(2.7098 -0.017016 0)
(2.21535 0.011456 0)
(0.824484 -0.0107774 0)
(0.0264794 0.00244836 0)
(0.319111 0.0113955 0)
(0.637683 0.0128275 0)
(0.844292 0.00815514 0)
(1.00826 1.07498 0)
(1.16557 0.907065 0)
(0.741524 0.610363 0)
(-0.167154 0.357434 0)
(-0.249402 0.0206902 0)
(-0.242496 0.0159321 0)
(-0.352904 0.0181272 0)
(-0.434785 0.0275259 0)
(-0.496879 0.0374411 0)
(-0.548155 0.0419 0)
(-0.590642 0.0425169 0)
(-0.619819 0.0418993 0)
(-0.6334 0.0385898 0)
(-0.637335 0.0334361 0)
(-0.633539 0.0286689 0)
(-0.625348 0.0258816 0)
(-0.61076 0.0239492 0)
(-0.590098 0.0221146 0)
(-0.563834 0.0201104 0)
(-0.532604 0.0179072 0)
(-0.497485 0.0153574 0)
(-0.459003 0.0120692 0)
(-0.417432 0.00784384 0)
(-0.373317 0.00327373 0)
(-0.327205 -0.00075957 0)
(-0.280522 -0.0040601 0)
(-0.233036 -0.00706071 0)
(-0.18582 -0.00973054 0)
(-0.138263 -0.0123438 0)
(-0.0909258 -0.0149082 0)
(-0.0436143 -0.017856 0)
(0.0041139 -0.021649 0)
(0.0568567 -0.0249809 0)
(0.101699 -0.0258173 0)
(0.140602 -0.0248364 0)
(0.180979 -0.0239207 0)
(0.221038 -0.0229582 0)
(0.260985 -0.0221664 0)
(0.297954 -0.0211467 0)
(0.334114 -0.0205601 0)
(0.371868 -0.0205858 0)
(0.41035 -0.0207328 0)
(0.447241 -0.0201641 0)
(0.482907 -0.0194352 0)
(0.517556 -0.0187731 0)
(0.551514 -0.0181909 0)
(0.584775 -0.0176172 0)
(0.617276 -0.0170277 0)
(0.649009 -0.0163862 0)
(0.680146 -0.0157642 0)
(0.710539 -0.0151474 0)
(0.740257 -0.0145386 0)
(0.769332 -0.0139584 0)
(0.797737 -0.0133883 0)
(0.825552 -0.012841 0)
(0.852749 -0.0123132 0)
(0.879376 -0.0117961 0)
(0.905449 -0.0112991 0)
(0.930962 -0.0108091 0)
(0.955957 -0.0103315 0)
(0.980422 -0.00986338 0)
(1.00438 -0.00940422 0)
(1.02782 -0.00895679 0)
(1.05077 -0.00852006 0)
(1.07322 -0.00809641 0)
(1.09517 -0.00768415 0)
(1.11663 -0.0072845 0)
(1.1376 -0.00689749 0)
(1.15807 -0.006523 0)
(1.17806 -0.00616171 0)
(1.19756 -0.00581279 0)
(1.21658 -0.00547666 0)