/*--------------------------------*- C++ -*----------------------------------*\
  =========                 |
  \\      /  F ield         | OpenFOAM: The Open Source CFD Toolbox
   \\    /   O peration     | Website:  https://openfoam.org
    \\  /    A nd           | Version:  6
     \\/     M anipulation  |
\*---------------------------------------------------------------------------*/
FoamFile
{
    version     2.0;
    format      ascii;
    class       surfaceScalarField;
    location    "33.7";
    object      phi;
}
// * * * * * * * * * * * * * * * * * * * * * * * * * * * * * * * * * * * * * //

dimensions      [0 3 -1 0 0 0 0];

internalField   nonuniform List<scalar> 
17370
(
-0.0900012
0.0898496
0.289162
-0.0714627
0.0537518
0.364486
-0.0381173
0.0276868
0.426599
-0.0196319
0.0145949
0.504289
-0.0107477
0.00825233
0.601897
-0.00624884
0.00487341
0.720433
-0.00371779
0.00288996
0.863734
-0.00216491
0.00161927
1.036
-0.0011137
0.00070888
1.24291
-0.000306361
-7.86941e-05
1.49158
0.000452326
-0.000854832
1.49159
0.00125117
-0.00174451
1.24318
0.0022799
-0.00299576
1.03635
0.0038169
-0.00496602
0.864056
0.00633464
-0.00832977
0.721053
0.0108178
-0.0146581
0.603055
0.0196892
-0.0277379
0.507488
0.0381627
-0.0537898
0.431795
0.0714933
-0.0898699
0.365152
0.0900129
0.198998
-0.128129
0.088215
0.0399139
-0.364591
0.353364
-0.0746848
0.0859119
-0.446472
0.45431
-0.0844129
0.0765749
-0.521183
0.529892
-0.0684801
0.0597717
-0.612778
0.621557
-0.0515846
0.042806
-0.726883
0.734147
-0.0353468
0.0280829
-0.86747
0.872562
-0.0224945
0.0174026
-1.03847
1.0419
-0.0136174
0.0101937
-1.2446
1.24701
-0.00760274
0.00518852
-1.49263
1.4946
-0.00325305
0.0012889
-1.49249
1.49421
0.000396413
-0.00211689
-1.24399
1.24587
0.00402066
-0.00590544
-1.03751
1.04006
0.00826954
-0.0108137
-0.866104
0.869848
0.0141875
-0.017931
-0.724396
0.729947
0.0229804
-0.0285311
-0.608704
0.616125
0.0357534
-0.0431745
-0.514902
0.523055
0.0519131
-0.0600657
-0.439861
0.447928
0.0687376
-0.0768039
-0.375301
0.376757
0.0846098
-0.0860651
-0.257342
0.222507
0.0747891
-0.0399548
-0.0684985
0.0586665
0.00983203
-0.0518498
0.0584467
-0.374106
0.367509
-0.0575397
0.0537928
-0.453579
0.457326
-0.0487029
0.0447493
-0.527925
0.531879
-0.0409063
0.0372651
-0.621539
0.62518
-0.0331646
0.0291006
-0.735321
0.739385
-0.0245576
0.0204338
-0.874307
0.878431
-0.0161352
0.0124791
-1.04345
1.04711
-0.00878111
0.00563447
-1.24854
1.25169
-0.00232724
-0.000741022
-1.49665
1.49972
0.00378641
-0.00703392
-1.49722
1.50047
0.0101056
-0.0137113
-1.25008
1.25369
0.0172831
-0.0214951
-1.04593
1.05014
0.0255438
-0.0300062
-0.877784
0.882247
0.0339967
-0.038017
-0.739933
0.743954
0.0415878
-0.0453588
-0.626804
0.630575
0.0492526
-0.0542856
-0.534837
0.53987
0.0579729
-0.0588047
-0.457504
0.458336
0.0521223
-0.031953
-0.3358
0.315631
0.00987709
-0.0683792
0.0585021
-0.0529091
0.0489079
0.00400122
-0.0332039
0.0437685
-0.358057
0.347492
-0.0474836
0.0468708
-0.459247
0.45986
-0.0438303
0.0404926
-0.53576
0.539098
-0.0367371
0.03345
-0.628479
0.631766
-0.0300344
0.0270277
-0.742596
0.745603
-0.0238
0.0207193
-0.881957
0.885038
-0.0172148
0.0138574
-1.0507
1.05405
-0.0100914
0.00658166
-1.25509
1.2586
-0.00265503
-0.00110278
-1.5032
1.50696
0.00483194
-0.00867951
-1.50412
1.50797
0.0120856
-0.0157185
-1.25744
1.26108
0.0189487
-0.0223132
-1.05397
1.05734
0.0252748
-0.0283846
-0.885761
0.888871
0.031289
-0.0345938
-0.747233
0.750538
0.0377808
-0.041432
-0.634377
0.638028
0.0446822
-0.0476265
-0.544194
0.547138
0.0481411
-0.044289
-0.456647
0.452795
0.0335633
-0.016168
-0.296311
0.278916
0.00405557
-0.0526971
0.0486416
-0.0458226
0.0433208
0.00250187
-0.0228535
0.0332576
-0.336777
0.326373
-0.0391007
0.0401291
-0.459526
0.458498
-0.0389452
0.0366578
-0.541796
0.544083
-0.0339885
0.0313964
-0.634789
0.637381
-0.0283525
0.0254916
-0.748627
0.751488
-0.0222942
0.0193731
-0.887974
0.890895
-0.0161455
0.0131056
-1.05715
1.06019
-0.00963347
0.00626226
-1.26203
1.2654
-0.00233574
-0.00151789
-1.51082
1.51468
0.00533618
-0.00915797
-1.51187
1.51569
0.0123839
-0.0156732
-1.26451
1.2678
0.0185376
-0.0215762
-1.06043
1.06347
0.0243378
-0.0273751
-0.891938
0.894975
0.0300969
-0.0329915
-0.753772
0.756666
0.0354501
-0.0379811
-0.641125
0.643656
0.0401521
-0.0411886
-0.548974
0.550011
0.0400094
-0.0339495
-0.447565
0.441505
0.0233119
-0.0101686
-0.263762
0.250619
0.00256893
-0.0454977
0.0429287
-0.0412374
0.0394641
0.00177326
-0.0167914
0.0260711
-0.316488
0.307208
-0.0327105
0.0348813
-0.456868
0.454697
-0.0344932
0.0328534
-0.546036
0.547675
-0.0307052
0.0286422
-0.639652
0.641715
-0.0262518
0.0239007
-0.754105
0.756456
-0.0210996
0.0183594
-0.893763
0.896503
-0.0151732
0.0121488
-1.0632
1.06622
-0.00871118
0.00544422
-1.26867
1.27194
-0.00167557
-0.00199585
-1.51841
1.52208
0.00562079
-0.00925459
-1.51942
1.52306
0.0123456
-0.0155547
-1.27107
1.27428
0.0183537
-0.0212935
-1.0665
1.06944
0.0238244
-0.0264167
-0.897807
0.900399
0.0285893
-0.0307902
-0.759149
0.76135
0.0326838
-0.0346523
-0.645853
0.647822
0.036123
-0.0363082
-0.550572
0.550757
0.0339064
-0.0269524
-0.434916
0.427962
0.0173608
-0.00731849
-0.239177
0.229134
0.00185519
-0.0407742
0.038919
-0.0379337
0.0365997
0.00133405
-0.0128196
0.020787
-0.298585
0.290618
-0.0275628
0.0305055
-0.452098
0.449155
-0.0307271
0.0296236
-0.549054
0.550157
-0.0276463
0.0257563
-0.643691
0.645581
-0.0236112
0.0215541
-0.758663
0.76072
-0.0191508
0.0167731
-0.899051
0.901428
-0.01394
0.0111552
-1.0691
1.07188
-0.00788487
0.00471847
-1.27513
1.27829
-0.00102784
-0.00257223
-1.5257
1.5293
0.00611969
-0.00964645
-1.52665
1.53018
0.012594
-0.0155716
-1.27741
1.28039
0.0180639
-0.0205709
-1.0722
1.07471
0.0226687
-0.0247992
-0.902724
0.904855
0.0266319
-0.0285442
-0.76336
0.765272
0.0302268
-0.0319909
-0.649665
0.651429
0.0328536
-0.032352
-0.550604
0.550102
0.0290837
-0.0218814
-0.42083
0.413628
0.0135164
-0.00562519
-0.220271
0.21238
0.0014333
-0.0373025
0.0358692
-0.0354312
0.0344029
0.00102836
-0.0100092
0.01674
-0.283287
0.276556
-0.0232539
0.026663
-0.445953
0.442543
-0.0274801
0.0268085
-0.551028
0.5517
-0.025076
0.0233249
-0.647432
0.649183
-0.0213171
0.0193821
-0.762733
0.764668
-0.0171197
0.0148957
-0.903678
0.905902
-0.0122661
0.00967978
-1.0745
1.07709
-0.00663403
0.00365381
-1.28134
1.28432
-0.000163485
-0.00324481
-1.53279
1.5362
0.0065894
-0.00988676
-1.5336
1.5369
0.0126048
-0.015295
-1.28325
1.28595
0.0175241
-0.0197561
-1.07706
1.07929
0.0216376
-0.0235613
-0.906833
0.908757
0.0252137
-0.0269319
-0.767056
0.768774
0.0284229
-0.0298577
-0.653083
0.654518
0.0302197
-0.0290064
-0.549277
0.548063
0.025152
-0.0180836
-0.406468
0.3994
0.0108585
-0.00448816
-0.205319
0.198949
0.00114898
-0.034596
0.033447
-0.0334979
0.0326997
0.000798164
-0.00790232
0.0135379
-0.270397
0.264761
-0.0195399
0.023131
-0.439013
0.435422
-0.0244326
0.0240389
-0.552224
0.552617
-0.0226255
0.0210292
-0.650873
0.652469
-0.0191485
0.0173119
-0.766592
0.768429
-0.0151406
0.0129986
-0.908075
0.910217
-0.0104824
0.00803152
-1.07955
1.082
-0.00517335
0.00238311
-1.28716
1.28995
0.000891283
-0.00408886
-1.53948
1.54268
0.00720351
-0.0102283
-1.54006
1.54309
0.0126859
-0.0151066
-1.28853
1.29095
0.0171157
-0.0191297
-1.08146
1.08347
0.0208292
-0.0225529
-0.910592
0.912315
0.0240227
-0.0255421
-0.77035
0.771869
0.0268273
-0.0278813
-0.655728
0.656782
0.0278922
-0.0260647
-0.546541
0.544714
0.0218894
-0.0151825
-0.392511
0.385804
0.00893688
-0.00367649
-0.193187
0.187926
0.000944748
-0.0324152
0.0314705
-0.0319981
0.0313786
0.000619479
-0.0062601
0.0109519
-0.259619
0.254927
-0.0163388
0.0199114
-0.431831
0.428258
-0.0215086
0.0213052
-0.552937
0.553141
-0.020079
0.01852
-0.654075
0.655634
-0.0167157
0.0149863
-0.770227
0.771956
-0.0129667
0.0109771
-0.912223
0.914213
-0.00862095
0.00630667
-1.08431
1.08663
-0.00358863
0.000938317
-1.29263
1.29528
0.0021466
-0.00512567
-1.54576
1.54874
0.00800581
-0.0107904
-1.54601
1.54879
0.013035
-0.015207
-1.29328
1.29545
0.0169707
-0.0187061
-1.08537
1.0871
0.0201455
-0.0216106
-0.913891
0.915357
0.0228892
-0.0242495
-0.773262
0.774622
0.0254323
-0.0261569
-0.657677
0.658401
0.0258349
-0.0235392
-0.54268
0.540384
0.0192141
-0.0129503
-0.37933
0.373066
0.00751417
-0.00308391
-0.183122
0.178692
0.000796617
-0.0306137
0.029817
-0.0308392
0.0303658
0.000473395
-0.00491601
0.00877656
-0.25067
0.24681
-0.0134893
0.0169069
-0.424755
0.421338
-0.0187291
0.0187872
-0.553244
0.553186
-0.0178416
0.0163877
-0.657208
0.658662
-0.014645
0.012935
-0.773696
0.775406
-0.0109172
0.00893523
-0.916122
0.918104
-0.0066105
0.00435705
-1.08883
1.09108
-0.00174599
-0.000757003
-1.2978
1.30031
0.00362655
-0.00636063
-1.55155
1.55428
0.00896999
-0.0114667
-1.55144
1.55394
0.0134691
-0.0154114
-1.29757
1.29951
0.0169882
-0.0185407
-1.08879
1.09035
0.0198378
-0.0211703
-0.916728
0.91806
0.0223217
-0.023509
-0.775841
0.777028
0.0244776
-0.0248082
-0.65891
0.659241
0.0241276
-0.0214067
-0.53791
0.535189
0.0170326
-0.0112277
-0.367056
0.361252
0.00645189
-0.00265027
-0.174614
0.170812
0.000690907
-0.0290887
0.0283978
-0.0299622
0.0296161
0.000346077
-0.00375824
0.00686759
-0.243342
0.240233
-0.0108679
0.0139734
-0.418081
0.414976
-0.015816
0.0160257
-0.553073
0.552863
-0.0151938
0.0138732
-0.660102
0.661423
-0.0122061
0.0105503
-0.777108
0.778764
-0.00858324
0.00665537
-0.919983
0.921911
-0.00441386
0.00225968
-1.09319
1.09535
0.000222891
-0.0026017
-1.30268
1.30506
0.00533309
-0.00792785
-1.55691
1.55951
0.0103695
-0.012642
-1.55633
1.5586
0.0144031
-0.0160648
-1.30136
1.30303
0.0174035
-0.0187184
-1.09182
1.09314
0.0198109
-0.0208982
-0.919281
0.920369
0.0218183
-0.022774
-0.778068
0.779024
0.0234624
-0.0235257
-0.659414
0.659477
0.0224654
-0.0194769
-0.532365
0.529377
0.0151827
-0.00984791
-0.355716
0.350382
0.00562584
-0.00231789
-0.167293
0.163985
0.000610121
-0.027762
0.0271519
-0.029333
0.0291017
0.000231376
-0.00272497
0.00514593
-0.237486
0.235065
-0.00843355
0.0111515
-0.412084
0.409366
-0.0129068
0.013179
-0.552672
0.5524
-0.0123758
0.0110898
-0.662801
0.664087
-0.00941764
0.00777551
-0.780416
0.782058
-0.00586253
0.0040048
-0.92369
0.925548
-0.00184554
-0.000233379
-1.09735
1.09943
0.00262168
-0.00488854
-1.30731
1.30958
0.00744286
-0.00980745
-1.56196
1.56432
0.0119878
-0.0139734
-1.56075
1.56273
0.0154883
-0.0168768
-1.30462
1.306
0.0179417
-0.0189412
-1.09433
1.09533
0.0197509
-0.0205859
-0.92134
0.922175
0.0213334
-0.022132
-0.779845
0.780644
0.0226373
-0.0224492
-0.659401
0.659213
0.0210924
-0.0178958
-0.526328
0.523132
0.0137055
-0.00878702
-0.345293
0.340375
0.00501072
-0.00208052
-0.1609
0.15797
0.000556846
-0.0265851
0.0260283
-0.0289302
0.028811
0.000119198
-0.00172008
0.00345936
-0.233002
0.231262
-0.00599729
0.00824909
-0.406908
0.404656
-0.00984429
0.0101735
-0.552174
0.551845
-0.00947137
0.00828103
-0.665433
0.666623
-0.00665129
0.00500533
-0.783693
0.785339
-0.00305754
0.00116391
-0.927275
0.929168
0.00101914
-0.00309238
-1.10137
1.10344
0.00543016
-0.00760421
-1.31172
1.3139
0.00999768
-0.012168
-1.56654
1.56871
0.0140972
-0.0157973
-1.56459
1.56629
0.0170394
-0.0181452
-1.30729
1.3084
0.0189875
-0.0197681
-1.09624
1.09702
0.0203858
-0.0209804
-0.9229
0.923494
0.0214831
-0.0219794
-0.781316
0.781812
0.0220953
-0.0216375
-0.658815
0.658357
0.0199452
-0.016544
-0.519891
0.516489
0.0124712
-0.00793308
-0.335698
0.33116
0.00453296
-0.00190508
-0.155233
0.152605
0.000520841
-0.0255105
0.0249897
-0.0287549
0.0287475
7.41282e-06
-0.000746913
0.00181772
-0.229875
0.228804
-0.00357805
0.00527503
-0.402725
0.401028
-0.00657413
0.00686758
-0.551624
0.551331
-0.00623926
0.00513779
-0.667861
0.668962
-0.00352964
0.00184802
-0.786958
0.78864
0.000170142
-0.00212004
-0.930946
0.932895
0.00433267
-0.0063928
-1.10539
1.10745
0.00868689
-0.0107877
-1.31593
1.31803
0.0130668
-0.0150618
-1.57073
1.57273
0.0167778
-0.0181969
-1.56785
1.56927
0.0191564
-0.0199362
-1.30942
1.3102
0.0204667
-0.0209125
-1.09772
1.09817
0.0212301
-0.0215216
-0.923998
0.924289
0.0217779
-0.0220221
-0.782106
0.782351
0.0218305
-0.0209661
-0.657559
0.656695
0.018934
-0.0153963
-0.513079
0.509541
0.0114771
-0.00728455
-0.326864
0.322671
0.00418908
-0.00178786
-0.15014
0.147739
0.000500135
-0.0245029
0.0240027
-0.0287991
0.0289208
-0.000121689
0.000294069
8.71885e-05
-0.228083
0.227702
-0.00104535
0.00212157
-0.399711
0.398635
-0.00298812
0.00308376
-0.551277
0.551182
-0.00235578
0.00118674
-0.670212
0.671381
0.000473494
-0.00218263
-0.790263
0.791972
0.00419351
-0.00611736
-0.934637
0.936561
0.0083014
-0.010344
-1.10933
1.11138
0.0126035
-0.0146533
-1.32001
1.32206
0.0168127
-0.0186281
-1.57458
1.57639
0.0201019
-0.0212183
-1.57054
1.57166
0.0218478
-0.0222396
-1.31086
1.31125
0.0224149
-0.0224633
-1.09849
1.09854
0.0224426
-0.0224039
-0.924464
0.924426
0.0223687
-0.0222629
-0.782292
0.782186
0.0217934
-0.0205288
-0.655499
0.654235
0.0182376
-0.014589
-0.506084
0.502436
0.0107819
-0.00684727
-0.318701
0.314767
0.00397499
-0.00172924
-0.145474
0.143229
0.000496945
-0.0235334
0.0230365
-0.0291134
0.0293663
-0.000252861
0.00135066
-0.00165884
-0.227696
0.228004
0.00157026
-0.00116585
-0.397981
0.397576
0.000776023
-0.000888463
-0.551403
0.551515
0.00167911
-0.00289861
-0.672728
0.673948
0.00462613
-0.00641535
-0.793606
0.795395
0.00853238
-0.0105643
-0.938312
0.940344
0.0128685
-0.0150015
-1.11329
1.11542
0.017326
-0.019361
-1.32397
1.326
0.0214125
-0.0230368
-1.57802
1.57964
0.0242232
-0.0250187
-1.57259
1.57338
0.0253627
-0.0254069
-1.31154
1.31159
0.0252466
-0.0249273
-1.09844
1.09812
0.0245536
-0.0241217
-0.924189
0.923757
0.0237242
-0.0232382
-0.781754
0.781268
0.0224243
-0.0206719
-0.652742
0.65099
0.0180016
-0.0141477
-0.498856
0.495002
0.0103802
-0.00661551
-0.311034
0.307269
0.00388164
-0.00171567
-0.141097
0.138931
0.000502062
-0.0225703
0.0220682
-0.029697
0.0300946
-0.000397623
0.00242851
-0.00345165
-0.228637
0.22966
0.00422405
-0.00458501
-0.397618
0.397979
0.00479447
-0.00518142
-0.55203
0.552417
0.00604214
-0.00732777
-0.675345
0.676631
0.00916809
-0.0111115
-0.797105
0.799049
0.0134293
-0.0156408
-0.942225
0.944436
0.0181205
-0.0203891
-1.11744
1.11971
0.0228216
-0.0249236
-1.32794
1.33004
0.0269894
-0.0285443
-1.58115
1.5827
0.02956
-0.0300207
-1.57398
1.57444
0.0300135
-0.0296473
-1.31148
1.31112
0.029108
-0.0283824
-1.0976
1.09688
0.0276429
-0.0267917
-0.923045
0.922194
0.0260222
-0.0250547
-0.78037
0.779403
0.0236968
-0.0213674
-0.649031
0.646702
0.0183239
-0.014271
-0.491258
0.487205
0.0104832
-0.0067508
-0.303677
0.299945
0.00400878
-0.00178949
-0.136833
0.134614
0.000525928
-0.0215938
0.0210679
-0.030589
0.0311596
-0.000570519
0.00358003
-0.00529026
-0.231061
0.232771
0.00693986
-0.00811456
-0.398763
0.399938
0.00909193
-0.00996813
-0.553376
0.554252
0.0111474
-0.0126715
-0.678181
0.679705
0.0147765
-0.0169686
-0.800908
0.8031
0.019559
-0.0220098
-0.946498
0.948949
0.0247294
-0.0271751
-1.12186
1.1243
0.0297453
-0.0318922
-1.33202
1.33417
0.0339108
-0.0352916
-1.58409
1.58547
0.0360142
-0.0360849
-1.57467
1.57474
0.0356808
-0.0348475
-1.31053
1.30969
0.0338551
-0.0326452
-1.09588
1.09467
0.0315027
-0.0302498
-0.921029
0.919776
0.0291096
-0.0276128
-0.778003
0.776506
0.025786
-0.0229803
-0.644279
0.641473
0.0195935
-0.0152811
-0.483292
0.478979
0.0113243
-0.00739849
-0.296317
0.292391
0.00444303
-0.00199358
-0.132393
0.129943
0.000583972
-0.0205589
0.0199749
-0.0318244
0.0325894
-0.000764945
0.00483523
-0.00727585
-0.234889
0.237329
0.00982008
-0.0118183
-0.401561
0.403559
0.0136158
-0.0151139
-0.555824
0.557322
0.0168511
-0.0188117
-0.681603
0.683563
0.0213652
-0.0239473
-0.805238
0.807821
0.0269365
-0.029718
-0.951259
0.954041
0.0327645
-0.0354635
-1.12664
1.12934
0.0382296
-0.0404647
-1.33618
1.33842
0.0424308
-0.0435853
-1.58662
1.58778
0.0439667
-0.0435869
-1.57453
1.57415
0.042708
-0.041364
-1.30859
1.30725
0.0399199
-0.038217
-1.09315
1.09145
0.0366334
-0.0349351
-0.918133
0.916435
0.033423
-0.031435
-0.774572
0.772584
0.0291714
-0.0258633
-0.638642
0.635334
0.022038
-0.0172841
-0.474781
0.470027
0.0129337
-0.00854984
-0.288471
0.284087
0.00517152
-0.00232485
-0.127421
0.124575
0.000678581
-0.019394
0.0187154
-0.033442
0.034458
-0.00101596
0.00640455
-0.00970421
-0.240186
0.243486
0.0132519
-0.016122
-0.406104
0.408974
0.0187733
-0.0209321
-0.559651
0.56181
0.0232871
-0.0257728
-0.685989
0.688475
0.0289007
-0.0319953
-0.810374
0.813469
0.0355389
-0.0388109
-0.95672
0.959992
0.0423491
-0.0454327
-1.13196
1.13504
0.0485191
-0.0509152
-1.34054
1.34294
0.0528682
-0.0538397
-1.5887
1.58967
0.0538569
-0.0529759
-1.57346
1.57257
0.051591
-0.0496685
-1.30556
1.30364
0.0477089
-0.0454712
-1.08935
1.08711
0.0434286
-0.0412697
-0.914295
0.912136
0.0393151
-0.036792
-0.770187
0.767664
0.0339975
-0.0300399
-0.631982
0.628024
0.0255921
-0.0201591
-0.465335
0.459902
0.0151791
-0.010091
-0.279628
0.27454
0.00611575
-0.00274573
-0.121612
0.118241
0.000798268
-0.0180344
0.0172361
-0.0355565
0.0369274
-0.00137088
0.00854761
-0.0129537
-0.247215
0.251622
0.0177234
-0.0216156
-0.412558
0.41645
0.0251932
-0.0280573
-0.564944
0.567808
0.0310583
-0.0341117
-0.691479
0.694532
0.0378943
-0.0416197
-0.816534
0.82026
0.0458712
-0.0497624
-0.9632
0.967091
0.0539323
-0.0575111
-1.13808
1.14166
0.0610198
-0.0636449
-1.34524
1.34786
0.0656652
-0.0664889
-1.59043
1.59125
0.0661744
-0.0647696
-1.57135
1.56994
0.0628336
-0.0602545
-1.30133
1.29875
0.0576677
-0.0547602
-1.0844
1.08149
0.0521525
-0.0493842
-0.909368
0.9066
0.0468259
-0.0436354
-0.764671
0.76148
0.0401213
-0.0353034
-0.623953
0.619136
0.0300588
-0.0237437
-0.454507
0.448192
0.0179151
-0.0118999
-0.269324
0.263309
0.00719018
-0.00321439
-0.114735
0.110759
0.000930594
-0.016434
0.0155034
-0.0383605
0.040268
-0.00190745
0.0116562
-0.0175499
-0.256447
0.26234
0.0238506
-0.0289896
-0.421362
0.426501
0.033707
-0.0374969
-0.571968
0.575758
0.0414016
-0.0452715
-0.698226
0.702096
0.0499645
-0.0544968
-0.823973
0.828506
0.0595691
-0.0641499
-0.97093
0.975511
0.0689715
-0.0730089
-1.14516
1.1492
0.0768176
-0.0795226
-1.35031
1.35302
0.0813831
-0.0818081
-1.59176
1.59218
0.0809023
-0.0787669
-1.56812
1.56599
0.076131
-0.0727912
-1.29574
1.2924
0.0695256
-0.0658443
-1.07798
1.0743
0.0624928
-0.0589254
-0.903039
0.899472
0.0556443
-0.0516896
-0.757665
0.75371
0.0473886
-0.0416467
-0.614194
0.608453
0.0354801
-0.0280225
-0.441918
0.434461
0.0210729
-0.0139075
-0.257144
0.249978
0.00834797
-0.00370421
-0.106656
0.102013
0.00106345
-0.01458
0.0135165
-0.0421851
0.0449448
-0.00275974
0.0163521
-0.0242923
-0.268624
0.276564
0.0325585
-0.0392712
-0.433264
0.439976
0.0454717
-0.0505437
-0.581341
0.586413
0.0558503
-0.060988
-0.706808
0.711946
0.0668787
-0.0723585
-0.833025
0.838505
0.0783392
-0.0835792
-0.980009
0.985249
0.0888981
-0.0931435
-1.15303
1.15728
0.096913
-0.0993173
-1.35533
1.35774
0.100528
-0.100067
-1.59201
1.59155
0.0980804
-0.0947396
-1.56317
1.55983
0.0910386
-0.0866018
-1.28846
1.28402
0.0824281
-0.07791
-1.07
1.06548
0.0739333
-0.0697037
-0.895066
0.890836
0.0657467
-0.061127
-0.749041
0.744422
0.0561589
-0.0494406
-0.60259
0.595871
0.0420472
-0.0329963
-0.426982
0.417931
0.0246096
-0.0160955
-0.242688
0.234174
0.00958118
-0.00420821
-0.0972714
0.0918985
0.00119275
-0.0124737
0.011281
-0.0476028
0.0518116
-0.00420881
0.0237788
-0.0345569
-0.284914
0.295692
0.0453692
-0.0540984
-0.449298
0.458027
0.0621046
-0.0687298
-0.593878
0.600503
0.0757935
-0.0824744
-0.717984
0.724665
0.0898264
-0.0963571
-0.843988
0.850519
0.103152
-0.108822
-0.990288
0.995958
0.114274
-0.118371
-1.16111
1.1652
0.12168
-0.123391
-1.35951
1.36122
0.123565
-0.12191
-1.59025
1.58859
0.118642
-0.113939
-1.55564
1.55094
0.109047
-0.10336
-1.27884
1.27315
0.0981151
-0.0925484
-1.06019
1.05463
0.0877747
-0.0829188
-0.885704
0.880848
0.0785232
-0.073232
-0.739003
0.733712
0.0672332
-0.0588851
-0.588707
0.580359
0.049643
-0.0385478
-0.408743
0.397648
0.0285067
-0.0184835
-0.225656
0.215633
0.0108924
-0.00471643
-0.0864943
0.0803184
0.00131136
-0.0101289
0.00881752
-0.0556667
0.0628777
-0.00721097
0.036926
-0.0519629
-0.307435
0.322472
0.066381
-0.0777356
-0.470791
0.482146
0.087538
-0.0956363
-0.610009
0.618107
0.104401
-0.112458
-0.73202
0.740077
0.120863
-0.127888
-0.856802
0.863827
0.134829
-0.14034
-1.00115
1.00666
0.145373
-0.148861
-1.16863
1.17211
0.151288
-0.15199
-1.36209
1.3628
0.150903
-0.14795
-1.58599
1.58304
0.143406
-0.137448
-1.54539
1.53943
0.131492
-0.124741
-1.26675
1.26
0.118567
-0.112026
-1.04828
1.04174
0.106407
-0.100606
-0.874871
0.86907
0.0951914
-0.0883693
-0.727105
0.720282
0.0802776
-0.069298
-0.570894
0.559915
0.0577843
-0.0445681
-0.386373
0.373157
0.0328184
-0.0211507
-0.205815
0.194148
0.0123221
-0.00523574
-0.0742841
0.0671977
0.00141161
-0.00758099
0.00616938
-0.0696551
0.0734955
-0.00384047
0.0273752
-0.0403575
-0.340092
0.353074
0.0531745
-0.0633442
-0.498764
0.508934
0.0726497
-0.0817246
-0.629424
0.638499
0.092152
-0.101523
-0.747652
0.757024
0.111922
-0.12111
-0.869908
0.879097
0.130792
-0.139275
-1.01125
1.01973
0.147992
-0.155266
-1.17459
1.18186
0.162191
-0.167293
-1.36243
1.36753
0.171129
-0.172583
-1.57902
1.58047
0.171545
-0.16844
-1.53255
1.52944
0.164118
-0.158206
-1.25251
1.2466
0.152226
-0.144693
-1.03438
1.02685
0.13756
-0.129053
-0.861699
0.853192
0.120253
-0.108972
-0.711024
0.699743
0.0960529
-0.0801008
-0.547614
0.531661
0.064779
-0.0479149
-0.359681
0.342817
0.0336523
-0.0203066
-0.182803
0.169457
0.0109252
-0.0041919
-0.0607615
0.0540282
0.00094438
-0.00491293
0.00396855
-0.080731
0.0784365
0.0022945
0.00578773
-0.0136602
-0.368783
0.376655
0.0230317
-0.0302605
-0.523498
0.530726
0.0376349
-0.0450981
-0.649792
0.657256
0.0542864
-0.0628408
-0.765941
0.774496
0.0720251
-0.0804602
-0.887728
0.896163
0.0894459
-0.0970934
-1.028
1.03565
0.10523
-0.11174
-1.18908
1.19559
0.117999
-0.122443
-1.37252
1.37697
0.12543
-0.126242
-1.58137
1.58218
0.12459
-0.120816
-1.52581
1.52204
0.115603
-0.108614
-1.24022
1.23323
0.101373
-0.0923699
-1.01834
1.00934
0.0830766
-0.0717766
-0.841575
0.830275
0.0608756
-0.0492494
-0.683275
0.671649
0.0387749
-0.0278185
-0.513439
0.502483
0.0187785
-0.0109571
-0.325558
0.317737
0.0057899
-0.00219747
-0.156508
0.152915
0.000351861
0.00032978
-0.0475812
0.0468996
-0.000305272
-0.00265539
0.00296066
-0.081487
0.0785184
0.00296861
-0.00263331
-0.00146254
-0.387681
0.391777
0.00723281
-0.0123842
-0.541503
0.546654
0.0178504
-0.0240176
-0.666529
0.672696
0.0316514
-0.0388439
-0.78211
0.789302
0.0469057
-0.0542602
-0.903869
0.911224
0.0619601
-0.0689525
-1.0432
1.05019
0.0762408
-0.0822137
-1.20179
1.20776
0.087558
-0.0911784
-1.38087
1.38449
0.0935514
-0.0935623
-1.58231
1.58232
0.091071
-0.0863908
-1.51747
1.51279
0.0803873
-0.0727019
-1.2257
1.21802
0.0644775
-0.0547825
-0.999288
0.989593
0.0451638
-0.0341253
-0.818079
0.80704
0.0243385
-0.0144957
-0.657466
0.647623
0.00667967
0.00050183
-0.48983
0.482649
-0.00490667
0.00708981
-0.308196
0.306013
-0.00726996
0.00607472
-0.147529
0.148724
-0.00434522
0.00228565
-0.0454159
0.0474755
-0.000820327
-0.00256277
0.00338309
-0.0799955
0.0771562
0.00283931
-0.00582812
0.0040193
-0.399775
0.401584
-0.000592062
-0.0031314
-0.554746
0.558469
0.00773117
-0.0127547
-0.679786
0.684809
0.0191197
-0.0251976
-0.795936
0.802014
0.0320603
-0.0384048
-0.918107
0.924451
0.0454781
-0.0515197
-1.0568
1.06284
0.0580141
-0.062907
-1.21338
1.21827
0.0675794
-0.070614
-1.3879
1.39093
0.0721754
-0.0712683
-1.58179
1.58088
0.0682867
-0.0631991
-1.50731
1.50222
0.056953
-0.0488243
-1.20985
1.20172
0.0407295
-0.0314515
-0.979396
0.970118
0.0224213
-0.012735
-0.795688
0.786001
0.00407261
0.00401566
-0.635942
0.627854
-0.0097929
0.013944
-0.473561
0.46941
-0.0155517
0.014749
-0.300419
0.301222
-0.0125502
0.00922826
-0.148116
0.151438
-0.00617594
0.00299664
-0.0485137
0.051693
-0.000963387
-0.00351965
0.00448303
-0.0783898
0.0759878
0.00240197
-0.00648808
0.00601087
-0.407817
0.408294
-0.00348532
0.000748824
-0.56525
0.567986
0.00296582
-0.00751555
-0.690665
0.695215
0.0128019
-0.0181282
-0.807504
0.81283
0.0240802
-0.0296328
-0.930418
0.935971
0.035769
-0.0412094
-1.06877
1.07422
0.0467913
-0.0513143
-1.22304
1.22756
0.0553255
-0.0578069
-1.39356
1.39604
0.0588304
-0.0575333
-1.5797
1.5784
0.054305
-0.0489596
-1.49634
1.491
0.0428606
-0.0352755
-1.1935
1.18591
0.0278011
-0.0192963
-0.960628
0.952123
0.0114641
-0.00312147
-0.776052
0.767709
-0.00398001
0.0106361
-0.618513
0.611857
-0.0152139
0.0180725
-0.462638
0.459779
-0.0187266
0.0169154
-0.297977
0.299788
-0.013782
0.00998594
-0.152621
0.156417
-0.0065436
0.00309538
-0.0536904
0.0571387
-0.000981457
-0.00491903
0.00590049
-0.0770767
0.0750935
0.00198326
-0.00600065
0.00578551
-0.413416
0.413631
-0.0043438
0.0020393
-0.573402
0.575706
0.00172382
-0.00566372
-0.699878
0.703818
0.0102487
-0.0149054
-0.8175
0.822157
0.0202336
-0.0252365
-0.941244
0.946246
0.0308907
-0.0356983
-1.0794
1.0842
0.0407448
-0.0448219
-1.23179
1.23587
0.048345
-0.0504448
-1.39822
1.40032
0.0511277
-0.050021
-1.57694
1.57584
0.0467799
-0.0418278
-1.48521
1.48026
0.0361396
-0.0291972
-1.17827
1.17133
0.0227183
-0.015136
-0.943707
0.936125
0.00835235
-0.00140209
-0.759381
0.75243
-0.00449892
0.00997113
-0.60443
0.598958
-0.0137105
0.0161572
-0.454136
0.45169
-0.0164885
0.0148862
-0.297701
0.299304
-0.0122551
0.00880259
-0.157964
0.161416
-0.00567498
0.00269953
-0.0590528
0.0620282
-0.00085609
-0.00632204
0.00717813
-0.0762248
0.074729
0.00149583
-0.00486792
0.00479211
-0.417787
0.417863
-0.00342863
0.00160921
-0.580783
0.582602
0.00199735
-0.00566269
-0.708022
0.711687
0.0101424
-0.0142191
-0.826561
0.830638
0.0189575
-0.0234359
-0.951281
0.95576
0.0288248
-0.0332107
-1.08905
1.09343
0.0377212
-0.0415675
-1.23976
1.2436
0.0451872
-0.0471031
-1.4024
1.40432
0.0478337
-0.0467079
-1.57432
1.57319
0.0439897
-0.0392171
-1.47514
1.47036
0.0342111
-0.0281415
-1.16437
1.1583
0.0223136
-0.0158636
-0.928784
0.922334
0.00993214
-0.00374798
-0.745257
0.739073
-0.0011156
0.0059374
-0.592607
0.587785
-0.00932115
0.0113455
-0.447015
0.444991
-0.011851
0.0109514
-0.297632
0.298532
-0.00901298
0.00637717
-0.162351
0.164987
-0.00408874
0.00196868
-0.0633226
0.0654426
-0.000647064
-0.0074369
0.00808396
-0.0759371
0.074799
0.00113808
-0.003649
0.00356858
-0.42149
0.421571
-0.00209707
0.000185541
-0.587465
0.589377
0.00324676
-0.00662952
-0.715576
0.718959
0.0105704
-0.0146028
-0.834797
0.83883
0.0190557
-0.0237162
-0.960109
0.96477
0.0283979
-0.0325925
-1.09794
1.10213
0.0372048
-0.0407921
-1.24732
1.25091
0.0439158
-0.046225
-1.40613
1.40844
0.0471394
-0.0463646
-1.57212
1.57135
0.0439182
-0.0398889
-1.46582
1.46179
0.0354304
-0.0299922
-1.15203
1.14659
0.0248698
-0.0191408
-0.915879
0.91015
0.0139378
-0.00866471
-0.732934
0.727661
0.00411104
0.000102402
-0.582219
0.578006
-0.00307968
0.00526486
-0.440781
0.438595
-0.00607591
0.00566173
-0.296696
0.297111
-0.00469523
0.00324359
-0.164944
0.166396
-0.00205358
0.000998007
-0.0658856
0.0669411
-0.000358882
-0.00816386
0.00852274
-0.076211
0.0752658
0.000945222
-0.00231671
0.00194091
-0.425039
0.425414
-0.000586881
-0.00151543
-0.593806
0.595908
0.00476464
-0.00815456
-0.722841
0.726231
0.0120614
-0.0158061
-0.842784
0.846529
0.0204572
-0.0243791
-0.968919
0.972841
0.0290501
-0.0330778
-1.1065
1.11053
0.0375653
-0.0413252
-1.25447
1.25823
0.0447291
-0.0468323
-1.41051
1.41262
0.0481066
-0.047766
-1.5705
1.57016
0.0460253
-0.0424121
-1.45767
1.45405
0.0384949
-0.0336041
-1.14129
1.1364
0.029026
-0.0238035
-0.904273
0.899051
0.0192033
-0.0143252
-0.722143
0.717265
0.0101851
-0.00621246
-0.573115
0.569142
0.00321746
-0.00107215
-0.434652
0.432506
-0.000179167
0.000561651
-0.294591
0.294208
-0.000728463
0.000588135
-0.165287
0.165428
-0.0004664
0.000355667
-0.0664842
0.066595
-0.00019138
-0.00836037
0.00855176
-0.0767814
0.0761319
0.000649583
-0.00117595
0.000337441
-0.42882
0.429658
0.000922638
-0.00321646
-0.599617
0.601911
0.00626476
-0.0096401
-0.729831
0.733206
0.013489
-0.0174488
-0.850253
0.854213
0.0215689
-0.0256955
-0.977029
0.981156
0.0303563
-0.0341879
-1.11499
1.11883
0.038773
-0.0424961
-1.26181
1.26553
0.0459612
-0.0486005
-1.41513
1.41777
0.0503864
-0.0503703
-1.56986
1.56984
0.0489091
-0.0460451
-1.4506
1.44774
0.0427107
-0.0382293
-1.13138
1.1269
0.0339429
-0.0293002
-0.89375
0.889107
0.0246982
-0.0202841
-0.712097
0.707683
0.0163798
-0.0124566
-0.564749
0.560826
0.00953902
-0.00696606
-0.428424
0.425851
0.00525542
-0.00388811
-0.291262
0.289895
0.00281558
-0.00172943
-0.163467
0.16238
0.000801704
-0.000125186
-0.0653032
0.0646266
-0.000103127
-0.00807213
0.00817526
-0.0777322
0.0772371
0.000495135
-0.000235962
-0.000567102
-0.432873
0.433676
0.00242347
-0.0046005
-0.605652
0.607829
0.00789675
-0.0112279
-0.736523
0.739855
0.0150132
-0.018655
-0.857949
0.861591
0.0229633
-0.0268242
-0.985339
0.9892
0.031463
-0.0357451
-1.12313
1.12741
0.0399897
-0.0440476
-1.26931
1.27337
0.0479481
-0.0506988
-1.42031
1.42306
0.0528871
-0.0536643
-1.57004
1.57082
0.0526813
-0.0504507
-1.44473
1.4425
0.047325
-0.0432844
-1.12241
1.11837
0.0393934
-0.0349082
-0.884039
0.879554
0.0306624
-0.0263419
-0.702726
0.698405
0.0225263
-0.0185192
-0.556381
0.552374
0.0153209
-0.0124037
-0.421782
0.418865
0.00995649
-0.00773549
-0.28628
0.284059
0.00573529
-0.00365928
-0.159522
0.157446
0.00199627
-0.000690155
-0.0627005
0.0613944
7.87318e-05
-0.00753498
0.00745625
-0.0789392
0.0786135
0.000325646
0.000778887
-0.00178074
-0.437096
0.438097
0.00352934
-0.00601254
-0.611389
0.613872
0.00929871
-0.012537
-0.743124
0.746362
0.0164692
-0.0200253
-0.865295
0.868851
0.0242341
-0.0282507
-0.993579
0.997596
0.0328279
-0.0370939
-1.13157
1.13584
0.0415732
-0.0456751
-1.27737
1.28147
0.049777
-0.0532878
-1.42611
1.42962
0.0559413
-0.0570432
-1.57154
1.57264
0.0567563
-0.0548513
-1.44014
1.43824
0.0522595
-0.0487132
-1.11423
1.11068
0.0448512
-0.0405357
-0.874741
0.870426
0.0364208
-0.0320245
-0.693657
0.689261
0.0282807
-0.0241252
-0.54813
0.543974
0.0207282
-0.01721
-0.414522
0.411004
0.0142381
-0.011164
-0.279742
0.276668
0.00822579
-0.00528778
-0.153715
0.150777
0.00297489
-0.00113026
-0.0589343
0.0570896
0.000210629
-0.00676081
0.00655018
-0.0803509