/*--------------------------------*- C++ -*----------------------------------*\
| =========                 |                                                 |
| \\      /  F ield         | OpenFOAM: The Open Source CFD Toolbox           |
|  \\    /   O peration     | Version:  2106                                  |
|   \\  /    A nd           | Website:  www.openfoam.com                      |
|    \\/     M anipulation  |                                                 |
\*---------------------------------------------------------------------------*/
FoamFile
{
    version     2.0;
    format      ascii;
    arch        "LSB;label=32;scalar=64";
    class       volScalarField;
    location    "5";
    object      T;
}
// * * * * * * * * * * * * * * * * * * * * * * * * * * * * * * * * * * * * * //

dimensions      [0 0 0 1 0 0 0];

internalField   nonuniform List<scalar> 
1000
(
0
0
0
0
0
0
0
0
0
0
0
0
0
0
0
0
0
0
0
0
0
0
0
0
0
0
0
0
0
0
0
0
0
0
0
0
0
0
0
0
0
0
0
0
0
0
0
0
0
0
0
0
0
0
0
0
0
0
0
0
0
0
0
0
0
0
0
0
0
0
0
0
0
0
0
0
0
0
0
0
0
0
0
0
0
0
0
0
0
0
0
0
0
0
0
0
0
0
0
0
0
0
0
0
0
0
0
0
0
0
0
0
0
0
0
0
0
0
0
0
0
0
0
0
0
0
0
0
0
0
0
0
0
0
0
0
0
0
0
0
0
0
0
0
0
0
0
0
0
0
0
0
0
0
0
0
0
0
0
0
0
0
0
0
0
0
0
0
0
0
0
0
0
0
0
0
0
0
0
0
0
0
0
0
0
0
0
0
0
0
0
0
0
0
0
0
0
0
0
0
0
0
0
0
0
0
0
0
0
0
0
0
0
0
0
0
0
0
0
0
0
0
0
0
0
0
0
0
0
0
0
0
0
0
0
0
0
0
0
0
0
0
0
0
0
0
0
0
0
0
0
0
0
0
0
0
0
0
0
0
0
0
0
0
0
0
0
0
0
0
0
0
0
0
0
0
0
0
0
0
0
0
0
0
0
0
0
0
0
0
0
0
0
0
0
0
0
0
0
0
0
0
0
0
0
0
0
0
0
0
0
0
0
0
0
0
0
0
0
0
0
0
0
0
0
0
0
0
0
0
0
0
0
0
0
0
0
0
0
0
0
0
0
0
0
0
0
0
0
0
0
0
0
0
0
0
0
0
0
0
0
0
0
0
0
0
0
0
0
0
0
0
0
0
0
0
0
0
0
0
0
0
0
0
0
0
0
0
0
0
0
0
0
0
0
0
0
0
0
0
0
0
0
0
0
0
0
0
0
0
0
0
0
0
0
0
0
0
0
0
0
0
0
0
0
0
0
0
0
0
0
0
0
0
0
0
0
0
0
0
0
0
0
0
0
0
0
0
0
0
3.05494e-151
7.66789e-149
9.64245e-147
8.09978e-145
5.11311e-143
2.58732e-141
1.09318e-139
3.96689e-138
1.26204e-136
3.57599e-135
9.13732e-134
2.12667e-132
4.54616e-131
8.98825e-130
1.65337e-128
2.84411e-127
4.59556e-126
7.00235e-125
1.00964e-123
1.38181e-122
1.80008e-121
2.2376e-120
2.66014e-119
3.03077e-118
3.31551e-117
3.48858e-116
3.53624e-115
3.45837e-114
3.26763e-113
2.9866e-112
2.64375e-111
2.26905e-110
1.89016e-109
1.5297e-108
1.20383e-107
9.22038e-107
6.87878e-106
5.00249e-105
3.54886e-104
2.45765e-103
1.6625e-102
1.09922e-101
7.10801e-101
4.49773e-100
2.78648e-99
1.69106e-98
1.00581e-97
5.86579e-97
3.35576e-96
1.88405e-95
1.03852e-94
5.62247e-94
2.99086e-93
1.5638e-92
8.03959e-92
4.0654e-91
2.0227e-90
9.90504e-90
4.77538e-89
2.26734e-88
1.06048e-87
4.88752e-87
2.22018e-86
9.94289e-86
4.39108e-85
1.91279e-84
8.2206e-84
3.4864e-83
1.45944e-82
6.03141e-82
2.46132e-81
9.92022e-81
3.94968e-80
1.55372e-79
6.03998e-79
2.32074e-78
8.81499e-78
3.31052e-77
1.22948e-76
4.51612e-76
1.64097e-75
5.89915e-75
2.09845e-74
7.38743e-74
2.57414e-73
8.87928e-73
3.03241e-72
1.02546e-71
3.43424e-71
1.13913e-70
3.74286e-70
1.21835e-69
3.92946e-69
1.25584e-68
3.97761e-68
1.24867e-67
3.88561e-67
1.19867e-66
3.66621e-66
1.11187e-65
3.34388e-65
9.97361e-65
2.95053e-64
8.65834e-64
2.52055e-63
7.27983e-63
2.08617e-62
5.93226e-62
1.67405e-61
4.68845e-61
1.30329e-60
3.59612e-60
9.85024e-60
2.67862e-59
7.23201e-59
1.93876e-58
5.16103e-58
1.36436e-57
3.58205e-57
9.34058e-57
2.41928e-56
6.2244e-56
1.59087e-55
4.03951e-55
1.01907e-54
2.55442e-54
6.36232e-54
1.57471e-53
3.87326e-53
9.46817e-53
2.30036e-52
5.55505e-52
1.33343e-51
3.18172e-51
7.54728e-51
1.77983e-50
4.17298e-50
9.72788e-50
2.25484e-49
5.19712e-49
1.19118e-48
2.71508e-48
6.15459e-48
1.38754e-47
3.11133e-47
6.93933e-47
1.5395e-46
3.39745e-46
7.45857e-46
1.62895e-45
3.53937e-45
7.65119e-45
1.64565e-44
3.5218e-44
7.49949e-44
1.58911e-43
3.35082e-43
7.03133e-43
1.46835e-42
3.05173e-42
6.3125e-42
1.29961e-41
2.66314e-41
5.43202e-41
1.10289e-40
2.22905e-40
4.48475e-40
8.98266e-40
1.79115e-39
3.5558e-39
7.02799e-39
1.38302e-38
2.70986e-38
5.28683e-38
1.02705e-37
1.98675e-37
3.82709e-37
7.34142e-37
1.40246e-36
2.66815e-36
5.05538e-36
9.53968e-36
1.79293e-35
3.35623e-35
6.2577e-35
1.16215e-34
2.14983e-34
3.96147e-34
7.27157e-34
1.32963e-33
2.42201e-33
4.39515e-33
7.94577e-33
1.43111e-32
2.56802e-32
4.59114e-32
8.17803e-32
1.45143e-31
2.56667e-31
4.52255e-31
7.94045e-31
1.3892e-30
2.42189e-30
4.20746e-30
7.28409e-30
1.25669e-29
2.16066e-29
3.70221e-29
6.32212e-29
1.07597e-28
1.82506e-28
3.0854e-28
5.19883e-28
8.73114e-28
1.46156e-27
2.43865e-27
4.05582e-27
6.72379e-27
1.11112e-26
1.83035e-26
3.00562e-26
4.9201e-26
8.02896e-26
1.30617e-25
2.11837e-25
3.42512e-25
5.52111e-25
8.87286e-25
1.42165e-24
2.27104e-24
3.61714e-24
5.74409e-24
9.09495e-24
1.43585e-23
2.26026e-23
3.54773e-23
5.55259e-23
8.66561e-23
1.34856e-22
2.09273e-22
3.23844e-22
4.99741e-22
7.69039e-22
1.18019e-21
1.80618e-21
2.75667e-21
4.19592e-21
6.36937e-21
9.64268e-21
1.45592e-20
2.19242e-20
3.29277e-20
4.93237e-20
7.3691e-20
1.0981e-19
1.6321e-19
2.41953e-19
3.57771e-19
5.27682e-19
7.76315e-19
1.13922e-18
1.6676e-18
2.43495e-18
3.54659e-18
5.153e-18
7.46864e-18
1.07985e-17
1.5575e-17
2.241e-17
3.21671e-17
4.60618e-17
6.58016e-17
9.37785e-17
1.33335e-16
1.89134e-16
2.67658e-16
3.77904e-16
5.32328e-16
7.48133e-16
1.04902e-15
1.46758e-15
2.0485e-15
2.85292e-15
3.96434e-15
5.49645e-15
7.60377e-15
1.04958e-14
1.4456e-14
1.98669e-14
2.72436e-14
3.72786e-14
5.08999e-14
6.93493e-14
9.42844e-14
1.27913e-13
1.73169e-13
2.33943e-13
3.15385e-13
4.24292e-13
5.69624e-13
7.63158e-13
1.02035e-12
1.36142e-12
1.8128e-12
2.40896e-12
3.19471e-12
4.22825e-12
5.58499e-12
7.36241e-12
9.68628e-12
1.27186e-11
1.66673e-11
2.17995e-11
2.84565e-11
3.70747e-11
4.82098e-11
6.25692e-11
8.10507e-11
1.04792e-10
1.35231e-10
1.74184e-10
2.23937e-10
2.87364e-10
3.68072e-10
4.70575e-10
6.00518e-10
7.6494e-10
9.72605e-10
1.2344e-09
1.56383e-09
1.97762e-09
2.49642e-09
3.1457e-09
3.95681e-09
4.96827e-09
6.22732e-09
7.79175e-09
9.73221e-09
1.21348e-08
1.51044e-08
1.87684e-08
2.32812e-08
2.88298e-08
3.56402e-08
4.39849e-08
5.41921e-08
6.6656e-08
8.18499e-08
1.0034e-07
1.22804e-07
1.50049e-07
1.83038e-07
2.22916e-07
2.7104e-07
3.29021e-07
3.9876e-07
4.82507e-07
5.82909e-07
7.03082e-07
8.46688e-07
1.01802e-06
1.2221e-06
1.46479e-06
1.75295e-06
2.09454e-06
2.49884e-06
2.97659e-06
3.54026e-06
4.20426e-06
4.98523e-06
5.90233e-06
6.97765e-06
8.23651e-06
9.70801e-06
1.14254e-05
1.34267e-05
1.57554e-05
1.84609e-05
2.15994e-05
2.52347e-05
2.94393e-05
3.4295e-05
3.98943e-05
4.63415e-05
5.37541e-05
6.22642e-05
7.20199e-05
8.31873e-05
9.59521e-05
0.000110522
0.000127127
0.000146026
0.000167504
0.000191879
0.000219502
0.000250761
0.000286085
0.000325948
0.000370868
0.000421417
0.000478222
0.000541968
0.000613405
0.00069335
0.000782695
0.000882408
0.000993542
0.00111724
0.00125472
0.00140734
0.00157652
0.00176381
0.00197088
0.0021995
0.0024516
0.00272921
0.00303451
0.00336983
0.00373764
0.00414056
0.00458138
0.00506303
0.00558863
0.00616144
0.00678491
0.00746267
0.00819849
0.00899635
0.00986038
0.0107949
0.0118044
0.0128936
0.0140672
0.0153302
0.0166878
0.0181453
0.0197081
0.0213818
0.023172
0.0250846
0.0271253
0.0293003
0.0316155
0.0340771
0.0366911
0.0394637
0.042401
0.0455092
0.0487943
0.0522623
0.0559192
0.0597706
0.0638223
0.0680796
0.072548
0.0772324
0.0821376
0.0872683
0.0926285
0.0982224
0.104053
0.110125
0.116439
0.122999
0.129806
0.136862
0.144167
0.151723
0.159529
0.167585
0.175889
0.18444
0.193235
0.202272
0.211547
0.221055
0.230794
0.240756
0.250938
0.261331
0.271929
0.282725
0.293711
0.304878
0.316218
0.327719
0.339374
0.351171
0.363099
0.375148
0.387306
0.39956
0.411899
0.42431
0.436781
0.449299
0.461851
0.474424
0.487004
0.499579
0.512134
0.524658
0.537136
0.549556
0.561905
0.574169
0.586336
0.598394
0.61033
0.622132
0.633789
0.645289
0.656621
0.667774
0.678737
0.689501
0.700055
0.71039
0.720496
0.730366
0.73999
0.749362
0.758472
0.767313
0.77588
0.784165
0.792161
0.799864
0.807267
0.814365
0.821153
0.827627
0.833781
0.839613
0.845117
0.850291
0.85513
0.859632
0.863794
0.867612
0.871085
0.874209
0.876983
0.879405
0.881472
0.883183
0.884536
0.88553
0.886164
0.886436
)
;

boundaryField
{
    sides
    {
        type            zeroGradient;
    }
    empty
    {
        type            empty;
    }
}


// ************************************************************************* //
