/*--------------------------------*- C++ -*----------------------------------*\
  =========                 |
  \\      /  F ield         | OpenFOAM: The Open Source CFD Toolbox
   \\    /   O peration     | Website:  https://openfoam.org
    \\  /    A nd           | Version:  6
     \\/     M anipulation  |
\*---------------------------------------------------------------------------*/
FoamFile
{
    version     2.0;
    format      ascii;
    class       volScalarField;
    location    "58";
    object      p;
}
// * * * * * * * * * * * * * * * * * * * * * * * * * * * * * * * * * * * * * //

dimensions      [0 2 -2 0 0 0 0];

internalField   nonuniform List<scalar> 
918
(
0.530277
1.24109
0.00589606
0.530187
-0.0115352
1.20881
-0.502494
0.647786
0.511419
-0.127301
-0.0686998
0.512231
1.06583
0.83198
-1.17413
-0.0200754
0.626499
-0.423161
0.509437
-0.0722856
0.670381
0.518102
0.520568
0.511356
0.57498
0.787721
0.942586
-0.00395557
0.0100149
0.00496014
-0.0131205
-0.033741
-0.0292155
1.09197
1.14386
1.16703
0.477999
0.311006
-0.397712
-0.450092
-0.431865
-0.52082
0.64404
0.64217
-0.221763
0.65047
0.653899
0.497144
0.510813
0.511648
0.51278
0.511677
0.51296
0.385442
-0.136309
-0.163113
-0.110318
-0.108358
0.0339853
-0.0714456
-0.0740416
-0.0647988
-0.0642469
0.427192
0.507232
0.503991
0.516964
0.52669
1.18125
1.15507
1.18113
1.09143
1.10911
1.04291
1.0159
0.854459
0.877796
0.814901
0.803231
-1.63282
-2.58221
-0.595452
-0.317452
-0.0103932
-0.0205513
-0.0180911
0.621731
0.623878
0.625405
0.628947
1.0218
-0.395126
-0.466024
0.509956
0.508474
0.517625
0.518529
0.513487
0.513491
-0.0666197
-0.0629761
-0.0634393
-0.071083
-0.073038
0.662771
0.66239
0.510793
0.50824
0.535153
0.557561
0.545584
0.245908
0.583429
0.593906
0.648646
0.797359
0.78395
0.796412
0.917675
0.885432
0.974764
0.996464
0.0133643
-0.00123278
-0.0220514
-0.0208586
-0.021294
0.473742
0.467315
0.495068
0.481619
0.484659
0.215794
0.0649659
0.393518
0.417467
-0.319995
-0.367798
-0.462402
-0.459452
-0.565905
0.593562
0.639581
0.636682
-0.235379
-0.161526
-0.288642
-0.104469
-0.161122
0.488114
0.494352
0.490434
0.505793
0.499968
0.50239
0.51489
0.512066
0.513664
0.445615
0.575103
0.304134
0.279241
-0.286835
-0.180726
-0.266604
-0.0971288
-0.0923159
0.0452418
0.0738057
0.0213346
0.00885959
-0.0838245
-0.0758099
-0.0795674
-0.0640516
-0.0633655
0.418663
0.405667
0.438393
0.445896
0.494213
0.495688
0.500166
0.498117
0.967051
0.989689
0.99585
0.97202
-3.56251
-6.20012
0.0284773
0.18839
-0.00905379
-0.0100149
0.000462745
-0.00970208
-0.000199469
-0.00264713
-0.0250145
-0.0254238
-0.0200723
-0.0205144
0.61956
0.621135
0.987046
1.01996
0.968534
0.945667
0.499282
0.501177
0.505808
0.502689
-0.0635398
-0.0628497
-0.0645504
0.655508
0.660759
0.658954
0.204964
0.116653
0.297036
0.328078
0.614712
0.598224
0.611138
0.707961
0.746982
1.01336
1.03727
1.0216
1.03438
1.08518
1.10811
1.07299
0.452347
0.463249
0.457534
0.498136
0.495845
0.496843
0.493103
0.494139
0.492703
-0.0467874
-0.41974
0.469224
0.470289
0.460122
0.464431
0.679314
0.761815
0.627938
0.632882
0.632283
-0.0542521
-0.101392
0.237863
0.209345
0.358023
0.39245
0.374363
0.942264
0.90264
0.950552
0.925813
0.890761
0.914121
-0.356501
-2.12266
-1.11649
0.590319
0.392943
0.484709
-0.00750202
-0.0242175
-0.0205647
1.01356
1.05063
0.641809
0.824545
0.778975
0.773906
0.801805
0.859296
0.790913
0.825409
0.858048
0.836323
0.545319
0.478752
0.495292
0.837
0.891894
0.0798235
0.00234551
-0.0211285
0.0978352
0.167824
0.136296
1.02747
0.945127
1.00658
0.50848
0.509425
-0.017686
-0.0411972
0.513536
0.51325
-0.020637
-0.0107262
0.50194
-0.94325
0.0831979
0.503028
0.492732
0.509533
-0.108031
0.318111
-0.0717235
0.0180413
-0.0173717
0.505957
0.439435
0.397209
-0.00419798
-0.0282908
-0.0640618
-0.221283
0.506219
0.50458
0.508917
0.509737
0.51051
-0.0249634
-0.0255188
-0.0174953
-0.058865
-0.0559881
-0.0637412
0.47287
0.493048
-0.197541
0.509205
0.511306
0.511008
0.50518
0.510138
0.508752
-0.0202335
-0.0247498
-0.0265461
0.185592
0.32455
0.686255
0.762028
0.634755
0.467314
0.172165
0.622046
0.674782
0.599433
0.730846
0.635139
0.645416
0.150094
0.0080646
0.154323
0.0870283
0.499883
0.499293
0.490271
0.487145
0.504346
0.50202
0.507221
0.504427
0.507603
0.508764
-0.0629568
-0.0887539
-0.108474
-0.152047
0.282514
0.537882
0.220694
0.241456
0.148787
-0.0636092
-0.0621519
-0.0699694
-0.0737812
-0.0299615
-0.0343972
0.0119279
0.0190852
0.00208182
-0.0246322
-0.0365787
-0.0337227
-0.0406706
0.499177
0.498554
0.503715
0.512066
0.449018
0.452742
0.419116
0.437824
0.424047
0.364093
0.393903
0.371143
-0.0153061
-0.00451262
-0.00784979
-0.0278033
-0.0266824
-0.0483361
-0.0412266
-0.038828
-0.0353331
-0.0403092
-0.0589966
-0.0618604
-0.184934
-0.30373
0.928533
0.860904
0.130292
0.496131
0.501786
0.49896
0.503659
0.506862
0.5075
0.505077
0.501569
0.493123
0.494504
0.491432
0.492512
-0.137725
-0.245902
-0.076091
-0.150398
0.138432
0.606143
0.332095
0.277658
0.262816
0.488136
0.69385
0.608206
0.668523
0.655514
-0.400339
0.00518087
-0.331727
0.215869
0.207397
0.710959
0.754162
0.772549
0.728689
0.684432
-0.0361149
0.539719
-0.0763911
-0.0266425
0.163
0.0491308
0.643908
0.617732
0.623143
0.639612
0.650166
0.631493
0.615876
0.609875
0.63487
0.638549
0.487327
0.214232
0.172282
0.126062
0.61271
0.511825
0.563279
0.480466
0.495495
0.49792
0.496854
0.477661
0.485029
0.480691
0.487881
0.491543
0.498853
0.49906
0.494939
0.496827
-0.0794821
-0.0855159
-0.0689595
-0.135171
-0.139477
-0.185555
-0.0896171
0.0746763
0.023116
0.229536
0.360412
0.0533729
-0.059915
-0.0426578
0.00699884
0.159861
0.16961
0.0497112
0.156528
0.113513
0.108324
0.193445
0.217078
-0.0463403
-0.0515005
-0.052748
-0.05745
-0.00594672
0.0993176
0.0805084
-0.0220849
-0.029761
-0.0592141
-0.0607987
-0.0175277
-0.0404619
-0.0342713
-0.00885415
-0.0558845
-0.029936
-0.0194707
-0.0224393
-0.0249143
-0.02376
0.492539
0.494741
0.494693
0.501347
0.514435
0.527994
0.496104
0.470266
0.461268
0.464381
0.437392
0.446648
0.441836
0.457607
0.479139
0.488477
0.485879
0.488643
0.470497
0.472291
0.457637
0.462217
0.431354
0.412815
0.402693
-0.0525629
-0.0190058
-0.0326263
-0.0460262
-0.0201712
-0.0300155
-0.0263119
-0.00814995
-0.0265334
-0.0231444
-0.0328257
-0.0383026
-0.039097
-0.0879901
-0.00541796
-0.185444
-0.23586
-0.288033
0.866151
1.00519
0.785951
0.579229
0.594153
0.809971
0.917053
0.537513
0.698838
0.743555
0.563604
0.849347
0.50003
0.499644
0.497529
0.496714
0.497676
-0.0269892
0.0766285
0.0900354
0.147738
0.263168
0.369093
0.299184
0.186291
0.318884
0.343342
0.603829
0.609996
0.565235
0.587487
0.584802
0.399545
0.479907
0.518564
0.474529
0.548324
0.581735
0.528014
0.571313
0.490996
0.441438
0.432953
0.388624
0.42281
0.404014
0.378436
0.491039
0.46816
0.478852
0.468595
0.489514
0.51664
0.516332
0.535052
0.555081
0.470408
0.416984
0.433981
0.462261
0.418292
0.43522
0.457144
0.172579
0.0758687
0.23883
-0.0900387
-0.00280386
0.0357765
-0.0064674
-0.0493594
0.257602
-0.381903
-0.327945
-1.00678
0.482188
0.84217
0.59652
0.608592
0.649789
0.63501
0.644763
0.652995
0.657443
0.601707
0.611426
0.616073
0.588636
0.613242
0.613106
0.620647
0.491433
0.394124
0.393564
0.328243
0.18865
0.228892
0.421185
0.352897
0.277878
0.270249
0.441783
0.308473
0.386594
0.439154
0.364247
0.298927
0.526471
0.571622
0.562949
0.536579
0.421682
0.454672
0.458227
0.506864
0.549522
0.575432
0.486467
0.492788
0.493712
0.490968
0.489265
0.492397
0.492666
0.494945
0.495194
0.497762
0.497197
-0.0680069
-0.0562195
-0.0727736
-0.0772333
-0.0305175
-0.0386358
-0.00924035
-0.0297674
-0.0323383
-0.0289896
-0.0499958
-0.0624526
-0.058294
-0.0469587
0.0694538
0.0895037
0.0867671
0.0442701
0.221872
0.407614
0.467934
0.335045
0.184149
0.206794
0.296673
0.00156774
0.00930269
-0.00649116
0.0547126
0.039217
-0.052834
-0.0569092
-0.0556396
-0.0450432
-0.0374102
-0.0584544
-0.0565032
-0.0464887
-0.0546056
-0.0583124
-0.0604766
0.471936
0.464821
0.468467
0.460816
0.458981
0.476008
0.480536
0.48173
0.487319
0.490061
0.479409
0.485532
0.489719
-0.0272116
-0.0440325
-0.0450297
-0.0411412
-0.0406484
-0.0399388
-0.0433929
0.115683
0.0213434
0.0584656
-0.0137894
-0.139973
-0.0809341
0.48796
0.483576
0.473743
0.705393
0.542591
0.461808
0.56091
0.680016
0.26284
0.460936
0.296216
0.871365
0.778122
0.922547
0.540248
0.241293
0.406969
0.417008
0.259148
0.382553
0.329357
0.205523
0.241
0.273805
0.356488
0.243146
0.22236
-0.0193666
0.160998
0.271152
0.253427
0.380575
0.437785
0.250395
0.166726
0.113971
0.585384
0.601587
0.609637
0.581226
0.601906
0.563357
0.550931
0.564397
0.573424
0.575796
-0.642049
-0.230256
-1.43081
-0.841954
-0.390802
0.50976
0.506581
0.73687
0.642976
0.666339
0.650013
0.590126
0.558282
0.603917
0.620111
0.318157
0.404062
0.390546
0.366799
0.312404
0.254888
0.526127
0.535045
0.558178
0.584043
0.559392
0.586394
0.485177
0.485029
0.483723
0.479991
0.478509
0.481753
0.0262051
-0.00139072
0.0347977
0.0200664
-0.00769453
-0.0114323
-0.0307808
-0.0419203
-0.0408797
-0.0383077
-0.0296753
-0.0281276
0.159153
0.0985853
0.0100696
0.0521184
-0.0143023
-0.0976051
-0.0983189
-0.00901162
0.0916512
0.0735829
0.379328
0.643497
0.470525
0.643999
0.441327
0.543568
0.456005
0.428989
0.45756
0.359799
0.449549
0.0309452
-0.169101
-0.225001
0.807332
0.766222
0.548502
0.302088
0.185773
0.480665
0.508342
0.468947
0.494056
0.54632
0.526272
0.00552011
0.0962342
0.176262
0.483086
0.266178
0.283354
0.274562
0.438166
0.409652
)
;

boundaryField
{
    wall-4
    {
        type            zeroGradient;
    }
    velocity-inlet-5
    {
        type            zeroGradient;
    }
    velocity-inlet-6
    {
        type            zeroGradient;
    }
    pressure-outlet-7
    {
        type            fixedValue;
        value           uniform 0;
    }
    wall-8
    {
        type            zeroGradient;
    }
    frontAndBackPlanes
    {
        type            empty;
    }
}


// ************************************************************************* //
