/*--------------------------------*- C++ -*----------------------------------*\
  =========                 |
  \\      /  F ield         | OpenFOAM: The Open Source CFD Toolbox
   \\    /   O peration     | Website:  https://openfoam.org
    \\  /    A nd           | Version:  6
     \\/     M anipulation  |
\*---------------------------------------------------------------------------*/
FoamFile
{
    version     2.0;
    format      ascii;
    class       volVectorField;
    location    "87.7";
    object      U;
}
// * * * * * * * * * * * * * * * * * * * * * * * * * * * * * * * * * * * * * //

dimensions      [0 1 -1 0 0 0 0];

internalField   nonuniform List<vector> 
8800
(
(0.987184 -0.0766653 0)
(1.00189 -0.0551901 0)
(0.999724 -0.0285479 0)
(1.00003 -0.0151424 0)
(1.0001 -0.00854275 0)
(1.00012 -0.00504407 0)
(1.00008 -0.0029984 0)
(1.00002 -0.00169817 0)
(0.999993 -0.000792233 0)
(1.00006 -7.71034e-05 0)
(0.999959 0.000654867 0)
(0.99999 0.00142376 0)
(1.00005 0.00243554 0)
(1.00006 0.00400237 0)
(1.00005 0.00663507 0)
(1.00004 0.0113737 0)
(0.999941 0.0208165 0)
(0.999168 0.0386712 0)
(1.0071 0.0724576 0)
(0.771214 0.0366616 0)
(0.363077 -0.0160167 0)
(1.04332 -0.076813 0)
(1.0846 -0.0704422 0)
(1.04519 -0.0535361 0)
(1.02329 -0.0388862 0)
(1.01203 -0.0262068 0)
(1.00643 -0.0168437 0)
(1.00359 -0.0103099 0)
(1.00215 -0.00564731 0)
(1.00144 -0.00198575 0)
(1.00128 0.0013364 0)
(1.00165 0.00472377 0)
(1.00267 0.00865294 0)
(1.00468 0.013973 0)
(1.0086 0.0216798 0)
(1.01656 0.0326464 0)
(1.0325 0.0465581 0)
(1.06267 0.0616738 0)
(1.09187 0.0761042 0)
(0.838666 0.0565636 0)
(0.216863 -0.00242902 0)
(1.07591 -0.0501271 0)
(1.09989 -0.0482976 0)
(1.06465 -0.0404467 0)
(1.04004 -0.0335842 0)
(1.02392 -0.0260577 0)
(1.01413 -0.0184689 0)
(1.00856 -0.0116422 0)
(1.00558 -0.00576731 0)
(1.00431 -0.000343966 0)
(1.00463 0.00490488 0)
(1.00659 0.0102981 0)
(1.01063 0.0163692 0)
(1.01794 0.0233839 0)
(1.03052 0.030847 0)
(1.05062 0.037872 0)
(1.08036 0.0445526 0)
(1.10626 0.0513626 0)
(0.942503 0.0416263 0)
(0.216125 0.00246261 0)
(0.175203 -0.000815545 0)
(1.01774 -0.0354709 0)
(1.10522 -0.0413575 0)
(1.07828 -0.0360353 0)
(1.05348 -0.0300939 0)
(1.03622 -0.02451 0)
(1.02402 -0.0187719 0)
(1.01589 -0.012681 0)
(1.01101 -0.00648263 0)
(1.00879 -0.000139518 0)
(1.00934 0.00611999 0)
(1.01263 0.0121206 0)
(1.01888 0.0179276 0)
(1.02876 0.0234888 0)
(1.04318 0.0287848 0)
(1.0637 0.0342598 0)
(1.09356 0.0402388 0)
(1.09339 0.041992 0)
(0.827066 0.0229276 0)
(0.173958 0.000854429 0)
(0.15402 -0.000609274 0)
(0.956277 -0.0254386 0)
(1.1035 -0.0350937 0)
(1.08771 -0.032607 0)
(1.06176 -0.0279443 0)
(1.04414 -0.0229086 0)
(1.03167 -0.0176476 0)
(1.02281 -0.0121003 0)
(1.01697 -0.00614906 0)
(1.0141 0.000331922 0)
(1.01475 0.00679934 0)
(1.01875 0.0126832 0)
(1.0258 0.0179407 0)
(1.03607 0.0228411 0)
(1.05062 0.0275932 0)
(1.07185 0.0321123 0)
(1.10005 0.0360372 0)
(1.06801 0.0340795 0)
(0.739367 0.0143343 0)
(0.152141 0.000653427 0)
(0.139672 -0.000465276 0)
(0.899454 -0.0190489 0)
(1.09587 -0.0300281 0)
(1.0958 -0.0291215 0)
(1.06931 -0.025376 0)
(1.05087 -0.0212202 0)
(1.03793 -0.016428 0)
(1.0288 -0.0111201 0)
(1.02266 -0.00535576 0)
(1.01949 0.000987537 0)
(1.02007 0.00730707 0)
(1.02419 0.0129407 0)
(1.03136 0.0178587 0)
(1.04183 0.0223038 0)
(1.05694 0.02626 0)
(1.07913 0.0297064 0)
(1.10222 0.0323181 0)
(1.03582 0.0281889 0)
(0.672673 0.0102397 0)
(0.137016 0.000516206 0)
(0.129163 -0.000359569 0)
(0.849976 -0.0146772 0)
(1.08355 -0.0258759 0)
(1.10152 -0.0261445 0)
(1.0762 -0.0228397 0)
(1.05723 -0.0191743 0)
(1.04383 -0.0149029 0)
(1.03434 -0.00995099 0)
(1.02794 -0.00439144 0)
(1.02457 0.00177721 0)
(1.02499 0.00788653 0)
(1.02906 0.0132441 0)
(1.03633 0.0177409 0)
(1.04707 0.0215776 0)
(1.06258 0.0248658 0)
(1.08521 0.0277876 0)
(1.10126 0.0295218 0)
(1.00076 0.0236993 0)
(0.620664 0.00788502 0)
(0.125559 0.000419489 0)
(0.12116 -0.000278502 0)
(0.807986 -0.0115081 0)
(1.06838 -0.0222422 0)
(1.10511 -0.0234739 0)
(1.0825 -0.0205759 0)
(1.06311 -0.0171193 0)
(1.04943 -0.013148 0)
(1.03965 -0.008526 0)
(1.03296 -0.00323031 0)
(1.02932 0.00272576 0)
(1.02955 0.0085896 0)
(1.03357 0.0136 0)
(1.04089 0.0176137 0)
(1.05171 0.0209395 0)
(1.06743 0.0238128 0)
(1.09039 0.0264296 0)
(1.09739 0.027259 0)
(0.965279 0.0201912 0)
(0.578779 0.00636215 0)
(0.116404 0.000349783 0)
(0.114979 -0.000214812 0)
(0.772712 -0.00913245 0)
(1.05176 -0.0190358 0)
(1.10757 -0.0209928 0)
(1.08842 -0.0184578 0)
(1.06865 -0.0151386 0)
(1.05472 -0.0113211 0)
(1.04474 -0.00690007 0)
(1.03779 -0.00183563 0)
(1.03386 0.00387587 0)
(1.03384 0.00944435 0)
(1.03772 0.0140778 0)
(1.04496 0.0176586 0)
(1.05576 0.0205938 0)
(1.07167 0.0231376 0)
(1.09428 0.0254023 0)
(1.09063 0.025405 0)
(0.930662 0.0175005 0)
(0.54399 0.00532915 0)
(0.108821 0.00030007 0)
(0.110184 -0.000163364 0)
(0.743221 -0.00728286 0)
(1.03477 -0.0161851 0)
(1.10911 -0.0186439 0)
(1.09407 -0.0164057 0)
(1.07402 -0.0131698 0)
(1.05982 -0.00943096 0)
(1.04964 -0.00511987 0)
(1.04245 -0.000218283 0)
(1.0382 0.00526034 0)
(1.03786 0.0105199 0)
(1.0415 0.0147941 0)
(1.04858 0.0179897 0)
(1.05931 0.0205766 0)
(1.07541 0.0228248 0)
(1.09685 0.0247021 0)
(1.08138 0.0239166 0)
(0.897454 0.0154781 0)
(0.514232 0.00461701 0)
(0.102325 0.000265659 0)
(0.106497 -0.000120364 0)
(0.7187 -0.00578493 0)
(1.01824 -0.0136178 0)
(1.10986 -0.0163629 0)
(1.09965 -0.0143856 0)
(1.07933 -0.0111506 0)
(1.06483 -0.00742917 0)
(1.05441 -0.00316625 0)
(1.04695 0.00163467 0)
(1.04234 0.00692447 0)
(1.0416 0.0119 0)
(1.04492 0.0158389 0)
(1.05178 0.0186648 0)
(1.06243 0.0209139 0)
(1.07869 0.0228893 0)
(1.09804 0.0243431 0)
(1.06998 0.0227957 0)
(0.865748 0.0140086 0)
(0.488038 0.00413581 0)
(0.0965716 0.000243557 0)
(0.10373 -8.28199e-05 0)
(0.698516 -0.00452204 0)
(1.00279 -0.0112651 0)
(1.10997 -0.0141128 0)
(1.10509 -0.012311 0)
(1.08466 -0.00902697 0)
(1.06984 -0.00526154 0)
(1.05914 -0.000984142 0)
(1.05135 0.00377503 0)
(1.0463 0.00892921 0)
(1.04507 0.013656 0)
(1.048 0.017276 0)
(1.05459 0.0197365 0)
(1.06513 0.0216557 0)
(1.08151 0.0233603 0)
(1.09815 0.0244521 0)
(1.05668 0.0220566 0)
(0.835347 0.0130079 0)
(0.464293 0.00383125 0)
(0.0912957 0.000231371 0)
(0.101767 -4.80208e-05 0)
(0.68221 -0.00340654 0)
(0.988887 -0.00905538 0)
(1.10968 -0.0118047 0)
(1.11039 -0.0100974 0)
(1.0901 -0.00673435 0)
(1.07493 -0.00286211 0)
(1.0639 0.0014972 0)
(1.0557 0.00627855 0)
(1.05012 0.0113487 0)
(1.04829 0.0158593 0)
(1.05076 0.0191771 0)
(1.05703 0.0212697 0)
(1.06741 0.0228545 0)
(1.08381 0.0242699 0)
(1.09732 0.0249223 0)
(1.04161 0.0217091 0)
(0.80588 0.0124018 0)
(0.442114 0.00366512 0)
(0.0862886 0.000227019 0)
(0.10055 -1.36894e-05 0)
(0.66949 -0.00236829 0)
(0.976896 -0.00691315 0)
(1.10932 -0.00938168 0)
(1.11568 -0.00768439 0)
(1.09573 -0.00419774 0)
(1.08017 -0.000152561 0)
(1.06875 0.00435989 0)
(1.06005 0.00923167 0)
(1.05382 0.0142746 0)
(1.05129 0.0186016 0)
(1.05318 0.0216264 0)
(1.05907 0.0233434 0)
(1.06927 0.0245881 0)
(1.08564 0.0257094 0)
(1.09519 0.0258518 0)
(1.02478 0.0217571 0)
(0.776878 0.0121423 0)
(0.420779 0.00361296 0)
(0.0813838 0.000229183 0)
(0.100071 2.28985e-05 0)
(0.660213 -0.001351 0)
(0.96714 -0.00476537 0)
(1.1092 -0.00678149 0)
(1.12112 -0.00499731 0)
(1.10164 -0.00132681 0)
(1.08566 0.00296523 0)
(1.07377 0.00770592 0)
(1.06447 0.0127413 0)
(1.05746 0.0178151 0)
(1.05406 0.0219877 0)
(1.05528 0.0247271 0)
(1.06071 0.0260679 0)
(1.07068 0.0269497 0)
(1.08693 0.0277402 0)
(1.09167 0.0272805 0)
(1.0061 0.0222429 0)
(0.74781 0.0122053 0)
(0.39967 0.00366147 0)
(0.0764411 0.000237202 0)
(0.100341 5.51829e-05 0)
(0.654367 -0.000297702 0)
(0.959929 -0.00253634 0)
(1.1097 -0.00393516 0)
(1.12687 -0.00195069 0)
(1.10795 0.00197941 0)
(1.0915 0.00659815 0)
(1.07904 0.0116503 0)
(1.06902 0.0169291 0)
(1.06106 0.0220976 0)
(1.05663 0.0261481 0)
(1.05703 0.0286035 0)
(1.06193 0.0295661 0)
(1.07161 0.0300598 0)
(1.08738 0.0304708 0)
(1.08642 0.0292966 0)
(0.985348 0.0232039 0)
(0.718074 0.0125757 0)
(0.378221 0.0038014 0)
(0.0713347 0.000250241 0)
(0.101452 0.000109481 0)
(0.652095 0.000837522 0)
(0.955583 -0.000146962 0)
(1.11117 -0.000762854 0)
(1.13313 0.00155384 0)
(1.11476 0.00583747 0)
(1.0978 0.0108786 0)
(1.08467 0.0163385 0)
(1.07376 0.0219478 0)
(1.06466 0.0272759 0)
(1.059 0.0312308 0)
(1.05843 0.0333919 0)
(1.06269 0.0339656 0)
(1.07201 0.0340497 0)
(1.08685 0.0340397 0)
(1.07922 0.0319745 0)
(0.962157 0.0246749 0)
(0.687006 0.0132432 0)
(0.355897 0.00402307 0)
(0.0659549 0.000267332 0)
(0.103546 0.000162018 0)
(0.653629 0.00195497 0)
(0.954465 0.00248958 0)
(1.1141 0.00283882 0)
(1.14011 0.00562864 0)
(1.12224 0.0103975 0)
(1.10469 0.0159731 0)
(1.09075 0.0219496 0)
(1.07877 0.0279848 0)
(1.06828 0.0335325 0)
(1.06115 0.0374065 0)
(1.05944 0.039239 0)
(1.06295 0.0394189 0)
(1.07182 0.0390601 0)
(1.0851 0.0385414 0)
(1.06972 0.0354174 0)
(0.936025 0.0267016 0)
(0.653889 0.0141992 0)
(0.332203 0.0043175 0)
(0.06021 0.000287378 0)
(0.106722 0.000226032 0)
(0.65956 0.00343756 0)
(0.95695 0.00541493 0)
(1.11895 0.00701423 0)
(1.14809 0.010425 0)
(1.13057 0.0158353 0)
(1.11233 0.0220757 0)
(1.0974 0.0286948 0)
(1.08412 0.0352579 0)
(1.07196 0.0410873 0)
(1.06309 0.0448788 0)
(1.06006 0.0463593 0)
(1.06264 0.0461101 0)
(1.07098 0.0452625 0)
(1.08211 0.0441637 0)
(1.05746 0.0397453 0)
(0.906277 0.0293199 0)
(0.617939 0.0154277 0)
(0.306674 0.00467043 0)
(0.0540297 0.000308783 0)
(0.111265 0.000313242 0)
(0.670248 0.00517468 0)
(0.963666 0.00893375 0)
(1.12621 0.0119254 0)
(1.15736 0.0161542 0)
(1.13998 0.0223957 0)
(1.12089 0.0294599 0)
(1.10475 0.0368597 0)
(1.08986 0.0440477 0)
(1.07569 0.0501924 0)
(1.06476 0.0538667 0)
(1.06017 0.0549539 0)
(1.06172 0.0542343 0)
(1.06941 0.0528445 0)
(1.07779 0.0510499 0)
(1.04184 0.0450602 0)
(0.872059 0.0325401 0)
(0.578335 0.0168896 0)
(0.278915 0.00505767 0)
(0.0473777 0.00032904 0)
(0.117536 0.000427323 0)
(0.68644 0.00733863 0)
(0.975261 0.0131835 0)
(1.13647 0.017796 0)
(1.1683 0.0230748 0)
(1.15075 0.0304064 0)
(1.13059 0.0384772 0)
(1.11293 0.0468033 0)
(1.09604 0.0546963 0)
(1.07944 0.0611509 0)
(1.06611 0.0646311 0)
(1.05963 0.0652168 0)
(1.06013 0.0639889 0)
(1.06718 0.0620049 0)
(1.07184 0.059381 0)
(1.02202 0.0514355 0)
(0.832331 0.0363279 0)
(0.534256 0.0185062 0)
(0.248657 0.00544118 0)
(0.0402691 0.000344841 0)
(0.126054 0.000589513 0)
(0.709166 0.01017 0)
(0.992577 0.0184683 0)
(1.15039 0.0249752 0)
(1.1814 0.0315749 0)
(1.16321 0.0403131 0)
(1.14165 0.0495986 0)
(1.12201 0.0589884 0)
(1.10264 0.0676182 0)
(1.08314 0.074304 0)
(1.06704 0.0774385 0)
(1.05845 0.077382 0)
(1.05781 0.0755736 0)
(1.06403 0.0728903 0)
(1.06373 0.0691883 0)
(0.996916 0.0589001 0)
(0.785873 0.04056 0)
(0.48498 0.0201407 0)
(0.215849 0.00576574 0)
(0.0327899 0.000352047 0)
(0.137597 0.000823728 0)
(0.739765 0.0140416 0)
(1.01678 0.0252563 0)
(1.16876 0.0340112 0)
(1.19731 0.0422623 0)
(1.17775 0.0528085 0)
(1.15425 0.0635233 0)
(1.13204 0.0740526 0)
(1.10957 0.0833293 0)
(1.08662 0.0900121 0)
(1.0674 0.0925311 0)
(1.05654 0.0916603 0)
(1.05476 0.0892415 0)
(1.05963 0.0857185 0)
(1.05263 0.0806761 0)
(0.965089 0.0673478 0)
(0.731359 0.0449746 0)
(0.430058 0.0215781 0)
(0.18078 0.00595879 0)
(0.0251164 0.000346193 0)
(0.153459 0.0011925 0)
(0.780262 0.0196029 0)
(1.04955 0.0343496 0)
(1.19256 0.0458514 0)
(1.21691 0.0564705 0)
(1.19473 0.068957 0)
(1.16847 0.0812293 0)
(1.14286 0.092795 0)
(1.11656 0.102413 0)
(1.08963 0.108666 0)
(1.06698 0.110157 0)
(1.05375 0.108213 0)
(1.05087 0.105083 0)
(1.05377 0.100792 0)
(1.03747 0.0938027 0)
(0.924689 0.076459 0)
(0.667541 0.0491337 0)
(0.369596 0.0225228 0)
(0.144214 0.00593961 0)
(0.0175247 0.000323354 0)
(0.175867 0.00183018 0)
(0.833872 0.0279943 0)
(1.0937 0.0473119 0)
(1.22288 0.0623768 0)
(1.24065 0.0759232 0)
(1.21424 0.0904065 0)
(1.18404 0.104058 0)
(1.15403 0.116174 0)
(1.12316 0.125471 0)
(1.09178 0.130587 0)
(1.0655 0.130476 0)
(1.04989 0.127126 0)
(1.04595 0.123131 0)
(1.04637 0.117824 0)
(1.01663 0.108331 0)
(0.873427 0.0856269 0)
(0.593686 0.0523812 0)
(0.304698 0.0226372 0)
(0.107517 0.00563822 0)
(0.0103857 0.000280627 0)
(0.20827 0.00323763 0)
(0.906431 0.0419344 0)
(1.1524 0.0680193 0)
(1.26006 0.0871305 0)
(1.26834 0.103651 0)
(1.23564 0.119591 0)
(1.20011 0.13367 0)
(1.16473 0.145194 0)
(1.12869 0.153034 0)
(1.09258 0.155997 0)
(1.06268 0.153565 0)
(1.04479 0.148409 0)
(1.03987 0.143413 0)
(1.03666 0.13688 0)
(0.987767 0.123685 0)
(0.808698 0.0938071 0)
(0.510517 0.0539177 0)
(0.238213 0.0217035 0)
(0.0728243 0.00504027 0)
(0.00418901 0.000215969 0)
(0.252476 0.00961461 8.83478e-21)
(1.00179 0.0695404 7.59358e-21)
(1.22325 0.103212 -2.66034e-21)
(1.30116 0.123966 0)
(1.29703 0.143376 -6.86579e-35)
(1.2567 0.158898 1.00604e-21)
(1.2151 0.171582 -1.82685e-21)
(1.17387 0.181057 0)
(1.13237 0.186367 3.79946e-35)
(1.09132 0.186424 -2.30313e-21)
(1.05764 0.181254 0)
(1.03752 0.174276 -2.7655e-21)
(1.03225 0.168743 -8.18384e-21)
(1.02271 0.161402 -3.88257e-21)
(0.945303 0.141961 -1.17148e-21)
(0.722921 0.101423 -6.96283e-22)
(0.413154 0.0535615 0)
(0.169528 0.0200034 4.87239e-22)
(0.0403098 0.00430072 5.77014e-22)
(-0.00112804 0.000105099 1.05488e-20)
(0.283266 0.0252239 6.09348e-21)
(1.08096 0.113212 1.1627e-22)
(1.28168 0.153347 6.91497e-22)
(1.33845 0.174052 0)
(1.32239 0.193573 -3.41183e-21)
(1.27502 0.207018 -3.90002e-21)
(1.22747 0.2175 -1.82426e-21)
(1.18045 0.224657 -6.54438e-21)
(1.13342 0.227485 0)
(1.08723 0.224843 9.73288e-21)
(1.04957 0.217243 9.6984e-21)
(1.02692 0.208627 2.88646e-21)
(1.01883 0.201815 1.06028e-20)
(0.996119 0.191268 1.49941e-20)
(0.87539 0.161741 0)
(0.603524 0.107402 2.11531e-20)
(0.300104 0.051769 3.03375e-20)
(0.100083 0.0172155 3.37551e-20)
(0.00932722 0.00239868 -3.87171e-20)
(-0.005999 -0.000470029 -7.38687e-22)
(0.285018 0.0427376 0)
(1.13187 0.169622 9.59382e-22)
(1.3218 0.214634 0)
(1.36777 0.235046 -4.2057e-21)
(1.34259 0.251592 0)
(1.28931 0.261132 -7.52115e-21)
(1.23622 0.267906 3.68446e-21)
(1.18374 0.271566 -1.30257e-20)
(1.13155 0.270989 -3.27165e-22)
(1.08064 0.264954 4.98705e-21)
(1.03945 0.254481 2.12418e-20)
(1.01467 0.244031 -2.81364e-23)
(1.00325 0.23544 -7.68019e-21)
(0.966052 0.22068 -1.40194e-20)
(0.80865 0.179429 1.66276e-20)
(0.511838 0.111222 -2.94312e-20)
(0.229582 0.0495033 -3.87634e-21)
(0.0611677 0.014292 0)
(-0.00717078 1.76878e-05 -3.60462e-24)
(-0.00848032 -0.00117818 0)
(0.278422 0.0574013 1.01773e-20)
(1.15998 0.22977 -5.29295e-21)
(1.34715 0.280574 -4.49905e-21)
(1.3875 0.301327 1.91299e-21)
(1.35609 0.313897 -3.22431e-21)
(1.29844 0.318851 1.55927e-20)
(1.24085 0.321163 7.60326e-21)
(1.18374 0.320586 0)
(1.12704 0.315934 -2.46617e-20)
(1.07199 0.305931 0)
(1.02775 0.292165 -1.1047e-20)
(1.00113 0.279598 -1.37597e-20)
(0.986267 0.268791 -8.31292e-21)
(0.935523 0.248754 -1.01337e-20)
(0.751196 0.195566 0)
(0.446568 0.115438 0)
(0.184968 0.0487768 -2.50927e-20)
(0.0360944 0.0116532 4.95257e-21)
(-0.0186524 -0.00268901 -2.91871e-21)
(-0.0103673 -0.00199613 -3.45757e-21)
(0.27034 0.0702108 -2.09818e-21)
(1.17275 0.289777 0)
(1.36149 0.347459 8.10756e-21)
(1.39866 0.368907 5.09305e-21)
(1.36298 0.37752 7.55357e-21)
(1.30219 0.37786 0)
(1.24115 0.375556 7.28948e-21)
(1.18032 0.370477 1.41986e-20)
(1.11985 0.361406 1.2506e-20)
(1.06128 0.347065 2.32353e-20)
(1.01444 0.329682 0)
(0.986232 0.314699 -2.9459e-20)
(0.968093 0.301271 -1.78018e-20)
(0.905945 0.275184 -1.05376e-20)
(0.703744 0.210873 6.46726e-20)
(0.401087 0.120522 7.67033e-21)
(0.155951 0.0488894 3.61268e-20)
(0.0182288 0.00882344 -1.70785e-19)
(-0.0282595 -0.00591232 1.0115e-19)
(-0.0122425 -0.002969 -1.2347e-19)
(0.262342 0.0816427 1.4795e-21)
(1.17556 0.347659 2.98128e-22)
(1.36774 0.413353 -6.17597e-22)
(1.40294 0.435825 -4.36268e-21)
(1.36423 0.440714 -5.89388e-21)
(1.3011 0.436586 3.59157e-22)
(1.23739 0.429768 -7.88098e-21)
(1.17358 0.4202 1.45085e-20)
(1.11001 0.406627 -2.67787e-20)
(1.04842 0.387768 0)
(0.999351 0.36653 -1.32837e-20)
(0.969776 0.34882 -3.0348e-22)
(0.948686 0.332416 -1.94113e-20)
(0.877681 0.300123 0)
(0.665416 0.225484 -1.39387e-20)
(0.369703 0.126313 -3.30059e-20)
(0.136398 0.0494082 8.77834e-20)
(0.004571 0.00566584 -8.6439e-20)
(-0.0369548 -0.00970224 1.22876e-19)
(-0.0142398 -0.00413104 -1.29293e-19)
(0.255312 0.0920803 -1.12542e-22)
(1.17198 0.402682 6.49032e-22)
(1.36807 0.477198 -3.87458e-22)
(1.40181 0.500963 1.36581e-21)
(1.36089 0.502464 -2.87083e-21)
(1.29601 0.494104 0)
(1.23019 0.482974 -7.12716e-21)
(1.16392 0.469058 -1.50923e-20)
(1.09771 0.451033 -1.38291e-20)
(1.03351 0.427611 0)
(0.98246 0.402336 -1.36196e-20)
(0.951679 0.381649 -1.69662e-20)
(0.928109 0.361985 2.09425e-20)
(0.850758 0.323381 -1.27382e-20)
(0.634576 0.239393 -6.03114e-20)
(0.348091 0.132537 3.56937e-20)
(0.123249 0.0499956 1.0557e-20)
(-0.00594315 0.00215049 0)
(-0.0448908 -0.0140251 -1.17916e-19)
(-0.0164089 -0.00550951 -4.37359e-21)
(0.249442 0.10187 9.30478e-22)
(1.16434 0.454654 -1.29842e-21)
(1.364 0.538441 -9.43603e-23)
(1.39649 0.563658 5.33947e-21)
(1.35393 0.562136 -9.83065e-21)
(1.28774 0.549863 1.34557e-20)
(1.2202 0.534688 1.53118e-20)
(1.15185 0.516632 -2.40457e-20)
(1.08332 0.49428 8.63476e-21)
(1.01676 0.46632 -5.65483e-20)
(0.963893 0.436903 -1.54351e-20)
(0.932004 0.413005 0)
(0.906347 0.389801 2.2643e-20)
(0.824871 0.344906 2.71265e-20)
(0.609183 0.252693 3.23924e-20)
(0.333 0.138802 -3.85356e-20)
(0.114613 0.0505114 -1.13872e-20)
(-0.0132643 -0.00154618 1.34019e-20)
(-0.0513623 -0.0186185 0)
(-0.0185516 -0.00705593 -9.44063e-21)
(0.244659 0.111095 -1.49159e-20)
(1.1544 0.503635 8.04392e-21)
(1.35682 0.59699 4.82015e-22)
(1.388 0.623574 2.67553e-21)
(1.34415 0.61935 -3.96596e-21)
(1.27698 0.603503 -8.43716e-22)
(1.20804 0.584612 -1.67836e-20)
(1.1379 0.562677 -8.709e-21)
(1.06727 0.536186 -2.39788e-20)
(0.998502 0.503766 5.65526e-23)
(0.9439 0.470179 -4.81092e-20)
(0.910884 0.442846 4.08506e-20)
(0.883412 0.415923 -2.4819e-20)
(0.79952 0.36485 2.97784e-20)
(0.587265 0.265333 0)
(0.321754 0.145132 -2.08635e-20)
(0.109392 0.051232 4.8986e-23)
(-0.0172463 -0.00488125 -5.8148e-20)
(-0.0556745 -0.0229781 -8.58019e-21)
(-0.0203278 -0.00862205 0)
(0.240919 0.120024 0)
(1.14321 0.549866 9.34319e-21)
(1.34741 0.652999 3.45018e-21)
(1.37717 0.680535 -1.86401e-21)
(1.33229 0.673908 -5.60321e-21)
(1.26436 0.654831 0)
(1.19427 0.632564 -7.35467e-21)
(1.12254 0.607047 -2.19233e-22)
(1.04998 0.576662 5.13741e-20)
(0.979075 0.539933 -7.72881e-21)
(0.922693 0.502159 -3.47649e-20)
(0.888468 0.471289 2.12035e-20)
(0.859285 0.440497 -4.25886e-22)
(0.773735 0.383505 3.17253e-20)
(0.567157 0.277298 1.92476e-20)
(0.312454 0.15138 -4.49269e-20)
(0.106597 0.0522689 5.31186e-20)
(-0.0184549 -0.0074923 1.57459e-20)
(-0.0576265 -0.0266305 6.51415e-20)
(-0.0214936 -0.0100356 -1.76212e-19)
(0.238136 0.12881 -5.09781e-21)
(1.13155 0.593526 6.69628e-21)
(1.33643 0.706037 -4.40737e-21)
(1.36466 0.734502 3.04261e-22)
(1.31891 0.725723 0)
(1.25041 0.703744 -5.54696e-21)
(1.17933 0.678442 2.50363e-20)
(1.10618 0.649671 1.90072e-20)
(1.0318 0.61567 0)
(0.95876 0.574831 -1.11784e-19)
(0.900511 0.532908 9.42195e-20)
(0.864967 0.498441 0)
(0.834119 0.46373 2.90247e-20)
(0.747566 0.400983 -3.97926e-22)
(0.547679 0.288536 -6.20526e-20)
(0.303665 0.157575 2.4238e-20)
(0.104861 0.0537621 0)
(-0.0176482 -0.00917577 8.50272e-20)
(-0.0573873 -0.0293482 0)
(-0.0219404 -0.0111694 -8.342e-20)
(0.236219 0.137478 6.13665e-21)
(1.11993 0.634855 8.82802e-21)
(1.32434 0.756176 -4.33303e-21)
(1.35102 0.7855 0)
(1.30452 0.774793 -3.88869e-21)
(1.23556 0.750221 0)
(1.16363 0.722204 -2.4282e-20)
(1.08918 0.690511 -8.64039e-21)
(1.01304 0.653218 9.00923e-21)
(0.93784 0.6085 -5.53839e-20)
(0.87759 0.562517 9.72672e-21)
(0.840595 0.524402 0)
(0.808095 0.485731 -6.21736e-20)
(0.72086 0.417299 3.58834e-22)
(0.527825 0.299024 0)
(0.294459 0.163543 8.22885e-23)
(0.103195 0.0555514 7.77796e-20)
(-0.0157318 -0.0099679 -7.35498e-20)
(-0.055443 -0.0310394 2.1779e-20)
(-0.0217431 -0.0119542 0)
(0.234822 0.145988 0)
(1.10855 0.674045 1.07136e-20)
(1.31162 0.803536 6.55862e-21)
(1.33666 0.833608 -5.2886e-22)
(1.28951 0.821158 -5.9437e-22)
(1.22018 0.794279 -1.25404e-20)
(1.14752 0.763857 9.26463e-21)
(1.07187 0.729568 -1.04075e-20)
(0.994016 0.689317 4.05244e-20)
(0.916569 0.641008 -8.88953e-20)
(0.854139 0.591079 -8.99811e-22)
(0.815553 0.549253 -2.72378e-20)
(0.781405 0.506513 1.01159e-19)
(0.693644 0.432463 -4.72358e-22)
(0.507283 0.308502 -4.84596e-20)
(0.284354 0.168868 -8.55702e-20)
(0.10108 0.0574696 0)
(-0.013476 -0.0100332 0)
(-0.0525269 -0.0318052 2.35553e-20)
(-0.0210347 -0.0123912 -1.3992e-20)
(0.234094 0.154521 8.68838e-21)
(1.09764 0.711041 -2.43718e-20)
(1.29856 0.848224 -7.03343e-21)
(1.32193 0.878917 0)
(1.27418 0.864883 -3.08004e-22)
(1.20458 0.835962 -1.0707e-20)
(1.13128 0.803428 2.19007e-20)
(1.0545 0.766857 4.05613e-20)
(0.974967 0.723997 5.27009e-20)
(0.89519 0.672426 -7.28243e-20)
(0.83036 0.618702 -8.18003e-20)
(0.789988 0.573079 7.30815e-20)
(0.754166 0.526044 0)
(0.666027 0.446296 -2.22373e-20)
(0.486085 0.316752 -5.23805e-20)
(0.273035 0.173252 -6.17103e-20)
(0.0980333 0.0591466 -7.27561e-20)
(-0.011487 -0.00969366 2.15485e-20)
(-0.0492768 -0.0319279 -1.27009e-20)
(-0.0200381 -0.0125621 7.1845e-23)
(0.233615 0.162889 0)
(1.08747 0.746086 0)
(1.28542 0.890349 5.08676e-22)
(1.30705 0.921534 0)
(1.2588 0.906064 -7.52989e-22)
(1.18899 0.875339 6.61939e-21)
(1.11513 0.840961 0)
(1.03731 0.80241 4.74077e-21)
(0.95612 0.757285 8.81599e-20)
(0.873922 0.702823 -1.68062e-19)
(0.806431 0.645509 0)
(0.764015 0.595966 -4.73567e-20)
(0.726464 0.544242 -5.63138e-22)
(0.638039 0.458456 -3.71053e-22)
(0.464025 0.32337 5.64553e-20)
(0.26088 0.176333 4.62794e-23)
(0.0941372 0.06028 -1.57088e-19)
(-0.00998045 -0.00924697 4.64224e-20)
(-0.0460745 -0.0316644 1.37802e-20)
(-0.0189038 -0.0125306 0)
(0.233365 0.171045 -3.50423e-20)
(1.0778 0.779452 -1.65578e-20)
(1.27228 0.929992 -2.10913e-20)
(1.29225 0.961565 1.95095e-20)
(1.24357 0.944779 -4.38534e-21)
(1.1736 0.912481 0)
(1.09926 0.876509 1.30209e-20)
(1.02048 0.836263 -1.07127e-20)
(0.937662 0.789217 8.02826e-22)
(0.852966 0.732264 1.24768e-20)
(0.782525 0.671626 1.06916e-19)
(0.737708 0.618039 -1.66633e-20)
(0.698245 0.56106 -6.30075e-20)
(0.609669 0.468595 -2.60656e-20)
(0.441544 0.327794 3.05596e-20)
(0.248283 0.177748 6.52477e-23)
(0.0898634 0.0606579 4.23928e-20)
(-0.00889417 -0.00881274 -1.00098e-19)
(-0.0431745 -0.0311908 1.18814e-19)
(-0.0177911 -0.0124003 1.75341e-20)
(0.233156 0.178967 1.33365e-20)
(1.06864 0.811207 -9.33774e-21)
(1.25932 0.967284 1.31158e-21)
(1.27767 0.999129 1.27889e-20)
(1.22863 0.981142 2.31895e-21)
(1.15857 0.947466 -1.10682e-20)
(1.08383 0.910129 3.53682e-21)
(1.00414 0.868448 -4.46822e-20)
(0.919759 0.819809 -9.77931e-20)
(0.832497 0.760784 -1.00917e-19)
(0.758815 0.69717 0)
(0.71112 0.639464 -7.37483e-20)
(0.669403 0.576517 9.12607e-20)
(0.580731 0.476286 0)
(0.418918 0.329272 -6.57273e-20)
(0.23604 0.176784 3.88637e-20)
(0.0862282 0.0599805 -4.56986e-20)
(-0.00763062 -0.00825683 -5.39859e-20)
(-0.0408366 -0.0305393 -9.58682e-20)
(-0.016936 -0.0122959 -7.57088e-20)
(0.233255 0.186756 -1.51442e-20)
(1.05985 0.841353 1.0005e-20)
(1.24663 1.00229 2.24879e-20)
(1.26344 1.03432 1.89006e-20)
(1.2141 1.01525 -4.03211e-21)
(1.14399 0.980385 -5.18892e-21)
(1.06894 0.941875 1.20863e-20)
(0.988432 0.899012 -4.58815e-20)
(0.902531 0.849092 -5.82296e-20)
(0.812679 0.78842 1.06308e-19)
(0.735455 0.722248 2.37226e-19)
(0.684314 0.660448 0)
(0.639744 0.590748 0)
(0.550776 0.481257 -3.01046e-20)
(0.395992 0.326907 0)
(0.224916 0.17199 8.35756e-20)
(0.085659 0.0571148 9.83121e-20)
(-0.00370282 -0.00808982 0)
(-0.0383853 -0.0299958 0)
(-0.0168294 -0.0125583 8.15374e-20)
(0.233182 0.194097 1.72622e-20)
(1.05145 0.869906 1.36421e-20)
(1.23429 1.03514 1.63737e-20)
(1.24962 1.06727 -1.84121e-20)
(1.20005 1.04722 -5.74937e-21)
(1.12996 1.01132 4.10732e-21)
(1.05466 0.971809 -1.65474e-20)
(0.973428 0.927985 -2.18512e-22)
(0.886086 0.877075 -1.05831e-21)
(0.793643 0.815181 -7.29554e-22)
(0.712621 0.746947 1.22761e-19)
(0.657377 0.681198 0)
(0.609103 0.604042 9.35144e-20)
(0.519181 0.483515 6.47897e-20)
(0.371842 0.319853 1.54291e-19)
(0.214883 0.16072 4.52153e-20)
(0.0906357 0.0471366 -5.30031e-20)
(0.0104317 -0.0149611 -3.12527e-20)
(-0.0264433 -0.0321545 0)
(-0.0156615 -0.0129881 8.79197e-20)
(0.233504 0.201481 -3.91539e-20)
(1.04341 0.896975 0)
(1.22229 1.06589 1.93962e-20)
(1.23626 1.09808 -1.56947e-20)
(1.18657 1.07715 8.37636e-21)
(1.11652 1.04034 -2.16521e-21)
(1.04107 0.999985 3.13065e-20)
(0.95919 0.955401 -3.75161e-21)
(0.870494 0.90377 0)
(0.775503 0.841045 -1.18392e-19)
(0.690487 0.771322 -2.68763e-19)
(0.630442 0.701931 1.10729e-20)
(0.577415 0.616787 1.30399e-19)
(0.485326 0.483542 0)
(0.344657 0.308077 1.04754e-19)
(0.202631 0.140139 0)
(0.098674 0.01876 0)
(0.0428081 -0.0499047 -3.38038e-20)
(0.029612 -0.0500878 0)
(0.0203243 -0.000578625 2.36365e-20)
(0.233455 0.208332 -4.38266e-20)
(1.0357 0.922852 0)
(1.21064 1.09473 3.24862e-20)
(1.22331 1.12698 0)
(1.17361 1.1053 -5.28108e-21)
(1.10362 1.06776 0)
(1.0281 1.02671 1.35692e-21)
(0.945627 0.981593 6.40536e-21)
(0.855635 0.929529 7.42605e-21)
(0.75809 0.866376 -1.30542e-19)
(0.668858 0.79582 8.08917e-21)
(0.603183 0.723338 8.98453e-20)
(0.544079 0.629833 1.27925e-19)
(0.447982 0.482095 1.71612e-20)
(0.311814 0.292905 8.26721e-20)
(0.181059 0.110594 0)
(0.0928318 -0.0315621 1.11893e-19)
(0.0548914 -0.0807802 -6.56975e-20)
(0.025827 0.0405149 7.68774e-20)
(-0.0388188 0.460093 -9.13328e-20)
(0.233406 0.21503 3.63692e-20)
(1.02809 0.947377 5.47618e-20)
(1.19925 1.122 0)
(1.21063 1.15442 1.00634e-21)
(1.16098 1.13226 1.59998e-20)
(1.09097 1.09424 -3.75576e-21)
(1.01542 1.05278 1.03374e-20)
(0.932313 1.00749 0)
(0.84096 0.955433 4.88571e-20)
(0.740699 0.892457 -6.77835e-21)
(0.646767 0.821897 0)
(0.574174 0.747032 0)
(0.506735 0.644299 1.15508e-19)
(0.404125 0.479415 -5.32136e-20)
(0.269709 0.276046 -8.45109e-20)
(0.144483 0.0750495 0)
(0.0561595 -0.00230835 5.7064e-20)
(0.00361144 0.455097 -6.61132e-20)
(0.0287835 1.9398 -3.71051e-20)
(0.0550113 2.83104 -4.55792e-20)
(0.233083 0.221213 -2.74353e-20)
(1.02065 0.970727 -7.05145e-20)
(1.18815 1.1477 1.94032e-20)
(1.19823 1.18027 1.5644e-20)
(1.14873 1.15783 0)
(1.0787 1.11952 -4.80901e-21)
(1.00327 1.07788 1.3205e-20)
(0.919456 1.03267 -3.0812e-21)
(0.826771 0.980976 7.37089e-21)
(0.723751 0.918708 1.25104e-19)
(0.624883 0.848963 1.38005e-19)
(0.544443 0.772997 1.02389e-19)
(0.466117 0.66072 1.17287e-19)
(0.354601 0.475117 -1.2656e-19)
(0.223501 0.261816 -1.2882e-19)
(0.0972113 0.135497 0)
(0.0355234 0.906847 0)
(0.0816418 2.59205 3.17638e-20)
(0.0847981 3.21709 0)
(0.0866726 3.39103 8.27678e-20)
(0.23558 0.22704 0)
(1.0137 0.993302 0)
(1.17703 1.17168 0)
(1.18593 1.2044 4.78165e-21)
(1.13654 1.18177 1.47456e-20)
(1.0666 1.14345 -6.11509e-21)
(0.991558 1.10191 8.17064e-21)
(0.906991 1.05699 -2.99338e-21)
(0.813006 1.00598 6.11014e-20)
(0.707242 0.944964 -1.61702e-21)
(0.603316 0.876824 2.74405e-19)
(0.514371 0.801355 -1.19179e-20)
(0.422126 0.680265 1.43776e-20)
(0.300926 0.467775 1.84774e-20)
(0.165683 0.279324 -7.30807e-22)
(0.0823846 1.02705 3.48506e-22)
(0.116886 2.7748 -1.70705e-19)
(0.121374 3.3025 -6.42209e-20)
(0.113297 3.42312 3.38518e-20)
(0.103948 3.44262 -3.82774e-20)
(0.158776 0.172636 1.68149e-20)
(1.00247 1.01786 0)
(1.16567 1.19417 -3.99644e-20)
(1.17413 1.22725 -4.29702e-20)
(1.12484 1.20456 3.54105e-20)
(1.05535 1.16651 7.42256e-21)
(0.980081 1.1249 -7.99916e-21)
(0.894949 1.08051 3.21126e-20)
(0.799746 1.03053 -5.01706e-20)
(0.691409 0.971345 0)
(0.582389 0.905557 1.35974e-19)
(0.484516 0.831934 -8.44406e-20)
(0.378604 0.710042 0)
(0.239084 0.462781 1.81054e-20)
(0.119017 0.721934 4.25707e-20)
(0.131512 2.58396 -4.78296e-20)
(0.177906 3.32719 5.41656e-20)
(0.162061 3.43144 2.91195e-20)
(0.135182 3.45033 3.29351e-20)
(0.116823 3.45922 5.24656e-20)
(0.27002 0.264411 -3.24169e-20)
(0.984285 1.02751 0)
(1.14682 1.21986 4.32189e-20)
(1.15893 1.25842 4.7495e-20)
(1.10687 1.23817 -4.00818e-20)
(1.03679 1.20046 -1.22826e-20)
(0.960298 1.1604 4.92099e-21)
(0.874502 1.11727 2.56143e-21)
(0.777649 1.06949 4.75886e-20)
(0.665881 1.01441 1.09123e-19)
(0.550085 0.954812 7.64363e-21)
(0.438114 0.882769 7.58477e-20)
(0.296064 0.735919 1.37871e-20)
(0.198069 0.87828 -1.75262e-20)
(0.204318 2.4661 -3.91018e-20)
(0.255376 3.32949 3.83692e-20)
(0.238197 3.45449 -4.19967e-20)
(0.204663 3.47379 -2.41049e-20)
(0.171864 3.49859 -2.17964e-20)
(0.127174 3.49427 -3.15625e-21)
(0.260056 0.263204 0)
(0.981033 1.05019 1.26283e-20)
(1.13771 1.2434 -8.91771e-21)
(1.14749 1.28201 -5.68229e-21)
(1.0954 1.2615 -2.78015e-20)
(1.02529 1.22396 1.29231e-20)
(0.948426 1.1841 -1.56309e-21)
(0.862281 1.14182 2.2654e-21)
(0.764614 1.09555 -4.94768e-20)
(0.650982 1.04346 -2.67461e-21)
(0.531216 0.98876 -2.47396e-19)
(0.411359 0.918784 1.09072e-20)
(0.274832 0.809477 -1.31022e-20)
(0.23397 1.53161 -1.61558e-20)
(0.297928 3.14454 3.66486e-21)
(0.309814 3.45521 1.40915e-22)
(0.269 3.50223 6.25554e-20)
(0.235617 3.52663 3.16485e-20)
(0.190243 3.54711 -1.01852e-20)
(0.140756 3.54432 -1.576e-20)
(0.246017 0.261122 3.23628e-20)
(0.976847 1.07538 8.56196e-20)
(1.12823 1.26904 -2.5422e-20)
(1.13567 1.30724 -2.13385e-20)
(1.08344 1.2863 0)
(1.01339 1.24879 2.43813e-20)
(0.936448 1.20919 8.04367e-22)
(0.850214 1.16772 1.94368e-21)
(0.752051 1.1231 -5.56997e-21)
(0.637122 1.07433 -9.88614e-20)
(0.514375 1.02521 -1.14358e-19)
(0.387709 0.956164 -8.93505e-20)
(0.276756 0.96077 -9.88365e-20)
(0.300771 2.32198 1.01824e-19)
(0.379684 3.38341 8.57914e-20)
(0.349876 3.51012 0)
(0.302615 3.54824 0)
(0.266305 3.58254 -8.09944e-21)
(0.223328 3.62754 0)
(0.154098 3.61335 -1.24888e-20)
(0.236153 0.262955 -4.82842e-20)
(0.97073 1.10141 -7.25465e-20)
(1.11736 1.2959 0)
(1.12257 1.3333 1.22418e-21)
(1.07023 1.31177 -3.03611e-20)
(1.00041 1.2742 4.01482e-20)
(0.923707 1.23491 2.28948e-21)
(0.837617 1.19419 8.91268e-22)
(0.739221 1.15121 -3.43621e-20)
(0.623456 1.10584 4.8744e-21)
(0.498724 1.06241 0)
(0.366235 0.997144 0)
(0.298759 1.26375 -8.98345e-20)
(0.381618 2.97951 3.65425e-20)