/*--------------------------------*- C++ -*----------------------------------*\
  =========                 |
  \\      /  F ield         | OpenFOAM: The Open Source CFD Toolbox
   \\    /   O peration     | Website:  https://openfoam.org
    \\  /    A nd           | Version:  6
     \\/     M anipulation  |
\*---------------------------------------------------------------------------*/
FoamFile
{
    version     2.0;
    format      ascii;
    class       volScalarField;
    location    "11.5";
    object      p;
}
// * * * * * * * * * * * * * * * * * * * * * * * * * * * * * * * * * * * * * //

dimensions      [0 2 -2 0 0 0 0];

internalField   nonuniform List<scalar> 
8800
(
0.471067
0.421789
0.383868
0.355857
0.335772
0.321308
0.310866
0.303476
0.29869
0.29656
0.297586
0.301443
0.307774
0.316783
0.329199
0.346302
0.370034
0.40303
0.445891
0.498371
0.30537
0.311763
0.321045
0.324757
0.32234
0.316435
0.309669
0.30354
0.298784
0.295876
0.295434
0.297638
0.301871
0.307616
0.314348
0.321056
0.32563
0.32526
0.318381
0.309357
0.278694
0.285015
0.289672
0.293813
0.297075
0.298356
0.297508
0.295555
0.293532
0.292405
0.29317
0.295295
0.29771
0.299484
0.299519
0.297244
0.293475
0.289152
0.284217
0.280451
0.27397
0.276826
0.279813
0.282359
0.284427
0.28628
0.287635
0.288081
0.287937
0.287815
0.288262
0.288957
0.289248
0.28859
0.287094
0.285255
0.283093
0.280284
0.277536
0.27598
0.268887
0.270378
0.272585
0.275116
0.277167
0.278586
0.279717
0.280813
0.281742
0.282432
0.282617
0.282363
0.281766
0.280962
0.279962
0.278389
0.276147
0.273687
0.272014
0.27124
0.264249
0.265111
0.267184
0.269768
0.272256
0.274567
0.276377
0.277574
0.27837
0.27892
0.279306
0.279321
0.27885
0.277711
0.275854
0.273622
0.271196
0.268794
0.26743
0.267084
0.262285
0.262688
0.263943
0.265591
0.267265
0.268836
0.270403
0.27195
0.27324
0.274166
0.27451
0.274242
0.273433
0.272337
0.271094
0.269665
0.268118
0.266661
0.265902
0.265768
0.261132
0.261362
0.262034
0.262997
0.264066
0.265351
0.266625
0.267847
0.268989
0.269937
0.270454
0.270443
0.270036
0.269338
0.268383
0.267495
0.266666
0.26592
0.265534
0.265452
0.259122
0.259252
0.259626
0.260217
0.260984
0.261896
0.263069
0.264336
0.265582
0.266681
0.267343
0.267453
0.267156
0.266632
0.266094
0.265572
0.265123
0.26476
0.264571
0.264522
0.256241
0.256314
0.256597
0.257093
0.257711
0.25827
0.259192
0.260255
0.26143
0.262617
0.263523
0.263976
0.26408
0.263971
0.263918
0.263668
0.263386
0.26314
0.263036
0.263012
0.252986
0.253023
0.253239
0.253661
0.254159
0.255028
0.255866
0.256928
0.258189
0.259572
0.260748
0.261486
0.26187
0.262049
0.261843
0.26182
0.261676
0.261539
0.261496
0.261487
0.249502
0.24953
0.249699
0.250052
0.250552
0.25122
0.252087
0.253206
0.254601
0.256233
0.257758
0.258855
0.25955
0.259957
0.26017
0.260234
0.260212
0.26018
0.260179
0.260172
0.245651
0.24568
0.24583
0.246142
0.246623
0.247307
0.248249
0.249512
0.25114
0.253128
0.255085
0.25657
0.257583
0.258244
0.258643
0.258869
0.258982
0.25904
0.259068
0.259062
0.241325
0.241352
0.24151
0.241824
0.242327
0.243074
0.244144
0.245622
0.247582
0.250041
0.25253
0.254484
0.255859
0.256799
0.257412
0.257796
0.258026
0.258155
0.258208
0.258201
0.236437
0.236465
0.236643
0.237003
0.23758
0.238454
0.239727
0.241517
0.243926
0.246992
0.250141
0.252653
0.254477
0.255723
0.256557
0.257097
0.257434
0.257626
0.257701
0.257693
0.230887
0.230921
0.231138
0.231568
0.232267
0.233332
0.234896
0.23711
0.240111
0.243959
0.247945
0.251152
0.253467
0.25508
0.256166
0.256877
0.257324
0.25758
0.257678
0.257669
0.224516
0.224559
0.22483
0.225368
0.226242
0.227575
0.229535
0.232311
0.236084
0.240929
0.245953
0.249998
0.252931
0.254976
0.256358
0.257265
0.257837
0.258164
0.258289
0.258278
0.217115
0.217172
0.217523
0.218207
0.219321
0.221019
0.223503
0.227017
0.231786
0.237895
0.244216
0.249295
0.252975
0.255543
0.257279
0.258418
0.259137
0.259547
0.259703
0.25969
0.208382
0.208454
0.208904
0.209799
0.211256
0.213441
0.216621
0.221102
0.227153
0.234863
0.242796
0.249145
0.253736
0.256938
0.259104
0.260524
0.261418
0.261925
0.262119
0.262103
0.197915
0.19801
0.198603
0.199781
0.201683
0.204515
0.208636
0.214406
0.222112
0.231843
0.241776
0.249678
0.255377
0.25935
0.262039
0.263804
0.264911
0.265536
0.265774
0.265753
0.185163
0.185295
0.186082
0.187651
0.190171
0.19392
0.199302
0.206742
0.216587
0.228866
0.241255
0.251043
0.258083
0.262993
0.266324
0.268517
0.269896
0.270672
0.270963
0.270929
0.169345
0.169531
0.170596
0.172736
0.17614
0.181135
0.188232
0.197936
0.210548
0.226
0.241368
0.253413
0.262064
0.268109
0.272228
0.274956
0.276676
0.277631
0.277987
0.277945
0.149269
0.149533
0.151038
0.15406
0.158778
0.165603
0.17515
0.187891
0.20404
0.223379
0.242283
0.256981
0.267541
0.274956
0.280048
0.283453
0.285627
0.28684
0.287275
0.287217
0.123025
0.123426
0.125707
0.130221
0.137051
0.146697
0.159747
0.176562
0.197186
0.221189
0.244186
0.261925
0.274708
0.28377
0.290076
0.294356
0.297134
0.298699
0.299264
0.299185
0.0873944
0.0881341
0.0919824
0.0992735
0.109721
0.123773
0.141849
0.164069
0.190212
0.219641
0.24723
0.268355
0.28366
0.294675
0.302512
0.30798
0.311629
0.313718
0.314466
0.314357
0.0361641
0.0382847
0.0461782
0.0591787
0.0759822
0.0968321
0.121853
0.150889
0.183519
0.218999
0.251533
0.27628
0.294336
0.307581
0.317298
0.32438
0.32936
0.332403
0.333525
0.333375
-0.0403465
-0.0299213
-0.0120073
0.0111605
0.0375185
0.0673868
0.100829
0.137663
0.177473
0.219558
0.257502
0.286313
0.307601
0.323616
0.335844
0.345351
0.3526
0.357573
0.359834
0.360088
-0.120776
-0.0995821
-0.0708517
-0.0372522
-0.00112487
0.0378118
0.0797174
0.124505
0.171885
0.221297
0.265678
0.29961
0.325109
0.34479
0.360367
0.372917
0.383219
0.391647
0.395755
0.396233
-0.185856
-0.160842
-0.124085
-0.082108
-0.0375072
0.00979179
0.0597194
0.112143
0.166771
0.223088
0.27332
0.311665
0.340535
0.362924
0.380713
0.395134
0.406783
0.415858
0.420107
0.420761
-0.237305
-0.210092
-0.168583
-0.120859
-0.0697926
-0.0156962
0.0411023
0.100351
0.161582
0.224192
0.279561
0.321432
0.352649
0.37657
0.395286
0.410202
0.422186
0.431294
0.435781
0.436472
-0.278983
-0.250859
-0.206035
-0.15395
-0.0979252
-0.0384995
0.0240218
0.089134
0.156223
0.224419
0.284241
0.32903
0.362004
0.386919
0.406151
0.421268
0.433226
0.442193
0.44676
0.447488
-0.31423
-0.285729
-0.238548
-0.182998
-0.122936
-0.0590139
0.00836427
0.0785771
0.150884
0.224226
0.288187
0.335586
0.370048
0.395742
0.415289
0.430426
0.442257
0.451014
0.455569
0.456312
-0.345211
-0.316541
-0.267528
-0.20918
-0.145747
-0.0779613
-0.00633783
0.0684837
0.145586
0.22368
0.291468
0.3413
0.377156
0.403559
0.423405
0.438596
0.450355
0.458955
0.463459
0.464218
-0.373371
-0.344588
-0.294083
-0.233408
-0.167115
-0.0959854
-0.0205756
0.0583837
0.139883
0.222492
0.294098
0.346443
0.383767
0.410966
0.431179
0.446483
0.458213
0.466712
0.471132
0.471897
-0.39954
-0.37057
-0.318873
-0.256182
-0.187432
-0.11341
-0.0346872
0.0480144
0.133684
0.220739
0.296228
0.35123
0.390177
0.418295
0.438975
0.454465
0.466213
0.47463
0.478956
0.47974
-0.424406
-0.395194
-0.342418
-0.277975
-0.207103
-0.130536
-0.0488151
0.037347
0.126935
0.218322
0.297803
0.355701
0.396508
0.425738
0.447025
0.462793
0.474617
0.482967
0.487183
0.487971
-0.448215
-0.418766
-0.36504
-0.299071
-0.22631
-0.147484
-0.0630975
0.0261997
0.119459
0.215123
0.298757
0.359836
0.402804
0.43339
0.455463
0.471635
0.483601
0.491929
0.496019
0.496767
-0.4713
-0.441503
-0.386935
-0.319636
-0.245238
-0.16444
-0.077673
0.0144822
0.1112
0.211036
0.298972
0.363539
0.40902
0.441273
0.464359
0.481091
0.493312
0.50166
0.505612
0.506274
-0.493701
-0.463563
-0.408228
-0.339769
-0.26395
-0.181422
-0.0925433
0.00219123
0.102101
0.205958
0.298288
0.36666
0.415054
0.449344
0.473726
0.491203
0.503792
0.512226
0.516066
0.516581
-0.515491
-0.484988
-0.42896
-0.359491
-0.282434
-0.198407
-0.107693
-0.0106719
0.0921474
0.199832
0.296554
0.369002
0.420726
0.457483
0.483503
0.501969
0.515068
0.523652
0.527396
0.527739
-0.536711
-0.505847
-0.449149
-0.378805
-0.3007
-0.215385
-0.123086
-0.024063
0.0813686
0.192609
0.29364
0.370339
0.425759
0.465456
0.493559
0.513333
0.527139
0.535939
0.539567
0.539719
-0.557386
-0.526098
-0.468784
-0.397679
-0.318684
-0.232289
-0.13865
-0.0379151
0.0698012
0.184268
0.289416
0.370393
0.42981
0.472968
0.503721
0.525169
0.539845
0.548872
0.552327
0.552304
-0.577353
-0.545682
-0.487808
-0.416063
-0.33632
-0.249035
-0.154301
-0.0521386
0.0575248
0.174858
0.283793
0.368971
0.432592
0.479711
0.513782
0.537469
0.553227
0.562417
0.56556
0.565306
-0.59658
-0.564568
-0.506186
-0.433898
-0.35355
-0.26555
-0.169941
-0.0666304
0.0446437
0.164421
0.276769
0.365893
0.433701
0.485131
0.523294
0.550161
0.567357
0.576357
0.578834
0.578315
-0.615114
-0.582716
-0.523881
-0.45115
-0.370301
-0.28175
-0.18547
-0.081276
0.0312801
0.153046
0.26833
0.361021
0.432733
0.488526
0.531521
0.563055
0.582945
0.591248
0.591758
0.590801
-0.632814
-0.600112
-0.540851
-0.467754
-0.386511
-0.29755
-0.200791
-0.0959624
0.0175674
0.140868
0.258539
0.354329
0.429485
0.4892
0.537341
0.57516
0.600647
0.609839
0.605808
0.601315
-0.649763
-0.61675
-0.557125
-0.483731
-0.402216
-0.312995
-0.215957
-0.11075
0.00342924
0.127837
0.247297
0.345559
0.423717
0.486407
0.539152
0.584227
0.618741
0.635626
0.62942
0.620071
-0.665907
-0.632711
-0.572815
-0.499244
-0.417686
-0.328406
-0.231364
-0.12612
-0.011697
0.113263
0.233855
0.333897
0.414636
0.478821
0.533644
0.584604
0.626501
0.645779
0.639186
0.621568
-0.681153
-0.647955
-0.587763
-0.514111
-0.432712
-0.343499
-0.246792
-0.141742
-0.0274764
0.0975066
0.218455
0.319207
0.40194
0.466399
0.516836
0.566392
0.603586
0.607769
0.549191
0.511693
-0.695407
-0.662939
-0.601509
-0.52784
-0.446755
-0.35785
-0.261999
-0.157366
-0.043643
0.0808246
0.201212
0.301459
0.385189
0.450269
0.489103
0.52058
0.540553
0.504668
0.435764
0.39083
-0.735393
-0.67638
-0.61404
-0.541123
-0.46048
-0.372238
-0.276897
-0.173099
-0.0603635
0.0629719
0.181896
0.280591
0.362394
0.431683
0.448505
0.449228
0.427511
0.369499
0.290593
0.247754
-0.70551
-0.688115
-0.632614
-0.561293
-0.480759
-0.393465
-0.299522
-0.197311
-0.0865321
0.0342694
0.149321
0.244354
0.3174
0.377722
0.380943
0.266501
0.162283
0.0934013
0.0190521
0.0626302
-0.733105
-0.702937
-0.647067
-0.575699
-0.495865
-0.409399
-0.31597
-0.215026
-0.105981
0.0122951
0.123559
0.21458
0.280264
0.307908
0.25264
0.091859
-0.0449068
-0.135181
-0.236881
-0.164202
-0.753291
-0.72081
-0.66345
-0.591966
-0.51266
-0.426757
-0.334098
-0.234567
-0.127758
-0.0126984
0.0944086
0.17927
0.23541
0.230474
0.102019
-0.106971
-0.279776
-0.398636
-0.532618
-0.4665
-0.772078
-0.73869
-0.680279
-0.608528
-0.529497
-0.444195
-0.352618
-0.254739
-0.150406
-0.0386378
0.0643046
0.141767
0.184407
0.136976
-0.0704678
-0.320999
-0.546615
-0.736373
-0.912193
-0.845544
-0.789823
-0.756342
-0.697449
-0.625519
-0.54674
-0.462137
-0.371814
-0.275788
-0.17395
-0.0654603
0.0327172
0.102292
0.125366
0.0291988
-0.24339
-0.538621
-0.820122
-1.06297
-1.36456
-1.46495
-0.807188
-0.77411
-0.71513
-0.643185
-0.564702
-0.480806
-0.391767
-0.29761
-0.198231
-0.093544
-0.00140089
0.059854
0.0632412
-0.0927596
-0.406177
-0.731103
-1.04765
-1.30926
-1.52471
-1.79528
-0.82482
-0.792241
-0.733454
-0.661705
-0.583667
-0.500636
-0.413009
-0.320973
-0.224469
-0.12506
-0.0395354
0.0129849
-0.010278
-0.233995
-0.559783
-0.895601
-1.19401
-1.37523
-1.42471
-1.45081
-0.842939
-0.810823
-0.752375
-0.680983
-0.603567
-0.52162
-0.435687
-0.346264
-0.253168
-0.159619
-0.0800062
-0.0395286
-0.100892
-0.373035
-0.699251
-1.02423
-1.2719
-1.36388
-1.38145
-1.38204
-0.861721
-0.829854
-0.77176
-0.700806
-0.624155
-0.543535
-0.459634
-0.373308
-0.284131
-0.196574
-0.123564
-0.0983063
-0.199532
-0.510427
-0.822737
-1.13308
-1.33852
-1.36012
-1.3578
-1.35484
-0.880789
-0.849189
-0.791413
-0.720931
-0.645198
-0.566088
-0.484691
-0.401544
-0.317379
-0.235458
-0.171293
-0.165983
-0.309783
-0.646004
-0.930151
-1.20723
-1.36441
-1.36204
-1.34489
-1.33914
-0.899878
-0.868454
-0.810946
-0.740994
-0.666297
-0.58897
-0.510422
-0.430879
-0.353067
-0.278031
-0.223164
-0.237156
-0.439233
-0.784565
-1.01976
-1.18403
-1.29302
-1.31912
-1.33399
-1.33335
-0.918143
-0.887048
-0.829886
-0.76045
-0.686885
-0.611671
-0.536088
-0.461452
-0.390313
-0.32361
-0.276729
-0.310592
-0.591922
-0.955105
-1.12968
-1.10224
-1.20186
-1.3291
-1.39455
-1.40691
-0.935034
-0.904287
-0.84745
-0.778546
-0.706243
-0.633314
-0.561307
-0.492659
-0.427667
-0.367993
-0.33103
-0.384892
-0.762249
-1.21745
-1.46567
-1.34006
-1.41073
-1.53583
-1.6164
-1.63819
-0.94967
-0.919214
-0.862684
-0.794314
-0.723401
-0.652947
-0.585396
-0.522687
-0.464681
-0.408864
-0.383794
-0.451308
-0.930447
-1.58657
-2.1629
-2.22017
-2.13608
-2.06656
-2.0488
-2.05886
-0.960641
-0.930545
-0.874403
-0.806581
-0.737135
-0.669493
-0.606834
-0.551603
-0.503035
-0.448883
-0.429547
-0.512999
-1.05463
-1.89248
-2.82184
-3.23413
-3.14472
-2.8796
-2.66666
-2.61177
-0.966468
-0.93686
-0.88111
-0.813943
-0.746064
-0.681445
-0.624072
-0.577684
-0.544514
-0.496675
-0.478578
-0.584971
-1.08697
-1.90119
-2.87777
-3.49377
-3.57599
-3.38434
-3.08828
-2.93824
-0.965596
-0.936456
-0.881294
-0.814924
-0.74869
-0.687242
-0.635983
-0.602601
-0.592718
-0.56884
-0.562204
-0.675447
-0.991434
-1.56049
-2.19792
-2.66589
-2.80867
-2.75793
-2.57928
-2.46095
-0.956604
-0.927883
-0.87343
-0.808101
-0.743579
-0.685352
-0.641064
-0.623673
-0.651893
-0.701455
-0.754402
-0.825645
-0.826221
-0.982908
-1.08215
-1.25295
-1.2668
-1.14781
-0.97308
-0.867972
-0.937839
-0.909639
-0.856222
-0.792283
-0.72948
-0.674284
-0.637235
-0.639798
-0.729119
-0.94294
-1.19088
-1.07429
-0.673197
-0.374127
0.0629953
0.457796
0.749464
0.93953
1.07654
1.14265
-0.908028
-0.880544
-0.828716
-0.766582
-0.705428
-0.652566
-0.621555
-0.645104
-0.818677
-1.31339
-1.84377
-1.37626
-0.556061
0.176927
0.973667
1.56999
2.00478
2.23027
2.33192
2.3657
-0.867167
-0.840484
-0.790447
-0.730403
-0.670701
-0.618839
-0.589859
-0.623784
-0.854235
-1.62588
-2.42237
-1.58448
-0.559167
0.433852
1.23586
1.80526
2.16218
2.32683
2.39464
2.41151
-0.814081
-0.78841
-0.741061
-0.683563
-0.625101
-0.572374
-0.53898
-0.560853
-0.758403
-1.45643
-2.02828
-1.24927
-0.311766
0.552682
1.16318
1.54011
1.76398
1.88095
1.9401
1.95015
-0.747994
-0.724477
-0.680769
-0.626393
-0.56938
-0.514691
-0.471648
-0.462227
-0.547985
-0.849852
-0.966034
-0.456202
0.170689
0.690635
1.03614
1.25198
1.38809
1.47357
1.51446
1.52113
-0.670677
-0.649693
-0.610478
-0.560331
-0.505433
-0.449519
-0.396697
-0.355504
-0.341165
-0.35279
-0.258822
0.0821215
0.43408
0.696541
0.882114
1.00991
1.09951
1.16017
1.19528
1.20627
-0.58346
-0.56859
-0.53348
-0.487127
-0.436038
-0.381016
-0.322945
-0.262709
-0.198144
-0.109913
0.0428838
0.256437
0.454189
0.600991
0.709194
0.788662
0.847815
0.889508
0.912775
0.919271
-0.475314
-0.467697
-0.442342
-0.404982
-0.36162
-0.312542
-0.257222
-0.194457
-0.119859
-0.0187754
0.118613
0.271627
0.405612
0.50702
0.581464
0.634856
0.672867
0.700095
0.716355
0.719933
-0.369782
-0.366143
-0.348404
-0.320254
-0.28651
-0.246363
-0.198633
-0.14144
-0.0704707
0.0237165
0.139534
0.253982
0.349991
0.42246
0.474582
0.510769
0.534715
0.549805
0.557607
0.559302
-0.26917
-0.26761
-0.256495
-0.237423
-0.213201
-0.182755
-0.144727
-0.0965176
-0.0347736
0.0466661
0.141061
0.22827
0.298368
0.350427
0.386886
0.411221
0.426521
0.435425
0.439513
0.439949
-0.176696
-0.176494
-0.170759
-0.159872
-0.144512
-0.123644
-0.0953175
-0.0572756
-0.0068344
0.0600702
0.135527
0.202547
0.25474
0.292501
0.318219
0.334794
0.344595
0.349613
0.351573
0.351536
-0.0984162
-0.099073
-0.0980922
-0.0942456
-0.0862397
-0.0730454
-0.0530663
-0.0245399
0.0152517
0.0685214
0.127937
0.179228
0.218086
0.245625
0.263916
0.274992
0.281107
0.283972
0.284906
0.284734
-0.0406449
-0.0416459
-0.0430516
-0.0433198
-0.0405136
-0.0331659
-0.0197842
0.00116897
0.0315148
0.0729307
0.118852
0.157916
0.186998
0.207019
0.219873
0.227556
0.231591
0.233242
0.233682
0.233487
-0.00207624
-0.0030083
-0.00511431
-0.00693921
-0.0067149
-0.00311126
0.00532758
0.0202274
0.0429991
0.0748206
0.11003
0.139496
0.161021
0.175713
0.185031
0.190312
0.19284
0.193719
0.193864
0.193673
0.0215698
0.0208703
0.018986
0.0170853
0.0165943
0.0185307
0.0239626
0.0343186
0.0510298
0.0750068
0.101754
0.124038
0.140144
0.15083
0.157309
0.160861
0.162427
0.162795
0.162752
0.162584
0.0353695
0.0349074
0.0335697
0.032083
0.0314843
0.0326299
0.0364629
0.0439905
0.0563273
0.0742848
0.0943703
0.110933
0.122682
0.130402
0.135062
0.137487
0.138403
0.138471
0.138344
0.138208
0.0433433
0.0430466
0.0421903
0.0411967
0.0407644
0.0414701
0.0440686
0.0494766
0.0585962
0.0720007
0.0870222
0.0993851
0.108145
0.113814
0.117102
0.118728
0.119267
0.11921
0.119071
0.118964
0.0478828
0.0476846
0.0471257
0.0464692
0.0462114
0.0467784
0.0486963
0.0526241
0.0593065
0.0692764
0.080502
0.0896696
0.0960606
0.100124
0.102445
0.103547
0.103852
0.103743
0.103612
0.103526
0.050067
0.049928
0.0495239
0.0490407
0.0488435
0.0492429
0.0506425
0.0535483
0.0584951
0.0658724
0.0741724
0.0809341
0.0856298
0.0885935
0.0902472
0.0909969
0.0911672
0.091047
0.0909331
0.0908646
0.050423
0.0503244
0.0500272
0.0496647
0.049515
0.0498043
0.0508203
0.0529383
0.0565778
0.0620448
0.0682025
0.0731916
0.0766265
0.0787573
0.0799217
0.0804244
0.0805055
0.0803842
0.0802865
0.0802321
0.0493775
0.0493059
0.0490889
0.0488192
0.0487056
0.0489163
0.049665
0.0512272
0.0539083
0.0579379
0.0624754
0.0661355
0.0686364
0.070171
0.0709916
0.0713248
0.0713512
0.0712373
0.071155
0.0711118
0.0472988
0.0472449
0.0470869
0.0468896
0.0468062
0.0469592
0.0475059
0.0486509
0.0506229
0.0535917
0.0569319
0.0596158
0.0614334
0.0625341
0.0631083
0.0633258
0.063321
0.0632199
0.0631514
0.0631169
0.0444777
0.0444362
0.04432
0.0441762
0.0441157
0.0442282
0.0446292
0.0454692
0.0469165
0.0490972
0.051548
0.0535058
0.0548205
0.0556072
0.0560069
0.0561461
0.0561247
0.0560372
0.0559804
0.0559529
0.0411198
0.0410873
0.0409998
0.0408924
0.0408459
0.040926
0.0412175
0.0418309
0.0428902
0.0444878
0.0462793
0.0477013
0.0486502
0.04921
0.0494859
0.0495721
0.0495428
0.0494683
0.0494214
0.0493995
0.0373668
0.0373413
0.0372739
0.0371913
0.0371532
0.037208
0.0374174
0.0378627
0.0386343
0.0397996
0.0411035
0.0421323
0.0428136
0.0432088
0.0433965
0.0434469
0.0434143
0.0433512
0.0433126
0.0432951
0.0333197
0.0332995
0.0332466
0.0331816
0.0331489
0.0331839
0.0333319
0.033652
0.03421
0.0350549
0.035999
0.0367396
0.0372255
0.0375013
0.0376264
0.0376522
0.0376189
0.0375656
0.037534
0.0375203
0.0290536
0.0290375
0.0289956
0.0289435
0.0289144
0.0289343
0.0290361
0.029263
0.0296631
0.0302707
0.0309487
0.031478
0.0318208
0.0320108
0.0320918
0.0321014
0.0320693
0.0320246
0.0319988
0.031988
0.0246258
0.024613
0.0245794
0.024537
0.0245104
0.024519
0.0245866
0.0247445
0.0250272
0.0254593
0.0259409
0.0263147
0.0265526
0.0266807
0.0267308
0.0267302
0.0267004
0.0266632
0.0266421
0.0266337
0.0200781
0.0200679
0.0200411
0.0200064
0.0199825
0.0199833
0.020026
0.0201329
0.0203286
0.0206298
0.0209655
0.0212239
0.0213857
0.0214694
0.0214978
0.0214908
0.0214638
0.021433
0.021416
0.0214094
0.0154421
0.0154343
0.015413
0.0153848
0.0153635
0.0153593
0.0153839
0.015453
0.0155834
0.0157866
0.0160122
0.0161847
0.0162907
0.0163429
0.0163568
0.0163464
0.0163226
0.0162973
0.0162838
0.0162788
0.0107419
0.0107362
0.0107194
0.0106967
0.0106787
0.010672
0.0106843
0.0107253
0.0108059
0.0109339
0.0110759
0.0111832
0.0112474
0.0112768
0.0112816
0.0112707
0.0112508
0.0112305
0.0112201
0.0112166
0.00599224
0.00598816
0.00597623
0.00596065
0.00594852
0.0059429
0.00594744
0.00596762
0.00600916
0.00607636
0.00615085
0.00620656
0.00623891
0.0062525
0.00625281
0.00624449
0.00623068
0.00621624
0.00620869
0.00620635
0.00120653
0.00120636
0.0012053
0.00120047
0.00119562
0.00119242
0.00119164
0.00119359
0.00119897
0.00120856
0.00122219
0.00123476
0.00124268
0.00124666
0.00124759
0.00124582
0.00124195
0.00123688
0.00123351
0.00123332
-0.667504
-0.405313
-0.160319
0.038189
0.202116
0.33667
0.453403
0.550251
0.584136
0.579622
-0.255872
-0.087279
0.0678774
0.202956
0.31885
0.41698
0.496397
0.552101
0.582444
0.598076
0.019842
0.127589
0.234443
0.329295
0.41149
0.480468
0.5351
0.576083
0.604899
0.624017
0.210174
0.285619
0.361808
0.430257
0.489685
0.540004
0.581546
0.615141
0.639879
0.658979
0.356015
0.410612
0.466477
0.517742
0.56291
0.602355
0.63614
0.664081
0.684743
0.703109
0.474247
0.516512
0.559194
0.59989
0.636884
0.669745
0.698422
0.722186
0.739806
0.757525
0.574289
0.611032
0.647675
0.682948
0.71559
0.745088
0.770653
0.791416
0.806614
0.823888
0.668415
0.703717
0.739131
0.772959
0.804012
0.831711
0.85543
0.874217
0.887521
0.904285
0.767444
0.805407
0.841977
0.876035
0.90669
0.933356
0.955539
0.972633
0.984811
1.00114
0.883187
0.924635
0.962851
0.996934
1.02629
1.0511
1.07143
1.08726
1.09951
1.11572
1.02635
1.06793
1.10379
1.13407
1.15993
1.18203
1.20095
1.21681
1.2302
1.24622
1.19897
1.2318
1.25904
1.2817
1.3021
1.32116
1.33916
1.35609
1.37115
1.38693
1.38609
1.40349
1.42072
1.43763
1.4539
1.46876
1.48286
1.49753
1.51284
1.53019
1.56929
1.57966
1.59305
1.60409
1.61365
1.62344
1.63412
1.64436
1.65376
1.6795
1.7876
1.78196
1.76922
1.75496
1.74873
1.75461
1.77286
1.80142
1.8352
1.87154
2.09079
1.9546
1.8752
1.83293
1.81564
1.8196
1.8471
1.90499
2.01268
2.1911
0.374668
0.368384
0.360717
0.349712
0.336267
0.323742
0.313478
0.305633
0.300054
0.296787
0.296274
0.298671
0.303451
0.310391
0.319596
0.331174
0.344519
0.357267
0.366124
0.373608
0.283606
0.289563
0.297775
0.304054
0.307339
0.307095
0.304325
0.300545
0.297007
0.294593
0.294225
0.296207
0.299626
0.303646
0.307275
0.309068
0.307657
0.302762
0.295512
0.287557
0.276374
0.278766
0.282291
0.285463
0.28831
0.29092
0.292398
0.292367
0.291418
0.29043
0.290361
0.291538
0.292983
0.293862
0.293351
0.291329
0.288636
0.285774
0.282371
0.279194
0.271476
0.272539
0.274647
0.27728
0.279428
0.280972
0.282278
0.283489
0.284361
0.284898
0.285245
0.285367
0.285154
0.28442
0.283383
0.282171
0.280459
0.278071
0.275621
0.274041
0.266337
0.266892
0.268463
0.271053
0.273654
0.275835
0.277465
0.278619
0.2795
0.280192
0.280656
0.280764
0.280516
0.279901
0.278806
0.277085
0.274789
0.272205
0.270072
0.269112
0.262953
0.263151
0.264251
0.26631
0.26848
0.270596
0.272667
0.274418
0.275721
0.276612
0.277167
0.277299
0.276854
0.275804
0.274186
0.272326
0.270354
0.268295
0.266656
0.26615
0.261781
0.261886
0.262462
0.263603
0.26489
0.266205
0.267445
0.268728
0.27001
0.271126
0.271839
0.271943
0.271558
0.270856
0.270048
0.269037
0.267913
0.266794
0.265948
0.265688
0.260254
0.260315
0.260631
0.26127
0.262093
0.26315
0.264458
0.265802
0.267059
0.26818
0.269006
0.269326
0.269126
0.268541
0.267694
0.266899
0.266252
0.265658
0.265241
0.265101
0.257758
0.257791
0.257981
0.258399
0.258969
0.259629
0.260448
0.261479
0.262662
0.263857
0.264852
0.265373
0.265453
0.265286
0.265034
0.264755
0.264416
0.264101
0.263886
0.263817
0.254638
0.254647
0.254784
0.255154
0.255671
0.25634
0.257126
0.258118
0.259258
0.260516
0.261711
0.262532
0.262925
0.262992
0.262943
0.262864
0.262646
0.262404
0.262264
0.262234
0.251283
0.251282
0.251381
0.251676
0.252138
0.252743
0.253519
0.254486
0.255693
0.257113
0.258581
0.259726
0.260433
0.260832
0.261013
0.261015
0.260964
0.260864
0.260815
0.260808
0.247632
0.247635
0.247711
0.247957
0.248365
0.248938
0.249717
0.25075
0.252087
0.253743
0.255566
0.257103
0.258162
0.258836
0.259244
0.259459
0.25955
0.259574
0.259591
0.259596
0.243556
0.243554
0.243639
0.243866
0.24426
0.244849
0.245692
0.246863
0.248429
0.25043
0.252707
0.254714
0.256155
0.257129
0.257763
0.258159
0.25839
0.25852
0.258588
0.258602
0.238958
0.238954
0.239048
0.2393
0.239726
0.240383
0.241352
0.242731
0.244617
0.247076
0.249937
0.252515
0.254383
0.25572
0.256611
0.25719
0.257554
0.257771
0.257882
0.257904
0.233758
0.233753
0.233865
0.234156
0.234659
0.235442
0.236609
0.238288
0.240612
0.243674
0.247275
0.250553
0.252992
0.254699
0.255869
0.256643
0.25714
0.257442
0.257593
0.257623
0.227821
0.227813
0.227953
0.228312
0.228932
0.229897
0.231342
0.233432
0.236336
0.240178
0.244714
0.24886
0.251944
0.254131
0.25563
0.256628
0.257273
0.257666
0.257862
0.257901
0.220962
0.220952
0.22113
0.221583
0.222368
0.223585
0.225406
0.228044
0.231708
0.236554
0.242269
0.247491
0.251372
0.254128
0.25602
0.257283
0.258101
0.258602
0.258851
0.258899
0.212937
0.212925
0.21316
0.213752
0.21475
0.216293
0.218619
0.221983
0.226637
0.232765
0.239964
0.246517
0.251376
0.254824
0.257191
0.258773
0.259802
0.260434
0.260746
0.260805
0.203399
0.203385
0.203695
0.204462
0.205759
0.207767
0.210783
0.215099
0.221028
0.228786
0.237842
0.246037
0.25209
0.256379
0.259323
0.261294
0.26258
0.263375
0.263767
0.263839
0.191879
0.191865
0.192285
0.193305
0.19501
0.197648
0.201563
0.207135
0.214749
0.224601
0.235972
0.246175
0.253679
0.258989
0.262634
0.265075
0.266674
0.26767
0.268163
0.268252
0.177688
0.177673
0.178263
0.179651
0.181939
0.185449
0.190629
0.197927
0.207728
0.220225
0.234448
0.247082
0.256331
0.262873
0.267371
0.270386
0.272363
0.273598
0.274206
0.27432
0.15984
0.159835
0.160696
0.162635
0.165787
0.170585
0.177555
0.187174
0.19985
0.215693
0.233389
0.248918
0.260241
0.268264
0.273806
0.277538
0.279992
0.281534
0.282311
0.282452
0.136851
0.13689
0.1382
0.140996
0.145482
0.152217
0.161764
0.174616
0.191085
0.211098
0.232939
0.251844
0.26559
0.275379
0.282204
0.286851
0.289935
0.291883
0.292866
0.293048
0.106289
0.106452
0.108567
0.112872
0.119633
0.129471
0.142892
0.16024
0.181594
0.206657
0.233295
0.256023
0.272527
0.284382
0.292777
0.298609
0.302553
0.305086
0.306361
0.306591
0.0636417
0.0641423
0.0680904
0.0756026
0.086661
0.101703
0.120915
0.144323
0.171753
0.202713
0.234695
0.261592
0.281125
0.295324
0.305603
0.312963
0.31812
0.321564
0.323313
0.323609
0.000798689
0.0029188
0.0121945
0.0267039
0.0457623
0.0690803
0.0963618
0.127463
0.162071
0.199604
0.23729
0.268543
0.29126
0.307997
0.320428
0.329693
0.336519
0.341309
0.343914
0.344281
-0.0751779
-0.0709205
-0.0532067
-0.0275663
0.00203019
0.034814
0.0708583
0.110162
0.152463
0.197279
0.241661
0.278444
0.305536
0.325993
0.341753
0.354049
0.36386
0.370998
0.374366
0.375707
-0.151897
-0.141639
-0.115227
-0.0796005
-0.0403805
0.00158135
0.0462703
0.0936457
0.143579
0.195671
0.246782
0.289077
0.320414
0.344389
0.363211
0.378302
0.390486
0.399892
0.405575
0.407772
-0.210029
-0.198678
-0.167339
-0.125101
-0.0786257
-0.0290978
0.0231676
0.0779675
0.135041
0.193925
0.25119
0.298268
0.332962
0.359373
0.379979
0.396314
0.409371
0.419389
0.425591
0.427911
-0.256801
-0.244877
-0.210279
-0.163429
-0.11157
-0.0561757
0.00221302
0.0633306
0.126679
0.191676
0.254378
0.305411
0.342611
0.370561
0.392049
0.408857
0.422127
0.432305
0.43857
0.44088
-0.295273
-0.283365
-0.246741
-0.196373
-0.140279
-0.08027
-0.0167913
0.049706
0.118577
0.189009
0.256616
0.3112
0.350524
0.379678
0.401793
0.418854
0.432133
0.442224
0.448422
0.450654
-0.328518
-0.316709
-0.278652
-0.225508
-0.165951
-0.102001
-0.034164
0.0369914
0.1108
0.186257
0.258435
0.316251
0.357464
0.387642
0.41023
0.427436
0.440691
0.450707
0.456875
0.459018
-0.358212
-0.346521
-0.30738
-0.251991
-0.189585
-0.122292
-0.0506398
0.0247444
0.103054
0.183128
0.259592
0.32056
0.36366
0.394885
0.417987
0.435396
0.448679
0.458636
0.46481
0.466866
-0.385466
-0.373856
-0.333903
-0.276591
-0.211744
-0.141568
-0.06659
0.0125249
0.0949274
0.179415
0.260162
0.324382
0.369488
0.401865
0.425576
0.443252
0.456613
0.466549
0.472722
0.474693
-0.411079
-0.399504
-0.358759
-0.299809
-0.232878
-0.160217
-0.082328
0.000167385
0.0864079
0.175137
0.260162
0.327776
0.375086
0.408799
0.433252
0.451299
0.464807
0.47475
0.480903
0.482774
-0.435486
-0.423921
-0.382475
-0.322091
-0.253343
-0.178475
-0.0979708
-0.0124192
0.077361
0.170129
0.259472
0.330714
0.380505
0.415805
0.441191
0.459734
0.473463
0.483474
0.489572
0.491378
-0.459001
-0.447384
-0.405292
-0.34365
-0.27331
-0.196509
-0.113694
-0.0254036
0.0676434
0.164301
0.257977
0.333117
0.385723
0.422916
0.449477
0.468681
0.482734
0.492849
0.498906
0.500664
-0.481837
-0.470073
-0.427391
-0.364644
-0.292924
-0.214448
-0.129594
-0.038827
0.0572247
0.157582
0.255581
0.334849
0.390635
0.43008
0.458111
0.478194
0.492718
0.503022
0.50904
0.510753
-0.504022
-0.492087
-0.448862
-0.385136
-0.312215
-0.232275
-0.145636
-0.0526845
0.0460872
0.149899
0.252173
0.33574
0.395063
0.43716
0.467026
0.488262
0.50345
0.514047
0.52006
0.521689
-0.525648
-0.513498
-0.469742
-0.405142
-0.331186
-0.24999
-0.161816
-0.066953
0.0342392
0.141243
0.24762
0.335584
0.398773
0.443995
0.476123
0.49883
0.514872
0.525874
0.531922
0.533429
-0.546638
-0.534305
-0.490046
-0.424666
-0.34982
-0.267558
-0.17807
-0.0815731
0.0217393
0.13161
0.241855
0.3342
0.401523
0.450356
0.48525
0.509825
0.526958
0.538465
0.544551
0.545873
-0.567036
-0.554464
-0.509716
-0.44366
-0.368066
-0.284907
-0.19433
-0.0964532
0.00866661
0.121054
0.234855
0.331445
0.402995
0.455812
0.494076
0.521079
0.539634
0.55172
0.557782
0.558866
-0.586643
-0.573942
-0.528719
-0.462072
-0.385852
-0.301956
-0.210511
-0.11151
-0.00488539
0.109647
0.226595
0.327161
0.402847
0.459845
0.502136
0.532406
0.552903
0.565539
0.571304
0.572041
-0.605592
-0.592699
-0.547014
-0.479869
-0.403143
-0.31865
-0.226512
-0.126646
-0.0188138
0.0974915
0.217136
0.321259
0.400894
0.462071
0.508874
0.543475
0.567004
0.580275
0.584964
0.584971
-0.623726
-0.610668
-0.56458
-0.497002
-0.419853
-0.334907
-0.242246
-0.141734
-0.0329901
0.0846958
0.206566
0.313748
0.396934
0.462033
0.513461
0.553477
0.582058
0.597272
0.599488
0.597035
-0.641121
-0.627899
-0.581369
-0.513434
-0.435938
-0.350659
-0.257631
-0.156682
-0.0472924
0.0714258
0.194992
0.304645
0.390921
0.459284
0.514818
0.56077
0.596823
0.618256
0.620398
0.608053
-0.657677
-0.644365
-0.597496
-0.529306
-0.451599
-0.366182
-0.272996
-0.171908
-0.0622035
0.0571382
0.181815
0.293288
0.382137
0.453072
0.511308
0.56264
0.607407
0.638414
0.644936
0.641193
-0.673399
-0.660149
-0.612942
-0.544538
-0.466814
-0.381457
-0.288299
-0.187406
-0.0777259
0.0417667
0.166918
0.279413
0.370111
0.442964
0.50071
0.553243
0.600824
0.634193
0.624079