/*--------------------------------*- C++ -*----------------------------------*\
  =========                 |
  \\      /  F ield         | OpenFOAM: The Open Source CFD Toolbox
   \\    /   O peration     | Website:  https://openfoam.org
    \\  /    A nd           | Version:  6
     \\/     M anipulation  |
\*---------------------------------------------------------------------------*/
FoamFile
{
    version     2.0;
    format      ascii;
    class       volScalarField;
    location    "97.6";
    object      p;
}
// * * * * * * * * * * * * * * * * * * * * * * * * * * * * * * * * * * * * * //

dimensions      [0 2 -2 0 0 0 0];

internalField   nonuniform List<scalar> 
8800
(
0.877035
0.827721
0.789757
0.761691
0.741534
0.726953
0.716364
0.708836
0.703968
0.701922
0.703317
0.707681
0.714491
0.723929
0.736675
0.754002
0.777884
0.810985
0.853924
0.906439
0.711523
0.717868
0.72702
0.730572
0.727967
0.721884
0.714951
0.70872
0.703934
0.701085
0.70088
0.703533
0.708195
0.714339
0.721451
0.728493
0.733378
0.733259
0.726588
0.717693
0.685026
0.691263
0.695766
0.699641
0.702595
0.703552
0.702474
0.700367
0.698406
0.697593
0.698655
0.701134
0.704041
0.706327
0.706861
0.705081
0.701723
0.697716
0.692938
0.689223
0.680707
0.683473
0.686083
0.688246
0.689991
0.691568
0.692684
0.693054
0.692963
0.693092
0.693931
0.695105
0.695871
0.695741
0.694781
0.693439
0.691779
0.689484
0.687078
0.685512
0.675625
0.677052
0.678895
0.680983
0.682704
0.684008
0.685121
0.686122
0.686959
0.687732
0.688485
0.688982
0.689037
0.688698
0.68805
0.68695
0.685307
0.683422
0.682074
0.681272
0.670602
0.671506
0.672757
0.674392
0.676096
0.677643
0.678946
0.680094
0.681192
0.682255
0.683092
0.683528
0.683576
0.68324
0.682463
0.681294
0.67995
0.678696
0.677881
0.677356
0.665651
0.666308
0.667275
0.668602
0.670063
0.671598
0.673106
0.674502
0.675807
0.677068
0.678082
0.678635
0.678702
0.678305
0.677557
0.676641
0.675671
0.674782
0.674208
0.673823
0.66077
0.661275
0.662067
0.66322
0.664537
0.665977
0.667515
0.669095
0.670659
0.672185
0.673419
0.674101
0.674243
0.673973
0.673451
0.672797
0.672088
0.671444
0.671025
0.670724
0.655901
0.656302
0.65697
0.658005
0.659256
0.660649
0.66219
0.663879
0.665674
0.667505
0.66902
0.669919
0.670274
0.670251
0.669985
0.669563
0.669069
0.668624
0.668317
0.668072
0.65096
0.651287
0.651869
0.65283
0.654041
0.655431
0.657019
0.658824
0.660837
0.662996
0.664876
0.666112
0.666781
0.667047
0.667038
0.66686
0.666575
0.666297
0.666076
0.66587
0.645857
0.646128
0.646651
0.64757
0.648773
0.650201
0.651881
0.653849
0.656122
0.658663
0.661
0.662669
0.663718
0.664312
0.664587
0.664658
0.664585
0.664459
0.664306
0.664127
0.640497
0.640725
0.641211
0.642119
0.643355
0.644865
0.646681
0.648871
0.651477
0.654494
0.657387
0.659574
0.661068
0.66204
0.662635
0.662963
0.663116
0.663132
0.663037
0.662877
0.634782
0.634976
0.635445
0.636373
0.637682
0.639319
0.64133
0.643812
0.646843
0.650448
0.654015
0.65682
0.658835
0.660244
0.661205
0.661837
0.662217
0.662365
0.662318
0.662169
0.628601
0.628768
0.629237
0.630213
0.631637
0.633455
0.635729
0.638589
0.642151
0.646478
0.650861
0.654404
0.65704
0.658957
0.660339
0.661311
0.661937
0.662219
0.662214
0.662072
0.621827
0.621971
0.622454
0.623507
0.625092
0.627152
0.629768
0.633107
0.637327
0.642535
0.647903
0.652332
0.655702
0.658219
0.660084
0.661445
0.662352
0.662772
0.662805
0.662665
0.614307
0.614426
0.61494
0.616099
0.617897
0.62027
0.623321
0.627259
0.632291
0.638571
0.645125
0.650608
0.654848
0.658076
0.660516
0.662329
0.66355
0.664115
0.664181
0.664039
0.605846
0.605949
0.606497
0.607797
0.609867
0.612637
0.616235
0.620919
0.626951
0.634532
0.642508
0.649248
0.654513
0.658576
0.661709
0.664053
0.665625
0.666341
0.666438
0.66629
0.596156
0.59626
0.596877
0.598351
0.600775
0.604045
0.608329
0.613941
0.621202
0.630365
0.640041
0.648264
0.654741
0.659788
0.663733
0.666698
0.66867
0.669543
0.669666
0.669507
0.584941
0.585022
0.585724
0.587455
0.590324
0.594231
0.59938
0.606151
0.614929
0.62601
0.637714
0.647678
0.655572
0.661776
0.666658
0.670354
0.672766
0.673796
0.673937
0.673764
0.57178
0.571848
0.572662
0.574706
0.57814
0.582865
0.589117
0.59735
0.608007
0.621414
0.635522
0.647518
0.657045
0.66459
0.670563
0.675086
0.677968
0.679144
0.679293
0.679103
0.556068
0.556128
0.557094
0.559561
0.563742
0.569534
0.577215
0.587314
0.600315
0.61654
0.633475
0.64781
0.659197
0.668271
0.675479
0.680919
0.684282
0.685578
0.685719
0.68551
0.536971
0.537027
0.538217
0.541279
0.546478
0.553711
0.56329
0.575809
0.591756
0.611384
0.631604
0.648586
0.662062
0.672841
0.681404
0.687834
0.691642
0.693007
0.69312
0.692891
0.513249
0.51331
0.514855
0.518814
0.525478
0.534734
0.546917
0.562636
0.582293
0.605999
0.629975
0.649891
0.665654
0.678292
0.68831
0.695729
0.699885
0.70124
0.701301
0.701055
0.482968
0.48306
0.485221
0.490638
0.499604
0.511847
0.527719
0.547701
0.571999
0.600511
0.628697
0.651787
0.669984
0.684571
0.696112
0.70441
0.708732
0.70997
0.709959
0.709703
0.442848
0.44308
0.446517
0.454632
0.467494
0.484393
0.505542
0.531138
0.561112
0.595139
0.627924
0.654362
0.675058
0.691628
0.704641
0.713576
0.717792
0.718798
0.718704
0.718449
0.38664
0.387821
0.394705
0.408457
0.428143
0.452257
0.480729
0.51342
0.550053
0.590186
0.627826
0.657697
0.680882
0.699356
0.713651
0.722827
0.726592
0.72728
0.727114
0.726873
0.305288
0.313283
0.329159
0.353276
0.383175
0.416952
0.454327
0.495115
0.53907
0.585777
0.628584
0.662129
0.688008
0.708509
0.723751
0.732726
0.735824
0.736195
0.73599
0.735792
0.218521
0.236075
0.261873
0.297123
0.337792
0.381344
0.42759
0.47653
0.528023
0.581755
0.630379
0.668196
0.697313
0.720013
0.735989
0.744033
0.746152
0.746242
0.746071
0.74595
0.143986
0.165471
0.199549
0.244324
0.294522
0.347278
0.402147
0.459065
0.517866
0.57824
0.632187
0.673808
0.705684
0.730088
0.746115
0.752965
0.754365
0.75436
0.754232
0.754146
0.0827016
0.10658
0.14634
0.19795
0.255573
0.315989
0.378433
0.442623
0.508197
0.574729
0.633537
0.678538
0.712753
0.738411
0.754269
0.760306
0.761356
0.761318
0.761211
0.761138
0.0317469
0.0570718
0.100942
0.157851
0.221395
0.288077
0.356924
0.427476
0.499141
0.571295
0.63455
0.682598
0.718871
0.74557
0.761227
0.766656
0.7675
0.767443
0.767346
0.767274
-0.0114795
0.0146934
0.0615968
0.122785
0.191289
0.263294
0.337654
0.413792
0.490919
0.568198
0.635511
0.686307
0.724374
0.751876
0.767271
0.772251
0.772983
0.77292
0.772827
0.772751
-0.0490573
-0.0223381
0.026924
0.091657
0.164395
0.24104
0.320288
0.401453
0.483575
0.565585
0.636636
0.689881
0.729441
0.757496
0.77258
0.777236
0.777917
0.777867
0.777785
0.777702
-0.0825073
-0.0553758
-0.00418364
0.0635723
0.13999
0.220725
0.304383
0.39017
0.47696
0.563445
0.638003
0.693478
0.73428
0.762659
0.777381
0.781784
0.782455
0.782449
0.782394
0.782306
-0.112895
-0.0854026
-0.0325808
0.0378185
0.117489
0.201875
0.289545
0.379626
0.470854
0.561671
0.639636
0.697218
0.739108
0.767655
0.781979
0.786167
0.786854
0.786918
0.786912
0.786826
-0.141069
-0.113209
-0.0589345
0.0138567
0.0964273
0.184104
0.275444
0.369549
0.465039
0.560129
0.641527
0.701213
0.744145
0.772799
0.786729
0.790721
0.791424
0.791569
0.791624
0.79155
-0.167467
-0.139277
-0.0836771
-0.00874221
0.0764423
0.167105
0.261827
0.359711
0.459326
0.558701
0.64366
0.705551
0.749573
0.778344
0.791929
0.795736
0.796434
0.796642
0.796754
0.796696
-0.192612
-0.164014
-0.10719
-0.030297
0.0572541
0.150636
0.24849
0.349931
0.453543
0.557256
0.645987
0.710279
0.755479
0.784435
0.797715
0.801336
0.801996
0.802234
0.802389
0.802348
-0.216678
-0.187672
-0.129701
-0.0510297
0.0386616
0.134527
0.235274
0.340064
0.447537
0.555655
0.648434
0.715407
0.761913
0.791088
0.804067
0.807489
0.808074
0.808303
0.808474
0.808449
-0.239856
-0.210422
-0.151386
-0.0710892
0.0205398
0.118662
0.222066
0.329988
0.441181
0.553735
0.650876
0.720902
0.768876
0.798236
0.810862
0.814028
0.814501
0.81469
0.814856
0.814845
-0.262284
-0.232384
-0.172345
-0.090564
0.00279689
0.102965
0.208798
0.319627
0.434364
0.551339
0.653149
0.726712
0.776427
0.805879
0.817945
0.820719
0.821053
0.821186
0.821328
0.821336
-0.284068
-0.253658
-0.192627
-0.109504
-0.0145975
0.0873972
0.195436
0.308932
0.427002
0.548316
0.65507
0.732745
0.784641
0.814126
0.825216
0.827337
0.827487
0.827593
0.827704
0.827705
-0.305118
-0.274225
-0.212251
-0.127945
-0.0316645
0.0719622
0.181966
0.297891
0.41905
0.544557
0.656434
0.738842
0.793596
0.823255
0.832888
0.83377
0.83354
0.833725
0.833929
0.83391
-0.325447
-0.294096
-0.231247
-0.14589
-0.0483946
0.056669
0.168421
0.286507
0.410496
0.539962
0.657042
0.744787
0.8033
0.833722
0.841648
0.840433
0.83919
0.839541
0.840269
0.840425
-0.345137
-0.313269
-0.249629
-0.163338
-0.064762
0.0415587
0.154839
0.274822
0.401348
0.534479
0.656689
0.750303
0.813605
0.845861
0.852574
0.84874
0.845408
0.8456
0.847541
0.848714
-0.364073
-0.33174
-0.267368
-0.180252
-0.0807396
0.0266831
0.141281
0.262896
0.391652
0.5281
0.655197
0.755053
0.824161
0.859624
0.86654
0.860792
0.854721
0.852912
0.854526
0.855871
-0.382352
-0.349545
-0.284485
-0.196681
-0.0963784
0.0119891
0.12768
0.250658
0.381323
0.520734
0.65237
0.758718
0.834671
0.874681
0.883623
0.877795
0.869383
0.861577
0.853438
0.856298
-0.399924
-0.366748
-0.301127
-0.212824
-0.111972
-0.00284206
0.113643
0.237656
0.369866
0.511829
0.647665
0.760701
0.844978
0.890963
0.903206
0.899077
0.887735
0.872506
0.850132
0.852614
-0.416677
-0.383345
-0.317149
-0.228503
-0.127272
-0.0175287
0.0993405
0.224167
0.357503
0.501498
0.640873
0.759884
0.853614
0.906734
0.92107
0.917188
0.90293
0.871105
0.815037
0.791807
-0.432517
-0.400355
-0.332161
-0.243291
-0.141479
-0.0315839
0.085053
0.210463
0.344502
0.489875
0.631929
0.755416
0.858777
0.919979
0.931281
0.921507
0.894348
0.835653
0.772993
0.735255
-0.47429
-0.417146
-0.345863
-0.25815
-0.155367
-0.0460125
0.0709269
0.196404
0.330622
0.476537
0.620236
0.746301
0.856458
0.924924
0.9293
0.89847
0.835369
0.761521
0.689926
0.650363
-0.447892
-0.42909
-0.366637
-0.278283
-0.176954
-0.0677288
0.0486771
0.173811
0.307664
0.453182
0.597037
0.723607
0.827879
0.903736
0.872788
0.746159
0.644557
0.573989
0.505699
0.526913
-0.477648
-0.44574
-0.382407
-0.294485
-0.193515
-0.0843821
0.032332
0.156989
0.290118
0.434397
0.576395
0.700004
0.793092
0.835303
0.767066
0.612485
0.493035
0.412419
0.326214
0.365348
-0.500392
-0.466189
-0.401167
-0.313193
-0.212263
-0.103091
0.0135991
0.137599
0.269578
0.411789
0.550302
0.6679
0.74871
0.752819
0.62942
0.462234
0.324265
0.224805
0.125803
0.151177
-0.52235
-0.487186
-0.420872
-0.332279
-0.231274
-0.122192
-0.00596914
0.117153
0.247668
0.387228
0.520893
0.628963
0.692114
0.662138
0.488427
0.301883
0.135174
-0.00378154
-0.131702
-0.125413
-0.543926
-0.508458
-0.441313
-0.35218
-0.251062
-0.1422
-0.0266244
0.0954151
0.224083
0.360406
0.487975
0.586065
0.627654
0.54699
0.349039
0.144262
-0.047356
-0.204768
-0.411072
-0.491395
-0.565809
-0.530483
-0.462891
-0.373407
-0.272177
-0.163524
-0.0485707
0.07229
0.198884
0.331519
0.452155
0.540692
0.553302
0.421588
0.221184
0.00601187
-0.189791
-0.352943
-0.476524
-0.590692
-0.589061
-0.553738
-0.485961
-0.396345
-0.295157
-0.186841
-0.0726439
0.0468025
0.170878
0.299081
0.412042
0.486974
0.470071
0.302267
0.10115
-0.107563
-0.286599
-0.385259
-0.41125
-0.424391
-0.613822
-0.578517
-0.510648
-0.421079
-0.320147
-0.212376
-0.0992273
0.0184254
0.139427
0.262273
0.366905
0.422507
0.384758
0.187427
-0.0112608
-0.199544
-0.335
-0.373501
-0.382029
-0.382365
-0.640381
-0.60495
-0.536996
-0.447599
-0.347097
-0.240146
-0.128359
-0.0129168
0.10444
0.221084
0.316545
0.354142
0.281172
0.08195
-0.109882
-0.273489
-0.349605
-0.363727
-0.364759
-0.364631
-0.668743
-0.633071
-0.565032
-0.475911
-0.376037
-0.270153
-0.160064
-0.0472598
0.0659183
0.17563
0.26065
0.281618
0.16944
-0.0142525
-0.195015
-0.324527
-0.35391
-0.354571
-0.35516
-0.354766
-0.698661
-0.662727
-0.594665
-0.505946
-0.406893
-0.302361
-0.194334
-0.0845963
0.0239138
0.126046
0.200459
0.201363
0.0709128
-0.101969
-0.261555
-0.336271
-0.351129
-0.349282
-0.349013
-0.348641
-0.729586
-0.693573
-0.62564
-0.537482
-0.439487
-0.336623
-0.23103
-0.124815
-0.0213477
0.0728109
0.136337
0.120654
-0.0190169
-0.178639
-0.306475
-0.345311
-0.344666
-0.3448
-0.344529
-0.344222
-0.761077
-0.72508
-0.657475
-0.570108
-0.473474
-0.372622
-0.269873
-0.167641
-0.0695649
0.0168971
0.0672115
0.0446869
-0.0994117
-0.239183
-0.333144
-0.34131
-0.342261
-0.342325
-0.342116
-0.341863
-0.79216
-0.756387
-0.689452
-0.603197
-0.508307
-0.40988
-0.310396
-0.212573
-0.120306
-0.0408015
-0.00162184
-0.0311953
-0.167421
-0.281595
-0.338627
-0.348514
-0.342721
-0.341512
-0.341024
-0.340754
-0.821159
-0.786223
-0.72054
-0.635867
-0.543207
-0.447688
-0.351922
-0.258861
-0.172779
-0.0997892
-0.0653274
-0.108874
-0.222183
-0.314033
-0.33664
-0.339975
-0.340807
-0.340366
-0.340091
-0.339933
-0.846865
-0.813089
-0.749349
-0.666921
-0.577115
-0.485102
-0.393561
-0.305575
-0.225707
-0.15955
-0.127307
-0.175662
-0.263445
-0.33287
-0.353644
-0.343367
-0.339978
-0.338926
-0.338667
-0.338563
-0.866652
-0.834897
-0.774133
-0.694844
-0.608717
-0.520934
-0.434198
-0.35164
-0.277765
-0.218296
-0.188757
-0.227631
-0.290534
-0.335916
-0.341133
-0.340364
-0.338444
-0.337856
-0.337709
-0.337565
-0.878504
-0.849564
-0.792834
-0.717903
-0.636493
-0.553796
-0.47252
-0.395777
-0.327874
-0.273419
-0.244944
-0.27081
-0.306087
-0.334156
-0.333586
-0.336929
-0.338379
-0.338436
-0.338337
-0.338207
-0.879748
-0.854732
-0.803373
-0.734262
-0.658815
-0.582231
-0.507101
-0.436505
-0.374847
-0.324199
-0.29161
-0.309647
-0.317764
-0.335094
-0.337971
-0.338402
-0.339474
-0.339792
-0.339832
-0.339807
-0.868031
-0.847784
-0.803626
-0.742196
-0.674221
-0.604875
-0.536603
-0.472353
-0.41687
-0.371769
-0.326772
-0.345022
-0.32924
-0.333329
-0.338681
-0.340086
-0.34109
-0.341814
-0.34219
-0.342322
-0.841202
-0.826417
-0.791774
-0.74049
-0.681675
-0.620724
-0.560034
-0.502225
-0.452106
-0.414543
-0.366645
-0.361908
-0.354093
-0.350484
-0.346526
-0.347765
-0.347211
-0.347477
-0.347885
-0.348026
-0.802725
-0.793305
-0.769037
-0.729442
-0.681206
-0.629547
-0.576827
-0.525497
-0.480196
-0.448347
-0.41701
-0.393487
-0.375896
-0.392368
-0.394342
-0.376185
-0.363414
-0.359464
-0.358961
-0.358742
-0.759629
-0.754259
-0.740333
-0.712145
-0.674907
-0.632203
-0.587065
-0.541865
-0.500508
-0.470054
-0.441978
-0.416677
-0.388525
-0.372452
-0.348749
-0.346142
-0.36119
-0.371934
-0.374736
-0.374543
-0.721706
-0.718424
-0.711785
-0.693895
-0.665645
-0.630493
-0.591798
-0.55127
-0.511916
-0.4794
-0.453339
-0.42899
-0.402084
-0.378989
-0.384483
-0.420583
-0.438126
-0.427778
-0.420705
-0.424339
-0.694411
-0.692465
-0.689087
-0.678526
-0.657076
-0.627535
-0.592923
-0.554682
-0.514893
-0.479382
-0.452311
-0.43547
-0.457354
-0.518138
-0.598369
-0.666815
-0.688367
-0.65811
-0.609586
-0.594951
-0.674438
-0.673749
-0.672607
-0.667394
-0.651733
-0.625855
-0.592525
-0.554041
-0.511926
-0.469643
-0.438812
-0.419996
-0.435294
-0.503181
-0.610846
-0.639203
-0.6192
-0.579111
-0.534277
-0.511683
-0.662841
-0.662614
-0.661999
-0.659588
-0.64898
-0.625256
-0.591492
-0.551089
-0.504367
-0.4524
-0.409134
-0.351222
-0.299604
-0.261423
-0.272303
-0.273138
-0.222827
-0.163915
-0.116282
-0.0932927
-0.654885
-0.654737
-0.654326
-0.653624
-0.647147
-0.625763
-0.591199
-0.54735
-0.494917
-0.43162
-0.366231
-0.282644
-0.148928
0.0245629
0.198399
0.347677
0.457706
0.520577
0.557051
0.571398
-0.649783
-0.649733
-0.649596
-0.64941
-0.64555
-0.627598
-0.59203
-0.544144
-0.485682
-0.411801
-0.327543
-0.230126
-0.0446223
0.233053
0.529697
0.799638
0.986463
1.07475
1.10429
1.11098
-0.645755
-0.645748
-0.645674
-0.645548
-0.644158
-0.630107
-0.59434
-0.54282
-0.478989
-0.397363
-0.301762
-0.197592
0.00124883
0.300043
0.622231
0.91791
1.13505
1.24481
1.28009
1.28763
-0.642433
-0.642476
-0.642429
-0.642262
-0.642049
-0.632222
-0.598168
-0.544524
-0.476769
-0.391608
-0.291376
-0.186472
-0.00931961
0.264888
0.560646
0.830458
1.03377
1.14213
1.18345
1.19499
-0.639934
-0.640006
-0.640071
-0.640143
-0.640648
-0.633661
-0.603018
-0.549269
-0.480404
-0.394332
-0.295412
-0.198399
-0.0467351
0.194338
0.444418
0.667394
0.842924
0.945454
0.988322
1.00046
-0.637689
-0.637784
-0.637873
-0.637955
-0.637874
-0.634232
-0.608088
-0.557586
-0.489408
-0.404481
-0.312759
-0.22751
-0.112825
0.0898596
0.304058
0.484304
0.629448
0.720514
0.757997
0.76751
-0.637311
-0.637313
-0.636837
-0.635506
-0.633663
-0.632445
-0.613757
-0.568795
-0.501986
-0.420983
-0.33829
-0.264645
-0.178711
-0.0189398
0.155737
0.298339
0.410386
0.481527
0.509793
0.515875
-0.640848
-0.640874
-0.64053
-0.639255
-0.637143
-0.636386
-0.624984
-0.582771
-0.51653
-0.440961
-0.367998
-0.303371
-0.239127
-0.116251
0.019764
0.127859
0.211584
0.262942
0.28247
0.285599
-0.645907
-0.646534
-0.648574
-0.653587
-0.660316
-0.66257
-0.648054
-0.598437
-0.531371
-0.464134
-0.399471
-0.34202
-0.294516
-0.203515
-0.100162
-0.020257
0.0400753
0.075588
0.0876535
0.0892194
-0.648064
-0.649377
-0.654266
-0.667823
-0.68826
-0.695377
-0.671871
-0.60977
-0.546677
-0.489219
-0.427968
-0.377121
-0.339163
-0.271373
-0.194698
-0.137912
-0.0971894
-0.0739902
-0.065908
-0.0650862
-0.652297
-0.65335
-0.657081
-0.665349
-0.67955
-0.689192
-0.656989
-0.606216
-0.56203
-0.511187
-0.452948
-0.408124
-0.378767
-0.325859
-0.269676
-0.230607
-0.203346
-0.189404
-0.184854
-0.18478
-0.666556
-0.667144
-0.667708
-0.655375
-0.620296
-0.591733
-0.591982
-0.589169
-0.572184
-0.52761
-0.472636
-0.434953
-0.409116
-0.368275
-0.32548
-0.29747
-0.279913
-0.270583
-0.267623
-0.267569
-0.686809
-0.686429
-0.683001
-0.654885
-0.587464
-0.529348
-0.543891
-0.586716
-0.584757
-0.540998
-0.489557
-0.457511
-0.432616
-0.397005
-0.362489
-0.340299
-0.325378
-0.318364
-0.315626
-0.315547
-0.717064
-0.714108
-0.71292
-0.703436
-0.674671
-0.636522
-0.633116
-0.647746
-0.622208
-0.556067
-0.50689
-0.474412
-0.450464
-0.416651
-0.382606
-0.360391
-0.345738
-0.337576
-0.334363
-0.334395
-0.799747
-0.802704
-0.830503
-0.87299
-0.894526
-0.876127
-0.836186
-0.770334
-0.672817
-0.576992
-0.522041
-0.485217
-0.458656
-0.426203
-0.392603
-0.36654
-0.347004
-0.336122
-0.332586
-0.332993
-0.932252
-0.947523
-0.990522
-1.03856
-1.06223
-1.04755
-0.986258
-0.869312
-0.713789
-0.594442
-0.529159
-0.484241
-0.458907
-0.424647
-0.387478
-0.358729
-0.337637
-0.326126
-0.322576
-0.323277
-1.01367
-1.03023
-1.06327
-1.09664
-1.11596
-1.10155
-1.03251
-0.878042
-0.705023
-0.589211
-0.513389
-0.468465
-0.447249
-0.412555
-0.373871
-0.344953
-0.324374
-0.313424
-0.310099
-0.310872
-0.981381
-0.992213
-1.01505
-1.04034
-1.05718
-1.04622
-0.977648
-0.811525
-0.657655
-0.548978
-0.470015
-0.436783
-0.418115
-0.381551
-0.346688
-0.322332
-0.305644
-0.297002
-0.29443
-0.295033
-0.834594
-0.845392
-0.86581
-0.890388
-0.909578
-0.902144
-0.83377
-0.698641
-0.580105
-0.476108
-0.411348
-0.386258
-0.366143
-0.333666
-0.305954
-0.287647
-0.275849
-0.270251
-0.268496
-0.268924
-0.605344
-0.616836
-0.638845
-0.667182
-0.691499
-0.689313
-0.633014
-0.546924
-0.460265
-0.384257
-0.342894
-0.315399
-0.297785
-0.273047
-0.252703
-0.239871
-0.231619
-0.22773
-0.226516
-0.226964
-0.336792
-0.346315
-0.366733
-0.397254
-0.427891
-0.438318
-0.415988
-0.374757
-0.326607
-0.286888
-0.25789
-0.234041
-0.222636
-0.203755
-0.190324
-0.181611
-0.175132
-0.171701
-0.171056
-0.171741
-0.105688
-0.112871
-0.130827
-0.160018
-0.194365
-0.222529
-0.233004
-0.226474
-0.207527
-0.188581
-0.166453
-0.154994
-0.145714
-0.135108
-0.127276
-0.120831
-0.114932
-0.111876
-0.111884
-0.112791
0.0167469
0.0106977
-0.00368556
-0.0271485
-0.05637
-0.0848999
-0.104641
-0.109923
-0.104865
-0.0966505
-0.088082
-0.0783677
-0.0748118
-0.0710665
-0.0681732
-0.0636539
-0.0586578
-0.056463
-0.0571097
-0.0581373
0.02871
0.0261282
0.020697
0.0113193
0.000242442
-0.00908731
-0.0159057
-0.0203581
-0.0212161
-0.0207951
-0.019844
-0.0163744
-0.0128199
-0.0133277
-0.0130091
-0.0140662
-0.0148187
-0.0151369
-0.0136655
-0.0130657
2.08357e-06
0.184386
0.352901
0.494718
0.606638
0.693333
0.764408
0.821909
0.835614
0.832689
0.279635
0.397244
0.507094
0.601496
0.680159
0.744472
0.794874
0.828899
0.847164
0.8641
0.468591
0.546515
0.623396
0.690578
0.747528
0.79461
0.831743
0.860256
0.881806
0.90109
0.608291
0.66376
0.719443
0.769309
0.812291
0.848885
0.879693
0.905614
0.925511
0.944424
0.721604
0.763393
0.804829
0.84364
0.878357
0.909118
0.936077
0.959012
0.976772
0.994869
0.816301
0.851067
0.885274
0.918103
0.948418
0.975928
1.00029
1.02082
1.0364
1.05389
0.903066
0.934468
0.966105
0.996742
1.02527
1.05125
1.07406
1.09278
1.10655
1.12356
0.98901
1.02125
1.0533
1.08419
1.11269
1.13824
1.16017
1.17754
1.18981
1.20631
1.08281
1.11912
1.15369
1.18595
1.21494
1.24012
1.26109
1.27726
1.28879
1.30491
1.19563
1.23636
1.27321
1.30592
1.33423
1.35809
1.37762
1.39282
1.40465
1.4207
1.33707
1.37794
1.41308
1.44251
1.4676
1.48914
1.50758
1.52302
1.5361
1.55203
1.50837
1.54031
1.56726
1.5896
1.60965
1.62833
1.64604
1.66278
1.67767
1.69339
1.6944
1.71159
1.72867
1.74535
1.76143
1.77615
1.79004
1.80451
1.81973
1.83703
1.87778
1.88769
1.90085
1.91182
1.92123
1.93088
1.94147
1.95164
1.96092
1.98659
2.09557
2.08987
2.07691
2.06266
2.05635
2.06205
2.08019
2.10871
2.14247
2.1788
2.39839
2.26245
2.18293
2.14037
2.12304
2.12703
2.15445
2.21232
2.31997
2.49838
0.780726
0.774424
0.766697
0.755587
0.742023
0.729384
0.719002
0.711013
0.705327
0.702041
0.701748
0.704637
0.709916
0.717307
0.726881
0.738728
0.752303
0.765241
0.774236
0.78178
0.689779
0.6957
0.703776
0.709914
0.712991
0.712491
0.709421
0.70545
0.701896
0.69966
0.699588
0.701903
0.705707
0.710191
0.714319
0.716585
0.715525
0.710899
0.703851
0.696021
0.683003
0.685376
0.688648
0.691428
0.693889
0.696092
0.697291
0.697171
0.696273
0.69552
0.695805
0.69729
0.699129
0.700401
0.700359
0.698916
0.696776
0.694427
0.691454
0.68844
0.678178
0.679266
0.681188
0.683535
0.68542
0.686835
0.688076
0.689101
0.689746
0.690187
0.690823
0.691649
0.692183
0.692116
0.691527
0.690634
0.689325
0.687372
0.685276
0.683802
0.673106
0.673739
0.674874
0.676643
0.678502
0.680116
0.681395
0.682496
0.683532
0.684505
0.685389
0.686007
0.686225
0.68608
0.685591
0.684653
0.683253
0.681664
0.68034
0.679542
0.66812
0.668558
0.669353
0.67067
0.672211
0.673799
0.675311
0.676653
0.677871
0.679048
0.680117
0.680837
0.681112
0.680952
0.680347
0.679394
0.678275
0.677157
0.67627
0.675739
0.663208
0.663534
0.664153
0.665238
0.666557
0.667988
0.669507
0.671036
0.672503
0.673912
0.675199
0.676087
0.676431
0.67628
0.675757
0.67503
0.674229
0.673407
0.672764
0.672375
0.658342
0.658595
0.659095
0.660026
0.661226
0.662571
0.664042
0.665635
0.667305
0.668994
0.670558
0.67165
0.672138
0.672155
0.671865
0.671391
0.670813
0.670227
0.669767
0.669471
0.653449
0.653649
0.654067
0.65489
0.656019
0.657324
0.658791
0.660443
0.662273
0.664233
0.666127
0.66752
0.668278
0.668568
0.668541
0.668313
0.667956
0.667572
0.667256
0.667024
0.648439
0.648599
0.64896
0.649713
0.650801
0.652098
0.653607
0.65536
0.657371
0.659622
0.661906
0.663709
0.664836
0.665453
0.665712
0.665738
0.665614
0.665417
0.66522
0.665035
0.643219
0.643349
0.643668
0.64438
0.645459
0.646792
0.648384
0.650286
0.652536
0.655144
0.657905
0.660212
0.661782
0.66278
0.663365
0.663669
0.663778
0.663767
0.663674
0.663525
0.637695
0.637799
0.638091
0.638788
0.639894
0.641307
0.643028
0.645136
0.647699
0.650757
0.654104
0.657017
0.65911
0.660549
0.661506
0.662115
0.662486
0.662658
0.662655
0.662532
0.631762
0.631843
0.63212
0.632827
0.633996
0.635531
0.637439
0.639823
0.642787
0.646404
0.650467
0.654109
0.656823
0.658779
0.660163
0.661139
0.661786
0.66214
0.66222
0.662118
0.625302
0.625363
0.625634
0.626374
0.627642
0.629349
0.631508
0.634252
0.637719
0.642027
0.646959
0.651478
0.654933
0.6575
0.659379
0.660761
0.661726
0.66228
0.662441
0.662355
0.618172
0.618214
0.618489
0.619284
0.620691
0.622624
0.625112
0.628312
0.632407
0.637562
0.643547
0.649118
0.653454
0.656744
0.659209
0.661061
0.662392
0.663163
0.663403
0.663328
0.610216
0.610233
0.610511
0.611384
0.612973
0.615198
0.618101
0.621875
0.626749
0.63294
0.640197
0.647026
0.652407
0.656549
0.659712
0.662129
0.663875
0.664882
0.6652
0.665133
0.601161
0.601171
0.601476
0.602453
0.604278
0.606873
0.610299
0.614788
0.620626
0.628084
0.636875
0.645202
0.651821
0.656966
0.66095
0.664041
0.666266
0.667531
0.667926
0.667861
0.590748
0.590731
0.591078
0.592208
0.594334
0.597401
0.601487
0.606872
0.613904
0.622911
0.633549
0.643651
0.651724
0.658052
0.663003
0.666875
0.669655
0.671198
0.671665
0.671598
0.578611
0.578574
0.578972
0.580289
0.582795
0.586467
0.591394
0.597909
0.606428
0.617334
0.63019
0.642383
0.65215
0.659854
0.665941
0.670709
0.674115
0.675947
0.676477
0.676402
0.564233
0.564174
0.564652
0.566224
0.56922
0.573674
0.579684
0.587642
0.59803
0.611267
0.626776
0.641415
0.653131
0.66241
0.669813
0.675601
0.679689
0.681804
0.68238
0.68229
0.546907
0.546825
0.547433
0.549361
0.553012
0.558507
0.565944
0.575778
0.588541
0.604648
0.623312
0.640775
0.654703
0.665764
0.674626
0.681559
0.686367
0.688732
0.689323
0.689209
0.525609
0.52551
0.526327
0.528776
0.53335
0.540289
0.549672
0.562002
0.577819
0.597463
0.619838
0.640504
0.656898
0.669925
0.680384
0.688555
0.69406
0.696598
0.697162
0.697017
0.498787
0.49869
0.499859
0.503117
0.509101
0.518145
0.5303
0.546038
0.565802
0.58977
0.616448
0.640674
0.659744
0.674888
0.687056
0.69649
0.702578
0.705163
0.705646
0.705467
0.463924
0.463883
0.465689
0.470348
0.478704
0.491083
0.507329
0.527761
0.552588
0.581743
0.6133
0.641391
0.663281
0.680632
0.694554
0.705176
0.711617
0.714068
0.714417
0.714205
0.416554
0.416745
0.419969
0.427587
0.440373
0.458251
0.480595
0.507378
0.538507
0.57369
0.610607
0.642781
0.667563
0.687114
0.702752
0.714341
0.720754
0.722854
0.723033
0.722802
0.348309
0.349792
0.357664
0.372126
0.393109
0.419763
0.450721
0.485586
0.524139
0.566018
0.608606
0.644941
0.672612
0.694255
0.711368
0.723488
0.729417
0.730975
0.730994
0.730773
0.266795
0.269674
0.285024
0.310051
0.342289
0.379284
0.41953
0.462874
0.509216
0.558288
0.607228
0.648475
0.679733
0.704049
0.722674
0.734785
0.739947
0.741029
0.740991
0.740859
0.183217
0.19071
0.2138
0.249371
0.292465
0.339579
0.389102
0.440946
0.495083
0.551299
0.606514
0.652582
0.687289
0.71418
0.7342
0.745786
0.749663
0.750185
0.750109
0.750033
0.114713
0.124339
0.152328
0.195354
0.246935
0.30259
0.360445
0.420224
0.481746
0.544703
0.605726
0.656127
0.693852
0.722777
0.743476
0.754322
0.757439
0.757783
0.757715
0.757666
0.0584651
0.06885
0.100567
0.149108
0.207086
0.269529
0.334341
0.40104
0.469213
0.53835
0.604705
0.659033
0.69941
0.730056
0.751231
0.761484
0.764103
0.764342
0.764284
0.764247
0.0112923
0.0220346
0.0563149
0.109136
0.172313
0.240369
0.311021
0.383678
0.45773
0.532453
0.603677
0.661582
0.704344
0.73646
0.757939
0.767685
0.76998
0.770165
0.77011
0.770078
-0.0292463
-0.0183527
0.01783
0.0740706
0.141576
0.214434
0.290165
0.368067
0.447391
0.5272
0.602898
0.664048
0.708896
0.742208
0.763826
0.773129
0.775223
0.775384
0.775337
0.775308
-0.0648691
-0.0539314
-0.0162687
0.0427996
0.113988
0.191014
0.27125
0.353892
0.438059
0.5226
0.602472
0.666595
0.713254
0.74748
0.769073
0.777986
0.779954
0.780127
0.780108
0.780085
-0.0968477
-0.085902
-0.047068
0.0144314
0.0888239
0.169523
0.253796
0.340782
0.429468
0.518518
0.602389
0.669315
0.717599
0.752523
0.773959
0.7825
0.784385
0.784601
0.784635
0.784634
-0.126215
-0.115243
-0.0753783
-0.0117242
0.0655204
0.149492
0.23741
0.328403
0.421362
0.514769
0.602589
0.67227
0.722098
0.757604
0.778811
0.787001
0.788819
0.789094
0.789204
0.789237
-0.153558
-0.142548
-0.101764
-0.0361711
0.0436214
0.130537
0.22178
0.316488
0.413509
0.511184
0.602995
0.675511
0.726905
0.76298
0.783958
0.79183
0.793572
0.793898
0.794086
0.794163
-0.179371
-0.168308
-0.126665
-0.0593085
0.0227824
0.112365
0.206656
0.304822
0.405717
0.507607
0.603526
0.679062
0.732128
0.768824
0.78962
0.797204
0.798855
0.799207
0.799448
0.799567
-0.204051
-0.192848
-0.150401
-0.0814178
0.00275493
0.0947508
0.191844
0.293241
0.39782
0.503889
0.604082
0.682904
0.737815
0.775217
0.795878
0.803173
0.804709
0.805046
0.80531
0.805459
-0.227744
-0.216376
-0.173165
-0.102699
-0.0166395
0.0775526
0.177208
0.281606
0.389688
0.499865
0.604529
0.686987
0.743988
0.782125
0.802645
0.809646
0.811029
0.811312
0.811564
0.811724
-0.250652
-0.23907
-0.195126
-0.123271
-0.0355106
0.0606631
0.162655
0.269822
0.381213
0.495406
0.604696
0.691212
0.750644
0.789583
0.80983
0.816428
0.817606
0.817809
0.818025
0.818169
-0.272789
-0.261008
-0.21636
-0.143206
-0.0539213
0.0440284
0.148139
0.25784
0.372318
0.490385
0.604408
0.695441
0.7578
0.797659
0.817409
0.823311
0.824195
0.824311
0.824485
0.824609
-0.294264
-0.282249
-0.236879
-0.162539
-0.071908
0.0276223
0.133634
0.245638
0.36296
0.484703
0.603495
0.699494
0.765424
0.806525
0.825474
0.830206
0.830526
0.830585
0.830769
0.830889
-0.314961
-0.302784
-0.256708
-0.181301
-0.0894738
0.0114655
0.119147
0.233215
0.353126
0.47831
0.601794
0.703155
0.773428
0.81641
0.834515
0.837379
0.836528
0.836435
0.836879
0.83714
-0.33503
-0.322619
-0.275857
-0.199508
-0.106626
-0.00444561
0.104722
0.220593
0.342827
0.471185
0.599168
0.706177
0.781617
0.827474
0.845234
0.845816
0.842834
0.84201
0.843098
0.844112
-0.354357
-0.341713
-0.294343
-0.217142
-0.123316
-0.0200605
0.0904048
0.207848
0.332108
0.463307
0.595522
0.708294
0.789688
0.839622
0.858241
0.857107
0.851387
0.848746
0.85028
0.852937
-0.373033
-0.36015
-0.312135
-0.234168
-0.139532
-0.0353388
0.0762516
0.195022
0.321028
0.454738
0.590799
0.70922
0.797229
0.852415
0.873451
0.872256
0.864592
0.85877
0.855373
0.849828
-0.39097
-0.377919
-0.329324
-0.250761
-0.155499
-0.0505545
0.061945
0.181743
0.309189
0.445056
0.584611
0.708582
0.804123
0.866009
0.890977
0.891743
0.883588
0.872869
0.860107
0.86005
-0.408163
-0.395108
-0.345934
-0.266875
-0.171217
-0.065684
0.0474978
0.167967
0.296523
0.43408
0.57666
0.705677
0.8093
0.879443
0.908911
0.912353
0.903382
0.890394
0.853891
0.816415
-0.424427
-0.411588
-0.361945
-0.282392
-0.186701
-0.0807467
0.0328897
0.153805
0.28306
0.421778
0.566729
0.699888
0.811088