/*--------------------------------*- C++ -*----------------------------------*\
  =========                 |
  \\      /  F ield         | OpenFOAM: The Open Source CFD Toolbox
   \\    /   O peration     | Website:  https://openfoam.org
    \\  /    A nd           | Version:  6
     \\/     M anipulation  |
\*---------------------------------------------------------------------------*/
FoamFile
{
    version     2.0;
    format      ascii;
    class       volScalarField;
    location    "53.5";
    object      p;
}
// * * * * * * * * * * * * * * * * * * * * * * * * * * * * * * * * * * * * * //

dimensions      [0 2 -2 0 0 0 0];

internalField   nonuniform List<scalar> 
8800
(
0.824077
0.77476
0.73679
0.708713
0.68854
0.673936
0.663314
0.65574
0.650808
0.648677
0.649979
0.654265
0.661017
0.670409
0.683124
0.700429
0.724297
0.757388
0.800322
0.852834
0.658582
0.664925
0.674071
0.677613
0.674995
0.668891
0.661929
0.655656
0.650813
0.647887
0.647586
0.65015
0.65474
0.660831
0.667905
0.674921
0.679788
0.679655
0.672974
0.664072
0.63212
0.638352
0.642845
0.646706
0.64964
0.65057
0.649454
0.647293
0.645259
0.644352
0.64531
0.647701
0.65054
0.652776
0.653273
0.651468
0.648089
0.644067
0.639281
0.635565
0.627852
0.630615
0.633213
0.635358
0.637079
0.638625
0.639697
0.640006
0.639834
0.639856
0.640579
0.641653
0.642343
0.642154
0.64115
0.639775
0.638091
0.635778
0.633361
0.631794
0.62284
0.624263
0.626093
0.62816
0.629853
0.631119
0.632181
0.633111
0.633853
0.634503
0.635121
0.635504
0.635468
0.635059
0.634358
0.633219
0.631544
0.629637
0.628277
0.627475
0.617908
0.618809
0.620045
0.621654
0.623325
0.624826
0.626069
0.627134
0.62812
0.629036
0.629714
0.630015
0.629955
0.629533
0.628691
0.627473
0.626089
0.624807
0.623979
0.623455
0.613072
0.613726
0.614676
0.615974
0.617394
0.618875
0.620311
0.621609
0.622781
0.623868
0.624693
0.625081
0.625015
0.624514
0.623685
0.622706
0.621685
0.620761
0.620174
0.619791
0.608332
0.608836
0.609609
0.610727
0.611996
0.613371
0.614824
0.616288
0.617696
0.619015
0.62002
0.6205
0.620477
0.620077
0.619454
0.61872
0.617947
0.617261
0.616826
0.616528
0.603636
0.604036
0.604683
0.605679
0.606873
0.608191
0.609631
0.611184
0.612795
0.61438
0.615616
0.616266
0.616416
0.616229
0.615834
0.615311
0.614736
0.614239
0.613915
0.613674
0.598906
0.599233
0.599792
0.600707
0.601852
0.603153
0.604623
0.606266
0.608061
0.609926
0.611468
0.612397
0.612814
0.612874
0.612703
0.612395
0.612008
0.611668
0.611427
0.611225
0.594058
0.594329
0.594828
0.595695
0.59682
0.598144
0.599684
0.60146
0.60347
0.605655
0.607585
0.608884
0.609621
0.60996
0.610031
0.609936
0.609736
0.609534
0.60936
0.609187
0.589005
0.589234
0.589694
0.590543
0.59169
0.593078
0.594729
0.59669
0.598984
0.601574
0.603975
0.605711
0.606823
0.607481
0.60782
0.607949
0.607932
0.607854
0.607735
0.607582
0.583661
0.583856
0.584297
0.585158
0.586365
0.587862
0.589678
0.591891
0.594549
0.597642
0.600618
0.602876
0.604426
0.605446
0.606085
0.606449
0.606631
0.606668
0.606595
0.606456
0.577926
0.578095
0.578533
0.579435
0.580744
0.582401
0.584453
0.587003
0.590131
0.593854
0.597526
0.600402
0.602459
0.60389
0.604868
0.60551
0.605884
0.606033
0.605999
0.60587
0.571689
0.571835
0.572286
0.573259
0.574715
0.576593
0.578956
0.581938
0.585652
0.590147
0.594667
0.598287
0.600948
0.602861
0.604222
0.605166
0.60576
0.606024
0.606027
0.605903
0.564813
0.564935
0.565415
0.56649
0.568143
0.570313
0.573077
0.576605
0.581048
0.586492
0.592037
0.596548
0.599926
0.602411
0.604224
0.605511
0.606349
0.606732
0.606768
0.606646
0.557127
0.557226
0.557749
0.558959
0.560869
0.563413
0.566684
0.570892
0.576237
0.58284
0.589628
0.595208
0.59944
0.602601
0.604953
0.606645
0.607755
0.608262
0.608331
0.608207
0.548396
0.5485
0.549073
0.550453
0.552697
0.555717
0.559635
0.564708
0.57118
0.579203
0.587488
0.594342
0.599573
0.603522
0.60651
0.608672
0.610089
0.610731
0.61083
0.610702
0.538327
0.538416
0.539078
0.540692
0.543372
0.547002
0.551742
0.557906
0.565791
0.575563
0.585642
0.59399
0.600398
0.605272
0.608993
0.611707
0.613473
0.614258
0.614387
0.614251
0.526555
0.526629
0.527394
0.52932
0.532557
0.536978
0.542772
0.550316
0.559953
0.57186
0.58409
0.594201
0.60199
0.607951
0.612528
0.615883
0.618034
0.618967
0.61912
0.618973
0.512545
0.512609
0.51352
0.515856
0.51982
0.525276
0.532443
0.541759
0.553594
0.56811
0.582903
0.595067
0.604442
0.611657
0.617222
0.621305
0.623876
0.624956
0.625129
0.624966
0.495535
0.495593
0.496716
0.499631
0.504594
0.511451
0.520452
0.532085
0.546708
0.564397
0.582198
0.59672
0.607874
0.616505
0.623173
0.628066
0.631078
0.632296
0.632477
0.632296
0.474391
0.474453
0.475915
0.479695
0.486095
0.494924
0.506438
0.521136
0.539296
0.560826
0.582079
0.599228
0.612377
0.622573
0.630451
0.636226
0.639669
0.640997
0.641171
0.640968
0.44737
0.447459
0.449506
0.454683
0.463293
0.475027
0.490086
0.50886
0.531418
0.557467
0.582651
0.602704
0.618017
0.629915
0.639101
0.645773
0.649597
0.650982
0.651127
0.650902
0.411448
0.411656
0.4149
0.422653
0.434991
0.451187
0.471312
0.495477
0.523475
0.554764
0.584234
0.607337
0.624893
0.638563
0.64911
0.656618
0.660706
0.662064
0.662155
0.661908
0.360865
0.361922
0.368367
0.381445
0.400307
0.423406
0.450542
0.481489
0.515841
0.552925
0.586959
0.613236
0.633073
0.648479
0.660352
0.668563
0.672717
0.673942
0.673954
0.673688
0.287252
0.294516
0.309308
0.332127
0.36074
0.393069
0.428724
0.467443
0.508848
0.552279
0.591269
0.621002
0.643367
0.660751
0.673997
0.682795
0.686944
0.688025
0.68798
0.687743
0.208823
0.224741
0.248789
0.282144
0.321021
0.362771
0.407051
0.453781
0.502685
0.553191
0.598098
0.632193
0.657803
0.677614
0.692519
0.701858
0.705798
0.706655
0.706623
0.706485
0.141673
0.161141
0.192939
0.235373
0.2834
0.334008
0.386664
0.441248
0.497484
0.554833
0.60538
0.643543
0.672145
0.694164
0.710329
0.719861
0.723565
0.724315
0.724323
0.724246
0.0867174
0.1084
0.145544
0.194495
0.249685
0.307742
0.367837
0.429685
0.492846
0.556684
0.612554
0.654513
0.685795
0.709705
0.727018
0.737028
0.740902
0.741712
0.741749
0.74171
0.0411197
0.0641364
0.105166
0.159228
0.220172
0.284381
0.350831
0.419093
0.488566
0.558471
0.619368
0.664954
0.698793
0.724551
0.743092
0.753878
0.75809
0.758916
0.758989
0.758981
0.00228209
0.0261194
0.0700343
0.128255
0.194043
0.263499
0.335451
0.409401
0.484622
0.560168
0.625806
0.674798
0.711112
0.738641
0.758435
0.770016
0.774612
0.775565
0.775677
0.775688
-0.0318012
-0.0073917
0.0387943
0.100463
0.17039
0.244423
0.321269
0.400356
0.480841
0.561642
0.631739
0.683945
0.722554
0.751754
0.772685
0.78493
0.789944
0.791088
0.791256
0.791273
-0.0625973
-0.0377035
0.0103686
0.0749747
0.148488
0.226538
0.307773
0.39156
0.47694
0.562698
0.637047
0.692276
0.732987
0.763676
0.785558
0.798441
0.803801
0.805161
0.805338
0.805348
-0.0910969
-0.065747
-0.0160636
0.0511169
0.12777
0.209377
0.294571
0.382681
0.472674
0.563162
0.641594
0.699718
0.742389
0.774393
0.797078
0.810405
0.816035
0.817536
0.817729
0.817724
-0.118081
-0.0922232
-0.0410674
0.0284064
0.107828
0.192609
0.281391
0.373489
0.467818
0.562872
0.645294
0.706261
0.750805
0.783977
0.807321
0.820937
0.826736
0.828334
0.828525
0.828499
-0.143902
-0.117569
-0.0650498
0.00648038
0.0883734
0.176001
0.268039
0.363813
0.462229
0.561719
0.648122
0.711944
0.758342
0.792616
0.816512
0.830294
0.836158
0.837783
0.837942
0.837886
-0.168972
-0.142074
-0.0882941
-0.0149051
0.0692051
0.15939
0.254392
0.353559
0.455823
0.559613
0.650042
0.71681
0.765106
0.800489
0.824848
0.838684
0.844514
0.846109
0.84626
0.84618
-0.193405
-0.16593
-0.11096
-0.0358849
0.0502084
0.142697
0.240385
0.342672
0.448544
0.556509
0.651033
0.720899
0.771227
0.807756
0.832489
0.846262
0.851999
0.853522
0.85363
0.853527
-0.217305
-0.189242
-0.133147
-0.0565298
0.0313426
0.12589
0.226001
0.331131
0.440367
0.552366
0.651051
0.724235
0.77681
0.814557
0.839573
0.853186
0.858736
0.860137
0.860179
0.860042
-0.240756
-0.212072
-0.154881
-0.0768604
0.0125887
0.108976
0.21126
0.318966
0.431301
0.547153
0.650034
0.726803
0.781944
0.821034
0.84625
0.859564
0.864784
0.865986
0.865953
0.865795
-0.263794
-0.234412
-0.176162
-0.0968675
-0.00601708
0.0919907
0.196213
0.306221
0.421375
0.540849
0.647915
0.728543
0.786665
0.827338
0.852706
0.86551
0.870206
0.871135
0.87103
0.870859
-0.286256
-0.256216
-0.196958
-0.11653
-0.0244365
0.0750059
0.180922
0.292972
0.41065
0.533471
0.644626
0.729365
0.790927
0.833609
0.859251
0.871288
0.875129
0.875641
0.875455
0.875287
-0.308107
-0.277439
-0.217242
-0.135798
-0.0426078
0.058085
0.165481
0.279298
0.399206
0.525041
0.640119
0.729144
0.794601
0.839915
0.866296
0.877428
0.879872
0.879598
0.879276
0.879153
-0.3294
-0.298044
-0.236983
-0.154629
-0.0604623
0.0413145
0.149983
0.265306
0.387134
0.51562
0.634346
0.727749
0.797464
0.846117
0.874189
0.884852
0.885378
0.883432
0.882579
0.88267
-0.349969
-0.318002
-0.256121
-0.172951
-0.0779373
0.0247818
0.134526
0.251106
0.374552
0.505308
0.627288
0.725026
0.799243
0.851809
0.88284
0.894549
0.89376
0.88919
0.885868
0.884267
-0.36991
-0.337311
-0.274658
-0.190793
-0.0950664
0.00844656
0.11906
0.23664
0.361387
0.494037
0.618792
0.720711
0.799659
0.856433
0.891473
0.90659
0.907137
0.900823
0.890659
0.890384
-0.389133
-0.356041
-0.292729
-0.208349
-0.112146
-0.00802951
0.103163
0.221413
0.347081
0.48116
0.608175
0.713995
0.798164
0.859214
0.898224
0.918289
0.921284
0.911384
0.893438
0.890256
-0.407494
-0.374152
-0.310159
-0.225418
-0.128915
-0.0243411
0.0870498
0.205753
0.331937
0.466933
0.595521
0.704282
0.794054
0.859004
0.898833
0.918924
0.925143
0.901862
0.84358
0.818097
-0.424869
-0.392458
-0.326538
-0.241507
-0.144648
-0.0400022
0.070997
0.189935
0.316236
0.451534
0.580916
0.691034
0.786415
0.855082
0.888639
0.903298
0.894327
0.845296
0.783841
0.746203
-0.468866
-0.410155
-0.341706
-0.257322
-0.160119
-0.0559422
0.0551388
0.173839
0.299782
0.434636
0.563986
0.673727
0.771588
0.845344
0.866078
0.85815
0.815503
0.75329
0.685552
0.648359
-0.443535
-0.425189
-0.36476
-0.280124
-0.183781
-0.0798451
0.0304691
0.14843
0.273302
0.406496
0.534022
0.641232
0.729934
0.810282
0.797847
0.695018
0.608321
0.548005
0.485577
0.513995
-0.475176
-0.443205
-0.381919
-0.297797
-0.201665
-0.0979941
0.012443
0.129696
0.253456
0.38475
0.509529
0.612989
0.691358
0.736168
0.688943
0.554518
0.449206
0.378219
0.297683
0.344762
-0.499791
-0.465299
-0.402143
-0.317872
-0.221814
-0.1182
-0.00789413
0.108521
0.230853
0.359666
0.480573
0.577854
0.645163
0.652573
0.550849
0.399941
0.274231
0.184328
0.0904423
0.123242
-0.523807
-0.488158
-0.423526
-0.338549
-0.24237
-0.138875
-0.0290791
0.0863387
0.207022
0.332965
0.449031
0.538406
0.589367
0.564675
0.411352
0.238156
0.0812464
-0.0500933
-0.172591
-0.158735
-0.547556
-0.511432
-0.445813
-0.3602
-0.263819
-0.160518
-0.051374
0.0629025
0.181658
0.304341
0.414774
0.496591
0.527122
0.458892
0.274364
0.0808176
-0.103449
-0.254985
-0.458708
-0.536842
-0.571714
-0.535581
-0.469348
-0.38325
-0.286649
-0.183493
-0.074936
0.03817
0.154878
0.274063
0.378503
0.451197
0.457185
0.337826
0.149649
-0.0561026
-0.245348
-0.405281
-0.528096
-0.64611
-0.59737
-0.561095
-0.49449
-0.408094
-0.311405
-0.20849
-0.100615
0.0111436
0.125461
0.240607
0.338609
0.399072
0.378463
0.222898
0.0331054
-0.166803
-0.339493
-0.435146
-0.461179
-0.474721
-0.624654
-0.588258
-0.52137
-0.43483
-0.338235
-0.235731
-0.128786
-0.0186895
0.0927855
0.203153
0.294271
0.337856
0.298717
0.112589
-0.0753917
-0.25498
-0.385256
-0.422627
-0.431486
-0.431847
-0.653846
-0.617191
-0.550021
-0.463438
-0.367082
-0.265219
-0.159468
-0.0513838
0.0567757
0.161652
0.244921
0.272736
0.202937
0.0117393
-0.170298
-0.326255
-0.398854
-0.413021
-0.414119
-0.413944
-0.684953
-0.647924
-0.580449
-0.493905
-0.397952
-0.296938
-0.192665
-0.086956
0.0174364
0.116186
0.190358
0.203793
0.0963799
-0.0797375
-0.252006
-0.375055
-0.40296
-0.404032
-0.404802
-0.40442
-0.717704
-0.68027
-0.612535
-0.526132
-0.430742
-0.330822
-0.228345
-0.125382
-0.0251872
0.066861
0.131613
0.126536
0.00134689
-0.164609
-0.316782
-0.385835
-0.400834
-0.39926
-0.399087
-0.39877
-0.75151
-0.71386
-0.645994
-0.559868
-0.465242
-0.366692
-0.266341
-0.166531
-0.0708899
0.014056
0.0687852
0.0479718
-0.0868836
-0.240203
-0.359991
-0.396454
-0.395925
-0.395917
-0.395565
-0.395217
-0.785901
-0.748135
-0.680312
-0.59466
-0.501064
-0.404191
-0.306345
-0.210114
-0.119402
-0.0413536
0.000326959
-0.026324
-0.1673
-0.298859
-0.385277
-0.393132
-0.395419
-0.396116
-0.395862
-0.395461
-0.819889
-0.782159
-0.714695
-0.629818
-0.537606
-0.442791
-0.34785
-0.255626
-0.1703
-0.0986747
-0.0681781
-0.103996
-0.237089
-0.343958
-0.391211
-0.402625
-0.399137
-0.398192
-0.397655
-0.397358
-0.851496
-0.814576
-0.748054
-0.664389
-0.574018
-0.481718
-0.39012
-0.30231
-0.222746
-0.157592
-0.132534
-0.187868
-0.298708
-0.384512
-0.407747
-0.407501
-0.40336
-0.399451
-0.398688
-0.398498
-0.879636
-0.843805
-0.778905
-0.697093
-0.609158
-0.519935
-0.432173
-0.349195
-0.275467
-0.217628
-0.19677
-0.266382
-0.354733
-0.410652
-0.433808
-0.425013
-0.413517
-0.406902
-0.406191
-0.405845
-0.901483
-0.867643
-0.8054
-0.726307
-0.641603
-0.556143
-0.472748
-0.395059
-0.32717
-0.276782
-0.260792
-0.338202
-0.414052
-0.433392
-0.436814
-0.45231
-0.457849
-0.457098
-0.453267
-0.45081
-0.9148
-0.883822
-0.825346
-0.750166
-0.669699
-0.588814
-0.510357
-0.438271
-0.376755
-0.332094
-0.318862
-0.406267
-0.506416
-0.499879
-0.499768
-0.525069
-0.54559
-0.54216
-0.531941
-0.528642
-0.916799
-0.889825
-0.83651
-0.766689
-0.691664
-0.616303
-0.543422
-0.476831
-0.42249
-0.381744
-0.370473
-0.45361
-0.632261
-0.733212
-0.671198
-0.601367
-0.565848
-0.5497
-0.54115
-0.53967
-0.905226
-0.883167
-0.836685
-0.774003
-0.705863
-0.637082
-0.570335
-0.508943
-0.460877
-0.426316
-0.408469
-0.469192
-0.618494
-0.870534
-0.756343
-0.574253
-0.492228
-0.474218
-0.471478
-0.470144
-0.87715
-0.860821
-0.823858
-0.770812
-0.71116
-0.650028
-0.58968
-0.533682
-0.488136
-0.460935
-0.423703
-0.396328
-0.286046
-0.325906
-0.337268
-0.359412
-0.375451
-0.37662
-0.377698
-0.376615
-0.83597
-0.825441
-0.798926
-0.757329
-0.707538
-0.654743
-0.601187
-0.549656
-0.50466
-0.477634
-0.435789
-0.285182
0.0460063
0.339336
0.178455
-0.115048
-0.293416
-0.343905
-0.357242
-0.358008
-0.788788
-0.78279
-0.766988
-0.736647
-0.697237
-0.652219
-0.605136
-0.557249
-0.513187
-0.475496
-0.447149
-0.368908
-0.302443
-0.199017
-0.427346
-0.638947
-0.66121
-0.589128
-0.549728
-0.557538
-0.745996
-0.742409
-0.734669
-0.714523
-0.683481
-0.64531
-0.602552
-0.557952
-0.512361
-0.478016
-0.457636
-0.559979
-0.971903
-1.52912
-1.75938
-1.87185
-1.80171
-1.61567
-1.4329
-1.34884
-0.714711
-0.712512
-0.708552
-0.69593
-0.671097
-0.637163
-0.597242
-0.551428
-0.504162
-0.463536
-0.444835
-0.617289
-1.07387
-1.69666
-1.98719
-1.84806
-1.57332
-1.32241
-1.1457
-1.06809
-0.691607
-0.690813
-0.689514
-0.682893
-0.663191
-0.631199
-0.589819
-0.54249
-0.488366
-0.423643
-0.376802
-0.35724
-0.404107
-0.327659
-0.224527
-0.000198564
0.196149
0.367486
0.463823
0.501883
-0.67797
-0.677583
-0.676919
-0.673841
-0.659266
-0.627677
-0.583138
-0.529465
-0.46379
-0.387803
-0.286342
-0.172607
0.0101044
0.366951
0.836365
1.23969
1.52963
1.65548
1.69456
1.70058
-0.669586
-0.669392
-0.668968
-0.668142
-0.658001
-0.626479
-0.577762
-0.517059
-0.443024
-0.345727
-0.234506
-0.0954559
0.152601
0.622363
1.14114
1.6026
1.88938
2.00216
2.02321
2.02042
-0.663518
-0.663986
-0.664717
-0.665177
-0.657019
-0.627105
-0.577687
-0.512359
-0.425166
-0.316821
-0.210071
-0.0743238
0.161064
0.566957
0.987859
1.35205
1.58126
1.67751
1.70669
1.71274
-0.659224
-0.658811
-0.655795
-0.651345
-0.646839
-0.629225
-0.587082
-0.513979
-0.420871
-0.308919
-0.197405
-0.0971566
0.100996
0.43427
0.741909
0.998107
1.16537
1.24721
1.2886
1.30425
-0.679179
-0.675065
-0.661567
-0.644128
-0.642765
-0.648044
-0.610887
-0.524051
-0.419789
-0.308659
-0.198553
-0.116445
0.0317205
0.278371
0.533577
0.744012
0.889141
0.97481
1.01932
1.03412
-0.745278
-0.741517
-0.737777
-0.738359
-0.738619
-0.727118
-0.655358
-0.538802
-0.416619
-0.30443
-0.201522
-0.129797
-0.0168296
0.216375
0.414995
0.57168
0.701471
0.781285
0.817623
0.82725
-0.852883
-0.862216
-0.891201
-0.911801
-0.904832
-0.848338
-0.708151
-0.549312
-0.412111
-0.296365
-0.203632
-0.136739
-0.0703086
0.108126
0.276394
0.422573
0.521833
0.582234
0.607609
0.613903
-0.914116
-0.934005
-0.966503
-0.987421
-0.974913
-0.888807
-0.705168
-0.534767
-0.39821
-0.281782
-0.193977
-0.134075
-0.0715748
0.0466144
0.177172
0.280842
0.359346
0.408874
0.430206
0.434083
-0.80428
-0.823981
-0.855036
-0.878355
-0.863917
-0.767168
-0.610352
-0.475171
-0.353826
-0.256651
-0.179476
-0.111305
-0.0662218
0.0289455
0.134871
0.201649
0.249732
0.278387
0.288892
0.291003
-0.517315
-0.532993
-0.559247
-0.583752
-0.580085
-0.523894
-0.446236
-0.363119
-0.284508
-0.215438
-0.1524
-0.0916424
-0.0484219
-0.00194174
0.0702412
0.125002
0.166305
0.1903
0.20002
0.200194
-0.195609
-0.203405
-0.220131
-0.243455
-0.260833
-0.266256
-0.257961
-0.237723
-0.208452
-0.165382
-0.125185
-0.0768
-0.0366951
0.00266821
0.0446321
0.0743741
0.102137
0.119807
0.125904
0.125309
0.0176596
0.0143683
0.00333268
-0.0206873
-0.0564719
-0.093312
-0.121494
-0.138535
-0.140743
-0.124515
-0.100629
-0.0682926
-0.0409022
-0.02558
0.00821184
0.0334942
0.0519814
0.0609867
0.0630328
0.0615001
0.104734
0.102693
0.0940461
0.0726108
0.037312
-0.00473302
-0.0443913
-0.0737204
-0.0927758
-0.0963631
-0.0883129
-0.0715618
-0.0563324
-0.0572559
-0.0456773
-0.02796
-0.00980529
0.00012384
0.00262437
0.00103059
0.119883
0.118351
0.111926
0.0956788
0.0680448
0.0333148
-0.00279432
-0.0356712
-0.0613985
-0.0780043
-0.0875432
-0.0903805
-0.0941118
-0.0962652
-0.0848179
-0.0720084
-0.0633051
-0.0614374
-0.0613514
-0.0625027
0.107018
0.105937
0.101483
0.0902321
0.070511
0.0443512
0.0147096
-0.015104
-0.0427488
-0.068041
-0.0949142
-0.122316
-0.152185
-0.15348
-0.137404
-0.122449
-0.115173
-0.11427
-0.11469
-0.115324
0.0869918
0.0862708
0.0833022
0.0757466
0.0621641
0.0431856
0.0201737
-0.00492949
-0.0315712
-0.0610514
-0.100146
-0.153534
-0.192095
-0.184621
-0.16354
-0.15141
-0.148277
-0.149597
-0.150388
-0.150454
0.0677823
0.0673314
0.065419
0.060512
0.0514137
0.0381654
0.0210813
0.00119814
-0.0219566
-0.0505625
-0.0909248
-0.14406
-0.177166
-0.164056
-0.148712
-0.146956
-0.151983
-0.156967
-0.158107
-0.157778
0.0518724
0.051595
0.0504325
0.0473679
0.0414921
0.0325382
0.0205769
0.00591953
-0.0115891
-0.0341566
-0.0653688
-0.102272
-0.117924
-0.11036
-0.109006
-0.116848
-0.125722
-0.131212
-0.132353
-0.132121
0.0395946
0.0394422
0.0387715
0.0369793
0.0334281
0.0278089
0.0200784
0.0104996
-0.000753497
-0.0136492
-0.0290505
-0.0447219
-0.0470932
-0.0424701
-0.0496261
-0.063671
-0.076197
-0.0824054
-0.0836166
-0.0835224
0.0300938
0.0300429
0.0297485
0.0288819
0.0270223
0.0239721
0.019748
0.0147817
0.0100558
0.0074661
0.0101059
0.016894
0.0296697
0.0264669
0.0100526
-0.00647755
-0.0171877
-0.0217472
-0.022888
-0.0231272
0.022548
0.0225644
0.0225113
0.022286
0.0216252
0.0204432
0.0188704
0.0176445
0.0183873
0.024739
0.0431945
0.0695674
0.0934549
0.0847864
0.0628238
0.046111
0.0378991
0.0357979
0.0343313
0.0336998
0.0161885
0.0162305
0.0163365
0.0165077
0.0166125
0.0166318
0.0167793
0.0180772
0.0223182
0.0345122
0.0627809
0.101293
0.133603
0.122374
0.0981324
0.0814234
0.0764447
0.0747803
0.0738816
0.0727821
0.0105594
0.0106014
0.0107492
0.0110781
0.011545
0.0121548
0.0130783
0.0153121
0.0208691
0.0344328
0.0645047
0.105753
0.136998
0.123458
0.10219
0.0908091
0.0877312
0.0881363
0.0865959
0.0852582
0.00546754
0.00549097
0.00559465
0.0058926
0.00640599
0.00703076
0.00789792
0.0096777
0.013753
0.0236973
0.0468995
0.0790405
0.0993443
0.0844354
0.0704831
0.067698
0.0686806
0.0700374
0.068077
0.0665748
0.000951978
0.000939762
0.000916855
0.000979305
0.00115745
0.00131884
0.00146814
0.00177111
0.00238838
0.00384776
0.00637513
0.015431
0.0216347
0.0300081
0.0225622
0.0232242
0.0215138
0.0185889
0.0148242
0.0144838
-0.0246535
0.165164
0.33978
0.488268
0.608205
0.703932
0.784134
0.849395
0.8663
0.862516
0.268944
0.39136
0.50627
0.6065
0.691302
0.761659
0.81724
0.854838
0.874914
0.891432
0.468401
0.550216
0.631249
0.702598
0.763635
0.814329
0.854236
0.884573
0.907294
0.926521
0.615957
0.673743
0.732445
0.785211
0.830778
0.869505
0.90194
0.929087
0.949499
0.968394
0.733628
0.77727
0.82097
0.861701
0.898008
0.930065
0.958067
0.981757
0.999779
1.01782
0.832079
0.868049
0.903358
0.93734
0.968643
0.996949
1.02192
1.04285
1.05868
1.07615
0.920722
0.952974
0.985365
1.01665
1.04576
1.0722
1.09538
1.11436
1.12831
1.14533
1.00797
1.04065
1.07315
1.10442
1.13325
1.15908
1.18126
1.19881
1.21122
1.22775
1.10252
1.13897
1.17377
1.20627
1.23549
1.26087
1.28202
1.29833
1.30997
1.32612
1.21565
1.25624
1.2933
1.32629
1.35481
1.37883
1.39848
1.41376
1.42568
1.44176
1.35704
1.39815
1.43343
1.46305
1.48827
1.5099
1.52841
1.54391
1.55703
1.57298
1.52864
1.56109
1.58796
1.61028
1.63038
1.64911
1.66685
1.68363
1.69854
1.71427
1.71501
1.73229
1.74941
1.7661
1.78219
1.79693
1.81084
1.82532
1.84056
1.85786
1.89839
1.90838
1.92158
1.93257
1.94198
1.95164
1.96225
1.97243
1.98172
2.00739
2.11631
2.11061
2.09766
2.08341
2.07711
2.08282
2.10097
2.12949
2.16325
2.19958
2.41912
2.28317
2.20367
2.16115
2.14383
2.14781
2.17524
2.23311
2.34077
2.51918
0.727776
0.721472
0.713739
0.70262
0.689043
0.676384
0.665973
0.657943
0.652202
0.64884
0.648453
0.651256
0.656465
0.663805
0.673343
0.685164
0.698721
0.711647
0.720634
0.728174
0.636854
0.642773
0.650842
0.656969
0.660031
0.659509
0.656409
0.652395
0.64878
0.646464
0.646295
0.648516
0.652246
0.656674
0.660764
0.663
0.661921
0.65728
0.650223
0.642389
0.630121
0.632493
0.635757
0.638523
0.640965
0.643143
0.644307
0.64414
0.643175
0.642335
0.642513
0.643893
0.645649
0.646859
0.646771
0.645294
0.643128
0.640761
0.637775
0.634755
0.625355
0.626444
0.628357
0.630688
0.63255
0.633935
0.635136
0.636105
0.636674
0.637015
0.637528
0.638235
0.638674
0.638535
0.637891
0.636956
0.635616
0.63364
0.631527
0.630048
0.620363
0.620997
0.622122
0.623872
0.625704
0.627283
0.628514
0.62955
0.630497
0.631352
0.632091
0.632571
0.632677
0.632445
0.63189
0.630901
0.629462
0.627843
0.6265
0.625697
0.615479
0.615918
0.616703
0.617998
0.619507
0.621053
0.622508
0.623773
0.624885
0.625921
0.62682
0.627375
0.627516
0.62725
0.626563
0.625545
0.624377
0.623222
0.622312
0.621777
0.610695
0.611023
0.611631
0.612691
0.613972
0.615351
0.616803
0.61824
0.619584
0.620826
0.621908
0.622596
0.622776
0.622494
0.621868
0.621061
0.620197
0.619328
0.618658
0.618265
0.605986
0.606241
0.606731
0.607632
0.608787
0.610073
0.611463
0.612949
0.614473
0.615967
0.617286
0.618131
0.618414
0.618268
0.617849
0.617273
0.616616
0.615971
0.61548
0.615179
0.601284
0.601487
0.601894
0.602684
0.60376
0.604995
0.606368
0.607892
0.609548
0.611276
0.612875
0.613968
0.614474
0.614561
0.614372
0.614014
0.613557
0.613098
0.612745
0.612508
0.596506
0.59667
0.597019
0.597735
0.598763
0.599976
0.601375
0.602978
0.604785
0.606757
0.608686
0.610124
0.61094
0.611304
0.611359
0.61122
0.610968
0.610679
0.610439
0.61025
0.591566
0.591699
0.592007
0.592677
0.593687
0.594923
0.596385
0.598108
0.600113
0.602384
0.604717
0.606584
0.607776
0.608464
0.608794
0.60889
0.608839
0.608711
0.608567
0.608414
0.58638
0.586488
0.586767
0.587419
0.588445
0.589747
0.591316
0.593212
0.595484
0.598139
0.600971
0.603352
0.604984
0.606043
0.606684
0.607034
0.60719
0.607223
0.607162
0.607037
0.580854
0.58094
0.581203
0.58186
0.582938
0.584346
0.586077
0.588216
0.590837
0.593982
0.597429
0.600424
0.602575
0.604059
0.605048
0.605692
0.606076
0.606259
0.606271
0.606168
0.574882
0.574949
0.575206
0.57589
0.577058
0.578622
0.580582
0.583045
0.586117
0.589867
0.594066
0.597806
0.600571
0.602552
0.603937
0.604907
0.60554
0.605884
0.605966
0.60588
0.568342
0.568391
0.568651
0.569386
0.570682
0.572456
0.574717
0.577596
0.581235
0.585742
0.59086
0.595494
0.59899
0.601561
0.603408
0.60474
0.605661
0.606177
0.606328
0.606257
0.561083
0.561112
0.56138
0.562188
0.563658
0.565706
0.568354
0.571758
0.5761
0.581529
0.587764
0.593484
0.59786
0.601126
0.603526
0.605291
0.606536
0.607238
0.607458
0.607397
0.552913
0.552933
0.553201
0.554108
0.555802
0.558205
0.561344
0.565414
0.570639
0.577214
0.58481
0.591824
0.59724
0.601328
0.604375
0.60666
0.608272
0.609177
0.609467
0.609415
0.543528
0.543523
0.543847
0.544896
0.546887
0.549741
0.553508
0.558421
0.564758
0.572748
0.581993
0.590557
0.5972
0.60225
0.606058
0.608943
0.610979
0.612111
0.612474
0.612428
0.532653
0.532624
0.532996
0.534235
0.536597
0.540037
0.544609
0.550595
0.558331
0.568082
0.579332
0.589722
0.597798
0.603978
0.608679
0.612264
0.614787
0.616165
0.6166
0.616556
0.519812
0.519761
0.520208
0.521693
0.524538
0.52874
0.534356
0.541713
0.551201
0.563112
0.576784
0.589352
0.599108
0.606601
0.612354
0.616743
0.619815
0.621455
0.621959
0.621912
0.504367
0.504294
0.504861
0.506694
0.510182
0.515396
0.522393
0.531552
0.543296
0.557894
0.57447
0.589575
0.601251
0.610237
0.617183
0.622481
0.626159
0.628069
0.628633
0.628578
0.485386
0.485295
0.486059
0.488397
0.492791
0.499416
0.508301
0.51986
0.534517
0.552461
0.572483
0.590486
0.604322
0.614982
0.623248
0.629561
0.633888
0.636057
0.636665
0.636594
0.461467
0.461372
0.462465
0.465582
0.471338
0.480023
0.491589
0.506421
0.524846
0.546881
0.570924
0.592187
0.608412
0.620903
0.630611
0.638033
0.643007
0.645395
0.646017
0.645922
0.430308
0.430256
0.431947
0.436409
0.444437
0.456316
0.471818
0.49115
0.514409
0.541362
0.569995
0.594843
0.613619
0.628069
0.639313
0.647878
0.653432
0.655956
0.656549
0.656422
0.387788
0.387932
0.39092
0.398174
0.410445
0.427591
0.44894
0.474369
0.503676
0.536395
0.570078
0.598694
0.620098
0.636536
0.649337
0.658998
0.664975
0.667484
0.667991
0.667828
0.32624
0.327531
0.334789
0.348461
0.368496
0.394002
0.423571
0.456709
0.493088
0.532177
0.571248
0.603777
0.62784
0.646233
0.660486
0.671075
0.677253
0.679528
0.679868
0.679681
0.252569
0.255106
0.269215
0.292766
0.323429
0.358865
0.39739
0.438758
0.48277
0.528969
0.574331
0.611707
0.639275
0.66029
0.676439
0.688035
0.694398
0.696604
0.696927
0.696837
0.177062
0.183858
0.205055
0.238511
0.279549
0.324681
0.37217
0.421835
0.473552
0.526938
0.578757
0.621163
0.652345
0.676124
0.694283
0.706798
0.713014
0.714862
0.715113
0.715092
0.115529
0.124162
0.149967
0.190456
0.239646
0.293012
0.348584
0.406044
0.46516
0.525471
0.583451
0.630574
0.66507
0.691272
0.711055
0.72421
0.730462
0.732207
0.732543
0.732592
0.0651156
0.0744582
0.10377
0.149509
0.204855
0.264832
0.327242
0.39159
0.457459
0.52423
0.58801
0.639602
0.677185
0.705604
0.726933
0.740916
0.747427
0.749501
0.749953
0.750043
0.0228388
0.0324962
0.0642214
0.114075
0.174476
0.239952
0.308139
0.378461
0.45037
0.5231
0.592334
0.648147
0.688719
0.71927
0.742122
0.75714
0.764275
0.766635
0.767138
0.767236
-0.0137378
-0.00392964
0.029619
0.0827747
0.147398
0.217587
0.290816
0.366437
0.443808
0.522026
0.596365
0.656152
0.699514
0.732121
0.756469
0.772466
0.780221
0.782822
0.783388
0.78348
-0.0462653
-0.0363846
-0.00138496
0.0545113
0.122726
0.197
0.274696
0.355096
0.437474
0.520782
0.599943
0.663492
0.709455
0.743943
0.769588
0.786449
0.794836
0.797696
0.7983
0.798373
-0.0759661
-0.0660268
-0.0298476
0.0284256
0.0997523
0.177601
0.25927
0.344015
0.431036
0.51916
0.602913
0.670052
0.718456
0.754626
0.781427
0.798993
0.807863
0.810939
0.811566
0.81162
-0.103762
-0.0937496
-0.0564911
0.00388942
0.0779525
0.158955
0.244182
0.332895
0.42424
0.516952
0.605128
0.675754
0.726499
0.764215
0.791982
0.810085
0.819263
0.822498
0.823161
0.823195
-0.130204
-0.120084
-0.0818257
-0.0195482
0.056938
0.140749
0.229184
0.321525
0.416889
0.51398
0.606505
0.680584
0.733638
0.772818
0.801439
0.819956
0.829256
0.832586
0.833268
0.833276
-0.15571
-0.145421
-0.106221
-0.0422129
0.0364372
0.122765
0.214098
0.309756
0.408874
0.510141
0.606968
0.684553
0.739951
0.780587
0.809994
0.828802
0.83815
0.841443
0.842098
0.842085
-0.180547
-0.170011
-0.129908
-0.0643098
0.0162851
0.104864
0.198819
0.297513
0.400118
0.505371
0.606462
0.687665
0.745518
0.787669
0.817836
0.836812
0.846104
0.849332
0.849938
0.849886
-0.204792
-0.19399
-0.153022
-0.0859587
-0.00360993
0.0869913
0.183303
0.284757
0.390583
0.499618
0.604944
0.689921
0.750417
0.79421
0.825103
0.844129
0.853285
0.856392
0.856925
0.856844
-0.228541
-0.217462
-0.175649
-0.107204
-0.023283
0.069119
0.167543
0.271492
0.380272
0.492871
0.602367
0.691284
0.754704
0.800337
0.831942
0.850907
0.859817
0.862714
0.863134
0.86301
-0.251806
-0.240443
-0.197786
-0.128058
-0.0427307
0.0512673
0.151577
0.25776
0.369217
0.485125
0.598681
0.69169
0.758393
0.806164
0.838514
0.857272
0.865742
0.868314
0.868593
0.868434
-0.274638
-0.262921
-0.219405
-0.148504
-0.0619285
0.0334784
0.135456
0.243623
0.357474
0.476405
0.593847
0.691061
0.761428
0.81176
0.845031
0.86345
0.871199
0.873264
0.87337
0.873188
-0.296798
-0.284841
-0.240478
-0.168515
-0.0808259
0.0158301
0.119251
0.229157
0.345119
0.46677
0.587841
0.689309
0.7637
0.817119
0.851758
0.869852
0.876482
0.877684
0.877514
0.877321
-0.318444
-0.306141
-0.260969
-0.188057
-0.0993828
-0.00163189
0.103058
0.214447
0.332244
0.456299
0.580664
0.68634
0.765043
0.822101
0.858872
0.877091
0.882283
0.881933
0.881104
0.880914
-0.339387
-0.32678
-0.280858
-0.207073
-0.117511
-0.0188178
0.0869659
0.19962
0.318958
0.445063
0.572353
0.682064
0.765262
0.826412
0.866265
0.885779
0.889979
0.887348
0.884723
0.884093
-0.359723
-0.346779
-0.300083
-0.225502
-0.135169
-0.035656
0.0710641
0.184758
0.305373
0.433203
0.562979
0.676379
0.764152
0.829652
0.873332
0.895849
0.901072
0.897074
0.890846
0.881613
-0.379334
-0.366128
-0.318733
-0.243508
-0.152581
-0.0524342
0.0550098
0.16945
0.291028
0.420199
0.55201
0.668679
0.761241
0.83145
0.879282
0.906323
0.915517
0.9119
0.901413
0.899408
-0.398175
-0.384907
-0.336801
-0.261027
-0.169722
-0.0691203
0.038838
0.153681
0.275896
0.405934
0.539277
0.658501
0.755828
0.831021
0.882076
0.912567
0.924576
0.924787
0.891201
0.852201
-0.416003
-0.402976
-0.35422
-0.277932
-0.186574
-0.0857269
0.0225594
0.137583
0.260049
0.390455