/*--------------------------------*- C++ -*----------------------------------*\
  =========                 |
  \\      /  F ield         | OpenFOAM: The Open Source CFD Toolbox
   \\    /   O peration     | Website:  https://openfoam.org
    \\  /    A nd           | Version:  6
     \\/     M anipulation  |
\*---------------------------------------------------------------------------*/
FoamFile
{
    version     2.0;
    format      ascii;
    class       volVectorField;
    location    "84.6";
    object      U;
}
// * * * * * * * * * * * * * * * * * * * * * * * * * * * * * * * * * * * * * //

dimensions      [0 1 -1 0 0 0 0];

internalField   nonuniform List<vector> 
8800
(
(0.987184 -0.0766654 0)
(1.00189 -0.0551903 0)
(0.999724 -0.0285481 0)
(1.00003 -0.0151427 0)
(1.0001 -0.00854313 0)
(1.00012 -0.00504437 0)
(1.00008 -0.00299868 0)
(1.00003 -0.00169853 0)
(0.999994 -0.000792567 0)
(1.00006 -7.72858e-05 0)
(0.999961 0.000654806 0)
(0.999987 0.00142354 0)
(1.00005 0.00243694 0)
(1.00006 0.0040032 0)
(1.00005 0.00663554 0)
(1.00004 0.011374 0)
(0.999936 0.0208166 0)
(0.999166 0.0386714 0)
(1.0071 0.0724576 0)
(0.771214 0.0366616 0)
(0.363075 -0.0160168 0)
(1.04332 -0.0768137 0)
(1.0846 -0.0704435 0)
(1.04519 -0.0535378 0)
(1.02329 -0.0388882 0)
(1.01203 -0.0262091 0)
(1.00643 -0.0168463 0)
(1.00359 -0.010313 0)
(1.00215 -0.00565116 0)
(1.00144 -0.00199028 0)
(1.00129 0.00133224 0)
(1.00165 0.00471922 0)
(1.00267 0.00865053 0)
(1.00467 0.013972 0)
(1.0086 0.0216782 0)
(1.01656 0.032645 0)
(1.0325 0.0465567 0)
(1.06267 0.0616724 0)
(1.09187 0.0761037 0)
(0.838666 0.0565634 0)
(0.21686 -0.00242917 0)
(1.07591 -0.050129 0)
(1.09989 -0.0483005 0)
(1.06465 -0.0404502 0)
(1.04004 -0.0335884 0)
(1.02392 -0.0260625 0)
(1.01412 -0.0184747 0)
(1.00856 -0.0116491 0)
(1.00558 -0.00577527 0)
(1.00431 -0.000352765 0)
(1.00464 0.00489575 0)
(1.00658 0.0102896 0)
(1.01062 0.0163652 0)
(1.01794 0.0233796 0)
(1.03052 0.030843 0)
(1.05061 0.0378687 0)
(1.08035 0.0445495 0)
(1.10626 0.0513602 0)
(0.942506 0.041625 0)
(0.216129 0.00246249 0)
(0.175197 -0.000815733 0)
(1.01773 -0.0354738 0)
(1.10522 -0.041362 0)
(1.07828 -0.0360408 0)
(1.05348 -0.0301002 0)
(1.03622 -0.0245173 0)
(1.02401 -0.0187808 0)
(1.01589 -0.0126916 0)
(1.01101 -0.00649427 0)
(1.00879 -0.000151815 0)
(1.00935 0.00610763 0)
(1.01263 0.0121084 0)
(1.01888 0.0179212 0)
(1.02876 0.0234818 0)
(1.04318 0.0287784 0)
(1.0637 0.0342545 0)
(1.09355 0.0402339 0)
(1.09339 0.0419881 0)
(0.827076 0.0229258 0)
(0.173964 0.000854247 0)
(0.15401 -0.000609488 0)
(0.95626 -0.0254425 0)
(1.10349 -0.0351002 0)
(1.0877 -0.0326149 0)
(1.06175 -0.0279533 0)
(1.04414 -0.0229191 0)
(1.03166 -0.0176604 0)
(1.0228 -0.0121155 0)
(1.01697 -0.006166 0)
(1.0141 0.000314134 0)
(1.01475 0.00678161 0)
(1.01875 0.0126654 0)
(1.0258 0.0179296 0)
(1.03607 0.0228301 0)
(1.05062 0.0275833 0)
(1.07185 0.032104 0)
(1.10005 0.03603 0)
(1.06802 0.034074 0)
(0.739387 0.014332 0)
(0.152151 0.00065321 0)
(0.139659 -0.000465517 0)
(0.899425 -0.0190538 0)
(1.09586 -0.0300368 0)
(1.09579 -0.0291321 0)
(1.0693 -0.0253881 0)
(1.05086 -0.0212345 0)
(1.03792 -0.0164452 0)
(1.0288 -0.0111404 0)
(1.02266 -0.005379 0)
(1.01949 0.00096193 0)
(1.02007 0.00728033 0)
(1.02419 0.0129159 0)
(1.03136 0.0178431 0)
(1.04184 0.0222879 0)
(1.05695 0.0262459 0)
(1.07914 0.0296942 0)
(1.10222 0.0323073 0)
(1.03584 0.0281812 0)
(0.672707 0.0102366 0)
(0.13703 0.000515935 0)
(0.129145 -0.000359853 0)
(0.84993 -0.0146832 0)
(1.08353 -0.0258871 0)
(1.1015 -0.0261584 0)
(1.07618 -0.0228557 0)
(1.05721 -0.019193 0)
(1.04381 -0.0149255 0)
(1.03433 -0.00997762 0)
(1.02794 -0.00442124 0)
(1.02457 0.00174512 0)
(1.02499 0.00785271 0)
(1.02906 0.0132109 0)
(1.03634 0.017718 0)
(1.04708 0.0215545 0)
(1.06259 0.0248456 0)
(1.08522 0.0277702 0)
(1.10127 0.0295068 0)
(1.0008 0.023689 0)
(0.620717 0.00788106 0)
(0.125578 0.000419163 0)
(0.121137 -0.000278848 0)
(0.807919 -0.0115157 0)
(1.06834 -0.0222564 0)
(1.10508 -0.0234922 0)
(1.08247 -0.0205971 0)
(1.06309 -0.0171437 0)
(1.04941 -0.0131768 0)
(1.03964 -0.0085598 0)
(1.03296 -0.00326836 0)
(1.02932 0.00268561 0)
(1.02956 0.00854868 0)
(1.03357 0.0135589 0)
(1.0409 0.0175832 0)
(1.05173 0.0209088 0)
(1.06745 0.0237856 0)
(1.09041 0.026406 0)
(1.09741 0.0272387 0)
(0.965334 0.0201778 0)
(0.578854 0.00635716 0)
(0.11643 0.00034939 0)
(0.114948 -0.000215225 0)
(0.772619 -0.00914165 0)
(1.0517 -0.0190536 0)
(1.10753 -0.0210166 0)
(1.08839 -0.0184851 0)
(1.06862 -0.0151698 0)
(1.0547 -0.0113579 0)
(1.04472 -0.00694301 0)
(1.03778 -0.00188422 0)
(1.03385 0.00382282 0)
(1.03384 0.00938919 0)
(1.03772 0.0140237 0)
(1.04497 0.0176172 0)
(1.05578 0.0205522 0)
(1.0717 0.0231005 0)
(1.0943 0.0253705 0)
(1.09067 0.0253784 0)
(0.930747 0.0174833 0)
(0.544094 0.00532288 0)
(0.108856 0.00029959 0)
(0.110145 -0.000163845 0)
(0.743094 -0.00729386 0)
(1.03469 -0.0162069 0)
(1.10906 -0.0186739 0)
(1.09403 -0.0164402 0)
(1.07398 -0.0132091 0)
(1.05979 -0.0094775 0)
(1.04961 -0.00517378 0)
(1.04243 -0.000279057 0)
(1.03819 0.00519386 0)
(1.03786 0.0104501 0)
(1.0415 0.0147269 0)
(1.04859 0.017938 0)
(1.05934 0.0205248 0)
(1.07544 0.0227771 0)
(1.09689 0.0246603 0)
(1.08143 0.0238817 0)
(0.897578 0.0154564 0)
(0.514374 0.00460923 0)
(0.102371 0.000265075 0)
(0.106448 -0.00012093 0)
(0.718533 -0.005798 0)
(1.01812 -0.0136443 0)
(1.10979 -0.0163999 0)
(1.0996 -0.0144279 0)
(1.07928 -0.011199 0)
(1.06479 -0.00748641 0)
(1.05438 -0.00323277 0)
(1.04693 0.00156025 0)
(1.04234 0.00684397 0)
(1.04161 0.0118144 0)
(1.04492 0.0157534 0)
(1.0518 0.0185956 0)
(1.06247 0.0208453 0)
(1.07874 0.0228264 0)
(1.09809 0.0242892 0)
(1.07007 0.0227509 0)
(0.865921 0.0139814 0)
(0.488224 0.0041263 0)
(0.0966296 0.000242859 0)
(0.103669 -8.34985e-05 0)
(0.698301 -0.00453772 0)
(1.00263 -0.0112975 0)
(1.10989 -0.014158 0)
(1.10502 -0.0123626 0)
(1.0846 -0.00908659 0)
(1.06978 -0.00533248 0)
(1.0591 -0.00106661 0)
(1.05132 0.00368161 0)
(1.04629 0.00882745 0)
(1.04508 0.0135496 0)
(1.048 0.0171717 0)
(1.05463 0.0196522 0)
(1.06518 0.0215695 0)
(1.08157 0.0232804 0)
(1.09823 0.0243757 0)
(1.05681 0.0219994 0)
(0.835584 0.0129736 0)
(0.464535 0.00381949 0)
(0.091369 0.000230529 0)
(0.101692 -4.88345e-05 0)
(0.681937 -0.00342542 0)
(0.988677 -0.0090946 0)
(1.10957 -0.0118593 0)
(1.1103 -0.0101604 0)
(1.09002 -0.00680779 0)
(1.07486 -0.00294834 0)
(1.06384 0.00139738 0)
(1.05566 0.00616492 0)
(1.0501 0.0112228 0)
(1.0483 0.0157244 0)
(1.05076 0.0190425 0)
(1.05707 0.0211597 0)
(1.06748 0.0227428 0)
(1.08388 0.0241693 0)
(1.09741 0.0248313 0)
(1.04179 0.0216385 0)
(0.806199 0.01236 0)
(0.442425 0.00365115 0)
(0.0863805 0.000226068 0)
(0.100458 -1.46597e-05 0)
(0.669149 -0.0023911 0)
(0.976626 -0.00696009 0)
(1.10917 -0.00944672 0)
(1.11558 -0.0077601 0)
(1.09563 -0.00428609 0)
(1.08008 -0.000256793 0)
(1.06867 0.00423869 0)
(1.06 0.00909442 0)
(1.0538 0.0141225 0)
(1.05129 0.0184375 0)
(1.05318 0.0214619 0)
(1.05911 0.0232043 0)
(1.06934 0.0244463 0)
(1.08573 0.0255788 0)
(1.09531 0.0257381 0)
(1.02503 0.0216682 0)
(0.777301 0.0120907 0)
(0.421176 0.00359587 0)
(0.0814979 0.000228044 0)
(0.0999582 2.17763e-05 0)
(0.659794 -0.0013787 0)
(0.966799 -0.00482096 0)
(1.10901 -0.00685845 0)
(1.12099 -0.00508847 0)
(1.10153 -0.00143474 0)
(1.08555 0.00283772 0)
(1.07367 0.00755784 0)
(1.0644 0.0125724 0)
(1.05743 0.0176286 0)
(1.05406 0.021787 0)
(1.05528 0.0245224 0)
(1.06076 0.0258914 0)
(1.07077 0.026771 0)
(1.08703 0.0275747 0)
(1.09182 0.0271365 0)
(1.00645 0.0221323 0)
(0.748366 0.0121408 0)
(0.400173 0.00364086 0)
(0.0765817 0.000235846 0)
(0.100206 5.38769e-05 0)
(0.653857 -0.000332296 0)
(0.959505 -0.00260254 0)
(1.10945 -0.00402492 0)
(1.1267 -0.00205742 0)
(1.1078 0.00185236 0)
(1.09137 0.00644816 0)
(1.07892 0.0114748 0)
(1.06893 0.0167276 0)
(1.06101 0.021871 0)
(1.05663 0.0259001 0)
(1.05703 0.0283496 0)
(1.06199 0.0293414 0)
(1.07172 0.0298317 0)
(1.0875 0.0302558 0)
(1.08663 0.0291141 0)
(0.985824 0.0230624 0)
(0.718797 0.0124971 0)
(0.378852 0.00377667 0)
(0.0715067 0.000248686 0)
(0.101289 0.000107072 0)
(0.651473 0.000794321 0)
(0.955062 -0.000225505 0)
(1.11087 -0.000867012 0)
(1.13293 0.00142857 0)
(1.11458 0.00568647 0)
(1.09763 0.0106983 0)
(1.08452 0.0161269 0)
(1.07365 0.0217046 0)
(1.06459 0.0270034 0)
(1.05898 0.0309334 0)
(1.05842 0.0330826 0)
(1.06276 0.0336854 0)
(1.07213 0.0337638 0)
(1.08701 0.0337659 0)
(1.0795 0.0317448 0)
(0.962799 0.0244998 0)
(0.687937 0.0131481 0)
(0.356682 0.00399442 0)
(0.0661626 0.000265636 0)
(0.103351 0.000160028 0)
(0.652899 0.00191486 0)
(0.953833 0.00239524 0)
(1.11371 0.00271967 0)
(1.13986 0.00548138 0)
(1.12202 0.0102187 0)
(1.10448 0.0157598 0)
(1.09056 0.0216984 0)
(1.07863 0.0276937 0)
(1.0682 0.0332044 0)
(1.06113 0.0370466 0)
(1.05943 0.0388604 0)
(1.06302 0.0390698 0)
(1.07195 0.0387038 0)
(1.0853 0.0382006 0)
(1.07011 0.0351322 0)
(0.93688 0.0264901 0)
(0.655075 0.0140874 0)
(0.333168 0.00428546 0)
(0.0604572 0.000285673 0)
(0.106488 0.000224139 0)
(0.658694 0.0033918 0)
(0.956209 0.00532004 0)
(1.11846 0.00687909 0)
(1.14778 0.0102577 0)
(1.1303 0.0156294 0)
(1.11207 0.0218285 0)
(1.09717 0.0284004 0)
(1.08393 0.0349127 0)
(1.07184 0.0406908 0)
(1.06304 0.0444393 0)
(1.06004 0.0458957 0)
(1.06271 0.045675 0)
(1.07113 0.0448167 0)
(1.08234 0.0437488 0)
(1.05799 0.0393918 0)
(0.907412 0.0290626 0)
(0.619443 0.0152978 0)
(0.307849 0.00463526 0)
(0.0543192 0.000307093 0)
(0.110988 0.000310832 0)
(0.669225 0.00512174 0)
(0.962797 0.00883096 0)
(1.12562 0.0117721 0)
(1.15699 0.0159609 0)
(1.13965 0.0221522 0)
(1.12057 0.0291655 0)
(1.10446 0.0365087 0)
(1.08962 0.0436357 0)
(1.07554 0.0497217 0)
(1.0647 0.0533447 0)
(1.06013 0.0543917 0)
(1.06179 0.0536988 0)
(1.06958 0.0522974 0)
(1.07805 0.0505395 0)
(1.04255 0.0446236 0)
(0.873556 0.0322377 0)
(0.58022 0.0167448 0)
(0.280323 0.00502182 0)
(0.0477094 0.000327673 0)
(0.117206 0.000424807 0)
(0.685272 0.00727905 0)
(0.97423 0.0130695 0)
(1.13576 0.0176242 0)
(1.16783 0.0228537 0)
(1.15034 0.0301249 0)
(1.1302 0.0381357 0)
(1.11256 0.0463926 0)
(1.09574 0.0542111 0)
(1.07924 0.0605892 0)
(1.06602 0.0640016 0)
(1.05957 0.0645348 0)
(1.06019 0.0633384 0)
(1.06735 0.0613332 0)
(1.07217 0.0587594 0)
(1.02299 0.050909 0)
(0.834291 0.0359801 0)
(0.536593 0.0183521 0)
(0.250314 0.005408 0)
(0.0406382 0.000344071 0)
(0.125667 0.000586687 0)
(0.707812 0.0100987 0)
(0.991366 0.0183401 0)
(1.14955 0.0247806 0)
(1.18083 0.0313261 0)
(1.16271 0.0399929 0)
(1.14116 0.0492043 0)
(1.12157 0.0585092 0)
(1.10227 0.067045 0)
(1.08288 0.0736364 0)
(1.06691 0.0766882 0)
(1.05837 0.0765612 0)
(1.05784 0.0747833 0)
(1.06422 0.0720681 0)
(1.06415 0.0684348 0)
(0.998236 0.0582802 0)
(0.788422 0.0401735 0)
(0.487834 0.0199907 0)
(0.217749 0.00574032 0)
(0.0331855 0.000352245 0)
(0.137127 0.000818782 0)
(0.738184 0.0139609 0)
(1.01536 0.0251123 0)
(1.16777 0.0337908 0)
(1.19661 0.041978 0)
(1.17714 0.0524336 0)
(1.15365 0.0630585 0)
(1.13149 0.0734866 0)
(1.1091 0.0826552 0)
(1.0863 0.089231 0)
(1.06722 0.0916477 0)
(1.05642 0.0906869 0)
(1.05475 0.0882891 0)
(1.05983 0.0847247 0)
(1.0532 0.0797793 0)
(0.966902 0.0666389 0)
(0.734649 0.0445779 0)
(0.433476 0.0214529 0)
(0.182887 0.00594828 0)
(0.0255194 0.000347717 0)
(0.152883 0.0011863 0)
(0.778418 0.0195051 0)
(1.0479 0.0341877 0)
(1.19139 0.045605 0)
(1.21606 0.056126 0)
(1.19397 0.0685269 0)
(1.16774 0.0806907 0)
(1.14219 0.0921342 0)
(1.11599 0.101621 0)
(1.08922 0.107738 0)
(1.06673 0.109111 0)
(1.05358 0.107059 0)
(1.05079 0.103948 0)
(1.05398 0.099604 0)
(1.03827 0.0927545 0)
(0.927181 0.075688 0)
(0.671733 0.048773 0)
(0.373573 0.0224537 0)
(0.146447 0.0059518 0)
(0.0179075 0.000326486 0)
(0.175159 0.00182075 0)
(0.831732 0.027873 0)
(1.09177 0.0471233 0)
(1.22153 0.0620964 0)
(1.23962 0.0755313 0)
(1.21332 0.0899105 0)
(1.18315 0.103432 0)
(1.15321 0.115403 0)
(1.12246 0.124543 0)
(1.09126 0.129502 0)
(1.06519 0.129255 0)
(1.04966 0.125774 0)
(1.04578 0.121782 0)
(1.04661 0.116416 0)
(1.01781 0.107132 0)
(0.876846 0.0848552 0)
(0.598924 0.0521286 0)
(0.309146 0.0226611 0)
(0.109742 0.00567934 0)
(0.0107147 0.00028539 0)
(0.207383 0.00321974 0)
(0.903945 0.0417614 0)
(1.1502 0.0677798 0)
(1.25852 0.0868206 0)
(1.26711 0.103181 0)
(1.23453 0.118994 0)
(1.19904 0.132924 0)
(1.16374 0.144283 0)
(1.12784 0.151949 0)
(1.09194 0.154732 0)
(1.06227 0.152139 0)
(1.0445 0.146838 0)
(1.0396 0.141798 0)
(1.03697 0.13524 0)
(0.989571 0.122382 0)
(0.813348 0.0931299 0)
(0.516857 0.0538695 0)
(0.24293 0.0218527 0)
(0.074872 0.0051126 0)
(0.00443151 0.000221912 0)
(0.251344 0.00956977 8.11944e-21)
(0.998925 0.0692677 6.99286e-21)
(1.2208 0.102877 -2.45836e-21)
(1.29939 0.123592 0)
(1.29557 0.142797 -6.43163e-35)
(1.25536 0.158182 9.44636e-22)
(1.21382 0.170701 -1.7284e-21)
(1.17269 0.17999 0)
(1.13135 0.185094 3.62218e-35)
(1.09053 0.184934 -2.20469e-21)
(1.05712 0.179576 0)
(1.0371 0.172405 -2.65797e-21)
(1.0318 0.166737 -7.87271e-21)
(1.02326 0.159477 -3.73726e-21)
(0.948154 0.140667 -1.1289e-21)
(0.729288 0.101048 -6.7131e-22)
(0.420626 0.0538548 0)
(0.174227 0.0203157 4.69918e-22)
(0.0420198 0.00441693 5.56501e-22)
(-0.000994702 0.000114389 1.01712e-20)
(0.281923 0.0251213 5.41485e-21)
(1.07774 0.112773 1.15447e-22)
(1.27901 0.152878 6.30639e-22)
(1.33641 0.173537 0)
(1.3207 0.192876 -3.17132e-21)
(1.27345 0.206173 -3.64177e-21)
(1.22596 0.21647 -1.7201e-21)
(1.17905 0.223414 -6.21248e-21)
(1.13219 0.226 0)
(1.08623 0.223087 9.31607e-21)
(1.04885 0.215237 9.30342e-21)
(1.02638 0.206399 2.7735e-21)
(1.01833 0.199362 1.02064e-20)
(0.997241 0.189136 1.44512e-20)
(0.880283 0.160629 0)
(0.612501 0.10762 2.04115e-20)
(0.308454 0.0525745 2.92796e-20)
(0.104396 0.0177497 3.25794e-20)
(0.0104677 0.00255819 -3.7369e-20)
(-0.00602417 -0.000467111 -7.12895e-22)
(0.283595 0.0425157 0)
(1.12832 0.168983 8.05474e-22)
(1.31891 0.214005 0)
(1.36548 0.234351 -3.79054e-21)
(1.34067 0.25076 0)
(1.28751 0.260148 -6.97732e-21)
(1.23448 0.266722 3.4649e-21)
(1.18211 0.270147 -1.23262e-20)
(1.13007 0.269289 -3.25825e-22)
(1.0794 0.262925 4.76831e-21)
(1.0385 0.252115 2.04039e-20)
(1.01393 0.241381 -2.96241e-23)
(1.00271 0.23256 -7.39869e-21)
(0.96802 0.218359 -1.35263e-20)
(0.815931 0.178727 1.60522e-20)
(0.52328 0.11225 -2.84215e-20)
(0.238536 0.050844 -3.74533e-21)
(0.0651946 0.0150317 0)
(-0.00648799 0.00018639 -3.68189e-24)
(-0.00864226 -0.00119504 0)
(0.27697 0.0570874 7.20226e-21)
(1.15614 0.228912 -3.99842e-21)
(1.34401 0.279757 -3.69974e-21)
(1.38499 0.300449 1.69379e-21)
(1.35397 0.312929 -2.87219e-21)
(1.29642 0.31773 1.44448e-20)
(1.23888 0.319838 7.14154e-21)
(1.18187 0.319011 0)
(1.1253 0.314046 -2.34919e-20)
(1.07046 0.303653 0)
(1.02651 0.28946 -1.06086e-20)
(1.00013 0.276516 -1.32495e-20)
(0.985713 0.265486 -8.01528e-21)
(0.938522 0.246207 -9.78442e-21)
(0.761028 0.195422 0)
(0.460371 0.117312 0)
(0.194888 0.0506899 -2.42612e-20)
(0.0400377 0.0125974 4.7897e-21)
(-0.0185109 -0.00256564 -2.82147e-21)
(-0.0107417 -0.00205909 -3.34249e-21)
(0.268893 0.0698267 -2.2683e-22)
(1.16868 0.288699 0)
(1.35813 0.346455 6.14484e-21)
(1.39596 0.367897 4.40315e-21)
(1.36066 0.376436 6.80512e-21)
(1.29995 0.376629 0)
(1.23895 0.374122 6.80577e-21)
(1.17819 0.368779 1.34199e-20)
(1.11784 0.35937 1.18916e-20)
(1.05942 0.344568 2.22676e-20)
(1.01282 0.326652 0)
(0.984855 0.311152 -2.83901e-20)
(0.967454 0.297487 -1.71797e-20)
(0.909996 0.272516 -1.01755e-20)
(0.7162 0.211307 6.25411e-20)
(0.417307 0.123241 7.4234e-21)
(0.16721 0.0513489 3.4961e-20)
(0.0224818 0.00993109 -1.65295e-19)
(-0.0285426 -0.0058983 9.78997e-20)
(-0.0128723 -0.00311126 -1.19501e-19)
(0.260934 0.0811998 3.22967e-21)
(1.17131 0.346374 -6.16756e-23)
(1.36421 0.412179 -3.22877e-22)
(1.40007 0.434703 -3.39626e-21)
(1.36173 0.43954 -5.10749e-21)
(1.29868 0.435273 3.60098e-22)
(1.23499 0.428253 -7.36821e-21)
(1.17122 0.418415 1.36941e-20)
(1.1077 0.404477 -2.54866e-20)
(1.04621 0.385107 0)
(0.997289 0.363213 -1.27871e-20)
(0.967921 0.344862 -3.05187e-22)
(0.947842 0.328209 -1.87548e-20)
(0.882595 0.297334 0)
(0.680321 0.226498 -1.34905e-20)
(0.38839 0.129836 -3.19693e-20)
(0.149435 0.0524011 8.50623e-20)
(0.00970022 0.00698527 -8.37635e-20)
(-0.0373305 -0.00978801 1.19078e-19)
(-0.0151043 -0.00437227 -1.25296e-19)
(0.253969 0.0915951 -1.11493e-22)
(1.16763 0.401214 1.02605e-21)
(1.36441 0.475876 8.57948e-22)
(1.3988 0.499752 8.5526e-22)
(1.35825 0.501222 -2.45588e-21)
(1.29342 0.492734 0)
(1.22759 0.481404 -6.58761e-21)
(1.16132 0.467223 -1.42328e-20)
(1.0951 0.448819 -1.31476e-20)
(1.0309 0.424851 0)
(0.979875 0.398824 -1.3114e-20)
(0.949196 0.377365 -1.63854e-20)
(0.926829 0.357398 2.02596e-20)
(0.856306 0.320568 -1.23334e-20)
(0.651437 0.241156 -5.8482e-20)
(0.369024 0.136897 3.46302e-20)
(0.13833 0.0536561 1.02512e-20)
(0.0008142 0.00384374 0)
(-0.0446524 -0.0140718 -1.14455e-19)
(-0.0173623 -0.00583013 -4.24718e-21)
(0.248187 0.101358 1.17521e-21)
(1.15997 0.453029 -1.69745e-21)
(1.36024 0.536992 -7.56709e-22)
(1.39338 0.562382 3.71199e-21)
(1.35115 0.560843 -8.07312e-21)
(1.285 0.548456 1.20313e-20)
(1.21743 0.533093 1.41709e-20)
(1.14904 0.514781 -2.26808e-20)
(1.08043 0.492067 8.27414e-21)
(1.01376 0.463534 -5.42941e-20)
(0.960771 0.433323 -1.48992e-20)
(0.928805 0.4085 0)
(0.904471 0.385065 2.19365e-20)
(0.830665 0.342303 2.63173e-20)
(0.627331 0.255308 3.14427e-20)
(0.355681 0.144273 -3.74615e-20)
(0.131889 0.0552383 -1.10786e-20)
(-0.00414047 0.000940609 1.30265e-20)
(-0.0497128 -0.0182821 0)
(-0.0193261 -0.00736437 -9.1857e-21)
(0.243508 0.110576 -1.75007e-20)
(1.15006 0.501887 9.73547e-21)
(1.35301 0.595423 1.18467e-21)
(1.38481 0.622227 1.52511e-21)
(1.34128 0.618022 -3.03365e-21)
(1.27412 0.602076 -8.41272e-22)
(1.20513 0.58302 -1.55713e-20)
(1.1349 0.560852 -8.22595e-21)
(1.06414 0.534021 -2.28325e-20)
(0.99514 0.501048 5.98565e-23)
(0.940221 0.466624 -4.64465e-20)
(0.906928 0.438349 3.95826e-20)
(0.880774 0.411285 -2.4098e-20)
(0.804713 0.362881 2.89568e-20)
(0.605976 0.269069 0)
(0.345562 0.151924 -2.03324e-20)
(0.128916 0.057258 5.80521e-23)
(-0.00571291 -0.00126577 -5.66716e-20)
(-0.0521522 -0.0218928 -8.35632e-21)
(-0.0206793 -0.00879864 0)
(0.239884 0.119514 0)
(1.13895 0.54803 1.11499e-20)
(1.3436 0.651355 4.94312e-21)
(1.37393 0.67913 -6.39589e-22)
(1.32934 0.672559 -4.60557e-21)
(1.26141 0.653404 0)
(1.19124 0.630997 -6.71095e-21)
(1.11938 0.605285 -2.16571e-22)
(1.04662 0.574588 4.89475e-20)
(0.97538 0.537347 -7.41398e-21)
(0.918495 0.498756 -3.35908e-20)
(0.883797 0.466979 2.05352e-20)
(0.855891 0.436228 -4.33397e-22)
(0.778377 0.38237 3.08705e-20)
(0.585736 0.282359 1.87856e-20)
(0.336656 0.159746 -4.38326e-20)
(0.127474 0.0598795 5.18472e-20)
(-0.00488008 -0.00248424 1.53762e-20)
(-0.0521889 -0.0245649 6.35858e-20)
(-0.0212604 -0.00996398 -1.71994e-19)
(0.237227 0.128323 -5.68254e-21)
(1.12742 0.591637 7.65514e-21)
(1.33264 0.704338 -5.1957e-21)
(1.36141 0.733053 -9.98404e-22)
(1.31592 0.724366 0)
(1.24739 0.702332 -4.69267e-21)
(1.17621 0.676921 2.29751e-20)
(1.10291 0.647994 1.79138e-20)
(1.02826 0.613727 0)
(0.954779 0.572429 -1.07442e-19)
(0.895867 0.529768 9.11309e-20)
(0.859657 0.494474 0)
(0.830005 0.460035 2.82476e-20)
(0.751538 0.400884 -4.11904e-22)
(0.565555 0.295052 -6.06067e-20)
(0.32755 0.167568 2.3674e-20)
(0.126339 0.0629583 0)
(-0.00262739 -0.00273289 8.31306e-20)
(-0.0502889 -0.0262213 0)
(-0.0211376 -0.0108062 -8.15482e-20)
(0.235437 0.137028 6.76128e-21)
(1.11596 0.632943 9.84794e-21)
(1.32061 0.75444 -5.17882e-21)
(1.34776 0.78402 0)
(1.3015 0.773438 -2.75664e-21)
(1.23251 0.748839 0)
(1.16046 0.720745 -2.20807e-20)
(1.08583 0.688935 -8.05669e-21)
(1.00937 0.651432 8.54936e-21)
(0.933635 0.606334 -5.32439e-20)
(0.872578 0.559718 9.3957e-21)
(0.834759 0.5209 0)
(0.803395 0.482759 -6.05239e-20)
(0.724147 0.418389 3.77291e-22)
(0.544613 0.306941 0)
(0.317514 0.174977 9.69294e-23)
(0.124664 0.0661856 7.61295e-20)
(2.22524e-06 -0.00221066 -7.19779e-20)
(-0.0472063 -0.0269059 2.13105e-20)
(-0.0204416 -0.0112789 0)
(0.234166 0.145587 0)
(1.10477 0.672136 1.18034e-20)
(1.30795 0.80178 7.45837e-21)
(1.33342 0.832107 -5.27206e-22)
(1.28648 0.819814 8.54913e-24)
(1.21712 0.792934 -1.0582e-20)
(1.14432 0.762468 8.47803e-21)
(1.06846 0.7281 -9.7817e-21)
(0.990254 0.687705 3.85555e-20)
(0.912204 0.639111 -8.54545e-20)
(0.848849 0.588674 -8.98563e-22)
(0.809308 0.5463 -2.64523e-20)
(0.77621 0.504367 9.85305e-20)
(0.696259 0.434808 -4.85441e-22)
(0.522871 0.317734 -4.73939e-20)
(0.306072 0.181562 -8.37751e-20)
(0.121806 0.0692784 0)
(0.00226513 -0.00122389 0)
(-0.0437401 -0.0268875 2.30607e-20)
(-0.0193919 -0.0114574 -1.37008e-20)
(0.23356 0.154176 9.40296e-21)
(1.09408 0.709133 -2.67106e-20)
(1.29499 0.846459 -7.99889e-21)
(1.31873 0.877403 0)
(1.27117 0.863556 -3.08166e-22)
(1.20152 0.834659 -8.60996e-21)
(1.12807 0.802114 1.97944e-20)
(1.05107 0.765505 3.78777e-20)
(0.971153 0.722565 5.00575e-20)
(0.890724 0.670815 -6.99385e-20)
(0.824877 0.61672 -7.91361e-20)
(0.783456 0.570723 7.09683e-20)
(0.74865 0.524777 0)
(0.668039 0.449813 -2.17226e-20)
(0.500173 0.327134 -5.12583e-20)
(0.293248 0.186867 -6.04297e-20)
(0.117638 0.0717573 -7.12695e-20)
(0.00373454 -0.000225147 2.11093e-20)
(-0.0404171 -0.0265065 -1.24388e-20)
(-0.0182096 -0.0114427 7.18503e-23)
(0.233197 0.162604 0)
(1.08413 0.744232 0)
(1.28195 0.888588 5.09441e-22)
(1.30391 0.920014 0)
(1.25582 0.904759 -2.83055e-21)
(1.18594 0.874081 4.93224e-21)
(1.11194 0.839721 0)
(1.03388 0.801175 4.38044e-21)
(0.952291 0.756035 8.36013e-20)
(0.869406 0.701496 -1.61407e-19)
(0.800841 0.643961 0)
(0.757307 0.594237 -4.59743e-20)
(0.720712 0.543864 -5.74303e-22)
(0.639472 0.463048 -3.89251e-22)
(0.47662 0.334659 5.52081e-20)
(0.279395 0.190584 3.90378e-23)
(0.112356 0.0733158 -1.5389e-19)
(0.00438542 0.000527635 4.54769e-20)
(-0.0374595 -0.0259818 1.34981e-20)
(-0.017008 -0.0112944 0)
(0.233055 0.170823 -3.75048e-20)
(1.07468 0.77766 -1.79e-20)
(1.26892 0.928243 -2.33084e-20)
(1.28916 0.960048 2.3152e-20)
(1.24062 0.943496 -8.10506e-21)
(1.17059 0.911268 0)
(1.0961 0.875341 1.15583e-20)
(1.01707 0.835143 -9.93586e-21)
(0.93385 0.788145 8.025e-22)
(0.84845 0.731213 1.1998e-20)
(0.776902 0.670506 1.03336e-19)
(0.73092 0.616955 -1.61632e-20)
(0.692362 0.561577 -6.135e-20)
(0.610568 0.474177 -2.54637e-20)
(0.452694 0.339773 2.9908e-20)
(0.265013 0.192277 6.01743e-23)
(0.106525 0.0737383 4.15292e-20)
(0.00445144 0.000923549 -9.80591e-20)
(-0.0349607 -0.0254463 1.16379e-19)
(-0.0158991 -0.0110981 1.71747e-20)
(0.232942 0.178799 1.4217e-20)
(1.06573 0.809487 -1.006e-20)
(1.25609 0.965553 1.30849e-21)
(1.27466 0.997626 1.47464e-20)
(1.22573 0.979883 3.11546e-21)
(1.15559 0.946296 -7.82604e-21)
(1.08071 0.90903 3.01525e-21)
(1.00078 0.867436 -4.13399e-20)
(0.91599 0.818905 -9.24867e-20)
(0.828026 0.759996 -9.67733e-20)
(0.753222 0.696466 0)
(0.704346 0.639027 -7.15655e-20)
(0.663455 0.577934 8.8861e-20)
(0.581091 0.482828 0)
(0.428589 0.341812 -6.43036e-20)
(0.250674 0.191301 3.8062e-20)
(0.101172 0.0727608 -4.47703e-20)
(0.00463318 0.00112049 -5.28804e-20)
(-0.0329401 -0.0248537 -9.3895e-20)
(-0.0150236 -0.0109291 -7.41536e-20)
(0.233158 0.186653 -1.60877e-20)
(1.05714 0.839714 1.07773e-20)
(1.24352 1.00059 2.44003e-20)
(1.2605 1.03283 2.15207e-20)
(1.21125 1.01402 -5.74553e-21)
(1.14107 0.979255 -3.09158e-21)
(1.06586 0.94084 1.04029e-20)
(0.985124 0.898101 -4.22802e-20)
(0.898826 0.848341 -5.49973e-20)
(0.808283 0.787875 1.01788e-19)
(0.729952 0.721941 2.29036e-19)
(0.677634 0.660647 0)
(0.633813 0.593085 0)
(0.550626 0.488771 -2.94082e-20)
(0.404099 0.339947 0)
(0.237307 0.186367 8.18502e-20)
(0.0983664 0.0692146 9.63254e-20)
(0.0073086 0.00071651 0)
(-0.03062 -0.0243352 0)
(-0.0147313 -0.0110371 7.9853e-20)
(0.233145 0.194057 1.82784e-20)
(1.04894 0.868349 1.44719e-20)
(1.2313 1.03346 1.77417e-20)
(1.24676 1.06581 -2.06685e-20)
(1.19727 1.04601 -7.59107e-21)
(1.1271 1.01022 1.47941e-21)
(1.05165 0.970834 -1.41286e-20)
(0.970188 0.927166 -2.01265e-22)
(0.882462 0.876464 -1.05635e-21)
(0.78935 0.814857 -7.62384e-22)
(0.707258 0.747009 1.18462e-19)
(0.650871 0.682007 0)
(0.603287 0.60732 9.09915e-20)
(0.518568 0.492054 6.32257e-20)
(0.378337 0.333459 1.50913e-19)
(0.224813 0.175084 4.42701e-20)
(0.100714 0.0589295 -5.19072e-20)
(0.0192722 -0.00609675 -3.05953e-20)
(-0.0195525 -0.0262948 0)
(-0.0133563 -0.0112302 8.60482e-20)
(0.233548 0.201503 -4.13316e-20)
(1.04109 0.895509 0)
(1.21942 1.06424 2.08685e-20)
(1.23348 1.09663 -1.75146e-20)
(1.18385 1.07596 1.03602e-20)
(1.11372 1.03928 1.46335e-21)
(1.03812 0.999065 2.60933e-20)
(0.956025 0.954666 -3.50589e-21)
(0.866962 0.903282 0)
(0.771337 0.840919 -1.13075e-19)
(0.685307 0.771719 -2.59019e-19)
(0.624185 0.703308 1.07144e-20)
(0.571822 0.621013 1.26758e-19)
(0.484358 0.493168 0)
(0.349621 0.322415 1.02416e-19)
(0.210089 0.154915 0)
(0.105829 0.0313724 0)
(0.0485618 -0.0397426 -3.30938e-20)
(0.0334396 -0.0438797 0)
(0.021567 0.000699475 2.31222e-20)
(0.233565 0.20841 -4.61648e-20)
(1.03355 0.921472 0)
(1.20789 1.09311 3.48187e-20)
(1.22061 1.12555 0)
(1.17096 1.10413 -6.32046e-21)
(1.10088 1.06673 0)
(1.02522 1.02584 1.02192e-21)
(0.942544 0.980932 5.86688e-21)
(0.852208 0.929152 6.99943e-21)
(0.754072 0.866428 -1.24501e-19)
(0.663902 0.796518 7.77392e-21)
(0.59725 0.725237 8.69757e-20)
(0.538831 0.635004 1.243e-19)
(0.446817 0.492858 1.67122e-20)
(0.315478 0.308153 8.07852e-20)
(0.186412 0.126255 0)
(0.0976244 -0.0174418 1.09586e-19)
(0.0574816 -0.0715932 -6.43435e-20)
(0.0269281 0.04348 7.52476e-20)
(-0.0387259 0.459416 -8.94019e-20)
(0.23357 0.215167 3.82516e-20)
(1.02611 0.946083 5.78063e-20)
(1.19662 1.12041 0)
(1.20801 1.15301 1.01209e-21)
(1.15839 1.1311 1.87371e-20)
(1.08831 1.09324 -1.03594e-20)
(1.01262 1.05195 8.22854e-21)
(0.929319 1.0069 0)
(0.837648 0.955157 4.57727e-20)
(0.736849 0.892669 -6.43344e-21)
(0.64208 0.822872 0)
(0.568657 0.749427 0)
(0.502003 0.65045 1.12125e-19)
(0.402997 0.491387 -5.18308e-20)
(0.272363 0.292355 -8.25032e-20)
(0.148283 0.0919968 0)
(0.0585112 0.010047 5.58752e-20)
(0.00406695 0.456816 -6.47546e-20)
(0.0291903 1.93748 -3.63096e-20)
(0.0554802 2.82994 -4.46129e-20)
(0.233287 0.221403 -2.87871e-20)
(1.01881 0.969521 -7.43082e-20)
(1.18563 1.14615 2.07261e-20)
(1.1957 1.17889 1.70764e-20)
(1.14622 1.15669 0)
(1.07611 1.11854 -9.42899e-21)
(1.00055 1.0771 9.89728e-21)
(0.916557 1.03213 -2.78875e-21)
(0.823583 0.98079 6.91047e-21)
(0.720086 0.91906 1.19019e-19)
(0.620506 0.850178 1.32588e-19)
(0.53942 0.775827 9.88411e-20)
(0.462076 0.667803 1.13734e-19)
(0.353829 0.48828 -1.23105e-19)
(0.225584 0.279216 -1.25625e-19)
(0.0998552 0.151602 0)
(0.0362212 0.902897 0)
(0.0826233 2.59014 3.10431e-20)
(0.0857336 3.21615 0)
(0.0875034 3.39075 8.08013e-20)
(0.235819 0.22727 0)
(1.01199 0.992178 0)
(1.17462 1.17017 0)
(1.18347 1.20304 5.15913e-21)
(1.13409 1.18065 1.71809e-20)
(1.06408 1.1425 -9.51786e-21)
(0.988923 1.10117 5.86933e-21)
(0.904191 1.05651 -2.6892e-21)
(0.809949 1.00587 5.68376e-20)
(0.703779 0.945437 -1.65313e-21)
(0.59928 0.878238 2.6315e-19)
(0.509917 0.804548 -1.1508e-20)
(0.418935 0.688152 1.39099e-20)
(0.300925 0.482031 1.796e-20)
(0.167507 0.297002 -6.92691e-22)
(0.0838994 1.02439 3.4991e-22)
(0.118241 2.77266 -1.66602e-19)
(0.122761 3.30233 -6.26734e-20)
(0.11442 3.42327 3.29691e-20)
(0.104867 3.44282 -3.72207e-20)
(0.159088 0.172925 1.75866e-20)
(1.00093 1.01681 0)
(1.16336 1.19268 -4.24416e-20)
(1.17174 1.22592 -4.65733e-20)
(1.12247 1.20345 4.02194e-20)
(1.05291 1.16558 1.09819e-20)
(0.977536 1.12419 -5.37425e-21)
(0.892252 1.08009 2.79538e-20)
(0.796827 1.03049 -4.64496e-20)
(0.688157 0.971916 0)
(0.57872 0.907129 1.30097e-19)
(0.480694 0.835399 -8.13223e-20)
(0.376225 0.717794 0)
(0.239769 0.47778 1.75491e-20)
(0.120884 0.728626 4.13726e-20)
(0.132838 2.58073 -4.65318e-20)
(0.179527 3.32751 5.26964e-20)
(0.163404 3.43203 2.8274e-20)
(0.13619 3.45089 3.19912e-20)
(0.117675 3.45974 5.0779e-20)
(0.270326 0.264771 -3.39622e-20)
(0.982967 1.02663 0)
(1.14469 1.21846 4.57258e-20)
(1.15665 1.25709 5.11253e-20)
(1.1046 1.23709 -4.4911e-20)
(1.03444 1.19957 -1.58704e-20)
(0.957856 1.15973 1.2861e-21)
(0.871931 1.11689 2.24267e-21)
(0.774895 1.06952 4.36111e-20)
(0.662882 1.01508 1.02927e-19)
(0.546844 0.956517 7.27777e-21)
(0.435334 0.886921 7.28019e-20)
(0.29524 0.745232 1.32819e-20)
(0.199127 0.887664 -1.69502e-20)
(0.205333 2.46154 -3.78756e-20)
(0.256434 3.33023 3.70236e-20)
(0.239297 3.4556 -4.0448e-20)
(0.205638 3.47477 -2.32232e-20)
(0.172689 3.49948 -2.07735e-20)
(0.127928 3.49499 -3.0194e-21)
(0.260419 0.263602 0)
(0.979829 1.04938 1.32154e-20)
(1.13567 1.24205 -9.39137e-21)
(1.14529 1.28072 -6.06483e-21)
(1.0932 1.26044 -3.08922e-20)
(1.02302 1.2231 1.63701e-20)
(0.946067 1.18346 7.88576e-22)
(0.859815 1.14147 1.95419e-21)
(0.761998 1.09562 -4.50777e-20)
(0.648191 1.04417 -2.70193e-21)
(0.52832 0.990526 -2.35575e-19)
(0.409261 0.923117 1.04669e-20)
(0.274818 0.818771 -1.25957e-20)
(0.234896 1.53418 -1.55842e-20)
(0.298683 3.14437 3.66621e-21)
(0.31081 3.4566 1.63089e-22)
(0.269872 3.50362 5.94295e-20)
(0.236388 3.52775 2.98358e-20)
(0.190948 3.54811 -9.14855e-21)
(0.141369 3.54517 -1.47754e-20)
(0.246421 0.261571 3.37495e-20)
(0.975763 1.07466 8.95075e-20)
(1.1263 1.26772 -2.67788e-20)
(1.13355 1.30597 -2.28035e-20)
(1.08132 1.28526 0)
(1.0112 1.24795 2.91305e-20)
(0.934174 1.20858 4.21782e-21)
(0.847853 1.1674 1.64039e-21)
(0.749577 1.1232 -5.0877e-21)
(0.634533 1.07507 -9.23827e-20)
(0.511815 1.027 -1.08472e-19)
(0.38622 0.960672 -8.54625e-20)
(0.277094 0.968682 -9.47791e-20)
(0.301451 2.31977 9.78074e-20)
(0.380225 3.3847 8.20333e-20)
(0.350716 3.51188 0)
(0.303305 3.54967 0)
(0.266929 3.58381 -7.19504e-21)
(0.223742 3.62882 0)
(0.15446 3.61435 -1.06805e-20)
(0.236589 0.263451 -5.0247e-20)
(0.96977 1.10079 -7.56989e-20)
(1.11553 1.29464 0)
(1.12055 1.33205 1.23124e-21)
(1.06819 1.31074 -3.31847e-20)
(0.998298 1.27338 4.6992e-20)
(0.921521 1.23433 4.49324e-21)
(0.835362 1.19389 5.99809e-22)
(0.73689 1.15132 -3.06087e-20)
(0.621068 1.10658 4.50342e-21)
(0.496504 1.06419 0)
(0.365392 1.00196 0)
(0.299215 1.26937 -8.58273e-20)
(0.38197 2.97824 3.48607e-20)
(0.445594 3.48228 4.39831e-20)