/*--------------------------------*- C++ -*----------------------------------*\
  =========                 |
  \\      /  F ield         | OpenFOAM: The Open Source CFD Toolbox
   \\    /   O peration     | Website:  https://openfoam.org
    \\  /    A nd           | Version:  6
     \\/     M anipulation  |
\*---------------------------------------------------------------------------*/
FoamFile
{
    version     2.0;
    format      ascii;
    class       volScalarField;
    location    "40.4";
    object      p;
}
// * * * * * * * * * * * * * * * * * * * * * * * * * * * * * * * * * * * * * //

dimensions      [0 2 -2 0 0 0 0];

internalField   nonuniform List<scalar> 
8800
(
0.886792
0.837473
0.7995
0.771418
0.751237
0.736619
0.725978
0.718382
0.713422
0.711247
0.712497
0.716739
0.723456
0.732823
0.745518
0.76281
0.786669
0.819755
0.862685
0.915196
0.721302
0.727644
0.736785
0.740323
0.737698
0.731586
0.724612
0.718319
0.713446
0.710483
0.710133
0.712643
0.717191
0.723251
0.730303
0.737303
0.742158
0.742017
0.73533
0.726424
0.694854
0.701085
0.705574
0.709429
0.712355
0.713272
0.71214
0.709955
0.707885
0.706927
0.707828
0.710168
0.712968
0.715174
0.715647
0.713824
0.710433
0.706402
0.701609
0.697892
0.690611
0.693372
0.695966
0.698105
0.699816
0.701348
0.702399
0.70268
0.702465
0.702429
0.703089
0.70411
0.704754
0.70453
0.703499
0.702103
0.700402
0.698078
0.695654
0.694087
0.685631
0.687052
0.688878
0.690936
0.692619
0.69387
0.694911
0.695807
0.6965
0.697084
0.69763
0.697949
0.697861
0.697408
0.696673
0.695507
0.693811
0.691888
0.69052
0.689717
0.680741
0.681641
0.682872
0.684473
0.686131
0.687615
0.688831
0.689856
0.690784
0.69162
0.692213
0.69244
0.692317
0.691844
0.69096
0.689709
0.688297
0.686995
0.686158
0.685635
0.675959
0.676613
0.677558
0.678848
0.680255
0.681716
0.683123
0.684376
0.685487
0.686489
0.687208
0.687495
0.687349
0.686781
0.685899
0.684877
0.68382
0.682871
0.682273
0.681891
0.671287
0.67179
0.672559
0.67367
0.674928
0.676284
0.677705
0.679123
0.680462
0.681679
0.682557
0.682914
0.682785
0.682299
0.681604
0.680812
0.679989
0.679271
0.678825
0.678529
0.666678
0.667078
0.667722
0.668712
0.669896
0.671194
0.672605
0.674108
0.675643
0.677107
0.678189
0.678686
0.678701
0.678399
0.677911
0.677311
0.676672
0.676134
0.675796
0.675558
0.662056
0.662381
0.662938
0.66385
0.664985
0.666267
0.667705
0.669291
0.670994
0.672711
0.67407
0.674815
0.675065
0.674982
0.674691
0.674283
0.673814
0.673421
0.673166
0.672968
0.657345
0.657614
0.65811
0.658974
0.660091
0.661391
0.662883
0.664582
0.66647
0.668476
0.670186
0.67127
0.671816
0.671989
0.671915
0.671696
0.67139
0.671125
0.670935
0.670768
0.652466
0.652691
0.65315
0.653997
0.655132
0.656494
0.658088
0.659955
0.662109
0.66449
0.666626
0.668098
0.668978
0.669432
0.669589
0.669562
0.669418
0.669261
0.669124
0.66898
0.647339
0.647529
0.647967
0.648829
0.650028
0.6515
0.653264
0.65538
0.657875
0.660716
0.663379
0.665325
0.666583
0.667337
0.667741
0.667906
0.667922
0.667868
0.667777
0.66765
0.641885
0.642045
0.642481
0.643386
0.644692
0.646324
0.648318
0.650764
0.653719
0.657162
0.660458
0.66294
0.664633
0.665736
0.666424
0.666811
0.666979
0.667019
0.666968
0.666853
0.636001
0.636137
0.636584
0.637559
0.639007
0.640847
0.643125
0.645965
0.649457
0.653613
0.657699
0.660875
0.66312
0.664657
0.665678
0.666313
0.66666
0.666798
0.666783
0.666677
0.629565
0.629675
0.630145
0.631215
0.632849
0.634966
0.637631
0.640983
0.645159
0.650207
0.655256
0.659251
0.662157
0.664187
0.665579
0.666505
0.667056
0.667301
0.667325
0.667226
0.622433
0.622526
0.623027
0.624224
0.626113
0.628594
0.631751
0.635774
0.640826
0.646974
0.653197
0.658193
0.661848
0.664463
0.666308
0.667552
0.668323
0.66868
0.66874
0.668645
0.614369
0.614456
0.615013
0.616373
0.618576
0.621503
0.625266
0.630114
0.63627
0.643815
0.651441
0.657597
0.662179
0.665514
0.667915
0.669559
0.670594
0.671076
0.671174
0.671079
0.605108
0.605171
0.605802
0.607375
0.609974
0.613462
0.617998
0.623866
0.631321
0.640513
0.649911
0.657559
0.663261
0.667461
0.670554
0.672683
0.674028
0.674657
0.674795
0.674698
0.594292
0.594337
0.595067
0.596921
0.60003
0.60427
0.60983
0.617067
0.626295
0.637617
0.649066
0.658353
0.665341
0.670536
0.674391
0.677111
0.678829
0.679621
0.679796
0.679692
0.581367
0.581403
0.582263
0.584488
0.588263
0.593467
0.600323
0.609248
0.620582
0.63444
0.64845
0.6598
0.668353
0.67476
0.679559
0.682986
0.685148
0.686124
0.686333
0.686214
0.565518
0.565552
0.566617
0.569379
0.574077
0.580609
0.58924
0.600451
0.614568
0.631586
0.648566
0.662211
0.672506
0.680288
0.686185
0.690422
0.693083
0.694252
0.694484
0.694344
0.545538
0.545585
0.54699
0.550589
0.556664
0.565108
0.576203
0.590437
0.608048
0.628891
0.649334
0.665624
0.677898
0.687228
0.69432
0.699473
0.702659
0.70401
0.704252
0.704082
0.519613
0.519701
0.521702
0.52669
0.53493
0.546239
0.560841
0.579131
0.601149
0.626538
0.65093
0.670138
0.68458
0.695598
0.704011
0.710134
0.713839
0.715339
0.715572
0.71537
0.484694
0.484926
0.488157
0.495742
0.507716
0.523467
0.54312
0.566782
0.594234
0.624892
0.653634
0.675955
0.692683
0.705482
0.715283
0.722381
0.726535
0.728119
0.728316
0.728079
0.43504
0.436162
0.442668
0.455611
0.474088
0.496699
0.523332
0.55377
0.587616
0.624148
0.657549
0.68313
0.702207
0.716813
0.728054
0.736077
0.74057
0.742146
0.742277
0.742003
0.36217
0.369611
0.384616
0.407385
0.43555
0.467363
0.502511
0.540763
0.58174
0.624736
0.663246
0.692425
0.714172
0.730882
0.74376
0.752762
0.757641
0.759276
0.7594
0.759165
0.284489
0.300604
0.324985
0.358298
0.396732
0.43792
0.481695
0.528006
0.57659
0.626849
0.671557
0.70542
0.730738
0.750285
0.765364
0.775713
0.781017
0.782665
0.782825
0.782721
0.218077
0.237823
0.270047
0.312364
0.359852
0.40987
0.46203
0.516263
0.572289
0.62958
0.680184
0.718414
0.747002
0.769125
0.78614
0.79741
0.803
0.804803
0.805011
0.804979
0.163857
0.185818
0.223375
0.272167
0.326711
0.384108
0.443676
0.50518
0.568202
0.632144
0.688276
0.730545
0.762088
0.786407
0.804949
0.817285
0.823661
0.825539
0.825773
0.825794
0.118801
0.142068
0.183449
0.237275
0.29749
0.360956
0.426837
0.494748
0.564132
0.634226
0.695506
0.741447
0.775659
0.801911
0.821756
0.835088
0.842036
0.84414
0.844503
0.844553
0.0802124
0.104284
0.148495
0.206399
0.271361
0.339998
0.411337
0.484908
0.560031
0.635765
0.701779
0.751108
0.787631
0.815459
0.836241
0.850204
0.857678
0.860195
0.860671
0.860739
0.046077
0.070701
0.117136
0.178433
0.247457
0.320596
0.396769
0.475441
0.555796
0.636758
0.707169
0.759601
0.798142
0.827142
0.848588
0.863021
0.870879
0.873757
0.874375
0.874451
0.0149608
0.0400399
0.0883327
0.152541
0.225099
0.302196
0.382715
0.466048
0.551275
0.637177
0.711766
0.767053
0.807368
0.837347
0.859357
0.874171
0.882331
0.885443
0.886115
0.886168
-0.0140553
0.0114455
0.0613191
0.128111
0.203789
0.284408
0.36885
0.456479
0.546306
0.636933
0.715577
0.773588
0.81552
0.846354
0.868803
0.883871
0.89222
0.895444
0.896127
0.896143
-0.0416706
-0.0157022
0.0356194
0.104719
0.183168
0.266948
0.354953
0.44656
0.54073
0.635947
0.718578
0.779281
0.82279
0.854468
0.877331
0.892599
0.901019
0.904334
0.905044
0.905031
-0.0681732
-0.041776
0.0108802
0.0820511
0.162988
0.249615
0.34087
0.436157
0.534442
0.634127
0.720745
0.784188
0.82934
0.861926
0.885249
0.900722
0.909175
0.912425
0.913135
0.91312
-0.0939233
-0.0670019
-0.0131296
0.0599082
0.143086
0.232276
0.326501
0.425196
0.52736
0.631387
0.722038
0.788362
0.8353
0.868901
0.892731
0.908384
0.916846
0.920033
0.92065
0.920582
-0.118997
-0.091539
-0.0365322
0.0381828
0.12336
0.214866
0.311794
0.413633
0.519436
0.627675
0.722425
0.791835
0.840762
0.875509
0.899904
0.915727
0.924121
0.927185
0.927703
0.927572
-0.143481
-0.115461
-0.0594027
0.0168268
0.103782
0.197363
0.296737
0.401451
0.510649
0.62294
0.721848
0.794588
0.845775
0.881849
0.906864
0.92281
0.931035
0.933889
0.934278
0.934098
-0.167455
-0.13885
-0.0817568
-0.00417262
0.0843455
0.179783
0.281355
0.388678
0.500999
0.617143
0.720224
0.796556
0.850357
0.888011
0.913705
0.929688
0.93762
0.940164
0.940417
0.940202
-0.190958
-0.161675
-0.103594
-0.0248082
0.0650914
0.162165
0.265701
0.375355
0.490512
0.610254
0.717473
0.797634
0.854474
0.89409
0.920575
0.936433
0.943844
0.945977
0.946081
0.945843
-0.213834
-0.183911
-0.124891
-0.0450534
0.0460636
0.144581
0.249836
0.361557
0.479244
0.602289
0.71352
0.797703
0.858026
0.900152
0.927714
0.943261
0.949777
0.951297
0.951234
0.950991
-0.236051
-0.205516
-0.145627
-0.0648542
0.0273254
0.127097
0.233855
0.347363
0.467273
0.593274
0.708315
0.796622
0.860827
0.906154
0.935432
0.950674
0.955718
0.956161
0.955842
0.955636
-0.257672
-0.22646
-0.165771
-0.0841701
0.00894374
0.109799
0.217848
0.332878
0.454696
0.583277
0.701814
0.79425
0.862625
0.91184
0.943916
0.959546
0.962688
0.961031
0.95993
0.959926
-0.278537
-0.246722
-0.18527
-0.102934
-0.00901984
0.0927738
0.201914
0.318214
0.44163
0.572402
0.694005
0.790446
0.863141
0.916698
0.95285
0.970686
0.972924
0.96832
0.964329
0.962465
-0.298747
-0.266305
-0.204136
-0.121181
-0.0266018
0.0759766
0.185997
0.303307
0.428
0.560578
0.684735
0.784943
0.862071
0.920083
0.961194
0.983777
0.988367
0.982772
0.971475
0.970069
-0.318216
-0.285288
-0.22251
-0.139112
-0.0441067
0.0590569
0.169664
0.287647
0.413229
0.547135
0.673298
0.776905
0.858788
0.921045
0.966651
0.995268
1.00358
0.994771
0.976805
0.971721
-0.336805
-0.303634
-0.240219
-0.156526
-0.061278
0.0423229
0.153136
0.271569
0.397632
0.532348
0.659821
0.765838
0.852682
0.918445
0.964543
0.992865
1.00525
0.983697
0.924553
0.898146
-0.354389
-0.322135
-0.256867
-0.172914
-0.0774155
0.0262616
0.136683
0.255346
0.381491
0.516404
0.644395
0.75129
0.842952
0.911728
0.950421
0.972221
0.968836
0.922003
0.860381
0.822345
-0.398505
-0.339977
-0.272335
-0.188914
-0.0932963
0.00995214
0.12044
0.238862
0.364612
0.498982
0.626674
0.732852
0.826235
0.899659
0.924182
0.921387
0.884229
0.825114
0.758152
0.721243
-0.373637
-0.355445
-0.295679
-0.212322
-0.117461
-0.0144818
0.0952625
0.212919
0.337535
0.470105
0.595667
0.698985
0.783795
0.86165
0.85387
0.756839
0.673518
0.615465
0.554133
0.584102
-0.405429
-0.373675
-0.313128
-0.230314
-0.135644
-0.0329906
0.0768492
0.193799
0.31729
0.447908
0.570596
0.670159
0.745357
0.787827
0.745269
0.615111
0.512674
0.443597
0.364064
0.412859
-0.430233
-0.395966
-0.333594
-0.25066
-0.156097
-0.053549
0.0561496
0.172258
0.294306
0.422405
0.5412
0.634905
0.698452
0.705403
0.608033
0.459834
0.336223
0.247983
0.154724
0.189176
-0.454463
-0.419033
-0.355218
-0.271639
-0.176987
-0.0745885
0.0346042
0.149711
0.270101
0.395315
0.509339
0.596279
0.643276
0.618773
0.469026
0.297814
0.142275
0.0117314
-0.110394
-0.0945195
-0.47845
-0.442542
-0.377774
-0.293621
-0.198801
-0.0966083
0.0119403
0.125909
0.244373
0.366337
0.474927
0.554582
0.581971
0.51633
0.332846
0.140454
-0.0433103
-0.194504
-0.399065
-0.478146
-0.502874
-0.466953
-0.401597
-0.317013
-0.222002
-0.119963
-0.0119918
0.100817
0.217251
0.335744
0.438599
0.509161
0.513752
0.396455
0.208896
0.00351235
-0.185679
-0.345644
-0.468697
-0.58983
-0.528816
-0.492753
-0.427046
-0.342207
-0.247135
-0.145343
-0.0380476
0.0734276
0.187495
0.301993
0.398664
0.457533
0.436225
0.282026
0.0928693
-0.106569
-0.279078
-0.374715
-0.400715
-0.414437
-0.556412
-0.520226
-0.454256
-0.369307
-0.274352
-0.172972
-0.066602
0.0432261
0.154478
0.26426
0.354224
0.397012
0.356979
0.172376
-0.0152561
-0.194539
-0.324328
-0.361498
-0.370589
-0.370878
-0.585943
-0.549495
-0.48326
-0.398297
-0.303597
-0.202852
-0.0976727
0.0101572
0.11813
0.222478
0.304739
0.33206
0.263012
0.0719124
-0.109711
-0.265442
-0.337765
-0.351716
-0.352911
-0.352799
-0.617416
-0.580598
-0.51407
-0.429161
-0.334871
-0.234962
-0.131258
-0.0257979
0.0784564
0.176715
0.249931
0.263066
0.156676
-0.0196035
-0.191074
-0.3145
-0.342432
-0.343054
-0.343424
-0.342982
-0.650571
-0.61335
-0.546564
-0.461801
-0.368072
-0.269229
-0.167313
-0.0646173
0.0354958
0.127094
0.190795
0.184984
0.0601372
-0.105045
-0.25487
-0.324716
-0.339984
-0.339023
-0.33888
-0.338275
-0.684821
-0.647392
-0.580464
-0.495968
-0.402984
-0.305468
-0.205653
-0.10617
-0.0105504
0.0739819
0.127541
0.104405
-0.0315043
-0.181925
-0.298984
-0.333463
-0.334371
-0.336521
-0.336789
-0.336534
-0.719726
-0.682177
-0.61527
-0.531212
-0.439213
-0.343317
-0.245941
-0.150136
-0.0594234
0.0181398
0.0587973
0.0247212
-0.11913
-0.245779
-0.329083
-0.336583
-0.33659
-0.334652
-0.334071
-0.33416
-0.754268
-0.716784
-0.650202
-0.566851
-0.476152
-0.382236
-0.287654
-0.195919
-0.11077
-0.0395829
-0.010653
-0.060594
-0.204619
-0.298882
-0.34081
-0.353602
-0.344878
-0.338198
-0.335196
-0.334322
-0.786609
-0.749914
-0.684195
-0.601941
-0.512948
-0.421423
-0.330058
-0.242605
-0.163827
-0.0987547
-0.076528
-0.155667
-0.295872
-0.36296
-0.362038
-0.367397
-0.370013
-0.368062
-0.363439
-0.36062
-0.81566
-0.78004
-0.715816
-0.635223
-0.548459
-0.459799
-0.372157
-0.289105
-0.217032
-0.159085
-0.141529
-0.244789
-0.402285
-0.472354
-0.455604
-0.43731
-0.420494
-0.414009
-0.411081
-0.409097
-0.838706
-0.805036
-0.743278
-0.665114
-0.581259
-0.496033
-0.412553
-0.334316
-0.268249
-0.218862
-0.205672
-0.312321
-0.510188
-0.651696
-0.611707
-0.545032
-0.503461
-0.485876
-0.478534
-0.474506
-0.853638
-0.822736
-0.764464
-0.689805
-0.609697
-0.528592
-0.449534
-0.376756
-0.315625
-0.274267
-0.263551
-0.347939
-0.537761
-0.768735
-0.733632
-0.628658
-0.590893
-0.575326
-0.563126
-0.559172
-0.857717
-0.830726
-0.777243
-0.707363
-0.632043
-0.555755
-0.481558
-0.413867
-0.358096
-0.321389
-0.307036
-0.352903
-0.380913
-0.53278
-0.536173
-0.582256
-0.592738
-0.582668
-0.57845
-0.577655
-0.849087
-0.826794
-0.779555
-0.715941
-0.64667
-0.575973
-0.507122
-0.443372
-0.393011
-0.359676
-0.330512
-0.341373
-0.154633
-0.00546659
-0.147786
-0.427538
-0.547512
-0.553649
-0.555924
-0.556129
-0.824597
-0.80784
-0.769468
-0.714341
-0.652264
-0.588262
-0.524403
-0.46529
-0.41607
-0.388533
-0.369958
-0.381769
-0.230026
0.0232872
-0.221851
-0.483532
-0.567311
-0.548151
-0.551266
-0.561107
-0.787353
-0.7763
-0.747658
-0.70271
-0.6489
-0.591642
-0.533343
-0.477409
-0.429593
-0.399267
-0.42622
-0.551198
-0.901751
-1.19696
-1.46867
-1.54661
-1.4088
-1.18565
-0.999178
-0.975696
-0.743459
-0.737115
-0.718723
-0.683803
-0.638504
-0.587003
-0.533216
-0.479104
-0.430969
-0.403837
-0.414989
-0.682674
-1.27281
-1.91371
-2.0705
-2.12415
-2.02973
-1.85466
-1.66717
-1.56194
-0.702144
-0.698529
-0.688654
-0.663007
-0.62408
-0.576871
-0.524659
-0.469713
-0.417812
-0.37617
-0.36107
-0.506799
-0.880209
-1.3749
-1.66393
-1.59546
-1.43189
-1.19969
-1.03767
-0.947336
-0.670437
-0.668315
-0.663354
-0.645212
-0.61084
-0.564274
-0.510679
-0.450784
-0.381147
-0.312506
-0.234984
-0.173426
-0.0665887
0.178048
0.453316
0.773994
1.11042
1.34291
1.42496
1.46072
-0.64545
-0.6446
-0.643217
-0.632624
-0.602245
-0.554334
-0.493891
-0.424461
-0.343846
-0.238888
-0.132002
0.0449953
0.328602
0.761742
1.31933
1.8284
2.20935
2.38974
2.46552
2.49258
-0.630121
-0.629585
-0.629251
-0.623878
-0.59802
-0.548201
-0.480626
-0.39831
-0.307769
-0.193789
-0.0730036
0.068527
0.346111
0.818537
1.40103
1.9115
2.26094
2.46555
2.56585
2.59283
-0.620704
-0.619837
-0.619002
-0.617855
-0.598446
-0.54716
-0.472169
-0.381814
-0.280226
-0.175708
-0.0534804
0.0386785
0.271124
0.70559
1.16575
1.56832
1.87671
2.06751
2.14917
2.17004
-0.621358
-0.619289
-0.617578
-0.619312
-0.605876
-0.551072
-0.4653
-0.370437
-0.265536
-0.160526
-0.0587775
0.0293848
0.138354
0.489971
0.868163
1.18106
1.40683
1.5299
1.58401
1.59899
-0.637916
-0.637211
-0.640458
-0.644667
-0.62492
-0.554687
-0.455356
-0.353227
-0.252826
-0.147204
-0.0595996
0.0253216
0.111884
0.367653
0.633055
0.848967
0.992839
1.07428
1.10938
1.11818
-0.648388
-0.65373
-0.664072
-0.664856
-0.630319
-0.540444
-0.431347
-0.328811
-0.231664
-0.136115
-0.0528287
0.0143533
0.0863397
0.241503
0.425374
0.573129
0.673518
0.729584
0.754141
0.761077
-0.594403
-0.602659
-0.614373
-0.612451
-0.570027
-0.479031
-0.381472
-0.291077
-0.204759
-0.123302
-0.049704
0.0135735
0.0614864
0.182992
0.312364
0.40788
0.4727
0.512103
0.530666
0.533505
-0.438369
-0.446033
-0.455164
-0.453097
-0.421901
-0.364454
-0.3019
-0.235977
-0.172273
-0.106388
-0.0472975
0.0151489
0.0548845
0.120742
0.217512
0.290127
0.334952
0.362417
0.372228
0.374046
-0.237297
-0.241726
-0.248613
-0.253129
-0.247282
-0.230161
-0.204841
-0.17202
-0.133045
-0.0854414
-0.0402704
0.00627277
0.051741
0.0813945
0.141273
0.191789
0.232942
0.259268
0.270035
0.270005
-0.073889
-0.0760414
-0.0820163
-0.0935108
-0.107028
-0.1174
-0.120001
-0.113455
-0.0965137
-0.0671557
-0.0356939
-0.00478356
0.0309045
0.0540688
0.093989
0.128365
0.155412
0.172826
0.178685
0.177956
0.0169877
0.0156614
0.0100642
-0.00372173
-0.0246304
-0.0457713
-0.0613672
-0.0687756
-0.0665519
-0.0533631
-0.0350381
-0.016991
0.00155692
0.0128658
0.0403624
0.0660533
0.0863255
0.0977942
0.101579
0.100089
0.0519456
0.0509509
0.0463313
0.0342991
0.0151474
-0.00616928
-0.0248143
-0.0387414
-0.0448159
-0.0444162
-0.0394309
-0.0376601
-0.0373566
-0.0388833
-0.0173179
0.00430091
0.0221034
0.0312454
0.0333696
0.0319145
0.0572359
0.0565305
0.0531987
0.0443066
0.0294421
0.0117808
-0.00548293
-0.0199406
-0.0310099
-0.0380582
-0.0454561
-0.0584902
-0.0727119
-0.0774249
-0.0585887
-0.0410515
-0.0287233
-0.0240255
-0.0227807
-0.0236413
0.0499303
0.0494458
0.0472168
0.0412034
0.0308472
0.0175934
0.00354974
-0.00952632
-0.0215162
-0.0328629
-0.0461522
-0.0693204
-0.0899358
-0.090601
-0.0750712
-0.0619153
-0.0562154
-0.0557274
-0.0563483
-0.0568432
0.0388344
0.0384934
0.0370607
0.0332579
0.0264363
0.0172501
0.00679756
-0.00382965
-0.0146363
-0.0263128
-0.0406474
-0.0648036
-0.083805
-0.0794409
-0.06777
-0.0619116
-0.0615492
-0.0633574
-0.0641803
-0.0645239
0.0280652
0.027817
0.026934
0.024707
0.020467
0.0146243
0.00723134
-0.000264381
-0.00882845
-0.0180982
-0.0289599
-0.0446954
-0.0539427
-0.0471682
-0.042627
-0.0429134
-0.0459717
-0.0489799
-0.0500751
-0.0504733
0.019244
0.019054
0.0185195
0.0172771
0.0148816
0.0112205
0.00652739
0.00137408
-0.00430925
-0.00895601
-0.0122774
-0.0151695
-0.013437
-0.00731501
-0.00829486
-0.0137662
-0.0186072
-0.0209461
-0.0215903
-0.0220693
0.0127235
0.01257
0.0122213
0.0115275
0.010211
0.00807082
0.00522747
0.00198312
-0.000745288
-0.00124725
0.00346879
0.015633
0.0292577
0.0326921
0.0254697
0.0179096
0.0142367
0.0134793
0.0131143
0.012214
0.00823546
0.00810874
0.0078548
0.00742055
0.00666967
0.00538152
0.00368172
0.00144142
0.000352527
0.00205794
0.0129997
0.0357331
0.0591985
0.0574886
0.0458241
0.0383275
0.0373585
0.0385395
0.0385414
0.0374114
0.00521703
0.00512224
0.00491603
0.0045466
0.00400594
0.00301937
0.00180687
-6.25681e-06
-0.000833121
0.000358998
0.0107079
0.0345061
0.0568513
0.0534
0.0446002
0.0428238
0.0446718
0.0475299
0.0474263
0.0460749
0.00299921
0.00290563
0.00271232
0.00234519
0.00182197
0.00101746
-0.000238938
-0.00189797
-0.00387525
-0.00601135
-0.00302327
0.0104475
0.0222713
0.018867
0.0175734
0.0224427
0.0302765
0.034574
0.0345384
0.0332687
0.00142964
0.00132609
0.00115085
0.000789057
0.000268114
-0.000526157
-0.00192986
-0.00373855
-0.00731292
-0.0142136
-0.0229466
-0.0296337
-0.0412569
-0.0398356
-0.0263781
-0.011502
-0.000582096
0.0042524
0.00425606
0.00344745
0.00055056
0.000468483
0.000335328
-1.87863e-05
-0.000616783
-0.00142303
-0.00282096
-0.00509221
-0.0102637
-0.0207673
-0.0410778
-0.0737645
-0.103122
-0.097365
-0.0698662
-0.0461989
-0.0353199
-0.0321868
-0.0315527
-0.0317043
4.11101e-05
-3.26433e-05
-0.0001243
-0.000350217
-0.000834725
-0.00167581
-0.0027633
-0.00513114
-0.0100819
-0.0211685
-0.0433651
-0.0842381
-0.120263
-0.10811
-0.0805686
-0.0622082
-0.0576256
-0.0563592
-0.0545276
-0.053777
-0.000195763
-0.00029794
-0.000355528
-0.000490949
-0.000794116
-0.00124349
-0.00208838
-0.00335757
-0.0070344
-0.0156231
-0.029924
-0.0556341
-0.0770913
-0.0659105
-0.0506027
-0.0473042
-0.0457611
-0.0458275
-0.0446719
-0.0441665
0.000177775
0.000104028
2.55021e-05
-1.62653e-05
4.08304e-05
-0.000251107
-0.000507339
-0.000510041
-0.000538534
-0.00255793
-0.00401336
-0.006426
-0.0148803
-0.0135444
-0.0151839
-0.0152997
-0.0163612
-0.0150199
-0.0127198
-0.011355
0.0413496
0.232837
0.409372
0.559595
0.68152
0.779411
0.86167
0.92835
0.94546
0.941483
0.338561
0.462326
0.578584
0.680238
0.766502
0.83824
0.894908
0.933183
0.95358
0.970011
0.54068
0.623349
0.705313
0.777671
0.839713
0.891266
0.931818
0.962581
0.985557
1.00479
0.689738
0.747927
0.807468
0.861062
0.907343
0.946626
0.979469
1.0069
1.0275
1.04642
0.807727
0.852163
0.896862
0.938204
0.974931
1.00731
1.03557
1.05945
1.0776
1.09566
0.908551
0.944581
0.97998
1.01423
1.04577
1.07426
1.09939
1.12044
1.13635
1.15384
0.997287
1.02981
1.06232
1.09372
1.12296
1.14953
1.1728
1.19186
1.20587
1.22291
1.08482
1.1176
1.15022
1.18157
1.21048
1.23639
1.25863
1.27625
1.2887
1.30524
1.17953
1.216
1.25087
1.28344
1.31272
1.33816
1.35937
1.37572
1.38738
1.40354
1.29272
1.33327
1.37039
1.40347
1.43206
1.45612
1.4758
1.49112
1.50305
1.51914
1.43409
1.47529
1.51061
1.54027
1.56554
1.58719
1.60573
1.62124
1.63438
1.65033
1.60579
1.63837
1.66523
1.68755
1.70765
1.7264
1.74416
1.76094
1.77587
1.7916
1.79224
1.80955
1.82669
1.84338
1.85948
1.87422
1.88813
1.90262
1.91787
1.93517
1.97563
1.98564
1.99885
2.00985
2.01925
2.02892
2.03953
2.04972
2.05902
2.08468
2.19359
2.18788
2.17494
2.16068
2.15439
2.16011
2.17825
2.20678
2.24055
2.27687
2.4964
2.36043
2.28094
2.23844
2.22113
2.2251
2.25253
2.3104
2.41807
2.59647
0.790488
0.784184
0.776448
0.765325
0.751742
0.739076
0.728653
0.720603
0.714833
0.711435
0.710999
0.713751
0.718919
0.726228
0.735743
0.74755
0.761096
0.774014
0.782996
0.790533
0.699577
0.705494
0.713562
0.719684
0.722739
0.722209
0.719097
0.715062
0.711418
0.709061
0.708841
0.711008
0.714694
0.71909
0.723155
0.725374
0.724282
0.719633
0.712569
0.704731
0.692866
0.695237
0.698498
0.70126
0.703695
0.705863
0.707012
0.706823
0.705826
0.70494
0.70506
0.706382
0.708091
0.709264
0.709146
0.707646
0.705465
0.703085
0.70009
0.697066
0.688129
0.689217
0.691127
0.693452
0.695305
0.696678
0.697862
0.698805
0.699336
0.699621
0.700068
0.700714
0.7011
0.700916
0.700236
0.699275
0.697916
0.695924
0.693801
0.692318
0.683174
0.683808
0.68493
0.686673
0.688496
0.690061
0.691271
0.692278
0.693179
0.693971
0.694633
0.695037
0.695081
0.694797
0.694199
0.693177
0.691713
0.690074
0.688717
0.68791
0.678338
0.678777
0.67956
0.680849
0.682348
0.683879
0.68531
0.68654
0.687603
0.688568
0.689375
0.689837
0.689898
0.689568
0.688829
0.687769
0.686566
0.685384
0.684457
0.683919
0.673614
0.673942
0.674549
0.675603
0.676872
0.678236
0.679661
0.681061
0.68235
0.683512
0.684486
0.685057
0.685137
0.684772
0.684079
0.683216
0.682306
0.681404
0.680714
0.680318
0.668983
0.669238
0.669726
0.670623
0.67177
0.673041
0.674408
0.675854
0.677321
0.678731
0.679923
0.680621
0.68077
0.680515
0.680005
0.679354
0.678636
0.677944
0.677427
0.677123
0.664379
0.664581
0.664987
0.665774
0.666842
0.668061
0.669409
0.670894
0.672484
0.6741
0.675542
0.676469
0.676816
0.676763
0.676456
0.676
0.675466
0.674949
0.674565
0.674326
0.659721
0.659883
0.66023
0.660945
0.661969
0.663166
0.664534
0.666087
0.667809
0.669653
0.671399
0.672625
0.673251
0.673448
0.67336
0.673099
0.672742
0.672377
0.672101
0.671911
0.654936
0.655067
0.655372
0.656042
0.657047
0.658267
0.65969
0.661342
0.66324
0.665347
0.667456
0.669079
0.670048
0.670539
0.670702
0.670647
0.670467
0.670246
0.67006
0.669906
0.649942
0.650047
0.650323
0.650975
0.651996
0.653279
0.654809
0.656632
0.658781
0.661251
0.663819
0.665899
0.667257
0.66807
0.668494
0.668655
0.668649
0.668565
0.668456
0.668332
0.644662
0.644744
0.645004
0.645664
0.646744
0.648137
0.649831
0.651898
0.65439
0.657321
0.660455
0.663097
0.664904
0.666073
0.666783
0.667177
0.667351
0.667392
0.667351
0.667252
0.639006
0.639067
0.639319
0.640007
0.641177
0.642723
0.644632
0.647003
0.64992
0.653427
0.657264
0.660576
0.662933
0.664541
0.665598
0.666265
0.666638
0.666813
0.666836
0.666756
0.632861
0.632902
0.633153
0.633888
0.635182
0.636928
0.639121
0.64187
0.645311
0.649518
0.654213
0.658359
0.661392
0.663535
0.664998
0.665966
0.666579
0.666897
0.666984
0.666924
0.626107
0.62612
0.626371
0.627176
0.628634
0.630642
0.633209
0.636476
0.640587
0.645657
0.651401
0.656576
0.660422
0.663178
0.665097
0.66642
0.667304
0.66778
0.667936
0.667892
0.618532
0.618541
0.618803
0.619699
0.621374
0.623727
0.626765
0.630671
0.635662
0.641877
0.64893
0.655284
0.660055
0.66354
0.666024
0.667775
0.66896
0.669608
0.669833
0.669803
0.609895
0.609873
0.610176
0.611202
0.61315
0.615915
0.619532
0.624226
0.630239
0.637779
0.646414
0.654278
0.66024
0.664633
0.667814
0.670108
0.671668
0.672523
0.672828
0.672812
0.599896
0.599852
0.600198
0.601392
0.603677
0.606983
0.611366
0.617097
0.624479
0.633733
0.644315
0.653949
0.661258
0.666694
0.670703
0.67363
0.675622
0.676718
0.677108
0.677102
0.588081
0.588014
0.588429
0.589852
0.592579
0.596593
0.601968
0.609023
0.618123
0.629517
0.642474
0.654208
0.66314
0.669825
0.674798
0.678473
0.680995
0.682376
0.682855
0.682855
0.573775
0.573688
0.574222
0.57596
0.579262
0.584205
0.590883
0.599663
0.610946
0.624958
0.640796
0.655068
0.665908
0.674056
0.68019
0.684765
0.687919
0.689624
0.690195
0.690189
0.555974
0.555873
0.556604
0.55882
0.562977
0.569267
0.577785
0.588934
0.60312
0.62048
0.639742
0.656872
0.669825
0.679614
0.687051
0.692615
0.696466
0.698509
0.699162
0.699142
0.533192
0.533092
0.53416
0.537146
0.542625
0.550919
0.562059
0.576428
0.594339
0.615762
0.639064
0.6595
0.67486
0.686475
0.695355
0.70205
0.706639
0.709013
0.709728
0.709683
0.503082
0.503034
0.504713
0.509057
0.516807
0.528289
0.543337
0.562198
0.584952
0.611332
0.63925
0.663281
0.681218
0.694782
0.705197
0.713077
0.718395
0.721046
0.72179
0.721712
0.461529
0.461689
0.464723
0.471908
0.483897
0.500622
0.521487
0.546415
0.575191
0.607348
0.640396
0.6683
0.688945
0.704536
0.716563
0.725656
0.731623
0.73444
0.735157
0.735041
0.400861
0.402191
0.409591
0.423263
0.443007
0.468054
0.497117
0.529752
0.565656
0.604272
0.642804
0.674702
0.698093
0.715722
0.729321
0.739543
0.746046
0.748862
0.749449
0.749295
0.327831
0.330496
0.34486
0.36852
0.39895
0.433884
0.471874
0.512764
0.556367
0.602208
0.647238
0.684253
0.711407
0.73198
0.747772
0.759458
0.76672
0.769759
0.770456
0.770438
0.253044
0.260034
0.281564
0.315145
0.355904
0.400486
0.447431
0.496646
0.548051
0.601234
0.652951
0.695301
0.726365
0.750008
0.768347
0.781793
0.789714
0.792616
0.793182
0.793267
0.192324
0.201081
0.227316
0.26796
0.316725
0.369458
0.424462
0.481496
0.540347
0.60059
0.658675
0.706003
0.740675
0.767035
0.787441
0.80218
0.810501
0.813723
0.814727
0.814903
0.142556
0.152009
0.181727
0.227574
0.282426
0.341677
0.403448
0.467349
0.532979
0.599779
0.663834
0.715778
0.753722
0.782508
0.804663
0.820561
0.829778
0.833652
0.834846
0.83504
0.100687
0.110436
0.142528
0.192426
0.252238
0.316893
0.384386
0.454232
0.525911
0.598692
0.668248
0.724459
0.765346
0.796266
0.81988
0.836785
0.846752
0.851104
0.852448
0.852644
0.0642092
0.0740994
0.107978
0.161129
0.225075
0.294356
0.366828
0.441922
0.519039
0.597286
0.671912
0.732054
0.775606
0.808244
0.832891
0.850422
0.861065
0.865853
0.867346
0.86757
0.0314898
0.0414427
0.0767367
0.132595
0.200077
0.273372
0.350248
0.43008
0.512164
0.595488
0.674889
0.738681
0.784628
0.818698
0.844149
0.862202
0.87329
0.878419
0.880041
0.880278
0.00135644
0.0113585
0.0477822
0.106023
0.176594
0.253416
0.334223
0.418363
0.505062
0.59319
0.677159
0.744434
0.792566
0.827892
0.85401
0.872481
0.883857
0.889258
0.890929
0.891151
-0.0270284
-0.0169606
0.0205026
0.0808518
0.154159
0.234118
0.318455
0.406535
0.49755
0.590262
0.678677
0.749356
0.799574
0.836073
0.862775
0.881564
0.893105
0.898595
0.90029
0.900521
-0.0541335
-0.0439796
-0.00556179
0.0566829
0.132433
0.215206
0.302736
0.394432
0.489475
0.586594
0.679382
0.753458
0.80578
0.843472
0.870794
0.8899
0.901577
0.907117
0.908792
0.908916
-0.0803265
-0.070024
-0.0307106
0.0332539
0.11119
0.196493
0.28692
0.381937
0.480755
0.582084
0.679204
0.756751
0.811281
0.850265
0.878284
0.897718
0.909505
0.914987
0.916606
0.916724
-0.105826
-0.0952936
-0.0551335
0.010393
0.0902965
0.177864
0.270924
0.368991
0.47132
0.576673
0.678085
0.759236
0.816164
0.856586
0.885386
0.905161
0.917027
0.92244
0.923952
0.924025
-0.130689
-0.119903
-0.078924
-0.0119832
0.0696738
0.159274
0.254709
0.355562
0.461142
0.57031
0.675971
0.760896
0.820464
0.862527
0.892212
0.912342
0.924214
0.929464
0.930836
0.930842
-0.154989
-0.143942
-0.102177
-0.0339045
0.0493033
0.140709
0.238279
0.341656
0.450222
0.562977
0.672801
0.761665
0.824179
0.868157
0.89886
0.919328
0.931116
0.936119
0.937285
0.937214
-0.178747
-0.167421
-0.124864
-0.0553808
0.0291922
0.122197
0.221676
0.327315
0.438588
0.55466
0.668514
0.761446
0.827254
0.873525
0.905444
0.926213
0.937735
0.942329
0.943258
0.943125
-0.202015
-0.190341
-0.14697
-0.0763998
0.00937045
0.103783
0.20495
0.312603
0.426291
0.545379
0.663064
0.760137
0.829583
0.878638
0.912121
0.933171
0.944152
0.948109
0.948735
0.948546
-0.224564
-0.212653
-0.168478
-0.0969328
-0.010105
0.0855475
0.188175
0.297591
0.413407
0.53519
0.656429
0.75764
0.831019
0.883412
0.919056
0.940554
0.95062
0.953503
0.953677
0.953443
-0.246555
-0.2343
-0.189357
-0.116946
-0.0291945
0.0675353
0.171447
0.282368
0.400027
0.524178
0.648616
0.753859
0.831372
0.887625
0.926291
0.948895
0.957841
0.95888
0.958117
0.957815
-0.26781
-0.25525
-0.209591
-0.136387
-0.0478131
0.0498361
0.154852
0.267057
0.386259
0.512419
0.639667
0.748701
0.830445
0.89093
0.933545
0.958634
0.967214
0.965745
0.962696
0.961793
-0.288428
-0.275529
-0.229122
-0.155202
-0.065922
0.0325217
0.138481
0.251742
0.372219
0.500054
0.629661
0.742081
0.828051
0.892896
0.940051
0.969405
0.980056
0.977584
0.970747
0.960826
-0.308296
-0.295136
-0.248055
-0.173564
-0.083753
0.0152935
0.121976
0.235996
0.357428
0.486546
0.618038
0.733363
0.823645
0.893038
0.944798
0.979769
0.995805
0.994929
0.98434
0.980737
-0.327375
-0.314151
-0.266383
-0.191408
-0.101282
-0.00182112
0.105374
0.219804
0.341859
0.471783
0.604641
0.72213
0.816579
0.89056
0.945513
0.984276
1.00363