/*--------------------------------*- C++ -*----------------------------------*\
  =========                 |
  \\      /  F ield         | OpenFOAM: The Open Source CFD Toolbox
   \\    /   O peration     | Website:  https://openfoam.org
    \\  /    A nd           | Version:  6
     \\/     M anipulation  |
\*---------------------------------------------------------------------------*/
FoamFile
{
    version     2.0;
    format      ascii;
    class       volScalarField;
    location    "10";
    object      p;
}
// * * * * * * * * * * * * * * * * * * * * * * * * * * * * * * * * * * * * * //

dimensions      [0 2 -2 0 0 0 0];

internalField   nonuniform List<scalar> 
2200
(
0.465839
0.450695
0.433344
0.417123
0.402745
0.390999
0.381672
0.374364
0.369236
0.36652
0.366689
0.369713
0.375094
0.382613
0.392098
0.40395
0.418399
0.434666
0.452042
0.467198
0.408882
0.404941
0.400177
0.395167
0.389681
0.383887
0.377737
0.372013
0.367708
0.365295
0.3655
0.368259
0.372839
0.378784
0.385091
0.390995
0.396565
0.40162
0.406406
0.410358
0.36602
0.366167
0.367936
0.370649
0.372796
0.372685
0.370497
0.367492
0.364686
0.362815
0.363068
0.365356
0.368464
0.371683
0.374031
0.374252
0.37219
0.369552
0.367839
0.367707
0.340458
0.341924
0.345298
0.349927
0.354066
0.356662
0.358134
0.358726
0.358353
0.35783
0.35811
0.359099
0.359771
0.359416
0.358168
0.355751
0.35173
0.347171
0.343834
0.342384
0.32768
0.328949
0.331598
0.334999
0.338138
0.341065
0.344025
0.346701
0.348434
0.349401
0.349702
0.349269
0.347875
0.345623
0.343016
0.340288
0.337266
0.333929
0.331311
0.330055
0.323762
0.324764
0.326673
0.328962
0.331075
0.333305
0.335707
0.337919
0.339811
0.341145
0.341578
0.340973
0.339571
0.33798
0.33592
0.333832
0.331814
0.329589
0.327719
0.326729
0.324338
0.325088
0.326563
0.328407
0.330138
0.331844
0.33357
0.335001
0.33622
0.337241
0.337806
0.337821
0.337634
0.33656
0.334983
0.333478
0.331884
0.330125
0.328687
0.327946
0.325693
0.326053
0.326902
0.32815
0.329475
0.330852
0.332146
0.333346
0.334493
0.335465
0.336025
0.336141
0.33594
0.335514
0.334625
0.333557
0.332429
0.331294
0.330489
0.330127
0.324725
0.324811
0.325092
0.325536
0.326161
0.327023
0.32801
0.329172
0.330513
0.331749
0.3325
0.332615
0.33235
0.332039
0.331719
0.331235
0.330842
0.33052
0.33033
0.330287
0.321279
0.321245
0.32122
0.321277
0.321496
0.321924
0.322649
0.323668
0.324933
0.326306
0.327446
0.327996
0.328159
0.327989
0.327841
0.327839
0.327901
0.328012
0.328105
0.328131
0.317173
0.317156
0.317198
0.317353
0.317629
0.318038
0.318641
0.319505
0.320637
0.322003
0.323384
0.324448
0.32499
0.325261
0.325457
0.325601
0.325694
0.325774
0.325837
0.325862
0.313312
0.313341
0.313467
0.313737
0.314143
0.3147
0.31545
0.316435
0.317689
0.319234
0.320815
0.322189
0.323005
0.323582
0.323971
0.324194
0.324289
0.324319
0.324325
0.32433
0.309219
0.309257
0.309378
0.309607
0.310004
0.31061
0.311477
0.312657
0.314191
0.316096
0.318076
0.319737
0.320978
0.321824
0.322361
0.322697
0.322895
0.323003
0.323045
0.323052
0.304354
0.304383
0.304511
0.304753
0.305158
0.305797
0.306757
0.308129
0.309988
0.312363
0.314944
0.317137
0.31877
0.319898
0.320664
0.321175
0.321507
0.321709
0.321805
0.321826
0.298788
0.298817
0.298964
0.299277
0.299788
0.30057
0.301734
0.303403
0.305695
0.308672
0.311964
0.314812
0.316923
0.318407
0.319426
0.320106
0.320543
0.320802
0.320925
0.320952
0.292592
0.292633
0.292825
0.293227
0.293889
0.294894
0.296369
0.298471
0.301354
0.305115
0.309296
0.312924
0.31561
0.317504
0.3188
0.319659
0.320206
0.320527
0.320674
0.320704
0.285632
0.285688
0.28593
0.286426
0.287247
0.288513
0.290383
0.293051
0.29671
0.301486
0.306794
0.311385
0.314774
0.317165
0.318795
0.319872
0.320555
0.320952
0.321134
0.32117
0.277457
0.277533
0.277858
0.278512
0.27958
0.281207
0.283593
0.286991
0.291651
0.297725
0.304458
0.310249
0.314507
0.317502
0.319542
0.320891
0.321753
0.322261
0.322493
0.322538
0.267962
0.268051
0.268444
0.269256
0.270612
0.272704
0.27578
0.280154
0.286126
0.293873
0.3024
0.309676
0.314998
0.318729
0.321263
0.322933
0.323991
0.324604
0.32488
0.324933
0.256323
0.256475
0.257053
0.258178
0.25998
0.262715
0.266706
0.272359
0.280045
0.289931
0.300692
0.309785
0.316395
0.321012
0.324142
0.326208
0.327528
0.328306
0.328663
0.328733
0.242428
0.242575
0.243263
0.244708
0.247104
0.250741
0.256021
0.263436
0.273385
0.285988
0.299489
0.310767
0.318924
0.324618
0.328482
0.331032
0.33265
0.333582
0.333993
0.334062
0.224767
0.225083
0.226151
0.228201
0.231456
0.23632
0.243389
0.253187
0.266099
0.282088
0.298867
0.312713
0.322695
0.329676
0.334429
0.337573
0.33958
0.340764
0.341305
0.341412
0.202637
0.202968
0.20438
0.207252
0.211863
0.218748
0.228457
0.241563
0.258305
0.278404
0.299019
0.315819
0.327924
0.336459
0.342345
0.346298
0.348834
0.3503
0.350944
0.351045
0.173487
0.174227
0.176515
0.180829
0.187652
0.197505
0.211065
0.228725
0.250222
0.275149
0.300107
0.320197
0.334685
0.345034
0.352287
0.357232
0.360477
0.362394
0.363248
0.3634
0.134962
0.136208
0.139973
0.146968
0.157502
0.172209
0.191499
0.214921
0.242019
0.272457
0.302178
0.325835
0.342931
0.355325
0.364307
0.370645
0.374931
0.377573
0.378764
0.378914
0.0837171
0.0854301
0.091835
0.10365
0.121066
0.143564
0.170404
0.200571
0.234139
0.270664
0.30545
0.332862
0.352754
0.367347
0.378217
0.386348
0.392032
0.395443
0.39684
0.396838
0.014155
0.0194707
0.0336288
0.0547578
0.0820527
0.113838
0.148494
0.185947
0.226682
0.26992
0.310418
0.342281
0.365748
0.38337
0.396828
0.407506
0.416044
0.42186
0.424577
0.425125
-0.0654806
-0.0518777
-0.026308
0.00621874
0.0438457
0.084135
0.126192
0.171311
0.219544
0.269924
0.316832
0.353905
0.381619
0.402995
0.419823
0.433383
0.444756
0.453896
0.459714
0.461577
-0.131567
-0.114023
-0.081722
-0.040275
0.00633909
0.0544761
0.104312
0.157381
0.21293
0.270233
0.323213
0.364976
0.396204
0.42035
0.439461
0.454702
0.466975
0.47661
0.482672
0.484961
-0.1819
-0.164294
-0.12871
-0.0815485
-0.0285992
0.0261682
0.0835724
0.144072
0.206394
0.270144
0.328534
0.374103
0.407773
0.433387
0.453315
0.468992
0.481292
0.490626
0.496356
0.498567
-0.223872
-0.205256
-0.167092
-0.116355
-0.0592949
0.000668485
0.0644131
0.131096
0.199425
0.268979
0.332075
0.380686
0.416055
0.442485
0.462662
0.478357
0.490639
0.499892
0.50557
0.507665
-0.25971
-0.239929
-0.199117
-0.145475
-0.0854103
-0.0215541
0.0468933
0.118454
0.192055
0.266869
0.334276
0.385641
0.422524
0.449724
0.470235
0.486019
0.498324
0.50756
0.513221
0.515365
-0.291061
-0.270342
-0.227112
-0.170679
-0.108006
-0.041073
0.0309155
0.106487
0.184742
0.264366
0.335879
0.38996
0.428435
0.456536
0.477502
0.493465
0.505803
0.514998
0.520568
0.522657
-0.319412
-0.298063
-0.252715
-0.193751
-0.128716
-0.0589936
0.0160805
0.0952376
0.177658
0.261762
0.337325
0.394221
0.434354
0.463356
0.484784
0.500917
0.513259
0.522401
0.527886
0.529907
-0.345442
-0.323651
-0.276676
-0.215847
-0.148752
-0.0763421
0.00167546
0.0842026
0.170482
0.258883
0.338469
0.398223
0.440126
0.470171
0.492118
0.50847
0.520883
0.530007
0.535401
0.537304
-0.369428
-0.347216
-0.29931
-0.237346
-0.16852
-0.0936667
-0.0129117
0.0727805
0.162731
0.255348
0.339068
0.402031
0.445967
0.477143
0.499692
0.516304
0.528721
0.537778
0.543193
0.545106
-0.391995
-0.369329
-0.320922
-0.25821
-0.187919
-0.111021
-0.0278707
0.0607158
0.154195
0.251071
0.339214
0.405671
0.451866
0.484398
0.507675
0.524621
0.537209
0.546267
0.551659
0.55347
-0.413924
-0.390643
-0.341824
-0.278397
-0.206818
-0.128259
-0.0430805
0.0480785
0.144859
0.245842
0.338339
0.408581
0.457588
0.491908
0.51614
0.533534
0.546204
0.555206
0.560493
0.562269
-0.435444
-0.411565
-0.362242
-0.297986
-0.225239
-0.145286
-0.0583862
0.035006
0.134735
0.239608
0.336746
0.411306
0.463545
0.499849
0.525145
0.543046
0.55589
0.564866
0.570118
0.571801
-0.456468
-0.432131
-0.382235
-0.317094
-0.243289
-0.162107
-0.0737195
0.0216061
0.123928
0.2325
0.334257
0.412914
0.468771
0.507858
0.534799
0.553324
0.566397
0.575345
0.580327
0.581844
-0.476928
-0.452274
-0.401777
-0.335775
-0.261019
-0.178734
-0.0890525
0.00795025
0.112465
0.224235
0.33022
0.413126
0.473175
0.515927
0.544975
0.564415
0.577469
0.586101
0.590861
0.592312
-0.496792
-0.471925
-0.420814
-0.354
-0.278386
-0.195139
-0.10436
-0.00593099
0.100388
0.214975
0.32547
0.412638
0.476564
0.523142
0.555656
0.576549
0.589676
0.598016
0.602264
0.603302
-0.516049
-0.491043
-0.439285
-0.371681
-0.295292
-0.211259
-0.119605
-0.0199734
0.0878959
0.205024
0.319465
0.410322
0.477842
0.529317
0.566771
0.590757
0.604265
0.611044
0.614008
0.614343
-0.534669
-0.509577
-0.457108
-0.388716
-0.311637
-0.227013
-0.134705
-0.0340819
0.0751413
0.194376
0.311904
0.406484
0.477258
0.533017
0.575983
0.605902
0.621522
0.626563
0.626098
0.624694
-0.552608
-0.527467
-0.4742
-0.405022
-0.327355
-0.242328
-0.149598
-0.0482465
0.062154
0.183247
0.303482
0.401597
0.475377
0.534317
0.583364
0.621086
0.643252
0.648237
0.64045
0.633581
-0.569848
-0.544612
-0.490475
-0.420548
-0.342422
-0.25717
-0.164254
-0.0624516
0.0490233
0.172056
0.294182
0.394892
0.471512
0.533469
0.586924
0.633003
0.667665
0.680055
0.662375
0.630553
-0.586369
-0.56091
-0.505944
-0.435428
-0.357028
-0.271757
-0.178901
-0.0769336
0.0355364
0.160576
0.283755
0.385904
0.464678
0.529598
0.58566
0.637943
0.685576
0.721723
0.741348
0.747185
-0.602116
-0.57639
-0.520722
-0.449828
-0.371397
-0.286373
-0.193866
-0.0920796
0.0211164
0.147875
0.27205
0.374485
0.454825
0.521576
0.578166
0.627748
0.671533
0.705538
0.70131
0.688702
-0.617076
-0.591103
-0.534805
-0.463666
-0.38547
-0.300961
-0.209029
-0.107693
0.00584959
0.133964
0.25934
0.361052
0.440212
0.504688
0.557249
0.596394
0.611019
0.594328
0.558044
0.545604
-0.631225
-0.605185
-0.548224
-0.476935
-0.399276
-0.315535
-0.224353
-0.123678
-0.0101679
0.118909
0.245407
0.344966
0.419733
0.475384
0.514871
0.528764
0.507009
0.453529
0.391654
0.383474
-0.644479
-0.618709
-0.561024
-0.489724
-0.4129
-0.330109
-0.23981
-0.139932
-0.0268616
0.102425
0.230215
0.327996
0.393364
0.43088
0.444594
0.433826
0.387929
0.294321
0.210282
0.200223
-0.657131
-0.631917
-0.573754
-0.502669
-0.426776
-0.344967
-0.255613
-0.156667
-0.0445091
0.0841633
0.213844
0.308017
0.362562
0.379901
0.361071
0.319917
0.214014
0.0926723
-0.00538594
-0.0122339
-0.669883
-0.645236
-0.587352
-0.516719
-0.441528
-0.360552
-0.272171
-0.174355
-0.0635814
0.0639426
0.196094
0.285039
0.326707
0.318979
0.269901
0.177043
0.0218937
-0.131347
-0.256153
-0.268835
-0.683184
-0.659015
-0.602064
-0.532057
-0.457269
-0.376935
-0.28955
-0.193075
-0.084027
0.0418159
0.176604
0.260589
0.281724
0.247737
0.171622
0.0182742
-0.181703
-0.391449
-0.578125
-0.600496
-0.697148
-0.673369
-0.61754
-0.548265
-0.473795
-0.393995
-0.307663
-0.212889
-0.106052
0.0178795
0.155371
0.23478
0.226732
0.159164
0.0476204
-0.15561
-0.400185
-0.682686
-0.955644
-1.02936
-0.711946
-0.688423
-0.633538
-0.564986
-0.490923
-0.411709
-0.326556
-0.233949
-0.129972
-0.00777302
0.132083
0.208376
0.172499
0.0594492
-0.109167
-0.33991
-0.611792
-0.973948
-1.4807
-1.86035
-0.727561
-0.70411
-0.649919
-0.582006
-0.508487
-0.429963
-0.346134
-0.256009
-0.155451
-0.0351127
0.108165
0.17893
0.122713
-0.0342254
-0.281207
-0.555921
-0.813096
-1.17677
-1.85521
-2.90079
-0.744027
-0.720508
-0.666746
-0.599354
-0.526465
-0.448841
-0.36661
-0.279574
-0.183481
-0.065175
0.0846681
0.147129
0.0625889
-0.126775
-0.440835
-0.754582
-0.997587
-1.22475
-1.50496
-1.88946
-0.761078
-0.737464
-0.684138
-0.617244
-0.54504
-0.468669
-0.388527
-0.305348
-0.215236
-0.100368
0.0571082
0.117746
-0.00206237
-0.218481
-0.570954
-0.894264
-1.11343
-1.24569
-1.31393
-1.36459
-0.77863
-0.754956
-0.701982
-0.635544
-0.564027
-0.489267
-0.411913
-0.333112
-0.249738
-0.142234
0.0217683
0.0911133
-0.057981
-0.308519
-0.67609
-0.975321
-1.15548
-1.23099
-1.27585
-1.28377
-0.796268
-0.772571
-0.719986
-0.654033
-0.583233
-0.51027
-0.436546
-0.363508
-0.286854
-0.190482
-0.02293
0.0649449
-0.120005
-0.413495
-0.772941
-1.02763
-1.16776
-1.20166
-1.22046
-1.22547
-0.813881
-0.790122
-0.737751
-0.672273
-0.602318
-0.5312
-0.461733
-0.396638
-0.331797
-0.247564
-0.084116
0.0189334
-0.201258
-0.540789
-0.881399
-1.08742
-1.18017
-1.19156
-1.19578
-1.20106
-0.830794
-0.80702
-0.754833
-0.689784
-0.620761
-0.551559
-0.486404
-0.430733
-0.383438
-0.318417
-0.17182
-0.0618492
-0.305094
-0.704655
-1.0161
-1.14052
-1.16905
-1.20065
-1.20864
-1.21299
-0.846559
-0.822691
-0.770536
-0.705819
-0.637712
-0.570545
-0.50943
-0.464044
-0.432393
-0.40531
-0.309071
-0.203504
-0.424441
-0.859923
-1.17076
-1.27865
-1.26954
-1.294
-1.30264
-1.30339
-0.860236
-0.836381
-0.784237
-0.719669
-0.652155
-0.586849
-0.529932
-0.495544
-0.48653
-0.516232
-0.511848
-0.443731
-0.580911
-0.974055
-1.32759
-1.54594
-1.60168
-1.57129
-1.5385
-1.51718
-0.871008
-0.847097
-0.7948
-0.730198
-0.662924
-0.598961
-0.546573
-0.523155
-0.551088
-0.64994
-0.769295
-0.756196
-0.769888
-1.02749
-1.45723
-1.81729
-1.94081
-1.86658
-1.76533
-1.71222
-0.878052
-0.854048
-0.801501
-0.736495
-0.668844
-0.605396
-0.55671
-0.54246
-0.60381
-0.778561
-1.02567
-1.04588
-0.918257
-0.958089
-1.34426
-1.74349
-1.87362
-1.76592
-1.6188
-1.54484
-0.880443
-0.856471
-0.803244
-0.737322
-0.668667
-0.60468
-0.557735
-0.548937
-0.632381
-0.869132
-1.19718
-1.17537
-0.872697
-0.734359
-0.836411
-1.03055
-1.09509
-1.01618
-0.904921
-0.840352
-0.876967
-0.853056
-0.799067
-0.731941
-0.661365
-0.595882
-0.547839
-0.538409
-0.620872
-0.876415
-1.21366
-1.06552
-0.554727
-0.211054
0.00538018
0.0562797
0.0435044
0.0697264
0.120561
0.148769
-0.868423
-0.843471
-0.788229
-0.719429
-0.646605
-0.578929
-0.52629
-0.506329
-0.561459
-0.767775
-1.00954
-0.716005
-0.083721
0.357061
0.693909
0.850615
0.88654
0.910272
0.924877
0.930166
-0.852939
-0.826958
-0.770408
-0.699872
-0.625371
-0.554416
-0.493341
-0.454273
-0.465099
-0.567537
-0.639851
-0.274618
0.28301
0.686458
0.992225
1.15579
1.2204
1.25655
1.27148
1.2758
-0.828853
-0.802111
-0.745004
-0.673992
-0.598553
-0.523702
-0.452512
-0.391972
-0.353837
-0.345853
-0.271366
0.107002
0.51995
0.839563
1.06811
1.20101
1.27339
1.31521
1.33591
1.34373
-0.796798
-0.77076
-0.713729
-0.642671
-0.566519
-0.487922
-0.407828
-0.328938
-0.251687
-0.166133
-0.00748727
0.345047
0.652107
0.892183
1.05144
1.15207
1.21626
1.25751
1.28127
1.29123
-0.756879
-0.73316
-0.677599
-0.607171
-0.530223
-0.449021
-0.363278
-0.272543
-0.170994
-0.0367842
0.141394
0.419025
0.660448
0.839179
0.958988
1.04178
1.0999
1.14102
1.16702
1.17803
-0.708965
-0.688766
-0.634888
-0.564656
-0.488104
-0.407629
-0.320934
-0.225954
-0.116204
0.0256775
0.205257
0.418776
0.596443
0.729177
0.825034
0.896338
0.950139
0.990746
1.0178
1.02934
-0.649397
-0.631614
-0.580111
-0.511797
-0.439064
-0.362081
-0.278756
-0.186573
-0.0789538
0.0557293
0.214451
0.377253
0.508198
0.607194
0.681515
0.739112
0.78468
0.819867
0.843683
0.854397
-0.558287
-0.543526
-0.501271
-0.441907
-0.377474
-0.309667
-0.236068
-0.152971
-0.0538896
0.0662168
0.200721
0.330536
0.433113
0.51055
0.56776
0.610569
0.644131
0.670223
0.688152
0.696721
-0.428658
-0.419795
-0.3924
-0.349962
-0.30207
-0.250853
-0.191854
-0.119519
-0.0326623
0.0697169
0.183615
0.289878
0.372697
0.435215
0.480611
0.512152
0.535075
0.553238
0.565985
0.571782
-0.29086
-0.287472
-0.272908
-0.249018
-0.222095
-0.188846
-0.142745
-0.0823294
-0.0120225
0.0713162
0.165637
0.250821
0.315785
0.364314
0.39928
0.422146
0.436674
0.44744
0.455156
0.458487
-0.172587
-0.170655
-0.163559
-0.154159
-0.143518
-0.12342
-0.08949
-0.0451898
0.0070052
0.0729759
0.149202
0.21629
0.265878
0.302206
0.328281
0.345088
0.354517
0.3607
0.365226
0.36716
-0.0831307
-0.0827266
-0.0800279
-0.0776661
-0.0732331
-0.0604649
-0.0390791
-0.0117738
0.0252878
0.0771802
0.136073
0.187419
0.225361
0.252037
0.27071
0.283094
0.289807
0.293778
0.296624
0.297872
-0.0231389
-0.0237822
-0.0239905
-0.0236709
-0.0206663
-0.0115514
0.000355061
0.0165323
0.0435459
0.0825741
0.126755
0.165716
0.194511
0.214199
0.227429
0.236741
0.241776
0.244203
0.245696
0.246101
0.0119382
0.0109332
0.0090834
0.0077965
0.00951329
0.0158806
0.0238546
0.036238
0.0575484
0.0865733
0.119744
0.149164
0.171072
0.186113
0.196162
0.202939
0.206403
0.207257
0.20732
0.207245
0.0297379
0.0288846
0.0268908
0.0247602
0.0251847
0.0283586
0.034716
0.0458453
0.063264
0.0865354
0.112641
0.135212
0.15207
0.164157
0.171862
0.176263
0.178445
0.178685
0.178328
0.178105
0.0389628
0.0383967
0.0370705
0.0357354
0.0359994
0.0375418
0.0414343
0.0500909
0.0635821
0.0830074
0.10463
0.122409
0.135745
0.145191
0.150589
0.153435
0.154958
0.15521
0.155021
0.154866
0.0461282
0.0458181
0.0452092
0.0447849
0.045245
0.0462432
0.0488966
0.054856
0.0646003
0.0794995
0.0965735
0.110863
0.121319
0.128149
0.132044
0.134173
0.13534
0.135664
0.135622
0.135527
0.0520225
0.0518306
0.0514934
0.0513428
0.0517559
0.0526138
0.0548558
0.0591932
0.0661342
0.0768865
0.0897014
0.100764
0.108516
0.113501
0.116527
0.118181
0.119067
0.119345
0.119331
0.119255
0.0552523
0.0550909
0.0547702
0.0545489
0.0547304
0.0554138
0.057269
0.0606114
0.0659521
0.0739537
0.0834984
0.0917402
0.0975171
0.101289
0.10362
0.104877
0.105498
0.105671
0.105637
0.105568
0.0557741
0.0556389
0.0553517
0.0551072
0.0551389
0.0556257
0.0570408
0.0596248
0.0637965
0.0699546
0.0772248
0.0834666
0.0878739
0.0907686
0.09254
0.0934773
0.0939071
0.0940103
0.0939708
0.0939095
0.0545773
0.0544815
0.0542809
0.0541099
0.0541252
0.0544903
0.0555224
0.0574503
0.0606448
0.0653954
0.0710074
0.0758175
0.0791913
0.0813873
0.082716
0.083416
0.0837264
0.0837968
0.0837658
0.0837166
0.0524048
0.0523423
0.0522169
0.05212
0.0521596
0.0524642
0.0532351
0.0546667
0.057065
0.0606706
0.0649646
0.0686445
0.0712152
0.072875
0.0738723
0.0743993
0.0746288
0.0746783
0.0746542
0.0746154
0.0495072
0.0494643
0.049379
0.049317
0.0493616
0.0496136
0.0502068
0.0512936
0.0531009
0.0558205
0.059074
0.0618643
0.0638084
0.0650593
0.0658094
0.066206
0.0663743
0.0664057
0.0663844
0.0663526
0.0459807
0.0459478
0.0458847
0.04584
0.0458783
0.0460772
0.0465327
0.0473657
0.0487403
0.0508016
0.0532695
0.0553817
0.0568528
0.0577972
0.0583586
0.0586526
0.0587718
0.0587871
0.0587663
0.0587408
0.0419883
0.0419624
0.0419147
0.0418813
0.0419124
0.0420654
0.0424115
0.0430457
0.0440916
0.0456621
0.0475423
0.0491412
0.0502474
0.0509557
0.051374
0.0515896
0.051674
0.0516813
0.0516626
0.0516415
0.0376425
0.0376229
0.0375877
0.0375636
0.0375882
0.0377032
0.0379629
0.0384404
0.039228
0.0404166
0.0418467
0.0430586
0.043888
0.0444169
0.0447273
0.0448854
0.0449448
0.0449465
0.0449301
0.0449129
0.0330369
0.033021
0.0329949
0.0329782
0.0329982
0.0330859
0.0332811
0.0336388
0.0342292
0.0351218
0.0362011
0.0371115
0.0377315
0.0381236
0.0383505
0.0384628
0.0385017
0.038498
0.038483
0.0384695
0.0282474
0.0282353
0.0282141
0.0281987
0.0282112
0.0282752
0.0284203
0.0286868
0.0291265
0.0297941
0.030595
0.0312664
0.0317217
0.032009
0.0321744
0.0322548
0.032281
0.0322761
0.0322633
0.0322519
0.0232977
0.023288
0.0232711
0.0232579
0.0232647
0.0233082
0.0234116
0.023605
0.0239249
0.0244113
0.0249966
0.0254856
0.0258174
0.0260274
0.0261457
0.0262011
0.026216
0.0262082
0.0261961
0.0261867
0.0182371
0.0182289
0.018215
0.0182036
0.0182069
0.0182369
0.0183089
0.0184444
0.0186708
0.0190118
0.0194227
0.0197692
0.020005
0.0201494
0.0202277
0.0202619
0.0202679
0.0202584
0.0202474
0.0202401
0.0130951
0.0130895
0.0130788
0.0130681
0.0130669
0.0130843
0.0131303
0.0132191
0.0133688
0.0135967
0.01387
0.014099
0.0142526
0.0143455
0.0143957
0.014416
0.0144171
0.0144081
0.0143991
0.0143933
0.00789482
0.00788985
0.00788031
0.00787081
0.00786762
0.00787444
0.00789669
0.00794369
0.00802669
0.00815795
0.00831858
0.00844848
0.00853298
0.00858526
0.00861281
0.00862292
0.00862158
0.00861325
0.0086053
0.00860034
0.00264511
0.0026421
0.00263583
0.00263008
0.00262804
0.00262974
0.00263724
0.00265232
0.00267771
0.00271961
0.00277088
0.00281042
0.00283685
0.00285428
0.00286366
0.00286689
0.00286568
0.00286039
0.00285579
0.00285308
-1.20622
-0.642178
-0.312828
-0.054476
0.157582
0.331923
0.480241
0.611917
0.717164
0.752678
-0.40174
-0.138611
0.0165488
0.173495
0.32072
0.445464
0.542711
0.605176
0.616522
0.612948
-0.0480022
0.107865
0.229795
0.339272
0.436809
0.518537
0.578727
0.613681
0.628044
0.654917
0.181829
0.293692
0.385828
0.463086
0.528237
0.581722
0.622394
0.651838
0.675988
0.701833
0.362399
0.439209
0.504698
0.559333
0.604899
0.642597
0.673978
0.700823
0.725907
0.75117
0.504068
0.55333
0.60236
0.64358
0.677417
0.705656
0.731464
0.757115
0.781834
0.802194
0.620748
0.656376
0.691602
0.722373
0.748532
0.771456
0.794092
0.817781
0.840428
0.857754
0.720088
0.74577
0.774162
0.799321
0.821889
0.842447
0.861318
0.879876
0.899227
0.915471
0.81189
0.833862
0.856025
0.876549
0.896084
0.913915
0.929686
0.944408
0.959403
0.973198
0.902546
0.917159
0.935217
0.952699
0.968854
0.983716
0.99808
1.01177
1.02394
1.03366
0.992639
1.00183
1.01552
1.02949
1.04271
1.05572
1.06851
1.0803
1.09053
1.09873
1.08241
1.08801
1.09802
1.10998
1.12211
1.13343
1.14283
1.15073
1.1584
1.1657
1.17422
1.17779
1.18484
1.19344
1.20218
1.21018
1.21708
1.22308
1.22905
1.23498
1.26967
1.27017
1.27223
1.27509
1.27854
1.28309
1.28913
1.29624
1.30332
1.30922
1.37117
1.36242
1.35271
1.34544
1.34218
1.34386
1.35086
1.36231
1.37666
1.39017
1.47793
1.44062
1.40948
1.39026
1.3813
1.38114
1.38954
1.40873
1.44018
1.47904
)
;

boundaryField
{
    wall-4
    {
        type            zeroGradient;
    }
    pressure-outlet-7
    {
        type            fixedValue;
        value           uniform 0;
    }
    velocity-inlet-6
    {
        type            zeroGradient;
    }
    velocity-inlet-5
    {
        type            zeroGradient;
    }
    frontAndBackPlanes
    {
        type            empty;
    }
}


// ************************************************************************* //
