/*--------------------------------*- C++ -*----------------------------------*\
  =========                 |
  \\      /  F ield         | OpenFOAM: The Open Source CFD Toolbox
   \\    /   O peration     | Website:  https://openfoam.org
    \\  /    A nd           | Version:  6
     \\/     M anipulation  |
\*---------------------------------------------------------------------------*/
FoamFile
{
    version     2.0;
    format      ascii;
    class       volScalarField;
    location    "5";
    object      p;
}
// * * * * * * * * * * * * * * * * * * * * * * * * * * * * * * * * * * * * * //

dimensions      [1 -1 -2 0 0 0 0];

internalField   nonuniform List<scalar> 
5250
(
1
1.00003
1.00006
1.00019
1.0004
1.00112
1.00227
1.00645
1.01282
1.03854
1.07161
1.24205
1.46845
2.58833
5.05028
12.348
12.3716
11.9955
11.5825
11.5999
11.7444
12.0374
12.2168
12.3127
12.3798
1
1.00003
1.00006
1.00019
1.00039
1.00111
1.00225
1.00641
1.01275
1.03832
1.0712
1.24071
1.46533
2.58003
5.02388
12.2874
12.3334
11.9632
11.5625
11.586
11.7385
12.0304
12.2048
12.2999
12.3715
1
1.00003
1.00006
1.00019
1.00039
1.0011
1.00223
1.00633
1.0126
1.03784
1.07035
1.23777
1.45866
2.56124
4.96403
12.1461
12.254
11.8967
11.5149
11.5457
11.7076
11.9922
12.1577
12.2511
12.3284
1
1.00003
1.00006
1.00018
1.00038
1.00107
1.00218
1.00621
1.01236
1.03707
1.06901
1.23298
1.44805
2.53038
4.86631
11.9159
12.1457
11.8089
11.4446
11.4793
11.6433
11.9127
12.0662
12.1555
12.2368
1
1.00003
1.00006
1.00018
1.00037
1.00104
1.00212
1.00603
1.01202
1.03598
1.06712
1.22615
1.43313
2.48626
4.72808
11.5917
12.0155
11.7063
11.355
11.3894
11.5465
11.7969
11.9381
12.0212
12.1026
1
1.00002
1.00006
1.00017
1.00036
1.001
1.00204
1.0058
1.01156
1.03452
1.06458
1.21704
1.41317
2.42777
4.5453
11.1625
11.8728
11.5989
11.2489
11.2773
11.4154
11.6415
11.7663
11.8403
11.9222
1
1.00002
1.00006
1.00016
1.00034
1.00095
1.00193
1.00549
1.01098
1.03264
1.06134
1.20527
1.38809
2.35227
4.31466
10.6102
11.7352
11.4967
11.1276
11.1413
11.2471
11.4418
11.542
11.5954
11.6685
1
1.00002
1.00005
1.00015
1.00031
1.00088
1.0018
1.0051
1.0102
1.03029
1.05694
1.19108
1.35619
2.25789
4.03719
9.91146
11.6279
11.4141
10.9973
10.9716
11.041
11.1879
11.2502
11.2648
11.3032
1
1.00002
1.00005
1.00014
1.00028
1.00079
1.00161
1.00459
1.00913
1.02749
1.05067
1.17477
1.31683
2.14241
3.71006
9.03431
11.5864
11.36
10.8701
10.7567
10.7969
10.8797
10.8732
10.8097
10.7292
1
1.00002
1.00004
1.00012
1.00024
1.00069
1.00139
1.00399
1.00784
1.02415
1.04356
1.15385
1.27432
2.0053
3.33359
7.96689
11.6282
11.3556
10.7334
10.5042
10.5105
10.5018
10.4145
10.1693
9.73386
1
1.00001
1.00004
1.00009
1.00024
1.00049
1.0014
1.00276
1.00836
1.01509
1.05246
1.08905
1.32553
1.66088
3.09724
6.60696
11.7357
11.3776
10.5899
10.2433
10.1925
10.0893
9.83157
9.21135
7.54794
1
1.00001
1.00003
1.00008
1.00021
1.00044
1.00123
1.00249
1.00715
1.01401
1.04327
1.07863
1.26877
1.5421
2.69296
5.428
11.6158
11.2781
10.4621
9.97393
9.8452
9.66269
9.26573
8.44772
6.75149
1
1.00001
1.00003
1.00008
1.00016
1.00045
1.00092
1.00259
1.00522
1.01517
1.02949
1.09279
1.17468
1.58256
2.33715
4.98488
11.0372
10.8879
10.2614
9.68618
9.48835
9.25831
8.78781
7.96902
6.65702
1
1.00001
1.00002
1.00007
1.00014
1.00039
1.0008
1.00227
1.00457
1.01321
1.02567
1.08126
1.14861
1.51233
2.12717
4.47185
9.92403
10.2548
9.9692
9.43032
9.16934
8.9017
8.42136
7.6818
6.65993
1
1.00001
1.00002
1.00006
1.00012
1.00033
1.00068
1.00191
1.00383
1.01124
1.02108
1.07011
1.12165
1.44359
1.91346
3.94232
8.61685
9.88754
9.70942
9.27914
8.92563
8.60887
8.15075
7.4954
6.65548
1
1.00001
1.00002
1.00005
1.0001
1.00028
1.00057
1.0016
1.00323
1.00931
1.01808
1.05714
1.10192
1.36108
1.73737
3.35177
7.1465
9.73471
9.59689
9.19701
8.74273
8.37914
7.94005
7.35471
6.64024
1
1.00001
1.00001
1.00004
1.00008
1.00023
1.00046
1.00129
1.0026
1.0074
1.0145
1.04471
1.0806
1.27825
1.55639
2.75129
5.46529
9.58654
9.50465
9.15016
8.60679
8.19493
7.76798
7.23926
6.60964
1
1
1.00001
1.00003
1.00006
1.00018
1.00037
1.00102
1.00207
1.00582
1.01168
1.0341
1.0651
1.20863
1.41102
2.32196
4.2055
9.0607
9.29082
9.05043
8.52244
8.04524
7.61869
7.13782
6.57984
1
1
1.00001
1.00002
1.00005
1.00014
1.00029
1.0008
1.00161
1.00453
1.00905
1.02659
1.04983
1.16569
1.30295
2.05797
3.46168
7.76617
8.95846
8.82461
8.44319
7.92009
7.48748
7.04634
6.54942
1
1
1.00001
1.00002
1.00004
1.00011
1.00022
1.00061
1.00124
1.00347
1.00694
1.02033
1.0381
1.1261
1.22743
1.79408
2.79608
6.06129
8.7241
8.65198
8.37019
7.83148
7.389
6.97426
6.52318
1
1
1
1.00001
1.00003
1.00008
1.00017
1.00046
1.00093
1.0026
1.00524
1.01486
1.02953
1.08726
1.17403
1.52945
2.20213
4.27507
8.31332
8.49019
8.2976
7.83444
7.33899
6.92044
6.50144
1
1
1
1.00001
1.00002
1.00006
1.00012
1.00034
1.00069
1.00192
1.00387
1.01093
1.02165
1.06484
1.12236
1.39659
1.85537
3.52467
7.25905
8.24621
8.13924
7.81904
7.32287
6.88483
6.48207
1
1
1
1.00001
1.00002
1.00004
1.00009
1.00025
1.0005
1.00139
1.0028
1.00792
1.01548
1.0475
1.08534
1.29382
1.58366
2.82907
5.55941
7.95841
7.94031
7.76056
7.33933
6.87514
6.46951
1
1
1
1.00001
1.00001
1.00003
1.00006
1.00017
1.00035
1.00098
1.00199
1.00554
1.01111
1.03201
1.06199
1.1912
1.38401
2.17178
3.71189
7.393
7.82695
7.69766
7.36482
6.88442
6.47151
1
1
1
1
1.00001
1.00002
1.00005
1.0001
1.00029
1.00058
1.00161
1.00324
1.00916
1.01791
1.05459
1.09966
1.33386
1.67992
3.05671
6.00737
7.59826
7.55712
7.35393
6.91948
6.48358
1
1
1
1
1.00001
1.00001
1.00004
1.00007
1.0002
1.0004
1.00111
1.00225
1.00627
1.01245
1.03663
1.06821
1.22124
1.43419
2.32774
4.15128
7.14524
7.42451
7.30809
6.9963
6.51793
1
1
1
1
1
1.00001
1.00002
1.00006
1.00012
1.00032
1.00064
1.00178
1.00359
1.01011
1.02005
1.05877
1.11607
1.34765
1.77715
3.11513
6.07935
7.22558
7.18539
6.99375
6.58833
1
1
1
1
1
1.00001
1.00001
1.00004
1.00008
1.00021
1.00043
1.00119
1.00241
1.00672
1.01336
1.03908
1.07327
1.23417
1.46671
2.39672
4.31163
6.80688
7.04463
6.9482
6.68007
1
1
1
1
1
1
1.00001
1.00002
1.00006
1.00012
1.00033
1.00067
1.00185
1.00372
1.01045
1.02103
1.05965
1.12411
1.34934
1.79411
3.09079
5.85296
6.84957
6.82337
6.67011
1
1
1
1
1
1
1.00001
1.00002
1.00003
1.00009
1.00018
1.0005
1.00102
1.00282
1.00566
1.01599
1.03135
1.094
1.18024
1.56054
2.23618
4.21145
6.42988
6.68914
6.61556
1
1
1
1
1
1
1
1.00001
1.00002
1.00005
1.00014
1.00028
1.00075
1.00152
1.00419
1.00837
1.02393
1.0453
1.14269
1.26529
1.84158
2.85515
5.51245
6.4999
6.48939
1
1
1
1
1
1
1
1.00001
1.00002
1.00003
1.00009
1.00018
1.00048
1.00097
1.00265
1.00535
1.01487
1.02941
1.08619
1.16585
1.5062
2.10455
3.80277
6.05479
6.39269
1
1
1
1
1
1
1
1
1.00001
1.00002
1.00005
1.00011
1.0003
1.0006
1.00165
1.00332
1.00917
1.01844
1.05165
1.10628
1.29758
1.65947
2.73401
5.0232
6.17595
1
1
1
1
1
1
1
1
1.00001
1.00001
1.00003
1.00008
1.00015
1.00042
1.00085
1.00232
1.00466
1.01296
1.02565
1.07399
1.14641
1.42561
1.93293
3.32565
5.66543
1
1
1
1
1
1
1
1
1
1.00001
1.00002
1.00004
1.00011
1.00022
1.00058
1.00118
1.00324
1.00636
1.01863
1.03373
1.11119
1.19492
1.65603
2.37236
4.50746
1
1
1
1
1
1
1
1
1
1
1.00001
1.00003
1.00006
1.00015
1.0003
1.00083
1.00167
1.00456
1.00912
1.02575
1.04954
1.1483
1.29553
1.83454
2.8641
1
1
1
1
1
1
1
1
1
1
1.00001
1.00002
1.00003
1.00009
1.00019
1.0005
1.00101
1.00274
1.00552
1.01524
1.0299
1.08842
1.16496
1.5138
2.09644
1
1
1
1
1
1
1
1
1
1
1
1.00001
1.00002
1.00005
1.00011
1.0003
1.0006
1.00162
1.00327
1.00894
1.01805
1.04972
1.10275
1.28152
1.61718
1
1
1
1
1
1
1
1
1
1
1
1
1.00001
1.00003
1.00007
1.00015
1.00039
1.00079
1.00213
1.00429
1.01174
1.02324
1.06576
1.1302
1.36718
1
1
1
1
1
1
1
1
1
1
1
1
1.00001
1.00002
1.00004
1.0001
1.00019
1.00052
1.00105
1.00284
1.00565
1.01591
1.02984
1.09282
1.16719
1
1
1
1
1
1
1
1
1
1
1
1
1
1.00001
1.00002
1.00005
1.00013
1.00026
1.00069
1.00139
1.00376
1.00752
1.02092
1.04021
1.1205
1
1
1
1
1
1
1
1
1
1
1
1
1
1.00001
1.00001
1.00003
1.00006
1.00017
1.00034
1.0009
1.00182
1.00492
1.00983
1.02708
1.05374
1
1
1
1
1
1
1
1
1
1
1
1
1
1
1.00001
1.00002
1.00004
1.00009
1.00023
1.00047
1.00126
1.00256
1.00685
1.01381
1.03741
1
1
1
1
1
1
1
1
1
1
1
1
1
1
1.00001
1.00001
1.00003
1.00006
1.00016
1.00033
1.00088
1.00178
1.00483
1.00972
1.02691
1
1
1
1
1
1
1
1
1
1
1
1
1
1
1
1.00001
1.00002
1.00005
1.00013
1.00026
1.00071
1.00143
1.00397
1.00799
1.02266
1
1
1
1
1
1
1
1
1
1
1
1
1
1
1
1.00001
1.00002
1.00004
1.00011
1.00022
1.00062
1.00125
1.00352
1.007
1.02074
1
1
1
1
1
1
1
1
1
1
1
1
1
1
1
1.00001
1.00002
1.00004
1.00009
1.00024
1.00049
1.00137
1.00274
1.00807
1.01507
1
1
1
1
1
1
1
1
1
1
1
1
1
1
1
1.00001
1.00001
1.00004
1.00009
1.00024
1.00049
1.00137
1.00278
1.00798
1.01574
1
1
1
1
1
1
1
1
1
1
1
1
1
1
1
1.00001
1.00001
1.00004
1.00008
1.00023
1.00046
1.00132
1.00262
1.0078
1.01445
1
1
1
1
1
1
1
1
1
1
1
1
1
1
1
1.00001
1.00002
1.00003
1.0001
1.00019
1.00055
1.00111
1.00318
1.00625
1.01923
3.76333
2.24179
2.24778
2.48187
3.26513
3.5121
3.43758
3.36889
3.29614
3.24469
3.19506
3.13623
3.07851
3.02929
2.98634
2.94503
2.90517
2.86753
2.83277
2.80019
2.76691
2.7344
2.71844
2.71242
2.71125
2.72581
2.76903
2.84749
2.9598
3.09569
3.24296
3.39301
3.53985
3.67942
3.80805
3.92276
4.02369
4.11257
4.1919
4.26007
4.31706
4.36384
4.40392
4.43865
4.46232
4.47713
4.48419
4.48528
4.48251
4.47427
4.45775
4.43816
4.41547
4.39052
4.36266
4.33297
4.3012
4.26842
4.23446
4.20016
4.1655
4.13119
4.09734
4.06456
4.0331
4.00347
3.97604
3.9512
3.92932
3.91063
3.89537
3.88366
3.87558
3.87112
3.87015
3.87037
3.87109
3.87267
3.87504
3.87466
3.87369
3.8714
3.86612
3.85675
3.84139
3.82118
3.79666
3.7684
3.73685
3.70252
3.66586
3.62739
3.58761
3.54707
3.50641
3.46641
3.42823
3.39353
3.36462
3.34587
4.23816
2.84307
2.77025
2.93218
3.38824
3.50445
3.45146
3.37342
3.30617
3.24763
3.19446
3.12928
3.06896
3.02314
2.98477
2.94499
2.90516
2.86685
2.83134
2.79846
2.76654
2.73559
2.717
2.70946
2.70791
2.7209
2.76157
2.83771
2.94894
3.08506
3.23213
3.38147
3.52656
3.66478
3.79294
3.90745
4.00808
4.09693
4.17917
4.24894
4.30688
4.35512
4.39586
4.42965
4.45342
4.46872
4.47611
4.47735
4.47519
4.468
4.45239
4.43175
4.40901
4.38442
4.35709
4.32774
4.29636
4.26383
4.23022
4.19617
4.16185
4.12781
4.09429
4.06179
4.03064
4.00132
3.97422
3.9497
3.92807
3.90957
3.89443
3.88277
3.87462
3.86991
3.86856
3.8687
3.86922
3.8704
3.87175
3.87127
3.86993
3.86709
3.86131
3.85082
3.83571
3.81605
3.79213
3.76438
3.73323
3.69919
3.66276
3.62444
3.58476
3.54424
3.50352
3.46333
3.42489
3.38989
3.36054
3.34141
5.05354
3.87868
3.3305
3.26885
3.35581
3.46129
3.43245
3.36012
3.29232
3.23771
3.19004
3.12763
3.06991
3.02742
2.98871
2.94647
2.90515
2.86524
2.82803
2.79343
2.76211
2.73431
2.71408
2.70454
2.70216
2.71212
2.74759
2.81796
2.92499
3.06124
3.2079
3.35623
3.49955
3.63863
3.77103
3.88821
3.99147
4.08287
4.16445
4.23463
4.29315
4.34213
4.38273
4.41587
4.44005
4.45603
4.46417
4.46577
4.46422
4.4585
4.44507
4.42341
4.40043
4.37619
4.34959
4.32083
4.29009
4.25803
4.22496
4.19138
4.15761
4.12408
4.09113
4.05919
4.02864
3.99989
3.9734
3.94946
3.92828
3.91014
3.89522
3.88357
3.87513
3.86981
3.86742
3.8669
3.86687
3.86677
3.86639
3.8653
3.8629
3.85828
3.85056
3.83957
3.82468
3.80582
3.78296
3.75626
3.72608
3.69282
3.65705
3.61921
3.57992
3.53959
3.49893
3.45864
3.42011
3.38485
3.35488
3.33507
5.45712
4.41392
3.71923
3.39965
3.38476
3.41104
3.40681
3.37474
3.3056
3.23944
3.17986
3.11896
3.06384
3.02094
2.98246
2.94251
2.90253
2.86316
2.82642
2.79265
2.76168
2.7337
2.71194
2.69779
2.69257
2.70016
2.73281
2.79757
2.89787
3.03266
3.17731
3.32745
3.47408
3.61465
3.74569
3.86312
3.96686
4.0589
4.14025
4.21103
4.2707
4.32069
4.36181
4.39493
4.41965
4.43628
4.44527
4.44742
4.44634
4.44204
4.43139
4.41033
4.38707
4.36289
4.33706
4.30921
4.27948
4.24831
4.21615
4.18345
4.1506
4.118
4.08604
4.05512
4.02564
3.9981
3.97266
3.94964
3.92932
3.91189
3.89738
3.8858
3.87699
3.87076
3.86685
3.86465
3.86312
3.86128
3.85869
3.85495
3.84981
3.84283
3.83352
3.82143
3.80631
3.78792
3.76606
3.74067
3.7119
3.68
3.64546
3.60864
3.57017
3.53035
3.49002
3.45
3.41154
3.376
3.34523
3.32437
5.67185
4.74957
4.04436
3.60891
3.44776
3.42655
3.41862
3.39751
3.34623
3.25912
3.18829
3.12552
3.06961
3.02433
2.98317
2.94171
2.90073
2.86127
2.82433
2.79025
2.75941
2.7323
2.71236
2.7001
2.6979
2.7057
2.73454
2.79795
2.8944
3.02019
3.15339
3.29671
3.44075
3.57934
3.70872
3.82632
3.9314
4.02487
4.10741
4.17944
4.24072
4.29205
4.33412
4.36776
4.39318
4.41067
4.42075
4.42389
4.42319
4.42009
4.41195
4.39472
4.37119
4.34685
4.32166
4.29495
4.26654
4.2367
4.20584
4.17443
4.14291
4.11169
4.08117
4.05173
4.02383
3.99786
3.97392
3.9523
3.93318
3.91665
3.90264
3.89102
3.88154
3.87395
3.86788
3.86305
3.85857
3.85373
3.84792
3.84081
3.83226
3.82216
3.81043
3.79679
3.78095
3.76265
3.74164
3.7177
3.69077
3.66092
3.62837
3.59345
3.55651
3.518
3.47873
3.43957
3.40146
3.36585
3.33439
3.31234
5.80728
4.99889
4.32925
3.8504
3.57947
3.47191
3.44634
3.42583
3.3835
3.30262
3.21671
3.14569
3.08549
3.03495
2.99016
2.94719
2.9055
2.86608
2.82967
2.79669
2.76744
2.74322
2.72754
2.72182
2.72553
2.741
2.77877
2.84158
2.92274
3.02487
3.142
3.25878
3.38873
3.52212
3.65153
3.77223
3.88117
3.97762
4.06238
4.13621
4.19952
4.25277
4.29652
4.33147
4.35819
4.37706
4.38865
4.3934
4.39308
4.39115
4.38556
4.37303
4.35107
4.32713
4.30261
4.27712
4.25031
4.22221
4.19315
4.16356
4.1339
4.10461
4.0761
4.04871
4.02312
3.9992
3.9773
3.95755
3.94
3.92457
3.91111
3.89938
3.88903
3.87967
3.87094
3.86257
3.85407
3.84493
3.83471
3.82333
3.81071
3.79697
3.78205
3.76602
3.74864
3.72973
3.70899
3.68614
3.66097
3.63334
3.60327
3.57085
3.53626
3.49991
3.46254
3.42478
3.38759
3.35229
3.32054
3.29765
5.89863
5.18913
4.56773
4.08048
3.7505
3.56502
3.49027
3.45259
3.41024
3.34252
3.25998
3.18229
3.11492
3.05724
3.0064
2.96086
2.91808
2.87836
2.84222
2.81128
2.78705
2.77166
2.76678
2.77063
2.78654
2.82687
2.89012
2.94547
3.00181
3.06847
3.1451
3.23065
3.31881
3.43285
3.55937
3.68952
3.80962
3.91483
4.0054
4.08277
4.14876
4.20428
4.25005
4.28691
4.31552
4.33638
4.34999
4.35693
4.35753
4.35658
4.35315
4.34474
4.32738
4.30464
4.28096
4.25675
4.23168
4.20565
4.17884
4.1516
4.12438
4.09761
4.07166
4.04716
4.02412
4.00281
3.98336
3.96576
3.9499
3.93559
3.92253
3.91037
3.89867
3.88705
3.87509
3.86271
3.84922
3.83478
3.81936
3.80298
3.78577
3.76783
3.74929
3.7302
3.71058
3.69027
3.66911
3.64676
3.62299
3.59747
3.57005
3.54059
3.50906
3.47574
3.44107
3.40554
3.37001
3.33573
3.30425
3.28096
5.96279
5.33703
4.76319
4.28418
3.92487
3.68621
3.5539
3.48431
3.43358
3.37336
3.29883
3.22062
3.14846
3.08508
3.03014
2.9817
2.93773
2.89792
2.8631
2.83615
2.8208
2.81903
2.82365
2.84223
2.8895
2.98644
3.07221
3.11521
3.14103
3.16467
3.18728
3.22235
3.2707
3.32862
3.42744
3.5628
3.69937
3.82291
3.92827
4.01524
4.08726
4.14637
4.19438
4.23335
4.26417
4.28741
4.30358
4.31319
4.31653
4.31618
4.31439
4.3094
4.29835
4.27884
4.25685
4.23419
4.21107
4.18742
4.1633
4.13895
4.11476
4.09111
4.06833
4.04712
4.02727
4.00898
3.99223
3.97689
3.9627
3.94933
3.93637
3.92338
3.9099
3.89551
3.88004
3.86287
3.84416
3.82414
3.80321
3.78156
3.75941
3.73691
3.71428
3.69163
3.66907
3.64658
3.6241
3.6014
3.57822
3.55422
3.52909
3.50253
3.47435
3.44453
3.41322
3.38072
3.34772
3.31534
3.2849
3.26208
6.00443
5.44744
4.92157
4.46149
4.09011
3.81695
3.63744
3.52956
3.46069
3.39977
3.33237
3.25803
3.18506
3.11773
3.05873
3.00696
2.96125
2.92152
2.88959
2.87045
2.87044
2.87566
2.89556
2.94744
3.06088
3.22844
3.32671
3.34577
3.34095
3.32267
3.28062
3.24976
3.2558
3.27783
3.32537
3.41278
3.54544
3.68461
3.81246
3.92047
4.0072
4.07589
4.12893
4.1714
4.2048
4.23061
4.2497
4.26243
4.26931
4.27098
4.27043
4.26816
4.26225
4.24964
4.23058
4.20993
4.18903
4.16805
4.14701
4.12607
4.10548
4.08551
4.06676
4.0491
4.03274
4.01764
4.00362
3.99039
3.97758
3.96476
3.95142
3.93709
3.9213
3.90377
3.88428
3.86195
3.83811
3.8129
3.78674
3.75987
3.73271
3.70544
3.67843
3.65179
3.62579
3.60046
3.57588
3.55189
3.52836
3.50491
3.48128
3.45701
3.43184
3.40546
3.37777
3.34883
3.31908
3.28947
3.26091
3.23968
6.03412
5.53261
5.04919
4.61214
4.24115
3.94781
3.7343
3.59085
3.4976
3.42677
3.36207
3.29208
3.22186
3.15323
3.09137
3.03667
2.98936
2.95038
2.92341
2.91989
2.9247
2.94313
2.9919
3.10151
3.32724
3.55458
3.63653
3.63054
3.60182
3.53061
3.40293
3.30636
3.26345
3.26734
3.28541
3.32485
3.39859
3.514
3.65009
3.78025
3.8911
3.97954
4.04699
4.09843
4.13712
4.16667
4.1891
4.20511
4.21563
4.22126
4.22273
4.22224
4.22004
4.21426
4.20201
4.18468
4.16644
4.14837
4.13075
4.11365
4.09714
4.08132
4.06678
4.05315
4.04045
4.0285
4.01698
4.0055
3.99361
3.98077
3.96646
3.95022
3.93168
3.91051
3.88585
3.85934
3.83102
3.80112
3.77015
3.73842
3.70645
3.67452
3.64308
3.61234
3.58262
3.55402
3.52672
3.50063
3.47575
3.45177
3.4285
3.40548
3.38245
3.35891
3.33459
3.30935
3.28326
3.25717
3.23127
3.21289
6.05444
5.59842
5.15233
4.73867
4.3746
4.0724
3.83702
3.66469
3.54529
3.45948
3.39022
3.32289
3.25619
3.18941
3.12644
3.07009
3.02203
2.98478
2.97099
2.97431
2.98895
3.02999
3.12596
3.32946
3.70479
3.95152
3.98237
3.96136
3.89335
3.74339
3.5543
3.4101
3.31937
3.27917
3.28133
3.2955
3.32744
3.38559
3.47899
3.6043
3.73051
3.84231
3.93335
4.00363
4.05573
4.09393
4.12172
4.14181
4.15626
4.16598
4.17149
4.17393
4.17372
4.17223
4.16778
4.15802
4.14396
4.1291
4.11509
4.10211
4.08999
4.07889
4.06868
4.0591
4.04989
4.04075
4.03128
4.021
4.00937
3.99588
3.97991
3.96128
3.93915
3.91325
3.88516
3.8548
3.82248
3.78843
3.75318
3.71711
3.6808
3.64463
3.6091
3.57445
3.54109
3.50909
3.47876
3.45001
3.423
3.39748
3.3734
3.35039
3.32824
3.30645
3.28466
3.26259
3.24003
3.21772
3.19495
3.18051
6.07222
5.64923
5.23485
4.84453
4.49249
4.18821
3.93922
3.74621
3.60359
3.4997
3.42064
3.35227
3.28712
3.22374
3.16144
3.10641
3.05888
3.02824
3.02916
3.03853
3.06966
3.1481
3.32276
3.68825
4.17495
4.37138
4.3609
4.30899
4.18055
3.9381
3.71762
3.54642
3.42336
3.34363
3.30058
3.2991
3.30685
3.32819
3.37182
3.44309
3.55091
3.66706
3.77802
3.87314
3.94787
4.00333
4.04307
4.07144
4.09156
4.10583
4.11573
4.12238
4.12651
4.12793
4.12755
4.12566
4.12074
4.1107
4.10125
4.09243
4.08469
4.07823
4.07221
4.06639
4.0603
4.05349
4.04549
4.03575
4.02366
4.00886
3.99052
3.96798
3.94185
3.91314
3.88175
3.84786
3.81183
3.77405
3.73506
3.69533
3.65541
3.6157
3.5767
3.53865
3.50199
3.46677
3.43337
3.40171
3.37205
3.34423
3.31834
3.29412
3.2715
3.25005
3.2295
3.20955
3.18977
3.17095
3.15135
3.14137
6.07995
5.69039
5.30404
4.93394
4.59474
4.2942
4.03869
3.83047
3.66931
3.54772
3.45575
3.38184
3.31633
3.25523
3.19544
3.14451
3.10055
3.08801
3.09347
3.11568
3.17617
3.31662
3.61628
4.22384
4.6905
4.76908
4.73756
4.63658
4.41581
4.13074
3.891
3.70239
3.55698
3.44907
3.37361
3.32849
3.31169
3.31503
3.32742
3.35558
3.40679
3.49012
3.59646
3.70499
3.80236
3.882
3.9427
3.9869
4.01814
4.04042
4.05581
4.06736
4.07603
4.08256
4.08742
4.09099
4.09124
4.09074
4.08898
4.08503
4.08161
4.07931
4.07693
4.07424
4.07063
4.06554
4.05818
4.04826
4.03489
4.01724
3.9954
3.96992
3.94145
3.9097
3.87501
3.83774
3.79839
3.75745
3.71545
3.67284
3.63016
3.58772
3.546
3.50521
3.46575
3.4277
3.39142
3.3569
3.32443
3.29394
3.26561
3.23932
3.21507
3.19268
3.172
3.15281
3.13462
3.11842
3.10126
3.09567
6.09057
5.7224
5.3608
5.01333
4.68658
4.39109
4.13298
3.91559
3.73974
3.60219
3.49638
3.41369
3.34504
3.28479
3.22894
3.18272
3.15451
3.15676
3.17127
3.21673
3.32946
3.58102
4.11249
4.86228
5.16092
5.14776
5.07952
4.91063
4.5978
4.30718
4.06479
3.86797
3.70878
3.58142
3.48117
3.40553
3.35289
3.31989
3.31769
3.3212
3.33553
3.36908
3.43196
3.52435
3.62576
3.72374
3.80896
3.87689
3.9276
3.96398
3.98962
4.00863
4.02281
4.03496
4.04555
4.0549
4.06297
4.06964
4.07467
4.07756
4.08007
4.08202
4.08212
4.08161
4.07993
4.07615
4.06854
4.05663
4.04041
4.02001
3.99604
3.96821
3.93662
3.90164
3.8638
3.82355
3.78152
3.73811
3.69391
3.64925
3.60461
3.56023
3.51653
3.47367
3.43201
3.39165
3.3529
3.31582
3.28069
3.24753
3.21658
3.18776
3.1612
3.13693
3.11499
3.09527
3.07728
3.06236
3.04644
3.04428
6.10486
5.75225
5.41062
5.08096
4.76845
4.47984
4.2223
3.9995
3.81267
3.66158
3.54253
3.44948
3.37538
3.31438
3.26337
3.22547
3.22437
3.23311
3.26628
3.3548
3.5593
3.99545
4.87398
5.456
5.53303
5.49131
5.36375
5.09073
4.7586
4.47309
4.2359
4.03807
3.87098
3.7292
3.60915
3.50935
3.42921
3.36881
3.32834
3.3099
3.30902
3.31366
3.33253
3.37484
3.44995
3.54323
3.64174
3.73239
3.80816
3.86674
3.91004
3.94187
3.96586
3.98566
4.00256
4.01852
4.0336
4.04748
4.05979
4.07001
4.07815
4.08389
4.087
4.08661
4.08508
4.08132
4.0734
4.05952
4.0414
4.01886
3.99184
3.96075
3.92601
3.8881
3.84765
3.80514
3.76118
3.7161
3.67045
3.62445
3.57855
3.53289
3.48785
3.44353
3.40026
3.3581
3.31739
3.27816
3.24076
3.20517
3.17174
3.14031
3.11131
3.0848
3.06096
3.0397
3.02078
3.00571
2.98968
2.98932
6.13084
5.78813
5.46122
5.14401
4.8427
4.56244
4.30655
4.08066
3.88644
3.72457
3.59386
3.49033
3.40946
3.34735
3.3011
3.28864
3.29515
3.32171
3.39515
3.56965
3.95113
4.74883
5.62226
5.88223
5.85801
5.76597
5.54676
5.2063
4.89469
4.62897
4.40285
4.20671
4.03475
3.88268
3.74866
3.63125
3.53028
3.44523
3.37757
3.32832
3.3009
3.28916
3.28945
3.29742
3.32291
3.37703
3.46279
3.55873
3.65332
3.73685
3.80523
3.85854
3.89936
3.9314
3.9579
3.98159
4.00376
4.02465
4.0437
4.06051
4.07396
4.08365
4.08866
4.08823
4.08651
4.08233
4.07361
4.05793
4.03691
4.01104
3.9808
3.94668
3.90927
3.8691
3.8268
3.78279
3.73761
3.69155
3.64506
3.59832
3.55169
3.50529
3.45943
3.41417
3.36982
3.32642
3.28429
3.24345
3.20427
3.16674
3.13115
3.09753
3.06645
3.03782
3.01186
2.98871
2.96786
2.95155
2.93439
2.93389
6.17475
5.82488
5.50514
5.20017
4.90944
4.63634
4.38531
4.15895
3.96028
3.79036
3.65014
3.53704
3.44998
3.3861
3.35644
3.36065
3.38155
3.44227
3.58957
3.91577
4.60919
5.6857
6.17482
6.171
6.11344
5.94965
5.62479
5.30201
5.02081
4.77726
4.56269
4.36991
4.19542
4.0364
3.89215
3.7615
3.6449
3.54195
3.45352
3.3804
3.32425
3.28582
3.27019
3.25957
3.26258
3.27781
3.31379
3.38517
3.47616
3.57302
3.6657
3.74662
3.81271
3.86507
3.90696
3.94196
3.97268
4.00055
4.02592
4.04809
4.0658
4.07878
4.08542
4.08485
4.08263
4.07732
4.06635
4.04787
4.02395
3.99522
3.96232
3.92593
3.88665
3.84502
3.80158
3.75674
3.71094
3.66443
3.61759
3.57056
3.52365
3.47695
3.4307
3.38496
3.34
3.29586
3.25283
3.21096
3.17056
3.13162
3.09459
3.05958
3.02688
2.99646
2.96851
2.94331
2.92036
2.90214
2.88343
2.8812
6.23954
5.86895
5.54992
5.25417
4.97179
4.70598
4.4597
4.23446
4.03392
3.85885
3.71122
3.59044
3.49924
3.43719
3.43786
3.45163
3.49953
3.62217
3.89911
4.48677
5.66591
6.38545
6.48231
6.43432
6.29056
5.99756
5.67827
5.39222
5.14158
4.91786
4.71399
4.52562
4.35021
4.18686
4.03506
3.89479
3.76632
3.6496
3.54565
3.45421
3.37724
3.31542
3.26992
3.24611
3.23017
3.23038
3.23824
3.26241
3.31351
3.39624
3.49605
3.59877
3.6927
3.77291
3.83886
3.89226
3.93611
3.97297
4.00436
4.03127
4.05234
4.0671
4.07391
4.07317
4.0704
4.0639
4.05056
4.02925
4.0027
3.97173
3.93702
3.89919
3.85883
3.81643
3.77249
3.72735
3.6814
3.63488
3.58808
3.54115
3.4943
3.44764
3.40134
3.35551
3.31032
3.26588
3.22243
3.18004
3.13905
3.09959
3.06195
3.02608
2.99223
2.96041
2.93082
2.90383
2.879
2.8589
2.83856
2.83412
6.32986
5.92939
5.59791
5.30556
5.03335
4.77534
4.53249
4.30869
4.10766
3.92986
3.77694
3.65249
3.55863
3.52486
3.53416
3.57222
3.67586
3.91822
4.44445
5.53297
6.50793
6.74434
6.70927
6.59032
6.33433
6.01762
5.73194
5.48224
5.25825
5.05174
4.85756
4.67344
4.49857
4.33265
4.17573
4.02838
3.8906
3.76349
3.64693
3.54218
3.44943
3.36969
3.30405
3.2541
3.22228
3.2062
3.20089
3.20566
3.22216
3.25932
3.32874
3.4291
3.53679
3.64249
3.73779
3.818
3.88308
3.93481
3.97555
4.00733
4.03214
4.04718
4.0529
4.052
4.04866
4.04093
4.02513
4.00183
3.97353
3.94115
3.9054
3.86687
3.8261
3.78353
3.73961
3.69464
3.64897
3.60281
3.5564
3.50987
3.46339
3.41705
3.371
3.32537
3.28031
3.23599
3.19267
3.15053
3.10977
3.07036
3.03251
2.99617
2.96161
2.92887
2.89819
2.87
2.84389
2.82241
2.80105
2.7945
6.40046
6.00321
5.6562
5.36063
5.09258
4.84098
4.60447
4.38462
4.1831
4.00349
3.84771
3.72402
3.64204
3.64494
3.67067
3.75364
3.95986
4.42091
5.39487
6.55981
6.94725
6.92823
6.83945
6.63219
6.32302
6.03956
5.79382
5.57496
5.37241
5.17983
4.99428
4.81453
4.64067
4.47296
4.31235
4.15946
4.01502
3.87977
3.75415
3.63889
3.53417
3.44109
3.36007
3.29257
3.23969
3.20296
3.1857
3.17912
3.18283
3.19556
3.22502
3.28201
3.37204
3.48226
3.5965
3.70311
3.79559
3.87057
3.92816
3.97029
4.0002
4.01746
4.022
4.02074
4.01665
4.00756
3.98932
3.96513
3.9363
3.9036
3.86771
3.82923
3.78868
3.74648
3.70307
3.65871
3.61373
3.56827
3.52255
3.47667
3.43077
3.38496
3.3394
3.29426
3.24982
3.2063
3.1638
3.12236
3.08209
3.04297
3.00521
2.96879
2.93402
2.90096
2.86988
2.84125
2.8147
2.7927
2.77115
2.76341
6.38655
6.1293
5.74401
5.42654
5.15568
4.90822
4.67598
4.45913
4.25916
4.08004
3.92922
3.81169
3.78021
3.79757
3.86388
4.03885
4.43965
5.29649
6.56211
7.10568
7.09954
7.0348
6.87281
6.5839
6.31198
6.07488
5.86507
5.67115
5.4856
5.30434
5.12574
4.94967
4.77683
4.60812
4.44481
4.2878
4.13821
3.99668
3.86398
3.74064
3.62726
3.524
3.43192
3.35127
3.28352
3.22969
3.19094
3.17021
3.16899
3.17233
3.18303
3.2077
3.25782
3.33494
3.43879
3.55229
3.66382
3.76317
3.84426
3.90521
3.94682
3.97233
3.97934
3.97795
3.97349
3.9637
3.94464
3.92015
3.89142
3.85919
3.824
3.78633
3.74665
3.70539
3.66298
3.61965
3.5757
3.53125
3.48644
3.4414
3.39624
3.3512
3.30654
3.26257
3.21935
3.17695
3.13541
3.09477
3.05515
3.01657
2.97927
2.94325
2.90885
2.87615
2.84545
2.81723
2.79119
2.76975
2.74901
2.74149
6.34107
6.17974
5.84644
5.51166
5.22664
4.97655
4.74744
4.53422
4.33801
4.16504
4.02283
3.95
3.96078
4.01309
4.16233
4.5139
5.2711
6.54623
7.18993
7.2463
7.19514
7.05573
6.79442
6.54134
6.32135
6.12669
5.94637
5.77243
5.60011
5.4274
5.25377
5.08024
4.90784
4.73827
4.57268
4.41265
4.25888
4.11276
3.97449
3.8452
3.72488
3.61451
3.51409
3.42451
3.34634
3.2803
3.22749
3.18968
3.16735
3.16752
3.17137
3.1825
3.20582
3.24816
3.3113
3.40313
3.50826
3.61519
3.71366
3.7958
3.85739
3.898
3.91878
3.9186
3.91594
3.9086
3.89298
3.86873
3.84014
3.80855
3.77443
3.7381
3.69992
3.66023
3.61935
3.57749
3.53489
3.49166
3.44793
3.40389
3.35988
3.31624
3.2731
3.23054
3.1886
3.14733
3.10684
3.06715
3.02845
2.99076
2.95436
2.91926
2.88583
2.85418
2.82464
2.79775
2.77325
2.75359
2.73485
2.72919
6.23874
6.16567
5.97051
5.61707
5.31326
5.05513
4.82297
4.6112
4.42149
4.26053
4.15386
4.15875
4.19988
4.33032
4.64893
5.34107
6.56603
7.2482
7.35669
7.31599
7.1981
6.96104
6.7269
6.52833
6.35491
6.19467
6.03808
5.87947
5.71664
5.54929
5.37862
5.20615
5.03378
4.86319
4.69598
4.53347
4.37685
4.22703
4.08478
3.95082
3.82567
3.70988
3.60374
3.50793
3.4226
3.34853
3.28628
3.23662
3.20079
3.17916
3.17751
3.18031
3.18995
3.21091
3.24279
3.29415
3.3693
3.45746
3.55133
3.6423
3.72123
3.78183
3.82224
3.84083
3.84045
3.83719
3.82852
3.81034
3.78384
3.75307
3.71982
3.6848
3.6484
3.61071
3.57183
3.53183
3.49088
3.44906
3.40673
3.36433
3.32211
3.2802
3.23864
3.19753
3.15693
3.11692
3.07767
3.0392
3.00176
2.96535
2.93032
2.89668
2.86484
2.83497
2.80744
2.7829
2.76114
2.74458
2.72943
2.72703
6.13096
6.10902
5.9953
5.74138
5.41384
5.1377
4.90297
4.69632
4.52029
4.3859
4.38344
4.41634
4.53502
4.83559
5.49401
6.6706
7.33983
7.46255
7.42503
7.31065
7.07979
6.86363
6.68912
6.54353
6.41048
6.278
6.13915
5.99102
5.83387
5.66924
5.49963
5.32721
5.15434
4.98273
4.81417
4.64984
4.49108
4.33865
4.19361
4.05641
3.92803
3.80854
3.69887
3.59886
3.50929
3.43007
3.36182
3.3045
3.25893
3.22511
3.20447
3.19632
3.19728
3.20215
3.21424
3.23602
3.27334
3.32547
3.39266
3.47048
3.54965
3.62241
3.68224
3.72364
3.74557
3.74659
3.74427
3.73688
3.72064
3.69321
3.66135
3.62763
3.59289
3.55716
3.52036
3.4824
3.44331
3.40348
3.36333
3.32305
3.28279
3.24266
3.20277
3.16321
3.12414
3.08564
3.04791
3.011
2.97518
2.9405
2.9073
2.87571
2.84613
2.81889
2.79436
2.7734
2.7558
2.74379
2.73312
2.73327
5.85473
6.01818
5.96791
5.82176
5.52283
5.23186
4.99063
4.795
4.64558
4.62043
4.65165
4.76694
5.06364
5.71606
6.86564
7.50987
7.61239
7.56943
7.43975
7.18064
6.96162
6.80248
6.68468
6.58375
6.48257
6.37057
6.24359
6.10177
5.94745
5.78391
5.61438
5.44171
5.26834
5.09613
4.92677
4.76145
4.60142
4.44759
4.30087
4.16197
4.03164
3.91026
3.7985
3.69636
3.60432
3.52225
3.45045
3.38854
3.33625
3.2934
3.25977
3.23547
3.21953
3.20884
3.20887
3.21029
3.21599
3.23148
3.26418
3.31381
3.37227
3.43936
3.50628
3.565
3.6094
3.63544
3.64365
3.64233
3.63691
3.62409
3.59824
3.56806
3.53497
3.50055
3.46525
3.42915
3.3924
3.35518
3.31753
3.27957
3.24139
3.2032
3.16514
3.12738
3.0901
3.0534
3.01754
2.98257
2.94879
2.91633
2.88556
2.85672
2.83026
2.80669
2.78641
2.77055
2.75816
2.75052
2.74782
2.74905
5.20206
5.86645
5.8844
5.81748
5.64766
5.35132
5.10347
4.91918
4.8737
4.90351
5.01895
5.32075
5.98713
7.14614
7.76805
7.83339
7.77843
7.61824
7.31589
7.06528
6.89593
6.78764
6.70983
6.6398
6.55998
6.46169
6.34277
6.20533
6.05314
5.8906
5.72147
5.54903
5.37577
5.2036
5.03422
4.8687
4.70843
4.55412
4.40696
4.26748
4.13665
4.01479
3.90254
3.79995
3.70725
3.62402
3.55008
3.48458
3.42711
3.37664
3.33289
3.29513
3.26315
3.23657
3.21384
3.20086
3.18583
3.18306
3.18602
3.19633
3.21969
3.26565
3.31932
3.37913
3.43646
3.48399
3.51587
3.53339
3.53328
3.53056
3.52209
3.50368
3.47463
3.44193
3.40783
3.37338
3.33885
3.30409
3.26901
3.23351
3.19772
3.16176
3.12587
3.09023
3.05508
3.02056
2.98694
2.95436
2.92315
2.89352
2.86591
2.84071
2.81848
2.79987
2.78558
2.77504
2.76872
2.76921
2.77175
2.77912
3.75705
5.46499
5.78941
5.77441
5.6916
5.49977
5.24922
5.14751
5.17451
5.29064
5.60262
6.29823
7.50519
8.12845
8.14154
8.06849
7.86595
7.51018
7.21183
7.01
6.88633
6.80984
6.756
6.7023
6.63386
6.54347
6.43008
6.29647
6.14711
5.98665
5.81922
5.64819
5.47616
5.30508
5.13664
4.97195
4.81244
4.65882
4.51238
4.37367
4.24364
4.12265
4.01126
3.90931
3.8169
3.7332
3.65763
3.58923
3.52702
3.46975
3.41651
3.36689
3.32059
3.27755
3.23801
3.20232
3.17447
3.1478
3.1251
3.11999
3.12236
3.13153
3.15285
3.19581
3.24673
3.30178
3.35164
3.39029
3.41427
3.42318
3.42208
3.41703
3.40477
3.37967
3.34958
3.31692
3.28382
3.25075
3.21779
3.18468
3.15144
3.11809
3.08479
3.05174
3.01916
2.9873
2.95642
2.9268
2.89881
2.87282
2.84937
2.829
2.81251
2.80063