/*--------------------------------*- C++ -*----------------------------------*\
  =========                 |
  \\      /  F ield         | OpenFOAM: The Open Source CFD Toolbox
   \\    /   O peration     | Website:  https://openfoam.org
    \\  /    A nd           | Version:  6
     \\/     M anipulation  |
\*---------------------------------------------------------------------------*/
FoamFile
{
    version     2.0;
    format      ascii;
    class       volVectorField;
    location    "15.6";
    object      U;
}
// * * * * * * * * * * * * * * * * * * * * * * * * * * * * * * * * * * * * * //

dimensions      [0 1 -1 0 0 0 0];

internalField   nonuniform List<vector> 
8800
(
(0.987183 -0.0766577 0)
(1.00189 -0.055178 0)
(0.999745 -0.0285216 0)
(1.00004 -0.0150583 0)
(1.00009 -0.00844563 0)
(1.00008 -0.00497136 0)
(1.00002 -0.00292772 0)
(0.999972 -0.00168069 0)
(0.999945 -0.000825271 0)
(1.00004 -0.000154357 0)
(0.99994 0.000551799 0)
(0.999956 0.00130319 0)
(0.999996 0.00231064 0)
(1.00005 0.00388804 0)
(1.00009 0.00651489 0)
(1.00007 0.0112377 0)
(0.999971 0.0207287 0)
(0.999164 0.0386337 0)
(1.00706 0.0724427 0)
(0.771218 0.0366566 0)
(0.363204 -0.0160016 0)
(1.0434 -0.0767285 0)
(1.08458 -0.0703115 0)
(1.04523 -0.0535174 0)
(1.02329 -0.0390014 0)
(1.01187 -0.0261741 0)
(1.0061 -0.0167163 0)
(1.00324 -0.0102822 0)
(1.00193 -0.00568467 0)
(1.00137 -0.00212321 0)
(1.00128 0.000985788 0)
(1.00156 0.00426931 0)
(1.00242 0.00820827 0)
(1.00437 0.0135129 0)
(1.00846 0.0212643 0)
(1.01665 0.0324795 0)
(1.03261 0.0464068 0)
(1.06272 0.0613957 0)
(1.09192 0.075854 0)
(0.838988 0.0564626 0)
(0.217176 -0.00240325 0)
(1.07619 -0.0499367 0)
(1.09998 -0.047946 0)
(1.06449 -0.0398712 0)
(1.03967 -0.0329664 0)
(1.02355 -0.0257266 0)
(1.01375 -0.0183396 0)
(1.0083 -0.0116627 0)
(1.0055 -0.0059485 0)
(1.00437 -0.00078892 0)
(1.0047 0.00419962 0)
(1.00653 0.00948445 0)
(1.01044 0.0155588 0)
(1.01779 0.0225596 0)
(1.03037 0.0298141 0)
(1.0506 0.036798 0)
(1.08053 0.0437156 0)
(1.10675 0.0508202 0)
(0.94343 0.04135 0)
(0.216844 0.00241807 0)
(0.175941 -0.000766649 0)
(1.01867 -0.0349707 0)
(1.10567 -0.0407569 0)
(1.07863 -0.0354975 0)
(1.0533 -0.0295003 0)
(1.03567 -0.023851 0)
(1.02351 -0.0183436 0)
(1.01549 -0.0126067 0)
(1.01075 -0.00681127 0)
(1.00878 -0.000806922 0)
(1.00932 0.0051158 0)
(1.01249 0.0108745 0)
(1.01873 0.0164806 0)
(1.02858 0.0219598 0)
(1.04327 0.0273509 0)
(1.06426 0.0330022 0)
(1.09445 0.0390849 0)
(1.09462 0.0409484 0)
(0.829844 0.0224058 0)
(0.175391 0.000783156 0)
(0.155394 -0.000554009 0)
(0.958619 -0.0245053 0)
(1.10364 -0.0336507 0)
(1.08721 -0.031156 0)
(1.06133 -0.0267997 0)
(1.04351 -0.0219464 0)
(1.03103 -0.0169899 0)
(1.02228 -0.0119269 0)
(1.01655 -0.00655548 0)
(1.01384 -0.000618393 0)
(1.01461 0.00543568 0)
(1.01866 0.0108617 0)
(1.02566 0.0158204 0)
(1.03607 0.0205831 0)
(1.05092 0.0253263 0)
(1.07224 0.0297702 0)
(1.10065 0.0336617 0)
(1.07048 0.0322164 0)
(0.745181 0.0134795 0)
(0.154578 0.000572132 0)
(0.142002 -0.000384554 0)
(0.904963 -0.01753 0)
(1.09721 -0.0277134 0)
(1.09551 -0.0265641 0)
(1.06845 -0.0230095 0)
(1.04991 -0.0193933 0)
(1.03689 -0.0152166 0)
(1.02777 -0.0106372 0)
(1.0218 -0.00568995 0)
(1.01888 -0.000208253 0)
(1.01961 0.0053219 0)
(1.0238 0.0103103 0)
(1.03107 0.0148216 0)
(1.04185 0.0189306 0)
(1.05718 0.0225272 0)
(1.0797 0.0257999 0)
(1.10401 0.0286517 0)
(1.04148 0.0253469 0)
(0.68362 0.00898558 0)
(0.140862 0.000406261 0)
(0.13292 -0.000261908 0)
(0.860695 -0.0121929 0)
(1.08582 -0.0218764 0)
(1.1003 -0.0220641 0)
(1.07403 -0.0194009 0)
(1.05418 -0.0165517 0)
(1.04031 -0.0133166 0)
(1.03088 -0.00942754 0)
(1.02493 -0.00485509 0)
(1.02214 0.000262716 0)
(1.02268 0.00532243 0)
(1.02661 0.00991165 0)
(1.03389 0.0137774 0)
(1.04513 0.0169367 0)
(1.06166 0.0195923 0)
(1.08516 0.0220532 0)
(1.10338 0.0236764 0)
(1.01124 0.0192123 0)
(0.639198 0.00598624 0)
(0.131389 0.000287713 0)
(0.127029 -0.000152801 0)
(0.827694 -0.00741184 0)
(1.07333 -0.0157312 0)
(1.10279 -0.0170119 0)
(1.0787 -0.0155665 0)
(1.05942 -0.0135231 0)
(1.04614 -0.010902 0)
(1.03659 -0.00771075 0)
(1.0301 -0.00386886 0)
(1.02676 0.000778278 0)
(1.02741 0.00552507 0)
(1.03172 0.0093958 0)
(1.03926 0.0124708 0)
(1.05016 0.0148647 0)
(1.06584 0.0167441 0)
(1.08904 0.0180669 0)
(1.10062 0.0183372 0)
(0.984201 0.0131971 0)
(0.609257 0.00352292 0)
(0.125016 0.000184123 0)
(0.124279 -2.81364e-05 0)
(0.806191 -0.00339195 0)
(1.05999 -0.00952785 0)
(1.10217 -0.0117567 0)
(1.08094 -0.0111384 0)
(1.06169 -0.0100088 0)
(1.04844 -0.00833896 0)
(1.03932 -0.00588101 0)
(1.03334 -0.00262614 0)
(1.03031 0.0014267 0)
(1.03054 0.00553653 0)
(1.0342 0.00876801 0)
(1.04107 0.0110108 0)
(1.05163 0.0123582 0)
(1.0673 0.0130524 0)
(1.0899 0.013604 0)
(1.09446 0.0127644 0)
(0.961708 0.00756919 0)
(0.592091 0.00160721 0)
(0.121692 6.54675e-05 0)
(0.1238 3.18897e-05 0)
(0.794292 -0.00143058 0)
(1.04901 -0.00538316 0)
(1.10054 -0.00739099 0)
(1.08224 -0.00742746 0)
(1.06317 -0.00666356 0)
(1.0505 -0.00568193 0)
(1.04174 -0.00390252 0)
(1.03581 -0.00125841 0)
(1.03272 0.00219635 0)
(1.03273 0.0056644 0)
(1.03607 0.00819344 0)
(1.04246 0.00964679 0)
(1.05235 0.0102802 0)
(1.06772 0.0105544 0)
(1.08934 0.0101527 0)
(1.08744 0.00877854 0)
(0.945687 0.00454629 0)
(0.583109 0.000824155 0)
(0.12048 1.48561e-05 0)
(0.123998 3.24148e-05 0)
(0.786651 -0.000972031 0)
(1.04048 -0.00426317 0)
(1.09848 -0.00643227 0)
(1.08264 -0.00679482 0)
(1.06467 -0.00625417 0)
(1.05256 -0.00498115 0)
(1.0445 -0.0030716 0)
(1.03912 -0.000339831 0)
(1.03612 0.00305071 0)
(1.03582 0.00629091 0)
(1.03843 0.00872821 0)
(1.04394 0.0101694 0)
(1.05308 0.0107356 0)
(1.06712 0.0106044 0)
(1.08736 0.00987507 0)
(1.08068 0.00806403 0)
(0.933275 0.00394131 0)
(0.576723 0.000758639 0)
(0.119783 2.4402e-05 0)
(0.124226 2.69649e-05 0)
(0.780216 -0.000633334 0)
(1.03126 -0.00389363 0)
(1.09519 -0.00722156 0)
(1.08267 -0.00808663 0)
(1.06592 -0.00772221 0)
(1.05448 -0.00614151 0)
(1.04682 -0.00362526 0)
(1.04158 -0.000163201 0)
(1.03834 0.00396318 0)
(1.03776 0.00789904 0)
(1.03997 0.0108953 0)
(1.04481 0.0127204 0)
(1.05304 0.0136098 0)
(1.06624 0.0132943 0)
(1.08456 0.0120976 0)
(1.0718 0.00886389 0)
(0.920813 0.00380146 0)
(0.570777 0.000778737 0)
(0.118899 4.38318e-05 0)
(0.124564 3.38743e-05 0)
(0.775419 -8.11975e-05 0)
(1.02061 -0.00275531 0)
(1.08851 -0.00709485 0)
(1.08182 -0.00947672 0)
(1.06768 -0.00920965 0)
(1.05761 -0.00738225 0)
(1.05072 -0.00410423 0)
(1.04565 0.000166602 0)
(1.04222 0.00514481 0)
(1.04123 0.00990606 0)
(1.04284 0.0134186 0)
(1.04677 0.015754 0)
(1.05368 0.0166852 0)
(1.0647 0.0162846 0)
(1.0783 0.0138569 0)
(1.05885 0.00866592 0)
(0.908392 0.00327027 0)
(0.565488 0.000734889 0)
(0.117853 5.42903e-05 0)
(0.125215 5.78277e-05 0)
(0.773284 0.000571579 0)
(1.01145 -0.000890481 0)
(1.07957 -0.00467007 0)
(1.07946 -0.00778295 0)
(1.0688 -0.00810905 0)
(1.06102 -0.00616172 0)
(1.05478 -0.00273372 0)
(1.04975 0.00170374 0)
(1.04605 0.00685217 0)
(1.04452 0.0116416 0)
(1.04545 0.0150471 0)
(1.04844 0.0169607 0)
(1.05352 0.0174025 0)
(1.06203 0.0165282 0)
(1.06887 0.0127829 0)
(1.04474 0.00717671 0)
(0.898009 0.00264572 0)
(0.561083 0.000700467 0)
(0.116764 5.9939e-05 0)
(0.126274 7.6209e-05 0)
(0.773785 0.00110626 0)
(1.00631 0.00100057 0)
(1.07252 -0.001046 0)
(1.07593 -0.00311944 0)
(1.07006 -0.0035889 0)
(1.06415 -0.0021763 0)
(1.0587 0.000697222 0)
(1.05379 0.00461264 0)
(1.04974 0.00911857 0)
(1.04751 0.0130188 0)
(1.04762 0.0153917 0)
(1.0494 0.0164157 0)
(1.05266 0.0161073 0)
(1.05706 0.0139183 0)
(1.05938 0.0101817 0)
(1.03307 0.0056505 0)
(0.890244 0.00234041 0)
(0.557175 0.000747921 0)
(0.11562 6.88808e-05 0)
(0.127753 9.78808e-05 0)
(0.776512 0.00161391 0)
(1.0054 0.00246324 0)
(1.06918 0.00197483 0)
(1.0744 0.00119872 0)
(1.07099 0.00133397 0)
(1.06663 0.00270352 0)
(1.06193 0.00514066 0)
(1.05713 0.00837795 0)
(1.05261 0.0119388 0)
(1.04951 0.0146822 0)
(1.0485 0.0158585 0)
(1.04895 0.0155643 0)
(1.05027 0.0141357 0)
(1.05206 0.0116755 0)
(1.05161 0.00841637 0)
(1.02457 0.00498979 0)
(0.884109 0.00246215 0)
(0.5531 0.000896301 0)
(0.114298 8.5685e-05 0)
(0.129678 0.000123336 0)
(0.781072 0.00208623 0)
(1.00718 0.00357495 0)
(1.06923 0.00425696 0)
(1.07493 0.00466808 0)
(1.0726 0.00566598 0)
(1.06907 0.00743725 0)
(1.06479 0.00984697 0)
(1.05988 0.0126583 0)
(1.0547 0.0153988 0)
(1.05053 0.0170101 0)
(1.04818 0.0169379 0)
(1.04718 0.0157724 0)
(1.04701 0.0136206 0)
(1.0472 0.0109798 0)
(1.04532 0.00806834 0)
(1.01796 0.00522909 0)
(0.878315 0.00291624 0)
(0.54829 0.00112534 0)
(0.112663 0.000109603 0)
(0.132133 0.000154888 0)
(0.787344 0.00264196 0)
(1.01127 0.00472106 0)
(1.07173 0.00619148 0)
(1.0774 0.00768475 0)
(1.0753 0.00956195 0)
(1.07198 0.0119496 0)
(1.06766 0.0146936 0)
(1.06231 0.0174648 0)
(1.05617 0.0196609 0)
(1.05064 0.0203385 0)
(1.0469 0.0192662 0)
(1.0446 0.0171847 0)
(1.04322 0.0145372 0)
(1.04236 0.0116942 0)
(1.03969 0.00885912 0)
(1.01193 0.00613448 0)
(0.872035 0.00361569 0)
(0.54237 0.00141007 0)
(0.110614 0.000137397 0)
(0.135278 0.000199658 0)
(0.795555 0.00336631 0)
(1.01745 0.00611345 0)
(1.07624 0.00838498 0)
(1.08146 0.0106874 0)
(1.0792 0.0134844 0)
(1.07566 0.0167358 0)
(1.07086 0.0200735 0)
(1.06465 0.0230298 0)
(1.05717 0.0249297 0)
(1.05003 0.0248576 0)
(1.04478 0.022925 0)
(1.04121 0.0199832 0)
(1.03883 0.0167066 0)
(1.03718 0.01349 0)
(1.03395 0.0104399 0)
(1.00559 0.00746606 0)
(0.864727 0.00450425 0)
(0.535044 0.00177231 0)
(0.108046 0.000170774 0)
(0.139383 0.000267891 0)
(0.806275 0.00440509 0)
(1.02568 0.00802344 0)
(1.08259 0.0110762 0)
(1.08716 0.0141958 0)
(1.08447 0.0180412 0)
(1.08028 0.0222549 0)
(1.07452 0.0263195 0)
(1.06698 0.0296747 0)
(1.05775 0.031462 0)
(1.04869 0.0307198 0)
(1.04179 0.027884 0)
(1.03693 0.0240476 0)
(1.03361 0.0199987 0)
(1.03128 0.0161793 0)
(1.02754 0.0126622 0)
(0.998329 0.0092002 0)
(0.855708 0.0056112 0)
(0.525987 0.00221401 0)
(0.104866 0.000211629 0)
(0.144806 0.000364984 0)
(0.820237 0.00587045 0)
(1.03641 0.010644 0)
(1.09105 0.0146347 0)
(1.09479 0.0187988 0)
(1.09129 0.0237956 0)
(1.08599 0.0290728 0)
(1.07875 0.0340203 0)
(1.06937 0.0379122 0)
(1.05788 0.0396356 0)
(1.04653 0.0381831 0)
(1.03777 0.0343302 0)
(1.03154 0.0294478 0)
(1.02724 0.0244334 0)
(1.02424 0.0197839 0)
(1.01997 0.0155759 0)
(0.989606 0.011427 0)
(0.844574 0.00700148 0)
(0.514699 0.00275217 0)
(0.100941 0.00026213 0)
(0.152046 0.000501992 0)
(0.838255 0.00793789 0)
(1.05016 0.0141717 0)
(1.10204 0.0192663 0)
(1.10472 0.0247634 0)
(1.10004 0.0311695 0)
(1.09316 0.0377676 0)
(1.08389 0.0438039 0)
(1.07201 0.0482811 0)
(1.05763 0.0498667 0)
(1.04351 0.047536 0)
(1.03259 0.0424598 0)
(1.02482 0.0363138 0)
(1.01941 0.0301158 0)
(1.01566 0.0244156 0)
(1.01077 0.0193031 0)
(0.978944 0.0142648 0)
(0.830733 0.00878172 0)
(0.500677 0.00343452 0)
(0.0961208 0.000326404 0)
(0.161897 0.000712796 0)
(0.861693 0.0109337 0)
(1.06796 0.0189825 0)
(1.11631 0.0254623 0)
(1.1175 0.0327128 0)
(1.11115 0.0408821 0)
(1.1021 0.0490833 0)
(1.09006 0.0562974 0)
(1.0749 0.0613077 0)
(1.05692 0.0625726 0)
(1.03951 0.0590839 0)
(1.0261 0.0524967 0)
(1.01652 0.0448194 0)
(1.00982 0.0371862 0)
(1.00514 0.0302037 0)
(0.999468 0.0239642 0)
(0.96579 0.0178279 0)
(0.813748 0.0110173 0)
(0.48342 0.00426342 0)
(0.0902587 0.000397528 0)
(0.175643 0.0010689 0)
(0.89277 0.0156369 0)
(1.09121 0.026105 0)
(1.1349 0.0344224 0)
(1.13375 0.0439319 0)
(1.12489 0.0542382 0)
(1.11269 0.0641421 0)
(1.09695 0.0724111 0)
(1.0777 0.0776692 0)
(1.05543 0.0782091 0)
(1.03425 0.0731561 0)
(1.01802 0.0647277 0)
(1.00638 0.055241 0)
(0.998148 0.0459094 0)
(0.992325 0.0373961 0)
(0.985617 0.0297899 0)
(0.949559 0.0223197 0)
(0.792871 0.0138406 0)
(0.462423 0.00530107 0)
(0.0831998 0.000480496 0)
(0.195528 0.00170516 0)
(0.934724 0.0231987 0)
(1.12217 0.0369153 0)
(1.15937 0.047777 0)
(1.15419 0.0601357 0)
(1.14132 0.0728163 0)
(1.12465 0.0843027 0)
(1.10411 0.0932306 0)
(1.07991 0.098102 0)
(1.05271 0.097227 0)
(1.02734 0.0900564 0)
(1.00802 0.0794255 0)
(0.994079 0.0678846 0)
(0.984067 0.0566467 0)
(0.976837 0.0463812 0)
(0.968734 0.0371809 0)
(0.929445 0.0281203 0)
(0.767064 0.0175386 0)
(0.436788 0.00666849 0)
(0.0747277 0.000585877 0)
(0.224967 0.00314164 0)
(0.993463 0.0366663 0)
(1.16297 0.0552584 0)
(1.19068 0.0693988 0)
(1.179 0.0846828 0)
(1.16015 0.0991865 0)
(1.1374 0.111302 0)
(1.1109 0.119788 0)
(1.08098 0.123217 0)
(1.04837 0.119991 0)
(1.01852 0.110033 0)
(0.995895 0.0968322 0)
(0.979438 0.0830535 0)
(0.967388 0.0698179 0)
(0.958401 0.0577143 0)
(0.948333 0.0468177 0)
(0.904497 0.0358618 0)
(0.735038 0.0225246 0)
(0.406077 0.00856208 0)
(0.065069 0.00069788 0)
(0.266058 0.00989633 -2.34472e-21)
(1.07187 0.0640982 -1.73504e-21)
(1.21195 0.0875697 4.5989e-22)
(1.2262 0.105113 0)
(1.2056 0.121471 -1.46583e-36)
(1.17919 0.135732 5.33266e-23)
(1.14934 0.146683 -2.892e-22)
(1.11617 0.153311 0)
(1.08003 0.154298 1.02217e-35)
(1.04154 0.148047 -7.63633e-22)
(1.00673 0.134953 0)
(0.980271 0.119096 -1.08575e-21)
(0.960723 0.103133 -3.31834e-21)
(0.945993 0.0880701 -1.60538e-21)
(0.93448 0.074484 -5.05248e-22)
(0.921405 0.0622317 -3.06258e-22)
(0.872473 0.0497167 0)
(0.693698 0.0324302 2.21078e-22)
(0.368825 0.0143978 2.63097e-22)
(0.0559507 0.00198942 4.71834e-21)
(0.291618 0.0264287 -4.60512e-21)
(1.13478 0.109237 1.03685e-22)
(1.25467 0.135529 -2.46326e-22)
(1.25821 0.154173 0)
(1.22942 0.169013 3.13714e-22)
(1.19564 0.181434 1.10539e-22)
(1.15877 0.190473 -2.00076e-22)
(1.11884 0.194952 -1.35356e-21)
(1.0761 0.193517 0)
(1.031 0.184545 3.2338e-21)
(0.990065 0.168769 3.55788e-21)
(0.958458 0.150775 1.14053e-21)
(0.934483 0.133216 4.49289e-21)
(0.915766 0.116854 6.61397e-21)
(0.900437 0.102231 0)
(0.882784 0.0893286 9.8498e-21)
(0.82928 0.0750519 1.44615e-20)
(0.650271 0.0535563 1.62451e-20)
(0.343299 0.0285412 -1.88561e-20)
(0.0522882 0.00447628 -3.51208e-22)
(0.287671 0.0433883 0)
(1.1711 0.16725 -1.43304e-21)
(1.2873 0.196691 0)
(1.28331 0.213296 2.17051e-21)
(1.24814 0.224481 0)
(1.208 0.233463 9.3407e-22)
(1.16479 0.239237 2.52854e-22)
(1.11864 0.240542 -2.07201e-21)
(1.06975 0.235981 -3.10929e-22)
(1.01852 0.22392 1.57239e-21)
(0.971999 0.205494 8.27675e-21)
(0.935827 0.185734 -5.62244e-23)
(0.908025 0.167205 -3.37249e-21)
(0.885966 0.150525 -6.53863e-21)
(0.867642 0.135888 7.94061e-21)
(0.847672 0.123107 -1.42911e-20)
(0.79618 0.108657 -1.96553e-21)
(0.635305 0.0830857 0)
(0.35193 0.0476031 3.40186e-23)
(0.0593018 0.00847651 0)
(0.277826 0.0574912 -3.6638e-20)
(1.18791 0.228553 1.48783e-20)
(1.30785 0.262686 7.79556e-21)
(1.29966 0.277032 -1.45083e-21)
(1.26009 0.284267 2.20173e-21)
(1.21517 0.289245 -2.33615e-21)
(1.16693 0.291172 3.52234e-22)
(1.11558 0.288765 0)
(1.06141 0.280644 -6.26279e-21)
(1.00481 0.265138 0)
(0.953513 0.243977 -4.22404e-21)
(0.913614 0.222585 -5.91694e-21)
(0.882936 0.203351 -3.77538e-21)
(0.858597 0.186581 -4.86745e-21)
(0.838551 0.172323 0)
(0.817964 0.159939 0)
(0.771157 0.145547 -1.31842e-20)
(0.628465 0.116341 2.64472e-21)
(0.361581 0.0692489 -1.54947e-21)
(0.0654636 0.0129927 -1.83443e-21)
(0.268268 0.0701242 2.72525e-20)
(1.19235 0.289322 0)
(1.31901 0.329472 -2.19572e-20)
(1.3084 0.341814 -5.52395e-21)
(1.26574 0.345342 -4.08309e-21)
(1.21739 0.346388 0)
(1.16528 0.344417 -3.53779e-22)
(1.10967 0.33826 1.88731e-21)
(1.0511 0.326376 2.76869e-21)
(0.990007 0.307279 7.90582e-21)
(0.934805 0.283203 0)
(0.892149 0.259971 -1.28707e-20)
(0.859604 0.239789 -8.21972e-21)
(0.834056 0.222714 -4.9524e-21)
(0.8133 0.208584 3.24432e-20)
(0.793016 0.196657 3.98467e-21)
(0.750578 0.182121 1.91024e-20)
(0.620074 0.149127 -9.26678e-20)
(0.363896 0.0896129 5.53661e-20)
(0.0681743 0.0171248 -6.76674e-20)
(0.259984 0.0813774 2.89026e-20)
(1.18914 0.347673 -5.26605e-21)
(1.32309 0.39505 3.88949e-21)
(1.31108 0.405864 1.04438e-20)
(1.26618 0.40598 6.29605e-21)
(1.21521 0.403314 3.31176e-22)
(1.16011 0.397626 2.75419e-22)
(1.10114 0.38777 1.46638e-21)
(1.03887 0.372244 -6.05597e-21)
(0.974078 0.349473 0)
(0.915722 0.322249 -5.53261e-21)
(0.870855 0.296874 -2.99445e-22)
(0.836961 0.275385 -9.1851e-21)
(0.810686 0.25764 0)
(0.789728 0.243209 -7.07098e-21)
(0.77014 0.231086 -1.72118e-20)
(0.731258 0.215687 4.77003e-20)
(0.608527 0.178264 -4.77429e-20)
(0.360311 0.107077 6.82216e-20)
(0.0681675 0.0205138 -7.18888e-20)
(0.253371 0.0918414 -1.12656e-22)
(1.18136 0.403028 6.47697e-21)
(1.32198 0.458408 1.86919e-20)
(1.30918 0.468149 -6.44228e-21)
(1.26265 0.465195 3.6165e-21)
(1.2097 0.459098 0)
(1.15213 0.449974 1.4903e-21)
(1.09039 0.436575 -1.18824e-21)
(1.02495 0.417499 -2.78893e-21)
(0.956804 0.391078 0)
(0.895679 0.360566 -5.40775e-21)
(0.849075 0.332739 -7.56283e-21)
(0.814296 0.309553 1.00395e-20)
(0.787727 0.290631 -6.42096e-21)
(0.766924 0.275371 -3.11057e-20)
(0.748083 0.262571 1.9138e-20)
(0.711723 0.245864 6.06029e-21)
(0.594078 0.203743 0)
(0.352576 0.121834 -6.61739e-20)
(0.0667433 0.0232723 -2.45972e-21)
(0.248273 0.101806 4.76291e-21)
(1.17099 0.455268 -7.47096e-21)
(1.31714 0.518962 -1.02324e-20)
(1.30383 0.528013 -1.9817e-20)
(1.25603 0.522349 1.76963e-20)
(1.20147 0.513216 -9.19091e-21)
(1.14194 0.500924 -3.14523e-21)
(1.07784 0.484237 -1.73386e-21)
(1.0097 0.461765 2.68055e-21)
(0.938557 0.431746 -1.92713e-20)
(0.875096 0.397852 -6.6286e-21)
(0.82707 0.367326 0)
(0.791585 0.34204 1.09723e-20)
(0.764844 0.321496 1.35588e-20)
(0.744258 0.305004 1.66961e-20)
(0.726064 0.291171 -2.08685e-20)
(0.69135 0.272716 -6.29505e-21)
(0.57724 0.225837 7.50252e-21)
(0.341905 0.133909 0)
(0.0643481 0.0253909 -5.36014e-21)
(0.244392 0.111356 -5.54345e-20)
(1.15938 0.504472 3.43302e-20)
(1.30959 0.576439 1.12764e-20)
(1.29587 0.585182 -1.51887e-20)
(1.24715 0.577099 1.06546e-20)
(1.19134 0.565285 -7.80798e-22)
(1.13019 0.550171 3.0502e-21)
(1.06405 0.530505 -7.28526e-22)
(0.993585 0.504843 -4.98421e-21)
(0.919838 0.471319 3.15651e-23)
(0.853965 0.433986 -1.97885e-20)
(0.804516 0.400508 1.92148e-20)
(0.768352 0.372774 -1.22863e-20)
(0.741492 0.350231 1.52749e-20)
(0.721208 0.332161 0)
(0.703636 0.316966 -1.13314e-20)
(0.670035 0.296464 -2.59001e-22)
(0.558484 0.244727 -3.27876e-20)
(0.329122 0.143738 -4.87419e-21)
(0.0612128 0.0268022 0)
(0.24154 0.120678 0)
(1.14724 0.550909 3.72657e-20)
(1.30011 0.630955 2.64033e-20)
(1.28608 0.639468 1.71944e-20)
(1.23664 0.629245 1.02283e-20)
(1.17982 0.615099 0)
(1.11733 0.59747 3.1632e-21)
(1.04947 0.575146 -2.49467e-22)
(0.976814 0.546561 1.05431e-20)
(0.900518 0.50977 -2.36804e-21)
(0.832256 0.468961 -1.45011e-20)
(0.78133 0.43227 9.63507e-21)
(0.744473 0.401806 -3.90549e-22)
(0.717513 0.376963 1.61052e-20)
(0.69756 0.356955 1.05117e-20)
(0.680601 0.340122 -2.4682e-20)
(0.647697 0.317277 2.99284e-20)
(0.538057 0.260534 8.98148e-21)
(0.314522 0.151243 3.73785e-20)
(0.057425 0.0276089 -1.01158e-19)
(0.239562 0.129863 -1.42758e-20)
(1.1351 0.594742 2.15743e-20)
(1.28929 0.682561 -1.65562e-20)
(1.275 0.690822 -2.00413e-20)
(1.22498 0.678735 0)
(1.16733 0.662537 8.24053e-21)
(1.10374 0.642679 -9.06925e-21)
(1.03434 0.617998 5.66221e-22)
(0.959647 0.586822 0)
(0.880842 0.546968 -3.65548e-20)
(0.81021 0.502761 3.95161e-20)
(0.757589 0.462727 0)
(0.71996 0.429243 1.45567e-20)
(0.692836 0.40185 -3.95082e-22)
(0.673149 0.379613 -3.33202e-20)
(0.656644 0.360836 1.31156e-20)
(0.624081 0.335333 0)
(0.515992 0.273382 4.86722e-20)
(0.298202 0.15645 0)
(0.053087 0.0277599 -4.82237e-20)
(0.23827 0.138917 1.59294e-20)
(1.12323 0.636161 2.47137e-20)
(1.27757 0.731232 -1.73559e-20)
(1.2631 0.739317 0)
(1.21261 0.725586 1.42418e-20)
(1.15428 0.707574 0)
(1.08971 0.685765 1.2172e-20)
(1.01895 0.659028 1.17594e-21)
(0.942413 0.625606 1.14325e-21)
(0.861131 0.583052 -1.80487e-20)
(0.787868 0.535585 3.84308e-21)
(0.733326 0.492151 0)
(0.694734 0.455391 -3.10047e-20)
(0.667274 0.425136 4.09861e-22)
(0.647687 0.400488 0)
(0.631435 0.379386 4.88721e-22)
(0.599008 0.350782 4.41182e-20)
(0.492112 0.283181 -4.26547e-20)
(0.280124 0.159249 1.26717e-20)
(0.0482093 0.0272188 0)
(0.237316 0.147737 0)
(1.1118 0.675346 2.76826e-20)
(1.26536 0.777024 2.04328e-20)
(1.25066 0.784988 -4.39074e-22)
(1.19983 0.769809 8.97065e-21)
(1.14095 0.750211 1.95487e-20)
(1.07558 0.726713 -3.90132e-21)
(1.00362 0.698209 2.61329e-22)
(0.925325 0.66286 6.53529e-21)
(0.841532 0.617946 -2.81083e-20)
(0.765386 0.567551 -6.24393e-22)
(0.708495 0.520809 -1.27076e-20)
(0.668465 0.480625 5.08523e-20)
(0.640552 0.447114 -4.93416e-22)
(0.621046 0.419587 -2.63368e-20)
(0.605035 0.395869 -4.81524e-20)
(0.572488 0.363654 0)
(0.466333 0.289926 0)
(0.260296 0.159494 1.39095e-20)
(0.0428927 0.0259733 -8.24114e-21)
(0.236839 0.156478 1.98654e-20)
(1.10094 0.712192 -6.06456e-20)
(1.25295 0.82005 -2.19072e-20)
(1.23798 0.82791 0)
(1.18689 0.811453 -3.09293e-22)
(1.12759 0.790474 2.36261e-20)
(1.06156 0.765532 -1.33163e-20)
(0.988531 0.735541 -5.13429e-21)
(0.908568 0.698609 6.87236e-21)
(0.822294 0.651727 -2.16697e-20)
(0.743075 0.598648 -3.3433e-20)
(0.683399 0.548654 3.39012e-20)
(0.641303 0.504863 0)
(0.612621 0.467823 -1.18647e-20)
(0.593109 0.437165 -2.89454e-20)
(0.577274 0.410463 -3.49504e-20)
(0.544295 0.374128 -4.25197e-20)
(0.438413 0.293583 1.27663e-20)
(0.238557 0.156803 -7.52181e-21)
(0.0370859 0.023988 9.22837e-23)
(0.236408 0.164924 0)
(1.09076 0.746975 0)
(1.24051 0.860436 5.10897e-22)
(1.22526 0.868185 0)
(1.174 0.850603 -3.39034e-20)
(1.11438 0.828421 -2.09773e-20)
(1.04781 0.802245 0)
(0.973846 0.771029 -1.3836e-21)
(0.892358 0.732838 8.86025e-21)
(0.803589 0.684415 -4.97305e-20)
(0.721105 0.629166 0)
(0.658295 0.576144 -2.17241e-20)
(0.613683 0.528634 -6.0534e-22)
(0.583576 0.487724 -4.99355e-22)
(0.563781 0.453482 3.09643e-20)
(0.547957 0.423189 -7.8424e-23)
(0.51413 0.38198 -9.25199e-20)
(0.407905 0.293885 2.78775e-20)
(0.214995 0.151236 8.31053e-21)
(0.0308706 0.0212694 0)
(0.236022 0.173023 -7.33863e-20)
(1.08099 0.779908 -3.73042e-20)
(1.22815 0.898302 -5.51581e-20)
(1.21266 0.905918 7.62914e-20)
(1.16129 0.887324 -6.37555e-20)
(1.10146 0.864108 0)
(1.03447 0.836901 -1.15239e-20)
(0.959713 0.804701 2.56924e-21)
(0.876809 0.765559 7.46485e-22)
(0.785596 0.716018 3.91352e-21)
(0.699679 0.659032 4.19079e-20)
(0.63329 0.603402 -7.43388e-21)
(0.585702 0.552428 -3.1458e-20)
(0.553484 0.507431 -1.41301e-20)
(0.532934 0.468855 1.72603e-20)
(0.51687 0.43441 -6.57916e-23)
(0.481888 0.387304 2.54412e-20)
(0.37465 0.290518 -6.05544e-20)
(0.189051 0.142268 7.24672e-20)
(0.0243589 0.0178639 1.06377e-20)
(0.235502 0.180758 2.69988e-20)
(1.0716 0.81105 -2.0438e-20)
(1.21599 0.933763 1.21325e-21)
(1.20027 0.941223 4.32211e-20)
(1.14888 0.921727 1.49489e-20)
(1.08893 0.897613 4.20784e-20)
(1.02165 0.869546 -5.15078e-21)
(0.946229 0.836573 1.2493e-20)
(0.862049 0.796771 -5.24794e-21)
(0.768489 0.746547 -2.716e-20)
(0.678994 0.688396 0)
(0.608622 0.63061 -3.34277e-20)
(0.557327 0.576305 4.56872e-20)
(0.52221 0.527012 0)
(0.500291 0.483608 -3.69875e-20)
(0.483712 0.443661 2.29705e-20)
(0.447355 0.389477 -2.75348e-20)
(0.339059 0.283113 -3.32638e-20)
(0.161793 0.130235 -5.91041e-20)
(0.0177774 0.0138992 -4.67236e-20)
(0.235154 0.188212 -2.97423e-20)
(1.06248 0.840396 2.18796e-20)
(1.2041 0.966899 5.17e-20)
(1.18819 0.974188 5.95389e-20)
(1.13684 0.953903 -3.13452e-20)
(1.07687 0.92902 2.91486e-20)
(1.0094 0.90023 -1.60459e-20)
(0.933454 0.866686 1.57021e-20)
(0.848145 0.826496 -1.82827e-21)
(0.752358 0.775983 2.59477e-20)
(0.659292 0.717195 8.9024e-20)
(0.584603 0.657809 0)
(0.52883 0.600724 0)
(0.489776 0.547245 -1.63641e-20)
(0.46542 0.498133 0)
(0.447701 0.451179 5.01015e-20)
(0.409942 0.387623 6.03138e-20)
(0.30142 0.270635 0)
(0.134361 0.115206 0)
(0.0117089 0.00974583 5.09845e-20)
(0.234529 0.195116 3.287e-20)
(1.05364 0.867956 2.63e-20)
(1.19256 0.997829 3.72265e-20)
(1.17648 1.00494 -5.32926e-20)
(1.12524 0.983956 -3.50388e-20)
(1.06532 0.958404 -3.87767e-20)
(0.997783 0.929018 2.38805e-20)
(0.921441 0.895071 1.11078e-22)
(0.835156 0.854731 -9.61441e-22)
(0.737299 0.804301 -1.2388e-21)
(0.640701 0.745464 4.51075e-20)
(0.561463 0.685137 0)
(0.500731 0.625832 4.61238e-20)
(0.456452 0.568715 3.4496e-20)
(0.427951 0.513703 8.82157e-20)
(0.407565 0.45677 2.70449e-20)
(0.368343 0.379727 -3.3418e-20)
(0.262816 0.250502 -1.97229e-20)
(0.110351 0.0968601 0)
(0.00730515 0.00584911 5.55485e-20)
(0.234108 0.201907 -7.2497e-20)
(1.04505 0.893851 0)
(1.18136 1.02664 4.1701e-20)
(1.16518 1.03358 -4.37648e-20)
(1.11411 1.01198 3.97844e-20)
(1.05431 0.985853 5.6806e-20)
(0.986819 0.95597 -5.56096e-20)
(0.910206 0.921762 4.80226e-22)
(0.823107 0.881481 0)
(0.723368 0.831461 -2.42231e-20)
(0.623381 0.773103 -9.34799e-20)
(0.539507 0.712434 4.55688e-21)
(0.473409 0.651707 6.2617e-20)
(0.422786 0.592026 0)
(0.387759 0.53138 5.94776e-20)
(0.361405 0.462194 0)
(0.318264 0.364019 0)
(0.222098 0.214423 -2.20409e-20)
(0.104633 0.0648344 0)
(0.0239688 0.00762171 1.50185e-20)
(0.233332 0.208049 -7.93623e-20)
(1.03669 0.918382 0)
(1.17051 1.05352 6.77196e-20)
(1.15427 1.06034 0)
(1.10343 1.03824 -2.16666e-20)
(1.04379 1.01164 0)
(0.976437 0.981383 -4.18137e-21)
(0.899656 0.947091 -2.79961e-21)
(0.811887 0.907092 -1.45492e-23)
(0.710434 0.857823 -2.37864e-20)
(0.607226 0.800542 2.45386e-21)
(0.518584 0.740335 3.76662e-20)
(0.446752 0.678862 6.06474e-20)
(0.388731 0.618064 8.66063e-21)
(0.344147 0.553795 4.6465e-20)
(0.30661 0.471115 0)
(0.249051 0.343953 7.30629e-20)
(0.156411 0.151186 -4.36841e-20)
(0.0524209 0.0771007 5.06822e-20)
(-0.0327001 0.410157 -6.01238e-20)
(0.232508 0.213917 6.48175e-20)
(1.02837 0.941418 1.00512e-19)
(1.15992 1.07881 0)
(1.14361 1.08563 9.98119e-22)
(1.09302 1.06326 5.89528e-20)
(1.03352 1.03642 -1.10495e-19)
(0.966368 1.00601 -2.46705e-20)
(0.889448 0.971958 0)
(0.801057 0.932625 -4.65356e-21)
(0.69794 0.884685 -7.20228e-22)
(0.591454 0.829261 0)
(0.497762 0.770588 0)
(0.419681 0.709066 5.3056e-20)
(0.353567 0.648873 -2.69507e-20)
(0.295542 0.58482 -4.61332e-20)
(0.240565 0.492168 0)
(0.137709 0.331889 3.74424e-20)
(0.0314756 0.462246 -4.4557e-20)
(0.0471272 1.7937 -2.43846e-20)
(0.0783144 2.75728 -2.98005e-20)
(0.231365 0.21919 -4.76385e-20)
(1.02016 0.963145 -1.27165e-19)
(1.1496 1.1025 3.9213e-20)
(1.13323 1.10932 3.74428e-20)
(1.08296 1.08688 0)
(1.02357 1.05992 -7.92879e-20)
(0.956782 1.02956 -4.14629e-20)
(0.879735 0.995946 1.89091e-21)
(0.79084 0.957569 -6.18581e-22)
(0.686221 0.911419 1.7973e-20)
(0.576625 0.858483 4.14069e-20)
(0.477995 0.802626 3.84804e-20)
(0.393348 0.741775 5.19283e-20)
(0.319862 0.682565 -6.11852e-20)
(0.247863 0.626048 -6.79012e-20)
(0.166789 0.534313 0)
(0.074327 0.839597 0)
(0.123202 2.48493 1.95492e-20)
(0.12984 3.16699 0)
(0.129403 3.37217 4.90646e-20)
(0.233008 0.224173 0)
(1.01231 0.983838 0)
(1.13927 1.12445 0)
(1.12295 1.13125 1.04597e-20)
(1.073 1.10891 5.29015e-20)
(1.01373 1.08203 -6.07036e-20)
(0.947603 1.05194 -2.97708e-20)
(0.870444 1.01894 2.16148e-21)
(0.781169 0.981756 -1.24236e-20)
(0.675268 0.937842 -2.10056e-21)
(0.56283 0.888021 7.44533e-20)
(0.459603 0.836277 -4.50979e-21)
(0.368227 0.777424 5.83128e-21)
(0.289127 0.715991 8.68948e-21)
(0.208511 0.674783 5.3099e-22)
(0.135588 0.944419 3.33331e-22)
(0.171798 2.62581 -9.53691e-20)
(0.189178 3.27385 -3.63217e-20)
(0.172072 3.42363 1.77284e-20)
(0.154458 3.44838 -1.8634e-20)
(0.155264 0.169287 2.81811e-20)
(0.999055 1.00639 0)
(1.12891 1.14489 -7.71382e-20)
(1.11323 1.15179 -9.73674e-20)
(1.06353 1.12981 1.10127e-19)
(1.00462 1.10315 6.44064e-20)
(0.938634 1.07318 3.51064e-20)
(0.861592 1.04098 -3.76447e-20)
(0.772142 1.0052 1.37217e-20)
(0.66538 0.96382 0)
(0.550604 0.917585 3.20146e-20)
(0.443331 0.870701 -2.85898e-20)
(0.34495 0.817921 0)
(0.262462 0.754761 7.79607e-21)
(0.190611 0.874848 1.90433e-20)
(0.182063 2.31681 -2.28327e-20)
(0.2558 3.31227 2.61078e-20)
(0.23327 3.44512 1.27689e-20)
(0.194308 3.46855 1.49033e-20)
(0.168455 3.47874 1.92751e-20)
(0.265387 0.258502 -5.511e-20)
(0.978689 1.01225 0)
(1.10973 1.16743 7.99032e-20)
(1.09984 1.18262 1.01807e-19)
(1.04852 1.16065 -1.14508e-19)
(0.989725 1.13455 -6.91486e-20)
(0.923409 1.10595 -5.41843e-20)
(0.846395 1.07519 -2.78859e-21)
(0.756376 1.04191 -2.02356e-20)
(0.647888 1.00516 1.22211e-21)
(0.529219 0.966195 1.20601e-21)
(0.416104 0.928492 2.15903e-20)
(0.306607 0.892416 4.6826e-21)
(0.237344 1.00805 -6.76433e-21)
(0.262034 2.20349 -1.58284e-20)
(0.328343 3.31593 1.18232e-20)
(0.31565 3.4838 -1.07109e-20)
(0.275132 3.50637 -6.26777e-21)
(0.234529 3.53354 2.57171e-23)
(0.178681 3.52523 -2.92623e-22)
(0.253948 0.256023 0)
(0.974466 1.03231 2.11064e-20)
(1.10109 1.18863 -1.57944e-20)
(1.08982 1.20367 -1.13294e-20)
(1.03895 1.1818 -7.50897e-20)
(0.980582 1.15593 6.74215e-20)
(0.914351 1.12762 3.64784e-20)
(0.837695 1.0978 -2.9347e-21)
(0.747884 1.06626 2.52473e-20)
(0.639185 1.03273 -2.91692e-21)
(0.519152 0.999223 -3.92868e-20)
(0.403527 0.96812 3.04842e-21)
(0.297207 0.957741 -4.01147e-21)
(0.282712 1.42167 -5.44766e-21)
(0.365773 3.02573 3.94521e-21)
(0.400697 3.47923 4.9156e-22)
(0.349316 3.54993 -4.26035e-21)
(0.30891 3.57085 -8.17858e-21)
(0.254127 3.59295 1.42738e-20)
(0.191889 3.58643 6.27661e-21)
(0.238664 0.252291 5.22406e-20)
(0.968978 1.05446 1.41288e-19)
(1.09183 1.21148 -4.49467e-20)
(1.07947 1.22612 -4.29207e-20)
(1.02907 1.20415 0)
(0.971111 1.17829 9.86262e-20)
(0.905256 1.15028 5.56537e-20)
(0.829233 1.12133 -3.09622e-21)
(0.740003 1.09162 2.62346e-21)
(0.631624 1.06141 1.27967e-20)
(0.511079 1.03378 -1.11584e-20)
(0.394915 1.01058 -2.03476e-20)
(0.30676 1.0706 -2.56193e-20)
(0.359876 2.02278 2.72994e-20)
(0.460579 3.36747 1.20722e-20)
(0.452026 3.5556 0)
(0.391537 3.60062 0)
(0.346525 3.64358 1.33508e-20)
(0.278862 3.70141 0)
(0.202449 3.67133 3.13979e-20)
(0.227415 0.252231 -7.59581e-20)
(0.961293 1.07697 -1.17189e-19)
(1.08118 1.23529 0)
(1.06802 1.24927 1.13979e-21)
(1.0181 1.22694 -7.28878e-20)
(0.960694 1.20098 1.46427e-19)
(0.895556 1.17326 3.74435e-20)
(0.820434 1.14509 -3.86381e-21)
(0.732087 1.11715 2.86587e-20)
(0.62444 1.09011 -1.46047e-21)
(0.504096 1.06847 0)
(0.389891 1.05551 0)
(0.339864 1.26314 -1.7666e-20)
(0.456204 2.68975 4.83477e-21)
(0.547546 3.50411 -4.07836e-21)
(0.498525 3.60338 0)
(0.452468 3.66034 3.56343e-20)
(0.388077 3.73244 -5.41041e-20)