/*--------------------------------*- C++ -*----------------------------------*\
  =========                 |
  \\      /  F ield         | OpenFOAM: The Open Source CFD Toolbox
   \\    /   O peration     | Website:  https://openfoam.org
    \\  /    A nd           | Version:  6
     \\/     M anipulation  |
\*---------------------------------------------------------------------------*/
FoamFile
{
    version     2.0;
    format      ascii;
    class       surfaceScalarField;
    location    "65.3";
    object      phi;
}
// * * * * * * * * * * * * * * * * * * * * * * * * * * * * * * * * * * * * * //

dimensions      [0 3 -1 0 0 0 0];

internalField   nonuniform List<scalar> 
17370
(
-0.0900009
0.0898504
0.289161
-0.0714645
0.053755
0.364485
-0.0381223
0.0276936
0.426597
-0.0196423
0.0146099
0.504284
-0.010769
0.00827983
0.601891
-0.00628164
0.00490634
0.720433
-0.00374326
0.00290297
0.863747
-0.0021613
0.00160176
1.03601
-0.00108455
0.000671395
1.24292
-0.000262454
-0.000130356
1.49158
0.000510166
-0.000919968
1.4916
0.00131774
-0.00180826
1.24318
0.00233862
-0.00304739
1.03635
0.00386194
-0.00500505
0.86405
0.00636979
-0.00836156
0.721049
0.0108461
-0.0146815
0.60305
0.0197084
-0.0277532
0.507484
0.0381756
-0.0538003
0.431793
0.0715016
-0.0898753
0.365149
0.0900157
0.198995
-0.128135
0.0882229
0.0399116
-0.364597
0.353374
-0.0746772
0.0858996
-0.446475
0.454318
-0.0843986
0.076556
-0.521189
0.529899
-0.0684601
0.0597504
-0.612788
0.621565
-0.0515633
0.0427859
-0.726893
0.73416
-0.0353273
0.0280603
-0.867473
0.872588
-0.0224615
0.0173474
-1.03847
1.04192
-0.0135385
0.0100893
-1.2446
1.24703
-0.00747879
0.00504618
-1.49262
1.4946
-0.00309916
0.00112218
-1.4925
1.49423
0.0005574
-0.00228282
-1.24398
1.24586
0.00418627
-0.00607099
-1.03751
1.04004
0.00842918
-0.0109617
-0.866102
0.869831
0.014319
-0.0180481
-0.724393
0.729935
0.0230867
-0.0286295
-0.608699
0.616114
0.0358448
-0.0432597
-0.514898
0.523043
0.0519903
-0.0601352
-0.439857
0.447917
0.0687995
-0.0768591
-0.375297
0.376742
0.0846593
-0.0861043
-0.257332
0.222481
0.0748164
-0.0399657
-0.0685144
0.058687
0.00982742
-0.0518209
0.0584069
-0.374123
0.367536
-0.0574935
0.0537432
-0.453591
0.457342
-0.0486551
0.0447049
-0.527944
0.531894
-0.040868
0.0372319
-0.62156
0.625196
-0.0331331
0.0290596
-0.735344
0.739418
-0.0244911
0.0203329
-0.874336
0.878494
-0.0159879
0.0122947
-1.04349
1.04718
-0.00855771
0.00538477
-1.24856
1.25173
-0.00205574
-0.00101813
-1.49666
1.49973
0.00406671
-0.00733322
-1.49721
1.50047
0.0104144
-0.0140234
-1.25007
1.25368
0.0175859
-0.0217805
-1.04593
1.05012
0.0258068
-0.0302448
-0.877767
0.882205
0.0342145
-0.0382127
-0.739905
0.743903
0.0417642
-0.0455132
-0.626778
0.630527
0.0493876
-0.0544031
-0.534814
0.539829
0.0580748
-0.0588888
-0.457478
0.458292
0.0521866
-0.031987
-0.335757
0.315557
0.00988712
-0.0683497
0.0584626
-0.052935
0.0489382
0.00399679
-0.0331705
0.0437193
-0.3581
0.347551
-0.0474206
0.0467953
-0.459279
0.459904
-0.0437416
0.0403908
-0.535795
0.539146
-0.036621
0.0333199
-0.62852
0.631822
-0.0298851
0.0268561
-0.742639
0.745668
-0.0236
0.0204955
-0.882009
0.885114
-0.0169671
0.013589
-1.05076
1.05414
-0.00979646
0.00625803
-1.25516
1.2587
-0.00228886
-0.00150838
-1.50324
1.50704
0.00527369
-0.00914787
-1.50414
1.50801
0.0125582
-0.016175
-1.25742
1.26104
0.0193717
-0.022689
-1.05393
1.05725
0.0256056
-0.028673
-0.885701
0.888769
0.0315501
-0.0348364
-0.747167
0.750453
0.0380136
-0.0416562
-0.634315
0.637958
0.0448975
-0.0478264
-0.544141
0.54707
0.0483202
-0.0444341
-0.45658
0.452694
0.0336649
-0.016218
-0.296195
0.278748
0.00407077
-0.052644
0.0485733
-0.0458593
0.0433626
0.00249669
-0.0228154
0.0331985
-0.336858
0.326475
-0.0390239
0.0400436
-0.459586
0.458567
-0.0388564
0.0365722
-0.541864
0.544148
-0.0339082
0.0313156
-0.63487
0.637463
-0.0282562
0.0253602
-0.748711
0.751607
-0.0220989
0.019108
-0.888063
0.891054
-0.0158059
0.0127092
-1.05727
1.06037
-0.00918565
0.0057783
-1.26216
1.26556
-0.00181575
-0.00206854
-1.51092
1.5148
0.00591041
-0.00974678
-1.51191
1.51574
0.0129842
-0.0162766
-1.26448
1.26777
0.0191349
-0.0221594
-1.06035
1.06337
0.0249017
-0.0279114
-0.891828
0.894838
0.030602
-0.0334588
-0.753663
0.75652
0.035882
-0.0383744
-0.641026
0.643519
0.0405104
-0.0415031
-0.548877
0.549869
0.04028
-0.0341577
-0.447417
0.441294
0.0234507
-0.010234
-0.263532
0.250315
0.00258807
-0.0454115
0.0428234
-0.0412864
0.0395181
0.00176825
-0.0167555
0.0260113
-0.316618
0.307362
-0.0326216
0.034765
-0.456964
0.45482
-0.0343471
0.0326793
-0.546123
0.547791
-0.0305018
0.0284099
-0.639765
0.641857
-0.0259823
0.0235887
-0.754247
0.756641
-0.0207349
0.01795
-0.893945
0.89673
-0.014718
0.011652
-1.06341
1.06647
-0.00816423
0.0048401
-1.26888
1.2722
-0.00100817
-0.00272462
-1.51859
1.52232
0.00640349
-0.0100753
-1.51948
1.52315
0.0131842
-0.0163788
-1.27101
1.27421
0.0191415
-0.0220186
-1.0664
1.06928
0.0244831
-0.0270108
-0.89766
0.900188
0.029137
-0.0313016
-0.758973
0.761137
0.0331764
-0.0351331
-0.645675
0.647632
0.0365858
-0.0367395
-0.550389
0.550543
0.0342843
-0.0272399
-0.434631
0.427587
0.0175479
-0.00740482
-0.238786
0.228643
0.00187978
-0.0406457
0.038766
-0.0379948
0.0366645
0.00133035
-0.0127943
0.0207438
-0.298765
0.290815
-0.0274984
0.0304244
-0.452257
0.449331
-0.0306317
0.0295148
-0.549219
0.550336
-0.0275242
0.0256107
-0.643889
0.645803
-0.0234146
0.0212814
-0.758875
0.761008
-0.0187707
0.0162906
-0.899298
0.901778
-0.013351
0.0104735
-1.06941
1.07228
-0.00711291
0.00387207
-1.27546
1.2787
-0.00012381
-0.00350692
-1.52597
1.5296
0.00707039
-0.0106174
-1.52675
1.53029
0.0135874
-0.0165798
-1.27734
1.28033
0.0190768
-0.0215709
-1.07201
1.07451
0.0236493
-0.0257509
-0.902484
0.904586
0.0275475
-0.0294105
-0.763125
0.764988
0.0310497
-0.0327727
-0.649453
0.651176
0.0335754
-0.0329983
-0.550336
0.549759
0.0296268
-0.0222787
-0.420334
0.412986
0.0137692
-0.0057404
-0.219658
0.211629
0.00146592
-0.0371191
0.0356532
-0.0355025
0.0344771
0.00102532
-0.00999655
0.016714
-0.283508
0.276791
-0.0232001
0.0265759
-0.446162
0.442786
-0.0273595
0.0266612
-0.551237
0.551936
-0.0249041
0.0231214
-0.647694
0.649476
-0.0210531
0.0190386
-0.763075
0.76509
-0.0166694
0.0143444
-0.90411
0.906435
-0.0116081
0.00892472
-1.07499
1.07767
-0.00576757
0.00268209
-1.28182
1.2849
0.000929634
-0.00444332
-1.53316
1.53667
0.00787359
-0.0112362
-1.53374
1.53711
0.0139883
-0.0166939
-1.28319
1.28589
0.0189102
-0.0210976
-1.07688
1.07907
0.0229254
-0.0247872
-0.906575
0.908437
0.0263836
-0.0280378
-0.766738
0.768392
0.0294801
-0.0308678
-0.652753
0.654141
0.0311768
-0.0298681
-0.548831
0.547522
0.0258786
-0.0186117
-0.405654
0.398387
0.0111911
-0.00463742
-0.204408
0.197855
0.00119023
-0.034341
0.0331508
-0.0335772
0.0327785
0.000798628
-0.00792192
0.0135654
-0.270641
0.264997
-0.0195643
0.0231355
-0.439304
0.435733
-0.0243951
0.023944
-0.552546
0.552997
-0.022453
0.0207794
-0.651255
0.652928
-0.0188059
0.0168775
-0.767053
0.768982
-0.0146009
0.0123635
-0.908648
0.910885
-0.0097295
0.00715518
-1.08023
1.0828
-0.00413894
0.00119751
-1.28786
1.29081
0.00224099
-0.00557912
-1.54007
1.54341
0.00881508
-0.0119484
-1.54034
1.54347
0.0144824
-0.0169479
-1.28848
1.29094
0.0189523
-0.0209148
-1.08121
1.08317
0.0225414
-0.0241932
-0.910215
0.911867
0.0256069
-0.0270698
-0.769944
0.771407
0.0283182
-0.0293291
-0.655324
0.656335
0.0292642
-0.0272887
-0.545884
0.543908
0.0228983
-0.0158982
-0.391249
0.384249
0.00938163
-0.00387432
-0.191874
0.186367
0.000999033
-0.0320685
0.0310695
-0.0320777
0.031455
0.000622705
-0.00632017
0.0110464
-0.259842
0.255115
-0.0164531
0.0200225
-0.432164
0.428595
-0.0216041
0.021379
-0.553373
0.553598
-0.020121
0.0185056
-0.654619
0.656235
-0.0165873
0.014707
-0.770873
0.772754
-0.0124877
0.0103083
-0.913016
0.915196
-0.00774434
0.00524313
-1.08526
1.08776
-0.00232069
-0.000513753
-1.29364
1.29647
0.00380079
-0.00696269
-1.54662
1.54978
0.00999968
-0.0129138
-1.54647
1.54939
0.0152508
-0.0175014
-1.29331
1.29556
0.0193074
-0.0210515
-1.0851
1.08684
0.0224851
-0.0239416
-0.91344
0.914897
0.0251918
-0.0264818
-0.772773
0.774063
0.0275873
-0.0281808
-0.65713
0.657724
0.0277452
-0.0252082
-0.541666
0.539129
0.0205724
-0.0139038
-0.377425
0.370756
0.0081007
-0.00334119
-0.181272
0.176513
0.000866032
-0.0301472
0.0292812
-0.0309123
0.0304322
0.000480118
-0.00503037
0.00896588
-0.250812
0.246877
-0.0137371
0.0171571
-0.425111
0.421691
-0.0189211
0.0188857
-0.553775
0.55381
-0.0178184
0.0162361
-0.657898
0.659481
-0.0143376
0.0124717
-0.774609
0.776475
-0.0102724
0.00811903
-0.917272
0.919425
-0.0055933
0.0031373
-1.09015
1.09261
-0.000280155
-0.0024726
-1.2992
1.30195
0.0056367
-0.0086473
-1.55283
1.55584
0.0115069
-0.0142203
-1.55217
1.55489
0.0163714
-0.0184162
-1.29771
1.29976
0.0200308
-0.0215605
-1.08858
1.09011
0.0228055
-0.0240775
-0.916283
0.917555
0.0251798
-0.0263139
-0.775265
0.776399
0.027222
-0.0274488
-0.658129
0.658356
0.0266122
-0.0235974
-0.53637
0.533355
0.0188121
-0.0124648
-0.364268
0.35792
0.00720414
-0.00297476
-0.172051
0.167821
0.000776208
-0.0284696
0.0276934
-0.0300204
0.029661
0.000359463
-0.00394946
0.00719029
-0.243314
0.240073
-0.0113148
0.0144763
-0.418418
0.415256
-0.0162981
0.0164194
-0.55382
0.553699
-0.0154332
0.013926
-0.661096
0.662604
-0.0120234
0.0101401
-0.778325
0.780208
-0.00792009
0.00575395
-0.921483
0.923649
-0.00322734
0.000786706
-1.09496
1.0974
0.00203313
-0.00473113
-1.30461
1.30731
0.00780759
-0.0107025
-1.55875
1.56164
0.0134137
-0.0159419
-1.55748
1.56
0.0179093
-0.0197457
-1.3017
1.30354
0.0211671
-0.022487
-1.09165
1.09297
0.0235534
-0.0246503
-0.91876
0.919857
0.0256058
-0.0265681
-0.777434
0.778396
0.0272194
-0.027156
-0.658453
0.65839
0.0258783
-0.0224409
-0.530141
0.526704
0.0175508
-0.0114694
-0.351732
0.34565
0.00660125
-0.00273495
-0.163803
0.159936
0.000719463
-0.026955
0.0262355
-0.0293629
0.0291112
0.000251681
-0.00300141
0.00561522
-0.23717
0.234557
-0.00909365
0.0119136
-0.41229
0.40947
-0.0136772
0.0138774
-0.5536
0.5534
-0.0129313
0.0114618
-0.66417
0.66564
-0.00952678
0.00759428
-0.782083
0.784015
-0.00531942
0.00311087
-0.925721
0.927929
-0.000549337
-0.00190997
-1.09975
1.1022
0.00473095
-0.00740419
-1.30992
1.31259
0.0104147
-0.0132033
-1.56444
1.56722
0.0157704
-0.0181199
-1.56241
1.56476
0.0199149
-0.0215552
-1.30527
1.30691
0.022787
-0.0238879
-1.09433
1.09543
0.0247655
-0.0256861
-0.920892
0.921812
0.0265013
-0.0273012
-0.779252
0.780052
0.0276646
-0.0273161
-0.658182
0.657834
0.0255906
-0.0217397
-0.523081
0.51923
0.0167427
-0.0108429
-0.339695
0.333795
0.00623368
-0.00259583
-0.156214
0.152576
0.000689109
-0.0255413
0.0248521
-0.0289177
0.0287684
0.00014927
-0.00212304
0.00414816
-0.23226
0.230235
-0.00697631
0.00938634
-0.406884
0.404474
-0.0109878
0.0111924
-0.553272
0.553068
-0.0102571
0.00879155
-0.667202
0.668667
-0.00680132
0.00479419
-0.78594
0.787947
-0.00242969
0.000140666
-0.930045
0.932334
0.00250202
-0.00502139
-1.10458
1.1071
0.00788433
-0.0105663
-1.31518
1.31787
0.0135449
-0.0162554
-1.56992
1.57263
0.0186977
-0.0208761
-1.56698
1.56916
0.0224974
-0.023941
-1.30844
1.30988
0.0249848
-0.0258645
-1.0966
1.09748
0.026543
-0.0272669
-0.922654
0.923378
0.0279259
-0.0285773
-0.780722
0.781373
0.0286247
-0.027896
-0.657272
0.656544
0.0257194
-0.0214614
-0.515222
0.510964
0.0163339
-0.0105229
-0.327983
0.322172
0.00605662
-0.00253756
-0.149027
0.145508
0.000679957
-0.024178
0.0234981
-0.0286772
0.0286319
4.52877e-05
-0.00126549
0.00271613
-0.228519
0.227068
-0.00487948
0.00681493
-0.402333
0.400398
-0.00814902
0.00827491
-0.552992
0.552866
-0.00730317
0.00580432
-0.670257
0.671756
-0.00371854
0.00160085
-0.789949
0.792067
0.000894898
-0.00329994
-0.934533
0.936938
0.00605858
-0.00866919
-1.10953
1.11214
0.0116111
-0.0143379
-1.32048
1.3232
0.0173219
-0.0199826
-1.57526
1.57792
0.0223192
-0.0243358
-1.57122
1.57323
0.0257804
-0.0270098
-1.31119
1.31242
0.02784
-0.0284789
-1.09845
1.09909
0.0289481
-0.0294662
-0.924028
0.924546
0.0299604
-0.030399
-0.781814
0.782252
0.030168
-0.0289769
-0.655594
0.654403
0.0263178
-0.0216223
-0.506558
0.501862
0.016308
-0.0104783
-0.316403
0.310573
0.00604576
-0.00254925
-0.142032
0.138536
0.000689152
-0.0228249
0.0221358
-0.0286444
0.0287089
-6.45176e-05
-0.000381835
0.00125174
-0.225928
0.225058
-0.00272438
0.00412217
-0.398765
0.397367
-0.0050878
0.00504824
-0.552936
0.552976
-0.00397771
0.0023827
-0.673432
0.675027
-0.000162448
-0.00210618
-0.794184
0.796452
0.00477645
-0.00733855
-0.93925
0.941812
0.0102618
-0.0130084
-1.11467
1.11742
0.0160719
-0.0188715
-1.32586
1.32866
0.0218785
-0.0244948
-1.58049
1.58311
0.0267233
-0.028572
-1.57511
1.57696
0.0298379
-0.030855
-1.31351
1.31453
0.0314796
-0.031878
-1.09986
1.10025
0.0321281
-0.0324234
-0.924984
0.925279
0.0327264
-0.0328806
-0.782378
0.782532
0.0323534
-0.0306178
-0.653008
0.651272
0.0274257
-0.0222383
-0.497018
0.491831
0.016659
-0.0106935
-0.304736
0.298771
0.00618839
-0.00262489
-0.13504
0.131477
0.000715013
-0.0214459
0.0207308
-0.0288345
0.0290154
-0.000180923
0.000544539
-0.00029356
-0.22451
0.224259
-0.000437612
0.00121874
-0.396305
0.395523
-0.00170691
0.00141418
-0.553282
0.553575
-0.000185203
-0.00155348
-0.676848
0.678587
0.00394771
-0.00640929
-0.798719
0.80118
0.00930872
-0.0120818
-0.944287
0.94706
0.0152274
-0.0181585
-1.1201
1.12303
0.0213925
-0.0243073
-1.3314
1.33432
0.0273798
-0.0299822
-1.58565
1.58825
0.0321179
-0.0337966
-1.57867
1.58035
0.0348744
-0.0356593
-1.31537
1.31616
0.0360553
-0.0361936
-1.10077
1.10091
0.0362112
-0.036268
-0.925476
0.925533
0.0363738
-0.0361498
-0.782308
0.782084
0.0352349
-0.0328874
-0.649369
0.647021
0.0290917
-0.0233278
-0.486478
0.480714
0.0173828
-0.0111544
-0.292741
0.286513
0.00647229
-0.00275814
-0.127874
0.12416
0.000755591
-0.0200083
0.0192527
-0.0292793
0.0296064
-0.000327137
0.00156818
-0.00195891
-0.224357
0.224748
0.00207105
-0.00200806
-0.395096
0.395033
0.00213207
-0.00279016
-0.554235
0.554893
0.00425062
-0.00620022
-0.680609
0.682559
0.00884687
-0.0115644
-0.803642
0.80636
0.0147532
-0.0177857
-0.949746
0.952779
0.0212039
-0.0243651
-1.1259
1.12906
0.0278185
-0.0308858
-1.33718
1.34025
0.0340498
-0.0366428
-1.59077
1.59337
0.0386753
-0.0401617
-1.58187
1.58336
0.0410286
-0.04156
-1.31671
1.31725
0.0417145
-0.041572
-1.10114
1.101
0.0413292
-0.0411288
-0.925454
0.925254
0.0410212
-0.0403232
-0.781439
0.780741
0.0389406
-0.0358829
-0.644527
0.641469
0.0313826
-0.0249209
-0.474753
0.468291
0.0184854
-0.0118551
-0.28016
0.27353
0.00688997
-0.00294437
-0.120368
0.116423
0.00080923
-0.0184838
0.0176745
-0.030005
0.030507
-0.000502058
0.00284241
-0.00398752
-0.225539
0.226684
0.00496246
-0.00569702
-0.395334
0.396069
0.00654797
-0.00767302
-0.556048
0.557173
0.00946564
-0.0117004
-0.684866
0.687101
0.0146813
-0.0177266
-0.809078
0.812123
0.0212823
-0.0246467
-0.955731
0.959096
0.028415
-0.0318688
-1.13217
1.13563
0.0355938
-0.0388448
-1.34326
1.34652
0.042117
-0.0447013
-1.59587
1.59845
0.0466128
-0.0478798
-1.58467
1.58593
0.0484929
-0.0487597
-1.31752
1.31778
0.0486489
-0.0481966
-1.10091
1.10046
0.0476729
-0.0471917
-0.924857
0.924375
0.0467471
-0.045597
-0.779649
0.778499
0.0435994
-0.0396962
-0.638273
0.634369
0.0343564
-0.0270416
-0.461588
0.454273
0.0199677
-0.012785
-0.266711
0.259528
0.00742993
-0.00317635
-0.112365
0.108111
0.000873254
-0.0168475
0.0159742
-0.0310844
0.0318065
-0.000722104
0.00433631
-0.00636085
-0.228252
0.230276
0.0084156
-0.0100549
-0.397243
0.398882
0.0117328
-0.0134412
-0.558963
0.560671
0.0156995
-0.0183098
-0.689764
0.692375
0.021719
-0.0251721
-0.815167
0.81862
0.0291833
-0.0329568
-0.962395
0.966168
0.0371504
-0.0409538
-1.13904
1.14285
0.0450002
-0.0484674
-1.34972
1.35318
0.0518663
-0.0544381
-1.60093
1.6035
0.0562075
-0.0572159
-1.587
1.58801
0.0575362
-0.0574874
-1.3177
1.31765
0.0570737
-0.0562769
-1.10001
1.09922
0.0554442
-0.0546502
-0.923624
0.92283
0.0537929
-0.0521135
-0.776981
0.775302
0.0493617
-0.0444292
-0.630323
0.625391
0.0380685
-0.0297014
-0.446658
0.438291
0.0218173
-0.0139223
-0.252089
0.244194
0.00807284
-0.00344296
-0.103713
0.0990833
0.000943826
-0.0150802
0.0141364
-0.0325997
0.0336123
-0.00101255
0.00622823
-0.00931162
-0.232749
0.235833
0.0126132
-0.0153145
-0.401089
0.403791
0.0179686
-0.0204001
-0.563256
0.565688
0.0232801
-0.0264024
-0.695501
0.698623
0.0303849
-0.0343528
-0.822083
0.82605
0.0389224
-0.0431855
-0.969884
0.974147
0.0478784
-0.0520845
-1.14661
1.15082
0.0564874
-0.0601727
-1.35659
1.36028
0.0636599
-0.0661505
-1.60594
1.60843
0.067698
-0.0683682
-1.58878
1.58945
0.0683299
-0.067908
-1.31711
1.31669
0.0671763
-0.0660009
-1.09836
1.09719
0.0648195
-0.0637148
-0.921698
0.920593
0.0623192
-0.0600128
-0.773264
0.770957
0.0563408
-0.0501456
-0.620307
0.614112
0.0425351
-0.0328756
-0.429554
0.419895
0.02399
-0.0152213
-0.235975
0.227206
0.0087833
-0.00372541
-0.0942847
0.0892268
0.00101477
-0.0131717
0.0121569
-0.0346814
0.0360941
-0.00141264
0.00869632
-0.013135
-0.239357
0.243795
0.0179229
-0.0218536
-0.407246
0.411177
0.0256374
-0.0289365
-0.569274
0.572573
0.0326142
-0.0364079
-0.702373
0.706166
0.0411273
-0.0457475
-0.830035
0.834656
0.0510017
-0.0558492
-0.978368
0.983215
0.0611186
-0.065763
-1.15499
1.15963
0.0705179
-0.0743818
-1.36386
1.36772
0.0778856
-0.0802087
-1.61073
1.61305
0.0814345
-0.0816634
-1.58984
1.59007
0.0811951
-0.0802743
-1.31566
1.31474
0.0791538
-0.0775718
-1.09585
1.09427
0.0760453
-0.0745124
-0.919038
0.917505
0.0725991
-0.069458
-0.768261
0.76512
0.0646291
-0.056866
-0.607737
0.599974
0.0477205
-0.0364862
-0.409793
0.398558
0.0263949
-0.0166016
-0.218055
0.208262
0.00950459
-0.0039955
-0.0839896
0.0784805
0.00107731
-0.0111251
0.0100478
-0.0375249
0.0395117
-0.00198684
0.0121401
-0.0182937
-0.2486
0.254754
0.0248748
-0.0302425
-0.416202
0.421569
0.0353589
-0.039716
-0.577394
0.581751
0.0443999
-0.0490623
-0.710706
0.715369
0.0547197
-0.0601383
-0.839286
0.844705
0.0662002
-0.0717038
-0.988033
0.993537
0.0775766
-0.0826336
-1.16421
1.16926
0.087663
-0.0915944
-1.37142
1.37535
0.0949544
-0.0969374
-1.61508
1.61706
0.097678
-0.0973167
-1.58991
1.58955
0.0963201
-0.0948061
-1.31316
1.31164
0.0932166
-0.0912005
-1.0924
1.09038
0.0892854
-0.0871923
-0.915366
0.913273
0.0847358
-0.0805133
-0.761511
0.757289
0.074243
-0.064526
-0.591985
0.582268
0.053494
-0.0403667
-0.386813
0.373686
0.0288698
-0.017936
-0.198051
0.187117
0.0101525
-0.00421396
-0.0728039
0.0668653
0.00111983
-0.00896242
0.0078426
-0.0414541
0.0443272
-0.00287307
0.0171557
-0.0255656
-0.261203
0.269613
0.0343583
-0.0414474
-0.428634
0.435724
0.0481799
-0.0538297
-0.588109
0.593759
0.0598219
-0.0656286
-0.720926
0.726732
0.0724668
-0.078814
-0.85011
0.856457
0.0857351
-0.0918656
-0.998985
1.00512
0.0982373
-0.103557
-1.17417
1.17949
0.108641
-0.112401
-1.37898
1.38274
0.115322
-0.116688
-1.61861
1.61998
0.116695
-0.115534
-1.58869
1.58753
0.113852
-0.111662
-1.30941
1.30722
0.109536
-0.107046
-1.0879
1.08541
0.104734
-0.101952
-0.910407
0.907626
0.0987823
-0.0931501
-0.75246
0.746827
0.0850445
-0.0728994
-0.572227
0.560082
0.0595789
-0.0442299
-0.360015
0.344666
0.0311611
-0.0190411
-0.175782
0.163662
0.0106138
-0.00433127
-0.0608047
0.0545221
0.00112844
-0.00672915
0.00560071
-0.0470407
0.0514098
-0.00436914
0.0249034
-0.0363753
-0.278339
0.289811
0.0480367
-0.0574386
-0.445568
0.45497
0.0662107
-0.0734168
-0.602035
0.609241
0.0809797
-0.0882824
-0.733453
0.740756
0.0963355
-0.10353
-0.862705
0.869899
0.111135
-0.117662
-1.01108
1.01761
0.124202
-0.129429
-1.18447
1.1897
0.134142
-0.137333
-1.38599
1.38918
0.13939
-0.139773
-1.6207
1.62109
0.138731
-0.136495
-1.58574
1.5835
0.133929
-0.130909
-1.30421
1.30119
0.128153
-0.12514
-1.08223
1.07922
0.122316
-0.118853
-0.903979
0.900517
0.114668
-0.107158
-0.740383
0.732874
0.0966736
-0.0815217
-0.547458
0.532306
0.0654893
-0.0476416
-0.328819
0.310971
0.0329234
-0.0196906
-0.151257
0.138024
0.010757
-0.00429296
-0.0482112
0.0417472
0.00108785
-0.00449656
0.00340871
-0.0553597
0.062802
-0.00744237
0.0383737
-0.0543415
-0.302154
0.318122
0.0700671
-0.0826994
-0.468682
0.481314
0.0936535
-0.102241
-0.61962
0.628207
0.111331
-0.11993
-0.748637
0.757235
0.128947
-0.136557
-0.876782
0.884393
0.144242
-0.150547
-1.0237
1.03
0.15658
-0.161092
-1.19428
1.19879
0.164799
-0.166843
-1.39155
1.39359
0.16748
-0.166401
-1.62057
1.61949
0.163914
-0.160302
-1.58047
1.57685
0.156631
-0.152587
-1.29723
1.29319
0.14911
-0.145537
-1.07523
1.07166
0.142099
-0.13777
-0.895881
0.891552
0.132085
-0.121983
-0.724188
0.714086
0.10836
-0.0895229
-0.516384
0.497547
0.0704869
-0.0500865
-0.292815
0.272415
0.0338299
-0.0197272
-0.124806
0.110704
0.0105049
-0.00406771
-0.0354184
0.0289812
0.000979426
-0.00235916
0.00137974
-0.0697184
0.0738643
-0.00414589
0.0292223
-0.0431816
-0.33661
0.350569
0.0572225
-0.0688984
-0.499408
0.511083
0.0793019
-0.0890109
-0.640502
0.650211
0.0998387
-0.109931
-0.765278
0.775371
0.121175
-0.131113
-0.890958
0.900897
0.141665
-0.151028
-1.03538
1.04474
0.160818
-0.169198
-1.20222
1.2106
0.177519
-0.184116
-1.39445
1.40105
0.189936
-0.193624
-1.61721
1.6209
0.195166
-0.19516
-1.57222
1.57222
0.194046
-0.192229
-1.28811
1.28629
0.190694
-0.18871
-1.0666
1.06462
0.186596
-0.182216
-0.885309
0.880929
0.174209
-0.158991
-0.702255
0.687037
0.138278
-0.110863
-0.477803
0.450387
0.0846344
-0.057907
-0.252012
0.225285
0.0378142
-0.0212946
-0.097248
0.0807284
0.0109312
-0.00403585
-0.0229959
0.0161006
0.000896577
-0.000389667
-0.00050691
-0.081256
0.0793163
0.00193972
0.00768357
-0.0166707
-0.367201
0.376188
0.0273077
-0.0357389
-0.527329
0.53576
0.0442114
-0.0522184
-0.662672
0.670679
0.0620756
-0.0713972
-0.784933
0.794255
0.0813961
-0.0904867
-0.910171
0.919262
0.100119
-0.108316
-1.05379
1.06199
0.117056
-0.124145
-1.21873
1.22582
0.131113
-0.136323
-1.40726
1.41247
0.140371
-0.142491
-1.62374
1.62586
0.142545
-0.141079
-1.57158
1.57011
0.138492
-0.135119
-1.28376
1.28039
0.132063
-0.128729
-1.06037
1.05703
0.125267
-0.11994
-0.872039
0.866712
0.111306
-0.0975912
-0.667945
0.65423
0.0813464
-0.0619626
-0.421408
0.402025
0.0451536
-0.0298041
-0.199023
0.183674
0.0190339
-0.0106237
-0.0652332
0.056823
0.00544462
-0.00202712
-0.00939363
0.00597614
0.000448634
0.00165648
-0.00210512
-0.0826684
0.0797741
0.00289429
-0.00124245
-0.00385828
-0.387921
0.393021
0.0108923
-0.017023
-0.548026
0.554156
0.0232479
-0.0301653
-0.68132
0.688237
0.0387047
-0.0467689
-0.802638
0.810702
0.0556321
-0.0635261
-0.9275
0.935394
0.071634
-0.0788961
-1.06999
1.07725
0.0864124
-0.0925731
-1.23244
1.2386
0.0981446
-0.102067
-1.41697
1.42089
0.104982
-0.10584
-1.62722
1.62808
0.104642
-0.101933
-1.56797
1.56526
0.0983378
-0.0940539
-1.27658
1.27229
0.0897228
-0.0851239
-1.05156
1.04697
0.080541
-0.0745474
-0.856947
0.850953
0.066715
-0.0554701
-0.637571
0.626326
0.0437833
-0.0313069
-0.381257
0.368781
0.021906
-0.0142267
-0.168071
0.160391
0.00922006
-0.00543825
-0.0484212
0.0446394
0.00297861
-0.00122841
-0.00235083
0.000600625
0.000313023
0.00279516
-0.00310819
-0.081417
0.0785991
0.0028179
-0.00507683
0.00256774
-0.40163
0.404139
0.00196385
-0.00655816
-0.563347
0.567942
0.0117741
-0.0175542
-0.696615
0.702395
0.0248525
-0.0317443
-0.818091
0.824983
0.03928
-0.0460153
-0.942689
0.949424
0.0533111
-0.0594212
-1.08404
1.09015
0.0659034
-0.0707335
-1.24429
1.24912
0.0753476
-0.0784141
-1.42451
1.42758
0.0802186
-0.0798833
-1.62841
1.62808
0.0779275
-0.0744717
-1.5619
1.55844
0.0702015
-0.0647949
-1.26751
1.2621
0.0597144
-0.0541532
-1.04067
1.03511
0.0485852
-0.0424093
-0.840773
0.834598
0.0352651
-0.0266617
-0.612302
0.603699
0.0189392
-0.0121813
-0.355255
0.348497
0.00801615
-0.00522201
-0.151939
0.149144
0.00354284
-0.00235723
-0.0402521
0.0390665
0.00144582
-0.000688625
0.0015681
-0.00232529
0.000199026
0.00362462
-0.00382365
-0.0798674
0.0773702
0.00249722
-0.00634774
0.00544999
-0.410772
0.411669
-0.00207113
-0.00132166
-0.575557
0.57895
0.00546056
-0.0106702
-0.709427
0.714637
0.0167787
-0.0228128
-0.831149
0.837183
0.0293132
-0.0351396
-0.95566
0.961486
0.0413637
-0.0467491
-1.09609
1.10147
0.0521661
-0.0564852
-1.25376
1.25808
0.0602648
-0.062598
-1.43019
1.43252
0.0636182
-0.0625803
-1.62746
1.62643
0.0599651
-0.0556677
-1.55416
1.54986
0.050855
-0.0450096
-1.2564
1.25055
0.0393769
-0.0330151
-1.02822
1.02186
0.0270715
-0.0207102
-0.824833
0.818472
0.0146683
-0.00821031
-0.592871
0.586413
0.00350484
-0.000517083
-0.339994
0.337006
-0.000568478
0.000647839
-0.144797
0.144717
-0.000337697
-4.02107e-05
-0.0371522
0.0375301
0.00019899
-0.000203167
0.00344498
-0.0034408
8.81704e-05
0.00418678
-0.00427495
-0.078411
0.0762696
0.00214137
-0.00633639
0.00596416
-0.416996
0.417369
-0.00396462
0.00122375
-0.584933
0.587673
0.00280127
-0.00724835
-0.720232
0.724679
0.0124694
-0.0176779
-0.842406
0.847615
0.0234206
-0.0285972
-0.966922
0.972099
0.0342471
-0.0389149
-1.10655
1.11121
0.0437021
-0.0474802
-1.26206
1.26584
0.0506448
-0.0524446
-1.43451
1.43631
0.0528785
-0.0517101
-1.62518
1.62402
0.0486139
-0.0440637
-1.545
1.54045
0.03892
-0.0327205
-1.24434
1.23814
0.0269875
-0.0201477
-1.01468
1.00784
0.0138959
-0.00755789
-0.809444
0.803106
0.00229437
0.00266304
-0.577695
0.572737
-0.00559727
0.00661709
-0.331449
0.330429
-0.00592948
0.00456649
-0.143082
0.144445
-0.00326384
0.00187255
-0.0373781
0.0387694
-0.000926287
0.000275183
0.00363126
-0.00298015
-3.73203e-05
0.00443693
-0.00439961
-0.0772802
0.0756028
0.00167747
-0.0055203
0.00550068
-0.421567
0.421587
-0.0038667
0.0018247
-0.593084
0.595126
0.00192843
-0.00595116
-0.729554
0.733577
0.0108732
-0.0153289
-0.852428
0.856883
0.0203361
-0.0248887
-0.977204
0.981757
0.0301984
-0.0343808
-1.11588
1.12006
0.0385611
-0.0420412
-1.26939
1.27287
0.0452167
-0.0467
-1.43806
1.43954
0.0469603
-0.0454588
-1.62236
1.62086
0.042484
-0.0375457
-1.53559
1.53066
0.0324654
-0.0263275
-1.23165
1.22552
0.0203864
-0.0136931
-1.00054
0.993846
0.00739492
-0.000947205
-0.794626
0.788178
-0.0036632
0.00782864
-0.565229
0.561063
-0.0100671
0.0101725
-0.326531
0.326426
-0.00890335
0.0070391
-0.144287
0.146151
-0.00517964
0.00322018
-0.0396988
0.0416582
-0.00177332
0.00067111
0.00245473
-0.00135252
-0.000149638
0.00436692
-0.00421728
-0.0766479
0.0753323
0.00131561
-0.0044662
0.00459733
-0.425144
0.425013
-0.00312066
0.00119306
-0.600132
0.602059
0.00234586
-0.00595404
-0.737878
0.741486
0.0101399
-0.0144014
-0.861304
0.865566
0.0189909
-0.0236485
-0.986076
0.990733
0.0281692
-0.0321082
-1.12432
1.12825
0.0363432
-0.0395031
-1.27618
1.27934
0.0420827
-0.0438491
-1.44087
1.44264
0.0441178
-0.0427216
-1.61935
1.61796
0.0396886
-0.0350809
-1.52585
1.52124
0.0300973
-0.0240444
-1.21898
1.21293
0.0182859
-0.0117088
-0.98669
0.980113
0.00559524
0.000521561
-0.780368
0.774251
-0.00527699
0.00892886
-0.554264
0.550612
-0.0108446
0.0110885
-0.323438
0.323194
-0.00991644
0.00788548
-0.146519
0.14855
-0.00597141
0.00385794
-0.0430472
0.0451607
-0.00222506
0.000906632
0.000416446
0.000901977
-0.000226416
0.00405505
-0.00382863
-0.0765553
0.0754563
0.00109898
-0.00317619
0.00307398
-0.428316
0.428419
-0.00181539
-8.01094e-05
-0.606558
0.608454
0.00336011
-0.00683863
-0.745579
0.749058
0.0108304
-0.0146638
-0.869643
0.873476
0.0193421
-0.0231634
-0.99477
0.998591
0.0276115
-0.0313325
-1.13232
1.13605
0.0353923
-0.0386785
-1.28244
1.28573
0.0414697
-0.0429272
-1.44412
1.44558
0.0434196
-0.0422849
-1.61644
1.6153
0.03973
-0.0352442
-1.51645
1.51197
0.0305551
-0.0247874
-1.20695
1.20119
0.0193261
-0.0129773
-0.973111
0.966762
0.00722629
-0.0011536
-0.766868
0.760795
-0.00359423
0.00718694
-0.544228
0.540635
-0.00921737
0.00975052
-0.320441
0.319908
-0.00915551
0.00759496
-0.14877
0.150331
-0.00594959
0.00397311
-0.0465834
0.0485598
-0.0023772
0.00102506
-0.00197447
0.00332662
-0.000281313
0.00359622
-0.00331491
-0.0767596
0.0759848
0.000774856
-0.00201563
0.00143268
-0.431556
0.432139
-0.000353461
-0.00164185
-0.612228
0.614223
0.00459143
-0.00792966
-0.752723
0.756062
0.0117406
-0.0156884
-0.877194
0.881142
0.0197198
-0.0236832
-1.0026
1.00656
0.0280642
-0.0315429
-1.14017
1.14365
0.0356609
-0.0388645
-1.28878
1.29199
0.0416552
-0.0435861
-1.44741
1.44934
0.0444845
-0.0435371
-1.61417
1.61322
0.0411112
-0.0372595
-1.50763
1.50378
0.0330684
-0.0276364
-1.19531
1.18988
0.0224057
-0.0166096
-0.960222
0.954426
0.0107983
-0.00507799
-0.753738
0.748018
0.000306906
0.00359385
-0.534588
0.530687
-0.00569107
0.0067672
-0.316904
0.315828
-0.00678523
0.00600634
-0.150218
0.150997
-0.00485841
0.00337446
-0.0496583
0.0511423
-0.00209965
0.000947329
-0.00431299
0.00546531
-0.000274488
0.00306012
-0.00278563
-0.0773858
0.0767773
0.00060853
-0.00102807
0.000475576
-0.435014
0.435567
0.00113864
-0.00299219
-0.617976
0.61983
0.00611148
-0.00931803
-0.759343
0.762549
0.0129789
-0.0165153
-0.884773
0.888309
0.0206609
-0.0242943
-1.0105
1.01414
0.0286054
-0.0325095
-1.14757
1.15147
0.0362409
-0.0397481
-1.29521
1.29872
0.0429325
-0.0449184
-1.45114
1.45312
0.0461379
-0.0459031
-1.61246
1.61223
0.0438849
-0.0406338
-1.49979
1.49654
0.0366531
-0.0316904
-1.18452
1.17955
0.0269092
-0.0213308
-0.948157
0.942579
0.0159616
-0.0103575
-0.741265
0.735661
0.00556117
-0.00121393
-0.524615
0.520268
-0.00145162
0.00304639
-0.312487
0.310892
-0.00377784
0.00370174
-0.150318
0.150394
-0.00319896
0.00235751
-0.0517003
0.0525417
-0.00154178
0.000737553
-0.00618479
0.00698902
-0.000229493
0.00256352
-0.00233403
-0.0783049
0.0778767
0.000428187
5.50999e-05
-0.000801535
-0.438639
0.439386
0.00229164
-0.0044576
-0.623331
0.625497
0.00751082
-0.0105641
-0.765709
0.768763
0.0143199
-0.0177064
-0.891833
0.895219
0.0216873
-0.0254352
-1.01823
1.02198
0.0296442
-0.0335015
-1.1552
1.15906
0.0374427
-0.040966
-1.30212
1.30565
0.0443181
-0.0470353
-1.45537
1.45809
0.0486667
-0.0487035
-1.61191
1.61195
0.0473495
-0.0444049
-1.49317
1.49023
0.040969
-0.0365653
-1.17456
1.17015
0.0318942
-0.0266327
-0.936705
0.931444
0.0215196
-0.0159128
-0.729233
0.723626
0.011138
-0.00636125
-0.514512
0.509735
0.00321016
-0.000832903
-0.307035
0.304658
-0.000492289
0.00115561
-0.148953
0.14829
-0.00135322
0.00116395
-0.0524515
0.0526407
-0.000847173
0.000449468
-0.00733521
0.00773291