/*--------------------------------*- C++ -*----------------------------------*\
  =========                 |
  \\      /  F ield         | OpenFOAM: The Open Source CFD Toolbox
   \\    /   O peration     | Website:  https://openfoam.org
    \\  /    A nd           | Version:  6
     \\/     M anipulation  |
\*---------------------------------------------------------------------------*/
FoamFile
{
    version     2.0;
    format      ascii;
    class       volVectorField;
    location    "61";
    object      U;
}
// * * * * * * * * * * * * * * * * * * * * * * * * * * * * * * * * * * * * * //

dimensions      [0 1 -1 0 0 0 0];

internalField   nonuniform List<vector> 
2200
(
(0.87763 -0.0201775 0)
(1.00471 -0.0399807 0)
(1.00284 -0.034241 0)
(1.00037 -0.0231738 0)
(0.999974 -0.0154488 0)
(1.00005 -0.0100833 0)
(0.999999 -0.00637455 0)
(0.999987 -0.0038961 0)
(1.00001 -0.00205274 0)
(1.00014 -0.000537715 0)
(1.00014 0.000970899 0)
(1.00023 0.00242347 0)
(1.00026 0.00422277 0)
(1.0002 0.00668257 0)
(1.00017 0.0103463 0)
(1.00007 0.0156493 0)
(1.00056 0.0232499 0)
(1.00308 0.0341359 0)
(1.00473 0.0400472 0)
(0.87766 0.0201918 0)
(0.700825 -0.0265912 0)
(0.993622 -0.0586179 0)
(1.02974 -0.0597271 0)
(1.02174 -0.0488336 0)
(1.01379 -0.0360973 0)
(1.00827 -0.025027 0)
(1.00508 -0.0167282 0)
(1.00324 -0.0105655 0)
(1.0022 -0.00577739 0)
(1.00163 -0.00160136 0)
(1.00148 0.00258611 0)
(1.00178 0.00676762 0)
(1.00282 0.0114458 0)
(1.0047 0.0174295 0)
(1.00796 0.0256114 0)
(1.01347 0.0366241 0)
(1.0213 0.0494481 0)
(1.02923 0.0604629 0)
(0.993506 0.0587339 0)
(0.700532 0.0266273 0)
(0.53048 -0.0214138 0)
(0.966297 -0.0552572 0)
(1.05278 -0.0605583 0)
(1.04852 -0.0532413 0)
(1.03243 -0.0415075 0)
(1.0213 -0.0316131 0)
(1.01377 -0.0227659 0)
(1.00908 -0.0152191 0)
(1.00631 -0.00856243 0)
(1.00499 -0.00216954 0)
(1.00511 0.00406532 0)
(1.00654 0.0102624 0)
(1.00915 0.0167594 0)
(1.01369 0.0241832 0)
(1.02103 0.0328559 0)
(1.03208 0.0425474 0)
(1.04828 0.0539406 0)
(1.05272 0.0605151 0)
(0.9655 0.0556283 0)
(0.529342 0.021555 0)
(0.393109 -0.013263 0)
(0.90981 -0.0453779 0)
(1.0558 -0.0513807 0)
(1.06645 -0.047275 0)
(1.05109 -0.0389481 0)
(1.03578 -0.0310994 0)
(1.02479 -0.0239546 0)
(1.01716 -0.0168425 0)
(1.01221 -0.0097119 0)
(1.00935 -0.0024702 0)
(1.00902 0.00498234 0)
(1.01142 0.0122819 0)
(1.01622 0.0191406 0)
(1.02374 0.0259568 0)
(1.03477 0.0327889 0)
(1.05016 0.040348 0)
(1.06523 0.0482833 0)
(1.05411 0.052193 0)
(0.907599 0.0458642 0)
(0.390388 0.0134462 0)
(0.309224 -0.00618373 0)
(0.846401 -0.033046 0)
(1.04821 -0.0428606 0)
(1.07727 -0.0391293 0)
(1.06532 -0.0330355 0)
(1.04866 -0.0270484 0)
(1.03578 -0.0217116 0)
(1.02621 -0.0159692 0)
(1.01961 -0.00943831 0)
(1.01601 -0.00196522 0)
(1.01599 0.00574339 0)
(1.01941 0.012803 0)
(1.02562 0.0191398 0)
(1.03489 0.0245994 0)
(1.04741 0.0295161 0)
(1.06377 0.035107 0)
(1.07555 0.0406634 0)
(1.0458 0.0440669 0)
(0.842351 0.0336459 0)
(0.305065 0.00637659 0)
(0.265388 -0.00191046 0)
(0.788865 -0.0218912 0)
(1.03219 -0.0337773 0)
(1.08155 -0.0321159 0)
(1.07503 -0.027573 0)
(1.05874 -0.0225408 0)
(1.04558 -0.0184461 0)
(1.03527 -0.0137899 0)
(1.02759 -0.00807694 0)
(1.02284 -0.00131873 0)
(1.02225 0.00599344 0)
(1.02614 0.0127849 0)
(1.03329 0.0179807 0)
(1.04332 0.0221189 0)
(1.0564 0.0257416 0)
(1.07271 0.0302268 0)
(1.07855 0.0341885 0)
(1.02787 0.0352752 0)
(0.782375 0.0226192 0)
(0.259863 0.00215455 0)
(0.24116 -0.000335968 0)
(0.738547 -0.0139794 0)
(1.01279 -0.0266651 0)
(1.08247 -0.0265102 0)
(1.08129 -0.023047 0)
(1.06621 -0.0187209 0)
(1.05325 -0.0151356 0)
(1.04293 -0.011054 0)
(1.03508 -0.00607949 0)
(1.03039 -1.95376e-05 0)
(1.03015 0.00630149 0)
(1.03413 0.0117801 0)
(1.04118 0.0164157 0)
(1.05078 0.0199857 0)
(1.06322 0.0230203 0)
(1.07764 0.0267326 0)
(1.07814 0.0293491 0)
(1.00628 0.0286369 0)
(0.728947 0.0149595 0)
(0.23392 0.000670682 0)
(0.226398 -2.86951e-05 0)
(0.695638 -0.00917132 0)
(0.992102 -0.0217236 0)
(1.08067 -0.0229279 0)
(1.08544 -0.0200348 0)
(1.07238 -0.0160278 0)
(1.05967 -0.0125379 0)
(1.04981 -0.00879578 0)
(1.04225 -0.00427346 0)
(1.03718 0.00099833 0)
(1.03619 0.0067114 0)
(1.03968 0.011926 0)
(1.04623 0.0157154 0)
(1.0555 0.018577 0)
(1.06797 0.0212198 0)
(1.08047 0.024239 0)
(1.07429 0.0263291 0)
(0.982365 0.0240702 0)
(0.682046 0.0103393 0)
(0.217071 0.000435724 0)
(0.216727 -4.63123e-05 0)
(0.660389 -0.00634086 0)
(0.972092 -0.0181988 0)
(1.07842 -0.0202638 0)
(1.08916 -0.0177215 0)
(1.07756 -0.0141225 0)
(1.06515 -0.010717 0)
(1.05551 -0.00705864 0)
(1.04824 -0.00266296 0)
(1.04373 0.00237365 0)
(1.04304 0.00748846 0)
(1.04603 0.0117889 0)
(1.05187 0.0155611 0)
(1.0604 0.0185123 0)
(1.07195 0.0211094 0)
(1.08226 0.0237483 0)
(1.06961 0.0248545 0)
(0.958431 0.0212222 0)
(0.641916 0.00789446 0)
(0.204825 0.000568317 0)
(0.209474 -9.58713e-05 0)
(0.631607 -0.00465236 0)
(0.953135 -0.0155731 0)
(1.07538 -0.0185756 0)
(1.09241 -0.0164962 0)
(1.0824 -0.0129129 0)
(1.0699 -0.00918373 0)
(1.06028 -0.0054209 0)
(1.05295 -0.0011158 0)
(1.04791 0.00373009 0)
(1.04633 0.00872424 0)
(1.04876 0.0131769 0)
(1.05432 0.0164036 0)
(1.06281 0.018882 0)
(1.07473 0.0212408 0)
(1.08332 0.0232166 0)
(1.06298 0.0238897 0)
(0.934031 0.0191896 0)
(0.60709 0.00654391 0)
(0.194389 0.000709908 0)
(0.20365 -6.61087e-05 0)
(0.608463 -0.00339195 0)
(0.935466 -0.0130341 0)
(1.07249 -0.0162537 0)
(1.09582 -0.0144001 0)
(1.08701 -0.0113105 0)
(1.07452 -0.00790084 0)
(1.06486 -0.00417331 0)
(1.05764 0.00022179 0)
(1.05291 0.00512421 0)
(1.05148 0.00997469 0)
(1.05348 0.0140529 0)
(1.0585 0.0173685 0)
(1.06639 0.0199185 0)
(1.07736 0.0220438 0)
(1.08378 0.0236087 0)
(1.05624 0.0232439 0)
(0.910384 0.0176061 0)
(0.57687 0.00579365 0)
(0.184732 0.000832445 0)
(0.199037 2.99442e-06 0)
(0.590299 -0.00237819 0)
(0.920162 -0.0107944 0)
(1.0695 -0.0143687 0)
(1.09912 -0.0127492 0)
(1.09195 -0.0096028 0)
(1.07928 -0.00595048 0)
(1.06918 -0.00213298 0)
(1.06118 0.00227311 0)
(1.05538 0.00711354 0)
(1.05316 0.0120846 0)
(1.05487 0.0162184 0)
(1.05981 0.0190904 0)
(1.06793 0.0210287 0)
(1.07938 0.0227441 0)
(1.08353 0.0238785 0)
(1.04722 0.0227628 0)
(0.885863 0.0164477 0)
(0.549127 0.00542226 0)
(0.17514 0.000927273 0)
(0.195295 0.000103599 0)
(0.575196 -0.00158031 0)
(0.905428 -0.00872887 0)
(1.06678 -0.0123172 0)
(1.10275 -0.0107611 0)
(1.09682 -0.00767342 0)
(1.08402 -0.00409116 0)
(1.07354 -0.000298103 0)
(1.06541 0.00411536 0)
(1.05966 0.00917202 0)
(1.05698 0.0139017 0)
(1.05828 0.0177668 0)
(1.06291 0.0205231 0)
(1.07073 0.0225083 0)
(1.08106 0.0240538 0)
(1.0827 0.0244493 0)
(1.03813 0.0227404 0)
(0.861798 0.0156291 0)
(0.523705 0.00527025 0)
(0.165779 0.00099545 0)
(0.193148 0.000266468 0)
(0.564739 -0.000576529 0)
(0.894075 -0.00630098 0)
(1.06427 -0.00979022 0)
(1.10613 -0.00831518 0)
(1.10174 -0.00500922 0)
(1.08861 -0.00100091 0)
(1.07743 0.00303801 0)
(1.06817 0.00749896 0)
(1.06111 0.0123273 0)
(1.05788 0.0169545 0)
(1.05882 0.0205069 0)
(1.06332 0.0228001 0)
(1.07137 0.0240591 0)
(1.08145 0.0250499 0)
(1.08051 0.0252313 0)
(1.02603 0.0227252 0)
(0.836183 0.0150523 0)
(0.498956 0.00525409 0)
(0.156305 0.00104808 0)
(0.192254 0.000457316 0)
(0.556968 3.90385e-05 0)
(0.883867 -0.00417009 0)
(1.06286 -0.00699035 0)
(1.11031 -0.00535799 0)
(1.10715 -0.00209104 0)
(1.0941 0.00184079 0)
(1.0827 0.00591376 0)
(1.07339 0.0104253 0)
(1.06626 0.0152774 0)
(1.06215 0.0198444 0)
(1.06231 0.0232633 0)
(1.06622 0.0252177 0)
(1.07356 0.02653 0)
(1.08191 0.0270671 0)
(1.07806 0.0262077 0)
(1.01403 0.0230905 0)
(0.810996 0.0147933 0)
(0.475483 0.00535907 0)
(0.147031 0.00110003 0)
(0.193004 0.000515897 0)
(0.553101 0.00130498 0)
(0.877516 -0.00197047 0)
(1.06206 -0.00433751 0)
(1.1147 -0.00242772 0)
(1.11296 0.00118463 0)
(1.09954 0.00561005 0)
(1.0874 0.0102124 0)
(1.07691 0.0150279 0)
(1.06803 0.0197791 0)
(1.063 0.0237216 0)
(1.06254 0.0265233 0)
(1.06568 0.0282993 0)
(1.07304 0.0289595 0)
(1.08087 0.029022 0)
(1.07303 0.0279217 0)
(0.998412 0.023751 0)
(0.783601 0.0149756 0)
(0.451432 0.00559073 0)
(0.137416 0.00117241 0)
(0.195415 0.000691696 0)
(0.553631 0.00204212 0)
(0.873243 0.000376465 0)
(1.06318 -0.000891021 0)
(1.11992 0.00157442 0)
(1.11913 0.00554803 0)
(1.10571 0.0100271 0)
(1.09324 0.0146872 0)
(1.08251 0.0194281 0)
(1.07355 0.0242113 0)
(1.06787 0.0287434 0)
(1.06573 0.0316221 0)
(1.06816 0.03286 0)
(1.07457 0.0330517 0)
(1.07997 0.0322055 0)
(1.06803 0.0299262 0)
(0.982791 0.0251702 0)
(0.756079 0.0155417 0)
(0.427582 0.00595349 0)
(0.127662 0.00128531 0)
(0.199886 0.00105463 0)
(0.556687 0.00297239 0)
(0.873915 0.00318731 0)
(1.06572 0.00239767 0)
(1.12599 0.0055644 0)
(1.12639 0.0102498 0)
(1.11249 0.0153518 0)
(1.09916 0.0203509 0)
(1.08729 0.0255833 0)
(1.07649 0.030591 0)
(1.06842 0.0341722 0)
(1.06533 0.0362063 0)
(1.06646 0.037321 0)
(1.07238 0.036901 0)
(1.07714 0.0358005 0)
(1.05972 0.0331356 0)
(0.962545 0.0268937 0)
(0.725273 0.0164879 0)
(0.401863 0.00648613 0)
(0.117062 0.00143043 0)
(0.206727 0.00148537 0)
(0.56424 0.0043225 0)
(0.878227 0.0058415 0)
(1.07103 0.00667643 0)
(1.13323 0.0104542 0)
(1.13451 0.0158839 0)
(1.12057 0.0213994 0)
(1.10672 0.0266855 0)
(1.094 0.0319961 0)
(1.08205 0.0370258 0)
(1.07248 0.041462 0)
(1.06782 0.0438667 0)
(1.0681 0.0438546 0)
(1.07288 0.0428028 0)
(1.07407 0.0407106 0)
(1.05104 0.0365092 0)
(0.941833 0.0294342 0)
(0.693405 0.0177777 0)
(0.375162 0.00714909 0)
(0.105922 0.00157923 0)
(0.215444 0.00193564 0)
(0.575917 0.0057887 0)
(0.886925 0.00868761 0)
(1.07891 0.0109685 0)
(1.14207 0.0158112 0)
(1.14407 0.0220247 0)
(1.12919 0.028595 0)
(1.11384 0.0347383 0)
(1.09884 0.0408653 0)
(1.08424 0.0467569 0)
(1.0724 0.0508918 0)
(1.06645 0.0517885 0)
(1.06501 0.051476 0)
(1.06856 0.0493643 0)
(1.06895 0.04658 0)
(1.03833 0.0415057 0)
(0.914896 0.0323269 0)
(0.656617 0.0195178 0)
(0.345224 0.00792353 0)
(0.0935895 0.00172319 0)
(0.228202 0.00252561 0)
(0.594762 0.00813335 0)
(0.902455 0.013028 0)
(1.09041 0.0167277 0)
(1.15265 0.0225212 0)
(1.15463 0.0296151 0)
(1.13874 0.0370227 0)
(1.12214 0.0441795 0)
(1.10583 0.051008 0)
(1.08956 0.0567913 0)
(1.0752 0.0604619 0)
(1.06674 0.061738 0)
(1.06435 0.0607709 0)
(1.06673 0.0579087 0)
(1.06271 0.0538069 0)
(1.02421 0.0465531 0)
(0.886618 0.0362915 0)
(0.617397 0.0215569 0)
(0.313275 0.00871187 0)
(0.0805465 0.00184822 0)
(0.244323 0.00317943 0)
(0.618867 0.0100585 0)
(0.923737 0.0174288 0)
(1.10596 0.0236339 0)
(1.16545 0.0311147 0)
(1.1671 0.0396663 0)
(1.14927 0.0483642 0)
(1.13029 0.0566157 0)
(1.11064 0.0644058 0)
(1.09017 0.0705492 0)
(1.07295 0.0740289 0)
(1.06315 0.0738536 0)
(1.05899 0.0714446 0)
(1.05958 0.0670502 0)
(1.05371 0.0612746 0)
(1.0048 0.0531562 0)
(0.849866 0.0399929 0)
(0.571256 0.02371 0)
(0.277247 0.00940065 0)
(0.0663277 0.00192656 0)
(0.266638 0.00447528 0)
(0.652543 0.0142551 0)
(0.953568 0.0245497 0)
(1.12666 0.0331369 0)
(1.18157 0.0420105 0)
(1.18203 0.052241 0)
(1.16196 0.0620124 0)
(1.14031 0.0711189 0)
(1.11824 0.079471 0)
(1.09569 0.0858448 0)
(1.07493 0.0886439 0)
(1.06093 0.0873514 0)
(1.05574 0.0838307 0)
(1.05519 0.0779297 0)
(1.04289 0.0707703 0)
(0.982567 0.0596925 0)
(0.810828 0.0450144 0)
(0.52211 0.0261036 0)
(0.239258 0.00999607 0)
(0.0517954 0.00197069 0)
(0.298098 0.00557316 0)
(0.698208 0.0175106 0)
(0.992936 0.0314531 0)
(1.15357 0.0438214 0)
(1.20123 0.0555577 0)
(1.19946 0.0687786 0)
(1.17563 0.0807678 0)
(1.14979 0.0912244 0)
(1.12203 0.100289 0)
(1.09268 0.105772 0)
(1.06794 0.106311 0)
(1.05495 0.103188 0)
(1.04846 0.0973202 0)
(1.04523 0.0892996 0)
(1.02893 0.0802065 0)
(0.954122 0.0679278 0)
(0.760512 0.0492205 0)
(0.463176 0.0279487 0)
(0.196895 0.010297 0)
(0.0364443 0.00190554 0)
(0.333791 0.00881113 0)
(0.755537 0.0261486 0)
(1.04203 0.0447615 0)
(1.18693 0.0609957 0)
(1.22537 0.0746397 0)
(1.21907 0.0909134 0)
(1.19049 0.104542 0)
(1.16017 0.11578 0)
(1.12848 0.12413 0)
(1.09658 0.128187 0)
(1.06946 0.127249 0)
(1.05053 0.120991 0)
(1.04198 0.11264 0)
(1.03717 0.103178 0)
(1.01154 0.0920206 0)
(0.919795 0.0752177 0)
(0.706382 0.0545191 0)
(0.403199 0.0300699 0)
(0.154691 0.0103449 0)
(0.0224818 0.00179611 0)
(0.411624 0.0136453 0)
(0.841109 0.036395 0)
(1.10869 0.0621583 0)
(1.22851 0.0842153 0)
(1.25349 0.101252 6.4142e-34)
(1.24074 0.120738 -2.87937e-34)
(1.20567 0.135662 0)
(1.16965 0.147077 0)
(1.13141 0.154715 0)
(1.09199 0.155994 0)
(1.05866 0.149531 0)
(1.04122 0.139551 0)
(1.03227 0.129063 0)
(1.02289 0.116473 0)
(0.989696 0.102135 0)
(0.878084 0.0838873 0)
(0.638257 0.0578892 0)
(0.328836 0.0299818 0)
(0.105568 0.00942566 0)
(0.00699028 0.00161758 0)
(0.476738 0.0281216 4.85982e-20)
(0.94089 0.0566909 -3.67204e-20)
(1.1788 0.09173 0)
(1.27037 0.119662 2.78275e-20)
(1.28323 0.137969 -2.25579e-20)
(1.26055 0.160132 3.0381e-34)
(1.21779 0.17536 0)
(1.17579 0.186358 1.62694e-20)
(1.13269 0.191668 -5.36358e-20)
(1.09078 0.189084 1.09789e-20)
(1.05711 0.180032 0)
(1.03344 0.166695 -2.81439e-20)
(1.01988 0.150883 -3.37067e-20)
(1.00736 0.135954 5.89372e-20)
(0.956686 0.118958 -4.65066e-20)
(0.81443 0.0919788 0)
(0.546717 0.0615413 -1.66598e-20)
(0.245244 0.0294934 0)
(0.0577849 0.00864659 -9.20631e-20)
(-0.00922115 0.000846292 1.08499e-19)
(0.512522 0.0533259 -6.32692e-21)
(1.00416 0.0943852 1.11302e-19)
(1.22963 0.134636 -7.23852e-21)
(1.30418 0.164047 -6.92847e-20)
(1.30822 0.185308 -4.73372e-20)
(1.2764 0.207441 7.6919e-20)
(1.22674 0.221957 0)
(1.17872 0.23145 0)
(1.12929 0.234541 8.55257e-20)
(1.08005 0.229253 0)
(1.03763 0.214483 1.01627e-19)
(1.01266 0.194681 3.01987e-20)
(0.999628 0.177743 3.97307e-22)
(0.977514 0.15861 -6.41966e-20)
(0.9138 0.13315 0)
(0.750355 0.1046 0)
(0.470943 0.0660733 -2.71384e-19)
(0.187062 0.0300414 6.82482e-19)
(0.0266238 0.00632459 -4.03487e-19)
(-0.020528 -0.00136936 -4.75173e-19)
(0.523766 0.0775354 -6.55502e-20)
(1.0405 0.141674 2.47882e-20)
(1.26489 0.187927 1.30346e-20)
(1.33089 0.217954 1.19901e-19)
(1.32787 0.239205 1.38069e-20)
(1.28829 0.260115 -2.00634e-19)
(1.23175 0.273318 6.84701e-20)
(1.1771 0.280611 0)
(1.12193 0.280735 -1.81456e-19)
(1.06874 0.271042 1.62124e-19)
(1.02595 0.251472 -2.74234e-19)
(0.999202 0.229026 1.28565e-19)
(0.979614 0.206492 -8.28942e-20)
(0.955347 0.182359 1.87153e-19)
(0.88072 0.156041 0)
(0.70482 0.116225 -6.77177e-20)
(0.425 0.0731608 0)
(0.16754 0.0316454 3.72686e-19)
(0.0179347 0.00437628 -8.83347e-19)
(-0.0244002 -0.00337225 5.52905e-19)
(0.523617 0.102541 1.83554e-19)
(1.06433 0.194685 -8.08246e-20)
(1.2894 0.247867 -1.62559e-20)
(1.34896 0.278743 0)
(1.34021 0.299178 -8.79703e-20)
(1.29442 0.317815 1.08569e-19)
(1.23229 0.328295 -7.39391e-20)
(1.17248 0.331945 0)
(1.11251 0.327223 1.29089e-19)
(1.05512 0.311853 -1.1387e-19)
(1.00787 0.288004 2.37145e-19)
(0.977075 0.261639 0)
(0.956851 0.236855 -1.76207e-19)
(0.926646 0.209168 9.9465e-20)
(0.847794 0.173086 2.48603e-19)
(0.672438 0.13233 -2.18801e-19)
(0.406479 0.083631 3.45799e-19)
(0.164861 0.0347411 -7.64e-19)
(0.0180636 0.00453855 4.83522e-19)
(-0.0251145 -0.00492506 -6.04592e-19)
(0.512401 0.130251 -6.50517e-20)
(1.07154 0.244646 4.66357e-20)
(1.30183 0.307438 -5.3255e-20)
(1.35877 0.341391 1.06017e-19)
(1.34622 0.361174 -9.95399e-20)
(1.29592 0.377258 3.44656e-20)
(1.22945 0.384729 3.49628e-21)
(1.16565 0.384006 -1.45952e-19)
(1.10255 0.374109 -1.35728e-19)
(1.04288 0.354268 -2.44545e-19)
(0.993304 0.326049 -5.09694e-19)
(0.959835 0.296327 -1.56758e-19)
(0.935832 0.266811 2.22494e-21)
(0.904478 0.235772 -3.39142e-19)
(0.824483 0.1999 -4.898e-21)
(0.651686 0.149207 3.18179e-19)
(0.399737 0.094714 -9.56047e-20)
(0.170348 0.0425446 -5.53395e-20)
(0.0263747 0.00644348 0)
(-0.021765 -0.00567759 1.28554e-18)
(0.498029 0.154841 0)
(1.07159 0.294034 -4.74959e-21)
(1.30714 0.367152 -8.94412e-21)
(1.36172 0.404118 -1.24991e-20)
(1.34608 0.423488 9.60491e-20)
(1.29248 0.437117 -8.02157e-20)
(1.22316 0.440972 8.09029e-20)
(1.15679 0.435495 2.3988e-19)
(1.0903 0.4205 -7.56248e-20)
(1.02535 0.39549 1.20575e-19)
(0.971185 0.362629 2.73863e-19)
(0.936537 0.329949 3.41506e-19)
(0.910297 0.299705 -2.05297e-19)
(0.874384 0.266529 3.67062e-19)
(0.796208 0.220594 -2.90609e-19)
(0.631535 0.171263 0)
(0.396336 0.11021 -7.25529e-19)
(0.18059 0.0526217 9.76526e-19)
(0.0387927 0.0108964 7.288e-20)
(-0.0160949 -0.00512684 -1.35992e-18)
(0.481925 0.176619 -6.50266e-21)
(1.06297 0.339621 7.17204e-21)
(1.3053 0.423816 6.47131e-20)
(1.35932 0.464946 -8.68575e-20)
(1.3416 0.484172 7.97275e-20)
(1.28564 0.495447 -7.80204e-20)
(1.21391 0.496229 1.60732e-19)
(1.14443 0.486562 -7.18211e-20)
(1.07461 0.467033 -3.05989e-19)
(1.00768 0.436956 -3.72917e-22)
(0.954713 0.399559 -2.97557e-19)
(0.916294 0.362744 -3.67457e-19)
(0.886387 0.330462 2.26735e-19)
(0.853492 0.293705 -1.31864e-19)
(0.774575 0.251433 3.16073e-19)
(0.617208 0.191307 0)
(0.394589 0.126871 -4.50914e-19)
(0.190215 0.063632 6.66e-19)
(0.0508266 0.0165828 1.25973e-18)
(-0.0100649 -0.00379899 -1.48153e-18)
(0.468444 0.197338 -5.53801e-20)
(1.05404 0.384926 2.03503e-20)
(1.30036 0.479452 -4.27484e-20)
(1.35311 0.523654 8.931e-20)
(1.33338 0.542602 1.18535e-20)
(1.27511 0.552024 -1.5296e-19)
(1.20111 0.549951 -9.39239e-20)
(1.12972 0.536195 -9.29912e-20)
(1.05822 0.511657 -1.73154e-19)
(0.989291 0.475725 2.78218e-19)
(0.9307 0.433991 3.01102e-19)
(0.889234 0.396377 5.83284e-19)
(0.860744 0.362753 0)
(0.823114 0.324178 6.27631e-21)
(0.748416 0.271563 -8.68252e-19)
(0.600162 0.214527 2.03591e-19)
(0.392633 0.143695 9.78007e-19)
(0.199366 0.0754347 -2.88611e-19)
(0.0626448 0.0236298 5.99051e-19)
(-0.003898 -0.00172851 -5.00273e-20)
(0.455702 0.2161 7.91735e-21)
(1.04109 0.42642 4.33283e-20)
(1.29144 0.531507 -1.76484e-20)
(1.34368 0.579679 9.77305e-20)
(1.32221 0.598758 -1.5862e-19)
(1.26203 0.606322 1.52452e-19)
(1.18659 0.601607 9.74984e-20)
(1.1139 0.584129 2.77143e-19)
(1.04114 0.555483 3.47135e-19)
(0.970649 0.515735 -3.21087e-19)
(0.911146 0.470361 0)
(0.868393 0.428011 -2.20552e-19)
(0.836293 0.391193 2.53218e-19)
(0.801971 0.350216 3.18858e-19)
(0.727878 0.302188 -1.84644e-19)
(0.586278 0.233803 -4.47988e-19)
(0.389221 0.160898 -1.33496e-19)
(0.206161 0.0879384 -1.97467e-21)
(0.0721658 0.0311053 0)
(0.00145517 0.000597583 0)
(0.446411 0.234811 -7.17614e-20)
(1.03035 0.468111 0)
(1.28142 0.582706 -3.13762e-21)
(1.33215 0.6334 -1.18038e-20)
(1.30912 0.652023 1.81457e-19)
(1.24747 0.657892 -4.55186e-20)
(1.17097 0.650678 9.94657e-20)
(1.09779 0.629925 -1.87527e-19)
(1.02395 0.597336 2.6325e-19)
(0.950501 0.552657 -1.05165e-19)
(0.88669 0.502256 1.72669e-19)
(0.842404 0.459161 6.99584e-19)
(0.810795 0.422032 1.43265e-20)
(0.772965 0.379129 -3.33024e-19)
(0.702577 0.320313 6.1523e-19)
(0.568235 0.25679 3.55268e-21)
(0.38347 0.177388 1.42821e-19)
(0.208705 0.100119 -6.81018e-19)
(0.0782056 0.0379175 7.01912e-19)
(0.00547718 0.00275116 -8.26833e-19)
(0.438774 0.252018 5.03277e-23)
(1.01763 0.506133 0)
(1.26921 0.630213 0)
(1.31901 0.684289 -3.14122e-21)
(1.29475 0.702967 -5.38624e-20)
(1.23194 0.707032 7.22833e-20)
(1.15487 0.697367 -1.84612e-19)
(1.08099 0.673523 0)
(1.00572 0.638001 -3.88161e-19)
(0.931031 0.590723 4.64851e-19)
(0.868128 0.537702 4.91721e-19)
(0.821714 0.489743 -2.56646e-19)
(0.786773 0.447404 -3.10269e-19)
(0.752485 0.402264 7.27196e-19)
(0.682337 0.349902 -2.18783e-19)
(0.551788 0.274161 -2.60649e-19)
(0.37393 0.193061 -1.55874e-19)
(0.207564 0.110206 -7.35584e-19)
(0.0809459 0.043345 1.07923e-19)
(0.0081486 0.00445853 8.94738e-19)
(0.433679 0.270309 -3.67226e-20)
(1.00746 0.544468 -4.63016e-20)
(1.25703 0.676857 2.2931e-20)
(1.30503 0.732762 1.07996e-22)
(1.27966 0.750761 -5.58481e-20)
(1.21602 0.753134 1.17965e-19)
(1.13842 0.741243 0)
(1.06404 0.714836 1.13465e-19)
(0.987668 0.676357 -8.9468e-20)
(0.910846 0.625235 7.75331e-19)
(0.84275 0.567018 -1.11346e-19)
(0.794402 0.517333 1.27368e-19)
(0.762443 0.475768 0)
(0.724337 0.429068 -3.93584e-19)
(0.656205 0.364951 4.76138e-19)
(0.530252 0.295333 0)
(0.362733 0.206228 -3.35742e-19)
(0.203014 0.118579 9.87628e-19)
(0.0801938 0.0468921 1.1712e-19)
(0.00932811 0.00543598 -1.10226e-18)
(0.42936 0.288615 -9.29894e-20)
(0.996069 0.579249 1.16507e-19)
(1.24372 0.719716 0)
(1.29039 0.778367 1.23968e-20)
(1.26404 0.796359 0)
(1.19956 0.796979 -1.52207e-19)
(1.12164 0.782869 0)
(1.04676 0.753862 0)
(0.96936 0.713238 -1.1829e-19)
(0.891123 0.660584 -7.36936e-19)
(0.823168 0.600699 -9.08607e-19)
(0.773777 0.545636 1.4865e-19)
(0.737821 0.497347 5.35712e-19)
(0.703185 0.44786 4.3291e-19)
(0.63485 0.391623 -1.52752e-18)
(0.511135 0.308144 -6.11744e-19)
(0.348522 0.217328 3.58498e-19)
(0.195381 0.124097 0)
(0.0774118 0.0483079 1.00369e-18)
(0.00915213 0.00584199 -1.1874e-18)
(0.426748 0.30587 1.12223e-19)
(0.987165 0.614365 -1.36372e-19)
(1.23103 0.761779 0)
(1.27551 0.82165 -1.13524e-20)
(1.24819 0.838828 1.05299e-21)
(1.18311 0.837769 0)
(1.10504 0.821676 5.73413e-20)
(1.03012 0.790737 7.85945e-20)
(0.95181 0.748086 -2.22785e-19)
(0.870765 0.692383 9.77564e-20)
(0.797092 0.627418 0)
(0.745308 0.570068 6.17243e-19)
(0.712331 0.522876 6.01065e-21)
(0.673886 0.47126 2.33489e-19)
(0.60728 0.40077 2.7719e-19)
(0.487805 0.32415 0)
(0.33476 0.22468 -5.84364e-19)
(0.186596 0.126905 1.14352e-18)
(0.0729677 0.0486186 -1.21395e-18)
(0.00821783 0.00570045 2.55564e-18)
(0.424972 0.322273 0)
(0.977376 0.645953 0)
(1.21775 0.800168 -6.7483e-20)
(1.26046 0.862227 0)
(1.23222 0.879362 0)
(1.16658 0.876597 -1.30034e-19)
(1.08861 0.858477 5.88824e-20)
(1.0136 0.825426 1.79604e-20)
(0.934427 0.781457 -5.10276e-20)
(0.85161 0.724911 0)
(0.777822 0.659315 -1.38371e-19)
(0.723811 0.596887 -5.03262e-19)
(0.684853 0.540483 -6.04941e-19)
(0.650157 0.483915 -2.43016e-19)
(0.584148 0.422039 3.00057e-19)
(0.468323 0.329123 -7.06949e-19)
(0.318741 0.229049 1.25734e-18)
(0.17745 0.127361 1.78829e-21)
(0.0685862 0.0477505 -1.1613e-18)
(0.00722476 0.00519116 -1.72298e-19)
(0.424277 0.337672 0)
(0.969957 0.678066 -1.12247e-19)
(1.20536 0.838037 8.18335e-20)
(1.24557 0.900749 0)
(1.21644 0.916935 0)
(1.1505 0.912494 2.6275e-19)
(1.07283 0.892606 0)
(0.998167 0.858178 0)
(0.918328 0.813082 -4.8755e-19)
(0.832984 0.754786 1.34864e-19)
(0.752195 0.684714 -1.22838e-18)
(0.693356 0.619374 0)
(0.656802 0.563064 -6.59718e-19)
(0.617797 0.502883 1.003e-20)
(0.554531 0.422499 -9.65553e-19)
(0.444796 0.337259 3.80227e-19)
(0.305663 0.229146 1.40187e-21)
(0.169486 0.124398 -1.31555e-18)
(0.0658914 0.0458212 6.2435e-19)
(0.00682221 0.00454626 1.84368e-19)
(0.423961 0.352418 0)
(0.961685 0.706758 -1.56034e-19)
(1.19265 0.872417 8.75956e-20)
(1.23085 0.93681 1.08673e-19)
(1.20091 0.952872 -1.44296e-20)
(1.13474 0.94677 2.87427e-20)
(1.0576 0.92506 -3.61201e-20)
(0.983178 0.888916 4.71544e-19)
(0.902679 0.843149 5.21545e-19)
(0.815482 0.784977 1.0244e-18)
(0.733767 0.715499 1.02059e-18)
(0.671801 0.645826 1.79499e-19)
(0.626571 0.578532 9.48161e-19)
(0.589859 0.508647 5.84959e-19)
(0.528192 0.436199 6.92606e-19)
(0.425406 0.331014 -4.15816e-19)
(0.29265 0.223333 -4.83262e-19)
(0.168425 0.118678 5.66134e-19)
(0.0683705 0.0435084 -3.36626e-19)
(0.00887118 0.00415665 5.95509e-19)
(0.42414 0.366493 2.22235e-19)
(0.955483 0.736124 2.44794e-19)
(1.18095 0.906553 5.17044e-20)
(1.21657 0.971115 1.60827e-20)
(1.18586 0.986073 1.11313e-20)
(1.11975 0.97828 -7.27658e-20)
(1.04329 0.95501 3.52085e-20)
(0.969448 0.917956 -2.03341e-20)
(0.888352 0.871676 -6.04982e-19)
(0.798727 0.81288 -1.11178e-18)
(0.709937 0.740559 7.07212e-20)
(0.641328 0.668289 0)
(0.596966 0.600671 0)
(0.553033 0.525751 -3.0553e-19)
(0.492166 0.425717 -1.13619e-18)
(0.399639 0.326967 8.95369e-19)
(0.286454 0.208577 5.26646e-19)
(0.174904 0.1064 0)
(0.0836249 0.0379957 1.08244e-18)
(0.0201805 0.00541417 -6.40075e-19)
(0.4243 0.380045 -1.16913e-19)
(0.948331 0.762029 1.04749e-19)
(1.16903 0.937261 -1.23297e-19)
(1.20263 1.00314 -9.72151e-20)
(1.17127 1.01791 -1.20229e-20)
(1.10529 1.0085 -2.22714e-20)
(1.02974 0.983612 0)
(0.956232 0.945151 -5.92373e-19)
(0.874331 0.898525 7.50019e-20)
(0.782615 0.840338 0)
(0.693142 0.770303 0)
(0.621609 0.696034 1.14737e-19)
(0.565753 0.617564 1.53843e-19)
(0.520057 0.527719 -3.30662e-19)
(0.459088 0.433628 8.15908e-19)
(0.371222 0.300793 -9.75306e-19)
(0.275593 0.18254 -1.12766e-18)
(0.19817 0.0788692 9.99366e-19)
(0.151279 0.0267004 -3.87366e-19)
(0.0895814 0.0232937 2.2492e-19)
(0.424605 0.392779 1.48456e-19)
(0.942945 0.788642 0)
(1.15812 0.96791 0)
(1.18922 1.03363 -2.59058e-20)
(1.15734 1.04721 2.0976e-20)
(1.0918 1.03614 -2.00723e-20)
(1.01718 1.00987 1.57292e-19)
(0.944135 0.970837 6.0691e-19)
(0.861373 0.924008 1.09527e-18)
(0.767476 0.865911 -8.35808e-20)
(0.671706 0.794457 1.73175e-19)
(0.592952 0.719093 -1.02552e-18)
(0.536036 0.64197 -1.02401e-18)
(0.479071 0.549508 -1.77631e-19)
(0.409387 0.416295 0)
(0.334012 0.289194 -4.46437e-21)
(0.258197 0.124948 6.20871e-19)
(0.211429 0.00173123 -1.06486e-18)
(0.162993 -0.0816254 8.15945e-19)
(0.0766455 -0.0469268 6.93229e-19)
(0.424638 0.405247 -3.28541e-19)
(0.936208 0.811572 -1.48338e-19)
(1.14674 0.995071 8.50447e-21)
(1.17613 1.06212 5.77114e-20)
(1.14385 1.07565 0)
(1.07869 1.06318 -8.40917e-20)
(1.00498 1.03552 -2.24906e-19)
(0.931948 0.995306 -1.86748e-21)
(0.848016 0.948296 -5.73851e-19)
(0.751898 0.890994 -8.1992e-20)
(0.655814 0.823079 7.61543e-20)
(0.575017 0.749108 9.01053e-19)
(0.504641 0.663569 9.9921e-19)
(0.440958 0.553036 1.7317e-19)
(0.36869 0.433337 8.7937e-19)
(0.266797 0.244498 0)
(0.162395 0.109982 0)
(0.0181858 0.215643 7.03269e-19)
(-0.0434088 0.70204 -1.65056e-20)
(0.00366942 1.67567 -7.97233e-19)
(0.424818 0.417058 1.81955e-19)
(0.931192 0.835695 4.17052e-19)
(1.13635 1.02278 -5.74652e-19)
(1.16347 1.08966 2.82255e-19)
(1.13099 1.10224 -5.66009e-21)
(1.06658 1.0885 -3.73166e-20)
(0.993726 1.05992 0)
(0.920729 1.01966 -5.05552e-19)
(0.835428 0.972852 0)
(0.736949 0.916287 1.15369e-18)
(0.63442 0.847884 -9.31906e-20)
(0.545214 0.774297 1.04493e-19)
(0.473116 0.693984 1.14648e-18)
(0.394954 0.591949 -3.7448e-19)
(0.279396 0.418495 -4.46452e-19)
(0.18696 0.306141 0)
(0.0744985 0.532398 0)
(0.0213251 1.47047 0)
(0.0548537 2.5158 -4.07666e-19)
(0.0675237 2.92869 -2.45987e-19)
(0.424382 0.428357 0)
(0.924855 0.856099 0)
(1.12559 1.04704 2.10345e-19)
(1.15123 1.11526 -2.28354e-19)
(1.11868 1.12819 9.6076e-20)
(1.05496 1.11366 4.37224e-20)
(0.982925 1.08432 2.84699e-20)
(0.909495 1.04332 -2.2166e-20)
(0.822607 0.996636 8.10267e-20)
(0.721633 0.94106 -1.3243e-18)
(0.619115 0.8774 1.68783e-19)
(0.528737 0.808563 9.03004e-19)
(0.44164 0.723504 -1.1421e-18)
(0.348873 0.596986 -1.25574e-18)
(0.249509 0.487081 4.21858e-19)
(0.148517 0.687392 0)
(0.0798389 1.71521 5.78506e-19)
(0.0937625 2.73055 6.40199e-19)
(0.0985042 3.08717 -7.21894e-19)
(0.087725 3.21 7.84448e-19)
(0.424054 0.439163 0)
(0.920259 0.877906 3.71421e-19)
(1.11594 1.07211 -5.23724e-20)
(1.13953 1.14001 3.2323e-19)
(1.10711 1.1522 -1.00848e-19)
(1.04436 1.13689 0)
(0.973036 1.1072 0)
(0.899245 1.06674 0)
(0.810694 1.02065 4.56223e-19)
(0.707558 0.966374 6.12141e-20)
(0.598924 0.902853 0)
(0.500046 0.835095 -8.976e-19)
(0.412583 0.757347 0)
(0.299301 0.64967 8.94141e-19)
(0.199437 0.729817 -6.08079e-19)
(0.136889 1.57101 -4.84479e-19)
(0.134173 2.72742 -1.12172e-18)
(0.149853 3.12511 -6.017e-19)
(0.128343 3.25063 -8.5221e-19)
(0.113416 3.28586 7.52887e-19)
(0.422482 0.4487 -1.31064e-19)
(0.914221 0.895656 1.66096e-20)
(1.10589 1.0936 -5.84913e-20)
(1.12833 1.1629 -2.48611e-19)
(1.09616 1.17571 0)
(1.03419 1.16016 0)
(0.963423 1.13032 0)
(0.888834 1.08955 3.49243e-20)
(0.798614 1.04395 -5.76859e-19)
(0.693135 0.990821 0)
(0.585345 0.932744 0)
(0.487875 0.87263 0)
(0.376645 0.783409 0)
(0.307555 0.760099 6.55445e-19)
(0.23659 1.25192 1.61634e-18)
(0.192324 2.51677 4.75326e-19)
(0.204449 3.09835 9.64622e-19)
(0.192597 3.26879 -7.41529e-19)
(0.156799 3.32162 2.63359e-19)
(0.13814 3.33283 0)
(0.420903 0.457314 1.35272e-19)
(0.909179 0.914975 -8.27824e-19)
(1.09661 1.11664 -2.24592e-19)
(1.11756 1.18586 -4.879e-20)
(1.08583 1.19801 2.3984e-20)
(1.02477 1.18196 -8.16979e-20)
(0.95436 1.15212 -3.15936e-21)
(0.879172 1.11243 -3.84712e-19)
(0.787445 1.06795 0)
(0.680636 1.01687 -7.83116e-20)
(0.567871 0.959352 7.12377e-20)
(0.462702 0.898313 0)
(0.369659 0.84415 0)
(0.300863 1.01368 -8.23056e-19)
(0.230238 1.96779 1.0644e-19)
(0.224181 2.99096 -3.64879e-19)
(0.251246 3.27285 7.79326e-19)
(0.230981 3.3539 5.86261e-19)
(0.178535 3.37399 -8.81786e-19)
(0.159609 3.38347 4.41796e-19)
(0.418043 0.46565 2.66536e-19)
(0.901695 0.930928 8.0779e-19)
(1.08601 1.13738 2.6902e-19)
(1.10664 1.20872 0)
(1.07545 1.2217 0)
(1.01496 1.20546 6.39677e-20)
(0.944727 1.17556 6.49807e-20)
(0.868632 1.13568 3.42853e-19)
(0.775705 1.09206 2.24292e-20)
(0.667241 1.04232 1.0022e-18)
(0.556964 0.990354 -1.18885e-18)
(0.450527 0.936542 0)
(0.376569 0.929902 0)
(0.318827 1.38018 -5.58344e-19)
(0.283212 2.63528 -6.80514e-19)
(0.321796 3.20693 0)
(0.33947 3.34099 -8.71117e-19)
(0.265752 3.39191 -1.1786e-20)
(0.200143 3.42527 5.85866e-19)
(0.176154 3.44252 -2.4865e-19)
(0.415288 0.474583 -5.06792e-19)
(0.89555 0.951568 -3.87945e-19)
(1.07581 1.16236 0)
(1.09533 1.23365 0)
(1.06473 1.24568 0)
(1.00497 1.22859 0)
(0.934815 1.19839 -7.69023e-20)
(0.85827 1.15977 2.94874e-19)
(0.764518 1.11767 0)
(0.656214 1.07068 -9.12337e-19)
(0.542541 1.01912 2.13134e-18)
(0.44235 0.974349 8.68058e-20)
(0.383076 1.07575 1.1441e-19)
(0.344535 1.90216 9.02499e-19)
(0.336363 2.97936 -4.97111e-19)
(0.374511 3.30764 0)
(0.348029 3.40474 2.58632e-19)
(0.267307 3.47662 7.23006e-20)
(0.219512 3.5182 4.58066e-20)
(0.184912 3.51174 9.64738e-20)
(0.411522 0.484527 2.40302e-19)
(0.886594 0.968563 -3.96307e-19)
(1.06387 1.18448 0)
(1.08337 1.25838 -7.21183e-20)
(1.05327 1.27152 2.49308e-19)
(0.993817 1.25405 0)
(0.923749 1.22354 0)
(0.846603 1.18445 -5.08245e-19)
(0.752547 1.14337 -5.80027e-20)
(0.643667 1.09781 8.92055e-19)
(0.530845 1.05046 -1.01417e-18)
(0.452426 1.03309 5.83724e-19)
(0.406588 1.31077 0)
(0.380471 2.34446 -4.77045e-19)
(0.401671 3.18925 3.10288e-19)
(0.449482 3.40087 2.15959e-19)
(0.421895 3.47624 0)
(0.364506 3.52624 1.86338e-20)
(0.316023 3.53816 -2.12955e-19)
(0.236362 3.47643 -3.61149e-20)
(0.408287 0.495211 -4.76572e-19)
(0.879806 0.992263 5.68275e-19)