/*--------------------------------*- C++ -*----------------------------------*\
  =========                 |
  \\      /  F ield         | OpenFOAM: The Open Source CFD Toolbox
   \\    /   O peration     | Website:  https://openfoam.org
    \\  /    A nd           | Version:  6
     \\/     M anipulation  |
\*---------------------------------------------------------------------------*/
FoamFile
{
    version     2.0;
    format      ascii;
    class       surfaceScalarField;
    location    "9";
    object      phi;
}
// * * * * * * * * * * * * * * * * * * * * * * * * * * * * * * * * * * * * * //

dimensions      [0 3 -1 0 0 0 0];

internalField   nonuniform List<scalar> 
17370
(
-0.0899708
0.0898052
0.289176
-0.0714165
0.0537295
0.364462
-0.0381778
0.0278875
0.426458
-0.019953
0.0149487
0.504256
-0.0110318
0.00839632
0.602038
-0.00619473
0.00470747
0.720545
-0.00350511
0.00268081
0.863731
-0.00198436
0.00147293
1.03596
-0.000999032
0.000625991
1.24288
-0.000269407
-4.42754e-05
1.4915
0.000359784
-0.000723059
1.49155
0.00109073
-0.00155122
1.24315
0.00204787
-0.00272897
1.03632
0.00354158
-0.00473366
0.864099
0.00621523
-0.00841729
0.72126
0.0110556
-0.0149758
0.603135
0.0199807
-0.027913
0.507372
0.0381996
-0.0537477
0.431716
0.0714315
-0.0898151
0.365159
0.0899766
0.199034
-0.128302
0.0885744
0.0397279
-0.364757
0.353737
-0.0742273
0.0852478
-0.44662
0.454621
-0.083619
0.0756179
-0.521173
0.530225
-0.0672528
0.0582013
-0.612576
0.621399
-0.0498178
0.0409948
-0.726888
0.733719
-0.0336679
0.026837
-0.867588
0.872308
-0.0216217
0.0169017
-1.03843
1.04169
-0.0133214
0.0100595
-1.24449
1.24679
-0.00758243
0.00528411
-1.49261
1.49452
-0.00340545
0.00149248
-1.49233
1.49407
0.00024974
-0.00198956
-1.24387
1.24573
0.00388301
-0.00574119
-1.03739
1.03984
0.00801684
-0.0104735
-0.866093
0.86964
0.0137087
-0.0172554
-0.724458
0.729634
0.0219294
-0.0271054
-0.608548
0.615853
0.0338982
-0.0412035
-0.514789
0.523159
0.0500078
-0.058377
-0.439961
0.448309
0.0674115
-0.0757595
-0.375436
0.377037
0.0837367
-0.0853384
-0.257548
0.223012
0.0742879
-0.0397514
-0.0690305
0.059582
0.0094485
-0.0497528
0.0558667
-0.374417
0.368303
-0.0548001
0.0511442
-0.453681
0.457337
-0.0465581
0.0428659
-0.528201
0.531893
-0.0391315
0.0354761
-0.621638
0.625294
-0.0312959
0.0271709
-0.734966
0.739091
-0.0226842
0.0186873
-0.873807
0.877804
-0.0146509
0.011237
-1.043
1.04641
-0.00792225
0.00514665
-1.24819
1.25096
-0.00229375
-0.000423636
-1.4964
1.49911
0.00310358
-0.00593232
-1.49692
1.49975
0.00867265
-0.0119384
-1.24963
1.2529
0.0152961
-0.0192722
-1.04546
1.04944
0.0232197
-0.0276564
-0.877277
0.881714
0.0317402
-0.0358713
-0.739847
0.743978
0.0394868
-0.0431708
-0.62709
0.630774
0.0468209
-0.0513713
-0.535161
0.539711
0.0549939
-0.0560244
-0.457711
0.458742
0.0498703
-0.0306581
-0.336548
0.317335
0.00946656
-0.0689642
0.0594976
-0.0543439
0.0508296
0.00351432
-0.0297167
0.0390851
-0.359884
0.350516
-0.0419638
0.0409571
-0.45952
0.460527
-0.0377048
0.0344661
-0.535366
0.538605
-0.0309773
0.0281439
-0.628072
0.630905
-0.0253403
0.022915
-0.741931
0.744356
-0.0202854
0.0178705
-0.880952
0.883367
-0.0151393
0.0124979
-1.0496
1.05224
-0.00937396
0.00634535
-1.25403
1.25706
-0.00280023
-0.000703537
-1.50235
1.50586
0.00418352
-0.00766323
-1.50305
1.50653
0.0106182
-0.0136521
-1.25626
1.25929
0.0162085
-0.018842
-1.05285
1.05548
0.0211608
-0.0236867
-0.884881
0.887407
0.0260316
-0.0287839
-0.746865
0.749617
0.0315599
-0.0349858
-0.634007
0.637433
0.0381693
-0.0413587
-0.543954
0.547144
0.0423034
-0.0393449
-0.457743
0.454784
0.0298914
-0.0142837
-0.299538
0.28393
0.00354284
-0.0542352
0.0506923
-0.0483226
0.0467862
0.00153639
-0.0152494
0.0232103
-0.341272
0.333311
-0.0281877
0.0295013
-0.460344
0.459031
-0.0289911
0.0275601
-0.541152
0.542583
-0.0258117
0.0241003
-0.633418
0.63513
-0.0221652
0.0202384
-0.746662
0.748589
-0.0179818
0.0158255
-0.885652
0.887809
-0.0132826
0.0108297
-1.05469
1.05715
-0.00800802
0.00531067
-1.25984
1.26254
-0.00220637
-0.000778308
-1.50911
1.5121
0.00376523
-0.00684517
-1.50977
1.51285
0.00949887
-0.0122483
-1.26205
1.2648
0.0146081
-0.017025
-1.05801
1.06042
0.0190636
-0.0212027
-0.889815
0.891954
0.0230169
-0.024842
-0.75219
0.754016
0.0264801
-0.0281318
-0.640311
0.641962
0.0294895
-0.0299163
-0.549083
0.54951
0.0285288
-0.0234622
-0.45034
0.445273
0.0154178
-0.00629052
-0.271278
0.26215
0.00156389
-0.0481601
0.0465962
-0.0461129
0.0458901
0.000222881
-0.00530635
0.010026
-0.327154
0.322434
-0.0145529
0.0171731
-0.456903
0.454283
-0.0187282
0.0193295
-0.542745
0.542144
-0.019654
0.0194352
-0.635919
0.636138
-0.0187222
0.0178539
-0.749913
0.750781
-0.0165345
0.0149857
-0.889677
0.891226
-0.0129512
0.0107727
-1.05948
1.06166
-0.00808304
0.00534934
-1.26526
1.26799
-0.00209896
-0.00109619
-1.51515
1.51835
0.00426615
-0.00742752
-1.51595
1.51911
0.0100397
-0.0125796
-1.26745
1.26999
0.0146192
-0.0165066
-1.06257
1.06446
0.0179288
-0.0191295
-0.893558
0.894759
0.019935
-0.0204878
-0.755114
0.755667
0.0205721
-0.0201289
-0.642316
0.641873
0.0194348
-0.0177736
-0.548648
0.546987
0.0150518
-0.0104014
-0.440322
0.435671
0.00556108
-0.00169917
-0.256238
0.252376
0.000266383
-0.0458853
0.0456189
-0.0457574
0.0456518
0.000105598
-0.0028495
0.00615899
-0.318548
0.315239
-0.0105173
0.0140903
-0.451203
0.44763
-0.0170014
0.0186419
-0.541079
0.539438
-0.0193423
0.0195751
-0.635875
0.635643
-0.0194844
0.0187346
-0.751664
0.752414
-0.0173544
0.0156995
-0.892766
0.894421
-0.0134827
0.0111491
-1.06384
1.06617
-0.00825369
0.00534444
-1.27077
1.27368
-0.00186737
-0.00155274
-1.52161
1.52503
0.00493204
-0.00830671
-1.52235
1.52572
0.0110884
-0.0138164
-1.27258
1.27531
0.0159814
-0.0180053
-1.06636
1.06838
0.0194829
-0.0206387
-0.895963
0.897119
0.0210975
-0.020982
-0.755842
0.755726
0.0206163
-0.0197447
-0.641146
0.640274
0.0179451
-0.0148657
-0.544657
0.541577
0.011136
-0.00660378
-0.431115
0.426583
0.00314213
-0.000926763
-0.249527
0.247312
0.000153473
-0.0454408
0.0452874
-0.0456125
0.0456151
-2.61943e-06
-0.00129827
0.0034402
-0.312511
0.310369
-0.00704481
0.0107505
-0.443791
0.440085
-0.0144218
0.0170519
-0.53718
0.53455
-0.0188252
0.019422
-0.635397
0.6348
-0.0193208
0.0187746
-0.753061
0.753607
-0.0176013
0.0160065
-0.896034
0.897628
-0.0137821
0.0113813
-1.06857
1.07097
-0.00837879
0.00531759
-1.27671
1.27978
-0.001614
-0.00210605
-1.52866
1.53238
0.0057875
-0.00936189
-1.52925
1.53283
0.0122281
-0.014963
-1.27808
1.28082
0.0170856
-0.0189754
-1.07034
1.07223
0.0202349
-0.0210561
-0.898124
0.898945
0.0213757
-0.0213078
-0.75579
0.755722
0.0204706
-0.0184544
-0.638812
0.636796
0.0156067
-0.0117082
-0.537881
0.533982
0.00780067
-0.00398407
-0.422272
0.418456
0.00165905
-0.000429589
-0.24565
0.244421
5.63019e-05
-0.0451957
0.0451394
-0.0456216
0.045635
-1.34666e-05
-0.000550394
0.00168658
-0.308765
0.307629
-0.0038844
0.00645455
-0.43686
0.43429
-0.00934037
0.0116398
-0.531924
0.529625
-0.0135078
0.01463
-0.633765
0.632642
-0.0151007
0.0148997
-0.754089
0.75429
-0.0141118
0.012954
-0.8991
0.900258
-0.0112187
0.00924521
-1.07321
1.07518
-0.00666903
0.00396814
-1.28271
1.28542
-0.000632317
-0.00271942
-1.536
1.53935
0.00601168
-0.00916541
-1.53627
1.53942
0.0116213
-0.0138603
-1.28336
1.2856
0.0154939
-0.0168453
-1.07393
1.07528
0.0176592
-0.0180881
-0.899711
0.90014
0.0179483
-0.0170688
-0.755185
0.754305
0.015613
-0.0134039
-0.634498
0.632289
0.0108191
-0.00764509
-0.530298
0.527124
0.00482842
-0.00237252
-0.415304
0.412848
0.00101005
-0.000306282
-0.243491
0.242787
6.23235e-05
-0.0450794
0.0450171
-0.0456668
0.0457137
-4.69556e-05
-4.6597e-05
0.000508539
-0.306877
0.306415
-0.00155002
0.00289855
-0.432375
0.431027
-0.00456088
0.00600056
-0.527745
0.526305
-0.00732382
0.00822178
-0.631592
0.630694
-0.00881089
0.00897227
-0.754252
0.754091
-0.00872664
0.00811971
-0.901115
0.901721
-0.00703026
0.00566416
-1.07686
1.07822
-0.00377302
0.00171843
-1.28781
1.28987
0.000847612
-0.00340233
-1.54233
1.54488
0.00586502
-0.00817377
-1.54218
1.54449
0.00989608
-0.0113637
-1.28747
1.28894
0.0123124
-0.0129127
-1.07625
1.07685
0.0130697
-0.0128271
-0.900178
0.899935
0.0122316
-0.0111835
-0.75328
0.752232
0.00989338
-0.00816823
-0.630287
0.628562
0.00638708
-0.00437601
-0.524549
0.522538
0.00272538
-0.00136207
-0.411006
0.409642
0.000614536
-0.000205933
-0.242259
0.24185
4.62232e-05
-0.0449641
0.0449178
-0.045771
0.0458367
-6.56464e-05
0.000210459
-0.000109595
-0.306154
0.306054
-0.000281695
0.000857381
-0.430123
0.429547
-0.00162289
0.0023301
-0.525266
0.524559
-0.00302683
0.00353575
-0.629988
0.629479
-0.00390913
0.00405076
-0.753909
0.753768
-0.00395358
0.00361278
-0.902159
0.9025
-0.00294067
0.00205158
-1.07932
1.08021
-0.000775892
-0.000640353
-1.29158
1.293
0.00242504
-0.00419381
-1.54702
1.54879
0.0058589
-0.00733466
-1.54636
1.54784
0.00836644
-0.00912077
-1.29002
1.29077
0.0094658
-0.00953384
-1.07715
1.07722
0.00931449
-0.00880914
-0.899524
0.899019
0.00813586
-0.00720609
-0.751227
0.750297
0.00621724
-0.00502927
-0.627124
0.625936
0.00390202
-0.00270582
-0.520991
0.519795
0.00175709
-0.000968061
-0.408622
0.407833
0.000500318
-0.000199427
-0.241512
0.241211
5.37709e-05
-0.04487
0.0448162
-0.0459107
0.0459922
-8.15397e-05
0.000397098
-0.000470309
-0.306058
0.306131
0.000432075
-0.00027727
-0.429213
0.429058
2.91422e-05
0.000211421
-0.524113
0.523873
-0.000448754
0.000612741
-0.629153
0.628989
-0.000706376
0.000689315
-0.753697
0.753714
-0.000530457
0.000235616
-0.902798
0.903093
0.000273299
-0.000915572
-1.08095
1.08159
0.00181588
-0.00279867
-1.29417
1.29515
0.00401678
-0.00518989
-1.55024
1.55141
0.00623988
-0.0070854
-1.54896
1.54981
0.00755481
-0.00778594
-1.29126
1.29149
0.00780141
-0.00756904
-1.07711
1.07688
0.00718085
-0.00660068
-0.898464
0.897884
0.00596285
-0.0051842
-0.749448
0.748669
0.00442927
-0.00358528
-0.624946
0.624102
0.00282764
-0.00204874
-0.518848
0.518069
0.00142817
-0.000881918
-0.407194
0.406647
0.00051356
-0.000230686
-0.240927
0.240644
6.89884e-05
-0.0447554
0.0446864
-0.0460827
0.0461827
-9.99693e-05
0.000546973
-0.000760351
-0.306279
0.306492
0.000914386
-0.00100091
-0.429038
0.429125
0.00105969
-0.00111126
-0.523794
0.523846
0.00118669
-0.00128729
-0.628966
0.629067
0.00144645
-0.00165039
-0.753825
0.754029
0.001954
-0.00231773
-0.903413
0.903776
0.00282343
-0.00338676
-1.08218
1.08274
0.004112
-0.00485333
-1.296
1.29674
0.00571611
-0.00648829
-1.55236
1.55314
0.00710537
-0.00751492
-1.55043
1.55084
0.00765579
-0.00758302
-1.29153
1.29146
0.00731337
-0.00687985
-1.07654
1.0761
0.0063822
-0.00575673
-0.897282
0.896657
0.00514137
-0.0044442
-0.747942
0.747245
0.00380574
-0.00312222
-0.623357
0.622673
0.00252641
-0.00191909
-0.517398
0.516791
0.00142189
-0.000951177
-0.406153
0.405683
0.000594051
-0.000283708
-0.240351
0.240041
8.90705e-05
-0.044608
0.0445189
-0.0462954
0.0464226
-0.000127182
0.000728814
-0.00105322
-0.306761
0.307085
0.0013678
-0.00162242
-0.429299
0.429554
0.00188915
-0.00214395
-0.524005
0.52426
0.0024488
-0.00275765
-0.629276
0.629585
0.00313543
-0.00352244
-0.754325
0.754712
0.00399846
-0.00448463
-0.904197
0.904683
0.00507521
-0.00566246
-1.08331
1.08389
0.00634543
-0.00697938
-1.29741
1.29804
0.0076415
-0.00815179
-1.55376
1.55427
0.00846757
-0.00854468
-1.55106
1.55114
0.00841013
-0.00809302
-1.29127
1.29096
0.00766049
-0.00708262
-1.0756
1.07502
0.00648993
-0.00580323
-0.896005
0.895318
0.00516324
-0.00446715
-0.746558
0.745862
0.00384919
-0.0032022
-0.622021
0.621374
0.0026453
-0.0020763
-0.516215
0.515646
0.00159695
-0.00111611
-0.405215
0.404734
0.000721826
-0.000354776
-0.239706
0.239339
0.000113836
-0.044418
0.0443042
-0.046566
0.0467273
-0.000161294
0.00094482
-0.00138892
-0.307468
0.307912
0.00185126
-0.0022565
-0.429884
0.430289
0.00270351
-0.00313435
-0.524604
0.525034
0.00364184
-0.00414089
-0.629989
0.630488
0.0047281
-0.00530205
-0.755191
0.755765
0.00597065
-0.00661368
-0.905243
0.905886
0.00734506
-0.00802296
-1.08452
1.0852
0.00875199
-0.00936983
-1.29866
1.29928
0.00993975
-0.0102913
-1.55469
1.55504
0.0103976
-0.0102352
-1.55109
1.55093
0.00988332
-0.00933581
-1.29052
1.28997
0.00873282
-0.00799247
-1.07436
1.07362
0.00727879
-0.00648307
-0.894584
0.893788
0.00576287
-0.00499646
-0.745139
0.744372
0.00432678
-0.00363327
-0.620712
0.620019
0.00303928
-0.00242989
-0.515064
0.514455
0.00190608
-0.0013615
-0.404227
0.403682
0.000895196
-0.000445736
-0.238933
0.238484
0.000144358
-0.0441759
0.0440316
-0.0469102
0.0471159
-0.000205719
0.00121677
-0.00180181
-0.308423
0.309008
0.00242781
-0.00299166
-0.43077
0.431334
0.00362379
-0.00423495
-0.525553
0.526164
0.0049508
-0.00564863
-0.631084
0.631782
0.00645968
-0.00723981
-0.756439
0.757219
0.00813031
-0.00896547
-0.906621
0.907456
0.00988628
-0.0107078
-1.08594
1.08676
0.0115493
-0.0122166
-1.29991
1.30058
0.012768
-0.0130257
-1.55534
1.5556
0.0129735
-0.0126032
-1.55066
1.55029
0.0120486
-0.0112745
-1.28931
1.28854
0.0104732
-0.0095342
-1.07279
1.07185
0.00865475
-0.0076942
-0.892917
0.891957
0.00683819
-0.00593739
-0.743547
0.742646
0.00515654
-0.00435216
-0.619277
0.618473
0.00366466
-0.00295727
-0.513804
0.513096
0.00234219
-0.00169025
-0.40309
0.402438
0.00111967
-0.000560557
-0.237983
0.237424
0.000182177
-0.0438694
0.0436872
-0.047351
0.0476151
-0.000264031
0.00156763
-0.0023284
-0.309674
0.310435
0.00315182
-0.00390172
-0.431982
0.432732
0.00474693
-0.00556423
-0.526871
0.527688
0.00651791
-0.00744371
-0.63259
0.633516
0.00851377
-0.00953611
-0.758116
0.759138
0.0106926
-0.0117646
-0.908404
0.909476
0.0129282
-0.0139452
-1.08767
1.08869
0.0149573
-0.0157258
-1.30129
1.30206
0.0163099
-0.0165103
-1.55583
1.55603
0.0163195
-0.0157394
-1.54982
1.54924
0.014966
-0.013937
-1.28764
1.28661
0.0128996
-0.0117095
-1.07079
1.0696
0.010611
-0.0094243
-0.89089
0.889704
0.00837517
-0.00727747
-0.741654
0.740557
0.0063297
-0.00535579
-0.617592
0.616618
0.00452401
-0.00366662
-0.512321
0.511464
0.00291666
-0.0021142
-0.401717
0.400914
0.0014047
-0.000704521
-0.236799
0.236099
0.000229135
-0.0434829
0.0432538
-0.0479196
0.0482612
-0.000341555
0.00202687
-0.00301361
-0.311298
0.312285
0.00408745
-0.00506937
-0.433579
0.434561
0.00617516
-0.00724173
-0.52862
0.529687
0.00848087
-0.00968055
-0.634577
0.635777
0.0110635
-0.0123812
-0.760306
0.761624
0.0138657
-0.0152334
-0.910687
0.912055
0.0167045
-0.0179742
-1.08982
1.09109
0.0192145
-0.0201291
-1.3029
1.30381
0.0207819
-0.0209405
-1.55621
1.55636
0.0206055
-0.0197885
-1.54854
1.54773
0.0187557
-0.0174186
-1.28544
1.2841
0.0160904
-0.0145829
-1.06826
1.06675
0.0132027
-0.0117206
-0.888377
0.886894
0.0104159
-0.00905485
-0.739335
0.737974
0.00788174
-0.0066771
-0.615538
0.614334
0.00564794
-0.00458554
-0.510515
0.509453
0.00365354
-0.00265234
-0.400021
0.39902
0.00176376
-0.000884725
-0.235315
0.234436
0.000287665
-0.0429977
0.0427101
-0.048657
0.0491049
-0.000447896
0.00264062
-0.00392442
-0.313399
0.314683
0.00532401
-0.00660053
-0.435654
0.436931
0.00802754
-0.00939684
-0.530903
0.532272
0.0109806
-0.012514
-0.63716
0.638694
0.0142833
-0.015971
-0.763128
0.764816
0.0178696
-0.0196125
-0.913593
0.915336
0.0214742
-0.023065
-1.09251
1.0941
0.024596
-0.0256985
-1.30481
1.30591
0.0264443
-0.0265586
-1.5565
1.55661
0.0260517
-0.0249463
-1.54677
1.54567
0.0235936
-0.0218724
-1.28258
1.28086
0.0201801
-0.0182727
-1.06505
1.06315
0.0165358
-0.014678
-0.885228
0.88337
0.0130473
-0.0113489
-0.736448
0.73475
0.00988546
-0.00838142
-0.612992
0.611488
0.00709409
-0.0057621
-0.508277
0.506945
0.00459154
-0.00333298
-0.397906
0.396647
0.00221615
-0.00111142
-0.233453
0.232348
0.000361541
-0.0423907
0.0420292
-0.0496197
0.050218
-0.00059826
0.00348012
-0.00515929
-0.316121
0.3178
0.0069801
-0.00861982
-0.438349
0.439988
0.0104274
-0.0121532
-0.533872
0.535598
0.0141503
-0.0160973
-0.640497
0.642444
0.0183595
-0.0205265
-0.76674
0.768907
0.0229639
-0.0251926
-0.917271
0.9195
0.0275535
-0.0295481
-1.09584
1.09783
0.0314385
-0.0327676
-1.3071
1.30843
0.0336181
-0.0336664
-1.55669
1.55674
0.0329363
-0.0314653
-1.54438
1.54291
0.0297101
-0.0275067
-1.2789
1.2767
0.0253581
-0.0229498
-1.06099
1.05858
0.0207668
-0.01844
-0.881269
0.878942
0.016403
-0.0142841
-0.732832
0.730713
0.0124578
-0.0105764
-0.60981
0.607929
0.00895944
-0.00727815
-0.505483
0.503802
0.00579623
-0.00420295
-0.395257
0.393663
0.00279352
-0.00140165
-0.231118
0.229726
0.000457432
-0.0416345
0.0411771
-0.0508912
0.0517015
-0.000810316
0.004637
-0.00683935
-0.319668
0.321871
0.00918957
-0.011261
-0.441864
0.443935
0.0135115
-0.0156625
-0.537738
0.539889
0.0181824
-0.0206799
-0.644791
0.647289
0.0236185
-0.0264344
-0.77134
0.774156
0.0295753
-0.0324151
-0.921907
0.924746
0.0353938
-0.0378772
-1.09996
1.10245
0.0401881
-0.0417665
-1.30982
1.3114
0.042707
-0.0426373
-1.5567
1.55663
0.0416021
-0.0396584
-1.5412
1.53926
0.037394
-0.0345869
-1.2742
1.27139
0.03187
-0.0288399
-1.05585
1.05282
0.0261047
-0.0232001
-0.876288
0.873383
0.0206656
-0.0180351
-0.728291
0.725661
0.0157676
-0.0134256
-0.605819
0.603477
0.0113993
-0.00927238
-0.501984
0.499857
0.00738261
-0.00534436
-0.391939
0.3899
0.0035496
-0.00178301
-0.228194
0.226427
0.00058584
-0.0406965
0.0401106
-0.0526006
0.0537096
-0.00110901
0.00624902
-0.00915346
-0.324333
0.327237
0.0121876
-0.0148048
-0.446465
0.449082
0.0176216
-0.0203359
-0.542761
0.545475
0.023579
-0.0268397
-0.6503
0.653561
0.0306869
-0.0343544
-0.777179
0.780847
0.038392
-0.0419837
-0.927717
0.931309
0.0456868
-0.0487137
-1.10502
1.10805
0.0514598
-0.0532619
-1.31298
1.31478
0.0542188
-0.0539271
-1.55639
1.5561
0.0524606
-0.049899
-1.53699
1.53443
0.0469924
-0.0434352
-1.2682
1.26464
0.0400177
-0.0362231
-1.04938
1.04558
0.0328093
-0.0291966
-0.870035
0.866422
0.0260563
-0.0228093
-0.722592
0.719345
0.0200166
-0.0171299
-0.600806
0.597919
0.0146144
-0.0119384
-0.497592
0.494916
0.00952199
-0.00688474
-0.387786
0.385149
0.00456541
-0.00229166
-0.224541
0.222267
0.000757318
-0.0395351
0.0387778
-0.0549438
0.0565148
-0.00157095
0.00868526
-0.0125995
-0.330514
0.334428
0.0165716
-0.0199252
-0.452501
0.455854
0.0235163
-0.0270307
-0.549285
0.552799
0.0313014
-0.0356028
-0.657383
0.661685
0.0406221
-0.0453099
-0.784609
0.789297
0.0503895
-0.0548199
-0.934955
0.939386
0.0592836
-0.0628381
-1.1111
1.11465
0.0659524
-0.0678754
-1.3165
1.31843
0.0686951
-0.0680089
-1.55554
1.55485
0.0659296
-0.0625642
-1.53143
1.52807
0.0588558
-0.0543803
-1.2606
1.25613
0.0501128
-0.0453924
-1.04128
1.03655
0.0411522
-0.0366712
-0.862227
0.857746
0.0327853
-0.0287827
-0.715465
0.711463
0.0253543
-0.0218219
-0.594514
0.590981
0.0187327
-0.0154096
-0.492065
0.488742
0.0123489
-0.00894129
-0.382573
0.379165
0.00591823
-0.0029551
-0.219974
0.217011
0.000972776
-0.0380899
0.0371172
-0.0582282
0.060616
-0.0023878
0.0127738
-0.018156
-0.338834
0.344217
0.0233316
-0.0276151
-0.460543
0.464827
0.0322452
-0.036888
-0.557833
0.562476
0.0425638
-0.0481991
-0.66652
0.672156
0.0546236
-0.0604632
-0.79401
0.79985
0.0666331
-0.0718831
-0.943806
0.949056
0.0770402
-0.0810156
-1.11815
1.12213
0.0843323
-0.0861825
-1.32014
1.32199
0.0866227
-0.0852991
-1.55376
1.55243
0.0823759
-0.0779878
-1.52415
1.51976
0.0733003
-0.0677325
-1.25108
1.24552
0.0624652
-0.0566573
-1.03123
1.02542
0.0514396
-0.0459158
-0.852563
0.847039
0.0411159
-0.0361713
-0.706617
0.701673
0.0319441
-0.0276031
-0.586655
0.582314
0.0238102
-0.0197227
-0.4851
0.481012
0.0159038
-0.0115777
-0.375963
0.371637
0.00766792
-0.00380341
-0.214215
0.21035
0.00123488
-0.0362711
0.0350363
-0.0630412
0.0669619
-0.00392071
0.0199122
-0.0274416
-0.35039
0.35792
0.0342797
-0.0398904
-0.471425
0.477036
0.0460385
-0.0522875
-0.569103
0.575352
0.0597798
-0.0669398
-0.67829
0.68545
0.0748069
-0.0817268
-0.805658
0.812578
0.0888241
-0.0946872
-0.954191
0.960054
0.100245
-0.104327
-1.12584
1.12992
0.107464
-0.108881
-1.32341
1.32483
0.108549
-0.106255
-1.55049
1.5482
0.102204
-0.0965539
-1.51468
1.50903
0.0907185
-0.083909
-1.2393
1.23249
0.0775269
-0.0705181
-1.01896
1.01195
0.0642211
-0.0575327
-0.840749
0.834061
0.0516933
-0.045651
-0.695736
0.689694
0.0404636
-0.035127
-0.576902
0.571565
0.0304716
-0.0254417
-0.476323
0.471293
0.0206428
-0.0151303
-0.367509
0.361997
0.0100486
-0.00496868
-0.206839
0.201759
0.00158882
-0.0339596
0.0323708
-0.0706153
0.0778571
-0.00724183
0.0336365
-0.0447482
-0.367225
0.378337
0.0539574
-0.0612176
-0.486347
0.493608
0.0692632
-0.0773689
-0.583862
0.591967
0.0867407
-0.0952571
-0.692955
0.701471
0.104201
-0.111761
-0.819316
0.826875
0.119229
-0.125123
-0.965547
0.971441
0.130409
-0.133961
-1.13342
1.13697
0.136258
-0.136659
-1.32549
1.3259
0.135003
-0.131285
-1.54501
1.5413
0.125755
-0.118594
-1.50251
1.49535
0.111452
-0.103301
-1.22494
1.21679
0.0957494
-0.087515
-1.00424
0.99601
0.080135
-0.072293
-0.826591
0.818749
0.0654251
-0.0582769
-0.682573
0.675424
0.0520982
-0.0457269
-0.56491
0.558539
0.040181
-0.0341269
-0.465269
0.459215
0.0281066
-0.0207759
-0.35657
0.349239
0.0137454
-0.00662885
-0.197133
0.190016
0.00200621
-0.0310043
0.0289981
-0.0850557
0.0881061
-0.00305041
0.0217971
-0.0312478
-0.392577
0.402028
0.0399706
-0.0477828
-0.50637
0.514182
0.057031
-0.0668215
-0.601851
0.611641
0.0776189
-0.087242
-0.709582
0.719205
0.0979406
-0.107386
-0.833676
0.843122
0.117195
-0.125609
-0.976424
0.984838
0.133982
-0.14069
-1.13948
1.14619
0.146667
-0.150579
-1.32517
1.32908
0.152674
-0.152082
-1.5364
1.53581
0.14867
-0.142819
-1.48714
1.48129
0.135904
-0.127072
-1.20782
1.19899
0.118383
-0.107891
-0.987071
0.976579
0.0981889
-0.0874297
-0.810149
0.79939
0.0777223
-0.0673189
-0.667206
0.656803
0.057876
-0.0482133
-0.550654
0.540992
0.0399501
-0.0306934
-0.451613
0.442356
0.0221623
-0.0133276
-0.342025
0.33319
0.00661041
-0.00187838
-0.183491
0.178759
-7.01755e-05
-0.026998
0.0270682
-0.0956302
0.0914833
0.00414692
-0.00143801
-0.00366396
-0.414846
0.419948
0.0106545
-0.0177164
-0.525955
0.533017
0.0266726
-0.0352355
-0.621566
0.630129
0.0449359
-0.0537601
-0.728806
0.73763
0.0631621
-0.0716731
-0.852159
0.86067
0.0805437
-0.0878798
-0.993027
1.00036
0.0953986
-0.10114
-1.1528
1.15854
0.106261
-0.109399
-1.33284
1.33598
0.110571
-0.109373
-1.53461
1.53341
0.105533
-0.0994548
-1.47487
1.4688
0.0923418
-0.0835681
-1.18989
1.18111
0.0751083
-0.0654272
-0.966063
0.956381
0.0563463
-0.0462519
-0.788212
0.778117
0.0371778
-0.0278199
-0.645092
0.635734
0.0197942
-0.0115481
-0.529155
0.520908
0.00447425
0.00225529
-0.430669
0.42394
-0.00683293
0.00946524
-0.322728
0.320096
-0.00919486
0.00619172
-0.171882
0.174885
-0.00272879
-0.0253527
0.0280815
-0.0936122
0.0895197
0.0040925
-0.00861443
0.0066465
-0.429498
0.431466
-0.00227785
-0.00347636
-0.542555
0.548309
0.0107353
-0.0179484
-0.638742
0.645955
0.0260815
-0.0335365
-0.745927
0.753383
0.0417222
-0.049023
-0.868551
0.875852
0.056432
-0.0629363
-1.00758
1.01408
0.069465
-0.0745749
-1.16398
1.16909
0.078795
-0.0812453
-1.33864
1.34109
0.0821879
-0.0808677
-1.53181
1.53049
0.0772211
-0.0717102
-1.46257
1.45706
0.0654609
-0.0580623
-1.17277
1.16537
0.0507321
-0.0427123
-0.947043
0.939024
0.0353434
-0.0273192
-0.768908
0.760884
0.020464
-0.0134569
-0.626512
0.619505
0.00771383
-0.00190044
-0.511673
0.505859
-0.00255778
0.00637049
-0.41539
0.411577
-0.00859636
0.00882706
-0.313317
0.313086
-0.00712964
0.00424646
-0.17271
0.175593
-0.00174903
-0.0280362
0.0297852
-0.090355
0.0866291
0.00372594
-0.0106783
0.0104887
-0.438621
0.438811
-0.00776511
0.00306507
-0.555471
0.560171
0.00312962
-0.00901987
-0.652796
0.658686
0.0158069
-0.0220536
-0.760514
0.766761
0.0288929
-0.0350226
-0.882694
0.888824
0.0416433
-0.0471362
-1.02021
1.02571
0.0528846
-0.0570142
-1.17393
1.17806
0.0607772
-0.0630085
-1.34353
1.34576
0.0638084
-0.0624763
-1.52911
1.52777
0.0594744
-0.0549382
-1.45154
1.44701
0.0497637
-0.0434037
-1.15837
1.15201
0.0374896
-0.0311359
-0.931443
0.92509
0.0252386
-0.0191933
-0.753634
0.747589
0.0137409
-0.00841344
-0.612498
0.607171
0.0040726
-5.78577e-05
-0.499273
0.495259
-0.00282856
0.00518352
-0.405282
0.402927
-0.00642014
0.00595701
-0.308099
0.308562
-0.00462525
0.00272469
-0.173654
0.175554
-0.00116678
-0.029217
0.0303838
-0.0874743
0.0844859
0.00298846
-0.0103266
0.0112039
-0.444381
0.443504
-0.009088
0.00539451
-0.566086
0.569779
-0.000465072
-0.00469202
-0.66449
0.669647
0.0102813
-0.0156928
-0.772612
0.778024
0.0215209
-0.0267768
-0.894592
0.899848
0.0324285
-0.0373154
-1.0311
1.03599
0.0422112
-0.046097
-1.18216
1.18604
0.0494696
-0.0515135
-1.34784
1.34988
0.0523426
-0.0513023
-1.52657
1.52553
0.0488476
-0.0449068
-1.44226
1.43832
0.0405741
-0.0353892
-1.14609
1.14091
0.0304844
-0.0251285
-0.918963
0.913607
0.0203763
-0.015428
-0.741776
0.736828
0.0111833
-0.00696391
-0.601931
0.597712
0.00364261
-0.000629298
-0.490309
0.487296
-0.00165783
0.00338498
-0.398281
0.396553
-0.00412421
0.00402977
-0.304412
0.304506
-0.00330985
0.00191873
-0.173018
0.17441
-0.00090785
-0.0294968
0.0304047
-0.0853286
0.0829332
0.00239545
-0.00905647
0.0100261
-0.448055
0.447085
-0.00889229
0.00577905
-0.574272
0.577385
-0.00126518
-0.00300663
-0.674274
0.678546
0.007714
-0.0123283
-0.7829
0.787514
0.0174121
-0.0220445
-0.904834
0.909466
0.0271656
-0.0314314
-1.04063
1.0449
0.0358857
-0.0394838
-1.18974
1.19334
0.0426284
-0.0446015
-1.35185
1.35382
0.0454981
-0.0450481
-1.52464
1.52419
0.0429761
-0.0397461
-1.43427
1.43104
0.0359825
-0.0314715
-1.13586
1.13135
0.0274268
-0.0226862
-0.908447
0.903707
0.0185427
-0.0143759
-0.732067
0.7279
0.0107389
-0.00710961
-0.593581
0.589951
0.00419392
-0.00136534
-0.483368
0.48054
-0.000469486
0.00198309
-0.392709
0.391195
-0.00294775
0.00300369
-0.300715
0.300659
-0.0024797
0.00151988
-0.171653
0.172613
-0.000728953
-0.0293829
0.0301118
-0.0839078
0.0821126
0.0017952
-0.00732519
0.00836424
-0.450701
0.449662
-0.00731732
0.00491379
-0.581397
0.5838
-0.000955269
-0.00278436
-0.682605
0.686344
0.00716462
-0.0110501
-0.791924
0.795809
0.0154359
-0.0194856
-0.914129
0.918179
0.024301
-0.0281658
-1.04923
1.05309
0.0321528
-0.0356211
-1.19682
1.20028
0.0390181
-0.0409962
-1.35592
1.3579
0.0421672
-0.0419106
-1.52354
1.52328
0.0404891
-0.0374809
-1.42779
1.42478
0.0343034
-0.0304117
-1.12687
1.12298
0.02667
-0.0225559
-0.89916
0.895046
0.0187631
-0.0147898
-0.723609
0.719636
0.0116667
-0.00822714
-0.586188
0.582749
0.0053803
-0.00284337
-0.477071
0.474534
0.000919289
0.000765552
-0.387846
0.386161
-0.00170771
0.00196979
-0.297311
0.297049
-0.00171856
0.00112317
-0.16997
0.170565
-0.000582158
-0.0290505
0.0296326
-0.0832006
0.0818155
0.00138504
-0.00569933
0.00669721
-0.452795
0.451797
-0.0056274
0.00339203
-0.587473
0.589708
7.99777e-05
-0.00331643
-0.689912
0.693148
0.00696524
-0.010642
-0.799776
0.803453
0.0146108
-0.0187366
-0.922096
0.926221
0.0228207
-0.0264977
-1.05708
1.06076
0.0306073
-0.0338804
-1.20369
1.20696
0.0368924
-0.0393664
-1.35986
1.36234
0.0408687
-0.04105
-1.5232
1.52338
0.0399252
-0.0375675
-1.42206
1.4197
0.0347352
-0.0311481
-1.11885
1.11527
0.0277248
-0.0238221
-0.890851
0.886948
0.0202251
-0.0165676
-0.715728
0.71207
0.0132605
-0.00997374
-0.579145
0.575858
0.00726836
-0.00453346
-0.471325
0.46859
0.00244215
-0.000873378
-0.382941
0.381372
-0.000259672
0.000868573
-0.29379
0.293181
-0.000998623
0.000748774
-0.167996
0.168245
-0.000461613
-0.0285625
0.0290241
-0.0831264
0.0819543
0.00117214
-0.00410419
0.0047565
-0.454791
0.454139
-0.00385016
0.00174569
-0.592886
0.59499
0.00124621
-0.00426707
-0.696516
0.699537
0.00767365
-0.0109181
-0.807028
0.810272
0.0149524
-0.0182948
-0.929843
0.933185
0.0223211
-0.0258054
-1.06463
1.06811
0.0298036
-0.0332775
-1.21027
1.21375
0.0366115
-0.0389519
-1.36466
1.367
0.0408878
-0.0415595
-1.52357
1.52425
0.0411231
-0.0390654
-1.41728
1.41522
0.036586
-0.033239
-1.11176
1.10841
0.0299997
-0.0261492
-0.882812
0.878961
0.0226965
-0.0189328
-0.708158
0.704395
0.0156165
-0.0122102
-0.572336
0.56893
0.00930013
-0.00663968
-0.465382
0.462722
0.00434061
-0.00251952
-0.378012
0.376191
0.00108115
-0.000212583
-0.289994
0.289126
-0.000217746
0.000444231
-0.165586
0.165359
-0.000342008
-0.0278835
0.0282255
-0.0833356
0.0824652
0.000870412
-0.00286199
0.00296298
-0.457008
0.456907
-0.00223682
0.000233553
-0.597457
0.599461
0.00230629
-0.00512804
-0.702463
0.705285
0.00830495
-0.0116183
-0.813464
0.816777
0.0150185
-0.0184749
-0.936748
0.940204
0.0224333
-0.0256997
-1.07204
1.0753
0.0297739
-0.0332107
-1.21709
1.22053
0.0366415
-0.0395429
-1.36981
1.37272
0.0420304
-0.0430799
-1.52503
1.52608
0.0429567
-0.0415921
-1.41337
1.412
0.0395511
-0.0363758
-1.1049
1.10173
0.0331482
-0.0295143
-0.874965
0.871331
0.025703
-0.0220036
-0.700332
0.696633
0.0185897
-0.0149659
-0.565473
0.561849
0.0120346
-0.00903915
-0.459256
0.456261
0.00660119
-0.00431085
-0.373035
0.370745
0.00270733
-0.00147055
-0.285869
0.284632
0.000542607
8.79882e-05
-0.162722
0.162091
-0.000249169
-0.02697
0.0272192
-0.0838959
0.0831519
0.000744086
-0.00193966
0.00202743
-0.459458
0.45937
-0.000775629
-0.000866699
-0.601968
0.603611
0.00344229
-0.00606778
-0.707794
0.710419
0.00904077
-0.0119324
-0.819835
0.822727
0.0154011
-0.0185162
-0.943675
0.94679
0.0223779
-0.0260255
-1.07902
1.08267
0.0297419
-0.0334999
-1.22408
1.22784
0.0373588
-0.0404086
-1.37562
1.37867
0.0433574
-0.0452619
-1.52745
1.52935
0.0456599
-0.0449561
-1.41055
1.40985
0.043095
-0.0402316
-1.09855
1.09569
0.0371973
-0.0334435
-0.867242
0.863488
0.029705
-0.0257846
-0.692374
0.688453
0.0222088
-0.0183097
-0.557986
0.554087
0.0150446
-0.0118517
-0.45276
0.449567
0.00899087
-0.00639872
-0.367441
0.364849
0.00442242
-0.00275006
-0.2812
0.279528
0.0014746
-0.00038272
-0.159376
0.158284
-0.000107789
-0.0258836
0.0259914
-0.0846442
0.0840383
0.000605929
-0.00100433
0.000865186
-0.462022
0.462162
0.000190298
-0.00194242
-0.605948
0.6077
0.00433776
-0.00674767
-0.71276
0.71517
0.00974168
-0.0124451
-0.825629
0.828332
0.0157157
-0.0188967
-0.950354
0.953535
0.0226156
-0.0261865
-1.08619
1.08976
0.0300802
-0.0338601
-1.23157
1.23535
0.03793
-0.041761
-1.38213
1.38596
0.0452371
-0.0475624
-1.53137
1.53369
0.0487694
-0.0484942
-1.40911
1.40883
0.0472197
-0.0448351
-1.09277
1.09039
0.0417542
-0.0380122
-0.859417
0.855675
0.0342118
-0.0299803
-0.684083
0.679852