/*--------------------------------*- C++ -*----------------------------------*\
  =========                 |
  \\      /  F ield         | OpenFOAM: The Open Source CFD Toolbox
   \\    /   O peration     | Website:  https://openfoam.org
    \\  /    A nd           | Version:  6
     \\/     M anipulation  |
\*---------------------------------------------------------------------------*/
FoamFile
{
    version     2.0;
    format      ascii;
    class       volScalarField;
    location    "96.5";
    object      p;
}
// * * * * * * * * * * * * * * * * * * * * * * * * * * * * * * * * * * * * * //

dimensions      [0 2 -2 0 0 0 0];

internalField   nonuniform List<scalar> 
8800
(
0.878536
0.829222
0.791259
0.763192
0.743035
0.728454
0.717864
0.710336
0.705467
0.703419
0.704813
0.709176
0.715985
0.725422
0.738168
0.755495
0.779377
0.812477
0.855417
0.907931
0.713024
0.71937
0.728522
0.732073
0.729468
0.723385
0.716451
0.71022
0.705433
0.702583
0.702377
0.705028
0.70969
0.715833
0.722944
0.729986
0.734871
0.734751
0.72808
0.719185
0.686528
0.692765
0.697268
0.701143
0.704097
0.705053
0.703974
0.701867
0.699905
0.69909
0.700151
0.702629
0.705535
0.70782
0.708353
0.706574
0.703215
0.699207
0.69443
0.690714
0.68221
0.684976
0.687586
0.689749
0.691493
0.69307
0.694185
0.694554
0.694462
0.694589
0.695427
0.696599
0.697365
0.697233
0.696273
0.69493
0.69327
0.690975
0.688569
0.687003
0.677129
0.678555
0.680399
0.682486
0.684207
0.68551
0.686623
0.687622
0.688458
0.68923
0.68998
0.690476
0.69053
0.69019
0.689541
0.688441
0.686797
0.684912
0.683564
0.682761
0.672107
0.673011
0.674262
0.675897
0.6776
0.679146
0.680448
0.681595
0.682692
0.683753
0.684587
0.685021
0.685068
0.684731
0.683952
0.682783
0.681438
0.680184
0.679369
0.678844
0.667158
0.667815
0.668781
0.670108
0.671568
0.673102
0.674609
0.676004
0.677307
0.678565
0.679577
0.680127
0.680192
0.679795
0.679045
0.678128
0.677158
0.676268
0.675694
0.675309
0.662279
0.662784
0.663576
0.664728
0.666044
0.667483
0.66902
0.670598
0.67216
0.673682
0.674913
0.675593
0.675732
0.675461
0.674938
0.674282
0.673573
0.672928
0.672508
0.672208
0.657412
0.657813
0.65848
0.659515
0.660765
0.662157
0.663696
0.665383
0.667176
0.669003
0.670514
0.671409
0.671762
0.671737
0.671469
0.671045
0.67055
0.670105
0.669798
0.669553
0.652474
0.652801
0.653382
0.654342
0.655553
0.656941
0.658527
0.66033
0.66234
0.664494
0.666369
0.667601
0.668267
0.66853
0.668519
0.66834
0.668053
0.667775
0.667553
0.667347
0.647374
0.647645
0.648168
0.649086
0.650288
0.651715
0.653392
0.655357
0.657626
0.660162
0.662493
0.664157
0.665202
0.665792
0.666064
0.666134
0.666059
0.665932
0.665779
0.6656
0.642018
0.642246
0.642732
0.64364
0.644874
0.646382
0.648195
0.650381
0.652984
0.655994
0.65888
0.661061
0.662549
0.663517
0.664109
0.664434
0.664585
0.6646
0.664504
0.664344
0.636308
0.636502
0.636971
0.637898
0.639205
0.64084
0.642848
0.645326
0.648352
0.651949
0.655508
0.658305
0.660314
0.661717
0.662674
0.663302
0.663679
0.663826
0.663779
0.66363
0.630134
0.630301
0.630769
0.631744
0.633166
0.634982
0.637252
0.640107
0.643663
0.647981
0.652354
0.655888
0.658515
0.660426
0.661803
0.66277
0.663393
0.663674
0.663668
0.663526
0.623367
0.623511
0.623994
0.625045
0.626628
0.628685
0.631297
0.63463
0.638843
0.64404
0.649396
0.653814
0.657174
0.659684
0.661541
0.662897
0.6638
0.664218
0.66425
0.66411
0.615856
0.615975
0.616488
0.617646
0.619441
0.621811
0.624858
0.628789
0.633813
0.640079
0.646619
0.652089
0.656317
0.659535
0.661967
0.663773
0.664989
0.665551
0.665617
0.665475
0.607406
0.607509
0.608056
0.609355
0.611422
0.614188
0.617781
0.622458
0.628479
0.636046
0.644005
0.650728
0.655979
0.66003
0.663153
0.665487
0.667054
0.667767
0.667864
0.667716
0.597729
0.597833
0.598449
0.599922
0.602342
0.605608
0.609886
0.615489
0.622739
0.631885
0.641541
0.649745
0.656204
0.661237
0.665169
0.668123
0.670088
0.670958
0.671081
0.670922
0.586531
0.586612
0.587313
0.589042
0.591907
0.595809
0.600951
0.607713
0.616477
0.627538
0.639218
0.64916
0.657034
0.66322
0.668086
0.67177
0.674174
0.6752
0.675342
0.675169
0.573388
0.573457
0.574269
0.576311
0.579742
0.584462
0.590706
0.598928
0.609569
0.622953
0.637033
0.649002
0.658505
0.66603
0.671984
0.676492
0.679365
0.680539
0.680688
0.680499
0.557702
0.557762
0.558727
0.561191
0.565368
0.571154
0.578827
0.588912
0.601895
0.618093
0.634996
0.649299
0.660659
0.669708
0.676895
0.682318
0.685672
0.686966
0.687107
0.686898
0.538636
0.538692
0.539881
0.54294
0.548134
0.555361
0.564929
0.577433
0.593358
0.612955
0.633137
0.650084
0.663528
0.674278
0.682817
0.689229
0.693028
0.694392
0.694506
0.694277
0.514954
0.515016
0.516559
0.520514
0.527173
0.536421
0.548592
0.564292
0.583922
0.607591
0.631524
0.6514
0.667127
0.679733
0.689725
0.697124
0.701274
0.702629
0.702692
0.702446
0.484726
0.484818
0.486977
0.492389
0.501348
0.513581
0.529438
0.549396
0.573662
0.60213
0.630267
0.653312
0.671468
0.686021
0.697533
0.705813
0.710132
0.711374
0.711365
0.711109
0.444677
0.444909
0.448343
0.45645
0.469302
0.486187
0.507314
0.532882
0.562815
0.596791
0.629519
0.655905
0.676557
0.693089
0.706074
0.714995
0.719214
0.720226
0.720134
0.71988
0.388573
0.389752
0.396626
0.410364
0.430033
0.454126
0.482569
0.515222
0.551807
0.591877
0.629451
0.659264
0.682401
0.700835
0.715103
0.724274
0.728049
0.728745
0.72858
0.728338
0.307374
0.315353
0.331205
0.355293
0.385165
0.418911
0.456247
0.496988
0.540885
0.587518
0.630248
0.663724
0.689552
0.710011
0.725233
0.734217
0.737333
0.737712
0.737508
0.737309
0.220786
0.238299
0.264056
0.299263
0.339894
0.383405
0.429604
0.478488
0.529915
0.583564
0.6321
0.669842
0.698893
0.72155
0.737522
0.745594
0.747738
0.747835
0.747665
0.747543
0.146414
0.167848
0.201872
0.246592
0.296741
0.349447
0.404262
0.461118
0.519845
0.580128
0.633975
0.675506
0.707313
0.731675
0.747716
0.754612
0.756039
0.75604
0.755911
0.755825
0.0852794
0.1091
0.148797
0.200345
0.257911
0.318272
0.380655
0.444778
0.510273
0.576708
0.635408
0.680302
0.71443
0.740054
0.75594
0.762039
0.763118
0.763084
0.762977
0.762903
0.0344635
0.0597252
0.103523
0.160364
0.223849
0.290471
0.359256
0.429739
0.501324
0.573379
0.636515
0.684443
0.720612
0.747262
0.762968
0.768472
0.76935
0.769298
0.769201
0.769128
-0.00863816
0.0174674
0.0642925
0.125409
0.193852
0.265797
0.340094
0.416165
0.493216
0.570399
0.637591
0.688253
0.726195
0.753641
0.769093
0.774159
0.774927
0.774873
0.774782
0.774704
-0.0461053
-0.0194562
0.0297231
0.0943826
0.167058
0.243644
0.322831
0.403934
0.485989
0.567914
0.638851
0.691958
0.731378
0.759365
0.774513
0.77926
0.779982
0.779948
0.77987
0.779786
-0.0794596
-0.0523996
-0.00129351
0.0663873
0.142742
0.22342
0.307022
0.392753
0.479487
0.565909
0.640373
0.695722
0.736385
0.764697
0.779489
0.783984
0.784701
0.784716
0.784671
0.784584
-0.109766
-0.0823461
-0.0296127
0.0407104
0.120319
0.204649
0.292266
0.382301
0.473487
0.564266
0.642174
0.69966
0.741438
0.76994
0.784354
0.788637
0.789369
0.789457
0.789465
0.789382
-0.137874
-0.110086
-0.0559018
0.0168123
0.0993214
0.186943
0.278234
0.372301
0.467767
0.562846
0.644234
0.703875
0.746747
0.775412
0.789471
0.793564
0.794305
0.794469
0.794538
0.794468
-0.164219
-0.1361
-0.0805926
-0.00573551
0.0793868
0.169996
0.264672
0.362523
0.46213
0.561523
0.646524
0.708437
0.752474
0.781335
0.795109
0.799024
0.799753
0.799967
0.800089
0.800035
-0.189324
-0.160796
-0.104065
-0.027252
0.0602357
0.153563
0.251373
0.352786
0.456399
0.56016
0.648981
0.713371
0.758671
0.787823
0.801345
0.805096
0.805775
0.806004
0.806159
0.806122
-0.213363
-0.184424
-0.126547
-0.0479582
0.0416673
0.137477
0.238179
0.342944
0.450425
0.558609
0.651523
0.718664
0.765362
0.794827
0.808123
0.81169
0.812283
0.812489
0.81265
0.812628
-0.236523
-0.207154
-0.148213
-0.0680018
0.0235582
0.121622
0.224978
0.332875
0.444078
0.556707
0.654013
0.724268
0.772525
0.802275
0.81528
0.8186
0.819072
0.819226
0.819373
0.819368
-0.258943
-0.229106
-0.169162
-0.0874698
0.00581837
0.105925
0.211706
0.322504
0.437248
0.554298
0.656286
0.730126
0.780204
0.810141
0.822637
0.825574
0.825898
0.825986
0.826104
0.826114
-0.280727
-0.250376
-0.189441
-0.106411
-0.0115808
0.0903468
0.198328
0.311786
0.429854
0.551234
0.658162
0.736134
0.788464
0.818525
0.830099
0.832392
0.832516
0.832571
0.832659
0.832661
-0.301783
-0.270948
-0.209069
-0.124859
-0.0286591
0.0748948
0.184834
0.300712
0.421855
0.547408
0.659438
0.74214
0.797376
0.827708
0.837906
0.838964
0.838695
0.838813
0.838986
0.83897
-0.322123
-0.290827
-0.228074
-0.142816
-0.0454057
0.0595793
0.171259
0.289286
0.413243
0.542728
0.659923
0.747932
0.806948
0.83813
0.846702
0.845723
0.844434
0.844673
0.845322
0.845469
-0.341829
-0.310013
-0.246469
-0.160279
-0.0617931
0.0444427
0.157642
0.277554
0.404028
0.537145
0.65942
0.753243
0.817032
0.850108
0.857568
0.854033
0.850662
0.850675
0.852438
0.853549
-0.360785
-0.3285
-0.264224
-0.177211
-0.0777932
0.0295383
0.144047
0.265578
0.394261
0.530659
0.65776
0.757747
0.827289
0.863592
0.871331
0.865961
0.859885
0.857886
0.85922
0.860424
-0.379086
-0.346324
-0.281359
-0.193661
-0.0934563
0.0148139
0.130407
0.253288
0.383858
0.523179
0.65475
0.761134
0.83743
0.87825
0.888065
0.882714
0.874391
0.866658
0.858362
0.861124
-0.396681
-0.363548
-0.298021
-0.209825
-0.109075
-4.92783e-05
0.116329
0.240231
0.372322
0.514152
0.649845
0.762803
0.847293
0.894005
0.907129
0.903622
0.89257
0.87746
0.85524
0.857551
-0.413458
-0.380167
-0.314066
-0.225528
-0.124402
-0.0147686
0.101985
0.226687
0.359881
0.503698
0.642851
0.761657
0.855444
0.909153
0.924328
0.92112
0.907415
0.875818
0.819653
0.796337
-0.429322
-0.397195
-0.3291
-0.240341
-0.138638
-0.0288575
0.0876562
0.212928
0.346801
0.491952
0.633706
0.75686
0.860124
0.921738
0.933805
0.924758
0.898128
0.839703
0.777045
0.739286
-0.471106
-0.413998
-0.342826
-0.255223
-0.152553
-0.0433188
0.0734886
0.198815
0.332844
0.478496
0.621824
0.747437
0.857325
0.926101
0.931025
0.900992
0.838487
0.764964
0.693454
0.653947
-0.444782
-0.426011
-0.363641
-0.275393
-0.174183
-0.0650837
0.0511804
0.176145
0.309779
0.454978
0.598381
0.724375
0.828237
0.904431
0.874121
0.748221
0.647043
0.576772
0.508641
0.530092
-0.474557
-0.442682
-0.379432
-0.291622
-0.190773
-0.0817704
0.0347939
0.15927
0.292163
0.43609
0.577591
0.700602
0.793268
0.835723
0.76822
0.614246
0.495198
0.41486
0.328811
0.368205
-0.497328
-0.463155
-0.398218
-0.310357
-0.209549
-0.100512
0.0160209
0.13983
0.271557
0.413395
0.55138
0.668391
0.748791
0.753131
0.630464
0.463759
0.326136
0.226951
0.128082
0.153714
-0.51932
-0.484183
-0.417953
-0.329473
-0.228592
-0.119649
-0.00358798
0.119336
0.249586
0.388761
0.521876
0.629435
0.692183
0.662473
0.489432
0.303263
0.136817
-0.00195283
-0.12974
-0.123151
-0.540933
-0.50549
-0.438427
-0.349407
-0.248415
-0.139693
-0.0242843
0.0975502
0.225945
0.361878
0.488901
0.586563
0.627794
0.547598
0.350041
0.145559
-0.0458947
-0.203199
-0.409507
-0.489768
-0.562859
-0.527554
-0.460042
-0.370669
-0.269566
-0.161055
-0.0462708
0.0743806
0.200696
0.332941
0.45306
0.541167
0.553555
0.422289
0.222223
0.00726929
-0.188409
-0.351541
-0.475196
-0.589575
-0.58616
-0.550853
-0.483151
-0.393644
-0.292583
-0.18441
-0.0703836
0.0488514
0.172647
0.300464
0.412939
0.487489
0.470408
0.303066
0.102246
-0.106269
-0.285192
-0.383831
-0.409843
-0.423006
-0.610973
-0.57568
-0.507882
-0.418419
-0.317611
-0.209984
-0.0970054
0.0204356
0.14116
0.263629
0.36784
0.423047
0.38529
0.188315
-0.0100871
-0.198183
-0.333549
-0.372043
-0.380595
-0.380932
-0.637588
-0.602164
-0.534276
-0.444981
-0.344602
-0.237791
-0.126174
-0.0109412
0.106144
0.222424
0.317525
0.354729
0.28197
0.0829344
-0.108621
-0.272061
-0.348141
-0.362275
-0.363315
-0.363187
-0.666009
-0.63034
-0.562361
-0.473338
-0.373582
-0.267836
-0.157913
-0.0453139
0.067603
0.176974
0.261676
0.282395
0.170355
-0.01319
-0.193671
-0.323028
-0.352441
-0.353128
-0.353734
-0.353342
-0.695989
-0.660054
-0.592046
-0.503419
-0.404478
-0.30008
-0.192215
-0.0826752
0.0255886
0.127411
0.201527
0.202236
0.0718984
-0.100913
-0.260258
-0.33475
-0.349659
-0.347878
-0.347633
-0.347269
-0.726979
-0.690959
-0.623073
-0.535001
-0.437113
-0.334377
-0.228939
-0.122914
-0.0196764
0.0741943
0.137487
0.121634
-0.0179915
-0.177652
-0.305257
-0.343963
-0.343329
-0.343462
-0.343201
-0.342902
-0.758536
-0.722528
-0.654961
-0.567673
-0.471139
-0.370407
-0.267806
-0.165753
-0.0678956
0.0183159
0.0684626
0.0457717
-0.098402
-0.238301
-0.33223
-0.340272
-0.341085
-0.341068
-0.34083
-0.340573
-0.789687
-0.753896
-0.686991
-0.600806
-0.506008
-0.407694
-0.308347
-0.210694
-0.118636
-0.03932
-0.000350924
-0.0299607
-0.166462
-0.280892
-0.338159
-0.347782
-0.341727
-0.340399
-0.339862
-0.339567
-0.818747
-0.78379
-0.718128
-0.633516
-0.540939
-0.445526
-0.349884
-0.25699
-0.171093
-0.0982842
-0.0641259
-0.10749
-0.221053
-0.313471
-0.336105
-0.339248
-0.339978
-0.339446
-0.33912
-0.338935
-0.844512
-0.81071
-0.746982
-0.664605
-0.574872
-0.482956
-0.39153
-0.303703
-0.223991
-0.158041
-0.125983
-0.174126
-0.261739
-0.332016
-0.35287
-0.342411
-0.338973
-0.337908
-0.337637
-0.337532
-0.864348
-0.832564
-0.771802
-0.692554
-0.606492
-0.518793
-0.432171
-0.349741
-0.276042
-0.216809
-0.187378
-0.22623
-0.28787
-0.333932
-0.339444
-0.338743
-0.33695
-0.336475
-0.336393
-0.336272
-0.876235
-0.847263
-0.790528
-0.715627
-0.634272
-0.551652
-0.47048
-0.393849
-0.326158
-0.271892
-0.243419
-0.269597
-0.302543
-0.329032
-0.329782
-0.334468
-0.33665
-0.337047
-0.337098
-0.337014
-0.877493
-0.852446
-0.801075
-0.731985
-0.656581
-0.580071
-0.505021
-0.434569
-0.373061
-0.322586
-0.290409
-0.308573
-0.316141
-0.327387
-0.333649
-0.336807
-0.338894
-0.339568
-0.33974
-0.339764
-0.865774
-0.845497
-0.801317
-0.739896
-0.671958
-0.602666
-0.534485
-0.470363
-0.414954
-0.370233
-0.3261
-0.34464
-0.335773
-0.341378
-0.345305
-0.344465
-0.343929
-0.343856
-0.34388
-0.34392
-0.838904
-0.824092
-0.789426
-0.738145
-0.679356
-0.618451
-0.557849
-0.500096
-0.450161
-0.413079
-0.365557
-0.366254
-0.366481
-0.379979
-0.364436
-0.355013
-0.349618
-0.347946
-0.347599
-0.347489
-0.800341
-0.790903
-0.766612
-0.727021
-0.678804
-0.627197
-0.574509
-0.523286
-0.478054
-0.446562
-0.415668
-0.388088
-0.365411
-0.378725
-0.377466
-0.362359
-0.352764
-0.350482
-0.350643
-0.350529
-0.75712
-0.751739
-0.737799
-0.709618
-0.672408
-0.629728
-0.584665
-0.539513
-0.498287
-0.467657
-0.438972
-0.404745
-0.351665
-0.30873
-0.298084
-0.317229
-0.345937
-0.363631
-0.369074
-0.369687
-0.719051
-0.715764
-0.709123
-0.691243
-0.663024
-0.627916
-0.589258
-0.548818
-0.509435
-0.477123
-0.450664
-0.423438
-0.403494
-0.38724
-0.407344
-0.457022
-0.474031
-0.460849
-0.450597
-0.454048
-0.691631
-0.68968
-0.686298
-0.675745
-0.654328
-0.624833
-0.590276
-0.552081
-0.512574
-0.47693
-0.448817
-0.445663
-0.507988
-0.629442
-0.743323
-0.783619
-0.769005
-0.715615
-0.653565
-0.632474
-0.671537
-0.670846
-0.6697
-0.664488
-0.648851
-0.62303
-0.589757
-0.551395
-0.509139
-0.466525
-0.437451
-0.415333
-0.431354
-0.480941
-0.563907
-0.580451
-0.546524
-0.504392
-0.460573
-0.440902
-0.659835
-0.659606
-0.658986
-0.656564
-0.645955
-0.622273
-0.588703
-0.548278
-0.501393
-0.449796
-0.40516
-0.346838
-0.272003
-0.194788
-0.142631
-0.0966164
-0.0479176
-0.0136682
0.0154755
0.0297092
-0.651799
-0.651647
-0.65123
-0.650517
-0.644061
-0.62277
-0.588317
-0.544433
-0.492317
-0.429375
-0.363916
-0.281273
-0.139955
0.0640398
0.259831
0.428826
0.522481
0.566619
0.58461
0.590714
-0.646644
-0.646594
-0.646455
-0.646271
-0.642416
-0.624532
-0.589087
-0.541138
-0.483163
-0.409194
-0.325936
-0.229881
-0.040134
0.224114
0.492958
0.727713
0.879707
0.953889
0.98001
0.987078
-0.642569
-0.642564
-0.642493
-0.642372
-0.640994
-0.626964
-0.591292
-0.539972
-0.476252
-0.3951
-0.300601
-0.19742
-0.0066984
0.271484
0.567205
0.829613
1.01801
1.12086
1.1636
1.17773
-0.639176
-0.639229
-0.639203
-0.639064
-0.638869
-0.629052
-0.594959
-0.541604
-0.473859
-0.388914
-0.288868
-0.185346
-0.00441559
0.264534
0.555793
0.82459
1.03211
1.15149
1.20293
1.21841
-0.636578
-0.636654
-0.636712
-0.63677
-0.637285
-0.63025
-0.599699
-0.546232
-0.477318
-0.390997
-0.292114
-0.195035
-0.0425608
0.204426
0.468586
0.708447
0.90592
1.02784
1.07791
1.09058
-0.634358
-0.634431
-0.634431
-0.634334
-0.634049
-0.630346
-0.604811
-0.554454
-0.486077
-0.400934
-0.308742
-0.222508
-0.105507
0.102904
0.328934
0.522313
0.679477
0.777885
0.817889
0.827141
-0.634362
-0.634346
-0.633808
-0.632331
-0.630233
-0.629006
-0.611077
-0.566079
-0.498656
-0.41714
-0.333696
-0.257857
-0.169231
-0.0060578
0.172666
0.319108
0.435063
0.505902
0.532768
0.537925
-0.638367
-0.638486
-0.638453
-0.637901
-0.636712
-0.63632
-0.624204
-0.580585
-0.513161
-0.437364
-0.36396
-0.297551
-0.23361
-0.111016
0.0247057
0.130653
0.210713
0.257947
0.275284
0.277721
-0.643029
-0.643862
-0.646652
-0.6537
-0.66342
-0.666981
-0.649058
-0.596101
-0.528032
-0.4618
-0.395478
-0.336905
-0.288175
-0.200628
-0.10165
-0.0268565
0.0268256
0.0562816
0.066377
0.0676648
-0.645049
-0.646388
-0.651421
-0.665477
-0.68704
-0.694765
-0.668786
-0.604795
-0.544293
-0.487263
-0.424714
-0.372944
-0.334927
-0.268797
-0.198784
-0.149485
-0.116014
-0.0985422
-0.0927345
-0.0918165
-0.652467
-0.653457
-0.656558
-0.661215
-0.664936
-0.670747
-0.642033
-0.598281
-0.560229
-0.509762
-0.450365
-0.405811
-0.37667
-0.326116
-0.272158
-0.236156
-0.214116
-0.202439
-0.198214
-0.197641
-0.669814
-0.670202
-0.67002
-0.652289
-0.604711
-0.564629
-0.570827
-0.58299
-0.570838
-0.526285
-0.470867
-0.43518
-0.408899
-0.36793
-0.324457
-0.294445
-0.27413
-0.2633
-0.259245
-0.258877
-0.691676
-0.690792
-0.686992
-0.658178
-0.590967
-0.533398
-0.548224
-0.593822
-0.58949
-0.539986
-0.49032
-0.458776
-0.436091
-0.396841
-0.355711
-0.327111
-0.30625
-0.293741
-0.289943
-0.290122
-0.730546
-0.727549
-0.731574
-0.735408
-0.726928
-0.694137
-0.680981
-0.674712
-0.631453
-0.557634
-0.50776
-0.476351
-0.452549
-0.417031
-0.377566
-0.347145
-0.324216
-0.311096
-0.307091
-0.307574
-0.832371
-0.839067
-0.874796
-0.924136
-0.949199
-0.932422
-0.884735
-0.802305
-0.684794
-0.579751
-0.522314
-0.484803
-0.459462
-0.423056
-0.385131
-0.355926
-0.333963
-0.321905
-0.318094
-0.318703
-0.963459
-0.980011
-1.02312
-1.06803
-1.09137
-1.07711
-1.01268
-0.882812
-0.715682
-0.593634
-0.524318
-0.478092
-0.454127
-0.419147
-0.381473
-0.354204
-0.335522
-0.325972
-0.322849
-0.32344
-1.01949
-1.03478
-1.06481
-1.09596
-1.11494
-1.10151
-1.03082
-0.86758
-0.695018
-0.579914
-0.499451
-0.45408
-0.432031
-0.397195
-0.363795
-0.341406
-0.327025
-0.319548
-0.317002
-0.317384
-0.953401
-0.965306
-0.987082
-1.01181
-1.02891
-1.01826
-0.950339
-0.787087
-0.640654
-0.530441
-0.449365
-0.413733
-0.390558
-0.356556
-0.329192
-0.312152
-0.301196
-0.295712
-0.293788
-0.294126
-0.780981
-0.791949
-0.81291
-0.838717
-0.859626
-0.853847
-0.785877
-0.66318
-0.552416
-0.451448
-0.388639
-0.35663
-0.331831
-0.304513
-0.283181
-0.268752
-0.259084
-0.253986
-0.252419
-0.252923
-0.53323
-0.544585
-0.566809
-0.596333
-0.622544
-0.623241
-0.57499
-0.502014
-0.425805
-0.358886
-0.319249
-0.285296
-0.267086
-0.24629
-0.228905
-0.216016
-0.20639
-0.200963
-0.199725
-0.200535
-0.264037
-0.272653
-0.292057
-0.322153
-0.354216
-0.371226
-0.361006
-0.333972
-0.29696
-0.265204
-0.235411
-0.213026
-0.202451
-0.186175
-0.171914
-0.160924
-0.151949
-0.146972
-0.146202
-0.147146
-0.0568665
-0.0634423
-0.079989
-0.107832
-0.143018
-0.175902
-0.196078
-0.198421
-0.18677
-0.171458
-0.154027
-0.146029
-0.141218
-0.128459
-0.117898
-0.108451
-0.100509
-0.0969774
-0.0969366
-0.0979119
0.0375485
0.0322864
0.0194196
-0.00275361
-0.0314916
-0.061169
-0.0843157
-0.0939829
-0.0933718
-0.0890298
-0.0844272
-0.0802253
-0.081505
-0.0731306
-0.0652741
-0.058843
-0.054018
-0.052466
-0.053032
-0.0539025
0.0292835
0.0272858
0.0230221
0.0149456
0.00466504
-0.00482074
-0.0116716
-0.01663
-0.018587
-0.0188488
-0.0184388
-0.0173759
-0.0163501
-0.0163275
-0.0148727
-0.015436
-0.0158459
-0.0162803
-0.0141309
-0.0131358
0.00257267
0.187206
0.355998
0.498088
0.610311
0.697328
0.768718
0.826488
0.840313
0.837355
0.282778
0.400592
0.510646
0.605271
0.684157
0.748683
0.799267
0.83342
0.851753
0.868674
0.472147
0.550227
0.627264
0.694599
0.751694
0.798904
0.836135
0.864715
0.886312
0.905592
0.612136
0.667702
0.723493
0.773462
0.816537
0.853208
0.884076
0.910045
0.929958
0.948869
0.725614
0.767472
0.808987
0.847867
0.882643
0.913452
0.940452
0.963414
0.981181
0.999275
0.820431
0.855242
0.889499
0.922372
0.952724
0.980264
1.00465
1.02519
1.04079
1.05828
0.907277
0.938705
0.970371
1.00103
1.02959
1.05558
1.07841
1.09714
1.11091
1.12792
0.993267
1.02553
1.05759
1.08849
1.11701
1.14257
1.1645
1.18189
1.19416
1.21066
1.08709
1.12341
1.15799
1.19026
1.21925
1.24444
1.26542
1.2816
1.29313
1.30925
1.19992
1.24065
1.27751
1.31023
1.33855
1.36242
1.38194
1.39715
1.40898
1.42503
1.34137
1.38224
1.41739
1.44683
1.47192
1.49347
1.51191
1.52735
1.54043
1.55636
1.51267
1.54463
1.57158
1.59392
1.61397
1.63265
1.65036
1.66711
1.682
1.69772
1.69872
1.71591
1.73299
1.74967
1.76576
1.78048
1.79437
1.80883
1.82406
1.84136
1.88209
1.89201
1.90517
1.91614
1.92555
1.9352
1.9458
1.95596
1.96525
1.99091
2.09989
2.09419
2.08124
2.06698
2.06068
2.06637
2.08451
2.11303
2.1468
2.18312
2.40271
2.26677
2.18725
2.1447
2.12737
2.13136
2.15878
2.21664
2.3243
2.50271
0.782228
0.775926
0.768199
0.757089
0.743524
0.730885
0.720503
0.712513
0.706826
0.703538
0.703245
0.706132
0.71141
0.718801
0.728374
0.740221
0.753795
0.766733
0.775728
0.783272
0.691281
0.697202
0.705278
0.711416
0.714493
0.713992
0.710922
0.70695
0.703395
0.701158
0.701085
0.703399
0.707202
0.711684
0.715812
0.718077
0.717018
0.712391
0.705343
0.697513
0.684506
0.686879
0.690151
0.692931
0.695391
0.697594
0.698792
0.698672
0.697772
0.697018
0.697302
0.698786
0.700623
0.701894
0.701851
0.700408
0.698267
0.695918
0.692945
0.689931
0.679681
0.68077
0.682692
0.685038
0.686922
0.688337
0.689578
0.690601
0.691246
0.691685
0.69232
0.693144
0.693676
0.693609
0.693019
0.692125
0.690816
0.688862
0.686766
0.685292
0.67461
0.675244
0.676378
0.678147
0.680006
0.681619
0.682897
0.683998
0.685032
0.686004
0.686885
0.687502
0.687717
0.687571
0.687081
0.686143
0.684743
0.683153
0.681829
0.68103
0.669625
0.670064
0.670858
0.672175
0.673716
0.675304
0.676814
0.678155
0.679372
0.680546
0.681613
0.682331
0.682604
0.682443
0.681837
0.680882
0.679763
0.678644
0.677757
0.677226
0.664715
0.665042
0.66566
0.666745
0.668064
0.669493
0.671011
0.672539
0.674005
0.675411
0.676695
0.67758
0.677922
0.677769
0.677244
0.676517
0.675715
0.674892
0.674249
0.67386
0.659852
0.660105
0.660605
0.661535
0.662735
0.664079
0.665548
0.66714
0.668808
0.670494
0.672054
0.673143
0.673627
0.673642
0.673351
0.672876
0.672297
0.671709
0.671249
0.670953
0.654961
0.655162
0.655579
0.656402
0.657529
0.658834
0.6603
0.661949
0.663776
0.665734
0.667623
0.669012
0.669766
0.670053
0.670025
0.669794
0.669436
0.669051
0.668735
0.668502
0.649954
0.650115
0.650475
0.651227
0.652315
0.65361
0.655118
0.656868
0.658876
0.661123
0.663402
0.6652
0.666322
0.666936
0.667193
0.667217
0.667091
0.666893
0.666695
0.66651
0.644738
0.644868
0.645187
0.645899
0.646977
0.648308
0.649898
0.651797
0.654044
0.656646
0.659401
0.661703
0.663267
0.664261
0.664842
0.665144
0.665251
0.665237
0.665144
0.664995
0.639219
0.639322
0.639614
0.640311
0.641416
0.642826
0.644546
0.64665
0.649209
0.652261
0.655601
0.658506
0.660593
0.662027
0.662979
0.663585
0.663953
0.664123
0.664119
0.663997
0.633291
0.633373
0.63365
0.634356
0.635523
0.637056
0.638961
0.641342
0.6443
0.647911
0.651965
0.655597
0.658304
0.660253
0.661632
0.662603
0.663246
0.663598
0.663677
0.663576
0.626838
0.626899
0.62717
0.627909
0.629175
0.63088
0.633036
0.635775
0.639237
0.643536
0.648458
0.652966
0.656412
0.65897
0.660842
0.662219
0.663179
0.663731
0.663891
0.663805
0.619716
0.619758
0.620033
0.620827
0.622232
0.624163
0.626646
0.629842
0.63393
0.639075
0.645047
0.650605
0.65493
0.65821
0.660667
0.662512
0.663837
0.664606
0.664844
0.66477
0.61177
0.611787
0.612065
0.612937
0.614523
0.616746
0.619645
0.623412
0.628279
0.634458
0.6417
0.648514
0.653881
0.658011
0.661164
0.663572
0.665311
0.666315
0.666631
0.666564
0.602727
0.602737
0.603042
0.604018
0.60584
0.608432
0.611854
0.616336
0.622164
0.629609
0.638383
0.646691
0.653293
0.658424
0.662395
0.665476
0.667693
0.668953
0.669346
0.669282
0.592328
0.592311
0.592658
0.593787
0.595911
0.598974
0.603055
0.608432
0.615453
0.624445
0.635063
0.645142
0.653196
0.659506
0.664442
0.668301
0.671071
0.672609
0.673074
0.673008
0.580209
0.580172
0.580569
0.581885
0.584389
0.588057
0.592978
0.599484
0.607991
0.618878
0.631711
0.643878
0.653622
0.661305
0.667374
0.672126
0.675521
0.677347
0.677876
0.677802
0.565853
0.565793
0.566271
0.567842
0.570835
0.575285
0.581288
0.589236
0.59961
0.612825
0.628307
0.642916
0.654605
0.66386
0.671241
0.677011
0.681086
0.683196
0.683771
0.683681
0.548555
0.548473
0.54908
0.551007
0.554655
0.560145
0.567574
0.577396
0.590142
0.606225
0.624856
0.642285
0.656181
0.667214
0.676051
0.682963
0.687758
0.690118
0.690709
0.690595
0.527292
0.527194
0.528009
0.530457
0.535028
0.54196
0.551334
0.563651
0.579447
0.599062
0.621399
0.642026
0.658384
0.671379
0.681809
0.689958
0.695449
0.697984
0.698549
0.698405
0.500517
0.500419
0.501588
0.504843
0.510823
0.51986
0.532003
0.547724
0.567463
0.591396
0.618031
0.642211
0.661241
0.676348
0.688486
0.697896
0.703973
0.706558
0.707043
0.706864
0.465715
0.465673
0.467478
0.472133
0.480482
0.492852
0.509083
0.529493
0.55429
0.583404
0.614909
0.642947
0.664793
0.682104
0.695992
0.706592
0.713026
0.715481
0.715833
0.715622
0.418431
0.418621
0.42184
0.42945
0.442226
0.460089
0.482413
0.509168
0.540258
0.575391
0.612248
0.644362
0.669094
0.688602
0.704205
0.715775
0.722189
0.724296
0.72448
0.724248
0.350314
0.351792
0.35965
0.374096
0.39506
0.42169
0.452617
0.487445
0.525949
0.567768
0.610285
0.64655
0.674164
0.695765
0.712841
0.724949
0.730888
0.732458
0.732481
0.732259
0.268959
0.271831
0.287152
0.312147
0.34435
0.381311
0.421518
0.464816
0.511101
0.560104
0.60896
0.650128
0.681316
0.705593
0.724183
0.736299
0.741484
0.74258
0.742545
0.742413
0.185557
0.193034
0.216077
0.251599
0.294647
0.341717
0.391192
0.442981
0.497054
0.553192
0.608315
0.654291
0.688925
0.715758
0.735757
0.747371
0.751283
0.751818
0.751744
0.751668
0.117214
0.126815
0.154747
0.197714
0.249239
0.304843
0.362643
0.42236
0.483813
0.546685
0.607607
0.657903
0.695538
0.724405
0.745094
0.755986
0.759147
0.759504
0.759438
0.759387
0.0611098
0.0714678
0.103121
0.151595
0.209511
0.271897
0.33665
0.403284
0.471383
0.540433
0.606679
0.660891
0.701162
0.731734
0.752904
0.763226
0.765897
0.76615
0.766093
0.766055
0.0140694
0.024782
0.0589916
0.111739
0.174851
0.242848
0.313439
0.386031
0.46001
0.534647
0.60576
0.663538
0.706175
0.738201
0.759681
0.769508
0.771863
0.772064
0.772011
0.771978
-0.026351
-0.0154887
0.0206183
0.0767819
0.14422
0.217018
0.292689
0.370527
0.449784
0.529514
0.605107
0.666125
0.710833
0.744036
0.765654
0.775049
0.777207
0.77739
0.777349
0.777321
-0.06187
-0.0509645
-0.0133812
0.0456069
0.116727
0.193694
0.273872
0.356454
0.440561
0.525038
0.604819
0.668821
0.715337
0.749445
0.771037
0.780047
0.782082
0.782282
0.782275
0.782257
-0.09376
-0.0828469
-0.0440944
0.0173225
0.0916465
0.172288
0.256504
0.343437
0.432074
0.521075
0.604886
0.671715
0.719873
0.754688
0.776135
0.78478
0.786733
0.78698
0.787032
0.787039
-0.123053
-0.112114
-0.0723325
-0.00876274
0.0684133
0.152327
0.240192
0.331137
0.42406
0.517438
0.605234
0.674862
0.724602
0.760039
0.781295
0.789603
0.791487
0.791789
0.791919
0.791964
-0.150337
-0.139358
-0.0986588
-0.033152
0.0465716
0.133431
0.224622
0.319287
0.416282
0.513951
0.605776
0.678297
0.729666
0.765742
0.786827
0.794849
0.796649
0.796994
0.797196
0.797286
-0.176103
-0.165072
-0.123513
-0.0562443
0.0257767
0.115301
0.209542
0.307671
0.408546
0.510453
0.606422
0.682029
0.735143
0.771932
0.792922
0.800684
0.802394
0.802752
0.802996
0.803125
-0.200749
-0.189576
-0.147214
-0.0783203
0.00578071
0.0977172
0.194759
0.296121
0.400686
0.506784
0.607066
0.686018
0.741065
0.778652
0.799595
0.807113
0.808708
0.809035
0.809288
0.809441
-0.224419
-0.21308
-0.169953
-0.0995785
-0.0135942
0.0805362
0.180139
0.2845
0.392572
0.502785
0.607563
0.690203
0.747417
0.78584
0.806731
0.813993
0.815437
0.815695
0.815924
0.816078
-0.247315
-0.235759
-0.191898
-0.120138
-0.0324559
0.0636528
0.165589
0.272715
0.384095
0.498326
0.607738
0.694476
0.754194
0.793515
0.814217
0.821103
0.822339
0.822505
0.822688
0.822823
-0.269447
-0.257692
-0.213126
-0.140069
-0.0508657
0.0470149
0.151066
0.26072
0.37518
0.493279
0.607423
0.698695
0.761395
0.801726
0.822008
0.828225
0.829162
0.829232
0.829368
0.829479
-0.290925
-0.278934
-0.233645
-0.159404
-0.0688584
0.0305981
0.136544
0.248494
0.365788
0.487551
0.606448
0.70268
0.768985
0.81064
0.830207
0.83529
0.835649
0.83565
0.835793
0.835902
-0.311632
-0.299477
-0.253479
-0.178173
-0.086436
0.0144245
0.122033
0.236039
0.35591
0.481094
0.604656
0.706223
0.776875
0.820483
0.839305
0.842575
0.841769
0.841594
0.841966
0.842202
-0.331714
-0.319323
-0.272639
-0.196392
-0.103604
-0.00150777
0.10758
0.22338
0.345558
0.473893
0.601917
0.709083
0.784878
0.831399
0.849969
0.851041
0.848137
0.847203
0.848148
0.849084
-0.351057
-0.338433
-0.291139
-0.214042
-0.120313
-0.0171469
0.0932312
0.210592
0.334782
0.465931
0.598141
0.711006
0.792697
0.843297
0.862802
0.862244
0.856652
0.853876
0.85516
0.857626
-0.369755
-0.356888
-0.308948
-0.231087
-0.13655
-0.0324515
0.0790446
0.197723
0.323641
0.457274
0.59328
0.711716
0.799936
0.855746
0.877699
0.877164
0.869702
0.863815
0.860246
0.854562
-0.387716
-0.374679
-0.326157
-0.247699
-0.15254
-0.0476952
0.0647027
0.184397
0.311738
0.447497
0.586941
0.710834
0.806472
0.868893
0.894763
0.89627
0.888435
0.877968
0.86511
0.865049
-0.404932
-0.391891
-0.342788
-0.263835
-0.168283
-0.0628539
0.0502191
0.170575
0.299007
0.436424
0.578834
0.707671
0.811253
0.881793
0.912099
0.916315
0.907889
0.895215
0.858797
0.821268
-0.42122
-0.408395
-0.35882
-0.279375
-0.183791
-0.0779461
0.0355744