/*--------------------------------*- C++ -*----------------------------------*\
  =========                 |
  \\      /  F ield         | OpenFOAM: The Open Source CFD Toolbox
   \\    /   O peration     | Website:  https://openfoam.org
    \\  /    A nd           | Version:  6
     \\/     M anipulation  |
\*---------------------------------------------------------------------------*/
FoamFile
{
    version     2.0;
    format      ascii;
    class       surfaceScalarField;
    location    "15";
    object      phi;
}
// * * * * * * * * * * * * * * * * * * * * * * * * * * * * * * * * * * * * * //

dimensions      [0 3 -1 0 0 0 0];

internalField   nonuniform List<scalar> 
1300
(
3.75095
5.62643
-6.16126
3.75095
-5.9796
5.62643
-4.42062
4.42062
-1.40936
1.40936
1.87721
1.87375
-3.66444
3.66444
-4.56344
4.56344
-2.77009
2.77009
-5.24784
5.24784
-5.06944
5.06944
4.73455
-4.73455
-4.86625
4.86625
-1.84489
1.84489
-3.61978
3.61978
3.17611
-3.17611
-4.95498
4.95498
-0.511825
0.511825
-0.554043
4.305
3.19691
3.19691
-2.4941
2.4941
-4.8635
4.8635
6.22193
-6.22193
9.35307
-9.35307
-3.1918
-3.40437
1.33737
-8.14416
-4.64224
-4.64224
-8.4411
8.4411
-2.81467
2.81176
2.93828
-2.93828
-1.6564
1.6564
-4.45678
0.0361597
-4.45678
4.35918
0.0614464
4.35918
-1.53348
0.124118
-1.53348
4.05327
-4.05327
1.239
0.170361
1.239
3.06922
-3.06922
-1.87652
3.75373
1.87443
-1.87167
6.17667
-1.87928
3.75303
-5.09332
5.09332
-3.39565
-0.268789
-3.39565
4.00849
-0.344056
4.00849
-5.26691
5.26691
-4.51465
-0.0487863
-4.51465
4.6339
-0.0704598
4.6339
2.99326
-2.99326
-2.80388
0.033791
-2.80388
2.71499
0.0551045
2.71499
0.353677
5.27275
-5.98011
8.79186
-5.27275
0.024917
5.21013
0.0377038
5.21013
-5.10482
0.035376
-5.10482
5.01041
0.0590267
5.01041
4.83058
-0.0960262
4.83058
-4.84628
0.111726
-4.84628
-3.32203
-3.40716
-4.97358
0.107334
-4.97358
-1.88745
0.0425599
-1.88745
1.77889
0.0659955
1.77889
-3.57313
3.57313
-3.9711
0.351323
-3.9711
3.13348
0.0426313
3.13348
1.86736
1.88359
5.61831
-5.61831
2.4422
-4.88924
-0.0657452
-4.88924
-5.02439
-4.32868
5.02439
-0.0694043
-0.817686
0.305861
-0.817686
3.15664
0.0402688
3.15664
2.64881
0.0661737
-2.64881
0.154711
3.43149
-3.43149
1.82747
0.666632
1.82747
-5.56314
5.56314
4.95692
0.0534911
-4.95692
0.0934248
6.15769
0.0642361
6.15769
-6.2075
-0.0144313
-6.2075
3.36819
-6.77257
-3.41089
4.75899
0.107258
-4.75899
0.116752
2.92306
0.0152168
2.92306
-2.93666
2.93666
-2.9853
0.0470233
-2.9853
-2.11493
0.458538
-2.11493
1.30305
0.353345
1.30305
-4.37051
-0.0862695
-4.37051
-4.24286
0.27176
4.24286
0.116312
0.808087
-0.808087
-1.63409
0.100605
-1.63409
-4.17551
-0.195006
4.17551
-0.122235
-3.97594
-0.077332
-3.97594
-3.02854
0.0432325
3.02854
0.040678
3.11085
0.0457882
-3.11085
0.0416382
-1.87075
3.75435
-1.8802
3.75463
-4.86747
-0.225847
-4.86747
5.21497
-0.121656
5.21497
3.34256
0.277222
-3.34256
-0.0530907
4.26041
-0.251914
4.26041
-5.32225
0.0553421
-5.32225
5.20657
0.0603347
5.20657
4.42062
-0.160209
-4.42062
-0.0940363
4.71785
-0.0839488
4.71785
3.05326
-0.059996
3.05326
-2.95657
-0.0366909
-2.95657
2.83993
-2.83993
2.82456
0.0153676
-2.82456
0.0206786
-11.1247
11.1103
-0.0366464
-11.0881
5.17349
5.17349
4.27303
0.557547
4.27303
-5.03092
0.184641
-5.03092
3.32099
-6.73188
3.40275
-6.72478
3.39258
-11.5367
3.34493
-6.75208
5.13463
-5.13463
5.0669
0.0677238
-5.06691
0.0933235
-1.88643
-0.00101228
-1.88643
-2.96463
-0.608504
-2.96463
4.02163
-0.448499
4.02163
-3.04262
3.04262
-3.08497
0.0423553
3.08497
0.0485071
4.80547
-0.087621
-4.80547
-0.0837687
1.0466
0.192407
-1.0466
0.228911
3.6405
-0.209009
3.6405
-3.25594
-0.17555
-3.25594
-1.84733
-0.0391009
1.84733
-0.0198626
-5.81016
0.24702
-5.81016
-11.1813
0.0931919
-11.1436
-6.11431
-6.11431
2.3268
11.1187
-2.92813
-0.0284403
2.92813
-0.00506494
2.9972
0.0454194
-2.9972
0.0605416
-2.87291
0.0329829
2.87291
0.0637439
-2.51023
0.395294
-2.51023
-0.881958
0.881958
-1.04698
0.165018
1.04698
0.256074
1.10529
-0.297204
1.10529
1.72616
0.0527343
-1.72616
0.0920688
-3.90859
-0.0673469
-3.90859
5.30064
-0.0856654
5.30064
-3.13199
-0.12395
3.13199
-0.0787377
-0.0350621
11.1454
-5.13842
0.0336075
5.13842
-11.2096
11.2432
-3.23494
0.724711
3.23494
1.03809
5.29258
0.270555
-5.29258
0.261666
5.17243
0.0341405
-5.17243
0.0378025
-2.4261
-0.538524
-2.4261
-4.51215
-0.355317
4.51215
-0.490521
-11.4824
-0.202729
11.6851
-11.4234
6.01289
0.144805
-6.01289
11.388
-0.763288
-0.0447986
0.763288
0.11867
1.45089
-0.3456
1.45089
3.81232
-0.171813
-3.81232
-0.0962757
-5.33785
0.0156019
5.33785
-0.0372131
-1.91151
-0.514594
1.91151
-0.460619
-4.26393
4.3042
1.91274
-3.34764
-3.42493
-7.67631
1.8551
1.89925
4.2973
-7.12663
-4.4101
-7.00988
7.22448
-6.96282
-9.40844
9.31241
7.43532
-7.51266
-5.77098
5.81949
6.46498
-6.4243
1.87837
1.87536
7.5395
-7.80828
-13.9121
13.6862
9.99739
-10.0462
11.3952
-11.3398
-12.731
12.7651
-5.74923
5.78302
-6.63431
6.59762
-6.806
6.72726
-3.28757
-3.43721
9.20293
-9.0956
11.7396
-11.8053
-7.37561
7.72694
3.38671
0.917494
3.4325
-1.88242
3.76079
-1.8706
3.78334
3.4079
-6.69547
3.32398
-6.7489
6.08709
5.65249
-6.01769
-1.65863
-5.83104
5.84626
-5.82553
5.88927
8.98739
-8.95123
-1.88398
3.75934
-1.87065
3.7699
-3.41823
-2.35275
3.3756
0.9217
5.63439
3.56855
-5.74164
-1.26824
-7.61713
7.44532
-7.92728
7.75173
-0.453548
5.84037
-5.38682
4.40995
-1.63813
7.4785
5.58635
5.77099
5.86243
-5.59188
1.10038
-6.4872
-6.39378
-2.6815
2.78211
2.71218
-2.54182
5.86544
1.56988
5.74321
-5.51691
-1.99574
-5.58426
3.81532
2.00417
3.85767
4.04599
2.41899
4.08922
3.03182
-3.03873
0.00691386
-3.05946
6.09128
0.720602
-5.4122
-4.4905
5.60253
1.93696
5.25848
-4.74017
-3.06812
-4.79326
-8.95213
-4.95996
-9.30744
8.24836
5.43788
8.12671
-8.91706
8.87984
6.73769
3.2597
6.66723
-6.40179
-3.64439
-6.49583
10.5614
-2.25628
-8.30509
-7.27285
-5.45815
7.21252
4.18263
7.70588
5.05926
7.74368
3.44265
7.11872
-7.62528
2.16713
-3.85045
-1.89878
-3.82977
3.74835
2.03467
3.80346
-4.13093
-2.50338
-4.15937
-4.20093
-2.60507
4.26092
2.33669
-4.32093
-3.60635
4.44488
2.28239
3.10988
-7.51998
3.6422
-7.07942
-6.42253
-2.67306
-6.32921
4.16337
2.61131
-6.77468
-2.5321
10.9396
-5.28715
9.28101
-7.27424
-4.53108
-7.35801
-6.56502
-0.81059
-6.29326
-8.96729
8.42876
-9.10487
8.65637
14.0448
-6.95394
-7.09087
-3.97015
-2.45416
3.92851
-0.496011
-3.71369
3.7206
0.0471062
3.83045
4.74794
4.25193
-3.87558
-1.94995
-3.81504
3.85833
2.03095
3.89131
6.73136
2.25603
6.7928
-6.44816
-2.50306
-6.53443
9.12597
-8.66744
2.92577
-2.96487
5.1598
2.59193
-4.95079
-2.66634
6.03865
-3.0437
-2.99495
-12.3681
10.894
1.47406
-4.88956
-0.479609
0.0322151
-5.61133
-3.79711
5.49961
0.271383
11.1654
7.36828
-5.51589
5.76291
6.16925
6.22275
-0.171033
5.92694
-5.20223
5.24429
-2.33646
-2.90783
5.27795
-5.47295
-1.25648
-5.27189
4.0154
0.270251
1.90385
-1.59799
-2.09903
-0.582472
-2.00696
1.63532
1.07686
1.82772
0.945608
1.8365
-2.97318
0.581198
2.39198
-2.02758
-1.96062
-3.49878
-0.937461
4.43624
5.42626
2.01906
-5.32998
-0.25428
2.75415
-2.68815
-0.806039
-2.69274
1.99528
-2.80132
-3.45281
-1.814
5.2668
-3.35245
-0.462588
3.30703
0.550642
-3.76799
-2.06305
3.72096
0.368258
-3.13747
6.24174
-3.10428
-5.08742
2.53796
3.55332
4.54213
-4.8035
2.42783
2.37566
-1.25018
5.20985
0.0486228
4.95794
-6.34355
3.27543
4.76313
2.96381
-5.04035
0.247095
-6.09646
10.8651
-7.8147
-3.0504
7.14872
3.71638
7.66769
6.37712
-6.1575
13.8252
0.138171
-7.95287
5.95829
-2.99448
5.29184
-8.28632
-11.669
3.71609
-8.82425
9.29218
-0.467924
-2.43244
-6.48462
11.2567
-1.55643
-9.70027
6.57028
-5.70738
-5.02171
10.7291
-7.96366
8.6661
-3.1492
-5.51689
-7.3185
-4.02131
7.3029
1.57695
-9.89539
12.0625
-2.77667
5.89792
0.769308
5.81397
4.54133
-5.99861
1.45728
3.42233
-6.57153
3.91077
-9.90938
-4.97689
9.68778
-4.71089
-7.64996
-6.87433
-0.775624
2.00235
10.0602
-7.06161
5.39214
1.66947
3.34921
0.542095
-3.36458
-0.465187
0.361987
4.44584
-4.80783
4.16544
4.23162
3.35184
1.09401
3.79127
2.05499
-3.78621
-0.373161
-4.04225
1.43717
-1.70556
-3.56407
5.00124
-3.99044
0.426369
-2.66302
-3.50462
6.16764
-4.56181
3.07781
3.16393
5.10876
-4.87431
1.3697
-2.40218
-2.47214
2.62074
-4.3263
1.90782
3.09342
4.19021
0.583854
4.94071
4.74707
-7.55202
0.472604
8.31561
-7.04738
1.74263
6.00106
-7.13476
0.260428
-6.06878
1.08645
-6.3736
-5.68822
5.51341
-6.324
-2.77291
6.07291
0.719889
-6.18923
-0.104036
-5.9667
-3.00059
-6.48129
-2.98181
-6.12306
-9.13931
-1.6972
-7.44211
6.73157
-6.57537
-2.73207
7.06589
1.59048
-7.30824
7.26344
-7.38803
7.04243
0.0953425
3.62526
4.34727
1.89311
-2.37508
4.26819
-5.02524
7.28127
-8.42527
3.40003
3.99588
-6.49894
-4.42939
4.99199
4.13399
5.34533
8.91898
-10.7829
1.86389
-10.8638
12.1693
-1.30548
-16.6075
5.74375
-7.68857
2.67016
0.255607
2.66915
0.676337
2.37636
-3.0527
-2.28853
-2.3084
-2.25996
-3.27423
5.53419
1.1256
-3.28765
2.16204
-3.43094
4.55654
-0.0351115
-3.25253
5.15106
-2.7747
5.40667
-3.46605
1.94062
3.26395
5.51249
-2.24854
4.20126
-1.60933
1.73931
-3.98785
-1.53492
-2.98879
5.02346
-3.17885
3.60522
-0.215633
3.82085
-4.00486
0.961165
-0.653027
3.57859
3.7333
4.11488
-3.02088
2.86792
-4.47725
-1.11993
-3.8934
-0.799975
-0.384872
-3.75223
4.1371
6.11117
-6.49604
-5.40707
9.64943
-4.24236
7.75227
-5.50026
-2.25202
-4.30821
-4.35922
3.91292
2.01402
9.76629
0.156663
-5.65692
-5.04557
-4.00747
3.19202
2.05226
-2.05607
3.53013
2.02385
-0.120004
0.620162
1.20756
1.88448
-1.26432
0.161515
1.72297
-1.43647
2.02591
0.728237
-2.07864
0.0716824
-1.40317
3.39845
0.988817
-2.06568
0.801358
1.07878
-3.41523
4.61259
-2.31259
-2.3
5.69136
1.20142
-3.51401
4.07047
-3.80022
2.29874
-3.2362
-1.21527
-5.01549
-3.44561
-2.4007
4.56274
-3.13349
5.15255
1.10993
-4.89827
6.00821
-3.50466
1.69067
-3.01606
3.7443
-1.05188
-1.96418
2.72277
2.54404
-2.81805
0.125305
-0.0952796
2.27194
-2.36722
-0.529381
-2.55696
-4.51713
4.88539
-2.17005
4.59789
2.09814
-1.91843
6.51632
1.82635
-3.74478
-3.26107
-3.72366
-1.36912
3.17302
-1.25079
-5.24503
-6.76769
5.40524
-0.447303
-7.31065
9.82713
-2.51648
-5.37368
2.09825
5.05047
-7.96606
1.39453
-4.05529
5.77184
5.82046
5.37316
-10.9349
1.23464
-5.49703
2.89229
-8.38933
6.60868
-4.70964
8.42573
-10.706
7.97395
-9.11555
5.37533
-3.01399
5.59723
-4.13995
2.70785
-6.72917
-5.15222
6.99009
-3.73039
7.7594
-4.22203
11.9814
-6.99871
7.02981
4.95162
-1.47578
-5.88223
-6.87393
5.39815
0.155878
5.96985
4.94665
-2.89167
4.57349
2.25619
-4.65836
-2.07011
-6.50665
1.84828
-3.34271
-1.90317
3.75146
3.20558
3.74768
1.27932
-3.28249
6.80273
-7.57835
-2.09184
-3.59638
6.79065
-1.39249
4.11404
-7.71042
-2.25956
4.65903
-0.0581844
-4.60085
2.2949
-5.06782
1.03277
-6.10059
5.29122
-5.39526
2.19652
-9.88509
-5.11172
-4.99305
-2.27606
-5.11197
-7.59801
5.32195
-1.85426
5.40918
-8.60546
8.54727
-3.56382
8.88577
-5.34482
-1.13647
5.80544
1.23699
10.1228
0.113
-4.54239
-1.85746
3.83864
-1.98118
1.33456
-3.63923
0.19941
2.47065
3.22072
-6.48605
-0.0128891
-4.55528
-3.85602
7.99001
5.79341
11.9046
1.12171
9.24497
-1.25496
10.3667
4.09037
4.34645
-2.92439
4.78828
1.21271
4.61274
-0.829182
2.76981
1.83997
1.88253
0.805622
2.28998
1.44332
3.25114
0.198445
-2.10995
4.68327
-8.69075
-0.973646
-8.1332
1.17921
5.46762
-4.2884
3.02269
-0.970423
1.04151
0.210912
-1.82686
1.61595
-2.69692
-1.94687
-0.223898
-1.51713
2.31849
1.88131
-2.09459
-0.602324
0.251213
-3.69682
2.98499
-2.85968
-0.315645
5.69256
-2.70376
0.336541
-1.01309
-2.22041
-2.80289
2.7312
6.2417
0.274613
3.13743
5.16001
3.09695
0.205284
6.36438
-6.83231
-3.545
-5.59766
1.01101
6.06148
2.14997
7.9102
7.10159
5.7091
-2.00132
-9.57967
6.80343
-2.01514
5.49795
-0.897099
-5.20349
4.96165
2.31962
-5.68154
0.28628
-4.91721
-6.93236
-0.213566
8.76084
-9.90919
8.77273
5.77214
1.66997
-4.30889
-0.684161
4.14387
0.202574
10.5692
-0.90422
-7.25553
8.15975
-4.5634
3.58975
0.836278
2.69385
2.45223
1.4818
-5.77372
-10.0621
-1.78114
-1.63409
-4.08114
0.355105
-2.23642
6.16018
-2.57043
3.90817
5.58932
6.63083
-2.19483
-4.30121
6.43719
-2.52902
4.1018
)
;

boundaryField
{
    wall-4
    {
        type            calculated;
        value           uniform 0;
    }
    velocity-inlet-5
    {
        type            calculated;
        value           uniform -3.75095;
    }
    velocity-inlet-6
    {
        type            calculated;
        value           uniform -5.62643;
    }
    pressure-outlet-7
    {
        type            calculated;
        value           nonuniform List<scalar> 8(6.16126 5.9796 6.59618 6.80679 6.72919 6.77908 6.72374 6.7375);
    }
    wall-8
    {
        type            calculated;
        value           uniform 0;
    }
    frontAndBackPlanes
    {
        type            empty;
        value           nonuniform 0();
    }
}


// ************************************************************************* //
