/*--------------------------------*- C++ -*----------------------------------*\
  =========                 |
  \\      /  F ield         | OpenFOAM: The Open Source CFD Toolbox
   \\    /   O peration     | Website:  https://openfoam.org
    \\  /    A nd           | Version:  6
     \\/     M anipulation  |
\*---------------------------------------------------------------------------*/
FoamFile
{
    version     2.0;
    format      ascii;
    class       volScalarField;
    location    "56.1";
    object      p;
}
// * * * * * * * * * * * * * * * * * * * * * * * * * * * * * * * * * * * * * //

dimensions      [0 2 -2 0 0 0 0];

internalField   nonuniform List<scalar> 
8800
(
0.84454
0.795223
0.757253
0.729177
0.709006
0.694404
0.683785
0.676215
0.671289
0.669165
0.670476
0.67477
0.681527
0.690923
0.703641
0.720948
0.744817
0.77791
0.820844
0.873356
0.679043
0.685387
0.694533
0.698076
0.695458
0.689357
0.682397
0.676128
0.671289
0.66837
0.668079
0.67065
0.675248
0.681344
0.688422
0.69544
0.700309
0.700177
0.693497
0.684595
0.652578
0.658811
0.663304
0.667166
0.670102
0.671035
0.669922
0.667766
0.665739
0.66484
0.665808
0.668207
0.671053
0.673293
0.673794
0.671991
0.668614
0.664594
0.659808
0.656092
0.648305
0.651069
0.653668
0.655815
0.657537
0.659086
0.660161
0.660476
0.660312
0.660344
0.661077
0.662161
0.662857
0.662674
0.661675
0.660303
0.658621
0.65631
0.653894
0.652327
0.643288
0.644711
0.646542
0.64861
0.650305
0.651575
0.652641
0.653578
0.654329
0.65499
0.65562
0.656013
0.655986
0.655584
0.654888
0.653753
0.652081
0.650176
0.648818
0.648015
0.638347
0.639248
0.640486
0.642097
0.643771
0.645276
0.646523
0.647596
0.648593
0.649523
0.650216
0.650528
0.650478
0.650065
0.649229
0.648016
0.646635
0.645356
0.644529
0.644006
0.633501
0.634155
0.635106
0.636406
0.63783
0.639316
0.640758
0.642064
0.643248
0.644351
0.645194
0.645597
0.645544
0.645053
0.644232
0.643259
0.642243
0.641323
0.640737
0.640354
0.628748
0.629252
0.630027
0.631147
0.63242
0.633801
0.635261
0.636735
0.638157
0.639494
0.640521
0.64102
0.641013
0.640625
0.640012
0.639287
0.63852
0.637838
0.637405
0.637106
0.624037
0.624438
0.625086
0.626084
0.627283
0.628606
0.630055
0.631618
0.633246
0.634853
0.636115
0.636788
0.636959
0.636789
0.636407
0.635895
0.635327
0.634836
0.634514
0.634272
0.619288
0.619615
0.620176
0.621094
0.622243
0.623551
0.62503
0.626687
0.6285
0.630389
0.631964
0.632924
0.633365
0.633446
0.633292
0.632997
0.63262
0.632287
0.632049
0.631847
0.614416
0.614688
0.615188
0.616059
0.61719
0.618522
0.620073
0.621865
0.623899
0.626118
0.628085
0.629417
0.630185
0.630549
0.63064
0.630563
0.630375
0.630181
0.630009
0.629836
0.609336
0.609565
0.610027
0.61088
0.612032
0.61343
0.615094
0.617073
0.619393
0.62202
0.624467
0.626247
0.627397
0.628086
0.628452
0.628604
0.628603
0.628535
0.628419
0.628265
0.603957
0.604152
0.604595
0.60546
0.606674
0.608181
0.610014
0.61225
0.614942
0.618082
0.621113
0.623422
0.625015
0.626072
0.626743
0.627133
0.627337
0.627386
0.627315
0.627175
0.598181
0.598349
0.59879
0.599697
0.601013
0.602681
0.604749
0.607323
0.610487
0.614263
0.618001
0.620941
0.623056
0.624537
0.625556
0.626233
0.626635
0.626797
0.626766
0.626635
0.591892
0.592038
0.592492
0.593469
0.594933
0.596824
0.599207
0.602218
0.605975
0.610533
0.61513
0.618826
0.621556
0.623531
0.624944
0.625929
0.626557
0.626837
0.626843
0.626717
0.584954
0.585077
0.585559
0.586638
0.5883
0.590484
0.593271
0.59683
0.601324
0.606842
0.612479
0.61708
0.62054
0.623099
0.624976
0.62632
0.627198
0.6276
0.627639
0.627515
0.577191
0.577291
0.577818
0.579033
0.580954
0.583514
0.586811
0.591059
0.596463
0.60315
0.610046
0.615735
0.620063
0.623311
0.625741
0.627499
0.628658
0.629188
0.629259
0.629133
0.568369
0.568474
0.56905
0.570436
0.572692
0.575729
0.579674
0.58479
0.591329
0.599452
0.607859
0.614837
0.620188
0.624242
0.627329
0.629573
0.631047
0.631714
0.631816
0.631684
0.558187
0.558277
0.558943
0.560564
0.563255
0.566907
0.571679
0.577891
0.585845
0.595724
0.605945
0.614444
0.620993
0.625998
0.629836
0.632649
0.634483
0.635294
0.635424
0.635283
0.546285
0.54636
0.547129
0.549062
0.552313
0.556756
0.562586
0.570188
0.579911
0.591944
0.604331
0.614606
0.62255
0.628665
0.633374
0.636851
0.63908
0.640039
0.640191
0.640038
0.532113
0.53218
0.533095
0.53544
0.539422
0.544906
0.552116
0.561493
0.57342
0.58807
0.603041
0.615396
0.624946
0.632334
0.638059
0.642278
0.644933
0.646038
0.646206
0.646038
0.514912
0.514972
0.516099
0.519025
0.524009
0.530899
0.539947
0.551649
0.566373
0.584212
0.602201
0.616922
0.628284
0.637109
0.643965
0.64901
0.652109
0.653345
0.653518
0.653331
0.493542
0.493606
0.495075
0.49887
0.505296
0.514166
0.525734
0.540508
0.558771
0.580452
0.601915
0.619287
0.632653
0.643069
0.651142
0.657086
0.660611
0.661946
0.662107
0.661898
0.466254
0.466347
0.468403
0.473599
0.482244
0.494027
0.509154
0.528024
0.550718
0.576943
0.602322
0.622587
0.638121
0.650235
0.659638
0.666472
0.670359
0.671736
0.671864
0.671633
0.430011
0.430223
0.43348
0.441263
0.453656
0.469915
0.49012
0.514377
0.542487
0.57394
0.603632
0.62697
0.644759
0.658645
0.669408
0.677053
0.681169
0.6825
0.682569
0.682318
0.379059
0.380122
0.386587
0.399705
0.418637
0.441819
0.469052
0.500123
0.534629
0.571897
0.606126
0.632603
0.652648
0.668257
0.680313
0.688605
0.692732
0.69391
0.693902
0.693636
0.305016
0.312303
0.327133
0.350021
0.378734
0.411178
0.446957
0.485809
0.527354
0.57095
0.610132
0.640054
0.662605
0.680146
0.693489
0.702264
0.706303
0.707311
0.707249
0.707013
0.226177
0.242129
0.266225
0.299666
0.338657
0.380528
0.424937
0.471804
0.52086
0.571528
0.616587
0.650815
0.676542
0.69645
0.711333
0.720502
0.724238
0.725006
0.724959
0.724819
0.158655
0.178155
0.210005
0.252552
0.300726
0.35149
0.404308
0.459048
0.515427
0.572907
0.623558
0.661806
0.690473
0.712505
0.728535
0.737779
0.741208
0.741859
0.74185
0.741768
0.10339
0.125101
0.162301
0.21138
0.266743
0.324971
0.385227
0.447221
0.51052
0.574493
0.630458
0.672471
0.703792
0.727677
0.744781
0.754346
0.757846
0.758538
0.758554
0.758507
0.0575514
0.0805902
0.121673
0.175864
0.23699
0.301389
0.368024
0.436465
0.506096
0.576124
0.637103
0.682709
0.716548
0.742221
0.760467
0.770701
0.774476
0.775165
0.775217
0.775199
0.0185312
0.042384
0.0863457
0.144703
0.210689
0.280357
0.35251
0.426646
0.502028
0.577714
0.643445
0.692492
0.728788
0.756229
0.775657
0.786639
0.790739
0.791509
0.791592
0.791595
-0.0156872
0.00872852
0.054956
0.116766
0.186902
0.261159
0.33822
0.417516
0.498202
0.579181
0.649411
0.701684
0.740325
0.769424
0.789981
0.801627
0.806108
0.807037
0.807158
0.807168
-0.0465804
-0.0216911
0.0264156
0.0911686
0.164905
0.243199
0.324679
0.408706
0.494317
0.580292
0.654802
0.710162
0.750954
0.78158
0.803136
0.81539
0.82023
0.82135
0.821481
0.821488
-0.0751417
-0.049809
-9.31476e-05
0.0672397
0.144136
0.226007
0.311469
0.399846
0.490098
0.580844
0.659499
0.717812
0.760615
0.792628
0.815044
0.8278
0.832926
0.834181
0.834314
0.834307
-0.102154
-0.0763303
-0.0251514
0.0444835
0.124169
0.209232
0.298303
0.390699
0.485332
0.580682
0.663399
0.724607
0.769344
0.802619
0.825738
0.838845
0.844144
0.84548
0.845606
0.845578
-0.127979
-0.101689
-0.0491568
0.0225349
0.104707
0.192638
0.284992
0.381095
0.479852
0.579691
0.66645
0.730558
0.777209
0.811634
0.835333
0.848626
0.854001
0.855376
0.855476
0.855421
-0.153031
-0.126188
-0.0724039
0.00114794
0.0855511
0.176059
0.2714
0.370924
0.473567
0.577775
0.668607
0.735702
0.784302
0.819831
0.843983
0.857359
0.862734
0.864097
0.864184
0.864105
-0.17743
-0.150022
-0.0950556
-0.0198227
0.0665757
0.159404
0.257455
0.360131
0.466425
0.574868
0.669835
0.740079
0.790736
0.82739
0.85194
0.86528
0.870555
0.87185
0.871911
0.871814
-0.201288
-0.173302
-0.117217
-0.0404507
0.0477352
0.14264
0.243138
0.348691
0.458393
0.570923
0.670095
0.743712
0.796621
0.834472
0.859336
0.872506
0.8776
0.878789
0.878791
0.878664
-0.224694
-0.196098
-0.138925
-0.0607556
0.02901
0.125772
0.228466
0.336627
0.449474
0.565911
0.669338
0.746592
0.802049
0.841234
0.866314
0.879157
0.883923
0.884936
0.884874
0.884728
-0.247688
-0.218403
-0.160179
-0.080738
0.0104337
0.108833
0.213486
0.323982
0.439697
0.559809
0.667499
0.748661
0.807078
0.847857
0.873071
0.885347
0.8896
0.890362
0.890238
0.890081
-0.270112
-0.240178
-0.180949
-0.100377
-0.00795721
0.0918902
0.19826
0.310831
0.429119
0.552638
0.664511
0.749829
0.811691
0.854507
0.879916
0.891346
0.894755
0.895131
0.894936
0.894782
-0.291931
-0.261377
-0.201215
-0.119622
-0.0261028
0.0750069
0.182879
0.29725
0.417816
0.544418
0.660317
0.749973
0.815784
0.861263
0.887268
0.897682
0.899707
0.899335
0.899018
0.898911
-0.313198
-0.281965
-0.220942
-0.138436
-0.0439373
0.058269
0.167434
0.283344
0.40588
0.535207
0.65486
0.748965
0.819147
0.867997
0.89549
0.905279
0.905377
0.903386
0.902568
0.90268
-0.333749
-0.301911
-0.240072
-0.15675
-0.0613985
0.0417629
0.152024
0.269223
0.393426
0.525101
0.648112
0.746651
0.821502
0.874296
0.904521
0.915145
0.913848
0.909245
0.905999
0.904475
-0.353678
-0.321214
-0.258608
-0.17459
-0.0785195
0.0254487
0.136597
0.254828
0.38038
0.514032
0.639916
0.742772
0.822569
0.879603
0.913635
0.927413
0.92725
0.920692
0.910647
0.910492
-0.372894
-0.339943
-0.276685
-0.192152
-0.0955979
0.00898881
0.120733
0.239667
0.366188
0.501355
0.629597
0.736537
0.821822
0.883186
0.92106
0.939573
0.941569
0.931358
0.913303
0.910388
-0.391255
-0.358056
-0.294127
-0.209239
-0.11237
-0.00731142
0.104644
0.224065
0.35115
0.487322
0.617227
0.727319
0.818506
0.883879
0.922589
0.941249
0.946225
0.922432
0.864232
0.838856
-0.408635
-0.376379
-0.310525
-0.225371
-0.128097
-0.0229675
0.0886091
0.208296
0.335546
0.472103
0.602886
0.714556
0.811659
0.880917
0.913545
0.926886
0.916876
0.867144
0.805435
0.767716
-0.452474
-0.394125
-0.325693
-0.241306
-0.143543
-0.0389177
0.0727622
0.192241
0.319176
0.455358
0.586199
0.697674
0.797552
0.871926
0.892167
0.883099
0.83919
0.776099
0.70791
0.67046
-0.4275
-0.409195
-0.348783
-0.264001
-0.167243
-0.0628517
0.048101
0.166882
0.292815
0.427419
0.556587
0.665674
0.756587
0.837884
0.824815
0.720487
0.632622
0.571482
0.508498
0.536474
-0.459085
-0.427245
-0.365981
-0.281699
-0.185197
-0.0810336
0.0300641
0.148165
0.273026
0.405778
0.532219
0.637656
0.718149
0.763853
0.715879
0.580033
0.4736
0.401822
0.320709
0.36732
-0.483698
-0.449359
-0.386252
-0.301839
-0.205407
-0.101281
0.00969885
0.126992
0.250458
0.380761
0.503355
0.60273
0.672032
0.680178
0.577462
0.425299
0.29856
0.20786
0.113369
0.145767
-0.507729
-0.472253
-0.407687
-0.322572
-0.226026
-0.122007
-0.0115247
0.104801
0.226656
0.354125
0.471901
0.563223
0.616237
0.591957
0.437572
0.263189
0.105319
-0.0268716
-0.150034
-0.136371
-0.53152
-0.495584
-0.430044
-0.344293
-0.247553
-0.143721
-0.033872
0.0813449
0.201312
0.325539
0.437668
0.521277
0.553853
0.485735
0.300155
0.105464
-0.079836
-0.232192
-0.436662
-0.51528
-0.555755
-0.519816
-0.453671
-0.36744
-0.270484
-0.16679
-0.057506
0.056573
0.174534
0.29527
0.401366
0.476017
0.483634
0.364189
0.175017
-0.0318516
-0.222226
-0.382957
-0.506177
-0.624672
-0.581526
-0.545445
-0.478936
-0.392413
-0.295372
-0.191909
-0.0832821
0.0294878
0.145104
0.261809
0.361474
0.423845
0.404563
0.248826
0.0580911
-0.1429
-0.316618
-0.412979
-0.439046
-0.452557
-0.608966
-0.572762
-0.505977
-0.419316
-0.322371
-0.219307
-0.111582
-0.000428722
0.112397
0.224357
0.317154
0.362373
0.32441
0.138218
-0.0506478
-0.231427
-0.362546
-0.400072
-0.408913
-0.409219
-0.638363
-0.601898
-0.534836
-0.44814
-0.351434
-0.248999
-0.142435
-0.033239
0.0763378
0.182876
0.267811
0.297258
0.228635
0.0372766
-0.14557
-0.302627
-0.375932
-0.389843
-0.390861
-0.390678
-0.669733
-0.632892
-0.565531
-0.478884
-0.382582
-0.280981
-0.175856
-0.0689695
0.0369377
0.137447
0.213251
0.228522
0.122164
-0.0540355
-0.227039
-0.351271
-0.379457
-0.380027
-0.380536
-0.380109
-0.702821
-0.665573
-0.59796
-0.511466
-0.415729
-0.315204
-0.211827
-0.107608
-0.00575138
0.0881649
0.154704
0.151294
0.027546
-0.138342
-0.291113
-0.361313
-0.37604
-0.373799
-0.373401
-0.372984
-0.737057
-0.699593
-0.631857
-0.545653
-0.450687
-0.351512
-0.250203
-0.149044
-0.0515332
0.0354378
0.0924374
0.0733999
-0.0600799
-0.212586
-0.332518
-0.369256
-0.368575
-0.368755
-0.368316
-0.367882
-0.771999
-0.734414
-0.666732
-0.58102
-0.487092
-0.389578
-0.290704
-0.19301
-0.100153
-0.0197945
0.0250564
0.00036935
-0.139754
-0.270217
-0.355252
-0.363211
-0.365474
-0.366209
-0.365956
-0.36559
-0.806669
-0.76913
-0.701821
-0.61691
-0.524379
-0.428915
-0.33287
-0.23903
-0.151228
-0.0768006
-0.0424404
-0.073743
-0.208761
-0.315514
-0.360393
-0.370334
-0.365807
-0.364009
-0.36314
-0.362834
-0.839149
-0.802417
-0.736072
-0.652407
-0.561743
-0.468798
-0.37604
-0.286392
-0.204023
-0.135193
-0.104987
-0.150643
-0.266633
-0.359793
-0.378817
-0.373832
-0.365697
-0.359363
-0.357537
-0.357045
-0.868374
-0.832739
-0.768043
-0.686276
-0.598097
-0.508254
-0.419333
-0.334211
-0.257414
-0.194305
-0.166886
-0.21601
-0.310431
-0.391183
-0.412563
-0.389175
-0.368217
-0.357234
-0.35419
-0.353054
-0.89155
-0.857923
-0.795925
-0.716944
-0.632081
-0.546064
-0.4616
-0.381479
-0.310282
-0.252184
-0.229155
-0.266924
-0.331482
-0.396136
-0.397428
-0.397968
-0.39422
-0.389187
-0.384243
-0.381446
-0.906517
-0.875754
-0.817567
-0.742593
-0.662102
-0.580809
-0.501434
-0.427018
-0.361442
-0.307203
-0.284908
-0.314032
-0.323996
-0.369133
-0.383405
-0.420056
-0.449617
-0.451404
-0.444708
-0.44289
-0.910474
-0.883731
-0.830768
-0.761287
-0.686421
-0.610972
-0.537342
-0.469249
-0.40948
-0.360579
-0.330501
-0.363502
-0.333965
-0.280255
-0.347398
-0.418946
-0.454344
-0.461562
-0.461987
-0.463467
-0.901089
-0.879304
-0.833308
-0.771154
-0.703444
-0.635015
-0.568034
-0.506145
-0.453421
-0.41304
-0.368299
-0.431245
-0.44866
-0.391341
-0.442888
-0.465633
-0.471993
-0.480785
-0.487113
-0.489376
-0.875574
-0.85954
-0.823149
-0.770854
-0.712023
-0.651652
-0.592329
-0.536385
-0.491353
-0.458397
-0.432213
-0.516007
-0.711643
-0.803668
-0.742969
-0.642762
-0.586317
-0.564752
-0.557472
-0.555334
-0.837313
-0.827075
-0.801219
-0.760519
-0.711897
-0.660523
-0.60889
-0.559523
-0.51915
-0.497512
-0.495029
-0.589925
-0.728606
-0.909145
-0.758671
-0.623519
-0.589951
-0.569761
-0.555604
-0.550285
-0.793334
-0.787587
-0.772436
-0.743082
-0.704978
-0.662095
-0.617429
-0.574356
-0.535837
-0.516493
-0.502935
-0.510861
-0.419068
-0.326929
-0.245317
-0.3067
-0.383404
-0.406201
-0.402112
-0.404366
-0.753756
-0.75037
-0.743123
-0.723883
-0.694271
-0.658136
-0.619197
-0.578546
-0.542598
-0.514074
-0.506377
-0.44342
-0.325543
-0.28463
-0.41269
-0.542813
-0.594015
-0.542659
-0.468138
-0.459931
-0.724782
-0.722807
-0.719103
-0.707255
-0.684078
-0.652406
-0.615604
-0.576183
-0.535338
-0.504287
-0.506462
-0.449022
-0.44461
-0.459219
-0.48162
-0.615753
-0.710311
-0.742848
-0.716019
-0.692756
-0.702927
-0.702168
-0.700939
-0.69497
-0.677047
-0.647684
-0.610468
-0.566984
-0.52054
-0.478646
-0.441931
-0.443787
-0.419957
-0.541484
-0.699914
-0.75347
-0.785343
-0.754949
-0.695995
-0.66579
-0.69018
-0.689867
-0.689313
-0.686712
-0.673627
-0.644654
-0.603273
-0.55479
-0.501189
-0.431751
-0.364816
-0.283647
-0.328835
-0.405068
-0.536691
-0.5623
-0.47171
-0.25757
-0.0883924
-0.0171367
-0.681869
-0.681716
-0.681452
-0.681119
-0.67254
-0.643103
-0.597563
-0.542253
-0.471011
-0.386419
-0.2837
-0.114831
0.0593054
0.204902
0.386515
0.546361
0.792864
1.03418
1.17796
1.23167
-0.675455
-0.675971
-0.677019
-0.678232
-0.671348
-0.642327
-0.594086
-0.53121
-0.451233
-0.347108
-0.223357
-0.0728372
0.173822
0.467056
0.893167
1.31856
1.65046
1.87176
1.97298
2.0003
-0.666627
-0.667323
-0.667898
-0.667345
-0.66173
-0.639133
-0.59617
-0.531475
-0.441837
-0.322508
-0.197961
-0.0596715
0.162464
0.511498
0.971806
1.37837
1.69262
1.87325
1.94537
1.96167
-0.672365
-0.670293
-0.659839
-0.642798
-0.636486
-0.6376
-0.611123
-0.54043
-0.440667
-0.320734
-0.191229
-0.0691004
0.0951185
0.40407
0.779723
1.11372
1.35896
1.48715
1.53406
1.54348
-0.719156
-0.714014
-0.700354
-0.682214
-0.676117
-0.682677
-0.652044
-0.558331
-0.443413
-0.325072
-0.201329
-0.0933716
0.0165881
0.241101
0.530204
0.770831
0.941633
1.024
1.05426
1.05723
-0.81676
-0.819937
-0.836555
-0.857333
-0.853489
-0.824866
-0.725841
-0.5816
-0.446203
-0.325362
-0.212973
-0.127144
-0.0383771
0.115778
0.300198
0.451485
0.553765
0.60299
0.619169
0.62321
-0.930373
-0.948932
-0.986889
-1.01315
-1.00687
-0.94404
-0.778509
-0.59209
-0.444857
-0.321913
-0.229737
-0.159001
-0.108102
0.0124453
0.135476
0.215443
0.261635
0.28049
0.289993
0.293315
-0.929935
-0.94956
-0.982421
-1.00658
-0.997977
-0.916914
-0.730827
-0.56021
-0.421902
-0.31111
-0.234405
-0.18882
-0.152347
-0.0866392
-0.00579521
0.0550296
0.0837337
0.0977652
0.107717
0.11022
-0.729642
-0.74978
-0.78285
-0.812558
-0.807182
-0.725925
-0.592115
-0.471117
-0.359903
-0.28116
-0.232446
-0.200088
-0.184236
-0.110636
-0.0490264
-0.00814069
0.0120453
0.0248063
0.0297458
0.031402
-0.392632
-0.406471
-0.431922
-0.459599
-0.469688
-0.442249
-0.394243
-0.335062
-0.279049
-0.234335
-0.20725
-0.198041
-0.203157
-0.141638
-0.076114
-0.0346603
-0.0120057
0.0016184
0.00563839
0.00567353
-0.0869342
-0.0933343
-0.109359
-0.136271
-0.166117
-0.190069
-0.202908
-0.205134
-0.197083
-0.175247
-0.166227
-0.167146
-0.159882
-0.112623
-0.0714851
-0.0487319
-0.0268836
-0.0151459
-0.0112158
-0.0111289
0.0818394
0.0789138
0.0679433
0.0427709
0.00306347
-0.042763
-0.0815938
-0.109788
-0.123468
-0.121479
-0.117177
-0.107352
-0.0967426
-0.0628553
-0.03457
-0.0240377
-0.0171764
-0.0138144
-0.0127771
-0.0133756
0.136191
0.134281
0.126144
0.105789
0.0716514
0.0294828
-0.0127352
-0.0465181
-0.0688976
-0.0752964
-0.0666183
-0.0478059
-0.0250979
-0.0175165
-0.0120564
-0.00933171
-0.00662191
-0.00452286
-0.00413402
-0.00464965
0.135259
0.13397
0.128405
0.11418
0.0894419
0.0572907
0.022819
-0.00827869
-0.0306118
-0.0374315
-0.0267705
0.000412647
0.0257888
0.0294501
0.0223379
0.0147995
0.0144128
0.0154737
0.0152146
0.0140185
0.114914
0.114125
0.110528
0.101165
0.0843509
0.0613744
0.0352467
0.0102431
-0.00896161
-0.0146236
-0.000972455
0.0292368
0.0549955
0.0481779
0.0367404
0.0309416
0.0290091
0.0280124
0.0270149
0.0256279
0.0900583
0.0896088
0.087331
0.081273
0.0700842
0.0541577
0.0349953
0.0155246
-0.000624964
-0.0062576
0.00549257
0.0323062
0.0535209
0.0405477
0.024336
0.0189477
0.0204032
0.0227251
0.0222383
0.0206739
0.0661762
0.0659051
0.06448
0.0605717
0.053089
0.0420272
0.0278419
0.0123747
-0.00230171
-0.0114751
-0.00830414
0.00677642
0.0171087
0.0027652
-0.00740724
-0.00747851
-0.00556363
-0.0053602
-0.00651272
-0.00780635
0.0454605
0.0452624
0.0442805
0.0416508
0.0365033
0.0284925
0.0175624
0.00427688
-0.0107492
-0.0261249
-0.0390536
-0.0479239
-0.0550513
-0.0663074
-0.0670844
-0.0590403
-0.0527192
-0.0508222
-0.0515274
-0.0525825
0.0284529
0.0283108
0.0276013
0.0257877
0.0221394
0.0161418
0.00731423
-0.00475897
-0.0210655
-0.0441183
-0.077369
-0.117871
-0.158084
-0.160276
-0.138773
-0.119502
-0.109472
-0.107341
-0.10762
-0.108028
0.0154712
0.0153435
0.0148056
0.0135395
0.0109296
0.00637164
-0.000829592
-0.0117618
-0.0288863
-0.0574888
-0.106643
-0.176784
-0.225289
-0.214488
-0.182176
-0.162578
-0.157205
-0.156979
-0.156388
-0.155849
0.00648149
0.00636435
0.00596571
0.00509573
0.00329229
-4.75733e-05
-0.00577881
-0.0152373
-0.0308543
-0.059919
-0.110917
-0.180385
-0.216944
-0.200537
-0.177759
-0.169706
-0.170373
-0.17289
-0.172051
-0.171135
0.0011851
0.00108107
0.000803107
0.000283847
-0.000814295
-0.00299992
-0.00707175
-0.0140778
-0.0263259
-0.0497734
-0.0897547
-0.138728
-0.156096
-0.14268
-0.135294
-0.138789
-0.146325
-0.149844
-0.149026
-0.148076
-0.000872174
-0.000949435
-0.00111328
-0.00132633
-0.00180201
-0.0029087
-0.00518146
-0.0092617
-0.0164266
-0.0306769
-0.0527597
-0.0796732
-0.080538
-0.0722712
-0.075618
-0.0843279
-0.0914082
-0.0936032
-0.0927504
-0.0920246
-0.000470664
-0.000479586
-0.000515763
-0.000503427
-0.000387763
-0.000391116
-0.000614132
-0.00118419
-0.00235886
-0.00419368
-0.00774664
-0.0099942
-0.0177464
-0.0155109
-0.0197302
-0.018249
-0.0200141
-0.0193539
-0.0181844
-0.0181125
-0.00280682
0.186991
0.361726
0.51019
0.629961
0.725359
0.805146
0.869987
0.88666
0.882858
0.290264
0.412781
0.527833
0.628064
0.712693
0.782774
0.838066
0.875437
0.895393
0.911901
0.489779
0.571788
0.65288
0.724055
0.784829
0.835269
0.874979
0.905183
0.927843
0.947061
0.63783
0.695685
0.753986
0.806416
0.851735
0.890297
0.922622
0.949707
0.970077
0.988965
0.755286
0.798811
0.842004
0.882552
0.918762
0.95075
0.978706
1.00237
1.02037
1.0384
0.852628
0.888543
0.924065
0.958001
0.989283
1.01757
1.04253
1.06345
1.07927
1.09674
0.941374
0.973484
1.00592
1.03725
1.06635
1.0928
1.11598
1.13495
1.1489
1.16592
1.02857
1.06122
1.09372
1.125
1.15383
1.17967
1.20184
1.2194
1.23181
1.24834
1.12309
1.15954
1.19435
1.22685
1.25607
1.28146
1.30261
1.31891
1.33055
1.3467
1.23623
1.27683
1.31388
1.34687
1.37539
1.39941
1.41905
1.43434
1.44625
1.46233
1.37763
1.41874
1.45401
1.48363
1.50885
1.53048
1.54899
1.56448
1.57761
1.59356
1.54922
1.58165
1.60853
1.63085
1.65095
1.66968
1.68743
1.7042
1.71912
1.73485
1.73558
1.75285
1.76998
1.78666
1.80276
1.8175
1.83141
1.84589
1.86113
1.87843
1.91897
1.92895
1.94215
1.95314
1.96254
1.97221
1.98282
1.993
2.00229
2.02796
2.13688
2.13118
2.11823
2.10397
2.09768
2.10339
2.12154
2.15006
2.18382
2.22015
2.43969
2.30374
2.22424
2.18172
2.1644
2.16838
2.19581
2.25368
2.36134
2.53975
0.748237
0.741934
0.734201
0.723083
0.709507
0.696851
0.686442
0.678416
0.672679
0.669324
0.668946
0.671757
0.676972
0.684318
0.693859
0.705683
0.719241
0.732168
0.741156
0.748696
0.657314
0.663233
0.671302
0.67743
0.680493
0.679973
0.676876
0.672865
0.669256
0.666948
0.666788
0.669018
0.672754
0.677188
0.681281
0.683521
0.682443
0.677804
0.670748
0.662914
0.650576
0.652949
0.656213
0.658981
0.661425
0.663605
0.664772
0.664609
0.663649
0.662817
0.663005
0.664395
0.666159
0.667375
0.667291
0.665817
0.663654
0.661289
0.658304
0.655285
0.645806
0.646894
0.648808
0.65114
0.653004
0.654392
0.655597
0.656571
0.657147
0.657497
0.658022
0.658739
0.659187
0.659055
0.658416
0.657485
0.656148
0.654174
0.652063
0.650585
0.640807
0.641441
0.642566
0.644318
0.646152
0.647734
0.648969
0.650011
0.650966
0.651832
0.652585
0.653077
0.653193
0.65297
0.65242
0.651437
0.650002
0.648386
0.647045
0.646242
0.635914
0.636353
0.637139
0.638435
0.639947
0.641496
0.642956
0.644227
0.64535
0.646399
0.647312
0.647883
0.648036
0.647781
0.647101
0.64609
0.644927
0.643776
0.642868
0.642333
0.631118
0.631446
0.632055
0.633117
0.634401
0.635784
0.637241
0.638687
0.640041
0.641299
0.642401
0.643106
0.643302
0.643033
0.642416
0.641618
0.640759
0.639896
0.639229
0.638836
0.626395
0.62665
0.627141
0.628043
0.629203
0.630493
0.63189
0.633384
0.63492
0.63643
0.637771
0.638641
0.638944
0.638815
0.638409
0.637843
0.637194
0.636555
0.636067
0.635767
0.621676
0.621879
0.622287
0.623079
0.624159
0.6254
0.62678
0.628315
0.629987
0.631735
0.633361
0.634482
0.635012
0.635119
0.634946
0.6346
0.634154
0.633703
0.633354
0.633118
0.616877
0.617041
0.61739
0.618109
0.619141
0.620361
0.621768
0.623382
0.625205
0.627202
0.629163
0.630635
0.631482
0.631873
0.631948
0.631826
0.631588
0.631308
0.631073
0.630884
0.611912
0.612045
0.612353
0.613027
0.614041
0.615284
0.616757
0.618494
0.620521
0.622822
0.625193
0.627102
0.62833
0.629048
0.629404
0.62952
0.629489
0.629371
0.629232
0.62908
0.606694
0.606802
0.607082
0.607737
0.608768
0.610077
0.611658
0.613572
0.615869
0.618561
0.621441
0.62387
0.625546
0.626642
0.627314
0.627691
0.627867
0.627916
0.627862
0.627737
0.60113
0.601216
0.60148
0.602139
0.603224
0.604641
0.606387
0.608545
0.611195
0.614378
0.61788
0.620938
0.623143
0.624675
0.625703
0.626381
0.626793
0.626994
0.627013
0.62691
0.595113
0.59518
0.595438
0.596126
0.597299
0.598872
0.600846
0.603331
0.606436
0.610237
0.614503
0.618314
0.621144
0.623185
0.624619
0.625631
0.626299
0.626665
0.626756
0.62667
0.588515
0.588564
0.588825
0.589563
0.590866
0.59265
0.594928
0.597832
0.601508
0.606067
0.611263
0.615986
0.619565
0.622206
0.624116
0.625503
0.626467
0.62701
0.62717
0.627098
0.581187
0.581217
0.581486
0.582298
0.583775
0.585836
0.588503
0.591938
0.596326
0.601824
0.608151
0.613968
0.618437
0.621789
0.624262
0.626095
0.627392
0.628127
0.628356
0.628295
0.572934
0.572953
0.573224
0.574136
0.575839
0.578254
0.581415
0.585517
0.590792
0.597441
0.605141
0.612277
0.617805
0.621996
0.625137
0.627502
0.629179
0.630122
0.630423
0.630369
0.563447
0.563442
0.563768
0.564821
0.56682
0.56969
0.573481
0.578432
0.584826
0.592902
0.602269
0.61097
0.617742
0.622913
0.626836
0.629824
0.631936
0.633112
0.633485
0.633436
0.55245
0.552422
0.552795
0.55404
0.556413
0.55987
0.564469
0.570495
0.578292
0.588134
0.59952
0.610073
0.618305
0.62463
0.629469
0.633171
0.635786
0.637212
0.637656
0.637608
0.539463
0.539413
0.539863
0.541356
0.544212
0.548434
0.554081
0.561489
0.571054
0.583075
0.596896
0.609637
0.619565
0.627225
0.633129
0.637659
0.640836
0.642526
0.643037
0.642985
0.52384
0.523767
0.524339
0.526181
0.529683
0.534921
0.541955
0.551166
0.562987
0.577704
0.594447
0.609742
0.621614
0.630788
0.637918
0.643379
0.647174
0.649134
0.649701
0.649639
0.50465
0.50456
0.505329
0.507678
0.512091
0.518744
0.527674
0.539295
0.554038
0.572102
0.5923
0.610518
0.624566
0.635429
0.643905
0.650401
0.654851
0.657062
0.657666
0.657586
0.480487
0.480394
0.481494
0.484626
0.490406
0.499125
0.510739
0.52564
0.544165
0.566343
0.590572
0.612051
0.628497
0.64121
0.651129
0.658753
0.663845
0.666261
0.66687
0.666764
0.449034
0.448984
0.450685
0.455167
0.463228
0.475156
0.490725
0.510145
0.533515
0.560614
0.589435
0.6145
0.633503
0.648179
0.65964
0.668396
0.674049
0.676576
0.677146
0.677007
0.406169
0.406315
0.409314
0.416596
0.428915
0.446126
0.46755
0.493069
0.522488
0.555352
0.589236
0.618077
0.639702
0.656371
0.66938
0.679211
0.68524
0.687719
0.688194
0.688021
0.344218
0.345515
0.352792
0.36651
0.386616
0.412212
0.441891
0.475158
0.511686
0.550946
0.590198
0.622916
0.64717
0.665757
0.680181
0.690874
0.697021
0.699226
0.699539
0.699347
0.270134
0.272682
0.286818
0.310433
0.341192
0.376739
0.415383
0.456872
0.501011
0.547353
0.592893
0.630447
0.658172
0.679343
0.695592
0.707148
0.713366
0.715452
0.715736
0.715644
0.194228
0.20104
0.222268
0.255805
0.296956
0.34222
0.38985
0.439668
0.491546
0.545087
0.597039
0.639556
0.670833
0.694676
0.712844
0.725213
0.731169
0.73285
0.733058
0.733033
0.132354
0.141002
0.166834
0.207414
0.256754
0.310287
0.366025
0.423639
0.482891
0.543331
0.601428
0.648635
0.683193
0.709422
0.729091
0.742003
0.747929
0.74949
0.74976
0.749795
0.0816626
0.0910203
0.120359
0.16619
0.221696
0.281852
0.344436
0.408951
0.474978
0.541896
0.605786
0.657434
0.695044
0.72345
0.744647
0.758237
0.764299
0.766111
0.76648
0.766556
0.039175
0.0488448
0.0805893
0.130532
0.191104
0.256778
0.325167
0.39568
0.46776
0.540629
0.609969
0.665844
0.706412
0.736941
0.759593
0.774107
0.780691
0.782769
0.783182
0.783273
0.00243977
0.0122571
0.0458182
0.099063
0.163869
0.234272
0.307715
0.383535
0.461093
0.539478
0.61396
0.673829
0.717234
0.749795
0.773906
0.789381
0.796551
0.798828
0.799286
0.799369
-0.0302034
-0.0203184
0.0146844
0.0706679
0.139075
0.213576
0.291503
0.372132
0.45473
0.538253
0.617581
0.681251
0.727295
0.761781
0.787226
0.803584
0.811327
0.813828
0.814315
0.814381
-0.0599859
-0.0500465
-0.0138688
0.0444871
0.11602
0.194116
0.27604
0.361043
0.448311
0.536677
0.620645
0.687959
0.736497
0.772721
0.799353
0.816452
0.824726
0.827431
0.827938
0.827984
-0.0878306
-0.0778206
-0.0405776
0.0198854
0.0941733
0.175442
0.260944
0.349937
0.441567
0.534552
0.623007
0.693867
0.744803
0.782647
0.810341
0.828007
0.836645
0.839497
0.84002
0.84004
-0.114286
-0.104182
-0.0659476
-0.00358996
0.0731328
0.157229
0.245961
0.338609
0.434297
0.531705
0.624556
0.698938
0.752232
0.791611
0.820222
0.838356
0.847128
0.850075
0.85061
0.850603
-0.139784
-0.129516
-0.0903515
-0.026269
0.0526279
0.139259
0.230912
0.326905
0.426375
0.528009
0.625223
0.703161
0.758848
0.799727
0.829121
0.84756
0.856399
0.859337
0.859866
0.859846
-0.164593
-0.154085
-0.114029
-0.0483622
0.0324867
0.121384
0.215679
0.314735
0.417724
0.523398
0.624937
0.70653
0.764721
0.807128
0.837262
0.855895
0.864704
0.867585
0.868069
0.868008
-0.188803
-0.178032
-0.137117
-0.0699942
0.0126082
0.103541
0.200215
0.30206
0.408308
0.517817
0.623639
0.709049
0.769928
0.813963
0.844828
0.863545
0.872204
0.874967
0.875389
0.875305
-0.212507
-0.201466
-0.159717
-0.0912153
-0.00704102
0.085704
0.184512
0.288878
0.398119
0.511245
0.621285
0.710695
0.774524
0.82037
0.851961
0.870621
0.879022
0.881588
0.881912
0.88179
-0.235726
-0.224407
-0.181825
-0.112044
-0.0264624
0.0678902
0.168603
0.275229
0.387187
0.503675
0.617832
0.711405
0.778526
0.826486
0.858842
0.877263
0.885203
0.887467
0.887665
0.887513
-0.258515
-0.246848
-0.203414
-0.132464
-0.0456356
0.0501377
0.152535
0.261174
0.375566
0.49513
0.613243
0.711099
0.781893
0.832417
0.865696
0.883698
0.890893
0.892674
0.892719
0.892545
-0.28064
-0.268737
-0.224465
-0.152451
-0.0645085
0.0325222
0.13638
0.246785
0.36333
0.485666
0.607494
0.709687
0.784529
0.838184
0.872794
0.89034
0.896384
0.897335
0.897125
0.896946
-0.302257
-0.290012
-0.24494
-0.171974
-0.0830449
0.0150886
0.120232
0.232147
0.350568
0.475364
0.600581
0.707068
0.786283
0.843663
0.880326
0.89781
0.90236
0.901798
0.900964
0.900795
-0.323177
-0.310632
-0.264818
-0.190979
-0.10116
-0.00207456
0.104178
0.217383
0.337387
0.464292
0.592532
0.703146
0.786966
0.848563
0.888192
0.906738
0.910189
0.907363
0.90479
0.904203
-0.343498
-0.330619
-0.284037
-0.209403
-0.118811
-0.018896
0.0883088
0.202578
0.323898
0.452586
0.583412
0.697814
0.786368
0.852465
0.895803
0.917102
0.921385
0.917097
0.910879
0.901735
-0.363098
-0.349962
-0.302687
-0.227411
-0.136223
-0.0356627
0.0722811
0.187321
0.309644
0.439735
0.572694
0.690483
0.784046
0.855026
0.902421
0.928028
0.935994
0.931852
0.92122
0.919374
-0.381936
-0.368737
-0.320761
-0.244941
-0.153374
-0.052341
0.0561287
0.171595
0.294595
0.425618
0.560204
0.680676
0.779274
0.855445
0.906037
0.935032