/*--------------------------------*- C++ -*----------------------------------*\
  =========                 |
  \\      /  F ield         | OpenFOAM: The Open Source CFD Toolbox
   \\    /   O peration     | Website:  https://openfoam.org
    \\  /    A nd           | Version:  6
     \\/     M anipulation  |
\*---------------------------------------------------------------------------*/
FoamFile
{
    version     2.0;
    format      ascii;
    class       volVectorField;
    location    "50.5";
    object      U;
}
// * * * * * * * * * * * * * * * * * * * * * * * * * * * * * * * * * * * * * //

dimensions      [0 1 -1 0 0 0 0];

internalField   nonuniform List<vector> 
8800
(
(0.987184 -0.0766674 0)
(1.00189 -0.0551945 0)
(0.999722 -0.0285541 0)
(1.00002 -0.0151501 0)
(1.00006 -0.00855192 0)
(1.00007 -0.00505533 0)
(1.00005 -0.00301391 0)
(1.00002 -0.00171482 0)
(0.999999 -0.000808604 0)
(1.00006 -9.31124e-05 0)
(0.999988 0.000633588 0)
(0.999995 0.0013945 0)
(1.00001 0.00241727 0)
(1.00003 0.00399453 0)
(1.00003 0.00663014 0)
(1.00001 0.0113689 0)
(0.999887 0.0208127 0)
(0.999144 0.0386705 0)
(1.00709 0.0724567 0)
(0.771212 0.0366609 0)
(0.363048 -0.0160193 0)
(1.04329 -0.0768275 0)
(1.08458 -0.0704665 0)
(1.04517 -0.0535697 0)
(1.02325 -0.0389291 0)
(1.01197 -0.0262595 0)
(1.00637 -0.0169075 0)
(1.00356 -0.0103815 0)
(1.00214 -0.00572433 0)
(1.00145 -0.00207145 0)
(1.00131 0.00124753 0)
(1.00168 0.00462631 0)
(1.00265 0.0085603 0)
(1.00464 0.013907 0)
(1.00858 0.0216265 0)
(1.01655 0.0326042 0)
(1.03246 0.0465221 0)
(1.06262 0.0616428 0)
(1.09187 0.0760895 0)
(0.838686 0.0565569 0)
(0.216799 -0.00243234 0)
(1.07585 -0.0501654 0)
(1.09984 -0.0483537 0)
(1.06459 -0.0405187 0)
(1.03996 -0.033673 0)
(1.02383 -0.0261644 0)
(1.01406 -0.0185922 0)
(1.00852 -0.0117799 0)
(1.00557 -0.00591998 0)
(1.00432 -0.000508112 0)
(1.00468 0.00473841 0)
(1.0066 0.0101266 0)
(1.0106 0.0162305 0)
(1.01792 0.0232737 0)
(1.03053 0.0307533 0)
(1.05062 0.0377968 0)
(1.08032 0.0444876 0)
(1.10625 0.0513126 0)
(0.942573 0.0416007 0)
(0.216197 0.00245985 0)
(0.175093 -0.000819025 0)
(1.01757 -0.0355232 0)
(1.10513 -0.0414434 0)
(1.07818 -0.0361441 0)
(1.05336 -0.0302241 0)
(1.03609 -0.0246637 0)
(1.02392 -0.0189537 0)
(1.01583 -0.0128879 0)
(1.01099 -0.0067115 0)
(1.00881 -0.000388446 0)
(1.0094 0.00586134 0)
(1.01266 0.0118618 0)
(1.01887 0.0177164 0)
(1.02877 0.0233131 0)
(1.04323 0.0286301 0)
(1.06375 0.0341326 0)
(1.09355 0.0401325 0)
(1.09344 0.0419128 0)
(0.827275 0.022892 0)
(0.17408 0.000850556 0)
(0.153855 -0.000613148 0)
(0.955962 -0.0255064 0)
(1.10333 -0.0352131 0)
(1.08756 -0.0327614 0)
(1.06157 -0.0281305 0)
(1.04396 -0.0231307 0)
(1.03153 -0.0179061 0)
(1.02272 -0.012394 0)
(1.01693 -0.00647519 0)
(1.01412 -1.66768e-05 0)
(1.01482 0.00644462 0)
(1.01881 0.0123315 0)
(1.02582 0.01765 0)
(1.03612 0.0226 0)
(1.05071 0.0273772 0)
(1.07195 0.0319304 0)
(1.1001 0.0358827 0)
(1.06818 0.0339653 0)
(0.739776 0.0142866 0)
(0.15233 0.000648864 0)
(0.13944 -0.000469668 0)
(0.898925 -0.0191348 0)
(1.09558 -0.0301857 0)
(1.09557 -0.0293245 0)
(1.06904 -0.0256152 0)
(1.05061 -0.0214992 0)
(1.03773 -0.0167553 0)
(1.02866 -0.0115048 0)
(1.02259 -0.00579051 0)
(1.0195 0.000519713 0)
(1.02016 0.00682846 0)
(1.02427 0.0124671 0)
(1.03141 0.0174573 0)
(1.04195 0.0219533 0)
(1.0571 0.025943 0)
(1.07931 0.0294426 0)
(1.10236 0.0320981 0)
(1.03619 0.0280343 0)
(0.673349 0.0101781 0)
(0.13729 0.000510871 0)
(0.128851 -0.000364588 0)
(0.849169 -0.0147824 0)
(1.08309 -0.0260777 0)
(1.1012 -0.0264135 0)
(1.07584 -0.023162 0)
(1.05688 -0.0195559 0)
(1.04354 -0.0153475 0)
(1.03413 -0.0104552 0)
(1.02783 -0.00495294 0)
(1.02457 0.00117132 0)
(1.02511 0.00726505 0)
(1.02919 0.0126292 0)
(1.03643 0.017223 0)
(1.04726 0.0211324 0)
(1.06282 0.0244555 0)
(1.08548 0.0274308 0)
(1.10153 0.0292213 0)
(1.00142 0.0234942 0)
(0.62169 0.00780599 0)
(0.12594 0.000413011 0)
(0.120753 -0.000284204 0)
(0.806834 -0.0116343 0)
(1.06768 -0.0224897 0)
(1.10463 -0.0238068 0)
(1.08201 -0.0209741 0)
(1.06265 -0.0175849 0)
(1.04905 -0.0136927 0)
(1.03936 -0.00916488 0)
(1.03278 -0.00395385 0)
(1.02929 0.00195134 0)
(1.02968 0.00780358 0)
(1.03372 0.0128179 0)
(1.04104 0.0169306 0)
(1.05199 0.0203311 0)
(1.06777 0.0232492 0)
(1.09076 0.0259379 0)
(1.09782 0.0268479 0)
(0.966349 0.0199239 0)
(0.580252 0.0062621 0)
(0.116918 0.000341954 0)
(0.114459 -0.000221336 0)
(0.771142 -0.00928165 0)
(1.05075 -0.0193359 0)
(1.10692 -0.021406 0)
(1.08781 -0.0189518 0)
(1.06806 -0.0157226 0)
(1.05421 -0.0120094 0)
(1.04434 -0.00769084 0)
(1.03754 -0.00272491 0)
(1.03378 0.00289978 0)
(1.03397 0.0084251 0)
(1.03791 0.0130634 0)
(1.04517 0.016781 0)
(1.05614 0.0198057 0)
(1.07215 0.0223991 0)
(1.09481 0.0247555 0)
(1.09135 0.0248702 0)
(0.932296 0.0171591 0)
(0.546032 0.00520424 0)
(0.1095 0.000290633 0)
(0.109533 -0.000170939 0)
(0.741148 -0.00745729 0)
(1.03334 -0.0165392 0)
(1.10822 -0.0191469 0)
(1.09328 -0.017026 0)
(1.07326 -0.0139086 0)
(1.05916 -0.0102909 0)
(1.0491 -0.00611185 0)
(1.04208 -0.00134151 0)
(1.03806 0.00403933 0)
(1.03799 0.00925797 0)
(1.04174 0.0135301 0)
(1.04888 0.0168731 0)
(1.05982 0.0195622 0)
(1.07601 0.0218658 0)
(1.09757 0.0238403 0)
(1.08247 0.0232122 0)
(0.899841 0.0150372 0)
(0.516998 0.00445935 0)
(0.10321 0.000254041 0)
(0.105693 -0.000129301 0)
(0.716029 -0.00598865 0)
(1.01629 -0.0140376 0)
(1.10868 -0.0169651 0)
(1.09866 -0.0151136 0)
(1.07837 -0.0120024 0)
(1.06397 -0.00844195 0)
(1.0537 -0.0043593 0)
(1.04645 0.000270311 0)
(1.04215 0.0054145 0)
(1.04174 0.0103055 0)
(1.04519 0.0142293 0)
(1.05215 0.0172239 0)
(1.06309 0.0195727 0)
(1.07949 0.0216167 0)
(1.09904 0.0232184 0)
(1.07163 0.021888 0)
(0.869127 0.0134513 0)
(0.491717 0.00394052 0)
(0.0977096 0.000229637 0)
(0.102746 -9.31966e-05 0)
(0.695142 -0.00475644 0)
(1.00019 -0.0117551 0)
(1.10843 -0.0148432 0)
(1.10387 -0.0132234 0)
(1.08347 -0.0101094 0)
(1.06876 -0.00652574 0)
(1.05823 -0.00244196 0)
(1.0507 0.00210242 0)
(1.04602 0.00706258 0)
(1.04521 0.0116691 0)
(1.04834 0.0152536 0)
(1.05508 0.0179184 0)
(1.06595 0.0199626 0)
(1.08249 0.021745 0)
(1.09956 0.0229179 0)
(1.05908 0.0208908 0)
(0.840012 0.012301 0)
(0.469121 0.00358932 0)
(0.0927442 0.000214666 0)
(0.100575 -6.00013e-05 0)
(0.678024 -0.00367517 0)
(0.98553 -0.00962226 0)
(1.10765 -0.01265 0)
(1.10883 -0.0111482 0)
(1.08861 -0.0079868 0)
(1.07357 -0.00435844 0)
(1.06273 -0.000277549 0)
(1.05483 0.00422641 0)
(1.0497 0.00906232 0)
(1.04839 0.0134289 0)
(1.05111 0.0166894 0)
(1.05762 0.0189953 0)
(1.06844 0.0206696 0)
(1.08501 0.022166 0)
(1.09909 0.0229975 0)
(1.04506 0.0202207 0)
(0.812226 0.0115143 0)
(0.448392 0.00336735 0)
(0.0881193 0.000207025 0)
(0.0991155 -2.75809e-05 0)
(0.664377 -0.00267683 0)
(0.97265 -0.00756802 0)
(1.10673 -0.0103755 0)
(1.11376 -0.00892323 0)
(1.09388 -0.00567864 0)
(1.07843 -0.00192635 0)
(1.06723 0.00225571 0)
(1.05891 0.00677763 0)
(1.05322 0.0114837 0)
(1.05132 0.0155712 0)
(1.05354 0.018493 0)
(1.05973 0.0204521 0)
(1.07048 0.0217896 0)
(1.0871 0.0230206 0)
(1.09747 0.023413 0)
(1.02965 0.0198805 0)
(0.785378 0.0110364 0)
(0.42886 0.00325051 0)
(0.0836744 0.000205771 0)
(0.0983538 6.24183e-06 0)
(0.654056 -0.00170275 0)
(0.961855 -0.00550549 0)
(1.10588 -0.00791962 0)
(1.11868 -0.0064588 0)
(1.09934 -0.00310912 0)
(1.08349 0.000833337 0)
(1.07183 0.00517893 0)
(1.06294 0.00977335 0)
(1.05656 0.0144285 0)
(1.05394 0.0182978 0)
(1.0556 0.0208739 0)
(1.06145 0.022458 0)
(1.07207 0.0233915 0)
(1.08861 0.0243062 0)
(1.0946 0.0242005 0)
(1.01287 0.0198608 0)
(0.759077 0.0108277 0)
(0.409992 0.00322107 0)
(0.0792852 0.000209756 0)
(0.0983146 3.93375e-05 0)
(0.647041 -0.000705997 0)
(0.953475 -0.00337204 0)
(1.10553 -0.00521507 0)
(1.1238 -0.00358728 0)
(1.10508 -3.20555e-05 0)
(1.08878 0.00413476 0)
(1.0766 0.00866272 0)
(1.06707 0.0133799 0)
(1.05987 0.0180053 0)
(1.05637 0.0216354 0)
(1.05728 0.0238436 0)
(1.06267 0.024993 0)
(1.07318 0.0254944 0)
(1.0894 0.0260475 0)
(1.09027 0.0254101 0)
(0.994659 0.0202147 0)
(0.732865 0.0108805 0)
(0.391299 0.003275 0)
(0.074834 0.000219111 0)
(0.0990319 7.80912e-05 0)
(0.64342 0.000328316 0)
(0.947816 -0.0010854 0)
(1.10602 -0.00220539 0)
(1.12936 -0.00032949 0)
(1.11123 0.00349861 0)
(1.09439 0.00799643 0)
(1.08158 0.0128315 0)
(1.07125 0.0177526 0)
(1.06303 0.0223626 0)
(1.05848 0.0257202 0)
(1.05855 0.0275187 0)
(1.06339 0.0282299 0)
(1.07374 0.0282862 0)
(1.08934 0.0284045 0)
(1.0844 0.0270835 0)
(0.974819 0.020946 0)
(0.706252 0.0111774 0)
(0.372328 0.00340419 0)
(0.0702137 0.000232965 0)
(0.100716 0.000138763 0)
(0.643596 0.00149023 0)
(0.945244 0.00143738 0)
(1.10771 0.0012369 0)
(1.13543 0.00349589 0)
(1.11788 0.00767776 0)
(1.10047 0.0125923 0)
(1.08688 0.0178111 0)
(1.07555 0.0229861 0)
(1.06609 0.0276639 0)
(1.06025 0.030811 0)
(1.05931 0.0321279 0)
(1.06352 0.0323022 0)
(1.07366 0.0318599 0)
(1.08816 0.0314634 0)
(1.07673 0.0292738 0)
(0.953103 0.0220906 0)
(0.678728 0.0117207 0)
(0.352646 0.0036066 0)
(0.0653272 0.000251082 0)
(0.103411 0.000198454 0)
(0.647864 0.0028918 0)
(0.946228 0.00434366 0)
(1.11118 0.00526114 0)
(1.14228 0.00809162 0)
(1.12519 0.012798 0)
(1.1071 0.018223 0)
(1.09255 0.0238883 0)
(1.07998 0.0293892 0)
(1.069 0.0341067 0)
(1.06161 0.0369391 0)
(1.05951 0.0377205 0)
(1.06297 0.0373012 0)
(1.07283 0.0362762 0)
(1.0857 0.0352916 0)
(1.06696 0.0320892 0)
(0.929136 0.0236969 0)
(0.649721 0.0125161 0)
(0.331825 0.00388117 0)
(0.0600801 0.000273258 0)
(0.107413 0.000279918 0)
(0.656867 0.00457611 0)
(0.95114 0.00770155 0)
(1.1169 0.00999362 0)
(1.15027 0.0135563 0)
(1.13337 0.0189438 0)
(1.11443 0.0250235 0)
(1.09874 0.0312906 0)
(1.08467 0.0371907 0)
(1.07181 0.041937 0)
(1.06259 0.0443787 0)
(1.05911 0.0445085 0)
(1.06163 0.0434092 0)
(1.07116 0.041709 0)
(1.08195 0.0400732 0)
(1.05475 0.0356192 0)
(0.902425 0.0257941 0)
(0.618619 0.0135643 0)
(0.309437 0.0042228 0)
(0.054388 0.000298388 0)
(0.113048 0.000388236 0)
(0.671253 0.00666293 0)
(0.96087 0.0118346 0)
(1.12539 0.0156917 0)
(1.15963 0.020174 0)
(1.14267 0.0264364 0)
(1.12269 0.0333623 0)
(1.10551 0.0403541 0)
(1.08954 0.0466953 0)
(1.07445 0.0514556 0)
(1.06302 0.0533714 0)
(1.05789 0.0527164 0)
(1.05934 0.0508206 0)
(1.0685 0.0483729 0)
(1.07668 0.0459355 0)
(1.03964 0.0399622 0)
(0.872408 0.0284363 0)
(0.584758 0.0148674 0)
(0.285065 0.00462368 0)
(0.0481857 0.000325135 0)
(0.120826 0.000542243 0)
(0.69203 0.00939996 0)
(0.976204 0.0169949 0)
(1.13734 0.0227082 0)
(1.17085 0.0284574 0)
(1.15338 0.035919 0)
(1.13203 0.0438256 0)
(1.1129 0.0515936 0)
(1.09453 0.0583724 0)
(1.07669 0.0630082 0)
(1.06271 0.0641972 0)
(1.0557 0.0625437 0)
(1.05596 0.0596896 0)
(1.06466 0.0563836 0)
(1.06957 0.0529863 0)
(1.02106 0.0452366 0)
(0.838358 0.0316437 0)
(0.54743 0.0164041 0)
(0.258327 0.0050658 0)
(0.041432 0.000351301 0)
(0.131519 0.000766838 0)
(0.720566 0.0131599 0)
(0.998266 0.0236425 0)
(1.1536 0.0315386 0)
(1.18464 0.0388726 0)
(1.16583 0.047888 0)
(1.14255 0.0569687 0)
(1.12093 0.0656114 0)
(1.09959 0.0727342 0)
(1.07846 0.0769541 0)
(1.06156 0.0770789 0)
(1.05244 0.074188 0)
(1.05141 0.0702009 0)
(1.05944 0.0658274 0)
(1.0602 0.0612805 0)
(0.998276 0.0514749 0)
(0.799481 0.0354001 0)
(0.505943 0.0181174 0)
(0.228951 0.00551328 0)
(0.034138 0.000372827 0)
(0.146369 0.00111919 0)
(0.758796 0.0185525 0)
(1.02866 0.0325378 0)
(1.175 0.0430911 0)
(1.20164 0.0523729 0)
(1.1804 0.0632852 0)
(1.15443 0.0737062 0)
(1.12952 0.0831238 0)
(1.10444 0.0902607 0)
(1.07944 0.0936829 0)
(1.05926 0.092334 0)
(1.04786 0.0878472 0)
(1.04549 0.0825354 0)
(1.05253 0.076949 0)
(1.04794 0.071073 0)
(0.970382 0.0587248 0)
(0.754895 0.03966 0)
(0.459689 0.0199158 0)
(0.196874 0.00591273 0)
(0.0264011 0.000384231 0)
(0.167506 0.00172766 0)
(0.809862 0.0267149 0)
(1.06994 0.0452145 0)
(1.20262 0.0592268 0)
(1.22253 0.0712662 0)
(1.19714 0.0839578 0)
(1.16731 0.0955172 0)
(1.13805 0.105218 0)
(1.10848 0.111703 0)
(1.07912 0.113532 0)
(1.05543 0.110046 0)
(1.04169 0.103598 0)
(1.0379 0.0967827 0)
(1.04356 0.0901085 0)
(1.03208 0.0823501 0)
(0.936255 0.0669429 0)
(0.703709 0.0442838 0)
(0.408371 0.0216538 0)
(0.162425 0.0061897 0)
(0.0184486 0.000378272 0)
(0.198235 0.00306279 0)
(0.879378 0.0402342 0)
(1.12563 0.0654079 0)
(1.237 0.0835305 0)
(1.24711 0.0982761 0)
(1.21547 0.112226 0)
(1.18044 0.123966 0)
(1.14593 0.132813 0)
(1.11129 0.137543 0)
(1.07725 0.136822 0)
(1.04993 0.13053 0)
(1.03382 0.121674 0)
(1.02868 0.113023 0)
(1.03248 0.105094 0)
(1.01176 0.0950682 0)
(0.894534 0.075844 0)
(0.645348 0.048969 0)
(0.352641 0.023165 0)
(0.126856 0.00628398 0)
(0.0107545 0.000345285 0)
(0.240206 0.00915906 1.05717e-20)
(0.971224 0.0669404 9.0347e-21)
(1.1934 0.0995761 -3.13584e-21)
(1.27497 0.119562 0)
(1.27257 0.136843 -7.81435e-35)
(1.23323 0.150269 1.1384e-21)
(1.1922 0.160483 -2.03257e-21)
(1.15189 0.16712 0)
(1.11173 0.169059 4.13198e-35)
(1.07261 0.165023 -2.47646e-21)
(1.0414 0.155394 0)
(1.02274 0.143939 -2.92307e-21)
(1.01617 0.133505 -8.61275e-21)
(1.01792 0.124424 -4.0692e-21)
(0.984317 0.112197 -1.22401e-21)
(0.840613 0.0877632 -7.27198e-22)
(0.574088 0.054724 0)
(0.29029 0.0249237 5.10103e-22)
(0.0906669 0.0066673 6.04251e-22)
(0.00360154 0.000348848 1.10176e-20)
(0.269327 0.0240703 7.98701e-21)
(1.0472 0.109128 1.0657e-22)
(1.24917 0.148291 8.47965e-22)
(1.30898 0.168187 0)
(1.29482 0.185712 -4.00828e-21)
(1.24833 0.197019 -4.52625e-21)
(1.20132 0.204984 -2.06052e-21)
(1.1551 0.209167 -7.27698e-21)
(1.10916 0.208359 0)
(1.06442 0.201094 1.05491e-20)
(1.02848 0.188156 1.04294e-20)
(1.00658 0.174065 3.09443e-21)
(0.997627 0.161628 1.12474e-20)
(0.993434 0.150212 1.57749e-20)
(0.942566 0.134098 0)
(0.769417 0.102738 2.22638e-20)
(0.491062 0.0623148 3.19968e-20)
(0.224645 0.0271936 3.56278e-20)
(0.055685 0.00652707 -4.08866e-20)
(-0.00315821 -0.000168027 -7.78062e-22)
(0.270861 0.0406071 0)
(1.09553 0.163778 1.43754e-21)
(1.28679 0.207907 0)
(1.33537 0.227591 -5.37999e-21)
(1.31214 0.242422 0)
(1.25969 0.249913 -8.96701e-21)
(1.20705 0.254242 4.23033e-21)
(1.15514 0.254915 -1.47241e-20)
(1.10359 0.250539 -3.15876e-22)
(1.05341 0.23945 5.4796e-21)
(1.01295 0.222989 2.29554e-20)
(0.987968 0.20632 -5.55881e-23)
(0.976593 0.191929 -8.17961e-21)
(0.966919 0.178021 -1.48901e-20)
(0.904733 0.157414 1.76406e-20)
(0.719649 0.118652 -3.12917e-20)
(0.445372 0.0704764 -4.1464e-21)
(0.195834 0.0300242 0)
(0.0423692 0.00640001 -1.42207e-24)
(-0.00574766 -0.000776752 0)
(0.264734 0.0545799 2.03378e-20)
(1.12183 0.222173 -9.626e-21)
(1.31011 0.27218 -7.07442e-21)
(1.3527 0.292373 2.57491e-21)
(1.32314 0.303585 -4.30792e-21)
(1.26621 0.306659 1.88589e-20)
(1.2089 0.306676 8.86407e-21)
(1.15204 0.303203 0)
(1.09546 0.294731 -2.76508e-20)
(1.04033 0.279593 0)
(0.995693 0.259535 -1.20853e-20)
(0.967576 0.24006 -1.48628e-20)
(0.95356 0.223496 -8.92258e-21)
(0.939587 0.207052 -1.08289e-20)
(0.872221 0.182199 0)
(0.686849 0.136997 0)
(0.423978 0.0817424 -2.70968e-20)
(0.189 0.0356259 5.36866e-21)
(0.0410414 0.00737245 -3.14674e-21)
(-0.00637585 -0.001266 -3.72736e-21)
(0.257531 0.0669428 -8.98893e-21)
(1.1337 0.280594 0)
(1.32305 0.33757 1.48736e-20)
(1.36203 0.358694 7.35659e-21)
(1.32796 0.366268 9.91152e-21)
(1.26775 0.36494 0)
(1.20677 0.360535 8.73919e-21)
(1.14583 0.352744 1.63832e-20)
(1.08493 0.340024 1.4217e-20)
(1.02538 0.320636 2.58785e-20)
(0.976755 0.296582 0)
(0.945599 0.274031 -3.21106e-20)
(0.929092 0.25536 -1.93166e-20)
(0.91202 0.236949 -1.14182e-20)
(0.843235 0.208092 7.00806e-20)
(0.664302 0.157715 8.37044e-21)
(0.416516 0.0965138 3.94362e-20)
(0.19391 0.0437893 -1.86884e-19)
(0.0471833 0.010173 1.10796e-19)
(-0.0050559 -0.00130225 -1.35238e-19)
(0.250742 0.0781243 -5.34465e-21)
(1.13647 0.337178 1.64172e-21)
(1.32855 0.402216 -1.70296e-21)
(1.365 0.424601 -7.77348e-21)
(1.32759 0.428703 -8.56157e-21)
(1.26486 0.423143 3.61165e-22)
(1.20098 0.414472 -9.47178e-21)
(1.1367 0.402483 1.70066e-20)
(1.07212 0.385578 -3.06303e-20)
(1.00855 0.361822 0)
(0.956242 0.333796 -1.45735e-20)
(0.922315 0.308566 -3.25867e-22)
(0.903611 0.288147 -2.11465e-20)
(0.883823 0.267663 0)
(0.815532 0.235215 -1.52052e-20)
(0.646412 0.180367 -3.6254e-20)
(0.415133 0.113402 9.71026e-20)
(0.203133 0.0544907 -9.56689e-20)
(0.0570367 0.0149188 1.36147e-19)
(-0.00240036 -0.000795533 -1.43274e-19)
(0.245146 0.088529 -1.04596e-22)
(1.13367 0.391266 -8.55262e-22)
(1.32868 0.465089 -5.17221e-21)
(1.36302 0.488927 3.25133e-21)
(1.32306 0.48985 -4.33948e-21)
(1.25838 0.480326 0)
(1.19217 0.467661 -8.9044e-21)
(1.12511 0.451722 -1.78447e-20)
(1.05734 0.430788 -1.59567e-20)
(0.990161 0.402824 0)
(0.934548 0.371267 -1.5163e-20)
(0.89815 0.343716 -1.87267e-20)
(0.877178 0.321389 2.29572e-20)
(0.855052 0.298543 -1.39358e-20)
(0.787885 0.263257 -6.64738e-20)
(0.629619 0.204335 3.96988e-20)
(0.414297 0.13165 1.18761e-20)
(0.212978 0.0666437 0)
(0.0673938 0.0209595 -1.31886e-19)
(0.000622948 0.000108242 -4.90073e-21)
(0.240851 0.0984827 -9.0326e-23)
(1.12751 0.442701 3.42218e-22)
(1.3249 0.525632 2.49017e-21)
(1.35727 0.550983 1.14235e-20)
(1.3153 0.549072 -1.62471e-20)
(1.24914 0.535931 1.84294e-20)
(1.18104 0.519615 1.91792e-20)
(1.11159 0.50002 -2.85339e-20)
(1.04096 0.475263 9.78869e-21)
(0.970589 0.443384 -6.37717e-20)
(0.912067 0.408523 -1.71216e-20)
(0.873325 0.378323 0)
(0.850112 0.353627 2.49044e-20)
(0.826231 0.32879 2.98484e-20)
(0.760423 0.29097 3.57795e-20)
(0.611869 0.228301 -4.31421e-20)
(0.411004 0.150458 -1.28075e-20)
(0.219717 0.0796318 1.50625e-20)
(0.0760455 0.0275597 0)
(0.00342908 0.00123922 -1.06452e-20)
(0.237721 0.108082 -3.81816e-21)
(1.11961 0.491528 9.19122e-22)
(1.31851 0.58408 -2.30261e-21)
(1.34871 0.61042 7.06789e-21)
(1.3051 0.605984 -7.44964e-21)
(1.23781 0.589596 -8.22205e-22)
(1.16817 0.570011 -2.09312e-20)
(1.09665 0.547066 -1.03191e-20)
(1.02345 0.518732 -2.77365e-20)
(0.950196 0.483168 5.7608e-23)
(0.88897 0.444854 -5.36812e-20)
(0.84797 0.411497 4.51349e-20)
(0.82287 0.384517 -2.73514e-20)
(0.797783 0.358212 3.28924e-20)
(0.732931 0.317626 0)
(0.592826 0.250709 -2.34058e-20)
(0.404544 0.168603 -3.17674e-23)
(0.222341 0.0921265 -6.56782e-20)
(0.0816813 0.0338227 -9.68638e-21)
(0.00558397 0.00234988 0)
(0.235655 0.117533 0)
(1.11088 0.53796 1.74968e-21)
(1.3101 0.639852 -2.57758e-21)
(1.33811 0.667066 -6.5878e-21)
(1.29314 0.660374 -9.28774e-21)
(1.22498 0.641115 0)
(1.15405 0.61862 -9.60591e-21)
(1.0807 0.592615 -2.24344e-22)
(1.00518 0.560992 5.94404e-20)
(0.929231 0.521902 -8.77716e-21)
(0.865317 0.479883 -3.87516e-20)
(0.822219 0.443393 2.3497e-20)
(0.795722 0.414668 -4.3822e-22)
(0.769465 0.38698 3.4973e-20)
(0.704634 0.342752 2.16038e-20)
(0.571884 0.271464 -5.05285e-20)
(0.3947 0.185333 6.00028e-20)
(0.220419 0.103046 1.77948e-20)
(0.0835444 0.0389661 7.36598e-20)
(0.0068511 0.00323605 -1.99272e-19)
(0.234544 0.126979 -2.55136e-21)
(1.10197 0.582173 2.61251e-21)
(1.30038 0.692875 -1.13592e-21)
(1.32612 0.72086 5.36439e-21)
(1.27996 0.712143 0)
(1.21113 0.690351 -8.65188e-21)
(1.13911 0.665277 3.21507e-20)
(1.06413 0.636502 2.26557e-20)
(0.986477 0.601894 0)
(0.907894 0.559429 -1.2621e-19)
(0.841283 0.513716 1.04755e-19)
(0.796285 0.474571 0)
(0.768687 0.444451 3.19306e-20)
(0.740924 0.414593 -4.4114e-22)
(0.675494 0.36579 -6.89959e-20)
(0.54899 0.29003 2.70626e-20)
(0.381522 0.19954 0)
(0.214441 0.111526 9.59674e-20)
(0.0820773 0.0423554 0)
(0.00722252 0.0037376 -9.42281e-20)
(0.234206 0.136429 3.43273e-21)
(1.09325 0.624314 4.45815e-21)
(1.28975 0.74316 -8.63044e-22)
(1.31321 0.771806 0)
(1.266 0.761269 -8.07577e-21)
(1.19665 0.737245 0)
(1.1237 0.709877 -3.18755e-20)
(1.04725 0.678628 -1.05945e-20)
(0.967606 0.641359 1.05147e-20)
(0.886413 0.595727 -6.24294e-20)
(0.817097 0.546646 1.08302e-20)
(0.770329 0.505318 0)
(0.741568 0.473474 -6.81749e-20)
(0.711783 0.440085 4.39597e-22)
(0.645589 0.385991 0)
(0.524303 0.305874 3.37913e-22)
(0.365131 0.210715 8.73884e-20)
(0.20471 0.117154 -8.28546e-20)
(0.0778333 0.0438216 2.45239e-20)
(0.00676742 0.00380492 0)
(0.234282 0.145766 0)
(1.08492 0.664388 6.07825e-21)
(1.27862 0.790791 2.85354e-21)
(1.29979 0.819954 -4.96871e-22)
(1.25163 0.807767 -2.86199e-21)
(1.18186 0.781772 -1.93804e-20)
(1.10809 0.752375 1.18968e-20)
(1.03032 0.718953 -1.24323e-20)
(0.948806 0.679349 4.6829e-20)
(0.864997 0.630849 -9.97351e-20)
(0.792978 0.578876 -7.47688e-22)
(0.744411 0.535495 -2.99024e-20)
(0.714131 0.501022 1.10576e-19)
(0.681951 0.462864 -5.13022e-22)
(0.615227 0.403412 -5.3458e-20)
(0.498376 0.319031 -9.55155e-20)
(0.345995 0.218844 0)
(0.191679 0.119855 0)
(0.0713093 0.0436456 2.64461e-20)
(0.005867 0.00355718 -1.56999e-20)
(0.234929 0.155096 5.66639e-21)
(1.07709 0.702437 -1.46095e-20)
(1.26727 0.835857 -3.12959e-21)
(1.28613 0.865371 0)
(1.23712 0.851679 -3.22313e-22)
(1.16701 0.823943 -1.79303e-20)
(1.09253 0.792764 2.88722e-20)
(1.01357 0.757469 4.91222e-20)
(0.930274 0.715866 6.0898e-20)
(0.843861 0.664871 -8.14935e-20)
(0.769116 0.610466 -8.99541e-20)
(0.71852 0.564763 7.99745e-20)
(0.686265 0.526543 0)
(0.6516 0.482891 -2.42564e-20)
(0.584684 0.41838 -5.78012e-20)
(0.471382 0.329481 -6.8567e-20)
(0.324401 0.223612 -8.13717e-20)
(0.175898 0.119551 2.41068e-20)
(0.0628483 0.0416495 -1.42314e-20)
(0.00457092 0.00298661 5.40471e-23)
(0.23581 0.16424 0)
(1.06981 0.738837 0)
(1.25586 0.878436 5.38499e-22)
(1.27245 0.908142 0)
(1.22268 0.893078 6.73598e-21)
(1.1523 0.863802 1.2308e-20)
(1.07722 0.831069 0)
(0.997184 0.794195 5.85795e-21)
(0.912186 0.750912 1.01641e-19)
(0.823202 0.697851 -1.87318e-19)
(0.745637 0.641367 0)
(0.692648 0.592837 -5.14422e-20)
(0.657965 0.549877 -6.10907e-22)
(0.620946 0.500446 -4.84204e-22)
(0.554126 0.431019 6.17512e-20)
(0.443515 0.336907 -5.49203e-23)
(0.300563 0.224826 -1.75082e-19)
(0.158036 0.1162 5.18245e-20)
(0.0534304 0.0381342 1.53693e-20)
(0.00309469 0.00219076 0)
(0.236709 0.17325 -2.49749e-20)
(1.06284 0.773571 -1.11091e-20)
(1.24446 0.91858 -1.24401e-20)
(1.25892 0.94836 5.97358e-21)
(1.20849 0.932032 8.66489e-21)
(1.13789 0.901407 0)
(1.06229 0.867339 1.751e-20)
(0.981302 0.829163 -1.30102e-20)
(0.894683 0.784507 7.86816e-22)
(0.803184 0.729819 1.37793e-20)
(0.722645 0.671489 1.16457e-19)
(0.666806 0.619621 -1.80565e-20)
(0.629279 0.571245 -6.81271e-20)
(0.590071 0.515854 -2.82213e-20)
(0.523481 0.441123 3.35455e-20)
(0.414973 0.340931 -1.71866e-23)
(0.275518 0.22238 4.71411e-20)
(0.139311 0.110167 -1.11436e-19)
(0.0438081 0.0335362 1.32183e-19)
(0.00160374 0.00126551 1.95225e-20)
(0.237374 0.182019 9.81636e-21)
(1.05618 0.806721 -6.49847e-21)
(1.23323 0.956403 1.29676e-21)
(1.24568 0.986144 5.73008e-21)
(1.19465 0.968645 -4.43118e-22)
(1.12389 0.936825 -2.15039e-20)
(1.04788 0.90163 5.13502e-21)
(0.966032 0.862396 -5.42644e-20)
(0.877891 0.81665 -1.12042e-19)
(0.783936 0.760761 -1.11678e-19)
(0.700244 0.700762 0)
(0.641054 0.645215 -7.9191e-20)
(0.600251 0.591088 9.81355e-20)
(0.55882 0.529388 0)
(0.492451 0.448357 -7.1815e-20)
(0.385967 0.341084 4.2869e-20)
(0.250239 0.216095 -5.06417e-20)
(0.121051 0.101904 -5.99298e-20)
(0.0348037 0.0283675 -1.06426e-19)
(0.000248815 0.000326188 -8.40225e-20)
(0.238366 0.190631 -1.14521e-20)
(1.04971 0.838263 6.96741e-21)
(1.22221 0.991963 1.53401e-20)
(1.23279 1.02158 9.54778e-21)
(1.18125 1.00301 1.70701e-21)
(1.11039 0.970146 -1.16269e-20)
(1.03406 0.933998 1.70741e-20)
(0.951458 0.893938 -5.57879e-20)
(0.861891 0.847362 -6.63367e-20)
(0.765567 0.790661 1.16863e-19)
(0.678529 0.729159 2.55814e-19)
(0.615491 0.669846 0)
(0.570926 0.609934 0)
(0.526868 0.541359 -3.25029e-20)
(0.460477 0.452358 0)
(0.35647 0.336419 9.219e-20)
(0.225953 0.205248 1.08894e-19)
(0.10523 0.0915601 0)
(0.0276456 0.0231336 0)
(-0.000844213 -0.000522892 9.02557e-20)
(0.23898 0.198753 1.34044e-20)
(1.04343 0.86818 1.05345e-20)
(1.21148 1.02537 1.13488e-20)
(1.22031 1.05479 -1.06583e-20)
(1.16835 1.03523 2.58607e-22)
(1.09745 1.00145 1.19693e-20)
(1.02088 0.964511 -2.34137e-20)
(0.937636 0.923813 -2.8086e-24)
(0.846758 0.876644 -1.02585e-21)
(0.748158 0.819483 -1.06393e-21)
(0.657619 0.756693 1.31793e-19)
(0.590259 0.693772 0)
(0.541385 0.628299 9.92746e-20)
(0.493836 0.552201 6.93293e-20)
(0.426628 0.453023 1.67455e-19)
(0.325764 0.325597 4.96205e-20)
(0.203882 0.187558 -5.86258e-20)
(0.0958657 0.0768167 -3.45199e-20)
(0.0272523 0.0167893 0)
(-0.000505109 -0.00103678 9.69405e-20)
(0.239914 0.206879 -3.1117e-20)
(1.03732 0.896619 0)
(1.20102 1.05667 1.41817e-20)
(1.20826 1.08586 -9.63874e-21)
(1.15601 1.0654 2.16018e-21)
(1.0851 1.03082 -1.27653e-20)
(1.0084 0.993226 4.54704e-20)
(0.9246 0.952053 -4.59932e-21)
(0.832531 0.904502 0)
(0.731769 0.847166 -1.29029e-19)
(0.637642 0.783394 -2.86559e-19)
(0.565538 0.717254 1.16928e-20)
(0.511775 0.646605 1.36796e-19)
(0.459466 0.562496 0)
(0.389715 0.450947 1.1296e-19)
(0.29153 0.307754 0)
(0.182296 0.158004 0)
(0.0978785 0.0439881 -3.73358e-20)
(0.0575419 -0.00474287 0)
(0.0270748 0.00703499 2.59762e-20)
(0.240385 0.214402 -3.54416e-20)
(1.03136 0.923783 0)
(1.19084 1.08607 2.4319e-20)
(1.1966 1.11503 0)
(1.14417 1.09378 -2.13579e-21)
(1.07328 1.05855 0)
(0.996549 1.02046 2.25436e-21)
(0.912256 0.978997 7.66609e-21)
(0.819091 0.931304 8.31947e-21)
(0.716227 0.874085 -1.41706e-19)
(0.618431 0.809756 8.61879e-21)
(0.541109 0.74102 9.41276e-20)
(0.481708 0.665599 1.33535e-19)
(0.422886 0.573022 1.7986e-20)
(0.347955 0.447838 8.85021e-20)
(0.249129 0.284187 0)
(0.150501 0.113551 1.23573e-19)
(0.0824176 -0.00405974 -7.27058e-20)
(0.0327908 0.0586667 8.48964e-20)
(-0.0382876 0.453777 -1.00846e-19)
(0.240779 0.221744 2.97644e-20)
(1.02534 0.949561 4.4129e-20)
(1.18085 1.11388 0)
(1.1852 1.14274 1.09746e-21)
(1.13265 1.12097 7.83891e-21)
(1.06174 1.08534 1.44901e-20)
(0.985009 1.04702 1.57362e-20)
(0.900199 1.0056 0)
(0.805917 0.958166 5.51996e-20)
(0.700859 0.901554 -7.40186e-21)
(0.599074 0.837285 0)
(0.51574 0.766829 0)
(0.449398 0.686854 1.19381e-19)
(0.381881 0.584635 -5.54806e-20)
(0.298386 0.445884 -8.94702e-20)
(0.194519 0.258863 0)
(0.084747 0.117231 6.27542e-20)
(0.00767102 0.466407 -7.31598e-20)
(0.0322314 1.92134 -4.12616e-20)
(0.058966 2.82198 -5.04213e-20)
(0.240774 0.22849 -2.2898e-20)
(1.01931 0.974129 -5.76268e-20)
(1.17107 1.14011 1.5011e-20)
(1.17404 1.16885 1.11703e-20)
(1.12153 1.14676 0)
(1.05056 1.11092 7.62646e-21)
(0.973991 1.07259 2.13681e-20)
(0.888617 1.03142 -3.70516e-21)
(0.793277 0.98456 8.22037e-21)
(0.686034 0.92894 1.349e-19)
(0.580177 0.865329 1.44783e-19)
(0.490423 0.79451 1.05174e-19)
(0.415784 0.710336 1.19917e-19)
(0.338059 0.596284 -1.29969e-19)
(0.247629 0.448233 -1.34874e-19)
(0.126068 0.300689 0)
(0.0428217 0.870202 0)
(0.0905374 2.57632 3.49416e-20)
(0.0928367 3.20889 0)
(0.093749 3.38848 9.15962e-20)
(0.243552 0.234732 0)
(1.01352 0.997841 0)
(1.16122 1.16461 0)
(1.16292 1.19318 3.61387e-21)
(1.11049 1.17093 7.89238e-21)
(1.03953 1.13513 2.59955e-21)
(0.963418 1.09708 1.36558e-20)
(0.877439 1.05633 -3.61282e-21)
(0.781107 1.01031 6.88684e-20)
(0.671739 0.956072 -1.95458e-21)
(0.561827 0.893706 2.85873e-19)
(0.465583 0.824196 -1.2111e-20)
(0.380929 0.736681 1.45423e-20)
(0.293662 0.605847 1.87897e-20)
(0.18641 0.466422 -3.43538e-22)
(0.0975437 1.01153 3.40523e-22)
(0.129209 2.75634 -1.82483e-19)
(0.13398 3.30081 -6.94536e-20)
(0.123484 3.42465 3.72055e-20)
(0.112091 3.44459 -4.21123e-20)
(0.165453 0.179317 1.43688e-20)
(1.0037 1.0234 0)
(1.1512 1.18767 -3.22239e-20)
(1.15218 1.21603 -3.21118e-20)
(1.10001 1.19396 2.22651e-20)
(1.02933 1.15847 -1.57494e-21)
(0.953156 1.12041 -1.39991e-20)
(0.866736 1.08032 4.03663e-20)
(0.769505 1.03546 -5.65838e-20)
(0.658172 0.983051 0)
(0.544301 0.922503 1.40817e-19)
(0.441809 0.855732 -8.57828e-20)
(0.345268 0.768955 0)
(0.242683 0.617966 1.8061e-20)
(0.13935 0.806607 4.34043e-20)
(0.14338 2.55629 -4.98469e-20)
(0.192569 3.33116 5.70282e-20)
(0.174006 3.4374 3.10322e-20)
(0.143939 3.45576 3.57178e-20)
(0.124129 3.46411 5.74419e-20)
(0.279321 0.274237 -2.75403e-20)
(0.987537 1.03486 0)
(1.13361 1.21415 3.57412e-20)
(1.13787 1.2494 3.72602e-20)
(1.08329 1.22799 -2.74181e-20)
(1.01214 1.19295 -3.76346e-21)
(0.934894 1.1565 1.27374e-20)
(0.84793 1.11772 3.14241e-21)
(0.749391 1.07509 5.37371e-20)
(0.635251 1.02633 1.16478e-19)
(0.515667 0.970401 7.93128e-21)
(0.402548 0.909118 7.60416e-20)
(0.281808 0.819079 1.36416e-20)
(0.207113 0.981127 -1.73137e-20)
(0.213352 2.4286 -3.9654e-20)
(0.263841 3.33812 3.98861e-20)
(0.246916 3.46572 -4.41875e-20)
(0.212389 3.48337 -2.57133e-20)
(0.178314 3.50703 -2.38574e-20)
(0.133387 3.50093 -3.48866e-21)
(0.269876 0.273388 0)
(0.985261 1.0584 1.08661e-20)
(1.1255 1.2382 -7.51919e-21)
(1.12753 1.27325 -4.60776e-21)
(1.07272 1.25157 -1.9981e-20)
(1.0017 1.21676 4.85107e-21)
(0.924161 1.18062 -6.40101e-21)
(0.836981 1.14269 2.80635e-21)
(0.737925 1.10153 -5.58696e-20)
(0.622429 1.05531 -2.91521e-21)
(0.499839 1.00322 -2.53796e-19)
(0.381538 0.94575 1.08284e-20)
(0.272041 0.894899 -1.29159e-20)
(0.241581 1.56968 -1.59729e-20)
(0.30253 3.14654 3.62707e-21)
(0.316716 3.46956 3.65423e-22)
(0.274931 3.51574 6.68998e-20)
(0.240809 3.53731 3.45293e-20)
(0.195108 3.55629 -1.21948e-20)
(0.145398 3.55193 -1.78758e-20)
(0.255793 0.271551 2.83259e-20)
(0.98211 1.08461 7.43023e-20)
(1.11702 1.2644 -2.16207e-20)
(1.11679 1.29867 -1.7408e-20)
(1.06176 1.27666 0)
(0.990904 1.24191 1.37523e-20)
(0.913334 1.2061 -6.01494e-21)
(0.82619 1.16893 2.4475e-21)
(0.726918 1.12932 -6.20294e-21)
(0.610559 1.08581 -1.05038e-19)
(0.485844 1.0381 -1.1698e-19)
(0.362808 0.984748 -8.90536e-20)
(0.273271 1.03933 -9.69526e-20)
(0.304637 2.31313 1.00237e-19)
(0.38083 3.39808 8.6629e-20)
(0.354463 3.52736 0)
(0.306219 3.56191 0)
(0.269482 3.59406 -9.60888e-21)
(0.225204 3.63854 0)
(0.156347 3.62207 -1.62115e-20)
(0.24581 0.273631 -4.2887e-20)
(0.977002 1.11176 -6.36992e-20)
(1.1072 1.29191 0)
(1.10485 1.32503 1.33357e-21)
(1.04962 1.30246 -2.3517e-20)
(0.979069 1.26766 2.52437e-20)
(0.901778 1.2322 -1.91313e-21)
(0.814891 1.1957 1.39532e-21)
(0.715646 1.15756 -3.92928e-20)
(0.598817 1.11668 5.25311e-21)
(0.472804 1.07353 0)
(0.348712 1.0298 0)
(0.298908 1.32649 -8.81496e-20)
(0.380521 2.9768 3.62276e-20)
(0.444541 3.49877 4.71321e-20)
(0.392411 3.56213 0)
(0.350644 3.61683 -6.82451e-21)