/*--------------------------------*- C++ -*----------------------------------*\
  =========                 |
  \\      /  F ield         | OpenFOAM: The Open Source CFD Toolbox
   \\    /   O peration     | Website:  https://openfoam.org
    \\  /    A nd           | Version:  6
     \\/     M anipulation  |
\*---------------------------------------------------------------------------*/
FoamFile
{
    version     2.0;
    format      ascii;
    class       volScalarField;
    location    "38";
    object      p;
}
// * * * * * * * * * * * * * * * * * * * * * * * * * * * * * * * * * * * * * //

dimensions      [0 2 -2 0 0 0 0];

internalField   nonuniform List<scalar> 
918
(
0.569474
1.3056
0.00455008
0.569353
-0.00149735
1.27341
-0.458851
0.730525
0.550567
-0.0767213
-0.0187446
0.547775
1.13054
0.897231
-1.14129
0.0190901
0.683974
-0.384373
0.548483
0.0163633
0.766131
0.557293
0.559765
0.550558
0.607604
0.854633
1.00799
0.0144649
0.00349131
-2.92691e-05
0.00537443
-0.00898779
0.00945579
1.15652
1.20847
1.23165
0.51764
0.34839
-0.346305
-0.399521
-0.381605
-0.483628
0.723791
0.72243
-0.151333
0.731182
0.739174
0.53644
0.54995
0.550779
0.55197
0.550819
0.552122
0.435628
-0.0810933
-0.11205
-0.0601126
-0.0517384
0.0805616
-0.0186839
-0.0203671
-0.0156651
-0.01784
0.468027
0.543916
0.541053
0.552747
0.562096
1.24577
1.21946
1.24552
1.15628
1.17381
1.10743
1.08031
0.918685
0.94216
0.880595
0.866559
-1.60769
-2.56712
-0.556219
-0.272506
-0.000949111
0.0210175
0.0288923
0.674375
0.673671
0.684416
0.693667
1.072
-0.353184
-0.426434
0.548943
0.547468
0.556786
0.557695
0.552639
0.552655
0.0160824
0.0130856
0.019506
0.015056
0.0183776
0.757264
0.756031
0.550005
0.547469
0.571031
0.593313
0.582476
0.292759
0.614559
0.627948
0.712261
0.860511
0.84929
0.86117
0.983721
0.951247
1.03932
1.06104
0.0142665
0.00361224
0.0172676
0.0057773
0.00736329
0.513462
0.507153
0.533918
0.52119
0.524172
0.252586
0.100464
0.430909
0.454551
-0.264289
-0.307411
-0.415896
-0.41303
-0.521415
0.620605
0.717761
0.715071
-0.172647
-0.0942014
-0.220079
-0.0364575
-0.0926865
0.527558
0.533675
0.529815
0.545035
0.539238
0.541649
0.554038
0.551194
0.552802
0.495339
0.627605
0.353542
0.325042
-0.23728
-0.130326
-0.223489
-0.0398232
-0.0351702
0.0975752
0.12416
0.0726161
0.0644465
-0.0267861
-0.0206049
-0.0236227
-0.0158918
-0.00936344
0.459767
0.447245
0.478942
0.486319
0.532411
0.533666
0.537735
0.535894
1.03126
1.05452
1.06036
1.03648
-3.55806
-6.21576
0.0804604
0.243762
0.00455815
0.00754955
0.00278748
0.0144782
0.00738889
0.00348889
0.038661
0.0240281
0.0244624
0.0295707
0.665822
0.664413
1.0354
1.06233
1.0157
0.994744
0.538268
0.540208
0.544814
0.541729
-0.00169323
0.00909801
0.00387555
0.740746
0.749903
0.748229
0.25343
0.166755
0.341562
0.371675
0.655564
0.636016
0.65158
0.773539
0.812499
1.07776
1.10206
1.08588
1.09877
1.14972
1.17267
1.13794
0.49263
0.503167
0.497596
0.53708
0.534697
0.535732
0.531604
0.532871
0.53132
-0.0126537
-0.388816
0.506578
0.508921
0.495725
0.502503
0.706537
0.790458
0.696408
0.706437
0.704333
0.00988272
-0.0379669
0.283408
0.254232
0.400965
0.434207
0.416882
1.0068
0.966947
1.01512
0.990565
0.954682
0.979531
-0.326232
-2.10613
-1.09255
0.652763
0.452615
0.545821
0.044818
0.0366432
0.0270268
1.06415
1.10559
0.697178
0.884463
0.837648
0.836018
0.862728
0.925912
0.857257
0.89258
0.924193
0.899792
0.575721
0.514538
0.529181
0.868711
0.925437
0.132127
0.058914
0.0352243
0.143708
0.212163
0.179378
1.07894
0.983112
1.05117
0.547707
0.548625
0.0238505
0.0289782
0.552675
0.552405
-8.81868e-05
0.00353205
0.564029
-0.91608
0.144002
0.542042
0.53202
0.548666
-0.0434075
0.369477
-0.0192482
0.0768194
0.0393034
0.543741
0.479802
0.438098
0.0378165
0.0194443
0.0140136
-0.175904
0.54545
0.543814
0.548049
0.5489
0.549642
0.0280509
0.0262919
0.0251975
0.0198283
0.0203503
0.0201079
0.51259
0.531468
-0.146146
0.548303
0.550389
0.550115
0.544171
0.549191
0.547738
0.0292661
0.00348876
0.0138246
0.235881
0.366963
0.752061
0.83076
0.698889
0.528535
0.226294
0.685134
0.739422
0.662595
0.795137
0.709108
0.718614
0.207709
0.070077
0.209453
0.14481
0.53901
0.538327
0.529582
0.52657
0.543441
0.541186
0.546292
0.543448
0.546607
0.547783
-0.0034772
-0.0393956
-0.0536648
-0.104461
0.335019
0.59549
0.262471
0.289037
0.190619
-0.01469
-0.0146481
-0.0138449
-0.0155116
0.0272341
0.022789
0.0680608
0.0738966
0.0570578
0.0334053
0.0187036
0.0219864
0.0123599
0.537285
0.536492
0.542127
0.550311
0.489173
0.492866
0.459469
0.47821
0.464676
0.405945
0.435818
0.413398
0.0203793
0.0414913
0.0156465
0.0174772
0.0167827
0.0285006
0.0303836
0.0248229
0.0263143
0.0261164
0.0153321
0.0102045
-0.138784
-0.255594
1.00551
0.927927
0.163363
0.535389
0.541031
0.538213
0.542789
0.545988
0.546675
0.544308
0.540845
0.531715
0.53323
0.529889
0.530791
-0.089734
-0.195773
-0.0261345
-0.0976756
0.174511
0.645415
0.375666
0.324284
0.309608
0.529219
0.740071
0.672309
0.746525
0.748122
-0.365829
0.0523961
-0.291138
0.257751
0.241919
0.77619
0.818165
0.835307
0.792567
0.748207
-0.00456627
0.569293
-0.0189206
0.0267739
0.214672
0.107617
0.731038
0.687546
0.693381
0.709105
0.727726
0.704344
0.689016
0.678393
0.708507
0.71433
0.529545
0.26521
0.227361
0.178336
0.668326
0.563764
0.618286
0.540085
0.53434
0.536933
0.535768
0.517287
0.524478
0.520283
0.526848
0.530353
0.538129
0.538285
0.534264
0.536166
-0.0294196
-0.0301158
-0.0448674
-0.0892966
-0.0902985
-0.130715
-0.0597166
0.142724
0.0870089
0.274226
0.41405
0.109949
-0.0197889
-0.00542101
0.0493035
0.213884
0.215893
0.0845045
0.198981
0.156798
0.149088
0.241046
0.263954
0.00557129
0.00349389
-0.00114089
-0.00611826
0.0502671
0.139552
0.128475
0.0303137
0.0214311
-0.0127404
-0.0154146
0.0208818
0.0118519
0.0169874
0.0329979
-0.0371445
0.00867939
0.0245599
0.0325253
0.0244471
0.0282781
0.530752
0.532799
0.532635
0.541257
0.555285
0.570036
0.533829
0.509992
0.501145
0.504179
0.477437
0.486665
0.481666
0.497018
0.518379
0.527248
0.524894
0.527481
0.510008
0.51167
0.49718
0.501806
0.472661
0.455082
0.445159
0.0049448
0.04838
0.0424453
0.00655692
0.0460873
0.027931
0.0251576
0.0371328
0.0218056
0.0219116
0.0150915
0.0241077
0.0248125
-0.0415899
0.0385354
-0.143621
-0.193205
-0.243475
0.918643
1.05206
0.835646
0.633106
0.63361
0.865441
0.955011
0.591995
0.769113
0.805162
0.593901
0.883387
0.539294
0.538937
0.536811
0.536012
0.537015
0.0135499
0.112303
0.134552
0.184517
0.298871
0.405699
0.328633
0.220043
0.354529
0.378647
0.645672
0.654971
0.604759
0.626008
0.623527
0.44669
0.527831
0.569439
0.517903
0.589202
0.62192
0.571346
0.612577
0.533649
0.485589
0.478468
0.431745
0.466421
0.448666
0.422258
0.530399
0.507648
0.518253
0.508476
0.529495
0.551891
0.553155
0.576756
0.591188
0.510498
0.460198
0.477068
0.503753
0.461224
0.47716
0.497811
0.198752
0.103815
0.268901
-0.0607683
0.0312705
0.067778
0.0268968
-0.0204928
0.28665
-0.357138
-0.299586
-0.984395
0.509605
0.901279
0.692727
0.706694
0.725143
0.704662
0.714356
0.730362
0.737942
0.65969
0.677752
0.680843
0.644778
0.677668
0.675591
0.685273
0.529159
0.438235
0.43977
0.375189
0.243419
0.280543
0.456815
0.39452
0.325899
0.319122
0.491679
0.360231
0.435629
0.493101
0.424054
0.354745
0.585641
0.631047
0.620867
0.592836
0.499058
0.525182
0.544803
0.587562
0.615102
0.641009
0.525779
0.531984
0.532946
0.530225
0.52838
0.531438
0.531598
0.533888
0.534409
0.536915
0.536224
-0.0104189
-0.00122866
-0.0146809
-0.0188869
0.0515844
0.025468
0.0272516
-0.00807167
0.018547
0.0188591
0.00159442
-0.0130028
-0.00195847
0.00915238
0.0995384
0.118115
0.126923
0.091662
0.278577
0.45262
0.518447
0.389902
0.238483
0.256238
0.337505
0.0359112
0.0578101
0.0418128
0.0904304
0.068544
0.000643304
-0.00263316
0.00280285
0.00633547
0.015104
0.00156167
0.00731086
0.0119135
0.00151898
-0.0044752
0.00171985
0.511628
0.504606
0.507804
0.500434
0.498813
0.515123
0.519527
0.52079
0.526167
0.528581
0.518526
0.524347
0.528177
0.0187354
0.0163643
0.000695141
0.0176995
0.0223729
0.0245985
0.0212893
0.151422
0.058269
0.0932995
0.0237073
-0.0990575
-0.0393268
0.519775
0.514125
0.507895
0.73888
0.579656
0.494324
0.589868
0.708294
0.296313
0.501844
0.333478
0.91282
0.814149
0.959372
0.583636
0.27147
0.432784
0.446183
0.282486
0.407622
0.375238
0.250327
0.28892
0.310918
0.394187
0.276698
0.254542
0.0133933
0.190393
0.304947
0.286447
0.416594
0.474049
0.279985
0.194886
0.14457
0.630036
0.648257
0.66033
0.633172
0.655063
0.59187
0.581888
0.599539
0.608013
0.603016
-0.623196
-0.212277
-1.41459
-0.822024
-0.371393
0.536255
0.525455
0.770856
0.677248
0.730354
0.71333
0.646018
0.610963
0.64641
0.672944
0.365905
0.467042
0.43686
0.437688
0.378455
0.31047
0.59995
0.601873
0.624291
0.648811
0.623403
0.651418
0.524337
0.524109
0.523072
0.519513
0.518017
0.520964
0.0574827
0.03078
0.0697813
0.0639112
0.0465877
0.0465395
0.0244956
0.0151524
0.0146192
0.0164294
0.0184536
0.0226533
0.192879
0.136976
0.0478458
0.0931448
0.0226595
-0.0579372
-0.060409
0.0282782
0.127263
0.10809
0.417098
0.691764
0.517218
0.683701
0.475738
0.579983
0.491878
0.466293
0.495795
0.393416
0.482587
0.0371459
-0.157308
-0.216444
0.834919
0.791176
0.578584
0.323957
0.213252
0.51476
0.546433
0.505129
0.539486
0.589925
0.575843
0.0226438
0.122992
0.184403
0.494713
0.293411
0.309604
0.302585
0.459189
0.435721
)
;

boundaryField
{
    wall-4
    {
        type            zeroGradient;
    }
    velocity-inlet-5
    {
        type            zeroGradient;
    }
    velocity-inlet-6
    {
        type            zeroGradient;
    }
    pressure-outlet-7
    {
        type            fixedValue;
        value           uniform 0;
    }
    wall-8
    {
        type            zeroGradient;
    }
    frontAndBackPlanes
    {
        type            empty;
    }
}


// ************************************************************************* //
