/*--------------------------------*- C++ -*----------------------------------*\
  =========                 |
  \\      /  F ield         | OpenFOAM: The Open Source CFD Toolbox
   \\    /   O peration     | Website:  https://openfoam.org
    \\  /    A nd           | Version:  6
     \\/     M anipulation  |
\*---------------------------------------------------------------------------*/
FoamFile
{
    version     2.0;
    format      ascii;
    class       volVectorField;
    location    "23.2";
    object      U;
}
// * * * * * * * * * * * * * * * * * * * * * * * * * * * * * * * * * * * * * //

dimensions      [0 1 -1 0 0 0 0];

internalField   nonuniform List<vector> 
8800
(
(0.987189 -0.0766643 0)
(1.0019 -0.0551862 0)
(0.999749 -0.0285416 0)
(1.00005 -0.0151304 0)
(1.00004 -0.00851774 0)
(1.00001 -0.00501558 0)
(1 -0.0029844 0)
(0.999987 -0.00171754 0)
(0.999976 -0.000843364 0)
(1.00005 -0.000140645 0)
(0.999976 0.000583461 0)
(0.999986 0.00135265 0)
(0.999999 0.00237374 0)
(1.00001 0.00395079 0)
(1.00002 0.00658539 0)
(1.00006 0.0113338 0)
(0.999977 0.0207869 0)
(0.999171 0.0386475 0)
(1.00709 0.0724473 0)
(0.771217 0.0366587 0)
(0.363062 -0.0160174 0)
(1.04331 -0.0768213 0)
(1.08462 -0.070465 0)
(1.04524 -0.0535791 0)
(1.02326 -0.0389477 0)
(1.01192 -0.0262813 0)
(1.00628 -0.0168903 0)
(1.00346 -0.0103761 0)
(1.00208 -0.00574478 0)
(1.00147 -0.00213972 0)
(1.00135 0.00104548 0)
(1.00168 0.00438627 0)
(1.00261 0.00835325 0)
(1.00459 0.0137416 0)
(1.00859 0.0215253 0)
(1.01661 0.0325226 0)
(1.03259 0.0464436 0)
(1.06278 0.0615728 0)
(1.09192 0.0760165 0)
(0.8388 0.0565286 0)
(0.21684 -0.00242681 0)
(1.07591 -0.0501248 0)
(1.09988 -0.0482921 0)
(1.06459 -0.0404133 0)
(1.03989 -0.0335332 0)
(1.02371 -0.0260573 0)
(1.014 -0.0185953 0)
(1.00851 -0.0118717 0)
(1.0056 -0.00607255 0)
(1.00436 -0.00074705 0)
(1.00474 0.0044321 0)
(1.00669 0.00981385 0)
(1.01066 0.0159313 0)
(1.01796 0.0229422 0)
(1.03057 0.0303806 0)
(1.05073 0.0374675 0)
(1.08051 0.0442312 0)
(1.10649 0.0511299 0)
(0.942943 0.0415085 0)
(0.216437 0.00244479 0)
(0.17519 -0.000811393 0)
(1.01771 -0.0354354 0)
(1.10521 -0.0413403 0)
(1.07825 -0.0360744 0)
(1.05328 -0.0301707 0)
(1.03586 -0.0245796 0)
(1.02364 -0.0188892 0)
(1.01559 -0.0129394 0)
(1.01084 -0.00690899 0)
(1.00875 -0.000747944 0)
(1.00933 0.0053452 0)
(1.01257 0.0112923 0)
(1.01878 0.0171281 0)
(1.02872 0.0227783 0)
(1.04331 0.0281985 0)
(1.06402 0.0337527 0)
(1.09394 0.0397615 0)
(1.09392 0.0415941 0)
(0.828146 0.0227418 0)
(0.174515 0.00083199 0)
(0.154061 -0.000603078 0)
(0.956344 -0.0253545 0)
(1.10336 -0.0349614 0)
(1.08738 -0.0324565 0)
(1.06136 -0.0278259 0)
(1.04374 -0.0228783 0)
(1.0313 -0.0177716 0)
(1.0225 -0.0124934 0)
(1.01679 -0.00678771 0)
(1.0141 -0.000514298 0)
(1.01483 0.00581756 0)
(1.01882 0.0116016 0)
(1.02586 0.0168173 0)
(1.03625 0.0217411 0)
(1.05091 0.0265384 0)
(1.07217 0.0311341 0)
(1.10054 0.0351938 0)
(1.06912 0.0334656 0)
(0.741506 0.0140668 0)
(0.153052 0.000626419 0)
(0.139813 -0.000455737 0)
(0.899838 -0.0188789 0)
(1.0959 -0.0297973 0)
(1.09564 -0.028861 0)
(1.06883 -0.0250986 0)
(1.05019 -0.0210733 0)
(1.03733 -0.0165855 0)
(1.02833 -0.0116044 0)
(1.0223 -0.0061758 0)
(1.01932 -0.000114554 0)
(1.02008 0.00597428 0)
(1.02429 0.0114663 0)
(1.03149 0.0163631 0)
(1.04205 0.0207709 0)
(1.05735 0.0247126 0)
(1.07987 0.028291 0)
(1.10334 0.0311069 0)
(1.03807 0.0273015 0)
(0.67638 0.00985878 0)
(0.138397 0.000482507 0)
(0.129465 -0.000345573 0)
(0.850946 -0.014327 0)
(1.08347 -0.025362 0)
(1.10095 -0.0257436 0)
(1.07538 -0.0226978 0)
(1.05621 -0.0192006 0)
(1.04275 -0.0151262 0)
(1.03333 -0.0104613 0)
(1.02711 -0.00530746 0)
(1.02396 0.000366867 0)
(1.02464 0.00604158 0)
(1.02888 0.0111581 0)
(1.03625 0.0156637 0)
(1.04728 0.0196365 0)
(1.06311 0.0230275 0)
(1.08596 0.0259462 0)
(1.10268 0.0277178 0)
(1.00458 0.0223573 0)
(0.626604 0.00734239 0)
(0.127557 0.000377262 0)
(0.12177 -0.00025705 0)
(0.810262 -0.0109456 0)
(1.06866 -0.0212987 0)
(1.10417 -0.0223812 0)
(1.0811 -0.0195846 0)
(1.0616 -0.0165045 0)
(1.04783 -0.0130654 0)
(1.03799 -0.00905838 0)
(1.03143 -0.00440265 0)
(1.02811 0.000954414 0)
(1.02867 0.00632601 0)
(1.03297 0.0109448 0)
(1.0406 0.0147578 0)
(1.05188 0.0179418 0)
(1.06793 0.0206712 0)
(1.09112 0.0233099 0)
(1.09962 0.0244999 0)
(0.971835 0.0183023 0)
(0.587929 0.0056205 0)
(0.119264 0.000295454 0)
(0.116028 -0.000187956 0)
(0.777055 -0.00819857 0)
(1.05282 -0.0174925 0)
(1.10648 -0.0193497 0)
(1.08644 -0.0170041 0)
(1.0663 -0.0140848 0)
(1.05227 -0.0110094 0)
(1.04234 -0.00744262 0)
(1.03559 -0.00320796 0)
(1.0321 0.00167366 0)
(1.03251 0.00647689 0)
(1.03674 0.0105494 0)
(1.04433 0.0138082 0)
(1.05558 0.0164252 0)
(1.07202 0.0188126 0)
(1.0953 0.0211439 0)
(1.09433 0.0215244 0)
(0.941158 0.0147942 0)
(0.557597 0.0043047 0)
(0.112794 0.000234477 0)
(0.111914 -0.000128358 0)
(0.750967 -0.00595299 0)
(1.03704 -0.0138279 0)
(1.10742 -0.0161698 0)
(1.09126 -0.0144987 0)
(1.07091 -0.0120401 0)
(1.05677 -0.00911426 0)
(1.04685 -0.0056717 0)
(1.04002 -0.0017945 0)
(1.03625 0.0025697 0)
(1.03655 0.00682853 0)
(1.04063 0.0102678 0)
(1.04795 0.0131171 0)
(1.05908 0.015512 0)
(1.0757 0.0174481 0)
(1.09804 0.0190227 0)
(1.08692 0.0185447 0)
(0.913676 0.0117931 0)
(0.534062 0.00329647 0)
(0.107788 0.000185815 0)
(0.109066 -8.03326e-05 0)
(0.731262 -0.00398109 0)
(1.02262 -0.0102812 0)
(1.10721 -0.0127196 0)
(1.09495 -0.0113918 0)
(1.07457 -0.00916017 0)
(1.06002 -0.00668849 0)
(1.04973 -0.00381513 0)
(1.04275 -0.000368264 0)
(1.03895 0.00361837 0)
(1.03886 0.0074315 0)
(1.04257 0.0103279 0)
(1.0499 0.0124388 0)
(1.06124 0.0140242 0)
(1.07795 0.0154125 0)
(1.09886 0.016523 0)
(1.07821 0.0154877 0)
(0.889972 0.00914 0)
(0.515939 0.00245589 0)
(0.103839 0.000151216 0)
(0.107513 -2.13541e-05 0)
(0.717867 -0.00204206 0)
(1.0105 -0.00662068 0)
(1.10657 -0.0089601 0)
(1.09853 -0.00798363 0)
(1.07816 -0.00615507 0)
(1.06358 -0.00410345 0)
(1.0533 -0.00151468 0)
(1.04613 0.00151257 0)
(1.04195 0.00492513 0)
(1.04154 0.00802847 0)
(1.04504 0.0102313 0)
(1.05202 0.0116665 0)
(1.06306 0.0126299 0)
(1.0799 0.0134695 0)
(1.09895 0.0140105 0)
(1.06909 0.0123987 0)
(0.870396 0.00659669 0)
(0.502915 0.00167347 0)
(0.100929 0.000109668 0)
(0.107233 2.27324e-05 0)
(0.710126 -0.000572293 0)
(1.00077 -0.00356615 0)
(1.10513 -0.00584576 0)
(1.10097 -0.00548962 0)
(1.08095 -0.00409618 0)
(1.06639 -0.00220602 0)
(1.05614 0.000338301 0)
(1.04901 0.0032799 0)
(1.04462 0.00647324 0)
(1.04373 0.0092292 0)
(1.04658 0.0110677 0)
(1.05306 0.0122237 0)
(1.06378 0.0127277 0)
(1.08029 0.0128318 0)
(1.09736 0.0124416 0)
(1.05933 0.0099869 0)
(0.854642 0.00475954 0)
(0.493979 0.00118534 0)
(0.0989567 7.91053e-05 0)
(0.107832 6.5342e-05 0)
(0.706806 0.000317919 0)
(0.993672 -0.0012544 0)
(1.10292 -0.00306873 0)
(1.10247 -0.00290109 0)
(1.08335 -0.00177356 0)
(1.06908 -3.96036e-05 0)
(1.0588 0.0024061 0)
(1.05134 0.00528236 0)
(1.04646 0.00834624 0)
(1.04507 0.0109003 0)
(1.04751 0.0122954 0)
(1.05358 0.0127552 0)
(1.06371 0.0126911 0)
(1.07953 0.012362 0)
(1.09413 0.0114076 0)
(1.04932 0.00847894 0)
(0.842093 0.00394275 0)
(0.487196 0.00106653 0)
(0.0974608 7.20302e-05 0)
(0.108929 8.2564e-05 0)
(0.706322 0.000813374 0)
(0.989736 0.000244378 0)
(1.10143 -0.000692266 0)
(1.10394 -0.000326717 0)
(1.0858 0.000833839 0)
(1.07188 0.00259524 0)
(1.0618 0.0050344 0)
(1.05428 0.00780931 0)
(1.04906 0.0106694 0)
(1.04688 0.0128736 0)
(1.04837 0.0137854 0)
(1.05351 0.0137561 0)
(1.06299 0.0131293 0)
(1.07818 0.0122813 0)
(1.09026 0.0109521 0)
(1.03987 0.00799077 0)
(0.831506 0.00402621 0)
(0.480694 0.0011966 0)
(0.0959427 8.43767e-05 0)
(0.110349 0.000100098 0)
(0.707183 0.00116472 0)
(0.988382 0.00112359 0)
(1.10151 0.00107477 0)
(1.10601 0.00218593 0)
(1.08841 0.00375806 0)
(1.07445 0.00585516 0)
(1.06426 0.00829032 0)
(1.05638 0.0109853 0)
(1.05056 0.0135648 0)
(1.04755 0.0152413 0)
(1.04825 0.0156264 0)
(1.05273 0.0151385 0)
(1.06139 0.0141586 0)
(1.07604 0.0129525 0)
(1.08617 0.0113997 0)
(1.03133 0.00863839 0)
(0.821026 0.00462636 0)
(0.473368 0.00142505 0)
(0.0941236 0.000107732 0)
(0.112137 0.000123131 0)
(0.709213 0.00165814 0)
(0.988243 0.00190872 0)
(1.10301 0.00210397 0)
(1.10947 0.00356856 0)
(1.09183 0.00561672 0)
(1.07765 0.00829459 0)
(1.0672 0.0112501 0)
(1.05893 0.0143195 0)
(1.05231 0.0171013 0)
(1.04826 0.0186727 0)
(1.04792 0.0187761 0)
(1.05151 0.0177696 0)
(1.0597 0.0164605 0)
(1.07362 0.0151156 0)
(1.08208 0.0135796 0)
(1.02213 0.0101822 0)
(0.809037 0.0053066 0)
(0.464939 0.00166712 0)
(0.09189 0.000135536 0)
(0.114474 0.000156112 0)
(0.71289 0.00238195 0)
(0.988321 0.00317692 0)
(1.10444 0.00304253 0)
(1.11313 0.00413193 0)
(1.09606 0.00634469 0)
(1.08165 0.0096638 0)
(1.07084 0.0135656 0)
(1.06194 0.0176899 0)
(1.05423 0.0214189 0)
(1.04892 0.0236725 0)
(1.04737 0.0241733 0)
(1.04983 0.0234222 0)
(1.05722 0.0218914 0)
(1.07085 0.0198579 0)
(1.07631 0.017108 0)
(1.00975 0.0117929 0)
(0.795287 0.00585001 0)
(0.455541 0.00191256 0)
(0.0892131 0.000163957 0)
(0.11759 0.000205053 0)
(0.719377 0.00344115 0)
(0.989161 0.00531287 0)
(1.10458 0.00475673 0)
(1.11616 0.00536887 0)
(1.10073 0.00746829 0)
(1.08671 0.0114397 0)
(1.07581 0.0165514 0)
(1.06608 0.0219567 0)
(1.057 0.0268251 0)
(1.0502 0.0299004 0)
(1.04728 0.0307796 0)
(1.04832 0.0300957 0)
(1.05407 0.0282132 0)
(1.0658 0.0252148 0)
(1.06601 0.0201441 0)
(0.993719 0.0129082 0)
(0.780514 0.00641837 0)
(0.44516 0.00220929 0)
(0.0860672 0.000195088 0)
(0.121812 0.000279992 0)
(0.729702 0.00485343 0)
(0.992595 0.00810596 0)
(1.10387 0.00854959 0)
(1.11861 0.00868957 0)
(1.10566 0.010844 0)
(1.09309 0.0157334 0)
(1.08198 0.0218735 0)
(1.07111 0.0281933 0)
(1.0603 0.0336821 0)
(1.05162 0.0368274 0)
(1.04696 0.0373229 0)
(1.04623 0.0359612 0)
(1.04991 0.0332696 0)
(1.0573 0.0287203 0)
(1.05155 0.0218407 0)
(0.976119 0.0137911 0)
(0.765228 0.00722484 0)
(0.433445 0.00258658 0)
(0.0823869 0.000229213 0)
(0.127536 0.000381101 0)
(0.744699 0.00659059 0)
(1.00041 0.0116118 0)
(1.10535 0.0138676 0)
(1.12111 0.0148861 0)
(1.11175 0.0181928 0)
(1.10043 0.0237341 0)
(1.08885 0.0303984 0)
(1.07651 0.0370173 0)
(1.06352 0.042309 0)
(1.05246 0.0446268 0)
(1.04568 0.0438765 0)
(1.04286 0.0410036 0)
(1.04365 0.0367553 0)
(1.0462 0.0307743 0)
(1.03569 0.0232039 0)
(0.958792 0.0152729 0)
(0.748935 0.00850345 0)
(0.419746 0.00310809 0)
(0.0780573 0.000273558 0)
(0.13522 0.000521944 0)
(0.764974 0.00885452 0)
(1.01377 0.0158644 0)
(1.11174 0.0202683 0)
(1.12648 0.023533 0)
(1.11924 0.0285198 0)
(1.1085 0.0349445 0)
(1.09602 0.0419918 0)
(1.08172 0.0485007 0)
(1.066 0.0529799 0)
(1.0521 0.0537185 0)
(1.04268 0.0510168 0)
(1.0374 0.0462441 0)
(1.03513 0.0401878 0)
(1.03386 0.0332221 0)
(1.02007 0.0255484 0)
(0.941651 0.0177407 0)
(0.730562 0.0102964 0)
(0.40336 0.00377845 0)
(0.0729069 0.000327028 0)
(0.145594 0.000738249 0)
(0.791676 0.0121145 0)
(1.03347 0.0214209 0)
(1.12376 0.0281275 0)
(1.1362 0.0339578 0)
(1.12888 0.0410292 0)
(1.11749 0.0488159 0)
(1.10327 0.0564586 0)
(1.08634 0.0627571 0)
(1.0673 0.0660701 0)
(1.05002 0.064795 0)
(1.03769 0.0598352 0)
(1.02975 0.0530066 0)
(1.02474 0.0453243 0)
(1.02073 0.0374695 0)
(1.00452 0.0295347 0)
(0.923419 0.0212701 0)
(0.709138 0.012557 0)
(0.383676 0.00455629 0)
(0.0667703 0.000383209 0)
(0.159909 0.00108061 0)
(0.826612 0.0169449 0)
(1.06038 0.0290132 0)
(1.14161 0.0381264 0)
(1.15064 0.0468103 0)
(1.14141 0.0563392 0)
(1.1278 0.0658284 0)
(1.11066 0.0742226 0)
(1.09018 0.0801933 0)
(1.06714 0.0820313 0)
(1.04601 0.0784538 0)
(1.03054 0.0711017 0)
(1.0199 0.0621527 0)
(1.01253 0.0528696 0)
(1.00643 0.0439653 0)
(0.987941 0.0353282 0)
(0.902549 0.0259453 0)
(0.683236 0.0153843 0)
(0.359941 0.00550178 0)
(0.0595599 0.000449714 0)
(0.180349 0.00169399 0)
(0.872921 0.0245988 0)
(1.09622 0.0403159 0)
(1.16588 0.0521342 0)
(1.17006 0.0642118 0)
(1.15708 0.076277 0)
(1.13952 0.0873735 0)
(1.11804 0.0962077 0)
(1.09301 0.1014 0)
(1.06528 0.10128 0)
(1.03995 0.0950335 0)
(1.02118 0.0851088 0)
(1.00787 0.0739812 0)
(0.998329 0.0629708 0)
(0.990339 0.0527378 0)
(0.969195 0.0429368 0)
(0.87764 0.0318163 0)
(0.651788 0.018854 0)
(0.331584 0.0066172 0)
(0.051181 0.000516345 0)
(0.210206 0.00307445 0)
(0.936401 0.0380033 0)
(1.14295 0.0592825 0)
(1.19724 0.0737643 0)
(1.19412 0.0895627 0)
(1.17521 0.103528 0)
(1.15188 0.115263 0)
(1.12474 0.123526 0)
(1.09429 0.127015 0)
(1.0614 0.124153 0)
(1.03167 0.114707 0)
(1.00952 0.101954 0)
(0.993587 0.0885458 0)
(0.981926 0.0756765 0)
(0.971929 0.0639094 0)
(0.947176 0.0526468 0)
(0.847286 0.0391725 0)
(0.613726 0.0230735 0)
(0.298785 0.0079525 0)
(0.0419297 0.000575485 0)
(0.251443 0.00947711 -2.17692e-21)
(1.02032 0.065075 -1.6215e-21)
(1.19815 0.0919563 4.29125e-22)
(1.23393 0.109468 0)
(1.22009 0.1268 -2.02669e-36)
(1.19361 0.140657 6.17735e-23)
(1.16339 0.151241 -3.06613e-22)
(1.12977 0.157593 0)
(1.09327 0.158428 1.06003e-35)
(1.05472 0.152218 -7.87525e-22)
(1.02015 0.139279 0)
(0.994211 0.123628 -1.1136e-21)
(0.975261 0.107957 -3.39924e-21)
(0.961054 0.0933312 -1.64299e-21)
(0.948454 0.0802113 -5.15936e-22)
(0.919597 0.0677328 -3.1212e-22)
(0.808201 0.0512388 0)
(0.565659 0.0304224 2.23785e-22)
(0.261014 0.0115226 2.65715e-22)
(0.0333651 0.00127911 4.77184e-21)
(0.278292 0.0253291 -4.39322e-21)
(1.08946 0.108589 1.03294e-22)
(1.24464 0.139714 -2.37034e-22)
(1.26698 0.158609 0)
(1.24338 0.17449 2.77807e-22)
(1.20957 0.18665 6.9861e-23)
(1.17246 0.195377 -2.18896e-22)
(1.13221 0.199574 -1.42604e-21)
(1.08916 0.197873 0)
(1.04404 0.188623 3.34279e-21)
(1.00349 0.172587 3.66528e-21)
(0.972516 0.154385 1.17265e-21)
(0.949328 0.136728 4.60235e-21)
(0.931417 0.12044 6.75164e-21)
(0.91469 0.10578 0)
(0.878969 0.0913192 1.00026e-20)
(0.76014 0.0715866 1.46016e-20)
(0.516898 0.045235 1.63522e-20)
(0.231738 0.0196831 -1.88824e-20)
(0.027933 0.00239355 -3.53672e-22)
(0.277056 0.0417072 0)
(1.13152 0.164983 -1.39863e-21)
(1.27809 0.19919 0)
(1.29248 0.21773 2.1158e-21)
(1.26162 0.230069 0)
(1.22145 0.238868 8.42942e-22)
(1.17802 0.244398 2.96392e-22)
(1.13162 0.245413 -2.23044e-21)
(1.08251 0.240473 -3.15309e-22)
(1.03122 0.227884 1.63487e-21)
(0.985106 0.208803 8.5332e-21)
(0.949601 0.188374 -6.09893e-23)
(0.922628 0.169263 -3.45599e-21)
(0.901386 0.152005 -6.68285e-21)
(0.881643 0.136647 8.09092e-21)
(0.844044 0.121189 -1.45494e-20)
(0.730721 0.0980385 -1.99091e-21)
(0.503011 0.0663004 0)
(0.237768 0.0315484 1.2662e-23)
(0.0320869 0.00447434 0)
(0.269113 0.0555975 -3.57492e-20)
(1.15252 0.224787 1.45759e-20)
(1.29939 0.26381 7.67509e-21)
(1.30921 0.281571 -1.42337e-21)
(1.27339 0.290024 2.15545e-21)
(1.22837 0.294904 -2.12701e-21)
(1.17984 0.296585 4.55629e-22)
(1.12813 0.293879 0)
(1.07366 0.285272 -6.6063e-21)
(1.01693 0.269073 0)
(0.965876 0.2469 -4.37724e-21)
(0.926494 0.224425 -6.09668e-21)
(0.896422 0.204079 -3.87997e-21)
(0.872711 0.186194 -4.98591e-21)
(0.851132 0.17029 0)
(0.814224 0.154019 0)
(0.711884 0.12867 -1.3398e-20)
(0.50491 0.0917858 2.68169e-21)
(0.252447 0.0465676 -1.56037e-21)
(0.0383044 0.00747359 -1.84648e-21)
(0.26094 0.0680416 2.67765e-20)
(1.16024 0.284249 0)
(1.31141 0.329854 -2.17489e-20)
(1.31825 0.346581 -5.44599e-21)
(1.27888 0.351399 -3.97132e-21)
(1.23026 0.352403 0)
(1.17778 0.350194 -2.42145e-22)
(1.12179 0.343625 2.09816e-21)
(1.06275 0.33123 2.96086e-21)
(1.00137 0.311259 8.27507e-21)
(0.946169 0.285944 0)
(0.903664 0.261363 -1.332e-20)
(0.871265 0.239832 -8.495e-21)
(0.845751 0.221326 -5.12131e-21)
(0.823096 0.205227 3.34512e-20)
(0.787818 0.188392 4.10764e-21)
(0.696335 0.161527 1.96166e-20)
(0.50781 0.118664 -9.4606e-20)
(0.264638 0.0631487 5.63723e-20)
(0.043505 0.0107728 -6.88211e-20)
(0.253664 0.0792416 2.85235e-20)
(1.15973 0.341583 -5.2133e-21)
(1.31644 0.3952 3.87015e-21)
(1.32124 0.411035 1.03702e-20)
(1.27927 0.412497 6.20506e-21)
(1.2279 0.409809 3.39837e-22)
(1.17226 0.403884 1.46544e-22)
(1.11278 0.39356 1.7114e-21)
(1.04996 0.377391 -6.50968e-21)
(0.984611 0.353642 0)
(0.925977 0.325088 -5.74385e-21)
(0.881001 0.298264 -3.09497e-22)
(0.846945 0.275379 -9.51312e-21)
(0.820332 0.256165 0)
(0.797225 0.2398 -7.31249e-21)
(0.763827 0.22267 -1.78068e-20)
(0.680434 0.194675 4.9172e-20)
(0.50608 0.145589 -4.89829e-20)
(0.26972 0.0790395 6.98437e-20)
(0.0464513 0.0138654 -7.35701e-20)
(0.24786 0.0897015 -1.07389e-22)
(1.1543 0.396218 6.44276e-21)
(1.31623 0.458497 1.86289e-20)
(1.31955 0.47382 -6.41813e-21)
(1.27559 0.472286 3.56894e-21)
(1.22209 0.466187 0)
(1.16392 0.456767 1.36584e-21)
(1.10151 0.442898 -1.4616e-21)
(1.03547 0.423069 -3.03715e-21)
(0.966701 0.395571 0)
(0.905127 0.363694 -5.65361e-21)
(0.858173 0.334449 -7.87084e-21)
(0.822946 0.309923 1.04208e-20)
(0.795752 0.289743 -6.6535e-21)
(0.772694 0.27276 -3.22707e-20)
(0.741162 0.255 1.98361e-20)
(0.66405 0.22519 6.23264e-21)
(0.499111 0.169712 0)
(0.268589 0.0923522 -6.79447e-20)
(0.0469871 0.0163114 -2.52764e-21)
(0.243462 0.0997093 4.72918e-21)
(1.14603 0.447979 -7.44973e-21)
(1.31219 0.519184 -1.02204e-20)
(1.31434 0.534341 -1.97357e-20)
(1.26888 0.530148 1.7532e-20)
(1.21366 0.52097 -8.95073e-21)
(1.15339 0.508338 -2.85593e-21)
(1.08849 0.49114 -2.19373e-21)
(1.01962 0.467826 2.84445e-21)
(0.947821 0.436646 -2.03449e-20)
(0.883599 0.401332 -6.91513e-21)
(0.834876 0.369433 0)
(0.798801 0.342968 1.1407e-20)
(0.771398 0.321409 1.40912e-20)
(0.748671 0.303427 1.73412e-20)
(0.718759 0.284664 -2.16543e-20)
(0.646137 0.252509 -6.52173e-21)
(0.487461 0.190298 7.74117e-21)
(0.262734 0.102938 0)
(0.0459977 0.0180908 -5.50996e-21)
(0.240247 0.109362 -5.52222e-20)
(1.13638 0.49695 3.42558e-20)
(1.30546 0.57705 1.12926e-20)
(1.30653 0.592224 -1.51535e-20)
(1.25984 0.58569 1.05894e-20)
(1.20325 0.573771 -7.96752e-22)
(1.14123 0.558248 2.71191e-21)
(1.07418 0.537991 -9.03579e-22)
(1.00279 0.511404 -5.45776e-21)
(0.928164 0.476657 3.92917e-23)
(0.86153 0.437871 -2.0748e-20)
(0.811348 0.403049 2.00172e-20)
(0.774557 0.374271 -1.27789e-20)
(0.747075 0.350923 1.58737e-20)
(0.724739 0.331594 0)
(0.69616 0.311458 -1.17626e-20)
(0.626525 0.276326 -2.24542e-22)
(0.472091 0.207521 -3.38754e-20)
(0.253025 0.110729 -5.01892e-21)
(0.0437692 0.0191412 0)
(0.238051 0.11884 0)
(1.12614 0.543373 3.73165e-20)
(1.29678 0.632039 2.64752e-20)
(1.29682 0.647325 1.71771e-20)
(1.24915 0.638711 1.01249e-20)
(1.19142 0.624375 0)
(1.12792 0.606272 3.01064e-21)
(1.05899 0.583246 -2.45119e-22)
(0.985299 0.553655 1.16225e-20)
(0.908079 0.515513 -2.52951e-21)
(0.839122 0.473208 -1.52029e-20)
(0.787477 0.435334 1.00574e-20)
(0.749954 0.403986 -3.98451e-22)
(0.722365 0.378507 1.67375e-20)
(0.700447 0.357443 1.09098e-20)
(0.67286 0.335467 -2.56033e-20)
(0.605071 0.296782 3.09595e-20)
(0.45367 0.221222 9.26361e-21)
(0.240391 0.116072 3.8452e-20)
(0.0406157 0.0195327 -1.04049e-19)
(0.236738 0.128246 -1.42883e-20)
(1.11583 0.587407 2.16283e-20)
(1.28679 0.684179 -1.66375e-20)
(1.28582 0.699591 -2.0065e-20)
(1.23732 0.689121 0)
(1.17863 0.672663 8.12894e-21)
(1.11386 0.65228 -8.51756e-21)
(1.04327 0.626782 9.90873e-22)
(0.96747 0.594478 0)
(0.88772 0.553133 -3.89481e-20)
(0.816303 0.507397 4.14656e-20)
(0.763035 0.46623 0)
(0.724811 0.432033 1.51284e-20)
(0.697112 0.404218 -3.99119e-22)
(0.675531 0.381099 -3.45537e-20)
(0.64857 0.356883 1.36051e-20)
(0.581718 0.314085 0)
(0.432702 0.231521 5.01918e-20)
(0.225496 0.119078 0)
(0.0368874 0.0193191 -4.95486e-20)
(0.236119 0.137598 1.59763e-20)
(1.10579 0.629206 2.48026e-20)
(1.27596 0.733492 -1.74541e-20)
(1.27396 0.749029 0)
(1.22474 0.73691 1.41747e-20)
(1.16526 0.718591 0)
(1.09939 0.696195 1.16272e-20)
(1.02731 0.668522 9.77756e-22)
(0.949512 0.633807 1.34889e-21)
(0.867194 0.589553 -1.92564e-20)
(0.79324 0.540456 4.04997e-21)
(0.738179 0.495968 0)
(0.699067 0.458664 -3.22082e-20)
(0.671181 0.428152 4.11678e-22)
(0.64983 0.402716 0)
(0.623157 0.375842 4.83522e-22)
(0.556394 0.328288 4.55731e-20)
(0.409195 0.23838 -4.38468e-20)
(0.208655 0.119652 1.30083e-20)
(0.0326648 0.0184886 0)
(0.235849 0.146774 0)
(1.09613 0.66892 2.78317e-20)
(1.26461 0.780073 2.05821e-20)
(1.26156 0.795696 -4.51143e-22)
(1.21177 0.782103 8.97288e-21)
(1.15161 0.762157 1.92774e-20)
(1.08478 0.738002 -3.68307e-21)
(1.01133 0.708435 1.32848e-23)
(0.931642 0.671618 7.48291e-21)
(0.846781 0.624778 -3.01324e-20)
(0.770138 0.57255 -6.50997e-22)
(0.713024 0.524649 -1.32545e-20)
(0.672701 0.484066 5.27738e-20)
(0.644466 0.450592 -4.89707e-22)
(0.62325 0.422469 -2.72162e-20)
(0.596522 0.39245 -4.97166e-20)
(0.529146 0.339499 0)
(0.383404 0.241959 0)
(0.190131 0.117714 1.42037e-20)
(0.0281234 0.0170894 -8.4298e-21)
(0.236048 0.155911 1.99969e-20)
(1.08703 0.706296 -6.11159e-20)
(1.25302 0.824012 -2.20973e-20)
(1.24894 0.83966 0)
(1.19864 0.824755 -3.18578e-22)
(1.13791 0.803388 2.34021e-20)
(1.07024 0.777708 -1.27909e-20)
(0.995572 0.746522 -4.14047e-21)
(0.9141 0.707925 8.15049e-21)
(0.826714 0.658862 -2.33843e-20)
(0.747124 0.603749 -3.52174e-20)
(0.687592 0.552537 3.53769e-20)
(0.645785 0.508451 0)
(0.616932 0.471669 -1.22498e-20)
(0.595714 0.440527 -2.98528e-20)
(0.5686 0.406811 -3.60017e-20)
(0.499921 0.347616 -4.36339e-20)
(0.355421 0.242129 1.30515e-20)
(0.17005 0.113158 -7.68474e-21)
(0.0232675 0.0151216 7.88934e-23)
(0.236349 0.164789 0)
(1.07851 0.741946 0)
(1.24136 0.8654 5.33971e-22)
(1.23626 0.881009 0)
(1.18555 0.864945 -3.40047e-20)
(1.12435 0.842336 -2.08523e-20)
(1.05598 0.815341 0)
(0.980207 0.782798 -1.26358e-21)
(0.897066 0.742725 1.10806e-20)
(0.807118 0.691828 -5.37596e-20)
(0.724392 0.634185 0)
(0.662048 0.579787 -2.26991e-20)
(0.618277 0.532032 -5.99428e-22)
(0.588515 0.491619 -4.9217e-22)
(0.567131 0.457005 3.18804e-20)
(0.539301 0.418933 -8.32994e-23)
(0.468701 0.352626 -9.47037e-20)
(0.325155 0.238715 2.83685e-20)
(0.148569 0.106017 8.44135e-21)
(0.0182449 0.0126513 0)
(0.236699 0.173425 -7.40822e-20)
(1.0703 0.775822 -3.7695e-20)
(1.22975 0.904326 -5.58177e-20)
(1.2237 0.919846 7.70242e-20)
(1.17266 0.902741 -6.40539e-20)
(1.11107 0.879059 0)
(1.04212 0.850944 -1.11975e-20)
(0.965367 0.817279 2.29033e-21)
(0.880651 0.77603 7.65269e-22)
(0.788181 0.723691 4.21633e-21)
(0.702133 0.663947 4.43662e-20)
(0.636575 0.606607 -7.78704e-21)
(0.590269 0.555147 -3.26378e-20)
(0.559108 0.510686 -1.4546e-20)
(0.537343 0.471992 1.77163e-20)
(0.508557 0.428705 -6.18961e-23)
(0.435643 0.354247 2.59063e-20)
(0.292782 0.231498 -6.14955e-20)
(0.126253 0.0964762 7.33298e-20)
(0.0132845 0.0098406 1.07809e-20)
(0.236809 0.181742 2.73084e-20)
(1.06244 0.808004 -2.06998e-20)
(1.21831 0.940899 1.24925e-21)
(1.21137 0.956287 4.3725e-20)
(1.16006 0.938245 1.50621e-20)
(1.09818 0.91362 4.18942e-20)
(1.02876 0.884558 -5.06662e-21)
(0.951148 0.849979 1.13052e-20)
(0.864981 0.80784 -7.85839e-21)
(0.770056 0.754458 -2.97153e-20)
(0.680542 0.693082 0)
(0.611334 0.633183 -3.50073e-20)
(0.561889 0.578087 4.73997e-20)
(0.528619 0.529251 0)
(0.506045 0.485558 -3.79481e-20)
(0.476104 0.43573 2.34287e-20)
(0.400842 0.351894 -2.79905e-20)
(0.259378 0.220375 -3.35563e-20)
(0.104164 0.0850618 -5.95751e-20)
(0.00865511 0.0068801 -4.70659e-20)
(0.237199 0.189824 -3.01268e-20)
(1.05478 0.838481 2.21585e-20)
(1.20711 0.975192 5.24804e-20)
(1.19934 0.990417 6.02917e-20)
(1.14785 0.971541 -3.15715e-20)
(1.08575 0.946101 2.91013e-20)
(1.01597 0.916231 -1.57506e-20)
(0.937627 0.88094 1.44568e-20)
(0.850139 0.838175 -3.43252e-21)
(0.752857 0.784141 2.87675e-20)
(0.659785 0.721642 9.48056e-20)
(0.586576 0.659613 0)
(0.533289 0.6012 0)
(0.496943 0.547787 -1.68468e-20)
(0.472721 0.497876 0)
(0.441343 0.439363 5.09566e-20)
(0.364361 0.344401 6.10193e-20)
(0.226164 0.204857 0)
(0.0836886 0.0722177 0)
(0.00469223 0.00404179 5.10957e-20)
(0.237214 0.197373 3.33602e-20)
(1.04733 0.86725 2.67251e-20)
(1.1962 1.00732 3.78215e-20)
(1.18768 1.02236 -5.40694e-20)
(1.13607 1.00273 -3.5348e-20)
(1.07384 0.976574 -3.88092e-20)
(1.0038 0.946025 2.34782e-20)
(0.924859 0.910192 9.31429e-23)
(0.836191 0.867038 -9.89971e-22)
(0.736678 0.812719 -1.2125e-21)
(0.640044 0.749634 4.81806e-20)
(0.562515 0.685994 0)
(0.504769 0.624747 4.80087e-20)
(0.464115 0.56694 3.56364e-20)
(0.436662 0.509579 9.04744e-20)
(0.402918 0.438984 2.75423e-20)
(0.325694 0.32945 -3.35118e-20)
(0.19565 0.182808 -1.96917e-20)
(0.0689674 0.0578645 0)
(0.00238296 0.00163597 5.54028e-20)
(0.237529 0.20487 -7.36799e-20)
(1.04008 0.894425 0)
(1.18559 1.03736 4.2457e-20)
(1.17641 1.0522 -4.44594e-20)
(1.12477 1.0319 4.02294e-20)
(1.06248 1.00512 5.69934e-20)
(0.992291 0.973993 -5.48854e-20)
(0.912867 0.937768 3.81896e-22)
(0.823161 0.894433 0)
(0.721589 0.840151 -2.75611e-20)
(0.621473 0.777026 -1.00558e-19)
(0.5394 0.712365 4.831e-21)
(0.476681 0.648887 6.55124e-20)
(0.430405 0.587356 0)
(0.397234 0.521842 6.12352e-20)
(0.358523 0.435044 0)
(0.281391 0.303981 0)
(0.169104 0.145184 -2.1825e-20)
(0.0790047 0.0300523 0)
(0.0236557 0.00594989 1.49365e-20)
(0.237377 0.21173 -8.08259e-20)
(1.03301 0.920305 0)
(1.17528 1.0655 6.90034e-20)
(1.16551 1.08017 0)
(1.11392 1.05931 -2.19503e-20)
(1.0516 1.03202 0)
(0.981368 1.00044 -4.15836e-21)
(0.901558 0.964002 -2.61646e-21)
(0.810943 0.920728 2.03545e-22)
(0.707442 0.86682 -2.7575e-20)
(0.603948 0.804255 2.67827e-21)
(0.5171 0.739263 3.99346e-20)
(0.448871 0.67417 6.36095e-20)
(0.395534 0.610017 9.04171e-21)
(0.353245 0.536754 4.81078e-20)
(0.304601 0.430446 0)
(0.220412 0.270183 7.29484e-20)
(0.118896 0.0836245 -4.32099e-20)
(0.0395283 0.0620773 4.98882e-20)
(-0.0356783 0.42977 -5.91788e-20)
(0.237188 0.218351 6.60851e-20)
(1.02592 0.944747 1.02541e-19)
(1.1652 1.09207 0)
(1.15486 1.10669 1.06546e-21)
(1.10334 1.08551 5.98077e-20)
(1.04097 1.05794 -1.11211e-19)
(0.970747 1.02615 -2.44635e-20)
(0.890563 0.989825 0)
(0.799057 0.947011 -3.19543e-21)
(0.693627 0.894033 -9.22799e-22)
(0.586633 0.832808 0)
(0.49455 0.768492 0)
(0.420136 0.702364 5.5961e-20)
(0.358307 0.636854 -2.82597e-20)
(0.302498 0.557977 -4.82049e-20)
(0.237541 0.431745 0)
(0.123184 0.252284 3.75263e-20)
(0.0185024 0.451023 -4.39401e-20)
(0.0411852 1.86308 -2.39827e-20)
(0.0695713 2.79091 -2.95233e-20)
(0.236654 0.224371 -4.86659e-20)
(1.01888 0.967928 -1.29922e-19)
(1.15534 1.11705 4.00563e-20)
(1.14447 1.13163 3.81895e-20)
(1.0931 1.11032 0)
(1.03066 1.08261 -7.99065e-20)
(0.960613 1.05081 -4.12624e-20)
(0.880049 1.01481 1.80256e-21)
(0.78775 0.972759 -3.93272e-22)
(0.680499 0.921168 2.17776e-20)
(0.570107 0.861938 4.54608e-20)
(0.472735 0.799627 4.14804e-20)
(0.391668 0.732963 5.51503e-20)
(0.321044 0.666294 -6.47022e-20)
(0.251599 0.587848 -7.16607e-20)
(0.158347 0.464096 0)
(0.0608171 0.847754 0)
(0.109013 2.53532 1.97119e-20)
(0.112686 3.18448 0)
(0.113022 3.3795 4.96731e-20)
(0.238869 0.229982 0)
(1.01214 0.99015 0)
(1.14544 1.14032 0)
(1.13413 1.15479 1.06907e-20)
(1.08295 1.13352 5.37412e-20)
(1.02046 1.10589 -6.13138e-20)
(0.95089 1.07432 -2.96791e-20)
(0.869945 1.03883 2.07644e-21)
(0.776956 0.997803 -1.05487e-20)
(0.668046 0.948054 -2.10279e-21)
(0.554456 0.891423 8.29351e-20)
(0.452048 0.832563 -4.8754e-21)
(0.363864 0.766452 6.27444e-21)
(0.28568 0.695248 9.26309e-21)
(0.198023 0.625024 3.6795e-22)
(0.122025 0.986944 3.21475e-22)
(0.153215 2.68528 -9.98458e-20)
(0.164644 3.28605 -3.77513e-20)
(0.150444 3.42407 1.85358e-20)
(0.135098 3.4465 -1.98169e-20)
(0.160979 0.174828 2.88717e-20)
(1.00064 1.01427 0)
(1.13544 1.1621 -7.88752e-20)
(1.12428 1.17652 -9.94117e-20)
(1.0733 1.1556 1.12144e-19)
(1.011 1.1282 6.51045e-20)
(0.94137 1.09672 3.50725e-20)
(0.860277 1.06192 -3.68203e-20)
(0.7668 1.02213 1.21786e-20)
(0.656565 0.974618 0)
(0.540133 0.921083 3.64396e-20)
(0.433083 0.866727 -3.12683e-20)
(0.337396 0.80542 0)
(0.253226 0.729031 8.39567e-21)
(0.170501 0.86472 2.07517e-20)
(0.168602 2.44735 -2.4657e-20)
(0.229159 3.32285 2.81197e-20)
(0.206863 3.44233 1.40445e-20)
(0.171262 3.46294 1.62423e-20)
(0.147979 3.47208 2.21851e-20)
(0.272858 0.266897 -5.6515e-20)
(0.982507 1.02301 0)
(1.11723 1.18664 8.20587e-20)
(1.1107 1.20899 1.04316e-19)
(1.05794 1.18838 -1.16867e-19)
(0.995403 1.16153 -7.01539e-20)
(0.924978 1.13137 -5.44465e-20)
(0.843473 1.09784 -2.72164e-21)
(0.748958 1.06032 -1.87832e-20)
(0.636436 1.01699 4.82267e-21)
(0.515471 0.969891 1.46612e-21)
(0.401426 0.924173 2.4225e-20)
(0.29021 0.877245 5.16635e-21)
(0.22782 1.01482 -7.43138e-21)
(0.240218 2.30534 -1.74499e-20)
(0.297876 3.33085 1.42185e-20)
(0.283621 3.47773 -1.38436e-20)
(0.245853 3.49696 -8.06401e-21)
(0.208046 3.52161 -2.69596e-21)
(0.157446 3.51421 -6.30683e-22)
(0.262391 0.265292 0)
(0.979325 1.04486 2.17037e-20)
(1.10903 1.20934 -1.62383e-20)
(1.10081 1.23152 -1.16326e-20)
(1.04816 1.21092 -7.67736e-20)
(0.985843 1.18429 6.84582e-20)
(0.915241 1.15437 3.67444e-20)
(0.833777 1.1217 -2.87951e-21)
(0.739107 1.08573 2.37502e-20)
(0.625877 1.04538 -2.98501e-21)
(0.503058 1.00318 -4.8055e-20)
(0.385971 0.963585 3.44196e-21)
(0.279894 0.948832 -4.49077e-21)
(0.266296 1.49481 -6.12963e-21)
(0.336794 3.0899 3.74555e-21)
(0.359145 3.47903 5.1407e-22)
(0.313777 3.5364 4.22645e-21)
(0.276083 3.55567 -2.65322e-21)
(0.226319 3.57647 1.02018e-20)
(0.169596 3.57066 3.08495e-21)
(0.247747 0.26251 5.37759e-20)
(0.975065 1.06907 1.45513e-19)
(1.10032 1.23394 -4.63041e-20)
(1.09056 1.25557 -4.41144e-20)
(1.03806 1.23483 0)
(0.975947 1.20821 1.00484e-19)
(0.905433 1.17854 5.62195e-20)
(0.824276 1.14665 -3.05524e-21)
(0.729773 1.11229 2.45236e-21)
(0.616368 1.07507 9.43824e-21)
(0.492524 1.03822 -1.53928e-20)
(0.374744 1.00612 -2.36858e-20)
(0.287417 1.07845 -2.94434e-20)
(0.334275 2.16411 3.18817e-20)
(0.423016 3.38882 1.84344e-20)
(0.403019 3.54713 0)
(0.348838 3.58359 0)
(0.30921 3.62053 9.7259e-21)
(0.252919 3.67261 0)
(0.179695 3.64791 2.36644e-20)
(0.237138 0.263526 -7.83925e-20)
(0.968726 1.09395 -1.20897e-19)
(1.09025 1.25967 0)
(1.07917 1.28048 1.25106e-21)
(1.02685 1.25934 -7.47761e-20)
(0.965062 1.23261 1.49467e-19)
(0.894963 1.20319 3.79335e-20)
(0.814352 1.17198 -3.87137e-21)
(0.720291 1.13915 2.77108e-20)
(0.60714 1.10503 -1.30193e-21)
(0.483048 1.07364 0)
(0.367161 1.05221 0)
(0.318176 1.30813 -2.13053e-20)
(0.418138 2.83841 7.04256e-21)
(0.497602 3.50732 9.42422e-22)
(0.445085 3.58771 0)
(0.399977 3.64131 2.77276e-20)
(0.348826 3.69814 -4.30402e-20)
(0.296425 3.6705 -4.02957e-20)