/*--------------------------------*- C++ -*----------------------------------*\
  =========                 |
  \\      /  F ield         | OpenFOAM: The Open Source CFD Toolbox
   \\    /   O peration     | Website:  https://openfoam.org
    \\  /    A nd           | Version:  6
     \\/     M anipulation  |
\*---------------------------------------------------------------------------*/
FoamFile
{
    version     2.0;
    format      ascii;
    class       volScalarField;
    location    "11.3";
    object      p;
}
// * * * * * * * * * * * * * * * * * * * * * * * * * * * * * * * * * * * * * //

dimensions      [0 2 -2 0 0 0 0];

internalField   nonuniform List<scalar> 
8800
(
0.470683
0.421407
0.38349
0.355483
0.335404
0.320948
0.310516
0.303138
0.298362
0.296238
0.297259
0.301105
0.307423
0.316418
0.328825
0.345921
0.369646
0.402638
0.445496
0.497975
0.304998
0.311394
0.320685
0.324399
0.321988
0.316091
0.30934
0.30322
0.298466
0.295557
0.295113
0.297317
0.301547
0.307283
0.314001
0.320696
0.325264
0.324889
0.318006
0.308973
0.278273
0.284602
0.289283
0.293449
0.296735
0.298033
0.297188
0.295232
0.29321
0.292079
0.292845
0.294968
0.29738
0.299154
0.299181
0.29688
0.293086
0.288736
0.283784
0.280016
0.273577
0.276432
0.279421
0.281968
0.284034
0.285882
0.287251
0.287721
0.287599
0.287492
0.287929
0.288601
0.288865
0.288185
0.286684
0.28485
0.282686
0.279877
0.277127
0.275572
0.268456
0.269955
0.272209
0.274789
0.276875
0.278315
0.279445
0.280525
0.281438
0.282117
0.282303
0.28206
0.281477
0.28068
0.279667
0.278065
0.275781
0.273266
0.271561
0.27079
0.263961
0.264802
0.266894
0.269486
0.271974
0.274296
0.276128
0.277341
0.278143
0.278692
0.279075
0.279083
0.278598
0.277432
0.275557
0.273322
0.270892
0.268475
0.267104
0.266777
0.262263
0.262655
0.263859
0.265438
0.267063
0.268583
0.270102
0.271621
0.2729
0.273823
0.274163
0.273897
0.273105
0.272041
0.27084
0.269462
0.26798
0.266589
0.265858
0.265726
0.261085
0.261309
0.261955
0.262877
0.263901
0.265195
0.266461
0.267677
0.268811
0.269749
0.270266
0.270258
0.269851
0.269136
0.268234
0.267353
0.266554
0.26584
0.265467
0.265386
0.258993
0.259117
0.259482
0.260059
0.26081
0.261684
0.262823
0.264066
0.265299
0.266394
0.267053
0.267166
0.266886
0.266404
0.265881
0.265385
0.264956
0.264602
0.264419
0.264372
0.256074
0.256144
0.256423
0.256919
0.257521
0.258094
0.259012
0.260059
0.261216
0.262392
0.263299
0.263762
0.263875
0.263766
0.263738
0.263485
0.263193
0.262945
0.262843
0.262821
0.252826
0.252862
0.253073
0.253487
0.254006
0.254807
0.255634
0.25669
0.257937
0.25931
0.260486
0.261233
0.261629
0.261817
0.261624
0.261599
0.261464
0.261337
0.261298
0.261289
0.249333
0.249362
0.249525
0.249865
0.250351
0.251004
0.251856
0.252962
0.254345
0.255969
0.257493
0.258593
0.259296
0.259709
0.259921
0.259993
0.259984
0.25996
0.259961
0.259954
0.245457
0.245486
0.245631
0.245934
0.246403
0.247073
0.248002
0.249252
0.25087
0.25285
0.254804
0.256289
0.257305
0.257969
0.258373
0.258605
0.258725
0.258788
0.258817
0.25881
0.241101
0.241127
0.241284
0.241591
0.242086
0.242822
0.243881
0.245348
0.247297
0.249747
0.25223
0.254184
0.25556
0.256501
0.257116
0.257502
0.257735
0.257867
0.25792
0.257913
0.236188
0.236216
0.236393
0.236748
0.237318
0.238183
0.239447
0.241226
0.243625
0.246682
0.249825
0.252335
0.254155
0.2554
0.256233
0.256773
0.25711
0.257302
0.257377
0.25737
0.230616
0.23065
0.230865
0.231292
0.231985
0.233043
0.234598
0.236802
0.239793
0.243631
0.247608
0.250809
0.25312
0.25473
0.255814
0.256522
0.256968
0.257223
0.257321
0.257313
0.224225
0.224268
0.224538
0.225072
0.22594
0.227266
0.229217
0.231985
0.235746
0.24058
0.245595
0.249632
0.252559
0.254599
0.255977
0.256881
0.25745
0.257776
0.257901
0.25789
0.216805
0.216863
0.217212
0.217893
0.219
0.22069
0.223166
0.22667
0.231429
0.237527
0.243836
0.248906
0.252578
0.255139
0.25687
0.258005
0.25872
0.259128
0.259285
0.259272
0.208058
0.208131
0.20858
0.20947
0.210919
0.213099
0.21627
0.220737
0.226776
0.234473
0.242395
0.248733
0.253315
0.256508
0.258667
0.260081
0.260971
0.261477
0.261671
0.261655
0.197576
0.197673
0.198265
0.199437
0.201331
0.204153
0.208261
0.214022
0.221716
0.231433
0.241352
0.249243
0.254932
0.258895
0.261576
0.263333
0.264436
0.265058
0.265296
0.265276
0.184807
0.18494
0.185726
0.187289
0.189801
0.193539
0.198912
0.206341
0.216173
0.228436
0.240812
0.250586
0.257616
0.262515
0.265837
0.26802
0.269391
0.270162
0.270454
0.270422
0.168969
0.169157
0.170222
0.172355
0.175752
0.180738
0.187824
0.197513
0.210111
0.225548
0.240903
0.252936
0.261576
0.26761
0.271719
0.274438
0.276151
0.277104
0.27746
0.277418
0.148872
0.149139
0.150644
0.153659
0.158365
0.165178
0.174711
0.187439
0.203576
0.222902
0.241795
0.256483
0.267033
0.274439
0.279521
0.282915
0.28508
0.286288
0.286723
0.286667
0.122604
0.12301
0.125292
0.129799
0.136614
0.146246
0.159283
0.176086
0.196697
0.220688
0.243676
0.261408
0.274183
0.283238
0.289535
0.293806
0.296575
0.298138
0.298704
0.298627
0.0869296
0.0876763
0.0915326
0.0988216
0.109259
0.1233
0.141364
0.16357
0.189701
0.21912
0.246702
0.267823
0.283124
0.294135
0.301965
0.307426
0.311069
0.313158
0.313912
0.313806
0.0356351
0.0377773
0.0456899
0.0586865
0.0754818
0.0963209
0.121332
0.150358
0.18298
0.218453
0.250985
0.275732
0.293791
0.307037
0.316753
0.323835
0.328817
0.331871
0.333009
0.332862
-0.0409931
-0.0305073
-0.0125468
0.0106266
0.036974
0.066834
0.100269
0.137096
0.176901
0.218982
0.256928
0.285746
0.307041
0.323065
0.335302
0.344818
0.352086
0.357094
0.359402
0.359673
-0.121536
-0.100232
-0.0714293
-0.0378195
-0.00169538
0.0372339
0.0791293
0.123907
0.171279
0.22069
0.265076
0.299017
0.324528
0.344223
0.359817
0.372389
0.38272
0.391216
0.395416
0.395914
-0.186646
-0.161516
-0.124687
-0.0827102
-0.0381186
0.00917192
0.0590886
0.111505
0.166129
0.222447
0.272688
0.311044
0.339924
0.362322
0.38012
0.394549
0.406217
0.415333
0.419669
0.420342
-0.238102
-0.210774
-0.169201
-0.121472
-0.0704129
-0.0163323
0.0404482
0.0996796
0.160904
0.223517
0.278894
0.320772
0.351994
0.375916
0.39463
0.409541
0.421529
0.430677
0.435241
0.435951
-0.279758
-0.251529
-0.206644
-0.154568
-0.0985693
-0.0391726
0.0233306
0.0884271
0.155509
0.22371
0.283549
0.328353
0.361335
0.386251
0.405479
0.420589
0.432546
0.441544
0.446175
0.446922
-0.314976
-0.286378
-0.239142
-0.18361
-0.123581
-0.0596949
0.00764807
0.0778411
0.150145
0.223503
0.28749
0.334908
0.369382
0.395079
0.414624
0.429757
0.441591
0.450372
0.454992
0.455756
-0.345937
-0.317175
-0.268107
-0.209794
-0.146412
-0.0786695
-0.00708336
0.0677173
0.144819
0.222934
0.29076
0.340626
0.376504
0.402919
0.42277
0.437961
0.449722
0.458361
0.462924
0.463699
-0.374064
-0.345181
-0.294649
-0.234016
-0.167785
-0.096712
-0.0213496
0.0575783
0.13908
0.221729
0.293394
0.345789
0.383147
0.410365
0.430588
0.445897
0.457632
0.466161
0.47064
0.471423
-0.400199
-0.371139
-0.319415
-0.256781
-0.18811
-0.114161
-0.035496
0.0471775
0.132855
0.219966
0.295533
0.350604
0.389598
0.417746
0.438443
0.45394
0.465696
0.474147
0.478529
0.47933
-0.425033
-0.395732
-0.342941
-0.27857
-0.20779
-0.131307
-0.0496527
0.0364754
0.126077
0.217534
0.297122
0.355111
0.395983
0.425254
0.446564
0.462344
0.474178
0.482566
0.486837
0.487643
-0.448803
-0.419268
-0.365537
-0.299655
-0.227002
-0.148278
-0.0639684
0.025289
0.118569
0.214324
0.298094
0.359292
0.402345
0.432984
0.455088
0.471275
0.483253
0.491614
0.495763
0.49653
-0.471846
-0.441964
-0.387406
-0.320214
-0.245941
-0.165258
-0.0785801
0.0135351
0.110279
0.210228
0.29833
0.363048
0.408636
0.440958
0.464084
0.480836
0.493072
0.501459
0.505468
0.50615
-0.494206
-0.463985
-0.40867
-0.340335
-0.264658
-0.182261
-0.0934829
0.00120354
0.101147
0.205141
0.297671
0.366226
0.414753
0.44913
0.473564
0.49107
0.503679
0.512156
0.516053
0.516588
-0.515956
-0.48537
-0.42937
-0.360046
-0.283148
-0.199268
-0.108668
-0.0117002
0.0911582
0.199
0.295962
0.368627
0.420515
0.457383
0.48347
0.501972
0.515094
0.523727
0.527533
0.527896
-0.537136
-0.506194
-0.449534
-0.379346
-0.301419
-0.216266
-0.124094
-0.0251329
0.0803412
0.191765
0.29307
0.370029
0.425651
0.465487
0.493672
0.513493
0.527331
0.536188
0.539882
0.540051
-0.557771
-0.526405
-0.46914
-0.398205
-0.319403
-0.233187
-0.139689
-0.0390247
0.0687373
0.18341
0.288875
0.370155
0.429805
0.473125
0.503983
0.525498
0.540222
0.549322
0.552849
0.552841
-0.577695
-0.54595
-0.488132
-0.416571
-0.337038
-0.249948
-0.155371
-0.053286
0.0564244
0.173982
0.283275
0.368794
0.432671
0.479977
0.514189
0.537969
0.553801
0.563083
0.566307
0.566064
-0.596876
-0.564793
-0.506476
-0.434387
-0.354263
-0.266475
-0.171039
-0.0678182
0.0435062
0.163526
0.276269
0.365782
0.433884
0.485522
0.523842
0.550831
0.568143
0.577273
0.579836
0.579319
-0.615364
-0.582898
-0.524132
-0.451616
-0.371004
-0.282684
-0.186593
-0.0825019
0.0301011
0.152131
0.267856
0.36097
0.433013
0.489033
0.53219
0.563873
0.583938
0.592432
0.593028
0.592058
-0.633016
-0.60025
-0.541063
-0.468194
-0.387202
-0.298487
-0.201936
-0.0972219
0.0163528
0.139928
0.258084
0.354341
0.42986
0.48982
0.538106
0.576074
0.601804
0.611301
0.607363
0.602815
-0.649915
-0.616843
-0.557294
-0.484139
-0.402891
-0.313934
-0.21712
-0.112043
0.00217688
0.126871
0.246852
0.345634
0.424183
0.487126
0.540005
0.585185
0.619963
0.637295
0.63132
0.621874
-0.666005
-0.632755
-0.572936
-0.499616
-0.41834
-0.329342
-0.232545
-0.127447
-0.0129911
0.11227
0.233411
0.334032
0.415212
0.479658
0.53457
0.585535
0.627652
0.647422
0.64106
0.623351
-0.681193
-0.647942
-0.587832
-0.514443
-0.433339
-0.344428
-0.247984
-0.143101
-0.0288124
0.0964861
0.218011
0.319411
0.402625
0.467382
0.517838
0.567286
0.604536
0.609063
0.550602
0.512994
-0.695384
-0.662844
-0.60152
-0.528128
-0.447352
-0.358769
-0.2632
-0.158756
-0.0450153
0.0797782
0.200756
0.301752
0.386001
0.451433
0.490246
0.521444
0.541547
0.50569
0.436661
0.391593
-0.735337
-0.676157
-0.613988
-0.541351
-0.461043
-0.373141
-0.278106
-0.174519
-0.0617816
0.0618861
0.181413
0.280946
0.36339
0.432994
0.450055
0.45032
0.428485
0.3702
0.291051
0.248051
-0.705263
-0.687875
-0.632469
-0.561447
-0.481262
-0.394334
-0.300733
-0.198752
-0.0879977
0.0330938
0.148752
0.244752
0.31878
0.379123
0.382701
0.267457
0.162368
0.0931046
0.0185759
0.0622543
-0.732801
-0.702621
-0.646872
-0.575783
-0.496321
-0.410237
-0.317177
-0.216483
-0.107511
0.0110141
0.122871
0.214837
0.281782
0.310035
0.253897
0.0929261
-0.0457227
-0.136784
-0.238499
-0.165753
-0.752905
-0.720408
-0.663165
-0.591969
-0.513046
-0.427549
-0.335279
-0.236046
-0.129364
-0.0140168
0.0937604
0.17948
0.237096
0.233188
0.103108
-0.107115
-0.280827
-0.401638
-0.535598
-0.469427
-0.771588
-0.738178
-0.679884
-0.608438
-0.529801
-0.444928
-0.353771
-0.256252
-0.152029
-0.039893
0.0637383
0.141948
0.185814
0.13885
-0.0692225
-0.323883
-0.547781
-0.742147
-0.918919
-0.851239
-0.789207
-0.755702
-0.696932
-0.625315
-0.546949
-0.462799
-0.372946
-0.277309
-0.175525
-0.0666833
0.0319732
0.102131
0.126775
0.0307974
-0.24354
-0.541017
-0.825646
-1.06908
-1.37377
-1.47533
-0.806427
-0.77332
-0.714467
-0.642847
-0.564796
-0.481387
-0.392859
-0.299111
-0.199814
-0.0949816
-0.00269365
0.0592831
0.0638132
-0.0920451
-0.407371
-0.734826
-1.05486
-1.3198
-1.53623
-1.81021
-0.82389
-0.791279
-0.73262
-0.661206
-0.58362
-0.501116
-0.414033
-0.322456
-0.2261
-0.126681
-0.0408823
0.0115027
-0.00891726
-0.234417
-0.561423
-0.900103
-1.20166
-1.38687
-1.43719
-1.46302
-0.841817
-0.809659
-0.751338
-0.680289
-0.603347
-0.521964
-0.436638
-0.347756
-0.254826
-0.161148
-0.0812268
-0.0416706
-0.103188
-0.376921
-0.702064
-1.02784
-1.28109
-1.37437
-1.39242
-1.393
-0.860377
-0.828459
-0.770481
-0.699878
-0.623722
-0.543704
-0.460494
-0.374736
-0.285786
-0.197953
-0.12502
-0.101281
-0.203737
-0.51732
-0.827546
-1.13301
-1.34695
-1.37205
-1.36791
-1.3643
-0.879196
-0.847526
-0.789847
-0.719723
-0.644507
-0.566048
-0.48543
-0.402882
-0.319149
-0.236816
-0.173082
-0.168977
-0.316513
-0.656881
-0.941647
-1.1994
-1.36022
-1.36668
-1.35305
-1.3483
-0.898
-0.866467
-0.809072
-0.739453
-0.665288
-0.588684
-0.510953
-0.43229
-0.355108
-0.279512
-0.224714
-0.241419
-0.448272
-0.802898
-1.0468
-1.17934
-1.27308
-1.32309
-1.34966
-1.35222
-0.915933
-0.884687
-0.827624
-0.758508
-0.685498
-0.611057
-0.536423
-0.463038
-0.392455
-0.324674
-0.277236
-0.313726
-0.602887
-0.986907
-1.20056
-1.16009
-1.24058
-1.36743
-1.43496
-1.44902
-0.932442
-0.901491
-0.844714
-0.776125
-0.704404
-0.632297
-0.5615
-0.494255
-0.429855
-0.368056
-0.328659
-0.383574
-0.770945
-1.25969
-1.58018
-1.52105
-1.53407
-1.61597
-1.6773
-1.69731
-0.946628
-0.915914
-0.859396
-0.79134
-0.721025
-0.65149
-0.585358
-0.524428
-0.467812
-0.409093
-0.377801
-0.443257
-0.923552
-1.60382
-2.21723
-2.35737
-2.24496
-2.13913
-2.1012
-2.10532
-0.957136
-0.926704
-0.870464
-0.802982
-0.73415
-0.667505
-0.606459
-0.553554
-0.508246
-0.452143
-0.423921
-0.509036
-1.03197
-1.83664
-2.71087
-3.12874
-3.07871
-2.85217
-2.65659
-2.60299
-0.96245
-0.932416
-0.876528
-0.809688
-0.742417
-0.678825
-0.623288
-0.580728
-0.553772
-0.508794
-0.484561
-0.596968
-1.05511
-1.81887
-2.7026
-3.29439
-3.40376
-3.24894
-2.9903
-2.85481
-0.961123
-0.931453
-0.876089
-0.810039
-0.744357
-0.683941
-0.634898
-0.606376
-0.60776
-0.601713
-0.604753
-0.714959
-0.994882
-1.50088
-2.07804
-2.52338
-2.68923
-2.65351
-2.48243
-2.37078
-0.951801
-0.922432
-0.867704
-0.802658
-0.738577
-0.681263
-0.639344
-0.62842
-0.674795
-0.771391
-0.890854
-0.944923
-0.864942
-0.985646
-1.06173
-1.22938
-1.23099
-1.09825
-0.906645
-0.798586
-0.932878
-0.903956
-0.850192
-0.786403
-0.723821
-0.669205
-0.634208
-0.64397
-0.760312
-1.06098
-1.40264
-1.23026
-0.729232
-0.379842
0.10987
0.508268
0.79108
0.989836
1.13315
1.20082
-0.903364
-0.874996
-0.82264
-0.76042
-0.699108
-0.64618
-0.616009
-0.644403
-0.842703
-1.4413
-2.1053
-1.51295
-0.603103
0.221833
1.02197
1.62512
2.04592
2.25133
2.34319
2.37111
-0.863082
-0.835456
-0.784611
-0.724127
-0.663766
-0.610896
-0.580514
-0.612693
-0.843254
-1.6479
-2.44456
-1.55828
-0.522623
0.500648
1.27881
1.80685
2.1291
2.27711
2.33936
2.35456
-0.810933
-0.784235
-0.73584
-0.6775
-0.617858
-0.563184
-0.526085
-0.53891
-0.70603
-1.30483
-1.74622
-1.01319
-0.129416
0.661492
1.20475
1.53718
1.73504
1.84282
1.89837
1.90636
-0.746184
-0.721638
-0.676682
-0.62111
-0.562513
-0.50537
-0.457634
-0.437008
-0.48893
-0.68933
-0.715215
-0.233133
0.321806
0.767433
1.06664
1.25803
1.38183
1.46155
1.5004
1.50663
-0.670453
-0.648531
-0.608073
-0.556435
-0.499801
-0.441425
-0.384407
-0.334562
-0.299657
-0.266976
-0.13637
0.175861
0.494989
0.729395
0.897663
1.0162
1.10062
1.1583
1.19168
1.20215
-0.584358
-0.568946
-0.532623
-0.484795
-0.432072
-0.374985
-0.313814
-0.24833
-0.174403
-0.0717849
0.0876453
0.288946
0.4738
0.61282
0.715782
0.791975
0.849028
0.889526
0.912145
0.9186
-0.476551
-0.468711
-0.442454
-0.403869
-0.359168
-0.308463
-0.250994
-0.185086
-0.105771
0.00111976
0.140517
0.287896
0.415587
0.513196
0.585109
0.636867
0.673786
0.70032
0.716326
0.719865
-0.370233
-0.366514
-0.34828
-0.31939
-0.284736
-0.243486
-0.194332
-0.135235
-0.0617338
0.0350323
0.151242
0.26304
0.355959
0.426339
0.477111
0.512486
0.535958
0.550775
0.558505
0.560214
-0.268204
-0.266621
-0.255354
-0.236045
-0.211401
-0.180368
-0.14154
-0.0922129
-0.0291493
0.0534598
0.147806
0.233652
0.302195
0.353157
0.388918
0.412865
0.428025
0.436903
0.44102
0.441481
-0.174609
-0.174422
-0.168749
-0.157915
-0.142493
-0.121433
-0.092728
-0.0541608
-0.0030392
0.0643759
0.139712
0.206013
0.257404
0.294558
0.319943
0.336364
0.346124
0.351162
0.353158
0.353154
-0.0962446
-0.0969281
-0.0960602
-0.0923316
-0.0843893
-0.0711335
-0.0509763
-0.0221627
0.0179683
0.0714729
0.130748
0.181608
0.220054
0.247321
0.265453
0.276482
0.28264
0.285569
0.286542
0.286393
-0.0389349
-0.0399458
-0.041418
-0.0417618
-0.0389947
-0.0316299
-0.0181698
0.00293696
0.0334521
0.0749958
0.120852
0.159714
0.188582
0.208461
0.221276
0.228991
0.23308
0.234787
0.235262
0.235085
-0.00104318
-0.00196812
-0.00406752
-0.00585003
-0.00558615
-0.00192363
0.00658797
0.0215934
0.0444889
0.0763828
0.111556
0.140924
0.162381
0.177057
0.186384
0.191699
0.194287
0.195219
0.195391
0.195215
0.0220476
0.0213681
0.0195369
0.0177265
0.017336
0.0193795
0.0249249
0.0353842
0.0521941
0.07625
0.103023
0.125296
0.141384
0.152066
0.158581
0.162193
0.163821
0.164237
0.164218
0.164062
0.0355262
0.0350831
0.0338144
0.0324356
0.0319513
0.033206
0.0371513
0.0447981
0.0572454
0.0752851
0.0954087
0.111991
0.123773
0.13155
0.136273
0.138761
0.139741
0.13986
0.139758
0.139633
0.0434087
0.0431256
0.0423233
0.0414194
0.0410915
0.0419072
0.0446112
0.0501188
0.0593361
0.0728364
0.0879373
0.100363
0.109179
0.114901
0.11825
0.11994
0.120541
0.120533
0.120418
0.120319
0.0479488
0.0477603
0.0472353
0.0466408
0.0464605
0.0471166
0.0491335
0.053166
0.0599493
0.0700121
0.0813141
0.0905459
0.0969984
0.101129
0.103515
0.104678
0.105041
0.104974
0.104863
0.104783
0.050137
0.0500058
0.0496259
0.0491888
0.0490518
0.049522
0.051
0.0539912
0.0590301
0.0665033
0.0748921
0.0817311
0.0864966
0.0895226
0.0912343
0.0920375
0.0922549
0.0921693
0.0920707
0.0920067
0.0504891
0.0503967
0.0501207
0.049798
0.0496998
0.0500506
0.0511375
0.0533341
0.057058
0.0626144
0.0688573
0.0739195
0.0774183
0.0796069
0.0808231
0.0813711
0.0814907
0.0813969
0.0813111
0.0812601
0.0494457
0.0493786
0.0491794
0.0489436
0.0488735
0.0491354
0.0499434
0.0515733
0.0543305
0.0584435
0.0630623
0.066793
0.0693545
0.0709414
0.0718069
0.0721785
0.0722368
0.0721453
0.0720724
0.0720317
0.0473784
0.0473279
0.047184
0.0470147
0.0469672
0.0471634
0.0477606
0.0489642
0.0510031
0.054047
0.0574618
0.0602099
0.0620812
0.0632274
0.06384
0.0640896
0.064111
0.0640278
0.0639665
0.063934
0.0445723
0.0445335
0.044428
0.0443056
0.0442734
0.0444206
0.0448634
0.0457529
0.0472581
0.0495052
0.0520224
0.0540373
0.0553995
0.0562254
0.0566573
0.0568229
0.0568227
0.0567493
0.0566981
0.0566721
0.0412264
0.041196
0.0411164
0.0410252
0.0410006
0.0411084
0.0414338
0.0420885
0.043197
0.044852
0.0467016
0.0481734
0.049163
0.0497559
0.0500585
0.0501661
0.0501535
0.05009
0.0500474
0.0500267
0.0374796
0.0374557
0.0373943
0.0373239
0.0373028
0.0373792
0.037616
0.0380951
0.038908
0.0401221
0.0414758
0.0425471
0.0432629
0.0436855
0.0438952
0.0439627
0.0439432
0.0438886
0.0438534
0.0438369
0.0334327
0.0334137
0.0333654
0.0333097
0.0332899
0.033342
0.0335117
0.0338593
0.0344514
0.0353372
0.0363232
0.0370995
0.037614
0.0379123
0.0380551
0.0380945
0.0380716
0.038025
0.0379959
0.0379829
0.0291611
0.0291459
0.0291075
0.0290625
0.0290434
0.0290766
0.0291957
0.0294447
0.0298724
0.0305134
0.031226
0.0317847
0.0321508
0.032359
0.032454
0.0324745
0.0324504
0.0324108
0.032387
0.0323768
0.024723
0.024711
0.02468
0.024643
0.0246241
0.0246429
0.024724
0.0248993
0.0252039
0.0256627
0.0261721
0.0265695
0.0268261
0.0269687
0.0270299
0.0270378
0.0270143
0.0269809
0.0269614
0.0269533
0.0201614
0.0201517
0.0201269
0.0200962
0.020078
0.0200865
0.0201395
0.0202597
0.0204722
0.0207944
0.0211517
0.0214286
0.0216048
0.0216996
0.0217366
0.0217361
0.0217139
0.021686
0.0216701
0.0216638
0.0155083
0.0155008
0.015481
0.0154557
0.0154387
0.0154401
0.0154722
0.015551
0.0156939
0.0159125
0.016154
0.0163401
0.0164569
0.0165173
0.0165375
0.0165318
0.0165115
0.0164884
0.0164756
0.0164709
0.0107889
0.0107834
0.0107677
0.010747
0.0107319
0.010729
0.0107462
0.0107938
0.0108828
0.011021
0.0111738
0.0112902
0.0113616
0.0113965
0.0114056
0.0113978
0.0113803
0.0113616
0.0113517
0.0113484
0.00601904
0.00601512
0.0060037
0.00598931
0.00597876
0.00597501
0.00598214
0.00600585
0.00605191
0.00612468
0.00620499
0.00626567
0.00630195
0.00631853
0.006321
0.00631437
0.00630191
0.00628835
0.00628107
0.00627886
0.00121175
0.00121153
0.0012104
0.00120557
0.0012008
0.00119801
0.00119793
0.00120061
0.00120686
0.00121759
0.00123249
0.00124629
0.00125519
0.00125995
0.00126156
0.00126038
0.00125678
0.00125177
0.00124831
0.00124803
-0.671565
-0.407743
-0.161367
0.0377043
0.202182
0.337235
0.454436
0.551683
0.585796
0.581194
-0.257881
-0.0884434
0.0673963
0.202912
0.319327
0.417763
0.49747
0.553431
0.583904
0.599504
0.0190918
0.127279
0.234495
0.329642
0.41211
0.481343
0.536214
0.57732
0.606193
0.62531
0.210078
0.285751
0.36216
0.430864
0.490481
0.540976
0.582595
0.616267
0.641072
0.660173
0.35627
0.411022
0.46704
0.518477
0.563741
0.603257
0.637163
0.665182
0.68585
0.704213
0.474767
0.517114
0.559895
0.600661
0.637762
0.670722
0.699405
0.723178
0.740844
0.758568
0.5749
0.611714
0.64843
0.683804
0.716468
0.745981
0.77162
0.792423
0.807614
0.824887
0.669211
0.704528
0.739963
0.7738
0.804921
0.832657
0.856358
0.875151
0.888479
0.90525
0.768226
0.806238
0.842852
0.876927
0.907559
0.934245
0.956472
0.973577
0.985753
1.00208
0.884025
0.925447
0.963681
0.997804
1.02721
1.05201
1.07234
1.08818
1.10044
1.11664
1.02721
1.06882
1.10469
1.13495
1.16081
1.18294
1.20186
1.21771
1.23111
1.24714
1.19982
1.23269
1.25992
1.28261
1.303
1.32204
1.34008
1.35704
1.37207
1.38783
1.38701
1.40443
1.42166
1.43856
1.45485
1.46968
1.48373
1.4984
1.51375
1.53111
1.57018
1.58057
1.59391
1.60495
1.61453
1.62438
1.63508
1.64529
1.65465
1.68039
1.78842
1.78283
1.77015
1.75588
1.74963
1.75549
1.77373
1.80233
1.83611
1.87245
2.09174
1.95549
1.87607
1.83382
1.81654
1.82051
1.84799
1.90587
2.01357
2.192
0.374283
0.368
0.360341
0.349347
0.335912
0.323394
0.313136
0.305295
0.299722
0.29646
0.295948
0.298337
0.303109
0.310043
0.319241
0.330814
0.344148
0.356884
0.365732
0.373213
0.283228
0.289187
0.297392
0.303675
0.306967
0.306736
0.303979
0.300218
0.296695
0.294282
0.293911
0.295893
0.299299
0.3033
0.306912
0.308689
0.307269
0.302367
0.29512
0.287167
0.275951
0.278341
0.281894
0.285095
0.287964
0.290595
0.292091
0.292064
0.291106
0.290113
0.290042
0.291219
0.292669
0.293551
0.293024
0.290982
0.288267
0.285379
0.281943
0.278754
0.271077
0.272142
0.274252
0.276889
0.279043
0.280584
0.281879
0.283091
0.283981
0.28454
0.284892
0.284992
0.284755
0.284007
0.282977
0.281773
0.280057
0.277661
0.275209
0.273625
0.265925
0.266466
0.268075
0.270733
0.273381
0.275601
0.277264
0.278426
0.279291
0.27996
0.280415
0.28054
0.280306
0.279694
0.278574
0.276811
0.274476
0.271833
0.269638
0.268673
0.26283
0.263018
0.264095
0.266107
0.268234
0.270309
0.272349
0.274093
0.275407
0.276311
0.276867
0.276983
0.276523
0.275464
0.273863
0.272045
0.270111
0.2681
0.266496
0.266004
0.261767
0.261871
0.262427
0.263513
0.264746
0.266032
0.267249
0.268509
0.269764
0.270861
0.271566
0.27168
0.271313
0.27064
0.269851
0.268836
0.267773
0.266713
0.265909
0.265654
0.260165
0.260224
0.260531
0.261153
0.261965
0.26296
0.264237
0.265578
0.26684
0.267965
0.26879
0.269092
0.268878
0.268293
0.267474
0.266758
0.26611
0.265532
0.265129
0.264993
0.257602
0.257633
0.257818
0.258236
0.258808
0.259442
0.260247
0.261257
0.262414
0.263588
0.264576
0.265111
0.265212
0.265064
0.264835
0.264568
0.264236
0.263917
0.263704
0.263639
0.254473
0.25448
0.254611
0.254968
0.25545
0.256123
0.256983
0.257919
0.25904
0.260285
0.261475
0.2623
0.262706
0.262806
0.262735
0.262628
0.262434
0.262199
0.262066
0.262038
0.251122
0.251122
0.251218
0.251503
0.251954
0.252546
0.25329
0.254247
0.255441
0.256849
0.258312
0.259461
0.260177
0.260582
0.260774
0.260786
0.260742
0.260653
0.260609
0.260604
0.24745
0.247454
0.24753
0.247767
0.248162
0.248721
0.249485
0.250506
0.251832
0.253478
0.255295
0.256832
0.257895
0.258574
0.258985
0.259205
0.259304
0.259336
0.259357
0.259362
0.243346
0.243345
0.24343
0.24365
0.244034
0.244612
0.245443
0.246601
0.248156
0.250147
0.252418
0.254426
0.255862
0.256841
0.257478
0.257878
0.258114
0.258248
0.258318
0.258332
0.238721
0.238717
0.238809
0.239057
0.239477
0.240126
0.241086
0.242454
0.244329
0.246778
0.249631
0.252203
0.254076
0.25541
0.256301
0.25688
0.257245
0.257464
0.257575
0.257598
0.233497
0.233492
0.233604
0.233892
0.23439
0.235166
0.236324
0.237994
0.240307
0.243359
0.246951
0.250223
0.252657
0.254363
0.255531
0.256304
0.2568
0.257101
0.257252
0.257283
0.227539
0.227532
0.227671
0.228028
0.228643
0.229603
0.23104
0.23312
0.236013
0.239845
0.244371
0.248509
0.251588
0.25377
0.255265
0.25626
0.256902
0.257293
0.257489
0.257528
0.220662
0.220652
0.220831
0.221282
0.222061
0.223273
0.225086
0.227714
0.231368
0.236202
0.241906
0.247118
0.250992
0.253741
0.255628
0.256886
0.2577
0.258198
0.258446
0.258494
0.212618
0.212607
0.212841
0.21343
0.214425
0.215964
0.21828
0.221633
0.226278
0.232394
0.239581
0.246122
0.250972
0.254411
0.256771
0.258347
0.259371
0.259999
0.26031
0.260369
0.203064
0.203051
0.203361
0.204126
0.205418
0.207417
0.210425
0.214735
0.22065
0.228394
0.237437
0.245619
0.251662
0.255942
0.258878
0.260841
0.26212
0.26291
0.2633
0.263373
0.191528
0.191515
0.191936
0.192953
0.194651
0.197281
0.201187
0.206747
0.214348
0.224187
0.235544
0.245734
0.253228
0.258527
0.262163
0.264596
0.266188
0.267178
0.267669
0.267759
0.177324
0.17731
0.1779
0.179284
0.181562
0.185062
0.190229
0.197514
0.207303
0.219788
0.233998
0.246618
0.255857
0.262388
0.266876
0.269883
0.271853
0.273083
0.273693
0.273807
0.159458
0.159455
0.160317
0.162251
0.165392
0.170178
0.177136
0.186744
0.199406
0.215235
0.232918
0.248434
0.259747
0.26776
0.273291
0.277013
0.279458
0.280992
0.281767
0.281911
0.136442
0.136484
0.137797
0.140591
0.145066
0.151791
0.161327
0.174166
0.190621
0.21062
0.232448
0.251342
0.265079
0.274859
0.281674
0.28631
0.289383
0.291324
0.292308
0.292492
0.105846
0.106013
0.108135
0.112437
0.119187
0.129014
0.142422
0.159758
0.181101
0.206153
0.232781
0.255502
0.272001
0.28385
0.292238
0.29806
0.301996
0.304522
0.305799
0.306034
0.0631534
0.0636622
0.0676229
0.0751329
0.0861806
0.101211
0.12041
0.143808
0.171229
0.20218
0.234157
0.261051
0.280584
0.294782
0.305058
0.312415
0.317568
0.321014
0.322772
0.323075
0.000222333
0.00236112
0.0116674
0.0261898
0.0452509
0.0685615
0.0958336
0.126923
0.161521
0.199047
0.23673
0.267985
0.290706
0.307447
0.319883
0.329151
0.335983
0.340788
0.343421
0.343793
-0.0758617
-0.0715647
-0.0537964
-0.0281242
0.00147176
0.0342504
0.0702869
0.109584
0.151878
0.196689
0.241072
0.277861
0.304963
0.325431
0.341205
0.353517
0.363344
0.370534
0.373947
0.375321
-0.152668
-0.14234
-0.115844
-0.0801838
-0.0409676
0.000984698
0.045665
0.0930298
0.142956
0.195045
0.246159
0.288463
0.319812
0.343801
0.362637
0.377745
0.389952
0.399408
0.405169
0.407408
-0.210817
-0.199402
-0.167979
-0.12571
-0.0792377
-0.0297171
0.0225335
0.0773223
0.134385
0.193266
0.250538
0.297625
0.332327
0.358742
0.379351
0.395687
0.408746
0.418791
0.425045
0.427404
-0.257588
-0.245604
-0.210914
-0.164041
-0.112192
-0.0568197
0.00154589
0.0626457
0.125985
0.190979
0.253688
0.304732
0.341941
0.369894
0.391381
0.408185
0.421451
0.431646
0.43796
0.440305
-0.296029
-0.284068
-0.247361
-0.196981
-0.140911
-0.0809319
-0.0174782
0.0489915
0.117849
0.188284
0.255911
0.310516
0.349853
0.379012
0.401125
0.418181
0.431453
0.441559
0.447805
0.450065
-0.329249
-0.317389
-0.279251
-0.226101
-0.166582
-0.102677
-0.0348783
0.0362499
0.110046
0.185513
0.257716
0.315562
0.356795
0.386985
0.409577
0.426782
0.440036
0.450065
0.456278
0.458459
-0.358923
-0.347185
-0.307974
-0.252583
-0.190225
-0.122986
-0.0513818
0.0239708
0.102265
0.182351
0.258859
0.319876
0.363011
0.394256
0.41737
0.434784
0.448072
0.458052
0.464259
0.466353
-0.386137
-0.374484
-0.334453
-0.277161
-0.212382
-0.142273
-0.0673573
0.0117121
0.0941036
0.178617
0.259426
0.323714
0.36887
0.401278
0.425007
0.442693
0.45606
0.466014
0.472231
0.474239
-0.411721
-0.400102
-0.359291
-0.300368
-0.23352
-0.160943
-0.083124
-0.00067536
0.0855534
0.174319
0.259425
0.32713
0.374509
0.408266
0.432746
0.450807
0.464323
0.474288
0.480482
0.482392
-0.436091
-0.424484
-0.382976
-0.322636
-0.253983
-0.17921
-0.0987918
-0.0132968
0.0764708
0.169288
0.258739
0.330098
0.379978
0.415338
0.44076
0.459323
0.473064
0.483101
0.489239
0.491083
-0.459566
-0.447906
-0.405759
-0.344176
-0.27395
-0.197263
-0.114546
-0.0263209
0.0667177
0.163438
0.25725
0.332536
0.385256
0.422527
0.449134
0.468365
0.482431
0.492568
0.498678
0.500471
-0.482362
-0.470553
-0.427823
-0.365152
-0.293564
-0.215218
-0.130475
-0.0397799
0.0562601
0.156694
0.254856
0.334306
0.390237
0.429781
0.457873
0.477988
0.492528
0.502857
0.508931
0.51068
-0.504506
-0.492526
-0.449257
-0.385622
-0.312851
-0.233058
-0.146545
-0.0536759
0.0450848
0.148986
0.251451
0.335242
0.394741
0.436963
0.466905
0.488183
0.503392
0.514018
0.520089
0.521758
-0.526092
-0.513899
-0.470103
-0.405608
-0.331818
-0.250788
-0.162753
-0.0679829
0.0331978
0.140304
0.246907
0.335134
0.398531
0.443898
0.476125
0.498891
0.514968
0.526008
0.532121
0.533666
-0.547042
-0.534666
-0.490375
-0.425111
-0.350448
-0.268365
-0.179034
-0.082641
0.0206555
0.130643
0.241144
0.333792
0.401357
0.450362
0.485383
0.510037
0.527215
0.538769
0.54493
0.546296
-0.567399
-0.554783
-0.510007
-0.444081
-0.368685
-0.285722
-0.195318
-0.0975588
0.00754057
0.120054
0.234146
0.331077
0.402917
0.455948
0.494359
0.52146
0.54008
0.552236
0.558385
0.55951
-0.586962
-0.574218
-0.528973
-0.462467
-0.386461
-0.302776
-0.211521
-0.112652
-0.00605148
0.108616
0.225891
0.326846
0.402859
0.460105
0.502559
0.532946
0.553535
0.566269
0.572142
0.572921
-0.605865
-0.592932
-0.547227
-0.480234
-0.403738
-0.319473
-0.227541
-0.127819
-0.0200178
0.0964297
0.216428
0.320988
0.400981
0.462424
0.509409
0.544154
0.567823
0.581247
0.586068
0.586108
-0.623952
-0.610858
-0.564748
-0.497335
-0.420428
-0.335728
-0.24329
-0.142937
-0.0342347
0.0836016
0.205853
0.313513
0.397102
0.462484
0.514104
0.55427
0.583026
0.598483
0.600877
0.598426
-0.641299
-0.628042
-0.581497
-0.513731
-0.436491
-0.351474
-0.258686
-0.157915
-0.0485747
0.0702984
0.194271
0.304451
0.391165
0.459839
0.515563
0.561642
0.597877
0.619653
0.622095
0.609742
-0.657803
-0.64446
-0.59758
-0.529559
-0.452126
-0.366987
-0.27406
-0.173168
-0.0635237
0.0559773
0.181081
0.293138
0.382471
0.453743
0.512156
0.563553
0.608444
0.639873
0.646762
0.643165
-0.673468
-0.66019
-0.612975
-0.544744
-0.46731
-0.382245
-0.289368
-0.18869
-0.0790834
0.0405682
0.166164
0.279307
0.370533
0.443769
0.501668
0.55417