/*--------------------------------*- C++ -*----------------------------------*\
  =========                 |
  \\      /  F ield         | OpenFOAM: The Open Source CFD Toolbox
   \\    /   O peration     | Website:  https://openfoam.org
    \\  /    A nd           | Version:  6
     \\/     M anipulation  |
\*---------------------------------------------------------------------------*/
FoamFile
{
    version     2.0;
    format      ascii;
    class       volVectorField;
    location    "11.3";
    object      U;
}
// * * * * * * * * * * * * * * * * * * * * * * * * * * * * * * * * * * * * * //

dimensions      [0 1 -1 0 0 0 0];

internalField   nonuniform List<vector> 
8800
(
(0.987203 -0.0766322 0)
(1.0019 -0.0551271 0)
(0.999706 -0.028397 0)
(0.999931 -0.0148469 0)
(0.999893 -0.00825716 0)
(0.999947 -0.00493508 0)
(0.999977 -0.00297613 0)
(1.00001 -0.00170621 0)
(1.00003 -0.000819903 0)
(1.00004 -0.000131516 0)
(1.00004 0.000540396 0)
(1.00003 0.00131052 0)
(0.999997 0.00235349 0)
(0.999984 0.003907 0)
(0.999914 0.00640783 0)
(0.999909 0.0110218 0)
(0.999903 0.0205506 0)
(0.99916 0.0385568 0)
(1.00706 0.0724325 0)
(0.771237 0.0366536 0)
(0.363396 -0.0159578 0)
(1.04353 -0.0765723 0)
(1.08436 -0.0700477 0)
(1.04496 -0.053438 0)
(1.02314 -0.0390496 0)
(1.01179 -0.0262383 0)
(1.00595 -0.0164767 0)
(1.00336 -0.00986099 0)
(1.00212 -0.00531579 0)
(1.00153 -0.00192741 0)
(1.00138 0.000882634 0)
(1.00175 0.00393389 0)
(1.00259 0.00773894 0)
(1.00436 0.0131182 0)
(1.0083 0.0211788 0)
(1.01652 0.0325007 0)
(1.03244 0.0463926 0)
(1.06239 0.0611422 0)
(1.09179 0.0755944 0)
(0.839114 0.0563324 0)
(0.218035 -0.00233609 0)
(1.07693 -0.0495498 0)
(1.10039 -0.0472116 0)
(1.06454 -0.0387433 0)
(1.03956 -0.031924 0)
(1.02359 -0.024668 0)
(1.01367 -0.0174826 0)
(1.00788 -0.0112465 0)
(1.00495 -0.00588289 0)
(1.00399 -0.000810379 0)
(1.0042 0.00412896 0)
(1.00602 0.00920949 0)
(1.0102 0.0148445 0)
(1.01783 0.0215174 0)
(1.03038 0.0286964 0)
(1.05051 0.0356562 0)
(1.0808 0.0426859 0)
(1.10734 0.0502294 0)
(0.944659 0.0411028 0)
(0.217746 0.00234812 0)
(0.177769 -0.000647437 0)
(1.02048 -0.0334046 0)
(1.1059 -0.0388574 0)
(1.07844 -0.0338994 0)
(1.05299 -0.0279975 0)
(1.03503 -0.0227504 0)
(1.02258 -0.0176902 0)
(1.01473 -0.0122141 0)
(1.01031 -0.00657726 0)
(1.00853 -0.000828171 0)
(1.009 0.00486415 0)
(1.0119 0.0103751 0)
(1.01784 0.0158898 0)
(1.02778 0.0209639 0)
(1.04291 0.0258629 0)
(1.06401 0.0313943 0)
(1.09448 0.0372135 0)
(1.09538 0.039015 0)
(0.833346 0.0213541 0)
(0.177303 0.000660275 0)
(0.158698 -0.000419067 0)
(0.964667 -0.0228264 0)
(1.10446 -0.0309238 0)
(1.0867 -0.0284232 0)
(1.06094 -0.0246722 0)
(1.04341 -0.0204674 0)
(1.03139 -0.0158738 0)
(1.02282 -0.0111658 0)
(1.01708 -0.00615353 0)
(1.01423 -0.000596955 0)
(1.01511 0.00508351 0)
(1.01927 0.0101714 0)
(1.02623 0.014779 0)
(1.03628 0.0191904 0)
(1.0506 0.023405 0)
(1.07187 0.0272365 0)
(1.10069 0.0306842 0)
(1.07356 0.029809 0)
(0.753949 0.0123649 0)
(0.158002 0.00043477 0)
(0.147471 -0.000212481 0)
(0.917137 -0.0130886 0)
(1.09858 -0.0217691 0)
(1.09301 -0.021341 0)
(1.06521 -0.0189098 0)
(1.0463 -0.0165828 0)
(1.03329 -0.0136648 0)
(1.02473 -0.00988104 0)
(1.01946 -0.00542135 0)
(1.01717 -0.000263083 0)
(1.01761 0.00501709 0)
(1.02113 0.00963253 0)
(1.02782 0.0135044 0)
(1.03826 0.016603 0)
(1.05379 0.018799 0)
(1.07684 0.0209944 0)
(1.10297 0.0227499 0)
(1.04775 0.0197076 0)
(0.700877 0.00611057 0)
(0.146511 0.000231628 0)
(0.143255 -1.53071e-05 0)
(0.886088 -0.00560514 0)
(1.08754 -0.0126095 0)
(1.09519 -0.0140934 0)
(1.06941 -0.0137285 0)
(1.05079 -0.012452 0)
(1.03846 -0.010733 0)
(1.02996 -0.00812724 0)
(1.0244 -0.0044888 0)
(1.02179 0.000127536 0)
(1.02228 0.00484919 0)
(1.02596 0.00874364 0)
(1.03261 0.0115167 0)
(1.04256 0.0132533 0)
(1.05762 0.0146279 0)
(1.08011 0.0149941 0)
(1.10036 0.0146741 0)
(1.02359 0.010365 0)
(0.673945 0.00225489 0)
(0.141958 3.72477e-05 0)
(0.142314 2.64043e-05 0)
(0.867611 -0.00284237 0)
(1.07539 -0.00867022 0)
(1.09244 -0.0117564 0)
(1.06898 -0.012645 0)
(1.05191 -0.0124248 0)
(1.04043 -0.0107328 0)
(1.03279 -0.00795318 0)
(1.02784 -0.00414676 0)
(1.02537 0.000532708 0)
(1.02569 0.00524019 0)
(1.02881 0.00922202 0)
(1.0346 0.0121146 0)
(1.04373 0.0140016 0)
(1.05751 0.0144155 0)
(1.07837 0.0137525 0)
(1.09363 0.0116985 0)
(1.00443 0.00651208 0)
(0.660513 0.00108051 0)
(0.140607 -3.71403e-08 0)
(0.142194 2.18794e-05 0)
(0.854496 -0.00169291 0)
(1.06107 -0.00712197 0)
(1.08662 -0.0119784 0)
(1.06821 -0.0137911 0)
(1.05347 -0.0135911 0)
(1.04325 -0.0117727 0)
(1.03625 -0.00868381 0)
(1.0315 -0.00436099 0)
(1.02884 0.000935943 0)
(1.02909 0.00628078 0)
(1.03203 0.0107122 0)
(1.03725 0.0138951 0)
(1.04529 0.0157603 0)
(1.05705 0.0161425 0)
(1.07522 0.0151572 0)
(1.0829 0.0112959 0)
(0.986798 0.00491116 0)
(0.652075 0.000712749 0)
(0.139988 1.09896e-05 0)
(0.142183 1.61118e-05 0)
(0.84509 -0.000902215 0)
(1.04546 -0.00517368 0)
(1.07712 -0.0107323 0)
(1.06677 -0.0139054 0)
(1.05493 -0.0139267 0)
(1.04682 -0.0121409 0)
(1.04083 -0.00873149 0)
(1.03646 -0.00413652 0)
(1.03388 0.0015275 0)
(1.03385 0.00732079 0)
(1.03623 0.0119209 0)
(1.04056 0.0151543 0)
(1.04694 0.0168964 0)
(1.05633 0.016984 0)
(1.06886 0.0148758 0)
(1.06814 0.00967225 0)
(0.970934 0.00355398 0)
(0.646159 0.000549292 0)
(0.139352 2.37496e-05 0)
(0.142391 2.68319e-05 0)
(0.839851 -0.000147038 0)
(1.03324 -0.00256892 0)
(1.06718 -0.00668519 0)
(1.06297 -0.00967101 0)
(1.05586 -0.010473 0)
(1.04976 -0.00932534 0)
(1.04462 -0.00660188 0)
(1.04055 -0.00258324 0)
(1.03797 0.00251669 0)
(1.03762 0.0076134 0)
(1.03946 0.0114726 0)
(1.04294 0.0139348 0)
(1.04774 0.0149088 0)
(1.0541 0.0142911 0)
(1.06038 0.0112166 0)
(1.05426 0.00657428 0)
(0.959506 0.00221915 0)
(0.642333 0.000385323 0)
(0.138788 2.29201e-05 0)
(0.142893 4.12393e-05 0)
(0.837998 0.0003264 0)
(1.02648 -0.000663023 0)
(1.0605 -0.00286095 0)
(1.05975 -0.00476998 0)
(1.05589 -0.00555053 0)
(1.05181 -0.00500915 0)
(1.04783 -0.00317086 0)
(1.0443 -0.000154081 0)
(1.04174 0.00378926 0)
(1.04098 0.00759215 0)
(1.04202 0.0102654 0)
(1.04432 0.0114523 0)
(1.04733 0.0113387 0)
(1.05064 0.00995334 0)
(1.05335 0.00740988 0)
(1.04464 0.00416778 0)
(0.952557 0.00149725 0)
(0.639811 0.000348348 0)
(0.138294 2.70849e-05 0)
(0.143591 4.74918e-05 0)
(0.838181 0.000598728 0)
(1.02373 0.00050242 0)
(1.05712 -0.000326152 0)
(1.05787 -0.00115502 0)
(1.05572 -0.0014703 0)
(1.05302 -0.00103672 0)
(1.04998 0.000271857 0)
(1.04692 0.00244334 0)
(1.04431 0.0052524 0)
(1.04303 0.00776928 0)
(1.04327 0.0091569 0)
(1.04436 0.00940894 0)
(1.04587 0.00868064 0)
(1.04739 0.007164 0)
(1.04822 0.00514586 0)
(1.03859 0.00297702 0)
(0.948221 0.00127977 0)
(0.637702 0.000393904 0)
(0.13773 3.56027e-05 0)
(0.14446 5.74382e-05 0)
(0.839596 0.000854249 0)
(1.02341 0.00125388 0)
(1.05614 0.00126312 0)
(1.05741 0.00125015 0)
(1.05606 0.00148469 0)
(1.0541 0.00212744 0)
(1.05164 0.00329073 0)
(1.04886 0.00497156 0)
(1.0461 0.00695646 0)
(1.04425 0.00850664 0)
(1.04352 0.00909952 0)
(1.04366 0.00855999 0)
(1.04408 0.00741836 0)
(1.04453 0.00591017 0)
(1.04447 0.00424436 0)
(1.03453 0.00263954 0)
(0.944963 0.00135044 0)
(0.635489 0.000487984 0)
(0.137012 4.72388e-05 0)
(0.145538 7.18433e-05 0)
(0.841923 0.00111512 0)
(1.02452 0.00188588 0)
(1.05669 0.00244539 0)
(1.05809 0.00301818 0)
(1.05702 0.00375747 0)
(1.05536 0.00474333 0)
(1.05312 0.00601773 0)
(1.05035 0.00752168 0)
(1.04727 0.00900346 0)
(1.04473 0.00982494 0)
(1.04321 0.00960122 0)
(1.04241 0.00870185 0)
(1.04206 0.00731091 0)
(1.04188 0.00574937 0)
(1.04136 0.00420309 0)
(1.03125 0.00278765 0)
(0.941902 0.00158183 0)
(0.632885 0.000614603 0)
(0.136085 6.1186e-05 0)
(0.1469 9.04701e-05 0)
(0.845123 0.00143487 0)
(1.02668 0.0025478 0)
(1.05833 0.00354428 0)
(1.05969 0.00459786 0)
(1.05864 0.00580962 0)
(1.05699 0.00720597 0)
(1.05467 0.00875139 0)
(1.05164 0.0103004 0)
(1.04803 0.0115219 0)
(1.04467 0.0118285 0)
(1.0423 0.0110907 0)
(1.04076 0.00971955 0)
(1.03979 0.00804608 0)
(1.03916 0.00632212 0)
(1.03835 0.00469879 0)
(1.02807 0.0032386 0)
(0.938562 0.00193245 0)
(0.629688 0.00077478 0)
(0.134902 7.79868e-05 0)
(0.148631 0.000115687 0)
(0.849324 0.00184402 0)
(1.0298 0.00334022 0)
(1.06091 0.00475746 0)
(1.06214 0.0062664 0)
(1.06095 0.00796013 0)
(1.05908 0.00983451 0)
(1.05643 0.0117758 0)
(1.05289 0.0135318 0)
(1.04849 0.0146627 0)
(1.04416 0.0145794 0)
(1.04089 0.0133537 0)
(1.03863 0.0115194 0)
(1.03711 0.00947132 0)
(1.03611 0.00745609 0)
(1.03507 0.00559986 0)
(1.02457 0.00393453 0)
(0.934618 0.00240107 0)
(0.625701 0.00097585 0)
(0.133406 9.86541e-05 0)
(0.150854 0.000150419 0)
(0.854776 0.00238293 0)
(1.034 0.00433968 0)
(1.06451 0.00619966 0)
(1.06552 0.00818467 0)
(1.06405 0.0104238 0)
(1.06177 0.012881 0)
(1.05854 0.0153494 0)
(1.05421 0.0174508 0)
(1.04875 0.0186106 0)
(1.04324 0.0181957 0)
(1.03895 0.0164596 0)
(1.03592 0.0140846 0)
(1.03386 0.0115487 0)
(1.0325 0.0091131 0)
(1.03122 0.00688921 0)
(1.02043 0.00488452 0)
(0.929779 0.00300757 0)
(0.620693 0.00122968 0)
(0.131523 0.000124733 0)
(0.153739 0.000197436 0)
(0.861863 0.00309042 0)
(1.03959 0.00560562 0)
(1.06939 0.00795247 0)
(1.07009 0.0104907 0)
(1.06821 0.0134458 0)
(1.06529 0.0166681 0)
(1.06115 0.0197654 0)
(1.05572 0.0223295 0)
(1.04886 0.0235956 0)
(1.04188 0.022845 0)
(1.0364 0.0205169 0)
(1.0325 0.0174831 0)
(1.02984 0.0143247 0)
(1.02809 0.0113374 0)
(1.02655 0.00861957 0)
(1.01536 0.00614445 0)
(0.923722 0.00379202 0)
(0.614365 0.00155372 0)
(0.12916 0.000158446 0)
(0.15752 0.000260215 0)
(0.871116 0.00401426 0)
(1.04701 0.00722291 0)
(1.07597 0.0101421 0)
(1.07617 0.0133736 0)
(1.07366 0.0172752 0)
(1.06983 0.0214568 0)
(1.06454 0.0253837 0)
(1.0576 0.0285159 0)
(1.04889 0.0299148 0)
(1.04007 0.0287588 0)
(1.03315 0.0257004 0)
(1.02822 0.021847 0)
(1.02484 0.017903 0)
(1.02262 0.0142212 0)
(1.02076 0.0108867 0)
(1.00907 0.00780985 0)
(0.916086 0.00481886 0)
(0.606349 0.00197018 0)
(0.126199 0.000202102 0)
(0.162545 0.000346906 0)
(0.883225 0.00525681 0)
(1.05668 0.00939544 0)
(1.08458 0.013077 0)
(1.08411 0.0172503 0)
(1.08066 0.0223074 0)
(1.0757 0.0276459 0)
(1.06891 0.0326257 0)
(1.05997 0.036419 0)
(1.04888 0.0379156 0)
(1.03777 0.0362118 0)
(1.02908 0.0322267 0)
(1.0229 0.0273432 0)
(1.01864 0.0224088 0)
(1.01581 0.0178577 0)
(1.01354 0.0137753 0)
(1.00123 0.00997402 0)
(0.906525 0.00616711 0)
(0.596258 0.00249588 0)
(0.12251 0.000255158 0)
(0.169354 0.000478729 0)
(0.899074 0.00708899 0)
(1.06904 0.012492 0)
(1.09559 0.0171687 0)
(1.09428 0.0226613 0)
(1.08969 0.0291697 0)
(1.08318 0.0359106 0)
(1.07431 0.0420049 0)
(1.06279 0.0464608 0)
(1.04872 0.0479534 0)
(1.03481 0.0454863 0)
(1.02398 0.0403206 0)
(1.01628 0.0341519 0)
(1.01096 0.0279746 0)
(1.00738 0.0223204 0)
(1.00456 0.0173093 0)
(0.991499 0.0126472 0)
(0.894721 0.00785735 0)
(0.583776 0.0031548 0)
(0.117943 0.000316935 0)
(0.178763 0.000691305 0)
(0.919981 0.00995486 0)
(1.08511 0.0169799 0)
(1.10983 0.0229744 0)
(1.10717 0.0301509 0)
(1.10092 0.0384669 0)
(1.09215 0.0467683 0)
(1.08048 0.054074 0)
(1.06571 0.0591584 0)
(1.04805 0.0604354 0)
(1.03084 0.0569058 0)
(1.01753 0.0502638 0)
(1.00804 0.042534 0)
(1.00144 0.0348377 0)
(0.99694 0.0277952 0)
(0.993449 0.0216001 0)
(0.979482 0.0158718 0)
(0.880232 0.00991448 0)
(0.568409 0.00396783 0)
(0.112313 0.0003961 0)
(0.192031 0.00104647 0)
(0.947884 0.0144705 0)
(1.10629 0.0236687 0)
(1.12844 0.0316114 0)
(1.12361 0.041022 0)
(1.11471 0.0514582 0)
(1.10269 0.0614667 0)
(1.08727 0.0698869 0)
(1.06841 0.0752684 0)
(1.04648 0.0758824 0)
(1.0255 0.070864 0)
(1.00936 0.0624224 0)
(0.997801 0.0528713 0)
(0.989671 0.0434118 0)
(0.984056 0.03472 0)
(0.97973 0.027074 0)
(0.964602 0.0200316 0)
(0.862242 0.0126427 0)
(0.549428 0.00505304 0)
(0.105436 0.000492598 0)
(0.211427 0.00170293 0)
(0.985904 0.0217452 0)
(1.1345 0.0339284 0)
(1.15279 0.0445962 0)
(1.14447 0.0568713 0)
(1.1316 0.0697194 0)
(1.11503 0.0813654 0)
(1.09465 0.0904576 0)
(1.07071 0.0954982 0)
(1.0438 0.0947718 0)
(1.01858 0.0877031 0)
(0.999294 0.0771036 0)
(0.985354 0.065504 0)
(0.975367 0.0541036 0)
(0.968289 0.0435851 0)
(0.962776 0.0342535 0)
(0.946055 0.0256553 0)
(0.839718 0.0163806 0)
(0.526026 0.00654572 0)
(0.0970021 0.000629866 0)
(0.240494 0.00319586 0)
(1.04004 0.0352467 0)
(1.17188 0.0517636 0)
(1.18377 0.0659996 0)
(1.1697 0.0812324 0)
(1.15093 0.0958733 0)
(1.12825 0.108115 0)
(1.10181 0.116756 0)
(1.07205 0.120414 0)
(1.03965 0.117434 0)
(1.0099 0.107669 0)
(0.987216 0.0945603 0)
(0.97063 0.0807524 0)
(0.958447 0.0673411 0)
(0.949478 0.0549533 0)
(0.942198 0.0438305 0)
(0.923108 0.0335983 0)
(0.811288 0.0218247 0)
(0.497156 0.0086407 0)
(0.0872097 0.00077678 0)
(0.281459 0.010357 -1.25061e-21)
(1.1113 0.06304 -7.92054e-22)
(1.2179 0.0835586 1.37254e-22)
(1.21879 0.101552 0)
(1.19657 0.117901 -8.37851e-36)
(1.17027 0.132284 1.50691e-22)
(1.1405 0.143373 -4.42133e-22)
(1.10738 0.150142 0)
(1.07133 0.151331 1.29025e-35)
(1.033 0.145396 -9.09042e-22)
(0.998246 0.132618 0)
(0.97166 0.116969 -1.24036e-21)
(0.95185 0.101076 -3.7634e-21)
(0.936793 0.0859024 -1.81244e-21)
(0.925109 0.0720647 -5.65939e-22)
(0.914977 0.0596795 -3.42086e-22)
(0.892565 0.0484051 0)
(0.774362 0.0337258 2.46947e-22)
(0.46077 0.0165698 2.94196e-22)
(0.0775457 0.00270607 5.2906e-21)
(0.305724 0.0276533 -3.58891e-21)
(1.16854 0.109263 1.045e-22)
(1.25992 0.132892 -1.48543e-22)
(1.25082 0.150706 0)
(1.22076 0.165289 -6.95874e-23)
(1.18707 0.177849 -2.98843e-22)
(1.15029 0.187069 -3.62285e-22)
(1.11047 0.191712 -1.86068e-21)
(1.06781 0.190486 0)
(1.0228 0.18187 3.84823e-21)
(0.98186 0.16659 4.13239e-21)
(0.950058 0.149067 1.30289e-21)
(0.925692 0.131861 5.05607e-21)
(0.906454 0.115773 7.38558e-21)
(0.890746 0.101232 0)
(0.876516 0.0887069 1.09275e-20)
(0.848953 0.0772884 1.60395e-20)
(0.733333 0.0592314 1.80362e-20)
(0.437057 0.0361734 -2.09964e-20)
(0.0753829 0.00660703 -3.8961e-22)
(0.299283 0.0452017 0)
(1.20146 0.168751 -1.18636e-21)
(1.2917 0.195056 0)
(1.27585 0.20981 1.49177e-21)
(1.23958 0.22068 0)
(1.19958 0.229693 6.58504e-23)
(1.15659 0.235569 5.95984e-22)
(1.11065 0.237112 -3.14767e-21)
(1.06195 0.232835 -3.08662e-22)
(1.01088 0.221218 1.89566e-21)
(0.964425 0.203469 9.4816e-21)
(0.92807 0.184443 -5.24676e-23)
(0.899898 0.166614 -3.76851e-21)
(0.877327 0.15061 -7.226e-21)
(0.858664 0.136792 8.75276e-21)
(0.84189 0.125189 -1.57189e-20)
(0.814436 0.114857 -2.15325e-21)
(0.712414 0.0950963 0)
(0.441317 0.0612305 6.00718e-23)
(0.0830745 0.0120893 0)
(0.287596 0.0596564 -3.1993e-20)
(1.21596 0.231413 1.27872e-20)
(1.31164 0.261658 6.46466e-21)
(1.29216 0.273432 -1.08839e-21)
(1.25155 0.2803 1.61957e-21)
(1.20684 0.28525 -4.97786e-22)
(1.15893 0.287215 1.0744e-21)
(1.10789 0.285036 0)
(1.05406 0.277277 -8.01923e-21)
(0.997747 0.262356 0)
(0.946635 0.242024 -4.85526e-21)
(0.906826 0.221505 -6.63415e-21)
(0.876126 0.203179 -4.18679e-21)
(0.851725 0.187355 -5.34222e-21)
(0.831847 0.174063 0)
(0.814538 0.163267 0)
(0.789055 0.153381 -1.43339e-20)
(0.697687 0.132348 2.8733e-21)
(0.442823 0.0863339 -1.69291e-21)
(0.0867545 0.017424 -2.00521e-21)
(0.276708 0.0724996 2.42231e-20)
(1.21846 0.293443 0)
(1.3221 0.32898 -1.85868e-20)
(1.3006 0.338167 -4.3582e-21)
(1.25705 0.34121 -2.84604e-21)
(1.20909 0.342032 0)
(1.15741 0.340096 4.1271e-22)
(1.10236 0.334069 3.08644e-21)
(1.04427 0.322653 3.69724e-21)
(0.983696 0.304245 9.32171e-21)
(0.928951 0.281109 0)
(0.886551 0.258886 -1.43632e-20)
(0.854192 0.239677 -9.07119e-21)
(0.828802 0.22353 -5.44392e-21)
(0.808389 0.210283 3.52797e-20)
(0.791046 0.199724 4.31401e-21)
(0.767479 0.189882 2.06623e-20)
(0.683169 0.166393 -1.00262e-19)
(0.438326 0.10859 6.0044e-20)
(0.0870683 0.0220156 -7.33873e-20)
(0.26763 0.0839828 2.59711e-20)
(1.21369 0.352964 -4.64612e-21)
(1.32554 0.394982 3.36646e-21)
(1.30291 0.40203 8.7594e-21)
(1.25731 0.401422 4.95963e-21)
(1.20683 0.3985 3.2561e-22)
(1.15231 0.392806 -5.36228e-22)
(1.09409 0.383082 2.72926e-21)
(1.03255 0.367973 -8.01182e-21)
(0.968286 0.346023 0)
(0.910389 0.319887 -6.23502e-21)
(0.865947 0.29555 -2.95194e-22)
(0.832456 0.274969 -1.00857e-20)
(0.806553 0.257993 0)
(0.786099 0.244247 -7.67064e-21)
(0.769157 0.23333 -1.86055e-20)
(0.747062 0.222811 5.14035e-20)
(0.667145 0.196416 -5.15117e-20)
(0.429847 0.127792 7.3707e-20)
(0.0856578 0.0258962 -7.76866e-20)
(0.260484 0.0946251 -1.19842e-22)
(1.2046 0.4093 5.79891e-21)
(1.32374 0.458544 1.64377e-20)
(1.30051 0.463917 -5.53081e-21)
(1.25348 0.460022 2.9023e-21)
(1.20112 0.453683 0)
(1.14438 0.444514 6.16511e-22)
(1.08348 0.431296 -2.52815e-21)
(1.01898 0.41268 -3.82929e-21)
(0.951624 0.387143 0)
(0.891147 0.357796 -6.14733e-21)
(0.845096 0.331001 -8.39679e-21)
(0.810797 0.308629 1.09905e-20)
(0.784685 0.290362 -6.96704e-21)
(0.764397 0.275653 -3.36418e-20)
(0.747916 0.263951 2.0616e-20)
(0.726859 0.252427 6.50598e-21)
(0.649764 0.222936 0)
(0.419018 0.144444 -7.13395e-20)
(0.0833029 0.0291414 -2.65149e-21)
(0.254985 0.104757 4.32885e-21)
(1.19303 0.462301 -6.73341e-21)
(1.31815 0.519123 -9.01266e-21)
(1.29463 0.523195 -1.69008e-20)
(1.24657 0.516428 1.46213e-20)
(1.19281 0.507083 -6.79761e-21)
(1.13427 0.494764 -1.30368e-21)
(1.07122 0.478319 -3.858e-21)
(1.00427 0.456383 3.21912e-21)
(0.934215 0.427325 -2.26312e-20)
(0.871301 0.394621 -7.41174e-21)
(0.823742 0.365079 0)
(0.788761 0.340555 1.1987e-20)
(0.762523 0.320604 1.47312e-20)
(0.742476 0.304588 1.80557e-20)
(0.726464 0.291777 -2.2454e-20)
(0.70621 0.278995 -6.76415e-21)
(0.631246 0.246389 8.06891e-21)
(0.406556 0.158785 0)
(0.0803163 0.0317726 -5.77808e-21)
(0.250788 0.114468 -5.06681e-20)
(1.18029 0.512134 3.11624e-20)
(1.30972 0.576403 9.9509e-21)
(1.28612 0.57952 -1.3094e-20)
(1.23734 0.57028 8.99452e-21)
(1.18254 0.558278 -7.70407e-22)
(1.12264 0.543163 1.1082e-21)
(1.05781 0.523819 -1.47635e-21)
(0.988617 0.498814 -6.7263e-21)
(0.916034 0.466401 2.79495e-23)
(0.850787 0.430267 -2.22896e-20)
(0.801757 0.397754 2.11101e-20)
(0.76611 0.370742 -1.33744e-20)
(0.739778 0.348779 1.65327e-20)
(0.719995 0.331142 0)
(0.704455 0.31698 -1.21897e-20)
(0.684887 0.302718 -2.68461e-22)
(0.611726 0.266889 -3.52261e-20)
(0.392703 0.170916 -5.24481e-21)
(0.0767785 0.0337249 0)
(0.247656 0.123929 0)
(1.16708 0.559061 3.37577e-20)
(1.29932 0.630464 2.35267e-20)
(1.27577 0.63282 1.49387e-20)
(1.2265 0.621413 8.47957e-21)
(1.17091 0.607069 0)
(1.10986 0.589476 2.10861e-21)
(1.0435 0.567555 -2.5506e-22)
(0.9723 0.53984 1.4231e-20)
(0.897303 0.504302 -2.84286e-21)
(0.829759 0.464793 -1.62822e-20)
(0.779142 0.429133 1.06501e-20)
(0.742739 0.399346 -3.94104e-22)
(0.716249 0.375036 1.74668e-20)
(0.696713 0.355482 1.12993e-20)
(0.681649 0.339735 -2.65302e-20)
(0.662673 0.323771 3.21306e-20)
(0.590993 0.284499 9.64938e-21)
(0.377402 0.180712 4.02145e-20)
(0.0726244 0.0349488 -1.08847e-19)
(0.245414 0.133224 -1.31293e-20)
(1.15392 0.603226 1.96701e-20)
(1.28757 0.68133 -1.4971e-20)
(1.26411 0.683072 -1.75964e-20)
(1.21449 0.669754 0)
(1.15832 0.653323 6.76359e-21)
(1.09638 0.633581 -5.74361e-21)
(1.02874 0.609437 2.24488e-21)
(0.955728 0.579346 0)
(0.87824 0.541032 -4.31e-20)
(0.80831 0.498299 4.4281e-20)
(0.755954 0.459375 0)
(0.718586 0.426568 1.58278e-20)
(0.691811 0.399585 -4.02433e-22)
(0.672489 0.377806 -3.59107e-20)
(0.657862 0.360162 1.41212e-20)
(0.639436 0.342317 0)
(0.568978 0.299274 5.22732e-20)
(0.360587 0.188176 0)
(0.0679124 0.0355231 -5.18891e-20)
(0.243846 0.142345 1.46698e-20)
(1.14108 0.644807 2.26494e-20)
(1.27493 0.729048 -1.56538e-20)
(1.25159 0.730294 0)
(1.20177 0.715298 1.22128e-20)
(1.1452 0.69705 0)
(1.08258 0.675438 8.59883e-21)
(1.01384 0.649414 2.67113e-22)
(0.939132 0.617301 1.83663e-21)
(0.859177 0.576581 -2.12694e-20)
(0.786635 0.530862 4.35128e-21)
(0.732278 0.488696 0)
(0.693642 0.452646 -3.3772e-20)
(0.666314 0.422654 4.18422e-22)
(0.647092 0.398331 0)
(0.632943 0.378458 4.88758e-22)
(0.615088 0.358372 4.73848e-20)
(0.545601 0.311247 -4.5849e-20)
(0.3422 0.193203 1.36305e-20)
(0.0626071 0.0353266 0)
(0.242571 0.151178 0)
(1.12869 0.683947 2.54231e-20)
(1.2618 0.773713 1.85667e-20)
(1.23858 0.774537 -4.26071e-22)
(1.18866 0.758067 7.8538e-21)
(1.13184 0.738253 1.62195e-20)
(1.06871 0.71505 -2.6524e-21)
(0.999053 0.687463 -6.87043e-22)
(0.922804 0.653696 9.4679e-21)
(0.840479 0.610939 -3.32432e-20)
(0.765002 0.562583 -6.37277e-22)
(0.708201 0.517282 -1.39849e-20)
(0.667835 0.47784 5.53693e-20)
(0.639609 0.444552 -5.07183e-22)
(0.620369 0.417104 -2.84193e-20)
(0.606906 0.394767 -5.17895e-20)
(0.589556 0.37203 0)
(0.520599 0.320435 0)
(0.322072 0.195687 1.50068e-20)
(0.0567145 0.0343096 -8.87749e-21)
(0.241725 0.159859 1.83541e-20)
(1.11691 0.720451 -5.56803e-20)
(1.24846 0.815455 -1.98887e-20)
(1.22535 0.815884 0)
(1.17542 0.798128 -3.0258e-22)
(1.11848 0.776975 2.0028e-20)
(1.05499 0.752442 -9.95183e-21)
(0.984564 0.723578 -1.06477e-21)
(0.90693 0.688559 1.07658e-20)
(0.822236 0.644241 -2.59181e-20)
(0.743555 0.593703 -3.75482e-20)
(0.683798 0.54536 3.73408e-20)
(0.641255 0.5024 0)
(0.611828 0.465492 -1.2845e-20)
(0.592403 0.434571 -3.12266e-20)
(0.579276 0.409326 -3.76363e-20)
(0.562133 0.383498 -4.57254e-20)
(0.493363 0.326773 1.37443e-20)
(0.299901 0.195261 -8.10425e-21)
(0.0502054 0.0324298 1.06697e-22)
(0.240866 0.168169 0)
(1.10571 0.754883 0)
(1.23513 0.854408 4.902e-22)
(1.2121 0.854462 0)
(1.16227 0.835593 -3.00201e-20)
(1.10532 0.813305 -1.80632e-20)
(1.0416 0.787662 0)
(0.970557 0.757783 -8.37027e-22)
(0.891624 0.721873 1.54635e-20)
(0.80459 0.676495 -5.94554e-20)
(0.722562 0.624176 0)
(0.659346 0.573092 -2.39615e-20)
(0.614363 0.526554 -6.19264e-22)
(0.583317 0.485818 -5.11299e-22)
(0.563042 0.451244 3.34908e-20)
(0.549744 0.422124 -6.79616e-23)
(0.532565 0.392528 -9.9631e-20)
(0.463769 0.329991 3.00807e-20)
(0.275517 0.191713 8.97779e-21)
(0.0430912 0.0296422 0)
(0.239996 0.176048 -6.79716e-20)
(1.09486 0.787243 -3.43358e-20)
(1.22192 0.890718 -5.03374e-20)
(1.199 0.890403 6.88946e-20)
(1.14935 0.870554 -5.67624e-20)
(1.0925 0.847314 0)
(1.02869 0.820773 -9.23063e-21)
(0.957162 0.790134 1.41773e-21)
(0.877086 0.753636 7.43884e-22)
(0.787815 0.707655 4.61041e-21)
(0.702332 0.654057 4.7314e-20)
(0.63532 0.600748 -8.23038e-21)
(0.587175 0.550965 -3.43305e-20)
(0.553704 0.50615 -1.53211e-20)
(0.531901 0.466998 1.86549e-20)
(0.518317 0.433888 -5.6444e-23)
(0.50093 0.399521 2.74514e-20)
(0.431416 0.329773 -6.54012e-20)
(0.248333 0.184473 7.84573e-20)
(0.0353493 0.0258786 1.15099e-20)
(0.238917 0.183497 2.50239e-20)
(1.08438 0.817622 -1.88039e-20)
(1.20893 0.924528 1.17029e-21)
(1.18614 0.923851 3.91791e-20)
(1.13675 0.903142 1.34129e-20)
(1.08011 0.879078 3.6526e-20)
(1.01634 0.851827 -4.31213e-21)
(0.944493 0.820681 7.5942e-21)
(0.863461 0.783893 -1.27029e-20)
(0.772001 0.737759 -3.30598e-20)
(0.682963 0.683595 0)
(0.611563 0.628677 -3.69041e-20)
(0.558949 0.576185 4.98554e-20)
(0.52203 0.5269 0)
(0.49847 0.482626 -4.00205e-20)
(0.484023 0.444012 2.48323e-20)
(0.466598 0.404407 -2.97611e-20)
(0.395927 0.326239 -3.60645e-20)
(0.218096 0.173391 -6.41405e-20)
(0.0270813 0.0211484 -5.07383e-20)
(0.23798 0.190583 -2.75751e-20)
(1.07411 0.84605 2.01344e-20)
(1.19624 0.955967 4.73774e-20)
(1.17362 0.954924 5.40666e-20)
(1.12455 0.933466 -2.80951e-20)
(1.06821 0.908697 2.55617e-20)
(1.00462 0.880871 -1.33897e-20)
(0.932621 0.849413 1.04822e-20)
(0.850796 0.812666 -6.28396e-21)
(0.757239 0.76682 3.22341e-20)
(0.664439 0.712736 1.01069e-19)
(0.588453 0.656755 0)
(0.530689 0.601581 0)
(0.488914 0.548218 -1.77381e-20)
(0.462553 0.498906 0)
(0.446661 0.453535 5.41992e-20)
(0.428872 0.405864 6.53144e-20)
(0.357203 0.317681 0)
(0.18584 0.158094 0)
(0.0188379 0.0157138 5.55613e-20)
(0.236745 0.197042 3.04957e-20)
(1.0641 0.872638 2.43264e-20)
(1.18391 0.985172 3.41162e-20)
(1.1615 0.983769 -4.85137e-20)
(1.1128 0.961642 -3.15165e-20)
(1.05685 0.936259 -3.425e-20)
(0.993544 0.907976 2.01066e-20)
(0.921542 0.876375 1.37357e-22)
(0.839116 0.839904 -9.58381e-22)
(0.743686 0.794768 -1.24542e-21)
(0.647243 0.741209 5.13583e-20)
(0.566525 0.684976 0)
(0.503065 0.628163 5.03619e-20)
(0.455149 0.571371 3.74264e-20)
(0.424237 0.516502 9.53863e-20)
(0.404815 0.462637 2.92433e-20)
(0.385879 0.403636 -3.63349e-20)
(0.314971 0.301729 -2.15447e-20)
(0.154223 0.137765 0)
(0.0120877 0.0101771 6.07677e-20)
(0.23569 0.203321 -6.72818e-20)
(1.0543 0.897592 0)
(1.17194 1.01226 3.82722e-20)
(1.1498 1.0105 -3.98868e-20)
(1.10154 0.987774 3.59391e-20)
(1.04604 0.961856 5.04906e-20)
(0.983143 0.933211 -4.75082e-20)
(0.911276 0.90161 9.78402e-23)
(0.828402 0.865613 0)
(0.731393 0.821571 -3.13893e-20)
(0.631489 0.769166 -1.0735e-19)
(0.545784 0.713194 5.08849e-21)
(0.476676 0.65547 6.8452e-20)
(0.421727 0.597037 0)
(0.383406 0.53789 6.41989e-20)
(0.357312 0.473961 0)
(0.333047 0.396626 0)
(0.266214 0.270373 -2.41559e-20)
(0.134879 0.102777 0)
(0.0247558 0.00915847 1.6472e-20)
(0.234271 0.208929 -7.3655e-20)
(1.04469 0.920884 0)
(1.16036 1.03747 6.22151e-20)
(1.13849 1.03535 0)
(1.09072 1.01211 -1.96287e-20)
(1.03572 0.985755 0)
(0.973328 0.956858 -3.64672e-21)
(0.901717 0.92544 -2.055e-21)
(0.818572 0.890145 5.5057e-22)
(0.720121 0.847565 -3.18158e-20)
(0.616981 0.796955 2.8901e-21)
(0.526405 0.742229 4.19004e-20)
(0.4511 0.684491 6.6335e-20)
(0.388592 0.625154 9.40655e-21)
(0.340017 0.563859 5.00247e-20)
(0.302347 0.491765 0)
(0.260539 0.390243 7.9291e-20)
(0.191969 0.214385 -4.77619e-20)
(0.0681262 0.0976792 5.58695e-20)
(-0.0300641 0.395184 -6.63915e-20)
(0.232825 0.214236 6.01666e-20)
(1.03514 0.942645 9.29241e-20)
(1.14904 1.06109 0)
(1.12742 1.05871 9.43312e-22)
(1.08017 1.03517 5.35073e-20)
(1.02567 1.00856 -9.89135e-20)
(0.963857 0.979629 -2.14057e-20)
(0.892577 0.948702 0)
(0.809262 0.914537 -5.97076e-22)
(0.70952 0.874001 -1.1717e-21)
(0.603065 0.826071 0)
(0.507357 0.773603 0)
(0.425314 0.716513 5.81362e-20)
(0.354604 0.658757 -2.918e-20)
(0.293045 0.600361 -4.95495e-20)
(0.238733 0.524283 0)
(0.149538 0.392266 4.04867e-20)
(0.044912 0.482028 -4.87921e-20)
(0.0508928 1.73363 -2.70229e-20)
(0.0850612 2.72845 -3.27658e-20)
(0.231099 0.218912 -4.42269e-20)
(1.0257 0.963061 -1.17543e-19)
(1.13798 1.08313 3.6025e-20)
(1.11663 1.08049 3.42445e-20)
(1.06996 1.05678 0)
(1.01594 1.03005 -7.11559e-20)
(0.95488 1.00124 -3.6318e-20)
(0.883984 0.970996 1.49322e-21)
(0.800671 0.938254 -2.26013e-23)
(0.699817 0.900271 2.58989e-20)
(0.590241 0.855762 4.88112e-20)
(0.489439 0.806735 4.34312e-20)
(0.400748 0.751467 5.70181e-20)
(0.322275 0.694966 -6.63311e-20)
(0.249136 0.645884 -7.28022e-20)
(0.173318 0.578214 0)
(0.0846201 0.842324 0)
(0.134608 2.43887 2.13013e-20)
(0.14389 3.15194 0)
(0.142603 3.36578 5.39415e-20)
(0.232234 0.223344 0)
(1.01653 0.98235 0)
(1.12692 1.10348 0)
(1.10592 1.10051 9.58292e-21)
(1.05984 1.07678 4.80696e-20)
(1.00632 1.05009 -5.46849e-20)
(0.946304 1.0216 -2.62031e-20)
(0.875859 0.992208 1.75053e-21)
(0.792715 0.961143 -6.93408e-21)
(0.691014 0.926118 -2.08006e-21)
(0.578705 0.885921 8.95706e-20)
(0.472962 0.841409 -5.07319e-21)
(0.377506 0.789425 6.4684e-21)
(0.293189 0.731246 9.4111e-21)
(0.215861 0.699219 5.37261e-22)
(0.144648 0.94805 3.18128e-22)
(0.183859 2.56167 -1.02012e-19)
(0.207861 3.26495 -3.91171e-20)
(0.189387 3.42248 1.93357e-20)
(0.17012 3.44919 -2.03986e-20)
(0.15288 0.167426 2.61523e-20)
(1.00128 1.00339 0)
(1.11585 1.12238 -7.08969e-20)
(1.09573 1.11915 -8.91914e-20)
(1.05021 1.09562 1.00308e-19)
(0.997377 1.06908 5.80869e-20)
(0.937932 1.04073 3.10397e-20)
(0.868208 1.01237 -3.19288e-20)
(0.78549 0.98327 8.97239e-21)
(0.683374 0.951533 0)
(0.568869 0.91614 3.97576e-20)
(0.459013 0.876731 -3.28703e-20)
(0.356757 0.831504 0)
(0.268116 0.773361 8.50782e-21)
(0.203325 0.884819 2.06061e-20)
(0.187825 2.19826 -2.45828e-20)
(0.275939 3.29993 2.81135e-20)
(0.254401 3.44544 1.38482e-20)
(0.213247 3.47194 1.62021e-20)
(0.185393 3.4832 2.11312e-20)
(0.264011 0.256517 -5.09181e-20)
(0.978629 1.00657 0)
(1.09565 1.14172 7.34209e-20)
(1.0816 1.14691 9.3264e-20)
(1.03521 1.12307 -1.04453e-19)
(0.983169 1.09701 -6.26436e-20)
(0.924519 1.07008 -4.84487e-20)
(0.855904 1.04346 -2.36173e-21)
(0.773697 1.01784 -1.52169e-20)
(0.670605 0.992163 9.14719e-21)
(0.552331 0.966227 1.68499e-21)
(0.434322 0.936864 2.58015e-20)
(0.322796 0.90757 5.36103e-21)
(0.248313 1.00492 -7.44796e-21)
(0.282571 2.12509 -1.72389e-20)
(0.353124 3.29852 1.298e-20)
(0.342748 3.48627 -1.1767e-20)
(0.299719 3.51275 -6.87873e-21)
(0.257133 3.54248 -9.78104e-23)
(0.196355 3.5334 -3.42792e-22)
(0.251873 0.253396 0)
(0.973312 1.02491 1.94903e-20)
(1.08612 1.16093 -1.45331e-20)
(1.07104 1.16566 -1.03887e-20)
(1.02544 1.14179 -6.85509e-20)
(0.974281 1.11585 6.11345e-20)
(0.916349 1.08922 3.27544e-20)
(0.848838 1.06373 -2.51869e-21)
(0.767665 1.04051 1.97309e-20)
(0.665121 1.0193 -2.92406e-21)
(0.546018 1.00035 -5.47908e-20)
(0.424486 0.978701 3.66063e-21)
(0.315144 0.970681 -4.71633e-21)
(0.297469 1.39125 -6.12497e-21)
(0.392835 2.96001 4.02809e-21)
(0.435969 3.47602 3.98459e-22)
(0.380179 3.55876 -4.15868e-21)
(0.337153 3.58266 -8.72634e-21)
(0.277825 3.60644 1.54281e-20)
(0.210877 3.59889 6.66517e-21)
(0.235822 0.24881 4.83523e-20)
(0.96653 1.04523 1.30367e-19)
(1.07579 1.18148 -4.12884e-20)
(1.06001 1.1855 -3.93326e-20)
(1.01527 1.16138 0)
(0.965045 1.13533 8.96797e-20)
(0.908193 1.10898 5.01525e-20)
(0.84216 1.08459 -2.6895e-21)
(0.762566 1.0641 2.02224e-21)
(0.661173 1.04765 4.6602e-21)
(0.541611 1.0355 -1.89901e-20)
(0.419113 1.02364 -2.57107e-20)
(0.328065 1.06896 -3.15672e-20)
(0.380492 1.9426 3.26165e-20)
(0.495868 3.33922 1.53902e-20)
(0.497466 3.55724 0)
(0.430276 3.61255 0)
(0.379201 3.6618 1.46367e-20)
(0.298794 3.72587 0)
(0.222091 3.69091 3.38192e-20)
(0.223826 0.247864 -7.02636e-20)
(0.957341 1.06579 -1.08099e-19)
(1.06392 1.20271 0)
(1.04775 1.20575 1.03055e-21)
(1.00396 1.18108 -6.66106e-20)
(0.954865 1.15477 1.33288e-19)
(0.899512 1.12864 3.38489e-20)
(0.835376 1.10539 -3.44441e-21)
(0.757832 1.08747 2.39882e-20)
(0.657829 1.07556 -9.98014e-22)
(0.538125 1.06989 0)
(0.416519 1.06976 0)
(0.363174 1.23078 -2.38571e-20)
(0.485816 2.56806 7.00777e-21)
(0.593491 3.49329 -2.40045e-21)
(0.550689 3.61154 0)
(0.500767 3.67573 3.85168e-20)
(0.426051 3.763 -5.93457e-20)