/*--------------------------------*- C++ -*----------------------------------*\
  =========                 |
  \\      /  F ield         | OpenFOAM: The Open Source CFD Toolbox
   \\    /   O peration     | Website:  https://openfoam.org
    \\  /    A nd           | Version:  6
     \\/     M anipulation  |
\*---------------------------------------------------------------------------*/
FoamFile
{
    version     2.0;
    format      ascii;
    class       surfaceScalarField;
    location    "30";
    object      phi;
}
// * * * * * * * * * * * * * * * * * * * * * * * * * * * * * * * * * * * * * //

dimensions      [0 3 -1 0 0 0 0];

internalField   nonuniform List<scalar> 
4262
(
0.106824
0.471164
0.0926544
0.707755
0.0650374
0.85992
0.0427216
1.02108
0.026636
1.2146
0.0163895
1.44847
0.00999213
1.73226
0.00576333
2.07527
0.00260323
2.4884
-0.00015114
2.98505
-0.00297306
2.98511
-0.00619362
2.48846
-0.0105069
2.07535
-0.0168416
1.7322
-0.026972
1.44835
-0.0429513
1.2145
-0.0651609
1.02097
-0.0926931
0.859835
-0.106881
0.707773
0.471108
0.11464
0.356525
0.139636
0.682759
0.124749
0.874807
0.101167
1.04466
0.0736879
1.24208
0.0492304
1.47292
0.0300205
1.75147
0.0158811
2.0894
0.00606206
2.49822
-0.000995723
2.9921
-0.0080785
2.9922
-0.0177291
2.49811
-0.0314486
2.08907
-0.0504249
1.75117
-0.0747676
1.47269
-0.102118
1.24185
-0.125566
1.04442
-0.140179
0.874448
-0.114929
0.682523
0.356179
0.0917035
0.264821
0.12628
0.648182
0.124785
0.876302
0.110627
1.05882
0.0954499
1.25726
0.0747911
1.49358
0.0525047
1.77376
0.0320989
2.10981
0.0144576
2.51586
-0.00143978
3.008
-0.0172819
3.00804
-0.0347233
2.51556
-0.0549403
2.10929
-0.0769228
1.77316
-0.0971434
1.49291
-0.111969
1.25667
-0.125857
1.05831
-0.127206
0.875797
-0.092123
0.64744
0.264056
0.0627757
0.202045
0.103885
0.607073
0.106588
0.873599
0.0967602
1.06865
0.0849885
1.26903
0.0733781
1.50519
0.0581083
1.78903
0.039325
2.12859
0.0191907
2.536
-0.00229361
3.02949
-0.0235045
3.02925
-0.043313
2.53536
-0.061615
2.12759
-0.0763669
1.78791
-0.0876278
1.50417
-0.09903
1.26807
-0.108403
1.06768
-0.105113
0.872507
-0.0632926
0.60562
0.200763
0.0368695
0.165176
0.0789373
0.565006
0.0892349
0.863301
0.0826277
1.07525
0.0714719
1.28019
0.061985
1.51468
0.0512964
1.79972
0.0370356
2.14285
0.0186216
2.55441
-0.00333037
3.05144
-0.0248194
3.05074
-0.0424676
2.55301
-0.0561084
2.14123
-0.0663331
1.79813
-0.0751476
1.51299
-0.0856087
1.27854
-0.0915322
1.0736
-0.0804951
0.86147
-0.0374427
0.562568
0.163321
0.0194944
0.145681
0.0564078
0.528092
0.0712557
0.848454
0.0688113
1.0777
0.0600455
1.28895
0.0500487
1.52468
0.0398937
1.80987
0.0284001
2.15435
0.0137805
2.56903
-0.00407105
3.06929
-0.0216923
3.06836
-0.0354918
2.56681
-0.046283
2.15202
-0.0555192
1.80737
-0.0644929
1.52196
-0.0725361
1.28658
-0.074228
1.0753
-0.0582418
0.845484
-0.0200711
0.524397
0.14325
0.0108258
0.134856
0.0422654
0.496653
0.0578638
0.832855
0.0575879
1.07798
0.0509583
1.29558
0.041387
1.53425
0.03191
1.81935
0.02185
2.16441
0.00959682
2.58129
-0.00512375
3.08401
-0.0194567
3.08269
-0.0311412
2.5785
-0.0401482
2.16103
-0.0481878
1.81541
-0.0570918
1.53087
-0.0627701
1.29226
-0.0618397
1.07437
-0.0446571
0.828301
-0.0115801
0.49132
0.131669
0.00669582
0.12816
0.0327205
0.470628
0.0484833
0.817092
0.0494626
1.077
0.0440334
1.30101
0.035634
1.54265
0.0266307
1.82835
0.0171562
2.17388
0.00651864
2.59192
-0.00657327
3.0971
-0.0191521
3.09527
-0.0288191
2.58816
-0.0368296
2.16904
-0.0441028
1.82268
-0.0511742
1.53794
-0.055252
1.29634
-0.0528903
1.072
-0.0353645
0.810775
-0.00752632
0.463482
0.124143
0.00461225
0.123548
0.0258021
0.449438
0.0412033
0.801691
0.0431908
1.07501
0.0386209
1.30558
0.0313977
1.54987
0.022848
1.8369
0.0131648
2.18357
0.00357784
2.60151
-0.00818764
3.10887
-0.0193483
3.10643
-0.0273858
2.5962
-0.0353984
2.17705
-0.0424507
1.82973
-0.0481984
1.54369
-0.0511766
1.29931
-0.0472001
1.06803
-0.0292807
0.792856
-0.00569428
0.439895
0.118449
0.00359176
0.119956
0.0210813
0.431949
0.0359828
0.78679
0.0390037
1.07199
0.0351338
1.30945
0.0282192
1.55679
0.019758
1.84536
0.0101958
2.19313
0.000459777
2.61125
-0.0106539
3.11998
-0.0209299
3.11671
-0.0288826
2.60415
-0.0360556
2.18422
-0.0423715
1.83605
-0.0470773
1.54839
-0.0485537
1.30079
-0.0431414
1.06262
-0.0252722
0.774987
-0.00493725
0.41956
0.113512
0.002759
0.117197
0.0164887
0.418219
0.0299052
0.773373
0.033406
1.06849
0.0303296
1.31253
0.0243104
1.5628
0.0168641
1.85281
0.00826895
2.20172
-0.0017479
2.62126
-0.0124791
3.13071
-0.0223751
3.1266
-0.0303928
2.61217
-0.0364899
2.19032
-0.0415294
1.84109
-0.0450358
1.5519
-0.0456572
1.30141
-0.0390574
1.05602
-0.02172
0.757649
-0.00442549
0.402266
0.109086
0.00175163
0.115445
0.0115242
0.408446
0.0228391
0.762058
0.0259887
1.06534
0.0231791
1.31534
0.0178142
1.56817
0.0112699
1.85935
0.00371201
2.20928
-0.00580686
2.63078
-0.0160933
3.141
-0.0252926
3.1358
-0.0320635
2.61894
-0.0365195
2.19478
-0.0397921
1.84436
-0.0417177
1.55382
-0.041035
1.30073
-0.0337682
1.04875
-0.0178255
0.741707
-0.0038872
0.388328
0.105199
0.000643206
0.114802
0.00622739
0.402862
0.0144825
0.753803
0.016742
1.06308
0.0141067
1.31797
0.00947935
1.5728
0.0037977
1.86503
-0.00268128
2.21576
-0.0107531
2.63885
-0.019527
3.14977
-0.0269809
3.14326
-0.0319497
2.62391
-0.0346313
2.19746
-0.0366235
1.84636
-0.0376285
1.55483
-0.0362605
1.29936
-0.0288131
1.0413
-0.0142206
0.727114
-0.00330712
0.377414
0.101892
-0.000303529
0.115105
0.00155764
0.401001
0.00767091
0.74769
0.00927689
1.06147
0.00622998
1.32102
0.00121739
1.57781
-0.0045837
1.87084
-0.0109292
2.22211
-0.0179793
2.6459
-0.0245047
3.1563
-0.0295535
3.14831
-0.0327925
2.62715
-0.0348141
2.19948
-0.035524
1.84707
-0.0349613
1.55427
-0.0325082
1.29691
-0.024619
1.03341
-0.0114756
0.713971
-0.00285199
0.368791
0.0990398
-0.00109521
0.116201
-0.00148007
0.401386
0.0017571
0.744453
0.00219114
1.06104
-0.000987217
1.3242
-0.00573695
1.58256
-0.0115471
1.87665
-0.0182386
2.2288
-0.024931
2.6526
-0.0307078
3.16207
-0.0347179
3.15232
-0.0365781
2.62901
-0.0367809
2.19968
-0.0359147
1.8462
-0.0344478
1.5528
-0.0311527
1.29361
-0.0226245
1.02488
-0.0103155
0.701662
-0.0027125
0.361188
0.0963273
-0.00213504
0.118336
-0.00441423
0.403665
-0.00407883
0.744117
-0.00393601
1.06089
-0.00724356
1.3275
-0.0125865
1.5879
-0.0186539
1.88271
-0.0255555
2.2357
-0.0324524
2.65949
-0.0388072
3.16843
-0.0422988
3.15581
-0.0425515
2.62926
-0.0409
2.19803
-0.0386834
1.84398
-0.0359121
1.55003
-0.0308646
1.28856
-0.0213947
1.01541
-0.00997181
0.690239
-0.00282411
0.35404
0.0935031
-0.00314804
0.121484
-0.00777016
0.408287
-0.010493
0.74684
-0.0128355
1.06324
-0.0164904
1.33116
-0.0214379
1.59285
-0.0274315
1.88871
-0.0344385
2.24271
-0.04151
2.66656
-0.0479041
3.17482
-0.0506729
3.15858
-0.0494716
2.62806
-0.04629
2.19485
-0.0425094
1.8402
-0.0378115
1.54533
-0.0313691
1.28212
-0.0215032
1.00555
-0.0104023
0.679138
-0.00304478
0.346682
0.0904584
-0.00404368
0.125527
-0.0113522
0.415596
-0.017021
0.752509
-0.0210103
1.06723
-0.0259129
1.33606
-0.0324766
1.59941
-0.0398551
1.89608
-0.0472836
2.25013
-0.0543503
2.67363
-0.059857
3.18033
-0.0605367
3.15926
-0.0574349
2.62496
-0.0528284
2.19024
-0.047624
1.835
-0.0414644
1.53917
-0.0335225
1.27418
-0.0226808
0.994707
-0.0113949
0.667852
-0.0034556
0.338743
0.0870028
-0.00538855
0.130916
-0.0153999
0.425607
-0.0242314
0.76134
-0.0306326
1.07363
-0.0367721
1.3422
-0.0439951
1.60664
-0.0523148
1.9044
-0.0611214
2.25894
-0.0692684
2.68178
-0.0745523
3.18561
-0.073752
3.15846
-0.0689953
2.6202
-0.0621101
2.18336
-0.0545474
1.82743
-0.0462371
1.53086
-0.0370539
1.265
-0.0255156
0.983169
-0.0132792
0.655616
-0.00401971
0.329484
0.0829831
-0.00640622
0.137322
-0.0182751
0.437476
-0.0297851
0.77285
-0.0386649
1.08251
-0.0470621
1.3506
-0.0567343
1.61631
-0.0676459
1.91532
-0.0787589
2.27005
-0.0885547
2.69157
-0.0940394
3.1911
-0.0917271
3.15614
-0.0844363
2.61291
-0.0753977
2.17432
-0.0663315
1.81837
-0.0565202
1.52105
-0.0451548
1.25363
-0.0308924
0.968906
-0.0163043
0.641028
-0.00498233
0.318162
0.0780007
-0.00864641
0.145969
-0.0242733
0.453103
-0.0391015
0.787678
-0.0504044
1.09381
-0.0607675
1.36096
-0.0725317
1.62807
-0.0858945
1.92868
-0.099608
2.28377
-0.111303
2.70327
-0.116629
3.19643
-0.112977
3.15249
-0.104053
2.60399
-0.0926462
2.16291
-0.0803665
1.80609
-0.0674344
1.50812
-0.0530861
1.23928
-0.0365864
0.952406
-0.019628
0.624069
-0.00597889
0.304512
0.0720218
-0.0104743
0.156443
-0.0295973
0.472226
-0.0485138
0.806595
-0.0636363
1.10893
-0.0775211
1.37485
-0.0930228
1.64357
-0.110107
1.94576
-0.127049
2.30071
-0.13999
2.71621
-0.144485
3.20092
-0.138575
3.14658
-0.126619
2.59203
-0.112529
2.14882
-0.0977175
1.79128
-0.0822314
1.49263
-0.0642947
1.22135
-0.0436519
0.931764
-0.023189
0.603606
-0.006964
0.288287
0.0650578
-0.015133
0.171576
-0.0413836
0.498476
-0.0658755
0.831087
-0.084627
1.12768
-0.101528
1.39175
-0.121058
1.6631
-0.142413
1.96712
-0.161894
2.32019
-0.174898
2.72921
-0.177159
3.20318
-0.167957
3.13738
-0.153241
2.57732
-0.135766
2.13135
-0.116688
1.7722
-0.0965988
1.47254
-0.0747079
1.19946
-0.0510763
0.908132
-0.027371
0.579901
-0.00805408
0.268971
0.0570038
-0.018755
0.190331
-0.0519019
0.531623
-0.0837079
0.862893
-0.109598
1.15357
-0.134094
1.41624
-0.160642
1.68965
-0.185605
1.99208
-0.205336
2.33992
-0.216231
2.74011
-0.214764
3.20171
-0.201777
3.12439
-0.183215
2.55875
-0.162165
2.1103
-0.139661
1.74969
-0.115866
1.44875
-0.0895744
1.17316
-0.0605106
0.879068
-0.0316534
0.551044
-0.00900307
0.24632
0.0480007
-0.0320638
0.222395
-0.0767334
0.576293
-0.117896
0.904056
-0.150879
1.18656
-0.182788
1.44815
-0.213963
1.72083
-0.23975
2.01787
-0.257448
2.35762
-0.264696
2.74736
-0.258841
3.19586
-0.240528
3.10608
-0.216794
2.53502
-0.190973
2.08448
-0.163865
1.72259
-0.135506
1.42039
-0.104803
1.14246
-0.0714255
0.845691
-0.0374754
0.517094
-0.0102611
0.219106
0.0377396
-0.0454477
0.267842
-0.114055
0.6449
-0.171513
0.961514
-0.21491
1.22995
-0.255085
1.48833
-0.285044
1.75079
-0.305987
2.03881
-0.318069
2.3697
-0.319377
2.74866
-0.307052
3.18353
-0.282799
3.08183
-0.254043
2.50626
-0.22322
2.05365
-0.191161
1.69053
-0.158035
1.38726
-0.122394
1.10682
-0.0828683
0.806166
-0.0409409
0.475166
-0.00990786
0.188073
0.0278318
-0.0310367
0.298879
-0.090364
0.704228
-0.145088
1.01624
-0.191849
1.27671
-0.23521
1.53169
-0.272253
1.78783
-0.306163
2.07272
-0.335166
2.3987
-0.355321
2.76882
-0.360993
3.18921
-0.346299
3.06713
-0.316243
2.47621
-0.278874
2.01628
-0.236732
1.64839
-0.190174
1.3407
-0.139116
1.05576
-0.0843385
0.751388
-0.0360959
0.426924
-0.00820884
0.160186
0.0196229
-0.0108896
0.309769
-0.0402343
0.733572
-0.0753962
1.0514
-0.110753
1.31207
-0.145876
1.56681
-0.180999
1.82295
-0.21394
2.10566
-0.241233
2.426
-0.25876
2.78635
-0.259813
3.19026
-0.239322
3.04664
-0.206616
2.4435
-0.168365
1.97803
-0.128533
1.60855
-0.0886853
1.30086
-0.0504962
1.01757
-0.0186823
0.719574
-0.00130917
0.40955
0.0016378
0.157239
0.0212607
-0.000447033
0.310216
-0.0181889
0.751314
-0.0429929
1.0762
-0.0688237
1.3379
-0.0948451
1.59283
-0.123205
1.85131
-0.152035
2.13449
-0.176675
2.45064
-0.192243
2.80191
-0.192143
3.19016
-0.172122
3.02662
-0.141778
2.41316
-0.106738
1.94299
-0.0693699
1.57119
-0.0345146
1.266
-0.0064118
0.98947
0.0109452
0.702217
0.0137775
0.406718
0.00593946
0.165077
0.0272002
0.000867916
0.309348
-0.0123
0.764482
-0.0303195
1.09422
-0.0497143
1.3573
-0.0695404
1.61266
-0.0914182
1.87319
-0.114261
2.15733
-0.134381
2.47076
-0.147025
2.81456
-0.144742
3.18788
-0.124828
3.00671
-0.0981163
2.38645
-0.0683538
1.91323
-0.0403476
1.54318
-0.015103
1.24076
0.00634461
0.968022
0.0185114
0.69005
0.0170128
0.408217
0.00648625
0.175603
0.0336864
0.00415099
0.305197
-0.00459961
0.773233
-0.021606
1.11123
-0.0399458
1.37564
-0.0576275
1.63034
-0.0756123
1.89118
-0.0938713
2.17559
-0.110513
2.4874
-0.121718
2.82576
-0.120077
3.18624
-0.102931
2.98956
-0.0796387
2.36315
-0.054304
1.8879
-0.029194
1.51807
-0.00534766
1.21691
0.0124936
0.950181
0.020162
0.682382
0.0157204
0.412658
0.00545886
0.185865
0.0391453
0.00463164
0.300565
-0.000767652
0.778632
-0.015583
1.12605
-0.0332804
1.39333
-0.0507767
1.64784
-0.0675855
1.90799
-0.0837774
2.19179
-0.098177
2.5018
-0.10682
2.83441
-0.103457
3.18287
-0.0884778
2.97458
-0.0695798
2.34426
-0.0474042
1.86572
-0.0235198
1.49419
-0.00412812
1.19752
0.0108182
0.935234
0.0172402
0.67596
0.0127419
0.417157
0.00414106
0.194466
0.0432863
0.00343288
0.297132
-0.000498286
0.782563
-0.013157
1.1387
-0.0293294
1.40951
-0.0463673
1.66487
-0.0631959
1.92481
-0.0791845
2.20777
-0.0929535
2.51557
-0.101095
2.84255
-0.098384
3.18016
-0.0859258
2.96212
-0.0667828
2.32511
-0.045092
1.84403
-0.0260777
1.47517
-0.0075503
1.17899
0.00520714
0.922477
0.0101482
0.671019
0.00773977
0.419565
0.00283849
0.199367
0.0461248
0.0021487
0.294984
-0.00132161
0.786033
-0.0121959
1.14958
-0.0269263
1.42424
-0.0434624
1.68141
-0.0606639
1.94202
-0.077345
2.22445
-0.0916051
2.52983
-0.0998385
2.85078
-0.0967561
3.17708
-0.085735
2.9511
-0.0688403
2.30822
-0.0505634
1.82575
-0.031817
1.45642
-0.0170877
1.16426
-0.00620729
0.911597
-0.00107956
0.665891
-0.000724572
0.41921
-9.78093e-05
0.19874
0.046027
0.000413605
0.29457
-0.00365447
0.790102
-0.0135217
1.15945
-0.0268051
1.43752
-0.0423055
1.69691
-0.0593695
1.95908
-0.0767215
2.24181
-0.0918809
2.54499
-0.100774
2.85967
-0.0998467
3.17615
-0.0895384
2.9408
-0.0720887
2.29077
-0.05384
1.8075
-0.0387646
1.44135
-0.0248724
1.15037
-0.0153517
0.902076
-0.00951583
0.660055
-0.00558645
0.415281
-0.00182456
0.194978
0.0442025
-0.00115299
0.295723
-0.00549694
0.794445
-0.0146534
1.1686
-0.027213
1.45008
-0.0421887
1.71189
-0.0590947
1.97599
-0.0768989
2.25961
-0.0931482
2.56124
-0.104279
2.87081
-0.10668
3.17855
-0.0965359
2.93065
-0.0795306
2.27376
-0.0636362
1.79161
-0.047088
1.4248
-0.0341178
1.1374
-0.0221304
0.890089
-0.0135008
0.651425
-0.00766895
0.409449
-0.00240429
0.189714
0.0417982
-0.00263333
0.298356
-0.00771491
0.799527
-0.0165874
1.17747
-0.0285141
1.46201
-0.0428994
1.72627
-0.0593922
1.99248
-0.077124
2.27734
-0.0940192
2.57813
-0.106882
2.88367
-0.111489
3.18316
-0.102961
2.92212
-0.0867027
2.2575
-0.0697524
1.77466
-0.0552966
1.41035
-0.0403186
1.12242
-0.0290529
0.878823
-0.019803
0.642176
-0.010303
0.399949
-0.00320725
0.182618
0.0385909
-0.00361668
0.301973
-0.00924552
0.805156
-0.0180745
1.1863
-0.0298184
1.47375
-0.0438895
1.74034
-0.0599029
2.00849
-0.0774244
2.29486
-0.0949938
2.5957
-0.110661
2.89934
-0.121283
3.19378
-0.116236
2.91708
-0.0999978
2.24127
-0.0807587
1.75542
-0.0625991
1.39219
-0.048378
1.1082
-0.0345638
0.865009
-0.0222732
0.629885
-0.0117384
0.389414
-0.00354299
0.174423
0.0350479
-0.00428854
0.306262
-0.0107501
0.811617
-0.0196754
1.19523
-0.0311393
1.48521
-0.0448012
1.75401
-0.0603928
2.02408
-0.0775596
2.31203
-0.0954429
2.61358
-0.112754
2.91665
-0.126112
3.20714
-0.12361
2.91457
-0.108537
2.22619
-0.0877241
1.73461
-0.0694213
1.37388
-0.0533788
1.09216
-0.040409
0.852039
-0.0272116
0.616688
-0.0133191
0.375522
-0.00379501
0.164898
0.0312529
-0.00474901
0.311011
-0.0117009
0.818569
-0.02072
1.20425
-0.0320954
1.49659
-0.0455014
1.76741
-0.0606099
2.03919
-0.077306
2.32873
-0.0953416
2.63162
-0.114329
2.93563
-0.132251
3.22506
-0.135545
2.91787
-0.122425
2.21307
-0.100572
1.71275
-0.0765754
1.34989
-0.0591315
1.07471
-0.0430164
0.835924
-0.0277855
0.601457
-0.0141555
0.361892
-0.0037547
0.154498
0.0274982
-0.0050862
0.316097
-0.0125747
0.826058
-0.0216086
1.21328
-0.0326982
1.50768
-0.0457135
1.78043
-0.060425
2.0539
-0.0768106
2.34511
-0.0949822
2.64979
-0.114905
2.95556
-0.13348
3.24364
-0.140073
2.92446
-0.133105
2.20611
-0.112
1.69165
-0.0860684
1.32395
-0.0615675
1.05021
-0.0459165
0.820273
-0.0312678
0.586808
-0.0148528
0.345477
-0.00351092
0.143156
0.0239873
-0.00520568
0.321302
-0.0129156
0.833768
-0.0219314
1.2223
-0.032852
1.5186
-0.0455563
1.79313
-0.0598087
2.06816
-0.0758834
2.36119
-0.0941111
2.66802
-0.114678
2.97612
-0.13641
3.26537
-0.14923
2.93728
-0.145559
2.20243
-0.128401
1.67449
-0.0986328
1.29419
-0.0679203
1.0195
-0.0429553
0.795308
-0.0261793
0.570032
-0.01311
0.332407
-0.00254259
0.132588
0.0214447
-0.00525434
0.326557
-0.0131954
0.841709
-0.0221388
1.23124
-0.032674
1.52913
-0.0448395
1.8053
-0.058713
2.08203
-0.074779
2.37725
-0.093268
2.68651
-0.114397
2.99725
-0.136374
3.28735
-0.150154
2.95106
-0.151874
2.20415
-0.138975
1.66159
-0.113703
1.26892
-0.0754519
0.981248
-0.0403919
0.760247
-0.0197617
0.549402
-0.00545305
0.318099
-0.000182525
0.127318
0.0212622
-0.00513894
0.331696
-0.0130459
0.849616
-0.0218848
1.24008
-0.0321072
1.53936
-0.0437349
1.81692
-0.0572995
2.09559
-0.0733617
2.39332
-0.0920159
2.70516
-0.113532
3.01877
-0.13688
3.31069
-0.1536
2.96778
-0.158079
2.20863
-0.151036
1.65455
-0.127668
1.24555
-0.0906081
0.944188
-0.038876
0.708515
0.000625435
0.5099
0.0159464
0.302778
0.00831585
0.134948
0.029578
-0.00499206
0.336688
-0.0129377
0.857561
-0.0216409
1.24878
-0.0313434
1.54906
-0.0421418
1.82772
-0.0555866
2.10904
-0.0718801
2.40961
-0.090863
2.72414
-0.112936
3.04084
-0.136667
3.33442
-0.154938
2.98605
-0.163257
2.21695
-0.15712
1.64841
-0.139403
1.22783
-0.102413
0.907198
-0.0494904
0.655593
0.0206536
0.439756
0.0621907
0.261241
0.0470781
0.150061
0.0766562
-0.00475411
0.341442
-0.0120811
0.864888
-0.0201167
1.25682
-0.0296946
1.55864
-0.0414534
1.83948
-0.0555617
2.12315
-0.0724845
2.42653
-0.0922828
2.74394
-0.11494
3.0635
-0.139045
3.35853
-0.15767
3.00467
-0.166447
2.22573
-0.166125
1.64809
-0.147681
1.20939
-0.116412
0.875929
-0.0527611
0.591942
0.0390163
0.347979
0.119593
0.180664
0.132908
0.136747
0.209564
-0.00464974
0.346092
-0.0117151
0.871954
-0.0195192
1.26462
-0.0292301
1.56835
-0.0414805
1.85173
-0.0563098
2.13798
-0.0744285
2.44465
-0.0961945
2.76571
-0.121678
3.08898
-0.149625
3.38648
-0.174108
3.02916
-0.19023
2.24185
-0.190252
1.64811
-0.176422
1.19556
-0.137961
0.837468
-0.0912425
0.545223
-0.115765
0.372502
-0.393771
0.458669
-0.985829
0.728805
0.922471
-1.69874
-0.00449005
0.350582
-0.0114336
0.878897
-0.0191841
1.27237
-0.0285129
1.57768
-0.0400688
1.86329
-0.054978
2.15289
-0.0736057
2.46328
-0.096095
2.7882
-0.123294
3.11618
-0.154671
3.41785
-0.183729
3.05822
-0.205075
2.2632
-0.220949
1.66399
-0.220454
1.19506
-0.209904
0.826918
-0.308897
0.644217
-0.753172
0.816776
-1.48105
1.18655
-2.07745
1.3252
1.21069
-2.36567
-0.00426474
0.354846
-0.0110649
0.885697
-0.0185958
1.2799
-0.0274343
1.58652
-0.0387666
1.87462
-0.053977
2.1681
-0.0730587
2.48236
-0.0964409
2.81158
-0.125572
3.14531
-0.160088
3.45237
-0.19571
3.09384
-0.227509
2.295
-0.249947
1.68642
-0.262753
1.20787
-0.377563
0.941728
-0.835512
1.10217
-1.5878
1.56907
-2.12736
1.72611
-2.35279
1.55063
1.3161
-2.45821
-0.00367869
0.358525
-0.010547
0.892566
-0.0178074
1.28716
-0.0259445
1.59465
-0.0372123
1.88589
-0.0528945
2.18378
-0.0722188
2.50168
-0.09624
2.8356
-0.127195
3.17627
-0.165698
3.49087
-0.207649
3.13579
-0.247125
2.33447
-0.287195
1.7265
-0.387696
1.30837
-0.743361
1.29739
-1.4737
1.8325
-2.04081
2.13618
-2.27064
1.95594
-2.37846
1.65845
1.38359
-2.44594
-0.00276955
0.361295
-0.00846567
0.898262
-0.0153134
1.29401
-0.0241941
1.60353
-0.0364415
1.89814
-0.0521332
2.19947
-0.0713594
2.52091
-0.0960434
2.86029
-0.128837
3.20906
-0.171006
3.53304
-0.220498
3.18528
-0.274511
2.38848
-0.340076
1.79206
-0.552397
1.52069
-1.17614
1.92114
-1.84092
2.49727
-2.14273
2.43799
-2.2821
2.09531
-2.36171
1.73806
1.4426
-2.42072
-0.00221402
0.363509
-0.00655394
0.902602
-0.0134998
1.30096
-0.0238514
1.61389
-0.037152
1.91144
-0.0528518
2.21517
-0.0723421
2.5404
-0.0981495
2.88609
-0.132936
3.24385
-0.179602
3.57971
-0.234848
3.24053
-0.290803
2.44444
-0.416581
1.91784
-0.822418
1.92653
-1.54993
2.64865
-1.99012
2.93746
-2.16843
2.6163
-2.26134
2.18823
-2.33215
1.80887
1.50198
-2.39153
-0.00208973
0.365598
-0.00687477
0.907387
-0.0143455
1.30843
-0.0251326
1.62467
-0.0389253
1.92523
-0.0553111
2.23156
-0.0756788
2.56077
-0.102775
2.91319
-0.139797
3.28087
-0.190728
3.63064
-0.253068
3.30287
-0.333798
2.52517
-0.549177
2.13322
-1.12542
2.50277
-1.73388
3.25711
-1.9856
3.18918
-2.12018
2.75088
-2.22163
2.28968
-2.30526
1.8925
1.56273
-2.36602
-0.00220748
0.367806
-0.00774328
0.912923
-0.0157843
1.31647
-0.0266831
1.63557
-0.040691
1.93924
-0.0576835
2.24855
-0.078852
2.58194
-0.107289
2.94163
-0.146524
3.32011
-0.201408
3.68552
-0.269091
3.37055
-0.375223
2.6313
-0.690269
2.44826
-1.35033
3.16283
-1.79838
3.70516
-1.99193
3.38274
-2.1228
2.88175
-2.22409
2.39097
-2.30221
1.97062
1.59473
-2.33421
-0.00249007
0.370296
-0.00852025
0.918953
-0.017117
1.32507
-0.0283635
1.64682
-0.0426593
1.95353
-0.0602162
2.2661
-0.0823234
2.60404
-0.11204
2.97134
-0.153677
3.36174
-0.212892
3.74474
-0.28671
3.44437
-0.435274
2.77986
-0.854804
2.86779
-1.48658
3.7946
-1.81089
4.02947
-1.96838
3.54022
-2.06381
2.97718
-2.14608
2.47324
-2.20061
2.02515
1.53833
-2.14422
-0.00272605
0.373022
-0.00911428
0.925341
-0.0183036
1.33426
-0.0300727
1.65859
-0.0447525
1.96821
-0.0627342
2.28409
-0.0854312
2.62674
-0.116305
3.00221
-0.160081
3.40552
-0.22436
3.80902
-0.322783
3.54279
-0.521229
2.97831
-0.996047
3.34261
-1.53548
4.33404
-1.784
4.27799
-1.92864
3.68487
-2.01081
3.05935
-2.02282
2.48526
-1.94586
1.94819
1.47295
-1.88047
-0.00270562
0.375728
-0.00944401
0.932079
-0.0190248
1.34384
-0.0312492
1.67081
-0.0463507
1.98331
-0.0646244
2.30236
-0.0877775
2.64989
-0.119013
3.03345
-0.163003
3.44951
-0.225154
3.87117
-0.325983
3.64362
-0.560825
3.21315
-1.07681
3.8586
-1.49576
4.75298
-1.66051
4.44274
-1.7419
3.76626
-1.7774
3.09485
-1.64913
2.35698
-1.13687
1.43594
0.336072
-0.00257926
0.378307
-0.0094233
0.938924
-0.0195873
1.354
-0.032721
1.68394
-0.0488664
1.99946
-0.0681959
2.32169
-0.0930069
2.67471
-0.127004
3.06745
-0.174544
3.49705
-0.241629
3.93825
-0.364009
3.766
-0.651578
3.50072
-1.21738
4.42439
-1.55846
5.09407
-1.67366
4.55793
-1.70956
3.80215
-1.61213
2.99743
-1.2684
2.01325
-0.489781
0.657323
-0.153708
-0.00225056
0.380557
-0.00928022
0.945953
-0.0198248
1.36455
-0.0334241
1.69754
-0.0504218
2.01646
-0.0712399
2.34251
-0.0979253
2.70139
-0.13422
3.10374
-0.185663
3.54849
-0.260826
4.01341
-0.403664
3.90884
-0.75921
3.85627
-1.32914
4.99433
-1.57424
5.33917
-1.64583
4.62952
-1.62176
3.77808
-1.37193
2.7476
-0.661858
1.30317
-0.0180339
0.0134992
-0.171742
-0.00170543
0.382263
-0.0086954
0.952943
-0.0197763
1.37563
-0.0341451
1.71191
-0.0520016
2.03431
-0.0738169
2.36432
-0.102007
2.72958
-0.140537
3.14227
-0.194001
3.60196
-0.284777
4.10419
-0.4665
4.09057
-0.873364
4.26313
-1.39817
5.51913
-1.56709
5.50809
-1.60799
4.67043
-1.48486
3.65495
-1.00716
2.2699
-0.190141
0.486151
0.0324939
-0.209135
-0.139248
-0.000835864
0.383099
-0.00736673
0.959474
-0.018422
1.38668
-0.0330667
1.72656
-0.0516875
2.05293
-0.0749789
2.38761
-0.105
2.7596
-0.145555
3.18283
-0.201088
3.65749
-0.29989
4.20299
-0.505327
4.296
-0.973182
4.73099
-1.42578
5.97173
-1.53901
5.62132
-1.52816
4.65958
-1.25112
3.37791
-0.535396
1.55418
-0.000412263
-0.0488324
0.0212103
-0.230758
-0.118038
0.000369397
0.382729
-0.00539836
0.965242
-0.0166335
1.39792
-0.0318753
1.7418
-0.0511366
2.0722
-0.0751951
2.41167
-0.106723
2.79113
-0.149293
3.2254
-0.205968
3.71416
-0.310559
4.30758
-0.542169
4.52761
-1.0641
5.25292
-1.40358
6.3112
-1.46084
5.67858
-1.38044
4.57918
-1.00007
2.99755
-0.194448
0.748554
0.0241898
-0.26747
0.0195099
-0.226078
-0.0985279
0.00200215
0.380727
-0.00213281
0.969377
-0.0125462
1.40833
-0.0274397
1.75669
-0.0470358
2.09179
-0.0723496
2.43699
-0.105413
2.82419
-0.149293
3.26928
-0.207309
3.77218
-0.314797
4.41507
-0.572714
4.78553
-1.10316
5.78336
-1.3433
6.55134
-1.37351
5.70879
-1.19803
4.4037
-0.635077
2.43459
0.00859242
0.104884
0.0387393
-0.297617
0.0215908
-0.20893
-0.0769371
0.00430938
0.376418
0.00214832
0.971538
-0.00755192
1.41803
-0.0224526
1.77159
-0.0419605
2.1113
-0.0674468
2.46247
-0.101709
2.85846
-0.146477
3.31405
-0.205537
3.83124
-0.315428
4.52496
-0.598316
5.06842
-1.10396
6.28901
-1.2688
6.71618
-1.26015
5.70013
-0.96083
4.10438
-0.31384
1.7876
0.00309667
-0.212053
0.0214924
-0.316013
0.0137377
-0.201175
-0.0631994
0.00753302
0.368885
0.00845061
0.97062
0.00105361
1.42543
-0.0124109
1.78506
-0.0312088
2.1301
-0.0568736
2.48814
-0.0918223
2.8934
-0.137302
3.35952
-0.197661
3.8916
-0.306026
4.63333
-0.593546
5.35594
-1.03636
6.73183
-1.15362
6.83344
-1.11513
5.66164
-0.822762
3.81201
-0.139442
1.10428
-0.0263798
-0.325115
0.00938086
-0.351774
0.0187914
-0.210586
-0.0444079
0.0119562
0.356929
0.0169556
0.965621
0.0117566
1.43063
-0.000589124
1.7974
-0.0179189
2.14743
-0.0422791
2.5125
-0.0772346
2.92836
-0.122751
3.40504
-0.184333
3.95318
-0.290004
4.739
-0.557566
5.6235
-0.919009
7.09327
-1.00317
6.9176
-0.955775
5.61424
-0.611557
3.46779
0.0184472
0.47428
0.015148
-0.321815
0.0291651
-0.365791
0.0392046
-0.220625
-0.0052033
0.0175862
0.339342
0.0285383
0.954669
0.0277628
1.4314
0.0183841
1.80678
0.00313571
2.16268
-0.0188738
2.53451
-0.0520663
2.96155
-0.0988128
3.45179
-0.162131
4.0165
-0.261623
4.83849
-0.474626
5.8365
-0.739651
7.3583
-0.82119
6.99914
-0.775621
5.56868
-0.439186
3.13136
-0.158916
0.19401
-0.134915
-0.345817
-0.0763778
-0.424328
-0.000292781
-0.29671
-0.00549608
0.0249817
0.314361
0.0435579
0.936092
0.0472147
1.42774
0.0406199
1.81338
0.0287822
2.17451
0.0109152
2.55237
-0.0168127
2.98928
-0.0605735
3.49555
-0.125194
4.08112
-0.208348
4.92164
-0.357945
5.9861
-0.526708
7.52706
-0.623155
7.09559
-0.645913
5.59143
-0.406257
2.8917
-0.430226
0.217979
-0.422377
-0.353666
-0.290568
-0.556136
-0.122932
-0.464346
-0.128428
0.0337179
0.280643
0.0625938
0.907217
0.0740289
1.41631
0.0722033
1.8152
0.0641656
2.18255
0.0517528
2.56479
0.0326498
3.00838
-0.00193113
3.53013
-0.062298
4.14149
-0.132905
4.99225
-0.202553
6.05575
-0.263965
7.58847
-0.30593
7.13755
-0.325331
5.61084
-0.281543
2.84792
-0.519744
0.456179
-0.571037
-0.302372
-0.438548
-0.688626
-0.227403
-0.675491
-0.355832
0.0443059
0.236337
0.086211
0.865312
0.105778
1.39674
0.109524
1.81146
0.10734
2.18473
0.100933
2.57119
0.0934752
3.01584
0.0751299
3.54847
0.0312957
4.18532
-0.0269953
5.05054
-0.0294083
6.05816
0.0359858
7.52308
0.115098
7.05844
0.130412
5.59552
-0.0290339
3.00736
-0.29165
0.718796
-0.359273
-0.234749
-0.346499
-0.7014
-0.196992
-0.824998
-0.552823
0.0541073
0.18223
0.11252
0.806898
0.14698
1.36228
0.160875
1.79756
0.164829
2.18078
0.163291
2.57273
0.165746
3.01339
0.170362
3.54386
0.16515
4.19053
0.142444
5.07325
0.255906
5.9447
0.470407
7.30858
0.645616
6.88323
0.716356
5.52478
0.347174
3.37654
0.0375797
1.02839
-0.110018
-0.0871515
-0.212501
-0.598917
-0.137918
-0.899581
-0.690741
0.0586189
0.123611
0.140253
0.725264
0.193652
1.30888
0.220199
1.77102
0.233596
2.16738
0.239801
2.56653
0.251503
3.00168
0.275568
3.51979
0.314393
4.15171
0.369486
5.01816
0.597631
5.71655
0.980404
6.9258
1.25125
6.61239
1.43057
5.34546
1.11016
3.69695
0.570819
1.56773
0.183341
0.300327
-0.0280192
-0.387557
-0.0737536
-0.853847
-0.764494
0.0527663
0.0708444
0.166739
0.611291
0.249611
1.22601
0.294482
1.72614
0.3184
2.14346
0.331601
2.55333
0.352672
2.98061
0.394218
3.47825
0.46816
4.07777
0.606866
4.87945
0.965989
5.35743
1.53807
6.35372
1.8813
6.26916
2.14079
5.08597
2.03474
3.803
1.43173
2.17074
0.860757
0.871299
0.431962
0.041238
0.099253
-0.521138
-0.665241
0.0425367
0.0283077
0.193569
0.460259
0.307317
1.11226
0.372811
1.66065
0.41034
2.10594
0.439725
2.52394
0.4675
2.95284
0.523024
3.42272
0.623675
3.97712
0.793
4.71013
1.19749
4.95293
1.96856
5.58265
2.31244
5.92529
2.52571
4.87269
2.54466
3.78405
2.09457
2.62083
1.45753
1.50834
0.840693
0.658079
0.333034
-0.0134786
-0.332207
0.031917
-0.00360926
0.215056
0.27712
0.369553
0.957768
0.46085
1.56935
0.511876
2.05491
0.553361
2.48246
0.58507
2.92113
0.648905
3.35889
0.754736
3.87128
0.913809
4.55105
1.207
4.65974
1.99106
4.79859
2.42536
5.491
2.59296
4.7051
2.61209
3.76493
2.29789
2.93502
1.70431
2.10191
1.05679
1.30561
0.457784
0.585523
0.125577
0.0272487
-0.030858
0.190597
0.113772
0.412316
0.736049
0.54941
1.43226
0.62116
1.98316
0.672659
2.43096
0.713758
2.88003
0.759316
3.31333
0.852656
3.77794
0.995115
4.40859
1.16681
4.48805
1.61851
4.34689
2.07256
5.03695
2.06227
4.71539
1.89775
3.92944
1.63008
3.20269
1.25841
2.47359
0.839398
1.72462
0.383962
1.04096
0.509539
0.0304243
-0.0612823
0.131123
0.0130732
0.357028
0.510143
0.518251
1.27104
0.5999
1.90151
0.638875
2.39198
0.661864
2.85704
0.652464
3.32273
0.668688
3.76172
0.718103
4.35918
0.74647
4.45968
0.790322
4.30303
0.852552
4.97472
0.808693
4.75924
0.723496
4.01464
0.643538
3.28265
0.536405
2.58072
0.388602
1.87242
0.17899
1.25057
0.688529
0.0204717
-0.081754
0.0584702
-0.0249253
0.178385
0.390228
0.304932
1.14449
0.392632
1.81381
0.445063
2.33955
0.480353
2.82175
0.48243
3.32065
0.477133
3.76702
0.49028
4.34603
0.498234
4.45172
0.516048
4.28522
0.643939
4.84683
0.670154
4.73303
0.592818
4.09198
0.49938
3.37609
0.386546
2.69355
0.252488
2.00648
0.100162
1.4029
0.788691
0.0125149
-0.0942689
0.0179597
-0.0303701
0.0496594
0.358529
0.122556
1.07159
0.192617
1.74375
0.25358
2.27859
0.30149
2.77384
0.326203
3.29594
0.309401
3.78382
0.302406
4.35303
0.326093
4.42804
0.334916
4.2764
0.40328
4.77847
0.435578
4.70073
0.410543
4.11701
0.334913
3.45172
0.232816
2.79565
0.123803
2.11549
0.0219874
1.50471
0.810678
-0.00203973
-0.0922291
-0.0269425
-0.00546728
-0.0448682
0.376454
-0.0177267
1.04445
0.0374685
1.68855
0.0944748
2.22158
0.14673
2.72159
0.189364
3.25331
0.185617
3.78757
0.173648
4.365
0.151629
4.45006
0.176495
4.25153
0.25781
4.69715
0.278709
4.67983
0.247893
4.14783
0.190518
3.50909
0.121376
2.86479
0.0417935
2.19507
-0.023592
1.5701
0.787086
-0.0198756
-0.0723535
-0.0694005
0.0440575
-0.113325
0.420379
-0.11473
1.04586
-0.071319
1.64514
-0.016445
2.16671
0.0349204
2.67022
0.08747
3.20076
0.114117
3.76092
0.116488
4.36263
0.0949783
4.47156
0.122904
4.22361
0.168679
4.65138
0.15074
4.69777
0.107498
4.19107
0.0616635
3.55493
0.0104666
2.91599
-0.0440182
2.24956
-0.0597444
1.58582
0.727342
-0.035588
-0.0367655
-0.102578
0.111048
-0.162055
0.479856
-0.174667
1.05847