/*--------------------------------*- C++ -*----------------------------------*\
| =========                 |                                                 |
| \\      /  F ield         | OpenFOAM: The Open Source CFD Toolbox           |
|  \\    /   O peration     | Version:  2106                                  |
|   \\  /    A nd           | Website:  www.openfoam.com                      |
|    \\/     M anipulation  |                                                 |
\*---------------------------------------------------------------------------*/
FoamFile
{
    version     2.0;
    format      ascii;
    arch        "LSB;label=32;scalar=64";
    class       volScalarField;
    location    "2";
    object      T;
}
// * * * * * * * * * * * * * * * * * * * * * * * * * * * * * * * * * * * * * //

dimensions      [0 0 0 1 0 0 0];

internalField   nonuniform List<scalar> 
1000
(
3.65797e-36
-4.67143e-38
3.69039e-36
-3.76886e-36
7.46191e-36
-1.12492e-35
1.87013e-35
-2.99119e-35
4.84862e-35
-7.81066e-35
1.25971e-34
-2.02836e-34
3.26418e-34
-5.24784e-34
8.43001e-34
-1.35298e-33
2.16957e-33
-3.47597e-33
5.56409e-33
-8.8987e-33
1.42191e-32
-2.27001e-32
3.62072e-32
-5.7699e-32
9.18645e-32
-1.46127e-31
2.32229e-31
-3.68725e-31
5.84907e-31
-9.26974e-31
1.46772e-30
-2.32173e-30
3.66919e-30
-5.7932e-30
9.13806e-30
-1.44004e-29
2.26714e-29
-3.56585e-29
5.60308e-29
-8.79565e-29
1.37938e-28
-2.16109e-28
3.38247e-28
-5.28887e-28
8.26151e-28
-1.2892e-27
2.00976e-27
-3.12989e-27
4.86936e-27
-7.56782e-27
1.17496e-26
-1.82234e-26
2.82347e-26
-4.37004e-26
6.75667e-26
-1.04357e-25
1.6101e-25
-2.48155e-25
3.82056e-25
-5.87578e-25
9.02684e-25
-1.38527e-24
2.12354e-24
-3.25169e-24
4.9737e-24
-7.59923e-24
1.15978e-23
-1.76806e-23
2.69234e-23
-4.09517e-23
6.22186e-23
-9.44219e-23
1.43129e-22
-2.1671e-22
3.27738e-22
-4.95073e-22
7.46968e-22
-1.1257e-21
1.69445e-21
-2.54752e-21
3.82547e-21
-5.7376e-21
8.59507e-21
-1.286e-20
1.92176e-20
-2.86828e-20
4.27572e-20
-6.36583e-20
9.4658e-20
-1.40577e-19
2.08507e-19
-3.08869e-19
4.56954e-19
-6.75168e-19
9.96298e-19
-1.46825e-18
2.16095e-18
-3.17627e-18
4.66246e-18
-6.83493e-18
1.00063e-17
-1.46293e-17
2.13594e-17
-3.11431e-17
4.5346e-17
-6.59353e-17
9.57402e-17
-1.38824e-16
2.01014e-16
-2.90654e-16
4.1967e-16
-6.05089e-16
8.71178e-16
-1.25247e-15
1.79802e-15
-2.57743e-15
3.68927e-15
-5.27292e-15
7.52512e-15
-1.07232e-14
1.52574e-14
-2.1676e-14
3.07476e-14
-4.35489e-14
6.15845e-14
-8.69539e-14
1.22582e-13
-1.72536e-13
2.42461e-13
-3.40183e-13
4.76523e-13
-6.66428e-13
9.30498e-13
-1.29708e-12
1.80509e-12
-2.50791e-12
3.47856e-12
-4.81676e-12
6.65848e-12
-9.18872e-12
1.26587e-11
-1.7409e-11
2.39002e-11
-3.27543e-11
4.48094e-11
-6.11926e-11
8.34164e-11
-1.13507e-10
1.54172e-10
-2.09024e-10
2.82871e-10
-3.82099e-10
5.15173e-10
-6.93289e-10
9.31225e-10
-1.24844e-09
1.6705e-09
-2.23093e-09
2.97358e-09
-3.95568e-09
5.25175e-09
-6.95862e-09
9.20175e-09
-1.21434e-08
1.59929e-08
-2.10195e-08
2.75689e-08
-3.60838e-08
4.71295e-08
-6.14265e-08
7.98901e-08
-1.03681e-07
1.34265e-07
-1.73491e-07
2.23686e-07
-2.87765e-07
3.69374e-07
-4.73059e-07
6.04476e-07
-7.70634e-07
9.802e-07
-1.24386e-06
1.57474e-06
-1.98892e-06
2.50605e-06
-3.15005e-06
3.94995e-06
-4.94087e-06
6.16513e-06
-7.67362e-06
9.52725e-06
-1.17987e-05
1.45744e-05
-1.79568e-05
2.20667e-05
-2.70461e-05
3.30614e-05
-4.03068e-05
4.90076e-05
-5.94247e-05
7.18584e-05
-8.6653e-05
0.000104202
-0.00012495
0.000149404
-0.00017813
0.000211762
-0.000251006
0.000296642
-0.000349527
0.000410597
-0.000480866
0.000561427
-0.000653444
0.000758152
-0.000876845
0.00101087
-0.00116159
0.00133042
-0.00151873
0.0017279
-0.00195922
0.00221391
-0.00249305
0.00279757
-0.00312819
0.00348537
-0.00386929
0.00427977
-0.00471628
0.00517785
-0.00566305
0.00616996
-0.00669615
0.00723867
-0.00779402
0.00835818
-0.00892664
0.00949439
-0.010056
0.0106058
-0.0111375
0.0116451
-0.0121221
0.0125623
-0.0129596
0.013308
-0.0136021
0.0138371
-0.0140087
0.0141135
-0.014149
0.0141135
-0.0140066
0.0138288
-0.0135816
0.0132679
-0.0128913
0.0124565
-0.0119692
0.0114355
-0.0108626
0.0102576
-0.00962844
0.00898281
-0.00832852
0.00767312
-0.00702381
0.00638729
-0.00576962
0.00517613
-0.00461138
0.00407906
-0.00358201
0.0031222
-0.00270078
0.00231812
-0.00197385
0.00166702
-0.00139609
0.00115913
-0.000953825
0.000777651
-0.00062792
0.000501884
-0.000396805
0.000310017
-0.000238983
0.000181324
-0.000134853
9.75886e-05
-6.77568e-05
4.37912e-05
-2.43206e-05
8.15377e-06
5.74065e-06
-1.82564e-05
3.01732e-05
-4.21806e-05
5.49015e-05
-6.8914e-05
8.47718e-05
-0.000103023
0.000124228
-0.000148971
0.000177877
-0.000211618
0.000250926
-0.0002966
0.000349505
-0.000410586
0.000480861
-0.000561425
0.000653443
-0.000758152
0.000876845
-0.00101087
0.00116159
-0.00133042
0.00151873
-0.0017279
0.00195922
-0.00221391
0.00249305
-0.00279757
0.00312819
-0.00348537
0.00386929
-0.00427977
0.00471628
-0.00517785
0.00566305
-0.00616996
0.00669615
-0.00723867
0.00779402
-0.00835818
0.00892664
-0.00949439
0.010056
-0.0106058
0.0111375
-0.0116451
0.0121221
-0.0125623
0.0129596
-0.013308
0.0136021
-0.0138371
0.0140087
-0.0141135
0.014149
-0.0141135
0.0140066
-0.0138288
0.0135816
-0.0132679
0.0128913
-0.0124565
0.0119692
-0.0114355
0.0108626
-0.0102576
0.00962845
-0.00898283
0.00832854
-0.00767315
0.00702385
-0.00638734
0.00576968
-0.00517621
0.00461148
-0.0040792
0.00358219
-0.00312243
0.00270107
-0.00231848
0.00197432
-0.00166762
0.00139686
-0.00116011
0.000955068
-0.000779225
0.000629909
-0.00050439
0.000399955
-0.000313967
0.000243923
-0.000187489
0.000142527
-0.000107116
7.95555e-05
-5.83656e-05
4.22774e-05
-3.02204e-05
2.13054e-05
-1.48051e-05
1.01337e-05
-6.82703e-06
4.52319e-06
-2.9444e-06
1.88115e-06
-1.17814e-06
7.22283e-07
-4.3275e-07
2.52894e-07
-1.43807e-07
7.93399e-08
-4.23115e-08
2.1705e-08
-1.06387e-08
4.93434e-09
-2.13279e-09
8.36263e-10
-2.80874e-10
6.78158e-11
2.48439e-15
-1.34832e-11
1.0802e-11
-5.83704e-12
2.36829e-12
-6.25579e-13
-2.28524e-14
1.5652e-13
-1.17666e-13
5.60702e-14
-1.69061e-14
4.39211e-16
2.6507e-15
-1.32032e-15
-8.21821e-16
1.8578e-15
-2.42896e-15
2.33516e-15
-2.41426e-15
2.25978e-15
-2.39629e-15
2.32273e-15
-2.47938e-15
2.41744e-15
-2.55824e-15
2.49525e-15
-2.63087e-15
2.56988e-15
-2.71227e-15
2.64935e-15
-2.80694e-15
2.73535e-15
-2.91629e-15
2.82901e-15
-3.04028e-15
2.93035e-15
-3.17624e-15
3.03751e-15
-3.31887e-15
3.14687e-15
-3.46055e-15
3.2532e-15
-3.59188e-15
3.34986e-15
-3.70239e-15
3.42935e-15
-3.78144e-15
3.4838e-15
-3.81914e-15
3.5057e-15
-3.80734e-15
3.48852e-15
-3.74034e-15
3.42736e-15
-3.61547e-15
3.31935e-15
-3.43326e-15
3.16399e-15
-3.19743e-15
2.96323e-15
-2.91444e-15
2.7213e-15
-2.59296e-15
2.44441e-15
-2.24301e-15
2.14025e-15
-1.87517e-15
1.81741e-15
-1.49973e-15
1.48473e-15
-1.12592e-15
1.15062e-15
-7.61327e-16
8.22555e-16
-4.115e-16
5.0653e-16
-7.98098e-17
2.06773e-16
2.32473e-16
-7.44274e-17
5.259e-16
-3.36712e-16
8.02412e-16
-5.81478e-16
1.06483e-15
-8.11549e-16
1.31628e-15
-1.0307e-15
1.55968e-15
-1.24308e-15
1.79719e-15
-1.45247e-15
2.02975e-15
-1.66163e-15
2.25669e-15
-1.8716e-15
2.47553e-15
-2.0812e-15
2.68185e-15
-2.28678e-15
2.86948e-15
-2.48228e-15
3.03092e-15
-2.65963e-15
3.15794e-15
-2.8096e-15
3.24255e-15
-2.92286e-15
3.27805e-15
-2.99132e-15
3.26014e-15
-3.00939e-15
3.18786e-15
-2.97501e-15
3.06412e-15
-2.89012e-15
2.89559e-15
-2.76045e-15
2.69201e-15
-2.59472e-15
2.46499e-15
-2.40348e-15
2.22673e-15
-2.19784e-15
1.9888e-15
-1.98851e-15
1.76138e-15
-1.78508e-15
1.55271e-15
-1.59547e-15
1.36863e-15
-1.42542e-15
1.21218e-15
-1.27795e-15
1.08317e-15
-1.15285e-15
9.78069e-16
-1.04677e-15
8.90003e-16
-9.54064e-16
8.09958e-16
-8.66142e-16
7.31228e-16
-7.71348e-16
6.44084e-16
-6.76764e-16
5.0876e-16
-6.0985e-16
3.49715e-16
-3.71541e-16
5.83693e-16
4.73573e-16
8.59628e-16
-7.23634e-16
-5.22742e-15
-1.27538e-14
-1.90613e-14
-4.46896e-15
6.43479e-14
2.36218e-13
5.06224e-13
6.84682e-13
7.7812e-14
-2.91599e-12
-1.11253e-11
-2.77633e-11
-5.20523e-11
-6.55359e-11
2.27386e-12
3.50967e-10
1.4681e-09
4.43715e-09
1.15043e-08
2.70773e-08
5.9421e-08
1.23437e-07
2.45089e-07
4.68236e-07
8.64936e-07
1.55058e-06
2.70561e-06
4.60604e-06
7.66533e-06
1.24909e-05
1.99585e-05
3.13087e-05
4.82694e-05
7.32081e-05
0.000109319
0.000160844
0.000233342
0.000333985
0.000471906
0.000658578
0.00090822
0.00123824
0.00166965
0.00222754
0.00294146
0.00384581
0.0049801
0.00638924
0.00812353
0.0102387
0.0127957
0.0158602
0.0195021
0.0237949
0.0288145
0.034638
0.0413426
0.049004
0.0576946
0.0674823
0.0784282
0.0905852
0.103996
0.118693
0.134695
0.152006
0.170618
0.190504
0.211624
0.233922
0.257327
0.281753
0.3071
0.33326
0.360109
0.387519
0.415355
0.443475
0.471737
0.5
0.528122
0.555968
0.583407
0.610317
0.636585
0.662107
0.686791
0.710558
0.733341
0.755084
0.775746
0.795297
0.813718
0.831002
0.847155
0.862187
0.876122
0.888988
0.900821
0.911662
0.921556
0.930552
0.938701
0.946056
0.95267
0.958595
0.963886
0.968593
0.972766
0.976453
0.9797
0.982549
0.985041
0.987213
0.989101
0.990736
0.992148
0.993363
0.994405
0.995296
0.996056
0.996702
0.99725
0.997713
0.998102
0.998429
0.998702
0.998929
0.999117
0.999271
0.999395
0.999492
0.999564
0.999612
0.999636
0.999634
0.999602
0.999533
0.999422
0.999257
0.999024
0.998708
0.998288
0.997739
0.997032
0.996133
0.995003
0.993598
0.991866
0.989753
0.987198
0.984135
0.980494
0.976202
0.971183
0.96536
0.958656
0.950995
0.942305
0.932517
0.921571
0.909414
0.896003
0.881306
0.865305
0.847993
0.829382
0.809496
0.788376
0.766078
0.742673
0.718247
0.6929
0.66674
0.639891
0.612481
0.584645
0.556525
0.528263
0.5
0.471878
0.444032
0.416593
0.389683
0.363415
0.337893
0.313209
0.289442
0.266659
0.244916
0.224254
0.204703
0.186282
0.168998
0.152845
0.137813
0.123878
0.111012
0.0991788
0.0883379
0.0784438
0.0694477
0.0612987
0.053944
0.0473305
0.0414047
0.0361141
0.0314071
0.027234
0.0235469
0.0203002
0.0174511
0.0149591
0.0127866
0.0108989
0.00926393
0.00785234
0.00663747
0.00559517
0.00470371
0.00394358
0.00329742
0.00274977
0.002287
0.00189711
0.00156958
0.00129522
0.00106607
0.000875215
0.000716704
0.000585421
0.000476988
0.000387674
0.000314306
0.000254198
0.000205085
0.000165062
0.000132531
0.000106158
8.48315e-05
6.76307e-05
5.37919e-05
4.26859e-05
3.37951e-05
2.66951e-05
2.1039e-05
1.6544e-05
1.29804e-05
1.01618e-05
7.93773e-06
6.1869e-06
4.81179e-06
3.73425e-06
2.89182e-06
2.23468e-06
1.72323e-06
1.32605e-06
1.0183e-06
7.80353e-07
5.96783e-07
4.55466e-07
3.4691e-07
2.63696e-07
2.00044e-07
1.51456e-07
1.14443e-07
8.63069e-08
6.49617e-08
4.88013e-08
3.6591e-08
2.73836e-08
2.04543e-08
1.52498e-08
1.13484e-08
8.42944e-09
6.24977e-09
4.62526e-09
3.4168e-09
2.51953e-09
1.85456e-09
1.36266e-09
9.99466e-10
7.31786e-10
5.34863e-10
3.90254e-10
2.84252e-10
2.06688e-10
1.50034e-10
1.08725e-10
7.86572e-11
5.68098e-11
4.09626e-11
2.94873e-11
2.1192e-11
1.52055e-11
1.08925e-11
7.79037e-12
5.5628e-12
3.96587e-12
2.82292e-12
2.00622e-12
1.42357e-12
1.00858e-12
7.13459e-13
5.03924e-13
3.55385e-13
2.50252e-13
1.75955e-13
1.23532e-13
8.65983e-14
6.06176e-14
4.23693e-14
2.95712e-14
2.06091e-14
1.43423e-14
9.96689e-15
6.9164e-15
4.79275e-15
3.31649e-15
2.29173e-15
1.5814e-15
1.08974e-15
7.49897e-16
5.15332e-16
3.53657e-16
2.42376e-16
1.65887e-16
1.13384e-16
7.73954e-17
5.27599e-17
3.59187e-17
2.44213e-17
1.65826e-17
1.12453e-17
7.61613e-18
5.15158e-18
3.48011e-18
2.34799e-18
1.58217e-18
1.06479e-18
7.15707e-19
4.80472e-19
3.22156e-19
2.1574e-19
1.443e-19
9.63997e-20
6.43222e-20
4.28672e-20
2.85345e-20
1.89714e-20
1.25985e-20
8.35649e-21
5.53634e-21
3.66367e-21
2.42163e-21
1.59882e-21
1.05437e-21
6.94536e-22
4.56986e-22
3.00346e-22
1.97175e-22
1.293e-22
8.46961e-23
5.54176e-23
3.62206e-23
2.36476e-23
1.54222e-23
1.0047e-23
6.53821e-24
4.25026e-24
2.75999e-24
1.79036e-24
1.16015e-24
7.50984e-25
4.85617e-25
3.13693e-25
2.02426e-25
1.30491e-25
8.40325e-26
5.40596e-26
3.47421e-26
2.23049e-26
1.43057e-26
9.16605e-27
5.86709e-27
3.75174e-27
2.3967e-27
1.52957e-27
9.75211e-28
6.21163e-28
3.95269e-28
2.51282e-28
1.59593e-28
1.01263e-28
6.41909e-29
4.06524e-29
2.57212e-29
1.62588e-29
1.02678e-29
6.4784e-30
4.08371e-30
2.57183e-30
1.6182e-30
1.01724e-30
6.38886e-31
4.00894e-31
2.51331e-31
1.57424e-31
9.85171e-32
6.15979e-32
3.84801e-32
2.40173e-32
1.49772e-32
9.3317e-33
5.80916e-33
3.61318e-33
2.2454e-33
1.39419e-33
8.6494e-34
5.36133e-34
3.32055e-34
2.05463e-34
1.27065e-34
7.84514e-35
4.85009e-35
2.97898e-35
1.8559e-35
1.10998e-35
7.36265e-36
3.65797e-36
)
;

boundaryField
{
    sides
    {
        type            zeroGradient;
    }
    empty
    {
        type            empty;
    }
}


// ************************************************************************* //
