/*--------------------------------*- C++ -*----------------------------------*\
  =========                 |
  \\      /  F ield         | OpenFOAM: The Open Source CFD Toolbox
   \\    /   O peration     | Website:  https://openfoam.org
    \\  /    A nd           | Version:  6
     \\/     M anipulation  |
\*---------------------------------------------------------------------------*/
FoamFile
{
    version     2.0;
    format      ascii;
    class       volVectorField;
    location    "13.3";
    object      U;
}
// * * * * * * * * * * * * * * * * * * * * * * * * * * * * * * * * * * * * * //

dimensions      [0 1 -1 0 0 0 0];

internalField   nonuniform List<vector> 
8800
(
(0.987172 -0.0766488 0)
(1.00181 -0.0551565 0)
(0.999712 -0.0285252 0)
(1.00003 -0.0152007 0)
(1.00002 -0.00860594 0)
(1.00006 -0.00503842 0)
(1.00009 -0.00292205 0)
(1.0001 -0.00162531 0)
(1.00009 -0.000764381 0)
(1.00004 -0.000120783 0)
(1.00008 0.000509957 0)
(1.0001 0.00125082 0)
(1.00011 0.00227987 0)
(1.00006 0.00390171 0)
(1.00005 0.00663289 0)
(1.00002 0.01142 0)
(0.999957 0.0208065 0)
(0.99909 0.0386049 0)
(1.00703 0.0724257 0)
(0.771212 0.0366505 0)
(0.36328 -0.0159933 0)
(1.04351 -0.0767208 0)
(1.08482 -0.0703466 0)
(1.04545 -0.0532078 0)
(1.0232 -0.0383727 0)
(1.01178 -0.0257519 0)
(1.00634 -0.0165418 0)
(1.00349 -0.010168 0)
(1.00199 -0.00570119 0)
(1.00128 -0.00218149 0)
(1.00117 0.00100966 0)
(1.00155 0.00428544 0)
(1.00259 0.00815508 0)
(1.00467 0.0133703 0)
(1.00859 0.0210195 0)
(1.01643 0.0318816 0)
(1.0327 0.0458997 0)
(1.06308 0.0613444 0)
(1.09206 0.0758877 0)
(0.839091 0.0564755 0)
(0.217544 -0.00236542 0)
(1.07625 -0.049508 0)
(1.09986 -0.0477082 0)
(1.06473 -0.0402078 0)
(1.04 -0.0333716 0)
(1.02323 -0.0255647 0)
(1.01315 -0.0180484 0)
(1.0077 -0.0114666 0)
(1.00506 -0.00580463 0)
(1.0041 -0.00077105 0)
(1.00435 0.00403203 0)
(1.00597 0.00924739 0)
(1.00981 0.0152365 0)
(1.01724 0.022177 0)
(1.03051 0.0299395 0)
(1.05092 0.0372278 0)
(1.08061 0.0437398 0)
(1.10657 0.0503683 0)
(0.943944 0.0410723 0)
(0.217239 0.00237817 0)
(0.176591 -0.000734893 0)
(1.01939 -0.0346616 0)
(1.10544 -0.0399775 0)
(1.07784 -0.0342384 0)
(1.0529 -0.0283389 0)
(1.03551 -0.0231251 0)
(1.02329 -0.0178792 0)
(1.01538 -0.0123241 0)
(1.01075 -0.00675116 0)
(1.00886 -0.000843035 0)
(1.00936 0.00511659 0)
(1.01248 0.0106415 0)
(1.01852 0.0160438 0)
(1.02844 0.0213353 0)
(1.04301 0.0262534 0)
(1.06371 0.0316992 0)
(1.09383 0.0379735 0)
(1.09496 0.0404501 0)
(0.83103 0.0221607 0)
(0.176083 0.00075001 0)
(0.156687 -0.000493235 0)
(0.960961 -0.023591 0)
(1.1048 -0.0325536 0)
(1.08811 -0.0301398 0)
(1.06152 -0.0256385 0)
(1.04383 -0.0210416 0)
(1.03141 -0.0164135 0)
(1.02259 -0.0115391 0)
(1.0168 -0.00629929 0)
(1.01406 -0.000582795 0)
(1.01483 0.00514674 0)
(1.01895 0.0104455 0)
(1.02614 0.0153204 0)
(1.0365 0.019844 0)
(1.0511 0.0242102 0)
(1.07273 0.0286555 0)
(1.10178 0.0326018 0)
(1.07197 0.0310652 0)
(0.748708 0.0129349 0)
(0.155935 0.000510403 0)
(0.144006 -0.000329402 0)
(0.909573 -0.0163856 0)
(1.09738 -0.0258105 0)
(1.09437 -0.0249267 0)
(1.06733 -0.0222641 0)
(1.04824 -0.019026 0)
(1.03527 -0.0149164 0)
(1.02648 -0.0103706 0)
(1.02084 -0.00548848 0)
(1.01812 -0.000197088 0)
(1.01879 0.00508951 0)
(1.02267 0.00997526 0)
(1.0296 0.0143682 0)
(1.04014 0.0184458 0)
(1.05588 0.0219586 0)
(1.07869 0.0244662 0)
(1.10327 0.0266233 0)
(1.04384 0.023688 0)
(0.689847 0.00820498 0)
(0.142958 0.000349386 0)
(0.136243 -0.000175298 0)
(0.870065 -0.00942909 0)
(1.08748 -0.0180675 0)
(1.09864 -0.0186076 0)
(1.07222 -0.0166546 0)
(1.05324 -0.0145048 0)
(1.03982 -0.0121156 0)
(1.03033 -0.00894621 0)
(1.02421 -0.00485965 0)
(1.02133 0.000153904 0)
(1.02192 0.00534416 0)
(1.026 0.0095888 0)
(1.03347 0.0129143 0)
(1.04458 0.0152481 0)
(1.06028 0.0170782 0)
(1.08317 0.0189351 0)
(1.10292 0.0198563 0)
(1.01669 0.0156264 0)
(0.651399 0.00433817 0)
(0.134832 0.000199415 0)
(0.133028 -1.99818e-05 0)
(0.84475 -0.00419168 0)
(1.07496 -0.01068 0)
(1.09914 -0.0124703 0)
(1.07523 -0.0118478 0)
(1.05629 -0.0108328 0)
(1.04372 -0.00918714 0)
(1.03516 -0.00672795 0)
(1.02951 -0.00345338 0)
(1.02675 0.000718401 0)
(1.02713 0.00498128 0)
(1.03074 0.0084037 0)
(1.03728 0.0107885 0)
(1.04726 0.012336 0)
(1.06258 0.0132139 0)
(1.08523 0.0136627 0)
(1.09844 0.0132432 0)
(0.99341 0.0085448 0)
(0.630921 0.00178245 0)
(0.131184 4.80272e-05 0)
(0.132417 2.98404e-05 0)
(0.830266 -0.00201221 0)
(1.06387 -0.00674097 0)
(1.09718 -0.00906616 0)
(1.07546 -0.00964494 0)
(1.05716 -0.00908866 0)
(1.04483 -0.00787943 0)
(1.03659 -0.00579206 0)
(1.0312 -0.00267615 0)
(1.0285 0.00129464 0)
(1.02868 0.00529025 0)
(1.03192 0.00847514 0)
(1.03808 0.0105344 0)
(1.04778 0.0116404 0)
(1.0624 0.0120325 0)
(1.0842 0.0113123 0)
(1.09222 0.00973713 0)
(0.976399 0.00527662 0)
(0.620437 0.0008858 0)
(0.13003 5.13127e-06 0)
(0.132444 2.38819e-05 0)
(0.820056 -0.00136191 0)
(1.05281 -0.00578587 0)
(1.09359 -0.00929686 0)
(1.07533 -0.0101547 0)
(1.05885 -0.0101241 0)
(1.04784 -0.00857575 0)
(1.04045 -0.00606235 0)
(1.0355 -0.002512 0)
(1.03274 0.00186222 0)
(1.03274 0.00616426 0)
(1.03546 0.00963688 0)
(1.0407 0.011996 0)
(1.04907 0.0132735 0)
(1.06212 0.0131689 0)
(1.0819 0.0124643 0)
(1.08402 0.00970812 0)
(0.961666 0.00443424 0)
(0.613212 0.000741101 0)
(0.129391 1.95699e-05 0)
(0.132498 1.87049e-05 0)
(0.81189 -0.000794059 0)
(1.03969 -0.00476514 0)
(1.08668 -0.00971617 0)
(1.07421 -0.0120506 0)
(1.06016 -0.0118475 0)
(1.05029 -0.010131 0)
(1.04358 -0.0069513 0)
(1.03886 -0.002655 0)
(1.03599 0.00252952 0)
(1.03573 0.00771361 0)
(1.03802 0.0118102 0)
(1.04258 0.0146111 0)
(1.04997 0.0161065 0)
(1.06093 0.0160659 0)
(1.07701 0.014304 0)
(1.07146 0.00960207 0)
(0.947145 0.00367839 0)
(0.607289 0.000648133 0)
(0.128611 3.39806e-05 0)
(0.132743 2.84382e-05 0)
(0.806743 -0.00011559 0)
(1.02729 -0.00275626 0)
(1.07697 -0.00745815 0)
(1.07208 -0.010803 0)
(1.06128 -0.0111817 0)
(1.05379 -0.00936438 0)
(1.04791 -0.00610162 0)
(1.04338 -0.00172332 0)
(1.04043 0.00358922 0)
(1.03979 0.00882483 0)
(1.04154 0.0127716 0)
(1.04518 0.0154022 0)
(1.0507 0.0165321 0)
(1.05955 0.0162496 0)
(1.06869 0.0130801 0)
(1.05688 0.00769789 0)
(0.93498 0.0026539 0)
(0.602878 0.000527464 0)
(0.12783 3.71809e-05 0)
(0.133321 4.97657e-05 0)
(0.804876 0.000479164 0)
(1.01913 -0.000685005 0)
(1.06853 -0.00361305 0)
(1.06811 -0.0060984 0)
(1.06219 -0.00685311 0)
(1.05662 -0.00578529 0)
(1.05166 -0.00323884 0)
(1.04744 0.000487228 0)
(1.04437 0.00508884 0)
(1.04327 0.00945633 0)
(1.04425 0.0125841 0)
(1.04689 0.0141642 0)
(1.05074 0.0143809 0)
(1.05571 0.0129494 0)
(1.05983 0.00974201 0)
(1.04472 0.00538926 0)
(0.92653 0.00191968 0)
(0.599651 0.000480167 0)
(0.127088 4.00421e-05 0)
(0.134207 6.08045e-05 0)
(0.805302 0.000840364 0)
(1.01552 0.000796896 0)
(1.06365 -0.000442112 0)
(1.06561 -0.00169692 0)
(1.06235 -0.00207945 0)
(1.05854 -0.00133066 0)
(1.05457 0.000550733 0)
(1.05073 0.00341696 0)
(1.04748 0.00693298 0)
(1.04576 0.0100191 0)
(1.04592 0.0117994 0)
(1.04724 0.0122751 0)
(1.04933 0.0115497 0)
(1.0517 0.00971813 0)
(1.05289 0.007014 0)
(1.03643 0.00396182 0)
(0.920935 0.0016713 0)
(0.59689 0.000529606 0)
(0.126301 4.84535e-05 0)
(0.135354 7.56835e-05 0)
(0.807405 0.00119583 0)
(1.01515 0.00183549 0)
(1.06192 0.00175575 0)
(1.06475 0.00157453 0)
(1.0628 0.00181456 0)
(1.06007 0.0026977 0)
(1.05679 0.00430955 0)
(1.0532 0.0065625 0)
(1.04969 0.00913059 0)
(1.04728 0.0111064 0)
(1.04634 0.0118986 0)
(1.0465 0.0113334 0)
(1.04717 0.00995959 0)
(1.04795 0.00802407 0)
(1.04765 0.00576148 0)
(1.03078 0.00351917 0)
(0.91665 0.00178534 0)
(0.593963 0.00065197 0)
(0.125339 6.24631e-05 0)
(0.1368 9.54208e-05 0)
(0.810711 0.00154802 0)
(1.01661 0.00267271 0)
(1.06246 0.00340728 0)
(1.06542 0.00400958 0)
(1.06397 0.00488465 0)
(1.06169 0.00615486 0)
(1.05869 0.00785247 0)
(1.05508 0.00984719 0)
(1.05113 0.0117799 0)
(1.04786 0.0128481 0)
(1.04593 0.0125931 0)
(1.04494 0.0115055 0)
(1.04457 0.00974429 0)
(1.04443 0.00771893 0)
(1.0434 0.00565292 0)
(1.02633 0.00372887 0)
(0.912571 0.00211605 0)
(0.590476 0.000823087 0)
(0.124115 8.05434e-05 0)
(0.138629 0.000120644 0)
(0.815197 0.00197936 0)
(1.01963 0.00354788 0)
(1.06451 0.00484967 0)
(1.06746 0.00610233 0)
(1.06605 0.00758435 0)
(1.06376 0.00939519 0)
(1.06063 0.0114185 0)
(1.05668 0.013449 0)
(1.05203 0.0150377 0)
(1.04774 0.0154438 0)
(1.04474 0.0145184 0)
(1.04281 0.0127847 0)
(1.04162 0.0106584 0)
(1.04085 0.00844476 0)
(1.0394 0.00632092 0)
(1.02207 0.00436858 0)
(0.908031 0.00261043 0)
(0.586145 0.00104295 0)
(0.122556 0.000103309 0)
(0.140961 0.000154046 0)
(0.821086 0.00252548 0)
(1.02402 0.00456857 0)
(1.06797 0.00634339 0)
(1.07074 0.00816783 0)
(1.06915 0.0103749 0)
(1.06654 0.0128821 0)
(1.06293 0.0154049 0)
(1.05827 0.0176529 0)
(1.05259 0.0191038 0)
(1.04707 0.0189943 0)
(1.04292 0.0174338 0)
(1.04007 0.0151027 0)
(1.03817 0.0125137 0)
(1.03691 0.0099669 0)
(1.03512 0.00758336 0)
(1.01739 0.00536832 0)
(0.902574 0.00327421 0)
(0.580691 0.0013223 0)
(0.120585 0.000132202 0)
(0.143963 0.000198565 0)
(0.828735 0.00323401 0)
(1.03006 0.00584655 0)
(1.07302 0.00813867 0)
(1.0754 0.0105962 0)
(1.07335 0.0136045 0)
(1.07014 0.0168787 0)
(1.0658 0.0200941 0)
(1.06008 0.0227805 0)
(1.05299 0.024227 0)
(1.04593 0.0236589 0)
(1.04049 0.0214275 0)
(1.03665 0.0184128 0)
(1.03403 0.0152272 0)
(1.03228 0.0121958 0)
(1.03016 0.00939686 0)
(1.01187 0.0067505 0)
(0.895836 0.00414643 0)
(0.573811 0.00167199 0)
(0.118114 0.000167834 0)
(0.147892 0.000259455 0)
(0.838676 0.00416481 0)
(1.03793 0.00753796 0)
(1.07968 0.0104975 0)
(1.08151 0.0137104 0)
(1.07882 0.0176524 0)
(1.07487 0.0218996 0)
(1.06943 0.0259597 0)
(1.06225 0.0291837 0)
(1.0533 0.0306797 0)
(1.04434 0.0296231 0)
(1.03736 0.0266122 0)
(1.0324 0.0227572 0)
(1.02898 0.0187951 0)
(1.02668 0.0151077 0)
(1.02415 0.0117528 0)
(1.00517 0.00854575 0)
(0.887592 0.00526083 0)
(0.565224 0.00209576 0)
(0.11504 0.000207862 0)
(0.15311 0.000351487 0)
(0.851626 0.00550731 0)
(1.04798 0.00990927 0)
(1.08817 0.0136783 0)
(1.08936 0.0178983 0)
(1.08588 0.0229768 0)
(1.08083 0.0283727 0)
(1.07388 0.0333719 0)
(1.06474 0.0371939 0)
(1.05343 0.0387512 0)
(1.04215 0.0371049 0)
(1.03336 0.0331389 0)
(1.0271 0.02824 0)
(1.02277 0.0232803 0)
(1.01982 0.0187208 0)
(1.01681 0.0146303 0)
(0.996983 0.0107046 0)
(0.87743 0.00659394 0)
(0.554639 0.00263563 0)
(0.111228 0.000257722 0)
(0.160148 0.000491698 0)
(0.868606 0.0075074 0)
(1.061 0.0132668 0)
(1.09915 0.0180691 0)
(1.09936 0.0235685 0)
(1.09471 0.0300666 0)
(1.08805 0.0367501 0)
(1.07901 0.0428153 0)
(1.06736 0.0473009 0)
(1.05316 0.0488344 0)
(1.03912 0.0464068 0)
(1.02821 0.0412558 0)
(1.02044 0.0350779 0)
(1.01506 0.028879 0)
(1.01137 0.0232039 0)
(1.00781 0.0181684 0)
(0.986956 0.0133617 0)
(0.864733 0.00826891 0)
(0.541469 0.00328413 0)
(0.10654 0.000321371 0)
(0.169774 0.00070476 0)
(0.890851 0.0104994 0)
(1.07785 0.0180383 0)
(1.1134 0.0242399 0)
(1.11218 0.0314747 0)
(1.10578 0.0396984 0)
(1.09682 0.0479047 0)
(1.08498 0.055146 0)
(1.07007 0.0601761 0)
(1.0523 0.0614242 0)
(1.03501 0.0578981 0)
(1.02165 0.0512734 0)
(1.01212 0.0435606 0)
(1.00548 0.0358825 0)
(1.00092 0.0288538 0)
(0.996693 0.0226474 0)
(0.974538 0.0167564 0)
(0.849098 0.0104339 0)
(0.525151 0.00411269 0)
(0.100799 0.000397276 0)
(0.183265 0.00105252 0)
(0.920258 0.0150185 0)
(1.09986 0.0247919 0)
(1.13207 0.0328901 0)
(1.12864 0.0423947 0)
(1.11969 0.0527831 0)
(1.10755 0.0627697 0)
(1.09193 0.0711371 0)
(1.07284 0.076441 0)
(1.05074 0.0769884 0)
(1.02966 0.0719251 0)
(1.01348 0.0634757 0)
(1.00189 0.0539524 0)
(0.993722 0.0445547 0)
(0.988039 0.0359476 0)
(0.982918 0.0283348 0)
(0.959112 0.0211316 0)
(0.829746 0.0132475 0)
(0.505188 0.00519174 0)
(0.0938346 0.000488984 0)
(0.202932 0.00170626 0)
(0.960367 0.0224694 0)
(1.12902 0.035398 0)
(1.15642 0.0462296 0)
(1.14931 0.0585351 0)
(1.13649 0.0712779 0)
(1.11984 0.0828034 0)
(1.09933 0.0917859 0)
(1.07521 0.0967509 0)
(1.04813 0.0959498 0)
(1.02281 0.0888054 0)
(1.00349 0.0781638 0)
(0.989541 0.0665751 0)
(0.979532 0.0552427 0)
(0.972396 0.044852 0)
(0.965996 0.0356023 0)
(0.939993 0.0268501 0)
(0.805687 0.0169598 0)
(0.480666 0.00661975 0)
(0.0853786 0.000608781 0)
(0.232193 0.00317468 0)
(1.01694 0.0360142 0)
(1.16805 0.0536591 0)
(1.1874 0.0678406 0)
(1.17416 0.082961 0)
(1.15538 0.0975446 0)
(1.1327 0.109705 0)
(1.10622 0.118238 0)
(1.07636 0.12176 0)
(1.04384 0.118655 0)
(1.01404 0.108779 0)
(0.991374 0.0956027 0)
(0.974844 0.0817846 0)
(0.962724 0.068436 0)
(0.953769 0.0561665 0)
(0.945573 0.0451543 0)
(0.916417 0.0346884 0)
(0.775612 0.0221988 0)
(0.450842 0.00863222 0)
(0.0756288 0.00073915 0)
(0.273207 0.0101052 -1.69783e-21)
(1.09211 0.0636541 -1.18017e-21)
(1.21525 0.0855553 2.70647e-22)
(1.22259 0.103381 0)
(1.2009 0.119699 -5.51109e-36)
(1.17455 0.13401 1.10321e-22)
(1.14476 0.145078 -3.78788e-22)
(1.11163 0.151781 0)
(1.0755 0.152814 1.17872e-35)
(1.03705 0.146679 -8.48455e-22)
(1.00225 0.133723 0)
(0.97572 0.117949 -1.17561e-21)
(0.956037 0.101997 -3.57677e-21)
(0.941138 0.0868463 -1.72551e-21)
(0.929574 0.0731196 -5.40415e-22)
(0.918487 0.0607976 -3.27012e-22)
(0.885659 0.0490907 0)
(0.736599 0.0330853 2.36007e-22)
(0.41402 0.0154696 2.80996e-22)
(0.0662583 0.0023286 5.0474e-21)
(0.298152 0.0269974 -3.9964e-21)
(1.15201 0.109319 1.0393e-22)
(1.25777 0.134325 -1.88722e-22)
(1.25451 0.152485 0)
(1.22494 0.167077 8.82488e-23)
(1.19124 0.179593 -1.30192e-22)
(1.15443 0.188738 -2.95172e-22)
(1.11454 0.193339 -1.65129e-21)
(1.07183 0.192032 0)
(1.02672 0.183212 3.59297e-21)
(0.985736 0.167653 3.89309e-21)
(0.953989 0.149865 1.23519e-21)
(0.92979 0.132445 4.82038e-21)
(0.910806 0.116203 7.06162e-21)
(0.895342 0.101565 0)
(0.88008 0.0889033 1.04732e-20)
(0.841719 0.0763304 1.53729e-20)
(0.694662 0.0565045 1.72766e-20)
(0.389533 0.0323057 -2.00814e-20)
(0.0633573 0.00548786 -3.73219e-22)
(0.293022 0.0442267 0)
(1.18645 0.168026 -1.28609e-21)
(1.28985 0.195798 0)
(1.27953 0.211557 1.76867e-21)
(1.24367 0.222528 0)
(1.20358 0.231544 4.19883e-22)
(1.16048 0.23741 4.55446e-22)
(1.11446 0.23884 -2.70661e-21)
(1.06569 0.234459 -3.09226e-22)
(1.01449 0.2226 1.76219e-21)
(0.967968 0.204484 8.98046e-21)
(0.93168 0.18508 -5.40819e-23)
(0.903655 0.166893 -3.60283e-21)
(0.881282 0.150513 -6.93802e-21)
(0.862775 0.136277 8.41231e-21)
(0.844946 0.124108 -1.51208e-20)
(0.807717 0.112078 -2.07489e-21)
(0.677386 0.089092 0)
(0.396799 0.0544073 4.54044e-23)
(0.0710103 0.01025 0)
(0.282315 0.0584968 -3.38312e-20)
(1.20199 0.230051 1.36261e-20)
(1.31003 0.262178 7.00357e-21)
(1.29592 0.275295 -1.23557e-21)
(1.25574 0.282299 1.85604e-21)
(1.21093 0.287257 -1.24572e-21)
(1.16284 0.289176 7.80061e-22)
(1.1116 0.286929 0)
(1.05755 0.278987 -7.29988e-21)
(1.00107 0.263811 0)
(0.949812 0.243068 -4.59392e-21)
(0.90989 0.222095 -6.33532e-21)
(0.879147 0.203284 -4.01497e-21)
(0.85473 0.186983 -5.14406e-21)
(0.834775 0.173232 0)
(0.81636 0.161812 0)
(0.782185 0.150073 -1.38555e-20)
(0.666259 0.124845 2.77778e-21)
(0.402351 0.077904 -1.6326e-21)
(0.0760836 0.0151819 -1.93429e-21)
(0.272127 0.0712049 2.54168e-20)
(1.20545 0.291384 0)
(1.3209 0.329201 -1.99478e-20)
(1.30451 0.340012 -4.82872e-21)
(1.26129 0.34327 -3.34462e-21)
(1.21307 0.344247 0)
(1.1612 0.342281 1.03747e-22)
(1.10588 0.336188 2.6002e-21)
(1.04751 0.324562 3.31956e-21)
(0.986609 0.305848 8.74e-21)
(0.931612 0.282239 0)
(0.889066 0.259481 -1.37404e-20)
(0.856597 0.239798 -8.71402e-21)
(0.831115 0.22322 -5.23702e-21)
(0.810569 0.209581 3.40842e-20)
(0.792249 0.198488 4.17499e-21)
(0.761092 0.186705 2.00062e-20)
(0.654318 0.158466 -9.70613e-20)
(0.401083 0.099196 5.80599e-20)
(0.0774955 0.019532 -7.09624e-20)
(0.263388 0.082532 2.71265e-20)
(1.20141 0.350185 -4.89396e-21)
(1.32472 0.3949 3.5768e-21)
(1.30706 0.403878 9.43667e-21)
(1.26171 0.403684 5.4967e-21)
(1.21101 0.400939 3.28538e-22)
(1.15613 0.395336 -2.10141e-22)
(1.0975 0.385516 2.22091e-21)
(1.03559 0.370211 -7.21875e-21)
(0.971002 0.347816 0)
(0.912786 0.321141 -5.94213e-21)
(0.868097 0.296309 -2.96e-22)
(0.834399 0.275323 -9.7058e-21)
(0.808311 0.257996 0)
(0.787637 0.243934 -7.41642e-21)
(0.769798 0.232548 -1.8013e-20)
(0.741024 0.220044 4.98298e-20)
(0.640132 0.188099 -4.99038e-20)
(0.394855 0.117494 7.13609e-20)
(0.0767471 0.0231455 -7.52008e-20)
(0.256417 0.0930302 -1.15732e-22)
(1.19279 0.405942 6.06974e-21)
(1.32344 0.458301 1.73449e-20)
(1.30506 0.465947 -5.89806e-21)
(1.25812 0.462593 3.18674e-21)
(1.20541 0.456473 0)
(1.14818 0.447425 9.64257e-22)
(1.08681 0.434134 -1.9928e-21)
(1.02182 0.415241 -3.4097e-21)
(0.954008 0.389208 0)
(0.893103 0.359258 -5.84028e-21)
(0.846772 0.331988 -8.04563e-21)
(0.812252 0.309231 1.05866e-20)
(0.785939 0.290646 -6.73472e-21)
(0.765435 0.275677 -3.25518e-20)
(0.748147 0.263578 1.99797e-20)
(0.720971 0.249921 6.3134e-21)
(0.623896 0.214107 0)
(0.385346 0.133029 -6.9099e-20)
(0.0747971 0.0261217 -2.568e-21)
(0.251062 0.103033 4.49962e-21)
(1.18163 0.458501 -7.02705e-21)
(1.31821 0.518936 -9.50249e-21)
(1.29953 0.525619 -1.80627e-20)
(1.25146 0.519458 1.58407e-20)
(1.19723 0.510294 -7.74435e-21)
(1.13809 0.498064 -2.02978e-21)
(1.07438 0.481551 -3.0158e-21)
(1.00672 0.459313 2.99998e-21)
(0.936162 0.429703 -2.12523e-20)
(0.872914 0.39634 -7.08261e-21)
(0.825086 0.366292 0)
(0.789876 0.341358 1.15512e-20)
(0.763425 0.321105 1.42238e-20)
(0.743159 0.304866 1.74664e-20)
(0.726422 0.29169 -2.17621e-20)
(0.700344 0.276568 -6.55873e-21)
(0.605974 0.236808 7.82178e-21)
(0.373629 0.146158 0)
(0.0720949 0.0284787 -5.59303e-21)
(0.246978 0.112611 -5.25375e-20)
(1.16935 0.507983 3.24177e-20)
(1.31024 0.576451 1.04801e-20)
(1.29143 0.582471 -1.39251e-20)
(1.24251 0.573871 9.65052e-21)
(1.18708 0.562011 -7.73477e-22)
(1.12641 0.546943 1.8668e-21)
(1.0608 0.527488 -1.1807e-21)
(0.990811 0.502134 -6.02873e-21)
(0.917548 0.469116 2.89597e-23)
(0.85203 0.432278 -2.12352e-20)
(0.802769 0.399181 2.02933e-20)
(0.766911 0.371749 -1.28992e-20)
(0.74036 0.349478 1.59796e-20)
(0.720387 0.33164 0)
(0.704171 0.317107 -1.18085e-20)
(0.6789 0.300281 -2.66001e-22)
(0.586684 0.256533 -3.4142e-20)
(0.360242 0.157081 -5.08049e-21)
(0.0687654 0.0301473 0)
(0.243922 0.121947 0)
(1.15661 0.554574 3.5154e-20)
(1.30034 0.630857 2.46714e-20)
(1.28146 0.636389 1.58291e-20)
(1.23189 0.625624 9.16439e-21)
(1.17552 0.611407 0)
(1.11363 0.593809 2.51755e-21)
(1.04636 0.571722 -2.4975e-22)
(0.974234 0.543544 1.27592e-20)
(0.898374 0.507303 -2.64934e-21)
(0.83059 0.467028 -1.55266e-20)
(0.779867 0.430746 1.02129e-20)
(0.743274 0.400542 -3.89067e-22)
(0.716571 0.375942 1.68613e-20)
(0.696877 0.356201 1.09464e-20)
(0.681131 0.340036 -2.57032e-20)
(0.656496 0.321219 3.11416e-20)
(0.566104 0.273297 9.34733e-21)
(0.345266 0.165684 3.89331e-20)
(0.0648247 0.0311724 -1.05375e-19)
(0.241732 0.13112 -1.35779e-20)
(1.14389 0.598517 2.0425e-20)
(1.28912 0.682223 -1.56002e-20)
(1.27018 0.687343 -1.85552e-20)
(1.22014 0.674654 0)
(1.16304 0.658378 7.33332e-21)
(1.10008 0.638578 -7.01728e-21)
(1.03136 0.61415 1.59464e-21)
(0.95733 0.583469 0)
(0.879069 0.544242 -4.04027e-20)
(0.808759 0.500659 4.22302e-20)
(0.756375 0.461121 0)
(0.718852 0.427921 1.52565e-20)
(0.691877 0.400674 -3.94965e-22)
(0.672427 0.378695 -3.47298e-20)
(0.657231 0.36064 1.36649e-20)
(0.633133 0.339603 0)
(0.544033 0.287144 5.06258e-20)
(0.328648 0.171968 0)
(0.0603177 0.0315345 -5.02098e-20)
(0.240259 0.140149 1.51628e-20)
(1.13153 0.640012 2.34639e-20)
(1.27705 0.73051 -1.63278e-20)
(1.25804 0.73531 0)
(1.20765 0.720962 1.29915e-20)
(1.14999 0.702899 0)
(1.08617 0.681194 9.95549e-21)
(1.01619 0.654749 6.13847e-22)
(0.940373 0.621896 1.56534e-21)
(0.859687 0.580075 -1.99389e-20)
(0.786693 0.533354 4.13353e-21)
(0.732315 0.490461 0)
(0.693628 0.454045 -3.25073e-20)
(0.666245 0.423865 4.10595e-22)
(0.647003 0.399219 0)
(0.632398 0.379016 4.87739e-22)
(0.608602 0.355379 4.58685e-20)
(0.520351 0.298046 -4.43646e-20)
(0.310348 0.175818 1.31849e-20)
(0.0552394 0.0311654 0)
(0.239113 0.148925 0)
(1.11962 0.679169 2.63126e-20)
(1.26451 0.775776 1.93035e-20)
(1.24541 0.780375 -4.34241e-22)
(1.19478 0.764595 8.28303e-21)
(1.13671 0.744986 1.74669e-20)
(1.07219 0.721641 -3.1207e-21)
(1.00109 0.693497 -3.2546e-22)
(0.923586 0.658777 8.31561e-21)
(0.840439 0.614729 -3.11077e-20)
(0.764633 0.565132 -6.14749e-22)
(0.707865 0.518931 -1.34062e-20)
(0.667808 0.479068 5.32737e-20)
(0.639787 0.445679 -4.94956e-22)
(0.620505 0.418201 -2.7437e-20)
(0.606141 0.395385 -5.0078e-20)
(0.582429 0.368749 0)
(0.4949 0.306077 0)
(0.290305 0.177132 1.44873e-20)
(0.0496511 0.0300402 -8.57626e-21)
(0.238431 0.157593 1.89429e-20)
(1.10826 0.715867 -5.76326e-20)
(1.25173 0.818229 -2.06817e-20)
(1.23256 0.822653 0)
(1.18177 0.805616 -3.0357e-22)
(1.1234 0.784663 2.13618e-20)
(1.05833 0.759915 -1.11985e-20)
(0.986278 0.730368 -2.59279e-21)
(0.907217 0.69417 9.24888e-21)
(0.821628 0.648287 -2.41505e-20)
(0.742752 0.596187 -3.57123e-20)
(0.683217 0.54685 3.57623e-20)
(0.64136 0.50343 0)
(0.612313 0.46651 -1.23758e-20)
(0.59267 0.435809 -3.01366e-20)
(0.578362 0.409896 -3.63519e-20)
(0.554556 0.379619 -4.41967e-20)
(0.467284 0.311042 1.3277e-20)
(0.268328 0.175501 -7.827e-21)
(0.043538 0.0281241 9.77064e-23)
(0.237779 0.165937 0)
(1.09756 0.750467 0)
(1.23892 0.858017 4.96263e-22)
(1.21967 0.862251 0)
(1.16883 0.844115 -3.14791e-20)
(1.11025 0.821986 -1.91297e-20)
(1.04475 0.796052 0)
(0.971905 0.765371 -1.03796e-21)
(0.891412 0.728051 1.29136e-20)
(0.803344 0.68081 -5.53801e-20)
(0.721154 0.626742 0)
(0.658302 0.574596 -2.29076e-20)
(0.613784 0.52766 -6.09244e-22)
(0.583312 0.486721 -5.04338e-22)
(0.563258 0.452155 3.22608e-20)
(0.54899 0.422902 -7.58809e-23)
(0.524898 0.388353 -9.61901e-20)
(0.437142 0.312788 2.90154e-20)
(0.244231 0.170846 8.65443e-21)
(0.0369015 0.025384 0)
(0.237159 0.173903 -7.00647e-20)
(1.08724 0.783135 -3.54993e-20)
(1.22617 0.895261 -5.22114e-20)
(1.20692 0.899284 7.17122e-20)
(1.15608 0.880169 -5.93587e-20)
(1.09741 0.857025 0)
(1.03161 0.830106 -1.00495e-20)
(0.958091 0.798537 1.83855e-21)
(0.876293 0.760405 7.38953e-22)
(0.785842 0.71223 4.31076e-21)
(0.700137 0.656636 4.48372e-20)
(0.633528 0.602015 -7.85312e-21)
(0.585468 0.551497 -3.29391e-20)
(0.552797 0.506378 -1.47242e-20)
(0.532036 0.4677 1.79689e-20)
(0.517633 0.434073 -6.46131e-23)
(0.493056 0.394663 2.64689e-20)
(0.404314 0.311224 -6.30392e-20)
(0.217541 0.162659 7.55274e-20)
(0.0297995 0.0218094 1.10845e-20)
(0.236374 0.181478 2.57847e-20)
(1.07731 0.813929 -1.94415e-20)
(1.21364 0.930071 1.19084e-21)
(1.1944 0.93387 4.07052e-20)
(1.14365 0.913884 1.39815e-20)
(1.08497 0.889855 3.85183e-20)
(1.01901 0.86213 -4.6093e-21)
(0.944952 0.829892 9.36242e-21)
(0.861982 0.791259 -9.85936e-21)
(0.769252 0.742605 -3.05676e-20)
(0.679975 0.686017 0)
(0.609278 0.629443 -3.51993e-20)
(0.557116 0.575718 4.77884e-20)
(0.521177 0.526303 0)
(0.4989 0.482674 -3.8511e-20)
(0.484057 0.444094 2.39046e-20)
(0.458681 0.398173 -2.86591e-20)
(0.368639 0.305561 -3.46858e-20)
(0.188702 0.150925 -6.16608e-20)
(0.0224194 0.0174776 -4.87599e-20)
(0.235754 0.188735 -2.84082e-20)
(1.06764 0.842857 2.08144e-20)
(1.2014 0.962531 4.90426e-20)
(1.18219 0.966106 5.61292e-20)
(1.1316 0.945351 -2.92813e-20)
(1.07301 0.920566 2.68228e-20)
(1.007 0.892183 -1.43192e-20)
(0.932542 0.859482 1.23392e-20)
(0.848554 0.820621 -4.59044e-21)
(0.753643 0.771869 2.95577e-20)
(0.660785 0.714928 9.53859e-20)
(0.585646 0.656937 0)
(0.528976 0.600637 0)
(0.488684 0.547331 -1.70443e-20)
(0.46353 0.498088 0)
(0.447429 0.452403 5.21483e-20)
(0.421219 0.398339 6.28271e-20)
(0.330273 0.295098 0)
(0.158769 0.135634 0)
(0.0153386 0.012737 5.32926e-20)
(0.234847 0.195417 3.14043e-20)
(1.05824 0.869949 2.50887e-20)
(1.18951 0.992771 3.53097e-20)
(1.17037 0.996125 -5.02967e-20)
(1.11999 0.974681 -3.27912e-20)
(1.06157 0.94924 -3.58258e-20)
(0.99562 0.920332 2.14064e-20)
(0.920903 0.887337 1.1835e-22)
(0.836062 0.848482 -9.49547e-22)
(0.739144 0.800025 -1.24985e-21)
(0.642739 0.743237 4.8368e-20)
(0.563006 0.684575 0)
(0.501224 0.626331 4.81724e-20)
(0.455471 0.569645 3.59134e-20)
(0.425633 0.514727 9.1703e-20)
(0.406561 0.460155 2.81279e-20)
(0.378895 0.393293 -3.48814e-20)
(0.289574 0.276825 -2.06387e-20)
(0.130935 0.116142 0)
(0.00981809 0.00808185 5.817e-20)
(0.23414 0.201954 -6.927e-20)
(1.04911 0.895424 0)
(1.17799 1.02089 3.95801e-20)
(1.15896 1.02402 -4.13209e-20)
(1.10886 1.00197 3.73154e-20)
(1.05068 0.975969 5.26713e-20)
(0.984908 0.94664 -5.0247e-20)
(0.910059 0.913499 2.44136e-22)
(0.824519 0.874851 0)
(0.725807 0.827028 -2.83076e-20)
(0.626003 0.770928 -1.00577e-19)
(0.541599 0.712187 4.81454e-21)
(0.474292 0.652854 6.5327e-20)
(0.421986 0.593889 0)
(0.385249 0.534254 6.17299e-20)
(0.359781 0.468613 0)
(0.327404 0.382024 0)
(0.244446 0.242778 -2.31038e-20)
(0.118434 0.0825947 0)
(0.0244635 0.00853004 1.57481e-20)
(0.233071 0.207826 -7.58259e-20)
(1.04019 0.919392 0)
(1.16683 1.04708 6.4312e-20)
(1.14794 1.05002 0)
(1.09817 1.02748 -2.03515e-20)
(1.04028 1.00103 0)
(0.974781 0.971401 -3.82571e-21)
(0.899904 0.938291 -2.31068e-21)
(0.813825 0.900065 3.34309e-22)
(0.71349 0.853233 -2.83464e-20)
(0.610483 0.798438 2.67987e-21)
(0.521308 0.740475 3.96489e-20)
(0.448236 0.680726 6.32426e-20)
(0.38832 0.621045 9.00048e-21)
(0.34198 0.558807 4.81237e-20)
(0.304981 0.48221 0)
(0.256352 0.368682 7.61929e-20)
(0.174307 0.182163 -4.57414e-20)
(0.0594905 0.0865101 5.32898e-20)
(-0.0315265 0.402206 -6.32806e-20)
(0.231957 0.213409 6.19313e-20)
(1.03133 0.941837 9.58348e-20)
(1.15595 1.07168 0)
(1.13719 1.07453 9.59651e-22)
(1.08776 1.05173 5.54363e-20)
(1.03015 1.02505 -1.02839e-19)
(0.964986 0.995353 -2.24807e-20)
(0.890124 0.962592 0)
(0.803557 0.925178 -2.09279e-21)
(0.701685 0.879942 -9.84266e-22)
(0.59544 0.827218 0)
(0.501307 0.771112 0)
(0.421932 0.711732 5.52904e-20)
(0.353781 0.653014 -2.79382e-20)
(0.29449 0.592456 -4.76779e-20)
(0.240251 0.509687 0)
(0.143802 0.362929 3.89756e-20)
(0.0379899 0.470769 -4.67167e-20)
(0.0491402 1.76204 -2.57133e-20)
(0.0818907 2.74219 -3.13016e-20)
(0.230538 0.218379 -4.55157e-20)
(1.0226 0.962942 -1.21226e-19)
(1.14535 1.09467 3.72301e-20)
(1.12673 1.09744 3.54202e-20)
(1.0777 1.07456 0)
(1.02035 1.0478 -7.38904e-20)
(0.955685 1.01821 -3.79875e-20)
(0.88086 0.985993 1.62519e-21)
(0.793942 0.94969 -2.46863e-22)
(0.690705 0.906512 2.24407e-20)
(0.581401 0.856539 4.50083e-20)
(0.482414 0.803542 4.06027e-20)
(0.396553 0.745284 5.40671e-20)
(0.321107 0.687887 -6.33546e-20)
(0.248907 0.636732 -7.00551e-20)
(0.170762 0.55804 0)
(0.0801283 0.838694 0)
(0.129339 2.46121 2.04451e-20)
(0.137306 3.15939 0)
(0.136359 3.36896 5.15331e-20)
(0.231932 0.223089 0)
(1.0142 0.982957 0)
(1.13476 1.11595 0)
(1.11636 1.11857 9.90749e-21)
(1.06776 1.09579 4.97545e-20)
(1.01066 1.06913 -5.66771e-20)
(0.946803 1.03987 -2.73438e-20)
(0.872043 1.00837 1.88437e-21)
(0.78491 0.973453 -8.90458e-21)
(0.680539 0.932751 -2.09619e-21)
(0.56846 0.886219 8.16173e-20)
(0.464945 0.837385 -4.73735e-21)
(0.372518 0.781725 6.08201e-21)
(0.291696 0.722783 8.9817e-21)
(0.213349 0.687911 5.53563e-22)
(0.140893 0.944855 3.13353e-22)
(0.178907 2.59427 -9.85761e-20)
(0.199332 3.26883 -3.76885e-20)
(0.181195 3.42344 1.85383e-20)
(0.162684 3.44918 -1.95079e-20)
(0.153577 0.167829 2.69194e-20)
(1.0001 1.00479 0)
(1.12417 1.13572 -7.32533e-20)
(1.10657 1.13833 -9.22009e-20)
(1.05831 1.11589 1.03735e-19)
(1.00169 1.08946 6.01714e-20)
(0.938137 1.06036 3.23237e-20)
(0.86368 1.02976 -3.37146e-20)
(0.776556 0.99649 1.0646e-20)
(0.671491 0.958479 0)
(0.557175 0.915869 3.56092e-20)
(0.449719 0.871791 -3.03118e-20)
(0.350651 0.82262 0)
(0.266281 0.763057 8.05687e-21)
(0.198859 0.879374 1.96827e-20)
(0.186004 2.25524 -2.36021e-20)
(0.266863 3.30681 2.70223e-20)
(0.244579 3.44608 1.32648e-20)
(0.204162 3.47094 1.55181e-20)
(0.17715 3.48162 2.01379e-20)
(0.263908 0.256662 -5.25186e-20)
(0.978726 1.00934 0)
(1.10471 1.15689 7.58726e-20)
(1.09301 1.16805 9.6381e-20)
(1.04342 1.14542 -1.07944e-19)
(0.987172 1.1196 -6.47593e-20)
(0.923646 1.09194 -5.02106e-20)
(0.849527 1.06293 -2.49334e-21)
(0.762111 1.03256 -1.69394e-20)
(0.655471 0.99945 5.67042e-21)
(0.537267 0.964726 1.43378e-21)
(0.423744 0.929702 2.31051e-20)
(0.314683 0.897235 4.90478e-21)
(0.243762 1.00568 -6.97715e-21)
(0.273176 2.16327 -1.63261e-20)
(0.341918 3.30883 1.22268e-20)
(0.329345 3.48653 -1.10761e-20)
(0.287767 3.51067 -6.49911e-21)
(0.245784 3.53902 6.75466e-23)
(0.187542 3.53017 -3.10199e-22)
(0.252075 0.253802 0)
(0.974039 1.02852 2.01069e-20)
(1.09578 1.17722 -1.50115e-20)
(1.08288 1.18815 -1.07356e-20)
(1.03388 1.16562 -7.08114e-20)
(0.978227 1.14005 6.31746e-20)
(0.914991 1.1127 3.3875e-20)
(0.841476 1.08479 -2.64402e-21)
(0.754488 1.05636 2.15887e-20)
(0.647635 1.02659 -2.86374e-21)
(0.528032 0.99767 -4.6185e-20)
(0.41177 0.969388 3.24981e-21)
(0.305868 0.961893 -4.22319e-21)
(0.290742 1.40361 -5.64623e-21)
(0.380019 2.99578 4.01584e-21)
(0.418219 3.47977 5.08518e-22)
(0.365335 3.5555 -4.52027e-21)
(0.323459 3.57823 -8.63645e-21)
(0.265352 3.6014 1.49982e-20)
(0.201053 3.59367 6.5438e-21)
(0.23639 0.249585 4.98303e-20)
(0.967989 1.04972 1.34537e-19)
(1.08618 1.19907 -4.26719e-20)
(1.07239 1.20954 -4.06449e-20)
(1.02402 1.18691 0)
(0.968969 1.16136 9.25773e-20)
(0.906333 1.13436 5.17991e-20)
(0.833748 1.10749 -2.8095e-21)
(0.747514 1.08099 2.23089e-21)
(0.641046 1.05491 8.05241e-21)
(0.520938 1.03215 -1.45818e-20)
(0.403776 1.01186 -2.2169e-20)
(0.315973 1.06692 -2.71309e-20)
(0.370898 1.98518 2.86068e-20)
(0.478871 3.35698 1.27322e-20)
(0.472641 3.55946 0)
(0.410932 3.60748 0)
(0.364093 3.65314 1.41749e-20)
(0.287294 3.71697 0)
(0.211799 3.6826 3.27175e-20)
(0.224733 0.248996 -7.2432e-20)
(0.959657 1.07118 -1.11577e-19)
(1.07516 1.22176 0)
(1.06079 1.23151 1.07472e-21)
(1.01307 1.20852 -6.87986e-20)
(0.958795 1.18287 1.3754e-19)
(0.897132 1.15623 3.49115e-20)
(0.825754 1.13026 -3.56375e-21)
(0.740621 1.10571 2.54072e-20)
(0.635188 1.08367 -1.17882e-21)
(0.515358 1.06703 0)
(0.399985 1.05679 0)
(0.350104 1.24108 -1.90142e-20)
(0.471113 2.63728 5.25737e-21)
(0.570166 3.50311 -4.02002e-21)
(0.522207 3.60987 0)
(0.475791 3.66889 3.71746e-20)
(0.405533 3.74823 -5.66024e-20)