/*--------------------------------*- C++ -*----------------------------------*\
  =========                 |
  \\      /  F ield         | OpenFOAM: The Open Source CFD Toolbox
   \\    /   O peration     | Website:  https://openfoam.org
    \\  /    A nd           | Version:  6
     \\/     M anipulation  |
\*---------------------------------------------------------------------------*/
FoamFile
{
    version     2.0;
    format      ascii;
    class       volVectorField;
    location    "64.2";
    object      U;
}
// * * * * * * * * * * * * * * * * * * * * * * * * * * * * * * * * * * * * * //

dimensions      [0 1 -1 0 0 0 0];

internalField   nonuniform List<vector> 
8800
(
(0.987184 -0.0766664 0)
(1.00189 -0.0551923 0)
(0.999722 -0.0285511 0)
(1.00002 -0.0151468 0)
(1.00008 -0.00854962 0)
(1.0001 -0.00505425 0)
(1.00007 -0.00301026 0)
(1.00002 -0.00170939 0)
(0.999999 -0.000801894 0)
(1.00006 -8.43326e-05 0)
(0.999983 0.000646322 0)
(0.999992 0.00141299 0)
(1.00002 0.00243387 0)
(1.00005 0.0040032 0)
(1.00004 0.00663285 0)
(1.00001 0.0113707 0)
(0.9999 0.0208143 0)
(0.999151 0.0386711 0)
(1.0071 0.0724572 0)
(0.771213 0.0366612 0)
(0.363061 -0.0160181 0)
(1.0433 -0.0768209 0)
(1.08459 -0.0704553 0)
(1.04519 -0.053554 0)
(1.02327 -0.0389094 0)
(1.01201 -0.0262369 0)
(1.00641 -0.0168803 0)
(1.00359 -0.0103505 0)
(1.00215 -0.0056907 0)
(1.00145 -0.00203243 0)
(1.00131 0.00129206 0)
(1.00167 0.00467661 0)
(1.00265 0.00861191 0)
(1.00465 0.0139488 0)
(1.00859 0.0216554 0)
(1.01655 0.0326247 0)
(1.03246 0.0465394 0)
(1.06263 0.0616577 0)
(1.09187 0.0760978 0)
(0.838675 0.0565605 0)
(0.216828 -0.00243071 0)
(1.07588 -0.0501472 0)
(1.09986 -0.0483271 0)
(1.06462 -0.0404842 0)
(1.04001 -0.0336319 0)
(1.02389 -0.0261163 0)
(1.0141 -0.0185366 0)
(1.00855 -0.0117174 0)
(1.00558 -0.00584885 0)
(1.00432 -0.000429842 0)
(1.00467 0.00481907 0)
(1.00659 0.0102133 0)
(1.0106 0.016308 0)
(1.01794 0.0233322 0)
(1.03052 0.0307984 0)
(1.05061 0.0378319 0)
(1.08032 0.0445181 0)
(1.10625 0.0513367 0)
(0.942536 0.041613 0)
(0.216162 0.00246125 0)
(0.175143 -0.000817456 0)
(1.01765 -0.0354992 0)
(1.10517 -0.0414034 0)
(1.07823 -0.0360935 0)
(1.05344 -0.0301658 0)
(1.03618 -0.0245973 0)
(1.02398 -0.0188734 0)
(1.01587 -0.012795 0)
(1.01101 -0.00660692 0)
(1.00881 -0.000269899 0)
(1.00938 0.0059887 0)
(1.01264 0.0119913 0)
(1.01887 0.0178314 0)
(1.02877 0.023407 0)
(1.0432 0.0287089 0)
(1.06372 0.0341967 0)
(1.09354 0.0401844 0)
(1.09341 0.0419513 0)
(0.827169 0.0229093 0)
(0.17402 0.000852495 0)
(0.153929 -0.000611435 0)
(0.956106 -0.0254762 0)
(1.10341 -0.0351589 0)
(1.08764 -0.0326898 0)
(1.06168 -0.028044 0)
(1.04407 -0.023027 0)
(1.03161 -0.0177854 0)
(1.02277 -0.0122574 0)
(1.01695 -0.00632237 0)
(1.01411 0.000148655 0)
(1.01479 0.00661325 0)
(1.01876 0.0125014 0)
(1.0258 0.0178002 0)
(1.03611 0.0227182 0)
(1.05066 0.0274817 0)
(1.07189 0.0320201 0)
(1.10006 0.0359585 0)
(1.06809 0.034022 0)
(0.739571 0.0143103 0)
(0.152238 0.000651178 0)
(0.139544 -0.000467728 0)
(0.899163 -0.0190968 0)
(1.09571 -0.0301152 0)
(1.09569 -0.0292335 0)
(1.0692 -0.0255097 0)
(1.05077 -0.0213785 0)
(1.03784 -0.0166134 0)
(1.02874 -0.0113304 0)
(1.02263 -0.00558676 0)
(1.0195 0.000742513 0)
(1.02012 0.00705848 0)
(1.02421 0.0126992 0)
(1.03137 0.0176698 0)
(1.0419 0.0221337 0)
(1.05702 0.0261046 0)
(1.07922 0.029578 0)
(1.10227 0.0322077 0)
(1.036 0.0281116 0)
(0.673012 0.0102089 0)
(0.137155 0.000513576 0)
(0.128989 -0.000362402 0)
(0.849527 -0.0147365 0)
(1.0833 -0.0259878 0)
(1.10136 -0.026291 0)
(1.07604 -0.0230135 0)
(1.05708 -0.0193771 0)
(1.0437 -0.0151383 0)
(1.03424 -0.0102212 0)
(1.02789 -0.00469194 0)
(1.02458 0.00145891 0)
(1.02506 0.00756427 0)
(1.0291 0.0129298 0)
(1.03636 0.0174905 0)
(1.04718 0.0213489 0)
(1.0627 0.0246558 0)
(1.08533 0.0276115 0)
(1.10137 0.0293705 0)
(1.00108 0.0235977 0)
(0.621179 0.0078459 0)
(0.125752 0.000416318 0)
(0.120933 -0.000281813 0)
(0.807337 -0.0115807 0)
(1.06799 -0.0223829 0)
(1.10487 -0.0236614 0)
(1.08228 -0.0207972 0)
(1.0629 -0.0173763 0)
(1.04925 -0.0134486 0)
(1.03951 -0.00887053 0)
(1.03288 -0.00361133 0)
(1.02932 0.00231994 0)
(1.02963 0.00817534 0)
(1.03362 0.0131928 0)
(1.04095 0.0172817 0)
(1.05187 0.0206296 0)
(1.0676 0.02353 0)
(1.09058 0.0261918 0)
(1.09759 0.0270567 0)
(0.965812 0.0200597 0)
(0.579519 0.00631295 0)
(0.116664 0.000345938 0)
(0.114685 -0.000218682 0)
(0.771817 -0.00922015 0)
(1.05119 -0.0192094 0)
(1.10723 -0.0212298 0)
(1.08813 -0.0187385 0)
(1.06837 -0.0154637 0)
(1.05448 -0.0116978 0)
(1.04455 -0.00733225 0)
(1.03767 -0.00232002 0)
(1.03384 0.00335972 0)
(1.03392 0.00892015 0)
(1.03779 0.0135625 0)
(1.04506 0.017239 0)
(1.05597 0.0201982 0)
(1.0719 0.022772 0)
(1.09453 0.0250884 0)
(1.09098 0.0251406 0)
(0.931479 0.0173318 0)
(0.545015 0.0052676 0)
(0.109165 0.000295413 0)
(0.109814 -0.000167889 0)
(0.742026 -0.00738784 0)
(1.03396 -0.0163965 0)
(1.10865 -0.0189366 0)
(1.0937 -0.01675 0)
(1.07366 -0.0135649 0)
(1.0595 -0.00989094 0)
(1.04938 -0.00565109 0)
(1.04228 -0.000813697 0)
(1.03815 0.00461529 0)
(1.03794 0.00984944 0)
(1.04158 0.0141297 0)
(1.04871 0.0174404 0)
(1.0596 0.0200504 0)
(1.07572 0.0223396 0)
(1.09721 0.0242876 0)
(1.08192 0.0235722 0)
(0.89865 0.015263 0)
(0.515617 0.00454021 0)
(0.102771 0.000259991 0)
(0.106034 -0.00012567 0)
(0.717143 -0.00590966 0)
(1.01713 -0.0138722 0)
(1.10924 -0.0167231 0)
(1.09917 -0.0148141 0)
(1.07886 -0.0116442 0)
(1.06441 -0.00800404 0)
(1.05407 -0.00382544 0)
(1.04672 0.000894726 0)
(1.04227 0.00612368 0)
(1.04169 0.0110708 0)
(1.04502 0.0150138 0)
(1.05197 0.0179801 0)
(1.0628 0.0202524 0)
(1.07909 0.0222713 0)
(1.09855 0.0238103 0)
(1.07079 0.0223526 0)
(0.867433 0.0137381 0)
(0.489869 0.00404104 0)
(0.0971423 0.000236724 0)
(0.103158 -8.90564e-05 0)
(0.696528 -0.0046695 0)
(1.0013 -0.0115685 0)
(1.10915 -0.0145462 0)
(1.10447 -0.0128269 0)
(1.08407 -0.00961937 0)
(1.06931 -0.0059509 0)
(1.0587 -0.00178356 0)
(1.05104 0.00287006 0)
(1.04619 0.00794212 0)
(1.04517 0.0126248 0)
(1.04812 0.0162391 0)
(1.05484 0.0188553 0)
(1.0656 0.0207881 0)
(1.08201 0.0225581 0)
(1.09888 0.0236999 0)
(1.05788 0.0214871 0)
(0.837664 0.0126664 0)
(0.466681 0.00371441 0)
(0.0920187 0.000223102 0)
(0.101067 -5.53786e-05 0)
(0.67971 -0.00358037 0)
(0.986938 -0.00941599 0)
(1.1086 -0.0123261 0)
(1.10961 -0.0107182 0)
(1.08936 -0.00745017 0)
(1.07425 -0.00370148 0)
(1.06332 0.000525448 0)
(1.05529 0.00517745 0)
(1.04994 0.0101342 0)
(1.04839 0.0145754 0)
(1.0509 0.0178843 0)
(1.05733 0.0201731 0)
(1.068 0.021764 0)
(1.08445 0.0232565 0)
(1.09822 0.0239758 0)
(1.04333 0.020996 0)
(0.809013 0.0119778 0)
(0.445201 0.00352266 0)
(0.0871984 0.000217288 0)
(0.0996999 -2.23064e-05 0)
(0.666389 -0.00257197 0)
(0.97439 -0.00733683 0)
(1.1079 -0.00999902 0)
(1.11469 -0.00842966 0)
(1.0948 -0.00506648 0)
(1.07932 -0.00116889 0)
(1.06802 0.00317912 0)
(1.05952 0.00788361 0)
(1.05358 0.0127874 0)
(1.05136 0.0170246 0)
(1.05334 0.0200182 0)
(1.05945 0.0219551 0)
(1.06997 0.0231859 0)
(1.08642 0.0244142 0)
(1.0963 0.0246768 0)
(1.0272 0.0208593 0)
(0.781051 0.0116171 0)
(0.424728 0.00344038 0)
(0.0825173 0.000217729 0)
(0.0990413 1.22917e-05 0)
(0.656413 -0.00159058 0)
(0.963979 -0.00526243 0)
(1.10738 -0.00750457 0)
(1.11987 -0.00586587 0)
(1.10049 -0.00234044 0)
(1.08459 0.00176666 0)
(1.07283 0.00629874 0)
(1.06377 0.0111241 0)
(1.0571 0.0160056 0)
(1.0541 0.0200407 0)
(1.05542 0.0227256 0)
(1.06114 0.0243063 0)
(1.07151 0.0251586 0)
(1.08786 0.0260793 0)
(1.0931 0.0258291 0)
(1.00947 0.0211151 0)
(0.753304 0.0115569 0)
(0.404681 0.0034533 0)
(0.0778421 0.000223864 0)
(0.0991116 4.56651e-05 0)
(0.649753 -0.000587711 0)
(0.955995 -0.00311754 0)
(1.10738 -0.00477977 0)
(1.1253 -0.00297974 0)
(1.10653 0.00076218 0)
(1.09016 0.00515712 0)
(1.07786 0.00996325 0)
(1.06811 0.014981 0)
(1.06056 0.0199084 0)
(1.05661 0.0237814 0)
(1.05717 0.0261389 0)
(1.0624 0.0273357 0)
(1.07258 0.0277953 0)
(1.08852 0.0283424 0)
(1.08839 0.027454 0)
(0.989959 0.0217942 0)
(0.725238 0.011781 0)
(0.384529 0.00355319 0)
(0.0730509 0.000235018 0)
(0.0999506 8.63298e-05 0)
(0.64649 0.000450941 0)
(0.950766 -0.000829044 0)
(1.10826 -0.0017278 0)
(1.13117 0.000367312 0)
(1.113 0.00441885 0)
(1.09613 0.00918593 0)
(1.08318 0.0143339 0)
(1.07259 0.019615 0)
(1.06397 0.0246352 0)
(1.05888 0.0283508 0)
(1.05852 0.0303683 0)
(1.06319 0.0311561 0)
(1.07312 0.0311848 0)
(1.08828 0.0313122 0)
(1.0819 0.0296529 0)
(0.968405 0.0229204 0)
(0.696269 0.0122779 0)
(0.363773 0.00373194 0)
(0.068035 0.000250501 0)
(0.101769 0.000146163 0)
(0.647015 0.00160859 0)
(0.948658 0.00168826 0)
(1.11047 0.00174538 0)
(1.1377 0.00427574 0)
(1.12008 0.00875927 0)
(1.10261 0.013998 0)
(1.08888 0.0195933 0)
(1.07728 0.025217 0)
(1.06736 0.0303529 0)
(1.06091 0.0338913 0)
(1.05946 0.0355307 0)
(1.06345 0.0359012 0)
(1.07307 0.0354672 0)
(1.0869 0.0350993 0)
(1.07337 0.0325069 0)
(0.944414 0.0245373 0)
(0.665772 0.0130458 0)
(0.341948 0.00398462 0)
(0.0626993 0.000269658 0)
(0.104615 0.000208122 0)
(0.651729 0.00303678 0)
(0.950106 0.00458828 0)
(1.11446 0.00578126 0)
(1.14512 0.00887417 0)
(1.12792 0.0139156 0)
(1.10976 0.0197526 0)
(1.09507 0.0259135 0)
(1.08221 0.0319709 0)
(1.07072 0.0372956 0)
(1.06264 0.0406709 0)
(1.05993 0.0418536 0)
(1.0631 0.041744 0)
(1.07235 0.0407979 0)
(1.0842 0.0398953 0)
(1.06243 0.0361213 0)
(0.917462 0.0266908 0)
(0.633063 0.01408 0)
(0.3186 0.00430353 0)
(0.0569614 0.000291494 0)
(0.108776 0.000290679 0)
(0.661072 0.00471267 0)
(0.955601 0.00801041 0)
(1.12076 0.0105478 0)
(1.1537 0.0144163 0)
(1.13672 0.0202067 0)
(1.11773 0.0267756 0)
(1.10185 0.033605 0)
(1.08744 0.0401673 0)
(1.07404 0.0456772 0)
(1.06404 0.0488174 0)
(1.05988 0.0494951 0)
(1.06208 0.0488498 0)
(1.07087 0.0473091 0)
(1.08027 0.0457948 0)
(1.0486 0.0406042 0)
(0.886876 0.0294003 0)
(0.59741 0.0153625 0)
(0.293307 0.0046743 0)
(0.0507589 0.000314311 0)
(0.114589 0.000402658 0)
(0.675867 0.00681345 0)
(0.965823 0.0121545 0)
(1.12994 0.0162651 0)
(1.16382 0.0211269 0)
(1.14675 0.0279079 0)
(1.12669 0.0353877 0)
(1.10931 0.0430286 0)
(1.09298 0.0501508 0)
(1.07726 0.0557926 0)
(1.06502 0.0585724 0)
(1.05913 0.058606 0)
(1.0603 0.0573863 0)
(1.0686 0.0551974 0)
(1.07483 0.0529661 0)
(1.03126 0.0460243 0)
(0.851836 0.0326716 0)
(0.558057 0.0168523 0)
(0.26572 0.00507367 0)
(0.044065 0.000335693 0)
(0.122577 0.000558629 0)
(0.697033 0.00956563 0)
(0.981624 0.0173363 0)
(1.14265 0.023286 0)
(1.17595 0.0294006 0)
(1.15832 0.0374537 0)
(1.13687 0.0460306 0)
(1.11756 0.0545995 0)
(1.09882 0.0623005 0)
(1.08032 0.0679999 0)
(1.06546 0.0702562 0)
(1.05761 0.0694668 0)
(1.05766 0.0675132 0)
(1.06542 0.0645949 0)
(1.06753 0.0614281 0)
(1.00958 0.0524557 0)
(0.811385 0.0364561 0)
(0.514279 0.018476 0)
(0.235613 0.00546578 0)
(0.0369021 0.000352422 0)
(0.133472 0.000784926 0)
(0.725881 0.0133478 0)
(1.00417 0.0240188 0)
(1.15968 0.0321586 0)
(1.19068 0.0398717 0)
(1.17178 0.0495801 0)
(1.14841 0.0594364 0)
(1.12657 0.0689714 0)
(1.10481 0.0771377 0)
(1.08302 0.082626 0)
(1.06519 0.0840574 0)
(1.05521 0.0822599 0)
(1.05404 0.0794448 0)
(1.06103 0.0756202 0)
(1.05768 0.0713502 0)
(0.982524 0.0598746 0)
(0.764454 0.0406381 0)
(0.465471 0.0201054 0)
(0.202972 0.00579905 0)
(0.0293624 0.000360413 0)
(0.148523 0.00113945 0)
(0.764378 0.0187911 0)
(1.03512 0.0329809 0)
(1.18201 0.0438042 0)
(1.20884 0.0536286 0)
(1.18746 0.0653021 0)
(1.16135 0.0765496 0)
(1.13618 0.0869437 0)
(1.11068 0.0952418 0)
(1.08503 0.100052 0)
(1.06397 0.100211 0)
(1.05176 0.0971102 0)
(1.04933 0.0932805 0)
(1.05508 0.0886367 0)
(1.04453 0.0827585 0)
(0.948746 0.0681596 0)
(0.709983 0.0449743 0)
(0.411339 0.021548 0)
(0.168115 0.00600602 0)
(0.0216272 0.000355063 0)
(0.169904 0.00175401 0)
(0.815748 0.0270166 0)
(1.07703 0.0457573 0)
(1.21076 0.0600739 0)
(1.23102 0.0727095 0)
(1.20543 0.0862074 0)
(1.17543 0.0986699 0)
(1.14594 0.109431 0)
(1.11598 0.117194 0)
(1.08601 0.120617 0)
(1.0615 0.118903 0)
(1.04705 0.114129 0)
(1.0434 0.109089 0)
(1.04757 0.103538 0)
(1.027 0.0956145 0)
(0.906614 0.0769648 0)
(0.647176 0.0490776 0)
(0.352238 0.0225519 0)
(0.131865 0.00601128 0)
(0.0139871 0.000331519 0)
(0.200954 0.00310113 0)
(0.88572 0.0406159 0)
(1.13358 0.0661323 0)
(1.24631 0.0845921 0)
(1.2569 0.0999244 0)
(1.22507 0.114723 0)
(1.18983 0.12745 0)
(1.15504 0.137433 0)
(1.12001 0.143534 0)
(1.08543 0.144528 0)
(1.05744 0.140189 0)
(1.04086 0.133328 0)
(1.0361 0.126832 0)
(1.03803 0.120181 0)
(1.00362 0.109552 0)
(0.854216 0.0856586 0)
(0.57608 0.0523964 0)
(0.289885 0.0229079 0)
(0.0958973 0.00577439 0)
(0.00691316 0.000283633 0)
(0.243335 0.00926112 1.1196e-20)
(0.978284 0.0674966 9.5613e-21)
(1.2024 0.100613 -3.31445e-21)
(1.28554 0.12105 0)
(1.28365 0.138901 -8.21664e-35)
(1.24416 0.153205 1.1958e-21)
(1.20291 0.164402 -2.12622e-21)
(1.16236 0.172171 0)
(1.12192 0.175512 4.30919e-35)
(1.08245 0.173289 -2.57627e-21)
(1.05079 0.1658 0)
(1.03196 0.156627 -3.03825e-21)
(1.02628 0.148794 -8.95189e-21)
(1.02513 0.141764 -4.23052e-21)
(0.970474 0.127107 -1.27136e-21)
(0.785749 0.0956076 -7.54889e-22)
(0.491545 0.0553 0)
(0.222789 0.0230055 5.28725e-22)
(0.0602884 0.00557915 6.26226e-22)
(0.000384419 0.000217269 1.14387e-20)
(0.272705 0.0243604 8.53037e-21)
(1.05489 0.109953 1.09715e-22)
(1.2592 0.149739 8.98646e-22)
(1.32068 0.170142 0)
(1.30709 0.188226 -4.21386e-21)
(1.26047 0.200387 -4.75061e-21)
(1.21328 0.209279 -2.15474e-21)
(1.16688 0.214566 -7.58146e-21)
(1.12081 0.21515 0)
(1.07604 0.209772 1.09479e-20)
(1.04022 0.199187 1.08126e-20)
(1.01887 0.187686 3.20189e-21)
(1.01107 0.17797 1.16378e-20)
(1.00198 0.168145 1.63309e-20)
(0.918546 0.14738 0)
(0.693543 0.106223 2.29923e-20)
(0.3924 0.0582236 3.30037e-20)
(0.153071 0.0225223 3.67334e-20)
(0.0247847 0.00420997 -4.21423e-20)
(-0.00622329 -0.000430618 -8.03467e-22)
(0.27412 0.0410615 0)
(1.10361 0.164901 1.54964e-21)
(1.29761 0.209833 0)
(1.348 0.229936 -5.70183e-21)
(1.32542 0.245317 0)
(1.27284 0.253595 -9.4121e-21)
(1.22006 0.258749 4.41871e-21)
(1.16812 0.260436 -1.53319e-20)
(1.11671 0.257396 -3.18718e-22)
(1.06692 0.24822 5.67378e-21)
(1.02717 0.234143 2.37129e-20)
(1.00334 0.220033 -4.53694e-23)
(0.993153 0.208164 -8.43968e-21)
(0.975809 0.195021 -1.53267e-20)
(0.871777 0.167456 1.81397e-20)
(0.62776 0.116397 -3.21336e-20)
(0.334889 0.0608129 -4.24363e-21)
(0.116932 0.0216892 0)
(0.0068022 0.00216397 -2.51279e-24)
(-0.00987744 -0.00132463 0)
(0.267642 0.0551187 2.23666e-20)
(1.12996 0.223508 -1.05143e-20)
(1.32132 0.274457 -7.63334e-21)
(1.36604 0.295062 2.73624e-21)
(1.33725 0.306772 -4.56426e-21)
(1.28022 0.310514 1.97596e-20)
(1.22284 0.311228 9.23829e-21)
(1.16608 0.308653 0)
(1.10983 0.301418 -2.86327e-20)
(1.05543 0.287971 0)
(1.01203 0.27002 -1.24545e-20)
(0.985799 0.253048 -1.5295e-20)
(0.973212 0.238774 -9.173e-21)
(0.949107 0.221839 -1.11093e-20)
(0.833492 0.18748 0)
(0.585671 0.12771 0)
(0.305283 0.0656605 -2.76098e-20)
(0.0998816 0.0218859 5.46079e-21)
(-0.00273853 5.52991e-05 -3.20818e-21)
(-0.0123845 -0.00236764 -3.80024e-21)
(0.259941 0.0674931 -1.0186e-20)
(1.14154 0.282038 0)
(1.33432 0.34008 1.61661e-20)
(1.37581 0.361657 7.83423e-21)
(1.34269 0.369688 1.04545e-20)
(1.28239 0.368904 0)
(1.2214 0.365067 9.11229e-21)
(1.16068 0.358027 1.7009e-20)
(1.10033 0.34634 1.47128e-20)
(1.04182 0.328371 2.66585e-20)
(0.994958 0.306328 0)
(0.966345 0.286327 -3.29581e-20)
(0.951368 0.26953 -1.97966e-20)
(0.922177 0.248892 -1.16993e-20)
(0.801903 0.208612 7.14713e-20)
(0.559221 0.141311 8.50381e-21)
(0.291789 0.072729 4.00167e-20)
(0.0947102 0.0235057 -1.89421e-19)
(-0.00612801 -0.0014941 1.12239e-19)
(-0.0138012 -0.00337019 -1.36997e-19)
(0.25256 0.078608 -6.41682e-21)
(1.14374 0.338595 1.86631e-21)
(1.33962 0.404853 -1.88705e-21)
(1.379 0.427787 -8.40171e-21)
(1.3427 0.432327 -9.10015e-21)
(1.27994 0.427191 3.63623e-22)
(1.21614 0.418943 -9.86306e-21)
(1.1522 0.40751 1.76402e-20)
(1.08831 0.391386 -3.16525e-20)
(1.02609 0.368871 0)
(0.976021 0.342756 -1.49639e-20)
(0.945034 0.319637 -3.22306e-22)
(0.927767 0.300269 -2.16369e-20)
(0.895071 0.276071 0)
(0.774832 0.23067 -1.548e-20)
(0.542201 0.156795 -3.67933e-20)
(0.288078 0.0822223 9.81167e-20)
(0.0969688 0.0268438 -9.66702e-20)
(-0.00463036 -0.00194124 1.37497e-19)
(-0.0140104 -0.00413897 -1.44687e-19)
(0.246324 0.0888697 -1.0551e-22)
(1.14009 0.392518 -1.08118e-21)
(1.33937 0.467753 -5.92987e-21)
(1.37704 0.492282 3.57123e-21)
(1.33838 0.493652 -4.62129e-21)
(1.27375 0.484424 0)
(1.20766 0.472018 -9.30511e-21)
(1.14097 0.456409 -1.85124e-20)
(1.074 0.43599 -1.64942e-20)
(1.0085 0.409035 0)
(0.955456 0.378907 -1.55636e-20)
(0.922161 0.352671 -1.91803e-20)
(0.902668 0.330726 2.34661e-20)
(0.867514 0.303377 -1.42006e-20)
(0.750116 0.253259 -6.7595e-20)
(0.529333 0.173827 4.01753e-20)
(0.288369 0.0931884 1.19372e-20)
(0.102975 0.0318745 0)
(0.000170071 -0.00102528 -1.33023e-19)
(-0.0131781 -0.00454275 -4.94315e-21)
(0.24137 0.0986119 -2.36046e-22)
(1.13293 0.443651 5.80273e-22)
(1.33506 0.528228 2.89137e-21)
(1.37115 0.554443 1.24685e-20)
(1.33066 0.553013 -1.74294e-20)
(1.26459 0.540043 1.94454e-20)
(1.19664 0.523789 2.00426e-20)
(1.12763 0.504265 -2.96069e-20)
(1.05796 0.479778 1.00815e-20)
(0.989426 0.448544 -6.56053e-20)
(0.933587 0.414489 -1.75503e-20)
(0.898097 0.385209 0)
(0.876571 0.360829 2.54625e-20)
(0.839617 0.330437 3.04858e-20)
(0.726264 0.275893 3.64348e-20)
(0.517409 0.191693 -4.36781e-20)
(0.289545 0.105195 -1.29397e-20)
(0.109938 0.0382915 1.51981e-20)
(0.00652571 0.001101 0)
(-0.0116809 -0.00457869 -1.07416e-20)
(0.23759 0.107938 -2.25818e-21)
(1.1239 0.49207 -9.6871e-23)
(1.32796 0.58617 -2.73849e-21)
(1.36233 0.613923 7.81399e-21)
(1.32037 0.610024 -8.07606e-21)
(1.2532 0.593667 -8.28259e-22)
(1.18372 0.573918 -2.1875e-20)
(1.1127 0.550788 -1.07072e-20)
(1.04057 0.522488 -2.86684e-20)
(0.969209 0.487182 6.51018e-23)
(0.910719 0.449311 -5.51092e-20)
(0.873195 0.417179 4.62148e-20)
(0.849764 0.390408 -2.79796e-20)
(0.811381 0.35713 3.35894e-20)
(0.701997 0.298253 0)
(0.504433 0.209666 -2.3757e-20)
(0.289068 0.117548 4.41095e-23)
(0.116188 0.0455352 -6.63927e-20)
(0.0131362 0.00404046 -9.78109e-21)
(-0.00983525 -0.00431268 0)
(0.234883 0.117082 0)
(1.11399 0.537993 6.43019e-22)
(1.31891 0.641783 -3.50849e-21)
(1.35138 0.670555 -7.39103e-21)
(1.30819 0.664467 -9.98528e-21)
(1.24018 0.645079 0)
(1.16942 0.622189 -1.01047e-20)
(1.09662 0.595779 -2.13545e-22)
(1.02224 0.56396 6.1491e-20)
(0.94824 0.524811 -9.0506e-21)
(0.887217 0.483317 -3.97922e-20)
(0.847743 0.448385 2.4088e-20)
(0.822533 0.419171 -4.5084e-22)
(0.782815 0.382993 3.57932e-20)
(0.676582 0.319958 2.19593e-20)
(0.489625 0.22696 -5.12829e-20)
(0.285613 0.129673 6.07755e-20)
(0.120069 0.0528913 1.80213e-20)
(0.0187149 0.00734629 7.4534e-20)
(-0.0079782 -0.00384751 -2.01605e-19)
(0.233171 0.126168 -2.17179e-21)
(1.10388 0.581602 2.00521e-21)
(1.3085 0.694575 -6.28332e-22)
(1.33895 0.724281 6.24656e-21)
(1.2947 0.716238 0)
(1.22602 0.694151 -9.29522e-21)
(1.15418 0.668469 3.3835e-20)
(1.07981 0.639114 2.36008e-20)
(1.00336 0.604092 0)
(0.926796 0.561356 -1.30187e-19)
(0.863309 0.51642 1.07711e-19)
(0.82193 0.478586 0)
(0.795089 0.446937 3.27356e-20)
(0.754053 0.407779 -4.50243e-22)
(0.650164 0.340429 -7.04614e-20)
(0.472797 0.242788 2.75897e-20)
(0.279198 0.140785 0)
(0.120872 0.0595921 9.7332e-20)
(0.0224323 0.0103624 0)
(-0.00641832 -0.00335761 -9.5498e-20)
(0.232281 0.135243 3.0099e-21)
(1.09398 0.623085 3.78379e-21)
(1.29715 0.744591 -3.10722e-22)
(1.32555 0.775116 0)
(1.28034 0.765322 -8.92672e-21)
(1.21114 0.740839 0)
(1.13839 0.712684 -3.37008e-20)
(1.0626 0.680717 -1.11018e-20)
(0.984196 0.642824 1.09323e-20)
(0.905137 0.596802 -6.44437e-20)
(0.839172 0.548506 1.11558e-20)
(0.795927 0.507737 0)
(0.767555 0.4736 -7.00055e-20)
(0.725134 0.431227 4.38131e-22)
(0.622954 0.359255 0)
(0.453708 0.256664 2.39495e-22)
(0.269715 0.150075 8.88879e-20)
(0.118541 0.0648155 -8.41049e-20)
(0.0238934 0.0125674 2.49009e-20)
(-0.00534943 -0.00298224 0)
(0.231872 0.144215 0)
(1.08444 0.662574 5.32387e-21)
(1.2853 0.79193 2.23766e-21)
(1.31158 0.823126 -5.11397e-22)
(1.26551 0.811742 -3.30887e-21)
(1.19589 0.785137 -2.10125e-20)
(1.12235 0.754813 1.25877e-20)
(1.04527 0.720555 -1.30093e-20)
(0.965016 0.680123 4.869e-20)
(0.883488 0.631142 -1.03197e-19)
(0.814957 0.579565 -8.23541e-22)
(0.769839 0.535896 -3.07631e-20)
(0.739971 0.499093 1.13641e-19)
(0.696055 0.453063 -5.21666e-22)
(0.595041 0.375998 -5.47539e-20)
(0.432787 0.268092 -9.74105e-20)
(0.257593 0.157099 0)
(0.113635 0.0681716 0)
(0.0234877 0.013674 2.68715e-20)
(-0.0047341 -0.00280502 -1.59583e-20)
(0.232052 0.153209 5.1334e-21)
(1.07551 0.699879 -1.29207e-20)
(1.27322 0.836679 -2.44541e-21)
(1.29735 0.868391 0)
(1.25048 0.855549 -3.13389e-22)
(1.18053 0.827073 -1.97297e-20)
(1.10632 0.794863 3.07589e-20)
(1.02807 0.758621 5.16394e-20)
(0.946047 0.715992 6.34922e-20)
(0.862036 0.664373 -8.4513e-20)
(0.790816 0.609679 -9.28912e-20)
(0.743718 0.563148 8.23647e-20)
(0.712288 0.523287 0)
(0.6668 0.473019 -2.49205e-20)
(0.566504 0.390281 -5.91806e-20)
(0.410097 0.276824 -7.00244e-20)
(0.243137 0.161492 -8.28312e-20)
(0.106385 0.0695054 2.45244e-20)
(0.0215706 0.0137299 -1.44673e-20)
(-0.00449476 -0.0028137 6.15548e-23)
(0.232504 0.162023 0)
(1.06722 0.735576 0)
(1.26109 0.878934 5.21073e-22)
(1.28307 0.91101 0)
(1.23549 0.896827 8.4346e-21)
(1.16529 0.866706 1.38062e-20)
(1.09051 0.832865 0)
(1.01119 0.794924 6.20659e-21)
(0.927472 0.750428 1.06306e-19)
(0.840958 0.696509 -1.94488e-19)
(0.766893 0.638972 0)
(0.717595 0.589531 -5.30941e-20)
(0.68444 0.546085 -6.1238e-22)
(0.637257 0.49091 -4.70082e-22)
(0.537383 0.401855 6.33848e-20)
(0.385984 0.282547 -1.83631e-23)
(0.226911 0.163142 -1.7839e-19)
(0.0973498 0.0688353 5.27429e-20)
(0.0184913 0.0128364 1.56426e-20)
(-0.00448852 -0.00295015 0)
(0.233103 0.170686 -2.29619e-20)
(1.05935 0.769622 -1.0057e-20)
(1.249 0.918757 -1.0705e-20)
(1.26893 0.951089 3.04606e-21)
(1.22072 0.935648 1.18481e-20)
(1.15033 0.904098 0)
(1.07507 0.868863 1.89394e-20)
(0.994781 0.829489 -1.37957e-20)
(0.909446 0.783446 7.94516e-22)
(0.82042 0.727584 1.43195e-20)
(0.743324 0.667552 1.20688e-19)
(0.691498 0.61509 -1.86631e-20)
(0.656332 0.567534 -7.02221e-20)
(0.607285 0.506605 -2.90444e-20)
(0.507765 0.410407 3.43781e-20)
(0.361142 0.284998 1.74296e-23)
(0.209401 0.161921 4.80349e-20)
(0.0872753 0.0662586 -1.13482e-19)
(0.0148317 0.011168 1.34605e-19)
(-0.00461719 -0.00317895 1.98778e-20)
(0.23353 0.179122 9.06354e-21)
(1.0519 0.802107 -5.90298e-21)
(1.23711 0.956265 1.29235e-21)
(1.25504 0.98875 4.07088e-21)
(1.20629 0.972123 -1.14124e-21)
(1.13578 0.939321 -2.455e-20)
(1.06013 0.902906 5.64664e-21)
(0.978966 0.862336 -5.77248e-20)
(0.892103 0.815045 -1.17833e-19)
(0.800562 0.757619 -1.16407e-19)
(0.720244 0.695485 0)
(0.665477 0.639935 -8.19733e-20)
(0.627868 0.587827 1.01281e-19)
(0.57661 0.519965 0)
(0.477561 0.415469 -7.36947e-20)
(0.336165 0.283727 4.38125e-20)
(0.192002 0.157707 -5.16539e-20)
(0.0774477 0.0621106 -6.10504e-20)
(0.011286 0.00907514 -1.08412e-19)
(-0.00479647 -0.0034508 -8.55954e-20)
(0.234316 0.187425 -1.06097e-20)
(1.04471 0.833015 6.33051e-21)
(1.22546 0.991519 1.3702e-20)
(1.24151 1.02405 7.28407e-21)
(1.19231 1.00635 3.27116e-21)
(1.12173 0.972465 -1.36956e-20)
(1.04578 0.935045 1.87733e-20)
(0.963838 0.893508 -5.96229e-20)
(0.875531 0.845245 -6.99917e-20)
(0.781515 0.786645 1.22245e-19)
(0.697778 0.72281 2.66024e-19)
(0.639609 0.66425 0)
(0.598941 0.607238 0)
(0.544835 0.530969 -3.34718e-20)
(0.44642 0.416572 0)
(0.311299 0.27787 9.4172e-20)
(0.176103 0.149744 1.11042e-19)
(0.0698891 0.0563473 0)
(0.00906097 0.00690878 0)
(-0.00493297 -0.00370899 9.19833e-20)
(0.234761 0.19527 1.24575e-20)
(1.03782 0.862335 9.76659e-21)
(1.21413 1.02463 1.01507e-20)
(1.22841 1.05713 -8.60366e-21)
(1.17884 1.03842 1.99472e-21)
(1.10826 1.00361 1.46242e-20)
(1.03209 0.96534 -2.59372e-20)
(0.949463 0.923031 -8.31364e-23)
(0.859815 0.87405 -1.03845e-21)
(0.763382 0.814668 -9.5491e-22)
(0.676071 0.749559 1.37262e-19)
(0.614 0.68824 0)
(0.569494 0.62606 1.02798e-19)
(0.511539 0.539821 7.15694e-20)
(0.413563 0.413538 1.71982e-19)
(0.286074 0.266037 5.07517e-20)
(0.163171 0.135315 -5.97491e-20)
(0.0690973 0.0458283 -3.51899e-20)
(0.0138994 0.003391 0)
(-0.00360055 -0.00362414 9.88447e-20)
(0.235561 0.203136 -2.89926e-20)
(1.03118 0.890214 0)
(1.20311 1.05564 1.28215e-20)
(1.21575 1.08807 -7.9192e-21)
(1.16594 1.06846 2.07058e-22)
(1.09539 1.03283 -1.65094e-20)
(1.01909 0.993844 5.10774e-20)
(0.935884 0.950938 -4.82283e-21)
(0.845001 0.901469 0)
(0.746248 0.841662 -1.35657e-19)
(0.655264 0.775753 -2.99314e-19)
(0.588788 0.712105 1.21805e-20)
(0.539568 0.64455 1.42136e-19)
(0.476429 0.547035 0)
(0.377824 0.406897 1.16158e-19)
(0.258119 0.247095 0)
(0.151343 0.108253 0)
(0.080794 0.0151293 -3.80222e-20)
(0.0510527 -0.0151948 0)
(0.0264538 0.00589864 2.64956e-20)
(0.235924 0.21043 -3.30801e-20)
(1.02476 0.916848 0)
(1.1924 1.08476 2.21191e-20)
(1.2035 1.11711 0)
(1.15357 1.09672 -1.07815e-21)
(1.08307 1.06042 0)
(1.00673 1.02087 2.61887e-21)
(0.923005 0.977569 8.29005e-21)
(0.830968 0.927869 8.83737e-21)
(0.729938 0.868002 -1.49381e-19)
(0.635173 0.801857 9.03457e-21)
(0.563689 0.736516 9.81604e-20)
(0.508706 0.663414 1.38952e-19)
(0.438597 0.553372 1.86754e-20)
(0.337361 0.398224 9.11201e-20)
(0.222464 0.222063 0)
(0.128745 0.0645433 1.25756e-19)
(0.0719522 -0.0245422 -7.39024e-20)
(0.0319533 0.0562375 8.64329e-20)
(-0.0382837 0.455386 -1.02692e-19)
(0.236236 0.217564 2.78148e-20)
(1.01835 0.942123 4.1067e-20)
(1.18191 1.11231 0)
(1.19151 1.1447 1.05639e-21)
(1.14153 1.12378 5.01124e-21)
(1.07102 1.08707 2.16041e-20)
(0.994686 1.04722 1.80886e-20)
(0.91041 1.00387 0)
(0.817178 0.954354 5.89568e-20)
(0.713766 0.895001 -7.84025e-21)
(0.614876 0.829402 0)
(0.537398 0.763202 0)
(0.474902 0.684019 1.24612e-19)
(0.395568 0.559356 -5.76547e-20)
(0.289063 0.38937 -9.23579e-20)
(0.175026 0.194133 0)
(0.0736112 0.0791549 6.38429e-20)
(0.00628126 0.464451 -7.43456e-20)
(0.0313444 1.92511 -4.19951e-20)
(0.0580269 2.82389 -5.13212e-20)
(0.236178 0.224135 -2.14382e-20)
(1.01198 0.966212 -5.36969e-20)
(1.17167 1.13828 1.36949e-20)
(1.17978 1.1707 9.71454e-21)
(1.12988 1.14946 0)
(1.05935 1.11251 1.26956e-20)
(0.983172 1.07258 2.5135e-20)
(0.898295 1.0294 -4.0566e-21)
(0.803916 0.980407 8.79923e-21)
(0.698122 0.922044 1.42848e-19)
(0.595001 0.857751 1.52271e-19)
(0.510886 0.791891 1.10481e-19)
(0.438986 0.706378 1.25613e-19)
(0.348755 0.564053 -1.357e-19)
(0.239351 0.384022 -1.39624e-19)
(0.115385 0.245145 0)
(0.0402516 0.880156 0)
(0.0880458 2.57972 3.5642e-20)
(0.0907623 3.21103 0)
(0.0919983 3.38909 9.34865e-20)
(0.238904 0.230253 0)
(1.00594 0.98949 0)
(1.16138 1.16253 0)
(1.1681 1.19498 3.22428e-21)
(1.11828 1.1735 5.25952e-21)
(1.04785 1.13659 6.45245e-21)
(0.972113 1.09685 1.63229e-20)
(0.886592 1.05404 -3.98445e-21)
(0.791117 1.00586 7.4241e-20)
(0.682997 0.948968 -1.85226e-21)
(0.575638 0.886715 3.01739e-19)
(0.484535 0.82257 -1.2753e-20)
(0.400875 0.731208 1.53066e-20)
(0.300279 0.565519 1.96683e-20)
(0.179334 0.401824 -4.79873e-22)
(0.0926122 1.01254 3.47956e-22)
(0.125741 2.76057 -1.87598e-19)
(0.130544 3.30104 -7.12324e-20)
(0.120756 3.42404 3.81373e-20)
(0.110042 3.44395 -4.32428e-20)
(0.162034 0.175812 1.34866e-20)
(0.995851 1.01468 0)
(1.15087 1.18528 -2.95637e-20)
(1.15689 1.21795 -2.84112e-20)
(1.10719 1.19638 1.69152e-20)
(1.03721 1.15979 -5.63585e-21)
(0.961345 1.12 -1.71026e-20)
(0.875337 1.07783 4.55006e-20)
(0.778855 1.03078 -6.13335e-20)
(0.668603 0.975886 0)
(0.557067 0.916368 1.49201e-19)
(0.458913 0.854941 -9.05672e-20)
(0.361771 0.761474 0)
(0.243727 0.567611 1.90416e-20)
(0.132512 0.772767 4.53727e-20)
(0.140253 2.56224 -5.17701e-20)
(0.188712 3.32933 5.90854e-20)
(0.17096 3.43536 3.21508e-20)
(0.141855 3.45405 3.68428e-20)
(0.122443 3.46265 5.94088e-20)
(0.27405 0.268819 -2.58034e-20)
(0.979263 1.02563 0)
(1.13322 1.2116 3.29649e-20)
(1.14269 1.24944 3.32197e-20)
(1.09 1.23019 -2.18932e-20)
(1.01944 1.19398 4.74347e-22)
(0.942395 1.15574 1.71588e-20)
(0.855845 1.11489 3.54519e-21)
(0.757965 1.07013 5.89316e-20)
(0.644802 1.01942 1.24926e-19)
(0.527744 0.96646 8.45438e-21)
(0.417933 0.909991 8.08379e-20)
(0.291836 0.800231 1.45035e-20)
(0.205762 0.94533 -1.83551e-20)
(0.211376 2.43581 -4.171e-20)
(0.262444 3.33458 4.19239e-20)
(0.245457 3.462 -4.64194e-20)
(0.211085 3.48038 -2.69131e-20)
(0.177273 3.50456 -2.51639e-20)
(0.132144 3.49907 -3.65362e-21)
(0.264505 0.267874 0)
(0.9768 1.04888 1.01861e-20)
(1.1248 1.23548 -6.98323e-21)
(1.13187 1.27321 -4.17687e-21)
(1.07909 1.25364 -1.63786e-20)
(1.00853 1.21763 7.4836e-22)
(0.931178 1.17962 -9.31406e-21)
(0.844392 1.13965 3.20482e-21)
(0.745909 1.09643 -6.16808e-20)
(0.631303 1.04868 -2.84837e-21)
(0.511161 1.00077 -2.71093e-19)
(0.395299 0.94726 1.1549e-20)
(0.277561 0.873638 -1.37796e-20)
(0.240653 1.55195 -1.69874e-20)
(0.302835 3.14369 3.66959e-21)
(0.316315 3.46466 2.92131e-22)
(0.274648 3.51161 7.12377e-20)
(0.2406 3.53416 3.6937e-20)
(0.194788 3.55381 -1.3449e-20)
(0.14477 3.54997 -1.90671e-20)
(0.250607 0.266082 2.66467e-20)
(0.973453 1.07474 6.96972e-20)
(1.11604 1.26144 -2.00409e-20)
(1.12068 1.2986 -1.57138e-20)
(1.06773 1.27856 0)
(0.997258 1.24259 7.95517e-21)
(0.91987 1.20486 -1.02958e-20)
(0.833099 1.1657 2.84052e-21)
(0.734323 1.12412 -6.84991e-21)
(0.61881 1.0796 -1.14041e-19)
(0.496474 1.03725 -1.2563e-19)
(0.376535 0.986762 -9.52372e-20)
(0.276053 1.01656 -1.03927e-19)
(0.305187 2.30905 1.0727e-19)
(0.382846 3.39243 9.27514e-20)
(0.355161 3.52205 0)
(0.306949 3.55789 0)
(0.270234 3.591 -1.07377e-20)
(0.225943 3.636 0)
(0.156479 3.61999 -1.83125e-20)
(0.240838 0.268188 -4.04071e-20)
(0.968185 1.10153 -5.98511e-20)
(1.10591 1.28868 0)
(1.10826 1.32484 1.28347e-21)
(1.05515 1.30415 -2.01266e-20)
(0.984925 1.26814 1.67694e-20)
(0.907823 1.23072 -4.72496e-21)
(0.821294 1.1923 1.77242e-21)
(0.72248 1.15231 -4.43382e-20)
(0.606494 1.11103 5.76486e-21)
(0.482859 1.0743 0)
(0.358635 1.02999 0)
(0.300109 1.3046 -9.49319e-20)
(0.383082 2.97263 3.90453e-20)
(0.447622 3.49269 5.1088e-20)
(0.394638 3.55677 0)
(0.352466 3.613 -8.88798e-21)