/*--------------------------------*- C++ -*----------------------------------*\
  =========                 |
  \\      /  F ield         | OpenFOAM: The Open Source CFD Toolbox
   \\    /   O peration     | Website:  https://openfoam.org
    \\  /    A nd           | Version:  6
     \\/     M anipulation  |
\*---------------------------------------------------------------------------*/
FoamFile
{
    version     2.0;
    format      ascii;
    class       surfaceScalarField;
    location    "25";
    object      phi;
}
// * * * * * * * * * * * * * * * * * * * * * * * * * * * * * * * * * * * * * //

dimensions      [0 3 -1 0 0 0 0];

internalField   nonuniform List<scalar> 
4262
(
0.106731
0.471257
0.0924042
0.707913
0.0644868
0.86022
0.0419952
1.02126
0.0260925
1.21442
0.0161555
1.44816
0.0099622
1.73206
0.00579759
2.0752
0.00273016
2.48831
-0.000316164
2.98534
-0.00331177
2.98529
-0.00633006
2.48826
-0.0103849
2.07509
-0.0165231
1.732
-0.0263777
1.44807
-0.0422149
1.21435
-0.0646642
1.02121
-0.0925017
0.86014
-0.106807
0.707891
0.471181
0.114761
0.356496
0.139892
0.682782
0.12528
0.874833
0.101562
1.04497
0.0734085
1.24257
0.0485251
1.47304
0.0295527
1.75103
0.0161571
2.0886
0.00675561
2.49771
-0.000594163
2.99269
-0.00798445
2.99268
-0.0176119
2.49789
-0.0309849
2.08846
-0.0497508
1.75077
-0.0744685
1.47279
-0.102456
1.24234
-0.125941
1.0447
-0.14037
0.874569
-0.115013
0.682535
0.356168
0.0916317
0.264864
0.126179
0.648234
0.124839
0.876173
0.111061
1.05875
0.09598
1.25765
0.0753928
1.49363
0.0529864
1.77344
0.0320042
2.10958
0.0135758
2.51614
-0.00143847
3.0077
-0.0165487
3.00779
-0.0345445
2.51589
-0.0552525
2.10917
-0.0773764
1.77289
-0.0976259
1.49304
-0.11233
1.25704
-0.125852
1.05822
-0.12694
0.875657
-0.0919747
0.647569
0.264193
0.0622
0.202664
0.102823
0.607612
0.105234
0.873762
0.0955937
1.06839
0.0847345
1.26851
0.0735065
1.50486
0.0581502
1.78879
0.0391988
2.12853
0.0185409
2.5368
-0.00227124
3.02851
-0.0227473
3.02826
-0.0428223
2.53596
-0.061186
2.12754
-0.0760916
1.7878
-0.0869288
1.50388
-0.097475
1.26759
-0.106801
1.06755
-0.103912
0.872767
-0.0626691
0.606327
0.201524
0.0368777
0.165786
0.0791367
0.565353
0.0893623
0.863537
0.0822298
1.07552
0.0704551
1.28029
0.0603029
1.51501
0.0490631
1.80003
0.0349772
2.14262
0.017803
2.55397
-0.00255063
3.04887
-0.0225976
3.04831
-0.0394722
2.55283
-0.0532773
2.14134
-0.0641653
1.79869
-0.0737183
1.51343
-0.0850059
1.27888
-0.0915451
1.07409
-0.0805979
0.86182
-0.037407
0.563136
0.164117
0.0195093
0.146277
0.0561366
0.528725
0.0708565
0.848817
0.0679659
1.07841
0.0586335
1.28962
0.0488872
1.52475
0.0392743
1.80964
0.0277927
2.1541
0.0144129
2.56735
-0.00385173
3.06713
-0.0217432
3.0662
-0.034317
2.56541
-0.0449474
2.15197
-0.0537304
1.80747
-0.0628166
1.52252
-0.0714454
1.28751
-0.0735224
1.07616
-0.0577808
0.846078
-0.0200369
0.525392
0.14408
0.0103565
0.135921
0.0403842
0.498698
0.0554945
0.833707
0.0554962
1.07841
0.0493734
1.29574
0.0403564
1.53377
0.0317885
1.81821
0.0224884
2.1634
0.0113692
2.57847
-0.00479703
3.0833
-0.0204916
3.0819
-0.0308031
2.57572
-0.03935
2.16052
-0.0464574
1.81458
-0.0543692
1.53043
-0.0595536
1.29269
-0.0586095
1.07522
-0.0423045
0.829773
-0.0109716
0.494059
0.133109
0.00623432
0.129686
0.0311166
0.473815
0.0459425
0.818881
0.0472801
1.07707
0.0427061
1.30032
0.0348712
1.54161
0.0257597
1.82732
0.0166882
2.17247
0.00642381
2.58874
-0.00591439
3.09564
-0.0180124
3.094
-0.0274291
2.58514
-0.0349079
2.168
-0.0421852
1.82185
-0.0492538
1.5375
-0.0527382
1.29618
-0.0501001
1.07258
-0.0335726
0.813246
-0.0069899
0.467476
0.126119
0.00449406
0.125192
0.0255617
0.452748
0.0403714
0.804071
0.0423725
1.07507
0.0381849
1.3045
0.0311855
1.54861
0.0223142
1.8362
0.013038
2.18175
0.00297001
2.5988
-0.00741942
3.10603
-0.0173021
3.10388
-0.0261926
2.59403
-0.0336351
2.17544
-0.041155
1.82937
-0.0467653
1.54311
-0.0493558
1.29877
-0.0455974
1.06882
-0.0286324
0.796281
-0.00548938
0.444333
0.12063
0.00327611
0.121916
0.0197765
0.436247
0.0337957
0.790052
0.0364437
1.07243
0.0327694
1.30818
0.0262526
1.55512
0.0187593
1.84369
0.0103331
2.19017
0.000549709
2.60859
-0.00936452
3.11594
-0.0184274
3.11294
-0.0265567
2.60216
-0.0330806
2.18196
-0.0387766
1.83507
-0.0428158
1.54715
-0.0444412
1.30039
-0.0397322
1.06411
-0.0232164
0.779765
-0.00442008
0.425537
0.116209
0.0015396
0.120377
0.0120035
0.425783
0.0234711
0.778584
0.02623
1.06967
0.0236486
1.31076
0.0190158
1.55975
0.0137178
1.84899
0.00672126
2.19717
-0.00239218
2.6177
-0.0119997
3.12555
-0.0204701
3.12141
-0.0271737
2.60886
-0.0317074
2.1865
-0.0346298
1.83799
-0.0369088
1.54943
-0.0370692
1.30055
-0.0313894
1.05843
-0.0164837
0.764859
-0.00311822
0.412171
0.113091
0.000137418
0.120239
0.00508711
0.420834
0.0135634
0.770108
0.0162249
1.067
0.0142196
1.31277
0.0105811
1.56339
0.00624408
1.85332
0.000703084
2.20271
-0.00644323
2.62485
-0.0146803
3.13379
-0.0221164
3.12885
-0.026453
2.6132
-0.0288011
2.18885
-0.0300593
1.83925
-0.0306522
1.55002
-0.0293557
1.29926
-0.0230528
1.05213
-0.0105964
0.752403
-0.00200092
0.403576
0.11109
-0.000675476
0.120915
0.000495462
0.419663
0.00593891
0.764665
0.00815524
1.06479
0.00646112
1.31446
0.0032118
1.56664
-0.000834674
1.85737
-0.00591008
2.20778
-0.0113655
2.6303
-0.0176637
3.14008
-0.0230641
3.13425
-0.0258993
2.61603
-0.0273659
2.19031
-0.0276247
1.83951
-0.0271902
1.54959
-0.0251
1.29717
-0.0183909
1.04542
-0.00785761
0.741869
-0.00170141
0.39742
0.109389
-0.00110597
0.122021
-0.00152359
0.42008
0.00145607
0.761685
0.0028395
1.0634
0.00114967
1.31615
-0.00229358
1.57009
-0.00674101
1.86182
-0.0119472
2.21299
-0.0172818
2.63564
-0.023
3.1458
-0.0269416
3.13819
-0.0286142
2.6177
-0.0287364
2.19043
-0.0277151
1.83849
-0.0261013
1.54797
-0.0227605
1.29382
-0.0160447
1.03871
-0.00715535
0.73298
-0.00188599
0.39215
0.107503
-0.00163909
0.12366
-0.00337671
0.421818
-0.00320689
0.761515
-0.00312229
1.06332
-0.00463961
1.31767
-0.00748302
1.57293
-0.0118512
1.86619
-0.0170483
2.21819
-0.0228345
2.64142
-0.0287862
3.15175
-0.032204
3.14161
-0.0326998
2.6182
-0.0316345
2.18937
-0.0296018
1.83645
-0.026667
1.54504
-0.0223554
1.28951
-0.0154647
1.03182
-0.00721719
0.724733
-0.00205027
0.386984
0.105453
-0.00231291
0.125973
-0.00600532
0.42551
-0.0076511
0.763161
-0.00859563
1.06426
-0.0108043
1.31988
-0.0142688
1.57639
-0.0190764
1.87099
-0.0245729
2.22368
-0.0306709
2.64752
-0.0363306
3.15741
-0.0391263
3.1444
-0.0385623
2.61764
-0.0363287
2.18714
-0.0331971
1.83332
-0.0283346
1.54017
-0.0224984
1.28368
-0.0150224
1.02434
-0.0072177
0.716928
-0.00215141
0.381917
0.103301
-0.00340938
0.129382
-0.00902908
0.43113
-0.0127198
0.766852
-0.0150336
1.06658
-0.0176588
1.3225
-0.0213959
1.58013
-0.0267052
1.8763
-0.0329339
2.22991
-0.0394848
2.65407
-0.0449282
3.16286
-0.0469828
3.14646
-0.0456854
2.61634
-0.042082
2.18353
-0.0375606
1.8288
-0.0317625
1.53438
-0.0250696
1.27698
-0.0167428
1.01601
-0.00830277
0.708488
-0.00251085
0.376125
0.10079
-0.00376386
0.133146
-0.0104442
0.43781
-0.0156221
0.77203
-0.0187529
1.06971
-0.022549
1.3263
-0.0279876
1.58557
-0.034799
1.88311
-0.0426815
2.2378
-0.0507715
2.66216
-0.0569876
3.16907
-0.0586671
3.14814
-0.0567554
2.61443
-0.0521688
2.17895
-0.0461097
1.82274
-0.0384034
1.52667
-0.0294176
1.268
-0.0193079
1.0059
-0.00996951
0.699149
-0.00315364
0.369309
0.0976368
-0.00504791
0.138194
-0.0142261
0.446989
-0.0217908
0.779594
-0.0262976
1.07422
-0.0302147
1.33021
-0.0359745
1.59133
-0.0442395
1.89138
-0.0542829
2.24784
-0.064354
2.67223
-0.0716333
3.17635
-0.0731053
3.14961
-0.0698058
2.61113
-0.0634203
2.17256
-0.0553339
1.81466
-0.0459086
1.51724
-0.0351655
1.25726
-0.0235781
0.994316
-0.0125889
0.68816
-0.00400723
0.360728
0.0936295
-0.00600198
0.144196
-0.0167551
0.457742
-0.0263974
0.789237
-0.0329498
1.08077
-0.0392053
1.33647
-0.0477212
1.59984
-0.0583899
1.90205
-0.0705158
2.25997
-0.082135
2.68385
-0.0898997
3.18412
-0.0901942
3.1499
-0.0849633
2.6059
-0.0767973
2.16439
-0.066495
1.80435
-0.0547422
1.50549
-0.0414799
1.24399
-0.0276171
0.980453
-0.0149726
0.675516
-0.0048327
0.350588
0.0887968
-0.008317
0.152513
-0.0232878
0.472712
-0.0365909
0.80254
-0.0458747
1.09005
-0.0539593
1.34455
-0.0640464
1.60993
-0.0768985
1.9149
-0.091435
2.2745
-0.104474
2.69689
-0.111829
3.19147
-0.11016
3.14823
-0.10219
2.59793
-0.0909026
2.15311
-0.0774504
1.7909
-0.0627665
1.49081
-0.0475629
1.22879
-0.032463
0.965353
-0.017908
0.660961
-0.00567481
0.338355
0.083122
-0.0103255
0.162838
-0.0288534
0.49124
-0.0463914
0.820078
-0.0598156
1.10348
-0.0720667
1.35681
-0.0866518
1.62452
-0.103597
1.93185
-0.120518
2.29142
-0.133819
2.71019
-0.13902
3.19667
-0.133672
3.14289
-0.121797
2.58605
-0.107066
2.13838
-0.0910072
1.77484
-0.0743323
1.47413
-0.0569467
1.2114
-0.0388672
0.947273
-0.0213651
0.643458
-0.00674939
0.323739
0.0763726
-0.0149268
0.177765
-0.0400202
0.516334
-0.0625683
0.842626
-0.0804153
1.12132
-0.097387
1.37378
-0.116734
1.64386
-0.137286
1.9524
-0.155785
2.30992
-0.168115
2.72252
-0.170056
3.19861
-0.160624
3.13346
-0.145134
2.57056
-0.126633
2.11987
-0.106472
1.75468
-0.0859461
1.45361
-0.0658618
1.19132
-0.0459651
0.927377
-0.0256556
0.623149
-0.00792651
0.30601
0.0684461
-0.01895
0.196715
-0.0509701
0.548354
-0.0811383
0.872794
-0.106377
1.14656
-0.131255
1.39865
-0.157533
1.67014
-0.181753
1.97662
-0.20054
2.32871
-0.210216
2.7322
-0.207748
3.19615
-0.192889
3.1186
-0.171973
2.54965
-0.149065
2.09697
-0.12608
1.7317
-0.103513
1.43104
-0.0805272
1.16833
-0.0557017
0.902551
-0.030197
0.597644
-0.00907314
0.284886
0.059373
-0.0326429
0.229358
-0.0759218
0.591633
-0.114961
0.911834
-0.147397
1.179
-0.1809
1.43216
-0.21206
1.7013
-0.236998
2.00156
-0.253136
2.34485
-0.258373
2.73744
-0.250075
3.18785
-0.229311
3.09783
-0.203827
2.52416
-0.176585
2.06972
-0.149076
1.70419
-0.122094
1.40406
-0.0951932
1.14143
-0.0668592
0.874217
-0.0367025
0.567488
-0.0105285
0.258712
0.0488445
-0.0453211
0.274679
-0.112036
0.658348
-0.167302
0.967099
-0.212113
1.22381
-0.253401
1.47344
-0.282982
1.73088
-0.303333
2.02191
-0.313966
2.35548
-0.313542
2.73701
-0.299213
3.17352
-0.272037
3.07066
-0.239985
2.49211
-0.207782
2.03752
-0.176775
1.67318
-0.14656
1.37384
-0.115396
1.11027
-0.0804747
0.839296
-0.041287
0.5283
-0.0103962
0.227821
0.0384483
-0.0302762
0.304955
-0.0876651
0.715737
-0.141611
1.02104
-0.188454
1.27065
-0.231089
1.51608
-0.269117
1.76891
-0.30329
2.05608
-0.331184
2.38337
-0.349406
2.75523
-0.351703
3.17581
-0.331607
3.05056
-0.298527
2.45903
-0.259415
1.99841
-0.217963
1.63173
-0.17498
1.33086
-0.129102
1.06439
-0.0796037
0.789798
-0.0349815
0.483678
-0.00812817
0.200968
0.0303201
-0.00977479
0.31473
-0.0372287
0.743191
-0.0713558
1.05517
-0.107538
1.30684
-0.144229
1.55277
-0.18065
1.80533
-0.21379
2.08922
-0.240447
2.41003
-0.256406
2.77119
-0.25389
3.1733
-0.23053
3.0272
-0.19744
2.42594
-0.158492
1.95946
-0.117619
1.59086
-0.078356
1.2916
-0.0424983
1.02853
-0.0133326
0.760632
0.00235926
0.467986
0.00368486
0.199642
0.034005
0.000856915
0.313873
-0.0163603
0.760408
-0.0411037
1.07992
-0.0674679
1.3332
-0.0948515
1.58015
-0.124326
1.83481
-0.153125
2.11802
-0.177275
2.43418
-0.19155
2.78547
-0.188172
3.16992
-0.165548
3.00458
-0.133943
2.39433
-0.0992158
1.92473
-0.0650761
1.55672
-0.0331268
1.25965
-0.00649587
1.0019
0.0110133
0.743123
0.0148067
0.464192
0.00693165
0.207517
0.0409367
0.000735458
0.313138
-0.0116477
0.772791
-0.0292734
1.09754
-0.0492051
1.35313
-0.070219
1.60117
-0.093027
1.85762
-0.116162
2.14115
-0.13658
2.4546
-0.148889
2.79778
-0.144749
3.16578
-0.124728
2.98456
-0.0984854
2.36809
-0.0700843
1.89633
-0.0427986
1.52943
-0.0187033
1.23555
0.00205661
0.981143
0.0157109
0.729469
0.016267
0.463636
0.00662225
0.217162
0.0475589
0.00474726
0.30839
-0.00369437
0.781233
-0.0208489
1.1147
-0.0396205
1.3719
-0.0581041
1.61965
-0.0770212
1.87653
-0.0960257
2.16016
-0.112986
2.47156
-0.12309
2.80788
-0.119094
3.16178
-0.103532
2.969
-0.0813674
2.34593
-0.0574392
1.8724
-0.032774
1.50477
-0.00973595
1.21251
0.00773592
0.963671
0.0166021
0.720602
0.0143006
0.465938
0.0051719
0.226291
0.0527308
0.00491391
0.303476
8.04387e-06
0.786139
-0.0150286
1.12973
-0.0332047
1.39008
-0.0512542
1.6377
-0.0687897
1.89407
-0.0857655
2.17713
-0.100319
2.48611
-0.108328
2.81589
-0.105203
3.15866
-0.0926681
2.95646
-0.0730453
2.3263
-0.051155
1.85051
-0.0310318
1.48464
-0.0125269
1.19401
0.00299369
0.94815
0.0109665
0.71263
0.00971036
0.467194
0.00343561
0.232566
0.0561664
0.00383702
0.299639
0.00046628
0.789509
-0.0120086
1.14221
-0.0286143
1.40668
-0.0463714
1.65546
-0.0640831
1.91178
-0.0809318
2.19398
-0.0949258
2.50011
-0.102595
2.82356
-0.101939
3.158
-0.090399
2.94492
-0.0714219
2.30733
-0.0518319
1.83092
-0.0325233
1.46533
-0.0154785
1.17696
-0.00390319
0.936575
0.00170053
0.707026
0.002201
0.466693
0.000999225
0.233767
0.0571656
0.00227176
0.297368
-0.00105295
0.792834
-0.0119872
1.15314
-0.0268591
1.42156
-0.0436347
1.67223
-0.0613549
1.9295
-0.0786243
2.21125
-0.092855
2.51434
-0.10055
2.83125
-0.100017
3.15747
-0.0881476
2.93305
-0.072147
2.29133
-0.0549343
1.81371
-0.0378074
1.44821
-0.0243847
1.16354
-0.0133317
0.925522
-0.00708616
0.70078
-0.00447647
0.464084
-0.00141214
0.230703
0.0557535
0.000675924
0.296692
-0.00290989
0.79642
-0.0126661
1.1629
-0.0263339
1.43522
-0.0423766
1.68828
-0.0600382
1.94716
-0.0777192
2.22893
-0.0928935
2.52951
-0.102337
2.8407
-0.104442
3.15958
-0.0943066
2.92291
-0.077369
2.27439
-0.0592256
1.79557
-0.0448256
1.43381
-0.0306309
1.14935
-0.0201599
0.915051
-0.0128984
0.693519
-0.00725884
0.458444
-0.00234877
0.225793
0.0534047
-0.00108905
0.297781
-0.00531629
0.800647
-0.0144652
1.17205
-0.0272255
1.44798
-0.0424662
1.70352
-0.0596859
1.96438
-0.0774373
2.24669
-0.0934386
2.54551
-0.10475
2.85201
-0.108742
3.16357
-0.0981022
2.91227
-0.083558
2.25984
-0.0689199
1.78093
-0.0524202
1.41731
-0.0388127
1.13574
-0.0264522
0.902691
-0.0167668
0.683833
-0.00915761
0.450835
-0.0029284
0.219564
0.0504763
-0.00256613
0.300347
-0.0073146
0.805396
-0.0160916
1.18082
-0.0283609
1.46025
-0.0431515
1.71831
-0.0599835
1.98121
-0.077627
2.26433
-0.0945618
2.56245
-0.108771
2.86622
-0.115564
3.17036
-0.107052
2.90376
-0.0911439
2.24394
-0.0728437
1.76263
-0.0578571
1.40232
-0.0440477
1.12193
-0.032654
0.891297
-0.0218136
0.672993
-0.0112566
0.440278
-0.00353354
0.211841
0.0469428
-0.00361502
0.303962
-0.00916136
0.810942
-0.0179429
1.1896
-0.0298634
1.47217
-0.0441411
1.73258
-0.0604294
1.9975
-0.0778072
2.28171
-0.09524
2.57988
-0.111215
2.88219
-0.120641
3.17979
-0.116795
2.89992
-0.102529
2.22967
-0.0851887
1.74529
-0.0669357
1.38407
-0.0516627
1.10666
-0.03661
0.876244
-0.0235819
0.659965
-0.0125696
0.429266
-0.0038314
0.203103
0.0431114
-0.00424444
0.308206
-0.0104877
0.817185
-0.0193319
1.19845
-0.0310084
1.48385
-0.0449365
1.74651
-0.0607991
2.01336
-0.0779138
2.29882
-0.0958111
2.59778
-0.114131
2.90051
-0.128123
3.19378
-0.127876
2.89967
-0.113388
2.21518
-0.0914002
1.7233
-0.0727202
1.36539
-0.0554395
1.08938
-0.0421308
0.862936
-0.0285934
0.646428
-0.014224
0.414896
-0.00417966
0.193058
0.0389317
-0.00467915
0.312886
-0.0114987
0.824005
-0.020418
1.20737
-0.0318907
1.49532
-0.0454741
1.7601
-0.0608832
2.02877
-0.0777039
2.31564
-0.0957876
2.61586
-0.11517
2.91989
-0.13104
3.20965
-0.134975
2.9036
-0.124754
2.20496
-0.105065
1.70361
-0.0807147
1.34104
-0.0623108
1.07097
-0.0456421
0.846267
-0.0301649
0.63095
-0.0158868
0.400618
-0.00446901
0.18164
0.0344627
-0.004965
0.317851
-0.0121951
0.831235
-0.0211124
1.21629
-0.0323121
1.50652
-0.0455357
1.77332
-0.060473
2.04371
-0.0769728
2.33214
-0.0952275
2.63412
-0.115525
2.94019
-0.134319
3.22845
-0.143246
2.91253
-0.135755
2.19747
-0.115106
1.68296
-0.0898991
1.31583
-0.0655464
1.04662
-0.0489596
0.82968
-0.0331564
0.615147
-0.0163057
0.383768
-0.00418763
0.169522
0.0302751
-0.00505995
0.32291
-0.0125125
0.838687
-0.0213699
1.22514
-0.0323308
1.51748
-0.0451771
1.78617
-0.0596199
2.05815
-0.0758846
2.34841
-0.0944674
2.6527
-0.115836
2.96156
-0.137305
3.24991
-0.149494
2.92472
-0.147267
2.19524
-0.132985
1.66868
-0.104481
1.28733
-0.0733409
1.01548
-0.0467989
0.803138
-0.0292808
0.597629
-0.015299
0.369786
-0.00306493
0.157288
0.0272102
-0.00507592
0.327986
-0.0127014
0.846313
-0.0214839
1.23393
-0.0320664
1.52807
-0.0443655
1.79846
-0.0583066
2.07209
-0.0744402
2.36454
-0.0932643
2.67152
-0.114929
2.98322
-0.136653
3.27164
-0.15103
2.9391
-0.153176
2.19739
-0.142104
1.65761
-0.118984
1.26421
-0.0817687
0.978263
-0.0463348
0.767704
-0.0235207
0.574815
-0.00834826
0.354613
-0.000972049
0.149912
0.0262381
-0.00494925
0.332936
-0.0125628
0.853927
-0.0212088
1.24257
-0.0314027
1.53826
-0.043108
1.81017
-0.056658
2.08564
-0.072709
2.38059
-0.0918767
2.69069
-0.114507
3.00585
-0.138522
3.29565
-0.155523
2.9561
-0.160919
2.20278
-0.154971
1.65166
-0.134075
1.24331
-0.0994275
0.943615
-0.0478877
0.716164
-0.00638084
0.533308
0.0125571
0.335675
0.00787078
0.154598
0.0341089
-0.00478977
0.337725
-0.0124384
0.861575
-0.0209515
1.25108
-0.0305651
1.54787
-0.0414994
1.8211
-0.0548342
2.09898
-0.0709277
2.39668
-0.0904433
2.71021
-0.113247
3.02866
-0.136575
3.31898
-0.155219
2.97474
-0.164989
2.21255
-0.160357
1.64703
-0.145349
1.2283
-0.113219
0.911486
-0.0633302
0.666275
0.0081635
0.461814
0.0561788
0.28766
0.0450733
0.165704
0.0791822
-0.00454987
0.342275
-0.0115958
0.868621
-0.0194624
1.25895
-0.0289819
1.55739
-0.0405647
1.83269
-0.0543343
2.11275
-0.0709889
2.41334
-0.0911009
2.73032
-0.114403
3.05196
-0.139316
3.34389
-0.161031
2.99646
-0.170852
2.22238
-0.170599
1.64678
-0.154316
1.21202
-0.127275
0.884445
-0.0692416
0.608242
0.0218393
0.370734
0.108424
0.201075
0.127396
0.146731
0.206579
-0.00445174
0.346727
-0.0112356
0.875405
-0.018887
1.2666
-0.0285243
1.56703
-0.0405119
1.84467
-0.0549358
2.12717
-0.072769
2.43117
-0.0947177
2.75227
-0.120616
3.07786
-0.148638
3.37192
-0.173467
3.02129
-0.190987
2.2399
-0.195041
1.65083
-0.184513
1.20149
-0.15103
0.850961
-0.110878
0.56809
-0.13342
0.393275
-0.39694
0.464596
-0.978275
0.728066
0.920076
-1.69177
-0.00430417
0.351031
-0.0109591
0.88206
-0.0184924
1.27414
-0.0276733
1.57621
-0.0390887
1.85609
-0.0536703
2.14175
-0.0719433
2.44945
-0.0946641
2.77499
-0.122123
3.10532
-0.15415
3.40394
-0.187052
3.05419
-0.211136
2.26398
-0.227743
1.66744
-0.230593
1.20434
-0.225398
0.845766
-0.32179
0.664483
-0.749182
0.820666
-1.46856
1.18398
-2.06649
1.326
1.21234
-2.35876
-0.00410234
0.355134
-0.0106166
0.888574
-0.0179109
1.28143
-0.0265803
1.58488
-0.0377987
1.86731
-0.0526362
2.15659
-0.0713078
2.46812
-0.0948603
2.79854
-0.124055
3.13451
-0.15896
3.43885
-0.19454
3.08977
-0.227576
2.29701
-0.255189
1.69505
-0.273114
1.22227
-0.386817
0.959469
-0.829943
1.10761
-1.57592
1.56664
-2.12016
1.72821
-2.34752
1.55336
1.31867
-2.45385
-0.00351456
0.358648
-0.0100988
0.895158
-0.0170577
1.28839
-0.0249883
1.59281
-0.036254
1.87857
-0.0515639
2.1719
-0.0705037
2.48706
-0.0946896
2.82273
-0.125443
3.16527
-0.164839
3.47824
-0.210831
3.13576
-0.252973
2.33916
-0.293813
1.73589
-0.394179
1.32263
-0.742552
1.30784
-1.46413
1.82919
-2.03492
2.13743
-2.26661
1.9599
-2.37553
1.66228
1.38659
-2.44344
-0.0025875
0.361236
-0.00803315
0.900604
-0.0146769
1.29503
-0.0233994
1.60153
-0.0354653
1.89064
-0.0506735
2.18711
-0.0694929
2.50588
-0.0942557
2.84749
-0.126816
3.19783
-0.169179
3.52061
-0.217885
3.18447
-0.272353
2.39362
-0.343025
1.80656
-0.552832
1.53244
-1.16488
1.91989
-1.83141
2.49572
-2.13806
2.44407
-2.27943
2.10128
-2.35998
1.74283
1.44616
-2.41955
-0.00197655
0.363212
-0.00603917
0.904667
-0.0128433
1.30184
-0.0230672
1.61176
-0.0360287
1.9036
-0.0512743
2.20235
-0.0705532
2.52516
-0.0962376
2.87317
-0.130421
3.23201
-0.177904
3.56809
-0.236053
3.24262
-0.293573
2.45114
-0.416373
1.92936
-0.815698
1.93177
-1.53958
2.64377
-1.98536
2.9415
-2.16559
2.6243
-2.25938
2.19507
-2.33059
1.81403
1.50574
-2.39017
-0.00185418
0.365066
-0.00636093
0.909173
-0.0136891
1.30917
-0.0243109
1.62238
-0.0377403
1.91703
-0.0535888
2.2182
-0.0735785
2.54514
-0.100499
2.90009
-0.137166
3.26868
-0.188444
3.61937
-0.250482
3.30465
-0.332743
2.53341
-0.547335
2.14396
-1.11441
2.49884
-1.72386
3.25322
-1.98074
3.19838
-2.11674
2.7603
-2.21925
2.29758
-2.30314
1.89793
1.56769
-2.36509
-0.00193484
0.367001
-0.00713302
0.914372
-0.0149266
1.31696
-0.0256112
1.63306
-0.0393213
1.93074
-0.0558638
2.23475
-0.0767662
2.56605
-0.104853
2.92818
-0.14307
3.30689
-0.198799
3.6751
-0.268284
3.37414
-0.372514
2.63764
-0.681883
2.45332
-1.33594
3.1529
-1.79106
3.70834
-1.98713
3.39445
-2.12012
2.89329
-2.22333
2.40079
-2.30398
1.97858
1.60122
-2.33751
-0.00221266
0.369214
-0.00793467
0.920094
-0.0163039
1.32533
-0.0273026
1.64406
-0.0412453
1.94468
-0.0582798
2.25178
-0.0798887
2.58766
-0.109096
2.95739
-0.150038
3.34784
-0.209748
3.73481
-0.284426
3.44882
-0.430405
2.78361
-0.843505
2.86642
-1.47416
3.78355
-1.80442
4.03861
-1.96417
3.55419
-2.06269
2.99182
-2.14805
2.48615
-2.20551
2.03603
1.54494
-2.14922
-0.00237218
0.371586
-0.00834747
0.926069
-0.0172014
1.33418
-0.028699
1.65556
-0.0430639
1.95905
-0.0606247
2.26934
-0.0830165
2.61005
-0.113275
2.98765
-0.155626
3.39019
-0.220263
3.79944
-0.316389
3.54494
-0.512531
2.97976
-0.977602
3.33149
-1.52215
4.3281
-1.77736
4.29382
-1.92674
3.70356
-2.01111
3.07619
-2.02642
2.50146
-1.95351
1.96312
1.48778
-1.89636
-0.00240255
0.373989
-0.00875506
0.932421
-0.0180597
1.34349
-0.0299933
1.66749
-0.0446785
1.97373
-0.062482
2.28714
-0.0851504
2.63272
-0.115416
3.01791
-0.158069
3.43284
-0.220615
3.86199
-0.322418
3.64674
-0.555156
3.21249
-1.05853
3.83487
-1.48366
4.75323
-1.65384
4.46401
-1.73928
3.789
-1.77878
3.1157
-1.6532
2.37587
-1.14509
1.45501
0.342692
-0.00212751
0.376116
-0.00844906
0.938743
-0.0181902
1.35323
-0.0310044
1.68031
-0.0467777
1.98951
-0.0657565
2.30612
-0.0902088
2.65717
-0.123072
3.05078
-0.168894
3.47866
-0.236172
3.92927
-0.354532
3.7651
-0.633409
3.49137
-1.19446
4.39592
-1.54563
5.1044
-1.66555
4.58392
-1.70249
3.82594
-1.60982
3.02303
-1.27661
2.04266
-0.496401
0.674796
-0.153709
-0.00188206
0.377998
-0.0084507
0.945312
-0.0186413
1.36342
-0.0318536
1.69352
-0.0483455
2.006
-0.0687528
2.32653
-0.0950942
2.68351
-0.12999
3.08567
-0.178932
3.5276
-0.253683
4.00402
-0.395448
3.90687
-0.742194
3.83812
-1.30838
4.9621
-1.55917
5.3552
-1.63206
4.65681
-1.61288
3.80676
-1.37206
2.78221
-0.671834
1.34243
-0.0191023
0.0220649
-0.172811
-0.00118383
0.379182
-0.00748959
0.951617
-0.0179653
1.37389
-0.0318479
1.7074
-0.0492728
2.02342
-0.0708414
2.3481
-0.0987579
2.71143
-0.135754
3.12267
-0.186084
3.57793
-0.273708
4.09164
-0.448237
4.0814
-0.841296
4.23118
-1.36962
5.49043
-1.54675
5.53233
-1.59252
4.70258
-1.48336
3.6976
-1.02259
2.32144
-0.202167
0.522013
0.0302966
-0.210399
-0.142514
-0.000446762
0.379629
-0.00642614
0.957597
-0.0169875
1.38446
-0.0310333
1.72145
-0.0489042
2.0413
-0.0718166
2.37101
-0.102009
2.74162
-0.141361
3.16202
-0.193544
3.63012
-0.287848
4.18595
-0.489135
4.28269
-0.944026
4.68607
-1.40254
5.94894
-1.51913
5.64892
-1.50954
4.69299
-1.23974
3.42779
-0.55491
1.63662
-0.0083895
-0.0245083
0.0200732
-0.238861
-0.122441
0.00086511
0.378764
-0.00400445
0.962466
-0.01443
1.39488
-0.0288876
1.73591
-0.0474131
2.05982
-0.0712042
2.3948
-0.102901
2.77331
-0.144028
3.20315
-0.196446
3.68253
-0.293824
4.28333
-0.51541
4.50427
-1.01863
5.18929
-1.36925
6.29955
-1.42729
5.70697
-1.35822
4.62392
-1.00277
3.07234
-0.213247
0.847093
0.0197702
-0.257525
0.0137203
-0.232812
-0.108721
0.00232722
0.376436
-0.00121808
0.966012
-0.0110428
1.40471
-0.0250358
1.7499
-0.0432649
2.07805
-0.0676927
2.41923
-0.101311
2.80693
-0.145356
3.24719
-0.200102
3.73728
-0.296095
4.37932
-0.539242
4.74742
-1.06296
5.71301
-1.31735
6.55394
-1.35033
5.73994
-1.17825
4.45185
-0.65148
2.54557
0.0210105
0.174603
0.0502286
-0.286743
0.0261633
-0.208746
-0.0825577
0.00483577
0.371601
0.00354648
0.967301
-0.00523112
1.41348
-0.0190895
1.76376
-0.0371883
2.09615
-0.0614769
2.44352
-0.0960732
2.84153
-0.141409
3.29253
-0.1983
3.79417
-0.295374
4.47639
-0.553064
5.00511
-1.04526
6.20521
-1.22498
6.73366
-1.22669
5.74165
-0.953361
4.17851
-0.325941
1.91815
0.0383301
-0.189667
0.0552896
-0.303703
0.0346936
-0.18815
-0.047864
0.0078186
0.363782
0.00914974
0.96597
0.00212005
1.42051
-0.010458
1.77634
-0.0271241
2.11281
-0.050241
2.46664
-0.0842743
2.87556
-0.131339
3.33959
-0.193251
3.85608
-0.286418
4.56956
-0.538167
5.25686
-0.979927
6.64697
-1.11787
6.87161
-1.10859
5.73237
-0.849704
3.91963
-0.184315
1.25276
-0.0624134
-0.311569
-0.00311301
-0.363003
0.0295644
-0.220828
-0.0182996
0.0123751
0.351407
0.0181692
0.960175
0.0136911
1.42499
0.00214368
1.78788
-0.0134224
2.12838
-0.0343754
2.48759
-0.0666786
2.90787
-0.113674
3.38659
-0.180682
3.92309
-0.275849
4.66473
-0.494094
5.4751
-0.833699
6.98657
-0.93113
6.96904
-0.924412
5.72565
-0.661143
3.65636
-0.0883935
0.680008
-0.112851
-0.287111
-0.0729452
-0.402909
8.77867e-05
-0.293861
-0.0182118
0.017529
0.333878
0.0285732
0.949131
0.0276336
1.42593
0.0184351
1.79708
0.00486488
2.14195
-0.0126687
2.50512
-0.039383
2.93458
-0.082717
3.42992
-0.150757
3.99113
-0.25063
4.7646
-0.422192
5.64667
-0.654676
7.21906
-0.751516
7.06588
-0.761699
5.73584
-0.507481
3.40214
-0.286396
0.458923
-0.333408
-0.240099
-0.242732
-0.493585
-0.110645
-0.425948
-0.128856
0.0247413
0.309137
0.0439082
0.929964
0.0482892
1.42155
0.042021
1.80335
0.0304616
2.15351
0.0165704
2.51901
-0.00186049
2.95301
-0.0360283
3.46409
-0.103068
4.05817
-0.19317
4.8547
-0.298518
5.75201
-0.418696
7.33924
-0.497066
7.14425
-0.538064
5.77683
-0.392641
3.25672
-0.484654
0.550936
-0.544469
-0.180284
-0.414416
-0.623638
-0.221155
-0.619209
-0.350011
0.0324853
0.276651
0.0609126
0.901537
0.0722693
1.41019
0.0703273
1.80529
0.0618916
2.16195
0.051305
2.5296
0.0411983
2.96312
0.0247813
3.48051
-0.020594
4.10354
-0.094505
4.92861
-0.145206
5.80271
-0.161131
7.35516
-0.105407
7.08852
-0.112007
5.78343
-0.17946
3.32417
-0.39135
0.762826
-0.431246
-0.140389
-0.382827
-0.672057
-0.205677
-0.796359
-0.555688
0.0416933
0.234958
0.0826887
0.860542
0.103231
1.38965
0.108241
1.80028
0.10582
2.16437
0.0989007
2.53652
0.0971732
2.96485
0.0984084
3.47927
0.085992
4.11596
0.0398956
4.97471
0.0874962
5.75511
0.206333
7.23633
0.353016
6.94184
0.449543
5.68691
0.201528
3.57219
-0.128957
1.09331
-0.215669
-0.0536769
-0.266018
-0.621708
-0.151534
-0.910843
-0.707223
0.0501315
0.184827
0.106083
0.80459
0.139018
1.35672
0.15272
1.78658
0.157819
2.15927
0.155194
2.53914
0.159802
2.96024
0.179273
3.4598
0.20654
4.08869
0.219835
4.96141
0.36061
5.61434
0.698671
6.89826
0.929395
6.71111
1.11732
5.49898
0.861586
3.82793
0.349392
1.6055
0.0403616
0.255354
-0.126486
-0.45486
-0.122175
-0.915154
-0.829398
0.054768
0.130059
0.129993
0.729365
0.179636
1.30707
0.205316
1.7609
0.220442
2.14414
0.226462
2.53312
0.238369
2.94833
0.27233
3.42584
0.336012
4.02501
0.439323
4.8581
0.730632
5.32303
1.2659
6.36299
1.61029
6.36673
1.92296
5.18631
1.87121
3.87967
1.31846
2.15826
0.768457
0.805357
0.353303
-0.0397069
0.0649071
-0.626757
-0.764491
0.0509577
0.0791008
0.153545
0.626778
0.227495
1.23312
0.267843
1.72055
0.292104
2.11988
0.309413
2.51582
0.33001
2.92773
0.375366
3.38049
0.472874
3.9275
0.636446
4.69453
1.01532
4.94416
1.75111
5.6272
2.10261
6.01523
2.34671
4.94221
2.41074
3.81564
1.99575
2.57324
1.38925
1.41186
0.803522
0.546024
0.325351
-0.148587
-0.439139
0.0418097
0.0372912
0.172903
0.495684
0.273992
1.13204
0.332003
1.66254
0.367407
2.08448
0.398176
2.48505
0.426841
2.89907
0.473055
3.33427
0.584221
3.81634
0.75528
4.52347
1.05223
4.64721
1.82757
4.85186
2.25677
5.58603
2.46058
4.7384
2.50957
3.76664
2.21115
2.87167
1.66457
1.95844
1.05269
1.1579
0.462188
0.44192
0.0230485
0.0324968
0.00479436
0.194811
0.333369
0.325279
1.00157
0.405897
1.58192
0.454247
2.03613
0.49496
2.44433
0.530179
2.86385
0.565516
3.29894
0.639746
3.74211
0.798362
4.36485
0.994485
4.45109
1.50961
4.33674
1.98186
5.11378
2.0543
4.66597
1.96898
3.85196
1.72901
3.11163
1.33842
2.34903
0.898203
1.59812
0.411277
0.928846
0.434326
0.0280267
-0.0232324
0.185519
0.175877
0.363255
0.823832
0.475447
1.46973
0.53796
1.97361
0.589022
2.39327
0.631471
2.8214
0.661956
3.26845
0.682893
3.72117
0.805394
4.24235
0.925167
4.33131
1.11905
4.14285
1.44054
4.79229
1.41794
4.68856
1.26171
4.00819
1.09505
3.2783
0.871807
2.57227
0.600066
1.86986
0.264477
1.26443
0.698803
0.0320268
-0.0552592
0.126212
0.0816917
0.30035
0.649694
0.430261
1.33982
0.503588
1.90029
0.543703
2.35316
0.56404
2.80106
0.569492
3.263
0.543693
3.74697
0.541403
4.24464
0.561926
4.31079
0.579357
4.12542
0.614563
4.75708
0.608027
4.6951
0.572496
4.04372
0.500372
3.35042
0.391702
2.68094
0.254279
2.00729
0.0966782
1.42203
0.795481
0.0158771
-0.0711362
0.0314313
0.0661375
0.120726
0.560399
0.221054
1.23949
0.301475
1.81987
0.357456
2.29718
0.391647
2.76687
0.414394
3.24025
0.407003
3.75436
0.351012
4.30064
0.344242
4.31756
0.382549
4.08711
0.47145
4.66818
0.517041
4.64951
0.461728
4.09904
0.369413
3.44274
0.254861
2.79549
0.126211
2.13594
0.0165351
1.53171
0.812016
-0.00566012
-0.0654761
-0.0245578
0.0850351
-0.00147566
0.537317
0.0582647
1.17975
0.122653
1.75548
0.184157
2.23567
0.235413
2.71561
0.268703
3.20696
0.275741
3.74732
0.211798
4.36458
0.200876
4.32848
0.257742
4.03025
0.304982
4.62094
0.30908
4.64541
0.261004
4.14711
0.189242
3.5145
0.10513
2.8796
0.0266251
2.21444
-0.0311123
1.58945
0.780904
-0.0254138
-0.0400623
-0.0708329
0.130454
-0.0857972
0.552281
-0.0495521
1.14351
0.00951828
1.69641
0.0661345
2.17906
0.118734
2.66302
0.146706
3.17899
0.160095
3.73393
0.113442
4.41123
0.0839468
4.35798
0.136657
3.97754
0.179892
4.57771
0.153959
4.67134
0.104478
4.19659
0.0448876
3.57409
-0.0145064
2.939
-0.0621064
2.26204
-0.0680079
1.59535
0.712896
-0.0368574
-0.00320491
-0.0995001
0.193097
-0.133379
0.586161
-0.10926
1.11939
-0.0517313
1.63888
0.00442205
2.1229
0.0562407
2.6112
0.0810347
3.15419
0.0970845
3.71788
0.0613038
4.44701
-0.00440577
4.42369
0.00939469
3.96374
0.0559292
4.53117
0.0310968
4.69617
-0.00636382
4.23405
-0.0464229
3.61415
-0.0756851
2.96826
-0.0985406
2.2849
-0.0797725
1.57658
0.633124
-0.0387341