/*--------------------------------*- C++ -*----------------------------------*\
  =========                 |
  \\      /  F ield         | OpenFOAM: The Open Source CFD Toolbox
   \\    /   O peration     | Website:  https://openfoam.org
    \\  /    A nd           | Version:  6
     \\/     M anipulation  |
\*---------------------------------------------------------------------------*/
FoamFile
{
    version     2.0;
    format      ascii;
    class       volVectorField;
    location    "25";
    object      U;
}
// * * * * * * * * * * * * * * * * * * * * * * * * * * * * * * * * * * * * * //

dimensions      [0 1 -1 0 0 0 0];

internalField   nonuniform List<vector> 
2200
(
(0.877701 -0.0201832 0)
(1.0048 -0.0399595 0)
(1.00277 -0.0341702 0)
(1.00006 -0.0229715 0)
(0.999576 -0.0153294 0)
(0.999831 -0.0100626 0)
(1.00004 -0.00639776 0)
(1.00013 -0.00394652 0)
(1.00019 -0.00214963 0)
(1.00011 -0.000602826 0)
(1.00011 0.000863529 0)
(1.00016 0.00238767 0)
(1.0001 0.00415698 0)
(0.999987 0.00653718 0)
(0.999781 0.0102418 0)
(0.999544 0.0154008 0)
(1.00009 0.0230595 0)
(1.00287 0.0342413 0)
(1.00481 0.0399836 0)
(0.87771 0.0202059 0)
(0.700892 -0.026577 0)
(0.993688 -0.058629 0)
(1.03012 -0.059825 0)
(1.02216 -0.0491023 0)
(1.01405 -0.036212 0)
(1.00833 -0.0247724 0)
(1.00485 -0.0164303 0)
(1.00292 -0.0105732 0)
(1.00183 -0.00604586 0)
(1.00166 -0.00191735 0)
(1.00156 0.00248095 0)
(1.00175 0.00659538 0)
(1.0028 0.0111618 0)
(1.00482 0.0169974 0)
(1.00828 0.0251956 0)
(1.01399 0.0366778 0)
(1.02205 0.049435 0)
(1.02986 0.0600109 0)
(0.993519 0.0587864 0)
(0.700626 0.0266108 0)
(0.530504 -0.0213206 0)
(0.966398 -0.0551813 0)
(1.05259 -0.060661 0)
(1.04853 -0.0535236 0)
(1.03263 -0.0419812 0)
(1.02132 -0.0321883 0)
(1.01368 -0.0233566 0)
(1.00901 -0.0154137 0)
(1.00638 -0.00861558 0)
(1.00529 -0.00249092 0)
(1.00531 0.00366849 0)
(1.00646 0.00977106 0)
(1.00894 0.0163949 0)
(1.01339 0.0243003 0)
(1.02096 0.0329986 0)
(1.03225 0.0426044 0)
(1.04814 0.053981 0)
(1.05228 0.0610626 0)
(0.965823 0.0553853 0)
(0.529709 0.0213888 0)
(0.394009 -0.0133038 0)
(0.910539 -0.044985 0)
(1.05604 -0.0507717 0)
(1.06608 -0.0464055 0)
(1.05072 -0.0384843 0)
(1.03555 -0.0314134 0)
(1.02451 -0.0244438 0)
(1.01675 -0.0173269 0)
(1.01214 -0.0104905 0)
(1.00985 -0.00311019 0)
(1.00969 0.00486607 0)
(1.0116 0.0121331 0)
(1.0162 0.0188496 0)
(1.02401 0.0256248 0)
(1.03501 0.0324411 0)
(1.05006 0.0393476 0)
(1.06535 0.0471541 0)
(1.05499 0.0512581 0)
(0.909165 0.0452943 0)
(0.392419 0.0134102 0)
(0.310552 -0.00606413 0)
(0.847286 -0.0330992 0)
(1.04842 -0.042658 0)
(1.07722 -0.0390207 0)
(1.06506 -0.0327236 0)
(1.04867 -0.0266379 0)
(1.03569 -0.0213535 0)
(1.02601 -0.0161713 0)
(1.01974 -0.0103199 0)
(1.01533 -0.00308098 0)
(1.01516 0.00507626 0)
(1.01933 0.0122783 0)
(1.02538 0.0180133 0)
(1.03489 0.0231612 0)
(1.04769 0.0281415 0)
(1.06406 0.0340399 0)
(1.07613 0.0400547 0)
(1.04687 0.0433975 0)
(0.844858 0.0335105 0)
(0.308114 0.00617941 0)
(0.267088 -0.00170184 0)
(0.79026 -0.0216211 0)
(1.0331 -0.0335679 0)
(1.08234 -0.0317155 0)
(1.07522 -0.0267747 0)
(1.05827 -0.0217975 0)
(1.04532 -0.018595 0)
(1.03599 -0.0146968 0)
(1.02907 -0.00881032 0)
(1.02366 -0.0018253 0)
(1.02347 0.00496106 0)
(1.02842 0.0117631 0)
(1.03492 0.0173366 0)
(1.04394 0.0207853 0)
(1.05681 0.0237611 0)
(1.07376 0.0284512 0)
(1.08046 0.0330228 0)
(1.03042 0.0345 0)
(0.786283 0.022052 0)
(0.263754 0.00183759 0)
(0.243132 -0.000305602 0)
(0.741103 -0.0134528 0)
(1.01381 -0.0256859 0)
(1.08301 -0.0253505 0)
(1.0817 -0.0219019 0)
(1.06635 -0.0182438 0)
(1.05327 -0.0160541 0)
(1.04342 -0.0130011 0)
(1.03519 -0.0071561 0)
(1.03002 -0.000660502 0)
(1.02941 0.00463795 0)
(1.03381 0.0108868 0)
(1.04166 0.0162588 0)
(1.05147 0.0189942 0)
(1.06442 0.0207503 0)
(1.07928 0.0238228 0)
(1.08012 0.0269378 0)
(1.00977 0.0267054 0)
(0.735425 0.0139759 0)
(0.238846 0.0004877 0)
(0.229032 8.53618e-05 0)
(0.700364 -0.0090306 0)
(0.993931 -0.0207509 0)
(1.08113 -0.021634 0)
(1.08583 -0.0189895 0)
(1.07311 -0.0160131 0)
(1.0606 -0.0134728 0)
(1.05035 -0.00988102 0)
(1.04156 -0.00456399 0)
(1.03708 0.000502811 0)
(1.03662 0.00455892 0)
(1.04029 0.00929408 0)
(1.04858 0.0140708 0)
(1.058 0.0170205 0)
(1.06999 0.0190451 0)
(1.08264 0.0216685 0)
(1.07733 0.0236308 0)
(0.988341 0.0221199 0)
(0.692583 0.00972667 0)
(0.223558 0.000131675 0)
(0.219692 0.000430247 0)
(0.666408 -0.00621658 0)
(0.974936 -0.0181187 0)
(1.07811 -0.0199439 0)
(1.08823 -0.0176663 0)
(1.07695 -0.0145629 0)
(1.06503 -0.0114525 0)
(1.05536 -0.00741137 0)
(1.04801 -0.00288986 0)
(1.04427 0.00116655 0)
(1.04365 0.00505284 0)
(1.04605 0.00866155 0)
(1.0523 0.0127591 0)
(1.06141 0.0161222 0)
(1.07332 0.0185439 0)
(1.0839 0.0209376 0)
(1.07254 0.0225804 0)
(0.966609 0.0198772 0)
(0.655555 0.00707957 0)
(0.212652 -0.000159023 0)
(0.21294 0.000621291 0)
(0.638623 -0.00352139 0)
(0.956732 -0.015113 0)
(1.07484 -0.0177855 0)
(1.08981 -0.0155623 0)
(1.07885 -0.0125409 0)
(1.06641 -0.00966545 0)
(1.05674 -0.00578487 0)
(1.04993 -0.00198207 0)
(1.04588 0.00173487 0)
(1.04492 0.00603265 0)
(1.04734 0.00940348 0)
(1.05287 0.0123958 0)
(1.06198 0.0155037 0)
(1.07392 0.0173204 0)
(1.08399 0.0192484 0)
(1.06751 0.02068 0)
(0.946159 0.0171239 0)
(0.624991 0.00448375 0)
(0.204197 -0.0002815 0)
(0.209063 0.000583447 0)
(0.619592 -0.000934458 0)
(0.941707 -0.0104308 0)
(1.07207 -0.0129822 0)
(1.09171 -0.0110039 0)
(1.08137 -0.00925532 0)
(1.06805 -0.00765358 0)
(1.05791 -0.00427412 0)
(1.05082 -0.000902422 0)
(1.04609 0.00286232 0)
(1.04501 0.00717326 0)
(1.04791 0.0102769 0)
(1.05376 0.0125707 0)
(1.06267 0.0145878 0)
(1.07481 0.0152695 0)
(1.08412 0.0161501 0)
(1.06212 0.0170214 0)
(0.926958 0.012937 0)
(0.601762 0.00226999 0)
(0.19784 -0.000127919 0)
(0.207825 0.000411403 0)
(0.608646 0.000544397 0)
(0.929373 -0.00573448 0)
(1.06957 -0.00797534 0)
(1.0943 -0.00655597 0)
(1.08516 -0.00553416 0)
(1.07161 -0.00424232 0)
(1.06066 -0.00173148 0)
(1.05282 0.000876773 0)
(1.04758 0.00424239 0)
(1.04633 0.0080206 0)
(1.04932 0.0105813 0)
(1.05537 0.0119912 0)
(1.06489 0.0130114 0)
(1.07748 0.0132387 0)
(1.08455 0.0129771 0)
(1.05661 0.0126981 0)
(0.910902 0.00871143 0)
(0.586913 0.00115528 0)
(0.193767 0.000119947 0)
(0.208409 0.000295356 0)
(0.605075 0.00112305 0)
(0.92152 -0.00217024 0)
(1.06753 -0.004053 0)
(1.09679 -0.00330615 0)
(1.08914 -0.00236207 0)
(1.07605 -0.000794824 0)
(1.06548 0.0012286 0)
(1.05736 0.00321995 0)
(1.05135 0.00582609 0)
(1.04947 0.00868203 0)
(1.05191 0.01052 0)
(1.0575 0.0114283 0)
(1.06607 0.0122084 0)
(1.07791 0.0120209 0)
(1.08375 0.0113969 0)
(1.05031 0.0102288 0)
(0.897032 0.0063607 0)
(0.576688 0.00111791 0)
(0.190641 0.000296235 0)
(0.21002 0.000327348 0)
(0.605098 0.00130844 0)
(0.91633 -0.000360607 0)
(1.06563 -0.00176841 0)
(1.0984 -0.00125314 0)
(1.09185 -0.000100146 0)
(1.07914 0.00189739 0)
(1.06925 0.00383494 0)
(1.06147 0.00580204 0)
(1.05568 0.00828048 0)
(1.05306 0.0105058 0)
(1.05395 0.0118147 0)
(1.05812 0.0123022 0)
(1.06578 0.0124092 0)
(1.07724 0.0118174 0)
(1.0812 0.0107229 0)
(1.0431 0.00899406 0)
(0.885386 0.00533776 0)
(0.568973 0.00142953 0)
(0.187635 0.000377932 0)
(0.212501 0.000538066 0)
(0.6065 0.00155602 0)
(0.914636 0.00132889 0)
(1.0648 0.00071283 0)
(1.09919 0.00127792 0)
(1.09328 0.00219431 0)
(1.08076 0.00403932 0)
(1.07084 0.00583493 0)
(1.06299 0.00804529 0)
(1.0573 0.0106754 0)
(1.05418 0.012769 0)
(1.05438 0.0138715 0)
(1.05787 0.0138287 0)
(1.06491 0.0131987 0)
(1.07556 0.0121224 0)
(1.07789 0.0108656 0)
(1.03669 0.00866772 0)
(0.875642 0.00504985 0)
(0.561553 0.0016391 0)
(0.184206 0.000425282 0)
(0.215512 0.000728726 0)
(0.609974 0.00224074 0)
(0.915497 0.00295665 0)
(1.06511 0.00292561 0)
(1.10054 0.00385812 0)
(1.09484 0.00514782 0)
(1.08249 0.00689639 0)
(1.07193 0.00886056 0)
(1.06341 0.0112164 0)
(1.05709 0.013768 0)
(1.0532 0.0156995 0)
(1.05275 0.016592 0)
(1.0561 0.0160774 0)
(1.06274 0.014899 0)
(1.07203 0.0133781 0)
(1.07291 0.0112205 0)
(1.02872 0.00827574 0)
(0.865461 0.00471526 0)
(0.554167 0.00182255 0)
(0.180659 0.000527513 0)
(0.221172 0.000931705 0)
(0.618178 0.00311663 0)
(0.919239 0.00470319 0)
(1.06697 0.00572702 0)
(1.10254 0.00675481 0)
(1.09758 0.00801478 0)
(1.08568 0.00996063 0)
(1.0749 0.0122629 0)
(1.06593 0.0147274 0)
(1.05859 0.0172246 0)
(1.05356 0.0189939 0)
(1.05194 0.0196211 0)
(1.05442 0.0188471 0)
(1.06043 0.0170804 0)
(1.06858 0.0150485 0)
(1.06835 0.0124125 0)
(1.02192 0.00899614 0)
(0.856884 0.00527659 0)
(0.546808 0.00227502 0)
(0.176709 0.000670741 0)
(0.226454 0.00106634 0)
(0.625071 0.00338325 0)
(0.923734 0.00568193 0)
(1.0696 0.00701766 0)
(1.10582 0.0084863 0)
(1.10145 0.0106249 0)
(1.09004 0.0130617 0)
(1.07941 0.0159671 0)
(1.07008 0.0190889 0)
(1.06174 0.0219976 0)
(1.05516 0.0238474 0)
(1.05202 0.0242831 0)
(1.05274 0.0233602 0)
(1.0575 0.0211459 0)
(1.06383 0.0184659 0)
(1.06132 0.0147375 0)
(1.01146 0.0103926 0)
(0.844659 0.00603602 0)
(0.537113 0.00289571 0)
(0.17172 0.000861286 0)
(0.235033 0.00138732 0)
(0.638787 0.00461773 0)
(0.9329 0.00784245 0)
(1.07399 0.0100948 0)
(1.10923 0.0117126 0)
(1.10572 0.0136377 0)
(1.09474 0.0166361 0)
(1.08396 0.0203108 0)
(1.07393 0.024269 0)
(1.06422 0.0277245 0)
(1.05587 0.0298688 0)
(1.05119 0.03006 0)
(1.05032 0.0286205 0)
(1.05356 0.0255094 0)
(1.05806 0.0220942 0)
(1.05364 0.0175227 0)
(1.00204 0.012425 0)
(0.8347 0.00761997 0)
(0.527216 0.00372474 0)
(0.165791 0.00106102 0)
(0.243585 0.00170881 0)
(0.651209 0.0052364 0)
(0.94214 0.00932593 0)
(1.07934 0.0124102 0)
(1.11357 0.0148956 0)
(1.11057 0.0182294 0)
(1.09988 0.0220876 0)
(1.08881 0.0265084 0)
(1.07771 0.0311242 0)
(1.0662 0.0350928 0)
(1.05597 0.0372634 0)
(1.04941 0.0368545 0)
(1.04678 0.0346743 0)
(1.04817 0.0309599 0)
(1.05055 0.0263276 0)
(1.04304 0.0208167 0)
(0.987688 0.0147044 0)
(0.817778 0.00886366 0)
(0.512177 0.00445551 0)
(0.157792 0.00128209 0)
(0.256685 0.00233981 0)
(0.671039 0.00752287 0)
(0.956817 0.0127835 0)
(1.08745 0.0172786 0)
(1.11955 0.0209032 0)
(1.11721 0.0246644 0)
(1.10671 0.0291727 0)
(1.09498 0.0345287 0)
(1.08212 0.0399238 0)
(1.06816 0.0441798 0)
(1.05514 0.0460774 0)
(1.04625 0.044947 0)
(1.04177 0.0414244 0)
(1.04109 0.0364272 0)
(1.04131 0.0304378 0)
(1.03147 0.0236481 0)
(0.974835 0.0167248 0)
(0.805026 0.0106922 0)
(0.498428 0.00541108 0)
(0.149343 0.00151253 0)
(0.27238 0.002871 0)
(0.694936 0.00881185 0)
(0.975436 0.0162485 0)
(1.09925 0.0224444 0)
(1.12856 0.0275667 0)
(1.126 0.0331442 0)
(1.11508 0.0394402 0)
(1.10211 0.0458952 0)
(1.08717 0.0518889 0)
(1.07043 0.0560413 0)
(1.05445 0.0571167 0)
(1.04292 0.0543009 0)
(1.03602 0.0491106 0)
(1.03285 0.0427223 0)
(1.0305 0.035596 0)
(1.01763 0.028214 0)
(0.956601 0.0203237 0)
(0.781734 0.0127083 0)
(0.47621 0.00638779 0)
(0.137829 0.00180383 0)
(0.293815 0.00419077 0)
(0.72609 0.0128696 0)
(0.99964 0.0216882 0)
(1.11478 0.0301218 0)
(1.14039 0.0369805 0)
(1.13716 0.0446896 0)
(1.12519 0.0522477 0)
(1.11018 0.0598717 0)
(1.0923 0.0664373 0)
(1.07167 0.0703047 0)
(1.05188 0.0699249 0)
(1.03716 0.0653909 0)
(1.02809 0.0584324 0)
(1.02276 0.0503459 0)
(1.01792 0.0414608 0)
(1.00247 0.0322461 0)
(0.939487 0.0232898 0)
(0.764132 0.0152852 0)
(0.457066 0.0078214 0)
(0.126328 0.00212299 0)
(0.324402 0.00528661 0)
(0.768884 0.0154574 0)
(1.03179 0.028143 0)
(1.13645 0.0393733 0)
(1.15741 0.0492907 0)
(1.15158 0.0595617 0)
(1.13683 0.0693613 0)
(1.11835 0.0785661 0)
(1.09629 0.0854302 0)
(1.0716 0.0883028 0)
(1.04835 0.0858617 0)
(1.03069 0.0787134 0)
(1.01851 0.0691641 0)
(1.01045 0.0590976 0)
(1.00344 0.0491018 0)
(0.985001 0.0390833 0)
(0.916294 0.0287082 0)
(0.731757 0.0183395 0)
(0.424241 0.00896111 0)
(0.110149 0.00244635 0)
(0.360461 0.00894834 0)
(0.820141 0.0245168 0)
(1.07206 0.0397451 0)
(1.1638 0.0549337 0)
(1.17812 0.0665033 0)
(1.16868 0.0803944 0)
(1.14947 0.092389 0)
(1.12629 0.102391 0)
(1.09936 0.108636 0)
(1.06995 0.109457 0)
(1.04204 0.103934 0)
(1.0209 0.094008 0)
(1.00686 0.0824952 0)
(0.996653 0.0702673 0)
(0.986755 0.0579639 0)
(0.964871 0.0457208 0)
(0.891662 0.0334983 0)
(0.705375 0.021912 0)
(0.398345 0.0111652 0)
(0.0958345 0.00286886 0)
(0.441806 0.0141158 0)
(0.899045 0.0338062 0)
(1.1257 0.0559904 0)
(1.19789 0.0751309 0)
(1.20527 0.0921915 1.41594e-34)
(1.18776 0.109924 -7.79237e-35)
(1.1623 0.123229 0)
(1.1332 0.132747 0)
(1.10071 0.137082 0)
(1.06619 0.134557 0)
(1.03488 0.125437 0)
(1.0108 0.112136 0)
(0.992866 0.0976327 0)
(0.979914 0.0834606 0)
(0.967849 0.0696547 0)
(0.941914 0.0557761 0)
(0.860504 0.041386 0)
(0.659202 0.026479 0)
(0.34813 0.0118303 0)
(0.0733993 0.00268955 0)
(0.504527 0.0286022 4.62817e-22)
(0.988884 0.0553846 -8.63867e-22)
(1.18378 0.0844223 0)
(1.23467 0.108142 4.17141e-21)
(1.23195 0.130846 -3.37955e-21)
(1.20549 0.149908 8.22131e-35)
(1.17332 0.162885 0)
(1.13768 0.170868 6.32022e-21)
(1.09943 0.172211 -2.21419e-20)
(1.05992 0.165834 4.7811e-21)
(1.02336 0.152595 0)
(0.994293 0.136028 -1.46812e-20)
(0.97446 0.119208 -1.81621e-20)
(0.958676 0.102424 3.19011e-20)
(0.941901 0.08624 -2.55446e-20)
(0.908688 0.0693372 0)
(0.814666 0.0510777 -9.64569e-21)
(0.599403 0.0330699 0)
(0.298613 0.0166003 -5.2321e-20)
(0.0561963 0.00330584 6.18914e-20)
(0.534598 0.0540986 -7.73345e-22)
(1.04315 0.092612 -2.23484e-20)
(1.22874 0.127022 8.49264e-21)
(1.26768 0.153438 6.45889e-21)
(1.25553 0.178737 -6.41225e-21)
(1.22062 0.197801 1.11842e-20)
(1.1814 0.209721 0)
(1.13926 0.215449 0)
(1.09545 0.213109 3.49595e-20)
(1.05043 0.20298 0)
(1.00752 0.186552 5.11277e-20)
(0.974278 0.167751 1.57511e-20)
(0.948853 0.148967 3.09686e-22)
(0.92852 0.131779 -3.55654e-20)
(0.908236 0.113606 0)
(0.870871 0.0936448 0)
(0.77422 0.0710635 -1.61581e-19)
(0.567218 0.0514633 4.04643e-19)
(0.286439 0.0249097 -2.40485e-19)
(0.0544484 0.00660935 -2.85029e-19)
(0.539918 0.0735766 5.6452e-20)
(1.07217 0.14014 -1.59212e-20)
(1.26185 0.182319 -3.57745e-21)
(1.29392 0.209604 -1.4602e-20)
(1.27393 0.234917 1.37243e-20)
(1.23173 0.252209 -2.52143e-20)
(1.18605 0.261161 1.23271e-20)
(1.1384 0.262892 0)
(1.08971 0.256291 -7.29981e-20)
(1.03925 0.243169 7.61886e-20)
(0.990804 0.224969 -1.39384e-19)
(0.952618 0.202556 6.73804e-20)
(0.924484 0.181512 -4.81333e-20)
(0.901976 0.163718 1.06095e-19)
(0.879077 0.146987 0)
(0.84021 0.125479 -4.10275e-20)
(0.746602 0.100486 0)
(0.55469 0.0712311 2.30599e-19)
(0.288445 0.0415532 -5.48175e-19)
(0.0633241 0.0111896 3.43938e-19)
(0.536299 0.105162 -2.89404e-19)
(1.09206 0.192497 1.14492e-19)
(1.28399 0.24255 1.8855e-20)
(1.31181 0.272014 0)
(1.28591 0.296584 4.96826e-21)
(1.23815 0.310787 -3.57011e-21)
(1.18753 0.315426 -1.35316e-20)
(1.13554 0.312086 0)
(1.08199 0.301266 5.16368e-20)
(1.02478 0.285263 -5.26304e-20)
(0.969732 0.263572 1.22528e-19)
(0.927627 0.238008 0)
(0.895503 0.215628 -1.01808e-19)
(0.869445 0.197426 5.63044e-20)
(0.844961 0.180565 1.50573e-19)
(0.80805 0.161139 -1.32537e-19)
(0.721594 0.13268 2.17183e-19)
(0.545853 0.0961274 -4.81544e-19)
(0.298501 0.0587047 3.05481e-19)
(0.0745438 0.0168386 -3.83098e-19)
(0.522806 0.132354 1.87018e-19)
(1.09747 0.24359 -1.37996e-19)
(1.29593 0.303575 5.909e-20)
(1.32148 0.336049 -7.71016e-20)
(1.29134 0.359877 4.87344e-20)
(1.23979 0.37089 -5.65713e-21)
(1.18577 0.370785 3.72476e-21)
(1.1304 0.3623 -4.13679e-20)
(1.07234 0.347819 -5.22847e-20)
(1.00954 0.328971 -1.13617e-19)
(0.95229 0.30345 -2.64428e-19)
(0.90875 0.275937 -8.71706e-20)
(0.873934 0.25263 2.57332e-21)
(0.846554 0.233131 -2.01314e-19)
(0.82112 0.215709 -6.30129e-21)
(0.783853 0.193359 1.9477e-19)
(0.703391 0.163344 -6.01837e-20)
(0.542534 0.122807 -3.50218e-20)
(0.309699 0.0768039 0)
(0.0838763 0.0232442 8.2188e-19)
(0.506202 0.156763 0)
(1.09365 0.292422 4.42934e-20)
(1.3005 0.363386 3.09349e-20)
(1.32471 0.399618 -1.21445e-20)
(1.29137 0.422989 -6.23892e-20)
(1.23721 0.430643 5.56816e-21)
(1.18102 0.425793 1.15055e-20)
(1.12294 0.412544 7.16006e-20)
(1.06056 0.394827 -3.09138e-20)
(0.992171 0.372267 5.1075e-20)
(0.930849 0.341901 1.42654e-19)
(0.882169 0.311252 1.92439e-19)
(0.84506 0.286629 -1.19378e-19)
(0.815089 0.26524 2.18668e-19)
(0.791296 0.247386 -1.75088e-19)
(0.760408 0.227356 0)
(0.688318 0.194424 -4.60164e-19)
(0.539287 0.149811 6.18774e-19)
(0.317247 0.0947712 4.66615e-20)
(0.090039 0.0297347 -8.71875e-19)
(0.490298 0.179391 -6.88754e-21)
(1.08507 0.339569 -3.07712e-19)
(1.29921 0.420889 -2.33882e-19)
(1.32291 0.460838 1.90829e-19)
(1.28711 0.483908 -3.41527e-20)
(1.23116 0.488709 1.40094e-20)
(1.17354 0.479565 1.11862e-20)
(1.11288 0.462425 -1.19499e-20)
(1.04631 0.442022 -1.12604e-19)
(0.974189 0.416224 5.12868e-22)
(0.911694 0.382136 -1.55586e-19)
(0.862979 0.348641 -2.05579e-19)
(0.827326 0.322025 1.33639e-19)
(0.801398 0.301497 -7.86754e-20)
(0.774031 0.281341 1.90381e-19)
(0.739051 0.256602 0)
(0.67143 0.22433 -2.85449e-19)
(0.531831 0.175864 4.22031e-19)
(0.318302 0.112265 8.06775e-19)
(0.0921027 0.0354908 -9.47003e-19)
(0.476344 0.200354 -6.00093e-19)
(1.07448 0.385074 3.0086e-19)
(1.29422 0.476749 2.30917e-19)
(1.31735 0.519949 -2.08269e-19)
(1.27956 0.542493 1.10241e-20)
(1.22231 0.544412 4.49605e-20)
(1.16355 0.53147 -1.26537e-20)
(1.10047 0.511158 -2.6778e-20)
(1.03046 0.488018 -6.82961e-20)
(0.956548 0.458205 1.16335e-19)
(0.892544 0.418114 1.4951e-19)
(0.840979 0.38178 3.23193e-19)
(0.801631 0.353964 0)
(0.769839 0.329216 5.48664e-21)
(0.749024 0.309244 -5.2716e-19)
(0.721959 0.290429 1.21449e-19)
(0.658346 0.253142 6.13838e-19)
(0.522654 0.199899 -1.80393e-19)
(0.310389 0.127465 3.82235e-19)
(0.0902818 0.0382202 -3.15803e-20)
(0.464447 0.220097 8.35969e-21)
(1.06237 0.42826 2.83397e-19)
(1.28626 0.529657 1.77651e-19)
(1.30901 0.575935 -3.80057e-19)
(1.26941 0.597969 2.31146e-19)
(1.21113 0.597346 -6.02144e-20)
(1.1514 0.581117 1.00285e-20)
(1.08617 0.558394 6.61666e-20)
(1.01341 0.532868 1.24586e-19)
(0.938386 0.499181 -1.45388e-19)
(0.872639 0.455801 0)
(0.819691 0.417941 -1.26024e-19)
(0.783738 0.38565 1.44686e-19)
(0.758333 0.361356 1.91947e-19)
(0.729898 0.341558 -1.10243e-19)
(0.697096 0.312956 -2.76843e-19)
(0.637866 0.278796 -8.38108e-20)
(0.508294 0.219292 -1.22403e-21)
(0.299766 0.136861 0)
(0.0858195 0.0401564 0)
(0.455495 0.239057 -3.05852e-19)
(1.05077 0.470169 0)
(1.2764 0.580781 2.05947e-19)
(1.29845 0.629592 -9.657e-20)
(1.25736 0.650749 -2.38553e-19)
(1.19837 0.647431 6.62813e-20)
(1.13782 0.62829 4.77488e-21)
(1.07085 0.603607 -3.71571e-20)
(0.99616 0.575658 8.32382e-20)
(0.920399 0.537773 -5.64761e-20)
(0.851789 0.490699 8.4016e-20)
(0.797359 0.447686 3.94631e-19)
(0.756906 0.413961 1.35458e-20)
(0.723761 0.387257 -1.96753e-19)
(0.7029 0.362538 3.76956e-19)
(0.679237 0.342481 4.53533e-21)
(0.62173 0.2999 8.96669e-20)
(0.493209 0.236882 -4.33838e-19)
(0.287952 0.143792 4.39824e-19)
(0.0801712 0.0413505 -5.25631e-19)
(0.448904 0.257848 7.55153e-23)
(1.03894 0.509936 0)
(1.26511 0.629124 0)
(1.28652 0.680273 8.82356e-20)
(1.2441 0.700546 9.57056e-20)
(1.18454 0.694727 -5.05411e-20)
(1.12333 0.673006 1.53073e-20)
(1.05488 0.646732 0)
(0.978366 0.616913 -1.31316e-19)
(0.901305 0.575905 2.11686e-19)
(0.829895 0.524924 2.52512e-19)
(0.774785 0.479321 -1.47953e-19)
(0.735991 0.442463 -1.84095e-19)
(0.710077 0.413185 4.34566e-19)
(0.68422 0.390328 -1.33444e-19)
(0.653176 0.358787 -1.6157e-19)
(0.598535 0.320183 -9.84379e-20)
(0.473482 0.249789 -4.69969e-19)
(0.273909 0.148646 6.64244e-20)
(0.0736692 0.0415727 5.70129e-19)
(0.444164 0.277094 -1.25476e-19)
(1.02789 0.548428 -1.93146e-19)
(1.25291 0.675452 2.28257e-20)
(1.2735 0.728511 3.71208e-22)
(1.23009 0.747716 2.65203e-20)
(1.17038 0.739323 -1.4484e-19)
(1.1087 0.715312 0)
(1.03896 0.687735 2.62071e-20)
(0.961125 0.656164 -2.06646e-20)
(0.882489 0.611032 3.3869e-19)
(0.806941 0.556842 -6.17116e-20)
(0.748719 0.508321 6.90988e-20)
(0.707574 0.467789 0)
(0.675797 0.43592 -2.3683e-19)
(0.655265 0.407259 2.93442e-19)
(0.633545 0.382797 0)
(0.578325 0.332948 -2.14772e-19)
(0.453598 0.260297 6.29259e-19)
(0.258818 0.151602 7.46209e-20)
(0.0667475 0.0408943 -7.05608e-19)
(0.44047 0.295761 -2.81383e-19)
(1.01718 0.585005 3.53325e-19)
(1.24048 0.719252 0)
(1.26024 0.77399 2.22364e-19)
(1.21598 0.792133 0)
(1.1562 0.781378 1.30207e-19)
(1.09404 0.755379 0)
(1.02289 0.726667 0)
(0.94315 0.693518 -4.37847e-20)
(0.861802 0.646101 -3.28091e-19)
(0.783949 0.590773 -4.68892e-19)
(0.725501 0.537142 8.58696e-20)
(0.685665 0.493918 3.18733e-19)
(0.658742 0.45806 2.65298e-19)
(0.634929 0.430781 -9.41655e-19)
(0.60606 0.392387 -3.87111e-19)
(0.553303 0.349281 2.25359e-19)
(0.431852 0.267525 0)
(0.242378 0.152682 6.45821e-19)
(0.0594827 0.039397 -7.64549e-19)
(0.437852 0.313442 3.12355e-19)
(1.00726 0.619938 -3.90039e-19)
(1.22788 0.760689 0)
(1.24673 0.816923 -1.02752e-20)
(1.20189 0.834067 -9.08415e-20)
(1.14223 0.821038 0)
(1.07955 0.793359 -5.38802e-21)
(1.00709 0.763663 2.75829e-20)
(0.926452 0.729404 -6.31497e-20)
(0.844158 0.679846 3.50391e-20)
(0.763726 0.620473 0)
(0.701243 0.56353 3.46303e-19)
(0.655264 0.515093 4.5945e-21)
(0.624447 0.476894 1.43933e-19)
(0.604167 0.441005 1.72871e-19)
(0.584323 0.413992 0)
(0.530725 0.355679 -3.78037e-19)
(0.407235 0.272379 7.4181e-19)
(0.224664 0.151536 -7.88477e-19)
(0.0519536 0.037036 1.6572e-18)
(0.436118 0.330077 0)
(0.998134 0.653164 0)
(1.21564 0.799971 -2.15181e-19)
(1.23347 0.857365 0)
(1.18808 0.873452 0)
(1.12855 0.85836 1.99638e-19)
(1.06543 0.829271 -8.62482e-21)
(0.991797 0.79873 1.7374e-20)
(0.910019 0.763163 -8.30006e-21)
(0.825443 0.711467 0)
(0.741548 0.651125 -7.43116e-20)
(0.675647 0.591345 -2.86129e-19)
(0.632724 0.539254 -3.55777e-19)
(0.604386 0.495438 -1.46724e-19)
(0.583126 0.462684 1.89776e-19)
(0.555187 0.417269 -4.50056e-19)
(0.503131 0.367215 8.17207e-19)
(0.385018 0.273359 6.43912e-21)
(0.206157 0.148456 -7.61533e-19)
(0.0447398 0.0339719 -1.12933e-19)
(0.435018 0.345738 0)
(0.989545 0.684491 -3.06214e-19)
(1.20346 0.836673 2.39666e-19)
(1.22023 0.895185 0)
(1.17444 0.910386 0)
(1.1151 0.893413 -4.44891e-19)
(1.05152 0.863171 0)
(0.976822 0.831913 0)
(0.89439 0.795422 -1.18241e-19)
(0.808085 0.743393 6.1479e-20)
(0.720787 0.682832 -6.03184e-19)
(0.652276 0.619477 0)
(0.600583 0.562046 -3.86908e-19)
(0.566652 0.512743 1.12613e-20)
(0.547342 0.466423 -6.08885e-19)
(0.530992 0.432616 2.43557e-19)
(0.479938 0.364432 3.54938e-21)
(0.358235 0.271432 -8.72474e-19)
(0.188458 0.142794 4.13687e-19)
(0.0391389 0.030619 1.20829e-19)
(0.434363 0.360515 0)
(0.981801 0.7145 -3.64136e-19)
(1.19179 0.871725 2.56979e-19)
(1.20731 0.930874 5.29299e-19)
(1.16108 0.944971 1.02906e-19)
(1.10193 0.926197 -6.95065e-20)
(1.03807 0.895085 4.06938e-20)
(0.962635 0.863369 -2.76737e-20)
(0.879777 0.825641 1.26484e-19)
(0.792618 0.772838 3.95042e-19)
(0.704302 0.711036 5.00342e-19)
(0.628386 0.64574 9.44568e-20)
(0.575152 0.585586 5.60585e-19)
(0.542816 0.52886 3.60723e-19)
(0.522451 0.48424 4.39052e-19)
(0.498751 0.425375 -2.72074e-19)
(0.449879 0.369272 -3.21161e-19)
(0.339081 0.265267 3.78658e-19)
(0.171622 0.134075 -2.24901e-19)
(0.0356327 0.0268237 3.93858e-19)
(0.433868 0.374539 4.82398e-19)
(0.974231 0.742505 5.78646e-19)
(1.18018 0.904204 1.42692e-19)
(1.19452 0.964044 1.67485e-20)
(1.148 0.977233 -3.61942e-19)
(1.08919 0.956901 1.29642e-19)
(1.02513 0.925041 -4.73415e-20)
(0.949061 0.8928 -2.1796e-20)
(0.8661 0.85441 -1.26438e-19)
(0.776835 0.80194 -4.37863e-19)
(0.681285 0.740337 3.08585e-20)
(0.603403 0.674348 0)
(0.545667 0.610184 0)
(0.503251 0.548268 -1.84309e-19)
(0.478248 0.481901 -7.24226e-19)
(0.466401 0.433444 5.89225e-19)
(0.426609 0.351109 3.57201e-19)
(0.316654 0.250615 0)
(0.171349 0.120377 7.19589e-19)
(0.0415487 0.0239639 -4.27726e-19)
(0.433485 0.38779 -2.56177e-19)
(0.967432 0.769515 2.24164e-19)
(1.16911 0.935483 -3.17715e-19)
(1.18207 0.99549 -3.36607e-19)
(1.13525 1.00745 -1.44982e-19)
(1.0768 0.98549 3.0453e-20)
(1.01263 0.953045 0)
(0.936272 0.920707 5.21876e-20)
(0.853016 0.881476 1.93649e-20)
(0.761514 0.828037 0)
(0.666772 0.766741 0)
(0.586035 0.702382 6.46075e-20)
(0.518488 0.637803 9.70571e-20)
(0.475322 0.566976 -1.98257e-19)
(0.448545 0.503973 5.23363e-19)
(0.419455 0.412906 -6.4854e-19)
(0.386776 0.337985 -7.67418e-19)
(0.313526 0.21879 6.80534e-19)
(0.207582 0.103746 -2.62854e-19)
(0.0930299 0.0327351 1.51454e-19)
(0.432947 0.400206 2.98768e-19)
(0.960527 0.794401 0)
(1.15805 0.964218 0)
(1.16985 1.02458 -1.12581e-19)
(1.12294 1.03554 9.11381e-20)
(1.06506 1.01227 -2.10396e-20)
(1.00092 0.979354 -1.78076e-19)
(0.924252 0.946744 -1.21373e-19)
(0.840698 0.906793 1.82099e-19)
(0.747513 0.854255 -3.46449e-20)
(0.647484 0.794463 8.03037e-20)
(0.558902 0.730081 -5.39249e-19)
(0.491465 0.662729 -5.81633e-19)
(0.435297 0.5952 -1.0553e-19)
(0.393409 0.503814 0)
(0.376824 0.425002 -1.07323e-20)
(0.343577 0.287668 4.24024e-19)
(0.271741 0.148218 -7.30396e-19)
(0.216654 0.00280126 5.57356e-19)
(0.0657791 -0.0206947 4.73378e-19)
(0.43241 0.412151 -6.51675e-19)
(0.954042 0.818408 -2.83847e-19)
(1.14738 0.992092 7.88307e-21)
(1.15792 1.05249 1.47075e-19)
(1.11102 1.06222 0)
(1.05367 1.03757 4.03039e-19)
(0.989437 1.0043 2.18074e-19)
(0.912412 0.971749 -4.14296e-20)
(0.828548 0.931525 -8.24349e-20)
(0.733301 0.878986 -3.29677e-20)
(0.632941 0.819317 3.06201e-20)
(0.545047 0.756255 4.76087e-19)
(0.4666 0.694284 5.68605e-19)
(0.404984 0.617702 1.01656e-19)
(0.362105 0.545096 5.54493e-19)
(0.304452 0.40858 0)
(0.208224 0.283307 0)
(0.0703196 0.306379 5.03663e-19)
(-0.0282638 0.709117 -1.96107e-20)
(-0.00105684 1.65455 -5.7119e-19)
(0.431655 0.423553 3.55928e-19)
(0.947404 0.840541 8.49363e-19)
(1.13666 1.01775 -1.2746e-18)
(1.14626 1.07853 7.56895e-19)
(1.09956 1.08751 -8.48077e-20)
(1.04283 1.06198 5.36357e-19)
(0.9785 1.02867 0)
(0.90131 0.996402 1.42157e-19)
(0.81723 0.956092 0)
(0.719811 0.904291 3.54353e-19)
(0.614407 0.846415 -4.52297e-20)
(0.51671 0.786842 5.07129e-20)
(0.436395 0.724229 6.33542e-19)
(0.365372 0.661609 -2.28857e-19)
(0.277261 0.5557 -2.89513e-19)
(0.215567 0.479924 0)
(0.105815 0.616706 0)
(0.0394604 1.36954 0)
(0.06244 2.4788 -2.91111e-19)
(0.0792893 2.91354 -1.75054e-19)
(0.43087 0.43427 0)
(0.94132 0.862134 0)
(1.12645 1.04288 4.57265e-19)
(1.13499 1.10368 -6.29571e-19)
(1.08862 1.11173 4.24211e-19)
(1.03255 1.08536 -4.90436e-19)
(0.968217 1.05214 -2.50985e-20)
(0.890682 1.02024 1.95417e-20)
(0.805774 0.980067 1.48325e-20)
(0.706042 0.929308 -4.04252e-19)
(0.601226 0.873144 7.19973e-20)
(0.506623 0.815709 4.53828e-19)
(0.415761 0.762289 -6.25811e-19)
(0.328148 0.68753 -7.24648e-19)
(0.2616 0.629393 2.52104e-19)
(0.178276 0.787702 0)
(0.107511 1.62187 3.66938e-19)
(0.116395 2.70178 4.20483e-19)
(0.119234 3.07856 -4.74535e-19)
(0.107043 3.20694 5.18675e-19)
(0.429584 0.444647 0)
(0.935028 0.881752 6.97154e-19)
(1.11629 1.06574 -1.18046e-19)
(1.12411 1.12688 7.9812e-19)
(1.07829 1.13452 -4.45275e-19)
(1.02293 1.10778 0)
(0.958297 1.07492 0)
(0.880416 1.04364 0)
(0.795342 1.00405 -1.76207e-20)
(0.694457 0.955045 9.19722e-21)
(0.584927 0.901598 0)
(0.479188 0.849528 -4.44848e-19)
(0.388102 0.795331 0)
(0.296315 0.741649 5.14357e-19)
(0.215815 0.838946 -3.36974e-19)
(0.166251 1.53625 -2.77886e-19)
(0.162519 2.70252 -6.88222e-19)
(0.176157 3.12536 -3.59893e-19)
(0.152478 3.25681 -4.57389e-19)
(0.133938 3.29233 4.17378e-19)
(0.42761 0.453807 -2.37564e-19)
(0.929272 0.900925 1.65789e-20)
(1.10669 1.08833 -1.27604e-19)
(1.11369 1.14942 -6.36742e-19)
(1.06857 1.15641 0)
(1.01388 1.1294 0)
(0.949102 1.09699 0)
(0.870934 1.06623 -1.01042e-20)
(0.785143 1.02735 1.34024e-20)
(0.68192 0.979766 0)
(0.574133 0.92793 0)
(0.475033 0.878454 0)
(0.369711 0.836451 0)
(0.302043 0.84421 3.47076e-19)
(0.263122 1.27243 8.90682e-19)
(0.228755 2.45363 2.7671e-19)
(0.233576 3.09789 5.28276e-19)
(0.219824 3.28017 -3.5945e-19)
(0.179322 3.33538 1.31575e-19)
(0.158546 3.3463 0)
(0.424682 0.46151 2.41239e-19)
(0.922321 0.917719 -1.51048e-18)
(1.09682 1.10905 -4.28467e-19)
(1.10362 1.17077 -1.03286e-19)
(1.05937 1.17755 1.14248e-19)
(1.00519 1.15051 -7.99404e-19)
(0.939836 1.11868 5.31597e-20)
(0.861336 1.0888 3.25645e-19)
(0.775404 1.05069 0)
(0.672219 1.00559 -2.33559e-20)
(0.561205 0.958614 2.12457e-20)
(0.453326 0.915745 0)
(0.373613 0.886064 0)
(0.309152 1.05233 -4.27926e-19)
(0.264237 1.9426 1.26205e-20)
(0.253472 2.97628 -1.6679e-19)
(0.275455 3.28758 3.11313e-19)
(0.256819 3.37325 1.81809e-19)
(0.20005 3.39469 -1.50417e-19)
(0.17893 3.40245 7.80508e-20)
(0.421277 0.469016 4.65984e-19)
(0.915206 0.935534 1.44791e-18)
(1.08686 1.13152 5.25226e-19)
(1.09353 1.19354 0)
(1.05015 1.19955 0)
(0.996231 1.17223 6.12964e-19)
(0.930629 1.14094 -3.69825e-19)
(0.852095 1.11149 -3.0062e-19)
(0.76578 1.07456 -1.09827e-20)
(0.660409 1.03155 1.49842e-19)
(0.551984 0.985473 -3.83795e-19)
(0.449029 0.946571 0)
(0.378666 0.976673 0)
(0.333773 1.4221 -2.40132e-19)
(0.317556 2.57761 -3.21817e-19)
(0.350192 3.21351 0)
(0.37 3.36232 -1.5136e-19)
(0.295522 3.41593 1.32733e-19)
(0.220607 3.44753 -1.7862e-19)
(0.192608 3.46477 1.3456e-19)
(0.416978 0.476582 -8.84606e-19)
(0.906674 0.9527 -6.89426e-19)
(1.07598 1.15358 0)
(1.08305 1.21667 0)
(1.04047 1.22231 0)
(0.986688 1.19459 0)
(0.920507 1.16363 3.9421e-19)
(0.842056 1.13508 -4.09341e-19)
(0.756094 1.09886 0)
(0.652819 1.0583 -1.31199e-19)
(0.544049 1.01738 6.50864e-19)
(0.448095 0.992653 3.06058e-20)
(0.39559 1.10778 4.6325e-20)
(0.37008 1.86128 3.56112e-19)
(0.372871 2.95616 -1.3836e-19)
(0.404659 3.32427 0)
(0.378406 3.42983 1.07507e-20)
(0.290312 3.50216 7.92158e-20)
(0.232092 3.54744 2.23917e-19)
(0.200476 3.54808 -1.87144e-19)
(0.412737 0.485038 4.19593e-19)
(0.898406 0.972296 -6.7984e-19)
(1.06493 1.17818 0)
(1.07195 1.24173 -1.66188e-19)
(1.03 1.24634 6.30068e-19)
(0.976191 1.21792 0)
(0.909981 1.18731 0)
(0.832094 1.15886 7.72574e-19)
(0.746561 1.12404 7.09864e-21)
(0.641311 1.08586 2.40717e-20)
(0.534413 1.04647 -2.87776e-19)
(0.456659 1.04056 1.89343e-19)
(0.421371 1.31493 0)
(0.409588 2.30665 -1.69666e-19)
(0.436947 3.18534 1.345e-19)
(0.480043 3.4245 3.24216e-21)
(0.456616 3.50686 0)
(0.389826 3.56762 -1.18171e-19)
(0.33616 3.58833 -5.49895e-19)
(0.248973 3.52393 -1.28274e-19)
(0.40757 0.494121 -8.14336e-19)
(0.88865 0.991086 9.68641e-19)
(1.05273 1.20181 7.23413e-19)
(1.05994 1.26655 -1.86659e-19)