/*--------------------------------*- C++ -*----------------------------------*\
  =========                 |
  \\      /  F ield         | OpenFOAM: The Open Source CFD Toolbox
   \\    /   O peration     | Website:  https://openfoam.org
    \\  /    A nd           | Version:  6
     \\/     M anipulation  |
\*---------------------------------------------------------------------------*/
FoamFile
{
    version     2.0;
    format      ascii;
    class       volVectorField;
    location    "33";
    object      U;
}
// * * * * * * * * * * * * * * * * * * * * * * * * * * * * * * * * * * * * * //

dimensions      [0 1 -1 0 0 0 0];

internalField   nonuniform List<vector> 
8800
(
(0.987189 -0.0766661 0)
(1.0019 -0.0551898 0)
(0.999758 -0.0285477 0)
(1.00005 -0.0151383 0)
(1.00005 -0.00853202 0)
(1.00002 -0.00502788 0)
(0.999993 -0.00299411 0)
(0.999979 -0.00171713 0)
(0.999979 -0.000828526 0)
(1.00005 -0.000124781 0)
(0.999994 0.000585128 0)
(1.00001 0.00135278 0)
(1.00001 0.00238651 0)
(1.00002 0.00397146 0)
(1.00003 0.00660781 0)
(1.00005 0.0113505 0)
(0.999961 0.0208001 0)
(0.999172 0.0386604 0)
(1.00709 0.0724527 0)
(0.771215 0.0366602 0)
(0.363046 -0.0160196 0)
(1.04329 -0.0768282 0)
(1.08461 -0.0704679 0)
(1.04521 -0.0535673 0)
(1.02325 -0.0389164 0)
(1.01191 -0.0262367 0)
(1.0063 -0.0168942 0)
(1.0035 -0.0104098 0)
(1.00209 -0.00578974 0)
(1.00141 -0.00215812 0)
(1.0013 0.00115637 0)
(1.00169 0.00452829 0)
(1.00267 0.00846828 0)
(1.00463 0.0138214 0)
(1.00857 0.0215455 0)
(1.01656 0.032533 0)
(1.03252 0.0464663 0)
(1.0627 0.061604 0)
(1.09189 0.0760534 0)
(0.83874 0.0565435 0)
(0.216772 -0.00243237 0)
(1.07586 -0.0501731 0)
(1.09988 -0.0483668 0)
(1.06462 -0.0405283 0)
(1.03993 -0.0336768 0)
(1.02375 -0.0261742 0)
(1.01395 -0.0186366 0)
(1.00842 -0.011858 0)
(1.0055 -0.00603208 0)
(1.0043 -0.000664358 0)
(1.00466 0.00453684 0)
(1.00659 0.00991558 0)
(1.01058 0.0160619 0)
(1.01791 0.0231474 0)
(1.03055 0.0306416 0)
(1.05068 0.037697 0)
(1.08043 0.0444094 0)
(1.10637 0.051253 0)
(0.942716 0.0415715 0)
(0.216285 0.00245523 0)
(0.175058 -0.00081922 0)
(1.01755 -0.0355322 0)
(1.10513 -0.0414557 0)
(1.07816 -0.0361563 0)
(1.05328 -0.0302368 0)
(1.03599 -0.0246889 0)
(1.02384 -0.0190344 0)
(1.01575 -0.0130415 0)
(1.01094 -0.00690293 0)
(1.0088 -0.00060713 0)
(1.00942 0.00562442 0)
(1.01271 0.0116221 0)
(1.01892 0.0174847 0)
(1.02881 0.0231021 0)
(1.04328 0.0284475 0)
(1.06381 0.0339691 0)
(1.09367 0.039991 0)
(1.09363 0.0418062 0)
(0.827599 0.0228448 0)
(0.174238 0.000844719 0)
(0.153808 -0.000613257 0)
(0.955899 -0.0255143 0)
(1.10333 -0.0352312 0)
(1.08755 -0.0327746 0)
(1.06148 -0.0281285 0)
(1.04381 -0.0231367 0)
(1.03136 -0.0179897 0)
(1.02257 -0.0125626 0)
(1.01684 -0.00670127 0)
(1.01408 -0.000312001 0)
(1.01482 0.00608606 0)
(1.01883 0.0119505 0)
(1.02584 0.0172825 0)
(1.03616 0.0222516 0)
(1.05081 0.0270781 0)
(1.07209 0.0316717 0)
(1.10032 0.0356712 0)
(1.06853 0.0338119 0)
(0.740365 0.0142201 0)
(0.15258 0.000642185 0)
(0.139386 -0.000469136 0)
(0.898829 -0.0191293 0)
(1.0955 -0.0301856 0)
(1.09547 -0.0293483 0)
(1.06887 -0.025679 0)
(1.05043 -0.0216078 0)
(1.03758 -0.016931 0)
(1.02852 -0.011752 0)
(1.02248 -0.00610932 0)
(1.01945 0.000130434 0)
(1.02017 0.00637993 0)
(1.02434 0.0119904 0)
(1.03152 0.0169909 0)
(1.04206 0.0215658 0)
(1.05724 0.02562 0)
(1.07945 0.0291263 0)
(1.10263 0.03179 0)
(1.03679 0.0278075 0)
(0.67432 0.0100847 0)
(0.137657 0.000502648 0)
(0.1288 -0.000363295 0)
(0.849094 -0.0147573 0)
(1.083 -0.0260436 0)
(1.10106 -0.0263548 0)
(1.0756 -0.0230728 0)
(1.0566 -0.0195151 0)
(1.04329 -0.0154786 0)
(1.0339 -0.010757 0)
(1.02764 -0.00537102 0)
(1.02445 0.000675664 0)
(1.02507 0.0067164 0)
(1.02923 0.0120384 0)
(1.03653 0.0165869 0)
(1.04738 0.0204594 0)
(1.06304 0.0238205 0)
(1.08571 0.0268775 0)
(1.10199 0.0287592 0)
(1.00246 0.0231806 0)
(0.623197 0.00768029 0)
(0.126465 0.00040283 0)
(0.120718 -0.000282186 0)
(0.806825 -0.0115769 0)
(1.06754 -0.0224138 0)
(1.10443 -0.0237694 0)
(1.0817 -0.0209954 0)
(1.06224 -0.0176892 0)
(1.04861 -0.0138989 0)
(1.03894 -0.00945704 0)
(1.0324 -0.00438988 0)
(1.029 0.00132046 0)
(1.02949 0.00701277 0)
(1.03367 0.011941 0)
(1.04109 0.0160634 0)
(1.05211 0.0195676 0)
(1.06805 0.0225839 0)
(1.09111 0.0252973 0)
(1.09853 0.0262295 0)
(0.968003 0.0194849 0)
(0.582488 0.00609234 0)
(0.117646 0.000329176 0)
(0.114467 -0.000217561 0)
(0.771351 -0.00917279 0)
(1.05063 -0.0191556 0)
(1.10653 -0.0211922 0)
(1.08727 -0.0187584 0)
(1.06752 -0.015641 0)
(1.05367 -0.0121388 0)
(1.04375 -0.00803374 0)
(1.03697 -0.00329499 0)
(1.03333 0.0021227 0)
(1.03367 0.00748513 0)
(1.03778 0.0119914 0)
(1.04522 0.0156224 0)
(1.05632 0.0186284 0)
(1.07245 0.0212553 0)
(1.09517 0.0237017 0)
(1.09241 0.0239481 0)
(0.934906 0.01655 0)
(0.549278 0.0049743 0)
(0.1105 0.000274229 0)
(0.109617 -0.000166192 0)
(0.741747 -0.00728046 0)
(1.03337 -0.0162476 0)
(1.10784 -0.0188325 0)
(1.09263 -0.0167107 0)
(1.07243 -0.0137119 0)
(1.0583 -0.010339 0)
(1.04825 -0.00643186 0)
(1.04129 -0.00195005 0)
(1.03741 0.00310776 0)
(1.03755 0.00801387 0)
(1.0415 0.0121015 0)
(1.04881 0.0153391 0)
(1.05991 0.0179986 0)
(1.07636 0.0203312 0)
(1.09821 0.0224463 0)
(1.08417 0.0219669 0)
(0.903782 0.0142062 0)
(0.521616 0.00415774 0)
(0.104563 0.000234133 0)
(0.105893 -0.00012309 0)
(0.717288 -0.00572143 0)
(1.01652 -0.0135554 0)
(1.10805 -0.0164741 0)
(1.09771 -0.0147811 0)
(1.07731 -0.0119104 0)
(1.06292 -0.00857012 0)
(1.0527 -0.00473167 0)
(1.04553 -0.000465089 0)
(1.04139 0.00426667 0)
(1.04124 0.00877734 0)
(1.04497 0.0123963 0)
(1.05213 0.0152382 0)
(1.06322 0.0176085 0)
(1.07983 0.0197109 0)
(1.09985 0.0213635 0)
(1.07408 0.0201909 0)
(0.874916 0.0123369 0)
(0.498158 0.00355157 0)
(0.0995089 0.000205895 0)
(0.103117 -8.47635e-05 0)
(0.697412 -0.00437732 0)
(1.00094 -0.0110378 0)
(1.1076 -0.0139975 0)
(1.10243 -0.0124568 0)
(1.08197 -0.00965786 0)
(1.06729 -0.00648321 0)
(1.05677 -0.00285417 0)
(1.04931 0.00120138 0)
(1.04486 0.00566422 0)
(1.04434 0.00983908 0)
(1.0478 0.0130488 0)
(1.05486 0.015458 0)
(1.06596 0.017364 0)
(1.08271 0.0190126 0)
(1.10053 0.020326 0)
(1.06277 0.0185685 0)
(0.848406 0.010827 0)
(0.477975 0.00309109 0)
(0.0951122 0.000184959 0)
(0.101172 -4.94895e-05 0)
(0.681711 -0.00316647 0)
(0.987053 -0.00864233 0)
(1.10674 -0.0115199 0)
(1.10694 -0.0101298 0)
(1.08648 -0.00733669 0)
(1.07138 -0.00420739 0)
(1.06058 -0.000681013 0)
(1.05287 0.00323366 0)
(1.04802 0.00738302 0)
(1.04707 0.0110874 0)
(1.05014 0.0138318 0)
(1.05695 0.0157542 0)
(1.0681 0.0172242 0)
(1.0851 0.0185492 0)
(1.10034 0.0194968 0)
(1.05051 0.0171931 0)
(0.824057 0.00961612 0)
(0.460322 0.00274663 0)
(0.0911808 0.00017259 0)
(0.100024 -1.32457e-05 0)
(0.670064 -0.00198425 0)
(0.975289 -0.00618973 0)
(1.10556 -0.00880505 0)
(1.11114 -0.00765156 0)
(1.09103 -0.00499437 0)
(1.07564 -0.0017784 0)
(1.06456 0.00181946 0)
(1.05636 0.00559412 0)
(1.05094 0.00947726 0)
(1.0495 0.0127984 0)
(1.05226 0.0150482 0)
(1.05883 0.0165665 0)
(1.06985 0.0177204 0)
(1.08679 0.0185961 0)
(1.09906 0.0189384 0)
(1.03741 0.0159456 0)
(0.801747 0.00861198 0)
(0.444725 0.00248731 0)
(0.0875865 0.00016584 0)
(0.099662 2.16092e-05 0)
(0.662337 -0.000846255 0)
(0.96612 -0.00375498 0)
(1.10446 -0.00583787 0)
(1.11503 -0.00469837 0)
(1.0956 -0.00203192 0)
(1.0799 0.00118194 0)
(1.06839 0.0046934 0)
(1.05983 0.00837828 0)
(1.05395 0.0120429 0)
(1.05177 0.0149408 0)
(1.05382 0.0166544 0)
(1.06002 0.01758 0)
(1.07093 0.0180647 0)
(1.08775 0.0185014 0)
(1.09646 0.0183095 0)
(1.02383 0.0148381 0)
(0.78137 0.00783805 0)
(0.430746 0.00230735 0)
(0.0842161 0.000163559 0)
(0.1001 6.47238e-05 0)
(0.658526 0.000328521 0)
(0.959875 -0.00122234 0)
(1.10404 -0.00264658 0)
(1.11902 -0.00136766 0)
(1.10003 0.00135929 0)
(1.08391 0.00457688 0)
(1.07192 0.00809419 0)
(1.06267 0.0117304 0)
(1.05589 0.0151829 0)
(1.05297 0.0176686 0)
(1.0545 0.0188407 0)
(1.06031 0.019121 0)
(1.07108 0.0190229 0)
(1.08765 0.0188469 0)
(1.09276 0.018115 0)
(1.00997 0.0140939 0)
(0.762543 0.00728489 0)
(0.417954 0.00220741 0)
(0.0809515 0.000167301 0)
(0.101491 0.000115323 0)
(0.658825 0.00153271 0)
(0.95673 0.00141303 0)
(1.10438 0.000714711 0)
(1.12315 0.00201352 0)
(1.1047 0.00479485 0)
(1.0883 0.00824229 0)
(1.07596 0.011989 0)
(1.06616 0.0157252 0)
(1.05854 0.0190406 0)
(1.05457 0.021122 0)
(1.05509 0.0217657 0)
(1.06013 0.021481 0)
(1.07049 0.0207847 0)
(1.08664 0.0198965 0)
(1.08774 0.0184105 0)
(0.995467 0.0136444 0)
(0.744893 0.00698516 0)
(0.405953 0.00218563 0)
(0.0777267 0.000171543 0)
(0.103848 0.00016473 0)
(0.662885 0.00271638 0)
(0.95702 0.00410596 0)
(1.10577 0.0043781 0)
(1.12737 0.00590842 0)
(1.10955 0.00891335 0)
(1.09281 0.0126556 0)
(1.07981 0.0166348 0)
(1.06908 0.0205058 0)
(1.06028 0.0238044 0)
(1.05507 0.0255669 0)
(1.05462 0.0255525 0)
(1.05897 0.0245415 0)
(1.06876 0.0231463 0)
(1.0843 0.0216355 0)
(1.08098 0.019147 0)
(0.980419 0.0138066 0)
(0.727872 0.00716044 0)
(0.394032 0.0023159 0)
(0.0744287 0.000183213 0)
(0.107321 0.000227145 0)
(0.671172 0.00394962 0)
(0.960802 0.00667491 0)
(1.10895 0.00823906 0)
(1.13225 0.0103892 0)
(1.11495 0.0139211 0)
(1.09784 0.0181223 0)
(1.08412 0.0224638 0)
(1.07236 0.0265459 0)
(1.0622 0.0296694 0)
(1.05538 0.0308729 0)
(1.05358 0.0301939 0)
(1.05693 0.0283718 0)
(1.06611 0.0262692 0)
(1.0806 0.0240519 0)
(1.07284 0.020805 0)
(0.964699 0.0148702 0)
(0.710496 0.00792384 0)
(0.3812 0.00263183 0)
(0.0708296 0.000207582 0)
(0.111973 0.000299312 0)
(0.683456 0.00528156 0)
(0.968365 0.00940661 0)
(1.11451 0.0122358 0)
(1.13846 0.0152767 0)
(1.12128 0.0195931 0)
(1.10353 0.0244549 0)
(1.08882 0.0293772 0)
(1.07569 0.0338249 0)
(1.06373 0.0369183 0)
(1.05506 0.0375783 0)
(1.05175 0.0361283 0)
(1.05396 0.0335085 0)
(1.06244 0.0306341 0)
(1.0756 0.0276945 0)
(1.06331 0.0236214 0)
(0.947721 0.0168672 0)
(0.691543 0.00920682 0)
(0.366478 0.00309979 0)
(0.0666742 0.000243007 0)
(0.118041 0.00039847 0)
(0.700092 0.00699855 0)
(0.980001 0.012731 0)
(1.12264 0.0168838 0)
(1.14622 0.020767 0)
(1.12875 0.0259804 0)
(1.11012 0.0317685 0)
(1.09411 0.0375671 0)
(1.07919 0.042604 0)
(1.06495 0.0458417 0)
(1.05407 0.0460671 0)
(1.04897 0.0437268 0)
(1.04992 0.0402042 0)
(1.05763 0.0365506 0)
(1.06922 0.0327789 0)
(1.05193 0.0275462 0)
(0.928624 0.0196756 0)
(0.669856 0.010897 0)
(0.349115 0.00367492 0)
(0.061777 0.000286514 0)
(0.126025 0.000540336 0)
(0.721974 0.00934128 0)
(0.996303 0.0170564 0)
(1.1336 0.0227554 0)
(1.15569 0.0276891 0)
(1.13774 0.0340366 0)
(1.11806 0.040961 0)
(1.10035 0.0477804 0)
(1.08316 0.053507 0)
(1.06617 0.0568463 0)
(1.05254 0.0565234 0)
(1.04531 0.0532432 0)
(1.04474 0.0486067 0)
(1.05146 0.0437398 0)
(1.06112 0.0389284 0)
(1.03815 0.0323075 0)
(0.906804 0.0231354 0)
(0.644475 0.0128573 0)
(0.328637 0.00429567 0)
(0.0560362 0.000330982 0)
(0.13672 0.000756713 0)
(0.75044 0.012733 0)
(1.0184 0.0228997 0)
(1.14839 0.0306015 0)
(1.16766 0.0372717 0)
(1.14865 0.0451847 0)
(1.12741 0.0534546 0)
(1.10739 0.0612728 0)
(1.08721 0.0673949 0)
(1.06685 0.0702902 0)
(1.05007 0.0687266 0)
(1.04046 0.0639659 0)
(1.03808 0.058021 0)
(1.04348 0.0520604 0)
(1.05094 0.0461331 0)
(1.02184 0.038134 0)
(0.881442 0.0274265 0)
(0.614469 0.0150632 0)
(0.304751 0.00496726 0)
(0.0494446 0.000375418 0)
(0.151399 0.00110171 0)
(0.78749 0.0177796 0)
(1.04809 0.0309735 0)
(1.16849 0.0412434 0)
(1.1834 0.0504591 0)
(1.16194 0.0603007 0)
(1.13822 0.070127 0)
(1.11492 0.0787219 0)
(1.09096 0.0847566 0)
(1.06656 0.0866012 0)
(1.04616 0.0831801 0)
(1.03399 0.0764202 0)
(1.02991 0.0686801 0)
(1.03395 0.0614322 0)
(1.03909 0.0545492 0)
(1.00282 0.045558 0)
(0.850977 0.0324672 0)
(0.579139 0.0175083 0)
(0.277209 0.00568425 0)
(0.0420098 0.000416843 0)
(0.172157 0.00170128 0)
(0.836108 0.0255954 0)
(1.08743 0.0427094 0)
(1.19493 0.0560071 0)
(1.20363 0.0680349 0)
(1.17804 0.0801577 0)
(1.15024 0.091336 0)
(1.12246 0.100336 0)
(1.09392 0.105842 0)
(1.06491 0.106292 0)
(1.04062 0.10098 0)
(1.02564 0.0923182 0)
(1.01977 0.0828068 0)
(1.02289 0.0740614 0)
(1.02542 0.0659914 0)
(0.97898 0.0547115 0)
(0.813729 0.0380503 0)
(0.538237 0.0202562 0)
(0.245882 0.00644114 0)
(0.0338048 0.000451286 0)
(0.202193 0.00302813 0)
(0.901809 0.0388335 0)
(1.13888 0.0619081 0)
(1.22736 0.0782997 0)
(1.22798 0.0930174 0)
(1.19615 0.106558 0)
(1.16274 0.118075 0)
(1.1296 0.126676 0)
(1.09588 0.131062 0)
(1.06196 0.129738 0)
(1.03368 0.122445 0)
(1.01577 0.112055 0)
(1.00787 0.101045 0)
(1.00958 0.09061 0)
(1.0076 0.0798686 0)
(0.94718 0.0645718 0)
(0.769418 0.0440895 0)
(0.491918 0.023406 0)
(0.211272 0.00724664 0)
(0.0251443 0.000472784 0)
(0.243188 0.00921507 2.30811e-20)
(0.988606 0.0653344 1.95247e-20)
(1.20004 0.0951217 -6.65412e-21)
(1.26301 0.112438 0)
(1.25287 0.129212 -1.52851e-34)
(1.2138 0.142012 2.19223e-21)
(1.17448 0.152328 -3.71044e-21)
(1.13565 0.159431 0)
(1.09641 0.161965 7.10034e-35)
(1.05727 0.158433 -4.10795e-21)
(1.02464 0.148897 0)
(1.00338 0.136675 -4.66435e-21)
(0.992635 0.124046 -1.36202e-20)
(0.990724 0.111323 -6.39003e-21)
(0.980475 0.0968232 -1.90236e-21)
(0.905158 0.0777397 -1.12538e-21)
(0.714843 0.053286 0)
(0.436594 0.0282981 7.88769e-22)
(0.173953 0.00922484 9.34681e-22)
(0.0170425 0.000791689 1.70615e-20)
(0.270458 0.0246242 2.02023e-20)
(1.05941 0.107477 1.0449e-22)
(1.2488 0.142971 1.92571e-21)
(1.29442 0.160239 0)
(1.27405 0.176005 -8.23631e-21)
(1.22912 0.186602 -9.0453e-21)
(1.18435 0.195181 -3.85945e-21)
(1.13984 0.200494 -1.29761e-20)
(1.09479 0.201051 0)
(1.04975 0.195124 1.75557e-20)
(1.01164 0.182836 1.70081e-20)
(0.985445 0.167861 4.97117e-21)
(0.969296 0.15241 1.77234e-20)
(0.958835 0.136203 2.45268e-20)
(0.936012 0.117982 0)
(0.849929 0.0961572 3.43189e-20)
(0.65351 0.0672977 4.932e-20)
(0.381761 0.0369787 5.49298e-20)
(0.142476 0.0127936 -6.30521e-20)
(0.0109196 0.00100899 -1.1996e-21)
(0.270421 0.040567 0)
(1.10289 0.162423 4.27718e-21)
(1.28084 0.201918 0)
(1.31747 0.219423 -1.28863e-20)
(1.29004 0.231525 0)
(1.2408 0.238527 -1.86545e-20)
(1.19119 0.243905 8.08578e-21)
(1.14128 0.246163 -2.69418e-20)
(1.09064 0.243509 -3.16188e-22)
(1.0398 0.233942 9.23788e-21)
(0.996137 0.217805 3.70835e-20)
(0.964733 0.199362 -6.24237e-23)
(0.942889 0.180938 -1.28147e-20)
(0.925426 0.162741 -2.29729e-20)
(0.896136 0.143428 2.71018e-20)
(0.810242 0.119932 -4.79926e-20)
(0.620642 0.0862278 -6.34926e-21)
(0.363955 0.0492715 0)
(0.140712 0.0186633 2.98664e-24)
(0.0117234 0.0015998 0)
(0.263309 0.054301 7.66437e-20)
(1.12522 0.221087 -3.39964e-20)
(1.29993 0.265966 -2.1993e-20)
(1.33135 0.283857 6.60013e-21)
(1.29955 0.29222 -1.08001e-20)
(1.24758 0.295293 3.96027e-20)
(1.19416 0.296721 1.71256e-20)
(1.13959 0.295047 0)
(1.08383 0.288331 -4.82576e-20)
(1.02749 0.274385 0)
(0.978549 0.253995 -1.96589e-20)
(0.942342 0.232241 -2.35002e-20)
(0.915788 0.21152 -1.38987e-20)
(0.893813 0.191956 -1.6609e-20)
(0.862306 0.172085 0)
(0.781365 0.146878 0)
(0.604915 0.10928 -4.13695e-20)
(0.366893 0.0662927 8.18191e-21)
(0.151476 0.0273268 -4.81612e-21)
(0.0154793 0.00294607 -5.70281e-21)
(0.255808 0.0665941 -4.52663e-20)
(1.13438 0.279654 0)
(1.30979 0.331176 5.22517e-20)
(1.33764 0.349771 2.03031e-20)
(1.30293 0.354847 2.37883e-20)
(1.2492 0.354115 0)
(1.19288 0.351482 1.75872e-20)
(1.13449 0.345592 3.0397e-20)
(1.07431 0.334461 2.52486e-20)
(1.01307 0.315918 4.31381e-20)
(0.959404 0.291353 0)
(0.919129 0.26654 -5.06128e-20)
(0.889037 0.244017 -2.99692e-20)
(0.864145 0.223547 -1.75928e-20)
(0.831769 0.203098 1.06232e-19)
(0.757408 0.176442 1.2642e-20)
(0.59604 0.135227 5.97131e-20)
(0.374995 0.0860279 -2.83212e-19)
(0.165326 0.0382638 1.68106e-19)
(0.0202288 0.00491542 -2.05213e-19)
(0.249151 0.0777439 -3.99746e-20)
(1.13551 0.336308 8.66311e-21)
(1.31319 0.395601 -7.43936e-21)
(1.33822 0.415125 -2.63205e-20)
(1.30133 0.417293 -2.3456e-20)
(1.2463 0.413046 3.52244e-22)
(1.18768 0.406505 -1.89375e-20)
(1.12619 0.396444 3.20021e-20)
(1.06225 0.380957 -5.42366e-20)
(0.996791 0.357869 0)
(0.939079 0.329314 -2.32611e-20)
(0.895512 0.301706 -3.20777e-22)
(0.862797 0.277424 -3.25262e-20)
(0.836099 0.256173 0)
(0.803839 0.235127 -2.29129e-20)
(0.734518 0.207296 -5.44263e-20)
(0.588001 0.162767 1.45864e-19)
(0.382372 0.106898 -1.43927e-19)
(0.17705 0.0501813 2.04871e-19)
(0.0243441 0.00715687 -2.15608e-19)
(0.24391 0.0881928 -1.03807e-22)
(1.13183 0.390426 -8.39943e-21)
(1.31216 0.45844 -2.97782e-20)
(1.33461 0.478751 1.32008e-20)
(1.29592 0.478349 -1.23054e-20)
(1.23979 0.470881 0)
(1.17928 0.460703 -1.90374e-20)
(1.11516 0.446708 -3.38783e-20)
(1.04803 0.427059 -2.85787e-20)
(0.978941 0.399636 0)
(0.917821 0.367224 -2.44314e-20)
(0.871587 0.336903 -2.92819e-20)
(0.836977 0.310872 3.50895e-20)
(0.809088 0.288547 -2.09698e-20)
(0.777199 0.266628 -9.92368e-20)
(0.712612 0.23744 5.90952e-20)
(0.578223 0.189958 1.77169e-20)
(0.385061 0.127438 0)
(0.184086 0.0616822 -1.96827e-19)
(0.0271563 0.00932353 -7.29945e-21)
(0.240031 0.0982424 -5.07059e-21)
(1.12534 0.441861 8.43211e-21)
(1.30789 0.519165 1.56617e-20)
(1.32791 0.539994 4.32938e-20)
(1.28766 0.537319 -5.03676e-20)
(1.23056 0.526955 4.56684e-20)
(1.16843 0.513457 4.08335e-20)
(1.10205 0.495823 -5.42439e-20)
(1.03213 0.472284 1.65349e-20)
(0.959856 0.440734 -1.05947e-19)
(0.895762 0.404594 -2.70286e-20)
(0.847371 0.371489 0)
(0.811334 0.343568 3.7835e-20)
(0.782713 0.319976 4.47924e-20)
(0.75132 0.297168 5.32197e-20)
(0.690453 0.266311 -6.37463e-20)
(0.565723 0.215962 -1.89006e-20)
(0.382043 0.146586 2.23277e-20)
(0.185242 0.0716768 0)
(0.0283658 0.0110974 -1.57361e-20)
(0.237302 0.107975 4.95536e-20)
(1.11744 0.490679 -3.37469e-20)
(1.30124 0.57713 -1.63913e-20)
(1.31897 0.598526 2.97984e-20)
(1.27733 0.593827 -2.57192e-20)
(1.21933 0.580869 -8.12433e-22)
(1.15578 0.564397 -4.40644e-20)
(1.08742 0.543467 -1.94787e-20)
(1.01502 0.516328 -4.93689e-20)
(0.939845 0.480871 4.86526e-23)
(0.87308 0.441073 -8.53831e-20)
(0.822855 0.405087 6.9153e-20)
(0.78577 0.375072 -4.11025e-20)
(0.756753 0.349945 4.87749e-20)
(0.72595 0.325862 0)
(0.668151 0.293092 -3.43166e-20)
(0.550351 0.239183 -1.60682e-22)
(0.373703 0.162612 -9.64543e-20)
(0.181906 0.0791801 -1.42669e-20)
(0.0281182 0.0122642 0)
(0.235601 0.117567 0)
(1.10887 0.537118 -3.53585e-20)
(1.29287 0.632303 -3.27729e-20)
(1.30843 0.654233 -3.09067e-20)
(1.26553 0.647695 -2.87705e-20)
(1.2067 0.632433 0)
(1.14189 0.61332 -2.19875e-20)
(1.07175 0.589437 -2.37385e-22)
(0.997088 0.559022 1.05645e-19)
(0.919222 0.519899 -1.47925e-20)
(0.849963 0.476483 -6.13341e-20)
(0.798074 0.4375 3.63455e-20)
(0.760137 0.40511 -4.08361e-22)
(0.730893 0.378176 5.19383e-20)
(0.700595 0.352469 3.14877e-20)
(0.645001 0.317322 -7.38721e-20)
(0.532056 0.259211 8.77021e-20)
(0.360599 0.175302 2.59964e-20)
(0.174279 0.0839313 1.07736e-19)
(0.0265191 0.0127263 -2.91668e-19)
(0.234764 0.127146 9.68714e-21)
(1.10018 0.581315 -1.72503e-20)
(1.28334 0.684733 1.50513e-20)
(1.2968 0.707101 3.13875e-20)
(1.25275 0.698873 0)
(1.19314 0.681562 -2.53125e-20)
(1.12719 0.660122 7.1801e-20)
(1.05546 0.633621 4.35554e-20)
(0.978688 0.600261 0)
(0.898253 0.557736 -2.09695e-19)
(0.826561 0.510772 1.64951e-19)
(0.773057 0.468649 0)
(0.734323 0.433672 4.75713e-20)
(0.704905 0.404614 -4.04736e-22)
(0.675008 0.376902 -1.00595e-19)
(0.620893 0.338894 3.94391e-20)
(0.511108 0.275722 0)
(0.343681 0.18435 1.39761e-19)
(0.16326 0.0862893 0)
(0.0240467 0.0125946 -1.37369e-19)
(0.234618 0.136706 -9.66243e-21)
(1.09167 0.623417 -1.68007e-20)
(1.27301 0.734436 1.64425e-20)
(1.28445 0.75715 0)
(1.23936 0.74738 -3.0349e-20)
(1.17904 0.728251 0)
(1.11205 0.70476 -7.42884e-20)
(1.03886 0.67596 -2.17737e-20)
(0.960116 0.639993 1.9301e-20)
(0.877168 0.594349 -1.03606e-19)
(0.802988 0.543947 1.72637e-20)
(0.747777 0.498578 0)
(0.708197 0.460743 -1.01619e-19)
(0.678607 0.429264 4.13298e-22)
(0.648966 0.399176 0)
(0.595609 0.357768 4.46463e-22)
(0.487566 0.288713 1.2676e-19)
(0.323289 0.189614 -1.20381e-19)
(0.149684 0.0861803 3.56502e-20)
(0.0209883 0.0118929 0)
(0.234818 0.146122 0)
(1.08352 0.663416 -1.66725e-20)
(1.26223 0.7815 -1.56697e-20)
(1.27169 0.804447 -4.66044e-22)
(1.22567 0.793261 -1.48144e-20)
(1.1647 0.772524 -5.73694e-20)
(1.09677 0.747239 2.69835e-20)
(1.02223 0.716437 -2.43624e-20)
(0.941611 0.678188 8.43625e-20)
(0.856153 0.629745 -1.65598e-19)
(0.779347 0.576058 -6.86576e-22)
(0.722244 0.527358 -4.54973e-20)
(0.681698 0.486427 1.64135e-19)
(0.651884 0.452243 -4.85476e-22)
(0.622339 0.419384 -7.75397e-20)
(0.569084 0.373926 -1.38234e-19)
(0.461718 0.298219 0)
(0.30009 0.191314 0)
(0.134198 0.0836328 3.83774e-20)
(0.0175651 0.0107024 -2.27568e-20)
(0.235548 0.1555 -9.31418e-21)
(1.07582 0.701374 3.40589e-20)
(1.25121 0.826007 1.66629e-20)
(1.25875 0.849063 0)
(1.2119 0.83658 -3.20448e-22)
(1.15034 0.814425 -5.85606e-20)
(1.08158 0.787583 6.92177e-20)
(1.0058 0.755056 1.00146e-19)
(0.923376 0.71485 1.11007e-19)
(0.835392 0.663952 -1.36198e-19)
(0.755786 0.607203 -1.41225e-19)
(0.696549 0.55514 1.21643e-19)
(0.65483 0.510882 0)
(0.624652 0.473651 -3.52766e-20)
(0.595032 0.437568 -8.36292e-20)
(0.541289 0.387319 -9.90591e-20)
(0.433501 0.304055 -1.17687e-19)
(0.274666 0.189428 3.48839e-20)
(0.11728 0.0787194 -2.06138e-20)
(0.0138587 0.00904971 6.41587e-23)
(0.236427 0.164673 0)
(1.06861 0.737656 0)
(1.2401 0.868029 5.40809e-22)
(1.24582 0.891084 0)
(1.19823 0.877428 4.76674e-20)
(1.13616 0.854023 4.4894e-20)
(1.06666 0.825828 0)
(0.989731 0.791839 1.26721e-20)
(0.905595 0.749989 1.87236e-19)
(0.815075 0.697004 -3.12549e-19)
(0.732494 0.637493 0)
(0.670784 0.582114 -7.81122e-20)
(0.627532 0.534277 -5.91374e-22)
(0.596798 0.493601 -4.81383e-22)
(0.566928 0.453739 8.93725e-20)
(0.512186 0.397869 -8e-23)
(0.403154 0.306202 -2.52949e-19)
(0.247144 0.183944 7.49675e-20)
(0.0997191 0.0718615 2.22321e-20)
(0.0102001 0.00712649 0)
(0.237285 0.173684 2.64011e-20)
(1.06164 0.772253 1.67493e-20)
(1.22901 0.907635 3.28475e-20)
(1.23304 0.930606 -6.69583e-20)
(1.1848 0.915875 8.16004e-20)
(1.12229 0.891383 0)
(1.05215 0.862029 4.51308e-20)
(0.974181 0.826816 -2.75656e-20)
(0.888416 0.783628 7.80717e-22)
(0.795382 0.728939 2.26867e-20)
(0.709621 0.667018 1.83231e-19)
(0.645028 0.608458 -2.7554e-20)
(0.599809 0.556867 -1.00838e-19)
(0.568183 0.512229 -4.08698e-20)
(0.537886 0.467812 4.84106e-20)
(0.481809 0.405303 -4.7939e-23)
(0.371317 0.304461 6.80954e-20)
(0.218647 0.175107 -1.61088e-19)
(0.082226 0.0634981 1.91133e-19)
(0.00672672 0.005056 2.82323e-20)
(0.237883 0.182422 -8.50383e-21)
(1.05496 0.805235 8.39353e-21)
(1.21806 0.944932 1.26577e-21)
(1.22051 0.967747 -3.3272e-20)
(1.17172 0.952027 -1.60646e-20)
(1.10884 0.926576 -8.3558e-20)
(1.03815 0.896235 1.49925e-20)
(0.959252 0.860012 -1.16484e-19)
(0.871967 0.815771 -2.0968e-19)
(0.776447 0.759766 -1.87825e-19)
(0.687326 0.695852 0)
(0.619441 0.634362 -1.1966e-19)
(0.571682 0.578941 1.44678e-19)
(0.538609 0.529738 0)
(0.507598 0.479614 -1.03607e-19)
(0.450106 0.40908 6.17902e-20)
(0.338504 0.298386 -7.30897e-20)
(0.190342 0.163138 -8.66351e-20)
(0.0657334 0.0541675 -1.53868e-19)
(0.00364093 0.00300209 -1.21478e-19)
(0.238785 0.190976 8.12829e-21)
(1.04843 0.836574 -8.95965e-21)
(1.20732 0.979979 -2.35027e-20)
(1.20831 1.00258 -4.2601e-20)
(1.15906 0.985971 3.50172e-20)
(1.09588 0.959687 -5.14053e-20)
(1.02474 0.9285 4.86614e-20)
(0.945025 0.891473 -1.22261e-19)
(0.856324 0.846441 -1.24971e-19)
(0.758385 0.789501 1.98047e-19)
(0.665777 0.724057 4.03155e-19)
(0.594193 0.659992 0)
(0.543227 0.600806 0)
(0.507844 0.546493 -4.69809e-20)
(0.475488 0.489026 0)
(0.416698 0.408278 1.32886e-19)
(0.305426 0.287007 1.5721e-19)
(0.163987 0.147993 0)
(0.051578 0.044469 0)
(0.00113023 0.0011399 1.3049e-19)
(0.239288 0.199013 -7.55106e-21)
(1.04207 0.866259 -6.51082e-21)
(1.19685 1.01288 -1.63328e-20)
(1.19648 1.03524 3.39346e-20)
(1.14686 1.01781 3.58959e-20)
(1.08346 0.990787 6.159e-20)
(1.01198 0.958883 -6.84115e-20)
(0.931553 0.921228 5.2319e-23)
(0.841559 0.875643 -1.01357e-21)
(0.7413 0.81814 -1.15781e-21)
(0.645148 0.75167 2.07876e-19)
(0.569462 0.685459 0)
(0.514614 0.622769 1.45608e-19)
(0.475729 0.563038 1.00202e-19)
(0.440687 0.4963 2.40622e-19)
(0.380454 0.401789 7.13906e-20)
(0.272539 0.268049 -8.47084e-20)
(0.143014 0.127767 -4.99168e-20)
(0.0441097 0.0339042 0)
(0.00017073 -0.000294422 1.40157e-19)
(0.240098 0.207031 1.36544e-20)
(1.03586 0.894441 0)
(1.18664 1.0437 -1.54306e-20)
(1.18506 1.0658 2.60935e-20)
(1.13518 1.04762 -3.59557e-20)
(1.07162 1.01996 -8.10153e-20)
(0.999889 0.987441 1.4164e-19)
(0.918867 0.949313 -9.3828e-21)
(0.82771 0.903391 0)
(0.725271 0.84565 -2.21538e-19)
(0.625586 0.778691 -4.5417e-19)
(0.545473 0.710846 1.78277e-20)
(0.486115 0.645065 2.00076e-19)
(0.442286 0.580016 0)
(0.402235 0.502378 1.61787e-19)
(0.338944 0.38932 0)
(0.237424 0.237649 0)
(0.130747 0.0915878 -5.39822e-20)
(0.0652285 0.00911352 0)
(0.0247986 0.00590871 3.75683e-20)
(0.240431 0.214428 1.23978e-20)
(1.02978 0.921318 0)
(1.1767 1.07263 -2.25483e-20)
(1.17401 1.09448 0)
(1.12397 1.07566 1.77091e-20)
(1.06028 1.04748 0)
(0.988408 1.01448 8.4257e-21)
(0.906873 0.976071 1.72895e-20)
(0.814664 0.930058 1.57855e-20)
(0.710141 0.872423 -2.45227e-19)
(0.606954 0.805572 1.39492e-20)
(0.522056 0.736737 1.42051e-19)
(0.457464 0.668301 1.95094e-19)
(0.406954 0.598316 2.59118e-20)
(0.358608 0.509259 1.26245e-19)
(0.287956 0.372983 0)
(0.189524 0.196004 1.781e-19)
(0.0990657 0.0341336 -1.04951e-19)
(0.0342843 0.0575396 1.22868e-19)
(-0.0375697 0.444676 -1.45877e-19)
(0.240675 0.221617 -8.60802e-21)
(1.02363 0.946789 -1.76134e-20)
(1.16696 1.1 0)
(1.1632 1.12172 1.09603e-21)
(1.11304 1.10251 -4.43398e-20)
(1.04921 1.07405 1.37469e-19)
(0.977233 1.04081 5.42088e-20)
(0.895181 1.00245 0)
(0.80191 0.956751 1.08966e-19)
(0.69526 0.899774 -1.32824e-20)
(0.588375 0.833808 0)
(0.498066 0.764924 0)
(0.427245 0.694302 1.74234e-19)
(0.368076 0.619388 -7.93468e-20)
(0.307329 0.519995 -1.27098e-19)
(0.22361 0.358245 0)
(0.106584 0.184673 9.01192e-20)
(0.0111419 0.459904 -1.05524e-19)
(0.035347 1.90163 -6.03175e-20)
(0.0628609 2.81114 -7.31301e-20)
(0.240539 0.228199 4.44271e-21)
(1.01746 0.971032 1.89378e-20)
(1.15743 1.12578 -1.12883e-20)
(1.15265 1.14738 -1.66913e-20)
(1.10249 1.12797 0)
(1.03847 1.09937 9.32722e-20)
(0.966558 1.06611 8.13307e-20)
(0.883968 1.02802 -8.84165e-21)
(0.789714 0.982949 1.60902e-20)
(0.681003 0.927086 2.36636e-19)
(0.570459 0.862697 2.32197e-19)
(0.474494 0.795047 1.59669e-19)
(0.396561 0.722748 1.74806e-19)
(0.327649 0.641768 -1.8528e-19)
(0.255531 0.537119 -1.91003e-19)
(0.145046 0.391029 0)
(0.0504539 0.863337 0)
(0.0978246 2.56418 5.09368e-20)
(0.100325 3.2003 0)
(0.100881 3.38501 1.35677e-19)
(0.243166 0.234278 0)
(1.01151 0.994367 0)
(1.14783 1.14984 0)
(1.14212 1.17127 -3.73932e-21)
(1.09201 1.15181 -3.7997e-20)
(1.02785 1.12331 6.51354e-20)
(0.956308 1.09028 5.51165e-20)
(0.873164 1.05265 -8.91182e-21)
(0.778009 1.00848 1.41576e-19)
(0.667361 0.9542 -2.0575e-21)
(0.553299 0.892024 4.62526e-19)
(0.451769 0.827121 -1.81839e-20)
(0.365723 0.754093 2.13972e-20)
(0.288064 0.663198 2.66658e-20)
(0.1977 0.561068 -1.11404e-22)
(0.109447 1.0035 3.30634e-22)
(0.139321 2.73052 -2.61645e-19)
(0.146136 3.29529 -1.00831e-19)
(0.13396 3.42458 5.56591e-20)
(0.120747 3.4453 -6.3799e-20)
(0.164958 0.178831 -1.10155e-21)
(1.0013 1.01955 0)
(1.13813 1.17246 1.67355e-20)
(1.132 1.19368 3.73117e-20)
(1.08206 1.17451 -6.80798e-20)
(1.018 1.14631 -6.68479e-20)
(0.946267 1.11334 -6.09073e-20)
(0.86281 1.07636 1.12545e-19)
(0.766931 1.03335 -1.19432e-19)
(0.654626 0.981104 0)
(0.537282 0.921708 2.30806e-19)
(0.430448 0.860918 -1.31515e-19)
(0.33531 0.791079 0)
(0.246528 0.690192 2.58113e-20)
(0.153892 0.85147 6.16171e-20)
(0.154567 2.51705 -7.16007e-20)
(0.20727 3.32947 8.26624e-20)
(0.186722 3.43999 4.61865e-20)
(0.154138 3.45882 5.38463e-20)
(0.132919 3.4673 8.9558e-20)
(0.278518 0.273223 3.29841e-21)
(0.984818 1.03034 0)
(1.12064 1.19833 -1.32835e-20)
(1.11797 1.22707 -3.221e-20)
(1.0663 1.20841 6.27376e-20)
(1.00172 1.1807 6.13985e-20)
(0.928935 1.14908 7.71707e-20)
(0.844785 1.11332 8.59502e-21)
(0.747521 1.07245 1.19799e-19)
(0.632451 1.02412 2.15376e-19)
(0.51002 0.970635 1.35067e-20)
(0.395342 0.918029 1.18591e-19)
(0.281667 0.857603 2.04702e-20)
(0.216577 1.02139 -2.50159e-20)
(0.224159 2.38338 -5.77957e-20)
(0.276147 3.33798 6.11475e-20)
(0.260316 3.47161 -6.92824e-20)
(0.224386 3.48949 -4.0632e-20)
(0.188764 3.51311 -4.12258e-20)
(0.14203 3.5061 -5.91475e-21)
(0.268771 0.272181 0)
(0.98238 1.05338 -7.52272e-22)
(1.11272 1.22195 1.75805e-21)
(1.10814 1.25047 2.73709e-21)
(1.05624 1.23171 3.73898e-20)
(0.991736 1.20424 -5.76315e-20)
(0.918618 1.17286 -4.78097e-20)
(0.834296 1.13794 8.09208e-21)
(0.736605 1.09854 -1.28275e-19)
(0.620441 1.05302 -2.98595e-21)
(0.495637 1.00414 -4.28519e-19)
(0.376971 0.95711 1.68013e-20)
(0.271178 0.932273 -1.96688e-20)
(0.252858 1.56141 -2.3627e-20)
(0.314294 3.12963 3.64472e-21)
(0.330929 3.47583 4.62229e-22)
(0.288289 3.52485 1.16455e-19)
(0.252849 3.54495 6.36596e-20)
(0.205662 3.56413 -2.91599e-20)
(0.153739 3.55882 -3.46334e-20)
(0.254512 0.270042 9.05979e-22)
(0.97901 1.07901 -2.26444e-21)
(1.10439 1.24763 4.67202e-21)
(1.0979 1.27542 1.04426e-20)
(1.04583 1.25648 0)
(0.981415 1.22903 -7.18745e-20)
(0.908217 1.19792 -6.59064e-20)
(0.823984 1.16376 7.56627e-21)
(0.726176 1.1259 -1.40212e-20)
(0.609441 1.08341 -2.05638e-19)
(0.483101 1.03957 -2.02812e-19)
(0.362637 0.999576 -1.42432e-19)
(0.276889 1.07299 -1.50009e-19)
(0.316101 2.27256 1.53296e-19)
(0.394149 3.39882 1.39527e-19)
(0.370438 3.53647 0)
(0.319713 3.5717 0)
(0.282261 3.60436 -2.39074e-20)
(0.234627 3.65061 0)
(0.163404 3.6308 -4.59066e-20)
(0.244297 0.27178 -4.35512e-21)
(0.973638 1.10551 -1.88272e-21)
(1.09472 1.27456 0)
(1.0865 1.3013 1.3146e-21)
(1.0343 1.28194 2.86888e-20)
(0.970082 1.25439 -9.77577e-20)
(0.897117 1.22355 -4.03419e-20)
(0.8132 1.19007 6.36733e-21)
(0.715531 1.15367 -1.00277e-19)
(0.598636 1.11415 1.10643e-20)
(0.47155 1.07556 0)
(0.352896 1.04641 0)
(0.305602 1.34047 -1.40746e-19)
(0.392754 2.94053 5.88222e-20)
(0.460763 3.50567 8.20678e-20)
(0.408955 3.57323 0)
(0.365555 3.62711 -3.03606e-20)
(0.321499 3.6744 2.59939e-20)
(0.270918 3.64042 8.57011e-22)