/*--------------------------------*- C++ -*----------------------------------*\
  =========                 |
  \\      /  F ield         | OpenFOAM: The Open Source CFD Toolbox
   \\    /   O peration     | Website:  https://openfoam.org
    \\  /    A nd           | Version:  6
     \\/     M anipulation  |
\*---------------------------------------------------------------------------*/
FoamFile
{
    version     2.0;
    format      ascii;
    class       volScalarField;
    location    "103.4";
    object      p;
}
// * * * * * * * * * * * * * * * * * * * * * * * * * * * * * * * * * * * * * //

dimensions      [0 2 -2 0 0 0 0];

internalField   nonuniform List<scalar> 
8800
(
0.926724
0.87741
0.839447
0.811381
0.791226
0.776647
0.76606
0.758535
0.753672
0.751631
0.753033
0.757402
0.764216
0.773657
0.786405
0.803734
0.827617
0.860718
0.903658
0.956173
0.761211
0.767556
0.776709
0.780261
0.777657
0.771575
0.764644
0.758417
0.753634
0.750791
0.750592
0.753251
0.757919
0.764066
0.77118
0.778224
0.783111
0.782992
0.776322
0.767427
0.734711
0.740949
0.745453
0.749329
0.752284
0.753243
0.752168
0.750064
0.748109
0.747302
0.748371
0.750856
0.753768
0.756057
0.756593
0.754816
0.751458
0.747452
0.742676
0.73896
0.730389
0.733156
0.735766
0.737931
0.739677
0.741257
0.742375
0.742749
0.742664
0.7428
0.743648
0.744828
0.7456
0.745473
0.744517
0.743176
0.741518
0.739225
0.736819
0.735253
0.725302
0.726729
0.728573
0.730662
0.732385
0.733692
0.734809
0.735815
0.736658
0.73744
0.738202
0.738707
0.738768
0.738434
0.737789
0.736692
0.735051
0.733168
0.731821
0.731018
0.720272
0.721176
0.722429
0.724066
0.725772
0.727322
0.728629
0.729783
0.730889
0.731962
0.73281
0.733255
0.733311
0.73298
0.732207
0.731042
0.7297
0.728449
0.727634
0.72711
0.715314
0.715971
0.716939
0.718268
0.719732
0.72127
0.722784
0.724187
0.725501
0.726774
0.727801
0.728365
0.728441
0.728051
0.727308
0.726397
0.72543
0.724543
0.723971
0.723586
0.710422
0.710928
0.711721
0.712877
0.714197
0.715641
0.717186
0.718774
0.720349
0.721889
0.723139
0.723834
0.723987
0.723726
0.723211
0.722562
0.721858
0.721216
0.720798
0.720497
0.705541
0.705943
0.706612
0.70765
0.708905
0.710304
0.711852
0.71355
0.715359
0.717207
0.71874
0.719656
0.720025
0.720013
0.719755
0.719339
0.718851
0.718409
0.718104
0.717859
0.700586
0.700913
0.701496
0.702461
0.703677
0.705073
0.70667
0.708487
0.710516
0.712695
0.714597
0.715853
0.716539
0.716818
0.71682
0.716651
0.716373
0.716099
0.715879
0.715672
0.695465
0.695736
0.696261
0.697184
0.698393
0.699829
0.701519
0.7035
0.705792
0.708358
0.710722
0.712415
0.713485
0.714096
0.714384
0.714466
0.714401
0.71428
0.714129
0.71395
0.690084
0.690311
0.6908
0.691713
0.692956
0.694474
0.696303
0.698508
0.701137
0.704183
0.707109
0.709326
0.710845
0.711838
0.71245
0.71279
0.712954
0.712977
0.712883
0.712722
0.684343
0.684537
0.685008
0.685941
0.687259
0.688907
0.690931
0.693432
0.696489
0.700129
0.703736
0.706577
0.708624
0.710058
0.71104
0.711689
0.712082
0.712237
0.712191
0.712042
0.678132
0.678299
0.67877
0.679751
0.681185
0.683016
0.685305
0.688188
0.69178
0.696149
0.70058
0.704168
0.706841
0.708789
0.710198
0.711191
0.711833
0.712124
0.71212
0.711977
0.671321
0.671464
0.671951
0.67301
0.674606
0.67668
0.679315
0.682679
0.686936
0.692192
0.697618
0.702099
0.705517
0.708072
0.709969
0.711357
0.712284
0.712714
0.712748
0.712607
0.663757
0.663878
0.664393
0.66556
0.667368
0.669757
0.672831
0.676799
0.681873
0.68821
0.694832
0.700379
0.704675
0.707951
0.710431
0.712278
0.713522
0.714098
0.714167
0.714023
0.655242
0.655345
0.655895
0.657204
0.659288
0.662076
0.665699
0.670418
0.676498
0.684147
0.692204
0.699019
0.704353
0.708474
0.711656
0.714041
0.715643
0.716371
0.71647
0.716319
0.645489
0.645592
0.64621
0.647694
0.650134
0.653424
0.657736
0.663388
0.670706
0.679948
0.689719
0.698033
0.704591
0.709708
0.713713
0.716729
0.718735
0.719621
0.719745
0.719584
0.634195
0.634274
0.634982
0.636723
0.639608
0.643537
0.648718
0.655535
0.664378
0.675552
0.687365
0.697438
0.705429
0.711716
0.71667
0.720427
0.722878
0.723921
0.724063
0.723888
0.62094
0.621007
0.621825
0.62388
0.627331
0.63208
0.638368
0.646654
0.657387
0.670903
0.685139
0.697258
0.706899
0.714543
0.720604
0.725198
0.728122
0.729311
0.72946
0.729267
0.60511
0.605169
0.60614
0.608618
0.612818
0.618637
0.626359
0.636519
0.649609
0.66596
0.683045
0.697523
0.709041
0.71823
0.72554
0.73106
0.734467
0.735773
0.735912
0.7357
0.585861
0.585916
0.587113
0.590189
0.595407
0.602672
0.612299
0.624891
0.640943
0.660718
0.681112
0.698257
0.711883
0.722794
0.731471
0.73799
0.741838
0.743207
0.743315
0.743083
0.561945
0.562005
0.563559
0.567535
0.574223
0.583516
0.595758
0.611565
0.631348
0.655225
0.679402
0.699506
0.715435
0.728223
0.738367
0.745874
0.750059
0.751409
0.751462
0.751215
0.531409
0.531501
0.533673
0.539115
0.548111
0.560403
0.57635
0.596441
0.620892
0.649607
0.678023
0.701324
0.71971
0.734455
0.74613
0.754509
0.758841
0.760062
0.760042
0.759786
0.490945
0.491178
0.494635
0.502787
0.515697
0.532663
0.553912
0.579648
0.609809
0.644079
0.677128
0.703801
0.724703
0.741449
0.754594
0.763585
0.767782
0.768759
0.768656
0.768403
0.434242
0.435434
0.442362
0.456187
0.475952
0.50017
0.528781
0.561651
0.598515
0.638938
0.676887
0.707023
0.730429
0.749087
0.763505
0.772696
0.776406
0.777058
0.776885
0.776647
0.35215
0.360222
0.376218
0.400472
0.430501
0.464433
0.501994
0.543011
0.587246
0.634296
0.677464
0.711312
0.737435
0.758115
0.77345
0.782375
0.785383
0.785715
0.785506
0.785312
0.264509
0.282264
0.308264
0.343726
0.384585
0.428337
0.474812
0.524019
0.575833
0.629956
0.67899
0.717165
0.74655
0.76942
0.785409
0.793313
0.795314
0.79537
0.795199
0.795082
0.189178
0.210913
0.245261
0.290308
0.340744
0.393746
0.448886
0.506109
0.565267
0.626073
0.680487
0.722508
0.754694
0.779265
0.795208
0.801829
0.803099
0.803067
0.80294
0.802859
0.127153
0.151316
0.191396
0.243318
0.301218
0.361914
0.424658
0.489183
0.555142
0.622144
0.681471
0.726954
0.761531
0.787313
0.802996
0.808728
0.809643
0.809585
0.809482
0.809415
0.075511
0.101153
0.145383
0.202631
0.266476
0.333455
0.40262
0.473521
0.545584
0.618235
0.682056
0.730661
0.767379
0.794233
0.809597
0.814647
0.815346
0.815269
0.815178
0.815114
0.0316622
0.0581744
0.10547
0.167017
0.235832
0.308142
0.382823
0.459306
0.536824
0.614597
0.682514
0.733949
0.772566
0.80025
0.81528
0.819828
0.820394
0.820302
0.820212
0.820146
-0.00647459
0.0205999
0.0702783
0.135383
0.208438
0.285386
0.364948
0.44644
0.528921
0.611387
0.683039
0.736985
0.777205
0.805496
0.820174
0.824358
0.824845
0.824742
0.824649
0.824577
-0.0404157
-0.0129193
0.0387082
0.106844
0.183579
0.264611
0.348568
0.434653
0.521747
0.608611
0.683707
0.739875
0.781406
0.810071
0.824369
0.828283
0.828731
0.828633
0.828543
0.828463
-0.0712242
-0.0433619
0.00990891
0.0806946
0.16068
0.245355
0.333302
0.423642
0.515108
0.606183
0.684549
0.742733
0.785319
0.814134
0.827998
0.831694
0.832139
0.832078
0.832007
0.83192
-0.0997509
-0.0715189
-0.0167824
0.056399
0.139282
0.227239
0.318836
0.413154
0.508804
0.604008
0.685596
0.745688
0.789146
0.817915
0.831285
0.834783
0.835254
0.835263
0.835234
0.835147
-0.126432
-0.0978737
-0.0418032
0.0335275
0.119026
0.209962
0.304924
0.40298
0.502672
0.60201
0.686889
0.748885
0.793112
0.821698
0.834529
0.837829
0.838338
0.83844
0.83847
0.838389
-0.151798
-0.122837
-0.0655355
0.0117612
0.0996309
0.193285
0.291365
0.392948
0.496563
0.600088
0.688454
0.752467
0.797439
0.825758
0.838023
0.841114
0.841649
0.841843
0.84194
0.841873
-0.176028
-0.146665
-0.0882114
-0.00912514
0.0808936
0.177036
0.278002
0.382915
0.490342
0.598139
0.690287
0.756551
0.802317
0.830304
0.841979
0.844829
0.845367
0.845631
0.845788
0.845739
-0.199316
-0.169538
-0.110012
-0.0292853
0.0626836
0.161093
0.264722
0.37276
0.483879
0.596026
0.692317
0.761224
0.807895
0.835496
0.846479
0.849045
0.849552
0.849858
0.850055
0.850023
-0.221806
-0.19157
-0.131041
-0.0488137
0.044903
0.145373
0.251447
0.362402
0.477063
0.593597
0.694419
0.766521
0.814357
0.841429
0.851519
0.853698
0.854156
0.854476
0.854682
0.85466
-0.243614
-0.212879
-0.151355
-0.0677673
0.0275139
0.12983
0.238134
0.351783
0.469802
0.590693
0.696417
0.772397
0.821889
0.848329
0.8571
0.858606
0.858992
0.859356
0.85956
0.859526
-0.264652
-0.233446
-0.170977
-0.0861898
0.0104868
0.11446
0.22476
0.340877
0.462039
0.587189
0.698096
0.778726
0.830659
0.856607
0.863453
0.863619
0.863745
0.864331
0.864717
0.86468
-0.284938
-0.25329
-0.189943
-0.104089
-0.0061764
0.0992625
0.211346
0.329675
0.453742
0.582966
0.699229
0.78528
0.84073
0.86681
0.871355
0.869192
0.868353
0.869388
0.870606
0.870832
-0.304565
-0.272412
-0.208273
-0.121472
-0.0224559
0.0842703
0.197923
0.318207
0.444901
0.577944
0.699575
0.791739
0.851963
0.879418
0.88216
0.876997
0.874098
0.875434
0.878447
0.879976
-0.323418
-0.290815
-0.225942
-0.138304
-0.0383299
0.0695288
0.18454
0.306519
0.435546
0.572089
0.698912
0.797703
0.86397
0.894431
0.896882
0.889374
0.883636
0.883081
0.886352
0.888381
-0.341599
-0.308537
-0.242975
-0.154639
-0.0538533
0.0549802
0.171128
0.294535
0.425581
0.565291
0.697015
0.802812
0.876389
0.911484
0.915609
0.907446
0.898672
0.891241
0.883598
0.887206
-0.359063
-0.325643
-0.259523
-0.170677
-0.0693218
0.0403047
0.15729
0.281802
0.414515
0.557003
0.693351
0.806478
0.889096
0.930582
0.937826
0.930638
0.917795
0.902182
0.879091
0.882662
-0.375704
-0.342138
-0.275444
-0.186244
-0.0844919
0.0257799
0.143193
0.26859
0.402553
0.547308
0.687645
0.807465
0.900435
0.949789
0.959238
0.951618
0.934643
0.901919
0.846463
0.823807
-0.39143
-0.359063
-0.290342
-0.200912
-0.0985608
0.0118925
0.129114
0.255166
0.389958
0.536327
0.679787
0.804833
0.908351
0.966791
0.973342
0.959521
0.929638
0.869836
0.80741
0.769912
-0.433181
-0.375795
-0.303926
-0.215655
-0.112307
-0.00237046
0.115199
0.241386
0.376477
0.523618
0.669124
0.797471
0.908825
0.975137
0.976054
0.940624
0.874461
0.799074
0.727209
0.687474
-0.406363
-0.387397
-0.324503
-0.235605
-0.133683
-0.0238398
0.0932482
0.219188
0.354076
0.501132
0.647272
0.776906
0.883245
0.957001
0.922166
0.791452
0.687578
0.61546
0.546387
0.566314
-0.436038
-0.403943
-0.340161
-0.25167
-0.150094
-0.0403205
0.0771179
0.202642
0.336903
0.482903
0.627441
0.754298
0.849397
0.890452
0.817756
0.659707
0.538065
0.455952
0.368951
0.406659
-0.458652
-0.424272
-0.358795
-0.270239
-0.168693
-0.0588566
0.0585949
0.183515
0.316706
0.460767
0.601991
0.722869
0.805662
0.808525
0.680875
0.510968
0.371107
0.270145
0.170474
0.194398
-0.480449
-0.445117
-0.37835
-0.289173
-0.18754
-0.0777738
0.0392398
0.163327
0.29512
0.436609
0.573078
0.684183
0.749057
0.717673
0.540176
0.351562
0.183456
0.04353
-0.085079
-0.0805316
-0.501834
-0.46621
-0.39862
-0.308902
-0.207149
-0.0975858
0.0188021
0.14184
0.271836
0.410124
0.540475
0.64118
0.684254
0.600978
0.400877
0.194515
0.00209658
-0.155814
-0.36198
-0.44267
-0.523497
-0.488033
-0.420008
-0.329943
-0.228074
-0.11871
-0.00292872
0.118953
0.246905
0.3815
0.504782
0.595793
0.609282
0.475085
0.272866
0.0565752
-0.139775
-0.30289
-0.42594
-0.538831
-0.546498
-0.51106
-0.442868
-0.35268
-0.250853
-0.141822
-0.0267872
0.0936925
0.219138
0.349261
0.464708
0.541736
0.525553
0.355212
0.152544
-0.0571416
-0.236648
-0.335294
-0.36115
-0.37417
-0.570983
-0.535586
-0.467324
-0.377198
-0.275632
-0.167147
-0.0531587
0.0655276
0.187891
0.312589
0.41935
0.476901
0.439068
0.239845
0.0396829
-0.149463
-0.285281
-0.323765
-0.332156
-0.332505
-0.597243
-0.561743
-0.493421
-0.403485
-0.302362
-0.194703
-0.082084
0.0343785
0.153064
0.271465
0.368717
0.408172
0.333913
0.133754
-0.0594307
-0.223787
-0.299986
-0.314066
-0.315068
-0.314943
-0.625282
-0.589566
-0.521187
-0.431551
-0.331072
-0.224496
-0.113592
0.000205981
0.114656
0.225998
0.312603
0.334782
0.221499
0.0369764
-0.145038
-0.275151
-0.304369
-0.304987
-0.305525
-0.305125
-0.654857
-0.618903
-0.550534
-0.461327
-0.361693
-0.256492
-0.147677
-0.0369858
0.0727183
0.176314
0.25214
0.253803
0.122486
-0.0511255
-0.211858
-0.287026
-0.301748
-0.299702
-0.299387
-0.298992
-0.685419
-0.64941
-0.581207
-0.492593
-0.394049
-0.290547
-0.184204
-0.077088
0.0274788
0.122939
0.187623
0.172567
0.0322816
-0.127961
-0.25672
-0.295736
-0.295025
-0.29527
-0.294982
-0.294655
-0.716528
-0.680563
-0.612728
-0.524943
-0.427798
-0.326347
-0.222896
-0.119826
-0.0207534
0.06687
0.118079
0.0962239
-0.0481363
-0.188251
-0.282871
-0.291147
-0.292401
-0.292638
-0.292479
-0.292249
-0.747206
-0.711503
-0.644383
-0.557753
-0.462395
-0.363417
-0.263285
-0.164701
-0.0715366
0.00898715
0.0489203
0.0198068
-0.116053
-0.230132
-0.287529
-0.297521
-0.292028
-0.290971
-0.290576
-0.290381
-0.775821
-0.740966
-0.675145
-0.590146
-0.497066
-0.40105
-0.304695
-0.210956
-0.124071
-0.0502283
-0.0150531
-0.0581869
-0.170664
-0.261877
-0.284844
-0.288449
-0.289293
-0.288873
-0.28868
-0.288562
-0.801129
-0.76746
-0.703631
-0.620927
-0.530755
-0.4383
-0.34624
-0.25765
-0.177092
-0.110216
-0.0772676
-0.125193
-0.211933
-0.2803
-0.301493
-0.291794
-0.288409
-0.287391
-0.28713
-0.287001
-0.820532
-0.788905
-0.728101
-0.648591
-0.562154
-0.473985
-0.386801
-0.303705
-0.229276
-0.169172
-0.139016
-0.177578
-0.23952
-0.283911
-0.289357
-0.289022
-0.287447
-0.286892
-0.286706
-0.286537
-0.832036
-0.803237
-0.74651
-0.671413
-0.589745
-0.506725
-0.425051
-0.347862
-0.279498
-0.22448
-0.195497
-0.221159
-0.256388
-0.28303
-0.282664
-0.286143
-0.287639
-0.287696
-0.287586
-0.287471
-0.832983
-0.808115
-0.756794
-0.687569
-0.61191
-0.535059
-0.459578
-0.388623
-0.326527
-0.275466
-0.242653
-0.260115
-0.270407
-0.286453
-0.288352
-0.288231
-0.288706
-0.288792
-0.288772
-0.288753
-0.821007
-0.800901
-0.756837
-0.695339
-0.6272
-0.557615
-0.489066
-0.424465
-0.368594
-0.323298
-0.278034
-0.296337
-0.282584
-0.291418
-0.292649
-0.290558
-0.289931
-0.290199
-0.29049
-0.290554
-0.794056
-0.779393
-0.74485
-0.693534
-0.634578
-0.573425
-0.512481
-0.454322
-0.403929
-0.366147
-0.318048
-0.311656
-0.300341
-0.299551
-0.295001
-0.295432
-0.295164
-0.295773
-0.29629
-0.296392
-0.755604
-0.746269
-0.722096
-0.682469
-0.634097
-0.58225
-0.529249
-0.477658
-0.431976
-0.399772
-0.368177
-0.339709
-0.3124
-0.315527
-0.323645
-0.316709
-0.311011
-0.309788
-0.310236
-0.310296
-0.712672
-0.707346
-0.693482
-0.665247
-0.627864
-0.584933
-0.539546
-0.494023
-0.452243
-0.421334
-0.39349
-0.367517
-0.337426
-0.319131
-0.300543
-0.303477
-0.322535
-0.334525
-0.337883
-0.337977
-0.674974
-0.671715
-0.665087
-0.647144
-0.61872
-0.583318
-0.544334
-0.50343
-0.46381
-0.431274
-0.405202
-0.389607
-0.378527
-0.3881
-0.40908
-0.436962
-0.43891
-0.411203
-0.396477
-0.398624
-0.647824
-0.645893
-0.642533
-0.631927
-0.610288
-0.580469
-0.545519
-0.506967
-0.466936
-0.43069
-0.403367
-0.394036
-0.424658
-0.485173
-0.553458
-0.599318
-0.606343
-0.571616
-0.523896
-0.508715
-0.627929
-0.627249
-0.626119
-0.620875
-0.605054
-0.578875
-0.545196
-0.506305
-0.463521
-0.420777
-0.389547
-0.360507
-0.348525
-0.369826
-0.409563
-0.417789
-0.419917
-0.410316
-0.387509
-0.374404
-0.61631
-0.616086
-0.615473
-0.613063
-0.602335
-0.578295
-0.544276
-0.50331
-0.456079
-0.403553
-0.359712
-0.303362
-0.231109
-0.176804
-0.160432
-0.160382
-0.138694
-0.103276
-0.0694744
-0.0524819
-0.608299
-0.608151
-0.607741
-0.607048
-0.600513
-0.57888
-0.543839
-0.499469
-0.446353
-0.382497
-0.317275
-0.233048
-0.10383
0.0500303
0.182296
0.280929
0.367075
0.435877
0.486546
0.508544
-0.603119
-0.603073
-0.602947
-0.602776
-0.5989
-0.580704
-0.544684
-0.495971
-0.436971
-0.362426
-0.277821
-0.180982
0.000708912
0.255756
0.532951
0.780608
0.959115
1.06268
1.10864
1.12296
-0.598964
-0.598957
-0.59888
-0.598764
-0.597373
-0.583154
-0.546886
-0.494485
-0.429984
-0.347587
-0.251231
-0.146848
0.0531826
0.353918
0.686533
0.995988
1.23424
1.36032
1.40103
1.40879
-0.595505
-0.595524
-0.595437
-0.595225
-0.595055
-0.585137
-0.550488
-0.496155
-0.427309
-0.341173
-0.240102
-0.134189
0.045704
0.326503
0.635555
0.922671
1.14479
1.26248
1.3033
1.31258
-0.592857
-0.592907
-0.592972
-0.593065
-0.593573
-0.58658
-0.555355
-0.500446
-0.430094
-0.343674
-0.244309
-0.146233
0.00315159
0.247399
0.503558
0.7293
0.905405
1.00502
1.04473
1.05583
-0.590092
-0.590244
-0.590558
-0.591104
-0.591495
-0.587663
-0.560255
-0.507199
-0.438283
-0.353793
-0.261435
-0.174756
-0.0603115
0.140928
0.351439
0.526191
0.662652
0.746209
0.781066
0.790274
-0.587752
-0.587886
-0.587881
-0.587616
-0.587213
-0.585612
-0.563597
-0.515724
-0.450398
-0.370329
-0.286754
-0.212904
-0.129151
0.0269273
0.197823
0.336764
0.444818
0.511494
0.538102
0.543934
-0.587893
-0.587834
-0.587186
-0.585347
-0.582725
-0.581177
-0.566575
-0.526265
-0.465191
-0.390106
-0.315687
-0.253382
-0.190712
-0.0699612
0.062046
0.16687
0.248284
0.298664
0.317443
0.320588
-0.591832
-0.591698
-0.591028
-0.589166
-0.586003
-0.584009
-0.575869
-0.540115
-0.480598
-0.410728
-0.346563
-0.292847
-0.247622
-0.156049
-0.0533377
0.0250724
0.0833554
0.11811
0.130067
0.131624
-0.598244
-0.598593
-0.599821
-0.602994
-0.60733
-0.609025
-0.59891
-0.557338
-0.495032
-0.432243
-0.375388
-0.32732
-0.289417
-0.22306
-0.148492
-0.0925323
-0.0509453
-0.0278393
-0.0197322
-0.0188735
-0.601965
-0.603135
-0.607443
-0.619445
-0.637604
-0.644972
-0.627088
-0.571784
-0.508757
-0.453847
-0.401075
-0.356184
-0.32576
-0.273579
-0.218652
-0.180821
-0.154464
-0.140205
-0.135383
-0.135398
-0.602054
-0.603199
-0.607601
-0.619933
-0.642392
-0.656208
-0.626906
-0.571002
-0.520446
-0.472923
-0.421187
-0.380449
-0.35572
-0.317261
-0.276359
-0.249049
-0.231507
-0.222567
-0.219857
-0.21997
-0.607064
-0.607661
-0.608901
-0.604528
-0.58899
-0.576067
-0.570702
-0.550114
-0.525978
-0.48444
-0.434979
-0.400427
-0.378584
-0.345499
-0.313584
-0.293961
-0.281043
-0.275034
-0.273015
-0.273011
-0.619493
-0.619365
-0.617106
-0.593649
-0.5373
-0.491202
-0.501735
-0.528996
-0.528255
-0.490624
-0.445572
-0.415303
-0.395769
-0.36489
-0.335249
-0.316927
-0.305592
-0.299794
-0.297332
-0.297368
-0.64004
-0.638043
-0.633409
-0.611431
-0.56207
-0.518109
-0.525082
-0.558289
-0.549088
-0.499781
-0.453196
-0.426434
-0.404213
-0.374841
-0.345705
-0.325296
-0.310704
-0.302534
-0.299516
-0.299681
-0.695248
-0.694286
-0.708642
-0.73063
-0.737202
-0.71303
-0.685902
-0.650341
-0.587707
-0.510451
-0.462037
-0.431839
-0.406902
-0.376121
-0.344614
-0.319601
-0.301102
-0.290638
-0.287358
-0.287866
-0.809901
-0.820427
-0.856826
-0.902332
-0.921051
-0.902603
-0.849507
-0.753739
-0.626018
-0.520566
-0.465935
-0.426774
-0.402478
-0.37023
-0.334269
-0.305795
-0.284759
-0.273438
-0.270054
-0.270766
-0.910277
-0.925291
-0.959094
-0.991681
-1.00775
-0.990008
-0.923183
-0.788373
-0.629812
-0.518603
-0.450985
-0.408596
-0.386119
-0.352622
-0.315542
-0.286564
-0.265594
-0.254423
-0.251065
-0.251802
-0.915312
-0.927237
-0.949731
-0.973578
-0.987387
-0.972768
-0.902531
-0.744422
-0.589895
-0.484987
-0.4113
-0.374575
-0.355642
-0.320243
-0.284675
-0.258769
-0.24086
-0.231559
-0.228871
-0.229558
-0.814074
-0.823528
-0.841652
-0.862326
-0.876335
-0.863956
-0.795333
-0.649604
-0.521196
-0.418592
-0.351082
-0.32576
-0.306584
-0.273534
-0.243883
-0.223062
-0.208861
-0.201723
-0.199686
-0.200262
-0.626527
-0.636688
-0.656353
-0.680462
-0.699741
-0.690619
-0.621487
-0.514365
-0.415653
-0.328065
-0.281783
-0.260881
-0.242043
-0.215507
-0.19289
-0.176828
-0.165964
-0.160788
-0.159565
-0.160149
-0.388037
-0.398374
-0.419015
-0.447968
-0.471946
-0.465453
-0.414815
-0.345554
-0.277564
-0.226876
-0.200039
-0.181417
-0.170454
-0.151306
-0.134076
-0.122107
-0.113923
-0.110237
-0.109798
-0.110532
-0.141181
-0.152835
-0.178137
-0.20913
-0.232788
-0.234164
-0.210255
-0.178272
-0.145564
-0.123648
-0.107099
-0.0982424
-0.0958427
-0.082688
-0.0729512
-0.0657637
-0.0593599
-0.0565006
-0.0569835
-0.0579953
0.0161853
0.0065276
-0.00992565
-0.0259043
-0.037129
-0.0422744
-0.0438582
-0.039773
-0.0326623
-0.0280852
-0.0233559
-0.0200906
-0.0187148
-0.0171543
-0.0149711
-0.016263
-0.0161132
-0.0155122
-0.0136321
-0.0129876
0.0431392
0.226053
0.392935
0.533185
0.643412
0.728354
0.797772
0.853947
0.867182
0.864474
0.319494
0.435935
0.544649
0.637829
0.715289
0.778475
0.827953
0.861356
0.879297
0.896348
0.50618
0.583252
0.659303
0.725669
0.781847
0.828272
0.864926
0.893128
0.914392
0.9337
0.644415
0.699331
0.754422
0.803737
0.846234
0.882434
0.912938
0.938602
0.958428
0.977342
0.756833
0.798255
0.83926
0.877703
0.912113
0.942617
0.969361
0.992144
1.00989
1.028
0.85088
0.885413
0.919362
0.951956
0.982075
1.00942
1.03366
1.05411
1.06966
1.08715
0.937248
0.968497
0.99998
1.03048
1.05889
1.08476
1.1075
1.12617
1.13991
1.15691
1.02295
1.05511
1.08706
1.11786
1.14629
1.17178
1.19365
1.21099
1.22324
1.23974
1.1166
1.15287
1.18739
1.21959
1.24853
1.27367
1.29461
1.31076
1.32226
1.33837
1.22934
1.27006
1.30687
1.33954
1.36782
1.39165
1.41115
1.42634
1.43815
1.45419
1.37075
1.41157
1.4467
1.47611
1.50118
1.5227
1.54113
1.55656
1.56963
1.58555
1.54199
1.5739
1.60084
1.62318
1.64322
1.66189
1.67959
1.69633
1.71122
1.72692
1.728
1.74518
1.76225
1.77892
1.795
1.80972
1.8236
1.83806
1.85328
1.87058
1.91137
1.92127
1.93442
1.9454
1.9548
1.96445
1.97504
1.9852
1.99448
2.02015
2.12914
2.12344
2.11049
2.09623
2.08992
2.09562
2.11375
2.14227
2.17604
2.21236
2.43197
2.29603
2.2165
2.17394
2.1566
2.1606
2.18802
2.24588
2.35353
2.53194
0.830415
0.824114
0.816387
0.805277
0.791714
0.779077
0.768696
0.76071
0.755028
0.751747
0.75146
0.754355
0.759639
0.767033
0.77661
0.788459
0.802035
0.814973
0.823969
0.831514
0.739467
0.745387
0.753464
0.759603
0.762681
0.762182
0.759114
0.755146
0.751596
0.749365
0.7493
0.751622
0.755431
0.759918
0.76405
0.766317
0.765259
0.760634
0.753586
0.745756
0.732687
0.73506
0.738333
0.741114
0.743576
0.745781
0.746982
0.746866
0.745972
0.745225
0.745517
0.74701
0.748854
0.750131
0.750091
0.748651
0.746512
0.744165
0.741193
0.738179
0.727858
0.728946
0.730869
0.733217
0.735103
0.73652
0.737764
0.738793
0.739443
0.739891
0.740536
0.74137
0.74191
0.741848
0.741263
0.740372
0.739065
0.737114
0.735019
0.733545
0.72278
0.723414
0.724549
0.726319
0.72818
0.729796
0.731078
0.732185
0.733226
0.734208
0.735101
0.735729
0.735954
0.735815
0.735331
0.734397
0.732999
0.731412
0.730089
0.729291
0.717787
0.718225
0.71902
0.720339
0.721882
0.723474
0.724989
0.726337
0.727562
0.728748
0.729829
0.73056
0.730845
0.730692
0.730093
0.729143
0.728028
0.726913
0.726027
0.725497
0.712866
0.713192
0.713812
0.714899
0.716221
0.717654
0.719178
0.720714
0.72219
0.72361
0.724911
0.725812
0.726168
0.726026
0.725509
0.724788
0.723991
0.723172
0.722531
0.722142
0.707989
0.708242
0.708743
0.709675
0.710879
0.712229
0.713705
0.715306
0.716986
0.718689
0.720269
0.721378
0.721879
0.721907
0.721626
0.721159
0.720586
0.720004
0.719546
0.71925
0.703082
0.703283
0.703702
0.704527
0.705659
0.70697
0.708444
0.710105
0.711947
0.713924
0.715837
0.71725
0.718025
0.718328
0.718313
0.718093
0.717743
0.717363
0.71705
0.716818
0.698056
0.698217
0.698578
0.699334
0.700427
0.70173
0.703247
0.70501
0.707036
0.709307
0.711615
0.713442
0.714589
0.715223
0.715496
0.715533
0.715417
0.715226
0.715032
0.714847
0.692817
0.692946
0.693267
0.693982
0.695067
0.696406
0.698008
0.699923
0.70219
0.704821
0.707612
0.709949
0.711543
0.712562
0.713164
0.713481
0.7136
0.713597
0.713507
0.713358
0.68727
0.687373
0.687666
0.688367
0.689479
0.6909
0.692633
0.694756
0.69734
0.700425
0.703807
0.706756
0.708879
0.710344
0.711321
0.711947
0.712332
0.712513
0.712514
0.712391
0.681309
0.68139
0.681668
0.682379
0.683555
0.6851
0.687021
0.689422
0.69241
0.69606
0.700165
0.70385
0.706601
0.708588
0.709999
0.710996
0.711659
0.712024
0.712109
0.712007
0.674815
0.674876
0.675149
0.675893
0.677169
0.678886
0.681061
0.683825
0.687321
0.691668
0.696649
0.70122
0.704721
0.707326
0.709236
0.710645
0.711631
0.712199
0.712364
0.712278
0.667649
0.667687
0.667964
0.668764
0.670179
0.672125
0.674629
0.677854
0.681982
0.687182
0.693226
0.69886
0.70325
0.706587
0.709092
0.710977
0.712333
0.713121
0.713366
0.713292
0.659639
0.659657
0.659937
0.660816
0.662414
0.664654
0.667576
0.671377
0.67629
0.682534
0.689861
0.696764
0.70221
0.70641
0.709622
0.71208
0.713858
0.714884
0.715207
0.71514
0.650527
0.650535
0.650842
0.651826
0.653662
0.656273
0.659722
0.664242
0.670124
0.677644
0.686517
0.694934
0.701629
0.706844
0.710887
0.71403
0.716293
0.71758
0.717981
0.717916
0.640049
0.64003
0.640378
0.641514
0.64365
0.646734
0.650845
0.656266
0.663349
0.672429
0.683162
0.693368
0.701535
0.707945
0.712969
0.716901
0.719727
0.721295
0.721768
0.7217
0.627823
0.627785
0.628184
0.629509
0.632026
0.635717
0.640672
0.647228
0.655806
0.666796
0.679764
0.692077
0.701956
0.709757
0.715932
0.720772
0.724232
0.726089
0.726625
0.726548
0.613341
0.61328
0.61376
0.615338
0.618347
0.622822
0.628863
0.636868
0.647325
0.66066
0.676299
0.691079
0.702922
0.712316
0.719822
0.725695
0.729843
0.731984
0.732563
0.73247
0.595881
0.595798
0.596408
0.598343
0.602008
0.607527
0.615
0.624888
0.637732
0.653954
0.672769
0.690395
0.704469
0.715661
0.724641
0.73167
0.736544
0.738931
0.739521
0.739404
0.574412
0.574312
0.575132
0.57759
0.58218
0.589146
0.598572
0.610968
0.626881
0.64666
0.669211
0.690065
0.706624
0.719799
0.730393
0.73867
0.744236
0.746789
0.747347
0.747199
0.547367
0.547269
0.548444
0.551712
0.557718
0.566797
0.579005
0.594824
0.614705
0.638834
0.665718
0.690155
0.709415
0.724723
0.737037
0.746582
0.752721
0.755306
0.755778
0.755594
0.512208
0.512167
0.513985
0.518661
0.527046
0.539473
0.555789
0.576325
0.601297
0.630647
0.662443
0.690773
0.712875
0.730406
0.744485
0.755211
0.76168
0.764112
0.764444
0.764229
0.464424
0.46462
0.467869
0.47552
0.488355
0.506306
0.52875
0.555671
0.586981
0.6224
0.659599
0.692046
0.71706
0.736806
0.752608
0.764281
0.770685
0.772743
0.772903
0.77267
0.395563
0.397067
0.405008
0.419546
0.440625
0.467399
0.498502
0.533551
0.572332
0.614498
0.657419
0.694069
0.721995
0.743843
0.761119
0.773287
0.779158
0.78066
0.780662
0.780442
0.313278
0.316186
0.331683
0.356867
0.389273
0.426435
0.466872
0.510442
0.557056
0.606461
0.655785
0.697401
0.728954
0.753478
0.772236
0.784306
0.789352
0.790368
0.790317
0.790187
0.22884
0.236409
0.259733
0.295541
0.338865
0.386199
0.435959
0.488069
0.542517
0.599106
0.654757
0.701237
0.736278
0.763418
0.783516
0.794959
0.798662
0.799122
0.799038
0.798963
0.159541
0.169294
0.197562
0.240884
0.29274
0.348654
0.406784
0.466865
0.528731
0.592097
0.6536
0.704482
0.742592
0.771771
0.792492
0.803095
0.806
0.806282
0.80621
0.806162
0.102585
0.113105
0.145143
0.194017
0.252303
0.315034
0.380144
0.44717
0.515708
0.58528
0.652155
0.70703
0.747875
0.778798
0.799941
0.809843
0.812218
0.812398
0.812337
0.812305
0.0547551
0.0656456
0.100282
0.153466
0.216971
0.285327
0.356289
0.429279
0.503702
0.578864
0.650638
0.709151
0.752477
0.784968
0.80635
0.815649
0.817665
0.817783
0.817724
0.817697
0.0136237
0.024675
0.0612396
0.117867
0.185711
0.258874
0.334916
0.413144
0.492823
0.573049
0.649291
0.711099
0.756615
0.790379
0.811891
0.820688
0.82247
0.822545
0.822482
0.822454
-0.0225276
-0.0114257
0.0266394
0.0861114
0.157645
0.234974
0.315514
0.398466
0.482952
0.567859
0.648225
0.713003
0.7604
0.795172
0.816669
0.82504
0.82667
0.826724
0.82666
0.826628
-0.0549638
-0.0438512
-0.00460173
0.0573155
0.132055
0.213055
0.297617
0.384887
0.473848
0.563182
0.647441
0.714945
0.763955
0.799462
0.820798
0.828783
0.830317
0.83038
0.830333
0.830302
-0.0847199
-0.0735797
-0.0332879
0.0307947
0.108386
0.192652
0.280846
0.372092
0.46527
0.558863
0.646904
0.717
0.767434
0.803442
0.82447
0.832076
0.833545
0.83365
0.83365
0.833633
-0.112383
-0.101205
-0.0599869
0.00604326
0.0861842
0.17339
0.264897
0.359829
0.457005
0.554759
0.64659
0.719265
0.771016
0.807352
0.827956
0.835172
0.836588
0.836765
0.836839
0.83685
-0.138449
-0.127222
-0.0851415
-0.0173384
0.0651053
0.154977
0.249523
0.34789
0.448885
0.550744
0.646471
0.721832
0.774896
0.811458
0.831556
0.838371
0.839732
0.839987
0.840147
0.840198
-0.163322
-0.151959
-0.109074
-0.0396341
0.0448995
0.13719
0.234534
0.336114
0.440756
0.546694
0.646495
0.724778
0.779246
0.81599
0.835531
0.841932
0.843213
0.843531
0.84377
0.843863
-0.18715
-0.175631
-0.131981
-0.0610474
0.0253841
0.119881
0.219791
0.324364
0.432488
0.542467
0.646568
0.728147
0.784208
0.821125
0.840049
0.845986
0.847159
0.847511
0.847807
0.847938
-0.210146
-0.198419
-0.154038
-0.0817037
0.0064438
0.102936
0.205195
0.312545
0.423971
0.537937
0.646553
0.731913
0.789916
0.827021
0.845184
0.850553
0.851577
0.851935
0.852254
0.852407
-0.232324
-0.220408
-0.175327
-0.101681
-0.0119909
0.0862944
0.190691
0.300596
0.415124
0.532968
0.646283
0.735978
0.79648
0.833857
0.850986
0.85554
0.856338
0.856706
0.857023
0.857167
-0.253808
-0.241659
-0.195863
-0.121021
-0.0299642
0.0699227
0.176245
0.288483
0.405892
0.527455
0.645574
0.74018
0.803939
0.841943
0.85769
0.860859
0.861171
0.861597
0.862001
0.86215
-0.274476
-0.262175
-0.215679
-0.139759
-0.0474871
0.0538329
0.161855
0.276196
0.396248
0.521329
0.644243
0.744291
0.812249
0.851602
0.865851
0.866788
0.865929
0.866355
0.867239
0.867654
-0.294492
-0.281965
-0.23479
-0.157918
-0.0645735
0.0380138
0.147557
0.263745
0.386187
0.514547
0.64213
0.74803
0.821207
0.86307
0.876325
0.874515
0.871355
0.871264
0.873256
0.874733
-0.313749
-0.300993
-0.253217
-0.175485
-0.081179
0.0225096
0.133385
0.251195
0.375739
0.507068
0.639101
0.751081
0.830466
0.876298
0.88992
0.885876
0.879754
0.878099
0.881113
0.884876
-0.33233
-0.319352
-0.270935
-0.19243
-0.0972979
0.00735478
0.119391
0.23858
0.364951
0.498931
0.635066
0.753101
0.83954
0.890794
0.906556
0.901961
0.893474
0.888389
0.886034
0.881321
-0.350164
-0.337025
-0.288036
-0.20893
-0.113156
-0.00772622
0.105255
0.225525
0.353425
0.489718
0.629644
0.753734
0.848329
0.906743
0.926435
0.923274
0.91358
0.902137
0.889519
0.889826
-0.367246
-0.35411
-0.304549
-0.224942
-0.128757
-0.0227138
0.0909869
0.211983
0.341085
0.479234
0.622506
0.752218
0.855669
0.923108
0.94756
0.946649
0.934898
0.920717
0.883797
0.846685
-0.383399
-0.370478
-0.320462
-0.240346
-0.14412
-0.0376307
0.0765612
0.198058
0.327952
0.467432
0.613396
0.747857
0.859729
0.938036
0.967259
0.964451
0.948778