/*--------------------------------*- C++ -*----------------------------------*\
  =========                 |
  \\      /  F ield         | OpenFOAM: The Open Source CFD Toolbox
   \\    /   O peration     | Website:  https://openfoam.org
    \\  /    A nd           | Version:  6
     \\/     M anipulation  |
\*---------------------------------------------------------------------------*/
FoamFile
{
    version     2.0;
    format      ascii;
    class       surfaceScalarField;
    location    "75";
    object      phi;
}
// * * * * * * * * * * * * * * * * * * * * * * * * * * * * * * * * * * * * * //

dimensions      [0 3 -1 0 0 0 0];

internalField   nonuniform List<scalar> 
17370
(
-0.0899993
0.0898527
0.289158
-0.0714598
0.053755
0.36448
-0.0381228
0.0276972
0.426594
-0.0196485
0.0146169
0.504283
-0.0107747
0.00828292
0.601894
-0.00628134
0.00490325
0.720436
-0.00373811
0.00289677
0.863748
-0.00215474
0.00159521
1.03601
-0.00107822
0.000665443
1.24292
-0.000257765
-0.000136243
1.49158
0.000515673
-0.000926366
1.4916
0.00132506
-0.00181545
1.24318
0.00234427
-0.00305093
1.03634
0.00386509
-0.0050097
0.864051
0.00637685
-0.00837137
0.721052
0.0108578
-0.0146937
0.60305
0.0197189
-0.0277601
0.50748
0.0381786
-0.0538021
0.431792
0.0714984
-0.0898784
0.365156
0.0900149
0.198996
-0.128134
0.0882157
0.0399179
-0.364593
0.353408
-0.074684
0.0858683
-0.446478
0.454321
-0.0843724
0.076529
-0.521188
0.529899
-0.0684379
0.0597267
-0.612786
0.621565
-0.0515383
0.0427597
-0.726894
0.734161
-0.0353007
0.0280338
-0.867476
0.87259
-0.0224353
0.0173217
-1.03847
1.04192
-0.0135131
0.010064
-1.2446
1.24703
-0.00745351
0.00502051
-1.49262
1.4946
-0.00307281
0.00109537
-1.4925
1.49423
0.000585302
-0.00230867
-1.24398
1.24586
0.00421196
-0.00609709
-1.03751
1.04004
0.00845391
-0.0109825
-0.866103
0.869828
0.014334
-0.018059
-0.724393
0.729933
0.0230951
-0.0286354
-0.608698
0.61611
0.0358477
-0.0432598
-0.514896
0.523039
0.0519886
-0.060132
-0.439855
0.447908
0.0687949
-0.0768475
-0.375301
0.376738
0.0846449
-0.0860822
-0.257328
0.222473
0.0748293
-0.0399742
-0.0685152
0.0586927
0.00982248
-0.0518165
0.0584012
-0.374129
0.367544
-0.0574857
0.0537323
-0.453597
0.457351
-0.0486405
0.0446847
-0.527948
0.531903
-0.0408407
0.0371989
-0.621562
0.625204
-0.0330943
0.0290171
-0.735347
0.739424
-0.024446
0.0202868
-0.874339
0.878498
-0.0159412
0.0122476
-1.04349
1.04718
-0.00851006
0.0053366
-1.24856
1.25174
-0.00200706
-0.0010663
-1.49666
1.49973
0.00411406
-0.00738025
-1.4972
1.50047
0.0104605
-0.0140662
-1.25007
1.25367
0.0176221
-0.0218076
-1.04592
1.05011
0.0258283
-0.0302642
-0.877759
0.882195
0.0342339
-0.0382331
-0.739898
0.743897
0.0417855
-0.0455363
-0.626773
0.630524
0.049412
-0.0544271
-0.534811
0.539826
0.0580972
-0.0589079
-0.457478
0.458289
0.0522004
-0.0319867
-0.33576
0.315546
0.00988505
-0.0683418
0.0584567
-0.0529426
0.0489475
0.00399513
-0.0331572
0.0437
-0.358111
0.347568
-0.0473969
0.0467686
-0.459288
0.459917
-0.0437119
0.0403584
-0.535806
0.53916
-0.036585
0.0332798
-0.628532
0.631837
-0.0298399
0.0268059
-0.742649
0.745683
-0.0235445
0.0204357
-0.882018
0.885127
-0.0169033
0.0135224
-1.05077
1.05415
-0.00972748
0.00618741
-1.25517
1.25871
-0.00221662
-0.00158151
-1.50324
1.50704
0.00534703
-0.009221
-1.50413
1.50801
0.0126296
-0.0162419
-1.25741
1.26103
0.0194312
-0.0227396
-1.05392
1.05722
0.0256518
-0.028718
-0.885688
0.888754
0.0315941
-0.0348781
-0.747157
0.750441
0.038052
-0.0416909
-0.634309
0.637948
0.0449289
-0.0478541
-0.544136
0.547062
0.0483441
-0.0444526
-0.456571
0.452679
0.0336779
-0.0162244
-0.296178
0.278724
0.00407287
-0.0526366
0.0485638
-0.0458704
0.043376
0.0024944
-0.0227991
0.0331736
-0.336882
0.326507
-0.0389912
0.0400052
-0.459603
0.458589
-0.0388124
0.0365234
-0.54188
0.544169
-0.0338537
0.0312558
-0.634888
0.637486
-0.0281909
0.02529
-0.748729
0.75163
-0.0220238
0.0190285
-0.888082
0.891077
-0.0157215
0.0126201
-1.05729
1.06039
-0.00909157
0.00568064
-1.26217
1.26558
-0.0017156
-0.00216967
-1.51092
1.51481
0.0060115
-0.00984781
-1.5119
1.51573
0.013085
-0.0163744
-1.26446
1.26775
0.0192249
-0.022238
-1.06033
1.06334
0.0249728
-0.0279777
-0.891807
0.894812
0.0306641
-0.0335153
-0.753645
0.756496
0.0359333
-0.0384214
-0.641011
0.643499
0.0405545
-0.0415427
-0.548863
0.549851
0.0403146
-0.0341845
-0.447395
0.441265
0.0234686
-0.0102424
-0.263499
0.250273
0.0025905
-0.0453992
0.0428087
-0.0413022
0.0395367
0.00176548
-0.0167352
0.0259798
-0.31666
0.307415
-0.032579
0.0347143
-0.456992
0.454856
-0.0342894
0.0326157
-0.546148
0.547822
-0.0304313
0.0283329
-0.639792
0.641891
-0.025898
0.0234976
-0.754276
0.756676
-0.0206364
0.0178449
-0.893974
0.896766
-0.0146061
0.0115343
-1.06344
1.06651
-0.00804104
0.00471245
-1.2689
1.27223
-0.000876876
-0.00285807
-1.5186
1.52233
0.00653758
-0.0102088
-1.51947
1.52314
0.0133158
-0.0165048
-1.27099
1.27418
0.0192569
-0.0221201
-1.06637
1.06923
0.0245774
-0.0271016
-0.897624
0.900149
0.0292245
-0.0313831
-0.758943
0.761101
0.0332513
-0.035202
-0.645651
0.647601
0.0366496
-0.0367964
-0.550365
0.550511
0.0343326
-0.0272759
-0.434591
0.427534
0.0175712
-0.00741558
-0.238732
0.228576
0.00188287
-0.0406278
0.0387449
-0.0380163
0.0366894
0.00132697
-0.0127695
0.0207046
-0.29883
0.290895
-0.0274438
0.0303582
-0.452302
0.449388
-0.0305557
0.0294304
-0.549255
0.55038
-0.0274317
0.0255101
-0.643928
0.64585
-0.0233046
0.0211624
-0.758917
0.761059
-0.0186421
0.0161538
-0.899342
0.901831
-0.0132057
0.0103206
-1.06945
1.07233
-0.00695207
0.00370503
-1.27549
1.27874
4.73115e-05
-0.00367901
-1.52599
1.52962
0.00724127
-0.0107867
-1.52673
1.53028
0.0137554
-0.0167434
-1.2773
1.28028
0.0192291
-0.0217075
-1.07197
1.07444
0.0237773
-0.0258745
-0.902433
0.904531
0.0276662
-0.0295209
-0.763081
0.764935
0.0311513
-0.0328666
-0.649416
0.651132
0.0336626
-0.0330757
-0.550295
0.549708
0.0296914
-0.0223255
-0.420266
0.4129
0.0137989
-0.00575394
-0.219577
0.211532
0.00146978
-0.037094
0.0356242
-0.0355308
0.0345095
0.0010213
-0.00996669
0.0166662
-0.283604
0.276904
-0.0231325
0.0264928
-0.44623
0.44287
-0.027263
0.0265544
-0.551289
0.551998
-0.0247873
0.0229955
-0.647748
0.64954
-0.0209169
0.0188928
-0.763136
0.76516
-0.0165124
0.0141767
-0.904174
0.906509
-0.011428
0.00873324
-1.07505
1.07775
-0.00556464
0.00247022
-1.28187
1.28496
0.00114884
-0.00466694
-1.53317
1.53669
0.00809896
-0.0114608
-1.53372
1.53708
0.0142104
-0.0169092
-1.28313
1.28583
0.0191111
-0.0212798
-1.07682
1.07899
0.0230985
-0.0249555
-0.906504
0.908361
0.0265453
-0.0281881
-0.766678
0.76832
0.0296184
-0.0309937
-0.652703
0.654078
0.0312939
-0.0299705
-0.548767
0.547444
0.0259626
-0.0186713
-0.405545
0.398254
0.0112283
-0.00465421
-0.204291
0.197717
0.00119495
-0.0343072
0.0331122
-0.0336138
0.0328199
0.000793843
-0.00788612
0.0135078
-0.270773
0.265152
-0.0194816
0.0230321
-0.439405
0.435855
-0.0242735
0.0238092
-0.552618
0.553082
-0.0223054
0.0206204
-0.651327
0.653012
-0.0186336
0.0166921
-0.767135
0.769076
-0.0144005
0.0121496
-0.908736
0.910987
-0.0095015
0.00691484
-1.08031
1.0829
-0.00388554
0.000932976
-1.28794
1.29089
0.00251571
-0.00586045
-1.5401
1.54344
0.00909972
-0.0122333
-1.54031
1.54344
0.0147642
-0.0172197
-1.28841
1.29087
0.0192032
-0.0211402
-1.08112
1.08306
0.0227568
-0.0244058
-0.910119
0.911768
0.0258138
-0.0272643
-0.76986
0.77131
0.0284977
-0.0294918
-0.655252
0.656246
0.0294162
-0.0274209
-0.545786
0.54379
0.0230055
-0.0159734
-0.391087
0.384055
0.00942809
-0.00389512
-0.191713
0.18618
0.00100483
-0.0320238
0.031019
-0.032124
0.031507
0.000617089
-0.00627774
0.0109778
-0.260019
0.255319
-0.0163537
0.0198971
-0.432308
0.428765
-0.0214551
0.0212129
-0.553472
0.553714
-0.0199377
0.0183088
-0.654715
0.656344
-0.0163748
0.0144797
-0.770983
0.772878
-0.0122437
0.0100481
-0.913133
0.915329
-0.00746501
0.00494573
-1.08538
1.0879
-0.00200446
-0.000844649
-1.29373
1.29658
0.00414399
-0.00731323
-1.54667
1.54984
0.010354
-0.0132695
-1.54644
1.54935
0.0156057
-0.0178496
-1.29322
1.29546
0.0196343
-0.02135
-1.08499
1.08671
0.0227715
-0.0242225
-0.913317
0.914768
0.025464
-0.0267384
-0.772665
0.773939
0.0278262
-0.0283959
-0.657031
0.657601
0.0279456
-0.0253804
-0.541521
0.538956
0.0207102
-0.0139992
-0.377191
0.37048
0.00815929
-0.0033673
-0.181054
0.176262
0.000873303
-0.0300892
0.0292159
-0.0309703
0.0304967
0.000473523
-0.00498025
0.00888446
-0.251044
0.24714
-0.0136182
0.0170059
-0.425308
0.421921
-0.0187404
0.0186846
-0.553908
0.553963
-0.0175978
0.0160013
-0.658021
0.659618
-0.0140856
0.0122015
-0.77475
0.776634
-0.00997977
0.00780436
-0.917425
0.919601
-0.00525443
0.0027772
-1.09031
1.09279
0.000102175
-0.0028744
-1.29933
1.30211
0.0060581
-0.00908326
-1.5529
1.55592
0.0119522
-0.014669
-1.55214
1.55485
0.0168184
-0.0188524
-1.2976
1.29964
0.0204379
-0.021934
-1.08844
1.08994
0.0231694
-0.0244387
-0.916122
0.917391
0.0255311
-0.0266464
-0.775123
0.776238
0.027533
-0.0277395
-0.657985
0.658191
0.0268645
-0.0238157
-0.536156
0.533108
0.0189858
-0.012584
-0.36394
0.357539
0.00727676
-0.00300684
-0.171762
0.167492
0.000785055
-0.0283951
0.02761
-0.0300921
0.0297403
0.000351753
-0.00389055
0.00709434
-0.243611
0.240407
-0.011174
0.0142959
-0.418683
0.415561
-0.01608
0.0161732
-0.553997
0.553904
-0.0151613
0.0136331
-0.661252
0.662781
-0.0117068
0.00980042
-0.778506
0.780413
-0.00755387
0.00536267
-0.921683
0.923874
-0.00280749
0.000339689
-1.09516
1.09763
0.00250984
-0.00523253
-1.30479
1.30751
0.0083305
-0.0112387
-1.55885
1.56175
0.0139575
-0.0164893
-1.55744
1.55997
0.0184581
-0.0202858
-1.30157
1.3034
0.0216742
-0.0229537
-1.09148
1.09276
0.0240083
-0.025103
-0.918563
0.919657
0.0260516
-0.0270015
-0.777255
0.778205
0.0276267
-0.0275388
-0.658261
0.658173
0.0262162
-0.022722
-0.529844
0.52635
0.0177702
-0.0116182
-0.351286
0.345134
0.00669115
-0.00277441
-0.163427
0.15951
0.000730277
-0.0268606
0.0261303
-0.0294506
0.0292078
0.000242793
-0.00293261
0.00550293
-0.237544
0.234973
-0.00892883
0.011702
-0.412637
0.409864
-0.0134211
0.0135886
-0.553835
0.553668
-0.012614
0.0111218
-0.664372
0.665864
-0.0091616
0.00720329
-0.782313
0.784272
-0.00489565
0.00265326
-0.925975
0.928217
-5.20803e-05
-0.00244364
-1.10001
1.1025
0.00530286
-0.00800905
-1.31015
1.31286
0.0110527
-0.0138678
-1.56457
1.56738
0.0164541
-0.0188136
-1.56237
1.56473
0.0206109
-0.022239
-1.30512
1.30675
0.0234305
-0.0244886
-1.09412
1.09518
0.0253577
-0.0262729
-0.920648
0.921563
0.0270725
-0.0278591
-0.779027
0.779814
0.0281966
-0.0278056
-0.657939
0.657548
0.0260194
-0.0220931
-0.522664
0.518737
0.0170169
-0.0110277
-0.339094
0.333105
0.00634478
-0.00264424
-0.155728
0.152027
0.000702274
-0.0254222
0.0247199
-0.0290244
0.0288854
0.000139045
-0.00204296
0.00401755
-0.232723
0.230748
-0.00678468
0.00913875
-0.40733
0.404976
-0.0106842
0.0108464
-0.553577
0.553415
-0.00987406
0.00837836
-0.667454
0.66895
-0.00635511
0.00431353
-0.786228
0.788269
-0.00190732
-0.000421669
-0.93037
0.932699
0.00310875
-0.00566948
-1.10491
1.10747
0.00857867
-0.0113026
-1.31549
1.31821
0.0143238
-0.0170682
-1.57011
1.57286
0.0195363
-0.0217325
-1.56696
1.56916
0.0233627
-0.0247916
-1.30826
1.30969
0.0257795
-0.0266051
-1.09636
1.09718
0.0272762
-0.0279947
-0.922361
0.92308
0.0286385
-0.0292824
-0.780443
0.781087
0.0292994
-0.0284989
-0.65696
0.656159
0.0262544
-0.0219017
-0.514644
0.510291
0.0166729
-0.0107491
-0.327186
0.321262
0.0061913
-0.0025956
-0.148405
0.144809
0.00069551
-0.0240294
0.0233339
-0.0288064
0.0287722
3.41808e-05
-0.0011753
0.00256817
-0.229086
0.227693
-0.0046617
0.00653183
-0.402896
0.401026
-0.00779909
0.00787327
-0.553387
0.553313
-0.00685556
0.00531806
-0.67058
0.672118
-0.00319135
0.00103241
-0.790311
0.79247
0.00151315
-0.00396788
-0.934939
0.937394
0.00678495
-0.00945091
-1.10996
1.11262
0.0124527
-0.0152306
-1.32087
1.32365
0.0182643
-0.0209634
-1.57552
1.57822
0.0233297
-0.0253689
-1.57122
1.57326
0.0268321
-0.028058
-1.31099
1.31222
0.0288389
-0.029429
-1.09817
1.09876
0.0298971
-0.0304095
-0.92368
0.924193
0.03088
-0.0312902
-0.781491
0.781901
0.0310155
-0.0297403
-0.655168
0.653893
0.0269922
-0.0221733
-0.505768
0.500949
0.0167288
-0.0107566
-0.315358
0.309386
0.0062101
-0.00261935
-0.141243
0.137653
0.000707743
-0.0226411
0.0219334
-0.0287999
0.0288728
-7.29461e-05
-0.000288771
0.00109052
-0.226614
0.225812
-0.00247757
0.00379547
-0.399463
0.398145
-0.00468153
0.00458328
-0.553438
0.553536
-0.00346339
0.00182703
-0.673839
0.675476
0.000438285
-0.00275605
-0.794631
0.796949
0.00548881
-0.00811378
-0.93976
0.942385
0.0111096
-0.0139244
-1.11522
1.11803
0.017064
-0.0199336
-1.32637
1.32924
0.023015
-0.0256937
-1.58085
1.58353
0.0279726
-0.0298589
-1.57516
1.57704
0.0311511
-0.0321656
-1.3133
1.31432
0.032735
-0.0330834
-1.09953
1.09987
0.0333376
-0.0336293
-0.924577
0.924868
0.0338989
-0.0339988
-0.781987
0.782087
0.033407
-0.031579
-0.65243
0.650602
0.028273
-0.0229253
-0.49595
0.490602
0.0171789
-0.0110334
-0.303378
0.297233
0.00638697
-0.00270856
-0.134047
0.130368
0.000736918
-0.0212203
0.0204834
-0.0290208
0.029219
-0.000198186
0.000654144
-0.000483721
-0.225333
0.225162
-0.000148318
0.000836807
-0.397157
0.396469
-0.00123336
0.000871342
-0.553913
0.554275
0.000420128
-0.00221412
-0.677352
0.679146
0.00467235
-0.00719756
-0.799271
0.801796
0.0101723
-0.0130182
-0.944924
0.94777
0.0162483
-0.0192612
-1.12079
1.1238
0.0225889
-0.0255898
-1.33206
1.33506
0.0287526
-0.03143
-1.58614
1.58881
0.0336281
-0.0353579
-1.57878
1.58051
0.0364754
-0.0372705
-1.31516
1.31595
0.0376183
-0.0377085
-1.1004
1.10049
0.0377312
-0.0377884
-0.925012
0.925069
0.0378642
-0.0375629
-0.781834
0.781533
0.036566
-0.0341004
-0.648594
0.646129
0.0301537
-0.0241788
-0.485046
0.479071
0.0180194
-0.0115649
-0.29099
0.284535
0.00670874
-0.00285607
-0.126632
0.12278
0.000780693
-0.0197342
0.0189535
-0.0294988
0.0298451
-0.000346312
0.00170888
-0.00217747
-0.225336
0.225805
0.00239261
-0.00243038
-0.396132
0.39617
0.00265803
-0.00339249
-0.555028
0.555762
0.00492081
-0.00693615
-0.681242
0.683257
0.00966042
-0.0124562
-0.804325
0.807121
0.0157396
-0.0188661
-0.950535
0.953661
0.0223944
-0.0256607
-1.12676
1.13003
0.0292314
-0.032406
-1.33803
1.3412
0.0356853
-0.0383793
-1.59142
1.59412
0.040498
-0.0420585
-1.58207
1.58363
0.0429808
-0.0435448
-1.31652
1.31709
0.043662
-0.0434722
-1.10074
1.10055
0.0432408
-0.0430476
-0.924932
0.924739
0.0429025
-0.042107
-0.780851
0.780056
0.0406158
-0.0374009
-0.643499
0.640284
0.0326995
-0.0259627
-0.472845
0.466108
0.019254
-0.0123421
-0.277916
0.271004
0.00716546
-0.00305585
-0.118829
0.11472
0.000836973
-0.0181545
0.0173176
-0.0302633
0.0307876
-0.000524317
0.0030002
-0.00424184
-0.226686
0.227928
0.00533429
-0.00617597
-0.396576
0.397418
0.00713745
-0.00835095
-0.557022
0.558235
0.0102268
-0.0125403
-0.685642
0.687955
0.0156133
-0.0187526
-0.809919
0.813058
0.0224222
-0.0258987
-0.956714
0.96019
0.0297975
-0.033377
-1.13325
1.13683
0.037247
-0.0406353
-1.34434
1.34773
0.044059
-0.0467776
-1.59674
1.59946
0.0488069
-0.050178
-1.58501
1.58638
0.0508769
-0.0511982
-1.31737
1.31769
0.0510638
-0.0505695
-1.1005
1.1
0.0500662
-0.049605
-0.92429
0.923829
0.0491121
-0.0478518
-0.778943
0.777682
0.0457008
-0.0415828
-0.636898
0.632781
0.0359728
-0.0282989
-0.459061
0.451387
0.0208792
-0.0133496
-0.263855
0.256326
0.0077419
-0.00329886
-0.110476
0.106033
0.000902562
-0.0164578
0.0155552
-0.0313889
0.0321374
-0.00074848
0.00451678
-0.00664528
-0.229596
0.231725
0.00882859
-0.010585
-0.398715
0.400472
0.0123854
-0.0141969
-0.560145
0.561956
0.0165596
-0.0192707
-0.690714
0.693425
0.0228029
-0.0263728
-0.8162
0.81977
0.0305209
-0.0344278
-0.963604
0.967511
0.0387782
-0.0427353
-1.14038
1.14434
0.0469594
-0.0505933
-1.35108
1.35472
0.0541741
-0.0569071
-1.60209
1.60483
0.0588201
-0.0599607
-1.58753
1.58867
0.0603979
-0.060441
-1.31762
1.31766
0.0600309
-0.0592047
-1.09962
1.09879
0.0584039
-0.0576549
-0.923032
0.922283
0.056734
-0.0549204
-0.776143
0.774329
0.0519656
-0.0467396
-0.628479
0.623253
0.0400184
-0.0311868
-0.443325
0.434494
0.0228697
-0.0145547
-0.248483
0.240168
0.00841092
-0.00357004
-0.101423
0.0965822
0.000972388
-0.0146274
0.0136551
-0.0329586
0.0340021
-0.00104352
0.00643373
-0.00963489
-0.234308
0.237509
0.013074
-0.0159
-0.402813
0.405639
0.0186826
-0.0212219
-0.564674
0.567213
0.0242178
-0.0274575
-0.696669
0.699908
0.0315841
-0.0356942
-0.823349
0.827459
0.0404316
-0.04486
-0.97137
0.975799
0.0497475
-0.0541419
-1.14828
1.15267
0.0587617
-0.062654
-1.35831
1.3622
0.0663767
-0.0690851
-1.60745
1.61016
0.0708283
-0.0716785
-1.58957
1.59042
0.0717871
-0.0714919
-1.31716
1.31686
0.0707869
-0.0695932
-1.09802
1.09683
0.0684634
-0.0674151
-0.921126
0.920078
0.0659403
-0.0634683
-0.772267
0.769795
0.0595317
-0.052932
-0.617823
0.611223
0.0448388
-0.0345816
-0.425183
0.414926
0.0251612
-0.0158953
-0.231465
0.2222
0.00912655
-0.00384587
-0.0915528
0.0862722
0.00103899
-0.0126585
0.0116195
-0.0351044
0.0365538
-0.0014494
0.00892965
-0.0134993
-0.241152
0.245722
0.0184327
-0.0224943
-0.409245
0.413307
0.0264162
-0.0298363
-0.570943
0.574363
0.0336495
-0.0375814
-0.703789
0.70772
0.0424737
-0.0472639
-0.831582
0.836372
0.0527184
-0.0577622
-0.980196
0.98524
0.0632624
-0.0681324
-1.15705
1.16192
0.0731513
-0.077269
-1.36602
1.37013
0.0810594
-0.0836474
-1.6127
1.61528
0.0851203
-0.0855838
-1.59097
1.59144
0.0853097
-0.0845971
-1.31589
1.31518
0.0835414
-0.0819668
-1.09563
1.09405
0.0805195
-0.0790226
-0.918523
0.917026
0.077039
-0.0736527
-0.767037
0.763651
0.0684774
-0.0601561
-0.604363
0.596042
0.050363
-0.0383658
-0.40409
0.392093
0.0276274
-0.0172658
-0.212484
0.202122
0.00981671
-0.00409187
-0.0807985
0.0750737
0.00109202
-0.010562
0.00946996
-0.0380229
0.0400541
-0.00203116
0.0124172
-0.0187076
-0.250658
0.256948
0.0254371
-0.0309392
-0.418499
0.424001
0.0362049
-0.0407017
-0.579343
0.58384
0.0455428
-0.0503756
-0.71242
0.717252
0.0562529
-0.061879
-0.841171
0.846797
0.0681773
-0.0739108
-0.990265
0.995998
0.0800556
-0.0853806
-1.16674
1.17206
0.0907226
-0.0949541
-1.37411
1.37834
0.0986552
-0.100959
-1.61761
1.61991
0.102002
-0.101934
-1.59151
1.59144
0.101192
-0.0999497
-1.31369
1.31245
0.0984955
-0.0965244
-1.09238
1.09041
0.0947197
-0.0926611
-0.914876
0.912818
0.0901144
-0.0855577
-0.759915
0.755358
0.0787862
-0.0682823
-0.587376
0.576872
0.0563859
-0.0423023
-0.379423
0.36534
0.0300489
-0.0185019
-0.191278
0.179731
0.0103774
-0.00426164
-0.0691787
0.0630629
0.00111842
-0.00837076
0.00725234
-0.0420431
0.0449731
-0.00293007
0.0174745
-0.0260299
-0.263545
0.2721
0.0349731
-0.0422036
-0.431251
0.438481
0.0490818
-0.0548792
-0.590369
0.596166
0.0610637
-0.0670902
-0.723
0.729027
0.0741766
-0.080762
-0.852403
0.858989
0.087963
-0.0943693
-1.0017
1.0081
0.101066
-0.1067
-1.17726
1.18289
0.11215
-0.116265
-1.3823
1.38641
0.119602
-0.121366
-1.62182
1.62358
0.121753
-0.120959
-1.59088
1.59008
0.119593
-0.11773
-1.31036
1.3085
0.115833
-0.113437
-1.0882
1.0858
0.111228
-0.108543
-0.909957
0.907271
0.105222
-0.0990864
-0.750305
0.744169
0.0902367
-0.0769825
-0.565902
0.552648
0.0625202
-0.046006
-0.350529
0.334015
0.032101
-0.0193812
-0.167728
0.155009
0.0106776
-0.0043009
-0.0568385
0.0504618
0.00110385
-0.00614379
0.00503994
-0.0477415
0.0521876
-0.00444613
0.0252906
-0.0369161
-0.28099
0.292615
0.0487317
-0.0582842
-0.44854
0.458093
0.0672108
-0.0745824
-0.604613
0.611985
0.0823749
-0.0899116
-0.735942
0.743479
0.098248
-0.10572
-0.865482
0.872954
0.113652
-0.120497
-1.01437
1.02121
0.12741
-0.133001
-1.18821
1.1938
0.138142
-0.141751
-1.39004
1.39365
0.144299
-0.145159
-1.62475
1.62561
0.144583
-0.142811
-1.58866
1.58688
0.140648
-0.138055
-1.30569
1.30309
0.135626
-0.132778
-1.08295
1.0801
0.130046
-0.126735
-0.903643
0.900333
0.122238
-0.113921
-0.737308
0.728991
0.102326
-0.0856377
-0.538742
0.522053
0.0681314
-0.048926
-0.316817
0.297612
0.0333647
-0.0196466
-0.141973
0.128255
0.0105782
-0.0041563
-0.0440879
0.037666
0.00103419
-0.00396574
0.00293155
-0.0562074
0.0637812
-0.00757376
0.0389094
-0.0550461
-0.305155
0.321292
0.0709216
-0.0836926
-0.472026
0.484797
0.0947971
-0.103595
-0.62255
0.631348
0.112955
-0.12183
-0.751581
0.760456
0.131172
-0.139094
-0.880118
0.88804
0.147139
-0.153795
-1.02763
1.03429
0.160242
-0.16516
-1.19877
1.20369
0.169346
-0.171861
-1.39647
1.39899
0.173055
-0.17253
-1.62561
1.62508
0.170597
-0.167552
-1.58433
1.58128
0.164384
-0.1609
-1.29943
1.29595
0.157854
-0.1545
-1.0765
1.07315
0.151218
-0.146942
-0.895627
0.891351
0.140731
-0.129343
-0.71957
0.708183
0.114064
-0.0931525
-0.50438
0.483468
0.0723349
-0.0504576
-0.27796
0.256083
0.0334761
-0.019138
-0.11456
0.100222
0.0100093
-0.00380231
-0.03142
0.025213
0.000894802
-0.00194029
0.00104549
-0.070809
0.0750318
-0.00422286
0.0296564
-0.0437694
-0.340022
0.354135
0.0579662
-0.0697554
-0.503126
0.514915
0.0803398
-0.0902655
-0.643885
0.65381
0.101425
-0.111824
-0.768732
0.779131
0.12343
-0.133733
-0.894917
0.905219
0.144732
-0.154556
-1.04003
1.04985
0.164917
-0.173888
-1.20755
1.21652
0.182954
-0.190334
-1.40036
1.40774
0.197147
-0.20188
-1.62341
1.62815
0.204536
-0.205737
-1.57723
1.57843
0.205746
-0.205226
-1.29126
1.29074
0.204859
-0.2039
-1.06851
1.06755
0.202269
-0.197743
-0.884875
0.880349
0.188653
-0.170922
-0.69509
0.677358
0.147067
-0.11595
-0.461458
0.430341
0.0868365
-0.0580116
-0.234238
0.205413
0.0370342
-0.0203433
-0.0865945
0.0699037
0.0101944
-0.00365431
-0.0194705
0.0129304
0.000778641
-0.000138469
-0.000640172
-0.0825342
0.0805881
0.00194619
0.00789086
-0.0170268
-0.370978
0.380114
0.0278164
-0.0363621
-0.531351
0.539896
0.0450003
-0.0532391
-0.666517
0.674756
0.0634008
-0.0730182
-0.788981
0.798598
0.0833718
-0.0928236
-0.914875
0.924327
0.102898
-0.111548
-1.05938
1.06803
0.120854
-0.128536
-1.22527
1.23296
0.136259
-0.14228
-1.4148
1.42082
0.147387
-0.150669
-1.63215
1.63543
0.152013
-0.151977
-1.57914
1.57911
0.150725
-0.148883
-1.28936
1.28752
0.147272
-0.145448
-1.06405
1.06222
0.142927
-0.137139
-0.871358
0.86557
0.127187
-0.110654
-0.655664
0.639131
0.091112
-0.0680937
-0.397424
0.374405
0.0486234
-0.0312745
-0.177241
0.159893
0.0194628
-0.0105249
-0.0542972
0.0453594
0.00520225
-0.00184478
-0.00657669
0.00321923
0.000373844
0.00165088
-0.00202472
-0.0839974
0.0810595
0.00293798
-0.00116961
-0.00405356
-0.392005
0.397228
0.0112188
-0.0174835
-0.552341
0.558606
0.0238638
-0.0309721
-0.685636
0.692744
0.0397924
-0.0481241
-0.807237
0.815569
0.0573052
-0.0655242
-0.932925
0.941144
0.0740351
-0.0817207
-1.07649
1.08418
0.0897752
-0.0965098
-1.24019
1.24692
0.10282
-0.107547
-1.42617
1.43089
0.111531
-0.113593
-1.63806
1.64012
0.113757
-0.112596
-1.57852
1.57735
0.110478
-0.107887
-1.28518
1.28259
0.105141
-0.102243
-1.0577
1.0548
0.0988378
-0.0928188
-0.855831
0.849812
0.0836403
-0.0697265
-0.619753
0.605839
0.0550536
-0.0394114
-0.349947
0.334305
0.0276351
-0.0179428
-0.142386
0.132694
0.0115027
-0.00658277
-0.0364498
0.0315299
0.00347235
-0.00134818
0.000402106
-0.00252628
0.000315448
0.00263199
-0.00294744
-0.0827193
0.0798558
0.00286352
-0.00511101
0.00252627
-0.405972
0.408557
0.00211089
-0.00683117
-0.567951
0.572672
0.0121813
-0.0181238
-0.701332
0.707274
0.0256731
-0.0327995
-0.823189
0.830315
0.0406107
-0.047627
-0.948757
0.955773
0.0552757
-0.0617578
-1.09139
1.09787
0.0687178
-0.0740594
-1.2532
1.25854
0.0793444
-0.0831539
-1.43534
1.43915
0.0859536
-0.0867458
-1.64171
1.6425
0.0860897
-0.0841568
-1.5756
1.57367
0.0813651
-0.0776578
-1.27946
1.27576
0.0741585
-0.070267
-1.04967
1.04578
0.0659446
-0.0602292
-0.839572
0.833857
0.0521858
-0.0416222
-0.589428
0.578864
0.0316165
-0.0222407
-0.31776
0.308384
0.0158292
-0.0108294
-0.122356
0.117356
0.00744885
-0.00470012
-0.0260536
0.0233048
0.00272502
-0.00118335
0.00511261
-0.00665427
0.000319435
0.00347011
-0.00378955
-0.0811216
0.0785648
0.00255686
-0.0064848
0.0055568
-0.415287
0.416215
-0.00209926
-0.00139708
-0.580408
0.583904
0.00563929
-0.0109867
-0.71448
0.719827
0.017304
-0.0235312
-0.836677
0.842904
0.0302552
-0.0363096
-0.962278
0.968333
0.04282
-0.04851
-1.10417
1.10986
0.054319
-0.0590663
-1.26367
1.26842
0.063415
-0.0663856
-1.44249
1.44547
0.0682678
-0.0682215
-1.64303
1.64298
0.066765
-0.063842
-1.57091
1.56798
0.0603782
-0.05607
-1.27168
1.26737
0.0518399
-0.046928
-1.04013
1.03522
0.0421037
-0.0364381
-0.823905
0.818239
0.0298823
-0.0221232
-0.566056
0.558297
0.0158265
-0.0108512
-0.29773
0.292755
0.00791325
-0.00592364
-0.111459
0.109469
0.00454289
-0.00323408
-0.019919
0.0186102
0.00209467
-0.00101409
0.00858178
-0.00966237
0.000312142
0.00425573
-0.00456787
-0.0795863
0.0773754
0.00221092
-0.00656414
0.00620147
-0.421598
0.421961
-0.00416699
0.00135299
-0.589966
0.59278
0.00274378
-0.00729497
-0.725555
0.730106
0.012677
-0.0180332
-0.848282
0.853638
0.0239478
-0.0293011
-0.973981
0.979334
0.0351752
-0.0400803
-1.11522
1.12012
0.045175
-0.0492891
-1.27281
1.27692
0.0528994
-0.0551999
-1.44806
1.45036
0.0563193
-0.0559548
-1.6427
1.64234
0.0538003
-0.0503592
-1.56443
1.56099
0.0462951
-0.0413377
-1.26256
1.2576
0.0367518
-0.0310923
-1.02913
1.02347
0.0257863
-0.0202527
-0.80891
0.803377
0.0146957
-0.0089468
-0.548595
0.542847
0.00514502
-0.00292333
-0.286059
0.283837
0.00225904
-0.0020821
-0.106207
0.10603
0.00194556
-0.00171602
-0.0167371
0.0165075
0.00130104
-0.000730537
0.0109508
-0.0115213
0.00025794
0.00494374
-0.00520168
-0.0783502
0.0765987
0.00175145
-0.00582266
0.00585581
-0.426171
0.426138
-0.00422098
0.00214163
-0.59823
0.60031
0.00164953
-0.00574238
-0.735071
0.739164
0.0107809
-0.0153414
-0.858568
0.863128
0.0204731
-0.0251536
-0.984604
0.989284
0.0306266
-0.0349776
-1.125
1.12935
0.0393744
-0.0430922
-1.28078
1.28449
0.0465834
-0.0484197
-1.45256
1.4544
0.0491749
-0.048254
-1.64143
1.64051
0.0459558
-0.0418118
-1.55714
1.553
0.0375175
-0.0322789
-1.25219
1.24695
0.027141
-0.0212453
-1.01702
1.01113
0.0155797
-0.00980252
-0.794519
0.788742
0.00513355
-0.000634767
-0.534976
0.530478
-0.00179385
0.00238335
-0.279435
0.278845
-0.00198509
0.00119706
-0.104731
0.105519
-0.000488742
-0.000124056
-0.0158705
0.0164833
0.000377046
-0.00034292
0.0121487
-0.0121828
0.000162347
0.00544214
-0.00560449
-0.0775935
0.0762036
0.00138993
-0.00482461
0.00504843
-0.429665
0.429441
-0.00360532
0.00166826
-0.605319
0.607256
0.00187909
-0.00552618
-0.743519
0.747166
0.00978373
-0.014113
-0.86763
0.871959
0.0187817
-0.0235232
-0.993715
0.998456
0.0281421
-0.0321836
-1.13376
1.1378
0.0365525
-0.0398556
-1.28801
1.29132
0.0426241
-0.0446084
-1.45604
1.45802
0.0451767
-0.0441337
-1.63951
1.63847
0.0415174
-0.037409
-1.54887
1.54477
0.0329223
-0.0274198
-1.24114
1.23564
0.0221206
-0.0159651
-1.00447
0.998313
0.0101663
-0.00448187
-0.78055
0.774866
-4.10944e-05
0.00372523
-0.523693
0.520009
-0.0054764
0.00559509
-0.275726
0.275608
-0.00475729
0.0034527
-0.105227
0.106532
-0.00230336
0.00117586
-0.0167202
0.0178477
-0.000464885
5.16206e-05
0.0121846
-0.0117713
4.67329e-05
0.00568269
-0.00572943
-0.0773666
0.0761924
0.00117421
-0.00357133
0.00358773
-0.432682
0.432666
-0.00239228
0.000517351
-0.611722
0.613597
0.00274852
-0.00623773
-0.751282
0.754772
0.0102624
-0.0141275
-0.876081
0.879946
0.0188475
-0.0227053
-1.00256
1.00641
0.0271978
-0.0309618
-1.14195
1.14572
0.0350775
-0.0384229
-1.29452
1.29787
0.0412912
-0.0428352
-1.45967
1.46121
0.0434496
-0.0424622
-1.63722
1.63624
0.0401053
-0.0358643
-1.54038
1.53614
0.031411
-0.0258772
-1.23005
1.22451
0.0205763
-0.0143209
-0.991491
0.985236
0.00859531
-0.00267867
-0.767097
0.761181
-0.00165373
0.00504605
-0.513796
0.510404
-0.00677742
0.0068276
-0.273106
0.273056
-0.006011
0.00464094
-0.106615
0.107985
-0.00337131
0.00200872
-0.0185773
0.0199399
-0.00104121
0.000338665
0.0113382
-0.0106356
-4.86005e-05
0.00567264
-0.00562404
-0.0774264
0.0765845
0.000841961
-0.00242711
0.00197813
-0.435709
0.436158
-0.000974844
-0.000958673
-0.617318
0.619251
0.00387159
-0.00719612
-0.758432
0.761757
0.0110088
-0.014962
-0.883679
0.887632
0.0189964
-0.0229606
-1.01044
1.01441
0.0273375
-0.0308046
-1.14987
1.15333
0.0349105
-0.0380971
-1.30095
1.30414
0.0408644
-0.0427735
-1.46309
1.465
0.0436479
-0.042684
-1.63518
1.63422
0.0402617
-0.0364271
-1.53196
1.52812
0.0322454
-0.0267939
-1.21872
1.21327
0.0214992
-0.0155642
-0.978604
0.972669
0.00957362
-0.0038007
-0.753729
0.747956
-0.000647901
0.00409379
-0.504584
0.501139
-0.00584131
0.00642727
-0.270602
0.270016
-0.00601669
0.00501237
-0.108163
0.109167
-0.00383605
0.00247779
-0.0208199
0.0221782
-0.00141449
0.000555957
0.00996643
-0.00910789
-0.000126419
0.00547221
-0.00534579
-0.0779042
0.0772352
0.000669046
-0.00144836
0.0010368
-0.438909
0.439321
0.000478497
-0.00225427
-0.622945
0.624721
0.00532066
-0.00849348
-0.765011
0.768184
0.0121297
-0.0156447
-0.891252
0.894767
0.0197645
-0.0233642
-1.01833
1.02193
0.0276296
-0.0314821
-1.15722
1.16107
0.0351403
-0.0385713
-1.30732
1.31075
0.0416545
-0.0435261
-1.46673
1.4686
0.0446019
-0.044221
-1.63339
1.63301
0.0420403
-0.038607
-1.52406
1.52063
0.0344568
-0.029301
-1.20777
1.20262
0.0243106
-0.0184317
-0.966118
0.960239
0.0127513
-0.00693542
-0.740748
0.734932
0.00228074
0.00153428
-0.49518
0.491365
-0.00365731
0.0046698
-0.267464
0.266451
-0.00486175
0.00432905
-0.109017
0.109549
-0.00350015
0.00240772
-0.0229553
0.0240477
-0.00146431
0.000631221
0.00836019
-0.00752709
-0.00016794
0.00513666
-0.00496872
-0.0786829
0.0781939
0.000488961
-0.000363174
-0.000233004
-0.442253
0.442849
0.00160849
-0.00368686
-0.628145
0.630224
0.00667507
-0.00967923
-0.7713
0.774304
0.0133913
-0.0167365
-0.898258
0.901603
0.0206659
-0.0243553
-1.02599
1.02968
0.0284857
-0.0322566
-1.16474
1.16851
0.0360816
-0.0394797
-1.31405
1.31744
0.042666
-0.0452033
-1.47071
1.47324
0.0465963
-0.04637
-1.63248
1.63226
0.0447182
-0.0414459
-1.517
1.51373
0.0377304
-0.0330319
-1.19735
1.19265
0.0280468
-0.022373
-0.953961
0.948287
0.0168602
-0.010946
-0.728029
0.722115
0.00617392
-0.00189207
-0.48563
0.481348
-0.000666939
0.00232715
-0.263408
0.261748
-0.00300466
0.00302178
-0.108885
0.108868
-0.00266911
0.00196995
-0.0245184
0.0252175
-0.00126932
0.000584773
0.00687171
-0.00618717
-0.000164375
0.00474939
-0.00458502
-0.0797068
0.079346
0.000360819
0.000512687