/*--------------------------------*- C++ -*----------------------------------*\
  =========                 |
  \\      /  F ield         | OpenFOAM: The Open Source CFD Toolbox
   \\    /   O peration     | Website:  https://openfoam.org
    \\  /    A nd           | Version:  6
     \\/     M anipulation  |
\*---------------------------------------------------------------------------*/
FoamFile
{
    version     2.0;
    format      ascii;
    class       surfaceScalarField;
    location    "33";
    object      phi;
}
// * * * * * * * * * * * * * * * * * * * * * * * * * * * * * * * * * * * * * //

dimensions      [0 3 -1 0 0 0 0];

internalField   nonuniform List<scalar> 
17370
(
-0.0900001
0.0898528
0.289158
-0.0714595
0.0537538
0.364481
-0.0381207
0.0276941
0.426595
-0.019643
0.0146083
0.504286
-0.0107617
0.00826564
0.601898
-0.00626078
0.00488361
0.720435
-0.0037255
0.0028948
0.863737
-0.00216679
0.0016194
1.036
-0.00111318
0.000708554
1.24291
-0.000307861
-7.48071e-05
1.49157
0.000446063
-0.000848921
1.49159
0.00124727
-0.00174334
1.24319
0.00228158
-0.00300042
1.03636
0.00382402
-0.00497521
0.864058
0.00634529
-0.00834175
0.721054
0.0108305
-0.0146702
0.603054
0.0196992
-0.0277441
0.507484
0.0381651
-0.053791
0.431794
0.0714894
-0.0898725
0.365159
0.0900116
0.198999
-0.128127
0.0882055
0.0399214
-0.364586
0.353395
-0.0746949
0.0858854
-0.446474
0.454312
-0.0843928
0.0765549
-0.521181
0.529891
-0.068465
0.0597545
-0.612776
0.621557
-0.0515653
0.042784
-0.726882
0.734147
-0.0353231
0.0280582
-0.86747
0.872559
-0.0224701
0.0173809
-1.03847
1.04189
-0.0136014
0.0101858
-1.2446
1.24701
-0.00760092
0.00519101
-1.49264
1.4946
-0.00325874
0.00129628
-1.49249
1.49421
0.000391523
-0.00211328
-1.24399
1.24587
0.00401687
-0.00590124
-1.03751
1.04005
0.00826288
-0.0108018
-0.866104
0.869842
0.0141684
-0.0179064
-0.724398
0.729947
0.0229524
-0.0285018
-0.608704
0.616126
0.0357242
-0.0431468
-0.514901
0.523056
0.0518882
-0.0600433
-0.439861
0.447922
0.0687178
-0.0767797
-0.375307
0.376757
0.084586
-0.0860357
-0.25734
0.222505
0.0747973
-0.0399615
-0.0684951
0.058667
0.00982806
-0.0518517
0.0584497
-0.374107
0.367509
-0.057544
0.053798
-0.453582
0.457328
-0.0487103
0.0447586
-0.527927
0.531879
-0.0409187
0.0372817
-0.621539
0.625176
-0.0331852
0.0291236
-0.73532
0.739382
-0.024579
0.0204482
-0.874303
0.878434
-0.0161391
0.0124755
-1.04345
1.04711
-0.00877472
0.005632
-1.24854
1.25168
-0.00233381
-0.000726115
-1.49665
1.49971
0.0037628
-0.00700454
-1.49722
1.50046
0.0100768
-0.0136884
-1.25008
1.25369
0.0172707
-0.0214944
-1.04593
1.05016
0.0255499
-0.0300149
-0.877784
0.882249
0.0340049
-0.0380234
-0.739933
0.743951
0.0415916
-0.0453607
-0.626806
0.630575
0.0492534
-0.0542847
-0.534839
0.539871
0.0579716
-0.0588032
-0.457509
0.458341
0.0521208
-0.0319447
-0.335811
0.315635
0.00987268
-0.0683771
0.0585044
-0.0529105
0.048909
0.00400143
-0.033203
0.0437666
-0.358057
0.347493
-0.0474797
0.0468628
-0.459248
0.459865
-0.0438158
0.0404703
-0.535759
0.539105
-0.0367055
0.0334102
-0.628476
0.631772
-0.0299885
0.0269807
-0.742593
0.745601
-0.0237592
0.0206924
-0.881956
0.885023
-0.0172085
0.0138692
-1.0507
1.05403
-0.0101177
0.00660951
-1.25509
1.2586
-0.00267662
-0.00109052
-1.50319
1.50696
0.00482994
-0.0086855
-1.50412
1.50797
0.0120885
-0.0157096
-1.25744
1.26106
0.0189248
-0.0222725
-1.05397
1.05732
0.0252227
-0.0283257
-0.885763
0.888866
0.0312297
-0.0345402
-0.747235
0.750546
0.0377365
-0.0413994
-0.634377
0.63804
0.0446595
-0.0476117
-0.544196
0.547148
0.0481312
-0.044282
-0.456652
0.452803
0.0335587
-0.016166
-0.296318
0.278926
0.00405521
-0.0527011
0.0486459
-0.0458238
0.0433222
0.0025016
-0.0228499
0.0332527
-0.336778
0.326376
-0.0390976
0.0401315
-0.459531
0.458497
-0.0389561
0.0366792
-0.541806
0.544083
-0.0340222
0.03144
-0.634796
0.637379
-0.0284023
0.0255396
-0.748625
0.751488
-0.022331
0.0193934
-0.887958
0.890896
-0.0161464
0.0130918
-1.05713
1.06019
-0.00961281
0.00624848
-1.26202
1.26539
-0.00233787
-0.00149459
-1.51081
1.51465
0.00529258
-0.00910119
-1.51187
1.51568
0.012328
-0.015632
-1.2645
1.2678
0.0185155
-0.0215765
-1.06042
1.06348
0.0243548
-0.0274034
-0.891935
0.894984
0.0301281
-0.0330177
-0.753782
0.756671
0.0354672
-0.0379868
-0.641142
0.643661
0.0401485
-0.0411781
-0.548987
0.550017
0.0399953
-0.0339361
-0.447574
0.441515
0.0233025
-0.0101643
-0.263775
0.250637
0.0025677
-0.0455027
0.042935
-0.0412398
0.0394671
0.00177269
-0.016786
0.0260619
-0.316494
0.307218
-0.0326957
0.0348598
-0.456866
0.454702
-0.0344636
0.0328163
-0.546025
0.547673
-0.0306606
0.0285926
-0.639641
0.641709
-0.026202
0.0238576
-0.754105
0.756449
-0.0210719
0.0183507
-0.893772
0.896493
-0.0151879
0.012184
-1.0632
1.0662
-0.00876035
0.00549615
-1.26865
1.27192
-0.00171698
-0.00197403
-1.51838
1.52207
0.00561962
-0.0092636
-1.5194
1.52305
0.0123528
-0.015547
-1.27107
1.27426
0.0183272
-0.021245
-1.06652
1.06944
0.0237575
-0.0263362
-0.897824
0.900403
0.0285037
-0.030706
-0.759152
0.761354
0.0326062
-0.0345848
-0.645848
0.647826
0.0360663
-0.0362639
-0.550573
0.550771
0.0338732
-0.0269299
-0.434931
0.427988
0.0173468
-0.00731215
-0.239201
0.229167
0.00185337
-0.0407821
0.0389287
-0.0379376
0.0366044
0.00133327
-0.0128124
0.0207771
-0.298599
0.290634
-0.0275539
0.0305005
-0.45211
0.449163
-0.0307261
0.0296241
-0.549067
0.550169
-0.0276455
0.0257541
-0.643698
0.64559
-0.0236071
0.0215472
-0.758644
0.760703
-0.0191404
0.016761
-0.899013
0.901392
-0.0139251
0.011136
-1.06906
1.07185
-0.00786318
0.00470072
-1.2751
1.27826
-0.00102929
-0.00254351
-1.52569
1.52927
0.00606336
-0.00957079
-1.52664
1.53015
0.0125145
-0.0154999
-1.27739
1.28037
0.0180034
-0.0205197
-1.07217
1.07468
0.022625
-0.0247649
-0.902702
0.904842
0.026603
-0.0285176
-0.763371
0.765286
0.0302002
-0.0319638
-0.649694
0.651458
0.0328253
-0.0323224
-0.550632
0.550129
0.0290536
-0.0218563
-0.420864
0.413666
0.0134998
-0.00561785
-0.220312
0.21243
0.00143143
-0.0373141
0.0358827
-0.035437
0.0344104
0.00102658
-0.00999344
0.0167138
-0.283309
0.276589
-0.0232161
0.0266196
-0.445955
0.442551
-0.0274423
0.0267853
-0.55102
0.551677
-0.0250772
0.0233453
-0.647424
0.649156
-0.0213488
0.0194138
-0.76273
0.764665
-0.0171421
0.0149061
-0.903669
0.905905
-0.0122695
0.00968585
-1.07448
1.07706
-0.00665135
0.0036817
-1.2813
1.28427
-0.000196454
-0.00321019
-1.53273
1.53614
0.00655306
-0.00984524
-1.53356
1.53685
0.0125525
-0.015234
-1.28324
1.28592
0.0174622
-0.0197011
-1.07707
1.07931
0.0215939
-0.0235288
-0.906853
0.908788
0.0251855
-0.0268953
-0.76707
0.768779
0.0283694
-0.0297842
-0.653087
0.654502
0.0301395
-0.0289277
-0.549291
0.548079
0.0250874
-0.0180388
-0.406518
0.399469
0.010831
-0.00447597
-0.205381
0.199026
0.00114561
-0.0346121
0.0334665
-0.0335078
0.0327121
0.0007957
-0.00788136
0.0135059
-0.270441
0.264816
-0.0194983
0.0230791
-0.439036
0.435455
-0.024361
0.0239415
-0.552216
0.552636
-0.0224951
0.0208794
-0.650849
0.652464
-0.0190014
0.0171904
-0.766572
0.768383
-0.0150634
0.0129642
-0.908052
0.910151
-0.0104855
0.0080557
-1.07951
1.08194
-0.00520728
0.00241955
-1.2871
1.28989
0.000851997
-0.00404378
-1.53942
1.54262
0.00715458
-0.0101844
-1.54001
1.54304
0.0126457
-0.0150595
-1.28849
1.2909
0.0170493
-0.0190289
-1.08145
1.08343
0.0206914
-0.0223816
-0.910592
0.912282
0.0238369
-0.0253614
-0.770351
0.771876
0.0266676
-0.0277514
-0.655738
0.656822
0.0277794
-0.0259732
-0.546582
0.544775
0.0218141
-0.0151268
-0.392601
0.385914
0.00890148
-0.00366087
-0.193281
0.18804
0.000940558
-0.0324385
0.0314979
-0.0320123
0.0313961
0.000616169
-0.00622839
0.0109002
-0.259688
0.255016
-0.0162687
0.0198382
-0.431866
0.428296
-0.0214519
0.0212752
-0.552954
0.553131
-0.0200809
0.018543
-0.654076
0.655614
-0.0167453
0.0150068
-0.77018
0.771918
-0.0129673
0.0109591
-0.912146
0.914154
-0.008589
0.0062718
-1.08424
1.08656
-0.00356394
0.000936107
-1.29256
1.29519
0.00211339
-0.00505729
-1.54566
1.54861
0.00790467
-0.0106589
-1.54594
1.5487
0.012889
-0.0150621
-1.29323
1.29541
0.0168383
-0.0185953
-1.08532
1.08708
0.0200612
-0.0215477
-0.913854
0.915341
0.0228331
-0.0241874
-0.77327
0.774624
0.0253496
-0.02605
-0.657715
0.658416
0.0257223
-0.0234199
-0.542748
0.540446
0.0191084
-0.0128746
-0.379465
0.373231
0.00746814
-0.00306455
-0.18326
0.178856
0.000791868
-0.0306456
0.0298537
-0.0308603
0.0303915
0.000468707
-0.0048719
0.00870388
-0.250783
0.246951
-0.0133839
0.0167732
-0.424808
0.421418
-0.0185721
0.0186216
-0.553209
0.553159
-0.0176791
0.0162421
-0.657151
0.658588
-0.014523
0.0128353
-0.77366
0.775347
-0.01084
0.00887858
-0.91608
0.918041
-0.00658157
0.00435763
-1.08875
1.09098
-0.00177777
-0.000704456
-1.29769
1.30017
0.00356516
-0.00630471
-1.55141
1.55415
0.00891802
-0.0114086
-1.55131
1.5538
0.0133928
-0.0153022
-1.2975
1.29941
0.0168477
-0.0183752
-1.08877
1.0903
0.0196524
-0.0209622
-0.91674
0.918049
0.0221009
-0.0232805
-0.775832
0.777012
0.0242396
-0.0245663
-0.658905
0.659232
0.0238845
-0.0211982
-0.537978
0.535292
0.0168683
-0.0111157
-0.36726
0.361508
0.00638458
-0.00262168
-0.17481
0.171047
0.000683507
-0.029131
0.0284475
-0.0299931
0.0296519
0.000341183
-0.00370662
0.00678132
-0.243515
0.240441
-0.0107457
0.013827
-0.418191
0.415109
-0.0156506
0.0158438
-0.553071
0.552878
-0.0149936
0.0136583
-0.660034
0.661369
-0.0119901
0.010353
-0.777022
0.778659
-0.00842615
0.00654252
-0.919876
0.921759
-0.00434395
0.00222187
-1.09305
1.09517
0.000232889
-0.00258733
-1.30253
1.30488
0.00528593
-0.00783605
-1.55677
1.55932
0.0102364
-0.0124795
-1.55619
1.55843
0.0142232
-0.0158686
-1.30124
1.30289
0.0171842
-0.0184554
-1.09174
1.09301
0.0195013
-0.0205598
-0.919224
0.920283
0.0214822
-0.0224496
-0.778024
0.778992
0.0231585
-0.0232393
-0.65943
0.659511
0.022207
-0.0192546
-0.532512
0.52956
0.0150021
-0.0097231
-0.356029
0.35075
0.00555187
-0.00228784
-0.167571
0.164307
0.000602999
-0.0278206
0.0272176
-0.029374
0.0291493
0.000224704
-0.00265328
0.00502531
-0.237733
0.235361
-0.00826129
0.0109491
-0.41224
0.409552
-0.0126993
0.0129891
-0.552683
0.552393
-0.0122192
0.010967
-0.662745
0.663997
-0.00932881
0.00770752
-0.780296
0.781917
-0.00580537
0.00395259
-0.923513
0.925366
-0.0018027
-0.000265099
-1.09716
1.09923
0.00263097
-0.00487063
-1.30711
1.30935
0.00738581
-0.00971609
-1.56172
1.56405
0.0118613
-0.013816
-1.56053
1.56248
0.0153001
-0.0166562
-1.30445
1.30581
0.0177066
-0.0187096
-1.09418
1.09518
0.0195293
-0.020356
-0.921237
0.922063
0.0210828
-0.0218483
-0.779825
0.780591
0.0223125
-0.0221156
-0.659433
0.659236
0.0207625
-0.0175911
-0.526542
0.523371
0.0134552
-0.00861551
-0.345729
0.340889
0.0049096
-0.00203932
-0.161274
0.158404
0.000546919
-0.0266588
0.0261119
-0.0289856
0.028876
0.000109653
-0.00163032
0.00330807
-0.233355
0.231677
-0.00577443
0.00797209
-0.407134
0.404937
-0.00953787
0.0098747
-0.552143
0.551806
-0.00921204
0.00807279
-0.665287
0.666426
-0.00649055
0.00487142
-0.78353
0.785149
-0.00293849
0.00105708
-0.927098
0.928979
0.00110419
-0.00314165
-1.10115
1.10319
0.00543447
-0.00756431
-1.31146
1.31359
0.00991798
-0.012054
-1.56624
1.56838
0.0139517
-0.0156128
-1.56431
1.56597
0.0168221
-0.0178919
-1.30708
1.30815
0.0187007
-0.019451
-1.09611
1.09686
0.0200533
-0.0206343
-0.922782
0.923362
0.0211052
-0.0215737
-0.781174
0.781642
0.0216716
-0.0211745
-0.658819
0.658322
0.0194787
-0.0161336
-0.520165
0.51682
0.0121483
-0.00771943
-0.336305
0.331876
0.00440955
-0.00185538
-0.155733
0.153179
0.000508964
-0.0256048
0.0250959
-0.0288279
0.0288291
-1.24147e-06
-0.000640163
0.001641
-0.230353
0.229352
-0.00332355
0.00495817
-0.403066
0.401431
-0.00620547
0.00646566
-0.551601
0.55134
-0.00581585
0.00471112
-0.667643
0.668748
-0.00312961
0.00150021
-0.786739
0.788369
0.000435516
-0.00230298
-0.930706
0.932573
0.00443417
-0.00643811
-1.10508
1.10708
0.00868098
-0.0107449
-1.31558
1.31765
0.0129792
-0.0149222
-1.57035
1.5723
0.0165928
-0.0179651
-1.56749
1.56886
0.0188778
-0.0196081
-1.30912
1.30985
0.0200895
-0.0204726
-1.09749
1.09787
0.0207303
-0.0209708
-0.923811
0.924052
0.0212043
-0.0214056
-0.781937
0.782138
0.0212055
-0.0203456
-0.657512
0.656652
0.018376
-0.014932
-0.513502
0.510058
0.0111149
-0.00704275
-0.327701
0.323629
0.00404853
-0.00173132
-0.150795
0.148478
0.000486615
-0.0246232
0.0241366
-0.0288937
0.0290288
-0.000135077
0.000400661
-0.00010535
-0.228702
0.228407
-0.000768908
0.00179172
-0.400167
0.399144
-0.00263787
0.00274495
-0.551303
0.551196
-0.00205079
0.000924335
-0.669991
0.671117
0.000680675
-0.00233873
-0.789936
0.791595
0.00430088
-0.00619067
-0.934248
0.936138
0.00834455
-0.0103595
-1.10893
1.11095
0.0125887
-0.0145997
-1.31958
1.32159
0.0167092
-0.0184805
-1.5741
1.57587
0.0198984
-0.0209743
-1.57009
1.57117
0.0215775
-0.0219398
-1.31047
1.31083
0.0220896
-0.0221005
-1.09813
1.09814
0.0220356
-0.0219409
-0.924164
0.92407
0.0218367
-0.0216825
-0.78205
0.781896
0.0212013
-0.0199406
-0.655493
0.654233
0.0176555
-0.0140651
-0.506672
0.503082
0.0103598
-0.00656312
-0.319786
0.315989
0.00380857
-0.0016606
-0.146304
0.144156
0.000479844
-0.0236812
0.0232014
-0.0292344
0.0294997
-0.000265331
0.00146612
-0.00184573
-0.228471
0.22885
0.00184384
-0.00149526
-0.398549
0.3982
0.00112501
-0.00121035
-0.551384
0.55147
0.00192877
-0.00307213
-0.672389
0.673532
0.00472669
-0.00646967
-0.793184
0.794927
0.00855508
-0.0105606
-0.937869
0.939874
0.0128318
-0.0149327
-1.11283
1.11493
0.0172217
-0.019232
-1.32348
1.32549
0.0212644
-0.02288
-1.57747
1.57909
0.0240586
-0.0248161
-1.57206
1.57282
0.0251174
-0.0251192
-1.31109
1.31109
0.0249248
-0.0245777
-1.09802
1.09767
0.0241741
-0.0236932
-0.923767
0.923286
0.0232492
-0.0226975
-0.781404
0.780852
0.0218163
-0.0200051
-0.652709
0.650898
0.0173596
-0.0136031
-0.499574
0.495818
0.00996376
-0.006346
-0.312404
0.308786
0.00372479
-0.00164769
-0.142123
0.140046
0.000482667
-0.0227556
0.0222729
-0.0298437
0.0302512
-0.000407512
0.00248766
-0.00355397
-0.229552
0.230618
0.00439068
-0.00481594
-0.39831
0.398735
0.00508669
-0.00549812
-0.551979
0.552391
0.00634723
-0.00760616
-0.674879
0.676138
0.00940999
-0.0113149
-0.796592
0.798497
0.0135864
-0.0157533
-0.941714
0.943881
0.0181815
-0.020399
-1.1169
1.11912
0.0227754
-0.0248256
-1.32739
1.32944
0.0268433
-0.0283522
-1.58058
1.58209
0.0293201
-0.0297356
-1.57338
1.57379
0.0296768
-0.0292464
-1.31094
1.31051
0.0286521
-0.0278688
-1.0971
1.09632
0.0270934
-0.0262194
-0.922527
0.921653
0.02543
-0.0244347
-0.779894
0.778898
0.0230419
-0.020743
-0.648939
0.64664
0.0177791
-0.0138488
-0.492194
0.488264
0.0101824
-0.00656832
-0.305331
0.301717
0.00390632
-0.00174462
-0.138023
0.135862
0.000512156
-0.0218171
0.021305
-0.0307522
0.0313231
-0.000570885
0.00357335
-0.00528753
-0.232046
0.23376
0.00695586
-0.00815701
-0.399569
0.40077
0.00916983
-0.0100816
-0.553385
0.554296
0.0112975
-0.0128403
-0.677688
0.67923
0.0149483
-0.0171265
-0.800331
0.802509
0.0196844
-0.0220959
-0.945898
0.948309
0.0247687
-0.0271731
-1.12122
1.12362
0.0296944
-0.0317944
-1.33136
1.33346
0.0337496
-0.0350537
-1.5834
1.5847
0.0357119
-0.035726
-1.57396
1.57398
0.0352822
-0.0344221
-1.30987
1.30901
0.0334037
-0.0321574
-1.09527
1.09403
0.0309784
-0.0296956
-0.920463
0.91918
0.0285402
-0.0270511
-0.77747
0.775981
0.0252586
-0.0225242
-0.644276
0.641541
0.019225
-0.0150203
-0.48447
0.480265
0.0111556
-0.00730807
-0.298188
0.294341
0.00439763
-0.00197549
-0.133682
0.13126
0.000578845
-0.0208062
0.0202273
-0.0319845
0.0327414
-0.000756938
0.00478159
-0.00719665
-0.235863
0.238278
0.0097188
-0.0117017
-0.402405
0.404388
0.0134816
-0.0149673
-0.55589
0.557376
0.0166995
-0.0186577
-0.681146
0.683105
0.0212021
-0.0237701
-0.804631
0.807199
0.0267435
-0.0295164
-0.950592
0.953365
0.0325574
-0.0352552
-1.12594
1.12863
0.0380232
-0.0402603
-1.33545
1.33769
0.0422156
-0.0433605
-1.58581
1.58695
0.0437245
-0.0433312
-1.57373
1.57334
0.0424393
-0.0410845
-1.30788
1.30653
0.0396303
-0.0379102
-1.09248
1.09076
0.0363099
-0.0345952
-0.917515
0.9158
0.0330578
-0.0310723
-0.774076
0.77209
0.0288189
-0.0255481
-0.638755
0.635485
0.021781
-0.0171089
-0.476159
0.471487
0.0128301
-0.00850073
-0.290489
0.28616
0.00515001
-0.00231819
-0.12876
0.125928
0.000677543
-0.0196504
0.0189728
-0.0335884
0.0345968
-0.00100837
0.00634441
-0.00960845
-0.241107
0.244371
0.0131197
-0.0159598
-0.406907
0.409747
0.0185685
-0.0206635
-0.559655
0.56175
0.0229384
-0.0253586
-0.685483
0.687903
0.0284315
-0.0314989
-0.809725
0.812792
0.0350404
-0.0383244
-0.956054
0.959338
0.0418912
-0.0450086
-1.13128
1.13439
0.0481426
-0.0505847
-1.33984
1.34228
0.0526005
-0.0536378
-1.58791
1.58895
0.0537081
-0.0528546
-1.57265
1.5718
0.0514802
-0.0495471
-1.30483
1.30289
0.0475642
-0.0453139
-1.08865
1.0864
0.0432583
-0.0410488
-0.913616
0.911406
0.0390382
-0.0364526
-0.769676
0.76709
0.03363
-0.0296921
-0.632146
0.628208
0.0253126
-0.0199814
-0.46688
0.461549
0.0150757
-0.0100368
-0.281756
0.276717
0.00608934
-0.00273852
-0.122983
0.119632
0.000798631
-0.0182927
0.0174941
-0.0356892
0.0370531
-0.0013639
0.00848503
-0.0128473
-0.248065
0.252427
0.0175715
-0.0214413
-0.413314
0.417184
0.0250015
-0.0278526
-0.564838
0.567689
0.030821
-0.033839
-0.690832
0.69385
0.0375939
-0.0413082
-0.815828
0.819542
0.0455502
-0.0494455
-0.962554
0.966449
0.0536266
-0.057218
-1.13746
1.14106
0.0607319
-0.0633632
-1.34462
1.34725
0.0653974
-0.0662313
-1.58976
1.59059
0.0659226
-0.0645214
-1.57061
1.56921
0.0625892
-0.0600154
-1.30059
1.29801
0.0574246
-0.0544635
-1.08362
1.08066
0.051767
-0.0489058
-0.908567
0.905706
0.0462736
-0.043036
-0.764037
0.760799
0.0395416
-0.0348286
-0.624169
0.619456
0.0297186
-0.0235261
-0.456273
0.45008
0.0177657
-0.0118021
-0.271558
0.265594
0.00713452
-0.00319384
-0.116158
0.112217
0.00092663
-0.0166961
0.0157695
-0.0384838
0.0403841
-0.00190026
0.011585
-0.0174235
-0.257212
0.26305
0.0236614
-0.0287757
-0.422092
0.427206
0.0335147
-0.0373672
-0.571869
0.575721
0.0413664
-0.0453267
-0.697556
0.701516
0.0500659
-0.0546051
-0.82325
0.82779
0.0596761
-0.0642416
-0.970279
0.974845
0.0690283
-0.0730135
-1.14454
1.14853
0.07675
-0.0793774
-1.34967
1.35229
0.0811321
-0.0814462
-1.59104
1.59136
0.0804181
-0.0781583
-1.56732
1.56506
0.0754191
-0.0719872
-1.29497
1.29154
0.0686647
-0.0649757
-1.07715
1.07346
0.0616549
-0.058101
-0.902095
0.898541
0.0548444
-0.050965
-0.756974
0.753094
0.0467942
-0.041234
-0.614643
0.609083
0.035183
-0.0277895
-0.443898
0.436505
0.0208863
-0.0137866
-0.25949
0.25239
0.00828538
-0.00368419
-0.108159
0.103558
0.00106046
-0.0148516
0.0137911
-0.0422986
0.0450459
-0.00274732
0.0162458
-0.0241003
-0.26928
0.277135
0.0322469
-0.0388619
-0.433928
0.440543
0.0450254
-0.050156
-0.581365
0.586496
0.055594
-0.0608418
-0.706317
0.711564
0.0668429
-0.0723961
-0.832345
0.837899
0.0784042
-0.0836259
-0.97932
0.984541
0.0888912
-0.0930804
-1.15229
1.15648
0.0967924
-0.0991395
-1.35452
1.35687
0.100285
-0.0997629
-1.59107
1.59055
0.0977289
-0.0943364
-1.56212
1.55873
0.0905762
-0.0860574
-1.28748
1.28297
0.0817977
-0.0772015
-1.06912
1.06452
0.0731936
-0.0690281
-0.894219
0.890054
0.0652125
-0.0607521
-0.748562
0.744102
0.0558868
-0.0491803
-0.603333
0.596626
0.0417522
-0.0327022
-0.429033
0.419983
0.0243864
-0.0159768
-0.245192
0.236782
0.0095331
-0.00419877
-0.098867
0.0935326
0.00119343
-0.0127527
0.0115592
-0.0476939
0.0518836
-0.0041897
0.0236398
-0.0343108
-0.285412
0.296083
0.0449532
-0.0534944
-0.449721
0.458262
0.0613296
-0.0678817
-0.593937
0.600489
0.0749476
-0.0816704
-0.717675
0.724398
0.0890864
-0.0956531
-0.84345
0.850017
0.102462
-0.108143
-0.989573
0.995255
0.113624
-0.117776
-1.1603
1.16445
0.121169
-0.122986
-1.35865
1.36047
0.123302
-0.121804
-1.5893
1.5878
0.118714
-0.114191
-1.55461
1.55009
0.109438
-0.103868
-1.27779
1.27222
0.0986816
-0.0931158
-1.05919
1.05363
0.0882983
-0.0833571
-0.884951
0.88001
0.0788471
-0.0733852
-0.738711
0.733249
0.0671247
-0.0585216
-0.589306
0.580703
0.0491951
-0.0381886
-0.410802
0.399796
0.0282996
-0.0184117
-0.228397
0.218509
0.0108844
-0.00472785
-0.0881703
0.0820137
0.00131863
-0.0104065
0.00908782
-0.0557202
0.0629147
-0.00719443
0.0368016
-0.051734
-0.307738
0.32267
0.06597
-0.0770924
-0.470811
0.481934
0.0866308
-0.0944906
-0.609831
0.617691
0.103042
-0.11096
-0.731696
0.739614
0.119257
-0.126244
-0.856287
0.863274
0.133225
-0.138837
-1.00049
1.0061
0.144042
-0.147721
-1.168
1.17168
0.150392
-0.151347
-1.36153
1.36249
0.150574
-0.147939
-1.58546
1.58282
0.143709
-0.13806
-1.54481
1.53917
0.132353
-0.125822
-1.26603
1.2595
0.11978
-0.113267
-1.04734
1.04082
0.107522
-0.101371
-0.87384
0.867689
0.0954736
-0.0880987
-0.726197
0.718822
0.0796707
-0.0685942
-0.570951
0.559874
0.057221
-0.0442615
-0.388687
0.375728
0.0327081
-0.0211652
-0.208836
0.197294
0.0123722
-0.00527415
-0.075999
0.068901
0.001427
-0.00784408
0.00641708
-0.0696718
0.0734976
-0.00382575
0.0272987
-0.0402037
-0.340202
0.353107
0.0528685
-0.0628283
-0.498311
0.508271
0.0718338
-0.0806096
-0.628694
0.63747
0.090719
-0.0998362
-0.746977
0.756094
0.110063
-0.119206
-0.869331
0.878474
0.128941
-0.137542
-1.01084
1.01944
0.146442
-0.153916
-1.17438
1.18185
0.161095
-0.166456
-1.36241
1.36777
0.170613
-0.17238
-1.57913
1.58089
0.171639
-0.168803
-1.53258
1.52975
0.164658
-0.158839
-1.25221
1.24639
0.152833
-0.145088
-1.03345
1.02571
0.13754
-0.128383
-0.859891
0.850734
0.118972
-0.107257
-0.709027
0.697313
0.0943815
-0.0787839
-0.547591
0.531994
0.0639064
-0.0474533
-0.362554
0.346101
0.0334222
-0.0202017
-0.18605
0.17283
0.0108649
-0.0041626
-0.0624544
0.0557522
0.000934255
-0.00515442
0.00422017
-0.0807326
0.0784371
0.00229548
0.0057887
-0.0136406
-0.368759
0.376611
0.0229311
-0.0300124
-0.522638
0.529719
0.0371762
-0.0444239
-0.648444
0.655692
0.0533624
-0.0617181
-0.764785
0.77314
0.0707872
-0.0791985
-0.887089
0.895501
0.0882252
-0.0959444
-1.02782
1.03554
0.104179
-0.110787
-1.18924
1.19585
0.117155
-0.121691
-1.37295
1.37749
0.124749
-0.125566
-1.58196
1.58277
0.123848
-0.119933
-1.52614
1.52223
0.114528
-0.10727
-1.23984
1.23259
0.0997553
-0.0904607
-1.01686
1.00756
0.0809721
-0.0696107
-0.838782
0.827421
0.0588266
-0.047471
-0.680963
0.669608
0.0373886
-0.0268535
-0.514272
0.503737
0.0180919
-0.0104644
-0.329226
0.321599
0.00541472
-0.00192128
-0.159978
0.156485
0.000157156
0.000435114
-0.0492916
0.0486994
-0.00034177
-0.00289259
0.00323436
-0.0814941
0.0785379
0.00295624
-0.00255589
-0.00158537
-0.387637
0.391778
0.00734226
-0.0124561
-0.540423
0.545536
0.0178822
-0.0239743
-0.664766
0.670858
0.03148
-0.0385594
-0.780614
0.787694
0.0465434
-0.0538627
-0.90319
0.910509
0.0615472
-0.068529
-1.04313
1.05011
0.075802
-0.0817507
-1.20209
1.20804
0.0870496
-0.0906011
-1.3814
1.38495
0.0928493
-0.0926861
-1.58279
1.58263
0.0899698
-0.0850163
-1.51741
1.51246
0.0787674
-0.0708425
-1.22474
1.21682
0.0624583
-0.0527008
-0.997305
0.987548
0.0431611
-0.0323531
-0.815401
0.804593
0.0228678
-0.0133897
-0.65592
0.646442
0.00587578
0.00109769
-0.49146
0.484487
-0.00541965
0.0075475
-0.312154
0.310026
-0.00766271
0.00638471
-0.151137
0.152415
-0.00456535
0.00240458
-0.0472789
0.0494397
-0.000859698
-0.00284524
0.00370494
-0.0800281
0.0772109
0.00281723
-0.00571912
0.00383967
-0.399826
0.401706
-0.000361754
-0.00342312
-0.55367
0.557455
0.00810865
-0.0131681
-0.677887
0.682946
0.0195217
-0.0255621
-0.794273
0.800314
0.0323738
-0.0386678
-0.917359
0.923653
0.0456745
-0.0516442
-1.05668
1.06265
0.0580464
-0.0628416
-1.21359
1.21838
0.0673829
-0.070272
-1.38824
1.39112
0.0716424
-0.0705321
-1.58188
1.58077
0.0673397
-0.0620519
-1.50671
1.50142
0.0556631
-0.0474368
-1.20846
1.20024
0.0393265
-0.0301309
-0.977362
0.968166
0.0212658
-0.0118223
-0.793523
0.784079
0.00338823
0.00452486
-0.635126
0.627213
-0.01022
0.0142865
-0.475582
0.471516
-0.0159134
0.0151206
-0.304427
0.30522
-0.0128699
0.00948635
-0.151821
0.155205
-0.00636562
0.00309912
-0.0505542
0.0538207
-0.000997982
-0.00386483
0.00486281
-0.0784606
0.0760742
0.00238648
-0.00639956
0.0058521
-0.407997
0.408544
-0.00324794
0.000404236
-0.564338
0.567182
0.00345916
-0.00811084
-0.688849
0.693501
0.0134632
-0.0188068
-0.805813
0.811156
0.0247354
-0.0302386
-0.929575
0.935078
0.0362936
-0.0416402
-1.06849
1.07384
0.0471014
-0.0514984
-1.22303
1.22742
0.0553564
-0.0576858
-1.3936
1.39593
0.0585344
-0.0570706
-1.57939
1.57792
0.0536966
-0.0482416
-1.49537
1.48992
0.0421015
-0.0345356
-1.19198
1.18442
0.0271325
-0.0187603
-0.958804
0.950432
0.0110957
-0.00296567
-0.774383
0.766253
-0.00394843
0.010438
-0.618083
0.611593
-0.0149482
0.0178964
-0.464699
0.461751
-0.0186701
0.0169764
-0.301972
0.303665
-0.0138689
0.0100645
-0.156367
0.160171
-0.00661297
0.00313509
-0.0558508
0.0593287
-0.000997318
-0.00531632
0.00631364
-0.0771776
0.0752017
0.00197592
-0.00595129
0.0056819
-0.413716
0.413986
-0.00416045
0.00174547
-0.572715
0.57513
0.0021761
-0.00624132
-0.698266
0.702331
0.0109299
-0.0156373
-0.815876
0.820584
0.0209688
-0.0259365
-0.940313
0.945281
0.0315183
-0.0362386
-1.07893
1.08365
0.0411723
-0.0451344
-1.23153
1.23549
0.0485211
-0.0504909
-1.39795
1.39992
0.0510326
-0.049811
-1.57632
1.5751
0.0464892
-0.0414926
-1.48406
1.47906
0.0358032
-0.0289115
-1.17681
1.16991
0.0225218
-0.0150657
-0.942153
0.934697
0.00840523
-0.0015831
-0.758123
0.751301
-0.00422319
0.00964406
-0.604315
0.598894
-0.0133808
0.0158601
-0.456129
0.45365
-0.0162581
0.0147589
-0.301487
0.302987
-0.0121914
0.00877304
-0.161616
0.165034
-0.00567219
0.00270493
-0.0612057
0.0641729
-0.000860518
-0.00672552
0.00758604
-0.0763414
0.0748462
0.00149526
-0.00485817
0.00474896
-0.418174
0.418283
-0.00331772
0.00139621
-0.580316
0.582237
0.00234816
-0.00613267
-0.706653
0.710438
0.0107223
-0.0148646
-0.825057
0.8292
0.0196257
-0.0240878
-0.950294
0.954756
0.0294258
-0.0337458
-1.08841
1.09273
0.038167
-0.0419221
-1.23927
1.24303
0.0454353
-0.0472551
-1.40189
1.40371
0.047883
-0.0466845
-1.57348
1.57229
0.0439223
-0.0391413
-1.47391
1.46913
0.0341618
-0.0281502
-1.16302
1.15701
0.0223941
-0.0160395
-0.927467
0.921112
0.010204
-0.00411875
-0.744248
0.738163
-0.000673271
0.00544912
-0.592623
0.587847
-0.00884508
0.010957
-0.44899
0.446879
-0.0115229
0.0106947
-0.301239
0.302067
-0.00881582
0.00622752
-0.165851
0.168439
-0.00399739
0.00193366
-0.0654067
0.0674704
-0.000641943
-0.0078332
0.00847514
-0.0760572
0.0749164
0.00114075
-0.00366423
0.00356941
-0.421926
0.422021
-0.00205226
6.12953e-05
-0.587178
0.589169
0.00348297
-0.00697054
-0.714437
0.717925
0.0110152
-0.0151154
-0.833433
0.837533
0.0196033
-0.0242629
-0.959102
0.963762
0.0289164
-0.0330679
-1.09718
1.10133
0.0376181
-0.0411411
-1.24667
1.25019
0.0441912
-0.0464325
-1.40544
1.40769
0.04728
-0.0464592
-1.57116
1.57034
0.0439915
-0.0399703
-1.46458
1.46056
0.0355404
-0.0301558
-1.15079
1.1454
0.025098
-0.0194504
-0.914752
0.909104
0.0143252
-0.00913383
-0.732135
0.726944
0.00464309
-0.00047656
-0.582373
0.578206
-0.00248291
0.00468668
-0.442699
0.440495
-0.0055486
0.00521962
-0.300127
0.300456
-0.00435036
0.00300525
-0.168254
0.1696
-0.00190632
0.000929695
-0.0678143
0.068791
-0.000339071
-0.00852969
0.00886876
-0.0763279
0.075379
0.000948941
-0.00234569
0.00197112
-0.425493
0.425867
-0.000592184
-0.00157141
-0.593653
0.595816
0.00490776
-0.00838318
-0.721898
0.725374
0.0123791
-0.0161876
-0.841559
0.845367
0.020878
-0.0248113
-0.96792
0.971853
0.0294727
-0.033477
-1.10567
1.10967
0.0379268
-0.0416468
-1.2537
1.25742
0.0450037
-0.0470626
-1.4097
1.41176
0.048297
-0.0479322
-1.56945
1.56909
0.046185
-0.0425813
-1.45645
1.45284
0.0386908
-0.0338409
-1.14015
1.1353
0.0293073
-0.0241374
-0.903296
0.898126
0.0195872
-0.014762
-0.721501
0.716676
0.0106616
-0.00671485
-0.573374
0.569427
0.0037209
-0.00154814
-0.436562
0.434389
0.000244281
0.000209815
-0.297849
0.297395
-0.000462061
0.000415302
-0.168367
0.168414
-0.000366746
0.000320191
-0.0682363
0.0682828
-0.000186364
-0.00867105
0.00885742
-0.0768916
0.0762388
0.0006528
-0.0012109
0.000383243
-0.429272
0.430099
0.000889972
-0.00322622
-0.599557
0.601893
0.00633933
-0.00978183
-0.729045
0.732488
0.0137044
-0.0177202
-0.849155
0.853171
0.021881
-0.0260259
-0.976059
0.980204
0.0306899
-0.0345134
-1.11413
1.11795
0.0390805
-0.0427824
-1.26097
1.26467
0.0462215
-0.0488356
-1.41424
1.41685
0.0506017
-0.0505741
-1.56877
1.56874
0.0491134
-0.0462636
-1.4494
1.44655
0.0429472
-0.0384905
-1.13032
1.12586
0.0342334
-0.0296272
-0.892871
0.888264
0.025058
-0.0206749
-0.711559
0.707176
0.0167926
-0.0128829
-0.565074
0.561164
0.00996268
-0.00736605
-0.430309
0.427712
0.00561517
-0.00419158
-0.294379
0.292956
0.00305762
-0.00189446
-0.166358
0.165195
0.000898873
-0.000164939
-0.066902
0.0661681
-9.43829e-05
-0.00834384
0.00843822
-0.0778357
0.0773366
0.000499109
-0.000272532
-0.000515957
-0.433307
0.434096
0.0023765
-0.00458131
-0.605653
0.607857
0.00792533
-0.0113085
-0.735861
0.739245
0.0151535
-0.0188433
-0.856963
0.860653
0.0231898
-0.0270724
-0.984409
0.988292
0.0317228
-0.0360072
-1.12225
1.12653
0.0402481
-0.0442984
-1.26844
1.27249
0.048188
-0.0509292
-1.41938
1.42212
0.0531095
-0.0538853
-1.56893
1.56971
0.0529086
-0.0506893
-1.44356
1.44134
0.0475765
-0.0435555
-1.1214
1.11737
0.0396808
-0.0352088
-0.883224
0.878752
0.0309738
-0.0266651
-0.702245
0.697936
0.0228584
-0.018856
-0.556744
0.552742
0.0156533
-0.0127175
-0.423647
0.420711
0.0102375
-0.00797367
-0.289287
0.287023
0.00592716
-0.00379529
-0.162254
0.160122
0.0020813
-0.000728362
-0.0641733
0.0628203
8.82186e-05
-0.00777119
0.00768297
-0.0790352
0.0787058
0.000329349
0.00074429
-0.00173006
-0.437505
0.438491
0.00347698
-0.00597837
-0.611427
0.613928
0.00929859
-0.0125763
-0.742557
0.745834
0.0165559
-0.0201522
-0.864403
0.867999
0.0243958
-0.0284351
-0.992695
0.996734
0.0330288
-0.0373041
-1.1307
1.13498
0.0417891
-0.0458934
-1.27648
1.28059
0.0499951
-0.0535072
-1.42516
1.42867
0.056162
-0.0572711
-1.57043
1.57154
0.0569939
-0.0551008
-1.439
1.4371
0.0525196
-0.0489818
-1.11324
1.10971
0.0451217
-0.0408079
-0.873946
0.869632
0.0366938
-0.0322967
-0.693198
0.688801
0.0285516
-0.0243931
-0.548511
0.544353
0.0209899
-0.0174574
-0.416373
0.41284
0.0144629
-0.0113594
-0.282669
0.279566
0.00838736
-0.00540711
-0.156326
0.153346
0.0030531
-0.00116653
-0.0603012
0.0584146
0.000220496
-0.00696559