/*--------------------------------*- C++ -*----------------------------------*\
  =========                 |
  \\      /  F ield         | OpenFOAM: The Open Source CFD Toolbox
   \\    /   O peration     | Website:  https://openfoam.org
    \\  /    A nd           | Version:  6
     \\/     M anipulation  |
\*---------------------------------------------------------------------------*/
FoamFile
{
    version     2.0;
    format      ascii;
    class       volScalarField;
    location    "24";
    object      p;
}
// * * * * * * * * * * * * * * * * * * * * * * * * * * * * * * * * * * * * * //

dimensions      [0 2 -2 0 0 0 0];

internalField   nonuniform List<scalar> 
8800
(
0.441275
0.391963
0.353996
0.325915
0.305731
0.291106
0.280452
0.272843
0.26787
0.26565
0.266812
0.270944
0.27757
0.286873
0.299525
0.316788
0.340624
0.373693
0.416603
0.469127
0.275755
0.2821
0.291245
0.294785
0.292167
0.286066
0.279099
0.272812
0.267925
0.264919
0.264494
0.266901
0.271354
0.277328
0.284308
0.291252
0.296066
0.2959
0.289197
0.280284
0.249334
0.255572
0.260071
0.263936
0.266869
0.267797
0.266672
0.26447
0.262361
0.26134
0.262143
0.26438
0.267094
0.269216
0.269616
0.267742
0.26431
0.260244
0.255429
0.251704
0.245071
0.247838
0.250453
0.252619
0.254357
0.255914
0.256984
0.257269
0.257002
0.25687
0.257435
0.258365
0.258895
0.258557
0.257431
0.255954
0.254186
0.251806
0.249351
0.247782
0.240088
0.241515
0.243368
0.245461
0.247176
0.248451
0.249497
0.250374
0.251013
0.251495
0.251924
0.252123
0.251918
0.251355
0.250516
0.249254
0.247474
0.245482
0.244078
0.243277
0.235205
0.23611
0.237378
0.239029
0.240732
0.242244
0.24346
0.244484
0.245416
0.246181
0.246612
0.246633
0.246323
0.245719
0.244711
0.24334
0.241818
0.240425
0.239544
0.239026
0.230448
0.231101
0.232106
0.233487
0.234988
0.236534
0.238012
0.239296
0.240375
0.241285
0.241818
0.241887
0.241528
0.240734
0.23964
0.238423
0.237192
0.236107
0.235456
0.235085
0.225885
0.226383
0.227229
0.228465
0.229859
0.231356
0.232914
0.234427
0.235766
0.23687
0.237539
0.23762
0.237177
0.23636
0.235361
0.234298
0.233243
0.232348
0.231839
0.231561
0.221453
0.221834
0.222576
0.223746
0.225107
0.226539
0.22805
0.229616
0.231142
0.232458
0.233298
0.233479
0.233148
0.232512
0.231701
0.230775
0.229823
0.229051
0.228646
0.228439
0.217189
0.217477
0.218115
0.21919
0.220479
0.221859
0.223314
0.224864
0.226496
0.228071
0.22911
0.229494
0.229425
0.229055
0.228456
0.22771
0.226914
0.226285
0.225977
0.225822
0.213047
0.21326
0.213854
0.214941
0.216278
0.217757
0.219393
0.221106
0.222836
0.224557
0.225961
0.226737
0.226907
0.226618
0.226076
0.225399
0.224655
0.224092
0.223852
0.223744
0.209112
0.209249
0.209774
0.21081
0.212102
0.213521
0.215103
0.216927
0.218996
0.221142
0.222877
0.223861
0.224285
0.224346
0.224115
0.223652
0.223074
0.222632
0.222472
0.222407
0.20543
0.205514
0.205938
0.206839
0.208024
0.209413
0.211041
0.212927
0.215086
0.217544
0.2198
0.221388
0.222315
0.222738
0.222826
0.222653
0.222342
0.222096
0.22202
0.221981
0.201703
0.201753
0.202094
0.202876
0.203992
0.205394
0.207128
0.20929
0.21191
0.21492
0.217738
0.219768
0.221058
0.221824
0.222232
0.222397
0.22239
0.222358
0.22235
0.222317
0.197451
0.197502
0.197788
0.198471
0.199524
0.200926
0.202752
0.205105
0.208091
0.211715
0.215292
0.218058
0.220013
0.221312
0.222175
0.222691
0.222988
0.223147
0.223189
0.223153
0.192382
0.192439
0.192737
0.193431
0.194545
0.196103
0.198218
0.201027
0.204649
0.209105
0.213578
0.217111
0.219647
0.221435
0.222676
0.223527
0.224081
0.224372
0.224441
0.224398
0.186248
0.186306
0.186675
0.187453
0.18872
0.190533
0.19304
0.196415
0.200835
0.206348
0.211943
0.216423
0.219715
0.222056
0.223729
0.224914
0.225699
0.226086
0.226176
0.226129
0.178861
0.178917
0.179362
0.180331
0.181875
0.184104
0.18719
0.191378
0.19685
0.203685
0.210667
0.216275
0.22036
0.223354
0.225498
0.227035
0.228002
0.228469
0.228591
0.228543
0.170044
0.170098
0.170635
0.171862
0.17384
0.176647
0.180526
0.185752
0.192583
0.20109
0.209754
0.216711
0.221842
0.225555
0.228225
0.230094
0.231261
0.231825
0.231989
0.231937
0.159547
0.159597
0.160253
0.16181
0.164307
0.167902
0.172821
0.179406
0.187945
0.198521
0.209246
0.217854
0.224195
0.228783
0.232091
0.234328
0.235741
0.236442
0.236655
0.236598
0.146948
0.147004
0.147826
0.149776
0.153012
0.157564
0.163829
0.172164
0.182882
0.196036
0.20926
0.219817
0.227594
0.233235
0.23726
0.240018
0.241745
0.242623
0.242882
0.24281
0.131478
0.131553
0.1326
0.135077
0.139242
0.145163
0.15319
0.16382
0.177333
0.193676
0.209898
0.222757
0.232221
0.239079
0.243969
0.247341
0.249476
0.250566
0.250873
0.250781
0.111942
0.112053
0.113478
0.116829
0.122282
0.130044
0.140553
0.15425
0.171326
0.191569
0.21133
0.226844
0.238231
0.246494
0.252406
0.256513
0.259134
0.26046
0.260818
0.260702
0.0865379
0.086727
0.0888115
0.0935542
0.101108
0.111638
0.125631
0.143417
0.164988
0.189903
0.213733
0.232239
0.245793
0.255656
0.262763
0.267751
0.270952
0.272549
0.272958
0.272807
0.0522037
0.0525924
0.0560061
0.063354
0.074481
0.0893452
0.108331
0.131508
0.158596
0.188929
0.217293
0.239073
0.255002
0.266657
0.275149
0.281186
0.285079
0.286987
0.287438
0.287242
0.00307446
0.00447013
0.011384
0.0241767
0.0415654
0.0631477
0.0890452
0.119013
0.152581
0.188945
0.222174
0.24741
0.265856
0.279459
0.289518
0.296813
0.301573
0.303864
0.304349
0.304088
-0.0695026
-0.0613084
-0.0455077
-0.0229805
0.00385513
0.0344267
0.0687272
0.106515
0.147298
0.190284
0.228863
0.257981
0.279353
0.295325
0.307442
0.316481
0.322542
0.325582
0.326317
0.326156
-0.146481
-0.129218
-0.103645
-0.0707874
-0.0341334
0.00555625
0.0483753
0.0942129
0.142684
0.193103
0.23814
0.272268
0.297601
0.31683
0.331743
0.343276
0.351214
0.355386
0.356617
0.356628
-0.211336
-0.190389
-0.156966
-0.115488
-0.0701782
-0.0219544
0.0291018
0.0827686
0.138666
0.196177
0.247218
0.285853
0.314619
0.336637
0.353763
0.367009
0.376508
0.381499
0.382624
0.382749
-0.263713
-0.24055
-0.202033
-0.154494
-0.102478
-0.0471722
0.0110743
0.0718604
0.134649
0.198727
0.255204
0.297748
0.329308
0.353347
0.372037
0.386466
0.39696
0.402445
0.40381
0.404054
-0.306925
-0.282585
-0.24047
-0.188216
-0.130869
-0.0697792
-0.00547617
0.0615101
0.130479
0.200502
0.261823
0.307668
0.341438
0.36699
0.386731
0.401949
0.412841
0.418814
0.420551
0.420826
-0.343883
-0.318826
-0.274091
-0.218052
-0.156241
-0.0902612
-0.020739
0.0516887
0.126163
0.201537
0.267187
0.315899
0.351452
0.378115
0.398522
0.41415
0.425278
0.431504
0.433422
0.43367
-0.376568
-0.35105
-0.30425
-0.245056
-0.179466
-0.109255
-0.0351296
0.0421718
0.121649
0.201945
0.271599
0.322902
0.360002
0.387523
0.408338
0.424101
0.435242
0.441504
0.443529
0.443747
-0.406407
-0.380497
-0.331995
-0.270108
-0.201255
-0.127334
-0.0490847
0.0326673
0.116785
0.201749
0.275234
0.329055
0.367604
0.395871
0.417003
0.43285
0.44397
0.450238
0.452341
0.452543
-0.434294
-0.408015
-0.358032
-0.293797
-0.222092
-0.144885
-0.0629205
0.0229038
0.111384
0.200844
0.278127
0.334436
0.374457
0.40353
0.42505
0.441025
0.452146
0.458324
0.460463
0.460708
-0.460928
-0.434236
-0.382901
-0.316545
-0.242317
-0.162179
-0.0768709
0.0126981
0.105281
0.19909
0.280188
0.339148
0.380833
0.410872
0.432884
0.449069
0.460225
0.466315
0.468393
0.468632
-0.48658
-0.459472
-0.406907
-0.338669
-0.262187
-0.179413
-0.0910735
0.00193269
0.0983704
0.196428
0.281493
0.343359
0.386908
0.418078
0.440733
0.457238
0.468494
0.47452
0.47647
0.47664
-0.511595
-0.483969
-0.43029
-0.360346
-0.281834
-0.196696
-0.105611
-0.00944987
0.0906215
0.192865
0.282011
0.346996
0.392677
0.425206
0.448679
0.465621
0.477025
0.482992
0.484789
0.48487
-0.536034
-0.507898
-0.453157
-0.381658
-0.301339
-0.214082
-0.120515
-0.0214583
0.0820137
0.188304
0.281588
0.349977
0.398121
0.432275
0.456744
0.474233
0.485812
0.491699
0.49335
0.493317
-0.559961
-0.531286
-0.475554
-0.402652
-0.32072
-0.231565
-0.135772
-0.0341005
0.0725034
0.182641
0.280136
0.352218
0.403165
0.43925
0.464916
0.483048
0.494804
0.500557
0.50203
0.501895
-0.58342
-0.554201
-0.497487
-0.423326
-0.33996
-0.249115
-0.151353
-0.0473466
0.0620941
0.175872
0.277555
0.353544
0.407693
0.44608
0.473179
0.492036
0.503939
0.509459
0.510702
0.510479
-0.606425
-0.57659
-0.518947
-0.443645
-0.359005
-0.266684
-0.167193
-0.061133
0.0508517
0.167983
0.273732
0.353783
0.411516
0.452683
0.481542
0.501183
0.513106
0.518266
0.519234
0.51893
-0.628802
-0.598398
-0.539881
-0.463569
-0.377801
-0.284186
-0.183207
-0.075358
0.0388514
0.15899
0.268587
0.352756
0.414397
0.458911
0.490063
0.510619
0.52229
0.5268
0.527412
0.527041
-0.650513
-0.619571
-0.560243
-0.483027
-0.396273
-0.301544
-0.199289
-0.0899337
0.0261781
0.148935
0.262078
0.350289
0.416043
0.464488
0.498771
0.520703
0.531755
0.534993
0.535027
0.534625
-0.671594
-0.640065
-0.579997
-0.501973
-0.414349
-0.318669
-0.215346
-0.104749
0.01294
0.137909
0.254179
0.346255
0.416142
0.468947
0.507455
0.531987
0.542523
0.543346
0.541938
0.541579
-0.691895
-0.659847
-0.599086
-0.520336
-0.431966
-0.335475
-0.231274
-0.119683
-0.000728334
0.126035
0.244917
0.340549
0.414403
0.471639
0.515376
0.54459
0.556549
0.554733
0.549397
0.546641
-0.711489
-0.678926
-0.617512
-0.538144
-0.449153
-0.352004
-0.247129
-0.134798
-0.0149036
0.113245
0.234153
0.332924
0.410521
0.471791
0.521144
0.55728
0.574501
0.574407
0.562488
0.557789
-0.7303
-0.697364
-0.635412
-0.555588
-0.466205
-0.368601
-0.263333
-0.150598
-0.0301661
0.0988477
0.221154
0.322479
0.403783
0.468165
0.521913
0.565376
0.588552
0.585848
0.57296
0.561678
-0.74821
-0.715128
-0.652629
-0.572455
-0.482888
-0.384963
-0.279663
-0.166745
-0.046181
0.0831563
0.206131
0.308871
0.393837
0.459939
0.512914
0.556602
0.582163
0.567335
0.505814
0.476182
-0.765102
-0.732932
-0.66874
-0.58823
-0.498573
-0.400619
-0.295862
-0.182973
-0.062668
0.0663673
0.189217
0.291817
0.380022
0.447567
0.490858
0.524684
0.532919
0.48994
0.424519
0.384107
-0.808117
-0.750122
-0.683666
-0.603578
-0.51398
-0.41643
-0.311809
-0.199393
-0.0798081
0.0481994
0.170099
0.271147
0.359375
0.432473
0.451207
0.458386
0.431889
0.376473
0.306555
0.267895
-0.782498
-0.764363
-0.705842
-0.626603
-0.537108
-0.44002
-0.336297
-0.224976
-0.106997
0.0185213
0.137321
0.234615
0.313901
0.387219
0.387236
0.290765
0.203028
0.143075
0.0789052
0.115718
-0.813212
-0.781936
-0.722734
-0.643675
-0.554469
-0.457854
-0.354206
-0.243807
-0.12726
-0.0041153
0.111246
0.20445
0.274661
0.313756
0.270964
0.136513
0.0270253
-0.0465032
-0.131585
-0.0740935
-0.83687
-0.803241
-0.742243
-0.662968
-0.573947
-0.477511
-0.374169
-0.264825
-0.150011
-0.0297647
0.0812393
0.168737
0.227502
0.232145
0.128387
-0.0339907
-0.16837
-0.263036
-0.365636
-0.321502
-0.859695
-0.825034
-0.762709
-0.682848
-0.593761
-0.497515
-0.394816
-0.286675
-0.173799
-0.0568
0.0490676
0.129876
0.172541
0.141297
-0.0211179
-0.211786
-0.383694
-0.529666
-0.664748
-0.63328
-0.882063
-0.847084
-0.783952
-0.703577
-0.614347
-0.518356
-0.416424
-0.309609
-0.19892
-0.085514
0.0145977
0.0877287
0.110592
0.0383478
-0.16882
-0.38636
-0.594584
-0.768755
-0.999726
-1.08773
-0.904639
-0.869819
-0.806252
-0.725501
-0.636119
-0.540342
-0.43911
-0.333632
-0.225225
-0.115598
-0.021522
0.0423143
0.0450007
-0.0850188
-0.304274
-0.539825
-0.760764
-0.946035
-1.09217
-1.25238
-0.928362
-0.893646
-0.829901
-0.74896
-0.659547
-0.564077
-0.463642
-0.359663
-0.253869
-0.148515
-0.060962
-0.00787932
-0.0348796
-0.208392
-0.431273
-0.664737
-0.866963
-0.983995
-1.0162
-1.03208
-0.953396
-0.918794
-0.854981
-0.774006
-0.684725
-0.589715
-0.490313
-0.38812
-0.285381
-0.184997
-0.104394
-0.0656045
-0.120376
-0.328187
-0.548365
-0.761472
-0.919756
-0.967891
-0.980449
-0.981007
-0.979986
-0.945351
-0.881486
-0.800569
-0.711545
-0.617192
-0.519071
-0.41898
-0.319733
-0.225066
-0.151868
-0.129694
-0.212348
-0.442197
-0.655158
-0.844398
-0.940516
-0.959379
-0.960709
-0.960678
-1.00804
-0.973307
-0.909374
-0.828577
-0.739946
-0.646412
-0.549824
-0.452187
-0.356782
-0.268581
-0.203772
-0.197247
-0.324013
-0.54879
-0.753863
-0.906881
-0.948995
-0.95016
-0.951504
-0.951254
-1.03728
-1.00244
-0.938468
-0.857875
-0.769755
-0.677213
-0.582397
-0.487634
-0.396324
-0.315269
-0.260033
-0.273817
-0.440438
-0.654173
-0.833634
-0.937467
-0.948823
-0.947786
-0.946984
-0.946689
-1.06707
-1.03233
-0.968453
-0.888154
-0.800686
-0.709316
-0.616447
-0.525045
-0.438029
-0.364622
-0.319551
-0.353796
-0.55399
-0.762382
-0.898577
-0.945336
-0.953293
-0.949732
-0.946595
-0.944899
-1.0969
-1.0624
-0.998819
-0.91893
-0.832278
-0.742269
-0.651471
-0.56382
-0.481617
-0.415523
-0.382132
-0.43259
-0.662962
-0.889628
-0.968132
-0.982364
-0.977083
-0.960631
-0.952899
-0.951599
-1.12571
-1.09182
-1.02882
-0.949525
-0.86387
-0.77545
-0.686813
-0.602908
-0.526766
-0.466327
-0.448353
-0.513902
-0.748105
-1.03959
-1.11789
-1.06162
-1.04982
-1.03661
-1.01863
-1.01157
-1.15266
-1.11953
-1.05749
-0.979051
-0.894581
-0.807964
-0.721661
-0.640892
-0.572413
-0.515987
-0.512332
-0.601484
-0.801619
-1.13256
-1.39585
-1.29877
-1.25098
-1.24202
-1.2127
-1.19439
-1.17598
-1.14421
-1.08362
-1.00638
-0.923317
-0.838616
-0.754962
-0.676484
-0.615398
-0.56569
-0.565989
-0.692912
-0.861756
-0.994416
-1.22541
-1.25878
-1.36593
-1.37749
-1.35816
-1.35092
-1.194
-1.16419
-1.10575
-1.03017
-0.94881
-0.86598
-0.785144
-0.708864
-0.651035
-0.615978
-0.608923
-0.759925
-0.939863
-0.770966
-0.583428
-0.921585
-1.2655
-1.33486
-1.34438
-1.34787
-1.20525
-1.17797
-1.12235
-1.04901
-0.969621
-0.888628
-0.810052
-0.736853
-0.677196
-0.657658
-0.647358
-0.824951
-1.12772
-1.12622
-1.20294
-1.47996
-1.52588
-1.44339
-1.4017
-1.4142
-1.20764
-1.18384
-1.13201
-1.06142
-0.984271
-0.905151
-0.827937
-0.757012
-0.696858
-0.67106
-0.691648
-0.917652
-1.49399
-2.11719
-2.53792
-2.74325
-2.6338
-2.29662
-1.99866
-1.93049
-1.20055
-1.18053
-1.13337
-1.06627
-0.991534
-0.914264
-0.837648
-0.766245
-0.706172
-0.671254
-0.687867
-0.975563
-1.61901
-2.56943
-3.0252
-3.2008
-3.14149
-2.95215
-2.70057
-2.53576
-1.18175
-1.16611
-1.12533
-1.06298
-0.990803
-0.915285
-0.837575
-0.765964
-0.694683
-0.658355
-0.637605
-0.812334
-1.2628
-1.91339
-2.51132
-2.65313
-2.4885
-2.21021
-1.97077
-1.81693
-1.15343
-1.14227
-1.10854
-1.05194
-0.982657
-0.907586
-0.82994
-0.749806
-0.678252
-0.59608
-0.5604
-0.4783
-0.587376
-0.598087
-0.493701
-0.248891
0.108963
0.398435
0.562683
0.63148
-1.1185
-1.11157
-1.08573
-1.03528
-0.968639
-0.893621
-0.813502
-0.727803
-0.641045
-0.533789
-0.424053
-0.266834
0.0272354
0.529424
1.1737
1.78118
2.22265
2.47108
2.57294
2.59946
-1.08145
-1.07757
-1.06015
-1.01641
-0.951761
-0.876206
-0.792804
-0.704038
-0.601579
-0.494287
-0.357405
-0.230031
0.0649763
0.650622
1.33019
1.91177
2.3261
2.57271
2.68668
2.72046
-1.04753
-1.04531
-1.03545
-0.998878
-0.935587
-0.858091
-0.773485
-0.681392
-0.582765
-0.465945
-0.3459
-0.246867
-0.103254
0.307248
0.782953
1.20524
1.51835
1.70607
1.79578
1.82306
-1.01753
-1.01756
-1.01323
-0.982456
-0.918949
-0.839329
-0.754692
-0.66562
-0.5693
-0.463563
-0.359992
-0.273214
-0.205151
0.0466001
0.408852
0.718899
0.93991
1.0678
1.13076
1.15173
-0.980923
-0.983539
-0.98165
-0.952447
-0.889063
-0.811622
-0.731972
-0.650257
-0.562614
-0.466088
-0.378113
-0.307554
-0.26121
-0.121257
0.134521
0.360872
0.511591
0.598327
0.637288
0.648075
-0.901005
-0.904022
-0.902439
-0.878849
-0.827922
-0.765426
-0.699335
-0.6303
-0.554899
-0.470346
-0.393003
-0.335947
-0.289563
-0.203449
-0.0359205
0.107038
0.201198
0.256623
0.283409
0.290149
-0.785222
-0.786376
-0.784584
-0.771248
-0.742133
-0.703039
-0.657358
-0.605436
-0.543859
-0.47388
-0.404379
-0.356875
-0.309174
-0.25517
-0.154837
-0.0655697
-0.00549045
0.0344169
0.0510719
0.0528705
-0.682759
-0.682587
-0.681679
-0.676911
-0.665115
-0.645535
-0.618367
-0.582397
-0.533598
-0.472947
-0.415573
-0.377571
-0.337687
-0.313355
-0.246413
-0.185771
-0.13923
-0.111377
-0.100386
-0.100206
-0.620633
-0.620162
-0.619815
-0.619501
-0.615415
-0.605948
-0.589845
-0.564438
-0.525885
-0.471055
-0.42452
-0.402627
-0.382332
-0.363982
-0.308926
-0.264737
-0.229916
-0.210963
-0.203296
-0.204068
-0.594939
-0.594394
-0.59392
-0.593822
-0.591944
-0.586354
-0.57555
-0.556532
-0.524195
-0.471952
-0.428017
-0.408617
-0.405802
-0.39682
-0.352375
-0.315076
-0.288482
-0.275395
-0.271231
-0.272029
-0.596025
-0.595258
-0.594389
-0.593791
-0.592003
-0.587514
-0.578936
-0.563223
-0.532327
-0.479522
-0.431575
-0.399271
-0.379496
-0.371107
-0.348715
-0.329119
-0.310965
-0.301062
-0.296269
-0.297195
-0.618804
-0.617927
-0.61696
-0.616129
-0.614365
-0.610732
-0.604369
-0.592398
-0.564086
-0.509418
-0.45755
-0.405299
-0.360884
-0.351941
-0.340883
-0.32657
-0.313418
-0.303995
-0.30076
-0.301523
-0.659026
-0.658291
-0.657635
-0.65733
-0.656971
-0.656587
-0.656372
-0.654426
-0.639572
-0.596944
-0.546739
-0.464019
-0.394247
-0.375066
-0.361065
-0.334692
-0.306326
-0.287602
-0.279478
-0.282031
-0.710383
-0.71007
-0.710461
-0.711969
-0.715469
-0.722779
-0.736448
-0.758537
-0.783104
-0.790901
-0.747828
-0.621281
-0.508725
-0.469721
-0.435144
-0.370474
-0.31463
-0.274599
-0.266816
-0.27091
-0.763397
-0.763946
-0.766064
-0.770843
-0.781037
-0.801198
-0.838708
-0.905354
-1.00751
-1.11835
-1.08487
-0.888363
-0.711344
-0.638053
-0.551107
-0.446271
-0.355542
-0.309621
-0.304794
-0.307014
-0.803907
-0.805616
-0.809944
-0.819038
-0.8378
-0.874191
-0.942864
-1.07188
-1.29005
-1.54429
-1.52666
-1.22661
-0.982696
-0.858125
-0.717912
-0.566546
-0.44494
-0.393735
-0.398583
-0.404862
-0.815399
-0.818245
-0.824618
-0.837614
-0.864102
-0.915081
-1.01237
-1.20045
-1.53084
-1.91934
-1.92719
-1.54875
-1.23768
-1.08273
-0.917962
-0.772957
-0.675812
-0.644189
-0.641088
-0.645709
-0.785117
-0.788428
-0.795533
-0.81042
-0.840548
-0.898499
-1.00964
-1.22668
-1.61665
-2.05852
-2.0928
-1.72217
-1.41866
-1.26925
-1.1354
-1.06302
-1.01335
-0.987988
-0.974072
-0.971763
-0.708991
-0.712074
-0.718619
-0.732353
-0.760516
-0.814796
-0.919158
-1.12313
-1.49188
-1.89114
-1.91143
-1.63881
-1.42738
-1.31985
-1.28711
-1.28616
-1.26453
-1.23208
-1.21106
-1.20356
-0.596303
-0.598521
-0.603207
-0.613382
-0.634876
-0.67673
-0.757429
-0.915673
-1.20737
-1.52619
-1.54119
-1.38695
-1.27051
-1.21029
-1.24476
-1.2977
-1.28188
-1.25189
-1.23169
-1.22335
-0.465381
-0.466455
-0.468785
-0.474446
-0.487313
-0.513092
-0.563294
-0.662538
-0.853709
-1.0913
-1.14067
-1.06983
-0.983948
-0.94649
-1.01308
-1.08514
-1.07702
-1.06098
-1.05025
-1.04511
-0.336434
-0.336487
-0.33682
-0.338518
-0.343639
-0.35483
-0.377356
-0.422665
-0.51443
-0.655595
-0.697094
-0.653006
-0.589977
-0.610216
-0.714905
-0.774093
-0.778349
-0.775542
-0.773415
-0.771703
-0.224951
-0.224362
-0.223467
-0.222662
-0.222617
-0.223832
-0.227346
-0.235363
-0.252281
-0.286361
-0.29838
-0.257468
-0.277371
-0.356862
-0.445958
-0.484876
-0.496679
-0.501607
-0.504693
-0.505274
-0.138601
-0.13777
-0.13645
-0.134675
-0.132284
-0.128684
-0.123025
-0.113715
-0.0974462
-0.0663988
-0.0384192
-0.0491565
-0.119591
-0.19796
-0.251261
-0.278392
-0.289176
-0.295966
-0.300414
-0.301812
-0.0779388
-0.0771502
-0.0759303
-0.0742257
-0.071517
-0.0668764
-0.0591091
-0.0463195
-0.0257836
0.00373301
0.0229164
0.00297939
-0.051253
-0.102485
-0.135981
-0.152071
-0.160384
-0.165449
-0.16894
-0.170158
-0.0390715
-0.03846
-0.0375536
-0.0363709
-0.0343248
-0.0305279
-0.024013
-0.0135185
0.0020982
0.0211582
0.0290504
0.0119268
-0.0214998
-0.0518241
-0.071548
-0.0818518
-0.0868592
-0.0898447
-0.0919441
-0.0927025
-0.0165138
-0.0161033
-0.0155482
-0.0149632
-0.0138142
-0.0114038
-0.00709121
-0.000221381
0.00942641
0.0197138
0.0215121
0.0095853
-0.0092835
-0.0259252
-0.0367849
-0.0424282
-0.0450361
-0.0465601
-0.0476611
-0.0480694
-0.00503031
-0.00479259
-0.00454064
-0.00444056
-0.00404414
-0.00289959
-0.000674021
0.00288039
0.0076771
0.0122725
0.0120381
0.00545777
-0.00359997
-0.0113378
-0.0163314
-0.0188724
-0.0200246
-0.0206618
-0.0211478
-0.0213369
-0.000397521
-0.00035255
-0.000192427
-2.35435e-05
8.94298e-05
0.000208932
0.000453606
0.000900531
0.00156717
0.00232654
0.00268041
0.0019267
0.000314803
-0.00148792
-0.00289189
-0.00366703
-0.00370805
-0.00343364
-0.00348205
-0.00360226
-0.485404
-0.273625
-0.0754798
0.09051
0.226453
0.336918
0.430865
0.50749
0.52934
0.525573
-0.153733
-0.0159406
0.113132
0.225986
0.322237
0.402882
0.467092
0.511084
0.53472
0.550847
0.0722123
0.162968
0.253165
0.33313
0.401894
0.459225
0.504491
0.53868
0.563537
0.582674
0.234857
0.298776
0.363736
0.422276
0.472939
0.515889
0.551615
0.581017
0.603117
0.622105
0.361774
0.409904
0.458164
0.50272
0.542278
0.577
0.607076
0.632316
0.651443
0.669631
0.468255
0.506414
0.544307
0.580701
0.614053
0.644062
0.670415
0.692409
0.708943
0.726533
0.560656
0.594557
0.628568
0.661357
0.691789
0.719349
0.743436
0.763116
0.777548
0.794668
0.650447
0.684129
0.717719
0.749956
0.779635
0.806186
0.828944
0.846964
0.85971
0.87634
0.746645
0.783743
0.819214
0.852299
0.882043
0.907894
0.929435
0.946063
0.957909
0.974144
0.860786
0.901773
0.939246
0.972586
1.00144
1.02577
1.04568
1.06118
1.07323
1.08938
1.00273
1.04408
1.07966
1.10954
1.13498
1.1568
1.17549
1.19112
1.20432
1.22034
1.17482
1.20739
1.23445
1.25696
1.27721
1.29606
1.31389
1.33072
1.3457
1.36153
1.36151
1.37885
1.39608
1.41287
1.42905
1.44385
1.4578
1.4723
1.48758
1.50502
1.54491
1.55486
1.56807
1.57906
1.58849
1.59818
1.60883
1.61908
1.62845
1.65386
1.76246
1.75671
1.74371
1.72946
1.7232
1.72894
1.74707
1.77559
1.80939
1.8457
2.06568
1.92983
1.85041
1.80796
1.79059
1.7946
1.82213
1.88005
1.98771
2.16593
0.344933
0.338633
0.330897
0.319777
0.306202
0.293544
0.283125
0.275071
0.269288
0.265863
0.265358
0.267997
0.273063
0.280296
0.289749
0.301505
0.315011
0.327902
0.33687
0.344394
0.25405
0.259976
0.268047
0.274173
0.277234
0.276713
0.27361
0.269577
0.265923
0.263526
0.263225
0.265291
0.268872
0.273176
0.277169
0.279328
0.278194
0.273514
0.266427
0.258573
0.247337
0.249709
0.252981
0.255761
0.258216
0.260403
0.261572
0.261394
0.260359
0.259391
0.25942
0.26065
0.262284
0.263359
0.263142
0.261568
0.259324
0.256893
0.253862
0.250825
0.242585
0.243673
0.245598
0.247949
0.24983
0.25123
0.252433
0.253381
0.253885
0.254108
0.254448
0.254978
0.255244
0.254947
0.254164
0.253111
0.251673
0.249614
0.247442
0.245945
0.237629
0.238259
0.239403
0.241189
0.243058
0.244661
0.245886
0.246886
0.247777
0.248498
0.24904
0.249307
0.249191
0.248771
0.248064
0.246931
0.245359
0.243623
0.242201
0.241379
0.232809
0.233242
0.234051
0.235397
0.236961
0.238549
0.240021
0.24126
0.242317
0.243256
0.24394
0.244181
0.244033
0.243532
0.242632
0.241419
0.240073
0.238766
0.237757
0.237205
0.228141
0.228457
0.229097
0.230248
0.231637
0.233123
0.234666
0.236171
0.237495
0.238606
0.239428
0.239769
0.239588
0.23893
0.237957
0.236847
0.235714
0.234622
0.23382
0.233413
0.223654
0.22389
0.22442
0.225446
0.226759
0.228189
0.229707
0.231266
0.232764
0.234084
0.23509
0.235543
0.235392
0.234803
0.233951
0.232982
0.231973
0.231028
0.230372
0.23006
0.219301
0.219472
0.219909
0.22084
0.222087
0.223443
0.224855
0.226364
0.22798
0.229562
0.230798
0.231365
0.231326
0.23094
0.230349
0.229594
0.228729
0.227916
0.227382
0.22715
0.215106
0.215228
0.215596
0.216458
0.217673
0.219042
0.220532
0.222099
0.223697
0.225335
0.22681
0.227734
0.228081
0.227955
0.227483
0.226826
0.226083
0.225383
0.224952
0.22478
0.211046
0.211119
0.211432
0.212278
0.213521
0.214926
0.216474
0.218205
0.220106
0.222054
0.223853
0.225076
0.225587
0.225591
0.22528
0.224768
0.224117
0.223487
0.223131
0.223018
0.207255
0.207287
0.207533
0.208269
0.209395
0.210709
0.212174
0.213842
0.215788
0.217999
0.220205
0.221863
0.222836
0.223323
0.223415
0.223211
0.222828
0.222406
0.222182
0.222123
0.203598
0.203604
0.203796
0.204412
0.205433
0.206718
0.208265
0.210134
0.212346
0.214904
0.217598
0.219806
0.221222
0.222007
0.222377
0.222474
0.222383
0.222213
0.222133
0.222106
0.199663
0.19967
0.199827
0.200336
0.201247
0.202476
0.204023
0.206014
0.208527
0.211596
0.214939
0.217766
0.219744
0.221052
0.221837
0.222332
0.222579
0.222684
0.222733
0.222722
0.195035
0.195034
0.195193
0.195662
0.196536
0.197795
0.199481
0.20173
0.204633
0.208277
0.212407
0.216074
0.218733
0.220598
0.221886
0.222739
0.223296
0.223635
0.223775
0.223771
0.189464
0.189461
0.189647
0.190167
0.191118
0.192527
0.194478
0.19714
0.200671
0.205159
0.210295
0.214897
0.218296
0.220738
0.222466
0.223688
0.224539
0.225056
0.225251
0.225251
0.182727
0.182716
0.182934
0.18357
0.184688
0.186351
0.188704
0.191934
0.196251
0.201776
0.208161
0.213937
0.218266
0.221393
0.223604
0.225223
0.226377
0.227041
0.227287
0.227298
0.174642
0.174618
0.174874
0.175671
0.177083
0.179171
0.182106
0.186152
0.191526
0.198408
0.206341
0.213529
0.218896
0.222804
0.225635
0.227678
0.229061
0.22985
0.230154
0.230178
0.165014
0.164972
0.165286
0.166282
0.168078
0.170732
0.174455
0.179536
0.186263
0.194835
0.204688
0.213601
0.220266
0.22513
0.22863
0.23113
0.232795
0.233751
0.234141
0.234181
0.153522
0.153464
0.15386
0.155091
0.157409
0.160762
0.165513
0.171941
0.180406
0.19111
0.20332
0.214302
0.222518
0.228508
0.232814
0.23586
0.237888
0.239064
0.239559
0.23961
0.139578
0.139509
0.140038
0.141619
0.144489
0.148879
0.154936
0.163128
0.173824
0.187203
0.202295
0.215754
0.225786
0.23311
0.238374
0.24208
0.244563
0.246025
0.246636
0.246694
0.122185
0.122111
0.122864
0.124965
0.12866
0.134318
0.142214
0.152791
0.166405
0.183154
0.201736
0.218112
0.230256
0.239116
0.245489
0.24999
0.253035
0.254831
0.255563
0.255626
0.0999003
0.0998397
0.10097
0.103854
0.108861
0.116428
0.126908
0.140733
0.158156
0.179085
0.201805
0.221537
0.236082
0.246692
0.25435
0.259793
0.263513
0.265708
0.266581
0.266642
0.0703537
0.0703611
0.0721775
0.0764576
0.0836601
0.0943001
0.108623
0.126927
0.149237
0.175219
0.202712
0.226199
0.243408
0.255979
0.265111
0.271667
0.276186
0.278834
0.27986
0.279914
0.0293493
0.029595
0.0329038
0.0401318
0.0514692
0.0672146
0.0872615
0.111605
0.139998
0.171887
0.20469
0.232239
0.252309
0.267018
0.277807
0.285672
0.291164
0.294343
0.295509
0.295542
-0.0307633
-0.0292438
-0.0213236
-0.00758779
0.011474
0.0353507
0.0634338
0.0954406
0.131005
0.169469
0.207942
0.239717
0.262747
0.279689
0.292272
0.301589
0.308205
0.312025
0.313356
0.313377
-0.103369
-0.100293
-0.0849488
-0.0610218
-0.0315431
0.00186558
0.0387229
0.0789479
0.12225
0.168067
0.213274
0.250484
0.277639
0.297896
0.313237
0.324887
0.333326
0.33823
0.339826
0.340036
-0.177313
-0.169464
-0.146603
-0.112872
-0.0735386
-0.0308634
0.0147412
0.0632238
0.114333
0.167564
0.219613
0.262378
0.293713
0.317352
0.335547
0.349691
0.360034
0.365743
0.368098
0.368702
-0.236107
-0.226774
-0.199129
-0.158603
-0.111691
-0.0612158
-0.00778167
0.048346
0.106819
0.167085
0.225503
0.273259
0.308205
0.334559
0.354891
0.370625
0.382209
0.389067
0.392235
0.393006
-0.284058
-0.27406
-0.24303
-0.19758
-0.144977
-0.0883212
-0.0283713
0.0344136
0.0994928
0.166183
0.230399
0.282545
0.320463
0.348894
0.370714
0.387627
0.400177
0.407854
0.411371
0.412212
-0.324175
-0.313975
-0.280744
-0.231461
-0.174214
-0.112447
-0.0470521
0.0214488
0.0923693
0.164813
0.234222
0.290204
0.330581
0.360613
0.383482
0.401109
0.414191
0.422421
0.426183
0.427065
-0.359127
-0.348848
-0.313945
-0.261581
-0.200514
-0.134415
-0.0642879
0.0092384
0.0853673
0.163016
0.237147
0.296573
0.339072
0.37037
0.393966
0.411972
0.425279
0.433683
0.437508
0.438426
-0.390483
-0.380189
-0.343997
-0.289073
-0.224742
-0.154906
-0.0806171
-0.00257953
0.0783034
0.160771
0.239349
0.302
0.346461
0.378867
0.403001
0.4212
0.434547
0.443024
0.446812
0.447715
-0.419414
-0.409089
-0.371844
-0.314718
-0.247579
-0.174474
-0.0964745
-0.0143355
0.0709342
0.157969
0.24084
0.306687
0.353046
0.386506
0.411165
0.429578
0.442986
0.451485
0.455299
0.45605
-0.446742
-0.436365
-0.398159
-0.339084
-0.269448
-0.193457
-0.112147
-0.0262879
0.0630595
0.154452
0.241536
0.310584
0.358952
0.393595
0.418893
0.437597
0.451092
0.459581
0.463375
0.464045
-0.472938
-0.462482
-0.423376
-0.362547
-0.290701
-0.212136
-0.127844
-0.0385972
0.0545355
0.150079
0.241352
0.313789
0.364404
0.400414
0.426488
0.445593
0.45926
0.467741
0.471472
0.472117
-0.498341
-0.487733
-0.44778
-0.385377
-0.311554
-0.230674
-0.143691
-0.0513603
0.0452859
0.144805
0.240326
0.31637
0.369438
0.407036
0.434066
0.453714
0.467644
0.476158
0.479769
0.480376
-0.52316
-0.512331
-0.471576
-0.407715
-0.332109
-0.249165
-0.159759
-0.0646158
0.0352896
0.138624
0.238375
0.318189
0.374015
0.413474
0.44168
0.462014
0.476279
0.484841
0.488319
0.488855
-0.547431
-0.536359
-0.494838
-0.429633
-0.352432
-0.267641
-0.17606
-0.0783704
0.0245323
0.13145
0.235351
0.319154
0.378079
0.419716
0.449326
0.470491
0.485146
0.493734
0.497052
0.497478
-0.571227
-0.559874
-0.5176
-0.451152
-0.372535
-0.286091
-0.19257
-0.0926095
0.0130064
0.123245
0.231208
0.319153
0.381491
0.425684
0.456979
0.479122
0.494207
0.50279
0.50589
0.506171
-0.594491
-0.582882
-0.539856
-0.472271
-0.392381
-0.304474
-0.209244
-0.107281
0.000752296
0.114039
0.225889
0.318024
0.384094
0.431268
0.464611
0.4879
0.503388
0.511842
0.514654
0.514787
-0.617262
-0.605338
-0.561563
-0.492949
-0.411928
-0.322737
-0.226015
-0.122299
-0.0121417
0.103872
0.219335
0.31563
0.385669
0.436299
0.472193
0.496882
0.512692
0.520785
0.523171
0.523144
-0.639316
-0.627185
-0.582676
-0.513132
-0.431109
-0.340786
-0.242793
-0.13757
-0.0255856
0.0928026
0.211537
0.311858
0.385988
0.440509
0.479645
0.506252
0.522304
0.529579
0.531257
0.531045
-0.660785
-0.648357
-0.603147
-0.532777
-0.449873
-0.358568
-0.259477
-0.153002
-0.0394835
0.080932
0.20252
0.306611
0.384823
0.44353
0.486702
0.516236
0.532841
0.538582
0.538813
0.538288
-0.681488
-0.6688
-0.622955
-0.551827
-0.468131
-0.375993
-0.275976
-0.168469
-0.0537134
0.0683564
0.19235
0.299832
0.381977
0.444916
0.492785
0.526761
0.545386
0.549452
0.546565
0.544798
-0.70151
-0.688542
-0.64204
-0.570222
-0.485842
-0.392986
-0.292201
-0.183877
-0.0681502
0.0552298
0.181138
0.291482
0.377314
0.444213
0.496932
0.536848
0.560316
0.565581
0.559206
0.547875
-0.720734
-0.707576
-0.660488
-0.588127
-0.503223
-0.409842
-0.308504
-0.199654
-0.0832806
0.0409909
0.168287
0.280867
0.370203
0.440739
0.497756
0.544395
0.575577
0.585534
0.579216
0.572933
-0.739123