/*--------------------------------*- C++ -*----------------------------------*\
  =========                 |
  \\      /  F ield         | OpenFOAM: The Open Source CFD Toolbox
   \\    /   O peration     | Website:  https://openfoam.org
    \\  /    A nd           | Version:  6
     \\/     M anipulation  |
\*---------------------------------------------------------------------------*/
FoamFile
{
    version     2.0;
    format      ascii;
    class       surfaceScalarField;
    location    "24";
    object      phi;
}
// * * * * * * * * * * * * * * * * * * * * * * * * * * * * * * * * * * * * * //

dimensions      [0 3 -1 0 0 0 0];

internalField   nonuniform List<scalar> 
17370
(
-0.0899993
0.0898516
0.289159
-0.071458
0.053752
0.364481
-0.0381194
0.027694
0.426594
-0.0196436
0.0146082
0.504287
-0.0107601
0.00826347
0.601899
-0.00625855
0.00487987
0.720436
-0.00371846
0.00288626
0.863739
-0.00215976
0.00161524
1.03599
-0.00111379
0.000712423
1.2429
-0.000316099
-6.48104e-05
1.49157
0.000432577
-0.000835889
1.49159
0.00123496
-0.00173248
1.24319
0.00227098
-0.00298884
1.03636
0.00381315
-0.00496645
0.86406
0.00633775
-0.0083345
0.721054
0.0108238
-0.0146643
0.603055
0.019693
-0.0277363
0.507483
0.0381555
-0.0537818
0.431794
0.071482
-0.0898675
0.365161
0.0900087
0.199002
-0.128131
0.088212
0.0399189
-0.36459
0.353401
-0.0746882
0.0858766
-0.446478
0.454314
-0.0843833
0.0765474
-0.521183
0.529895
-0.0684574
0.0597453
-0.612776
0.621558
-0.0515561
0.0427743
-0.726875
0.734149
-0.0353088
0.0280342
-0.867455
0.872543
-0.0224363
0.0173483
-1.03846
1.04186
-0.0135798
0.0101823
-1.2446
1.247
-0.00761221
0.00521184
-1.49266
1.49461
-0.00328887
0.00134024
-1.49249
1.4942
0.000325308
-0.00203646
-1.24399
1.24588
0.00394242
-0.00583515
-1.0375
1.04003
0.00819651
-0.0107293
-0.866091
0.869822
0.014087
-0.0178182
-0.724391
0.729949
0.0228623
-0.0284208
-0.608706
0.616136
0.0356535
-0.0430833
-0.514906
0.523065
0.0518291
-0.0599886
-0.439868
0.447934
0.06867
-0.076736
-0.375313
0.376771
0.0845432
-0.0860017
-0.257351
0.222529
0.074773
-0.0399516
-0.0685064
0.0586876
0.00981883
-0.0518052
0.0583918
-0.374116
0.367529
-0.0574765
0.0537264
-0.453581
0.457332
-0.04864
0.0446899
-0.527922
0.531872
-0.0408504
0.0372152
-0.621532
0.625167
-0.0331214
0.0290651
-0.735316
0.739372
-0.0245206
0.0203836
-0.874282
0.878419
-0.016077
0.0124258
-1.04342
1.04707
-0.00876701
0.00566446
-1.24852
1.25162
-0.0024214
-0.00061405
-1.49661
1.49965
0.00362208
-0.00683268
-1.4972
1.50041
0.00988414
-0.0134774
-1.25006
1.25365
0.0170649
-0.0212973
-1.04593
1.05016
0.0253617
-0.0298266
-0.8778
0.882265
0.0338153
-0.0378413
-0.73995
0.743976
0.0414181
-0.0451958
-0.626818
0.630596
0.0490938
-0.0541313
-0.534853
0.53989
0.0578303
-0.0586834
-0.457529
0.458382
0.0520251
-0.0318913
-0.335853
0.315719
0.00985465
-0.0684052
0.0585505
-0.0529378
0.0489465
0.0039913
-0.0331285
0.0436656
-0.358091
0.347554
-0.0473635
0.0467375
-0.459265
0.459891
-0.043679
0.0403175
-0.53577
0.539132
-0.0365336
0.0332261
-0.628475
0.631782
-0.0298005
0.0267928
-0.742566
0.745573
-0.0235826
0.020541
-0.881899
0.884941
-0.0171051
0.0138191
-1.05062
1.05391
-0.0101332
0.00668351
-1.25502
1.25847
-0.00280487
-0.000917643
-1.50312
1.50684
0.0046224
-0.00844008
-1.50405
1.50787
0.0118125
-0.015399
-1.25737
1.26096
0.0185854
-0.0219089
-1.05393
1.05726
0.024848
-0.0279483
-0.885764
0.888864
0.0308579
-0.034181
-0.747275
0.750598
0.0374007
-0.0410972
-0.634426
0.638122
0.0443857
-0.0473629
-0.544245
0.547222
0.0479057
-0.0440938
-0.456719
0.452907
0.0334238
-0.0160995
-0.296444
0.279119
0.00403594
-0.0527608
0.0487248
-0.045876
0.0433925
0.00248359
-0.0227184
0.0330638
-0.336879
0.326534
-0.0388695
0.0398935
-0.459553
0.458529
-0.0387256
0.0364746
-0.541803
0.544054
-0.0338452
0.0312754
-0.634788
0.637358
-0.0282394
0.0253703
-0.748591
0.75146
-0.0221565
0.0192284
-0.887884
0.890813
-0.0160095
0.0130005
-1.05701
1.06002
-0.00958554
0.00630378
-1.26184
1.26512
-0.00248748
-0.0012524
-1.51061
1.51435
0.00496731
-0.00870633
-1.51168
1.51541
0.0118893
-0.0151689
-1.26438
1.26766
0.0180409
-0.0211014
-1.06039
1.06345
0.0238871
-0.0269528
-0.891967
0.895033
0.0296951
-0.0325985
-0.753848
0.756752
0.0350524
-0.0375632
-0.641211
0.643722
0.0397159
-0.0407598
-0.54906
0.550104
0.0396107
-0.0336273
-0.447725
0.441742
0.0230911
-0.010063
-0.264057
0.251028
0.0025379
-0.0456054
0.0430675
-0.0413302
0.0395846
0.00174566
-0.0165758
0.0257461
-0.316735
0.307564
-0.0322874
0.0343902
-0.456936
0.454834
-0.033943
0.0322547
-0.546003
0.547691
-0.0300722
0.0280044
-0.639599
0.641667
-0.02565
0.0233726
-0.754027
0.756304
-0.0206833
0.0180661
-0.893622
0.896239
-0.0150238
0.0121354
-1.06296
1.06585
-0.00882662
0.00565185
-1.26834
1.27151
-0.00196049
-0.00165668
-1.51805
1.52167
0.00523836
-0.00882642
-1.51908
1.52267
0.0118674
-0.0150017
-1.27085
1.27398
0.0177148
-0.0205554
-1.06643
1.06927
0.0229895
-0.0254822
-0.897847
0.900339
0.0275887
-0.0297653
-0.759226
0.761402
0.0316834
-0.0337154
-0.645924
0.647955
0.0352649
-0.0355461
-0.55071
0.550991
0.0332545
-0.0264575
-0.435269
0.428472
0.0170347
-0.00716701
-0.239727
0.22986
0.00181179
-0.0409456
0.0391338
-0.0380835
0.0367847
0.00129879
-0.0124981
0.0202972
-0.299066
0.291267
-0.0269467
0.0298485
-0.452285
0.449384
-0.0300911
0.0290281
-0.549091
0.550154
-0.0271124
0.0252615
-0.643631
0.645482
-0.0231385
0.021093
-0.75843
0.760476
-0.0187117
0.0163802
-0.898687
0.901019
-0.0136273
0.010935
-1.06865
1.07135
-0.00778694
0.00475746
-1.27462
1.27765
-0.00126053
-0.00212573
-1.52516
1.52855
0.00547013
-0.00884166
-1.52615
1.52952
0.0116999
-0.0146229
-1.27704
1.27997
0.0170892
-0.0195877
-1.07195
1.07445
0.0216911
-0.0238313
-0.902602
0.904742
0.0256581
-0.0275537
-0.763426
0.765322
0.029211
-0.0309375
-0.649838
0.651565
0.0317988
-0.0313257
-0.550897
0.550424
0.0281606
-0.021171
-0.4215
0.414511
0.0130555
-0.00541972
-0.221195
0.213559
0.00137908
-0.0375607
0.0361817
-0.035663
0.0346943
0.00096872
-0.00950195
0.0159401
-0.284168
0.27773
-0.0221751
0.0254263
-0.446254
0.443003
-0.0261915
0.0255547
-0.550941
0.551577
-0.0239203
0.0222703
-0.647225
0.648875
-0.0203715
0.0185215
-0.76245
0.7643
-0.0163589
0.0142436
-0.903253
0.905368
-0.0117768
0.00936803
-1.07388
1.07629
-0.00654683
0.00377725
-1.28055
1.28332
-0.000504701
-0.00271432
-1.53186
1.53507
0.00587152
-0.00896668
-1.53277
1.53586
0.011507
-0.0140356
-1.28269
1.28522
0.0161567
-0.0182925
-1.07676
1.0789
0.0201077
-0.021963
-0.906755
0.90861
0.023545
-0.0251728
-0.767087
0.768714
0.0265903
-0.0279789
-0.653117
0.654505
0.0283712
-0.0272919
-0.549618
0.548539
0.0236865
-0.0170111
-0.40764
0.400965
0.0101809
-0.00418681
-0.206811
0.200817
0.00106705
-0.0349734
0.0339064
-0.0338533
0.0331308
0.0007225
-0.00717377
0.0123778
-0.271913
0.266709
-0.0179706
0.0213137
-0.43968
0.436337
-0.0224824
0.0220509
-0.552135
0.552567
-0.0206499
0.0191101
-0.650486
0.652026
-0.0173536
0.0157071
-0.766059
0.767706
-0.0138216
0.0119741
-0.907351
0.909198
-0.00978261
0.0076079
-1.07856
1.08074
-0.00503175
0.00248591
-1.28594
1.28849
0.000506552
-0.00342538
-1.53815
1.54106
0.0062725
-0.00904043
-1.53881
1.54158
0.011292
-0.013497
-1.28759
1.28979
0.0153085
-0.017098
-1.08086
1.08265
0.0185887
-0.0201
-0.910279
0.91179
0.021419
-0.0228251
-0.770215
0.771621
0.0240597
-0.0251264
-0.655749
0.656815
0.0252264
-0.023629
-0.5472
0.545602
0.0198215
-0.0136774
-0.394528
0.388384
0.00799734
-0.00327249
-0.195489
0.190764
0.000842778
-0.0329605
0.0321177
-0.0325199
0.0320059
0.000514053
-0.00524838
0.00931192
-0.262093
0.258029
-0.0140862
0.0173108
-0.433022
0.429797
-0.0188059
0.0186994
-0.552843
0.552949
-0.0176722
0.0163449
-0.653482
0.654809
-0.0147855
0.0132878
-0.76931
0.770808
-0.011526
0.00978544
-0.910986
0.912727
-0.00770536
0.00566528
-1.0828
1.08484
-0.00326602
0.000949891
-1.29088
1.2932
0.00173443
-0.00431268
-1.54379
1.54637
0.00679612
-0.00919311
-1.54419
1.54658
0.0111309
-0.0130467
-1.29185
1.29377
0.0146166
-0.0161633
-1.0843
1.08584
0.0174342
-0.0187198
-0.913165
0.91445
0.0198183
-0.0209612
-0.7729
0.774043
0.0219237
-0.022509
-0.65767
0.658255
0.0221926
-0.0201479
-0.543769
0.541724
0.01634
-0.0108904
-0.382581
0.377131
0.00625083
-0.0025489
-0.186591
0.182889
0.000661728
-0.0313791
0.0307173
-0.0315783
0.0312311
0.00034716
-0.0036157
0.00663636
-0.254491
0.25147
-0.0104909
0.013371
-0.426725
0.423845
-0.0149633
0.0150869
-0.552937
0.552814
-0.0143691
0.0132472
-0.656036
0.657158
-0.011878
0.0105308
-0.772273
0.77362
-0.00894735
0.00737507
-0.914406
0.915978
-0.00551651
0.00367672
-1.08675
1.08859
-0.00151936
-0.000594128
-1.29536
1.29748
0.00305841
-0.00543325
-1.5488
1.55118
0.00768982
-0.00979221
-1.54885
1.55095
0.0114345
-0.0129934
-1.29554
1.2971
0.0142315
-0.0154329
-1.08725
1.08845
0.0164225
-0.017403
-0.915596
0.916576
0.0182311
-0.0190551
-0.774991
0.775815
0.0196984
-0.0198301
-0.65861
0.658742
0.0191426
-0.0168358
-0.539541
0.537234
0.0132273
-0.00855312
-0.372065
0.367391
0.00483879
-0.00198318
-0.179629
0.176773
0.000530629
-0.0301323
0.0296017
-0.030974
0.0308044
0.000169566
-0.00200918
0.00400204
-0.248975
0.246982
-0.0068569
0.00923335
-0.421215
0.418838
-0.0107459
0.011005
-0.552627
0.552368
-0.0104512
0.00949797
-0.658221
0.659174
-0.00830612
0.00715521
-0.774941
0.776092
-0.00579625
0.0044325
-0.917418
0.918782
-0.00278706
0.00117225
-1.09022
1.09184
0.000732265
-0.00259239
-1.29941
1.30127
0.00473955
-0.00678092
-1.55339
1.55543
0.00867057
-0.0103662
-1.55289
1.55459
0.011618
-0.0127412
-1.29846
1.29958
0.0135951
-0.0143456
-1.08942
1.09017
0.014926
-0.0155292
-0.917333
0.917936
0.0160776
-0.0166505
-0.776456
0.777029
0.0170197
-0.0168608
-0.658735
0.658576
0.0158809
-0.0134701
-0.534904
0.532493
0.0101945
-0.00634146
-0.363153
0.359299
0.00350682
-0.00143712
-0.174342
0.172273
0.000395942
-0.0291516
0.0287557
-0.030727
0.0307205
6.53872e-06
-0.000664799
0.00177253
-0.245465
0.244357
-0.00369351
0.00554053
-0.416744
0.414897
-0.00691419
0.00729893
-0.552056
0.551671
-0.00695763
0.00626867
-0.660023
0.660712
-0.0053207
0.00435672
-0.777215
0.778179
-0.00315819
0.00189327
-0.920055
0.921319
-0.000341287
-0.00120978
-1.09332
1.09487
0.00303395
-0.00476655
-1.30297
1.30471
0.00671676
-0.00849038
-1.55726
1.55904
0.0100833
-0.0114958
-1.55614
1.55755
0.0125205
-0.0133884
-1.3006
1.30146
0.0139836
-0.0144607
-1.09083
1.0913
0.0147565
-0.0149751
-0.918324
0.918543
0.0151175
-0.0152311
-0.777279
0.777393
0.0151663
-0.0145875
-0.658224
0.657645
0.0132599
-0.0107395
-0.530086
0.527565
0.00778335
-0.00465175
-0.355859
0.352728
0.00251919
-0.00102947
-0.170552
0.169062
0.000286459
-0.028437
0.0281506
-0.0307773
0.030894
-0.000116749
0.000268365
0.000157955
-0.243635
0.243209
-0.00124332
0.00252165
-0.413346
0.412068
-0.00366329
0.00410257
-0.551231
0.550792
-0.00392882
0.00341902
-0.661327
0.661837
-0.00262863
0.00175782
-0.779204
0.780075
-0.000604172
-0.000635799
-0.922513
0.923753
0.00216551
-0.00368001
-1.09628
1.0978
0.00543315
-0.00710138
-1.30633
1.308
0.00895951
-0.010624
-1.56071
1.56238
0.0120713
-0.0132579
-1.55885
1.56004
0.0140151
-0.0145738
-1.30225
1.30281
0.0148813
-0.015061
-1.09167
1.09185
0.0150984
-0.0150278
-0.918581
0.91851
0.014902
-0.0146532
-0.777189
0.77694
0.0141642
-0.0131528
-0.656812
0.655801
0.0115343
-0.00898637
-0.52509
0.522543
0.00635782
-0.00378464
-0.349957
0.347384
0.00207483
-0.000859851
-0.167781
0.166566
0.000238737
-0.0279153
0.0276766
-0.0310441
0.031227
-0.000182886
0.000809319
-0.000839251
-0.243056
0.243086
0.000424892
0.000254813
-0.411124
0.410444
-0.000973478
0.0012561
-0.550398
0.550115
-0.00106725
0.000604953
-0.66236
0.662822
0.000147211
-0.00101122
-0.781057
0.781921
0.00217523
-0.00344184
-0.92492
0.926187
0.00500164
-0.00653344
-1.0992
1.10073
0.00828887
-0.00993134
-1.30957
1.31121
0.0117298
-0.0133065
-1.56394
1.56552
0.0145945
-0.015555
-1.56111
1.56207
0.0160708
-0.016331
-1.30326
1.30352
0.0163388
-0.0161413
-1.09188
1.09169
0.0158554
-0.0154911
-0.918264
0.9179
0.015095
-0.0145659
-0.776422
0.775893
0.0138235
-0.0125734
-0.654662
0.653412
0.0108327
-0.00837808
-0.52012
0.517666
0.00602065
-0.00373308
-0.34506
0.342773
0.00213132
-0.000910483
-0.165415
0.164194
0.000255919
-0.0274565
0.0272006
-0.0314357
0.0316739
-0.000238131
0.00119918
-0.00152311
-0.243248
0.243572
0.00156294
-0.00139955
-0.410087
0.409923
0.00123438
-0.00135261
-0.550009
0.550127
0.00183371
-0.00249047
-0.663431
0.664088
0.00341564
-0.00441852
-0.782941
0.783944
0.00571712
-0.00705222
-0.927367
0.928702
0.00865083
-0.010183
-1.10214
1.10367
0.0119112
-0.0135037
-1.31276
1.31435
0.0151947
-0.0165966
-1.56697
1.56837
0.0176496
-0.0183071
-1.56288
1.56354
0.0185318
-0.018472
-1.30367
1.30361
0.0182288
-0.0177881
-1.09136
1.09092
0.0172535
-0.0165526
-0.917276
0.916575
0.0158826
-0.015108
-0.775143
0.774368
0.0141941
-0.012854
-0.65212
0.65078
0.011139
-0.00879952
-0.515399
0.513059
0.00651856
-0.00418723
-0.340589
0.338258
0.00245478
-0.00107229
-0.162956
0.161573
0.00030717
-0.0269497
0.0266426
-0.0319425
0.0322427
-0.000300176
0.0016337
-0.00220116
-0.243995
0.244562
0.00255594
-0.00270189
-0.409995
0.410141
0.00290934
-0.00335758
-0.550461
0.550909
0.00420769
-0.00522191
-0.66505
0.666065
0.0064652
-0.00774253
-0.785166
0.786443
0.00930784
-0.0108646
-0.929972
0.931529
0.0126495
-0.0143202
-1.10511
1.10678
0.016177
-0.0178151
-1.31584
1.31748
0.0194582
-0.0207095
-1.56961
1.57087
0.0215324
-0.0219041
-1.56403
1.5644
0.021861
-0.0214742
-1.30343
1.30304
0.0209215
-0.0201819
-1.09032
1.08958
0.0194393
-0.0186185
-0.915725
0.914904
0.0178301
-0.0169159
-0.773376
0.772462
0.0159007
-0.0144696
-0.649434
0.648003
0.0126315
-0.010061
-0.510823
0.508252
0.00749272
-0.00483888
-0.335899
0.333246
0.00286231
-0.00127161
-0.160154
0.158564
0.000372597
-0.0263393
0.0259667
-0.0325905
0.0329776
-0.000387048
0.00224901
-0.00313331
-0.245266
0.246151
0.00378419
-0.00407921
-0.410391
0.410686
0.00433732
-0.00483515
-0.551484
0.551982
0.0057443
-0.00687896
-0.667332
0.668466
0.00839792
-0.0100083
-0.787954
0.789565
0.0120144
-0.0139613
-0.93308
0.935027
0.0161772
-0.0182539
-1.10845
1.11053
0.0205262
-0.0225151
-1.31914
1.32113
0.0244677
-0.0259103
-1.5721
1.57354
0.0268435
-0.0272382
-1.56472
1.56511
0.0271482
-0.0266625
-1.30258
1.30209
0.0259468
-0.0249574
-1.08864
1.08765
0.0239697
-0.0228342
-0.913915
0.91278
0.0218056
-0.0207313
-0.771386
0.770312
0.019426
-0.0174557
-0.646433
0.644463
0.0149602
-0.0116417
-0.505547
0.502229
0.00853773
-0.00549596
-0.330528
0.327486
0.0032807
-0.00148483
-0.15695
0.155154
0.000445209
-0.0255999
0.0251547
-0.0334297
0.0339448
-0.000515046
0.00314547
-0.00453119
-0.247274
0.248659
0.00567965
-0.00624322
-0.411093
0.411657
0.00644647
-0.00672157
-0.5525
0.552775
0.00740757
-0.00844613
-0.669765
0.670804
0.0100388
-0.0119173
-0.791348
0.793227
0.0143383
-0.0167924
-0.93697
0.939424
0.019678
-0.0223894
-1.11271
1.11543
0.0253547
-0.02795
-1.32328
1.32587
0.0305251
-0.0324704
-1.57513
1.57708
0.0337952
-0.0344938
-1.56561
1.56631
0.0345486
-0.0341825
-1.30167
1.30131
0.0335106
-0.0325025
-1.0866
1.08559
0.0313317
-0.029861
-0.911315
0.909844
0.0283999
-0.0264779
-0.76877
0.766848
0.0241384
-0.0209009
-0.642038
0.6388
0.017309
-0.0130948
-0.498686
0.494471
0.00951547
-0.00617637
-0.324459
0.32112
0.0037453
-0.00172529
-0.153353
0.151333
0.000525598
-0.024723
0.0241974
-0.0345407
0.0352374
-0.000696612
0.00436383
-0.00644574
-0.250376
0.252458
0.00837929
-0.00951995
-0.412464
0.413604
0.00998369
-0.0101451
-0.55316
0.553322
0.0105683
-0.0114938
-0.672007
0.672933
0.0131301
-0.0152066
-0.795155
0.797232
0.0181255
-0.0211832
-0.941897
0.944955
0.0247917
-0.0281851
-1.11828
1.12167
0.0318745
-0.0350706
-1.32865
1.33184
0.0382238
-0.0405938
-1.57919
1.58156
0.0421746
-0.0429767
-1.56707
1.56787
0.0430549
-0.0425648
-1.3009
1.30041
0.0417103
-0.0403823
-1.08437
1.08304
0.0388635
-0.0368952
-0.907992
0.906024
0.0346594
-0.0315446
-0.764201
0.761086
0.0280991
-0.0236067
-0.634984
0.630491
0.0191778
-0.0144334
-0.490229
0.485484
0.0105952
-0.00701871
-0.317887
0.314311
0.00432847
-0.00201719
-0.149303
0.146991
0.000618906
-0.0236902
0.0230713
-0.0360346
0.0369853
-0.000950665
0.00597171
-0.00895127
-0.25495
0.25793
0.0119412
-0.0139958
-0.415217
0.417272
0.0152495
-0.0158157
-0.553988
0.554555
0.0164015
-0.0174547
-0.674088
0.675141
0.0194253
-0.0220113
-0.799384
0.801971
0.0255315
-0.0291194
-0.947972
0.95156
0.0333023
-0.0371802
-1.12509
1.12897
0.0413243
-0.0448329
-1.33507
1.33858
0.0481739
-0.0505327
-1.58388
1.58624
0.0519089
-0.0523233
-1.56849
1.56891
0.0519414
-0.0508657
-1.29967
1.29859
0.0493976
-0.0473779
-1.08134
1.07932
0.0451852
-0.0423194
-0.903442
0.900576
0.039165
-0.0350617
-0.757209
0.753106
0.0308124
-0.0257429
-0.625712
0.620643
0.0210517
-0.0161638
-0.481007
0.476119
0.0121371
-0.00820826
-0.310878
0.30695
0.00512074
-0.00239444
-0.144654
0.141927
0.000732536
-0.0224811
0.0217485
-0.038046
0.0393517
-0.00130562
0.00808932
-0.0121607
-0.261355
0.265426
0.0163853
-0.0195607
-0.420083
0.423258
0.0219646
-0.0235503
-0.556207
0.557792
0.0251633
-0.0270667
-0.676683
0.678586
0.0299598
-0.0332266
-0.804578
0.807845
0.0373185
-0.0413342
-0.955001
0.959017
0.0458875
-0.0500004
-1.1327
1.13682
0.0542672
-0.0577257
-1.3419
1.34536
0.0607792
-0.062624
-1.58827
1.59011
0.0632819
-0.0627866
-1.56886
1.56837
0.0614917
-0.0593526
-1.29699
1.29485
0.0569102
-0.0538232
-1.0767
1.07361
0.0506491
-0.0467846
-0.896962
0.893098
0.0428844
-0.0382238
-0.748411
0.74375
0.033671
-0.0285059
-0.615536
0.610371
0.0237955
-0.0187638
-0.471599
0.466567
0.0143734
-0.00984829
-0.303146
0.298621
0.00617001
-0.0028746
-0.139162
0.135866
0.000870866
-0.0210505
0.0201796
-0.0407524
0.0425859
-0.0018335
0.0111088
-0.0166058
-0.26996
0.275457
0.0223208
-0.0268083
-0.427545
0.432033
0.0306529
-0.0336023
-0.560957
0.563907
0.0367184
-0.0399887
-0.681249
0.68452
0.0441069
-0.0482522
-0.811074
0.815219
0.0530826
-0.05759
-0.962867
0.967375
0.062482
-0.0667138
-1.14069
1.14492
0.0708769
-0.0739982
-1.34844
1.35156
0.0763771
-0.0772992
-1.59137
1.5923
0.0768234
-0.0749982
-1.56716
1.56534
0.0724678
-0.0690145
-1.29202
1.28857
0.0654255
-0.0611323
-1.06982
1.06552
0.0569653
-0.0522214
-0.888501
0.883757
0.0477522
-0.0427365
-0.73856
0.733545
0.0380352
-0.03278
-0.605178
0.599922
0.0278813
-0.0223912
-0.461821
0.456331
0.0173345
-0.0119209
-0.294216
0.288802
0.00744445
-0.00344372
-0.132534
0.128534
0.00103288
-0.0193425
0.0183096
-0.0444791
0.0471451
-0.00266608
0.0156368
-0.0230491
-0.281429
0.288841
0.0305713
-0.0365352
-0.438165
0.444129
0.0418848
-0.0463161
-0.56874
0.573171
0.0512203
-0.0560891
-0.688596
0.693465
0.0617602
-0.0670652
-0.819406
0.824711
0.0728724
-0.0779927
-0.971752
0.976872
0.0832478
-0.0875191
-1.14884
1.15311
0.091393
-0.0939441
-1.35415
1.3567
0.0953511
-0.095064
-1.59245
1.59216
0.0931947
-0.0898248
-1.56265
1.55928
0.0859232
-0.0810493
-1.28435
1.27947
0.0762433
-0.0707406
-1.0605
1.05499
0.0656294
-0.0600508
-0.878263
0.872685
0.0550177
-0.0495845
-0.727876
0.722443
0.0445958
-0.0389769
-0.594459
0.58884
0.0335521
-0.0271992
-0.451002
0.444649
0.021125
-0.0144932
-0.28349
0.276858
0.00899235
-0.00411569
-0.124515
0.119638
0.001217
-0.0173269
0.0161099
-0.0497868
0.0539094
-0.00412269
0.0229661
-0.0330762
-0.296869
0.306979
0.042949
-0.0507331
-0.452656
0.46044
0.0577964
-0.0639029
-0.579945
0.586052
0.0708594
-0.0774695
-0.699075
0.705685
0.084776
-0.0912479
-0.830015
0.836487
0.0979568
-0.103559
-0.981789
0.987391
0.108966
-0.113038
-1.15694
1.16101
0.116324
-0.118018
-1.35856
1.36025
0.118139
-0.116376
-1.59094
1.58917
0.112902
-0.10784
-1.55494
1.54987
0.102482
-0.0961198
-1.27378
1.26742
0.0900715
-0.0833599
-1.04875
1.04204
0.0772916
-0.0708187
-0.866288
0.859815
0.065115
-0.0590773
-0.716121
0.710083
0.0535571
-0.0472313
-0.582716
0.57639
0.0409026
-0.0332682
-0.438304
0.430669
0.0258228
-0.0176356
-0.270356
0.262169
0.0108455
-0.0048931
-0.114807
0.108854
0.00141832
-0.0149602
0.0135419
-0.0577478
0.0649529
-0.00720507
0.0363264
-0.0506469
-0.318404
0.332724
0.0640911
-0.0740017
-0.472125
0.482035
0.0827053
-0.0905149
-0.595037
0.602846
0.09957
-0.10769
-0.712746
0.720865
0.116168
-0.123287
-0.842715
0.849834
0.130313
-0.135858
-0.992543
0.998088
0.14085
-0.144203
-1.16437
1.16773
0.146383
-0.146754
-1.36099
1.36136
0.145162
-0.141573
-1.58627
1.58268
0.136229
-0.129295
-1.54372
1.53678
0.122367
-0.114454
-1.26018
1.25227
0.10713
-0.0991827
-1.03456
1.02661
0.0921175
-0.084687
-0.852438
0.845008
0.0782112
-0.071407
-0.702875
0.696071
0.0651616
-0.0577941
-0.569178
0.56181
0.0501618
-0.0407841
-0.422824
0.413446
0.0315427
-0.0214113
-0.254107
0.243976
0.0130307
-0.00577561
-0.103141
0.095886
0.00161885
-0.0122331
0.0106143
-0.0718255
0.0755405
-0.00371494
0.0265945
-0.0390871
-0.349986
0.362478
0.0509118
-0.0601281
-0.497135
0.506351
0.0691068
-0.0785565
-0.613869
0.623319
0.0893164
-0.098875
-0.72849
0.738049
0.109448
-0.118755
-0.856148
0.865455
0.12844
-0.136762
-1.00269
1.01101
0.145074
-0.151759
-1.16993
1.17662
0.157761
-0.161732
-1.36044
1.36441
0.163953
-0.163503
-1.5777
1.57725
0.160234
-0.154549
-1.52859
1.5229
0.147796
-0.139189
-1.24339
1.23478
0.130785
-0.120719
-1.01784
1.00778
0.111574
-0.101643
-0.836595
0.826664
0.0928715
-0.0835643
-0.687779
0.678472
0.0747259
-0.0645715
-0.553194
0.54304
0.0541147
-0.0414152
-0.403579
0.39088
0.02974
-0.0181523
-0.233859
0.222271
0.00970043
-0.00362584
-0.0891951
0.0831205
0.000732444
-0.00921784
0.00848539
-0.0828807
0.0803294
0.00255134
0.00489381
-0.0124871
-0.377955
0.385548
0.0211953
-0.0283999
-0.520117
0.527322
0.0365354
-0.0447326
-0.634274
0.642471
0.0544144
-0.0632585
-0.747376
0.75622
0.0726393
-0.0811102
-0.874322
0.882793
0.0899185
-0.0971766
-1.01905
1.02631
0.104617
-0.110243
-1.18311
1.18874
0.115209
-0.118135
-1.36804
1.37097
0.119
-0.117421
-1.57582
1.57424
0.11314
-0.106551
-1.51621
1.50962
0.0989235
-0.0895867
-1.2255
1.21616
0.080639
-0.0704776
-0.997223
0.987061
0.0610152
-0.050623
-0.815459
0.805067
0.0414637
-0.0323069
-0.666185
0.657028
0.0245631
-0.0165594
-0.529818
0.521815
0.00954935
-0.00333141
-0.377402
0.371184
-0.000483914
0.00260363
-0.21024
0.208121
-0.00307257
0.00216433
-0.0763076
0.0772158
-0.000983549
-0.0069423
0.00792585
-0.0832711
0.0802067
0.00306433
-0.00327031
-0.000621806
-0.396514
0.400406
0.00602231
-0.0114862
-0.538292
0.543756
0.0182034
-0.0253079
-0.65177
0.658874
0.033608
-0.0412149
-0.764428
0.772035
0.0494966
-0.0568349
-0.89061
0.897948
0.0642443
-0.0707244
-1.03344
1.03992
0.0771803
-0.0821543
-1.19397
1.19895
0.0861295
-0.0882386
-1.37327
1.37538
0.0886509
-0.0866071
-1.572
1.56996
0.0820406
-0.0753981
-1.50244
1.49579
0.0679816
-0.0592222
-1.20675
1.19799
0.0505487
-0.0410362
-0.976586
0.967074
0.0322479
-0.0226956
-0.794671
0.785119
0.0144994
-0.00623927
-0.646248
0.637988
-0.000445101
0.00678095
-0.511238
0.504902
-0.0108969
0.0129713
-0.362551
0.360476
-0.0126207
0.0103731
-0.203136
0.205384
-0.00745501
0.00401624
-0.0767547
0.0801935
-0.00142919
-0.00777751
0.0092067
-0.0816218
0.0786894
0.00293239
-0.00640544
0.00475889
-0.408365
0.410012
-0.00145828
-0.00275478
-0.552296
0.556509
0.00867307
-0.0146616
-0.666293
0.672281
0.0217801
-0.0283213
-0.779288
0.785829
0.0354011
-0.0416983
-0.904867
0.911164
0.0484548
-0.0539966
-1.04603
1.05157
0.0597178
-0.063722
-1.20361
1.20761
0.0672129
-0.0690187
-1.37736
1.37917
0.06912
-0.066844
-1.56762
1.56535
0.0626575
-0.0566393
-1.48879
1.48277
0.0499548
-0.0418178
-1.18925
1.18111
0.0341647
-0.025825
-0.957529
0.949189
0.0180182
-0.00986879
-0.775692
0.767543
0.00254234
0.0045828
-0.628533
0.621408
-0.0101983
0.014842
-0.496462
0.491819
-0.0172888
0.0176139
-0.354663
0.354338
-0.015672
0.0117983
-0.204331
0.208204
-0.00818894
0.00413126
-0.0819821
0.0860398
-0.00137272
-0.0096413
0.011014
-0.0798913
0.0774119
0.00247935
-0.00707285
0.00676929
-0.416187
0.41649
-0.00425642
0.00101886
-0.563763
0.567
0.0038382
-0.0092453
-0.67863
0.684037
0.015273
-0.0210742
-0.791926
0.797727
0.0272676
-0.0328059
-0.917152
0.92269
0.0386897
-0.0437177
-1.05705
1.06208
0.0486785
-0.0525085
-1.21157
1.2154
0.0556532
-0.0572903
-1.38075
1.38239
0.057387
-0.0553384
-1.56307
1.56102
0.0516081
-0.0460929
-1.47634
1.47082
0.0401941
-0.0332004
-1.1732
1.16621
0.0265821
-0.0192747
-0.940863
0.933556
0.0126882
-0.00572502
-0.759376
0.752413
-0.000280491
0.00618111
-0.613675
0.607775
-0.0106418
0.0141949
-0.485034
0.48148
-0.016045
0.0159561
-0.350371
0.35046
-0.0138477
0.0103312
-0.208173
0.21169
-0.00706546
0.00346801
-0.0878048
0.0914022
-0.00116641
-0.0114582
0.0126246
-0.0784611
0.0763958
0.00206535
-0.0066336
0.00660852
-0.4215
0.421525
-0.00512616
0.00234317
-0.572792
0.575575
0.00225934
-0.00689023
-0.689231
0.693862
0.0121293
-0.0172283
-0.802955
0.808054
0.0228056
-0.0278389
-0.928011
0.933044
0.0333342
-0.0378619
-1.06692
1.07145
0.0424797
-0.0460817
-1.21905
1.22265
0.0490366
-0.0506258
-1.38388
1.38547
0.0508187
-0.0494082
-1.55904
1.55763
0.0461067
-0.0414022
-1.4651
1.4604
0.0362039
-0.0300657
-1.15928
1.15314
0.0245236
-0.0181269
-0.926387
0.919991
0.0124827
-0.00672628
-0.745612
0.739855
0.00175248
0.00307019
-0.60162
0.596797
-0.0066843
0.00963341
-0.476173
0.473224
-0.010878
0.0107533
-0.347314
0.347438
-0.00936418
0.00672753
-0.211244
0.213881
-0.00441362
0.00218699
-0.0922783
0.0945049
-0.000758506
-0.0128408
0.0135993
-0.0774796
0.0759049
0.00157468
-0.00551838
0.0056667
-0.425503
0.425354
-0.00428432
0.00208018
-0.580847
0.583051
0.0021003
-0.00630093
-0.698552
0.702753
0.0113263
-0.0157995
-0.812939
0.817412
0.0207895
-0.025342
-0.938161
0.942714
0.0306595
-0.0348876
-1.07609
1.08032
0.0391386
-0.0427
-1.22617
1.22973
0.0459968
-0.0476504
-1.38717
1.38883
0.0481853
-0.0470315
-1.55596
1.5548
0.0444965
-0.0401628
-1.45564
1.45131
0.0357352
-0.0304649
-1.14703
1.14176
0.02549
-0.020082
-0.913806
0.908398
0.0151552
-0.0100271
-0.734019
0.728891
0.00597097
-0.00174162
-0.591593
0.587364
-0.00148974
0.00392302
-0.468831
0.466398
-0.00520964
0.00549056
-0.344614
0.344333
-0.004811
0.00339461
-0.212716
0.214133
-0.00219107
0.00112804
-0.0944001
0.0954631
-0.000439313
-0.0134764
0.0139158
-0.0770577
0.0758433
0.0012144
-0.004303
0.00449117
-0.428777
0.428589
-0.00309558
0.000895347
-0.587945
0.590146
0.00295799
-0.00675759
-0.707026
0.710825
0.0111405
-0.0155032
-0.821975
0.826337
0.0201898
-0.0249434
-0.947177
0.95193
0.029633
-0.0337651
-1.08472
1.08885
0.0382502
-0.0417046
-1.23325
1.2367
0.0446938
-0.0469127
-1.39048
1.3927
0.0478216
-0.0471689
-1.55379
1.55314
0.0450158
-0.0414569
-1.44722
1.44366
0.0375442
-0.0328032
-1.13627
1.13153
0.0283822
-0.0234694
-0.902924
0.898011
0.0190266
-0.0145396
-0.723826
0.719339
0.0105874
-0.00679276
-0.582734
0.578939
0.00389311
-0.00135745
-0.46251
0.459975
-0.000161207
0.000719733
-0.341397
0.340839
-0.000942651
0.00083444
-0.212207
0.212315
-0.000698419
0.000485123
-0.0944869
0.0947001
-0.000282525
-0.0135281
0.0138107
-0.0771925
0.0761797
0.0010128
-0.002956
0.00289088
-0.431856
0.431921
-0.00165497
-0.000641846
-0.594499
0.596796
0.00418869
-0.00788154
-0.714981
0.718674
0.0121277
-0.0161434
-0.830622
0.834638
0.020998
-0.0250346
-0.956208
0.960244
0.0297581
-0.0337915
-1.0932
1.09723
0.0382516
-0.0419841
-1.2402
1.24394
0.0453748
-0.0475116
-1.39476
1.3969
0.0488986
-0.0487749
-1.55247
1.55235
0.0473544
-0.044176
-1.44
1.43682
0.0407173
-0.036368
-1.12686
1.12251
0.0322969
-0.0276309
-0.892867
0.888201
0.0235307
-0.0191629
-0.714567
0.710199
0.0154038
-0.0116783
-0.574695
0.57097
0.00868292
-0.00622179
-0.456232
0.453771
0.00436351
-0.00319951
-0.337441
0.336277
0.00215777
-0.00125612
-0.209859
0.208958
0.000530719
4.08231e-05
-0.0929161
0.0923445
-0.000186149
-0.0131292
0.0133154
-0.0776134
0.0769051
0.00070822
-0.00179636
0.00127123
-0.435134
0.435659
-0.000158216
-0.00224579
-0.600363
0.602767
0.00548443
-0.00907244
-0.722461
0.726049
0.0131757
-0.0173451
-0.838625
0.842795
0.0216441
-0.0258805
-0.96456
0.968796
0.03062
-0.0345025
-1.10174
1.10562
0.0391261
-0.0428925
-1.24754
1.2513
0.0464315
-0.0491779
-1.39949
1.40224
0.0511509
-0.0514011
-1.55231
1.55256
0.0502621
-0.0477816
-1.43379
1.43131
0.0448028
-0.0407221
-1.11796
1.11388
0.0367962
-0.0325193
-0.883388
0.879111
0.0282143
-0.0240682
-0.705516
0.70137
0.0203414
-0.0165053
-0.566998
0.563162
0.0135221
-0.0106552
-0.449826
0.44696
0.00846354
-0.00650856
-0.332674
0.330719
0.00488275
-0.00313184
-0.205943
0.204192
0.00160884
-0.000430004
-0.090106
0.0889272
-6.06719e-05
-0.0124247
0.0124854
-0.0784223
0.0778629
0.000559354
-0.000837254
0.00033905
-0.43866
0.439158
0.00135356
-0.0035683
-0.606337
0.608552
0.00697058
-0.0104425
-0.729487
0.732959
0.014412
-0.0182172
-0.846734
0.850539
0.02267
-0.0266363
-0.973098
0.977065
0.0313651
-0.035717
-1.10999
1.11435
0.0400438
-0.0441861
-1.25516
1.25931
0.0482102
-0.0511197
-1.40493
1.40784
0.0535488
-0.0546163
-1.55305
1.55412
0.0539662
-0.0520955
-1.42869
1.42682
0.049265
-0.0455035
-1.10974
1.10598
0.0418158
-0.0375112
-0.874308
0.870004
0.0333931
-0.0291662
-0.696655
0.692428
0.0253875
-0.0213619
-0.558953
0.554928
0.0180716
-0.0149294
-0.44301
0.439868
0.0121291
-0.00953207
-0.32668
0.324083
0.00720275
-0.00472351
-0.200529
0.19805
0.00265494
-0.000955835
-0.0863237
0.0846245
0.000119178
-0.011539
0.0114198
-0.0794821
0.079088
0.000394122
0.000203439
-0.000927841
-0.44235
0.443075
0.00248736
-0.00494899
-0.611928
0.61439
0.00826848
-0.0115897
-0.736293
0.739614
0.0156487
-0.0193278
-0.854396
0.858075
0.0236531
-0.0277611
-0.981549
0.985657
0.0324281
-0.0367745
-1.1186
1.12294
0.0413543
-0.0455682
-1.26341
1.26763
0.049829
-0.0535312
-1.41108
1.41478
0.0564674
-0.0578903
-1.55516
1.55658
0.0579532
-0.0563933
-1.42482
1.42326
0.054061
-0.0507217
-1.10208
1.09874
0.0469763
-0.0427195
-0.865313
0.861056
0.0386075
-0.0341713
-0.687742
0.683306
0.0303624
-0.0261175
-0.550793
0.546548
0.0226266
-0.0189589
-0.435645
0.431977
0.0157872
-0.0125278
-0.319544
0.316284
0.0094026
-0.00621363
-0.193765
0.190576
0.00360085
-0.00141462
-0.0816096
0.0794234
0.000267915
-0.010454
0.0101861