/*--------------------------------*- C++ -*----------------------------------*\
  =========                 |
  \\      /  F ield         | OpenFOAM: The Open Source CFD Toolbox
   \\    /   O peration     | Website:  https://openfoam.org
    \\  /    A nd           | Version:  6
     \\/     M anipulation  |
\*---------------------------------------------------------------------------*/
FoamFile
{
    version     2.0;
    format      ascii;
    class       surfaceScalarField;
    location    "40";
    object      phi;
}
// * * * * * * * * * * * * * * * * * * * * * * * * * * * * * * * * * * * * * //

dimensions      [0 3 -1 0 0 0 0];

internalField   nonuniform List<scalar> 
17370
(
-0.0900003
0.0898534
0.289158
-0.0714606
0.0537555
0.364481
-0.0381231
0.0276974
0.426594
-0.0196478
0.0146146
0.504285
-0.0107699
0.0082759
0.601896
-0.00627369
0.00489843
0.720433
-0.00374062
0.00290777
0.863739
-0.00217414
0.00161958
1.036
-0.00110526
0.000694249
1.24291
-0.000288539
-9.92319e-05
1.49158
0.000474015
-0.000878245
1.4916
0.00127339
-0.00176492
1.24318
0.00230003
-0.00301741
1.03636
0.00384153
-0.00499457
0.86406
0.00636606
-0.00836227
0.721054
0.0108489
-0.0146851
0.603051
0.0197112
-0.0277538
0.507482
0.0381738
-0.0537983
0.431793
0.0714951
-0.0898761
0.365156
0.0900132
0.198998
-0.128128
0.088206
0.0399217
-0.364586
0.353396
-0.074695
0.0858851
-0.446475
0.454313
-0.0843928
0.0765546
-0.521183
0.529892
-0.0684655
0.0597563
-0.612779
0.621558
-0.0515687
0.0427896
-0.726887
0.73415
-0.035331
0.0280679
-0.867472
0.872567
-0.0224795
0.0173849
-1.03847
1.0419
-0.0135958
0.0101657
-1.2446
1.24702
-0.00756777
0.00514525
-1.49263
1.4946
-0.00320548
0.0012367
-1.4925
1.49422
0.000447222
-0.00216773
-1.24398
1.24587
0.00407081
-0.00595312
-1.03751
1.04005
0.00831115
-0.0108482
-0.866103
0.869844
0.0142153
-0.017956
-0.724396
0.729948
0.023007
-0.0285585
-0.608704
0.616122
0.0357795
-0.043197
-0.514902
0.52305
0.0519302
-0.0600784
-0.43986
0.447917
0.0687471
-0.0768048
-0.375306
0.37675
0.0846103
-0.0860543
-0.257336
0.222493
0.0748106
-0.0399672
-0.0684969
0.0586692
0.00982778
-0.0518504
0.0584474
-0.37411
0.367513
-0.0575407
0.0537941
-0.453584
0.457331
-0.0487063
0.0447545
-0.52793
0.531882
-0.0409145
0.0372781
-0.621542
0.625178
-0.0331838
0.0291231
-0.735326
0.739387
-0.024576
0.0204384
-0.874315
0.878452
-0.0161148
0.0124374
-1.04346
1.04714
-0.00871975
0.00556326
-1.24854
1.2517
-0.00225058
-0.000817941
-1.49665
1.49972
0.00386374
-0.00712046
-1.49721
1.50047
0.0101977
-0.0138075
-1.25009
1.2537
0.0173791
-0.0215898
-1.04594
1.05015
0.0256349
-0.030095
-0.877779
0.882239
0.0340838
-0.0381003
-0.739921
0.743937
0.0416637
-0.0454239
-0.626798
0.630559
0.049308
-0.0543316
-0.534832
0.539856
0.0580133
-0.0588379
-0.457499
0.458324
0.0521488
-0.0319598
-0.335795
0.315606
0.00987709
-0.0683671
0.05849
-0.0529121
0.0489101
0.004002
-0.0332053
0.043769
-0.358061
0.347497
-0.0474822
0.0468646
-0.459254
0.459872
-0.0438163
0.0404688
-0.535769
0.539116
-0.0367019
0.0334047
-0.628488
0.631785
-0.0299794
0.0269659
-0.742603
0.745617
-0.0237341
0.0206537
-0.881966
0.885046
-0.0171522
0.0137981
-1.05072
1.05407
-0.0100325
0.00651641
-1.25512
1.25864
-0.00257089
-0.00120876
-1.50322
1.507
0.00496141
-0.00882667
-1.50414
1.508
0.0122343
-0.0158519
-1.25745
1.26107
0.0190576
-0.0223949
-1.05396
1.0573
0.0253374
-0.0284354
-0.885742
0.88884
0.0313386
-0.0346496
-0.747211
0.750522
0.0378432
-0.0414988
-0.634362
0.638017
0.0447508
-0.0476931
-0.544181
0.547124
0.0482028
-0.0443395
-0.456628
0.452764
0.0335991
-0.0161863
-0.296273
0.27886
0.00406148
-0.0526807
0.0486192
-0.0458246
0.0433214
0.00250314
-0.0228603
0.0332665
-0.336782
0.326376
-0.0391127
0.0401463
-0.459538
0.458505
-0.0389708
0.0366944
-0.541817
0.544094
-0.0340391
0.0314581
-0.634814
0.637395
-0.0284186
0.0255482
-0.748647
0.751518
-0.0223204
0.0193578
-0.887987
0.890949
-0.0160827
0.0130079
-1.05718
1.06026
-0.00951023
0.00612883
-1.26208
1.26546
-0.00219743
-0.00165843
-1.51086
1.51472
0.00547841
-0.00930398
-1.5119
1.51572
0.0125405
-0.0158437
-1.26452
1.26782
0.018721
-0.0217747
-1.06041
1.06347
0.0245475
-0.0275894
-0.891907
0.894949
0.0303079
-0.033192
-0.753744
0.756628
0.035634
-0.0381421
-0.641107
0.643615
0.0402922
-0.0413059
-0.548952
0.549965
0.0401077
-0.0340243
-0.447518
0.441435
0.0233621
-0.0101926
-0.263685
0.250515
0.00257606
-0.0454689
0.0428929
-0.0412381
0.0394623
0.00177585
-0.0168093
0.0260954
-0.316491
0.307205
-0.0327359
0.0349005
-0.456878
0.454714
-0.0345
0.0328461
-0.546046
0.5477
-0.0306824
0.0286071
-0.639671
0.641746
-0.0262055
0.023844
-0.75414
0.756501
-0.0210323
0.0182858
-0.893821
0.896567
-0.0150966
0.0120697
-1.06327
1.0663
-0.0086229
0.0053327
-1.26875
1.27204
-0.00152749
-0.00218641
-1.51849
1.5222
0.00585488
-0.00952179
-1.51947
1.52313
0.0126252
-0.0158195
-1.27109
1.27428
0.0185919
-0.0214958
-1.06651
1.06941
0.0239937
-0.0265598
-0.897783
0.900349
0.0287221
-0.030923
-0.759096
0.761297
0.0328227
-0.0348005
-0.645795
0.647772
0.0362761
-0.0364597
-0.550513
0.550697
0.0340449
-0.0270607
-0.434822
0.427838
0.0174323
-0.0073517
-0.239042
0.228962
0.00186468
-0.0407306
0.0388659
-0.0379309
0.0365922
0.00133876
-0.0128536
0.0208387
-0.298573
0.290588
-0.0276328
0.0305898
-0.45212
0.449163
-0.0308235
0.0297287
-0.549104
0.550199
-0.0277573
0.0258674
-0.643753
0.645643
-0.023707
0.0216144
-0.758711
0.760804
-0.0191533
0.0167184
-0.899099
0.901534
-0.013827
0.0109943
-1.06919
1.07202
-0.00768256
0.00448816
-1.27526
1.27845
-0.000786211
-0.00280736
-1.52584
1.52943
0.00634276
-0.00987016
-1.52674
1.53027
0.0128306
-0.0158288
-1.27743
1.28043
0.0183479
-0.020885
-1.07215
1.07469
0.0230063
-0.0251497
-0.902658
0.904801
0.0269816
-0.0288842
-0.763308
0.765211
0.0305559
-0.032309
-0.649626
0.651379
0.0331491
-0.0326135
-0.550535
0.549999
0.0293013
-0.0220397
-0.420663
0.413402
0.0136174
-0.00567128
-0.220053
0.212107
0.00144641
-0.0372385
0.0357921
-0.0354214
0.0343868
0.00103462
-0.0100605
0.0168171
-0.283243
0.276486
-0.0233502
0.0267669
-0.445954
0.442537
-0.0275904
0.0269263
-0.551063
0.551727
-0.0252061
0.0234613
-0.647496
0.649241
-0.0214434
0.0194803
-0.762838
0.764801
-0.0171693
0.014896
-0.903827
0.9061
-0.0122168
0.00958911
-1.07468
1.07731
-0.00649732
0.00347105
-1.28152
1.28455
8.32919e-05
-0.00355711
-1.53295
1.53642
0.0069588
-0.0102984
-1.53371
1.53705
0.0130355
-0.015742
-1.28331
1.28602
0.0179826
-0.0202217
-1.07708
1.07932
0.0221013
-0.0240083
-0.906819
0.908726
0.0256381
-0.0273309
-0.766989
0.768681
0.0288054
-0.0302269
-0.652985
0.654406
0.0305741
-0.029336
-0.549127
0.547889
0.0254355
-0.0182931
-0.40618
0.399037
0.0109912
-0.00454714
-0.204985
0.198541
0.00116483
-0.0345045
0.0333397
-0.0334778
0.0326693
0.000808477
-0.00798718
0.0136718
-0.270296
0.264611
-0.0197237
0.0233435
-0.43901
0.435391
-0.0246503
0.0242369
-0.552298
0.552712
-0.0227843
0.0211504
-0.650977
0.652611
-0.0192323
0.0173656
-0.766718
0.768585
-0.0151658
0.013002
-0.90825
0.910414
-0.0104521
0.00795431
-1.07979
1.08228
-0.00502264
0.00215749
-1.28744
1.29031
0.00119734
-0.00446466
-1.53978
1.54304
0.00764483
-0.0107362
-1.54028
1.54337
0.0132459
-0.015704
-1.28862
1.29108
0.0177237
-0.0197281
-1.08146
1.08346
0.0214032
-0.0231023
-0.910528
0.912227
0.0245568
-0.026072
-0.770267
0.771782
0.0273712
-0.0284417
-0.655637
0.656708
0.0284357
-0.0265615
-0.546341
0.544467
0.0223046
-0.0154792
-0.392051
0.385226
0.0091217
-0.00375811
-0.192689
0.187325
0.000966714
-0.032288
0.0313213
-0.0319592
0.0313262
0.000633034
-0.00638247
0.011148
-0.259416
0.254651
-0.0166104
0.020239
-0.431769
0.428141
-0.0218887
0.0217243
-0.553042
0.553206
-0.0205328
0.0189779
-0.654253
0.655808
-0.0171333
0.015324
-0.770419
0.772228
-0.013185
0.0110796
-0.912467
0.914572
-0.00860502
0.00619475
-1.08466
1.08707
-0.0033837
0.00065618
-1.29305
1.29577
0.00251103
-0.00556967
-1.54617
1.54923
0.00852066
-0.0113658
-1.54634
1.54919
0.0136617
-0.0159
-1.29346
1.2957
0.0177338
-0.0195457
-1.0854
1.08721
0.0210476
-0.0225585
-0.913836
0.915347
0.0238463
-0.0251822
-0.773194
0.77453
0.0263335
-0.0270067
-0.657561
0.658234
0.0266445
-0.024246
-0.542352
0.539953
0.019792
-0.0133586
-0.378607
0.372174
0.00776584
-0.00319362
-0.182398
0.177826
0.000825894
-0.0304384
0.0296125
-0.0307748
0.0302846
0.000490225
-0.00508471
0.00905376
-0.250314
0.246345
-0.0138767
0.0173565
-0.424604
0.421124
-0.0191948
0.01923
-0.55332
0.553285
-0.0182429
0.0167362
-0.657401
0.658907
-0.0149307
0.0131579
-0.774003
0.775776
-0.0110696
0.00902518
-0.916552
0.918597
-0.00663065
0.00430473
-1.08934
1.09167
-0.00159724
-0.00101889
-1.29838
1.301
0.00404035
-0.00693058
-1.55216
1.55505
0.00969043
-0.0123203
-1.55192
1.55455
0.0144097
-0.0164128
-1.29786
1.29986
0.0180294
-0.0196074
-1.08894
1.09052
0.0209077
-0.0222175
-0.916779
0.918088
0.0233464
-0.0245313
-0.775774
0.776959
0.0255121
-0.0258451
-0.658706
0.659039
0.025121
-0.0223111
-0.537372
0.534562
0.0177827
-0.0117541
-0.365966
0.359938
0.00677119
-0.00278535
-0.173584
0.169598
0.000724906
-0.0288509
0.028126
-0.0298639
0.0294948
0.000369064
-0.00399006
0.00725377
-0.242758
0.239494
-0.0114222
0.0146457
-0.417801
0.414577
-0.0165549
0.0167632
-0.553233
0.553025
-0.0158745
0.0144581
-0.660444
0.661861
-0.0126663
0.0108981
-0.777517
0.779285
-0.00882043
0.00679753
-0.92051
0.922533
-0.00444091
0.0021648
-1.09386
1.09614
0.000466782
-0.00298548
-1.3035
1.30602
0.00586324
-0.00858199
-1.55782
1.56054
0.0111433
-0.0135474
-1.55707
1.55947
0.0154294
-0.0172143
-1.3018
1.30358
0.0186375
-0.0200103
-1.09203
1.0934
0.0211315
-0.0222592
-0.919328
0.920455
0.0232292
-0.0242359
-0.778048
0.779055
0.0249674
-0.0250236
-0.659234
0.65929
0.0239241
-0.0207651
-0.531601
0.528442
0.0162199
-0.0105598
-0.354123
0.348463
0.00605276
-0.00249823
-0.165862
0.162307
0.000656523
-0.0274493
0.0267928
-0.0291875
0.0289276
0.000259964
-0.00302125
0.00564187
-0.236579
0.233958
-0.00914711
0.0120218
-0.411561
0.408686
-0.0138834
0.0141982
-0.552837
0.552523
-0.013393
0.0120585
-0.663314
0.664649
-0.0102776
0.00849167
-0.781024
0.78281
-0.00638646
0.00434464
-0.924443
0.926484
-0.00198583
-0.000269332
-1.0983
1.10055
0.00284919
-0.00529229
-1.30842
1.31086
0.00805083
-0.0106205
-1.56313
1.5657
0.0129979
-0.0151762
-1.56175
1.56393
0.0168397
-0.018378
-1.30529
1.30683
0.0195894
-0.0207553
-1.09471
1.09587
0.0217016
-0.0226474
-0.921528
0.922474
0.0234534
-0.0242566
-0.779971
0.780774
0.0247201
-0.0245075
-0.659179
0.658967
0.0230302
-0.0195676
-0.525164
0.521701
0.0150355
-0.00968931
-0.343
0.337654
0.00554521
-0.00230233
-0.158944
0.155701
0.000612258
-0.0261747
0.0255625
-0.0287254
0.0285701
0.000155325
-0.00211121
0.00411908
-0.231669
0.229661
-0.00694755
0.00939582
-0.406065
0.403617
-0.011091
0.0114176
-0.552297
0.55197
-0.0106402
0.00933108
-0.66606
0.667369
-0.00752693
0.00570598
-0.784556
0.786377
-0.00356876
0.00150819
-0.928394
0.930455
0.0008582
-0.00310571
-1.10268
1.10493
0.00565427
-0.00804426
-1.31319
1.31558
0.0107005
-0.0131215
-1.56815
1.57057
0.0153067
-0.0172573
-1.56599
1.56794
0.0187008
-0.0199915
-1.30829
1.30958
0.0209703
-0.021877
-1.09696
1.09786
0.0225955
-0.0233055
-0.923339
0.924049
0.0239205
-0.0245483
-0.781496
0.782124
0.0247192
-0.0242148
-0.658534
0.65803
0.0223843
-0.0186657
-0.51816
0.514442
0.0141584
-0.009068
-0.332489
0.327398
0.00519649
-0.00217479
-0.152609
0.149587
0.000585977
-0.0249813
0.0243953
-0.0284716
0.0284226
4.89931e-05
-0.00120752
0.00260747
-0.227977
0.226577
-0.00473788
0.00669628
-0.401461
0.399503
-0.00813295
0.00840527
-0.551797
0.551524
-0.00762643
0.00631765
-0.668789
0.670098
-0.00446075
0.002578
-0.788156
0.790038
-0.000371363
-0.00174556
-0.932377
0.934494
0.00416523
-0.00644615
-1.10706
1.10934
0.00900359
-0.0113598
-1.31786
1.32022
0.0139194
-0.0161859
-1.57284
1.57511
0.0181658
-0.0198624
-1.56974
1.57144
0.021063
-0.0220868
-1.31078
1.31181
0.0228252
-0.0234676
-1.09868
1.09932
0.0239457
-0.0244077
-0.924697
0.925159
0.0248224
-0.0252475
-0.782646
0.783072
0.0251197
-0.0242701
-0.657237
0.656387
0.0220733
-0.0180929
-0.510669
0.506689
0.0135845
-0.0086766
-0.322468
0.31756
0.00499287
-0.00211206
-0.146681
0.1438
0.000578313
-0.023834
0.0232557
-0.0284295
0.0284893
-5.97714e-05
-0.00027152
0.0010489
-0.225499
0.224721
-0.00244223
0.00383507
-0.397879
0.396486
-0.00490577
0.00504826
-0.551471
0.551328
-0.00423928
0.00291082
-0.671543
0.672871
-0.00100434
-0.000961807
-0.791872
0.793838
0.00328326
-0.00550806
-0.936482
0.938707
0.00803326
-0.0103846
-1.11151
1.11386
0.0129796
-0.0153234
-1.32246
1.3248
0.0178161
-0.0199562
-1.57724
1.57938
0.0217473
-0.0231902
-1.57299
1.57443
0.0241298
-0.0248541
-1.31273
1.31346
0.0253146
-0.0256609
-1.09989
1.10023
0.0258688
-0.0260545
-0.925556
0.925742
0.0262418
-0.0263571
-0.783228
0.783343
0.0259567
-0.0246483
-0.6552
0.653892
0.0220495
-0.0178033
-0.502689
0.498443
0.0132724
-0.00848236
-0.312799
0.308009
0.00491232
-0.00210262
-0.141009
0.138199
0.000584807
-0.0226978
0.022113
-0.0286151
0.0288079
-0.000192816
0.000700289
-0.00060407
-0.224264
0.224168
7.90913e-06
0.000737884
-0.395465
0.394719
-0.001323
0.00122256
-0.551499
0.5516
-0.000287644
-0.00114183
-0.6744
0.67583
0.0031591
-0.00524876
-0.79576
0.797849
0.00770707
-0.0100448
-0.940786
0.943123
0.0126742
-0.0151019
-1.11607
1.1185
0.0177549
-0.0201166
-1.32704
1.3294
0.0225619
-0.0245821
-1.58139
1.58341
0.0261634
-0.0273276
-1.57571
1.57688
0.0279769
-0.0283388
-1.31405
1.31441
0.0284666
-0.0284571
-1.10047
1.10046
0.0283617
-0.0282358
-0.925841
0.925715
0.0281514
-0.0279241
-0.783103
0.782875
0.0272106
-0.0253813
-0.652304
0.650474
0.0223894
-0.0178677
-0.494217
0.489695
0.0132631
-0.0085027
-0.30334
0.29858
0.00496359
-0.00215144
-0.13545
0.132638
0.000607714
-0.021544
0.0209363
-0.0290676
0.029399
-0.000331395
0.00180286
-0.00236282
-0.224377
0.224937
0.0026486
-0.00264911
-0.394382
0.394383
0.00267708
-0.0031306
-0.552136
0.552589
0.00425758
-0.00584982
-0.677524
0.679117
0.00804944
-0.0103122
-0.799891
0.802154
0.0129608
-0.0154683
-0.945306
0.947813
0.0182781
-0.0208506
-1.1208
1.12338
0.0236166
-0.0260176
-1.33164
1.33404
0.0284066
-0.0302569
-1.58526
1.58711
0.031587
-0.0324067
-1.57783
1.57865
0.0327284
-0.0327095
-1.31463
1.31461
0.0324794
-0.0320873
-1.1003
1.09991
0.0316479
-0.0311589
-0.925441
0.924952
0.0307607
-0.0301057
-0.782226
0.781571
0.0289825
-0.026605
-0.648461
0.646084
0.0231617
-0.0182984
-0.485207
0.480344
0.0135498
-0.00872838
-0.293919
0.289098
0.00513949
-0.00225454
-0.129863
0.126979
0.000645684
-0.0203411
0.0196954
-0.0298087
0.0303134
-0.000504693
0.0030493
-0.00439652
-0.225905
0.227252
0.0056091
-0.00645209
-0.394801
0.395644
0.00721722
-0.00809446
-0.553573
0.55445
0.00947495
-0.0112596
-0.681013
0.682798
0.0136896
-0.016192
-0.804369
0.806871
0.0191256
-0.0218888
-0.950186
0.952949
0.0249533
-0.0277205
-1.12583
1.1286
0.0306468
-0.0331255
-1.33632
1.3388
0.035509
-0.0372361
-1.58879
1.59052
0.0383202
-0.0387709
-1.57924
1.57969
0.0387114
-0.0382636
-1.31441
1.31396
0.0376292
-0.0368011
-1.09929
1.09847
0.0359772
-0.035068
-0.924232
0.923322
0.034285
-0.0330892
-0.780419
0.779223
0.0314404
-0.0284241
-0.643573
0.640556
0.0244604
-0.0191807
-0.475531
0.470252
0.014195
-0.00919302
-0.284347
0.279345
0.00545431
-0.00241451
-0.124105
0.121065
0.000698041
-0.0190597
0.0183616
-0.0309099
0.0316422
-0.000732252
0.00458461
-0.00682458
-0.229049
0.231289
0.00909157
-0.0108411
-0.396908
0.398658
0.012464
-0.0139124
-0.556019
0.557467
0.0157064
-0.0177988
-0.68496
0.687053
0.0205719
-0.0234037
-0.809329
0.812161
0.0267048
-0.0297908
-0.955581
0.958667
0.0331779
-0.0361912
-1.13126
1.13427
0.0393115
-0.0418787
-1.34115
1.34372
0.0442284
-0.0457802
-1.59205
1.5936
0.0465459
-0.0465641
-1.57986
1.57988
0.0460475
-0.0451048
-1.31324
1.3123
0.0439988
-0.0426639
-1.09734
1.096
0.0413966
-0.0400178
-0.922096
0.920717
0.0387697
-0.0369967
-0.777503
0.77573
0.0347268
-0.0310037
-0.637443
0.63372
0.0264465
-0.0206367
-0.465037
0.459228
0.0152808
-0.00994376
-0.274375
0.269038
0.00593057
-0.00263628
-0.118005
0.114711
0.000763804
-0.0176723
0.0169085
-0.0324628
0.0334855
-0.00102267
0.00646125
-0.00975651
-0.234
0.237296
0.0132519
-0.0160437
-0.40099
0.403782
0.0186281
-0.0207665
-0.559783
0.561921
0.0231364
-0.0256864
-0.689635
0.692185
0.028957
-0.0322301
-0.814957
0.81823
0.0359982
-0.0394838
-0.961624
0.96511
0.0432695
-0.046589
-1.13718
1.14049
0.0499504
-0.0526142
-1.34613
1.34879
0.0548984
-0.0562071
-1.59489
1.5962
0.0565776
-0.0560812
-1.57957
1.57907
0.0550509
-0.053506
-1.31099
1.30945
0.0518737
-0.049971
-1.09428
1.09238
0.0481996
-0.0462844
-0.918924
0.917009
0.0445149
-0.0421229
-0.773428
0.771036
0.0391635
-0.034633
-0.62993
0.6254
0.0293569
-0.022848
-0.453478
0.446969
0.0169436
-0.0110668
-0.263678
0.257802
0.00661402
-0.00293592
-0.111352
0.107674
0.000846079
-0.016151
0.0153049
-0.0345835
0.0359928
-0.00140929
0.00885169
-0.013419
-0.24104
0.245607
0.0183277
-0.0222869
-0.407323
0.411282
0.0259427
-0.0288941
-0.565176
0.568128
0.0320068
-0.0351815
-0.695343
0.698517
0.0391332
-0.0430017
-0.821474
0.825343
0.0473882
-0.0513954
-0.968484
0.972492
0.0556842
-0.0593718
-1.14371
1.1474
0.0630016
-0.0657573
-1.35129
1.35405
0.0679376
-0.0689346
-1.59721
1.5982
0.0688308
-0.0677066
-1.57817
1.57705
0.0660533
-0.0638135
-1.30744
1.3052
0.0615618
-0.0590201
-1.08997
1.08743
0.0567048
-0.0542264
-0.91459
0.912111
0.0518455
-0.048776
-0.76812
0.765051
0.0450365
-0.0395553
-0.62081
0.615328
0.0334061
-0.0259877
-0.440513
0.433094
0.0192999
-0.0126186
-0.251829
0.245148
0.00752821
-0.00332171
-0.103881
0.0996747
0.0009476
-0.0144618
0.0135142
-0.0374493
0.0394116
-0.00196227
0.0121147
-0.018287
-0.250569
0.256741
0.0248681
-0.0301719
-0.416309
0.421612
0.0350759
-0.0390246
-0.572522
0.57647
0.0430798
-0.0470848
-0.702424
0.706429
0.0519492
-0.0565946
-0.829191
0.833837
0.0617602
-0.0663925
-0.976417
0.981049
0.0712447
-0.0752979
-1.15096
1.15502
0.079137
-0.0818816
-1.35656
1.35931
0.0838122
-0.0843401
-1.5988
1.59933
0.0835852
-0.0816582
-1.57542
1.57349
0.0792527
-0.0762056
-1.30242
1.29938
0.0732646
-0.0700215
-1.08425
1.081
0.0671092
-0.0640141
-0.908982
0.905887
0.0609661
-0.057132
-0.761424
0.75759
0.0524871
-0.0459
-0.609804
0.603217
0.0386859
-0.0300809
-0.425716
0.417111
0.0223198
-0.0145447
-0.238302
0.230526
0.00862656
-0.00376967
-0.0953171
0.0904602
0.00106126
-0.0125695
0.0115083
-0.0413661
0.0441844
-0.00281833
0.016876
-0.0251561
-0.263257
0.271537
0.0337812
-0.0407024
-0.428556
0.435477
0.0471188
-0.0523276
-0.582286
0.587495
0.0576722
-0.0628433
-0.711308
0.716479
0.0688483
-0.0744071
-0.838444
0.844003
0.0804276
-0.0856796
-0.98559
0.990842
0.0910078
-0.0952892
-1.15887
1.16315
0.0991265
-0.101629
-1.36169
1.36419
0.103017
-0.1028
-1.59932
1.59911
0.101136
-0.0981856
-1.57095
1.568
0.0948702
-0.0908729
-1.29571
1.29171
0.0871182
-0.0830749
-1.077
1.07296
0.0795327
-0.0758046
-0.901927
0.898198
0.072091
-0.0673396
-0.753052
0.748301
0.0616714
-0.0537589
-0.596567
0.588655
0.0451959
-0.0350363
-0.408511
0.398352
0.0258704
-0.0167183
-0.222552
0.2134
0.00981723
-0.00423491
-0.08545
0.0798676
0.00117377
-0.0104565
0.00928272
-0.046883
0.0511569
-0.00427381
0.0243533
-0.0355339
-0.2802
0.291381
0.0468364
-0.0559373
-0.445107
0.454208
0.0642278
-0.0709583
-0.595099
0.601829
0.0779497
-0.084583
-0.72254
0.729174
0.0918567
-0.0983116
-0.849488
0.855943
0.105045
-0.110698
-0.995899
1.00155
0.116187
-0.120355
-1.16705
1.17122
0.123774
-0.125634
-1.3661
1.36796
0.126029
-0.124651
-1.59811
1.59674
0.121731
-0.117469
-1.56429
1.56003
0.113029
-0.107907
-1.28703
1.28191
0.103242
-0.0983314
-1.06807
1.06316
0.0941229
-0.0896935
-0.893308
0.888879
0.0852936
-0.0794939
-0.742668
0.736868
0.0725724
-0.0629883
-0.580549
0.570965
0.0527074
-0.040596
-0.388153
0.376042
0.0297087
-0.0189474
-0.204105
0.193344
0.010966
-0.00464911
-0.0741956
0.0678787
0.00126197
-0.00813637
0.0068744
-0.0550658
0.0623781
-0.00731221
0.0376459
-0.0531916
-0.303531
0.319077
0.0683061
-0.080296
-0.46748
0.479469
0.0905488
-0.0987178
-0.611473
0.619642
0.107341
-0.115301
-0.736411
0.744372
0.123535
-0.130418
-0.862092
0.868975
0.13726
-0.142727
-1.00674
1.01221
0.147745
-0.151216
-1.1747
1.17818
0.153633
-0.154329
-1.36895
1.36964
0.153248
-0.150321
-1.59433
1.59141
0.14584
-0.14002
-1.55484
1.54902
0.134275
-0.127866
-1.276
1.26959
0.122138
-0.116204
-1.05731
1.05138
0.111169
-0.105859
-0.883009
0.877698
0.10061
-0.0934455
-0.729905
0.72274
0.0848853
-0.0731607
-0.560887
0.549162
0.0607552
-0.0463565
-0.363813
0.349415
0.0335499
-0.0210787
-0.182653
0.170182
0.0119842
-0.00496701
-0.0616627
0.0546455
0.00130236
-0.0056692
0.00436684
-0.0692229
0.0732375
-0.00401454
0.0284306
-0.0419542
-0.33722
0.350743
0.0554508
-0.0663631
-0.496874
0.507787
0.0761595
-0.0853805
-0.631165
0.640386
0.0958506
-0.105277
-0.751767
0.761194
0.115686
-0.124846
-0.874904
0.884065
0.134474
-0.142886
-1.01674
1.02515
0.151475
-0.158575
-1.18055
1.18765
0.165239
-0.170025
-1.36913
1.37392
0.173425
-0.174386
-1.58721
1.58818
0.17281
-0.169183
-1.54205
1.53842
0.164522
-0.158474
-1.26227
1.25622
0.152677
-0.145754
-1.04439
1.03747
0.13964
-0.132786
-0.870633
0.863778
0.125793
-0.1159
-0.713839
0.703947
0.103559
-0.0872001
-0.536622
0.520262
0.0704554
-0.0514951
-0.334688
0.315728
0.0355949
-0.0211524
-0.158107
0.143664
0.0113151
-0.00436171
-0.0482421
0.0412887
0.00100251
-0.00315649
0.00215398
-0.0805545
0.0785027
0.00205179
0.00700344
-0.0155641
-0.367022
0.375583
0.025725
-0.0336011
-0.523239
0.531115
0.041482
-0.0492605
-0.652142
0.659921
0.0587748
-0.067567
-0.770178
0.77897
0.0769029
-0.0853612
-0.892672
0.90113
0.0942568
-0.101712
-1.0333
1.04075
0.109512
-0.115592
-1.19456
1.20064
0.121225
-0.124926
-1.37835
1.38205
0.126869
-0.126474
-1.58817
1.58778
0.12351
-0.118429
-1.5338
1.52872
0.112267
-0.104662
-1.24942
1.24182
0.0974253
-0.0892738
-1.02952
1.02137
0.0817365
-0.0734179
-0.853852
0.845534
0.0658044
-0.057176
-0.690014
0.681385
0.0477028
-0.0362323
-0.501802
0.490331
0.0257338
-0.0159887
-0.296377
0.286632
0.00936773
-0.00460341
-0.129768
0.125004
0.00193243
-0.000495058
-0.0346639
0.0332265
-1.10283e-05
-0.000873602
0.00088463
-0.0817474
0.0788654
0.00288195
-0.00164771
-0.00312497
-0.387077
0.39185
0.00974128
-0.0155884
-0.542771
0.548618
0.0215965
-0.0282972
-0.669957
0.676658
0.0365555
-0.0441833
-0.786829
0.794457
0.0525081
-0.0599232
-0.908845
0.91626
0.0675101
-0.0742489
-1.04807
1.05481
0.0810959
-0.0865163
-1.20631
1.21173
0.0910703
-0.0937838
-1.38506
1.38778
0.0949485
-0.0936653
-1.58654
1.58526
0.0898695
-0.0840212
-1.52278
1.51693
0.0773348
-0.0694436
-1.2338
1.22591
0.0616685
-0.0533233
-1.01251
1.00416
0.0456943
-0.0373045
-0.836089
0.827699
0.0297761
-0.0215783
-0.66861
0.660412
0.0137661
-0.00557159
-0.476739
0.468544
0.000114723
0.00303979
-0.275842
0.272688
-0.00399179
0.00362348
-0.119097
0.119465
-0.00265608
0.0013976
-0.0311875
0.0324459
-0.000506292
-0.000395912
0.000902205
-0.0804692
0.0777021
0.00276704
-0.00519583
0.00287704
-0.400293
0.402612
0.00134564
-0.00579538
-0.557522
0.561972
0.0110057
-0.0166929
-0.68465
0.690337
0.0238333
-0.0304586
-0.801489
0.808114
0.0376708
-0.0441262
-0.923196
0.929651
0.0511144
-0.0569162
-1.06115
1.06695
0.0629884
-0.0673578
-1.21676
1.22113
0.0712997
-0.0735614
-1.39027
1.39253
0.0742171
-0.0725207
-1.5836
1.5819
0.0689677
-0.063634
-1.51072
1.50539
0.0575316
-0.0499667
-1.21802
1.21046
0.0427228
-0.034628
-0.995422
0.987327
0.0266617
-0.0178057
-0.817937
0.809081
0.00935541
-0.00100871
-0.648254
0.639907
-0.00549955
0.0105691
-0.458421
0.453352
-0.0124751
0.0118729
-0.266788
0.26739
-0.0101367
0.00735295
-0.118589
0.121373
-0.00484949
0.00231579
-0.0329149
0.0354486
-0.000739456
-0.000882913
0.00162237
-0.0789893
0.0765799
0.00240944
-0.0062615
0.00544404
-0.409168
0.409985
-0.00226139
-0.00112291
-0.569476
0.57286
0.00541855
-0.010657
-0.697138
0.702376
0.0167547
-0.0226836
-0.814104
0.820033
0.0290535
-0.0347738
-0.935726
0.941446
0.040881
-0.0461404
-1.07265
1.07791
0.0513863
-0.0555023
-1.2254
1.22951
0.0590012
-0.0610278
-1.39451
1.39654
0.0616615
-0.0602448
-1.58027
1.57885
0.0572495
-0.0525025
-1.49978
1.49503
0.0471495
-0.0404487
-1.20317
1.19647
0.0336638
-0.0255517
-0.978775
0.970663
0.0175139
-0.00828908
-0.7988
0.789575
-4.32835e-05
0.00803046
-0.628724
0.620737
-0.0134468
0.016697
-0.445567
0.442316
-0.0171909
0.0150865
-0.2643
0.266404
-0.0121856
0.00868495
-0.122637
0.126138
-0.00558931
0.00260014
-0.0371662
0.0401553
-0.000807449
-0.00198074
0.00278819
-0.0776726
0.075631
0.00204159
-0.00612468
0.00576009
-0.415294
0.415659
-0.00386127
0.00103651
-0.578854
0.581679
0.0032204
-0.00779915
-0.707918
0.712497
0.0131545
-0.0184048
-0.825237
0.830487
0.0241693
-0.0293686
-0.94687
0.952069
0.0350439
-0.039742
-1.08293
1.08762
0.0445671
-0.0483965
-1.23339
1.23722
0.0516693
-0.0536416
-1.39841
1.40039
0.0543922
-0.0536601
-1.57758
1.57684
0.0510929
-0.0470259
-1.49014
1.48607
0.0421019
-0.0357696
-1.18972
1.18339
0.0294501
-0.0214146
-0.962256
0.95422
0.0135634
-0.00488725
-0.779623
0.770947
-0.00273392
0.00969645
-0.611098
0.604136
-0.0141151
0.0167304
-0.436227
0.433612
-0.0167323
0.0146101
-0.264664
0.266786
-0.0118236
0.00837366
-0.12803
0.13148
-0.00530456
0.00247459
-0.0420981
0.044928
-0.000763309
-0.00321349
0.0039768
-0.0767175
0.0751389
0.00157856
-0.00523725
0.00518484
-0.419872
0.419924
-0.00358575
0.00141824
-0.587164
0.589332
0.00259254
-0.00680903
-0.717444
0.72166
0.0119589
-0.0165625
-0.835398
0.840001
0.0217032
-0.0263752
-0.957269
0.961941
0.0318171
-0.0361551
-1.09237
1.09671
0.0405553
-0.0443076
-1.24092
1.24468
0.0479037
-0.049937
-1.40248
1.40451
0.0510237
-0.0504794
-1.57587
1.57533
0.0484882
-0.0444552
-1.48186
1.47783
0.0399127
-0.0339616
-1.17687
1.17092
0.0277589
-0.0203083
-0.946101
0.938651
0.0129664
-0.004927
-0.761717
0.753677
-0.00157384
0.00770939
-0.595828
0.589692
-0.0115619
0.0134584
-0.428607
0.42671
-0.0136319
0.0121616
-0.265597
0.267067
-0.00985964
0.00695698
-0.133118
0.136021
-0.004397
0.00206704
-0.0465289
0.0488589
-0.000650302
-0.00430862
0.00495892
-0.0762721
0.0750473
0.00122477
-0.00414983
0.00422322
-0.423515
0.423441
-0.00272734
0.000679705
-0.594439
0.596487
0.00309642
-0.00692364
-0.726105
0.729932
0.0113935
-0.0158558
-0.844594
0.849056
0.0206429
-0.0254723
-0.966438
0.971268
0.0302179
-0.0344145
-1.10117
1.10537
0.0390161
-0.0426359
-1.24836
1.25198
0.0458976
-0.0484661
-1.40653
1.4091
0.0498507
-0.0496491
-1.57489
1.57469
0.0477812
-0.0441894
-1.47393
1.47034
0.0398467
-0.0341507
-1.16458
1.15889
0.0283906
-0.021531
-0.931057
0.924198
0.0149918
-0.00814386
-0.745617
0.738769
0.0023038
0.00288959
-0.582591
0.577397
-0.00621797
0.00824374
-0.422267
0.420241
-0.00875988
0.00786094
-0.265811
0.26671
-0.00641961
0.00450905
-0.136793
0.138704
-0.00287862
0.0013785
-0.0498564
0.0513565
-0.000458512
-0.00516567
0.00562418
-0.0763645
0.0753448
0.00101972
-0.00284908
0.00267675
-0.426773
0.426945
-0.00135908
-0.000697006
-0.601111
0.603167
0.00411797
-0.00779563
-0.734203
0.73788
0.0120755
-0.0161327
-0.853344
0.857401
0.0210337
-0.0250822
-0.975532
0.97958
0.0298227
-0.0338932
-1.10975
1.11382
0.0384498
-0.0423332
-1.25562
1.2595
0.0459722
-0.0483971
-1.41148
1.41391
0.050137
-0.0502636
-1.5744
1.57453
0.0488967
-0.0454486
-1.46654
1.4631
0.0414155
-0.0360853
-1.15323
1.1479
0.0308244
-0.0245857
-0.917186
0.910948
0.0189101
-0.0128479
-0.73173
0.725668
0.00778367
-0.00312126
-0.571392
0.56673
-0.000119883
0.00212094
-0.415904
0.413903
-0.00306254
0.00303325
-0.264834
0.264863
-0.0026556
0.00186593
-0.138528
0.139318
-0.00119175
0.000610813
-0.051518
0.0520989
-0.000220658
-0.00565076
0.00587142
-0.0767478
0.0760419
0.000705867
-0.00167787
0.00103509
-0.430123
0.430765
6.99376e-05
-0.00222244
-0.606986
0.609138
0.00529636
-0.00882204
-0.741721
0.745246
0.0128966
-0.0170565
-0.861339
0.865499
0.0213334
-0.0255502
-0.983848
0.988065
0.0302813
-0.0341866
-1.11833
1.12224
0.0388993
-0.0428027
-1.26323
1.26713
0.0465503
-0.0495191
-1.41676
1.41973
0.0517095
-0.0520295
-1.57466
1.57498
0.0507674
-0.0478934
-1.45974
1.45686
0.0443328
-0.0393816
-1.14241
1.13746
0.0344889
-0.0290432
-0.904693
0.899247
0.0236349
-0.0183587
-0.719374
0.714098
0.0137799
-0.00932373
-0.561518
0.557061
0.00616498
-0.00364698
-0.409531
0.407013
0.00219344
-0.0012716
-0.262473
0.261551
0.000752303
-0.00037938
-0.138114
0.137741
6.35646e-05
0.000119926
-0.0515418
0.0513583
-0.00011445
-0.00569088
0.00580533
-0.0775465
0.0770022
0.000544328
-0.000677445
8.22179e-05
-0.433717
0.434312
0.0015677
-0.00354234
-0.612887
0.614861
0.00676029
-0.0101232
-0.74867
0.752033
0.0140035
-0.0177405
-0.869345
0.873082
0.0221328
-0.0260496
-0.992293
0.99621
0.0307595
-0.03514
-1.12662
1.131
0.0395486
-0.0438179
-1.27112
1.27539
0.048013
-0.0510688
-1.42261
1.42566
0.0535805
-0.0545797
-1.57547
1.57647
0.0536699
-0.0513299
-1.4538
1.45146
0.0479523
-0.0434963
-1.13252
1.12807
0.0391218
-0.0340369
-0.893442
0.888357
0.0292243
-0.0243102
-0.708324
0.70341
0.0200275
-0.0156435
-0.551992
0.547608
0.0122661
-0.00937236
-0.402731
0.399837
0.00714939
-0.00532926
-0.258441
0.256621
0.00380894
-0.00232684
-0.135646
0.134164
0.00119048
-0.000341878
-0.0500674
0.0492188
-4.03969e-06
-0.00539639
0.00540043
-0.0786289
0.078264
0.000364858
0.000417314
-0.00121784
-0.437476
0.438276
0.00273775
-0.00498834
-0.618345
0.620596
0.00811314
-0.0112871
-0.755297
0.758471
0.0152102
-0.0187769
-0.876805
0.880372
0.0230072
-0.0270558
-1.00061
1.00466
0.0317045
-0.0360839
-1.13526
1.13964
0.0407478
-0.045071
-1.2796
1.28392
0.0494551
-0.0532316
-1.42901
1.43278
0.0561294
-0.0573588
-1.57738
1.5786
0.0570617
-0.0549985
-1.44897
1.44691
0.0521661
-0.0482742
-1.12354
1.11965
0.044047
-0.0393205
-0.883017
0.878291
0.0348371
-0.0300598
-0.698108
0.693331
0.0260076
-0.0215871
-0.542911
0.53849
0.0180508
-0.014537
-0.395329
0.391815
0.0117236
-0.0089704
-0.252694
0.249941
0.00645236
-0.00403534
-0.131138
0.128721
0.0021983
-0.000796109
-0.04735
0.0459478
0.000128253
-0.00489156
0.00476331
-0.0799457
0.0797063
0.00023933