/*--------------------------------*- C++ -*----------------------------------*\
  =========                 |
  \\      /  F ield         | OpenFOAM: The Open Source CFD Toolbox
   \\    /   O peration     | Website:  https://openfoam.org
    \\  /    A nd           | Version:  6
     \\/     M anipulation  |
\*---------------------------------------------------------------------------*/
FoamFile
{
    version     2.0;
    format      ascii;
    class       volVectorField;
    location    "86.6";
    object      U;
}
// * * * * * * * * * * * * * * * * * * * * * * * * * * * * * * * * * * * * * //

dimensions      [0 1 -1 0 0 0 0];

internalField   nonuniform List<vector> 
8800
(
(0.987184 -0.0766654 0)
(1.00189 -0.0551902 0)
(0.999724 -0.028548 0)
(1.00003 -0.0151425 0)
(1.0001 -0.00854286 0)
(1.00012 -0.00504413 0)
(1.00008 -0.00299844 0)
(1.00002 -0.00169826 0)
(0.999993 -0.000792353 0)
(1.00006 -7.72082e-05 0)
(0.999959 0.000654944 0)
(0.999989 0.00142389 0)
(1.00005 0.00243629 0)
(1.00006 0.00400283 0)
(1.00005 0.00663533 0)
(1.00004 0.0113738 0)
(0.999939 0.0208165 0)
(0.999167 0.0386712 0)
(1.0071 0.0724576 0)
(0.771214 0.0366616 0)
(0.363076 -0.0160167 0)
(1.04332 -0.0768132 0)
(1.0846 -0.0704426 0)
(1.0452 -0.0535367 0)
(1.02329 -0.0388869 0)
(1.01203 -0.0262075 0)
(1.00643 -0.0168446 0)
(1.00359 -0.0103109 0)
(1.00215 -0.00564866 0)
(1.00144 -0.00198751 0)
(1.00129 0.00133425 0)
(1.00165 0.00472134 0)
(1.00267 0.00865138 0)
(1.00467 0.013972 0)
(1.0086 0.021679 0)
(1.01656 0.0326459 0)
(1.0325 0.0465576 0)
(1.06267 0.0616733 0)
(1.09187 0.076104 0)
(0.838666 0.0565635 0)
(0.216862 -0.00242907 0)
(1.07591 -0.0501277 0)
(1.09989 -0.0482986 0)
(1.06465 -0.0404479 0)
(1.04004 -0.0335856 0)
(1.02392 -0.0260593 0)
(1.01412 -0.0184708 0)
(1.00856 -0.0116446 0)
(1.00558 -0.00576996 0)
(1.00431 -0.000346773 0)
(1.00464 0.00490196 0)
(1.00659 0.0102957 0)
(1.01062 0.016369 0)
(1.01794 0.0233831 0)
(1.03052 0.0308459 0)
(1.05062 0.037871 0)
(1.08036 0.0445516 0)
(1.10626 0.0513618 0)
(0.942504 0.0416259 0)
(0.216126 0.00246257 0)
(0.175201 -0.000815611 0)
(1.01773 -0.0354719 0)
(1.10522 -0.041359 0)
(1.07828 -0.0360372 0)
(1.05348 -0.030096 0)
(1.03622 -0.0245125 0)
(1.02402 -0.018775 0)
(1.01589 -0.0126846 0)
(1.01101 -0.00648653 0)
(1.00879 -0.000143305 0)
(1.00934 0.00611657 0)
(1.01263 0.0121163 0)
(1.01888 0.0179245 0)
(1.02876 0.0234859 0)
(1.04318 0.0287824 0)
(1.0637 0.0342579 0)
(1.09356 0.0402371 0)
(1.09339 0.0419906 0)
(0.82707 0.022927 0)
(0.17396 0.000854366 0)
(0.154017 -0.000609348 0)
(0.956271 -0.02544 0)
(1.1035 -0.0350959 0)
(1.08771 -0.0326097 0)
(1.06175 -0.0279473 0)
(1.04414 -0.0229121 0)
(1.03167 -0.0176519 0)
(1.02281 -0.0121056 0)
(1.01697 -0.00615513 0)
(1.0141 0.000325158 0)
(1.01475 0.00679236 0)
(1.01875 0.0126772 0)
(1.0258 0.0179374 0)
(1.03607 0.0228376 0)
(1.05062 0.0275899 0)
(1.07185 0.0321094 0)
(1.10005 0.0360347 0)
(1.06801 0.0340776 0)
(0.739374 0.0143335 0)
(0.152145 0.000653349 0)
(0.139667 -0.000465359 0)
(0.899444 -0.0190506 0)
(1.09586 -0.0300311 0)
(1.0958 -0.0291251 0)
(1.0693 -0.0253801 0)
(1.05087 -0.0212252 0)
(1.03793 -0.016434 0)
(1.0288 -0.0111271 0)
(1.02266 -0.00536375 0)
(1.01949 0.000978571 0)
(1.02007 0.00729744 0)
(1.02419 0.0129315 0)
(1.03136 0.0178529 0)
(1.04183 0.0222979 0)
(1.05695 0.026255 0)
(1.07914 0.029702 0)
(1.10222 0.0323143 0)
(1.03583 0.0281862 0)
(0.672685 0.0102387 0)
(0.137021 0.00051611 0)
(0.129157 -0.000359671 0)
(0.84996 -0.0146793 0)
(1.08354 -0.0258798 0)
(1.10151 -0.0261493 0)
(1.07619 -0.0228452 0)
(1.05722 -0.0191807 0)
(1.04382 -0.0149105 0)
(1.03433 -0.00995998 0)
(1.02794 -0.00440142 0)
(1.02457 0.00176688 0)
(1.02499 0.0078758 0)
(1.02906 0.0132332 0)
(1.03633 0.017733 0)
(1.04708 0.0215696 0)
(1.06259 0.0248588 0)
(1.08521 0.0277815 0)
(1.10126 0.0295166 0)
(1.00077 0.0236957 0)
(0.620682 0.00788365 0)
(0.125566 0.000419377 0)
(0.121152 -0.000278624 0)
(0.807962 -0.0115107 0)
(1.06837 -0.0222471 0)
(1.1051 -0.0234803 0)
(1.08249 -0.0205834 0)
(1.0631 -0.0171278 0)
(1.04942 -0.0131582 0)
(1.03965 -0.00853794 0)
(1.03296 -0.00324386 0)
(1.02932 0.00271126 0)
(1.02955 0.00857494 0)
(1.03357 0.0135853 0)
(1.04089 0.0176025 0)
(1.05172 0.0209283 0)
(1.06744 0.0238029 0)
(1.0904 0.0264214 0)
(1.09739 0.027252 0)
(0.965299 0.0201865 0)
(0.578805 0.00636042 0)
(0.116413 0.000349647 0)
(0.114968 -0.000214953 0)
(0.772679 -0.00913562 0)
(1.05174 -0.0190419 0)
(1.10755 -0.0210011 0)
(1.08841 -0.0184673 0)
(1.06864 -0.0151494 0)
(1.05471 -0.0113337 0)
(1.04474 -0.00691473 0)
(1.03779 -0.00185245 0)
(1.03386 0.00385695 0)
(1.03384 0.00942441 0)
(1.03772 0.0140594 0)
(1.04497 0.0176453 0)
(1.05577 0.0205803 0)
(1.07168 0.0231251 0)
(1.09429 0.0253913 0)
(1.09064 0.0253957 0)
(0.930692 0.0174945 0)
(0.544026 0.00532697 0)
(0.108833 0.000299903 0)
(0.110171 -0.000163527 0)
(0.743176 -0.00728663 0)
(1.03474 -0.0161926 0)
(1.10909 -0.0186542 0)
(1.09406 -0.0164174 0)
(1.074 -0.0131831 0)
(1.05981 -0.00944698 0)
(1.04963 -0.00513853 0)
(1.04244 -0.000238615 0)
(1.0382 0.00523865 0)
(1.03786 0.0104967 0)
(1.0415 0.0147707 0)
(1.04858 0.0179705 0)
(1.05932 0.0205575 0)
(1.07542 0.0228077 0)
(1.09686 0.0246876 0)
(1.0814 0.0239045 0)
(0.897497 0.0154706 0)
(0.514281 0.00461432 0)
(0.102341 0.000265457 0)
(0.10648 -0.00012056 0)
(0.718641 -0.00578946 0)
(1.0182 -0.013627 0)
(1.10983 -0.0163758 0)
(1.09963 -0.0144003 0)
(1.07931 -0.0111675 0)
(1.06481 -0.00744926 0)
(1.0544 -0.00318965 0)
(1.04694 0.00160783 0)
(1.04234 0.00689587 0)
(1.0416 0.0118708 0)
(1.04492 0.0158102 0)
(1.05179 0.0186424 0)
(1.06245 0.0208914 0)
(1.07871 0.0228679 0)
(1.09806 0.0243245 0)
(1.07001 0.02278 0)
(0.865808 0.0139991 0)
(0.488102 0.0041325 0)
(0.0965917 0.000243313 0)
(0.103709 -8.30559e-05 0)
(0.698441 -0.00452751 0)
(1.00274 -0.0112764 0)
(1.10994 -0.0141284 0)
(1.10507 -0.0123288 0)
(1.08464 -0.00904739 0)
(1.06982 -0.00528553 0)
(1.05913 -0.00101208 0)
(1.05134 0.0037434 0)
(1.0463 0.00889341 0)
(1.04507 0.013617 0)
(1.048 0.0172382 0)
(1.05461 0.0197058 0)
(1.06515 0.0216244 0)
(1.08153 0.0233325 0)
(1.09818 0.0244258 0)
(1.05673 0.022037 0)
(0.835429 0.0129961 0)
(0.464377 0.00382724 0)
(0.0913211 0.000231089 0)
(0.101741 -4.83022e-05 0)
(0.682115 -0.00341312 0)
(0.988814 -0.00906901 0)
(1.10964 -0.0118237 0)
(1.11036 -0.0101193 0)
(1.09007 -0.00675999 0)
(1.0749 -0.00289269 0)
(1.06388 0.00146197 0)
(1.05568 0.00623894 0)
(1.05011 0.0113059 0)
(1.0483 0.0158142 0)
(1.05076 0.0191321 0)
(1.05704 0.0212332 0)
(1.06744 0.0228172 0)
(1.08383 0.0242353 0)
(1.09735 0.024891 0)
(1.04167 0.0216847 0)
(0.80599 0.0123874 0)
(0.442222 0.00366029 0)
(0.0863204 0.000226688 0)
(0.100518 -1.40224e-05 0)
(0.669372 -0.00237619 0)
(0.976802 -0.00692933 0)
(1.10926 -0.00940413 0)
(1.11565 -0.0077108 0)
(1.0957 -0.00422865 0)
(1.08014 -0.000188365 0)
(1.06872 0.00431829 0)
(1.06003 0.00918397 0)
(1.05381 0.0142214 0)
(1.05129 0.0185434 0)
(1.05318 0.0215677 0)
(1.05908 0.0232937 0)
(1.06929 0.0245381 0)
(1.08567 0.0256641 0)
(1.09523 0.0258123 0)
(1.02487 0.0217262 0)
(0.777025 0.0121244 0)
(0.420917 0.003607 0)
(0.0814233 0.000228782 0)
(0.100032 2.25072e-05 0)
(0.660068 -0.0013606 0)
(0.967022 -0.00478466 0)
(1.10914 -0.00680804 0)
(1.12107 -0.00502821 0)
(1.1016 -0.00136303 0)
(1.08563 0.0029217 0)
(1.07373 0.00765488 0)
(1.06445 0.0126835 0)
(1.05745 0.0177505 0)
(1.05406 0.0219182 0)
(1.05528 0.0246572 0)
(1.06073 0.0260074 0)
(1.07071 0.0268875 0)
(1.08697 0.0276825 0)
(1.09172 0.0272304 0)
(1.00622 0.0222045 0)
(0.748003 0.0121829 0)
(0.399844 0.00365432 0)
(0.0764898 0.000236727 0)
(0.100294 5.47285e-05 0)
(0.65419 -0.000309644 0)
(0.959781 -0.0025594 0)
(1.10961 -0.00396661 0)
(1.12681 -0.00198857 0)
(1.1079 0.00193356 0)
(1.09145 0.00654422 0)
(1.079 0.011588 0)
(1.06899 0.0168578 0)
(1.06104 0.0220193 0)
(1.05663 0.0260634 0)
(1.05703 0.0285158 0)
(1.06195 0.0294889 0)
(1.07165 0.0299819 0)
(1.08742 0.0303971 0)
(1.0865 0.0292332 0)
(0.985513 0.0231546 0)
(0.718325 0.0125484 0)
(0.378439 0.00379279 0)
(0.0713943 0.000249696 0)
(0.101395 0.000108666 0)
(0.651879 0.000822933 0)
(0.955402 -0.000174141 0)
(1.11107 -0.000798482 0)
(1.13306 0.00151133 0)
(1.1147 0.00578663 0)
(1.09774 0.0108185 0)
(1.08462 0.0162671 0)
(1.07372 0.0218651 0)
(1.06463 0.0271811 0)
(1.05899 0.031126 0)
(1.05842 0.0332842 0)
(1.06272 0.0338672 0)
(1.07205 0.0339498 0)
(1.08691 0.0339443 0)
(1.07932 0.0318942 0)
(0.96238 0.0246142 0)
(0.687328 0.0132105 0)
(0.356169 0.00401321 0)
(0.0660268 0.000266758 0)
(0.103478 0.000161319 0)
(0.653375 0.0019408 0)
(0.954245 0.00245718 0)
(1.11397 0.00279718 0)
(1.14003 0.00557728 0)
(1.12217 0.0103353 0)
(1.10462 0.0158975 0)
(1.09068 0.0218608 0)
(1.07872 0.0278824 0)
(1.06825 0.0334187 0)
(1.06114 0.037283 0)
(1.05944 0.0391085 0)
(1.06297 0.039298 0)
(1.07186 0.0389362 0)
(1.08517 0.0384223 0)
(1.06985 0.0353184 0)
(0.936322 0.026629 0)
(0.6543 0.0141605 0)
(0.332537 0.00430643 0)
(0.0602956 0.000286783 0)
(0.10664 0.00022536 0)
(0.659259 0.00342158 0)
(0.956688 0.0053803 0)
(1.11878 0.00696694 0)
(1.14798 0.0103658 0)
(1.13048 0.0157616 0)
(1.11224 0.0219886 0)
(1.09732 0.0285921 0)
(1.08405 0.0351377 0)
(1.07192 0.0409498 0)
(1.06307 0.0447263 0)
(1.06005 0.0461983 0)
(1.06266 0.0459605 0)
(1.07103 0.0451095 0)
(1.08219 0.044022 0)
(1.05765 0.0396238 0)
(0.90667 0.0292307 0)
(0.61846 0.015383 0)
(0.307081 0.00465832 0)
(0.0541298 0.000308209 0)
(0.111168 0.000312464 0)
(0.669894 0.00515622 0)
(0.963366 0.00889801 0)
(1.12601 0.0118728 0)
(1.15723 0.0160891 0)
(1.13987 0.0223149 0)
(1.12078 0.0293614 0)
(1.10465 0.0367409 0)
(1.08978 0.0439074 0)
(1.07563 0.0500285 0)
(1.06474 0.0536831 0)
(1.06015 0.0547584 0)
(1.06175 0.0540484 0)
(1.06947 0.0526538 0)
(1.07788 0.050873 0)
(1.04208 0.0449092 0)
(0.872577 0.0324354 0)
(0.578987 0.0168395 0)
(0.279402 0.00504528 0)
(0.0474924 0.000328565 0)
(0.117421 0.000426402 0)
(0.686037 0.0073184 0)
(0.974903 0.0131445 0)
(1.13623 0.0177357 0)
(1.16814 0.0229963 0)
(1.15061 0.0303057 0)
(1.13046 0.0383546 0)
(1.1128 0.0466568 0)
(1.09593 0.0545244 0)
(1.07937 0.0609571 0)
(1.06608 0.0644162 0)
(1.05961 0.0649816 0)
(1.06015 0.0637632 0)
(1.06724 0.061772 0)
(1.07195 0.0591666 0)
(1.02236 0.0512538 0)
(0.83301 0.0362078 0)
(0.535064 0.0184531 0)
(0.24923 0.00542978 0)
(0.0403967 0.000344575 0)
(0.12592 0.000588554 0)
(0.708695 0.0101453 0)
(0.992155 0.0184238 0)
(1.1501 0.0249077 0)
(1.1812 0.0314877 0)
(1.16304 0.0402005 0)
(1.14148 0.0494616 0)
(1.12186 0.0588228 0)
(1.10251 0.0674209 0)
(1.08305 0.0740713 0)
(1.067 0.0771758 0)
(1.05842 0.077096 0)
(1.05782 0.0753009 0)
(1.0641 0.0726083 0)
(1.06387 0.0689287 0)
(0.997375 0.0586862 0)
(0.786756 0.0404272 0)
(0.485967 0.0200892 0)
(0.216505 0.00575709 0)
(0.0329265 0.000352124 0)
(0.137433 0.00082201 0)
(0.739215 0.0140133 0)
(1.01629 0.0252058 0)
(1.16842 0.0339349 0)
(1.19707 0.0421659 0)
(1.17754 0.0526826 0)
(1.15404 0.0633654 0)
(1.13185 0.0738582 0)
(1.1094 0.0830955 0)
(1.08651 0.0897406 0)
(1.06734 0.0922241 0)
(1.0565 0.0913222 0)
(1.05476 0.0889119 0)
(1.0597 0.0853741 0)
(1.05283 0.0803652 0)
(0.965718 0.0671033 0)
(0.732498 0.0448379 0)
(0.431239 0.0215353 0)
(0.181507 0.00595531 0)
(0.0252554 0.000346727 0)
(0.153258 0.0011903 0)
(0.779619 0.0195684 0)
(1.04897 0.0342924 0)
(1.19215 0.0457637 0)
(1.21662 0.0563467 0)
(1.19447 0.0688021 0)
(1.16821 0.0810367 0)
(1.14263 0.0925611 0)
(1.11636 0.102135 0)
(1.08949 0.108346 0)
(1.06689 0.109797 0)
(1.05369 0.107814 0)
(1.05084 0.10469 0)
(1.05384 0.10038 0)
(1.03775 0.0934411 0)
(0.925553 0.0761933 0)
(0.668992 0.0490103 0)
(0.370969 0.0224996 0)
(0.144983 0.005944 0)
(0.0176565 0.000324441 0)
(0.175619 0.00182689 0)
(0.833125 0.027952 0)
(1.09302 0.0472464 0)
(1.2224 0.0622787 0)
(1.24029 0.0757848 0)
(1.21392 0.0902317 0)
(1.18373 0.103839 0)
(1.15375 0.115905 0)
(1.12292 0.125148 0)
(1.0916 0.130206 0)
(1.0654 0.13005 0)
(1.04981 0.126658 0)
(1.04589 0.122667 0)
(1.04646 0.11734 0)
(1.01704 0.107921 0)
(0.874613 0.0853619 0)
(0.595497 0.0522956 0)
(0.306231 0.0226462 0)
(0.108282 0.00565254 0)
(0.0104987 0.000282268 0)
(0.207959 0.00323133 0)
(0.905563 0.0418736 0)
(1.15163 0.0679354 0)
(1.25953 0.0870237 0)
(1.26791 0.103491 0)
(1.23526 0.119388 0)
(1.19974 0.133415 0)
(1.16439 0.144879 0)
(1.12839 0.152657 0)
(1.09236 0.155561 0)
(1.06254 0.153071 0)
(1.04469 0.147864 0)
(1.03978 0.142862 0)
(1.03677 0.136318 0)
(0.988394 0.123237 0)
(0.81031 0.0935762 0)
(0.512707 0.0539034 0)
(0.239836 0.0217558 0)
(0.0735271 0.00506529 0)
(0.00427213 0.000218009 0)
(0.252079 0.00959881 8.69231e-21)
(1.00079 0.0694436 7.47374e-21)
(1.2224 0.103093 -2.61994e-21)
(1.30055 0.123832 0)
(1.29652 0.143169 -6.77821e-35)
(1.25623 0.158643 9.93638e-22)
(1.21465 0.171268 -1.80688e-21)
(1.17346 0.18068 0)
(1.13202 0.185922 3.7631e-35)
(1.09105 0.185905 -2.28279e-21)
(1.05747 0.180672 0)
(1.03738 0.173627 -2.74295e-21)
(1.03209 0.168045 -8.11837e-21)
(1.0229 0.160736 -3.85188e-21)
(0.946296 0.141518 -1.16247e-21)
(0.725126 0.101298 -6.90999e-22)
(0.41573 0.0536654 0)
(0.17114 0.0201115 4.83584e-22)
(0.0408949 0.00434067 5.72686e-22)
(-0.00108257 0.000108276 1.0469e-20)
(0.282793 0.025188 5.96103e-21)
(1.07983 0.113057 1.15977e-22)
(1.28074 0.153182 6.79461e-22)
(1.33774 0.173866 0)
(1.3218 0.193321 -3.36403e-21)
(1.27447 0.206714 -3.84855e-21)
(1.22695 0.217134 -1.80332e-21)
(1.17997 0.224219 -6.47738e-21)
(1.133 0.226963 0)
(1.08689 0.224229 9.64741e-21)
(1.04933 0.216546 9.61686e-21)
(1.02674 0.207856 2.86307e-21)
(1.01866 0.200972 1.05198e-20)
(0.996519 0.190534 1.48796e-20)
(0.877095 0.161365 0)
(0.606628 0.107485 2.09971e-20)
(0.30297 0.0520497 3.01154e-20)
(0.101556 0.0173991 3.35084e-20)
(0.00971509 0.00245306 -3.84343e-20)
(-0.00600772 -0.000469061 -7.33272e-22)
(0.284516 0.0426593 0)
(1.13062 0.169397 9.29875e-22)
(1.32079 0.214414 0)
(1.36697 0.2348 -4.12475e-21)
(1.34192 0.2513 0)
(1.28868 0.260789 -7.41413e-21)
(1.23561 0.267494 3.64083e-21)
(1.18318 0.271071 -1.28861e-20)
(1.13104 0.270396 -3.26678e-22)
(1.08021 0.264247 4.94281e-21)
(1.03913 0.25366 2.10697e-20)
(1.01442 0.24311 -2.86394e-23)
(1.00307 0.234445 -7.6214e-21)
(0.966747 0.219892 -1.39162e-20)
(0.811184 0.179204 1.65071e-20)
(0.515785 0.111588 -2.92203e-20)
(0.232643 0.0499678 -3.84912e-21)
(0.0625348 0.0145449 0)
(-0.00693985 7.45883e-05 -3.63522e-24)
(-0.0085347 -0.00118392 0)
(0.277909 0.0572902 9.61816e-21)
(1.15863 0.229467 -5.04848e-21)
(1.34605 0.280286 -4.34684e-21)
(1.38662 0.301019 1.87073e-21)
(1.35535 0.31356 -3.15668e-21)
(1.29774 0.31846 1.53693e-20)
(1.24016 0.320698 7.51274e-21)
(1.18309 0.32003 0)
(1.12644 0.315268 -2.44294e-20)
(1.07147 0.30513 0)
(1.02733 0.291218 -1.09584e-20)
(1.0008 0.278531 -1.36549e-20)
(0.986092 0.26766 -8.25122e-21)
(0.936585 0.2479 -1.00607e-20)
(0.754618 0.195544 0)
(0.451314 0.116106 0)
(0.188337 0.0494427 -2.49212e-20)
(0.0374121 0.0119774 4.91908e-21)
(-0.0186132 -0.00264731 -2.89862e-21)
(-0.0104925 -0.00201718 -3.4338e-21)
(0.269827 0.0700743 -1.75284e-21)
(1.17132 0.289395 0)
(1.36031 0.347103 7.73925e-21)
(1.39772 0.368549 4.96229e-21)
(1.36217 0.377137 7.41065e-21)
(1.30141 0.377422 0)
(1.24038 0.375043 7.19633e-21)
(1.17958 0.369872 1.40467e-20)
(1.11916 0.360683 1.23858e-20)
(1.06064 0.346185 2.30445e-20)
(1.0139 0.32862 0)
(0.985783 0.313464 -2.92426e-20)
(0.967905 0.299952 -1.76747e-20)
(0.907405 0.274277 -1.04633e-20)
(0.708091 0.211056 6.42338e-20)
(0.406657 0.121491 7.61993e-21)
(0.159752 0.0497479 3.58887e-20)
(0.0196157 0.00920325 -1.69667e-19)
(-0.0283911 -0.00591087 1.00488e-19)
(-0.0124578 -0.00301744 -1.22661e-19)
(0.261841 0.0814848 1.79726e-21)
(1.17406 0.347203 2.31967e-22)
(1.3665 0.412934 -5.6323e-22)
(1.40194 0.435424 -4.18259e-21)
(1.36336 0.440292 -5.74619e-21)
(1.30025 0.436112 3.59506e-22)
(1.23655 0.429224 -7.78303e-21)
(1.17276 0.419563 1.43526e-20)
(1.10921 0.405866 -2.65296e-20)
(1.04766 0.386827 0)
(0.998656 0.365364 -1.3184e-20)
(0.969161 0.347431 -3.03999e-22)
(0.948439 0.330963 -1.92783e-20)
(0.879462 0.299209 0)
(0.670631 0.225894 -1.38473e-20)
(0.37613 0.127565 -3.27965e-20)
(0.140792 0.0504518 8.7238e-20)
(0.00621496 0.0061081 -8.59035e-20)
(-0.0371604 -0.0097457 1.22117e-19)
(-0.0145443 -0.00421574 -1.28493e-19)
(0.254832 0.0919068 -1.12166e-22)
(1.17044 0.40216 7.16918e-22)
(1.36678 0.476727 -1.60572e-22)
(1.40075 0.500529 1.27181e-21)
(1.35997 0.502015 -2.79393e-21)
(1.29511 0.493609 0)
(1.22928 0.482413 -7.02568e-21)
(1.16302 0.468405 -1.49298e-20)
(1.0968 0.450246 -1.36994e-20)
(1.03261 0.426628 0)
(0.981584 0.401086 -1.35221e-20)
(0.950855 0.380138 -1.6853e-20)
(0.927732 0.360381 2.08068e-20)
(0.852796 0.32241 -1.26561e-20)
(0.640535 0.24004 -5.99497e-20)
(0.355322 0.134075 3.54854e-20)
(0.128348 0.0512493 1.04979e-20)
(-0.00379936 0.00270174 0)
(-0.044954 -0.0140772 -1.17243e-19)
(-0.0167666 -0.00562866 -4.34926e-21)
(0.248992 0.101686 9.73836e-22)
(1.16279 0.454076 -1.36941e-21)
(1.36267 0.537924 -2.1428e-22)
(1.39539 0.5632 5.04204e-21)
(1.35295 0.56167 -9.50829e-21)
(1.28678 0.549359 1.31919e-20)
(1.21923 0.53412 1.50998e-20)
(1.15087 0.515972 -2.37903e-20)
(1.08232 0.493486 8.56672e-21)
(1.01573 0.465319 -5.61226e-20)
(0.962829 0.435621 -1.53325e-20)
(0.930938 0.411404 0)
(0.905782 0.388125 2.25062e-20)
(0.827026 0.34402 2.6971e-20)
(0.615639 0.253643 3.22085e-20)
(0.340886 0.140706 -3.83333e-20)
(0.120444 0.0521089 -1.133e-20)
(-0.0103308 -0.00075264 1.33311e-20)
(-0.050982 -0.0185653 0)
(-0.018867 -0.00717977 -9.39392e-21)
(0.244244 0.110908 -1.53672e-20)
(1.15286 0.503012 8.34161e-21)
(1.35547 0.596431 6.07984e-22)
(1.38687 0.623094 2.46731e-21)
(1.34314 0.618876 -3.79648e-21)
(1.27598 0.602996 -8.428e-22)
(1.20702 0.584044 -1.65598e-20)
(1.13685 0.56202 -8.6193e-21)
(1.06618 0.535404 -2.37647e-20)
(0.997336 0.502784 5.78128e-23)
(0.942638 0.4689 -4.78009e-20)
(0.909544 0.441223 4.06134e-20)
(0.882577 0.414245 -2.46851e-20)
(0.801531 0.364131 2.9628e-20)
(0.593973 0.266641 0)
(0.330087 0.147475 -2.07708e-20)
(0.116055 0.0532616 5.23144e-23)
(-0.0134487 -0.00371315 -5.78901e-20)
(-0.0546652 -0.0226926 -8.54035e-21)
(-0.0205165 -0.00871086 0)
(0.240544 0.119839 0)
(1.14169 0.54921 9.66028e-21)
(1.34606 0.652413 3.71565e-21)
(1.37602 0.680035 -1.64363e-21)
(1.33125 0.673429 -5.42189e-21)
(1.26333 0.654324 0)
(1.1932 0.632002 -7.23679e-21)
(1.12143 0.606409 -2.18188e-22)
(1.04881 0.57591 5.09259e-20)
(0.977789 0.538997 -7.67081e-21)
(0.921241 0.500923 -3.45494e-20)
(0.886866 0.469719 2.10806e-20)
(0.858174 0.438939 -4.28598e-22)
(0.775553 0.383079 3.15739e-20)
(0.57387 0.279065 1.91713e-20)
(0.320986 0.154258 -4.47443e-20)
(0.113812 0.054842 5.29105e-20)
(-0.0139051 -0.00584801 1.56859e-20)
(-0.0559344 -0.0260053 6.48871e-20)
(-0.0214834 -0.0100436 -1.75521e-19)
(0.237805 0.128633 -5.19834e-21)
(1.13008 0.59285 6.863e-21)
(1.33509 0.705431 -4.54546e-21)
(1.36351 0.733987 7.14378e-23)
(1.31786 0.725241 0)
(1.24934 0.70324 -5.3923e-21)
(1.17823 0.677891 2.46601e-20)
(1.10503 0.649061 1.88068e-20)
(1.03056 0.614964 0)
(0.957368 0.573956 -1.10992e-19)
(0.898893 0.531756 9.36634e-20)
(0.863129 0.496979 0)
(0.832745 0.462364 2.88901e-20)
(0.749134 0.400911 -4.03078e-22)
(0.554177 0.290802 -6.18252e-20)
(0.312142 0.161028 2.41491e-20)
(0.112348 0.0568968 0)
(-0.0125279 -0.00703065 8.47417e-20)
(-0.0550756 -0.0283544 0)
(-0.0217264 -0.0110744 -8.31336e-20)
(0.235932 0.137313 6.24373e-21)
(1.11851 0.634168 9.00403e-21)
(1.32302 0.755556 -4.48158e-21)
(1.34987 0.784973 0)
(1.30346 0.77431 -3.68523e-21)
(1.23448 0.749723 0)
(1.16251 0.721672 -2.38813e-20)
(1.088 0.689937 -8.53375e-21)
(1.01175 0.652567 8.9251e-21)
(0.936363 0.607703 -5.49945e-20)
(0.875833 0.561478 9.66716e-21)
(0.838556 0.523097 0)
(0.806501 0.484612 -6.1892e-20)
(0.72219 0.417628 3.65554e-22)
(0.533942 0.301801 0)
(0.302683 0.167519 8.71167e-23)
(0.110739 0.0592111 7.75465e-20)
(-0.010293 -0.00734245 -7.33262e-20)
(-0.0526719 -0.0296748 2.17119e-20)
(-0.0213394 -0.0117474 0)
(0.234578 0.145839 0)
(1.1072 0.673358 1.09012e-20)
(1.31032 0.802907 6.71553e-21)
(1.33552 0.833072 -5.28305e-22)
(1.28844 0.820675 -4.86558e-22)
(1.2191 0.79379 -1.21863e-20)
(1.14639 0.763349 9.12133e-21)
(1.07066 0.729033 -1.02931e-20)
(0.99269 0.688726 4.01643e-20)
(0.91503 0.640303 -8.82696e-20)
(0.852274 0.590178 -8.99822e-22)
(0.813357 0.548142 -2.71005e-20)
(0.779614 0.505678 1.00716e-19)
(0.69471 0.433241 -4.77322e-22)
(0.512987 0.311747 -4.83032e-20)
(0.292138 0.173306 -8.53225e-20)
(0.108412 0.061565 0)
(-0.00797167 -0.0070074 0)
(-0.0495081 -0.0301376 2.34864e-20)
(-0.0204929 -0.0120855 -1.3952e-20)
(0.233893 0.154391 8.81052e-21)
(1.09636 0.710352 -2.47751e-20)
(1.2973 0.84759 -7.20223e-21)
(1.3208 0.878374 0)
(1.27312 0.864403 -3.07997e-22)
(1.2035 0.835484 -1.03279e-20)
(1.13014 0.802947 2.1517e-20)
(1.05329 0.766363 4.00701e-20)
(0.973619 0.723468 5.22162e-20)
(0.893611 0.671822 -7.22963e-20)
(0.828418 0.617954 -8.13206e-20)
(0.787673 0.572183 7.27108e-20)
(0.752238 0.525523 0)
(0.666869 0.447504 -2.21569e-20)
(0.491304 0.320423 -5.22208e-20)
(0.280294 0.178042 -6.15354e-20)
(0.105002 0.0635523 -7.25571e-20)
(-0.00611813 -0.00640363 2.14898e-20)
(-0.0461862 -0.0300558 -1.26652e-20)
(-0.019414 -0.0121819 7.20035e-23)
(0.233455 0.162779 0)
(1.08627 0.745415 0)
(1.28418 0.889715 5.08836e-22)
(1.30594 0.920985 0)
(1.25775 0.905588 -1.12492e-21)
(1.18791 0.874876 6.31394e-21)
(1.114 0.840507 0)
(1.0361 0.801957 4.67463e-21)
(0.954764 0.756819 8.73194e-20)
(0.872321 0.702323 -1.66838e-19)
(0.804443 0.64492 0)
(0.761626 0.595298 -4.711e-20)
(0.724434 0.544051 -5.67306e-22)
(0.638643 0.460078 -3.77746e-22)
(0.468621 0.327392 5.6269e-20)
(0.267544 0.181371 4.38869e-23)
(0.100635 0.0648612 -1.56659e-19)
(-0.00487767 -0.00582006 4.62959e-20)
(-0.0430332 -0.0296754 1.37418e-20)
(-0.018242 -0.0121006 0)
(0.233242 0.170957 -3.54638e-20)
(1.07668 0.778801 -1.67893e-20)
(1.27108 0.929362 -2.14791e-20)
(1.29116 0.961017 2.01555e-20)
(1.24252 0.944309 -5.05291e-21)
(1.17254 0.912035 0)
(1.09814 0.876083 1.27523e-20)
(1.01927 0.835851 -1.05693e-20)
(0.93631 0.788814 8.02693e-22)
(0.85136 0.731865 1.23881e-20)
(0.78052 0.671194 1.06256e-19)
(0.735281 0.617603 -1.65728e-20)
(0.696156 0.561201 -6.27207e-20)
(0.610072 0.470577 -2.59693e-20)
(0.445631 0.332062 3.04655e-20)
(0.254306 0.182899 6.35374e-23)
(0.0958232 0.0652738 4.22755e-20)
(-0.00412474 -0.00537577 -9.98232e-20)
(-0.0402447 -0.0291583 1.18479e-19)
(-0.0171194 -0.0119393 1.74848e-20)
(0.233067 0.178898 1.34875e-20)
(1.06759 0.81058 -9.46292e-21)
(1.25817 0.966658 1.31041e-21)
(1.2766 0.998584 1.31371e-20)
(1.2276 0.980681 2.4619e-21)
(1.15751 0.947037 -1.04779e-20)
(1.08272 0.909728 3.4411e-21)
(1.00295 0.868073 -4.40625e-20)
(0.91842 0.819468 -9.68012e-20)
(0.830904 0.760481 -1.00142e-19)
(0.756817 0.696888 0)
(0.708691 0.639264 -7.33457e-20)
(0.667284 0.576994 9.08389e-20)
(0.580918 0.47862 0)
(0.422453 0.333751 -6.55158e-20)
(0.241339 0.181946 3.87525e-20)
(0.0915927 0.0645025 -4.55722e-20)
(-0.00322245 -0.00493267 -5.38333e-20)
(-0.0379919 -0.028509 -9.55927e-20)
(-0.0162465 -0.0118047 -7.54903e-20)
(0.233208 0.186709 -1.53062e-20)
(1.05887 0.840754 1.01388e-20)
(1.24551 1.00168 2.28234e-20)
(1.26239 1.03378 1.9367e-20)
(1.21309 1.0148 -4.34122e-21)
(1.14296 0.979972 -4.80478e-21)
(1.06785 0.941498 1.17759e-20)
(0.987258 0.898673 -4.52099e-20)
(0.901213 0.848807 -5.76193e-20)
(0.811111 0.788205 1.05449e-19)
(0.733485 0.722108 2.35672e-19)
(0.681916 0.660482 0)
(0.637624 0.591566 0)
(0.550765 0.48395 -2.99918e-20)
(0.398946 0.331576 0)
(0.229374 0.177106 8.33318e-20)
(0.0902335 0.0614128 9.80243e-20)
(0.000274995 -0.00495343 0)
(-0.0355549 -0.0279528 0)
(-0.01606 -0.0120022 8.12942e-20)
(0.233156 0.194072 1.74376e-20)
(1.05054 0.869335 1.3786e-20)
(1.23321 1.03453 1.66144e-20)
(1.2486 1.06674 -1.88156e-20)
(1.19907 1.04678 -6.0827e-21)
(1.12895 1.01092 3.62446e-21)
(1.05359 0.971452 -1.60987e-20)
(0.972277 0.927679 -2.12588e-22)
(0.884796 0.876843 -1.05757e-21)
(0.79211 0.815046 -7.41059e-22)
(0.710699 0.74694 1.21935e-19)
(0.655039 0.681458 0)
(0.607022 0.605206 9.30484e-20)
(0.518994 0.48658 6.45209e-20)
(0.374206 0.324729 1.53763e-19)
(0.218448 0.16584 4.50768e-20)
(0.0942495 0.0513419 -5.28456e-20)
(0.0136287 -0.0117697 -3.11562e-20)
(-0.0239189 -0.0300292 0)
(-0.0148062 -0.0123366 8.76387e-20)
(0.233507 0.201477 -3.95305e-20)
(1.04256 0.896436 0)
(1.22126 1.06529 1.96563e-20)
(1.23526 1.09755 -1.60216e-20)
(1.1856 1.07671 8.73724e-21)
(1.11553 1.03996 -1.49652e-21)
(1.04002 0.999647 3.03336e-20)
(0.958065 0.955126 -3.70763e-21)
(0.869236 0.903583 0)
(0.774014 0.840981 -1.17358e-19)
(0.688629 0.771436 -2.66851e-19)
(0.628192 0.702403 1.10023e-20)
(0.575412 0.618296 1.29694e-19)
(0.485004 0.487 0)
(0.346461 0.313222 1.04371e-19)
(0.205302 0.145426 0)
(0.101239 0.023291 0)
(0.0448882 -0.0462017 -3.36981e-20)
(0.0309984 -0.0477992 0)
(0.0207796 -0.000106938 2.35562e-20)
(0.233481 0.208348 -4.42326e-20)
(1.03491 0.922343 0)
(1.20965 1.09414 3.28986e-20)
(1.22234 1.12646 0)
(1.17267 1.10487 -5.47102e-21)
(1.10265 1.06739 0)
(1.02708 1.02639 1.29432e-21)
(0.944531 0.981344 6.30263e-21)
(0.854414 0.929383 7.34345e-21)
(0.756653 0.866377 -1.29355e-19)
(0.667079 0.796044 8.02658e-21)
(0.601049 0.724001 8.9271e-20)
(0.542199 0.631683 1.27211e-19)
(0.447583 0.485967 1.70756e-20)
(0.313143 0.298387 8.23478e-20)
(0.182971 0.116216 0)
(0.0945491 -0.0264643 1.11551e-19)
(0.0558351 -0.0774358 -6.54981e-20)
(0.0262347 0.0416034 7.6631e-20)
(-0.038781 0.459842 -9.10421e-20)
(0.233451 0.215067 3.66971e-20)
(1.02737 0.946898 5.52954e-20)
(1.1983 1.12142 0)
(1.20969 1.1539 1.00815e-21)
(1.16005 1.13184 1.65008e-20)
(1.09003 1.09388 -4.98167e-21)
(1.01443 1.05247 9.94065e-21)
(0.931248 1.00727 0)
(0.83978 0.955324 4.82584e-20)
(0.739322 0.892516 -6.71034e-21)
(0.645083 0.822224 0)
(0.572191 0.747874 0)
(0.505042 0.646503 1.14819e-19)
(0.403737 0.483728 -5.29451e-20)
(0.270671 0.281914 -8.41443e-20)
(0.145826 0.0811508 0)
(0.0570242 0.00216355 5.68806e-20)
(0.00378463 0.455715 -6.59123e-20)
(0.028937 1.93894 -3.69888e-20)
(0.0551872 2.83063 -4.54345e-20)
(0.233142 0.221268 -2.76725e-20)
(1.01998 0.970279 -7.1182e-20)
(1.18724 1.14713 1.9639e-20)
(1.19732 1.17976 1.59032e-20)
(1.14783 1.15742 0)
(1.07778 1.11917 -5.66959e-21)
(1.0023 1.07759 1.25798e-20)
(0.918425 1.03247 -3.02473e-21)
(0.825635 0.9809 7.28032e-21)
(0.722439 0.91882 1.23888e-19)
(0.62331 0.849382 1.36895e-19)
(0.54264 0.773995 1.01638e-19)
(0.464676 0.663259 1.16539e-19)
(0.354344 0.47986 -1.25852e-19)
(0.224262 0.268077 -1.28206e-19)
(0.0981807 0.141281 0)
(0.0357929 0.905394 0)
(0.0820093 2.59134 3.16483e-20)
(0.0851473 3.21675 0)
(0.0869832 3.39093 8.24552e-20)
(0.235652 0.227109 0)
(1.01308 0.992882 0)
(1.17616 1.17113 0)
(1.18504 1.2039 4.84994e-21)
(1.13566 1.18137 1.51949e-20)
(1.0657 1.1431 -6.75302e-21)
(0.990622 1.10163 7.73369e-21)
(0.905996 1.05681 -2.93431e-21)
(0.811917 1.00593 6.02616e-20)
(0.706003 0.945122 -1.62955e-21)
(0.601866 0.877317 2.7206e-19)
(0.512777 0.802482 -1.18293e-20)
(0.420999 0.683088 1.42759e-20)
(0.300958 0.47291 1.83681e-20)
(0.16636 0.285708 -7.1711e-22)
(0.0829469 1.02602 3.49076e-22)
(0.117395 2.77401 -1.69963e-19)
(0.121892 3.30244 -6.39511e-20)
(0.113715 3.42318 3.37026e-20)
(0.10429 3.44269 -3.80956e-20)
(0.158874 0.172726 1.69513e-20)
(1.00191 1.01746 0)
(1.16484 1.19363 -4.04087e-20)
(1.17327 1.22677 -4.36265e-20)
(1.12399 1.20416 3.63002e-20)
(1.05449 1.16617 8.09092e-21)
(0.979176 1.12464 -7.4981e-21)
(0.893991 1.08035 3.1303e-20)
(0.798706 1.03051 -4.94333e-20)
(0.690245 0.971541 0)
(0.581069 0.906109 1.34733e-19)
(0.483149 0.833157 -8.37624e-20)
(0.377779 0.712823 0)
(0.239387 0.468166 1.79814e-20)
(0.119743 0.724298 4.23186e-20)
(0.132013 2.58277 -4.75717e-20)
(0.178513 3.32731 5.38808e-20)
(0.162563 3.43166 2.89586e-20)
(0.135559 3.45054 3.2764e-20)
(0.117143 3.45941 5.21587e-20)
(0.270114 0.264524 -3.26911e-20)
(0.983797 1.02717 0)
(1.14605 1.21934 4.36717e-20)
(1.15811 1.25793 4.81602e-20)
(1.10606 1.23778 -4.09797e-20)
(1.03595 1.20013 -1.29614e-20)
(0.959429 1.16014 4.22243e-21)
(0.873589 1.11713 2.49875e-21)
(0.776672 1.06949 4.67918e-20)
(0.664803 1.01465 1.07851e-19)
(0.548909 0.955411 7.56627e-21)
(0.437115 0.884223 7.51668e-20)
(0.295814 0.7392 1.36714e-20)
(0.198533 0.881625 -1.73945e-20)
(0.20473 2.46445 -3.88372e-20)
(0.255785 3.32977 3.809e-20)
(0.23861 3.45491 -4.16809e-20)
(0.205028 3.47416 -2.39301e-20)
(0.172171 3.49892 -2.1595e-20)
(0.127456 3.49454 -3.13014e-21)
(0.26017 0.263329 0)
(0.980586 1.04988 1.27333e-20)
(1.13697 1.2429 -9.00317e-21)
(1.1467 1.28154 -5.75228e-21)
(1.09461 1.26111 -2.83788e-20)
(1.02448 1.22364 1.35762e-20)
(0.947587 1.18386 -1.1089e-21)
(0.861405 1.14169 2.2039e-21)
(0.763688 1.09556 -4.85904e-20)
(0.64998 1.04371 -2.68356e-21)
(0.530162 0.98938 -2.44855e-19)
(0.41059 0.920286 1.0807e-20)
(0.274873 0.812732 -1.29851e-20)
(0.234382 1.53254 -1.60246e-20)
(0.298231 3.14452 3.66653e-21)
(0.310193 3.45574 1.49493e-22)
(0.269323 3.50275 6.19108e-20)
(0.235901 3.52705 3.12789e-20)
(0.190502 3.54748 -9.97779e-21)
(0.140983 3.54464 -1.55668e-20)
(0.246145 0.261265 3.26111e-20)
(0.976442 1.0751 8.63183e-20)
(1.12753 1.26855 -2.56689e-20)
(1.1349 1.30678 -2.16084e-20)
(1.08268 1.28592 0)
(1.01261 1.24847 2.52853e-20)
(0.935641 1.20896 1.46551e-21)
(0.849375 1.1676 1.88348e-21)
(0.751179 1.12312 -5.47192e-21)
(0.636194 1.0746 -9.75118e-20)
(0.513444 1.02584 -1.13087e-19)
(0.387132 0.957709 -8.84733e-20)
(0.2769 0.963554 -9.78855e-20)
(0.30105 2.32131 1.00888e-19)
(0.379881 3.38393 8.49518e-20)
(0.350188 3.51079 0)
(0.302865 3.54878 0)
(0.266529 3.58301 -7.91452e-21)
(0.223474 3.62802 0)
(0.154225 3.61372 -1.21289e-20)
(0.236293 0.263114 -4.86379e-20)
(0.97037 1.10116 -7.31152e-20)
(1.1167 1.29543 0)
(1.12184 1.33284 1.22642e-21)
(1.0695 1.31139 -3.08906e-20)
(0.999655 1.27389 4.14542e-20)
(0.922933 1.23469 2.71832e-21)
(0.836814 1.19408 8.33774e-22)
(0.738402 1.15124 -3.35997e-20)
(0.622602 1.10612 4.79752e-21)
(0.49792 1.06305 0)
(0.365862 0.998805 0)
(0.298891 1.26584 -8.88946e-20)
(0.381728 2.97922 3.6153e-20)