/*--------------------------------*- C++ -*----------------------------------*\
  =========                 |
  \\      /  F ield         | OpenFOAM: The Open Source CFD Toolbox
   \\    /   O peration     | Website:  https://openfoam.org
    \\  /    A nd           | Version:  6
     \\/     M anipulation  |
\*---------------------------------------------------------------------------*/
FoamFile
{
    version     2.0;
    format      ascii;
    class       volVectorField;
    location    "110.8";
    object      U;
}
// * * * * * * * * * * * * * * * * * * * * * * * * * * * * * * * * * * * * * //

dimensions      [0 1 -1 0 0 0 0];

internalField   nonuniform List<vector> 
8800
(
(0.987183 -0.0766652 0)
(1.00189 -0.0551902 0)
(0.99972 -0.0285482 0)
(1.00003 -0.0151438 0)
(1.0001 -0.00854623 0)
(1.00012 -0.00504932 0)
(1.00008 -0.00300325 0)
(1.00002 -0.00170121 0)
(0.99999 -0.000793696 0)
(1.00006 -7.4623e-05 0)
(0.999966 0.000659763 0)
(1.00003 0.00142462 0)
(1.00007 0.00242492 0)
(1.00007 0.00399697 0)
(1.00006 0.00663192 0)
(1.00006 0.0113718 0)
(0.999965 0.0208157 0)
(0.999177 0.0386703 0)
(1.0071 0.0724575 0)
(0.771215 0.0366618 0)
(0.363083 -0.016016 0)
(1.04332 -0.0768094 0)
(1.0846 -0.0704364 0)
(1.04519 -0.0535295 0)
(1.0233 -0.0388802 0)
(1.01204 -0.0262016 0)
(1.00644 -0.016837 0)
(1.0036 -0.0102988 0)
(1.00215 -0.00563199 0)
(1.00143 -0.00196703 0)
(1.00128 0.00135879 0)
(1.00168 0.00474893 0)
(1.00271 0.00866 0)
(1.00468 0.0139801 0)
(1.00861 0.021689 0)
(1.01657 0.0326549 0)
(1.03252 0.0465657 0)
(1.06269 0.0616815 0)
(1.09186 0.0761073 0)
(0.838662 0.0565653 0)
(0.216883 -0.00242825 0)
(1.07593 -0.0501175 0)
(1.09989 -0.0482839 0)
(1.06466 -0.0404315 0)
(1.04006 -0.0335686 0)
(1.02394 -0.0260401 0)
(1.01414 -0.0184452 0)
(1.00856 -0.0116111 0)
(1.00558 -0.00572976 0)
(1.0043 -0.000301975 0)
(1.00464 0.00495335 0)
(1.00663 0.0103389 0)
(1.01064 0.0163897 0)
(1.01794 0.0234093 0)
(1.03053 0.03087 0)
(1.05063 0.0378912 0)
(1.08038 0.0445699 0)
(1.10627 0.0513765 0)
(0.942486 0.0416338 0)
(0.216104 0.00246339 0)
(0.175236 -0.000814575 0)
(1.01778 -0.0354562 0)
(1.10524 -0.0413347 0)
(1.0783 -0.0360094 0)
(1.05352 -0.0300661 0)
(1.03625 -0.0244781 0)
(1.02404 -0.0187308 0)
(1.0159 -0.0126293 0)
(1.01102 -0.0064219 0)
(1.00879 -7.17255e-05 0)
(1.00936 0.00619586 0)
(1.01268 0.0121854 0)
(1.01889 0.017967 0)
(1.02875 0.0235328 0)
(1.04317 0.0288242 0)
(1.0637 0.0342928 0)
(1.09356 0.0402677 0)
(1.09338 0.0420143 0)
(0.827008 0.0229378 0)
(0.173923 0.000855511 0)
(0.15407 -0.00060817 0)
(0.956366 -0.0254187 0)
(1.10355 -0.0350604 0)
(1.08775 -0.0325678 0)
(1.0618 -0.027902 0)
(1.04419 -0.0228598 0)
(1.0317 -0.0175861 0)
(1.02283 -0.0120249 0)
(1.01698 -0.00606208 0)
(1.0141 0.000428395 0)
(1.01476 0.00690568 0)
(1.01881 0.012776 0)
(1.0258 0.0180037 0)
(1.03605 0.0229084 0)
(1.05059 0.0276529 0)
(1.07183 0.0321624 0)
(1.10004 0.0360804 0)
(1.06796 0.0341116 0)
(0.739251 0.0143478 0)
(0.152088 0.000654713 0)
(0.139743 -0.000464007 0)
(0.899612 -0.0190231 0)
(1.09595 -0.0299827 0)
(1.09586 -0.0290668 0)
(1.06938 -0.0253163 0)
(1.05094 -0.0211513 0)
(1.03798 -0.0163423 0)
(1.02884 -0.0110165 0)
(1.02268 -0.00523744 0)
(1.01949 0.0011178 0)
(1.02008 0.00744911 0)
(1.02424 0.0130661 0)
(1.03134 0.01795 0)
(1.04179 0.0223991 0)
(1.0569 0.0263446 0)
(1.07909 0.0297778 0)
(1.10218 0.0323798 0)
(1.03572 0.0282325 0)
(0.672479 0.0102572 0)
(0.136938 0.000517726 0)
(0.12926 -0.000358092 0)
(0.850225 -0.0146449 0)
(1.08369 -0.0258165 0)
(1.10161 -0.0260708 0)
(1.07629 -0.0227587 0)
(1.05732 -0.0190809 0)
(1.0439 -0.014788 0)
(1.03439 -0.00981351 0)
(1.02798 -0.00423474 0)
(1.02458 0.00194996 0)
(1.025 0.00807369 0)
(1.02912 0.013409 0)
(1.0363 0.0178662 0)
(1.04701 0.0217069 0)
(1.06251 0.0249812 0)
(1.08514 0.0278863 0)
(1.10118 0.0296065 0)
(1.00057 0.0237567 0)
(0.62037 0.00790713 0)
(0.12545 0.000421309 0)
(0.12129 -0.000276768 0)
(0.808351 -0.0114683 0)
(1.06859 -0.0221664 0)
(1.10524 -0.0233778 0)
(1.08262 -0.0204696 0)
(1.06323 -0.0169964 0)
(1.04953 -0.012998 0)
(1.03973 -0.00834793 0)
(1.03301 -0.0030282 0)
(1.02934 0.00294839 0)
(1.02957 0.00883094 0)
(1.03362 0.0138136 0)
(1.04084 0.0177822 0)
(1.05162 0.0211116 0)
(1.06733 0.0239672 0)
(1.0903 0.0265632 0)
(1.09725 0.0273724 0)
(0.964965 0.0202653 0)
(0.578358 0.00638989 0)
(0.116258 0.000351982 0)
(0.115146 -0.000212763 0)
(0.773223 -0.00908388 0)
(1.05208 -0.0189409 0)
(1.10775 -0.0208693 0)
(1.08859 -0.0183209 0)
(1.06881 -0.01498 0)
(1.05486 -0.0111287 0)
(1.04485 -0.00667312 0)
(1.03787 -0.00157874 0)
(1.03388 0.00415752 0)
(1.03385 0.00974852 0)
(1.03777 0.014349 0)
(1.04489 0.0178801 0)
(1.05563 0.0208188 0)
(1.07153 0.0233405 0)
(1.09414 0.025579 0)
(1.09042 0.0255534 0)
(0.930186 0.017595 0)
(0.54341 0.00536363 0)
(0.108629 0.000302718 0)
(0.110398 -0.00016093 0)
(0.74391 -0.00722402 0)
(1.03523 -0.0160678 0)
(1.10936 -0.0184881 0)
(1.09429 -0.0162322 0)
(1.07422 -0.0129681 0)
(1.06 -0.00918821 0)
(1.04978 -0.00483474 0)
(1.04255 0.000104911 0)
(1.03823 0.00561554 0)
(1.03787 0.0109036 0)
(1.04155 0.0151383 0)
(1.04847 0.0182779 0)
(1.05915 0.0208682 0)
(1.07522 0.0230889 0)
(1.09665 0.0249336 0)
(1.08104 0.0241089 0)
(0.896765 0.0155975 0)
(0.513454 0.00465955 0)
(0.102077 0.000268845 0)
(0.106765 -0.000117467 0)
(0.719606 -0.00571402 0)
(1.01887 -0.0134743 0)
(1.1102 -0.0161694 0)
(1.09992 -0.0141679 0)
(1.07959 -0.0108974 0)
(1.06507 -0.00712584 0)
(1.05461 -0.00281134 0)
(1.04708 0.00203689 0)
(1.04239 0.00736788 0)
(1.04162 0.0123798 0)
(1.04496 0.0162712 0)
(1.05164 0.0190352 0)
(1.06222 0.0212886 0)
(1.07845 0.0232301 0)
(1.09775 0.0246419 0)
(1.06949 0.0230404 0)
(0.864784 0.0141579 0)
(0.487012 0.00418798 0)
(0.0962552 0.000247368 0)
(0.104063 -7.93583e-05 0)
(0.699684 -0.00443689 0)
(1.00364 -0.0110913 0)
(1.11043 -0.0138757 0)
(1.10544 -0.0120419 0)
(1.08499 -0.00871202 0)
(1.07014 -0.00488597 0)
(1.05939 -0.000546059 0)
(1.05152 0.0042719 0)
(1.04638 0.00947744 0)
(1.0451 0.0142508 0)
(1.04804 0.0178168 0)
(1.05441 0.0202107 0)
(1.06486 0.0221335 0)
(1.0812 0.0237968 0)
(1.09774 0.0248639 0)
(1.05597 0.0223678 0)
(0.834029 0.0131949 0)
(0.46296 0.00389514 0)
(0.0908958 0.000235932 0)
(0.102179 -4.38622e-05 0)
(0.683691 -0.0033045 0)
(0.990012 -0.00884613 0)
(1.1103 -0.0115175 0)
(1.11083 -0.00976867 0)
(1.09052 -0.00634745 0)
(1.07531 -0.00240179 0)
(1.06422 0.00203392 0)
(1.05592 0.00688823 0)
(1.05022 0.0120241 0)
(1.04833 0.0165944 0)
(1.05079 0.0198482 0)
(1.0568 0.0218714 0)
(1.06708 0.0234614 0)
(1.08343 0.0248272 0)
(1.09682 0.0254201 0)
(1.04059 0.0221007 0)
(0.804109 0.0126326 0)
(0.4404 0.00374252 0)
(0.0857878 0.000232381 0)
(0.101054 -8.65634e-06 0)
(0.671341 -0.0022462 0)
(0.978351 -0.00666251 0)
(1.11012 -0.00903691 0)
(1.11624 -0.00728612 0)
(1.09625 -0.00372537 0)
(1.08065 0.000408948 0)
(1.06915 0.00501424 0)
(1.06035 0.00997705 0)
(1.05396 0.0151029 0)
(1.05134 0.0195056 0)
(1.05321 0.0224573 0)
(1.0588 0.0241116 0)
(1.06887 0.0253601 0)
(1.08519 0.0264272 0)
(1.09453 0.0264838 0)
(1.02336 0.0222477 0)
(0.774537 0.012427 0)
(0.418599 0.00370622 0)
(0.0807632 0.00023545 0)
(0.100682 2.82932e-05 0)
(0.662501 -0.00120522 0)
(0.968991 -0.00446587 0)
(1.11025 -0.0063723 0)
(1.12182 -0.00451999 0)
(1.10229 -0.000755869 0)
(1.08627 0.0036428 0)
(1.07428 0.00849657 0)
(1.06485 0.0136451 0)
(1.05765 0.0188249 0)
(1.05414 0.0230962 0)
(1.05531 0.0257567 0)
(1.0604 0.0270447 0)
(1.07021 0.0279299 0)
(1.08638 0.0286572 0)
(1.09077 0.0280782 0)
(1.00416 0.0228563 0)
(0.744749 0.0125547 0)
(0.396921 0.00377305 0)
(0.0756782 0.000244413 0)
(0.101088 6.2778e-05 0)
(0.657172 -0.000123455 0)
(0.962244 -0.00217899 0)
(1.11104 -0.00345542 0)
(1.12774 -0.00138371 0)
(1.10874 0.002664 0)
(1.09225 0.00741205 0)
(1.07969 0.0126024 0)
(1.06951 0.0180216 0)
(1.06132 0.0233241 0)
(1.05674 0.0274996 0)
(1.05709 0.0298863 0)
(1.06158 0.0307947 0)
(1.07106 0.0312952 0)
(1.0867 0.031641 0)
(1.08522 0.0302966 0)
(0.98272 0.0239653 0)
(0.714112 0.013 0)
(0.374783 0.00393263 0)
(0.0704065 0.000258306 0)
(0.102345 0.000119827 0)
(0.655518 0.00104913 0)
(0.958445 0.000276677 0)
(1.11288 -0.000206223 0)
(1.13421 0.00222409 0)
(1.11574 0.00665502 0)
(1.09873 0.011851 0)
(1.08548 0.0174784 0)
(1.07439 0.0232619 0)
(1.06501 0.0287589 0)
(1.05915 0.0328732 0)
(1.05851 0.0349961 0)
(1.0623 0.0355009 0)
(1.07137 0.0355944 0)
(1.086 0.0355187 0)
(1.07761 0.0332262 0)
(0.958629 0.0256136 0)
(0.681918 0.0137516 0)
(0.351635 0.00417458 0)
(0.0648386 0.000276037 0)
(0.104589 0.000170363 0)
(0.657617 0.00220152 0)
(0.957962 0.00299858 0)
(1.11625 0.00348563 0)
(1.14146 0.00642204 0)
(1.12345 0.0113626 0)
(1.10583 0.0171242 0)
(1.09176 0.0233053 0)
(1.07956 0.0295553 0)
(1.06875 0.0353179 0)
(1.06137 0.0393941 0)
(1.05959 0.0412308 0)
(1.06252 0.0413252 0)
(1.07109 0.0409873 0)
(1.08405 0.040366 0)
(1.06756 0.0369738 0)
(0.931324 0.0278462 0)
(0.647409 0.0147982 0)
(0.326973 0.00448723 0)
(0.0588867 0.000296276 0)
(0.107973 0.000235413 0)
(0.664199 0.0036883 0)
(0.961117 0.00597238 0)
(1.1216 0.00774954 0)
(1.14974 0.0113441 0)
(1.13205 0.0169712 0)
(1.11374 0.0234371 0)
(1.09866 0.0303053 0)
(1.08512 0.0371316 0)
(1.07258 0.0432256 0)
(1.0634 0.0472701 0)
(1.0603 0.0488256 0)
(1.0622 0.0484602 0)
(1.07017 0.0476521 0)
(1.08084 0.0463905 0)
(1.05455 0.0416619 0)
(0.900055 0.0306942 0)
(0.60976 0.0161146 0)
(0.300338 0.00485229 0)
(0.0524898 0.000317026 0)
(0.112765 0.000324225 0)
(0.675681 0.00545648 0)
(0.968487 0.00949454 0)
(1.12945 0.012757 0)
(1.1594 0.0172103 0)
(1.14179 0.0237235 0)
(1.12263 0.0310585 0)
(1.10632 0.0387621 0)
(1.09112 0.0462743 0)
(1.0765 0.0527464 0)
(1.06519 0.0567382 0)
(1.0605 0.0579765 0)
(1.0613 0.0571122 0)
(1.06854 0.0557919 0)
(1.07628 0.0537758 0)
(1.0379 0.0473939 0)
(0.863876 0.0341548 0)
(0.568111 0.0176473 0)
(0.271359 0.00523963 0)
(0.0456277 0.000335413 0)
(0.119337 0.000442334 0)
(0.692842 0.00766364 0)
(0.980952 0.0138017 0)
(1.14039 0.0187414 0)
(1.17084 0.0242958 0)
(1.15297 0.0319474 0)
(1.13273 0.040346 0)
(1.11486 0.0490429 0)
(1.09762 0.0573328 0)
(1.0805 0.0641891 0)
(1.06669 0.0680566 0)
(1.06009 0.0688852 0)
(1.05976 0.06749 0)
(1.06629 0.0656065 0)
(1.07001 0.0627058 0)
(1.01667 0.0542288 0)
(0.821632 0.038165 0)
(0.521636 0.019294 0)
(0.239833 0.00560291 0)
(0.0383412 0.000347667 0)
(0.128219 0.000607323 0)
(0.716696 0.0105466 0)
(0.999337 0.0191702 0)
(1.15508 0.0260535 0)
(1.18453 0.0329771 0)
(1.16594 0.0421062 0)
(1.14427 0.0517902 0)
(1.1244 0.0616298 0)
(1.10461 0.0707376 0)
(1.08449 0.0779049 0)
(1.06782 0.0815009 0)
(1.05908 0.0817934 0)
(1.05754 0.079787 0)
(1.06305 0.0772576 0)
(1.06139 0.0731784 0)
(0.989614 0.0621644 0)
(0.771986 0.0425495 0)
(0.469656 0.0208809 0)
(0.205825 0.00587731 0)
(0.0307522 0.000349364 0)
(0.140235 0.000849565 0)
(0.748636 0.0144965 0)
(1.02475 0.0260654 0)
(1.17431 0.0352416 0)
(1.20115 0.0438951 0)
(1.18109 0.0548908 0)
(1.15747 0.0660897 0)
(1.13497 0.0771622 0)
(1.112 0.0870125 0)
(1.08833 0.0942733 0)
(1.06842 0.0973395 0)
(1.05738 0.0969189 0)
(1.05467 0.0942648 0)
(1.0585 0.091001 0)
(1.04949 0.0853903 0)
(0.955078 0.0710215 0)
(0.713508 0.0469659 0)
(0.411865 0.0221477 0)
(0.169808 0.00598257 0)
(0.0230803 0.000336155 0)
(0.15671 0.00122848 0)
(0.790678 0.0201619 0)
(1.05886 0.0352743 0)
(1.19907 0.0472897 0)
(1.22158 0.0584388 0)
(1.19883 0.0713852 0)
(1.1724 0.0842495 0)
(1.14644 0.096465 0)
(1.11954 0.106759 0)
(1.09176 0.113684 0)
(1.06828 0.115807 0)
(1.05485 0.114429 0)
(1.05108 0.111029 0)
(1.05257 0.107019 0)
(1.03301 0.0992511 0)
(0.910939 0.0803715 0)
(0.644923 0.0508509 0)
(0.348668 0.0227552 0)
(0.132792 0.0058373 0)
(0.0156432 0.000304959 0)
(0.179927 0.00188727 0)
(0.846079 0.0287277 0)
(1.10457 0.0484214 0)
(1.23042 0.0640328 0)
(1.24627 0.0782207 0)
(1.21925 0.0932836 0)
(1.18883 0.107646 0)
(1.15837 0.120525 0)
(1.12678 0.130606 0)
(1.0944 0.136485 0)
(1.06715 0.137082 0)
(1.05129 0.134414 0)
(1.04655 0.130132 0)
(1.04496 0.125118 0)
(1.01001 0.11441 0)
(0.854609 0.0894203 0)
(0.56566 0.0534119 0)
(0.281666 0.0223487 0)
(0.0963979 0.00538491 0)
(0.00883586 0.000254438 0)
(0.213423 0.003347 0)
(0.920746 0.042989 0)
(1.16488 0.0694437 0)
(1.26869 0.0889766 0)
(1.27512 0.106423 0)
(1.24175 0.123057 0)
(1.2059 0.137961 0)
(1.16995 0.150361 0)
(1.13305 0.159098 0)
(1.09576 0.162924 0)
(1.0647 0.161254 0)
(1.04651 0.156883 0)
(1.04093 0.151582 0)
(1.0347 0.145287 0)
(0.977592 0.130139 0)
(0.78327 0.0968787 0)
(0.477019 0.0537527 0)
(0.21434 0.0207521 0)
(0.0629113 0.00463467 0)
(0.00312863 0.000184793 0)
(0.259142 0.00988278 1.49492e-20)
(1.01841 0.0712353 1.27251e-20)
(1.23725 0.105252 -4.38407e-21)
(1.31116 0.126271 0)
(1.3051 0.146869 -1.05585e-34)
(1.26404 0.163147 1.52806e-21)
(1.22202 0.17675 -2.66279e-21)
(1.18009 0.187209 0)
(1.13759 0.193532 5.29738e-35)
(1.09518 0.194565 -3.13215e-21)
(1.06015 0.190251 0)
(1.03987 0.184281 -3.66322e-21)
(1.03429 0.178722 -1.07748e-20)
(1.01927 0.171066 -5.08888e-21)
(0.929172 0.148136 -1.52425e-21)
(0.688356 0.102562 -9.03145e-22)
(0.374551 0.0515069 0)
(0.146553 0.0182491 6.30907e-22)
(0.0324674 0.0037001 7.47169e-22)
(-0.0015835 6.29644e-05 1.36782e-20)
(0.291354 0.025804 1.19374e-20)
(1.09984 0.11597 1.21167e-22)
(1.29698 0.156237 1.21328e-21)
(1.35008 0.177393 0)
(1.33178 0.197914 -5.47085e-21)
(1.28367 0.212203 -6.10858e-21)
(1.23562 0.223713 -2.71225e-21)
(1.18782 0.232001 -9.37093e-21)
(1.13968 0.236034 0)
(1.09199 0.234605 1.32599e-20)
(1.05276 0.228034 1.30292e-20)
(1.02961 0.220492 3.83756e-21)
(1.02111 0.214348 1.3915e-20)
(0.988897 0.201878 1.95043e-20)
(0.847842 0.166196 0)
(0.55573 0.105026 2.73141e-20)
(0.258677 0.047073 3.91362e-20)
(0.08023 0.0144944 4.35375e-20)
(0.00476004 0.00167264 -4.99362e-20)
(-0.00561696 -0.00046275 -9.53233e-22)
(0.293777 0.044118 0)
(1.15294 0.173666 2.29401e-21)
(1.33864 0.218568 0)
(1.38093 0.239675 -7.78522e-21)
(1.35331 0.256886 0)
(1.29928 0.267306 -1.21968e-20)
(1.24563 0.275189 5.56601e-21)
(1.19231 0.280115 -1.90144e-20)
(1.13894 0.280944 -3.35709e-22)
(1.08641 0.27639 6.85221e-21)
(1.04348 0.267203 2.8339e-20)
(1.01786 0.257909 -2.21824e-23)
(1.00527 0.249977 -1.00382e-20)
(0.953452 0.231491 -1.81308e-20)
(0.76788 0.18083 2.14207e-20)
(0.452579 0.104229 -3.78506e-20)
(0.187058 0.0423398 -4.97231e-21)
(0.0437401 0.0108579 0)
(-0.00926297 -0.000597554 -3.12572e-24)
(-0.00743505 -0.00105328 0)
(0.28761 0.0594204 3.61362e-20)
(1.18314 0.235267 -1.65738e-20)
(1.36564 0.285769 -1.14454e-20)
(1.402 0.307098 3.81047e-21)
(1.3681 0.320149 -6.2768e-21)
(1.30971 0.326001 2.55064e-20)
(1.25155 0.329494 1.15844e-20)
(1.19358 0.330309 0)
(1.13567 0.327273 -3.47204e-20)
(1.07894 0.31906 0)
(1.03281 0.306949 -1.47974e-20)
(1.00497 0.2957 -1.80891e-20)
(0.9876 0.285212 -1.08229e-20)
(0.916279 0.25902 -1.30543e-20)
(0.696438 0.192736 0)
(0.377482 0.103389 0)
(0.140756 0.0388569 -3.20812e-20)
(0.0209548 0.00747808 6.32527e-21)
(-0.0179589 -0.00299172 -3.73543e-21)
(-0.00854003 -0.00167183 -4.42435e-21)
(0.279774 0.0727546 -1.85108e-20)
(1.19776 0.296808 0)
(1.38151 0.353966 2.52398e-20)
(1.41438 0.375696 1.10981e-20)
(1.37621 0.384678 1.40556e-20)
(1.31471 0.385923 0)
(1.25313 0.384865 1.14861e-20)
(1.19148 0.381302 2.09323e-20)
(1.12986 0.374063 1.78223e-20)
(1.0696 0.36188 3.16147e-20)
(1.02075 0.346627 0)
(0.990908 0.333251 -3.86342e-20)
(0.968319 0.319505 -2.31207e-20)
(0.878913 0.284561 -1.3638e-20)
(0.63473 0.202952 8.27036e-20)
(0.322704 0.10303 9.76783e-21)
(0.109226 0.0359866 4.60119e-20)
(0.00511423 0.00406551 -2.17444e-19)
(-0.0242421 -0.00553778 1.28789e-19)
(-0.00936961 -0.00231207 -1.57217e-19)
(0.27184 0.0846719 -1.39293e-20)
(1.20214 0.35621 3.45593e-21)
(1.3891 0.421127 -3.20108e-21)
(1.41976 0.443546 -1.2812e-20)
(1.37858 0.448686 -1.27558e-20)
(1.31481 0.445461 3.53429e-22)
(1.25065 0.439941 -1.23423e-20)
(1.18612 0.432001 2.15993e-20)
(1.12151 0.420478 -3.80271e-20)
(1.05835 0.404194 0)
(1.00724 0.385692 -1.75654e-20)
(0.975606 0.370056 -3.03847e-22)
(0.947702 0.352612 -2.50796e-20)
(0.842292 0.308245 0)
(0.582114 0.211846 -1.77726e-20)
(0.281657 0.103097 -4.19288e-20)
(0.0860545 0.0333466 1.11301e-19)
(-0.0068789 0.000525925 -1.09594e-19)
(-0.029119 -0.00819432 1.55784e-19)
(-0.0100081 -0.00295814 -1.63926e-19)
(0.264697 0.095512 -1.19927e-22)
(1.19977 0.412661 -2.67338e-21)
(1.39056 0.486142 -1.13334e-20)
(1.41961 0.50951 5.84177e-21)
(1.37627 0.511134 -6.50185e-21)
(1.31085 0.503663 0)
(1.24468 0.493862 -1.18373e-20)
(1.17785 0.481658 -2.25991e-20)
(1.1108 0.465891 -1.97831e-20)
(1.04526 0.445484 0)
(0.992307 0.423685 -1.80644e-20)
(0.959121 0.405738 -2.20901e-20)
(0.926053 0.38431 2.69444e-20)
(0.806976 0.33008 -1.6249e-20)
(0.537205 0.219762 -7.64809e-20)
(0.249631 0.103462 4.50896e-20)
(0.0677687 0.0307661 1.3294e-20)
(-0.0167614 -0.00317012 0)
(-0.0332018 -0.0109361 -1.48775e-19)
(-0.0105035 -0.00359594 -5.51067e-21)
(0.258557 0.105622 -1.23256e-21)
(1.19295 0.465927 2.22318e-21)
(1.3874 0.548433 5.73057e-21)
(1.41515 0.572916 1.96181e-20)
(1.37024 0.571377 -2.52338e-20)
(1.3036 0.559963 2.59178e-20)
(1.23586 0.546122 2.52895e-20)
(1.16716 0.529824 -3.59899e-20)
(1.09809 0.509903 1.18034e-20)
(1.03057 0.485392 -7.64002e-20)
(0.976148 0.460278 -2.01812e-20)
(0.941676 0.439935 0)
(0.903793 0.414295 2.89765e-20)
(0.773138 0.350037 3.4471e-20)
(0.498506 0.226878 4.09664e-20)
(0.223541 0.10398 -4.8417e-20)
(0.0523155 0.0281197 -1.42739e-20)
(-0.0256154 -0.00705823 1.68379e-20)
(-0.037006 -0.0138086 0)
(-0.0109403 -0.00423333 -1.18241e-20)
(0.253359 0.115056 7.95127e-21)
(1.18344 0.516021 -6.90216e-21)
(1.38094 0.608009 -5.6974e-21)
(1.40739 0.633422 1.27745e-20)
(1.36128 0.629039 -1.21419e-20)
(1.29378 0.613997 -8.64171e-22)
(1.22479 0.596413 -2.73859e-20)
(1.15454 0.576242 -1.29392e-20)
(1.08373 0.552291 -3.40315e-20)
(1.01454 0.523704 2.33318e-23)
(0.958972 0.495227 -6.29196e-20)
(0.923487 0.472396 5.23202e-20)
(0.881206 0.442422 -3.14507e-20)
(0.741005 0.368115 3.74493e-20)
(0.464806 0.233245 0)
(0.201514 0.104548 -2.59901e-20)
(0.0384559 0.0253049 2.33895e-23)
(-0.0341884 -0.0112409 -7.23656e-20)
(-0.0410018 -0.0169286 -1.07048e-20)
(-0.0114124 -0.00489875 0)
(0.249095 0.12409 0)
(1.17231 0.563168 -6.6005e-21)
(1.37199 0.664746 -9.68541e-21)
(1.39714 0.690868 -1.26107e-20)
(1.35012 0.683925 -1.43441e-20)
(1.28197 0.665582 0)
(1.21199 0.644557 -1.29822e-20)
(1.14042 0.620767 -2.50633e-22)
(1.0681 0.592952 7.26485e-20)
(0.99744 0.560322 -1.04991e-20)
(0.94096 0.52839 -4.52353e-20)
(0.904718 0.502942 2.72219e-20)
(0.858534 0.468487 -3.91675e-22)
(0.710594 0.384299 3.97433e-20)
(0.435226 0.238822 2.3818e-20)
(0.182429 0.104958 -5.57075e-20)
(0.0256767 0.0221456 6.56616e-20)
(-0.0428668 -0.0159075 1.94033e-20)
(-0.0455418 -0.0204713 8.04184e-20)
(-0.0120562 -0.00565602 -2.17655e-19)
(0.245704 0.132891 6.63527e-23)
(1.16041 0.607544 -1.76345e-21)
(1.36126 0.718381 2.53101e-21)
(1.38508 0.745226 1.17259e-20)
(1.33732 0.735961 0)
(1.2687 0.714625 -1.30128e-20)
(1.19791 0.690471 4.30122e-20)
(1.12519 0.663332 2.85385e-20)
(1.0515 0.631849 0)
(0.979476 0.595218 -1.49895e-19)
(0.922232 0.559702 1.21604e-19)
(0.885471 0.531439 0)
(0.835929 0.492319 3.62244e-20)
(0.681927 0.398492 -2.98431e-22)
(0.409168 0.243504 -7.62018e-20)
(0.165709 0.104947 2.98288e-20)
(0.0138473 0.0184565 0)
(-0.051602 -0.0211691 1.03999e-19)
(-0.0506847 -0.0245657 0)
(-0.0129601 -0.00657261 -1.0209e-19)
(0.243118 0.141469 6.29854e-22)
(1.14826 0.649383 -1.62366e-22)
(1.34924 0.768989 3.10204e-21)
(1.37173 0.796528 0)
(1.32337 0.785162 -1.37734e-20)
(1.25441 0.761125 0)
(1.18294 0.734131 -4.34505e-20)
(1.10919 0.703927 -1.37165e-20)
(1.03419 0.669004 1.3009e-20)
(0.960827 0.628434 -7.41037e-20)
(0.902862 0.589163 1.26316e-20)
(0.865782 0.557792 0)
(0.81347 0.513757 -7.70704e-20)
(0.654987 0.410562 2.20069e-22)
(0.38624 0.247147 0)
(0.151074 0.10425 3.13079e-23)
(0.00309273 0.014082 9.42893e-20)
(-0.060068 -0.027039 -8.91303e-20)
(-0.0562146 -0.0292176 2.63906e-20)
(-0.0141285 -0.00767928 0)
(0.241015 0.149805 0)
(1.13614 0.688895 1.1253e-21)
(1.33641 0.816699 -1.34072e-21)
(1.35754 0.844858 -5.36074e-22)
(1.30868 0.831585 -5.85941e-21)
(1.23947 0.805118 -2.95522e-20)
(1.1674 0.775568 1.60861e-20)
(1.0927 0.742577 -1.58265e-20)
(1.01643 0.704464 5.75854e-20)
(0.941645 0.660062 -1.18648e-19)
(0.882881 0.616834 -7.71265e-22)
(0.845608 0.581946 -3.41253e-20)
(0.791124 0.532665 1.24426e-19)
(0.629731 0.42047 -3.23951e-22)
(0.366108 0.249632 -5.83134e-20)
(0.138351 0.102671 -1.02875e-19)
(-0.00627081 0.00910581 0)
(-0.0677508 -0.0333573 0)
(-0.0617095 -0.0342907 2.82779e-20)
(-0.0154829 -0.00896607 -1.67595e-20)
(0.239571 0.158095 2.41664e-21)
(1.12424 0.726175 -3.85364e-21)
(1.32311 0.861634 1.42308e-21)
(1.34285 0.890315 0)
(1.29357 0.875309 -3.12776e-22)
(1.22417 0.846667 -2.88763e-20)
(1.15159 0.814835 4.01218e-20)
(1.07598 0.779334 6.37303e-20)
(0.998427 0.738308 7.54763e-20)
(0.922087 0.690232 -9.75568e-20)
(0.862318 0.642849 -1.04586e-19)
(0.824849 0.603916 9.1315e-20)
(0.768815 0.548957 0)
(0.606059 0.42812 -2.66602e-20)
(0.348489 0.25087 -6.25133e-20)
(0.127482 0.100275 -7.34841e-20)
(-0.0140905 0.00376273 -8.66069e-20)
(-0.0742682 -0.0398261 2.5602e-20)
(-0.0666935 -0.0395288 -1.5151e-20)
(-0.016879 -0.0103717 1.64032e-23)
(0.238382 0.16617 0)
(1.11303 0.761173 0)
(1.3096 0.903913 5.11842e-22)
(1.32792 0.933013 0)
(1.27829 0.916444 1.72813e-20)
(1.20875 0.885862 2.11949e-20)
(1.13573 0.851999 0)
(1.05926 0.814264 7.83773e-21)
(0.980392 0.770614 1.27177e-19)
(0.902318 0.719094 -2.24767e-19)
(0.8412 0.66741 0)
(0.803364 0.623797 -5.89436e-20)
(0.746337 0.562517 -4.63694e-22)
(0.583835 0.433378 -2.39578e-22)
(0.333244 0.250812 6.69296e-20)
(0.118552 0.0974435 5.57169e-24)
(-0.0204268 -0.00115431 -1.85651e-19)
(-0.079848 -0.0457055 5.48587e-20)
(-0.0711773 -0.0445813 1.62608e-20)
(-0.018193 -0.0118003 0)
(0.237455 0.173992 -1.35369e-20)
(1.10225 0.794405 -4.82679e-21)
(1.296 0.943633 -1.76834e-21)
(1.31298 0.973071 -1.21334e-20)
(1.26306 0.955083 2.78019e-20)
(1.19344 0.922789 0)
(1.12001 0.887139 2.5564e-20)
(1.04273 0.847438 -1.7357e-20)
(0.962507 0.801468 7.98913e-22)
(0.882504 0.7468 1.65175e-20)
(0.819584 0.690775 1.36846e-19)
(0.780985 0.641796 -2.08176e-20)
(0.723393 0.573292 -7.66725e-20)
(0.562781 0.435948 -3.07679e-20)
(0.32063 0.249174 3.59211e-20)
(0.112282 0.0947956 1.00147e-23)
(-0.0250256 -0.00383915 4.97582e-20)
(-0.0859796 -0.04949 -1.17626e-19)
(-0.0771113 -0.0494129 1.39477e-19)
(-0.0198987 -0.0134575 2.06218e-20)
(0.236578 0.181565 5.66493e-21)
(1.09195 0.825924 -3.04707e-21)
(1.28251 0.980938 1.33566e-21)
(1.29819 1.01063 -4.1601e-21)
(1.24804 0.991349 -4.5613e-21)
(1.17838 0.957542 -3.89493e-20)
(1.10462 0.920331 8.00683e-21)
(1.02654 0.878919 -7.31888e-20)
(0.944945 0.830934 -1.42759e-19)
(0.862805 0.773466 -1.35788e-19)
(0.797564 0.71322 0)
(0.757556 0.658242 -9.15166e-20)
(0.699536 0.58131 1.10511e-19)
(0.542588 0.435279 0)
(0.311117 0.245003 -7.69892e-20)
(0.111214 0.0918364 4.52077e-20)
(-0.0247131 -0.00356039 -5.33281e-20)
(-0.0925198 -0.0511058 -6.30941e-20)
(-0.0879754 -0.0554568 -1.1212e-19)
(-0.0237035 -0.0163453 -8.85323e-20)
(0.236059 0.188971 -6.9281e-21)
(1.08201 0.855759 3.27847e-21)
(1.26924 1.01591 5.90191e-21)
(1.28368 1.04578 -3.76057e-21)
(1.23337 1.02535 1.07275e-20)
(1.16371 0.99022 -2.31524e-20)
(1.08966 0.951646 2.64759e-20)
(1.01082 0.908781 -7.64924e-20)
(0.927841 0.859086 -8.54761e-20)
(0.843388 0.799205 1.44053e-19)
(0.775258 0.735009 3.04732e-19)
(0.732972 0.673584 0)
(0.674187 0.586786 0)
(0.522307 0.430716 -3.54334e-20)
(0.304528 0.236604 0)
(0.117099 0.0851564 9.6998e-20)
(-0.0131524 -0.00713401 1.14292e-19)
(-0.0897111 -0.0571527 0)
(-0.0995245 -0.0658214 0)
(-0.0311204 -0.0218697 9.51425e-20)
(0.235428 0.195958 8.45887e-21)
(1.07247 0.883943 6.4554e-21)
(1.2563 1.04869 4.5281e-21)
(1.26954 1.07868 1.0374e-21)
(1.21913 1.0572 1.0079e-20)
(1.14951 1.02091 2.65699e-20)
(1.07523 0.98116 -3.71558e-20)
(0.9957 0.937073 -3.091e-22)
(0.91133 0.885969 -1.06203e-21)
(0.824413 0.824097 -5.26249e-22)
(0.752836 0.756375 1.58055e-19)
(0.707206 0.688311 0)
(0.64674 0.590266 1.1315e-19)
(0.500285 0.422029 7.6546e-20)
(0.298286 0.221648 1.793e-19)
(0.128697 0.0668814 5.22983e-20)
(0.0124481 -0.0281515 -6.1454e-20)
(-0.058697 -0.0797995 -3.64278e-20)
(-0.0826167 -0.0797108 0)
(-0.0351581 -0.0274737 1.02706e-19)
(0.235153 0.202965 -2.0311e-20)
(1.06333 0.910583 0)
(1.24368 1.07934 6.68973e-21)
(1.25583 1.10941 -4.74301e-23)
(1.20541 1.08701 -8.62018e-21)
(1.13584 1.04971 -3.31282e-20)
(1.06142 1.00893 7.55962e-20)
(0.981242 0.963846 -5.87006e-21)
(0.89551 0.911621 0)
(0.806031 0.848178 -1.62491e-19)
(0.730502 0.777498 -3.48477e-19)
(0.680341 0.702938 1.39612e-20)
(0.616757 0.592549 1.5861e-19)
(0.474831 0.40997 0)
(0.288227 0.199141 1.2189e-19)
(0.137495 0.0334385 0)
(0.0404887 -0.0778242 0)
(-0.00284121 -0.134439 -3.92389e-20)
(0.00282228 -0.104382 0)
(0.0139196 -0.00954661 2.77024e-20)
(0.234649 0.209442 -2.36398e-20)
(1.05455 0.936022 0)
(1.23141 1.10806 1.23771e-20)
(1.2425 1.13823 0)
(1.19217 1.11505 3.60238e-21)
(1.12267 1.0769 0)
(1.04816 1.03528 4.20067e-21)
(0.967372 0.989433 1.09376e-20)
(0.88028 0.936403 1.09884e-20)
(0.7881 0.871828 -1.8055e-19)
(0.708087 0.798884 1.06737e-20)
(0.652048 0.718371 1.12838e-19)
(0.583473 0.594805 1.5605e-19)
(0.44398 0.395557 2.05504e-20)
(0.270231 0.171129 9.65207e-20)
(0.133512 -0.0121654 0)
(0.0519871 -0.150155 1.29322e-19)
(0.030405 -0.156021 -7.60046e-20)
(0.0171937 0.0209002 8.94904e-20)
(-0.038926 0.466943 -1.06298e-19)
(0.234203 0.215762 2.01485e-20)
(1.04592 0.960095 2.85491e-20)
(1.2194 1.13519 0)
(1.22943 1.16558 9.77786e-22)
(1.17923 1.1419 -7.37241e-21)
(1.10972 1.10317 5.24033e-20)
(1.03515 1.06098 2.81943e-20)
(0.95367 1.01475 0)
(0.865098 0.961372 7.4625e-20)
(0.769928 0.896295 -9.63847e-21)
(0.684625 0.821921 0)
(0.62082 0.736084 0)
(0.544149 0.597888 1.41951e-19)
(0.404063 0.378904 -6.36368e-20)
(0.240459 0.13936 -9.93826e-20)
(0.114512 -0.0664999 0)
(0.0400382 -0.107243 6.59169e-20)
(-0.000427347 0.440132 -7.64835e-20)
(0.0257417 1.95846 -4.32537e-20)
(0.0511665 2.8405 -5.3026e-20)
(0.233516 0.221598 -1.58441e-20)
(1.03751 0.982985 -3.79204e-20)
(1.20769 1.16073 8.04355e-21)
(1.21662 1.19134 3.38619e-21)
(1.16665 1.16736 0)
(1.0971 1.12825 3.44245e-20)
(1.02262 1.08575 4.11651e-20)
(0.940356 1.0394 -5.53424e-21)
(0.850284 0.986052 1.12036e-20)
(0.751967 0.921066 1.75381e-19)
(0.660842 0.846215 1.82278e-19)
(0.587722 0.756564 1.31091e-19)
(0.499284 0.603293 1.45326e-19)
(0.354633 0.360718 -1.53028e-19)
(0.202512 0.11045 -1.52757e-19)
(0.0765582 -0.000202029 0)
(0.0297465 0.942025 0)
(0.0735811 2.60976 3.72279e-20)
(0.076909 3.22656 0)
(0.0795842 3.39408 9.77792e-20)
(0.235726 0.227165 0)
(1.02972 1.00511 0)
(1.19595 1.18455 0)
(1.20389 1.21537 1.55431e-21)
(1.15411 1.1912 -5.97969e-21)
(1.08463 1.15198 2.27113e-20)
(1.01048 1.10947 2.75942e-20)
(0.927367 1.06323 -5.54142e-21)
(0.835784 1.01027 9.66239e-20)
(0.734236 0.945993 -1.32161e-21)
(0.636896 0.87165 3.66583e-19)
(0.553212 0.780223 -1.52377e-20)
(0.448963 0.613084 1.81363e-20)
(0.295517 0.341061 2.24881e-20)
(0.148421 0.1165 -1.0567e-21)
(0.0692254 1.05933 3.22689e-22)
(0.104559 2.79559 -2.01527e-19)
(0.108889 3.30564 -7.5908e-20)
(0.103272 3.42287 4.05956e-20)
(0.0957448 3.44168 -4.63724e-20)
(0.157811 0.171893 1.02232e-20)
(1.01732 1.02918 0)
(1.18396 1.20689 -1.8767e-20)
(1.1917 1.23811 -1.22329e-20)
(1.14204 1.21389 -5.45743e-21)
(1.07299 1.17487 -2.27121e-20)
(0.99854 1.13217 -3.01227e-20)
(0.914741 1.08631 6.69579e-20)
(0.821694 1.03412 -8.11525e-20)
(0.717005 0.971212 0)
(0.613195 0.898366 1.84238e-19)
(0.517975 0.807225 -1.09904e-19)
(0.398993 0.642995 0)
(0.226611 0.327608 2.25497e-20)
(0.102919 0.672854 5.18167e-20)
(0.117929 2.61593 -5.7697e-20)
(0.162127 3.32625 6.53545e-20)
(0.149231 3.42762 3.56016e-20)
(0.125611 3.44642 4.01742e-20)
(0.108772 3.45546 6.5532e-20)
(0.269869 0.263881 -1.92019e-20)
(0.99762 1.03775 0)
(1.16393 1.23209 2.18412e-20)
(1.17604 1.26929 1.66131e-20)
(1.12352 1.2473 8.72597e-22)
(1.0539 1.20855 1.80113e-20)
(0.978208 1.1673 3.54888e-20)
(0.893617 1.12252 5.22494e-21)
(0.798622 1.07225 8.0662e-20)
(0.689792 1.01298 1.60335e-19)
(0.5774 0.945085 1.06588e-20)
(0.463027 0.849856 1.00979e-19)
(0.304411 0.653563 1.79467e-20)
(0.185687 0.798542 -2.21984e-20)
(0.19208 2.51472 -4.87643e-20)
(0.243276 3.32324 4.89119e-20)
(0.226332 3.44553 -5.41216e-20)
(0.194351 3.4659 -3.09939e-20)
(0.163244 3.49118 -2.98498e-20)
(0.119698 3.48839 -4.2325e-21)
(0.259463 0.262385 0)
(0.993573 1.05993 7.62709e-21)
(1.15424 1.25539 -4.88231e-21)
(1.16412 1.29276 -2.42985e-21)
(1.11163 1.27052 -1.63611e-21)
(1.04197 1.23189 -1.61673e-20)
(0.965839 1.19075 -2.13137e-20)
(0.880766 1.14671 4.86369e-21)
(0.784682 1.09781 -8.60347e-20)
(0.673361 1.0413 -2.4374e-21)
(0.555575 0.977879 -3.44974e-19)
(0.430103 0.883239 1.4552e-20)
(0.271243 0.726726 -1.72912e-20)
(0.220705 1.5155 -2.08313e-20)
(0.287359 3.14781 3.56961e-21)
(0.297854 3.44315 -8.53622e-23)
(0.259067 3.49017 8.73599e-20)
(0.226924 3.51693 4.60478e-20)
(0.182427 3.5384 -1.84539e-20)
(0.134259 3.53688 -2.35661e-20)
(0.245007 0.259849 2.05753e-20)
(0.988539 1.0846 5.25442e-20)
(1.14414 1.28076 -1.38924e-20)
(1.1518 1.31787 -8.91021e-21)
(1.09925 1.29522 0)
(1.02962 1.25656 -1.56357e-20)
(0.953333 1.21562 -2.78423e-20)
(0.868037 1.1723 4.47422e-21)
(0.771184 1.12496 -9.5727e-21)
(0.657959 1.0717 -1.52447e-19)
(0.535873 1.01364 -1.63065e-19)
(0.400852 0.918468 -1.2162e-19)
(0.270099 0.893813 -1.32565e-19)
(0.290311 2.34819 1.34986e-19)
(0.371375 3.3719 1.163e-19)
(0.339313 3.49399 0)
(0.294114 3.53536 0)
(0.258702 3.57104 -1.53399e-20)
(0.21811 3.61562 0)
(0.149898 3.60417 -2.69314e-20)
(0.23477 0.261269 -3.16539e-20)
(0.981528 1.11002 -4.57887e-20)
(1.13259 1.30735 0)
(1.13817 1.34378 1.18286e-21)
(1.08556 1.32057 -6.50083e-21)
(1.01614 1.28182 -1.74673e-20)
(0.940026 1.24113 -1.61835e-20)
(0.854738 1.19851 3.3271e-21)
(0.757385 1.15277 -6.55417e-20)
(0.642751 1.10292 7.94625e-21)
(0.517474 1.05048 0)
(0.372147 0.955998 0)
(0.292128 1.22073 -1.23264e-19)
(0.375089 2.99419 5.0423e-20)