/*--------------------------------*- C++ -*----------------------------------*\
  =========                 |
  \\      /  F ield         | OpenFOAM: The Open Source CFD Toolbox
   \\    /   O peration     | Website:  https://openfoam.org
    \\  /    A nd           | Version:  6
     \\/     M anipulation  |
\*---------------------------------------------------------------------------*/
FoamFile
{
    version     2.0;
    format      ascii;
    class       volScalarField;
    location    "65";
    object      p;
}
// * * * * * * * * * * * * * * * * * * * * * * * * * * * * * * * * * * * * * //

dimensions      [0 2 -2 0 0 0 0];

internalField   nonuniform List<scalar> 
2200
(
0.787193
0.771974
0.754497
0.738211
0.723769
0.71176
0.702153
0.694707
0.689373
0.686483
0.686971
0.690726
0.696714
0.70463
0.714566
0.726802
0.74142
0.757856
0.7754
0.790633
0.730866
0.726944
0.721945
0.716371
0.710097
0.703509
0.697136
0.691531
0.687211
0.684836
0.685332
0.68861
0.693606
0.699732
0.706489
0.713351
0.719801
0.725463
0.730502
0.734458
0.689331
0.68902
0.689973
0.691297
0.691755
0.690735
0.688495
0.685693
0.683134
0.681673
0.682207
0.684644
0.687965
0.691341
0.694007
0.695322
0.695041
0.693828
0.693014
0.693382
0.664196
0.665227
0.667635
0.670961
0.674198
0.676511
0.6776
0.677634
0.677171
0.676922
0.677535
0.678883
0.680214
0.680845
0.680255
0.678317
0.675359
0.672189
0.669869
0.668885
0.649285
0.650746
0.653506
0.657044
0.660664
0.663963
0.666631
0.668539
0.669787
0.670682
0.67141
0.671819
0.671596
0.670484
0.668407
0.665543
0.662245
0.658914
0.656263
0.654839
0.641616
0.642928
0.645222
0.648112
0.651149
0.654135
0.65698
0.659546
0.661698
0.663355
0.664232
0.664145
0.663218
0.661586
0.659462
0.657026
0.65439
0.65176
0.649599
0.648322
0.637843
0.638754
0.640295
0.642312
0.644486
0.646705
0.64904
0.65148
0.653847
0.65583
0.656889
0.65681
0.655964
0.654689
0.653221
0.651647
0.649938
0.648229
0.646848
0.645971
0.635008
0.635595
0.636555
0.637876
0.639361
0.640931
0.642662
0.644617
0.646728
0.648715
0.650013
0.650358
0.650098
0.649565
0.6489
0.648119
0.647189
0.646227
0.645444
0.64489
0.631654
0.632039
0.632678
0.633613
0.634694
0.635853
0.637159
0.638695
0.640477
0.642381
0.643976
0.64493
0.645396
0.6456
0.645609
0.645421
0.64503
0.644533
0.644098
0.643742
0.627517
0.62779
0.628279
0.629041
0.629954
0.630958
0.632117
0.633509
0.635173
0.637117
0.639075
0.640643
0.64173
0.642452
0.642909
0.643098
0.643002
0.64275
0.642493
0.642249
0.622618
0.622825
0.62326
0.624001
0.624965
0.626069
0.627331
0.628828
0.630637
0.632838
0.635244
0.637327
0.638879
0.639959
0.640661
0.64106
0.641086
0.640969
0.640812
0.640636
0.61724
0.617401
0.617811
0.618575
0.619649
0.620949
0.622471
0.62428
0.626474
0.62913
0.632026
0.634607
0.63654
0.637898
0.638785
0.639303
0.639486
0.639496
0.639408
0.63927
0.611525
0.611669
0.612087
0.612874
0.614019
0.615492
0.617324
0.619575
0.622321
0.625663
0.629237
0.632302
0.634593
0.636231
0.637337
0.638031
0.63841
0.63855
0.638517
0.6384
0.605327
0.605442
0.605865
0.606734
0.608044
0.609781
0.612002
0.614793
0.618207
0.6223
0.626634
0.630337
0.633094
0.635078
0.63648
0.637414
0.637987
0.638244
0.638258
0.638153
0.598601
0.598699
0.599136
0.600092
0.601613
0.603665
0.606297
0.609624
0.613751
0.61871
0.623963
0.628461
0.631865
0.634401
0.636248
0.637511
0.63829
0.638673
0.638739
0.638643
0.59127
0.591303
0.591742
0.592788
0.594492
0.596836
0.599877
0.603769
0.608666
0.614626
0.621038
0.626586
0.63091
0.634211
0.636624
0.638289
0.639351
0.639908
0.640035
0.639941
0.582916
0.58296
0.583414
0.584553
0.586478
0.589189
0.592745
0.597317
0.603105
0.610223
0.617995
0.624915
0.630373
0.634559
0.637656
0.639845
0.641275
0.642026
0.642213
0.642119
0.573335
0.573407
0.573909
0.57521
0.577404
0.58055
0.584736
0.590119
0.59694
0.605461
0.614949
0.623588
0.6304
0.635612
0.639512
0.642317
0.644159
0.645115
0.645354
0.645253
0.562216
0.562293
0.562883
0.564365
0.566892
0.57056
0.575502
0.581905
0.590097
0.600474
0.612155
0.62278
0.631138
0.637518
0.642307
0.64578
0.648046
0.649198
0.64949
0.64938
0.548961
0.549039
0.549748
0.551531
0.554587
0.558953
0.56484
0.572598
0.582638
0.595405
0.609705
0.622547
0.632589
0.640329
0.646172
0.650375
0.653088
0.654443
0.654769
0.654637
0.533349
0.533411
0.534211
0.536314
0.540009
0.545359
0.552609
0.56225
0.574802
0.590594
0.607867
0.623065
0.634992
0.644179
0.651091
0.656076
0.659268
0.66081
0.661153
0.660993
0.514107
0.514221
0.515274
0.517962
0.522664
0.529482
0.538707
0.550891
0.566588
0.58598
0.606745
0.624723
0.638646
0.649248
0.65723
0.662957
0.666579
0.668274
0.66861
0.668418
0.490387
0.490488
0.491799
0.495268
0.501418
0.510349
0.52234
0.537926
0.557578
0.581371
0.606281
0.627364
0.643335
0.655397
0.66442
0.670923
0.674959
0.676737
0.67703
0.676801
0.460225
0.460516
0.462436
0.467096
0.475248
0.487077
0.502936
0.523257
0.548174
0.577369
0.60687
0.630995
0.648953
0.662442
0.672625
0.679876
0.684215
0.686016
0.686237
0.685967
0.420575
0.421221
0.424327
0.431429
0.443265
0.459707
0.480968
0.507339
0.538607
0.573935
0.608302
0.635563
0.655515
0.670489
0.681716
0.689559
0.694069
0.69577
0.695881
0.695578
0.368619
0.369729
0.37525
0.386915
0.404921
0.428319
0.45679
0.490478
0.529001
0.571132
0.61067
0.641139
0.663106
0.679431
0.691558
0.699769
0.704102
0.705464
0.705427
0.705143
0.302655
0.30625
0.317602
0.336933
0.363277
0.395237
0.432116
0.473915
0.520096
0.569223
0.614381
0.648874
0.673614
0.691639
0.704525
0.712759
0.716758
0.717818
0.717747
0.717531
0.229428
0.238606
0.258428
0.286978
0.322386
0.363285
0.409026
0.45913
0.512811
0.568889
0.620176
0.659226
0.686794
0.706602
0.720316
0.728589
0.732247
0.733086
0.733024
0.732882
0.161936
0.175297
0.201938
0.239168
0.283741
0.333743
0.388432
0.446804
0.507808
0.570331
0.626744
0.669327
0.69964
0.721346
0.73595
0.744398
0.747868
0.748458
0.748391
0.74832
0.107217
0.121836
0.152527
0.196358
0.2488
0.307095
0.37006
0.436207
0.504105
0.572264
0.632775
0.678614
0.711744
0.735317
0.751214
0.760278
0.763802
0.764424
0.764441
0.764402
0.0621569
0.0772665
0.110891
0.159692
0.21832
0.283396
0.353416
0.426399
0.500271
0.57328
0.637749
0.687256
0.723022
0.748727
0.76614
0.775923
0.779935
0.780847
0.780859
0.78081
0.0238564
0.0396906
0.0756922
0.128303
0.191755
0.262301
0.33808
0.416644
0.495607
0.573532
0.642725
0.695548
0.733758
0.761682
0.780617
0.791364
0.795764
0.796777
0.796774
0.796714
-0.00958218
0.00698358
0.0451891
0.101062
0.168394
0.243282
0.323657
0.406981
0.491047
0.574321
0.647841
0.703311
0.744141
0.773988
0.794139
0.805633
0.8104
0.811514
0.811507
0.811433
-0.0392598
-0.0221608
0.0179385
0.0767052
0.147348
0.225873
0.310222
0.397995
0.487057
0.575197
0.652276
0.710849
0.753961
0.785044
0.806186
0.818329
0.82338
0.824627
0.824656
0.824577
-0.0663076
-0.0487445
-0.00694281
0.0544655
0.128076
0.20986
0.297836
0.389624
0.482949
0.575216
0.656062
0.717838
0.762578
0.794876
0.816837
0.829423
0.8348
0.836213
0.83628
0.836189
-0.0912929
-0.0733444
-0.0300253
0.0338112
0.11019
0.194996
0.286161
0.381193
0.477923
0.57409
0.659227
0.723856
0.770053
0.803433
0.826092
0.839173
0.844818
0.846357
0.846439
0.846327
-0.114802
-0.0964422
-0.0516946
0.014414
0.0933521
0.180832
0.274584
0.372126
0.471789
0.571999
0.661395
0.728669
0.776618
0.81101
0.83424
0.84772
0.853642
0.855235
0.855298
0.855168
-0.137084
-0.118276
-0.0722602
-0.00412332
0.0770939
0.166879
0.262772
0.362428
0.464866
0.569114
0.662564
0.732851
0.782634
0.817835
0.84159
0.855426
0.861409
0.862964
0.862989
0.862832
-0.158373
-0.139172
-0.0920246
-0.0220788
0.0611527
0.152945
0.250712
0.352334
0.457394
0.565357
0.662989
0.736825
0.788535
0.824554
0.848596
0.862375
0.868253
0.869628
0.869531
0.869364
-0.178823
-0.159294
-0.111178
-0.0396196
0.0454308
0.139044
0.238558
0.342029
0.449391
0.560643
0.662824
0.740677
0.794676
0.831654
0.85564
0.868916
0.874244
0.875315
0.875174
0.87504
-0.198691
-0.178886
-0.129849
-0.056774
0.0299939
0.125316
0.226404
0.331431
0.440693
0.554939
0.661825
0.744197
0.801349
0.839729
0.863359
0.875481
0.879877
0.880392
0.880193
0.880088
-0.218101
-0.198022
-0.148089
-0.073547
0.0148809
0.111792
0.214208
0.320427
0.431229
0.548176
0.659563
0.747167
0.808534
0.848994
0.872423
0.882937
0.885544
0.885049
0.884736
0.884669
-0.237213
-0.216809
-0.165945
-0.089954
7.9483e-05
0.0984422
0.201908
0.308969
0.420977
0.540292
0.655908
0.749106
0.815675
0.859508
0.883558
0.892168
0.892021
0.889727
0.888855
0.888823
-0.255921
-0.235214
-0.18343
-0.106026
-0.0144604
0.0851834
0.189428
0.297083
0.410063
0.531382
0.650827
0.749558
0.821998
0.870669
0.897061
0.904675
0.90093
0.895216
0.892642
0.892605
-0.27422
-0.253226
-0.20053
-0.121774
-0.0287815
0.071956
0.176745
0.284855
0.398705
0.521706
0.644396
0.748056
0.826583
0.881599
0.912661
0.921508
0.915527
0.904197
0.896682
0.895071
-0.291957
-0.270717
-0.217158
-0.137162
-0.0429038
0.0587055
0.163838
0.272356
0.387106
0.511585
0.63679
0.744544
0.828867
0.890951
0.928852
0.942413
0.936979
0.92025
0.897762
0.874533
-0.309084
-0.287625
-0.233257
-0.152218
-0.0570168
0.0451327
0.150429
0.25937
0.375144
0.501061
0.628077
0.738908
0.828351
0.897614
0.944084
0.964489
0.962915
0.948339
0.950636
0.966559
-0.325477
-0.303905
-0.248881
-0.167074
-0.0713623
0.0308935
0.136139
0.245521
0.362425
0.489697
0.617835
0.730698
0.824028
0.899202
0.953377
0.980709
0.980707
0.958978
0.925774
0.925466
-0.341142
-0.319603
-0.264045
-0.181662
-0.0858009
0.0161646
0.121153
0.230978
0.34903
0.477464
0.606089
0.71956
0.814666
0.892847
0.949425
0.974604
0.958553
0.909581
0.860006
0.844063
-0.355972
-0.334728
-0.278767
-0.195968
-0.100282
0.001048
0.105589
0.215797
0.334883
0.464153
0.592584
0.705139
0.799288
0.874252
0.922379
0.924544
0.894113
0.824499
0.757616
0.738597
-0.36993
-0.349337
-0.293063
-0.210026
-0.114833
-0.0143958
0.0895709
0.200052
0.319896
0.449532
0.577034
0.686779
0.775588
0.841165
0.868023
0.851984
0.791287
0.699284
0.619585
0.601023
-0.383391
-0.36357
-0.307274
-0.224397
-0.12999
-0.0305003
0.0729295
0.183563
0.303778
0.433218
0.558928
0.663978
0.743645
0.793166
0.790062
0.757816
0.651025
0.542919
0.454497
0.437629
-0.397289
-0.377962
-0.322135
-0.240016
-0.146564
-0.0478163
0.0553314
0.166032
0.286147
0.41472
0.537821
0.635692
0.702838
0.728948
0.704895
0.624673
0.495785
0.368262
0.261128
0.241543
-0.412174
-0.392913
-0.33797
-0.257158
-0.164706
-0.0663893
0.0367637
0.147412
0.266895
0.393833
0.513315
0.602744
0.653236
0.651662
0.613479
0.486008
0.328849
0.162245
0.0250097
-0.00178729
-0.428289
-0.408967
-0.354911
-0.275532
-0.184039
-0.0859622
0.017322
0.127732
0.246032
0.370462
0.485067
0.566039
0.597144
0.566425
0.493129
0.340956
0.161051
-0.0457275
-0.242549
-0.323076
-0.445806
-0.426337
-0.373058
-0.294972
-0.204317
-0.106408
-0.00304127
0.106884
0.223491
0.344597
0.453361
0.525004
0.535945
0.475836
0.351468
0.191858
0.00730961
-0.253899
-0.66114
-0.983052
-0.464971
-0.445324
-0.392518
-0.315351
-0.225341
-0.127599
-0.0242863
0.0849457
0.199498
0.316605
0.418916
0.48048
0.471776
0.391894
0.210265
0.0294268
-0.134729
-0.37244
-0.860562
-1.62393
-0.485766
-0.465823
-0.413326
-0.336831
-0.247318
-0.149793
-0.0467228
0.0615775
0.173746
0.286207
0.381843
0.432644
0.405149
0.313174
0.0900318
-0.105419
-0.243687
-0.37116
-0.545815
-0.823376
-0.508284
-0.488075
-0.435725
-0.359761
-0.270741
-0.173618
-0.0710929
0.0359267
0.145298
0.252409
0.341315
0.380707
0.337765
0.230831
-0.00193198
-0.184304
-0.293946
-0.350815
-0.390709
-0.421888
-0.532409
-0.51186
-0.45972
-0.384293
-0.295819
-0.199292
-0.0976313
0.00775182
0.114022
0.215591
0.297121
0.325184
0.273786
0.149547
-0.0696177
-0.225905
-0.311124
-0.33318
-0.359694
-0.364487
-0.558113
-0.537412
-0.485339
-0.410389
-0.322568
-0.226891
-0.126448
-0.0230487
0.0799027
0.175898
0.249316
0.266163
0.215
0.0691674
-0.122958
-0.24499
-0.301396
-0.322847
-0.329002
-0.329414
-0.584973
-0.564172
-0.512341
-0.437968
-0.350932
-0.256353
-0.157491
-0.0564611
0.0429242
0.133683
0.198985
0.204687
0.157749
-0.00903609
-0.167528
-0.257148
-0.284349
-0.308491
-0.310156
-0.309953
-0.612989
-0.592103
-0.540451
-0.466702
-0.380646
-0.287472
-0.190589
-0.0923581
0.00311411
0.0893698
0.147635
0.143518
0.0945974
-0.072117
-0.204998
-0.274926
-0.287958
-0.29486
-0.296823
-0.297196
-0.641371
-0.620478
-0.569176
-0.49625
-0.411394
-0.319928
-0.225421
-0.130445
-0.0391752
0.0431728
0.0958524
0.083502
0.0266913
-0.122023
-0.228307
-0.281636
-0.299056
-0.289835
-0.286631
-0.286072
-0.669576
-0.648778
-0.597898
-0.525984
-0.442648
-0.353256
-0.261514
-0.170196
-0.0834268
-0.0048631
0.0438452
0.0266936
-0.0431791
-0.160298
-0.235417
-0.267912
-0.288408
-0.280555
-0.274958
-0.273066
-0.696255
-0.675875
-0.625856
-0.555306
-0.473843
-0.386893
-0.298281
-0.210979
-0.128845
-0.0545973
-0.00897648
-0.0253009
-0.0992668
-0.189474
-0.24001
-0.251227
-0.263675
-0.2658
-0.264197
-0.262458
-0.720404
-0.700799
-0.65207
-0.583293
-0.504179
-0.420105
-0.334945
-0.25187
-0.174546
-0.10521
-0.0624645
-0.0721668
-0.139421
-0.207775
-0.24373
-0.250887
-0.252712
-0.256989
-0.25833
-0.257778
-0.74021
-0.721904
-0.675397
-0.609137
-0.532839
-0.452041
-0.370674
-0.291951
-0.219377
-0.154996
-0.114831
-0.118235
-0.170315
-0.216666
-0.242497
-0.25549
-0.255081
-0.25623
-0.257367
-0.257311
-0.754547
-0.738154
-0.69465
-0.63157
-0.558629
-0.481591
-0.404355
-0.330122
-0.262045
-0.201964
-0.164176
-0.165464
-0.201415
-0.226654
-0.240613
-0.253343
-0.256128
-0.258003
-0.259328
-0.259834
-0.761929
-0.748072
-0.708616
-0.649443
-0.580367
-0.507551
-0.434882
-0.365314
-0.301609
-0.24477
-0.207187
-0.213073
-0.242191
-0.251553
-0.249994
-0.259277
-0.266163
-0.271006
-0.273465
-0.274975
-0.762324
-0.751322
-0.716016
-0.66098
-0.596359
-0.528529
-0.460949
-0.396208
-0.336878
-0.282669
-0.240229
-0.257325
-0.292389
-0.308664
-0.306004
-0.314815
-0.317294
-0.317935
-0.317629
-0.318871
-0.755191
-0.745699
-0.714482
-0.664549
-0.605544
-0.543551
-0.481675
-0.421781
-0.366188
-0.31347
-0.267692
-0.289354
-0.343297
-0.395367
-0.430307
-0.450155
-0.444064
-0.4253
-0.40934
-0.402045
-0.735328
-0.726742
-0.701184
-0.658732
-0.607289
-0.55193
-0.496082
-0.440832
-0.388439
-0.335691
-0.286885
-0.300598
-0.366411
-0.461386
-0.540504
-0.569116
-0.562264
-0.536919
-0.509759
-0.489781
-0.696747
-0.6905
-0.675478
-0.644635
-0.602776
-0.554637
-0.503655
-0.452268
-0.403116
-0.352041
-0.290954
-0.274985
-0.318053
-0.405455
-0.492659
-0.527216
-0.525077
-0.500505
-0.473706
-0.454821
-0.654083
-0.652415
-0.646247
-0.625555
-0.592564
-0.551076
-0.504339
-0.455542
-0.40758
-0.357466
-0.280144
-0.20403
-0.165336
-0.171107
-0.201255
-0.200167
-0.167574
-0.127499
-0.0946716
-0.0758249
-0.624754
-0.624566
-0.61888
-0.60593
-0.580875
-0.545062
-0.500804
-0.451185
-0.398972
-0.342039
-0.250068
-0.108819
0.0444336
0.194136
0.302515
0.400817
0.483633
0.545762
0.582949
0.599726
-0.598807
-0.598303
-0.596313
-0.590171
-0.57065
-0.53882
-0.495565
-0.442399
-0.382246
-0.309448
-0.20602
-0.0355518
0.185109
0.424697
0.646279
0.822042
0.949421
1.03289
1.07558
1.09002
-0.581889
-0.581957
-0.582305
-0.57672
-0.562919
-0.534785
-0.490563
-0.432309
-0.362834
-0.275555
-0.160378
0.0162963
0.255726
0.522824
0.790529
1.01487
1.17725
1.27852
1.32953
1.34758
-0.568458
-0.568505
-0.568288
-0.565428
-0.55668
-0.531203
-0.487932
-0.42629
-0.346898
-0.248284
-0.126986
0.0362525
0.259307
0.521397
0.795742
1.03901
1.224
1.33954
1.39595
1.41498
-0.559668
-0.559412
-0.558968
-0.559056
-0.552692
-0.529915
-0.48828
-0.424764
-0.339082
-0.234028
-0.11479
0.0269176
0.218921
0.448817
0.696222
0.923333
1.10241
1.21702
1.2728
1.29069
-0.556321
-0.555615
-0.554598
-0.554127
-0.549238
-0.532748
-0.494414
-0.429796
-0.339645
-0.231988
-0.120839
-0.00135031
0.159705
0.349212
0.54899
0.734157
0.883301
0.980585
1.02691
1.04033
-0.561821
-0.560315
-0.55799
-0.555226
-0.550878
-0.541218
-0.506609
-0.439658
-0.345331
-0.237987
-0.138146
-0.0407315
0.0917059
0.245068
0.398027
0.53467
0.643912
0.715502
0.748855
0.757651
-0.581231
-0.579144
-0.576764
-0.575955
-0.576963
-0.567208
-0.525824
-0.450568
-0.351797
-0.247056
-0.16086
-0.0855222
0.0192092
0.14208
0.258606
0.35624
0.43139
0.480436
0.502027
0.50582
-0.610119
-0.609551
-0.611473
-0.616136
-0.618959
-0.60034
-0.544694
-0.456686
-0.353246
-0.25647
-0.186165
-0.1293
-0.0502616
0.0455932
0.135847
0.208345
0.262269
0.297662
0.314423
0.318632
-0.632191
-0.634771
-0.641081
-0.648231
-0.648068
-0.620833
-0.54883
-0.448112
-0.345844
-0.264126
-0.21063
-0.167216
-0.107621
-0.0335004
0.0379738
0.0956709
0.139062
0.168709
0.184114
0.186637
-0.620886
-0.624722
-0.633982
-0.642918
-0.64123
-0.606944
-0.522762
-0.419629
-0.330088
-0.267649
-0.228196
-0.194751
-0.147575
-0.0875584
-0.0289387
0.0183464
0.0539873
0.0788527
0.0922287
0.0947773
-0.547754
-0.553354
-0.56496
-0.5755
-0.572436
-0.534313
-0.456137
-0.370929
-0.305049
-0.261969
-0.232309
-0.205031
-0.167071
-0.1173
-0.0684885
-0.0301761
-0.00184273
0.0168877
0.0252791
0.0268722
-0.412482
-0.418129
-0.427868
-0.437705
-0.436734
-0.408979
-0.357345
-0.304942
-0.265889
-0.237463
-0.216468
-0.196603
-0.167984
-0.127856
-0.0877851
-0.0584429
-0.0386697
-0.0269815
-0.0232818
-0.0236919
-0.248439
-0.25212
-0.258936
-0.266899
-0.271719
-0.265181
-0.247686
-0.22928
-0.211495
-0.192206
-0.179924
-0.172103
-0.155164
-0.124695
-0.0936964
-0.0734376
-0.0618193
-0.0567893
-0.0571096
-0.0589491
-0.102257
-0.104437
-0.108971
-0.11593
-0.12556
-0.136522
-0.146173
-0.152575
-0.149258
-0.136663
-0.132069
-0.138775
-0.135908
-0.112642
-0.089993
-0.0786452
-0.0744836
-0.0749075
-0.0776814
-0.079893
-0.00232289
-0.00356432
-0.00713724
-0.0138793
-0.0254412
-0.0437467
-0.0656933
-0.0845217
-0.0904946
-0.0847806
-0.0861327
-0.104552
-0.122401
-0.0945302
-0.0788694
-0.0759514
-0.0790648
-0.0831627
-0.0866074
-0.0886018
0.050367
0.0496084
0.0463474
0.0390508
0.027412
0.00978715
-0.0136395
-0.0358794
-0.0473961
-0.0490662
-0.0534357
-0.074609
-0.097727
-0.0750778
-0.0663268
-0.0706796
-0.0779184
-0.0826878
-0.0857071
-0.0874112
0.0700015
0.0695679
0.066969
0.0597462
0.0480558
0.0322415
0.0111669
-0.0104903
-0.0249664
-0.032258
-0.0371902
-0.0519193
-0.0672203
-0.0589037
-0.0573774
-0.0650483
-0.0719804
-0.0755735
-0.0779766
-0.079454
0.0709957
0.070759
0.0690403
0.0629903
0.0517858
0.037078
0.0187021
-0.000658924
-0.0156093
-0.0256776
-0.0309663
-0.0391446
-0.04887
-0.0464643
-0.0502755
-0.0583961
-0.0634961
-0.0657279
-0.0675821
-0.068797
0.0632521
0.0630818
0.062035
0.0578487
0.0486086
0.035224
0.0189502
0.00253836
-0.0101963
-0.0203401
-0.0263062
-0.0310963
-0.0381792
-0.0393958
-0.0445256
-0.0507767
-0.0536562
-0.0549287
-0.0563908
-0.0572993
0.0527554
0.052631
0.051928
0.0494012
0.0432405
0.0326741
0.0184084
0.00382788
-0.00611745
-0.0127133
-0.0186946
-0.0229988
-0.028831
-0.0340349
-0.0389689
-0.0422526
-0.0431159
-0.0441219
-0.0453702
-0.0460173
0.0422166
0.0421727
0.0416676
0.0400902
0.0366742
0.0302171
0.0196821
0.00669874
-0.00248234
-0.00538918
-0.0085154
-0.0144926
-0.0200691
-0.0263878
-0.0302713
-0.0319417
-0.0329302
-0.0345869
-0.0357139
-0.0361528
0.0325897
0.0326018
0.0322956
0.0311684
0.0292223
0.0263322
0.0208171
0.0112526
0.00178742
-0.0026837
0.000938849
-0.00751794
-0.0131826
-0.0169415
-0.019423
-0.0216243
-0.0242384
-0.0264893
-0.0274064
-0.0277043
0.0239866
0.0240059
0.0238788
0.0231099
0.021698
0.0204653
0.0187169
0.013671
0.00541018
-0.00177977
0.00564407
-0.00320799
-0.00897329
-0.00777375
-0.0104371
-0.0137215
-0.0168381
-0.018794
-0.0194099
-0.0196109
0.0164015
0.0164049
0.0163956
0.015927
0.0146877
0.0136335
0.013158
0.0110506
0.00523237
-0.00071186
0.0056079
-0.000830502
-0.00654476
-0.00401667
-0.00581902
-0.00862819
-0.0109731
-0.0119738
-0.0120925
-0.0122203
0.00956121
0.00955249
0.00962769
0.00951127
0.00858609
0.00725396
0.00657643
0.00577831
0.0025237
-0.00237527
0.00491661
-0.000145129
-0.00559944
-0.00235942
-0.003146
-0.00616994
-0.00724282
-0.00662507
-0.0062037
-0.00639778
0.00323368
0.00323458
0.00331517
0.00347688
0.00317605
0.00214567
0.00148474
0.00159857
0.000936451
-0.00284607
0.00354716
0.00059093
-0.00544817
0.000425645
-0.00032487
-0.00436728
-0.00453288
-0.0033762
-0.00295282
-0.0030934
-0.553624
-0.0982388
0.179206
0.387093
0.553361
0.688056
0.79629
0.887319
0.960715
0.996094
0.108341
0.31922
0.434843
0.554058
0.668479
0.763531
0.833004
0.871822
0.868596
0.867826
0.374757
0.506837
0.600299
0.683124
0.756951
0.817702
0.860738
0.882139
0.887731
0.923528
0.55983
0.647839
0.72211
0.783302
0.833286
0.873422
0.904262
0.927832
0.947366
0.980223
0.707828
0.765106
0.821104
0.866387
0.903126
0.933395
0.959408
0.983582
1.00815
1.03329
0.828543
0.868649
0.908834
0.943198
0.972328
0.997728
1.02112
1.04395
1.06644
1.08521
0.933187
0.960548
0.990355
1.01727
1.04146
1.06368
1.08476
1.10502
1.12417
1.14002
1.02591
1.04488
1.06821
1.09077
1.11162
1.13099
1.14934
1.16692
1.18354
1.19712
1.11039
1.12756
1.14683
1.16508
1.18236
1.19889
1.21485
1.23019
1.24469
1.25692
1.19368
1.20722
1.22381
1.23979
1.25484
1.26908
1.28266
1.29576
1.30832
1.3188
1.28057
1.28909
1.30207
1.31602
1.32934
1.34168
1.35317
1.36399
1.37433
1.38337
1.36867
1.37428
1.38416
1.39595
1.40748
1.41784
1.42697
1.43527
1.44324
1.45032
1.46036
1.46392
1.47085
1.47907
1.48729
1.4951
1.50226
1.5087
1.51484
1.52064
1.55623
1.55652
1.55839
1.56127
1.56491
1.56954
1.57535
1.58211
1.58907
1.59513
1.65809
1.64933
1.63986
1.63262
1.62924
1.63071
1.63739
1.64868
1.66301
1.67646
1.76473
1.72764
1.69678
1.67776
1.66882
1.66844
1.6766
1.69557
1.72688
1.76576
)
;

boundaryField
{
    wall-4
    {
        type            zeroGradient;
    }
    pressure-outlet-7
    {
        type            fixedValue;
        value           uniform 0;
    }
    velocity-inlet-6
    {
        type            zeroGradient;
    }
    velocity-inlet-5
    {
        type            zeroGradient;
    }
    frontAndBackPlanes
    {
        type            empty;
    }
}


// ************************************************************************* //
