/*--------------------------------*- C++ -*----------------------------------*\
  =========                 |
  \\      /  F ield         | OpenFOAM: The Open Source CFD Toolbox
   \\    /   O peration     | Website:  https://openfoam.org
    \\  /    A nd           | Version:  6
     \\/     M anipulation  |
\*---------------------------------------------------------------------------*/
FoamFile
{
    version     2.0;
    format      ascii;
    class       volVectorField;
    location    "65";
    object      U;
}
// * * * * * * * * * * * * * * * * * * * * * * * * * * * * * * * * * * * * * //

dimensions      [0 1 -1 0 0 0 0];

internalField   nonuniform List<vector> 
2200
(
(0.877625 -0.020179 0)
(1.00471 -0.0399821 0)
(1.00283 -0.0342558 0)
(1.00034 -0.0231783 0)
(0.999937 -0.0154549 0)
(1.00004 -0.0100927 0)
(1.00001 -0.00637852 0)
(0.999992 -0.00390045 0)
(1.00001 -0.00209733 0)
(1.00014 -0.000545164 0)
(1.00017 0.000898028 0)
(1.00039 0.00240822 0)
(1.00033 0.00420159 0)
(1.00028 0.00666536 0)
(1.00018 0.0103259 0)
(1.00003 0.0156384 0)
(1.00054 0.0232395 0)
(1.00311 0.0341298 0)
(1.00473 0.0400536 0)
(0.87766 0.0201931 0)
(0.700819 -0.0265885 0)
(0.993611 -0.0586193 0)
(1.02974 -0.0597075 0)
(1.02178 -0.0488377 0)
(1.01385 -0.0360931 0)
(1.00829 -0.025008 0)
(1.00507 -0.0167247 0)
(1.00324 -0.0105842 0)
(1.00219 -0.0057533 0)
(1.00163 -0.0015982 0)
(1.00148 0.00268238 0)
(1.00169 0.00688729 0)
(1.00277 0.0115259 0)
(1.00464 0.0175096 0)
(1.00797 0.0256766 0)
(1.0136 0.0366851 0)
(1.02139 0.0495123 0)
(1.02922 0.060493 0)
(0.993494 0.0587383 0)
(0.700524 0.0266211 0)
(0.530487 -0.0214124 0)
(0.966294 -0.0552411 0)
(1.05275 -0.0605648 0)
(1.04846 -0.0532152 0)
(1.03239 -0.0414722 0)
(1.02128 -0.0315722 0)
(1.01373 -0.0227065 0)
(1.00902 -0.0151151 0)
(1.00626 -0.00845715 0)
(1.005 -0.00209921 0)
(1.00517 0.00413415 0)
(1.00651 0.0101361 0)
(1.00915 0.0167285 0)
(1.01368 0.0241806 0)
(1.02096 0.0328385 0)
(1.03187 0.0425225 0)
(1.04807 0.0539241 0)
(1.05268 0.0605182 0)
(0.965476 0.055609 0)
(0.529306 0.0215626 0)
(0.393154 -0.0132632 0)
(0.909885 -0.0453795 0)
(1.05582 -0.0513132 0)
(1.0665 -0.04724 0)
(1.05113 -0.0389161 0)
(1.03584 -0.0310897 0)
(1.02485 -0.0239392 0)
(1.01725 -0.0168733 0)
(1.01229 -0.00973711 0)
(1.00943 -0.00244304 0)
(1.00904 0.0050968 0)
(1.01145 0.0125082 0)
(1.01623 0.019264 0)
(1.02379 0.0259629 0)
(1.03484 0.0328123 0)
(1.05023 0.0403118 0)
(1.06537 0.0482527 0)
(1.05408 0.0520748 0)
(0.907656 0.0458734 0)
(0.390364 0.0134523 0)
(0.30923 -0.00618126 0)
(0.846357 -0.0330489 0)
(1.04821 -0.042884 0)
(1.0773 -0.0391621 0)
(1.06532 -0.0330497 0)
(1.04865 -0.0270553 0)
(1.03579 -0.0217433 0)
(1.02618 -0.0159151 0)
(1.01955 -0.00932522 0)
(1.01592 -0.00192174 0)
(1.01592 0.00567199 0)
(1.01933 0.0126739 0)
(1.02562 0.019108 0)
(1.03481 0.0246864 0)
(1.04729 0.0296631 0)
(1.06368 0.0352962 0)
(1.07542 0.0408005 0)
(1.04558 0.0441424 0)
(0.842081 0.0336833 0)
(0.304915 0.00638194 0)
(0.265448 -0.00190738 0)
(0.788937 -0.0218623 0)
(1.03221 -0.033713 0)
(1.08161 -0.0320597 0)
(1.07503 -0.0275004 0)
(1.05868 -0.0224354 0)
(1.0455 -0.0182753 0)
(1.03517 -0.0136241 0)
(1.02754 -0.00792734 0)
(1.02271 -0.00117467 0)
(1.02208 0.00607241 0)
(1.02599 0.0128001 0)
(1.03314 0.0179634 0)
(1.04324 0.0220231 0)
(1.05633 0.025572 0)
(1.07264 0.0300445 0)
(1.07852 0.0340657 0)
(1.02788 0.0352192 0)
(0.782327 0.0225947 0)
(0.259772 0.0021522 0)
(0.241254 -0.000327572 0)
(0.738713 -0.0139677 0)
(1.01287 -0.0266135 0)
(1.08246 -0.0264112 0)
(1.08134 -0.022949 0)
(1.06634 -0.0186018 0)
(1.05342 -0.0150744 0)
(1.04313 -0.01109 0)
(1.03534 -0.00609973 0)
(1.03066 -7.19589e-05 0)
(1.03034 0.00625161 0)
(1.03432 0.0118297 0)
(1.0413 0.0164407 0)
(1.05091 0.0200309 0)
(1.06326 0.02311 0)
(1.07766 0.0268573 0)
(1.07809 0.0294054 0)
(1.00618 0.0286554 0)
(0.728787 0.0149673 0)
(0.233794 0.000674612 0)
(0.226508 -1.9077e-05 0)
(0.695762 -0.00916863 0)
(0.992319 -0.0217739 0)
(1.08088 -0.0230041 0)
(1.08552 -0.0201047 0)
(1.07238 -0.0160586 0)
(1.05963 -0.0123843 0)
(1.04964 -0.00852893 0)
(1.04183 -0.00400766 0)
(1.03665 0.00131244 0)
(1.03573 0.00695589 0)
(1.03933 0.012027 0)
(1.04602 0.01583 0)
(1.05534 0.0187413 0)
(1.0679 0.0214398 0)
(1.08038 0.0244593 0)
(1.07417 0.026492 0)
(0.982193 0.0242126 0)
(0.681753 0.0103966 0)
(0.216903 0.000447188 0)
(0.216838 -3.97698e-05 0)
(0.660489 -0.00630838 0)
(0.972033 -0.0181509 0)
(1.07839 -0.0202182 0)
(1.0892 -0.0176855 0)
(1.07758 -0.0141226 0)
(1.06513 -0.0107661 0)
(1.05558 -0.00705853 0)
(1.04845 -0.00267095 0)
(1.04391 0.00236991 0)
(1.043 0.00742924 0)
(1.04597 0.0119574 0)
(1.05183 0.015685 0)
(1.06022 0.0186473 0)
(1.07173 0.0211901 0)
(1.0821 0.0237417 0)
(1.06949 0.0248778 0)
(0.958211 0.0212548 0)
(0.641555 0.00788817 0)
(0.204592 0.000571137 0)
(0.209737 -7.95598e-05 0)
(0.632145 -0.00456834 0)
(0.953618 -0.0154082 0)
(1.07558 -0.0182709 0)
(1.09246 -0.0161311 0)
(1.08245 -0.0126184 0)
(1.07002 -0.00895025 0)
(1.0604 -0.00512564 0)
(1.05292 -0.000771155 0)
(1.04778 0.00400356 0)
(1.04644 0.00896391 0)
(1.04896 0.0132488 0)
(1.05442 0.0165868 0)
(1.06279 0.0190418 0)
(1.07461 0.0213196 0)
(1.0832 0.0233514 0)
(1.0627 0.0239783 0)
(0.933683 0.0192325 0)
(0.606632 0.0065573 0)
(0.19413 0.000722715 0)
(0.203878 -7.26954e-05 0)
(0.608709 -0.00339606 0)
(0.935667 -0.0130705 0)
(1.07267 -0.0163993 0)
(1.09598 -0.0145457 0)
(1.08721 -0.0112772 0)
(1.07472 -0.00774918 0)
(1.06509 -0.00402976 0)
(1.05792 0.000316982 0)
(1.05315 0.00527427 0)
(1.05139 0.0101534 0)
(1.05331 0.0143191 0)
(1.05829 0.0175269 0)
(1.06623 0.0201078 0)
(1.07735 0.0222872 0)
(1.08357 0.0238038 0)
(1.05602 0.0233984 0)
(0.9099 0.0176965 0)
(0.576233 0.00584757 0)
(0.184406 0.000851273 0)
(0.199355 3.95262e-06 0)
(0.59085 -0.00237259 0)
(0.920539 -0.0106642 0)
(1.06976 -0.014179 0)
(1.09931 -0.0125615 0)
(1.09201 -0.00940664 0)
(1.07919 -0.00571522 0)
(1.06898 -0.00182028 0)
(1.06097 0.00263423 0)
(1.05521 0.00753979 0)
(1.05314 0.0123547 0)
(1.0548 0.0162986 0)
(1.05964 0.0192673 0)
(1.06772 0.021196 0)
(1.07906 0.0229547 0)
(1.08328 0.0240434 0)
(1.04682 0.0228942 0)
(0.885207 0.0165134 0)
(0.548361 0.00548625 0)
(0.174744 0.000944733 0)
(0.195688 0.0001344 0)
(0.575981 -0.00153735 0)
(0.906151 -0.00856728 0)
(1.06719 -0.0119466 0)
(1.10299 -0.0103398 0)
(1.09708 -0.00728672 0)
(1.08432 -0.00376455 0)
(1.07391 4.61182e-06 0)
(1.06585 0.00446105 0)
(1.06004 0.0093873 0)
(1.05722 0.0143901 0)
(1.05828 0.0183941 0)
(1.06285 0.0209906 0)
(1.07061 0.0229135 0)
(1.081 0.0243095 0)
(1.08244 0.0246659 0)
(1.0377 0.0228502 0)
(0.861009 0.0157476 0)
(0.522778 0.00535135 0)
(0.165291 0.00101398 0)
(0.193592 0.000276385 0)
(0.565463 -0.000554277 0)
(0.894671 -0.00642549 0)
(1.06476 -0.00985781 0)
(1.10661 -0.00829183 0)
(1.10219 -0.00503464 0)
(1.08905 -0.00108163 0)
(1.07786 0.00301792 0)
(1.0687 0.00770483 0)
(1.06156 0.0126938 0)
(1.05819 0.0171934 0)
(1.05902 0.0206957 0)
(1.06325 0.0232195 0)
(1.0712 0.0245572 0)
(1.08114 0.0254918 0)
(1.08013 0.025565 0)
(1.02537 0.0230196 0)
(0.835151 0.0152942 0)
(0.497744 0.00535039 0)
(0.155694 0.00107535 0)
(0.192765 0.000455366 0)
(0.557926 0.000106885 0)
(0.884743 -0.00407291 0)
(1.06334 -0.00691027 0)
(1.11056 -0.00515855 0)
(1.10736 -0.00173808 0)
(1.09432 0.00224997 0)
(1.08291 0.00635652 0)
(1.07346 0.0107931 0)
(1.06624 0.0156321 0)
(1.06219 0.0205173 0)
(1.0621 0.0239874 0)
(1.06606 0.0257986 0)
(1.07351 0.0269431 0)
(1.08165 0.0274293 0)
(1.0776 0.0266819 0)
(1.01317 0.0235216 0)
(0.809511 0.0150669 0)
(0.473814 0.00547284 0)
(0.146228 0.00114238 0)
(0.193547 0.000521981 0)
(0.554208 0.00136589 0)
(0.878521 -0.00185771 0)
(1.06282 -0.00414371 0)
(1.11519 -0.00210299 0)
(1.11337 0.00167255 0)
(1.09998 0.00614595 0)
(1.08778 0.0105942 0)
(1.07725 0.0154276 0)
(1.06857 0.0205083 0)
(1.06323 0.0244466 0)
(1.06257 0.0272111 0)
(1.06556 0.0290003 0)
(1.07276 0.0296298 0)
(1.08054 0.0297301 0)
(1.07239 0.0285891 0)
(0.997239 0.0242461 0)
(0.781665 0.0152546 0)
(0.4493 0.00575287 0)
(0.136402 0.00122468 0)
(0.196073 0.000696889 0)
(0.554831 0.00204861 0)
(0.874488 0.000610156 0)
(1.06406 -0.000833516 0)
(1.1206 0.00159062 0)
(1.11979 0.00570589 0)
(1.10639 0.0103901 0)
(1.09393 0.0151482 0)
(1.0832 0.0200238 0)
(1.07404 0.0247423 0)
(1.06767 0.0289494 0)
(1.06567 0.032061 0)
(1.06807 0.0332906 0)
(1.07437 0.0336181 0)
(1.07953 0.0329347 0)
(1.06728 0.0306271 0)
(0.981223 0.0256845 0)
(0.753469 0.0158552 0)
(0.424813 0.0061544 0)
(0.126401 0.00133092 0)
(0.200617 0.00107216 0)
(0.558003 0.00299703 0)
(0.875316 0.00327579 0)
(1.06681 0.00262194 0)
(1.12682 0.00576258 0)
(1.12709 0.0104918 0)
(1.11311 0.0157843 0)
(1.0996 0.0210156 0)
(1.08722 0.0263031 0)
(1.07607 0.0314665 0)
(1.06861 0.0357435 0)
(1.06561 0.0378592 0)
(1.06657 0.038676 0)
(1.07235 0.0381662 0)
(1.07682 0.0368342 0)
(1.05882 0.0340212 0)
(0.960478 0.0275293 0)
(0.721973 0.016917 0)
(0.39845 0.00670513 0)
(0.115598 0.00146793 0)
(0.207538 0.00150459 0)
(0.565727 0.00438611 0)
(0.879765 0.00591924 0)
(1.07222 0.00679366 0)
(1.13416 0.0105474 0)
(1.13531 0.0159204 0)
(1.1211 0.0215595 0)
(1.10714 0.0271465 0)
(1.09464 0.0327416 0)
(1.08309 0.0381302 0)
(1.07315 0.0424112 0)
(1.06754 0.0446871 0)
(1.06759 0.0452536 0)
(1.07227 0.0441759 0)
(1.07342 0.0421449 0)
(1.04973 0.0376719 0)
(0.938947 0.0303377 0)
(0.688902 0.0183584 0)
(0.370799 0.00740623 0)
(0.104161 0.0016249 0)
(0.216347 0.00195315 0)
(0.577452 0.00586578 0)
(0.888462 0.00891148 0)
(1.0801 0.0113304 0)
(1.14294 0.016217 0)
(1.14483 0.0226197 0)
(1.12989 0.0292295 0)
(1.11454 0.0355411 0)
(1.09938 0.0418647 0)
(1.08412 0.0475807 0)
(1.07219 0.0518689 0)
(1.06669 0.0535228 0)
(1.06511 0.052983 0)
(1.06841 0.0508323 0)
(1.0683 0.0478273 0)
(1.03665 0.0426537 0)
(0.911357 0.033161 0)
(0.651117 0.0201023 0)
(0.340094 0.00814897 0)
(0.0916251 0.00175385 0)
(0.22952 0.00257364 0)
(0.59725 0.00825905 0)
(0.905082 0.0134074 0)
(1.09216 0.0174044 0)
(1.15381 0.0231798 0)
(1.15583 0.0302631 0)
(1.14008 0.0377279 0)
(1.12351 0.0447998 0)
(1.10732 0.0516549 0)
(1.09135 0.0581483 0)
(1.07682 0.0628847 0)
(1.06703 0.0636761 0)
(1.06427 0.0626541 0)
(1.06623 0.059914 0)
(1.06161 0.0555668 0)
(1.02178 0.0481318 0)
(0.881784 0.0374301 0)
(0.610251 0.0223263 0)
(0.307013 0.00896304 0)
(0.0783461 0.00187593 0)
(0.245648 0.00319844 0)
(0.620968 0.0100771 0)
(0.926006 0.0172637 0)
(1.10779 0.0235139 0)
(1.16689 0.0311469 0)
(1.16853 0.0400377 0)
(1.15089 0.0491162 0)
(1.13188 0.0575689 0)
(1.11182 0.0655591 0)
(1.09068 0.0718292 0)
(1.07266 0.0749811 0)
(1.06394 0.0753424 0)
(1.05983 0.073412 0)
(1.05975 0.0690767 0)
(1.05302 0.0634525 0)
(1.00224 0.0550234 0)
(0.843931 0.0413993 0)
(0.562427 0.0245381 0)
(0.269992 0.00963987 0)
(0.0639942 0.00193643 0)
(0.26813 0.00445296 0)
(0.654996 0.0143608 0)
(0.956082 0.0247266 0)
(1.12894 0.0334583 0)
(1.18334 0.0422988 0)
(1.18348 0.052858 0)
(1.16329 0.0630987 0)
(1.14167 0.0726669 0)
(1.11949 0.0810739 0)
(1.09686 0.0876464 0)
(1.07671 0.0915519 0)
(1.06193 0.0904886 0)
(1.05576 0.0864319 0)
(1.05487 0.0810255 0)
(1.04159 0.0734981 0)
(0.978555 0.0618742 0)
(0.802513 0.0466743 0)
(0.51086 0.0269908 0)
(0.230756 0.0101628 0)
(0.0493317 0.00194447 0)
(0.299829 0.00561057 0)
(0.701466 0.0175604 0)
(0.996325 0.0319062 0)
(1.15621 0.0443973 0)
(1.20344 0.0561336 0)
(1.20159 0.0693446 0)
(1.17788 0.0813245 0)
(1.15222 0.0920748 0)
(1.12468 0.101348 0)
(1.09549 0.10751 0)
(1.06966 0.108392 0)
(1.05575 0.105174 0)
(1.04933 0.100383 0)
(1.04533 0.0924585 0)
(1.02776 0.0830104 0)
(0.949377 0.070408 0)
(0.750291 0.0510174 0)
(0.449602 0.0287287 0)
(0.187621 0.0102857 0)
(0.0341661 0.00183334 0)
(0.335518 0.00885529 0)
(0.758143 0.0261282 0)
(1.04472 0.044329 0)
(1.18978 0.0607652 0)
(1.22812 0.0746778 0)
(1.2216 0.0912946 0)
(1.19258 0.1054 0)
(1.16192 0.117263 0)
(1.12995 0.126125 0)
(1.09761 0.130557 0)
(1.07033 0.130173 0)
(1.05208 0.124953 0)
(1.04287 0.116215 0)
(1.0375 0.106911 0)
(1.00961 0.0956846 0)
(0.912799 0.0781487 0)
(0.692433 0.056447 0)
(0.386296 0.0306728 0)
(0.144689 0.0101618 0)
(0.0204732 0.0017013 0)
(0.413617 0.0137067 0)
(0.844104 0.0365101 0)
(1.11208 0.0626292 0)
(1.23153 0.0846401 0)
(1.25624 0.101639 6.36954e-34)
(1.24323 0.121429 -2.86165e-34)
(1.20791 0.136611 0)
(1.1719 0.148363 0)
(1.13376 0.156032 0)
(1.09463 0.157939 0)
(1.06142 0.1529 0)
(1.0423 0.142956 0)
(1.03337 0.133089 0)
(1.02323 0.120937 0)
(0.987198 0.105998 0)
(0.869096 0.0871313 0)
(0.621058 0.0596562 0)
(0.309309 0.0301328 0)
(0.0958356 0.00911306 0)
(0.00547792 0.00151832 0)
(0.479057 0.0282652 4.80777e-20)
(0.944206 0.0569612 -3.63461e-20)
(1.18205 0.0919475 0)
(1.27346 0.120005 2.75963e-20)
(1.28634 0.138734 -2.23697e-20)
(1.26358 0.161168 3.01942e-34)
(1.22069 0.17662 0)
(1.17848 0.187964 1.61941e-20)
(1.13488 0.193989 -5.33936e-20)
(1.09189 0.192204 1.09415e-20)
(1.05712 0.182433 0)
(1.03534 0.169527 -2.80734e-20)
(1.02191 0.154841 -3.3661e-20)
(1.00779 0.139883 5.88771e-20)
(0.952874 0.123032 -4.64485e-20)
(0.801465 0.0949466 0)
(0.523059 0.0625693 -1.66198e-20)
(0.222318 0.0290074 0)
(0.0486742 0.0081989 -9.19268e-20)
(-0.0102405 0.00074875 1.08336e-19)
(0.514975 0.0535309 -6.26861e-21)
(1.0079 0.0946206 1.09636e-19)
(1.2334 0.134966 -7.00362e-21)
(1.30779 0.164343 -6.83478e-20)
(1.3118 0.185765 -4.6871e-20)
(1.27982 0.208287 7.61432e-20)
(1.23012 0.223285 0)
(1.18211 0.233577 0)
(1.13267 0.237229 8.49778e-20)
(1.08337 0.231607 0)
(1.04231 0.218371 1.01195e-19)
(1.01656 0.20064 3.0123e-20)
(1.00193 0.182684 4.34119e-22)
(0.978411 0.163309 -6.39946e-20)
(0.908099 0.137164 0)
(0.732721 0.106733 0)
(0.442337 0.0663907 -2.7038e-19)
(0.163065 0.0286077 6.80016e-19)
(0.0164871 0.00555195 -4.02003e-19)
(-0.0217786 -0.00146804 -4.73378e-19)
(0.526203 0.0778402 -6.37002e-20)
(1.04427 0.142156 2.41931e-20)
(1.26866 0.188462 1.28132e-20)
(1.3346 0.218602 1.1811e-19)
(1.33154 0.240154 1.38299e-20)
(1.29193 0.261227 -1.9836e-19)
(1.23568 0.274687 6.77323e-20)
(1.18136 0.282512 0)
(1.12636 0.283174 -1.8008e-19)
(1.07339 0.274458 1.61207e-19)
(1.03019 0.256178 -2.73041e-19)
(1.00182 0.232445 1.28053e-19)
(0.983467 0.209652 -8.25161e-20)
(0.956292 0.185917 1.86404e-19)
(0.874192 0.158247 0)
(0.684117 0.117223 -6.73291e-20)
(0.392697 0.0712704 0)
(0.140247 0.028687 3.70714e-19)
(0.00464481 0.00269909 -8.78235e-19)
(-0.0268048 -0.00370878 5.49655e-19)
(0.526078 0.102993 1.75751e-19)
(1.06843 0.195364 -7.76332e-20)
(1.29367 0.24848 -1.5677e-20)
(1.35318 0.279183 0)
(1.34452 0.299539 -8.66035e-20)
(1.29878 0.318404 1.06915e-19)
(1.23677 0.329137 -7.30817e-20)
(1.17717 0.333252 0)
(1.11703 0.32958 1.28079e-19)
(1.05879 0.315797 -1.13209e-19)
(1.01062 0.291837 2.3608e-19)
(0.981206 0.265361 0)
(0.960584 0.240128 -1.75408e-19)
(0.926936 0.211751 9.90835e-20)
(0.840306 0.174118 2.47125e-19)
(0.64934 0.131179 -2.17481e-19)
(0.372033 0.079553 3.43203e-19)
(0.136555 0.0302176 -7.58818e-19)
(0.00222384 0.00151553 4.79933e-19)
(-0.028995 -0.00564724 -6.00141e-19)
(0.514314 0.130591 -6.05675e-20)
(1.0748 0.245112 4.33404e-20)
(1.30582 0.307879 -5.13503e-20)
(1.36302 0.341912 1.03027e-19)
(1.35045 0.361858 -9.71606e-20)
(1.30006 0.378004 3.3859e-20)
(1.23365 0.385536 3.45435e-21)
(1.16941 0.385409 -1.44744e-19)
(1.10545 0.3772 -1.34858e-19)
(1.04537 0.358499 -2.43134e-19)
(0.997814 0.330036 -5.07173e-19)
(0.964582 0.298374 -1.5603e-19)
(0.940091 0.26907 2.17489e-21)
(0.907288 0.236243 -3.37197e-19)
(0.816319 0.199795 -4.64164e-21)
(0.627571 0.146701 3.1598e-19)
(0.365784 0.0890207 -9.47649e-20)
(0.141133 0.0362967 -5.49054e-20)
(0.00835627 0.00209636 0)
(-0.0272282 -0.00701261 1.27487e-18)
(0.499754 0.155271 0)
(1.07518 0.294833 -3.82775e-21)
(1.31143 0.367989 -8.21558e-21)
(1.3662 0.404723 -1.25384e-20)
(1.35067 0.423704 9.34326e-20)
(1.29693 0.437449 -7.89306e-20)
(1.22717 0.441888 7.99663e-20)
(1.16014 0.43729 2.37965e-19)
(1.09387 0.42336 -7.50204e-20)
(1.03038 0.398294 1.20124e-19)
(0.975956 0.365127 2.72385e-19)
(0.940665 0.332705 3.39859e-19)
(0.916417 0.301262 -2.04159e-19)
(0.877269 0.265634 3.64907e-19)
(0.789234 0.218151 -2.88837e-19)
(0.60864 0.165515 0)
(0.362665 0.102539 -7.1944e-19)
(0.150605 0.0442502 9.6837e-19)
(0.0192322 0.00496035 7.22662e-20)
(-0.0226603 -0.00714356 -1.34833e-18)
(0.482894 0.17693 -6.54225e-21)
(1.06542 0.339982 1.14679e-21)
(1.30907 0.424216 5.92707e-20)
(1.36366 0.465516 -8.19258e-20)
(1.34587 0.484892 7.79674e-20)
(1.28949 0.496377 -7.66962e-20)
(1.21762 0.497462 1.5868e-19)
(1.14855 0.488159 -7.10218e-20)
(1.07972 0.469443 -3.03258e-19)
(1.01349 0.440539 -4.04693e-22)
(0.958952 0.404059 -2.95903e-19)
(0.922315 0.366249 -3.65343e-19)
(0.892487 0.330585 2.25483e-19)
(0.855476 0.292607 -1.31033e-19)
(0.767551 0.247562 3.14226e-19)
(0.594774 0.184721 0)
(0.362497 0.117685 -4.47311e-19)
(0.160763 0.0538848 6.60675e-19)
(0.0308417 0.00949672 1.2493e-18)
(-0.0171114 -0.00633974 -1.46936e-18)
(0.469294 0.197802 -6.60177e-20)
(1.05663 0.385763 2.58013e-20)
(1.30413 0.480299 -3.77192e-20)
(1.35739 0.524427 8.40742e-20)
(1.33778 0.543084 1.18625e-20)
(1.27959 0.552529 -1.4985e-19)
(1.20598 0.550856 -9.26814e-20)
(1.13503 0.537829 -9.20573e-20)
(1.06346 0.514122 -1.7205e-19)
(0.993705 0.479099 2.76006e-19)
(0.935139 0.436488 2.994e-19)
(0.896021 0.397972 5.79912e-19)
(0.866365 0.363515 0)
(0.826133 0.322545 6.18131e-21)
(0.741766 0.266991 -8.6313e-19)
(0.578279 0.206651 2.0259e-19)
(0.361395 0.133289 9.70802e-19)
(0.170163 0.0644429 -2.86508e-19)
(0.0423679 0.0154374 5.94227e-19)
(-0.0112644 -0.00475275 -4.96282e-20)
(0.456062 0.216259 7.93701e-21)
(1.04284 0.426874 4.80282e-20)
(1.29487 0.532104 -1.39952e-20)
(1.34794 0.580408 8.90151e-20)
(1.32678 0.599463 -1.51826e-19)
(1.2668 0.607069 1.48942e-19)
(1.19158 0.602619 9.61668e-20)
(1.11874 0.585646 2.74327e-19)
(1.04533 0.557781 3.44293e-19)
(0.974784 0.518939 -3.19308e-19)
(0.917731 0.473856 0)
(0.875488 0.430685 -2.19422e-19)
(0.841979 0.390749 2.5192e-19)
(0.804764 0.347577 3.17181e-19)
(0.721508 0.296826 -1.83742e-19)
(0.565565 0.225341 -4.45192e-19)
(0.359839 0.149177 -1.32579e-19)
(0.177925 0.0757295 -2.01804e-21)
(0.0522759 0.02199 0)
(-0.0059798 -0.00282509 0)
(0.446575 0.234966 -7.63215e-20)
(1.0321 0.468762 0)
(1.28489 0.58355 8.27864e-22)
(1.3365 0.634197 -1.3459e-20)
(1.31392 0.652414 1.74183e-19)
(1.25247 0.65823 -4.34838e-20)
(1.17581 0.651537 9.83571e-20)
(1.10192 0.631634 -1.85581e-19)
(1.02749 0.599708 2.61671e-19)
(0.954862 0.555552 -1.04751e-19)
(0.891902 0.504276 1.7175e-19)
(0.847702 0.459851 6.96473e-19)
(0.817366 0.421943 1.42656e-20)
(0.776176 0.376493 -3.31506e-19)
(0.696372 0.314211 6.1205e-19)
(0.548191 0.246505 3.34586e-21)
(0.355113 0.164396 1.41841e-19)
(0.181827 0.0868159 -6.76192e-19)
(0.0592373 0.0282254 6.96854e-19)
(-0.00172319 -0.000904681 -8.20764e-19)
(0.438445 0.251894 4.72266e-23)
(1.01872 0.506317 0)
(1.27234 0.630642 0)
(1.3232 0.684869 -1.50883e-21)
(1.29927 0.703409 -5.12837e-20)
(1.23641 0.707585 7.05219e-20)
(1.15898 0.69846 -1.81871e-19)
(1.08455 0.675172 0)
(1.00945 0.640042 -3.85862e-19)
(0.935545 0.592856 4.62483e-19)
(0.873311 0.53985 4.89681e-19)
(0.828374 0.490877 -2.55504e-19)
(0.792967 0.446377 -3.09033e-19)
(0.755174 0.398686 7.24409e-19)
(0.676359 0.342541 -2.17762e-19)
(0.533397 0.263034 -2.59187e-19)
(0.348003 0.179082 -1.54942e-19)
(0.182619 0.0965656 -7.30719e-19)
(0.0636201 0.0334903 1.0721e-19)
(0.00150378 0.000788969 8.88721e-19)
(0.433183 0.269705 -3.84678e-20)
(1.00842 0.544737 -4.90822e-20)
(1.26003 0.677523 2.30227e-20)
(1.30897 0.733496 9.48442e-23)
(1.28393 0.751079 -5.47921e-20)
(1.22025 0.753418 1.14455e-19)
(1.14234 0.742194 0)
(1.06774 0.716688 1.12634e-19)
(0.991684 0.678756 -8.88123e-20)
(0.915044 0.627497 7.71987e-19)
(0.847588 0.568736 -1.10754e-19)
(0.800761 0.517816 1.26838e-19)
(0.768358 0.475581 0)
(0.727251 0.425451 -3.92136e-19)
(0.650752 0.356693 4.74304e-19)
(0.513103 0.282567 0)
(0.337963 0.191746 -3.33662e-19)
(0.180209 0.104497 9.82078e-19)
(0.0649052 0.0373898 1.16718e-19)
(0.00352978 0.00199892 -1.09546e-18)
(0.428493 0.287915 -9.67115e-20)
(0.996416 0.579118 1.20925e-19)
(1.2463 0.720018 0)
(1.29404 0.778932 1.59269e-20)
(1.268 0.796748 0)
(1.20351 0.797483 -1.48483e-19)
(1.12549 0.784022 0)
(1.05064 0.755661 0)
(0.973545 0.715441 -1.17671e-19)
(0.895372 0.661881 -7.33842e-19)
(0.828843 0.601797 -9.04876e-19)
(0.780499 0.546563 1.4814e-19)
(0.743148 0.496692 5.34143e-19)
(0.70562 0.443365 4.31401e-19)
(0.629227 0.382642 -1.5219e-18)
(0.495213 0.295497 -6.08736e-19)
(0.325602 0.202489 3.56862e-19)
(0.174339 0.110241 0)
(0.0638036 0.0393074 1.00111e-18)
(0.00436571 0.00269618 -1.1809e-18)
(0.425689 0.305132 1.16143e-19)
(0.987441 0.614434 -1.41025e-19)
(1.23347 0.762425 0)
(1.27896 0.822493 -1.14573e-20)
(1.25207 0.839289 -3.65961e-22)
(1.1872 0.838171 0)
(1.10906 0.8227 5.66745e-20)
(1.03397 0.792618 7.81861e-20)
(0.955772 0.750512 -2.21402e-19)
(0.875356 0.694307 9.72525e-20)
(0.802854 0.628819 0)
(0.75128 0.570805 6.15383e-19)
(0.717698 0.522119 6.10541e-21)
(0.676595 0.466741 2.32699e-19)
(0.602331 0.391615 2.76098e-19)
(0.472616 0.310917 0)
(0.312622 0.209942 -5.81259e-19)
(0.167316 0.113084 1.13646e-18)
(0.061124 0.0400458 -1.20825e-18)
(0.0042424 0.00293434 2.54253e-18)
(0.423687 0.321543 0)
(0.977184 0.645657 0)
(1.21989 0.800469 -7.00352e-20)
(1.26379 0.862888 0)
(1.23605 0.879833 0)
(1.17059 0.877175 -1.25929e-19)
(1.0925 0.859709 5.81951e-20)
(1.01734 0.82722 1.80411e-20)
(0.938408 0.783493 -5.06609e-20)
(0.856379 0.725915 0)
(0.783279 0.659616 -1.37964e-19)
(0.729833 0.597271 -5.01733e-19)
(0.690688 0.539187 -6.032e-19)
(0.652661 0.478539 -2.42297e-19)
(0.579549 0.412485 2.98848e-19)
(0.453982 0.31683 -7.03953e-19)
(0.299363 0.214126 1.2508e-18)
(0.160181 0.113494 1.4839e-21)
(0.0580851 0.039716 -1.1559e-18)
(0.00378938 0.00272141 -1.71398e-19)
(0.422891 0.336871 0)
(0.969775 0.677919 -1.15589e-19)
(1.20743 0.838646 8.46206e-20)
(1.24876 0.901685 0)
(1.22019 0.917536 0)
(1.15453 0.913033 2.54122e-19)
(1.07668 0.893706 0)
(1.0017 0.859983 0)
(0.921967 0.815141 -4.85209e-19)
(0.837512 0.756186 1.34457e-19)
(0.758052 0.685548 -1.22534e-18)
(0.699844 0.619272 0)
(0.662263 0.561268 -6.58317e-19)
(0.620922 0.497631 9.84588e-21)
(0.551014 0.413028 -9.62073e-19)
(0.431333 0.324532 3.78547e-19)
(0.286974 0.214354 1.24704e-21)
(0.155664 0.11087 -1.30304e-18)
(0.0567579 0.038635 6.22089e-19)
(0.00386056 0.00236308 1.83378e-19)
(0.42245 0.351522 0)
(0.961118 0.706184 -1.59466e-19)
(1.19448 0.872619 9.04527e-20)
(1.23393 0.937485 1.14974e-19)
(1.20456 0.953364 -1.30242e-20)
(1.13857 0.947352 2.79778e-20)
(1.06115 0.92629 -3.53019e-20)
(0.986521 0.890683 4.67966e-19)
(0.906264 0.844878 5.1904e-19)
(0.819944 0.785428 1.02175e-18)
(0.739378 0.715261 1.01806e-18)
(0.677678 0.645235 1.79137e-19)
(0.632731 0.575887 9.45986e-19)
(0.592852 0.502515 5.83525e-19)
(0.525132 0.426284 6.9e-19)
(0.4134 0.319123 -4.13826e-19)
(0.27745 0.207806 -4.79407e-19)
(0.156252 0.10629 5.62605e-19)
(0.0604951 0.0369073 -3.35437e-19)
(0.00622634 0.00219664 5.92289e-19)
(0.422565 0.36546 2.26325e-19)
(0.954919 0.735655 2.50258e-19)
(1.18269 0.907008 5.31003e-20)
(1.21943 0.972029 1.59105e-20)
(1.1893 0.986717 6.34096e-21)
(1.1234 0.978867 -7.02353e-20)
(1.0467 0.956095 3.43998e-20)
(0.972597 0.919665 -1.99392e-20)
(0.89169 0.873436 -6.02561e-19)
(0.803061 0.81373 -1.109e-18)
(0.71585 0.740548 7.05814e-20)
(0.647852 0.666878 0)
(0.60191 0.597282 0)
(0.556664 0.519174 -3.04941e-19)
(0.490309 0.415793 -1.13247e-18)
(0.389329 0.313928 8.91024e-19)
(0.273192 0.19343 5.22711e-19)
(0.164466 0.0947378 0)
(0.0772445 0.032176 1.07723e-18)
(0.0180228 0.00376273 -6.36676e-19)
(0.422625 0.378891 -1.19071e-19)
(0.947421 0.761152 1.06591e-19)
(1.17052 0.937302 -1.2636e-19)
(1.20536 1.00375 -1.00797e-19)
(1.17458 1.01837 -1.36543e-20)
(1.10874 1.00905 -2.13491e-20)
(1.03285 0.984773 0)
(0.959205 0.946832 -5.88303e-19)
(0.877709 0.900098 7.45806e-20)
(0.787137 0.840705 0)
(0.698572 0.769379 0)
(0.626601 0.694243 1.14701e-19)
(0.571585 0.613127 1.536e-19)
(0.523397 0.519859 -3.30334e-19)
(0.457557 0.422702 8.13116e-19)
(0.362798 0.288207 -9.70582e-19)
(0.265669 0.167005 -1.12055e-18)
(0.189833 0.0673467 9.93808e-19)
(0.14729 0.0213345 -3.85233e-19)
(0.0889151 0.022431 2.23663e-19)
(0.422882 0.391499 1.50589e-19)
(0.942035 0.787895 0)
(1.15951 0.968207 0)
(1.19173 1.03449 -2.70076e-20)
(1.16041 1.04787 2.18676e-20)
(1.09504 1.03678 -1.97896e-20)
(1.02017 1.01095 1.54975e-19)
(0.947026 0.972424 6.0293e-19)
(0.864709 0.925587 1.09092e-18)
(0.771983 0.866676 -8.34686e-20)
(0.677219 0.793733 1.73087e-19)
(0.598737 0.716473 -1.02649e-18)
(0.540317 0.636882 -1.0252e-18)
(0.482778 0.540881 -1.77615e-19)
(0.408544 0.404803 0)
(0.326981 0.274759 -4.01019e-21)
(0.250404 0.109447 6.17595e-19)
(0.207302 -0.0105938 -1.05878e-18)
(0.159833 -0.0869803 8.1087e-19)
(0.0768342 -0.0492395 6.88516e-19)
(0.422823 0.403872 -3.33059e-19)
(0.935002 0.810467 -1.5026e-19)
(1.14793 0.994988 8.49675e-21)
(1.17852 1.06268 5.89453e-20)
(1.14684 1.0761 0)
(1.08181 1.06373 -7.96982e-20)
(1.00777 1.03666 -2.21914e-19)
(0.934764 0.99692 -1.94763e-21)
(0.851406 0.949751 -5.71534e-19)
(0.756397 0.891433 -8.19079e-20)
(0.660757 0.821882 7.60767e-20)
(0.578891 0.746368 9.01982e-19)
(0.510151 0.657534 1.00022e-18)
(0.444133 0.543188 1.73328e-19)
(0.367594 0.42012 8.78779e-19)
(0.261245 0.228608 0)
(0.158493 0.0938051 0)
(0.0149498 0.208515 6.98456e-19)
(-0.0438396 0.701233 -1.62113e-20)
(0.00377033 1.67673 -7.925e-19)
(0.422978 0.415574 1.84361e-19)
(0.930005 0.834746 4.23199e-19)
(1.13746 1.02298 -5.84364e-19)
(1.16567 1.0905 2.88282e-19)
(1.13375 1.10295 -6.4176e-21)
(1.0695 1.08922 -3.25587e-20)
(0.996458 1.06105 0)
(0.923545 1.02118 -5.02194e-19)
(0.838787 0.974248 0)
(0.741248 0.916888 1.15171e-18)
(0.639425 0.846855 -9.33216e-20)
(0.550493 0.770987 1.04641e-19)
(0.476416 0.687596 1.14979e-18)
(0.398091 0.581403 -3.74728e-19)
(0.278377 0.403554 -4.45686e-19)
(0.183174 0.289207 0)
(0.072062 0.524936 0)
(0.0206055 1.47704 0)
(0.0544218 2.51785 -4.047e-19)
(0.0667964 2.92948 -2.4425e-19)
(0.422443 0.42679 0)
(0.923419 0.854814 0)
(1.12653 1.04688 2.13746e-19)
(1.15334 1.11581 -2.33384e-19)
(1.12141 1.12865 9.94051e-20)
(1.05783 1.11423 3.93762e-20)
(0.985546 1.08546 2.81775e-20)
(0.912251 1.04489 -2.19383e-20)
(0.825906 0.997954 8.08211e-20)
(0.725767 0.941417 -1.3221e-18)
(0.623433 0.876183 1.68948e-19)
(0.5315 0.805435 9.05814e-19)
(0.446671 0.716292 -1.1454e-18)
(0.351136 0.585295 -1.26006e-18)
(0.247675 0.471505 4.22808e-19)
(0.145746 0.677659 0)
(0.078111 1.72242 5.77166e-19)
(0.0924735 2.73233 6.36658e-19)
(0.0971698 3.08772 -7.17764e-19)
(0.0866627 3.21023 7.78804e-19)
(0.4221 0.437508 0)
(0.918862 0.876781 3.75674e-19)
(1.11683 1.07223 -5.32082e-20)
(1.14148 1.14087 3.28946e-19)
(1.10962 1.15298 -1.04342e-19)
(1.04702 1.13771 0)
(0.975555 1.10839 0)
(0.90194 1.06816 0)
(0.81392 1.02184 4.54709e-19)
(0.711457 0.966772 6.10827e-20)
(0.60316 0.901633 0)
(0.504842 0.831583 -9.00273e-19)
(0.4144 0.750412 0)
(0.300601 0.63741 8.97307e-19)
(0.197265 0.717782 -6.11007e-19)
(0.134442 1.57359 -4.8609e-19)
(0.132362 2.72902 -1.12048e-18)
(0.148174 3.125 -6.00499e-19)
(0.126871 3.25019 -8.49244e-19)
(0.112269 3.28542 7.46418e-19)
(0.420443 0.446933 -1.32387e-19)
(0.912613 0.894195 1.64777e-20)
(1.10664 1.09336 -5.93515e-20)
(1.13022 1.16345 -2.5322e-19)
(1.09865 1.17622 0)
(1.03684 1.16074 0)
(0.96586 1.13141 0)
(0.89145 1.091 3.47678e-20)
(0.801726 1.04512 -5.75008e-19)
(0.696889 0.991115 0)
(0.589017 0.931513 0)
(0.489427 0.869388 0)
(0.380803 0.775395 0)
(0.307574 0.748801 6.59359e-19)
(0.234247 1.24825 1.623e-18)
(0.189995 2.52075 4.75981e-19)
(0.20276 3.09802 9.6428e-19)
(0.190941 3.26787 -7.41329e-19)
(0.155493 3.32066 2.62787e-19)
(0.136943 3.33193 0)
(0.418894 0.455477 1.36545e-19)
(0.907633 0.913685 -8.36351e-19)
(1.09732 1.1167 -2.27144e-19)
(1.11928 1.18674 -4.94495e-20)
(1.0881 1.19888 2.47377e-20)
(1.02717 1.18286 -8.67071e-20)
(0.956639 1.15334 -2.81452e-21)
(0.881683 1.11373 -3.82232e-19)
(0.790498 1.06894 0)
(0.684085 1.01704 -7.84098e-20)
(0.571148 0.957961 7.13277e-20)
(0.467199 0.89493 0)
(0.369425 0.836594 0)
(0.300384 1.00636 -8.27949e-19)
(0.227822 1.96806 1.08004e-19)
(0.222527 2.99121 -3.65837e-19)
(0.249932 3.2715 7.81628e-19)
(0.229552 3.35252 5.86443e-19)
(0.177411 3.37268 -8.81532e-19)
(0.158577 3.38228 4.41177e-19)
(0.415984 0.463758 2.68688e-19)
(0.899938 0.929257 8.15527e-19)
(1.08656 1.13702 2.72205e-19)
(1.10829 1.20921 0)
(1.07771 1.2222 0)
(1.01739 1.20604 6.77653e-20)
(0.946993 1.17662 6.29142e-20)
(0.871131 1.13704 3.4057e-19)
(0.778622 1.09311 2.23397e-20)
(0.670495 1.04247 1.00309e-18)
(0.560013 0.989155 -1.19263e-18)
(0.450301 0.933303 0)
(0.379795 0.923766 0)
(0.317683 1.37397 -5.62682e-19)
(0.281268 2.63745 -6.84634e-19)
(0.320641 3.20584 0)
(0.338226 3.33935 -8.74217e-19)
(0.264509 3.39029 -1.17779e-20)
(0.199225 3.42388 5.86432e-19)
(0.175364 3.44117 -2.4873e-19)
(0.413283 0.472629 -5.10617e-19)
(0.893885 0.95012 -3.91519e-19)
(1.07632 1.16234 0)
(1.09679 1.23454 0)
(1.06675 1.24666 0)
(1.00711 1.22964 0)
(0.936886 1.19972 -7.47022e-20)
(0.86063 1.16104 2.92637e-19)
(0.767379 1.11853 0)
(0.659154 1.07064 -9.13043e-19)
(0.544841 1.01751 2.13826e-18)
(0.443273 0.970903 8.71344e-20)
(0.386734 1.06936 1.15249e-19)
(0.342987 1.9012 9.09562e-19)
(0.33502 2.97946 -5.00733e-19)
(0.373703 3.30597 0)
(0.347031 3.40285 2.5979e-19)
(0.266445 3.47485 7.21272e-20)
(0.219058 3.51651 4.51304e-20)
(0.184361 3.50998 9.64343e-20)
(0.40949 0.48253 2.42006e-19)
(0.884691 0.96666 -3.99382e-19)
(1.0642 1.18395 0)
(1.08475 1.25877 -7.30114e-20)
(1.05528 1.27197 2.52584e-19)
(0.996051 1.25461 0)
(0.925909 1.22458 0)
(0.849047 1.18581 -5.04323e-19)
(0.755265 1.14439 -5.80191e-20)
(0.646395 1.09784 8.93773e-19)
(0.532712 1.0488 -1.018e-18)
(0.452604 1.03048 5.86842e-19)
(0.408066 1.30703 0)
(0.378721 2.34423 -4.8086e-19)
(0.40091 3.18831 3.12457e-19)
(0.44896 3.39883 2.17725e-19)
(0.420993 3.47418 0)
(0.363863 3.52431 1.9218e-20)
(0.315559 3.53588 -2.11363e-19)
(0.235986 3.47437 -3.58685e-20)
(0.406324 0.493169 -4.79438e-19)
(0.878022 0.99065 5.72541e-19)