/*--------------------------------*- C++ -*----------------------------------*\
  =========                 |
  \\      /  F ield         | OpenFOAM: The Open Source CFD Toolbox
   \\    /   O peration     | Website:  https://openfoam.org
    \\  /    A nd           | Version:  6
     \\/     M anipulation  |
\*---------------------------------------------------------------------------*/
FoamFile
{
    version     2.0;
    format      ascii;
    class       volScalarField;
    location    "8";
    object      p;
}
// * * * * * * * * * * * * * * * * * * * * * * * * * * * * * * * * * * * * * //

dimensions      [0 2 -2 0 0 0 0];

internalField   nonuniform List<scalar> 
2200
(
0.462454
0.447291
0.430108
0.414196
0.400199
0.388826
0.379657
0.372439
0.367446
0.364796
0.36499
0.367957
0.373209
0.38064
0.389964
0.401437
0.415503
0.431455
0.448662
0.463835
0.405383
0.401616
0.39716
0.392899
0.388152
0.382612
0.376505
0.370796
0.366417
0.364059
0.364251
0.367016
0.37169
0.377604
0.383855
0.389487
0.394304
0.398607
0.403087
0.406863
0.362607
0.363127
0.365563
0.368917
0.371239
0.370996
0.369007
0.366303
0.363453
0.361631
0.361873
0.364177
0.367325
0.370226
0.372352
0.372695
0.37044
0.367138
0.36474
0.364236
0.338756
0.340165
0.343425
0.347572
0.351014
0.353388
0.355005
0.355767
0.355745
0.355392
0.355697
0.356517
0.356883
0.356379
0.354948
0.352709
0.349358
0.345272
0.342045
0.340648
0.328284
0.329353
0.331568
0.334155
0.336509
0.338928
0.341276
0.343179
0.344775
0.345998
0.346336
0.345703
0.344609
0.343036
0.340906
0.338617
0.336347
0.333812
0.331627
0.330567
0.325888
0.326811
0.328545
0.330449
0.332148
0.333894
0.335648
0.337208
0.338409
0.339351
0.339759
0.33955
0.338874
0.337673
0.336175
0.334611
0.333028
0.331197
0.329505
0.328596
0.326887
0.327507
0.328741
0.330254
0.331763
0.333331
0.334967
0.336552
0.337664
0.33804
0.338536
0.338949
0.338384
0.337316
0.336043
0.33473
0.333393
0.331972
0.330779
0.330166
0.327194
0.327446
0.328019
0.328836
0.32984
0.331023
0.332179
0.333211
0.334322
0.335248
0.335809
0.335859
0.335562
0.335184
0.334499
0.333626
0.3328
0.332063
0.331535
0.3313
0.324392
0.324419
0.324512
0.324678
0.325022
0.325557
0.326349
0.327359
0.328452
0.32954
0.330311
0.33062
0.330619
0.330343
0.330054
0.32983
0.329675
0.329622
0.329607
0.329589
0.320052
0.320013
0.31998
0.320028
0.320192
0.320481
0.320976
0.321773
0.322823
0.323993
0.325035
0.325685
0.325992
0.326062
0.326142
0.326222
0.3263
0.326413
0.326508
0.326553
0.315775
0.315779
0.315857
0.316042
0.316326
0.316726
0.317281
0.318046
0.319055
0.320308
0.321574
0.32264
0.323175
0.323532
0.323765
0.323929
0.324017
0.324057
0.324072
0.324084
0.311603
0.311641
0.311747
0.311934
0.312259
0.312747
0.313432
0.314351
0.31554
0.317022
0.318542
0.319818
0.320711
0.321335
0.321717
0.321938
0.322058
0.322113
0.322128
0.32213
0.306837
0.306871
0.306981
0.307173
0.307488
0.307994
0.308753
0.309828
0.311272
0.313092
0.31506
0.31674
0.31798
0.318818
0.319367
0.319718
0.319939
0.32007
0.320133
0.320145
0.301438
0.301464
0.301581
0.301821
0.302207
0.302797
0.303687
0.304971
0.306737
0.309022
0.311542
0.313736
0.315348
0.31646
0.317217
0.317718
0.318037
0.318228
0.318322
0.318344
0.295544
0.295577
0.295718
0.296009
0.296497
0.297247
0.298363
0.299966
0.302177
0.305069
0.308289
0.311087
0.313148
0.314596
0.315582
0.31623
0.31664
0.316879
0.316992
0.317018
0.289041
0.289087
0.289271
0.289639
0.29025
0.291197
0.292607
0.294634
0.297434
0.301106
0.305206
0.308759
0.311379
0.313222
0.314474
0.315294
0.315812
0.316114
0.316255
0.316286
0.281685
0.281745
0.281976
0.28244
0.283212
0.284416
0.28621
0.288793
0.29236
0.297036
0.302249
0.306749
0.310063
0.312391
0.313969
0.315003
0.315655
0.316035
0.316212
0.316251
0.27317
0.27325
0.273557
0.274168
0.275174
0.276726
0.279031
0.282339
0.2869
0.292867
0.299489
0.305176
0.309345
0.312266
0.314241
0.315536
0.316354
0.316833
0.317056
0.317105
0.263282
0.263381
0.263766
0.264546
0.265841
0.267848
0.270832
0.275105
0.28097
0.288597
0.296999
0.304158
0.30938
0.313027
0.315488
0.317097
0.318108
0.318694
0.318965
0.319023
0.251317
0.251474
0.252028
0.253098
0.25483
0.257475
0.261371
0.26692
0.274487
0.284239
0.294862
0.30383
0.310335
0.314864
0.317916
0.319913
0.321175
0.321917
0.322263
0.322339
0.237073
0.237238
0.237911
0.239296
0.241598
0.245117
0.250288
0.257585
0.267403
0.279856
0.29321
0.304361
0.312415
0.318021
0.321803
0.324277
0.32583
0.326725
0.32713
0.32721
0.218943
0.219282
0.220346
0.222338
0.225499
0.230279
0.237232
0.246903
0.259665
0.275492
0.292131
0.305867
0.315762
0.32267
0.327352
0.330431
0.33238
0.33353
0.334072
0.334192
0.196406
0.196762
0.198148
0.200937
0.205481
0.21226
0.221856
0.234847
0.251411
0.271349
0.291848
0.308572
0.320616
0.329098
0.334923
0.338805
0.34128
0.34271
0.343349
0.343469
0.166649
0.167459
0.169778
0.174064
0.180793
0.190517
0.204012
0.221477
0.242769
0.267567
0.292447
0.312515
0.326993
0.33732
0.344555
0.349463
0.352667
0.354594
0.355486
0.355674
0.127234
0.128612
0.132437
0.139376
0.149949
0.164733
0.18392
0.20704
0.233995
0.264358
0.294076
0.317795
0.334966
0.347395
0.356388
0.362768
0.367054
0.369687
0.370971
0.371176
0.0749044
0.0767381
0.0834264
0.0953746
0.113038
0.135678
0.16212
0.192052
0.225569
0.262056
0.296914
0.324461
0.344498
0.359213
0.370113
0.378283
0.384147
0.387773
0.389306
0.389346
0.00359851
0.00939132
0.0243006
0.0461475
0.0738751
0.105295
0.139333
0.176733
0.217422
0.260669
0.301333
0.333425
0.357119
0.374979
0.388641
0.399413
0.408216
0.414588
0.417818
0.418452
-0.0777798
-0.0631048
-0.0363674
-0.0027768
0.0350665
0.0745097
0.116251
0.16143
0.209555
0.260045
0.307267
0.344716
0.372752
0.39439
0.411474
0.42519
0.436634
0.44623
0.452796
0.455279
-0.144112
-0.125494
-0.0920355
-0.0496254
-0.00332551
0.0439928
0.0939404
0.146907
0.202269
0.259743
0.313135
0.355356
0.386926
0.411266
0.430486
0.445826
0.458118
0.468034
0.474882
0.477756
-0.194065
-0.175491
-0.138729
-0.0909589
-0.0388047
0.0153831
0.0728338
0.132836
0.19491
0.25884
0.317748
0.363895
0.397992
0.423864
0.443906
0.459661
0.472061
0.481654
0.488064
0.490784
-0.235371
-0.215666
-0.176258
-0.125235
-0.0693409
-0.0100316
0.0531668
0.118987
0.187037
0.256843
0.320725
0.370221
0.406272
0.433175
0.453644
0.469499
0.481925
0.491455
0.497722
0.50019
-0.270277
-0.249334
-0.20727
-0.153548
-0.094945
-0.0320592
0.0352023
0.105684
0.178929
0.254108
0.322683
0.375363
0.413283
0.441217
0.462205
0.478262
0.490745
0.50028
0.506489
0.509048
-0.300428
-0.278629
-0.234238
-0.178189
-0.117243
-0.0515461
0.0188725
0.0932134
0.170953
0.251072
0.324213
0.380125
0.42002
0.449103
0.47071
0.487052
0.499623
0.509156
0.515287
0.517815
-0.327082
-0.304735
-0.258762
-0.201015
-0.137969
-0.0697417
0.00351115
0.081241
0.162984
0.247759
0.325484
0.384803
0.426831
0.457155
0.479437
0.49609
0.508753
0.518281
0.524354
0.526849
-0.351234
-0.328522
-0.281747
-0.222871
-0.158046
-0.0875538
-0.0116882
0.0691143
0.154568
0.243865
0.326313
0.389311
0.433725
0.465491
0.488554
0.505594
0.518414
0.527968
0.533999
0.536454
-0.373888
-0.350886
-0.303623
-0.243884
-0.177638
-0.10526
-0.0271322
0.0564195
0.145358
0.239141
0.326638
0.393808
0.440963
0.474341
0.498323
0.515816
0.52879
0.538357
0.54437
0.546784
-0.395674
-0.372294
-0.324527
-0.264014
-0.196652
-0.122784
-0.0428321
0.0430891
0.13522
0.233408
0.326255
0.398036
0.448377
0.483767
0.508847
0.526899
0.540157
0.549815
0.555699
0.557979
-0.416725
-0.39289
-0.344549
-0.283336
-0.215072
-0.14004
-0.058678
0.0291945
0.124095
0.226472
0.324976
0.402055
0.456208
0.493911
0.520285
0.53898
0.552417
0.562033
0.568018
0.570375
-0.437018
-0.412754
-0.363817
-0.301994
-0.232959
-0.157018
-0.0745879
0.0148098
0.11199
0.218305
0.322838
0.405721
0.464215
0.504722
0.532656
0.552077
0.565858
0.575587
0.581427
0.583561
-0.45656
-0.431929
-0.382424
-0.320065
-0.25035
-0.173715
-0.0905072
-7.37774e-06
0.0989026
0.208675
0.319185
0.408314
0.471874
0.516052
0.545967
0.56621
0.580215
0.589882
0.595548
0.597612
-0.475362
-0.450405
-0.400373
-0.337522
-0.267212
-0.190084
-0.106376
-0.0152043
0.0848545
0.197582
0.31438
0.4105
0.479542
0.527728
0.560206
0.581524
0.595615
0.605095
0.610609
0.61254
-0.493409
-0.468143
-0.417612
-0.354283
-0.283467
-0.206031
-0.122098
-0.0306762
0.0700162
0.185203
0.308053
0.411313
0.485934
0.539001
0.57531
0.598299
0.612516
0.621513
0.626415
0.627844
-0.510666
-0.485107
-0.434078
-0.370254
-0.299017
-0.221432
-0.137554
-0.0463193
0.0544891
0.171408
0.299619
0.410621
0.491157
0.54955
0.590353
0.616626
0.631241
0.638669
0.642107
0.642846
-0.527094
-0.501273
-0.449714
-0.385358
-0.313772
-0.236189
-0.152663
-0.0620857
0.0383669
0.156522
0.289935
0.40931
0.495861
0.558277
0.604349
0.63573
0.652553
0.658532
0.658333
0.656842
-0.542662
-0.516626
-0.464466
-0.399533
-0.327676
-0.250246
-0.167363
-0.0778853
0.0218876
0.140863
0.278457
0.405849
0.4988
0.565511
0.616795
0.654973
0.677966
0.683382
0.676214
0.668801
-0.55736
-0.531129
-0.478288
-0.412748
-0.340699
-0.263579
-0.18161
-0.0936112
0.00515012
0.12429
0.265314
0.400441
0.500716
0.57145
0.625172
0.670126
0.704054
0.717157
0.700463
0.666999
-0.571188
-0.544745
-0.4912
-0.425106
-0.352979
-0.276389
-0.195649
-0.109504
-0.0122976
0.106284
0.250613
0.393646
0.502108
0.576426
0.631918
0.678343
0.722563
0.759379
0.781935
0.78848
-0.584159
-0.55751
-0.503278
-0.436728
-0.364696
-0.288942
-0.209786
-0.125847
-0.0308767
0.0861666
0.233162
0.384681
0.50082
0.578591
0.630464
0.671756
0.709882
0.743821
0.742913
0.730167
-0.596319
-0.569462
-0.51448
-0.447528
-0.375821
-0.301213
-0.223906
-0.142378
-0.0503441
0.0637134
0.212825
0.373893
0.496051
0.570895
0.614885
0.646409
0.652981
0.634762
0.599056
0.585943
-0.607664
-0.580635
-0.524784
-0.457509
-0.386452
-0.313255
-0.23794
-0.158976
-0.0708073
0.0385857
0.189613
0.36117
0.489528
0.554219
0.585096
0.585534
0.555795
0.497415
0.432132
0.42304
-0.618193
-0.591088
-0.534217
-0.466787
-0.396749
-0.325086
-0.251774
-0.175558
-0.092203
0.0110156
0.163009
0.346167
0.477781
0.528553
0.532005
0.499737
0.443357
0.340963
0.249891
0.235148
-0.628084
-0.601008
-0.543257
-0.475962
-0.407114
-0.336899
-0.265495
-0.192301
-0.114838
-0.0194911
0.13162
0.329392
0.461936
0.493546
0.457202
0.399358
0.277811
0.141606
0.0293195
0.0127622
-0.637826
-0.61069
-0.55271
-0.485821
-0.41798
-0.348939
-0.279319
-0.209563
-0.139541
-0.0534577
0.0942694
0.308626
0.440308
0.447209
0.372449
0.262098
0.0840067
-0.0899979
-0.23184
-0.252053
-0.647658
-0.620323
-0.562796
-0.496503
-0.429314
-0.361125
-0.293201
-0.227427
-0.166186
-0.0907956
0.0501484
0.279318
0.410989
0.386814
0.284661
0.103042
-0.129392
-0.366874
-0.575898
-0.601215
-0.657622
-0.630044
-0.573263
-0.507626
-0.440811
-0.373253
-0.306941
-0.245734
-0.194391
-0.133026
-0.00184479
0.238299
0.369781
0.306698
0.164495
-0.0745943
-0.362317
-0.687261
-0.983683
-1.05892
-0.667834
-0.639988
-0.583915
-0.518815
-0.452178
-0.385155
-0.320416
-0.264288
-0.224606
-0.181916
-0.0661645
0.178965
0.299557
0.188031
-0.0113302
-0.276028
-0.588349
-1.00707
-1.54467
-1.94905
-0.678379
-0.650203
-0.59458
-0.52976
-0.463131
-0.396582
-0.333471
-0.282417
-0.255446
-0.23267
-0.148428
0.08911
0.187394
0.0320424
-0.232582
-0.530717
-0.815057
-1.23072
-1.98905
-3.15606
-0.6892
-0.660588
-0.605131
-0.540321
-0.473525
-0.407333
-0.346049
-0.299967
-0.286416
-0.288906
-0.256804
-0.0494393
0.0230791
-0.155606
-0.47278
-0.790096
-1.04019
-1.29537
-1.6264
-2.05862
-0.700129
-0.67098
-0.615516
-0.550514
-0.483381
-0.417359
-0.358027
-0.31737
-0.316495
-0.358465
-0.403064
-0.25652
-0.183456
-0.38506
-0.709319
-0.992027
-1.18205
-1.32301
-1.40473
-1.46753
-0.711021
-0.681294
-0.625617
-0.560216
-0.492573
-0.426448
-0.368767
-0.334002
-0.34559
-0.440898
-0.588457
-0.531401
-0.439102
-0.635295
-0.925321
-1.12424
-1.22412
-1.28014
-1.33272
-1.35331
-0.721722
-0.691328
-0.635303
-0.569302
-0.500909
-0.434348
-0.377654
-0.348063
-0.372779
-0.5296
-0.801098
-0.845688
-0.748924
-0.874
-1.16496
-1.28953
-1.26735
-1.24371
-1.30015
-1.32688
-0.732188
-0.701133
-0.644508
-0.57764
-0.508169
-0.440696
-0.384053
-0.357515
-0.395133
-0.60188
-1.00096
-1.15522
-1.02771
-1.06242
-1.42201
-1.56391
-1.47604
-1.45052
-1.46203
-1.47416
-0.742252
-0.710436
-0.653129
-0.585156
-0.51419
-0.445002
-0.387184
-0.360719
-0.408727
-0.643555
-1.11777
-1.36156
-1.18073
-1.1606
-1.6249
-1.95319
-1.98958
-1.93975
-1.85808
-1.82271
-0.752187
-0.719621
-0.661255
-0.59178
-0.518734
-0.446938
-0.386506
-0.356804
-0.407349
-0.636094
-1.09658
-1.34421
-1.16348
-1.20608
-1.74765
-2.3002
-2.51794
-2.41568
-2.23483
-2.13189
-0.761834
-0.728359
-0.668851
-0.597551
-0.521851
-0.446551
-0.381889
-0.34598
-0.383522
-0.575636
-0.944818
-1.10869
-0.977021
-1.09317
-1.55558
-2.11689
-2.36909
-2.25338
-2.05345
-1.94251
-0.772172
-0.73756
-0.676262
-0.602547
-0.523498
-0.443884
-0.373446
-0.326867
-0.339049
-0.471091
-0.700095
-0.740712
-0.616872
-0.683467
-0.885474
-1.20016
-1.38195
-1.34147
-1.23799
-1.1696
-0.782234
-0.746711
-0.683707
-0.607086
-0.523949
-0.439514
-0.362251
-0.30156
-0.281336
-0.336275
-0.409036
-0.290186
-0.120031
-0.0760599
-0.0704234
-0.156877
-0.25297
-0.256087
-0.220793
-0.197687
-0.792904
-0.756544
-0.691281
-0.610912
-0.52322
-0.434131
-0.34943
-0.273129
-0.217944
-0.19555
-0.135401
0.121397
0.312332
0.425181
0.487569
0.497792
0.49841
0.52133
0.536816
0.542904
-0.802934
-0.766273
-0.698464
-0.613656
-0.521756
-0.428319
-0.335795
-0.24484
-0.158643
-0.0700944
0.0705137
0.36687
0.568651
0.709859
0.795158
0.85196
0.893839
0.926745
0.941382
0.945639
-0.809849
-0.774193
-0.702745
-0.614047
-0.51939
-0.422037
-0.322132
-0.218943
-0.110414
0.0189806
0.203518
0.482872
0.696179
0.849096
0.947547
1.01779
1.06594
1.0972
1.11295
1.11859
-0.813465
-0.776238
-0.702391
-0.611876
-0.515357
-0.414732
-0.308667
-0.195987
-0.0728912
0.078895
0.280561
0.528386
0.733056
0.878253
0.977142
1.04702
1.09547
1.12854
1.14777
1.1558
-0.811202
-0.773505
-0.697648
-0.60578
-0.507976
-0.404934
-0.294732
-0.17603
-0.044964
0.115141
0.314862
0.530198
0.708541
0.838564
0.932345
1.00056
1.04994
1.08571
1.10847
1.11825
-0.798619
-0.762608
-0.686662
-0.594167
-0.495588
-0.391265
-0.27955
-0.159158
-0.0254073
0.133936
0.321308
0.506796
0.658303
0.772957
0.859417
0.92471
0.974084
1.01131
1.03612
1.04669
-0.770947
-0.738039
-0.66405
-0.57261
-0.475085
-0.372198
-0.262397
-0.1441
-0.0117417
0.141364
0.310301
0.470734
0.59973
0.699872
0.77766
0.838277
0.885763
0.922677
0.947932
0.958806
-0.723325
-0.695072
-0.624923
-0.536288
-0.443133
-0.34524
-0.241012
-0.128928
-0.00482381
0.13894
0.291703
0.427595
0.536117
0.621505
0.689051
0.743225
0.787245
0.822619
0.847543
0.858641
-0.652274
-0.628576
-0.564377
-0.482254
-0.39721
-0.30829
-0.213987
-0.111609
0.0026127
0.130589
0.263127
0.377454
0.467221
0.537472
0.592835
0.637439
0.674513
0.704875
0.726598
0.736922
-0.542642
-0.523813
-0.472449
-0.404072
-0.333245
-0.260208
-0.180917
-0.0904369
0.0107066
0.121629
0.235145
0.332255
0.407258
0.465075
0.509298
0.54296
0.569828
0.592152
0.608565
0.616878
-0.389273
-0.37789
-0.347054
-0.303034
-0.256069
-0.203547
-0.139603
-0.0633969
0.0207591
0.114452
0.21127
0.293736
0.35671
0.404583
0.44052
0.466211
0.484406
0.49909
0.51047
0.516178
-0.238503
-0.233339
-0.218742
-0.198425
-0.175081
-0.140469
-0.0916381
-0.0335101
0.0321186
0.108898
0.188985
0.256718
0.307698
0.345467
0.373121
0.392029
0.403468
0.411313
0.417352
0.420492
-0.11953
-0.117202
-0.111296
-0.10477
-0.0949515
-0.0738306
-0.0422818
-0.00363046
0.0451722
0.105996
0.170068
0.22422
0.26442
0.293138
0.313253
0.326782
0.334365
0.338677
0.341733
0.34348
-0.0379084
-0.0374404
-0.035924
-0.0343474
-0.0289368
-0.0163462
0.00113216
0.0250743
0.0602011
0.106195
0.155841
0.198188
0.229279
0.250814
0.265208
0.27496
0.280706
0.283623
0.285883
0.287078
0.00999742
0.00940727
0.0082198
0.0080215
0.0121566
0.0203515
0.0311004
0.047825
0.0734257
0.107384
0.145186
0.177826
0.201735
0.218254
0.229113
0.236409
0.240864
0.242782
0.243647
0.243955
0.0341373
0.0332666
0.0312999
0.030289
0.0330633
0.0385379
0.0469176
0.0607075
0.0805664
0.106515
0.135717
0.161031
0.179658
0.19269
0.201218
0.206628
0.209778
0.21085
0.210992
0.210959
0.0466225
0.0459452
0.0446042
0.044001
0.0456276
0.0490029
0.0555333
0.0666735
0.0824404
0.103143
0.126351
0.146352
0.161025
0.17124
0.177815
0.181721
0.183906
0.18464
0.184675
0.184598
0.055559
0.0551979
0.0546403
0.0546141
0.0556926
0.0578463
0.0625064
0.0706268
0.0826211
0.0989702
0.117426
0.133254
0.144717
0.152532
0.157482
0.160344
0.161952
0.162603
0.162721
0.162688
0.0622426
0.0620472
0.0618365
0.0620124
0.0628386
0.064476
0.0678683
0.0736431
0.0824825
0.0949559
0.109274
0.121576
0.130404
0.136342
0.140106
0.1423
0.143533
0.144083
0.144221
0.144205
0.0658676
0.0657233
0.0655724
0.0656902
0.0662936
0.0676331
0.0702735
0.0746242
0.0812827
0.0907377
0.101689
0.111136
0.117917
0.122479
0.12539
0.127099
0.128032
0.128442
0.128542
0.128522
0.066729
0.0666164
0.0664921
0.0665498
0.0669771
0.068031
0.0700905
0.0734808
0.0786502
0.0859465
0.0943917
0.101681
0.106921
0.110449
0.112697
0.114012
0.114709
0.115003
0.115069
0.115046
0.0657904
0.0657147
0.0656413
0.0656992
0.0660306
0.066843
0.0684088
0.071018
0.0750301
0.0807084
0.0872842
0.0929482
0.0970082
0.0997298
0.10145
0.102452
0.102977
0.103194
0.103242
0.103221
0.0636925
0.0636452
0.0636121
0.0636809
0.0639585
0.0645962
0.0657887
0.067778
0.0708573
0.0752487
0.080358
0.0847533
0.0878902
0.0899825
0.0912977
0.0920632
0.0924615
0.092624
0.0926595
0.0926422
0.0607072
0.0606754
0.0606595
0.0607243
0.0609534
0.061458
0.0623805
0.063909
0.0662709
0.0696502
0.0735971
0.0769912
0.0794073
0.0810152
0.0820234
0.0826092
0.0829117
0.0830322
0.0830567
0.0830416
0.0569838
0.0569602
0.05695
0.057003
0.0571849
0.0575794
0.0582954
0.059477
0.061296
0.0638975
0.0669408
0.0695571
0.0714172
0.0726539
0.0734275
0.0738751
0.0741036
0.0741917
0.0742074
0.0741945
0.0526942
0.0526757
0.0526691
0.052712
0.0528555
0.0531621
0.0537162
0.0546287
0.0560313
0.0580373
0.0603853
0.0624023
0.0638333
0.0647821
0.0653725
0.0657117
0.0658831
0.0659472
0.0659568
0.0659458
0.0479757
0.0479616
0.0479561
0.0479889
0.0480992
0.0483346
0.0487599
0.0494605
0.050538
0.0520819
0.0538912
0.0554423
0.0565394
0.0572645
0.0577141
0.0579714
0.0581007
0.0581484
0.0581548
0.0581453
0.0429139
0.042903
0.0428998
0.0429265
0.0430118
0.0431923
0.0435178
0.0440536
0.0448782
0.0460609
0.0474489
0.0486383
0.0494776
0.0500305
0.0503717
0.0505652
0.0506608
0.0506939
0.050697
0.0506896
0.0376128
0.0376038
0.0375999
0.0376186
0.0376828
0.0378204
0.0380685
0.0384766
0.0391054
0.0400104
0.0410673
0.0419717
0.0426067
0.0430227
0.0432782
0.0434222
0.0434926
0.0435165
0.0435178
0.0435111
0.0321071
0.0321001
0.0320958
0.0321069
0.0321515
0.0322502
0.0324318
0.0327333
0.0331999
0.0338789
0.0346907
0.0353756
0.0358558
0.036167
0.0363577
0.0364648
0.0365158
0.0365315
0.0365307
0.0365247
0.0264482
0.026442
0.0264388
0.0264477
0.0264809
0.0265529
0.0266842
0.0269028
0.027244
0.0277455
0.0283582
0.0288805
0.0292289
0.0294495
0.0295843
0.0296581
0.0296918
0.0297001
0.0296973
0.0296926
0.0206917
0.0206869
0.0206826
0.0206868
0.0207093
0.0207608
0.0208556
0.0210132
0.0212581
0.0216153
0.0220524
0.0224288
0.0226683
0.0228236
0.0229177
0.0229686
0.0229912
0.0229956
0.0229924
0.0229879
0.0148453
0.0148421
0.0148385
0.0148398
0.0148531
0.0148847
0.0149453
0.0150483
0.0152078
0.0154445
0.0157376
0.0159807
0.0161428
0.0162502
0.0163141
0.0163477
0.0163601
0.0163601
0.0163569
0.0163531
0.00893563
0.0089308
0.00892674
0.0089277
0.0089342
0.00895116
0.0089849
0.00904326
0.00913558
0.00926977
0.00943127
0.00956631
0.00966267
0.00972337
0.00975773
0.00977461
0.00978012
0.00977975
0.00977597
0.00977248
0.00298942
0.00298715
0.0029816
0.00297519
0.00297427
0.00297937
0.00299087
0.0030107
0.00304318
0.00308908
0.00314403
0.00319218
0.00322483
0.00324372
0.00325399
0.00325823
0.00325839
0.00325344
0.00324823
0.0032468
-1.22535
-0.637801
-0.295406
-0.0298997
0.184885
0.365198
0.520088
0.653129
0.75723
0.792379
-0.399777
-0.123575
0.0429024
0.207073
0.357462
0.484477
0.584515
0.646969
0.656641
0.652045
-0.0272689
0.133972
0.263604
0.379127
0.479886
0.560488
0.617923
0.651964
0.66667
0.691638
0.214518
0.328981
0.423839
0.503096
0.568987
0.619836
0.65674
0.685604
0.71166
0.735579
0.39856
0.477097
0.541821
0.594872
0.639811
0.676094
0.705915
0.733558
0.760349
0.786394
0.541897
0.588617
0.635373
0.674519
0.707908
0.737865
0.764943
0.789731
0.813571
0.842364
0.65575
0.688462
0.722901
0.752731
0.778848
0.804285
0.828581
0.849835
0.868937
0.89405
0.755614
0.778312
0.806531
0.833224
0.854839
0.873204
0.892259
0.912655
0.932363
0.947713
0.845251
0.865519
0.889062
0.911033
0.928961
0.943178
0.958289
0.976771
0.995619
1.00992
0.934823
0.949514
0.967846
0.985362
1.00254
1.01846
1.03185
1.04475
1.05946
1.07249
1.0268
1.03527
1.04836
1.06332
1.07903
1.09405
1.10615
1.11542
1.12481
1.13478
1.11734
1.12325
1.13341
1.14533
1.157
1.1677
1.17776
1.18697
1.19452
1.20053
1.20946
1.21299
1.22004
1.22853
1.2369
1.24457
1.25226
1.25969
1.26584
1.27101
1.30425
1.30459
1.30645
1.30994
1.31429
1.31981
1.32578
1.33179
1.33828
1.34421
1.40567
1.39704
1.38786
1.38021
1.37674
1.37861
1.38545
1.39658
1.41093
1.42455
1.5129
1.4753
1.44403
1.4243
1.41494
1.41463
1.42332
1.44291
1.47452
1.51374
)
;

boundaryField
{
    wall-4
    {
        type            zeroGradient;
    }
    pressure-outlet-7
    {
        type            fixedValue;
        value           uniform 0;
    }
    velocity-inlet-6
    {
        type            zeroGradient;
    }
    velocity-inlet-5
    {
        type            zeroGradient;
    }
    frontAndBackPlanes
    {
        type            empty;
    }
}


// ************************************************************************* //
