/*--------------------------------*- C++ -*----------------------------------*\
  =========                 |
  \\      /  F ield         | OpenFOAM: The Open Source CFD Toolbox
   \\    /   O peration     | Website:  https://openfoam.org
    \\  /    A nd           | Version:  6
     \\/     M anipulation  |
\*---------------------------------------------------------------------------*/
FoamFile
{
    version     2.0;
    format      ascii;
    class       volScalarField;
    location    "12";
    object      p;
}
// * * * * * * * * * * * * * * * * * * * * * * * * * * * * * * * * * * * * * //

dimensions      [0 2 -2 0 0 0 0];

internalField   nonuniform List<scalar> 
2200
(
0.470692
0.45556
0.438186
0.42194
0.40749
0.395534
0.386095
0.378722
0.373435
0.370604
0.3708
0.373998
0.379576
0.387174
0.39678
0.408848
0.423372
0.439667
0.45707
0.472213
0.414066
0.410116
0.405205
0.39981
0.393828
0.387716
0.381609
0.375894
0.371534
0.369174
0.369395
0.372158
0.376825
0.382779
0.389056
0.395293
0.401359
0.406803
0.411742
0.415703
0.371606
0.371444
0.372749
0.37486
0.376467
0.376311
0.374046
0.370909
0.368137
0.366393
0.36668
0.368899
0.372021
0.375409
0.377843
0.378117
0.376603
0.374558
0.373298
0.373478
0.345536
0.346953
0.350179
0.354611
0.358947
0.361732
0.362808
0.362897
0.362407
0.361809
0.362143
0.363283
0.36414
0.364325
0.36346
0.360826
0.356598
0.352254
0.349082
0.34768
0.331245
0.332691
0.33554
0.339308
0.342965
0.346083
0.349066
0.351724
0.353428
0.35433
0.354685
0.354423
0.353202
0.350891
0.348175
0.345244
0.341702
0.338
0.335186
0.333754
0.325349
0.326425
0.328444
0.331019
0.333445
0.335853
0.338666
0.341517
0.343785
0.345331
0.345775
0.345071
0.343489
0.341112
0.33857
0.336311
0.333984
0.331475
0.329496
0.328431
0.324689
0.325485
0.32706
0.329109
0.331044
0.332928
0.334921
0.336726
0.338303
0.339562
0.340146
0.339878
0.339081
0.337845
0.336159
0.334499
0.332718
0.330764
0.32924
0.328463
0.326065
0.326514
0.327597
0.32923
0.330897
0.332508
0.334027
0.335393
0.336554
0.337615
0.338244
0.338335
0.338023
0.337225
0.336204
0.335008
0.333602
0.332122
0.331096
0.330653
0.32641
0.326552
0.327056
0.327939
0.328983
0.330196
0.331384
0.332663
0.334052
0.335305
0.336026
0.336124
0.335747
0.335341
0.334851
0.334105
0.333373
0.332674
0.332252
0.332126
0.32414
0.324163
0.32426
0.324447
0.324799
0.325477
0.326473
0.327713
0.329189
0.330629
0.331691
0.3321
0.332034
0.331856
0.33162
0.33139
0.331322
0.3313
0.331303
0.331309
0.32035
0.320311
0.320319
0.320421
0.320681
0.321112
0.321819
0.322854
0.32418
0.325681
0.327138
0.32815
0.328653
0.328818
0.328877
0.328981
0.329101
0.329224
0.329315
0.329349
0.316457
0.316454
0.316568
0.316852
0.317272
0.317867
0.31866
0.319665
0.320981
0.322592
0.324268
0.325649
0.326587
0.32716
0.327512
0.327726
0.327816
0.32785
0.327871
0.327881
0.31269
0.312732
0.31287
0.313179
0.313685
0.3144
0.315359
0.316612
0.318209
0.320168
0.322171
0.323819
0.325041
0.325941
0.326511
0.326823
0.326976
0.327041
0.327063
0.327069
0.308297
0.308332
0.308486
0.308767
0.30924
0.30997
0.311036
0.312518
0.314477
0.31694
0.319549
0.321722
0.323359
0.324518
0.325285
0.325788
0.32611
0.326301
0.326386
0.326403
0.303069
0.303096
0.303257
0.303574
0.304095
0.304919
0.306144
0.307894
0.310277
0.313351
0.316731
0.319605
0.321742
0.323257
0.324305
0.325014
0.325478
0.325758
0.325889
0.325916
0.297026
0.29706
0.297257
0.297691
0.298393
0.299444
0.300977
0.303148
0.306112
0.309966
0.314243
0.317937
0.320681
0.322631
0.32398
0.324886
0.325468
0.325813
0.32597
0.325999
0.29029
0.29034
0.290587
0.291113
0.291989
0.293321
0.295271
0.298026
0.301779
0.306654
0.312063
0.316742
0.320211
0.32267
0.324358
0.325479
0.326193
0.326605
0.326789
0.326823
0.28234
0.282413
0.282753
0.283452
0.284583
0.286282
0.288753
0.292245
0.297008
0.303194
0.310042
0.315939
0.32029
0.323363
0.325468
0.326873
0.327776
0.328308
0.328546
0.328588
0.273096
0.273174
0.273571
0.274418
0.275842
0.278019
0.28119
0.285666
0.29175
0.299621
0.308281
0.315683
0.321112
0.324935
0.327548
0.329284
0.330392
0.331032
0.331312
0.331358
0.261716
0.26186
0.262445
0.263606
0.265473
0.268285
0.272373
0.27813
0.285935
0.295959
0.30687
0.316101
0.322827
0.327542
0.330756
0.332892
0.334266
0.335075
0.335438
0.335502
0.248027
0.248159
0.248859
0.250343
0.252809
0.256569
0.261947
0.269466
0.279544
0.292302
0.305969
0.317394
0.325672
0.331469
0.335426
0.338063
0.33975
0.34072
0.341137
0.341196
0.230682
0.230972
0.232031
0.234109
0.237447
0.242417
0.24958
0.259511
0.272567
0.288733
0.305684
0.319671
0.329766
0.336843
0.341679
0.344897
0.346966
0.348176
0.348713
0.348805
0.208899
0.209203
0.210622
0.213545
0.218201
0.22514
0.234955
0.248167
0.265073
0.285366
0.306133
0.323054
0.335252
0.343862
0.349826
0.353852
0.356448
0.357953
0.358594
0.358677
0.180167
0.180845
0.183073
0.187392
0.194268
0.204224
0.21786
0.235628
0.257357
0.282461
0.307551
0.327734
0.342294
0.352698
0.359998
0.365012
0.368291
0.370184
0.371008
0.371129
0.142158
0.14332
0.147046
0.154047
0.164595
0.179283
0.198566
0.222261
0.249593
0.280144
0.309963
0.333654
0.350758
0.36318
0.372154
0.378468
0.382775
0.385395
0.386509
0.386611
0.0916657
0.0932951
0.0996306
0.111418
0.128569
0.150883
0.177877
0.208426
0.242072
0.278675
0.313519
0.34092
0.360761
0.375332
0.386236
0.39431
0.39985
0.403145
0.404423
0.404379
0.0238041
0.0287367
0.0422037
0.0628202
0.0897005
0.121431
0.156642
0.194316
0.23501
0.278346
0.318862
0.350685
0.374069
0.391569
0.40497
0.415618
0.423856
0.429149
0.431414
0.431794
-0.0541172
-0.0413704
-0.0169451
0.0146135
0.0517465
0.0924142
0.135113
0.180118
0.228352
0.278807
0.325635
0.362578
0.390158
0.411375
0.428023
0.441523
0.452764
0.461264
0.466383
0.467976
-0.12023
-0.103294
-0.0719421
-0.0314006
0.0148887
0.063681
0.113716
0.166471
0.222164
0.279462
0.332305
0.373925
0.405057
0.429171
0.448231
0.463417
0.475656
0.485029
0.490384
0.492166
-0.170761
-0.153799
-0.119005
-0.0725167
-0.0194754
0.0359678
0.0931185
0.153508
0.216108
0.279817
0.338118
0.38361
0.417254
0.442916
0.462925
0.478621
0.49088
0.49994
0.505119
0.506939
-0.212895
-0.195038
-0.157754
-0.107473
-0.0499246
0.010628
0.0741277
0.141133
0.209725
0.279189
0.342148
0.390622
0.425924
0.452343
0.472561
0.488299
0.500545
0.509545
0.514733
0.51651
-0.248985
-0.230051
-0.190221
-0.136889
-0.0761186
-0.0116438
0.0569253
0.129085
0.20279
0.277411
0.34452
0.395598
0.432286
0.459366
0.479838
0.495649
0.507939
0.516951
0.522174
0.523983
-0.280453
-0.260631
-0.218405
-0.162287
-0.0987773
-0.0311586
0.0412434
0.117416
0.195638
0.274976
0.345996
0.399606
0.43778
0.465721
0.486621
0.502598
0.514939
0.523923
0.529013
0.530706
-0.308661
-0.288176
-0.243889
-0.185177
-0.119152
-0.0488433
0.0266937
0.106316
0.188633
0.272311
0.347163
0.40347
0.443249
0.472056
0.49339
0.509501
0.521795
0.530693
0.535783
0.537445
-0.334865
-0.313901
-0.267809
-0.206767
-0.138521
-0.0657086
0.0127687
0.0956298
0.181719
0.269507
0.348233
0.407262
0.448662
0.478405
0.500196
0.516475
0.528833
0.5377
0.54276
0.544323
-0.359597
-0.338148
-0.290621
-0.227768
-0.157691
-0.0824457
-0.00111382
0.0848226
0.174419
0.266104
0.348573
0.410493
0.453827
0.484695
0.50708
0.523614
0.535952
0.544754
0.549806
0.551355
-0.382808
-0.360891
-0.312399
-0.248335
-0.176789
-0.0992661
-0.0153435
0.0734135
0.166292
0.261803
0.348348
0.413706
0.459197
0.491276
0.514284
0.531114
0.543595
0.552383
0.557423
0.558888
-0.404705
-0.382289
-0.333192
-0.268343
-0.195546
-0.116033
-0.0299402
0.0613247
0.157305
0.256635
0.347296
0.416147
0.464213
0.497966
0.521957
0.539217
0.551829
0.560573
0.565454
0.566849
-0.425795
-0.402811
-0.353246
-0.287729
-0.213736
-0.132552
-0.0447001
0.0487328
0.1475
0.250311
0.34483
0.417786
0.469195
0.505072
0.530036
0.547799
0.560483
0.569124
0.573959
0.57532
-0.44642
-0.422904
-0.372851
-0.306552
-0.231336
-0.148748
-0.0594363
0.0358226
0.13696
0.242958
0.341641
0.418884
0.473869
0.512213
0.538727
0.557046
0.569988
0.57868
0.583271
0.584446
-0.466644
-0.442699
-0.392116
-0.324905
-0.248473
-0.164668
-0.0740829
0.0227154
0.125841
0.234711
0.337137
0.418225
0.477486
0.519683
0.548318
0.567422
0.580329
0.588552
0.592792
0.593852
-0.486408
-0.46216
-0.410985
-0.342792
-0.265226
-0.180358
-0.0886388
0.00947475
0.114184
0.225343
0.331065
0.416111
0.47977
0.526289
0.558112
0.578608
0.591304
0.599167
0.602897
0.603667
-0.505602
-0.481138
-0.429337
-0.360165
-0.281589
-0.19581
-0.103104
-0.00385147
0.102094
0.215028
0.324125
0.412789
0.480412
0.53184
0.568899
0.592015
0.60476
0.611029
0.613437
0.613462
-0.524184
-0.49959
-0.447085
-0.376927
-0.297474
-0.210964
-0.117463
-0.0172391
0.0897316
0.204028
0.315909
0.407637
0.478985
0.535551
0.578756
0.607403
0.621772
0.625472
0.624273
0.622909
-0.542084
-0.517418
-0.464147
-0.392999
-0.312804
-0.225772
-0.131695
-0.0306236
0.077281
0.192586
0.30624
0.400954
0.475255
0.536279
0.585899
0.623081
0.643286
0.646163
0.637156
0.630566
-0.559295
-0.534599
-0.480451
-0.408319
-0.327543
-0.240195
-0.145734
-0.0439321
0.0648631
0.180903
0.295522
0.392793
0.470503
0.534865
0.589762
0.635898
0.668433
0.67729
0.657247
0.62595
-0.575758
-0.551001
-0.495977
-0.423026
-0.341884
-0.25442
-0.159793
-0.0574982
0.0520914
0.1688
0.283709
0.382638
0.463028
0.530767
0.589584
0.642207
0.688224
0.7194
0.735278
0.740399
-0.591503
-0.566625
-0.510804
-0.437304
-0.356071
-0.268734
-0.174195
-0.0717068
0.0385141
0.155889
0.270009
0.368879
0.451389
0.521874
0.581566
0.634135
0.677683
0.706848
0.698353
0.686289
-0.606506
-0.581458
-0.52494
-0.451109
-0.370062
-0.283062
-0.188789
-0.0863839
0.0242052
0.142126
0.254665
0.352092
0.433949
0.504378
0.561154
0.604605
0.619679
0.60172
0.564491
0.551352
-0.620718
-0.595669
-0.538465
-0.464467
-0.383896
-0.297406
-0.20353
-0.101479
0.00912218
0.127296
0.237956
0.332692
0.411342
0.476057
0.521259
0.538546
0.520129
0.46698
0.404866
0.395562
-0.634077
-0.609365
-0.551473
-0.47748
-0.397653
-0.311775
-0.218358
-0.116841
-0.00663178
0.11132
0.219951
0.310039
0.382543
0.432872
0.455945
0.447123
0.403366
0.310654
0.228142
0.218603
-0.646945
-0.622857
-0.564539
-0.490797
-0.411768
-0.326449
-0.233505
-0.132694
-0.0232836
0.0939375
0.199986
0.284305
0.345776
0.37684
0.370855
0.33651
0.23453
0.117733
0.0238177
0.0165211
-0.660045
-0.636583
-0.578618
-0.50539
-0.426864
-0.341886
-0.249389
-0.149361
-0.0410113
0.0749159
0.178015
0.255248
0.302302
0.310402
0.273037
0.192961
0.0490574
-0.0935798
-0.212135
-0.227422
-0.673901
-0.650928
-0.593979
-0.521442
-0.443045
-0.35816
-0.266087
-0.166858
-0.0598033
0.0542807
0.15411
0.222099
0.252417
0.230863
0.168046
0.0301104
-0.152448
-0.3436
-0.511782
-0.535976
-0.688642
-0.666077
-0.61033
-0.538521
-0.460063
-0.375159
-0.283559
-0.185264
-0.0797252
0.0321062
0.127752
0.185855
0.194533
0.140867
0.0410976
-0.144557
-0.367999
-0.622951
-0.864975
-0.934159
-0.704468
-0.682214
-0.627459
-0.556261
-0.47774
-0.392871
-0.301838
-0.204607
-0.100716
0.00855666
0.0994999
0.147176
0.130276
0.0354137
-0.118081
-0.329555
-0.574316
-0.902726
-1.38411
-1.74875
-0.721361
-0.699315
-0.645245
-0.574458
-0.495931
-0.411203
-0.320792
-0.22481
-0.122765
-0.0158193
0.07045
0.105067
0.0617076
-0.0724036
-0.291288
-0.5374
-0.766524
-1.09085
-1.72401
-2.7097
-0.73936
-0.717344
-0.663669
-0.593172
-0.514758
-0.430327
-0.340612
-0.246179
-0.14639
-0.041724
0.0407697
0.0604345
-0.0107169
-0.170083
-0.453732
-0.733547
-0.940953
-1.12975
-1.36761
-1.73215
-0.758342
-0.736253
-0.68291
-0.612725
-0.534583
-0.45066
-0.361791
-0.269206
-0.172445
-0.0702413
0.0115292
0.0129678
-0.0829684
-0.264009
-0.583109
-0.863319
-1.0433
-1.15141
-1.20032
-1.24015
-0.778209
-0.75599
-0.702942
-0.633104
-0.555409
-0.472224
-0.384374
-0.293908
-0.20114
-0.101301
-0.0167445
-0.0338336
-0.153137
-0.361391
-0.683111
-0.934363
-1.08378
-1.14388
-1.18673
-1.19108
-0.798779
-0.776496
-0.723727
-0.65423
-0.577089
-0.494919
-0.408402
-0.320042
-0.23198
-0.135657
-0.0466425
-0.0842225
-0.223645
-0.46293
-0.775336
-0.989079
-1.09922
-1.12562
-1.14482
-1.15049
-0.819763
-0.797464
-0.744966
-0.675786
-0.599264
-0.51841
-0.433747
-0.347236
-0.263723
-0.172373
-0.0774455
-0.132063
-0.303262
-0.577223
-0.861296
-1.02696
-1.09728
-1.12818
-1.13423
-1.13951
-0.840686
-0.818452
-0.766283
-0.697434
-0.621509
-0.542135
-0.459971
-0.375745
-0.295415
-0.209629
-0.105526
-0.164349
-0.379386
-0.690635
-0.965224
-1.10415
-1.12849
-1.14849
-1.15301
-1.15513
-0.861059
-0.838959
-0.78703
-0.718587
-0.643427
-0.565469
-0.486421
-0.405759
-0.327547
-0.246866
-0.131077
-0.168338
-0.433122
-0.804059
-1.08523
-1.20353
-1.20253
-1.1987
-1.20505
-1.20677
-0.879946
-0.858034
-0.80645
-0.738555
-0.664451
-0.587879
-0.51188
-0.435936
-0.359814
-0.282478
-0.165671
-0.161215
-0.470189
-0.893705
-1.22022
-1.3572
-1.35636
-1.32584
-1.31816
-1.31225
-0.896613
-0.874983
-0.823713
-0.756262
-0.683416
-0.608606
-0.535224
-0.466034
-0.392839
-0.3204
-0.220753
-0.171634
-0.49022
-0.929205
-1.33
-1.55547
-1.59276
-1.54112
-1.49959
-1.47551
-0.909524
-0.88833
-0.837541
-0.770544
-0.698854
-0.626324
-0.556389
-0.496376
-0.433786
-0.367866
-0.297044
-0.215453
-0.45322
-0.890646
-1.33733
-1.66455
-1.76556
-1.72042
-1.63681
-1.59081
-0.917592
-0.896656
-0.846444
-0.779935
-0.709154
-0.639173
-0.573678
-0.521196
-0.474456
-0.427189
-0.395539
-0.345274
-0.43621
-0.720178
-1.10709
-1.4891
-1.63501
-1.58088
-1.47159
-1.40786
-0.919065
-0.898852
-0.849178
-0.782855
-0.713006
-0.64544
-0.585665
-0.542355
-0.518338
-0.50893
-0.541539
-0.531287
-0.466414
-0.495405
-0.624739
-0.827868
-0.905953
-0.855567
-0.769955
-0.708811
-0.911808
-0.892108
-0.843249
-0.777801
-0.709089
-0.644122
-0.591541
-0.561986
-0.573011
-0.623482
-0.721446
-0.689253
-0.45495
-0.207255
-0.000394392
0.104462
0.140927
0.197221
0.247266
0.279985
-0.895081
-0.875672
-0.827618
-0.763307
-0.695956
-0.634348
-0.588524
-0.57293
-0.622239
-0.766781
-0.91961
-0.786521
-0.363105
0.133165
0.556598
0.888877
1.04822
1.10183
1.13328
1.14977
-0.866865
-0.847836
-0.801186
-0.739033
-0.673827
-0.615392
-0.573323
-0.566415
-0.640391
-0.848704
-1.1181
-0.891823
-0.195118
0.442713
0.938519
1.29406
1.49264
1.55527
1.57256
1.57874
-0.825879
-0.807766
-0.763149
-0.703863
-0.641441
-0.584908
-0.542069
-0.533261
-0.602456
-0.80844
-1.05463
-0.749028
-0.0179948
0.561796
1.01827
1.31781
1.46673
1.52235
1.54703
1.55625
-0.771799
-0.755411
-0.713887
-0.658088
-0.598208
-0.540915
-0.492917
-0.469712
-0.501395
-0.627692
-0.725336
-0.383985
0.17397
0.601309
0.934723
1.13876
1.2456
1.30374
1.33576
1.34879
-0.709031
-0.694796
-0.655638
-0.602094
-0.543616
-0.485078
-0.430604
-0.387984
-0.369778
-0.387616
-0.338532
-0.0223806
0.337709
0.622447
0.831328
0.960278
1.04083
1.0931
1.1247
1.13824
-0.640709
-0.627593
-0.589438
-0.537248
-0.480329
-0.422082
-0.362975
-0.30489
-0.248196
-0.189924
-0.0640146
0.188634
0.414926
0.593957
0.71697
0.799645
0.858368
0.899688
0.926049
0.937847
-0.549243
-0.538274
-0.506679
-0.461018
-0.409526
-0.355095
-0.297208
-0.234884
-0.162565
-0.0663528
0.0505394
0.232283
0.399139
0.518828
0.599755
0.657061
0.699578
0.730361
0.750289
0.759464
-0.434149
-0.427335
-0.40602
-0.371625
-0.331019
-0.286889
-0.237761
-0.180232
-0.108554
-0.0143487
0.0980367
0.239668
0.35916
0.444807
0.503234
0.543538
0.573045
0.595236
0.610238
0.616355
-0.315487
-0.312861
-0.300162
-0.277525
-0.250956
-0.221043
-0.182849
-0.131938
-0.067413
0.0136958
0.112411
0.222845
0.308776
0.371182
0.413641
0.44071
0.458967
0.472746
0.481588
0.484517
-0.205769
-0.204685
-0.197914
-0.186465
-0.174052
-0.156327
-0.126923
-0.0850439
-0.0335867
0.0319997
0.11341
0.196864
0.259107
0.304541
0.336082
0.35519
0.366422
0.374384
0.38033
0.382759
-0.116639
-0.116609
-0.113968
-0.109804
-0.105172
-0.0940854
-0.0726225
-0.0429395
-0.00616928
0.0454591
0.110087
0.171904
0.217143
0.249779
0.273003
0.287452
0.295272
0.300341
0.304096
0.305427
-0.0514863
-0.0522568
-0.052189
-0.0514302
-0.0493283
-0.0416976
-0.0278873
-0.00963455
0.0162265
0.0564856
0.105738
0.151434
0.185004
0.208405
0.224918
0.235573
0.241045
0.243983
0.245671
0.246012
-0.00728986
-0.00837951
-0.00957881
-0.0106759
-0.010278
-0.00518999
0.00350279
0.0150312
0.0346061
0.065405
0.101839
0.1358
0.161069
0.178045
0.189532
0.196795
0.199984
0.201098
0.201426
0.201254
0.0195007
0.0185185
0.0166995
0.0143664
0.0134622
0.016457
0.022047
0.0310725
0.0473353
0.0707454
0.0979394
0.123343
0.142328
0.154822
0.162697
0.167456
0.169072
0.169026
0.168652
0.168292
0.0331919
0.0324827
0.030792
0.0284865
0.0273687
0.0288491
0.032131
0.0395889
0.0530395
0.071239
0.0925313
0.111927
0.126181
0.135453
0.140808
0.143874
0.144828
0.144477
0.143998
0.143679
0.0401234
0.0396759
0.0386216
0.0372746
0.0368194
0.0374877
0.0392494
0.0448612
0.0549365
0.0689173
0.0858669
0.100873
0.111567
0.118443
0.122174
0.124201
0.124987
0.124817
0.124507
0.124289
0.0453918
0.0451208
0.0445912
0.0440338
0.0441013
0.0445219
0.0456931
0.0495621
0.0563916
0.0665987
0.0795107
0.0908557
0.0987514
0.103815
0.106557
0.107984
0.108639
0.108607
0.108416
0.108262
0.0497257
0.0495287
0.049132
0.0487167
0.0487306
0.0489929
0.0500626
0.052836
0.0574543
0.0647244
0.074062
0.0823133
0.0880351
0.0917447
0.0938188
0.0948173
0.0952388
0.0951761
0.0950011
0.0948732
0.0517489
0.0515733
0.0511349
0.0505906
0.0503173
0.0503299
0.0512188
0.0533373
0.0567907
0.062211
0.0689911
0.0749439
0.0790961
0.0817935
0.083315
0.0839631
0.0841583
0.0840303
0.0838504
0.0837392
0.0512584
0.051109
0.050696
0.0501509
0.0497556
0.0495966
0.0501723
0.0516899
0.0543581
0.0585793
0.0637285
0.068171
0.0712353
0.073174
0.0742416
0.0746489
0.0747191
0.0745792
0.074421
0.0743285
0.0492227
0.0491136
0.0488047
0.0483958
0.0480665
0.0478998
0.0482378
0.049234
0.0511802
0.0543862
0.0583272
0.0616987
0.0639793
0.065372
0.0661179
0.0663865
0.0664072
0.0662891
0.0661661
0.066094
0.0464482
0.0463758
0.0461631
0.0458819
0.0456483
0.0455395
0.0457651
0.0464301
0.0478026
0.0501349
0.053055
0.0555546
0.0572261
0.0582259
0.0587544
0.0589399
0.0589394
0.0588436
0.0587493
0.0586928
0.0431434
0.0430933
0.0429375
0.0427283
0.0425495
0.0424753
0.0426364
0.0431118
0.044099
0.0457807
0.0479005
0.0497156
0.0509239
0.0516385
0.0520097
0.0521333
0.0521155
0.0520308
0.0519544
0.0519093
0.0393611
0.0393221
0.0392009
0.0390369
0.0388924
0.0388309
0.0389373
0.0392815
0.0400072
0.041241
0.0427952
0.0441132
0.0449845
0.0454911
0.0457435
0.0458165
0.045785
0.0457075
0.0456437
0.0456077
0.0352311
0.035201
0.0351083
0.0349811
0.0348664
0.0348125
0.0348759
0.0351179
0.035645
0.0365562
0.0377068
0.0386691
0.0392926
0.039647
0.0398158
0.0398561
0.0398216
0.0397559
0.0397038
0.0396745
0.0308576
0.0308341
0.0307657
0.030672
0.0305861
0.0305417
0.0305777
0.0307437
0.0311164
0.0317766
0.0326251
0.0333278
0.0337724
0.0340203
0.0341315
0.0341502
0.0341151
0.034059
0.0340165
0.0339931
0.0263339
0.0263157
0.0262646
0.0261943
0.0261295
0.026095
0.0261167
0.0262309
0.026494
0.0269659
0.0275787
0.0280811
0.028393
0.028561
0.0286303
0.0286335
0.0285989
0.0285507
0.0285159
0.0284977
0.0216977
0.0216838
0.0216456
0.0215917
0.0215408
0.0215113
0.0215226
0.0216009
0.0217838
0.0221186
0.0225518
0.0229003
0.0231126
0.023226
0.0232697
0.0232656
0.0232349
0.0231955
0.0231674
0.0231527
0.0169748
0.0169634
0.0169329
0.0168903
0.0168499
0.0168238
0.0168255
0.0168746
0.0169967
0.0172255
0.017525
0.0177635
0.017907
0.0179809
0.0180039
0.0179938
0.0179654
0.0179317
0.0179084
0.0178966
0.0121809
0.0121732
0.0121516
0.0121203
0.0120901
0.0120702
0.0120691
0.0120984
0.0121745
0.0123195
0.0125119
0.0126648
0.0127549
0.012798
0.0128072
0.0127948
0.0127705
0.0127437
0.0127262
0.012718
0.00733956
0.00733356
0.0073181
0.00729635
0.00727617
0.00726257
0.00725924
0.00727174
0.0073126
0.00739883
0.00751285
0.00759903
0.00764527
0.00766451
0.00766713
0.00765772
0.00764033
0.00762035
0.00760697
0.00760037
0.00246252
0.00245941
0.00245012
0.00243816
0.00242918
0.00242298
0.00242015
0.00242385
0.00243741
0.00246592
0.00250449
0.00253155
0.00254676
0.00255341
0.00255336
0.00254895
0.00254107
0.00252972
0.00252252
0.00251899
-1.13209
-0.590901
-0.274244
-0.028427
0.174865
0.34518
0.488201
0.612888
0.712751
0.74719
-0.357767
-0.107732
0.0383085
0.188551
0.331518
0.453129
0.545902
0.603006
0.61199
0.611609
-0.0213962
0.12716
0.243657
0.349277
0.443633
0.521818
0.57889
0.61194
0.626152
0.656796
0.197897
0.305681
0.394749
0.469352
0.531806
0.582504
0.622035
0.652956
0.678956
0.704846
0.37331
0.447497
0.510922
0.563778
0.607844
0.644695
0.676526
0.70556
0.732605
0.754142
0.512238
0.559756
0.607414
0.647928
0.681944
0.71102
0.737265
0.762542
0.786929
0.806228
0.62746
0.66206
0.696525
0.727205
0.754447
0.778539
0.800463
0.821615
0.842261
0.859771
0.727493
0.751454
0.779012
0.804027
0.826257
0.846636
0.865943
0.884257
0.901158
0.91479
0.817862
0.838353
0.860159
0.879539
0.897446
0.915212
0.932609
0.948495
0.962655
0.974305
0.905652
0.920528
0.938521
0.955386
0.971449
0.986644
1.00057
1.01349
1.02585
1.03635
0.995384
1.00439
1.01787
1.03269
1.04682
1.05927
1.07051
1.08106
1.09124
1.1003
1.08466
1.08997
1.10007
1.11226
1.12395
1.13435
1.14361
1.15209
1.16001
1.16687
1.17592
1.17993
1.18705
1.19507
1.20303
1.21089
1.2184
1.22509
1.23121
1.23701
1.27218
1.27231
1.274
1.27678
1.28052
1.28542
1.29128
1.29796
1.30504
1.31122
1.37367
1.36485
1.35532
1.34814
1.34495
1.34659
1.35333
1.36469
1.37913
1.39254
1.4806
1.44345
1.41256
1.39345
1.38446
1.38414
1.3925
1.41174
1.44322
1.48211
)
;

boundaryField
{
    wall-4
    {
        type            zeroGradient;
    }
    pressure-outlet-7
    {
        type            fixedValue;
        value           uniform 0;
    }
    velocity-inlet-6
    {
        type            zeroGradient;
    }
    velocity-inlet-5
    {
        type            zeroGradient;
    }
    frontAndBackPlanes
    {
        type            empty;
    }
}


// ************************************************************************* //
