/*--------------------------------*- C++ -*----------------------------------*\
  =========                 |
  \\      /  F ield         | OpenFOAM: The Open Source CFD Toolbox
   \\    /   O peration     | Website:  https://openfoam.org
    \\  /    A nd           | Version:  6
     \\/     M anipulation  |
\*---------------------------------------------------------------------------*/
FoamFile
{
    version     2.0;
    format      ascii;
    class       volScalarField;
    location    "19.8";
    object      p;
}
// * * * * * * * * * * * * * * * * * * * * * * * * * * * * * * * * * * * * * //

dimensions      [0 2 -2 0 0 0 0];

internalField   nonuniform List<scalar> 
8800
(
0.435002
0.385689
0.347725
0.319654
0.299485
0.284876
0.274245
0.266657
0.261694
0.259477
0.260601
0.264686
0.271268
0.280524
0.293143
0.310381
0.334196
0.367251
0.410161
0.462663
0.269497
0.275843
0.284994
0.288546
0.285938
0.279849
0.272898
0.266611
0.26174
0.258763
0.258327
0.26067
0.265064
0.271007
0.277959
0.284875
0.289669
0.289483
0.282766
0.273843
0.243004
0.24925
0.253772
0.257668
0.260643
0.261613
0.260534
0.258387
0.256279
0.255223
0.256006
0.258223
0.26087
0.26291
0.263252
0.261319
0.25784
0.253741
0.248902
0.245175
0.238709
0.241486
0.244126
0.246325
0.248105
0.249712
0.250831
0.251111
0.250827
0.250671
0.251202
0.252105
0.252615
0.252222
0.251019
0.24948
0.247662
0.245244
0.242765
0.241194
0.233679
0.235113
0.237005
0.239148
0.240903
0.242205
0.243262
0.244187
0.244896
0.245387
0.24577
0.245864
0.24554
0.244929
0.244044
0.24273
0.240888
0.238837
0.237399
0.236601
0.228767
0.229675
0.231005
0.232742
0.23453
0.236107
0.237381
0.238434
0.239361
0.240128
0.240505
0.240452
0.240093
0.239392
0.238295
0.236821
0.235188
0.233702
0.232779
0.232269
0.224022
0.224676
0.225752
0.227236
0.228855
0.230534
0.232137
0.23352
0.234653
0.235557
0.236034
0.236007
0.235501
0.234541
0.233276
0.231899
0.230532
0.229336
0.228637
0.228278
0.219562
0.220042
0.221003
0.222438
0.224012
0.22566
0.227355
0.228952
0.230306
0.231346
0.231982
0.232002
0.231431
0.230438
0.229236
0.227974
0.226685
0.225598
0.22503
0.22478
0.215434
0.215782
0.216587
0.217858
0.219283
0.22071
0.222144
0.22368
0.225252
0.226632
0.227345
0.227357
0.226933
0.226298
0.225479
0.224465
0.223381
0.222483
0.222048
0.221875
0.211671
0.211892
0.212633
0.213899
0.215347
0.216878
0.218488
0.22004
0.221521
0.222918
0.223952
0.224402
0.224304
0.223739
0.222912
0.22196
0.220932
0.220099
0.219762
0.219669
0.208663
0.208783
0.209347
0.210407
0.21166
0.213
0.214462
0.216118
0.217897
0.219632
0.220916
0.221498
0.221568
0.221321
0.220851
0.220207
0.219465
0.218884
0.218684
0.218642
0.206
0.206071
0.206421
0.207162
0.208137
0.209279
0.210604
0.212152
0.213907
0.215847
0.217544
0.218662
0.219252
0.219456
0.219375
0.219142
0.218815
0.218577
0.218501
0.21847
0.202949
0.203019
0.203266
0.203801
0.204602
0.205675
0.207057
0.208786
0.210878
0.213244
0.215386
0.216855
0.217728
0.21818
0.218453
0.218564
0.21858
0.218584
0.218568
0.218532
0.199055
0.199117
0.199358
0.199825
0.200539
0.201544
0.202959
0.204814
0.207174
0.210004
0.212738
0.214803
0.216244
0.217173
0.217765
0.218172
0.218456
0.218587
0.218597
0.218559
0.19427
0.194328
0.194597
0.195122
0.19594
0.197114
0.198783
0.201012
0.203865
0.207342
0.21078
0.213431
0.215272
0.216562
0.217485
0.218123
0.218509
0.218675
0.218706
0.218673
0.188683
0.188725
0.189044
0.189753
0.190705
0.192127
0.194132
0.196814
0.200289
0.204585
0.20891
0.212317
0.214764
0.216491
0.217684
0.218502
0.218963
0.219174
0.219242
0.219216
0.182366
0.182405
0.182748
0.183606
0.18491
0.186607
0.189056
0.19234
0.196611
0.201932
0.207356
0.211674
0.214819
0.217041
0.21857
0.219571
0.220148
0.220442
0.220551
0.220528
0.175195
0.175232
0.175625
0.176589
0.178186
0.180369
0.183375
0.187405
0.192696
0.199317
0.20608
0.211512
0.215486
0.218294
0.220254
0.221518
0.222286
0.2227
0.222848
0.22282
0.166871
0.166912
0.167416
0.168528
0.170392
0.173092
0.176803
0.181846
0.18845
0.19671
0.205147
0.21193
0.216878
0.220434
0.222878
0.224506
0.225523
0.226078
0.226263
0.226227
0.156834
0.156889
0.157493
0.158893
0.161184
0.164514
0.169176
0.17551
0.183803
0.194133
0.204627
0.21302
0.219186
0.223577
0.226624
0.22868
0.229987
0.230694
0.230919
0.230872
0.144531
0.14461
0.1454
0.147161
0.150048
0.154273
0.160195
0.168237
0.178705
0.191622
0.204625
0.214974
0.222539
0.227924
0.231684
0.234242
0.235879
0.236752
0.237027
0.236966
0.129146
0.129252
0.130299
0.132629
0.136425
0.141917
0.149582
0.159893
0.173137
0.189252
0.205266
0.217901
0.227106
0.233674
0.238279
0.241434
0.24346
0.244525
0.244856
0.244779
0.109527
0.109677
0.111134
0.114351
0.119505
0.126855
0.136965
0.150314
0.167114
0.187139
0.206699
0.221984
0.233094
0.241044
0.24665
0.250524
0.253033
0.254357
0.254746
0.254644
0.0839174
0.0841615
0.0863156
0.090977
0.0982562
0.108401
0.122012
0.139458
0.160757
0.185456
0.209092
0.227376
0.240659
0.250216
0.25702
0.261771
0.264863
0.266484
0.266947
0.266814
0.0492363
0.0497115
0.0532587
0.0606277
0.0715106
0.0860417
0.104682
0.127528
0.154338
0.18445
0.212629
0.234212
0.249909
0.261305
0.269536
0.275385
0.279232
0.281235
0.281774
0.281596
-0.000415486
0.00116143
0.00835594
0.0212538
0.0384602
0.0597734
0.085339
0.114986
0.148277
0.184419
0.217475
0.242557
0.26084
0.274272
0.28417
0.291381
0.296248
0.2988
0.299446
0.2992
-0.0738676
-0.0651969
-0.0488104
-0.026054
0.000620789
0.0309293
0.0649282
0.102405
0.142908
0.185665
0.22409
0.253114
0.27443
0.290357
0.302463
0.311663
0.318115
0.321723
0.322772
0.322678
-0.151585
-0.13345
-0.107071
-0.0739191
-0.0374411
0.00196733
0.0444803
0.0899938
0.138143
0.188303
0.233194
0.267288
0.292667
0.31203
0.327105
0.339001
0.347867
0.353237
0.355032
0.355095
-0.216464
-0.194659
-0.160273
-0.118575
-0.0735328
-0.0256169
0.0250816
0.0783843
0.13393
0.191127
0.241986
0.280591
0.309439
0.331603
0.349008
0.362721
0.373179
0.37955
0.3813
0.381521
-0.268614
-0.244561
-0.205145
-0.157501
-0.105786
-0.0508662
0.00694474
0.0672776
0.129651
0.193352
0.249571
0.29199
0.323546
0.347664
0.366509
0.381354
0.392609
0.399504
0.401638
0.401993
-0.311415
-0.286247
-0.243333
-0.191074
-0.134113
-0.0735105
-0.00972013
0.0567318
0.125188
0.194731
0.255676
0.301283
0.334883
0.360331
0.380028
0.395454
0.407034
0.414229
0.416668
0.417016
-0.347956
-0.322147
-0.276698
-0.220696
-0.15938
-0.0939994
-0.0251033
0.0467116
0.120581
0.195391
0.260559
0.308888
0.344136
0.370535
0.390737
0.406366
0.417976
0.425172
0.427753
0.428069
-0.380244
-0.354052
-0.306632
-0.247569
-0.18256
-0.113031
-0.0396022
0.0370108
0.11581
0.195476
0.264586
0.315474
0.352206
0.379371
0.399872
0.415527
0.42707
0.43423
0.436905
0.437221
-0.409719
-0.383196
-0.334132
-0.272456
-0.204282
-0.13113
-0.0536614
0.0273273
0.11072
0.19503
0.267972
0.321304
0.359426
0.387309
0.408117
0.423846
0.435354
0.442424
0.445148
0.445463
-0.437266
-0.41044
-0.359958
-0.296013
-0.225073
-0.148712
-0.0676007
0.0173932
0.105109
0.193865
0.270555
0.326409
0.366055
0.394794
0.416017
0.431891
0.443399
0.450374
0.45307
0.453438
-0.463576
-0.436392
-0.384626
-0.318636
-0.245243
-0.166022
-0.0816433
0.00701139
0.0987652
0.19184
0.272438
0.33105
0.37241
0.402151
0.423908
0.440015
0.451579
0.458458
0.461071
0.461431
-0.488914
-0.461359
-0.408429
-0.340618
-0.265044
-0.183276
-0.0959416
-0.00391865
0.091647
0.189027
0.273643
0.335219
0.378543
0.409487
0.431943
0.448413
0.460099
0.466929
0.469407
0.469695
-0.513609
-0.485593
-0.431601
-0.362149
-0.284624
-0.200558
-0.110545
-0.0154204
0.08375
0.185292
0.274021
0.338838
0.384437
0.416857
0.440205
0.457168
0.469051
0.475849
0.478176
0.478369
-0.537715
-0.509237
-0.454244
-0.383306
-0.304037
-0.217909
-0.12549
-0.0275335
0.0749657
0.180519
0.273486
0.341845
0.390046
0.424237
0.448697
0.466298
0.478446
0.485232
0.48741
0.48747
-0.56129
-0.532324
-0.476401
-0.404129
-0.323309
-0.235354
-0.14079
-0.0402913
0.0652687
0.174678
0.27191
0.344088
0.395269
0.431567
0.457381
0.475765
0.488222
0.494946
0.496962
0.496899
-0.584371
-0.554917
-0.498087
-0.424617
-0.342423
-0.252848
-0.156392
-0.0536379
0.0547135
0.167726
0.269165
0.345369
0.399939
0.438756
0.466212
0.485514
0.498301
0.504901
0.506697
0.506519
-0.606973
-0.576967
-0.519274
-0.444724
-0.361314
-0.270334
-0.172224
-0.0674898
0.0433296
0.159628
0.265148
0.345499
0.403812
0.445652
0.475155
0.495538
0.508613
0.514982
0.516485
0.516199
-0.628931
-0.598408
-0.539908
-0.464408
-0.379934
-0.28773
-0.188207
-0.0817697
0.0311863
0.150428
0.259771
0.344282
0.406626
0.452044
0.484187
0.505908
0.519104
0.524966
0.526072
0.52568
-0.650199
-0.619197
-0.55995
-0.483608
-0.398209
-0.304959
-0.204239
-0.0963867
0.0183859
0.140166
0.252993
0.341539
0.408052
0.457573
0.493217
0.516899
0.530017
0.534744
0.53517
0.534696
-0.67082
-0.639289
-0.579366
-0.502274
-0.416065
-0.321933
-0.220224
-0.111218
0.00504099
0.128934
0.244797
0.337146
0.407761
0.461708
0.501882
0.528889
0.542312
0.54481
0.543559
0.543014
-0.69064
-0.658652
-0.598097
-0.520337
-0.433441
-0.338566
-0.236056
-0.126143
-0.00871966
0.116862
0.235222
0.33101
0.405477
0.463764
0.509306
0.541698
0.557698
0.558085
0.55254
0.549354
-0.709735
-0.677295
-0.616149
-0.537827
-0.450367
-0.354902
-0.251791
-0.141226
-0.0229684
0.103883
0.224142
0.32289
0.400907
0.462941
0.514004
0.553789
0.576217
0.57969
0.568337
0.562215
-0.728041
-0.695279
-0.633659
-0.554928
-0.467133
-0.37128
-0.267848
-0.156967
-0.0382795
0.0893066
0.210823
0.311884
0.393337
0.457959
0.512984
0.560215
0.58921
0.590449
0.579906
0.566433
-0.745442
-0.71259
-0.650473
-0.571432
-0.483516
-0.387401
-0.284007
-0.173027
-0.0543171
0.0734524
0.195492
0.297707
0.382458
0.448205
0.501566
0.549523
0.579085
0.568295
0.506284
0.47468
-0.761837
-0.729951
-0.66615
-0.586839
-0.498904
-0.402807
-0.300013
-0.189149
-0.0708047
0.0565198
0.178278
0.280163
0.367637
0.434476
0.476982
0.513407
0.525496
0.484025
0.417289
0.375214
-0.804028
-0.746353
-0.680653
-0.601873
-0.514004
-0.418347
-0.315752
-0.205439
-0.0879142
0.0382406
0.158877
0.259121
0.346166
0.418457
0.434638
0.443084
0.419135
0.363466
0.291675
0.251955
-0.778092
-0.760203
-0.702227
-0.624466
-0.536578
-0.441473
-0.339875
-0.230756
-0.114969
0.00850387
0.125793
0.222201
0.300286
0.372107
0.374286
0.273949
0.181821
0.119872
0.0528504
0.0902343
-0.808077
-0.77724
-0.718623
-0.640927
-0.553484
-0.458911
-0.357436
-0.249317
-0.135064
-0.0141206
0.0996094
0.191875
0.261863
0.299565
0.254698
0.114276
-0.00143687
-0.0786998
-0.168118
-0.108525
-0.83099
-0.797851
-0.737533
-0.659635
-0.57245
-0.478098
-0.376991
-0.270001
-0.157579
-0.039682
0.0696111
0.156134
0.215269
0.21926
0.109533
-0.0641493
-0.206871
-0.306515
-0.416482
-0.370479
-0.852976
-0.818879
-0.757331
-0.678913
-0.591704
-0.497581
-0.39718
-0.291462
-0.181063
-0.0665405
0.0375288
0.117322
0.161211
0.126767
-0.0453095
-0.250616
-0.434992
-0.591076
-0.733611
-0.697173
-0.874414
-0.840083
-0.77782
-0.698954
-0.611657
-0.517837
-0.418258
-0.313936
-0.205799
-0.0950123
0.00320418
0.0754428
0.0994161
0.0227045
-0.199392
-0.434434
-0.660137
-0.850617
-1.09762
-1.19062
-0.895973
-0.861872
-0.799267
-0.720094
-0.632706
-0.539153
-0.440333
-0.337423
-0.231619
-0.124778
-0.0326864
0.0307346
0.033925
-0.101757
-0.341752
-0.596867
-0.838765
-1.04176
-1.20317
-1.38793
-0.91853
-0.884633
-0.821949
-0.742656
-0.655295
-0.562096
-0.464133
-0.362798
-0.259633
-0.157248
-0.0718908
-0.0188112
-0.0455366
-0.231511
-0.475794
-0.730022
-0.952767
-1.08441
-1.12086
-1.13814
-0.942267
-0.908582
-0.845932
-0.766674
-0.679499
-0.586794
-0.489917
-0.39045
-0.290335
-0.193101
-0.115043
-0.0748878
-0.133549
-0.356168
-0.599579
-0.832982
-1.01067
-1.0656
-1.08043
-1.08121
-0.967423
-0.933788
-0.871197
-0.792061
-0.705193
-0.613171
-0.517591
-0.420334
-0.323696
-0.23226
-0.162004
-0.139085
-0.226447
-0.475695
-0.711237
-0.921276
-1.03776
-1.05685
-1.05805
-1.05817
-0.993851
-0.960244
-0.897687
-0.818733
-0.732293
-0.641115
-0.547017
-0.452341
-0.359598
-0.274369
-0.21312
-0.206138
-0.334656
-0.58845
-0.8142
-0.989475
-1.04212
-1.04663
-1.04735
-1.04672
-1.0213
-0.987701
-0.925219
-0.846521
-0.760604
-0.67044
-0.578001
-0.486235
-0.397931
-0.318877
-0.268659
-0.276663
-0.450811
-0.700536
-0.909035
-1.03277
-1.04178
-1.04229
-1.04162
-1.04093
-1.04912
-1.01574
-0.953482
-0.875113
-0.789834
-0.700821
-0.610228
-0.52154
-0.43843
-0.365216
-0.327181
-0.353267
-0.556539
-0.815886
-0.998639
-1.0495
-1.05374
-1.04037
-1.03205
-1.03056
-1.07675
-1.04382
-0.981977
-0.904033
-0.819522
-0.73177
-0.643212
-0.55755
-0.480449
-0.41317
-0.38622
-0.434789
-0.646911
-0.921386
-1.10304
-1.11949
-1.08572
-1.0598
-1.04563
-1.03885
-1.10344
-1.07116
-1.01
-0.932642
-0.849004
-0.762655
-0.676226
-0.593427
-0.522623
-0.462852
-0.44295
-0.528574
-0.727712
-0.982848
-1.21355
-1.26708
-1.21096
-1.18957
-1.16556
-1.15284
-1.12826
-1.09685
-1.03669
-0.96011
-0.877457
-0.792561
-0.708333
-0.628212
-0.56265
-0.513802
-0.496858
-0.628753
-0.844917
-0.967427
-1.11853
-1.188
-1.38836
-1.46319
-1.43387
-1.41899
-1.14964
-1.11967
-1.06097
-0.9854
-0.903909
-0.820328
-0.738265
-0.660862
-0.597745
-0.563492
-0.549169
-0.707001
-1.01914
-1.04374
-0.871812
-1.07428
-1.44123
-1.54396
-1.52787
-1.52835
-1.16622
-1.13821
-1.08156
-1.00738
-0.927135
-0.844831
-0.764265
-0.689815
-0.626868
-0.602999
-0.602023
-0.760882
-1.21137
-1.47301
-1.44511
-1.65413
-1.71301
-1.62379
-1.56526
-1.58171
-1.17688
-1.1513
-1.09721
-1.02481
-0.945772
-0.864818
-0.784815
-0.712287
-0.649913
-0.622786
-0.650024
-0.834029
-1.42358
-2.09581
-2.60152
-2.88855
-2.84508
-2.51634
-2.17152
-2.0768
-1.17977
-1.15743
-1.10686
-1.0365
-0.958703
-0.878586
-0.799043
-0.725629
-0.662679
-0.633663
-0.649907
-0.88053
-1.47331
-2.39963
-3.05678
-3.29875
-3.23023
-3.02628
-2.7394
-2.56284
-1.17455
-1.15582
-1.10943
-1.04157
-0.965013
-0.885194
-0.805412
-0.7286
-0.662812
-0.619464
-0.613424
-0.784934
-1.17186
-1.71436
-2.28588
-2.48988
-2.44922
-2.25613
-2.04393
-1.90376
-1.15976
-1.14503
-1.10416
-1.03973
-0.964213
-0.884416
-0.803004
-0.721734
-0.648837
-0.564645
-0.554939
-0.442501
-0.605092
-0.712269
-0.748779
-0.60082
-0.300558
-0.0144668
0.184945
0.272021
-1.13691
-1.12621
-1.09148
-1.03102
-0.956494
-0.876438
-0.792443
-0.707102
-0.615157
-0.520906
-0.408723
-0.285962
0.00402541
0.446544
0.971821
1.49672
1.93656
2.23052
2.374
2.41941
-1.10764
-1.10097
-1.07288
-1.01636
-0.942452
-0.861723
-0.77695
-0.686462
-0.58637
-0.468575
-0.323546
-0.18188
0.119828
0.676051
1.37184
2.00967
2.47139
2.74724
2.87863
2.9199
-1.07334
-1.06993
-1.04844
-0.995366
-0.922256
-0.842981
-0.758957
-0.66847
-0.56625
-0.436565
-0.290911
-0.154925
0.0107896
0.423157
0.978376
1.46523
1.8361
2.05642
2.16349
2.20044
-1.03133
-1.03021
-1.01424
-0.965611
-0.895534
-0.818811
-0.739013
-0.654091
-0.556545
-0.432594
-0.283767
-0.182558
-0.10643
0.130895
0.484821
0.809994
1.05226
1.20401
1.2841
1.30778
-0.962582
-0.962613
-0.951077
-0.912383
-0.853096
-0.78711
-0.719408
-0.646833
-0.557773
-0.439036
-0.29503
-0.187752
-0.112293
0.0119374
0.266551
0.475976
0.626148
0.722125
0.774762
0.793478
-0.869793
-0.86887
-0.860611
-0.835688
-0.795486
-0.748622
-0.699143
-0.644
-0.57107
-0.459156
-0.321705
-0.215776
-0.121691
-0.0386791
0.122721
0.251343
0.342203
0.394777
0.420907
0.4281
-0.786714
-0.784994
-0.779336
-0.76583
-0.743226
-0.715203
-0.684368
-0.649174
-0.598189
-0.500346
-0.364272
-0.259148
-0.138785
-0.0706891
-0.00653277
0.0698204
0.125101
0.165327
0.183154
0.18709
-0.737324
-0.735709
-0.732545
-0.726329
-0.715688
-0.702735
-0.69035
-0.679201
-0.659278
-0.596892
-0.488294
-0.383304
-0.231696
-0.156312
-0.127155
-0.0763987
-0.0281926
0.00887152
0.0281565
0.029697
-0.719085
-0.718595
-0.717691
-0.715963
-0.713792
-0.713957
-0.721282
-0.741762
-0.775324
-0.801741
-0.779146
-0.654378
-0.457934
-0.373938
-0.311061
-0.232585
-0.162638
-0.117824
-0.0950725
-0.0949016
-0.712166
-0.712858
-0.714364
-0.717215
-0.723625
-0.738297
-0.769961
-0.836168
-0.964538
-1.14656
-1.26667
-1.06746
-0.769926
-0.626964
-0.52885
-0.415544
-0.310643
-0.236719
-0.206125
-0.208978
-0.698555
-0.700417
-0.704305
-0.711616
-0.726271
-0.755365
-0.813168
-0.933371
-1.18903
-1.61806
-1.89629
-1.63468
-1.17716
-0.923905
-0.763273
-0.594961
-0.45593
-0.364328
-0.337598
-0.341952
-0.663369
-0.666035
-0.671419
-0.681687
-0.701896
-0.740859
-0.817269
-0.977471
-1.33014
-1.97151
-2.37702
-2.07026
-1.53293
-1.22056
-0.990109
-0.792505
-0.652468
-0.580584
-0.563918
-0.565671
-0.598322
-0.601084
-0.606657
-0.617421
-0.638206
-0.678179
-0.756316
-0.920213
-1.2852
-1.94683
-2.32378
-1.99412
-1.56743
-1.30492
-1.07735
-0.934675
-0.867814
-0.841475
-0.824854
-0.819792
-0.505581
-0.507781
-0.512247
-0.520783
-0.537646
-0.569798
-0.63213
-0.761253
-1.04645
-1.56551
-1.86597
-1.64006
-1.36834
-1.1447
-0.987529
-0.926502
-0.932742
-0.933944
-0.920906
-0.91347
-0.39679
-0.398072
-0.400743
-0.40588
-0.416319
-0.436184
-0.474181
-0.551128
-0.717143
-1.03021
-1.2364
-1.13471
-0.955625
-0.803009
-0.731271
-0.7517
-0.788921
-0.798374
-0.794047
-0.790327
-0.287592
-0.287991
-0.28899
-0.290996
-0.295353
-0.303722
-0.319461
-0.350263
-0.41378
-0.537431
-0.63314
-0.564175
-0.47633
-0.431365
-0.471465
-0.529798
-0.561344
-0.571497
-0.57373
-0.573174
-0.191122
-0.190929
-0.190822
-0.190794
-0.191092
-0.191756
-0.193051
-0.195559
-0.199756
-0.198836
-0.174144
-0.166048
-0.150299
-0.210911
-0.283868
-0.331323
-0.353222
-0.362587
-0.366365
-0.367211
-0.114462
-0.114004
-0.113432
-0.112553
-0.111025
-0.108158
-0.102998
-0.093955
-0.0780548
-0.0500182
-0.0183696
-0.00821823
-0.0442647
-0.102484
-0.153466
-0.186109
-0.200687
-0.208454
-0.212691
-0.214016
-0.0587628
-0.0582761
-0.0576648
-0.0567315
-0.0549037
-0.051322
-0.0449205
-0.0340657
-0.0166021
0.00837989
0.0277214
0.023419
-0.00718561
-0.0463086
-0.0779917
-0.0978011
-0.108038
-0.113218
-0.116149
-0.117148
-0.0213675
-0.0209711
-0.0205161
-0.0198782
-0.0184817
-0.0155264
-0.0101756
-0.00137774
0.0118135
0.0282235
0.0370682
0.0286937
0.00707639
-0.0171754
-0.0363039
-0.0483577
-0.0548039
-0.0581548
-0.0600154
-0.0606508
0.00183672
0.00211183
0.00237434
0.00264294
0.00344225
0.00539789
0.00909991
0.0151561
0.0237439
0.0330993
0.0358733
0.0277368
0.0132097
-0.00168301
-0.0132935
-0.0208061
-0.024995
-0.027179
-0.0283239
-0.0287031
0.0148975
0.0150666
0.0151674
0.0151372
0.0154085
0.0164473
0.0186296
0.02226
0.0272255
0.0319601
0.0318539
0.0252872
0.0156868
0.00640503
-0.000810545
-0.00563358
-0.00844476
-0.00990913
-0.0106264
-0.0108572
0.021101
0.0211942
0.0211836
0.0209649
0.0208908
0.0212683
0.022352
0.0242784
0.0268317
0.028827
0.0275382
0.0225436
0.0161486
0.0102133
0.00559075
0.00240299
0.00046769
-0.000541672
-0.00100507
-0.00114558
0.0228537
0.0228981
0.022826
0.0225225
0.022249
0.0222118
0.0225778
0.023402
0.0244841
0.0249878
0.0233498
0.0196378
0.0153241
0.0114325
0.00838932
0.00623498
0.00488322
0.00418046
0.00387631
0.00378534
0.0218132
0.0218294
0.021733
0.0214154
0.0210576
0.0208037
0.0207603
0.0209427
0.0211918
0.0209557
0.0193705
0.016646
0.0136967
0.0110906
0.00904364
0.00756321
0.00661023
0.00611631
0.00591264
0.00585576
0.0190715
0.0190736
0.0189774
0.0186851
0.0183214
0.0179865
0.0177491
0.0176105
0.0174556
0.0169266
0.0155606
0.013586
0.0115624
0.00980098
0.00841099
0.00738851
0.00671783
0.00637188
0.00623621
0.00619786
0.0153122
0.0153089
0.0152261
0.01498
0.0146548
0.0143241
0.0140319
0.0137754
0.0134772
0.0129152
0.0118501
0.0104699
0.00910881
0.00793487
0.00700254
0.00630546
0.00584055
0.00560184
0.00551253
0.00548751
0.0109463
0.0109418
0.0108782
0.0106884
0.0104289
0.0101589
0.00990465
0.00966235
0.00938286
0.0089356
0.00820192
0.0073129
0.00645781
0.00572265
0.00513191
0.00467936
0.00436997
0.00421156
0.00415515
0.00413913
0.00621601
0.00621189
0.00617051
0.00604537
0.00587787
0.00570988
0.0055517
0.00539953
0.00522649
0.00496835
0.00457162
0.00410669
0.00366606
0.00328671
0.00297692
0.00272993
0.00255195
0.00246034
0.00242854
0.00241743
0.00128653
0.00129231
0.00132227
0.0013428
0.0013162
0.00127093
0.00122165
0.00117212
0.00111726
0.00104637
0.000947756
0.000829194
0.000714955
0.000613685
0.000529113
0.000462578
0.000422971
0.000425105
0.000452739
0.000467294
-0.542116
-0.318523
-0.107626
0.0662725
0.209326
0.326048
0.425808
0.507435
0.532105
0.528159
-0.190525
-0.0450166
0.0906674
0.209129
0.310404
0.395533
0.463544
0.510347
0.535633
0.551656
0.0475891
0.142509
0.237158
0.321095
0.393328
0.453586
0.501173
0.537033
0.562902
0.582051
0.21687
0.284024
0.352206
0.413362
0.466202
0.510977
0.548132
0.578565
0.601358
0.620389
0.349767
0.399515
0.449419
0.495584
0.536505
0.572359
0.603366
0.629325
0.64882
0.667071
0.458973
0.498139
0.537082
0.574474
0.608744
0.639504
0.666464
0.688912
0.705733
0.72336
0.552836
0.587458
0.622255
0.655702
0.686718
0.714789
0.739278
0.759258
0.773896
0.791054
0.643755
0.677872
0.71197
0.744675
0.774752
0.801631
0.824645
0.842858
0.855749
0.872403
0.740677
0.778115
0.813942
0.847341
0.877323
0.903358
0.925048
0.941795
0.953721
0.969959
0.855402
0.896821
0.934434
0.96784
0.996786
1.02121
1.04121
1.05678
1.06888
1.08502
0.997994
1.03926
1.0749
1.10478
1.13027
1.15216
1.17091
1.18658
1.19983
1.21583
1.17004
1.20222
1.22946
1.25209
1.27239
1.29128
1.30917
1.32605
1.34105
1.35681
1.35653
1.37384
1.39109
1.40795
1.42418
1.43902
1.45301
1.46756
1.48285
1.50019
1.5402
1.55015
1.56339
1.57442
1.58387
1.59361
1.60431
1.61456
1.6239
1.64959
1.75819
1.75252
1.73957
1.72531
1.71906
1.72485
1.74302
1.77157
1.80537
1.84171
2.06094
1.92498
1.84556
1.80318
1.7859
1.78986
1.81734
1.87522
1.98288
2.16129
0.338691
0.33239
0.324664
0.313552
0.299982
0.28733
0.276918
0.268883
0.263129
0.259719
0.259194
0.261791
0.266799
0.273977
0.2834
0.295136
0.308628
0.321507
0.330461
0.337982
0.247745
0.253666
0.261754
0.267905
0.270994
0.270502
0.267437
0.263432
0.259764
0.257347
0.257031
0.259056
0.262626
0.266897
0.270827
0.272942
0.271768
0.267055
0.25994
0.252075
0.241
0.243376
0.246661
0.24946
0.251942
0.254168
0.255374
0.255223
0.254216
0.253271
0.253274
0.254463
0.256017
0.257034
0.256768
0.255134
0.252846
0.25038
0.247327
0.244277
0.23619
0.237275
0.239229
0.241631
0.243565
0.245019
0.246268
0.247254
0.247795
0.247978
0.248287
0.248804
0.24902
0.248646
0.247794
0.246668
0.245156
0.243033
0.24081
0.239299
0.231205
0.231832
0.233005
0.234846
0.236774
0.238416
0.239666
0.240671
0.241578
0.242362
0.242886
0.243044
0.24284
0.242375
0.241615
0.240424
0.238782
0.236971
0.235493
0.234659
0.226377
0.226802
0.227646
0.229068
0.230723
0.232408
0.233968
0.235321
0.236448
0.237406
0.238064
0.238227
0.23797
0.237312
0.236274
0.234939
0.233472
0.232059
0.230979
0.230416
0.221736
0.222032
0.222725
0.224024
0.225587
0.227248
0.228978
0.230592
0.231931
0.232983
0.233753
0.234074
0.233836
0.23306
0.231878
0.230541
0.2292
0.22791
0.226988
0.226574
0.217475
0.217683
0.218244
0.219395
0.220843
0.222343
0.223866
0.225469
0.227096
0.228523
0.229499
0.229791
0.229424
0.228677
0.227759
0.226709
0.225544
0.224422
0.223665
0.223361
0.213469
0.213596
0.214056
0.215122
0.216504
0.217968
0.219449
0.220918
0.222373
0.223816
0.224987
0.225537
0.225564
0.225192
0.224502
0.22359
0.222554
0.22155
0.220909
0.220702
0.210078
0.210133
0.210494
0.211472
0.212802
0.214229
0.215785
0.21744
0.219132
0.220754
0.222144
0.222978
0.223155
0.222832
0.222204
0.221436
0.220544
0.219669
0.219157
0.21904
0.207334
0.207355
0.207584
0.208275
0.209304
0.210455
0.211718
0.21314
0.214791
0.216611
0.218327
0.219504
0.22008
0.220282
0.220172
0.219817
0.219332
0.21883
0.21857
0.218514
0.204563
0.204581
0.204736
0.205187
0.20595
0.206942
0.20818
0.209702
0.211477
0.213511
0.215593
0.217226
0.218207
0.218679
0.218852
0.218859
0.218755
0.218622
0.218559
0.218525
0.201113
0.201134
0.201278
0.201629
0.202233
0.203121
0.204292
0.205849
0.207848
0.210268
0.212864
0.214992
0.21642
0.217325
0.217881
0.218235
0.218448
0.218579
0.218615
0.218586
0.196775
0.196789
0.196941
0.197296
0.197902
0.198792
0.200085
0.201842
0.20414
0.207006
0.210205
0.212982
0.214946
0.216341
0.217202
0.217803
0.218293
0.218568
0.218646
0.21863
0.191571
0.19157
0.191728
0.192177
0.192918
0.194009
0.195542
0.197647
0.200444
0.203961
0.207946
0.211459
0.214
0.215779
0.217039
0.217914
0.218501
0.218802
0.218908
0.218911
0.185633
0.185619
0.185789
0.186332
0.18729
0.18859
0.190461
0.193037
0.196432
0.200753
0.205711
0.210152
0.21344
0.215786
0.217413
0.218548
0.219234
0.219611
0.219777
0.219802
0.178913
0.178884
0.17907
0.17969
0.180791
0.182585
0.184885
0.188009
0.192181
0.197528
0.203701
0.209296
0.213449
0.216431
0.21852
0.219939
0.220818
0.221323
0.221562
0.221599
0.171209
0.171171
0.17141
0.172156
0.1735
0.175552
0.178407
0.18229
0.187473
0.194132
0.201838
0.208828
0.214052
0.217789
0.220444
0.222235
0.223391
0.224081
0.224399
0.224445
0.162107
0.162069
0.162366
0.163285
0.164904
0.167361
0.17088
0.17574
0.182243
0.190577
0.200187
0.208886
0.21536
0.22006
0.223355
0.225611
0.227104
0.228011
0.228417
0.22847
0.150986
0.150937
0.151337
0.152475
0.154498
0.157592
0.16203
0.168182
0.176384
0.186834
0.198806
0.209567
0.217586
0.223367
0.22743
0.230233
0.232115
0.233265
0.233768
0.233832
0.13721
0.137154
0.137707
0.139208
0.141817
0.145783
0.151486
0.159355
0.169765
0.182903
0.197775
0.211019
0.220827
0.22789
0.232872
0.236324
0.238656
0.240085
0.240709
0.240783
0.119833
0.119779
0.120573
0.122602
0.126063
0.131309
0.138792
0.149
0.162319
0.178832
0.197206
0.213369
0.225269
0.233838
0.239904
0.244128
0.246998
0.248756
0.249521
0.249604
0.0973984
0.0973634
0.0985519
0.101417
0.10621
0.113414
0.123498
0.136953
0.154062
0.174747
0.197266
0.216789
0.231084
0.241397
0.248741
0.253897
0.257426
0.259585
0.260509
0.260606
0.0675683
0.0676112
0.0695118
0.073834
0.0809005
0.0912257
0.105191
0.123132
0.145125
0.170864
0.19816
0.221447
0.238421
0.250719
0.25956
0.265846
0.270195
0.272852
0.273971
0.274075
0.0261735
0.026475
0.0299446
0.0372767
0.048556
0.0640208
0.0837501
0.107759
0.135851
0.167492
0.200102
0.227476
0.247357
0.261854
0.272424
0.280083
0.285495
0.288797
0.290139
0.29024
-0.0345739
-0.0329371
-0.0246406
-0.0106667
0.00837433
0.0320462
0.0598351
0.0915352
0.126801
0.165008
0.203289
0.234924
0.257835
0.274662
0.287141
0.296405
0.303095
0.307251
0.308909
0.309029
-0.107914
-0.104602
-0.0886483
-0.0642519
-0.0347109
-0.00152952
0.0350301
0.0749404
0.117946
0.16349
0.208489
0.245597
0.272726
0.293023
0.308442
0.3203
0.329218
0.334746
0.336751
0.337211
-0.182485
-0.174079
-0.150311
-0.11609
-0.0767606
-0.034346
0.0109491
0.0590851
0.109851
0.162789
0.214609
0.257277
0.288645
0.312397
0.330814
0.345248
0.356359
0.363174
0.366382
0.367317
-0.241089
-0.231344
-0.202735
-0.161716
-0.114871
-0.064706
-0.0116501
0.0440763
0.102133
0.16203
0.220176
0.267798
0.302742
0.329189
0.349691
0.365784
0.378108
0.386154
0.390177
0.391316
-0.288742
-0.278333
-0.246374
-0.200511
-0.148077
-0.0918128
-0.0323248
0.0299764
0.0945821
0.160813
0.224648
0.276548
0.314346
0.342748
0.364595
0.381669
0.3948
0.403611
0.40806
0.409248
-0.32843
-0.317879
-0.283779
-0.234115
-0.17715
-0.115901
-0.0510613
0.0168532
0.0872105
0.159101
0.228026
0.283637
0.323734
0.353546
0.376254
0.393834
0.407272
0.4164
0.420957
0.422191
-0.362981
-0.352393
-0.316705
-0.264025
-0.203335
-0.137848
-0.0683792
0.0044905
0.0799726
0.157001
0.230562
0.289507
0.331633
0.362611
0.385917
0.40372
0.417186
0.426308
0.430827
0.432075
-0.393958
-0.383389
-0.346481
-0.291336
-0.227465
-0.158328
-0.0847717
-0.00746682
0.0726893
0.15449
0.232468
0.294642
0.338669
0.370669
0.39444
0.41239
0.425861
0.435
0.439525
0.440665
-0.422544
-0.411969
-0.374063
-0.316778
-0.250189
-0.177879
-0.1007
-0.0193676
0.0651223
0.151461
0.233712
0.299014
0.344937
0.378005
0.402324
0.420501
0.434017
0.443153
0.447685
0.448691
-0.449554
-0.43894
-0.40014
-0.340981
-0.271983
-0.196854
-0.116431
-0.0314555
0.0570493
0.147677
0.234107
0.302688
0.350711
0.385024
0.410011
0.428502
0.442127
0.451247
0.455743
0.456665
-0.475429
-0.464773
-0.42512
-0.364277
-0.293131
-0.215504
-0.132185
-0.0439038
0.0483199
0.14306
0.233765
0.30582
0.356129
0.391878
0.417694
0.436626
0.450446
0.459582
0.464026
0.464918
-0.500517
-0.489736
-0.44929
-0.386926
-0.31388
-0.234022
-0.14808
-0.0567853
0.0389083
0.137636
0.232601
0.308315
0.361191
0.398627
0.425495
0.445027
0.459152
0.468352
0.472685
0.473539
-0.525008
-0.514037
-0.472848
-0.409078
-0.334322
-0.252462
-0.16416
-0.0701192
0.028781
0.131274
0.230463
0.310074
0.365869
0.405296
0.433441
0.45374
0.468266
0.477573
0.481797
0.48259
-0.548937
-0.537745
-0.495833
-0.430797
-0.354515
-0.270866
-0.180464
-0.0839509
0.0178696
0.12389
0.227283
0.310986
0.370024
0.411808
0.441499
0.462747
0.47778
0.487223
0.491316
0.491989
-0.572383
-0.560921
-0.518321
-0.452108
-0.37447
-0.289234
-0.196971
-0.0982623
0.0061931
0.115513
0.222971
0.310894
0.373498
0.418032
0.449608
0.472005
0.487621
0.497181
0.501109
0.501634
-0.595267
-0.583571
-0.540283
-0.472999
-0.394147
-0.307511
-0.213615
-0.112981
-0.00617169
0.106135
0.217447
0.309632
0.376112
0.423829
0.457696
0.481483
0.497743
0.507364
0.511064
0.511411
-0.61761
-0.605647
-0.561671
-0.49342
-0.413497
-0.325641
-0.230327
-0.128015
-0.0191676
0.0957821
0.210678
0.307048
0.3776
0.428971
0.465673
0.491201
0.508132
0.517631
0.520942
0.521092
-0.639239
-0.627083
-0.582442
-0.513325
-0.432461
-0.343539
-0.247025
-0.14329
-0.0327062
0.0845387
0.202644
0.303027
0.377719
0.433125
0.473354
0.501245
0.518927
0.527918
0.530525
0.530424
-0.660248
-0.647836
-0.602552
-0.532672
-0.450985
-0.361145
-0.263606
-0.158706
-0.0466768
0.0725074
0.193378
0.297473
0.376237
0.435886
0.480372
0.511701
0.530672
0.538562
0.53965
0.539113
-0.680492
-0.66783
-0.62198
-0.551403
-0.468982
-0.378372
-0.279982
-0.17413
-0.0609552
0.0597797
0.182955
0.290337
0.372957
0.436782
0.486052
0.522282
0.544241
0.551198
0.549048
0.546951
-0.700015
-0.687122
-0.640669
-0.569461
-0.486413
-0.395148
-0.296062
-0.189472
-0.0754217
0.0465155
0.171497
0.281598
0.367766
0.435363
0.489378
0.531811
0.559583
0.568933
0.563804
0.551935
-0.718729
-0.705678
-0.658704
-0.58701
-0.50349
-0.411763
-0.312194
-0.205159
-0.0905585
0.0321556
0.158399
0.270562
0.360017
0.43093