/*--------------------------------*- C++ -*----------------------------------*\
  =========                 |
  \\      /  F ield         | OpenFOAM: The Open Source CFD Toolbox
   \\    /   O peration     | Website:  https://openfoam.org
    \\  /    A nd           | Version:  6
     \\/     M anipulation  |
\*---------------------------------------------------------------------------*/
FoamFile
{
    version     2.0;
    format      ascii;
    class       volScalarField;
    location    "112.5";
    object      p;
}
// * * * * * * * * * * * * * * * * * * * * * * * * * * * * * * * * * * * * * //

dimensions      [0 2 -2 0 0 0 0];

internalField   nonuniform List<scalar> 
8800
(
1.10835
1.05904
1.02107
0.993008
0.972854
0.958277
0.947694
0.940173
0.935315
0.933281
0.934691
0.939066
0.945886
0.95533
0.96808
0.985411
1.0093
1.0424
1.08534
1.13785
0.942835
0.949181
0.958334
0.961887
0.959284
0.953204
0.946276
0.940051
0.935274
0.932437
0.932246
0.934913
0.939586
0.945738
0.952855
0.959901
0.96479
0.964672
0.958003
0.949109
0.916333
0.92257
0.927075
0.930953
0.93391
0.934871
0.933799
0.9317
0.92975
0.928952
0.930029
0.932521
0.935439
0.937732
0.938271
0.936496
0.933141
0.929136
0.92436
0.920644
0.912005
0.914773
0.917384
0.91955
0.921298
0.922881
0.924003
0.924383
0.924304
0.92445
0.925307
0.926495
0.927273
0.927152
0.926199
0.924861
0.923205
0.920913
0.918508
0.916942
0.906913
0.90834
0.910186
0.912276
0.914002
0.915312
0.916434
0.917445
0.918296
0.919089
0.919861
0.920376
0.920445
0.920117
0.919476
0.918383
0.916744
0.914863
0.913517
0.912714
0.901875
0.90278
0.904034
0.905673
0.907382
0.908936
0.910249
0.911409
0.912525
0.91361
0.91447
0.914927
0.914992
0.914669
0.913901
0.91274
0.911401
0.910152
0.909339
0.908814
0.896907
0.897564
0.898534
0.899866
0.901334
0.902877
0.904396
0.905807
0.907132
0.90842
0.909463
0.91004
0.910127
0.909746
0.90901
0.908104
0.907141
0.906257
0.905686
0.905301
0.892004
0.892509
0.893305
0.894463
0.895788
0.897238
0.89879
0.900388
0.901976
0.903533
0.904802
0.905514
0.90568
0.90543
0.904923
0.904281
0.903581
0.902944
0.902527
0.902226
0.887108
0.88751
0.88818
0.889223
0.890483
0.891888
0.893446
0.895156
0.89698
0.898848
0.900404
0.90134
0.901726
0.901727
0.901479
0.901072
0.90059
0.900153
0.899849
0.899604
0.882135
0.882462
0.883048
0.884016
0.885239
0.886644
0.888251
0.890081
0.892129
0.894332
0.896262
0.897543
0.89825
0.898545
0.89856
0.898401
0.898131
0.897862
0.897643
0.897437
0.876993
0.877264
0.877791
0.87872
0.879936
0.881382
0.883084
0.885082
0.887395
0.889991
0.892387
0.894111
0.895206
0.895837
0.896141
0.896237
0.896182
0.896067
0.895918
0.895738
0.871587
0.871815
0.872305
0.873224
0.874476
0.876006
0.877848
0.880073
0.882728
0.885809
0.888775
0.891028
0.892578
0.893596
0.894228
0.894586
0.894762
0.894792
0.8947
0.894539
0.865817
0.86601
0.866484
0.867423
0.868751
0.870412
0.872453
0.874977
0.878065
0.881746
0.885401
0.888285
0.89037
0.891835
0.892843
0.893513
0.893922
0.894086
0.894042
0.893892
0.859571
0.859737
0.86021
0.861199
0.862644
0.864489
0.866798
0.869707
0.873336
0.877753
0.882241
0.885882
0.888601
0.890588
0.892029
0.893048
0.89371
0.894011
0.894009
0.893865
0.852717
0.85286
0.853349
0.854416
0.856024
0.858115
0.860772
0.864167
0.868465
0.87378
0.879273
0.883818
0.887292
0.889894
0.891831
0.893251
0.894203
0.894645
0.894681
0.894539
0.845102
0.845223
0.84574
0.846915
0.848738
0.851145
0.854244
0.858247
0.86337
0.869775
0.876477
0.882101
0.886464
0.889797
0.892327
0.894214
0.895488
0.896078
0.896149
0.896003
0.836523
0.836626
0.837178
0.838497
0.840598
0.843407
0.847059
0.851818
0.857954
0.865683
0.873834
0.880739
0.886153
0.890344
0.893587
0.896022
0.89766
0.898403
0.898504
0.898352
0.826691
0.826792
0.827414
0.828912
0.831371
0.834685
0.83903
0.844728
0.852111
0.861444
0.871326
0.879745
0.886399
0.8916
0.895679
0.898757
0.900804
0.901706
0.901832
0.901669
0.815315
0.815394
0.816106
0.817856
0.820759
0.824713
0.82993
0.836799
0.845718
0.856997
0.86894
0.879135
0.887239
0.893627
0.89867
0.9025
0.904998
0.906057
0.906199
0.906022
0.801947
0.802014
0.802837
0.804904
0.808375
0.813152
0.81948
0.827825
0.838645
0.852283
0.866667
0.878931
0.888703
0.896465
0.90263
0.907309
0.910284
0.911487
0.911634
0.911439
0.785979
0.786036
0.787014
0.789507
0.793726
0.799576
0.807345
0.817573
0.830764
0.847258
0.864511
0.879154
0.890825
0.900149
0.907579
0.913195
0.916653
0.917969
0.918103
0.917888
0.766554
0.766608
0.767812
0.770905
0.776146
0.783446
0.793127
0.805801
0.821971
0.841912
0.8625
0.879831
0.893627
0.904692
0.913503
0.920124
0.924018
0.925389
0.925489
0.925255
0.742412
0.742471
0.744035
0.74803
0.754747
0.764081
0.77639
0.792296
0.81222
0.83629
0.86069
0.881002
0.897119
0.910075
0.920366
0.927974
0.93219
0.933528
0.933572
0.933322
0.711578
0.711669
0.713856
0.719325
0.728358
0.740703
0.756736
0.776952
0.801575
0.830516
0.859185
0.882721
0.901308
0.916235
0.928063
0.936527
0.940862
0.942058
0.942026
0.941769
0.670707
0.67094
0.67442
0.682618
0.695583
0.712628
0.733994
0.759891
0.790263
0.824803
0.858139
0.885069
0.906196
0.923134
0.93642
0.945464
0.949624
0.950561
0.950446
0.950195
0.613407
0.614611
0.621598
0.635513
0.655373
0.679715
0.70849
0.741571
0.778699
0.819445
0.857725
0.888142
0.911786
0.93064
0.945182
0.954367
0.957998
0.958601
0.958419
0.958186
0.530414
0.538583
0.55473
0.579158
0.60935
0.64347
0.681258
0.722544
0.767101
0.814536
0.858093
0.892251
0.918619
0.939483
0.9549
0.963738
0.966623
0.966905
0.966692
0.966504
0.441693
0.45971
0.485967
0.521701
0.562799
0.606802
0.653559
0.703088
0.755277
0.809838
0.859309
0.897845
0.927491
0.950513
0.966469
0.974164
0.976011
0.97603
0.975859
0.975748
0.365381
0.387441
0.422135
0.467535
0.518276
0.571593
0.627072
0.684671
0.744256
0.805556
0.860464
0.902885
0.935356
0.96005
0.975819
0.982126
0.983236
0.983176
0.983051
0.982975
0.302435
0.32697
0.367467
0.419796
0.478057
0.539116
0.602249
0.667197
0.733629
0.801181
0.86107
0.907015
0.941898
0.967761
0.98312
0.988449
0.989204
0.989122
0.989022
0.988961
0.249927
0.275988
0.320692
0.378388
0.44263
0.510006
0.579592
0.65095
0.723523
0.796771
0.86123
0.910398
0.947473
0.974302
0.989201
0.993764
0.994301
0.994208
0.994124
0.994068
0.205282
0.232248
0.280065
0.342091
0.411326
0.484052
0.559171
0.636126
0.714171
0.792576
0.861203
0.913305
0.952363
0.979983
0.994372
0.998349
0.998748
0.998646
0.998569
0.998517
0.166417
0.193972
0.24421
0.309818
0.383306
0.460677
0.540682
0.622642
0.705641
0.788747
0.861167
0.915906
0.956703
0.984914
0.998809
1.00235
1.00265
1.00253
1.00246
1.0024
0.13182
0.159817
0.212036
0.280691
0.357866
0.43932
0.523712
0.610245
0.697822
0.78529
0.861176
0.918257
0.960537
0.989172
1.0026
1.00581
1.00603
1.00589
1.00581
1.00575
0.100433
0.12881
0.182696
0.254013
0.334439
0.41953
0.507895
0.59865
0.690538
0.782133
0.861237
0.920396
0.9639
0.99279
1.00574
1.0087
1.00886
1.0087
1.00861
1.00854
0.0714046
0.100161
0.155535
0.229256
0.312578
0.40094
0.492933
0.587623
0.683612
0.779197
0.861377
0.922397
0.96686
0.995781
1.00826
1.011
1.01113
1.01097
1.01087
1.0108
0.0442992
0.0733845
0.13011
0.205989
0.291926
0.383259
0.47859
0.576968
0.676905
0.776438
0.861661
0.924384
0.969539
0.998247
1.01018
1.01275
1.01288
1.01274
1.01265
1.01257
0.018584
0.0480726
0.106042
0.183897
0.272208
0.366253
0.46468
0.566532
0.670295
0.773807
0.862167
0.926525
0.972115
1.00034
1.01165
1.01405
1.01422
1.01415
1.01409
1.014
-0.00592347
0.0239628
0.0830946
0.162754
0.253221
0.349752
0.45105
0.556186
0.663668
0.771247
0.862975
0.929031
0.974839
1.0023
1.01287
1.01511
1.01535
1.01537
1.01536
1.01527
-0.0294236
0.00086833
0.0610828
0.142401
0.234831
0.333632
0.437587
0.545819
0.656916
0.768666
0.864119
0.932135
0.97802
1.00439
1.01406
1.01614
1.01647
1.0166
1.01663
1.01655
-0.0520664
-0.0213213
0.0398995
0.122738
0.216933
0.317807
0.424212
0.535351
0.649939
0.76594
0.865566
0.936045
0.98205
1.00693
1.0154
1.01727
1.01776
1.01797
1.01802
1.01794
-0.0739739
-0.0427395
0.0194866
0.103703
0.199482
0.302223
0.410875
0.524718
0.64265
0.762931
0.867209
0.940902
0.987382
1.0104
1.01705
1.01839
1.0191
1.01953
1.01962
1.01948
-0.0950628
-0.063369
-0.000190989
0.0852436
0.182442
0.286867
0.397544
0.513885
0.634982
0.759517
0.868863
0.946725
0.994485
1.01554
1.01944
1.01945
1.02018
1.02127
1.02181
1.02165
-0.115361
-0.0832394
-0.0191749
0.0673461
0.165807
0.27173
0.38423
0.502831
0.626892
0.75557
0.870307
0.953364
1.0037
1.02335
1.02392
1.02125
1.02127
1.02348
1.02554
1.02583
-0.134965
-0.102354
-0.0374907
0.049997
0.149589
0.256835
0.37095
0.491568
0.61835
0.750988
0.87128
0.960519
1.01509
1.03483
1.03248
1.02643
1.02475
1.02815
1.03286
1.03492
-0.153768
-0.120723
-0.0551203
0.0332233
0.133803
0.24222
0.357744
0.480131
0.609364
0.745705
0.871522
0.967745
1.02829
1.05018
1.04654
1.03767
1.03333
1.03531
1.04071
1.04358
-0.171878
-0.138388
-0.0720933
0.0169669
0.118387
0.227818
0.344533
0.468432
0.599822
0.739585
0.87077
0.974625
1.04289
1.06907
1.06622
1.05585
1.04775
1.04161
1.0351
1.0399
-0.189253
-0.15542
-0.088564
0.00102451
0.103043
0.213309
0.33092
0.456016
0.589234
0.732084
0.868496
0.980597
1.05882
1.09164
1.09112
1.08049
1.06676
1.05139
1.02818
1.03365
-0.205794
-0.171829
-0.104393
-0.0144311
0.0880084
0.198963
0.317062
0.443142
0.577784
0.723244
0.864327
0.98427
1.07417
1.11576
1.11692
1.10405
1.08521
1.05208
0.997965
0.97654
-0.221413
-0.188675
-0.119171
-0.028972
0.0740892
0.185268
0.303233
0.430071
0.565724
0.713164
0.858078
0.98456
1.08646
1.13855
1.13625
1.11707
1.08422
1.02419
0.962806
0.926116
-0.26326
-0.205346
-0.132612
-0.0435926
0.0605016
0.171199
0.289577
0.416653
0.552789
0.701364
0.849018
0.980108
1.0919
1.15283
1.14737
1.10425
1.03483
0.958288
0.886725
0.847186
-0.235777
-0.216567
-0.153022
-0.0633503
0.0393664
0.150023
0.268002
0.394975
0.531172
0.680159
0.82939
0.96324
1.07195
1.14035
1.09849
0.961617
0.855037
0.781183
0.711427
0.729607
-0.265423
-0.233007
-0.168561
-0.0792678
0.0231268
0.133752
0.252145
0.378799
0.514537
0.662772
0.810903
0.942564
1.03992
1.0787
0.998049
0.834193
0.70945
0.625384
0.537507
0.573264
-0.287926
-0.253222
-0.187057
-0.0976857
0.00470011
0.115428
0.233894
0.360031
0.494845
0.641392
0.786533
0.912601
0.997674
0.998186
0.862984
0.688718
0.546062
0.442974
0.342495
0.364313
-0.309565
-0.273916
-0.206454
-0.116448
-0.0139552
0.0967389
0.214818
0.3402
0.473736
0.617907
0.758444
0.874747
0.941072
0.907121
0.723162
0.531379
0.361285
0.220102
0.0906207
0.0922973
-0.330749
-0.29482
-0.226538
-0.135982
-0.0333484
0.0771714
0.194667
0.319066
0.4509
0.592003
0.726418
0.831834
0.875936
0.788031
0.584441
0.375706
0.182292
0.0239055
-0.181673
-0.262929
-0.352167
-0.31642
-0.247714
-0.156807
-0.0540441
0.0562994
0.173222
0.296515
0.426372
0.563844
0.691081
0.786377
0.800305
0.661761
0.456531
0.238656
0.0417263
-0.120996
-0.242867
-0.353436
-0.374875
-0.339186
-0.270332
-0.179308
-0.0765799
0.0334483
0.149649
0.271575
0.398969
0.531961
0.651239
0.731876
0.71614
0.541327
0.336071
0.12493
-0.0550211
-0.153327
-0.178888
-0.1917
-0.399029
-0.363414
-0.294518
-0.203568
-0.1011
0.0083907
0.123559
0.243711
0.368034
0.495534
0.605559
0.666625
0.6279
0.42532
0.222757
0.0323476
-0.103856
-0.142187
-0.150297
-0.150675
-0.424924
-0.38924
-0.320315
-0.229576
-0.127558
-0.0188937
0.0949074
0.212833
0.333453
0.454532
0.554539
0.597251
0.52018
0.318395
0.123002
-0.0424532
-0.118598
-0.132606
-0.133522
-0.133388
-0.452565
-0.416699
-0.347754
-0.25734
-0.155984
-0.0484147
0.063659
0.178895
0.295215
0.409046
0.498182
0.52231
0.406771
0.22087
0.0368839
-0.0940502
-0.12293
-0.123554
-0.124067
-0.123658
-0.481707
-0.445639
-0.376747
-0.286795
-0.18631
-0.0801416
0.0298134
0.141895
0.253369
0.359213
0.437327
0.440107
0.30684
0.132214
-0.0301483
-0.105738
-0.120338
-0.118328
-0.118036
-0.117638
-0.511804
-0.475719
-0.407043
-0.317725
-0.218367
-0.113935
-0.00649914
0.101936
0.208151
0.305614
0.372106
0.357876
0.215802
0.0547466
-0.0749682
-0.114134
-0.113417
-0.113894
-0.113667
-0.113364
-0.542414
-0.506415
-0.438164
-0.349725
-0.251815
-0.149486
-0.0450038
0.0592943
0.159869
0.249261
0.301773
0.280794
0.134971
-0.00583243
-0.100713
-0.109062
-0.110558
-0.110852
-0.110783
-0.110615
-0.572548
-0.536872
-0.469401
-0.382177
-0.286113
-0.186321
-0.0852354
0.0144723
0.108966
0.19104
0.232088
0.203141
0.066781
-0.0479566
-0.105269
-0.115324
-0.109925
-0.10882
-0.108437
-0.108267
-0.600643
-0.565833
-0.49973
-0.414206
-0.32049
-0.223734
-0.126517
-0.0317709
0.0562688
0.131423
0.167617
0.12435
0.0119395
-0.0798041
-0.103268
-0.106508
-0.10714
-0.106627
-0.106402
-0.106259
-0.625392
-0.591815
-0.527777
-0.444623
-0.353892
-0.260784
-0.167958
-0.0784877
0.00306421
0.0709939
0.104757
0.0570122
-0.0292493
-0.0977875
-0.119031
-0.109675
-0.106403
-0.105327
-0.104986
-0.104821
-0.644236
-0.612742
-0.551808
-0.471931
-0.385018
-0.296286
-0.208438
-0.124589
-0.0493236
0.0116185
0.0423687
0.00433284
-0.0565203
-0.100618
-0.106347
-0.106223
-0.104897
-0.104395
-0.104216
-0.104067
-0.655214
-0.626579
-0.569793
-0.494416
-0.412354
-0.32886
-0.246629
-0.1688
-0.0997615
-0.0440703
-0.014625
-0.0398577
-0.073303
-0.0985469
-0.0989344
-0.102704
-0.104228
-0.104454
-0.104495
-0.10443
-0.655684
-0.631002
-0.579688
-0.510263
-0.434291
-0.357048
-0.281109
-0.209616
-0.146991
-0.0954457
-0.0623294
-0.0799646
-0.0886648
-0.102323
-0.104935
-0.105424
-0.106035
-0.10631
-0.106422
-0.106409
-0.643248
-0.623329
-0.579375
-0.517768
-0.449389
-0.379489
-0.310553
-0.245519
-0.189212
-0.143665
-0.0982531
-0.117478
-0.105699
-0.11509
-0.11487
-0.111728
-0.110602
-0.110575
-0.110685
-0.11066
-0.616019
-0.601529
-0.567121
-0.515764
-0.456627
-0.395212
-0.333933
-0.275425
-0.224643
-0.186681
-0.138845
-0.133636
-0.124673
-0.130081
-0.123463
-0.119973
-0.117773
-0.117613
-0.117882
-0.117899
-0.577494
-0.568285
-0.544261
-0.504608
-0.456083
-0.403984
-0.350693
-0.298741
-0.252738
-0.220263
-0.188719
-0.160205
-0.130979
-0.132352
-0.139011
-0.133555
-0.130899
-0.130768
-0.131356
-0.131397
-0.534695
-0.52944
-0.515689
-0.487423
-0.449873
-0.406684
-0.360964
-0.315086
-0.272956
-0.241693
-0.213656
-0.186286
-0.151999
-0.12664
-0.109014
-0.118871
-0.142485
-0.155638
-0.159366
-0.159795
-0.49724
-0.494015
-0.487427
-0.469454
-0.440828
-0.405119
-0.365754
-0.324483
-0.284299
-0.2515
-0.225724
-0.209545
-0.203523
-0.219667
-0.247579
-0.280718
-0.284141
-0.248699
-0.228668
-0.230374
-0.470232
-0.46832
-0.465005
-0.454386
-0.432539
-0.402365
-0.366985
-0.327903
-0.287433
-0.250732
-0.223351
-0.216739
-0.255656
-0.32485
-0.396172
-0.434876
-0.43966
-0.404466
-0.357908
-0.341244
-0.450416
-0.449745
-0.448642
-0.443406
-0.42744
-0.400883
-0.366678
-0.327243
-0.283925
-0.240486
-0.209625
-0.184359
-0.172619
-0.192536
-0.240354
-0.251711
-0.240339
-0.217545
-0.188225
-0.172831
-0.438758
-0.438538
-0.43794
-0.435578
-0.424776
-0.400385
-0.365791
-0.324163
-0.27609
-0.222955
-0.177581
-0.115505
-0.0382372
0.0313739
0.068129
0.0926384
0.124358
0.159135
0.18916
0.20416
-0.430629
-0.430485
-0.430087
-0.429447
-0.4229
-0.400983
-0.365338
-0.320242
-0.266317
-0.201105
-0.133915
-0.0467494
0.0932135
0.265081
0.423812
0.548507
0.637738
0.696203
0.732436
0.747779
-0.425249
-0.425207
-0.425096
-0.424952
-0.421125
-0.402729
-0.366107
-0.316652
-0.256717
-0.18088
-0.0954431
0.00135461
0.185755
0.444169
0.715088
0.953004
1.12237
1.21668
1.25755
1.27081
-0.420814
-0.420808
-0.420738
-0.420647
-0.419289
-0.404894
-0.368175
-0.315061
-0.249626
-0.166511
-0.0696611
0.0330331
0.230169
0.52281
0.843387
1.13704
1.35982
1.48131
1.52644
1.53793
-0.41702
-0.41701
-0.416885
-0.416628
-0.416464
-0.406473
-0.371583
-0.316469
-0.2468
-0.160087
-0.0587134
0.0463134
0.225191
0.503627
0.809902
1.09357
1.31613
1.44033
1.48688
1.49828
-0.414151
-0.414153
-0.414095
-0.414033
-0.41441
-0.407448
-0.376148
-0.32053
-0.249249
-0.161974
-0.062921
0.034968
0.183231
0.427902
0.687585
0.920217
1.10601
1.21445
1.25711
1.26773
-0.4113
-0.411381
-0.411599
-0.411993
-0.412265
-0.408612
-0.381083
-0.326983
-0.256402
-0.17179
-0.0798705
0.00657709
0.119753
0.320767
0.533027
0.711046
0.852479
0.937782
0.971565
0.979775
-0.408267
-0.408415
-0.40866
-0.408991
-0.409362
-0.408162
-0.385182
-0.334403
-0.267069
-0.187999
-0.104833
-0.0305016
0.0524438
0.206927
0.374046
0.508386
0.612144
0.675387
0.699969
0.705159
-0.405303
-0.405482
-0.405733
-0.406069
-0.406706
-0.406414
-0.38776
-0.341599
-0.28004
-0.207419
-0.133454
-0.0704149
-0.0100662
0.106184
0.233827
0.33331
0.407937
0.452743
0.469696
0.472174
-0.402645
-0.402761
-0.402765
-0.402552
-0.402415
-0.402366
-0.387958
-0.348225
-0.293831
-0.228016
-0.162855
-0.110418
-0.0659042
0.0193281
0.114469
0.187188
0.241066
0.272027
0.282713
0.284256
-0.401691
-0.401613
-0.401009
-0.399298
-0.396555
-0.395123
-0.386286
-0.355139
-0.307266
-0.247231
-0.190907
-0.147102
-0.112157
-0.0480721
0.0220905
0.0732263
0.109432
0.129958
0.136917
0.137692
-0.404377
-0.404192
-0.403404
-0.401265
-0.397532
-0.394777
-0.389617
-0.364853
-0.319593
-0.26463
-0.217501
-0.178903
-0.151169
-0.102939
-0.0510311
-0.0151667
0.00941525
0.0225355
0.026741
0.0269645
-0.409938
-0.410078
-0.410645
-0.412308
-0.414645
-0.414842
-0.407882
-0.379006
-0.33052
-0.281788
-0.240368
-0.205465
-0.181574
-0.14511
-0.106303
-0.0799754
-0.0624691
-0.0531262
-0.049985
-0.0499939
-0.413378
-0.41418
-0.41728
-0.426529
-0.440873
-0.445763
-0.433446
-0.391707
-0.340985
-0.297893
-0.259555
-0.226369
-0.207144
-0.17685
-0.145065
-0.124098
-0.109882
-0.102428
-0.099929
-0.100062
-0.411166
-0.41212
-0.4158
-0.426931
-0.44683
-0.458583
-0.436828
-0.39215
-0.348581
-0.311051
-0.272187
-0.24236
-0.227049
-0.20123
-0.172429
-0.152576
-0.138684
-0.131079
-0.128693
-0.129026
-0.409024
-0.40958
-0.410582
-0.407891
-0.399272
-0.394997
-0.392219
-0.374203
-0.349666
-0.316198
-0.277915
-0.254086
-0.240187
-0.215776
-0.189191
-0.169741
-0.155344
-0.147312
-0.144912
-0.145411
-0.412876
-0.412731
-0.409974
-0.389397
-0.345977
-0.317429
-0.332451
-0.350418
-0.346487
-0.313585
-0.280312
-0.259679
-0.247743
-0.223
-0.196482
-0.177319
-0.163471
-0.156025
-0.153803
-0.15441
-0.425872
-0.423971
-0.419315
-0.400443
-0.363791
-0.337142
-0.349647
-0.370177
-0.353943
-0.312824
-0.278454
-0.260138
-0.246844
-0.222623
-0.197576
-0.179273
-0.166067
-0.159339
-0.157235
-0.157792
-0.47081
-0.470238
-0.482235
-0.500172
-0.50206
-0.480775
-0.459621
-0.427723
-0.373498
-0.312188
-0.273848
-0.253683
-0.237304
-0.212371
-0.189147
-0.17224
-0.160646
-0.154774
-0.152988
-0.153449
-0.559273
-0.56816
-0.597135
-0.63014
-0.639917
-0.619031
-0.572208
-0.486982
-0.386481
-0.304999
-0.263868
-0.236707
-0.217515
-0.19425
-0.172283
-0.155897
-0.145054
-0.139648
-0.137953
-0.13839
-0.622796
-0.6351
-0.660968
-0.684191
-0.692262
-0.671054
-0.610962
-0.496101
-0.374214
-0.28842
-0.239624
-0.207981
-0.189378
-0.167894
-0.146454
-0.130421
-0.119377
-0.113601
-0.112002
-0.112583
-0.600234
-0.60917
-0.627433
-0.64608
-0.654188
-0.634977
-0.568759
-0.440003
-0.326241
-0.249287
-0.197359
-0.169193
-0.154837
-0.13389
-0.113221
-0.097748
-0.0866892
-0.0808118
-0.0795874
-0.0803891
-0.482529
-0.492543
-0.509648
-0.526608
-0.535041
-0.51973
-0.45307
-0.340223
-0.250831
-0.184452
-0.140883
-0.123772
-0.113021
-0.0945287
-0.0772502
-0.0637129
-0.0533086
-0.0479206
-0.0474664
-0.0485242
-0.288944
-0.300399
-0.319201
-0.340789
-0.352364
-0.334199
-0.274195
-0.204705
-0.149503
-0.104194
-0.0810943
-0.0714534
-0.0656449
-0.0526724
-0.0419129
-0.0330713
-0.0251755
-0.0216037
-0.0220048
-0.0231307
0.00693588
-0.00602601
-0.0460611
-0.0796406
-0.0860327
-0.0808824
-0.0676162
-0.0502692
-0.0374337
-0.0257847
-0.0208117
-0.0159483
-0.013382
-0.0122312
-0.00853828
-0.00896498
-0.00881768
-0.00894309
-0.00741646
-0.0065401
0.213414
0.393861
0.55796
0.695583
0.803214
0.885683
0.95298
1.00766
1.02067
1.01831
0.484582
0.599112
0.705989
0.797366
0.873125
0.934816
0.983148
1.01585
1.03355
1.0508
0.667852
0.743639
0.818475
0.883672
0.938794
0.984358
1.02039
1.04822
1.06925
1.08862
0.804122
0.858184
0.912409
0.960959
1.00281
1.03849
1.06864
1.09407
1.11369
1.1326
0.915254
0.956168
0.996565
1.0345
1.06851
1.0987
1.1252
1.1478
1.16542
1.18352
1.00844
1.04265
1.07624
1.10852
1.13838
1.16552
1.18959
1.20991
1.22538
1.24287
1.09427
1.12532
1.15658
1.18689
1.21513
1.24087
1.2635
1.28209
1.29577
1.31276
1.17964
1.21168
1.2435
1.27418
1.30251
1.3279
1.34971
1.36699
1.3792
1.39569
1.27309
1.30929
1.34373
1.37586
1.40473
1.42981
1.4507
1.46681
1.47829
1.49439
1.38571
1.4264
1.46316
1.49577
1.524
1.5478
1.56727
1.58243
1.59423
1.61026
1.52707
1.56783
1.60293
1.63231
1.65736
1.67885
1.69726
1.71268
1.72573
1.74165
1.69824
1.73011
1.75704
1.77936
1.79939
1.81805
1.83574
1.85247
1.86734
1.88305
1.88421
1.90138
1.91844
1.93509
1.95117
1.96588
1.97976
1.99421
2.00942
2.02672
2.06757
2.07745
2.0906
2.10157
2.11098
2.12062
2.1312
2.14136
2.15063
2.1763
2.28532
2.27961
2.26666
2.25241
2.2461
2.25178
2.26991
2.29844
2.3322
2.36852
2.58815
2.45221
2.37268
2.3301
2.31276
2.31676
2.34418
2.40204
2.50968
2.6881
1.01204
1.00574
0.998013
0.986904
0.973342
0.960706
0.950328
0.942345
0.936667
0.933393
0.933114
0.936017
0.941306
0.948705
0.958284
0.970136
0.983713
0.996652
1.00565
1.01319
0.92109
0.927011
0.935088
0.941228
0.944307
0.94381
0.940745
0.93678
0.933235
0.931011
0.930954
0.933284
0.937099
0.94159
0.945725
0.947995
0.946939
0.942315
0.935268
0.927438
0.914306
0.91668
0.919953
0.922735
0.925199
0.927406
0.92861
0.928498
0.927609
0.92687
0.927171
0.928673
0.930524
0.931805
0.93177
0.930332
0.928195
0.92585
0.922879
0.919866
0.909472
0.91056
0.912484
0.914833
0.916721
0.918141
0.919388
0.920422
0.921078
0.921535
0.92219
0.923034
0.923582
0.923526
0.922945
0.922058
0.920754
0.918804
0.916711
0.915238
0.904387
0.905021
0.906157
0.907929
0.909792
0.911412
0.912698
0.91381
0.914859
0.91585
0.916755
0.917395
0.917629
0.917497
0.917018
0.916089
0.914695
0.91311
0.911789
0.910991
0.899385
0.899823
0.90062
0.901941
0.903487
0.905082
0.906602
0.907956
0.90919
0.910388
0.911483
0.912228
0.912524
0.91238
0.911787
0.910843
0.909732
0.90862
0.907736
0.907206
0.894453
0.89478
0.8954
0.89649
0.897815
0.899253
0.900783
0.902326
0.903813
0.905247
0.906564
0.907483
0.907852
0.90772
0.907212
0.906498
0.905706
0.904891
0.904252
0.903864
0.889564
0.889817
0.890319
0.891254
0.892462
0.893816
0.8953
0.89691
0.898603
0.900322
0.901923
0.903051
0.903569
0.90361
0.903339
0.902881
0.902315
0.901737
0.901282
0.900987
0.884641
0.884841
0.885261
0.88609
0.887227
0.888544
0.890026
0.891698
0.893555
0.895552
0.897489
0.898927
0.899722
0.900041
0.900039
0.899829
0.899488
0.899114
0.898804
0.898572
0.879596
0.879756
0.880118
0.880878
0.881977
0.883287
0.884814
0.886591
0.888634
0.890928
0.893265
0.895122
0.896294
0.896948
0.897237
0.897287
0.897182
0.896999
0.896808
0.896623
0.874334
0.874463
0.874784
0.875504
0.876595
0.877943
0.879557
0.881487
0.883775
0.886434
0.889259
0.891632
0.893256
0.8943
0.894922
0.895256
0.895389
0.895394
0.895309
0.89516
0.86876
0.868862
0.869157
0.869862
0.870982
0.872413
0.874159
0.8763
0.878908
0.882026
0.88545
0.888443
0.890602
0.892097
0.893101
0.893747
0.894149
0.894341
0.894346
0.894224
0.862766
0.862847
0.863126
0.863842
0.865026
0.866582
0.868519
0.870942
0.873958
0.877647
0.881801
0.885539
0.888334
0.890359
0.891801
0.892824
0.893509
0.893887
0.893977
0.893875
0.856233
0.856294
0.856568
0.857317
0.858603
0.860333
0.862526
0.865314
0.868843
0.873236
0.878276
0.88291
0.886463
0.889115
0.891065
0.892507
0.893518
0.894103
0.894274
0.894188
0.849021
0.849058
0.849336
0.850142
0.851568
0.853528
0.856053
0.859305
0.863472
0.868726
0.874839
0.880547
0.885002
0.888396
0.890949
0.892875
0.894263
0.895071
0.895323
0.895248
0.840952
0.84097
0.841253
0.842139
0.843748
0.846004
0.848949
0.852782
0.857739
0.864045
0.871454
0.878446
0.883969
0.888237
0.891508
0.894018
0.895834
0.896884
0.897215
0.897146
0.831773
0.83178
0.832089
0.83308
0.834929
0.837559
0.841033
0.84559
0.851523
0.859115
0.868084
0.876603
0.883391
0.888688
0.892804
0.896009
0.898319
0.899633
0.900041
0.899975
0.821217
0.821197
0.821546
0.822687
0.824836
0.827941
0.832081
0.837543
0.844685
0.853847
0.864693
0.87502
0.883294
0.889803
0.894915
0.898921
0.901803
0.903401
0.90388
0.903811
0.808895
0.808855
0.809255
0.810587
0.813117
0.816829
0.821816
0.828417
0.837063
0.848149
0.861245
0.873701
0.883704
0.891622
0.897901
0.902829
0.906353
0.908242
0.908783
0.908703
0.794288
0.794226
0.794708
0.796294
0.799316
0.803815
0.809891
0.817949
0.828483
0.841929
0.857716
0.872657
0.88465
0.894176
0.901805
0.907779
0.911998
0.91417
0.914751
0.914654
0.776672
0.776587
0.777199
0.779143
0.782823
0.78837
0.795883
0.805833
0.818767
0.835119
0.854106
0.871914
0.886157
0.897502
0.906621
0.913764
0.918712
0.921124
0.921712
0.92159
0.755004
0.754902
0.755726
0.758194
0.762802
0.7698
0.779274
0.791744
0.807765
0.827696
0.850445
0.871507
0.888254
0.9016
0.912347
0.920748
0.926385
0.928951
0.929499
0.929345
0.727701
0.7276
0.728781
0.732063
0.738092
0.747211
0.759479
0.77539
0.795404
0.819713
0.846824
0.871499
0.890964
0.906458
0.918939
0.928609
0.934803
0.937381
0.937836
0.937647
0.692192
0.69215
0.693983
0.698679
0.707098
0.719579
0.735976
0.756631
0.781769
0.811337
0.843395
0.87199
0.894321
0.912055
0.926305
0.937143
0.943634
0.946034
0.946343
0.946124
0.643913
0.644114
0.647395
0.655086
0.667981
0.686018
0.708581
0.735661
0.767181
0.802865
0.840372
0.873112
0.898377
0.918336
0.934312
0.946065
0.95244
0.95444
0.954575
0.95434
0.574305
0.575837
0.583865
0.598498
0.619695
0.646617
0.677895
0.713161
0.752209
0.794697
0.837985
0.874967
0.903163
0.925226
0.942669
0.954864
0.960646
0.962071
0.962053
0.961834
0.49108
0.494024
0.509709
0.535093
0.567711
0.60508
0.645752
0.689595
0.73653
0.786314
0.83606
0.878056
0.909904
0.934641
0.95351
0.965499
0.970385
0.971317
0.971251
0.971122
0.405578
0.413245
0.436872
0.472984
0.516601
0.564215
0.614271
0.66671
0.721531
0.778553
0.834679
0.881593
0.916967
0.944308
0.964447
0.975664
0.979139
0.979526
0.979433
0.979359
0.335292
0.345208
0.373843
0.417547
0.46976
0.526009
0.58449
0.644953
0.707242
0.771093
0.833132
0.8845
0.922969
0.952382
0.973032
0.983273
0.98591
0.986119
0.98604
0.985995
0.277452
0.288147
0.320609
0.36992
0.42861
0.491718
0.557221
0.62467
0.693673
0.763773
0.831246
0.886695
0.92797
0.959109
0.980043
0.98946
0.991535
0.99165
0.991585
0.991555
0.228788
0.239874
0.274985
0.328651
0.39259
0.46135
0.532731
0.606168
0.681081
0.756805
0.829235
0.888414
0.932261
0.964949
0.986021
0.994685
0.99637
0.996428
0.996372
0.996351
0.186891
0.198153
0.235233
0.292378
0.360679
0.434259
0.510731
0.589416
0.669587
0.750387
0.827327
0.889893
0.936056
0.970078
0.991153
0.999181
1.0006
1.00061
1.00056
1.00054
0.150044
0.161368
0.199981
0.26
0.332004
0.409757
0.490727
0.574128
0.659091
0.744548
0.825622
0.891246
0.939454
0.974576
0.995569
1.00307
1.00429
1.00426
1.00419
1.00417
0.116988
0.12833
0.168151
0.23064
0.305858
0.38728
0.472266
0.559967
0.649367
0.739193
0.824113
0.892506
0.942475
0.978485
0.999309
1.00636
1.00744
1.00737
1.00729
1.00726
0.0866908
0.0980652
0.138949
0.203622
0.281694
0.366377
0.454981
0.54663
0.640194
0.734186
0.822774
0.893706
0.945185
0.981849
1.00239
1.00905
1.01002
1.00993
1.00984
1.0098
0.0585637
0.0699766
0.111804
0.17844
0.259063
0.346682
0.438582
0.533881
0.631379
0.729409
0.821595
0.894932
0.947681
0.984716
1.00485
1.01113
1.01203
1.01194
1.01186
1.01181
0.0321087
0.0435709
0.0862715
0.154695
0.237626
0.327908
0.422832
0.521529
0.622774
0.72477
0.820591
0.896303
0.950121
0.98724
1.00679
1.01269
1.01354
1.0135
1.01344
1.0134
0.00692122
0.0185176
0.0620291
0.132103
0.217132
0.309834
0.407545
0.509422
0.614245
0.720181
0.819777
0.897961
0.952715
0.989625
1.00839
1.01389
1.01472
1.01475
1.01476
1.01474
-0.0171535
-0.00540608
0.0388747
0.110457
0.197399
0.292311
0.392585
0.497434
0.605678
0.715531
0.81913
0.900064
0.955729
0.992139
1.0099
1.01494
1.01578
1.01591
1.016
1.016
-0.0403322
-0.028384
0.0166306
0.0896275
0.178304
0.275223
0.37785
0.485468
0.596976
0.710714
0.818575
0.902721
0.959477
0.99512
1.01156
1.01604
1.01691
1.01717
1.01731
1.01733
-0.0626354
-0.0505054
-0.00479046
0.0695331
0.159772
0.258501
0.363281
0.47346
0.588057
0.705611
0.817989
0.905973
0.964284
0.999008
1.01363
1.01724
1.01816
1.0186
1.01879
1.0188
-0.0841978
-0.0718361
-0.0254095
0.0501257
0.14175
0.242105
0.348834
0.461369
0.578862
0.700121
0.817211
0.909755
0.970434
1.0044
1.01657
1.01855
1.01925
1.02005
1.02054
1.02059
-0.104894
-0.0923935
-0.0452677
0.0313606
0.124223
0.226039
0.3345
0.449173
0.569351
0.694166
0.816064
0.913893
0.978083
1.01198
1.02129
1.02054
1.02013
1.02137
1.02296
1.02356
-0.124906
-0.112189
-0.0643857
0.0132091
0.107168
0.210282
0.320301
0.436871
0.559504
0.687689
0.814371
0.918112
0.987161
1.02239
1.02931
1.0251
1.02232
1.02361
1.02717
1.02939
-0.144125
-0.131189
-0.0827918
-0.00432225
0.0906224
0.194871
0.306264
0.424513
0.549334
0.680621
0.811973
0.922069
0.997353
1.03581
1.04191
1.03468
1.02895
1.02936
1.0348
1.04009
-0.162647
-0.149497
-0.100464
-0.0212088
0.0745859
0.179832
0.292431
0.412122
0.538868
0.672975
0.808735
0.92536
1.00811
1.05178
1.05915
1.05054
1.04204
1.03892
1.0384
1.03478
-0.180399
-0.167099
-0.1175
-0.0376315
0.0588293
0.164886
0.278479
0.39932
0.527709
0.664334
0.804279
0.927648
1.01933
1.07053
1.08133
1.0731
1.06227
1.05119
1.0392
1.04076
-0.197386
-0.184098
-0.133933
-0.0535502
0.0433436
0.150049
0.264411
0.386052
0.51577
0.654481
0.798231
0.928093
1.02977
1.09097
1.10646
1.09944
1.08484
1.07013
1.03331
0.997201
-0.213438
-0.200366
-0.149762
-0.068843
0.0281052
0.135291
0.250196
0.372415
0.503057
0.643343
0.790279
0.925877
1.03736
1.11087
1.13183
1.12206
1.10172
1.06738
1.01353
0.962485
-0.231258
-0.214828
-0.164801
-0.0830443
0.0133912
0.12085
0.23544
0.358425
0.489618
0.630959
0.780194
0.920285
1.03954
1.1282
1.15584
1.1394
1.09431
1.03181
0.961177
0.902036
-0.219303
-0.194089
-0.13922
-0.0535627
0.0501514
0.160889
0.281584
0.408668
0.544881
0.693728
0.842246
0.974695
1.08687
1.16542
1.15876
1.06924
1.0006
0.926429
0.855797
0.811134
-0.232381
-0.224338
-0.18219
-0.106038
-0.00939393
0.0972972