/*--------------------------------*- C++ -*----------------------------------*\
  =========                 |
  \\      /  F ield         | OpenFOAM: The Open Source CFD Toolbox
   \\    /   O peration     | Website:  https://openfoam.org
    \\  /    A nd           | Version:  6
     \\/     M anipulation  |
\*---------------------------------------------------------------------------*/
FoamFile
{
    version     2.0;
    format      ascii;
    class       surfaceScalarField;
    location    "96";
    object      phi;
}
// * * * * * * * * * * * * * * * * * * * * * * * * * * * * * * * * * * * * * //

dimensions      [0 3 -1 0 0 0 0];

internalField   nonuniform List<scalar> 
17370
(
-0.09
0.0898488
0.289162
-0.0714621
0.0537521
0.364486
-0.0381187
0.0276894
0.426597
-0.0196374
0.0146042
0.504285
-0.0107622
0.00827185
0.601893
-0.00627218
0.00489564
0.720434
-0.00373162
0.00289092
0.863747
-0.00214927
0.00159002
1.03601
-0.00107333
0.000660867
1.24292
-0.000253734
-0.000143879
1.49159
0.000523597
-0.000933368
1.4916
0.00133071
-0.00181641
1.24318
0.00233937
-0.0030424
1.03634
0.0038564
-0.00500156
0.864052
0.0063682
-0.00836148
0.721051
0.010847
-0.0146832
0.603051
0.01971
-0.0277542
0.507483
0.0381756
-0.0537999
0.431792
0.0715015
-0.0898754
0.365149
0.0900163
0.198995
-0.128138
0.0882297
0.0399083
-0.3646
0.353382
-0.0746686
0.0858869
-0.446477
0.454323
-0.0843824
0.0765369
-0.521192
0.529904
-0.0684386
0.059726
-0.61279
0.621571
-0.0515359
0.042755
-0.726896
0.734167
-0.0352928
0.0280216
-0.867477
0.872595
-0.0224188
0.0173008
-1.03848
1.04193
-0.0134887
0.0100364
-1.2446
1.24704
-0.00742353
0.00498836
-1.49262
1.49461
-0.00303753
0.00105345
-1.49251
1.49423
0.000618307
-0.00234111
-1.24397
1.24586
0.00424917
-0.00613497
-1.03751
1.04003
0.00848583
-0.0110046
-0.866098
0.869825
0.0143503
-0.0180773
-0.724389
0.729931
0.0231175
-0.0286601
-0.608696
0.616109
0.0358733
-0.0432858
-0.514895
0.523038
0.0520147
-0.0601576
-0.439855
0.447912
0.068819
-0.0768764
-0.375294
0.376737
0.0846709
-0.086114
-0.257328
0.222473
0.0748224
-0.0399674
-0.0685247
0.058701
0.0098237
-0.0517978
0.0583764
-0.374133
0.367555
-0.0574567
0.0537015
-0.453599
0.457354
-0.0486087
0.0446535
-0.527953
0.531908
-0.0408102
0.037168
-0.62157
0.625212
-0.0330623
0.0289824
-0.735356
0.739436
-0.0244069
0.0202425
-0.874348
0.878512
-0.015891
0.012192
-1.0435
1.0472
-0.00844908
0.00527196
-1.24857
1.25174
-0.00194022
-0.00113579
-1.49666
1.49974
0.0041852
-0.0074528
-1.4972
1.50047
0.0105321
-0.0141295
-1.25006
1.25366
0.0176734
-0.0218518
-1.04592
1.0501
0.025873
-0.0303098
-0.877752
0.882189
0.0342773
-0.0382712
-0.739892
0.743886
0.0418181
-0.0455631
-0.626766
0.630511
0.0494339
-0.0544462
-0.534804
0.539816
0.058112
-0.0589197
-0.457468
0.458276
0.0522081
-0.031998
-0.33574
0.31553
0.00989034
-0.0683373
0.0584469
-0.0529532
0.0489611
0.00399211
-0.0331386
0.0436734
-0.358129
0.347594
-0.0473631
0.0467297
-0.459298
0.459931
-0.0436682
0.0403104
-0.535815
0.539173
-0.0365322
0.0332228
-0.628544
0.631853
-0.0297785
0.0267401
-0.742665
0.745703
-0.0234736
0.0203594
-0.882036
0.885151
-0.0168208
0.0134339
-1.05079
1.05418
-0.00963301
0.00608821
-1.25518
1.25873
-0.00211325
-0.00168803
-1.50325
1.50705
0.00545639
-0.00933173
-1.50413
1.508
0.0127376
-0.0163377
-1.25741
1.26101
0.0195104
-0.0228076
-1.0539
1.0572
0.0257177
-0.0287821
-0.885669
0.888734
0.0316543
-0.0349325
-0.747139
0.750417
0.0381015
-0.0417372
-0.634289
0.637925
0.044973
-0.047895
-0.54412
0.547042
0.0483807
-0.0444829
-0.456553
0.452655
0.033699
-0.0162341
-0.296152
0.278687
0.00407542
-0.0526235
0.0485481
-0.0458875
0.0433966
0.00249091
-0.0227742
0.0331363
-0.336919
0.326557
-0.038943
0.0399499
-0.459624
0.458617
-0.0387508
0.0364574
-0.541899
0.544192
-0.0337823
0.0311788
-0.634912
0.637515
-0.0281066
0.0251982
-0.748757
0.751665
-0.0219227
0.0189186
-0.888112
0.891116
-0.0156021
0.0124925
-1.05732
1.06043
-0.00895616
0.00553915
-1.26219
1.26561
-0.001569
-0.00231972
-1.51093
1.51482
0.00616416
-0.010001
-1.51189
1.51573
0.0132337
-0.0165065
-1.26444
1.26771
0.0193361
-0.0223364
-1.0603
1.0633
0.0250696
-0.0280735
-0.891772
0.894776
0.0307556
-0.0335999
-0.753613
0.756457
0.0360107
-0.0384929
-0.640981
0.643463
0.0406219
-0.0416034
-0.548835
0.549816
0.0403675
-0.0342256
-0.447359
0.441217
0.0234957
-0.0102549
-0.263447
0.250206
0.00259404
-0.0453796
0.0427855
-0.0413269
0.0395656
0.00176125
-0.016704
0.0259314
-0.316724
0.307497
-0.0325141
0.0346381
-0.457031
0.454907
-0.0342042
0.0325237
-0.546179
0.54786
-0.0303328
0.0282277
-0.639831
0.641936
-0.0257845
0.0233749
-0.754321
0.75673
-0.0205018
0.0176984
-0.894022
0.896826
-0.0144464
0.0113631
-1.06348
1.06657
-0.00785843
0.00452111
-1.26894
1.27228
-0.00067837
-0.0030612
-1.51862
1.52236
0.00674396
-0.0104158
-1.51945
1.52312
0.0135174
-0.0166862
-1.27095
1.27412
0.019413
-0.0222611
-1.06632
1.06917
0.0247159
-0.027237
-0.897571
0.900092
0.029353
-0.0315015
-0.758894
0.761042
0.0333594
-0.0353014
-0.645605
0.647547
0.0367426
-0.0368806
-0.550318
0.550456
0.0344049
-0.0273301
-0.434524
0.42745
0.0176059
-0.00743144
-0.238647
0.228472
0.00188735
-0.0405995
0.0387121
-0.0380503
0.0367284
0.00132187
-0.0127311
0.0206441
-0.298933
0.29102
-0.0273606
0.0302586
-0.452368
0.44947
-0.0304435
0.0293079
-0.549304
0.55044
-0.0273013
0.0253712
-0.643985
0.645915
-0.0231548
0.0210008
-0.758983
0.761137
-0.0184654
0.0159623
-0.899414
0.901917
-0.0129976
0.0100979
-1.06952
1.07242
-0.00671478
0.00345623
-1.27555
1.27881
0.000305956
-0.0039444
-1.52601
1.52965
0.00751149
-0.0110582
-1.52671
1.53025
0.0140203
-0.0169828
-1.27725
1.28021
0.0194372
-0.0218973
-1.0719
1.07436
0.0239638
-0.026056
-0.902355
0.904447
0.0278388
-0.0296814
-0.763008
0.764851
0.031299
-0.0330021
-0.649351
0.651054
0.0337889
-0.0331892
-0.550223
0.549624
0.0297871
-0.0223953
-0.420156
0.412764
0.0138429
-0.0057739
-0.219449
0.21138
0.00147539
-0.037055
0.0355796
-0.0355759
0.0345608
0.00101518
-0.00992006
0.0165919
-0.283754
0.277083
-0.0230281
0.0263657
-0.446335
0.442998
-0.0271179
0.0263968
-0.551365
0.552086
-0.0246186
0.0228163
-0.647829
0.649631
-0.020724
0.0186846
-0.763229
0.765268
-0.016285
0.0139305
-0.904274
0.906629
-0.0111611
0.00844819
-1.07515
1.07787
-0.00526134
0.00215239
-1.28195
1.28506
0.00147928
-0.00500613
-1.53321
1.53674
0.00844466
-0.0118091
-1.53368
1.53705
0.0145516
-0.0172195
-1.28306
1.28573
0.0193839
-0.0215316
-1.07672
1.07887
0.0233464
-0.0251965
-0.906395
0.908245
0.0267751
-0.0284033
-0.766576
0.768205
0.0298176
-0.0311737
-0.652615
0.653971
0.0314622
-0.0301209
-0.548659
0.547317
0.0260873
-0.0187605
-0.405374
0.398047
0.0112839
-0.0046793
-0.20411
0.197505
0.00120201
-0.0342548
0.0330528
-0.0336722
0.0328857
0.000786501
-0.00782986
0.0134174
-0.270984
0.265397
-0.0193529
0.0228733
-0.439562
0.436042
-0.0240902
0.0236094
-0.552725
0.553206
-0.0220914
0.0203933
-0.651437
0.653135
-0.0183893
0.0164287
-0.767261
0.769222
-0.0141131
0.0118387
-0.908873
0.911148
-0.0091648
0.00655527
-1.08045
1.08306
-0.00350271
0.000531277
-1.28805
1.29102
0.00293436
-0.00629114
-1.54015
1.54351
0.00953929
-0.0126766
-1.54026
1.5434
0.0151988
-0.0176162
-1.28832
1.29073
0.0195551
-0.0214693
-1.08099
1.08291
0.0230817
-0.0247218
-0.909972
0.911612
0.0261159
-0.0275488
-0.769724
0.771157
0.0287613
-0.0297279
-0.655132
0.656099
0.0296383
-0.0276178
-0.545624
0.543604
0.0231666
-0.0160869
-0.390833
0.383753
0.00949834
-0.00392667
-0.191463
0.185892
0.0010137
-0.0319551
0.0309414
-0.0321985
0.0315902
0.000608293
-0.00621019
0.0108688
-0.260304
0.255645
-0.016197
0.0197015
-0.432534
0.429029
-0.0212269
0.0209634
-0.553622
0.553885
-0.0196687
0.0180245
-0.65486
0.656505
-0.016069
0.0141501
-0.77115
0.773069
-0.0118841
0.00965958
-0.913316
0.915541
-0.00704465
0.00449716
-1.08556
1.08811
-0.00152684
-0.00134632
-1.29389
1.29676
0.00466825
-0.00785444
-1.54674
1.54993
0.0109082
-0.0138302
-1.54638
1.5493
0.0161569
-0.0183548
-1.2931
1.2953
0.0200871
-0.0217782
-1.08482
1.08651
0.0231954
-0.0246338
-0.913126
0.914564
0.025857
-0.0271106
-0.772487
0.77374
0.0281796
-0.028724
-0.656863
0.657407
0.0282372
-0.0256365
-0.541285
0.538684
0.0209167
-0.0141427
-0.376828
0.370054
0.00824741
-0.00340662
-0.18072
0.175879
0.000884315
-0.0300003
0.029116
-0.0310637
0.0306007
0.000462978
-0.00489945
0.00875374
-0.251418
0.247564
-0.013429
0.0167676
-0.425622
0.422283
-0.0184598
0.0183761
-0.554112
0.554196
-0.0172642
0.0156486
-0.658208
0.659824
-0.0137062
0.0117926
-0.774967
0.776881
-0.00953409
0.0073233
-0.917664
0.919875
-0.00473423
0.00222197
-1.09055
1.09306
0.000693941
-0.00349661
-1.29954
1.30234
0.00670925
-0.00975661
-1.553
1.55604
0.0126431
-0.0153698
-1.55207
1.5548
0.0175094
-0.0194886
-1.29745
1.29943
0.0210133
-0.0224841
-1.08821
1.08969
0.0237159
-0.0249697
-0.915878
0.917132
0.0260403
-0.027132
-0.774895
0.775987
0.0279907
-0.0281656
-0.657753
0.657928
0.0272505
-0.0241447
-0.535825
0.532719
0.0192459
-0.012762
-0.363438
0.356954
0.00738513
-0.00305488
-0.171323
0.166992
0.000798437
-0.0282818
0.0274833
-0.0302081
0.029869
0.000339095
-0.00379417
0.00693831
-0.244092
0.240948
-0.0109473
0.0140082
-0.419107
0.416046
-0.0157382
0.0157953
-0.554273
0.554216
-0.014754
0.0132003
-0.661492
0.663046
-0.0112411
0.00929824
-0.778784
0.780727
-0.00700668
0.0047722
-0.921989
0.924224
-0.00216892
-0.000342202
-1.09547
1.09799
0.00323737
-0.00599871
-1.30505
1.30782
0.00913431
-0.0120723
-1.55899
1.56192
0.0148155
-0.0173629
-1.55737
1.55992
0.0193228
-0.0210863
-1.30138
1.30314
0.0224053
-0.0236599
-1.0912
1.09245
0.0247115
-0.0257866
-0.918257
0.919332
0.0267109
-0.0276417
-0.776968
0.777899
0.0282382
-0.0281102
-0.657951
0.657823
0.0267196
-0.0231407
-0.529379
0.5258
0.0180974
-0.0118402
-0.350603
0.344346
0.00682567
-0.00283372
-0.162856
0.158864
0.000746709
-0.0267173
0.0259706
-0.0295933
0.0293658
0.00022757
-0.00281785
0.00531724
-0.238153
0.235654
-0.00865813
0.0113567
-0.413196
0.410498
-0.0130085
0.0131308
-0.554203
0.554081
-0.0121199
0.0105954
-0.664679
0.666203
-0.00859368
0.00659022
-0.782664
0.784667
-0.00422734
0.00193207
-0.926365
0.92866
0.000728055
-0.00327747
-1.10041
1.10296
0.00619411
-0.00894967
-1.3105
1.31325
0.0120418
-0.0148957
-1.56476
1.56762
0.0175143
-0.0198963
-1.5623
1.56468
0.021686
-0.0232382
-1.30489
1.30644
0.0243503
-0.0253854
-1.09377
1.09481
0.0262519
-0.0271392
-0.920272
0.92116
0.0279044
-0.0286677
-0.778663
0.779426
0.0289793
-0.0285074
-0.657562
0.65709
0.0266497
-0.0226167
-0.522016
0.517983
0.017423
-0.0113009
-0.338182
0.33206
0.00650899
-0.00271597
-0.154995
0.151201
0.000721932
-0.0252425
0.0245206
-0.0291987
0.029078
0.000120698
-0.00190625
0.00379671
-0.233484
0.231593
-0.00646236
0.0087266
-0.408053
0.405789
-0.0101907
0.0102977
-0.554062
0.553955
-0.00928087
0.00774414
-0.667844
0.669381
-0.00566882
0.00357179
-0.786667
0.788764
-0.00109851
-0.00129465
-0.930863
0.933256
0.00405382
-0.0066809
-1.10542
1.10805
0.00966175
-0.0124482
-1.31594
1.31873
0.0155324
-0.0183286
-1.57038
1.57317
0.0208413
-0.0230707
-1.56689
1.56912
0.0246966
-0.0260376
-1.308
1.30934
0.0269408
-0.0277511
-1.09593
1.09674
0.0284228
-0.0291117
-0.921904
0.922593
0.02972
-0.0303362
-0.78001
0.780626
0.0302862
-0.0293999
-0.656441
0.655555
0.0270533
-0.0225579
-0.513756
0.50926
0.0171771
-0.0110852
-0.325983
0.319892
0.00639169
-0.00268238
-0.147472
0.143763
0.000719095
-0.0238063
0.0230872
-0.0290183
0.029006
1.23616e-05
-0.00101044
0.00230347
-0.230025
0.228732
-0.00427709
0.0060412
-0.403817
0.402052
-0.00721321
0.00722212
-0.554017
0.554009
-0.00615032
0.00455978
-0.671075
0.672665
-0.00236835
0.000141081
-0.790858
0.793086
0.00248632
-0.00501923
-0.935558
0.938091
0.00792437
-0.0106718
-1.1106
1.11335
0.0137624
-0.0166189
-1.32146
1.32431
0.0197332
-0.0225001
-1.57588
1.57865
0.0249256
-0.0270121
-1.57117
1.57326
0.0284775
-0.02961
-1.31069
1.31182
0.0303041
-0.030888
-1.09766
1.09824
0.0313588
-0.0318364
-0.923134
0.923611
0.0322588
-0.0326059
-0.780972
0.781319
0.0322535
-0.030871
-0.654484
0.653101
0.0279936
-0.0229904
-0.504561
0.499558
0.0173516
-0.0111677
-0.313789
0.307605
0.00645301
-0.00272344
-0.140065
0.136336
0.000735702
-0.0223661
0.0216304
-0.029054
0.0291545
-0.00010043
-7.89009e-05
0.000766386
-0.227761
0.227073
-0.00201799
0.00321549
-0.400617
0.399419
-0.0039937
0.00381902
-0.554246
0.554421
-0.00263254
0.000928354
-0.674463
0.676167
0.00141934
-0.0038215
-0.79531
0.797712
0.00665369
-0.00937343
-0.940534
0.943253
0.0124768
-0.0153921
-1.11603
1.11895
0.0186426
-0.0216111
-1.32712
1.33009
0.024795
-0.0275615
-1.58134
1.5841
0.0299198
-0.0318722
-1.57515
1.5771
0.0331769
-0.0340997
-1.31296
1.31389
0.0345804
-0.0349261
-1.09893
1.09928
0.0351861
-0.0354432
-0.92393
0.924187
0.0356565
-0.0356629
-0.781359
0.781365
0.0349656
-0.0330031
-0.651517
0.649554
0.0295262
-0.0239368
-0.494327
0.488737
0.0179416
-0.0115308
-0.301348
0.294937
0.00667744
-0.00283126
-0.132571
0.128725
0.000769331
-0.0208843
0.020115
-0.0293258
0.0295612
-0.000235353
0.00088526
-0.000867446
-0.226723
0.226705
0.000397404
0.000157059
-0.398588
0.398033
-0.000437208
-1.28971e-05
-0.554936
0.555386
0.00138647
-0.00326529
-0.678131
0.68001
0.0058293
-0.00845786
-0.80011
0.802738
0.0115528
-0.0145136
-0.945886
0.948847
0.0178752
-0.021012
-1.12181
1.12495
0.0244775
-0.0276032
-1.33302
1.33614
0.0308978
-0.0336899
-1.58679
1.58959
0.0359924
-0.0378165
-1.57883
1.58066
0.0389639
-0.0396747
-1.31479
1.3155
0.0399325
-0.0400208
-1.09973
1.09981
0.0400504
-0.0400709
-0.924263
0.924283
0.0400931
-0.039655
-0.781057
0.780619
0.0385245
-0.0358839
-0.647385
0.644744
0.0317113
-0.0254215
-0.482879
0.476589
0.0189453
-0.0121597
-0.288383
0.281598
0.00705111
-0.00299813
-0.124797
0.120744
0.000817432
-0.0193279
0.0185104
-0.0298674
0.0302492
-0.000381825
0.00197905
-0.00258969
-0.227004
0.227615
0.00299071
-0.00320324
-0.397874
0.398086
0.00357666
-0.00441327
-0.556313
0.557149
0.00603767
-0.00816169
-0.682208
0.684332
0.0110176
-0.0139404
-0.805359
0.808282
0.0173698
-0.0206364
-0.951727
0.954994
0.0243257
-0.0277446
-1.12804
1.13146
0.0314862
-0.0348166
-1.33924
1.34257
0.038262
-0.0411011
-1.5923
1.59514
0.043351
-0.0450346
-1.58222
1.58391
0.0460103
-0.046513
-1.31616
1.31666
0.0465417
-0.0463541
-1.09999
1.0998
0.0461372
-0.0459087
-0.924079
0.923851
0.0456969
-0.0447464
-0.779882
0.778931
0.0430808
-0.0396245
-0.641893
0.638437
0.0346191
-0.0274716
-0.46997
0.462822
0.0203614
-0.0130403
-0.274593
0.267272
0.00755968
-0.0032156
-0.116569
0.112225
0.000877094
-0.0176693
0.0167922
-0.0307087
0.0312697
-0.000561009
0.00327008
-0.00467771
-0.228662
0.230069
0.00600081
-0.00702385
-0.398686
0.399709
0.00815029
-0.00949475
-0.558611
0.559955
0.0115052
-0.0139575
-0.686836
0.689288
0.0171939
-0.0204878
-0.811193
0.814487
0.0243338
-0.0279803
-0.95819
0.961836
0.032076
-0.0358436
-1.13485
1.13862
0.0399253
-0.0435079
-1.34588
1.34947
0.0471412
-0.0500458
-1.59791
1.60081
0.0522446
-0.0537737
-1.5853
1.58683
0.0545658
-0.054842
-1.31703
1.31731
0.0546223
-0.0541381
-1.09969
1.09921
0.0536615
-0.0531566
-0.923347
0.922842
0.0525563
-0.0511253
-0.777771
0.77634
0.0487593
-0.04432
-0.634756
0.630317
0.0383059
-0.0301002
-0.455267
0.447061
0.0221761
-0.0141474
-0.259651
0.251623
0.00818092
-0.00347104
-0.10772
0.10301
0.000943998
-0.0158873
0.0149433
-0.0319194
0.0327102
-0.000790758
0.00482593
-0.00715559
-0.231933
0.234262
0.00955416
-0.0115093
-0.401229
0.403184
0.0135151
-0.0154916
-0.562073
0.56405
0.0180241
-0.0209011
-0.692187
0.695064
0.0246333
-0.0283877
-0.81777
0.821524
0.0327488
-0.0368626
-0.965427
0.969541
0.0414538
-0.0456412
-1.14237
1.14656
0.0501259
-0.054001
-1.35304
1.35691
0.0578445
-0.0608133
-1.60363
1.6066
0.0629431
-0.0642921
-1.58804
1.58939
0.0648663
-0.0648895
-1.31733
1.31736
0.0644027
-0.0635949
-1.09878
1.09797
0.0628407
-0.0620643
-0.922011
0.921235
0.060967
-0.0589471
-0.774745
0.772726
0.0557273
-0.0500695
-0.625606
0.619948
0.0428093
-0.0332909
-0.438345
0.428827
0.0243461
-0.0154326
-0.243209
0.234296
0.00887677
-0.00374423
-0.0981086
0.092976
0.00101159
-0.0139704
0.0129588
-0.0335907
0.0346847
-0.00109409
0.00679215
-0.0102193
-0.23706
0.240488
0.0138894
-0.0169293
-0.405795
0.408835
0.019946
-0.0226809
-0.566991
0.569726
0.0258894
-0.0293269
-0.698477
0.701915
0.0336966
-0.0380316
-0.825276
0.829611
0.0430272
-0.0477064
-0.973617
0.978296
0.0528867
-0.0575622
-1.15074
1.15542
0.0625004
-0.0666874
-1.36077
1.36495
0.0707317
-0.0737306
-1.60946
1.61246
0.0757456
-0.0768667
-1.59037
1.59149
0.0771822
-0.0769011
-1.31696
1.31668
0.076133
-0.0749674
-1.09719
1.09602
0.0739276
-0.0728563
-0.920082
0.91901
0.0711943
-0.0684283
-0.770589
0.767823
0.0641143
-0.0569095
-0.613953
0.606748
0.0480948
-0.0369582
-0.418677
0.407541
0.0267697
-0.0168059
-0.224918
0.214954
0.00958371
-0.00400402
-0.087636
0.0820563
0.00107035
-0.0119213
0.0108509
-0.035858
0.037368
-0.00150993
0.00937197
-0.0141647
-0.244387
0.24918
0.0193443
-0.0236361
-0.412744
0.417036
0.0278223
-0.0314709
-0.573693
0.577342
0.0355386
-0.039716
-0.705993
0.71017
0.0448959
-0.0499566
-0.83395
0.83901
0.0557245
-0.0610737
-0.982959
0.988309
0.0669295
-0.0721401
-1.1601
1.16531
0.0775453
-0.0820223
-1.36909
1.37357
0.0862078
-0.089154
-1.61529
1.61824
0.0909618
-0.0917621
-1.59217
1.59297
0.0917623
-0.0911741
-1.31584
1.31526
0.0900441
-0.0885001
-1.09487
1.09333
0.0871649
-0.0856194
-0.91743
0.915885
0.0834475
-0.0796563
-0.764919
0.761128
0.073945
-0.0647743
-0.599118
0.589947
0.0540202
-0.0409139
-0.395639
0.382533
0.0292612
-0.0181211
-0.204463
0.193323
0.0102064
-0.00420688
-0.0762763
0.0702767
0.00110785
-0.00976332
0.00865546
-0.0389271
0.0410384
-0.00211131
0.0129257
-0.0194662
-0.254415
0.260956
0.0264629
-0.0322134
-0.422564
0.428314
0.0377697
-0.0425328
-0.582567
0.58733
0.0476641
-0.0527869
-0.71511
0.720233
0.059022
-0.0649816
-0.844076
0.850036
0.0716608
-0.0777625
-0.99366
0.999762
0.0843354
-0.0900705
-1.1705
1.17623
0.0958782
-0.100543
-1.37794
1.3826
0.104721
-0.107457
-1.62094
1.62367
0.108905
-0.109244
-1.59323
1.59357
0.108839
-0.107832
-1.31391
1.3129
0.106325
-0.104405
-1.09181
1.08989
0.102767
-0.100666
-0.913696
0.911595
0.0978767
-0.0927059
-0.757153
0.751983
0.0851366
-0.0734328
-0.58022
0.568516
0.0602668
-0.0448162
-0.368533
0.353082
0.0315203
-0.0191651
-0.181635
0.169279
0.0106163
-0.00429856
-0.0641188
0.0578011
0.00110974
-0.00754547
0.00643573
-0.0431348
0.0461733
-0.00303855
0.0180903
-0.0269237
-0.267892
0.276726
0.0361478
-0.0436502
-0.435938
0.443441
0.0508337
-0.0569362
-0.59412
0.600222
0.063483
-0.0699162
-0.72626
0.732693
0.0774006
-0.0843659
-0.85597
0.862936
0.0920155
-0.0988612
-1.00585
1.0127
0.106068
-0.112189
-1.18187
1.18799
0.118191
-0.12282
-1.38703
1.39166
0.126721
-0.129
-1.62603
1.62831
0.129871
-0.129562
-1.59325
1.59294
0.128609
-0.127068
-1.31098
1.30944
0.125184
-0.122849
-1.08793
1.08559
0.120775
-0.118143
-0.908681
0.906049
0.114391
-0.107352
-0.746513
0.739474
0.0973189
-0.082377
-0.556089
0.541148
0.0662644
-0.0481302
-0.336653
0.318519
0.033122
-0.019667
-0.156433
0.142978
0.0106646
-0.00422189
-0.0514121
0.0449694
0.00106221
-0.00534451
0.0042823
-0.0490701
0.0536729
-0.00460285
0.0260815
-0.0380081
-0.286
0.297927
0.0501076
-0.0599621
-0.453956
0.46381
0.0691957
-0.0769139
-0.608927
0.616646
0.0851739
-0.0931384
-0.739934
0.747898
0.101965
-0.109905
-0.869842
0.877782
0.118379
-0.125744
-1.01943
1.0268
0.133256
-0.139415
-1.19383
1.19999
0.1452
-0.149411
-1.39585
1.40006
0.152627
-0.154097
-1.63002
1.63149
0.154093
-0.152891
-1.59184
1.59064
0.151224
-0.14906
-1.30681
1.30465
0.146735
-0.143921
-1.0831
1.08028
0.141383
-0.138055
-0.90227
0.898941
0.132864
-0.123123
-0.731861
0.72212
0.109761
-0.0907315
-0.525259
0.50623
0.0711412
-0.0501406
-0.299448
0.278447
0.0335617
-0.0193484
-0.129223
0.115009
0.0102164
-0.00393164
-0.038593
0.0323082
0.000954363
-0.00326039
0.00230603
-0.0578521
0.0657034
-0.00785123
0.0400714
-0.0565598
-0.310933
0.327421
0.072709
-0.0857056
-0.478224
0.491221
0.0970816
-0.106349
-0.627506
0.636773
0.116298
-0.125669
-0.756372
0.765743
0.135565
-0.144019
-0.885432
0.893886
0.152684
-0.159937
-1.03377
1.04102
0.167071
-0.172641
-1.20556
1.21113
0.177568
-0.180775
-1.40353
1.40673
0.182746
-0.182939
-1.63214
1.63233
0.18168
-0.179306
-1.5885
1.58612
0.17673
-0.173811
-1.30117
1.29825
0.170971
-0.167603
-1.07715
1.07378
0.164461
-0.159997
-0.893874
0.88941
0.152622
-0.138962
-0.711384
0.697724
0.121075
-0.0970936
-0.485923
0.461942
0.0737859
-0.0501472
-0.256818
0.23318
0.0324662
-0.0180803
-0.100894
0.086508
0.00923456
-0.00342015
-0.0262719
0.0204575
0.000780212
-0.00140259
0.000622374
-0.0729921
0.0774171
-0.00442499
0.030718
-0.0451767
-0.346715
0.361174
0.0596801
-0.0716645
-0.510063
0.522047
0.0825983
-0.0930057
-0.649668
0.660076
0.104886
-0.115849
-0.774446
0.785409
0.128105
-0.139074
-0.901331
0.9123
0.150887
-0.161535
-1.04739
1.05804
0.172895
-0.182876
-1.21569
1.22567
0.193168
-0.201787
-1.40886
1.41748
0.210093
-0.216318
-1.63143
1.63766
0.220485
-0.22328
-1.5826
1.5854
0.22477
-0.225843
-1.29373
1.29481
0.226563
-0.226051
-1.06964
1.06913
0.224538
-0.219394
-0.88211
0.876965
0.207836
-0.185594
-0.682445
0.660203
0.156747
-0.120326
-0.436536
0.400115
0.0875419
-0.0565078
-0.209584
0.17855
0.0349827
-0.0186122
-0.0729572
0.0565867
0.00905289
-0.00313383
-0.0151285
0.0092094
0.00063557
0.000171231
-0.000806801
-0.0851704
0.0832708
0.00189966
0.00857239
-0.0180975
-0.378531
0.388057
0.0292316
-0.0380125
-0.538922
0.547703
0.0469779
-0.0557444
-0.673252
0.682019
0.0665961
-0.0768239
-0.795802
0.80603
0.0878697
-0.0980129
-0.922681
0.932824
0.108928
-0.118433
-1.06844
1.07795
0.128789
-0.137549
-1.2355
1.24426
0.146606
-0.154005
-1.42589
1.43329
0.160823
-0.165869
-1.64336
1.6484
0.169048
-0.17095
-1.58771
1.58962
0.171481
-0.171658
-1.29434
1.29451
0.171654
-0.170811
-1.06663
1.06578
0.168143
-0.160814
-0.866422
0.859094
0.147509
-0.125521
-0.633676
0.611688
0.100478
-0.0722259
-0.361488
0.333236
0.0496287
-0.0304318
-0.148673
0.129476
0.0180602
-0.00923556
-0.0415169
0.0326923
0.00429962
-0.00141214
-0.00359142
0.000703946
0.000246457
0.00163096
-0.00187741
-0.0868613
0.0838865
0.00297473
-0.000698003
-0.0048977
-0.400365
0.405961
0.0123874
-0.0189689
-0.560596
0.567177
0.0257382
-0.0332996
-0.693389
0.70095
0.042769
-0.0516774
-0.815182
0.824091
0.0615157
-0.0704016
-0.942146
0.951032
0.0797393
-0.0882858
-1.08731
1.09586
0.0974158
-0.105273
-1.25265
1.2605
0.112999
-0.119221
-1.44015
1.44637
0.125109
-0.129188
-1.65302
1.6571
0.131492
-0.13262
-1.59109
1.59222
0.132578
-0.132288
-1.2936
1.29331
0.131525
-0.130174
-1.06191
1.06056
0.126785
-0.118387
-0.847576
0.839178
0.105119
-0.0852328
-0.586563
0.566676
0.0649115
-0.0442481
-0.303283
0.282619
0.0294815
-0.0178375
-0.11059
0.0989455
0.0105708
-0.0054664
-0.024078
0.0189735
0.00258648
-0.000868412
0.00235697
-0.00407503
0.000160278
0.00232343
-0.00248371
-0.0856432
0.0827559
0.00288732
-0.00480977
0.00192184
-0.415116
0.418004
0.00301566
-0.00805584
-0.57697
0.58201
0.0138021
-0.0201627
-0.709994
0.716354
0.0283039
-0.0359634
-0.832204
0.839863
0.0443901
-0.0520359
-0.959336
0.966982
0.0604758
-0.0677877
-1.10396
1.11127
0.0758027
-0.0822605
-1.26796
1.27442
0.0889826
-0.0943408
-1.45241
1.45777
0.0991541
-0.102148
-1.66091
1.66391
0.103896
-0.104598
-1.59295
1.59365
0.104214
-0.103129
-1.29215
1.29106
0.101877
-0.0999245
-1.05595
1.05399
0.0960455
-0.0879102
-0.826949
0.818814
0.0756498
-0.059124
-0.544305
0.527779
0.0436867
-0.0294212
-0.260988
0.246723
0.0197514
-0.0123071
-0.0866925
0.0792482
0.00757307
-0.00411461
-0.0133891
0.00993063
0.0020565
-0.000739212
0.00612301
-0.0074403
0.000153506
0.00278293
-0.00293643
-0.0840831
0.0814684
0.00261469
-0.00637416
0.00520093
-0.425087
0.426261
-0.00147464
-0.0023248
-0.59014
0.593939
0.00693557
-0.0126483
-0.723958
0.72967
0.0194753
-0.0261801
-0.846693
0.853398
0.0334651
-0.0400967
-0.974131
0.980762
0.0473355
-0.0537988
-1.11842
1.12488
0.0605986
-0.0664137
-1.28071
1.28652
0.0721563
-0.0766593
-1.46275
1.46725
0.0805789
-0.0828217
-1.6668
1.66905
0.0839423
-0.0839249
-1.59373
1.59372
0.0831697
-0.0818361
-1.28951
1.28818
0.0801641
-0.0775493
-1.04923
1.04661
0.0736531
-0.066139
-0.806844
0.79933
0.0557544
-0.0425733
-0.509181
0.496
0.031244
-0.0213957
-0.231182
0.221334
0.0148126
-0.00973189
-0.0709399
0.0658592
0.0063455
-0.00366483
-0.00585465
0.00317398
0.00195162
-0.000747942
0.00908718
-0.0102909
0.000175486
0.0031882
-0.00336369
-0.0825209
0.0802254
0.00229548
-0.00663576
0.00609318
-0.431928
0.432471
-0.0038458
0.000763913
-0.600315
0.603397
0.00364676
-0.0084999
-0.735752
0.740605
0.0143219
-0.0200917
-0.859189
0.864959
0.0264943
-0.0323518
-0.986987
0.992844
0.0388688
-0.0444599
-1.13101
1.1366
0.0504455
-0.0555329
-1.29198
1.29707
0.0604325
-0.064177
-1.47141
1.47516
0.06726
-0.0691634
-1.67118
1.67309
0.0696266
-0.0692285
-1.59325
1.59285
0.0680652
-0.0663287
-1.28634
1.28461
0.0645279
-0.06141
-1.0419
1.03878
0.0574264
-0.0508263
-0.78824
0.78164
0.0422178
-0.0319953
-0.480934
0.470711
0.0237744
-0.0168927
-0.210155
0.203274
0.0123762
-0.00869421
-0.0598141
0.0561321
0.00601304
-0.00369721
0.0001251
-0.00244093
0.00207825
-0.000852484
0.0117706
-0.0129963
0.000217066
0.00359408
-0.00381114
-0.0811957
0.0793408
0.00185494
-0.00606489
0.00600047
-0.436881
0.436945
-0.00420465
0.00191094
-0.609088
0.611381
0.00211378
-0.00645088
-0.745876
0.750213
0.0118691
-0.0167724
-0.870239
0.875142
0.0223066
-0.0274048
-0.99861
1.00371
0.0334182
-0.0383468
-1.14216
1.14709
0.0435003
-0.048059
-1.30189
1.30645
0.052686
-0.055812
-1.47882
1.48194
0.0583615
-0.059557
-1.6745
1.6757
0.0597664
-0.0586025
-1.59216
1.59099
0.0572218
-0.0552705
-1.28242
1.28047
0.0530045
-0.0497969
-1.03419
1.03098
0.0457749
-0.0397574
-0.771471
0.765454
0.0329279
-0.0250275
-0.458518
0.450617
0.0190599
-0.0143432
-0.195131
0.190414
0.011112
-0.00830896
-0.0515134
0.0487104
0.00608483
-0.00395788
0.00533585
-0.0074628
0.00233797
-0.00101478
0.0144694
-0.0157926
0.000280105
0.0040536
-0.0043337
-0.0802974
0.0787927
0.00150461
-0.0052186
0.00542832
-0.440589
0.440379
-0.00387671
0.00178534
-0.616564
0.618655
0.00191359
-0.00574694
-0.754813
0.758646
0.0103123
-0.0149147
-0.879924
0.884526
0.0198977
-0.0249729
-1.00854
1.01361
0.0300123
-0.0345124
-1.15204
1.15654
0.0394921
-0.0434743
-1.31077
1.31475
0.0471693
-0.0502374
-1.48484
1.48791
0.0523376
-0.053146
-1.67681
1.67762
0.0527716
-0.0513948
-1.58988
1.5885
0.0496316
-0.0472472
-1.27789
1.27551
0.0447002
-0.0411632
-1.02642
1.02289
0.0371266
-0.0318581
-0.75639
0.751121
0.0260169
-0.0200196
-0.440822
0.434824
0.0157702
-0.0124257
-0.18443
0.181086
0.0101027
-0.00797631
-0.0450332
0.0429068
0.00610997
-0.00417024
0.0100859
-0.0120256
0.0025768
-0.00117473
0.0173062
-0.0187083
0.000347681
0.00461276
-0.00496044
-0.0798905
0.0785879
0.0013026
-0.00409236
0.00416485
-0.443657
0.443585
-0.00292183
0.000943049
-0.62323
0.625209
0.00238935
-0.0060115
-0.762945
0.766568
0.0102757
-0.0143396
-0.888857
0.892921
0.0192926
-0.0233849
-1.01801
1.02211
0.0281853
-0.0322833
-1.16112
1.16522
0.036849
-0.0407024
-1.31859
1.32245
0.0442715
-0.0466397
-1.49057
1.49294
0.0484563
-0.0489606
-1.67816
1.67866
0.0484651
-0.046533
-1.58677
1.58484
0.0444241
-0.0415986
-1.2729
1.27008
0.0387053
-0.0347469
-1.01813
1.01417
0.0306756
-0.0256369
-0.742802
0.737763
0.0207175
-0.0159839
-0.426931
0.422197
0.0128056
-0.0105115
-0.176583
0.174289
0.00882955
-0.0072202
-0.0399302
0.0383209
0.00574092
-0.00408711
0.014351
-0.0160048
0.00262135
-0.00126396
0.0201848
-0.0215422
0.000393114
0.00526266
-0.00565577
-0.0797298
0.0787615
0.000968327
-0.0030421
0.00270734
-0.446592
0.446927
-0.00171348
-0.000248651
-0.628965
0.630927
0.00317086
-0.00658234
-0.770345
0.773756
0.0105638
-0.0146512
-0.896793
0.900881
0.0188301
-0.0229477
-1.02635
1.03047
0.027522
-0.0311985
-1.16967
1.17334
0.0355957
-0.0391104
-1.32597
1.32949
0.0423384
-0.0448099
-1.49557
1.49804
0.0465241
-0.0466307
-1.67898
1.67909
0.0455904
-0.043529
-1.58282
1.58076
0.0411836
-0.0378657
-1.26677
1.26345
0.0344623
-0.0303151
-1.00932
1.00517
0.0256352
-0.0208692
-0.729947
0.725181
0.0165035
-0.0125417
-0.41572
0.411758
0.0101113
-0.00832617
-0.170716
0.168931
0.00710104
-0.00594682
-0.0359761
0.0348218
0.00487257
-0.00359982
0.0179414
-0.0192142
0.00240476
-0.00121888
0.0228784
-0.0240643
0.000405315
0.00594891
-0.00635423
-0.0799613
0.0791709
0.000790331
-0.00213324
0.00188641
-0.449575
0.449821
-0.00043203
-0.00131212
-0.634615
0.636359
0.00434947
-0.00756514
-0.777062
0.780278
0.0113004
-0.0148828
-0.904581
0.908164
0.0190772
-0.0227478
-1.03452
1.03819
0.0271072
-0.0310631
-1.1774
1.18136
0.0348537
-0.0384487
-1.33293
1.33653
0.041768
-0.0439335
-1.50023
1.50239
0.0454774
-0.045739
-1.67918
1.67944
0.0444246
-0.0421689
-1.57825
1.57599
0.0392655
-0.0355876
-1.25982
1.25614
0.0318913
-0.0271839
-0.999911
0.995204
0.0223363
-0.0174191
-0.717701
0.712784
0.01328
-0.00970263
-0.40594
0.402363
0.00754446
-0.00607912
-0.166032
0.164566
0.00511816
-0.00433784
-0.0329624
0.0321821
0.00364308
-0.00280341
0.0206651
-0.0215048
0.00194692
-0.00104076
0.0251249
-0.026031
0.000369654
0.0066006
-0.00697025
-0.0804887
0.0798752
0.00061357
-0.00108889
0.000695809
-0.452599
0.452992
0.000564431
-0.00257141
-0.639736
0.641743
0.0054987
-0.0085068
-0.783392
0.7864
0.012257
-0.0156137
-0.911681
0.915038
0.0195522
-0.0232463
-1.04229
1.04599
0.0273783
-0.0311508
-1.18508
1.18885
0.034976
-0.0383835
-1.33992
1.34333
0.0415946
-0.0441912
-1.50469
1.50729
0.045704
-0.0456917
-1.67938
1.67937
0.0444018
-0.0416934
-1.57329
1.57059
0.0386395
-0.0347444
-1.25204
1.24814
0.0304258
-0.0253029
-0.989633
0.984511
0.0201447
-0.0148404
-0.705562
0.700258
0.0107898
-0.00731706
-0.397119
0.393646
0.00532042
-0.00394094
-0.162006
0.160626
0.0031774
-0.00267188
-0.0306957
0.0301902
0.00229992
-0.00186539
0.0224917
-0.0229263
0.00136753
-0.000792437
0.0267353
-0.0273104
0.000315367
0.00713536
-0.00745073
-0.0812563
0.0807682
0.000488075
-0.000230207
-0.000257741
-0.455715
0.456203
0.00156428