/*--------------------------------*- C++ -*----------------------------------*\
  =========                 |
  \\      /  F ield         | OpenFOAM: The Open Source CFD Toolbox
   \\    /   O peration     | Website:  https://openfoam.org
    \\  /    A nd           | Version:  6
     \\/     M anipulation  |
\*---------------------------------------------------------------------------*/
FoamFile
{
    version     2.0;
    format      ascii;
    class       volVectorField;
    location    "7.9";
    object      U;
}
// * * * * * * * * * * * * * * * * * * * * * * * * * * * * * * * * * * * * * //

dimensions      [0 1 -1 0 0 0 0];

internalField   nonuniform List<vector> 
8800
(
(0.987144 -0.0765813 0)
(1.0015 -0.0550269 0)
(0.999253 -0.0282603 0)
(1.00015 -0.0149529 0)
(1.0006 -0.00840651 0)
(1.00018 -0.00473113 0)
(0.999893 -0.00255191 0)
(0.999898 -0.00135101 0)
(0.999931 -0.000651199 0)
(1.00003 -0.000129317 0)
(0.999949 0.000434578 0)
(0.999909 0.00102023 0)
(0.999864 0.00187745 0)
(0.999968 0.00351556 0)
(1.00047 0.00638647 0)
(1.00046 0.0111602 0)
(0.999735 0.0205172 0)
(0.998706 0.0384299 0)
(1.00688 0.0723775 0)
(0.771223 0.0366245 0)
(0.36413 -0.015901 0)
(1.04417 -0.0762224 0)
(1.08517 -0.0699484 0)
(1.04632 -0.0536058 0)
(1.02375 -0.0389214 0)
(1.01133 -0.0255988 0)
(1.00547 -0.0162603 0)
(1.00271 -0.0100243 0)
(1.0014 -0.00552148 0)
(1.00106 -0.00199315 0)
(1.00102 0.000861302 0)
(1.00111 0.0040755 0)
(1.0019 0.00795216 0)
(1.00382 0.0131027 0)
(1.00779 0.0206033 0)
(1.01665 0.0320813 0)
(1.0334 0.046447 0)
(1.06388 0.0613349 0)
(1.09203 0.0752251 0)
(0.840084 0.0562403 0)
(0.220472 -0.00197644 0)
(1.07783 -0.0472743 0)
(1.09896 -0.0438716 0)
(1.06286 -0.0361289 0)
(1.03758 -0.0300767 0)
(1.02121 -0.0238796 0)
(1.01151 -0.0170531 0)
(1.00671 -0.0109511 0)
(1.0045 -0.00579272 0)
(1.00387 -0.00088807 0)
(1.00396 0.00406387 0)
(1.0052 0.00888021 0)
(1.00848 0.0144056 0)
(1.01546 0.0208545 0)
(1.02819 0.0274984 0)
(1.04883 0.03329 0)
(1.07887 0.0394355 0)
(1.10686 0.04733 0)
(0.947333 0.0395767 0)
(0.220232 0.00198621 0)
(0.183209 -0.000371983 0)
(1.02627 -0.0302704 0)
(1.10772 -0.0351671 0)
(1.07841 -0.0299914 0)
(1.05302 -0.0243304 0)
(1.036 -0.0196707 0)
(1.02464 -0.0155739 0)
(1.01687 -0.0111773 0)
(1.01212 -0.00628742 0)
(1.0101 -0.000856984 0)
(1.01068 0.0046954 0)
(1.01399 0.00971811 0)
(1.02009 0.0142116 0)
(1.02937 0.0181776 0)
(1.04327 0.022405 0)
(1.06385 0.0275659 0)
(1.09506 0.0333291 0)
(1.09874 0.0353564 0)
(0.843175 0.0189921 0)
(0.182811 0.000382645 0)
(0.17047 4.13586e-05 0)
(0.978425 -0.0130311 0)
(1.102 -0.0208117 0)
(1.08189 -0.0219448 0)
(1.05521 -0.0210003 0)
(1.03795 -0.0189023 0)
(1.02647 -0.0152821 0)
(1.01914 -0.0109285 0)
(1.01469 -0.00600949 0)
(1.01273 -0.000662707 0)
(1.01319 0.00461616 0)
(1.0162 0.00966908 0)
(1.02191 0.0141803 0)
(1.03101 0.0180337 0)
(1.04515 0.0206842 0)
(1.06666 0.0221703 0)
(1.09661 0.0221162 0)
(1.07613 0.0186586 0)
(0.781826 0.00603134 0)
(0.169904 -2.87259e-05 0)
(0.16871 4.22749e-05 0)
(0.948357 -0.00535774 0)
(1.08842 -0.0132778 0)
(1.07983 -0.0175271 0)
(1.05719 -0.0187148 0)
(1.04191 -0.0180133 0)
(1.03113 -0.0154971 0)
(1.0238 -0.011613 0)
(1.01909 -0.00653471 0)
(1.01676 -0.000539995 0)
(1.01735 0.00557217 0)
(1.02065 0.0109487 0)
(1.02642 0.0152378 0)
(1.03519 0.0182064 0)
(1.04812 0.0197462 0)
(1.06629 0.0192165 0)
(1.08924 0.0164249 0)
(1.05245 0.0100389 0)
(0.755939 0.00187849 0)
(0.167885 -2.58469e-05 0)
(0.167954 2.24605e-05 0)
(0.9277 -0.00297951 0)
(1.06914 -0.0101142 0)
(1.07146 -0.0162001 0)
(1.05614 -0.018611 0)
(1.04414 -0.0180587 0)
(1.03567 -0.0158059 0)
(1.02951 -0.0118133 0)
(1.02518 -0.0066022 0)
(1.02289 -0.000241723 0)
(1.02335 0.0063066 0)
(1.0263 0.0118402 0)
(1.03125 0.0160746 0)
(1.0383 0.0188354 0)
(1.04807 0.0198707 0)
(1.06222 0.0190267 0)
(1.07464 0.0143827 0)
(1.02899 0.0067755 0)
(0.742134 0.00102249 0)
(0.166842 -4.10798e-06 0)
(0.16793 2.52774e-05 0)
(0.915201 -0.00119499 0)
(1.05173 -0.00568632 0)
(1.06099 -0.0107765 0)
(1.05332 -0.0139732 0)
(1.04545 -0.0146871 0)
(1.0388 -0.0132034 0)
(1.03332 -0.0101066 0)
(1.02923 -0.00555188 0)
(1.02697 0.000284819 0)
(1.02727 0.00637298 0)
(1.02992 0.0112279 0)
(1.03428 0.014623 0)
(1.04002 0.0164589 0)
(1.04724 0.0164347 0)
(1.05514 0.0140007 0)
(1.05938 0.00935108 0)
(1.01101 0.00365493 0)
(0.734932 0.000442842 0)
(0.166468 -1.00106e-06 0)
(0.168068 1.96357e-05 0)
(0.909223 -0.000451293 0)
(1.04115 -0.00268959 0)
(1.05305 -0.00573117 0)
(1.04984 -0.00805264 0)
(1.04561 -0.00906264 0)
(1.04129 -0.00860835 0)
(1.03723 -0.00669347 0)
(1.03386 -0.00338609 0)
(1.03184 0.00112432 0)
(1.03186 0.00571786 0)
(1.03377 0.00921935 0)
(1.03692 0.0112441 0)
(1.04073 0.0117902 0)
(1.04477 0.0108923 0)
(1.04856 0.00862769 0)
(1.04855 0.005338 0)
(1.00066 0.0020209 0)
(0.731214 0.000320189 0)
(0.166155 9.86568e-06 0)
(0.168326 2.30975e-05 0)
(0.906747 -2.30687e-05 0)
(1.03589 -0.000964832 0)
(1.04841 -0.00244985 0)
(1.04719 -0.00376176 0)
(1.0449 -0.00450615 0)
(1.04215 -0.00441937 0)
(1.03923 -0.00330896 0)
(1.03655 -0.00111757 0)
(1.03467 0.00200577 0)
(1.03438 0.00513208 0)
(1.03558 0.00728735 0)
(1.03759 0.00818823 0)
(1.03987 0.0079831 0)
(1.04203 0.00687178 0)
(1.04372 0.00512141 0)
(1.04204 0.00305574 0)
(0.995078 0.00120886 0)
(0.728999 0.000245571 0)
(0.165858 1.28282e-05 0)
(0.1687 2.9649e-05 0)
(0.906079 0.000229232 0)
(1.03371 -7.70684e-05 0)
(1.04627 -0.000662882 0)
(1.04584 -0.00121695 0)
(1.04454 -0.00152486 0)
(1.04279 -0.0013916 0)
(1.0407 -0.000635202 0)
(1.03857 0.000835517 0)
(1.03681 0.00292908 0)
(1.03617 0.00492988 0)
(1.03664 0.00605065 0)
(1.03765 0.00626293 0)
(1.0388 0.00573036 0)
(1.03981 0.00469002 0)
(1.0405 0.00339625 0)
(1.03821 0.00205961 0)
(0.991838 0.000922753 0)
(0.727395 0.000253513 0)
(0.165525 1.98812e-05 0)
(0.16917 3.27662e-05 0)
(0.906326 0.000374868 0)
(1.03311 0.000449007 0)
(1.04558 0.00037724 0)
(1.04546 0.000326935 0)
(1.04459 0.00040825 0)
(1.04334 0.00073481 0)
(1.04173 0.00142366 0)
(1.0399 0.00253295 0)
(1.03816 0.00396913 0)
(1.03712 0.00518682 0)
(1.0369 0.00571324 0)
(1.0372 0.0054143 0)
(1.0376 0.00470384 0)
(1.03797 0.00374182 0)
(1.03817 0.00270066 0)
(1.03564 0.00170779 0)
(0.989558 0.000867036 0)
(0.725922 0.000290685 0)
(0.165102 2.7065e-05 0)
(0.169752 4.07042e-05 0)
(0.907277 0.000548204 0)
(1.03347 0.000865883 0)
(1.04583 0.00112199 0)
(1.04581 0.00142662 0)
(1.04512 0.00183455 0)
(1.04408 0.00239949 0)
(1.04267 0.00317041 0)
(1.04093 0.00414591 0)
(1.03905 0.00519471 0)
(1.03759 0.00587215 0)
(1.03679 0.00587723 0)
(1.03645 0.00534776 0)
(1.03634 0.00449084 0)
(1.03631 0.00352341 0)
(1.03624 0.00256597 0)
(1.03358 0.00169107 0)
(0.987591 0.000938564 0)
(0.724352 0.00035206 0)
(0.164565 3.55062e-05 0)
(0.170497 5.14697e-05 0)
(0.908786 0.000737044 0)
(1.0345 0.00126801 0)
(1.04675 0.00178736 0)
(1.04673 0.00238533 0)
(1.04608 0.00309019 0)
(1.04508 0.00391602 0)
(1.04366 0.00485581 0)
(1.04182 0.00584383 0)
(1.03964 0.0066911 0)
(1.03766 0.0069977 0)
(1.03632 0.00662075 0)
(1.03547 0.00583188 0)
(1.03496 0.00482207 0)
(1.03464 0.00376649 0)
(1.03438 0.00276938 0)
(1.03162 0.00187769 0)
(0.985597 0.00109761 0)
(0.722528 0.00043591 0)
(0.163883 4.55776e-05 0)
(0.171447 6.535e-05 0)
(0.910891 0.000960822 0)
(1.03615 0.00171149 0)
(1.04827 0.00248596 0)
(1.04821 0.00337129 0)
(1.04749 0.00438102 0)
(1.04639 0.00550152 0)
(1.04482 0.00667923 0)
(1.04269 0.00778433 0)
(1.04005 0.00855668 0)
(1.03747 0.00860162 0)
(1.03554 0.00791808 0)
(1.03422 0.00683415 0)
(1.03335 0.00559459 0)
(1.03278 0.00436281 0)
(1.03237 0.00322786 0)
(1.02951 0.00222418 0)
(0.983355 0.001336 0)
(0.720316 0.000545464 0)
(0.16302 5.79216e-05 0)
(0.172662 8.37486e-05 0)
(0.913683 0.00124321 0)
(1.03845 0.00224594 0)
(1.05041 0.00330074 0)
(1.05025 0.00450327 0)
(1.0494 0.00585728 0)
(1.0481 0.00732628 0)
(1.04622 0.00881366 0)
(1.04364 0.0101227 0)
(1.04036 0.0109085 0)
(1.03703 0.0107459 0)
(1.03444 0.00974872 0)
(1.03262 0.00832432 0)
(1.03139 0.00677763 0)
(1.03059 0.00528064 0)
(1.03002 0.00391969 0)
(1.02704 0.00272307 0)
(0.980683 0.00165746 0)
(0.717575 0.000685206 0)
(0.161931 7.31409e-05 0)
(0.174225 0.000107988 0)
(0.917317 0.00160623 0)
(1.0415 0.00291821 0)
(1.05325 0.00430796 0)
(1.05296 0.00588798 0)
(1.0519 0.00765492 0)
(1.05029 0.00955008 0)
(1.04795 0.0114313 0)
(1.04473 0.013027 0)
(1.0406 0.013889 0)
(1.03635 0.0135303 0)
(1.03299 0.0121713 0)
(1.0306 0.0103363 0)
(1.02897 0.00839114 0)
(1.0279 0.0065337 0)
(1.02717 0.00485696 0)
(1.02406 0.00338696 0)
(0.9774 0.00207366 0)
(0.714147 0.000861396 0)
(0.16056 9.19757e-05 0)
(0.176247 0.000140135 0)
(0.92201 0.002079 0)
(1.04545 0.00378554 0)
(1.05694 0.00559476 0)
(1.05646 0.00764158 0)
(1.05511 0.00991934 0)
(1.05306 0.0123453 0)
(1.0501 0.0147233 0)
(1.04603 0.0166911 0)
(1.04078 0.0176743 0)
(1.03538 0.0170981 0)
(1.03108 0.015299 0)
(1.02802 0.0129498 0)
(1.02593 0.0104943 0)
(1.02455 0.0081676 0)
(1.02363 0.00607539 0)
(1.02036 0.0042433 0)
(0.97331 0.00260342 0)
(0.709841 0.0010825 0)
(0.158839 0.00011531 0)
(0.178881 0.000183713 0)
(0.928061 0.00270505 0)
(1.05051 0.00492939 0)
(1.06167 0.00727452 0)
(1.06093 0.00990392 0)
(1.05918 0.0128212 0)
(1.05654 0.015915 0)
(1.05274 0.018917 0)
(1.04755 0.0213497 0)
(1.0409 0.0224834 0)
(1.03405 0.0216347 0)
(1.02861 0.0192828 0)
(1.02474 0.016284 0)
(1.02209 0.0131815 0)
(1.02036 0.0102575 0)
(1.0192 0.0076338 0)
(1.01574 0.00533475 0)
(0.968183 0.00327279 0)
(0.704427 0.0013594 0)
(0.156681 0.000144341 0)
(0.18235 0.000245342 0)
(0.935891 0.00355715 0)
(1.05701 0.00647089 0)
(1.06775 0.00948977 0)
(1.06665 0.0128357 0)
(1.06434 0.0165598 0)
(1.06088 0.0205049 0)
(1.05597 0.0242917 0)
(1.04932 0.0272907 0)
(1.04087 0.0285855 0)
(1.03224 0.0273714 0)
(1.02541 0.0243147 0)
(1.02056 0.0204968 0)
(1.01724 0.0165825 0)
(1.01507 0.0129112 0)
(1.01365 0.00962076 0)
(1.00994 0.00672827 0)
(0.961732 0.00412249 0)
(0.697606 0.00170902 0)
(0.153979 0.000181143 0)
(0.186988 0.000335932 0)
(0.946132 0.00475314 0)
(1.06547 0.00856564 0)
(1.07569 0.0123828 0)
(1.07404 0.0166051 0)
(1.07091 0.0213776 0)
(1.06631 0.0264309 0)
(1.05989 0.0312039 0)
(1.05135 0.0348724 0)
(1.04063 0.0363084 0)
(1.0298 0.034589 0)
(1.02129 0.0306315 0)
(1.01524 0.0257897 0)
(1.01111 0.020869 0)
(1.00841 0.0162782 0)
(1.00667 0.0121689 0)
(1.00266 0.00853457 0)
(0.953594 0.00522434 0)
(0.688977 0.00216076 0)
(0.150592 0.000229643 0)
(0.193303 0.000469739 0)
(0.959731 0.00645714 0)
(1.07677 0.0113945 0)
(1.08629 0.0161393 0)
(1.08378 0.0215068 0)
(1.07943 0.0277091 0)
(1.07322 0.0342017 0)
(1.06475 0.0401703 0)
(1.0537 0.0445709 0)
(1.04012 0.046058 0)
(1.0266 0.0436274 0)
(1.01605 0.0385263 0)
(1.00856 0.0324207 0)
(1.00342 0.0262675 0)
(1.00005 0.0205616 0)
(0.997882 0.0154708 0)
(0.993503 0.0109373 0)
(0.943304 0.00671562 0)
(0.678007 0.00276891 0)
(0.146331 0.000296206 0)
(0.202118 0.000670919 0)
(0.977979 0.00896799 0)
(1.09195 0.0153445 0)
(1.10046 0.0213149 0)
(1.09665 0.0283368 0)
(1.09057 0.0364655 0)
(1.08212 0.0446974 0)
(1.07084 0.0519586 0)
(1.05651 0.0570133 0)
(1.03934 0.0583192 0)
(1.02256 0.0548737 0)
(1.00955 0.0483393 0)
(1.00029 0.0407014 0)
(0.993877 0.0330574 0)
(0.989608 0.0260036 0)
(0.986831 0.0197469 0)
(0.98194 0.0141604 0)
(0.930351 0.00879348 0)
(0.664109 0.00361362 0)
(0.140968 0.00038665 0)
(0.214808 0.00101098 0)
(1.00243 0.0130597 0)
(1.11192 0.0212842 0)
(1.11903 0.0290672 0)
(1.11335 0.0384406 0)
(1.10482 0.0489245 0)
(1.0932 0.0590037 0)
(1.07815 0.0674383 0)
(1.05966 0.0728489 0)
(1.03814 0.0735576 0)
(1.01751 0.068679 0)
(1.00161 0.06038 0)
(0.990199 0.0509342 0)
(0.982183 0.0415278 0)
(0.976695 0.0328411 0)
(0.973011 0.0251587 0)
(0.967391 0.0183123 0)
(0.914236 0.0115862 0)
(0.646837 0.00476957 0)
(0.134262 0.000503044 0)
(0.233663 0.00169128 0)
(1.03585 0.0201935 0)
(1.13861 0.0306757 0)
(1.14324 0.0412674 0)
(1.13435 0.053637 0)
(1.12189 0.0665906 0)
(1.10575 0.0783006 0)
(1.08585 0.08748 0)
(1.06239 0.0926658 0)
(1.0359 0.0921503 0)
(1.01099 0.0853261 0)
(0.991855 0.0749259 0)
(0.977967 0.0634454 0)
(0.967991 0.0520678 0)
(0.960922 0.041482 0)
(0.955967 0.0320577 0)
(0.949261 0.0235946 0)
(0.894145 0.015242 0)
(0.625604 0.00632664 0)
(0.125915 0.000660837 0)
(0.261976 0.00327973 0)
(1.08412 0.0335702 0)
(1.17477 0.0474654 0)
(1.17427 0.0619965 0)
(1.15961 0.0774477 0)
(1.14103 0.0921623 0)
(1.11873 0.104506 0)
(1.09286 0.113291 0)
(1.06371 0.117149 0)
(1.03189 0.114474 0)
(1.00249 0.105105 0)
(0.979933 0.0923317 0)
(0.963333 0.0787279 0)
(0.951072 0.0653753 0)
(0.942015 0.0528817 0)
(0.935294 0.0416352 0)
(0.926849 0.031426 0)
(0.868487 0.0209173 0)
(0.598817 0.00857435 0)
(0.116011 0.000872069 0)
(0.303129 0.0109623 -2.82566e-21)
(1.14763 0.0611901 -2.07892e-21)
(1.22 0.0794283 5.6302e-22)
(1.20975 0.097059 0)
(1.18697 0.113592 6.45893e-37)
(1.16078 0.128046 2.30515e-23)
(1.13125 0.13926 -2.36446e-22)
(1.09859 0.14618 0)
(1.06315 0.147607 9.25166e-36)
(1.02548 0.142062 -7.07839e-22)
(0.991152 0.129834 0)
(0.964687 0.114711 -1.02693e-21)
(0.944786 0.0992043 -3.15092e-21)
(0.929516 0.0842402 -1.52918e-21)
(0.917562 0.0703923 -4.83658e-22)
(0.907887 0.0580268 -2.94054e-22)
(0.896308 0.0470403 0)
(0.834848 0.0348946 2.14407e-22)
(0.56373 0.0188577 2.56232e-22)
(0.105966 0.00370589 4.59721e-21)
(0.324855 0.029255 -5.19139e-21)
(1.19965 0.108514 1.05968e-22)
(1.26123 0.130238 -2.80115e-22)
(1.2419 0.146315 0)
(1.21145 0.160802 4.51449e-22)
(1.17788 0.173233 2.58731e-22)
(1.1414 0.182301 -1.39359e-22)
(1.10207 0.187038 -1.14878e-21)
(1.06011 0.18614 0)
(1.0159 0.178092 2.97491e-21)
(0.975537 0.16358 3.31522e-21)
(0.943909 0.146838 1.07008e-21)
(0.91942 0.13036 4.26069e-21)
(0.89985 0.114902 6.32113e-21)
(0.883741 0.10094 0)
(0.869902 0.0888165 9.49028e-21)
(0.85369 0.0790576 1.4002e-20)
(0.792226 0.0654278 1.57984e-20)
(0.539456 0.0440597 -1.85253e-20)
(0.104749 0.00941526 -3.39843e-22)
(0.314828 0.0476533 0)
(1.23013 0.169926 -1.5441e-21)
(1.29205 0.19342 0)
(1.26674 0.205466 2.41544e-21)
(1.22995 0.216012 0)
(1.19018 0.224626 1.27078e-21)
(1.14764 0.230273 1.1263e-22)
(1.1024 0.231718 -1.60606e-21)
(1.05462 0.227704 -3.08668e-22)
(1.00455 0.216785 1.4202e-21)
(0.958818 0.200099 7.71565e-21)
(0.922844 0.182205 -4.93072e-23)
(0.894796 0.165465 -3.19797e-21)
(0.872156 0.150492 -6.23512e-21)
(0.85337 0.137605 7.60241e-21)
(0.837281 0.127018 -1.36908e-20)
(0.820135 0.118616 -1.88744e-21)
(0.765394 0.105996 0)
(0.535482 0.0752869 9.63316e-23)
(0.111124 0.0164653 0)
(0.301068 0.0627698 -3.93411e-20)
(1.24322 0.234599 1.58689e-20)
(1.31067 0.26081 8.29251e-21)
(1.28221 0.269115 -1.58338e-21)
(1.24136 0.275331 2.42212e-21)
(1.19728 0.279561 -3.11319e-21)
(1.15007 0.281122 2.00156e-23)
(1.09999 0.278755 0)
(1.04731 0.271243 -5.36584e-21)
(0.992369 0.257163 0)
(0.942432 0.238132 -3.89178e-21)
(0.903303 0.218973 -5.55292e-21)
(0.87296 0.201864 -3.56866e-21)
(0.848777 0.187131 -4.6272e-21)
(0.829074 0.174839 0)
(0.812579 0.165017 0)
(0.796013 0.157408 -1.26075e-20)
(0.746264 0.14431 2.53673e-21)
(0.52932 0.103402 -1.49926e-21)
(0.111898 0.0226759 -1.77346e-21)
(0.289136 0.0761682 2.88535e-20)
(1.24468 0.298427 0)
(1.31948 0.328471 -2.30833e-20)
(1.2892 0.333485 -5.94088e-21)
(1.24583 0.335341 -4.57539e-21)
(1.19869 0.335439 0)
(1.14824 0.332869 -7.28534e-22)
(1.09463 0.326633 1.2679e-21)
(1.03818 0.31548 2.25605e-21)
(0.97924 0.29807 7.08042e-21)
(0.925769 0.276455 0)
(0.884181 0.25571 -1.20367e-20)
(0.852329 0.237773 -7.74547e-21)
(0.827303 0.22274 -4.67936e-21)
(0.807239 0.210443 3.08428e-20)
(0.790779 0.200758 3.79524e-21)
(0.774829 0.193133 1.82102e-20)
(0.728015 0.17887 -8.8802e-20)
(0.519517 0.128164 5.34556e-20)
(0.110675 0.0281289 -6.5366e-20)
(0.27973 0.0882409 3.02949e-20)
(1.23903 0.359671 -5.49278e-21)
(1.32102 0.394408 4.03958e-21)
(1.28988 0.396556 1.09778e-20)
(1.24486 0.394385 6.79082e-21)
(1.19565 0.390487 3.15218e-22)
(1.14275 0.384063 6.98701e-22)
(1.08639 0.37413 7.45229e-22)
(1.02688 0.359445 -4.88422e-21)
(0.964683 0.338676 0)
(0.908433 0.314288 -5.13507e-21)
(0.865013 0.291629 -3.02742e-22)
(0.832123 0.272468 -8.67768e-21)
(0.80665 0.256653 0)
(0.786556 0.243828 -6.73003e-21)
(0.77035 0.233702 -1.64113e-20)
(0.754972 0.225556 4.56197e-20)
(0.710107 0.209716 -4.58983e-20)
(0.508279 0.150369 6.59026e-20)
(0.108461 0.0329066 -6.95206e-20)
(0.272698 0.0995426 -1.32346e-22)
(1.22932 0.417567 6.6718e-21)
(1.31714 0.457415 1.92707e-20)
(1.28559 0.457118 -6.69776e-21)
(1.23951 0.451388 3.88382e-21)
(1.18895 0.443869 0)
(1.13434 0.433909 1.93942e-21)
(1.07595 0.420533 -3.71578e-22)
(1.0141 0.40253 -2.13218e-21)
(0.949278 0.378499 0)
(0.890651 0.351242 -4.94684e-21)
(0.845668 0.326416 -7.07018e-21)
(0.811987 0.305636 9.4997e-21)
(0.786245 0.288615 -6.10977e-21)
(0.766224 0.274875 -2.97229e-20)
(0.750293 0.263976 1.83329e-20)
(0.7354 0.255065 5.85115e-21)
(0.692075 0.237561 0)
(0.496141 0.170192 -6.41342e-20)
(0.105601 0.0370421 -2.38817e-21)
(0.267389 0.110319 4.91771e-21)
(1.21728 0.471897 -7.63938e-21)
(1.30922 0.516889 -1.05028e-20)
(1.27762 0.514528 -2.0662e-20)
(1.23098 0.505743 1.87847e-20)
(1.17962 0.495076 -1.02747e-20)
(1.12391 0.481932 -4.19615e-21)
(1.06396 0.465408 -3.43467e-22)
(1.00018 0.444348 2.30373e-21)
(0.933078 0.417245 -1.6989e-20)
(0.872333 0.387098 -6.15219e-21)
(0.825923 0.359861 0)
(0.791538 0.337155 1.04253e-20)
(0.765608 0.318599 1.29593e-20)
(0.745715 0.303609 1.60009e-20)
(0.730111 0.291689 -2.00971e-20)
(0.715704 0.281793 -6.08104e-21)
(0.67374 0.262485 7.25703e-21)
(0.483118 0.18772 0)
(0.10225 0.0405428 -5.24941e-21)
(0.263302 0.120648 -5.67088e-20)
(1.20417 0.522698 3.49837e-20)
(1.29844 0.572626 1.15118e-20)
(1.26698 0.568493 -1.57464e-20)
(1.22011 0.557116 1.11941e-20)
(1.16828 0.543695 -7.5308e-22)
(1.11181 0.527772 4.2627e-21)
(1.05078 0.508452 -2.04446e-22)
(0.985448 0.484619 -3.73142e-21)
(0.916337 0.454719 1.59484e-23)
(0.853557 0.421752 -1.82031e-20)
(0.805716 0.391961 1.82056e-20)
(0.770591 0.367058 -1.17731e-20)
(0.744458 0.34664 1.47244e-20)
(0.724716 0.330125 0)
(0.709478 0.31695 -1.09992e-20)
(0.695577 0.305911 -2.65094e-22)
(0.654855 0.284669 -3.19581e-20)
(0.46923 0.20308 -4.76536e-21)
(0.0984086 0.0433827 0)
(0.260091 0.130585 0)
(1.19061 0.57018 3.76554e-20)
(1.28572 0.624667 2.67711e-20)
(1.25445 0.619027 1.77464e-20)
(1.20762 0.605407 1.08888e-20)
(1.15557 0.589615 0)
(1.09865 0.571213 3.77871e-21)
(1.03685 0.549483 -2.79878e-22)
(0.970292 0.523247 7.70747e-21)
(0.899337 0.490859 -2.01012e-21)
(0.834476 0.455256 -1.33905e-20)
(0.785027 0.422845 9.07521e-21)
(0.749013 0.395485 -4.34013e-22)
(0.722582 0.372891 1.55912e-20)
(0.702981 0.354558 1.02523e-20)
(0.688125 0.339864 -2.4061e-20)
(0.674791 0.327493 2.93021e-20)
(0.635243 0.30408 8.84034e-21)
(0.454317 0.216165 3.69263e-20)
(0.0940193 0.0453488 -9.99277e-20)
(0.257496 0.140228 -1.4409e-20)
(1.17707 0.614358 2.16832e-20)
(1.2718 0.673078 -1.659e-20)
(1.24071 0.666177 -2.05403e-20)
(1.19406 0.650618 0)
(1.14202 0.632731 8.89343e-21)
(1.08486 0.61221 -1.12651e-20)
(1.02254 0.588374 -7.97539e-22)
(0.955048 0.560169 0)
(0.88237 0.525663 -3.15065e-20)
(0.815247 0.487707 3.66644e-20)
(0.763915 0.452664 0)
(0.726711 0.422617 1.4149e-20)
(0.699814 0.397525 -4.57324e-22)
(0.680271 0.377066 -3.27752e-20)
(0.665796 0.360563 1.28708e-20)
(0.653044 0.346626 0)
(0.614654 0.320946 4.81994e-20)
(0.438262 0.227017 0)
(0.0890785 0.0466519 -4.80505e-20)
(0.255319 0.149505 1.59765e-20)
(1.16361 0.655608 2.47501e-20)
(1.25716 0.718154 -1.73884e-20)
(1.22622 0.710067 0)
(1.17981 0.692793 1.49333e-20)
(1.12795 0.67307 0)
(1.07081 0.650694 1.45055e-20)
(1.00818 0.625111 1.89519e-21)
(0.939933 0.595322 5.34089e-22)
(0.865714 0.559227 -1.55053e-20)
(0.796129 0.519237 3.51337e-21)
(0.742448 0.481665 0)
(0.703658 0.448742 -3.03727e-20)
(0.676018 0.42081 4.80251e-22)
(0.656356 0.397849 0)
(0.642242 0.379255 5.17278e-22)
(0.630077 0.363454 4.39717e-20)
(0.592763 0.335225 -4.27282e-20)
(0.420803 0.235508 1.27315e-20)
(0.0834383 0.0471097 0)
(0.253266 0.158318 0)
(1.15046 0.694308 2.75773e-20)
(1.24207 0.760048 2.03154e-20)
(1.21128 0.75085 -3.97967e-22)
(1.16522 0.732037 9.24201e-21)
(1.11365 0.71067 2.12465e-20)
(1.05671 0.686702 -4.83042e-21)
(0.994051 0.659682 1.11613e-21)
(0.925219 0.628693 3.80869e-21)
(0.849573 0.591569 -2.38374e-20)
(0.777343 0.550022 -7.37951e-22)
(0.720812 0.510118 -1.22842e-20)
(0.679886 0.474212 5.02992e-20)
(0.651054 0.443139 -5.94502e-22)
(0.631114 0.417201 -2.64815e-20)
(0.617242 0.396025 -4.8391e-20)
(0.605557 0.378112 0)
(0.569262 0.346971 0)
(0.401703 0.241549 1.42297e-20)
(0.0770449 0.046609 -8.40651e-21)
(0.251515 0.166828 1.97246e-20)
(1.13757 0.730366 -6.00464e-20)
(1.22684 0.798943 -2.17294e-20)
(1.19618 0.788689 0)
(1.1505 0.768475 -2.89231e-22)
(1.09935 0.745645 2.53448e-20)
(1.04277 0.720275 -1.57723e-20)
(0.980317 0.69208 -8.86993e-21)
(0.91116 0.660308 2.99755e-21)
(0.834117 0.622686 -1.78916e-20)
(0.759098 0.580265 -3.12287e-20)
(0.699189 0.538357 3.29194e-20)
(0.655482 0.499476 0)
(0.624869 0.464901 -1.20538e-20)
(0.604279 0.435667 -2.93884e-20)
(0.59039 0.411132 -3.55668e-20)
(0.57917 0.390665 -4.33931e-20)
(0.543989 0.356167 1.31097e-20)
(0.380581 0.244802 -7.70975e-21)
(0.0697717 0.0450361 1.53056e-22)
(0.249687 0.174871 0)
(1.12501 0.764158 0)
(1.21163 0.835073 4.44294e-22)
(1.18108 0.823757 0)
(1.13584 0.802257 -3.46806e-20)
(1.08518 0.778089 -2.22758e-20)
(1.02915 0.751492 0)
(0.967067 0.72233 -1.8932e-21)
(0.897912 0.690132 1.71232e-21)
(0.819557 0.652624 -4.09314e-20)
(0.741531 0.610112 0)
(0.677812 0.566702 -2.13235e-20)
(0.630558 0.524992 -6.99338e-22)
(0.597332 0.486654 -5.72928e-22)
(0.575263 0.453273 3.18489e-20)
(0.561529 0.424906 -3.56899e-23)
(0.551285 0.400978 -9.55295e-20)
(0.517054 0.362581 2.89969e-20)
(0.357156 0.244793 8.69211e-21)
(0.0614869 0.0422416 0)
(0.247851 0.182427 -7.22468e-20)
(1.11259 0.796331 -3.65928e-20)
(1.19647 0.868597 -5.4106e-20)
(1.16609 0.856221 7.59464e-20)
(1.12136 0.833509 -6.48946e-20)
(1.07128 0.808117 0)
(1.0159 0.780421 -1.33592e-20)
(0.95443 0.750461 3.75755e-21)
(0.885516 0.718125 7.55002e-22)
(0.806128 0.681418 3.32073e-21)
(0.724967 0.639498 3.91886e-20)
(0.65706 0.595431 -7.27997e-21)
(0.605358 0.551152 -3.1823e-20)
(0.568144 0.508884 -1.47609e-20)
(0.543952 0.470179 1.79662e-20)
(0.530103 0.438169 -1.45606e-23)
(0.520489 0.410028 2.66774e-20)
(0.486345 0.366583 -6.36188e-20)
(0.330116 0.241384 7.67927e-20)
(0.0521143 0.0381867 1.12241e-20)
(0.245907 0.189559 2.64536e-20)
(1.10038 0.826369 -1.99113e-20)
(1.18151 0.899641 1.0708e-21)
(1.15132 0.886258 4.27229e-20)
(1.10712 0.862404 1.50519e-20)
(1.05771 0.835852 4.46022e-20)
(1.00312 0.807147 -5.73225e-21)
(0.942459 0.776486 1.78282e-20)
(0.87409 0.74427 4.00807e-21)
(0.793998 0.708907 -2.12961e-20)
(0.709876 0.668464 0)
(0.637256 0.624685 -3.34484e-20)
(0.580009 0.57829 4.68152e-20)
(0.537469 0.531884 0)
(0.510502 0.488324 -3.8795e-20)
(0.495333 0.449758 2.43725e-20)
(0.485988 0.416744 -2.92271e-20)
(0.451977 0.367114 -3.56286e-20)
(0.299117 0.233716 -6.34293e-20)
(0.0415664 0.0325951 -5.02707e-20)
(0.244211 0.19636 -2.89811e-20)
(1.08835 0.854374 2.13184e-20)
(1.16682 0.928394 5.01318e-20)
(1.13685 0.914021 5.86249e-20)
(1.0932 0.889088 -3.16555e-20)
(1.0445 0.86143 3.06874e-20)
(0.990826 0.831765 -1.80728e-20)
(0.931174 0.800486 2.16938e-20)
(0.863682 0.768589 4.17257e-21)
(0.783339 0.735011 1.91448e-20)
(0.696391 0.697137 8.35552e-20)
(0.618355 0.65434 0)
(0.554755 0.606496 0)
(0.506676 0.556861 -1.72034e-20)
(0.47513 0.508984 0)
(0.458026 0.462961 5.36077e-20)
(0.447466 0.421447 6.48506e-20)
(0.413285 0.3631 0)
(0.263223 0.220536 0)
(0.0299072 0.0253376 5.57903e-20)
(0.242352 0.202611 3.18705e-20)
(1.07655 0.880544 2.53086e-20)
(1.15247 0.95501 3.60006e-20)
(1.12272 0.939683 -5.21089e-20)
(1.07964 0.91371 -3.51902e-20)
(1.0317 0.884987 -4.0501e-20)
(0.979026 0.854387 2.69021e-20)
(0.92059 0.822532 3.57594e-22)
(0.854304 0.791035 -9.67234e-22)
(0.774308 0.759703 -1.4661e-21)
(0.684562 0.725359 4.24369e-20)
(0.600623 0.684578 0)
(0.531028 0.63578 4.82918e-20)
(0.477677 0.585189 3.65996e-20)
(0.438805 0.530146 9.46548e-20)
(0.415993 0.476859 2.91617e-20)
(0.402183 0.425904 -3.66376e-20)
(0.368763 0.353645 -2.18219e-20)
(0.223915 0.200615 0)
(0.0190831 0.0170238 6.18326e-20)
(0.240842 0.208775 -6.98811e-20)
(1.06503 0.904982 0)
(1.1385 0.979635 4.00033e-20)
(1.10898 0.963389 -4.25933e-20)
(1.06647 0.936415 3.96181e-20)
(1.01929 0.906653 5.8824e-20)
(0.967728 0.87512 -6.21233e-20)
(0.910677 0.842672 7.55345e-22)
(0.84599 0.811626 0)
(0.766843 0.78293 -1.54108e-20)
(0.674466 0.753186 -8.77732e-20)
(0.584676 0.715291 4.62075e-21)
(0.509214 0.66764 6.6656e-20)
(0.448645 0.6146 0)
(0.400049 0.558105 6.42448e-20)
(0.366713 0.495215 0)
(0.346851 0.427239 0)
(0.313795 0.330141 -2.48678e-20)
(0.188755 0.164373 0)
(0.0259568 0.0112662 1.69195e-20)
(0.239138 0.214413 -7.6086e-20)
(1.05375 0.927926 0)
(1.12485 1.0025 6.47249e-20)
(1.09557 0.985386 0)
(1.05364 0.957476 -2.14188e-20)
(1.00721 0.926713 0)
(0.956815 0.894262 -4.53762e-21)
(0.901308 0.861256 -3.86536e-21)
(0.838562 0.830687 -9.22223e-22)
(0.760719 0.805029 -1.32391e-20)
(0.666402 0.780687 2.18289e-21)
(0.570998 0.746134 3.91624e-20)
(0.487358 0.701036 6.50029e-20)
(0.416856 0.649994 9.3682e-21)
(0.357836 0.58787 5.04912e-20)
(0.310203 0.521151 0)
(0.272155 0.437595 8.10533e-20)
(0.231078 0.289843 -4.93037e-20)
(0.0988263 0.137475 5.82534e-20)
(-0.0197775 0.39128 -6.97585e-20)
(0.237603 0.219901 6.19213e-20)
(1.0426 0.949527 9.53728e-20)
(1.11141 1.02389 0)
(1.08237 1.00605 7.65166e-22)
(1.04093 0.977365 5.79382e-20)
(0.99515 0.94571 -1.1328e-19)
(0.945889 0.912352 -2.72812e-20)
(0.892047 0.878865 0)
(0.83164 0.848849 -1.16743e-20)
(0.755944 0.826801 -2.02091e-23)
(0.660814 0.809578 0)
(0.558984 0.78024 0)
(0.465665 0.73991 5.76527e-20)
(0.383784 0.686205 -2.9484e-20)
(0.30933 0.632018 -5.03184e-20)
(0.247856 0.563495 0)
(0.166356 0.45979 4.15467e-20)
(0.0662849 0.530654 -5.07512e-20)
(0.0578175 1.71025 -2.84983e-20)
(0.0916972 2.71744 -3.42091e-20)
(0.235953 0.224863 -4.5173e-20)
(1.03158 0.969955 -1.19961e-19)
(1.09819 1.04374 3.71098e-20)
(1.06947 1.02536 3.58174e-20)
(1.02842 0.995988 0)
(0.983183 0.963503 -8.09501e-20)
(0.934978 0.929206 -4.53918e-20)
(0.882819 0.895118 2.52232e-21)
(0.824989 0.865612 -1.7352e-21)
(0.752551 0.847557 6.26006e-21)
(0.657984 0.839058 3.89124e-20)
(0.548564 0.81885 4.20184e-20)
(0.445611 0.78093 5.74419e-20)
(0.350501 0.732302 -6.77441e-20)
(0.266364 0.683268 -7.41606e-20)
(0.188911 0.62766 0)
(0.101224 0.881261 0)
(0.148543 2.41745 2.17305e-20)
(0.158374 3.14171 0)
(0.155345 3.35491 5.51468e-20)
(0.237598 0.229235 0)
(1.02039 0.989282 0)
(1.08516 1.06194 0)
(1.05666 1.0432 9.90681e-21)
(1.0159 1.01324 5.17504e-20)
(0.97114 0.980043 -6.15507e-20)
(0.924083 0.944698 -3.25102e-20)
(0.873532 0.909532 2.848e-21)
(0.81862 0.880195 -2.3485e-20)
(0.751114 0.86673 -2.80067e-21)
(0.657206 0.869891 6.95013e-20)
(0.539131 0.85895 -5.11183e-21)
(0.425246 0.827732 6.65069e-21)
(0.323907 0.775374 9.68372e-21)
(0.239199 0.741332 4.65865e-22)
(0.161862 0.981715 3.74547e-22)
(0.199479 2.53377 -1.02806e-19)
(0.226315 3.25464 -3.93426e-20)
(0.206003 3.41374 1.9264e-20)
(0.185626 3.44141 -2.01143e-20)
(0.152325 0.169295 2.64531e-20)
(1.00293 1.01001 0)
(1.07276 1.07879 -7.21215e-20)
(1.04416 1.05994 -9.22412e-20)
(1.00377 1.0296 1.06502e-19)
(0.959467 0.99571 6.5122e-20)
(0.912962 0.95898 3.82933e-20)
(0.864137 0.922269 -4.68577e-20)
(0.812399 0.893712 2.40328e-20)
(0.751712 0.884746 0)
(0.660007 0.899834 2.92147e-20)
(0.534063 0.901895 -3.28044e-20)
(0.407785 0.875683 0)
(0.302325 0.823892 8.90514e-21)
(0.228248 0.925298 2.11399e-20)
(0.205483 2.16221 -2.47224e-20)
(0.296346 3.28496 2.8038e-20)
(0.275327 3.4353 1.35072e-20)
(0.232147 3.46452 1.58078e-20)
(0.203101 3.47767 1.97791e-20)
(0.273909 0.26717 -5.09689e-20)
(0.978533 1.01288 0)
(1.05341 1.10007 7.38421e-20)
(1.02538 1.08387 9.51088e-20)
(0.984783 1.05275 -1.0964e-19)
(0.940555 1.01746 -6.88877e-20)
(0.895252 0.979345 -5.78739e-20)
(0.849613 0.940894 -3.59177e-21)
(0.805324 0.910567 -3.30559e-20)
(0.755253 0.908056 -1.52246e-20)
(0.667204 0.948199 8.08183e-22)
(0.526915 0.98396 2.82556e-20)
(0.380755 0.96445 6.11063e-21)
(0.289763 1.05904 -8.06652e-21)
(0.309649 2.09707 -1.73617e-20)
(0.380004 3.27417 1.23448e-20)
(0.373864 3.47282 -1.05172e-20)
(0.327941 3.50465 -6.02103e-21)
(0.282111 3.53907 1.87417e-21)
(0.216658 3.53052 -1.206e-22)
(0.263086 0.265275 0)
(0.9731 1.03151 1.94215e-20)
(1.0416 1.1177 -1.45116e-20)
(1.01271 1.1008 -1.04851e-20)
(0.971976 1.06914 -7.13019e-20)
(0.928026 1.03295 6.69341e-20)
(0.883256 0.993201 3.87356e-20)
(0.839782 0.952758 -3.75515e-21)
(0.801177 0.92162 4.07642e-20)
(0.763576 0.922829 -4.51152e-21)
(0.686023 0.978767 -3.4398e-20)
(0.527665 1.04279 4.3589e-21)
(0.372996 1.04088 -5.72496e-21)
(0.333586 1.40585 -6.66193e-21)
(0.422585 2.91416 3.95133e-21)
(0.473063 3.45344 2.56412e-22)
(0.417157 3.54559 -9.4948e-21)
(0.376563 3.57796 -1.29341e-20)
(0.303592 3.61041 1.9037e-20)
(0.234277 3.59973 9.03335e-21)
(0.247225 0.261076 4.80729e-20)
(0.966363 1.05299 1.29081e-19)
(1.02911 1.13695 -4.09236e-20)
(0.999153 1.11891 -3.95622e-20)
(0.958187 1.08645 0)
(0.914363 1.04897 9.63602e-20)
(0.870261 1.00729 5.84406e-20)
(0.829368 0.964359 -3.93287e-21)
(0.797283 0.930715 4.49956e-21)
(0.773953 0.936941 3.75115e-20)
(0.712576 1.02081 -6.72189e-21)
(0.546474 1.10712 -3.13315e-20)
(0.386011 1.15287 -4.28156e-20)
(0.415453 1.9024 3.83023e-20)
(0.536009 3.29295 1.61004e-20)
(0.546556 3.53857 0)
(0.479499 3.5999 0)
(0.421772 3.66673 1.84681e-20)
(0.337947 3.73146 0)
(0.249195 3.69812 3.93982e-20)
(0.235375 0.260883 -6.93553e-20)
(0.957317 1.07551 -1.06342e-19)
(1.01495 1.15722 0)
(0.983983 1.13771 6.80164e-22)
(0.942774 1.10419 -6.79559e-20)
(0.898918 1.06509 1.4169e-19)
(0.855489 1.02103 3.89723e-20)
(0.816947 0.974392 -4.45235e-21)
(0.792175 0.936277 4.45873e-20)
(0.786662 0.943939 -3.11374e-21)
(0.741396 1.04324 0)
(0.569612 1.18031 0)
(0.42323 1.31393 -3.78267e-20)
(0.515965 2.44876 1.01125e-20)
(0.651859 3.44559 -1.71692e-21)
(0.61649 3.589 0)
(0.567076 3.67184 4.53629e-20)