/*--------------------------------*- C++ -*----------------------------------*\
  =========                 |
  \\      /  F ield         | OpenFOAM: The Open Source CFD Toolbox
   \\    /   O peration     | Website:  https://openfoam.org
    \\  /    A nd           | Version:  6
     \\/     M anipulation  |
\*---------------------------------------------------------------------------*/
FoamFile
{
    version     2.0;
    format      ascii;
    class       surfaceScalarField;
    location    "51";
    object      phi;
}
// * * * * * * * * * * * * * * * * * * * * * * * * * * * * * * * * * * * * * //

dimensions      [0 3 -1 0 0 0 0];

internalField   nonuniform List<scalar> 
1300
(
3.75095
5.62643
-3.31981
3.75095
-7.76658
5.62643
-4.22434
4.22434
-0.646727
0.646727
1.87646
1.87449
-2.56578
2.56578
-1.99507
1.99507
-2.54078
2.54078
-5.24805
5.24805
-5.06928
5.06928
4.7091
-4.7091
-6.31748
6.31748
-1.02329
1.02329
-3.61411
3.61411
3.17275
-3.17275
-1.97835
1.97835
-0.0987674
0.0987674
-0.554099
4.30505
3.19685
3.19685
-1.95864
1.95864
-4.87462
4.87462
6.22232
-6.22232
5.25817
-5.25817
-1.93836
-2.45707
1.8142
-11.5486
-5.95237
-5.95237
-8.44102
8.44102
-2.81459
2.81184
2.94633
-2.94633
-1.73405
1.73405
-4.23125
0.00691656
-4.23125
4.19425
0.0300899
4.19425
-0.720835
0.0741077
-0.720835
3.88709
-3.88709
0.537468
0.109259
0.537468
3.06708
-3.06708
-1.87687
3.75333
1.87408
-1.87208
6.17713
-1.87888
3.75337
-6.06429
6.06429
-2.7839
0.218116
-2.7839
2.36222
0.203565
2.36222
-6.85994
6.85994
-2.04152
0.0464429
-2.04152
1.99495
0.000123653
1.99495
2.88419
-2.88419
-2.63893
0.0981579
-2.63893
2.4058
0.134971
2.4058
0.353443
5.27299
-5.97987
8.79171
-5.27299
0.0249407
5.21038
0.0376676
5.21038
-5.10508
0.0357963
-5.10508
5.01326
0.0560289
5.01326
4.80187
-0.0927678
4.80187
-4.82502
0.115919
-4.82502
-3.37684
-4.06708
-6.47429
0.156805
-6.47429
-1.06825
0.0449534
-1.06825
0.944229
0.0790639
0.944229
-3.69677
3.69677
-3.93366
0.319547
-3.93366
3.12772
0.0450277
3.12772
1.86812
1.88283
5.61908
-5.61908
2.44633
-1.94795
-0.0304025
-1.94795
-2.04732
-3.21085
2.04732
-0.0689698
-0.314915
0.216148
-0.314915
3.15705
0.0398025
3.15705
2.24503
0.160774
-2.24503
0.286386
3.28499
-3.28499
1.29656
0.662085
1.29656
-5.55973
5.55973
4.96133
0.0519227
-4.96133
0.0867112
6.1567
0.0656169
6.1567
-6.20777
-0.0145487
-6.20777
2.50255
-4.95961
-2.61048
6.13443
0.183049
-6.13443
0.18206
2.91744
0.0288886
2.91744
-2.92025
2.92025
-2.98363
0.0372984
-2.98363
-2.15797
0.423921
-2.15797
1.41776
0.31629
1.41776
-4.1392
-0.0920535
-4.1392
-4.06624
0.132585
4.06624
0.128006
1.09583
-1.09583
-0.789915
0.0690801
-0.789915
-3.98743
-0.151768
3.98743
-0.10034
-3.8356
-0.0514942
-3.8356
-3.0215
0.0378721
3.0215
0.0455732
3.11199
0.0450644
-3.11199
0.0449115
-1.87098
3.75382
-1.87997
3.75405
-5.68306
-0.381226
-5.68306
6.35019
-0.285903
6.35019
3.17385
0.440265
-3.17385
0.389945
2.21083
0.151391
2.21083
-6.8359
-0.0240455
-6.8359
6.86274
-0.00279864
6.86274
2.10919
0.101643
-2.10919
0.0676685
1.981
0.0139528
1.981
2.91027
-0.0260739
2.91027
-2.87916
-0.00502936
-2.87916
2.79467
-2.79467
2.72225
0.0724183
-2.72225
0.0833137
-11.1239
11.1094
-0.0363567
-11.0876
5.17402
5.17402
4.25765
0.544219
4.25765
-5.01718
0.19216
-5.01718
2.67004
-5.28052
3.07589
-6.45273
4.67968
-16.2282
4.31461
-8.38169
6.71568
-6.71568
6.60101
0.114672
-6.60101
0.126723
-1.15001
0.0817614
-1.15001
-3.10278
-0.593988
-3.10279
4.33886
-0.642085
4.33886
-3.02804
3.02804
-3.0767
0.0486546
3.0767
0.0510246
1.96278
0.0182143
-1.96278
0.0148338
0.414203
0.123266
-0.414203
0.0992876
3.50025
-0.215263
3.50025
-3.08597
-0.199019
-3.08597
-1.2301
0.0800948
1.2301
0.066456
-5.80795
0.248221
-5.80795
-11.1816
0.0939839
-11.1439
-6.11379
-6.11379
2.32723
11.1189
-2.89526
0.016092
2.89526
0.0221876
2.97567
0.0523734
-2.97567
0.0554196
-2.86035
0.0656897
2.86035
0.0598927
-2.52724
0.369265
-2.52724
-1.02668
1.02668
-1.18008
0.153401
1.18008
0.237683
1.38715
-0.291312
1.38715
0.868904
0.0753256
-0.868904
0.0789885
-3.7938
-0.0417982
-3.7938
6.58428
-0.234083
6.58428
-2.95953
-0.126437
2.95953
-0.0492629
-0.0349951
11.1444
-5.13903
0.0339459
5.13903
-11.21
11.2439
-3.23475
0.707512
3.23475
1.0229
5.28493
0.274796
-5.28493
0.267756
6.80417
0.0585722
-6.80417
0.0884858
-2.59749
-0.505294
-2.59749
-5.08322
-0.599846
5.08322
-0.744359
-11.4823
-0.202202
11.6845
-11.4263
6.01015
0.146548
-6.01015
11.3905
-0.985454
-0.11038
0.985454
0.0412229
1.7241
-0.336956
1.7241
3.70903
-0.208779
-3.70903
-0.0847718
-6.7344
-0.1015
6.7344
-0.15012
-2.15276
-0.444736
2.15276
-0.428654
-4.26731
4.30711
1.90982
-2.3638
-2.59581
-5.57465
1.8551
1.89872
4.30143
-10.1891
-6.0391
-10.0071
7.21254
-6.94478
-9.34707
9.2543
7.8511
-7.9026
-5.77791
5.82894
6.48424
-6.43867
1.87929
1.87404
7.99498
-7.77686
-15.7126
15.3314
7.56974
-7.52329
15.8452
-15.8692
-17.8925
17.9511
-5.69763
5.79579
-6.73858
6.73355
-6.97166
6.9224
-2.82446
-3.62827
13.1596
-13.0028
8.58116
-8.61156
-8.64459
8.96413
3.38454
0.922569
3.4296
-1.88191
3.76121
-1.87145
3.78128
2.70906
-5.53352
2.57147
-5.16728
4.36208
4.21907
-4.29311
-1.28154
-5.92719
5.95608
-5.81117
5.87106
9.08036
-9.07344
-1.88496
3.759
-1.86909
3.76781
-3.42337
-2.35454
3.37834
0.923086
8.10025
5.05934
-8.28329
-1.72379
-7.9851
7.77632
-8.20042
8.0014
-0.435861
5.83724
-5.40138
4.43876
-1.65417
7.49141
5.55837
5.75053
5.86051
-5.58572
1.08427
-6.48565
-6.39894
-2.42274
2.49182
2.33781
-2.22855
6.07521
1.77589
5.97488
-5.76472
-2.13787
-5.80652
3.8202
2.00874
3.86886
4.08144
2.4028
4.11931
3.02993
-3.03633
0.00639365
-3.05902
6.08896
0.722673
-5.41357
-4.49048
4.99431
3.00067
5.19787
-5.5599
-2.21696
-5.16995
-9.59184
-6.12076
-10.1917
10.1091
5.22224
9.82323
-11.9854
11.8353
4.86114
2.7086
4.86126
-4.96625
-2.55704
-4.89858
11.6714
-2.62508
-9.04629
-10.3417
-7.55079
10.3445
5.50063
10.9922
6.95891
11.0807
4.43167
7.2397
-9.9323
2.38151
-3.86309
-1.83454
-3.77978
3.65499
2.1408
3.78996
-4.2175
-2.52108
-4.20141
-4.29294
-2.67873
4.31901
2.41454
-4.41046
-3.78995
4.5369
2.3855
4.05096
-10.0901
4.33073
-7.959
-9.22257
-3.78021
-9.09584
3.50218
2.61327
-6.11545
-2.03134
8.48015
-4.26108
7.19861
-5.20714
-3.40441
-5.19231
-6.90525
-1.73934
-6.77267
-8.96052
8.45523
-9.2524
8.61032
12.6104
-5.67705
-6.93331
-3.96687
-2.4718
3.92196
-0.492352
-3.7102
3.71659
0.0510112
3.83229
4.75486
4.2625
-3.88272
-1.92845
-3.8273
3.82329
2.04777
3.88898
6.79024
2.29012
6.82033
-6.53788
-2.53556
-6.62993
9.12627
-8.70234
2.83411
-2.75402
5.35303
2.64837
-5.13776
-2.84733
6.23818
-3.19329
-3.04489
-12.3532
10.8301
1.52309
-4.86174
-0.422981
-0.324214
-5.57939
-3.76768
5.46347
0.287058
11.1171
7.34944
-5.51538
5.7636
6.16913
6.22105
-0.177887
5.90859
-5.20108
5.30514
-2.64724
-2.6579
5.42056
-5.57233
-1.20937
-5.48736
4.27798
0.402547
1.63314
-1.41699
-1.87038
-0.552363
-1.79139
1.3488
0.989017
1.47206
0.912943
1.57888
-2.91227
0.575565
2.33671
-1.99933
-1.65299
-3.74241
-1.13311
4.87552
5.68264
2.09368
-5.59787
-0.208654
2.62887
-2.54981
-0.797321
-2.94509
2.18191
-2.97923
-3.50034
-1.88271
5.38305
-3.36907
-0.458234
3.31669
0.552161
-3.82759
-2.09961
3.79029
0.329027
-3.12793
6.19013
-3.0622
-5.05637
2.52891
3.56005
4.53764
-4.79045
2.4488
2.34166
-1.23041
4.27914
0.918735
4.43053
-6.97673
4.75976
5.7151
3.24903
-6.15537
0.985413
-5.99131
8.48755
-7.32688
-1.16067
4.04366
4.44389
7.06677
5.54359
-5.69886
12.7656
-1.11363
-6.21325
7.10494
-3.85591
4.82079
-8.6767
-10.3644
4.15113
-9.24595
11.055
-1.80901
-3.61077
-8.37465
12.8567
-1.2145
-11.6422
8.60873
-4.26729
-4.30476
8.57204
-6.89237
6.8618
-1.98161
-4.88019
-10.1568
-5.71246
10.2583
1.57704
-9.88915
12.2707
-2.64945
4.14466
0.716604
4.15861
3.31129
-5.43804
2.12675
3.58108
-5.56269
2.07666
-7.5147
-6.7562
12.1002
-5.34404
-10.5364
-9.55275
-0.983666
2.55264
9.71802
-9.51155
7.45324
2.05831
3.30035
0.588629
-3.37277
-0.407012
0.238034
4.51639
-4.75443
4.028
4.18877
3.23815
1.27825
3.84809
2.108
-3.87027
-0.331132
-4.16543
1.4867
-1.75089
-3.69024
5.17694
-4.06214
0.371896
-2.74476
-3.49553
6.24029
-4.5793
3.0368
3.15333
5.08457
-4.91388
1.41835
-2.39214
-2.52174
2.64379
-4.39468
1.99333
3.18361
4.37883
0.588878
5.89222
6.20802
-8.50549
0.54649
11.2674
-9.54357
2.47693
8.60375
-9.93017
0.377425
-8.71842
0.986439
-5.24752
-5.12901
5.157
-6.89633
-3.5197
6.21963
0.600703
-6.34763
-0.425037
-6.08417
-2.87636
-6.5289
-3.07179
-6.18062
-8.77065
-1.68062
-7.09002
6.77461
-6.69338
-3.49831
7.43774
1.17258
-7.48727
7.37689
-7.55299
7.21603
0.0945274
3.62206
4.35703
1.88523
-2.39166
4.27689
-5.06874
7.35886
-8.71629
3.64755
4.19023
-6.72579
-4.52606
5.07099
4.05528
5.38728
8.96082
-10.4366
1.47573
-10.712
12.0518
-1.33983
-16.5082
5.79623
-7.5474
2.49003
0.344077
2.5718
0.580902
2.49453
-3.07543
-2.17312
-2.10666
-2.41931
-3.49531
5.91462
1.09556
-3.44164
2.34607
-3.57012
4.66569
-0.0280184
-3.41362
5.20992
-2.71539
5.554
-3.59814
1.95586
3.5228
5.83293
-2.31013
4.42204
-1.77367
1.9206
-4.23074
-1.5747
-2.95649
5.09729
-3.2838
3.6557
-0.342862
3.99856
-4.08149
0.888197
-0.843344
3.34543
3.63181
4.32968
-3.05144
2.94595
-4.71962
-1.28479
-4.13074
-0.947124
-0.202073
-3.8336
4.03568
6.04541
-6.24748
-5.29634
9.55095
-4.25461
7.72083
-5.45183
-2.269
-4.3051
-4.39724
3.93584
1.97275
9.69358
0.179929
-5.63176
-5.02115
-3.99825
3.1396
2.16554
-1.82554
3.34863
2.14975
-0.516609
0.455489
1.01657
1.80051
-1.34502
0.301134
1.49938
-1.11586
1.8195
0.809372
-1.89483
0.103433
-1.25907
3.44098
1.07764
-2.06666
0.721637
0.915595
-3.56283
5.01155
-2.69108
-2.32046
5.92714
1.13781
-3.82889
4.34955
-3.947
2.41735
-3.55046
-1.41154
-5.35854
-3.58265
-2.51101
4.85709
-3.40361
5.49728
1.35675
-5.28863
6.64538
-3.61765
1.73494
-3.07084
3.88021
-1.04803
-2.0228
2.91166
2.47139
-3.09931
0.15422
-0.187654
2.40182
-2.58948
-0.577412
-2.57674
-4.57524
4.90427
-2.10444
4.55324
2.17244
-1.91686
6.47009
1.80851
-3.72537
-3.24786
-3.70609
-1.38371
3.15393
-0.593872
-4.30471
-5.47406
4.20307
0.227461
-6.92388
7.81389
-0.890011
-3.92321
-0.836553
4.88022
-6.03954
0.476859
-3.96288
3.85101
4.76974
4.9972
-11.42
-0.222181
-6.19779
1.1118
-7.3096
5.55569
-3.55658
7.70771
-10.3816
6.88332
-9.20904
6.54704
-0.762554
6.2377
-4.11095
2.80859
-8.52105
-6.94401
5.48637
-2.77777
6.20297
-3.14483
9.3478
-5.79428
5.27122
4.07658
-1.01121
-4.1811
-5.26694
4.25573
0.00427711
4.16289
4.9853
-2.8773
4.65416
2.2616
-4.65374
-2.13308
-6.48858
1.83485
-3.33526
-1.9208
3.75564
3.16378
3.75241
1.23391
-3.3454
7.2092
-8.19286
-1.86516
-3.26385
5.25416
-0.998425
3.39777
-6.66162
-1.84974
4.79869
-0.739433
-4.05925
0.878367
-4.39807
1.68482
-6.08289
5.21151
-5.63655
2.25034
-9.79774
-5.23693
-5.19571
-2.28109
-5.27189
-7.60991
5.32882
-1.81369
5.56321
-8.56804
7.82861
-3.48379
8.81261
-5.47334
-1.05556
5.902
1.31404
10.1266
0.147198
-4.67326
-1.94568
3.80269
-1.85701
1.19392
-3.68641
0.116287
2.46795
3.45919
-6.74593
0.0201411
-4.65312
-3.91702
7.9723
5.63393
11.6793
1.24279
9.16513
-1.19282
10.4079
4.19445
4.43214
-3.0465
4.52223
0.989178
4.63672
-0.874289
2.83015
1.69751
1.74246
0.807347
2.2934
1.33841
3.1816
0.106163
-2.0005
4.64427
-8.64252
-0.987487
-8.0983
1.156
5.42487
-4.26887
2.95172
-0.786188
1.09471
-0.0795232
-1.40018
1.47971
-2.73742
-1.91679
-0.417416
-1.59931
2.32095
1.84167
-1.90353
-0.833892
0.322736
-3.90539
3.22773
-3.07351
-0.602118
6.04326
-2.85905
0.269577
-1.12411
-2.30716
-2.85953
2.75609
6.17479
0.295308
3.11258
5.19958
3.09997
0.222672
3.87506
-5.68407
-3.63965
-5.90625
-0.35056
4.52966
1.73228
7.98574
5.80886
4.81043
-1.85119
-10.0441
6.55863
-2.0364
5.2188
-1.15955
-4.92334
5.05599
2.30287
-5.65669
0.0201455
-4.90319
-6.9396
-0.485695
8.3143
-9.64095
8.58539
5.70903
1.38099
-4.44571
-0.750002
4.29231
0.139829
10.5477
-0.90431
-7.12271
8.02702
-4.52056
3.53308
0.705787
2.64284
2.18549
1.39931
-5.72341
-9.99228
-2.0194
-1.54343
-4.33986
0.535659
-2.37733
6.09092
-2.55785
3.82192
5.46918
6.56389
-2.05783
-4.18965
6.31244
-2.49052
4.07337
)
;

boundaryField
{
    wall-4
    {
        type            calculated;
        value           uniform 0;
    }
    velocity-inlet-5
    {
        type            calculated;
        value           uniform -3.75095;
    }
    velocity-inlet-6
    {
        type            calculated;
        value           uniform -5.62643;
    }
    pressure-outlet-7
    {
        type            calculated;
        value           nonuniform List<scalar> 8(3.31981 7.76658 4.39543 9.73437 7.44392 5.11303 5.74592 8.99429);
    }
    wall-8
    {
        type            calculated;
        value           uniform 0;
    }
    frontAndBackPlanes
    {
        type            empty;
        value           nonuniform 0();
    }
}


// ************************************************************************* //
