/*--------------------------------*- C++ -*----------------------------------*\
  =========                 |
  \\      /  F ield         | OpenFOAM: The Open Source CFD Toolbox
   \\    /   O peration     | Website:  https://openfoam.org
    \\  /    A nd           | Version:  6
     \\/     M anipulation  |
\*---------------------------------------------------------------------------*/
FoamFile
{
    version     2.0;
    format      ascii;
    class       volVectorField;
    location    "51";
    object      U;
}
// * * * * * * * * * * * * * * * * * * * * * * * * * * * * * * * * * * * * * //

dimensions      [0 1 -1 0 0 0 0];

internalField   nonuniform List<vector> 
918
(
(0.985048 -0.000711822 0)
(0.0053502 2.96624 0)
(-0.000422473 0.877501 0)
(0.979574 0.00195993 0)
(-0.0128551 2.06635 3.11876e-20)
(-0.0070929 2.94856 -2.61081e-18)
(0.80569 1.1092 4.40019e-19)
(0.220985 0.092241 -1.46921e-20)
(0.999921 -0.000242734 0)
(0.0851761 0.709518 0)
(0.0126411 0.477585 0)
(0.734353 -0.017888 0)
(0.0101812 2.93163 0)
(0.00385872 2.79435 0)
(-0.00108624 3.18552 8.29768e-19)
(-0.0127324 1.91892 1.16315e-20)
(0.298298 0.0229774 9.80471e-19)
(0.229464 1.12049 3.54067e-19)
(0.964422 0.00673315 0)
(-0.00916038 0.436652 0)
(0.039758 0.128312 -6.90592e-19)
(1.00183 -0.00456361 0)
(0.999851 -0.00893056 0)
(0.97516 -0.00605442 0)
(0.592979 -0.0341656 0)
(0.021932 2.64461 0)
(-0.012271 2.91188 9.57709e-19)
(-0.00316398 0.935441 0)
(-0.0234003 1.16647 0)
(-0.0012648 0.906663 0)
(-0.020106 2.60325 0)
(-0.00369769 2.11694 -2.49099e-20)
(-0.00873308 1.89542 0)
(-0.0221414 2.9876 -9.42135e-23)
(-0.0164961 3.0055 2.02873e-18)
(0.00230201 3.0006 0)
(0.871624 -0.00969069 0)
(0.37743 0.919333 1.61779e-19)
(0.804934 1.1264 -5.54855e-19)
(0.938835 0.989086 5.57623e-19)
(0.669192 1.2085 -1.01663e-19)
(0.681978 1.17541 5.81428e-19)
(0.241911 0.170549 1.43334e-20)
(0.227522 0.075304 0)
(1.14698 0.524488 0)
(0.21334 0.160366 6.53723e-20)
(0.193459 0.0927626 -6.78388e-20)
(0.920478 -0.0070269 0)
(1.00026 7.25576e-05 0)
(0.999909 0.000319045 0)
(1.0037 -0.00728426 0)
(1.00089 -0.000944541 0)
(1.00011 -1.02213e-05 0)
(0.0937586 1.83951 -7.49462e-19)
(0.0346366 0.888183 0)
(0.130246 0.785139 0)
(0.0196967 0.842562 0)
(0.0432329 0.640557 0)
(0.00456025 2.01909 0)
(-0.00680847 0.753097 0)
(0.0102627 0.505016 0)
(-0.00366141 0.745451 0)
(0.00642658 0.478515 0)
(0.842163 -0.0157386 0)
(0.838833 0.0340703 0)
(0.766246 -0.00799532 0)
(0.808603 0.04507 0)
(0.702322 -0.0170617 0)
(0.0139398 3.0002 9.69445e-19)
(0.0111601 3.00593 0)
(0.00626591 3.00388 0)
(0.0118829 2.9971 1.10145e-23)
(0.00825131 2.95876 -1.44083e-18)
(0.012212 2.98298 0)
(0.00905543 2.90486 0)
(0.0212053 2.93165 2.24311e-24)
(0.00410316 2.82378 0)
(0.0259023 2.91873 0)
(-0.00110809 2.74495 0)
(0.30859 3.58388 0)
(-0.122424 3.66702 0)
(0.151503 3.27647 -7.72262e-19)
(0.00500063 3.01097 0)
(-0.0254445 1.99219 0)
(-0.00557667 2.17614 -1.14719e-20)
(-0.00802522 1.93103 1.07586e-20)
(0.385717 0.142782 -3.39733e-19)
(0.314471 -0.000525234 -3.29587e-19)
(0.348939 0.1587 -1.01985e-18)
(0.275112 0.0321613 -6.6707e-19)
(0.261146 1.00749 0)
(0.326059 1.24638 -3.67132e-19)
(0.403015 1.15181 6.04771e-19)
(0.987812 0.00812596 0)
(0.943348 0.00579702 0)
(1.00028 0.000672619 0)
(1.00254 0.00906895 0)
(1.00312 0.00897353 -2.60543e-18)
(0.992134 0.00944732 1.96882e-18)
(-0.0140221 0.759053 0)
(-0.00803466 0.447488 0)
(-0.0469818 1.01823 0)
(-0.0403961 0.810069 0)
(-0.016301 0.430151 0)
(0.0388697 0.144533 2.1359e-19)
(0.0990731 0.114528 0)
(0.993617 -0.00769765 0)
(0.954024 -0.00647749 0)
(0.749919 0.0490348 0)
(0.683608 0.0553384 0)
(0.660147 -0.0210668 0)
(0.975248 -0.00381053 0)
(0.610041 0.0594137 0)
(0.450042 -0.0319525 1.46716e-18)
(-0.0409646 2.86109 7.57586e-19)
(0.033533 2.91439 0)
(0.0423897 2.89219 0)
(0.00377033 2.70165 0)
(-0.00891197 2.98634 9.17456e-19)
(-0.0142894 2.8947 0)
(-0.0110285 2.99188 -2.82301e-18)
(-0.0115974 2.92965 9.60562e-19)
(-0.0334628 1.33821 0)
(-0.00662206 1.36617 0)
(-0.00701229 2.14013 5.75842e-22)
(-0.00667689 2.09949 0)
(-0.0165863 1.90547 0)
(0.938622 -0.00530154 0)
(0.856807 -0.0110715 0)
(0.863573 0.00528986 0)
(0.949472 -0.00622311 0)
(0.883472 -0.00805714 0)
(0.501591 1.11988 -2.05671e-19)
(0.548869 1.19002 0)
(0.338967 0.853478 3.16308e-20)
(0.282784 0.718169 0)
(0.903256 1.02255 -1.57115e-19)
(1.02364 0.831836 3.12656e-19)
(0.383476 1.3136 0)
(0.529238 1.26612 0)
(0.580959 1.19328 0)
(0.0994453 0.17867 -2.92459e-19)
(0.261428 0.171182 0)
(0.229535 0.0767427 1.88081e-19)
(0.987437 0.886622 0)
(1.06288 0.736056 0)
(1.09216 0.670976 -2.47386e-19)
(1.12956 0.583744 0)
(1.18487 0.388799 4.53704e-20)
(0.957371 -0.0071529 0)
(0.962654 -0.00814214 0)
(0.900786 -0.00735282 0)
(0.98391 -0.00813452 0)
(0.974388 -0.00805272 0)
(0.9365 -0.00655426 0)
(1.0002 0.00250165 0)
(1.00077 0.00124567 0)
(1 0.000765926 0)
(0.043028 2.08537 4.18129e-19)
(0.14452 1.78301 0)
(0.0174111 2.20276 6.3167e-19)
(0.0528059 1.88801 -5.29948e-19)
(0.166453 1.10143 -2.90528e-19)
(0.048796 0.966151 0)
(0.12098 0.961471 0)
(0.00835835 0.806716 0)
(0.0225243 0.580363 0)
(-0.00330618 2.25172 -6.40343e-22)
(0.0175737 2.02529 0)
(-0.00460527 2.2515 -2.30867e-20)
(0.0037187 2.03004 3.32813e-20)
(-0.000298926 0.773134 0)
(-0.00216937 0.7629 0)
(0.00988556 0.532375 0)
(-0.0034046 0.748565 0)
(0.00543154 0.471577 0)
(0.938371 0.0134535 0)
(0.854519 -0.0118922 0)
(0.927855 0.00459184 0)
(0.845252 -0.0128438 0)
(0.812197 -0.00216181 0)
(0.898449 0.0229957 0)
(0.872638 0.0283729 0)
(0.788318 -0.00526524 0)
(0.0101749 3.06781 -9.03459e-21)
(0.0151494 3.05883 0)
(0.0124088 2.97026 0)
(0.00767081 2.87667 0)
(0.899163 3.98075 0)
(1.19412 3.37579 9.43686e-19)
(0.0822371 3.0928 0)
(-0.016567 2.91911 0)
(-0.0104636 1.39066 0)
(-0.0288859 1.69482 0)
(-0.0186723 1.52695 0)
(-0.0303892 2.56143 -1.1671e-20)
(-0.0140093 2.25116 0)
(-0.0196732 2.39844 0)
(0.000745165 1.95628 1.04833e-21)
(-0.00436389 2.24835 -1.3569e-20)
(-0.00507199 2.21298 -1.10788e-20)
(-0.00453701 1.94212 0)
(0.417209 0.119094 5.19874e-19)
(0.343895 -0.00782243 -5.09922e-19)
(0.230679 1.58943 0)
(0.287126 0.754495 -3.20444e-19)
(0.177674 1.6858 -1.0596e-18)
(0.242691 1.21187 1.05969e-18)
(0.901807 0.00603824 0)
(0.967154 0.010553 0)
(0.975004 0.00979353 0)
(0.923098 0.00592274 0)
(-0.0137587 0.756438 0)
(-0.00428127 0.757046 0)
(-0.00205871 0.448425 0)
(0.177708 0.157 6.00972e-19)
(0.139746 0.143372 -7.10885e-19)
(0.142813 0.100913 0)
(1.10062 0.088343 2.374e-20)
(1.08441 0.041071 0)
(1.01485 0.0428963 0)
(0.91043 -0.00229468 0)
(0.454133 0.0959815 0)
(0.517041 0.0705421 -2.35163e-18)
(0.382915 -0.0103115 8.85503e-19)
(0.0109179 2.97742 8.01777e-19)
(-0.0324516 2.86179 4.6254e-20)
(0.0085492 3.05326 -1.90658e-20)
(0.0156495 3.04338 7.15405e-19)
(-0.0118207 2.99997 3.15931e-20)
(-0.0123533 2.95225 -1.27527e-22)
(-0.0150315 3.01332 -5.8999e-19)
(0.0142584 3.02672 4.14651e-19)
(0.00758717 3.03471 -6.73754e-19)
(0.9342 0.0019218 0)
(0.93915 -0.00126766 0)
(0.847475 -0.0111372 0)
(0.956488 0.0116067 0)
(0.942661 0.0130536 0)
(0.881817 0.00566257 0)
(0.916114 0.018293 0)
(0.925565 0.0150438 0)
(0.8382 0.00159125 0)
(0.674782 1.4193 2.3355e-20)
(0.692895 1.53006 0)
(0.121454 0.304068 6.73919e-20)
(0.205001 0.645066 5.34062e-19)
(0.238121 0.692588 -3.12977e-19)
(0.219721 0.512552 6.19914e-19)
(0.332943 0.817668 1.5492e-18)
(0.129199 0.230734 3.73109e-19)
(0.322443 0.173295 7.0898e-19)
(0.289094 0.180929 1.8364e-19)
(0.246886 0.0561884 3.51597e-19)
(1.17882 0.438845 8.75595e-20)
(1.20683 0.242917 8.65979e-20)
(0.00722032 2.24424 2.47146e-19)
(0.0388688 1.95063 0)
(0.970327 0.0325373 0)
(0.94503 0.0188697 0)
(0.868619 -0.0155315 0)
(0.0126555 3.07437 0)
(0.0168675 2.94416 1.26429e-18)
(0.0139173 2.95679 0)
(0.00584914 2.84972 -1.25445e-18)
(0.0092656 3.09122 3.09028e-19)
(0.0113944 3.08308 0)
(0.71352 1.82727 -1.74212e-19)
(1.23863 2.63339 5.88615e-19)
(0.698299 2.00561 -1.40998e-18)
(0.0222261 2.9762 -6.98846e-19)
(0.0407385 2.99839 0)
(-0.0387254 2.87885 0)
(-0.00547789 2.23077 -1.28744e-20)
(-0.00401419 2.25227 2.29563e-20)
(0.00104313 1.99127 -7.47793e-21)
(0.26746 1.39252 1.02233e-18)
(0.27688 0.546454 -7.01864e-19)
(0.0704367 2.00336 7.51198e-19)
(0.123338 1.87066 -9.05878e-19)
(0.207729 1.53277 1.03539e-19)
(0.00806961 3.11947 -1.72175e-18)
(0.0142017 3.12078 1.90245e-18)
(-0.00517292 2.98003 8.61041e-19)
(-0.00110045 2.97491 -8.26576e-19)
(-0.018051 2.87748 -8.77003e-19)
(0.0125026 3.09897 -2.29642e-18)
(0.00433289 3.10644 2.33988e-18)
(0.257433 0.688294 0)
(0.209919 0.652147 -1.1321e-18)
(0.0707281 0.21285 4.97831e-19)
(0.342415 0.935285 1.1061e-18)
(0.194153 0.27343 -1.70311e-18)
(1.18869 0.173279 4.79446e-20)
(1.20355 0.300689 0)
(1.18428 0.119599 8.06938e-21)
(-0.00170205 2.261 -1.37942e-21)
(0.00229569 2.24815 0)
(0.0290914 1.98519 0)
(0.311617 1.3125 -3.66337e-19)
(0.35197 1.16192 -7.93308e-19)
(0.225725 0.382763 1.41562e-18)
(1.00643 -0.00970065 0)
(1.00774 -0.0077974 4.78914e-19)
(-0.0290176 1.31983 0)
(-0.0352325 1.32402 0)
(1.00245 0.00328926 1.36222e-21)
(1.00321 0.00783469 9.8314e-19)
(-0.0216553 2.54675 1.47829e-20)
(-0.0255971 2.58954 0)
(0.0410224 3.17261 4.996e-19)
(0.377036 3.54733 0)
(1.14824 0.685571 -5.25714e-20)
(1.01189 0.0107316 -2.80793e-21)
(1.02081 -0.00908236 0)
(1.00159 0.000257165 1.56356e-22)
(0.107578 1.36443 0)
(0.140459 2.59274 0)
(0.0237902 1.31525 0)
(-0.00313158 2.63623 1.48372e-20)
(-0.0221219 2.58532 3.64616e-21)
(0.997772 0.0273924 2.69789e-21)
(1.06254 0.00552651 0)
(1.09885 0.0278308 0)
(-0.027935 1.73847 0)
(-0.0172236 2.58804 0)
(-0.00526924 1.31518 0)
(0.29702 1.48329 -1.79651e-19)
(1.01149 -0.00907935 0)
(1.0097 -0.0130005 0)
(1.00229 0.000951037 6.13891e-19)
(1.00548 -0.00492976 -7.22939e-19)
(1.00113 -0.000872233 0)
(-0.0131354 1.4578 0)
(-0.00668487 1.37224 0)
(-0.00996794 1.41658 0)
(-0.00979258 1.30317 0)
(-0.0203129 1.29176 0)
(-0.0101086 1.27434 0)
(1.03548 -0.00445737 0)
(1.01913 0.0150109 -8.95252e-22)
(0.804117 1.30094 2.79823e-19)
(1.00237 0.000372412 -6.12434e-19)
(1.00339 0.0044766 7.31577e-19)
(1.00128 0.00210304 0)
(1.01123 0.00966182 6.10295e-19)
(1.00692 0.00751137 -7.43016e-19)
(1.00722 0.0111837 0)
(-0.0226856 2.61686 0)
(-0.0258688 2.59707 -2.41406e-20)
(-0.0229474 2.61068 1.69621e-20)
(1.23762 0.269869 5.18556e-19)
(1.16171 0.0878742 0)
(0.0441698 3.09115 -9.86746e-19)
(0.0509491 2.87267 -6.98751e-20)
(0.103644 3.20126 1.32241e-18)
(0.122556 3.21332 -2.85341e-19)
(0.144008 3.25908 0)
(0.0222693 3.13771 2.71889e-19)
(0.061044 3.16177 9.82985e-19)
(0.0615611 3.17857 -5.08352e-19)
(0.0267362 3.12927 0)
(0.608605 0.286784 0)
(0.549506 0.319087 0)
(1.12892 0.716891 1.19841e-19)
(1.09605 0.851673 -1.04987e-19)
(1.18792 0.604283 0)
(1.21711 0.538027 0)
(1.01579 0.0120392 -1.13368e-18)
(1.01474 0.0127993 1.4253e-18)
(1.02562 -0.00878423 0)
(1.02395 -0.0103501 0)
(1.00667 0.00301051 0)
(1.01091 0.00419371 0)
(1.00432 0.00218804 0)
(1.00949 0.00641845 0)
(1.00692 0.0050531 0)
(1.00449 0.00530671 0)
(0.0966893 1.36184 0)
(0.0793533 1.33737 0)
(0.132105 1.40953 0)
(0.133941 1.40787 0)
(0.150834 2.61691 0)
(0.192183 2.68308 -4.13958e-19)
(0.10607 2.67676 0)
(0.0810633 2.67745 1.69269e-19)
(0.0272837 2.68051 -1.68533e-19)
(0.0151318 1.32202 0)
(0.0162834 1.25378 0)
(0.0165731 1.33641 0)
(0.0332023 1.28204 0)
(-0.0011611 1.9923 1.44105e-20)
(-0.0217841 2.6133 -1.96705e-20)
(-0.00976531 2.67839 -4.24752e-21)
(-0.0204253 2.69079 0)
(-0.0233362 2.62006 -3.04363e-21)
(-0.0220162 2.61547 1.90123e-20)
(0.00677833 1.99059 -9.36464e-21)
(-0.0092208 2.40651 2.63909e-20)
(-0.0146404 2.42869 4.81557e-21)
(1.00952 0.0388774 1.15049e-18)
(1.00522 0.0175894 -1.43278e-18)
(1.00258 0.0447428 -1.17732e-18)
(0.975101 0.0317057 1.48295e-18)
(1.06415 0.00880048 0)
(1.04951 -0.00660947 0)
(1.09179 0.0363857 0)
(1.07507 0.0143755 0)
(1.07376 0.00041285 0)
(1.14014 0.0774436 0)
(1.1141 0.0445897 0)
(1.11665 0.0368626 0)
(-0.0259184 2.43927 2.19544e-21)
(-0.015471 2.01856 0)
(-0.0167366 2.22239 0)
(-0.0193431 2.60869 -1.22835e-20)
(-0.0165993 2.61901 3.43959e-22)
(0.00343831 1.57467 -4.38233e-20)
(-0.00398218 1.50026 4.4741e-20)
(-0.015984 1.39086 0)
(-0.019872 1.39662 0)
(-0.024772 1.39031 0)
(-0.0032092 1.31698 0)
(0.00867158 1.24583 0)
(0.377135 1.50554 3.00969e-19)
(0.425371 1.51005 1.56428e-19)
(0.604678 2.46609 -2.45635e-19)
(0.386609 2.56993 6.94395e-19)
(0.351966 2.06497 6.90862e-20)
(1.02063 -0.0080562 0)
(1.01575 -0.00939359 0)
(1.01482 -0.0132426 0)
(1.00767 -0.00061918 0)
(1.00491 -0.000652804 0)
(1.00798 -0.00452838 0)
(1.00953 -0.00350448 0)
(1.01461 -0.00436393 0)
(1.01989 0.0160355 1.11225e-18)
(1.01744 0.0147399 -1.40665e-18)
(1.02029 0.0182612 -1.12168e-18)
(1.01797 0.0167693 1.40066e-18)
(0.759116 1.34781 0)
(0.698479 1.3828 2.49503e-19)
(0.867168 1.22828 1.01022e-19)
(0.90369 1.18694 -1.34074e-19)
(1.16695 2.61902 2.58583e-19)
(0.767887 0.12341 5.75756e-19)
(1.16933 0.104795 0)
(1.2103 0.197519 -4.20303e-19)
(1.19107 0.153417 -1.74498e-20)
(1.01451 0.162534 0)
(0.0808482 3.02115 3.46703e-19)
(0.0847479 2.90441 -1.16892e-18)
(0.0301875 2.36389 7.41094e-19)
(0.134969 -0.16234 -3.51632e-19)
(0.345059 3.45035 -2.52317e-19)
(0.195194 3.34281 0)
(0.225918 3.40091 3.28672e-19)
(0.2258 3.07956 -1.21672e-18)
(0.258843 3.19903 0)
(0.0066198 3.12254 5.11611e-20)
(0.0177612 3.13114 -5.87243e-19)
(0.0163207 3.12702 8.64324e-19)
(0.0330073 3.13987 0)
(0.030821 3.14971 0)
(1.26188 2.5846 0)
(0.533102 0.802978 -5.1925e-19)
(1.01618 1.02282 -9.62441e-21)
(0.980636 1.07487 0)
(0.850299 0.960949 -1.05504e-19)
(1.07294 0.900081 2.66349e-20)
(0.382135 0.344015 -8.63332e-19)
(0.677917 0.310518 -2.30096e-20)
(0.60731 0.221313 3.96988e-19)
(0.574124 0.34591 2.93602e-20)
(0.477534 0.313523 -1.17947e-18)
(0.638713 0.316117 0)
(0.696704 0.413642 6.65903e-19)
(0.698733 0.419205 0)
(0.611391 0.337863 0)
(0.55046 0.2652 0)
(0.786176 0.647138 3.9157e-19)
(1.24689 0.301058 -4.23799e-19)
(1.2377 0.433254 0)
(1.24061 0.389413 0)
(0.716473 0.183566 5.98183e-19)
(0.836173 0.547185 -3.73112e-19)
(0.756004 0.509343 6.63572e-19)
(0.956428 0.43623 -6.80197e-19)
(1.01861 0.0145789 7.5394e-19)
(1.01721 0.0136062 -7.62185e-19)
(1.01607 0.0141981 0)
(1.03683 -0.00466978 0)
(1.03029 -0.00777317 -7.14514e-19)
(1.02846 -0.0106669 7.07121e-19)
(1.02476 0.0106988 0)
(1.02281 0.0147495 0)
(1.01265 0.00458355 0)
(1.01455 0.00910144 0)
(1.01623 0.00409905 0)
(1.01547 0.00284686 0)
(0.0647955 1.35579 0)
(0.0654424 1.31756 0)
(0.140735 1.40647 5.52426e-20)
(0.269218 1.47718 8.62497e-20)
(0.16431 1.44857 1.88284e-19)
(0.192499 1.45316 -3.06401e-19)
(0.148378 1.4143 0)
(0.134037 1.58503 -8.12448e-20)
(0.134937 1.57759 0)
(0.345898 2.02216 -1.00569e-19)
(0.332793 2.34267 6.19455e-19)
(0.192416 1.45627 7.08199e-20)
(0.266404 1.38335 2.66765e-20)
(0.198435 1.38176 -2.17546e-20)
(0.280662 1.32274 -7.98703e-20)
(0.254292 1.57961 0)
(0.2615 1.62812 9.04059e-20)
(0.0246454 2.27089 -1.64321e-20)
(0.0353782 2.67532 0)
(0.0648108 2.41526 9.88033e-20)
(0.0600271 2.43562 0)
(0.0675292 2.69469 -1.87905e-19)
(0.0413151 2.70897 0)
(0.0228981 1.43031 4.16756e-20)
(0.0334698 1.48912 0)
(0.0295012 1.39356 0)
(0.019494 1.39592 -4.84257e-20)
(-0.000961611 2.66339 -1.65799e-21)
(0.022636 2.69812 1.9259e-19)
(0.00646657 2.73318 1.09964e-21)
(-0.000759738 1.83832 -7.38715e-21)
(-0.00507618 1.69003 -7.54278e-21)
(0.0122625 1.30423 0)
(0.0157404 1.23037 0)
(0.0353675 1.58295 -1.21925e-20)
(0.03529 1.45946 -3.23066e-20)
(0.0310015 1.53058 3.60849e-20)
(0.0410859 1.61012 0)
(-0.0280293 2.27279 9.13963e-20)
(-0.0301602 2.55565 -3.86837e-20)
(-0.0173981 2.45336 4.89256e-21)
(-0.00573246 1.85577 8.95816e-21)
(-0.0263662 2.5079 5.14594e-21)
(-0.0227115 2.44824 -2.20677e-21)
(1.01814 0.0214319 -7.59688e-19)
(1.01418 0.0275936 7.64604e-19)
(1.013 0.0166379 0)
(1.01206 0.0697455 1.0471e-18)
(0.990655 0.0565844 -1.20845e-18)
(0.950724 0.0531674 1.3532e-18)
(1.01338 0.115233 -1.4232e-19)
(1.04368 -0.00483908 0)
(1.05181 -0.000678534 6.83879e-19)
(1.04003 -0.00826309 -6.83538e-19)
(1.0716 0.0425458 -4.05317e-20)
(1.06456 0.0280519 3.50101e-19)
(1.06444 0.0642019 0)
(1.05404 0.0533779 -1.26151e-19)
(1.03228 0.0439444 0)
(1.02535 0.0391871 0)
(1.02766 0.0134726 0)
(1.024 0.0159762 0)
(1.04061 0.0330788 2.59355e-19)
(1.03936 0.0283186 -5.74338e-19)
(1.0527 0.0377792 -2.74285e-19)
(1.04817 0.0377291 -3.02844e-19)
(1.07739 0.0686646 5.78787e-19)
(1.10092 0.0544612 0)
(1.10781 0.0928268 0)
(-0.0245367 2.28025 5.97056e-20)
(-0.0253244 2.02536 2.19418e-21)
(-0.0209191 2.03438 0)
(-0.027618 2.45119 -5.94531e-20)
(-0.0242797 2.40914 -4.29683e-21)
(-0.0315963 2.48027 7.15883e-21)
(-0.0206657 2.62819 -1.60073e-20)
(-0.0239554 2.57087 5.93435e-22)
(-0.0227205 2.52323 -5.65371e-21)
(-0.0158204 2.62222 1.30228e-20)
(-0.0202468 2.62394 -1.44984e-20)
(-0.00617139 1.49182 -1.5371e-22)
(0.000595578 1.62383 -3.98693e-20)
(0.364988 1.44244 -1.29843e-19)
(0.364401 1.37147 8.4164e-21)
(0.640533 1.43147 -2.41719e-19)
(0.515871 1.5026 -1.52294e-19)
(0.570404 1.46228 0)
(0.604683 2.43802 2.0897e-19)
(0.66807 2.43702 3.35574e-19)
(0.421753 2.52778 8.98378e-20)
(0.402581 2.54847 -6.29821e-19)
(0.501664 2.48809 5.6535e-19)
(0.561548 2.47981 0)
(0.489156 2.53688 -5.42456e-19)
(0.262667 2.59655 1.13146e-18)
(0.367425 2.57415 -5.16688e-20)
(0.285894 2.65684 -1.56737e-18)
(0.967834 2.39637 7.0215e-19)
(0.848724 2.39741 0)
(1.01146 0.00133744 2.48781e-20)
(1.01533 -0.00525915 -2.03106e-20)
(1.01769 -0.00404278 -3.71307e-19)
(1.01554 -0.00112232 3.69936e-19)
(1.01308 0.00177387 0)
(0.628326 1.29942 0)
(0.672347 1.1886 0)
(0.787283 1.10971 0)
(0.660047 1.14332 0)
(1.19757 2.63491 5.08211e-20)
(1.09034 2.38576 0)
(0.823142 2.18594 3.38127e-21)
(0.824513 2.44657 0)
(0.918522 2.53517 -4.20046e-19)
(0.950259 2.48468 2.80533e-19)
(0.793079 0.158453 0)
(0.750802 0.137586 1.56596e-19)
(0.91759 0.156482 9.09269e-19)
(0.824878 0.135945 -3.42145e-19)
(0.776046 0.0844632 -1.04879e-18)
(1.08606 0.23989 -8.32277e-19)
(0.986517 0.306083 -8.46289e-21)
(0.928864 0.340694 8.14401e-19)
(1.01894 0.252156 6.85047e-19)
(0.936741 0.198532 -1.20152e-18)
(0.89497 0.211238 1.50932e-19)
(0.933582 0.30321 -3.1434e-19)
(0.910147 0.215532 0)
(1.00084 0.20133 5.88108e-19)
(1.05674 0.213712 0)
(1.05066 0.223703 0)
(1.12368 0.121794 2.64702e-19)
(1.06519 0.189312 -1.05906e-20)
(1.07901 0.241303 -1.51186e-19)
(1.1137 0.207039 0)
(1.02331 0.0482247 5.8811e-19)
(1.03831 0.0623584 7.306e-19)
(1.03272 0.0460849 -5.83389e-19)
(1.04224 0.0682303 -4.89884e-19)
(1.01486 0.0740983 -7.41521e-19)
(0.989233 0.166963 0)
(0.992004 0.107319 0)
(0.961156 0.0671235 -4.80421e-19)
(0.905982 0.0984673 1.90096e-19)
(1.03973 0.114786 6.77064e-19)
(1.07542 0.133867 -7.75389e-19)
(1.06928 0.17599 6.96783e-19)
(1.03636 0.153149 0)
(1.08542 0.119571 0)
(1.05751 0.109596 -3.17748e-19)
(1.04414 0.106341 -5.50566e-19)
(0.59136 1.10306 1.09146e-19)
(0.621251 1.42301 -1.44094e-20)
(1.14744 2.72694 -2.35966e-19)
(1.19991 3.10953 5.00834e-22)
(1.25601 2.73581 -1.10185e-19)
(1.29669 2.70724 1.12183e-20)
(1.27275 2.33064 -3.74954e-20)
(1.18785 3.01543 -6.49073e-20)
(1.20691 2.97243 2.09613e-19)
(1.18179 3.26352 -1.26732e-19)
(1.40057 2.97934 1.57372e-19)
(1.41237 2.91711 0)
(0.566355 0.82606 -4.6813e-20)
(0.224222 1.21673 4.79247e-19)
(0.505736 0.403234 5.52378e-19)
(0.387003 0.164532 6.327e-19)
(0.512661 0.343078 6.66217e-19)
(0.547043 0.443239 -1.077e-18)
(0.551305 0.436127 8.84079e-19)
(0.493031 0.356627 -3.36537e-19)
(0.40089 0.293909 7.61971e-19)
(0.740752 0.244228 -3.43695e-19)
(0.701919 0.272284 0)
(0.656136 0.194803 8.13741e-21)
(0.737074 0.501493 3.62119e-19)
(0.700674 0.473938 -1.31696e-18)
(0.63104 0.447638 1.89039e-20)
(0.628936 0.423117 0)
(0.708087 0.715215 3.7169e-19)
(0.826183 0.793378 4.08325e-19)
(0.761572 0.844391 -4.75972e-19)
(0.89476 0.814748 -1.51914e-19)
(0.928122 0.856116 -3.55604e-20)
(0.935892 0.863662 3.64678e-20)
(0.874701 0.672257 -6.66255e-19)
(0.945644 0.718679 1.41241e-19)
(0.997863 0.722582 0)
(0.995095 0.698313 -1.82567e-19)
(1.02972 0.330068 2.11886e-19)
(1.15479 0.33051 2.54596e-19)
(1.07101 0.277738 3.40636e-19)
(0.992666 0.374338 -4.20648e-19)
(1.04756 0.477913 0)
(1.13198 0.420054 0)
(0.897046 0.414425 2.13095e-21)
(0.846108 0.302013 0)
(0.887825 0.291747 3.8719e-19)
(0.908609 0.337174 6.66708e-21)
(0.97229 0.48229 1.90336e-18)
(0.903457 0.542409 4.89595e-19)
(0.924348 0.494307 -5.23869e-19)
(0.845742 0.473355 5.57217e-19)
(0.817431 0.448639 3.50377e-19)
(0.793282 0.417089 -3.43551e-19)
(1.02807 -0.000406554 6.13453e-19)
(1.02035 0.000411419 0)
(1.01899 0.00125622 4.00286e-19)
(1.02252 -0.000913737 -9.0611e-19)
(1.02251 0.00442278 4.41442e-19)
(1.02008 0.0114419 -9.23844e-19)
(1.02085 0.0112075 0)
(1.0198 0.0119533 -1.92449e-19)
(1.01649 0.00768811 4.82276e-19)
(1.0167 0.0108048 -2.42118e-19)
(1.01733 0.010463 1.77197e-19)
(0.0280671 1.32838 0)
(0.0313185 1.36404 0)
(0.0441542 1.33546 0)
(0.0482569 1.2915 0)
(0.0803759 1.37742 -3.92352e-20)
(0.0870362 1.3536 1.84199e-21)
(0.0688428 1.55212 -7.46116e-22)
(0.0941045 1.38274 -4.43453e-20)
(0.0400117 1.46895 3.09051e-20)
(0.043587 1.46587 -2.46741e-20)
(0.0659091 1.37394 -2.82482e-20)
(0.0560779 1.37888 6.11348e-20)
(0.0486854 1.35675 1.00071e-20)
(0.0408362 1.37828 5.40514e-21)
(0.103063 2.38485 -1.08689e-19)
(0.0932102 2.42739 0)
(0.148978 2.03052 1.00986e-19)
(0.119454 1.70189 3.7895e-20)
(0.220236 2.02557 -7.61679e-20)
(0.207602 2.43947 0)
(0.213799 2.41313 -6.39676e-19)
(0.321974 2.38127 4.55844e-19)
(0.245643 2.00028 -2.19013e-19)
(0.136276 2.15903 1.47549e-19)
(0.111592 2.26107 0)
(0.018112 1.86673 -1.57076e-20)
(-0.00667354 2.39147 -3.73831e-20)
(0.00231538 2.14284 0)
(0.00384499 2.45404 -1.53285e-20)
(0.0261866 2.29771 1.81357e-20)
(0.011177 1.40946 -7.61329e-21)
(0.0118399 1.39561 1.32595e-19)
(0.0117413 1.40156 -4.21985e-20)
(0.0163679 1.4023 -3.84354e-20)
(0.0220888 1.43347 0)
(0.0103164 1.38526 0)
(0.0011201 1.29949 -5.11632e-20)
(0.00996106 1.37224 1.43468e-20)
(0.0120494 1.37345 0)
(0.00674943 1.29265 -3.82938e-20)
(0.0149181 1.2224 7.77356e-20)
(1.04223 0.0145894 0)
(1.04863 0.0101007 -6.39688e-20)
(1.03893 0.0236895 -4.62725e-19)
(1.04928 0.0227059 0)
(1.05436 0.0220101 0)
(1.0362 0.0125897 -6.75464e-21)
(1.03025 0.01291 7.43623e-19)
(1.03188 0.0170092 9.03613e-19)
(1.02562 0.0207771 0)
(1.02202 0.0213472 0)
(1.03544 0.025558 4.61609e-19)
(1.02543 0.0276456 0)
(1.02347 0.0277629 0)
(-0.0186538 2.02612 0)
(-0.00328896 1.65149 -1.35955e-21)
(-0.00683929 1.75856 -2.69374e-20)
(0.00083031 1.38291 0)
(-0.00359476 1.55178 -1.93294e-20)
(-0.0111659 1.46174 1.37816e-20)
(-0.00589471 1.39605 0)
(0.40696 1.65013 0)
(0.360726 1.31071 -9.34013e-21)
(0.278502 1.34752 0)
(0.430017 1.31602 -6.21537e-20)
(0.46349 1.46822 0)
(0.449601 1.41218 5.11185e-20)
(1.04061 2.68149 -1.49722e-20)
(0.982904 2.41622 -8.82364e-19)
(0.943837 2.21141 9.98558e-19)
(0.864759 2.38982 2.3736e-19)
(0.854726 2.49858 0)
(0.922206 2.495 0)
(0.951663 2.38978 0)
(0.928171 2.37911 -9.19132e-19)
(0.694241 2.46677 -3.67399e-19)
(0.802699 2.45017 -9.52988e-20)
(0.810473 2.42853 7.18164e-20)
(0.705371 2.40974 0)
(0.809822 2.40303 0)
(0.771241 2.41923 -3.62043e-19)
(0.768352 2.47729 0)
(0.624152 1.07196 0)
(0.5199 0.878217 -5.34485e-19)
(0.524004 0.945267 -3.0877e-20)
(0.507247 1.08737 0)
(0.493269 0.997419 8.19398e-19)
(0.792977 0.883249 -1.30483e-19)
(0.797879 1.0142 0)
(0.777016 0.994354 1.80353e-19)
(0.6676 1.0215 0)
(0.661827 0.931567 0)
(1.16513 2.76244 -2.12449e-19)
(1.1404 2.82071 -8.36236e-20)
(0.926517 2.3473 6.37403e-20)
(0.902949 2.32775 -7.25264e-20)
(1.13449 2.74053 0)
(1.0864 2.70886 8.71689e-20)
(1.10255 2.50323 -2.92451e-19)
(1.00362 2.2601 -2.86317e-20)
(0.502994 1.34996 0)
(0.522629 1.09229 -9.6202e-20)
(0.590844 1.18575 0)
(0.861534 0.223449 0)
(0.772745 0.174724 0)
(0.699497 0.140537 0)
(0.861822 0.222634 -5.9556e-19)
(0.761726 0.218438 3.58552e-19)
(0.922433 0.0815519 -3.94136e-19)
(0.939305 0.132265 0)
(0.912828 0.144171 1.69703e-19)
(0.849663 0.102144 6.80446e-19)
(0.80864 0.0682787 -4.25878e-19)
(1.10083 3.35636 -6.86225e-19)
(1.16708 3.2792 0)
(1.11974 3.44143 -1.58998e-18)
(0.659976 3.58682 1.32547e-18)
(1.03101 3.08346 1.29796e-19)
(0.530032 0.803516 5.60319e-19)
(0.514194 0.775269 0)
(0.366878 0.427952 -1.44733e-19)
(0.471771 0.647251 8.4526e-19)
(0.532504 0.404421 -1.95644e-19)
(0.513096 0.476012 2.27384e-19)
(0.682394 0.530119 4.7071e-19)
(0.726452 0.561923 0)
(0.649691 0.581518 0)
(0.623176 0.537246 0)
(1.00411 0.606566 9.05879e-20)
(0.957372 0.585478 -4.73705e-19)
(0.969067 0.600512 3.58489e-19)
(1.033 0.537035 -3.51199e-19)
(1.07858 0.508068 0)
(1.08247 0.595318 -9.13189e-20)
(0.875093 0.406505 -7.79313e-19)
(0.866347 0.396845 -9.97964e-19)
(0.805376 0.389314 6.1418e-19)
(0.809617 0.351212 -6.37251e-19)
(0.851422 0.312129 -4.99322e-19)
(0.803352 0.312871 6.13115e-19)
(1.02657 0.00646398 -4.61916e-19)
(1.0262 0.00658935 9.30868e-19)
(1.02984 0.000735154 5.94398e-19)
(1.03401 0.00142534 -7.13796e-19)
(1.03373 0.0114078 0)
(1.02981 0.0116117 -1.16338e-18)
(0.0851287 1.6526 1.11668e-20)
(0.052169 1.5939 0)
(0.0949054 1.7015 7.05222e-20)
(0.108934 1.67634 -6.34825e-20)
(0.0625678 1.5496 1.38547e-21)
(0.0463994 1.54299 0)
(0.00425181 1.68841 0)
(-0.00516641 1.4971 9.41972e-21)
(-0.00533675 1.43864 -8.45469e-21)
(-0.00761903 1.54854 4.22977e-21)
(-0.00253866 1.88677 1.28851e-20)
(-0.0137015 1.94188 -4.16431e-21)
(0.495645 1.37617 -2.38761e-19)
(0.497824 1.3731 2.61262e-19)
(0.44579 1.30695 2.53542e-21)
(0.429779 1.30184 6.65906e-21)
(0.619219 1.3054 0)
(0.547369 1.39933 1.26139e-19)
(0.548068 1.40137 -1.22824e-19)
(0.479261 1.29167 -2.44266e-21)
(0.521665 1.25025 0)
(0.586529 1.21791 0)
(0.668664 2.4299 5.41207e-19)
(0.662344 2.45678 1.26062e-18)
(0.719526 2.47195 -8.67121e-19)
(0.620249 2.44374 -1.98415e-19)
(0.556442 2.53996 2.69935e-19)
(0.496655 2.50315 -7.00336e-19)
(0.991861 2.39396 -5.62344e-19)
(1.02561 2.41194 0)
(0.950013 2.19581 -6.19188e-19)
(1.05684 2.68973 0)
(1.05607 2.67195 0)
(0.611342 2.30288 3.10956e-20)
(1.12289 3.07642 9.78751e-20)
(1.00355 2.97642 -1.51307e-19)
(0.330669 0.833781 0)
(0.338759 0.729338 -2.98965e-19)
(0.536667 0.658731 -3.02457e-19)
(0.37584 2.14791 0)
(0.407664 2.7471 -9.13241e-20)
(0.41884 2.48444 0)
(0.715105 0.6766 -7.94048e-19)
(0.775822 0.680349 1.1095e-18)
(0.788691 0.649584 -1.05126e-18)
(0.688815 0.642648 -1.01076e-19)
(0.750728 0.599948 -4.15325e-19)
(0.97723 2.7616 -7.41368e-20)
(1.01654 2.76546 -1.9267e-19)
(0.563558 2.22593 3.99175e-19)
(0.613679 1.74679 -3.21751e-19)
(0.711975 1.86638 -4.74031e-19)
(0.982259 2.40208 -1.3528e-19)
(0.981182 2.35671 3.46775e-19)
(0.657699 1.78228 3.19669e-20)
(0.464457 1.31337 1.66208e-19)
)
;

boundaryField
{
    wall-4
    {
        type            noSlip;
    }
    velocity-inlet-5
    {
        type            fixedValue;
        value           uniform (1 0 0);
    }
    velocity-inlet-6
    {
        type            fixedValue;
        value           uniform (0 3 0);
    }
    pressure-outlet-7
    {
        type            zeroGradient;
    }
    wall-8
    {
        type            noSlip;
    }
    frontAndBackPlanes
    {
        type            empty;
    }
}


// ************************************************************************* //
