/*--------------------------------*- C++ -*----------------------------------*\
  =========                 |
  \\      /  F ield         | OpenFOAM: The Open Source CFD Toolbox
   \\    /   O peration     | Website:  https://openfoam.org
    \\  /    A nd           | Version:  6
     \\/     M anipulation  |
\*---------------------------------------------------------------------------*/
FoamFile
{
    version     2.0;
    format      ascii;
    class       volVectorField;
    location    "88.8";
    object      U;
}
// * * * * * * * * * * * * * * * * * * * * * * * * * * * * * * * * * * * * * //

dimensions      [0 1 -1 0 0 0 0];

internalField   nonuniform List<vector> 
8800
(
(0.987184 -0.0766653 0)
(1.00189 -0.0551901 0)
(0.999724 -0.0285479 0)
(1.00003 -0.0151423 0)
(1.0001 -0.00854269 0)
(1.00012 -0.00504406 0)
(1.00008 -0.00299839 0)
(1.00002 -0.0016981 0)
(0.999993 -0.000792064 0)
(1.00006 -7.68225e-05 0)
(0.999959 0.000655272 0)
(0.999992 0.00142397 0)
(1.00005 0.00243501 0)
(1.00007 0.00400204 0)
(1.00005 0.00663484 0)
(1.00004 0.0113735 0)
(0.999943 0.0208164 0)
(0.999169 0.0386711 0)
(1.0071 0.0724576 0)
(0.771214 0.0366616 0)
(0.363077 -0.0160166 0)
(1.04332 -0.0768127 0)
(1.0846 -0.0704418 0)
(1.04519 -0.0535356 0)
(1.02329 -0.0388856 0)
(1.01203 -0.0262061 0)
(1.00643 -0.0168429 0)
(1.00359 -0.0103088 0)
(1.00215 -0.00564609 0)
(1.00144 -0.00198438 0)
(1.00128 0.00133797 0)
(1.00165 0.0047256 0)
(1.00268 0.00865383 0)
(1.00468 0.0139732 0)
(1.0086 0.0216802 0)
(1.01656 0.0326468 0)
(1.0325 0.0465585 0)
(1.06267 0.0616743 0)
(1.09187 0.0761043 0)
(0.838666 0.0565637 0)
(0.216864 -0.00242897 0)
(1.07591 -0.0501265 0)
(1.09989 -0.0482967 0)
(1.06465 -0.0404456 0)
(1.04005 -0.033583 0)
(1.02393 -0.0260562 0)
(1.01413 -0.0184671 0)
(1.00856 -0.01164 0)
(1.00558 -0.00576488 0)
(1.00431 -0.000341605 0)
(1.00463 0.00490713 0)
(1.00659 0.0103005 0)
(1.01063 0.0163701 0)
(1.01794 0.0233852 0)
(1.03053 0.0308482 0)
(1.05062 0.037873 0)
(1.08036 0.0445535 0)
(1.10627 0.0513634 0)
(0.942503 0.0416267 0)
(0.216124 0.00246264 0)
(0.175205 -0.000815481 0)
(1.01774 -0.03547 0)
(1.10522 -0.0413559 0)
(1.07828 -0.0360335 0)
(1.05349 -0.0300919 0)
(1.03623 -0.0245076 0)
(1.02402 -0.0187689 0)
(1.01589 -0.0126774 0)
(1.01101 -0.00647846 0)
(1.00879 -0.000135021 0)
(1.00934 0.00612444 0)
(1.01263 0.0121249 0)
(1.01888 0.0179299 0)
(1.02876 0.0234912 0)
(1.04318 0.028787 0)
(1.0637 0.0342616 0)
(1.09356 0.0402404 0)
(1.09339 0.0419933 0)
(0.827063 0.0229282 0)
(0.173956 0.000854493 0)
(0.154023 -0.000609203 0)
(0.956283 -0.0254374 0)
(1.1035 -0.0350915 0)
(1.08771 -0.0326044 0)
(1.06176 -0.0279414 0)
(1.04415 -0.0229052 0)
(1.03167 -0.0176434 0)
(1.02281 -0.0120953 0)
(1.01697 -0.00614333 0)
(1.0141 0.000338489 0)
(1.01475 0.00680639 0)
(1.01875 0.0126895 0)
(1.0258 0.0179443 0)
(1.03607 0.022845 0)
(1.05062 0.0275966 0)
(1.07185 0.0321152 0)
(1.10005 0.0360398 0)
(1.06801 0.0340815 0)
(0.73936 0.0143352 0)
(0.152138 0.000653506 0)
(0.139676 -0.000465193 0)
(0.899464 -0.0190473 0)
(1.09587 -0.0300252 0)
(1.0958 -0.029118 0)
(1.06931 -0.0253721 0)
(1.05088 -0.0212156 0)
(1.03793 -0.0164223 0)
(1.0288 -0.0111133 0)
(1.02266 -0.00534835 0)
(1.01949 0.000995213 0)
(1.02007 0.00731513 0)
(1.02419 0.0129492 0)
(1.03136 0.0178646 0)
(1.04183 0.0223097 0)
(1.05694 0.0262652 0)
(1.07913 0.0297107 0)
(1.10222 0.0323218 0)
(1.03582 0.0281915 0)
(0.672661 0.0102408 0)
(0.137011 0.000516298 0)
(0.129169 -0.000359468 0)
(0.849991 -0.0146751 0)
(1.08356 -0.0258721 0)
(1.10153 -0.0261397 0)
(1.0762 -0.0228341 0)
(1.05723 -0.0191679 0)
(1.04383 -0.0148953 0)
(1.03434 -0.00994217 0)
(1.02795 -0.00438128 0)
(1.02457 0.00178801 0)
(1.02499 0.00789729 0)
(1.02907 0.0132547 0)
(1.03633 0.0177485 0)
(1.04707 0.0215853 0)
(1.06258 0.0248726 0)
(1.0852 0.0277933 0)
(1.10126 0.0295269 0)
(1.00075 0.0237028 0)
(0.620646 0.00788636 0)
(0.125552 0.000419598 0)
(0.121168 -0.000278385 0)
(0.808009 -0.0115056 0)
(1.06839 -0.0222373 0)
(1.10512 -0.0234676 0)
(1.0825 -0.0205687 0)
(1.06312 -0.0171111 0)
(1.04943 -0.0131383 0)
(1.03966 -0.00851456 0)
(1.03297 -0.00321728 0)
(1.02932 0.00274054 0)
(1.02955 0.00860548 0)
(1.03357 0.0136149 0)
(1.04089 0.0176246 0)
(1.05171 0.0209505 0)
(1.06743 0.0238225 0)
(1.09039 0.0264378 0)
(1.09738 0.0272659 0)
(0.965261 0.0201957 0)
(0.578753 0.00636384 0)
(0.116395 0.000349917 0)
(0.114989 -0.000214679 0)
(0.772744 -0.0091294 0)
(1.05178 -0.0190298 0)
(1.10758 -0.0209848 0)
(1.08843 -0.0184486 0)
(1.06866 -0.0151281 0)
(1.05473 -0.0113085 0)
(1.04475 -0.00688556 0)
(1.0378 -0.00181952 0)
(1.03386 0.00389303 0)
(1.03384 0.00946221 0)
(1.03772 0.014095 0)
(1.04496 0.0176717 0)
(1.05575 0.0206069 0)
(1.07166 0.0231496 0)
(1.09427 0.0254129 0)
(1.09062 0.025414 0)
(0.930633 0.0175062 0)
(0.543954 0.00533127 0)
(0.108809 0.000300232 0)
(0.110198 -0.000163205 0)
(0.743264 -0.00727919 0)
(1.0348 -0.0161778 0)
(1.10912 -0.018634 0)
(1.09409 -0.0163944 0)
(1.07403 -0.0131568 0)
(1.05983 -0.00941562 0)
(1.04965 -0.00510186 0)
(1.04245 -0.000198075 0)
(1.0382 0.00528191 0)
(1.03786 0.0105428 0)
(1.0415 0.0148172 0)
(1.04857 0.0180086 0)
(1.0593 0.0205951 0)
(1.0754 0.0228416 0)
(1.09684 0.0247166 0)
(1.08136 0.0239286 0)
(0.897412 0.0154855 0)
(0.514184 0.00461965 0)
(0.10231 0.000265858 0)
(0.106513 -0.000120171 0)
(0.718756 -0.00578048 0)
(1.01828 -0.0136087 0)
(1.10988 -0.0163505 0)
(1.09966 -0.0143716 0)
(1.07934 -0.0111345 0)
(1.06484 -0.00740975 0)
(1.05442 -0.00314353 0)
(1.04696 0.00166057 0)
(1.04235 0.00695303 0)
(1.0416 0.0119296 0)
(1.04492 0.0158665 0)
(1.05177 0.0186861 0)
(1.06242 0.0209366 0)
(1.07868 0.02291 0)
(1.09802 0.0243611 0)
(1.06995 0.0228106 0)
(0.865689 0.0140177 0)
(0.487975 0.00413899 0)
(0.0965521 0.000243786 0)
(0.103751 -8.25912e-05 0)
(0.698589 -0.0045167 0)
(1.00285 -0.0112541 0)
(1.11 -0.0140975 0)
(1.10511 -0.0122934 0)
(1.08468 -0.00900645 0)
(1.06986 -0.00523764 0)
(1.05916 -0.000956717 0)
(1.05136 0.00380606 0)
(1.04631 0.00896335 0)
(1.04507 0.0136933 0)
(1.048 0.0173136 0)
(1.05458 0.019767 0)
(1.06512 0.0216853 0)
(1.08149 0.0233868 0)
(1.09813 0.0244777 0)
(1.05664 0.0220756 0)
(0.835267 0.0130194 0)
(0.464211 0.00383515 0)
(0.0912709 0.000231644 0)
(0.101793 -4.77506e-05 0)
(0.682303 -0.00340013 0)
(0.988958 -0.00904217 0)
(1.10972 -0.0117865 0)
(1.11041 -0.0100764 0)
(1.09012 -0.00671014 0)
(1.07495 -0.00283338 0)
(1.06392 0.00153082 0)
(1.05571 0.00631634 0)
(1.05012 0.0113903 0)
(1.04829 0.0159041 0)
(1.05076 0.0192208 0)
(1.05701 0.0213058 0)
(1.06739 0.0228921 0)
(1.08379 0.0243042 0)
(1.09729 0.0249528 0)
(1.04155 0.021733 0)
(0.805772 0.0124159 0)
(0.442008 0.0036699 0)
(0.0862575 0.000227352 0)
(0.100582 -1.33628e-05 0)
(0.669606 -0.00236057 0)
(0.976987 -0.00689738 0)
(1.10937 -0.00935969 0)
(1.11572 -0.00765854 0)
(1.09576 -0.00416713 0)
(1.0802 -0.000116278 0)
(1.06877 0.0044017 0)
(1.06007 0.00927942 0)
(1.05383 0.0143268 0)
(1.05129 0.0186574 0)
(1.05318 0.0216825 0)
(1.05905 0.0233899 0)
(1.06924 0.0246351 0)
(1.08562 0.0257525 0)
(1.09515 0.0258901 0)
(1.02469 0.0217871 0)
(0.776735 0.0121599 0)
(0.420645 0.00361876 0)
(0.0813453 0.000229576 0)
(0.100109 2.32807e-05 0)
(0.660355 -0.00134164 0)
(0.967256 -0.00474656 0)
(1.10927 -0.0067557 0)
(1.12116 -0.00496707 0)
(1.10168 -0.0012912 0)
(1.0857 0.00300684 0)
(1.0738 0.00775466 0)
(1.0645 0.0127969 0)
(1.05747 0.0178778 0)
(1.05406 0.0220569 0)
(1.05528 0.0247967 0)
(1.06069 0.0261289 0)
(1.07065 0.0270116 0)
(1.0869 0.0277976 0)
(1.09161 0.0273305 0)
(1.00598 0.0222811 0)
(0.747622 0.0122273 0)
(0.399501 0.00366851 0)
(0.0763935 0.000237673 0)
(0.100386 5.56162e-05 0)
(0.65454 -0.000286168 0)
(0.960073 -0.00251381 0)
(1.10978 -0.00390461 0)
(1.12692 -0.00191483 0)
(1.108 0.00202228 0)
(1.09155 0.00664977 0)
(1.07908 0.0117108 0)
(1.06905 0.0169981 0)
(1.06107 0.0221735 0)
(1.05664 0.0262294 0)
(1.05703 0.0286873 0)
(1.06191 0.0296408 0)
(1.07158 0.0301361 0)
(1.08734 0.0305437 0)
(1.08635 0.0293581 0)
(0.985187 0.0232517 0)
(0.71783 0.0126023 0)
(0.378008 0.00380969 0)
(0.0712768 0.000250759 0)
(0.101507 0.000110267 0)
(0.652306 0.000851464 0)
(0.95576 -0.000120692 0)
(1.11128 -0.000727861 0)
(1.13319 0.0015969 0)
(1.11482 0.00588996 0)
(1.09786 0.0109402 0)
(1.08472 0.0164103 0)
(1.0738 0.0220305 0)
(1.06468 0.0273684 0)
(1.059 0.0313322 0)
(1.05843 0.0334967 0)
(1.06267 0.0340605 0)
(1.07197 0.0341448 0)
(1.0868 0.0341309 0)
(1.07912 0.0320525 0)
(0.961941 0.0247334 0)
(0.686692 0.0132749 0)
(0.355633 0.0040326 0)
(0.065885 0.00026788 0)
(0.103612 0.000162686 0)
(0.653878 0.00196896 0)
(0.95468 0.00252026 0)
(1.11423 0.00287891 0)
(1.1402 0.00567725 0)
(1.12232 0.0104558 0)
(1.10476 0.016043 0)
(1.09081 0.022033 0)
(1.07882 0.0280823 0)
(1.06831 0.033645 0)
(1.06116 0.0375307 0)
(1.05945 0.0393678 0)
(1.06292 0.0395381 0)
(1.07177 0.0391822 0)
(1.08503 0.0386575 0)
(1.06958 0.0355142 0)
(0.935736 0.0267728 0)
(0.653488 0.0142369 0)
(0.331877 0.00432831 0)
(0.0601267 0.000287966 0)
(0.106801 0.000226687 0)
(0.659854 0.00345273 0)
(0.957206 0.00544919 0)
(1.11911 0.00706096 0)
(1.14819 0.0104833 0)
(1.13067 0.0159076 0)
(1.11241 0.0221628 0)
(1.09748 0.028797 0)
(1.08418 0.0353759 0)
(1.072 0.0412192 0)
(1.0631 0.0450236 0)
(1.06007 0.0465146 0)
(1.06261 0.0462556 0)
(1.07093 0.045412 0)
(1.08203 0.0443041 0)
(1.05728 0.0398641 0)
(0.905893 0.0294064 0)
(0.617433 0.0154712 0)
(0.306278 0.00468216 0)
(0.0539323 0.000309334 0)
(0.111358 0.000313938 0)
(0.670591 0.00519286 0)
(0.963961 0.00896867 0)
(1.12641 0.0119766 0)
(1.15749 0.0162192 0)
(1.1401 0.0224781 0)
(1.121 0.0295583 0)
(1.10485 0.0369775 0)
(1.08994 0.0441864 0)
(1.07574 0.0503533 0)
(1.06478 0.054047 0)
(1.06018 0.0551443 0)
(1.0617 0.0544136 0)
(1.06936 0.0530284 0)
(1.07769 0.0512193 0)
(1.04159 0.0452062 0)
(0.871555 0.032642 0)
(0.5777 0.0169382 0)
(0.278441 0.00506964 0)
(0.0472662 0.000329495 0)
(0.117649 0.000428315 0)
(0.686834 0.00735864 0)
(0.975608 0.0132212 0)
(1.13671 0.017854 0)
(1.16846 0.0231487 0)
(1.15089 0.0304992 0)
(1.13073 0.0385911 0)
(1.11305 0.0469411 0)
(1.09614 0.0548605 0)
(1.07951 0.0613415 0)
(1.06614 0.0648439 0)
(1.05965 0.0654477 0)
(1.06011 0.0642094 0)
(1.06712 0.0622326 0)
(1.07173 0.0595903 0)
(1.02169 0.0516123 0)
(0.83167 0.0364448 0)
(0.533469 0.0185577 0)
(0.2481 0.00545222 0)
(0.0401452 0.000345097 0)
(0.126186 0.000590406 0)
(0.709625 0.0101938 0)
(0.99299 0.0185121 0)
(1.15068 0.0250423 0)
(1.1816 0.0316625 0)
(1.16339 0.0404269 0)
(1.14181 0.0497377 0)
(1.12216 0.0591551 0)
(1.10276 0.0678129 0)
(1.08323 0.0745259 0)
(1.06709 0.0776884 0)
(1.05848 0.0776598 0)
(1.0578 0.0758395 0)
(1.06397 0.0731659 0)
(1.06358 0.0694412 0)
(0.996466 0.0591077 0)
(0.785013 0.0406883 0)
(0.48402 0.0201905 0)
(0.215211 0.00577403 0)
(0.0326574 0.000351969 0)
(0.137757 0.000825394 0)
(0.740304 0.0140694 0)
(1.01726 0.0253054 0)
(1.16911 0.0340858 0)
(1.19755 0.0423585 0)
(1.17796 0.0529344 0)
(1.15445 0.0636786 0)
(1.13223 0.0742428 0)
(1.10972 0.0835591 0)
(1.08673 0.0902831 0)
(1.06746 0.0928355 0)
(1.05659 0.0919898 0)
(1.05477 0.0895602 0)
(1.05956 0.0860509 0)
(1.05244 0.0809764 0)
(0.964475 0.0675844 0)
(0.73025 0.0451068 0)
(0.428911 0.021619 0)
(0.180074 0.00596198 0)
(0.0249819 0.000345662 0)
(0.153656 0.00119468 0)
(0.780892 0.019637 0)
(1.05011 0.0344058 0)
(1.19295 0.0459361 0)
(1.2172 0.0565871 0)
(1.19498 0.0691014 0)
(1.16871 0.0814116 0)
(1.14308 0.0930189 0)
(1.11675 0.102681 0)
(1.08977 0.108976 0)
(1.06706 0.110506 0)
(1.05381 0.108601 0)
(1.0509 0.105464 0)
(1.05369 0.101191 0)
(1.0372 0.0941541 0)
(0.923845 0.0767163 0)
(0.66613 0.0492525 0)
(0.368263 0.0225445 0)
(0.143469 0.00593514 0)
(0.0173974 0.000322287 0)
(0.176111 0.00183347 0)
(0.834606 0.0280364 0)
(1.09435 0.0473777 0)
(1.22334 0.0624759 0)
(1.24099 0.0760635 0)
(1.21455 0.0905839 0)
(1.18434 0.104279 0)
(1.15431 0.116443 0)
(1.12339 0.125788 0)
(1.09195 0.130955 0)
(1.06561 0.13089 0)
(1.04997 0.127581 0)
(1.04601 0.123583 0)
(1.04628 0.118294 0)
(1.01623 0.108728 0)
(0.872271 0.0858832 0)
(0.591925 0.0524625 0)
(0.303211 0.0226275 0)
(0.106778 0.00562415 0)
(0.0102769 0.000279032 0)
(0.208575 0.00324382 0)
(0.907285 0.0419941 0)
(1.15315 0.0681013 0)
(1.26059 0.0872368 0)
(1.26876 0.103812 0)
(1.23602 0.119794 0)
(1.20048 0.133925 0)
(1.16506 0.145504 0)
(1.12897 0.153408 0)
(1.09279 0.156434 0)
(1.06281 0.154052 0)
(1.04489 0.148943 0)
(1.03995 0.143944 0)
(1.03654 0.137424 0)
(0.987153 0.124116 0)
(0.807128 0.0940281 0)
(0.50839 0.0539292 0)
(0.236644 0.0216518 0)
(0.0721467 0.00501589 0)
(0.00410929 0.000213995 0)
(0.252867 0.00963018 8.59683e-21)
(1.00277 0.0696359 7.39465e-21)
(1.22409 0.103329 -2.5939e-21)
(1.30176 0.124094 0)
(1.29753 0.143572 -6.72628e-35)
(1.25716 0.15914 9.86394e-22)
(1.21553 0.171882 -1.79567e-21)
(1.17427 0.181422 0)
(1.13271 0.186798 3.74512e-35)
(1.09158 0.186925 -2.27361e-21)
(1.05781 0.181819 0)
(1.03765 0.174902 -2.73471e-21)
(1.0324 0.16942 -8.09577e-21)
(1.02252 0.162044 -3.842e-21)
(0.944332 0.142387 -1.15968e-21)
(0.720774 0.10154 -6.89348e-22)
(0.410659 0.0534576 0)
(0.167973 0.0198979 4.82387e-22)
(0.0397477 0.00426207 5.71265e-22)
(-0.0011711 0.000102049 1.04437e-20)
(0.283733 0.0252589 5.85591e-21)
(1.08207 0.113366 1.16555e-22)
(1.28259 0.153512 6.70887e-22)
(1.33915 0.174236 0)
(1.32296 0.19382 -3.33142e-21)
(1.27556 0.207318 -3.81433e-21)
(1.22798 0.217864 -1.79049e-21)
(1.18092 0.225093 -6.43792e-21)
(1.13384 0.228001 0)
(1.08756 0.22545 9.60488e-21)
(1.0498 0.217927 9.5795e-21)
(1.0271 0.209382 2.85278e-21)
(1.01899 0.202632 1.04885e-20)
(0.995721 0.19198 1.48414e-20)
(0.873721 0.1621 0)
(0.600508 0.107312 2.0943e-20)
(0.297338 0.0514937 3.00357e-20)
(0.0986709 0.0170381 3.34192e-20)
(0.0089571 0.00234655 -3.83316e-20)
(-0.00598998 -0.000470897 -7.31331e-22)
(0.285515 0.0428153 0)
(1.13309 0.169846 9.03212e-22)
(1.3228 0.214856 0)
(1.36856 0.235295 -4.0601e-21)
(1.34324 0.25189 0)
(1.28993 0.261483 -7.33473e-21)
(1.23681 0.268322 3.61104e-21)
(1.18429 0.27206 -1.27941e-20)
(1.13204 0.271577 -3.27646e-22)
(1.08104 0.265649 4.91713e-21)
(1.03976 0.255283 2.0985e-20)
(1.01489 0.244925 -2.76581e-23)
(1.00341 0.236398 -7.59835e-21)
(0.965361 0.221437 -1.38779e-20)
(0.806169 0.179636 1.64621e-20)
(0.508012 0.110856 -2.91386e-20)
(0.226643 0.0490518 -3.83765e-21)
(0.0598643 0.0140495 0)
(-0.0073893 -3.60232e-05 -3.57585e-24)
(-0.0084279 -0.00117256 0)
(0.278932 0.0575117 9.04252e-21)
(1.16131 0.230071 -4.80439e-21)
(1.34824 0.28086 -4.20297e-21)
(1.38837 0.301637 1.83406e-21)
(1.35682 0.314237 -3.0964e-21)
(1.29914 0.319241 1.51884e-20)
(1.24152 0.321624 7.44334e-21)
(1.18437 0.321133 0)
(1.12761 0.316589 -2.42689e-20)
(1.07249 0.306718 0)
(1.02815 0.293094 -1.09063e-20)
(1.00144 0.280644 -1.36033e-20)
(0.986424 0.269896 -8.22423e-21)
(0.934464 0.249556 -1.0032e-20)
(0.747846 0.195559 0)
(0.441981 0.11477 0)
(0.181754 0.0481267 -2.48412e-20)
(0.0348562 0.0113413 4.90279e-21)
(-0.0186831 -0.0027284 -2.88946e-21)
(-0.0102495 -0.00197625 -3.4229e-21)
(0.270851 0.0703468 -1.35703e-21)
(1.17417 0.290157 0)
(1.36265 0.347812 7.35705e-21)
(1.39959 0.369262 4.83494e-21)
(1.36378 0.377897 7.27814e-21)
(1.30295 0.378288 0)
(1.24189 0.37606 7.1148e-21)
(1.18103 0.371075 1.39259e-20)
(1.12053 0.362124 1.2292e-20)
(1.06188 0.347938 2.29037e-20)
(1.01495 0.330728 0)
(0.986645 0.315901 -2.9117e-20)
(0.968239 0.302534 -1.76075e-20)
(0.90448 0.276046 -1.04254e-20)
(0.699491 0.210655 6.4022e-20)
(0.395719 0.119552 7.59287e-21)
(0.152352 0.0480478 3.5762e-20)
(0.0169606 0.00845789 -1.69055e-19)
(-0.0281039 -0.00591102 1.00124e-19)
(-0.0120364 -0.00292275 -1.22218e-19)
(0.262843 0.0818006 2.19493e-21)
(1.17704 0.348114 1.54677e-22)
(1.36897 0.413768 -5.0094e-22)
(1.40393 0.436222 -3.98805e-21)
(1.36509 0.441128 -5.59402e-21)
(1.30193 0.437052 3.58816e-22)
(1.23821 0.430309 -7.69239e-21)
(1.17438 0.420838 1.42101e-20)
(1.11078 0.407391 -2.63128e-20)
(1.04915 0.388706 0)
(1.00001 0.367683 -1.31211e-20)
(0.970343 0.350186 -3.03029e-22)
(0.948889 0.333848 -1.92006e-20)
(0.875853 0.300987 0)
(0.660286 0.22503 -1.37972e-20)
(0.363508 0.125056 -3.26689e-20)
(0.132254 0.0483829 8.688e-20)
(0.00310292 0.00524774 -8.55473e-20)
(-0.036687 -0.00964818 1.21607e-19)
(-0.0139399 -0.00404789 -1.27958e-19)
(0.255792 0.0922544 -1.12917e-22)
(1.1735 0.403204 8.05336e-22)
(1.36935 0.477669 1.17524e-22)
(1.40284 0.501397 1.1631e-21)
(1.3618 0.50291 -2.70835e-21)
(1.29691 0.4946 0)
(1.23108 0.483541 -6.92213e-21)
(1.16481 0.469717 -1.47688e-20)
(1.09858 0.451823 -1.35763e-20)
(1.03436 0.428591 0)
(0.983289 0.403579 -1.34366e-20)
(0.952443 0.38315 -1.676e-20)
(0.928397 0.363549 2.07108e-20)
(0.848662 0.324282 -1.26073e-20)
(0.628672 0.238714 -5.96787e-20)
(0.341096 0.130992 3.53181e-20)
(0.118428 0.0487774 1.04439e-20)
(-0.00783179 0.00164214 0)
(-0.044691 -0.0139438 -1.16664e-19)
(-0.0160386 -0.00538739 -4.3267e-21)
(0.249895 0.102055 1.03493e-21)
(1.16589 0.455234 -1.46731e-21)
(1.36531 0.538958 -3.65839e-22)
(1.39756 0.564122 4.68467e-21)
(1.35488 0.562606 -9.12887e-21)
(1.28868 0.550376 1.28976e-20)
(1.22115 0.535266 1.4868e-20)
(1.15281 0.517297 -2.35213e-20)
(1.0843 0.495078 8.49809e-21)
(1.01776 0.467324 -5.56948e-20)
(0.964913 0.438195 -1.52376e-20)
(0.933002 0.414601 0)
(0.906822 0.391459 2.23867e-20)
(0.82261 0.345756 2.68267e-20)
(0.602726 0.251725 3.20445e-20)
(0.325308 0.136938 -3.81155e-20)
(0.109085 0.0490051 -1.12614e-20)
(-0.0158651 -0.00224553 1.32557e-20)
(-0.0515313 -0.0186052 0)
(-0.0181963 -0.00691814 -9.33516e-21)
(0.245077 0.111284 -1.60451e-20)
(1.15594 0.504261 8.77291e-21)
(1.35815 0.59755 7.74657e-22)
(1.38911 0.624058 2.20475e-21)
(1.34515 0.619835 -3.58762e-21)
(1.27797 0.604022 -8.44606e-22)
(1.20905 0.585187 -1.63055e-20)
(1.13893 0.563338 -8.52051e-21)
(1.06834 0.536975 -2.35359e-20)
(0.999637 0.504765 5.51661e-23)
(0.94511 0.471475 -4.74535e-20)
(0.912145 0.444487 4.03566e-20)
(0.884126 0.417612 -2.45324e-20)
(0.797245 0.365591 2.94402e-20)
(0.580507 0.264024 0)
(0.313581 0.142849 -2.06231e-20)
(0.103096 0.0492829 4.56956e-23)
(-0.0207019 -0.00593018 -5.74778e-20)
(-0.0564268 -0.0231662 -8.48249e-21)
(-0.0200764 -0.00850836 0)
(0.241298 0.120211 0)
(1.14472 0.550525 1.01241e-20)
(1.34876 0.653588 4.08064e-21)
(1.3783 0.681039 -1.35811e-21)
(1.33331 0.674398 -5.19833e-21)
(1.26538 0.655348 0)
(1.19531 0.633129 -7.09718e-21)
(1.12363 0.607692 -2.20327e-22)
(1.05113 0.577428 5.04162e-20)
(0.980331 0.540891 -7.60362e-21)
(0.924101 0.503423 -3.42923e-20)
(0.890001 0.472896 2.09348e-20)
(0.86028 0.442105 -4.23112e-22)
(0.77173 0.383957 3.1354e-20)
(0.560335 0.275563 1.90199e-20)
(0.304012 0.148602 -4.43964e-20)
(0.0996234 0.0498412 5.24857e-20)
(-0.0226914 -0.0089861 1.55565e-20)
(-0.0590475 -0.0271324 6.43647e-20)
(-0.0214196 -0.00998914 -1.74112e-19)
(0.238473 0.128991 -5.3591e-21)
(1.13303 0.594207 7.11684e-21)
(1.33777 0.706647 -4.74842e-21)
(1.36581 0.735022 -2.39928e-22)
(1.31996 0.726212 0)
(1.25145 0.704252 -5.19835e-21)
(1.18041 0.678994 2.42075e-20)
(1.10731 0.650291 1.85705e-20)
(1.03302 0.616395 0)
(0.960128 0.575729 -1.10027e-19)
(0.902093 0.534095 9.2933e-20)
(0.866751 0.499956 0)
(0.83539 0.465159 2.86763e-20)
(0.745799 0.401091 -3.92364e-22)
(0.541028 0.286311 -6.1299e-20)
(0.295218 0.15423 2.39439e-20)
(0.0975475 0.0507752 0)
(-0.022508 -0.0111602 8.3981e-20)
(-0.0594478 -0.0302083 0)
(-0.0220732 -0.0112217 -8.23968e-20)
(0.236512 0.137646 6.41661e-21)
(1.12135 0.635546 9.28036e-21)
(1.32567 0.7568 -4.69711e-21)
(1.35216 0.786031 0)
(1.30558 0.775279 -3.42132e-21)
(1.23663 0.75072 0)
(1.16474 0.722739 -2.33935e-20)
(1.09036 0.691099 -8.40625e-21)
(1.01432 0.653888 8.82493e-21)
(0.939297 0.609321 -5.45139e-20)
(0.87932 0.563596 9.58905e-21)
(0.842595 0.525771 0)
(0.809607 0.486914 -6.14188e-20)
(0.719342 0.417017 3.51822e-22)
(0.521531 0.296286 0)
(0.286211 0.159664 7.77954e-23)
(0.0957721 0.052032 7.68075e-20)
(-0.0209766 -0.0124393 -7.26286e-20)
(-0.0580171 -0.0322775 2.15067e-20)
(-0.0220725 -0.0121141 0)
(0.235071 0.146141 0)
(1.1099 0.674738 1.11983e-20)
(1.31292 0.804169 6.94995e-21)
(1.3378 0.834148 -5.2941e-22)
(1.29057 0.82164 -3.43389e-22)
(1.22126 0.794767 -1.17425e-20)
(1.14864 0.764372 8.9482e-21)
(1.07306 0.730118 -1.01573e-20)
(0.995331 0.689926 3.97356e-20)
(0.918095 0.641739 -8.74987e-20)
(0.855987 0.592026 -8.98998e-22)
(0.817724 0.550436 -2.68932e-20)
(0.783124 0.507418 9.99354e-20)
(0.692427 0.431742 -4.66776e-22)
(0.501408 0.305298 -4.7862e-20)
(0.276501 0.164519 -8.44922e-20)
(0.0937979 0.0534963 0)
(-0.018858 -0.0129274 0)
(-0.055407 -0.0333709 2.32603e-20)
(-0.0215176 -0.0126609 -1.38163e-20)
(0.234301 0.154655 9.00902e-21)
(1.09892 0.711736 -2.54067e-20)
(1.29983 0.84886 -7.45092e-21)
(1.32305 0.879462 0)
(1.27524 0.865361 -3.0798e-22)
(1.20566 0.836438 -9.85399e-21)
(1.13241 0.80392 2.10546e-20)
(1.05571 0.767366 3.94921e-20)
(0.976307 0.724542 5.1649e-20)
(0.896762 0.67306 -7.16685e-20)
(0.832294 0.619501 -8.06968e-20)
(0.792292 0.574045 7.21623e-20)
(0.756048 0.52664 0)
(0.665038 0.445137 -2.19717e-20)
(0.480689 0.313104 -5.17318e-20)
(0.265695 0.168522 -6.09372e-20)
(0.0910707 0.054833 -7.18377e-20)
(-0.0167921 -0.0128868 2.12774e-20)
(-0.0522823 -0.0337267 -1.25415e-20)
(-0.0206208 -0.0129149 7.142e-23)
(0.233782 0.163003 0)
(1.08868 0.746765 0)
(1.28665 0.890986 5.08445e-22)
(1.30816 0.922083 0)
(1.25986 0.906537 -1.61223e-21)
(1.19007 0.875803 5.93644e-21)
(1.11626 0.841427 0)
(1.03852 0.802876 4.59834e-21)
(0.957471 0.757767 8.637e-20)
(0.875521 0.703355 -1.65424e-19)
(0.808421 0.646148 0)
(0.766409 0.596699 -4.67744e-20)
(0.728468 0.544508 -5.5863e-22)
(0.637314 0.456878 -3.6401e-22)
(0.459256 0.319362 5.57747e-20)
(0.254111 0.17134 4.83103e-23)
(0.0876133 0.0557639 -1.5512e-19)
(-0.015068 -0.0126095 4.58422e-20)
(-0.0490759 -0.0336076 1.36091e-20)
(-0.0195404 -0.0129424 0)
(0.233494 0.171137 -3.61403e-20)
(1.07894 0.780112 -1.71495e-20)
(1.27347 0.930627 -2.2045e-20)
(1.29334 0.962111 2.10385e-20)
(1.24461 0.945246 -5.91318e-21)
(1.17467 0.912932 0)
(1.10038 0.876948 1.24454e-20)
(1.02168 0.836688 -1.04097e-20)
(0.939012 0.789638 8.02848e-22)
(0.854573 0.732694 1.22899e-20)
(0.784541 0.672101 1.05504e-19)
(0.740154 0.61853 -1.64581e-20)
(0.700334 0.560977 -6.22707e-20)
(0.609173 0.466613 -2.57644e-20)
(0.437318 0.323498 3.01895e-20)
(0.242166 0.172611 6.6724e-23)
(0.0838579 0.0560831 4.1869e-20)
(-0.0136846 -0.0122152 -9.88582e-20)
(-0.0461034 -0.0332035 1.17353e-19)
(-0.0184514 -0.0128518 1.73178e-20)
(0.23325 0.179039 1.3727e-20)
(1.0697 0.811844 -9.65265e-21)
(1.26048 0.967913 1.31265e-21)
(1.27874 0.999671 1.3604e-20)
(1.22965 0.981604 2.64542e-21)
(1.15962 0.947904 -9.77334e-21)
(1.08494 0.910543 3.33174e-21)
(1.00534 0.868834 -4.33917e-20)
(0.921099 0.82017 -9.5774e-20)
(0.834096 0.761116 -9.93349e-20)
(0.760829 0.697487 0)
(0.713578 0.63971 -7.28847e-20)
(0.671534 0.576079 9.02214e-20)
(0.580469 0.47394 0)
(0.415263 0.324772 -6.49452e-20)
(0.230627 0.171616 3.83927e-20)
(0.0808152 0.055484 -4.51375e-20)
(-0.0120933 -0.0115625 -5.33297e-20)
(-0.0437184 -0.032573 -9.47026e-20)
(-0.0176285 -0.012786 -7.47981e-20)
(0.233314 0.186804 -1.55604e-20)
(1.06084 0.841965 1.03419e-20)
(1.24774 1.00292 2.33024e-20)
(1.26448 1.03486 1.99891e-20)
(1.2151 1.01571 -4.72651e-21)
(1.14503 0.980809 -4.36365e-21)
(1.07002 0.942264 1.14315e-20)
(0.989608 0.899362 -4.451e-20)
(0.903851 0.849397 -5.70279e-20)
(0.814254 0.788659 1.04647e-19)
(0.737444 0.722415 2.34183e-19)
(0.686748 0.660452 0)
(0.641886 0.589949 0)
(0.55074 0.478539 -2.97622e-20)
(0.392951 0.3222 0)
(0.220376 0.166854 8.2567e-20)
(0.0810222 0.0528339 9.71416e-20)
(-0.00775359 -0.011231 0)
(-0.0412925 -0.0320695 0)
(-0.017618 -0.0131258 8.05634e-20)
(0.233214 0.194126 1.7706e-20)
(1.05237 0.87049 1.40012e-20)
(1.23536 1.03576 1.69527e-20)
(1.25064 1.06781 -1.93386e-20)
(1.20104 1.04767 -6.48977e-21)
(1.13098 1.01173 3.08178e-21)
(1.05573 0.972175 -1.56195e-20)
(0.974581 0.928302 -2.24461e-22)
(0.887381 0.877328 -1.0589e-21)
(0.795184 0.815337 -7.17815e-22)
(0.714563 0.746977 1.21208e-19)
(0.659753 0.680968 0)
(0.611214 0.602877 9.25165e-20)
(0.519342 0.480405 6.40849e-20)
(0.369422 0.314921 1.52542e-19)
(0.211279 0.155576 4.46855e-20)
(0.0869929 0.0429073 -5.23741e-20)
(0.00717664 -0.0181962 -3.08846e-20)
(-0.0290359 -0.0343539 0)
(-0.0165484 -0.0136661 8.68982e-20)
(0.233506 0.201489 -4.00999e-20)
(1.04427 0.897528 0)
(1.22332 1.06649 2.00126e-20)
(1.23724 1.0986 -1.6434e-20)
(1.18754 1.07759 9.16378e-21)
(1.11751 1.04074 -7.60047e-22)
(1.04211 1.00033 2.93357e-20)
(0.960319 0.955688 -3.64936e-21)
(0.871757 0.903975 0)
(0.777001 0.841127 -1.16542e-19)
(0.692366 0.771228 -2.65415e-19)
(0.632729 0.701479 1.09498e-20)
(0.579451 0.615259 1.2909e-19)
(0.485636 0.480025 0)
(0.34282 0.302866 1.03615e-19)
(0.199944 0.134806 0)
(0.0960932 0.0141639 0)
(0.0407326 -0.0538025 -3.34118e-20)
(0.0282419 -0.0524752 0)
(0.0198673 -0.00106353 2.33686e-20)
(0.233434 0.208321 -4.48325e-20)
(1.0365 0.923376 0)
(1.21163 1.09532 3.34603e-20)
(1.22427 1.1275 0)
(1.17456 1.10574 -5.68897e-21)
(1.10459 1.06814 0)
(1.02912 1.02704 1.2309e-21)
(0.946728 0.981853 6.21107e-21)
(0.856864 0.929692 7.27677e-21)
(0.759537 0.866392 -1.28496e-19)
(0.670656 0.795613 7.98435e-21)
(0.60535 0.72268 8.88994e-20)
(0.545991 0.627949 1.26674e-19)
(0.448378 0.478156 1.6994e-20)
(0.310468 0.287344 8.18166e-20)
(0.179147 0.1049 0)
(0.0911111 -0.036751 1.10611e-19)
(0.0539308 -0.0842083 -6.49407e-20)
(0.0254102 0.0393956 7.59934e-20)
(-0.0388521 0.460352 -9.02814e-20)
(0.233365 0.214997 3.71733e-20)
(1.02884 0.947871 5.60488e-20)
(1.20021 1.12258 0)
(1.21157 1.15493 1.00424e-21)
(1.1619 1.13269 1.70692e-20)
(1.09192 1.09461 -6.26691e-21)
(1.01642 1.05309 9.55584e-21)
(0.933384 1.00772 0)
(0.84215 0.955557 4.77865e-20)
(0.742086 0.892413 -6.66275e-21)
(0.648466 0.821585 0)
(0.576186 0.746179 0)
(0.508459 0.642052 1.14435e-19)
(0.404518 0.475025 -5.27182e-20)
(0.268743 0.270077 -8.3692e-20)
(0.143154 0.0688517 0)
(0.055292 -0.00687649 5.64337e-20)
(0.00345246 0.45446 -6.53575e-20)
(0.0286348 1.94067 -3.66567e-20)
(0.0548363 2.83145 -4.50491e-20)
(0.233028 0.221162 -2.80036e-20)
(1.02134 0.971192 -7.21035e-20)
(1.18907 1.14827 1.99453e-20)
(1.19914 1.18078 1.62148e-20)
(1.14963 1.15826 0)
(1.07962 1.11988 -6.55098e-21)
(1.00423 1.07817 1.1994e-20)
(0.920495 1.03288 -2.97892e-21)
(0.827918 0.981065 7.2164e-21)
(0.725073 0.918612 1.23131e-19)
(0.62647 0.84856 1.36348e-19)
(0.546269 0.771977 1.01389e-19)
(0.467585 0.65813 1.16257e-19)
(0.354866 0.470281 -1.25474e-19)
(0.222737 0.255449 -1.27649e-19)
(0.0962342 0.129606 0)
(0.0352557 0.90836 0)
(0.0812739 2.59278 3.13991e-20)
(0.0844464 3.21746 0)
(0.086359 3.39114 8.17627e-20)
(0.235513 0.226974 0)
(1.01435 0.993737 0)
(1.17791 1.17225 0)
(1.18681 1.2049 4.93178e-21)
(1.13741 1.18219 1.56792e-20)
(1.06749 1.1438 -7.37757e-21)
(0.992498 1.10219 7.33755e-21)
(0.907997 1.05718 -2.88858e-21)
(0.814108 1.00604 5.96786e-20)
(0.708495 0.944825 -1.60393e-21)
(0.604778 0.876342 2.71136e-19)
(0.515986 0.800204 -1.18098e-20)
(0.423273 0.677378 1.42559e-20)
(0.300898 0.462543 1.8329e-20)
(0.165001 0.272822 -7.44957e-22)
(0.0818136 1.02817 3.48119e-22)
(0.116359 2.77563 -1.68996e-19)
(0.120838 3.30258 -6.35315e-20)
(0.112867 3.42307 3.34387e-20)
(0.103598 3.44255 -3.77956e-20)
(0.158678 0.172546 1.71337e-20)
(1.00306 1.01826 0)
(1.16652 1.19472 -4.09633e-20)
(1.17499 1.22775 -4.43828e-20)
(1.12569 1.20497 3.72394e-20)
(1.05623 1.16685 8.73753e-21)
(0.980992 1.12517 -7.06157e-21)
(0.895918 1.08069 3.06918e-20)
(0.800799 1.03056 -4.895e-20)
(0.692589 0.971168 0)
(0.58372 0.905016 1.34346e-19)
(0.485896 0.830692 -8.36383e-20)
(0.379443 0.707199 0)
(0.238789 0.457301 1.7972e-20)
(0.118291 0.719589 4.22259e-20)
(0.130995 2.58522 -4.73901e-20)
(0.177273 3.32709 5.36351e-20)
(0.161538 3.43123 2.88004e-20)
(0.134792 3.45012 3.25416e-20)
(0.116494 3.45903 5.17671e-20)
(0.26993 0.264302 -3.30504e-20)
(0.984791 1.02786 0)
(1.1476 1.22038 4.42124e-20)
(1.15976 1.2589 4.8896e-20)
(1.10768 1.23856 -4.18941e-20)
(1.03763 1.20078 -1.3582e-20)
(0.961174 1.16065 3.64722e-21)
(0.875429 1.11742 2.45534e-21)
(0.778642 1.0695 4.63253e-20)
(0.666969 1.0142 1.0728e-19)
(0.551251 0.954223 7.54339e-21)
(0.439099 0.881285 7.51402e-20)
(0.296316 0.732543 1.36774e-20)
(0.197619 0.874953 -1.73986e-20)
(0.203902 2.46787 -3.87682e-20)
(0.254951 3.32921 3.79542e-20)
(0.23776 3.45407 -4.14959e-20)
(0.204276 3.47342 -2.3799e-20)
(0.171537 3.49825 -2.14347e-20)
(0.126879 3.494 -3.10437e-21)
(0.259945 0.26308 0)
(0.981498 1.05051 1.28645e-20)
(1.13845 1.24391 -9.10545e-21)
(1.14829 1.28249 -5.83003e-21)
(1.09618 1.26189 -2.89475e-20)
(1.0261 1.22428 1.41662e-20)
(0.949272 1.18434 -7.49933e-22)
(0.863173 1.14195 2.16326e-21)
(0.765558 1.09554 -4.81033e-20)
(0.651995 1.04322 -2.66507e-21)
(0.532247 0.988152 -2.4434e-19)
(0.41209 0.917244 1.08109e-20)
(0.274774 0.806123 -1.29959e-20)
(0.233568 1.53078 -1.60285e-20)
(0.297612 3.14461 3.66378e-21)
(0.309413 3.45468 1.3245e-22)
(0.26865 3.5017 6.15665e-20)
(0.235308 3.5262 3.10577e-20)
(0.18996 3.54673 -9.8311e-21)
(0.14051 3.54399 -1.54087e-20)
(0.245891 0.26098 3.2919e-20)
(0.977268 1.07567 8.71682e-20)
(1.12895 1.26953 -2.59493e-20)
(1.13643 1.30771 -2.18953e-20)
(1.08421 1.28668 0)
(1.01418 1.2491 2.60714e-20)
(0.937263 1.20943 1.9746e-21)
(0.851071 1.16783 1.84541e-21)
(0.752948 1.12308 -5.42336e-21)
(0.638063 1.07409 -9.70309e-20)
(0.515283 1.02461 -1.12877e-19)
(0.388228 0.954587 -8.8486e-20)
(0.276579 0.957909 -9.80047e-20)
(0.300464 2.32285 1.00962e-19)
(0.379456 3.3829 8.48513e-20)
(0.349538 3.50944 0)
(0.302334 3.54769 0)
(0.266051 3.58205 -7.80582e-21)
(0.223154 3.62705 0)
(0.153944 3.61296 -1.18629e-20)
(0.236014 0.262796 -4.90587e-20)
(0.971107 1.10167 -7.37894e-20)
(1.11804 1.29638 0)
(1.12331 1.33376 1.22149e-21)
(1.07097 1.31214 -3.13953e-20)
(1.00116 1.2745 4.25648e-20)
(0.924488 1.23513 3.03497e-21)
(0.838435 1.19429 7.95635e-22)
(0.740071 1.15118 -3.32203e-20)
(0.624329 1.10559 4.7681e-21)
(0.499518 1.06182 0)
(0.366521 0.995479 0)
(0.298535 1.26174 -8.90075e-20)
(0.381447 2.97995 3.61683e-20)