/*--------------------------------*- C++ -*----------------------------------*\
  =========                 |
  \\      /  F ield         | OpenFOAM: The Open Source CFD Toolbox
   \\    /   O peration     | Website:  https://openfoam.org
    \\  /    A nd           | Version:  6
     \\/     M anipulation  |
\*---------------------------------------------------------------------------*/
FoamFile
{
    version     2.0;
    format      ascii;
    class       volVectorField;
    location    "43.9";
    object      U;
}
// * * * * * * * * * * * * * * * * * * * * * * * * * * * * * * * * * * * * * //

dimensions      [0 1 -1 0 0 0 0];

internalField   nonuniform List<vector> 
8800
(
(0.987187 -0.0766665 0)
(1.0019 -0.0551913 0)
(0.999745 -0.0285494 0)
(1.00004 -0.0151416 0)
(1.00007 -0.00853828 0)
(1.00006 -0.00503911 0)
(1.00004 -0.00300428 0)
(1.00002 -0.00171378 0)
(0.999996 -0.000814057 0)
(1.00005 -0.000102815 0)
(0.999987 0.000621046 0)
(0.999995 0.00138174 0)
(1.00001 0.0024042 0)
(1.00002 0.00398579 0)
(1.00003 0.00662702 0)
(1 0.0113673 0)
(0.99989 0.0208116 0)
(0.999145 0.0386695 0)
(1.00709 0.0724561 0)
(0.771212 0.0366607 0)
(0.363048 -0.0160196 0)
(1.04329 -0.0768285 0)
(1.0846 -0.0704691 0)
(1.0452 -0.05357 0)
(1.02327 -0.038923 0)
(1.01196 -0.0262466 0)
(1.00636 -0.0168983 0)
(1.00356 -0.0103858 0)
(1.00214 -0.00574104 0)
(1.00145 -0.00209666 0)
(1.00132 0.00121753 0)
(1.00168 0.00459451 0)
(1.00265 0.0085259 0)
(1.00463 0.0138747 0)
(1.00858 0.0216037 0)
(1.01655 0.0325898 0)
(1.03246 0.0465098 0)
(1.06262 0.0616332 0)
(1.09188 0.0760823 0)
(0.838698 0.0565541 0)
(0.216785 -0.00243254 0)
(1.07585 -0.0501701 0)
(1.09986 -0.0483618 0)
(1.06461 -0.0405251 0)
(1.03997 -0.0336761 0)
(1.02382 -0.0261738 0)
(1.01404 -0.0186201 0)
(1.00852 -0.0118136 0)
(1.00557 -0.00595231 0)
(1.00432 -0.000553314 0)
(1.00468 0.00467921 0)
(1.00661 0.0100702 0)
(1.0106 0.0161817 0)
(1.01792 0.0232372 0)
(1.03053 0.0307289 0)
(1.05062 0.0377733 0)
(1.08033 0.0444662 0)
(1.10626 0.0512952 0)
(0.942605 0.0415921 0)
(0.216221 0.00245872 0)
(0.175072 -0.000819651 0)
(1.01756 -0.0355332 0)
(1.10513 -0.0414579 0)
(1.07818 -0.036157 0)
(1.05335 -0.0302353 0)
(1.03607 -0.0246794 0)
(1.02389 -0.0189866 0)
(1.01581 -0.0129403 0)
(1.01098 -0.00677962 0)
(1.00881 -0.000460699 0)
(1.0094 0.00578987 0)
(1.01267 0.0117845 0)
(1.01888 0.017634 0)
(1.02877 0.023245 0)
(1.04323 0.0285823 0)
(1.06376 0.0340952 0)
(1.09357 0.0400993 0)
(1.09348 0.041887 0)
(0.827352 0.0228804 0)
(0.174121 0.00084923 0)
(0.153822 -0.000613863 0)
(0.955911 -0.025519 0)
(1.10332 -0.0352343 0)
(1.08755 -0.0327842 0)
(1.06155 -0.0281533 0)
(1.04392 -0.0231673 0)
(1.03148 -0.0179658 0)
(1.02269 -0.0124632 0)
(1.01692 -0.00654999 0)
(1.01412 -0.000114276 0)
(1.01483 0.00632327 0)
(1.01883 0.0122108 0)
(1.02583 0.0175466 0)
(1.03614 0.0225117 0)
(1.05074 0.0273012 0)
(1.07199 0.0318688 0)
(1.10016 0.0358315 0)
(1.06826 0.0339271 0)
(0.739922 0.01427 0)
(0.152395 0.000647205 0)
(0.139394 -0.000470559 0)
(0.898826 -0.0191501 0)
(1.09552 -0.0302125 0)
(1.09553 -0.0293603 0)
(1.06899 -0.0256632 0)
(1.05054 -0.0215652 0)
(1.03767 -0.0168432 0)
(1.02862 -0.011611 0)
(1.02256 -0.00591616 0)
(1.01949 0.000388287 0)
(1.02017 0.00670262 0)
(1.0243 0.0123336 0)
(1.03144 0.0173186 0)
(1.04198 0.0218338 0)
(1.05714 0.0258503 0)
(1.07936 0.0293558 0)
(1.10243 0.0320175 0)
(1.03633 0.0279777 0)
(0.673591 0.0101554 0)
(0.137384 0.000508842 0)
(0.128789 -0.000365648 0)
(0.849013 -0.0148012 0)
(1.083 -0.026114 0)
(1.10113 -0.0264569 0)
(1.07577 -0.0232054 0)
(1.05679 -0.0196093 0)
(1.04345 -0.015429 0)
(1.03405 -0.01057 0)
(1.02778 -0.00509464 0)
(1.02456 0.00100251 0)
(1.02512 0.00707063 0)
(1.02921 0.012426 0)
(1.03646 0.0170185 0)
(1.04729 0.0209371 0)
(1.0629 0.024289 0)
(1.08557 0.0273022 0)
(1.10166 0.029118 0)
(1.00167 0.0234226 0)
(0.622057 0.00777798 0)
(0.126072 0.000410795 0)
(0.120675 -0.000285321 0)
(0.806613 -0.0116527 0)
(1.06752 -0.02253 0)
(1.10452 -0.0238766 0)
(1.0819 -0.0210759 0)
(1.06252 -0.0177196 0)
(1.04893 -0.0138441 0)
(1.03926 -0.00932352 0)
(1.0327 -0.00413577 0)
(1.02922 0.00173573 0)
(1.02966 0.00756241 0)
(1.03376 0.0125693 0)
(1.0411 0.0167071 0)
(1.05205 0.020143 0)
(1.06786 0.0230826 0)
(1.09088 0.0257855 0)
(1.098 0.026704 0)
(0.966745 0.0198254 0)
(0.580786 0.00622472 0)
(0.117099 0.000339105 0)
(0.114366 -0.000222474 0)
(0.770859 -0.00929994 0)
(1.05053 -0.0193783 0)
(1.10675 -0.0214678 0)
(1.08763 -0.0190203 0)
(1.06787 -0.0158051 0)
(1.05404 -0.012131 0)
(1.04419 -0.00787883 0)
(1.03741 -0.00296975 0)
(1.03371 0.0026302 0)
(1.03395 0.00814302 0)
(1.03794 0.0127626 0)
(1.04523 0.0164523 0)
(1.05621 0.0194778 0)
(1.07225 0.0220981 0)
(1.09497 0.0245081 0)
(1.09162 0.0246582 0)
(0.932906 0.0170239 0)
(0.546788 0.00515393 0)
(0.109744 0.000286827 0)
(0.109424 -0.000171907 0)
(0.740813 -0.00747109 0)
(1.03305 -0.0165808 0)
(1.10802 -0.019229 0)
(1.09307 -0.0171323 0)
(1.07301 -0.0140376 0)
(1.05892 -0.0104478 0)
(1.04888 -0.00629958 0)
(1.04191 -0.0015843 0)
(1.03794 0.00370738 0)
(1.03795 0.00884236 0)
(1.04175 0.0130854 0)
(1.04892 0.0164642 0)
(1.05991 0.0192122 0)
(1.07618 0.0215348 0)
(1.09784 0.0235468 0)
(1.0829 0.0229486 0)
(0.900738 0.0148623 0)
(0.518043 0.00439631 0)
(0.103532 0.000249719 0)
(0.10557 -0.000130005 0)
(0.715671 -0.00599484 0)
(1.01594 -0.0140618 0)
(1.10836 -0.0170236 0)
(1.09832 -0.0152175 0)
(1.07804 -0.0121519 0)
(1.06369 -0.00864005 0)
(1.05344 -0.00462675 0)
(1.04622 -8.5801e-05 0)
(1.04198 0.00499682 0)
(1.04166 0.0098574 0)
(1.04522 0.0137266 0)
(1.05224 0.0166959 0)
(1.06322 0.0190696 0)
(1.07964 0.0211324 0)
(1.09936 0.022785 0)
(1.07223 0.0215088 0)
(0.870423 0.0132133 0)
(0.493144 0.00385664 0)
(0.0981326 0.000223866 0)
(0.102616 -9.38128e-05 0)
(0.694796 -0.00475545 0)
(0.999829 -0.0117692 0)
(1.10806 -0.0148832 0)
(1.10344 -0.0132729 0)
(1.08303 -0.0101869 0)
(1.06835 -0.006688 0)
(1.05787 -0.00272068 0)
(1.05042 0.00171964 0)
(1.04584 0.00656294 0)
(1.04514 0.011066 0)
(1.04835 0.014598 0)
(1.05515 0.0172531 0)
(1.06609 0.0193157 0)
(1.08271 0.0210916 0)
(1.10001 0.0223268 0)
(1.06 0.0204018 0)
(0.841855 0.0119939 0)
(0.471044 0.00348384 0)
(0.0932941 0.000207755 0)
(0.10044 -6.02215e-05 0)
(0.677732 -0.00365817 0)
(0.985129 -0.0095989 0)
(1.10716 -0.0126755 0)
(1.10827 -0.0112614 0)
(1.08805 -0.00818643 0)
(1.07305 -0.00462068 0)
(1.06226 -0.000607814 0)
(1.05442 0.00376977 0)
(1.04938 0.0084504 0)
(1.04823 0.0126821 0)
(1.05109 0.0158369 0)
(1.05768 0.0181296 0)
(1.06859 0.0198839 0)
(1.08528 0.021385 0)
(1.09963 0.0222446 0)
(1.04637 0.0195835 0)
(0.814778 0.0111206 0)
(0.450946 0.0032368 0)
(0.088822 0.000199111 0)
(0.0989821 -2.7525e-05 0)
(0.664183 -0.00263712 0)
(0.972259 -0.00749763 0)
(1.10608 -0.0103232 0)
(1.11297 -0.00894043 0)
(1.09315 -0.0057975 0)
(1.07778 -0.00218492 0)
(1.06661 0.0018358 0)
(1.05835 0.00619028 0)
(1.0528 0.0107455 0)
(1.05107 0.0147129 0)
(1.05346 0.0175355 0)
(1.05977 0.0194206 0)
(1.0706 0.0207408 0)
(1.08731 0.0219282 0)
(1.09813 0.0223868 0)
(1.03152 0.0190325 0)
(0.788892 0.0105307 0)
(0.432226 0.00308686 0)
(0.0845701 0.000195949 0)
(0.098225 6.08942e-06 0)
(0.653996 -0.00164079 0)
(0.961501 -0.00539388 0)
(1.10515 -0.00783326 0)
(1.11776 -0.00643958 0)
(1.09841 -0.00318642 0)
(1.0826 0.000590216 0)
(1.07101 0.00474163 0)
(1.06223 0.00913533 0)
(1.05599 0.0135421 0)
(1.05359 0.0171798 0)
(1.05545 0.0195889 0)
(1.06139 0.0210795 0)
(1.07216 0.0220413 0)
(1.08889 0.0229046 0)
(1.0955 0.0228917 0)
(1.01553 0.018804 0)
(0.76382 0.0102011 0)
(0.414369 0.00302548 0)
(0.0804089 0.000199119 0)
(0.0981978 3.90737e-05 0)
(0.647189 -0.000621815 0)
(0.953185 -0.00320097 0)
(1.10461 -0.00507226 0)
(1.12264 -0.00359534 0)
(1.10394 -0.000227684 0)
(1.08769 0.00378242 0)
(1.0756 0.00813533 0)
(1.06617 0.0126055 0)
(1.05915 0.0169516 0)
(1.0559 0.0203303 0)
(1.05707 0.0223224 0)
(1.06259 0.0233444 0)
(1.0732 0.0238598 0)
(1.08965 0.0242965 0)
(1.09148 0.0237362 0)
(0.998316 0.01886 0)
(0.739203 0.0100996 0)
(0.396934 0.00303925 0)
(0.0762291 0.000206865 0)
(0.0989503 8.23297e-05 0)
(0.643922 0.000449287 0)
(0.947701 -0.00084448 0)
(1.10493 -0.00196138 0)
(1.12785 -0.000204624 0)
(1.10979 0.00341188 0)
(1.09305 0.00766753 0)
(1.08028 0.0122153 0)
(1.07006 0.0168171 0)
(1.06206 0.0211105 0)
(1.05777 0.0241628 0)
(1.05813 0.0256896 0)
(1.06315 0.0261854 0)
(1.07363 0.0261701 0)
(1.08948 0.0261651 0)
(1.08597 0.0249421 0)
(0.979877 0.0192644 0)
(0.714627 0.0102311 0)
(0.379496 0.00312905 0)
(0.0719246 0.000219651 0)
(0.10067 0.000140528 0)
(0.6445 0.00162174 0)
(0.945377 0.00172116 0)
(1.10655 0.00153745 0)
(1.13366 0.00369322 0)
(1.11606 0.00765642 0)
(1.0987 0.0122663 0)
(1.0852 0.0171408 0)
(1.07401 0.0219485 0)
(1.06477 0.0261866 0)
(1.05924 0.0289126 0)
(1.05864 0.0298913 0)
(1.06304 0.0297897 0)
(1.07331 0.0292039 0)
(1.08826 0.0286439 0)
(1.07882 0.0266341 0)
(0.959954 0.0200318 0)
(0.689631 0.0105916 0)
(0.361641 0.00329215 0)
(0.0673917 0.000237273 0)
(0.103417 0.000199225 0)
(0.64936 0.003066 0)
(0.946678 0.00471575 0)
(1.10985 0.00563844 0)
(1.14014 0.00822555 0)
(1.12295 0.0125982 0)
(1.10494 0.0177355 0)
(1.09052 0.0230957 0)
(1.07811 0.0281807 0)
(1.06736 0.0323969 0)
(1.06033 0.0347288 0)
(1.05857 0.0350926 0)
(1.0622 0.0343267 0)
(1.07216 0.0331244 0)
(1.08573 0.0318745 0)
(1.06975 0.0288306 0)
(0.938311 0.0211865 0)
(0.663762 0.0111951 0)
(0.342965 0.00352971 0)
(0.0625349 0.000259102 0)
(0.107505 0.000282467 0)
(0.659027 0.00477659 0)
(0.951968 0.00813327 0)
(1.11532 0.0104869 0)
(1.14752 0.0137903 0)
(1.13064 0.0188094 0)
(1.11187 0.0245331 0)
(1.09628 0.0303583 0)
(1.0824 0.0357644 0)
(1.06985 0.0399763 0)
(1.06093 0.0418565 0)
(1.05774 0.041494 0)
(1.06046 0.0399139 0)
(1.07002 0.0379533 0)
(1.08171 0.035944 0)
(1.05848 0.0316936 0)
(0.914609 0.0228645 0)
(0.636425 0.0120826 0)
(0.323005 0.00385023 0)
(0.0572521 0.000285667 0)
(0.113265 0.000392279 0)
(0.67412 0.00688149 0)
(0.962153 0.0122845 0)
(1.12368 0.0162007 0)
(1.15636 0.0204691 0)
(1.13931 0.026394 0)
(1.11948 0.0328575 0)
(1.10243 0.0393314 0)
(1.08663 0.0451305 0)
(1.07178 0.0492283 0)
(1.06073 0.0504472 0)
(1.05595 0.049188 0)
(1.05754 0.0466866 0)
(1.06667 0.0438696 0)
(1.07617 0.0409926 0)
(1.04469 0.0353741 0)
(0.888287 0.025092 0)
(0.606955 0.0132547 0)
(0.301292 0.00424242 0)
(0.0514556 0.000314131 0)
(0.121187 0.000546374 0)
(0.69564 0.00962139 0)
(0.977879 0.0174234 0)
(1.1354 0.0231497 0)
(1.16706 0.0285516 0)
(1.14938 0.0356061 0)
(1.12821 0.0430705 0)
(1.10936 0.0503603 0)
(1.09128 0.0565792 0)
(1.07373 0.0605179 0)
(1.06005 0.0609457 0)
(1.05324 0.0585614 0)
(1.05349 0.05499 0)
(1.06197 0.0512243 0)
(1.06883 0.047334 0)
(1.02786 0.0400021 0)
(0.858746 0.0279904 0)
(0.574578 0.0147527 0)
(0.277339 0.00470192 0)
(0.045098 0.000341853 0)
(0.13204 0.00077249 0)
(0.724903 0.013336 0)
(1.00026 0.0239799 0)
(1.15117 0.0318671 0)
(1.1801 0.0387655 0)
(1.16117 0.0473295 0)
(1.13816 0.056 0)
(1.11678 0.0641619 0)
(1.09565 0.0706854 0)
(1.07477 0.0742246 0)
(1.05814 0.0735429 0)
(1.04922 0.0698118 0)
(1.04805 0.0650156 0)
(1.0557 0.0601122 0)
(1.0593 0.0549579 0)
(1.00741 0.0458112 0)
(0.825183 0.031721 0)
(0.538325 0.0166227 0)
(0.250602 0.00522286 0)
(0.0381596 0.000367167 0)
(0.147045 0.00112382 0)
(0.763718 0.0186541 0)
(1.03086 0.0327104 0)
(1.17208 0.043246 0)
(1.1964 0.0522274 0)
(1.17505 0.0627078 0)
(1.14941 0.0726847 0)
(1.12473 0.0815874 0)
(1.09991 0.0881026 0)
(1.07516 0.0907127 0)
(1.05516 0.0884601 0)
(1.04383 0.0830959 0)
(1.0412 0.0768469 0)
(1.04776 0.0706463 0)
(1.04707 0.0642346 0)
(0.982688 0.0529873 0)
(0.7866 0.0363445 0)
(0.497124 0.0188286 0)
(0.220621 0.00576886 0)
(0.0306591 0.000387061 0)
(0.168292 0.00172971 0)
(0.815054 0.0266918 0)
(1.07226 0.0451123 0)
(1.19925 0.0590249 0)
(1.21675 0.0708277 0)
(1.1912 0.0831258 0)
(1.16171 0.0942454 0)
(1.13274 0.103454 0)
(1.10341 0.109344 0)
(1.07421 0.110401 0)
(1.05062 0.106021 0)
(1.03679 0.0986023 0)
(1.03265 0.0907139 0)
(1.03797 0.0832729 0)
(1.0318 0.0753162 0)
(0.95277 0.0615379 0)
(0.741879 0.0417723 0)
(0.450106 0.0212136 0)
(0.187332 0.00626526 0)
(0.0227204 0.000395726 0)
(0.199045 0.00306669 0)
(0.88445 0.040108 0)
(1.12754 0.0650072 0)
(1.23293 0.082786 0)
(1.2408 0.0973282 0)
(1.20897 0.110884 0)
(1.17426 0.122307 0)
(1.14002 0.130772 0)
(1.10555 0.135007 0)
(1.07157 0.133595 0)
(1.04423 0.126377 0)
(1.02792 0.116475 0)
(1.02222 0.106689 0)
(1.02593 0.0978348 0)
(1.01284 0.0880643 0)
(0.916518 0.0712032 0)
(0.689953 0.0475564 0)
(0.397407 0.0235178 0)
(0.151771 0.00663247 0)
(0.0147381 0.000383135 0)
(0.24101 0.00919219 9.78298e-21)
(0.975815 0.0668095 8.37617e-21)
(1.19433 0.0989865 -2.91563e-21)
(1.27009 0.118328 0)
(1.26572 0.135536 -7.33946e-35)
(1.22636 0.148583 1.07104e-21)
(1.18568 0.158578 -1.92367e-21)
(1.14562 0.164915 0)
(1.10562 0.16646 3.93462e-35)
(1.06647 0.161785 -2.36724e-21)
(1.035 0.151223 0)
(1.01587 0.138684 -2.80394e-21)
(1.00836 0.12699 -8.26778e-21)
(1.01003 0.116823 -3.90744e-21)
(0.987985 0.105388 -1.17699e-21)
(0.869709 0.0844164 -6.99718e-22)
(0.625116 0.0549416 0)
(0.336492 0.0263367 4.91444e-22)
(0.114721 0.00752005 5.82237e-22)
(0.00716043 0.000476894 1.0606e-20)
(0.269931 0.0242193 7.23137e-21)
(1.05125 0.109093 1.0591e-22)
(1.24898 0.147598 7.81698e-22)
(1.30375 0.166886 0)
(1.28758 0.184316 -3.74584e-21)
(1.24122 0.195339 -4.24366e-21)
(1.19453 0.203148 -1.94603e-21)
(1.14844 0.207103 -6.9113e-21)
(1.10245 0.205873 0)
(1.05737 0.197853 1.00926e-20)
(1.0208 0.183888 9.99909e-21)
(0.998152 0.168662 2.97298e-21)
(0.988323 0.155048 1.0822e-20)
(0.985367 0.142914 1.519e-20)
(0.950266 0.127926 0)
(0.807494 0.101412 2.14856e-20)
(0.549391 0.0644773 3.09087e-20)
(0.273626 0.0301857 3.44282e-20)
(0.0803325 0.00831945 -3.95207e-20)
(0.00037245 0.000126754 -7.51179e-22)
(0.271261 0.0406955 0)
(1.0991 0.163928 1.26652e-21)
(1.28607 0.207144 0)
(1.33007 0.226433 -4.92888e-21)
(1.30474 0.241054 0)
(1.25244 0.248346 -8.37084e-21)
(1.20004 0.252571 3.98865e-21)
(1.14816 0.253046 -1.39535e-20)
(1.09643 0.248321 -3.15323e-22)
(1.04575 0.236782 5.24102e-21)
(1.0044 0.219698 2.20566e-20)
(0.97819 0.202109 -5.89004e-23)
(0.965561 0.1865 -7.88306e-21)
(0.957718 0.171702 -1.43831e-20)
(0.914741 0.152686 1.70596e-20)
(0.762717 0.120179 -3.02868e-20)
(0.508081 0.0758439 -4.02159e-21)
(0.248802 0.0355677 0)
(0.0709107 0.00978533 -4.91888e-25)
(-0.00129798 -0.000185978 0)
(0.265012 0.0546579 1.69628e-20)
(1.12497 0.222496 -8.17237e-21)
(1.3093 0.271461 -6.1929e-21)
(1.3475 0.291323 2.33603e-21)
(1.31577 0.30211 -3.92209e-21)
(1.25891 0.305049 1.75889e-20)
(1.20176 0.304992 8.35161e-21)
(1.14488 0.301416 0)
(1.08808 0.292813 -2.63601e-20)
(1.03231 0.277468 0)
(0.986457 0.256766 -1.16136e-20)
(0.956645 0.236175 -1.43262e-20)
(0.940725 0.218281 -8.61501e-21)
(0.92905 0.201699 -1.04781e-20)
(0.882098 0.179812 0)
(0.731342 0.141736 0)
(0.489365 0.0909555 -2.63611e-20)
(0.247346 0.0449863 5.22584e-21)
(0.0749236 0.0132351 -3.0599e-21)
(-0.000286831 -0.000120431 -3.62463e-21)
(0.257792 0.0670385 -6.84133e-21)
(1.13647 0.281066 0)
(1.32229 0.336923 1.26937e-20)
(1.35699 0.35756 6.59444e-21)
(1.32073 0.364543 9.07971e-21)
(1.26048 0.36312 0)
(1.19962 0.35873 8.19426e-21)
(1.13866 0.351045 1.55125e-20)
(1.07752 0.338442 1.35306e-20)
(1.0171 0.3189 2.4809e-20)
(0.966852 0.294117 0)
(0.933635 0.270464 -3.09779e-20)
(0.915154 0.250815 -1.86685e-20)
(0.901089 0.233364 -1.10395e-20)
(0.851552 0.208886 6.79866e-20)
(0.707182 0.165987 8.13911e-21)
(0.482369 0.109711 3.84035e-20)
(0.255262 0.0573851 -1.8212e-19)
(0.0854679 0.019027 1.08019e-19)
(0.00279332 0.000595909 -1.31851e-19)
(0.251046 0.0782483 -3.30757e-21)
(1.13898 0.337791 1.2308e-21)
(1.3278 0.401647 -1.37042e-21)
(1.3601 0.423305 -6.69344e-21)
(1.32054 0.426709 -7.67879e-21)
(1.25773 0.421101 3.57729e-22)
(1.19398 0.412627 -8.88699e-21)
(1.12971 0.401019 1.60734e-20)
(1.0648 0.384447 -2.91593e-20)
(1.00012 0.360662 0)
(0.945843 0.332164 -1.40428e-20)
(0.90966 0.306356 -3.24689e-22)
(0.889151 0.285731 -2.04518e-20)
(0.872646 0.266905 0)
(0.821248 0.238679 -1.47522e-20)
(0.685915 0.191584 -3.52329e-20)
(0.479311 0.13052 9.46287e-20)
(0.265503 0.072073 -9.32991e-20)
(0.0974973 0.0265282 1.32775e-19)
(0.00650909 0.00181943 -1.39731e-19)
(0.245541 0.0886999 -1.04948e-22)
(1.13597 0.392021 -4.14759e-22)
(1.3279 0.464609 -3.7446e-21)
(1.35821 0.487485 2.6741e-21)
(1.31621 0.487666 -3.86257e-21)
(1.25151 0.478188 0)
(1.18548 0.465965 -8.27833e-21)
(1.11844 0.450662 -1.6839e-20)
(1.05019 0.43023 -1.51653e-20)
(0.981748 0.402469 0)
(0.924074 0.370997 -1.45849e-20)
(0.885335 0.343587 -1.80695e-20)
(0.8626 0.321766 2.22035e-20)
(0.842819 0.300342 -1.35098e-20)
(0.790108 0.268174 -6.4464e-20)
(0.665412 0.217635 3.85956e-20)
(0.475418 0.152656 1.15947e-20)
(0.273714 0.0877722 0)
(0.107881 0.0348653 -1.28538e-19)
(0.00996925 0.00332209 -4.77472e-21)
(0.241364 0.098714 2.0243e-22)
(1.1297 0.443597 -1.31743e-22)
(1.3241 0.525288 1.72456e-21)
(1.35252 0.549452 9.5437e-21)
(1.30867 0.546807 -1.41962e-20)
(1.2426 0.533866 1.67579e-20)
(1.17476 0.518239 1.78186e-20)
(1.10531 0.499442 -2.69026e-20)
(1.03412 0.475318 9.35984e-21)
(0.962437 0.443936 -6.10937e-20)
(0.901946 0.409838 -1.64983e-20)
(0.860879 0.380503 0)
(0.835454 0.356347 2.40777e-20)
(0.812099 0.331476 2.88775e-20)
(0.759191 0.295948 3.46598e-20)
(0.644324 0.243121 -4.1894e-20)
(0.468613 0.174538 -1.24454e-20)
(0.277261 0.1033 1.46572e-20)
(0.114571 0.0429645 0)
(0.0124673 0.00479337 -1.03575e-20)
(0.238351 0.108384 -6.97812e-21)
(1.12178 0.492549 2.96307e-21)
(1.31775 0.58394 -1.47272e-21)
(1.34405 0.608858 5.71157e-21)
(1.29871 0.603737 -6.3447e-21)
(1.23167 0.587732 -8.22117e-22)
(1.16235 0.569031 -1.94516e-20)
(1.09078 0.546941 -9.72985e-21)
(1.01701 0.519338 -2.63469e-20)
(0.942541 0.48463 5.07025e-23)
(0.879551 0.447716 -5.16195e-20)
(0.836178 0.415623 4.35717e-20)
(0.80778 0.388125 -2.64339e-20)
(0.781135 0.359704 3.18092e-20)
(0.728968 0.321559 0)
(0.622682 0.266773 -2.26773e-20)
(0.458618 0.194712 -8.08705e-23)
(0.275988 0.117223 -6.37879e-20)
(0.116914 0.049834 -9.41742e-21)
(0.0138128 0.00597429 0)
(0.236385 0.117902 0)
(1.1131 0.539083 3.9511e-21)
(1.30944 0.63975 -7.86165e-22)
(1.33362 0.665494 -5.12373e-21)
(1.28704 0.658201 -8.08631e-21)
(1.21928 0.63951 0)
(1.1487 0.618007 -8.81038e-21)
(1.07528 0.592847 -2.34798e-22)
(0.999236 0.56204 5.64084e-20)
(0.922295 0.524172 -8.38004e-21)
(0.856875 0.484024 -3.72635e-20)
(0.811123 0.448422 2.26517e-20)
(0.779838 0.417202 -4.27522e-22)
(0.750572 0.385704 3.37861e-20)
(0.6995 0.345683 2.09045e-20)
(0.599712 0.288913 -4.89466e-20)
(0.445431 0.212824 5.82015e-20)
(0.270062 0.128854 1.72667e-20)
(0.115357 0.0548912 7.14908e-20)
(0.0141217 0.00674223 -1.93467e-19)
(0.235335 0.127402 -3.29415e-21)
(1.10425 0.583351 3.80749e-21)
(1.29989 0.692801 -2.11354e-21)
(1.32188 0.719294 3.77013e-21)
(1.27421 0.710059 0)
(1.20588 0.688994 -7.58588e-21)
(1.13421 0.664935 2.95375e-20)
(1.05916 0.636968 2.12545e-20)
(0.981101 0.603263 0)
(0.901816 0.562327 -1.20569e-19)
(0.833915 0.518572 1.00666e-19)
(0.785742 0.479049 0)
(0.75191 0.444174 3.08238e-20)
(0.720788 0.410046 -4.20323e-22)
(0.670807 0.368305 -6.66441e-20)
(0.575759 0.308781 2.61554e-20)
(0.428864 0.227978 0)
(0.259773 0.137455 9.30567e-20)
(0.110327 0.0576677 0)
(0.0133413 0.00694883 -9.14144e-20)
(0.235012 0.13688 4.23891e-21)
(1.09558 0.625494 5.75767e-21)
(1.28951 0.743099 -1.91315e-21)
(1.30932 0.770243 0)
(1.26066 0.759265 -6.64713e-21)
(1.19185 0.73608 0)
(1.11922 0.709686 -2.90548e-20)
(1.04274 0.679209 -9.83923e-21)
(0.962846 0.642934 9.91436e-21)
(0.881243 0.59902 -5.96134e-20)
(0.810715 0.551459 1.0387e-20)
(0.760106 0.507909 0)
(0.72411 0.469548 -6.57689e-20)
(0.691701 0.432942 4.20516e-22)
(0.642499 0.389038 0)
(0.550738 0.325948 3.8156e-22)
(0.409264 0.239741 8.4612e-20)
(0.245667 0.142742 -8.03363e-20)
(0.102383 0.0584369 2.37827e-20)
(0.011871 0.00671112 0)
(0.235062 0.146228 0)
(1.08721 0.665559 7.49129e-21)
(1.27867 0.790729 4.00027e-21)
(1.29631 0.818391 -4.88981e-22)
(1.24675 0.80582 -2.09912e-21)
(1.1775 0.78072 -1.68336e-20)
(1.10403 0.752221 1.08678e-20)
(1.02627 0.719546 -1.16068e-20)
(0.944675 0.681023 4.4223e-20)
(0.860704 0.634279 -9.51046e-20)
(0.787373 0.582911 -7.23514e-22)
(0.734289 0.535394 -2.87992e-20)
(0.696408 0.493657 1.06638e-19)
(0.663035 0.454479 -4.91855e-22)
(0.614205 0.40784 -5.15922e-20)
(0.524453 0.340466 -9.23759e-20)
(0.387011 0.248197 0)
(0.228249 0.14471 0)
(0.0921251 0.0571197 2.56523e-20)
(0.00997953 0.00606935 -1.52224e-20)
(0.235613 0.15554 6.61963e-21)
(1.0793 0.703494 -1.76805e-20)
(1.26759 0.835782 -4.3714e-21)
(1.2831 0.863804 0)
(1.23271 0.849762 -3.2811e-22)
(1.16307 0.822923 -1.51707e-20)
(1.08886 0.792555 2.60922e-20)
(1.00998 0.758001 4.55566e-20)
(0.926761 0.717545 5.73579e-20)
(0.840339 0.668177 -7.75848e-20)
(0.764027 0.613177 -8.63008e-20)
(0.708359 0.561817 7.70001e-20)
(0.668748 0.516687 0)
(0.634562 0.474644 -2.33899e-20)
(0.585766 0.424659 -5.58142e-20)
(0.497022 0.352194 -6.63049e-20)
(0.362355 0.253059 -7.8849e-20)
(0.208217 0.143327 2.33742e-20)
(0.0801142 0.0536832 -1.37998e-20)
(0.00770926 0.00504408 5.38985e-23)
(0.23639 0.16464 0)
(1.07187 0.739745 0)
(1.25644 0.878336 5.49468e-22)
(1.26989 0.906569 0)
(1.21876 0.891167 4.0123e-21)
(1.14877 0.862745 1.00628e-20)
(1.07393 0.830737 0)
(0.994041 0.794615 5.37433e-21)
(0.909255 0.752525 9.54838e-20)
(0.82031 0.700809 -1.78285e-19)
(0.740828 0.642474 0)
(0.682408 0.587424 -4.94992e-20)
(0.641034 0.538741 -5.95601e-22)
(0.606049 0.493358 -4.76188e-22)
(0.557044 0.439263 5.95938e-20)
(0.468573 0.360793 -6.78987e-23)
(0.335363 0.254085 -1.69669e-19)
(0.186087 0.138505 5.02676e-20)
(0.0674075 0.0486036 1.49092e-20)
(0.00537476 0.00378382 0)
(0.237169 0.173579 -2.83472e-20)
(1.06469 0.77429 -1.29193e-20)
(1.24526 0.918445 -1.53901e-20)
(1.25683 0.946779 1.07802e-20)
(1.20503 0.930102 3.72288e-21)
(1.13474 0.900256 0)
(1.05936 0.866843 1.55348e-20)
(0.978591 0.82944 -1.19596e-20)
(0.892287 0.786003 7.86095e-22)
(0.800778 0.732267 1.31296e-20)
(0.717946 0.670977 1.11579e-19)
(0.656516 0.612422 -1.73587e-20)
(0.613158 0.559957 -6.56436e-20)
(0.577221 0.510555 -2.7226e-20)
(0.527824 0.451366 3.24188e-20)
(0.439241 0.365905 -3.00078e-23)
(0.307234 0.251184 4.57186e-20)
(0.163316 0.130767 -1.08112e-19)
(0.0547508 0.0423619 1.28272e-19)
(0.00312842 0.00240734 1.8941e-20)
(0.237707 0.182259 1.10352e-20)
(1.05779 0.807218 -7.48433e-21)
(1.23421 0.956222 1.30202e-21)
(1.244 0.984552 8.35143e-21)
(1.19164 0.966676 6.23791e-22)
(1.1211 0.935542 -1.71326e-20)
(1.0453 0.900946 4.42879e-21)
(0.963733 0.862518 -4.9729e-20)
(0.875975 0.817996 -1.04841e-19)
(0.781885 0.762603 -1.06072e-19)
(0.695552 0.69881 0)
(0.630779 0.636988 -7.61388e-20)
(0.585034 0.580534 9.45324e-20)
(0.547745 0.526243 0)
(0.497779 0.460633 -6.93904e-20)
(0.409132 0.367002 4.15349e-20)
(0.278753 0.244137 -4.91172e-20)
(0.141191 0.120547 -5.81791e-20)
(0.0430468 0.0355226 -1.03315e-19)
(0.0011375 0.00104577 -8.15674e-20)
(0.23857 0.190769 -1.27724e-20)
(1.05104 0.838509 8.02278e-21)
(1.22332 0.991726 1.79534e-20)
(1.2315 1.01997 1.30764e-20)
(1.17865 1.00098 -6.05635e-22)
(1.10793 0.968705 -8.77271e-21)
(1.03181 0.933121 1.47854e-20)
(0.949546 0.893904 -5.08877e-20)
(0.860399 0.848539 -6.19571e-20)
(0.763768 0.791864 1.10794e-19)
(0.673798 0.726055 2.448e-19)
(0.605313 0.661277 0)
(0.556616 0.600724 0)
(0.517246 0.540609 -3.1362e-20)
(0.466327 0.466742 0)
(0.378111 0.363132 8.93929e-20)
(0.251039 0.232207 1.05706e-19)
(0.121656 0.108027 0)
(0.0335488 0.0286621 0)
(-0.000457629 -0.000169928 8.76617e-20)
(0.239056 0.198783 1.48351e-20)
(1.04446 0.868158 1.17023e-20)
(1.21266 1.02506 1.32259e-20)
(1.21936 1.05316 -1.37324e-20)
(1.16613 1.03313 -2.24411e-21)
(1.09529 0.999837 8.37875e-21)
(1.01895 0.963443 -2.01124e-20)
(0.936085 0.923632 2.03467e-23)
(0.845636 0.877646 -1.02574e-21)
(0.746534 0.820063 -1.08691e-21)
(0.652851 0.752764 1.26047e-19)
(0.580262 0.685406 0)
(0.527958 0.620808 9.55564e-20)
(0.485387 0.554057 6.68683e-20)
(0.432548 0.46969 1.62046e-19)
(0.345324 0.353032 4.81255e-20)
(0.225128 0.213173 -5.69793e-20)
(0.108586 0.0911139 -3.35405e-20)
(0.030967 0.0208501 0)
(-0.000592222 -0.00102374 9.42006e-20)
(0.239871 0.206798 -3.42105e-20)
(1.03804 0.896303 0)
(1.20223 1.05629 1.62258e-20)
(1.2076 1.0842 -1.21338e-20)
(1.15412 1.06322 4.87733e-21)
(1.08322 1.02903 -7.79173e-21)
(1.00676 0.991978 3.83349e-20)
(0.923383 0.951739 -4.26285e-21)
(0.831728 0.905331 0)
(0.73027 0.847179 -1.21985e-19)
(0.632869 0.778954 -2.73675e-19)
(0.55581 0.709478 1.12088e-20)
(0.499214 0.641037 1.31546e-19)
(0.451999 0.567171 0)
(0.395319 0.470208 1.09341e-19)
(0.308397 0.336006 0)
(0.199129 0.182376 0)
(0.106505 0.0568699 -3.63368e-20)
(0.0587853 -0.00181122 0)
(0.026169 0.00649204 2.52527e-20)
(0.240228 0.214212 -3.87763e-20)
(1.03176 0.92318 0)
(1.19204 1.08559 2.75742e-20)
(1.19619 1.11333 0)
(1.14258 1.09152 -3.56637e-21)
(1.07167 1.05659 0)
(0.995184 1.01904 1.79484e-21)
(0.911346 0.978564 6.9348e-21)
(0.818566 0.931967 7.7487e-21)
(0.714831 0.873605 -1.33754e-19)
(0.613712 0.805071 8.20544e-21)
(0.531741 0.734087 9.02457e-20)
(0.47003 0.662054 1.28353e-19)
(0.416352 0.580785 1.73214e-20)
(0.35296 0.470156 8.56899e-20)
(0.262777 0.313596 0)
(0.162392 0.137707 1.20406e-19)
(0.0869646 0.00506197 -7.08609e-20)
(0.032516 0.0576324 8.2655e-20)
(-0.0384165 0.452338 -9.81659e-20)
(0.240515 0.221444 3.24544e-20)
(1.02544 0.948665 4.84634e-20)
(1.18201 1.1133 0)
(1.185 1.14098 1.11318e-21)
(1.13133 1.11861 1.16157e-20)
(1.06037 1.08321 5.39712e-21)
(0.983908 1.04545 1.28439e-20)
(0.899583 1.00506 0)
(0.80564 0.958666 5.10705e-20)
(0.699557 0.900647 -6.94775e-21)
(0.594476 0.832584 0)
(0.506858 0.760964 0)
(0.43874 0.685524 1.14622e-19)
(0.376449 0.595997 -5.34599e-20)
(0.302664 0.471997 -8.65711e-20)
(0.204472 0.290301 0)
(0.0912226 0.135938 6.12171e-20)
(0.00818895 0.465574 -7.13724e-20)
(0.032608 1.91912 -4.01632e-20)
(0.0594865 2.82068 -4.91063e-20)
(0.240425 0.228089 -2.48296e-20)
(1.01912 0.972939 -6.30448e-20)
(1.17217 1.13941 1.68695e-20)
(1.17403 1.16702 1.31611e-20)
(1.12044 1.1443 0)
(1.04941 1.10863 1.25605e-21)
(0.973139 1.07088 1.68291e-20)
(0.888271 1.03079 -3.30966e-21)
(0.793219 0.984906 7.61027e-21)
(0.684828 0.927701 1.26973e-19)
(0.57578 0.860817 1.37775e-19)
(0.482156 0.789832 1.00493e-19)
(0.406314 0.711265 1.14987e-19)
(0.334065 0.611623 -1.25007e-19)
(0.251248 0.478665 -1.30365e-19)
(0.131575 0.328288 0)
(0.0444668 0.870524 0)
(0.0918101 2.5754 3.40002e-20)
(0.0939784 3.20752 0)
(0.0947584 3.38788 8.90203e-20)
(0.243111 0.234255 0)
(1.01308 0.996359 0)
(1.16223 1.16379 0)
(1.16306 1.19125 4.14086e-21)
(1.10963 1.16836 1.12656e-20)
(1.0386 1.1327 -2.09923e-21)
(0.962801 1.09524 1.04988e-20)
(0.877341 1.05563 -3.20256e-21)
(0.781236 1.01052 6.32099e-20)
(0.67064 0.954604 -1.97887e-21)
(0.557717 0.889555 2.71436e-19)
(0.458069 0.820754 -1.15673e-20)
(0.372883 0.739831 1.39075e-20)
(0.291599 0.62542 1.80587e-20)
(0.18966 0.497688 -2.78525e-22)
(0.100082 1.01187 3.36376e-22)
(0.131038 2.75235 -1.77023e-19)
(0.13603 3.29997 -6.74223e-20)
(0.125215 3.42471 3.60377e-20)
(0.113407 3.4447 -4.07182e-20)
(0.165246 0.179014 1.54728e-20)
(1.00294 1.02162 0)
(1.15207 1.1867 -3.57478e-20)
(1.15245 1.21397 -3.71026e-20)
(1.09936 1.19131 2.89517e-20)
(1.02859 1.15588 3.34091e-21)
(0.952744 1.11849 -1.04006e-20)
(0.866851 1.07958 3.47458e-20)
(0.76981 1.03552 -5.16654e-20)
(0.657233 0.981421 0)
(0.540565 0.918863 1.33337e-19)
(0.435179 0.853519 -8.17219e-20)
(0.338969 0.77416 0)
(0.24282 0.642273 1.72942e-20)
(0.142653 0.823522 4.17347e-20)
(0.145231 2.55065 -4.8056e-20)
(0.195 3.3314 5.5025e-20)
(0.176043 3.43808 2.98865e-20)
(0.14545 3.45637 3.44599e-20)
(0.125386 3.46468 5.51915e-20)
(0.278512 0.273366 -2.9774e-20)
(0.98634 1.03266 0)
(1.13409 1.21281 3.92965e-20)
(1.13795 1.24753 4.23487e-20)
(1.08281 1.22515 -3.41415e-20)
(1.01168 1.19019 -8.72349e-21)
(0.934887 1.15449 7.75737e-21)
(0.848475 1.11699 2.71523e-21)
(0.749914 1.07496 4.85184e-20)
(0.634226 1.02444 1.0855e-19)
(0.511984 0.967397 7.46776e-21)
(0.397216 0.909038 7.21399e-20)
(0.280039 0.831141 1.29919e-20)
(0.208612 0.998715 -1.65241e-20)
(0.214702 2.42115 -3.79529e-20)
(0.265301 3.33896 3.80519e-20)
(0.24854 3.46718 -4.2088e-20)
(0.21386 3.48462 -2.45249e-20)
(0.179589 3.5081 -2.24888e-20)
(0.134538 3.50179 -3.30617e-21)
(0.268953 0.272451 0)
(0.983803 1.05596 1.17069e-20)
(1.12583 1.23666 -8.19388e-21)
(1.12766 1.27122 -5.14578e-21)
(1.07233 1.2486 -2.42817e-20)
(1.00142 1.21389 9.61759e-21)
(0.924374 1.17856 -3.18245e-21)
(0.837757 1.14197 2.39034e-21)
(0.738588 1.10131 -5.01218e-20)
(0.621503 1.05343 -2.93515e-21)
(0.496479 1.00077 -2.38895e-19)
(0.377047 0.947084 1.02638e-20)
(0.270427 0.907472 -1.22611e-20)
(0.243484 1.57451 -1.51899e-20)
(0.303299 3.14578 3.60373e-21)
(0.318021 3.47135 3.94116e-22)
(0.276246 3.51758 6.27065e-20)
(0.241988 3.53866 3.21082e-20)
(0.196203 3.55753 -1.08205e-20)
(0.14636 3.55295 -1.65714e-20)
(0.254871 0.270562 3.03055e-20)
(0.980368 1.08188 7.98688e-20)
(1.11718 1.26263 -2.35479e-20)
(1.11694 1.29646 -1.94653e-20)
(1.06147 1.27356 0)
(0.990809 1.23891 2.03225e-20)
(0.913766 1.20401 -1.34588e-21)
(0.827185 1.16824 2.04304e-21)
(0.727709 1.12903 -5.57825e-21)
(0.609743 1.08399 -9.68354e-20)
(0.482812 1.0362 -1.09595e-19)
(0.358985 0.987843 -8.41447e-20)
(0.272938 1.05163 -9.1642e-20)
(0.305931 2.31038 9.48314e-20)
(0.381345 3.39949 8.15802e-20)
(0.35566 3.52952 0)
(0.307242 3.56365 0)
(0.270472 3.59565 -8.41023e-21)
(0.225882 3.64014 0)
(0.156981 3.62326 -1.38191e-20)
(0.244887 0.272598 -4.56718e-20)
(0.974966 1.10869 -6.82012e-20)
(1.10714 1.28988 0)
(1.10499 1.32262 1.34384e-21)
(1.04943 1.29921 -2.74519e-20)
(0.979146 1.26456 3.47114e-20)
(0.902429 1.23009 1.09671e-21)
(0.816094 1.19506 1.00291e-21)
(0.716558 1.15723 -3.44131e-20)
(0.598122 1.11501 4.78109e-21)
(0.4701 1.07223 0)
(0.347685 1.03421 0)
(0.299554 1.33597 -8.29337e-20)
(0.381075 2.97375 3.40037e-20)
(0.44516 3.50078 4.3799e-20)
(0.393279 3.5644 0)
(0.351463 3.61853 -4.70632e-21)
(0.310324 3.66191 -3.76162e-21)