/*--------------------------------*- C++ -*----------------------------------*\
  =========                 |
  \\      /  F ield         | OpenFOAM: The Open Source CFD Toolbox
   \\    /   O peration     | Website:  https://openfoam.org
    \\  /    A nd           | Version:  6
     \\/     M anipulation  |
\*---------------------------------------------------------------------------*/
FoamFile
{
    version     2.0;
    format      ascii;
    class       surfaceScalarField;
    location    "80.5";
    object      phi;
}
// * * * * * * * * * * * * * * * * * * * * * * * * * * * * * * * * * * * * * //

dimensions      [0 3 -1 0 0 0 0];

internalField   nonuniform List<scalar> 
17370
(
-0.0900003
0.0898493
0.289162
-0.0714628
0.0537529
0.364485
-0.0381196
0.0276905
0.426597
-0.0196385
0.0146054
0.504285
-0.0107632
0.00827262
0.601893
-0.00627272
0.0048961
0.720434
-0.00373219
0.00289176
0.863747
-0.00215049
0.00159158
1.03601
-0.00107517
0.000662905
1.24292
-0.000255811
-0.000139088
1.49159
0.000518409
-0.000929114
1.4916
0.00132771
-0.00181724
1.24318
0.00234439
-0.0030492
1.03634
0.00386216
-0.00500563
0.86405
0.00637126
-0.00836384
0.72105
0.0108488
-0.0146843
0.60305
0.0197108
-0.0277548
0.507483
0.0381764
-0.0538007
0.431792
0.071502
-0.0898756
0.365149
0.0900162
0.198995
-0.128137
0.088227
0.0399095
-0.364599
0.353379
-0.074672
0.0858919
-0.446476
0.454321
-0.0843886
0.0765443
-0.521191
0.529902
-0.0684468
0.059735
-0.612789
0.621569
-0.0515456
0.0427653
-0.726895
0.734165
-0.0353038
0.0280334
-0.867475
0.872592
-0.0224316
0.0173151
-1.03847
1.04192
-0.0135047
0.0100543
-1.2446
1.24703
-0.00744305
0.00500944
-1.49262
1.4946
-0.00306066
0.00108042
-1.4925
1.49423
0.000594373
-0.00231914
-1.24398
1.24586
0.0042237
-0.00610961
-1.03751
1.04004
0.00846653
-0.0109938
-0.866101
0.869826
0.0143439
-0.0180697
-0.72439
0.729933
0.023108
-0.0286505
-0.608697
0.616111
0.0358645
-0.0432778
-0.514897
0.52304
0.0520069
-0.0601501
-0.439856
0.447914
0.0688122
-0.0768701
-0.375295
0.376739
0.0846668
-0.0861104
-0.25733
0.222476
0.0748202
-0.0399668
-0.0685203
0.0586951
0.00982514
-0.0518069
0.0583887
-0.374129
0.367547
-0.0574714
0.0537179
-0.453596
0.457349
-0.0486265
0.0446726
-0.527949
0.531902
-0.040831
0.0371903
-0.621566
0.625206
-0.0330864
0.0290087
-0.735351
0.739429
-0.0244362
0.0202749
-0.874343
0.878504
-0.0159269
0.012231
-1.04349
1.04719
-0.00849113
0.00531611
-1.24856
1.25174
-0.00198573
-0.0010887
-1.49666
1.49973
0.00413685
-0.00740386
-1.4972
1.50047
0.0104848
-0.0140902
-1.25007
1.25367
0.0176443
-0.0218281
-1.04592
1.05011
0.025849
-0.0302853
-0.877759
0.882195
0.0342539
-0.0382498
-0.739898
0.743893
0.0417986
-0.0455449
-0.626771
0.630517
0.0494167
-0.0544297
-0.534808
0.539821
0.0580975
-0.0589075
-0.457472
0.458282
0.0521997
-0.0319937
-0.335747
0.315541
0.00988909
-0.0683425
0.0584534
-0.0529455
0.0489515
0.00399399
-0.0331517
0.0436922
-0.358117
0.347576
-0.0473864
0.0467559
-0.45929
0.45992
-0.043697
0.0403413
-0.535806
0.539162
-0.0365653
0.0332582
-0.628533
0.631841
-0.0298168
0.0267818
-0.742654
0.745689
-0.0235197
0.0204102
-0.882025
0.885135
-0.0168767
0.0134943
-1.05078
1.05416
-0.00969755
0.00615569
-1.25517
1.25872
-0.00218313
-0.00161631
-1.50324
1.50704
0.00538284
-0.00925739
-1.50413
1.50801
0.012666
-0.0162769
-1.25741
1.26102
0.0194625
-0.0227663
-1.05391
1.05722
0.0256763
-0.0287408
-0.885683
0.888747
0.0316148
-0.0348962
-0.74715
0.750432
0.0380683
-0.0417064
-0.6343
0.637938
0.0449438
-0.047868
-0.544129
0.547053
0.0483567
-0.0444633
-0.456565
0.452671
0.0336852
-0.0162276
-0.29617
0.278712
0.00407355
-0.0526321
0.0485585
-0.0458755
0.0433823
0.00249324
-0.0227911
0.0331618
-0.336893
0.326522
-0.0389759
0.0399876
-0.459608
0.458596
-0.0387926
0.0365019
-0.541884
0.544174
-0.03383
0.0312297
-0.634894
0.637494
-0.0281618
0.0252582
-0.748737
0.751641
-0.0219889
0.0189911
-0.888092
0.89109
-0.0156815
0.012578
-1.0573
1.0604
-0.00904747
0.00563485
-1.26218
1.26559
-0.00166823
-0.00221813
-1.51093
1.51481
0.00606057
-0.0098965
-1.5119
1.51573
0.0131323
-0.0164182
-1.26445
1.26774
0.0192632
-0.0222712
-1.06032
1.06333
0.0250051
-0.0280104
-0.891796
0.894801
0.0306957
-0.0335447
-0.753634
0.756483
0.0359602
-0.0384463
-0.641
0.643486
0.0405777
-0.0415632
-0.548852
0.549838
0.0403321
-0.034198
-0.447383
0.441249
0.0234773
-0.0102464
-0.263482
0.250251
0.00259161
-0.0453928
0.0428012
-0.0413097
0.0395457
0.00176409
-0.0167252
0.0259643
-0.316679
0.30744
-0.032558
0.0346894
-0.457002
0.454871
-0.0342611
0.0325848
-0.546155
0.547831
-0.0303979
0.0282971
-0.639803
0.641903
-0.0258595
0.0234563
-0.75429
0.756693
-0.0205915
0.0177965
-0.89399
0.896785
-0.0145537
0.0114784
-1.06345
1.06653
-0.00798177
0.00465073
-1.26891
1.27225
-0.000813507
-0.00292209
-1.51861
1.52234
0.00660173
-0.0102726
-1.51946
1.52313
0.0133789
-0.0165649
-1.27098
1.27416
0.0193108
-0.022168
-1.06636
1.06921
0.0246237
-0.0271473
-0.897608
0.900131
0.029268
-0.0314227
-0.758927
0.761081
0.033287
-0.0352348
-0.645634
0.647582
0.0366801
-0.0368237
-0.550348
0.550491
0.0343559
-0.0272933
-0.434569
0.427506
0.0175822
-0.00742056
-0.238704
0.228543
0.00188427
-0.0406187
0.0387344
-0.0380268
0.0367015
0.00132533
-0.0127572
0.0206853
-0.298862
0.290934
-0.0274171
0.0303259
-0.452321
0.449412
-0.0305188
0.0293897
-0.549268
0.550397
-0.027388
0.0254632
-0.643944
0.645869
-0.0232542
0.0211085
-0.758938
0.761083
-0.0185839
0.0160914
-0.899366
0.901859
-0.0131383
0.0102487
-1.06947
1.07236
-0.00687563
0.00362515
-1.27551
1.27876
0.000129993
-0.00376337
-1.526
1.52963
0.0073265
-0.0108717
-1.52673
1.53027
0.0138389
-0.016822
-1.27728
1.28026
0.019299
-0.0217698
-1.07195
1.07442
0.0238377
-0.0259337
-0.902409
0.904505
0.0277228
-0.0295732
-0.763057
0.764907
0.0311992
-0.0329108
-0.649393
0.651105
0.0337038
-0.0331124
-0.550271
0.549679
0.0297221
-0.0223478
-0.42023
0.412856
0.0138128
-0.00576022
-0.219536
0.211483
0.00147153
-0.0370816
0.03561
-0.0355448
0.0345255
0.00101936
-0.00995189
0.0166426
-0.28365
0.276959
-0.0230991
0.0264517
-0.446262
0.442909
-0.0272156
0.0265025
-0.55131
0.552023
-0.0247313
0.0229357
-0.647771
0.649567
-0.0208527
0.0188237
-0.763164
0.765193
-0.0164376
0.0140963
-0.904206
0.906548
-0.0113415
0.00864127
-1.07509
1.07779
-0.00546711
0.00236824
-1.2819
1.285
0.00125452
-0.00477477
-1.53319
1.53671
0.00820797
-0.01157
-1.53371
1.53707
0.0143183
-0.0170105
-1.28311
1.28581
0.0192008
-0.0213599
-1.07679
1.07895
0.0231766
-0.0250324
-0.90647
0.908326
0.0266191
-0.0282569
-0.766644
0.768282
0.0296818
-0.0310513
-0.652673
0.654042
0.0313479
-0.0300184
-0.548731
0.547402
0.0260021
-0.0186995
-0.40549
0.398187
0.0112457
-0.00466204
-0.204233
0.19765
0.00119713
-0.0342905
0.0330934
-0.0336319
0.0328404
0.000791538
-0.00786835
0.0134791
-0.270838
0.265228
-0.0194405
0.0229811
-0.439453
0.435912
-0.0242142
0.0237441
-0.552649
0.553119
-0.0222352
0.0205456
-0.651359
0.653049
-0.0185533
0.016606
-0.767174
0.769121
-0.0143074
0.0120496
-0.90878
0.911038
-0.00939365
0.00679993
-1.08036
1.08295
-0.00376354
0.000805428
-1.28797
1.29093
0.00264789
-0.00599541
-1.54012
1.54347
0.00923626
-0.0123703
-1.5403
1.54343
0.0149002
-0.0173484
-1.28838
1.29083
0.019318
-0.0212435
-1.08109
1.08301
0.0228576
-0.0245049
-0.910072
0.91172
0.0259091
-0.0273543
-0.769816
0.771261
0.0285812
-0.0295666
-0.655212
0.656197
0.0294866
-0.0274827
-0.545733
0.543729
0.0230559
-0.0160089
-0.391005
0.383958
0.00945002
-0.00390492
-0.191633
0.186088
0.00100755
-0.0320019
0.0309944
-0.0321472
0.0315328
0.000614369
-0.00625652
0.0109433
-0.260107
0.255421
-0.0163039
0.0198347
-0.432377
0.428846
-0.021382
0.0211326
-0.553517
0.553766
-0.0198505
0.0182163
-0.654759
0.656393
-0.0162753
0.0143729
-0.771035
0.772937
-0.0121277
0.0099232
-0.913192
0.915397
-0.00733038
0.00480257
-1.08544
1.08796
-0.00185257
-0.00100375
-1.29378
1.29664
0.00430962
-0.00748311
-1.54669
1.54987
0.0105264
-0.0134428
-1.54642
1.54934
0.0157779
-0.0180127
-1.29318
1.29542
0.0197803
-0.0214831
-1.08494
1.08664
0.0229027
-0.0243515
-0.913256
0.914705
0.025588
-0.0268556
-0.772607
0.773875
0.027937
-0.028498
-0.656976
0.657537
0.0280366
-0.0254602
-0.541445
0.538868
0.0207747
-0.0140441
-0.377075
0.370344
0.00818683
-0.00337957
-0.180948
0.176141
0.000876721
-0.0300609
0.0291842
-0.0309993
0.030529
0.000470305
-0.00495504
0.00884344
-0.25116
0.247272
-0.0135587
0.0169308
-0.425405
0.422032
-0.0186517
0.0185863
-0.553969
0.554034
-0.0174904
0.015887
-0.658078
0.659681
-0.0139625
0.0120693
-0.774818
0.776711
-0.00983658
0.00765054
-0.917502
0.919688
-0.00508858
0.00260022
-1.09039
1.09288
0.000290997
-0.00307301
-1.2994
1.30218
0.00626562
-0.00929688
-1.55293
1.55596
0.0121695
-0.0148877
-1.55212
1.55484
0.0170359
-0.0190585
-1.29756
1.29958
0.0206225
-0.0221032
-1.08837
1.08986
0.0233365
-0.0246026
-0.916045
0.917311
0.0256887
-0.026797
-0.77505
0.776158
0.0276755
-0.0278742
-0.657908
0.658107
0.0269856
-0.02392
-0.536049
0.532983
0.0190687
-0.0126408
-0.36378
0.357352
0.00731129
-0.00302212
-0.171622
0.167333
0.00078928
-0.0283591
0.0275698
-0.0301281
0.0297802
0.000347903
-0.00386061
0.00704572
-0.24376
0.240575
-0.0111035
0.0142064
-0.418814
0.415711
-0.0159733
0.0160542
-0.554081
0.554
-0.0150316
0.0134948
-0.661325
0.662862
-0.0115584
0.00964122
-0.778593
0.78051
-0.00738117
0.00517655
-0.92178
0.923985
-0.00260619
0.000124834
-1.09526
1.09775
0.00273871
-0.00547325
-1.30487
1.30761
0.00858298
-0.0115004
-1.5589
1.56181
0.0142259
-0.0167614
-1.55742
1.55996
0.0187307
-0.0205462
-1.30151
1.30333
0.0219106
-0.0231743
-1.0914
1.09266
0.0242276
-0.0253173
-0.918466
0.919555
0.0262578
-0.0272017
-0.777163
0.778107
0.0278186
-0.0277188
-0.658161
0.658061
0.0263743
-0.0228536
-0.529695
0.526174
0.0178732
-0.0116881
-0.351068
0.344883
0.00673346
-0.00279303
-0.163245
0.159305
0.000735414
-0.026815
0.0260796
-0.0294949
0.0292568
0.000238135
-0.00289724
0.00544577
-0.237732
0.235184
-0.00884573
0.0115957
-0.41281
0.41006
-0.0132927
0.0134441
-0.553947
0.553796
-0.0124561
0.0109529
-0.664466
0.665969
-0.00897966
0.00700751
-0.782423
0.784395
-0.00468284
0.00242403
-0.926099
0.928358
0.000195495
-0.00270813
-1.10014
1.10265
0.0055856
-0.00830716
-1.31026
1.31299
0.0113648
-0.0141896
-1.56464
1.56746
0.0167827
-0.019147
-1.56236
1.56472
0.0209462
-0.0225607
-1.30505
1.30666
0.023725
-0.0247662
-1.09402
1.09506
0.025634
-0.0265415
-0.92053
0.921438
0.0273301
-0.0281112
-0.77891
0.779691
0.0284436
-0.0280263
-0.657818
0.657401
0.0262187
-0.0222592
-0.522457
0.518497
0.0171459
-0.0111145
-0.338804
0.332772
0.00639697
-0.00266703
-0.155494
0.151764
0.000708498
-0.0253651
0.0246566
-0.0290784
0.028945
0.000133374
-0.00200138
0.00395058
-0.232958
0.231009
-0.00668674
0.00901245
-0.407553
0.405227
-0.0105306
0.0106734
-0.553726
0.553583
-0.00968513
0.00817607
-0.667575
0.669084
-0.00613747
0.0040797
-0.786366
0.788423
-0.00165361
-0.000695004
-0.930526
0.932875
0.00340488
-0.00598711
-1.10508
1.10766
0.00891977
-0.0116643
-1.31564
1.31838
0.0147062
-0.0174669
-1.5702
1.57297
0.0199474
-0.0221516
-1.56695
1.56915
0.0237845
-0.0251974
-1.30818
1.30959
0.0261552
-0.0269664
-1.09623
1.09704
0.0276372
-0.0283465
-0.922219
0.922928
0.0289782
-0.0296165
-0.780305
0.780943
0.0296106
-0.0287846
-0.656795
0.655969
0.0265084
-0.0221108
-0.51436
0.509963
0.0168337
-0.0108564
-0.326803
0.320826
0.0062553
-0.00262328
-0.148108
0.144476
0.000703007
-0.0239584
0.0232554
-0.0288719
0.0288444
2.74675e-05
-0.0011256
0.00248821
-0.229376
0.228013
-0.00454437
0.00638029
-0.40318
0.401344
-0.00761546
0.0076675
-0.553581
0.553529
-0.00663195
0.00507835
-0.670734
0.672287
-0.00293275
0.00075312
-0.790482
0.792662
0.00181816
-0.00429779
-0.935135
0.937615
0.00714259
-0.00983393
-1.11017
1.11286
0.0128635
-0.0156664
-1.32106
1.32387
0.018726
-0.0214461
-1.57565
1.57837
0.0238292
-0.0258807
-1.57121
1.57327
0.0273491
-0.0285568
-1.3109
1.31211
0.0293083
-0.0298868
-1.09802
1.09859
0.0303554
-0.0308567
-0.92351
0.924011
0.0313109
-0.0317021
-0.781327
0.781719
0.0314064
-0.0301
-0.654949
0.653643
0.0273116
-0.0224343
-0.505383
0.500506
0.0169279
-0.0108881
-0.314858
0.308818
0.00628775
-0.00265263
-0.140868
0.137232
0.000716677
-0.0225535
0.0218368
-0.0288781
0.0289596
-8.1528e-05
-0.000223513
0.000989852
-0.226967
0.226201
-0.00233527
0.003615
-0.399819
0.398539
-0.00446564
0.00434217
-0.553688
0.553811
-0.00320037
0.00154245
-0.674033
0.675691
0.000748389
-0.00309242
-0.794845
0.797189
0.00585608
-0.00851046
-0.940006
0.94266
0.0115399
-0.0143865
-1.11548
1.11833
0.0175614
-0.0204618
-1.32661
1.32952
0.0235741
-0.0262781
-1.58101
1.58372
0.0285784
-0.0304826
-1.57517
1.57707
0.031785
-0.0327852
-1.3132
1.3142
0.0333259
-0.0336643
-1.09935
1.09969
0.0339194
-0.0342005
-0.924375
0.924656
0.0344526
-0.0345257
-0.78179
0.781863
0.0339023
-0.0320317
-0.65214
0.65027
0.0286717
-0.0232473
-0.495433
0.490009
0.0174219
-0.011192
-0.302731
0.296501
0.00647961
-0.00274765
-0.133576
0.129844
0.000747205
-0.0211131
0.0203659
-0.0291141
0.0293251
-0.000211045
0.000730275
-0.000608166
-0.225759
0.225637
2.29591e-05
0.000625731
-0.397599
0.39695
-0.000986347
0.000596591
-0.55423
0.554619
0.000721034
-0.00254066
-0.677596
0.679416
0.00503014
-0.00758651
-0.799535
0.802091
0.0105986
-0.0134809
-0.945229
0.948111
0.016753
-0.0198056
-1.12111
1.12417
0.0231779
-0.0262199
-1.33237
1.33541
0.0294268
-0.0321417
-1.58636
1.58907
0.0343716
-0.0361279
-1.57881
1.58057
0.0372596
-0.038042
-1.31505
1.31583
0.0383612
-0.0384421
-1.1002
1.10028
0.0384674
-0.0385156
-0.924778
0.924826
0.0385767
-0.0382341
-0.781592
0.781249
0.037194
-0.0346704
-0.648214
0.64569
0.0306514
-0.0245764
-0.484356
0.478281
0.018316
-0.0117557
-0.290158
0.283598
0.00681867
-0.00290167
-0.126046
0.122129
0.000792458
-0.0196045
0.018812
-0.0296122
0.0299691
-0.000356963
0.0017896
-0.00229979
-0.225849
0.226359
0.0025709
-0.00266492
-0.396666
0.39676
0.00294127
-0.00370978
-0.555424
0.556193
0.00526914
-0.00731806
-0.681543
0.683592
0.0100828
-0.0129183
-0.80465
0.807486
0.016248
-0.0194188
-0.950913
0.954084
0.0229976
-0.0263118
-1.12717
1.13049
0.0299367
-0.0331612
-1.33842
1.34165
0.0364933
-0.0392322
-1.59172
1.59446
0.0413899
-0.0429867
-1.58214
1.58374
0.0439319
-0.0444933
-1.31641
1.31698
0.0445849
-0.0443861
-1.10052
1.10032
0.0441593
-0.0439578
-0.924668
0.924466
0.0437927
-0.0429475
-0.780547
0.779702
0.0414036
-0.0381118
-0.642992
0.639701
0.033314
-0.0264469
-0.47193
0.465063
0.0196101
-0.0125671
-0.276855
0.269812
0.00729271
-0.00310746
-0.118106
0.113921
0.000849916
-0.0179993
0.0171494
-0.0303993
0.0309349
-0.000535541
0.00308142
-0.00437364
-0.22729
0.228582
0.00553581
-0.00643162
-0.397222
0.398118
0.00744675
-0.00870317
-0.557513
0.55877
0.0106219
-0.0129784
-0.686016
0.688372
0.0161019
-0.0192891
-0.810321
0.813508
0.0230136
-0.0265434
-0.957182
0.960712
0.0305047
-0.0341444
-1.13376
1.1374
0.0380821
-0.0415325
-1.34484
1.34829
0.0450236
-0.0478014
-1.59713
1.59991
0.0498828
-0.0513012
-1.58513
1.58654
0.0520366
-0.052362
-1.31727
1.3176
0.0522042
-0.0517022
-1.10026
1.09976
0.0512073
-0.0507397
-0.923999
0.923532
0.0502182
-0.0489062
-0.778579
0.777267
0.0466829
-0.0424615
-0.636222
0.632
0.0367231
-0.0288799
-0.457853
0.45001
0.0212986
-0.0136085
-0.26251
0.25482
0.00788472
-0.003355
-0.109592
0.105062
0.000916088
-0.0162748
0.0153587
-0.0315495
0.032312
-0.000762465
0.00461458
-0.00679951
-0.230309
0.232494
0.00905045
-0.0108691
-0.399484
0.401303
0.0127329
-0.0145946
-0.56074
0.562602
0.0170082
-0.0197671
-0.691176
0.693934
0.0233594
-0.0269856
-0.816695
0.820321
0.0312005
-0.0351731
-0.964183
0.968155
0.0396001
-0.0436307
-1.14102
1.14505
0.0479391
-0.0516524
-1.35172
1.35543
0.0553214
-0.0581336
-1.60261
1.60542
0.0601166
-0.0613212
-1.58773
1.58893
0.061809
-0.0618702
-1.31754
1.3176
0.06144
-0.0606031
-1.09938
1.09854
0.0598149
-0.0590656
-0.922716
0.921967
0.0580912
-0.0562122
-0.775712
0.773833
0.0531737
-0.0478101
-0.627575
0.622211
0.0409175
-0.0318675
-0.441739
0.432688
0.0233494
-0.0148413
-0.246793
0.238284
0.00856363
-0.00362738
-0.100357
0.0954206
0.000985341
-0.0144158
0.0134305
-0.0331503
0.0342088
-0.00105853
0.00654001
-0.00981263
-0.23514
0.238412
0.0133235
-0.0162149
-0.403723
0.406614
0.0190678
-0.0216667
-0.565389
0.567988
0.0247269
-0.0280292
-0.697231
0.700533
0.0322301
-0.0364106
-0.823956
0.828136
0.0412292
-0.0457363
-0.972083
0.97659
0.0507158
-0.0551993
-1.14907
1.15355
0.0599206
-0.0639072
-1.35911
1.36309
0.0677327
-0.0705342
-1.60812
1.61092
0.0723643
-0.0733002
-1.58987
1.59081
0.0734829
-0.0732335
-1.31711
1.31687
0.0725169
-0.0713096
-1.09779
1.09659
0.0702084
-0.0691655
-0.920808
0.919765
0.0676282
-0.0650665
-0.771753
0.769191
0.0610107
-0.0542202
-0.616602
0.609811
0.0458975
-0.0353585
-0.423109
0.41257
0.02569
-0.0161969
-0.229362
0.219869
0.00927908
-0.00389914
-0.0902886
0.0849086
0.0010497
-0.0124201
0.0113704
-0.0353308
0.0368006
-0.00146985
0.00906027
-0.0136985
-0.242127
0.246765
0.0187086
-0.0228404
-0.410307
0.414439
0.02684
-0.0303275
-0.571792
0.575279
0.034216
-0.038222
-0.704478
0.708484
0.043203
-0.0480772
-0.832328
0.837202
0.0536295
-0.0587692
-0.981071
0.986211
0.0643818
-0.06936
-1.15802
1.163
0.0745024
-0.0787365
-1.36701
1.37125
0.0826577
-0.0853658
-1.61356
1.61627
0.0869488
-0.0875188
-1.59141
1.59198
0.0873358
-0.0867058
-1.31591
1.31528
0.0856495
-0.084061
-1.09544
1.09385
0.0826394
-0.0811377
-0.918204
0.916702
0.0790998
-0.0755898
-0.766393
0.762883
0.0702454
-0.0616567
-0.60271
0.594121
0.0515578
-0.0392052
-0.401392
0.389039
0.0281707
-0.0175539
-0.209899
0.199282
0.00994989
-0.0041321
-0.0793319
0.0735141
0.00109791
-0.0103021
0.00920423
-0.038294
0.0403474
-0.00205345
0.0125725
-0.0189363
-0.251784
0.258147
0.0257436
-0.0313185
-0.419729
0.425304
0.0366694
-0.0412433
-0.580335
0.584909
0.0461686
-0.0510873
-0.713259
0.718178
0.057073
-0.0628022
-0.842083
0.847813
0.0692193
-0.0750685
-0.991339
0.997188
0.0813487
-0.0868047
-1.16794
1.1734
0.0922975
-0.0966712
-1.37535
1.37973
0.10053
-0.102979
-1.61873
1.62118
0.104157
-0.104221
-1.59214
1.5922
0.103591
-0.102462
-1.31382
1.31269
0.101032
-0.0990627
-1.09226
1.0903
0.0972967
-0.0952219
-0.914541
0.912466
0.0926106
-0.0878714
-0.759073
0.754334
0.0808544
-0.0699739
-0.585124
0.574243
0.0576726
-0.0431475
-0.375941
0.361416
0.0305523
-0.0187353
-0.188158
0.176341
0.0104656
-0.00427785
-0.067528
0.0613403
0.00111659
-0.00810045
0.00698386
-0.0423666
0.0453288
-0.00296222
0.0176542
-0.0262912
-0.26484
0.273477
0.0353179
-0.0426288
-0.432662
0.439973
0.0495958
-0.0554823
-0.591519
0.597405
0.0617752
-0.0679247
-0.724015
0.730164
0.0751333
-0.0818363
-0.85352
0.860223
0.0891759
-0.0957183
-1.00301
1.00955
0.102574
-0.108362
-1.17873
1.18452
0.113988
-0.118269
-1.38384
1.38812
0.121791
-0.123727
-1.62324
1.62517
0.124277
-0.123643
-1.59174
1.59111
0.122419
-0.120695
-1.31064
1.30891
0.118864
-0.116481
-1.0882
1.08581
0.114297
-0.111639
-0.909591
0.906933
0.1082
-0.10179
-0.749158
0.742748
0.0925706
-0.0787834
-0.562816
0.549029
0.0637915
-0.0467477
-0.346081
0.329037
0.0324737
-0.0195001
-0.164052
0.151078
0.0106873
-0.00428033
-0.0550539
0.0486469
0.0010914
-0.00587961
0.00478821
-0.0481328
0.0526234
-0.00449059
0.0255158
-0.0372287
-0.282473
0.294186
0.0491285
-0.0587673
-0.450162
0.459801
0.0677819
-0.0752545
-0.605934
0.613406
0.0831836
-0.0908479
-0.73718
0.744845
0.099333
-0.106948
-0.866842
0.874457
0.115046
-0.122051
-1.01596
1.02296
0.129151
-0.134921
-1.19
1.19578
0.140267
-0.144073
-1.39193
1.39574
0.146845
-0.147915
-1.62653
1.6276
0.147537
-0.145956
-1.58982
1.58824
0.143961
-0.141541
-1.30616
1.30374
0.139226
-0.136396
-1.08311
1.08028
0.133704
-0.130411
-0.90327
0.899977
0.125717
-0.116968
-0.735663
0.726914
0.10482
-0.0873872
-0.534497
0.517065
0.0692048
-0.0493998
-0.311223
0.291418
0.0334846
-0.0195805
-0.137787
0.123883
0.010475
-0.00408764
-0.0422612
0.0358738
0.00100885
-0.00372968
0.00272083
-0.0566872
0.0643356
-0.00764835
0.0392306
-0.0554674
-0.306853
0.32309
0.0714244
-0.0842652
-0.473865
0.486706
0.0954458
-0.104377
-0.62406
0.632991
0.1139
-0.122918
-0.753059
0.762077
0.132426
-0.140509
-0.881768
0.889851
0.148742
-0.155582
-1.02956
1.03639
0.162243
-0.167368
-1.20093
1.20606
0.171794
-0.174537
-1.39877
1.40152
0.175993
-0.175717
-1.62783
1.62755
0.174022
-0.171214
-1.58585
1.58304
0.16825
-0.164986
-1.30015
1.29688
0.162087
-0.15876
-1.07685
1.07352
0.155507
-0.151198
-0.895182
0.890874
0.144659
-0.132585
-0.717097
0.705023
0.116488
-0.0945867
-0.498556
0.476655
0.0729465
-0.0504575
-0.271102
0.248613
0.0332086
-0.0188206
-0.11002
0.095632
0.00976606
-0.00367891
-0.0296845
0.0235974
0.00085695
-0.00175717
0.000900216
-0.0714378
0.0757149
-0.00427703
0.0299375
-0.0441467
-0.341972
0.356182
0.0584326
-0.0702795
-0.505179
0.517026
0.080962
-0.091022
-0.645633
0.655693
0.102383
-0.112946
-0.77048
0.781044
0.124746
-0.135247
-0.896896
0.907397
0.146489
-0.156561
-1.04233
1.0524
0.167225
-0.176506
-1.21014
1.21942
0.185952
-0.193724
-1.40314
1.41091
0.201021
-0.206252
-1.62616
1.63139
0.20942
-0.211162
-1.57922
1.58096
0.211673
-0.211702
-1.29229
1.29232
0.211765
-0.211062
-1.06906
1.06835
0.209532
-0.204911
-0.884179
0.879557
0.195128
-0.176016
-0.691267
0.672155
0.15058
-0.117723
-0.453557
0.4207
0.0873413
-0.0576881
-0.226151
0.196498
0.0364498
-0.019806
-0.0819907
0.0653469
0.00982485
-0.00348065
-0.017981
0.0116368
0.000729876
-2.9816e-05
-0.00070006
-0.0832848
0.0813435
0.0019413
0.00805196
-0.0172887
-0.373162
0.382399
0.0281739
-0.0367862
-0.533581
0.542193
0.0455171
-0.0539011
-0.668535
0.676919
0.0642544
-0.0740461
-0.791051
0.800843
0.0845998
-0.0942519
-0.917264
0.926916
0.10457
-0.11347
-1.06219
1.07109
0.123085
-0.13109
-1.2285
1.2365
0.139221
-0.145672
-1.41839
1.42484
0.151323
-0.155185
-1.63596
1.63982
0.15715
-0.157785
-1.58226
1.58289
0.157151
-0.156011
-1.29137
1.29023
0.155002
-0.153672
-1.0652
1.06387
0.151283
-0.145124
-0.87017
0.864011
0.134253
-0.11607
-0.649009
0.630826
0.0947674
-0.069976
-0.385911
0.36112
0.0493539
-0.0312578
-0.167636
0.14954
0.019148
-0.0101588
-0.0498406
0.0408515
0.0049191
-0.00169986
-0.00551263
0.00229339
0.000328946
0.00164625
-0.00197519
-0.0847956
0.0818418
0.0029538
-0.00107593
-0.00423645
-0.394399
0.399711
0.0114863
-0.0178367
-0.554754
0.561105
0.0243167
-0.0315416
-0.687941
0.695166
0.0405406
-0.0490342
-0.809626
0.81812
0.0584008
-0.0668076
-0.935719
0.944126
0.0755515
-0.0834812
-1.07981
1.08774
0.0918438
-0.0989043
-1.24408
1.25114
0.105632
-0.11081
-1.43066
1.43583
0.115383
-0.118086
-1.64309
1.6458
0.118954
-0.118571
-1.58304
1.58266
0.11717
-0.115385
-1.28849
1.2867
0.113376
-0.111197
-1.05961
1.05743
0.1081
-0.101556
-0.85394
0.847396
0.091318
-0.0756799
-0.609758
0.594119
0.0592425
-0.0418845
-0.334813
0.317455
0.028966
-0.0184169
-0.13139
0.120841
0.0115199
-0.00637288
-0.0319375
0.0267905
0.00323607
-0.00119199
0.00115955
-0.00320363
0.000256706
0.00252023
-0.00277694
-0.0835198
0.0806406
0.00287928
-0.00507289
0.00242129
-0.408557
0.411208
0.00229015
-0.00709432
-0.570557
0.575361
0.0125318
-0.0185741
-0.703884
0.709927
0.0262881
-0.0335614
-0.825872
0.833145
0.0415403
-0.0487275
-0.951929
0.959116
0.0565914
-0.0633009
-1.0952
1.1019
0.0705533
-0.0762068
-1.25775
1.2634
0.0818974
-0.0861523
-1.44075
1.445
0.0895474
-0.0910106
-1.64808
1.64954
0.0911093
-0.090041
-1.58175
1.58068
0.0880756
-0.0852916
-1.28436
1.28158
0.0826162
-0.0795636
-1.05268
1.04962
0.0757524
-0.0696933
-0.836809
0.83075
0.060688
-0.0485547
-0.576075
0.563942
0.0369785
-0.0260414
-0.29921
0.288273
0.0184531
-0.0124243
-0.109661
0.103632
0.00833999
-0.00506502
-0.0210554
0.0177804
0.00281739
-0.00115918
0.00571895
-0.00737716
0.000292199
0.00322734
-0.00351953
-0.0819157
0.079334
0.00258161
-0.00650219
0.00552887
-0.41802
0.418993
-0.00200786
-0.00156269
-0.583188
0.586759
0.00587556
-0.0113106
-0.717243
0.722678
0.017771
-0.0241253
-0.839624
0.845979
0.030995
-0.0371987
-0.965791
0.971995
0.0438982
-0.0497898
-1.10843
1.11432
0.0558584
-0.0608876
-1.26885
1.27388
0.0656084
-0.0689931
-1.44881
1.45219
0.0714347
-0.0720377
-1.65077
1.65137
0.0713376
-0.0692926
-1.57883
1.57679
0.0666787
-0.0633489
-1.27842
1.27509
0.0600179
-0.0560276
-1.04452
1.04053
0.0518639
-0.046188
-0.820545
0.814869
0.0390135
-0.0300848
-0.549708
0.54078
0.0224895
-0.0160405
-0.276088
0.269639
0.0118452
-0.00865191
-0.0967516
0.0935584
0.00633465
-0.00422186
-0.0138474
0.0117346
0.00256927
-0.00115537
0.0094409
-0.0108548
0.000328387
0.00395463
-0.00428301
-0.0803556
0.0781133
0.00224232
-0.00663418
0.00624498
-0.424437
0.424826
-0.00416819
0.00129374
-0.59289
0.595764
0.00285846
-0.00748258
-0.728496
0.73312
0.0129855
-0.0184467
-0.851455
0.856916
0.0244812
-0.0299571
-0.977788
0.983264
0.0359873
-0.0410585
-1.11988
1.12495
0.0463689
-0.0507199
-1.27854
1.28289
0.0546477
-0.0573078
-1.45519
1.45785
0.0589212
-0.0591379
-1.65175
1.65196
0.0576746
-0.0550666
-1.57414
1.57153
0.0518224
-0.0478086
-1.27125
1.26724
0.0440877
-0.0393051
-1.03513
1.03035
0.0346576
-0.0294243
-0.80544
0.800207
0.0235265
-0.0170193
-0.529863
0.523356
0.0122455
-0.00879958
-0.261859
0.258413
0.0069957
-0.00566811
-0.0893565
0.0880289
0.00455883
-0.00337825
-0.00900173
0.00782114
0.00224605
-0.00111253
0.0125722
-0.0137057
0.000349771
0.00470116
-0.00505093
-0.0790782
0.0772911
0.00178711
-0.00593946
0.00596967
-0.429072
0.429042
-0.00430937
0.00218755
-0.601265
0.603387
0.00164107
-0.00579131
-0.738156
0.742306
0.0109278
-0.0155693
-0.861926
0.866567
0.0207927
-0.0255667
-0.98865
0.993424
0.0311602
-0.0356388
-1.12999
1.13447
0.0402025
-0.0441059
-1.28697
1.29088
0.0478492
-0.0499744
-1.46041
1.46253
0.0511374
-0.0506992
-1.65162
1.65118
0.0489755
-0.0455286
-1.56849
1.56504
0.0419367
-0.0375138
-1.26272
1.25829
0.0331179
-0.0279753
-1.0246
1.01946
0.0229045
-0.0175759
-0.791391
0.786063
0.0127746
-0.0078121
-0.51484
0.509877
0.00482808
-0.0034293
-0.253328
0.25193
0.00298707
-0.00282788
-0.0855979
0.0854387
0.00261811
-0.00221595
-0.00616499
0.00576284
0.00163104
-0.000899171
0.014961
-0.0156928
0.000320502
0.00540086
-0.00572137
-0.0782668
0.0768399
0.00142695
-0.00497978
0.00522446
-0.43258
0.432336
-0.00377242
0.00181043
-0.608427
0.610389
0.00175655
-0.00544383
-0.746712
0.7504
0.00977356
-0.0141617
-0.871128
0.875516
0.0188953
-0.0237045
-0.99794
1.00275
0.0284068
-0.0325385
-1.13899
1.14312
0.0370278
-0.0404639
-1.29456
1.298
0.043412
-0.0456064
-1.46444
1.46663
0.0464729
-0.0457916
-1.65064
1.64996
0.0436092
-0.0400287
-1.56157
1.55799
0.0360755
-0.0311935
-1.25321
1.24833
0.0264472
-0.020833
-1.01337
1.00776
0.0154715
-0.0102186
-0.777775
0.772522
0.00566815
-0.00178322
-0.502893
0.499008
-0.000152211
0.000679242
-0.248449
0.247922
-0.000423019
-0.000142252
-0.0843342
0.0848994
0.000556638
-0.000844761
-0.00502373
0.00531186
0.000817757
-0.000547766
0.0163955
-0.0166655
0.000232524
0.00596362
-0.00619614
-0.0779772
0.0767636
0.00121359
-0.00375571
0.00381097
-0.435566
0.435511
-0.00262347
0.000737964
-0.614866
0.616752
0.00252828
-0.00604073
-0.75455
0.758062
0.0101146
-0.0140167
-0.879678
0.88358
0.0187786
-0.0226763
-1.00691
1.0108
0.0272208
-0.0310397
-1.14735
1.15117
0.0352291
-0.0386566
-1.30132
1.30475
0.0416358
-0.0433065
-1.46846
1.47013
0.0441037
-0.0433453
-1.64903
1.64827
0.0412758
-0.0373828
-1.55407
1.55017
0.0332756
-0.0281343
-1.24326
1.23812
0.0231767
-0.0172433
-1.00131
0.995372
0.011788
-0.00625642
-0.764583
0.759051
0.00199977
0.00144308
-0.492893
0.48945
-0.00313526
0.00325832
-0.245282
0.245159
-0.0027409
0.00184944
-0.0844632
0.0853547
-0.00107143
0.000324729
-0.00527952
0.00602622
6.70934e-05
-0.000207367
0.0168218
-0.0166815
0.000127249
0.00628643
-0.00641368
-0.0779659
0.0770869
0.000878977
-0.00262911
0.00223212
-0.438523
0.43892
-0.00124917
-0.000672565
-0.620465
0.622386
0.00357202
-0.00690497
-0.76174
0.765072
0.0107459
-0.0147187
-0.887333
0.891306
0.0187716
-0.0227547
-1.01487
1.01885
0.0271547
-0.0306438
-1.15536
1.15885
0.0347802
-0.0379985
-1.30789
1.31111
0.0408095
-0.0427727
-1.47211
1.47407
0.0437263
-0.0428638
-1.6474
1.64653
0.0405786
-0.0369216
-1.54627
1.54261
0.0329178
-0.0276582
-1.23262
1.22736
0.0225166
-0.0167017
-0.988923
0.983108
0.0107858
-0.00519867
-0.751367
0.74578
0.000977064
0.00234973
-0.483799
0.480473
-0.0039787
0.00436946
-0.242813
0.242422
-0.00392197
0.0030642
-0.085268
0.0861258
-0.00216746
0.00121034
-0.00641673
0.00737385
-0.000550153
0.000111156
0.0164414
-0.0160024
2.44225e-05
0.00637997
-0.0064044
-0.0783676
0.0776651
0.00070255
-0.00166088
0.00131046
-0.441624
0.441974
0.000169712
-0.00192022
-0.626062
0.627813
0.00496322
-0.00813148
-0.768327
0.771495
0.0117778
-0.0152955
-0.894932
0.89845
0.0194164
-0.0230142
-1.02279
1.02638
0.0272766
-0.0311247
-1.16275
1.1666
0.0347737
-0.0381955
-1.3143
1.31773
0.0412656
-0.0431234
-1.47583
1.47768
0.0441872
-0.0438021
-1.64576
1.64537
0.0416264
-0.0382158
-1.53865
1.53524
0.0340931
-0.028961
-1.22197
1.21683
0.0239645
-0.0180333
-0.97655
0.970619
0.0122776
-0.00646571
-0.738364
0.732552
0.00203613
0.00150197
-0.474706
0.471168
-0.00336652
0.0041243
-0.24015
0.239392
-0.0041226
0.00351689
-0.0860258
0.0866315
-0.00271748
0.00174152
-0.00794365
0.0089196
-0.000971757
0.000354094
0.0155008
-0.0148831
-6.5118e-05
0.00627779
-0.00621267
-0.0790733
0.0785504
0.000522894
-0.000579331
5.22069e-05
-0.444846
0.445373
0.00127629
-0.00332081
-0.631209
0.633253
0.00627811
-0.00926728
-0.7746
0.777589
0.0129752
-0.0163098
-0.901932
0.905267
0.0202248
-0.0238968
-1.03043
1.0341
0.0280023
-0.0317447
-1.17025
1.17399
0.0355298
-0.0388833
-1.321
1.32435
0.0420084
-0.044479
-1.47975
1.48222
0.0457827
-0.0454597
-1.6448
1.64448
0.0437059
-0.0403284
-1.53158
1.5282
0.0365225
-0.031717
-1.21152
1.20671
0.026602
-0.0207482
-0.964188
0.958334
0.0150604
-0.00905589
-0.725419
0.719414
0.00443276
-0.000488923
-0.465563
0.461619
-0.00172472
0.00300676
-0.236824
0.235542
-0.00337684
0.00314299
-0.0862232
0.086457
-0.00262158
0.0018238
-0.00944499
0.0102428
-0.00110925
0.000463776
0.0142726
-0.0136272
-0.000107365
0.006023
-0.00591564
-0.0800251
0.0796302
0.000394945