/*--------------------------------*- C++ -*----------------------------------*\
  =========                 |
  \\      /  F ield         | OpenFOAM: The Open Source CFD Toolbox
   \\    /   O peration     | Website:  https://openfoam.org
    \\  /    A nd           | Version:  6
     \\/     M anipulation  |
\*---------------------------------------------------------------------------*/
FoamFile
{
    version     2.0;
    format      ascii;
    class       surfaceScalarField;
    location    "115.8";
    object      phi;
}
// * * * * * * * * * * * * * * * * * * * * * * * * * * * * * * * * * * * * * //

dimensions      [0 3 -1 0 0 0 0];

internalField   nonuniform List<scalar> 
17370
(
-0.0899999
0.0898489
0.289162
-0.0714624
0.0537526
0.364485
-0.0381196
0.0276907
0.426597
-0.0196394
0.0146072
0.504284
-0.0107664
0.00827722
0.601891
-0.00627866
0.00490265
0.720434
-0.0037385
0.00289718
0.863748
-0.00215455
0.00159439
1.03601
-0.00107676
0.000663288
1.24292
-0.000254458
-0.000145571
1.49159
0.000526497
-0.000937247
1.4916
0.00133126
-0.00181092
1.24317
0.00233136
-0.00303577
1.03634
0.00385188
-0.00499875
0.864053
0.00636632
-0.00836024
0.721051
0.0108462
-0.0146827
0.603051
0.0197097
-0.027754
0.507484
0.0381754
-0.0537998
0.431793
0.0715014
-0.0898754
0.36515
0.0900165
0.198994
-0.128139
0.0882315
0.0399076
-0.364602
0.353384
-0.0746665
0.0858837
-0.446478
0.454324
-0.0843787
0.0765325
-0.521193
0.529905
-0.0684343
0.0597219
-0.612792
0.621572
-0.0515324
0.0427524
-0.726897
0.734168
-0.0352911
0.0280204
-0.867477
0.872597
-0.0224172
0.0172977
-1.03848
1.04193
-0.0134835
0.0100289
-1.2446
1.24704
-0.00741408
0.00497701
-1.49262
1.49461
-0.00302402
0.00103575
-1.49251
1.49423
0.000636289
-0.00236163
-1.24397
1.24585
0.00427256
-0.00615362
-1.03751
1.04002
0.0084933
-0.0110068
-0.866096
0.869826
0.0143549
-0.018085
-0.724388
0.72993
0.0231265
-0.0286689
-0.608695
0.616107
0.0358815
-0.0432935
-0.514894
0.523037
0.0520219
-0.0601644
-0.439854
0.447911
0.0688251
-0.076882
-0.375293
0.376735
0.084675
-0.0861174
-0.257327
0.222471
0.0748246
-0.0399681
-0.0685284
0.0587057
0.00982274
-0.0517913
0.0583677
-0.374137
0.367561
-0.0574467
0.0536906
-0.453602
0.457358
-0.0485979
0.0446428
-0.527956
0.531911
-0.0408
0.0371581
-0.621574
0.625216
-0.0330521
0.0289708
-0.73536
0.739441
-0.0243926
0.0202251
-0.874351
0.878519
-0.0158699
0.0121678
-1.0435
1.0472
-0.00842196
0.00524244
-1.24857
1.25175
-0.00190805
-0.00117177
-1.49666
1.49974
0.00422515
-0.00749392
-1.4972
1.50047
0.0105665
-0.0141512
-1.25006
1.25365
0.0176897
-0.0218705
-1.04591
1.05009
0.0258942
-0.0303315
-0.877747
0.882185
0.0342981
-0.0382904
-0.739888
0.743881
0.0418358
-0.0455793
-0.626762
0.630506
0.0494491
-0.0544604
-0.534801
0.539812
0.0581244
-0.0589302
-0.457465
0.458271
0.0522158
-0.032002
-0.335735
0.315521
0.00989155
-0.0683333
0.0584417
-0.0529595
0.0489687
0.00399078
-0.0331289
0.0436596
-0.358139
0.347608
-0.0473465
0.0467114
-0.459304
0.45994
-0.043649
0.040291
-0.535822
0.53918
-0.0365128
0.0332031
-0.628552
0.631862
-0.0297575
0.0267167
-0.742673
0.745714
-0.0234461
0.0203274
-0.882045
0.885163
-0.0167838
0.0133928
-1.0508
1.05419
-0.00958781
0.00603965
-1.25519
1.25874
-0.00206085
-0.00174491
-1.50325
1.50705
0.00551794
-0.00939391
-1.50412
1.508
0.0127909
-0.0163755
-1.2574
1.26099
0.019542
-0.0228418
-1.05389
1.05719
0.0257542
-0.0288185
-0.885659
0.888723
0.0316888
-0.0349644
-0.74713
0.750405
0.038131
-0.0417645
-0.634281
0.637914
0.0449985
-0.0479183
-0.544113
0.547032
0.0484014
-0.0444996
-0.456544
0.452643
0.0337107
-0.0162397
-0.296137
0.278666
0.00407706
-0.0526167
0.0485396
-0.0458971
0.0434079
0.00248923
-0.0227614
0.0331171
-0.336939
0.326584
-0.0389186
0.0399226
-0.459637
0.458633
-0.0387214
0.0364272
-0.541911
0.544205
-0.0337517
0.0311473
-0.634926
0.637531
-0.0280728
0.0251606
-0.748772
0.751684
-0.0218795
0.0188696
-0.888127
0.891137
-0.0155466
0.0124316
-1.05733
1.06045
-0.00888979
0.00546818
-1.2622
1.26563
-0.00149283
-0.00240158
-1.51094
1.51483
0.00625168
-0.0100891
-1.51188
1.51572
0.0133106
-0.0165648
-1.26443
1.26769
0.0193872
-0.0223905
-1.06028
1.06328
0.0251257
-0.0281283
-0.891754
0.894757
0.0308073
-0.0336478
-0.753597
0.756437
0.0360551
-0.038534
-0.640966
0.643445
0.0406604
-0.0416379
-0.548821
0.549799
0.0403978
-0.034249
-0.44734
0.441191
0.0235112
-0.0102622
-0.263419
0.25017
0.00259617
-0.045369
0.0427728
-0.0413408
0.0395816
0.00175917
-0.0166877
0.0259061
-0.316761
0.307542
-0.0324807
0.0345997
-0.457054
0.454935
-0.0341627
0.0324805
-0.546198
0.547881
-0.0302888
0.028182
-0.639853
0.64196
-0.0257353
0.0233205
-0.754345
0.756759
-0.02044
0.0176292
-0.894047
0.896858
-0.014369
0.0112788
-1.06351
1.0666
-0.00776723
0.00442414
-1.26896
1.2723
-0.000575123
-0.00317119
-1.51862
1.52237
0.00686065
-0.010533
-1.51944
1.52311
0.013621
-0.0167674
-1.27094
1.27409
0.0194862
-0.0223381
-1.06629
1.06914
0.0247948
-0.0273137
-0.897543
0.900061
0.0294256
-0.031569
-0.758868
0.761011
0.0334224
-0.0353601
-0.645581
0.647519
0.036797
-0.0369296
-0.550294
0.550427
0.0344468
-0.0273614
-0.434489
0.427404
0.0176261
-0.00744075
-0.2386
0.228415
0.00189004
-0.0405842
0.0386941
-0.0380693
0.03675
0.00131934
-0.012711
0.0206122
-0.298991
0.291089
-0.0273171
0.0302075
-0.452406
0.449516
-0.0303876
0.0292488
-0.549333
0.550472
-0.027241
0.0253083
-0.644018
0.645951
-0.0230869
0.0209259
-0.759019
0.76118
-0.018381
0.0158686
-0.899451
0.901964
-0.0128938
0.00998539
-1.06956
1.07246
-0.00659343
0.00332752
-1.27558
1.27884
0.000442464
-0.00408887
-1.52602
1.52967
0.00766373
-0.011211
-1.52669
1.53024
0.0141567
-0.0170931
-1.27722
1.28016
0.0195388
-0.0220038
-1.07185
1.07432
0.024072
-0.0261606
-0.902313
0.904402
0.0279379
-0.0297739
-0.76297
0.764806
0.0313858
-0.0330835
-0.649318
0.651015
0.0338637
-0.0332559
-0.550186
0.549578
0.0298429
-0.0224358
-0.420096
0.412689
0.0138685
-0.00578559
-0.219379
0.211296
0.00147875
-0.0370337
0.035555
-0.0356012
0.0345891
0.00101209
-0.00989536
0.0165523
-0.283839
0.277182
-0.0229729
0.0262995
-0.446395
0.443068
-0.0270444
0.0263191
-0.551408
0.552133
-0.0245382
0.0227324
-0.647874
0.64968
-0.0206334
0.018585
-0.763279
0.765327
-0.0161735
0.0138075
-0.904327
0.906693
-0.0110256
0.00830186
-1.0752
1.07793
-0.00510391
0.00198554
-1.28199
1.28511
0.00165613
-0.00519289
-1.53323
1.53676
0.00864073
-0.0120055
-1.53366
1.53703
0.0147278
-0.0173647
-1.28303
1.28567
0.0195196
-0.0216737
-1.07666
1.07882
0.02349
-0.0253352
-0.906337
0.908182
0.0269068
-0.0285271
-0.766523
0.768143
0.0299343
-0.0312827
-0.652569
0.653917
0.0315628
-0.0302091
-0.548602
0.547249
0.0261598
-0.018812
-0.40528
0.397933
0.011316
-0.00469382
-0.20401
0.197388
0.00120614
-0.0342262
0.0330201
-0.0337049
0.0329222
0.000782764
-0.00779983
0.0133689
-0.271103
0.265534
-0.0192843
0.0227895
-0.439651
0.436146
-0.0239958
0.0235092
-0.552786
0.553273
-0.0219869
0.0202839
-0.651498
0.653201
-0.018271
0.016299
-0.767329
0.769301
-0.0139687
0.0116803
-0.908946
0.911234
-0.00899113
0.00636837
-1.08052
1.08315
-0.0033022
0.000319147
-1.28811
1.29109
0.00315888
-0.00652793
-1.54018
1.54354
0.00978767
-0.0129258
-1.54024
1.54338
0.015424
-0.0178057
-1.28827
1.29065
0.0197352
-0.0216573
-1.08091
1.08283
0.0232707
-0.0249037
-0.909894
0.911527
0.0262891
-0.0277123
-0.769652
0.771075
0.028916
-0.0298716
-0.655068
0.656023
0.0297702
-0.0277319
-0.545539
0.543501
0.0232588
-0.0161513
-0.390693
0.383586
0.00953816
-0.00394454
-0.191326
0.185732
0.00101874
-0.0319174
0.0308987
-0.0322401
0.0316364
0.000603782
-0.0061739
0.0108099
-0.260465
0.255829
-0.0161127
0.0195972
-0.432661
0.429176
-0.021108
0.0208362
-0.553707
0.553978
-0.0195348
0.0178846
-0.654941
0.656591
-0.0159175
0.0139843
-0.771239
0.773173
-0.0117003
0.00945869
-0.913413
0.915655
-0.00682521
0.0042614
-1.08566
1.08822
-0.001274
-0.00161385
-1.29397
1.29685
0.00495136
-0.00815266
-1.54677
1.54998
0.0112205
-0.0141436
-1.54635
1.54927
0.0164409
-0.0185971
-1.29304
1.29519
0.0203199
-0.0220213
-1.08471
1.08641
0.0234391
-0.0248683
-0.913024
0.914453
0.0260812
-0.0273236
-0.772392
0.773635
0.0283825
-0.0289113
-0.656773
0.657302
0.0284079
-0.0257826
-0.54116
0.538534
0.0210332
-0.0142231
-0.376629
0.369819
0.00829667
-0.00342859
-0.180535
0.175667
0.00089048
-0.0299516
0.0290611
-0.031116
0.0306585
0.00045754
-0.00485581
0.00868276
-0.25163
0.247803
-0.0133266
0.0166396
-0.425799
0.422486
-0.018312
0.0182171
-0.554227
0.554322
-0.017096
0.015472
-0.658311
0.659935
-0.0135148
0.0115835
-0.775084
0.777015
-0.00930307
0.00707172
-0.917791
0.920022
-0.00446023
0.00192806
-1.09068
1.09321
0.00100892
-0.00383003
-1.29964
1.30247
0.00706253
-0.0101291
-1.55305
1.55611
0.0130335
-0.0157625
-1.55204
1.55476
0.0178671
-0.0197983
-1.29737
1.2993
0.0213145
-0.0227984
-1.08808
1.08956
0.0240301
-0.0252718
-0.915748
0.91699
0.0263296
-0.0274082
-0.774774
0.775853
0.0282527
-0.028409
-0.65763
0.657786
0.0274702
-0.0243304
-0.535645
0.532505
0.0193924
-0.0128621
-0.36316
0.35663
0.00744602
-0.00308183
-0.171079
0.166715
0.00080594
-0.0282196
0.0274136
-0.0302731
0.0299406
0.000332523
-0.00374182
0.00685306
-0.244365
0.241254
-0.0108236
0.0138525
-0.419346
0.416317
-0.0155568
0.0155988
-0.554429
0.554387
-0.014546
0.0129803
-0.661623
0.663189
-0.0110022
0.0090376
-0.778933
0.780897
-0.00671946
0.00446019
-0.922153
0.924413
-0.00182975
-0.000705702
-1.09564
1.09818
0.00362685
-0.00641108
-1.3052
1.30798
0.00957136
-0.0125332
-1.55906
1.56202
0.0152988
-0.0178499
-1.55733
1.55988
0.0197679
-0.021476
-1.30128
1.30299
0.0227881
-0.02406
-1.09103
1.0923
0.0251111
-0.0261715
-0.918095
0.919155
0.0270815
-0.0279993
-0.776814
0.777732
0.0285799
-0.028426
-0.657788
0.657634
0.0270006
-0.0233747
-0.529124
0.525498
0.01828
-0.0119638
-0.350225
0.343908
0.00690032
-0.0028665
-0.16254
0.158506
0.000755762
-0.0266387
0.025883
-0.0296734
0.0294538
0.000219598
-0.00275504
0.00521507
-0.238499
0.236039
-0.00850957
0.0111688
-0.413512
0.410853
-0.0127882
0.0128908
-0.55441
0.554307
-0.0118648
0.0103244
-0.664846
0.666386
-0.00829871
0.00626862
-0.782852
0.784882
-0.00387378
0.00154876
-0.926574
0.928899
0.00114423
-0.00372346
-1.10062
1.1032
0.00667226
-0.0094564
-1.31068
1.31347
0.0125796
-0.0154637
-1.56486
1.56774
0.0181111
-0.0204999
-1.56226
1.56465
0.0222399
-0.0237285
-1.30478
1.30626
0.0248369
-0.0258947
-1.09356
1.09462
0.0267598
-0.0276276
-0.920073
0.920941
0.0283742
-0.0291218
-0.778472
0.779219
0.0294108
-0.0289017
-0.657351
0.656842
0.0270025
-0.0229092
-0.521659
0.517566
0.0176495
-0.0114528
-0.337675
0.331479
0.00660004
-0.00275562
-0.154588
0.150744
0.000732778
-0.0251442
0.0244114
-0.0292966
0.0291857
0.000110975
-0.00183071
0.00367443
-0.233917
0.232073
-0.00628451
0.00850131
-0.408463
0.406246
-0.00992576
0.010008
-0.554333
0.554251
-0.00897176
0.00741413
-0.668057
0.669614
-0.00530845
0.00317886
-0.786903
0.789033
-0.000666996
-0.00176208
-0.931128
0.933557
0.00456113
-0.00722466
-1.1057
1.10836
0.0102452
-0.0130673
-1.31618
1.319
0.0161903
-0.0190242
-1.57051
1.57335
0.0215733
-0.0238135
-1.56686
1.5691
0.025381
-0.0266536
-1.30786
1.30913
0.0275592
-0.0283987
-1.09568
1.09652
0.0290689
-0.0297363
-0.921662
0.922329
0.0303251
-0.0309199
-0.779782
0.780376
0.0308358
-0.0299011
-0.65616
0.655226
0.0274979
-0.0229226
-0.513266
0.50869
0.0174567
-0.0112708
-0.325315
0.319129
0.00650198
-0.00272991
-0.146956
0.143184
0.000731954
-0.0236844
0.0229524
-0.0291375
0.0291355
2.02572e-06
-0.000919379
0.00215706
-0.23056
0.229323
-0.00406446
0.0057726
-0.404339
0.402631
-0.0068979
0.00687662
-0.554369
0.554391
-0.00577965
0.0041611
-0.671343
0.672961
-0.00193172
-0.000335363
-0.791152
0.793419
0.00300915
-0.0055852
-0.93589
0.938466
0.00853864
-0.0113308
-1.11095
1.11374
0.0144705
-0.0173713
-1.32176
1.32466
0.0205342
-0.0233484
-1.57607
1.57888
0.0258205
-0.0279249
-1.57114
1.57325
0.0293268
-0.0303876
-1.31053
1.3116
0.0310905
-0.0317085
-1.09736
1.09798
0.0321775
-0.0326293
-0.922844
0.923296
0.0330261
-0.0333366
-0.780694
0.781005
0.0329436
-0.0315001
-0.654112
0.652669
0.0285495
-0.0234425
-0.503894
0.498787
0.017695
-0.0113932
-0.312917
0.306615
0.0065856
-0.00277988
-0.139415
0.135609
0.000750754
-0.0222163
0.0214656
-0.0291997
0.0293139
-0.000114199
2.63235e-05
0.000594372
-0.228415
0.227794
-0.00176516
0.00289727
-0.401272
0.40014
-0.00362195
0.00341146
-0.554697
0.554908
-0.00219256
0.000452198
-0.674801
0.676541
0.00194344
-0.00439385
-0.795674
0.798125
0.00728161
-0.0100533
-0.940948
0.943719
0.0132153
-0.0161853
-1.11647
1.11944
0.0194963
-0.0225199
-1.32751
1.33054
0.0257647
-0.0285904
-1.58159
1.58441
0.0310074
-0.0329886
-1.57513
1.57711
0.0342321
-0.0350807
-1.31279
1.31364
0.0355727
-0.0359571
-1.09859
1.09898
0.036216
-0.0364451
-0.923589
0.923818
0.0366306
-0.0365878
-0.781022
0.780979
0.035832
-0.0337921
-0.651021
0.648982
0.0302188
-0.0244938
-0.493428
0.487703
0.0183599
-0.0118018
-0.300222
0.293664
0.00683477
-0.00289719
-0.131758
0.12782
0.000786593
-0.0207022
0.0199156
-0.0294985
0.029752
-0.000253466
0.00101996
-0.00107838
-0.227519
0.227577
0.00070224
-0.000218895
-0.399403
0.398919
-3.36189e-06
-0.000492934
-0.55551
0.556006
0.00190343
-0.00382904
-0.678553
0.680479
0.00645372
-0.00914171
-0.800559
0.803247
0.0123036
-0.015327
-0.946401
0.949424
0.0187598
-0.0219635
-1.12235
1.12556
0.0255038
-0.0286978
-1.33352
1.33672
0.0320683
-0.0349336
-1.58713
1.58999
0.0373089
-0.0391775
-1.57885
1.58072
0.0402726
-0.0409071
-1.3146
1.31524
0.0411741
-0.041305
-1.09934
1.09947
0.0413332
-0.0413238
-0.923869
0.92386
0.04132
-0.0408107
-0.780639
0.78013
0.039608
-0.0368668
-0.646726
0.643985
0.0325667
-0.0261006
-0.481678
0.475212
0.0194483
-0.0124804
-0.28694
0.279972
0.00723416
-0.00307327
-0.12379
0.119629
0.000836617
-0.0191089
0.0182723
-0.0300753
0.0304724
-0.000397128
0.00213395
-0.00284907
-0.227943
0.228658
0.00335857
-0.00364907
-0.398878
0.399169
0.00408582
-0.00496877
-0.557038
0.55792
0.00664317
-0.00882718
-0.682732
0.684916
0.0117576
-0.0147515
-0.805913
0.808907
0.0182603
-0.0216019
-0.952365
0.955706
0.0253775
-0.0288781
-1.12872
1.13222
0.0327115
-0.0361267
-1.33988
1.3433
0.0396669
-0.0425981
-1.59275
1.59568
0.0449402
-0.0466898
-1.58229
1.58404
0.0476233
-0.0480499
-1.31597
1.3164
0.048084
-0.047946
-1.09957
1.09943
0.0477307
-0.0474661
-0.923634
0.92337
0.0472051
-0.046181
-0.779363
0.778339
0.0444259
-0.0408394
-0.641013
0.637426
0.0356651
-0.0282889
-0.468377
0.461
0.0209567
-0.0134117
-0.272758
0.265213
0.0077671
-0.00329842
-0.115334
0.110865
0.000897505
-0.0174099
0.0165124
-0.0309611
0.0315395
-0.000578437
0.00341555
-0.00493035
-0.229799
0.231314
0.00636931
-0.00749974
-0.399898
0.401028
0.00871545
-0.0101269
-0.559498
0.56091
0.0122094
-0.0147375
-0.68748
0.690008
0.0180646
-0.0214435
-0.811874
0.815252
0.0253847
-0.029122
-0.958976
0.962713
0.0333228
-0.0371903
-1.1357
1.13956
0.0413845
-0.0450712
-1.34669
1.35038
0.0488208
-0.0518385
-1.5985
1.60152
0.0541533
-0.0557807
-1.58544
1.58707
0.0565528
-0.0567483
-1.31687
1.31706
0.0565236
-0.0560988
-1.09923
1.09881
0.0556319
-0.0550863
-0.922857
0.922312
0.0544215
-0.0528984
-0.777151
0.775628
0.0504211
-0.0458066
-0.633577
0.628962
0.0395672
-0.0310654
-0.453165
0.444664
0.0228637
-0.0145642
-0.257338
0.249038
0.00840673
-0.00355772
-0.106224
0.101375
0.000964258
-0.0155855
0.0146212
-0.0322222
0.0330352
-0.000812969
0.00499838
-0.00743028
-0.233299
0.23573
0.00995211
-0.0120278
-0.402673
0.404749
0.014145
-0.016209
-0.563149
0.565213
0.0188362
-0.0218102
-0.692978
0.695952
0.02565
-0.0295076
-0.818605
0.822463
0.0339838
-0.0382077
-0.966396
0.97062
0.0429266
-0.0472359
-1.14342
1.14773
0.0518581
-0.0558605
-1.35405
1.35806
0.059846
-0.0629522
-1.60441
1.60752
0.0652239
-0.0667086
-1.58828
1.58976
0.067311
-0.0672267
-1.3172
1.31712
0.0667266
-0.0659876
-1.0983
1.09756
0.0652556
-0.0644497
-0.921483
0.920677
0.0632592
-0.0611265
-0.773999
0.771866
0.0577567
-0.0518579
-0.624019
0.618121
0.0442972
-0.0343988
-0.435588
0.42569
0.0251118
-0.0158783
-0.24032
0.231087
0.00910771
-0.00382769
-0.0963254
0.0910454
0.0010294
-0.0136272
0.0125978
-0.0339555
0.0350764
-0.00112093
0.0069918
-0.010534
-0.238674
0.242216
0.014333
-0.0174937
-0.407504
0.410665
0.0206462
-0.0234932
-0.56828
0.571127
0.0268244
-0.0303734
-0.699455
0.703005
0.0348785
-0.0393356
-0.826304
0.830762
0.0444699
-0.0492835
-0.97481
0.979623
0.0546195
-0.0594431
-1.15204
1.15687
0.064548
-0.0688899
-1.36204
1.36638
0.073107
-0.0762721
-1.61047
1.61363
0.0784584
-0.0797488
-1.59075
1.59204
0.0801381
-0.0797484
-1.31687
1.31649
0.0789511
-0.0778717
-1.09671
1.09563
0.0768721
-0.075763
-0.919546
0.918437
0.0740086
-0.0710769
-0.769684
0.766752
0.0665549
-0.0590136
-0.611809
0.604268
0.0497986
-0.0381789
-0.415083
0.403463
0.0275773
-0.017248
-0.221354
0.211025
0.00979686
-0.00407319
-0.0855529
0.0798292
0.00108245
-0.011543
0.0104606
-0.0362967
0.0378403
-0.00154361
0.00960706
-0.0145292
-0.246281
0.251204
0.0198519
-0.0242744
-0.41476
0.419183
0.0286132
-0.0323974
-0.575223
0.579007
0.0366141
-0.0409276
-0.707188
0.711502
0.0462678
-0.0514758
-0.835215
0.840423
0.0574133
-0.0629266
-0.984427
0.989941
0.068972
-0.0743618
-1.1617
1.16709
0.0799675
-0.0846289
-1.37068
1.37535
0.0890187
-0.0921609
-1.61659
1.61974
0.0941724
-0.0951809
-1.59273
1.59374
0.0952908
-0.0945947
-1.31583
1.31513
0.0934231
-0.0919955
-1.09442
1.09299
0.0907281
-0.0891273
-0.916863
0.915263
0.0868515
-0.0828271
-0.763765
0.75974
0.0768139
-0.0671691
-0.596199
0.586554
0.0558843
-0.0421748
-0.390985
0.377275
0.0300395
-0.0185045
-0.200137
0.188602
0.0103666
-0.00424628
-0.0739083
0.067788
0.00111005
-0.00936326
0.00825321
-0.0394563
0.0416126
-0.00215622
0.0132137
-0.0199008
-0.256629
0.263316
0.0270555
-0.0329508
-0.424919
0.430815
0.0386632
-0.0435813
-0.584368
0.589286
0.0489032
-0.054203
-0.716569
0.721869
0.0606247
-0.0667602
-0.845635
0.85177
0.0736447
-0.0799446
-0.995465
1.00176
0.0867446
-0.0926935
-1.17247
1.17842
0.0987393
-0.103622
-1.3799
1.38479
0.108039
-0.111002
-1.62258
1.62555
0.112688
-0.113278
-1.59402
1.59461
0.113015
-0.111946
-1.314
1.31293
0.110383
-0.10858
-1.09142
1.08962
0.107024
-0.104876
-0.913056
0.910908
0.101917
-0.0964091
-0.755618
0.750109
0.0883933
-0.0760207
-0.576223
0.56385
0.0621611
-0.0459802
-0.362562
0.346381
0.0321518
-0.0194091
-0.1765
0.163757
0.0106769
-0.0042896
-0.0615244
0.0551371
0.00109754
-0.0071455
0.00604797
-0.043778
0.0468798
-0.00310187
0.0184545
-0.0274502
-0.270471
0.279466
0.0368385
-0.0445156
-0.438671
0.446348
0.0518942
-0.0581761
-0.596219
0.602501
0.0649331
-0.0715929
-0.728029
0.734689
0.0792882
-0.0864587
-0.857894
0.865064
0.0943535
-0.101437
-1.00806
1.01515
0.108915
-0.11529
-1.18428
1.19065
0.121572
-0.126456
-1.38944
1.39433
0.130633
-0.133168
-1.62808
1.63062
0.134302
-0.134281
-1.59432
1.5943
0.133524
-0.132007
-1.31122
1.3097
0.130044
-0.127804
-1.08766
1.08542
0.125824
-0.123163
-0.908003
0.905341
0.119115
-0.111538
-0.744372
0.736795
0.10083
-0.0849498
-0.550595
0.534715
0.0679532
-0.0489808
-0.329104
0.310132
0.0334413
-0.0196725
-0.150527
0.136758
0.0105749
-0.00414713
-0.0487085
0.0422808
0.00103215
-0.00497521
0.00394305
-0.0498615
0.0545652
-0.00470368
0.0265869
-0.0386972
-0.288998
0.301108
0.0509567
-0.0609909
-0.457131
0.467166
0.0704168
-0.0783429
-0.611355
0.619281
0.0868798
-0.0950918
-0.742113
0.750325
0.104194
-0.112394
-0.872198
0.880399
0.121166
-0.128813
-1.02213
1.02978
0.136641
-0.143094
-1.19676
1.20322
0.1492
-0.1537
-1.39878
1.40328
0.157225
-0.15898
-1.63254
1.6343
0.159263
-0.15838
-1.59324
1.59236
0.156963
-0.154887
-1.30726
1.30518
0.152462
-0.149696
-1.08301
1.08025
0.147276
-0.143841
-0.901502
0.898068
0.138202
-0.127611
-0.728724
0.718133
0.113244
-0.0929281
-0.517708
0.497392
0.0722639
-0.0503885
-0.290115
0.26824
0.0333777
-0.0190211
-0.122727
0.108371
0.00993826
-0.00378199
-0.0359618
0.0298055
0.000905911
-0.00295796
0.00205205
-0.05885
0.0668885
-0.00803851
0.0408426
-0.0575524
-0.314429
0.331139
0.0738572
-0.0869806
-0.481893
0.495016
0.0985272
-0.108092
-0.630306
0.63987
0.118417
-0.128078
-0.759012
0.768673
0.138281
-0.14703
-0.888324
0.897073
0.156037
-0.163613
-1.03705
1.04462
0.171109
-0.177011
-1.20909
1.215
0.182299
-0.18583
-1.40705
1.41058
0.188147
-0.188652
-1.63519
1.6357
0.187698
-0.185662
-1.59026
1.58823
0.183385
-0.180623
-1.30184
1.29908
0.177642
-0.17428
-1.07726
1.0739
0.171234
-0.166505
-0.89281
0.88808
0.158359
-0.143366
-0.706595
0.691602
0.124013
-0.0983955
-0.47564
0.450023
0.0738857
-0.0494883
-0.245683
0.221286
0.0316158
-0.0173633
-0.0941867
0.0799341
0.00875712
-0.00319921
-0.023942
0.0183841
0.000717258
-0.00120196
0.000484697
-0.0743489
0.0789212
-0.0045723
0.0314774
-0.0461647
-0.350821
0.365508
0.0608523
-0.0729539
-0.514192
0.526293
0.0841217
-0.0948551
-0.652973
0.663706
0.107193
-0.118484
-0.777625
0.788916
0.131107
-0.142456
-0.904846
0.916194
0.154732
-0.165841
-1.05133
1.06244
0.177744
-0.188257
-1.21989
1.23041
0.199172
-0.208394
-1.41304
1.42226
0.217394
-0.224291
-1.63508
1.64198
0.229157
-0.232753
-1.58476
1.58836
0.23499
-0.236665
-1.29464
1.29631
0.23747
-0.237035
-1.06993
1.06949
0.235577
-0.229634
-0.880347
0.874404
0.216452
-0.191635
-0.67497
0.650152
0.160062
-0.120946
-0.422809
0.383693
0.0865489
-0.0548293
-0.197011
0.165292
0.0333825
-0.0174535
-0.0666061
0.050677
0.00834452
-0.0028282
-0.0133262
0.00780987
0.000553507
0.00024545
-0.000798956
-0.0868476
0.085012
0.00183561
0.00914202
-0.0189524
-0.383229
0.39304
0.0303098
-0.039243
-0.543466
0.552399
0.0484424
-0.0575883
-0.677163
0.686309
0.0688793
-0.0794744
-0.799656
0.810251
0.0909314
-0.101486
-0.927009
0.937564
0.112897
-0.122894
-1.07333
1.08333
0.133838
-0.143179
-1.24082
1.25016
0.152926
-0.161007
-1.43133
1.43941
0.168626
-0.174451
-1.6484
1.65423
0.178422
-0.181197
-1.59113
1.5939
0.182593
-0.183666
-1.29612
1.29719
0.184071
-0.183193
-1.06752
1.06664
0.180155
-0.171383
-0.862948
0.854176
0.155766
-0.130689
-0.620597
0.59552
0.102797
-0.0721919
-0.342195
0.31159
0.0484395
-0.0289147
-0.135057
0.115533
0.0167053
-0.00827198
-0.0361675
0.0277342
0.00371202
-0.00115267
-0.00263502
7.56647e-05
0.00017452
0.00153037
-0.00170489
-0.0887547
0.0857867
0.00296804
-0.000211786
-0.00568541
-0.405663
0.41156
0.0133964
-0.0201923
-0.56563
0.572426
0.0273097
-0.0352251
-0.697949
0.705864
0.045093
-0.0543501
-0.819745
0.829002
0.0645955
-0.0738988
-0.947335
0.956638
0.0837477
-0.0928133
-1.09323
1.10229
0.102571
-0.11106
-1.25917
1.26766
0.119546
-0.126529
-1.44702
1.454
0.133324
-0.138299
-1.6597
1.66467
0.141507
-0.143577
-1.59603
1.5981
0.144407
-0.145066
-1.29652
1.29718
0.144892
-0.143555
-1.063
1.06166
0.139348
-0.128993
-0.841254
0.830899
0.112892
-0.0895735
-0.566926
0.543608
0.0664948
-0.0439265
-0.279205
0.256637
0.0283714
-0.0165458
-0.096593
0.0847675
0.00943233
-0.00464661
-0.0195845
0.0147988
0.0020809
-0.000642722
0.00263477
-0.00407295
9.74454e-05
0.00207272
-0.00217017
-0.0876469
0.0847903
0.00285655
-0.00438116
0.00120807
-0.421048
0.424221
0.00396014
-0.00923562
-0.582579
0.587855
0.0153673
-0.0220658
-0.715173
0.721872
0.030565
-0.0385678
-0.837486
0.845488
0.047408
-0.0554762
-0.965393
0.973461
0.0644359
-0.0722784
-1.11094
1.11878
0.0809464
-0.0880692
-1.2758
1.28292
0.0956081
-0.101798
-1.46088
1.46707
0.107619
-0.111626
-1.66947
1.67348
0.114392
-0.116137
-1.59967
1.60141
0.116668
-0.116551
-1.29636
1.29624
0.115968
-0.114096
-1.05691
1.05504
0.109037
-0.0984454
-0.816822
0.80623
0.0830269
-0.0629439
-0.517597
0.497514
0.0449235
-0.0289414
-0.233053
0.217071
0.0185302
-0.010861
-0.0724742
0.0648049
0.00625647
-0.00313908
-0.00967562
0.00655823
0.00144671
-0.000465488
0.00576167
-0.00674289
7.69297e-05
0.00239197
-0.0024689
-0.0862023
0.0836011
0.00260121
-0.00602779
0.0045792
-0.431624
0.433073
-0.000620124
-0.00342218
-0.596329
0.600371
0.00840747
-0.0144436
-0.729743
0.735779
0.0216088
-0.0286456
-0.85268
0.859716
0.0363341
-0.0433822
-0.981058
0.988106
0.0511383
-0.0581373
-1.12649
1.13349
0.0656025
-0.0721082
-1.28992
1.29642
0.0787108
-0.0841059
-1.47295
1.47834
0.0891288
-0.0925047
-1.67749
1.68087
0.0947802
-0.0959406
-1.60251
1.60367
0.0961852
-0.0958403
-1.29517
1.29482
0.0948436
-0.0923494
-1.04974
1.04725
0.0871071
-0.0766732
-0.792086
0.781652
0.0628912
-0.0460958
-0.475206
0.458411
0.0322768
-0.0207365
-0.199782
0.188242
0.0133471
-0.00797779
-0.0563492
0.0509798
0.00472185
-0.00244352
-0.00296144
0.00068311
0.00116831
-0.000393756
0.00796164
-0.00873619
7.64894e-05
0.00262637
-0.00270286
-0.0847268
0.0824282
0.00229866
-0.0063762
0.00558221
-0.439033
0.439827
-0.0031129
-0.000203449
-0.607061
0.610378
0.00496872
-0.0101185
-0.74212
0.74727
0.0162557
-0.0223404
-0.865852
0.871937
0.0291303
-0.0353902
-0.994767
1.00103
0.0424127
-0.0485318
-1.14018
1.1463
0.0551829
-0.0609712
-1.30262
1.3084
0.0667592
-0.0714451
-1.48347
1.48815
0.0757209
-0.0788825
-1.68425
1.68741
0.0806563
-0.0816142
-1.60442
1.60537
0.0815882
-0.0809247
-1.29366
1.293
0.0797873
-0.0767287
-1.04177
1.03871
0.0713414
-0.0615603
-0.768102
0.758321
0.0493565
-0.0354234
-0.439587
0.425654
0.0246709
-0.0159708
-0.17529
0.16659
0.010491
-0.00642251
-0.0447119
0.0406434
0.00388117
-0.00205868
0.00205548
-0.00387797
0.00100687
-0.000356141
0.0096777
-0.0103284
7.52962e-05
0.00281498
-0.00289028
-0.0834524
0.0815794
0.00187301
-0.00590142
0.00562481
-0.44449
0.444766
-0.00362238
0.00111288
-0.616351
0.61886
0.00323324
-0.00784053
-0.752786
0.757394
0.0135485
-0.0187427
-0.877544
0.882738
0.024639
-0.0301162
-1.00721
1.01269
0.0366122
-0.0420483
-1.1524
1.15784
0.0478497
-0.0531036
-1.31396
1.31921
0.05863
-0.0627273
-1.49282
1.49692
0.0665452
-0.0691196
-1.6902
1.69277
0.0708114
-0.0712181
-1.60612
1.60653
0.0711682
-0.070454
-1.29171
1.291
0.0689136
-0.0657388
-1.03332
1.03014
0.0603154
-0.0510301
-0.745383
0.736098
0.0404406
-0.0287099
-0.40964
0.397909
0.0200652
-0.0132774
-0.15649
0.149703
0.00889236
-0.00556055
-0.0356785
0.0323467
0.0034217
-0.00184436
0.00611792
-0.00769526
0.000912368
-0.000328233
0.0110967
-0.0116808
7.40623e-05
0.00296616
-0.00304022
-0.0825699
0.0810331
0.00153684
-0.0051575
0.00519943
-0.44862
0.448578
-0.00345778
0.00117575
-0.624289
0.626571
0.00280488
-0.0068759
-0.762217
0.766288
0.0116942
-0.0165611
-0.88782
0.892687
0.0218747
-0.0273018
-1.0179
1.02333
0.0327842
-0.037759
-1.16331
1.16829
0.0433553
-0.0480065
-1.32425
1.3289
0.0525819
-0.0566305
-1.50084
1.50489
0.0600449
-0.0623353
-1.69539
1.69768
0.0636105
-0.0640422
-1.60711
1.60754
0.0638566
-0.062966
-1.28961
1.28872
0.061314
-0.0578967
-1.02491
1.02149
0.0525641
-0.0440664
-0.724041
0.715544
0.0344362
-0.0245224
-0.384205
0.374291
0.0174231
-0.0117809
-0.141497
0.135855
0.00808361
-0.00520385
-0.0281477
0.025268
0.00326374
-0.00178659
0.00964834
-0.0111255
0.000891187
-0.000319306
0.0123454
-0.0129173
7.38992e-05
0.00309047
-0.00316437
-0.0821452
0.0807954
0.00134984
-0.00413102
0.00408249
-0.45202
0.452069
-0.00267743
0.000520835
-0.631359
0.633515
0.00303731
-0.00686251
-0.770789
0.774614
0.0113443
-0.0156398
-0.897287
0.901583
0.0208891
-0.0252894
-1.02808
1.03248
0.0304883
-0.0350154
-1.17334
1.17787
0.0401463
-0.0446255
-1.33342
1.3379
0.0490347
-0.0523553
-1.50857
1.51189
0.0554898
-0.0575338
-1.6998
1.70184
0.0588271
-0.0589306
-1.60777
1.60787
0.058664
-0.057648
-1.28767
1.28666
0.0559179
-0.0522958
-1.01633
1.01271
0.0471931
-0.0391573
-0.704207
0.696172
0.0305784
-0.0219998
-0.362478
0.3539
0.0159368
-0.0111832
-0.128912
0.124158
0.00792761
-0.0052787
-0.0215127
0.0188638
0.00340633
-0.00191261
0.0129477
-0.0144414
0.000969767
-0.000357751
0.0135349
-0.0141469
8.14796e-05
0.00319254
-0.00327402
-0.081932
0.0809059
0.00102608
-0.00317701
0.00276837
-0.455196
0.455604
-0.00166169
-0.00045824
-0.637418
0.639538
0.00356881
-0.00715388
-0.778564
0.782149
0.0113153
-0.0156022
-0.905687
0.909974
0.0200303
-0.0244147
-1.03703
1.04141
0.0293341
-0.0333834
-1.18275
1.1868
0.0382818
-0.0423571
-1.34205
1.34613
0.0463518
-0.0497185
-1.51549
1.51886
0.052704
-0.0543426
-1.70378
1.70542
0.0551579
-0.055309
-1.60804
1.60819
0.0550504
-0.0538646
-1.28528
1.2841
0.0519435
-0.048466
-1.00787
1.00439
0.0431096
-0.0357695
-0.68553
0.678189
0.0280869
-0.0205759
-0.343666
0.336155
0.0153947
-0.0111974
-0.118073
0.113875
0.00824501
-0.00569283
-0.0153978
0.0128456
0.0037914
-0.0022006
0.0162581
-0.0178489
0.001161
-0.000442998
0.014808
-0.015526
0.000106059
0.00329685
-0.0034029
-0.0820835
0.0812272
0.000856304
-0.00235092
0.0020842
-0.458329
0.458596
-0.000538636
-0.00132522
-0.643328
0.645191
0.00451955
-0.00787258
-0.785594
0.788947
0.0117477
-0.0154901
-0.91387
0.917612
0.0198915
-0.0237793
-1.04572
1.04961
0.0284244
-0.0326962
-1.19122
1.1955
0.0369065
-0.040985
-1.35012
1.3542
0.0449753
-0.0479362
-1.52194
1.5249
0.0506454
-0.0523698
-1.70709
1.70881
0.0528867
-0.052922
-1.60801
1.60804
0.0522604
-0.0509857
-1.28274
1.28147
0.0490714
-0.0454148
-0.999601
0.995945
0.0403184
-0.033366
-0.668277
0.661325
0.0264564
-0.0198388
-0.327055
0.320438
0.0152834
-0.0115677
-0.108522
0.104806
0.00881336
-0.00630453
-0.00954316
0.00703432
0.00434082
-0.00262167
0.0197243
-0.0214434
0.00143428
-0.000569729
0.0162863
-0.0171508
0.000143192
0.00344196
-0.00358515
-0.0825057
0.0818211
0.000684585
-0.00137092
0.000994695
-0.461411
0.461787
0.000315573
-0.0024121
-0.648635
0.650732
0.00546001
-0.00856885
-0.792172
0.795281
0.0124245
-0.0159049
-0.921286
0.924766
0.0200043
-0.0238697
-1.05392
1.05779
0.028225
-0.0322462
-1.19951
1.20353
0.036407
-0.0402047
-1.35806
1.36185
0.0439683
-0.0472414
-1.52798
1.53125
0.0497628
-0.051056
-1.71021
1.71151
0.0514757
-0.0509872
-1.60769
1.6072
0.0502179
-0.0488678
-1.2799
1.27855
0.0465492
-0.0428026
-0.991281
0.987534
0.0378202
-0.0311891
-0.652224
0.645593
0.0250608
-0.0192468
-0.312548
0.306734
0.0152843
-0.0119203
-0.0999892
0.0966252
0.00934899
-0.00688183
-0.00384395
0.00137679
0.00488427
-0.00305568
0.0234128
-0.0252414
0.00173058
-0.000717982
0.0180376
-0.0190502
0.000195319
0.00365735
-0.00385267
-0.083151
0.0825859
0.000565109
-0.000562315
0.000125232
-0.464504
0.464941
0.00119559