/*--------------------------------*- C++ -*----------------------------------*\
  =========                 |
  \\      /  F ield         | OpenFOAM: The Open Source CFD Toolbox
   \\    /   O peration     | Website:  https://openfoam.org
    \\  /    A nd           | Version:  6
     \\/     M anipulation  |
\*---------------------------------------------------------------------------*/
FoamFile
{
    version     2.0;
    format      ascii;
    class       volScalarField;
    location    "45";
    object      p;
}
// * * * * * * * * * * * * * * * * * * * * * * * * * * * * * * * * * * * * * //

dimensions      [0 2 -2 0 0 0 0];

internalField   nonuniform List<scalar> 
8800
(
0.89919
0.849872
0.8119
0.78382
0.763642
0.749028
0.738393
0.730806
0.725855
0.723697
0.724968
0.729226
0.735957
0.745335
0.758038
0.775335
0.799197
0.832286
0.875217
0.927729
0.733698
0.74004
0.749182
0.752721
0.750099
0.743991
0.737022
0.730737
0.725874
0.722923
0.722591
0.725123
0.729689
0.73576
0.74282
0.749827
0.754687
0.754549
0.747865
0.73896
0.707245
0.713476
0.717967
0.721824
0.724752
0.725674
0.724547
0.72237
0.720314
0.719376
0.720299
0.722658
0.725474
0.727692
0.728175
0.726359
0.722973
0.718945
0.714155
0.710438
0.702993
0.705755
0.70835
0.710491
0.712205
0.713741
0.7148
0.715092
0.714893
0.714879
0.715563
0.716604
0.717266
0.717056
0.716036
0.714649
0.712955
0.710635
0.708215
0.706648
0.698003
0.699425
0.701251
0.703312
0.704998
0.706254
0.707301
0.708209
0.708919
0.709527
0.710101
0.710446
0.710378
0.709944
0.709223
0.708069
0.706382
0.704465
0.703101
0.702299
0.693097
0.693998
0.69523
0.696833
0.698496
0.699985
0.70121
0.702249
0.7032
0.704068
0.704694
0.704947
0.704849
0.704396
0.703529
0.702291
0.700891
0.699597
0.698764
0.698241
0.688297
0.688951
0.689896
0.691187
0.692598
0.694065
0.695481
0.69675
0.69788
0.69891
0.69967
0.700001
0.699888
0.699348
0.698488
0.697485
0.696444
0.695505
0.694912
0.694529
0.6836
0.684104
0.684873
0.685984
0.687243
0.688604
0.690035
0.691467
0.692831
0.694089
0.695014
0.695417
0.695332
0.694881
0.694217
0.69345
0.692649
0.691945
0.691504
0.691207
0.678959
0.67936
0.680003
0.680991
0.682175
0.683477
0.684892
0.686409
0.687968
0.689475
0.690617
0.691177
0.691249
0.690998
0.69055
0.689984
0.689373
0.688853
0.688521
0.688281
0.674297
0.674624
0.675179
0.676088
0.677221
0.678505
0.679949
0.681554
0.683288
0.68506
0.686488
0.687307
0.687624
0.687601
0.687361
0.686998
0.686566
0.686197
0.685948
0.685748
0.669532
0.669802
0.670298
0.671158
0.672272
0.673576
0.675083
0.676808
0.678741
0.680813
0.682607
0.683773
0.684396
0.684636
0.684621
0.684456
0.684197
0.68396
0.683777
0.683607
0.664585
0.664812
0.665269
0.66611
0.667243
0.668608
0.670218
0.672116
0.674315
0.676769
0.679007
0.680586
0.68156
0.682097
0.682333
0.682373
0.682286
0.682164
0.682035
0.681886
0.659368
0.659561
0.659998
0.660852
0.662045
0.663517
0.665291
0.667435
0.669989
0.672927
0.675707
0.677769
0.679144
0.680011
0.680517
0.680767
0.680856
0.680843
0.680759
0.680626
0.653793
0.653959
0.654393
0.65529
0.656587
0.658219
0.660226
0.662702
0.665709
0.669247
0.672687
0.67533
0.677171
0.678408
0.679215
0.679713
0.679973
0.68006
0.680016
0.679894
0.647756
0.647899
0.648346
0.649314
0.650758
0.652606
0.654915
0.657808
0.661387
0.665674
0.669917
0.673251
0.675651
0.677331
0.678487
0.679253
0.679704
0.679896
0.679888
0.679773
0.641129
0.641248
0.641721
0.642787
0.644423
0.646554
0.649248
0.652661
0.65693
0.66212
0.66735
0.671544
0.674625
0.676839
0.678404
0.679471
0.680141
0.680443
0.68047
0.68036
0.633744
0.633838
0.634354
0.635553
0.637442
0.639942
0.643139
0.647225
0.652382
0.658696
0.665122
0.670323
0.674201
0.677024
0.679065
0.680494
0.681405
0.681824
0.681886
0.681777
0.625394
0.62549
0.626053
0.627417
0.629637
0.632604
0.636434
0.641373
0.647639
0.655343
0.663213
0.669629
0.674437
0.677988
0.680607
0.682446
0.683631
0.684174
0.68427
0.684159
0.615768
0.615846
0.616491
0.618086
0.620731
0.624293
0.628922
0.634921
0.64257
0.651995
0.661603
0.669454
0.675392
0.679817
0.683119
0.685454
0.686953
0.687637
0.687768
0.687653
0.604527
0.604587
0.605335
0.607231
0.61041
0.614736
0.620395
0.627742
0.637084
0.648582
0.66033
0.669933
0.677195
0.682651
0.686751
0.689681
0.691543
0.69238
0.692543
0.69242
0.59115
0.5912
0.592091
0.594385
0.598271
0.603612
0.610627
0.619744
0.631313
0.645429
0.659666
0.671234
0.680019
0.686657
0.691674
0.695282
0.697552
0.69855
0.698742
0.698606
0.574855
0.574899
0.575999
0.578854
0.583704
0.590406
0.599212
0.610591
0.624877
0.64212
0.659373
0.673311
0.68388
0.691905
0.698001
0.702397
0.705123
0.706287
0.706501
0.706348
0.55451
0.554557
0.555984
0.559678
0.565922
0.574553
0.585839
0.600266
0.618086
0.639159
0.659862
0.676404
0.688939
0.698529
0.705839
0.711137
0.714354
0.715674
0.715894
0.715717
0.528328
0.528405
0.530416
0.535491
0.543911
0.55542
0.570226
0.588714
0.610938
0.636543
0.661171
0.680625
0.695326
0.706612
0.71525
0.721514
0.725218
0.726659
0.726861
0.726655
0.493256
0.493462
0.496675
0.504307
0.516418
0.532344
0.552174
0.576013
0.603636
0.634486
0.663451
0.686026
0.703025
0.716102
0.726177
0.73342
0.737543
0.739035
0.739188
0.738948
0.443508
0.444581
0.45102
0.46397
0.482566
0.505354
0.532165
0.562783
0.596788
0.633476
0.66704
0.692821
0.712138
0.727024
0.738508
0.746633
0.751016
0.752451
0.752525
0.752251
0.370634
0.377961
0.392805
0.415522
0.443818
0.475801
0.511115
0.549504
0.590587
0.633672
0.672286
0.701615
0.723552
0.740495
0.753555
0.762492
0.767109
0.768522
0.768564
0.768321
0.292853
0.308857
0.333019
0.366264
0.404817
0.446192
0.490122
0.536545
0.585189
0.635464
0.680169
0.71404
0.739413
0.759016
0.773982
0.783928
0.788707
0.790026
0.7901
0.78998
0.226287
0.245896
0.277866
0.320147
0.3678
0.418011
0.470324
0.52464
0.58069
0.637916
0.688415
0.72654
0.755056
0.777106
0.793739
0.804401
0.809192
0.810518
0.810649
0.8106
0.171836
0.193669
0.231001
0.27979
0.334551
0.392171
0.451908
0.513488
0.576505
0.640329
0.696275
0.738367
0.769777
0.793918
0.812057
0.823636
0.829036
0.830414
0.830554
0.830548
0.126561
0.14973
0.190939
0.244832
0.305305
0.369037
0.435107
0.50312
0.572486
0.642452
0.703498
0.749262
0.783305
0.809387
0.828952
0.841594
0.847539
0.849074
0.8493
0.849328
0.0878422
0.111841
0.155932
0.213963
0.27925
0.348204
0.41976
0.493465
0.568594
0.644225
0.710051
0.759171
0.795619
0.823494
0.844327
0.8577
0.864126
0.865942
0.866253
0.8663
0.0536884
0.0782693
0.124636
0.186105
0.255505
0.329009
0.405438
0.484272
0.564686
0.645565
0.715807
0.768058
0.806643
0.836055
0.857834
0.871802
0.878605
0.880753
0.88114
0.881182
0.0226667
0.0477382
0.0959987
0.160403
0.233366
0.310862
0.391666
0.47519
0.560497
0.646309
0.720694
0.775861
0.816389
0.847034
0.869482
0.883816
0.890952
0.893314
0.893754
0.893782
-0.00617734
0.0193626
0.0692328
0.136212
0.212303
0.293333
0.378083
0.465915
0.555796
0.646303
0.724689
0.78265
0.824984
0.856637
0.879519
0.894081
0.901419
0.903954
0.90443
0.904442
-0.0335972
-0.00753186
0.0438205
0.113081
0.191923
0.276105
0.364428
0.456229
0.550414
0.645428
0.727783
0.788524
0.832598
0.865143
0.888401
0.903143
0.910616
0.913232
0.913691
0.913662
-0.0599169
-0.033367
0.0193462
0.0906573
0.171954
0.258966
0.350534
0.445994
0.544235
0.643639
0.729981
0.793559
0.839369
0.872782
0.896397
0.911291
0.918803
0.921416
0.921893
0.921851
-0.0855433
-0.0584126
-0.00444145
0.0687234
0.15222
0.241779
0.336305
0.435137
0.537194
0.640892
0.731287
0.797819
0.845429
0.879757
0.903747
0.918756
0.926262
0.928824
0.929253
0.929182
-0.110576
-0.0828531
-0.0276949
0.0471549
0.132623
0.224479
0.32169
0.423627
0.529273
0.637156
0.731692
0.801349
0.850908
0.886251
0.910669
0.92577
0.93321
0.935672
0.936016
0.935891
-0.135113
-0.106785
-0.0505003
0.0258935
0.113135
0.207052
0.306689
0.411465
0.520468
0.632407
0.731152
0.804157
0.855888
0.892397
0.917278
0.932409
0.939658
0.941937
0.942175
0.942008
-0.159223
-0.13026
-0.0728732
0.00493109
0.0937526
0.189521
0.29134
0.398693
0.510802
0.626626
0.729604
0.806195
0.860422
0.898316
0.923681
0.938719
0.945646
0.947655
0.947783
0.947587
-0.182932
-0.15326
-0.0948003
-0.0157129
0.0745238
0.171933
0.275702
0.385364
0.500311
0.619788
0.726973
0.807383
0.864515
0.904144
0.930057
0.944807
0.95119
0.952836
0.952849
0.952636
-0.206066
-0.175729
-0.116246
-0.0360063
0.0554972
0.154365
0.259845
0.371564
0.489061
0.611911
0.723184
0.80761
0.868097
0.909993
0.936682
0.950919
0.95639
0.957494
0.957379
0.957165
-0.228578
-0.197614
-0.137174
-0.0558896
0.0367413
0.136888
0.243868
0.357375
0.477131
0.603019
0.718184
0.806744
0.87102
0.915873
0.943913
0.95757
0.961558
0.961695
0.961378
0.961206
-0.250517
-0.218867
-0.157545
-0.0753148
0.0183276
0.119591
0.227865
0.342905
0.464614
0.593172
0.711925
0.804656
0.873052
0.921581
0.952006
0.965666
0.96769
0.965888
0.964898
0.964939
-0.27171
-0.239451
-0.177293
-0.0942066
0.000321513
0.102561
0.211937
0.328265
0.451628
0.582468
0.704389
0.801198
0.873919
0.926646
0.960735
0.976102
0.976996
0.972353
0.96866
0.966917
-0.292245
-0.259364
-0.196418
-0.112593
-0.017311
0.0857535
0.196028
0.313391
0.438091
0.570835
0.69542
0.796103
0.873329
0.930452
0.969159
0.988723
0.991524
0.985542
0.974694
0.973815
-0.31203
-0.278676
-0.215057
-0.13067
-0.0348741
0.068819
0.179706
0.297774
0.423431
0.557606
0.684319
0.788549
0.870685
0.932112
0.975139
1.0003
1.00631
0.99694
0.978836
0.974697
-0.330921
-0.29735
-0.233032
-0.148225
-0.05211
0.0520668
0.163191
0.281748
0.407957
0.543047
0.671197
0.778014
0.865346
0.930468
0.974148
0.999075
1.00888
0.986638
0.927989
0.902095
-0.348797
-0.316212
-0.249928
-0.164723
-0.0683218
0.0359896
0.146756
0.265585
0.391949
0.527338
0.656142
0.764015
0.856469
0.924891
0.961633
0.980558
0.97486
0.927336
0.866135
0.828446
-0.39338
-0.334426
-0.265621
-0.180766
-0.0843026
0.0196654
0.130531
0.249168
0.375212
0.510155
0.638793
0.746114
0.840568
0.913849
0.936912
0.932238
0.893101
0.832986
0.766069
0.729247
-0.368537
-0.349994
-0.289354
-0.204576
-0.108563
-0.00479633
0.105348
0.223319
0.348349
0.481625
0.6083
0.713007
0.798505
0.877452
0.867703
0.768919
0.684829
0.626217
0.564788
0.593998
-0.400661
-0.368525
-0.306986
-0.222742
-0.126796
-0.0233389
0.0869603
0.204272
0.328251
0.459667
0.583545
0.684558
0.760222
0.803886
0.759586
0.628551
0.525662
0.456223
0.376662
0.424527
-0.425757
-0.391149
-0.327729
-0.243276
-0.14737
-0.0439553
0.0662669
0.182795
0.305406
0.434375
0.554394
0.649439
0.714114
0.721288
0.622815
0.474587
0.351006
0.26261
0.169596
0.202991
-0.450266
-0.414531
-0.349652
-0.264476
-0.168392
-0.0650534
0.0447219
0.160316
0.281342
0.407491
0.522746
0.610846
0.658925
0.634784
0.484596
0.31382
0.158823
0.0289395
-0.0926836
-0.0784513
-0.474529
-0.438346
-0.372497
-0.286675
-0.190333
-0.0871342
0.022054
0.136583
0.255754
0.378711
0.488513
0.569362
0.597726
0.531345
0.349021
0.157657
-0.0247918
-0.174743
-0.377458
-0.456266
-0.499224
-0.463061
-0.396609
-0.310287
-0.213672
-0.110564
-0.00189156
0.111553
0.228757
0.348295
0.452329
0.524036
0.529131
0.411754
0.225639
0.0218902
-0.16546
-0.323741
-0.445253
-0.563449
-0.525437
-0.489163
-0.422357
-0.335723
-0.238971
-0.136042
-0.0279746
0.0842166
0.199118
0.3147
0.412508
0.472327
0.451578
0.297945
0.110248
-0.0875776
-0.258391
-0.352517
-0.378082
-0.391653
-0.553307
-0.51694
-0.449876
-0.36309
-0.266386
-0.163799
-0.0565753
0.0540564
0.166209
0.277098
0.368183
0.411503
0.372677
0.188734
0.00274109
-0.174818
-0.303345
-0.339882
-0.34859
-0.348947
-0.583119
-0.546517
-0.4792
-0.392369
-0.295859
-0.193842
-0.0877199
0.0210115
0.129953
0.235418
0.318794
0.346658
0.277865
0.0887663
-0.0911444
-0.245362
-0.31663
-0.330454
-0.331305
-0.331096
-0.614881
-0.577927
-0.510339
-0.423549
-0.327403
-0.226161
-0.121419
-0.0149424
0.0903514
0.189726
0.264105
0.277595
0.171549
-0.00221426
-0.171743
-0.293132
-0.320378
-0.3214
-0.321989
-0.321463
-0.64833
-0.61099
-0.543181
-0.456544
-0.360924
-0.260698
-0.157646
-0.053791
0.047447
0.140128
0.205097
0.199808
0.0754193
-0.0874854
-0.23518
-0.301958
-0.317315
-0.316818
-0.317072
-0.316733
-0.682886
-0.645349
-0.57745
-0.491109
-0.396221
-0.297281
-0.196242
-0.0954194
0.00145018
0.0870066
0.141876
0.120175
-0.0150975
-0.164977
-0.278748
-0.312363
-0.31247
-0.313182
-0.313245
-0.31318
-0.718102
-0.680459
-0.612649
-0.52681
-0.432919
-0.335563
-0.236902
-0.139547
-0.0473734
0.0312451
0.073095
0.0435686
-0.0998318
-0.227556
-0.30793
-0.314077
-0.313931
-0.311931
-0.311117
-0.310895
-0.753022
-0.71542
-0.648011
-0.562977
-0.470437
-0.375029
-0.279129
-0.185656
-0.0986488
-0.0263089
0.00369664
-0.0371521
-0.177944
-0.28133
-0.320931
-0.329416
-0.322246
-0.318529
-0.316028
-0.314667
-0.785717
-0.748915
-0.682479
-0.598684
-0.50796
-0.414929
-0.322193
-0.232957
-0.1516
-0.085106
-0.0615539
-0.123611
-0.251977
-0.340395
-0.350049
-0.343641
-0.335945
-0.329618
-0.326598
-0.325188
-0.81516
-0.779427
-0.714621
-0.632689
-0.544371
-0.45428
-0.365115
-0.280443
-0.204914
-0.144537
-0.125927
-0.201216
-0.32219
-0.405791
-0.409425
-0.379869
-0.356334
-0.343759
-0.339702
-0.338058
-0.838615
-0.804833
-0.742659
-0.663431
-0.578272
-0.491838
-0.406707
-0.326848
-0.25716
-0.202427
-0.187731
-0.260296
-0.379961
-0.471079
-0.450589
-0.419209
-0.39117
-0.380276
-0.376494
-0.374214
-0.853934
-0.822951
-0.764482
-0.689114
-0.60806
-0.526089
-0.44564
-0.370676
-0.306786
-0.256162
-0.239616
-0.296821
-0.391384
-0.519124
-0.509811
-0.477801
-0.475124
-0.46708
-0.457897
-0.45234
-0.858436
-0.831376
-0.777939
-0.70782
-0.632051
-0.55539
-0.480433
-0.410377
-0.351709
-0.305217
-0.277414
-0.312121
-0.317962
-0.404398
-0.455167
-0.507721
-0.539238
-0.540621
-0.533307
-0.531791
-0.850042
-0.827791
-0.780945
-0.717716
-0.648672
-0.57831
-0.50944
-0.444598
-0.390241
-0.349997
-0.304275
-0.31396
-0.209236
-0.124146
-0.280098
-0.456467
-0.525892
-0.540088
-0.548073
-0.550845
-0.82567
-0.809062
-0.771489
-0.71755
-0.656678
-0.593824
-0.531295
-0.472399
-0.42148
-0.38668
-0.352467
-0.39848
-0.322564
-0.14306
-0.302406
-0.518288
-0.607326
-0.615332
-0.621263
-0.622605
-0.78858
-0.777781
-0.750357
-0.707417
-0.656005
-0.601244
-0.545568
-0.49213
-0.445714
-0.415505
-0.427961
-0.573819
-0.835713
-1.01634
-1.14927
-1.19334
-1.05524
-0.88286
-0.805791
-0.80856
-0.745387
-0.739253
-0.722396
-0.690239
-0.648527
-0.601224
-0.551628
-0.502757
-0.459957
-0.435663
-0.445227
-0.713844
-1.223
-1.81128
-1.98477
-1.98368
-1.81345
-1.55508
-1.3443
-1.25565
-0.705837
-0.702316
-0.693801
-0.671424
-0.637344
-0.595722
-0.549916
-0.502826
-0.460858
-0.431757
-0.451814
-0.587022
-0.855808
-1.16433
-1.27426
-1.18731
-1.08858
-0.967583
-0.861553
-0.798638
-0.676765
-0.67473
-0.670508
-0.655574
-0.626759
-0.58741
-0.54287
-0.493182
-0.440752
-0.39872
-0.374328
-0.351279
-0.198274
0.00239011
0.202758
0.277328
0.351751
0.408434
0.429263
0.44604
-0.654628
-0.653845
-0.652645
-0.644488
-0.620145
-0.581005
-0.531801
-0.47508
-0.411603
-0.341732
-0.266193
-0.161165
0.0848083
0.368362
0.633379
0.898805
1.09184
1.16458
1.21832
1.24052
-0.641742
-0.641329
-0.640946
-0.637028
-0.617229
-0.577076
-0.520756
-0.455091
-0.374811
-0.279447
-0.184668
-0.0256314
0.208204
0.574607
1.01194
1.36863
1.57976
1.71378
1.80123
1.83209
-0.633577
-0.633254
-0.632646
-0.631455
-0.61695
-0.577189
-0.515138
-0.435538
-0.346781
-0.235321
-0.123432
-0.000577615
0.322968
0.713055
1.11594
1.49014
1.78209
1.96816
2.05632
2.08396
-0.631478
-0.629855
-0.626533
-0.625687
-0.61988
-0.584377
-0.516431
-0.425785
-0.323727
-0.215762
-0.0920759
0.00825627
0.233991
0.589191
0.9825
1.35061
1.62881
1.79773
1.8771
1.89953
-0.650266
-0.64673
-0.64192
-0.642563
-0.642179
-0.604715
-0.521467
-0.420302
-0.307772
-0.199869
-0.0787614
0.0306847
0.185682
0.508867
0.826574
1.10485
1.31575
1.447
1.50691
1.5232
-0.697266
-0.697138
-0.703794
-0.710138
-0.701798
-0.636832
-0.524209
-0.407925
-0.295489
-0.179534
-0.072099
0.037447
0.139861
0.342131
0.61359
0.835526
0.997238
1.09173
1.13086
1.14088
-0.733122
-0.742982
-0.76172
-0.769667
-0.741324
-0.642473
-0.507004
-0.383852
-0.275114
-0.16624
-0.0690974
0.0216926
0.100496
0.229095
0.418493
0.58224
0.705737
0.778492
0.809559
0.814305
-0.668639
-0.681064
-0.699802
-0.705218
-0.66917
-0.566654
-0.447214
-0.340926
-0.242732
-0.153979
-0.0708856
0.000987416
0.0457342
0.138787
0.283807
0.394798
0.477905
0.524044
0.541797
0.543918
-0.468082
-0.478315
-0.492518
-0.497801
-0.472726
-0.411353
-0.341864
-0.270088
-0.201138
-0.136243
-0.0783329
-0.0218111
0.0134106
0.0574344
0.149914
0.233651
0.294753
0.327875
0.340419
0.341414
-0.222241
-0.227457
-0.236756
-0.246781
-0.247524
-0.236823
-0.217025
-0.187328
-0.153391
-0.110597
-0.0806397
-0.0456832
-0.0160059
0.0149986
0.0739936
0.123882
0.158281
0.177447
0.184912
0.184425
-0.0363649
-0.0389106
-0.0466286
-0.0621697
-0.0833054
-0.102632
-0.113214
-0.1148
-0.106118
-0.0891739
-0.0774156
-0.0734201
-0.0702724
-0.0543822
-0.00507757
0.0329785
0.0573136
0.0681308
0.0713622
0.0702725
0.0600243
0.0583508
0.0514581
0.0345333
0.00808428
-0.0206016
-0.0445597
-0.0603878
-0.0678098
-0.0684116
-0.0725822
-0.0900308
-0.109352
-0.0904192
-0.0532062
-0.029824
-0.0142644
-0.00884983
-0.00776947
-0.00848736
0.0934515
0.0921447
0.0865827
0.0725372
0.0496866
0.0232191
-0.0020297
-0.022415
-0.036763
-0.0465854
-0.0613077
-0.0864972
-0.111326
-0.0919339
-0.0639018
-0.0498557
-0.0465032
-0.048293
-0.0498699
-0.0502762
0.0965339
0.095599
0.0916392
0.0815009
0.0645444
0.0435816
0.0223488
0.00298982
-0.0122347
-0.0242948
-0.0387919
-0.0591228
-0.0740416
-0.0568616
-0.0461875
-0.0440671
-0.047826
-0.0515648
-0.0531756
-0.0534246
0.087989
0.0874113
0.0848316
0.07806
0.0663236
0.0512024
0.0348046
0.0196379
0.00693513
-0.00151559
-0.00741434
-0.0141817
-0.0143057
-0.000799608
-0.00216286
-0.0107898
-0.0209692
-0.0269469
-0.0286827
-0.0288408
0.0758305
0.0755204
0.0739743
0.0697063
0.0620612
0.0518613
0.0404884
0.0298164
0.0219166
0.0191027
0.0254585
0.0362237
0.0515759
0.0595403
0.0501189
0.0351754
0.0243553
0.0192644
0.0178561
0.0174632
0.0630851
0.0629502
0.0621118
0.0596419
0.054985
0.048518
0.0412192
0.0348067
0.0308724
0.0339064
0.0510533
0.0785245
0.111066
0.112348
0.0953877
0.0793992
0.0719535
0.0704008
0.069411
0.0686239
0.0509048
0.0508439
0.0504417
0.0491967
0.0466044
0.0428984
0.0385204
0.0351223
0.0342139
0.0410244
0.0633303
0.0979485
0.134196
0.131397
0.11461
0.105001
0.103745
0.106134
0.106556
0.105034
0.0398134
0.0397777
0.0396025
0.0390615
0.0378099
0.0358351
0.0333526
0.0315867
0.0317572
0.0388539
0.0586256
0.0895083
0.117097
0.11166
0.102146
0.102256
0.107316
0.111701
0.112195
0.110591
0.0301396
0.0301062
0.0300238
0.0298518
0.0293102
0.0283063
0.0268331
0.0254344
0.0247732
0.0281381
0.0391047
0.0570836
0.0714631
0.065613
0.0644119
0.0718251
0.0812479
0.0867203
0.0871134
0.0857494
0.0220163
0.0219595
0.0218941
0.0218295
0.0215803
0.0208848
0.0197704
0.0179082
0.0154925
0.0128993
0.0104871
0.00878178
0.00484202
0.00163987
0.00859919
0.0237608
0.0361498
0.0415161
0.042195
0.0412346
0.0153581
0.0152877
0.0151932
0.015098
0.0149303
0.0143206
0.0132069
0.0106859
0.00636267
-0.00268238
-0.0193637
-0.0440449
-0.0724812
-0.0763058
-0.0533091
-0.029666
-0.0161062
-0.0113659
-0.0106037
-0.0109118
0.0101456
0.0100685
0.00993472
0.0097983
0.00958373
0.0089834
0.00776888
0.00496936
-0.000725545
-0.0137876
-0.0397779
-0.0821486
-0.121257
-0.118233
-0.0899639
-0.0662619
-0.0570476
-0.0536593
-0.0523302
-0.0519922
0.00608838
0.00600428
0.00588066
0.00572899
0.00547738
0.0049617
0.00365644
0.00113344
-0.00402815
-0.0167739
-0.0429792
-0.0834429
-0.115784
-0.106451
-0.0852123
-0.0719078
-0.0683784
-0.0676667
-0.0660521
-0.0654559
0.00297511
0.00289826
0.00279418
0.002683
0.00254362
0.00221856
0.0013302
-0.000251137
-0.004081
-0.0123517
-0.0294316
-0.0538175
-0.0716599
-0.06207
-0.0502296
-0.0484724
-0.04817
-0.0489182
-0.0480064
-0.0477534
0.000705558
0.00067716
0.000676061
0.000647321
0.000504769
0.000456432
0.00046603
0.000285187
-0.000111429
-0.00154082
-0.00493038
-0.00884799
-0.0148529
-0.0118778
-0.0136088
-0.0146677
-0.0156554
-0.0139973
-0.0122111
-0.0114045
0.056089
0.245793
0.42044
0.569137
0.689581
0.78605
0.867006
0.932741
0.949561
0.945643
0.350084
0.472587
0.587649
0.688171
0.773387
0.84419
0.900113
0.937882
0.958009
0.974491
0.549947
0.631852
0.713044
0.784638
0.845986
0.896957
0.937059
0.967511
0.990302
1.00954
0.697676
0.755405
0.814396
0.867475
0.913297
0.952207
0.984766
1.012
1.03247
1.05138
0.815023
0.859054
0.903268
0.944248
0.980689
1.01284
1.04091
1.06466
1.08272
1.10077
0.914967
0.950815
0.986012
1.02005
1.05141
1.07977
1.10478
1.12574
1.14159
1.15908
1.00339
1.03576
1.06815
1.09943
1.12855
1.15503
1.17823
1.19723
1.2112
1.22823
1.0907
1.1234
1.15594
1.18721
1.21605
1.2419
1.26409
1.28167
1.29409
1.31063
1.18528
1.22172
1.25654
1.28905
1.31828
1.34369
1.36485
1.38118
1.39282
1.40897
1.29841
1.33895
1.37603
1.40907
1.43761
1.46165
1.4813
1.4966
1.50852
1.5246
1.43975
1.48091
1.5162
1.54584
1.57108
1.59272
1.61124
1.62674
1.63987
1.65582
1.6114
1.64393
1.67078
1.6931
1.71319
1.73193
1.74968
1.76645
1.78137
1.7971
1.79781
1.8151
1.83223
1.84892
1.86501
1.87975
1.89366
1.90814
1.92339
1.94068
1.98119
1.99119
2.0044
2.01539
2.02479
2.03445
2.04507
2.05525
2.06454
2.09021
2.19913
2.19342
2.18048
2.16622
2.15992
2.16564
2.18379
2.21231
2.24607
2.2824
2.50194
2.36598
2.28648
2.24398
2.22666
2.23063
2.25806
2.31593
2.42359
2.602
0.802888
0.796583
0.788849
0.777727
0.764145
0.751482
0.741063
0.73302
0.727261
0.723876
0.723459
0.72623
0.731414
0.738736
0.74826
0.760072
0.773623
0.786544
0.795528
0.803066
0.711973
0.717891
0.725958
0.732083
0.73514
0.734613
0.731505
0.727477
0.723843
0.721502
0.721301
0.72349
0.727192
0.731601
0.735676
0.737902
0.736815
0.732169
0.725109
0.717272
0.705253
0.707625
0.710887
0.71365
0.716087
0.718258
0.719411
0.71923
0.718244
0.717375
0.717517
0.718861
0.720589
0.721777
0.721672
0.720182
0.718007
0.715633
0.712642
0.70962
0.700507
0.701595
0.703506
0.705833
0.707689
0.709066
0.710255
0.711208
0.711754
0.712061
0.712533
0.7132
0.713607
0.713441
0.712776
0.711825
0.710473
0.708488
0.706369
0.704888
0.695539
0.696173
0.697296
0.699041
0.700866
0.702434
0.703651
0.704668
0.705586
0.7064
0.707091
0.707527
0.707595
0.707331
0.706751
0.705743
0.704289
0.70266
0.701309
0.700503
0.690686
0.691126
0.691908
0.693199
0.6947
0.696235
0.697673
0.698915
0.699996
0.700987
0.701829
0.702326
0.70242
0.702116
0.701398
0.700355
0.699168
0.697998
0.697078
0.696541
0.685941
0.686269
0.686876
0.68793
0.689203
0.69057
0.692003
0.693415
0.694722
0.695913
0.696928
0.697545
0.697665
0.697334
0.696669
0.695829
0.694939
0.694052
0.693371
0.692976
0.68128
0.681535
0.682023
0.682919
0.684066
0.685339
0.68671
0.688168
0.689652
0.691087
0.692327
0.693085
0.693291
0.693082
0.692612
0.691993
0.691302
0.690631
0.690126
0.689824
0.67664
0.676843
0.677248
0.678033
0.679101
0.680323
0.681676
0.68317
0.684782
0.686443
0.687946
0.688932
0.68934
0.689345
0.689091
0.688677
0.688176
0.687684
0.687314
0.687076
0.671936
0.6721
0.672447
0.673159
0.674178
0.675375
0.676751
0.678317
0.680066
0.681951
0.683762
0.685078
0.685782
0.686048
0.68602
0.685812
0.685501
0.685172
0.684912
0.684722
0.667089
0.667221
0.667526
0.668193
0.669195
0.670415
0.671848
0.673525
0.67546
0.677632
0.679828
0.681539
0.682594
0.683163
0.683394
0.683403
0.683278
0.683099
0.682931
0.682778
0.662018
0.662125
0.662403
0.66305
0.664067
0.665349
0.666885
0.668727
0.670915
0.673445
0.67611
0.678312
0.679782
0.680696
0.681213
0.681455
0.68152
0.681488
0.681401
0.681275
0.656635
0.656721
0.656982
0.657634
0.658704
0.660092
0.661791
0.663875
0.666409
0.669417
0.672669
0.675441
0.677384
0.678683
0.67951
0.680013
0.68028
0.680384
0.680366
0.680265
0.650845
0.650911
0.651165
0.651845
0.653005
0.654549
0.656471
0.658871
0.661842
0.665433
0.669402
0.672881
0.675396
0.677149
0.678337
0.679128
0.679616
0.679864
0.679912
0.679828
0.644528
0.644574
0.644828
0.645559
0.646846
0.648596
0.650809
0.65361
0.657123
0.661442
0.666293
0.670617
0.673824
0.67613
0.677742
0.678857
0.679598
0.68
0.680114
0.680047
0.637542
0.637568
0.637829
0.638632
0.640089
0.642108
0.6447
0.648007
0.6522
0.657403
0.663329
0.668697
0.672736
0.675691
0.677804
0.679307
0.680337
0.680906
0.681086
0.681034
0.629711
0.629726
0.629989
0.630886
0.632564
0.634932
0.638009
0.641979
0.647047
0.653376
0.660616
0.667225
0.67224
0.675948
0.678642
0.680603
0.681958
0.682712
0.682961
0.68292
0.62074
0.620728
0.621043
0.622081
0.62405
0.62686
0.630548
0.635337
0.641499
0.649228
0.658082
0.666169
0.672347
0.676959
0.680354
0.682857
0.684592
0.685551
0.685874
0.685844
0.610349
0.610314
0.610673
0.611892
0.614219
0.617595
0.622067
0.627903
0.635409
0.644833
0.65565
0.665542
0.673127
0.678821
0.683058
0.686206
0.688388
0.689583
0.689986
0.689962
0.598095
0.598037
0.59847
0.599925
0.602717
0.60683
0.612323
0.619513
0.628769
0.640345
0.653548
0.665569
0.674761
0.681704
0.686926
0.69082
0.693513
0.694968
0.69545
0.695429
0.583329
0.583249
0.583799
0.585591
0.589007
0.59411
0.600959
0.609924
0.621414
0.63567
0.65175
0.666255
0.677332
0.685715
0.692072
0.696833
0.700112
0.701852
0.702412
0.70239
0.565109
0.56501
0.565751
0.568031
0.572321
0.578787
0.587475
0.598792
0.613142
0.630678
0.650197
0.667634
0.680883
0.690927
0.698603
0.704368
0.708315
0.710359
0.710988
0.710955
0.542012
0.54191
0.542982
0.546026
0.551645
0.560139
0.571482
0.586061
0.604191
0.625848
0.649381
0.670043
0.685645
0.697524
0.706637
0.713518
0.718182
0.720521
0.721196
0.721138
0.511704
0.511649
0.51332
0.517695
0.525559
0.537214
0.552458
0.571499
0.594427
0.620989
0.649127
0.67342
0.69162
0.705471
0.716158
0.724248
0.729627
0.732211
0.732891
0.732796
0.470031
0.470178
0.473165
0.480337
0.492412
0.50929
0.530335
0.555443
0.584404
0.616732
0.649965
0.678078
0.698956
0.714832
0.72713
0.736447
0.742431
0.745133
0.74576
0.74562
0.409299
0.410603
0.417897
0.431501
0.451316
0.476515
0.50575
0.538557
0.574602
0.613348
0.652007
0.684071
0.707664
0.725533
0.739372
0.749779
0.756198
0.758812
0.759283
0.759106
0.336267
0.338857
0.35307
0.376598
0.407043
0.442138
0.480305
0.521336
0.565039
0.610944
0.656023
0.693098
0.720359
0.741068
0.756998
0.768655
0.775567
0.778267
0.778793
0.778736
0.261373
0.268248
0.289598
0.32304
0.363841
0.4086
0.455715
0.505063
0.556532
0.609723
0.6614
0.703681
0.734711
0.75835
0.776553
0.789581
0.796858
0.799378
0.799777
0.799812
0.200413
0.209109
0.235132
0.275635
0.324507
0.377452
0.432641
0.489792
0.548692
0.608885
0.666841
0.714018
0.748555
0.77481
0.794973
0.809155
0.816641
0.819234
0.819947
0.820068
0.150421
0.159821
0.189353
0.235114
0.290113
0.349618
0.41161
0.475638
0.541316
0.608044
0.671904
0.723644
0.761423
0.790042
0.811931
0.827303
0.835572
0.838726
0.839573
0.839723
0.108368
0.118083
0.150029
0.199896
0.259921
0.324888
0.392631
0.462634
0.534369
0.607091
0.676467
0.732453
0.773188
0.803975
0.827498
0.844037
0.853137
0.85667
0.857642
0.857787
0.0718127
0.0816813
0.115458
0.168627
0.232846
0.302499
0.375262
0.45055
0.527753
0.605976
0.680469
0.740403
0.78382
0.816566
0.841503
0.858918
0.868616
0.872525
0.873617
0.873768
0.0391328
0.0490773
0.0843137
0.140228
0.208019
0.281729
0.358935
0.43899
0.521201
0.604527
0.683781
0.747388
0.793277
0.827714
0.853749
0.871789
0.882039
0.886282
0.887406
0.887542
0.00914517
0.0191514
0.0555605
0.113866
0.18476
0.262024
0.343182
0.427574
0.514412
0.602527
0.686314
0.753391
0.801604
0.837497
0.864329
0.882767
0.893297
0.897782
0.899007
0.899143
-0.0190375
-0.00895782
0.0285466
0.0889616
0.162575
0.242973
0.32767
0.416016
0.507153
0.599807
0.687977
0.758469
0.808918
0.846144
0.873597
0.892306
0.903035
0.907669
0.908946
0.909071
-0.0459525
-0.0357472
0.00275756
0.0650646
0.141092
0.224276
0.312166
0.404123
0.499262
0.596245
0.688727
0.762666
0.815348
0.853845
0.881866
0.900852
0.911693
0.916377
0.917632
0.917708
-0.0719887
-0.0616034
-0.0221546
0.0418773
0.120059
0.205742
0.296521
0.391782
0.490648
0.591774
0.688548
0.766018
0.820992
0.860775
0.889371
0.908591
0.919515
0.924173
0.925395
0.925437
-0.0974071
-0.0867609
-0.0464053
0.0192118
0.099332
0.18725
0.280648
0.378935
0.48126
0.586358
0.687418
0.768547
0.825947
0.867101
0.896337
0.915793
0.926749
0.931343
0.932492
0.932511
-0.122268
-0.111348
-0.0701209
-0.003042
0.0788288
0.16876
0.264518
0.365561
0.471093
0.579971
0.685304
0.770254
0.830281
0.872962
0.902929
0.922627
0.933548
0.937986
0.939015
0.938977
-0.14667
-0.135459
-0.0933809
-0.0249148
0.0585295
0.150263
0.248143
0.351683
0.460165
0.572619
0.68216
0.771092
0.834016
0.878461
0.909261
0.929148
0.939917
0.944115
0.944971
0.94487
-0.170606
-0.159102
-0.116162
-0.0464098
0.03845
0.131791
0.231573
0.337352
0.448517
0.564304
0.67794
0.770979
0.837128
0.883688
0.915479
0.935476
0.945893
0.949703
0.950361
0.950213
-0.194112
-0.182248
-0.138435
-0.0674998
0.0186266
0.113397
0.214867
0.322641
0.436216
0.555054
0.672601
0.76982
0.839538
0.888689
0.92178
0.941817
0.951594
0.9548
0.955209
0.95502
-0.216942
-0.204834
-0.160166
-0.0881482
-0.000880538
0.0951664
0.198102
0.30763
0.423341
0.544927
0.666116
0.767522
0.841117
0.893427
0.928375
0.948553
0.957292
0.959486
0.959515
0.959299
-0.239244
-0.22679
-0.181306
-0.108313
-0.0200255
0.0771483
0.181379
0.292411
0.409984
0.534005
0.658487
0.763986
0.841697
0.897724
0.935367
0.956252
0.96369
0.96413
0.963339
0.963085
-0.260822
-0.248066
-0.201828
-0.127933
-0.0387172
0.0594348
0.164787
0.277109
0.396256
0.522357
0.64975
0.759122
0.841086
0.901256
0.942545
0.965434
0.972195
0.970175
0.967298
0.966527
-0.281767
-0.268678
-0.221665
-0.146941
-0.0569112
0.0420989
0.148416
0.261809
0.382268
0.510123
0.639976
0.752837
0.839093
0.903607
0.949201
0.975857
0.984222
0.981008
0.974404
0.964781
-0.301957
-0.288616
-0.240905
-0.165505
-0.0748359
0.0248417
0.131911
0.246084
0.367543
0.496765
0.628613
0.744504
0.835198
0.904332
0.954403
0.986251
0.999424
0.997268
0.986621
0.983695
-0.321341
-0.307957
-0.259543
-0.183554
-0.0924618
0.00768977
0.115308
0.229917
0.352052
0.482167
0.615496
0.733692
0.828744
0.902635
0.955962
0.991475
1.00774
1.01011
0.976569
0.937146
-0.339685
-0.326554
-0.277529
-0.200952
-0.109762
-0.00937487
0.098623
0.213445
0.335872
0.466378