/*--------------------------------*- C++ -*----------------------------------*\
  =========                 |
  \\      /  F ield         | OpenFOAM: The Open Source CFD Toolbox
   \\    /   O peration     | Website:  https://openfoam.org
    \\  /    A nd           | Version:  6
     \\/     M anipulation  |
\*---------------------------------------------------------------------------*/
FoamFile
{
    version     2.0;
    format      ascii;
    class       volScalarField;
    location    "51.1";
    object      p;
}
// * * * * * * * * * * * * * * * * * * * * * * * * * * * * * * * * * * * * * //

dimensions      [0 2 -2 0 0 0 0];

internalField   nonuniform List<scalar> 
8800
(
0.929196
0.879878
0.841907
0.81383
0.793656
0.779049
0.768424
0.760846
0.75591
0.753772
0.755066
0.759346
0.766093
0.775481
0.788193
0.805497
0.829363
0.862454
0.905386
0.957899
0.763701
0.770044
0.77919
0.782731
0.780112
0.774007
0.767043
0.760767
0.755918
0.752985
0.752677
0.755233
0.759817
0.765904
0.772974
0.779988
0.784853
0.78472
0.778038
0.769134
0.737242
0.743474
0.747966
0.751826
0.754758
0.755686
0.754568
0.752403
0.750364
0.749448
0.750397
0.75278
0.755614
0.757845
0.758339
0.756531
0.753151
0.749127
0.74434
0.740623
0.732979
0.735741
0.738338
0.740483
0.742202
0.743745
0.744813
0.745117
0.744938
0.744952
0.745665
0.74673
0.747413
0.747219
0.746212
0.744834
0.743147
0.740833
0.738415
0.736848
0.727973
0.729396
0.731225
0.733289
0.73498
0.736244
0.737301
0.738226
0.73896
0.739599
0.740206
0.740579
0.740535
0.74012
0.739414
0.738271
0.736593
0.734684
0.733323
0.732521
0.723048
0.723949
0.725184
0.726792
0.72846
0.729958
0.731195
0.732254
0.733231
0.734134
0.734799
0.735088
0.735018
0.734589
0.73374
0.732517
0.731129
0.729845
0.729015
0.728492
0.718221
0.718876
0.719824
0.72112
0.722537
0.724013
0.725444
0.726734
0.727895
0.728967
0.729775
0.730149
0.730071
0.72956
0.728723
0.727739
0.726714
0.725787
0.725198
0.724815
0.713494
0.713998
0.714769
0.715885
0.717151
0.718522
0.719969
0.721424
0.722821
0.724123
0.725107
0.725568
0.725529
0.725116
0.724483
0.723741
0.722961
0.72227
0.721834
0.721536
0.708812
0.709213
0.709859
0.710851
0.712042
0.713354
0.714787
0.716328
0.717925
0.71949
0.720702
0.721328
0.72146
0.721257
0.72085
0.720317
0.719734
0.719231
0.718905
0.718664
0.7041
0.704427
0.704984
0.705897
0.707038
0.708334
0.709795
0.711428
0.713206
0.715045
0.716558
0.71746
0.717851
0.717891
0.717703
0.717382
0.716983
0.716636
0.716394
0.716192
0.699274
0.699546
0.700043
0.700907
0.702029
0.703347
0.704876
0.706637
0.708627
0.710784
0.712677
0.71394
0.714649
0.714963
0.715013
0.714902
0.714688
0.714477
0.7143
0.714128
0.694248
0.694477
0.694935
0.695782
0.696923
0.698303
0.699942
0.701886
0.704153
0.706704
0.709064
0.710761
0.711839
0.712466
0.712779
0.712889
0.712853
0.712765
0.712643
0.712491
0.688936
0.689131
0.68957
0.690429
0.691631
0.693119
0.694922
0.697115
0.699745
0.7028
0.705723
0.707928
0.709433
0.710415
0.711021
0.711356
0.711516
0.711542
0.711467
0.711329
0.683243
0.683411
0.683848
0.684747
0.686049
0.687697
0.689735
0.692262
0.695354
0.699025
0.702638
0.705455
0.707459
0.708843
0.70978
0.710387
0.710735
0.710868
0.710831
0.710703
0.677053
0.677199
0.677648
0.678618
0.680068
0.681937
0.684285
0.687243
0.690922
0.695363
0.699808
0.703351
0.705943
0.707797
0.709106
0.710006
0.710566
0.710812
0.710812
0.71069
0.670238
0.67036
0.670839
0.671909
0.673557
0.675715
0.678459
0.681954
0.68635
0.691725
0.697188
0.701615
0.704916
0.707329
0.709078
0.710311
0.711109
0.711472
0.711506
0.711387
0.662627
0.662725
0.663246
0.66445
0.666353
0.668883
0.672133
0.676308
0.681602
0.688128
0.694817
0.700298
0.704437
0.70751
0.709786
0.711411
0.712469
0.712954
0.713021
0.712901
0.653984
0.654087
0.654657
0.656032
0.658269
0.661274
0.665167
0.670202
0.676617
0.684552
0.692726
0.699462
0.704585
0.708428
0.711323
0.713403
0.714761
0.715379
0.715477
0.715353
0.644021
0.644109
0.644767
0.646375
0.649047
0.652662
0.657376
0.6635
0.671324
0.681001
0.69095
0.699161
0.70544
0.710191
0.713799
0.716416
0.718113
0.718872
0.719
0.718868
0.632381
0.632453
0.633215
0.635134
0.638357
0.642755
0.648515
0.656008
0.665571
0.677373
0.689466
0.699429
0.707071
0.712894
0.717336
0.720578
0.722653
0.723561
0.723716
0.723574
0.618518
0.61858
0.619486
0.621815
0.625764
0.631193
0.638326
0.647591
0.659344
0.67374
0.688387
0.700395
0.709602
0.716655
0.722071
0.72602
0.728509
0.729567
0.729744
0.729588
0.601683
0.601739
0.602858
0.605764
0.610709
0.617537
0.626495
0.638071
0.652621
0.670196
0.687831
0.702167
0.713149
0.721598
0.728097
0.732847
0.735774
0.736975
0.737164
0.736989
0.580753
0.580812
0.582268
0.586033
0.592406
0.601198
0.612664
0.627295
0.645358
0.666756
0.687852
0.704827
0.717795
0.727807
0.7355
0.741124
0.744493
0.745814
0.746001
0.745805
0.553966
0.554052
0.556092
0.561247
0.569816
0.581497
0.596494
0.615197
0.637667
0.663595
0.688624
0.708497
0.723625
0.735334
0.744343
0.750872
0.754645
0.75604
0.756203
0.755984
0.518297
0.518502
0.521736
0.529465
0.541759
0.557904
0.577974
0.602068
0.629979
0.661144
0.690455
0.713386
0.730765
0.744244
0.754629
0.762032
0.766106
0.767494
0.767604
0.767361
0.468004
0.469059
0.475493
0.488533
0.50733
0.530355
0.557405
0.588256
0.622501
0.659468
0.693378
0.719522
0.739207
0.75446
0.766219
0.77439
0.778591
0.779866
0.779893
0.779627
0.39469
0.40195
0.41673
0.439507
0.468033
0.500275
0.535848
0.574496
0.615826
0.659166
0.698033
0.727635
0.749869
0.767129
0.780312
0.789164
0.793437
0.794598
0.794569
0.794329
0.31651
0.332426
0.356467
0.38977
0.428552
0.470203
0.514388
0.561031
0.609858
0.660302
0.705156
0.739192
0.764738
0.784503
0.799425
0.808931
0.813088
0.814053
0.814046
0.813911
0.249566
0.26904
0.300835
0.3432
0.391118
0.44162
0.494188
0.548713
0.604914
0.662238
0.712774
0.750917
0.779496
0.801513
0.817796
0.827637
0.831624
0.832487
0.832523
0.832453
0.194768
0.216462
0.253612
0.302492
0.357571
0.41552
0.47553
0.537314
0.600443
0.664284
0.72018
0.762184
0.793485
0.817472
0.835002
0.84544
0.849704
0.85064
0.850701
0.850671
0.149267
0.172303
0.213342
0.267328
0.328148
0.39224
0.458599
0.526806
0.596271
0.666208
0.72717
0.772816
0.806728
0.832584
0.851432
0.862752
0.867414
0.868405
0.868506
0.868509
0.110458
0.134324
0.178253
0.236394
0.30205
0.371385
0.443255
0.517161
0.592383
0.667985
0.733696
0.782761
0.819147
0.846819
0.866974
0.879099
0.884195
0.885345
0.885495
0.885515
0.0763326
0.100781
0.146991
0.208586
0.278374
0.352285
0.429045
0.508095
0.588593
0.669466
0.73965
0.791905
0.830565
0.85989
0.881119
0.893956
0.899475
0.900864
0.901078
0.9011
0.0454309
0.0703738
0.118481
0.183019
0.256391
0.334319
0.415472
0.499235
0.584651
0.67048
0.744897
0.800152
0.840873
0.871604
0.893773
0.907181
0.913043
0.914658
0.914904
0.91492
0.0167747
0.0421825
0.0919115
0.159041
0.235556
0.317044
0.402165
0.490261
0.580295
0.670852
0.749327
0.807468
0.85009
0.882072
0.904994
0.918815
0.924937
0.926712
0.926977
0.926979
-0.0104051
0.0155239
0.0667395
0.136174
0.215464
0.300127
0.388843
0.480934
0.575308
0.67044
0.752918
0.813879
0.858332
0.891474
0.915049
0.929095
0.935375
0.937227
0.937475
0.937448
-0.0364458
-0.0100336
0.0425528
0.114057
0.195823
0.283338
0.375319
0.471099
0.569571
0.669151
0.755635
0.819428
0.865711
0.899962
0.92403
0.938202
0.94451
0.946384
0.946612
0.946552
-0.0617583
-0.0347692
0.0190851
0.0924527
0.176443
0.266524
0.361478
0.460662
0.562996
0.666903
0.757431
0.824156
0.87235
0.907699
0.932154
0.946347
0.952628
0.954467
0.954689
0.954614
-0.0864506
-0.0588727
-0.00381972
0.0712343
0.157217
0.249607
0.347259
0.449572
0.555532
0.663646
0.75828
0.828111
0.878372
0.914838
0.939607
0.953757
0.95996
0.961723
0.961882
0.961773
-0.110629
-0.0824505
-0.0262633
0.0503367
0.138103
0.23256
0.332649
0.437819
0.547162
0.659336
0.758132
0.83132
0.883863
0.921499
0.946536
0.960574
0.966583
0.968206
0.968291
0.968144
-0.134372
-0.10556
-0.0482695
0.0297427
0.119089
0.215397
0.317675
0.425434
0.537896
0.65394
0.756937
0.833761
0.88889
0.927814
0.953078
0.966873
0.972554
0.97396
0.973963
0.973793
-0.157715
-0.12819
-0.0698316
0.00946122
0.100215
0.198159
0.302389
0.412467
0.52777
0.647443
0.754639
0.835372
0.893464
0.933933
0.959434
0.972787
0.97794
0.97905
0.978971
0.978787
-0.180491
-0.150294
-0.0909158
-0.0104844
0.0815248
0.18092
0.286859
0.398997
0.516844
0.63987
0.751178
0.836052
0.897534
0.940013
0.965924
0.978584
0.982865
0.983526
0.983353
0.983171
-0.202658
-0.171825
-0.111494
-0.0300358
0.0630843
0.163746
0.271182
0.385107
0.505202
0.631249
0.746511
0.835673
0.900974
0.946122
0.972947
0.98479
0.987646
0.987473
0.987148
0.987009
-0.224272
-0.19274
-0.131531
-0.049148
0.0449639
0.146726
0.255452
0.370904
0.49294
0.621647
0.74059
0.834103
0.90357
0.952118
0.980833
0.992325
0.993242
0.991328
0.990434
0.990508
-0.24516
-0.213008
-0.150965
-0.0677484
0.0272277
0.12995
0.23977
0.356502
0.480176
0.611169
0.733399
0.831193
0.905061
0.957588
0.989462
1.00216
1.0018
0.997203
0.993782
0.992135
-0.265416
-0.232625
-0.169796
-0.0858641
0.00984276
0.113376
0.224085
0.341841
0.466837
0.599748
0.724782
0.826678
0.905177
0.961968
0.998018
1.01432
1.01543
1.00918
0.99885
0.998449
-0.284947
-0.251662
-0.188159
-0.103691
-0.00749092
0.0966597
0.207969
0.32642
0.452358
0.586729
0.714049
0.819753
0.903365
0.964458
1.00457
1.02597
1.02972
1.01993
1.00195
0.9986
-0.303608
-0.270077
-0.205876
-0.121022
-0.0245123
0.0801103
0.191642
0.31057
0.437048
0.572372
0.701293
0.809847
0.898947
0.963913
1.0048
1.02608
1.03325
1.0103
0.952011
0.92651
-0.321272
-0.28868
-0.222535
-0.137343
-0.0405067
0.0642183
0.175379
0.294567
0.421189
0.556856
0.686598
0.796444
0.891038
0.959642
0.99407
1.00983
1.00171
0.953196
0.891963
0.854415
-0.365685
-0.306646
-0.237996
-0.153312
-0.0562584
0.0480559
0.159313
0.278292
0.404586
0.539856
0.669586
0.779052
0.876031
0.949728
0.971112
0.964123
0.92251
0.860916
0.793516
0.756498
-0.34053
-0.322063
-0.261461
-0.176652
-0.0802811
0.0238177
0.13434
0.252623
0.377897
0.511584
0.639528
0.746544
0.834466
0.914697
0.90308
0.80148
0.715623
0.655834
0.593754
0.622275
-0.37252
-0.340383
-0.278906
-0.194624
-0.0983942
0.00542223
0.11609
0.233697
0.357905
0.489762
0.615011
0.718339
0.796229
0.841045
0.794783
0.661465
0.556961
0.486457
0.40626
0.453385
-0.397481
-0.362821
-0.299455
-0.214995
-0.118823
-0.015051
0.0955193
0.212329
0.335156
0.464601
0.586027
0.683294
0.75033
0.758042
0.657433
0.507526
0.382612
0.293203
0.199633
0.232374
-0.421869
-0.386048
-0.321196
-0.236014
-0.139689
-0.0360087
0.0740911
0.189947
0.311179
0.437831
0.554488
0.644246
0.694938
0.670853
0.518712
0.346505
0.190432
0.0597173
-0.0624452
-0.0488296
-0.446017
-0.409717
-0.34387
-0.258038
-0.161478
-0.0579567
0.0515356
0.166303
0.285671
0.409147
0.520261
0.602664
0.6332
0.565926
0.382503
0.189978
0.00666187
-0.144019
-0.347103
-0.425745
-0.470607
-0.434298
-0.367825
-0.281489
-0.184675
-0.0812608
0.0276964
0.141352
0.258746
0.378807
0.484038
0.557356
0.563748
0.445528
0.258502
0.0538275
-0.134341
-0.293203
-0.415099
-0.532868
-0.496734
-0.460284
-0.39343
-0.306775
-0.209839
-0.106621
0.00171272
0.114089
0.229175
0.345282
0.444189
0.505386
0.485542
0.331167
0.142602
-0.0561565
-0.227745
-0.322423
-0.348071
-0.36161
-0.524539
-0.487967
-0.420825
-0.334006
-0.237128
-0.134268
-0.0267963
0.0839968
0.196331
0.307754
0.39986
0.44405
0.406182
0.221402
0.0346881
-0.143711
-0.272962
-0.309809
-0.318503
-0.318858
-0.554312
-0.51748
-0.450049
-0.363167
-0.26649
-0.164213
-0.0578585
0.0510145
0.160135
0.266163
0.350473
0.379262
0.310688
0.121039
-0.0596151
-0.214433
-0.286155
-0.300089
-0.301075
-0.300867
-0.58607
-0.548863
-0.48112
-0.394257
-0.297943
-0.19645
-0.0914881
0.0151183
0.120592
0.22058
0.295816
0.310305
0.204367
0.0299399
-0.140725
-0.262547
-0.289774
-0.290807
-0.291588
-0.291169
-0.619557
-0.581942
-0.513934
-0.427193
-0.331399
-0.230927
-0.127663
-0.0236768
0.0777506
0.1711
0.236986
0.232737
0.109238
-0.054769
-0.204961
-0.272397
-0.287085
-0.285716
-0.2856
-0.285311
-0.654198
-0.61637
-0.548223
-0.461739
-0.366665
-0.267482
-0.166232
-0.065258
0.0318238
0.118108
0.174107
0.153932
0.0204556
-0.130444
-0.24789
-0.282993
-0.28201
-0.281582
-0.281186
-0.280899
-0.689556
-0.651608
-0.583498
-0.497467
-0.403374
-0.305781
-0.206906
-0.109355
-0.0169122
0.0624857
0.105777
0.0791249
-0.0611997
-0.189353
-0.272955
-0.279704
-0.280963
-0.280879
-0.280319
-0.279821
-0.724641
-0.686747
-0.618991
-0.533718
-0.440955
-0.345328
-0.249211
-0.155477
-0.0680588
0.00505187
0.0376661
0.00124419
-0.133535
-0.236356
-0.278857
-0.288932
-0.284529
-0.282921
-0.281887
-0.281324
-0.757549
-0.720466
-0.653652
-0.569574
-0.4786
-0.385387
-0.29246
-0.202886
-0.120845
-0.0537814
-0.0261408
-0.0806453
-0.200162
-0.284456
-0.299293
-0.295632
-0.288861
-0.283193
-0.281402
-0.280823
-0.78721
-0.751238
-0.686045
-0.603805
-0.515222
-0.42498
-0.335733
-0.25065
-0.174075
-0.113093
-0.0892189
-0.151639
-0.260074
-0.331494
-0.340389
-0.317796
-0.29609
-0.284463
-0.281751
-0.280855
-0.810851
-0.7769
-0.714377
-0.634845
-0.549463
-0.462889
-0.37787
-0.297618
-0.226609
-0.170543
-0.152243
-0.205781
-0.306987
-0.379462
-0.36414
-0.344459
-0.327991
-0.317807
-0.311405
-0.308299
-0.826324
-0.795252
-0.736508
-0.660888
-0.579743
-0.497698
-0.417507
-0.342427
-0.277273
-0.223791
-0.205576
-0.245255
-0.317066
-0.419829
-0.396789
-0.388764
-0.395545
-0.38883
-0.378358
-0.374543
-0.830883
-0.803825
-0.750264
-0.68003
-0.604345
-0.527912
-0.453187
-0.383656
-0.324035
-0.273508
-0.243662
-0.271197
-0.25763
-0.352395
-0.373216
-0.375759
-0.394686
-0.402018
-0.401939
-0.402314
-0.822193
-0.800113
-0.753463
-0.690419
-0.621701
-0.552069
-0.483628
-0.419755
-0.364911
-0.321246
-0.271355
-0.270676
-0.173446
-0.0763195
-0.225414
-0.338309
-0.385839
-0.403355
-0.411166
-0.413928
-0.797449
-0.781139
-0.744084
-0.690766
-0.630705
-0.568968
-0.507793
-0.449581
-0.400022
-0.363965
-0.314242
-0.323116
-0.256676
-0.148538
-0.254386
-0.409953
-0.479172
-0.494741
-0.500402
-0.50242
-0.760009
-0.749552
-0.723016
-0.68123
-0.631222
-0.578194
-0.52474
-0.4727
-0.428107
-0.398104
-0.391687
-0.475574
-0.629884
-0.666069
-0.66973
-0.67721
-0.682323
-0.655195
-0.649203
-0.649755
-0.716797
-0.710907
-0.695172
-0.664691
-0.625134
-0.580431
-0.53377
-0.488418
-0.447125
-0.424271
-0.422218
-0.62604
-0.962034
-1.35914
-1.38929
-1.32613
-1.18251
-0.980711
-0.856634
-0.844635
-0.677882
-0.674457
-0.666877
-0.646591
-0.61529
-0.577326
-0.536257
-0.493421
-0.455633
-0.430541
-0.435637
-0.554184
-0.760962
-1.06159
-1.25155
-1.27098
-1.21703
-1.07545
-0.930476
-0.862068
-0.649767
-0.647806
-0.644035
-0.631156
-0.606065
-0.571945
-0.532882
-0.491214
-0.448403
-0.414244
-0.423606
-0.401766
-0.32957
-0.254439
-0.0992094
-0.050299
-0.0303218
0.0058356
0.0274093
0.051133
-0.628471
-0.627741
-0.626552
-0.61993
-0.600072
-0.56756
-0.527293
-0.480304
-0.430005
-0.382236
-0.337517
-0.29707
-0.0760408
0.18768
0.426731
0.555805
0.622972
0.60557
0.593567
0.5871
-0.616018
-0.615632
-0.615083
-0.612139
-0.597159
-0.564796
-0.5191
-0.465929
-0.404762
-0.330892
-0.248184
-0.133901
0.042422
0.312362
0.525107
0.655178
0.732482
0.799251
0.863747
0.889642
-0.60839
-0.608389
-0.608345
-0.607859
-0.596611
-0.563538
-0.513518
-0.451842
-0.372513
-0.279875
-0.18379
-0.0198952
0.22253
0.491635
0.746555
0.95224
1.1009
1.24263
1.34087
1.38153
-0.601685
-0.601984
-0.60202
-0.601776
-0.593636
-0.564513
-0.513388
-0.44175
-0.353852
-0.242656
-0.130935
-0.00842712
0.26975
0.58645
0.923486
1.25293
1.51365
1.68877
1.77996
1.80941
-0.601526
-0.599689
-0.593535
-0.586451
-0.585209
-0.571013
-0.523401
-0.44095
-0.341374
-0.224947
-0.101668
0.00532757
0.22484
0.533783
0.899837
1.24249
1.50825
1.67864
1.75777
1.77889
-0.633258
-0.628132
-0.616428
-0.60652
-0.609021
-0.604805
-0.547158
-0.445786
-0.331503
-0.215063
-0.0862146
0.0276358
0.191063
0.491448
0.786329
1.05656
1.26496
1.39551
1.4519
1.46651
-0.711248
-0.711261
-0.719323
-0.730141
-0.728996
-0.690991
-0.582876
-0.451641
-0.32272
-0.20301
-0.0830855
0.0277541
0.132344
0.314278
0.581755
0.802937
0.967016
1.05954
1.09824
1.10649
-0.800391
-0.815244
-0.844641
-0.861934
-0.84812
-0.765251
-0.602349
-0.445003
-0.312065
-0.189289
-0.0823492
0.0109867
0.0945008
0.219135
0.404965
0.56139
0.679642
0.748354
0.774824
0.779118
-0.782036
-0.799619
-0.82866
-0.846911
-0.827654
-0.722864
-0.552476
-0.407838
-0.283965
-0.176286
-0.0867421
-0.0102471
0.0312422
0.119061
0.258875
0.369298
0.451219
0.492856
0.508958
0.510082
-0.576871
-0.593781
-0.619892
-0.639002
-0.619615
-0.536094
-0.429226
-0.326116
-0.231379
-0.15349
-0.0897396
-0.0345584
-0.00973826
0.0323576
0.124913
0.207322
0.263247
0.291599
0.301772
0.302406
-0.267416
-0.277245
-0.294926
-0.313491
-0.316007
-0.294613
-0.259195
-0.213678
-0.166469
-0.120239
-0.0873107
-0.055695
-0.044607
-0.00347623
0.0572447
0.100897
0.129353
0.144638
0.149734
0.149324
-0.00965322
-0.013757
-0.0250659
-0.0462498
-0.0730813
-0.0961062
-0.108604
-0.110574
-0.10252
-0.0826956
-0.0744126
-0.0750954
-0.0837079
-0.0569634
-0.00690909
0.0250178
0.0421004
0.0475096
0.0486019
0.0481713
0.125644
0.123381
0.114372
0.0928515
0.058443
0.0197352
-0.0130951
-0.0352386
-0.0480401
-0.0497498
-0.0582622
-0.0797908
-0.0997904
-0.0680353
-0.0366288
-0.02023
-0.0100499
-0.00731714
-0.00638366
-0.00662241
0.169754
0.168088
0.161021
0.143169
0.11356
0.0779557
0.0435761
0.014752
-0.00512761
-0.0177253
-0.0313098
-0.0520019
-0.0664214
-0.0400217
-0.0188821
-0.0131907
-0.0161302
-0.0200919
-0.0216254
-0.0218763
0.170314
0.169148
0.164193
0.151549
0.129851
0.102576
0.0737675
0.0476789
0.0274921
0.0142973
0.00392812
-0.00413861
-0.00283774
0.00819592
0.0109383
0.00682315
0.000903739
-0.00225333
-0.00335261
-0.00366029
0.155023
0.154307
0.151126
0.142817
0.128131
0.108705
0.0872418
0.0668708
0.050697
0.0422687
0.0418579
0.0475795
0.0602279
0.0667333
0.0606411
0.0491646
0.0396501
0.0344358
0.0329304
0.0325059
0.135499
0.135118
0.133211
0.128046
0.118623
0.105713
0.0908753
0.0768144
0.0663589
0.0647013
0.0750306
0.0927729
0.116024
0.116002
0.103552
0.0908192
0.0829912
0.0795865
0.0783699
0.0777233
0.115723
0.115607
0.114558
0.111525
0.105749
0.0975915
0.0881304
0.0793911
0.0743977
0.0785829
0.0984663
0.129939
0.156472
0.154081
0.137415
0.125495
0.121109
0.120324
0.119365
0.118376
0.0969353
0.0969068
0.0963957
0.0947117
0.0913527
0.0864403
0.0807292
0.075845
0.0745333
0.082564
0.107373
0.144004
0.175175
0.168941
0.153044
0.145051
0.143135
0.143625
0.143327
0.142081
0.0790849
0.0791343
0.0789304
0.078099
0.076266
0.0734843
0.0701629
0.067496
0.0676625
0.0755386
0.098454
0.131749
0.158664
0.149673
0.137104
0.134974
0.138285
0.141459
0.141439
0.140067
0.0622026
0.0622667
0.0622171
0.0619023
0.061026
0.0595359
0.0575423
0.0557049
0.0552318
0.0587756
0.0717598
0.0921743
0.108046
0.100642
0.0970962
0.102798
0.109891
0.113534
0.113402
0.112155
0.0465369
0.0465754
0.0466034
0.0465673
0.0462579
0.0455184
0.0441037
0.0422472
0.0395526
0.0361163
0.0323409
0.0295021
0.0256806
0.0229531
0.032586
0.0483095
0.0600298
0.0648621
0.0650348
0.0641101
0.0324772
0.0324742
0.0324939
0.0326146
0.0326173
0.0323089
0.0311882
0.0286895
0.0240689
0.0131806
-0.00982718
-0.0442769
-0.0795526
-0.0722869
-0.0420273
-0.0139007
0.00166071
0.00620291
0.00684921
0.00664692
0.0203355
0.0202966
0.0202879
0.0204227
0.0205948
0.0204316
0.0196022
0.017403
0.0116435
-0.0032665
-0.0388217
-0.102685
-0.149258
-0.128775
-0.0856177
-0.0548812
-0.0435142
-0.0407368
-0.0391467
-0.0384707
0.010171
0.0100977
0.0100703
0.0101927
0.0104009
0.0103984
0.00995197
0.00822743
0.0040325
-0.00795564
-0.0388104
-0.0970868
-0.130057
-0.104208
-0.0699262
-0.0545896
-0.0512533
-0.0509835
-0.0489237
-0.0478095
0.00195162
0.00193779
0.00191608
0.00188706
0.00195492
0.00211375
0.00208162
0.00199917
0.00139936
-0.000163972
-0.00513748
-0.0165892
-0.0331154
-0.0283676
-0.0248293
-0.0231605
-0.022362
-0.0197423
-0.0159428
-0.014174
0.0850429
0.274378
0.44859
0.596782
0.716547
0.812223
0.892417
0.957641
0.974432
0.970613
0.377992
0.500143
0.61483
0.714904
0.799622
0.869945
0.925497
0.963055
0.983102
0.999631
0.577039
0.658698
0.739604
0.810893
0.871917
0.922608
0.96251
0.992839
1.01556
1.03481
0.724259
0.781926
0.840658
0.893485
0.939094
0.977834
1.01027
1.03742
1.05784
1.07675
0.841418
0.885414
0.929335
0.970107
1.00641
1.03846
1.06645
1.09014
1.10817
1.12622
0.941087
0.976748
1.0119
1.04583
1.07709
1.10538
1.13034
1.15127
1.16709
1.18458
1.0293
1.06154
1.09388
1.12513
1.15421
1.18065
1.20382
1.2228
1.23674
1.25377
1.11648
1.14914
1.18164
1.21289
1.2417
1.26753
1.2897
1.30726
1.31966
1.3362
1.211
1.24743
1.28223
1.31473
1.34394
1.36932
1.39047
1.40678
1.41841
1.43456
1.32411
1.36469
1.40174
1.43474
1.46326
1.48728
1.50692
1.52221
1.53412
1.55021
1.46548
1.5066
1.54188
1.5715
1.59672
1.61835
1.63686
1.65236
1.66548
1.68143
1.63708
1.66954
1.69641
1.71873
1.73883
1.75756
1.7753
1.79208
1.80699
1.82272
1.82345
1.84074
1.85786
1.87455
1.89064
1.90538
1.91929
1.93377
1.94901
1.96631
2.00684
2.01682
2.03003
2.04102
2.05042
2.06008
2.0707
2.08088
2.09017
2.11583
2.22476
2.21905
2.20611
2.19185
2.18556
2.19127
2.20942
2.23794
2.2717
2.30803
2.52757
2.39162
2.31212
2.2696
2.25228
2.25626
2.28369
2.34156
2.44922
2.62763
0.832894
0.82659
0.818857
0.807738
0.794159
0.781499
0.771086
0.763053
0.757307
0.753939
0.753545
0.75634
0.761542
0.768878
0.778413
0.790232
0.803787
0.816712
0.825698
0.833237
0.741976
0.747894
0.755962
0.762088
0.765149
0.764626
0.761523
0.757505
0.753886
0.751563
0.751387
0.7536
0.757323
0.761746
0.765832
0.768066
0.766985
0.762343
0.755286
0.747451
0.735245
0.737617
0.74088
0.743646
0.746087
0.748263
0.749424
0.749253
0.748283
0.747435
0.747603
0.748975
0.750724
0.751929
0.751836
0.750356
0.748188
0.745819
0.742832
0.739812
0.730485
0.731573
0.733485
0.735815
0.737676
0.739059
0.740256
0.741221
0.741784
0.742117
0.74262
0.743316
0.743747
0.743601
0.742952
0.742013
0.74067
0.738692
0.736578
0.735099
0.7255
0.726134
0.727258
0.729006
0.730836
0.732412
0.733639
0.734671
0.73561
0.736454
0.737181
0.73765
0.737746
0.737506
0.736944
0.735951
0.734509
0.732887
0.731542
0.730738
0.720624
0.721063
0.721847
0.723141
0.724648
0.72619
0.727641
0.728899
0.730003
0.731028
0.731911
0.732452
0.732581
0.732305
0.731611
0.730587
0.729414
0.728255
0.727343
0.726807
0.71585
0.716178
0.716786
0.717844
0.719122
0.720498
0.721944
0.723375
0.724708
0.725938
0.727003
0.727672
0.727836
0.727543
0.726907
0.726092
0.725221
0.724348
0.723676
0.723282
0.711154
0.711409
0.711899
0.712798
0.713951
0.715233
0.716617
0.718094
0.719607
0.721084
0.722381
0.723206
0.72347
0.723309
0.722877
0.722291
0.721625
0.720974
0.72048
0.720179
0.706469
0.706672
0.707078
0.707867
0.708939
0.71017
0.711536
0.713052
0.714696
0.716407
0.717981
0.719046
0.719526
0.719593
0.719387
0.719015
0.718547
0.718082
0.717724
0.717487
0.701711
0.701875
0.702223
0.702937
0.703962
0.70517
0.706561
0.708152
0.709943
0.71189
0.713788
0.715195
0.715983
0.716324
0.71636
0.716204
0.715938
0.715639
0.715394
0.715204
0.696796
0.696929
0.697235
0.697904
0.69891
0.70014
0.701594
0.703304
0.705291
0.707536
0.709832
0.711659
0.712815
0.713472
0.713777
0.713852
0.713784
0.713644
0.713494
0.713341
0.691638
0.691746
0.692025
0.692674
0.693696
0.694991
0.69655
0.69843
0.700677
0.7033
0.706087
0.708421
0.710012
0.711035
0.711645
0.711967
0.712101
0.712119
0.712053
0.711928
0.686149
0.686235
0.686498
0.687152
0.688226
0.689627
0.691348
0.69347
0.696066
0.699172
0.702566
0.705505
0.707603
0.709041
0.70999
0.710601
0.710957
0.711121
0.711126
0.711023
0.680222
0.680289
0.680545
0.681227
0.682391
0.683945
0.685893
0.688337
0.691381
0.69509
0.699228
0.702898
0.705598
0.707522
0.708858
0.709784
0.710381
0.710702
0.710776
0.710691
0.673735
0.673784
0.674042
0.674774
0.676067
0.677833
0.680081
0.682938
0.686543
0.690997
0.696043
0.700597
0.704018
0.706518
0.708305
0.709584
0.710461
0.71095
0.711092
0.711021
0.666543
0.666573
0.666839
0.667645
0.669109
0.671149
0.67378
0.677157
0.681458
0.686831
0.692984
0.698606
0.702891
0.70608
0.708405
0.710101
0.711294
0.711963
0.712173
0.712114
0.658456
0.658475
0.658741
0.659646
0.661334
0.663724
0.666845
0.670886
0.676066
0.682569
0.690068
0.696979
0.70229
0.706279
0.709238
0.711439
0.712987
0.713855
0.714135
0.714085
0.649167
0.64916
0.649482
0.650527
0.652511
0.655355
0.659102
0.663984
0.670277
0.678198
0.687338
0.69577
0.702285
0.707215
0.710915
0.713704
0.715662
0.71675
0.717102
0.717059
0.638411
0.638381
0.638751
0.639986
0.64234
0.645766
0.650314
0.656261
0.663938
0.673603
0.684732
0.694986
0.702927
0.708974
0.713545
0.717013
0.719446
0.720776
0.721201
0.721162
0.625711
0.62566
0.626104
0.627583
0.630415
0.634595
0.640182
0.647499
0.656927
0.668748
0.682291
0.694701
0.704302
0.711646
0.717244
0.721498
0.724469
0.726061
0.726558
0.726518
0.610427
0.610352
0.610916
0.61274
0.616215
0.621409
0.628375
0.637487
0.649162
0.663661
0.680099
0.695044
0.706546
0.715357
0.722141
0.727284
0.730852
0.732714
0.733276
0.733228
0.591642
0.591548
0.592307
0.594634
0.599012
0.60561
0.614459
0.625968
0.640559
0.658412
0.678289
0.696106
0.709759
0.720229
0.728313
0.734462
0.73867
0.740797
0.741409
0.741348
0.567949
0.567852
0.56894
0.572041
0.577771
0.586417
0.59793
0.612697
0.63103
0.652941
0.676843
0.697954
0.714005
0.726319
0.735832
0.743083
0.747951
0.750315
0.750951
0.750867
0.537031
0.536977
0.538662
0.543103
0.551098
0.56293
0.578379
0.597651
0.620846
0.647714
0.676202
0.700863
0.719448
0.733705
0.744774
0.753172
0.75865
0.761176
0.761792
0.761676
0.49478
0.494923
0.497905
0.505135
0.517368
0.534461
0.555745
0.581094
0.610301
0.642899
0.676451
0.704932
0.726182
0.742446
0.75509
0.764631
0.770585
0.773133
0.773671
0.773516
0.43354
0.434829
0.442081
0.455719
0.475688
0.501114
0.530596
0.56365
0.599946
0.638945
0.677899
0.710286
0.734208
0.752444
0.766591
0.777118
0.783358
0.785714
0.786082
0.785897
0.360132
0.362671
0.376782
0.4003
0.430896
0.466241
0.504679
0.545965
0.589897
0.636015
0.681292
0.71858
0.746055
0.766971
0.783056
0.794704
0.801217
0.803548
0.803914
0.803827
0.284855
0.291653
0.312856
0.346272
0.387229
0.432255
0.479638
0.529217
0.580871
0.634212
0.686
0.728369
0.759514
0.783262
0.801445
0.814081
0.820564
0.822595
0.822893
0.822879
0.223504
0.23214
0.257964
0.298417
0.347509
0.400765
0.456243
0.513634
0.572707
0.632991
0.69097
0.738107
0.772599
0.79881
0.818682
0.832136
0.838704
0.840646
0.841064
0.84113
0.173221
0.182566
0.211905
0.257613
0.312855
0.372715
0.435022
0.499291
0.565116
0.631889
0.695703
0.747349
0.784999
0.813464
0.834951
0.849334
0.856308
0.85865
0.859191
0.859295
0.13101
0.140673
0.17243
0.222253
0.282538
0.347885
0.415968
0.486223
0.558107
0.630861
0.700156
0.756039
0.796676
0.827318
0.850407
0.865872
0.873543
0.876209
0.876822
0.876934
0.0944269
0.104246
0.137835
0.190968
0.255469
0.325524
0.398652
0.474209
0.551562
0.62981
0.704234
0.764096
0.807516
0.840229
0.864796
0.881265
0.889606
0.892537
0.893223
0.893323
0.0618242
0.0717211
0.106772
0.162656
0.230746
0.304883
0.382474
0.462814
0.54519
0.628549
0.707794
0.771403
0.817401
0.851925
0.877753
0.895066
0.904045
0.907263
0.907988
0.908072
0.031992
0.041951
0.0781878
0.136465
0.207669
0.285385
0.366952
0.451649
0.53868
0.626872
0.710678
0.777864
0.826265
0.862409
0.889315
0.907287
0.9167
0.920161
0.920942
0.921016
0.00402165
0.0140551
0.0513843
0.111785
0.185734
0.266606
0.351736
0.44041
0.53177
0.624549
0.712789
0.783443
0.834153
0.87179
0.899654
0.918131
0.927791
0.931417
0.932235
0.932288
-0.0226312
-0.0124805
0.0258581
0.0881672
0.164548
0.248233
0.336575
0.428885
0.524278
0.621437
0.714052
0.788155
0.84114
0.880229
0.908935
0.927776
0.937547
0.941223
0.942042
0.942067
-0.0483692
-0.0380435
0.00124515
0.0652899
0.143843
0.230052
0.321301
0.416939
0.516098
0.617445
0.714386
0.792002
0.84731
0.887857
0.917316
0.936372
0.946165
0.949816
0.950607
0.950594
-0.0734581
-0.0628774
-0.0226758
0.0429606
0.123467
0.211934
0.305813
0.404498
0.507153
0.61251
0.713743
0.794979
0.852751
0.894834
0.924987
0.944166
0.953918
0.957506
0.958247
0.95821
-0.0979678
-0.0871189
-0.0460411
0.0210637
0.103331
0.193823
0.29007
0.391528
0.497417
0.606584
0.712071
0.797087
0.857542
0.901273
0.932091
0.951332
0.960979
0.964435
0.965087
0.965012
-0.122002
-0.110867
-0.0689383
-0.000443295
0.083403
0.175699
0.274073
0.37804
0.486899
0.599655
0.709317
0.798297
0.861728
0.907281
0.938769
0.957994
0.967417
0.970654
0.971179
0.971056
-0.145568
-0.13414
-0.0913542
-0.0215702
0.0636879
0.157588
0.257865
0.364078
0.475633
0.591718
0.705442
0.798549
0.865302
0.912952
0.945181
0.964278
0.973289
0.976186
0.976556
0.976396
-0.168711
-0.156921
-0.11326
-0.0422995
0.0442141
0.139537
0.241497
0.34971
0.463678
0.582804
0.700416
0.797767
0.868195
0.918353
0.951559
0.970428
0.978741
0.981105
0.981284
0.981096
-0.191188
-0.179151
-0.13463
-0.0625986
0.0250391
0.121627
0.225045
0.335014
0.451116
0.572974
0.694224
0.795865
0.87029
0.923486
0.958167
0.976848
0.984063
0.985522
0.985398
0.985196
-0.213154
-0.200766
-0.155424
-0.0824299
0.00620724
0.103905
0.20861
0.32008
0.438038
0.562313
0.686875
0.792749
0.871422
0.928214
0.965175
0.984144
0.989948
0.9898
0.988976
0.988765
-0.234417
-0.22172
-0.175617
-0.101735
-0.0121927
0.086464
0.19228
0.305034
0.424557
0.550895
0.678408
0.788325
0.871405
0.932253
0.972453
0.992908
0.997789
0.995307
0.992613
0.99194
-0.255071
-0.242033
-0.195144
-0.120449
-0.0301177
0.0693766
0.176147
0.289963
0.410785
0.538864
0.668897
0.782494
0.870044
0.935209
0.979378
1.00303
1.00908
1.00526
0.998935
0.989597
-0.274994
-0.261693
-0.214096
-0.138739
-0.0477932
0.0523506
0.159863
0.274448
0.396257
0.525696
0.657802
0.774644
0.866862
0.936701
0.985125
1.01347
1.02369
1.02041
1.00987
1.00766
-0.29414
-0.280778
-0.232462
-0.156536
-0.0651923
0.0354162
0.143463
0.258474
0.380944
0.511274
0.644955
0.764324
0.861178
0.935948
0.987623
1.01945
1.03254
1.0333
0.999749
0.960701
-0.312262
-0.299148
-0.250181
-0.173708
-0.0822909
0.0185586
0.126962
0.242176
0.364923
0.495649
0.630299
0.751237
0.851969
0.932232
0.984924
1.01172
1.02478
1.00854
0.957227
0.902058
-0.332101
-0.315515
-0.26692
-0.189757
-0.0988726