/*--------------------------------*- C++ -*----------------------------------*\
  =========                 |
  \\      /  F ield         | OpenFOAM: The Open Source CFD Toolbox
   \\    /   O peration     | Website:  https://openfoam.org
    \\  /    A nd           | Version:  6
     \\/     M anipulation  |
\*---------------------------------------------------------------------------*/
FoamFile
{
    version     2.0;
    format      ascii;
    class       surfaceScalarField;
    location    "1";
    object      phi;
}
// * * * * * * * * * * * * * * * * * * * * * * * * * * * * * * * * * * * * * //

dimensions      [0 3 -1 0 0 0 0];

internalField   nonuniform List<scalar> 
4262
(
0.060239
0.517749
0.0531737
0.700651
0.0432553
0.842221
0.0335057
1.00851
0.0250882
1.20693
0.0181326
1.44518
0.0124314
1.73156
0.00765852
2.07581
0.00341596
2.48949
-0.000840048
2.98655
-0.00492621
2.98638
-0.0089723
2.48929
-0.0135212
2.07559
-0.0190025
1.73134
-0.0257585
1.44498
-0.034003
1.20676
-0.0435973
1.00836
-0.0533629
0.842069
-0.0602917
0.700515
0.517696
0.0233384
0.494411
0.0261979
0.697792
0.0261995
0.84222
0.0249445
1.00977
0.022019
1.20986
0.0179257
1.44927
0.0132697
1.73622
0.00846994
2.08061
0.00365355
2.4943
-0.0013611
2.99156
-0.00609753
2.99111
-0.0105781
2.49377
-0.0150237
2.08003
-0.0193217
1.73564
-0.0230705
1.44872
-0.0256762
1.20937
-0.0266491
1.00933
-0.0264373
0.841857
-0.0234244
0.697502
0.494272
0.0111119
0.483299
0.0108039
0.6981
0.0105207
0.842503
0.0105582
1.00973
0.0103925
1.21003
0.00953043
1.45013
0.00780057
1.73795
0.00526447
2.08315
0.00210403
2.49746
-0.00147862
2.99515
-0.00522959
2.99487
-0.00809791
2.49664
-0.0102042
2.08214
-0.0114728
1.73691
-0.0118922
1.44914
-0.0116563
1.20913
-0.0112751
1.00895
-0.0113108
0.841892
-0.0114281
0.697619
0.482844
0.00367465
0.479624
0.005366
0.696408
0.00652079
0.841348
0.00717881
1.00907
0.00731547
1.20989
0.00687756
1.45057
0.00576297
1.73907
0.00393355
2.08497
0.00147722
2.49992
-0.00144338
2.99807
-0.00461034
2.99803
-0.00688493
2.49891
-0.00831515
2.08357
-0.0089815
1.73758
-0.00899995
1.44916
-0.00850937
1.20864
-0.0075545
1.00799
-0.00611821
0.840456
-0.00406518
0.695566
0.478779
0.000434636
0.47919
0.00131227
0.695531
0.00220849
0.840452
0.00292867
1.00835
0.00327869
1.20954
0.00318052
1.45067
0.00257121
1.73967
0.0014125
2.08613
-0.00027506
2.50161
-0.00236394
3.00016
-0.00422653
2.9999
-0.00540555
2.50009
-0.00593977
2.0841
-0.00592413
1.73756
-0.00545422
1.44869
-0.00460756
1.20779
-0.00347437
1.00686
-0.00214161
0.839123
-0.000781333
0.694206
0.477997
0.000340818
0.478849
0.000741661
0.69513
0.00112505
0.840069
0.00146758
1.00801
0.00166694
1.20934
0.00160112
1.45073
0.00115967
1.74012
0.00026944
2.08702
-0.00108048
2.50296
-0.0027978
3.00187
-0.00407375
3.00117
-0.00474883
2.50077
-0.0048827
2.08424
-0.00455625
1.73724
-0.00389638
1.44803
-0.00304212
1.20694
-0.00211884
1.00594
-0.00123587
0.83824
-0.000473153
0.693443
0.477524
0.000194078
0.478655
0.000323462
0.695
0.000363874
0.840028
0.00032179
1.00805
0.000198434
1.20946
-6.54328e-05
1.451
-0.00054439
1.74059
-0.00129819
2.08778
-0.00233187
2.50399
-0.00353644
3.00308
-0.00424642
3.00188
-0.00444353
2.50096
-0.00418959
2.08398
-0.00366159
1.73671
-0.00299134
1.44736
-0.00227691
1.20622
-0.00158372
1.00525
-0.000953411
0.83761
-0.000414055
0.692904
0.47711
-2.41543e-05
0.478679
-0.000110321
0.695087
-0.000272757
0.840191
-0.000508586
1.00829
-0.0008266
1.20978
-0.00125874
1.45143
-0.00183983
1.74118
-0.00258809
2.08853
-0.00346779
2.50487
-0.00432239
3.00393
-0.00464169
3.0022
-0.00449589
2.50082
-0.00406314
2.08355
-0.00345286
1.7361
-0.00276495
1.44667
-0.00207501
1.20553
-0.00143066
1.0046
-0.000856101
0.837036
-0.000362055
0.69241
0.476748
-0.000177779
0.478857
-0.0004369
0.695346
-0.000775976
0.84053
-0.00119481
1.00871
-0.00170309
1.21029
-0.00231704
1.45204
-0.00304599
1.74191
-0.00387338
2.08935
-0.00472105
2.50572
-0.00539228
3.0046
-0.00549762
3.00231
-0.00511608
2.50044
-0.00445275
2.08289
-0.00366402
1.73531
-0.0028598
1.44587
-0.00210452
1.20478
-0.0014296
1.00393
-0.000845341
0.836451
-0.000350492
0.691915
0.476398
-0.00030664
0.479163
-0.000728048
0.695767
-0.00123202
0.841034
-0.00183559
1.00931
-0.00255037
1.211
-0.00338012
1.45287
-0.00431156
1.74284
-0.00529421
2.09034
-0.00620405
2.50663
-0.00678964
3.00519
-0.00669557
3.00221
-0.00606518
2.49981
-0.00516687
2.08199
-0.00418583
1.73433
-0.00323194
1.44492
-0.00236248
1.20391
-0.00159978
1.00316
-0.000945857
0.835797
-0.000393624
0.691363
0.476004
-0.000424441
0.479588
-0.00100777
0.69635
-0.00170313
0.841729
-0.00252427
1.01013
-0.00348091
1.21196
-0.00456993
1.45396
-0.0057606
1.74403
-0.00696938
2.09154
-0.0080199
2.50768
-0.00858837
3.00576
-0.00830524
3.00193
-0.00741501
2.49892
-0.00625252
2.08082
-0.00503048
1.73311
-0.00386738
1.44375
-0.00281965
1.20286
-0.00190649
1.00225
-0.00112648
0.835017
-0.000468837
0.690705
0.475535
-0.000557469
0.480145
-0.00132751
0.697121
-0.00224646
0.842648
-0.00332776
1.01121
-0.00457948
1.21321
-0.00599071
1.45537
-0.00751233
1.74555
-0.00902515
2.09306
-0.0102921
2.50895
-0.0108984
3.00636
-0.0104287
3.00146
-0.00923764
2.49773
-0.00774592
2.07933
-0.006209
1.73157
-0.00476322
1.44231
-0.00346958
1.20157
-0.00234581
1.00113
-0.00138669
0.834058
-0.000577204
0.689896
0.474958
-0.000723982
0.480869
-0.00172311
0.69812
-0.00291398
0.843839
-0.00431309
1.01261
-0.00592919
1.21483
-0.00774424
1.45719
-0.00968826
1.74749
-0.0115992
2.09497
-0.0131653
2.51051
-0.0138568
3.00705
-0.0131827
3.00078
-0.0116263
2.49617
-0.00971795
2.07742
-0.00777157
1.72962
-0.00595145
1.44049
-0.00432925
1.19995
-0.00292409
0.999721
-0.00172738
0.832862
-0.000718572
0.688887
0.474239
-0.000933807
0.481803
-0.00222227
0.699408
-0.00375772
0.845374
-0.00555939
1.01441
-0.00763611
1.2169
-0.00996162
1.45951
-0.0124418
1.74997
-0.0148629
2.09739
-0.0168202
2.51247
-0.0176374
3.00787
-0.0167195
2.99987
-0.0147074
2.49416
-0.0122719
2.07499
-0.0098035
1.72715
-0.00750289
1.43819
-0.00545589
1.1979
-0.00368417
0.997949
-0.00217603
0.831353
-0.000905211
0.687616
0.473334
-0.00120035
0.483003
-0.00285543
0.701063
-0.00482743
0.847346
-0.00714072
1.01673
-0.00980522
1.21957
-0.0127837
1.46249
-0.0159501
1.75314
-0.0190241
2.10046
-0.0214826
2.51493
-0.0224634
3.00885
-0.0212375
2.99864
-0.0186452
2.49156
-0.0155362
2.07188
-0.0123996
1.72402
-0.00948433
1.43527
-0.00689483
1.19531
-0.00465563
0.99571
-0.00275001
0.829448
-0.00114391
0.68601
0.47219
-0.00154521
0.484549
-0.00367362
0.703192
-0.00620833
0.849881
-0.00917876
1.0197
-0.0125956
1.22299
-0.0164077
1.4663
-0.0204481
1.75718
-0.0243507
2.10437
-0.0274402
2.51802
-0.0286188
3.01003
-0.0269931
2.99702
-0.0236595
2.48823
-0.0196925
2.06791
-0.0157047
1.72003
-0.0120054
1.43157
-0.00872357
1.19203
-0.00588812
0.992875
-0.00347685
0.827036
-0.00144581
0.683979
0.470745
-0.00199023
0.486539
-0.00472885
0.70593
-0.00798974
0.853142
-0.0118086
1.02352
-0.0161958
1.22737
-0.0210796
1.47119
-0.0262366
1.76234
-0.0311874
2.10932
-0.0350608
2.52189
-0.0364624
3.01143
-0.0343054
2.99486
-0.0300196
2.48395
-0.0249609
2.06285
-0.0198944
1.71496
-0.0152034
1.42688
-0.0110455
1.18787
-0.00745474
0.989284
-0.00440152
0.823983
-0.00183001
0.681407
0.468914
-0.00257207
0.489111
-0.00610585
0.709464
-0.0103112
0.857347
-0.0152304
1.02844
-0.0208717
1.23301
-0.0271334
1.47745
-0.0337146
1.76892
-0.0399837
2.11559
-0.0448159
2.52672
-0.0464471
3.01306
-0.0435743
2.99199
-0.038062
2.47843
-0.0316129
2.05641
-0.0251791
1.70853
-0.0192342
1.42094
-0.0139708
1.18261
-0.00942795
0.984741
-0.00556611
0.820121
-0.0023138
0.678155
0.466601
-0.00333743
0.492448
-0.00791385
0.71404
-0.0133565
0.86279
-0.0197136
1.03479
-0.0269857
1.24029
-0.0350249
1.48549
-0.0434193
1.77731
-0.0513313
2.1235
-0.0573098
2.5327
-0.0591381
3.01489
-0.0552933
2.98814
-0.0482048
2.47134
-0.0399942
2.04819
-0.0318353
1.70037
-0.0243098
1.41341
-0.0176529
1.17595
-0.0119102
0.978998
-0.00703001
0.815241
-0.00292154
0.674046
0.463679
-0.00435684
0.496805
-0.0103152
0.719999
-0.0173945
0.869869
-0.0256459
1.04304
-0.035052
1.24969
-0.0453896
1.49583
-0.0560829
1.78801
-0.0660122
2.13343
-0.0733119
2.54
-0.0752306
3.01681
-0.0700569
2.98297
-0.0609491
2.46224
-0.0505184
2.03776
-0.0401955
1.69005
-0.0306883
1.4039
-0.0222829
1.16754
-0.0150329
0.971748
-0.0088722
0.809081
-0.00368632
0.668861
0.459993
-0.0057438
0.502549
-0.0135653
0.72782
-0.0228415
0.879145
-0.0336195
1.05382
-0.0458399
1.26191
-0.0591506
1.50914
-0.0727277
1.80158
-0.0850669
2.14577
-0.0937943
2.54873
-0.0955645
3.01858
-0.0885735
2.97598
-0.0768995
2.45056
-0.0636977
2.02456
-0.0506799
1.67703
-0.0386982
1.39192
-0.0281024
1.15695
-0.0189603
0.962606
-0.0111898
0.80131
-0.00464862
0.662319
0.455344
-0.00764008
0.510189
-0.0180254
0.738206
-0.0303249
0.891445
-0.0445466
1.06804
-0.0605251
1.27789
-0.0776731
1.52628
-0.0947891
1.8187
-0.109866
2.16084
-0.119956
2.55882
-0.121121
3.01975
-0.111655
2.96651
-0.0967643
2.43567
-0.0801602
2.00796
-0.0638331
1.6607
-0.048787
1.37688
-0.0354516
1.14361
-0.0239246
0.951079
-0.0141179
0.791503
-0.00586212
0.654064
0.449482
-0.0106323
0.520821
-0.0247174
0.752291
-0.0412474
0.907975
-0.0601923
1.08699
-0.0811405
1.29884
-0.103095
1.54824
-0.124312
1.83992
-0.142191
2.17872
-0.153225
2.56985
-0.152988
3.01951
-0.140183
2.95371
-0.121341
2.41683
-0.100668
1.98729
-0.0803809
1.64042
-0.0616141
1.35811
-0.0448875
1.12689
-0.030354
0.936546
-0.0179447
0.779094
-0.00747164
0.643591
0.44201
-0.0145153
0.535337
-0.0342179
0.771993
-0.0573681
0.931125
-0.0832285
1.11285
-0.110832
1.32644
-0.138559
1.57597
-0.164063
1.86542
-0.184234
2.19889
-0.195205
2.58082
-0.192314
3.01662
-0.175078
2.93647
-0.151497
2.39325
-0.126123
1.96191
-0.101265
1.61556
-0.0781004
1.33494
-0.0572005
1.10599
-0.0387904
0.918135
-0.0228811
0.763185
-0.00939358
0.630103
0.432617
-0.0273879
0.562725
-0.0557319
0.800337
-0.0874539
0.962847
-0.121477
1.14687
-0.156164
1.36113
-0.189225
1.60903
-0.217818
1.89401
-0.238557
2.21963
-0.247494
2.58976
-0.240025
3.00915
-0.217003
2.91345
-0.187951
2.3642
-0.157476
1.93144
-0.127798
1.58588
-0.100008
1.30715
-0.0746446
1.08062
-0.0519515
0.895442
-0.0319541
0.743187
-0.0144154
0.612564
0.418201
-0.0419411
0.604666
-0.0893974
0.847794
-0.136103
1.00955
-0.181216
1.19198
-0.223166
1.40308
-0.259924
1.64579
-0.289007
1.9231
-0.307415
2.23804
-0.311567
2.59391
-0.297207
2.99479
-0.266939
2.88318
-0.231755
2.32901
-0.195992
1.89567
-0.161497
1.55138
-0.128975
1.27463
-0.0986089
1.05026
-0.0703569
0.86719
-0.0441248
0.716955
-0.0198517
0.588291
0.39835
-0.0312569
0.635923
-0.0785296
0.895066
-0.126489
1.05751
-0.174316
1.23981
-0.221229
1.44999
-0.26604
1.6906
-0.306755
1.96381
-0.340178
2.27146
-0.361401
2.61513
-0.363045
2.99643
-0.341107
2.86124
-0.305416
2.29332
-0.263172
1.85343
-0.218511
1.50672
-0.173919
1.23004
-0.130959
1.0073
-0.0906465
0.826878
-0.0536685
0.679977
-0.0209763
0.555599
0.377373
-0.0209995
0.656922
-0.0523124
0.926379
-0.0886746
1.09387
-0.128086
1.27922
-0.168819
1.49073
-0.208869
1.73065
-0.245659
2.0006
-0.275625
2.30143
-0.293674
2.63318
-0.292532
2.99529
-0.269167
2.83788
-0.23426
2.25842
-0.195235
1.8144
-0.156284
1.46777
-0.119756
1.19351
-0.0868672
0.974408
-0.0580989
0.79811
-0.0334701
0.655348
-0.0130768
0.535206
0.364297
-0.0184872
0.675409
-0.0440644
0.951956
-0.073118
1.12293
-0.105261
1.31137
-0.139635
1.5251
-0.174557
1.76557
-0.20744
2.03348
-0.234567
2.32856
-0.250708
2.64932
-0.24869
2.99327
-0.226031
2.81522
-0.193601
2.22599
-0.15868
1.77948
-0.125113
1.43421
-0.0947371
1.16314
-0.0682228
0.947893
-0.0455924
0.775479
-0.0265481
0.636304
-0.0108243
0.519482
0.353472
-0.0162691
0.691678
-0.0385438
0.974231
-0.0639668
1.14835
-0.0922982
1.3397
-0.122907
1.55571
-0.154495
1.79716
-0.184797
2.06379
-0.210268
2.35403
-0.225714
2.66477
-0.223971
2.99153
-0.202584
2.79383
-0.17226
2.19566
-0.140109
1.74733
-0.109712
1.40381
-0.0826083
1.13603
-0.0592303
0.924515
-0.039457
0.755706
-0.02293
0.619777
-0.00932914
0.505881
0.344143
-0.0146288
0.706307
-0.0349494
0.994552
-0.0584493
1.17185
-0.0847876
1.36604
-0.113461
1.58438
-0.143377
1.82707
-0.172527
2.09294
-0.197586
2.37909
-0.213445
2.68063
-0.212818
2.9909
-0.192754
2.77377
-0.163689
2.1666
-0.132826
1.71647
-0.103751
1.37473
-0.0779477
1.11023
-0.0557904
0.902358
-0.0371177
0.737033
-0.0215508
0.60421
-0.00874339
0.493074
0.3354
-0.0136884
0.719995
-0.0331305
1.01399
-0.0556146
1.19434
-0.0809219
1.39134
-0.108707
1.61217
-0.138038
1.8564
-0.167109
2.12201
-0.192794
2.40477
-0.210046
2.69788
-0.211291
2.99215
-0.192577
2.75505
-0.164026
2.13805
-0.133243
1.68569
-0.104093
1.34558
-0.0781903
1.08433
-0.0559491
0.880117
-0.0372148
0.718299
-0.0216027
0.588598
-0.00874847
0.48022
0.326651
-0.0136648
0.73366
-0.032624
1.03295
-0.0545281
1.21624
-0.0793713
1.41619
-0.1069
1.6397
-0.136332
1.88584
-0.166066
2.15174
-0.19318
2.43189
-0.212683
2.71738
-0.216587
2.99605
-0.199437
2.7379
-0.170898
2.10951
-0.139274
1.65406
-0.108975
1.31528
-0.0819118
1.05726
-0.0586233
0.856828
-0.0389914
0.698667
-0.022628
0.572235
-0.00914705
0.466739
0.317504
-0.0138793
0.74754
-0.0326012
1.05167
-0.0542982
1.23794
-0.0790651
1.44095
-0.106736
1.66737
-0.136701
1.9158
-0.167587
2.18263
-0.196722
2.46102
-0.219224
2.73988
-0.226653
3.00348
-0.211555
2.7228
-0.182808
2.08076
-0.149665
1.62092
-0.117372
1.28299
-0.0883107
1.0282
-0.0632227
0.83174
-0.0420468
0.677491
-0.0243886
0.554577
-0.0098345
0.452184
0.30767
-0.0139529
0.761493
-0.0326171
1.07034
-0.0543498
1.25967
-0.0792591
1.46586
-0.10729
1.6954
-0.138018
1.94653
-0.170336
2.21495
-0.201887
2.49257
-0.228014
2.76601
-0.239911
3.01538
-0.227665
2.71056
-0.198792
2.05189
-0.163636
1.58577
-0.12862
1.24797
-0.096834
0.996415
-0.0693117
0.804218
-0.0460671
0.654246
-0.0266886
0.535198
-0.0107224
0.436218
0.296947
-0.0138535
0.775346
-0.032548
1.08903
-0.0543902
1.28151
-0.0794985
1.49097
-0.107942
1.72384
-0.13949
1.97808
-0.173331
2.24879
-0.207506
2.52675
-0.237738
2.79624
-0.255078
3.03272
-0.246815
2.7023
-0.218244
2.02332
-0.180744
1.54827
-0.142312
1.20954
-0.107094
0.961197
-0.0765525
0.773676
-0.0507873
0.628481
-0.0293479
0.513759
-0.0117215
0.418592
0.285226
-0.0136751
0.789021
-0.0323745
1.10773
-0.054269
1.30341
-0.0795128
1.51621
-0.108293
1.75262
-0.140579
2.01036
-0.175877
2.28409
-0.2127
2.56357
-0.247336
2.83088
-0.271049
3.05643
-0.268209
2.69946
-0.240792
1.9959
-0.20078
1.50825
-0.158157
1.16692
-0.118692
0.921733
-0.0845247
0.739509
-0.0558339
0.59979
-0.03206
0.489985
-0.0126006
0.399132
0.272625
-0.0134741
0.802495
-0.032076
1.12634
-0.0538983
1.32523
-0.0791434
1.54146
-0.108101
1.78158
-0.14094
2.0432
-0.177504
2.32065
-0.216831
2.6029
-0.255964
2.87001
-0.286835
3.0873
-0.291106
2.70373
-0.266238
1.97103
-0.223804
1.46582
-0.176006
1.11912
-0.131155
0.876881
-0.0926101
0.700964
-0.060635
0.567815
-0.0343745
0.463724
-0.0130251
0.377783
0.2596
-0.01324
0.815735
-0.031618
1.14471
-0.0532299
1.34684
-0.0783065
1.56654
-0.107234
1.81051
-0.140382
2.07635
-0.177927
2.35819
-0.219472
2.64444
-0.262973
2.91351
-0.301539
3.12587
-0.314724
2.71691
-0.294458
1.95076
-0.250197
1.42156
-0.195955
1.06488
-0.143872
0.824798
-0.0997999
0.656892
-0.0643017
0.532317
-0.0358579
0.43528
-0.0130801
0.355005
0.24652
-0.0129354
0.828671
-0.0309839
1.16276
-0.0522519
1.36811
-0.0769757
1.59126
-0.105647
1.83918
-0.13883
2.10953
-0.177017
2.39638
-0.22038
2.6878
-0.267906
2.96104
-0.314371
3.17233
-0.33819
2.74073
-0.325283
1.93786
-0.280714
1.37699
-0.218581
1.00275
-0.156061
0.762279
-0.104131
0.604962
-0.0647441
0.492931
-0.0351605
0.405697
-0.012536
0.332381
0.233984
-0.0125953
0.841266
-0.0302203
1.18039
-0.0509943
1.38888
-0.0751688
1.61543
-0.10336
1.86737
-0.1363
2.14247
-0.174759
2.43484
-0.219464
2.73251
-0.270486
3.01206
-0.324677
3.22652
-0.36053
2.77658
-0.358325
1.93565
-0.316463
1.33513
-0.245428
0.931711
-0.167129
0.68398
-0.102082
0.539914
-0.0572094
0.448059
-0.0282139
0.376701
-0.00904488
0.313212
0.224939
-0.0122675
0.853533
-0.0293546
1.19747
-0.0494687
1.409
-0.0729093
1.63887
-0.100428
1.89489
-0.132864
2.17491
-0.171229
2.4732
-0.216761
2.77804
-0.270612
3.06591
-0.33198
3.28789
-0.380723
2.82533
-0.392809
1.94774
-0.358662
1.30098
-0.279572
0.852622
-0.177669
0.582077
-0.0881702
0.450415
-0.0324195
0.392308
-0.00611448
0.350396
0.0020645
0.305033
0.227004
-0.0119319
0.865465
-0.0284162
1.21396
-0.0477279
1.42831
-0.0703007
1.66145
-0.0969853
1.92157
-0.128677
2.2066
-0.16659
2.51112
-0.212417
2.82387
-0.26833
3.12183
-0.335983
3.35554
-0.397785
2.88713
-0.427484
1.97744
-0.408151
1.28165
-0.326047
0.770519
-0.191372
0.447402
-0.0547343
0.313777
0.0284803
0.309093
0.050306
0.328571
0.0300396
0.325299
0.257043
-0.0115177
0.876983
-0.0273413
1.22978
-0.0457364
1.4467
-0.06735
1.68306
-0.0930637
1.94729
-0.123803
2.23734
-0.160944
2.54826
-0.206564
2.86949
-0.263745
3.17901
-0.336559
3.42836
-0.41087
2.96144
-0.46066
2.02723
-0.46464
1.28563
-0.391495
0.697373
-0.21628
0.272187
0.0140605
0.0834365
0.162463
0.160691
0.178837
0.312196
0.114901
0.389235
0.371944
-0.0111062
0.888089
-0.0261689
1.24484
-0.0435629
1.4641
-0.0641862
1.70368
-0.0888534
1.97195
-0.118498
2.26698
-0.154619
2.58438
-0.199595
2.91446
-0.25728
3.23669
-0.333956
3.50503
-0.419566
3.04705
-0.490885
2.09855
-0.526746
1.32149
-0.482613
0.653241
-0.276711
0.0662844
0.0920343
-0.285309
0.350065
-0.09734
0.391333
0.270929
0.251033
0.529535
0.622978
-0.0108166
0.898906
-0.024914
1.25894
-0.0412951
1.48048
-0.0609056
1.7233
-0.0844511
1.9955
-0.112857
2.29539
-0.147712
2.61923
-0.191619
2.95837
-0.249045
3.29412
-0.328117
3.58411
-0.422927
3.14186
-0.514797
2.19041
-0.588433
1.39512
-0.608083
0.67289
-0.515688
-0.02611
-0.310505
-0.490492
-0.1718
-0.236044
-0.170057
0.269186
-0.141196
0.500673
0.481782
-0.0103443
0.90925
-0.0238143
1.27241
-0.0396768
1.49634
-0.0589792
1.7426
-0.0824549
2.01898
-0.111186
2.32412
-0.147077
2.65513
-0.193273
3.00457
-0.255378
3.35622
-0.344386
3.67312
-0.459129
3.2566
-0.589584
2.32087
-0.750249
1.55579
-0.986167
0.908807
-1.37247
0.360191
-1.89646
0.033498
-2.32377
0.191266
-2.61722
0.562636
-2.85126
0.734715
0.772615
-3.14209
-0.00968261
0.918933
-0.0224773
1.28521
-0.0376608
1.51152
-0.0564059
1.76134
-0.0793448
2.04191
-0.107674
2.35245
-0.143513
2.69096
-0.190353
3.05141
-0.254593
3.42046
-0.349466
3.76799
-0.477927
3.38507
-0.634445
2.47739
-0.837015
1.75836
-1.1158
1.18759
-1.50827
0.752661
-1.98911
0.514335
-2.36266
0.564814
-2.60133
0.801314
-2.80007
0.933447
0.908112
-2.93556
-0.00911835
0.928051
-0.0210506
1.29714
-0.0355519
1.52603
-0.0537562
1.77955
-0.0760844
2.06424
-0.103915
2.38028
-0.139545
2.72659
-0.186745
3.09861
-0.252559
3.48628
-0.351954
3.86738
-0.490431
3.52354
-0.663083
2.65004
-0.884648
1.97992
-1.17363
1.47657
-1.54622
1.12526
-1.96222
0.930336
-2.30345
0.906041
-2.47071
0.968576
-2.54898
1.01172
0.933553
-2.57442
-0.00876803
0.936819
-0.0194258
1.3078
-0.0333708
1.53997
-0.0510293
1.79721
-0.0726691
2.08588
-0.09993
2.40754
-0.135208
2.76187
-0.182472
3.14587
-0.249233
3.55304
-0.35158
3.96973
-0.496176
3.66814
-0.676782
2.83065
-0.902718
2.20586
-1.17837
1.75222
-1.49919
1.44608
-1.82927
1.26041
-2.09363
1.17041
-2.22959
1.10453
-2.24783
1.02996
0.910089
-2.22437
-0.00745328
0.944272
-0.0175791
1.31792
-0.0313057
1.5537
-0.0482867
1.81419
-0.069182
2.10678
-0.0958106
2.43417
-0.130582
2.79664
-0.177609
3.1929
-0.244685
3.62011
-0.348438
4.07348
-0.495475
3.81518
-0.677164
3.01233
-0.897497
2.42619
-1.15172
2.00645
-1.4243
1.71866
-1.68802
1.52413
-1.89612
1.37851
-2.02678
1.23519
-2.08256
1.08574
0.942493
-2.11496
-0.00613404
0.950406
-0.017026
1.32881
-0.031102
1.56777
-0.0479323
1.83102
-0.0687418
2.12759
-0.095329
2.46076
-0.130087
2.8314
-0.177202
3.24001
-0.244545
3.68746
-0.348719
4.17766
-0.495253
3.96171
-0.673077
3.19016
-0.882781
2.6359
-1.11659
2.24026
-1.35564
1.95771
-1.57584
1.74432
-1.75231
1.55498
-1.87595
1.35883
-1.95188
1.16168
0.995912
-2.0053
-0.00644329
0.95685
-0.0179033
1.34027
-0.0326319
1.5825
-0.0499708
1.84836
-0.0713962
2.14901
-0.0985731
2.48793
-0.133868
2.8667
-0.181437
3.28758
-0.249008
3.75503
-0.352602
4.28125
-0.495835
4.10494
-0.665017
3.35934
-0.856987
2.82787
-1.06108
2.44434
-1.26035
2.15699
-1.44274
1.92671
-1.60827
1.72052
-1.73752
1.48808
-1.83515
1.25931
1.06434
-1.90358
-0.00710105
0.963951
-0.0190603
1.35223
-0.0342269
1.59767
-0.052088
1.86622
-0.0741621
2.17109
-0.101909
2.51568
-0.137645
2.90243
-0.185398
3.33534
-0.252556
3.82219
-0.35406
4.38276
-0.491264
4.24215
-0.648951
3.51703
-0.824116
3.00303
-1.01184
2.63207
-1.20791
2.35306
-1.39124
2.11004
-1.54349
1.87277
-1.67291
1.61749
-1.78707
1.37347
1.13843
-1.86117
-0.00759097
0.971542
-0.0204176
1.36506
-0.0360212
1.61327
-0.0544313
1.88463
-0.0771035
2.19376
-0.105323
2.5439
-0.141318
2.93843
-0.1889
3.38292
-0.254939
3.88822
-0.352892
4.48071
-0.481597
4.37085
-0.624416
3.65985
-0.777446
3.15606
-0.932472
2.78709
-1.08425
2.50484
-1.2191
2.24489
-1.33768
1.99134
-1.50661
1.78642
-1.63677
1.50364
1.12445
-1.62279
-0.0082301
0.979772
-0.0218983
1.37873
-0.03796
1.62933
-0.0569224
1.90359
-0.0801029
2.21694
-0.108676
2.57247
-0.144742
2.97449
-0.191819
3.43
-0.256085
3.95249
-0.349187
4.57381
-0.467299
4.48896
-0.592416
3.78496
-0.720498
3.28415
-0.844089
2.91069
-0.969303
2.63005
-1.13343
2.40902
-1.3424
2.20031
-1.5741
2.01812
-1.81951
1.74905
1.42641
-2.12147
-0.00914647
0.988918
-0.0234447
1.39303
-0.0397685
1.64566
-0.059068
1.92289
-0.0823407
2.24021
-0.110586
2.60072
-0.145653
3.00956
-0.190551
3.47489
-0.250415
4.01235
-0.334386
4.65778
-0.436219
4.5908
-0.538071
3.88682
-0.638651
3.38473
-0.740444
3.01248
-0.85024
2.73985
-1.00945
2.56823
-1.21929
2.41014
-1.28061
2.07944
-0.967363
1.4358
0.459047
-0.0101327
0.999051
-0.0249826
1.40788
-0.0417675
1.66244
-0.061915
1.94304
-0.0861219
2.26442
-0.115419
2.63001
-0.15163
3.04577
-0.197603
3.52087
-0.257953
4.0727
-0.340297
4.74013
-0.435566
4.68607
-0.523823
3.97507
-0.601289
3.46219
-0.667257
3.07845
-0.710519
2.78311
-0.69711
2.55482
-0.595169
2.3082
-0.371384
1.85566
-0.129512
1.19393
0.329535
-0.0110217
1.01007
-0.0261975
1.42305
-0.0435109
1.67976
-0.0644241
1.96395
-0.0894032
2.2894
-0.119554
2.66016
-0.156617
3.08283
-0.203193
3.56744
-0.263235
4.13275
-0.342202
4.81909
-0.428131
4.77199
-0.497501
4.04444
-0.541029
3.50572
-0.545723
3.08314
-0.48828
2.72567
-0.33222
2.39876
-0.0991515
2.07513
0.0746667
1.68184
0.108888
1.15971
0.438423
-0.0114803
1.02155
-0.026869
1.43844
-0.0448083
1.69769
-0.0663665
1.98551
-0.0919645
2.315
-0.122756
2.69096
-0.160339
3.12042
-0.206977
3.61408
-0.265696
4.19147
-0.339756
4.89315
-0.413649
4.84589
-0.461753
4.09255
-0.473457
3.51742
-0.434864
3.04455
-0.338548
2.62935
-0.189185
2.2494
-0.0180182
1.90397
0.104671
1.55915
0.130164
1.13422
0.568587
-0.0116773
1.03323
-0.0271261
1.45389
-0.0455922
1.71616
-0.0675963
2.00751
-0.0936265
2.34103
-0.124782
2.72211
-0.162474
3.15811
-0.208574
3.66018
-0.265112
4.248
-0.332311
4.96035
-0.394393
4.90797
-0.423213
4.12137
-0.412453
3.50666
-0.359191
2.99129
-0.269513
2.53967
-0.156018
2.1359
-0.0279435
1.77589
0.0837062
1.4475
0.103683
1.11424
0.67227
-0.0113642
1.04459
-0.0269955
1.46952
-0.0458201
1.73499
-0.068028
2.02972
-0.0942209
2.36722
-0.125376
2.75327
-0.162687
3.19542
-0.2076
3.70509
-0.261359
4.30176
-0.320921
5.01991
-0.368182
4.95523
-0.381239
4.13442
-0.35912
3.48454
-0.30342
2.93559
-0.224569
2.46082
-0.134627
2.04596
-0.0447758
1.68604
0.0250068
1.37772
0.0381771
1.10107
0.710447
-0.0107619
1.05536
-0.0264868
1.48525
-0.0453917
1.75389
-0.0675309
2.05186
-0.0935358
2.39322
-0.124246
2.78398
-0.160614
3.23179
-0.203575
3.74805
-0.253324
4.35151
-0.305622
5.07221
-0.338834
4.98844
-0.340986
4.13657
-0.311368
3.45493
-0.257417
2.88164
-0.189746
2.39315
-0.120536
1.97675
-0.0598458
1.62535
-0.0147113
1.33258
0.00610623
1.08025
0.716553
-0.0100419
1.0654
-0.0255868
1.50079
-0.0442217
1.77253
-0.0659336
2.07357
-0.0913205
2.41861
-0.121073
2.81373
-0.155884
3.2666
-0.196151
3.78832
-0.240896
4.39626
-0.285372
5.11669
-0.307927
5.011
-0.304599
4.13325
-0.269808
3.42014
-0.219537
2.83136
-0.163053
2.33667
-0.109384
1.92308
-0.0639933
1.57996
-0.028701
1.29729
-0.00511888
1.05667
0.711434
-0.00925186
1.07465
-0.0242725
1.51581
-0.0422146
1.79047
-0.0630455
2.0944
-0.0873103
2.44288
-0.115538
2.84196
-0.148166
3.29923
-0.185137
3.82529
-0.224659
4.43578
-0.261221
5.15325
-0.275967
5.02574
-0.266504
4.12378
-0.232137
3.38577
-0.187096
2.78632
-0.140153
2.28972
-0.0970863
1.88002
-0.0606775
1.54355
-0.0313985
1.26801
-0.0092991
1.03457
0.702135
-0.00842085
1.08307
-0.0225332
1.52992
-0.0392418
1.80718
-0.058664
2.11382
-0.0812299
2.46544
-0.107316
2.86804
-0.137145
3.32906
-0.17033
3.85848
-0.20474
4.47019
-0.234437
5.18295
-0.243328
5.03463
-0.227088
4.10754
-0.196136
3.35482
-0.157523
2.74771
-0.118764
2.25097
-0.0837733
1.84502
-0.054106
1.51389
-0.0298145
1.24372
-0.0106829
1.01544
0.691452
-0.0077
1.09077
-0.0201902
1.54241
-0.0351124
1.8221
-0.0525415
2.13125
-0.0727652
2.48566
-0.0960467
2.89133
-0.122448
3.35546
-0.151378
3.88741
-0.180574
4.49939
-0.204101
5.20647
-0.20804
5.03857
-0.189859
4.08936
-0.162335
3.32729
-0.130026
2.7154
-0.0983683
2.21931
-0.0700577
1.81671
-0.0459779
1.48981
-0.0260322
1.22378
-0.0100443
0.999452
0.681408
-0.00600076
1.09677
-0.0166974
1.55311
-0.0294598
1.83486
-0.0443169
2.14611
-0.0615195
2.50287
-0.0812833
2.91109
-0.1036
3.37777
-0.127802
3.91161
-0.151656
4.52324
-0.169632
5.22445
-0.170391
5.03933
-0.153815
4.07279
-0.130281
3.30376
-0.103987
2.68911
-0.0787352
2.19406
-0.0563143
1.79429
-0.0372277
1.47072
-0.0213482
1.2079
-0.00847639
0.98658
0.672931
-0.00394157
1.10071
-0.0121593
1.56133
-0.0220542
1.84476
-0.0335974
2.15765
-0.0469934
2.51626
-0.0624457
2.92654
-0.0799734
3.3953
-0.0989963
3.93063
-0.117556
4.5418
-0.130941
5.23783
-0.130453
5.03885
-0.117004
4.05934
-0.0984833
3.28524
-0.0783702
2.66899
-0.0593065
2.17499
-0.0424459
1.77743
-0.0280743
1.45635
-0.0161182
1.19594
-0.00648469
0.976947
0.666447
-0.00139975
1.10211
-0.00643475
1.56636
-0.0126008
1.85092
-0.0198982
2.16495
-0.0285173
2.52488
-0.0387237
2.93675
-0.0506731
3.40725
-0.0640502
3.94401
-0.0774285
4.55518
-0.0872673
5.24767
-0.0872313
5.03881
-0.0781794
4.05029
-0.0656337
3.27269
-0.0521482
2.65551
-0.0394296
2.16227
-0.0281842
1.76619
-0.018563
1.44673
-0.0104906
1.18787
-0.00410814
0.970564
0.662339
0.00173769
1.10038
0.000947699
1.56715
-0.000458021
1.85233
-0.00236155
2.16685
-0.00502801
2.52755
-0.00888119
2.9406
-0.0143357
3.41271
-0.0215159
3.95119
-0.0297604
4.56342
-0.0369894
5.2549
-0.0389305
5.04075
-0.0355889
4.04694
-0.0301018
3.26721
-0.0239863
2.64939
-0.0181668
2.15645
-0.0130199
1.76104
-0.00863969
1.44235
-0.00495529
1.18418
-0.00194666
0.967555
0.660392
0.00560797
1.09477
0.0104588
1.5623
0.0151367
1.84765
0.0202029
2.16179
0.0250589
2.52269
0.0289678
2.93669
0.0311359
3.41054
0.0308665
3.95146
0.0278662
4.56642
0.0225135
5.26025
0.0172283
5.04604
0.0135349
4.05064
0.0106446
3.2701
0.0082532
2.65178
0.00618334
2.15852
0.00436546
1.76286
0.00275476
1.44396
0.00130495
1.18563
0.000110465
0.96875
0.660502
0.0113354
1.08343
0.0236306
1.55001
0.0365032
1.83478
0.0505049
2.14779
0.0646703
2.50853
0.0779206
2.92344
0.0890032
3.39945
0.0965489
3.94391
0.099162
4.56381
0.0953157
5.2641
0.0856261
5.05573
0.0735799
4.06268
0.0607394
3.28294
0.0482184
2.66431
0.0367158
2.17003
0.0265936
1.77298
0.0179489
1.4526
0.0106879
1.19289
0.00464699
0.974791
0.665149
0.0177366
1.0657
0.0406976
1.52705
0.0654928
1.80998
0.0916792
2.1216
0.117813
2.48239
0.1425
2.89876
0.164082
3.37787
0.180594
3.9274
0.189556
4.55485
0.187418
5.26624
0.172876
5.07027
0.15143
4.08413
0.126898
3.30747
0.101918
2.68928
0.078249
2.1937
0.0569262
1.7943
0.0384143
1.47111
0.0227538
1.20856
0.00977398
0.987771
0.674923
0.0340015
1.03169
0.0744456
1.4866
0.113609
1.77082
0.153194
2.08202
0.192527
2.44306
0.22999
2.86129
0.263479
3.34438
0.29037
3.90051
0.307067
4.53815
0.307972
5.26533
0.289543
5.0887
0.258875
4.1148
0.221773
3.34457
0.182295
2.72876
0.143298
2.23269
0.106684
1.83092
0.0735792
1.50422
0.0444645
1.23767
0.0194199
1.01282
0.694343
0.0602037
0.97149
0.124595
1.42221
0.18526
1.71015
0.243938
2.02334
0.299884
2.38711
0.351972
2.8092
0.398523
3.29783
0.43687
3.86216
0.462753
4.51227
0.469056
5.25903
0.449568
5.10819
0.411967
4.1524
0.363486
3.39305
0.30897
2.78328
0.251871
2.28979
0.194725
1.88806
0.139392
1.55955
0.0871421
1.28992
0.0389756
1.06098
0.733319
0.0500962
0.921394
0.11459
1.35772
0.182394
1.64235
0.247708
1.95802
0.307128
2.32769
0.357572
2.75876
0.396226
3.25918
0.420282
3.83811
0.426554
4.506
0.410867
5.27472
0.375255
5.1438
0.331598
4.19605
0.285191
3.43946
0.238601
2.82987
0.193111
2.33528
0.149315
1.93186
0.107447
1.60142
0.0676198
1.32975
0.0301547
1.09845
0.763474
0.0214342
0.89996
0.0590534
1.3201
0.105101
1.5963
0.154631
1.90849
0.20503
2.27729
0.252775
2.71102
0.293766
3.21819
0.323679
3.80819
0.337952
4.49172
0.331314
5.28135
0.303844
5.17127
0.266599
4.2333
0.225616
3.48044
0.184077
2.87141
0.143835
2.37552
0.106116
1.96958
0.0718142
1.63572
0.0416113
1.35995
0.0161338
1.12392
0.779607
0.0155233
0.884436
0.0423011
1.29332
0.0742943
1.56431
0.10951
1.87328
0.147134
2.23967
0.185275
2.67288
0.220803
3.18266
0.249494
3.7795
0.266222
4.475
0.264886
5.28269
0.243965
5.19219
0.21319
4.26407
0.17874
3.51489
0.144085
2.90606
0.111246
2.40836
0.0813564
1.99947
0.0549041
1.66217
0.0319148
1.38294
0.0123661
1.14347
0.791973
0.011244
0.873192
0.0304941
1.27407
0.0538655
1.54094
0.0802143
1.84693
0.108974
2.21091
0.13896
2.64289
0.168053
3.15357
0.192951
3.75461
0.20906
4.45889
0.210447
5.2813
0.19466
5.20798
0.16982
4.28891
0.141712
3.543
0.113592
2.93418
0.0872311
2.43472
0.0634779
2.02322
0.0426102
1.68304
0.0246073
1.40094
0.00946084
1.15862
0.801434
0.0084601
0.864732
0.0225009
1.26003
0.0396928
1.52375
0.0595148
1.82711
0.0816338
2.18879
0.105221
2.6193
0.128715
3.13007
0.149548
3.73377
0.163898
4.44454
0.166515
5.27869
0.154644
5.21985
0.134854
4.3087
0.112225
3.56563
0.0896084
2.9568