/*--------------------------------*- C++ -*----------------------------------*\
  =========                 |
  \\      /  F ield         | OpenFOAM: The Open Source CFD Toolbox
   \\    /   O peration     | Website:  https://openfoam.org
    \\  /    A nd           | Version:  6
     \\/     M anipulation  |
\*---------------------------------------------------------------------------*/
FoamFile
{
    version     2.0;
    format      ascii;
    class       surfaceScalarField;
    location    "113";
    object      phi;
}
// * * * * * * * * * * * * * * * * * * * * * * * * * * * * * * * * * * * * * //

dimensions      [0 3 -1 0 0 0 0];

internalField   nonuniform List<scalar> 
17370
(
-0.0899999
0.0898489
0.289162
-0.0714623
0.0537524
0.364485
-0.0381194
0.0276904
0.426597
-0.019639
0.0146066
0.504284
-0.0107656
0.00827627
0.601892
-0.00627754
0.00490144
0.720434
-0.00373731
0.00289608
0.863748
-0.00215359
0.00159356
1.03601
-0.00107606
0.000662739
1.24292
-0.000254187
-0.000145595
1.49159
0.00052642
-0.000937079
1.4916
0.00133169
-0.00181206
1.24317
0.00233258
-0.00303663
1.03634
0.0038524
-0.00499903
0.864053
0.00636648
-0.00836032
0.721051
0.0108462
-0.0146827
0.603051
0.0197097
-0.027754
0.507484
0.0381754
-0.0537997
0.431793
0.0715014
-0.0898754
0.36515
0.0900164
0.198994
-0.128139
0.0882314
0.0399076
-0.364602
0.353384
-0.0746666
0.0858839
-0.446478
0.454324
-0.0843789
0.0765328
-0.521193
0.529905
-0.0684346
0.0597221
-0.612791
0.621572
-0.0515324
0.0427523
-0.726897
0.734168
-0.0352907
0.0280199
-0.867477
0.872597
-0.0224168
0.0172974
-1.03848
1.04193
-0.0134836
0.0100292
-1.2446
1.24704
-0.00741464
0.00497782
-1.49262
1.49461
-0.00302511
0.00103733
-1.49251
1.49423
0.000634552
-0.00235927
-1.24397
1.24585
0.00427028
-0.00615249
-1.03751
1.04002
0.00849359
-0.0110072
-0.866096
0.869826
0.0143546
-0.0180842
-0.724388
0.72993
0.0231255
-0.028668
-0.608696
0.616108
0.0358806
-0.0432926
-0.514894
0.523037
0.0520211
-0.0601636
-0.439854
0.447911
0.0688244
-0.0768814
-0.375293
0.376735
0.0846745
-0.086117
-0.257327
0.222471
0.0748243
-0.039968
-0.068528
0.0587052
0.00982282
-0.0517919
0.0583686
-0.374137
0.36756
-0.0574476
0.0536916
-0.453601
0.457357
-0.0485988
0.0446435
-0.527956
0.531911
-0.0408006
0.0371586
-0.621574
0.625216
-0.0330525
0.0289713
-0.735359
0.739441
-0.0243935
0.0202263
-0.874351
0.878518
-0.0158716
0.0121698
-1.0435
1.0472
-0.00842423
0.00524498
-1.24857
1.25175
-0.00191098
-0.00116827
-1.49666
1.49974
0.00422111
-0.00749001
-1.4972
1.50047
0.0105641
-0.0141502
-1.25006
1.25365
0.0176887
-0.0218687
-1.04591
1.05009
0.025892
-0.0303291
-0.877748
0.882185
0.0342958
-0.0382883
-0.739889
0.743881
0.0418338
-0.0455775
-0.626763
0.630506
0.0494474
-0.0544589
-0.534801
0.539813
0.0581231
-0.0589291
-0.457465
0.458271
0.0522149
-0.0320016
-0.335736
0.315522
0.00989142
-0.0683337
0.0584423
-0.0529588
0.0489679
0.00399091
-0.0331299
0.0436609
-0.358138
0.347607
-0.0473481
0.0467131
-0.459304
0.459939
-0.0436507
0.0402926
-0.535822
0.53918
-0.0365143
0.0332045
-0.628551
0.631861
-0.029759
0.0267184
-0.742673
0.745713
-0.0234482
0.0203301
-0.882044
0.885162
-0.016787
0.0133965
-1.0508
1.05419
-0.00959198
0.00604425
-1.25519
1.25874
-0.00206599
-0.00173912
-1.50325
1.50705
0.00551154
-0.00938785
-1.50412
1.508
0.0127866
-0.0163729
-1.2574
1.26099
0.0195392
-0.0228382
-1.05389
1.05719
0.0257502
-0.0288144
-0.88566
0.888724
0.0316849
-0.0349608
-0.747131
0.750407
0.0381277
-0.0417614
-0.634282
0.637915
0.0449956
-0.0479157
-0.544113
0.547033
0.0483991
-0.0444978
-0.456545
0.452644
0.0337094
-0.0162391
-0.296139
0.278669
0.00407688
-0.0526174
0.0485405
-0.0458961
0.0434067
0.00248939
-0.0227627
0.033119
-0.336937
0.326581
-0.038921
0.0399252
-0.459636
0.458631
-0.0387242
0.0364299
-0.54191
0.544204
-0.0337543
0.0311498
-0.634925
0.637529
-0.0280755
0.0251638
-0.748771
0.751682
-0.0218832
0.018874
-0.888126
0.891135
-0.0155517
0.0124373
-1.05733
1.06044
-0.00889618
0.00547515
-1.2622
1.26562
-0.00150048
-0.00239317
-1.51094
1.51483
0.0062426
-0.0100805
-1.51188
1.51572
0.0133043
-0.0165605
-1.26443
1.26769
0.0193826
-0.0223849
-1.06028
1.06328
0.0251198
-0.0281224
-0.891756
0.894759
0.0308017
-0.0336425
-0.753598
0.756439
0.03605
-0.0385294
-0.640968
0.643447
0.0406561
-0.0416341
-0.548822
0.5498
0.0403944
-0.0342465
-0.447342
0.441194
0.0235096
-0.0102614
-0.263422
0.250174
0.00259594
-0.0453701
0.0427742
-0.0413393
0.0395799
0.00175937
-0.0166894
0.0259087
-0.316757
0.307538
-0.0324841
0.0346035
-0.457052
0.454932
-0.0341667
0.0324846
-0.546196
0.547879
-0.0302927
0.028186
-0.639851
0.641958
-0.0257396
0.0233253
-0.754342
0.756757
-0.0204456
0.0176356
-0.894045
0.896855
-0.0143763
0.0112868
-1.0635
1.06659
-0.00777606
0.00443364
-1.26896
1.2723
-0.00058543
-0.00315991
-1.51862
1.52237
0.00684852
-0.0105214
-1.51944
1.52311
0.0136119
-0.0167606
-1.27094
1.27409
0.0194791
-0.0223299
-1.06629
1.06915
0.0247863
-0.0273054
-0.897545
0.900064
0.0294176
-0.0315616
-0.75887
0.761014
0.0334154
-0.0353535
-0.645584
0.647522
0.036791
-0.0369242
-0.550297
0.55043
0.0344422
-0.027358
-0.434493
0.427409
0.017624
-0.00743975
-0.238605
0.228421
0.00188976
-0.0405858
0.038696
-0.0380673
0.0367477
0.00131958
-0.012713
0.0206155
-0.298984
0.291082
-0.0273215
0.0302126
-0.452402
0.449511
-0.030393
0.0292544
-0.54933
0.550469
-0.0272466
0.025314
-0.644015
0.645947
-0.0230931
0.0209328
-0.759015
0.761176
-0.0183889
0.0158775
-0.899448
0.901959
-0.0129038
0.00999635
-1.06955
1.07246
-0.00660539
0.00334039
-1.27557
1.27884
0.000428491
-0.00407368
-1.52602
1.52967
0.00764759
-0.0111955
-1.52669
1.53024
0.0141445
-0.0170837
-1.27723
1.28016
0.0195291
-0.0219929
-1.07186
1.07432
0.0240607
-0.0261497
-0.902318
0.904407
0.0279275
-0.029764
-0.762974
0.76481
0.0313763
-0.0330747
-0.649321
0.651019
0.0338556
-0.0332487
-0.55019
0.549583
0.0298369
-0.0224315
-0.420102
0.412697
0.0138658
-0.00578435
-0.219387
0.211305
0.0014784
-0.0370359
0.0355575
-0.0355985
0.0345861
0.0010124
-0.0098979
0.0165564
-0.28383
0.277172
-0.0229786
0.0263062
-0.446388
0.443061
-0.0270517
0.0263266
-0.551404
0.552129
-0.0245458
0.0227403
-0.64787
0.649675
-0.0206419
0.0185944
-0.763274
0.765321
-0.0161842
0.0138195
-0.904322
0.906687
-0.0110389
0.00831634
-1.0752
1.07792
-0.00511963
0.00200239
-1.28199
1.28511
0.00163796
-0.00517332
-1.53323
1.53676
0.00861995
-0.0119853
-1.53367
1.53703
0.0147112
-0.0173513
-1.28303
1.28567
0.019506
-0.0216587
-1.07667
1.07882
0.0234748
-0.0253206
-0.906343
0.908189
0.0268928
-0.0285136
-0.766529
0.768149
0.0299215
-0.0312708
-0.652573
0.653922
0.0315519
-0.0301997
-0.548608
0.547256
0.026152
-0.0188064
-0.40529
0.397945
0.0113126
-0.00469228
-0.20402
0.1974
0.00120571
-0.0342292
0.0330235
-0.0337015
0.0329184
0.000783141
-0.00780293
0.0133739
-0.27109
0.265519
-0.0192913
0.022798
-0.439641
0.436135
-0.0240052
0.023519
-0.55278
0.553266
-0.021997
0.0202944
-0.651492
0.653194
-0.0182824
0.0163116
-0.767322
0.769293
-0.0139828
0.0116959
-0.908939
0.911225
-0.00900827
0.00638691
-1.08052
1.08314
-0.00332221
0.000340519
-1.2881
1.29108
0.00313592
-0.00650329
-1.54017
1.54354
0.00976162
-0.0129006
-1.54024
1.54338
0.0154033
-0.0177887
-1.28827
1.29066
0.0197173
-0.0216375
-1.08092
1.08284
0.0232508
-0.0248845
-0.909902
0.911536
0.0262708
-0.0276947
-0.769659
0.771083
0.0288991
-0.029856
-0.655074
0.656031
0.029756
-0.0277197
-0.545548
0.543512
0.0232489
-0.0161444
-0.390708
0.383603
0.0095339
-0.00394263
-0.19134
0.185749
0.00101821
-0.0319214
0.0309032
-0.0322358
0.0316315
0.000604241
-0.00617767
0.010816
-0.260448
0.255809
-0.0161214
0.0196079
-0.432648
0.429161
-0.02112
0.0208489
-0.553698
0.553969
-0.019548
0.0178982
-0.654933
0.656583
-0.0159323
0.0140005
-0.77123
0.773162
-0.0117184
0.00947866
-0.913403
0.915643
-0.00684715
0.00428505
-1.08565
1.08821
-0.00129947
-0.00158675
-1.29396
1.29685
0.00492228
-0.00812137
-1.54677
1.54997
0.0111873
-0.0141112
-1.54635
1.54928
0.0164139
-0.0185744
-1.29304
1.2952
0.0202961
-0.0219953
-1.08472
1.08642
0.0234131
-0.0248435
-0.913034
0.914465
0.0260573
-0.0273006
-0.772402
0.773645
0.0283603
-0.0288909
-0.656782
0.657313
0.0283895
-0.0257669
-0.541172
0.53855
0.0210207
-0.0142145
-0.37665
0.369844
0.0082914
-0.00342625
-0.180555
0.17569
0.000889828
-0.0299567
0.0290669
-0.0311106
0.0306525
0.000458093
-0.00486034
0.00869011
-0.251608
0.247778
-0.0133372
0.0166527
-0.42578
0.422465
-0.0183271
0.0182331
-0.554215
0.554309
-0.0171127
0.0154894
-0.658301
0.659924
-0.0135337
0.0116041
-0.775072
0.777001
-0.00932605
0.00709687
-0.917778
0.920007
-0.00448776
0.00195773
-1.09066
1.09319
0.000976909
-0.00379589
-1.29963
1.30245
0.0070259
-0.0100899
-1.55304
1.5561
0.0129919
-0.0157218
-1.55204
1.55477
0.0178328
-0.019769
-1.29738
1.29932
0.0212836
-0.0227649
-1.08809
1.08957
0.0239966
-0.0252397
-0.915761
0.917004
0.0262988
-0.0273785
-0.774786
0.775866
0.0282242
-0.0283824
-0.657642
0.6578
0.0274465
-0.0243104
-0.535663
0.532527
0.0193767
-0.0128514
-0.36319
0.356664
0.00743952
-0.00307897
-0.171105
0.166745
0.000805149
-0.0282261
0.027421
-0.0302663
0.0299331
0.000333194
-0.00374724
0.0068619
-0.244336
0.241222
-0.0108364
0.0138686
-0.419321
0.416289
-0.0155754
0.0156187
-0.554413
0.554369
-0.0145667
0.0130022
-0.66161
0.663175
-0.0110259
0.00906354
-0.778918
0.78088
-0.00674817
0.00449146
-0.922137
0.924394
-0.00186384
-0.000669084
-1.09562
1.09816
0.00358747
-0.00636912
-1.30518
1.30796
0.00952635
-0.0124849
-1.55905
1.56201
0.0152474
-0.0177991
-1.55733
1.55988
0.0197243
-0.0214382
-1.30129
1.30301
0.0227483
-0.024017
-1.09104
1.09231
0.0250683
-0.0261306
-0.918111
0.919173
0.0270423
-0.0279615
-0.77683
0.777749
0.0285435
-0.0283928
-0.657804
0.657654
0.0269706
-0.0233497
-0.529151
0.52553
0.0182605
-0.0119506
-0.350265
0.343955
0.00689236
-0.00286303
-0.162574
0.158544
0.000754812
-0.026647
0.0258922
-0.0296651
0.0294447
0.000220423
-0.0027616
0.00522576
-0.238462
0.235998
-0.00852511
0.0111884
-0.413479
0.410816
-0.0128109
0.0129152
-0.554389
0.554284
-0.0118905
0.0103516
-0.664829
0.666368
-0.00832822
0.00630089
-0.782833
0.784861
-0.00390938
0.00158746
-0.926553
0.928875
0.00110209
-0.00367819
-1.1006
1.10317
0.00662357
-0.00940456
-1.31066
1.31345
0.0125241
-0.0154043
-1.56485
1.56773
0.018048
-0.0204373
-1.56226
1.56465
0.0221857
-0.0236808
-1.30479
1.30628
0.0247863
-0.0258401
-1.09359
1.09464
0.0267054
-0.0275756
-0.920093
0.920963
0.0283241
-0.0290735
-0.778491
0.77924
0.0293652
-0.0288594
-0.657373
0.656868
0.0269646
-0.0228778
-0.521697
0.51761
0.0176252
-0.0114365
-0.33773
0.331541
0.00659032
-0.0027514
-0.154632
0.150793
0.000731635
-0.0251545
0.0244229
-0.0292865
0.0291745
0.000111991
-0.00183867
0.00368734
-0.233871
0.232022
-0.00630323
0.00852485
-0.40842
0.406198
-0.0099531
0.0100376
-0.554305
0.554221
-0.009003
0.00744735
-0.668035
0.669591
-0.00534469
0.00321839
-0.786879
0.789006
-0.000710438
-0.00171501
-0.931101
0.933526
0.00451
-0.00716975
-1.10567
1.10833
0.010186
-0.0130042
-1.31616
1.31897
0.0161225
-0.0189515
-1.5705
1.57333
0.0214958
-0.0237359
-1.56686
1.5691
0.0253128
-0.026592
-1.30787
1.30915
0.0274939
-0.0283289
-1.09571
1.09654
0.0289998
-0.02967
-0.921685
0.922356
0.030261
-0.0308579
-0.779804
0.780401
0.0307772
-0.0298474
-0.656189
0.655259
0.0274502
-0.0228834
-0.513317
0.508751
0.0174267
-0.0112509
-0.325387
0.319211
0.00649022
-0.00272488
-0.147011
0.143246
0.000730609
-0.0236972
0.0229665
-0.0291251
0.0291219
3.2415e-06
-0.000929143
0.00217265
-0.230503
0.22926
-0.00408691
0.00580066
-0.404284
0.40257
-0.00693037
0.0069118
-0.554333
0.554351
-0.00581709
0.00420123
-0.671316
0.672932
-0.00197561
-0.000287455
-0.791123
0.793386
0.00295648
-0.00552807
-0.935856
0.938428
0.00847652
-0.0112641
-1.11091
1.1137
0.0143987
-0.0172948
-1.32173
1.32463
0.0204521
-0.0232604
-1.57605
1.57886
0.0257266
-0.02783
-1.57114
1.57325
0.0292411
-0.0303083
-1.31055
1.31162
0.0310067
-0.0316199
-1.09739
1.09801
0.0320899
-0.0325452
-0.922872
0.923327
0.0329447
-0.033259
-0.780722
0.781036
0.0328702
-0.0314329
-0.65415
0.652713
0.02849
-0.0233941
-0.503964
0.498869
0.0176582
-0.0113692
-0.313011
0.306722
0.00657154
-0.00277394
-0.139484
0.135687
0.000749189
-0.022232
0.0214828
-0.0291848
0.0292973
-0.000112538
1.49628e-05
0.000612971
-0.228346
0.227718
-0.00179213
0.00293067
-0.401203
0.400064
-0.00366024
0.00345289
-0.554651
0.554858
-0.00223691
0.000500073
-0.674767
0.676503
0.00189075
-0.00433626
-0.795638
0.798083
0.00721827
-0.00998452
-0.940906
0.943672
0.0131404
-0.0161046
-1.11642
1.11939
0.0194091
-0.0224268
-1.32747
1.33049
0.0256648
-0.0284835
-1.58156
1.58438
0.0308935
-0.0328726
-1.57513
1.57711
0.0341248
-0.0349797
-1.31281
1.31366
0.0354668
-0.0358464
-1.09863
1.09901
0.0361066
-0.0363393
-0.923622
0.923854
0.0365276
-0.03649
-0.781055
0.781018
0.0357399
-0.0337079
-0.651073
0.649041
0.0301447
-0.0244342
-0.493524
0.487813
0.0183153
-0.011773
-0.300343
0.293801
0.00681816
-0.0028903
-0.131844
0.127917
0.000784811
-0.0207212
0.0199364
-0.0294807
0.0297324
-0.000251681
0.00100397
-0.00105487
-0.227435
0.227485
0.000669726
-0.000179692
-0.399316
0.398826
-4.77416e-05
-0.000444365
-0.55545
0.555942
0.00185143
-0.00377239
-0.678511
0.680432
0.00639102
-0.00907298
-0.800514
0.803196
0.0122281
-0.0152452
-0.946349
0.949366
0.0186707
-0.0218676
-1.1223
1.12549
0.0254001
-0.0285867
-1.33347
1.33666
0.0319483
-0.0348045
-1.58709
1.58995
0.0371707
-0.0390353
-1.57885
1.58071
0.0401388
-0.0407799
-1.31462
1.31526
0.0410416
-0.0411675
-1.09938
1.09951
0.0411974
-0.0411917
-0.923907
0.923901
0.0411907
-0.0406886
-0.78068
0.780178
0.0394929
-0.036762
-0.646794
0.644063
0.0324754
-0.0260282
-0.481806
0.475359
0.0193949
-0.0124465
-0.287095
0.280146
0.00721499
-0.0030655
-0.123898
0.119748
0.000834666
-0.0191317
0.0182971
-0.0300535
0.0304494
-0.000395864
0.00212073
-0.00282255
-0.227845
0.228547
0.00332045
-0.00360341
-0.398772
0.399055
0.00403422
-0.00491281
-0.556963
0.557841
0.00658236
-0.00876045
-0.68268
0.684858
0.0116834
-0.01467
-0.805858
0.808845
0.0181707
-0.0215046
-0.9523
0.955634
0.0252713
-0.0287636
-1.12865
1.13214
0.0325873
-0.0359935
-1.33982
1.34322
0.0395228
-0.0424429
-1.5927
1.59562
0.0447734
-0.0465165
-1.58228
1.58402
0.0474585
-0.0478919
-1.31599
1.31642
0.0479203
-0.0477763
-1.09961
1.09946
0.0475623
-0.0473024
-0.923676
0.923416
0.0470469
-0.04603
-0.779414
0.778397
0.0442835
-0.0407103
-0.641104
0.637531
0.035554
-0.0282023
-0.468547
0.461195
0.0208939
-0.0133728
-0.272955
0.265434
0.00774562
-0.00328998
-0.115465
0.111009
0.000895478
-0.0174368
0.0165413
-0.0309352
0.0315118
-0.000576622
0.00340012
-0.00490543
-0.229678
0.231183
0.00633208
-0.00745222
-0.39977
0.40089
0.00865857
-0.0100633
-0.559407
0.560812
0.0121387
-0.0146592
-0.687415
0.689936
0.0179772
-0.0213474
-0.811806
0.815176
0.025279
-0.0290071
-0.958897
0.962625
0.0331973
-0.0370546
-1.13561
1.13947
0.0412371
-0.0449127
-1.34661
1.35029
0.0486492
-0.051653
-1.59844
1.60144
0.0539531
-0.0555705
-1.58542
1.58704
0.0563516
-0.0565546
-1.31688
1.31708
0.0563236
-0.0558913
-1.09927
1.09884
0.0554245
-0.0548832
-0.922902
0.922361
0.0542254
-0.0527117
-0.777211
0.775698
0.0502453
-0.0456491
-0.633699
0.629103
0.0394338
-0.0309637
-0.45339
0.44492
0.0227917
-0.0145211
-0.257586
0.249315
0.00838368
-0.00354907
-0.106383
0.101548
0.000962311
-0.0156165
0.0146542
-0.032191
0.033002
-0.000810975
0.00498174
-0.00740322
-0.233155
0.235576
0.009912
-0.0119742
-0.402521
0.404583
0.0140809
-0.0161368
-0.563038
0.565094
0.0187548
-0.0217192
-0.692899
0.695864
0.0255484
-0.0293954
-0.818522
0.822369
0.03386
-0.0380731
-0.966299
0.970512
0.0427792
-0.0470762
-1.14331
1.14761
0.0516843
-0.0556735
-1.35395
1.35794
0.0596433
-0.0627328
-1.60433
1.60742
0.0649862
-0.0664543
-1.58825
1.58972
0.067058
-0.0669854
-1.31721
1.31714
0.0664822
-0.0657357
-1.09834
1.09759
0.065003
-0.0642001
-0.92153
0.920727
0.0630192
-0.0608975
-0.774071
0.771949
0.0575427
-0.0516693
-0.624185
0.618312
0.0441408
-0.0342831
-0.435883
0.426025
0.0250326
-0.015833
-0.240629
0.23143
0.00908472
-0.00381967
-0.0965135
0.0912484
0.0010278
-0.0136621
0.0126343
-0.0339181
0.0350364
-0.00111833
0.00697156
-0.0105019
-0.238504
0.242035
0.0142881
-0.0174369
-0.407325
0.410473
0.020576
-0.0234119
-0.568148
0.570984
0.0267311
-0.0302683
-0.699358
0.702896
0.0347599
-0.0392049
-0.826202
0.830647
0.0443253
-0.0491254
-0.97469
0.97949
0.0544458
-0.0592544
-1.15191
1.15672
0.0643423
-0.0686683
-1.36191
1.36624
0.072867
-0.0760129
-1.61036
1.61351
0.0781776
-0.0794478
-1.5907
1.59197
0.0798323
-0.0794559
-1.31687
1.3165
0.0786582
-0.0775689
-1.09675
1.09566
0.0765662
-0.0754607
-0.919592
0.918487
0.0737147
-0.0707997
-0.769771
0.766856
0.0662992
-0.0587936
-0.612034
0.604528
0.0496214
-0.0380533
-0.415467
0.403899
0.0274955
-0.0172044
-0.221734
0.211443
0.00977663
-0.00406708
-0.0857712
0.0800616
0.00108156
-0.0115811
0.0104995
-0.0362516
0.037792
-0.00154039
0.00958362
-0.0144927
-0.246082
0.250991
0.019801
-0.02421
-0.414549
0.418958
0.0285347
-0.0323046
-0.575067
0.578837
0.0365062
-0.0408071
-0.707068
0.711369
0.0461307
-0.0513239
-0.83509
0.840283
0.0572447
-0.0627418
-0.984281
0.989778
0.0687683
-0.0741402
-1.16154
1.16691
0.0797256
-0.084368
-1.37052
1.37516
0.0887357
-0.0918555
-1.61646
1.61958
0.0938425
-0.0948258
-1.59266
1.59365
0.0949247
-0.0942439
-1.31582
1.31514
0.0930737
-0.0916341
-1.09445
1.09301
0.090362
-0.088765
-0.916911
0.915314
0.0864986
-0.0824977
-0.763877
0.759876
0.0765161
-0.0669218
-0.596507
0.586912
0.0556936
-0.0420482
-0.391482
0.377836
0.0299636
-0.0184691
-0.200597
0.189102
0.0103531
-0.0042438
-0.0741542
0.0680449
0.00111034
-0.00940279
0.00829244
-0.0394021
0.041554
-0.00215194
0.0131857
-0.0198584
-0.256396
0.263069
0.0269976
-0.0328777
-0.424674
0.430554
0.0385733
-0.0434763
-0.584185
0.589088
0.0487792
-0.0540611
-0.716424
0.721706
0.0604649
-0.0665834
-0.845481
0.851599
0.0734477
-0.0797279
-0.995285
1.00157
0.0865054
-0.0924331
-1.17227
1.1782
0.0984553
-0.103316
-1.3797
1.38456
0.107708
-0.110645
-1.62241
1.62535
0.112301
-0.112862
-1.59393
1.59449
0.112586
-0.111531
-1.31398
1.31292
0.109969
-0.108151
-1.09145
1.08963
0.106589
-0.104444
-0.913108
0.910963
0.101503
-0.0960288
-0.75577
0.750296
0.08806
-0.0757585
-0.576645
0.564344
0.0619725
-0.0458686
-0.363199
0.347095
0.032095
-0.0193907
-0.177041
0.164337
0.0106752
-0.00429272
-0.0617903
0.0554078
0.00109945
-0.00718392
0.00608447
-0.0437123
0.046808
-0.0030957
0.0184185
-0.0273982
-0.270201
0.27918
0.0367703
-0.0444301
-0.438385
0.446045
0.0517889
-0.0580528
-0.596006
0.60227
0.0647883
-0.0714256
-0.727854
0.734491
0.0791002
-0.0862504
-0.857703
0.864854
0.0941208
-0.101181
-1.00784
1.0149
0.108632
-0.114982
-1.18404
1.19039
0.121236
-0.126095
-1.3892
1.39406
0.130244
-0.132752
-1.62787
1.63038
0.133854
-0.133798
-1.5942
1.59415
0.133022
-0.131518
-1.31118
1.30967
0.129557
-0.127299
-1.08767
1.08541
0.125309
-0.122652
-0.908054
0.905397
0.118633
-0.111113
-0.744588
0.737068
0.100478
-0.0846975
-0.551178
0.535397
0.0677939
-0.0489085
-0.329907
0.311021
0.033422
-0.0196818
-0.151144
0.137404
0.0105903
-0.00415757
-0.0489804
0.0425477
0.00103602
-0.00500909
0.00397308
-0.0497808
0.0544743
-0.00469342
0.0265353
-0.0386274
-0.288685
0.300777
0.0508716
-0.0608884
-0.456801
0.466818
0.0702948
-0.0782
-0.61111
0.619015
0.086709
-0.0948965
-0.741897
0.750085
0.103971
-0.112146
-0.871965
0.88014
0.120889
-0.128509
-1.02186
1.02948
0.136306
-0.14273
-1.19647
1.2029
0.148804
-0.153276
-1.39848
1.40296
0.15677
-0.158495
-1.63228
1.634
0.158744
-0.157823
-1.59309
1.59217
0.156378
-0.154295
-1.30719
1.30511
0.151881
-0.149109
-1.08301
1.08024
0.146678
-0.143255
-0.901562
0.898139
0.137663
-0.127164
-0.729045
0.718547
0.112907
-0.0927273
-0.51851
0.49833
0.0721742
-0.0503867
-0.291101
0.269314
0.0334156
-0.0190673
-0.123396
0.109048
0.0099742
-0.00380044
-0.0362189
0.0300451
0.000911677
-0.00298342
0.00207174
-0.0587481
0.0667672
-0.00801908
0.0407628
-0.0574507
-0.314064
0.330752
0.0737413
-0.0868536
-0.481513
0.494625
0.0983838
-0.107918
-0.630025
0.639559
0.118204
-0.127837
-0.758751
0.768383
0.13801
-0.14673
-0.888038
0.896759
0.155704
-0.163249
-1.03672
1.04427
0.170709
-0.176579
-1.20874
1.21461
0.181833
-0.185333
-1.40669
1.41019
0.187617
-0.18809
-1.63488
1.63535
0.187102
-0.185026
-1.59007
1.588
0.182716
-0.179939
-1.30174
1.29897
0.176975
-0.17361
-1.07723
1.07387
0.17056
-0.165867
-0.892897
0.888204
0.157805
-0.142947
-0.707099
0.692241
0.123748
-0.0983027
-0.476732
0.451286
0.0739144
-0.0495879
-0.246849
0.222522
0.0317263
-0.0174508
-0.0948628
0.0805873
0.00881357
-0.00322477
-0.0241592
0.0185704
0.000724418
-0.00121546
0.000491037
-0.0742098
0.0787666
-0.00455682
0.031398
-0.0460623
-0.350393
0.365057
0.0607328
-0.0728241
-0.513767
0.525858
0.0839687
-0.0946681
-0.652642
0.663341
0.106959
-0.118218
-0.777312
0.788571
0.130805
-0.142117
-0.9045
0.915811
0.154348
-0.165412
-1.05094
1.062
0.177263
-0.187725
-1.21948
1.22994
0.198581
-0.207745
-1.41263
1.42179
0.216679
-0.223511
-1.63471
1.64154
0.228304
-0.231813
-1.58453
1.58804
0.233971
-0.235594
-1.29451
1.29614
0.236397
-0.235946
-1.06988
1.06943
0.234489
-0.228647
-0.880504
0.874662
0.215643
-0.191097
-0.675762
0.651216
0.159812
-0.120973
-0.424262
0.385424
0.0867332
-0.0550624
-0.198308
0.166638
0.0335883
-0.0175966
-0.0672263
0.0512346
0.00843013
-0.00286451
-0.0134802
0.00791455
0.000563173
0.000246174
-0.000809346
-0.086675
0.0848324
0.00184264
0.0090814
-0.0188623
-0.382741
0.392521
0.0301978
-0.0391166
-0.543
0.551919
0.0482929
-0.0573987
-0.676771
0.685877
0.0686445
-0.0792033
-0.799275
0.809834
0.0906202
-0.101135
-0.926583
0.937098
0.112498
-0.122448
-1.07285
1.0828
0.133336
-0.142622
-1.2403
1.24958
0.152305
-0.160322
-1.4308
1.43882
0.167868
-0.173621
-1.6479
1.65366
0.177514
-0.180195
-1.59078
1.59346
0.181499
-0.1825
-1.2959
1.2969
0.182899
-0.182028
-1.06741
1.06653
0.179005
-0.170397
-0.8633
0.854692
0.155032
-0.130282
-0.621991
0.597241
0.102683
-0.0723052
-0.344217
0.31384
0.0486479
-0.0291292
-0.136416
0.116897
0.0168827
-0.00839253
-0.036651
0.0281609
0.00378343
-0.00118361
-0.00268708
8.72568e-05
0.000182931
0.00155149
-0.00173442
-0.0885589
0.0855895
0.00296939
-0.000265832
-0.0055994
-0.405111
0.410976
0.0132886
-0.020063
-0.565115
0.571889
0.0271436
-0.0350217
-0.697491
0.70537
0.0448494
-0.0540724
-0.819294
0.828517
0.0642782
-0.0735407
-0.946825
0.956088
0.0833401
-0.0923559
-1.09265
1.10166
0.102054
-0.110484
-1.25854
1.26697
0.1189
-0.125814
-1.44636
1.45327
0.132528
-0.137423
-1.65905
1.66395
0.140549
-0.14253
-1.59554
1.59752
0.143267
-0.143827
-1.2962
1.29676
0.143605
-0.142283
-1.06285
1.06153
0.138164
-0.12804
-0.841925
0.831801
0.112251
-0.089292
-0.569021
0.546062
0.0664859
-0.0440841
-0.281684
0.259282
0.028581
-0.0167438
-0.0979347
0.0860975
0.00959273
-0.00475624
-0.0199449
0.0151084
0.00214675
-0.000671618
0.00266728
-0.00414241
0.000105539
0.00211148
-0.00221702
-0.0874381
0.0845772
0.0028609
-0.00443157
0.00129082
-0.420428
0.423569
0.00385495
-0.00910654
-0.582004
0.587255
0.0151959
-0.0218583
-0.714654
0.721316
0.0303219
-0.0382909
-0.836963
0.844932
0.04709
-0.0551163
-0.964798
0.972824
0.0640251
-0.0718165
-1.11026
1.11805
0.0804229
-0.0874836
-1.27504
1.2821
0.0949475
-0.101063
-1.46007
1.46619
0.106797
-0.110716
-1.66866
1.67258
0.113395
-0.115049
-1.59902
1.60068
0.115499
-0.115288
-1.29592
1.29571
0.114647
-0.112805
-1.05679
1.05495
0.107895
-0.097578
-0.817917
0.8076
0.0824908
-0.0627651
-0.520434
0.500708
0.0449827
-0.029134
-0.235865
0.220016
0.0187596
-0.011077
-0.0737687
0.0660861
0.00643259
-0.00326068
-0.00991936
0.00674745
0.00152073
-0.000498219
0.00587371
-0.00689622
8.6036e-05
0.00244737
-0.0025334
-0.0859792
0.0833749
0.00260433
-0.00607258
0.00465577
-0.430936
0.432353
-0.000721485
-0.00329542
-0.595692
0.599709
0.00823921
-0.0142402
-0.72916
0.735161
0.0213709
-0.0283742
-0.852086
0.859089
0.0360221
-0.0430285
-0.980377
0.987383
0.0507334
-0.0576802
-1.1257
1.13265
0.0650819
-0.0715233
-1.28903
1.29548
0.0780478
-0.0833642
-1.47199
1.4773
0.0882938
-0.0915767
-1.6765
1.67979
0.0937588
-0.0948239
-1.6017
1.60277
0.0949858
-0.0945591
-1.29461
1.29419
0.093512
-0.0910454
-1.0497
1.04724
0.0859948
-0.0758842
-0.793701
0.78359
0.062446
-0.0459941
-0.478778
0.462326
0.0323842
-0.020957
-0.202855
0.191427
0.0135989
-0.00821231
-0.0576029
0.0522163
0.0049132
-0.00257486
-0.00308244
0.000744101
0.00124827
-0.000428988
0.00816239
-0.00898167
8.6482e-05
0.00270035
-0.00278683
-0.0844912
0.0821907
0.00230044
-0.00641457
0.00565092
-0.438279
0.439043
-0.00320643
-8.38947e-05
-0.606363
0.609653
0.00480934
-0.00992619
-0.741475
0.746592
0.0160303
-0.0220823
-0.865189
0.871241
0.0288322
-0.035051
-0.994
1.00022
0.0420228
-0.0480896
-1.13929
1.14536
0.0546761
-0.0603983
-1.3016
1.30732
0.066105
-0.0707072
-1.48234
1.48695
0.0748813
-0.077942
-1.68307
1.68613
0.0796144
-0.0804735
-1.60343
1.60429
0.0803697
-0.0796372
-1.293
1.29226
0.0784651
-0.075432
-1.04187
1.03884
0.0702483
-0.060836
-0.770302
0.76089
0.0489959
-0.0353985
-0.443863
0.430265
0.024837
-0.0162398
-0.178585
0.169988
0.0107884
-0.0066972
-0.0459154
0.0418242
0.00410317
-0.00220881
0.00206941
-0.00396378
0.00109627
-0.000394288
0.0099725
-0.0106745
8.55399e-05
0.00290763
-0.00299317
-0.0832071
0.0813336
0.00187352
-0.0059322
0.00568325
-0.443675
0.443924
-0.00370549
0.00122072
-0.615593
0.618078
0.00308791
-0.00766482
-0.752083
0.75666
0.0133414
-0.0185044
-0.876813
0.881976
0.0243622
-0.0297995
-1.00636
1.0118
0.0362456
-0.0416301
-1.1514
1.15679
0.0473668
-0.052553
-1.3128
1.31799
0.0579945
-0.0620035
-1.49152
1.49553
0.065711
-0.0681737
-1.68881
1.69127
0.0697546
-0.0700498
-1.60494
1.60524
0.0699175
-0.0691406
-1.29095
1.29017
0.0675801
-0.0644562
-1.03358
1.03046
0.0592665
-0.0503847
-0.748245
0.739363
0.0401762
-0.0287838
-0.414597
0.403205
0.0203282
-0.0136488
-0.159991
0.153312
0.00929137
-0.00592774
-0.0368191
0.0334555
0.00371929
-0.00204551
0.00629733
-0.00797111
0.00103146
-0.000377999
0.0115029
-0.0121563
8.68567e-05
0.00307792
-0.00316478
-0.0823179
0.0807819
0.00153596
-0.00517947
0.00524571
-0.44775
0.447684
-0.00352864
0.00126951
-0.623477
0.625736
0.00267729
-0.00672104
-0.761457
0.765501
0.0115107
-0.0163481
-0.887025
0.891863
0.0216251
-0.0270137
-1.01697
1.02236
0.0324482
-0.0373724
-1.16221
1.16713
0.0429045
-0.0474876
-1.32296
1.32754
0.0519762
-0.0559324
-1.49936
1.50331
0.059229
-0.0613939
-1.69377
1.69593
0.0625424
-0.0628475
-1.6057
1.60601
0.062562
-0.0616057
-1.28875
1.2878
0.0599543
-0.0566179
-1.02541
1.02207
0.0515638
-0.0434937
-0.727648
0.719578
0.0342715
-0.0247145
-0.389853
0.380296
0.0178267
-0.0123117
-0.14522
0.139705
0.00864719
-0.00572437
-0.0292041
0.0262813
0.00368883
-0.00208011
0.0100494
-0.0116581
0.00106853
-0.000394883
0.0129064
-0.0135801
9.36994e-05
0.00322783
-0.00332153
-0.0818895
0.0805421
0.00134743
-0.00414378
0.00411544
-0.451103
0.451131
-0.00273347
0.000600411
-0.630496
0.632629
0.0029301
-0.00673167
-0.769977
0.773779
0.0111874
-0.0154556
-0.896432
0.9007
0.0206704
-0.0250349
-1.02707
1.03143
0.0301882
-0.034667
-1.17214
1.17661
0.0397356
-0.0441475
-1.33199
1.33641
0.0484694
-0.0516952
-1.5069
1.51012
0.0547051
-0.0566113
-1.69792
1.69982
0.0577557
-0.0577095
-1.60611
1.60606
0.0573272
-0.0562315
-1.28669
1.2856
0.0545049
-0.0509925
-1.01714
1.01362
0.0461555
-0.0385872
-0.708635
0.701067
0.0304621
-0.0222874
-0.36886
0.360685
0.0164781
-0.0118879
-0.132903
0.128313
0.0086774
-0.00598014
-0.0224584
0.0197612
0.00399109
-0.00232947
0.0136442
-0.0153058
0.00122929
-0.000473536
0.0143211
-0.0150768
0.000113402
0.00337093
-0.00348433
-0.0816759
0.0806537
0.00102219
-0.00317985
0.00278681
-0.454239
0.454632
-0.00169794
-0.000398409
-0.636512
0.638608
0.00348468
-0.00704869
-0.777705
0.781269
0.0111868
-0.0154485
-0.904776
0.909038
0.0198456
-0.0241969
-1.03594
1.0403
0.0290739
-0.0330781
-1.18144
1.18545
0.0379175
-0.0419283
-1.34049
1.3445
0.0458376
-0.0491082
-1.51363
1.5169
0.0519633
-0.0534536
-1.70161
1.7031
0.054101
-0.0540724
-1.60606
1.60603
0.0536712
-0.0523775
-1.28415
1.28285
0.0504423
-0.0470911
-1.00898
1.00563
0.0420136
-0.0351571
-0.690891
0.684035
0.0279561
-0.0208942
-0.350883
0.343821
0.0160078
-0.0120049
-0.122399
0.118396
0.00911405
-0.00652276
-0.0162249
0.0136336
0.00450197
-0.00272483
0.0173181
-0.0190952
0.00149987
-0.000601313
0.0159034
-0.0168019
0.000152901
0.00354095
-0.00369385
-0.0818297
0.0809787
0.000851078
-0.00234483
0.00208762
-0.457341
0.457598
-0.000558847
-0.00128456
-0.642384
0.644227
0.0044573
-0.00779301
-0.784694
0.788029
0.011648
-0.0153684
-0.912909
0.91663
0.0197419
-0.0236002
-1.04457
1.04843
0.0282071
-0.0324374
-1.18983
1.19406
0.0365936
-0.0406116
-1.34842
1.35244
0.04452
-0.0473869
-1.51988
1.52275
0.0499638
-0.0515309
-1.70461
1.70618
0.0518628
-0.0516845
-1.60566
1.60548
0.0508383
-0.049405
-1.28137
1.27994
0.0474386
-0.0438839
-1.001
0.997444
0.039063
-0.0326026
-0.674621
0.66816
0.0261918
-0.0200466
-0.335189
0.329044
0.015811
-0.0123136
-0.113245
0.109747
0.00964571
-0.00712977
-0.0102792
0.00776324
0.00507561
-0.00318759
0.0211682
-0.0230562
0.00181589
-0.000757552
0.0177536
-0.0188119
0.00020199
0.00378015
-0.00398214
-0.0822577
0.0815789
0.00067878
-0.00135738
0.000986796
-0.4604
0.460771
0.00031099
-0.00239113
-0.647659
0.649739
0.00542127
-0.00851543
-0.791237
0.794331
0.0123529
-0.0158141
-0.920282
0.923743
0.0198895
-0.0237291
-1.05272
1.05656
0.0280512
-0.0320358
-1.19803
1.20202
0.0361482
-0.0398911
-1.35624
1.35998
0.043579
-0.0467621
-1.52573
1.52891
0.0491542
-0.0502877
-1.70741
1.70855
0.0505091
-0.0497789
-1.60489
1.60416
0.0487811
-0.0472152
-1.27819
1.27662
0.0447913
-0.0410941
-0.992902
0.989205
0.036349
-0.030178
-0.659555
0.653384
0.0245318
-0.0191794
-0.321635
0.316282
0.0155369
-0.0124031
-0.10515
0.102016
0.00995338
-0.00753655
-0.00456477
0.00214794
0.00551024
-0.00356918
0.0251867
-0.0271278
0.00209672
-0.000910478
0.0198841
-0.0210704
0.000260381
0.00410859
-0.00436897
-0.0829108
0.0823523
0.000558549
-0.00054241
0.000107245
-0.46348
0.463915
0.00120496
-0.00327146