/*--------------------------------*- C++ -*----------------------------------*\
  =========                 |
  \\      /  F ield         | OpenFOAM: The Open Source CFD Toolbox
   \\    /   O peration     | Website:  https://openfoam.org
    \\  /    A nd           | Version:  6
     \\/     M anipulation  |
\*---------------------------------------------------------------------------*/
FoamFile
{
    version     2.0;
    format      ascii;
    class       volVectorField;
    location    "26.9";
    object      U;
}
// * * * * * * * * * * * * * * * * * * * * * * * * * * * * * * * * * * * * * //

dimensions      [0 1 -1 0 0 0 0];

internalField   nonuniform List<vector> 
8800
(
(0.98719 -0.0766656 0)
(1.0019 -0.055189 0)
(0.999754 -0.0285454 0)
(1.00004 -0.0151336 0)
(1.00005 -0.00852604 0)
(1.00003 -0.00502148 0)
(1.00002 -0.00299052 0)
(1.00002 -0.00171499 0)
(1.00002 -0.000829975 0)
(1.00005 -0.000126998 0)
(1.00001 0.000579569 0)
(1.00003 0.00134818 0)
(1.00003 0.00238432 0)
(1.00003 0.00396113 0)
(1.00004 0.00659553 0)
(1.00006 0.0113399 0)
(0.999977 0.0207897 0)
(0.999179 0.0386527 0)
(1.00709 0.0724498 0)
(0.771217 0.0366596 0)
(0.363052 -0.0160186 0)
(1.04329 -0.076824 0)
(1.08461 -0.0704617 0)
(1.04522 -0.0535704 0)
(1.02326 -0.0389364 0)
(1.01192 -0.0262642 0)
(1.0063 -0.0169128 0)
(1.0035 -0.0103851 0)
(1.00211 -0.00575169 0)
(1.00143 -0.00216936 0)
(1.00129 0.00110029 0)
(1.00168 0.00442601 0)
(1.00265 0.00837781 0)
(1.00462 0.0137864 0)
(1.00859 0.0215405 0)
(1.0166 0.0325263 0)
(1.03258 0.0464507 0)
(1.06274 0.0615785 0)
(1.0919 0.0760272 0)
(0.838775 0.0565331 0)
(0.216792 -0.00243088 0)
(1.07587 -0.0501607 0)
(1.09987 -0.0483437 0)
(1.06458 -0.0404824 0)
(1.03988 -0.0336012 0)
(1.02368 -0.0260924 0)
(1.01393 -0.018587 0)
(1.00841 -0.0118815 0)
(1.00548 -0.00609977 0)
(1.0043 -0.000724223 0)
(1.00465 0.00451267 0)
(1.00657 0.00990472 0)
(1.01057 0.0159809 0)
(1.0179 0.0229948 0)
(1.03054 0.0304862 0)
(1.05071 0.0375759 0)
(1.0805 0.0443279 0)
(1.10645 0.0511977 0)
(0.942825 0.0415439 0)
(0.216356 0.00245068 0)
(0.175103 -0.000816128 0)
(1.01761 -0.0355011 0)
(1.10517 -0.0414262 0)
(1.07821 -0.0361458 0)
(1.05329 -0.030248 0)
(1.03594 -0.0246813 0)
(1.02372 -0.0189903 0)
(1.01568 -0.0129811 0)
(1.01095 -0.00686976 0)
(1.00884 -0.000695553 0)
(1.00947 0.00541037 0)
(1.0127 0.0113907 0)
(1.01887 0.0172969 0)
(1.0288 0.0229692 0)
(1.04334 0.0283531 0)
(1.06396 0.0338797 0)
(1.09386 0.0398908 0)
(1.09381 0.0417134 0)
(0.827874 0.0227979 0)
(0.174372 0.000838605 0)
(0.153897 -0.000608826 0)
(0.956071 -0.0254483 0)
(1.10333 -0.0351125 0)
(1.08745 -0.0326332 0)
(1.06138 -0.0279898 0)
(1.04374 -0.0230294 0)
(1.03133 -0.0179193 0)
(1.02251 -0.0125759 0)
(1.01675 -0.00682069 0)
(1.01401 -0.00044665 0)
(1.01476 0.00595411 0)
(1.01883 0.0118025 0)
(1.0259 0.0170642 0)
(1.03625 0.0220101 0)
(1.05086 0.0267934 0)
(1.07214 0.0313907 0)
(1.10048 0.0354295 0)
(1.06886 0.0336413 0)
(0.740918 0.0141476 0)
(0.152802 0.000634455 0)
(0.139539 -0.000464558 0)
(0.899193 -0.0190373 0)
(1.09568 -0.0300556 0)
(1.09557 -0.0291762 0)
(1.06883 -0.0254494 0)
(1.05022 -0.0213769 0)
(1.03733 -0.0167931 0)
(1.02833 -0.0117419 0)
(1.02238 -0.00617012 0)
(1.01944 -2.91498e-05 0)
(1.02017 0.00612578 0)
(1.02432 0.0117157 0)
(1.03146 0.0166825 0)
(1.042 0.0211569 0)
(1.0573 0.0251799 0)
(1.07972 0.0287459 0)
(1.10304 0.0314964 0)
(1.03742 0.0275887 0)
(0.675265 0.00998576 0)
(0.137999 0.000494248 0)
(0.129049 -0.000355527 0)
(0.849802 -0.0145889 0)
(1.08313 -0.0257586 0)
(1.10095 -0.0261202 0)
(1.07548 -0.022989 0)
(1.05646 -0.0194704 0)
(1.04308 -0.0153744 0)
(1.03366 -0.0106487 0)
(1.02735 -0.00540224 0)
(1.02415 0.0004596 0)
(1.02486 0.0063414 0)
(1.02915 0.0115245 0)
(1.03653 0.0160874 0)
(1.04746 0.020092 0)
(1.06315 0.02349 0)
(1.08583 0.0264517 0)
(1.10233 0.0282666 0)
(1.00348 0.0228068 0)
(0.624761 0.00753133 0)
(0.126971 0.000390561 0)
(0.121109 -0.000273648 0)
(0.808109 -0.0113406 0)
(1.068 -0.0219971 0)
(1.10433 -0.023181 0)
(1.08139 -0.0203018 0)
(1.06187 -0.0170759 0)
(1.04816 -0.0135633 0)
(1.03839 -0.00941137 0)
(1.03189 -0.00452349 0)
(1.0286 0.00108897 0)
(1.02913 0.00667614 0)
(1.03333 0.0114853 0)
(1.04084 0.015464 0)
(1.052 0.0187153 0)
(1.06802 0.021554 0)
(1.09119 0.0243136 0)
(1.09916 0.0254633 0)
(0.969791 0.0189853 0)
(0.584899 0.0058929 0)
(0.118377 0.000315499 0)
(0.115059 -0.000205346 0)
(0.773484 -0.00880034 0)
(1.05143 -0.0185359 0)
(1.1066 -0.0205884 0)
(1.08702 -0.0182377 0)
(1.06697 -0.0151605 0)
(1.05298 -0.0117398 0)
(1.04308 -0.00779211 0)
(1.03633 -0.00325472 0)
(1.03274 0.00185536 0)
(1.03316 0.00686206 0)
(1.03738 0.0111577 0)
(1.04487 0.0146925 0)
(1.05604 0.0176735 0)
(1.07241 0.0203148 0)
(1.09544 0.022696 0)
(1.09338 0.0229393 0)
(0.937678 0.0157971 0)
(0.552924 0.00468913 0)
(0.111533 0.000255768 0)
(0.110491 -0.00015166 0)
(0.74524 -0.00674913 0)
(1.03471 -0.0152587 0)
(1.1075 -0.0177062 0)
(1.09194 -0.0157846 0)
(1.07183 -0.0130218 0)
(1.05768 -0.0098342 0)
(1.04756 -0.0061513 0)
(1.04057 -0.00198872 0)
(1.03674 0.00275453 0)
(1.03693 0.00739421 0)
(1.04104 0.0111289 0)
(1.04851 0.0141531 0)
(1.05972 0.0167278 0)
(1.07619 0.0189579 0)
(1.09814 0.0208544 0)
(1.08543 0.0204224 0)
(0.908146 0.0131552 0)
(0.526991 0.00378321 0)
(0.105996 0.000213417 0)
(0.107138 -0.000104057 0)
(0.722718 -0.0050158 0)
(1.01902 -0.0122385 0)
(1.10785 -0.0148668 0)
(1.09665 -0.0131522 0)
(1.0763 -0.0105503 0)
(1.06188 -0.00770588 0)
(1.0516 -0.00431043 0)
(1.04453 -0.000432653 0)
(1.0405 0.00386525 0)
(1.04041 0.00794838 0)
(1.04418 0.0112149 0)
(1.05146 0.0137595 0)
(1.06268 0.0157471 0)
(1.07934 0.0174877 0)
(1.09976 0.0190557 0)
(1.07629 0.018099 0)
(0.881625 0.0109374 0)
(0.505884 0.00306745 0)
(0.101457 0.000179034 0)
(0.104836 -6.17324e-05 0)
(0.705429 -0.00346262 0)
(1.00486 -0.00928122 0)
(1.1074 -0.0119443 0)
(1.10092 -0.0105597 0)
(1.08022 -0.00816168 0)
(1.06539 -0.0055374 0)
(1.05485 -0.00241362 0)
(1.04747 0.00120519 0)
(1.04314 0.00517461 0)
(1.0427 0.00883618 0)
(1.04623 0.0116209 0)
(1.05337 0.0135556 0)
(1.06467 0.0150347 0)
(1.08181 0.0163933 0)
(1.10034 0.0174788 0)
(1.06611 0.0158758 0)
(0.858165 0.00901744 0)
(0.488697 0.00249181 0)
(0.0976875 0.000155541 0)
(0.10349 -2.00469e-05 0)
(0.693234 -0.00197746 0)
(0.99297 -0.006292 0)
(1.10634 -0.00880413 0)
(1.10458 -0.00787764 0)
(1.08422 -0.00577514 0)
(1.06936 -0.00316959 0)
(1.05876 -9.85717e-05 0)
(1.05113 0.00322214 0)
(1.04637 0.00679292 0)
(1.04556 0.00997209 0)
(1.04876 0.0121726 0)
(1.05557 0.0136893 0)
(1.06652 0.0147743 0)
(1.0834 0.0155912 0)
(1.09966 0.0159182 0)
(1.05526 0.0136351 0)
(0.837992 0.00728321 0)
(0.474959 0.00200043 0)
(0.0945294 0.000136229 0)
(0.103137 1.83619e-05 0)
(0.685842 -0.000563138 0)
(0.983767 -0.00336772 0)
(1.10489 -0.00541755 0)
(1.10755 -0.00460008 0)
(1.08773 -0.00268906 0)
(1.07259 -0.000327499 0)
(1.06168 0.00242858 0)
(1.05385 0.0054991 0)
(1.0488 0.00878649 0)
(1.04736 0.0115321 0)
(1.0499 0.0131431 0)
(1.05635 0.0138768 0)
(1.06726 0.0142465 0)
(1.08408 0.0143662 0)
(1.09763 0.0142479 0)
(1.04414 0.011563 0)
(0.820912 0.00581422 0)
(0.464195 0.00160021 0)
(0.0919323 0.000116168 0)
(0.103752 7.72839e-05 0)
(0.682802 0.000570189 0)
(0.977514 -0.00080678 0)
(1.10385 -0.0022703 0)
(1.11034 -0.00150058 0)
(1.09098 0.000299641 0)
(1.07573 0.00262026 0)
(1.06466 0.00537333 0)
(1.05641 0.00831607 0)
(1.05076 0.011234 0)
(1.04867 0.0134111 0)
(1.05067 0.0144541 0)
(1.05663 0.0147118 0)
(1.0672 0.0144975 0)
(1.0836 0.0141897 0)
(1.0947 0.0134195 0)
(1.03309 0.0102007 0)
(0.80647 0.0049432 0)
(0.455542 0.00141637 0)
(0.0897915 0.00010599 0)
(0.10514 0.000102119 0)
(0.683313 0.0013547 0)
(0.97416 0.00117575 0)
(1.1033 0.000292042 0)
(1.11304 0.00104074 0)
(1.09437 0.0027807 0)
(1.07909 0.00528109 0)
(1.06788 0.00821184 0)
(1.05934 0.011327 0)
(1.05303 0.0142214 0)
(1.05009 0.0161474 0)
(1.05122 0.0168457 0)
(1.05642 0.0166458 0)
(1.06635 0.015918 0)
(1.08235 0.0150422 0)
(1.09036 0.0135215 0)
(1.02187 0.00977988 0)
(0.793663 0.00483356 0)
(0.447551 0.00149453 0)
(0.0877352 0.00011443 0)
(0.107099 0.000132336 0)
(0.6863 0.00198737 0)
(0.973573 0.0028895 0)
(1.10337 0.00276757 0)
(1.1157 0.00361803 0)
(1.09772 0.00548497 0)
(1.0825 0.00828462 0)
(1.07102 0.0115379 0)
(1.06183 0.0149005 0)
(1.05461 0.0179009 0)
(1.05067 0.0197106 0)
(1.05088 0.0199493 0)
(1.05533 0.0191479 0)
(1.06468 0.0179275 0)
(1.07991 0.01648 0)
(1.08487 0.0143323 0)
(1.01044 0.0101892 0)
(0.781347 0.00533562 0)
(0.438955 0.00174552 0)
(0.0854208 0.000136768 0)
(0.109689 0.000169935 0)
(0.691777 0.00268927 0)
(0.975716 0.00440425 0)
(1.10492 0.00541705 0)
(1.11885 0.00688479 0)
(1.10168 0.0092104 0)
(1.0865 0.0124232 0)
(1.07472 0.016003 0)
(1.06489 0.0195495 0)
(1.05664 0.022503 0)
(1.05132 0.0239293 0)
(1.0503 0.0236155 0)
(1.0537 0.0222436 0)
(1.06221 0.0203302 0)
(1.07657 0.0182202 0)
(1.07846 0.0155973 0)
(0.998948 0.0113019 0)
(0.768346 0.00622072 0)
(0.428985 0.0020696 0)
(0.0826581 0.000165103 0)
(0.113031 0.000217347 0)
(0.699534 0.00354241 0)
(0.980589 0.00604787 0)
(1.10891 0.00807936 0)
(1.12352 0.0106061 0)
(1.10648 0.0138285 0)
(1.09095 0.0176895 0)
(1.07852 0.0217024 0)
(1.0677 0.0254206 0)
(1.0581 0.0282066 0)
(1.0512 0.0290202 0)
(1.04884 0.0279462 0)
(1.05119 0.0258028 0)
(1.05879 0.0233295 0)
(1.07228 0.0207604 0)
(1.07163 0.0178415 0)
(0.986922 0.0132471 0)
(0.753401 0.00733731 0)
(0.417241 0.00245726 0)
(0.0793396 0.000201152 0)
(0.117367 0.000283033 0)
(0.710012 0.00474209 0)
(0.987702 0.00813157 0)
(1.11505 0.0107932 0)
(1.13008 0.0141182 0)
(1.11261 0.0183136 0)
(1.09633 0.0231461 0)
(1.08292 0.0278916 0)
(1.0708 0.0322051 0)
(1.05942 0.0352097 0)
(1.05061 0.0357678 0)
(1.04667 0.0340929 0)
(1.04786 0.0311044 0)
(1.05488 0.027976 0)
(1.06752 0.0250224 0)
(1.06397 0.021688 0)
(0.972445 0.015799 0)
(0.735715 0.00850421 0)
(0.403596 0.00287519 0)
(0.0753948 0.000239127 0)
(0.123054 0.000376226 0)
(0.72422 0.00640881 0)
(0.996847 0.0110421 0)
(1.12247 0.014014 0)
(1.13793 0.0176752 0)
(1.12025 0.0227191 0)
(1.10289 0.0285575 0)
(1.08825 0.0345226 0)
(1.0745 0.0399942 0)
(1.06091 0.0438732 0)
(1.04988 0.0448436 0)
(1.04401 0.0431265 0)
(1.04361 0.0398899 0)
(1.04963 0.0359745 0)
(1.06154 0.031815 0)
(1.05332 0.0265837 0)
(0.953811 0.0184472 0)
(0.71544 0.00980787 0)
(0.387908 0.00337231 0)
(0.0707549 0.000282031 0)
(0.130614 0.000516672 0)
(0.743548 0.00880877 0)
(1.009 0.0152752 0)
(1.13053 0.0189015 0)
(1.14653 0.0226156 0)
(1.12909 0.0282842 0)
(1.11109 0.0353101 0)
(1.09509 0.0428816 0)
(1.07922 0.0497719 0)
(1.06295 0.0546044 0)
(1.04927 0.0558669 0)
(1.04117 0.0539351 0)
(1.03882 0.0502088 0)
(1.04305 0.0454701 0)
(1.05194 0.0396095 0)
(1.03707 0.0314203 0)
(0.931154 0.0210298 0)
(0.692786 0.011381 0)
(0.369817 0.00396635 0)
(0.0653322 0.000328633 0)
(0.140928 0.000731839 0)
(0.769788 0.0121911 0)
(1.02627 0.021134 0)
(1.14009 0.026335 0)
(1.15577 0.0306048 0)
(1.13937 0.0373323 0)
(1.12126 0.0458468 0)
(1.10348 0.054862 0)
(1.0848 0.0627289 0)
(1.06519 0.0678298 0)
(1.04833 0.0685467 0)
(1.03764 0.0655794 0)
(1.03288 0.0605358 0)
(1.03422 0.0542222 0)
(1.03796 0.0460992 0)
(1.01618 0.0357089 0)
(0.906051 0.0241047 0)
(0.667343 0.0134308 0)
(0.348635 0.00470099 0)
(0.0590236 0.000381595 0)
(0.155237 0.00107891 0)
(0.804978 0.0172015 0)
(1.05112 0.0293033 0)
(1.15375 0.0370281 0)
(1.16718 0.0434566 0)
(1.152 0.0520634 0)
(1.13308 0.0620169 0)
(1.11268 0.0718116 0)
(1.09043 0.0797297 0)
(1.06682 0.0839501 0)
(1.04625 0.0829201 0)
(1.03247 0.0778411 0)
(1.02485 0.0706181 0)
(1.02237 0.0620876 0)
(1.02053 0.0520816 0)
(0.993038 0.0405757 0)
(0.879139 0.0282237 0)
(0.638108 0.0160457 0)
(0.32364 0.0055516 0)
(0.0517234 0.000435784 0)
(0.175721 0.00169209 0)
(0.852201 0.0250526 0)
(1.08621 0.0412171 0)
(1.17444 0.0524867 0)
(1.18324 0.0625183 0)
(1.16695 0.0734008 0)
(1.14578 0.084512 0)
(1.12173 0.0943411 0)
(1.09512 0.101224 0)
(1.06689 0.103316 0)
(1.04215 0.0993936 0)
(1.02487 0.0913788 0)
(1.01402 0.0815084 0)
(1.00762 0.0707038 0)
(1.00108 0.0593164 0)
(0.968694 0.0471709 0)
(0.849407 0.0336984 0)
(0.60371 0.0192904 0)
(0.294299 0.00653171 0)
(0.0434334 0.000487724 0)
(0.205687 0.00305123 0)
(0.916908 0.038465 0)
(1.1343 0.0604786 0)
(1.20316 0.0752721 0)
(1.20461 0.0895265 0)
(1.18405 0.102442 0)
(1.15856 0.113961 0)
(1.12967 0.122765 0)
(1.09796 0.127433 0)
(1.0646 0.126247 0)
(1.03542 0.118575 0)
(1.01451 0.107178 0)
(1.00032 0.0945261 0)
(0.990474 0.0816481 0)
(0.980131 0.0690611 0)
(0.942606 0.0561065 0)
(0.815046 0.0406592 0)
(0.562988 0.0231591 0)
(0.260786 0.00764371 0)
(0.0344008 0.000529461 0)
(0.246959 0.00936163 3.5454e-21)
(1.00256 0.0653682 3.16417e-21)
(1.19198 0.0935544 -1.17207e-21)
(1.23832 0.110776 0)
(1.22883 0.127873 -3.60721e-35)
(1.20153 0.140995 5.42884e-22)
(1.17009 0.151334 -1.07686e-21)
(1.13541 0.157883 0)
(1.09808 0.159436 2.42894e-35)
(1.05915 0.154328 -1.54044e-21)
(1.02505 0.142555 0)
(1.00009 0.127718 -1.91917e-21)
(0.982269 0.112423 -5.7185e-21)
(0.96901 0.0977889 -2.72021e-21)
(0.955079 0.0842921 -8.30367e-22)
(0.911451 0.0705862 -4.96369e-22)
(0.771644 0.0519302 0)
(0.512187 0.0295898 3.51572e-22)
(0.223156 0.0105266 4.16933e-22)
(0.026052 0.00106218 7.55134e-21)
(0.274245 0.0250006 1.19585e-21)
(1.07299 0.108243 1.03136e-22)
(1.23989 0.141279 2.52473e-22)
(1.27101 0.160063 0)
(1.25106 0.176195 -1.6463e-21)
(1.21682 0.187927 -1.9904e-21)
(1.179 0.196423 -1.04274e-21)
(1.1381 0.200673 -4.04302e-21)
(1.09462 0.19931 0)
(1.04933 0.190696 6.5675e-21)
(1.00913 0.175224 6.69351e-21)
(0.978925 0.157386 2.03514e-21)
(0.956488 0.139831 7.58108e-21)
(0.939012 0.123502 1.07834e-20)
(0.919903 0.108365 0)
(0.86991 0.0926383 1.55085e-20)
(0.71989 0.0699426 2.24475e-20)
(0.461109 0.0418047 2.50565e-20)
(0.192663 0.0165999 -2.88344e-20)
(0.0201465 0.00175703 -5.44664e-22)
(0.27388 0.0411969 0)
(1.11692 0.164045 -1.10089e-22)
(1.27403 0.20051 0)
(1.29644 0.219291 -1.27818e-21)
(1.26864 0.232174 0)
(1.22826 0.240693 -3.56546e-21)
(1.18443 0.246005 2.05917e-21)
(1.13757 0.247001 -7.82871e-21)
(1.08813 0.242189 -3.16593e-22)
(1.03685 0.229822 3.36086e-21)
(0.991045 0.21092 1.50195e-20)
(0.956147 0.190527 -6.22868e-23)
(0.929806 0.171339 -5.58161e-21)
(0.908896 0.153905 -1.03806e-20)
(0.886625 0.138006 1.24023e-20)
(0.834532 0.120413 -2.21344e-20)
(0.690035 0.093336 -2.97661e-21)
(0.446004 0.0592875 0)
(0.195936 0.0258905 7.74356e-24)
(0.0229308 0.00317243 0)
(0.266567 0.0550555 -1.01936e-20)
(1.13956 0.223322 3.54417e-21)
(1.29583 0.264815 9.48962e-22)
(1.31317 0.283222 3.91846e-22)
(1.27999 0.292388 -7.74391e-22)
(1.23485 0.297074 7.31164e-21)
(1.18603 0.298579 4.23037e-21)
(1.13403 0.295752 0)
(1.0793 0.287128 -1.60599e-20)
(1.02254 0.270905 0)
(0.971781 0.248621 -7.85221e-21)
(0.932879 0.22586 -1.00548e-20)
(0.90338 0.205271 -6.158e-21)
(0.879935 0.186966 -7.62695e-21)
(0.855866 0.170161 0)
(0.805413 0.151282 0)
(0.67317 0.121135 -1.97337e-20)
(0.448978 0.0815328 3.92484e-21)
(0.2098 0.0383241 -2.29506e-21)
(0.0283911 0.00549592 -2.71683e-21)
(0.258857 0.0674557 1.04145e-20)
(1.14861 0.2824 0)
(1.30806 0.330234 -4.99131e-21)
(1.32224 0.34838 3.7658e-22)
(1.28524 0.353991 2.30506e-21)
(1.23654 0.354845 0)
(1.18379 0.352467 3.79497e-21)
(1.12753 0.345739 8.51413e-21)
(1.06831 0.333175 8.02021e-21)
(1.00683 0.313022 1.62057e-20)
(0.951784 0.287372 0)
(0.909593 0.262347 -2.18138e-20)
(0.87762 0.240301 -1.33878e-20)
(0.852311 0.221269 -7.96451e-21)
(0.827276 0.203923 5.00361e-20)
(0.779572 0.184167 6.05297e-21)
(0.66057 0.151402 2.8741e-20)
(0.455466 0.105504 -1.37418e-19)
(0.223667 0.0526737 8.16849e-20)
(0.0336545 0.0082791 -9.97162e-20)
(0.251931 0.078656 1.29856e-20)
(1.14929 0.339448 -2.06902e-21)
(1.31341 0.395202 1.31262e-21)
(1.32526 0.412976 2.07537e-21)
(1.28543 0.415281 -5.00016e-22)
(1.23393 0.412501 3.43727e-22)
(1.17808 0.406381 -4.17678e-21)
(1.11834 0.395862 8.58247e-21)
(1.0553 0.379453 -1.7352e-20)
(0.989839 0.355385 0)
(0.931211 0.326359 -9.73394e-21)
(0.886335 0.298974 -3.14012e-22)
(0.852485 0.275459 -1.47635e-20)
(0.825875 0.255591 0)
(0.800479 0.237831 -1.08741e-20)
(0.755707 0.217108 -2.61729e-20)
(0.648058 0.182448 7.12273e-20)
(0.45805 0.130121 -7.06028e-20)
(0.232675 0.0671947 1.00593e-19)
(0.0374628 0.011126 -1.05884e-19)
(0.246387 0.0891274 -1.05973e-22)
(1.14487 0.39386 3.08556e-21)
(1.31359 0.458471 7.68748e-21)
(1.32362 0.475974 -1.98563e-21)
(1.28162 0.475305 -1.82271e-23)
(1.22795 0.469121 0)
(1.16954 0.459493 -3.2539e-21)
(1.10686 0.445378 -8.81708e-21)
(1.04058 0.425262 -8.84029e-21)
(0.971662 0.397352 0)
(0.910021 0.364923 -9.93464e-21)
(0.862994 0.335067 -1.27582e-20)
(0.827728 0.309894 1.60569e-20)
(0.800311 0.288979 -9.92621e-21)
(0.774951 0.270629 -4.75943e-20)
(0.732891 0.249053 2.8823e-20)
(0.633953 0.212354 8.85342e-21)
(0.455019 0.153405 0)
(0.234705 0.0801682 -9.73158e-20)
(0.0391137 0.0135348 -3.61629e-21)
(0.242211 0.0991635 2.51163e-21)
(1.1375 0.445516 -3.86167e-21)
(1.30991 0.519193 -4.37589e-21)
(1.31842 0.536699 -5.50376e-21)
(1.27473 0.533407 2.19306e-21)
(1.21932 0.52415 3.40213e-21)
(1.15879 0.51129 7.04183e-21)
(1.09362 0.493806 -1.40087e-20)
(1.02449 0.470164 5.96188e-21)
(0.95249 0.438518 -3.98476e-20)
(0.888152 0.402617 -1.15056e-20)
(0.839373 0.37012 0)
(0.803084 0.343088 1.74486e-20)
(0.77527 0.320832 2.11152e-20)
(0.750277 0.301515 2.55548e-20)
(0.710532 0.278789 -3.12969e-20)
(0.617799 0.239487 -9.35662e-21)
(0.446609 0.173532 1.10752e-20)
(0.231675 0.0904734 0)
(0.0389483 0.0152921 -7.84525e-21)
(0.239202 0.108861 -3.15502e-20)
(1.12866 0.494457 1.89004e-20)
(1.30351 0.577145 5.04991e-21)
(1.3106 0.594833 -5.00915e-21)
(1.26555 0.589213 2.39092e-21)
(1.20873 0.577197 -8.02985e-22)
(1.14642 0.561426 -7.89093e-21)
(1.07907 0.540852 -5.1223e-21)
(1.00739 0.513885 -1.5444e-20)
(0.932553 0.478621 4.29405e-23)
(0.865741 0.439236 -3.55028e-20)
(0.815365 0.403871 3.12494e-20)
(0.778346 0.374611 -1.92597e-20)
(0.750371 0.350747 2.34075e-20)
(0.725815 0.330134 0)
(0.687857 0.305862 -1.69315e-20)
(0.599456 0.263383 -2.02678e-22)
(0.433602 0.19027 -4.81928e-20)
(0.224148 0.0980079 -7.13212e-21)
(0.0374154 0.0163634 0)
(0.237222 0.118399 0)
(1.11917 0.540921 2.09326e-20)
(1.29515 0.632262 1.31231e-20)
(1.30089 0.650205 6.33109e-21)
(1.25471 0.642517 1.33854e-21)
(1.19672 0.628064 0)
(1.13289 0.609687 -2.65076e-21)
(1.06363 0.58631 -2.42436e-22)
(0.989629 0.556284 3.30164e-20)
(0.91212 0.517575 -5.32443e-21)
(0.842946 0.474681 -2.57382e-20)
(0.791089 0.436287 1.60661e-20)
(0.753385 0.404547 -4.01703e-22)
(0.725303 0.378684 2.47947e-20)
(0.701178 0.356408 1.56263e-20)
(0.664583 0.330154 -3.66636e-20)
(0.578934 0.283719 4.39475e-20)
(0.416797 0.203435 1.30891e-20)
(0.213034 0.102904 5.42749e-20)
(0.0347459 0.0167083 -1.46901e-19)
(0.23612 0.127893 -8.88555e-21)
(1.10957 0.58506 1.28708e-20)
(1.28549 0.684575 -9.50522e-21)
(1.28987 0.702758 -8.46759e-21)
(1.24271 0.693217 0)
(1.18375 0.676619 5.71046e-22)
(1.11861 0.655937 9.68486e-21)
(1.04764 0.630056 1.06635e-20)
(0.9715 0.597257 0)
(0.891432 0.55532 -7.7899e-20)
(0.819877 0.508962 6.96765e-20)
(0.766449 0.46736 0)
(0.727962 0.432865 2.25516e-20)
(0.699801 0.404713 -4.00849e-22)
(0.676054 0.38043 -4.96772e-20)
(0.640328 0.351713 1.95228e-20)
(0.556304 0.300629 0)
(0.396972 0.212964 7.06665e-20)
(0.199261 0.105397 0)
(0.0313915 0.0164498 -6.95949e-20)
(0.235716 0.137352 1.02056e-20)
(1.10019 0.627024 1.54392e-20)
(1.27494 0.734108 -9.82718e-21)
(1.27798 0.752501 0)
(1.22999 0.741308 4.12635e-21)
(1.17019 0.722823 0)
(1.10391 0.700106 -7.83606e-21)
(1.03141 0.672016 -4.18689e-21)
(0.953261 0.63675 5.43407e-21)
(0.870669 0.591837 -3.85016e-20)
(0.796555 0.542114 7.06827e-21)
(0.74138 0.497206 0)
(0.702081 0.459702 -4.80855e-20)
(0.673743 0.428942 4.12025e-22)
(0.650265 0.40234 0)
(0.614923 0.370696 4.72926e-22)
(0.531414 0.314272 6.41476e-20)
(0.374321 0.218933 -6.1318e-20)
(0.183407 0.105449 1.81743e-20)
(0.0275557 0.0156088 0)
(0.235669 0.14666 0)
(1.09119 0.666902 1.78276e-20)
(1.2639 0.780945 1.24347e-20)
(1.26557 0.799487 -4.56257e-22)
(1.21687 0.786812 3.61121e-21)
(1.15635 0.766676 1.95253e-21)
(1.08908 0.742175 3.26886e-21)
(1.01518 0.712155 -5.52715e-21)
(0.935117 0.674727 2.49904e-20)
(0.849966 0.627157 -6.10582e-20)
(0.773168 0.574227 -6.64994e-22)
(0.716043 0.525964 -2.06281e-20)
(0.675669 0.485192 7.82421e-20)
(0.647049 0.45158 -4.87743e-22)
(0.623706 0.422337 -3.87251e-20)
(0.58828 0.387228 -6.99616e-20)
(0.504354 0.324754 0)
(0.3492 0.221518 0)
(0.165851 0.103033 1.97067e-20)
(0.0234171 0.0142479 -1.16931e-20)
(0.236088 0.155925 1.34149e-20)
(1.08272 0.704561 -3.9745e-20)
(1.25259 0.825179 -1.33926e-20)
(1.25291 0.843782 0)
(1.20359 0.829778 -3.20783e-22)
(1.14246 0.808198 4.88838e-21)
(1.07432 0.782149 5.78868e-21)
(0.99916 0.750468 1.95499e-20)
(0.917262 0.711191 3.15771e-20)
(0.829563 0.661313 -4.91479e-20)
(0.74992 0.605441 -5.94602e-20)
(0.690488 0.553804 5.5107e-20)
(0.648722 0.509593 0)
(0.619635 0.472801 -1.75121e-20)
(0.596292 0.440547 -4.21434e-20)
(0.560339 0.401336 -5.04091e-20)
(0.475174 0.331895 -6.05228e-20)
(0.321849 0.220611 1.80218e-20)
(0.146823 0.0981184 -1.06277e-20)
(0.018985 0.0123638 7.26394e-23)
(0.236682 0.16494 0)
(1.07476 0.740525 0)
(1.2412 0.866888 5.40101e-22)
(1.24021 0.885473 0)
(1.19036 0.870289 -1.56148e-20)
(1.12871 0.847445 -6.01201e-21)
(1.05982 0.820055 0)
(0.983516 0.786969 1.89985e-21)
(0.899896 0.746154 5.12135e-20)
(0.80966 0.694335 -1.1288e-19)
(0.726927 0.635842 0)
(0.664797 0.580945 -3.53796e-20)
(0.62127 0.533094 -5.95798e-22)
(0.591441 0.492787 -4.87692e-22)
(0.567935 0.457018 4.50085e-20)
(0.53105 0.412941 -8.33204e-23)
(0.443965 0.335623 -1.3075e-19)
(0.29229 0.216035 3.89538e-20)
(0.126703 0.0908489 1.15713e-20)
(0.0145065 0.0100898 0)
(0.237276 0.173764 -5.15551e-20)
(1.06711 0.774756 -2.54947e-20)
(1.22983 0.906155 -3.59501e-20)
(1.22762 0.924658 4.47047e-20)
(1.17732 0.908408 -3.12814e-20)
(1.11525 0.884472 0)
(1.04572 0.855935 1.55841e-21)
(0.968396 0.821681 -4.4918e-21)
(0.883159 0.779629 7.72689e-22)
(0.790387 0.726255 8.4394e-21)
(0.704371 0.665524 7.61548e-20)
(0.639162 0.60757 -1.23119e-20)
(0.593324 0.555997 -4.82359e-20)
(0.562349 0.51172 -2.0556e-20)
(0.538471 0.471733 2.47174e-20)
(0.500359 0.421821 -5.73448e-23)
(0.411052 0.335665 3.54908e-20)
(0.26115 0.207798 -8.40914e-20)
(0.106268 0.0816085 1.00014e-19)
(0.010167 0.0075706 1.47371e-20)
(0.23761 0.182288 1.92905e-20)
(1.05978 0.807328 -1.41903e-20)
(1.21862 0.943087 1.2594e-21)
(1.21525 0.961453 2.6464e-20)
(1.16459 0.944237 8.06789e-21)
(1.10217 0.919342 1.35879e-20)
(1.03213 0.889833 -5.30288e-22)
(0.953897 0.854621 -1.77225e-20)
(0.867159 0.811612 -5.38577e-20)
(0.771887 0.75708 -6.58613e-20)
(0.682454 0.694564 0)
(0.613735 0.633865 -5.43996e-20)
(0.564995 0.578607 6.96539e-20)
(0.532215 0.529895 0)
(0.507592 0.48466 -5.29207e-20)
(0.468085 0.427533 3.21523e-20)
(0.376672 0.33153 -3.82273e-20)
(0.229526 0.195963 -4.55581e-20)
(0.0864698 0.07092 -8.08902e-20)
(0.00622391 0.00500274 -6.38823e-20)
(0.238248 0.190607 -2.1572e-20)
(1.05262 0.838224 1.51958e-20)
(1.20763 0.977753 3.54965e-20)
(1.2032 0.995939 3.72408e-20)
(1.15225 0.977861 -1.66071e-20)
(1.08957 0.952136 1.09512e-20)
(1.01912 0.921796 -1.17944e-21)
(0.940093 0.885828 -1.65951e-20)
(0.851973 0.842124 -3.11439e-20)
(0.7543 0.786821 6.74928e-20)
(0.66133 0.722997 1.65474e-19)
(0.588722 0.659993 0)
(0.536406 0.601224 0)
(0.500888 0.54775 -2.37273e-20)
(0.474756 0.495846 0)
(0.433721 0.42928 6.95588e-20)
(0.341193 0.322086 8.27951e-20)
(0.198914 0.180199 0)
(0.0687069 0.0593157 0)
(0.00292508 0.00260451 6.89892e-20)
(0.238487 0.198392 2.42256e-20)
(1.04566 0.867437 1.93139e-20)
(1.19692 1.01027 2.57244e-20)
(1.1915 1.02824 -3.43809e-20)
(1.14035 1.00938 -1.93511e-20)
(1.07749 0.982922 -1.61924e-20)
(1.00673 0.951881 2.69456e-21)
(0.927039 0.91533 7.90012e-23)
(0.837677 0.871169 -1.0015e-21)
(0.737717 0.815462 -1.19163e-21)
(0.641174 0.750846 8.48014e-20)
(0.564334 0.686023 0)
(0.50779 0.624142 7.03717e-20)
(0.468318 0.565876 5.04005e-20)
(0.439182 0.505753 1.24709e-19)
(0.395981 0.426189 3.75035e-20)
(0.304527 0.304973 -4.50441e-20)
(0.172293 0.158521 -2.64894e-20)
(0.0572173 0.046619 0)
(0.00124581 0.000650216 7.44544e-20)
(0.239041 0.206145 -5.42067e-20)
(1.03888 0.895093 0)
(1.18651 1.04069 2.95492e-20)
(1.1802 1.05844 -2.869e-20)
(1.12893 1.03887 2.31461e-20)
(1.06596 1.01178 2.59329e-20)
(0.994995 0.980142 -1.04622e-20)
(0.914765 0.943163 -1.83714e-21)
(0.824301 0.898754 0)
(0.722208 0.842964 -7.19724e-20)
(0.622141 0.778103 -1.81725e-19)
(0.54081 0.712002 7.81623e-21)
(0.479474 0.647538 9.64112e-20)
(0.434653 0.58494 0)
(0.400079 0.515478 8.42028e-20)
(0.352464 0.418371 0)
(0.263663 0.27679 0)
(0.151867 0.12125 -2.90194e-20)
(0.0723987 0.0201807 0)
(0.0240654 0.00584748 2.0015e-20)
(0.239122 0.21327 -6.00717e-20)
(1.03226 0.921452 0)
(1.17637 1.06921 4.8606e-20)
(1.16927 1.08676 0)
(1.11796 1.0666 -1.3068e-20)
(1.05492 1.03899 0)
(0.98386 1.00689 -1.31847e-21)
(0.903178 0.969661 1.90615e-21)
(0.811731 0.925246 3.76017e-21)
(0.707625 0.869716 -7.74246e-20)
(0.604103 0.805212 5.26573e-21)
(0.517996 0.738505 6.34142e-20)
(0.451257 0.67198 9.38314e-20)
(0.399454 0.605901 1.2917e-20)
(0.356086 0.527079 6.60005e-20)
(0.299322 0.408396 0)
(0.207729 0.239058 9.65463e-20)
(0.10947 0.0612393 -5.70022e-20)
(0.0369822 0.0594624 6.61726e-20)
(-0.0366116 0.436906 -7.8528e-20)
(0.239115 0.220165 4.94942e-20)
(1.0256 0.946387 7.58394e-20)
(1.16645 1.09616 0)
(1.15857 1.11363 1.08583e-21)
(1.10728 1.09313 3.65041e-20)
(1.04413 1.06523 -5.53209e-20)
(0.973027 1.0329 -6.69699e-21)
(0.891898 0.995765 0)
(0.799474 0.951745 2.23833e-20)
(0.693341 0.897029 -3.7511e-21)
(0.586213 0.833666 0)
(0.494797 0.767332 0)
(0.421842 0.699295 8.32012e-20)
(0.361369 0.630492 -4.00219e-20)
(0.304953 0.544043 -6.63383e-20)
(0.232901 0.402304 0)
(0.116192 0.223012 4.93502e-20)
(0.0146203 0.454887 -5.76821e-20)
(0.0382972 1.88202 -3.20608e-20)
(0.0663039 2.8007 -3.92703e-20)
(0.238777 0.226456 -3.68936e-20)
(1.01896 0.970077 -9.68884e-20)
(1.15675 1.12153 2.86412e-20)
(1.14814 1.13892 2.59635e-20)
(1.09694 1.11826 0)
(1.03367 1.09023 -4.10102e-20)
(0.962685 1.05788 -1.3602e-20)
(0.881096 1.02104 -6.14211e-22)
(0.787786 0.977728 3.36922e-21)
(0.679714 0.924281 7.10172e-20)
(0.569073 0.862743 8.84205e-20)
(0.472202 0.798074 6.87533e-20)
(0.392392 0.729026 8.27711e-20)
(0.322609 0.657248 -9.25756e-20)
(0.253506 0.568685 -9.9186e-20)
(0.153293 0.434299 0)
(0.0556864 0.855505 0)
(0.103508 2.54982 2.6759e-20)
(0.106612 3.19215 0)
(0.107114 3.38213 6.91235e-20)
(0.241187 0.232284 0)
(1.01258 0.992826 0)
(1.14699 1.14519 0)
(1.13774 1.16243 7.48267e-21)
(1.08668 1.14178 3.32342e-20)
(1.02332 1.11384 -3.29469e-20)
(0.95276 1.08172 -1.05565e-20)
(0.870705 1.04537 -4.17411e-22)
(0.776603 1.00303 2.41337e-20)
(0.666733 0.951304 -2.08697e-21)
(0.552755 0.892214 1.70347e-19)
(0.450623 0.830679 -7.95227e-21)
(0.363305 0.761609 9.77463e-21)
(0.285169 0.683537 1.32997e-20)
(0.197317 0.599352 1.72782e-22)
(0.116317 0.996422 3.26241e-22)
(0.146317 2.70727 -1.36842e-19)
(0.155664 3.29066 -5.21365e-20)
(0.142506 3.42433 2.70279e-20)
(0.128146 3.44589 -2.99196e-20)
(0.163078 0.176932 2.22481e-20)
(1.00166 1.01745 0)
(1.13714 1.16737 -5.76455e-20)
(1.1278 1.18449 -6.89723e-20)
(1.07694 1.16418 7.19325e-20)
(1.01372 1.13649 3.5516e-20)
(0.943041 1.10445 1.34427e-20)
(0.860756 1.06878 -2.99352e-21)
(0.766054 1.02763 -1.78124e-20)
(0.654697 0.978066 0)
(0.537659 0.921935 8.12315e-20)
(0.430608 0.86478 -5.44421e-20)
(0.33526 0.799827 0)
(0.249903 0.714825 1.24435e-20)
(0.164123 0.861923 3.02644e-20)
(0.161005 2.48151 -3.55425e-20)
(0.218786 3.32631 4.07358e-20)
(0.197132 3.44132 2.14988e-20)
(0.162911 3.46098 2.49286e-20)
(0.14064 3.46976 3.78538e-20)
(0.275823 0.270178 -4.32873e-20)
(0.98427 1.02713 0)
(1.11926 1.19254 6.09782e-20)
(1.11404 1.21743 7.40327e-20)
(1.06143 1.19751 -7.68666e-20)
(0.99787 1.17035 -4.072e-20)
(0.926277 1.13965 -2.48477e-20)
(0.843453 1.10523 -1.57018e-22)
(0.747546 1.0663 1.27782e-20)
(0.633689 1.0208 5.3096e-20)
(0.511894 0.970891 4.23934e-21)
(0.397482 0.922163 4.60924e-20)
(0.285349 0.870366 8.72154e-21)
(0.222809 1.01948 -1.15313e-20)
(0.232028 2.34329 -2.68415e-20)
(0.287373 3.3346 2.52117e-20)
(0.272205 3.47494 -2.68839e-20)
(0.235323 3.49347 -1.57148e-20)
(0.198521 3.51752 -1.18536e-20)
(0.14988 3.51027 -1.87981e-21)
(0.265685 0.268849 0)
(0.981437 1.04955 1.67563e-20)
(1.11119 1.21568 -1.22664e-20)
(1.10419 1.24037 -8.45257e-21)
(1.05156 1.22042 -5.13865e-20)
(0.988153 1.1935 4.02619e-20)
(0.916312 1.16304 1.77502e-20)
(0.833431 1.12947 -3.94895e-22)
(0.737238 1.09205 -1.08607e-20)
(0.622494 1.04947 -2.99085e-21)
(0.498551 1.00432 -1.35859e-19)
(0.380728 0.961504 6.54292e-21)
(0.274835 0.943668 -8.02095e-21)
(0.26028 1.5273 -1.02098e-20)
(0.325635 3.10983 3.68992e-21)
(0.345332 3.47794 4.98574e-22)
(0.301315 3.531 3.0996e-20)
(0.26458 3.55053 1.32556e-20)
(0.216068 3.57048 5.99984e-22)
(0.161754 3.5649 -5.98833e-21)
(0.251215 0.26636 4.21541e-20)
(0.977591 1.07443 1.13006e-19)
(1.10267 1.24079 -3.50752e-20)
(1.09397 1.26486 -3.20529e-20)
(1.04136 1.24476 0)
(0.978103 1.21785 6.20332e-20)
(0.906273 1.18765 2.88231e-20)
(0.8236 1.15487 -6.52262e-22)
(0.727441 1.11902 -1.30163e-21)
(0.612343 1.07952 -3.98562e-20)
(0.487083 1.03959 -5.86507e-20)
(0.368195 1.00412 -5.12443e-20)
(0.281806 1.07976 -5.74813e-20)
(0.325632 2.21677 6.02304e-20)
(0.408891 3.3944 4.69479e-20)
(0.386956 3.54195 0)
(0.334324 3.57827 0)
(0.2958 3.61272 1.49623e-21)
(0.243944 3.66191 0)
(0.17163 3.63949 6.56214e-21)
(0.240777 0.267707 -6.21749e-20)
(0.971699 1.10007 -9.47811e-20)
(1.09278 1.26709 0)
(1.08261 1.29023 1.28852e-21)
(1.03004 1.26974 -5.18425e-20)
(0.967052 1.24272 9.43957e-20)
(0.895555 1.21278 2.04009e-20)
(0.813324 1.18068 -1.56545e-21)
(0.717465 1.14634 -1.37288e-21)
(0.602443 1.10987 1.5256e-21)
(0.476625 1.07538 0)
(0.359459 1.05072 0)
(0.312056 1.32893 -4.90811e-20)
(0.40557 2.88857 1.91828e-20)
(0.479986 3.50695 2.02099e-20)
(0.426985 3.5809 0)
(0.382711 3.63477 1.32636e-20)
(0.335134 3.68669 -2.55583e-20)
(0.283525 3.65579 -2.96323e-20)