/*--------------------------------*- C++ -*----------------------------------*\
  =========                 |
  \\      /  F ield         | OpenFOAM: The Open Source CFD Toolbox
   \\    /   O peration     | Website:  https://openfoam.org
    \\  /    A nd           | Version:  6
     \\/     M anipulation  |
\*---------------------------------------------------------------------------*/
FoamFile
{
    version     2.0;
    format      ascii;
    class       volScalarField;
    location    "14";
    object      p;
}
// * * * * * * * * * * * * * * * * * * * * * * * * * * * * * * * * * * * * * //

dimensions      [0 2 -2 0 0 0 0];

internalField   nonuniform List<scalar> 
8800
(
0.430565
0.381272
0.343342
0.315312
0.295188
0.280639
0.270076
0.262566
0.257693
0.255539
0.256581
0.260531
0.266985
0.27614
0.288667
0.305839
0.329602
0.362612
0.405489
0.457979
0.265006
0.271367
0.280546
0.284152
0.281617
0.275603
0.268729
0.262576
0.257811
0.254885
0.254429
0.256689
0.260954
0.266729
0.273546
0.28037
0.285073
0.284812
0.278049
0.2691
0.238341
0.244632
0.249256
0.25327
0.256397
0.257553
0.256646
0.254569
0.252445
0.251342
0.252099
0.254297
0.256862
0.258747
0.258859
0.256742
0.25311
0.248896
0.243964
0.240226
0.233912
0.236737
0.239517
0.241895
0.243836
0.245591
0.246769
0.247114
0.246919
0.246749
0.247245
0.248021
0.248395
0.247911
0.246574
0.244847
0.242838
0.240232
0.237641
0.236063
0.228714
0.23016
0.232213
0.23453
0.236424
0.237786
0.238943
0.240027
0.240904
0.241527
0.241775
0.241622
0.241085
0.240273
0.239298
0.237851
0.23582
0.233575
0.232019
0.231245
0.223879
0.224811
0.226412
0.228532
0.230691
0.23262
0.234133
0.235259
0.236142
0.236841
0.237181
0.237105
0.236651
0.235742
0.234275
0.232394
0.230356
0.228492
0.227392
0.226913
0.2195
0.220083
0.221543
0.223518
0.225507
0.22751
0.229445
0.231074
0.232292
0.233121
0.233558
0.233425
0.232655
0.231325
0.229662
0.227919
0.226066
0.224346
0.223447
0.223199
0.216772
0.217073
0.218145
0.21969
0.221237
0.222666
0.22402
0.225417
0.226762
0.227864
0.228353
0.228219
0.227667
0.226897
0.225931
0.224698
0.223319
0.222036
0.221451
0.221353
0.215221
0.215396
0.216004
0.216994
0.21815
0.219472
0.220927
0.222328
0.223629
0.224762
0.225471
0.225599
0.225248
0.224523
0.22367
0.222814
0.221973
0.221289
0.220989
0.220929
0.213207
0.213322
0.213632
0.214126
0.214857
0.215839
0.216847
0.218112
0.219496
0.220821
0.221739
0.222094
0.222071
0.221902
0.221423
0.221083
0.220794
0.220552
0.220412
0.220363
0.210248
0.210329
0.210588
0.211028
0.211586
0.212337
0.213405
0.214651
0.216056
0.217542
0.21876
0.219466
0.219748
0.219747
0.219728
0.219616
0.219484
0.219339
0.219257
0.219224
0.206701
0.206747
0.206986
0.207457
0.208078
0.208748
0.209828
0.21115
0.212728
0.214494
0.216055
0.217094
0.217684
0.217999
0.218194
0.218208
0.218116
0.218017
0.217984
0.217968
0.20286
0.202885
0.203089
0.203535
0.204123
0.205101
0.206133
0.207525
0.209292
0.211395
0.213402
0.214888
0.215866
0.216465
0.216802
0.216993
0.217013
0.216997
0.217007
0.216999
0.198733
0.198763
0.19896
0.199395
0.20006
0.200973
0.202196
0.203826
0.205927
0.208501
0.21106
0.213034
0.214414
0.215335
0.215876
0.216195
0.216345
0.216424
0.216466
0.216458
0.194124
0.194154
0.194358
0.194798
0.195499
0.196513
0.197931
0.199864
0.202411
0.205601
0.208843
0.211406
0.213235
0.214487
0.215307
0.215819
0.216121
0.216292
0.216362
0.216352
0.188836
0.188867
0.18911
0.189593
0.190393
0.191581
0.193278
0.19563
0.198772
0.202752
0.206836
0.21009
0.21247
0.21412
0.215227
0.215945
0.216392
0.216646
0.216742
0.216731
0.182697
0.182734
0.183021
0.183618
0.184578
0.18602
0.1881
0.191013
0.194929
0.199915
0.205057
0.2092
0.212218
0.214319
0.215745
0.216684
0.217278
0.217614
0.217738
0.217724
0.175484
0.17553
0.175888
0.176639
0.177852
0.179638
0.182244
0.185904
0.190824
0.197089
0.203554
0.208757
0.212537
0.215187
0.216992
0.218185
0.218941
0.219367
0.219523
0.219505
0.166918
0.166978
0.167442
0.168393
0.169932
0.17222
0.175541
0.180173
0.186381
0.194264
0.202365
0.208858
0.213571
0.216879
0.219137
0.220633
0.221583
0.222119
0.222308
0.222283
0.156625
0.15671
0.157309
0.158538
0.16053
0.163494
0.167741
0.173648
0.181527
0.191452
0.201571
0.209637
0.215478
0.219576
0.222377
0.224237
0.225413
0.226073
0.226313
0.22628
0.144054
0.144172
0.144961
0.146585
0.149203
0.153058
0.158571
0.166185
0.176218
0.188697
0.201284
0.211247
0.218442
0.22349
0.226949
0.229258
0.230725
0.231539
0.231827
0.231784
0.128409
0.128569
0.129635
0.131845
0.13536
0.140493
0.147762
0.157639
0.170429
0.186078
0.201643
0.213863
0.222671
0.228861
0.233116
0.23597
0.237793
0.238794
0.239147
0.239093
0.108502
0.108725
0.110231
0.113344
0.118206
0.125204
0.134918
0.147828
0.164164
0.183704
0.202799
0.217661
0.228371
0.235931
0.241162
0.244699
0.246979
0.248236
0.248663
0.248591
0.0825365
0.0828884
0.085136
0.0897049
0.0966857
0.106481
0.119695
0.136703
0.157531
0.181737
0.204915
0.2228
0.235714
0.244909
0.25135
0.255768
0.258649
0.260247
0.260783
0.260685
0.0473361
0.0479825
0.05173
0.0590433
0.0696392
0.0838318
0.102076
0.124476
0.150808
0.180428
0.208172
0.22941
0.244807
0.255915
0.263853
0.269435
0.273158
0.275238
0.275917
0.275781
-0.00326211
-0.00136258
0.00630726
0.0193171
0.0362607
0.0572635
0.0824328
0.111625
0.144423
0.180069
0.212725
0.237536
0.255628
0.268896
0.27864
0.285744
0.290699
0.293605
0.294551
0.29436
-0.0785384
-0.0687954
-0.0514483
-0.0283674
-0.00190641
0.0280785
0.0616736
0.0986829
0.13867
0.180916
0.218963
0.2478
0.269062
0.285018
0.297172
0.306587
0.313595
0.318137
0.319907
0.32
-0.157837
-0.137848
-0.109909
-0.0764242
-0.0402257
-0.0011815
0.0408778
0.0858568
0.133426
0.183008
0.227488
0.261436
0.286872
0.306435
0.321841
0.334175
0.344117
0.351546
0.354713
0.355009
-0.222714
-0.199012
-0.163029
-0.121133
-0.076406
-0.0289359
0.0211997
0.0738352
0.128687
0.185202
0.235554
0.273927
0.302775
0.325095
0.342792
0.357056
0.368463
0.376913
0.380139
0.380614
-0.274309
-0.24835
-0.207511
-0.159813
-0.108588
-0.0542797
0.00279874
0.0623306
0.123842
0.186689
0.242235
0.28424
0.315554
0.339561
0.358361
0.373358
0.385249
0.393844
0.397486
0.397998
-0.31624
-0.289308
-0.245138
-0.192998
-0.136696
-0.0768954
-0.0140371
0.0514345
0.118835
0.187331
0.247361
0.292284
0.325382
0.350427
0.369797
0.385051
0.397016
0.405549
0.409329
0.409876
-0.351863
-0.324431
-0.27784
-0.22214
-0.161697
-0.0973489
-0.0295416
0.0410979
0.113755
0.187334
0.251466
0.299022
0.333643
0.359498
0.379211
0.394494
0.406329
0.414708
0.418558
0.419112
-0.383248
-0.355569
-0.307114
-0.248517
-0.184567
-0.116242
-0.0440801
0.0311795
0.108644
0.187005
0.25498
0.304941
0.34092
0.367453
0.387426
0.40273
0.414476
0.42271
0.426554
0.427124
-0.411819
-0.38396
-0.333959
-0.272879
-0.205939
-0.134168
-0.0581498
0.0213354
0.103237
0.18606
0.257728
0.310122
0.34752
0.37481
0.395127
0.410525
0.422235
0.430331
0.434137
0.434717
-0.43842
-0.410365
-0.359073
-0.295872
-0.226351
-0.151559
-0.0720997
0.0111954
0.0972257
0.184419
0.259888
0.314865
0.353825
0.381996
0.402751
0.418317
0.430032
0.438036
0.44176
0.442377
-0.463732
-0.435424
-0.382953
-0.317872
-0.246076
-0.168617
-0.0861035
0.000670892
0.0906291
0.18211
0.261463
0.319218
0.359962
0.389195
0.410531
0.426368
0.438157
0.446087
0.44971
0.450319
-0.488036
-0.459451
-0.405944
-0.339196
-0.265392
-0.185559
-0.100269
-0.0102809
0.083338
0.178976
0.26235
0.323165
0.365987
0.396525
0.418617
0.434844
0.44678
0.454678
0.458166
0.458731
-0.511642
-0.482684
-0.428242
-0.360006
-0.284421
-0.202471
-0.1147
-0.0218145
0.0752204
0.174929
0.262451
0.326635
0.371869
0.404007
0.427072
0.443832
0.456004
0.463916
0.467267
0.467738
-0.534578
-0.505251
-0.449946
-0.380386
-0.303235
-0.219431
-0.12946
-0.0339542
0.0662552
0.169878
0.26163
0.329476
0.37749
0.411576
0.435893
0.453384
0.46591
0.473884
0.477108
0.477428
-0.556909
-0.527196
-0.471107
-0.400383
-0.321863
-0.236431
-0.144513
-0.0466658
0.0564232
0.163749
0.259732
0.331497
0.382691
0.419129
0.445023
0.463472
0.47648
0.484552
0.48765
0.48781
-0.578683
-0.548571
-0.49173
-0.419982
-0.34027
-0.253414
-0.159811
-0.059919
0.0457481
0.156504
0.256628
0.332498
0.387301
0.426554
0.454396
0.474039
0.487652
0.49583
0.498785
0.498788
-0.599923
-0.569353
-0.511796
-0.43915
-0.358405
-0.270343
-0.175298
-0.0736517
0.034271
0.148112
0.252193
0.33223
0.390978
0.433587
0.463886
0.485044
0.499372
0.507624
0.510325
0.510169
-0.620468
-0.589484
-0.531271
-0.457852
-0.376222
-0.287138
-0.190891
-0.0877635
0.0220697
0.138629
0.246342
0.330482
0.393356
0.439857
0.473315
0.496465
0.511579
0.519747
0.522088
0.521754
-0.64028
-0.608919
-0.550111
-0.476021
-0.393647
-0.303717
-0.206486
-0.102159
0.00924669
0.128099
0.239049
0.327078
0.394118
0.444921
0.482397
0.508412
0.5245
0.532096
0.533709
0.53318
-0.659407
-0.62762
-0.568286
-0.493618
-0.410613
-0.319999
-0.221988
-0.116726
-0.00408192
0.116617
0.230312
0.321888
0.392922
0.448166
0.490515
0.520889
0.538906
0.545138
0.544815
0.543998
-0.677708
-0.64557
-0.585746
-0.510582
-0.427065
-0.335901
-0.237299
-0.13134
-0.0177799
0.104323
0.220182
0.314844
0.389472
0.448866
0.496578
0.533197
0.555906
0.561755
0.55684
0.552871
-0.695265
-0.662775
-0.602505
-0.526942
-0.443032
-0.35147
-0.25247
-0.146069
-0.0319093
0.091146
0.208557
0.305718
0.383503
0.446212
0.49897
0.543288
0.574442
0.586219
0.577623
0.569387
-0.712023
-0.679304
-0.6187
-0.54287
-0.45879
-0.367029
-0.2679
-0.161394
-0.0470348
0.0763997
0.194691
0.293578
0.374217
0.438904
0.494472
0.545707
0.584367
0.597287
0.588557
0.572198
-0.727886
-0.695142
-0.634182
-0.558172
-0.474132
-0.382293
-0.283373
-0.176983
-0.0628144
0.0604235
0.178833
0.278257
0.361342
0.426673
0.47883
0.529815
0.565885
0.565335
0.505035
0.469139
-0.742764
-0.710913
-0.648502
-0.572361
-0.488495
-0.396822
-0.29865
-0.192582
-0.0789831
0.0434405
0.161096
0.259663
0.344287
0.410745
0.451727
0.485819
0.504794
0.467357
0.399664
0.355817
-0.78316
-0.725487
-0.661644
-0.586196
-0.502554
-0.411426
-0.313625
-0.208286
-0.0957064
0.0252325
0.141192
0.237712
0.320824
0.392418
0.410023
0.414386
0.393571
0.33697
0.260974
0.219474
-0.755007
-0.737517
-0.681098
-0.607047
-0.523401
-0.43304
-0.336448
-0.232535
-0.122029
-0.00416118
0.107454
0.199628
0.274024
0.340059
0.344683
0.236491
0.138269
0.0725578
0.00128308
0.0427941
-0.783208
-0.753011
-0.696087
-0.621991
-0.538984
-0.449315
-0.353017
-0.250279
-0.141574
-0.026343
0.0810213
0.168675
0.234457
0.268267
0.217864
0.0665199
-0.0599461
-0.144823
-0.242081
-0.172843
-0.804179
-0.771722
-0.713241
-0.639023
-0.556414
-0.467126
-0.371366
-0.269963
-0.163288
-0.0511473
0.0511404
0.132452
0.186955
0.187277
0.0677311
-0.125977
-0.283006
-0.394029
-0.518949
-0.45945
-0.823934
-0.790597
-0.731042
-0.656465
-0.573982
-0.485084
-0.390198
-0.290274
-0.185736
-0.0772275
0.019244
0.0929725
0.133278
0.0911422
-0.0985538
-0.329713
-0.535506
-0.709816
-0.87326
-0.817139
-0.842848
-0.809405
-0.749311
-0.674452
-0.592063
-0.503637
-0.409767
-0.311386
-0.209252
-0.104948
-0.0147216
0.050627
0.0709729
-0.0163757
-0.265907
-0.533007
-0.790215
-1.0091
-1.28931
-1.38629
-0.861598
-0.828517
-0.768273
-0.693291
-0.611011
-0.523038
-0.430149
-0.333268
-0.23376
-0.133814
-0.0497592
0.0061774
0.00602805
-0.142183
-0.421905
-0.714102
-0.996128
-1.23218
-1.42349
-1.65896
-0.880886
-0.848249
-0.78813
-0.713228
-0.631179
-0.543773
-0.451955
-0.356751
-0.260295
-0.164843
-0.0875785
-0.0426435
-0.0722855
-0.282082
-0.568951
-0.86568
-1.12915
-1.28754
-1.33077
-1.35287
-0.900942
-0.868742
-0.808887
-0.734227
-0.652574
-0.565894
-0.475348
-0.382208
-0.289134
-0.198566
-0.129149
-0.0965945
-0.16248
-0.417396
-0.707019
-0.983327
-1.1971
-1.27211
-1.28849
-1.28916
-0.921973
-0.890031
-0.830471
-0.756139
-0.675019
-0.58925
-0.500195
-0.409508
-0.319976
-0.235334
-0.174203
-0.15839
-0.257329
-0.548451
-0.83335
-1.0821
-1.24126
-1.26039
-1.26387
-1.26319
-0.94368
-0.912031
-0.852761
-0.778813
-0.698343
-0.613668
-0.526293
-0.438357
-0.352757
-0.275097
-0.221607
-0.226457
-0.359734
-0.671787
-0.952275
-1.16531
-1.24185
-1.2543
-1.25416
-1.25358
-0.965794
-0.934405
-0.875495
-0.802002
-0.722257
-0.638885
-0.553341
-0.468417
-0.387492
-0.316945
-0.270945
-0.295959
-0.478482
-0.783883
-1.07045
-1.22778
-1.25458
-1.25849
-1.2595
-1.25827
-0.987547
-0.956694
-0.898271
-0.825287
-0.746388
-0.664409
-0.58099
-0.499244
-0.423391
-0.359883
-0.321065
-0.371367
-0.613545
-0.888691
-1.17116
-1.31026
-1.30513
-1.29585
-1.28885
-1.28654
-1.00845
-0.978287
-0.920494
-0.848067
-0.770169
-0.68958
-0.60878
-0.530162
-0.458843
-0.403843
-0.371316
-0.448738
-0.764719
-1.02257
-1.21723
-1.35913
-1.36258
-1.38705
-1.39623
-1.39342
-1.02784
-0.998413
-0.941385
-0.869602
-0.79271
-0.713806
-0.635597
-0.560127
-0.49292
-0.446764
-0.419942
-0.524745
-0.918839
-1.23119
-1.23014
-1.14944
-1.35376
-1.62566
-1.71516
-1.69751
-1.04442
-1.01603
-0.95995
-0.888877
-0.812999
-0.736086
-0.660058
-0.588388
-0.52579
-0.48392
-0.469287
-0.582404
-1.06549
-1.55485
-1.65651
-1.68257
-1.83381
-1.99291
-1.9951
-1.9924
-1.05696
-1.02993
-0.975016
-0.904584
-0.829909
-0.754797
-0.6814
-0.613778
-0.555138
-0.513077
-0.517616
-0.621527
-1.20542
-2.06209
-2.76722
-3.1488
-3.24489
-2.94385
-2.56618
-2.46159
-1.06389
-1.03842
-0.984977
-0.915237
-0.841799
-0.7685
-0.698245
-0.634067
-0.578205
-0.535454
-0.54667
-0.661597
-1.27323
-2.31053
-3.4014
-3.85474
-3.99314
-3.82391
-3.46239
-3.20748
-1.06377
-1.04006
-0.987946
-0.91902
-0.846838
-0.775909
-0.708953
-0.648023
-0.5948
-0.545536
-0.552435
-0.597038
-1.15463
-1.86746
-2.95092
-3.59699
-3.5692
-3.21069
-2.84958
-2.62159
-1.05384
-1.03219
-0.981731
-0.913894
-0.84335
-0.775207
-0.711877
-0.655882
-0.604272
-0.548121
-0.508316
-0.496114
-0.627388
-0.94097
-1.11074
-1.06018
-0.76646
-0.371452
-0.0910417
0.0280881
-1.03176
-1.01208
-0.963814
-0.897791
-0.829672
-0.76505
-0.707117
-0.658127
-0.61437
-0.54511
-0.455351
-0.383342
-0.128403
0.248437
0.783226
1.38997
1.9246
2.24901
2.39908
2.44269
-0.995694
-0.978044
-0.932317
-0.869333
-0.804825
-0.745198
-0.694887
-0.659571
-0.635569
-0.565384
-0.452367
-0.29855
0.0539704
0.603032
1.3342
2.01157
2.47182
2.74447
2.85394
2.88017
-0.94326
-0.927755
-0.885987
-0.828108
-0.769001
-0.71625
-0.676462
-0.660741
-0.678614
-0.691898
-0.666677
-0.432716
0.00904276
0.489956
1.1097
1.65062
2.02019
2.24368
2.34123
2.36973
-0.874586
-0.861047
-0.825415
-0.774853
-0.723389
-0.67936
-0.653193
-0.667727
-0.770748
-1.02485
-1.26872
-0.908632
-0.280168
0.167519
0.727158
1.15821
1.47654
1.66123
1.74583
1.76925
-0.792234
-0.780944
-0.752225
-0.710761
-0.668291
-0.633411
-0.6205
-0.666264
-0.882106
-1.48701
-2.1264
-1.62656
-0.814427
-0.216975
0.317977
0.725267
0.98734
1.12634
1.18865
1.19709
-0.698919
-0.690776
-0.667876
-0.634715
-0.600414
-0.572247
-0.564285
-0.614755
-0.84274
-1.49534
-2.10832
-1.70761
-0.999367
-0.379391
0.0825049
0.383756
0.556782
0.6479
0.694359
0.706889
-0.585054
-0.580828
-0.5654
-0.541407
-0.51466
-0.490773
-0.479473
-0.506688
-0.646474
-1.03283
-1.33993
-1.04583
-0.559526
-0.146991
0.126946
0.280289
0.364785
0.41516
0.441786
0.448271
-0.468802
-0.466872
-0.455931
-0.438092
-0.4175
-0.396477
-0.380081
-0.38121
-0.432076
-0.580258
-0.671261
-0.459772
-0.177361
0.0321311
0.157723
0.227797
0.266056
0.287721
0.297721
0.299681
-0.359296
-0.358049
-0.350141
-0.336554
-0.320203
-0.301444
-0.281826
-0.265235
-0.259924
-0.267828
-0.226338
-0.101241
0.0305345
0.125727
0.175636
0.20371
0.218363
0.225957
0.228954
0.228835
-0.257602
-0.257159
-0.251981
-0.24251
-0.230144
-0.214381
-0.194844
-0.171193
-0.143191
-0.104596
-0.0372287
0.0516872
0.114095
0.158428
0.180402
0.19118
0.195303
0.196147
0.195727
0.194867
-0.167544
-0.167776
-0.16554
-0.160352
-0.152244
-0.140385
-0.123495
-0.100064
-0.0677629
-0.0210827
0.0407638
0.101153
0.138641
0.16229
0.173631
0.17774
0.177717
0.176227
0.174943
0.174037
-0.0935927
-0.0941997
-0.0944332
-0.0932461
-0.0893388
-0.0815577
-0.0685822
-0.0487953
-0.0196879
0.0217382
0.0709066
0.112691
0.138453
0.153151
0.159821
0.161381
0.160306
0.158547
0.157284
0.156508
-0.0388544
-0.0396029
-0.0410778
-0.0421394
-0.0411847
-0.0369712
-0.0280554
-0.012901
0.0103703
0.043412
0.080456
0.110078
0.128598
0.13864
0.142975
0.14375
0.142598
0.141015
0.139977
0.139369
-0.00146205
-0.00215683
-0.00399811
-0.00595599
-0.00648322
-0.00456531
0.00104771
0.0118251
0.0292491
0.054353
0.0817793
0.103009
0.116268
0.12344
0.126422
0.126685
0.125553
0.124183
0.123333
0.122868
0.0223483
0.0218003
0.0201149
0.0180471
0.0169289
0.0176868
0.0212093
0.0286365
0.0411579
0.0594777
0.0794394
0.0947544
0.104306
0.109281
0.111133
0.111086
0.110018
0.108797
0.108089
0.107739
0.0364789
0.0360852
0.0347613
0.0329796
0.0317329
0.0317703
0.0339237
0.0390551
0.0479968
0.0612067
0.0755389
0.0863679
0.0929965
0.0964182
0.0976197
0.0973757
0.0963703
0.0952978
0.0947117
0.094451
0.0441746
0.0439014
0.042957
0.041597
0.0405427
0.0403002
0.0414696
0.0447884
0.0509886
0.0603616
0.070566
0.0782801
0.0830039
0.085334
0.0859871
0.0856141
0.0847075
0.0837864
0.0833071
0.083114
0.0478769
0.0476813
0.0470224
0.0460187
0.0451816
0.0448959
0.0456052
0.0477946
0.0520056
0.0585532
0.0657653
0.0711458
0.0743191
0.075785
0.0760889
0.0756588
0.0748523
0.074077
0.0736927
0.0735496
0.0490739
0.0489247
0.0484309
0.0476509
0.0469534
0.0466077
0.0469452
0.0483593
0.0512278
0.0557368
0.0607018
0.064388
0.0665379
0.0674765
0.0675673
0.067141
0.0664625
0.06584
0.0655418
0.0654345
0.0485475
0.0484307
0.0480404
0.0474114
0.0468226
0.0464697
0.0465763
0.0474142
0.0492806
0.0523491
0.055774
0.0582864
0.0596912
0.0602283
0.0601805
0.0597806
0.0592184
0.0587239
0.0584922
0.0584105
0.0467671
0.0466762
0.0463614
0.0458414
0.0453336
0.0449828
0.0449522
0.0454358
0.0466333
0.0486628
0.0509459
0.0525956
0.0534779
0.0537606
0.0536395
0.05328
0.0528195
0.0524272
0.0522463
0.0521835
0.0440586
0.0439883
0.043737
0.0433084
0.0428726
0.0425365
0.0424135
0.0426415
0.043369
0.0446832
0.0461828
0.0472465
0.0477762
0.0478904
0.0477302
0.0474125
0.0470347
0.0467223
0.0465809
0.0465329
0.040683
0.0406283
0.0404328
0.0400895
0.0397277
0.0394258
0.0392638
0.039338
0.0397518
0.0405689
0.0415184
0.0421694
0.0424571
0.0424649
0.0422891
0.0420116
0.0417012
0.041452
0.0413414
0.0413047
0.036855
0.0368119
0.0366612
0.036392
0.0360985
0.035837
0.0356624
0.035643
0.035852
0.0363347
0.0369093
0.0372838
0.0374165
0.0373621
0.0371873
0.0369495
0.036697
0.0364997
0.0364133
0.036385
0.0327351
0.0327009
0.0325851
0.0323771
0.0321437
0.0319243
0.0317562
0.0316865
0.0317666
0.0320287
0.0323543
0.0325477
0.0325824
0.0324945
0.0323307
0.0321303
0.0319271
0.0317718
0.0317041
0.0316822
0.0284321
0.028405
0.028316
0.0281557
0.0279715
0.0277908
0.0276383
0.0275463
0.0275498
0.0276718
0.0278367
0.0279163
0.0278939
0.0277929
0.0276461
0.0274799
0.0273178
0.0271961
0.0271431
0.0271262
0.0240144
0.0239933
0.0239248
0.023801
0.0236561
0.0235092
0.0233766
0.0232798
0.0232429
0.023281
0.0233472
0.0233599
0.0233083
0.023208
0.0230812
0.0229456
0.022817
0.0227219
0.0226807
0.0226678
0.0195228
0.0195066
0.0194539
0.0193585
0.0192456
0.0191286
0.019018
0.0189281
0.0188747
0.0188681
0.0188793
0.0188577
0.018796
0.0187051
0.0185997
0.018491
0.0183899
0.0183159
0.0182842
0.0182745
0.0149809
0.0149686
0.0149286
0.0148564
0.0147707
0.0146809
0.0145938
0.0145184
0.0144651
0.0144402
0.0144261
0.0143921
0.0143342
0.0142588
0.0141753
0.0140911
0.0140134
0.0139568
0.0139328
0.0139256
0.0104038
0.010395
0.0103658
0.0103136
0.0102522
0.0101882
0.0101258
0.0100702
0.0100277
0.0100023
0.00998277
0.00995158
0.00990646
0.00985098
0.00979058
0.00972975
0.0096733
0.0096318
0.0096143
0.0096092
0.00579773
0.00579183
0.00577328
0.00574089
0.00570423
0.00566724
0.00563151
0.00559952
0.00557418
0.00555863
0.00554599
0.00552664
0.00549976
0.00546746
0.0054325
0.00539666
0.00536214
0.00533601
0.0053247
0.00532105
0.00117099
0.00117131
0.00117304
0.00116732
0.00115796
0.00114858
0.0011395
0.00113087
0.00112288
0.00111536
0.00110922
0.00110319
0.00109611
0.00108816
0.00107965
0.00107068
0.00106147
0.00105334
0.00105151
0.00105313
-0.649128
-0.402264
-0.169862
0.0191754
0.175408
0.303548
0.414146
0.505363
0.535765
0.531614
-0.260161
-0.100414
0.0472552
0.176148
0.286671
0.380049
0.455228
0.507669
0.536236
0.552071
0.00125009
0.104145
0.206388
0.297231
0.375721
0.441486
0.493611
0.532785
0.560583
0.579745
0.183559
0.255844
0.329062
0.394911
0.452025
0.500401
0.540364
0.572812
0.596907
0.61601
0.324375
0.377128
0.431109
0.480613
0.524325
0.562431
0.595219
0.622533
0.642772
0.66112
0.439683
0.480847
0.52224
0.561731
0.597681
0.629871
0.657942
0.681213
0.698561
0.71626
0.537765
0.573762
0.609603
0.644196
0.676247
0.705177
0.730369
0.750886
0.765894
0.783133
0.630602
0.665482
0.700417
0.733806
0.764505
0.791965
0.815435
0.83401
0.847168
0.863894
0.7288
0.766593
0.802923
0.836846
0.867256
0.893646
0.915666
0.932649
0.944718
0.96101
0.844264
0.885896
0.923826
0.957585
0.986822
1.01146
1.03162
1.04737
1.05959
1.07576
0.98741
1.02885
1.0646
1.09463
1.1203
1.14235
1.16126
1.17703
1.19032
1.20634
1.15973
1.192
1.21935
1.24206
1.26248
1.28147
1.29939
1.31635
1.33141
1.34717
1.34633
1.36374
1.3811
1.398
1.41426
1.42917
1.44321
1.45777
1.47308
1.49045
1.53008
1.54009
1.55339
1.56446
1.57393
1.58369
1.59444
1.60473
1.61409
1.63979
1.7482
1.74253
1.72958
1.71533
1.70913
1.71495
1.73314
1.7617
1.79552
1.83187
2.05097
1.91499
1.83561
1.79329
1.77602
1.77998
1.80748
1.86535
1.97301
2.15143
0.334241
0.327954
0.320253
0.309176
0.295652
0.283057
0.272738
0.264813
0.259137
0.255786
0.255253
0.257748
0.262639
0.269683
0.278972
0.290613
0.304045
0.316873
0.325791
0.333287
0.24315
0.249088
0.257241
0.263496
0.266697
0.266337
0.263389
0.259453
0.255845
0.253463
0.253131
0.255077
0.258542
0.262711
0.266516
0.26848
0.267165
0.262336
0.255121
0.247211
0.236301
0.238686
0.242039
0.244945
0.24757
0.249959
0.251319
0.251307
0.250425
0.249449
0.249403
0.250587
0.252023
0.252845
0.252412
0.250586
0.248119
0.245512
0.242364
0.239269
0.231274
0.23235
0.234439
0.237057
0.239187
0.240768
0.242112
0.243174
0.243757
0.244042
0.244333
0.244704
0.244782
0.244313
0.243324
0.242061
0.240366
0.238007
0.235578
0.234009
0.226268
0.226869
0.228143
0.230174
0.232306
0.234111
0.235461
0.236615
0.237694
0.238615
0.239151
0.239096
0.238667
0.237972
0.237046
0.235699
0.233832
0.23179
0.230138
0.22927
0.221569
0.221934
0.222996
0.22493
0.227086
0.229268
0.231339
0.232945
0.234043
0.234803
0.235356
0.235621
0.235379
0.234542
0.233032
0.23112
0.229137
0.227157
0.225665
0.225056
0.217889
0.218043
0.218834
0.220466
0.22226
0.223945
0.225552
0.22719
0.228758
0.230016
0.230774
0.230835
0.230276
0.229289
0.228126
0.226798
0.22525
0.223615
0.222401
0.222054
0.215965
0.216033
0.216516
0.217637
0.218991
0.22038
0.221787
0.223136
0.224403
0.225582
0.226457
0.226787
0.226623
0.226085
0.225248
0.224238
0.223141
0.222031
0.221288
0.221102
0.214337
0.214388
0.21465
0.215233
0.216055
0.217081
0.218304
0.219661
0.221078
0.222421
0.22348
0.223969
0.223911
0.223507
0.22289
0.222192
0.221651
0.221164
0.220847
0.22074
0.211831
0.211868
0.212043
0.212407
0.212925
0.213589
0.214471
0.215587
0.216872
0.218259
0.219526
0.220341
0.220675
0.220681
0.220606
0.220508
0.220272
0.220082
0.219932
0.219865
0.208519
0.208535
0.208677
0.209036
0.209564
0.210214
0.211138
0.212321
0.213729
0.215307
0.216858
0.217987
0.2186
0.218859
0.218914
0.21891
0.218843
0.218712
0.218617
0.218587
0.204814
0.20481
0.204921
0.205272
0.205821
0.206537
0.207388
0.208597
0.2101
0.211898
0.213805
0.21535
0.216351
0.216923
0.21736
0.217549
0.217558
0.217485
0.217448
0.217444
0.200845
0.200845
0.200932
0.201263
0.201823
0.202591
0.203605
0.204918
0.206626
0.208757
0.211128
0.213162
0.214597
0.215585
0.216069
0.216433
0.216591
0.216637
0.21667
0.216682
0.196503
0.196495
0.196598
0.196916
0.197474
0.198281
0.199401
0.200929
0.20296
0.205552
0.208512
0.211141
0.213063
0.214373
0.215237
0.215773
0.216082
0.216251
0.216343
0.216362
0.191577
0.191568
0.19169
0.192023
0.192624
0.193522
0.194821
0.196644
0.199111
0.202309
0.206023
0.209387
0.211807
0.213585
0.214771
0.215545
0.21603
0.21632
0.216466
0.216493
0.185893
0.185882
0.186024
0.186428
0.187112
0.188167
0.189728
0.191955
0.195004
0.198989
0.203654
0.207897
0.211057
0.213296
0.214837
0.215865
0.216532
0.216939
0.217138
0.217172
0.179254
0.179241
0.179422
0.179911
0.180751
0.182042
0.183979
0.186749
0.190556
0.195552
0.201414
0.206761
0.210753
0.213582
0.215539
0.216857
0.217723
0.218257
0.218512
0.218555
0.171416
0.171399
0.171631
0.172242
0.173303
0.174956
0.177398
0.180881
0.185679
0.191968
0.199331
0.206032
0.211016
0.214566
0.21702
0.218678
0.219773
0.220451
0.220774
0.220828
0.162049
0.162026
0.162333
0.163133
0.164499
0.166614
0.169729
0.174181
0.180276
0.188211
0.197445
0.205804
0.211999
0.21641
0.219458
0.221518
0.222881
0.223723
0.224121
0.224193
0.15067
0.15064
0.151055
0.152119
0.15391
0.156661
0.160719
0.166458
0.174228
0.184254
0.195813
0.206194
0.213853
0.2193
0.223066
0.225612
0.227299
0.228353
0.228852
0.228934
0.136625
0.136592
0.137173
0.138612
0.141003
0.144655
0.149985
0.157428
0.167397
0.180089
0.194515
0.207336
0.21675
0.223442
0.228078
0.231219
0.233302
0.234605
0.235227
0.235328
0.118971
0.118949
0.11979
0.121767
0.125026
0.129955
0.137059
0.146844
0.159715
0.175763
0.19367
0.209389
0.220877
0.229055
0.234746
0.238623
0.241207
0.242828
0.243607
0.243728
0.096229
0.0962407
0.0975097
0.10034
0.104948
0.111819
0.121524
0.134556
0.151206
0.171412
0.193452
0.212533
0.226429
0.236359
0.243326
0.24812
0.251343
0.253378
0.254352
0.254504
0.0659463
0.066055
0.0681069
0.0724591
0.0793619
0.0893624
0.102956
0.120472
0.142001
0.167249
0.194066
0.216939
0.23356
0.245523
0.25403
0.259982
0.264048
0.266645
0.267883
0.268071
0.0238479
0.0242693
0.0280648
0.0355398
0.0466733
0.0618381
0.0812032
0.104789
0.132413
0.163559
0.195704
0.222714
0.242322
0.256582
0.266925
0.274352
0.279586
0.283011
0.284631
0.284858
-0.0381363
-0.0362107
-0.0272875
-0.012944
0.00612195
0.0295303
0.0569527
0.0882253
0.123011
0.160716
0.198543
0.229874
0.252615
0.269347
0.281762
0.291006
0.297777
0.302377
0.304651
0.304957
-0.113018
-0.109159
-0.0920707
-0.0668239
-0.0372481
-0.00434244
0.0318369
0.0712798
0.113749
0.158741
0.203258
0.240093
0.267159
0.287538
0.303169
0.315307
0.324901
0.331492
0.334333
0.335306
-0.188844
-0.17929
-0.15387
-0.118735
-0.0794722
-0.0373974
0.00745223
0.055051
0.105199
0.157492
0.208762
0.251124
0.28244
0.306325
0.325011
0.339898
0.351798
0.360405
0.365244
0.366964
-0.247011
-0.23632
-0.205966
-0.164101
-0.117503
-0.0678054
-0.0153275
0.0396946
0.0970061
0.156122
0.213563
0.26074
0.29549
0.321929
0.342542
0.358884
0.371864
0.381482
0.387017
0.3889
-0.293961
-0.282653
-0.249025
-0.202492
-0.150483
-0.0948609
-0.0361443
0.0252967
0.0889824
0.154256
0.217207
0.26843
0.305759
0.333825
0.355427
0.372345
0.385683
0.395591
0.401328
0.403249
-0.33274
-0.321392
-0.285719
-0.235563
-0.179204
-0.118786
-0.0549372
0.0119441
0.0811725
0.15193
0.219747
0.274473
0.313936
0.343236
0.365506
0.382726
0.396113
0.405995
0.411665
0.413544
-0.366386
-0.355087
-0.317902
-0.264883
-0.204994
-0.140576
-0.0722574
-0.000604806
0.0735936
0.149343
0.221733
0.279726
0.321089
0.35142
0.374157
0.3915
0.404836
0.414656
0.420315
0.4221
-0.396479
-0.38526
-0.346972
-0.291614
-0.228694
-0.160796
-0.0885646
-0.0126714
0.0660741
0.146483
0.223143
0.284198
0.327382
0.358708
0.381924
0.399443
0.41279
0.422564
0.428211
0.429894
-0.42415
-0.412989
-0.373805
-0.316443
-0.250975
-0.180084
-0.10441
-0.024668
0.0582275
0.142975
0.223806
0.288033
0.333165
0.365607
0.3894
0.407165
0.420577
0.430328
0.435959
0.437542
-0.450197
-0.439051
-0.399059
-0.339961
-0.27226
-0.198741
-0.120028
-0.0368491
0.049869
0.138826
0.223855
0.291394
0.338652
0.37237
0.396871
0.414982
0.428524
0.438274
0.443887
0.445377
-0.475069
-0.46392
-0.423201
-0.362531
-0.292854
-0.217017
-0.135605
-0.0492948
0.0410069
0.133985
0.223195
0.294235
0.343876
0.379113
0.404511
0.423102
0.436861
0.446661
0.45223
0.453656
-0.499097
-0.48788
-0.446451
-0.384414
-0.312998
-0.2351
-0.15125
-0.0621021
0.0314828
0.128269
0.221708
0.296485
0.348825
0.38587
0.412398
0.431641
0.445729
0.455623
0.461125
0.462514
-0.52246
-0.511099
-0.469024
-0.405736
-0.332777
-0.253056
-0.167054
-0.075371
0.0212195
0.12164
0.219274
0.298015
0.353414
0.39262
0.420555
0.440649
0.455203
0.465278
0.470708
0.47205
-0.54518
-0.533646
-0.490965
-0.426566
-0.352259
-0.270943
-0.183045
-0.0890948
0.0102389
0.114042
0.215786
0.29868
0.357498
0.399278
0.428945
0.450119
0.46528
0.475609
0.481
0.482249
-0.567351
-0.555594
-0.512338
-0.446934
-0.371447
-0.288732
-0.199172
-0.103232
-0.00146627
0.105442
0.211138
0.298279
0.36083
0.405621
0.437445
0.460001
0.475961
0.486636
0.491981
0.493086
-0.5889
-0.576946
-0.533124
-0.466819
-0.390298
-0.306373
-0.215382
-0.117733
-0.013838
0.0958568
0.205258
0.296624
0.363156
0.411389
0.445883
0.470201
0.487155
0.498214
0.503513
0.504427
-0.609863
-0.597674
-0.553291
-0.486189
-0.408778
-0.323823
-0.231622
-0.132514
-0.0268022
0.0853246
0.198114
0.293574
0.364249
0.416354
0.4541
0.480678
0.498848
0.51026
0.515372
0.516055
-0.630054
-0.617723
-0.5728
-0.505
-0.426822
-0.340993
-0.247798
-0.147485
-0.0402643
0.0739228
0.189683
0.288991
0.363793
0.4201
0.461751
0.491352
0.511113
0.522728
0.527356
0.527705
-0.649589
-0.63705
-0.591607
-0.523209
-0.444383
-0.357827
-0.263813
-0.162547
-0.0541128
0.0617611
0.18002
0.282788
0.361527
0.422114
0.46827
0.50202
0.524315
0.535931
0.539231
0.538944
-0.668322
-0.655586
-0.609702
-0.540768
-0.461383
-0.374243
-0.279581
-0.177577
-0.0682209
0.0489352
0.169216
0.274936
0.35728
0.421902
0.472861
0.512034
0.538859
0.551361
0.551743
0.549308
-0.686319
-0.673399
-0.627028
-0.557629
-0.477786
-0.390174
-0.295016
-0.192484
-0.0824675
0.0356129
0.157397
0.265444
0.350971
0.419069
0.474457
0.519904
0.55395
0.57133
0.570327
0.558032
-0.703487
-0.690455
-0.643685
-0.573949
-0.493791
-0.405899
-0.310453
-0.20768
-0.097327
0.0212429
0.143946
0.253604
0.341883
0.41284
0.471419
0.522974
0.566179
0.591892
0.594317
0.589158
-0.719825
-0.706837
-0.659683
-0.589658
-0.509376
-0.421402
-0.325849
-0.223163