/*--------------------------------*- C++ -*----------------------------------*\
  =========                 |
  \\      /  F ield         | OpenFOAM: The Open Source CFD Toolbox
   \\    /   O peration     | Website:  https://openfoam.org
    \\  /    A nd           | Version:  6
     \\/     M anipulation  |
\*---------------------------------------------------------------------------*/
FoamFile
{
    version     2.0;
    format      ascii;
    class       surfaceScalarField;
    location    "118.3";
    object      phi;
}
// * * * * * * * * * * * * * * * * * * * * * * * * * * * * * * * * * * * * * //

dimensions      [0 3 -1 0 0 0 0];

internalField   nonuniform List<scalar> 
17370
(
-0.0899999
0.089849
0.289162
-0.0714625
0.0537527
0.364485
-0.0381198
0.0276909
0.426597
-0.0196398
0.0146077
0.504284
-0.0107671
0.0082781
0.601891
-0.0062797
0.00490375
0.720433
-0.00373958
0.00289818
0.863748
-0.00215544
0.00159517
1.03601
-0.00107741
0.000663787
1.24292
-0.000254687
-0.000145507
1.49159
0.000526501
-0.000937239
1.4916
0.00133059
-0.00180968
1.24317
0.00233019
-0.00303502
1.03634
0.00385146
-0.00499855
0.864054
0.00636623
-0.00836022
0.721051
0.0108462
-0.0146827
0.603051
0.0197098
-0.0277541
0.507484
0.0381754
-0.0537998
0.431792
0.0715015
-0.0898755
0.36515
0.0900165
0.198994
-0.128139
0.0882317
0.0399075
-0.364602
0.353385
-0.0746664
0.0858835
-0.446478
0.454324
-0.0843785
0.0765322
-0.521193
0.529905
-0.0684341
0.0597218
-0.612792
0.621572
-0.0515324
0.0427526
-0.726897
0.734168
-0.0352915
0.0280209
-0.867478
0.872597
-0.0224177
0.017298
-1.03848
1.04193
-0.0134837
0.0100288
-1.2446
1.24704
-0.00741379
0.00497656
-1.49262
1.49461
-0.00302344
0.00103482
-1.49251
1.49423
0.000637389
-0.00236338
-1.24397
1.24585
0.00427413
-0.00615411
-1.03751
1.04002
0.00849275
-0.0110064
-0.866095
0.869826
0.0143553
-0.0180858
-0.724388
0.72993
0.0231274
-0.0286698
-0.608695
0.616107
0.0358824
-0.0432943
-0.514894
0.523037
0.0520227
-0.0601651
-0.439854
0.447911
0.0688257
-0.0768826
-0.375293
0.376735
0.0846754
-0.0861177
-0.257327
0.222471
0.0748248
-0.0399682
-0.0685287
0.0587061
0.00982268
-0.0517909
0.0583671
-0.374137
0.367561
-0.057446
0.0536899
-0.453602
0.457358
-0.0485972
0.0446422
-0.527956
0.531911
-0.0407997
0.0371579
-0.621575
0.625216
-0.0330519
0.0289706
-0.73536
0.739441
-0.0243921
0.0202243
-0.874352
0.878519
-0.0158688
0.0121664
-1.0435
1.0472
-0.00842016
0.00524032
-1.24857
1.25175
-0.00190551
-0.00117482
-1.49666
1.49974
0.00422863
-0.00749707
-1.4972
1.50047
0.0105683
-0.0141518
-1.25006
1.25365
0.0176905
-0.021872
-1.04591
1.05009
0.025896
-0.0303335
-0.877747
0.882184
0.0343
-0.0382922
-0.739888
0.74388
0.0418375
-0.0455809
-0.626762
0.630505
0.0494505
-0.0544617
-0.534801
0.539812
0.0581256
-0.0589312
-0.457465
0.45827
0.0522165
-0.0320024
-0.335735
0.315521
0.00989167
-0.068333
0.0584413
-0.05296
0.0489693
0.00399069
-0.0331281
0.0436585
-0.35814
0.34761
-0.0473452
0.0467101
-0.459305
0.45994
-0.0436477
0.0402898
-0.535823
0.539181
-0.0365118
0.0332021
-0.628552
0.631862
-0.0297566
0.0267156
-0.742674
0.745715
-0.0234445
0.0203255
-0.882045
0.885164
-0.0167815
0.01339
-1.0508
1.05419
-0.00958465
0.00603613
-1.25519
1.25874
-0.00205684
-0.00174951
-1.50325
1.50706
0.00552305
-0.00939858
-1.50412
1.508
0.012794
-0.0163772
-1.2574
1.26098
0.019544
-0.0228447
-1.05389
1.05719
0.0257574
-0.0288217
-0.885658
0.888722
0.0316919
-0.0349674
-0.747129
0.750404
0.0381338
-0.0417671
-0.63428
0.637913
0.0450009
-0.0479204
-0.544112
0.547032
0.0484032
-0.0445011
-0.456544
0.452642
0.0337117
-0.0162402
-0.296136
0.278665
0.00407721
-0.0526161
0.0485389
-0.0458979
0.0434088
0.0024891
-0.0227604
0.0331156
-0.336941
0.326586
-0.0389167
0.0399205
-0.459638
0.458634
-0.0387194
0.0364252
-0.541912
0.544206
-0.0337499
0.0311454
-0.634927
0.637532
-0.0280708
0.0251584
-0.748773
0.751686
-0.0218767
0.0188663
-0.888129
0.891139
-0.0155428
0.0124273
-1.05733
1.06045
-0.00888496
0.0054629
-1.26221
1.26563
-0.00148695
-0.00240818
-1.51094
1.51483
0.00625886
-0.0100957
-1.51188
1.51572
0.0133154
-0.016568
-1.26443
1.26768
0.0193906
-0.0223948
-1.06028
1.06328
0.0251304
-0.0281329
-0.891753
0.894755
0.0308117
-0.033652
-0.753596
0.756436
0.036059
-0.0385377
-0.640965
0.643444
0.0406638
-0.041641
-0.54882
0.549797
0.0404004
-0.0342511
-0.447338
0.441189
0.0235126
-0.0102628
-0.263417
0.250167
0.00259635
-0.0453681
0.0427718
-0.0413419
0.0395829
0.00175901
-0.0166864
0.0259041
-0.316764
0.307546
-0.0324781
0.0345968
-0.457056
0.454937
-0.0341597
0.0324775
-0.5462
0.547882
-0.0302858
0.0281791
-0.639855
0.641962
-0.0257321
0.0233169
-0.754347
0.756762
-0.0204357
0.0176243
-0.894049
0.896861
-0.0143634
0.0112725
-1.06351
1.0666
-0.00776033
0.00441661
-1.26896
1.2723
-0.000566785
-0.00318042
-1.51862
1.52237
0.00687056
-0.0105423
-1.51944
1.52311
0.0136279
-0.0167725
-1.27094
1.27408
0.0194916
-0.0223445
-1.06629
1.06914
0.0248015
-0.0273202
-0.89754
0.900059
0.0294318
-0.031575
-0.758866
0.761009
0.033428
-0.0353653
-0.64558
0.647517
0.0368018
-0.0369339
-0.550292
0.550425
0.0344504
-0.0273641
-0.434486
0.4274
0.0176279
-0.00744155
-0.238596
0.22841
0.00189027
-0.0405829
0.0386926
-0.0380709
0.0367517
0.00131914
-0.0127093
0.0206096
-0.298995
0.291095
-0.0273136
0.0302035
-0.452409
0.44952
-0.0303833
0.0292444
-0.549336
0.550474
-0.0272368
0.025304
-0.644021
0.645953
-0.0230822
0.0209207
-0.759022
0.761183
-0.018375
0.0158617
-0.899454
0.901968
-0.012886
0.00997689
-1.06956
1.07247
-0.00658412
0.00331747
-1.27558
1.27885
0.000453436
-0.00410086
-1.52602
1.52967
0.00767655
-0.011223
-1.52669
1.53024
0.0141659
-0.0171001
-1.27722
1.28016
0.0195463
-0.0220126
-1.07185
1.07431
0.024081
-0.0261694
-0.90231
0.904399
0.0279464
-0.029782
-0.762967
0.764803
0.0313935
-0.0330907
-0.649315
0.651012
0.0338702
-0.0332617
-0.550183
0.549575
0.0298477
-0.0224393
-0.420091
0.412683
0.0138707
-0.00578659
-0.219373
0.211289
0.00147903
-0.0370319
0.0355529
-0.0356033
0.0345914
0.00101185
-0.00989333
0.0165491
-0.283846
0.277191
-0.0229685
0.0262942
-0.446399
0.443074
-0.0270387
0.0263132
-0.551412
0.552137
-0.0245323
0.0227264
-0.647878
0.649684
-0.0206269
0.0185777
-0.763282
0.765332
-0.0161652
0.0137982
-0.904331
0.906698
-0.0110153
0.00829062
-1.07521
1.07793
-0.00509171
0.00197245
-1.282
1.28512
0.00167034
-0.00520841
-1.53323
1.53677
0.00865734
-0.0120213
-1.53366
1.53703
0.0147402
-0.0173746
-1.28303
1.28566
0.0195304
-0.021686
-1.07666
1.07881
0.0235024
-0.0253471
-0.906332
0.908177
0.0269182
-0.0285379
-0.766519
0.768138
0.0299446
-0.0312922
-0.652565
0.653912
0.0315715
-0.0302167
-0.548598
0.547243
0.026166
-0.0188164
-0.405273
0.397923
0.0113188
-0.00469507
-0.204001
0.197378
0.00120649
-0.0342238
0.0330173
-0.0337076
0.0329252
0.00078247
-0.00779736
0.0133649
-0.271113
0.265546
-0.0192787
0.0227827
-0.439658
0.436154
-0.0239884
0.0235014
-0.552791
0.553278
-0.021979
0.0202758
-0.651503
0.653206
-0.0182623
0.0162893
-0.767334
0.769307
-0.0139578
0.0116682
-0.908952
0.911241
-0.00897767
0.00635374
-1.08053
1.08315
-0.00328631
0.000302104
-1.28811
1.2911
0.00317735
-0.006548
-1.54018
1.54355
0.00980907
-0.0129462
-1.54024
1.54337
0.0154402
-0.0178189
-1.28827
1.29065
0.0197494
-0.0216732
-1.0809
1.08283
0.0232867
-0.0249191
-0.909888
0.911521
0.0263039
-0.0277264
-0.769646
0.771069
0.0289295
-0.0298842
-0.655063
0.656017
0.0297817
-0.0277418
-0.545532
0.543492
0.0232668
-0.0161569
-0.390681
0.383572
0.00954161
-0.00394608
-0.191314
0.185718
0.00101918
-0.0319142
0.0308951
-0.0322436
0.0316402
0.000603424
-0.00617092
0.0108051
-0.260478
0.255844
-0.0161058
0.0195887
-0.432672
0.429189
-0.0210985
0.0208262
-0.553714
0.553986
-0.0195246
0.017874
-0.654947
0.656598
-0.015906
0.0139716
-0.771247
0.773181
-0.0116861
0.00944311
-0.913421
0.915664
-0.00680807
0.00424288
-1.08566
1.08823
-0.00125398
-0.0016353
-1.29397
1.29686
0.00497457
-0.00817779
-1.54678
1.54998
0.0112474
-0.0141695
-1.54635
1.54927
0.0164621
-0.0186149
-1.29303
1.29518
0.0203391
-0.0220424
-1.0847
1.0864
0.0234602
-0.0248884
-0.913016
0.914445
0.0261004
-0.0273421
-0.772385
0.773627
0.0284002
-0.0289278
-0.656766
0.657294
0.0284228
-0.0257952
-0.541149
0.538522
0.0210433
-0.0142301
-0.376612
0.369798
0.00830094
-0.00343048
-0.180519
0.175649
0.000891004
-0.0299475
0.0290565
-0.0311204
0.0306633
0.000457101
-0.00485221
0.00867688
-0.251648
0.247823
-0.0133181
0.016629
-0.425814
0.422503
-0.0183001
0.0182044
-0.554236
0.554332
-0.0170829
0.0154583
-0.658319
0.659944
-0.0135001
0.0115673
-0.775093
0.777026
-0.00928504
0.00705197
-0.917801
0.920034
-0.00443859
0.00190473
-1.09069
1.09322
0.00103406
-0.00385685
-1.29965
1.30248
0.00709139
-0.0101602
-1.55305
1.55612
0.0130667
-0.0157947
-1.55203
1.55476
0.0178938
-0.0198212
-1.29737
1.29929
0.0213392
-0.0228255
-1.08807
1.08955
0.0240571
-0.0252976
-0.915738
0.916979
0.0263543
-0.027432
-0.774764
0.775842
0.0282756
-0.0284304
-0.65762
0.657774
0.0274893
-0.0243465
-0.535629
0.532487
0.0194051
-0.0128707
-0.363136
0.356602
0.00745128
-0.00308414
-0.171058
0.166691
0.000806576
-0.0282143
0.0274077
-0.0302785
0.0299465
0.00033199
-0.00373747
0.00684595
-0.244389
0.24128
-0.0108133
0.0138396
-0.419366
0.41634
-0.015542
0.015583
-0.554441
0.5544
-0.0145296
0.0129631
-0.661634
0.6632
-0.0109836
0.00901723
-0.778944
0.780911
-0.00669692
0.00443562
-0.922166
0.924428
-0.00180294
-0.000734568
-1.09565
1.09819
0.00365801
-0.00644437
-1.30521
1.30799
0.00960724
-0.0125719
-1.55906
1.56203
0.01534
-0.0178903
-1.55733
1.55988
0.019802
-0.0215058
-1.30128
1.30298
0.0228203
-0.0240951
-1.09101
1.09229
0.0251458
-0.0262045
-0.918082
0.919141
0.027113
-0.0280297
-0.776802
0.777719
0.0286093
-0.0284529
-0.657775
0.657619
0.0270249
-0.023395
-0.529102
0.525472
0.0182959
-0.0119745
-0.350192
0.343871
0.00690675
-0.0028693
-0.162513
0.158475
0.000756528
-0.0266321
0.0258756
-0.0296801
0.0294611
0.000218949
-0.00274981
0.00520653
-0.238529
0.236072
-0.00849717
0.0111533
-0.413539
0.410883
-0.0127703
0.0128715
-0.554427
0.554326
-0.0118446
0.0103032
-0.664859
0.666401
-0.00827557
0.00624334
-0.782867
0.784899
-0.00384587
0.00151841
-0.926591
0.928919
0.00117726
-0.00375894
-1.10064
1.10322
0.00671043
-0.00949711
-1.3107
1.31348
0.0126235
-0.015511
-1.56487
1.56776
0.0181615
-0.0205499
-1.56226
1.56465
0.0222831
-0.0237673
-1.30477
1.30625
0.0248787
-0.0259396
-1.09355
1.09461
0.0268039
-0.0276695
-0.920058
0.920923
0.0284145
-0.0291609
-0.778457
0.779203
0.0294477
-0.0289358
-0.657334
0.656822
0.0270331
-0.0229347
-0.521629
0.517531
0.0176692
-0.0114659
-0.337632
0.331428
0.00660789
-0.002759
-0.154553
0.150704
0.000733692
-0.0251359
0.0244022
-0.0293048
0.0291946
0.000110167
-0.00182436
0.00366411
-0.233954
0.232114
-0.00626956
0.00848255
-0.408498
0.406285
-0.00990407
0.0099847
-0.554356
0.554275
-0.00894722
0.00738813
-0.668073
0.669633
-0.00528009
0.00314788
-0.786922
0.789054
-0.000632828
-0.00179926
-0.931149
0.933581
0.0046017
-0.00726837
-1.10572
1.10838
0.0102923
-0.0131176
-1.3162
1.31903
0.0162444
-0.0190823
-1.57052
1.57336
0.0216352
-0.0238753
-1.56686
1.5691
0.0254355
-0.0267039
-1.30785
1.30912
0.0276132
-0.0284558
-1.09566
1.0965
0.0291248
-0.0297895
-0.921643
0.922308
0.0303768
-0.03097
-0.779764
0.780357
0.030883
-0.0299444
-0.656138
0.655199
0.0275364
-0.0229543
-0.513224
0.508642
0.017481
-0.0112868
-0.325257
0.319063
0.00651146
-0.00273395
-0.146911
0.143134
0.000733032
-0.0236741
0.0229411
-0.0291473
0.0291463
1.05078e-06
-0.000911571
0.00214457
-0.230606
0.229373
-0.00404646
0.00575014
-0.404383
0.40268
-0.00687204
0.00684878
-0.554398
0.554422
-0.00575025
0.00412969
-0.671364
0.672984
-0.00189737
-0.000372925
-0.791175
0.793446
0.00305052
-0.0056301
-0.935916
0.938496
0.00858749
-0.0113833
-1.11098
1.11377
0.0145272
-0.0174321
-1.32179
1.32469
0.0205998
-0.0234191
-1.57608
1.5789
0.0258961
-0.0280014
-1.57114
1.57325
0.029396
-0.0304521
-1.31052
1.31158
0.0311591
-0.0317802
-1.09734
1.09796
0.0322477
-0.0326968
-0.922822
0.923271
0.0330915
-0.033399
-0.780673
0.78098
0.0330027
-0.0315544
-0.654082
0.652633
0.0285976
-0.0234817
-0.503837
0.498721
0.0177246
-0.0114126
-0.312842
0.30653
0.00659692
-0.00278464
-0.139358
0.135546
0.000752001
-0.0222037
0.0214517
-0.0292114
0.0293274
-0.000115958
3.66265e-05
0.000578699
-0.228471
0.227856
-0.0017432
0.00287044
-0.401328
0.4002
-0.00359153
0.00337871
-0.554735
0.554947
-0.00215767
0.000414593
-0.674827
0.67657
0.00198485
-0.00443918
-0.795703
0.798157
0.00733149
-0.0101074
-0.940981
0.943756
0.0132742
-0.0162487
-1.1165
1.11948
0.0195647
-0.0225932
-1.32755
1.33058
0.025844
-0.0286763
-1.58161
1.58444
0.0310999
-0.0330831
-1.57514
1.57712
0.034319
-0.0351627
-1.31278
1.31362
0.0356589
-0.0360465
-1.09857
1.09896
0.0363038
-0.0365301
-0.923564
0.92379
0.0367134
-0.0366664
-0.780996
0.780949
0.0359061
-0.0338601
-0.650981
0.648935
0.0302787
-0.0245419
-0.493351
0.487614
0.0183959
-0.011825
-0.300124
0.293553
0.0068481
-0.0029027
-0.131687
0.127742
0.000788004
-0.0206869
0.0198989
-0.0295126
0.0297675
-0.000254893
0.00103271
-0.00109704
-0.227587
0.227651
0.000727955
-0.00024986
-0.399472
0.398994
3.16956e-05
-0.000531106
-0.555557
0.556056
0.00194423
-0.0038735
-0.678586
0.680515
0.00650295
-0.00919572
-0.800594
0.803287
0.012363
-0.0153915
-0.946441
0.94947
0.01883
-0.0220393
-1.1224
1.12561
0.0255859
-0.0287861
-1.33356
1.33676
0.0321638
-0.0350369
-1.58716
1.59003
0.0374202
-0.0392919
-1.57886
1.58073
0.0403799
-0.0410093
-1.31459
1.31522
0.0412809
-0.0414155
-1.09931
1.09945
0.0414423
-0.04143
-0.92384
0.923828
0.041424
-0.0409089
-0.780607
0.780092
0.0397007
-0.0369512
-0.646672
0.643922
0.0326403
-0.0261589
-0.481575
0.475093
0.0194913
-0.0125076
-0.286815
0.279831
0.0072495
-0.00307945
-0.123704
0.119534
0.000838151
-0.0190907
0.0182526
-0.0300925
0.0304906
-0.000398052
0.00214432
-0.00287019
-0.228022
0.228748
0.003389
-0.00368535
-0.398963
0.39926
0.00412652
-0.00501272
-0.557097
0.557983
0.00669079
-0.00887946
-0.682773
0.684962
0.0118158
-0.0148155
-0.805957
0.808956
0.0183308
-0.0216784
-0.952415
0.955762
0.0254608
-0.028968
-1.12877
1.13228
0.0328089
-0.0362315
-1.33993
1.34336
0.0397806
-0.0427214
-1.59279
1.59573
0.0450736
-0.0468288
-1.5823
1.58406
0.0477547
-0.0481758
-1.31596
1.31638
0.0482147
-0.0480812
-1.09954
1.0994
0.047865
-0.047597
-0.923602
0.923334
0.0473322
-0.0463025
-0.779324
0.778294
0.0445406
-0.0409433
-0.64094
0.637343
0.0357546
-0.0283586
-0.468239
0.460843
0.0210071
-0.0134428
-0.272599
0.265035
0.00778421
-0.00330509
-0.115228
0.110749
0.00089909
-0.0173884
0.0164893
-0.0309816
0.0315614
-0.000579855
0.00342771
-0.00494999
-0.229897
0.231419
0.00639869
-0.0075372
-0.4
0.401139
0.00876019
-0.0101768
-0.559571
0.560987
0.0122649
-0.0147988
-0.68753
0.690064
0.0181332
-0.0215189
-0.811927
0.815312
0.0254676
-0.0292121
-0.959038
0.962782
0.0334212
-0.0372967
-1.13576
1.13964
0.0414999
-0.0451954
-1.34676
1.35046
0.0489559
-0.0519853
-1.59855
1.60158
0.0543125
-0.0559482
-1.58546
1.58709
0.0567127
-0.0569021
-1.31686
1.31705
0.0566827
-0.0562638
-1.0992
1.09878
0.0557969
-0.0552483
-0.922823
0.922275
0.0545782
-0.0530482
-0.777105
0.775575
0.0505622
-0.0459332
-0.633479
0.62885
0.0396745
-0.031147
-0.452984
0.444457
0.0229213
-0.0145986
-0.257137
0.248815
0.00842498
-0.0035645
-0.106097
0.101236
0.00096576
-0.0155607
0.014595
-0.0322469
0.0330614
-0.000814447
0.00501117
-0.00745122
-0.233414
0.235854
0.00998338
-0.0120699
-0.402795
0.404882
0.0141951
-0.0162655
-0.563237
0.565307
0.0188997
-0.0218814
-0.69304
0.696022
0.0257293
-0.0295953
-0.81867
0.822536
0.0340806
-0.0383133
-0.966472
0.970705
0.0430424
-0.0473615
-1.1435
1.14782
0.0519949
-0.056008
-1.35414
1.35815
0.0600062
-0.0631263
-1.60448
1.6076
0.0654138
-0.0669109
-1.58831
1.5898
0.0675059
-0.0674132
-1.3172
1.31711
0.0669199
-0.0661879
-1.09827
1.09754
0.0654566
-0.0646489
-0.921448
0.92064
0.0634508
-0.0613097
-0.773943
0.771802
0.0579282
-0.0520092
-0.623887
0.617968
0.0444227
-0.0344913
-0.435351
0.425419
0.0251749
-0.0159142
-0.240071
0.23081
0.00912575
-0.00383389
-0.0961741
0.0908823
0.0010306
-0.0135994
0.0125688
-0.0339851
0.0351079
-0.00112287
0.00700724
-0.0105585
-0.23881
0.242361
0.0143674
-0.0175373
-0.407647
0.410817
0.0207004
-0.0235563
-0.568385
0.571241
0.0268969
-0.0304553
-0.699531
0.70309
0.034971
-0.0394376
-0.826384
0.830851
0.0445827
-0.0494068
-0.974903
0.979727
0.054755
-0.0595903
-1.15215
1.15698
0.0647086
-0.0690634
-1.36215
1.3665
0.0732957
-0.0764771
-1.61055
1.61374
0.0786818
-0.07999
-1.59079
1.5921
0.0803835
-0.0799817
-1.31688
1.31648
0.0791845
-0.0781125
-1.09668
1.09561
0.0771156
-0.0760041
-0.919512
0.918401
0.0742435
-0.0712986
-0.769617
0.766672
0.0667596
-0.0591898
-0.611629
0.604059
0.0499403
-0.0382789
-0.414773
0.403111
0.027642
-0.0172821
-0.221047
0.210687
0.00981245
-0.00407775
-0.0853777
0.079643
0.00108304
-0.011513
0.0104299
-0.0363321
0.0378782
-0.00154607
0.00962518
-0.0145575
-0.246441
0.251373
0.0198914
-0.0243245
-0.414928
0.419361
0.0286743
-0.0324698
-0.575346
0.579142
0.0366983
-0.0410215
-0.707282
0.711605
0.0463747
-0.0515941
-0.835313
0.840532
0.0575446
-0.0630707
-0.984542
0.990068
0.0691308
-0.0745346
-1.16183
1.16723
0.0801562
-0.0848329
-1.37081
1.37549
0.0892403
-0.0924008
-1.6167
1.61986
0.0944333
-0.0954621
-1.59278
1.59381
0.0955805
-0.0948718
-1.31584
1.31513
0.0936998
-0.0922822
-1.09439
1.09298
0.0910188
-0.0894161
-0.916829
0.915226
0.0871336
-0.0830906
-0.763678
0.759636
0.0770521
-0.0673667
-0.595953
0.586268
0.0560361
-0.0422749
-0.390583
0.376822
0.0300989
-0.0185317
-0.199767
0.1882
0.0103765
-0.0042478
-0.0737117
0.067583
0.00110968
-0.00933231
0.00822264
-0.039499
0.0416585
-0.00215949
0.0132354
-0.0199338
-0.256814
0.263513
0.0271005
-0.0330077
-0.425115
0.431022
0.0387332
-0.043663
-0.584513
0.589442
0.0489997
-0.0543134
-0.716682
0.721995
0.060749
-0.0668978
-0.845755
0.851904
0.073798
-0.0801132
-0.995605
1.00192
0.0869309
-0.0928965
-1.17262
1.17859
0.0989611
-0.103862
-1.38006
1.38496
0.108299
-0.111282
-1.62272
1.62571
0.112991
-0.113606
-1.59409
1.59471
0.113352
-0.112273
-1.31403
1.31295
0.11071
-0.10892
-1.09141
1.08962
0.107369
-0.105219
-0.913021
0.910871
0.102248
-0.0967121
-0.755499
0.749964
0.0886586
-0.0762288
-0.575884
0.563454
0.0623098
-0.046067
-0.362048
0.345805
0.0321947
-0.0194219
-0.176064
0.163291
0.0106769
-0.00428648
-0.0613128
0.0549224
0.00109581
-0.00711576
0.00601995
-0.0438296
0.0469363
-0.00310669
0.0184826
-0.0274907
-0.270685
0.279694
0.0368916
-0.0445822
-0.438898
0.446589
0.0519762
-0.058272
-0.596386
0.602682
0.0650458
-0.0717231
-0.728166
0.734843
0.0794342
-0.0866203
-0.858042
0.865228
0.0945339
-0.101636
-1.00823
1.01534
0.109135
-0.115529
-1.18447
1.19086
0.121832
-0.126736
-1.38963
1.39454
0.130936
-0.133494
-1.62825
1.63081
0.134654
-0.134661
-1.59442
1.59443
0.133917
-0.13239
-1.31127
1.30974
0.130426
-0.128202
-1.08766
1.08543
0.126231
-0.123567
-0.907969
0.905305
0.119497
-0.111874
-0.744204
0.736581
0.101109
-0.0851476
-0.550127
0.534166
0.0680761
-0.0490342
-0.328457
0.309416
0.033453
-0.0196623
-0.150033
0.136242
0.0105608
-0.004138
-0.0484937
0.0420709
0.00102885
-0.00494948
0.00392063
-0.0499249
0.0546364
-0.00471152
0.0266262
-0.0387504
-0.289247
0.301371
0.0510212
-0.0610687
-0.457393
0.467441
0.0705097
-0.0784523
-0.611547
0.619489
0.0870111
-0.0952422
-0.742281
0.750512
0.104365
-0.112585
-0.872379
0.880599
0.12138
-0.129049
-1.02234
1.03001
0.136901
-0.143376
-1.19699
1.20347
0.149506
-0.154029
-1.39901
1.40353
0.157579
-0.159358
-1.63275
1.63453
0.159668
-0.158817
-1.59337
1.59252
0.157422
-0.155341
-1.30733
1.30525
0.152912
-0.150159
-1.08303
1.08028
0.147747
-0.144304
-0.901463
0.89802
0.138627
-0.127962
-0.728471
0.717806
0.113508
-0.0930817
-0.517063
0.496637
0.0723284
-0.0503834
-0.289322
0.267376
0.0333421
-0.0189806
-0.122194
0.107832
0.00990753
-0.00376643
-0.0357609
0.0296198
0.000901103
-0.0029394
0.0020383
-0.0589296
0.0669833
-0.00805365
0.0409047
-0.0576314
-0.314718
0.331445
0.0739466
-0.0870783
-0.482193
0.495324
0.0986371
-0.108225
-0.630525
0.640114
0.118581
-0.128264
-0.759214
0.768897
0.13849
-0.147261
-0.888545
0.897316
0.156294
-0.163895
-1.0373
1.0449
0.171418
-0.177344
-1.20937
1.21529
0.18266
-0.186215
-1.40732
1.41088
0.18856
-0.189091
-1.63544
1.63597
0.188164
-0.186161
-1.59043
1.58842
0.183911
-0.181155
-1.30193
1.29917
0.178164
-0.174806
-1.0773
1.07394
0.171766
-0.167007
-0.892751
0.887992
0.158795
-0.143692
-0.706194
0.691092
0.124214
-0.0984587
-0.474762
0.449006
0.0738521
-0.0494
-0.244747
0.220295
0.0315212
-0.0172895
-0.093651
0.0794193
0.00870994
-0.00317801
-0.0237754
0.0182435
0.000711368
-0.00119336
0.000481992
-0.0744576
0.079042
-0.00458441
0.0315395
-0.0462447
-0.351159
0.365864
0.0609453
-0.0730543
-0.514526
0.526635
0.0842398
-0.0949996
-0.653231
0.66399
0.107374
-0.11869
-0.777868
0.789184
0.13134
-0.142717
-0.905114
0.916491
0.155028
-0.166171
-1.05163
1.06277
0.178114
-0.188666
-1.22022
1.23077
0.199627
-0.208893
-1.41337
1.42263
0.217944
-0.224894
-1.63537
1.64232
0.229821
-0.23349
-1.58495
1.58862
0.235792
-0.237507
-1.29475
1.29647
0.23831
-0.237884
-1.06998
1.06956
0.236427
-0.230404
-0.880232
0.874208
0.217077
-0.19204
-0.674337
0.6493
0.160236
-0.120899
-0.421641
0.382303
0.0863801
-0.0546268
-0.195975
0.164222
0.0332069
-0.0173325
-0.0661204
0.050246
0.00827268
-0.00279793
-0.0132128
0.00773802
0.000545496
0.000242344
-0.000787839
-0.0869825
0.0851523
0.00183023
0.00918907
-0.0190222
-0.383615
0.393448
0.0303962
-0.0393402
-0.543831
0.552775
0.048557
-0.0577341
-0.677468
0.686645
0.0690603
-0.0796832
-0.79995
0.810573
0.0911706
-0.101756
-0.927338
0.937924
0.113203
-0.123237
-1.07371
1.08374
0.134224
-0.143606
-1.24122
1.2506
0.153402
-0.161531
-1.43175
1.43988
0.169207
-0.175087
-1.6488
1.65468
0.179121
-0.181972
-1.59141
1.59427
0.18344
-0.18457
-1.29631
1.29744
0.18498
-0.184098
-1.06763
1.06675
0.181045
-0.17214
-0.862675
0.85377
0.156319
-0.13098
-0.619477
0.594139
0.102854
-0.072071
-0.340575
0.309792
0.0482479
-0.0287249
-0.133984
0.114461
0.0165508
-0.00816781
-0.0358009
0.0274179
0.00365057
-0.00112612
-0.00260757
8.3119e-05
0.000167321
0.00151034
-0.00167766
-0.0889076
0.0859406
0.00296704
-0.000169895
-0.00575203
-0.406097
0.412019
0.0134795
-0.0202918
-0.566033
0.572845
0.0274377
-0.0353822
-0.698303
0.706248
0.0452812
-0.0545643
-0.820093
0.829376
0.06484
-0.0741744
-0.947729
0.957063
0.0840612
-0.0931648
-1.09367
1.10278
0.102968
-0.111502
-1.25967
1.2682
0.12004
-0.127076
-1.44754
1.45457
0.133933
-0.138968
-1.6602
1.66524
0.142237
-0.144381
-1.59643
1.59857
0.145285
-0.146025
-1.29679
1.29753
0.145888
-0.144524
-1.06313
1.06176
0.140241
-0.129697
-0.840726
0.830182
0.113353
-0.0897514
-0.565244
0.541641
0.0664593
-0.043765
-0.277229
0.254535
0.0281757
-0.0163673
-0.095548
0.0837397
0.00929006
-0.00455038
-0.0193265
0.0145868
0.00202338
-0.000617548
0.00258954
-0.00399537
9.03867e-05
0.00203775
-0.00212813
-0.0878097
0.0849565
0.00285317
-0.0043418
0.00114354
-0.421536
0.424734
0.00404164
-0.00933545
-0.583029
0.588322
0.0155003
-0.0222271
-0.715576
0.722303
0.0307536
-0.0387824
-0.837888
0.845917
0.0476539
-0.0557539
-0.965851
0.973951
0.0647521
-0.0726331
-1.11147
1.11935
0.0813479
-0.0885172
-1.27638
1.28355
0.0961114
-0.102356
-1.46151
1.46775
0.108243
-0.112316
-1.6701
1.67418
0.115149
-0.116962
-1.60018
1.602
0.117558
-0.117512
-1.29672
1.29667
0.116971
-0.115078
-1.05702
1.05513
0.109891
-0.0990812
-0.815942
0.805132
0.0834009
-0.0630367
-0.51532
0.494956
0.0448317
-0.0287517
-0.230825
0.214745
0.0183193
-0.010669
-0.0714829
0.0638326
0.00610287
-0.00303445
-0.00952164
0.00645322
0.00138339
-0.000437642
0.00564769
-0.00659344
6.91956e-05
0.00234275
-0.00241195
-0.0863764
0.0837777
0.00259865
-0.00599221
0.00451868
-0.432165
0.433638
-0.00054061
-0.00352134
-0.596826
0.600888
0.0085393
-0.0146029
-0.730194
0.736258
0.0217946
-0.0288569
-0.853137
0.860199
0.0365763
-0.0436559
-0.981582
0.988662
0.0514506
-0.0584887
-1.12709
1.13413
0.0660014
-0.0725552
-1.2906
1.29715
0.0792161
-0.0846693
-1.47368
1.47914
0.0897615
-0.0932061
-1.67825
1.6817
0.0955507
-0.0967818
-1.60315
1.60438
0.0970882
-0.0968113
-1.29562
1.29534
0.0958541
-0.0933306
-1.04979
1.04727
0.0879304
-0.0772368
-0.790795
0.780101
0.0631839
-0.0461188
-0.472347
0.455282
0.0321416
-0.0205221
-0.197364
0.185745
0.0131175
-0.00777118
-0.0554083
0.050062
0.00455641
-0.00233138
-0.00291645
0.000691414
0.00110047
-0.000363946
0.00777218
-0.0085087
6.80134e-05
0.00256165
-0.00262966
-0.0849109
0.0826139
0.00229701
-0.00634494
0.00552685
-0.439625
0.440443
-0.00303832
-0.000298284
-0.607607
0.610943
0.00509497
-0.0102704
-0.742619
0.747794
0.0164331
-0.0225428
-0.866362
0.872472
0.029363
-0.035654
-0.995356
1.00165
0.0427151
-0.0488735
-1.14087
1.14702
0.0555729
-0.0614107
-1.30339
1.30923
0.0672594
-0.0720066
-1.48433
1.48907
0.0763556
-0.0795909
-1.68515
1.68839
0.0814372
-0.0824673
-1.60518
1.60621
0.0824982
-0.0818856
-1.2942
1.29358
0.0807734
-0.07768
-1.04172
1.03862
0.072127
-0.0620552
-0.766341
0.756269
0.0495695
-0.0353797
-0.436177
0.421987
0.0244879
-0.0157209
-0.17272
0.163953
0.0102311
-0.00619177
-0.0438313
0.039792
0.00369898
-0.00193749
0.00198275
-0.00374423
0.000935332
-0.000325651
0.0094096
-0.0100193
6.70149e-05
0.00273469
-0.0028017
-0.0836446
0.0817724
0.00187222
-0.00587535
0.00557642
-0.445131
0.44543
-0.00355456
0.00102561
-0.616943
0.619471
0.00335017
-0.00798105
-0.753331
0.757962
0.0137132
-0.0189314
-0.878106
0.883324
0.0248571
-0.0303647
-1.00786
1.01337
0.0368989
-0.0423742
-1.15317
1.15864
0.0482243
-0.0535286
-1.31483
1.32014
0.0591178
-0.0632799
-1.4938
1.49797
0.0671759
-0.0698293
-1.69126
1.69391
0.0716016
-0.0720849
-1.60702
1.6075
0.0720936
-0.0714214
-1.29232
1.29164
0.0698872
-0.0666584
-1.03311
1.02988
0.0610446
-0.0514433
-0.743094
0.733493
0.0405592
-0.0285805
-0.405708
0.393729
0.0198061
-0.0129546
-0.153791
0.146939
0.00856474
-0.00527181
-0.034872
0.0315791
0.00319507
-0.00169559
0.00590784
-0.00740732
0.000826535
-0.000292934
0.0107421
-0.0112757
6.50636e-05
0.00287125
-0.00293631
-0.0827682
0.0812311
0.00153707
-0.00513763
0.00515949
-0.449305
0.449284
-0.00339805
0.00109781
-0.624924
0.627224
0.00290964
-0.00700178
-0.762805
0.766898
0.0118422
-0.0167322
-0.888431
0.893321
0.0220741
-0.0275309
-1.01862
1.02407
0.0330501
-0.0380634
-1.16416
1.16917
0.0437084
-0.0484102
-1.32524
1.32994
0.0530491
-0.0571652
-1.50196
1.50607
0.0606647
-0.0630411
-1.69661
1.69899
0.0644035
-0.0649206
-1.60816
1.60867
0.0647918
-0.0639312
-1.29027
1.28941
0.0622662
-0.0587755
-1.02449
1.021
0.0532294
-0.0443901
-0.721171
0.712332
0.034453
-0.0242802
-0.379771
0.369598
0.017043
-0.0113302
-0.138672
0.132959
0.00762987
-0.0048025
-0.0274383
0.0246109
0.00294734
-0.00157638
0.00926139
-0.0106324
0.000769409
-0.000269844
0.011879
-0.0123786
6.16869e-05
0.00297866
-0.00304035
-0.0823474
0.0809962
0.0013512
-0.00411784
0.00405219
-0.452745
0.45281
-0.0026281
0.000452299
-0.632034
0.63421
0.00312772
-0.00697123
-0.771418
0.775262
0.0114735
-0.0157906
-0.897945
0.902262
0.021067
-0.0254951
-1.02885
1.03328
0.0307292
-0.0352934
-1.17427
1.17883
0.0404717
-0.0450014
-1.33451
1.33904
0.0494752
-0.0528649
-1.50983
1.51322
0.0560904
-0.0582313
-1.7012
1.70334
0.0596221
-0.0598224
-1.60899
1.60919
0.0596265
-0.0586475
-1.28838
1.2874
0.0568954
-0.0531767
-1.01567
1.01195
0.0478192
-0.0394126
-0.70069
0.692283
0.0304963
-0.021634
-0.357513
0.34865
0.0154065
-0.0105601
-0.12594
0.121094
0.0072983
-0.00471488
-0.0209324
0.0183489
0.00295309
-0.00160194
0.0123216
-0.0136728
0.0007841
-0.000279467
0.0129068
-0.0134114
6.13993e-05
0.00305553
-0.00311693
-0.0821356
0.081107
0.00102864
-0.00317134
0.00274903
-0.455954
0.456376
-0.00162737
-0.000512484
-0.638128
0.640268
0.00364254
-0.00724397
-0.77923
0.782832
0.0114242
-0.015731
-0.906388
0.910695
0.0201839
-0.0245943
-1.03786
1.04227
0.0295467
-0.033631
-1.18375
1.18783
0.038575
-0.0426995
-1.34324
1.34737
0.0467589
-0.0501969
-1.51689
1.52033
0.0532774
-0.0550232
-1.70538
1.70713
0.0559548
-0.056224
-1.60946
1.60973
0.0560568
-0.054926
-1.28606
1.28493
0.0529785
-0.0493614
-1.00691
1.00329
0.0437602
-0.0360195
-0.68127
0.67353
0.0279593
-0.0201192
-0.338109
0.330269
0.0147326
-0.0104161
-0.11491
0.110593
0.00744917
-0.00496821
-0.0149732
0.0124922
0.00319553
-0.00177824
0.0153185
-0.0167358
0.000898064
-0.000325626
0.013946
-0.0145184
7.3458e-05
0.00311764
-0.0031911
-0.0822865
0.0814266
0.000859968
-0.00235208
0.00207651
-0.459116
0.459391
-0.000516716
-0.00136406
-0.64407
0.645951
0.00457589
-0.00794319
-0.786293
0.78966
0.0118353
-0.0155957
-0.914611
0.918372
0.0200196
-0.0239309
-1.0466
1.05052
0.0286063
-0.0329109
-1.19229
1.1966
0.0371637
-0.0412895
-1.35141
1.35554
0.0453433
-0.0483759
-1.52349
1.52652
0.0511831
-0.0530222
-1.70891
1.71075
0.0536721
-0.0538536
-1.60968
1.60986
0.0533088
-0.052116
-1.28363
1.28244
0.0501949
-0.0464003
-0.998317
0.994523
0.0410401
-0.0336672
-0.6632
0.655827
0.0263516
-0.0193641
-0.320817
0.313829
0.0145736
-0.0107158
-0.105116
0.101258
0.00793379
-0.00548716
-0.00928157
0.00683495
0.00365022
-0.00211506
0.0184173
-0.0199525
0.00110751
-0.000416873
0.0151171
-0.0158077
9.76027e-05
0.00319654
-0.00329414
-0.0827055
0.0820168
0.00068867
-0.00137775
0.000995592
-0.462217
0.4626
0.000325722
-0.00243597
-0.649405
0.651515
0.00549849
-0.00862005
-0.7929
0.796022
0.0124913
-0.0159874
-0.922063
0.925559
0.0201067
-0.023993
-1.05485
1.05874
0.0283754
-0.0324262
-1.20065
1.2047
0.0366261
-0.0404679
-1.35944
1.36328
0.0442918
-0.047635
-1.52967
1.53301
0.0502553
-0.0516679
-1.71227
1.71368
0.0522336
-0.0519168
-1.60967
1.60935
0.0512968
-0.0500683
-1.28097
1.27974
0.0477806
-0.0439297
-0.989695
0.985844
0.0386965
-0.0316446
-0.646292
0.63924
0.0250968
-0.0188939
-0.305552
0.299349
0.0146774
-0.0111566
-0.0962962
0.0927754
0.00853263
-0.0060938
-0.00371741
0.00127858
0.0041913
-0.00252576
0.0217321
-0.0233976
0.00137458
-0.000542759
0.0165163
-0.0173481
0.000140014
0.00332201
-0.00346203
-0.0833459
0.0827761
0.000569773
-0.000574123
0.000133949
-0.465324