/*--------------------------------*- C++ -*----------------------------------*\
  =========                 |
  \\      /  F ield         | OpenFOAM: The Open Source CFD Toolbox
   \\    /   O peration     | Website:  https://openfoam.org
    \\  /    A nd           | Version:  6
     \\/     M anipulation  |
\*---------------------------------------------------------------------------*/
FoamFile
{
    version     2.0;
    format      ascii;
    class       volScalarField;
    location    "42.2";
    object      p;
}
// * * * * * * * * * * * * * * * * * * * * * * * * * * * * * * * * * * * * * //

dimensions      [0 2 -2 0 0 0 0];

internalField   nonuniform List<scalar> 
8800
(
0.88527
0.835952
0.797979
0.769898
0.749718
0.735101
0.724462
0.71687
0.711913
0.709746
0.711004
0.715253
0.721976
0.731347
0.744046
0.761341
0.785201
0.818288
0.861218
0.91373
0.719779
0.726121
0.735263
0.738801
0.736177
0.730067
0.723095
0.716806
0.711936
0.708978
0.708635
0.711155
0.71571
0.721774
0.728829
0.735832
0.740689
0.74055
0.733864
0.724958
0.693329
0.69956
0.70405
0.707905
0.710832
0.711751
0.710621
0.708439
0.706373
0.705424
0.706333
0.708682
0.711488
0.7137
0.714178
0.712358
0.708969
0.70494
0.700149
0.696431
0.689082
0.691844
0.694438
0.696578
0.69829
0.699824
0.70088
0.701165
0.700957
0.700931
0.701601
0.702628
0.703281
0.703061
0.702034
0.700642
0.698944
0.696621
0.694198
0.692631
0.684099
0.685521
0.687347
0.689406
0.691089
0.692342
0.693384
0.694285
0.694984
0.695576
0.696135
0.696466
0.696386
0.695942
0.695213
0.694052
0.69236
0.69044
0.689074
0.688271
0.679203
0.680103
0.681335
0.682937
0.684596
0.686081
0.687301
0.688332
0.689269
0.690119
0.690725
0.690962
0.690849
0.690384
0.689507
0.688262
0.686856
0.685558
0.684722
0.684199
0.674413
0.675067
0.676012
0.677303
0.678712
0.680176
0.681586
0.682844
0.683963
0.684975
0.685712
0.686017
0.685884
0.685329
0.684456
0.683441
0.68239
0.681445
0.68085
0.680467
0.669733
0.670236
0.671005
0.672115
0.673372
0.674729
0.676153
0.677576
0.678923
0.680154
0.681051
0.68143
0.68132
0.680849
0.680168
0.679387
0.678575
0.677863
0.677419
0.677122
0.665109
0.665509
0.666153
0.667142
0.668325
0.669625
0.671038
0.672546
0.674094
0.67558
0.676684
0.677202
0.677239
0.676958
0.676486
0.6759
0.675274
0.674743
0.674407
0.674168
0.660473
0.660799
0.661355
0.662264
0.663398
0.664679
0.666116
0.667708
0.669418
0.671152
0.672542
0.673323
0.673603
0.673547
0.673279
0.672891
0.672436
0.672054
0.671801
0.671603
0.655739
0.656009
0.656505
0.657366
0.65848
0.65978
0.661279
0.66299
0.664899
0.666937
0.668678
0.669791
0.670367
0.670564
0.670514
0.670318
0.670034
0.66978
0.669593
0.669425
0.65083
0.651056
0.651512
0.652357
0.653492
0.654854
0.656453
0.658331
0.660498
0.662903
0.665083
0.666603
0.667524
0.668014
0.668203
0.668203
0.668083
0.667942
0.667808
0.667662
0.645668
0.64586
0.646297
0.647154
0.648348
0.649818
0.651584
0.65371
0.656231
0.659114
0.661821
0.663811
0.665116
0.665918
0.666367
0.66657
0.666616
0.666581
0.666492
0.666362
0.640162
0.640325
0.64076
0.64166
0.642959
0.644588
0.646588
0.649045
0.652018
0.655496
0.658853
0.661403
0.663156
0.664313
0.66505
0.665483
0.665693
0.665752
0.665703
0.665585
0.634208
0.634347
0.634793
0.635764
0.637211
0.639054
0.641346
0.644209
0.647735
0.651947
0.656094
0.65933
0.661638
0.66323
0.664305
0.664992
0.665383
0.665546
0.665534
0.665425
0.627692
0.627806
0.628278
0.629347
0.630983
0.633106
0.635779
0.639153
0.643369
0.648472
0.653594
0.657668
0.660644
0.662751
0.664216
0.665197
0.665796
0.666064
0.666089
0.665985
0.62045
0.620547
0.621055
0.62225
0.624135
0.62662
0.629795
0.633845
0.638932
0.645144
0.651448
0.656529
0.660272
0.66297
0.664903
0.66622
0.667047
0.667429
0.66749
0.667388
0.612253
0.612345
0.612903
0.61427
0.616484
0.619433
0.623228
0.628117
0.63433
0.641944
0.649664
0.655913
0.660574
0.663988
0.666474
0.668195
0.669285
0.669791
0.669888
0.669787
0.602841
0.60291
0.603548
0.605131
0.607755
0.611279
0.615856
0.621777
0.629304
0.638585
0.648065
0.655799
0.661597
0.665882
0.669042
0.671252
0.67266
0.673309
0.673443
0.673338
0.591847
0.591899
0.592638
0.594511
0.59765
0.601927
0.607531
0.614817
0.624095
0.635487
0.647057
0.656464
0.663553
0.668849
0.67279
0.67558
0.677347
0.678153
0.678324
0.678212
0.578722
0.578762
0.579637
0.581901
0.585737
0.59101
0.597944
0.606959
0.618399
0.632367
0.646454
0.657876
0.666505
0.672988
0.677863
0.681342
0.683531
0.684509
0.684712
0.684588
0.562704
0.56274
0.563821
0.566627
0.571397
0.578004
0.586707
0.597981
0.612157
0.629259
0.646356
0.660123
0.67053
0.678398
0.684374
0.688666
0.691342
0.692504
0.692729
0.692585
0.542619
0.542665
0.544079
0.547719
0.553866
0.562396
0.57358
0.587903
0.605612
0.626549
0.647085
0.663462
0.675835
0.685259
0.692419
0.697629
0.700822
0.702159
0.702392
0.70222
0.516626
0.516708
0.51871
0.523726
0.532035
0.54342
0.558099
0.576463
0.598557
0.624033
0.648525
0.667839
0.682389
0.693518
0.702023
0.708212
0.71192
0.713398
0.713618
0.713414
0.48167
0.481888
0.485104
0.492702
0.504726
0.520545
0.540272
0.564014
0.591544
0.62228
0.651106
0.673523
0.690356
0.703268
0.713185
0.720343
0.724497
0.726047
0.726225
0.725986
0.431993
0.43309
0.439563
0.452504
0.471029
0.493718
0.520425
0.550932
0.584833
0.621418
0.654883
0.680545
0.699718
0.714434
0.725784
0.733859
0.738313
0.739836
0.739943
0.739668
0.35916
0.366555
0.381493
0.404224
0.432436
0.464317
0.499531
0.537834
0.578851
0.621878
0.66042
0.689654
0.711476
0.728283
0.741238
0.750211
0.754987
0.75653
0.756619
0.75638
0.281437
0.297512
0.321805
0.355081
0.393549
0.434805
0.478635
0.524992
0.573607
0.623886
0.668603
0.702466
0.727798
0.74736
0.762367
0.772548
0.777645
0.779157
0.779281
0.779171
0.214913
0.23461
0.26673
0.309033
0.356578
0.406662
0.458885
0.513155
0.56921
0.626487
0.677058
0.715252
0.743824
0.765918
0.7828
0.793837
0.799096
0.800702
0.800876
0.800837
0.160526
0.182439
0.219913
0.268728
0.32337
0.380862
0.440507
0.502064
0.565105
0.629028
0.685091
0.727301
0.758785
0.783023
0.801421
0.813554
0.819542
0.821203
0.821399
0.821411
0.115332
0.138556
0.179889
0.23378
0.294138
0.357739
0.423714
0.491702
0.561116
0.631196
0.692414
0.738275
0.772413
0.798636
0.818475
0.831534
0.8381
0.839965
0.84027
0.840312
0.0766916
0.100734
0.14492
0.202914
0.268058
0.336865
0.408324
0.481989
0.557163
0.632896
0.698851
0.748092
0.784604
0.812553
0.833471
0.847258
0.854287
0.856501
0.856894
0.85695
0.0425923
0.06721
0.113635
0.175018
0.24423
0.317556
0.393874
0.472652
0.553074
0.634022
0.704366
0.756731
0.795337
0.8246
0.846233
0.860496
0.867944
0.870505
0.871013
0.871069
0.01156
0.0366669
0.0849506
0.149219
0.221952
0.299237
0.379915
0.463365
0.54864
0.634509
0.709013
0.764293
0.804762
0.835048
0.857215
0.87182
0.879564
0.88238
0.882973
0.883022
-0.0173785
0.00818735
0.0580643
0.124886
0.200702
0.281495
0.366104
0.453843
0.543694
0.634268
0.712837
0.7709
0.813074
0.844256
0.866868
0.881747
0.889717
0.892672
0.893255
0.893262
-0.0449709
-0.0188953
0.0324552
0.101558
0.180108
0.264044
0.352213
0.443917
0.538093
0.633237
0.715829
0.77665
0.820455
0.852471
0.875477
0.890554
0.898616
0.901642
0.902253
0.902233
-0.0715186
-0.0449804
0.00772684
0.0789065
0.15992
0.246692
0.338101
0.433471
0.531742
0.631364
0.717985
0.781603
0.82707
0.859963
0.883383
0.898639
0.906729
0.909735
0.910357
0.910335
-0.097398
-0.0703053
-0.0163352
0.0567316
0.139975
0.229308
0.323676
0.422438
0.524587
0.628576
0.719282
0.785815
0.833062
0.866934
0.890826
0.906247
0.914347
0.917283
0.917824
0.917756
-0.122675
-0.0950265
-0.0398665
0.0349252
0.120187
0.211836
0.308898
0.410796
0.516593
0.624831
0.719686
0.789324
0.838539
0.873512
0.897924
0.913491
0.92152
0.924344
0.924789
0.924659
-0.14742
-0.119199
-0.0629288
0.0134461
0.100529
0.194264
0.293766
0.398535
0.507746
0.620085
0.719142
0.792119
0.843556
0.879798
0.904771
0.920419
0.928267
0.930892
0.931219
0.931044
-0.17169
-0.142877
-0.0855166
-0.00770344
0.080999
0.176609
0.278309
0.385691
0.498056
0.614298
0.717575
0.794144
0.84815
0.885901
0.911477
0.927105
0.934643
0.936972
0.937175
0.936967
-0.195502
-0.166018
-0.107615
-0.0285034
0.0616467
0.158918
0.262583
0.37231
0.487547
0.607443
0.714902
0.795304
0.852301
0.891929
0.918202
0.933634
0.940636
0.94257
0.942637
0.942408
-0.218686
-0.188572
-0.129182
-0.0489228
0.0425174
0.141264
0.246655
0.358469
0.476275
0.599532
0.71105
0.795479
0.855918
0.897967
0.925197
0.94023
0.946321
0.947667
0.947581
0.947348
-0.241202
-0.210488
-0.150186
-0.0689012
0.0236772
0.123711
0.230619
0.344245
0.464318
0.590588
0.705965
0.794535
0.858832
0.903992
0.932791
0.947397
0.952
0.952307
0.951986
0.951793
-0.263101
-0.231728
-0.170591
-0.0883928
0.00519525
0.106347
0.214565
0.329741
0.451767
0.580673
0.699601
0.792335
0.860795
0.909769
0.9412
0.956025
0.958683
0.956947
0.955886
0.955899
-0.284222
-0.252261
-0.190337
-0.107327
-0.0128664
0.0892593
0.198592
0.315068
0.438737
0.56989
0.691943
0.78873
0.861531
0.914803
0.950146
0.966961
0.9686
0.963943
0.960061
0.958245
-0.304659
-0.272092
-0.209431
-0.125737
-0.0305449
0.0724007
0.182639
0.300158
0.425148
0.558165
0.682836
0.783456
0.860741
0.918461
0.958632
0.979959
0.983746
0.977925
0.966768
0.965571
-0.32433
-0.291298
-0.228017
-0.143824
-0.0481468
0.0554201
0.166274
0.2845
0.410427
0.544831
0.671579
0.775686
0.857815
0.919826
0.964431
0.991612
0.998889
0.989764
0.971665
0.96699
-0.343095
-0.309847
-0.245921
-0.161379
-0.0654148
0.0386271
0.149715
0.268428
0.394882
0.530158
0.65829
0.764909
0.852128
0.917748
0.962916
0.989817
1.00106
0.979155
0.920216
0.89403
-0.360837
-0.328564
-0.262745
-0.177884
-0.0816468
0.0225098
0.133232
0.252213
0.378796
0.514328
0.643059
0.750662
0.842863
0.911645
0.949622
0.970221
0.965822
0.918642
0.857182
0.819285
-0.405067
-0.346638
-0.278345
-0.193976
-0.097624
0.00614209
0.116961
0.235737
0.361972
0.497018
0.625532
0.732519
0.82661
0.900116
0.924191
0.920613
0.882581
0.822984
0.756019
0.719126
-0.380434
-0.362112
-0.301899
-0.217623
-0.121894
-0.0183956
0.0917307
0.209803
0.334977
0.46831
0.594805
0.699088
0.784544
0.863024
0.854565
0.756785
0.673098
0.614745
0.553347
0.582925
-0.412305
-0.380491
-0.319461
-0.235728
-0.140171
-0.0369858
0.0732772
0.190676
0.314772
0.446211
0.569892
0.670483
0.746287
0.789488
0.746284
0.615744
0.513096
0.443818
0.364228
0.41257
-0.437195
-0.402912
-0.340074
-0.256219
-0.160763
-0.0576317
0.0525211
0.16912
0.291817
0.420791
0.54062
0.635354
0.699793
0.707113
0.609368
0.461139
0.337538
0.249203
0.156004
0.18992
-0.461507
-0.42609
-0.361837
-0.277349
-0.181787
-0.0787618
0.0309121
0.146554
0.26764
0.393786
0.508876
0.596849
0.644723
0.620629
0.470785
0.29976
0.144469
0.014193
-0.10774
-0.0926541
-0.485577
-0.449704
-0.384521
-0.299468
-0.203731
-0.100888
0.00817202
0.122719
0.241929
0.364878
0.47456
0.555292
0.583572
0.517882
0.334946
0.143017
-0.0401536
-0.190799
-0.394534
-0.473605
-0.510088
-0.474217
-0.408471
-0.323005
-0.227077
-0.124368
-0.015852
0.0975752
0.214804
0.334335
0.438309
0.509952
0.515228
0.398155
0.211326
0.00668927
-0.181677
-0.340867
-0.463175
-0.58299
-0.536123
-0.500118
-0.434051
-0.34836
-0.252378
-0.149898
-0.0420236
0.0701126
0.185027
0.300619
0.398444
0.458358
0.437695
0.284057
0.0956522
-0.103003
-0.274764
-0.36972
-0.395476
-0.409104
-0.563819
-0.527695
-0.461395
-0.375634
-0.279785
-0.177708
-0.0707249
0.0398074
0.151965
0.262901
0.354085
0.397566
0.358632
0.17472
-0.0120788
-0.190579
-0.319795
-0.35658
-0.365461
-0.365764
-0.593455
-0.557074
-0.490542
-0.404813
-0.309247
-0.207806
-0.101984
0.0065945
0.115532
0.221115
0.304651
0.332934
0.264576
0.0746644
-0.106055
-0.261149
-0.333027
-0.346731
-0.347679
-0.347506
-0.625046
-0.588294
-0.521506
-0.435891
-0.340773
-0.24018
-0.135813
-0.029556
0.0757249
0.175327
0.249896
0.264296
0.158787
-0.0163148
-0.186779
-0.309346
-0.336951
-0.337539
-0.337806
-0.337266
-0.658332
-0.621176
-0.554172
-0.468773
-0.374265
-0.274766
-0.172184
-0.0686358
0.0325697
0.125631
0.190822
0.186823
0.0636587
-0.101143
-0.250205
-0.318416
-0.33338
-0.33257
-0.332539
-0.33198
-0.692734
-0.655365
-0.588266
-0.503214
-0.409519
-0.311387
-0.210935
-0.110537
-0.0137702
0.0724225
0.127614
0.107872
-0.024947
-0.17729
-0.293985
-0.327488
-0.327443
-0.328289
-0.328201
-0.328028
-0.727811
-0.690321
-0.623294
-0.538771
-0.446151
-0.349693
-0.25175
-0.154997
-0.0630624
0.0165392
0.0586573
0.0317086
-0.106667
-0.238094
-0.324492
-0.330303
-0.328139
-0.324742
-0.323549
-0.323384
-0.762568
-0.725127
-0.658475
-0.574763
-0.483561
-0.389166
-0.294106
-0.201522
-0.114928
-0.0413966
-0.0107494
-0.0490714
-0.179608
-0.28502
-0.336504
-0.344499
-0.333546
-0.327119
-0.323679
-0.322192
-0.795119
-0.758469
-0.692741
-0.610246
-0.520895
-0.429035
-0.33727
-0.249284
-0.168699
-0.101223
-0.0760773
-0.138936
-0.248272
-0.323929
-0.345082
-0.347715
-0.347742
-0.345506
-0.342489
-0.340482
-0.824382
-0.788807
-0.724639
-0.643952
-0.557
-0.468236
-0.380306
-0.297147
-0.223244
-0.162614
-0.141388
-0.226135
-0.324649
-0.355396
-0.377267
-0.379555
-0.377718
-0.377655
-0.37826
-0.377498
-0.847604
-0.813983
-0.752355
-0.674269
-0.590444
-0.505381
-0.421982
-0.343827
-0.277014
-0.224177
-0.206455
-0.306611
-0.425105
-0.439711
-0.433507
-0.449538
-0.455415
-0.457597
-0.456213
-0.453932
-0.862621
-0.831783
-0.773728
-0.699319
-0.619546
-0.538872
-0.460594
-0.387993
-0.328026
-0.283236
-0.26863
-0.379084
-0.553381
-0.640986
-0.613548
-0.584419
-0.579379
-0.579909
-0.573434
-0.571015
-0.866617
-0.839713
-0.786545
-0.717121
-0.642416
-0.567062
-0.494114
-0.427818
-0.374077
-0.338259
-0.327525
-0.432803
-0.62966
-0.794395
-0.721193
-0.697504
-0.686629
-0.667094
-0.654301
-0.65121
-0.85756
-0.835405
-0.78861
-0.725746
-0.657324
-0.588157
-0.520937
-0.460462
-0.412773
-0.388259
-0.371492
-0.476488
-0.498613
-0.578413
-0.544979
-0.626675
-0.65184
-0.641237
-0.640121
-0.639203
-0.832289
-0.815719
-0.777914
-0.723754
-0.663043
-0.600547
-0.539734
-0.483667
-0.441028
-0.423628
-0.421511
-0.468051
-0.392647
-0.2807
-0.295966
-0.453954
-0.555213
-0.570912
-0.578553
-0.578098
-0.793844
-0.782995
-0.755025
-0.711259
-0.659103
-0.603992
-0.548462
-0.497109
-0.455932
-0.437273
-0.459873
-0.501548
-0.518067
-0.556169
-0.771857
-0.932738
-0.926327
-0.761704
-0.67309
-0.676517
-0.748386
-0.742207
-0.72453
-0.69096
-0.6475
-0.598635
-0.547559
-0.498337
-0.457095
-0.433097
-0.464785
-0.574852
-0.876629
-1.21112
-1.43219
-1.58133
-1.56291
-1.41876
-1.25821
-1.19515
-0.7053
-0.701759
-0.692435
-0.668171
-0.631401
-0.586689
-0.538277
-0.486753
-0.439122
-0.411133
-0.398021
-0.506317
-0.761953
-1.16004
-1.39965
-1.49028
-1.47727
-1.37677
-1.25267
-1.16557
-0.671586
-0.669466
-0.664709
-0.647857
-0.6158
-0.572335
-0.521708
-0.465667
-0.404147
-0.340466
-0.275487
-0.240924
-0.320829
-0.418997
-0.393616
-0.194243
0.105129
0.329584
0.46281
0.521893
-0.644336
-0.643472
-0.642079
-0.632414
-0.60438
-0.55975
-0.503382
-0.438055
-0.357622
-0.260818
-0.150008
0.0299861
0.23314
0.542677
0.928607
1.30494
1.62226
1.85052
1.97395
2.01934
-0.626931
-0.626428
-0.626002
-0.621116
-0.597539
-0.551298
-0.487171
-0.408746
-0.318864
-0.195556
-0.062042
0.120697
0.422776
0.827034
1.36968
1.87938
2.26908
2.50814
2.61936
2.65281
-0.615311
-0.614594
-0.613573
-0.612173
-0.595018
-0.548451
-0.47743
-0.387981
-0.286954
-0.169769
-0.0288632
0.102106
0.340241
0.75642
1.28886
1.78158
2.13499
2.34355
2.4385
2.46142
-0.61322
-0.611018
-0.607983
-0.608705
-0.599861
-0.55292
-0.472657
-0.37683
-0.266941
-0.156028
-0.0247751
0.0930582
0.254873
0.606403
1.03351
1.39623
1.67026
1.82852
1.89484
1.91214
-0.631664
-0.629583
-0.630165
-0.634536
-0.623903
-0.564077
-0.467225
-0.363036
-0.255403
-0.141685
-0.0365051
0.0700943
0.161555
0.396451
0.726478
1.00067
1.19605
1.29974
1.34341
1.35369
-0.659595
-0.663038
-0.673487
-0.677526
-0.65222
-0.567215
-0.452149
-0.34087
-0.237918
-0.133127
-0.0459975
0.0328646
0.110129
0.278189
0.492135
0.668604
0.794705
0.862885
0.890948
0.897059
-0.63962
-0.649542
-0.66392
-0.665546
-0.625825
-0.525839
-0.410955
-0.307726
-0.211713
-0.124678
-0.0544963
-0.0112865
0.0244398
0.143867
0.298498
0.425913
0.507413
0.550283
0.567675
0.570722
-0.50811
-0.517908
-0.530226
-0.529719
-0.493716
-0.417085
-0.334594
-0.254007
-0.17851
-0.110888
-0.0597424
-0.0249113
-0.0178956
0.0770059
0.18683
0.260033
0.305899
0.330016
0.339122
0.340217
-0.295841
-0.301935
-0.310508
-0.314172
-0.300215
-0.269042
-0.23031
-0.184088
-0.136653
-0.0854254
-0.0505574
-0.0196719
-0.00636319
0.0495728
0.130299
0.175017
0.199208
0.209079
0.212699
0.213037
-0.0971636
-0.100219
-0.107182
-0.117839
-0.127599
-0.132241
-0.127645
-0.113997
-0.0904692
-0.0572163
-0.0276354
-0.00249275
0.0221648
0.0592652
0.0991624
0.120969
0.132322
0.140643
0.14359
0.144057
0.027669
0.0260101
0.0197347
0.00498834
-0.0166466
-0.0376895
-0.0521208
-0.0566791
-0.0502396
-0.0296461
-0.00341033
0.024793
0.053856
0.0886471
0.107884
0.115427
0.121216
0.124718
0.126365
0.125778
0.0820823
0.0808727
0.0754648
0.0616808
0.0399213
0.0162014
-0.0037032
-0.0161793
-0.0183728
-0.00760063
0.0150033
0.0453387
0.0760111
0.0926025
0.103155
0.107864
0.113417
0.118692
0.120314
0.119377
0.0954231
0.0945491
0.0905171
0.0799417
0.0626089
0.0423968
0.0237558
0.00927186
0.00284022
0.00695465
0.0244322
0.0509488
0.0779141
0.0829823
0.0877289
0.0944105
0.103802
0.110463
0.112008
0.110551
0.0900018
0.0894342
0.0867081
0.0793783
0.0668614
0.0514415
0.0356994
0.0226804
0.013991
0.0134636
0.0236597
0.0407437
0.0603608
0.0578626
0.0603667
0.0684107
0.0790646
0.0859829
0.0879345
0.086403
0.0774475
0.0770889
0.0753445
0.0705419
0.0620799
0.0509367
0.038833
0.0275298
0.0183504
0.0127845
0.0137571
0.0158053
0.0213979
0.0166538
0.0197723
0.0319573
0.0438635
0.0503515
0.0516808
0.0501218
0.0633201
0.0630738
0.0619776
0.0590046
0.0534954
0.0458599
0.0368357
0.0275617
0.0178208
0.00810512
-0.00183332
-0.0169749
-0.0319774
-0.0405997
-0.0281718
-0.0124899
-0.00106083
0.00351923
0.00463317
0.00385886
0.0503399
0.0501464
0.0494584
0.0477141
0.0442948
0.0393588
0.0327815
0.0253755
0.0157883
0.00357807
-0.0152567
-0.0453826
-0.0715253
-0.0776612
-0.0608035
-0.0442169
-0.0358398
-0.0335427
-0.0333423
-0.0335956
0.0397465
0.0395822
0.0391518
0.038176
0.0362316
0.0330481
0.0285221
0.0227658
0.0145188
0.00238807
-0.0194069
-0.0525421
-0.0827238
-0.0811449
-0.0648123
-0.052943
-0.0491819
-0.049685
-0.0497811
-0.0497257
0.0317551
0.0316154
0.031343
0.0308394
0.0298266
0.0280114
0.0251618
0.0210025
0.0150639
0.00556501
-0.0111625
-0.036392
-0.0560724
-0.0489834
-0.0391061
-0.0356589
-0.0370602
-0.039184
-0.0395401
-0.0395089
0.0259725
0.0258604
0.0256836
0.0254549
0.0250257
0.0240909
0.0227058
0.0201921
0.0171736
0.0126183
0.00617077
-0.00311237
-0.00826104
-0.0017566
-0.000628194
-0.00321647
-0.00708558
-0.00890811
-0.00911277
-0.0093588
0.0217331
0.021662
0.0215749
0.0215014
0.0214154
0.0211244
0.0208385
0.0202152
0.0203141
0.0209829
0.0261085
0.0352353
0.0425794
0.0486043
0.0422537
0.034691
0.0304212
0.0292463
0.0290258
0.0285031
0.0181136
0.0180848
0.0180812
0.0181055
0.0182115
0.0183935
0.0187614
0.0198071
0.0223941
0.0275751
0.042245
0.0684448
0.0916533
0.0894095
0.0775933
0.0677262
0.0648764
0.0647793
0.0641195
0.0631045
0.0144328
0.0144154
0.0144345
0.0144827
0.0147224
0.0152357
0.0160055
0.0179294
0.021723
0.0299419
0.0489753
0.0831969
0.1108
0.105858
0.0910767
0.0846815
0.083337
0.0846737
0.0836826
0.0825929
0.0104516
0.0104339
0.0104458
0.0104813
0.0106769
0.0112161
0.0121052
0.0139853
0.0173748
0.0259297
0.043315
0.0717463
0.091892
0.0868543
0.0806473
0.080926
0.084989
0.0864091
0.0845999
0.0831559
0.00602965
0.00600453
0.0060578
0.00610764
0.00617743
0.00647132
0.00715199
0.00830834
0.0105137
0.0160123
0.0267725
0.0419406
0.0452153
0.0470234
0.0481273
0.0524869
0.0600466
0.0622465
0.060198
0.0587181
0.00139433
0.00134769
0.00131836
0.0013423
0.00140161
0.00125759
0.00120337
0.00170254
0.00184725
0.00222047
0.00291723
0.00537758
0.0041077
0.00711626
0.0101836
0.0150982
0.0125014
0.00823377
0.00965
0.0105517
0.0425314
0.233129
0.40875
0.558206
0.679392
0.776561
0.858145
0.924297
0.941184
0.937214
0.33812
0.461256
0.576915
0.677997
0.763726
0.834979
0.891248
0.92924
0.949482
0.965938
0.53909
0.621364
0.702929
0.774892
0.83658
0.887835
0.928152
0.958752
0.981636
1.00087
0.687441
0.745356
0.804619
0.857971
0.904031
0.943131
0.975833
1.00316
1.0237
1.04262
0.804975
0.849245
0.893757
0.934936
0.971529
1.0038
1.03196
1.05578
1.07389
1.09195
0.905512
0.941437
0.976724
1.01087
1.04232
1.07074
1.09581
1.11682
1.1327
1.1502
0.994075
1.02653
1.05897
1.09031
1.11949
1.14601
1.16925
1.18828
1.20227
1.2193
1.08149
1.11424
1.14682
1.17813
1.207
1.23288
1.2551
1.27269
1.28513
1.30167
1.17613
1.21259
1.24744
1.27998
1.30923
1.33466
1.35584
1.37218
1.38384
1.4
1.28929
1.32984
1.36694
1.4
1.42857
1.45262
1.47229
1.4876
1.49952
1.51561
1.43065
1.47183
1.50714
1.53679
1.56204
1.58369
1.60222
1.61772
1.63086
1.64681
1.60232
1.63488
1.66174
1.68406
1.70416
1.7229
1.74065
1.75743
1.77236
1.78809
1.78876
1.80606
1.82319
1.83988
1.85598
1.87072
1.88463
1.89912
1.91436
1.93166
1.97214
1.98215
1.99536
2.00635
2.01576
2.02542
2.03604
2.04622
2.05552
2.08118
2.19009
2.18439
2.17145
2.15719
2.15089
2.15661
2.17476
2.20328
2.23705
2.27337
2.4929
2.35694
2.27745
2.23494
2.21763
2.2216
2.24903
2.3069
2.41457
2.59297
0.788967
0.782662
0.774927
0.763804
0.750221
0.737557
0.727136
0.719089
0.713324
0.70993
0.709501
0.712262
0.717436
0.724751
0.734269
0.746078
0.759627
0.772546
0.781529
0.789067
0.698054
0.703971
0.712039
0.718163
0.721219
0.72069
0.717579
0.713547
0.709906
0.707557
0.707345
0.70952
0.713213
0.717614
0.721684
0.723906
0.722816
0.718167
0.711105
0.703267
0.69134
0.693712
0.696973
0.699735
0.70217
0.704339
0.70549
0.705304
0.704312
0.703432
0.703561
0.704893
0.706609
0.707789
0.707675
0.70618
0.704001
0.701624
0.698631
0.695609
0.686599
0.687687
0.689598
0.691923
0.693778
0.695153
0.696338
0.697284
0.697821
0.698114
0.698571
0.699225
0.699621
0.699444
0.698771
0.697815
0.696459
0.69447
0.692349
0.690867
0.681639
0.682273
0.683396
0.68514
0.686964
0.68853
0.689743
0.690754
0.691662
0.692465
0.693139
0.693555
0.693608
0.693332
0.692741
0.691725
0.690265
0.688629
0.687274
0.686468
0.676797
0.677236
0.678018
0.679307
0.680806
0.682338
0.683772
0.685006
0.686076
0.687049
0.687868
0.688347
0.688424
0.688104
0.687374
0.686322
0.685126
0.68395
0.683026
0.682488
0.672065
0.672393
0.673
0.674054
0.675325
0.67669
0.678118
0.679522
0.680818
0.681996
0.682988
0.683574
0.683669
0.683318
0.682637
0.681784
0.680882
0.679986
0.679299
0.678903
0.667422
0.667677
0.668165
0.669061
0.670206
0.671476
0.672844
0.674294
0.675767
0.677182
0.678392
0.679119
0.679294
0.679058
0.678565
0.677928
0.677222
0.67654
0.676029
0.675726
0.662802
0.663005
0.66341
0.664196
0.665264
0.666484
0.667833
0.66932
0.670919
0.672554
0.674022
0.67497
0.675342
0.675314
0.675029
0.67459
0.674068
0.673562
0.673184
0.672945
0.658127
0.65829
0.658637
0.65935
0.660371
0.661568
0.662939
0.664496
0.666229
0.66809
0.669861
0.671124
0.67178
0.672005
0.671943
0.671705
0.671371
0.671021
0.670751
0.67056
0.653315
0.653447
0.653751
0.654419
0.655421
0.656639
0.658065
0.659727
0.661638
0.663768
0.665911
0.667572
0.668579
0.669102
0.669293
0.669265
0.669107
0.668905
0.668727
0.668574
0.64829
0.648396
0.648673
0.649322
0.650341
0.651623
0.653154
0.654981
0.657147
0.659645
0.662254
0.664379
0.665779
0.666635
0.667098
0.667293
0.667318
0.667253
0.667154
0.667029
0.642966
0.64305
0.64331
0.643966
0.64504
0.646428
0.648122
0.650194
0.652699
0.655653
0.658833
0.661534
0.663401
0.664626
0.665385
0.665826
0.666043
0.666112
0.666081
0.665979
0.63725
0.637313
0.637566
0.63825
0.639416
0.64096
0.642875
0.64526
0.648201
0.65175
0.655641
0.659012
0.661428
0.663091
0.6642
0.664916
0.665336
0.66554
0.665574
0.665494
0.631033
0.631077
0.631329
0.632062
0.633353
0.635101
0.6373
0.640068
0.643534
0.647777
0.652534
0.656758
0.659866
0.662076
0.663598
0.664625
0.665295
0.665648
0.665746
0.665682
0.624181
0.624198
0.624453
0.625258
0.626712
0.628722
0.631299
0.634582
0.638729
0.643863
0.649681
0.654923
0.658839
0.661681
0.663678
0.665069
0.666016
0.666532
0.666696
0.666648
0.616488
0.616502
0.616764
0.61766
0.619336
0.621696
0.624752
0.628686
0.633705
0.639952
0.647074
0.653545
0.658416
0.661983
0.664555
0.666393
0.667643
0.668333
0.668567
0.668533
0.607698
0.60768
0.607988
0.609021
0.610984
0.613778
0.617432
0.622172
0.628258
0.635894
0.64462
0.652546
0.658579
0.663052
0.666312
0.668687
0.67031
0.671205
0.671516
0.671493
0.597545
0.597506
0.59786
0.599066
0.601368
0.604702
0.60912
0.614889
0.622308
0.63161
0.642283
0.652045
0.659475
0.665013
0.669104
0.672114
0.674176
0.675309
0.675702
0.675689
0.585536
0.585474
0.585898
0.587339
0.590099
0.594161
0.599595
0.606721
0.615908
0.6274
0.640453
0.652272
0.661283
0.668056
0.67311
0.676852
0.67943
0.680832
0.681311
0.681304
0.57104
0.570955
0.571496
0.573258
0.576619
0.581641
0.588398
0.597254
0.60861
0.622703
0.638637
0.653016
0.663955
0.672196
0.67841
0.683042
0.68623
0.687938
0.688503
0.688492
0.5531
0.552998
0.553731
0.555973
0.560189
0.566559
0.575154
0.586379
0.600642
0.618082
0.637447
0.654683
0.667741
0.677625
0.685158
0.690797
0.694674
0.69671
0.697352
0.697327
0.53023
0.530129
0.531197
0.534207
0.539744
0.548122
0.559346
0.573801
0.591799
0.613317
0.636708
0.657237
0.672694
0.684409
0.693374
0.700146
0.704764
0.707124
0.707822
0.707772
0.50007
0.500018
0.501691
0.506042
0.513828
0.525373
0.540496
0.559428
0.582256
0.608708
0.636718
0.660855
0.678896
0.692574
0.703102
0.711078
0.716427
0.719059
0.719778
0.719692
0.458485
0.458639
0.461651
0.468823
0.480841
0.49763
0.518573
0.543578
0.572429
0.604657
0.637771
0.665752
0.686492
0.702199
0.714336
0.723524
0.729515
0.732288
0.732968
0.73284
0.397824
0.399141
0.406492
0.420125
0.439892
0.465005
0.494138
0.52684
0.562794
0.601451
0.640029
0.67199
0.695462
0.713189
0.7269
0.737201
0.743667
0.746405
0.746945
0.74678
0.324816
0.327455
0.341757
0.365359
0.395779
0.430772
0.468832
0.509774
0.553417
0.599286
0.644343
0.681382
0.708568
0.729182
0.745017
0.756679
0.763802
0.766704
0.76733
0.767296
0.249959
0.256899
0.278367
0.311891
0.352651
0.39729
0.444293
0.493563
0.545002
0.598204
0.649913
0.692241
0.723299
0.746942
0.765211
0.778486
0.786163
0.788897
0.789389
0.789454
0.189081
0.197817
0.223959
0.264555
0.313369
0.366185
0.421266
0.478351
0.537245
0.597484
0.655531
0.702805
0.737429
0.763755
0.784079
0.798625
0.806601
0.809583
0.810467
0.810622
0.139147
0.148582
0.17823
0.224066
0.279007
0.338381
0.400256
0.464227
0.529904
0.596713
0.660712
0.712589
0.750463
0.779166
0.80125
0.817025
0.825912
0.82948
0.830526
0.830699
0.0971764
0.10691
0.138955
0.188871
0.248816
0.313644
0.381265
0.451207
0.522947
0.59575
0.665277
0.721399
0.762216
0.793117
0.8168
0.833619
0.843244
0.847251
0.848448
0.848622
0.0606934
0.0705745
0.104432
0.157611
0.221707
0.291186
0.363813
0.439028
0.516223
0.594502
0.669092
0.729156
0.772656
0.805422
0.830305
0.847869
0.858146
0.862578
0.863867
0.864045
0.0280423
0.0379971
0.0732889
0.129173
0.19679
0.270286
0.347332
0.427298
0.509475
0.592816
0.672158
0.735879
0.781848
0.816131
0.841853
0.85989
0.870641
0.875414
0.876836
0.877032
-0.00199853
0.00801998
0.0444698
0.102716
0.17339
0.250397
0.331377
0.415664
0.50244
0.590563
0.674457
0.741685
0.789921
0.825535
0.85194
0.870375
0.881431
0.886456
0.887962
0.888151
-0.0303181
-0.0202263
0.0172991
0.0776474
0.151019
0.23113
0.315637
0.40386
0.494935
0.587618
0.675953
0.746632
0.797038
0.833867
0.860857
0.879625
0.890861
0.896027
0.897543
0.897727
-0.0574385
-0.0472268
-0.00871775
0.0535285
0.129319
0.212214
0.299911
0.391738
0.486826
0.583894
0.67662
0.750756
0.803314
0.841347
0.868918
0.887975
0.89934
0.904543
0.906053
0.906156
-0.0837196
-0.0733421
-0.0339025
0.0300895
0.108061
0.19347
0.284058
0.379193
0.478036
0.579322
0.676411
0.75407
0.808866
0.848173
0.876396
0.895752
0.907212
0.912379
0.913842
0.913931
-0.10939
-0.0987699
-0.0584395
0.00716134
0.0871122
0.174789
0.268002
0.366175
0.468523
0.573849
0.675278
0.756582
0.813782
0.854499
0.883462
0.903133
0.914664
0.919753
0.921117
0.921167
-0.134488
-0.123606
-0.0824287
-0.0153471
0.0664068
0.156134
0.251718
0.352666
0.458269
0.567438
0.673166
0.758279
0.81811
0.860422
0.890216
0.910198
0.921714
0.926647
0.92788
0.927867
-0.159077
-0.147926
-0.105926
-0.0374448
0.0459281
0.137492
0.235216
0.338682
0.447283
0.560077
0.67002
0.7591
0.821856
0.866028
0.896771
0.917029
0.928429
0.933114
0.934155
0.934072
-0.183143
-0.171719
-0.128899
-0.0591255
0.0256957
0.118899
0.218539
0.324269
0.435597
0.551753
0.665782
0.758955
0.824981
0.87138
0.903255
0.923736
0.93483
0.93911
0.939928
0.939789
-0.206721
-0.194957
-0.151307
-0.0803633
0.00574436
0.100405
0.201745
0.309496
0.423265
0.542486
0.660403
0.757744
0.827386
0.8765
0.909839
0.930502
0.941007
0.944658
0.945193
0.945003
-0.229575
-0.217582
-0.173119
-0.10112
-0.0138662
0.0820882
0.184905
0.294435
0.410363
0.532331
0.653857
0.755369
0.828933
0.881323
0.916706
0.937689
0.947218
0.949812
0.949922
0.949695
-0.251855
-0.239529
-0.194293
-0.121356
-0.033091
0.0639969
0.168117
0.279173
0.396978
0.521367
0.646149
0.751733
0.829438
0.885643
0.923921
0.945843
0.954164
0.954939
0.954157
0.953872
-0.273375
-0.260757
-0.214806
-0.141014
-0.0518424
0.0462206
0.151469
0.263831
0.383219
0.509666
0.637317
0.746743
0.828706
0.889121
0.931234
0.955439
0.96325
0.961519
0.958525
0.957672
-0.294233
-0.281289
-0.234596
-0.160033
-0.0700801
0.0288302
0.135048
0.248493
0.369194
0.497367
0.627436
0.74031
0.826545
0.891332
0.937902
0.966166
0.975838
0.973002
0.966223
0.956408
-0.314315
-0.301121
-0.253764
-0.178587
-0.0880368
0.0115249
0.118496
0.232729
0.354425
0.483934
0.61595
0.731803
0.822427
0.891813
0.94295
0.976661
0.991465
0.989977
0.979283
0.975927
-0.33358
-0.320338
-0.272308
-0.196611
-0.105687
-0.0056676
0.101849
0.216521
0.338883
0.46925
0.602698
0.720798
0.815698
0.889768
0.944143
0.981601
0.999609
1.00284
0.969333
0.929688
-0.351794
-0.338801
-0.290177
-0.213974
-0.123008
-0.0227637
0.0851184
0.200005
0.322643
0.453367
0.587633
0.707033
0.805398
0.884546
0.939516
0.971117
0.989439
0.97562