/*--------------------------------*- C++ -*----------------------------------*\
  =========                 |
  \\      /  F ield         | OpenFOAM: The Open Source CFD Toolbox
   \\    /   O peration     | Website:  https://openfoam.org
    \\  /    A nd           | Version:  6
     \\/     M anipulation  |
\*---------------------------------------------------------------------------*/
FoamFile
{
    version     2.0;
    format      ascii;
    class       surfaceScalarField;
    location    "31";
    object      phi;
}
// * * * * * * * * * * * * * * * * * * * * * * * * * * * * * * * * * * * * * //

dimensions      [0 3 -1 0 0 0 0];

internalField   nonuniform List<scalar> 
17370
(
-0.0900014
0.08985
0.289162
-0.0714634
0.053753
0.364486
-0.0381196
0.0276904
0.426597
-0.0196366
0.0146002
0.504288
-0.010753
0.0082575
0.601898
-0.00625362
0.00487736
0.720434
-0.00371998
0.0028903
0.863736
-0.00216401
0.00161928
1.036
-0.00111667
0.000713049
1.24291
-0.00031144
-7.29993e-05
1.49158
0.000449049
-0.000857923
1.4916
0.00125684
-0.00174994
1.24318
0.00228388
-0.00299792
1.03635
0.00381791
-0.00496637
0.864055
0.00633524
-0.00833136
0.721054
0.01082
-0.0146601
0.603055
0.0196905
-0.0277381
0.507487
0.0381615
-0.053788
0.431795
0.0714916
-0.0898687
0.365153
0.0900123
0.198999
-0.128129
0.0882156
0.0399137
-0.364591
0.353364
-0.0746849
0.0859122
-0.446473
0.454309
-0.0844135
0.0765771
-0.521185
0.529893
-0.068483
0.0597755
-0.612782
0.621559
-0.0515897
0.0428119
-0.726885
0.734151
-0.0353524
0.0280863
-0.867465
0.872563
-0.022494
0.0173968
-1.03846
1.04189
-0.0136071
0.0101822
-1.24459
1.24701
-0.00759123
0.00517796
-1.49265
1.49459
-0.00325151
0.00130402
-1.4925
1.4942
0.000360691
-0.00206717
-1.24398
1.24587
0.00396505
-0.00585774
-1.0375
1.04005
0.00823036
-0.0107813
-0.866096
0.869847
0.0141627
-0.0179138
-0.724398
0.72995
0.0229685
-0.0285202
-0.608708
0.616129
0.0357416
-0.0431624
-0.514906
0.523058
0.0519011
-0.0600535
-0.439863
0.44793
0.0687261
-0.0767934
-0.375302
0.37676
0.0845985
-0.0860566
-0.257344
0.222513
0.074783
-0.0399518
-0.0684979
0.0586683
0.00982959
-0.0518383
0.0584325
-0.374105
0.367511
-0.0575226
0.0537745
-0.453577
0.457325
-0.0486845
0.0447318
-0.527919
0.531872
-0.0408902
0.0372505
-0.621531
0.625171
-0.0331517
0.0290924
-0.735317
0.739376
-0.0245575
0.0204404
-0.874314
0.878431
-0.0161479
0.0124982
-1.04346
1.04711
-0.00880875
0.00566566
-1.24853
1.25168
-0.00236303
-0.000712822
-1.49663
1.49971
0.00376056
-0.00701486
-1.49721
1.50046
0.0100876
-0.0136904
-1.25009
1.25369
0.0172594
-0.0214623
-1.04595
1.05016
0.0255005
-0.0299548
-0.877794
0.882249
0.0339434
-0.037966
-0.739932
0.743955
0.0415388
-0.0453115
-0.626801
0.630574
0.0492068
-0.0542426
-0.534836
0.539872
0.0579336
-0.0587724
-0.457506
0.458345
0.0520967
-0.0319389
-0.335807
0.315649
0.0098724
-0.068383
0.0585106
-0.0529114
0.0489104
0.00400096
-0.0332006
0.0437649
-0.358059
0.347495
-0.0474798
0.0468642
-0.45925
0.459866
-0.0438168
0.0404691
-0.535763
0.539111
-0.0367029
0.0334081
-0.62848
0.631775
-0.0299868
0.0269756
-0.742589
0.7456
-0.0237474
0.0206746
-0.881933
0.885006
-0.0171885
0.0138504
-1.05067
1.05401
-0.0101086
0.00661482
-1.25509
1.25858
-0.00270409
-0.00103806
-1.5032
1.50694
0.00475496
-0.00859286
-1.50413
1.50797
0.0119906
-0.0156161
-1.25743
1.26105
0.0188417
-0.0222066
-1.05395
1.05731
0.0251729
-0.0282861
-0.885757
0.88887
0.0311935
-0.0345039
-0.747247
0.750557
0.0377019
-0.0413704
-0.63439
0.638058
0.0446362
-0.0475916
-0.544206
0.547162
0.048112
-0.0442647
-0.456663
0.452815
0.0335455
-0.0161592
-0.296335
0.278949
0.00405323
-0.0527087
0.0486555
-0.0458263
0.0433267
0.00249961
-0.0228378
0.0332338
-0.336782
0.326386
-0.039071
0.0401014
-0.459521
0.458491
-0.0389279
0.0366589
-0.54179
0.544059
-0.0340104
0.0314332
-0.634781
0.637358
-0.0283998
0.0255419
-0.748625
0.751483
-0.0223393
0.0194087
-0.887973
0.890904
-0.0161743
0.0131339
-1.05714
1.06018
-0.00966527
0.0063082
-1.26199
1.26535
-0.00239329
-0.00144724
-1.51077
1.51461
0.00525449
-0.00906308
-1.51184
1.51564
0.0122881
-0.0155903
-1.26451
1.26781
0.0184708
-0.0215311
-1.06045
1.06351
0.0243096
-0.0273553
-0.891964
0.89501
0.030075
-0.0329604
-0.753789
0.756675
0.0354071
-0.037923
-0.641137
0.643653
0.0400821
-0.0411152
-0.548986
0.550019
0.0399404
-0.0338954
-0.447589
0.441544
0.0232757
-0.0101512
-0.263811
0.250686
0.00256357
-0.0455155
0.042952
-0.0412458
0.0394746
0.00177117
-0.0167704
0.0260393
-0.31651
0.307241
-0.0326681
0.0348252
-0.456872
0.454715
-0.0344141
0.0327457
-0.546023
0.547691
-0.0305638
0.0284781
-0.639634
0.641719
-0.0260812
0.0237472
-0.754081
0.756415
-0.0209912
0.018307
-0.893738
0.896423
-0.0151804
0.0122015
-1.06316
1.06613
-0.00879507
0.00554026
-1.26862
1.27187
-0.00177305
-0.00190932
-1.51838
1.52206
0.0055501
-0.00918687
-1.51939
1.52302
0.0122703
-0.0154587
-1.27104
1.27423
0.0182259
-0.021117
-1.0665
1.06939
0.0235977
-0.0261504
-0.89782
0.900373
0.0283105
-0.0305212
-0.759164
0.761375
0.0324413
-0.0344514
-0.645868
0.647878
0.0359592
-0.0361788
-0.550599
0.550818
0.0338029
-0.0268755
-0.434977
0.42805
0.0173105
-0.00729545
-0.239266
0.229251
0.00184876
-0.0408028
0.0389541
-0.0379481
0.0366175
0.00133055
-0.0127872
0.0207376
-0.29863
0.29068
-0.0275041
0.0304556
-0.452113
0.449161
-0.030708
0.0296432
-0.549066
0.550131
-0.0277156
0.0258562
-0.643695
0.645554
-0.023715
0.0216337
-0.75862
0.760701
-0.0191858
0.0167692
-0.898968
0.901385
-0.0139059
0.0111091
-1.06901
1.07181
-0.00784823
0.00470877
-1.27504
1.27818
-0.00107749
-0.00244855
-1.52562
1.52915
0.00591879
-0.00938691
-1.52658
1.53005
0.0123091
-0.0152892
-1.27737
1.28035
0.0178149
-0.0203846
-1.07215
1.07472
0.0225505
-0.0247443
-0.902707
0.904901
0.0266059
-0.0285137
-0.763401
0.765309
0.030166
-0.0318845
-0.649727
0.651445
0.0327195
-0.0322028
-0.550663
0.550146
0.0289439
-0.0217749
-0.420938
0.413769
0.0134484
-0.00559474
-0.220418
0.212565
0.00142509
-0.0373449
0.0359198
-0.0354542
0.0344327
0.00102156
-0.00995147
0.0166483
-0.283376
0.27668
-0.0231239
0.0264979
-0.445972
0.442598
-0.0272799
0.0265838
-0.55098
0.551676
-0.0248344
0.0230836
-0.647368
0.649119
-0.0211022
0.0192155
-0.762709
0.764595
-0.0170214
0.014859
-0.903656
0.905818
-0.0122897
0.00974594
-1.07441
1.07695
-0.00673425
0.00377105
-1.28119
1.28416
-0.000277465
-0.00313254
-1.53263
1.53604
0.00647562
-0.00976436
-1.53347
1.53676
0.0124542
-0.0151172
-1.28318
1.28584
0.0173154
-0.019497
-1.07708
1.07926
0.0213267
-0.0231936
-0.906897
0.908764
0.0248048
-0.0265044
-0.767082
0.768782
0.0280063
-0.0294783
-0.653069
0.654541
0.0298871
-0.0287281
-0.549332
0.548173
0.0249297
-0.0179256
-0.406661
0.399657
0.0107589
-0.00444359
-0.205551
0.199235
0.00113675
-0.0346569
0.0335202
-0.0335358
0.0327458
0.000790005
-0.00782085
0.0134097
-0.270555
0.264966
-0.0193776
0.0229614
-0.439094
0.43551
-0.0242684
0.023875
-0.552244
0.552637
-0.0224496
0.0208413
-0.650834
0.652443
-0.0189621
0.0171484
-0.766476
0.76829
-0.015025
0.012931
-0.907914
0.910008
-0.0104576
0.00803422
-1.07937
1.0818
-0.0051989
0.00243868
-1.28697
1.28973
0.000777779
-0.00390712
-1.53927
1.5424
0.00696097
-0.00994663
-1.5399
1.54289
0.0123932
-0.0148015
-1.28841
1.29082
0.0167943
-0.0187894
-1.08137
1.08336
0.0204709
-0.0221889
-0.910525
0.912243
0.0236692
-0.0252006
-0.770363
0.771895
0.0264902
-0.0275408
-0.65582
0.656871
0.0275494
-0.0257358
-0.546702
0.544888
0.0215983
-0.014966
-0.39283
0.386197
0.00880137
-0.0036178
-0.193536
0.188352
0.000929527
-0.0325022
0.0315726
-0.0320537
0.031449
0.00060466
-0.00613203
0.0107455
-0.259888
0.255274
-0.0160496
0.0195718
-0.431937
0.428414
-0.0211639
0.0210004
-0.552894
0.553057
-0.0198455
0.018355
-0.653994
0.655485
-0.0165984
0.0148887
-0.770112
0.771822
-0.0128708
0.0108769
-0.912049
0.914043
-0.00853154
0.00625149
-1.08409
1.08637
-0.00359972
0.00102636
-1.29235
1.29492
0.00197586
-0.00490277
-1.5454
1.54833
0.00772777
-0.0104309
-1.54572
1.54842
0.0126053
-0.0147243
-1.29312
1.29524
0.0164694
-0.0182143
-1.08528
1.08702
0.019684
-0.0211846
-0.913857
0.915358
0.0224735
-0.0238068
-0.773277
0.77461
0.0249323
-0.0256096
-0.657718
0.658396
0.0252831
-0.0230244
-0.542862
0.540603
0.0187851
-0.0126477
-0.379828
0.37369
0.00732834
-0.00300375
-0.183639
0.179315
0.000775885
-0.0307333
0.0299574
-0.030923
0.0304684
0.00045455
-0.00474389
0.0084969
-0.251107
0.247354
-0.0130959
0.0164236
-0.424984
0.421656
-0.0181605
0.0181548
-0.553163
0.553168
-0.0171573
0.0156967
-0.657002
0.658462
-0.0139978
0.0123753
-0.773516
0.775139
-0.0104886
0.00863968
-0.915907
0.917756
-0.00645471
0.00431678
-1.0885
1.09064
-0.00180961
-0.000619753
-1.29738
1.29981
0.00343066
-0.00611404
-1.55111
1.5538
0.00868076
-0.0111349
-1.55102
1.55347
0.0130864
-0.0149582
-1.29727
1.29914
0.0164537
-0.0179071
-1.08864
1.0901
0.0191065
-0.020318
-0.916695
0.917906
0.0213787
-0.0225303
-0.775792
0.776944
0.0235158
-0.0238916
-0.658913
0.659288
0.0232518
-0.0206588
-0.538212
0.535619
0.0164326
-0.0108107
-0.367833
0.362211
0.00619881
-0.00254237
-0.17536
0.171704
0.000662674
-0.0292524
0.0285897
-0.030082
0.0297561
0.000325899
-0.00354756
0.00651682
-0.244006
0.241036
-0.0103722
0.0133914
-0.418476
0.415457
-0.0152008
0.0154165
-0.553081
0.552865
-0.0146055
0.0133064
-0.659907
0.661206
-0.0116791
0.0100858
-0.776782
0.778375
-0.00820877
0.00636074
-0.919528
0.921376
-0.00419758
0.00210918
-1.09266
1.09475
0.000291425
-0.00257798
-1.30211
1.3044
0.00517172
-0.00760419
-1.55631
1.55874
0.0098875
-0.0120269
-1.55578
1.55792
0.0137053
-0.0152935
-1.30093
1.30252
0.0165588
-0.0177846
-1.09148
1.0927
0.0188012
-0.0198568
-0.919031
0.920087
0.0207914
-0.0217698
-0.777957
0.778936
0.0224663
-0.0225248
-0.659516
0.659574
0.0215181
-0.0186156
-0.532904
0.530002
0.0144693
-0.00935292
-0.35687
0.351754
0.00533184
-0.00219849
-0.168343
0.165209
0.000582381
-0.0279829
0.0274005
-0.0294954
0.0292931
0.000202239
-0.0024277
0.00464684
-0.238448
0.236229
-0.00771507
0.0102898
-0.412662
0.410087
-0.0119906
0.0123085
-0.55262
0.552302
-0.0116284
0.0104869
-0.662485
0.663627
-0.0089565
0.00740065
-0.779975
0.781531
-0.00553916
0.00372054
-0.923128
0.924946
-0.00162996
-0.000355308
-1.0967
1.09869
0.00261582
-0.0047617
-1.30656
1.3087
0.00719429
-0.00947224
-1.56107
1.56335
0.0115531
-0.0134275
-1.55994
1.56181
0.0148291
-0.0161054
-1.30403
1.3053
0.0171075
-0.0180703
-1.09388
1.09485
0.0188669
-0.01968
-0.921012
0.921825
0.0203568
-0.0210035
-0.779658
0.780304
0.0213624
-0.0211143
-0.659432
0.659184
0.0197451
-0.0166755
-0.527055
0.523986
0.0127142
-0.00810914
-0.346934
0.342329
0.00460965
-0.00191584
-0.162333
0.159639
0.000516634
-0.0268694
0.0263527
-0.0291539
0.0290707
8.31754e-05
-0.00137657
0.00287917
-0.234384
0.232881
-0.00514325
0.00718196
-0.407801
0.405762
-0.0086205
0.00889355
-0.552046
0.551773
-0.00821651
0.00710903
-0.664831
0.665939
-0.0056094
0.00410662
-0.783083
0.784586
-0.0023329
0.000604051
-0.926608
0.928337
0.00140365
-0.00332036
-1.10051
1.10243
0.0054934
-0.00751271
-1.3107
1.31272
0.00973873
-0.0117244
-1.56544
1.56743
0.0134967
-0.0150352
-1.56353
1.56507
0.0161307
-0.0170612
-1.30647
1.3074
0.0177318
-0.01834
-1.09567
1.09628
0.0188128
-0.019246
-0.922464
0.922898
0.019646
-0.0201167
-0.780815
0.781286
0.02021
-0.0196929
-0.658734
0.658217
0.0181068
-0.0149689
-0.520937
0.517799
0.0112324
-0.00710434
-0.33802
0.333892
0.00404821
-0.00170677
-0.157165
0.154824
0.000471818
-0.0258791
0.0254073
-0.0290445
0.0290763
-3.18019e-05
-0.000301185
0.00110134
-0.231743
0.230942
-0.00256961
0.00405613
-0.404031
0.402544
-0.00521818
0.00545889
-0.551605
0.551364
-0.00483862
0.00380461
-0.667136
0.66817
-0.00235996
0.000887929
-0.786064
0.787537
0.000869879
-0.00259468
-0.929895
0.93162
0.00459676
-0.00649845
-1.1042
1.1061
0.0086363
-0.010608
-1.31463
1.3166
0.0127228
-0.0145593
-1.56927
1.57111
0.016118
-0.0173931
-1.56648
1.56776
0.0182298
-0.0188787
-1.30827
1.30892
0.0192657
-0.0195221
-1.09676
1.09701
0.0196763
-0.0198044
-0.923188
0.923316
0.0198737
-0.0199128
-0.781467
0.781506
0.0196981
-0.0188603
-0.657458
0.65662
0.0169399
-0.0136493
-0.51468
0.511389
0.0100744
-0.00633387
-0.330026
0.326286
0.0036332
-0.00156491
-0.152666
0.150598
0.00044853
-0.0249713
0.0245228
-0.02918
0.0293601
-0.000180086
0.000746661
-0.000694879
-0.230526
0.230474
7.95686e-05
0.00077015
-0.401417
0.400567
-0.00155161
0.00171216
-0.55126
0.551099
-0.00116883
0.000227161
-0.66927
0.670212
0.00118157
-0.00270105
-0.789006
0.790525
0.00455834
-0.00637172
-0.933222
0.935035
0.00843736
-0.0103643
-1.10786
1.10978
0.0124911
-0.0143989
-1.31844
1.32035
0.0164003
-0.0180848
-1.57282
1.57451
0.0193986
-0.0203388
-1.56889
1.56983
0.0208337
-0.0210863
-1.30943
1.30968
0.0211534
-0.0211
-1.09717
1.09712
0.0209549
-0.0207286
-0.923283
0.923057
0.0204971
-0.0202092
-0.781288
0.781
0.0195872
-0.0181655
-0.655414
0.653992
0.0158994
-0.012513
-0.508161
0.504775
0.00912363
-0.00573165
-0.32282
0.319428
0.00331658
-0.00145113
-0.1487
0.146835
0.000423512
-0.024116
0.0236925
-0.029604
0.0299006
-0.000296586
0.00174092
-0.00232077
-0.230719
0.231299
0.00255488
-0.0024061
-0.400153
0.400005
0.00217493
-0.00228796
-0.551229
0.551342
0.00293915
-0.00396408
-0.671317
0.672342
0.00545548
-0.00705063
-0.792003
0.793598
0.00898285
-0.0108515
-0.936663
0.938532
0.0129728
-0.0149369
-1.11156
1.11353
0.0170826
-0.0189786
-1.32213
1.32402
0.0209107
-0.0224404
-1.57604
1.57757
0.0235328
-0.0241639
-1.57062
1.57125
0.0243254
-0.0241735
-1.30982
1.30967
0.0238327
-0.0233196
-1.09687
1.09635
0.0227961
-0.0222045
-0.922582
0.921991
0.0216704
-0.0209815
-0.780332
0.779643
0.0199231
-0.0181072
-0.65241
0.650594
0.0156048
-0.0121455
-0.501525
0.498066
0.00885646
-0.00563184
-0.316251
0.313027
0.0033109
-0.00146912
-0.145068
0.143226
0.000431552
-0.0233031
0.0228716
-0.0302782
0.0307093
-0.000431077
0.00263313
-0.00380053
-0.232194
0.233362
0.00479397
-0.005373
-0.4003
0.400879
0.0057934
-0.00629949
-0.551891
0.552397
0.00719335
-0.00842992
-0.673616
0.674853
0.010154
-0.0119581
-0.795165
0.796969
0.014102
-0.0161444
-0.940231
0.942273
0.0184302
-0.0205136
-1.11535
1.11743
0.0227389
-0.0246372
-1.32578
1.32768
0.0264726
-0.027781
-1.57891
1.58022
0.0285563
-0.028807
-1.57168
1.57193
0.0286274
-0.0280839
-1.30936
1.30881
0.0273818
-0.0264786
-1.09563
1.09472
0.0255911
-0.0246223
-0.921133
0.920164
0.0237443
-0.0226792
-0.778576
0.777511
0.0213104
-0.0191226
-0.648696
0.646508
0.0163578
-0.0127324
-0.49475
0.491125
0.00938164
-0.00608773
-0.309932
0.306638
0.00364306
-0.00163398
-0.141401
0.139392
0.000480064
-0.0224617
0.0219816
-0.0312202
0.0317865
-0.000566263
0.00354564
-0.0052719
-0.234847
0.236573
0.00698466
-0.00822831
-0.401814
0.403058
0.00927
-0.0101985
-0.553439
0.554367
0.0114272
-0.0129472
-0.676407
0.677927
0.0149833
-0.0170806
-0.798741
0.800838
0.0195555
-0.0218995
-0.94418
0.946524
0.0245068
-0.0268609
-1.11943
1.12178
0.0293225
-0.0313744
-1.32949
1.33154
0.0332518
-0.0344643
-1.58135
1.58257
0.0350433
-0.034982
-1.57196
1.5719
0.0344597
-0.0335183
-1.30808
1.30714
0.0324429
-0.0311274
-1.09358
1.09227
0.0298741
-0.0285146
-0.918878
0.917519
0.027288
-0.02578
-0.776048
0.77454
0.0239813
-0.0213316
-0.64425
0.6416
0.0181964
-0.0142479
-0.48762
0.483671
0.0106414
-0.00702821
-0.303384
0.299771
0.00425649
-0.00192036
-0.137331
0.134995
0.000564189
-0.021509
0.0209448
-0.0324391
0.033182
-0.000742925
0.00467824
-0.00704969
-0.238655
0.241026
0.00954801
-0.011511
-0.404717
0.40668
0.0132361
-0.0146052
-0.555889
0.557258
0.0161671
-0.0179715
-0.67975
0.681554
0.0203758
-0.0228581
-0.802881
0.805364
0.0257984
-0.0285761
-0.948779
0.951556
0.0316468
-0.034386
-1.12409
1.12683
0.037221
-0.0395204
-1.33355
1.33585
0.0415556
-0.0428008
-1.58369
1.58493
0.0432308
-0.0428594
-1.57164
1.57127
0.0419634
-0.0405703
-1.30596
1.30456
0.0390611
-0.0372924
-1.09065
1.08888
0.0356336
-0.0338099
-0.915769
0.913946
0.0321367
-0.0300409
-0.772605
0.770509
0.0277414
-0.024526
-0.638848
0.635633
0.0209223
-0.0165201
-0.479812
0.47541
0.0124736
-0.00831865
-0.296131
0.291976
0.00506075
-0.00228635
-0.132568
0.129793
0.000671505
-0.0203813
0.0197098
-0.0340196
0.0350087
-0.000989077
0.00619057
-0.00936394
-0.243792
0.246966
0.0128016
-0.0156273
-0.409197
0.412022
0.0182132
-0.0202762
-0.559436
0.561499
0.0224546
-0.0247632
-0.683751
0.68606
0.0277252
-0.0307323
-0.807793
0.8108
0.0342243
-0.0374914
-0.954243
0.95751
0.0410696
-0.0442119
-1.12952
1.13267
0.0473764
-0.0498481
-1.33806
1.34053
0.0519178
-0.0530055
-1.58601
1.5871
0.0531231
-0.0522964
-1.57063
1.5698
0.0509417
-0.0490155
-1.30286
1.30093
0.0469978
-0.0445924
-1.08669
1.08428
0.0423382
-0.0399134
-0.911598
0.909174
0.037724
-0.0350366
-0.767963
0.765276
0.0322217
-0.0284607
-0.632328
0.628567
0.0243838
-0.0194024
-0.471113
0.466132
0.0147184
-0.0098218
-0.287744
0.282848
0.005967
-0.00269168
-0.126917
0.123642
0.00078974
-0.0190386
0.0182489
-0.0360901
0.0374386
-0.00134842
0.00831767
-0.0125483
-0.250561
0.254791
0.0171305
-0.0209527
-0.415594
0.419417
0.0245708
-0.0275426
-0.564633
0.567605
0.0306737
-0.0338376
-0.68896
0.692123
0.0376748
-0.0413933
-0.813788
0.817507
0.0456084
-0.0494582
-0.960696
0.964546
0.0535593
-0.0570475
-1.13571
1.1392
0.0604188
-0.0629093
-1.34282
1.34531
0.0647554
-0.0653861
-1.58784
1.58847
0.0648495
-0.0632279
-1.56853
1.56691
0.0611066
-0.0583682
-1.29858
1.29584
0.0556773
-0.0526806
-1.08146
1.07846
0.049982
-0.0470666
-0.906183
0.903267
0.0443986
-0.0412327
-0.76212
0.758954
0.0379751
-0.033683
-0.624773
0.620481
0.0289316
-0.0229874
-0.46118
0.455235
0.0173525
-0.0115141
-0.277834
0.271996
0.00696924
-0.00313336
-0.120273
0.116437
0.00091512
-0.0174693
0.0165542
-0.0388595
0.0407343
-0.00187485
0.0113557
-0.0170053
-0.259438
0.265088
0.0229822
-0.0278941
-0.424246
0.429158
0.0325644
-0.0365391
-0.571934
0.575909
0.0408253
-0.045048
-0.696019
0.700242
0.0500005
-0.0546782
-0.821267
0.825945
0.0598096
-0.0643373
-0.968322
0.97285
0.0690069
-0.072847
-1.14254
1.14638
0.0764226
-0.0788873
-1.34755
1.35001
0.0804454
-0.0805668
-1.58865
1.58877
0.0793578
-0.0769121
-1.56475
1.56231
0.0740002
-0.0703609
-1.29256
1.28892
0.066833
-0.0629743
-1.07487
1.07102
0.0595921
-0.0561393
-0.899755
0.896302
0.0531361
-0.0495918
-0.755346
0.751802
0.0457912
-0.0405056
-0.616034
0.610749
0.0345259
-0.0271364
-0.449164
0.441774
0.0203241
-0.0134239
-0.266063
0.259163
0.00810063
-0.00362586
-0.112514
0.108039
0.00105161
-0.0156533
0.0146016
-0.0426309
0.0453341
-0.00270313
0.0159391
-0.0235469
-0.271129
0.278737
0.0312896
-0.0374489
-0.435562
0.441721
0.0432014
-0.0481573
-0.581534
0.58649
0.0536094
-0.0589759
-0.705209
0.710576
0.065167
-0.0708377
-0.830667
0.836337
0.0768951
-0.0821386
-0.977297
0.982541
0.087435
-0.0917041
-1.15007
1.15434
0.0955421
-0.0980471
-1.35222
1.35472
0.0994262
-0.0991785
-1.58849
1.58825
0.0974805
-0.0944356
-1.55942
1.55638
0.0909365
-0.0866246
-1.28483
1.28052
0.082455
-0.0778329
-1.06656
1.06194
0.0737259
-0.0694597
-0.892048
0.887782
0.0655825
-0.0610113
-0.747494
0.742922
0.0557611
-0.0485672
-0.60483
0.597636
0.0408311
-0.0317765
-0.434197
0.425143
0.0237109
-0.0156323
-0.252249
0.24417
0.00939927
-0.00417541
-0.103493
0.0982696
0.00119726
-0.0135741
0.0123768
-0.0479526
0.0520935
-0.00414092
0.0233101
-0.0337168
-0.286821
0.297228
0.043906
-0.0518773
-0.450379
0.45835
0.0590103
-0.0650059
-0.593517
0.599512
0.0716075
-0.0780392
-0.716573
0.723005
0.0852419
-0.0917157
-0.841876
0.84835
0.0985735
-0.104433
-0.987653
0.993512
0.110259
-0.114825
-1.1584
1.16297
0.118767
-0.121177
-1.35689
1.3593
0.122232
-0.1215
-1.58756
1.58683
0.119194
-0.115461
-1.55287
1.54914
0.111343
-0.106349
-1.2758
1.27081
0.10153
-0.0961256
-1.05674
1.05133
0.0911797
-0.0856877
-0.882437
0.876945
0.0802942
-0.0736642
-0.736821
0.730191
0.0663781
-0.0570463
-0.589496
0.580164
0.0476471
-0.0370589
-0.416075
0.405487
0.0276714
-0.0181935
-0.236187
0.22671
0.0108541
-0.0047565
-0.0930281
0.0869304
0.00133839
-0.0112214
0.00988305
-0.0558942
0.0630522
-0.00715805
0.0365546
-0.0512521
-0.308709
0.323406
0.0650473
-0.0755497
-0.470296
0.480799
0.084224
-0.0912116
-0.608088
0.615076
0.0989196
-0.106194
-0.729729
0.737002
0.114066
-0.120973
-0.854487
0.861394
0.128154
-0.13414
-0.99904
1.00503
0.139902
-0.144169
-1.16706
1.17133
0.147571
-0.149253
-1.36107
1.36276
0.14934
-0.147528
-1.58536
1.58355
0.144063
-0.139125
-1.5447
1.53976
0.133939
-0.127801
-1.2652
1.25906
0.121933
-0.115323
-1.04516
1.03855
0.10909
-0.101907
-0.870014
0.862831
0.0947702
-0.0861256
-0.721664
0.713019
0.0771459
-0.0662127
-0.569932
0.558999
0.0554732
-0.0433433
-0.395
0.38287
0.0323717
-0.0211806
-0.21746
0.206269
0.0124934
-0.00537063
-0.0809795
0.0738568
0.00146526
-0.00862238
0.00715712
-0.0697981
0.0736202
-0.00382217
0.0272252
-0.0399932
-0.340781
0.353549
0.052366
-0.0618407
-0.49657
0.506044
0.0701683
-0.0783102
-0.625191
0.633333
0.0877267
-0.0962694
-0.743697
0.75224
0.106138
-0.115185
-0.867428
0.876475
0.125017
-0.133837
-1.01013
1.01895
0.143069
-0.150904
-1.17458
1.18242
0.158517
-0.164291
-1.36331
1.36908
0.168905
-0.17106
-1.58052
1.58267
0.170591
-0.167866
-1.53367
1.53095
0.163641
-0.157517
-1.25194
1.24581
0.151012
-0.142425
-1.03089
1.02231
0.133858
-0.123515
-0.854049
0.843706
0.113288
-0.101332
-0.702406
0.69045
0.0891855
-0.0749547
-0.547177
0.532947
0.061414
-0.0461064
-0.370599
0.355291
0.0327109
-0.0198464
-0.195304
0.182439
0.0106649
-0.00406995
-0.0673752
0.0607803
0.000902072
-0.00587498
0.0049729
-0.080865
0.0785727
0.00229235
0.00585718
-0.0137266
-0.369148
0.377017
0.0229287
-0.0298548
-0.520041
0.526967
0.0368529
-0.0438906
-0.643738
0.650775
0.0525112
-0.0605614
-0.760529
0.768579
0.0694076
-0.0777158
-0.885037
0.893346
0.0867098
-0.0944329
-1.02747
1.03519
0.102687
-0.109309
-1.19001
1.19663
0.115651
-0.120083
-1.37443
1.37887
0.122876
-0.123274
-1.58366
1.58406
0.120981
-0.116319
-1.52686
1.5222
0.110168
-0.102086
-1.23848
1.2304
0.0938632
-0.0839488
-1.01255
1.00264
0.0741963
-0.0630093
-0.831436
0.820249
0.052837
-0.0424877
-0.67506
0.66471
0.0335916
-0.0241857
-0.516783
0.507377
0.016155
-0.00903477
-0.339454
0.332333
0.00430572
-0.00110047
-0.169854
0.166649
-0.000418577
0.000744175
-0.0542488
0.0539232
-0.000448739
-0.00359621
0.00404494
-0.0816472
0.0787174
0.00292981
-0.00237624
-0.00191253
-0.388112
0.392401
0.00770911
-0.0129395
-0.537718
0.542949
0.0185995
-0.0248052
-0.659667
0.665873
0.0323038
-0.0393058
-0.775935
0.782937
0.0471748
-0.0543786
-0.900953
0.908157
0.0619083
-0.0687149
-1.0427
1.0495
0.0757536
-0.0814439
-1.20273
1.20842
0.0863855
-0.0895202
-1.38246
1.3856
0.0911879
-0.0903663
-1.58346
1.58264
0.086903
-0.0811553
-1.51649
1.51074
0.0742725
-0.0657975
-1.22174
1.21327
0.0571047
-0.0472994
-0.992033
0.982227
0.0380198
-0.0277954
-0.808834
0.798609
0.0190095
-0.0103203
-0.65238
0.64369
0.00349912
0.00285826
-0.49607
0.489713
-0.00696055
0.00891377
-0.32314
0.321187
-0.00881965
0.00729362
-0.16142
0.162946
-0.00520664
0.00274972
-0.0526922
0.0551491
-0.000973871
-0.00368645
0.00466032
-0.0802347
0.0774498
0.00278484
-0.00554183
0.00351281
-0.400591
0.40262
0.000110848
-0.0041617
-0.551332
0.555383
0.009261
-0.0146126
-0.673004
0.678356
0.0211584
-0.0272651
-0.789571
0.795678
0.0340346
-0.0402105
-0.914912
0.921088
0.0470081
-0.0527271
-1.05585
1.06157
0.0587968
-0.0632308
-1.21364
1.21807
0.0673066
-0.0697108
-1.38839
1.3908
0.0704951
-0.0688015
-1.58121
1.57951
0.0650558
-0.0592755
-1.50432
1.49854
0.0525607
-0.0441486
-1.20453
1.19611
0.0360608
-0.0271195
-0.972148
0.963207
0.0186803
-0.00982911
-0.788238
0.779387
0.00195089
0.00550623
-0.633182
0.625725
-0.0111085
0.0152626
-0.481219
0.477065
-0.0169144
0.0161435
-0.315639
0.31641
-0.0137551
0.0101952
-0.162399
0.165959
-0.00688632
0.0033841
-0.05649
0.0599923
-0.00109868
-0.00489711
0.00599579
-0.0787281
0.0763574
0.00237074
-0.00629729
0.00563212
-0.409029
0.409694
-0.00286401
-0.000271052
-0.56257
0.565705
0.00458329
-0.00957484
-0.684508
0.6895
0.0152063
-0.0206953
-0.80133
0.806819
0.0266464
-0.0320657
-0.926925
0.932345
0.0379287
-0.0430291
-1.06716
1.07226
0.0481546
-0.0521971
-1.22234
1.22638
0.0556281
-0.0575449
-1.3928
1.39471
0.0579303
-0.0560502
-1.57761
1.57573
0.0523408
-0.0466621
-1.4921
1.48642
0.0404443
-0.032918
-1.18782
1.18029
0.0256737
-0.0175994
-0.954161
0.946087
0.0102981
-0.00261134
-0.770302
0.762615
-0.00393949
0.0101698
-0.617222
0.610992
-0.0145886
0.0175842
-0.470074
0.467078
-0.01858
0.0171499
-0.313027
0.314457
-0.0141226
0.0102952
-0.167035
0.170862
-0.00680925
0.00324131
-0.0620623
0.0656303
-0.0010363
-0.00647087
0.00750716
-0.0774792
0.0755038
0.00197548
-0.00593524
0.00559186
-0.414952
0.415295
-0.00392888
0.00127228
-0.571513
0.57417
0.00305459
-0.00744313
-0.694549
0.698937
0.0124236
-0.0173046
-0.811737
0.816618
0.0226987
-0.027622
-0.93753
0.942454
0.0330595
-0.0375849
-1.07712
1.08165
0.0422466
-0.045923
-1.23015
1.23383
0.0489688
-0.050631
-1.39637
1.39803
0.0508483
-0.0493747
-1.57378
1.57231
0.0458784
-0.0408006
-1.48042
1.47534
0.0351408
-0.0283932
-1.17276
1.16601
0.0222078
-0.0150244
-0.938126
0.930942
0.00862837
-0.0020778
-0.754888
0.748338
-0.00352428
0.00882935
-0.603995
0.59869
-0.0126018
0.0152339
-0.461622
0.45899
-0.0157888
0.0145575
-0.312092
0.313323
-0.0121465
0.00876812
-0.172032
0.17541
-0.00571402
0.00274982
-0.0674199
0.0703841
-0.000887736
-0.00790026
0.00878799
-0.0766497
0.0751438
0.00150593
-0.00491264
0.0047698
-0.419521
0.419664
-0.00322388
0.00108937
-0.579573
0.581707
0.00295231
-0.0070003
-0.703533
0.707581
0.011851
-0.0161674
-0.821289
0.825606
0.0210157
-0.02547
-0.947451
0.951906
0.0307183
-0.0349025
-1.08625
1.09043
0.0391266
-0.042673
-1.23736
1.24091
0.045949
-0.0475578
-1.39973
1.40134
0.0479754
-0.0466333
-1.57049
1.56915
0.043798
-0.0390294
-1.47016
1.46539
0.034125
-0.0282552
-1.15927
1.1534
0.0226816
-0.0165731
-0.923968
0.91786
0.0109858
-0.00516344
-0.7416
0.735777
0.000571512
0.00405008
-0.592667
0.588045
-0.00738854
0.00959068
-0.454302
0.4521
-0.0103299
0.00975979
-0.311424
0.311994
-0.00809824
0.00568402
-0.175904
0.178318
-0.0036415
0.00177731
-0.0714301
0.0732943
-0.000603615
-0.00900309
0.00960671
-0.0763503
0.0751959
0.00115443
-0.00375621
0.00366341
-0.423309
0.423402
-0.00207956
-6.35736e-05
-0.586784
0.588928
0.0038325
-0.00753708
-0.711812
0.715517
0.0118071
-0.0160644
-0.83002
0.834277
0.0206451
-0.0253193
-0.956265
0.960939
0.029929
-0.033997
-1.09477
1.09884
0.0384182
-0.0418063
-1.24437
1.24776
0.044704
-0.0468089
-1.4029
1.405
0.0475381
-0.0466426
-1.56791
1.56701
0.0441595
-0.0401835
-1.46087
1.45689
0.035847
-0.030606
-1.14733
1.14209
0.0257038
-0.0202447
-0.911734
0.906275
0.0152977
-0.0102943
-0.730017
0.725014
0.00594761
-0.0018804
-0.582789
0.578722
-0.00105848
0.00333187
-0.448026
0.445753
-0.00431493
0.00419763
-0.309799
0.309916
-0.00357572
0.00250045
-0.177734
0.17881
-0.00161482
0.000808175
-0.0733713
0.074178
-0.000312189
-0.00957548
0.00988767
-0.0765979
0.0756354
0.000962467
-0.00245383
0.00210851
-0.426858
0.427204
-0.000705683
-0.00157166
-0.593495
0.595772
0.00507663
-0.00871915
-0.71967
0.723313
0.0128953
-0.0168376
-0.838459
0.842401
0.0216167
-0.0255826
-0.965129
0.969095
0.0302324
-0.0341939
-1.10312
1.10708
0.0385705
-0.0422116
-1.25117
1.25481
0.0454792
-0.0474616
-1.40691
1.40889
0.0486402
-0.0482489
-1.56608
1.56569
0.0465102
-0.0429632
-1.45283
1.44928
0.0391553
-0.0344134
-1.13696
1.13222
0.0299971
-0.0249686
-0.900637
0.895609
0.0205502
-0.0158581
-0.719762
0.71507
0.0118575
-0.00797799
-0.574044
0.570164
0.00499127
-0.00275347
-0.441843
0.439605
0.00131992
-0.000705817
-0.307111
0.306497
0.000243721
-4.13457e-05
-0.177289
0.177086
-0.000111598
0.000229799
-0.0733443
0.0732261
-0.000174435
-0.00959584
0.00977027
-0.0771346
0.0764696
0.000665019
-0.00132175
0.000538937
-0.430588
0.431371
0.000739447
-0.00315152
-0.599549
0.601961
0.00638582
-0.00995406
-0.727119
0.730687
0.0140181
-0.0181429
-0.846318
0.850443
0.0223857
-0.0265689
-0.973342
0.977526
0.031242
-0.0350522
-1.1115
1.11531
0.0395856
-0.0432494
-1.2583
1.26196
0.0466441
-0.0492272
-1.41132
1.4139
0.0509724
-0.050948
-1.56535
1.56533
0.0495209
-0.0467283
-1.44591
1.44311
0.0434714
-0.0391007
-1.12734
1.12297
0.0349308
-0.0304151
-0.890478
0.885962
0.025924
-0.0216198
-0.710081
0.705777
0.0177969
-0.0139282
-0.565925
0.562057
0.0110107
-0.00836264
-0.435555
0.432907
0.00651285
-0.00495104
-0.303307
0.301745
0.0036627
-0.00230499
-0.17478
0.173423
0.00113876
-0.000260391
-0.0716085
0.0707301
-7.52675e-05
-0.00916529
0.00924056
-0.0780524
0.0775413
0.000511086
-0.000378014
-0.000362883
-0.434549
0.43529
0.00221457
-0.00446583
-0.605734
0.607986
0.00789353
-0.0113696
-0.73416
0.737637
0.0153234
-0.0191012
-0.854339
0.858117
0.0235177
-0.0274408
-0.981774
0.985697
0.0321127
-0.0364014
-1.11961
1.1239
0.0406364
-0.044676
-1.26571
1.26975
0.0485518
-0.0512927
-1.41641
1.41915
0.0534781
-0.0542823
-1.56554
1.56634
0.053346
-0.0511812
-1.44018
1.43801
0.0481241
-0.0441633
-1.11858
1.11462
0.0403321
-0.0359067
-0.880988
0.876563
0.0317138
-0.0274458
-0.700922
0.696654
0.0236687
-0.0196856
-0.557714
0.553731
0.0164807
-0.0135086
-0.428874
0.425902
0.0109523
-0.00858384
-0.29795
0.295581
0.00642055
-0.00414385
-0.17026
0.167984
0.00229586
-0.000821086
-0.0685541
0.0670793
0.000109205
-0.00850379
0.00839458
-0.0792271
0.0788859
0.000341194
0.000647003
-0.00158672
-0.438666
0.439606
0.00331491
-0.00584187
-0.611553
0.61408
0.00921718
-0.0125617
-0.74102
0.744364
0.0166231
-0.0202895
-0.861949
0.865616
0.0245929
-0.0286712
-0.990143
0.994221
0.0332931
-0.037584
-1.12808
1.13237
0.04208
-0.0461914
-1.27374
1.27785
0.0503028
-0.0538318
-1.42221
1.42574
0.0565159
-0.057666
-1.56711
1.56826
0.0574401
-0.0556033
-1.43572
1.43388
0.0530697
-0.0495733
-1.11054
1.10704
0.0457422
-0.0414509
-0.871797
0.867506
0.0373464
-0.0329544
-0.69195
0.687558
0.0292125
-0.0250542
-0.549547
0.545389
0.0216448
-0.0180858
-0.421595
0.418036
0.0150384
-0.0118649
-0.291137
0.287964
0.00880484
-0.00571245
-0.164011
0.160919
0.0032501
-0.00125519
-0.064403
0.0624081
0.000242854
-0.00761765
0.0073748
-0.0806087