/*--------------------------------*- C++ -*----------------------------------*\
  =========                 |
  \\      /  F ield         | OpenFOAM: The Open Source CFD Toolbox
   \\    /   O peration     | Website:  https://openfoam.org
    \\  /    A nd           | Version:  6
     \\/     M anipulation  |
\*---------------------------------------------------------------------------*/
FoamFile
{
    version     2.0;
    format      ascii;
    class       surfaceScalarField;
    location    "91";
    object      phi;
}
// * * * * * * * * * * * * * * * * * * * * * * * * * * * * * * * * * * * * * //

dimensions      [0 3 -1 0 0 0 0];

internalField   nonuniform List<scalar> 
17370
(
-0.09
0.0898489
0.289162
-0.0714622
0.0537521
0.364486
-0.0381188
0.0276894
0.426598
-0.0196372
0.0146039
0.504285
-0.0107616
0.00827101
0.601893
-0.00627117
0.0048946
0.720434
-0.00373067
0.00289014
0.863747
-0.00214874
0.00158971
1.03601
-0.00107322
0.000660926
1.24292
-0.000253978
-0.000142831
1.49159
0.000522388
-0.000932235
1.4916
0.0013301
-0.00181738
1.24318
0.00234178
-0.00304525
1.03634
0.00385889
-0.00500354
0.864051
0.00636978
-0.0083627
0.72105
0.010848
-0.0146838
0.60305
0.0197105
-0.0277545
0.507483
0.0381759
-0.0538002
0.431792
0.0715016
-0.0898755
0.365149
0.0900163
0.198995
-0.128138
0.088229
0.0399086
-0.3646
0.353381
-0.0746695
0.0858882
-0.446477
0.454322
-0.084384
0.0765388
-0.521191
0.529904
-0.0684406
0.059728
-0.61279
0.621571
-0.051538
0.042757
-0.726896
0.734167
-0.0352948
0.0280238
-0.867476
0.872594
-0.0224213
0.0173038
-1.03848
1.04193
-0.0134922
0.0100406
-1.2446
1.24703
-0.00742829
0.00499366
-1.49262
1.4946
-0.00304352
0.0010607
-1.49251
1.49423
0.000611677
-0.0023349
-1.24397
1.24586
0.00424156
-0.00612733
-1.03751
1.04003
0.00848043
-0.0110018
-0.866099
0.869826
0.0143483
-0.0180748
-0.724389
0.729932
0.0231148
-0.0286575
-0.608697
0.616109
0.0358709
-0.0432836
-0.514895
0.523039
0.0520125
-0.0601556
-0.439855
0.447913
0.0688171
-0.0768746
-0.375294
0.376737
0.0846696
-0.0861129
-0.257329
0.222474
0.0748217
-0.0399672
-0.0685234
0.0586993
0.00982411
-0.0518003
0.0583799
-0.374132
0.367552
-0.0574607
0.0537058
-0.453598
0.457353
-0.0486133
0.0446582
-0.527951
0.531907
-0.0408153
0.0371734
-0.621569
0.625211
-0.033068
0.0289886
-0.735355
0.739434
-0.024414
0.0202506
-0.874346
0.87851
-0.0159002
0.0122022
-1.0435
1.04719
-0.00846026
0.00528387
-1.24857
1.25174
-0.00195273
-0.00112256
-1.49666
1.49974
0.00417137
-0.00743872
-1.4972
1.50047
0.0105188
-0.0141194
-1.25007
1.25367
0.0176664
-0.0218456
-1.04592
1.0501
0.0258663
-0.0303029
-0.877754
0.882191
0.0342708
-0.0382651
-0.739894
0.743888
0.0418125
-0.0455578
-0.626768
0.630513
0.049429
-0.0544414
-0.534805
0.539818
0.0581078
-0.0589162
-0.457469
0.458278
0.0522056
-0.0319967
-0.335742
0.315533
0.00988995
-0.0683387
0.0584488
-0.052951
0.0489584
0.00399263
-0.0331423
0.0436786
-0.358126
0.347589
-0.0473695
0.0467368
-0.459296
0.459928
-0.0436759
0.0403186
-0.535813
0.53917
-0.0365409
0.033232
-0.628541
0.63185
-0.0297884
0.0267509
-0.742662
0.745699
-0.0234856
0.0203728
-0.882033
0.885146
-0.0168357
0.0134501
-1.05079
1.05417
-0.00965048
0.00610665
-1.25518
1.25872
-0.00213259
-0.00166791
-1.50325
1.50705
0.00543549
-0.00931031
-1.50413
1.50801
0.012717
-0.0163206
-1.25741
1.26101
0.0194965
-0.0227946
-1.05391
1.0572
0.0257046
-0.0287695
-0.885673
0.888738
0.0316424
-0.0349217
-0.747142
0.750421
0.0380917
-0.0417282
-0.634292
0.637928
0.0449646
-0.0478872
-0.544122
0.547045
0.0483738
-0.0444773
-0.456556
0.45266
0.033695
-0.0162323
-0.296157
0.278694
0.00407488
-0.0526259
0.048551
-0.0458841
0.0433925
0.00249156
-0.0227789
0.0331434
-0.336911
0.326547
-0.0389521
0.0399603
-0.459619
0.458611
-0.0387622
0.0364694
-0.541894
0.544187
-0.0337951
0.0311923
-0.634907
0.63751
-0.0281212
0.0252141
-0.748751
0.751659
-0.0219403
0.0189381
-0.888106
0.891109
-0.0156236
0.0125159
-1.05731
1.06042
-0.00898128
0.0055657
-1.26219
1.2656
-0.0015969
-0.00229065
-1.51093
1.51482
0.0061341
-0.00997064
-1.51189
1.51573
0.013205
-0.0164828
-1.26444
1.26772
0.0193164
-0.0223176
-1.06031
1.06331
0.0250506
-0.028055
-0.891779
0.894783
0.030738
-0.0335838
-0.753619
0.756465
0.035996
-0.0384794
-0.640986
0.64347
0.0406091
-0.0415917
-0.54884
0.549822
0.0403573
-0.0342177
-0.447366
0.441226
0.0234904
-0.0102524
-0.263457
0.250219
0.00259333
-0.0453833
0.04279
-0.041322
0.03956
0.00176204
-0.0167099
0.0259406
-0.316711
0.307481
-0.0325263
0.0346523
-0.457023
0.454897
-0.0342199
0.0325405
-0.546172
0.547852
-0.0303505
0.0282464
-0.639823
0.641927
-0.0258046
0.0233968
-0.754312
0.75672
-0.0205262
0.0177253
-0.894013
0.896814
-0.014476
0.011395
-1.06347
1.06656
-0.0078926
0.00455713
-1.26893
1.27227
-0.000716217
-0.00302173
-1.51861
1.52235
0.00670303
-0.0103743
-1.51945
1.52312
0.0134778
-0.0166526
-1.27096
1.27414
0.0193843
-0.0222336
-1.06633
1.06918
0.0246885
-0.0272106
-0.897581
0.900103
0.029328
-0.0314784
-0.758903
0.761053
0.0333382
-0.035282
-0.645613
0.647557
0.0367244
-0.0368642
-0.550326
0.550466
0.0343907
-0.0273195
-0.434537
0.427466
0.0175991
-0.00742832
-0.238663
0.228492
0.00188646
-0.0406049
0.0387185
-0.0380436
0.0367208
0.00132284
-0.0127384
0.0206556
-0.298913
0.290995
-0.0273763
0.0302773
-0.452355
0.449454
-0.0304644
0.0293305
-0.549294
0.550428
-0.027325
0.0253961
-0.643974
0.645902
-0.0231816
0.02103
-0.758971
0.761122
-0.0184978
0.0159977
-0.899401
0.901901
-0.0130365
0.0101397
-1.06951
1.0724
-0.00675949
0.00350328
-1.27554
1.27879
0.000256738
-0.00389332
-1.52601
1.52964
0.00745868
-0.0110046
-1.52671
1.53026
0.0139692
-0.0169389
-1.27726
1.28023
0.0193989
-0.0218603
-1.07191
1.07437
0.0239269
-0.0260205
-0.90237
0.904464
0.0278051
-0.02965
-0.763022
0.764867
0.0312701
-0.0329756
-0.649363
0.651069
0.0337644
-0.0331672
-0.550237
0.549639
0.0297684
-0.0223817
-0.420177
0.41279
0.0138343
-0.00576999
-0.219474
0.211409
0.00147429
-0.0370625
0.0355882
-0.0355671
0.0345507
0.00101635
-0.009929
0.0166061
-0.283725
0.277047
-0.023048
0.0263899
-0.446314
0.442972
-0.0271453
0.0264263
-0.551349
0.552068
-0.0246497
0.0228489
-0.647812
0.649613
-0.0207591
0.0187227
-0.763211
0.765247
-0.0163272
0.0139766
-0.904255
0.906606
-0.0112115
0.00850224
-1.07513
1.07784
-0.00531911
0.00221322
-1.28194
1.28504
0.00141553
-0.00493985
-1.53321
1.53673
0.00837597
-0.0117392
-1.53369
1.53706
0.0144845
-0.0171612
-1.28308
1.28575
0.0193323
-0.0214815
-1.07674
1.07889
0.0232965
-0.0251485
-0.906416
0.908268
0.0267296
-0.0283609
-0.766596
0.768227
0.0297783
-0.0311382
-0.652631
0.653991
0.0314294
-0.0300915
-0.548679
0.547341
0.026063
-0.0187431
-0.405407
0.398087
0.011273
-0.00467438
-0.204145
0.197546
0.00120061
-0.034265
0.0330643
-0.0336607
0.0328728
0.00078791
-0.00784069
0.0134348
-0.270943
0.265348
-0.0193776
0.0229038
-0.439531
0.436005
-0.0241251
0.0236471
-0.552703
0.553181
-0.0221312
0.0204352
-0.651415
0.653111
-0.0184345
0.0164778
-0.767237
0.769193
-0.0141671
0.0118975
-0.908847
0.911117
-0.00922861
0.00662359
-1.08043
1.08303
-0.00357574
0.000608285
-1.28803
1.291
0.00285347
-0.00620694
-1.54014
1.5435
0.00945217
-0.0125882
-1.54027
1.54341
0.0151142
-0.0175431
-1.28833
1.29076
0.0194902
-0.0214055
-1.08102
1.08293
0.0230179
-0.0246599
-0.91
0.911643
0.026057
-0.0274936
-0.76975
0.771186
0.0287098
-0.0296808
-0.655155
0.656126
0.0295946
-0.0275791
-0.545655
0.54364
0.023135
-0.0160646
-0.390881
0.383811
0.00948456
-0.00392046
-0.191512
0.185947
0.00101194
-0.0319683
0.0309564
-0.0321838
0.0315739
0.000609982
-0.00622324
0.0108898
-0.260248
0.255581
-0.0162272
0.0197392
-0.432489
0.428977
-0.0212706
0.0210107
-0.553592
0.553852
-0.019719
0.0180775
-0.654832
0.656473
-0.0161262
0.014212
-0.771117
0.773032
-0.0119522
0.00973342
-0.913281
0.9155
-0.00712479
0.00458278
-1.08553
1.08807
-0.00161797
-0.00125064
-1.29386
1.29673
0.00456794
-0.00774983
-1.54673
1.54991
0.0107993
-0.0137186
-1.5464
1.54931
0.0160487
-0.0182599
-1.29312
1.29533
0.0200011
-0.0216929
-1.08485
1.08655
0.0231104
-0.024552
-0.913163
0.914604
0.0257794
-0.0270376
-0.772521
0.773779
0.0281106
-0.0286603
-0.656895
0.657445
0.0281792
-0.0255862
-0.541329
0.538736
0.0208764
-0.0141147
-0.376898
0.370136
0.0082302
-0.00339893
-0.180785
0.175953
0.000882144
-0.0300174
0.0291353
-0.0310453
0.0305803
0.000465011
-0.00491514
0.00877914
-0.251345
0.247481
-0.0134658
0.0168138
-0.42556
0.422212
-0.0185136
0.0184347
-0.554071
0.55415
-0.0173269
0.0157146
-0.658171
0.659783
-0.0137775
0.0118699
-0.774925
0.776833
-0.00961909
0.00741552
-0.917618
0.919822
-0.00483433
0.00232901
-1.0905
1.09301
0.0005797
-0.00337639
-1.2995
1.3023
0.0065833
-0.00962585
-1.55298
1.55602
0.0125077
-0.0152317
-1.55209
1.55481
0.0173759
-0.0193716
-1.29748
1.29947
0.0209068
-0.0223772
-1.08826
1.08973
0.0236083
-0.0248651
-0.915926
0.917182
0.0259401
-0.0270369
-0.774939
0.776036
0.0279013
-0.0280829
-0.657797
0.657979
0.0271753
-0.0240807
-0.535888
0.532794
0.0191954
-0.0127274
-0.363535
0.357067
0.007364
-0.00304547
-0.171408
0.167089
0.000795786
-0.0283036
0.0275079
-0.0301852
0.0298437
0.000341543
-0.00381301
0.00696885
-0.243998
0.240842
-0.0109916
0.0140642
-0.419023
0.41595
-0.0158042
0.0158675
-0.554219
0.554155
-0.014831
0.0132821
-0.661445
0.662994
-0.0113295
0.00939407
-0.77873
0.780665
-0.00711157
0.00488565
-0.92193
0.924156
-0.00229183
-0.000210797
-1.09542
1.09792
0.00309706
-0.00585085
-1.305
1.30776
0.00897884
-0.0119101
-1.55896
1.56189
0.0146467
-0.0171893
-1.55739
1.55993
0.0191535
-0.0209356
-1.30141
1.3032
0.0222664
-0.0235203
-1.09125
1.09251
0.024572
-0.0256517
-0.918316
0.919396
0.0265812
-0.0275166
-0.777023
0.777958
0.0281194
-0.0279991
-0.65801
0.65789
0.0266214
-0.0230592
-0.529468
0.525906
0.0180338
-0.0117971
-0.350735
0.344498
0.00679953
-0.00282216
-0.162966
0.158989
0.000743486
-0.026745
0.0260015
-0.0295652
0.0293347
0.000230509
-0.0028404
0.0053538
-0.238033
0.235519
-0.0087113
0.0114241
-0.413086
0.410373
-0.0130882
0.0132183
-0.55413
0.554
-0.0122135
0.010695
-0.664618
0.666137
-0.0087016
0.00670737
-0.782596
0.78459
-0.00435572
0.00207111
-0.92629
0.928575
0.000577292
-0.00311623
-1.10033
1.10287
0.00602184
-0.00876797
-1.31043
1.31318
0.0118507
-0.0146967
-1.56473
1.56757
0.0173076
-0.019684
-1.56232
1.5647
0.0214783
-0.0230522
-1.30493
1.30651
0.0241772
-0.0252097
-1.09384
1.09488
0.0260759
-0.0269687
-0.920345
0.921238
0.0277404
-0.0285092
-0.778733
0.779502
0.0288277
-0.02837
-0.657636
0.657178
0.0265267
-0.0225149
-0.522141
0.518129
0.0173442
-0.011248
-0.338358
0.332262
0.00647719
-0.00270208
-0.155136
0.151361
0.000718112
-0.0252772
0.0245591
-0.0291643
0.0290401
0.000124224
-0.00193316
0.00384027
-0.233334
0.231427
-0.00652569
0.00880705
-0.40791
0.405629
-0.0102861
0.010403
-0.553966
0.553849
-0.0093941
0.00786533
-0.667768
0.669297
-0.00580081
0.00371516
-0.786582
0.788668
-0.00125532
-0.0011253
-0.930768
0.933148
0.00387047
-0.00648458
-1.10533
1.10794
0.00945136
-0.0122256
-1.31586
1.31863
0.0152976
-0.0180833
-1.57033
1.57312
0.0205858
-0.0228071
-1.56691
1.56913
0.024437
-0.0258027
-1.30805
1.30941
0.02672
-0.0275269
-1.09602
1.09682
0.0281985
-0.0288937
-0.921993
0.922688
0.0295088
-0.0301326
-0.780093
0.780716
0.0300951
-0.0292259
-0.656541
0.655672
0.026899
-0.0224312
-0.513927
0.50946
0.0170799
-0.0110205
-0.326215
0.320156
0.00635319
-0.00266573
-0.147652
0.143965
0.000714573
-0.0238492
0.0231347
-0.0289764
0.0289598
1.65663e-05
-0.00104255
0.00235522
-0.229839
0.228526
-0.00435221
0.00613657
-0.403635
0.40185
-0.00732624
0.00734711
-0.553893
0.553872
-0.00628524
0.00470506
-0.670978
0.672558
-0.00252683
0.000313252
-0.790752
0.792966
0.00229802
-0.00481564
-0.935439
0.937956
0.00770354
-0.0104352
-1.11048
1.11321
0.0135086
-0.0163498
-1.32135
1.32419
0.0194479
-0.0222005
-1.57582
1.57857
0.0246126
-0.0266886
-1.57118
1.57326
0.0281575
-0.0293152
-1.31075
1.31191
0.0300237
-0.0306025
-1.09776
1.09834
0.0310729
-0.0315579
-0.92324
0.923725
0.0319893
-0.0323494
-0.781073
0.781433
0.0320123
-0.0306523
-0.654616
0.653256
0.0278006
-0.0228333
-0.504794
0.499826
0.0172321
-0.0110889
-0.314091
0.307948
0.0064065
-0.00270353
-0.140292
0.136589
0.000730351
-0.022419
0.0216886
-0.0290035
0.0290983
-9.47544e-05
-0.000119135
0.000828818
-0.227533
0.226824
-0.00210757
0.00332851
-0.400389
0.399168
-0.00412712
0.00396676
-0.554087
0.554247
-0.00279267
0.0011017
-0.674341
0.676032
0.0012291
-0.00361412
-0.795178
0.797564
0.00642636
-0.00912737
-0.940384
0.943085
0.0122098
-0.0151057
-1.11588
1.11877
0.0183347
-0.0212841
-1.32698
1.32993
0.0244483
-0.0271974
-1.58125
1.584
0.0295387
-0.0314769
-1.57515
1.57709
0.0327842
-0.0337331
-1.31303
1.31398
0.0342285
-0.0345687
-1.09905
1.09939
0.0348275
-0.0350919
-0.924056
0.924321
0.035315
-0.0353386
-0.781482
0.781505
0.0346632
-0.0327282
-0.651693
0.649758
0.029285
-0.0237426
-0.49464
0.489098
0.0177955
-0.0114356
-0.301739
0.295379
0.00662191
-0.00280781
-0.132854
0.12904
0.000763124
-0.0209488
0.0201857
-0.0292648
0.0294941
-0.000229318
0.000842163
-0.000796208
-0.226446
0.2264
0.000292448
0.000288949
-0.398305
0.397723
-0.000592074
0.000159095
-0.554734
0.555167
0.00119893
-0.00306086
-0.677979
0.679841
0.00560321
-0.00821091
-0.799947
0.802555
0.0112824
-0.0142212
-0.9457
0.948639
0.0175576
-0.0206707
-1.12161
1.12473
0.02411
-0.0272118
-1.33284
1.33594
0.0304808
-0.0332493
-1.58667
1.58944
0.0355291
-0.0373329
-1.57883
1.58063
0.0384797
-0.0392169
-1.31486
1.3156
0.0394905
-0.0395729
-1.09986
1.09995
0.0396012
-0.03963
-0.924409
0.924438
0.0396629
-0.0392509
-0.781209
0.780797
0.0381461
-0.0355404
-0.647619
0.645014
0.0314122
-0.0251836
-0.483297
0.477068
0.0187684
-0.0120464
-0.288885
0.282163
0.00698599
-0.00297115
-0.125149
0.121135
0.00081046
-0.0194057
0.0185952
-0.0297944
0.0301693
-0.00037491
0.00192472
-0.00250667
-0.226673
0.227255
0.00286831
-0.00304881
-0.397527
0.397708
0.00339557
-0.00421347
-0.556059
0.556877
0.00581984
-0.00792246
-0.68202
0.684122
0.0107521
-0.0136498
-0.805159
0.808057
0.0170504
-0.0202894
-0.951498
0.954737
0.0239472
-0.0273366
-1.1278
1.13119
0.0310454
-0.0343459
-1.33901
1.34231
0.0377594
-0.0405701
-1.59214
1.59495
0.0427928
-0.044451
-1.5822
1.58386
0.0454217
-0.0459466
-1.31623
1.31675
0.0459922
-0.0457965
-1.10015
1.09995
0.045576
-0.0453555
-0.924247
0.924026
0.0451592
-0.0442371
-0.780071
0.779148
0.0426071
-0.0391982
-0.642204
0.638795
0.0342518
-0.0271837
-0.470525
0.463456
0.0201506
-0.0129078
-0.275232
0.267989
0.00748514
-0.0031855
-0.117001
0.112702
0.000869553
-0.0177619
0.0168924
-0.0306198
0.0311735
-0.00055363
0.00321398
-0.00458726
-0.228267
0.22964
0.00586789
-0.00685153
-0.398265
0.399249
0.00794738
-0.00926794
-0.558298
0.559618
0.0112524
-0.0136768
-0.686604
0.689028
0.01688
-0.0201431
-0.810946
0.814209
0.0239547
-0.0275686
-0.957905
0.961518
0.0316267
-0.0353585
-1.13454
1.13828
0.0394
-0.0429461
-1.34559
1.34914
0.0465404
-0.0494096
-1.59769
1.60056
0.0515743
-0.0530699
-1.58526
1.58676
0.0538493
-0.0541466
-1.3171
1.3174
0.0539448
-0.0534506
-1.09986
1.09936
0.0529688
-0.0524758
-0.923533
0.92304
0.0518967
-0.0505003
-0.778
0.776604
0.0481746
-0.0437969
-0.635173
0.630795
0.0378611
-0.0297581
-0.455999
0.447896
0.0219307
-0.0139972
-0.260458
0.252524
0.00809858
-0.00343888
-0.108246
0.103586
0.000936288
-0.0159959
0.0150596
-0.0318119
0.0325955
-0.00078361
0.00476895
-0.007054
-0.231466
0.233751
0.00941141
-0.0113284
-0.400727
0.402644
0.0132938
-0.0152374
-0.561692
0.563636
0.0177354
-0.0205778
-0.6919
0.694742
0.0242702
-0.0279881
-0.817465
0.821183
0.032308
-0.0363819
-0.965076
0.96915
0.0409265
-0.0450696
-1.14199
1.14614
0.0495046
-0.0533339
-1.35267
1.3565
0.0571271
-0.0600502
-1.60335
1.60627
0.0621369
-0.0634441
-1.58796
1.58927
0.0639988
-0.064043
-1.31739
1.31744
0.0635722
-0.0627504
-1.09895
1.09813
0.0619866
-0.0612206
-0.922211
0.921445
0.0601584
-0.0581787
-0.77502
0.773041
0.05501
-0.049436
-0.626165
0.620591
0.0422801
-0.0328942
-0.439305
0.429919
0.0240693
-0.0152692
-0.244219
0.235418
0.00879065
-0.00371229
-0.0987393
0.0936609
0.00100447
-0.0140948
0.0130903
-0.0334639
0.0345479
-0.00108399
0.00671697
-0.0101033
-0.236502
0.239889
0.0137274
-0.0167241
-0.405199
0.408196
0.0196931
-0.0223887
-0.566533
0.569229
0.0255541
-0.028953
-0.698123
0.701522
0.0332739
-0.0375645
-0.824903
0.829193
0.0425094
-0.0471396
-0.973184
0.977814
0.052263
-0.0568844
-1.15027
1.1549
0.0617616
-0.0658929
-1.3603
1.36443
0.0698776
-0.0728231
-1.60909
1.61203
0.0747862
-0.0758539
-1.59024
1.59131
0.076135
-0.0758742
-1.31701
1.31675
0.0751213
-0.0739372
-1.09737
1.09619
0.0728797
-0.0718194
-0.920289
0.919229
0.0701943
-0.0674872
-0.770921
0.768214
0.0632457
-0.0561584
-0.614706
0.607619
0.0474831
-0.036515
-0.41993
0.408962
0.0264723
-0.0166394
-0.226167
0.216334
0.00950111
-0.0039759
-0.0883778
0.0828525
0.00106492
-0.01206
0.0109951
-0.035705
0.0372027
-0.00149767
0.00928429
-0.014032
-0.243732
0.24848
0.0191621
-0.0234074
-0.412041
0.416286
0.0275382
-0.0311392
-0.573149
0.57675
0.0351536
-0.0392806
-0.705562
0.709689
0.044403
-0.0494105
-0.833489
0.838497
0.0551176
-0.0604079
-0.982426
0.987716
0.0661955
-0.0713415
-1.15951
1.16466
0.0766745
-0.0810851
-1.36851
1.37292
0.0851976
-0.0880772
-1.61482
1.6177
0.0898208
-0.0905544
-1.59198
1.59271
0.090509
-0.0899339
-1.31586
1.31529
0.0888279
-0.0872554
-1.09505
1.09348
0.0858935
-0.0843639
-0.917653
0.916123
0.0822318
-0.0785226
-0.765342
0.761633
0.0729155
-0.0639096
-0.60014
0.591134
0.0533406
-0.040446
-0.397263
0.384369
0.0289653
-0.0179694
-0.205987
0.194991
0.010139
-0.00418785
-0.0771273
0.0711761
0.00110557
-0.00991243
0.00880686
-0.0387426
0.0408372
-0.00209459
0.012822
-0.0193103
-0.253651
0.260139
0.0262512
-0.0319501
-0.421744
0.427443
0.0374499
-0.0421576
-0.581928
0.586635
0.0472291
-0.0522936
-0.714582
0.719646
0.0584581
-0.0643525
-0.84351
0.849405
0.0709569
-0.0769865
-0.993004
0.999034
0.083476
-0.0891319
-1.16978
1.17544
0.0948506
-0.0994339
-1.37722
1.3818
0.103523
-0.106179
-1.62033
1.62299
0.107553
-0.107814
-1.59295
1.59321
0.107348
-0.106326
-1.31389
1.31287
0.104851
-0.102909
-1.09196
1.09002
0.101235
-0.0991479
-0.913943
0.911856
0.0964161
-0.091365
-0.757707
0.752656
0.0839514
-0.072481
-0.581614
0.570144
0.0595589
-0.0443669
-0.370621
0.355429
0.0312643
-0.0190552
-0.183457
0.171248
0.0105802
-0.00429524
-0.065063
0.058778
0.00111227
-0.00769791
0.00658564
-0.0429101
0.0459263
-0.00301613
0.0179624
-0.0267386
-0.267003
0.275779
0.035905
-0.0433496
-0.43499
0.442435
0.0504649
-0.0565041
-0.593374
0.599413
0.0629773
-0.0693284
-0.725621
0.731972
0.0767339
-0.0836239
-0.855274
0.862164
0.0911845
-0.0979437
-1.00505
1.01181
0.105051
-0.111079
-1.18099
1.18701
0.116977
-0.121512
-1.38614
1.39068
0.125313
-0.127501
-1.62527
1.62746
0.128284
-0.127883
-1.59286
1.59246
0.126856
-0.125281
-1.3109
1.30933
0.123425
-0.121069
-1.08803
1.08567
0.11896
-0.116326
-0.908951
0.906317
0.112671
-0.105815
-0.747276
0.74042
0.0960148
-0.0814006
-0.558003
0.543389
0.0656027
-0.0477706
-0.339304
0.321472
0.0329619
-0.0196338
-0.15855
0.145222
0.0106782
-0.00424094
-0.0524132
0.045976
0.00107097
-0.00548999
0.00441902
-0.0487948
0.0533637
-0.00456893
0.0259108
-0.0377736
-0.284968
0.296831
0.0498145
-0.0596058
-0.452852
0.462643
0.068773
-0.0764185
-0.608065
0.61571
0.0845803
-0.092456
-0.739146
0.747022
0.101183
-0.109029
-0.868987
0.876833
0.117396
-0.124659
-1.01845
1.02571
0.132054
-0.138105
-1.19276
1.19881
0.143769
-0.14787
-1.39477
1.39887
0.150965
-0.152328
-1.62908
1.63044
0.152225
-0.150921
-1.59132
1.59002
0.149169
-0.146952
-1.30666
1.30444
0.144654
-0.141832
-1.08313
1.08031
0.139245
-0.135936
-0.902572
0.899263
0.130893
-0.121441
-0.732962
0.72351
0.108424
-0.0898452
-0.527887
0.509308
0.0706465
-0.0499717
-0.302747
0.282073
0.0335671
-0.0194282
-0.131586
0.117447
0.0102958
-0.0039775
-0.0395917
0.0332733
0.000969961
-0.00338618
0.00241622
-0.0575078
0.065297
-0.00778925
0.039815
-0.0562276
-0.309734
0.326146
0.0723201
-0.0852712
-0.476951
0.489903
0.0965891
-0.105756
-0.62651
0.635678
0.115578
-0.124846
-0.755421
0.764689
0.134631
-0.142979
-0.884385
0.892733
0.151519
-0.158653
-1.03257
1.03971
0.165653
-0.171097
-1.20426
1.20971
0.175883
-0.178964
-1.40221
1.40529
0.180798
-0.180869
-1.63098
1.63105
0.179497
-0.177008
-1.58783
1.58534
0.174326
-0.171334
-1.30093
1.29794
0.16852
-0.165166
-1.0771
1.07375
0.161978
-0.157568
-0.894278
0.889867
0.150445
-0.137249
-0.713041
0.699845
0.119872
-0.0964706
-0.489512
0.46611
0.0736186
-0.0502817
-0.260798
0.237461
0.0327025
-0.0183002
-0.103387
0.0889848
0.00938776
-0.00349329
-0.0271891
0.0212946
0.000801578
-0.00149559
0.000694009
-0.0725287
0.0769069
-0.0043782
0.0304734
-0.0448554
-0.345314
0.359696
0.0592934
-0.0712366
-0.508633
0.520576
0.0820941
-0.0923955
-0.648499
0.658801
0.10412
-0.114965
-0.773305
0.78415
0.127088
-0.137919
-0.900061
0.910893
0.149565
-0.160045
-1.04595
1.05643
0.171206
-0.180988
-1.21413
1.22391
0.191044
-0.19943
-1.40729
1.41567
0.207462
-0.213422
-1.63003
1.63599
0.217325
-0.219838
-1.58175
1.58427
0.22106
-0.221851
-1.29341
1.2942
0.222432
-0.221917
-1.06952
1.06901
0.220427
-0.215488
-0.882751
0.877812
0.204462
-0.183108
-0.685013
0.663659
0.155218
-0.119774
-0.441353
0.405908
0.0876157
-0.0569166
-0.214158
0.183459
0.0354348
-0.0189625
-0.0753914
0.0589191
0.00927389
-0.0032314
-0.0158815
0.00983899
0.000661825
0.000121035
-0.00078286
-0.0846036
0.0826874
0.00191613
0.00840045
-0.017834
-0.376935
0.386369
0.0288913
-0.0376198
-0.537351
0.54608
0.0465116
-0.0551583
-0.671877
0.680523
0.0658574
-0.0759539
-0.794426
0.804523
0.0868529
-0.0968504
-0.921121
0.931119
0.10759
-0.116917
-1.06666
1.07598
0.127059
-0.135602
-1.23353
1.24208
0.144396
-0.15153
-1.42382
1.43096
0.158029
-0.162759
-1.64139
1.64612
0.165619
-0.167187
-1.58634
1.58791
0.167408
-0.167244
-1.29365
1.29349
0.167016
-0.166136
-1.0663
1.06542
0.163594
-0.156634
-0.867599
0.860639
0.144061
-0.123147
-0.638135
0.617221
0.0991403
-0.0718137
-0.368337
0.34101
0.0497002
-0.0307456
-0.153802
0.134848
0.0184033
-0.00950415
-0.0436971
0.034798
0.00447198
-0.00148985
-0.00407515
0.00109302
0.000268217
0.00164091
-0.00190913
-0.0862321
0.0832602
0.00297189
-0.000832173
-0.00467089
-0.39858
0.404083
0.0120853
-0.0185947
-0.558867
0.565376
0.0252699
-0.0327228
-0.691789
0.699242
0.0420487
-0.0508322
-0.813562
0.822346
0.060529
-0.069271
-0.940285
0.949027
0.0784309
-0.0867936
-1.08516
1.09352
0.0956963
-0.10332
-1.25022
1.25785
0.110758
-0.116684
-1.43752
1.44345
0.122206
-0.125911
-1.65038
1.65408
0.127838
-0.128579
-1.58906
1.5898
0.128188
-0.127509
-1.29241
1.29173
0.126442
-0.12495
-1.06145
1.05995
0.121766
-0.113973
-0.849626
0.841833
0.101644
-0.0829887
-0.593283
0.574628
0.0637287
-0.0439011
-0.312021
0.292194
0.0295637
-0.0181227
-0.11609
0.104649
0.0108859
-0.00572233
-0.0260738
0.0209102
0.00275388
-0.000945591
0.00207397
-0.00388225
0.000181663
0.00237904
-0.00256071
-0.0849887
0.0820989
0.00288981
-0.00491401
0.00210654
-0.413137
0.415944
0.00275794
-0.00772367
-0.575058
0.580023
0.0133648
-0.0196219
-0.70819
0.714447
0.0276347
-0.0351767
-0.830346
0.837888
0.0434654
-0.0509692
-0.957178
0.964682
0.0592312
-0.0663581
-1.10143
1.10856
0.074141
-0.0803567
-1.26505
1.27127
0.0867725
-0.0918084
-1.44917
1.45421
0.0962167
-0.0987855
-1.65748
1.66005
0.100088
-0.100329
-1.59012
1.59036
0.099548
-0.0980478
-1.29033
1.28883
0.0964726
-0.0943402
-1.05539
1.05325
0.0906374
-0.0832541
-0.830158
0.822775
0.0720462
-0.0568229
-0.553532
0.538309
0.0424468
-0.0290168
-0.271431
0.258001
0.0198102
-0.0126261
-0.0925862
0.0854021
0.007966
-0.00446165
-0.0152194
0.011715
0.00229325
-0.000853235
0.00606388
-0.00750389
0.000186928
0.00289333
-0.00308026
-0.0834057
0.0807959
0.00260975
-0.00644076
0.00534045
-0.422937
0.424037
-0.00168291
-0.00204202
-0.588053
0.591778
0.00654772
-0.0121691
-0.721962
0.727583
0.0188852
-0.0254802
-0.844604
0.851198
0.0326326
-0.0391271
-0.971681
0.978176
0.0461935
-0.0524754
-1.11551
1.12179
0.0590457
-0.0646174
-1.2773
1.28287
0.0700471
-0.0742126
-1.45883
1.463
0.0776961
-0.0794689
-1.66247
1.66425
0.0800835
-0.0795234
-1.58994
1.58938
0.0782912
-0.0764639
-1.28692
1.2851
0.0744099
-0.0715609
-1.04854
1.04569
0.0678218
-0.0611112
-0.811458
0.804748
0.0518427
-0.0400055
-0.521044
0.509207
0.0297639
-0.0208129
-0.243326
0.234376
0.014784
-0.0100621
-0.0773548
0.0726329
0.00680589
-0.00410177
-0.00755414
0.00485002
0.00227352
-0.000912439
0.00931868
-0.0106798
0.000226792
0.00338092
-0.00360771
-0.0818338
0.0795494
0.00228438
-0.00666547
0.00618327
-0.429626
0.430108
-0.00399697
0.000984455
-0.598068
0.601081
0.00333098
-0.00810383
-0.733581
0.738353
0.0138263
-0.0194965
-0.856885
0.862556
0.0257781
-0.0315096
-0.98426
0.989992
0.0378666
-0.043288
-1.12774
1.13316
0.0490549
-0.0539059
-1.28808
1.29293
0.0584969
-0.0619019
-1.46681
1.47021
0.0645316
-0.0659248
-1.66587
1.66726
0.065821
-0.0647945
-1.58832
1.5873
0.0630646
-0.0607393
-1.28279
1.28046
0.0584812
-0.0550575
-1.04097
1.03754
0.0511523
-0.0452853
-0.794352
0.788485
0.0377669
-0.0288722
-0.495502
0.486608
0.021752
-0.0158438
-0.224133
0.218225
0.0120005
-0.00881124
-0.0669626
0.0637734
0.00636557
-0.00411905
-0.00151129
-0.000735226
0.00242658
-0.0010499
0.0123499
-0.0137266
0.00028469
0.00390533
-0.00419002
-0.0805127
0.078674
0.00183868
-0.00605648
0.00603526
-0.434456
0.434478
-0.00429148
0.00205853
-0.6067
0.608933
0.00188513
-0.00615333
-0.743548
0.747816
0.0114838
-0.0163
-0.867742
0.872558
0.021728
-0.0267152
-0.99563
1.00062
0.032586
-0.0373623
-1.13854
1.14332
0.0423167
-0.0466544
-1.29751
1.30185
0.0509853
-0.0537792
-1.47352
1.47631
0.055875
-0.056544
-1.66813
1.6688
0.0561429
-0.054279
-1.58592
1.58405
0.0522445
-0.0495927
-1.27767
1.27502
0.046762
-0.0431216
-1.0328
1.02916
0.0390422
-0.0336103
-0.778972
0.77354
0.0277557
-0.0210599
-0.475737
0.469041
0.0161449
-0.0124508
-0.211078
0.207384
0.00999681
-0.00783954
-0.0596738
0.0575166
0.00601999
-0.00414911
0.00354834
-0.00541922
0.00258056
-0.00118863
0.0153563
-0.0167482
0.000350111
0.00450878
-0.00485889
-0.0796312
0.0781468
0.00148435
-0.00517314
0.00540776
-0.438076
0.437842
-0.00389785
0.00185634
-0.614059
0.616101
0.00177754
-0.00555461
-0.75235
0.756127
0.0100473
-0.0145759
-0.877258
0.881787
0.0194698
-0.0244498
-1.00534
1.01032
0.0293684
-0.0337365
-1.14812
1.15249
0.0385404
-0.0423268
-1.30595
1.30974
0.0457546
-0.0485117
-1.47887
1.48162
0.0501773
-0.0504708
-1.66936
1.66965
0.0494794
-0.0473612
-1.58218
1.58007
0.0448805
-0.0417031
-1.2717
1.26852
0.038492
-0.0343942
-1.02429
1.02019
0.0301358
-0.0252286
-0.764995
0.760088
0.0201377
-0.0151192
-0.460441
0.455423
0.0117959
-0.0094352
-0.202397
0.200036
0.00793383
-0.0065982
-0.0544978
0.0531621
0.00533967
-0.00388919
0.00777028
-0.00922075
0.00254144
-0.00123762
0.0182938
-0.0195977
0.00039392
0.00520119
-0.00559511
-0.0792519
0.0779738
0.0012781
-0.00401395
0.00409436
-0.441093
0.441013
-0.00287924
0.00094016
-0.620634
0.622573
0.00234738
-0.00592455
-0.760372
0.763949
0.0101292
-0.0141344
-0.886052
0.890057
0.0190151
-0.0230329
-1.01463
1.01865
0.0277349
-0.0317245
-1.15694
1.16093
0.0361433
-0.0398311
-1.31339
1.31708
0.0431724
-0.0452721
-1.48398
1.48608
0.046698
-0.0467238
-1.66966
1.66969
0.04564
-0.0429787
-1.57757
1.57491
0.040134
-0.0364727
-1.26509
1.26143
0.0328593
-0.028252
-1.01497
1.01037
0.0238038
-0.0189032
-0.75211
0.747209
0.0144768
-0.0104297
-0.448495
0.444448
0.00796659
-0.00654032
-0.196394
0.194968
0.00565575
-0.00492193
-0.0509434
0.0502095
0.00417839
-0.00321221
0.0110273
-0.0119935
0.00219779
-0.00114366
0.0208964
-0.0219505
0.000387416
0.00591278
-0.0063002
-0.0791299
0.0781873
0.000942667
-0.00293672
0.00259497
-0.44401
0.444351
-0.00161385
-0.000324217
-0.626305
0.628244
0.00321795
-0.00659363
-0.767687
0.771063
0.0105293
-0.014572
-0.893878
0.897921
0.0186981
-0.0227585
-1.02282
1.02688
0.0272579
-0.0308524
-1.16528
1.16887
0.035136
-0.0385216
-1.32044
1.32383
0.0415692
-0.0438242
-1.48845
1.4907
0.0452165
-0.0449111
-1.66953
1.66923
0.0433461
-0.0406193
-1.57215
1.56942
0.0375834
-0.0334575
-1.25728
1.25315
0.0293359
-0.0245099
-1.00496
1.00013
0.0193534
-0.0145376
-0.739551
0.734736
0.0104525
-0.00690613
-0.438605
0.435058
0.00495932
-0.00388256
-0.192044
0.190967
0.00338983
-0.00306034
-0.0486546
0.0483251
0.00274172
-0.00225165
0.013209
-0.0136991
0.00164831
-0.000924446
0.0229027
-0.0236266
0.000342405
0.00654433
-0.00688674
-0.0794075
0.0786432
0.000764269
-0.00200631
0.00173798
-0.447005
0.447273
-0.000285431
-0.00145152
-0.631918
0.633655
0.00447282
-0.00766152
-0.774347
0.777535
0.0113654
-0.0149183
-0.901585
0.905138
0.019076
-0.022708
-1.03088
1.03451
0.0270158
-0.0309145
-1.17286
1.17676
0.0346295
-0.038134
-1.32716
1.33066
0.0413234
-0.0433311
-1.49269
1.4947
0.0446344
-0.0445757
-1.66893
1.66887
0.042838
-0.0400228
-1.56627
1.56345
0.0365306
-0.0321478
-1.24873
1.24434
0.0278126
-0.0224924
-0.994296
0.988976
0.0172019
-0.0120118
-0.727203
0.722013
0.00792611
-0.00455326
-0.429555
0.426182
0.00267546
-0.00172712
-0.188545
0.187597
0.00134928
-0.00128247
-0.0472347
0.0471679
0.00128017
-0.00121103
0.0143791
-0.0144482
0.0009924
-0.000630842
0.0241693
-0.0245309
0.000261084
0.00702774
-0.00728883
-0.0799854
0.0793991
0.000586295
-0.000946916
0.000521904
-0.450068
0.450493
0.000750162
-0.00276052
-0.637026
0.639037
0.00568185
-0.00867205
-0.780642
0.783633
0.0124054
-0.0157463
-0.908632
0.911973
0.019664
-0.0233359
-1.03858
1.04225
0.0274392
-0.0311801
-1.18043
1.18417
0.0349635
-0.0383203
-1.33398
1.33734
0.0414557
-0.0439525
-1.49686
1.49936
0.0453092
-0.0450843
-1.66853
1.66831
0.0434978
-0.0403777
-1.56024
1.55712
0.0368705
-0.0324243
-1.2396
1.23515
0.0276017
-0.0219874
-0.982893
0.977279
0.0164708
-0.0108376
-0.714701
0.709068
0.0066668
-0.003191
-0.420966
0.417491
0.00131537
-0.00022895
-0.185317
0.184231
-0.000137186
0.00011891
-0.0463315
0.0463498
5.62384e-05
-0.000272668
0.0147202
-0.0145037
0.000356504
-0.000314453
0.0246844
-0.0247264
0.00016782
0.00732076
-0.00748858
-0.0808066
0.080347
0.000459565
-7.85838e-05
-0.000450181
-0.453246