/*--------------------------------*- C++ -*----------------------------------*\
  =========                 |
  \\      /  F ield         | OpenFOAM: The Open Source CFD Toolbox
   \\    /   O peration     | Website:  https://openfoam.org
    \\  /    A nd           | Version:  6
     \\/     M anipulation  |
\*---------------------------------------------------------------------------*/
FoamFile
{
    version     2.0;
    format      ascii;
    class       volVectorField;
    location    "91";
    object      U;
}
// * * * * * * * * * * * * * * * * * * * * * * * * * * * * * * * * * * * * * //

dimensions      [0 1 -1 0 0 0 0];

internalField   nonuniform List<vector> 
8800
(
(0.987184 -0.0766653 0)
(1.00189 -0.05519 0)
(0.999723 -0.0285478 0)
(1.00003 -0.0151422 0)
(1.0001 -0.00854271 0)
(1.00012 -0.00504419 0)
(1.00008 -0.00299848 0)
(1.00002 -0.00169805 0)
(0.999992 -0.000791928 0)
(1.00006 -7.65454e-05 0)
(0.999958 0.00065592 0)
(0.999995 0.00142436 0)
(1.00006 0.00243361 0)
(1.00007 0.00400112 0)
(1.00005 0.00663423 0)
(1.00005 0.0113731 0)
(0.999947 0.0208162 0)
(0.99917 0.0386709 0)
(1.0071 0.0724575 0)
(0.771214 0.0366616 0)
(0.363078 -0.0160165 0)
(1.04332 -0.0768123 0)
(1.0846 -0.070441 0)
(1.04519 -0.0535346 0)
(1.02329 -0.0388845 0)
(1.01203 -0.026205 0)
(1.00643 -0.0168416 0)
(1.00359 -0.0103071 0)
(1.00215 -0.00564397 0)
(1.00144 -0.0019822 0)
(1.00128 0.00133928 0)
(1.00166 0.00472722 0)
(1.00268 0.00865449 0)
(1.00468 0.0139731 0)
(1.00861 0.0216807 0)
(1.01657 0.0326474 0)
(1.03251 0.0465591 0)
(1.06268 0.0616751 0)
(1.09187 0.0761045 0)
(0.838665 0.0565638 0)
(0.216867 -0.00242887 0)
(1.07592 -0.0501253 0)
(1.09989 -0.0482949 0)
(1.06465 -0.0404436 0)
(1.04005 -0.0335807 0)
(1.02393 -0.0260536 0)
(1.01413 -0.0184636 0)
(1.00856 -0.0116358 0)
(1.00558 -0.00575978 0)
(1.00431 -0.00033592 0)
(1.00463 0.00491296 0)
(1.00659 0.0103062 0)
(1.01063 0.016373 0)
(1.01794 0.023388 0)
(1.03053 0.0308506 0)
(1.05062 0.037875 0)
(1.08036 0.0445554 0)
(1.10627 0.0513649 0)
(0.942501 0.0416276 0)
(0.216121 0.00246273 0)
(0.175209 -0.000815359 0)
(1.01774 -0.0354682 0)
(1.10522 -0.0413531 0)
(1.07828 -0.0360302 0)
(1.05349 -0.0300882 0)
(1.03623 -0.0245032 0)
(1.02402 -0.0187635 0)
(1.01589 -0.0126707 0)
(1.01101 -0.00647071 0)
(1.00879 -0.000126041 0)
(1.00934 0.00613437 0)
(1.01264 0.0121334 0)
(1.01888 0.017934 0)
(1.02876 0.0234959 0)
(1.04318 0.0287913 0)
(1.0637 0.0342654 0)
(1.09356 0.0402438 0)
(1.09339 0.0419959 0)
(0.827056 0.0229295 0)
(0.173952 0.000854621 0)
(0.154029 -0.000609062 0)
(0.956294 -0.0254349 0)
(1.10351 -0.0350874 0)
(1.08772 -0.0325996 0)
(1.06177 -0.0279359 0)
(1.04415 -0.0228987 0)
(1.03168 -0.0176354 0)
(1.02281 -0.0120857 0)
(1.01697 -0.0061328 0)
(1.0141 0.000349355 0)
(1.01475 0.00681773 0)
(1.01876 0.0127015 0)
(1.0258 0.0179523 0)
(1.03607 0.0228531 0)
(1.05061 0.0276036 0)
(1.07185 0.032121 0)
(1.10005 0.0360449 0)
(1.068 0.0340853 0)
(0.739347 0.0143368 0)
(0.152132 0.000653656 0)
(0.139685 -0.000465028 0)
(0.899483 -0.0190441 0)
(1.09588 -0.0300196 0)
(1.09581 -0.0291111 0)
(1.06932 -0.0253642 0)
(1.05088 -0.0212065 0)
(1.03794 -0.0164115 0)
(1.02881 -0.0111004 0)
(1.02266 -0.0053336 0)
(1.01949 0.00101105 0)
(1.02007 0.00733109 0)
(1.0242 0.0129647 0)
(1.03136 0.0178755 0)
(1.04182 0.022321 0)
(1.05693 0.026275 0)
(1.07913 0.0297188 0)
(1.10221 0.0323289 0)
(1.03581 0.0281966 0)
(0.672639 0.0102428 0)
(0.137002 0.000516472 0)
(0.129181 -0.000359281 0)
(0.850022 -0.0146711 0)
(1.08358 -0.0258648 0)
(1.10154 -0.0261304 0)
(1.07621 -0.0228236 0)
(1.05724 -0.0191559 0)
(1.04384 -0.0148809 0)
(1.03435 -0.00992508 0)
(1.02795 -0.00436194 0)
(1.02457 0.0018098 0)
(1.02499 0.00792044 0)
(1.02907 0.0132763 0)
(1.03633 0.0177638 0)
(1.04706 0.0216008 0)
(1.06257 0.0248864 0)
(1.08519 0.0278048 0)
(1.10125 0.0295368 0)
(1.00073 0.0237095 0)
(0.620612 0.00788895 0)
(0.125539 0.00041981 0)
(0.121184 -0.000278171 0)
(0.808053 -0.0115008 0)
(1.06842 -0.0222282 0)
(1.10513 -0.0234557 0)
(1.08252 -0.0205551 0)
(1.06313 -0.0170955 0)
(1.04945 -0.0131196 0)
(1.03967 -0.0084928 0)
(1.03297 -0.00319303 0)
(1.02933 0.00276658 0)
(1.02955 0.0086329 0)
(1.03358 0.013641 0)
(1.04088 0.017644 0)
(1.0517 0.02097 0)
(1.06741 0.0238403 0)
(1.09038 0.0264532 0)
(1.09736 0.0272791 0)
(0.965224 0.0202043 0)
(0.578703 0.0063671 0)
(0.116378 0.000350174 0)
(0.115009 -0.000214422 0)
(0.772806 -0.00912356 0)
(1.05182 -0.0190184 0)
(1.1076 -0.0209696 0)
(1.08845 -0.0184315 0)
(1.06868 -0.0151084 0)
(1.05475 -0.0112849 0)
(1.04476 -0.00685764 0)
(1.03781 -0.00178817 0)
(1.03386 0.00392666 0)
(1.03384 0.00949778 0)
(1.03773 0.0141298 0)
(1.04495 0.0176992 0)
(1.05574 0.0206343 0)
(1.07165 0.0231743 0)
(1.09425 0.0254339 0)
(1.09059 0.0254316 0)
(0.930578 0.0175173 0)
(0.543886 0.00533533 0)
(0.108786 0.000300543 0)
(0.110223 -0.000162895 0)
(0.743347 -0.00727207 0)
(1.03486 -0.0161636 0)
(1.10915 -0.0186146 0)
(1.09411 -0.0163727 0)
(1.07405 -0.0131318 0)
(1.05985 -0.0093857 0)
(1.04966 -0.00506695 0)
(1.04247 -0.000158158 0)
(1.0382 0.00532582 0)
(1.03786 0.0105885 0)
(1.0415 0.0148599 0)
(1.04856 0.0180411 0)
(1.05928 0.0206285 0)
(1.07538 0.0228721 0)
(1.09682 0.0247436 0)
(1.08132 0.0239513 0)
(0.897332 0.0154995 0)
(0.514092 0.00462464 0)
(0.10228 0.000266226 0)
(0.106546 -0.000119806 0)
(0.718866 -0.00577191 0)
(1.01836 -0.0135913 0)
(1.10992 -0.0163266 0)
(1.0997 -0.0143444 0)
(1.07937 -0.0111032 0)
(1.06487 -0.00737295 0)
(1.05445 -0.00310095 0)
(1.04698 0.0017083 0)
(1.04235 0.00700545 0)
(1.0416 0.0119867 0)
(1.04492 0.0159231 0)
(1.05175 0.0187318 0)
(1.06239 0.0209817 0)
(1.07865 0.0229503 0)
(1.09799 0.024396 0)
(1.0699 0.0228393 0)
(0.865577 0.0140352 0)
(0.487854 0.00414509 0)
(0.0965144 0.000244225 0)
(0.103791 -8.21592e-05 0)
(0.69873 -0.00450643 0)
(1.00295 -0.0112331 0)
(1.11006 -0.0140685 0)
(1.10515 -0.0122603 0)
(1.08472 -0.008968 0)
(1.06989 -0.00519181 0)
(1.05919 -0.000903302 0)
(1.05138 0.00386636 0)
(1.04632 0.00902886 0)
(1.04507 0.0137626 0)
(1.04801 0.0173808 0)
(1.05456 0.0198209 0)
(1.06508 0.0217414 0)
(1.08145 0.023438 0)
(1.09808 0.0245268 0)
(1.05656 0.0221123 0)
(0.835112 0.0130415 0)
(0.464054 0.00384276 0)
(0.0912233 0.000232193 0)
(0.101842 -4.72308e-05 0)
(0.682481 -0.00338779 0)
(0.989094 -0.00901684 0)
(1.1098 -0.0117514 0)
(1.11047 -0.0100356 0)
(1.09017 -0.00666236 0)
(1.075 -0.0027772 0)
(1.06395 0.00159581 0)
(1.05574 0.00639033 0)
(1.05013 0.0114721 0)
(1.04829 0.0159927 0)
(1.05076 0.0193086 0)
(1.05699 0.0213775 0)
(1.06735 0.0229642 0)
(1.08374 0.0243694 0)
(1.09723 0.0250113 0)
(1.04143 0.0217793 0)
(0.805563 0.0124433 0)
(0.441806 0.00367916 0)
(0.0861978 0.000228003 0)
(0.100642 -1.27328e-05 0)
(0.669827 -0.00234572 0)
(0.977162 -0.00686704 0)
(1.10946 -0.00931779 0)
(1.11579 -0.00761003 0)
(1.09582 -0.0041103 0)
(1.08026 -4.88823e-05 0)
(1.06882 0.00448043 0)
(1.0601 0.00936825 0)
(1.05385 0.0144252 0)
(1.05129 0.018764 0)
(1.05318 0.0217882 0)
(1.05902 0.0234802 0)
(1.0692 0.0247278 0)
(1.08556 0.0258385 0)
(1.09508 0.0259661 0)
(1.02453 0.0218455 0)
(0.776458 0.012194 0)
(0.420386 0.00362999 0)
(0.0812711 0.000230349 0)
(0.100183 2.40073e-05 0)
(0.660629 -0.00132373 0)
(0.967478 -0.00471029 0)
(1.10939 -0.00670571 0)
(1.12125 -0.00490839 0)
(1.10176 -0.00122123 0)
(1.08577 0.00308993 0)
(1.07386 0.00785115 0)
(1.06454 0.0129071 0)
(1.05749 0.0179987 0)
(1.05407 0.0221868 0)
(1.05528 0.0249285 0)
(1.06066 0.0262435 0)
(1.0706 0.0271277 0)
(1.08683 0.0279063 0)
(1.09151 0.0274253 0)
(1.00575 0.0223546 0)
(0.747259 0.0122691 0)
(0.399174 0.00368193 0)
(0.0763023 0.000238548 0)
(0.100475 5.64373e-05 0)
(0.654873 -0.000264406 0)
(0.96035 -0.00247103 0)
(1.10994 -0.00384672 0)
(1.12703 -0.00184591 0)
(1.10809 0.00210479 0)
(1.09164 0.0067469 0)
(1.07916 0.0118245 0)
(1.06911 0.0171288 0)
(1.0611 0.022321 0)
(1.05664 0.026391 0)
(1.05704 0.0288516 0)
(1.06187 0.0297879 0)
(1.07151 0.0302845 0)
(1.08726 0.0306842 0)
(1.08621 0.0294769 0)
(0.984876 0.0233423 0)
(0.717361 0.012653 0)
(0.377599 0.00382538 0)
(0.0711655 0.000251727 0)
(0.101614 0.000111746 0)
(0.652713 0.000877655 0)
(0.956101 -7.05777e-05 0)
(1.11148 -0.000660321 0)
(1.13332 0.00167805 0)
(1.11494 0.00598771 0)
(1.09797 0.0110574 0)
(1.08482 0.016548 0)
(1.07388 0.0221894 0)
(1.06472 0.0275465 0)
(1.05901 0.0315262 0)
(1.05844 0.0336971 0)
(1.06263 0.0342433 0)
(1.07189 0.0343306 0)
(1.0867 0.0343086 0)
(1.07893 0.0322019 0)
(0.961523 0.0248455 0)
(0.686089 0.0133359 0)
(0.355125 0.00405102 0)
(0.0657507 0.000268957 0)
(0.103739 0.000163943 0)
(0.654358 0.00199643 0)
(0.955095 0.00257899 0)
(1.11449 0.00295693 0)
(1.14036 0.00577393 0)
(1.12246 0.0105738 0)
(1.1049 0.0161829 0)
(1.09093 0.0221969 0)
(1.07892 0.0282716 0)
(1.06837 0.0338586 0)
(1.06118 0.037766 0)
(1.05946 0.0396138 0)
(1.06287 0.0397648 0)
(1.07168 0.0394117 0)
(1.08491 0.0388775 0)
(1.06933 0.0357008 0)
(0.935178 0.02691 0)
(0.652717 0.0143092 0)
(0.331252 0.00434901 0)
(0.0599669 0.000289086 0)
(0.106953 0.000227996 0)
(0.66042 0.00348148 0)
(0.957698 0.00551551 0)
(1.11942 0.00714845 0)
(1.14839 0.0105917 0)
(1.13084 0.0160412 0)
(1.11258 0.0223237 0)
(1.09763 0.028989 0)
(1.0843 0.0356007 0)
(1.07207 0.0414779 0)
(1.06313 0.0453111 0)
(1.06009 0.0468154 0)
(1.06256 0.046537 0)
(1.07083 0.0457007 0)
(1.08187 0.0445726 0)
(1.05694 0.040093 0)
(0.905155 0.0295716 0)
(0.616459 0.0155544 0)
(0.305519 0.00470453 0)
(0.0537455 0.000310381 0)
(0.11154 0.000315145 0)
(0.671248 0.00522748 0)
(0.964527 0.00903537 0)
(1.1268 0.0120768 0)
(1.15774 0.0163462 0)
(1.14032 0.0226382 0)
(1.12121 0.0297522 0)
(1.10504 0.0372079 0)
(1.09009 0.0444556 0)
(1.07584 0.0506588 0)
(1.06482 0.0543862 0)
(1.06021 0.05551 0)
(1.06165 0.0547585 0)
(1.06925 0.0533851 0)
(1.07752 0.0515458 0)
(1.04113 0.0454864 0)
(0.870583 0.0328374 0)
(0.57648 0.0170309 0)
(0.277532 0.00509248 0)
(0.0470528 0.000330358 0)
(0.117865 0.000430401 0)
(0.6876 0.00739907 0)
(0.976282 0.0132961 0)
(1.13718 0.0179675 0)
(1.16876 0.0232948 0)
(1.15116 0.0306847 0)
(1.13099 0.0388151 0)
(1.11328 0.0472096 0)
(1.09633 0.0551763 0)
(1.07963 0.0617068 0)
(1.0662 0.0652549 0)
(1.0597 0.0658915 0)
(1.06007 0.0646295 0)
(1.06701 0.062666 0)
(1.07151 0.0599893 0)
(1.02106 0.0519495 0)
(0.830399 0.0366688 0)
(0.531958 0.0186557 0)
(0.247033 0.00547315 0)
(0.0399082 0.000345565 0)
(0.126442 0.000592065 0)
(0.710514 0.0102391 0)
(0.993785 0.018595 0)
(1.15124 0.025169 0)
(1.18197 0.0318253 0)
(1.16371 0.040636 0)
(1.14213 0.049995 0)
(1.12245 0.0594685 0)
(1.103 0.068188 0)
(1.08339 0.0749624 0)
(1.06717 0.0781763 0)
(1.05854 0.0781919 0)
(1.05777 0.0763491 0)
(1.06385 0.0736956 0)
(1.0633 0.0699263 0)
(0.995602 0.0595051 0)
(0.783359 0.0409331 0)
(0.482179 0.0202849 0)
(0.213991 0.00578955 0)
(0.0324044 0.000351802 0)
(0.138067 0.000828582 0)
(0.741345 0.0141227 0)
(1.0182 0.0254004 0)
(1.16976 0.0342321 0)
(1.19801 0.0425483 0)
(1.17836 0.0531842 0)
(1.15484 0.0639875 0)
(1.13258 0.0746165 0)
(1.11002 0.0840005 0)
(1.08694 0.0907908 0)
(1.06758 0.0934067 0)
(1.05667 0.0926219 0)
(1.05477 0.0901717 0)
(1.05942 0.0866908 0)
(1.05207 0.0815517 0)
(0.96329 0.068036 0)
(0.72812 0.0453576 0)
(0.426713 0.0216957 0)
(0.178727 0.0059676 0)
(0.0247255 0.000344616 0)
(0.154037 0.00119892 0)
(0.782111 0.0197033 0)
(1.05119 0.0345146 0)
(1.19372 0.0461024 0)
(1.21776 0.0568192 0)
(1.19548 0.0693882 0)
(1.16919 0.0817683 0)
(1.14352 0.0934544 0)
(1.11711 0.103202 0)
(1.09003 0.109585 0)
(1.06721 0.11119 0)
(1.05392 0.109349 0)
(1.05094 0.106193 0)
(1.05354 0.101952 0)
(1.03667 0.0948229 0)
(0.922219 0.077205 0)
(0.663421 0.0494767 0)
(0.365715 0.022584 0)
(0.14205 0.00592598 0)
(0.0171557 0.000320221 0)
(0.176584 0.0018399 0)
(0.836028 0.0281193 0)
(1.09563 0.0475058 0)
(1.22423 0.062665 0)
(1.24167 0.076326 0)
(1.21515 0.0909136 0)
(1.18492 0.104696 0)
(1.15483 0.116953 0)
(1.12384 0.1264 0)
(1.09228 0.131664 0)
(1.06581 0.131686 0)
(1.05011 0.128461 0)
(1.0461 0.124448 0)
(1.04611 0.119193 0)
(1.01545 0.109484 0)
(0.870044 0.0863699 0)
(0.588549 0.0526128 0)
(0.300376 0.0226063 0)
(0.105372 0.00559662 0)
(0.0100712 0.000275959 0)
(0.20917 0.00325604 0)
(0.908944 0.0421122 0)
(1.15461 0.0682639 0)
(1.2616 0.0874489 0)
(1.26957 0.104132 0)
(1.23675 0.120198 0)
(1.20118 0.134427 0)
(1.1657 0.146113 0)
(1.12951 0.154126 0)
(1.09319 0.157263 0)
(1.06307 0.154978 0)
(1.04508 0.149964 0)
(1.04011 0.14496 0)
(1.03632 0.138467 0)
(0.985963 0.124932 0)
(0.804106 0.094443 0)
(0.504321 0.0539438 0)
(0.233658 0.0215502 0)
(0.0708643 0.00496892 0)
(0.00395993 0.000210222 0)
(0.25363 0.0096605 8.5536e-21)
(1.00469 0.0698227 7.35932e-21)
(1.22573 0.103558 -2.58251e-21)
(1.30294 0.124352 0)
(1.29849 0.143968 -6.70539e-35)
(1.25804 0.159627 9.83529e-22)
(1.21637 0.172478 -1.79144e-21)
(1.17503 0.182137 0)
(1.13337 0.187647 3.73946e-35)
(1.09208 0.187905 -2.27118e-21)
(1.05814 0.182912 0)
(1.03791 0.176105 -2.7336e-21)
(1.03268 0.170703 -8.09361e-21)
(1.02213 0.16326 -3.84155e-21)
(0.94245 0.143192 -1.15964e-21)
(0.716649 0.101747 -6.89305e-22)
(0.405902 0.0532499 0)
(0.165029 0.0196943 4.82312e-22)
(0.0386909 0.00418831 5.71173e-22)
(-0.00124982 9.62989e-05 1.04427e-20)
(0.284645 0.0253269 5.80196e-21)
(1.08423 0.113668 1.17116e-22)
(1.28437 0.153833 6.66809e-22)
(1.34051 0.174594 0)
(1.32408 0.194297 -3.31645e-21)
(1.27659 0.207894 -3.79898e-21)
(1.22897 0.218562 -1.78517e-21)
(1.18183 0.225932 -6.42225e-21)
(1.13462 0.228995 0)
(1.08818 0.226612 9.59146e-21)
(1.05023 0.219239 9.56936e-21)
(1.02742 0.21083 2.85023e-21)
(1.01931 0.204193 1.04837e-20)
(0.994925 0.193335 1.48387e-20)
(0.870501 0.162754 0)
(0.594726 0.107118 2.09372e-20)
(0.292092 0.0509614 3.00253e-20)
(0.0960165 0.0167019 3.34071e-20)
(0.00826913 0.00224917 -3.83175e-20)
(-0.00596991 -0.000472208 -7.31081e-22)
(0.286489 0.0429679 0)
(1.13549 0.170289 8.88474e-22)
(1.32474 0.21529 0)
(1.37009 0.23578 -4.02684e-21)
(1.34451 0.252466 0)
(1.29112 0.262163 -7.29592e-21)
(1.23795 0.269136 3.59741e-21)
(1.18535 0.273031 -1.27533e-20)
(1.13298 0.272728 -3.28595e-22)
(1.08181 0.267009 4.90716e-21)
(1.04032 0.256833 2.09589e-20)
(1.01531 0.246645 -2.67729e-23)
(1.00369 0.238224 -7.59424e-21)
(0.963991 0.222861 -1.38724e-20)
(0.801367 0.179997 1.64552e-20)
(0.50071 0.110127 -2.9124e-20)
(0.221107 0.0481852 -3.83501e-21)
(0.0574371 0.0135938 0)
(-0.00778871 -0.00013462 -3.51986e-24)
(-0.00832718 -0.00116152 0)
(0.279937 0.0577302 8.7038e-21)
(1.16392 0.230667 -4.66273e-21)
(1.35035 0.281427 -4.12163e-21)
(1.39004 0.302255 1.81424e-21)
(1.35823 0.314915 -3.06334e-21)
(1.30048 0.320024 1.50946e-20)
(1.24281 0.322544 7.40869e-21)
(1.18559 0.32222 0)
(1.12872 0.317882 -2.41953e-20)
(1.07342 0.308253 0)
(1.02888 0.294887 -1.08861e-20)
(1.00199 0.282652 -1.35877e-20)
(0.986688 0.272007 -8.21785e-21)
(0.932361 0.251035 -1.00267e-20)
(0.741365 0.19548 0)
(0.433268 0.113446 0)
(0.175756 0.0468801 -2.48183e-20)
(0.0325934 0.0107565 4.89782e-21)
(-0.0187241 -0.00279922 -2.88696e-21)
(-0.0100326 -0.00193935 -3.41989e-21)
(0.271862 0.0706165 -1.11359e-21)
(1.17695 0.290909 0)
(1.36493 0.348513 7.13124e-21)
(1.4014 0.369979 4.76184e-21)
(1.36533 0.378662 7.20392e-21)
(1.30444 0.379154 0)
(1.24334 0.377065 7.07057e-21)
(1.18241 0.372257 1.38643e-20)
(1.12181 0.363534 1.22448e-20)
(1.06302 0.349642 2.28363e-20)
(1.01589 0.332764 0)
(0.98739 0.31822 -2.907e-20)
(0.968456 0.304914 -1.75855e-20)
(0.901558 0.27759 -1.04141e-20)
(0.69127 0.21011 6.39612e-20)
(0.385571 0.117615 7.58365e-21)
(0.145711 0.0464188 3.57187e-20)
(0.0147335 0.00776858 -1.6884e-19)
(-0.0277458 -0.00590285 9.99958e-20)
(-0.0116531 -0.00283711 -1.22062e-19)
(0.263838 0.0821147 2.44764e-21)
(1.17996 0.349016 1.06767e-22)
(1.37137 0.414592 -4.62584e-22)
(1.40586 0.437021 -3.87107e-21)
(1.36676 0.441961 -5.50432e-21)
(1.30355 0.43798 3.58128e-22)
(1.2398 0.431379 -7.64169e-21)
(1.17593 0.422097 1.4131e-20)
(1.11226 0.408899 -2.61963e-20)
(1.05052 0.390561 0)
(1.00121 0.369946 -1.30954e-20)
(0.971339 0.352826 -3.02345e-22)
(0.949129 0.336577 -1.91725e-20)
(0.872137 0.302588 0)
(0.650321 0.224016 -1.37803e-20)
(0.351817 0.122539 -3.26201e-20)
(0.124684 0.0463905 8.6732e-20)
(0.000644028 0.00447415 -8.53986e-20)
(-0.0360092 -0.00951834 1.21393e-19)
(-0.0133612 -0.00388825 -1.27733e-19)
(0.256751 0.0926019 -1.13665e-22)
(1.17651 0.40424 8.62344e-22)
(1.37186 0.478603 2.93189e-22)
(1.40487 0.502263 1.09587e-21)
(1.36358 0.503795 -2.65619e-21)
(1.29864 0.495575 0)
(1.23281 0.48466 -6.86135e-21)
(1.16652 0.471031 -1.46755e-20)
(1.10026 0.453402 -1.35068e-20)
(1.03599 0.430548 0)
(0.984812 0.406033 -1.33913e-20)
(0.953795 0.386089 -1.67135e-20)
(0.92879 0.366577 2.06692e-20)
(0.8443 0.325855 -1.259e-20)
(0.617107 0.237233 -5.95601e-20)
(0.327822 0.127909 3.52394e-20)
(0.109622 0.0464265 1.04161e-20)
(-0.0109248 0.00074113 0)
(-0.0439664 -0.0137134 -1.1638e-19)
(-0.0152866 -0.00514176 -4.31525e-21)
(0.250802 0.102426 1.07531e-21)
(1.16894 0.456387 -1.53162e-21)
(1.36789 0.539986 -4.62674e-22)
(1.39968 0.565041 4.46035e-21)
(1.35676 0.56353 -8.89244e-21)
(1.29052 0.551388 1.27179e-20)
(1.22301 0.536419 1.47276e-20)
(1.15468 0.518636 -2.33608e-20)
(1.08618 0.496689 8.4582e-21)
(1.01965 0.469332 -5.54477e-20)
(0.966809 0.440783 -1.5186e-20)
(0.9348 0.417772 0)
(0.907487 0.394716 2.23264e-20)
(0.817827 0.347322 2.67534e-20)
(0.589922 0.249688 3.19625e-20)
(0.31057 0.133305 -3.79998e-20)
(0.0988998 0.0462126 -1.12239e-20)
(-0.0201198 -0.00340559 1.32151e-20)
(-0.0512908 -0.0184089 0)
(-0.017392 -0.00661136 -9.3012e-21)
(0.245918 0.111664 -1.65015e-20)
(1.15899 0.505509 9.0604e-21)
(1.36078 0.598667 8.82856e-22)
(1.39128 0.625019 2.03691e-21)
(1.3471 0.620791 -3.45508e-21)
(1.2799 0.605056 -8.46428e-22)
(1.21101 0.586353 -1.61484e-20)
(1.14093 0.564676 -8.46034e-21)
(1.07041 0.53857 -2.33983e-20)
(1.00181 0.506784 5.20439e-23)
(0.947389 0.474104 -4.72426e-20)
(0.914448 0.447792 4.02079e-20)
(0.885205 0.420952 -2.4444e-20)
(0.792301 0.366966 2.93301e-20)
(0.566921 0.261366 0)
(0.297781 0.138448 -2.05307e-20)
(0.0915062 0.0457501 3.97648e-23)
(-0.0265611 -0.00766294 -5.72174e-20)
(-0.0571836 -0.023263 -8.44714e-21)
(-0.0194051 -0.00821304 0)
(0.242065 0.12059 0)
(1.14773 0.551847 1.04342e-20)
(1.3514 0.654762 4.32051e-21)
(1.38052 0.682039 -1.17359e-21)
(1.33532 0.675376 -5.05619e-21)
(1.26739 0.656392 0)
(1.19737 0.634283 -7.00943e-21)
(1.12575 0.609004 -2.22822e-22)
(1.05337 0.578979 5.01003e-20)
(0.982755 0.542859 -7.56162e-21)
(0.926773 0.50602 -3.41319e-20)
(0.892845 0.4762 2.0845e-20)
(0.861912 0.445393 -4.17449e-22)
(0.767202 0.384904 3.12126e-20)
(0.546461 0.272159 1.89196e-20)
(0.287504 0.14332 -4.41679e-20)
(0.0866316 0.045362 5.21835e-20)
(-0.0301718 -0.0115294 1.54663e-20)
(-0.0610725 -0.0277741 6.40073e-20)
(-0.0210394 -0.00979208 -1.73152e-19)
(0.239159 0.129359 -5.46933e-21)
(1.13597 0.595576 7.28859e-21)
(1.34041 0.707866 -4.88453e-21)
(1.36805 0.736058 -4.43393e-22)
(1.32201 0.727201 0)
(1.25352 0.705292 -5.07387e-21)
(1.18253 0.680121 2.39201e-20)
(1.10954 0.651551 1.84209e-20)
(1.0354 0.617879 0)
(0.962782 0.57759 -1.09408e-19)
(0.90514 0.536575 9.24514e-20)
(0.870121 0.503122 0)
(0.837576 0.46819 2.85307e-20)
(0.741653 0.401423 -3.80376e-22)
(0.527336 0.281968 -6.09173e-20)
(0.278503 0.147884 2.37979e-20)
(0.0835853 0.0452496 0)
(-0.0313423 -0.0146666 8.34345e-20)
(-0.0627625 -0.0315252 0)
(-0.022086 -0.0111984 -8.18614e-20)
(0.237112 0.137991 6.53554e-21)
(1.12419 0.636941 9.46902e-21)
(1.32829 0.758051 -4.84118e-21)
(1.35442 0.787097 0)
(1.30766 0.776269 -3.24994e-21)
(1.23873 0.751741 0)
(1.16692 0.723827 -2.30821e-20)
(1.09266 0.692296 -8.32507e-21)
(1.01683 0.655276 8.76094e-21)
(0.942151 0.611038 -5.42022e-20)
(0.882689 0.565876 9.53703e-21)
(0.846447 0.528688 0)
(0.81235 0.489506 -6.10796e-20)
(0.715759 0.416586 3.36968e-22)
(0.50842 0.290958 0)
(0.26974 0.152233 6.99006e-23)
(0.081401 0.0454486 7.62296e-20)
(-0.0307713 -0.0168924 -7.21075e-20)
(-0.0624782 -0.034339 2.13493e-20)
(-0.0224776 -0.0123049 0)
(0.235585 0.146455 0)
(1.11263 0.676139 1.14018e-20)
(1.3155 0.805439 7.10811e-21)
(1.34005 0.835234 -5.30417e-22)
(1.29266 0.822623 -2.49758e-22)
(1.22338 0.795762 -1.14563e-20)
(1.15086 0.765413 8.83745e-21)
(1.07542 0.731242 -1.00706e-20)
(0.997927 0.691197 3.94602e-20)
(0.921103 0.64328 -8.69918e-20)
(0.859624 0.594051 -8.95239e-22)
(0.821978 0.553005 -2.67467e-20)
(0.786324 0.509448 9.936e-20)
(0.689422 0.430457 -4.53902e-22)
(0.489141 0.299022 -4.75103e-20)
(0.26065 0.156107 -8.38296e-20)
(0.0794774 0.0459586 0)
(-0.0291501 -0.018264 0)
(-0.0606595 -0.0361456 2.30815e-20)
(-0.0222793 -0.0130768 -1.37082e-20)
(0.23473 0.154933 9.14606e-21)
(1.1015 0.713142 -2.58384e-20)
(1.30236 0.85014 -7.61823e-21)
(1.32528 0.880562 0)
(1.27734 0.866331 -3.08001e-22)
(1.20779 0.837402 -9.54828e-21)
(1.13464 0.804911 2.07587e-20)
(1.0581 0.768412 3.91234e-20)
(0.978961 0.725687 5.12849e-20)
(0.899881 0.674404 -7.12574e-20)
(0.836136 0.621232 -8.02703e-20)
(0.796859 0.576193 7.17718e-20)
(0.759652 0.528049 0)
(0.662613 0.442969 -2.18241e-20)
(0.469371 0.30592 -5.13335e-20)
(0.250797 0.159297 -6.04476e-20)
(0.0772424 0.0465206 -7.1241e-20)
(-0.0271276 -0.0189219 2.11037e-20)
(-0.0579575 -0.0370509 -1.24417e-20)
(-0.0216344 -0.0135207 6.98394e-23)
(0.234129 0.16324 0)
(1.09112 0.74814 0)
(1.28912 0.892268 5.0809e-22)
(1.31036 0.923184 0)
(1.26194 0.907491 -1.93034e-21)
(1.19219 0.876734 5.69366e-21)
(1.11849 0.842366 0)
(1.04092 0.80384 4.54995e-21)
(0.960158 0.75878 8.57659e-20)
(0.878709 0.704494 -1.64502e-19)
(0.812403 0.647562 0)
(0.771202 0.598374 -4.65361e-20)
(0.732365 0.545247 -5.49054e-22)
(0.635447 0.453854 -3.49439e-22)
(0.44917 0.311417 5.53671e-20)
(0.240298 0.161536 5.13322e-23)
(0.0745461 0.0469664 -1.53823e-19)
(-0.0251305 -0.0190841 4.54677e-20)
(-0.0548916 -0.0373083 1.34996e-20)
(-0.0207126 -0.0136942 0)
(0.233765 0.171331 -3.66065e-20)
(1.08123 0.78145 -1.73957e-20)
(1.27587 0.931902 -2.24251e-20)
(1.2955 0.963205 2.16213e-20)
(1.24667 0.946182 -6.4722e-21)
(1.17678 0.91383 0)
(1.10261 0.877837 1.2252e-20)
(1.02408 0.837569 -1.03094e-20)
(0.941707 0.79052 8.02766e-22)
(0.857791 0.733629 1.22263e-20)
(0.7886 0.673186 1.05003e-19)
(0.745088 0.619702 -1.63781e-20)
(0.704468 0.561011 -6.19335e-20)
(0.607865 0.462761 -2.55975e-20)
(0.428377 0.31493 2.99595e-20)
(0.229636 0.162442 6.88005e-23)
(0.0717306 0.0471178 4.15273e-20)
(-0.0232857 -0.0188593 -9.80545e-20)
(-0.0519042 -0.0371248 1.16418e-19)
(-0.0197167 -0.0137108 1.71793e-20)
(0.233449 0.179189 1.38914e-20)
(1.07185 0.813135 -9.78138e-21)
(1.26279 0.969176 1.31483e-21)
(1.28086 1.00076 1.39105e-20)
(1.23169 0.982522 2.76448e-21)
(1.16171 0.948772 -9.32508e-21)
(1.08714 0.911381 3.26299e-21)
(1.00772 0.869634 -4.29746e-20)
(0.92378 0.820928 -9.51388e-20)
(0.83731 0.761851 -9.88247e-20)
(0.764907 0.698242 0)
(0.718576 0.640364 -7.25675e-20)
(0.675817 0.575366 8.97592e-20)
(0.579697 0.469265 0)
(0.407581 0.315709 -6.44696e-20)
(0.219524 0.16133 3.809e-20)
(0.0698849 0.0466101 -4.47383e-20)
(-0.0211465 -0.0180713 -5.29147e-20)
(-0.0495683 -0.0366159 -9.39604e-20)
(-0.0190054 -0.0137535 -7.42143e-20)
(0.233448 0.186908 -1.57337e-20)
(1.06285 0.843204 1.04797e-20)
(1.24998 1.00416 2.3622e-20)
(1.26656 1.03593 2.03966e-20)
(1.21711 1.01661 -4.97417e-21)
(1.14709 0.981648 -4.08695e-21)
(1.0722 0.943055 1.12171e-20)
(0.991958 0.900085 -4.40814e-20)
(0.9065 0.850038 -5.66717e-20)
(0.817433 0.789204 1.04163e-19)
(0.741489 0.722852 2.33245e-19)
(0.691726 0.660587 0)
(0.646235 0.588462 0)
(0.550492 0.473057 -2.95761e-20)
(0.386569 0.312718 0)
(0.211025 0.156552 8.19201e-20)
(0.0715647 0.0444035 9.64124e-20)
(-0.0160794 -0.0174934 0)
(-0.0473299 -0.0362891 0)
(-0.0192534 -0.014293 7.99557e-20)
(0.233291 0.19419 1.78888e-20)
(1.05425 0.871674 1.41465e-20)
(1.23751 1.03699 1.71775e-20)
(1.25266 1.06886 -1.96778e-20)
(1.20301 1.04856 -6.7495e-21)
(1.133 1.01254 2.74442e-21)
(1.05786 0.972921 -1.53257e-20)
(0.976892 0.928955 -2.36115e-22)
(0.889983 0.877862 -1.0599e-21)
(0.798303 0.815706 -6.94241e-22)
(0.718529 0.747116 1.20766e-19)
(0.664638 0.680601 0)
(0.615539 0.600601 9.21388e-20)
(0.51956 0.474094 6.37434e-20)
(0.364382 0.30494 1.51535e-19)
(0.203941 0.145266 4.43568e-20)
(0.0795995 0.0344119 -5.19793e-20)
(0.000483866 -0.0247867 -3.06601e-20)
(-0.0344508 -0.0389436 0)
(-0.0184341 -0.0150985 8.62926e-20)
(0.233518 0.201513 -4.04865e-20)
(1.04602 0.898652 0)
(1.22539 1.0677 2.02472e-20)
(1.23922 1.09965 -1.6699e-20)
(1.18947 1.07846 9.43254e-21)
(1.1195 1.04153 -3.0628e-22)
(1.04421 1.00103 2.87348e-20)
(0.962582 0.956277 -3.61036e-21)
(0.874302 0.904413 0)
(0.78004 0.841336 -1.1609e-19)
(0.696213 0.771095 -2.64613e-19)
(0.63745 0.700639 1.09197e-20)
(0.583647 0.612199 1.28702e-19)
(0.486216 0.472852 0)
(0.339026 0.292271 1.03004e-19)
(0.194499 0.124027 0)
(0.0908519 0.00479163 0)
(0.0365331 -0.0620183 -3.31752e-20)
(0.0255152 -0.057545 0)
(0.0189532 -0.00207782 2.32185e-20)
(0.233398 0.208302 -4.52364e-20)
(1.03813 0.924442 0)
(1.21362 1.09651 3.38295e-20)
(1.22619 1.12853 0)
(1.17644 1.10659 -5.82466e-21)
(1.10653 1.06891 0)
(1.03117 1.0277 1.19301e-21)
(0.948939 0.982383 6.1589e-21)
(0.859342 0.930043 7.24017e-21)
(0.762479 0.866459 -1.28046e-19)
(0.674348 0.795235 7.96266e-21)
(0.609839 0.721404 8.87034e-20)
(0.549952 0.624125 1.26351e-19)
(0.449178 0.470095 1.69387e-20)
(0.307719 0.276014 8.14023e-20)
(0.175292 0.0933314 0)
(0.0876222 -0.0473906 1.09836e-19)
(0.0518442 -0.0914481 -6.44857e-20)
(0.0245167 0.0371275 7.54755e-20)
(-0.0389137 0.460898 -8.96606e-20)
(0.233295 0.214936 3.74897e-20)
(1.03035 0.948878 5.65488e-20)
(1.20212 1.12375 0)
(1.21343 1.15594 1.0002e-21)
(1.16374 1.13353 1.74211e-20)
(1.09382 1.09536 -7.04153e-21)
(1.01841 1.05372 9.3303e-21)
(0.935537 1.0082 0)
(0.844552 0.955827 4.75328e-20)
(0.744912 0.892349 -6.63872e-21)
(0.651964 0.820981 0)
(0.580365 0.744488 0)
(0.512045 0.637453 1.14248e-19)
(0.40534 0.466036 -5.25718e-20)
(0.266796 0.257898 -8.33623e-20)
(0.140499 0.0562169 0)
(0.0535072 -0.0162702 5.60719e-20)
(0.00311345 0.453102 -6.49042e-20)
(0.0283277 1.94242 -3.6384e-20)
(0.054476 2.83229 -4.47345e-20)
(0.232924 0.221063 -2.82226e-20)
(1.02275 0.972141 -7.27101e-20)
(1.19091 1.14941 2.01432e-20)
(1.20096 1.18178 1.64113e-20)
(1.15142 1.15909 0)
(1.08147 1.1206 -7.07635e-21)
(1.00618 1.07877 1.1657e-20)
(0.922585 1.03331 -2.95428e-21)
(0.830236 0.981263 7.18456e-21)
(0.727769 0.918434 1.22782e-19)
(0.629743 0.847759 1.36141e-19)
(0.550072 0.769925 1.0135e-19)
(0.470653 0.65281 1.16178e-19)
(0.355445 0.460383 -1.25292e-19)
(0.221221 0.24245 -1.27285e-19)
(0.0942522 0.117522 0)
(0.0347157 0.911389 0)
(0.0805328 2.59424 3.12007e-20)
(0.0837391 3.21818 0)
(0.0857257 3.39136 8.12092e-20)
(0.235382 0.226848 0)
(1.01567 0.994631 0)
(1.17968 1.17337 0)
(1.18857 1.20588 4.98323e-21)
(1.13916 1.18301 1.59727e-20)
(1.0693 1.1445 -7.74152e-21)
(0.994389 1.10276 7.11379e-21)
(0.910019 1.05757 -2.86478e-21)
(0.816334 1.00617 5.93943e-20)
(0.711049 0.94455 -1.5768e-21)
(0.607799 0.875377 2.70913e-19)
(0.519354 0.797858 -1.18139e-20)
(0.425696 0.671448 1.42623e-20)
(0.300893 0.451828 1.83192e-20)
(0.16367 0.259475 -7.73627e-22)
(0.0806885 1.03044 3.46998e-22)
(0.115311 2.77729 -1.68294e-19)
(0.119771 3.30274 -6.32148e-20)
(0.11201 3.42296 3.32343e-20)
(0.102897 3.4424 -3.75659e-20)
(0.158481 0.172368 1.72526e-20)
(1.00426 1.0191 0)
(1.1682 1.19582 -4.13164e-20)
(1.1767 1.22871 -4.48512e-20)
(1.12739 1.20577 3.78026e-20)
(1.05798 1.16754 9.11194e-21)
(0.982824 1.12571 -6.8207e-21)
(0.89787 1.08104 3.03816e-20)
(0.802928 1.03064 -4.87269e-20)
(0.69499 0.970813 0)
(0.586468 0.903918 1.34324e-19)
(0.488778 0.828135 -8.3695e-20)
(0.381238 0.701371 0)
(0.238246 0.446075 1.79928e-20)
(0.116863 0.714793 4.22012e-20)
(0.129983 2.58774 -4.72854e-20)
(0.176025 3.32687 5.34782e-20)
(0.160501 3.43079 2.86939e-20)
(0.134018 3.4497 3.23793e-20)
(0.115839 3.45864 5.14822e-20)
(0.269755 0.264087 -3.32823e-20)
(0.985827 1.02857 0)
(1.14916 1.22142 4.45501e-20)
(1.1614 1.25986 4.93432e-20)
(1.10931 1.23935 -4.24324e-20)
(1.03931 1.20144 -1.39299e-20)
(0.962934 1.16115 3.34183e-21)
(0.877297 1.11772 2.43474e-21)
(0.780659 1.06951 4.61356e-20)
(0.669182 1.01376 1.0712e-19)
(0.553662 0.953007 7.54352e-21)
(0.441191 0.878209 7.52854e-20)
(0.29692 0.725625 1.37105e-20)
(0.196783 0.868095 -1.74329e-20)
(0.203096 2.47144 -3.87658e-20)
(0.254114 3.32866 3.78939e-20)
(0.236901 3.45323 -4.13991e-20)
(0.203516 3.47269 -2.37195e-20)
(0.170895 3.49758 -2.13343e-20)
(0.126296 3.49345 -3.08681e-21)
(0.259726 0.262836 0)
(0.982452 1.05117 1.29476e-20)
(1.13995 1.24492 -9.16931e-21)
(1.14987 1.28343 -5.87728e-21)
(1.09776 1.26266 -2.92765e-20)
(1.02773 1.22492 1.44944e-20)
(0.950973 1.18482 -5.64881e-22)
(0.864968 1.14222 2.14482e-21)
(0.767481 1.09551 -4.79214e-20)
(0.654056 1.04275 -2.64439e-21)
(0.534397 0.986879 -2.44555e-19)
(0.413667 0.914041 1.08389e-20)
(0.274754 0.799249 -1.30335e-20)
(0.232821 1.52904 -1.60615e-20)
(0.296991 3.14477 3.66159e-21)
(0.308617 3.45363 1.15349e-22)
(0.267964 3.50064 6.13967e-20)
(0.234701 3.52535 3.09386e-20)
(0.189407 3.54597 -9.74381e-21)
(0.14003 3.54334 -1.53082e-20)
(0.24564 0.260696 3.31136e-20)
(0.978136 1.07627 8.77006e-20)
(1.13037 1.27051 -2.61206e-20)
(1.13796 1.30864 -2.20661e-20)
(1.08573 1.28744 0)
(1.01576 1.24972 2.64979e-20)
(0.938904 1.20988 2.23159e-21)
(0.852791 1.16808 1.82894e-21)
(0.754776 1.12302 -5.408e-21)
(0.639975 1.07359 -9.69803e-20)
(0.517183 1.02331 -1.13033e-19)
(0.389359 0.951283 -8.87166e-20)
(0.276299 0.952126 -9.83279e-20)
(0.299917 2.3246 1.01235e-19)
(0.379008 3.38191 8.49427e-20)
(0.348866 3.50809 0)
(0.301787 3.54659 0)
(0.265553 3.58108 -7.74763e-21)
(0.222821 3.62607 0)
(0.153657 3.6122 -1.17008e-20)
(0.235736 0.262475 -4.93202e-20)
(0.971885 1.1022 -7.42075e-20)
(1.11939 1.29732 0)
(1.12478 1.33466 1.21626e-21)
(1.07244 1.31289 -3.16814e-20)
(1.00268 1.27511 4.31578e-20)
(0.926067 1.23556 3.18938e-21)
(0.840078 1.19452 7.78536e-22)
(0.741804 1.1511 -3.31019e-20)
(0.626092 1.1051 4.76371e-21)
(0.501175 1.06053 0)
(0.367187 0.991958 0)
(0.29819 1.2577 -8.93163e-20)
(0.381173 2.9809 3.62652e-20)