/*--------------------------------*- C++ -*----------------------------------*\
  =========                 |
  \\      /  F ield         | OpenFOAM: The Open Source CFD Toolbox
   \\    /   O peration     | Website:  https://openfoam.org
    \\  /    A nd           | Version:  6
     \\/     M anipulation  |
\*---------------------------------------------------------------------------*/
FoamFile
{
    version     2.0;
    format      ascii;
    class       surfaceScalarField;
    location    "8";
    object      phi;
}
// * * * * * * * * * * * * * * * * * * * * * * * * * * * * * * * * * * * * * //

dimensions      [0 3 -1 0 0 0 0];

internalField   nonuniform List<scalar> 
4262
(
0.107066
0.470922
0.0930925
0.707559
0.0651357
0.86026
0.0424997
1.0214
0.0250988
1.21592
0.0146831
1.44864
0.00821418
1.73233
0.00375452
2.0755
0.00141183
2.48759
-0.000112877
2.98382
-0.00175712
2.98394
-0.00418517
2.48767
-0.00855129
2.0754
-0.0149481
1.73226
-0.0252668
1.44854
-0.0426905
1.21594
-0.0652338
1.02131
-0.0931286
0.860198
-0.107103
0.70756
0.470885
0.113407
0.357515
0.139063
0.681904
0.124024
0.875298
0.0990271
1.0464
0.0730983
1.24185
0.0499868
1.47175
0.0313373
1.75098
0.0179277
2.08891
0.00803968
2.49747
-0.000448261
2.9923
-0.00870996
2.9922
-0.0185094
2.49747
-0.0319315
2.08882
-0.0505637
1.75089
-0.073635
1.47161
-0.0994298
1.24173
-0.124354
1.04623
-0.139315
0.875159
-0.113537
0.681782
0.357348
0.0797133
0.277802
0.11025
0.651368
0.108985
0.876563
0.0959413
1.05944
0.0806444
1.25714
0.0618144
1.49058
0.043715
1.76908
0.0279907
2.10463
0.0131416
2.51232
-0.000954407
3.0064
-0.0151329
3.00638
-0.0298972
2.51224
-0.045379
2.10431
-0.0630958
1.76861
-0.0816617
1.49018
-0.0967253
1.2568
-0.109622
1.05913
-0.110712
0.876249
-0.0798956
0.650966
0.277453
0.0412413
0.236561
0.0660203
0.626589
0.0703711
0.872212
0.0676861
1.06213
0.0624631
1.26237
0.0554707
1.49757
0.0450414
1.77951
0.0315918
2.11808
0.0161077
2.52781
-0.00120806
3.02372
-0.0183386
3.02351
-0.0334397
2.52734
-0.046665
2.11753
-0.056854
1.7788
-0.0635495
1.49687
-0.0685298
1.26178
-0.0710716
1.06167
-0.066495
0.871672
-0.041424
0.625895
0.236029
0.0223006
0.21426
0.0392898
0.609599
0.0435896
0.867912
0.0434582
1.06226
0.0410826
1.26474
0.0373934
1.50126
0.0320981
1.78481
0.0236053
2.12657
0.0120166
2.5394
-0.00186627
3.0376
-0.0156132
3.03725
-0.0269105
2.53863
-0.0348534
2.12547
-0.0397793
1.78372
-0.0430553
1.50015
-0.0449635
1.26369
-0.0445953
1.0613
-0.039885
0.866962
-0.0225629
0.608573
0.213466
0.00935074
0.204909
0.0225725
0.596378
0.0293706
0.861114
0.0322429
1.05938
0.0328677
1.26412
0.0312853
1.50284
0.0269053
1.78919
0.0196455
2.13383
0.00991211
2.54913
-0.00266845
3.05018
-0.0153272
3.04991
-0.0246222
2.54793
-0.0310275
2.13188
-0.0344044
1.7871
-0.0351165
1.50086
-0.0339466
1.26252
-0.0307009
1.05806
-0.0235182
0.859779
-0.00976499
0.59482
0.203701
0.000227282
0.204682
0.00732506
0.58928
0.0156062
0.852833
0.02266
1.05233
0.02673
1.26005
0.0271665
1.5024
0.0237652
1.79259
0.0170876
2.14051
0.00796679
2.55825
-0.00373228
3.06188
-0.0146506
3.06083
-0.0225011
2.55578
-0.0282726
2.13765
-0.030878
1.78971
-0.0298866
1.49987
-0.0251718
1.2578
-0.0174042
1.05029
-0.00851222
0.850887
-0.000616552
0.586924
0.203084
-0.00226845
0.20695
-0.000745191
0.587757
0.00435839
0.84773
0.0108117
1.04588
0.0158323
1.25503
0.0176592
1.50058
0.0163364
1.79391
0.0120466
2.1448
0.00497957
2.56532
-0.00425236
3.07111
-0.0132554
3.06983
-0.0194672
2.56199
-0.0229136
2.1411
-0.0233236
1.79012
-0.0202666
1.49681
-0.014033
1.25157
-0.00650575
1.04276
-0.00040945
0.844791
0.00184027
0.584674
0.204924
-0.000995277
0.207946
-0.00100229
0.587764
0.00155825
0.845169
0.00527669
1.04216
0.00846893
1.25183
0.0100282
1.49902
0.00973001
1.79421
0.00717801
2.14735
0.00220139
2.57029
-0.00489345
3.07821
-0.0121235
3.07706
-0.0166633
2.56653
-0.0178066
2.14224
-0.0164488
1.78876
-0.0133838
1.49375
-0.00886278
1.24705
-0.00395351
1.03785
-0.000333012
0.841171
0.000452304
0.583889
0.205377
5.6729e-06
0.20794
2.80053e-05
0.587741
0.00136715
0.84383
0.00328888
1.04024
0.00487631
1.25025
0.00551786
1.49838
0.00485484
1.79487
0.00266186
2.14954
-0.00126333
2.57422
-0.00677086
3.08371
-0.0114007
3.08169
-0.0135972
2.56873
-0.0138287
2.14247
-0.0125964
1.78753
-0.0103411
1.49149
-0.00731853
1.24403
-0.0041608
1.03469
-0.00168349
0.838693
-0.000626444
0.582832
0.20475
-0.000347335
0.208287
-0.000648465
0.588042
-0.000262099
0.843443
0.000532125
1.03944
0.00126211
1.24952
0.00147841
1.49816
0.000756743
1.79559
-0.00119921
2.1515
-0.0044488
2.57747
-0.00872865
3.08799
-0.0118311
3.0848
-0.0128544
2.56975
-0.0126062
2.14222
-0.0111507
1.78607
-0.00887995
1.48922
-0.0062364
1.24138
-0.00367694
1.03213
-0.00161597
0.836632
-0.000552406
0.581768
0.204198
-0.000752684
0.20904
-0.00144524
0.588735
-0.00172732
0.843726
-0.00178213
1.0395
-0.00185467
1.24959
-0.00231746
1.49862
-0.00339171
1.79667
-0.00522242
2.15333
-0.00779632
2.58004
-0.0107244
3.09092
-0.0125942
3.08667
-0.0128759
2.57003
-0.0118622
2.14121
-0.010054
1.78426
-0.00777388
1.48694
-0.00542249
1.23903
-0.0032609
1.02997
-0.0015194
0.834891
-0.000401908
0.580651
0.203796
-0.00085498
0.209895
-0.00184088
0.589721
-0.00246294
0.844348
-0.00313515
1.04017
-0.00409911
1.25055
-0.00542761
1.49995
-0.0071052
1.79834
-0.00914508
2.15537
-0.0114277
2.58233
-0.0134489
3.09294
-0.0142348
3.08745
-0.0137616
2.56956
-0.0121373
2.13959
-0.0100046
1.78213
-0.00772179
1.48466
-0.00552331
1.23683
-0.00356358
1.02801
-0.00191553
0.833243
-0.000643013
0.579378
0.203153
-0.000964248
0.210859
-0.00234944
0.591106
-0.00355452
0.845553
-0.00489652
1.04151
-0.00655558
1.25221
-0.00850642
1.5019
-0.0107417
1.80058
-0.0131649
2.15779
-0.0155148
2.58468
-0.0171632
3.09459
-0.0171413
3.08743
-0.0157651
2.56818
-0.0135926
2.13741
-0.0110883
1.77963
-0.0085952
1.48216
-0.00628176
1.23452
-0.00423254
1.02596
-0.00243512
0.831445
-0.000902592
0.577846
0.20225
-0.00126747
0.212127
-0.00311905
0.592958
-0.00498316
0.847417
-0.00700822
1.04354
-0.00931438
1.25452
-0.0119209
1.50451
-0.0147854
1.80344
-0.0177281
2.16074
-0.020347
2.58729
-0.0218539
3.0961
-0.0212687
3.08685
-0.0191033
2.56602
-0.0162083
2.13452
-0.013129
1.77655
-0.0101733
1.47921
-0.00748675
1.23183
-0.00511187
1.02359
-0.00298778
0.829321
-0.00111929
0.575977
0.201131
-0.0016661
0.213793
-0.00409353
0.595385
-0.00656578
0.849889
-0.00926677
1.04624
-0.0123436
1.2576
-0.015786
1.50795
-0.0194925
1.80715
-0.0231771
2.16442
-0.0262737
2.59039
-0.0277792
3.0976
-0.0266223
3.08569
-0.0236328
2.56303
-0.0198869
2.13077
-0.0160303
1.77269
-0.0123999
1.47558
-0.00914458
1.22858
-0.00628111
1.02073
-0.0036985
0.826739
-0.00138969
0.573668
0.199741
-0.00215475
0.215948
-0.0053051
0.598535
-0.00856783
0.853152
-0.0121378
1.04981
-0.0161639
1.26162
-0.0206192
1.51241
-0.025351
1.81188
-0.0299704
2.16904
-0.0337166
2.59414
-0.0352943
3.09918
-0.0335073
3.0839
-0.0295616
2.55908
-0.0247872
2.126
-0.0199549
1.76786
-0.0154491
1.47107
-0.0114234
1.22455
-0.00787321
1.01718
-0.00465087
0.823516
-0.00175179
0.570769
0.19799
-0.00276253
0.21871
-0.00676765
0.602541
-0.0108804
0.857265
-0.0154373
1.05436
-0.0206617
1.26685
-0.0264727
1.51822
-0.0326124
1.81802
-0.0385252
2.17495
-0.0431873
2.5988
-0.0449289
3.10092
-0.0423691
3.08134
-0.0371915
2.5539
-0.0310635
2.11987
-0.0249231
1.76172
-0.0192364
1.46539
-0.0141928
1.21951
-0.00977934
1.01276
-0.0057856
0.819522
-0.00218121
0.567165
0.195808
-0.0037019
0.222412
-0.00905408
0.607893
-0.0145488
0.862759
-0.0205246
1.06034
-0.027194
1.27351
-0.0345101
1.52553
-0.0422038
1.82572
-0.0495581
2.18231
-0.0552205
2.60446
-0.0570476
3.10275
-0.0534847
3.07778
-0.0467982
2.54722
-0.039045
2.11212
-0.0313611
1.75403
-0.0242873
1.45831
-0.0180056
1.21323
-0.0124603
1.00722
-0.00738086
0.814443
-0.00276839
0.562552
0.19304
-0.00465973
0.227072
-0.0111905
0.614423
-0.0180131
0.869582
-0.0256676
1.068
-0.0344486
1.2823
-0.044189
1.53527
-0.0543195
1.83585
-0.063791
2.19178
-0.0708027
2.61147
-0.0726868
3.10463
-0.0677584
3.07285
-0.0590554
2.53851
-0.0490955
2.10216
-0.0392393
1.74418
-0.0301613
1.44923
-0.02214
1.2052
-0.0151525
1.00023
-0.00890496
0.808195
-0.00335216
0.557
0.189688
-0.00673135
0.233803
-0.016203
0.623895
-0.0253892
0.878768
-0.0352172
1.07782
-0.0461921
1.29327
-0.0581926
1.54727
-0.0706551
1.84831
-0.0821385
2.20326
-0.0902553
2.61959
-0.0917897
3.10617
-0.085053
3.06611
-0.0739556
2.52742
-0.0615053
2.08971
-0.0493353
1.73201
-0.038236
1.43813
-0.0284559
1.19542
-0.0198428
0.991616
-0.0118186
0.800171
-0.00438354
0.549565
0.185304
-0.00814081
0.241944
-0.0190869
0.634841
-0.0310524
0.890734
-0.0444986
1.09127
-0.0595918
1.30836
-0.0758881
1.56357
-0.0922096
1.86463
-0.106373
2.21743
-0.115637
2.62885
-0.116378
3.10691
-0.107159
3.05689
-0.0929902
2.51325
-0.0772672
2.07398
-0.06175
1.71649
-0.0473728
1.42376
-0.0345616
1.18261
-0.0233565
0.980411
-0.0135331
0.790348
-0.00507358
0.541105
0.180231
-0.013124
0.255068
-0.0301902
0.651907
-0.0456288
0.906172
-0.0621685
1.10781
-0.0807814
1.32698
-0.101084
1.58387
-0.120624
1.88417
-0.136795
2.2336
-0.146463
2.63852
-0.145612
3.10606
-0.133255
3.04454
-0.115522
2.49551
-0.0962583
2.05472
-0.0774785
1.69771
-0.0602118
1.40649
-0.0449873
1.16739
-0.0315693
0.966993
-0.0188807
0.777659
-0.00698919
0.529214
0.173241
-0.016605
0.271673
-0.0375345
0.672837
-0.0593741
0.928012
-0.0839271
1.13236
-0.110763
1.35381
-0.136668
1.60978
-0.159314
1.90682
-0.176722
2.25101
-0.185607
2.64741
-0.181892
3.10234
-0.165385
3.02803
-0.14344
2.47357
-0.120036
2.03132
-0.0971276
1.6748
-0.0755398
1.3849
-0.0556358
1.14748
-0.0378471
0.949204
-0.0218852
0.761697
-0.00787937
0.515208
0.165362
-0.0315074
0.30318
-0.0622473
0.703577
-0.0910678
0.956832
-0.123501
1.1648
-0.155333
1.38564
-0.183988
1.63843
-0.208414
1.93124
-0.225757
2.26835
-0.232438
2.65409
-0.224618
3.09452
-0.203153
3.00657
-0.176483
2.4469
-0.148562
2.0034
-0.121416
1.64765
-0.0962351
1.35972
-0.0732165
1.12447
-0.0519171
0.927905
-0.0319669
0.741747
-0.0111926
0.494433
0.154169
-0.042056
0.345236
-0.0966324
0.758153
-0.142807
1.00301
-0.184836
1.20682
-0.21932
1.42013
-0.248825
1.66794
-0.272395
1.95481
-0.286636
2.28259
-0.288506
2.65596
-0.274541
3.08056
-0.24702
2.97905
-0.215268
2.41515
-0.182975
1.9711
-0.151808
1.61649
-0.122514
1.33043
-0.0953295
1.09728
-0.0689811
0.901556
-0.0408401
0.713606
-0.013645
0.467238
0.140525
-0.0248332
0.370069
-0.0707255
0.804045
-0.11754
1.04982
-0.160286
1.24957
-0.200793
1.46064
-0.240232
1.70738
-0.275605
1.99019
-0.304076
2.31106
-0.322097
2.67398
-0.323239
3.0817
-0.303876
2.95968
-0.271813
2.38308
-0.232761
1.93205
-0.190336
1.57406
-0.146931
1.28702
-0.104642
1.05499
-0.0653285
0.862243
-0.0302123
0.67849
-0.00743039
0.444456
0.133094
-0.0034234
0.373493
-0.02286
0.823482
-0.0529801
1.07994
-0.0889675
1.28556
-0.127753
1.49942
-0.165149
1.74477
-0.197679
2.02272
-0.223482
2.33686
-0.238957
2.68945
-0.237872
3.08062
-0.217772
2.93958
-0.187028
2.35234
-0.151403
1.89643
-0.114678
1.53734
-0.079213
1.25156
-0.0463632
1.02214
-0.0180057
0.833886
0.000647381
0.659837
0.0057226
0.439381
0.138817
0.00397313
0.36952
-0.00996796
0.837423
-0.0321579
1.10213
-0.057084
1.31048
-0.0862055
1.52854
-0.116335
1.7749
-0.144342
2.05072
-0.167391
2.35991
-0.181155
2.70322
-0.180193
3.07965
-0.16276
2.92215
-0.137085
2.32666
-0.108824
1.86817
-0.0811664
1.50968
-0.0557391
1.22613
-0.0330981
0.999501
-0.0136621
0.81445
0.000372217
0.645803
0.0040695
0.435684
0.142886
0.0046055
0.364914
-0.00545569
0.847484
-0.0233181
1.11999
-0.0429792
1.33015
-0.0651822
1.55075
-0.0882759
1.79799
-0.111095
2.07354
-0.130697
2.37951
-0.142832
2.71535
-0.142671
3.07949
-0.12859
2.90807
-0.107933
2.30601
-0.0857037
1.84594
-0.0644076
1.48838
-0.0451809
1.2069
-0.0285074
0.982827
-0.0146899
0.800632
-0.00454586
0.635659
0.000371867
0.430766
0.143258
0.00719212
0.357722
0.00102806
0.853648
-0.0154943
1.13652
-0.034285
1.34894
-0.0536793
1.57014
-0.0727947
1.81711
-0.0916138
2.09236
-0.107893
2.39579
-0.118378
2.72584
-0.118816
3.07993
-0.107374
2.89663
-0.0902081
2.28884
-0.0717064
1.82743
-0.0540828
1.47076
-0.0383466
1.19117
-0.0248974
0.969378
-0.0139041
0.789639
-0.00570614
0.627461
-0.000933987
0.425994
0.142324
0.00555156
0.352171
0.00161904
0.857581
-0.0117239
1.14986
-0.028585
1.3658
-0.046067
1.58762
-0.0632498
1.83429
-0.0797644
2.10888
-0.0939186
2.40995
-0.103367
2.73529
-0.104364
3.08093
-0.0948496
2.88712
-0.0799884
2.27398
-0.0637952
1.81124
-0.0483711
1.45534
-0.0346457
1.17744
-0.0229365
0.957669
-0.0133154
0.780018
-0.00588976
0.620035
-0.00122785
0.421332
0.141096
0.00263829
0.349532
-0.00128106
0.8615
-0.0118548
1.16043
-0.0259847
1.37993
-0.0411794
1.60282
-0.0568917
1.85
-0.0721362
2.12412
-0.0853977
2.42321
-0.0946074
2.7445
-0.0963866
3.0827
-0.0884862
2.87922
-0.0752963
2.26079
-0.060583
1.79653
-0.0463812
1.44114
-0.0336748
1.16474
-0.0227622
0.946756
-0.0136485
0.770904
-0.00643156
0.612818
-0.00167633
0.416577
0.13942
-0.000220656
0.349753
-0.00453739
0.865817
-0.0134733
1.16937
-0.025367
1.39182
-0.0385227
1.61597
-0.0528046
1.86429
-0.067098
2.13841
-0.0800572
2.43617
-0.08964
2.75408
-0.0927035
3.08577
-0.0864711
2.87298
-0.0745232
2.24884
-0.0606463
1.78265
-0.0470056
1.42749
-0.0345403
1.15227
-0.023656
0.935872
-0.0145093
0.761757
-0.00717348
0.605482
-0.00212095
0.411524
0.137299
-0.00211816
0.351871
-0.006797
0.870496
-0.0149405
1.17751
-0.0254112
1.40229
-0.0371982
1.62776
-0.0502876
1.87738
-0.0638656
2.15199
-0.0768467
2.44915
-0.0872703
2.7645
-0.0920497
3.09055
-0.0876474
2.86858
-0.076859
2.23805
-0.0633935
1.76919
-0.0495656
1.41367
-0.0368177
1.13952
-0.0256518
0.924706
-0.0160961
0.752202
-0.00823747
0.597624
-0.00260783
0.405895
0.134691
-0.00303301
0.354904
-0.00808809
0.875551
-0.015791
1.18522
-0.0254189
1.41192
-0.0363881
1.63873
-0.0486633
1.88965
-0.0618023
2.16513
-0.0749234
2.46227
-0.0863558
2.77594
-0.0931897
3.09738
-0.0908245
2.86622
-0.0809081
2.22814
-0.0676579
1.75594
-0.0538137
1.39982
-0.0405773
1.12629
-0.0286768
0.912806
-0.0183557
0.74188
-0.00970711
0.588975
-0.00323721
0.399425
0.131454
-0.00351628
0.35842
-0.00883755
0.880872
-0.0161969
1.19257
-0.0252615
1.42098
-0.0356665
1.64913
-0.0473882
1.90137
-0.0602314
2.17797
-0.0735516
2.47559
-0.0862718
2.78866
-0.0958277
3.10694
-0.0964946
2.86688
-0.0883087
2.21995
-0.0747297
1.74236
-0.0595153
1.38461
-0.0448245
1.1116
-0.0315144
0.899496
-0.020262
0.730628
-0.0110405
0.579753
-0.00391862
0.392303
0.127535
-0.00370675
0.362127
-0.00923054
0.886396
-0.0163286
1.19967
-0.0249568
1.42961
-0.0348659
1.65904
-0.0461431
1.91265
-0.0587198
2.19055
-0.0722623
2.48913
-0.0863156
2.80271
-0.0986193
3.11924
-0.101738
2.87
-0.0945095
2.21272
-0.0816768
1.72952
-0.0663597
1.36929
-0.0514417
1.09668
-0.0378435
0.885897
-0.0250494
0.717834
-0.0135317
0.568236
-0.0046497
0.383421
0.122886
-0.00383864
0.365966
-0.0094432
0.892001
-0.0162973
1.20653
-0.0245189
1.43783
-0.033948
1.66847
-0.044786
1.92349
-0.0570196
2.20278
-0.0706847
2.5028
-0.0859989
2.81802
-0.101634
3.13488
-0.109997
2.87836
-0.106623
2.20935
-0.0930316
1.71593
-0.0753712
1.35163
-0.0566365
1.07794
-0.0396585
0.868919
-0.0259501
0.704126
-0.0147839
0.55707
-0.00556175
0.374199
0.117324
-0.00390437
0.36987
-0.00951619
0.897612
-0.0161515
1.21316
-0.0239805
1.44566
-0.0329393
1.67743
-0.0432922
1.93384
-0.0550966
2.21459
-0.0687781
2.51648
-0.0851822
2.83443
-0.10404
3.15373
-0.115976
2.8903
-0.114509
2.20788
-0.10373
1.70515
-0.0852711
1.33317
-0.0665985
1.05927
-0.0494891
0.85181
-0.0334548
0.688091
-0.0188376
0.542452
-0.00679734
0.362158
0.110527
-0.00391645
0.373787
-0.00951813
0.903214
-0.0159308
1.21957
-0.0233566
1.45309
-0.0318392
1.68591
-0.0416229
1.94362
-0.052876
2.22584
-0.0663614
2.52997
-0.0833025
2.85137
-0.10454
3.17497
-0.122449
2.90821
-0.126116
2.21155
-0.117224
1.69626
-0.0990688
1.31502
-0.07366
1.03386
-0.0509959
0.829146
-0.0337975
0.670893
-0.0192328
0.527888
-0.00742696
0.350353
0.1031
-0.003899
0.377686
-0.00946905
0.908784
-0.0156614
1.22577
-0.0226922
1.46012
-0.0306619
1.69388
-0.0397842
1.95275
-0.0504223
2.23648
-0.0636797
2.54322
-0.0810492
2.86874
-0.105036
3.19896
-0.129134
2.93231
-0.137562
2.21998
-0.133123
1.69182
-0.114013
1.29591
-0.0893739
1.00922
-0.0628117
0.802584
-0.0398466
0.647928
-0.0232531
0.511294
-0.00848372
0.335583
0.0946158
-0.00386997
0.381556
-0.00940911
0.914323
-0.0153649
1.23172
-0.0219751
1.46673
-0.0293763
1.70128
-0.0377898
1.96116
-0.0478091
2.2465
-0.0607837
2.5562
-0.0780944
2.88605
-0.10303
3.22389
-0.132533
2.96181
-0.146889
2.23433
-0.145413
1.69035
-0.133013
1.28351
-0.107338
0.983548
-0.0743255
0.769571
-0.0447318
0.618334
-0.0230426
0.489605
-0.00766417
0.320205
0.0869517
-0.00383422
0.38539
-0.00935768
0.919847
-0.015081
1.23745
-0.0212221
1.47287
-0.0279886
1.70805
-0.0356943
1.96887
-0.0451113
2.25592
-0.0576897
2.56878
-0.0744993
2.90286
-0.0997737
3.24917
-0.134308
2.99634
-0.157994
2.25802
-0.162659
1.69501
-0.153246
1.27409
-0.128332
0.958634
-0.0871402
0.728379
-0.0429877
0.574181
-0.0144903
0.461108
-0.000779021
0.306493
0.0861727
-0.0038077
0.389197
-0.00936879
0.925408
-0.0147856
1.24286
-0.0203587
1.47844
-0.0264694
1.71416
-0.0335502
1.97595
-0.0424409
2.26481
-0.0545148
2.58085
-0.070806
2.91915
-0.0969921
3.27535
-0.134785
3.03414
-0.166955
2.29019
-0.177938
1.70599
-0.166536
1.26269
-0.146943
0.939041
-0.117801
0.699237
-0.0640807
0.520462
0.00387894
0.393148
0.0280515
0.282321
0.114224
-0.00381605
0.393014
-0.00906226
0.930654
-0.014148
1.24795
-0.0193911
1.48369
-0.0250709
1.71984
-0.0317591
1.98264
-0.0402182
2.27327
-0.051552
2.59218
-0.0669162
2.93451
-0.0931981
3.30164
-0.135185
3.07612
-0.17526
2.33027
-0.189876
1.72061
-0.185915
1.25873
-0.177261
0.930387
-0.146062
0.668038
-0.0720754
0.446475
0.0273235
0.293749
0.087012
0.222632
0.201236
-0.00393876
0.396952
-0.00901923
0.935735
-0.013929
1.25286
-0.0189965
1.48875
-0.0245644
1.72541
-0.0313541
1.98942
-0.0399967
2.28191
-0.0513081
2.6035
-0.0669314
2.95014
-0.095704
3.33041
-0.145959
3.12638
-0.195917
2.38022
-0.219989
1.74468
-0.228884
1.26763
-0.216125
0.917628
-0.201092
0.653005
-0.229778
0.475161
-0.426345
0.490315
-0.93695
0.733238
0.90315
-1.63886
-0.00406443
0.401017
-0.00919989
0.94087
-0.0137318
1.25739
-0.0181994
1.49322
-0.0234819
1.73069
-0.0302596
1.9962
-0.0388032
2.29045
-0.0495049
2.6142
-0.0648215
2.96545
-0.0960779
3.36167
-0.152667
3.18297
-0.215153
2.44271
-0.263519
1.79305
-0.289609
1.29372
-0.304113
0.932133
-0.383341
0.732233
-0.728654
0.820474
-1.40332
1.16498
-1.99823
1.32814
1.21772
-2.3128
-0.00427016
0.405287
-0.0091937
0.945794
-0.0131584
1.26136
-0.0172042
1.49727
-0.0225348
1.73602
-0.029377
2.00304
-0.03765
2.29873
-0.0474584
2.62401
-0.0621437
2.98014
-0.0961209
3.39564
-0.158924
3.24577
-0.23491
2.51869
-0.291408
1.84955
-0.322608
1.32491
-0.421777
1.0313
-0.786803
1.09726
-1.50379
1.53746
-2.07202
1.73322
-2.31037
1.5665
1.33141
-2.42406
-0.00451465
0.409802
-0.00919137
0.95047
-0.01233
1.26449
-0.0161066
1.50104
-0.0217345
1.74165
-0.0285704
2.00988
-0.0363606
2.30652
-0.045146
2.63279
-0.0586966
2.99369
-0.0925966
3.42954
-0.162447
3.31562
-0.25231
2.60856
-0.326589
1.92383
-0.421507
1.41983
-0.724218
1.33401
-1.39483
1.76787
-1.98634
2.12896
-2.23195
1.97883
-2.34889
1.68343
1.40197
-2.41945
-0.00349295
0.413295
-0.00740147
0.954379
-0.010908
1.268
-0.015475
1.50561
-0.0212998
1.74748
-0.0278075
2.01639
-0.0349475
2.31366
-0.042582
2.64042
-0.0547201
3.00583
-0.0865968
3.46142
-0.163766
3.39279
-0.264468
2.70926
-0.36474
2.0241
-0.559599
1.61469
-1.07835
1.85277
-1.74952
2.43904
-2.08946
2.46891
-2.2462
2.13557
-2.33422
1.77145
1.46759
-2.39984
-0.0022462
0.415541
-0.00577041
0.957903
-0.0103918
1.27262
-0.0158935
1.51111
-0.0217493
1.75333
-0.0279407
2.02258
-0.0344707
2.32019
-0.0408112
2.64677
-0.0511405
3.01616
-0.0796618
3.48994
-0.164641
3.47777
-0.279145
2.82376
-0.430933
2.17588
-0.771052
1.95481
-1.42723
2.50895
-1.91718
2.92899
-2.12148
2.6732
-2.23223
2.24632
-2.31177
1.85099
1.53164
-2.37581
-0.00234111
0.417882
-0.00624231
0.961804
-0.0111579
1.27754
-0.0169396
1.51689
-0.0230621
1.75945
-0.0292947
2.02881
-0.0351877
2.32608
-0.039825
2.6514
-0.0473139
3.02365
-0.0712326
3.51386
-0.156355
3.56289
-0.298908
2.96632
-0.527408
2.40438
-0.996885
2.42429
-1.60885
3.12091
-1.91283
3.23297
-2.06859
2.82896
-2.17958
2.35731
-2.27802
1.94943
1.61162
-2.358
-0.00308615
0.420968
-0.00758762
0.966306
-0.0124934
1.28244
-0.0182602
1.52266
-0.0246183
1.76581
-0.0309511
2.03514
-0.0359596
2.33109
-0.0385334
2.65398
-0.0410621
3.02617
-0.0569719
3.52977
-0.129389
3.63531
-0.303782
3.14071
-0.628702
2.72931
-1.17329
2.96888
-1.67054
3.61816
-1.90074
3.46317
-2.06944
2.99767
-2.21044
2.4983
-2.32269
2.06168
1.65152
-2.36259
-0.00375637
0.424724
-0.00876817
0.971317
-0.0140137
1.28769
-0.0200104
1.52866
-0.0265598
1.77236
-0.0329516
2.04154
-0.03709
2.33523
-0.0373885
2.65428
-0.034493
3.02328
-0.0330883
3.52836
-0.0832088
3.68543
-0.300944
3.35845
-0.706236
3.1346
-1.2777
3.54034
-1.68215
4.02261
-1.8797
3.66072
-2.00296
3.12092
-2.12749
2.62283
-2.2028
2.137
1.61478
-2.16607
-0.00437628
0.429101
-0.0101511
0.977092
-0.0158974
1.29344
-0.0222305
1.53499
-0.0290006
1.77913
-0.0353958
2.04793
-0.0387986
2.33863
-0.036277
2.65175
-0.0275862
3.01459
0.00957903
3.4912
-0.0191134
3.71412
-0.290778
3.63011
-0.75099
3.59481
-1.29234
4.08169
-1.63334
4.36361
-1.85511
3.8825
-1.97526
3.24106
-2.02352
2.6711
-2.014
2.12748
1.64902
-2.04823
-0.00493157
0.434032
-0.0113702
0.983531
-0.017783
1.29985
-0.0247405
1.54195
-0.0318104
1.7862
-0.0380591
2.05418
-0.0406446
2.34121
-0.0352566
2.64637
-0.013944
2.99328
0.0646752
3.41258
0.0492367
3.72956
-0.24992
3.92927
-0.73379
4.07868
-1.23219
4.5801
-1.50759
4.63901
-1.65189
4.02679
-1.75431
3.34348
-1.66546
2.58225
-1.21543
1.67745
0.433585
-0.00556687
0.439599
-0.0128589
0.990823
-0.0201751
1.30716
-0.02804
1.54981
-0.0358993
1.79406
-0.0426435
2.06092
-0.0449182
2.34349
-0.037526
2.63897
0.00853792
2.94721
0.123405
3.29771
0.116879
3.73609
-0.250219
4.29636
-0.787831
4.61629
-1.27075
5.06301
-1.49007
4.85833
-1.58543
4.12216
-1.54951
3.30756
-1.30968
2.34242
-0.583764
0.951531
-0.150179
-0.00621081
0.44581
-0.0145204
0.999132
-0.0228377
1.31548
-0.0318894
1.55887
-0.0410751
1.80325
-0.0487779
2.06863
-0.0510648
2.34578
-0.0405285
2.62844
0.0306178
2.87607
0.171575
3.15676
0.176025
3.73164
-0.25274
4.72513
-0.833465
5.19702
-1.28776
5.51731
-1.46444
5.03501
-1.51153
4.16925
-1.33314
3.12918
-0.785244
1.79452
-0.0580563
0.224343
-0.208235
-0.00689186
0.452702
-0.0165348
1.00878
-0.0262245
1.32517
-0.0367113
1.56935
-0.0475279
1.81406
-0.0569056
2.07801
-0.0603573
2.34923
-0.0452534
2.61333
0.0398025
2.79101
0.194548
3.00201
0.193899
3.73228
-0.260759
5.17979
-0.856863
5.79312
-1.24042
5.90087
-1.41445
5.20904
-1.42111
4.17591
-1.13482
2.84289
-0.321838
0.981536
0.0244437
-0.121939
-0.183792
-0.00755513
0.460257
-0.0186135
1.01983
-0.0300464
1.3366
-0.0426788
1.58198
-0.0560408
1.82743
-0.0682855
2.09025
-0.0748817
2.35582
-0.0592415
2.59769
0.0149084
2.71686
0.12233
2.89459
0.100452
3.75416
-0.337296
5.61754
-0.939368
6.39519
-1.23631
6.19781
-1.37905
5.35178
-1.31722
4.11407
-0.801294
2.32696
-0.120898
0.30114
-0.0377452
-0.205092
-0.221537
-0.00811135
0.468368
-0.0210201
1.03274
-0.034686
1.35027
-0.0499549
1.59725
-0.0666699
1.84414
-0.0833358
2.10692
-0.0962859
2.36877
-0.0911463
2.59255
-0.0562608
2.68197
-0.0364825
2.87481
-0.106241
3.82392
-0.510817
6.02211
-1.02573
6.91011
-1.22215
6.39422
-1.29202
5.42165
-1.16198
3.98403
-0.589017
1.754
-0.292523
0.00464633
-0.136076
-0.361538
-0.357613
-0.00859141
0.47696
-0.0235887
1.04774
-0.0401337
1.36681
-0.0590852
1.6162
-0.0805741
1.86563
-0.103923
2.13026
-0.127658
2.39251
-0.1464
2.6113
-0.172981
2.70855
-0.256319
2.95815
-0.423001
3.9906
-0.781189
6.3803
-1.07734
7.20625
-1.16262
6.4795
-1.15276
5.41179
-0.913928
3.7452
-0.540738
1.38081
-0.403196
-0.132896
-0.172963
-0.591771
-0.530576
-0.00852822
0.485488
-0.0259777
1.06519
-0.0458765
1.38671
-0.0692487
1.63958
-0.0968102
1.89319
-0.129507
2.16296
-0.16943
2.43243
-0.221892
2.66376
-0.322736
2.8094
-0.518088
3.1535
-0.774368
4.24688
-1.00915
6.61508
-1.0843
7.2814
-1.02081
6.41601
-0.819475
5.21046
-0.524271
3.45
-0.352271
1.20881
-0.286635
-0.198532
-0.142195
-0.736211
-0.672771
-0.00832825
0.493816
-0.0286658
1.08553
-0.0529173
1.41097
-0.0817037
1.66836
-0.116453
1.92794
-0.160414
2.20692
-0.220416
2.49243
-0.311655
2.755
-0.484622
2.98237
-0.78047
3.44935
-1.07131
4.53772
-1.10534
6.64911
-0.939059
7.11513
-0.678094
6.15504
-0.252812
4.78518
0.115564
3.08162
0.226012
1.09836
0.156065
-0.128585
0.0384794
-0.618625
-0.634292
-0.00696176
0.500778
-0.0296323
1.1082
-0.0580614
1.43939
-0.0926018
1.7029
-0.135437
1.97077
-0.192168
2.26365
-0.273868
2.57413
-0.402946
2.88407
-0.63258
3.212
-0.995359
3.81213
-1.29013
4.8325
-1.14441
6.50338
-0.764808
6.73553
-0.319079
5.70932
0.24875
4.21735
0.660905
2.66947
0.731328
1.02794
0.532644
0.0700992
0.231852
-0.317833
-0.40244
-0.00610572
0.506884
-0.0318259
1.13392
-0.0647902
1.47236
-0.104649
1.74276
-0.154799
2.02092
-0.223359
2.33221
-0.323377
2.67415
-0.480577
3.04127
-0.743263
3.47469
-1.13065
4.19952
-1.39139
5.09323
-1.12673
6.23872
-0.640261
6.24906
-0.0770357
5.14609
0.504571
3.63574
0.892523
2.28151
0.87576
1.0447
0.606575
0.339285
0.260041
0.0287005
-0.142399
-0.00390105
0.510785
-0.0291489
1.15917
-0.0648434
1.50805
-0.109367
1.78729
-0.166663
2.07822
-0.245065
2.41062
-0.356761
2.78585
-0.527423
3.21194
-0.796237
3.7435
-1.16555
4.56883
-1.35943
5.28711
-0.992325
5.87162
-0.422983
5.67972
0.178105
4.545
0.644148
3.1697
0.885526
2.04014
0.787542
1.14269
0.506368
0.620459
0.205661
0.329408
0.0632621
-0.000364972
0.51115
-0.0269892
1.18579
-0.0648024
1.54587
-0.111848
1.83433
-0.172713
2.13909
-0.254737
2.49264
-0.368252
2.89936
-0.534903
3.37859
-0.781985
3.99058
-1.09681
4.88366
-1.21436
5.40466
-0.800726
5.45798
-0.184296
5.06329
0.354644
4.00606
0.657423
2.86692
0.737308
1.96025
0.593995
1.286
0.358091
0.856364
0.133258
0.55424
0.19652
0.00349163
0.507658
-0.0162552
1.20554
-0.0532813
1.58289
-0.101627
1.88268
-0.163851
2.20131
-0.245533
2.57432
-0.353825
3.00766
-0.503982
3.52874
-0.70917
4.19577
-0.943779
5.11827
-0.994797
5.45567
-0.628872
5.09206
-0.0779162
4.51233
0.343952
3.58419
0.534224
2.67665
0.542335
1.95214
0.414106
1.41423
0.231997
1.03847
0.0754453
0.710792
0.271965
0.011817
0.495841
-0.002253
1.21961
-0.0378025
1.61844
-0.0838649
1.92874
-0.142506
2.25995
-0.217643
2.64946
-0.31495
3.10496
-0.442895
3.65669
-0.599936
4.35281
-0.757012
5.27535
-0.76105
5.45971
-0.481601
4.81261
-0.0744109
4.10514
0.221851
3.28793
0.347163
2.55134
0.341433
1.95787
0.250693
1.50497
0.131963
1.1572
0.0366826
0.806072
0.308648
0.0246667
0.471174
0.0234403
1.22083
-0.00548821
1.64737
-0.0476209
1.97087
-0.100771
2.3131
-0.166802
2.71549
-0.250164
3.18832
-0.354023
3.76055
-0.467774
4.46656
-0.561078
5.36865
-0.539065
5.4377
-0.346179
4.61972
-0.0866454
3.84561
0.098469
3.10282
0.179995
2.46981
0.180079
1.95779
0.129826
1.55522
0.0648387
1.22219
0.0166031
0.854308
0.325251
0.0381386
0.433036
0.050089
1.20888
0.0313076
1.66615
-0.000816563
2.003
-0.0422594
2.35454
-0.0934152
2.76665
-0.158671
3.25358
-0.236333
3.83821
-0.315966
4.5462
-0.365783
5.41847
-0.335227
5.40714
-0.213889
4.49838
-0.0655263
3.69725
0.038618
2.99867
0.087718
2.42071
0.0922039
1.9533
0.0687362
1.57869
0.0360382
1.25489
0.0113594
0.878987
0.336611
0.0553959
0.37764
0.0894952
1.17478
0.0871731
1.66847
0.0676355
2.02254
0.03845
2.38373
0.00294033
2.80215
-0.0419492
3.29847
-0.0935639
3.88983
-0.142352
4.59498
-0.165893
5.44201
-0.142831
5.38408
-0.0760334
4.43159
-0.00311162
3.62432
0.0440004
2.95156
0.0632719
2.40144
0.0614778
1.95509
0.0477131
1.59246
0.0297359
1.27286
0.0126249
0.896098
0.349235
0.0751031
0.302537
0.132718
1.11717
0.151306
1.64989
0.150646
2.0232
0.138809
2.39557
0.122923
2.81804
0.0990118
3.32238
0.0712085
3.91763
0.0477757
4.61842
0.0381812
5.4516
0.0522306
5.37003
0.0820346
4.40178
0.10749
3.59887
0.117446
2.94161
0.112762
2.40612
0.0974391
1.97042
0.0764941
1.6134
0.0526522
1.29671
0.0244012
0.924349
0.373637
0.0919755
0.210561
0.192878
1.01627
0.243624
1.59914
0.263185
2.00363
0.270197
2.38855
0.272214
2.81602
0.270259
3.32434
0.268221
3.91967
0.265998
4.62064
0.266935
5.45067
0.275485
5.36148
0.281323
4.39595
0.275513
3.60468
0.256286
2.96083
0.225563
2.43684
0.185551
2.01043
0.139679
1.65927
0.0926025
1.34378
0.0409491
0.976002
0.414586
0.0503086
0.160253
0.146947
0.919627
0.216884
1.5292
0.257942
1.96258
0.279392
2.3671
0.290637
2.80478
0.298454
3.31652
0.301353
3.91677
0.295518
4.62647
0.283856
5.46233
0.269484
5.37585
0.251015
4.41441
0.226308
3.62939
0.19696
2.99018
0.165839
2.46797
0.13458
2.04169
0.101393
1.69246
0.0649805
1.3802
0.025069
1.01591
0.439655
-0.0134352
0.173688
0.0155024
0.890689
0.05431
1.49039
0.0977553
1.91913
0.137454
2.3274
0.171538
2.77069
0.199543
3.28851
0.216416
3.89989
0.221812
4.62108
0.217818
5.46632
0.205244
5.38843
0.186437
4.43322
0.161796
3.65403
0.133265
3.01871
0.102967
2.49826
0.0737569
2.0709
0.0473971
1.71882
0.0230436
1.40455
0.00262296
1.03633
0.442278
-0.0362301
0.209918
-0.0367263
0.891186
-0.0152828
1.46895
0.0134576
1.89039
0.0483728
2.29249
0.0857754
2.73329
0.119636
3.25465
0.144374
3.87516
0.159929
4.60552
0.163704
5.46255
0.15437
5.39776
0.136865
4.45073
0.114006
3.67688
0.0886397
3.04408
0.0628865
2.52402
0.0392169
2.09457
0.0187894
1.73925
0.000880824
1.42246
-0.00757915
1.04479
0.434699
-0.0457745
0.255693
-0.0600018
0.905413
-0.042352
1.4513
-0.0182097
1.86625
0.00965351
2.26463
0.0390272
2.70392
0.06684
3.22684
0.0916173
3.85038
0.111139
4.586
0.119203
5.45448
0.113409
5.40356
0.0989728
4.46516
0.0799905
3.69587
0.0598498
3.06422
0.0400824
2.54378
0.0215073
2.11314
0.00486772
1.75589
-0.00959509
1.43692
-0.0134164
1.04862
0.421282
-0.0378607
0.293553
-0.0602023
0.927754
-0.0510807
1.44218
-0.0302537
1.84542
-0.00422488
2.2386
0.0199533
2.67974
0.0410117
3.20578
0.0610633
3.83033
0.0777235
4.56934