/*--------------------------------*- C++ -*----------------------------------*\
  =========                 |
  \\      /  F ield         | OpenFOAM: The Open Source CFD Toolbox
   \\    /   O peration     | Website:  https://openfoam.org
    \\  /    A nd           | Version:  6
     \\/     M anipulation  |
\*---------------------------------------------------------------------------*/
FoamFile
{
    version     2.0;
    format      ascii;
    class       volScalarField;
    location    "41.2";
    object      p;
}
// * * * * * * * * * * * * * * * * * * * * * * * * * * * * * * * * * * * * * //

dimensions      [0 2 -2 0 0 0 0];

internalField   nonuniform List<scalar> 
8800
(
0.908987
0.859668
0.821695
0.793614
0.773433
0.758815
0.748175
0.740581
0.735622
0.733451
0.734705
0.73895
0.74567
0.755039
0.767736
0.785029
0.808889
0.841975
0.884906
0.937417
0.743497
0.749838
0.75898
0.762517
0.759893
0.753782
0.746809
0.740518
0.735646
0.732685
0.732339
0.734854
0.739405
0.745467
0.75252
0.759522
0.764377
0.764237
0.757551
0.748645
0.717047
0.723279
0.727768
0.731623
0.734549
0.735467
0.734336
0.732152
0.730084
0.729129
0.730034
0.732379
0.735182
0.73739
0.737866
0.736045
0.732655
0.728624
0.723833
0.720115
0.712802
0.715564
0.718158
0.720297
0.722009
0.723542
0.724595
0.724878
0.724666
0.724635
0.725299
0.726323
0.726971
0.726749
0.72572
0.724326
0.722626
0.720302
0.717879
0.716312
0.707821
0.709243
0.711068
0.713127
0.71481
0.716061
0.717103
0.718001
0.718698
0.719285
0.719837
0.720161
0.720078
0.719628
0.718896
0.717732
0.716038
0.714116
0.712749
0.711947
0.702928
0.703828
0.705059
0.706661
0.708319
0.709803
0.71102
0.712049
0.71298
0.713822
0.714421
0.714653
0.714535
0.714066
0.713185
0.711937
0.710528
0.709228
0.708392
0.707869
0.698143
0.698796
0.699742
0.701032
0.702441
0.703903
0.705311
0.706566
0.707681
0.708688
0.709415
0.70971
0.70957
0.709008
0.70813
0.707111
0.706057
0.70511
0.704513
0.70413
0.693466
0.693969
0.694739
0.695849
0.697105
0.698462
0.699884
0.701304
0.702647
0.703868
0.704755
0.705124
0.705004
0.704524
0.703836
0.703049
0.702232
0.701517
0.701072
0.700775
0.688851
0.689251
0.689894
0.690884
0.692068
0.693367
0.694779
0.696284
0.697825
0.6993
0.700392
0.700897
0.700922
0.70063
0.700149
0.699556
0.698922
0.698386
0.69805
0.697811
0.684222
0.684548
0.685105
0.686015
0.687149
0.68843
0.689867
0.691456
0.693162
0.694885
0.696259
0.697021
0.697285
0.697214
0.696934
0.696536
0.696075
0.695687
0.695432
0.695234
0.6795
0.679769
0.680265
0.681128
0.682243
0.683543
0.685038
0.686742
0.68864
0.690661
0.692385
0.693481
0.694042
0.694225
0.694161
0.693953
0.693656
0.693396
0.693207
0.69304
0.674608
0.674834
0.675291
0.676137
0.677273
0.678634
0.68023
0.682101
0.684261
0.686653
0.688809
0.690302
0.691201
0.691671
0.691844
0.691828
0.691695
0.691546
0.69141
0.691265
0.669464
0.669655
0.670093
0.670951
0.672148
0.673618
0.675383
0.677504
0.680009
0.682868
0.685551
0.687518
0.688797
0.689573
0.689998
0.690182
0.690213
0.690167
0.690077
0.689948
0.663985
0.664147
0.664582
0.665485
0.666788
0.668418
0.670415
0.672866
0.67583
0.679289
0.682613
0.685124
0.686843
0.68797
0.688679
0.689085
0.689273
0.689321
0.689272
0.689156
0.65807
0.658207
0.658654
0.659627
0.661074
0.662915
0.665199
0.668049
0.671554
0.675735
0.679848
0.683053
0.685328
0.686888
0.687933
0.688593
0.688961
0.68911
0.689097
0.688989
0.651596
0.651708
0.652179
0.653248
0.654883
0.657002
0.65967
0.663033
0.667229
0.672302
0.677383
0.681411
0.684346
0.686414
0.687844
0.688791
0.689363
0.689617
0.68964
0.689539
0.64441
0.644506
0.64501
0.646206
0.648094
0.650577
0.653743
0.657777
0.662842
0.669017
0.675276
0.680312
0.684007
0.686657
0.68854
0.689819
0.690616
0.690985
0.691045
0.690947
0.636286
0.636375
0.636932
0.638296
0.640506
0.643445
0.647223
0.652091
0.658277
0.665855
0.67352
0.679714
0.68433
0.687698
0.690132
0.691811
0.692871
0.693364
0.693461
0.693363
0.626958
0.627024
0.627659
0.629237
0.631846
0.635349
0.639903
0.645793
0.653277
0.662506
0.671943
0.679632
0.685378
0.689616
0.692737
0.694899
0.696272
0.69691
0.697046
0.696946
0.616056
0.616104
0.616838
0.618702
0.621826
0.626084
0.631667
0.638928
0.648183
0.659538
0.671037
0.680373
0.687401
0.692639
0.696534
0.699281
0.701018
0.701816
0.701989
0.701882
0.603041
0.603078
0.603945
0.606189
0.609996
0.615234
0.622126
0.631091
0.64247
0.656376
0.67042
0.681803
0.69039
0.696827
0.701658
0.705107
0.707278
0.708254
0.70846
0.708339
0.587123
0.587158
0.58823
0.591012
0.595743
0.602309
0.610972
0.622212
0.636356
0.653411
0.670442
0.684139
0.694483
0.702306
0.708235
0.712495
0.715162
0.716327
0.716556
0.716414
0.567103
0.567149
0.568559
0.572177
0.578283
0.586765
0.5979
0.612176
0.62983
0.650715
0.671198
0.687525
0.699843
0.709211
0.716334
0.721512
0.7247
0.726045
0.726283
0.726113
0.541152
0.541236
0.543237
0.548235
0.556505
0.567847
0.582483
0.600805
0.622856
0.648284
0.672719
0.691975
0.706465
0.717533
0.725988
0.732141
0.735849
0.737341
0.737567
0.737364
0.506221
0.506447
0.509669
0.517259
0.529255
0.545037
0.564724
0.588422
0.615907
0.646597
0.675375
0.697736
0.71451
0.727359
0.737215
0.744341
0.748496
0.750065
0.750253
0.750015
0.456566
0.457676
0.464166
0.477107
0.495604
0.51825
0.544914
0.575379
0.609245
0.645797
0.679225
0.704841
0.723961
0.738619
0.749902
0.757951
0.762427
0.76398
0.764101
0.763827
0.383718
0.39114
0.406115
0.428865
0.457045
0.488884
0.524058
0.56233
0.603324
0.646334
0.684858
0.714058
0.735835
0.752586
0.765496
0.774483
0.779317
0.78091
0.781018
0.780781
0.306008
0.322103
0.346446
0.379742
0.418188
0.459401
0.503198
0.549529
0.598127
0.648394
0.693105
0.726966
0.752291
0.771845
0.786888
0.797164
0.802373
0.803958
0.804101
0.803994
0.239532
0.259254
0.291432
0.333747
0.381265
0.431311
0.483499
0.537748
0.593787
0.651069
0.701655
0.739866
0.768446
0.790553
0.807512
0.818677
0.824129
0.825841
0.826033
0.825998
0.185237
0.207174
0.244697
0.293505
0.348101
0.405545
0.465148
0.526678
0.589706
0.653639
0.709735
0.751974
0.783484
0.80777
0.826259
0.838511
0.844713
0.846491
0.846706
0.846723
0.140136
0.163382
0.204743
0.258601
0.318888
0.382421
0.448345
0.516291
0.585687
0.655771
0.717019
0.762915
0.797093
0.823343
0.843205
0.856402
0.863185
0.865172
0.865512
0.865559
0.101549
0.12561
0.169809
0.227748
0.292792
0.361507
0.432902
0.506513
0.581654
0.657379
0.723357
0.772642
0.809164
0.837062
0.857919
0.87181
0.87909
0.881467
0.881899
0.881959
0.0674483
0.0920763
0.138505
0.199827
0.268925
0.342143
0.418381
0.497096
0.577472
0.658414
0.728785
0.781188
0.819766
0.848889
0.870413
0.88477
0.892439
0.895175
0.895746
0.895814
0.0363733
0.0614757
0.109762
0.17398
0.246599
0.323771
0.404357
0.487734
0.572968
0.658842
0.733388
0.78868
0.829073
0.85919
0.881266
0.895988
0.903965
0.906943
0.90758
0.907631
0.00737893
0.032922
0.0827994
0.149589
0.225305
0.305989
0.390499
0.478164
0.567987
0.65858
0.737193
0.795239
0.837288
0.868276
0.890796
0.905779
0.913968
0.917068
0.917704
0.917715
-0.0202548
0.00577546
0.0571158
0.126209
0.204683
0.288519
0.376586
0.468221
0.562379
0.65756
0.740183
0.800952
0.844599
0.876422
0.899344
0.914528
0.922789
0.925975
0.926644
0.926628
-0.0468155
-0.0203433
0.0323482
0.103526
0.184484
0.271165
0.362474
0.457781
0.556049
0.655708
0.742342
0.805877
0.851172
0.883891
0.907255
0.922635
0.930928
0.934069
0.93474
0.934722
-0.0726647
-0.0456581
0.00827874
0.081345
0.164549
0.253795
0.348067
0.446776
0.548926
0.652942
0.743635
0.810065
0.857144
0.890864
0.914723
0.930278
0.938581
0.941655
0.942237
0.942169
-0.0978671
-0.0703207
-0.0152204
0.0595595
0.144786
0.23635
0.333321
0.43517
0.540966
0.649215
0.74403
0.813553
0.862611
0.897458
0.921863
0.937576
0.94581
0.948767
0.949253
0.949122
-0.122499
-0.0943899
-0.0382092
0.0381275
0.125163
0.218811
0.318226
0.42295
0.532153
0.644477
0.743468
0.816325
0.867626
0.903776
0.928776
0.944593
0.952652
0.955404
0.955766
0.955588
-0.146624
-0.117933
-0.0606933
0.0170457
0.10568
0.201196
0.30281
0.410146
0.522487
0.638687
0.741871
0.818319
0.872215
0.909915
0.935562
0.951391
0.959149
0.961598
0.961828
0.961616
-0.170275
-0.140915
-0.0826645
-0.00367377
0.0863799
0.183548
0.287126
0.396802
0.511995
0.631816
0.739156
0.819434
0.87635
0.915976
0.942373
0.958046
0.965277
0.967321
0.967409
0.967175
-0.193289
-0.163298
-0.104092
-0.024003
0.0673072
0.165936
0.271238
0.382991
0.50073
0.623877
0.735248
0.819551
0.879934
0.922034
0.949456
0.964779
0.971107
0.972549
0.972476
0.972238
-0.215632
-0.185039
-0.124948
-0.0438843
0.0485262
0.148425
0.255239
0.36879
0.488771
0.614896
0.730097
0.818532
0.882789
0.928052
0.957127
0.972091
0.976939
0.977322
0.977003
0.976803
-0.237363
-0.206105
-0.145204
-0.0632761
0.0301042
0.131104
0.239218
0.354304
0.47621
0.604938
0.723657
0.816238
0.884664
0.933786
0.965588
0.980865
0.983791
0.982099
0.981016
0.981019
-0.258323
-0.226471
-0.164803
-0.0821106
0.0121024
0.114057
0.223274
0.339643
0.463165
0.594105
0.715915
0.812523
0.885281
0.93873
0.974539
0.991928
0.993897
0.989269
0.985326
0.983482
-0.27861
-0.246143
-0.183756
-0.100422
-0.00551622
0.0972393
0.207349
0.324741
0.449557
0.582326
0.706716
0.807121
0.884339
0.942245
0.982961
1.00499
1.00923
1.00353
0.992285
0.990968
-0.298142
-0.2652
-0.202205
-0.118412
-0.0230573
0.0803001
0.191009
0.309089
0.434812
0.568931
0.695357
0.799201
0.881218
0.943396
0.988586
1.01658
1.02444
1.01548
0.997445
0.992536
-0.316781
-0.283608
-0.21998
-0.135878
-0.0402637
0.0635479
0.174474
0.293019
0.419241
0.554194
0.68196
0.78826
0.875301
0.941036
0.986755
1.01448
1.02636
1.00464
0.945572
0.919252
-0.334407
-0.302175
-0.236684
-0.152311
-0.0564317
0.0474691
0.158015
0.276804
0.403126
0.538299
0.666617
0.773841
0.86578
0.9346
0.973023
0.994319
0.990484
0.943473
0.881901
0.843915
-0.378524
-0.320093
-0.252183
-0.168362
-0.0723374
0.0311396
0.141766
0.260328
0.386272
0.520925
0.648977
0.755526
0.849269
0.922772
0.947139
0.944022
0.906462
0.847116
0.780134
0.743221
-0.353756
-0.335527
-0.275579
-0.191816
-0.0965339
0.00666702
0.116574
0.234394
0.359232
0.492118
0.618086
0.72184
0.806995
0.885177
0.877121
0.779745
0.696248
0.638049
0.57668
0.60648
-0.385543
-0.353791
-0.293057
-0.209835
-0.114757
-0.0118681
0.0981476
0.215274
0.339003
0.469957
0.593072
0.693098
0.768635
0.811431
0.768618
0.638279
0.535743
0.46657
0.386999
0.435607
-0.410348
-0.376103
-0.313559
-0.230229
-0.135262
-0.0324536
0.0774272
0.193727
0.316028
0.444485
0.563723
0.657889
0.721884
0.729005
0.631494
0.483267
0.359648
0.271364
0.178123
0.212348
-0.434576
-0.39918
-0.335209
-0.25125
-0.156197
-0.0535232
0.0558606
0.171174
0.291833
0.417425
0.531901
0.619305
0.666711
0.642421
0.492634
0.321496
0.166049
0.0356118
-0.0864302
-0.0708853
-0.458562
-0.422696
-0.357785
-0.273265
-0.178052
-0.0755817
0.033169
0.147356
0.266107
0.388467
0.49752
0.577655
0.605468
0.539822
0.356583
0.164381
-0.0191546
-0.170131
-0.374346
-0.45338
-0.482984
-0.44711
-0.381626
-0.296693
-0.2013
-0.0989808
0.00920167
0.12224
0.238975
0.357886
0.461216
0.532257
0.537175
0.419997
0.232772
0.0277075
-0.161172
-0.320857
-0.44362
-0.564171
-0.508926
-0.47291
-0.407092
-0.321926
-0.226485
-0.124414
-0.0168993
0.0948164
0.2092
0.324137
0.421298
0.480625
0.45962
0.305727
0.11691
-0.0822
-0.254444
-0.349852
-0.375755
-0.389423
-0.536522
-0.500383
-0.434316
-0.349067
-0.253759
-0.152108
-0.0455121
0.0645659
0.176149
0.286395
0.376873
0.419905
0.38047
0.196249
0.0090123
-0.169961
-0.299578
-0.33661
-0.345597
-0.345883
-0.566052
-0.52965
-0.463335
-0.3781
-0.283068
-0.182065
-0.0766585
0.031429
0.139746
0.244589
0.327387
0.355218
0.286549
0.0960438
-0.0851445
-0.240621
-0.312847
-0.326688
-0.327754
-0.327608
-0.597525
-0.560752
-0.49416
-0.409012
-0.314418
-0.214266
-0.110343
-0.00461788
0.0999901
0.198787
0.27257
0.286324
0.180641
0.00491633
-0.1661
-0.289183
-0.317052
-0.317643
-0.317941
-0.317448
-0.630681
-0.593503
-0.526673
-0.441706
-0.347704
-0.248644
-0.146525
-0.0435589
0.0569101
0.149094
0.213404
0.208615
0.0850698
-0.0799346
-0.22954
-0.29871
-0.313876
-0.313055
-0.312961
-0.312362
-0.664936
-0.627546
-0.560593
-0.475931
-0.382715
-0.285013
-0.185029
-0.0852757
0.0106898
0.0958839
0.150062
0.128714
-0.00467874
-0.155921
-0.273421
-0.307497
-0.308013
-0.30951
-0.309616
-0.309408
-0.699846
-0.662333
-0.595421
-0.511239
-0.419057
-0.323013
-0.225519
-0.129478
-0.0384064
0.0399343
0.0810347
0.0504129
-0.0892503
-0.217068
-0.303642
-0.310445
-0.309305
-0.306657
-0.305806
-0.305806
-0.734398
-0.696942
-0.630373
-0.546943
-0.456119
-0.362113
-0.26747
-0.175608
-0.0900243
-0.0181047
0.0116091
-0.0335923
-0.168548
-0.264824
-0.3129
-0.324682
-0.315641
-0.309677
-0.306679
-0.30555
-0.766726
-0.730059
-0.664375
-0.582094
-0.493044
-0.401513
-0.310145
-0.222763
-0.143488
-0.0778235
-0.0542452
-0.128243
-0.250484
-0.31244
-0.322394
-0.331093
-0.335744
-0.335378
-0.332176
-0.329906
-0.795741
-0.760146
-0.69598
-0.615422
-0.528678
-0.44012
-0.352576
-0.269798
-0.197459
-0.138949
-0.119815
-0.220289
-0.350989
-0.385834
-0.38339
-0.383975
-0.379105
-0.377972
-0.377523
-0.376357
-0.818705
-0.785059
-0.723383
-0.645318
-0.561586
-0.476563
-0.393414
-0.315519
-0.249961
-0.199919
-0.185705
-0.299076
-0.474715
-0.550183
-0.515237
-0.48695
-0.467822
-0.458917
-0.45393
-0.450644
-0.833479
-0.802601
-0.744442
-0.669938
-0.590077
-0.509295
-0.430858
-0.358572
-0.298801
-0.257348
-0.248366
-0.354404
-0.574664
-0.76439
-0.709296
-0.610612
-0.572917
-0.561472
-0.551228
-0.547786
-0.837266
-0.810313
-0.756973
-0.687329
-0.612326
-0.536624
-0.463094
-0.396667
-0.34237
-0.308323
-0.299838
-0.384125
-0.514258
-0.712755
-0.655038
-0.634455
-0.615755
-0.594957
-0.585357
-0.583057
-0.828161
-0.805918
-0.758858
-0.695582
-0.626715
-0.556748
-0.488797
-0.426815
-0.378418
-0.350608
-0.328727
-0.38255
-0.27429
-0.240726
-0.287661
-0.471143
-0.546544
-0.54343
-0.544537
-0.544007
-0.802977
-0.786286
-0.748135
-0.693402
-0.631926
-0.56854
-0.506167
-0.448233
-0.402664
-0.380106
-0.367134
-0.363599
-0.187475
0.0795282
-0.068791
-0.331687
-0.454649
-0.4736
-0.485815
-0.491917
-0.764799
-0.753813
-0.725423
-0.680958
-0.627786
-0.571452
-0.514131
-0.460235
-0.414992
-0.389335
-0.412718
-0.453746
-0.577301
-0.713552
-1.00183
-1.12836
-1.08906
-0.889983
-0.753579
-0.746511
-0.719775
-0.713478
-0.695349
-0.660955
-0.616413
-0.565877
-0.513032
-0.460829
-0.414176
-0.386982
-0.404352
-0.595008
-1.09566
-1.58
-1.7653
-1.87032
-1.82684
-1.67233
-1.49653
-1.41294
-0.677244
-0.673634
-0.663953
-0.63887
-0.600804
-0.554555
-0.503718
-0.449173
-0.399143
-0.361535
-0.339799
-0.495277
-0.858489
-1.41584
-1.77203
-1.82618
-1.68372
-1.46045
-1.28383
-1.17711
-0.644333
-0.642182
-0.637272
-0.619662
-0.586239
-0.540869
-0.488181
-0.429827
-0.361564
-0.291517
-0.216405
-0.173602
-0.184514
-0.0940574
0.0662258
0.367093
0.709051
0.962701
1.07838
1.12745
-0.618211
-0.617341
-0.615929
-0.605712
-0.576294
-0.529692
-0.470784
-0.402259
-0.32075
-0.217257
-0.101615
0.082438
0.348221
0.729377
1.24505
1.72277
2.10037
2.32266
2.41571
2.44917
-0.601996
-0.601462
-0.601057
-0.59587
-0.570996
-0.522683
-0.456291
-0.375337
-0.284179
-0.163364
-0.0361418
0.125599
0.4009
0.854403
1.4562
1.99203
2.37546
2.58977
2.69136
2.71859
-0.591796
-0.590976
-0.589999
-0.588722
-0.570405
-0.521177
-0.447704
-0.357272
-0.255593
-0.145334
-0.0126449
0.0984785
0.332166
0.757739
1.25776
1.69867
2.02326
2.22152
2.30875
2.33026
-0.591646
-0.589472
-0.587098
-0.588478
-0.577356
-0.526044
-0.442143
-0.346721
-0.239119
-0.131981
-0.0183399
0.0813326
0.206169
0.556525
0.95634
1.28914
1.534
1.67274
1.73063
1.74648
-0.609762
-0.608419
-0.610663
-0.615211
-0.599748
-0.53369
-0.434789
-0.331416
-0.228245
-0.119608
-0.0290877
0.0595314
0.143473
0.385485
0.676834
0.914472
1.07813
1.16523
1.20314
1.21199
-0.629096
-0.633891
-0.644362
-0.646688
-0.61586
-0.52723
-0.414984
-0.30829
-0.208919
-0.11101
-0.0308275
0.0303581
0.0901177
0.267647
0.464995
0.623899
0.729186
0.78638
0.809446
0.814457
-0.590406
-0.599148
-0.612068
-0.611626
-0.569846
-0.47418
-0.368854
-0.272983
-0.182233
-0.0995969
-0.0310606
0.0159003
0.0520767
0.173637
0.308299
0.408477
0.474148
0.510087
0.526183
0.529769
-0.443913
-0.452451
-0.462843
-0.461167
-0.427511
-0.361744
-0.290689
-0.218234
-0.149503
-0.0827125
-0.0271343
0.0247565
0.0509932
0.138779
0.239204
0.304224
0.339814
0.359065
0.36736
0.368698
-0.237077
-0.242188
-0.249706
-0.253752
-0.24434
-0.221202
-0.190259
-0.15158
-0.108486
-0.0578949
-0.0143146
0.0314141
0.0676924
0.109134
0.171833
0.215341
0.242578
0.260789
0.26753
0.268557
-0.0583533
-0.0608336
-0.0672015
-0.0783095
-0.0901681
-0.0982846
-0.097816
-0.0880792
-0.0675223
-0.0344629
0.00137684
0.0401764
0.0801879
0.112564
0.153483
0.177508
0.198309
0.2122
0.218197
0.217643
0.0463674
0.0449257
0.0390687
0.0248604
0.00352256
-0.0175628
-0.0326314
-0.0383847
-0.0335945
-0.0147887
0.0115858
0.0426461
0.0742018
0.094396
0.120157
0.141464
0.157348
0.168122
0.171167
0.169883
0.0886066
0.0875256
0.0825768
0.0698068
0.0495954
0.0272779
0.00821841
-0.00492705
-0.00862249
-0.00235471
0.0143696
0.0347713
0.0547597
0.0604322
0.07739
0.0952687
0.11109
0.121024
0.124027
0.122639
0.0964066
0.0956378
0.0920118
0.082395
0.0664545
0.047706
0.0298907
0.015431
0.0064472
0.00447723
0.00877854
0.0152581
0.0234356
0.0213562
0.0309805
0.046769
0.0625147
0.0715073
0.0738563
0.0723199
0.089005
0.0884917
0.0860532
0.0794572
0.0681296
0.05391
0.0389662
0.0256894
0.0144822
0.00632794
0.000101532
-0.0106127
-0.0205488
-0.0272906
-0.0124803
0.00376763
0.0164148
0.0213973
0.0227124
0.0216512
0.0764061
0.0760608
0.0744952
0.0702492
0.0627076
0.0525554
0.0412537
0.0298686
0.0186641
0.00682784
-0.00744723
-0.0318526
-0.0543809
-0.0594652
-0.0435087
-0.0278554
-0.0196984
-0.0174895
-0.0174144
-0.0178652
0.0633892
0.0631401
0.0621628
0.0596183
0.0548192
0.0482021
0.0399817
0.0313378
0.0209845
0.00869111
-0.00921617
-0.0381574
-0.0633242
-0.0625693
-0.0479083
-0.0372617
-0.0337801
-0.0344728
-0.0349318
-0.0351056
0.0521142
0.0519286
0.0513518
0.049941
0.0471688
0.0430507
0.0375919
0.0314954
0.0236359
0.0135635
-0.001313
-0.0247335
-0.0414999
-0.0347577
-0.0254743
-0.0227073
-0.0242017
-0.0267028
-0.0274691
-0.0276491
0.0431563
0.0430127
0.0426749
0.0419544
0.0405361
0.0381774
0.0349526
0.031057
0.0263293
0.0213739
0.0141025
0.00512337
0.000453548
0.00761014
0.0090807
0.00646716
0.00254506
0.000144433
-0.000452331
-0.000741923
0.0363233
0.0362189
0.0360274
0.035706
0.035087
0.033994
0.0324679
0.0304869
0.0290413
0.0289896
0.0328622
0.0395284
0.0470007
0.0538986
0.0495536
0.0429368
0.0387285
0.0375476
0.0373069
0.0367068
0.031019
0.0309539
0.0308512
0.0307263
0.0305386
0.0301015
0.0297605
0.0291972
0.0303368
0.0345294
0.0474824
0.0706002
0.0931522
0.0929005
0.0830927
0.0749387
0.0725256
0.072938
0.0726927
0.07173
0.026367
0.0263353
0.0263001
0.0262732
0.0263195
0.0263045
0.0265102
0.0271355
0.0295171
0.0353871
0.0523248
0.0836513
0.110821
0.108653
0.0975333
0.0926996
0.0920226
0.0942883
0.094172
0.0930594
0.0217166
0.0216908
0.0216898
0.0216951
0.0217856
0.0220671
0.0224306
0.0236743
0.0261757
0.0310028
0.0449595
0.0716771
0.0939506
0.0915028
0.0866573
0.0887753
0.0946518
0.0978281
0.0973385
0.096044
0.0169932
0.0169784
0.0169927
0.0169557
0.0170439
0.0173124
0.0177167
0.0187304
0.0200138
0.0224472
0.0271675
0.0386066
0.0450649
0.0465074
0.0536313
0.0654384
0.0751703
0.079529
0.0792339
0.0781965
0.0119969
0.0119743
0.01198
0.0119564
0.0119768
0.0121079
0.0124543
0.0129055
0.0129892
0.0123777
0.00685977
-0.00378204
-0.0215958
-0.0117228
0.0101863
0.0308501
0.0434617
0.0474279
0.0470834
0.0463242
0.00668564
0.00664027
0.00668596
0.00672439
0.00665605
0.00672296
0.00694121
0.00709115
0.00703995
0.0043545
-0.00534669
-0.0322747
-0.0603933
-0.04752
-0.0176794
0.00317609
0.0109849
0.0125246
0.0130766
0.0131081
0.00152393
0.00146067
0.00139654
0.00137053
0.00142384
0.00123031
0.00129126
0.0015245
0.00169662
0.000865821
-0.000406336
-0.00486242
-0.0197112
-0.0211562
-0.0121101
-0.00933899
-0.0102957
-0.00847755
-0.00377766
-0.00158194
0.064704
0.255816
0.431968
0.58187
0.703481
0.80106
0.883021
0.949462
0.966464
0.962486
0.361227
0.484728
0.600733
0.702142
0.788174
0.859699
0.916189
0.954335
0.974661
0.991103
0.562859
0.645358
0.727151
0.799337
0.861224
0.912646
0.953093
0.983783
1.00672
1.02595
0.71161
0.76968
0.829101
0.88259
0.928774
0.967976
1.00076
1.02814
1.04872
1.06764
0.829402
0.873768
0.918382
0.959654
0.996322
1.02865
1.05687
1.08072
1.09885
1.11691
0.9301
0.966085
1.00144
1.03564
1.06714
1.0956
1.1207
1.14174
1.15763
1.17513
1.01876
1.05125
1.08374
1.11511
1.14432
1.17087
1.19413
1.21318
1.22718
1.24421
1.10624
1.13901
1.17161
1.20295
1.23184
1.25774
1.27997
1.29757
1.31002
1.32656
1.20092
1.23739
1.27225
1.30481
1.33407
1.35951
1.38071
1.39705
1.40871
1.42487
1.3141
1.35465
1.39177
1.42484
1.45341
1.47747
1.49714
1.51246
1.52439
1.54047
1.45547
1.49666
1.53197
1.56163
1.58689
1.60854
1.62707
1.64258
1.65572
1.67167
1.62715
1.65973
1.68659
1.7089
1.72901
1.74775
1.76551
1.78229
1.79721
1.81294
1.8136
1.8309
1.84804
1.86473
1.88083
1.89557
1.90948
1.92397
1.93922
1.95652
1.99698
2.00699
2.02021
2.0312
2.04061
2.05027
2.06089
2.07107
2.08037
2.10603
2.21494
2.20924
2.1963
2.18204
2.17574
2.18146
2.19961
2.22813
2.2619
2.29823
2.51775
2.38179
2.30229
2.2598
2.24248
2.24645
2.27389
2.33175
2.43942
2.61782
0.812683
0.806378
0.798643
0.78752
0.773937
0.761272
0.75085
0.742801
0.737034
0.733637
0.733205
0.735961
0.741132
0.748443
0.75796
0.769768
0.783315
0.796234
0.805216
0.812753
0.721771
0.727689
0.735756
0.741879
0.744935
0.744405
0.741293
0.73726
0.733617
0.731264
0.731047
0.733218
0.736907
0.741306
0.745373
0.747594
0.746503
0.741854
0.734791
0.726953
0.715059
0.71743
0.720691
0.723453
0.725888
0.728056
0.729207
0.729019
0.728024
0.727141
0.727266
0.728592
0.730304
0.73148
0.731364
0.729867
0.727686
0.725308
0.722314
0.719291
0.71032
0.711409
0.713318
0.715644
0.717497
0.718871
0.720055
0.720999
0.721533
0.721821
0.722273
0.722923
0.723313
0.723133
0.722457
0.721498
0.72014
0.71815
0.716028
0.714546
0.705362
0.705996
0.707119
0.708862
0.710686
0.712251
0.713463
0.714472
0.715376
0.716173
0.716841
0.71725
0.717298
0.717017
0.716423
0.715403
0.713941
0.712304
0.710948
0.710141
0.700523
0.700963
0.701745
0.703034
0.704534
0.706065
0.707497
0.708729
0.709795
0.710763
0.711575
0.712045
0.712114
0.711789
0.711054
0.709998
0.708798
0.707618
0.706693
0.706155
0.695797
0.696125
0.696731
0.697785
0.699055
0.700419
0.701845
0.703247
0.704539
0.705708
0.706691
0.707269
0.707355
0.706997
0.706309
0.705451
0.704545
0.703646
0.702957
0.702561
0.691159
0.691414
0.691902
0.692798
0.693945
0.695215
0.696582
0.69803
0.6995
0.700912
0.702113
0.702824
0.702984
0.702738
0.702236
0.701591
0.700879
0.700191
0.699677
0.699374
0.686549
0.686751
0.687157
0.687943
0.689011
0.69023
0.691578
0.693063
0.694656
0.69628
0.697733
0.69867
0.69903
0.698989
0.698693
0.698245
0.697717
0.697204
0.696823
0.696584
0.681882
0.682044
0.682391
0.683106
0.684127
0.685324
0.686694
0.688249
0.689977
0.69183
0.693588
0.694829
0.695467
0.695677
0.6956
0.695349
0.695002
0.694645
0.694372
0.694181
0.677084
0.677215
0.67752
0.678189
0.679193
0.680412
0.681836
0.683492
0.685395
0.687511
0.689634
0.691276
0.692263
0.692769
0.692946
0.692903
0.692733
0.69252
0.692338
0.692184
0.672077
0.672182
0.672459
0.67311
0.674129
0.675411
0.676941
0.678765
0.680922
0.683407
0.685993
0.688092
0.689468
0.6903
0.690743
0.690919
0.690929
0.690853
0.690748
0.690624
0.666775
0.666858
0.667118
0.667776
0.668853
0.670243
0.671937
0.674006
0.676503
0.679443
0.682597
0.685267
0.687102
0.688296
0.689028
0.689443
0.689636
0.689691
0.689655
0.689555
0.66109
0.661153
0.661405
0.662091
0.663259
0.664805
0.666717
0.669094
0.672022
0.675549
0.679411
0.682747
0.685131
0.686763
0.687842
0.688531
0.688927
0.689114
0.689142
0.689062
0.654914
0.654957
0.655208
0.655942
0.657235
0.658981
0.661176
0.663933
0.667385
0.671607
0.676329
0.680511
0.683579
0.685756
0.687244
0.688236
0.688876
0.68921
0.689302
0.689239
0.648114
0.648129
0.64838
0.649185
0.650641
0.652648
0.65522
0.658495
0.662622
0.667722
0.673498
0.678702
0.682578
0.685369
0.687325
0.688683
0.689594
0.690088
0.690248
0.690202
0.640481
0.640492
0.640754
0.64165
0.643327
0.645685
0.648731
0.652651
0.657654
0.663882
0.670966
0.677374
0.682188
0.685709
0.688232
0.690022
0.691235
0.691901
0.69213
0.692098
0.631777
0.631757
0.632063
0.633092
0.635047
0.637825
0.64146
0.646175
0.652222
0.659806
0.668482
0.67637
0.682363
0.686792
0.690004
0.692333
0.693921
0.694794
0.695101
0.695082
0.621705
0.621663
0.622013
0.623213
0.625506
0.628824
0.633223
0.63897
0.646368
0.65564
0.666263
0.675957
0.683321
0.6888
0.692846
0.695807
0.697829
0.698941
0.699332
0.699323
0.609799
0.609734
0.610153
0.611585
0.61433
0.618368
0.623773
0.630864
0.640005
0.651447
0.664447
0.676213
0.685174
0.691895
0.696904
0.700606
0.703149
0.704537
0.705016
0.705012
0.595412
0.595326
0.595863
0.597612
0.600942
0.605922
0.612636
0.621449
0.632761
0.646806
0.662686
0.677009
0.687896
0.696085
0.702253
0.706853
0.71002
0.711724
0.712292
0.712284
0.577556
0.577455
0.578187
0.580415
0.584598
0.590924
0.599477
0.610662
0.624885
0.642283
0.66159
0.678763
0.69176
0.701591
0.709067
0.714663
0.718525
0.720564
0.721213
0.72119
0.554739
0.554639
0.555706
0.558702
0.564207
0.572537
0.583714
0.59812
0.616069
0.637533
0.660874
0.681353
0.696756
0.708414
0.717335
0.724064
0.728667
0.731035
0.731743
0.731695
0.524612
0.524562
0.526237
0.530583
0.538348
0.549857
0.564939
0.583832
0.60662
0.633031
0.660988
0.685065
0.703047
0.716661
0.727127
0.735051
0.740384
0.743028
0.743761
0.743679
0.48305
0.483207
0.48623
0.493408
0.505409
0.522165
0.543065
0.568026
0.596833
0.629017
0.662091
0.690028
0.710715
0.726357
0.738435
0.747572
0.753552
0.756348
0.757049
0.756926
0.422398
0.423723
0.431101
0.444752
0.464502
0.489575
0.518667
0.551329
0.587253
0.625884
0.664435
0.696359
0.719784
0.737456
0.751107
0.761366
0.767849
0.770629
0.771195
0.771036
0.349371
0.352026
0.366362
0.389997
0.420419
0.455374
0.493391
0.534301
0.577922
0.623776
0.668819
0.705844
0.733009
0.753597
0.769402
0.78107
0.788273
0.791252
0.791917
0.791892
0.27454
0.281508
0.303008
0.336565
0.377327
0.421932
0.4689
0.518138
0.569558
0.62275
0.674459
0.716797
0.747859
0.771501
0.789809
0.803191
0.810992
0.813818
0.81435
0.814427
0.213741
0.222488
0.248681
0.289306
0.3381
0.390875
0.445915
0.502972
0.561842
0.622082
0.680147
0.727447
0.762093
0.788433
0.808802
0.823466
0.831644
0.834753
0.835702
0.835868
0.163906
0.17335
0.203038
0.248884
0.303782
0.363096
0.424917
0.488852
0.554501
0.621304
0.685331
0.737241
0.775147
0.803895
0.826034
0.84189
0.85095
0.854686
0.855811
0.855995
0.122015
0.131756
0.16383
0.213734
0.273607
0.338346
0.405899
0.47579
0.547494
0.62028
0.689818
0.74598
0.786831
0.817752
0.84141
0.858285
0.868105
0.872296
0.873576
0.87376
0.0855587
0.0954457
0.129319
0.182476
0.246481
0.315847
0.38839
0.463538
0.540685
0.618936
0.693534
0.753636
0.797165
0.829871
0.854629
0.872177
0.882669
0.887296
0.888691
0.888891
0.0528824
0.0628397
0.0981379
0.153998
0.221523
0.294897
0.371847
0.451735
0.533852
0.617168
0.696532
0.76029
0.806255
0.840426
0.865995
0.884034
0.894963
0.899933
0.901471
0.901692
0.0227853
0.0328003
0.0692454
0.127478
0.198074
0.274961
0.355839
0.440038
0.526757
0.614868
0.698796
0.766056
0.814245
0.849706
0.875951
0.894414
0.905642
0.910878
0.912473
0.912679
-0.00559111
0.00449341
0.0419953
0.10234
0.175656
0.255664
0.340067
0.428199
0.519226
0.611912
0.700291
0.770982
0.821295
0.857942
0.884766
0.903546
0.914954
0.920299
0.921915
0.922125
-0.0327381
-0.0225507
0.0159188
0.0781685
0.153926
0.236736
0.32433
0.416069
0.511117
0.608205
0.700972
0.77509
0.827526
0.865369
0.892796
0.911879
0.923419
0.92881
0.930412
0.930528
-0.059011
-0.04867
-0.00928561
0.0547062
0.132656
0.217997
0.308484
0.403536
0.502351
0.603659
0.700777
0.77839
0.833046
0.872174
0.900281
0.919684
0.931329
0.936671
0.938219
0.938324
-0.0846274
-0.0740533
-0.0338024
0.0317838
0.111722
0.199336
0.292451
0.390547
0.492873
0.598216
0.699651
0.780886
0.837942
0.878496
0.907368
0.927101
0.938822
0.944091
0.945537
0.945599
-0.10963
-0.0988017
-0.0577217
0.00931751
0.091047
0.18071
0.2762
0.377077
0.482658
0.591831
0.697538
0.782562
0.842254
0.884428
0.914164
0.934232
0.945948
0.951058
0.952368
0.952366
-0.134087
-0.122995
-0.0811148
-0.0127069
0.0706165
0.162107
0.259735
0.363135
0.471709
0.584487
0.69438
0.783355
0.845984
0.89005
0.920773
0.941153
0.952771
0.957633
0.958743
0.958667
-0.157996
-0.146632
-0.103953
-0.0342927
0.0504436
0.143558
0.2431
0.348764
0.460055
0.57617
0.690116
0.78317
0.849082
0.895414
0.927318
0.947964
0.959299
0.963753
0.964633
0.964497
-0.181407
-0.169701
-0.126207
-0.055421
0.0305595
0.12511
0.226347
0.334029
0.447748
0.5669
0.6847
0.781904
0.851446
0.900534
0.93396
0.954844
0.965616
0.969437
0.970022
0.969833
-0.204088
-0.192152
-0.147854
-0.076059
0.0110228
0.106841
0.209547
0.319002
0.434862
0.55673
0.678106
0.779463
0.852934
0.905334
0.940871
0.962148
0.971977
0.974732
0.974878
0.974647
-0.226197
-0.213923
-0.168861
-0.0961711
-0.00812488
0.0887979
0.192799
0.303768
0.421486
0.545743
0.67034
0.775746
0.853357
0.9096
0.948106
0.970415
0.979086
0.980007
0.979236
0.978942
-0.247553
-0.234982
-0.189209
-0.115703
-0.0267985
0.0710698
0.176187
0.288451
0.407728
0.534013
0.661444
0.770663
0.852518
0.912988
0.955396
0.980102
0.988342
0.986755
0.98373
0.98285
-0.268256
-0.255353
-0.208839
-0.1346
-0.0449585
0.0537276
0.159801
0.273133
0.393701
0.52168
0.651494
0.764126
0.85023
0.915069
0.961985
0.990869
1.00109
0.998449
0.991635
0.981759
-0.288194
-0.275034
-0.227856
-0.153034
-0.0628379
0.0364718
0.143283
0.257387
0.378925
0.508208
0.639931
0.7555
0.845953
0.915368
0.966878
1.00131
1.0168
1.01565
1.00501
1.00151
-0.307328
-0.294111
-0.246256
-0.170944
-0.080413
0.0193303
0.126668
0.241194
0.363373
0.493481
0.626597
0.744365
0.839038
0.913088
0.967818
1.00603
1.0248
1.02845
0.994996
0.955252
-0.32542
-0.312449
-0.263982
-0.188204
-0.0976626
0.00228698
0.10997
0.224693
0.347121
0.477554
0.611447
0.730465
0.828531
0.907587
0.962852
0.995102
1.01423