/*--------------------------------*- C++ -*----------------------------------*\
  =========                 |
  \\      /  F ield         | OpenFOAM: The Open Source CFD Toolbox
   \\    /   O peration     | Website:  https://openfoam.org
    \\  /    A nd           | Version:  6
     \\/     M anipulation  |
\*---------------------------------------------------------------------------*/
FoamFile
{
    version     2.0;
    format      ascii;
    class       volScalarField;
    location    "22";
    object      p;
}
// * * * * * * * * * * * * * * * * * * * * * * * * * * * * * * * * * * * * * //

dimensions      [0 2 -2 0 0 0 0];

internalField   nonuniform List<scalar> 
8800
(
0.44734
0.398029
0.360063
0.331985
0.311805
0.297183
0.286535
0.278929
0.273959
0.27175
0.272883
0.276993
0.283604
0.292892
0.305532
0.322787
0.346617
0.379682
0.422589
0.475111
0.281814
0.28816
0.297311
0.300856
0.298244
0.292149
0.285189
0.278907
0.274037
0.271043
0.270607
0.272994
0.277414
0.283361
0.290329
0.297259
0.302062
0.301887
0.295177
0.286258
0.255378
0.261619
0.266126
0.270002
0.272952
0.273897
0.272797
0.270608
0.268476
0.26744
0.268227
0.270473
0.273174
0.27526
0.275631
0.273733
0.270282
0.266203
0.261381
0.257655
0.251109
0.25388
0.256504
0.25868
0.260428
0.261997
0.263075
0.263356
0.2631
0.262968
0.263515
0.264405
0.264921
0.264567
0.263421
0.261926
0.260141
0.257748
0.255284
0.253714
0.2461
0.24753
0.2494
0.251516
0.253254
0.254548
0.255608
0.256512
0.257169
0.257634
0.258047
0.258225
0.257964
0.257372
0.256503
0.255209
0.253399
0.25138
0.249961
0.249161
0.241198
0.242103
0.243395
0.24508
0.246813
0.248347
0.24958
0.250602
0.25153
0.252305
0.252708
0.252687
0.252362
0.251729
0.250686
0.249276
0.247711
0.24628
0.245383
0.244868
0.236468
0.237123
0.238152
0.239571
0.241117
0.242708
0.244233
0.245573
0.246686
0.247595
0.248102
0.248116
0.247678
0.246804
0.245648
0.244371
0.243086
0.241961
0.241291
0.240924
0.231912
0.232407
0.2333
0.234614
0.236084
0.237658
0.239284
0.240817
0.242138
0.2432
0.243855
0.243931
0.243452
0.242559
0.241456
0.240298
0.239149
0.238174
0.237639
0.23737
0.227595
0.227962
0.228731
0.22995
0.231343
0.232774
0.234266
0.235855
0.237443
0.238803
0.239578
0.239647
0.239227
0.238565
0.237745
0.236779
0.23576
0.234931
0.234515
0.234322
0.223503
0.223773
0.22445
0.225601
0.226962
0.22841
0.229911
0.231428
0.232956
0.234447
0.235483
0.235916
0.23587
0.235441
0.234742
0.233894
0.232996
0.232286
0.231963
0.231828
0.219709
0.219883
0.2205
0.22164
0.223005
0.22448
0.22611
0.227858
0.229659
0.231381
0.232728
0.233385
0.233451
0.2331
0.232529
0.231811
0.230999
0.230373
0.230133
0.230056
0.216373
0.216474
0.216948
0.217895
0.21907
0.220373
0.221833
0.223512
0.225422
0.227489
0.229199
0.230244
0.23076
0.230903
0.23073
0.23034
0.229835
0.22944
0.229311
0.22927
0.21316
0.213221
0.213562
0.214321
0.215364
0.216638
0.218181
0.220025
0.222158
0.224555
0.226755
0.228291
0.229165
0.229598
0.229723
0.229659
0.22947
0.229329
0.229287
0.229255
0.209549
0.209609
0.209878
0.210492
0.211414
0.212617
0.214178
0.216171
0.218662
0.221594
0.224372
0.226405
0.227787
0.228638
0.229174
0.229465
0.229596
0.229663
0.229674
0.22964
0.205167
0.205227
0.205491
0.206052
0.206942
0.208201
0.209917
0.212183
0.215082
0.218626
0.222144
0.224887
0.226816
0.228153
0.229042
0.229647
0.230047
0.230249
0.230286
0.230246
0.199825
0.199886
0.200196
0.200838
0.201843
0.203288
0.205326
0.208052
0.211608
0.216
0.220402
0.22387
0.226362
0.228134
0.229379
0.230247
0.230829
0.231104
0.231165
0.231126
0.193453
0.193509
0.19388
0.194672
0.195886
0.197671
0.200129
0.203469
0.207827
0.213253
0.21877
0.223173
0.226377
0.22865
0.230274
0.231454
0.232147
0.232481
0.232573
0.232536
0.186012
0.186059
0.186494
0.18752
0.18904
0.191278
0.194356
0.198504
0.203915
0.21066
0.21754
0.223049
0.227082
0.229969
0.232016
0.233416
0.234266
0.234685
0.23482
0.234783
0.177357
0.1774
0.177917
0.179167
0.18114
0.183891
0.187765
0.192931
0.199666
0.208062
0.216614
0.223485
0.228534
0.232157
0.234724
0.236412
0.237466
0.23801
0.238189
0.238148
0.16717
0.167217
0.167855
0.169319
0.171787
0.175333
0.18014
0.186621
0.195052
0.205509
0.216118
0.224626
0.23088
0.23537
0.23853
0.240658
0.241987
0.242688
0.242909
0.242857
0.154831
0.154894
0.155686
0.157533
0.160628
0.165065
0.171178
0.179387
0.189988
0.203022
0.216134
0.22659
0.23426
0.239787
0.243669
0.246313
0.247989
0.248868
0.249134
0.249068
0.139479
0.139565
0.140605
0.143028
0.146983
0.152689
0.160556
0.171042
0.184432
0.20067
0.216795
0.229549
0.238891
0.245602
0.250344
0.253604
0.25569
0.256769
0.257088
0.257003
0.119989
0.120122
0.121562
0.124825
0.130103
0.137629
0.147928
0.161463
0.17842
0.198571
0.218245
0.233654
0.244909
0.253014
0.258768
0.262762
0.265335
0.266664
0.267037
0.266927
0.0945114
0.0947254
0.0968398
0.101527
0.108922
0.119234
0.133024
0.150642
0.172087
0.196911
0.220661
0.239067
0.252487
0.262194
0.269146
0.274017
0.27717
0.278782
0.279217
0.279074
0.0600081
0.0604337
0.063917
0.0712668
0.0822675
0.0969457
0.115742
0.138744
0.165702
0.195943
0.224229
0.245916
0.261727
0.273246
0.281603
0.287549
0.291423
0.293379
0.29387
0.293681
0.0106617
0.0121411
0.01917
0.0320036
0.0492897
0.0707195
0.0964374
0.126243
0.159682
0.195951
0.229107
0.254268
0.272626
0.286135
0.296107
0.303361
0.308173
0.310585
0.311142
0.310888
-0.0623208
-0.0539164
-0.0378398
-0.0152014
0.011535
0.0419633
0.0761058
0.113734
0.154378
0.19726
0.23577
0.264839
0.286174
0.302112
0.314218
0.323332
0.329586
0.332881
0.33375
0.333615
-0.139618
-0.121973
-0.0960315
-0.0630404
-0.0264731
0.0130668
0.0557292
0.101406
0.149719
0.200009
0.244975
0.279079
0.304425
0.323704
0.338676
0.35038
0.358754
0.363472
0.364946
0.364979
-0.204459
-0.183129
-0.149276
-0.107712
-0.0625207
-0.0144584
0.0364118
0.0898965
0.145627
0.202984
0.253926
0.292538
0.321332
0.343416
0.360674
0.374145
0.384167
0.389776
0.39116
0.391322
-0.256716
-0.233176
-0.194242
-0.146628
-0.0947828
-0.039664
0.0183627
0.0789183
0.141494
0.205389
0.261732
0.304205
0.335758
0.359829
0.378603
0.393246
0.404088
0.410245
0.411938
0.412236
-0.299745
-0.275034
-0.23257
-0.180306
-0.123135
-0.0622842
0.0017686
0.0684944
0.137204
0.206981
0.268105
0.313824
0.347507
0.373014
0.39274
0.408084
0.419361
0.425932
0.427987
0.428297
-0.336504
-0.311115
-0.266048
-0.210022
-0.148445
-0.0827521
-0.0135274
0.0585936
0.132768
0.207838
0.273238
0.321748
0.357141
0.383671
0.403985
0.419634
0.431011
0.437708
0.439912
0.440174
-0.369
-0.343187
-0.2961
-0.236953
-0.171633
-0.101746
-0.0279602
0.0490057
0.12814
0.208108
0.277446
0.328511
0.365415
0.392754
0.413415
0.429138
0.44049
0.447186
0.449505
0.449765
-0.398664
-0.372486
-0.323727
-0.261931
-0.193388
-0.119826
-0.041944
0.0394325
0.123176
0.207783
0.280958
0.334499
0.372804
0.400861
0.421822
0.437613
0.448934
0.455586
0.457968
0.458217
-0.426388
-0.399872
-0.349657
-0.285538
-0.214179
-0.137366
-0.0558119
0.0296065
0.11769
0.206765
0.283705
0.339724
0.379509
0.408386
0.429741
0.445666
0.456982
0.463533
0.465922
0.466223
-0.452865
-0.42596
-0.374423
-0.30822
-0.234375
-0.154661
-0.0697882
0.0193419
0.111498
0.204889
0.285646
0.344368
0.385841
0.415688
0.43755
0.453693
0.465054
0.471513
0.473827
0.474117
-0.478366
-0.451066
-0.39833
-0.330274
-0.254198
-0.171878
-0.0840115
0.00851836
0.104506
0.202155
0.286907
0.348529
0.391893
0.422898
0.445421
0.461901
0.473371
0.479773
0.481956
0.482175
-0.503228
-0.47543
-0.421607
-0.351867
-0.273796
-0.189151
-0.0985624
-0.00290081
0.0967045
0.198537
0.287355
0.35213
0.397665
0.430078
0.453448
0.470388
0.482026
0.488377
0.490406
0.490532
-0.527513
-0.49923
-0.444368
-0.373104
-0.293255
-0.206508
-0.113462
-0.014932
0.0880475
0.19389
0.286869
0.3551
0.403147
0.437227
0.461638
0.479161
0.491011
0.497309
0.49919
0.499195
-0.55128
-0.522475
-0.466652
-0.394014
-0.312571
-0.223952
-0.128715
-0.0275958
0.0784767
0.18816
0.285363
0.357307
0.408224
0.4443
0.469968
0.488194
0.500284
0.50648
0.508185
0.508077
-0.57457
-0.545247
-0.488471
-0.414596
-0.331745
-0.241463
-0.144287
-0.0408608
0.068027
0.181335
0.282711
0.35859
0.412755
0.451217
0.478403
0.497437
0.509753
0.515761
0.517238
0.517028
-0.597398
-0.567487
-0.509809
-0.434819
-0.350716
-0.258981
-0.160103
-0.0546491
0.0567588
0.173383
0.278805
0.358755
0.416552
0.457874
0.486934
0.50688
0.51933
0.525027
0.526219
0.525918
-0.619593
-0.589135
-0.530613
-0.454634
-0.369424
-0.276419
-0.176079
-0.0688651
0.0447334
0.164328
0.27357
0.357618
0.419341
0.464088
0.495584
0.51663
0.528991
0.534093
0.534906
0.534521
-0.641113
-0.610143
-0.550835
-0.473977
-0.387802
-0.293708
-0.192115
-0.0834256
0.0320419
0.15422
0.266959
0.355011
0.420826
0.469546
0.504321
0.527006
0.538985
0.542864
0.54305
0.542615
-0.661998
-0.630467
-0.570445
-0.492801
-0.405778
-0.310754
-0.208117
-0.0982155
0.0188001
0.143147
0.258953
0.350801
0.420686
0.473752
0.512865
0.538477
0.550306
0.55184
0.55048
0.550043
-0.682097
-0.650072
-0.589385
-0.511036
-0.423286
-0.327471
-0.223981
-0.113111
0.00513734
0.131234
0.249583
0.344897
0.418637
0.47604
0.52041
0.551021
0.564799
0.563933
0.558486
0.555552
-0.701482
-0.668971
-0.607656
-0.528709
-0.440356
-0.343905
-0.239762
-0.128177
-0.00902231
0.118414
0.238718
0.337052
0.414383
0.475623
0.525523
0.563255
0.582822
0.584377
0.572669
0.567327
-0.720083
-0.687222
-0.625397
-0.54601
-0.457282
-0.360396
-0.255879
-0.143915
-0.0242541
0.103999
0.225628
0.326368
0.407215
0.471231
0.525281
0.570354
0.596155
0.595092
0.583836
0.571346
-0.737784
-0.7048
-0.642453
-0.562728
-0.473835
-0.376644
-0.272113
-0.159986
-0.0402219
0.0883063
0.210534
0.312529
0.396812
0.462142
0.514973
0.56044
0.58794
0.574674
0.512869
0.482653
-0.75447
-0.722415
-0.658396
-0.578349
-0.489391
-0.392181
-0.288204
-0.176127
-0.0566466
0.0715361
0.193569
0.295302
0.382522
0.449032
0.491469
0.526337
0.53638
0.494273
0.428149
0.387194
-0.797124
-0.7394
-0.673145
-0.593559
-0.504661
-0.407861
-0.304037
-0.192445
-0.073706
0.0534147
0.174428
0.274545
0.361528
0.433482
0.449926
0.457705
0.432586
0.377539
0.306894
0.267806
-0.771439
-0.75335
-0.695049
-0.616419
-0.527552
-0.43124
-0.328322
-0.217836
-0.100729
0.0238607
0.141659
0.237953
0.316018
0.387831
0.387841
0.289875
0.200193
0.139404
0.0742108
0.112053
-0.801841
-0.770731
-0.711773
-0.633252
-0.544732
-0.448907
-0.346073
-0.236516
-0.120847
0.0013529
0.115685
0.207883
0.276998
0.314937
0.270727
0.133514
0.0211262
-0.054123
-0.140977
-0.0818934
-0.825198
-0.791773
-0.731047
-0.652307
-0.564002
-0.468363
-0.365844
-0.257347
-0.143411
-0.0241359
0.0858458
0.1723
0.230377
0.234002
0.127233
-0.0401207
-0.178326
-0.275368
-0.381121
-0.335185
-0.847682
-0.813261
-0.751245
-0.671946
-0.583588
-0.488142
-0.386271
-0.278972
-0.166971
-0.0509589
0.0539058
0.13363
0.175725
0.142849
-0.0246123
-0.221616
-0.398818
-0.549465
-0.688469
-0.654114
-0.869677
-0.834977
-0.772192
-0.692404
-0.603919
-0.508731
-0.40763
-0.301643
-0.191814
-0.0793972
0.0197131
0.0918334
0.114315
0.0395574
-0.175058
-0.400546
-0.616215
-0.796866
-1.03523
-1.12656
-0.891852
-0.857344
-0.794164
-0.714025
-0.625404
-0.530435
-0.430036
-0.325366
-0.217793
-0.109165
-0.0160746
0.0469922
0.0487213
-0.0843245
-0.31341
-0.55827
-0.78829
-0.980525
-1.13296
-1.30428
-0.91512
-0.880762
-0.817445
-0.737142
-0.648503
-0.553843
-0.454238
-0.351046
-0.246037
-0.141689
-0.0550954
-0.00253145
-0.0307653
-0.210973
-0.443482
-0.686489
-0.897856
-1.02102
-1.05482
-1.07138
-0.939654
-0.905456
-0.842113
-0.7618
-0.673303
-0.579099
-0.480514
-0.379092
-0.277033
-0.177637
-0.0980095
-0.0590033
-0.117353
-0.333703
-0.56382
-0.786004
-0.953226
-1.00427
-1.01779
-1.01846
-0.965702
-0.93151
-0.868161
-0.787929
-0.699696
-0.606136
-0.508796
-0.409483
-0.310724
-0.217032
-0.144915
-0.12239
-0.210022
-0.451584
-0.674012
-0.87238
-0.977783
-0.99647
-0.99773
-0.997794
-0.993151
-0.958919
-0.895545
-0.815453
-0.727616
-0.634853
-0.538979
-0.442143
-0.346973
-0.259715
-0.196006
-0.188775
-0.320029
-0.563978
-0.776988
-0.937911
-0.98443
-0.987338
-0.988631
-0.988337
-1.02174
-0.987454
-0.924091
-0.844216
-0.756889
-0.665089
-0.570883
-0.476898
-0.385693
-0.305142
-0.251323
-0.261442
-0.435402
-0.676928
-0.868963
-0.972435
-0.984224
-0.984982
-0.984287
-0.983979
-1.05084
-1.0167
-0.953492
-0.873917
-0.787225
-0.696571
-0.604176
-0.513365
-0.426729
-0.352428
-0.309799
-0.340251
-0.540192
-0.792383
-0.970566
-0.993392
-0.996827
-0.988228
-0.980996
-0.978702
-1.07992
-1.04611
-0.983248
-0.90409
-0.81817
-0.728842
-0.638401
-0.550876
-0.469731
-0.400582
-0.37001
-0.417398
-0.629577
-0.902564
-1.09658
-1.10476
-1.0504
-1.00981
-0.991604
-0.985607
-1.10802
-1.07487
-1.01264
-0.934078
-0.849089
-0.761262
-0.672948
-0.588477
-0.513769
-0.449107
-0.431486
-0.498712
-0.694052
-0.963819
-1.20512
-1.19094
-1.1272
-1.07291
-1.04647
-1.03839
-1.13436
-1.10201
-1.04076
-0.963026
-0.879145
-0.79294
-0.706988
-0.625095
-0.556884
-0.49879
-0.489211
-0.584601
-0.75149
-0.888296
-1.16181
-1.19695
-1.30164
-1.32144
-1.27997
-1.25824
-1.1572
-1.12625
-1.06647
-0.989871
-0.907292
-0.822758
-0.73933
-0.659821
-0.596183
-0.549611
-0.534975
-0.670943
-0.851272
-0.747653
-0.656878
-1.00111
-1.36013
-1.43798
-1.42358
-1.42121
-1.17503
-1.14605
-1.0884
-1.01336
-0.932331
-0.849419
-0.768311
-0.691751
-0.628834
-0.596865
-0.573982
-0.744825
-1.05325
-1.01167
-0.816841
-1.11932
-1.39802
-1.42476
-1.42023
-1.43469
-1.18656
-1.16007
-1.10515
-1.03216
-0.952891
-0.871585
-0.792134
-0.718573
-0.655382
-0.62965
-0.622206
-0.832947
-1.40224
-1.99223
-2.31053
-2.49977
-2.41008
-2.02622
-1.75483
-1.73309
-1.18982
-1.16672
-1.11546
-1.04496
-0.967514
-0.887926
-0.809283
-0.737211
-0.675757
-0.641943
-0.664655
-0.922165
-1.65602
-2.69299
-3.24812
-3.41022
-3.28084
-2.97336
-2.61047
-2.45295
-1.18429
-1.16488
-1.11809
-1.05077
-0.975175
-0.897079
-0.818483
-0.746409
-0.68031
-0.650828
-0.656875
-0.888442
-1.47326
-2.28475
-2.92469
-3.0026
-2.89508
-2.69548
-2.48726
-2.35602
-1.16811
-1.1529
-1.11217
-1.04901
-0.975586
-0.898022
-0.819536
-0.742497
-0.675301
-0.621694
-0.6098
-0.668624
-0.904561
-1.1259
-1.32905
-1.33931
-1.18522
-0.962
-0.79216
-0.698155
-1.1432
-1.13225
-1.09824
-1.04023
-0.968837
-0.891472
-0.811309
-0.728879
-0.653945
-0.560343
-0.51936
-0.385244
-0.254771
0.031623
0.42072
0.823079
1.1837
1.39488
1.50687
1.54846
-1.11198
-1.10516
-1.07867
-1.0262
-0.956432
-0.878945
-0.795779
-0.709858
-0.613968
-0.520201
-0.402443
-0.299734
0.0761845
0.672811
1.33964
1.91946
2.3427
2.6023
2.72095
2.75609
-1.07846
-1.07475
-1.05646
-1.00943
-0.940746
-0.862121
-0.777846
-0.687257
-0.589109
-0.474574
-0.348813
-0.230844
-0.0049687
0.541132
1.13635
1.67526
2.07513
2.31764
2.43314
2.47088
-1.04688
-1.04527
-1.03383
-0.991675
-0.922835
-0.843401
-0.758949
-0.669149
-0.571171
-0.456051
-0.331679
-0.22416
-0.0986707
0.234733
0.649886
1.02695
1.31334
1.49259
1.58101
1.60965
-1.00825
-1.00952
-1.0025
-0.964708
-0.897485
-0.819371
-0.738808
-0.654536
-0.561561
-0.45409
-0.341564
-0.24659
-0.160371
0.0188786
0.314283
0.589605
0.794437
0.917885
0.982439
1.00396
-0.938546
-0.94061
-0.935518
-0.904872
-0.848464
-0.781893
-0.712291
-0.63882
-0.555374
-0.457725
-0.359626
-0.284963
-0.225325
-0.134818
0.077159
0.275455
0.406014
0.485587
0.521633
0.531007
-0.835936
-0.836482
-0.832097
-0.812677
-0.776173
-0.730123
-0.678833
-0.620767
-0.549739
-0.464433
-0.374263
-0.321768
-0.288374
-0.236657
-0.0914094
0.031034
0.118405
0.169227
0.192265
0.196945
-0.739631
-0.738848
-0.735755
-0.726502
-0.70758
-0.680723
-0.647364
-0.605313
-0.547337
-0.466351
-0.380975
-0.331854
-0.304794
-0.27948
-0.187537
-0.11243
-0.0565119
-0.0265089
-0.0137691
-0.0128768
-0.680575
-0.679323
-0.677139
-0.67317
-0.664006
-0.649117
-0.628413
-0.598917
-0.552224
-0.47365
-0.392866
-0.338309
-0.285917
-0.254695
-0.209137
-0.169366
-0.144072
-0.129913
-0.125386
-0.125761
-0.660649
-0.659538
-0.657884
-0.655495
-0.650449
-0.641929
-0.629754
-0.611191
-0.575796
-0.506495
-0.425215
-0.356649
-0.283627
-0.251785
-0.227035
-0.208881
-0.190558
-0.178168
-0.172066
-0.17245
-0.668864
-0.66804
-0.667146
-0.666239
-0.664415
-0.661812
-0.659211
-0.655536
-0.639757
-0.591345
-0.524417
-0.428847
-0.333038
-0.299602
-0.28516
-0.259138
-0.231352
-0.210171
-0.199478
-0.200143
-0.694636
-0.69438
-0.694791
-0.696221
-0.69908
-0.705179
-0.717637
-0.73999
-0.767776
-0.778068
-0.745418
-0.618409
-0.47994
-0.426897
-0.394496
-0.339406
-0.282181
-0.241389
-0.224661
-0.228033
-0.725378
-0.726071
-0.728342
-0.733131
-0.742712
-0.761465
-0.796971
-0.862787
-0.972828
-1.09502
-1.12123
-0.933563
-0.726801
-0.635637
-0.555256
-0.44728
-0.35326
-0.290111
-0.272665
-0.277186
-0.7458
-0.747583
-0.751956
-0.760677
-0.778127
-0.811759
-0.875654
-0.999406
-1.22808
-1.53772
-1.61582
-1.33444
-1.0318
-0.881801
-0.748836
-0.599962
-0.472501
-0.400094
-0.390124
-0.394369
-0.74004
-0.742749
-0.748543
-0.760531
-0.78449
-0.830472
-0.918751
-1.09473
-1.43148
-1.90734
-2.05433
-1.70804
-1.32248
-1.11701
-0.947883
-0.793302
-0.679603
-0.623773
-0.616748
-0.620718
-0.696559
-0.699588
-0.70597
-0.719048
-0.745233
-0.795657
-0.893039
-1.08911
-1.47246
-2.0036
-2.15913
-1.83462
-1.47355
-1.28515
-1.11373
-1.01655
-0.967613
-0.94174
-0.9244
-0.920687
-0.614359
-0.617016
-0.622561
-0.633957
-0.657243
-0.702155
-0.789088
-0.963779
-1.30823
-1.78083
-1.89699
-1.64749
-1.41536
-1.25704
-1.15688
-1.13577
-1.14143
-1.12379
-1.1034
-1.0947
-0.503953
-0.505709
-0.509386
-0.517207
-0.533749
-0.565967
-0.628337
-0.753128
-1.00197
-1.36038
-1.47305
-1.33723
-1.17917
-1.04486
-1.00117
-1.03198
-1.05765
-1.04941
-1.03678
-1.03037
-0.382887
-0.383606
-0.385202
-0.38903
-0.39786
-0.415569
-0.449984
-0.518435
-0.656439
-0.876037
-0.970162
-0.902604
-0.784264
-0.713112
-0.730021
-0.7964
-0.819959
-0.820087
-0.817435
-0.81501
-0.268649
-0.268538
-0.268543
-0.269247
-0.27188
-0.277818
-0.289757
-0.31348
-0.360776
-0.446974
-0.491703
-0.43881
-0.391338
-0.412781
-0.494003
-0.547063
-0.563626
-0.568431
-0.569842
-0.569656
-0.173153
-0.172586
-0.171743
-0.170745
-0.169778
-0.168711
-0.167406
-0.165646
-0.162187
-0.148435
-0.121806
-0.115644
-0.152386
-0.230798
-0.300133
-0.336136
-0.351299
-0.357209
-0.36067
-0.361556
-0.101093
-0.100399
-0.0993531
-0.0978823
-0.0956259
-0.0918303
-0.0854379
-0.0746731
-0.0564978
-0.0268685
0.00175036
-0.00723028
-0.0602741
-0.122562
-0.167588
-0.191112
-0.202081
-0.208179
-0.211903
-0.21312
-0.0514133
-0.0507962
-0.0499066
-0.048655
-0.0465085
-0.0425857
-0.0358437
-0.0248007
-0.00770492
0.0151938
0.0292764
0.0152805
-0.0230103
-0.0627544
-0.090651
-0.106199
-0.113592
-0.117623
-0.120192
-0.121083
-0.020017
-0.019553
-0.0189261
-0.0181338
-0.0166273
-0.0136458
-0.00841164
-3.57379e-05
0.0119951
0.0256516
0.0299043
0.0165595
-0.00823809
-0.03222
-0.0490575
-0.0585391
-0.0631936
-0.0657055
-0.0672759
-0.0678232
-0.00207579
-0.00176243
-0.00138012
-0.00101525
-0.000187167
0.00168688
0.00511517
0.0105392
0.0178617
0.0248878
0.0244737
0.0138061
-0.00185433
-0.0161909
-0.0262628
-0.0320656
-0.0349717
-0.0364987
-0.0374072
-0.0377175
0.00667267
0.00686751
0.00706433
0.00713488
0.00746645
0.00845068
0.0104201
0.0135599
0.0175685
0.0206887
0.0186707
0.0109187
0.00112348
-0.00748075
-0.0135487
-0.0171558
-0.019022
-0.0199521
-0.0204873
-0.0206641
0.00948602
0.00959952
0.00967937
0.00959092
0.00961587
0.0100129
0.0109992
0.0126388
0.0146333
0.0157524
0.0135988
0.00833671
0.00230661
-0.00284205
-0.00649923
-0.00874531
-0.00994675
-0.0105401
-0.0108383
-0.0109405
0.00862323
0.00868458
0.00869793
0.00854602
0.0084173
0.00849122
0.00890345
0.00966707
0.0105596
0.0108164
0.00916043
0.00589215
0.00236855
-0.000588306
-0.00270937
-0.00405349
-0.00479276
-0.00515507
-0.00531963
-0.00538007
0.00556174
0.00559057
0.00557307
0.00542321
0.00526947
0.00522378
0.00535695
0.00566291
0.00601247
0.00601366
0.00507245
0.00340226
0.00166782
0.000226708
-0.000817718
-0.00150086
-0.00188899
-0.00207906
-0.00216887
-0.00220157
0.00124294
0.00125678
0.00132918
0.00139436
0.00137351
0.00133072
0.00129977
0.0012953
0.00130328
0.00127319
0.00110262
0.000752854
0.000353342
-6.9402e-06
-0.000282555
-0.000461772
-0.000528869
-0.000485629
-0.000416718
-0.000381917
-0.503319
-0.286457
-0.0828381
0.0867249
0.225842
0.33914
0.435757
0.514787
0.537974
0.534267
-0.163116
-0.021983
0.110062
0.225482
0.324055
0.406797
0.47281
0.518191
0.542658
0.558744
0.0681711
0.160793
0.253053
0.334885
0.405282
0.464007
0.51039
0.545394
0.57074
0.58988
0.233815
0.29925
0.36576
0.425549
0.477247
0.521051
0.55746
0.587356
0.609781
0.62879
0.363659
0.412608
0.461584
0.506852
0.547052
0.582307
0.612816
0.638397
0.657704
0.675919
0.471445
0.510062
0.54842
0.585269
0.61904
0.649407
0.676047
0.698256
0.714927
0.732534
0.564447
0.598685
0.633076
0.666182
0.696893
0.724696
0.748976
0.768798
0.783325
0.800463
0.654772
0.688661
0.722496
0.754965
0.784838
0.811543
0.834422
0.852531
0.86534
0.881985
0.75131
0.788589
0.824236
0.857471
0.887329
0.913261
0.934869
0.951551
0.963429
0.979674
0.865753
0.906981
0.94451
0.977857
1.00674
1.03111
1.05107
1.0666
1.07867
1.09482
1.00803
1.04932
1.08493
1.1148
1.14026
1.16212
1.18083
1.19648
1.2097
1.22573
1.1801
1.21244
1.23961
1.26219
1.28247
1.30134
1.3192
1.33605
1.35103
1.36687
1.3667
1.38402
1.40127
1.41809
1.4343
1.44912
1.46308
1.47759
1.49288
1.51033
1.55017
1.56009
1.57329
1.58429
1.59372
1.60343
1.6141
1.62435
1.63373
1.65915
1.7677
1.76196
1.74895
1.73469
1.72845
1.7342
1.75233
1.78085
1.81466
1.85097
2.0709
1.93506
1.85565
1.81322
1.79585
1.79986
1.82739
1.88532
1.99298
2.1712
0.350993
0.344694
0.336961
0.325846
0.312277
0.299626
0.289213
0.281171
0.275396
0.271969
0.271456
0.274078
0.279124
0.286333
0.295767
0.307511
0.321006
0.333889
0.34285
0.350373
0.26011
0.266038
0.274109
0.280239
0.283304
0.282789
0.279698
0.275667
0.272006
0.269616
0.269311
0.271344
0.27491
0.279207
0.283181
0.285325
0.284182
0.279494
0.272403
0.264545
0.253371
0.255743
0.259025
0.26182
0.264291
0.266496
0.26768
0.267521
0.266511
0.265542
0.265554
0.266778
0.268376
0.269409
0.269169
0.267568
0.2653
0.262849
0.2598
0.256757
0.248613
0.249702
0.251636
0.254002
0.255904
0.257324
0.258546
0.259503
0.259996
0.260193
0.260519
0.261044
0.261306
0.260993
0.26018
0.259096
0.25763
0.255547
0.25336
0.251857
0.243632
0.244262
0.245415
0.247218
0.249102
0.250717
0.251952
0.252958
0.253882
0.254639
0.255174
0.255386
0.255205
0.254751
0.25402
0.252864
0.25127
0.249511
0.248068
0.247242
0.238805
0.239233
0.240058
0.241448
0.243064
0.244698
0.246206
0.247483
0.248542
0.249473
0.250136
0.250353
0.250185
0.249632
0.248677
0.24741
0.246
0.244632
0.243587
0.243032
0.234173
0.234486
0.235144
0.23633
0.237763
0.239304
0.24091
0.242462
0.243816
0.244928
0.245736
0.246041
0.245802
0.245078
0.244026
0.242835
0.241636
0.240492
0.239654
0.239241
0.229713
0.229935
0.230482
0.231583
0.232981
0.234469
0.236028
0.237629
0.239166
0.240494
0.241473
0.241889
0.241669
0.241004
0.240082
0.239044
0.237939
0.236892
0.236179
0.235872
0.225529
0.225687
0.226129
0.227094
0.228379
0.229762
0.231173
0.232645
0.234222
0.235794
0.237011
0.237519
0.23746
0.237076
0.236471
0.23567
0.234748
0.233876
0.233312
0.233086
0.221548
0.221645
0.222022
0.222965
0.224275
0.225715
0.22728
0.228916
0.230524
0.232103
0.233532
0.234455
0.234769
0.234544
0.233959
0.233201
0.232342
0.231521
0.231033
0.230879
0.217997
0.218042
0.218333
0.219165
0.220366
0.221696
0.223144
0.224766
0.226623
0.228577
0.230343
0.231494
0.231955
0.231999
0.231748
0.231278
0.23065
0.230019
0.229667
0.229581
0.214784
0.214801
0.215005
0.215639
0.216632
0.21782
0.219199
0.220792
0.222619
0.224708
0.226853
0.228532
0.229554
0.230056
0.230172
0.23004
0.229757
0.229429
0.229265
0.229224
0.211441
0.21145
0.211604
0.212089
0.212931
0.214052
0.215435
0.217181
0.219321
0.22184
0.224483
0.226624
0.22802
0.22882
0.229271
0.229484
0.22952
0.229486
0.229473
0.229451
0.20747
0.207481
0.207625
0.208027
0.208757
0.209805
0.211197
0.213026
0.215394
0.21834
0.221609
0.224439
0.226444
0.227826
0.228728
0.229304
0.229665
0.229885
0.22997
0.229956
0.202628
0.202635
0.202797
0.203223
0.203982
0.205112
0.206688
0.208863
0.211715
0.215298
0.219359
0.222949
0.225568
0.22739
0.228658
0.22955
0.230182
0.230558
0.230692
0.230684
0.196775
0.196772
0.19696
0.197487
0.198373
0.199706
0.201593
0.204181
0.207642
0.212054
0.217116
0.221642
0.224981
0.227386
0.229097
0.230267
0.231139
0.23162
0.231795
0.2318
0.189874
0.189855
0.190059
0.190701
0.191865
0.193503
0.195835
0.199054
0.203321
0.208785
0.215079
0.220764
0.224996
0.228036
0.2302
0.231762
0.232775
0.233346
0.233574
0.233597
0.181854
0.181821
0.182066
0.182852
0.184312
0.186395
0.18931
0.193316
0.198629
0.20542
0.213246
0.220336
0.225628
0.229457
0.232184
0.234095
0.235327
0.236036
0.236344
0.236382
0.172475
0.172426
0.172723
0.173672
0.175432
0.178128
0.181802
0.18679
0.193426
0.201884
0.211615
0.220414
0.227003
0.231783
0.235172
0.237519
0.239059
0.239965
0.240363
0.240413
0.161288
0.161233
0.161624
0.16283
0.165
0.168302
0.172919
0.179237
0.18758
0.198162
0.210252
0.221126
0.229241
0.235124
0.239318
0.242223
0.244156
0.245315
0.245817
0.245874
0.147534
0.147473
0.148015
0.14956
0.152277
0.15644
0.162344
0.170399
0.180976
0.194246
0.209232
0.222589
0.232514
0.239722
0.244838
0.248406
0.25081
0.25226
0.252878
0.252944
0.130227
0.130161
0.130933
0.132981
0.136553
0.141984
0.14967
0.160075
0.173555
0.190197
0.208685
0.224964
0.236993
0.24571
0.251928
0.256288
0.25925
0.261032
0.26178
0.261851
0.107914
0.107865
0.109023
0.111889
0.116778
0.124142
0.13441
0.148043
0.165312
0.186134
0.208771
0.228411
0.242838
0.253299
0.260795
0.266095
0.269728
0.271911
0.27281
0.272886
0.0782554
0.0782797
0.0801351
0.0844265
0.0915425
0.102001
0.116121
0.134234
0.156396
0.182274
0.209688
0.233089
0.250184
0.262615
0.271595
0.278014
0.282454
0.28511
0.28618
0.286257
0.0370732
0.0373436
0.0407214
0.0480006
0.0592914
0.0748767
0.0947484
0.118918
0.147163
0.178939
0.211663
0.239135
0.25911
0.273707
0.284378
0.292135
0.297589
0.300833
0.302081
0.302144
-0.0233311
-0.0217594
-0.0136664
0.000189823
0.019212
0.0429824
0.0709074
0.10275
0.138165
0.176512
0.214899
0.246609
0.269575
0.28645
0.298974
0.308263
0.314918
0.318893
0.320369
0.320432
-0.0962641
-0.0930881
-0.0774661
-0.0533293
-0.0238254
0.00946742
0.0461631
0.0862235
0.129382
0.175074
0.220183
0.25734
0.284474
0.304738
0.320106
0.331863
0.340509
0.345692
0.347473
0.347792
-0.170468
-0.162375
-0.139118
-0.10516
-0.0658142
-0.0232762
0.0221688
0.0704727
0.121401
0.174486
0.226428
0.269142
0.30048
0.324164
0.342453
0.356723
0.367436
0.373684
0.376415
0.377161
-0.229152
-0.219638
-0.191541
-0.150803
-0.103934
-0.0536348
-0.000385659
0.055549
0.113819
0.173893
0.232171
0.279855
0.314797
0.341187
0.361602
0.377521
0.389498
0.396887
0.400438
0.401363
-0.276966
-0.266785
-0.235362
-0.189702
-0.137169
-0.0806975
-0.0209853
0.0415546
0.106401
0.172864
0.236879
0.288894
0.326743
0.355161
0.376996
0.394001
0.406834
0.415073
0.41902
0.420023
-0.316885
-0.30653
-0.272899
-0.223442
-0.16634
-0.104818
-0.0396867
0.0285338
0.0991705
0.171343
0.240493
0.296276
0.336508
0.366431
0.389227
0.406853
0.420161
0.428831
0.432982
0.434004
-0.351644
-0.341231
-0.305973
-0.253463
-0.192552
-0.126742
-0.0569329
0.0162651
0.0920743
0.169395
0.243238
0.302397
0.344686
0.375812
0.399264
0.417178
0.430581
0.439347
0.443484
0.444563
-0.382819
-0.372406
-0.335889
-0.280857
-0.216741
-0.147231
-0.0732878
0.00439906
0.0849212
0.167037
0.245273
0.307656
0.351885
0.384072
0.408017
0.426092
0.439514
0.448312
0.452434
0.453444
-0.411584
-0.401151
-0.363612
-0.306409
-0.239509
-0.166769
-0.0891534
-0.00740627
0.0774714
0.164137
0.246653
0.312186
0.358287
0.391521
0.415988
0.434277
0.447743
0.456552
0.460698
0.461557
-0.438759
-0.42828
-0.389806
-0.330679
-0.261324
-0.185735
-0.104843
-0.0194055
0.0695233
0.160514
0.247217
0.315942
0.364074
0.398517
0.423635
0.442222
0.455785
0.464581
0.468698
0.469477
-0.464799
-0.454257
-0.414908
-0.354063
-0.282529
-0.20439
-0.120544
-0.0317546
0.0609227
0.156033
0.246937
0.319104
0.369487
0.405308
0.431221
0.450225
0.463971
0.472769
0.476824
0.477574
-0.490051
-0.479367
-0.439192
-0.3768
-0.303315
-0.222894
-0.136396
-0.0445534
0.0516162
0.150695
0.245859
0.321628
0.374506
0.411943
0.438842
0.45841
0.472434
0.481277
0.485213
0.485926
-0.514716
-0.503825
-0.462877
-0.399043
-0.323808
-0.241357
-0.152456
-0.0578271
0.0415826
0.144461
0.243826
0.323391
0.37908
0.418436
0.446545
0.466828
0.481215
0.49013
0.493942
0.494586
-0.53883
-0.527706
-0.486008
-0.420867
-0.344067
-0.259785
-0.168734
-0.0715904
0.030789
0.137213
0.240734
0.324323
0.383142
0.424734
0.454308
0.475472
0.490298
0.499287
0.502952
0.503481
-0.562469
-0.551065
-0.508645
-0.442286
-0.36409
-0.278182
-0.185223
-0.0858361
0.0192218
0.128953
0.236531
0.324266
0.386553
0.430761
0.462093
0.484306
0.499632
0.508671
0.512135
0.512515
-0.585565
-0.573916
-0.53077
-0.4633
-0.383856
-0.296509
-0.201868
-0.100504
0.00694483
0.119705
0.231138
0.323065
0.389114
0.436379
0.469849
0.493307
0.50914
0.518128
0.521327
0.521545
-0.608148
-0.596206
-0.552338
-0.483864
-0.403312
-0.314701
-0.218594
-0.115503
-0.00595799
0.109491
0.224508
0.320582
0.390611
0.441383
0.477514
0.502519
0.518828
0.527555
0.530337
0.530377
-0.63002
-0.617874
-0.573302
-0.503924
-0.422391
-0.332671
-0.235318
-0.130747
-0.0194074
0.09838
0.216634
0.316696
0.3908
0.445492
0.484968
0.512083
0.52886
0.536899
0.538966
0.538792
-0.65129
-0.638869
-0.593618
-0.523439
-0.441047
-0.350368
-0.251939
-0.146145
-0.0333022
0.0864819
0.20754
0.311317
0.38945
0.448311
0.491893
0.522155
0.539817
0.546504
0.547085
0.546546
-0.671798
-0.65912
-0.613267
-0.542354
-0.459191
-0.367697
-0.268366
-0.161565
-0.0475141
0.0738863
0.197297
0.304389
0.386373
0.449387
0.497665
0.532562
0.552683
0.558024
0.555427
0.553513
-0.691613
-0.678673
-0.632188
-0.560607
-0.476779
-0.384588
-0.284511
-0.176917
-0.0619224
0.0607489
0.186022
0.295884
0.38144
0.448268
0.501298
0.542233
0.567636
0.574735
0.5689
0.557324
-0.710623
-0.69751
-0.650466
-0.578364
-0.49403
-0.401333
-0.300723
-0.192626
-0.0770126
0.0465121
0.173117
0.285108
0.37402
0.44426
0.501348
0.548965
0.582375
0.594713