/*--------------------------------*- C++ -*----------------------------------*\
  =========                 |
  \\      /  F ield         | OpenFOAM: The Open Source CFD Toolbox
   \\    /   O peration     | Website:  https://openfoam.org
    \\  /    A nd           | Version:  6
     \\/     M anipulation  |
\*---------------------------------------------------------------------------*/
FoamFile
{
    version     2.0;
    format      ascii;
    class       volScalarField;
    location    "65.3";
    object      p;
}
// * * * * * * * * * * * * * * * * * * * * * * * * * * * * * * * * * * * * * //

dimensions      [0 2 -2 0 0 0 0];

internalField   nonuniform List<scalar> 
8800
(
0.844717
0.7954
0.757433
0.72936
0.709193
0.694597
0.683987
0.67643
0.671521
0.669421
0.670759
0.675075
0.681848
0.691256
0.703983
0.721297
0.74517
0.778266
0.821201
0.873715
0.679215
0.685559
0.694707
0.698252
0.695638
0.689542
0.682591
0.676334
0.671511
0.668613
0.668348
0.670946
0.675564
0.681676
0.688764
0.69579
0.700663
0.700535
0.693858
0.684958
0.65274
0.658974
0.66347
0.667336
0.670278
0.671217
0.670115
0.667974
0.665968
0.665095
0.666092
0.668516
0.671381
0.673636
0.674147
0.672352
0.668981
0.664965
0.660182
0.656466
0.648453
0.651217
0.65382
0.655972
0.657701
0.659258
0.660346
0.660677
0.660535
0.660598
0.661364
0.662475
0.663194
0.663027
0.66204
0.660678
0.659003
0.656697
0.654284
0.652718
0.643416
0.64484
0.646675
0.648749
0.650452
0.651732
0.652813
0.653769
0.654546
0.655242
0.655911
0.656336
0.656334
0.655952
0.655272
0.654147
0.652485
0.650586
0.649231
0.648428
0.63845
0.639352
0.640594
0.642212
0.643895
0.645412
0.646677
0.647772
0.6488
0.649772
0.650509
0.65086
0.650841
0.650452
0.649634
0.648435
0.647066
0.645796
0.644973
0.644449
0.633572
0.634228
0.635183
0.636491
0.637926
0.639425
0.640888
0.642221
0.643442
0.644594
0.64549
0.64594
0.645924
0.645463
0.644665
0.643711
0.64271
0.6418
0.641218
0.640834
0.62878
0.629285
0.630064
0.631194
0.63248
0.633878
0.635361
0.636867
0.638332
0.639727
0.640818
0.641375
0.641415
0.641065
0.640481
0.639779
0.639031
0.638361
0.637932
0.637633
0.624021
0.624422
0.625075
0.626084
0.627298
0.628641
0.630117
0.631717
0.633395
0.635069
0.63641
0.637156
0.637386
0.637263
0.636918
0.636435
0.635892
0.635416
0.635099
0.634856
0.619213
0.619541
0.620107
0.621037
0.622204
0.623535
0.625045
0.626746
0.628619
0.63059
0.632259
0.633307
0.633821
0.633962
0.633855
0.633598
0.633251
0.632937
0.632704
0.632501
0.614271
0.614543
0.615049
0.615933
0.617084
0.618443
0.62003
0.621874
0.623979
0.626296
0.628377
0.629816
0.630674
0.631113
0.631264
0.631235
0.631086
0.630915
0.630749
0.630574
0.609104
0.609333
0.609802
0.61067
0.611845
0.613274
0.614982
0.617024
0.61943
0.622177
0.624762
0.62667
0.627928
0.628709
0.629148
0.629359
0.629409
0.629368
0.629258
0.629102
0.603622
0.603817
0.604267
0.605149
0.606389
0.607932
0.609815
0.612123
0.614917
0.618199
0.621395
0.62386
0.625587
0.626758
0.627524
0.627991
0.628255
0.628339
0.628276
0.628133
0.59772
0.597889
0.598337
0.599262
0.600607
0.602316
0.604443
0.6071
0.610382
0.614324
0.618261
0.621393
0.623671
0.625294
0.626431
0.627204
0.627683
0.627886
0.627863
0.627728
0.59128
0.591427
0.591889
0.592885
0.59438
0.596316
0.598764
0.601868
0.60576
0.610514
0.615349
0.619276
0.62221
0.624362
0.625923
0.627036
0.627756
0.628083
0.628098
0.627967
0.584161
0.584284
0.584775
0.585874
0.58757
0.589804
0.592665
0.596332
0.600983
0.606728
0.612646
0.617525
0.621234
0.624011
0.626073
0.62757
0.628565
0.629022
0.62907
0.628939
0.576172
0.576279
0.576815
0.57805
0.580008
0.582624
0.586006
0.590379
0.595968
0.602923
0.610147
0.616161
0.620784
0.624295
0.626956
0.62891
0.630207
0.6308
0.630879
0.630745
0.567087
0.567191
0.567778
0.569187
0.571486
0.574586
0.578625
0.583881
0.590628
0.599057
0.607848
0.615213
0.620917
0.625294
0.62866
0.631142
0.632785
0.633522
0.633631
0.633489
0.556589
0.556679
0.557356
0.559001
0.561735
0.565453
0.570327
0.576693
0.58488
0.595108
0.605773
0.614723
0.621696
0.62709
0.631265
0.634375
0.636405
0.637291
0.637424
0.637272
0.544301
0.544377
0.545157
0.547115
0.550409
0.554926
0.56087
0.568642
0.578621
0.591042
0.603938
0.614742
0.623183
0.62976
0.63488
0.638707
0.641159
0.642195
0.642346
0.642179
0.529665
0.529734
0.53066
0.533031
0.537062
0.542628
0.549964
0.559538
0.571762
0.586851
0.602384
0.61533
0.625447
0.633377
0.639584
0.644212
0.647113
0.648287
0.648446
0.648262
0.5119
0.511962
0.513102
0.51606
0.5211
0.528081
0.537267
0.549181
0.564227
0.582549
0.601163
0.61655
0.628558
0.638007
0.645414
0.650933
0.654284
0.655571
0.655724
0.65552
0.489846
0.489912
0.491396
0.495229
0.50172
0.510693
0.522417
0.537428
0.556038
0.57824
0.600386
0.618491
0.632576
0.643697
0.652411
0.658859
0.662619
0.663972
0.664098
0.663874
0.461713
0.461809
0.463891
0.469141
0.477877
0.489783
0.505093
0.52423
0.54731
0.574095
0.6002
0.621248
0.637552
0.650447
0.660546
0.667894
0.671964
0.673308
0.673386
0.673143
0.424442
0.424663
0.427963
0.435825
0.448345
0.464768
0.485202
0.509773
0.538315
0.570362
0.600788
0.624935
0.643539
0.658236
0.66973
0.677846
0.68205
0.683285
0.683293
0.683036
0.372173
0.373265
0.379821
0.393082
0.412212
0.435617
0.463133
0.494553
0.5295
0.567375
0.602364
0.629671
0.650557
0.666985
0.679755
0.688407
0.692482
0.693506
0.693433
0.693169
0.296439
0.303866
0.318901
0.342063
0.371063
0.403818
0.439955
0.479218
0.521246
0.565441
0.605323
0.635992
0.659339
0.677627
0.691532
0.70044
0.70423
0.705024
0.704897
0.704664
0.215916
0.232138
0.256551
0.290372
0.329757
0.372023
0.416829
0.464103
0.513587
0.56474
0.610348
0.645131
0.671432
0.691862
0.706924
0.715687
0.718885
0.719412
0.719311
0.719164
0.146933
0.166754
0.199001
0.242012
0.290653
0.341873
0.395124
0.450274
0.507041
0.564895
0.615903
0.654483
0.68346
0.705665
0.721362
0.729698
0.732366
0.732791
0.732752
0.732656
0.0904818
0.112529
0.150166
0.199767
0.25566
0.314397
0.375122
0.43753
0.501177
0.565417
0.621526
0.66365
0.695055
0.718781
0.73509
0.743379
0.745888
0.746271
0.746266
0.746199
0.0437156
0.0670839
0.108628
0.16338
0.225081
0.290027
0.357157
0.426008
0.495937
0.566142
0.627147
0.672678
0.706434
0.731752
0.74883
0.757255
0.759796
0.760177
0.760194
0.760149
0.00400817
0.0281685
0.0725974
0.131543
0.198146
0.268396
0.341068
0.415623
0.491285
0.567097
0.632782
0.681654
0.717715
0.744598
0.762571
0.771452
0.774116
0.774503
0.774531
0.774503
-0.030677
-0.00598611
0.0407025
0.103124
0.173918
0.248795
0.326405
0.406151
0.487137
0.568211
0.638362
0.690458
0.72881
0.757263
0.776226
0.785586
0.788457
0.788877
0.788907
0.788893
-0.0618408
-0.0367134
0.0118383
0.0772229
0.151656
0.230616
0.312688
0.397192
0.483123
0.569216
0.643669
0.698886
0.739452
0.769434
0.78932
0.799213
0.802337
0.802815
0.802848
0.802839
-0.0905018
-0.0649709
-0.0148244
0.0531444
0.13078
0.213364
0.299457
0.388345
0.478958
0.569897
0.648537
0.706784
0.74946
0.780901
0.801672
0.812045
0.815409
0.815976
0.815988
0.815977
-0.117466
-0.091498
-0.0399194
0.0303727
0.110837
0.196655
0.286404
0.37937
0.474419
0.570014
0.652793
0.714005
0.758732
0.791525
0.813086
0.823875
0.827423
0.828034
0.828024
0.828001
-0.143127
-0.116735
-0.0638337
0.0085232
0.0915125
0.180243
0.273325
0.370052
0.469283
0.569425
0.656322
0.720521
0.767234
0.801288
0.823493
0.834536
0.83821
0.838841
0.838804
0.838763
-0.167919
-0.141021
-0.0868968
-0.012669
0.0725867
0.163936
0.260048
0.360248
0.463437
0.568023
0.65906
0.7263
0.774998
0.810197
0.8329
0.8441
0.847778
0.848395
0.848323
0.848262
-0.191979
-0.164569
-0.109287
-0.0333712
0.0539104
0.147617
0.246483
0.349891
0.456806
0.565709
0.660954
0.731361
0.782103
0.818387
0.841429
0.852595
0.856217
0.856801
0.856705
0.856624
-0.215436
-0.187483
-0.131126
-0.0536755
0.0354195
0.13124
0.232598
0.338937
0.449332
0.562417
0.661945
0.735723
0.788652
0.825998
0.84922
0.860203
0.863673
0.864184
0.864067
0.86397
-0.238389
-0.209877
-0.152461
-0.0736183
0.0170821
0.114793
0.218388
0.327387
0.441001
0.558099
0.66197
0.739385
0.794764
0.833223
0.856477
0.867073
0.870265
0.87067
0.870517
0.870407
-0.260894
-0.231747
-0.173305
-0.0932042
-0.00107955
0.0982956
0.203885
0.315272
0.431831
0.552718
0.660957
0.742312
0.800531
0.840284
0.863418
0.87336
0.876089
0.876326
0.876145
0.87603
-0.282811
-0.253061
-0.193644
-0.112421
-0.0190386
0.0818045
0.189141
0.302654
0.421861
0.546279
0.658833
0.744425
0.805974
0.847412
0.870396
0.879328
0.881285
0.881253
0.881049
0.880942
-0.304116
-0.273788
-0.213464
-0.131233
-0.0367457
0.0653743
0.17424
0.289601
0.411161
0.53879
0.655533
0.745603
0.811029
0.854785
0.877906
0.885543
0.886185
0.885571
0.885325
0.885279
-0.324861
-0.293898
-0.232743
-0.14961
-0.0541436
0.0490834
0.159266
0.276207
0.399812
0.530297
0.65099
0.745711
0.815524
0.862378
0.886432
0.892983
0.891684
0.889679
0.889111
0.889345
-0.344897
-0.313365
-0.251427
-0.16749
-0.0711772
0.0330138
0.144311
0.262578
0.387922
0.520886
0.645161
0.744579
0.819196
0.869859
0.896059
0.902784
0.899832
0.895303
0.892578
0.891459
-0.364315
-0.332194
-0.269522
-0.184905
-0.0878813
0.0171262
0.129325
0.248657
0.375421
0.510492
0.637891
0.741952
0.821801
0.876731
0.906223
0.915286
0.912832
0.905686
0.896158
0.896561
-0.383032
-0.350452
-0.287164
-0.202051
-0.104549
0.00109179
0.113896
0.233963
0.361768
0.498494
0.628531
0.73708
0.822905
0.882404
0.915413
0.928458
0.927255
0.916069
0.897567
0.895703
-0.400912
-0.3681
-0.304184
-0.218741
-0.120916
-0.0147888
0.0982271
0.218813
0.34725
0.485124
0.617111
0.729262
0.821649
0.885681
0.919541
0.933038
0.9338
0.908413
0.850675
0.825738
-0.417834
-0.386009
-0.320185
-0.234528
-0.136211
-0.0300356
0.0826002
0.203483
0.332146
0.470549
0.60369
0.71789
0.816943
0.885603
0.913755
0.922076
0.908534
0.856961
0.794977
0.757215
-0.460808
-0.40345
-0.334899
-0.250298
-0.151181
-0.045606
0.0671552
0.187851
0.316253
0.454415
0.587859
0.70231
0.804875
0.878894
0.895731
0.882342
0.834436
0.769064
0.700054
0.66213
-0.435979
-0.417793
-0.357324
-0.272045
-0.174322
-0.0689951
0.0430603
0.163079
0.290541
0.427281
0.559355
0.67187
0.766117
0.847359
0.8305
0.721465
0.630522
0.567344
0.503153
0.52986
-0.466904
-0.435409
-0.374103
-0.289312
-0.191949
-0.0867867
0.0254252
0.144767
0.271184
0.406137
0.535632
0.64466
0.728221
0.773665
0.721749
0.581858
0.47251
0.398798
0.316547
0.361717
-0.49092
-0.456991
-0.39393
-0.309069
-0.211767
-0.106629
0.00544748
0.123975
0.249005
0.381543
0.507219
0.610296
0.682196
0.689733
0.582914
0.427422
0.298117
0.205473
0.109893
0.141073
-0.514318
-0.479311
-0.414852
-0.329319
-0.231939
-0.126929
-0.0153805
0.102162
0.225565
0.355265
0.476082
0.571051
0.625851
0.600733
0.4423
0.265055
0.105041
-0.0289
-0.153287
-0.140686
-0.537456
-0.502037
-0.436646
-0.350504
-0.252982
-0.148194
-0.0373174
0.0790833
0.200559
0.326983
0.442073
0.528911
0.563025
0.49257
0.303994
0.106735
-0.0803546
-0.234252
-0.439687
-0.518788
-0.561021
-0.525631
-0.459678
-0.373095
-0.275407
-0.170798
-0.0605336
0.0546815
0.17409
0.296944
0.405831
0.483379
0.491935
0.369949
0.177868
-0.0313839
-0.223502
-0.385264
-0.509078
-0.627385
-0.586092
-0.550581
-0.484307
-0.397479
-0.299755
-0.195428
-0.0858777
0.0279629
0.144941
0.263636
0.36589
0.430729
0.41193
0.253512
0.0598538
-0.143396
-0.31881
-0.416101
-0.442294
-0.455794
-0.612795
-0.57718
-0.510668
-0.42375
-0.326176
-0.22231
-0.113728
-0.00158931
0.11249
0.226255
0.321399
0.368688
0.330631
0.141597
-0.050155
-0.233192
-0.365666
-0.403576
-0.412493
-0.412823
-0.64141
-0.605552
-0.538799
-0.451896
-0.35462
-0.251453
-0.144112
-0.034035
0.0766582
0.184762
0.271746
0.302875
0.233362
0.0392997
-0.146295
-0.305318
-0.379743
-0.39381
-0.394887
-0.394769
-0.671948
-0.635731
-0.568716
-0.481915
-0.385106
-0.282851
-0.177042
-0.0693972
0.0374494
0.139258
0.216742
0.233264
0.125457
-0.0534239
-0.229046
-0.355159
-0.384046
-0.384693
-0.385169
-0.38474
-0.704153
-0.667545
-0.600318
-0.513725
-0.417547
-0.316452
-0.212496
-0.107657
-0.00508867
0.0898691
0.157624
0.155225
0.029611
-0.13889
-0.294452
-0.366211
-0.381298
-0.379491
-0.379244
-0.378817
-0.737458
-0.700645
-0.633337
-0.54709
-0.45175
-0.352094
-0.250322
-0.148691
-0.0507398
0.0369799
0.0947799
0.0761449
-0.0588458
-0.213919
-0.337566
-0.374658
-0.37442
-0.375391
-0.375408
-0.375114
-0.771415
-0.734491
-0.667278
-0.581581
-0.487352
-0.389444
-0.290226
-0.192221
-0.0992138
-0.0185003
0.0268745
0.00141036
-0.139488
-0.27275
-0.361763
-0.370253
-0.372099
-0.372771
-0.37262
-0.372504
-0.805069
-0.768185
-0.701387
-0.616545
-0.523784
-0.428007
-0.331729
-0.237753
-0.150082
-0.0757298
-0.0411777
-0.0736398
-0.208998
-0.317614
-0.366855
-0.37739
-0.372498
-0.370366
-0.369649
-0.36953
-0.836498
-0.800412
-0.734609
-0.651065
-0.560239
-0.467057
-0.374142
-0.284539
-0.202559
-0.134323
-0.104468
-0.152301
-0.267064
-0.358139
-0.380641
-0.379111
-0.372823
-0.367618
-0.366088
-0.365646
-0.864659
-0.829634
-0.765509
-0.683911
-0.595627
-0.505621
-0.416562
-0.331648
-0.255369
-0.193791
-0.166081
-0.221273
-0.3135
-0.384267
-0.408651
-0.39353
-0.37886
-0.371671
-0.369181
-0.368017
-0.88677
-0.853703
-0.792292
-0.713522
-0.628591
-0.542481
-0.45785
-0.377997
-0.307208
-0.252195
-0.227454
-0.275703
-0.34676
-0.3903
-0.394595
-0.402333
-0.405587
-0.402366
-0.398029
-0.395799
-0.900677
-0.870413
-0.812824
-0.738103
-0.657562
-0.576198
-0.496674
-0.422228
-0.357095
-0.306471
-0.283419
-0.320971
-0.372538
-0.398078
-0.398155
-0.415032
-0.425204
-0.423763
-0.420414
-0.419862
-0.903638
-0.877316
-0.824934
-0.755746
-0.68087
-0.605244
-0.531587
-0.46275
-0.40381
-0.355628
-0.330109
-0.359337
-0.399722
-0.428324
-0.420812
-0.41261
-0.407408
-0.405723
-0.406032
-0.406378
-0.89336
-0.871914
-0.82647
-0.764647
-0.696987
-0.62826
-0.5611
-0.498199
-0.444955
-0.401477
-0.36173
-0.390906
-0.402006
-0.461061
-0.438761
-0.407551
-0.394757
-0.393067
-0.392627
-0.391895
-0.867104
-0.851307
-0.815429
-0.763552
-0.704801
-0.644308
-0.584088
-0.527586
-0.478313
-0.442752
-0.393775
-0.377655
-0.3407
-0.348642
-0.370549
-0.373481
-0.378409
-0.384308
-0.386833
-0.387166
-0.828332
-0.818213
-0.792827
-0.752674
-0.704331
-0.652962
-0.600529
-0.549653
-0.504812
-0.472805
-0.436648
-0.379451
-0.265348
-0.18865
-0.235381
-0.325989
-0.384631
-0.409102
-0.418144
-0.420697
-0.784211
-0.778461
-0.763743
-0.735074
-0.697755
-0.655077
-0.610416
-0.564907
-0.523872
-0.491116
-0.46614
-0.431668
-0.39248
-0.28147
-0.339123
-0.454533
-0.534239
-0.556698
-0.561362
-0.564419
-0.745114
-0.741656
-0.734697
-0.71639
-0.688021
-0.65302
-0.614129
-0.574068
-0.534286
-0.504209
-0.48008
-0.54832
-0.779478
-1.12733
-1.25536
-1.22098
-1.10743
-0.937422
-0.840202
-0.829197
-0.717473
-0.715452
-0.711927
-0.700951
-0.679187
-0.649373
-0.614779
-0.576044
-0.537318
-0.502925
-0.483283
-0.552997
-0.752842
-0.974299
-1.15751
-1.13457
-1.05515
-0.941948
-0.836124
-0.788541
-0.69751
-0.696827
-0.695683
-0.690152
-0.673775
-0.647294
-0.613292
-0.574673
-0.53208
-0.486682
-0.462653
-0.437899
-0.393113
-0.32064
-0.238268
-0.147269
-0.0893563
-0.055061
-0.0246441
-0.00415938
-0.685927
-0.685698
-0.685084
-0.682358
-0.670942
-0.646466
-0.611522
-0.570908
-0.520666
-0.469163
-0.423601
-0.352184
-0.179194
0.0970634
0.350645
0.545477
0.646591
0.684453
0.704784
0.71166
-0.67813
-0.677928
-0.677376
-0.676386
-0.669483
-0.647287
-0.611177
-0.563635
-0.509856
-0.444267
-0.363719
-0.276648
-0.0254679
0.319503
0.670733
0.973617
1.11651
1.1629
1.15894
1.15097
-0.674218
-0.674001
-0.673473
-0.673156
-0.669765
-0.651144
-0.611581
-0.558311
-0.497722
-0.415807
-0.327966
-0.212211
0.0216347
0.355146
0.673363
0.931754
1.05627
1.09282
1.10119
1.10151
-0.672528
-0.672964
-0.674088
-0.675399
-0.674949
-0.658063
-0.613345
-0.556094
-0.485523
-0.400545
-0.301196
-0.188274
0.0354649
0.289282
0.511925
0.683458
0.774851
0.847742
0.910294
0.938479
-0.667186
-0.66888
-0.672901
-0.678857
-0.681455
-0.660341
-0.61451
-0.558933
-0.486819
-0.392317
-0.288155
-0.192515
0.000912124
0.236908
0.469036
0.667431
0.81032
0.918401
0.9881
1.01287
-0.669201
-0.670414
-0.669054
-0.660998
-0.653131
-0.63994
-0.614605
-0.57223
-0.496689
-0.391357
-0.286142
-0.19411
-0.0250871
0.201456
0.438641
0.653184
0.829101
0.950414
1.00662
1.02209
-0.702203
-0.700828
-0.686687
-0.648642
-0.609658
-0.614879
-0.629913
-0.595958
-0.509882
-0.398173
-0.296469
-0.208047
-0.0930924
0.125263
0.349661
0.547916
0.703628
0.802475
0.842915
0.852704
-0.761482
-0.758533
-0.754212
-0.738675
-0.72338
-0.717011
-0.714845
-0.639729
-0.524396
-0.410226
-0.307621
-0.217944
-0.12828
0.0286703
0.228027
0.388406
0.51536
0.588229
0.61716
0.62234
-0.87951
-0.88996
-0.927657
-0.973418
-0.983212
-0.950753
-0.863102
-0.705562
-0.546093
-0.424343
-0.31423
-0.236158
-0.163248
-0.0456834
0.113743
0.23499
0.330467
0.381462
0.401228
0.402538
-1.00931
-1.0318
-1.07899
-1.11829
-1.12635
-1.08657
-0.954769
-0.737835
-0.56359
-0.429057
-0.322708
-0.249297
-0.210282
-0.118437
0.00106564
0.0950321
0.167168
0.20346
0.215541
0.216779
-1.01521
-1.034
-1.06735
-1.0967
-1.10306
-1.05922
-0.903606
-0.697276
-0.54276
-0.413293
-0.317191
-0.256455
-0.229169
-0.171073
-0.0865815
-0.0186238
0.0279444
0.0514154
0.060106
0.0588615
-0.83548
-0.855217
-0.889661
-0.925133
-0.937821
-0.888004
-0.743269
-0.596131
-0.469984
-0.367095
-0.306385
-0.257618
-0.23655
-0.196328
-0.151857
-0.117614
-0.0944852
-0.0842849
-0.0810403
-0.0819087
-0.505055
-0.522151
-0.554581
-0.592894
-0.61586
-0.591852
-0.521918
-0.443284
-0.36265
-0.31244
-0.274061
-0.244477
-0.23525
-0.213283
-0.194823
-0.189304
-0.188833
-0.193519
-0.194021
-0.193998
-0.161357
-0.171063
-0.192785
-0.226308
-0.258316
-0.275582
-0.283464
-0.27818
-0.264895
-0.249266
-0.234984
-0.227452
-0.222144
-0.216171
-0.220309
-0.229624
-0.242914
-0.251135
-0.253252
-0.253304
0.06394
0.0589359
0.04424
0.0152497
-0.0293892
-0.0806238
-0.123452
-0.156622
-0.178687
-0.188445
-0.201357
-0.206538
-0.211362
-0.211124
-0.222034
-0.241165
-0.263145
-0.271101
-0.271351
-0.270365
0.156117
0.153133
0.142408
0.117831
0.0771983
0.0245072
-0.0300271
-0.0774847
-0.113509
-0.142664
-0.169685
-0.196683
-0.21354
-0.204438
-0.20843
-0.220134
-0.231434
-0.234205
-0.232005
-0.23129
0.169651
0.167681
0.160072
0.141847
0.110132
0.068031
0.0209293
-0.0253076
-0.0662768
-0.0994168
-0.136693
-0.1788
-0.201622
-0.180481
-0.165943
-0.165156
-0.163846
-0.162429
-0.161885
-0.1622
0.151963
0.15074
0.145705
0.13329
0.111107
0.0799364
0.042946
0.00530806
-0.0297858
-0.0613326
-0.0932075
-0.123537
-0.136301
-0.117276
-0.103972
-0.0995136
-0.0950347
-0.0921453
-0.0931698
-0.0941593
0.126099
0.125418
0.12231
0.114373
0.0997363
0.0784251
0.0517794
0.02343
-0.00393736
-0.0256312
-0.0407188
-0.0484677
-0.0455097
-0.0439155
-0.0445292
-0.0456195
-0.0441773
-0.0439486
-0.0445462
-0.0455808
0.100224
0.099983
0.0982092
0.0934203
0.0842225
0.0703302
0.0524668
0.033418
0.015661
0.0051334
0.00586902
0.0214217
0.0366728
0.0246723
0.00812337
-0.00315061
-0.00948039
-0.0127746
-0.0145079
-0.0151873
0.0770655
0.0769414
0.0760221
0.0733005
0.0678148
0.059282
0.0481136
0.0364547
0.0270733
0.0263255
0.040516
0.0670054
0.0857745
0.0674442
0.0439288
0.0275566
0.017788
0.0120416
0.0096077
0.00910636
0.0561884
0.0562247
0.0558292
0.054464
0.0514672
0.0466195
0.0402614
0.0340092
0.030811
0.0368871
0.0581558
0.0879209
0.106183
0.0872467
0.0627983
0.047104
0.0386288
0.0336754
0.0312077
0.0307365
0.0372617
0.0373531
0.037263
0.0367577
0.0353381
0.0329164
0.0297485
0.0270806
0.027324
0.0361239
0.0589952
0.0884391
0.103103
0.0851175
0.0666854
0.0553278
0.0504505
0.0474938
0.0454338
0.0446298
0.0198568
0.0199659
0.0200096
0.0199113
0.0194462
0.0184778
0.0171907
0.0162977
0.0174504
0.0246832
0.0436477
0.0659929
0.0742068
0.0583691
0.0456203
0.0432067
0.0417464
0.042153
0.0406334
0.039679
0.0035279
0.00357822
0.00354891
0.00367165
0.00386063
0.003875
0.00361635
0.00329432
0.00340101
0.00420526
0.00707456
0.0140926
0.0178491
0.0242875
0.0163778
0.0158447
0.0141631
0.0105788
0.00958314
0.00926281
-0.00847686
0.180807
0.354843
0.502381
0.62093
0.714886
0.793226
0.856899
0.87319
0.869538
0.282895
0.404743
0.519043
0.618395
0.702081
0.771241
0.825757
0.86262
0.882344
0.898918
0.480789
0.562206
0.642681
0.713267
0.773431
0.823348
0.862657
0.892598
0.915112
0.934342
0.627571
0.685118
0.743006
0.795045
0.840006
0.878251
0.91035
0.937278
0.957558
0.976445
0.744452
0.787723
0.830633
0.870874
0.906871
0.938679
0.966487
0.990046
1.00799
1.02603
0.841319
0.877061
0.912411
0.946191
0.977318
1.0055
1.03036
1.05122
1.067
1.08447
0.929793
0.961786
0.994108
1.02534
1.05436
1.08073
1.10385
1.12278
1.1367
1.15372
1.01681
1.04938
1.08182
1.11303
1.14182
1.16761
1.18974
1.20728
1.21966
1.23619
1.11122
1.14763
1.1824
1.21486
1.24404
1.2694
1.29053
1.30682
1.31844
1.33458
1.22429
1.26488
1.30191
1.33487
1.36336
1.38736
1.40699
1.42227
1.43417
1.45025
1.3657
1.40676
1.44201
1.4716
1.49681
1.51843
1.53693
1.55242
1.56554
1.58148
1.53723
1.56961
1.5965
1.61881
1.6389
1.65763
1.67537
1.69214
1.70706
1.72278
1.72355
1.74082
1.75794
1.77462
1.79072
1.80546
1.81936
1.83384
1.84908
1.86637
1.90694
1.91691
1.93011
1.9411
1.9505
1.96016
1.97077
1.98095
1.99024
2.0159
2.12484
2.11913
2.10619
2.09193
2.08563
2.09135
2.10949
2.13801
2.17177
2.2081
2.42765
2.29169
2.21219
2.16968
2.15235
2.15633
2.18376
2.24163
2.34929
2.5277
0.748412
0.742109
0.734378
0.723262
0.70969
0.697038
0.686638
0.678623
0.672902
0.669568
0.669216
0.672052
0.677287
0.684647
0.694198
0.70603
0.719593
0.732523
0.741513
0.749055
0.657481
0.6634
0.671472
0.677603
0.68067
0.680156
0.677067
0.673068
0.669476
0.66719
0.667057
0.669314
0.673072
0.677522
0.681626
0.683874
0.682802
0.678167
0.671113
0.66328
0.650732
0.653104
0.656371
0.659143
0.661592
0.663779
0.664955
0.664805
0.663865
0.663057
0.663275
0.664695
0.666482
0.667716
0.667644
0.666181
0.664025
0.661665
0.658684
0.655666
0.645945
0.647033
0.648949
0.651286
0.653156
0.654552
0.655768
0.656757
0.657355
0.657733
0.658292
0.659043
0.659518
0.659406
0.658782
0.657864
0.656536
0.654569
0.652463
0.650986
0.640924
0.641557
0.642686
0.644442
0.646284
0.647875
0.649124
0.650184
0.651163
0.652063
0.652856
0.653387
0.653535
0.653336
0.652806
0.651837
0.650413
0.648806
0.64747
0.646669
0.636002
0.636441
0.637229
0.638532
0.640052
0.641613
0.643088
0.644381
0.645533
0.646622
0.647584
0.6482
0.648391
0.648166
0.64751
0.646517
0.645369
0.644228
0.643327
0.642794
0.631171
0.631498
0.63211
0.633179
0.634473
0.63587
0.637346
0.638816
0.640205
0.641509
0.642667
0.64343
0.643673
0.643441
0.642854
0.642079
0.641239
0.640389
0.63973
0.639338
0.626404
0.626659
0.627152
0.628063
0.629233
0.63054
0.631959
0.633482
0.635059
0.636622
0.638033
0.638972
0.639334
0.639251
0.638882
0.638346
0.637721
0.637099
0.63662
0.636321
0.621632
0.621834
0.622245
0.623045
0.624139
0.625398
0.626804
0.628372
0.63009
0.631903
0.63361
0.634818
0.63542
0.635587
0.635461
0.635154
0.634737
0.634308
0.63397
0.633735
0.616768
0.616931
0.617284
0.618012
0.619059
0.620301
0.621737
0.623392
0.625271
0.627344
0.629405
0.63098
0.631916
0.63238
0.632515
0.632442
0.632241
0.631988
0.631766
0.631578
0.611725
0.611857
0.612168
0.612852
0.613884
0.615152
0.616659
0.618444
0.620537
0.622932
0.625424
0.627456
0.628792
0.6296
0.630029
0.630209
0.630222
0.630141
0.630017
0.629865
0.606413
0.60652
0.606803
0.607469
0.60852
0.609859
0.61148
0.61345
0.615826
0.618629
0.621652
0.624232
0.62604
0.627246
0.62801
0.628465
0.628705
0.628794
0.628757
0.628632
0.600735
0.60082
0.601088
0.601759
0.602866
0.604316
0.606107
0.608331
0.611074
0.614389
0.618063
0.621303
0.623668
0.625335
0.626478
0.627253
0.627744
0.627996
0.628036
0.627933
0.59458
0.594646
0.594908
0.595608
0.596807
0.598416
0.600441
0.602999
0.606209
0.610159
0.614628
0.618661
0.621691
0.623901
0.62548
0.626615
0.627383
0.627812
0.627925
0.627839
0.587817
0.587865
0.588129
0.588881
0.590211
0.592035
0.59437
0.597358
0.601155
0.605891
0.611327
0.616312
0.620132
0.622983
0.625073
0.626614
0.6277
0.62832
0.628507
0.628433
0.580294
0.580321
0.580591
0.581417
0.582922
0.585027
0.587758
0.591288
0.595817
0.601519
0.608128
0.614258
0.619013
0.62262
0.625318
0.627344
0.628792
0.629617
0.629876
0.629812
0.571786
0.571804
0.572083
0.573011
0.574747
0.577212
0.580446
0.584658
0.590097
0.596984
0.605012
0.612512
0.61838
0.622874
0.626289
0.628895
0.630753
0.631805
0.632137
0.632079
0.562014
0.562007
0.562336
0.563408
0.565442
0.568364
0.572234
0.577304
0.583877
0.592222
0.601967
0.611094
0.618274
0.623817
0.628073
0.631352
0.633687
0.634987
0.635392
0.635337
0.550666
0.550637
0.551016
0.55228
0.554686
0.558198
0.562883
0.569043
0.577038
0.587179
0.598994
0.610045
0.618755
0.625521
0.630762
0.634818
0.6377
0.639265
0.639739
0.639681
0.537253
0.537202
0.53766
0.539175
0.542067
0.546347
0.552089
0.559645
0.569436
0.581795
0.596099
0.609404
0.61988
0.628052
0.634442
0.639391
0.642875
0.644712
0.645247
0.64518
0.521118
0.521044
0.521627
0.523494
0.527035
0.53234
0.53948
0.548857
0.560931
0.576027
0.593303
0.609227
0.62172
0.631485
0.639171
0.645124
0.649264
0.651368
0.651945
0.651864
0.501305
0.501214
0.501998
0.504377
0.508833
0.51556
0.524606
0.536408
0.551424
0.569899
0.590685
0.609596
0.624342
0.635883
0.644986
0.652054
0.656869
0.659204
0.659798
0.659694
0.476378
0.476286
0.477408
0.480578
0.486413
0.495219
0.506972
0.52208
0.540907
0.563521
0.588382
0.61062
0.627822
0.641285
0.651926
0.660159
0.66561
0.668104
0.668673
0.668539
0.443996
0.443951
0.445679
0.450215
0.458353
0.4704
0.486138
0.505801
0.52952
0.557112
0.586594
0.612436
0.632236
0.647709
0.659946
0.669342
0.675302
0.677832
0.678327
0.678159
0.399973
0.40013
0.403176
0.410547
0.422992
0.440368
0.462015
0.487825
0.51762
0.55099
0.585553
0.6152
0.637663
0.655153
0.668964
0.679408
0.685633
0.68802
0.688391
0.688189
0.336504
0.337836
0.345225
0.35912
0.379448
0.405289
0.435263
0.468881
0.505831
0.545623
0.585566
0.619069
0.644148
0.663565
0.678746
0.689947
0.696111
0.698131
0.698339
0.698126
0.260756
0.263374
0.277723
0.301635
0.332738
0.368626
0.407637
0.449523
0.494096
0.540934
0.58706
0.625262
0.653658
0.675507
0.692283
0.704025
0.709937
0.711691
0.711854
0.711736
0.183241
0.190181
0.211717
0.245661
0.287241
0.332934
0.380986
0.431212
0.483492
0.537443
0.589842
0.632819
0.664534
0.688801
0.707195
0.719158
0.7244
0.725664
0.725764
0.725716
0.12004
0.128845
0.155012
0.196062
0.245904
0.299931
0.356139
0.414188
0.473833
0.534619
0.592995
0.64043
0.675196
0.701532
0.720981
0.732992
0.73789
0.739047
0.739187
0.739194
0.0682863
0.0778064
0.107501
0.153841
0.209902
0.270603
0.333695
0.398661
0.465057
0.532247
0.596283
0.647954
0.685576
0.713881
0.734463
0.746822
0.751588
0.752684
0.752883
0.752931
0.0249871
0.034814
0.0669169
0.117391
0.178558
0.244816
0.313743
0.384723
0.457152
0.530236
0.599644
0.655432
0.695849
0.726116
0.747905
0.760686
0.765579
0.766856
0.767082
0.767157
-0.0123291
-0.00236809
0.0315397
0.0853272
0.150766
0.221793
0.295806
0.372112
0.450038
0.528623
0.603118
0.662852
0.706021
0.7382
0.761254
0.774737
0.77999
0.781343
0.781566
0.781644
-0.0453422
-0.0353324
-4.96895e-06
0.0565261
0.1256
0.200767
0.279305
0.360456
0.44345
0.52718
0.606504
0.670048
0.71589
0.749969
0.774286
0.788508
0.794153
0.795616
0.79584
0.795902
-0.0753131
-0.0652666
-0.0287829
0.0301096
0.10234
0.181149
0.26373
0.349289
0.436972
0.525592
0.609602
0.676836
0.725243
0.761149
0.786676
0.801604
0.807648
0.80923
0.809442
0.809486
-0.103192
-0.0930899
-0.0555805
0.00541171
0.0804344
0.162459
0.248659
0.338253
0.430349
0.523643
0.612216
0.683044
0.733954
0.771571
0.798216
0.813796
0.820238
0.821904
0.822088
0.822103
-0.12954
-0.119374
-0.0809113
-0.0180308
0.0594568
0.14435
0.233826
0.327131
0.423345
0.521108
0.614143
0.688577
0.74193
0.781201
0.808871
0.824941
0.831621
0.833362
0.833528
0.83351
-0.15482
-0.144522
-0.105165
-0.0405707
0.039119
0.126588
0.219031
0.315728
0.415781
0.517841
0.615303
0.693371
0.749177
0.79001
0.818549
0.834992
0.84179
0.843547
0.843695
0.843646
-0.179325
-0.16882
-0.12861
-0.0624387
0.019228
0.109
0.204125
0.303932
0.407571
0.51375
0.615609
0.697389
0.75572
0.798088
0.827367
0.844035
0.850806
0.852516
0.852639
0.852568
-0.203162
-0.19242
-0.15139
-0.0837797
-0.000338968
0.091501
0.189046
0.291691
0.398653
0.508747
0.614978
0.700622
0.761616
0.805553
0.835451
0.852142
0.858795
0.860423
0.860501
0.860406
-0.226456
-0.215446
-0.173624
-0.104658
-0.0196331
0.074051
0.17377
0.278984
0.388999
0.502796
0.613349
0.703031
0.766935
0.81255
0.842982
0.859528
0.865913
0.867388
0.867414
0.867299
-0.249204
-0.237948
-0.195332
-0.125102
-0.0386654
0.0566543
0.158311
0.265829
0.378624
0.495876
0.61066
0.704564
0.771718
0.81925
0.850181
0.866348
0.872279
0.873522
0.873471
0.873335
-0.271486
-0.259915
-0.216492
-0.145106
-0.0574227
0.0393372
0.142705
0.252278
0.367571
0.487994
0.606863
0.705143
0.775954
0.825806
0.857316
0.872852
0.87801
0.878874
0.878737
0.878596
-0.293098
-0.281313
-0.237095
-0.164661
-0.0758632
0.0221659
0.127015
0.238393
0.355899
0.479194
0.601919
0.704679
0.779566
0.832306
0.864739
0.879485
0.883435
0.883607
0.883315
0.883193
-0.314193
-0.30209
-0.257113
-0.183743
-0.0939625
0.0051756
0.111329
0.224251
0.343689
0.469545
0.595815
0.703064
0.782413
0.838701
0.872748
0.88694
0.889243
0.888062
0.88732
0.887273
-0.334591
-0.322211
-0.276533
-0.202306
-0.111644
-0.0115515
0.0957265
0.209968
0.331042
0.459106
0.588566
0.700187
0.784309
0.844762
0.881371
0.895974
0.89683
0.893466
0.891263
0.890991
-0.354396
-0.341701
-0.295297
-0.220294
-0.128871
-0.0279485
0.0802939
0.195623
0.318063
0.448008
0.580227
0.69592
0.785037
0.850096
0.890116
0.906739
0.90782
0.902687
0.896715
0.888138
-0.37349
-0.360553
-0.313495
-0.237872
-0.145867
-0.0442946
0.0646983
0.180818
0.304311
0.435758
0.570301
0.689716
0.784231
0.85448
0.898404
0.918655
0.922499
0.916752
0.905711
0.904515
-0.391834
-0.378844
-0.331123
-0.254985
-0.162617
-0.0605534
0.0489688
0.165531
0.289751
0.422229
0.5586
0.681066
0.781123
0.857123
0.904316
0.927642
0.93373
0.93038
0.896334
0.857865
-0.409198
-0.396435
-0.348112
-0.271515
-0.179112
-0.076731
0.0331063
0.149895
0.274447
0.40745
0.54504
0.669594
0.774538
0.857115
0.905882
0.925091
0.93095
0.910343
0.85791
0.803076