/*--------------------------------*- C++ -*----------------------------------*\
  =========                 |
  \\      /  F ield         | OpenFOAM: The Open Source CFD Toolbox
   \\    /   O peration     | Website:  https://openfoam.org
    \\  /    A nd           | Version:  6
     \\/     M anipulation  |
\*---------------------------------------------------------------------------*/
FoamFile
{
    version     2.0;
    format      ascii;
    class       surfaceScalarField;
    location    "94.7";
    object      phi;
}
// * * * * * * * * * * * * * * * * * * * * * * * * * * * * * * * * * * * * * //

dimensions      [0 3 -1 0 0 0 0];

internalField   nonuniform List<scalar> 
17370
(
-0.09
0.0898489
0.289162
-0.0714621
0.0537521
0.364486
-0.0381187
0.0276894
0.426597
-0.0196373
0.0146041
0.504285
-0.010762
0.00827159
0.601893
-0.00627187
0.00489533
0.720434
-0.00373132
0.00289066
0.863747
-0.00214906
0.00158986
1.03601
-0.0010732
0.000660751
1.24292
-0.000253672
-0.000143703
1.49159
0.000523345
-0.000933062
1.4916
0.00133052
-0.00181663
1.24318
0.00233993
-0.00304302
1.03634
0.00385689
-0.00500192
0.864052
0.00636847
-0.00836168
0.721051
0.0108472
-0.0146833
0.603051
0.0197101
-0.0277542
0.507483
0.0381756
-0.0538
0.431792
0.0715015
-0.0898754
0.365149
0.0900163
0.198995
-0.128138
0.0882295
0.0399084
-0.3646
0.353382
-0.0746688
0.0858872
-0.446477
0.454323
-0.0843828
0.0765373
-0.521192
0.529904
-0.0684391
0.0597265
-0.61279
0.621571
-0.0515365
0.0427555
-0.726896
0.734167
-0.0352933
0.0280221
-0.867477
0.872595
-0.0224194
0.0173015
-1.03848
1.04193
-0.0134895
0.0100374
-1.2446
1.24704
-0.00742466
0.00498962
-1.49262
1.49461
-0.00303892
0.00105499
-1.49251
1.49423
0.000617147
-0.00234015
-1.24397
1.24586
0.00424777
-0.00613332
-1.03751
1.04003
0.00848446
-0.0110036
-0.866098
0.869825
0.0143494
-0.0180764
-0.724389
0.729931
0.0231166
-0.0286593
-0.608696
0.616109
0.0358726
-0.0432852
-0.514895
0.523038
0.0520141
-0.0601571
-0.439855
0.447912
0.0688186
-0.076876
-0.375294
0.376737
0.0846706
-0.0861137
-0.257328
0.222474
0.0748222
-0.0399673
-0.0685244
0.0587006
0.0098238
-0.0517984
0.0583773
-0.374133
0.367554
-0.0574577
0.0537026
-0.453599
0.457354
-0.0486099
0.0446547
-0.527952
0.531908
-0.0408115
0.0371694
-0.62157
0.625212
-0.0330637
0.0289839
-0.735356
0.739435
-0.0244086
0.0202445
-0.874347
0.878512
-0.0158932
0.0121945
-1.0435
1.0472
-0.00845188
0.00527506
-1.24857
1.25174
-0.00194367
-0.00113197
-1.49666
1.49974
0.00418123
-0.00744898
-1.4972
1.50047
0.0105288
-0.0141274
-1.25006
1.25366
0.0176722
-0.0218507
-1.04592
1.0501
0.0258717
-0.0303083
-0.877753
0.882189
0.0342758
-0.0382698
-0.739893
0.743887
0.0418168
-0.0455618
-0.626766
0.630512
0.0494328
-0.0544451
-0.534804
0.539817
0.0581109
-0.0589189
-0.457468
0.458276
0.0522075
-0.0319977
-0.335741
0.315531
0.00989024
-0.0683376
0.0584474
-0.0529526
0.0489604
0.00399223
-0.0331395
0.0436747
-0.358128
0.347593
-0.0473647
0.0467314
-0.459297
0.459931
-0.04367
0.0403124
-0.535815
0.539172
-0.0365343
0.033225
-0.628543
0.631852
-0.0297808
0.0267427
-0.742664
0.745702
-0.0234765
0.0203627
-0.882036
0.885149
-0.0168244
0.0134378
-1.05079
1.05418
-0.00963717
0.00609256
-1.25518
1.25873
-0.00211788
-0.00168303
-1.50325
1.50705
0.00545099
-0.00932609
-1.50413
1.508
0.0127321
-0.0163331
-1.25741
1.26101
0.0195066
-0.022804
-1.0539
1.0572
0.0257141
-0.0287788
-0.88567
0.888735
0.0316512
-0.0349297
-0.747139
0.750418
0.0380989
-0.0417349
-0.63429
0.637926
0.0449709
-0.047893
-0.54412
0.547042
0.048379
-0.0444815
-0.456554
0.452657
0.033698
-0.0162337
-0.296153
0.278689
0.00407528
-0.0526241
0.0485488
-0.0458866
0.0433956
0.00249107
-0.0227754
0.0331381
-0.336917
0.326554
-0.0389452
0.0399524
-0.459623
0.458616
-0.0387535
0.0364603
-0.541898
0.544191
-0.0337853
0.031182
-0.634911
0.637514
-0.02811
0.025202
-0.748756
0.751664
-0.021927
0.0189234
-0.888111
0.891114
-0.0156074
0.0124983
-1.05732
1.06042
-0.00896236
0.00554564
-1.26219
1.26561
-0.00157564
-0.00231297
-1.51093
1.51482
0.00615721
-0.00999394
-1.51189
1.51573
0.0132271
-0.0165012
-1.26444
1.26771
0.0193316
-0.0223319
-1.0603
1.0633
0.025065
-0.028069
-0.891774
0.894778
0.0307512
-0.0335959
-0.753614
0.756459
0.036007
-0.0384895
-0.640982
0.643465
0.0406187
-0.0416005
-0.548836
0.549818
0.040365
-0.0342236
-0.447361
0.441219
0.0234944
-0.0102543
-0.26345
0.25021
0.00259387
-0.0453805
0.0427866
-0.0413257
0.0395642
0.00176145
-0.0167055
0.0259337
-0.316721
0.307493
-0.0325171
0.0346416
-0.457029
0.454904
-0.0342081
0.0325279
-0.546177
0.547858
-0.0303371
0.0282323
-0.639829
0.641934
-0.0257894
0.0233802
-0.754319
0.756728
-0.0205078
0.017705
-0.89402
0.896823
-0.0144537
0.011371
-1.06348
1.06656
-0.00786706
0.00453033
-1.26894
1.27227
-0.000688156
-0.00305098
-1.51862
1.52235
0.00673339
-0.0104051
-1.51945
1.52312
0.0135072
-0.0166777
-1.27096
1.27413
0.0194057
-0.0222541
-1.06632
1.06917
0.0247089
-0.0272303
-0.897573
0.900095
0.0293467
-0.0314957
-0.758896
0.761045
0.0333541
-0.0352966
-0.645607
0.647549
0.0367381
-0.0368766
-0.55032
0.550458
0.0344014
-0.0273275
-0.434528
0.427454
0.0176043
-0.00743068
-0.238651
0.228477
0.00188713
-0.0406008
0.0387137
-0.0380486
0.0367265
0.00132211
-0.0127329
0.020647
-0.298928
0.291014
-0.0273645
0.0302633
-0.452365
0.449466
-0.0304487
0.0293135
-0.549301
0.550437
-0.0273072
0.0253773
-0.643982
0.645912
-0.0231614
0.0210079
-0.75898
0.761134
-0.0184733
0.0159709
-0.899411
0.901913
-0.013007
0.010108
-1.06952
1.07241
-0.00672558
0.00346762
-1.27554
1.2788
0.000293908
-0.00393166
-1.52601
1.52965
0.00749815
-0.0110447
-1.52671
1.53025
0.0140076
-0.0169721
-1.27725
1.28021
0.0194279
-0.0218883
-1.0719
1.07436
0.0239548
-0.0260474
-0.902359
0.904451
0.0278307
-0.0296738
-0.763011
0.764855
0.031292
-0.0329956
-0.649354
0.651058
0.033783
-0.0331839
-0.550226
0.549627
0.0297825
-0.022392
-0.420161
0.41277
0.0138408
-0.00577293
-0.219455
0.211387
0.00147512
-0.0370568
0.0355817
-0.0355737
0.0345583
0.00101546
-0.00992226
0.0165954
-0.283747
0.277074
-0.023033
0.0263717
-0.44633
0.442991
-0.0271246
0.026404
-0.551361
0.552081
-0.0246262
0.0228243
-0.647825
0.649627
-0.0207327
0.018694
-0.763224
0.765263
-0.0162955
0.0139419
-0.904269
0.906623
-0.0111736
0.00846159
-1.07515
1.07786
-0.00527558
0.00216728
-1.28195
1.28506
0.00146377
-0.00498998
-1.53321
1.53674
0.00842773
-0.0117916
-1.53369
1.53705
0.0145347
-0.0172049
-1.28307
1.28574
0.0193709
-0.0215189
-1.07673
1.07888
0.0233337
-0.0251843
-0.9064
0.908251
0.0267635
-0.0283926
-0.766581
0.76821
0.0298076
-0.0311646
-0.652619
0.653976
0.0314539
-0.0301135
-0.548664
0.547323
0.0260812
-0.0187561
-0.405382
0.398057
0.0112811
-0.00467804
-0.204119
0.197515
0.00120164
-0.0342573
0.0330557
-0.0336694
0.0328825
0.000786845
-0.00783253
0.0134217
-0.270974
0.265385
-0.019359
0.0228808
-0.439554
0.436033
-0.0240987
0.0236187
-0.55272
0.5532
-0.0221011
0.0204036
-0.651431
0.653129
-0.0184005
0.0164408
-0.767255
0.769215
-0.0141264
0.0118533
-0.908867
0.91114
-0.0091806
0.00657225
-1.08044
1.08305
-0.00352098
0.000550675
-1.28804
1.29101
0.0029139
-0.00626988
-1.54015
1.54351
0.0095174
-0.0126546
-1.54027
1.5434
0.0151782
-0.0175991
-1.28832
1.29074
0.01954
-0.0214541
-1.081
1.08291
0.0230663
-0.0247066
-0.909979
0.91162
0.0261014
-0.0275352
-0.76973
0.771164
0.0287484
-0.0297157
-0.655138
0.656106
0.029627
-0.0276078
-0.545632
0.543613
0.0231585
-0.0160812
-0.390845
0.383767
0.00949481
-0.00392507
-0.191475
0.185906
0.00101324
-0.0319583
0.0309451
-0.0321948
0.0315861
0.000608712
-0.00621343
0.010874
-0.26029
0.255629
-0.0162045
0.0197108
-0.432522
0.429016
-0.0212377
0.020975
-0.553614
0.553877
-0.019681
0.0180375
-0.654853
0.656497
-0.0160831
0.0141653
-0.771142
0.77306
-0.0119009
0.00967779
-0.913307
0.91553
-0.00706445
0.00451829
-1.08555
1.0881
-0.00154923
-0.00132291
-1.29388
1.29675
0.00464372
-0.00782873
-1.54674
1.54992
0.0108812
-0.0138022
-1.54639
1.54931
0.0161296
-0.0183308
-1.2931
1.2953
0.020065
-0.021756
-1.08483
1.08652
0.0231734
-0.0246128
-0.913135
0.914574
0.0258372
-0.027092
-0.772495
0.77375
0.0281621
-0.028708
-0.656871
0.657417
0.0282226
-0.0256241
-0.541296
0.538697
0.0209068
-0.0141358
-0.376846
0.370075
0.00824318
-0.00340474
-0.180736
0.175898
0.000883786
-0.0300046
0.0291208
-0.0310591
0.0305956
0.00046348
-0.00490335
0.00876005
-0.2514
0.247543
-0.0134381
0.016779
-0.425606
0.422265
-0.0184731
0.0183905
-0.554102
0.554184
-0.0172797
0.0156648
-0.658199
0.659814
-0.0137237
0.0118116
-0.774957
0.776869
-0.00955508
0.00734615
-0.917652
0.919861
-0.00475909
0.00224861
-1.09054
1.09305
0.000665465
-0.0034667
-1.29953
1.30233
0.00667811
-0.00972457
-1.55299
1.55604
0.0126102
-0.0153364
-1.55208
1.5548
0.0174773
-0.0194608
-1.29746
1.29944
0.0209878
-0.0224582
-1.08823
1.0897
0.0236896
-0.0249439
-0.91589
0.917144
0.0260155
-0.0271084
-0.774906
0.775999
0.0279685
-0.0281449
-0.657764
0.65794
0.0272316
-0.0241286
-0.535841
0.532738
0.0192332
-0.0127533
-0.363462
0.356982
0.00737983
-0.00305252
-0.171344
0.167016
0.00079777
-0.0282872
0.0274894
-0.0302024
0.0298627
0.000339693
-0.00379882
0.00694586
-0.244069
0.240922
-0.0109582
0.014022
-0.419086
0.416022
-0.0157545
0.0158132
-0.55426
0.554201
-0.014773
0.0132205
-0.66148
0.663033
-0.0112629
0.00932194
-0.77877
0.780711
-0.00703259
0.00480018
-0.921975
0.924207
-0.00219921
-0.000309793
-1.09546
1.09797
0.00320268
-0.00596203
-1.30504
1.3078
0.00909551
-0.0120316
-1.55898
1.56192
0.0147729
-0.0173189
-1.55737
1.55992
0.0192799
-0.021048
-1.30139
1.30316
0.02237
-0.0236245
-1.09121
1.09246
0.0246763
-0.0257528
-0.918272
0.919348
0.0266786
-0.0276106
-0.776981
0.777913
0.0282087
-0.0280826
-0.657966
0.65784
0.0266952
-0.0231204
-0.529401
0.525826
0.0180816
-0.0118296
-0.350636
0.344384
0.00681921
-0.00283088
-0.162884
0.158895
0.000745923
-0.0267242
0.0259783
-0.0295863
0.029358
0.000228287
-0.00282341
0.00532626
-0.238123
0.23562
-0.00867126
0.0113734
-0.413169
0.410467
-0.0130282
0.0131523
-0.554185
0.554061
-0.0121429
0.0106199
-0.664664
0.666187
-0.00862026
0.00661913
-0.782647
0.784648
-0.00425911
0.00196657
-0.926347
0.928639
0.000690587
-0.0032374
-1.10039
1.10293
0.0061513
-0.00890446
-1.31048
1.31324
0.0119942
-0.0148461
-1.56475
1.56761
0.0174627
-0.0198436
-1.56231
1.56469
0.0216348
-0.0231927
-1.3049
1.30646
0.0243078
-0.025342
-1.09379
1.09482
0.0262083
-0.0270968
-0.92029
0.921179
0.0278636
-0.0286284
-0.77868
0.779445
0.0289417
-0.0284735
-0.65758
0.657112
0.0266194
-0.0225916
-0.522047
0.518019
0.0174036
-0.0112878
-0.338226
0.33211
0.00650116
-0.00271256
-0.15503
0.151241
0.000721
-0.0252511
0.0245301
-0.0291902
0.0290686
0.000121566
-0.00191287
0.00380744
-0.233446
0.231552
-0.00647797
0.00874645
-0.408017
0.405749
-0.0102142
0.0103237
-0.554038
0.553929
-0.00930892
0.00777421
-0.667826
0.66936
-0.00570164
0.00360747
-0.786646
0.78874
-0.0011375
-0.00125262
-0.930839
0.93323
0.0040084
-0.00663226
-1.1054
1.10802
0.00960957
-0.012393
-1.31592
1.3187
0.015474
-0.0182675
-1.57037
1.57316
0.0207774
-0.0230045
-1.5669
1.56913
0.0246315
-0.0259789
-1.30801
1.30936
0.0268858
-0.0276953
-1.09595
1.09676
0.0283671
-0.0290577
-0.921926
0.922617
0.0296677
-0.0302858
-0.78003
0.780648
0.0302389
-0.0293568
-0.656466
0.655584
0.0270151
-0.0225265
-0.513798
0.50931
0.017153
-0.0110691
-0.326041
0.319957
0.00638211
-0.00267823
-0.147517
0.143813
0.000717964
-0.0238169
0.023099
-0.0290079
0.0289945
1.34086e-05
-0.00101835
0.00231626
-0.229978
0.22868
-0.00429573
0.00606488
-0.403771
0.402002
-0.00724123
0.00725305
-0.553986
0.553975
-0.00618363
0.00459561
-0.671051
0.672639
-0.0024074
0.00018349
-0.790832
0.793056
0.00243992
-0.00496901
-0.935529
0.938058
0.00786983
-0.0106134
-1.11057
1.11332
0.0136998
-0.0165526
-1.32143
1.32428
0.0196627
-0.0224259
-1.57587
1.57863
0.024848
-0.026932
-1.57117
1.57326
0.0283988
-0.0295374
-1.31071
1.31184
0.0302345
-0.0308167
-1.09768
1.09827
0.0312874
-0.0317668
-0.92316
0.92364
0.0321915
-0.0325419
-0.780997
0.781347
0.0321932
-0.0308164
-0.654517
0.65314
0.0279454
-0.0229512
-0.504619
0.499624
0.0173218
-0.0111481
-0.313864
0.30769
0.00644142
-0.00271847
-0.140122
0.136399
0.000734362
-0.0223792
0.0216448
-0.0290414
0.0291405
-9.90593e-05
-8.88845e-05
0.000781889
-0.227704
0.227011
-0.00204037
0.00324368
-0.40056
0.399357
-0.00402684
0.00385562
-0.554207
0.554378
-0.00267212
0.00097122
-0.674433
0.676134
0.00137219
-0.00376992
-0.795278
0.797675
0.00659699
-0.00931196
-0.940497
0.943212
0.0124101
-0.0153205
-1.11599
1.1189
0.0185656
-0.0215293
-1.32708
1.33005
0.0247085
-0.027471
-1.58131
1.58408
0.0298251
-0.0317739
-1.57515
1.5771
0.0330807
-0.0340103
-1.31298
1.31391
0.0344938
-0.0348377
-1.09896
1.09931
0.0350973
-0.0353562
-0.923961
0.92422
0.0355719
-0.0355827
-0.781389
0.7814
0.0348907
-0.0329349
-0.651561
0.649605
0.0294663
-0.0238885
-0.494405
0.488827
0.0179054
-0.0115072
-0.301445
0.295047
0.00666369
-0.00282547
-0.132641
0.128803
0.000767802
-0.0209003
0.0201325
-0.0293106
0.0295445
-0.000233853
0.00087465
-0.000850064
-0.226654
0.226629
0.000371592
0.000189482
-0.398517
0.397956
-0.000475255
2.94302e-05
-0.554886
0.555332
0.00134016
-0.00321467
-0.678093
0.679968
0.0057732
-0.00839664
-0.800069
0.802693
0.011486
-0.0144416
-0.94584
0.948796
0.017797
-0.0209281
-1.12176
1.12489
0.0243873
-0.0275071
-1.33297
1.33609
0.0307951
-0.0335807
-1.58676
1.58955
0.0358769
-0.0376957
-1.57883
1.58065
0.0388437
-0.0395618
-1.31481
1.31552
0.0398227
-0.0399093
-1.09976
1.09985
0.0399388
-0.0399616
-0.924299
0.924322
0.0399865
-0.0395548
-0.781095
0.780663
0.0384307
-0.0357987
-0.647443
0.644811
0.0316371
-0.0253625
-0.482982
0.476708
0.0189014
-0.0121316
-0.288508
0.281738
0.00703499
-0.00299146
-0.124885
0.120841
0.000815711
-0.0193471
0.0185314
-0.0298493
0.0302294
-0.000380125
0.00196539
-0.0025689
-0.226922
0.227525
0.00296033
-0.00316478
-0.397787
0.397992
0.00353149
-0.00436355
-0.55625
0.557082
0.00598362
-0.00810244
-0.682161
0.68428
0.010952
-0.0138686
-0.80531
0.808226
0.0172907
-0.0205501
-0.95167
0.95493
0.0242314
-0.0276428
-1.12798
1.13139
0.0313761
-0.0346992
-1.33919
1.34251
0.0381369
-0.0409694
-1.59226
1.59509
0.043213
-0.0448906
-1.58222
1.5839
0.0458652
-0.046373
-1.31617
1.31668
0.0464055
-0.0462153
-1.10003
1.09984
0.0459974
-0.045771
-0.924121
0.923894
0.0455633
-0.0446198
-0.779928
0.778985
0.0429632
-0.0395187
-0.64197
0.638526
0.034528
-0.0274003
-0.470108
0.46298
0.0203092
-0.0130075
-0.274752
0.26745
0.00754125
-0.00320817
-0.116676
0.112343
0.000875233
-0.0176922
0.016817
-0.0306866
0.031246
-0.000559352
0.00325631
-0.00465402
-0.228563
0.229961
0.00596679
-0.00698008
-0.398581
0.399594
0.00809906
-0.00943764
-0.558533
0.559872
0.0114417
-0.013887
-0.686779
0.689224
0.0171151
-0.0204013
-0.811132
0.814418
0.0242388
-0.0278774
-0.958119
0.961757
0.031964
-0.0357229
-1.13477
1.13853
0.0397946
-0.0433683
-1.34581
1.34939
0.0469919
-0.0498879
-1.59785
1.60075
0.0520783
-0.053599
-1.58529
1.58681
0.0543884
-0.0546704
-1.31705
1.31733
0.0544551
-0.0539681
-1.09973
1.09924
0.0534902
-0.0529882
-0.923393
0.922891
0.052393
-0.0509704
-0.777828
0.776405
0.0486144
-0.0441903
-0.63486
0.630436
0.0381956
-0.0300155
-0.455449
0.447268
0.0221154
-0.0141103
-0.259852
0.251847
0.00816062
-0.00346312
-0.10785
0.103153
0.000942107
-0.0159142
0.0149721
-0.0318926
0.0326815
-0.000788888
0.00481079
-0.00713064
-0.231815
0.234135
0.00951904
-0.0114647
-0.401104
0.40305
0.0134606
-0.015429
-0.561978
0.563947
0.017953
-0.0208214
-0.692116
0.694984
0.0245438
-0.0282893
-0.817694
0.82144
0.0326403
-0.0367443
-0.96534
0.969444
0.0413239
-0.0455004
-1.14228
1.14645
0.0499729
-0.0538364
-1.35294
1.35681
0.0576668
-0.0606233
-1.60356
1.60652
0.0627418
-0.0640805
-1.58802
1.58936
0.0646509
-0.0646804
-1.31735
1.31738
0.0641966
-0.0633852
-1.09882
1.09801
0.062629
-0.0618556
-0.92206
0.921287
0.0607669
-0.0587568
-0.774813
0.772803
0.0555496
-0.0499126
-0.625745
0.620108
0.0426783
-0.0331928
-0.438583
0.429098
0.0242777
-0.0153923
-0.24346
0.234574
0.00885558
-0.0037364
-0.0982648
0.0931456
0.00100985
-0.0140011
0.0129912
-0.0335589
0.0346506
-0.00109173
0.00677433
-0.0101914
-0.236921
0.240338
0.0138501
-0.0168791
-0.405647
0.408676
0.0198837
-0.0226086
-0.566877
0.569602
0.0258062
-0.0292341
-0.698389
0.701817
0.0335916
-0.0379154
-0.825184
0.829508
0.042898
-0.0475648
-0.973509
0.978176
0.0527308
-0.0573926
-1.15063
1.15529
0.0623154
-0.0664889
-1.36065
1.36482
0.0705192
-0.0735058
-1.60937
1.61235
0.0755082
-0.0766156
-1.59034
1.59145
0.0769223
-0.0766468
-1.31698
1.3167
0.0758825
-0.0747114
-1.09723
1.09606
0.0736669
-0.0725986
-0.920133
0.919065
0.070946
-0.068195
-0.770671
0.76792
0.0638991
-0.0567235
-0.61414
0.606964
0.0479434
-0.0368488
-0.418988
0.407894
0.0266964
-0.016765
-0.225228
0.215296
0.00956348
-0.00399716
-0.0878196
0.0822532
0.00106903
-0.0119555
0.0108865
-0.03582
0.0373267
-0.00150676
0.00935099
-0.0141324
-0.244224
0.249005
0.0192994
-0.0235793
-0.412569
0.416849
0.0277514
-0.0313879
-0.573558
0.577194
0.035442
-0.0396066
-0.705886
0.710051
0.0447721
-0.0498195
-0.833835
0.838883
0.0555727
-0.0609076
-0.982827
0.988162
0.0667469
-0.071942
-1.15995
1.16515
0.0773298
-0.0817904
-1.36895
1.37341
0.0859575
-0.0888866
-1.61518
1.61811
0.0906778
-0.0914616
-1.59212
1.59291
0.0914511
-0.0908677
-1.31585
1.31526
0.089744
-0.0881926
-1.09492
1.09337
0.0868505
-0.0853088
-0.917486
0.915944
0.0831466
-0.0793758
-0.765025
0.761254
0.0736903
-0.0645607
-0.599372
0.590242
0.0538526
-0.0407988
-0.396043
0.382989
0.0291886
-0.0180841
-0.204841
0.193736
0.0101901
-0.00420234
-0.0764866
0.0704989
0.00110734
-0.00980004
0.0086927
-0.0388811
0.0409883
-0.00210724
0.0128996
-0.019427
-0.254225
0.260752
0.0264097
-0.0321473
-0.422359
0.428097
0.0376899
-0.0424394
-0.582408
0.587157
0.0475562
-0.0526649
-0.714978
0.720087
0.0588828
-0.0648266
-0.843936
0.84988
0.0714873
-0.0775709
-0.993498
0.999581
0.0841227
-0.0898378
-1.17032
1.17603
0.0956232
-0.100267
-1.37776
1.3824
0.104423
-0.107139
-1.62079
1.6235
0.108569
-0.108889
-1.59316
1.59348
0.10847
-0.10746
-1.31391
1.3129
0.105961
-0.104035
-1.09185
1.08992
0.102388
-0.100291
-0.913757
0.91166
0.0975162
-0.092375
-0.757291
0.75215
0.0848443
-0.0731985
-0.580567
0.568921
0.060093
-0.0447063
-0.369051
0.353665
0.0314581
-0.0191388
-0.182086
0.169766
0.0106079
-0.00429795
-0.0643518
0.0580419
0.00111042
-0.00758291
0.00647248
-0.0430787
0.0461115
-0.0030328
0.0180577
-0.0268767
-0.26767
0.276489
0.0360862
-0.0435741
-0.435702
0.44319
0.0507405
-0.0568273
-0.593935
0.600021
0.0633558
-0.0697685
-0.726102
0.732515
0.0772331
-0.0841792
-0.855798
0.862744
0.0918063
-0.0986304
-1.00565
1.01248
0.105812
-0.111911
-1.18165
1.18775
0.117887
-0.122494
-1.38681
1.39142
0.126373
-0.12863
-1.62584
1.6281
0.129479
-0.129146
-1.59316
1.59282
0.128174
-0.126626
-1.31096
1.30941
0.124749
-0.122409
-1.08796
1.08561
0.120326
-0.117694
-0.908748
0.906116
0.113966
-0.106974
-0.746702
0.73971
0.0969984
-0.0821377
-0.556565
0.541705
0.0661031
-0.0480435
-0.337311
0.319251
0.0330842
-0.01966
-0.156956
0.143532
0.0106686
-0.00422687
-0.0516585
0.0452168
0.00106445
-0.0053801
0.00431566
-0.0490011
0.0535955
-0.00459441
0.0260391
-0.03795
-0.285742
0.297652
0.0500349
-0.0598736
-0.45368
0.463519
0.0690901
-0.0767895
-0.608713
0.616412
0.0850242
-0.0929659
-0.739738
0.74768
0.101767
-0.109684
-0.869629
0.877546
0.118132
-0.125472
-1.01919
1.02653
0.132955
-0.139089
-1.19357
1.1997
0.144844
-0.149027
-1.39558
1.39977
0.152211
-0.153655
-1.62979
1.63123
0.153627
-0.152402
-1.59172
1.59049
0.150713
-0.148537
-1.30678
1.3046
0.146221
-0.143406
-1.08311
1.08029
0.140855
-0.137532
-0.902346
0.899022
0.132378
-0.12271
-0.732136
0.722467
0.109434
-0.0905162
-0.525913
0.506995
0.0710227
-0.050102
-0.300265
0.279345
0.0335654
-0.0193695
-0.129805
0.115609
0.0102368
-0.00394324
-0.038838
0.0325444
0.000958278
-0.00329098
0.0023327
-0.0577659
0.0656014
-0.00783554
0.0400066
-0.056476
-0.310633
0.327102
0.0726111
-0.0855965
-0.477906
0.490891
0.0969584
-0.106201
-0.627257
0.6365
0.116118
-0.125464
-0.756135
0.765481
0.135333
-0.143761
-0.885172
0.8936
0.152395
-0.159618
-1.03347
1.0407
0.166718
-0.172256
-1.20524
1.21078
0.177148
-0.180324
-1.4032
1.40638
0.182262
-0.182427
-1.63185
1.63202
0.18114
-0.178736
-1.58834
1.58593
0.176133
-0.173197
-1.30111
1.29818
0.170367
-0.167003
-1.07714
1.07377
0.163849
-0.159399
-0.893975
0.889526
0.152087
-0.138543
-0.711798
0.698254
0.120784
-0.0969457
-0.486815
0.462978
0.0737498
-0.0501843
-0.257802
0.234237
0.032527
-0.0181358
-0.101507
0.0871154
0.00927292
-0.00343837
-0.0264958
0.0206612
0.000785511
-0.00142495
0.000639441
-0.0728757
0.0772887
-0.00441298
0.0306554
-0.0450945
-0.346364
0.360803
0.0595814
-0.0715556
-0.509705
0.521679
0.0824704
-0.0928512
-0.649377
0.659758
0.104692
-0.115626
-0.774162
0.785096
0.127848
-0.138782
-0.901016
0.911949
0.150553
-0.161159
-1.04703
1.05764
0.17247
-0.182402
-1.2153
1.22523
0.192637
-0.201199
-1.40847
1.41704
0.209438
-0.215598
-1.63109
1.63725
0.219701
-0.222426
-1.5824
1.58512
0.223849
-0.224853
-1.29366
1.29466
0.225541
-0.225032
-1.06961
1.0691
0.223527
-0.218436
-0.882271
0.877181
0.207012
-0.184992
-0.683087
0.661067
0.156383
-0.120203
-0.437732
0.401552
0.0875691
-0.0566143
-0.210712
0.179757
0.0350974
-0.0186999
-0.0735527
0.0571553
0.00910781
-0.00315789
-0.0153111
0.00936115
0.000641982
0.000159489
-0.000801471
-0.0850276
0.0831235
0.00190412
0.00852782
-0.0180294
-0.37813
0.387632
0.0291439
-0.0379113
-0.538529
0.547296
0.0468576
-0.0555932
-0.672909
0.681644
0.0664059
-0.0766003
-0.795459
0.805653
0.0876091
-0.0977159
-0.922292
0.932399
0.108587
-0.118048
-1.068
1.07746
0.128351
-0.137057
-1.23502
1.24372
0.146049
-0.153383
-1.42538
1.43272
0.160124
-0.165094
-1.64288
1.64785
0.168196
-0.170018
-1.58739
1.58921
0.170474
-0.170567
-1.29417
1.29427
0.17051
-0.169661
-1.06655
1.0657
0.167028
-0.159795
-0.86672
0.859488
0.146675
-0.124953
-0.634792
0.61307
0.100165
-0.0721395
-0.363184
0.335158
0.0496597
-0.0305182
-0.14993
0.130788
0.0181504
-0.00930479
-0.0420449
0.0331993
0.00434372
-0.00143207
-0.00370611
0.000794455
0.000252111
0.0016342
-0.00188631
-0.0867021
0.0837279
0.00297425
-0.000733253
-0.00483864
-0.399916
0.405488
0.0123093
-0.0188724
-0.560162
0.566725
0.0256168
-0.0331502
-0.692988
0.700521
0.0425835
-0.0514606
-0.814777
0.823654
0.0612638
-0.0701141
-0.941682
0.950532
0.0794077
-0.0879082
-1.08678
1.09528
0.0969814
-0.104781
-1.25205
1.25985
0.112436
-0.118585
-1.4395
1.44565
0.124382
-0.128369
-1.65238
1.65637
0.130582
-0.131615
-1.5906
1.59163
0.131488
-0.131106
-1.29332
1.29294
0.130271
-0.128894
-1.0618
1.06043
0.125565
-0.117321
-0.848096
0.839852
0.104291
-0.0847088
-0.58824
0.568658
0.064647
-0.044182
-0.30544
0.284975
0.029513
-0.0179124
-0.111929
0.100328
0.0106491
-0.00552808
-0.0245571
0.0194361
0.00262608
-0.000886372
0.00229214
-0.00403185
0.000165162
0.00233799
-0.00250316
-0.0854771
0.0825888
0.00288834
-0.00483805
0.00197108
-0.414616
0.417483
0.0029478
-0.00796921
-0.576489
0.58151
0.0136884
-0.0200225
-0.709541
0.715875
0.0281319
-0.0357619
-0.831739
0.839369
0.0441539
-0.0517635
-0.958798
0.966408
0.060158
-0.0674228
-1.10333
1.11059
0.0753788
-0.0817755
-1.26724
1.27364
0.0884208
-0.0936987
-1.45162
1.45689
0.0984123
-0.101303
-1.66008
1.66297
0.102945
-0.10354
-1.59227
1.59286
0.103062
-0.101879
-1.29172
1.29054
0.100551
-0.098565
-1.05582
1.05384
0.0947404
-0.0867968
-0.827775
0.819831
0.0748034
-0.0586006
-0.546605
0.530403
0.0434202
-0.0293514
-0.263551
0.249482
0.0197869
-0.012397
-0.0881139
0.080724
0.00767467
-0.00420012
-0.0138222
0.0103477
0.0021133
-0.000765897
0.00611209
-0.00745949
0.000161174
0.00281006
-0.00297123
-0.0839105
0.0812966
0.00261388
-0.0063934
0.00523956
-0.424543
0.425697
-0.00153103
-0.00224951
-0.589614
0.593395
0.00683285
-0.0125218
-0.723457
0.729146
0.019321
-0.0259978
-0.84617
0.852847
0.0332486
-0.0398446
-0.973518
0.980114
0.0470388
-0.0534556
-1.11769
1.12411
0.0601971
-0.0659506
-1.27986
1.28561
0.0716142
-0.0760331
-1.46178
1.4662
0.0798459
-0.0819742
-1.66575
1.66788
0.0829712
-0.0828228
-1.59283
1.59268
0.0819539
-0.0805028
-1.28891
1.28745
0.0787468
-0.0760902
-1.04909
1.04643
0.0722489
-0.0649495
-0.808032
0.800732
0.0548516
-0.0420077
-0.512138
0.499294
0.0309422
-0.0213045
-0.234146
0.224508
0.0148462
-0.00984088
-0.0724695
0.0674642
0.00647559
-0.00377964
-0.00624459
0.00354864
0.00203278
-0.000787849
0.00914794
-0.0103929
0.000187483
0.00323416
-0.00342164
-0.0823449
0.0800518
0.00229314
-0.00664602
0.00611994
-0.431344
0.43187
-0.00388873
0.000824749
-0.599748
0.602812
0.00356028
-0.00839176
-0.735206
0.740038
0.0141885
-0.0199326
-0.85861
0.864355
0.0263037
-0.0321285
-0.986302
0.992127
0.0386042
-0.0441519
-1.13019
1.13574
0.0500819
-0.0551094
-1.29101
1.29604
0.0599314
-0.0635907
-1.47028
1.47394
0.0665597
-0.068336
-1.66989
1.67167
0.0686597
-0.0681088
-1.59207
1.59152
0.0668121
-0.064941
-1.28551
1.28364
0.0630379
-0.0598578
-1.04174
1.03856
0.0559107
-0.0495187
-0.789831
0.783439
0.0412008
-0.03132
-0.484572
0.474691
0.0233735
-0.0167255
-0.213552
0.206904
0.0123632
-0.00878565
-0.0614974
0.0579198
0.00614556
-0.00382825
-0.000226837
-0.00209047
0.00217794
-0.000905511
0.0119241
-0.0131965
0.00023432
0.00366811
-0.00390243
-0.0810198
0.0791686
0.00185123
-0.00606548
0.00601331
-0.436263
0.436316
-0.00423152
0.00195373
-0.608483
0.610761
0.00204824
-0.00636591
-0.74529
0.749607
0.0117617
-0.0166425
-0.86961
0.87449
0.0221491
-0.0272187
-0.99786
1.00293
0.0331956
-0.0380851
-1.14125
1.14614
0.0431873
-0.047689
-1.3008
1.3053
0.0522403
-0.0552808
-1.4775
1.48055
0.0577134
-0.0587748
-1.67294
1.674
0.0588317
-0.0574959
-1.59066
1.58933
0.055957
-0.0538382
-1.28132
1.2792
0.0514409
-0.0481475
-1.03394
1.03064
0.0441433
-0.0383047
-0.773459
0.767621
0.0317478
-0.0241727
-0.46284
0.455265
0.018476
-0.0140105
-0.199005
0.194539
0.0109597
-0.00829687
-0.0534128
0.05075
0.00614972
-0.00405786
0.00498624
-0.00707811
0.0024284
-0.00106996
0.0147209
-0.0160793
0.000300306
0.00416514
-0.00446544
-0.0801249
0.0786251
0.0014998
-0.00520961
0.00542691
-0.439946
0.439729
-0.00388668
0.00180852
-0.615927
0.618005
0.00187139
-0.00568834
-0.75419
0.758007
0.0102353
-0.0148187
-0.87925
0.883833
0.0197785
-0.024829
-1.00773
1.01278
0.029837
-0.0343025
-1.15106
1.15552
0.0392358
-0.0431661
-1.30957
1.3135
0.0467899
-0.049776
-1.48335
1.48634
0.0517636
-0.0524389
-1.67498
1.67565
0.0519063
-0.0503419
-1.58802
1.58646
0.048398
-0.0458185
-1.27645
1.27387
0.0431157
-0.0394589
-1.02604
1.02238
0.0353957
-0.030256
-0.758713
0.753573
0.0246415
-0.0189256
-0.445786
0.44007
0.0149253
-0.0118302
-0.188808
0.185713
0.00970682
-0.00775631
-0.0472217
0.0452712
0.00601785
-0.00417186
0.00965834
-0.0115043
0.00261329
-0.00121084
0.0176223
-0.0190247
0.00036472
0.00476421
-0.00512893
-0.0797242
0.0784276
0.00129664
-0.00407476
0.00415041
-0.443
0.442924
-0.00291517
0.00094697
-0.622568
0.624536
0.00237126
-0.00598009
-0.762293
0.765901
0.0102296
-0.0142785
-0.888147
0.892195
0.0192124
-0.0232847
-1.01716
1.02123
0.0280585
-0.0321269
-1.16007
1.16413
0.0366526
-0.0404611
-1.31728
1.32109
0.0439681
-0.0462636
-1.48892
1.49122
0.0479768
-0.0483557
-1.67605
1.67643
0.0477046
-0.0455802
-1.58453
1.58241
0.0432807
-0.0402437
-1.27106
1.26802
0.0371714
-0.0330565
-1.01753
1.01341
0.0289136
-0.0239471
-0.745367
0.7404
0.0191989
-0.014677
-0.432448
0.427926
0.0116935
-0.00962376
-0.181453
0.179383
0.00814226
-0.00674718
-0.0424831
0.041088
0.00544411
-0.00394327
0.0137308
-0.0152317
0.00256669
-0.00126015
0.0204856
-0.0217921
0.000399849
0.00544276
-0.00584261
-0.0795728
0.0786108
0.000961955
-0.0030173
0.00268177
-0.445927
0.446263
-0.00169173
-0.000263461
-0.628285
0.63024
0.00317562
-0.00657668
-0.769669
0.77307
0.0105473
-0.0146229
-0.896053
0.900129
0.0187873
-0.0228889
-1.02545
1.02955
0.027442
-0.031095
-1.16856
1.17221
0.03546
-0.0389387
-1.32457
1.32805
0.0421171
-0.044529
-1.49377
1.49619
0.046154
-0.046148
-1.67662
1.67662
0.0449652
-0.0427224
-1.58019
1.57794
0.0401909
-0.036658
-1.26449
1.26096
0.033067
-0.0287469
-1.00842
1.0041
0.0239581
-0.0192113
-0.732646
0.727899
0.0149486
-0.0111221
-0.421654
0.417827
0.00883321
-0.0072351
-0.17601
0.174411
0.00620413
-0.00526798
-0.0389408
0.0380046
0.00439124
-0.00331129
0.0170086
-0.0180885
0.002252
-0.00116573
0.0230565
-0.0241427
0.000397364
0.00613171
-0.00652908
-0.0798154
0.0790316
0.000783774
-0.0021027
0.00185129
-0.448911
0.449162
-0.000398047
-0.00134329
-0.633924
0.635665
0.00437393
-0.00758197
-0.776369
0.779577
0.0113101
-0.0148842
-0.903819
0.907393
0.0190679
-0.0227269
-1.03359
1.03725
0.0270709
-0.0310097
-1.17625
1.18019
0.0347778
-0.0383464
-1.33146
1.33503
0.0416286
-0.0437495
-1.49832
1.50044
0.0452239
-0.0453924
-1.6766
1.67677
0.0439569
-0.0415436
-1.57526
1.57284
0.0384745
-0.0345963
-1.25711
1.25323
0.0307191
-0.0258418
-0.998691
0.993814
0.0208702
-0.0159148
-0.720446
0.715491
0.011825
-0.00832371
-0.41212
0.408619
0.00625477
-0.00493746
-0.171661
0.170344
0.00413982
-0.00355658
-0.0363403
0.0357571
0.00305508
-0.00241956
0.0193484
-0.019984
0.00172437
-0.00095016
0.0250851
-0.0258593
0.000347928
0.00675547
-0.0071034
-0.0803553
0.0797486
0.000606711
-0.00105435
0.000654034
-0.451944
0.452344
0.000608297
-0.00261457
-0.639041
0.641047
0.00553808
-0.00854161
-0.782689
0.785693
0.0122883
-0.0156402
-0.910903
0.914255
0.0195719
-0.0232584
-1.04135
1.04503
0.0273808
-0.0311431
-1.18389
1.18766
0.0349552
-0.0383466
-1.33841
1.3418
0.0415339
-0.0440995
-1.5027
1.50527
0.0455639
-0.0454853
-1.67663
1.67655
0.0441047
-0.0412726
-1.57
1.56717
0.0380832
-0.0340234
-1.24894
1.24488
0.029555
-0.0242894
-0.988104
0.982839
0.0190289
-0.0136409
-0.708223
0.702835
0.009573
-0.00612524
-0.403415
0.399968
0.00417613
-0.00288707
-0.167893
0.166604
0.00224417
-0.00189565
-0.0344555
0.0341069
0.00169131
-0.00144506
0.0207803
-0.0210265
0.00110892
-0.000677089
0.0264252
-0.026857
0.000282936
0.00723659
-0.00751953
-0.0811362
0.0806553
0.000480882
-0.000192988
-0.000304526
-0.455073
0.45557
0.00161569
-0.00364035
-0.644145
0.64617