/*--------------------------------*- C++ -*----------------------------------*\
  =========                 |
  \\      /  F ield         | OpenFOAM: The Open Source CFD Toolbox
   \\    /   O peration     | Website:  https://openfoam.org
    \\  /    A nd           | Version:  6
     \\/     M anipulation  |
\*---------------------------------------------------------------------------*/
FoamFile
{
    version     2.0;
    format      ascii;
    class       surfaceScalarField;
    location    "110.3";
    object      phi;
}
// * * * * * * * * * * * * * * * * * * * * * * * * * * * * * * * * * * * * * //

dimensions      [0 3 -1 0 0 0 0];

internalField   nonuniform List<scalar> 
17370
(
-0.0899999
0.0898488
0.289162
-0.0714622
0.0537523
0.364485
-0.0381192
0.0276901
0.426597
-0.0196386
0.0146061
0.504284
-0.0107649
0.00827539
0.601892
-0.00627648
0.00490032
0.720434
-0.00373621
0.00289507
0.863748
-0.00215274
0.00159285
1.03601
-0.00107551
0.000662367
1.24292
-0.000254084
-0.00014544
1.49159
0.000526086
-0.000936561
1.4916
0.00133168
-0.00181286
1.24317
0.00233362
-0.0030374
1.03634
0.00385287
-0.00499929
0.864053
0.00636664
-0.0083604
0.721051
0.0108462
-0.0146827
0.603051
0.0197097
-0.027754
0.507484
0.0381753
-0.0537997
0.431793
0.0715014
-0.0898754
0.36515
0.0900164
0.198994
-0.128139
0.0882312
0.0399077
-0.364601
0.353384
-0.0746668
0.0858842
-0.446478
0.454324
-0.0843792
0.0765332
-0.521192
0.529905
-0.068435
0.0597224
-0.612791
0.621572
-0.0515326
0.0427523
-0.726897
0.734168
-0.0352906
0.0280197
-0.867477
0.872597
-0.0224166
0.0172974
-1.03848
1.04193
-0.0134837
0.0100297
-1.2446
1.24704
-0.00741535
0.00497875
-1.49262
1.49461
-0.00302628
0.00103903
-1.49251
1.49423
0.00063266
-0.00235679
-1.24397
1.24585
0.00426759
-0.0061506
-1.03751
1.04002
0.00849316
-0.0110072
-0.866096
0.869825
0.0143541
-0.0180833
-0.724388
0.72993
0.0231244
-0.0286669
-0.608696
0.616108
0.0358796
-0.0432917
-0.514894
0.523037
0.0520202
-0.0601628
-0.439854
0.447911
0.0688237
-0.0768807
-0.375293
0.376736
0.084674
-0.0861166
-0.257327
0.222471
0.074824
-0.0399679
-0.0685276
0.0587047
0.00982291
-0.0517926
0.0583695
-0.374136
0.367559
-0.0574487
0.0536927
-0.453601
0.457357
-0.0485998
0.0446445
-0.527955
0.531911
-0.0408014
0.0371593
-0.621573
0.625215
-0.0330532
0.0289722
-0.735359
0.73944
-0.0243946
0.0202278
-0.874351
0.878517
-0.0158735
0.0121721
-1.0435
1.0472
-0.00842697
0.00524805
-1.24857
1.25175
-0.00191441
-0.00116434
-1.49666
1.49974
0.00421668
-0.00748556
-1.4972
1.50047
0.0105608
-0.0141486
-1.25006
1.25365
0.0176874
-0.0218668
-1.04591
1.05009
0.0258896
-0.0303267
-0.877748
0.882185
0.0342934
-0.0382861
-0.739889
0.743882
0.0418318
-0.0455756
-0.626763
0.630507
0.0494456
-0.0544572
-0.534802
0.539813
0.0581216
-0.0589279
-0.457466
0.458272
0.0522141
-0.0320011
-0.335736
0.315523
0.00989128
-0.0683341
0.0584429
-0.0529581
0.0489671
0.00399104
-0.0331309
0.0436624
-0.358137
0.347605
-0.0473498
0.046715
-0.459303
0.459938
-0.0436526
0.0402945
-0.535821
0.539179
-0.0365161
0.0332062
-0.62855
0.63186
-0.0297608
0.0267205
-0.742672
0.745712
-0.0234508
0.0203332
-0.882043
0.885161
-0.0167907
0.0134007
-1.0508
1.05419
-0.00959665
0.00604935
-1.25519
1.25874
-0.00207163
-0.00173283
-1.50325
1.50705
0.00550468
-0.00938114
-1.50413
1.508
0.0127815
-0.0163697
-1.2574
1.26099
0.0195362
-0.0228346
-1.05389
1.05719
0.0257462
-0.0288104
-0.885661
0.888725
0.0316811
-0.0349573
-0.747132
0.750408
0.0381243
-0.0417583
-0.634282
0.637916
0.0449927
-0.047913
-0.544114
0.547034
0.0483967
-0.0444959
-0.456546
0.452645
0.0337081
-0.0162385
-0.29614
0.278671
0.00407669
-0.0526181
0.0485414
-0.045895
0.0434055
0.00248956
-0.0227641
0.0331211
-0.336935
0.326578
-0.0389236
0.0399281
-0.459634
0.45863
-0.0387273
0.036433
-0.541908
0.544203
-0.0337573
0.0311529
-0.634923
0.637528
-0.0280788
0.0251674
-0.748769
0.75168
-0.0218875
0.018879
-0.888124
0.891133
-0.0155574
0.0124436
-1.05733
1.06044
-0.00890309
0.0054826
-1.2622
1.26562
-0.00150862
-0.00238422
-1.51094
1.51483
0.00623289
-0.010071
-1.51188
1.51572
0.0132968
-0.0165552
-1.26443
1.26769
0.0193775
-0.0223789
-1.06028
1.06328
0.0251134
-0.0281161
-0.891758
0.894761
0.0307958
-0.033637
-0.7536
0.756441
0.036045
-0.0385246
-0.640969
0.643449
0.0406516
-0.0416301
-0.548824
0.549802
0.040391
-0.0342438
-0.447344
0.441197
0.0235078
-0.0102605
-0.263425
0.250178
0.00259569
-0.0453713
0.0427756
-0.0413378
0.0395782
0.00175959
-0.0166912
0.0259115
-0.316753
0.307533
-0.0324877
0.0346077
-0.457049
0.454929
-0.0341711
0.0324891
-0.546194
0.547876
-0.0302972
0.0281906
-0.639849
0.641955
-0.0257445
0.0233308
-0.75434
0.756753
-0.020452
0.0176428
-0.894042
0.896851
-0.0143845
0.0112959
-1.0635
1.06659
-0.00778593
0.00444424
-1.26895
1.2723
-0.000596826
-0.00314767
-1.51862
1.52237
0.00683545
-0.0105088
-1.51944
1.52311
0.0136017
-0.016753
-1.27094
1.27409
0.0194716
-0.0223214
-1.0663
1.06915
0.0247774
-0.0272967
-0.897548
0.900068
0.0294094
-0.0315539
-0.758873
0.761018
0.0334081
-0.0353467
-0.645586
0.647525
0.0367846
-0.0369186
-0.550299
0.550433
0.0344374
-0.0273544
-0.434497
0.427414
0.0176216
-0.00743868
-0.23861
0.228427
0.00188944
-0.0405875
0.038698
-0.0380652
0.0367453
0.00131986
-0.0127152
0.020619
-0.298978
0.291074
-0.0273263
0.0302182
-0.452398
0.449506
-0.030399
0.0292607
-0.549327
0.550465
-0.0272528
0.0253205
-0.644011
0.645943
-0.0231
0.0209406
-0.759011
0.761171
-0.0183978
0.0158874
-0.899444
0.901954
-0.0129149
0.0100084
-1.06955
1.07245
-0.00661851
0.00335439
-1.27557
1.27883
0.000413519
-0.00405767
-1.52602
1.52966
0.00763058
-0.011179
-1.52669
1.53024
0.0141307
-0.0170727
-1.27723
1.28017
0.019518
-0.0219805
-1.07186
1.07432
0.0240482
-0.0261376
-0.902322
0.904412
0.0279159
-0.0297531
-0.762978
0.764815
0.0313661
-0.0330651
-0.649325
0.651024
0.0338468
-0.033241
-0.550194
0.549588
0.0298304
-0.0224268
-0.420109
0.412705
0.0138628
-0.005783
-0.219394
0.211315
0.00147801
-0.0370383
0.0355603
-0.0355957
0.034583
0.00101273
-0.00990063
0.0165608
-0.283821
0.277161
-0.0229847
0.0263134
-0.446382
0.443053
-0.0270596
0.0263349
-0.551399
0.552123
-0.0245543
0.022749
-0.647865
0.64967
-0.0206514
0.0186049
-0.763268
0.765315
-0.016196
0.0138326
-0.904316
0.90668
-0.0110535
0.00833211
-1.07519
1.07792
-0.00513669
0.00202056
-1.28198
1.2851
0.0016185
-0.00515247
-1.53322
1.53676
0.00859795
-0.011964
-1.53367
1.53703
0.0146935
-0.0173371
-1.28304
1.28568
0.0194917
-0.0216429
-1.07668
1.07883
0.0234587
-0.0253049
-0.906349
0.908195
0.0268778
-0.0284993
-0.766534
0.768156
0.0299078
-0.031258
-0.652578
0.653928
0.0315403
-0.0301895
-0.548614
0.547264
0.0261437
-0.0188006
-0.405301
0.397958
0.0113089
-0.00469063
-0.204032
0.197413
0.00120524
-0.0342325
0.0330272
-0.0336978
0.0329143
0.000783541
-0.00780626
0.0133793
-0.271077
0.265504
-0.0192989
0.0228072
-0.439632
0.436123
-0.0240155
0.0235298
-0.552773
0.553259
-0.0220081
0.020306
-0.651485
0.653187
-0.0182949
0.0163254
-0.767315
0.769284
-0.0139983
0.011713
-0.908931
0.911216
-0.00902709
0.00640724
-1.08051
1.08313
-0.00334416
0.0003639
-1.2881
1.29108
0.00311089
-0.00647655
-1.54017
1.54354
0.00973337
-0.0128728
-1.54024
1.54338
0.0153795
-0.017769
-1.28828
1.29067
0.0196976
-0.0216162
-1.08093
1.08285
0.0232294
-0.024864
-0.909911
0.911545
0.0262511
-0.0276758
-0.769667
0.771092
0.0288811
-0.0298393
-0.655081
0.656039
0.0297409
-0.0277066
-0.545558
0.543523
0.0232384
-0.0161371
-0.390724
0.383622
0.00952938
-0.00394061
-0.191356
0.185767
0.00101764
-0.0319256
0.030908
-0.0322311
0.0316264
0.00060473
-0.0061817
0.0108226
-0.26043
0.255789
-0.0161307
0.0196193
-0.432633
0.429145
-0.0211329
0.0208626
-0.553688
0.553959
-0.0195623
0.0179132
-0.654924
0.656573
-0.0159485
0.0140183
-0.771221
0.773151
-0.0117383
0.00950041
-0.913393
0.915631
-0.00687099
0.00431076
-1.08564
1.0882
-0.00132717
-0.00155728
-1.29395
1.29683
0.00489084
-0.00808798
-1.54677
1.54996
0.0111522
-0.0140767
-1.54636
1.54928
0.0163842
-0.0185494
-1.29305
1.29521
0.0202708
-0.021968
-1.08473
1.08643
0.0233856
-0.0248171
-0.913045
0.914477
0.026032
-0.0272762
-0.772413
0.773657
0.0283367
-0.0288692
-0.656792
0.657325
0.02837
-0.0257502
-0.541186
0.538567
0.0210074
-0.0142053
-0.376672
0.36987
0.0082858
-0.00342376
-0.180576
0.175714
0.000889133
-0.0299622
0.0290731
-0.0311047
0.030646
0.000458696
-0.00486522
0.00869804
-0.251584
0.247751
-0.0133485
0.0166668
-0.42576
0.422442
-0.0183432
0.0182504
-0.554202
0.554295
-0.0171309
0.0155084
-0.658289
0.659912
-0.0135543
0.0116268
-0.775059
0.776987
-0.00935112
0.00712425
-0.917764
0.919991
-0.00451763
0.0019898
-1.09065
1.09318
0.000942501
-0.00375935
-1.29962
1.30244
0.0069869
-0.0100483
-1.55303
1.5561
0.012948
-0.0156785
-1.55204
1.55477
0.0177952
-0.0197368
-1.29739
1.29933
0.0212506
-0.0227293
-1.08811
1.08959
0.0239611
-0.0252058
-0.915775
0.91702
0.0262662
-0.027347
-0.7748
0.775881
0.028194
-0.0283542
-0.657656
0.657816
0.0274214
-0.0242894
-0.535684
0.532551
0.0193601
-0.01284
-0.363221
0.356701
0.00743263
-0.00307593
-0.171133
0.166776
0.000804307
-0.0282331
0.0274288
-0.030259
0.0299251
0.000333932
-0.00375311
0.00687143
-0.244306
0.241187
-0.0108502
0.0138859
-0.419294
0.416258
-0.0155955
0.0156403
-0.554395
0.55435
-0.0145894
0.0130261
-0.661596
0.663159
-0.0110518
0.00909189
-0.778901
0.780861
-0.00677952
0.00452561
-0.922119
0.924373
-0.00190106
-0.000629112
-1.09561
1.09814
0.00354455
-0.00632355
-1.30517
1.30794
0.00947772
-0.0124331
-1.55904
1.562
0.0151927
-0.0177448
-1.55734
1.55989
0.0196771
-0.0213971
-1.3013
1.30302
0.0227059
-0.0239716
-1.09106
1.09233
0.025023
-0.0260872
-0.918128
0.919193
0.0270005
-0.0279212
-0.776847
0.777768
0.0285046
-0.0283574
-0.657822
0.657675
0.0269388
-0.023323
-0.529179
0.525563
0.0182397
-0.0119366
-0.350308
0.344005
0.00688391
-0.00285933
-0.16261
0.158585
0.000753794
-0.0266558
0.025902
-0.0296561
0.0294348
0.000221314
-0.00276861
0.00523716
-0.238423
0.235955
-0.00854167
0.0112093
-0.413443
0.410776
-0.0128354
0.0129416
-0.554366
0.554259
-0.0119183
0.010381
-0.664811
0.666348
-0.00836024
0.00633587
-0.782813
0.784837
-0.00394795
0.00162937
-0.92653
0.928849
0.00105647
-0.00362917
-1.10058
1.10315
0.00657081
-0.0093484
-1.31064
1.31342
0.0124641
-0.0153403
-1.56484
1.56772
0.0179801
-0.0203696
-1.56227
1.56466
0.0221263
-0.0236286
-1.3048
1.3063
0.024732
-0.0257821
-1.09361
1.09466
0.0266476
-0.0275201
-0.920114
0.920987
0.0282708
-0.0290221
-0.778511
0.779263
0.0293166
-0.0288147
-0.657397
0.656895
0.0269245
-0.0228445
-0.521737
0.517657
0.0175994
-0.0114192
-0.337787
0.331607
0.00657999
-0.00274693
-0.154678
0.150845
0.00073042
-0.0251655
0.0244351
-0.0292755
0.0291624
0.000113078
-0.00184713
0.00370107
-0.233822
0.231968
-0.00632321
0.00855006
-0.408373
0.406147
-0.00998248
0.0100694
-0.554275
0.554188
-0.00903668
0.00748322
-0.668012
0.669565
-0.00538392
0.0032613
-0.786854
0.788976
-0.000757694
-0.00166376
-0.931072
0.933493
0.00445433
-0.00711005
-1.10564
1.10829
0.0101219
-0.012936
-1.31613
1.31894
0.0160497
-0.0188737
-1.57048
1.57331
0.0214133
-0.0236531
-1.56686
1.5691
0.0252392
-0.0265259
-1.30789
1.30917
0.0274249
-0.0282554
-1.09573
1.09656
0.0289265
-0.0295994
-0.921712
0.922385
0.0301926
-0.0307918
-0.779829
0.780428
0.0307148
-0.0297904
-0.65622
0.655296
0.0273995
-0.0228419
-0.513373
0.508815
0.0173949
-0.0112298
-0.325463
0.319298
0.00647771
-0.00271951
-0.14707
0.143311
0.000729162
-0.0237108
0.0229817
-0.0291118
0.0291073
4.54657e-06
-0.000939599
0.00218937
-0.230443
0.229193
-0.00411102
0.00583086
-0.404225
0.402505
-0.00696542
0.00694988
-0.554294
0.554309
-0.00585771
0.00424489
-0.671286
0.672899
-0.00202346
-0.000235195
-0.791091
0.793349
0.00289909
-0.00546594
-0.93582
0.938387
0.008409
-0.0111915
-1.11087
1.11366
0.0143206
-0.0172116
-1.3217
1.32459
0.020363
-0.0231652
-1.57603
1.57883
0.0256253
-0.0277275
-1.57114
1.57325
0.0291482
-0.0302238
-1.31057
1.31164
0.0309188
-0.0315269
-1.09743
1.09803
0.0319972
-0.0324557
-0.922903
0.923362
0.0328581
-0.0331765
-0.780752
0.78107
0.0327921
-0.0313614
-0.654191
0.652761
0.0284268
-0.0233427
-0.50404
0.498956
0.0176193
-0.0113437
-0.31311
0.306834
0.00655658
-0.00276761
-0.139558
0.135769
0.000747513
-0.0222488
0.0215013
-0.0291687
0.0292795
-0.000110778
2.89413e-06
0.000632713
-0.228272
0.227636
-0.00182084
0.00296639
-0.401128
0.399983
-0.00370147
0.0034978
-0.5546
0.554804
-0.00228527
0.000552375
-0.67473
0.676463
0.00183325
-0.00427353
-0.795598
0.798038
0.00714948
-0.00991008
-0.94086
0.943621
0.0130595
-0.0160177
-1.11637
1.11933
0.0193154
-0.0223267
-1.32743
1.33044
0.0255574
-0.0283686
-1.58153
1.58434
0.0307711
-0.0327476
-1.57513
1.57711
0.0340092
-0.0348726
-1.31282
1.31369
0.0353557
-0.0357294
-1.09867
1.09904
0.0359898
-0.0362263
-0.923658
0.923895
0.0364178
-0.0363857
-0.781092
0.781059
0.0356419
-0.0336184
-0.651127
0.649104
0.0300661
-0.024371
-0.493626
0.48793
0.0182679
-0.0117424
-0.300471
0.293945
0.00680047
-0.00288293
-0.131937
0.128019
0.000782903
-0.0207416
0.0199587
-0.0294615
0.0297113
-0.000249752
0.000987191
-0.00102986
-0.227345
0.227387
0.000634798
-0.000137437
-0.399224
0.398727
-9.57553e-05
-0.000391606
-0.555386
0.555874
0.0017947
-0.00371054
-0.678464
0.68038
0.00632262
-0.00899804
-0.800465
0.80314
0.0121457
-0.0151558
-0.946292
0.949303
0.0185735
-0.021763
-1.12224
1.12543
0.0252872
-0.0284662
-1.33342
1.33659
0.031819
-0.0346663
-1.58706
1.5899
0.0370234
-0.0388837
-1.57884
1.5807
0.0399958
-0.0406451
-1.31464
1.31529
0.0409023
-0.0410218
-1.09942
1.09954
0.0410524
-0.0410506
-0.923948
0.923946
0.0410523
-0.040558
-0.780725
0.780231
0.0393703
-0.0366506
-0.646867
0.644147
0.0323784
-0.0259513
-0.481942
0.475515
0.019338
-0.0124104
-0.287259
0.280331
0.00719447
-0.00305714
-0.124012
0.119874
0.000832556
-0.0191562
0.0183236
-0.0300301
0.0304246
-0.000394513
0.00210622
-0.00279405
-0.227741
0.228428
0.00327972
-0.00355446
-0.398658
0.398933
0.0039786
-0.00485218
-0.556882
0.557756
0.00651617
-0.00868766
-0.682622
0.684794
0.0116025
-0.0145812
-0.805798
0.808776
0.0180732
-0.0213988
-0.952231
0.955556
0.0251559
-0.0286391
-1.12858
1.13206
0.0324526
-0.0358491
-1.33975
1.34314
0.0393675
-0.0422766
-1.59265
1.59556
0.0445961
-0.0463328
-1.58227
1.58401
0.047283
-0.0477237
-1.316
1.31645
0.0477468
-0.0475956
-1.09965
1.0995
0.0473825
-0.0471275
-0.923722
0.923467
0.0468778
-0.0458689
-0.77947
0.778461
0.0441317
-0.0405728
-0.641202
0.637643
0.0354355
-0.0281099
-0.468727
0.461402
0.0208268
-0.0133312
-0.273164
0.265668
0.00772251
-0.00328084
-0.115605
0.111163
0.000893253
-0.0174656
0.0165724
-0.0309074
0.0314819
-0.000574503
0.00338303
-0.00487797
-0.229547
0.231042
0.00629128
-0.00740013
-0.399634
0.400743
0.00859614
-0.00999343
-0.559308
0.560705
0.0120612
-0.0145737
-0.687345
0.689857
0.0178819
-0.0212428
-0.811731
0.815092
0.0251639
-0.0288821
-0.958811
0.962529
0.0330607
-0.036907
-1.13552
1.13936
0.041077
-0.044741
-1.34652
1.35019
0.0484639
-0.0514539
-1.59837
1.60136
0.0537394
-0.0553466
-1.58541
1.58701
0.0561363
-0.0563473
-1.31689
1.31711
0.05611
-0.0556688
-1.09932
1.09888
0.0552019
-0.0546657
-0.922953
0.922417
0.0540157
-0.0525122
-0.777278
0.775774
0.0500578
-0.0454811
-0.633831
0.629255
0.0392913
-0.030855
-0.453628
0.445192
0.0227146
-0.0144747
-0.257849
0.249609
0.00835875
-0.00353962
-0.106552
0.101732
0.000960145
-0.01565
0.0146898
-0.0321573
0.032966
-0.000808684
0.00496321
-0.00737325
-0.233001
0.235411
0.00986782
-0.0119154
-0.402358
0.404405
0.0140107
-0.0160576
-0.562918
0.564965
0.0186656
-0.0216195
-0.692813
0.695767
0.0254372
-0.0292728
-0.818431
0.822267
0.0337247
-0.0379257
-0.966193
0.970394
0.0426179
-0.0469015
-1.1432
1.14748
0.0514944
-0.0554693
-1.35384
1.35781
0.0594228
-0.0624956
-1.60424
1.60731
0.0647309
-0.0661816
-1.58822
1.58967
0.0667848
-0.0667246
-1.31722
1.31716
0.0662197
-0.0654653
-1.09839
1.09764
0.0647318
-0.0639325
-0.921584
0.920785
0.0627623
-0.0606528
-0.774151
0.772041
0.0573145
-0.0514681
-0.624363
0.618516
0.0439737
-0.0341592
-0.436196
0.426382
0.0249476
-0.015784
-0.240957
0.231794
0.00905966
-0.0038108
-0.0967141
0.0914653
0.00102598
-0.0136999
0.012674
-0.0338775
0.0349928
-0.00111539
0.00694937
-0.0104669
-0.238322
0.24184
0.014239
-0.0173748
-0.407132
0.410268
0.0204994
-0.0233233
-0.568005
0.570828
0.0266295
-0.0301536
-0.699252
0.702776
0.0346307
-0.0390624
-0.82609
0.830522
0.0441677
-0.048953
-0.97456
0.979346
0.0542563
-0.0590487
-1.15177
1.15656
0.0641181
-0.0684266
-1.36177
1.36608
0.0726055
-0.0757316
-1.61025
1.61338
0.0778751
-0.0791247
-1.59066
1.59191
0.0795016
-0.0791388
-1.31688
1.31651
0.078343
-0.0772431
-1.0968
1.0957
0.0762372
-0.0751365
-0.919646
0.918545
0.0733996
-0.0705032
-0.769868
0.766971
0.066026
-0.0585583
-0.612275
0.604807
0.0494314
-0.0379183
-0.415875
0.404362
0.0274071
-0.0171568
-0.222138
0.211888
0.00975421
-0.00406011
-0.0860045
0.0803104
0.00108047
-0.0116224
0.0105419
-0.0362027
0.0377396
-0.00153687
0.00955826
-0.0144531
-0.245868
0.250763
0.0197455
-0.02414
-0.414322
0.418717
0.028449
-0.0322035
-0.574898
0.578652
0.0363886
-0.0406753
-0.706937
0.711224
0.0459806
-0.0511576
-0.834952
0.840129
0.0570599
-0.0625393
-0.984121
0.9896
0.0685453
-0.0738977
-1.16136
1.16672
0.0794613
-0.0840833
-1.37035
1.37497
0.0884278
-0.0915242
-1.61631
1.61941
0.0934857
-0.0944442
-1.5926
1.59355
0.0945314
-0.0938658
-1.31581
1.31515
0.0926959
-0.091243
-1.09449
1.09304
0.0899661
-0.0883743
-0.916968
0.915376
0.0861184
-0.0821434
-0.764001
0.760026
0.0761962
-0.066656
-0.596835
0.587295
0.055488
-0.0419109
-0.39201
0.378433
0.0298803
-0.0184294
-0.201085
0.189634
0.0103374
-0.00424051
-0.0744178
0.0683209
0.00111044
-0.00944597
0.00833553
-0.0393433
0.0414905
-0.0021472
0.0131546
-0.0198116
-0.256147
0.262804
0.0269336
-0.0327967
-0.42441
0.430273
0.0384742
-0.0433606
-0.583986
0.588872
0.0486427
-0.0539052
-0.716265
0.721527
0.0602893
-0.0663891
-0.845311
0.851411
0.0732311
-0.0794897
-0.995088
1.00135
0.0862425
-0.092147
-1.17206
1.17796
0.0981434
-0.102981
-1.37949
1.38432
0.107345
-0.110256
-1.62223
1.62514
0.111883
-0.112413
-1.59384
1.59437
0.112123
-0.111082
-1.31396
1.31292
0.109522
-0.107687
-1.09148
1.08965
0.106119
-0.103978
-0.913171
0.911031
0.101056
-0.095619
-0.755938
0.7505
0.0877004
-0.0754749
-0.577097
0.564871
0.0617674
-0.0457456
-0.363876
0.347854
0.032031
-0.0193685
-0.177619
0.164956
0.0106717
-0.00429524
-0.0620767
0.0557002
0.00110126
-0.00722634
0.00612508
-0.0436409
0.0467296
-0.00308866
0.018378
-0.0273396
-0.26991
0.278872
0.0366936
-0.0443346
-0.438077
0.445718
0.0516721
-0.0579167
-0.595775
0.602019
0.064629
-0.0712417
-0.727662
0.734274
0.0788938
-0.0860219
-0.857495
0.864623
0.0938657
-0.1009
-1.0076
1.01464
0.108322
-0.114644
-1.18378
1.1901
0.120868
-0.125699
-1.38893
1.39376
0.129819
-0.132297
-1.62764
1.63012
0.133366
-0.133273
-1.59408
1.59399
0.132474
-0.130971
-1.31114
1.30964
0.129018
-0.12675
-1.08769
1.08543
0.124751
-0.122099
-0.908119
0.905466
0.118114
-0.110655
-0.744823
0.737364
0.100096
-0.084422
-0.551799
0.536125
0.0676178
-0.0488255
-0.33076
0.311968
0.0333964
-0.0196883
-0.151804
0.138096
0.0106046
-0.00416781
-0.0492751
0.0428383
0.0010399
-0.00504716
0.00400726
-0.0496929
0.0543751
-0.00468227
0.0264795
-0.0385516
-0.288347
0.300419
0.050779
-0.0607766
-0.456445
0.466443
0.0701613
-0.0780432
-0.610843
0.618725
0.0865216
-0.094682
-0.74166
0.749821
0.103727
-0.111874
-0.87171
0.879856
0.120584
-0.128173
-1.02157
1.02916
0.135936
-0.142329
-1.19615
1.20255
0.148369
-0.15281
-1.39817
1.40261
0.15627
-0.157963
-1.632
1.63369
0.158178
-0.157217
-1.59293
1.59197
0.155743
-0.153654
-1.30713
1.30504
0.151252
-0.148472
-1.08301
1.08023
0.146031
-0.142621
-0.901635
0.898225
0.13708
-0.126679
-0.729394
0.718994
0.112537
-0.0925026
-0.519365
0.49933
0.0720687
-0.0503764
-0.292152
0.27046
0.0334496
-0.0191125
-0.124115
0.109778
0.0100102
-0.00381918
-0.0365003
0.0303093
0.000917616
-0.00301299
0.00209537
-0.0586371
0.0666351
-0.00799795
0.0406761
-0.0573396
-0.313671
0.330334
0.0736142
-0.0867133
-0.481103
0.494202
0.098225
-0.107726
-0.629717
0.639218
0.11797
-0.127571
-0.758464
0.768065
0.137711
-0.1464
-0.887725
0.896414
0.155337
-0.162847
-1.03637
1.04388
0.170268
-0.176103
-1.20836
1.2142
0.181318
-0.184784
-1.40631
1.40978
0.187031
-0.18747
-1.63455
1.63499
0.186447
-0.184331
-1.58987
1.58776
0.181985
-0.179192
-1.30166
1.29886
0.176244
-0.17288
-1.07721
1.07384
0.169825
-0.165173
-0.893001
0.888349
0.157199
-0.142485
-0.70764
0.692926
0.123451
-0.0981887
-0.477895
0.452633
0.0739313
-0.0496834
-0.248095
0.223847
0.0318364
-0.0175396
-0.0955944
0.0812975
0.00887144
-0.00325116
-0.0244012
0.0187809
0.000731874
-0.0012327
0.000500824
-0.0740583
0.0785982
-0.00453992
0.0313113
-0.0459502
-0.349931
0.36457
0.060601
-0.0726802
-0.513306
0.525386
0.0837991
-0.0944617
-0.652279
0.662942
0.106701
-0.117925
-0.776966
0.78819
0.130473
-0.141744
-0.904119
0.915389
0.153925
-0.164939
-1.05051
1.06153
0.176732
-0.187138
-1.21902
1.22943
0.197928
-0.20703
-1.41218
1.42128
0.215891
-0.222651
-1.63432
1.64108
0.227367
-0.230782
-1.58429
1.5877
0.232854
-0.234412
-1.2944
1.29596
0.235212
-0.234754
-1.06983
1.06937
0.233296
-0.22756
-0.880685
0.874949
0.214744
-0.190488
-0.676609
0.652353
0.15951
-0.12097
-0.425811
0.387272
0.0869028
-0.0552916
-0.199701
0.16809
0.0337945
-0.0177416
-0.0679047
0.0518518
0.00851745
-0.00290172
-0.0136577
0.00804197
0.000573099
0.000243698
-0.000816797
-0.086487
0.0846366
0.00185042
0.00901502
-0.0187634
-0.382212
0.39196
0.0300745
-0.0389769
-0.542494
0.551397
0.0481275
-0.0571899
-0.676341
0.685404
0.0683863
-0.078905
-0.798856
0.809375
0.0902772
-0.100747
-0.926114
0.936584
0.112057
-0.121954
-1.07232
1.08222
0.132779
-0.142004
-1.23973
1.24895
0.151615
-0.159562
-1.43022
1.43816
0.167025
-0.172698
-1.64736
1.65304
0.17651
-0.179097
-1.5904
1.59299
0.180304
-0.181215
-1.29569
1.2966
0.1816
-0.180736
-1.06729
1.06643
0.177733
-0.169299
-0.863685
0.855251
0.154202
-0.129801
-0.623479
0.599079
0.102518
-0.0723889
-0.346381
0.316252
0.0488403
-0.0293365
-0.137891
0.118387
0.0170572
-0.00851233
-0.0371949
0.0286501
0.00385471
-0.00121456
-0.00276095
0.0001208
0.000191344
0.00156998
-0.00176132
-0.0883453
0.0853745
0.00297083
-0.000324413
-0.00550584
-0.404513
0.410344
0.0131705
-0.019921
-0.564553
0.571304
0.0269613
-0.0347988
-0.69699
0.704827
0.0445822
-0.0537672
-0.818797
0.827982
0.0639286
-0.0731458
-0.946262
0.955479
0.08289
-0.0918503
-1.09201
1.10097
0.101482
-0.109846
-1.25784
1.2662
0.118183
-0.12502
-1.44563
1.45247
0.131643
-0.136447
-1.65835
1.66315
0.13948
-0.141362
-1.59502
1.5969
0.142005
-0.142465
-1.29586
1.29632
0.142192
-0.140883
-1.06272
1.06141
0.136853
-0.126972
-0.84265
0.832769
0.111513
-0.0889371
-0.571257
0.548682
0.0664257
-0.0442109
-0.284348
0.262133
0.028773
-0.016933
-0.09941
0.08757
0.00974889
-0.00486429
-0.0203697
0.0154851
0.00221207
-0.000700387
0.00267803
-0.00418971
0.00011358
0.0021478
-0.00226138
-0.0872106
0.0843452
0.00286544
-0.0044854
0.00137958
-0.419756
0.422862
0.0037411
-0.00896617
-0.581377
0.586602
0.0150097
-0.0216327
-0.714082
0.720705
0.0300569
-0.0379882
-0.836386
0.844317
0.0467418
-0.0547219
-0.96414
0.97212
0.0635741
-0.0713081
-1.10951
1.11724
0.0798449
-0.0868362
-1.27421
1.2812
0.0942158
-0.100246
-1.45918
1.46521
0.10588
-0.109702
-1.66777
1.67159
0.112282
-0.113835
-1.59833
1.59988
0.114193
-0.113883
-1.29546
1.29515
0.113182
-0.111362
-1.05669
1.05487
0.106608
-0.096579
-0.81909
0.809061
0.0818461
-0.0625059
-0.52346
0.50412
0.0449873
-0.0292942
-0.238905
0.223212
0.0189705
-0.0112849
-0.0752138
0.0675282
0.0066061
-0.0033823
-0.0102318
0.00700801
0.00159524
-0.000531328
0.00596416
-0.00702807
9.53049e-05
0.00250062
-0.00259593
-0.0857364
0.083129
0.00260737
-0.0061195
0.00473664
-0.430191
0.431574
-0.000829585
-0.00315942
-0.594997
0.598986
0.00805858
-0.0140214
-0.72852
0.734483
0.021114
-0.0280803
-0.851431
0.858397
0.0356832
-0.0426433
-0.979623
0.986584
0.050291
-0.0571793
-1.12483
1.13172
0.0645091
-0.0708772
-1.28805
1.29442
0.0773122
-0.0825381
-1.47092
1.47614
0.0873586
-0.0905341
-1.67541
1.67859
0.0926095
-0.0935667
-1.60082
1.60178
0.0936403
-0.0931236
-1.29403
1.29352
0.0920185
-0.0895575
-1.04967
1.04721
0.0847016
-0.0749413
-0.79542
0.785659
0.0618777
-0.0458043
-0.482598
0.466524
0.0324322
-0.0211428
-0.206203
0.194914
0.0138323
-0.00844044
-0.0590285
0.0536367
0.00510385
-0.00270787
-0.00327675
0.000880774
0.00132988
-0.000464973
0.00834253
-0.00920744
9.65806e-05
0.00277287
-0.00286945
-0.0842354
0.0819335
0.00230191
-0.00645376
0.0057222
-0.437464
0.438196
-0.0033047
4.23796e-05
-0.605603
0.608865
0.00464032
-0.00972168
-0.740768
0.745849
0.0157896
-0.0218055
-0.864458
0.870473
0.028511
-0.0346841
-0.993151
0.999324
0.0415989
-0.0476071
-1.1383
1.14431
0.0541207
-0.0597673
-1.30047
1.30612
0.0653805
-0.0698867
-1.48109
1.4856
0.0739426
-0.0768822
-1.68175
1.68469
0.0784346
-0.0791699
-1.60234
1.60307
0.0789644
-0.0781441
-1.29229
1.29147
0.0769209
-0.0739102
-1.04197
1.03896
0.0689466
-0.0599382
-0.772649
0.76364
0.0484967
-0.0352794
-0.448457
0.43524
0.0249441
-0.0164816
-0.18221
0.173747
0.0110802
-0.00698115
-0.0473159
0.0432168
0.00433967
-0.00237243
0.00200773
-0.00397497
0.00119508
-0.000436692
0.0102508
-0.0110092
9.68318e-05
0.0029996
-0.00309643
-0.0829418
0.0810684
0.00187347
-0.00596225
0.00574202
-0.442796
0.443016
-0.00379051
0.00133216
-0.61477
0.617228
0.00293658
-0.00748065
-0.751311
0.755855
0.013123
-0.0182517
-0.876007
0.881136
0.0240668
-0.02946
-1.00542
1.01081
0.0358506
-0.0411773
-1.15029
1.15562
0.0468415
-0.0519512
-1.31152
1.31663
0.0572961
-0.0612033
-1.49007
1.49397
0.0647823
-0.0671106
-1.68724
1.68957
0.0685545
-0.0687162
-1.60361
1.60377
0.0684781
-0.067621
-1.29011
1.28925
0.0660361
-0.0629517
-1.03387
1.03078
0.0580173
-0.0495481
-0.751307
0.742838
0.039763
-0.028757
-0.419964
0.408958
0.0205359
-0.0140065
-0.163891
0.157362
0.00970483
-0.00632781
-0.038188
0.034811
0.00405548
-0.00228022
0.00640694
-0.0081822
0.00117426
-0.000439336
0.0119071
-0.0126421
0.000103021
0.00319233
-0.00329535
-0.0820465
0.0805123
0.00153429
-0.00519912
0.00529003
-0.446814
0.446723
-0.00359859
0.00136372
-0.622595
0.62483
0.00254719
-0.00656147
-0.760625
0.764639
0.0113202
-0.0161254
-0.886148
0.890954
0.0213623
-0.0267087
-1.01594
1.02128
0.0320905
-0.0369591
-1.16098
1.16585
0.0424199
-0.046927
-1.32152
1.32603
0.0513173
-0.0551669
-1.49769
1.50154
0.0583258
-0.0603429
-1.69191
1.69393
0.0613348
-0.0614818
-1.6041
1.60424
0.061073
-0.0600154
-1.28777
1.28671
0.0583328
-0.0550598
-1.02592
1.02265
0.0502512
-0.0426471
-0.731484
0.72388
0.0338921
-0.0247641
-0.396011
0.386883
0.0181484
-0.0128154
-0.149435
0.144102
0.00922136
-0.00628269
-0.0305299
0.0275912
0.00416283
-0.00242
0.010392
-0.0121348
0.00128163
-0.000489745
0.013494
-0.0142859
0.000119835
0.00337616
-0.00349599
-0.0816158
0.0802717
0.00134404
-0.00415279
0.00414434
-0.450119
0.450127
-0.00278593
0.000677166
-0.629561
0.63167
0.002824
-0.00659993
-0.769089
0.772865
0.0110279
-0.0152668
-0.89549
0.899729
0.0204444
-0.0247705
-1.02595
1.03028
0.0298744
-0.0343005
-1.1708
1.17522
0.0393009
-0.0436385
-1.3304
1.33473
0.0478624
-0.0509796
-1.50501
1.50813
0.0538445
-0.0555889
-1.69576
1.6975
0.056555
-0.0563182
-1.60417
1.60393
0.0557804
-0.0545578
-1.28551
1.28429
0.0527961
-0.0493822
-1.01789
1.01447
0.0447972
-0.0377124
-0.713392
0.706307
0.0300786
-0.0223728
-0.375899
0.368193
0.0168743
-0.0125054
-0.137499
0.13313
0.00938504
-0.00667979
-0.0237346
0.0210293
0.00459986
-0.0027819
0.0142838
-0.0161017
0.00152182
-0.000609849
0.0151677
-0.0160797
0.000153198
0.00357407
-0.00372727
-0.0814035
0.0803863
0.00101725
-0.00317778
0.00279946
-0.453215
0.453593
-0.00172839
-0.00034433
-0.635532
0.637605
0.00340508
-0.00694646
-0.776768
0.780309
0.0110602
-0.0152955
-0.903775
0.90801
0.0196597
-0.0239761
-1.03475
1.03907
0.0288081
-0.0327639
-1.18
1.18395
0.0375392
-0.0414796
-1.33874
1.34268
0.0452943
-0.0484573
-1.51152
1.51468
0.0511638
-0.0524815
-1.69911
1.70043
0.0529293
-0.0526755
-1.60372
1.60347
0.0520779
-0.0506169
-1.2827
1.28124
0.0486191
-0.0453487
-1.00998
1.00671
0.040523
-0.034151
-0.696619
0.690247
0.0274594
-0.0208921
-0.358878
0.352311
0.016352
-0.0125998
-0.127449
0.123697
0.00982381
-0.00725318
-0.0174734
0.0149028
0.00516353
-0.00323858
0.018287
-0.0202119
0.00184733
-0.000772074
0.0170784
-0.0181536
0.00020629
0.00382583
-0.00403212
-0.0815618
0.080717
0.000844816
-0.00233296
0.00208394
-0.456287
0.456536
-0.000571326
-0.00125236
-0.641365
0.643189
0.00440285
-0.00771996
-0.783713
0.78703
0.0115544
-0.0152521
-0.911855
0.915553
0.0195967
-0.0234247
-1.04331
1.04714
0.0279918
-0.0321783
-1.18828
1.19247
0.0362768
-0.0402298
-1.34654
1.35049
0.04405
-0.0468143
-1.51756
1.52032
0.0492445
-0.0506329
-1.70176
1.70315
0.050749
-0.0503144
-1.60285
1.60241
0.0492351
-0.0475851
-1.27958
1.27793
0.0455074
-0.0419801
-1.00219
0.998659
0.0373758
-0.031369
-0.681313
0.675306
0.0254542
-0.0197991
-0.344179
0.338524
0.0159131
-0.0126821
-0.118803
0.115572
0.0101595
-0.00771664
-0.0115685
0.00912557
0.00564969
-0.00366488
0.0224293
-0.0244142
0.00215838
-0.00093783
0.01928
-0.0205005
0.000262172
0.00416951
-0.00443168
-0.0819977
0.0813258
0.000671892
-0.00133748
0.000970832
-0.459328
0.459695
0.000315153
-0.00237861
-0.64661
0.648673
0.00539055
-0.00847057
-0.790219
0.793299
0.0122909
-0.0157331
-0.919182
0.922624
0.0197841
-0.0235977
-1.05139
1.05521
0.0278859
-0.0318331
-1.1964
1.20035
0.0358953
-0.0395809
-1.35422
1.35791
0.0431895
-0.0462777
-1.5232
1.52628
0.0485306
-0.0494885
-1.7042
1.70516
0.0494871
-0.0484804
-1.60155
1.60054
0.0472152
-0.0453785
-1.27593
1.2741
0.04278
-0.0390372
-0.994153
0.990411
0.034444
-0.0286562
-0.667136
0.661348
0.0234534
-0.0185458
-0.331597
0.32669
0.0152308
-0.0123648
-0.111244
0.108378
0.0100984
-0.00782298
-0.00600786
0.00373246
0.00586317
-0.00390963
0.0266198
-0.0285733
0.00236773
-0.00106859
0.0217127
-0.0230119
0.00031915
0.00460904
-0.00492819
-0.0826611
0.0821103
0.000550843
-0.000515707
8.03413e-05
-0.462398
0.462833
0.0012246
-0.00327936
-0.651786