/*--------------------------------*- C++ -*----------------------------------*\
  =========                 |
  \\      /  F ield         | OpenFOAM: The Open Source CFD Toolbox
   \\    /   O peration     | Website:  https://openfoam.org
    \\  /    A nd           | Version:  6
     \\/     M anipulation  |
\*---------------------------------------------------------------------------*/
FoamFile
{
    version     2.0;
    format      ascii;
    class       surfaceScalarField;
    location    "23";
    object      phi;
}
// * * * * * * * * * * * * * * * * * * * * * * * * * * * * * * * * * * * * * //

dimensions      [0 3 -1 0 0 0 0];

internalField   nonuniform List<scalar> 
17370
(
-0.0899998
0.0898473
0.289163
-0.0714591
0.0537465
0.364488
-0.0381105
0.0276789
0.4266
-0.0196226
0.0145833
0.504291
-0.0107328
0.00823539
0.6019
-0.00623177
0.00485802
0.720431
-0.00370373
0.00287811
0.863732
-0.0021585
0.00162002
1.03599
-0.00112445
0.000725653
1.2429
-0.000323452
-6.59447e-05
1.49158
0.000446108
-0.000849021
1.49159
0.00124467
-0.00173497
1.24318
0.00226534
-0.0029745
1.03635
0.00379101
-0.00493731
0.864053
0.00630572
-0.00830373
0.721056
0.0107949
-0.014638
0.603058
0.0196705
-0.0277198
0.507488
0.0381454
-0.0537753
0.431798
0.0714825
-0.0898628
0.365156
0.0900091
0.199002
-0.128134
0.0882227
0.0399108
-0.364596
0.353372
-0.0746759
0.0859004
-0.446477
0.454308
-0.0844011
0.0765698
-0.521188
0.529888
-0.0684826
0.0597824
-0.612777
0.62155
-0.0516025
0.0428294
-0.726885
0.734154
-0.0353714
0.0281027
-0.867455
0.872565
-0.0224968
0.0173873
-1.03845
1.04187
-0.0135931
0.0101745
-1.2446
1.247
-0.00759387
0.00519102
-1.49266
1.49459
-0.00326992
0.00134017
-1.49249
1.49417
0.000308933
-0.00199529
-1.24398
1.24588
0.00389279
-0.00578772
-1.03749
1.04004
0.00815807
-0.0107077
-0.866084
0.869845
0.0140908
-0.0178516
-0.724396
0.729962
0.0229219
-0.0284879
-0.608709
0.616131
0.0357131
-0.0431356
-0.514908
0.523059
0.0518741
-0.0600246
-0.439872
0.447934
0.0686936
-0.0767561
-0.375308
0.376773
0.0845584
-0.0860232
-0.257353
0.222537
0.074759
-0.0399429
-0.0685146
0.0586927
0.00982195
-0.0518007
0.0583856
-0.374119
0.367534
-0.057462
0.0536967
-0.453577
0.457342
-0.0485844
0.0446088
-0.527916
0.531891
-0.0407454
0.0370947
-0.621521
0.625172
-0.0329953
0.028956
-0.735304
0.739343
-0.0244567
0.0203718
-0.874302
0.878387
-0.0161147
0.012487
-1.04343
1.04705
-0.00883189
0.00571494
-1.24851
1.25163
-0.00244435
-0.000622373
-1.4966
1.49967
0.00366478
-0.00689973
-1.49719
1.50043
0.00996066
-0.0135465
-1.25006
1.25365
0.0171043
-0.0212792
-1.04595
1.05013
0.025286
-0.0297033
-0.877807
0.882225
0.0336755
-0.0377085
-0.739935
0.743968
0.0413012
-0.0451028
-0.626815
0.630617
0.0490275
-0.0540926
-0.534848
0.539913
0.0578085
-0.0586717
-0.457529
0.458393
0.0520163
-0.0318935
-0.335853
0.315731
0.00985705
-0.0684156
0.0585585
-0.0529424
0.0489564
0.00398598
-0.0330975
0.0436247
-0.358097
0.34757
-0.0473263
0.0467227
-0.459272
0.459875
-0.0437062
0.0403938
-0.535792
0.539105
-0.036653
0.0333627
-0.628493
0.631783
-0.0299272
0.0268854
-0.74256
0.745601
-0.0236168
0.0205158
-0.881851
0.884952
-0.0170278
0.0137164
-1.05059
1.0539
-0.0100326
0.00661667
-1.25502
1.25843
-0.00279082
-0.000878527
-1.50314
1.50681
0.00453213
-0.00830074
-1.50406
1.50783
0.0116492
-0.0152415
-1.25736
1.26095
0.0184602
-0.0218443
-1.05388
1.05727
0.0248488
-0.028012
-0.885735
0.888898
0.03096
-0.0342977
-0.747293
0.750631
0.0375025
-0.041156
-0.634454
0.638107
0.0443951
-0.047331
-0.544265
0.547201
0.0478528
-0.0440404
-0.456727
0.452914
0.0333843
-0.0160795
-0.296463
0.279159
0.00402925
-0.0527689
0.0487397
-0.0458907
0.0434104
0.00248038
-0.0226892
0.0330163
-0.336909
0.326582
-0.0387921
0.0397754
-0.45954
0.458556
-0.0385525
0.0362474
-0.541753
0.544058
-0.0335772
0.0310023
-0.63477
0.637345
-0.0279992
0.0251804
-0.748624
0.751443
-0.0220305
0.019162
-0.887925
0.890793
-0.016004
0.0130414
-1.05701
1.05997
-0.00965693
0.0063732
-1.26178
1.26507
-0.0025323
-0.0012423
-1.51056
1.51433
0.00498964
-0.0087465
-1.51161
1.51537
0.0119246
-0.0151712
-1.26436
1.26761
0.017999
-0.0210023
-1.06042
1.06342
0.0237305
-0.026733
-0.892026
0.895028
0.0294219
-0.0322876
-0.753873
0.756739
0.0347477
-0.0373057
-0.641173
0.643731
0.0395191
-0.0406235
-0.549034
0.550138
0.0395186
-0.0335685
-0.447749
0.441799
0.0230542
-0.0100463
-0.264112
0.251104
0.00253368
-0.0456262
0.0430925
-0.0413539
0.0396127
0.00174121
-0.0165375
0.0256979
-0.316798
0.307638
-0.0322486
0.0343742
-0.456993
0.454867
-0.0339549
0.0322843
-0.546069
0.54774
-0.0301029
0.0280216
-0.639604
0.641686
-0.0256411
0.0233444
-0.753953
0.756249
-0.0206443
0.0180213
-0.893532
0.896155
-0.0149642
0.0120605
-1.06288
1.06578
-0.00874172
0.00557572
-1.26829
1.27146
-0.00192782
-0.00162334
-1.51804
1.52159
0.00514283
-0.00869696
-1.51905
1.5226
0.0117353
-0.0148877
-1.27078
1.27394
0.0176191
-0.0204744
-1.06635
1.06921
0.0229149
-0.0254213
-0.897763
0.900269
0.0275552
-0.0297661
-0.75919
0.761401
0.0316995
-0.0337257
-0.645992
0.648018
0.0352525
-0.0355028
-0.550794
0.551044
0.0331897
-0.0263891
-0.435348
0.428547
0.0169832
-0.00714257
-0.239828
0.229988
0.00180537
-0.0409776
0.0391722
-0.0381168
0.0368304
0.00128642
-0.0123985
0.020138
-0.29917
0.29143
-0.0267312
0.0296128
-0.452285
0.449403
-0.0298796
0.0288683
-0.549051
0.550063
-0.0270328
0.0252347
-0.643625
0.645423
-0.0231344
0.0210763
-0.758437
0.760495
-0.0186565
0.0162955
-0.898666
0.901027
-0.0135398
0.0108677
-1.06861
1.07129
-0.00775775
0.00476947
-1.27454
1.27753
-0.00129965
-0.00207608
-1.525
1.52838
0.00540942
-0.00875707
-1.52603
1.52938
0.0115766
-0.0144591
-1.277
1.27989
0.0169012
-0.0194055
-1.07193
1.07444
0.0215433
-0.0237197
-0.902621
0.904797
0.0255615
-0.0274371
-0.76346
0.765336
0.0290475
-0.0307043
-0.649822
0.651479
0.0315268
-0.0310434
-0.55088
0.550397
0.0279098
-0.0209874
-0.421592
0.414669
0.0129405
-0.00536813
-0.221366
0.213794
0.00136443
-0.0376059
0.0362414
-0.0357236
0.0347646
0.000958967
-0.00940843
0.0157952
-0.284393
0.278006
-0.0219745
0.0251658
-0.446346
0.443155
-0.0258467
0.0251278
-0.550894
0.551613
-0.0234139
0.0217391
-0.647137
0.648812
-0.019874
0.0180951
-0.762403
0.764181
-0.016039
0.0140176
-0.903208
0.905229
-0.0116346
0.00928082
-1.07377
1.07612
-0.00650661
0.00376776
-1.28039
1.28313
-0.000522665
-0.00267661
-1.53171
1.53491
0.00581929
-0.00889806
-1.53261
1.53569
0.0114193
-0.0139107
-1.28256
1.28505
0.015985
-0.018045
-1.0767
1.07876
0.0197734
-0.0215279
-0.906744
0.908498
0.0230266
-0.0246121
-0.767043
0.768628
0.0260501
-0.0275129
-0.65305
0.654513
0.0279812
-0.026983
-0.549666
0.548667
0.0234416
-0.0168332
-0.407883
0.401274
0.0100668
-0.0041368
-0.207108
0.201178
0.00105476
-0.0350496
0.0339949
-0.0339345
0.0332332
0.000701343
-0.00698067
0.0120777
-0.272261
0.267164
-0.0175888
0.0209136
-0.439856
0.436531
-0.0221175
0.0217367
-0.552195
0.552575
-0.0203844
0.0188648
-0.650453
0.651973
-0.0171198
0.015489
-0.765902
0.767532
-0.013623
0.0117988
-0.90713
0.908955
-0.00963093
0.00748278
-1.07835
1.0805
-0.00493623
0.00242977
-1.28574
1.28824
0.000497069
-0.00333519
-1.53792
1.54075
0.00610744
-0.00882403
-1.53859
1.54131
0.0110488
-0.0132277
-1.28739
1.28957
0.0150128
-0.0167679
-1.08066
1.08242
0.0182209
-0.0197046
-0.910095
0.911579
0.0210204
-0.0224313
-0.77014
0.771551
0.0236576
-0.024691
-0.655794
0.656827
0.0247572
-0.0231457
-0.547352
0.54574
0.0193765
-0.0133352
-0.394907
0.388866
0.0077787
-0.00317741
-0.19594
0.191339
0.00081826
-0.0330623
0.032244
-0.0326465
0.0321545
0.000491997
-0.00503361
0.00895856
-0.262674
0.258749
-0.0135918
0.0167358
-0.43326
0.430116
-0.0182176
0.0181651
-0.552773
0.552826
-0.0172433
0.0160269
-0.653337
0.654553
-0.0145447
0.0130739
-0.769112
0.770583
-0.0113212
0.00958622
-0.910758
0.912493
-0.00753531
0.00553749
-1.08256
1.08456
-0.00319779
0.000939241
-1.29059
1.29285
0.00169579
-0.00424842
-1.54343
1.54598
0.00670119
-0.00904382
-1.54385
1.54619
0.0109319
-0.012795
-1.2916
1.29346
0.0143313
-0.0158787
-1.08407
1.08562
0.0171734
-0.0184727
-0.912976
0.914275
0.0195316
-0.0205733
-0.772775
0.773816
0.021414
-0.021891
-0.657583
0.65806
0.0215196
-0.0194929
-0.543891
0.541865
0.0157782
-0.0104904
-0.383195
0.377907
0.00600838
-0.00244786
-0.1873
0.183739
0.000637004
-0.0315321
0.0308951
-0.0317474
0.0314305
0.000316933
-0.00329811
0.00612538
-0.255367
0.25254
-0.00978615
0.0125401
-0.427143
0.424389
-0.0140654
0.0141772
-0.552795
0.552683
-0.0134627
0.0123592
-0.655705
0.656808
-0.0110265
0.00975388
-0.772
0.773272
-0.00828988
0.00685272
-0.914114
0.915551
-0.00514418
0.00343439
-1.08639
1.0881
-0.00140034
-0.000633422
-1.29495
1.29699
0.00302136
-0.00533382
-1.5484
1.55071
0.00752643
-0.00954726
-1.54841
1.55043
0.0110952
-0.0125462
-1.29515
1.2966
0.0136713
-0.014713
-1.08695
1.08799
0.0155559
-0.016392
-0.915354
0.91619
0.0171394
-0.0179299
-0.774688
0.775479
0.0185661
-0.0187165
-0.658357
0.658507
0.0180705
-0.0158687
-0.539738
0.537536
0.0124206
-0.0079744
-0.373033
0.368586
0.00448066
-0.00183309
-0.180642
0.177995
0.000495467
-0.0303337
0.0298383
-0.0312151
0.0310972
0.000117898
-0.00158647
0.00334136
-0.250267
0.248512
-0.00597718
0.00822768
-0.421895
0.419644
-0.00968606
0.00995857
-0.552521
0.552248
-0.00946939
0.00860791
-0.657844
0.658706
-0.00754841
0.00652181
-0.774472
0.775498
-0.00529949
0.00403636
-0.916862
0.918125
-0.002475
0.000924755
-1.08963
1.09118
0.000921334
-0.00270411
-1.29882
1.3006
0.00474243
-0.0066493
-1.5528
1.55471
0.0084132
-0.0100185
-1.55226
1.55387
0.011214
-0.0122752
-1.29783
1.29889
0.0130702
-0.0137713
-1.0888
1.0895
0.0142865
-0.0147881
-0.916819
0.917321
0.0152139
-0.0156415
-0.776098
0.776526
0.0159051
-0.0156752
-0.658523
0.658293
0.0146803
-0.0123332
-0.535299
0.532952
0.00920821
-0.00561251
-0.364588
0.360992
0.00304796
-0.0012359
-0.175804
0.173992
0.000341646
-0.0294336
0.0290919
-0.0310677
0.0311015
-3.37338e-05
-0.000334985
0.00121974
-0.247224
0.246339
-0.00291968
0.00466821
-0.417647
0.415898
-0.00607604
0.00659278
-0.551857
0.55134
-0.00645832
0.00594216
-0.659386
0.659902
-0.00512811
0.00425279
-0.776514
0.777389
-0.00311013
0.00188666
-0.919359
0.920583
-0.000382146
-0.00113865
-1.09264
1.09416
0.00292712
-0.00464229
-1.30228
1.30399
0.0065886
-0.00836214
-1.55647
1.55824
0.00995045
-0.0113407
-1.55539
1.55678
0.0123417
-0.0132104
-1.29992
1.30078
0.0138044
-0.0142592
-1.09014
1.09059
0.0145207
-0.0146997
-0.917615
0.917794
0.0147518
-0.0146789
-0.776575
0.776502
0.0143939
-0.0136061
-0.657776
0.656988
0.0121796
-0.00968184
-0.530561
0.528063
0.00688077
-0.00402227
-0.357811
0.354953
0.00214232
-0.000864449
-0.172516
0.171238
0.000238134
-0.0288283
0.0285902
-0.0311975
0.0313328
-0.000135302
0.000400722
-0.000112811
-0.245802
0.245515
-0.000763416
0.00188051
-0.414472
0.413355
-0.0029553
0.00343198
-0.55079
0.550314
-0.00335561
0.00295838
-0.660357
0.660754
-0.00230784
0.00154984
-0.778308
0.779066
-0.000520024
-0.000624036
-0.921728
0.922872
0.00209356
-0.0035735
-1.09554
1.09702
0.00530502
-0.00696182
-1.3056
1.30726
0.00882036
-0.0105121
-1.55995
1.56164
0.011976
-0.0131494
-1.55809
1.55926
0.0138677
-0.0143455
-1.30151
1.30199
0.0145641
-0.0146394
-1.09092
1.09099
0.0145807
-0.0144113
-0.917741
0.917572
0.0141967
-0.0138648
-0.776179
0.775847
0.0133165
-0.0122475
-0.656023
0.654954
0.0106286
-0.00818748
-0.525643
0.523202
0.00575924
-0.00343118
-0.352448
0.35012
0.00188577
-0.000778808
-0.170118
0.169012
0.000213312
-0.0283936
0.0281803
-0.031492
0.0316769
-0.000184866
0.00080481
-0.000850042
-0.245441
0.245486
0.00053749
-2.29067e-05
-0.412587
0.412072
-0.00050187
0.000663127
-0.549956
0.549795
-0.000432066
-2.76e-05
-0.661178
0.661638
0.000766848
-0.001555
-0.779955
0.780744
0.00259288
-0.00375476
-0.923965
0.925127
0.00521234
-0.00665423
-1.09835
1.09979
0.00831413
-0.00987977
-1.30879
1.31035
0.0116026
-0.0131167
-1.56321
1.56472
0.0143483
-0.0152329
-1.5603
1.56119
0.0156797
-0.0158796
-1.30239
1.30259
0.0158492
-0.0155984
-1.09088
1.09063
0.0152495
-0.0147569
-0.917183
0.91669
0.0142577
-0.0136524
-0.775291
0.774686
0.0128998
-0.0117117
-0.653799
0.652611
0.0101216
-0.00790964
-0.520953
0.518741
0.00576378
-0.00362029
-0.348003
0.34586
0.00207516
-0.000882175
-0.167922
0.166729
0.000244806
-0.0279764
0.0277316
-0.0318844
0.0321133
-0.000228905
0.00111248
-0.00136208
-0.245631
0.245881
0.00133318
-0.00118034
-0.411823
0.41167
0.001132
-0.00140233
-0.549855
0.550125
0.0020954
-0.0029121
-0.662326
0.663143
0.00389943
-0.00490333
-0.781766
0.78277
0.00614438
-0.0074053
-0.926216
0.927477
0.00890907
-0.0103472
-1.10108
1.10252
0.0119824
-0.0134835
-1.31179
1.31329
0.0150613
-0.0163365
-1.56605
1.56732
0.017271
-0.0178382
-1.5619
1.56247
0.0179931
-0.0178571
-1.30268
1.30254
0.0175595
-0.0170844
-1.0903
1.08982
0.016533
-0.0158809
-0.916004
0.915352
0.0152447
-0.0144632
-0.77387
0.773089
0.0136329
-0.0124636
-0.651427
0.650258
0.0109562
-0.00878626
-0.516722
0.514552
0.00654957
-0.00419539
-0.343737
0.341383
0.00244497
-0.0010637
-0.165494
0.164113
0.000304398
-0.027485
0.0271806
-0.0323727
0.0326625
-0.00028988
0.00156549
-0.00204758
-0.246217
0.246699
0.00219434
-0.00211732
-0.411624
0.411547
0.0021285
-0.00248308
-0.550471
0.550826
0.00326617
-0.00426499
-0.664204
0.665203
0.00553376
-0.00682438
-0.784044
0.785335
0.00844012
-0.0100523
-0.928763
0.930376
0.0118852
-0.01362
-1.10394
1.10567
0.0155668
-0.0173091
-1.31476
1.31651
0.0190769
-0.0204473
-1.56852
1.56989
0.0213935
-0.0219006
-1.56294
1.56344
0.0219683
-0.0216732
-1.30232
1.30202
0.0211303
-0.0203531
-1.08917
1.08839
0.0196271
-0.0188477
-0.91462
0.91384
0.0180988
-0.0173187
-0.772198
0.771418
0.0164163
-0.0150051
-0.649041
0.64763
0.0130627
-0.0102805
-0.512299
0.509517
0.00753535
-0.00478991
-0.33894
0.336194
0.00281317
-0.00125287
-0.162702
0.161142
0.000370746
-0.0268777
0.026507
-0.0330005
0.0333794
-0.000378893
0.00223241
-0.00308613
-0.247324
0.248178
0.00359423
-0.00356196
-0.411517
0.411484
0.00334433
-0.0034433
-0.551091
0.55119
0.00394957
-0.00476848
-0.666262
0.667081
0.00606811
-0.00759688
-0.786884
0.788413
0.0095982
-0.0116371
-0.932019
0.934058
0.0140786
-0.0164288
-1.10753
1.10988
0.0190514
-0.0214024
-1.31841
1.32076
0.0238016
-0.025699
-1.57142
1.57332
0.0271009
-0.0279697
-1.56409
1.56495
0.0282662
-0.0281912
-1.30184
1.30176
0.0278289
-0.0271975
-1.0876
1.08697
0.0263815
-0.0252468
-0.91273
0.911595
0.0241331
-0.0227778
-0.770353
0.768997
0.0209973
-0.0184261
-0.645832
0.643261
0.0153653
-0.0115935
-0.506434
0.502662
0.00831983
-0.00529551
-0.333426
0.330402
0.00316118
-0.00144225
-0.159584
0.157865
0.00043778
-0.0261452
0.0257074
-0.0338283
0.0343412
-0.000512944
0.0031864
-0.00460907
-0.249303
0.250726
0.00574843
-0.0061546
-0.411649
0.412055
0.00586936
-0.0055458
-0.551105
0.550782
0.00566705
-0.0062782
-0.667964
0.668575
0.00748039
-0.00910518
-0.790081
0.791706
0.0114853
-0.0141053
-0.936156
0.938776
0.0172879
-0.0203367
-1.1124
1.11545
0.0237211
-0.0267308
-1.32334
1.32635
0.0298044
-0.0322564
-1.57545
1.5779
0.0340796
-0.0352698
-1.566
1.56719
0.0357302
-0.0357254
-1.3018
1.3018
0.0353514
-0.0345607
-1.0862
1.08541
0.0335135
-0.0320909
-0.910175
0.908752
0.0304231
-0.0279471
-0.767023
0.764547
0.0249811
-0.0209884
-0.640042
0.636049
0.0169224
-0.0125241
-0.498737
0.494339
0.00902229
-0.0058694
-0.32748
0.324327
0.00358593
-0.00166843
-0.156156
0.154239
0.000513926
-0.0252845
0.0247705
-0.0349423
0.0356471
-0.000704803
0.00444013
-0.00659994
-0.252511
0.254671
0.00865169
-0.00986818
-0.412818
0.414034
0.0102513
-0.0100583
-0.550623
0.55043
0.00991603
-0.0104112
-0.669269
0.669764
0.0117223
-0.0136947
-0.793445
0.795417
0.0166496
-0.019781
-0.941411
0.944542
0.0235158
-0.0270529
-1.11858
1.12212
0.0309284
-0.0343161
-1.32946
1.33285
0.0376904
-0.0402715
-1.5804
1.58298
0.0420448
-0.0430048
-1.56829
1.56925
0.0431881
-0.042786
-1.30166
1.30126
0.0419648
-0.0406631
-1.08432
1.08302
0.0391293
-0.0369828
-0.906855
0.904709
0.0344192
-0.0308567
-0.761311
0.757749
0.0270376
-0.0223508
-0.631696
0.627009
0.0179882
-0.0135237
-0.490151
0.485687
0.00999403
-0.00669049
-0.321347
0.318043
0.00415989
-0.00195223
-0.152315
0.150108
0.00060207
-0.0242785
0.0236764
-0.0364525
0.0374097
-0.000957197
0.00601052
-0.00904732
-0.25725
0.260286
0.0121679
-0.0144081
-0.415806
0.418046
0.0158708
-0.0166011
-0.551091
0.551821
0.0172583
-0.0182732
-0.670545
0.67156
0.0202401
-0.022755
-0.797493
0.800008
0.0261162
-0.0295457
-0.947516
0.950945
0.0335581
-0.0372924
-1.12554
1.12927
0.0412959
-0.0446803
-1.33611
1.3395
0.0478685
-0.0500686
-1.58532
1.58752
0.0512792
-0.0515127
-1.56986
1.57009
0.0509427
-0.0496226
-1.30043
1.29911
0.0479324
-0.0456803
-1.08119
1.07894
0.043248
-0.0401135
-0.901851
0.898717
0.0368049
-0.0327061
-0.753646
0.749548
0.02861
-0.0239165
-0.622343
0.617649
0.0196808
-0.0152912
-0.481637
0.477247
0.0116185
-0.00793993
-0.314884
0.311205
0.00499095
-0.00234777
-0.147861
0.145218
0.000721637
-0.0231011
0.0223794
-0.0384743
0.039778
-0.00130365
0.00807123
-0.0121571
-0.26375
0.267836
0.0164674
-0.0198335
-0.421071
0.424437
0.0225949
-0.0245906
-0.553851
0.555847
0.0266294
-0.0288386
-0.67329
0.675499
0.0318457
-0.0350621
-0.802472
0.805688
0.0389769
-0.0427659
-0.954162
0.957951
0.0470258
-0.0508483
-1.13277
1.13659
0.0547757
-0.0579027
-1.34258
1.3457
0.0605609
-0.0620086
-1.58926
1.59071
0.0622592
-0.0613346
-1.56973
1.5688
0.0596653
-0.0571551
-1.29718
1.29467
0.0544174
-0.0510248
-1.07603
1.07264
0.0476282
-0.0436649
-0.894913
0.890949
0.0398499
-0.0354942
-0.745027
0.740672
0.031379
-0.0268017
-0.613054
0.608476
0.0226183
-0.0180566
-0.473235
0.468673
0.0139584
-0.0096502
-0.307634
0.303326
0.00608781
-0.00285119
-0.142524
0.139288
0.000868326
-0.0216938
0.0208254
-0.0411806
0.0430138
-0.00183324
0.011067
-0.0165402
-0.272369
0.277842
0.0222676
-0.026856
-0.4289
0.433489
0.0309195
-0.0341766
-0.559348
0.562605
0.0377014
-0.0413018
-0.678494
0.682094
0.0456455
-0.0498627
-0.808926
0.813143
0.0546413
-0.0590042
-0.961601
0.965964
0.0636542
-0.067606
-1.14016
1.14411
0.0714092
-0.0741646
-1.34842
1.35118
0.0761067
-0.076592
-1.59154
1.59202
0.0756749
-0.0734014
-1.56713
1.56486
0.0705068
-0.0667165
-1.29147
1.28768
0.0628652
-0.0583565
-1.06858
1.06407
0.0540961
-0.0493879
-0.886344
0.881636
0.0450948
-0.0404291
-0.735826
0.73116
0.036159
-0.0314255
-0.603825
0.599092
0.0269595
-0.0218414
-0.464338
0.45922
0.0170172
-0.0117606
-0.29911
0.293853
0.00737022
-0.00342102
-0.136025
0.132075
0.00102966
-0.0199978
0.0189681
-0.044901
0.0475627
-0.00266167
0.0155611
-0.0229135
-0.283773
0.291125
0.0303759
-0.0363298
-0.439661
0.445615
0.0417796
-0.0464035
-0.567688
0.572312
0.0516028
-0.0567266
-0.686459
0.691583
0.0626118
-0.068026
-0.817437
0.822851
0.0738503
-0.0789046
-0.970248
0.975302
0.0840094
-0.0880818
-1.14779
1.15186
0.0916794
-0.0939355
-1.35343
1.35568
0.0949832
-0.0943354
-1.59177
1.59112
0.0921069
-0.0883885
-1.56177
1.55805
0.0842146
-0.0790909
-1.28317
1.27805
0.0741047
-0.0684901
-1.05889
1.05328
0.0633648
-0.057863
-0.876225
0.870723
0.0529912
-0.0478293
-0.725812
0.72065
0.0431571
-0.037915
-0.594033
0.58879
0.0328096
-0.0267449
-0.454191
0.448126
0.0208651
-0.0143774
-0.288702
0.282215
0.00895462
-0.00411552
-0.128117
0.123278
0.00122275
-0.017991
0.0167682
-0.0501975
0.0543082
-0.00411068
0.0228469
-0.032869
-0.299086
0.309108
0.0426597
-0.0503383
-0.454084
0.461762
0.0574062
-0.0636078
-0.579228
0.585429
0.070745
-0.0775178
-0.697392
0.704165
0.0849827
-0.0915552
-0.828266
0.834838
0.0983171
-0.103914
-0.980192
0.985788
0.109254
-0.113213
-1.15554
1.1595
0.11632
-0.11781
-1.35729
1.35878
0.117677
-0.115657
-1.58959
1.58757
0.111928
-0.106624
-1.55343
1.54812
0.101083
-0.0945604
-1.27216
1.26563
0.0884097
-0.0816447
-1.04696
1.0402
0.0755807
-0.0691652
-0.864411
0.857996
0.063564
-0.057694
-0.714547
0.708677
0.0523814
-0.0463093
-0.582938
0.576866
0.0402387
-0.0328631
-0.442015
0.434639
0.0256091
-0.0175681
-0.275872
0.267831
0.010849
-0.00491611
-0.118502
0.112569
0.00143175
-0.015619
0.0141873
-0.0581465
0.0653484
-0.00720188
0.0362239
-0.0504308
-0.32047
0.334677
0.0637161
-0.073453
-0.473295
0.483032
0.0820997
-0.0899713
-0.594484
0.602355
0.0991211
-0.107344
-0.71135
0.719573
0.115933
-0.123133
-0.841151
0.848351
0.130218
-0.135783
-0.990946
0.996511
0.140755
-0.144053
-1.16278
1.16608
0.146134
-0.146384
-1.35937
1.35962
0.144631
-0.140874
-1.58445
1.5807
0.135363
-0.128272
-1.54177
1.53468
0.121226
-0.113216
-1.25828
1.25027
0.105832
-0.0978497
-1.03269
1.0247
0.0907767
-0.0833611
-0.850679
0.843264
0.0769211
-0.070193
-0.701607
0.694879
0.0640906
-0.0569888
-0.569859
0.562758
0.0496
-0.0404853
-0.427003
0.417889
0.0314452
-0.0214574
-0.259917
0.249929
0.0131253
-0.00584899
-0.106897
0.0996203
0.00164509
-0.0128726
0.0112275
-0.0722363
0.0759245
-0.00368825
0.0264229
-0.0388595
-0.351866
0.364303
0.0504889
-0.0595942
-0.497965
0.50707
0.0685438
-0.0780309
-0.613366
0.622853
0.0888347
-0.0984399
-0.727261
0.736867
0.109066
-0.118415
-0.854728
0.864077
0.12813
-0.136463
-1.00113
1.00946
0.144768
-0.151423
-1.16825
1.17491
0.15736
-0.161249
-1.3586
1.36249
0.163348
-0.162754
-1.57559
1.575
0.159338
-0.153514
-1.52636
1.52054
0.146653
-0.137951
-1.24131
1.23261
0.12948
-0.119355
-1.01592
1.00579
0.110166
-0.100195
-0.834883
0.824912
0.0914021
-0.0821043
-0.68669
0.677392
0.0733406
-0.0633603
-0.554265
0.544285
0.0531543
-0.0407317
-0.408261
0.395839
0.0292852
-0.0178914
-0.239942
0.228549
0.00954917
-0.00355032
-0.0929093
0.0869104
0.000702799
-0.00981179
0.00910899
-0.0832771
0.0806709
0.00260629
0.00467425
-0.0121566
-0.37971
0.387193
0.0207487
-0.0278878
-0.520726
0.527865
0.0360627
-0.0442924
-0.633726
0.641955
0.054002
-0.0628692
-0.746239
0.755106
0.0722719
-0.0807647
-0.872982
0.881474
0.089593
-0.0968678
-1.01752
1.02479
0.104315
-0.109932
-1.18138
1.18699
0.114874
-0.117761
-1.36606
1.36895
0.11857
-0.116933
-1.57347
1.57183
0.112585
-0.105932
-1.51374
1.50709
0.0982653
-0.0888965
-1.22325
1.21388
0.079924
-0.069739
-0.995196
0.985011
0.0602558
-0.0498342
-0.813704
0.803282
0.0406316
-0.0314055
-0.665209
0.655983
0.0236076
-0.0156574
-0.531231
0.523281
0.00875232
-0.00257715
-0.382621
0.376445
-0.00115873
0.00315192
-0.216593
0.2146
-0.00347548
0.00237903
-0.0800794
0.0811759
-0.0010688
-0.00755146
0.00862026
-0.0835842
0.0804952
0.00308896
-0.00345582
-0.000333964
-0.398082
0.401872
0.00563664
-0.0110505
-0.538783
0.544197
0.0178223
-0.0249609
-0.651189
0.658328
0.0332758
-0.0408938
-0.763339
0.770957
0.0491897
-0.0565384
-0.889318
0.896667
0.0639612
-0.0704501
-1.03193
1.03842
0.0769103
-0.0818918
-1.19223
1.19721
0.0858701
-0.0879753
-1.37123
1.37334
0.0883728
-0.0863147
-1.56956
1.5675
0.0817484
-0.0751082
-1.49988
1.49324
0.0676982
-0.0589542
-1.20447
1.19572
0.0503033
-0.0408202
-0.974538
0.965055
0.0320607
-0.0225351
-0.792909
0.783383
0.0143556
-0.00610048
-0.645263
0.637008
-0.000588565
0.00697352
-0.512718
0.506333
-0.0112314
0.0134221
-0.36788
0.365689
-0.0131088
0.0107722
-0.209635
0.211971
-0.00775647
0.00419189
-0.0808059
0.0843705
-0.0014958
-0.00850508
0.0100009
-0.0818881
0.0789286
0.00295954
-0.00656469
0.00499748
-0.409778
0.411345
-0.00177054
-0.00240882
-0.552702
0.556881
0.00838352
-0.0143998
-0.665696
0.671713
0.0215207
-0.0280637
-0.778225
0.784768
0.0351517
-0.0414616
-0.903595
0.909905
0.0482327
-0.0537842
-1.04454
1.05009
0.0595171
-0.06353
-1.20188
1.20589
0.0670314
-0.0688539
-1.37532
1.37715
0.0689753
-0.0667216
-1.56518
1.56293
0.0625652
-0.0566001
-1.48626
1.4803
0.0499689
-0.041887
-1.18703
1.17895
0.0342887
-0.0260154
-0.955573
0.9473
0.0182753
-0.0101953
-0.774024
0.765944
0.00291982
0.00418159
-0.627629
0.620528
-0.00981235
0.0145436
-0.49792
0.493189
-0.0170801
0.017601
-0.35984
0.359319
-0.0158304
0.0119701
-0.210758
0.214618
-0.00834255
0.00422591
-0.0861647
0.0902814
-0.00140939
-0.0104429
0.0118523
-0.0801183
0.0776192
0.00249908
-0.00721032
0.00697056
-0.41747
0.41771
-0.00449758
0.00125232
-0.564113
0.567358
0.0036258
-0.0090405
-0.678033
0.683448
0.0150668
-0.0208688
-0.790878
0.79668
0.0270673
-0.0326134
-0.915905
0.921451
0.0385075
-0.0435483
-1.05559
1.06063
0.0485286
-0.0523751
-1.20987
1.21371
0.0555404
-0.0571985
-1.37875
1.38041
0.0573301
-0.0553311
-1.56069
1.55869
0.0516505
-0.0462042
-1.47392
1.46847
0.0403852
-0.0334878
-1.17113
1.16423
0.0269564
-0.0197442
-0.939081
0.931869
0.0132495
-0.00638759
-0.757888
0.751026
0.000468442
0.00536261
-0.612904
0.607073
-0.0097954
0.0133821
-0.486428
0.482841
-0.0153705
0.0154896
-0.355228
0.355109
-0.0135487
0.0101296
-0.214336
0.217755
-0.00695328
0.00343298
-0.0919342
0.0954545
-0.00116769
-0.0122799
0.0134476
-0.0786565
0.0765794
0.00207713
-0.00674258
0.00677092
-0.422674
0.422645
-0.00532105
0.0025329
-0.573114
0.575902
0.00207701
-0.00671223
-0.688632
0.693267
0.0119545
-0.0170578
-0.801914
0.807018
0.0226434
-0.0276865
-0.926783
0.931826
0.0331918
-0.0377334
-1.06549
1.07003
0.0423652
-0.0459849
-1.21738
1.221
0.0489679
-0.0505859
-1.38193
1.38355
0.0508191
-0.0494483
-1.55676
1.55539
0.0462098
-0.0415819
-1.46283
1.45821
0.03646
-0.0304176
-1.15739
1.15135
0.0249699
-0.0186787
-0.924811
0.91852
0.0131316
-0.00748172
-0.744354
0.738704
0.00259729
0.00215134
-0.601056
0.596307
-0.00573229
0.00869229
-0.477613
0.474653
-0.00998851
0.00995445
-0.351792
0.351826
-0.00873848
0.00626797
-0.217043
0.219514
-0.00410191
0.00203059
-0.0961236
0.0981949
-0.00071067
-0.0136135
0.0143242
-0.0776567
0.0760728
0.00158386
-0.00560833
0.0058011
-0.426583
0.426391
-0.00444354
0.00223461
-0.581141
0.58335
0.00195235
-0.00615639
-0.697947
0.702151
0.0111827
-0.0156581
-0.81191
0.816386
0.0206529
-0.0252107
-0.93695
0.941508
0.030539
-0.0347792
-1.07468
1.07892
0.0390472
-0.0426286
-1.22453
1.22812
0.045951
-0.0476364
-1.38528
1.38697
0.0482169
-0.0471159
-1.55376
1.55266
0.0446416
-0.0403698
-1.45353
1.44926
0.0360019
-0.0308066
-1.14532
1.14013
0.0259128
-0.0205997
-0.912432
0.907119
0.0157542
-0.0107046
-0.732982
0.727933
0.00670787
-0.00252332
-0.591204
0.587019
-0.000692126
0.00314523
-0.47028
0.467827
-0.00449363
0.00489018
-0.348929
0.348533
-0.00435701
0.00311042
-0.218115
0.219362
-0.00202978
0.00106692
-0.0979176
0.0988804
-0.000433986
-0.0141421
0.014576
-0.0772198
0.0759982
0.00122169
-0.00438055
0.00460855
-0.429783
0.429555
-0.00324026
0.00102841
-0.588213
0.590425
0.00283132
-0.00663228
-0.706414
0.710215
0.0110159
-0.0153799
-0.820952
0.825316
0.0200697
-0.0248289
-0.945979
0.950738
0.0295271
-0.0336709
-1.08334
1.08748
0.0381713
-0.0416458
-1.23166
1.23513
0.0446599
-0.0469106
-1.38866
1.39091
0.0478555
-0.0472541
-1.5517
1.5511
0.0451555
-0.041662
-1.44524
1.44174
0.0378125
-0.0331402
-1.13471
1.13004
0.0287807
-0.0239338
-0.901723
0.896876
0.0195469
-0.0151109
-0.722951
0.718515
0.0111964
-0.00742715
-0.582469
0.5787
0.00452917
-0.00196335
-0.463967
0.461402
0.000381925
0.000290153
-0.345525
0.344853
-0.000622415
0.000641059
-0.217272
0.217253
-0.000600588
0.000452392
-0.0977303
0.0978785
-0.000281413
-0.0141308
0.0144122
-0.0773427
0.0763237
0.00101899
-0.0030256
0.00299985
-0.432801
0.432826
-0.00178357
-0.000520575
-0.594742
0.597046
0.00407176
-0.00776556
-0.714362
0.718056
0.0120121
-0.0160286
-0.829604
0.833621
0.0208861
-0.0249267
-0.955021
0.959062
0.0296601
-0.0337029
-1.09184
1.09589
0.0381789
-0.0419275
-1.23865
1.2424
0.045344
-0.0475093
-1.393
1.39516
0.0489361
-0.0488634
-1.55049
1.55041
0.0474851
-0.0443544
-1.43814
1.43501
0.0409346
-0.0366235
-1.12543
1.12112
0.032586
-0.0279589
-0.891774
0.887147
0.0238966
-0.0195673
-0.713789
0.70946
0.0158328
-0.012119
-0.574506
0.570792
0.00911423
-0.00661436
-0.457682
0.455182
0.00469507
-0.00344713
-0.341398
0.34015
0.00233862
-0.00136565
-0.214686
0.213713
0.000585765
2.78359e-05
-0.0959849
0.0953713
-0.000189926
-0.0136848
0.0138747
-0.0777513
0.0770372
0.000714047
-0.0018606
0.00136961
-0.436021
0.436512
-0.000275682
-0.00213107
-0.600581
0.602988
0.00537122
-0.00895928
-0.721836
0.725424
0.0130625
-0.0172323
-0.837611
0.841781
0.0215327
-0.0257742
-0.963382
0.967623
0.0305208
-0.0344139
-1.1004
1.10429
0.0390519
-0.042835
-1.24602
1.2498
0.0463985
-0.0491696
-1.39779
1.40056
0.051184
-0.0514647
-1.55042
1.5507
0.0503636
-0.0479325
-1.43202
1.42959
0.0449931
-0.0409458
-1.11662
1.11257
0.0370322
-0.032758
-0.882373
0.878099
0.0284594
-0.0243278
-0.704794
0.700662
0.0206123
-0.0167756
-0.56684
0.563003
0.0137784
-0.0108796
-0.451243
0.448344
0.00864299
-0.00662957
-0.336514
0.3345
0.00496908
-0.003187
-0.210618
0.208836
0.00163511
-0.000433343
-0.0930656
0.0918638
-6.66612e-05
-0.0129491
0.0130157
-0.0785479
0.0779828
0.000565085
-0.000897478
0.000430553
-0.439493
0.439959
0.00124334
-0.00345763
-0.606529
0.608743
0.00685776
-0.0103278
-0.728855
0.732325
0.0142964
-0.0181018
-0.845722
0.849527
0.022557
-0.0265285
-0.971932
0.975903
0.031264
-0.0356247
-1.10868
1.11304
0.0399636
-0.0441226
-1.25368
1.25784
0.0481687
-0.051104
-1.40328
1.40622
0.053568
-0.0546698
-1.55122
1.55232
0.054065
-0.0522223
-1.42702
1.42517
0.0494077
-0.0456652
-1.10844
1.1047
0.0420019
-0.0377203
-0.873313
0.869031
0.0336091
-0.0293758
-0.695966
0.691733
0.0255875
-0.021549
-0.558804
0.554765
0.0182413
-0.015073
-0.444399
0.441231
0.0122416
-0.0096071
-0.330448
0.327813
0.00725898
-0.0047656
-0.205118
0.202625
0.0026798
-0.000961452
-0.089214
0.0874957
0.000115452
-0.0120413
0.0119259
-0.0795956
0.0791951
0.000400496
0.00014645
-0.000843495
-0.44313
0.443827
0.00238251
-0.00483947
-0.612092
0.614549
0.00815386
-0.0114723
-0.735652
0.73897
0.0155304
-0.0192094
-0.853385
0.857064
0.0235368
-0.0276481
-0.980392
0.984504
0.0323205
-0.0366737
-1.1173
1.12165
0.0412668
-0.045496
-1.26197
1.2662
0.0497792
-0.0535075
-1.40948
1.41321
0.0564783
-0.0579354
-1.5534
1.55486
0.058033
-0.056507
-1.4232
1.42168
0.0541999
-0.0508703
-1.10082
1.09749
0.047123
-0.0428632
-0.864338
0.860078
0.0387499
-0.0343071
-0.687042
0.6826
0.0304838
-0.0262173
-0.550628
0.546362
0.0227057
-0.0190152
-0.437014
0.433323
0.0158248
-0.0125518
-0.323279
0.320006
0.00942927
-0.00624628
-0.198312
0.195129
0.00362854
-0.00142781