/*--------------------------------*- C++ -*----------------------------------*\
  =========                 |
  \\      /  F ield         | OpenFOAM: The Open Source CFD Toolbox
   \\    /   O peration     | Website:  https://openfoam.org
    \\  /    A nd           | Version:  6
     \\/     M anipulation  |
\*---------------------------------------------------------------------------*/
FoamFile
{
    version     2.0;
    format      ascii;
    class       volScalarField;
    location    "116.7";
    object      p;
}
// * * * * * * * * * * * * * * * * * * * * * * * * * * * * * * * * * * * * * //

dimensions      [0 2 -2 0 0 0 0];

internalField   nonuniform List<scalar> 
8800
(
1.22087
1.17156
1.1336
1.10553
1.08538
1.0708
1.06022
1.0527
1.04784
1.04581
1.04722
1.0516
1.05842
1.06787
1.08062
1.09795
1.12184
1.15494
1.19788
1.25039
1.05536
1.0617
1.07086
1.07441
1.07181
1.06573
1.0588
1.05258
1.0478
1.04497
1.04478
1.04745
1.05212
1.05828
1.06539
1.07244
1.07733
1.07721
1.07054
1.06165
1.02885
1.03509
1.0396
1.04347
1.04643
1.04739
1.04632
1.04423
1.04228
1.04148
1.04256
1.04506
1.04798
1.05027
1.05081
1.04904
1.04568
1.04168
1.0369
1.03319
1.02452
1.02729
1.0299
1.03207
1.03382
1.0354
1.03653
1.03691
1.03683
1.03698
1.03784
1.03903
1.03981
1.03969
1.03874
1.0374
1.03575
1.03346
1.03105
1.02949
1.01943
1.02086
1.0227
1.02479
1.02652
1.02783
1.02896
1.02997
1.03082
1.03162
1.0324
1.03291
1.03298
1.03266
1.03202
1.03093
1.02929
1.02741
1.02606
1.02526
1.01439
1.01529
1.01655
1.01819
1.0199
1.02145
1.02277
1.02393
1.02505
1.02614
1.027
1.02747
1.02753
1.02721
1.02645
1.02529
1.02395
1.0227
1.02189
1.02136
1.00942
1.01007
1.01104
1.01238
1.01385
1.01539
1.01691
1.01833
1.01966
1.02095
1.022
1.02258
1.02267
1.02229
1.02156
1.02065
1.01969
1.01881
1.01824
1.01785
1.00451
1.00502
1.00581
1.00697
1.0083
1.00975
1.0113
1.01291
1.0145
1.01606
1.01734
1.01805
1.01823
1.01798
1.01748
1.01684
1.01614
1.0155
1.01508
1.01478
0.99961
1.00001
1.00068
1.00173
1.00299
1.0044
1.00596
1.00767
1.0095
1.01138
1.01294
1.01388
1.01427
1.01428
1.01404
1.01363
1.01315
1.01272
1.01241
1.01217
0.994631
0.994958
0.995544
0.996515
0.997739
0.999147
1.00076
1.00259
1.00465
1.00686
1.0088
1.01009
1.0108
1.0111
1.01112
1.01097
1.0107
1.01043
1.01021
1.01001
0.989482
0.989753
0.990281
0.991211
0.99243
0.993879
0.995585
0.997589
0.99991
1.00252
1.00492
1.00666
1.00776
1.0084
1.00871
1.00881
1.00876
1.00865
1.0085
1.00832
0.984068
0.984295
0.984787
0.985708
0.986962
0.988496
0.990343
0.992575
0.995238
0.998331
1.00131
1.00358
1.00514
1.00616
1.0068
1.00717
1.00735
1.00738
1.00729
1.00713
0.978288
0.978481
0.978956
0.979897
0.981228
0.982893
0.98494
0.987471
0.99057
0.994265
0.997936
1.00083
1.00293
1.00441
1.00542
1.0061
1.00652
1.00668
1.00664
1.00649
0.97203
0.972195
0.97267
0.973661
0.97511
0.97696
0.979275
0.982193
0.985834
0.990267
0.994774
0.998433
1.00117
1.00317
1.00462
1.00565
1.00632
1.00662
1.00662
1.00648
0.965162
0.965305
0.965795
0.966864
0.968477
0.970573
0.973237
0.976643
0.980955
0.986288
0.991803
0.99637
0.999863
1.00248
1.00443
1.00586
1.00682
1.00727
1.00731
1.00717
0.957531
0.957651
0.958169
0.959346
0.961174
0.963588
0.966695
0.97071
0.975848
0.982275
0.989003
0.994652
0.999039
1.00239
1.00494
1.00684
1.00812
1.00872
1.00879
1.00864
0.948931
0.949034
0.949587
0.950909
0.953015
0.955831
0.959492
0.964264
0.970419
0.978173
0.986354
0.993289
0.99873
1.00294
1.00621
1.00866
1.01031
1.01106
1.01116
1.01101
0.939075
0.939175
0.939798
0.9413
0.943765
0.947087
0.951441
0.957153
0.964557
0.97392
0.983837
0.992291
0.998977
1.00421
1.00831
1.01141
1.01347
1.01438
1.01451
1.01434
0.927671
0.927749
0.928463
0.930216
0.933125
0.937087
0.942315
0.9492
0.958142
0.969455
0.981438
0.991673
0.999815
1.00624
1.01131
1.01517
1.01768
1.01874
1.01889
1.01871
0.914268
0.914334
0.915159
0.91723
0.920707
0.925491
0.931832
0.940195
0.951042
0.964717
0.979148
0.991457
1.00127
1.00907
1.01527
1.01998
1.02297
1.02418
1.02433
1.02413
0.898255
0.898312
0.899292
0.901789
0.906014
0.911873
0.919656
0.929905
0.943127
0.959662
0.976968
0.991663
1.00338
1.01275
1.02022
1.02587
1.02934
1.03066
1.0308
1.03058
0.878774
0.878828
0.880034
0.883132
0.888381
0.89569
0.905387
0.918085
0.93429
0.954281
0.974927
0.992316
1.00617
1.01728
1.02614
1.03279
1.0367
1.03807
1.03817
1.03793
0.85456
0.854619
0.856185
0.860187
0.866911
0.876257
0.888585
0.904521
0.924486
0.948614
0.973081
0.993454
1.00963
1.02264
1.03298
1.04062
1.04484
1.04617
1.04621
1.04596
0.82363
0.823721
0.825912
0.83139
0.840434
0.852794
0.868853
0.889106
0.913779
0.942786
0.97153
0.995133
1.01378
1.02876
1.04064
1.04913
1.05346
1.05465
1.05461
1.05435
0.782627
0.78286
0.786348
0.79456
0.807543
0.824612
0.846012
0.871957
0.902392
0.93701
0.970429
0.997434
1.01862
1.03562
1.04895
1.058
1.06214
1.06306
1.06295
1.06269
0.725133
0.726341
0.733347
0.747293
0.767182
0.791564
0.82039
0.853534
0.89074
0.931579
0.969951
1.00045
1.02416
1.04307
1.05764
1.06682
1.07041
1.071
1.07081
1.07058
0.641839
0.650041
0.666242
0.69073
0.720975
0.755157
0.793015
0.834384
0.879038
0.926583
0.970246
1.00448
1.03092
1.05183
1.06726
1.07606
1.07889
1.07916
1.07894
1.07876
0.552754
0.570864
0.597212
0.633042
0.67422
0.718306
0.765153
0.814783
0.867084
0.92177
0.97136
1.00998
1.03969
1.06275
1.07867
1.08628
1.08807
1.08807
1.0879
1.08779
0.476114
0.49829
0.533109
0.578633
0.629479
0.682902
0.738493
0.796211
0.855925
0.917366
0.9724
1.01493
1.04745
1.07215
1.08784
1.09402
1.09507
1.095
1.09488
1.09481
0.412861
0.43753
0.478177
0.530652
0.58904
0.650224
0.713487
0.778572
0.845151
0.912859
0.972894
1.01893
1.05388
1.07973
1.09494
1.10012
1.10081
1.10073
1.10063
1.10057
0.360066
0.386279
0.431154
0.489012
0.553395
0.62091
0.690643
0.762153
0.834888
0.908309
0.972937
1.02222
1.05935
1.08612
1.10081
1.1052
1.10568
1.10559
1.1055
1.10545
0.315154
0.342286
0.390294
0.452494
0.521881
0.594756
0.670031
0.747149
0.825367
0.903965
0.972786
1.02504
1.06415
1.09166
1.10577
1.10955
1.10989
1.10979
1.10972
1.10967
0.276043
0.303776
0.354221
0.420013
0.493661
0.571187
0.651353
0.733483
0.816662
0.899975
0.972617
1.02755
1.06841
1.09647
1.11001
1.11332
1.11357
1.11346
1.11339
1.11335
0.241221
0.269406
0.321845
0.390693
0.468031
0.549645
0.6342
0.720904
0.808661
0.896344
0.972475
1.02981
1.07219
1.10064
1.11365
1.1166
1.11677
1.11664
1.11656
1.11652
0.209633
0.238204
0.29232
0.363838
0.444431
0.529681
0.61821
0.709131
0.801191
0.892992
0.972365
1.03183
1.07552
1.10421
1.11671
1.11937
1.11947
1.11932
1.11923
1.11918
0.180425
0.209382
0.264997
0.338922
0.422411
0.510932
0.603085
0.697932
0.794079
0.889847
0.972295
1.03367
1.07842
1.10719
1.11917
1.12161
1.12165
1.12147
1.12137
1.12132
0.153164
0.182452
0.239428
0.315517
0.401621
0.49311
0.588596
0.687118
0.787189
0.886868
0.972318
1.03542
1.08095
1.10957
1.12103
1.12328
1.12328
1.12309
1.12299
1.12292
0.127316
0.15701
0.215236
0.293305
0.381786
0.475983
0.574557
0.676539
0.780406
0.884009
0.972518
1.03722
1.08322
1.11143
1.12231
1.12439
1.12439
1.12423
1.12412
1.12404
0.102698
0.132792
0.192184
0.272062
0.362701
0.459383
0.560821
0.666073
0.773627
0.881229
0.972988
1.03926
1.08544
1.11291
1.1231
1.12505
1.12509
1.12497
1.12489
1.12481
0.0791092
0.109608
0.170088
0.251629
0.344234
0.443187
0.547276
0.655609
0.766748
0.878448
0.973784
1.0418
1.08787
1.11419
1.12356
1.12541
1.12554
1.12548
1.12541
1.12533
0.0563968
0.0873483
0.148839
0.231906
0.326279
0.427308
0.533846
0.645074
0.759677
0.875561
0.974912
1.0451
1.09095
1.11557
1.12378
1.12555
1.12587
1.12587
1.12578
1.12568
0.0344369
0.0658763
0.128377
0.212827
0.30879
0.41169
0.520477
0.634404
0.752331
0.87244
0.976298
1.04938
1.09521
1.11756
1.12389
1.12527
1.12593
1.12617
1.12612
1.12593
0.0133121
0.0452088
0.108665
0.19434
0.291729
0.39632
0.507138
0.623565
0.744647
0.868973
0.977787
1.05474
1.10124
1.12102
1.12436
1.12448
1.1253
1.12644
1.12694
1.12671
-0.00700752
0.0253129
0.0896599
0.176429
0.275088
0.381185
0.493835
0.612531
0.736581
0.865037
0.979179
1.06109
1.10957
1.12719
1.12682
1.12422
1.12451
1.12709
1.12939
1.12967
-0.0266214
0.00618459
0.0713344
0.159077
0.258876
0.366307
0.480584
0.601313
0.728101
0.860532
0.980221
1.06819
1.12041
1.13735
1.13363
1.12765
1.12651
1.13063
1.13585
1.13801
-0.0454239
-0.012187
0.0537047
0.14231
0.243107
0.35172
0.467421
0.589939
0.719208
0.855385
0.980654
1.0756
1.13352
1.15196
1.14648
1.13763
1.13406
1.13701
1.14299
1.14601
-0.063525
-0.029847
0.0367397
0.12607
0.227716
0.337355
0.454264
0.578319
0.709785
0.849455
0.980211
1.08292
1.14848
1.17076
1.16554
1.15495
1.14755
1.14206
1.13611
1.14145
-0.0808847
-0.0468675
0.0202839
0.11015
0.212404
0.322891
0.440716
0.565997
0.699341
0.842197
0.978371
1.0896
1.16529
1.19399
1.1905
1.17921
1.16577
1.15081
1.12808
1.13435
-0.0974038
-0.0632601
0.00447617
0.0947248
0.197406
0.308596
0.42693
0.553228
0.688057
0.83364
0.974729
1.09421
1.18199
1.21956
1.21721
1.20311
1.18399
1.15133
1.09801
1.07728
-0.112999
-0.0800918
-0.0102681
0.080226
0.183526
0.294959
0.413179
0.540272
0.676178
0.823874
0.969073
1.09561
1.19597
1.24437
1.23815
1.21744
1.18411
1.12458
1.06395
1.02781
-0.154926
-0.0967492
-0.0236731
0.0656682
0.169976
0.280951
0.399608
0.526975
0.663433
0.812409
0.960642
1.09235
1.20358
1.26105
1.25246
1.20683
1.13691
1.06045
0.989335
0.95011
-0.127156
-0.107843
-0.0440452
0.0459332
0.148917
0.25987
0.378156
0.505478
0.6421
0.791702
0.94193
1.07715
1.18626
1.25147
1.20653
1.06735
0.960169
0.886007
0.816247
0.833901
-0.15682
-0.124257
-0.0595465
0.0300528
0.13274
0.243667
0.362391
0.489432
0.625664
0.774656
0.924033
1.0574
1.15553
1.19191
1.10795
0.942109
0.816416
0.731826
0.643818
0.678949
-0.179303
-0.144448
-0.0780033
0.0116801
0.114368
0.225412
0.344234
0.470795
0.606166
0.75359
0.900171
1.02821
1.11401
1.11256
0.974186
0.798285
0.654728
0.550975
0.450348
0.471421
-0.200905
-0.165103
-0.0973564
-0.00703293
0.0957736
0.206798
0.325256
0.451094
0.585246
0.730387
0.872497
0.99086
1.05756
1.02191
0.83516
0.642123
0.471364
0.329861
0.200179
0.200697
-0.222033
-0.185955
-0.117386
-0.026507
0.0764503
0.187314
0.305206
0.430091
0.562589
0.704735
0.84078
0.948098
0.992457
0.90214
0.696962
0.487294
0.293594
0.135172
-0.0699854
-0.151434
-0.243378
-0.207488
-0.138497
-0.0472641
0.0558308
0.166529
0.283864
0.407666
0.538223
0.676784
0.805649
0.902712
0.916666
0.775928
0.569296
0.350816
0.153763
-0.00866524
-0.12992
-0.239426
-0.265992
-0.230173
-0.16104
-0.0696886
0.0333765
0.143768
0.260395
0.38285
0.510968
0.645063
0.765966
0.848064
0.832404
0.655369
0.448927
0.237221
0.0571597
-0.0408805
-0.0662802
-0.0790057
-0.290036
-0.254305
-0.185138
-0.0938641
0.00894346
0.118805
0.234408
0.3551
0.480161
0.60875
0.720244
0.782658
0.743422
0.539178
0.335523
0.144619
0.00829968
-0.0299262
-0.0378882
-0.0382813
-0.31581
-0.28002
-0.210836
-0.119778
-0.0174206
0.0916169
0.205857
0.324326
0.445682
0.567817
0.669073
0.713103
0.634546
0.431938
0.235572
0.0696414
-0.00642706
-0.0203915
-0.0212575
-0.021112
-0.343311
-0.307354
-0.238162
-0.147438
-0.045747
0.0621935
0.174704
0.290479
0.407514
0.52233
0.612591
0.63749
0.520709
0.33411
0.149296
0.0180305
-0.0106558
-0.0113081
-0.0118325
-0.0114203
-0.3723
-0.336156
-0.267032
-0.176781
-0.0759698
0.0305637
0.140946
0.253553
0.365706
0.472429
0.551559
0.554704
0.420336
0.245195
0.0822212
0.00657746
-0.00800066
-0.00607875
-0.00582399
-0.00543827
-0.402227
-0.366082
-0.297193
-0.207591
-0.107919
-0.00313526
0.104713
0.213646
0.320495
0.418726
0.485989
0.471973
0.328841
0.167321
0.037413
-0.00178201
-0.00109476
-0.00161986
-0.00143099
-0.00114722
-0.432651
-0.396609
-0.328168
-0.239462
-0.141257
-0.0385942
0.0662768
0.171037
0.272186
0.362249
0.415222
0.394515
0.247754
0.106424
0.0116136
0.00331718
0.0017192
0.00139976
0.00145231
0.0016087
-0.462572
-0.426879
-0.359246
-0.271778
-0.175442
-0.0753413
0.0261023
0.126231
0.221228
0.303876
0.345262
0.316161
0.17937
0.0639595
0.00668475
-0.0032616
0.00215898
0.00330373
0.00369731
0.00387125
-0.490458
-0.455641
-0.389404
-0.303665
-0.209705
-0.112672
-0.0151321
0.0799865
0.168454
0.244079
0.280561
0.23688
0.124346
0.0320443
0.00822293
0.00533905
0.00479499
0.0053312
0.0055825
0.00573404
-0.514971
-0.48141
-0.41727
-0.333935
-0.242993
-0.149643
-0.0565359
0.0332541
0.115168
0.183463
0.217384
0.169376
0.0831461
0.0149096
-0.0065418
0.0025182
0.00562863
0.00666981
0.00700521
0.00715974
-0.533566
-0.502111
-0.441111
-0.361091
-0.274003
-0.18507
-0.0969868
-0.0128714
0.0626919
0.123928
0.15474
0.116573
0.0557662
0.0124986
0.00656265
0.00615888
0.00735121
0.00775677
0.00788551
0.0080133
-0.544297
-0.51572
-0.458901
-0.383421
-0.301226
-0.217572
-0.135154
-0.0571114
0.0121566
0.0680945
0.0976418
0.0719893
0.0379409
0.0131239
0.0126916
0.00904016
0.00756579
0.00735923
0.00730529
0.00737478
-0.544523
-0.519915
-0.468604
-0.399118
-0.323052
-0.245693
-0.169612
-0.0979581
-0.0351703
0.0165375
0.0497447
0.0314981
0.0205454
0.00651493
0.00487356
0.00505276
0.00476583
0.00465843
0.00463367
0.00468645
-0.531827
-0.511989
-0.468097
-0.406478
-0.338047
-0.268071
-0.199034
-0.133886
-0.0774707
-0.0318927
0.0134494
-0.00691917
0.0038596
-0.00770553
-0.00610361
-0.00180106
-0.000146691
0.00011985
0.000115615
0.000173089
-0.504409
-0.490001
-0.455674
-0.404346
-0.345194
-0.283737
-0.222394
-0.163805
-0.11295
-0.0750698
-0.0274719
-0.0223382
-0.0123236
-0.0187011
-0.0127104
-0.00876599
-0.00637001
-0.00617866
-0.00650366
-0.00652269
-0.465784
-0.45664
-0.432714
-0.393107
-0.344588
-0.292468
-0.239135
-0.187117
-0.141075
-0.10866
-0.0772954
-0.0478309
-0.0162516
-0.0146383
-0.0218266
-0.0190017
-0.0188096
-0.0197536
-0.0204931
-0.0205409
-0.422994
-0.417777
-0.404112
-0.375895
-0.338358
-0.295148
-0.249387
-0.203461
-0.161272
-0.130038
-0.102171
-0.0746742
-0.0398841
-0.0130747
0.0042382
-0.00847617
-0.0331507
-0.0462995
-0.0501855
-0.0508009
-0.385626
-0.382418
-0.375874
-0.357954
-0.329332
-0.293587
-0.254176
-0.212846
-0.172609
-0.139792
-0.114127
-0.0993181
-0.0975163
-0.119705
-0.151558
-0.185785
-0.188375
-0.149589
-0.126221
-0.12743
-0.358678
-0.356774
-0.353496
-0.342931
-0.321082
-0.290865
-0.25542
-0.216266
-0.175766
-0.138937
-0.111491
-0.105906
-0.148812
-0.221555
-0.293507
-0.329219
-0.332172
-0.296396
-0.250139
-0.23291
-0.338924
-0.338257
-0.337172
-0.331976
-0.316036
-0.289434
-0.255123
-0.215591
-0.17206
-0.128338
-0.0975581
-0.071907
-0.0591933
-0.0765375
-0.121559
-0.131838
-0.119435
-0.0959036
-0.0666402
-0.0515436
-0.327287
-0.327068
-0.326475
-0.324158
-0.313404
-0.288979
-0.254276
-0.212508
-0.164231
-0.110762
-0.0648424
-0.00233208
0.0776553
0.15204
0.193773
0.222604
0.25625
0.290892
0.320388
0.335093
-0.319162
-0.319018
-0.318622
-0.318015
-0.311519
-0.289618
-0.253872
-0.208559
-0.154416
-0.0889886
-0.0210788
0.0662329
0.208032
0.384625
0.549329
0.679153
0.769647
0.828448
0.86359
0.878341
-0.313759
-0.313717
-0.313607
-0.313471
-0.309726
-0.29137
-0.254647
-0.20501
-0.144856
-0.068811
0.0171027
0.114411
0.299933
0.559957
0.832139
1.07109
1.2411
1.3352
1.37591
1.38909
-0.309284
-0.309277
-0.309208
-0.309125
-0.307811
-0.293519
-0.256743
-0.203445
-0.137938
-0.0545307
0.0424431
0.145431
0.342103
0.634267
0.954172
1.24674
1.46927
1.59153
1.63729
1.64938
-0.305428
-0.305415
-0.30529
-0.305043
-0.304941
-0.295051
-0.260088
-0.205029
-0.135333
-0.0484259
0.0530062
0.1576
0.33609
0.614257
0.920263
1.20359
1.42628
1.5518
1.59994
1.61179
-0.302467
-0.302458
-0.302392
-0.302336
-0.302733
-0.29589
-0.264605
-0.209152
-0.137848
-0.0507218
0.0482519
0.145815
0.29279
0.537228
0.797384
1.03028
1.21723
1.32698
1.37012
1.38073
-0.2995
-0.299558
-0.299725
-0.300048
-0.300287
-0.296712
-0.269439
-0.215533
-0.145119
-0.0606483
0.0308636
0.117087
0.229462
0.429033
0.640544
0.818197
0.95924
1.04435
1.0779
1.08589
-0.296405
-0.296498
-0.296635
-0.296786
-0.296974
-0.295795
-0.273435
-0.222954
-0.155855
-0.0768957
0.00554699
0.0794727
0.161932
0.314943
0.480139
0.612728
0.714862
0.776498
0.800212
0.805138
-0.293417
-0.293542
-0.293728
-0.293979
-0.294429
-0.294034
-0.276176
-0.230337
-0.168538
-0.0967205
-0.0237681
0.0388485
0.098169
0.212256
0.337076
0.433969
0.506503
0.549619
0.565756
0.56826
-0.290362
-0.290516
-0.290745
-0.291109
-0.291756
-0.292069
-0.277588
-0.236886
-0.181898
-0.117694
-0.0537451
-0.00150685
0.042102
0.125129
0.217693
0.287689
0.338657
0.367911
0.378087
0.379624
-0.287548
-0.287649
-0.287637
-0.287413
-0.287241
-0.287619
-0.276501
-0.242534
-0.194957
-0.137559
-0.082311
-0.0390582
-0.00571727
0.0561402
0.123834
0.172984
0.207752
0.227359
0.233997
0.234804
-0.286333
-0.286265
-0.285717
-0.284045
-0.281255
-0.279949
-0.27418
-0.248247
-0.206857
-0.155501
-0.108633
-0.0725914
-0.0467291
-0.000243486
0.0503829
0.0854743
0.109611
0.122722
0.126951
0.12718
-0.287932
-0.287799
-0.287233
-0.285633
-0.282899
-0.281036
-0.277068
-0.255837
-0.21714
-0.170976
-0.132021
-0.101461
-0.0799169
-0.0447658
-0.00675299
0.0193965
0.0373423
0.0470777
0.0501073
0.0500372
-0.291087
-0.291259
-0.292024
-0.294305
-0.297636
-0.298154
-0.292159
-0.266719
-0.226031
-0.185192
-0.152947
-0.124594
-0.10731
-0.0787759
-0.0481107
-0.0277269
-0.0137416
-0.00631162
-0.0039882
-0.00424693
-0.291418
-0.292153
-0.295035
-0.303851
-0.317467
-0.321593
-0.310166
-0.275473
-0.233579
-0.1995
-0.168718
-0.142496
-0.128428
-0.105728
-0.079821
-0.0618197
-0.0490995
-0.0423163
-0.0403577
-0.0407836
-0.28694
-0.287701
-0.290526
-0.298912
-0.314203
-0.322356
-0.305345
-0.271719
-0.239242
-0.209918
-0.178689
-0.155378
-0.144313
-0.123156
-0.100248
-0.0843765
-0.0730054
-0.0669634
-0.0652085
-0.0656958
-0.283897
-0.284287
-0.284346
-0.278113
-0.263747
-0.25744
-0.260104
-0.254456
-0.239221
-0.21293
-0.182872
-0.163765
-0.154339
-0.134543
-0.113311
-0.0984024
-0.087909
-0.0825075
-0.0809527
-0.0814849
-0.287843
-0.287264
-0.283044
-0.261373
-0.21952
-0.194437
-0.214716
-0.237957
-0.237099
-0.211046
-0.182878
-0.167536
-0.157304
-0.138223
-0.118704
-0.105048
-0.0954505
-0.0906418
-0.0891723
-0.0896736
-0.305167
-0.302817
-0.299359
-0.287012
-0.264118
-0.244362
-0.253582
-0.266369
-0.248336
-0.210055
-0.181225
-0.165235
-0.154339
-0.134831
-0.116481
-0.103716
-0.0949849
-0.0905124
-0.0891781
-0.0896328
-0.359493
-0.361168
-0.377688
-0.402116
-0.409261
-0.392448
-0.366253
-0.324648
-0.266142
-0.209186
-0.176443
-0.158275
-0.144105
-0.125453
-0.108226
-0.0953697
-0.0863153
-0.0816347
-0.0802962
-0.0808032
-0.440259
-0.450564
-0.479762
-0.509719
-0.519101
-0.500361
-0.454439
-0.368827
-0.272645
-0.201771
-0.166357
-0.14421
-0.128176
-0.110971
-0.0942182
-0.0809039
-0.0711301
-0.0659593
-0.0646805
-0.0653066
-0.474279
-0.485804
-0.508695
-0.529761
-0.53709
-0.518572
-0.463443
-0.356651
-0.252622
-0.182467
-0.14491
-0.120643
-0.108161
-0.0925796
-0.0755713
-0.0618872
-0.0521792
-0.0471874
-0.0461949
-0.0469752
-0.412031
-0.423025
-0.4418
-0.458532
-0.465489
-0.449408
-0.392013
-0.285752
-0.200165
-0.144508
-0.10851
-0.0905027
-0.0835913
-0.0693943
-0.0539861
-0.0420267
-0.0335161
-0.0293386
-0.0289365
-0.0298381
-0.256639
-0.268137
-0.287611
-0.307473
-0.316207
-0.302299
-0.250369
-0.175465
-0.123681
-0.0854431
-0.0614286
-0.0548207
-0.0529945
-0.0408426
-0.0302789
-0.0228869
-0.0169547
-0.0143664
-0.0147327
-0.0156573
-0.00307212
-0.0091522
-0.0325559
-0.0636186
-0.0754073
-0.0734891
-0.0627673
-0.0445731
-0.0337026
-0.0223387
-0.0156109
-0.0125123
-0.0111276
-0.0102226
-0.00635629
-0.00709839
-0.00712504
-0.00734576
-0.00606004
-0.0051576
0.320915
0.500333
0.663254
0.799822
0.906479
0.988112
1.05483
1.10925
1.12241
1.12023
0.590119
0.703891
0.810044
0.900759
0.975945
1.0372
1.08526
1.11785
1.13556
1.1529
0.772176
0.847485
0.921877
0.986678
1.04147
1.0868
1.1227
1.15046
1.17145
1.19084
0.907799
0.961557
1.01548
1.06379
1.10545
1.141
1.17106
1.19644
1.21601
1.23492
1.0185
1.05926
1.09946
1.13725
1.17114
1.20124
1.22768
1.25023
1.26782
1.28591
1.11144
1.14555
1.17903
1.21121
1.24099
1.26807
1.2921
1.31239
1.32783
1.34532
1.19712
1.2281
1.2593
1.28954
1.31774
1.34344
1.36604
1.3846
1.39826
1.41525
1.28238
1.31438
1.34617
1.37681
1.40511
1.43048
1.45226
1.46952
1.48172
1.4982
1.37577
1.41196
1.44637
1.47848
1.50732
1.53238
1.55326
1.56936
1.58083
1.59693
1.48836
1.52904
1.56578
1.59837
1.62659
1.65038
1.66984
1.68499
1.69678
1.71282
1.62969
1.67045
1.70554
1.73491
1.75994
1.78143
1.79984
1.81524
1.8283
1.84422
1.80085
1.83271
1.85963
1.88195
1.90197
1.92063
1.93831
1.95504
1.96992
1.98562
1.98681
2.00397
2.02103
2.03768
2.05375
2.06846
2.08234
2.09679
2.112
2.1293
2.17017
2.18004
2.19319
2.20416
2.21356
2.22321
2.23379
2.24394
2.25322
2.27888
2.38791
2.3822
2.36925
2.355
2.34868
2.35437
2.3725
2.40102
2.43478
2.4711
2.69075
2.5548
2.47526
2.43268
2.41534
2.41934
2.44676
2.50462
2.61226
2.79068
1.12456
1.11826
1.11053
1.09943
1.08586
1.07323
1.06285
1.05487
1.04919
1.04592
1.04565
1.04855
1.05384
1.06124
1.07082
1.08268
1.09625
1.10919
1.11819
1.12573
1.03361
1.03953
1.04761
1.05375
1.05683
1.05633
1.05327
1.04931
1.04576
1.04354
1.04349
1.04582
1.04964
1.05413
1.05826
1.06054
1.05948
1.05486
1.04781
1.03998
1.02683
1.0292
1.03247
1.03526
1.03772
1.03993
1.04113
1.04102
1.04014
1.0394
1.0397
1.04121
1.04306
1.04434
1.04431
1.04287
1.04074
1.03839
1.03542
1.03241
1.02199
1.02308
1.025
1.02735
1.02924
1.03066
1.03191
1.03294
1.0336
1.03406
1.03472
1.03557
1.03612
1.03607
1.03549
1.0346
1.0333
1.03135
1.02926
1.02778
1.0169
1.01754
1.01867
1.02045
1.02231
1.02393
1.02522
1.02633
1.02738
1.02838
1.02929
1.02993
1.03017
1.03004
1.02956
1.02863
1.02724
1.02566
1.02434
1.02354
1.0119
1.01234
1.01313
1.01445
1.016
1.0176
1.01912
1.02048
1.02171
1.02292
1.02401
1.02476
1.02506
1.02492
1.02433
1.02339
1.02228
1.02117
1.02029
1.01976
1.00696
1.00729
1.00791
1.009
1.01033
1.01177
1.0133
1.01484
1.01633
1.01777
1.0191
1.02002
1.02039
1.02027
1.01976
1.01905
1.01826
1.01745
1.01681
1.01642
1.00207
1.00232
1.00282
1.00376
1.00497
1.00633
1.00781
1.00943
1.01112
1.01285
1.01445
1.01559
1.01611
1.01616
1.01589
1.01544
1.01487
1.0143
1.01384
1.01355
0.997141
0.997341
0.997761
0.998591
0.999729
1.00105
1.00253
1.00421
1.00607
1.00807
1.01002
1.01147
1.01227
1.01259
1.0126
1.01239
1.01205
1.01168
1.01137
1.01114
0.992089
0.992249
0.992611
0.993372
0.994473
0.995786
0.997316
0.999097
1.00115
1.00345
1.0058
1.00766
1.00884
1.0095
1.0098
1.00985
1.00975
1.00957
1.00938
1.0092
0.98682
0.986948
0.98727
0.987991
0.989084
0.990435
0.992052
0.993988
0.996283
0.998951
1.00179
1.00417
1.00581
1.00686
1.00749
1.00783
1.00797
1.00798
1.00789
1.00774
0.981236
0.981338
0.981633
0.98234
0.983462
0.984896
0.986647
0.988794
0.991411
0.99454
0.997978
1.00098
1.00316
1.00466
1.00567
1.00633
1.00674
1.00693
1.00694
1.00682
0.975231
0.975311
0.975591
0.976309
0.977496
0.979056
0.980998
0.983428
0.986454
0.990156
0.994326
0.998082
1.00089
1.00293
1.00438
1.00542
1.00611
1.00649
1.00658
1.00648
0.968686
0.968746
0.96902
0.969772
0.97106
0.972795
0.974994
0.97779
0.98133
0.985737
0.990797
0.995452
0.999024
1.00169
1.00365
1.00511
1.00613
1.00672
1.00689
1.00681
0.961458
0.961495
0.961773
0.962582
0.964011
0.965976
0.968507
0.971769
0.975948
0.981219
0.987355
0.993088
0.997565
1.00098
1.00355
1.00549
1.00689
1.0077
1.00796
1.00788
0.953371
0.953388
0.953673
0.95456
0.956173
0.958434
0.961387
0.96523
0.970202
0.976528
0.983963
0.990984
0.996533
1.00082
1.00412
1.00664
1.00847
1.00953
1.00986
1.0098
0.944172
0.944177
0.944486
0.945479
0.947332
0.949968
0.953451
0.958019
0.963969
0.971584
0.980583
0.989136
0.995955
1.00128
1.00542
1.00865
1.01097
1.0123
1.01271
1.01264
0.933589
0.933569
0.933918
0.935062
0.937214
0.940325
0.944474
0.949949
0.957109
0.966298
0.977178
0.987544
0.995854
1.0024
1.00754
1.01157
1.01447
1.01608
1.01656
1.01649
0.921235
0.921195
0.921595
0.922929
0.925463
0.929182
0.934178
0.940794
0.949461
0.960576
0.973713
0.986213
0.996257
1.00421
1.01053
1.01549
1.01903
1.02093
1.02147
1.02139
0.90659
0.906526
0.90701
0.908598
0.911623
0.91613
0.922217
0.93029
0.940848
0.954328
0.97016
0.985154
0.997191
1.00676
1.01443
1.02044
1.02468
1.02686
1.02745
1.02735
0.888925
0.888838
0.889451
0.891397
0.895082
0.900636
0.908162
0.91813
0.931091
0.947482
0.966519
0.984384
0.998683
1.01008
1.01924
1.02642
1.03139
1.03381
1.0344
1.03428
0.867193
0.86709
0.867915
0.870385
0.874999
0.882005
0.891494
0.903986
0.920038
0.940014
0.962823
0.983947
1.00075
1.01415
1.02495
1.03339
1.03905
1.04162
1.04216
1.04201
0.839806
0.839705
0.840888
0.844174
0.85021
0.85934
0.871625
0.887563
0.907616
0.931978
0.959157
0.983902
1.00343
1.01898
1.03151
1.04122
1.04743
1.05
1.05045
1.05026
0.804184
0.804143
0.80598
0.810682
0.819112
0.831608
0.84803
0.868721
0.893907
0.923539
0.955673
0.984347
1.00674
1.02454
1.03884
1.04971
1.0562
1.05859
1.05889
1.05867
0.755745
0.755948
0.75924
0.766943
0.779857
0.797921
0.82052
0.847649
0.879231
0.914992
0.952588
0.98541
1.01075
1.03077
1.04679
1.05857
1.06492
1.0669
1.06702
1.06679
0.68589
0.687432
0.695491
0.710155
0.731392
0.758361
0.789695
0.825028
0.864155
0.906739
0.950129
0.987202
1.01547
1.0376
1.05509
1.06728
1.07302
1.07441
1.07439
1.07417
0.60235
0.605307
0.621058
0.646512
0.679203
0.716641
0.757388
0.801317
0.848349
0.898245
0.948108
0.990205
1.02213
1.04692
1.06581
1.07775
1.08257
1.08347
1.0834
1.08327
0.51649
0.524193
0.547928
0.584148
0.627867
0.675575
0.725728
0.778274
0.833209
0.890358
0.946613
0.993639
1.02909
1.05647
1.0766
1.08772
1.09111
1.09147
1.09137
1.0913
0.445874
0.45585
0.484616
0.528457
0.580796
0.637159
0.695759
0.756347
0.81877
0.882762
0.944949
0.996433
1.03499
1.06443
1.08502
1.09512
1.09765
1.09784
1.09776
1.09771
0.38774
0.398499
0.431115
0.480583
0.539416
0.602657
0.668296
0.735886
0.805039
0.875299
0.942936
0.998519
1.03987
1.07104
1.09186
1.10108
1.10305
1.10314
1.10308
1.10305
0.338798
0.349956
0.385241
0.439081
0.503177
0.572081
0.643609
0.717202
0.792277
0.868177
0.940791
1.00014
1.04408
1.07676
1.09766
1.10608
1.10765
1.10769
1.10764
1.10762
0.296645
0.307984
0.345253
0.402589
0.471056
0.544789
0.621416
0.700263
0.780607
0.861594
0.93874
1.00151
1.04779
1.08179
1.10262
1.11035
1.11164
1.11164
1.11159
1.11158
0.259561
0.270967
0.309785
0.370006
0.442183
0.520094
0.601224
0.684792
0.769929
0.85558
0.936878
1.00274
1.05111
1.08621
1.10689
1.11404
1.11513
1.11509
1.11503
1.11502
0.226291
0.237719
0.277755
0.340457
0.415855
0.497436
0.582584
0.670451
0.760023
0.850037
0.935196
1.00387
1.05408
1.09008
1.11053
1.11719
1.11812
1.11804
1.11797
1.11795
0.195803
0.207266
0.248375
0.313271
0.391524
0.476367
0.565132
0.656943
0.750669
0.844835
0.933655
1.0049
1.0567
1.0934
1.11357
1.1198
1.12061
1.12049
1.1204
1.12037
0.167509
0.179011
0.221071
0.287937
0.368745
0.456523
0.548581
0.644035
0.74168
0.839861
0.932245
1.0059
1.05904
1.09622
1.11599
1.12184
1.12254
1.12239
1.12229
1.12224
0.140908
0.152461
0.195401
0.264061
0.347179
0.43762
0.532696
0.631539
0.732913
0.835023
0.930985
1.00698
1.06122
1.09857
1.1178
1.12328
1.12392
1.12377
1.12366
1.12361
0.115599
0.127287
0.171042
0.241357
0.326577
0.419437
0.517297
0.619309
0.724238
0.830245
0.9299
1.00826
1.06341
1.10058
1.11909
1.1242
1.1248
1.12468
1.12459
1.12454
0.0914242
0.103263
0.147791
0.21962
0.306755
0.401828
0.502247
0.60722
0.71555
0.825425
0.928983
1.00993
1.06584
1.10245
1.11999
1.1247
1.12532
1.12527
1.12522
1.12518
0.0681656
0.080204
0.125469
0.198718
0.287592
0.384674
0.487446
0.59518
0.706754
0.82047
0.928182
1.01213
1.06885
1.10449
1.12068
1.12494
1.12564
1.12569
1.12566
1.12561
0.0458016
0.05802
0.103988
0.178569
0.269011
0.367907
0.472834
0.583126
0.697774
0.815268
0.927398
1.01496
1.07285
1.10717
1.12138
1.12489
1.12576
1.12603
1.126
1.12592
0.0241937
0.0366445
0.0833251
0.159124
0.250958
0.351484
0.458366
0.571016
0.688552
0.809724
0.926489
1.01839
1.0782
1.11118
1.1226
1.1245
1.12528
1.12603
1.1264
1.12637
0.00346942
0.0160558
0.0634365
0.140334
0.233413
0.335408
0.444029
0.558826
0.679049
0.803765
0.925289
1.02231
1.08519
1.11739
1.12541
1.12444
1.12423
1.12563
1.1274
1.128
-0.0165589
-0.00375826
0.0443006
0.122171
0.216354
0.319656
0.429846
0.54655
0.669241
0.797334
0.92363
1.02648
1.09387
1.12666
1.13164
1.12703
1.12453
1.12629
1.13036
1.13278
-0.0357817
-0.0227661
0.0258874
0.104638
0.199816
0.304262
0.415838
0.534237
0.659136
0.790358
0.921353
1.03056
1.10398
1.1394
1.14292
1.13506
1.12977
1.13103
1.13727
1.1429
-0.0542987
-0.0410714
0.00821707
0.087759
0.183795
0.28925
0.402045
0.521904
0.648757
0.782843
0.918318
1.03414
1.11501
1.15525
1.15945
1.1499
1.14187
1.1397
1.13985
1.1366
-0.0720387
-0.0586642
-0.00881016
0.0713513
0.168062
0.274339
0.388143
0.509174
0.637705
0.774369
0.914147
1.03691
1.12687
1.17448
1.1816
1.17194
1.16133
1.15076
1.13924
1.14157
-0.089007
-0.0756476
-0.0252274
0.055455
0.152607
0.259541
0.374133
0.495989
0.62589
0.764716
0.908452
1.038
1.13831
1.19608
1.20754
1.19848
1.18361
1.16913
1.13281
1.09733
-0.105037
-0.0918944
-0.0410401
0.0401934
0.137405
0.244827
0.359982
0.482441
0.613312
0.753802
0.900904
1.03656
1.1472
1.21772
1.23469
1.22227
1.20086
1.16671
1.11364
1.06337
-0.122837
-0.10633
-0.0560663
0.0260361
0.122728
0.230433
0.345292
0.468547
0.600017
0.741656
0.891256
1.03182
1.15084
1.23719
1.26109
1.24104
1.19535
1.13286
1.06271
1.00416
-0.110751
-0.0853817
-0.0302931
0.0557067
0.159634
0.270662
0.391652
0.519046
0.655615
0.804932
0.954162
1.08746
1.19933
1.27477
1.26436
1.17284
1.10377
1.02944
0.959038
0.914601
-0.123796
-0.115715
-0.0733761
0.00306469
0.0999766
0.206958
0.322435
0.445878
0.577688
0.720018
0.871315
1.01601
1.1402
1.23329
1.26892
1.2159
1.08707
0.996499
0.929816
0.854105
-0.143945
-0.133082
-0.0871514
-0.00925406
0.0883225
0.194886
0.309476
0.432237
0.563675
0.705664
0.857124
1.00284
1.12587
1.20616
1.20822
1.08841
0.942318
0.846855
0.774286
0.695961
-0.166022
-0.154003
-0.104913
-0.026043
0.0715241
0.178396
0.293253
0.416092
0.547142
0.688508
0.838493
0.981418
1.09503
1.15888
1.11693
0.953399
0.799573
0.689944
0.603614
0.493308
-0.187466
-0.175457
-0.124749
-0.0447399
0.0528592
0.159906
0.274794
0.397313
0.527636
0.6677
0.814993
0.952544
1.05524
1.0928
1.00236
0.810802
0.637362
0.501354
0.39095
0.247525
-0.208589
-0.196674
-0.144987
-0.0639779