/*--------------------------------*- C++ -*----------------------------------*\
  =========                 |
  \\      /  F ield         | OpenFOAM: The Open Source CFD Toolbox
   \\    /   O peration     | Website:  https://openfoam.org
    \\  /    A nd           | Version:  6
     \\/     M anipulation  |
\*---------------------------------------------------------------------------*/
FoamFile
{
    version     2.0;
    format      ascii;
    class       surfaceScalarField;
    location    "116.7";
    object      phi;
}
// * * * * * * * * * * * * * * * * * * * * * * * * * * * * * * * * * * * * * //

dimensions      [0 3 -1 0 0 0 0];

internalField   nonuniform List<scalar> 
17370
(
-0.0899999
0.089849
0.289162
-0.0714624
0.0537526
0.364485
-0.0381197
0.0276908
0.426597
-0.0196395
0.0146073
0.504284
-0.0107667
0.00827753
0.601891
-0.00627903
0.00490304
0.720433
-0.00373889
0.00289754
0.863748
-0.00215487
0.00159467
1.03601
-0.00107698
0.000663448
1.24292
-0.00025452
-0.000145569
1.49159
0.00052652
-0.000937267
1.4916
0.00133104
-0.00181048
1.24317
0.00233093
-0.00303549
1.03634
0.00385172
-0.00499866
0.864053
0.00636627
-0.00836022
0.721051
0.0108462
-0.0146827
0.603051
0.0197098
-0.0277541
0.507484
0.0381754
-0.0537998
0.431793
0.0715015
-0.0898755
0.36515
0.0900165
0.198994
-0.128139
0.0882316
0.0399076
-0.364602
0.353385
-0.0746664
0.0858836
-0.446478
0.454324
-0.0843786
0.0765324
-0.521193
0.529905
-0.0684342
0.0597219
-0.612792
0.621572
-0.0515324
0.0427525
-0.726897
0.734168
-0.0352912
0.0280205
-0.867477
0.872597
-0.0224174
0.0172978
-1.03848
1.04193
-0.0134836
0.0100288
-1.2446
1.24704
-0.00741397
0.00497685
-1.49262
1.49461
-0.00302382
0.0010354
-1.49251
1.49423
0.000636716
-0.00236229
-1.24397
1.24585
0.00427318
-0.00615386
-1.03751
1.04002
0.00849314
-0.0110066
-0.866096
0.869826
0.0143551
-0.0180853
-0.724388
0.72993
0.0231268
-0.0286692
-0.608695
0.616107
0.0358818
-0.0432938
-0.514894
0.523037
0.0520222
-0.0601647
-0.439854
0.447911
0.0688254
-0.0768822
-0.375293
0.376735
0.0846752
-0.0861175
-0.257327
0.222471
0.0748246
-0.0399681
-0.0685285
0.0587058
0.00982272
-0.0517912
0.0583675
-0.374137
0.367561
-0.0574465
0.0536904
-0.453602
0.457358
-0.0485976
0.0446425
-0.527956
0.531911
-0.0407999
0.037158
-0.621574
0.625216
-0.033052
0.0289707
-0.73536
0.739441
-0.0243924
0.0202248
-0.874351
0.878519
-0.0158695
0.0121672
-1.0435
1.0472
-0.00842125
0.00524161
-1.24857
1.25175
-0.0019071
-0.00117287
-1.49666
1.49974
0.00422641
-0.00749509
-1.4972
1.50047
0.0105672
-0.0141515
-1.25006
1.25365
0.01769
-0.021871
-1.04591
1.05009
0.0258949
-0.0303322
-0.877747
0.882185
0.0342988
-0.0382911
-0.739888
0.74388
0.0418364
-0.0455799
-0.626762
0.630506
0.0494496
-0.0544609
-0.534801
0.539812
0.0581248
-0.0589306
-0.457465
0.458271
0.052216
-0.0320022
-0.335735
0.315521
0.0098916
-0.0683332
0.0584416
-0.0529596
0.0489689
0.00399075
-0.0331286
0.0436592
-0.358139
0.347609
-0.047346
0.0467109
-0.459305
0.45994
-0.0436485
0.0402905
-0.535823
0.539181
-0.0365124
0.0332027
-0.628552
0.631862
-0.0297571
0.0267162
-0.742674
0.745715
-0.0234455
0.0203267
-0.882045
0.885164
-0.0167829
0.0133917
-1.0508
1.05419
-0.00958661
0.00603833
-1.25519
1.25874
-0.00205935
-0.00174661
-1.50325
1.50706
0.00551982
-0.00939562
-1.50412
1.508
0.0127921
-0.0163762
-1.2574
1.26099
0.0195427
-0.0228429
-1.05389
1.05719
0.0257554
-0.0288197
-0.885659
0.888723
0.0316899
-0.0349655
-0.747129
0.750405
0.0381321
-0.0417655
-0.63428
0.637914
0.0449994
-0.0479191
-0.544113
0.547032
0.0484021
-0.0445002
-0.456544
0.452642
0.0337111
-0.0162399
-0.296137
0.278666
0.00407712
-0.0526165
0.0485394
-0.0458974
0.0434082
0.00248918
-0.022761
0.0331165
-0.33694
0.326585
-0.0389179
0.0399218
-0.459637
0.458633
-0.0387206
0.0364264
-0.541911
0.544206
-0.033751
0.0311465
-0.634927
0.637531
-0.028072
0.0251598
-0.748772
0.751685
-0.0218784
0.0188683
-0.888128
0.891138
-0.0155451
0.01243
-1.05733
1.06045
-0.00888798
0.0054662
-1.26221
1.26563
-0.00149063
-0.00240406
-1.51094
1.51483
0.0062544
-0.0100916
-1.51188
1.51572
0.0133125
-0.0165661
-1.26443
1.26768
0.0193885
-0.0223922
-1.06028
1.06328
0.0251276
-0.0281301
-0.891754
0.894756
0.030809
-0.0336494
-0.753596
0.756437
0.0360565
-0.0385354
-0.640966
0.643445
0.0406617
-0.0416391
-0.548821
0.549798
0.0403987
-0.0342498
-0.447339
0.44119
0.0235118
-0.0102624
-0.263418
0.250169
0.00259624
-0.0453687
0.0427724
-0.0413412
0.0395821
0.00175911
-0.0166872
0.0259054
-0.316762
0.307544
-0.0324797
0.0345986
-0.457055
0.454936
-0.0341616
0.0324794
-0.546199
0.547881
-0.0302877
0.0281809
-0.639854
0.641961
-0.0257341
0.0233191
-0.754345
0.75676
-0.0204384
0.0176273
-0.894048
0.896859
-0.0143669
0.0112764
-1.06351
1.0666
-0.0077646
0.00442128
-1.26896
1.2723
-0.000571973
-0.00317464
-1.51862
1.52237
0.00686433
-0.0105365
-1.51944
1.52311
0.0136235
-0.0167692
-1.27094
1.27408
0.0194881
-0.0223404
-1.06629
1.06914
0.0247972
-0.0273161
-0.897542
0.90006
0.0294278
-0.0315712
-0.758867
0.76101
0.0334245
-0.035362
-0.645581
0.647518
0.0367988
-0.0369312
-0.550294
0.550426
0.0344481
-0.0273624
-0.434488
0.427402
0.0176268
-0.00744105
-0.238599
0.228413
0.00189013
-0.0405837
0.0386936
-0.0380699
0.0367506
0.00131926
-0.0127103
0.0206112
-0.298992
0.291091
-0.0273158
0.030206
-0.452407
0.449517
-0.030386
0.0292471
-0.549334
0.550473
-0.0272394
0.0253067
-0.644019
0.645952
-0.0230851
0.0209239
-0.75902
0.761181
-0.0183787
0.015866
-0.899452
0.901965
-0.0128909
0.0099822
-1.06956
1.07247
-0.00658995
0.00332378
-1.27558
1.27884
0.000446521
-0.00409328
-1.52602
1.52967
0.00766847
-0.0112155
-1.52669
1.53024
0.0141604
-0.017096
-1.27722
1.28016
0.0195418
-0.0220072
-1.07185
1.07432
0.0240754
-0.026164
-0.902312
0.904401
0.0279411
-0.029777
-0.762969
0.764805
0.0313887
-0.0330862
-0.649317
0.651014
0.0338661
-0.033258
-0.550185
0.549577
0.0298447
-0.0224371
-0.420094
0.412687
0.0138693
-0.00578596
-0.219377
0.211294
0.00147885
-0.0370331
0.0355542
-0.0356019
0.0345899
0.001012
-0.0098946
0.0165511
-0.283842
0.277185
-0.0229713
0.0262975
-0.446396
0.44307
-0.0270423
0.0263169
-0.551409
0.552135
-0.024536
0.0227302
-0.647876
0.649681
-0.0206309
0.0185823
-0.76328
0.765329
-0.0161704
0.013804
-0.904329
0.906695
-0.0110218
0.00829768
-1.07521
1.07793
-0.00509937
0.00198065
-1.28199
1.28511
0.00166145
-0.00519869
-1.53323
1.53676
0.00864688
-0.0120113
-1.53366
1.53703
0.0147323
-0.0173682
-1.28303
1.28567
0.0195234
-0.0216781
-1.07666
1.07882
0.0234945
-0.0253395
-0.906335
0.90818
0.026911
-0.028531
-0.766521
0.768141
0.0299381
-0.0312862
-0.652567
0.653915
0.031566
-0.0302119
-0.548601
0.547247
0.0261621
-0.0188136
-0.405278
0.397929
0.011317
-0.00469429
-0.204007
0.197384
0.00120627
-0.0342253
0.0330191
-0.0337059
0.0329233
0.000782653
-0.0077989
0.0133674
-0.271107
0.265538
-0.0192822
0.022787
-0.439654
0.436149
-0.023993
0.0235063
-0.552788
0.553275
-0.0219839
0.0202809
-0.6515
0.653203
-0.0182677
0.0162954
-0.767331
0.769303
-0.0139646
0.0116757
-0.908948
0.911237
-0.00898604
0.00636285
-1.08053
1.08315
-0.00329621
0.000312747
-1.28811
1.29109
0.0031658
-0.00653544
-1.54018
1.54355
0.00979571
-0.0129336
-1.54024
1.54337
0.0154303
-0.0178109
-1.28827
1.29065
0.0197407
-0.0216633
-1.08091
1.08283
0.0232767
-0.0249094
-0.909892
0.911525
0.0262947
-0.0277176
-0.76965
0.771073
0.028921
-0.0298763
-0.655066
0.656021
0.0297745
-0.0277356
-0.545537
0.543498
0.0232618
-0.0161534
-0.390689
0.38358
0.00953944
-0.00394511
-0.191321
0.185727
0.0010189
-0.0319162
0.0308973
-0.0322414
0.0316378
0.000603648
-0.00617279
0.0108081
-0.26047
0.255835
-0.0161101
0.019594
-0.432665
0.429181
-0.0211044
0.0208324
-0.553709
0.553981
-0.019531
0.0178806
-0.654943
0.656594
-0.0159132
0.0139795
-0.771242
0.773176
-0.011695
0.00945286
-0.913416
0.915658
-0.00681879
0.00425445
-1.08566
1.08822
-0.00126648
-0.00162191
-1.29397
1.29686
0.00496003
-0.00816196
-1.54678
1.54998
0.0112304
-0.0141531
-1.54635
1.54927
0.0164487
-0.0186036
-1.29303
1.29519
0.020327
-0.0220291
-1.08471
1.08641
0.0234469
-0.0248758
-0.913021
0.91445
0.0260883
-0.0273305
-0.77239
0.773632
0.0283891
-0.0289174
-0.656771
0.657299
0.0284135
-0.0257873
-0.541156
0.538529
0.021037
-0.0142257
-0.376622
0.369811
0.00829826
-0.00342929
-0.180529
0.17566
0.000890675
-0.0299501
0.0290594
-0.0311177
0.0306603
0.000457377
-0.00485447
0.00868057
-0.251637
0.247811
-0.0133234
0.0166356
-0.425804
0.422492
-0.0183076
0.0182124
-0.554231
0.554326
-0.0170911
0.0154669
-0.658314
0.659938
-0.0135093
0.0115774
-0.775087
0.777019
-0.00929633
0.00706434
-0.917795
0.920027
-0.00445216
0.00191939
-1.09068
1.09321
0.00101823
-0.00383994
-1.29965
1.30247
0.00707321
-0.0101407
-1.55305
1.55611
0.0130459
-0.0157746
-1.55203
1.55476
0.0178772
-0.0198069
-1.29737
1.2993
0.0213237
-0.0228085
-1.08808
1.08956
0.0240401
-0.0252814
-0.915744
0.916986
0.0263388
-0.027417
-0.77477
0.775849
0.0282612
-0.0284169
-0.657626
0.657782
0.0274773
-0.0243363
-0.535639
0.532498
0.0193971
-0.0128653
-0.363151
0.35662
0.00744797
-0.00308269
-0.171071
0.166706
0.000806176
-0.0282176
0.0274114
-0.0302751
0.0299428
0.000332323
-0.00374019
0.00685041
-0.244374
0.241264
-0.0108198
0.0138477
-0.419353
0.416326
-0.0155513
0.0155929
-0.554433
0.554392
-0.0145398
0.0129739
-0.661627
0.663193
-0.0109952
0.00902994
-0.778937
0.780902
-0.00671098
0.00445092
-0.922158
0.924418
-0.00181963
-0.000716622
-1.09565
1.09818
0.00363865
-0.00642367
-1.3052
1.30799
0.00958489
-0.0125478
-1.55906
1.56202
0.0153142
-0.0178649
-1.55733
1.55988
0.0197805
-0.021487
-1.30128
1.30299
0.0228
-0.0240729
-1.09102
1.0923
0.025124
-0.0261838
-0.91809
0.91915
0.0270932
-0.0280106
-0.77681
0.777727
0.0285908
-0.028436
-0.657783
0.657628
0.0270096
-0.0233822
-0.529116
0.525488
0.0182859
-0.0119678
-0.350213
0.343894
0.00690271
-0.00286754
-0.16253
0.158495
0.000756047
-0.0266363
0.0258802
-0.0296759
0.0294566
0.000219355
-0.00275309
0.00521188
-0.23851
0.236051
-0.00850494
0.011163
-0.413522
0.410864
-0.0127815
0.0128835
-0.554416
0.554314
-0.0118573
0.0103165
-0.664851
0.666392
-0.00829003
0.00625916
-0.782858
0.784889
-0.00386336
0.00153746
-0.926581
0.928907
0.0011565
-0.00373664
-1.10063
1.10321
0.00668647
-0.0094716
-1.31069
1.31347
0.012596
-0.0154814
-1.56486
1.56775
0.01813
-0.0205187
-1.56226
1.56465
0.0222561
-0.0237429
-1.30477
1.30626
0.0248523
-0.0259113
-1.09356
1.09462
0.0267762
-0.0276432
-0.920067
0.920934
0.0283892
-0.0291363
-0.778466
0.779213
0.0294245
-0.0289143
-0.657345
0.656835
0.0270138
-0.0229187
-0.521648
0.517553
0.0176568
-0.0114577
-0.337659
0.33146
0.00660296
-0.00275687
-0.154575
0.150729
0.000733118
-0.0251411
0.024408
-0.0292997
0.029189
0.000110674
-0.00182835
0.00367059
-0.233931
0.232089
-0.00627895
0.00849433
-0.408476
0.406261
-0.00991768
0.00999933
-0.554342
0.55426
-0.00896257
0.00740437
-0.668063
0.669621
-0.00529781
0.00316723
-0.78691
0.789041
-0.00065417
-0.00177603
-0.931135
0.933566
0.00457633
-0.00724098
-1.1057
1.10837
0.0102627
-0.0130859
-1.31619
1.31901
0.0162103
-0.0190456
-1.57052
1.57335
0.021596
-0.0238362
-1.56686
1.5691
0.025401
-0.0266721
-1.30786
1.30913
0.027579
-0.0284199
-1.09567
1.09651
0.0290897
-0.0297561
-0.921655
0.922321
0.0303444
-0.0309385
-0.779775
0.780369
0.0308533
-0.0299172
-0.656152
0.655216
0.0275122
-0.0229344
-0.51325
0.508672
0.0174657
-0.0112768
-0.325294
0.319105
0.00650551
-0.00273141
-0.146939
0.143165
0.000732356
-0.0236805
0.0229482
-0.0291412
0.0291395
1.66104e-06
-0.000916455
0.00215239
-0.230577
0.229341
-0.00405774
0.00576422
-0.404355
0.402649
-0.00688824
0.0068662
-0.55438
0.554402
-0.00576864
0.00414933
-0.671351
0.67297
-0.00191884
-0.000349435
-0.791161
0.793429
0.00302465
-0.00560203
-0.9359
0.938477
0.00855698
-0.0113506
-1.11096
1.11375
0.0144919
-0.0173942
-1.32177
1.32468
0.0205588
-0.0233748
-1.57607
1.57889
0.0258486
-0.0279533
-1.57114
1.57325
0.0293525
-0.0304115
-1.31053
1.31159
0.0311159
-0.0317351
-1.09736
1.09797
0.0322036
-0.0326544
-0.922836
0.923286
0.0330504
-0.0333598
-0.780686
0.780995
0.0329656
-0.0315203
-0.654101
0.652655
0.0285674
-0.0234571
-0.503873
0.498762
0.017706
-0.0114004
-0.312889
0.306584
0.00658981
-0.00278165
-0.139394
0.135586
0.000751219
-0.0222116
0.0214604
-0.0292042
0.0293188
-0.000114688
2.96912e-05
0.000588848
-0.228436
0.227817
-0.00175715
0.00288736
-0.401293
0.400162
-0.00361063
0.00339925
-0.554711
0.554923
-0.00217952
0.000438133
-0.674811
0.676552
0.00195893
-0.0044108
-0.795685
0.798137
0.00730024
-0.0100735
-0.94096
0.943733
0.0132372
-0.0162089
-1.11648
1.11945
0.0195217
-0.0225471
-1.32753
1.33055
0.0257942
-0.0286224
-1.58159
1.58442
0.0310418
-0.0330238
-1.57513
1.57712
0.0342645
-0.0351113
-1.31279
1.31363
0.0356048
-0.0359904
-1.09859
1.09897
0.0362487
-0.0364768
-0.923579
0.923807
0.0366614
-0.036617
-0.781012
0.780968
0.0358595
-0.0338174
-0.651006
0.648964
0.0302411
-0.0245117
-0.4934
0.48767
0.0183733
-0.0118104
-0.300186
0.293623
0.00683973
-0.00289924
-0.131732
0.127791
0.000787121
-0.0206965
0.0199094
-0.0295038
0.0297578
-0.000254001
0.00102475
-0.00108539
-0.227544
0.227605
0.000711891
-0.000230507
-0.399428
0.398947
9.75299e-06
-0.000507256
-0.555527
0.556025
0.00191875
-0.00384571
-0.678565
0.680492
0.00647216
-0.00916194
-0.800572
0.803262
0.0123259
-0.0153513
-0.946416
0.949441
0.0187862
-0.0219921
-1.12237
1.12557
0.0255347
-0.028731
-1.33354
1.33673
0.032104
-0.0349721
-1.58714
1.59001
0.0373503
-0.03922
-1.57885
1.58072
0.0403125
-0.0409451
-1.3146
1.31523
0.0412138
-0.0413462
-1.09933
1.09946
0.0413739
-0.0413634
-0.923858
0.923848
0.0413587
-0.0408472
-0.780627
0.780115
0.0396424
-0.0368982
-0.646705
0.643961
0.032594
-0.0261222
-0.48164
0.475168
0.0194643
-0.0124905
-0.286893
0.27992
0.00723988
-0.00307558
-0.123758
0.119594
0.000837191
-0.0191021
0.018265
-0.0300817
0.0304792
-0.000397479
0.00213782
-0.00285693
-0.227973
0.228692
0.00336989
-0.0036626
-0.39891
0.399203
0.00410105
-0.00498522
-0.55706
0.557944
0.00666101
-0.00884678
-0.682747
0.684933
0.0117794
-0.0147755
-0.80593
0.808926
0.0182867
-0.0216305
-0.952383
0.955727
0.0254086
-0.0289117
-1.12874
1.13224
0.0327479
-0.0361659
-1.3399
1.34332
0.0397093
-0.0426441
-1.59276
1.5957
0.0449899
-0.0467416
-1.58229
1.58405
0.0476723
-0.0480968
-1.31597
1.31639
0.0481327
-0.0479963
-1.09956
1.09942
0.0477807
-0.0475148
-0.923622
0.923356
0.0472524
-0.0462262
-0.779348
0.778322
0.0444686
-0.040878
-0.640986
0.637395
0.0356984
-0.0283148
-0.468326
0.460942
0.0209754
-0.0134233
-0.272699
0.265147
0.00777348
-0.00330091
-0.115294
0.110822
0.000898099
-0.0174019
0.0165038
-0.0309687
0.0315477
-0.00057897
0.0034201
-0.00493771
-0.229836
0.231353
0.0063803
-0.00751376
-0.399936
0.401069
0.0087322
-0.0101456
-0.559525
0.560939
0.0122301
-0.0147604
-0.687499
0.690029
0.0180903
-0.0214717
-0.811893
0.815275
0.0254157
-0.0291557
-0.958999
0.962739
0.0333596
-0.0372301
-1.13572
1.13959
0.0414276
-0.0451176
-1.34672
1.35041
0.0488713
-0.0518932
-1.59852
1.60154
0.0542126
-0.0558431
-1.58545
1.58708
0.0566125
-0.0568057
-1.31686
1.31706
0.056583
-0.0561605
-1.09922
1.0988
0.0556935
-0.0551467
-0.922844
0.922297
0.0544798
-0.0529541
-0.777134
0.775608
0.0504735
-0.0458537
-0.63354
0.62892
0.0396071
-0.0310958
-0.453098
0.444587
0.0228851
-0.0145771
-0.257263
0.248955
0.00841354
-0.00356026
-0.106177
0.101324
0.000964823
-0.0155762
0.0146114
-0.0322314
0.033045
-0.000813532
0.0050032
-0.00743815
-0.233341
0.235776
0.00996385
-0.0120436
-0.402719
0.404799
0.0141638
-0.0162302
-0.563182
0.565248
0.0188601
-0.021837
-0.693001
0.695978
0.0256798
-0.0295406
-0.818629
0.82249
0.0340202
-0.0382475
-0.966424
0.970652
0.0429702
-0.0472832
-1.14345
1.14777
0.0519095
-0.0559159
-1.35409
1.35809
0.0599061
-0.0630174
-1.60443
1.60755
0.0652948
-0.0667842
-1.58829
1.58978
0.0673838
-0.0672964
-1.3172
1.31712
0.0667988
-0.0660624
-1.09829
1.09755
0.0653308
-0.0645241
-0.921469
0.920663
0.0633307
-0.0611948
-0.773978
0.771842
0.0578205
-0.0519142
-0.62397
0.618064
0.0443439
-0.0344332
-0.4355
0.425589
0.0251353
-0.0158918
-0.240228
0.230984
0.00911447
-0.00383003
-0.0962691
0.0909847
0.00102986
-0.0136168
0.0125869
-0.0339665
0.0350882
-0.00112166
0.00699761
-0.0105432
-0.238725
0.24227
0.014346
-0.0175101
-0.407558
0.410722
0.0206665
-0.0235169
-0.568319
0.57117
0.0268516
-0.0304041
-0.699484
0.703037
0.0349131
-0.0393738
-0.826334
0.830795
0.0445121
-0.0493296
-0.974845
0.979662
0.0546702
-0.0594982
-1.15208
1.15691
0.0646082
-0.0689549
-1.36208
1.36643
0.0731777
-0.0763488
-1.6105
1.61367
0.078542
-0.0798388
-1.59076
1.59206
0.0802303
-0.0798358
-1.31688
1.31648
0.0790382
-0.0779616
-1.0967
1.09562
0.0769629
-0.0758528
-0.919533
0.918423
0.0740961
-0.0711595
-0.769659
0.766722
0.0666311
-0.0590792
-0.611742
0.60419
0.0498513
-0.0382162
-0.414968
0.403332
0.0276014
-0.0172608
-0.22124
0.210899
0.00980273
-0.00407493
-0.0854877
0.0797599
0.00108268
-0.0115318
0.0104491
-0.0363099
0.0378545
-0.00154455
0.00961392
-0.0145399
-0.246341
0.251267
0.0198668
-0.0242932
-0.414823
0.419249
0.0286362
-0.0324247
-0.575269
0.579057
0.0366458
-0.0409629
-0.707223
0.71154
0.046308
-0.0515203
-0.835252
0.840464
0.0574626
-0.0629808
-0.98447
0.989988
0.0690317
-0.0744266
-1.16175
1.16714
0.0800382
-0.0847053
-1.37073
1.3754
0.0891016
-0.0922505
-1.61663
1.61978
0.0942698
-0.0952859
-1.59275
1.59376
0.0953986
-0.0946979
-1.31583
1.31513
0.0935263
-0.0921025
-1.09441
1.09298
0.0908365
-0.089235
-0.91685
0.915249
0.0869566
-0.0829253
-0.763732
0.759701
0.0769026
-0.0672427
-0.596108
0.586448
0.0559409
-0.0422122
-0.390835
0.377107
0.0300618
-0.0185147
-0.2
0.188453
0.0103704
-0.0042469
-0.073835
0.0677116
0.00110993
-0.00935166
0.00824173
-0.0394723
0.0416298
-0.00215746
0.0132219
-0.0199133
-0.256698
0.263389
0.0270725
-0.0329723
-0.424992
0.430892
0.0386896
-0.0436121
-0.584422
0.589345
0.0489395
-0.0542445
-0.716611
0.721916
0.0606714
-0.066812
-0.84568
0.851821
0.0737025
-0.0800081
-0.995517
1.00182
0.0868149
-0.0927701
-1.17253
1.17848
0.0988229
-0.103712
-1.37996
1.38485
0.108137
-0.111108
-1.62263
1.62561
0.112801
-0.1134
-1.59404
1.59464
0.113141
-0.112069
-1.31401
1.31294
0.110505
-0.108707
-1.09142
1.08962
0.107153
-0.105004
-0.913042
0.910894
0.102041
-0.0965221
-0.755573
0.750055
0.0884922
-0.0760984
-0.576097
0.563703
0.0622167
-0.0460128
-0.362371
0.346167
0.0321681
-0.0194141
-0.176338
0.163584
0.010677
-0.00428851
-0.0614455
0.055057
0.00109692
-0.00713431
0.0060374
-0.0437973
0.046901
-0.00310368
0.0184651
-0.0274654
-0.270551
0.279551
0.0368584
-0.0445406
-0.438756
0.446438
0.051925
-0.0582121
-0.596282
0.602569
0.0649755
-0.0716418
-0.728081
0.734747
0.0793431
-0.0865194
-0.857949
0.865126
0.0944211
-0.101512
-1.00813
1.01522
0.108998
-0.115379
-1.18435
1.19073
0.12167
-0.126561
-1.38951
1.3944
0.130747
-0.133291
-1.62815
1.63069
0.134434
-0.134424
-1.59436
1.59435
0.133672
-0.13215
-1.31124
1.30972
0.130187
-0.127953
-1.08766
1.08542
0.125977
-0.123314
-0.907989
0.905326
0.119257
-0.111663
-0.744309
0.736715
0.100934
-0.0850239
-0.550421
0.534511
0.0679994
-0.0490012
-0.328864
0.309866
0.0334461
-0.019669
-0.150343
0.136566
0.0105698
-0.00414381
-0.0486282
0.0422022
0.00103095
-0.00496547
0.00393452
-0.0498853
0.0545919
-0.00470662
0.0266017
-0.0387172
-0.289091
0.301207
0.0509809
-0.0610202
-0.457229
0.467268
0.0704518
-0.0783841
-0.611427
0.619359
0.0869292
-0.0951483
-0.742176
0.750395
0.104258
-0.112466
-0.872266
0.880474
0.121247
-0.128902
-1.02221
1.02986
0.136739
-0.143201
-1.19685
1.20331
0.149315
-0.153823
-1.39887
1.40337
0.157358
-0.159122
-1.63262
1.63438
0.159415
-0.158543
-1.59329
1.59242
0.157135
-0.155059
-1.30728
1.30521
0.152633
-0.14987
-1.08302
1.08026
0.147452
-0.144014
-0.901487
0.898049
0.138361
-0.127742
-0.728629
0.71801
0.113343
-0.0929861
-0.517468
0.497111
0.0722888
-0.0503873
-0.28982
0.267919
0.033365
-0.0190064
-0.122529
0.10817
0.00992704
-0.00377629
-0.0358865
0.0297357
0.000904143
-0.00295084
0.00204669
-0.0588799
0.0669241
-0.00804422
0.040866
-0.0575823
-0.314537
0.331254
0.0738911
-0.0870177
-0.482005
0.495132
0.098569
-0.108142
-0.630388
0.639962
0.118479
-0.128148
-0.759088
0.768757
0.13836
-0.147117
-0.888407
0.897165
0.156134
-0.16372
-1.03714
1.04473
0.171225
-0.177136
-1.2092
1.21511
0.182435
-0.185976
-1.40715
1.41069
0.188303
-0.188817
-1.63529
1.6358
0.187873
-0.185849
-1.59032
1.5883
0.183582
-0.180824
-1.30187
1.29911
0.177839
-0.174477
-1.07727
1.07391
0.171433
-0.166693
-0.892787
0.888046
0.158522
-0.143489
-0.706445
0.691412
0.124089
-0.0984203
-0.475314
0.449645
0.0738744
-0.0494564
-0.245335
0.220917
0.0315813
-0.0173363
-0.0939866
0.0797415
0.00873978
-0.0031914
-0.0238791
0.0183307
0.000715084
-0.0011985
0.000483418
-0.0743897
0.0789666
-0.00457685
0.0315007
-0.0461948
-0.350947
0.365641
0.0608874
-0.0729918
-0.514317
0.526422
0.0841663
-0.0949096
-0.65307
0.663813
0.107261
-0.118562
-0.777717
0.789017
0.131195
-0.142554
-0.904947
0.916306
0.154844
-0.165965
-1.05144
1.06256
0.177883
-0.188411
-1.22001
1.23054
0.199343
-0.208581
-1.41316
1.4224
0.2176
-0.224518
-1.63519
1.64211
0.229406
-0.233029
-1.58483
1.58846
0.23529
-0.23698
-1.29468
1.29637
0.237785
-0.237354
-1.06995
1.06952
0.235896
-0.229923
-0.880303
0.87433
0.216688
-0.191789
-0.674734
0.649835
0.16013
-0.120931
-0.422375
0.383176
0.0864885
-0.0547557
-0.196625
0.164893
0.0333184
-0.0174091
-0.066424
0.0505148
0.00831814
-0.00281706
-0.0132828
0.00778176
0.000550554
0.000244584
-0.000795137
-0.0868982
0.0850647
0.00183358
0.00915969
-0.0189786
-0.383374
0.393193
0.0303423
-0.0392796
-0.543603
0.55254
0.0484856
-0.0576432
-0.677278
0.686435
0.0689474
-0.079553
-0.799766
0.810372
0.0910215
-0.101588
-0.927133
0.937699
0.113013
-0.123024
-1.07347
1.08348
0.133984
-0.143341
-1.24097
1.25033
0.153106
-0.161205
-1.43149
1.43959
0.168846
-0.174692
-1.64855
1.65439
0.178686
-0.18149
-1.59123
1.59404
0.182912
-0.184006
-1.29619
1.29728
0.184413
-0.183532
-1.06756
1.06668
0.180489
-0.171669
-0.862845
0.854024
0.155975
-0.130802
-0.62018
0.595006
0.102822
-0.0721504
-0.341592
0.31092
0.048371
-0.0288461
-0.134656
0.115131
0.0166493
-0.00823409
-0.0360287
0.0276135
0.00368964
-0.00114299
-0.00262318
7.65283e-05
0.000171893
0.00152326
-0.00169516
-0.0888122
0.0858445
0.00296765
-0.000196021
-0.00571048
-0.405826
0.411732
0.0134277
-0.0202298
-0.565781
0.572583
0.0273579
-0.0352843
-0.698082
0.706008
0.045164
-0.054431
-0.819876
0.829143
0.064688
-0.0740031
-0.947483
0.956799
0.0838663
-0.0929462
-1.0934
1.10248
0.102721
-0.111227
-1.25936
1.26786
0.119733
-0.126735
-1.44722
1.45422
0.133554
-0.138552
-1.65989
1.66488
0.141782
-0.14388
-1.59618
1.59828
0.144737
-0.145427
-1.29662
1.29731
0.145267
-0.143922
-1.06304
1.0617
0.139689
-0.129263
-0.841056
0.830631
0.11307
-0.0896454
-0.5663
0.542876
0.0664866
-0.0438705
-0.278468
0.255852
0.0283018
-0.0164817
-0.0962007
0.0843806
0.00938099
-0.00461178
-0.019485
0.0147158
0.00206005
-0.00063359
0.00262013
-0.00404659
9.48849e-05
0.00206015
-0.00215503
-0.087708
0.0848528
0.00285528
-0.00436635
0.00118379
-0.421231
0.424413
0.00399086
-0.00927328
-0.582748
0.58803
0.0154174
-0.0221266
-0.715325
0.722034
0.0306361
-0.0386488
-0.837638
0.84565
0.0475008
-0.055581
-0.965566
0.973646
0.0645552
-0.0724122
-1.11114
1.119
0.081098
-0.0882384
-1.27602
1.28316
0.0957983
-0.102009
-1.46112
1.46733
0.107855
-0.111887
-1.66971
1.67374
0.114679
-0.11645
-1.59986
1.60163
0.117005
-0.116915
-1.29649
1.2964
0.116348
-0.114468
-1.05695
1.05507
0.109362
-0.0986888
-0.816495
0.805822
0.0831723
-0.0629839
-0.51675
0.496561
0.0448942
-0.0288748
-0.232221
0.216202
0.0184548
-0.0107917
-0.0721
0.0644369
0.00620078
-0.003101
-0.00961356
0.00651379
0.00142362
-0.000455319
0.00572204
-0.00669034
7.41037e-05
0.0023742
-0.0024483
-0.0862677
0.0836675
0.00260026
-0.00601445
0.00455649
-0.431827
0.433285
-0.000590231
-0.0034595
-0.596516
0.600565
0.00845704
-0.0145035
-0.729913
0.735959
0.0216787
-0.0287251
-0.852852
0.859898
0.0364252
-0.0434852
-0.981256
0.988316
0.0512559
-0.0582698
-1.12672
1.13373
0.0657531
-0.0722771
-1.29018
1.2967
0.0789021
-0.0843196
-1.47322
1.47864
0.0893689
-0.0927709
-1.67778
1.68118
0.0950724
-0.0962596
-1.60275
1.60393
0.0965266
-0.0962061
-1.29534
1.29502
0.0952245
-0.0927209
-1.04976
1.04725
0.0874206
-0.07689
-0.791604
0.781074
0.063007
-0.0461107
-0.474141
0.457245
0.0322319
-0.0206609
-0.198877
0.187306
0.0132649
-0.00790308
-0.0559918
0.05063
0.00466172
-0.00240262
-0.0029387
0.00067961
0.00114352
-0.000382857
0.00789445
-0.00865512
7.33919e-05
0.00260292
-0.00267631
-0.084796
0.0824979
0.00229806
-0.00636456
0.00556155
-0.439255
0.440058
-0.00308499
-0.000238977
-0.607266
0.61059
0.00501601
-0.0101754
-0.742308
0.747467
0.0163222
-0.0224163
-0.866045
0.872139
0.0292177
-0.0354894
-0.994989
1.00126
0.0425266
-0.0486607
-1.14044
1.14657
0.0553303
-0.0611376
-1.30291
1.30872
0.0669488
-0.0716582
-1.48379
1.4885
0.0759619
-0.0791519
-1.68459
1.68778
0.0809539
-0.08194
-1.6047
1.60569
0.0819375
-0.0812948
-1.29386
1.29321
0.0801679
-0.0770961
-1.04175
1.03868
0.071646
-0.0617551
-0.767447
0.757556
0.0494447
-0.0354145
-0.438316
0.424286
0.0246085
-0.0158818
-0.174326
0.165599
0.0103969
-0.00633806
-0.0443747
0.0403159
0.00381408
-0.00201387
0.00203552
-0.00383573
0.000980364
-0.00034485
0.00958167
-0.0102172
7.2243e-05
0.00278581
-0.00285805
-0.0835246
0.0816518
0.00187275
-0.00589181
0.00560688
-0.44473
0.445015
-0.00359716
0.00108038
-0.616573
0.61909
0.00327682
-0.00789295
-0.752992
0.757608
0.01361
-0.0188133
-0.877756
0.882959
0.0247208
-0.0302096
-1.00746
1.01294
0.0367201
-0.0421712
-1.15269
1.15814
0.0479911
-0.0532642
-1.31429
1.31956
0.0588144
-0.0629364
-1.49319
1.49731
0.0667846
-0.0693892
-1.6906
1.6932
0.0711122
-0.0715485
-1.60646
1.6069
0.0715202
-0.0708208
-1.29194
1.29124
0.0692815
-0.066088
-1.03324
1.03004
0.0605954
-0.0511933
-0.744529
0.735127
0.0404933
-0.0286685
-0.408172
0.396347
0.0199736
-0.0131598
-0.155474
0.14866
0.0087712
-0.00545251
-0.0353664
0.0320477
0.00333614
-0.00178773
0.00604744
-0.00759585
0.000879461
-0.000314653
0.0109683
-0.0115331
7.06003e-05
0.00293152
-0.00300212
-0.0826443
0.0811073
0.00153697
-0.0051503
0.00518479
-0.448877
0.448842
-0.00343576
0.00114694
-0.624528
0.626816
0.00284372
-0.0069227
-0.762438
0.766517
0.0117493
-0.016625
-0.888051
0.892926
0.0219493
-0.0273877
-1.01817
1.02361
0.0328841
-0.0378734
-1.16363
1.16862
0.0434881
-0.0481585
-1.32462
1.3293
0.0527581
-0.0568325
-1.50126
1.50534
0.0602799
-0.062604
-1.69585
1.69818
0.0639123
-0.064377
-1.6075
1.60797
0.0642138
-0.0633363
-1.28986
1.28898
0.061682
-0.0582415
-1.02475
1.02131
0.0528296
-0.0442024
-0.722971
0.714344
0.0344555
-0.0244413
-0.382545
0.372531
0.0172872
-0.0116152
-0.140429
0.134757
0.00791431
-0.00505224
-0.0278687
0.0250067
0.00314298
-0.00170541
0.00951182
-0.0109494
0.000843539
-0.000299648
0.0121742
-0.0127181
6.89537e-05
0.00304921
-0.00311816
-0.082221
0.0808706
0.0013504
-0.0041264
0.00407156
-0.452291
0.452346
-0.00265946
0.000495749
-0.631612
0.633776
0.00307062
-0.00690276
-0.771026
0.774858
0.0113922
-0.0156959
-0.897536
0.901839
0.0209554
-0.0253662
-1.02837
1.03278
0.0305783
-0.0351194
-1.17369
1.17823
0.0402681
-0.0447665
-1.33384
1.33833
0.0492005
-0.0525477
-1.50904
1.51239
0.0557171
-0.0577991
-1.70033
1.70242
0.0591311
-0.0592732
-1.60823
1.60837
0.0590371
-0.0580398
-1.28794
1.28694
0.0563046
-0.0526459
-1.01609
1.01243
0.0474472
-0.0392722
-0.702893
0.694719
0.0305645
-0.0218767
-0.360613
0.351925
0.015748
-0.0109557
-0.127782
0.122989
0.00769463
-0.00506745
-0.0212778
0.0186506
0.00323474
-0.00179359
0.0127219
-0.0141631
0.000897694
-0.000326836
0.0133012
-0.0138721
7.33601e-05
0.00314109
-0.00321445
-0.0820082
0.0809811
0.00102709
-0.00317524
0.00276161
-0.455479
0.455893
-0.00164941
-0.000477859
-0.637684
0.639812
0.00359572
-0.00718698
-0.778814
0.782406
0.0113555
-0.0156498
-0.905952
0.910246
0.0200872
-0.0244813
-1.03734
1.04173
0.029413
-0.0334755
-1.18313
1.18719
0.0383911
-0.0424851
-1.3425
1.3466
0.0465046
-0.0498987
-1.51603
1.51942
0.0529207
-0.0546006
-1.70439
1.70607
0.055462
-0.0556607
-1.60858
1.60878
0.0554392
-0.0542768
-1.28559
1.28442
0.0523478
-0.0488212
-1.00752
1.00399
0.0433787
-0.0358895
-0.683937
0.676448
0.0280641
-0.0204259
-0.341572
0.333934
0.0151642
-0.0109183
-0.116862
0.112616
0.00795665
-0.00542694
-0.0152148
0.0126851
0.00357033
-0.00204211
0.0159171
-0.0174453
0.00106122
-0.000397758
0.014485
-0.0151485
9.32508e-05
0.00322848
-0.00332173
-0.0821593
0.0813016
0.000857727
-0.00235175
0.00208184
-0.458623
0.458893
-0.000530996
-0.00133921
-0.643606
0.645476
0.00454009
-0.00789835
-0.785857
0.789215
0.0117797
-0.0155288
-0.91415
0.917899
0.0199385
-0.023835
-1.04605
1.04995
0.0284914
-0.0327755
-1.19163
1.19591
0.0370018
-0.0410983
-1.35061
1.35471
0.0451127
-0.0481008
-1.52253
1.52552
0.0508474
-0.0526158
-1.70778
1.70955
0.0531843
-0.0532772
-1.60865
1.60875
0.0526621
-0.0514215
-1.28309
1.28185
0.0495093
-0.0458071
-0.999136
0.995434
0.0406166
-0.0335115
-0.666381
0.659276
0.0264506
-0.0196932
-0.3247
0.317942
0.0150474
-0.0112749
-0.107212
0.10344
0.00850562
-0.00601401
-0.00941169
0.00692008
0.00409204
-0.00243679
0.0192516
-0.0209069
0.00131357
-0.000512464
0.0158488
-0.0166499
0.000125816
0.00334771
-0.00347353
-0.0825801
0.081894
0.00068617
-0.0013739
0.000995619
-0.461712
0.46209
0.000318665
-0.00242024
-0.648924
0.651025
0.00547356
-0.00858709
-0.792446
0.795559
0.0124485
-0.0159347
-0.921579
0.925065
0.0200414
-0.0239145
-1.05427
1.05815
0.0282799
-0.0323122
-1.19994
1.20397
0.0364877
-0.040302
-1.35858
1.3624
0.0440882
-0.0473875
-1.52862
1.53192
0.0499465
-0.0512853
-1.711
1.71234
0.0517608
-0.0513384
-1.60845
1.60803
0.0506276
-0.0493284
-1.28033
1.27903
0.0470288
-0.043252
-0.990717
0.98694
0.038182
-0.0313983
-0.650018
0.643235
0.0251166
-0.0191589
-0.309907
0.30395
0.0151007
-0.0116747
-0.0985652
0.0951392
0.00907875
-0.00661459
-0.00374963
0.00128546
0.00464468
-0.00286929
0.0228116
-0.024587
0.00160343
-0.000654282
0.0174728
-0.018422
0.000174839
0.00352912
-0.00370396
-0.0832234
0.0826565
0.000566916
-0.00056718
0.000129114
-0.46481
0.465248