/*--------------------------------*- C++ -*----------------------------------*\
  =========                 |
  \\      /  F ield         | OpenFOAM: The Open Source CFD Toolbox
   \\    /   O peration     | Website:  https://openfoam.org
    \\  /    A nd           | Version:  6
     \\/     M anipulation  |
\*---------------------------------------------------------------------------*/
FoamFile
{
    version     2.0;
    format      ascii;
    class       volScalarField;
    location    "5.9";
    object      p;
}
// * * * * * * * * * * * * * * * * * * * * * * * * * * * * * * * * * * * * * //

dimensions      [0 2 -2 0 0 0 0];

internalField   nonuniform List<scalar> 
8800
(
0.482937
0.433847
0.396185
0.368514
0.348729
0.334678
0.324773
0.317876
0.313487
0.311625
0.312473
0.315937
0.321776
0.330212
0.342107
0.358853
0.382248
0.414948
0.457554
0.509941
0.316693
0.323402
0.333258
0.337938
0.336355
0.331257
0.324964
0.319092
0.314442
0.311375
0.31081
0.313203
0.317363
0.322874
0.329228
0.335275
0.338957
0.337699
0.329965
0.320515
0.288873
0.295586
0.30125
0.306035
0.309883
0.311829
0.311631
0.310068
0.308293
0.307359
0.307975
0.309783
0.31188
0.313087
0.31239
0.309502
0.305091
0.300007
0.29401
0.290306
0.287757
0.290561
0.294269
0.297277
0.29931
0.300639
0.301436
0.301783
0.301796
0.30187
0.302131
0.302543
0.30272
0.302393
0.301504
0.299924
0.297511
0.294044
0.290684
0.289416
0.289418
0.290237
0.291969
0.293935
0.295753
0.297266
0.298487
0.29918
0.2995
0.299714
0.300012
0.300235
0.300076
0.299364
0.298107
0.296679
0.294817
0.292929
0.291631
0.29134
0.287737
0.287961
0.288501
0.289171
0.290009
0.290911
0.291833
0.292651
0.293285
0.293753
0.294078
0.294133
0.293835
0.29323
0.292528
0.291752
0.291121
0.290524
0.290173
0.290086
0.285158
0.285318
0.285731
0.286322
0.286989
0.287708
0.28842
0.289102
0.289733
0.29029
0.29068
0.290801
0.290679
0.290364
0.289901
0.289357
0.288827
0.288367
0.28811
0.288054
0.281791
0.281854
0.282026
0.282304
0.282677
0.28316
0.283744
0.284399
0.285076
0.285735
0.286233
0.286465
0.286462
0.286307
0.286088
0.285863
0.285665
0.285507
0.285426
0.285402
0.277958
0.278003
0.278125
0.278327
0.278613
0.278996
0.279485
0.280084
0.280782
0.281544
0.282196
0.282598
0.282784
0.282827
0.282787
0.282709
0.282623
0.282548
0.282505
0.282489
0.273814
0.273842
0.273931
0.274086
0.274321
0.274663
0.275134
0.275753
0.276525
0.277429
0.278273
0.278867
0.279227
0.279423
0.279516
0.27955
0.279553
0.279543
0.279534
0.279525
0.269383
0.269409
0.269486
0.269627
0.269853
0.270194
0.270687
0.271367
0.272259
0.27336
0.274447
0.275269
0.275814
0.276166
0.276379
0.276501
0.276566
0.276597
0.276607
0.276602
0.264662
0.264683
0.264767
0.264918
0.265163
0.265542
0.266103
0.266897
0.26797
0.269333
0.270719
0.271801
0.27257
0.273078
0.273406
0.273608
0.273726
0.27379
0.273815
0.273812
0.259634
0.259657
0.25975
0.259923
0.260209
0.260657
0.261328
0.262293
0.263616
0.265324
0.267093
0.268507
0.269512
0.270198
0.270648
0.270932
0.271103
0.271198
0.271237
0.271235
0.254231
0.254258
0.254369
0.254579
0.254929
0.255479
0.256308
0.257508
0.259165
0.261319
0.26357
0.26538
0.266681
0.267576
0.268167
0.268543
0.268772
0.2689
0.268955
0.268953
0.248366
0.248398
0.248538
0.248801
0.249239
0.249929
0.250973
0.252485
0.254578
0.257308
0.260167
0.262472
0.264135
0.265281
0.266041
0.266526
0.266822
0.266989
0.26706
0.267059
0.241918
0.241959
0.242137
0.242471
0.243029
0.243907
0.245235
0.247157
0.249816
0.253282
0.256909
0.259833
0.261943
0.263398
0.264364
0.264981
0.265358
0.265571
0.265662
0.265661
0.234724
0.234777
0.235006
0.235437
0.236153
0.237281
0.238981
0.241439
0.24483
0.249235
0.253833
0.257532
0.260197
0.262034
0.263253
0.264032
0.264508
0.264777
0.264893
0.264891
0.226564
0.226634
0.226932
0.227493
0.228422
0.229881
0.232072
0.235228
0.239563
0.245167
0.250988
0.255654
0.259009
0.261319
0.262851
0.263831
0.264429
0.264768
0.264912
0.264909
0.217145
0.217239
0.217631
0.218368
0.219583
0.221484
0.224327
0.228398
0.233952
0.241082
0.248439
0.254309
0.258519
0.261414
0.263335
0.264563
0.265313
0.265737
0.265917
0.265913
0.206062
0.20619
0.206714
0.207692
0.209301
0.211802
0.215517
0.220795
0.227928
0.236996
0.246271
0.253629
0.258894
0.262514
0.264916
0.266452
0.26739
0.267921
0.268146
0.26814
0.192759
0.192938
0.193647
0.194968
0.197129
0.200463
0.205364
0.212245
0.221426
0.232943
0.244591
0.253773
0.260332
0.264845
0.267845
0.269768
0.270943
0.271607
0.271888
0.271881
0.176438
0.176696
0.177675
0.179503
0.182473
0.186994
0.19354
0.202575
0.21441
0.22899
0.243532
0.25492
0.263053
0.268669
0.27242
0.274833
0.276311
0.277143
0.277495
0.277486
0.15589
0.156259
0.157668
0.160308
0.164531
0.170812
0.179691
0.191644
0.206899
0.225254
0.243254
0.257259
0.267288
0.274264
0.278969
0.282023
0.283901
0.284955
0.285395
0.285385
0.129135
0.129682
0.131872
0.135944
0.142222
0.151214
0.163476
0.179386
0.198988
0.221889
0.243916
0.260953
0.273223
0.281876
0.287818
0.291754
0.294213
0.295597
0.296166
0.29615
0.092774
0.093746
0.0976086
0.104453
0.114274
0.127558
0.14473
0.165902
0.190873
0.219075
0.245635
0.266075
0.280929
0.291618
0.299184
0.304396
0.307808
0.309811
0.310648
0.310621
0.0401295
0.042937
0.051215
0.0638153
0.0799164
0.0999141
0.123898
0.151706
0.182971
0.217064
0.248505
0.272598
0.290302
0.303362
0.312983
0.320003
0.325019
0.328276
0.329856
0.329867
-0.0397058
-0.0265298
-0.00743519
0.0153844
0.0410593
0.0699868
0.10219
0.137525
0.175676
0.216116
0.252832
0.280985
0.302008
0.318
0.330374
0.340101
0.347854
0.353856
0.357908
0.358958
-0.123075
-0.0971609
-0.0661181
-0.032793
0.00254184
0.0402922
0.0805808
0.123416
0.168642
0.215948
0.258801
0.29196
0.317172
0.33688
0.352666
0.365634
0.37645
0.386133
0.393792
0.395463
-0.186999
-0.156836
-0.117973
-0.0765613
-0.0329318
0.0127241
0.0604727
0.11028
0.162096
0.215752
0.2641
0.301423
0.329794
0.351956
0.369643
0.384009
0.395826
0.405601
0.412481
0.414162
-0.23487
-0.202572
-0.159367
-0.112626
-0.0633113
-0.0116574
0.0421064
0.0978193
0.155351
0.214548
0.267599
0.308312
0.338967
0.362571
0.381069
0.395786
0.407675
0.417407
0.424336
0.426108
-0.271371
-0.23828
-0.192282
-0.141995
-0.0886975
-0.0326599
0.025753
0.0862713
0.148678
0.212772
0.270028
0.313666
0.346176
0.370891
0.389988
0.404969
0.416887
0.426464
0.433214
0.434996
-0.300429
-0.267123
-0.219414
-0.16656
-0.110215
-0.0508036
0.0112808
0.075676
0.14213
0.210449
0.271501
0.31787
0.352149
0.377917
0.397579
0.412799
0.424762
0.434262
0.440897
0.44268
-0.324592
-0.291166
-0.242307
-0.187648
-0.129058
-0.0670151
-0.00205344
0.0654417
0.135274
0.207367
0.272079
0.32126
0.357432
0.384375
0.404699
0.420244
0.432315
0.441779
0.448319
0.450106
-0.34561
-0.311894
-0.262164
-0.206103
-0.145792
-0.0817651
-0.0145751
0.0553691
0.127982
0.203455
0.271821
0.324073
0.362429
0.390795
0.411969
0.42796
0.440228
0.449711
0.456195
0.457989
-0.364392
-0.330344
-0.279805
-0.222605
-0.160925
-0.0953652
-0.0265151
0.0452452
0.120039
0.198523
0.270655
0.326391
0.367398
0.39756
0.419843
0.43646
0.449025
0.458597
0.465045
0.466831
-0.381511
-0.346998
-0.295719
-0.237564
-0.174816
-0.108109
-0.0380854
0.034905
0.111276
0.192366
0.268423
0.328212
0.372489
0.404949
0.428699
0.446167
0.459159
0.468903
0.475352
0.477147
-0.397093
-0.362183
-0.310206
-0.251231
-0.187628
-0.120104
-0.0493693
0.0242681
0.101547
0.184764
0.264883
0.32943
0.37776
0.413171
0.438841
0.457456
0.471059
0.481066
0.487542
0.489405
-0.411524
-0.37612
-0.323464
-0.263785
-0.199494
-0.131424
-0.0603891
0.0133014
0.0907603
0.175478
0.259745
0.32983
0.383189
0.422364
0.450544
0.470668
0.485097
0.495476
0.502039
0.503969
-0.424839
-0.388949
-0.335617
-0.275304
-0.210478
-0.142086
-0.071111
0.00206026
0.0788795
0.164292
0.25265
0.329142
0.388672
0.432614
0.464012
0.486114
0.501628
0.512514
0.519225
0.521144
-0.437161
-0.400744
-0.346756
-0.285855
-0.220592
-0.152073
-0.0814773
-0.00937733
0.0659276
0.151023
0.243217
0.327012
0.394021
0.443927
0.479421
0.50406
0.520981
0.532531
0.539436
0.541321
-0.448594
-0.411651
-0.356943
-0.295497
-0.229861
-0.161339
-0.0914057
-0.0208741
0.0520177
0.135538
0.23105
0.323008
0.398974
0.456212
0.496832
0.524675
0.543425
0.555879
0.563053
0.564776
-0.459217
-0.42161
-0.366239
-0.304256
-0.238289
-0.169861
-0.10078
-0.0322929
0.0372965
0.117792
0.21577
0.316687
0.403181
0.469222
0.516204
0.548071
0.569125
0.582709
0.590203
0.591671
-0.46899
-0.430734
-0.374694
-0.312177
-0.245891
-0.177606
-0.109512
-0.0434255
0.0219417
0.0978102
0.196998
0.307577
0.406216
0.482692
0.537208
0.573973
0.5978
0.612692
0.620498
0.621705
-0.478018
-0.439106
-0.382368
-0.319312
-0.2527
-0.184555
-0.117522
-0.0541085
0.0062157
0.0756657
0.174434
0.295194
0.407777
0.496094
0.559172
0.602139
0.629655
0.646049
0.653844
0.654384
-0.48647
-0.44678
-0.389329
-0.325712
-0.258745
-0.19072
-0.124736
-0.0641809
-0.0095933
0.051498
0.147732
0.279051
0.40751
0.508959
0.581527
0.631814
0.664886
0.683159
0.689211
0.688185
-0.494264
-0.453833
-0.395634
-0.331422
-0.264078
-0.196112
-0.131116
-0.0734689
-0.025217
0.0255924
0.116371
0.258792
0.405149
0.521523
0.604371
0.662056
0.702456
0.725912
0.727891
0.72001
-0.501632
-0.460331
-0.401329
-0.336503
-0.268788
-0.20079
-0.136689
-0.0819648
-0.0405856
-0.00221067
0.0793702
0.233263
0.400614
0.534287
0.626248
0.690333
0.737928
0.773117
0.779445
0.767619
-0.50858
-0.466382
-0.406441
-0.341103
-0.27303
-0.204901
-0.141603
-0.0898361
-0.0560365
-0.0332591
0.0336409
0.198605
0.393538
0.546486
0.643764
0.709374
0.758172
0.788445
0.793431
0.767817
-0.515032
-0.471864
-0.410832
-0.345269
-0.276749
-0.208366
-0.145786
-0.0967952
-0.0710048
-0.0669249
-0.0220585
0.152351
0.384306
0.559027
0.650375
0.701847
0.737459
0.737993
0.672807
0.628819
-0.520877
-0.475986
-0.414244
-0.348676
-0.279549
-0.210958
-0.149133
-0.102609
-0.0849967
-0.102741
-0.0895405
0.0924524
0.370503
0.566738
0.647138
0.663595
0.673352
0.622157
0.537075
0.481523
-0.562979
-0.477494
-0.417615
-0.351743
-0.282128
-0.213338
-0.151389
-0.106621
-0.0970167
-0.140633
-0.172252
0.0100598
0.339377
0.579049
0.637768
0.608836
0.555105
0.470029
0.370143
0.315397
-0.498196
-0.479369
-0.423326
-0.356044
-0.28564
-0.21583
-0.154244
-0.112427
-0.114524
-0.201008
-0.340014
-0.195392
0.247058
0.535733
0.563498
0.391718
0.23269
0.13283
0.0395236
0.0954236
-0.52351
-0.485398
-0.427571
-0.359848
-0.288687
-0.217945
-0.155278
-0.114092
-0.122776
-0.239998
-0.480211
-0.430646
0.0785539
0.406615
0.369384
0.1325
-0.0517578
-0.172056
-0.292025
-0.181265
-0.538321
-0.495166
-0.433853
-0.364921
-0.29243
-0.22031
-0.156065
-0.114546
-0.127735
-0.275953
-0.661828
-0.787388
-0.270473
0.141296
0.0603606
-0.204506
-0.396676
-0.536459
-0.702009
-0.549188
-0.55121
-0.504585
-0.440537
-0.369755
-0.295571
-0.221816
-0.155878
-0.113417
-0.129582
-0.309503
-0.885963
-1.33085
-0.743753
-0.261587
-0.35204
-0.591772
-0.823027
-1.00792
-1.21437
-1.0929
-0.562238
-0.513375
-0.447213
-0.37451
-0.298478
-0.222755
-0.154786
-0.110135
-0.126837
-0.331652
-1.10442
-1.97802
-1.31532
-0.713816
-0.792456
-0.986938
-1.26085
-1.54492
-1.88217
-1.93271
-0.572002
-0.522065
-0.454186
-0.37962
-0.30157
-0.223582
-0.153001
-0.104897
-0.119139
-0.336633
-1.27404
-2.47062
-1.77244
-1.14776
-1.17111
-1.32973
-1.60151
-1.9246
-2.21917
-2.67628
-0.582012
-0.531093
-0.461719
-0.385324
-0.30508
-0.224592
-0.150638
-0.0979681
-0.105806
-0.323064
-1.34257
-2.7037
-2.03567
-1.51991
-1.50797
-1.62093
-1.75248
-1.96521
-2.09247
-2.1237
-0.592677
-0.540838
-0.469998
-0.391729
-0.309193
-0.225861
-0.147969
-0.0894076
-0.0863067
-0.281531
-1.26331
-2.61354
-2.03507
-1.70811
-1.78187
-1.90983
-1.81308
-1.8106
-1.93061
-1.96811
-0.604613
-0.551678
-0.47928
-0.399021
-0.314086
-0.227589
-0.1454
-0.0793902
-0.0615594
-0.21265
-1.02028
-2.13786
-1.74673
-1.73856
-1.99912
-2.35079
-2.09577
-1.89102
-2.03479
-2.13713
-0.618452
-0.564055
-0.489898
-0.407544
-0.319996
-0.230249
-0.143166
-0.0690297
-0.0330848
-0.124186
-0.660094
-1.37955
-1.248
-1.53069
-2.1695
-3.14699
-3.30543
-3.11571
-2.87149
-2.79447
-0.63441
-0.578359
-0.502248
-0.417592
-0.327369
-0.234069
-0.141961
-0.0592113
-0.00333867
-0.0284814
-0.283835
-0.598842
-0.706225
-1.18653
-2.13831
-3.76479
-4.65041
-4.33207
-3.78155
-3.48656
-0.652765
-0.594917
-0.516648
-0.429551
-0.336446
-0.239571
-0.142362
-0.050599
0.0245058
0.0586973
0.0149521
-0.0252314
-0.204446
-0.627297
-1.59089
-2.88486
-3.73338
-3.48424
-2.99089
-2.74106
-0.673846
-0.614096
-0.533383
-0.443649
-0.347539
-0.246937
-0.144676
-0.044778
0.0480512
0.129105
0.204729
0.287744
0.211534
-0.0162064
-0.415897
-0.856512
-1.14575
-1.12413
-0.985581
-0.922808
-0.697834
-0.635991
-0.552577
-0.459955
-0.360722
-0.256527
-0.149373
-0.0414416
0.0662783
0.179856
0.311848
0.442792
0.470251
0.431211
0.33491
0.261104
0.273126
0.32635
0.351744
0.356232
-0.724449
-0.660388
-0.574081
-0.478372
-0.375881
-0.267919
-0.156052
-0.0410979
0.0786
0.213842
0.370615
0.519438
0.610262
0.663796
0.706755
0.757103
0.818902
0.868301
0.890169
0.892916
-0.752535
-0.686547
-0.597242
-0.498273
-0.392451
-0.280913
-0.164495
-0.0431383
0.0860695
0.235064
0.40226
0.557433
0.676859
0.770547
0.850584
0.923541
0.988455
1.03534
1.05885
1.0634
-0.781231
-0.713193
-0.620999
-0.518812
-0.409598
-0.29443
-0.173763
-0.0470167
0.0896092
0.246706
0.417868
0.573282
0.699585
0.801865
0.886124
0.956161
1.01293
1.05514
1.07982
1.08581
-0.80815
-0.738532
-0.64371
-0.538341
-0.425961
-0.307422
-0.183028
-0.0517418
0.0904124
0.252029
0.423293
0.575167
0.699428
0.799361
0.879328
0.943011
0.99329
1.03163
1.05569
1.06211
-0.829761
-0.759892
-0.663035
-0.554929
-0.439764
-0.318428
-0.191059
-0.0565171
0.08892
0.253034
0.421529
0.567884
0.686604
0.781393
0.856381
0.915534
0.962094
0.998129
1.0208
1.02746
-0.843596
-0.774204
-0.676114
-0.565905
-0.448828
-0.325674
-0.196589
-0.0603678
0.0862518
0.249682
0.413767
0.553358
0.66568
0.75506
0.825799
0.881735
0.926074
0.960621
0.98268
0.989485
-0.845177
-0.777197
-0.679223
-0.56821
-0.450592
-0.327262
-0.198268
-0.0624762
0.0828549
0.242766
0.400302
0.532413
0.638077
0.722278
0.789263
0.842574
0.885172
0.918479
0.940198
0.947116
-0.828506
-0.763537
-0.667943
-0.558097
-0.442209
-0.321134
-0.194782
-0.0621901
0.078936
0.232467
0.38138
0.504956
0.603539
0.682477
0.745824
0.796673
0.837636
0.869686
0.891253
0.89859
-0.785711
-0.726349
-0.636746
-0.531325
-0.42055
-0.305176
-0.184861
-0.0588086
0.0748107
0.218896
0.356899
0.470382
0.560799
0.633651
0.692805
0.740874
0.779871
0.810926
0.832282
0.839951
-0.712011
-0.663098
-0.580146
-0.483729
-0.382895
-0.277477
-0.167271
-0.0515932
0.0709323
0.202273
0.326765
0.428052
0.508313
0.573046
0.626095
0.669948
0.705774
0.734452
0.754904
0.762516
-0.600706
-0.563987
-0.493279
-0.412527
-0.327325
-0.236692
-0.140965
-0.0395148
0.0683298
0.183574
0.291668
0.378234
0.445695
0.499091
0.542024
0.577367
0.606874
0.630583
0.646567
0.651718
-0.432763
-0.414592
-0.370367
-0.315247
-0.252899
-0.183415
-0.106867
-0.0228004
0.0688718
0.168214
0.26158
0.335709
0.392423
0.436299
0.470341
0.496376
0.51587
0.531246
0.543311
0.547497
-0.262291
-0.255904
-0.235906
-0.206953
-0.169177
-0.122887
-0.0670788
-0.00202524
0.0723626
0.15549
0.234709
0.297454
0.344615
0.379582
0.405075
0.423565
0.436986
0.445753
0.450735
0.451877
-0.13362
-0.13169
-0.124202
-0.111074
-0.0915415
-0.0636632
-0.0263058
0.0213738
0.0793115
0.146721
0.212186
0.263911
0.302056
0.329673
0.349259
0.362413
0.370552
0.375279
0.37767
0.378089
-0.0496531
-0.0503023
-0.0493892
-0.0441539
-0.0335995
-0.0164431
0.00858226
0.0428164
0.0868875
0.140341
0.193486
0.235589
0.266212
0.287638
0.301937
0.311129
0.316753
0.319763
0.320839
0.320886
-0.000911031
-0.00166271
-0.0022011
-0.000380784
0.00533681
0.0163245
0.0338643
0.059017
0.0925726
0.134441
0.176742
0.210318
0.234534
0.251354
0.262603
0.269673
0.273666
0.275584
0.276215
0.276252
0.0277322
0.0274435
0.0273997
0.0287936
0.0326085
0.0399596
0.0522182
0.0706785
0.0962193
0.128913
0.162459
0.189204
0.208426
0.221591
0.230138
0.235379
0.238368
0.239854
0.24039
0.240446
0.0465829
0.0464887
0.0466039
0.0477249
0.0505811
0.0560258
0.0650724
0.0788287
0.0982428
0.123601
0.149948
0.17101
0.186074
0.19633
0.202998
0.207099
0.209421
0.210563
0.210982
0.211028
0.0587853
0.058786
0.059014
0.0599723
0.062163
0.0662413
0.0730375
0.0834701
0.0983506
0.118018
0.138646
0.1552
0.167044
0.175092
0.180295
0.183477
0.185279
0.186174
0.186507
0.186544
0.0664869
0.0665252
0.066787
0.067607
0.06935
0.0725001
0.0776869
0.0856497
0.0970872
0.11234
0.128448
0.14141
0.150676
0.15696
0.161018
0.163499
0.164905
0.165603
0.165862
0.165889
0.0708925
0.0709368
0.0711773
0.07185
0.0732249
0.0756689
0.0796664
0.0857946
0.0946195
0.10645
0.119007
0.129136
0.13638
0.141291
0.144459
0.146393
0.147487
0.148028
0.148227
0.148246
0.0727937
0.0728349
0.0730396
0.0735812
0.0746635
0.0765654
0.0796581
0.0843917
0.0912177
0.1004
0.11018
0.118083
0.123737
0.127567
0.130036
0.131542
0.132391
0.132808
0.13296
0.132974
0.0727646
0.0727996
0.0729663
0.0733957
0.0742434
0.0757238
0.0781225
0.0817881
0.0870769
0.0942059
0.101818
0.107976
0.112384
0.115369
0.117291
0.118461
0.119119
0.119441
0.119557
0.119566
0.0712396
0.0712681
0.0714011
0.0717385
0.0724006
0.0735521
0.0754137
0.0782559
0.0823575
0.0878934
0.0938141
0.0986087
0.10204
0.104364
0.105858
0.106767
0.107276
0.107524
0.107612
0.107618
0.0685539
0.0685766
0.0686815
0.0689454
0.069461
0.070356
0.0718011
0.074006
0.077188
0.0814864
0.0860885
0.0898176
0.0924868
0.0942931
0.0954543
0.096159
0.0965529
0.0967429
0.0968095
0.0968137
0.0649679
0.0649857
0.0650675
0.0652729
0.0656738
0.0663688
0.0674901
0.0692001
0.0716684
0.0750045
0.078579
0.0814765
0.0835503
0.0849528
0.0858535
0.0863992
0.0867033
0.0868493
0.0869
0.0869028
0.0606828
0.0606966
0.0607602
0.0609195
0.0612304
0.0617692
0.0626382
0.0639635
0.0658768
0.0684637
0.0712368
0.0734851
0.0750938
0.0761812
0.0768788
0.0773008
0.0775354
0.0776472
0.0776854
0.0776872
0.0558556
0.0558661
0.0559151
0.0560382
0.0562785
0.0566952
0.0573676
0.0583932
0.0598738
0.0618765
0.0640242
0.0657653
0.0670105
0.0678519
0.0683912
0.0687169
0.0688973
0.0689827
0.0690115
0.0690126
0.0506085
0.0506165
0.0506539
0.0507485
0.0509336
0.0512549
0.0517735
0.0525647
0.0537076
0.0552539
0.0569125
0.058257
0.0592185
0.0598676
0.0602829
0.0605331
0.0606713
0.0607362
0.0607578
0.0607584
0.0450374
0.0450432
0.0450715
0.0451435
0.045285
0.0455312
0.0459292
0.0465368
0.047415
0.0486036
0.0498787
0.0509121
0.0516508
0.0521488
0.0524671
0.0526586
0.0527638
0.0528127
0.0528287
0.052829
0.0392164
0.0392207
0.0392414
0.0392956
0.0394028
0.03959
0.0398931
0.0403563
0.041026
0.0419329
0.0429059
0.0436941
0.0442567
0.0446356
0.0448775
0.0450226
0.0451021
0.0451388
0.0451505
0.0451506
0.0332042
0.0332069
0.0332219
0.0332622
0.0333424
0.0334827
0.0337102
0.0340585
0.0345626
0.0352456
0.0359784
0.036572
0.0369955
0.0372804
0.0374617
0.0375699
0.0376286
0.0376553
0.0376632
0.0376631
0.0270474
0.027049
0.0270594
0.0270884
0.0271466
0.0272492
0.0274162
0.0276721
0.0280431
0.0285462
0.0290864
0.0295236
0.0298353
0.0300444
0.0301768
0.0302554
0.0302977
0.0303163
0.0303212
0.030321
0.0207832
0.020784
0.0207903
0.0208095
0.0208495
0.020921
0.0210383
0.0212188
0.021481
0.0218367
0.0222185
0.0225273
0.0227468
0.022894
0.0229871
0.0230421
0.0230712
0.0230836
0.0230866
0.0230863
0.0144415
0.0144415
0.0144446
0.0144561
0.0144813
0.014527
0.0146027
0.0147197
0.0148901
0.0151218
0.0153705
0.0155717
0.0157145
0.0158099
0.0158697
0.0159043
0.015922
0.0159288
0.0159299
0.0159296
0.00804523
0.00804515
0.00804607
0.00805136
0.0080641
0.00808802
0.00812795
0.00818991
0.00828019
0.00840315
0.00853672
0.00864296
0.00871834
0.00876825
0.00879932
0.00881706
0.00882554
0.00882818
0.00882802
0.00882792
0.00161104
0.0016097
0.00160731
0.00160662
0.00160802
0.00161161
0.0016181
0.00162856
0.00164424
0.00166631
0.00169429
0.00172029
0.00173892
0.00175167
0.00175995
0.0017649
0.00176742
0.00176791
0.00176628
0.00176375
-0.808924
-0.473237
-0.175149
0.0639033
0.25656
0.413428
0.550368
0.666968
0.713763
0.692772
-0.283796
-0.0794285
0.0999712
0.255349
0.387108
0.498028
0.587985
0.649689
0.678721
0.683119
0.0479842
0.171351
0.287931
0.390467
0.479249
0.553795
0.611285
0.651611
0.675399
0.686971
0.259099
0.336882
0.41434
0.485543
0.549243
0.602246
0.643254
0.674274
0.693181
0.70655
0.401512
0.457105
0.516394
0.570547
0.616846
0.654521
0.685151
0.710256
0.725166
0.740184
0.512347
0.555491
0.600275
0.640949
0.67619
0.70822
0.737284
0.759523
0.772326
0.788035
0.605278
0.641422
0.679225
0.715614
0.749585
0.779568
0.803838
0.821591
0.834782
0.851146
0.697166
0.732993
0.768831
0.803388
0.834273
0.861203
0.883786
0.901648
0.913627
0.929726
0.79266
0.832198
0.870543
0.904427
0.935246
0.961518
0.98283
0.998277
1.00994
1.02601
0.909787
0.951811
0.98924
1.0234
1.0525
1.07665
1.09642
1.11236
1.1245
1.14067
1.05131
1.09339
1.12968
1.15964
1.18552
1.20738
1.22625
1.24162
1.25474
1.27107
1.22432
1.25663
1.28402
1.30689
1.3271
1.34614
1.36382
1.381
1.39614
1.41195
1.41141
1.42895
1.44627
1.46273
1.47877
1.49368
1.50795
1.52237
1.53802
1.55517
1.59489
1.60497
1.6182
1.62945
1.63894
1.64865
1.65924
1.66955
1.67873
1.7043
1.81153
1.80639
1.7938
1.77981
1.7739
1.7796
1.79782
1.82635
1.86015
1.89641
2.11716
1.98009
1.90038
1.85753
1.83998
1.84424
1.87158
1.92955
2.03743
2.21594
0.386353
0.380197
0.372817
0.362269
0.349263
0.337285
0.327596
0.320268
0.315058
0.311957
0.311434
0.313703
0.318152
0.324598
0.333208
0.344186
0.357046
0.369294
0.3778
0.385052
0.294128
0.300362
0.309644
0.317173
0.321514
0.322204
0.31998
0.316347
0.312737
0.310082
0.3096
0.311768
0.315281
0.319229
0.32247
0.323494
0.321003
0.315019
0.306469
0.297811
0.28767
0.289828
0.293969
0.297616
0.300679
0.303102
0.304556
0.304937
0.304601
0.304257
0.304344
0.30487
0.305644
0.305952
0.305258
0.303395
0.300678
0.297416
0.293372
0.289957
0.288719
0.289379
0.291871
0.294916
0.297239
0.298934
0.29995
0.300574
0.30081
0.300872
0.301056
0.301445
0.301692
0.301531
0.300887
0.299686
0.297835
0.295157
0.292202
0.290633
0.288928
0.289061
0.289603
0.290558
0.291671
0.293085
0.294518
0.29561
0.296328
0.296763
0.297109
0.29732
0.297204
0.296622
0.295574
0.294262
0.293105
0.292138
0.291385
0.291088
0.286492
0.286565
0.286942
0.287595
0.288294
0.288987
0.289666
0.290347
0.290988
0.291533
0.291954
0.292218
0.292185
0.291928
0.29154
0.290982
0.29042
0.289804
0.289301
0.289115
0.283573
0.283608
0.283771
0.284101
0.284554
0.285131
0.2858
0.286507
0.287203
0.28786
0.288416
0.2887
0.288719
0.288518
0.288173
0.287774
0.287405
0.287095
0.286889
0.286816
0.279911
0.27993
0.280025
0.280216
0.280489
0.28085
0.281309
0.281871
0.282518
0.283212
0.283867
0.284325
0.284527
0.28455
0.284472
0.284348
0.284213
0.284086
0.283996
0.283961
0.275923
0.275935
0.276001
0.276139
0.276352
0.276658
0.277075
0.277618
0.278289
0.279075
0.279889
0.280517
0.28089
0.281073
0.281138
0.281136
0.281104
0.281063
0.281031
0.281015
0.271635
0.271643
0.271692
0.271804
0.271986
0.272264
0.272665
0.273221
0.273955
0.27487
0.275879
0.276727
0.277302
0.277655
0.277862
0.277975
0.278031
0.278053
0.278058
0.278056
0.267058
0.267062
0.267115
0.267225
0.267409
0.267698
0.268131
0.268752
0.269602
0.270704
0.271971
0.273088
0.27387
0.274408
0.27475
0.274961
0.275084
0.275152
0.275183
0.275189
0.26219
0.262192
0.262247
0.262368
0.262576
0.262906
0.263408
0.264142
0.265167
0.266526
0.268123
0.269563
0.27062
0.271342
0.271824
0.272132
0.27232
0.272429
0.272483
0.272496
0.256984
0.256986
0.25705
0.257192
0.257438
0.257835
0.258445
0.259344
0.260612
0.262311
0.264332
0.26618
0.267544
0.268497
0.269138
0.269552
0.269809
0.26996
0.270037
0.270057
0.251363
0.251364
0.251442
0.251617
0.251922
0.252415
0.253175
0.254299
0.255892
0.258035
0.260597
0.262951
0.264698
0.265925
0.266754
0.267293
0.267629
0.267828
0.26793
0.267957
0.245224
0.245225
0.245323
0.245545
0.24593
0.246553
0.247515
0.248938
0.250956
0.253673
0.256924
0.259915
0.262135
0.263699
0.264756
0.265445
0.265876
0.266131
0.266263
0.266297
0.238426
0.238428
0.238554
0.238838
0.239331
0.240128
0.241356
0.243172
0.245743
0.249199
0.253326
0.257115
0.259926
0.261905
0.263244
0.264116
0.264662
0.264986
0.265153
0.265197
0.230782
0.230784
0.230948
0.231315
0.231953
0.232981
0.234561
0.236892
0.24018
0.244584
0.249821
0.254615
0.258161
0.260656
0.262342
0.263441
0.264129
0.264536
0.264747
0.264801
0.222037
0.22204
0.222256
0.222737
0.223569
0.224905
0.226953
0.229959
0.23418
0.239799
0.246443
0.252492
0.256954
0.260087
0.262204
0.263582
0.264445
0.264956
0.265221
0.265289
0.211848
0.211854
0.212142
0.21278
0.213877
0.21563
0.218303
0.222202
0.227639
0.234817
0.243234
0.250849
0.256443
0.260366
0.263014
0.26474
0.26582
0.26646
0.266791
0.266875
0.199737
0.199749
0.200142
0.201002
0.20247
0.204797
0.208318
0.213413
0.220442
0.229619
0.240259
0.249807
0.256795
0.261689
0.264996
0.267153
0.268505
0.269307
0.269722
0.269827
0.185019
0.185041
0.185596
0.186788
0.188788
0.191925
0.196624
0.20334
0.212469
0.224199
0.237602
0.249511
0.258197
0.264285
0.268408
0.271105
0.272802
0.273814
0.27434
0.274472
0.166684
0.166731
0.167557
0.169264
0.172051
0.176369
0.182752
0.191706
0.203616
0.218585
0.235371
0.25012
0.260851
0.268398
0.27354
0.276926
0.279073
0.280369
0.281051
0.281221
0.143205
0.143328
0.144633
0.147163
0.151179
0.157321
0.166196
0.17828
0.193856
0.212872
0.233708
0.251794
0.264944
0.274264
0.280689
0.284979
0.287738
0.289436
0.290355
0.290589
0.112038
0.112363
0.114586
0.118571
0.124755
0.133924
0.146586
0.163035
0.183352
0.207279
0.232812
0.254694
0.270627
0.282063
0.290111
0.295621
0.29926
0.30156
0.30285
0.3032
0.0683836
0.0692194
0.0735685
0.0807381
0.0912055
0.10555
0.123894
0.146255
0.172481
0.202139
0.232902
0.25893
0.277944
0.291821
0.301878
0.30905
0.314039
0.317367
0.319346
0.319868
0.00379036
0.00645412
0.0166286
0.0312158
0.0498251
0.0723794
0.0986497
0.128516
0.161702
0.197723
0.234048
0.264406
0.286671
0.303218
0.315618
0.324934
0.331894
0.337071
0.340481
0.341149
-0.0754491
-0.0691951
-0.0494865
-0.0231743
0.00590929
0.037799
0.0726271
0.110369
0.150861
0.193781
0.2365
0.27224
0.298869
0.319237
0.335149
0.347801
0.358011
0.3664
0.371586
0.373911
-0.153717
-0.140438
-0.110805
-0.0745355
-0.0358945
0.00500295
0.048038
0.0933245
0.140859
0.190494
0.239541
0.28059
0.31134
0.335099
0.353938
0.369175
0.381653
0.391872
0.399421
0.403309
-0.209482
-0.195128
-0.160552
-0.118048
-0.0724623
-0.0246306
0.0253457
0.0773185
0.13121
0.186903
0.241524
0.286984
0.320877
0.346875
0.36723
0.383383
0.396292
0.406637
0.414092
0.417744
-0.251781
-0.237036
-0.199267
-0.152673
-0.102578
-0.0497863
0.00536669
0.0626256
0.121801
0.182741
0.242292
0.291601
0.328031
0.355614
0.37689
0.393531
0.406657
0.417036
0.424545
0.428209
-0.284534
-0.269927
-0.230386
-0.181012
-0.127671
-0.0712207
-0.0120684
0.0494522
0.113034
0.178482
0.242376
0.295103
0.333774
0.362741
0.384808
0.401841
0.415115
0.425494
0.433002
0.436653
-0.311218
-0.296757
-0.256109
-0.204842
-0.149085
-0.0898151
-0.0275217
0.0373429
0.104494
0.173764
0.241592
0.297619
0.338537
0.368927
0.39182
0.409288
0.422749
0.433177
0.440737
0.444391
-0.333894
-0.319472
-0.277971
-0.225336
-0.167829
-0.106441
-0.0417341
0.0258004
0.0958648
0.168433
0.239957
0.299363
0.342731
0.37475
0.398635
0.41665
0.430385
0.44091
0.44854
0.452186
-0.353845
-0.339388
-0.297241
-0.243407
-0.18448
-0.121453
-0.0549061
0.0146416
0.0869748
0.162321
0.237382
0.300396
0.346602
0.380596
0.405737
0.42449
0.438613
0.449315
0.457011
0.460694
-0.371878
-0.35731
-0.314504
-0.25965
-0.199582
-0.135266
-0.0673522
0.00364498
0.0776311
0.15524
0.233688
0.300682
0.350269
0.386736
0.413503
0.433239
0.4479
0.458862
0.466665
0.470365
-0.38835
-0.373605
-0.33011
-0.274393
-0.213398
-0.148106
-0.079224
-0.00731031
0.0676934
0.14698
0.228656
0.300086
0.35375
0.393347
0.422229
0.443272
0.458675
0.470008
0.477996
0.481717
-0.40345
-0.388541
-0.344342
-0.287861
-0.226108
-0.160083
-0.0905966
-0.0182655
0.0571003
0.137374
0.222006
0.298377
0.35699
0.400526
0.432156
0.454917
0.471317
0.483164
0.491375
0.495118
-0.417445
-0.40231
-0.357391
-0.300207
-0.237802
-0.17126
-0.101489
-0.0292231
0.0458314
0.126284
0.213447
0.295251
0.359824
0.408309
0.44345
0.468459
0.486168
0.498709
0.507218
0.511017
-0.430366
-0.414989
-0.369355
-0.311535
-0.248559
-0.181641
-0.111863
-0.0401133
0.0339205
0.11363
0.202668
0.290338
0.362003
0.416641
0.456242
0.484133
0.503545
0.517002
0.525904
0.529777
-0.442399
-0.426718
-0.380347
-0.321884
-0.258423
-0.19124
-0.121659
-0.0508328
0.0214809
0.0993818
0.189395
0.28322
0.363215
0.425383
0.470584
0.502153
0.523732
0.538361
0.54777
0.551753
-0.453445
-0.437559
-0.390416
-0.331336
-0.267402
-0.200045
-0.130823
-0.0612445
0.00864453
0.0835802
0.173367
0.273451
0.363082
0.434316
0.486427
0.522622
0.546906
0.56295
0.572989
0.577054
-0.46372
-0.447476
-0.399591
-0.33992
-0.275536
-0.20804
-0.139291
-0.0712254
-0.00435929
0.0663251
0.154374
0.260582
0.361151
0.443139
0.503575
0.545385
0.573092
0.590942
0.601758
0.605845
-0.473136
-0.456618
-0.407971
-0.347683
-0.282855
-0.215226
-0.147005
-0.0806448
-0.0173405
0.0478388
0.132251
0.244167
0.357032
0.451413
0.521449
0.570021
0.602113
0.622223
0.633899
0.637859
-0.481934
-0.465088
-0.415601
-0.354703
-0.289405
-0.221633
-0.153936
-0.0893708
-0.0300702
0.0283638
0.106915
0.223684
0.350239
0.458851
0.539539
0.595815
0.633502
0.656716
0.668603
0.671677
-0.490051
-0.472874
-0.422562
-0.361023
-0.295226
-0.227282
-0.160052
-0.0973057
-0.0423094
0.00817466
0.0783251
0.198675
0.340605
0.465182
0.55722
0.622365
0.667145
0.695666
0.707235
0.706063
-0.497687
-0.480121
-0.428912
-0.366685
-0.300379
-0.232222
-0.165366
-0.104377
-0.0538534
-0.0123853
0.0465544
0.168501
0.32796
0.470324
0.575346
0.64816
0.700305
0.737336
0.754102
0.741998
-0.504843
-0.486865
-0.434718
-0.371761
-0.305007
-0.236581
-0.170012
-0.11074
-0.0649422
-0.0340043
0.00954946
0.13005
0.310259
0.47501
0.593127
0.671463
0.728307
0.772866
0.797761
0.800262
-0.511595
-0.49333
-0.439885
-0.376283
-0.309195
-0.240407
-0.173993
-0.116333
-0.075356
-0.0564253
-0.033701
0.0808638
0.285407
0.478892
0.608085
0.682574
0.733494