0.490941 	1.76136
0.561075 	1.76136
0.63121 	1.76136
0.701344 	1.76136
0.771478 	1.76136
0.841613 	1.76136
0.911747 	1.73631
0.981881 	1.73631
1.05202 	1.73631
1.12215 	1.73631
1.19228 	1.73631
1.26242 	1.73631
1.33255 	1.69234
1.40269 	1.69234
1.47282 	1.69234
1.54296 	1.69234
1.61309 	1.69234
1.68323 	1.69234
1.75336 	1.63197
1.82349 	1.63197
1.89363 	1.63197
1.96376 	1.63197
2.0339 	1.63197
2.10403 	1.63197
2.17417 	1.56072
2.2443 	1.56072
2.31443 	1.56072
2.38457 	1.56072
2.4547 	1.56072
2.52484 	1.56072
2.59497 	1.48441
2.66511 	1.48441
2.73524 	1.48441
2.80538 	1.48441
2.87551 	1.48441
2.94564 	1.48441
3.01578 	1.40814
3.08591 	1.40814
3.15605 	1.40814
3.22618 	1.40814
3.29632 	1.40814
3.36645 	1.40814
3.43659 	1.3337
3.50672 	1.3337
3.57685 	1.3337
3.64699 	1.3337
3.71712 	1.3337
3.78726 	1.32575
3.85739 	1.25261
3.92753 	1.25261
3.99766 	1.25261
4.06779 	1.25261
4.13793 	1.25261
4.20806 	1.25261
4.2782 	1.18141
4.34833 	1.18141
4.41847 	1.18141
4.4886 	1.18141
4.55874 	1.18141
4.62887 	1.18141
4.699 	1.18141
4.76914 	1.11204
4.83927 	1.11204
4.90941 	1.11204
4.97954 	1.11204
5.04968 	1.11204
5.11981 	1.11204
5.18994 	1.04435
5.26008 	1.04435
5.33021 	1.04435
5.40035 	1.04435
5.47048 	1.04435
5.54062 	1.04435
5.61075 	0.979287
5.68089 	0.979287
5.75102 	0.979287
5.82115 	0.979287
5.89129 	0.979287
5.96142 	0.979287
6.03156 	0.91738
6.10169 	0.91738
6.17183 	0.91738
6.24196 	0.91738
6.3121 	0.91738
6.38223 	0.91738
6.45236 	0.859527
6.5225 	0.859527
6.59263 	0.859527
6.66277 	0.859527
6.7329 	0.859527
6.80304 	0.859527
6.87317 	0.805741
6.9433 	0.805741
7.01344 	0.805741
7.08357 	0.805741
7.15371 	0.805741
7.22384 	0.805741
7.29398 	0.75626
7.36411 	0.75626
7.43425 	0.75626
7.50438 	0.75626
7.57451 	0.75626
7.64465 	0.75626
7.71478 	0.75626
7.78492 	0.710502
7.85505 	0.710502
7.92519 	0.710502
7.99532 	0.710502
8.06545 	0.710502
8.13559 	0.710502
8.20572 	0.66835
8.27586 	0.66835
8.34599 	0.66835
8.41613 	0.66835
8.48626 	0.66835
8.5564 	0.66835
8.62653 	0.629031
8.69666 	0.629031
8.7668 	0.629031
8.83693 	0.629031
8.90707 	0.629031
8.9772 	0.629031
9.04734 	0.592369
9.11747 	0.592369
9.18761 	0.592369
9.25774 	0.576745
9.32787 	0.576745
9.39801 	0.576745
9.46814 	0.576745
9.53828 	0.540797
9.60841 	0.540797
9.67855 	0.540797
9.74868 	0.540797
9.81881 	0.540797
9.88895 	0.540797
9.95908 	0.506249
10.0292 	0.506249
10.0994 	0.506249
10.1695 	0.506249
10.2396 	0.506249
10.3098 	0.506249
10.3799 	0.472443
10.45 	0.472443
10.5202 	0.472443
10.5903 	0.472443
10.6604 	0.472443
10.7306 	0.472443
10.8007 	0.439126
10.8708 	0.439126
10.941 	0.439126
11.0111 	0.439126
11.0812 	0.439126
11.1514 	0.439126
11.2215 	0.439126
11.2916 	0.405484
11.3618 	0.405484
11.4319 	0.405484
11.502 	0.405484
11.5722 	0.405484
11.6423 	0.405484
11.7124 	0.370901
11.7826 	0.370901
11.8527 	0.370901
11.9228 	0.370901
11.993 	0.370901
12.0631 	0.370901
12.1332 	0.333967
12.2034 	0.333967
12.2735 	0.333967
12.3437 	0.333967
12.4138 	0.333967
12.4839 	0.333967
12.5541 	0.333967
12.6242 	0.293604
12.6943 	0.293604
12.7645 	0.293604
12.8346 	0.293604
12.9047 	0.293604
12.9749 	0.293604
13.045 	0.248378
13.1151 	0.248378
13.1853 	0.248378
13.2554 	0.248378
13.3255 	0.248378
13.3957 	0.248378
13.4658 	0.248378
13.5359 	0.197831
13.6061 	0.197831
13.6762 	0.197831
13.7463 	0.197831
13.8165 	0.197831
13.8866 	0.197831
13.9567 	0.142485
14.0269 	0.142485
14.097 	0.142485
14.1671 	0.142485
14.2373 	0.142485
14.3074 	0.142485
14.3776 	0.114312
14.4477 	-0.00519969
14.5178 	-0.00519969
14.588 	-0.00519969
14.6581 	0.0159898
14.7282 	0.0159898
14.7984 	-0.083684
14.8685 	-0.0498691
14.9386 	-0.0498691
15.0088 	-0.0498691
15.0789 	-0.0498691
15.149 	-0.00809968
15.2192 	-0.123454
15.2893 	-0.123454
15.3594 	-0.123454
15.4296 	-0.0819603
15.4997 	-0.0819603
15.5698 	-0.19712
15.64 	-0.19712
15.7101 	-0.19712
15.7802 	-0.148387
15.8504 	-0.148387
15.9205 	-0.261499
15.9906 	-0.261499
16.0608 	-0.261499
16.1309 	-0.199738
16.201 	-0.199738
16.2712 	-0.312153
16.3413 	-0.312153
16.4114 	-0.312153
16.4816 	-0.312153
16.5517 	-0.23007
16.6219 	-0.336904
16.692 	-0.336904
16.7621 	-0.336904
16.8323 	-0.336904
16.9024 	-0.336904
16.9725 	-0.327791
17.0427 	-0.327791
17.1128 	-0.327791
17.1829 	-0.327791
17.2531 	-0.419548
17.3232 	-0.419548
17.3933 	-0.419548
17.4635 	-0.292831
17.5336 	-0.292831
17.6037 	-0.371844
17.6739 	-0.371844
17.744 	-0.371844
17.8141 	-0.371844
17.8843 	-0.371844
17.9544 	-0.31158
18.0245 	-0.31158
18.0947 	-0.31158
18.1648 	-0.31158
18.2349 	-0.376268
18.3051 	-0.376268
18.3752 	-0.376268
18.4453 	-0.376268
18.5155 	-0.376268
18.5856 	-0.31203
18.6557 	-0.31203
18.7259 	-0.31203
18.796 	-0.31203
18.8662 	-0.37367
18.9363 	-0.37367
19.0064 	-0.37367
19.0766 	-0.37367
19.1467 	-0.37367
19.2168 	-0.432394
19.287 	-0.302438
19.3571 	-0.302438
19.4272 	-0.302438
19.4974 	-0.302438
19.5675 	-0.360288
19.6376 	-0.360288
19.7078 	-0.360288
19.7779 	-0.360288
19.848 	-0.360288
19.9182 	-0.417238
19.9883 	-0.417238
20.0584 	-0.27965
20.1286 	-0.27965
20.1987 	-0.27965
20.2688 	-0.337146
20.339 	-0.337146
20.4091 	-0.337146
20.4792 	-0.337146
20.5494 	-0.337146
20.6195 	-0.393412
20.6896 	-0.393412
20.7598 	-0.393412
20.8299 	-0.393412
20.9 	-0.26646
20.9702 	-0.312925
21.0403 	-0.312925
21.1105 	-0.312925
21.1806 	-0.312925
21.2507 	-0.312925
21.3209 	-0.36261
21.391 	-0.36261
21.4611 	-0.36261
21.5313 	-0.36261
21.6014 	-0.36261
21.6715 	-0.36261
21.7417 	-0.413237
21.8118 	-0.413237
21.8819 	-0.413237
21.9521 	-0.320174
22.0222 	-0.320174
22.0923 	-0.357494
22.1625 	-0.357494
22.2326 	-0.357494
22.3027 	-0.357494
22.3729 	-0.357494
22.443 	-0.357494
22.5131 	-0.394492
22.5833 	-0.394492
22.6534 	-0.394492
22.7235 	-0.394492
22.7937 	-0.394492
22.8638 	-0.429675
22.9339 	-0.429675
23.0041 	-0.429675
23.0742 	-0.360966
23.1443 	-0.360966
23.2145 	-0.360966
23.2846 	-0.395277
23.3548 	-0.395277
23.4249 	-0.395277
23.495 	-0.395277
23.5652 	-0.395277
23.6353 	-0.395277
23.7054 	-0.428127
23.7756 	-0.428127
23.8457 	-0.428127
23.9158 	-0.428127
23.986 	-0.428127
24.0561 	-0.428127
24.1262 	-0.458943
24.1964 	-0.458943
24.2665 	-0.458943
24.3366 	-0.458943
24.4068 	-0.458943
24.4769 	-0.411971
24.547 	-0.411971
24.6172 	-0.434437
24.6873 	-0.434437
24.7574 	-0.434437
24.8276 	-0.434437
24.8977 	-0.434437
24.9678 	-0.434437
25.038 	-0.455171
25.1081 	-0.455171
25.1782 	-0.455171
25.2484 	-0.455171
25.3185 	-0.455171
25.3886 	-0.455171
25.4588 	-0.476464
25.5289 	-0.476464
25.5991 	-0.476464
25.6692 	-0.476464
25.7393 	-0.476464
25.8095 	-0.476464
25.8796 	-0.476464
25.9497 	-0.497953
26.0199 	-0.497953
26.09 	-0.495401
26.1601 	-0.495401
26.2303 	-0.495401
26.3004 	-0.495401
26.3705 	-0.495401
26.4407 	-0.51454
26.5108 	-0.51454
26.5809 	-0.51454
26.6511 	-0.51454
26.7212 	-0.51454
26.7913 	-0.51454
26.8615 	-0.51454
26.9316 	-0.531211
27.0017 	-0.531211
27.0719 	-0.531211
27.142 	-0.531211
27.2121 	-0.531211
27.2823 	-0.531211
27.3524 	-0.544072
27.4225 	-0.544072
27.4927 	-0.544072
27.5628 	-0.544072
27.6329 	-0.544072
27.7031 	-0.544072
27.7732 	-0.544072
27.8434 	-0.544072
27.9135 	-0.549738
27.9836 	-0.549738
28.0538 	-0.549738
28.1239 	-0.549738
28.194 	-0.549738
28.2642 	-0.549738
28.3343 	-0.538756
28.4044 	-0.54076
28.4746 	-0.54076
28.5447 	-0.54076
28.6148 	-0.54076
28.685 	-0.54076
28.7551 	-0.54076
28.8252 	-0.54076
28.8954 	-0.54076
28.9655 	-0.53699
29.0356 	-0.53699
29.1058 	-0.53699
29.1759 	-0.53699
29.246 	-0.53699
29.3162 	-0.53699
29.3863 	-0.53699
29.4564 	-0.525451
29.5266 	-0.525451
29.5967 	-0.525451
29.6668 	-0.525451
29.737 	-0.525451
29.8071 	-0.525451
29.8773 	-0.525451
29.9474 	-0.525451
30.0175 	-0.504902
30.0877 	-0.504902
30.1578 	-0.504902
30.2279 	-0.504902
30.2981 	-0.504902
30.3682 	-0.504902
30.4383 	-0.504902
30.5085 	-0.504902
30.5786 	-0.481303
30.6487 	-0.481303
30.7189 	-0.481303
30.789 	-0.481303
30.8591 	-0.481303
30.9293 	-0.481303
30.9994 	-0.481303
31.0695 	-0.481303
31.1397 	-0.457573
31.2098 	-0.457573
31.2799 	-0.457573
31.3501 	-0.457573
31.4202 	-0.457573
31.4903 	-0.457573
31.5605 	-0.501034
31.6306 	-0.501034
31.7007 	-0.482186
31.7709 	-0.482186
31.841 	-0.482186
31.9111 	-0.482186
31.9813 	-0.482186
32.0514 	-0.482186
32.1216 	-0.482186
32.1917 	-0.482186
32.2618 	-0.482186
32.332 	-0.464803
32.4021 	-0.464803
32.4722 	-0.464803
32.5424 	-0.464803
32.6125 	-0.464803
32.6826 	-0.464803
32.7528 	-0.464803
32.8229 	-0.464803
32.893 	-0.464803
32.9632 	-0.451242
33.0333 	-0.451242
33.1034 	-0.451242
33.1736 	-0.451242
33.2437 	-0.451242
33.3138 	-0.451242
33.384 	-0.451242
33.4541 	-0.451242
33.5242 	-0.451242
33.5944 	-0.442762
33.6645 	-0.442762
33.7346 	-0.442762
33.8048 	-0.442762
33.8749 	-0.442762
33.945 	-0.442762
34.0152 	-0.442762
34.0853 	-0.442762
34.1554 	-0.442762
34.2256 	-0.439587
34.2957 	-0.439587
34.3659 	-0.439587
34.436 	-0.439587
34.5061 	-0.439587
34.5763 	-0.439587
34.6464 	-0.439587
34.7165 	-0.439587
34.7867 	-0.439587
34.8568 	-0.439587
34.9269 	-0.442516
34.9971 	-0.442516
35.0672 	-0.442516
35.1373 	-0.442516
35.2075 	-0.442516
35.2776 	-0.442516
35.3477 	-0.442516
35.4179 	-0.442516
35.488 	-0.442516
35.5581 	-0.442516
35.6283 	-0.454424
35.6984 	-0.454424
35.7685 	-0.454424
35.8387 	-0.454424
35.9088 	-0.454424
35.9789 	-0.454424
36.0491 	-0.454424
36.1192 	-0.454424
36.1893 	-0.454424
36.2595 	-0.454424
36.3296 	-0.481303
36.3997 	-0.481303
36.4699 	-0.481303
36.54 	-0.481303
36.6102 	-0.481303
36.6803 	-0.481303
36.7504 	-0.481303
36.8206 	-0.481303
36.8907 	-0.481303
36.9608 	-0.481303
37.031 	-0.481303
37.1011 	-0.519817
37.1712 	-0.519817
37.2414 	-0.519817
37.3115 	-0.519817
37.3816 	-0.519817
37.4518 	-0.519817
37.5219 	-0.519817
37.592 	-0.519817
37.6622 	-0.574199
37.7323 	-0.574199
37.8024 	-0.574199
37.8726 	-0.574199
37.9427 	-0.574199
38.0128 	-0.574199
38.083 	-0.574199
38.1531 	-0.574199
38.2232 	-0.574199
38.2934 	-0.652377
38.3635 	-0.652377
38.4336 	-0.652377
38.5038 	-0.652377
38.5739 	-0.652377
38.644 	-0.652377
38.7142 	-0.652377
38.7843 	-0.652377
38.8545 	-0.652377
38.9246 	-0.759774
38.9947 	-0.759774
39.0649 	-0.759774
39.135 	-0.759774
39.2051 	-0.759774
39.2753 	-0.759774
39.3454 	-0.759774
39.4155 	-0.759774
39.4857 	-0.759774
39.5558 	-0.898903
39.6259 	-0.898903
39.6961 	-0.898903
39.7662 	-0.898903
39.8363 	-0.898903
39.9065 	-0.898903
39.9766 	-0.898903
40.0467 	-0.898903
40.1169 	-1.07075
40.187 	-1.07075
40.2571 	-1.07075
40.3273 	-1.07075
40.3974 	-1.07075
40.4675 	-1.07075
40.5377 	-1.07075
40.6078 	-1.07075
40.6779 	-1.07075
40.7481 	-1.26883
40.8182 	-1.26883
40.8883 	-1.26883
40.9585 	-1.26883
41.0286 	-1.26883
41.0988 	-1.26883
41.1689 	-1.26883
41.239 	-1.26883
41.3092 	-1.26883
41.3793 	-1.45673
41.4494 	-1.45673
41.5196 	-1.45673
41.5897 	-1.45673
41.6598 	-1.45673
41.73 	-1.45673
41.8001 	-1.45673
41.8702 	-1.45673
41.9404 	-1.45673
42.0105 	-1.6088
42.0806 	-1.6088
42.1508 	-1.6088
42.2209 	-1.6088
42.291 	-1.6088
42.3612 	-1.6088
42.4313 	-1.6088
42.5014 	-1.6088
42.5716 	-1.6088
42.6417 	-1.69363
42.7118 	-1.69363
42.782 	-1.69363
42.8521 	-1.69363
42.9222 	-1.69363
42.9924 	-1.69363
43.0625 	-1.69363
43.1327 	-1.69363
43.2028 	-1.6946
43.2729 	-1.6946
43.3431 	-1.6946
43.4132 	-1.6946
43.4833 	-1.6946
43.5535 	-1.6946
43.6236 	-1.6946
43.6937 	-1.6946
43.7639 	-1.6946
43.834 	-1.62013
43.9041 	-1.62013
43.9743 	-1.62013
44.0444 	-1.62013
44.1145 	-1.62013
44.1847 	-1.62013
44.2548 	-1.62013
44.3249 	-1.62013
44.3951 	-1.62013
44.4652 	-1.47716
44.5353 	-1.47716
44.6055 	-1.47716
44.6756 	-1.47716
44.7457 	-1.47716
44.8159 	-1.47716
44.886 	-1.47716
44.9561 	-1.47716
45.0263 	-1.47716
45.0964 	-1.28274
45.1665 	-1.28274
45.2367 	-1.28274
45.3068 	-1.28274
45.377 	-1.28274
45.4471 	-1.28274
45.5172 	-1.28274
45.5874 	-1.28274
45.6575 	-1.05987
45.7276 	-1.05987
45.7978 	-1.05987
45.8679 	-1.05987
45.938 	-1.05987
46.0082 	-1.05987
46.0783 	-1.05987
46.1484 	-1.05987
46.2186 	-1.05987
46.2887 	-0.832105
46.3588 	-0.832105
46.429 	-0.832105
46.4991 	-0.832105
46.5692 	-0.832105
46.6394 	-0.832105
46.7095 	-0.832105
46.7796 	-0.928867
46.8498 	-0.928867
46.9199 	-0.681577
46.99 	-0.681577
47.0602 	-0.681577
47.1303 	-0.681577
47.2004 	-0.681577
47.2706 	-0.681577
47.3407 	-0.681577
47.4108 	-0.681577
47.481 	-0.681577
47.5511 	-0.462522
47.6213 	-0.462522
47.6914 	-0.462522
47.7615 	-0.462522
47.8317 	-0.462522
47.9018 	-0.462522
47.9719 	-0.462522
48.0421 	-0.462522
48.1122 	-0.462522
48.1823 	-0.278654
48.2525 	-0.278654
48.3226 	-0.278654
48.3927 	-0.278654
48.4629 	-0.278654
48.533 	-0.278654
48.6031 	-0.278654
48.6733 	-0.278654
48.7434 	-0.159557
48.8135 	-0.159557
48.8837 	-0.159557
48.9538 	-0.159557
49.0239 	-0.159557
49.0941 	-0.159557
49.1642 	-0.159557
49.2343 	-0.159557
49.3045 	-0.159557
49.3746 	-0.0808812
49.4447 	-0.0808812
49.5149 	-0.0808812
49.585 	-0.0808812
49.6551 	-0.0808812
49.7253 	-0.0808812
49.7954 	-0.0808812
49.8656 	-0.0808812
49.9357 	-0.0808812
50.0058 	-0.0297308
50.076 	-0.0297308
50.1461 	-0.0297308
50.2162 	-0.0297308
50.2864 	-0.0297308
50.3565 	-0.0297308
50.4266 	-0.0297308
50.4968 	-0.0297308
50.5669 	-0.0297308
50.637 	0.00217114
50.7072 	0.00217114
50.7773 	0.00217114
50.8474 	0.00217114
50.9176 	0.00217114
50.9877 	0.00217114
51.0578 	0.00217114
51.128 	0.00217114
51.1981 	0.00217114
51.2682 	0.0214919
51.3384 	0.0214919
51.4085 	0.0214919
51.4786 	0.0214919
51.5488 	0.0214919
51.6189 	0.0214919
51.689 	0.0214919
51.7592 	0.0214919
51.8293 	0.0328315
51.8994 	0.0328315
51.9696 	0.0328315
52.0397 	0.0328315
52.1099 	0.0328315
52.18 	0.0328315
52.2501 	0.0328315
52.3203 	0.0328315
52.3904 	0.0328315
52.4605 	0.0391582
52.5307 	0.0391582
52.6008 	0.0391582
52.6709 	0.0391582
52.7411 	0.0391582
52.8112 	0.0391582
52.8813 	0.0391582
52.9515 	0.0391582
53.0216 	0.0391582
53.0917 	0.0423378
53.1619 	0.0423378
53.232 	0.0423378
53.3021 	0.0423378
53.3723 	0.0423378
53.4424 	0.0423378
53.5125 	0.0423378
53.5827 	0.0423378
53.6528 	0.0423378
53.7229 	0.0435181
53.7931 	0.0435181
53.8632 	0.0435181
53.9333 	0.0435181
54.0035 	0.0435181
54.0736 	0.0435181
54.1437 	0.0435181
54.2139 	0.0435181
54.284 	0.0434347
54.3542 	0.0434347
54.4243 	0.0434347
54.4944 	0.0434347
54.5646 	0.0434347
54.6347 	0.0434347
54.7048 	0.0434347
54.775 	0.0434347
54.8451 	0.0434347
54.9152 	0.0425932
54.9854 	0.0425932
55.0555 	0.0425932
55.1256 	0.0425932
55.1958 	0.0425932
55.2659 	0.0425932
55.336 	0.0425932
55.4062 	0.0425932
55.4763 	0.0425932
55.5464 	0.0413211
55.6166 	0.0413211
55.6867 	0.0413211
55.7568 	0.0413211
55.827 	0.0413211
55.8971 	0.0413211
55.9672 	0.0413211
56.0374 	0.0413211
56.1075 	0.0413211
56.1776 	0.0397868
56.2478 	0.0397868
56.3179 	0.0397868
56.3881 	0.0397868
56.4582 	0.0397868
56.5283 	0.0397868
56.5985 	0.0397868
56.6686 	0.0397868
56.7387 	0.0397868
56.8089 	0.0380654
56.879 	0.0380654
56.9491 	0.0380654
57.0193 	0.0380654
57.0894 	0.0380654
57.1595 	0.0380654
57.2297 	0.0380654
57.2998 	0.0380654
57.3699 	0.036215
57.4401 	0.036215
57.5102 	0.036215
57.5803 	0.036215
57.6505 	0.036215
57.7206 	0.036215
57.7907 	0.036215
57.8609 	0.036215
57.931 	0.036215
58.0011 	0.0342984
58.0713 	0.0342984
58.1414 	0.0342984
58.2115 	0.0342984
58.2817 	0.0342984
58.3518 	0.0342984
58.4219 	0.0342984
58.4921 	0.0342984
58.5622 	0.0342984
58.6324 	0.0323586
58.7025 	0.0323586
58.7726 	0.0323586
58.8428 	0.0323586
58.9129 	0.0323586
58.983 	0.0323586
59.0532 	0.0323586
59.1233 	0.0323586
59.1934 	0.0323586
59.2636 	0.0304076
59.3337 	0.0304076
59.4038 	0.0304076
59.474 	0.0304076
59.5441 	0.0304076
59.6142 	0.0304076
59.6844 	0.0304076
59.7545 	0.0304076
59.8246 	0.0284446
59.8948 	0.0284446
59.9649 	0.0284446
60.035 	0.0284446
60.1052 	0.0284446
60.1753 	0.0284446
60.2454 	0.0284446
60.3156 	0.0284446
60.3857 	0.0284446
60.4558 	0.0264735
60.526 	0.0264735
60.5961 	0.0264735
60.6662 	0.0264735
60.7364 	0.0264735
60.8065 	0.0264735
60.8767 	0.0264735
60.9468 	0.0264735
61.0169 	0.0264735
61.0871 	0.0245019
61.1572 	0.0245019
61.2273 	0.0245019
61.2975 	0.0245019
61.3676 	0.0245019
61.4377 	0.0245019
61.5079 	0.0245019
61.578 	0.0245019
61.6481 	0.0245019
61.7183 	0.0225341
61.7884 	0.0225341
61.8585 	0.0225341
61.9287 	0.0225341
61.9988 	0.0225341
62.0689 	0.0225341
62.1391 	0.0225341
62.2092 	0.0225341
62.2793 	0.0225341
62.3495 	0.0205697
62.4196 	0.0205697
62.4897 	0.0205697
62.5599 	0.0205697
62.63 	0.0205697
62.7001 	0.0205697
62.7703 	0.0205697
62.8404 	0.0205697
62.9105 	0.018608
62.9807 	0.018608
63.0508 	0.018608
63.121 	0.018608
63.1911 	0.018608
63.2612 	0.018608
63.3314 	0.018608
63.4015 	0.018608
63.4716 	0.018608
63.5418 	0.0166479
63.6119 	0.0166479
63.682 	0.0166479
63.7522 	0.0166479
63.8223 	0.0166479
63.8924 	0.0166479
63.9626 	0.0166479
64.0327 	0.0166479
64.1028 	0.0166479
64.173 	0.0146891
64.2431 	0.0146891
64.3132 	0.0146891
64.3834 	0.0146891
64.4535 	0.0146891
64.5236 	0.0146891
64.5938 	0.0146891
64.6639 	0.0146891
64.734 	0.0146891
64.8042 	0.0127315
64.8743 	0.0127315
64.9444 	0.0127315
65.0146 	0.0127315
65.0847 	0.0127315
65.1548 	0.0127315
65.225 	0.0127315
65.2951 	0.0123848
65.3653 	0.0123848
65.4354 	0.0104834
65.5055 	0.0104834
65.5757 	0.0104834
65.6458 	0.0104834
65.7159 	0.0104834
65.7861 	0.0104834
65.8562 	0.0104834
65.9263 	0.0104834
65.9965 	0.00858248
66.0666 	0.00858248
66.1367 	0.00858248
66.2069 	0.00858248
66.277 	0.00858248
66.3471 	0.00858248
66.4173 	0.00858248
66.4874 	0.00858248
66.5575 	0.00858248
66.6277 	0.00668174
66.6978 	0.00668174
66.7679 	0.00668174
66.8381 	0.00668174
66.9082 	0.00668174
66.9783 	0.00668174
67.0485 	0.00668174
67.1186 	0.00668174
67.1887 	0.00668174
67.2589 	0.00477806
67.329 	0.00477806
67.3991 	0.00477806
67.4693 	0.00477806
67.5394 	0.00477806
67.6096 	0.00477806
67.6797 	0.00477806
67.7498 	0.00477806
67.82 	0.00477806
67.8901 	0.00286827
67.9602 	0.00286827
68.0304 	0.00286827
68.1005 	0.00286827
68.1706 	0.00286827
68.2408 	0.00286827
68.3109 	0.00286827
68.381 	0.00286827
68.4512 	0.000944172
68.5213 	0.000944172
68.5914 	0.000944172
68.6616 	0.000944172
68.7317 	0.000944172
68.8018 	0.000944172
68.872 	0.000944172
68.9421 	0.000944172
69.0122 	0.000944172
