/*--------------------------------*- C++ -*----------------------------------*\
  =========                 |
  \\      /  F ield         | OpenFOAM: The Open Source CFD Toolbox
   \\    /   O peration     | Website:  https://openfoam.org
    \\  /    A nd           | Version:  6
     \\/     M anipulation  |
\*---------------------------------------------------------------------------*/
FoamFile
{
    version     2.0;
    format      ascii;
    class       volScalarField;
    location    "86";
    object      p;
}
// * * * * * * * * * * * * * * * * * * * * * * * * * * * * * * * * * * * * * //

dimensions      [0 2 -2 0 0 0 0];

internalField   nonuniform List<scalar> 
8800
(
0.842967
0.793653
0.755688
0.72762
0.707461
0.692876
0.682281
0.674744
0.669865
0.667804
0.669184
0.673535
0.680335
0.689764
0.702505
0.719829
0.743709
0.776808
0.819746
0.872261
0.677458
0.683803
0.692954
0.696504
0.693896
0.68781
0.680872
0.674634
0.669838
0.666976
0.666754
0.669391
0.674042
0.680177
0.687283
0.694321
0.699203
0.699081
0.692408
0.683512
0.650967
0.657203
0.661705
0.665578
0.668528
0.66948
0.668395
0.666279
0.664306
0.663476
0.66452
0.666984
0.66988
0.672158
0.672685
0.670901
0.66754
0.66353
0.658751
0.655035
0.646657
0.649423
0.652031
0.654191
0.655931
0.657503
0.658611
0.65897
0.658865
0.658976
0.659795
0.660952
0.661705
0.661565
0.660598
0.65925
0.657586
0.655288
0.65288
0.651314
0.641588
0.643014
0.644855
0.646939
0.648655
0.649952
0.651056
0.652045
0.652865
0.653618
0.654347
0.654824
0.654863
0.654513
0.653856
0.652749
0.651101
0.649212
0.647862
0.64706
0.63658
0.637484
0.638733
0.640363
0.642061
0.643599
0.644892
0.646025
0.647104
0.648142
0.648951
0.649364
0.649394
0.649043
0.648254
0.647078
0.645726
0.644468
0.643651
0.643126
0.63165
0.632306
0.63327
0.634592
0.636045
0.63757
0.639066
0.640444
0.641726
0.642957
0.643939
0.644463
0.644507
0.644093
0.643331
0.642404
0.641426
0.640531
0.639955
0.639571
0.626793
0.627299
0.628087
0.629233
0.630542
0.631969
0.633492
0.635052
0.636588
0.638078
0.639272
0.63992
0.640034
0.639742
0.639203
0.638536
0.637816
0.637165
0.636743
0.636443
0.621954
0.622356
0.623019
0.624048
0.625288
0.626666
0.628189
0.629853
0.631616
0.633403
0.63487
0.635727
0.636048
0.635998
0.63571
0.635271
0.634764
0.63431
0.634001
0.633757
0.617051
0.617378
0.617955
0.618907
0.620106
0.621479
0.623045
0.624821
0.626795
0.628901
0.630723
0.631908
0.632534
0.632766
0.63273
0.632531
0.632229
0.631942
0.631717
0.631512
0.611992
0.612263
0.612781
0.613691
0.614879
0.616287
0.617941
0.619874
0.622099
0.624579
0.626845
0.628451
0.629447
0.629999
0.630241
0.630285
0.630192
0.630053
0.629897
0.629719
0.606685
0.606914
0.607395
0.608292
0.60951
0.610997
0.612782
0.61493
0.617481
0.620423
0.623231
0.625341
0.62677
0.627691
0.628243
0.628539
0.628664
0.628665
0.628566
0.628407
0.601035
0.601229
0.601693
0.602607
0.603897
0.605507
0.607481
0.609914
0.61288
0.616395
0.61986
0.622571
0.624507
0.625851
0.626759
0.627346
0.627695
0.627826
0.627774
0.627627
0.594931
0.595099
0.595562
0.596523
0.597924
0.599711
0.601943
0.604745
0.608229
0.612449
0.616709
0.62014
0.622677
0.624515
0.625831
0.626749
0.627335
0.627596
0.627586
0.627445
0.588249
0.588394
0.588872
0.589908
0.591467
0.593491
0.596059
0.599331
0.603459
0.60854
0.613761
0.618053
0.621304
0.623722
0.625504
0.626798
0.627656
0.628051
0.628079
0.627941
0.58084
0.580961
0.581468
0.58261
0.584377
0.58671
0.589707
0.593568
0.598492
0.604622
0.611
0.616319
0.620414
0.62352
0.625857
0.627587
0.628747
0.629282
0.629344
0.629205
0.572514
0.572618
0.573161
0.574441
0.576478
0.579202
0.582738
0.587333
0.593239
0.600645
0.608413
0.614954
0.620045
0.62396
0.626966
0.629204
0.630703
0.631386
0.631479
0.631334
0.56299
0.563096
0.563705
0.565158
0.567543
0.570763
0.574976
0.580485
0.587601
0.596558
0.605989
0.613976
0.620242
0.625109
0.628898
0.631734
0.63362
0.634457
0.634577
0.634422
0.551976
0.552059
0.552754
0.554459
0.557287
0.561138
0.566206
0.572859
0.581468
0.592308
0.603723
0.61341
0.621054
0.627041
0.631732
0.635274
0.637586
0.638579
0.638718
0.638551
0.539063
0.539135
0.539935
0.541951
0.545343
0.550005
0.556165
0.564262
0.574722
0.587849
0.601619
0.613289
0.622522
0.629809
0.635555
0.639895
0.642666
0.643807
0.643957
0.643773
0.523657
0.523718
0.524672
0.527108
0.531241
0.536964
0.54454
0.554481
0.567253
0.583151
0.599693
0.613649
0.624693
0.633463
0.640406
0.645635
0.648882
0.650149
0.650296
0.650093
0.504946
0.505002
0.506174
0.509201
0.51435
0.521504
0.53096
0.543295
0.558972
0.578219
0.597983
0.614529
0.627608
0.638036
0.646297
0.652494
0.656191
0.65754
0.657664
0.657441
0.481704
0.481767
0.483293
0.48721
0.493818
0.502982
0.515019
0.530516
0.549853
0.573111
0.596564
0.615979
0.631293
0.64353
0.653213
0.66039
0.664457
0.665818
0.665897
0.665655
0.452059
0.452153
0.454286
0.459648
0.468537
0.480669
0.496358
0.516067
0.539981
0.567966
0.595549
0.618073
0.635761
0.64991
0.661088
0.669156
0.673433
0.674707
0.674719
0.674466
0.412798
0.413027
0.41642
0.424448
0.437195
0.453934
0.474843
0.5001
0.529608
0.563014
0.595098
0.620897
0.641032
0.657117
0.669759
0.678515
0.682757
0.683829
0.68376
0.683503
0.357808
0.358962
0.365738
0.379324
0.398824
0.422697
0.450841
0.483101
0.51917
0.558568
0.595394
0.624534
0.647107
0.665063
0.678999
0.68809
0.691968
0.692746
0.692599
0.692351
0.278241
0.286053
0.30165
0.325449
0.355046
0.388469
0.425411
0.465664
0.508948
0.554798
0.596662
0.629361
0.65456
0.674507
0.689465
0.698505
0.701816
0.70229
0.702098
0.70189
0.193534
0.210628
0.235962
0.270729
0.310965
0.354065
0.399793
0.448122
0.498869
0.551657
0.599222
0.63607
0.664387
0.686512
0.702365
0.710712
0.713131
0.71331
0.713145
0.713014
0.120861
0.141773
0.175232
0.219402
0.269066
0.321276
0.375551
0.431794
0.489792
0.549159
0.601952
0.642458
0.673394
0.697224
0.713293
0.720664
0.722406
0.722483
0.722354
0.722257
0.0612666
0.0845038
0.123539
0.17445
0.231469
0.291285
0.353087
0.416569
0.48132
0.546817
0.604406
0.648164
0.681272
0.706261
0.722329
0.729057
0.730487
0.730533
0.730428
0.73034
0.01184
0.0364638
0.0795293
0.135686
0.198583
0.26464
0.332835
0.402685
0.473555
0.544709
0.606726
0.653435
0.688419
0.714364
0.730356
0.736599
0.737863
0.737918
0.737841
0.737755
-0.030045
-0.00461064
0.0414265
0.101837
0.169677
0.241055
0.314775
0.390254
0.466665
0.543061
0.609223
0.65866
0.695341
0.722035
0.737876
0.743769
0.744961
0.745054
0.745013
0.74493
-0.0664606
-0.040502
0.0078494
0.0717835
0.143855
0.219886
0.298527
0.379101
0.460635
0.541953
0.612083
0.664113
0.702363
0.729694
0.745398
0.751027
0.752181
0.752334
0.752346
0.752272
-0.0989324
-0.0725696
-0.022322
0.044624
0.120378
0.200513
0.283607
0.368889
0.455244
0.541303
0.615289
0.66988
0.709657
0.737644
0.753308
0.758803
0.759972
0.760165
0.760226
0.760165
-0.128521
-0.101796
-0.0499426
0.0196374
0.0986437
0.182443
0.269588
0.359255
0.45021
0.540896
0.618728
0.675936
0.717328
0.746093
0.761878
0.767366
0.768505
0.768713
0.768805
0.768762
-0.156068
-0.128965
-0.0756776
-0.00372155
0.0781808
0.165278
0.256127
0.349891
0.44526
0.540511
0.622269
0.682184
0.725315
0.755002
0.771061
0.776602
0.777711
0.777887
0.777973
0.777942
-0.182004
-0.154549
-0.099948
-0.0258715
0.0586307
0.148713
0.242962
0.340554
0.44017
0.53997
0.625753
0.688504
0.733474
0.764164
0.780566
0.78619
0.787261
0.787382
0.787439
0.787425
-0.206828
-0.178944
-0.123128
-0.0471208
0.0397256
0.132513
0.229891
0.331064
0.43475
0.539085
0.629029
0.694767
0.741626
0.77334
0.790107
0.795764
0.796782
0.796827
0.796847
0.796842
-0.230707
-0.202387
-0.14543
-0.0676776
0.0212785
0.116523
0.216772
0.321285
0.428854
0.537692
0.631961
0.700866
0.74968
0.782351
0.799359
0.804995
0.805935
0.805895
0.805867
0.805858
-0.253809
-0.225027
-0.167012
-0.0876728
0.00318305
0.100645
0.203511
0.311114
0.422369
0.535645
0.63441
0.70673
0.757581
0.791054
0.808118
0.813624
0.81444
0.814325
0.814257
0.814241
-0.276262
-0.24699
-0.187961
-0.107178
-0.0146329
0.0848256
0.190062
0.300503
0.415217
0.532824
0.636237
0.712293
0.765373
0.799535
0.81635
0.821518
0.822176
0.821997
0.821897
0.821875
-0.298152
-0.268337
-0.208315
-0.126225
-0.0321797
0.0690478
0.176417
0.289433
0.407353
0.529125
0.637306
0.717488
0.773147
0.807963
0.824184
0.828709
0.829102
0.828872
0.828761
0.828732
-0.319374
-0.289044
-0.228077
-0.144835
-0.0494603
0.0533365
0.16259
0.277923
0.39877
0.524484
0.637477
0.722211
0.780982
0.816663
0.831984
0.835373
0.835252
0.834976
0.834906
0.834881
-0.33993
-0.309102
-0.24726
-0.162993
-0.0664507
0.0377188
0.148634
0.266005
0.389492
0.518859
0.636625
0.726312
0.788894
0.825993
0.840371
0.842036
0.840828
0.84038
0.84051
0.840583
-0.359884
-0.328505
-0.265866
-0.18069
-0.0831114
0.0222519
0.134608
0.253746
0.379564
0.51225
0.63462
0.729602
0.796751
0.836172
0.850189
0.849887
0.846676
0.845454
0.845979
0.846636
-0.379116
-0.347236
-0.283857
-0.197875
-0.0994032
0.00700133
0.120588
0.241227
0.369064
0.504698
0.631358
0.731843
0.804278
0.847065
0.862008
0.860601
0.855059
0.851599
0.850878
0.850995
-0.397717
-0.365321
-0.301249
-0.214592
-0.115369
-0.00807828
0.106518
0.228389
0.357919
0.496131
0.626676
0.732772
0.811239
0.858325
0.87573
0.875213
0.868444
0.860592
0.851824
0.853703
-0.41562
-0.382827
-0.318181
-0.231036
-0.131301
-0.0233064
0.0919983
0.214772
0.345622
0.485977
0.619997
0.731739
0.817386
0.869707
0.890457
0.892715
0.884901
0.871077
0.850412
0.851148
-0.432706
-0.399733
-0.334503
-0.247028
-0.146944
-0.0383933
0.0772155
0.20067
0.332422
0.474404
0.611226
0.727824
0.821549
0.879776
0.902177
0.905096
0.896468
0.867165
0.810374
0.786405
-0.448871
-0.417006
-0.349822
-0.262136
-0.161505
-0.0528536
0.0624506
0.18636
0.318597
0.461563
0.600358
0.720298
0.822282
0.88702
0.905446
0.903006
0.881194
0.825239
0.762761
0.724938
-0.490886
-0.433985
-0.363837
-0.277297
-0.175746
-0.0676751
0.0478506
0.171708
0.303921
0.447064
0.586885
0.708334
0.815605
0.886709
0.896316
0.872982
0.815938
0.745381
0.674715
0.635768
-0.465251
-0.446748
-0.385137
-0.297905
-0.197854
-0.0899715
0.0249366
0.14829
0.279869
0.422133
0.56141
0.682256
0.782417
0.861096
0.836148
0.716685
0.619332
0.551719
0.485037
0.508538
-0.495309
-0.46369
-0.401212
-0.314459
-0.214777
-0.107022
0.00812196
0.130901
0.261599
0.40236
0.539428
0.657111
0.746003
0.790209
0.728916
0.580315
0.464883
0.387041
0.302411
0.344031
-0.518428
-0.484479
-0.420312
-0.333519
-0.233886
-0.126128
-0.0110664
0.110974
0.240401
0.378922
0.512306
0.624024
0.700999
0.706931
0.590488
0.428033
0.293513
0.196792
0.0991365
0.12697
-0.540826
-0.505886
-0.440406
-0.352988
-0.253289
-0.145649
-0.0310951
0.0900065
0.217879
0.353647
0.482125
0.584866
0.644588
0.616734
0.449402
0.266563
0.102471
-0.0345663
-0.16112
-0.152042
-0.562897
-0.527621
-0.461283
-0.373311
-0.273503
-0.166098
-0.0522184
0.0677576
0.193728
0.32622
0.448746
0.542289
0.580828
0.504388
0.310241
0.1084
-0.081554
-0.237767
-0.443945
-0.523698
-0.58533
-0.550156
-0.483336
-0.394991
-0.295064
-0.187873
-0.0746275
0.0441484
0.168026
0.296856
0.412756
0.496891
0.507772
0.380084
0.182949
-0.0300053
-0.224539
-0.387387
-0.511433
-0.627497
-0.609189
-0.573971
-0.506922
-0.418413
-0.318512
-0.211652
-0.0991623
0.0181973
0.139572
0.264058
0.372664
0.4436
0.425752
0.261919
0.0636516
-0.143068
-0.32094
-0.419306
-0.445435
-0.45875
-0.634609
-0.59936
-0.532168
-0.443664
-0.343992
-0.23766
-0.126203
-0.0106176
0.107734
0.227013
0.327879
0.379995
0.342178
0.14813
-0.0478161
-0.234198
-0.368765
-0.407195
-0.415898
-0.416219
-0.66187
-0.62645
-0.559117
-0.470735
-0.371455
-0.26591
-0.155784
-0.0423651
0.0724293
0.185711
0.277867
0.312601
0.241192
0.0437649
-0.145475
-0.30725
-0.383022
-0.397292
-0.398365
-0.398233
-0.690981
-0.655274
-0.587791
-0.499629
-0.400926
-0.296403
-0.187924
-0.0770751
0.0336637
0.140266
0.222334
0.241441
0.130815
-0.0512819
-0.229744
-0.357483
-0.386981
-0.387986
-0.388741
-0.388368
-0.721689
-0.685672
-0.618097
-0.53027
-0.432326
-0.329094
-0.222608
-0.114736
-0.00851295
0.0908009
0.162584
0.162089
0.0331349
-0.138495
-0.296458
-0.369139
-0.38431
-0.382995
-0.382938
-0.382626
-0.753443
-0.717295
-0.649774
-0.562433
-0.465473
-0.363832
-0.259695
-0.155233
-0.0538811
0.0377486
0.0990582
0.0820317
-0.0563816
-0.215251
-0.342311
-0.379837
-0.37882
-0.379036
-0.378827
-0.378567
-0.785796
-0.749614
-0.682333
-0.5957
-0.500015
-0.400295
-0.298899
-0.198288
-0.102147
-0.0179145
0.0305339
0.00666193
-0.136888
-0.275871
-0.370086
-0.377352
-0.377118
-0.376477
-0.376037
-0.37579
-0.817782
-0.781752
-0.715048
-0.629434
-0.535396
-0.437999
-0.339751
-0.243404
-0.152885
-0.0753187
-0.0379149
-0.0682601
-0.204837
-0.318444
-0.375702
-0.385151
-0.377621
-0.375073
-0.374243
-0.373855
-0.847635
-0.812424
-0.746877
-0.662743
-0.570831
-0.47623
-0.381571
-0.289839
-0.205299
-0.13401
-0.101258
-0.145302
-0.258933
-0.350705
-0.374488
-0.377557
-0.376986
-0.375913
-0.375277
-0.374827
-0.874212
-0.840115
-0.776414
-0.694418
-0.605248
-0.514036
-0.423468
-0.336665
-0.258137
-0.193478
-0.162716
-0.211824
-0.299636
-0.368195
-0.390162
-0.38126
-0.379297
-0.37852
-0.378045
-0.377787
-0.894826
-0.862717
-0.801893
-0.722925
-0.637321
-0.55022
-0.46433
-0.382799
-0.310106
-0.251911
-0.223694
-0.264119
-0.327038
-0.371327
-0.375965
-0.378202
-0.378465
-0.378537
-0.378617
-0.37869
-0.907413
-0.878101
-0.821228
-0.746506
-0.665512
-0.583381
-0.502834
-0.426974
-0.360131
-0.306743
-0.279388
-0.30818
-0.344635
-0.371589
-0.371957
-0.376464
-0.378421
-0.378849
-0.379096
-0.379145
-0.909263
-0.883872
-0.832305
-0.763301
-0.688167
-0.612047
-0.537534
-0.467714
-0.406982
-0.357297
-0.326135
-0.348085
-0.361358
-0.374671
-0.378875
-0.380683
-0.381955
-0.382381
-0.382533
-0.38253
-0.898049
-0.877453
-0.832981
-0.77155
-0.703795
-0.634828
-0.567085
-0.503514
-0.448847
-0.404802
-0.361484
-0.38698
-0.380401
-0.390462
-0.392137
-0.389205
-0.388161
-0.388089
-0.38802
-0.387951
-0.8714
-0.856316
-0.821357
-0.770002
-0.711338
-0.650693
-0.590467
-0.533247
-0.483869
-0.447432
-0.400963
-0.404365
-0.406698
-0.419438
-0.406129
-0.399135
-0.395279
-0.393812
-0.393155
-0.392956
-0.832751
-0.823125
-0.798564
-0.758898
-0.71078
-0.659394
-0.60709
-0.556278
-0.511577
-0.480851
-0.450653
-0.425169
-0.404698
-0.420291
-0.421605
-0.405391
-0.394178
-0.39135
-0.391389
-0.391412
-0.789143
-0.783665
-0.769534
-0.741308
-0.704204
-0.661776
-0.617032
-0.572333
-0.531604
-0.501423
-0.473099
-0.440088
-0.39138
-0.355448
-0.345365
-0.358025
-0.380077
-0.393358
-0.39772
-0.398251
-0.750522
-0.747192
-0.740486
-0.722577
-0.694514
-0.659666
-0.621358
-0.581344
-0.542464
-0.510603
-0.484039
-0.454733
-0.427876
-0.398394
-0.403046
-0.447922
-0.470131
-0.468078
-0.463559
-0.467902
-0.722665
-0.72069
-0.717261
-0.706693
-0.685426
-0.656183
-0.62198
-0.584258
-0.545361
-0.510157
-0.482254
-0.476018
-0.525451
-0.64046
-0.756345
-0.808688
-0.802119
-0.755353
-0.693386
-0.672975
-0.702151
-0.70145
-0.700284
-0.69507
-0.679558
-0.653975
-0.621086
-0.583375
-0.541741
-0.499666
-0.470765
-0.451588
-0.480784
-0.551428
-0.662163
-0.689188
-0.647779
-0.596639
-0.543279
-0.517155
-0.690134
-0.689901
-0.689283
-0.686833
-0.676294
-0.652955
-0.619634
-0.580144
-0.533939
-0.483253
-0.439597
-0.382608
-0.317131
-0.247117
-0.211568
-0.172191
-0.107433
-0.0624743
-0.0285613
-0.0115648
-0.681821
-0.681669
-0.681255
-0.680524
-0.674126
-0.653063
-0.619112
-0.576001
-0.524712
-0.462607
-0.398373
-0.317601
-0.175896
0.0321475
0.249618
0.441802
0.532475
0.564649
0.567546
0.566693
-0.676377
-0.676341
-0.676235
-0.676112
-0.672255
-0.654574
-0.619704
-0.572801
-0.515645
-0.442537
-0.360781
-0.264953
-0.077937
0.185075
0.444661
0.664841
0.806387
0.872501
0.897733
0.906029
-0.671815
-0.671873
-0.671919
-0.671947
-0.670541
-0.656407
-0.621468
-0.571176
-0.508685
-0.428226
-0.334088
-0.231585
-0.0401514
0.232439
0.519259
0.770038
0.945772
1.04812
1.10102
1.12105
-0.667748
-0.667811
-0.667698
-0.667357
-0.666908
-0.657154
-0.624422
-0.573287
-0.50624
-0.421233
-0.32203
-0.21808
-0.0339821
0.239355
0.537667
0.815604
1.03542
1.16669
1.22518
1.2422
-0.665738
-0.665591
-0.664901
-0.663408
-0.662476
-0.656904
-0.631085
-0.579868
-0.509531
-0.422749
-0.325485
-0.227042
-0.0719046
0.182278
0.456729
0.707203
0.916592
1.04836
1.10158
1.11408
-0.667094
-0.667098
-0.667144
-0.666901
-0.665655
-0.663937
-0.643196
-0.590755
-0.517714
-0.433499
-0.342315
-0.253532
-0.133712
0.0785446
0.310228
0.509296
0.670418
0.770427
0.809716
0.817994
-0.669713
-0.670913
-0.674531
-0.682115
-0.690393
-0.690764
-0.664829
-0.602757
-0.530277
-0.453237
-0.366623
-0.287612
-0.197823
-0.0325519
0.147105
0.292808
0.406839
0.473043
0.497633
0.502155
-0.673544
-0.675518
-0.681337
-0.694576
-0.713813
-0.718158
-0.679587
-0.611008
-0.548692
-0.477805
-0.39551
-0.327417
-0.262745
-0.141672
-0.00760576
0.0957185
0.171962
0.214809
0.229985
0.232671
-0.688751
-0.690098
-0.692851
-0.691617
-0.685012
-0.683487
-0.651594
-0.611464
-0.569661
-0.50146
-0.425993
-0.366964
-0.318095
-0.228527
-0.131331
-0.0598268
-0.0106954
0.0160805
0.0260409
0.0277437
-0.712943
-0.713291
-0.712016
-0.684417
-0.622226
-0.578392
-0.596096
-0.61241
-0.588398
-0.522964
-0.45445
-0.405148
-0.366275
-0.297998
-0.22504
-0.173007
-0.138202
-0.119861
-0.113184
-0.11198
-0.739582
-0.737742
-0.732918
-0.704423
-0.64357
-0.596279
-0.616619
-0.649396
-0.616255
-0.543984
-0.480354
-0.438652
-0.403699
-0.348419
-0.291031
-0.249862
-0.222199
-0.206257
-0.200755
-0.200187
-0.798544
-0.797662
-0.816214
-0.845014
-0.854692
-0.828852
-0.800167
-0.754478
-0.667973
-0.568345
-0.505711
-0.462946
-0.432056
-0.385256
-0.335342
-0.299413
-0.274704
-0.260994
-0.256557
-0.256576
-0.931774
-0.946359
-0.994103
-1.05318
-1.08014
-1.0625
-0.996078
-0.873912
-0.719417
-0.593708
-0.525632
-0.474537
-0.44765
-0.407814
-0.363111
-0.330831
-0.308668
-0.296131
-0.292102
-0.292355
-1.05107
-1.07126
-1.11457
-1.15697
-1.18017
-1.16187
-1.08402
-0.917348
-0.730179
-0.607453
-0.523106
-0.472146
-0.449117
-0.409951
-0.369348
-0.342758
-0.324395
-0.314682
-0.311567
-0.311919
-1.05118
-1.06611
-1.09506
-1.12565
-1.14494
-1.13019
-1.04937
-0.861229
-0.695648
-0.584083
-0.49412
-0.45492
-0.432923
-0.396265
-0.362731
-0.34078
-0.325319
-0.317064
-0.314354
-0.314751
-0.911876
-0.924968
-0.950337
-0.979599
-1.00012
-0.989729
-0.907809
-0.753667
-0.626838
-0.517598
-0.45218
-0.419497
-0.396612
-0.368076
-0.341131
-0.322679
-0.309628
-0.302654
-0.300427
-0.301016
-0.656955
-0.67127
-0.699498
-0.735683
-0.764944
-0.761207
-0.698039
-0.603531
-0.513154
-0.438447
-0.400675
-0.367247
-0.355498
-0.332969
-0.310995
-0.295561
-0.283606
-0.27684
-0.275095
-0.275949
-0.346028
-0.357528
-0.382092
-0.418289
-0.452669
-0.467902
-0.450973
-0.420238
-0.382324
-0.357586
-0.332163
-0.314001
-0.309872
-0.292418
-0.274605
-0.262244
-0.252158
-0.246797
-0.245807
-0.24675
-0.0805971
-0.0875463
-0.104885
-0.134975
-0.176313
-0.215017
-0.244978
-0.2617
-0.27062
-0.268976
-0.263381
-0.262958
-0.262644
-0.250744
-0.239335
-0.229534
-0.220859
-0.216858
-0.21638
-0.217375
0.0736046
0.0693863
0.0570135
0.0313238
-0.00835002
-0.0604999
-0.113168
-0.154251
-0.178748
-0.194028
-0.204962
-0.208209
-0.21399
-0.207717
-0.201062
-0.19594
-0.192414
-0.19113
-0.191247
-0.192068
0.125684
0.122772
0.113418
0.0928384
0.0579381
0.0130684
-0.0348819
-0.0801086
-0.114055
-0.135677
-0.148595
-0.156595
-0.164052
-0.161872
-0.162227
-0.163688
-0.16582
-0.167577
-0.167995
-0.168436
0.115575
0.113645
0.107071
0.0923363
0.0671317
0.0327193
-0.00499504
-0.0389091
-0.0646383
-0.084202
-0.0984904
-0.106852
-0.111749
-0.112863
-0.118162
-0.125066
-0.13231
-0.136551
-0.137044
-0.137017
0.0742528
0.0731922
0.0694791
0.0610675
0.0466874
0.0275455
0.00573384
-0.0155247
-0.0325821
-0.0445841
-0.0530991
-0.057601
-0.059706
-0.0630239
-0.0689593
-0.0758842
-0.0827776
-0.0867578
-0.0872224
-0.0870225
0.0173287
0.0173434
0.0175954
0.0165627
0.0136605
0.00921764
0.00429171
-0.000580448
-0.00470529
-0.00790224
-0.00951025
-0.0113873
-0.0109107
-0.0114762
-0.0144604
-0.0174335
-0.0205497
-0.0214393
-0.0199976
-0.0191855
-0.0236894
0.16293
0.333922
0.47824
0.592995
0.682765
0.756889
0.817003
0.83186
0.828634
0.261187
0.380634
0.492366
0.588872
0.66967
0.736046
0.788208
0.823456
0.842383
0.859174
0.453868
0.533267
0.611681
0.680346
0.738706
0.787014
0.825093
0.854235
0.876227
0.895494
0.596421
0.652806
0.709547
0.760408
0.804272
0.841594
0.872967
0.899347
0.919391
0.93829
0.711432
0.753896
0.79602
0.835454
0.870722
0.901942
0.929276
0.952479
0.970298
0.988365
0.807253
0.842422
0.877082
0.910315
0.940972
0.968764
0.993341
1.014
1.02967
1.04715
0.894709
0.926372
0.958286
0.98917
1.01791
1.04405
1.06699
1.08579
1.09963
1.11663
0.981104
1.01349
1.0457
1.07671
1.10533
1.13098
1.153
1.17044
1.18276
1.19927
1.07515
1.11149
1.14615
1.1785
1.20756
1.23282
1.25386
1.27008
1.28165
1.29778
1.18807
1.22873
1.26565
1.29848
1.32687
1.35079
1.37036
1.38559
1.39746
1.41352
1.3295
1.37045
1.40563
1.43513
1.46028
1.48185
1.50032
1.51578
1.52887
1.54481
1.50089
1.53303
1.55995
1.58228
1.60234
1.62105
1.63877
1.65552
1.67043
1.68615
1.68705
1.70428
1.72138
1.73806
1.75414
1.76887
1.78277
1.79724
1.81247
1.82977
1.87044
1.88037
1.89355
1.90453
1.91393
1.92359
1.93419
1.94436
1.95365
1.97931
2.08827
2.08257
2.06962
2.05536
2.04907
2.05477
2.07291
2.10143
2.13519
2.17152
2.39109
2.25515
2.17564
2.13309
2.11576
2.11975
2.14718
2.20504
2.3127
2.49111
0.746659
0.740358
0.732629
0.721518
0.707951
0.695309
0.684922
0.676926
0.67123
0.66793
0.667622
0.670496
0.675763
0.683146
0.692714
0.704557
0.718129
0.731064
0.740058
0.747602
0.655717
0.661637
0.669712
0.675849
0.678923
0.678419
0.675344
0.671365
0.667801
0.665551
0.665462
0.667761
0.671553
0.676027
0.68015
0.68241
0.681347
0.676719
0.669669
0.661838
0.648949
0.651322
0.654592
0.65737
0.659827
0.662026
0.663218
0.663091
0.66218
0.661412
0.661679
0.663147
0.664971
0.666233
0.666183
0.664734
0.66259
0.660238
0.657263
0.654248
0.644134
0.645222
0.647143
0.649487
0.651367
0.652777
0.654011
0.655026
0.655658
0.656082
0.656697
0.657503
0.65802
0.657941
0.657342
0.656442
0.655128
0.653171
0.651072
0.649598
0.639076
0.63971
0.640842
0.642608
0.644462
0.64607
0.64734
0.648431
0.64945
0.650403
0.651262
0.651857
0.652055
0.651895
0.651394
0.650448
0.649042
0.647448
0.646121
0.645321
0.634108
0.634546
0.635339
0.636652
0.638187
0.639768
0.64127
0.642598
0.643798
0.64495
0.64599
0.646681
0.646933
0.646756
0.646136
0.645172
0.644045
0.642921
0.64203
0.641498
0.629218
0.629545
0.630162
0.631242
0.632554
0.633975
0.635482
0.636995
0.638441
0.63982
0.641072
0.641925
0.642242
0.642068
0.641527
0.640788
0.639976
0.639146
0.638498
0.638109
0.62438
0.624633
0.625132
0.626056
0.627248
0.628582
0.630039
0.631613
0.633256
0.63491
0.636432
0.637482
0.637935
0.637925
0.637613
0.637122
0.636531
0.635935
0.63547
0.635173
0.61952
0.619721
0.620137
0.620953
0.622072
0.623365
0.624814
0.626443
0.628241
0.63016
0.632002
0.633344
0.63406
0.634316
0.634262
0.634012
0.633639
0.633242
0.63292
0.632688
0.61455
0.614712
0.61507
0.615815
0.616892
0.618173
0.619662
0.621387
0.623361
0.625562
0.627785
0.629525
0.6306
0.631175
0.6314
0.631399
0.631254
0.631043
0.630839
0.630653
0.60938
0.60951
0.609827
0.610531
0.611596
0.612911
0.614479
0.616347
0.618554
0.621102
0.623789
0.62602
0.627526
0.628472
0.629015
0.629285
0.629368
0.629338
0.629237
0.629086
0.603914
0.604019
0.604308
0.604996
0.606086
0.607478
0.609171
0.61124
0.613751
0.616738
0.619995
0.622817
0.624831
0.626207
0.627111
0.627678
0.628013
0.628163
0.628151
0.628028
0.598051
0.598134
0.598408
0.599105
0.600256
0.601767
0.603641
0.60598
0.608882
0.612415
0.61637
0.619901
0.62252
0.624397
0.625716
0.626636
0.627241
0.627568
0.627637
0.627535
0.591676
0.591739
0.592007
0.592735
0.593983
0.595662
0.597783
0.600474
0.603869
0.608077
0.61288
0.617265
0.620605
0.623074
0.624871
0.626186
0.627098
0.627619
0.627767
0.627681
0.584648
0.584692
0.584963
0.585745
0.58713
0.589032
0.591475
0.594615
0.598626
0.603663
0.609495
0.614905
0.619101
0.622271
0.624635
0.626402
0.627668
0.628399
0.628625
0.62855
0.576814
0.576832
0.577106
0.577966
0.579531
0.581721
0.584574
0.588278
0.593054
0.599107
0.606184
0.61282
0.618032
0.622029
0.625067
0.627378
0.629044
0.630002
0.630304
0.630238
0.56791
0.567923
0.568222
0.569184
0.570981
0.573537
0.576907
0.581316
0.58704
0.594337
0.602916
0.611015
0.617429
0.622398
0.626228
0.629189
0.631316
0.632525
0.632903
0.632841
0.557673
0.557659
0.558001
0.559116
0.561215
0.564238
0.568261
0.573554
0.580454
0.589274
0.599663
0.609495
0.617325
0.62344
0.628205
0.631917
0.634581
0.636059
0.636511
0.636447
0.545756
0.545722
0.546114
0.547415
0.549893
0.553518
0.558372
0.564783
0.57315
0.583836
0.596401
0.608278
0.617758
0.62521
0.631071
0.63565
0.638917
0.64068
0.641197
0.641126
0.531654
0.531597
0.53207
0.533625
0.536589
0.540989
0.546917
0.554755
0.564966
0.577948
0.593117
0.607388
0.618768
0.62775
0.634883
0.640451
0.644382
0.646427
0.646993
0.646909
0.514667
0.514588
0.51519
0.517099
0.520715
0.52615
0.533495
0.543189
0.555746
0.571556
0.589823
0.60686
0.620397
0.631113
0.639664
0.646342
0.650979
0.653281
0.653871
0.653766
0.4938
0.493705
0.494512
0.496939
0.501474
0.508344
0.51762
0.529786
0.545357
0.564652
0.586567
0.60674
0.622689
0.635321
0.645422
0.653312
0.658646
0.66114
0.661714
0.66158
0.467532
0.467437
0.468593
0.471825
0.477758
0.486722
0.498747
0.514283
0.533752
0.557306
0.58345
0.607114
0.625676
0.640374
0.652147
0.661282
0.66722
0.669794
0.670302
0.670134
0.433411
0.433368
0.43515
0.439768
0.448051
0.46032
0.476397
0.496575
0.521043
0.549704
0.580635
0.608086
0.629406
0.646264
0.659753
0.670081
0.676425
0.678913
0.679301
0.679099
0.387064
0.387244
0.390409
0.397947
0.410619
0.428326
0.450434
0.476889
0.507574
0.542166
0.578352
0.609788
0.633936
0.65295
0.668128
0.67946
0.685864
0.688054
0.688282
0.688056
0.320318
0.32175
0.329462
0.343742
0.364505
0.390882
0.4215
0.455936
0.493939
0.535115
0.576846
0.612329
0.639274
0.66036
0.676991
0.688937
0.69498
0.696666
0.696728
0.696506
0.240654
0.243456
0.258468
0.283128
0.314984
0.351599
0.39141
0.434233
0.479939
0.528213
0.576178
0.61645
0.646874
0.670533
0.688749
0.70088
0.70629
0.707548
0.70755
0.707416
0.159095
0.166408
0.188964
0.223989
0.266567
0.313188
0.362184
0.41343
0.466862
0.522211
0.576365
0.621327
0.655068
0.681235
0.700912
0.712746
0.71705
0.717744
0.71769
0.717611
0.0924178
0.101759
0.129113
0.171468
0.222446
0.27753
0.334788
0.393911
0.454685
0.516732
0.576635
0.625818
0.662424
0.690499
0.710903
0.722228
0.725872
0.7264
0.726357
0.726303
0.0377691
0.0478521
0.0788576
0.126643
0.183943
0.245774
0.309956
0.375979
0.443397
0.511633
0.576844
0.629878
0.668985
0.6986
0.719517
0.730427
0.733659
0.734103
0.734083
0.734047
-0.00796178
0.00245212
0.0359513
0.0879648
0.150434
0.217856
0.287873
0.359865
0.433202
0.507091
0.577237
0.633826
0.675195
0.70615
0.7274
0.737928
0.7409
0.74133
0.741346
0.741331
-0.0472433
-0.0366925
-0.00133786
0.0540549
0.120838
0.193062
0.268171
0.345446
0.424137
0.50324
0.578029
0.637968
0.681445
0.713559
0.735003
0.745225
0.748034
0.748472
0.748548
0.748566
-0.081788
-0.0712006
-0.0344006
0.0237899
0.0942491
0.17065
0.250289
0.33236
0.416
0.500022
0.579253
0.642454
0.687929
0.721144
0.742807
0.75279
0.755476
0.75597
0.756116
0.756178
-0.112876
-0.102279
-0.0643272
-0.00373043
0.069933
0.150013
0.233714
0.320194
0.408473
0.497218
0.580798
0.64723
0.694738
0.729091
0.751068
0.76096
0.763637
0.764164
0.764345
0.764444
-0.141524
-0.130898
-0.0919296
-0.0292009
0.0473134
0.130667
0.218036
0.30858
0.40125
0.494566
0.582486
0.652207
0.701855
0.737474
0.759932
0.769898
0.772565
0.773061
0.77325
0.773375
-0.168317
-0.157646
-0.11776
-0.0531146
0.0259334
0.112228
0.202935
0.297236
0.39406
0.491847
0.584135
0.65727
0.709155
0.746156
0.76922
0.779365
0.782037
0.782475
0.78263
0.782753
-0.193739
-0.182999
-0.142252
-0.0758639
0.00546038
0.0944068
0.188162
0.285941
0.386701
0.488859
0.585581
0.662274
0.716509
0.754947
0.778656
0.788991
0.791676
0.792034
0.792129
0.792228
-0.218165
-0.207267
-0.16571
-0.097719
-0.014342
0.0769935
0.173534
0.27454
0.379008
0.485429
0.586662
0.667089
0.723786
0.763664
0.788033
0.798454
0.801106
0.801381
0.801399
0.801469
-0.241727
-0.230644
-0.188313
-0.118863
-0.0336359
0.0598621
0.158933
0.262909
0.370862
0.481404
0.587221
0.671606
0.730922
0.772201
0.797032
0.807471
0.810023
0.810198
0.810145
0.810182
-0.264611
-0.253289
-0.210214
-0.139397
-0.0525126
0.0429253
0.144285
0.250978
0.362182
0.476682
0.587114
0.675719
0.737881
0.78055
0.805633
0.815864
0.818219
0.818295
0.818184
0.818193
-0.286815
-0.275276
-0.231477
-0.159382
-0.0710156
0.0261499
0.129569
0.238723
0.35292
0.471173
0.586208
0.679308
0.744676
0.788837
0.813906
0.823607
0.825634
0.825595
0.825445
0.825433
-0.308426
-0.296642
-0.252099
-0.178836
-0.0891621
0.00953039
0.114782
0.226151
0.34307
0.464824
0.584384
0.682253
0.751297
0.797241
0.822137
0.830895
0.832297
0.832092
0.831935
0.83192
-0.329324
-0.317356
-0.272085
-0.197775
-0.106941
-0.00689505
0.0999531
0.213287
0.332652
0.457624
0.581542
0.684405
0.757692
0.805979
0.830779
0.838133
0.838388
0.837824
0.837728
0.837782
-0.349642
-0.337414
-0.291438
-0.2162
-0.124346
-0.0231143
0.085146
0.200179
0.321708
0.449601
0.577611
0.6856
0.76372
0.815146
0.840396
0.846195
0.844566
0.843026
0.843001
0.843401
-0.369235
-0.356774
-0.310162
-0.234081
-0.141315
-0.039063
0.0704213
0.18692
0.310312
0.440774
0.572555
0.685661
0.769155
0.824625
0.851376
0.856288
0.852455
0.848901
0.848359
0.849426
-0.388223
-0.37549
-0.328217
-0.251377
-0.157829
-0.0546892
0.0558498
0.173573
0.298545
0.43124
0.566375
0.68439
0.773707
0.834041
0.863516
0.869161
0.864221
0.858014
0.853212
0.846382
-0.406498
-0.393562
-0.345692
-0.268255
-0.174108
-0.0702656
0.0411117
0.159757
0.285999
0.420557
0.558652
0.681358
0.777178
0.843424
0.876698
0.884986
0.880896
0.871855
0.859512
0.859167
-0.424026
-0.411074
-0.3626
-0.284668
-0.190147
-0.0857624
0.0262273
0.145441
0.272621
0.40857
0.54914
0.675957
0.778647
0.85193
0.889112
0.900284
0.896961
0.887525
0.852049
0.814183
-0.440617
-0.427884
-0.378901
-0.300498
-0.205953
-0.101192
0.0111851
0.130745