/*--------------------------------*- C++ -*----------------------------------*\
  =========                 |
  \\      /  F ield         | OpenFOAM: The Open Source CFD Toolbox
   \\    /   O peration     | Website:  https://openfoam.org
    \\  /    A nd           | Version:  6
     \\/     M anipulation  |
\*---------------------------------------------------------------------------*/
FoamFile
{
    version     2.0;
    format      ascii;
    class       volScalarField;
    location    "27.7";
    object      p;
}
// * * * * * * * * * * * * * * * * * * * * * * * * * * * * * * * * * * * * * //

dimensions      [0 2 -2 0 0 0 0];

internalField   nonuniform List<scalar> 
8800
(
0.948519
0.8992
0.861226
0.833143
0.812959
0.798332
0.787678
0.780064
0.775082
0.772873
0.774051
0.778223
0.784882
0.794205
0.806872
0.824145
0.847989
0.881064
0.923987
0.976495
0.783029
0.789371
0.798513
0.80205
0.799426
0.793312
0.786334
0.780031
0.775139
0.772147
0.771738
0.774171
0.778649
0.784658
0.791668
0.798636
0.803468
0.803309
0.796612
0.787701
0.756586
0.762818
0.76731
0.771169
0.774098
0.775019
0.773884
0.771687
0.76958
0.768563
0.769392
0.771672
0.774407
0.776553
0.776979
0.775119
0.771701
0.767648
0.762843
0.759122
0.752349
0.755112
0.75771
0.759854
0.761569
0.763105
0.76416
0.764422
0.764161
0.764063
0.764643
0.76559
0.766172
0.765876
0.764785
0.763346
0.761611
0.759259
0.756819
0.755251
0.747378
0.748802
0.75064
0.752714
0.754408
0.755664
0.7567
0.757585
0.758237
0.75874
0.759198
0.759432
0.75925
0.75872
0.757919
0.756694
0.754947
0.752981
0.751592
0.75079
0.742509
0.743411
0.744658
0.746278
0.747955
0.749446
0.750651
0.751652
0.75254
0.753298
0.753782
0.753887
0.75366
0.753102
0.752139
0.75081
0.749333
0.74798
0.747118
0.746597
0.737756
0.738409
0.739379
0.740706
0.742146
0.743636
0.745055
0.746308
0.747411
0.748343
0.748918
0.749032
0.748725
0.748029
0.747025
0.745894
0.744743
0.74372
0.743094
0.742718
0.733154
0.733656
0.734461
0.735632
0.736955
0.738374
0.739858
0.741306
0.742604
0.74372
0.744438
0.74462
0.744298
0.743602
0.742724
0.74177
0.740811
0.739992
0.739509
0.739221
0.728648
0.729041
0.729729
0.730798
0.732062
0.733434
0.734908
0.736452
0.737968
0.739329
0.740223
0.740476
0.740238
0.739697
0.738986
0.738184
0.737371
0.736704
0.736328
0.736104
0.724198
0.724507
0.725114
0.726128
0.727364
0.728706
0.73016
0.73173
0.733379
0.734952
0.736093
0.736578
0.736575
0.736265
0.735752
0.735105
0.734403
0.733859
0.733566
0.733391
0.719771
0.720015
0.720558
0.721523
0.722739
0.724113
0.725639
0.727301
0.729088
0.730933
0.732372
0.733172
0.73345
0.733342
0.732982
0.732483
0.731924
0.731488
0.731265
0.731128
0.715336
0.715527
0.716036
0.717018
0.718295
0.719767
0.72145
0.723346
0.725399
0.727545
0.7294
0.73056
0.731065
0.731113
0.730892
0.730494
0.730021
0.72966
0.729491
0.729385
0.710839
0.710976
0.711448
0.712423
0.713718
0.715221
0.716944
0.718972
0.721368
0.724003
0.726303
0.727818
0.728707
0.729142
0.729213
0.72902
0.728691
0.728429
0.728321
0.728244
0.706301
0.70639
0.70683
0.707802
0.709144
0.71075
0.712664
0.71493
0.717584
0.720666
0.723608
0.725791
0.727168
0.727933
0.728264
0.728304
0.728132
0.727987
0.727941
0.72789
0.701709
0.701757
0.702155
0.703091
0.704458
0.706163
0.708266
0.710907
0.714153
0.717967
0.721612
0.724347
0.726194
0.727366
0.728056
0.728397
0.728502
0.728524
0.728534
0.728494
0.696643
0.696695
0.697064
0.697944
0.699307
0.701104
0.703426
0.706397
0.710154
0.714746
0.719359
0.722982
0.725569
0.727358
0.728551
0.729286
0.729705
0.729916
0.729977
0.729936
0.690749
0.690794
0.691166
0.69209
0.693583
0.695625
0.698346
0.701935
0.706543
0.71221
0.717926
0.722475
0.725786
0.728143
0.729828
0.73096
0.731681
0.732054
0.732152
0.732103
0.683693
0.683737
0.684171
0.685188
0.6869
0.689286
0.692511
0.696808
0.702408
0.70939
0.716514
0.722262
0.72652
0.729607
0.73183
0.733386
0.734408
0.734931
0.735063
0.735007
0.675151
0.675204
0.675728
0.676952
0.679006
0.681908
0.685864
0.691182
0.698107
0.706752
0.715585
0.722729
0.72803
0.731912
0.734735
0.736741
0.738061
0.738714
0.738874
0.738808
0.664716
0.664776
0.665436
0.666976
0.669533
0.67315
0.678096
0.68474
0.693386
0.704121
0.715041
0.723839
0.73038
0.735175
0.73868
0.74119
0.742821
0.7436
0.743794
0.743717
0.651875
0.651948
0.652789
0.654764
0.658028
0.662638
0.668941
0.677355
0.688207
0.701544
0.714977
0.725732
0.733691
0.739552
0.743884
0.746963
0.748931
0.749853
0.750086
0.749996
0.635893
0.635972
0.637059
0.639666
0.643962
0.649976
0.658139
0.668901
0.682571
0.699113
0.715545
0.728592
0.738244
0.745344
0.750588
0.754286
0.756622
0.757722
0.758003
0.757898
0.615832
0.61593
0.617377
0.62087
0.62663
0.634645
0.64536
0.659244
0.676495
0.696922
0.716863
0.732557
0.744154
0.752693
0.758975
0.763408
0.766171
0.767486
0.767814
0.767684
0.590021
0.590175
0.592242
0.597139
0.605097
0.616045
0.63036
0.648381
0.67012
0.695169
0.71913
0.737796
0.751574
0.761752
0.769231
0.774498
0.777785
0.779341
0.779704
0.779542
0.555509
0.555832
0.559179
0.566649
0.57824
0.593623
0.613007
0.636447
0.66369
0.694108
0.72255
0.744464
0.760619
0.772589
0.78142
0.787676
0.791587
0.793396
0.793778
0.793572
0.506589
0.50787
0.514593
0.527366
0.545224
0.567334
0.593647
0.623906
0.657631
0.694054
0.727321
0.75266
0.7713
0.785163
0.795479
0.802891
0.807534
0.809607
0.80998
0.809716
0.434587
0.442437
0.457827
0.480266
0.507521
0.538559
0.573287
0.611363
0.652308
0.695353
0.733952
0.763132
0.784624
0.800754
0.812966
0.821915
0.827611
0.830226
0.83076
0.830569
0.358145
0.374831
0.399788
0.43253
0.469526
0.50966
0.552895
0.599044
0.647693
0.698204
0.743274
0.777423
0.802762
0.821965
0.8368
0.847949
0.855157
0.858456
0.859321
0.859308
0.29333
0.313697
0.346447
0.387797
0.433458
0.482122
0.533584
0.587608
0.643763
0.701408
0.752516
0.791156
0.819895
0.841804
0.858728
0.871504
0.879997
0.883992
0.884749
0.884815
0.240797
0.263367
0.301228
0.348704
0.401092
0.456865
0.51557
0.576754
0.639864
0.704181
0.760791
0.803386
0.834924
0.858902
0.877383
0.891371
0.900927
0.90534
0.90627
0.906436
0.1973
0.221104
0.262622
0.314851
0.372621
0.434211
0.499036
0.5665
0.635871
0.70623
0.767795
0.813803
0.847654
0.873226
0.8929
0.907731
0.917905
0.922777
0.924016
0.92422
0.160044
0.184594
0.22881
0.284912
0.347179
0.413721
0.483818
0.556791
0.631757
0.707571
0.77358
0.822563
0.858331
0.885152
0.905633
0.921033
0.931506
0.936771
0.938236
0.938447
0.127067
0.152137
0.198461
0.257762
0.323881
0.394724
0.46948
0.5474
0.627445
0.70826
0.778348
0.830021
0.867431
0.89522
0.916234
0.931935
0.942529
0.947983
0.949553
0.949711
0.0969616
0.122474
0.170559
0.232608
0.302037
0.376647
0.455592
0.538017
0.622769
0.708301
0.782283
0.836487
0.875401
0.904003
0.925393
0.941228
0.951878
0.957389
0.959042
0.959184
0.0688215
0.0947511
0.144366
0.20882
0.281166
0.359115
0.441824
0.528382
0.61755
0.707619
0.785407
0.842149
0.882539
0.911948
0.933722
0.949705
0.960359
0.965858
0.967573
0.96771
0.0419405
0.068327
0.119343
0.185965
0.260885
0.341821
0.427943
0.518305
0.611627
0.70609
0.787709
0.847053
0.889046
0.919373
0.941618
0.957786
0.968463
0.973868
0.975561
0.975723
0.0160453
0.0428859
0.0951847
0.163739
0.240969
0.324593
0.413803
0.507663
0.604898
0.703644
0.789163
0.851322
0.895131
0.926534
0.949366
0.965807
0.976551
0.981886
0.983464
0.983563
-0.00922028
0.0181739
0.0716468
0.141954
0.221264
0.307303
0.399318
0.496397
0.597306
0.700231
0.7898
0.855026
0.900859
0.933529
0.957101
0.973916
0.984762
0.99002
0.99145
0.991466
-0.0339223
-0.00597319
0.0486045
0.120511
0.201682
0.289898
0.384453
0.484482
0.588833
0.695835
0.78954
0.858056
0.90622
0.940391
0.964862
0.982136
0.993084
0.998224
0.99951
0.999427
-0.0581302
-0.0296174
0.0260127
0.0993778
0.182215
0.27238
0.369215
0.471923
0.579471
0.690372
0.788238
0.860344
0.911177
0.947128
0.972657
0.990449
1.00146
1.00642
1.00752
1.00735
-0.0818936
-0.0527864
0.00387895
0.0785517
0.162868
0.254774
0.353644
0.458758
0.569215
0.683787
0.785826
0.86177
0.915649
0.953719
0.980494
0.998833
1.00985
1.01451
1.0154
1.01516
-0.105224
-0.0754513
-0.017805
0.0580556
0.143696
0.237136
0.337802
0.445037
0.558106
0.676085
0.782219
0.862161
0.919489
0.960133
0.988427
1.0073
1.01813
1.02237
1.02301
1.02271
-0.127947
-0.0975593
-0.0389851
0.0379368
0.124756
0.219547
0.321764
0.430856
0.546226
0.667297
0.777319
0.861357
0.922489
0.966279
0.996565
1.01601
1.02633
1.02987
1.0302
1.02985
-0.150018
-0.119049
-0.0596108
0.0182648
0.10612
0.202078
0.305635
0.416309
0.533668
0.657448
0.771084
0.859192
0.924388
0.971944
1.00503
1.02536
1.03471
1.03695
1.03679
1.03645
-0.17148
-0.139875
-0.0796448
-0.000912976
0.0878592
0.184822
0.289516
0.401508
0.520533
0.64662
0.763489
0.855535
0.924886
0.976714
1.01371
1.03603
1.04431
1.04412
1.04272
1.04248
-0.192171
-0.160004
-0.099027
-0.0195237
0.0700415
0.167871
0.273506
0.386569
0.506948
0.634938
0.754546
0.850268
0.923695
0.979971
1.022
1.04837
1.05725
1.05417
1.04914
1.04669
-0.212175
-0.17944
-0.11776
-0.0375948
0.052636
0.151177
0.25755
0.37143
0.49284
0.622331
0.744111
0.843138
0.920502
0.980974
1.02856
1.06138
1.07466
1.07241
1.06038
1.05669
-0.231406
-0.198253
-0.135979
-0.0553186
0.0353445
0.134393
0.241222
0.355582
0.477628
0.608111
0.731452
0.83326
0.914602
0.978563
1.03064
1.07059
1.08933
1.0844
1.06934
1.06015
-0.249731
-0.216404
-0.153517
-0.0724832
0.0184058
0.117826
0.224745
0.339366
0.46164
0.592582
0.716759
0.820252
0.905573
0.971823
1.0234
1.0632
1.08545
1.06824
1.00747
0.979055
-0.267043
-0.234622
-0.169957
-0.0885686
0.00246179
0.101953
0.208379
0.323048
0.445158
0.575937
0.700162
0.803776
0.892747
0.960765
1.00365
1.03388
1.0393
0.995511
0.931742
0.892112
-0.310829
-0.251952
-0.185258
-0.104225
-0.0132314
0.0858904
0.192249
0.306517
0.427999
0.557883
0.68134
0.783596
0.873037
0.94633
0.967728
0.97198
0.942955
0.886988
0.818771
0.781044
-0.285295
-0.267113
-0.208075
-0.127648
-0.0368548
0.0618866
0.167392
0.280664
0.400678
0.528253
0.648891
0.747614
0.828196
0.902675
0.900706
0.80564
0.720663
0.662359
0.599598
0.633274
-0.316657
-0.285053
-0.225282
-0.145152
-0.0545525
0.0437571
0.149256
0.261674
0.380351
0.505656
0.623029
0.717746
0.789109
0.828752
0.786665
0.655587
0.55015
0.479367
0.397213
0.450637
-0.340931
-0.306879
-0.24529
-0.164945
-0.0744544
0.0237137
0.12897
0.240398
0.357434
0.479937
0.593095
0.682202
0.74184
0.747019
0.646463
0.490782
0.361749
0.27055
0.172409
0.212148
-0.364469
-0.329321
-0.266346
-0.185361
-0.0947541
0.00326155
0.107929
0.21822
0.333412
0.452774
0.560885
0.643505
0.68675
0.657919
0.501231
0.319135
0.154542
0.015668
-0.112906
-0.0876931
-0.387628
-0.352093
-0.288239
-0.206684
-0.115887
-0.0180828
0.0858706
0.194902
0.307998
0.423883
0.526263
0.6013
0.624599
0.555827
0.358245
0.151345
-0.046678
-0.210745
-0.430633
-0.512846
-0.411072
-0.375631
-0.31127
-0.229284
-0.138282
-0.0406413
0.0626698
0.170426
0.281332
0.393559
0.48987
0.555757
0.557922
0.433563
0.227435
0.00446785
-0.203565
-0.378851
-0.515115
-0.658284
-0.435799
-0.400371
-0.335759
-0.253524
-0.16244
-0.065052
0.0375278
0.14384
0.252229
0.360306
0.450042
0.504964
0.479501
0.313721
0.104879
-0.115074
-0.304612
-0.412561
-0.442171
-0.457214
-0.461957
-0.426564
-0.361802
-0.279474
-0.188475
-0.0914962
0.0101243
0.114695
0.22012
0.323374
0.406166
0.446356
0.395494
0.197954
-0.00788772
-0.208723
-0.355272
-0.39832
-0.409274
-0.409723
-0.489813
-0.454309
-0.389409
-0.30708
-0.216298
-0.119937
-0.0195132
0.0830012
0.184982
0.282739
0.357977
0.380104
0.303371
0.0888716
-0.109007
-0.284834
-0.372867
-0.390201
-0.390596
-0.390293
-0.519307
-0.48361
-0.418556
-0.336292
-0.245866
-0.150306
-0.0513331
0.0488191
0.146881
0.238536
0.305068
0.311857
0.192075
-0.0126866
-0.201021
-0.34029
-0.377644
-0.378972
-0.380617
-0.380324
-0.550165
-0.514259
-0.449084
-0.366973
-0.277026
-0.182469
-0.0852336
0.0122668
0.105973
0.190921
0.248028
0.233704
0.0815928
-0.110706
-0.278566
-0.359945
-0.374417
-0.375676
-0.376203
-0.376093
-0.581771
-0.545863
-0.480687
-0.398838
-0.309517
-0.21616
-0.120964
-0.02644
0.0626954
0.140086
0.188097
0.151868
-0.0263703
-0.206847
-0.33758
-0.380858
-0.382565
-0.377245
-0.374398
-0.373839
-0.613652
-0.577851
-0.512862
-0.431412
-0.342913
-0.250926
-0.158079
-0.0669605
0.0176973
0.0867482
0.12469
0.0698357
-0.134489
-0.316116
-0.394571
-0.391934
-0.390992
-0.383488
-0.37606
-0.37362
-0.644679
-0.609343
-0.544842
-0.464008
-0.37659
-0.286172
-0.195848
-0.108718
-0.0284146
0.0326132
0.0577445
-0.00659513
-0.233311
-0.450044
-0.504211
-0.471748
-0.44645
-0.43146
-0.418734
-0.411693
-0.673781
-0.639201
-0.575628
-0.495712
-0.409677
-0.321125
-0.233258
-0.150617
-0.0753024
-0.0199301
-0.00824785
-0.0811509
-0.300897
-0.570536
-0.696198
-0.637667
-0.527897
-0.48437
-0.474857
-0.471519
-0.699349
-0.666049
-0.603932
-0.52535
-0.441008
-0.354771
-0.269243
-0.190808
-0.122386
-0.0692358
-0.0688071
-0.155676
-0.311841
-0.56397
-0.666485
-0.655662
-0.663073
-0.646939
-0.62673
-0.615582
-0.719363
-0.688045
-0.628198
-0.551494
-0.469201
-0.385648
-0.302869
-0.227113
-0.166974
-0.116452
-0.118278
-0.227265
-0.279307
-0.298725
-0.453155
-0.620855
-0.800633
-0.801114
-0.776418
-0.769255
-0.732192
-0.70349
-0.646661
-0.572599
-0.492785
-0.411896
-0.332801
-0.258401
-0.203241
-0.165318
-0.152767
-0.293228
-0.33221
-0.0393173
-0.0216621
-0.456785
-0.732134
-0.760147
-0.767686
-0.77118
-0.735473
-0.710417
-0.657676
-0.58701
-0.510206
-0.431947
-0.356322
-0.28464
-0.227981
-0.206848
-0.185819
-0.388364
-0.664229
-0.691071
-0.904812
-1.16114
-1.10921
-0.923337
-0.852889
-0.868375
-0.728217
-0.70724
-0.659634
-0.593286
-0.519988
-0.444675
-0.370971
-0.302921
-0.245033
-0.218297
-0.237905
-0.530646
-1.20444
-1.93353
-2.312
-2.41993
-2.22963
-1.87317
-1.56743
-1.48163
-0.707889
-0.691674
-0.651176
-0.590561
-0.521234
-0.448829
-0.376432
-0.308469
-0.251107
-0.215358
-0.239531
-0.559804
-1.26086
-2.21498
-2.58063
-2.62176
-2.47712
-2.26908
-2.04238
-1.89141
-0.676903
-0.665606
-0.63289
-0.579115
-0.514052
-0.443835
-0.372125
-0.301925
-0.235823
-0.19988
-0.176752
-0.330877
-0.722734
-1.19627
-1.55333
-1.55047
-1.38233
-1.13976
-0.957094
-0.83545
-0.639037
-0.632214
-0.607993
-0.561245
-0.499749
-0.431737
-0.357031
-0.283968
-0.207429
-0.12741
-0.0770754
0.00755271
0.0563424
0.24629
0.505297
0.851949
1.20011
1.41882
1.53252
1.58003
-0.599866
-0.596127
-0.580382
-0.540671
-0.482314
-0.413123
-0.338521
-0.252235
-0.169234
-0.0585582
0.053773
0.207153
0.556365
1.10716
1.77014
2.36292
2.78443
3.0272
3.12638
3.15065
-0.564391
-0.562373
-0.553304
-0.521146
-0.465591
-0.395209
-0.314515
-0.22745
-0.123916
-0.0143881
0.120289
0.240929
0.535899
1.08854
1.65643
2.18391
2.56956
2.80177
2.90825
2.93689
-0.529988
-0.529
-0.52574
-0.503679
-0.452118
-0.378975
-0.295889
-0.204538
-0.105699
0.00776666
0.126557
0.239679
0.373702
0.764251
1.24571
1.64321
1.92984
2.10556
2.18962
2.21769
-0.507284
-0.506741
-0.506346
-0.489304
-0.43764
-0.361902
-0.277773
-0.188571
-0.0936475
0.0115223
0.114544
0.215037
0.292625
0.499415
0.842844
1.14631
1.36765
1.49845
1.55658
1.57277
-0.486063
-0.488611
-0.490587
-0.472511
-0.41558
-0.336416
-0.254078
-0.171295
-0.0844459
0.0100132
0.0986273
0.180299
0.250012
0.378848
0.599898
0.804689
0.949867
1.03554
1.07451
1.08239
-0.42426
-0.42889
-0.431487
-0.413388
-0.360584
-0.290903
-0.219374
-0.147337
-0.0741502
0.0061061
0.08137
0.146073
0.207148
0.286966
0.43098
0.561725
0.650707
0.703195
0.725058
0.729002
-0.303405
-0.306846
-0.308585
-0.297138
-0.263979
-0.219667
-0.170117
-0.11752
-0.0593253
0.00329672
0.0613393
0.106521
0.149367
0.19114
0.285013
0.371608
0.432585
0.468711
0.484467
0.48587
-0.17162
-0.172689
-0.173795
-0.171226
-0.161059
-0.143591
-0.117907
-0.0852283
-0.0434307
0.00316485
0.042589
0.0669289
0.0913865
0.111955
0.179884
0.241804
0.284476
0.308305
0.317281
0.317016
-0.0797802
-0.079952
-0.0813009
-0.0846901
-0.0873078
-0.0848138
-0.0746319
-0.0562295
-0.0289342
0.00435713
0.026659
0.0324833
0.0410498
0.0538274
0.103394
0.150692
0.183144
0.201585
0.208443
0.20761
-0.0332418
-0.0334972
-0.0351867
-0.0392944
-0.044386
-0.0470145
-0.0442095
-0.0341949
-0.0157602
0.00882037
0.0195551
0.0188742
0.0116448
0.0205531
0.0693497
0.103225
0.124313
0.134889
0.138259
0.137868
-0.0149006
-0.0152629
-0.0167448
-0.0201228
-0.0241934
-0.0269018
-0.0261524
-0.0192318
-0.00516735
0.0172951
0.0271039
0.0263021
0.022024
0.0333158
0.0698154
0.0933351
0.107786
0.113966
0.116433
0.115693
-0.0112268
-0.011424
-0.01229
-0.0145177
-0.0170996
-0.0184739
-0.016984
-0.0102258
0.0039021
0.0263731
0.0420914
0.048526
0.056514
0.0764924
0.0971827
0.108534
0.117042
0.122307
0.123929
0.122888
-0.0177801
-0.0176379
-0.0177122
-0.0186371
-0.019703
-0.019459
-0.0163333
-0.00777332
0.00921307
0.0336319
0.0576303
0.0755832
0.095902
0.119465
0.128841
0.134539
0.138496
0.141645
0.143976
0.143322
-0.0350455
-0.0345797
-0.0339715
-0.0336703
-0.0330273
-0.0306532
-0.0248661
-0.0129694
0.00945474
0.0403897
0.0683075
0.0939863
0.118651
0.139259
0.147308
0.156667
0.167898
0.177563
0.181155
0.178446
-0.0644465
-0.0636105
-0.0624077
-0.061059
-0.05874
-0.0540298
-0.0451504
-0.0291619
0.000631993
0.0410682
0.0717166
0.101022
0.131572
0.145824
0.15182
0.162657
0.170098
0.176543
0.179562
0.178901
-0.106609
-0.105604
-0.10405
-0.101893
-0.098328
-0.0919697
-0.0809334
-0.0615545
-0.0255321
0.0262088
0.061496
0.0976687
0.130418
0.13542
0.145601
0.163867
0.183887
0.188734
0.19052
0.188763
-0.16331
-0.162094
-0.16031
-0.157823
-0.154003
-0.147847
-0.137659
-0.119118
-0.0814353
-0.023033
0.0211177
0.0715157
0.0907037
0.0934209
0.123639
0.159813
0.182951
0.199603
0.199213
0.198281
-0.234925
-0.23372
-0.232235
-0.230399
-0.228205
-0.225692
-0.22223
-0.21366
-0.187384
-0.14011
-0.0790701
0.0108281
0.0528296
0.0641048
0.110939
0.171932
0.207303
0.220749
0.220446
0.220909
-0.319075
-0.318312
-0.317941
-0.31828
-0.320628
-0.327011
-0.339651
-0.357746
-0.369774
-0.36312
-0.265151
-0.112304
-0.0291395
0.0107133
0.093642
0.178321
0.248264
0.268259
0.26226
0.261782
-0.407555
-0.407781
-0.409487
-0.413854
-0.424238
-0.445824
-0.48654
-0.555745
-0.646044
-0.720984
-0.578423
-0.32342
-0.151411
-0.0732365
0.0611226
0.18015
0.257539
0.277205
0.272348
0.268629
-0.485174
-0.486811
-0.491259
-0.501009
-0.52192
-0.563317
-0.64188
-0.785381
-1.00023
-1.16558
-0.982828
-0.595487
-0.357133
-0.205571
-0.028625
0.109373
0.175379
0.17636
0.17245
0.168806
-0.532139
-0.535211
-0.542189
-0.556977
-0.587742
-0.647664
-0.762557
-0.977815
-1.30988
-1.54588
-1.30471
-0.853265
-0.561648
-0.35431
-0.143363
-0.035342
-0.0077997
-0.000969811
0.00116137
0.000165327
-0.530997
-0.534691
-0.542876
-0.560475
-0.596349
-0.665896
-0.799959
-1.0547
-1.44089
-1.7141
-1.45736
-1.01972
-0.742644
-0.499793
-0.264148
-0.172379
-0.164868
-0.167462
-0.170507
-0.173472
-0.475387
-0.478989
-0.486635
-0.502915
-0.537008
-0.603106
-0.730993
-0.974479
-1.33085
-1.58253
-1.37724
-1.05047
-0.877745
-0.703159
-0.419941
-0.369781
-0.369416
-0.377497
-0.38529
-0.391452
-0.374596
-0.377204
-0.382712
-0.394937
-0.421098
-0.472472
-0.572069
-0.762823
-1.03412
-1.18891
-1.07355
-0.920568
-0.955308
-1.12292
-1.01683
-0.831256
-0.745026
-0.707946
-0.692508
-0.69053
-0.250221
-0.251485
-0.254256
-0.261224
-0.277062
-0.309065
-0.372023
-0.495212
-0.682394
-0.765391
-0.699236
-0.688648
-0.891565
-1.49045
-1.63125
-1.29199
-1.05567
-0.941836
-0.889187
-0.870502
-0.126687
-0.126879
-0.127779
-0.130395
-0.13706
-0.151265
-0.180318
-0.240444
-0.348041
-0.40868
-0.379283
-0.383213
-0.51506
-0.813329
-1.07458
-0.926358
-0.775118
-0.696099
-0.657899
-0.642989
-0.0209069
-0.0206436
-0.0192673
-0.0178541
-0.0175495
-0.0185799
-0.0210472
-0.025946
-0.0364291
-0.0640649
-0.0727475
-0.09665
-0.0883212
-0.142099
-0.189604
-0.179781
-0.149697
-0.133886
-0.130125
-0.128059
0.0558597
0.25979
0.449585
0.609746
0.740609
0.846675
0.93656
1.00955
1.02958
1.02559
0.374619
0.507209
0.631525
0.740231
0.832779
0.910148
0.971555
1.01333
1.03567
1.05185
0.592183
0.680015
0.766889
0.843863
0.910039
0.965165
1.00862
1.04146
1.06557
1.08471
0.750082
0.811606
0.874148
0.930693
0.979682
1.02124
1.05585
1.08448
1.10598
1.12493
0.872595
0.919296
0.966429
1.0098
1.04829
1.08212
1.1115
1.13621
1.15495
1.17308
0.977058
1.01437
1.05136
1.087
1.11968
1.14911
1.17498
1.19661
1.2129
1.23045
1.06812
1.10151
1.13495
1.1672
1.19718
1.22435
1.24813
1.26757
1.28184
1.29893
1.15708
1.1904
1.22361
1.25548
1.28486
1.31117
1.33374
1.35161
1.36425
1.38085
1.25269
1.28947
1.32471
1.35761
1.38718
1.41289
1.43432
1.45085
1.46264
1.47884
1.36639
1.40713
1.44449
1.47781
1.50658
1.53082
1.55065
1.56609
1.5781
1.59421
1.50808
1.54945
1.58491
1.61472
1.64011
1.66187
1.6805
1.69608
1.70927
1.72525
1.68003
1.71275
1.73968
1.76207
1.78225
1.80106
1.81888
1.8357
1.85066
1.8664
1.86665
1.884
1.9012
1.91794
1.93408
1.94886
1.9628
1.97732
1.99258
2.0099
2.05011
2.06015
2.0734
2.08441
2.09383
2.10352
2.11417
2.12438
2.13369
2.15937
2.26816
2.26247
2.24952
2.23526
2.22898
2.23473
2.25288
2.28142
2.31519
2.35153
2.57094
2.43496
2.3555
2.31307
2.29577
2.29973
2.32718
2.38505
2.49272
2.67113
0.852214
0.845909
0.838174
0.82705
0.813466
0.800797
0.790368
0.782306
0.776521
0.773092
0.772599
0.775277
0.780376
0.787634
0.797112
0.808889
0.822414
0.835317
0.844289
0.85182
0.761306
0.767223
0.775292
0.781415
0.78447
0.78394
0.780825
0.776783
0.773112
0.770718
0.770437
0.772524
0.776149
0.780492
0.784511
0.786696
0.785578
0.780909
0.773829
0.765981
0.754597
0.756969
0.760234
0.763002
0.765444
0.767617
0.768771
0.768576
0.767557
0.766624
0.766674
0.767924
0.769559
0.770665
0.770488
0.768941
0.766722
0.764312
0.761295
0.758263
0.749868
0.750956
0.752871
0.755205
0.757069
0.758452
0.759641
0.760583
0.76108
0.761289
0.761657
0.762228
0.762551
0.762288
0.761537
0.760517
0.759109
0.757078
0.754928
0.753437
0.744929
0.745562
0.746692
0.74845
0.750289
0.751863
0.753071
0.75406
0.754932
0.75568
0.756252
0.756544
0.756478
0.756109
0.75544
0.754353
0.752828
0.751137
0.749744
0.748929
0.740113
0.74055
0.741344
0.74266
0.744187
0.745743
0.747185
0.748405
0.749455
0.750366
0.751067
0.751397
0.751318
0.750869
0.750031
0.748876
0.747587
0.74633
0.745355
0.744809
0.735443
0.735766
0.736386
0.737479
0.738797
0.740206
0.741675
0.743096
0.744374
0.745495
0.746359
0.746748
0.746649
0.74612
0.745266
0.744266
0.743235
0.742229
0.74148
0.741076
0.730891
0.731138
0.731646
0.732603
0.733826
0.735176
0.736616
0.73813
0.739615
0.740956
0.742006
0.742515
0.742444
0.741942
0.741207
0.740361
0.739473
0.73864
0.738044
0.737734
0.726421
0.72661
0.727034
0.727894
0.72906
0.730367
0.731774
0.733281
0.734856
0.736393
0.737667
0.73836
0.738459
0.738168
0.737631
0.736951
0.736203
0.73551
0.735036
0.734796
0.721984
0.722127
0.722486
0.723279
0.724408
0.725694
0.727097
0.728631
0.730311
0.732066
0.733609
0.734554
0.734896
0.734842
0.734519
0.734013
0.733411
0.732835
0.732462
0.732279
0.717556
0.717661
0.717973
0.718733
0.719867
0.721205
0.722726
0.724423
0.72624
0.728164
0.730026
0.73138
0.732079
0.732242
0.732046
0.731651
0.731159
0.730687
0.730396
0.730257
0.713095
0.713167
0.713444
0.714193
0.71536
0.716754
0.718336
0.720179
0.722327
0.724688
0.726988
0.728679
0.729604
0.730011
0.730067
0.729859
0.72949
0.729107
0.728886
0.728788
0.708575
0.708613
0.708851
0.709572
0.71074
0.712165
0.713816
0.715757
0.718034
0.72069
0.7235
0.72579
0.727294
0.72817
0.728556
0.728608
0.728439
0.728195
0.728062
0.728006
0.704028
0.704031
0.704241
0.704938
0.706129
0.707649
0.709477
0.711714
0.714437
0.717648
0.721097
0.724018
0.725976
0.727203
0.727888
0.728213
0.728255
0.72818
0.728143
0.728119
0.699267
0.699271
0.699446
0.700086
0.70123
0.702769
0.704706
0.707173
0.710286
0.714132
0.718403
0.722112
0.724791
0.726602
0.727744
0.728475
0.728903
0.729092
0.729173
0.729167
0.693826
0.693813
0.694
0.694624
0.695786
0.697426
0.699605
0.70248
0.706177
0.710806
0.71607
0.720793
0.72426
0.726728
0.728457
0.729615
0.730373
0.730806
0.730986
0.730989
0.68739
0.687369
0.68758
0.688248
0.68953
0.691396
0.693939
0.697352
0.701835
0.707532
0.714063
0.719948
0.724351
0.727542
0.729835
0.731468
0.732578
0.733244
0.733511
0.73352
0.679636
0.679609
0.679859
0.68065
0.682128
0.684322
0.687374
0.691505
0.696983
0.703969
0.712058
0.719422
0.724966
0.729042
0.731996
0.734131
0.735616
0.736509
0.736852
0.736865
0.670194
0.670157
0.670479
0.671465
0.673271
0.675979
0.67976
0.684903
0.691714
0.700414
0.71043
0.71952
0.726376
0.731428
0.735106
0.737793
0.739672
0.74077
0.74118
0.7412
0.65861
0.658561
0.658978
0.660236
0.662515
0.665922
0.670695
0.677179
0.685725
0.696565
0.708965
0.720157
0.728567
0.734752
0.739279
0.74261
0.744938
0.746263
0.74675
0.746776
0.644267
0.644204
0.644758
0.646397
0.64935
0.653756
0.659905
0.668191
0.67902
0.692575
0.707878
0.721548
0.731763
0.739284
0.744818
0.748891
0.751669
0.753226
0.75381
0.753846
0.626324
0.626244
0.626999
0.629169
0.63309
0.63893
0.647006
0.657735
0.671516
0.688447
0.707225
0.723794
0.736126
0.745208
0.7519
0.756758
0.760088
0.761941
0.762642
0.762682
0.603541
0.603466
0.60457
0.607539
0.612843
0.620767
0.631561
0.645621
0.663223
0.684314
0.707192
0.727086
0.741821
0.752687
0.760693
0.766502
0.770435
0.772643
0.773468
0.773503
0.57369
0.573674
0.575427
0.579767
0.587299
0.598416
0.613158
0.631763
0.654275
0.68039
0.707983
0.731591
0.748983
0.76183
0.771314
0.778201
0.782876
0.785494
0.786439
0.786459
0.532708
0.532915
0.536097
0.543299
0.554921
0.571185
0.591709
0.616404
0.645008
0.676997
0.709854
0.737486
0.757722
0.772688
0.783787
0.791906
0.79746
0.800527
0.801564
0.801553
0.472946
0.474376
0.482059
0.495695
0.514895
0.539261
0.567815
0.600194
0.635976
0.674534
0.713036
0.744863
0.768017
0.785157
0.79795
0.807415
0.813964
0.817488
0.818579
0.81853
0.400857
0.403788
0.418656
0.44231
0.471901
0.505748
0.543058
0.583642
0.627193
0.673123
0.71836
0.755598
0.782802
0.803116
0.818487
0.829984
0.83803
0.842478
0.843813
0.843886
0.327369
0.334844
0.357093
0.390468
0.429916
0.47301
0.519053
0.567897
0.619272
0.672682
0.724805
0.767585
0.798916
0.822499
0.840572
0.854448
0.864172
0.868982
0.870726
0.871133
0.268465
0.277516
0.304468
0.344646
0.391711
0.442611
0.49649
0.553038
0.611838
0.672325
0.730892
0.778714
0.813641
0.839936
0.860097
0.875498
0.886294
0.892168
0.894661
0.89521
0.220299
0.230031
0.260388
0.305521
0.35833
0.415454
0.475889
0.539139
0.604628
0.671637
0.736078
0.78837
0.826365
0.854785
0.876539
0.893174
0.905006
0.911686
0.914504
0.915121
0.179885
0.18985
0.222486
0.271496
0.328998
0.39126
0.457209
0.526243
0.597645
0.670509
0.740266
0.7965
0.837061
0.867217
0.890141
0.907641
0.920183
0.927487
0.930555
0.931204
0.144641
0.154715
0.189046
0.24119
0.302599
0.369268
0.44
0.514117
0.590804
0.66896
0.743537
0.803322
0.846106
0.877654
0.901435
0.919478
0.932396
0.940041
0.943262
0.943939
0.113006
0.123124
0.158805
0.213554
0.278267
0.348734
0.423693
0.502395
0.583898
0.666944
0.746024
0.809119
0.853926
0.886648
0.911066
0.929402
0.942479
0.950278
0.953506
0.954206
0.083822
0.0939866
0.130771
0.187782
0.255368
0.329159
0.407879
0.490732
0.576689
0.664349
0.747769
0.814057
0.860824
0.894641
0.919611
0.938181
0.951341
0.959233
0.96245
0.963064
0.0562529
0.0664836
0.104277
0.163283
0.233423
0.310156
0.392242
0.478878
0.568972
0.661032
0.748694
0.818212
0.866957
0.901929
0.927513
0.946368
0.959626
0.967505
0.970735
0.971228
0.0298106
0.0401457
0.0788827
0.139689
0.21209
0.291452
0.376581
0.466667
0.560602
0.656865
0.748735
0.821581
0.872482
0.908772
0.935094
0.954313
0.967712
0.975561
0.978735
0.979215
0.0041614
0.0146675
0.0542969
0.116733
0.191163
0.272891
0.360763
0.453993
0.551503
0.651781
0.747856
0.82424
0.87755
0.915341
0.94255
0.96225
0.975862
0.983711
0.986765
0.987212
-0.0209153
-0.0101629
0.0303179
0.0942502
0.170513
0.254357
0.344712
0.440814
0.541633
0.645751
0.746055
0.826173
0.882121
0.921662
0.949944
0.970254
0.984137
0.991984
0.994895
0.995267
-0.0454577
-0.0344453
0.00683706
0.0721687
0.15008
0.235828
0.328413
0.427118
0.530988
0.638745
0.743229
0.827242
0.886157
0.927739
0.957303
0.978334
0.992511
1.0003
1.00304
1.00331
-0.06953
-0.0582404
-0.0161483
0.0504802
0.12986
0.217307
0.311885
0.412927
0.51958
0.630726
0.739267
0.827358
0.889577
0.933548
0.964629
0.986484
1.00095
1.00864
1.01113
1.01127
-0.0931063
-0.0815356
-0.0386404
0.0291741
0.109872
0.198831
0.295181
0.398297
0.507437
0.621684
0.734139
0.826402
0.892234
0.939013
0.971934
0.994722
1.00939
1.01682
1.01901
1.01903
-0.116218
-0.104305
-0.0606096
0.00828572
0.0901637
0.180461
0.278366
0.3833
0.494634
0.611673
0.727811
0.824225
0.893946
0.944012
0.979242
1.00314
1.01786
1.02478
1.02655
1.02644
-0.138622
-0.126485
-0.0820042
-0.0121278
0.0708042
0.162284
0.261519
0.368027
0.481266
0.600766
0.720251
0.820722
0.894499
0.948326
0.986542
1.01198
1.02655
1.03249
1.03359
1.03334
-0.160464
-0.148004
-0.102773
-0.0320199
0.0518421
0.144352
0.244745
0.352576
0.467434
0.589052
0.711479
0.815796
0.893677
0.951623
0.993657
1.02156
1.03613
1.04031
1.04008
1.0396
-0.181552
-0.168811
-0.122893
-0.0513331
0.0333669
0.12676
0.22814
0.337075
0.453253
0.576617
0.701562
0.80938
0.891281
0.953482
1.00008
1.03197
1.04781
1.0499
1.04672
1.04523
-0.201977
-0.188929
-0.142301
-0.0700049
0.0154246
0.109583
0.211791
0.321612
0.438844
0.563619
0.690601
0.801423
0.887157
0.953453
1.0049
1.04241
1.0623
1.06478
1.05792
1.04701
-0.221625
-0.208351
-0.16109
-0.0882012
-0.00220719
0.0925238
0.195343
0.305758
0.423722
0.5495
0.678002
0.791245
0.880688
0.950902
1.0068
1.05088
1.07794
1.08429
1.07598
1.07045
-0.240437
-0.227152
-0.179255
-0.105849
-0.0194997
0.0756035
0.178838
0.289506
0.407873
0.534162
0.663637
0.778478
0.8713
0.945118
1.00337
1.05138
1.08251
1.09379
1.06291
1.02197
-0.258222
-0.245181
-0.196759
-0.122825
-0.0364307
0.0588049
0.162297
0.272994
0.391383
0.517681
0.647495
0.762956
0.858159
0.935751
0.993099
1.03359
1.06483
1.05834
1.00659
0.94782
-0.277676
-0.261326
-0.213257
-0.138745
-0.0528624
0.0423917
0.145403
0.25628
0.374356
0.500188
0.629555
0.744602
0.839895
0.923859
0.975344
1.01939
1.00606
0.973226
0.91178
0.850218
-0.267226
-0.243284
-0.193279
-0.11482
-0.024085
0.0750417
0.183264
0.297243
0.418292
0.547529
0.670355
0.771859
0.859429