/*--------------------------------*- C++ -*----------------------------------*\
  =========                 |
  \\      /  F ield         | OpenFOAM: The Open Source CFD Toolbox
   \\    /   O peration     | Website:  https://openfoam.org
    \\  /    A nd           | Version:  6
     \\/     M anipulation  |
\*---------------------------------------------------------------------------*/
FoamFile
{
    version     2.0;
    format      ascii;
    class       volScalarField;
    location    "68";
    object      p;
}
// * * * * * * * * * * * * * * * * * * * * * * * * * * * * * * * * * * * * * //

dimensions      [0 2 -2 0 0 0 0];

internalField   nonuniform List<scalar> 
8800
(
0.780352
0.731042
0.693078
0.665005
0.644836
0.63024
0.61963
0.612075
0.60717
0.605075
0.60642
0.610741
0.617519
0.626932
0.639663
0.656983
0.680859
0.713956
0.756884
0.809415
0.614826
0.621171
0.630322
0.633865
0.631253
0.625162
0.618218
0.611967
0.607151
0.604261
0.604002
0.606605
0.611226
0.617338
0.624424
0.631448
0.63632
0.636194
0.629519
0.620621
0.58838
0.594616
0.599114
0.60298
0.605918
0.606855
0.605752
0.603615
0.601613
0.600747
0.601751
0.604181
0.607052
0.609312
0.609829
0.60804
0.604674
0.600657
0.595875
0.592157
0.584085
0.586849
0.589454
0.591609
0.593341
0.5949
0.595988
0.596321
0.596184
0.596253
0.597028
0.598147
0.598872
0.598712
0.59773
0.59637
0.594695
0.592388
0.589975
0.588409
0.579042
0.580467
0.582303
0.584378
0.586083
0.587366
0.588451
0.589412
0.590195
0.590899
0.591576
0.592011
0.592016
0.591639
0.590961
0.589839
0.588178
0.586281
0.584927
0.584124
0.57407
0.574973
0.576215
0.577835
0.57952
0.58104
0.582309
0.58341
0.584446
0.585428
0.586176
0.586536
0.586524
0.586141
0.585328
0.584133
0.582767
0.581498
0.580676
0.580152
0.569184
0.56984
0.570796
0.572107
0.573544
0.575047
0.576514
0.577854
0.579085
0.580249
0.581158
0.581619
0.581612
0.581158
0.580366
0.579416
0.578419
0.577511
0.57693
0.576546
0.564382
0.564887
0.565668
0.5668
0.568089
0.569492
0.57098
0.572494
0.57397
0.575379
0.576486
0.577057
0.577108
0.576767
0.576191
0.575494
0.57475
0.574084
0.573656
0.573357
0.559611
0.560012
0.560667
0.561679
0.562896
0.564245
0.565727
0.567337
0.569027
0.570719
0.572079
0.572842
0.573086
0.572974
0.572639
0.572163
0.571625
0.571152
0.570836
0.570593
0.554789
0.555116
0.555684
0.556617
0.557789
0.559126
0.560645
0.562356
0.564244
0.566236
0.567928
0.568997
0.569529
0.569684
0.569588
0.56934
0.569
0.56869
0.568459
0.568255
0.549829
0.5501
0.550609
0.551496
0.552652
0.554019
0.555616
0.557473
0.559596
0.561937
0.564047
0.565512
0.566391
0.566848
0.567013
0.566996
0.566855
0.566689
0.566525
0.566349
0.544641
0.54487
0.54534
0.546212
0.547394
0.548831
0.55055
0.552608
0.555036
0.557812
0.560431
0.56237
0.563655
0.564457
0.564915
0.565139
0.565201
0.565167
0.565059
0.564902
0.539133
0.539328
0.53978
0.540667
0.541914
0.543466
0.545363
0.54769
0.550509
0.553827
0.557064
0.559566
0.561325
0.562524
0.563311
0.563797
0.564075
0.564166
0.564105
0.563961
0.533201
0.53337
0.53382
0.53475
0.536102
0.537823
0.539965
0.542644
0.545956
0.54994
0.553927
0.557104
0.559422
0.561078
0.562243
0.563039
0.563535
0.563747
0.563727
0.563591
0.526724
0.52687
0.527335
0.528337
0.529841
0.53179
0.534255
0.537383
0.541311
0.546113
0.551006
0.55499
0.557973
0.560167
0.561764
0.562905
0.563646
0.563985
0.564001
0.563869
0.51956
0.519683
0.520177
0.521282
0.522988
0.525236
0.528116
0.531812
0.536503
0.542306
0.548294
0.55324
0.557008
0.559837
0.561943
0.563477
0.564497
0.564967
0.565018
0.564885
0.511519
0.511629
0.512167
0.513407
0.515375
0.518006
0.52141
0.525815
0.53145
0.538472
0.545779
0.551873
0.556569
0.560144
0.562859
0.564857
0.566187
0.566794
0.566876
0.56674
0.502369
0.502473
0.503063
0.504479
0.50679
0.509907
0.513971
0.519264
0.526065
0.534573
0.54346
0.550919
0.556709
0.561163
0.564596
0.567134
0.568816
0.569569
0.569679
0.569536
0.491794
0.491883
0.492562
0.494215
0.496962
0.500699
0.5056
0.512007
0.520254
0.530571
0.541348
0.550412
0.557489
0.562976
0.567233
0.57041
0.572487
0.573391
0.573525
0.57337
0.479414
0.47949
0.480272
0.482237
0.485545
0.490081
0.496055
0.503873
0.51392
0.526443
0.539469
0.550405
0.558967
0.565655
0.570874
0.574783
0.577288
0.578341
0.578492
0.578322
0.464665
0.464733
0.465662
0.46804
0.472085
0.477672
0.48504
0.494664
0.506964
0.522169
0.53785
0.550948
0.561207
0.56927
0.575595
0.58032
0.583277
0.584468
0.584625
0.584437
0.446761
0.446822
0.447966
0.450931
0.455986
0.462991
0.472213
0.484185
0.499317
0.517768
0.536548
0.552107
0.564278
0.573882
0.581426
0.587054
0.590464
0.591763
0.59191
0.591703
0.424535
0.4246
0.426089
0.429932
0.436439
0.445437
0.457201
0.472275
0.490982
0.513328
0.53566
0.553956
0.56823
0.579528
0.588395
0.594964
0.598778
0.600134
0.600253
0.600025
0.396185
0.396281
0.398369
0.403633
0.41239
0.424326
0.439683
0.458893
0.482078
0.509021
0.535331
0.556594
0.573108
0.586199
0.596472
0.603941
0.608052
0.609387
0.609454
0.609208
0.358637
0.35886
0.362172
0.370054
0.382604
0.399066
0.419558
0.444214
0.472877
0.505097
0.535743
0.560125
0.578954
0.593867
0.605551
0.61378
0.617998
0.619209
0.619203
0.618946
0.306003
0.307104
0.313689
0.326989
0.346167
0.369631
0.397224
0.428744
0.463825
0.501883
0.537104
0.564659
0.585788
0.602452
0.615416
0.624155
0.62821
0.629195
0.629108
0.628845
0.229766
0.237247
0.25235
0.275597
0.304669
0.337502
0.373734
0.41311
0.45528
0.499664
0.539775
0.570704
0.594305
0.612842
0.626925
0.63588
0.639609
0.64035
0.640209
0.639978
0.148721
0.165046
0.189572
0.223513
0.263004
0.30537
0.350283
0.397671
0.447282
0.4986
0.54441
0.579409
0.605957
0.626585
0.641776
0.650503
0.653584
0.65405
0.653933
0.653785
0.0792818
0.0992331
0.131629
0.174784
0.223551
0.27489
0.328256
0.383523
0.440413
0.498394
0.549541
0.588276
0.617416
0.639776
0.655472
0.663645
0.666161
0.666527
0.666471
0.66637
0.0224656
0.0446501
0.0824552
0.132215
0.18825
0.247119
0.307968
0.37048
0.434211
0.498526
0.554718
0.596926
0.62841
0.652157
0.668326
0.676313
0.678641
0.678978
0.678962
0.678888
-0.0245924
-0.00108236
0.0406413
0.0955633
0.157414
0.222492
0.289736
0.358682
0.42869
0.498946
0.559955
0.605489
0.639242
0.664468
0.681259
0.689252
0.691533
0.691869
0.691883
0.691833
-0.064522
-0.0402233
0.00439111
0.0635135
0.130271
0.200659
0.273456
0.348112
0.423827
0.499634
0.565281
0.614087
0.650095
0.676807
0.69434
0.702659
0.70502
0.70535
0.705378
0.705342
-0.0993658
-0.0745432
-0.0276656
0.0349414
0.105901
0.180924
0.258656
0.338481
0.419493
0.500557
0.570636
0.622639
0.660863
0.689088
0.707523
0.716278
0.718779
0.719125
0.719151
0.719132
-0.130629
-0.105378
-0.0566368
0.00893935
0.0835428
0.162649
0.24484
0.329434
0.415411
0.50147
0.575833
0.630936
0.671372
0.701088
0.720429
0.729632
0.732346
0.732714
0.732738
0.732724
-0.159335
-0.13369
-0.0833575
-0.0151968
0.0626162
0.145358
0.231587
0.320571
0.411219
0.502106
0.580656
0.638787
0.681339
0.712514
0.732704
0.742359
0.745284
0.745717
0.74572
0.745708
-0.186297
-0.160228
-0.108468
-0.0379794
0.0426743
0.128662
0.21855
0.311605
0.406686
0.502264
0.584941
0.646061
0.690668
0.723202
0.744163
0.754249
0.757339
0.757802
0.757776
0.757755
-0.211915
-0.185434
-0.132359
-0.0598021
0.0233835
0.112288
0.205512
0.302346
0.401632
0.501754
0.588563
0.652665
0.699288
0.733096
0.754732
0.765061
0.76827
0.76874
0.768684
0.768647
-0.236634
-0.20966
-0.15537
-0.0809398
0.00451801
0.0960506
0.192322
0.29264
0.395892
0.500462
0.591432
0.658588
0.707198
0.742161
0.76429
0.774774
0.778006
0.778459
0.77837
0.778315
-0.260595
-0.233124
-0.177684
-0.101561
-0.0140683
0.0798318
0.178866
0.282399
0.389389
0.498304
0.593491
0.663815
0.714465
0.750492
0.772949
0.783428
0.7866
0.787022
0.786904
0.786832
-0.283933
-0.255927
-0.199424
-0.121764
-0.0324504
0.0635696
0.165102
0.271582
0.382071
0.495188
0.594672
0.66837
0.721185
0.758243
0.780853
0.79114
0.794179
0.794538
0.794399
0.794311
-0.306747
-0.278199
-0.220645
-0.141591
-0.050667
0.047251
0.15103
0.260185
0.373911
0.491063
0.594909
0.672247
0.727476
0.765585
0.788177
0.798077
0.800855
0.80112
0.800954
0.800855
-0.329101
-0.299933
-0.241364
-0.16105
-0.0686974
0.0308929
0.136677
0.24823
0.364917
0.485888
0.594131
0.675413
0.733439
0.772759
0.795157
0.804389
0.806733
0.806854
0.806665
0.806562
-0.350856
-0.3211
-0.261563
-0.180132
-0.0865175
0.0145471
0.122086
0.235777
0.355132
0.479661
0.592257
0.677791
0.739112
0.780011
0.802149
0.810345
0.811947
0.811833
0.811633
0.811539
-0.371994
-0.341673
-0.28124
-0.198803
-0.104081
-0.00173549
0.10734
0.22289
0.344618
0.472387
0.589219
0.679263
0.744443
0.787542
0.809674
0.816513
0.816829
0.816185
0.81597
0.81594
-0.392567
-0.361625
-0.300372
-0.217037
-0.121334
-0.0178777
0.0925203
0.209661
0.333452
0.46411
0.584944
0.679688
0.749264
0.795358
0.818256
0.823897
0.822272
0.820308
0.819834
0.820108
-0.41243
-0.380931
-0.318906
-0.234773
-0.138224
-0.0337995
0.0777185
0.196194
0.321741
0.454911
0.579384
0.678894
0.753315
0.803151
0.828034
0.833688
0.830331
0.825875
0.823342
0.822344
-0.431672
-0.3996
-0.336852
-0.252046
-0.154785
-0.0495403
0.0628822
0.18243
0.309414
0.444725
0.572382
0.676626
0.75635
0.810443
0.838504
0.846306
0.843252
0.836001
0.826582
0.827155
-0.450215
-0.417695
-0.354346
-0.269053
-0.171308
-0.0654269
0.0476016
0.167893
0.295935
0.432937
0.563298
0.672141
0.757956
0.816687
0.848235
0.859855
0.857799
0.846325
0.827632
0.825929
-0.467928
-0.435172
-0.371228
-0.285609
-0.187529
-0.0811606
0.0320803
0.152899
0.281589
0.419772
0.55215
0.664717
0.757244
0.820667
0.853168
0.865332
0.864916
0.839106
0.781425
0.756424
-0.484681
-0.452889
-0.387097
-0.301271
-0.202663
-0.0962619
0.0166014
0.137724
0.266655
0.405398
0.538993
0.653729
0.753095
0.821372
0.84839
0.855381
0.840871
0.788767
0.726526
0.688894
-0.527367
-0.47049
-0.401632
-0.316886
-0.217453
-0.111685
0.0013089
0.122247
0.250927
0.389457
0.52341
0.638504
0.741577
0.815357
0.831312
0.816782
0.76781
0.701996
0.632545
0.594342
-0.502516
-0.484248
-0.423711
-0.338149
-0.240381
-0.134854
-0.0225604
0.0977066
0.225459
0.362597
0.495235
0.608483
0.703324
0.784425
0.766653
0.656365
0.564512
0.500518
0.436239
0.463892
-0.533219
-0.501746
-0.440435
-0.35552
-0.257922
-0.152519
-0.0400749
0.0795178
0.206235
0.341604
0.471679
0.581477
0.66538
0.71099
0.658057
0.516906
0.406618
0.332178
0.249619
0.295745
-0.557041
-0.523182
-0.460117
-0.375152
-0.2776
-0.172218
-0.0599137
0.0588646
0.184197
0.317149
0.443391
0.54719
0.619474
0.627024
0.51903
0.36261
0.232464
0.139084
0.0435732
0.0761275
-0.58021
-0.545292
-0.480826
-0.395174
-0.297587
-0.192355
-0.0805843
0.0372031
0.160904
0.291003
0.412343
0.507829
0.563152
0.537618
0.378099
0.200193
0.0396436
-0.0952219
-0.220604
-0.206796
-0.603106
-0.567788
-0.502398
-0.416142
-0.318436
-0.213444
-0.102356
0.0142789
0.136042
0.262844
0.378401
0.465603
0.500008
0.428877
0.23942
0.0416656
-0.145724
-0.30002
-0.506084
-0.586031
-0.626416
-0.59114
-0.525205
-0.438523
-0.340665
-0.235866
-0.125404
-0.00996925
0.10971
0.232917
0.342198
0.419989
0.428572
0.305872
0.112943
-0.0968021
-0.289265
-0.451203
-0.575526
-0.694324
-0.651204
-0.615827
-0.549586
-0.462676
-0.364801
-0.260301
-0.150572
-0.0365301
0.0806961
0.199714
0.302266
0.36718
0.348276
0.189132
-0.00538478
-0.20921
-0.385017
-0.482672
-0.509097
-0.522618
-0.677604
-0.642133
-0.57567
-0.48869
-0.390988
-0.286971
-0.178235
-0.0659178
0.0483793
0.162433
0.257795
0.305032
0.266683
0.0769196
-0.115705
-0.299409
-0.43204
-0.470112
-0.479201
-0.479578
-0.705884
-0.670185
-0.603498
-0.516555
-0.419176
-0.315885
-0.208418
-0.0981931
0.0126856
0.121034
0.208159
0.238981
0.169011
-0.025749
-0.212334
-0.372022
-0.446504
-0.460634
-0.461793
-0.461701
-0.736056
-0.700012
-0.633083
-0.546266
-0.449381
-0.347033
-0.241133
-0.133379
-0.0263826
0.0756148
0.153199
0.169361
0.0607842
-0.118886
-0.295539
-0.422651
-0.451543
-0.452025
-0.452474
-0.452032
-0.767857
-0.731439
-0.664321
-0.577738
-0.481515
-0.380364
-0.276355
-0.171456
-0.0687838
0.0263083
0.0941483
0.0912512
-0.0353236
-0.204568
-0.36099
-0.434104
-0.449011
-0.44713
-0.446876
-0.44645
-0.800716
-0.764109
-0.696937
-0.610729
-0.515381
-0.415711
-0.313931
-0.212302
-0.114304
-0.0264843
0.0314258
0.0122123
-0.1243
-0.279599
-0.40329
-0.441732
-0.441854
-0.442978
-0.443101
-0.442856
-0.834181
-0.797477
-0.73043
-0.644808
-0.550609
-0.452736
-0.353565
-0.255632
-0.16265
-0.081896
-0.0363571
-0.0627259
-0.205784
-0.33917
-0.426769
-0.43652
-0.439463
-0.440626
-0.440697
-0.440652
-0.867268
-0.830636
-0.764043
-0.679313
-0.586625
-0.490938
-0.394776
-0.300943
-0.21341
-0.139093
-0.104434
-0.138169
-0.27682
-0.386969
-0.434051
-0.445686
-0.44149
-0.439607
-0.439014
-0.438947
-0.898103
-0.862277
-0.796713
-0.713322
-0.622617
-0.52958
-0.436865
-0.347479
-0.265806
-0.197654
-0.167896
-0.216944
-0.336592
-0.432942
-0.454113
-0.451196
-0.444511
-0.439281
-0.437731
-0.43727
-0.925587
-0.890849
-0.826998
-0.745594
-0.657485
-0.56768
-0.478917
-0.394305
-0.318548
-0.257098
-0.229993
-0.286063
-0.382431
-0.463875
-0.487268
-0.468563
-0.453117
-0.446212
-0.443599
-0.442364
-0.946968
-0.914189
-0.853087
-0.774556
-0.689858
-0.604005
-0.519763
-0.440343
-0.370251
-0.315633
-0.291704
-0.340333
-0.410081
-0.461512
-0.467475
-0.472925
-0.476427
-0.473418
-0.469398
-0.467551
-0.960073
-0.930099
-0.872847
-0.798403
-0.718144
-0.637118
-0.558013
-0.484264
-0.4198
-0.370357
-0.347822
-0.38579
-0.424535
-0.448805
-0.454708
-0.473311
-0.483247
-0.483828
-0.482435
-0.482554
-0.962151
-0.936122
-0.884098
-0.815219
-0.740645
-0.665463
-0.592223
-0.524337
-0.466103
-0.420197
-0.394707
-0.428117
-0.451035
-0.454447
-0.463864
-0.471641
-0.473052
-0.473384
-0.474263
-0.474664
-0.950902
-0.929719
-0.88466
-0.823189
-0.755841
-0.68756
-0.621014
-0.558875
-0.507158
-0.466184
-0.430346
-0.464646
-0.500444
-0.529646
-0.516108
-0.491365
-0.477971
-0.473402
-0.471519
-0.470618
-0.923681
-0.908098
-0.872559
-0.821015
-0.76262
-0.70244
-0.64308
-0.587064
-0.540099
-0.506733
-0.465414
-0.481426
-0.505452
-0.585512
-0.556317
-0.497901
-0.46617
-0.457784
-0.455531
-0.454511
-0.88392
-0.873944
-0.848839
-0.808953
-0.760895
-0.709902
-0.657831
-0.608215
-0.564327
-0.53647
-0.506762
-0.459857
-0.391407
-0.384796
-0.391945
-0.402608
-0.420787
-0.427213
-0.428907
-0.428684
-0.83875
-0.833074
-0.818517
-0.790052
-0.752894
-0.710552
-0.666016
-0.621231
-0.580974
-0.550502
-0.520615
-0.453555
-0.31372
-0.167909
-0.161489
-0.288454
-0.403883
-0.451512
-0.463467
-0.466301
-0.798437
-0.794994
-0.788073
-0.769883
-0.741694
-0.706715
-0.668178
-0.627512
-0.587793
-0.554045
-0.530237
-0.508803
-0.509859
-0.506564
-0.618127
-0.808729
-0.852076
-0.781194
-0.736773
-0.741325
-0.769374
-0.767302
-0.763747
-0.752927
-0.73128
-0.70161
-0.666603
-0.628116
-0.586953
-0.553133
-0.524959
-0.594733
-0.888056
-1.39012
-1.72892
-1.76994
-1.64481
-1.47067
-1.32413
-1.25133
-0.748176
-0.74746
-0.746285
-0.740823
-0.724531
-0.697913
-0.664083
-0.623717
-0.581016
-0.536102
-0.507589
-0.526083
-0.689962
-0.851435
-1.02627
-1.03855
-0.894666
-0.738866
-0.63043
-0.577972
-0.735652
-0.735436
-0.734864
-0.732206
-0.720686
-0.695859
-0.660567
-0.618911
-0.568873
-0.509317
-0.461749
-0.385493
-0.288661
-0.123782
0.042749
0.23868
0.411775
0.504547
0.551676
0.569332
-0.726711
-0.726538
-0.726032
-0.724975
-0.717732
-0.695216
-0.65885
-0.612404
-0.554297
-0.487531
-0.403205
-0.302427
-0.0979453
0.280096
0.671007
1.0274
1.26493
1.35123
1.38464
1.39121
-0.721345
-0.721111
-0.720499
-0.71989
-0.715977
-0.697475
-0.659453
-0.605833
-0.544129
-0.461392
-0.36121
-0.246314
0.00285601
0.410761
0.831596
1.21834
1.47645
1.58701
1.62209
1.6271
-0.718997
-0.719111
-0.7194
-0.71965
-0.719112
-0.704054
-0.662343
-0.603702
-0.535343
-0.445177
-0.342102
-0.219786
-0.00233088
0.363806
0.730447
1.06117
1.28637
1.37928
1.40145
1.40194
-0.71507
-0.716469
-0.720013
-0.725521
-0.728361
-0.711513
-0.665194
-0.606433
-0.533978
-0.443561
-0.338542
-0.234008
-0.052496
0.229922
0.488493
0.709599
0.851928
0.916013
0.943025
0.951782
-0.711022
-0.712838
-0.715701
-0.718677
-0.720396
-0.703151
-0.663006
-0.615675
-0.546215
-0.450028
-0.347772
-0.260145
-0.112973
0.0889818
0.281104
0.427079
0.512433
0.565464
0.600921
0.615267
-0.731946
-0.732394
-0.724894
-0.697075
-0.664952
-0.660774
-0.660788
-0.635114
-0.563356
-0.460436
-0.364695
-0.290811
-0.174833
0.00718927
0.165917
0.286333
0.37419
0.433379
0.465147
0.475609
-0.777398
-0.775275
-0.761861
-0.724044
-0.681027
-0.676526
-0.703589
-0.670928
-0.582515
-0.473847
-0.38635
-0.3149
-0.233904
-0.076745
0.0703927
0.195096
0.287177
0.346626
0.372217
0.37875
-0.859126
-0.86039
-0.878756
-0.906051
-0.90863
-0.885489
-0.8485
-0.740636
-0.604937
-0.490852
-0.398641
-0.330412
-0.262999
-0.138431
-0.00464218
0.102295
0.185654
0.238076
0.258683
0.262418
-1.00399
-1.02283
-1.07453
-1.12564
-1.14007
-1.10352
-0.998294
-0.810838
-0.631924
-0.506787
-0.403045
-0.338965
-0.286014
-0.18573
-0.0656129
0.0189639
0.0871744
0.126251
0.14078
0.142328
-1.09323
-1.11499
-1.15581
-1.19129
-1.20198
-1.16635
-1.03408
-0.810281
-0.637966
-0.503339
-0.40139
-0.33345
-0.295388
-0.221835
-0.126354
-0.0579356
-0.00215334
0.0273343
0.0391865
0.0394779
-1.02004
-1.03936
-1.07099
-1.10141
-1.11202
-1.07158
-0.923664
-0.736436
-0.592215
-0.469674
-0.383716
-0.326899
-0.291847
-0.239846
-0.171799
-0.118064
-0.0770348
-0.0551697
-0.0483182
-0.048981
-0.77167
-0.790742
-0.825471
-0.864522
-0.884744
-0.846837
-0.731553
-0.609124
-0.496692
-0.410104
-0.355908
-0.307765
-0.283936
-0.247913
-0.205073
-0.169818
-0.142061
-0.128264
-0.124081
-0.125783
-0.417999
-0.432138
-0.460616
-0.497463
-0.524509
-0.521643
-0.486685
-0.436845
-0.384201
-0.346714
-0.311082
-0.284635
-0.274135
-0.257793
-0.235171
-0.21653
-0.206076
-0.203021
-0.202576
-0.203836
-0.1099
-0.117382
-0.135789
-0.167628
-0.206739
-0.239806
-0.26456
-0.280977
-0.284969
-0.278127
-0.268818
-0.261056
-0.25966
-0.256552
-0.256553
-0.259344
-0.262768
-0.268416
-0.270171
-0.270576
0.0619316
0.0579222
0.0450674
0.0178719
-0.0263309
-0.0816499
-0.133781
-0.174857
-0.203093
-0.221414
-0.233669
-0.234857
-0.243523
-0.251222
-0.263899
-0.278929
-0.295776
-0.305171
-0.30756
-0.307486
0.11883
0.116172
0.10659
0.0843282
0.0467208
-0.00275927
-0.0565694
-0.107508
-0.148517
-0.181035
-0.20447
-0.217875
-0.230881
-0.245811
-0.264675
-0.283691
-0.300527
-0.308363
-0.309911
-0.30987
0.117774
0.115968
0.109109
0.0928291
0.0641508
0.0246185
-0.0206898
-0.0670659
-0.110715
-0.148652
-0.185651
-0.214034
-0.232781
-0.241119
-0.254711
-0.270406
-0.284091
-0.28936
-0.289683
-0.289543
0.0966444
0.095498
0.0908436
0.079533
0.0592338
0.0300024
-0.00617418
-0.0454079
-0.0852967
-0.125927
-0.170757
-0.214955
-0.238791
-0.233087
-0.235522
-0.2432
-0.249478
-0.251402
-0.251124
-0.250944
0.0722568
0.0716007
0.068606
0.0610991
0.0471891
0.0264295
-0.00064034
-0.031789
-0.0663865
-0.103822
-0.148111
-0.19703
-0.21823
-0.204063
-0.196763
-0.199705
-0.200522
-0.200123
-0.199837
-0.199963
0.0506237
0.0502759
0.0484591
0.0436582
0.0344234
0.0201182
0.000698768
-0.0223149
-0.0488667
-0.0780575
-0.112696
-0.145189
-0.155282
-0.146164
-0.143999
-0.147929
-0.149707
-0.150716
-0.151169
-0.151589
0.0334713
0.0332723
0.0322418
0.0293188
0.0234643
0.0140892
0.000898908
-0.0151895
-0.0337217
-0.0528619
-0.0698015
-0.0790974
-0.0786264
-0.0826424
-0.0919098
-0.100979
-0.106555
-0.109192
-0.110622
-0.110935
0.0200671
0.0200204
0.0195071
0.0179433
0.0145883
0.00895595
0.000836677
-0.0091751
-0.0204317
-0.0298611
-0.0317661
-0.0215519
-0.0106811
-0.0274818
-0.0470232
-0.0602083
-0.0682595
-0.0723309
-0.0738955
-0.0740147
0.0098187
0.009874
0.00969931
0.00904603
0.00744831
0.00467979
0.000564892
-0.00439648
-0.0100162
-0.0129088
-0.00739484
0.00840337
0.0217056
0.00312299
-0.0153116
-0.027461
-0.0329335
-0.0361322
-0.037171
-0.0373637
0.00146261
0.00152345
0.00150184
0.00162014
0.00176061
0.00151076
0.000856034
-0.000147709
-0.00127356
-0.0022079
-0.00127924
0.0032321
0.00859282
0.0040262
-0.001413
-0.00218166
-0.003003
-0.00416497
-0.00551309
-0.0058013
-0.0750781
0.113967
0.287459
0.434733
0.552869
0.646304
0.724164
0.78757
0.803781
0.800391
0.215354
0.3369
0.450826
0.549891
0.63333
0.702269
0.756687
0.793602
0.813412
0.830048
0.41255
0.493587
0.57375
0.644205
0.704439
0.754371
0.793732
0.82375
0.846298
0.865546
0.558301
0.615601
0.673835
0.725996
0.771051
0.809403
0.841522
0.868467
0.8888
0.907701
0.675085
0.718255
0.76168
0.802122
0.838089
0.869903
0.897733
0.921296
0.939268
0.957319
0.772984
0.808732
0.843708
0.877502
0.908642
0.936793
0.96166
0.982527
0.998303
1.01579
0.861194
0.893319
0.925555
0.956697
0.985705
1.01207
1.03519
1.05412
1.06803
1.08505
0.94819
0.9808
1.01322
1.04442
1.07319
1.09898
1.1211
1.13863
1.151
1.16753
1.04259
1.07904
1.1138
1.14626
1.17543
1.20077
1.22189
1.23817
1.24978
1.26594
1.15567
1.19632
1.23333
1.26625
1.29473
1.31872
1.33834
1.35362
1.36551
1.38161
1.29706
1.33813
1.37341
1.40298
1.42818
1.4498
1.46831
1.48379
1.49689
1.51288
1.46866
1.501
1.52792
1.55027
1.57036
1.58908
1.60682
1.62357
1.63848
1.65429
1.65503
1.67229
1.68942
1.7061
1.7222
1.73693
1.75082
1.76527
1.78051
1.79792
1.83826
1.84817
1.86133
1.87229
1.88169
1.89133
1.90193
1.91213
1.92146
1.94686
2.05568
2.04991
2.0369
2.02266
2.01637
2.02206
2.04017
2.06867
2.10245
2.13875
2.35895
2.22312
2.14364
2.10108
2.08367
2.0877
2.11519
2.17311
2.28076
2.45898
0.68401
0.677712
0.669979
0.658865
0.645301
0.632659
0.622267
0.614259
0.608544
0.605216
0.604871
0.607712
0.61295
0.620311
0.629859
0.641685
0.655242
0.668168
0.67716
0.684699
0.593118
0.599045
0.607111
0.613237
0.616301
0.615786
0.612699
0.608704
0.605117
0.602837
0.602712
0.604974
0.608736
0.613188
0.617295
0.619546
0.618479
0.61385
0.606804
0.598971
0.586367
0.58874
0.592009
0.594785
0.597235
0.599421
0.600596
0.600447
0.599509
0.598707
0.598933
0.60036
0.602154
0.603394
0.603329
0.601871
0.599719
0.597358
0.594375
0.591357
0.581574
0.582662
0.584579
0.586917
0.58879
0.590189
0.591408
0.5924
0.593001
0.593385
0.593953
0.594713
0.595195
0.595089
0.59447
0.593554
0.592227
0.590261
0.588156
0.586679
0.576547
0.577181
0.57831
0.580067
0.581911
0.583504
0.584756
0.585822
0.586807
0.587714
0.588517
0.589059
0.589214
0.589021
0.588495
0.587529
0.586109
0.584504
0.583169
0.582368
0.571618
0.572057
0.572846
0.57415
0.575673
0.577236
0.578715
0.580013
0.581173
0.582271
0.583245
0.583872
0.584073
0.583855
0.583205
0.582217
0.581072
0.579934
0.579034
0.578501
0.566778
0.567105
0.567718
0.568788
0.570085
0.571486
0.572966
0.574443
0.57584
0.577155
0.578328
0.579105
0.579358
0.579136
0.578556
0.577786
0.576951
0.576104
0.575447
0.575056
0.562001
0.562255
0.562749
0.563661
0.564836
0.566146
0.56757
0.569101
0.570688
0.572265
0.573692
0.574649
0.575024
0.574953
0.574593
0.574064
0.573444
0.572826
0.57235
0.572051
0.557215
0.557417
0.557828
0.558631
0.559729
0.560993
0.562405
0.563983
0.565713
0.567541
0.569269
0.570497
0.571117
0.571297
0.571183
0.570884
0.570475
0.570051
0.569715
0.56948
0.552335
0.552498
0.552851
0.553582
0.554634
0.555881
0.557325
0.55899
0.560883
0.562976
0.565061
0.566662
0.567619
0.5681
0.568249
0.568188
0.567995
0.567749
0.567529
0.567342
0.547273
0.547405
0.547717
0.548403
0.54944
0.550715
0.552231
0.554028
0.556138
0.558556
0.561077
0.56314
0.564502
0.565332
0.565779
0.565973
0.565997
0.565924
0.565804
0.565652
0.541938
0.542044
0.542328
0.542997
0.544054
0.5454
0.547032
0.549017
0.551413
0.554244
0.557303
0.55992
0.561759
0.562991
0.563777
0.56425
0.564504
0.564603
0.56457
0.564446
0.536231
0.536316
0.536585
0.53726
0.538373
0.539832
0.541635
0.543876
0.546642
0.54999
0.553707
0.556991
0.559395
0.561095
0.562265
0.563063
0.563572
0.563836
0.563881
0.563778
0.530043
0.530109
0.530372
0.531076
0.532281
0.5339
0.53594
0.538518
0.541755
0.545744
0.550263
0.55435
0.557427
0.559677
0.56129
0.562454
0.563245
0.563688
0.563807
0.563721
0.523241
0.523288
0.523553
0.524309
0.525646
0.527482
0.529832
0.532841
0.536669
0.541451
0.546946
0.551996
0.555874
0.558775
0.560908
0.562486
0.563601
0.564238
0.564431
0.564357
0.515673
0.515696
0.515965
0.516797
0.51831
0.520428
0.523177
0.526732
0.531296
0.537051
0.543729
0.549937
0.554763
0.55843
0.561181
0.563251
0.564734
0.565581
0.565847
0.565783
0.507102
0.50712
0.507402
0.508334
0.510079
0.512556
0.515809
0.520049
0.52553
0.532478
0.540588
0.548179
0.55413
0.558698
0.562179
0.564841
0.566742
0.567819
0.568158
0.5681
0.497258
0.49725
0.49758
0.498659
0.500703
0.50364
0.507532
0.512634
0.519254
0.527668
0.537508
0.546742
0.554023
0.559654
0.56399
0.567338
0.569725
0.571054
0.571467
0.57141
0.485827
0.485797
0.486178
0.487447
0.489863
0.49339
0.498099
0.504293
0.512341
0.522561
0.534486
0.54566
0.55449
0.561363
0.566702
0.570841
0.573784
0.575381
0.575862
0.575802
0.472312
0.47226
0.47272
0.474241
0.477142
0.481438
0.487205
0.4948
0.504649
0.517095
0.531525
0.544976
0.555591
0.563889
0.570394
0.575444
0.578999
0.580872
0.581411
0.581342
0.456051
0.455976
0.456562
0.458435
0.461986
0.467307
0.474475
0.483895
0.496036
0.511232
0.52865
0.544738
0.557388
0.567302
0.575124
0.581196
0.585416
0.587553
0.588133
0.588048
0.436083
0.435991
0.43678
0.439166
0.443632
0.450378
0.459454
0.471304
0.486394
0.50498
0.525925
0.54502
0.559948
0.571657
0.580922
0.588119
0.593022
0.595385
0.595976
0.595867
0.410963
0.410872
0.411999
0.415177
0.421024
0.429851
0.441639
0.456802
0.475712
0.498451
0.523487
0.54593
0.563332
0.576989
0.587809
0.596189
0.601724
0.604235
0.604795
0.604655
0.378335
0.378291
0.380028
0.384576
0.392732
0.404808
0.420588
0.440314
0.464126
0.491853
0.521527
0.547597
0.567617
0.583304
0.595741
0.605293
0.611323
0.613851
0.614329
0.614154
0.333996
0.334156
0.337218
0.344612
0.357086
0.374503
0.396207
0.422097
0.452001
0.485522
0.52029
0.550175
0.572878
0.590595
0.604627
0.615224
0.62149
0.623851
0.624198
0.623991
0.270092
0.271439
0.278868
0.292814
0.313198
0.339105
0.369157
0.402871
0.439942
0.479896
0.520052
0.553807
0.579142
0.598807
0.614217
0.625555
0.631719
0.633689
0.633872
0.633655
0.193841
0.196486
0.210916
0.234922
0.266121
0.302095
0.341201
0.383195
0.427892
0.474881
0.521208
0.559642
0.588292
0.610384
0.627375
0.639202
0.64506
0.646737
0.646867
0.646742
0.115826
0.122811
0.144468
0.178547
0.220252
0.26606
0.314221
0.364558
0.416957
0.471045
0.523607
0.566766
0.59867
0.623128
0.641686
0.653632
0.658735
0.65991
0.659981
0.659923
0.0522075
0.0610767
0.0873822
0.128591
0.178574
0.232732
0.289065
0.347233
0.406989
0.467873
0.526351
0.573903
0.608793
0.635247
0.654728
0.666573
0.671251
0.672302
0.67242
0.672419
0.00012558
0.00971347
0.0395567
0.0860701
0.142286
0.203128
0.266347
0.331418
0.397898
0.465159
0.52925
0.580963
0.618633
0.64694
0.667401
0.679459
0.683965
0.684936
0.685105
0.685143
-0.0434318
-0.0335364
-0.0012793
0.0493783
0.110705
0.177106
0.246159
0.317248
0.389768
0.462904
0.532308
0.588056
0.628446
0.658645
0.680209
0.692533
0.69702
0.698133
0.698335
0.698409
-0.0809402
-0.0709128
-0.0368501
0.0171263
0.0827337
0.153913
0.228063
0.304481
0.382467
0.461061
0.535518
0.595188
0.638264
0.670319
0.693015
0.705928
0.71072
0.711885
0.712083
0.712165
-0.114083
-0.104011
-0.0685302
-0.0118046
0.057448
0.132774
0.211444
0.292694
0.375748
0.459486
0.538766
0.602203
0.647931
0.681837
0.705773
0.719347
0.724453
0.725699
0.725884
0.725953
-0.144126
-0.134023
-0.0973896
-0.0383024
0.0341105
0.113082
0.195802
0.281476
0.369235
0.457853
0.541785
0.608907
0.657201
0.692923
0.718021
0.732283
0.737739
0.739066
0.739234
0.739285
-0.172028
-0.161876
-0.124222
-0.0630374
0.0121755
0.0943758
0.18073
0.270443
0.362597
0.455893
0.544387
0.615122
0.665916
0.703375
0.729598
0.744468
0.750289
0.751687
0.751819
0.751843
-0.198356
-0.188144
-0.149545
-0.0864736
-0.00878703
0.0762908
0.165923
0.259346
0.355632
0.453411
0.546389
0.620715
0.673977
0.713089
0.740337
0.75572
0.761794
0.76324
0.763342
0.763333
-0.223576
-0.213242
-0.173758
-0.108975
-0.0290812
0.0585774
0.151185
0.248016
0.348163
0.45024
0.547648
0.625626
0.681349
0.722051
0.750192
0.765941
0.772123
0.773589
0.773664
0.773622
-0.247995
-0.237461
-0.197135
-0.130778
-0.0489005
0.0410702
0.136374
0.236326
0.34006
0.446274
0.548097
0.629798
0.68805
0.730278
0.759144
0.775114
0.7813
0.782724
0.782777
0.782707
-0.271721
-0.260959
-0.219823
-0.152029
-0.068371
0.0236767
0.121406
0.224204
0.331276
0.441427
0.547642
0.633209
0.694122
0.737897
0.767366
0.783364
0.789424
0.790772
0.790783
0.790694
-0.294893
-0.283861
-0.241946
-0.172801
-0.087553
0.00634474
0.106255
0.211634
0.321779
0.43565
0.546206
0.635826
0.699632
0.745046
0.775002
0.790828
0.796635
0.797845
0.797808
0.797699
-0.317496
-0.306228
-0.263532
-0.193125
-0.106462
-0.0109222
0.0909358
0.198631
0.311568
0.428915
0.54373
0.637588
0.704626
0.751898
0.782277
0.797694
0.803056
0.804054
0.803954
0.803827
-0.339617
-0.328047
-0.284556
-0.212997
-0.125086
-0.0281003
0.0754776
0.185236
0.300685
0.421228
0.540158
0.63842
0.7091
0.758623
0.789476
0.804204
0.80881
0.809461
0.809291
0.809161
-0.361065
-0.349286
-0.305014
-0.232412
-0.143387
-0.0451277
0.0599378
0.171511
0.289188
0.412626
0.535448
0.638228
0.712986
0.765326
0.796966
0.810815
0.814214
0.814217
0.813922
0.813817
-0.38199
-0.369902
-0.324883
-0.251351
-0.161343
-0.0619719
0.0444027
0.157528
0.277153
0.403175
0.529584
0.636901
0.716147
0.771977
0.80508
0.818244
0.819965
0.818665
0.817979
0.81797
-0.402215
-0.389856
-0.34415
-0.269768
-0.17888
-0.0785525
0.0289511
0.143403
0.264676
0.392931
0.522576
0.634322
0.718394
0.77836
0.813888
0.827295
0.827479
0.824022
0.821963
0.82181
-0.421843
-0.409178
-0.362762
-0.287611
-0.195965
-0.0948044
0.0136671
0.129213
0.251863
0.382021
0.514472
0.63036
0.719503
0.784088
0.822933
0.838188
0.838435
0.833109
0.827256
0.81886
-0.440762
-0.427862
-0.380805
-0.305045
-0.21282
-0.111004
-0.00178034
0.11456
0.238276
0.36996
0.504784
0.624477
0.719125
0.788967
0.831689
0.850438
0.853213
0.847033
0.835905
0.834772
-0.458933
-0.445979
-0.398277
-0.32202
-0.22943
-0.127115
-0.0173631
0.0994251
0.223879
0.356618
0.493319
0.616156
0.716476
0.792202
0.838265
0.860068
0.864959
0.860833
0.826714
0.788021
-0.476141
-0.463405
-0.415119
-0.33842