/*--------------------------------*- C++ -*----------------------------------*\
  =========                 |
  \\      /  F ield         | OpenFOAM: The Open Source CFD Toolbox
   \\    /   O peration     | Website:  https://openfoam.org
    \\  /    A nd           | Version:  6
     \\/     M anipulation  |
\*---------------------------------------------------------------------------*/
FoamFile
{
    version     2.0;
    format      ascii;
    class       volVectorField;
    location    "6.1";
    object      U;
}
// * * * * * * * * * * * * * * * * * * * * * * * * * * * * * * * * * * * * * //

dimensions      [0 1 -1 0 0 0 0];

internalField   nonuniform List<vector> 
8800
(
(0.987204 -0.0765143 0)
(1.00158 -0.0549767 0)
(0.999232 -0.0282911 0)
(0.998945 -0.0148549 0)
(0.999791 -0.00831556 0)
(1.00011 -0.00498986 0)
(0.999966 -0.00298354 0)
(0.999916 -0.00163947 0)
(1 -0.000801966 0)
(1.00003 -8.35567e-05 0)
(1.00003 0.000522928 0)
(0.999942 0.0012581 0)
(0.999908 0.00229385 0)
(1.00003 0.00398686 0)
(1.00006 0.00646726 0)
(0.999335 0.0110521 0)
(0.999048 0.0205575 0)
(0.998736 0.0383236 0)
(1.00691 0.0723796 0)
(0.771268 0.0366015 0)
(0.364607 -0.0155424 0)
(1.04473 -0.0756647 0)
(1.08381 -0.0685768 0)
(1.04374 -0.0508518 0)
(1.02242 -0.0367807 0)
(1.01081 -0.0242424 0)
(1.00448 -0.0147029 0)
(1.00183 -0.00859873 0)
(1.00084 -0.0047688 0)
(1.00074 -0.00185693 0)
(1.00083 0.00085573 0)
(1.00062 0.00354868 0)
(1.00116 0.00676288 0)
(1.00282 0.0114816 0)
(1.00701 0.0192 0)
(1.01574 0.0303185 0)
(1.03163 0.0440008 0)
(1.06093 0.058794 0)
(1.09188 0.0744249 0)
(0.840562 0.0560041 0)
(0.225215 -0.00161727 0)
(1.07995 -0.0442327 0)
(1.10236 -0.0423212 0)
(1.06522 -0.0354361 0)
(1.03901 -0.0286843 0)
(1.02122 -0.0222126 0)
(1.01138 -0.0166347 0)
(1.00637 -0.0111756 0)
(1.00427 -0.0060868 0)
(1.00388 -0.000938781 0)
(1.00382 0.00424024 0)
(1.00492 0.00913342 0)
(1.00829 0.0143098 0)
(1.01531 0.0196852 0)
(1.02873 0.0255229 0)
(1.05069 0.0321603 0)
(1.08233 0.0389107 0)
(1.10993 0.0447445 0)
(0.950117 0.0365993 0)
(0.224994 0.00162694 0)
(0.195057 0.000107847 0)
(1.03093 -0.0212799 0)
(1.10176 -0.0274744 0)
(1.07375 -0.0266506 0)
(1.04914 -0.0246537 0)
(1.03311 -0.021522 0)
(1.02288 -0.0168779 0)
(1.01629 -0.0117301 0)
(1.01225 -0.00637072 0)
(1.01035 -0.000898584 0)
(1.01099 0.00442905 0)
(1.01383 0.00981895 0)
(1.01898 0.0149973 0)
(1.02711 0.0198958 0)
(1.03974 0.0237278 0)
(1.05981 0.0258292 0)
(1.08939 0.0276467 0)
(1.09482 0.0260521 0)
(0.862651 0.0130916 0)
(0.194723 -9.81144e-05 0)
(0.191401 0.00020412 0)
(0.993361 -0.00696883 0)
(1.08518 -0.0161598 0)
(1.06829 -0.0214118 0)
(1.04842 -0.0225763 0)
(1.03451 -0.0211504 0)
(1.02488 -0.0178133 0)
(1.01834 -0.0130938 0)
(1.01424 -0.00736842 0)
(1.01228 -0.000858774 0)
(1.01279 0.00580292 0)
(1.01567 0.011776 0)
(1.02086 0.0168391 0)
(1.0288 0.0206676 0)
(1.04037 0.0229628 0)
(1.05668 0.023313 0)
(1.07953 0.0196635 0)
(1.06834 0.0122096 0)
(0.822877 0.0024521 0)
(0.190872 -0.000192207 0)
(0.191199 -1.03115e-05 0)
(0.969734 -0.00382145 0)
(1.06566 -0.0111724 0)
(1.06175 -0.0170739 0)
(1.04997 -0.0195349 0)
(1.04004 -0.0190732 0)
(1.03228 -0.0165493 0)
(1.02629 -0.0124616 0)
(1.02204 -0.00710678 0)
(1.0198 -0.000566626 0)
(1.02032 0.00614356 0)
(1.02334 0.0118884 0)
(1.02828 0.0163252 0)
(1.03497 0.0193747 0)
(1.04364 0.020593 0)
(1.05489 0.0195366 0)
(1.06567 0.0150829 0)
(1.04355 0.00772588 0)
(0.806235 0.0014217 0)
(0.190455 2.43835e-05 0)
(0.190746 3.24219e-05 0)
(0.956032 -0.00141465 0)
(1.04908 -0.00552906 0)
(1.05123 -0.00988049 0)
(1.04547 -0.0127562 0)
(1.03939 -0.0136437 0)
(1.03372 -0.0125975 0)
(1.02885 -0.00985034 0)
(1.02513 -0.00560724 0)
(1.02315 -5.75586e-05 0)
(1.02349 0.00579553 0)
(1.02598 0.0104169 0)
(1.03001 0.0135637 0)
(1.03512 0.0150737 0)
(1.04091 0.014783 0)
(1.04688 0.0125231 0)
(1.05109 0.00852464 0)
(1.02583 0.00366773 0)
(0.797647 0.000490307 0)
(0.189724 -1.59146e-05 0)
(0.190849 1.27751e-05 0)
(0.950169 -0.00061899 0)
(1.04061 -0.00252856 0)
(1.0451 -0.00485677 0)
(1.04272 -0.00674501 0)
(1.03954 -0.00774004 0)
(1.03598 -0.00757522 0)
(1.03246 -0.00608467 0)
(1.02948 -0.00325262 0)
(1.02769 0.000737678 0)
(1.02781 0.00479917 0)
(1.02964 0.00790525 0)
(1.0325 0.00960823 0)
(1.03579 0.00992853 0)
(1.03899 0.00900898 0)
(1.04173 0.00709375 0)
(1.04273 0.00453585 0)
(1.01699 0.00193786 0)
(0.793823 0.00035553 0)
(0.189499 9.88164e-06 0)
(0.19093 1.60628e-05 0)
(0.947548 -0.000199014 0)
(1.03644 -0.00104226 0)
(1.04151 -0.00216626 0)
(1.04042 -0.00318757 0)
(1.03869 -0.00383527 0)
(1.0365 -0.00385295 0)
(1.03409 -0.0030177 0)
(1.03182 -0.00122539 0)
(1.03023 0.0014346 0)
(1.03008 0.00415603 0)
(1.03123 0.00598795 0)
(1.03298 0.00672392 0)
(1.03488 0.00650844 0)
(1.03657 0.00556719 0)
(1.03785 0.00417512 0)
(1.03775 0.00260567 0)
(1.01228 0.00115931 0)
(0.791513 0.000259864 0)
(0.189173 1.09746e-05 0)
(0.19114 1.83284e-05 0)
(0.946552 4.25351e-05 0)
(1.03465 -0.000268599 0)
(1.03989 -0.000730915 0)
(1.03935 -0.00116453 0)
(1.03832 -0.00143138 0)
(1.03692 -0.00136536 0)
(1.03521 -0.00079123 0)
(1.03346 0.000401663 0)
(1.03204 0.00216406 0)
(1.03159 0.00389063 0)
(1.03208 0.00486677 0)
(1.03299 0.0050471 0)
(1.03397 0.00460989 0)
(1.0348 0.00377727 0)
(1.03537 0.00276688 0)
(1.03483 0.00174163 0)
(1.00953 0.000836791 0)
(0.78994 0.00023178 0)
(0.18887 1.5822e-05 0)
(0.191449 2.44963e-05 0)
(0.946475 0.000205465 0)
(1.03406 0.000190491 0)
(1.03934 0.000109172 0)
(1.03902 5.52439e-05 0)
(1.03833 0.000100373 0)
(1.03733 0.000337524 0)
(1.03604 0.000871697 0)
(1.03457 0.00176908 0)
(1.0332 0.00297099 0)
(1.03243 0.00401942 0)
(1.03234 0.00448763 0)
(1.03265 0.00428823 0)
(1.03303 0.00374098 0)
(1.03335 0.00298832 0)
(1.03357 0.0021769 0)
(1.03282 0.00140388 0)
(1.00762 0.000731617 0)
(0.788628 0.00024029 0)
(0.18852 2.08595e-05 0)
(0.19185 2.92619e-05 0)
(0.946925 0.000350771 0)
(1.03423 0.000536933 0)
(1.03949 0.000709802 0)
(1.03926 0.000929291 0)
(1.03871 0.00123037 0)
(1.03789 0.0016581 0)
(1.03678 0.00225818 0)
(1.03541 0.00304104 0)
(1.03395 0.0039122 0)
(1.03285 0.00450588 0)
(1.03228 0.00457695 0)
(1.03209 0.00417219 0)
(1.03205 0.00351368 0)
(1.03206 0.00276391 0)
(1.03207 0.00201882 0)
(1.0312 0.00133591 0)
(1.00602 0.000742863 0)
(0.787346 0.000273026 0)
(0.188101 2.68896e-05 0)
(0.192377 3.76934e-05 0)
(0.947876 0.000503466 0)
(1.03492 0.000861283 0)
(1.04016 0.0012383 0)
(1.03995 0.00168367 0)
(1.03943 0.00221492 0)
(1.03865 0.00284528 0)
(1.03756 0.0035747 0)
(1.03613 0.00435905 0)
(1.03445 0.00505592 0)
(1.03295 0.00533963 0)
(1.03196 0.00507492 0)
(1.03134 0.00449102 0)
(1.03098 0.00371888 0)
(1.03076 0.00290391 0)
(1.03062 0.00213052 0)
(1.02967 0.00143778 0)
(1.00446 0.000834654 0)
(0.78594 0.000327487 0)
(0.187584 3.43057e-05 0)
(0.19306 4.79218e-05 0)
(0.949296 0.000671785 0)
(1.03611 0.00119944 0)
(1.0413 0.0017744 0)
(1.04106 0.0024422 0)
(1.04051 0.00320951 0)
(1.03967 0.00406797 0)
(1.03846 0.0049804 0)
(1.03683 0.00585148 0)
(1.0348 0.00648172 0)
(1.03283 0.0065539 0)
(1.03138 0.00605388 0)
(1.03039 0.00522905 0)
(1.02974 0.00427731 0)
(1.02933 0.0033267 0)
(1.02906 0.00244829 0)
(1.02803 0.00167183 0)
(1.00276 0.000994349 0)
(0.784288 0.000403673 0)
(0.186938 4.35586e-05 0)
(0.193937 6.14604e-05 0)
(0.951228 0.000878057 0)
(1.03779 0.00159469 0)
(1.04291 0.00238516 0)
(1.04261 0.00329717 0)
(1.04197 0.00433082 0)
(1.04098 0.00545914 0)
(1.03955 0.0066118 0)
(1.03758 0.00764086 0)
(1.03507 0.00827988 0)
(1.03253 0.00818791 0)
(1.03055 0.00744133 0)
(1.02917 0.00635213 0)
(1.02824 0.00516159 0)
(1.02763 0.0040057 0)
(1.02724 0.00295305 0)
(1.02614 0.00202922 0)
(1.00076 0.00122203 0)
(0.782271 0.000504393 0)
(0.186125 5.51233e-05 0)
(0.195069 7.92336e-05 0)
(0.953774 0.00113911 0)
(1.04005 0.00208246 0)
(1.04508 0.00312752 0)
(1.04468 0.00432908 0)
(1.04389 0.00568199 0)
(1.04268 0.00714141 0)
(1.0409 0.00860191 0)
(1.03846 0.00985769 0)
(1.03529 0.0105612 0)
(1.03203 0.0103204 0)
(1.02944 0.00929293 0)
(1.02761 0.00788572 0)
(1.02637 0.00638539 0)
(1.02555 0.00494889 0)
(1.02503 0.00365083 0)
(1.02384 0.00251617 0)
(0.998326 0.00152421 0)
(0.779764 0.000633675 0)
(0.185102 6.95333e-05 0)
(0.196531 0.000102681 0)
(0.957086 0.00147527 0)
(1.043 0.00270214 0)
(1.04791 0.00406273 0)
(1.04738 0.00562287 0)
(1.04638 0.00737231 0)
(1.04484 0.00924559 0)
(1.0426 0.0110971 0)
(1.0395 0.0126523 0)
(1.03548 0.0134637 0)
(1.03132 0.0130646 0)
(1.028 0.0116998 0)
(1.02563 0.00989335 0)
(1.02402 0.00799439 0)
(1.02296 0.00619041 0)
(1.02229 0.0045672 0)
(1.021 0.0031514 0)
(0.995298 0.00191355 0)
(0.776619 0.00079757 0)
(0.183814 8.75122e-05 0)
(0.198428 0.000133842 0)
(0.961373 0.00191372 0)
(1.04683 0.00350371 0)
(1.05158 0.0052658 0)
(1.05087 0.00728042 0)
(1.04957 0.00953114 0)
(1.0476 0.0119269 0)
(1.04473 0.0142718 0)
(1.04078 0.0162064 0)
(1.03566 0.0171596 0)
(1.03036 0.0165683 0)
(1.02613 0.0147819 0)
(1.02311 0.0124693 0)
(1.02106 0.0100612 0)
(1.01971 0.00778525 0)
(1.01885 0.00574291 0)
(1.01743 0.00396395 0)
(0.991499 0.00240837 0)
(0.772661 0.00100376 0)
(0.182194 0.000109859 0)
(0.200906 0.000175763 0)
(0.966916 0.002493 0)
(1.05177 0.00455667 0)
(1.05631 0.0068383 0)
(1.05534 0.00943573 0)
(1.05366 0.0123251 0)
(1.0511 0.0153822 0)
(1.0474 0.0183454 0)
(1.04233 0.0207473 0)
(1.0358 0.0218645 0)
(1.02907 0.0210191 0)
(1.02372 0.0186942 0)
(1.01991 0.015739 0)
(1.01731 0.0126857 0)
(1.0156 0.00981056 0)
(1.01452 0.00723532 0)
(1.01295 0.00499354 0)
(0.986718 0.00303292 0)
(0.767675 0.00126232 0)
(0.180161 0.000137619 0)
(0.204169 0.000233479 0)
(0.974091 0.00327181 0)
(1.05813 0.00596632 0)
(1.06238 0.00892771 0)
(1.06107 0.0122737 0)
(1.05885 0.0159783 0)
(1.0555 0.0198717 0)
(1.0507 0.0236025 0)
(1.04418 0.0265639 0)
(1.03586 0.0278473 0)
(1.02735 0.0266496 0)
(1.02062 0.023632 0)
(1.01583 0.0198639 0)
(1.01256 0.0159978 0)
(1.01042 0.0123691 0)
(1.00906 0.00912269 0)
(1.00731 0.00629566 0)
(0.980692 0.00382009 0)
(0.761396 0.00158614 0)
(0.177613 0.000172181 0)
(0.208527 0.000316883 0)
(0.983411 0.00435494 0)
(1.0663 0.00790696 0)
(1.07018 0.01175 0)
(1.0684 0.0160465 0)
(1.06542 0.0207895 0)
(1.06099 0.02574 0)
(1.05472 0.0304121 0)
(1.04632 0.0340188 0)
(1.03575 0.0354361 0)
(1.02504 0.0337403 0)
(1.01662 0.0298324 0)
(1.01063 0.0250444 0)
(1.00655 0.0201656 0)
(1.00387 0.0155996 0)
(1.00219 0.0115172 0)
(1.0002 0.00795442 0)
(0.973103 0.0048217 0)
(0.753483 0.00199636 0)
(0.17442 0.000216114 0)
(0.214477 0.000445718 0)
(0.995642 0.00594334 0)
(1.07694 0.0106502 0)
(1.08034 0.0155832 0)
(1.07782 0.0210675 0)
(1.07374 0.0271497 0)
(1.06777 0.0334429 0)
(1.05952 0.0392498 0)
(1.04868 0.0435588 0)
(1.03529 0.0450182 0)
(1.02192 0.0426176 0)
(1.01148 0.0375777 0)
(1.00405 0.0315298 0)
(0.998961 0.025408 0)
(0.995622 0.0196947 0)
(0.993525 0.0145886 0)
(0.991263 0.0101129 0)
(0.96354 0.0061354 0)
(0.743471 0.00253394 0)
(0.170404 0.000274852 0)
(0.222848 0.000652859 0)
(1.01202 0.00837864 0)
(1.09122 0.0145327 0)
(1.09389 0.0207475 0)
(1.09016 0.0277804 0)
(1.08436 0.0356558 0)
(1.07618 0.0436461 0)
(1.0652 0.0507566 0)
(1.0512 0.055738 0)
(1.03434 0.0570425 0)
(1.0178 0.0536532 0)
(1.00494 0.0472019 0)
(0.995777 0.0396353 0)
(0.989449 0.0320217 0)
(0.985258 0.0249326 0)
(0.982618 0.0186027 0)
(0.979996 0.0130285 0)
(0.951461 0.00797064 0)
(0.730721 0.00329393 0)
(0.165311 0.000359818 0)
(0.235037 0.000997331 0)
(1.03448 0.0122527 0)
(1.11087 0.0201163 0)
(1.11224 0.0280303 0)
(1.10648 0.0373077 0)
(1.09808 0.0475566 0)
(1.0867 0.0574966 0)
(1.072 0.0658689 0)
(1.05392 0.0712634 0)
(1.03283 0.0720207 0)
(1.01255 0.0672568 0)
(0.996886 0.0590918 0)
(0.985627 0.0497567 0)
(0.977723 0.0404096 0)
(0.972366 0.0317069 0)
(0.968899 0.0239392 0)
(0.965703 0.0170855 0)
(0.936177 0.0106842 0)
(0.714494 0.00445551 0)
(0.158802 0.000488164 0)
(0.253449 0.00167288 0)
(1.06562 0.0190181 0)
(1.13758 0.0290151 0)
(1.13656 0.0396879 0)
(1.12761 0.0520798 0)
(1.11532 0.0649608 0)
(1.09941 0.0766074 0)
(1.0798 0.0857148 0)
(1.0567 0.0908689 0)
(1.03065 0.0904209 0)
(1.00612 0.0837706 0)
(0.987231 0.0735807 0)
(0.973487 0.0622761 0)
(0.963588 0.0510157 0)
(0.956594 0.0404829 0)
(0.951795 0.0310281 0)
(0.94757 0.022639 0)
(0.916939 0.0146181 0)
(0.694193 0.0061902 0)
(0.15053 0.000678768 0)
(0.281294 0.00332575 0)
(1.1102 0.0323834 0)
(1.17375 0.0453306 0)
(1.16768 0.0598568 0)
(1.1532 0.0753734 0)
(1.13494 0.0901203 0)
(1.11294 0.10244 0)
(1.08735 0.111186 0)
(1.05855 0.115048 0)
(1.02711 0.112501 0)
(0.998061 0.103368 0)
(0.975703 0.0908626 0)
(0.959171 0.0774925 0)
(0.946893 0.0643058 0)
(0.937766 0.0518936 0)
(0.931034 0.0406378 0)
(0.925028 0.030389 0)
(0.892644 0.0205018 0)
(0.668638 0.0085819 0)
(0.140611 0.000945311 0)
(0.322377 0.0114899 -1.58548e-21)
(1.16923 0.0600791 -1.01385e-21)
(1.21867 0.0777126 2.0281e-22)
(1.20317 0.0948331 0)
(1.18037 0.111295 -6.87447e-36)
(1.15431 0.125611 1.28572e-22)
(1.12512 0.136702 -3.99204e-22)
(1.09293 0.143579 0)
(1.05804 0.145061 1.19983e-35)
(1.02092 0.139709 -8.51915e-22)
(0.98702 0.127838 0)
(0.960776 0.113096 -1.17439e-21)
(0.940924 0.0979197 -3.57146e-21)
(0.925593 0.0832145 -1.724e-21)
(0.913488 0.0695186 -5.39802e-22)
(0.903719 0.0572644 -3.27057e-22)
(0.894509 0.0463389 0)
(0.860047 0.0355552 2.37825e-22)
(0.634466 0.0204125 2.84296e-22)
(0.130472 0.00452404 5.12277e-21)
(0.341911 0.0306992 -3.99446e-21)
(1.21865 0.108383 1.04467e-22)
(1.25955 0.128947 -1.68764e-22)
(1.23546 0.143731 0)
(1.20476 0.158118 2.01933e-23)
(1.17129 0.170424 -1.97685e-22)
(1.1351 0.179393 -3.14993e-22)
(1.09626 0.183974 -1.6825e-21)
(1.05498 0.183026 0)
(1.01157 0.175182 3.57937e-21)
(0.971857 0.16118 3.86703e-21)
(0.940583 0.145081 1.22219e-21)
(0.916225 0.12923 4.77741e-21)
(0.896619 0.114324 7.02097e-21)
(0.880379 0.100831 0)
(0.866448 0.0891032 1.04465e-20)
(0.852894 0.07979 1.53719e-20)
(0.815406 0.0695283 1.73274e-20)
(0.608186 0.0491409 -2.03275e-20)
(0.12938 0.0117832 -3.7193e-22)
(0.329542 0.0499971 0)
(1.24842 0.171464 -1.24095e-21)
(1.2898 0.192802 0)
(1.26009 0.203176 1.61734e-21)
(1.22306 0.213384 0)
(1.18343 0.221516 2.74166e-22)
(1.1412 0.22675 4.92477e-22)
(1.09656 0.227949 -2.76474e-21)
(1.04964 0.223907 -2.96414e-22)
(1.0006 0.213272 1.73962e-21)
(0.955798 0.197239 8.83823e-21)
(0.920433 0.1801 -4.0665e-23)
(0.892725 0.164103 -3.55243e-21)
(0.870264 0.149845 -6.83167e-21)
(0.851585 0.137622 8.30267e-21)
(0.835669 0.127636 -1.49129e-20)
(0.82095 0.119921 -2.04455e-21)
(0.787372 0.111043 0)
(0.598235 0.0840293 1.22088e-22)
(0.134121 0.0199856 0)
(0.31498 0.0661803 -3.3345e-20)
(1.26163 0.238165 1.31812e-20)
(1.30762 0.260909 6.62396e-21)
(1.27455 0.26729 -1.14135e-21)
(1.23368 0.272486 1.6996e-21)
(1.18973 0.276026 -9.38699e-22)
(1.14307 0.27691 8.38691e-22)
(1.09391 0.274122 0)
(1.04249 0.266494 -7.16787e-21)
(0.988976 0.252729 0)
(0.94026 0.234457 -4.47126e-21)
(0.901927 0.216216 -6.18645e-21)
(0.872084 0.200006 -3.92562e-21)
(0.848234 0.186092 -5.03455e-21)
(0.828775 0.174498 0)
(0.812602 0.165273 0)
(0.7981 0.158375 -1.35693e-20)
(0.766616 0.149482 2.72441e-21)
(0.5877 0.114113 -1.61636e-21)
(0.133679 0.0271224 -1.90921e-21)
(0.303454 0.0804967 2.46786e-20)
(1.26365 0.304365 0)
(1.31492 0.328919 -1.86003e-20)
(1.28019 0.331473 -4.42562e-21)
(1.23702 0.332075 -3.00708e-21)
(1.19042 0.331117 0)
(1.14075 0.327718 1.87697e-22)
(1.08826 0.320887 2.59536e-21)
(1.03329 0.309539 3.23167e-21)
(0.976108 0.292491 8.40762e-21)
(0.924248 0.271803 0)
(0.88375 0.252186 -1.3314e-20)
(0.852564 0.23534 -8.45803e-21)
(0.827958 0.221231 -5.0831e-21)
(0.808189 0.209702 3.31961e-20)
(0.792017 0.200573 4.0674e-21)
(0.777838 0.193694 1.95094e-20)
(0.747735 0.184132 -9.49863e-20)
(0.575738 0.141343 5.72415e-20)
(0.132191 0.0335864 -7.00134e-20)
(0.295064 0.0936085 2.60009e-20)
(1.25884 0.367643 -4.60678e-21)
(1.31471 0.394708 3.28861e-21)
(1.27919 0.393783 8.63874e-21)
(1.23459 0.390339 4.9756e-21)
(1.18626 0.385303 3.10654e-22)
(1.13448 0.377888 -2.84024e-22)
(1.07958 0.367158 2.18796e-21)
(1.02197 0.352124 -6.91603e-21)
(0.962066 0.331751 0)
(0.907861 0.308502 -5.74783e-21)
(0.86579 0.28726 -2.83907e-22)
(0.833701 0.269395 -9.39815e-21)
(0.808681 0.254687 0)
(0.788841 0.242745 -7.21229e-21)
(0.772825 0.233296 -1.75269e-20)
(0.758961 0.226033 4.85813e-20)
(0.729917 0.21558 -4.8863e-20)
(0.563735 0.165962 7.0232e-20)
(0.130046 0.0394113 -7.41161e-20)
(0.289035 0.106028 -1.48585e-22)
(1.25016 0.427112 5.60088e-21)
(1.30898 0.457126 1.58497e-20)
(1.27323 0.453343 -5.36441e-21)
(1.22793 0.446392 2.84712e-21)
(1.17849 0.437702 0)
(1.1253 0.426571 8.00322e-22)
(1.06871 0.412187 -1.93367e-21)
(1.00917 0.393625 -3.22682e-21)
(0.947155 0.369987 0)
(0.891115 0.344117 -5.53882e-21)
(0.847816 0.321023 -7.697e-21)
(0.81506 0.301855 1.02178e-20)
(0.789803 0.286198 -6.53951e-21)
(0.769995 0.273545 -3.16375e-20)
(0.75418 0.263481 1.94644e-20)
(0.740654 0.255647 6.18634e-21)
(0.712512 0.244175 0)
(0.551467 0.188269 -6.80696e-20)
(0.127462 0.0446329 -2.53319e-21)
(0.284305 0.117808 4.20515e-21)
(1.23941 0.482585 -6.40047e-21)
(1.29951 0.515704 -8.57217e-21)
(1.2637 0.509563 -1.61349e-20)
(1.21805 0.499619 1.40457e-20)
(1.16797 0.487711 -6.80365e-21)
(1.11382 0.473238 -1.69486e-21)
(1.05603 0.455469 -2.85377e-21)
(0.995093 0.433615 2.77377e-21)
(0.931518 0.406839 -1.97605e-20)
(0.874015 0.37839 -6.7203e-21)
(0.829671 0.353315 0)
(0.796387 0.332627 1.113e-20)
(0.770952 0.315755 1.37685e-20)
(0.751226 0.302105 1.6976e-20)
(0.735666 0.291252 -2.12506e-20)
(0.722482 0.282663 -6.42051e-21)
(0.695204 0.270037 7.67174e-21)
(0.538918 0.208354 0)
(0.12453 0.0492608 -5.56273e-21)
(0.28041 0.129029 -4.82864e-20)
(1.22783 0.534341 2.94011e-20)
(1.2876 0.570481 9.24259e-21)
(1.2517 0.562365 -1.22689e-20)
(1.20589 0.549829 8.47754e-21)
(1.1554 0.535053 -6.72536e-22)
(1.10061 0.517545 1.55833e-21)
(1.042 0.496702 -1.08118e-21)
(0.980119 0.471793 -5.49779e-21)
(0.915399 0.442123 -3.44953e-23)
(0.856679 0.411209 -1.9757e-20)
(0.811367 0.384139 1.93776e-20)
(0.777523 0.361759 -1.24502e-20)
(0.751896 0.343433 1.55427e-20)
(0.73226 0.328587 0)
(0.716957 0.316706 -1.15866e-20)
(0.70417 0.307212 -2.81725e-22)
(0.677777 0.29325 -3.36563e-20)
(0.525996 0.226404 -5.02922e-21)
(0.121185 0.0532558 0)
(0.277122 0.139736 0)
(1.21568 0.582893 3.11855e-20)
(1.27414 0.62167 2.15814e-20)
(1.23804 0.611799 1.38162e-20)
(1.19213 0.597032 7.98821e-21)
(1.1414 0.579725 0)
(1.08621 0.559457 2.16175e-21)
(1.02704 0.535731 -2.57819e-22)
(0.964512 0.508013 1.12852e-20)
(0.899023 0.475722 -2.36467e-21)
(0.839259 0.442559 -1.43746e-20)
(0.792953 0.413565 9.62853e-21)
(0.758391 0.389397 -4.27938e-22)
(0.732471 0.369409 1.63843e-20)
(0.712855 0.353115 1.07898e-20)
(0.697821 0.339989 -2.53142e-20)
(0.685446 0.32943 3.08163e-20)
(0.659967 0.314019 9.29844e-21)
(0.512556 0.242367 3.89166e-20)
(0.117338 0.0565583 -1.05364e-19)
(0.274382 0.150122 -1.21321e-20)
(1.20327 0.628795 1.79535e-20)
(1.25966 0.669516 -1.34415e-20)
(1.22334 0.658082 -1.59192e-20)
(1.17729 0.64131 0)
(1.12636 0.621735 6.25458e-21)
(1.07094 0.598961 -6.02171e-21)
(1.01145 0.57252 1.27027e-21)
(0.948563 0.542148 0)
(0.882619 0.507512 -3.52722e-20)
(0.821996 0.472485 3.84441e-20)
(0.774511 0.441782 0)
(0.73898 0.415803 1.47809e-20)
(0.712532 0.393927 -4.75213e-22)
(0.692818 0.375915 -3.43874e-20)
(0.677986 0.361267 1.35117e-20)
(0.666052 0.349429 0)
(0.641535 0.332482 5.06949e-20)
(0.498372 0.256345 0)
(0.112981 0.0591563 -5.06691e-20)
(0.272144 0.160151 1.33405e-20)
(1.19073 0.672019 2.04716e-20)
(1.2446 0.714274 -1.39686e-20)
(1.20802 0.701404 0)
(1.16183 0.682867 1.09397e-20)
(1.11067 0.6612 0)
(1.05504 0.636066 8.48287e-21)
(0.995456 0.607096 5.85523e-22)
(0.932517 0.574171 1.23781e-21)
(0.866425 0.537451 -1.7089e-20)
(0.805098 0.501079 3.65925e-21)
(0.756284 0.469018 0)
(0.719322 0.441246 -3.14454e-20)
(0.691927 0.417302 5.15189e-22)
(0.671892 0.397207 0)
(0.657156 0.380727 5.75477e-22)
(0.645673 0.367295 4.62726e-20)
(0.622163 0.348615 -4.50363e-20)
(0.483196 0.268212 1.34401e-20)
(0.107952 0.0607957 0)
(0.270141 0.169793 0)
(1.1782 0.712819 2.26545e-20)
(1.22926 0.756208 1.62836e-20)
(1.19234 0.742021 -4.12601e-22)
(1.14601 0.721867 6.92407e-21)
(1.09464 0.698286 1.4436e-20)
(1.03878 0.670892 -2.68062e-21)
(0.97914 0.639447 -1.0277e-22)
(0.916504 0.604087 6.33988e-21)
(0.850693 0.565487 -2.5173e-20)
(0.788928 0.528353 -3.11388e-22)
(0.738449 0.495541 -1.24987e-20)
(0.699484 0.466148 5.18352e-20)
(0.670555 0.439901 -6.66009e-22)
(0.649774 0.417368 -2.77901e-20)
(0.634971 0.398641 -5.09817e-20)
(0.623894 0.383225 0)
(0.601424 0.362472 0)
(0.466713 0.277925 1.51337e-20)
(0.102039 0.0614818 -8.92481e-21)
(0.268685 0.179291 1.62496e-20)
(1.16579 0.751347 -4.86903e-20)
(1.21389 0.795521 -1.71968e-20)
(1.17656 0.780135 0)
(1.13001 0.758513 -1.96859e-22)
(1.07841 0.733122 1.73614e-20)
(1.02235 0.703569 -9.42516e-21)
(0.962687 0.669623 -2.95926e-21)
(0.900581 0.631866 6.29632e-21)
(0.835656 0.591577 -1.82596e-20)
(0.773779 0.554357 -3.03865e-20)
(0.721358 0.521597 3.30306e-20)
(0.679623 0.490965 0)
(0.648343 0.462284 -1.2594e-20)
(0.626213 0.436779 -3.09626e-20)
(0.611088 0.415234 -3.76278e-20)
(0.600209 0.397387 -4.60686e-20)
(0.578693 0.374029 1.39639e-20)
(0.448346 0.285187 -8.20067e-21)
(0.0948899 0.0609452 1.97146e-22)
(0.267371 0.188462 0)
(1.15376 0.78782 0)
(1.19866 0.832471 2.65284e-22)
(1.1609 0.815964 0)
(1.11404 0.792988 -2.53327e-20)
(1.0621 0.765896 -1.52402e-20)
(1.00585 0.734213 0)
(0.946191 0.69777 -9.63329e-22)
(0.884743 0.65744 6.99112e-21)
(0.821404 0.615656 -4.00154e-20)
(0.760052 0.579046 0)
(0.70551 0.547455 -2.0767e-20)
(0.660047 0.516286 -8.61275e-22)
(0.625271 0.485279 -7.19569e-22)
(0.601029 0.456434 3.36132e-20)
(0.584969 0.43082 -3.64283e-23)
(0.573685 0.409966 -1.02081e-19)
(0.553277 0.383364 3.11025e-20)
(0.427542 0.28965 9.35829e-21)
(0.0862446 0.0588933 0)
(0.266326 0.197379 -5.88137e-20)
(1.14189 0.822431 -2.92402e-20)
(1.1837 0.867264 -4.19893e-20)
(1.14544 0.849696 5.7124e-20)
(1.09823 0.82547 -4.67722e-20)
(1.04589 0.796742 0)
(0.989312 0.76298 -8.1613e-21)
(0.929726 0.723975 1.87725e-21)
(0.86907 0.680901 5.3311e-22)
(0.807838 0.637571 2.99799e-21)
(0.748089 0.602319 3.50839e-20)
(0.691367 0.573364 -6.92196e-21)
(0.641163 0.542882 -3.21927e-20)
(0.601519 0.509653 -1.55713e-20)
(0.573509 0.476976 1.91688e-20)
(0.555823 0.445827 7.62673e-24)
(0.544771 0.420659 2.88171e-20)
(0.526187 0.390155 -6.87682e-20)
(0.403455 0.290289 8.34236e-20)
(0.0758389 0.0550391 1.21587e-20)
(0.265378 0.206051 2.13909e-20)
(1.13036 0.855198 -1.56556e-20)
(1.16912 0.900011 9.25775e-22)
(1.13031 0.8815 3.16796e-20)
(1.08266 0.856114 1.08379e-20)
(1.02984 0.825848 2.98715e-20)
(0.972849 0.790043 -3.62953e-21)
(0.913226 0.74836 9.38425e-21)
(0.853614 0.702306 -1.04494e-21)
(0.795017 0.657115 -1.8205e-20)
(0.737951 0.624086 0)
(0.67958 0.599477 -3.12774e-20)
(0.623615 0.571258 4.72859e-20)
(0.576821 0.536921 0)
(0.543177 0.4988 -4.15432e-20)
(0.523211 0.462783 2.65309e-20)
(0.512484 0.430973 -3.18588e-20)
(0.494133 0.395294 -3.90374e-20)
(0.373892 0.287409 -6.95539e-20)
(0.0628643 0.0488903 -5.52416e-20)
(0.264857 0.214671 -2.32376e-20)
(1.11923 0.886232 1.67573e-20)
(1.15501 0.930885 3.82559e-20)
(1.11562 0.911518 4.33066e-20)
(1.06745 0.885088 -2.23144e-20)
(1.01401 0.853355 2.01383e-20)
(0.956526 0.815532 -1.12039e-20)
(0.89673 0.771102 1.20464e-20)
(0.838173 0.721728 1.73826e-21)
(0.782975 0.674267 1.2986e-20)
(0.729655 0.643983 6.6191e-20)
(0.670838 0.625935 0)
(0.608043 0.602392 0)
(0.552143 0.567408 -1.83133e-20)
(0.510495 0.522416 0)
(0.485199 0.479842 5.88664e-20)
(0.473447 0.441415 7.1534e-20)
(0.455542 0.397471 0)
(0.337388 0.279401 0)
(0.0472362 0.0400653 6.21451e-20)
(0.264316 0.222786 2.54076e-20)
(1.10853 0.915727 1.97541e-20)
(1.14144 0.960043 2.7256e-20)
(1.10142 0.93991 -3.78422e-20)
(1.05266 0.912522 -2.4512e-20)
(0.998517 0.879407 -2.63491e-20)
(0.94037 0.839629 1.64882e-20)
(0.880269 0.792361 3.39148e-22)
(0.822668 0.739235 -5.24614e-22)
(0.771543 0.688892 -2.61472e-21)
(0.723914 0.661419 3.12589e-20)
(0.66608 0.652862 0)
(0.595981 0.636155 4.86034e-20)
(0.527375 0.599675 3.90114e-20)
(0.4747 0.556494 1.04248e-19)
(0.442606 0.501307 3.23904e-20)
(0.427647 0.448747 -4.11083e-20)
(0.409705 0.391792 -2.45158e-20)
(0.293804 0.262552 0)
(0.0305017 0.0281836 6.98209e-20)
(0.264399 0.231121 -5.52898e-20)
(1.09824 0.943733 0)
(1.12841 0.9876 2.98965e-20)
(1.08776 0.966783 -3.04751e-20)
(1.03834 0.938531 2.70987e-20)
(0.983391 0.904143 3.79544e-20)
(0.924457 0.862506 -3.76184e-20)
(0.863775 0.81229 3.50377e-22)
(0.807038 0.754976 0)
(0.760311 0.700885 -3.27534e-21)
(0.720754 0.676326 -5.33214e-20)
(0.665603 0.679252 3.67351e-21)
(0.586783 0.672067 6.69052e-20)
(0.502447 0.64155 0)
(0.437338 0.590376 7.20692e-20)
(0.394288 0.53228 0)
(0.365619 0.466357 0)
(0.347688 0.377125 -2.84582e-20)
(0.245874 0.226437 0)
(0.0320746 0.0173494 1.92806e-20)
(0.264308 0.238983 -5.97981e-20)
(1.08834 0.970415 0)
(1.1159 1.01372 4.82786e-20)
(1.07461 0.992336 0)
(1.02451 0.963364 -1.44083e-20)
(0.968618 0.927852 0)
(0.908721 0.884537 -2.75718e-21)
(0.847173 0.831313 -2.34026e-21)
(0.790984 0.769389 -9.37258e-22)
(0.749034 0.710278 3.43732e-21)
(0.720609 0.688296 8.73343e-22)
(0.670243 0.705319 3.16625e-20)
(0.580716 0.712402 6.52874e-20)
(0.482067 0.686639 1.01639e-20)
(0.401397 0.640687 5.80959e-20)
(0.338004 0.569441 0)
(0.285898 0.483698 9.30319e-20)
(0.252841 0.348147 -5.67473e-20)
(0.125033 0.182196 6.71901e-20)
(-0.0103912 0.42687 -8.08338e-20)
(0.264483 0.246943 4.8495e-20)
(1.07869 0.995954 7.28737e-20)
(1.10374 1.03869 0)
(1.06188 1.01696 3.12922e-22)
(1.01095 0.987559 3.88047e-20)
(0.953878 0.951169 -7.11004e-20)
(0.892734 0.906466 -1.61199e-20)
(0.829777 0.850185 0)
(0.773477 0.783135 -9.72617e-21)
(0.736747 0.716987 7.29744e-22)
(0.7237 0.696444 0)
(0.681836 0.733655 0)
(0.582323 0.760751 5.77177e-20)
(0.46692 0.748285 -3.35082e-20)
(0.360641 0.691428 -5.95229e-20)
(0.275814 0.62449 0)
(0.179989 0.526204 4.82465e-20)
(0.072395 0.611139 -5.86503e-20)
(0.0642904 1.82332 -3.3302e-20)
(0.089279 2.76629 -3.96939e-20)
(0.264449 0.254334 -3.51364e-20)
(1.06905 1.02048 -9.09633e-20)
(1.09189 1.06237 2.70942e-20)
(1.04971 1.04058 2.50673e-20)
(0.997772 1.01096 0)
(0.939348 0.97394 -5.01491e-20)
(0.876782 0.928156 -2.64066e-20)
(0.811825 0.868931 1.53152e-21)
(0.754643 0.796083 -1.80238e-21)
(0.723429 0.720179 -1.62078e-20)
(0.729371 0.700063 4.08679e-21)
(0.700561 0.763239 2.49941e-20)
(0.594239 0.814479 5.76991e-20)
(0.449179 0.81223 -7.99352e-20)
(0.321483 0.771285 -9.0495e-20)
(0.213221 0.71657 0)
(0.105116 0.976195 0)
(0.154033 2.48506 2.54636e-20)
(0.157554 3.13836 0)
(0.154171 3.32775 6.49827e-20)
(0.268022 0.26063 0)
(1.05878 1.04379 0)
(1.08033 1.08449 0)
(1.03794 1.06306 6.95139e-21)
(0.984798 1.03345 3.36116e-20)
(0.924944 0.996135 -3.70518e-20)
(0.860892 0.949737 -1.84862e-20)
(0.793299 0.887667 1.70686e-21)
(0.734209 0.808348 -1.9888e-20)
(0.708469 0.719962 -4.74682e-21)
(0.737944 0.695887 -2.46469e-20)
(0.729802 0.781314 -3.4662e-21)
(0.606457 0.877406 6.08588e-21)
(0.439792 0.908329 1.20481e-20)
(0.272949 0.870513 -2.33561e-22)
(0.17668 1.07974 3.56733e-22)
(0.21067 2.58059 -1.2463e-19)
(0.23127 3.23116 -4.72845e-20)
(0.210864 3.37534 2.33156e-20)
(0.190433 3.40205 -2.47418e-20)
(0.170595 0.191671 2.04602e-20)
(1.04606 1.06601 0)
(1.06965 1.10526 -5.17122e-20)
(1.02678 1.08478 -6.33834e-20)
(0.972457 1.05546 6.86263e-20)
(0.911186 1.01815 3.8913e-20)
(0.846357 0.971396 2.1277e-20)
(0.775594 0.909198 -2.58802e-20)
(0.71181 0.825124 1.9551e-20)
(0.689586 0.72104 0)
(0.746696 0.680277 -3.36878e-20)
(0.779001 0.784543 -9.80376e-21)
(0.668613 0.941851 0)
(0.451868 1.02508 1.11486e-20)
(0.248705 1.0565 2.81786e-20)
(0.205291 2.20594 -3.18657e-20)
(0.317142 3.24601 3.58519e-20)
(0.291075 3.3874 1.75398e-20)
(0.243977 3.42157 1.99887e-20)
(0.213548 3.43866 2.63003e-20)
(0.316078 0.312202 -3.7576e-20)
(1.02379 1.07807 0)
(1.05593 1.13698 5.25561e-20)
(1.00896 1.11713 6.42743e-20)
(0.952434 1.08814 -6.93854e-20)
(0.887852 1.05045 -3.96844e-20)
(0.817087 1.001 -3.08208e-20)
(0.741502 0.932939 -2.02424e-21)
(0.67428 0.836736 -2.5848e-20)
(0.658249 0.706672 -5.12566e-20)
(0.779697 0.635285 -3.788e-21)
(0.88931 0.797617 -1.27882e-20)
(0.810803 1.07143 4.23449e-21)
(0.5214 1.26618 -1.07355e-20)
(0.351669 2.02502 -2.51102e-20)
(0.440286 3.20749 1.90163e-20)
(0.418086 3.42138 -1.69999e-20)
(0.364232 3.4636 -9.5614e-21)
(0.308435 3.50345 -1.0439e-21)
(0.23236 3.4958 -5.29982e-22)
(0.308547 0.312622 0)
(1.02155 1.1018 1.44022e-20)
(1.04633 1.15949 -1.04095e-20)
(0.997703 1.14026 -7.15894e-21)
(0.939768 1.11164 -4.43838e-20)
(0.873127 1.07403 3.82493e-20)
(0.79915 1.02383 1.98616e-20)
(0.718943 0.953476 -2.04067e-21)
(0.64524 0.849998 3.09207e-20)
(0.627142 0.692453 -5.59131e-21)
(0.786985 0.570617 1.843e-19)
(1.03661 0.734124 -1.59268e-21)
(0.979874 1.17671 -2.11023e-21)
(0.653672 1.55598 -9.80046e-21)
(0.506112 2.73543 5.20101e-21)
(0.571147 3.39446 7.45581e-22)
(0.47969 3.50476 -1.99399e-21)
(0.422426 3.54964 -9.65147e-21)
(0.336173 3.59254 1.78125e-20)
(0.256231 3.57135 7.07711e-21)
(0.293091 0.310493 3.64327e-20)
(1.01839 1.12952 9.512e-20)
(1.03649 1.18465 -2.87665e-20)
(0.986194 1.1656 -2.64493e-20)
(0.926548 1.13723 0)
(0.857664 1.09967 5.38234e-20)
(0.780122 1.04884 2.92626e-20)
(0.694327 0.976237 -2.02914e-21)
(0.611317 0.863972 3.87798e-21)
(0.58435 0.668928 8.32182e-20)
(0.7888 0.422355 1.39046e-19)
(1.16876 0.717141 5.87547e-20)
(1.18455 1.40012 1.18261e-20)
(0.768569 1.97103 4.02963e-20)
(0.685923 3.18256 2.34201e-20)
(0.670595 3.51901 0)
(0.552358 3.58615 0)
(0.468947 3.65513 1.84469e-20)
(0.373635 3.71277 0)
(0.270377 3.67591 3.6405e-20)
(0.28137 0.312327 -5.27293e-20)
(1.01303 1.15927 -7.84366e-20)
(1.02561 1.21208 0)
(0.973675 1.19274 2.87272e-22)
(0.91219 1.16451 -4.18929e-20)
(0.841001 1.12712 7.79439e-20)
(0.759769 1.07608 1.86257e-20)
(0.667788 1.00221 -2.07068e-21)
(0.572821 0.88249 2.84263e-20)
(0.528548 0.651791 -4.40814e-21)
(0.738602 0.314531 0)
(1.23458 0.800657 0)
(1.38728 1.69025 6.62922e-20)
(0.899165 2.43256 -4.83847e-21)
(0.84496 3.44417 -1.13609e-20)
(0.743194 3.6257 0)