/*--------------------------------*- C++ -*----------------------------------*\
  =========                 |
  \\      /  F ield         | OpenFOAM: The Open Source CFD Toolbox
   \\    /   O peration     | Website:  https://openfoam.org
    \\  /    A nd           | Version:  6
     \\/     M anipulation  |
\*---------------------------------------------------------------------------*/
FoamFile
{
    version     2.0;
    format      ascii;
    class       volVectorField;
    location    "23";
    object      U;
}
// * * * * * * * * * * * * * * * * * * * * * * * * * * * * * * * * * * * * * //

dimensions      [0 1 -1 0 0 0 0];

internalField   nonuniform List<vector> 
8800
(
(0.987189 -0.0766641 0)
(1.0019 -0.0551857 0)
(0.999749 -0.0285402 0)
(1.00005 -0.0151276 0)
(1.00004 -0.00851404 0)
(1.00001 -0.00500973 0)
(1.00001 -0.00298028 0)
(0.999988 -0.00171637 0)
(0.999975 -0.000845083 0)
(1.00005 -0.000142021 0)
(0.999974 0.000585708 0)
(0.999986 0.00135306 0)
(0.999999 0.0023697 0)
(1.00001 0.00394403 0)
(1.00002 0.00657959 0)
(1.00006 0.0113302 0)
(0.999977 0.0207843 0)
(0.999171 0.0386465 0)
(1.00709 0.0724471 0)
(0.771217 0.0366587 0)
(0.363063 -0.0160172 0)
(1.04331 -0.0768203 0)
(1.08462 -0.0704625 0)
(1.04523 -0.0535787 0)
(1.02326 -0.0389485 0)
(1.01192 -0.0262878 0)
(1.00629 -0.0169027 0)
(1.00346 -0.01038 0)
(1.00207 -0.00574336 0)
(1.00145 -0.00213967 0)
(1.00134 0.00103992 0)
(1.00167 0.00437846 0)
(1.0026 0.00835093 0)
(1.00459 0.013748 0)
(1.00859 0.0215354 0)
(1.0166 0.0325246 0)
(1.03258 0.0464442 0)
(1.06277 0.0615703 0)
(1.09191 0.076014 0)
(0.838801 0.0565275 0)
(0.216843 -0.00242684 0)
(1.07591 -0.0501266 0)
(1.0999 -0.0482933 0)
(1.06461 -0.0404077 0)
(1.03989 -0.0335191 0)
(1.0237 -0.0260317 0)
(1.01398 -0.0185802 0)
(1.0085 -0.0118771 0)
(1.00561 -0.00607934 0)
(1.00438 -0.00074754 0)
(1.00476 0.00443947 0)
(1.00669 0.00982381 0)
(1.01065 0.015928 0)
(1.01794 0.0229165 0)
(1.03056 0.0303598 0)
(1.05075 0.0374559 0)
(1.08053 0.0442288 0)
(1.10651 0.051132 0)
(0.942947 0.0415087 0)
(0.216442 0.00244476 0)
(0.175197 -0.000810717 0)
(1.01772 -0.0354271 0)
(1.1052 -0.04133 0)
(1.07824 -0.0360794 0)
(1.05329 -0.0301955 0)
(1.03588 -0.0246072 0)
(1.02366 -0.0188948 0)
(1.01561 -0.0129214 0)
(1.01084 -0.00689234 0)
(1.00874 -0.000750732 0)
(1.00933 0.00532436 0)
(1.01259 0.0112626 0)
(1.0188 0.0171114 0)
(1.02874 0.0227913 0)
(1.04333 0.0282206 0)
(1.06401 0.033765 0)
(1.09392 0.0397524 0)
(1.09392 0.0415797 0)
(0.828169 0.0227358 0)
(0.174526 0.000831173 0)
(0.154075 -0.000602675 0)
(0.956374 -0.0253477 0)
(1.10338 -0.0349445 0)
(1.08739 -0.0324095 0)
(1.06135 -0.0277491 0)
(1.04372 -0.0228152 0)
(1.03128 -0.0177472 0)
(1.02248 -0.0125037 0)
(1.01677 -0.006809 0)
(1.0141 -0.000520068 0)
(1.01482 0.0058286 0)
(1.0188 0.0116141 0)
(1.02584 0.0168078 0)
(1.03624 0.0216931 0)
(1.0509 0.0264592 0)
(1.07217 0.0310628 0)
(1.10057 0.0351615 0)
(1.06916 0.0334539 0)
(0.74155 0.0140615 0)
(0.153071 0.000625923 0)
(0.139834 -0.000455317 0)
(0.899877 -0.0188679 0)
(1.09591 -0.0297921 0)
(1.09567 -0.0288875 0)
(1.06884 -0.0251525 0)
(1.05018 -0.0211079 0)
(1.03731 -0.0165879 0)
(1.02833 -0.01158 0)
(1.02232 -0.00614705 0)
(1.01933 -0.00011117 0)
(1.02008 0.00594153 0)
(1.0243 0.0114245 0)
(1.03149 0.0163412 0)
(1.04204 0.0207786 0)
(1.05736 0.0247552 0)
(1.0799 0.0283326 0)
(1.10336 0.0311104 0)
(1.0381 0.0272853 0)
(0.676453 0.00985022 0)
(0.138425 0.000481928 0)
(0.1295 -0.000344184 0)
(0.85105 -0.0143008 0)
(1.08347 -0.0253062 0)
(1.1009 -0.025667 0)
(1.07536 -0.0226262 0)
(1.05623 -0.019155 0)
(1.04276 -0.0150961 0)
(1.03331 -0.0104514 0)
(1.02707 -0.00531777 0)
(1.02392 0.000354793 0)
(1.02461 0.00604219 0)
(1.02886 0.0111461 0)
(1.03625 0.0156272 0)
(1.04731 0.0195851 0)
(1.06312 0.0229549 0)
(1.08592 0.0258548 0)
(1.10266 0.0276405 0)
(1.00466 0.0223124 0)
(0.626751 0.00732569 0)
(0.127602 0.000375699 0)
(0.121822 -0.000256544 0)
(0.81043 -0.0109219 0)
(1.06875 -0.0212649 0)
(1.10421 -0.022329 0)
(1.08108 -0.0195026 0)
(1.06154 -0.0164198 0)
(1.04778 -0.0130155 0)
(1.03795 -0.00903611 0)
(1.0314 -0.00439058 0)
(1.0281 0.000952431 0)
(1.02866 0.00630211 0)
(1.03293 0.0109171 0)
(1.04055 0.0147176 0)
(1.05183 0.017871 0)
(1.06789 0.0205762 0)
(1.09114 0.0232346 0)
(1.0997 0.0244483 0)
(0.971994 0.0182645 0)
(0.588147 0.0056035 0)
(0.119328 0.00029472 0)
(0.116105 -0.000186007 0)
(0.777336 -0.00814384 0)
(1.05291 -0.0174018 0)
(1.10647 -0.0192779 0)
(1.08644 -0.0169745 0)
(1.06626 -0.014073 0)
(1.05223 -0.0109881 0)
(1.04231 -0.0074183 0)
(1.03556 -0.00319561 0)
(1.03204 0.0016641 0)
(1.03247 0.00644924 0)
(1.03672 0.0105028 0)
(1.04431 0.0137557 0)
(1.05555 0.0163746 0)
(1.07202 0.018767 0)
(1.09531 0.0210695 0)
(1.09438 0.0214203 0)
(0.941399 0.0147074 0)
(0.557954 0.00427194 0)
(0.112888 0.000232297 0)
(0.112026 -0.000127128 0)
(0.75142 -0.00589788 0)
(1.0372 -0.0137203 0)
(1.10736 -0.016043 0)
(1.09115 -0.0143987 0)
(1.07084 -0.0119658 0)
(1.05671 -0.00905327 0)
(1.04679 -0.00563319 0)
(1.03998 -0.00178638 0)
(1.03623 0.00255872 0)
(1.03652 0.00680685 0)
(1.04058 0.0102283 0)
(1.0479 0.0130549 0)
(1.05904 0.0154432 0)
(1.07563 0.0173546 0)
(1.09795 0.0188877 0)
(1.08697 0.0184039 0)
(0.914079 0.0116984 0)
(0.534591 0.0032639 0)
(0.10792 0.000184399 0)
(0.109216 -7.79248e-05 0)
(0.731939 -0.00389114 0)
(1.02291 -0.0101175 0)
(1.10716 -0.0125275 0)
(1.09483 -0.0111912 0)
(1.07446 -0.00897722 0)
(1.05989 -0.00656314 0)
(1.04959 -0.00375086 0)
(1.04261 -0.000346414 0)
(1.03883 0.00360767 0)
(1.03874 0.00738374 0)
(1.04245 0.0102387 0)
(1.04978 0.0122971 0)
(1.06113 0.0138118 0)
(1.07786 0.0151669 0)
(1.09879 0.0162917 0)
(1.07835 0.0152794 0)
(0.8906 0.00899474 0)
(0.516705 0.00240389 0)
(0.104015 0.000148478 0)
(0.107737 -1.75412e-05 0)
(0.718842 -0.00193872 0)
(1.01092 -0.0064384 0)
(1.10653 -0.00877859 0)
(1.09837 -0.00785794 0)
(1.07798 -0.00608892 0)
(1.06342 -0.00406756 0)
(1.05319 -0.00148618 0)
(1.04606 0.00152971 0)
(1.0419 0.00491359 0)
(1.0415 0.00798486 0)
(1.04496 0.010182 0)
(1.0519 0.0116223 0)
(1.06291 0.0125837 0)
(1.07976 0.013365 0)
(1.09886 0.0138246 0)
(1.06929 0.0121769 0)
(0.87128 0.00642664 0)
(0.504003 0.00161551 0)
(0.101184 0.000105574 0)
(0.107524 2.51892e-05 0)
(0.71138 -0.000504101 0)
(1.00128 -0.00341367 0)
(1.10495 -0.0057084 0)
(1.10065 -0.00542952 0)
(1.08071 -0.00408388 0)
(1.06619 -0.00221899 0)
(1.05596 0.000309585 0)
(1.04884 0.00324443 0)
(1.04445 0.00644672 0)
(1.04358 0.00921673 0)
(1.04643 0.0110481 0)
(1.05291 0.0121979 0)
(1.06358 0.0126812 0)
(1.08001 0.0127684 0)
(1.09709 0.0122888 0)
(1.05952 0.00979165 0)
(0.855793 0.00463052 0)
(0.495345 0.00114886 0)
(0.0992895 7.60588e-05 0)
(0.108163 6.58211e-05 0)
(0.708237 0.000333173 0)
(0.994332 -0.00117314 0)
(1.10269 -0.0029407 0)
(1.10207 -0.0027848 0)
(1.08304 -0.0016989 0)
(1.06887 -4.5596e-06 0)
(1.05866 0.00240725 0)
(1.05124 0.00526731 0)
(1.04639 0.00832409 0)
(1.04499 0.0108779 0)
(1.04739 0.0122549 0)
(1.05341 0.0126646 0)
(1.06347 0.0125533 0)
(1.07921 0.0122001 0)
(1.09381 0.0112486 0)
(1.04957 0.00833397 0)
(0.843497 0.00388582 0)
(0.488702 0.00105493 0)
(0.097836 7.07941e-05 0)
(0.109262 8.24071e-05 0)
(0.707788 0.000796182 0)
(0.990579 0.000239314 0)
(1.1013 -0.000618917 0)
(1.10352 -0.000209571 0)
(1.08545 0.000968931 0)
(1.07162 0.00269606 0)
(1.0616 0.0050939 0)
(1.05413 0.0078258 0)
(1.04894 0.0106424 0)
(1.04675 0.0128055 0)
(1.0482 0.0136859 0)
(1.05329 0.0136643 0)
(1.06268 0.0130239 0)
(1.07783 0.0121296 0)
(1.08997 0.0107966 0)
(1.04033 0.00792166 0)
(0.833066 0.00402547 0)
(0.482225 0.00119488 0)
(0.0963313 8.40023e-05 0)
(0.11067 9.90339e-05 0)
(0.708572 0.00114254 0)
(0.989259 0.00104486 0)
(1.10153 0.000997134 0)
(1.10569 0.00216853 0)
(1.08807 0.00376124 0)
(1.07415 0.00585895 0)
(1.06402 0.00828082 0)
(1.0562 0.0109612 0)
(1.05042 0.0135238 0)
(1.0474 0.015177 0)
(1.04808 0.0155509 0)
(1.05252 0.0150359 0)
(1.06109 0.0140674 0)
(1.07566 0.0129038 0)
(1.086 0.0113952 0)
(1.03196 0.00868622 0)
(0.822561 0.00464202 0)
(0.474883 0.00142328 0)
(0.0945117 0.000108015 0)
(0.112439 0.000122234 0)
(0.710482 0.00164573 0)
(0.988889 0.00181663 0)
(1.10294 0.0018971 0)
(1.10917 0.00326148 0)
(1.09152 0.00528973 0)
(1.07738 0.00799243 0)
(1.06699 0.0110028 0)
(1.05878 0.0141511 0)
(1.05218 0.0170357 0)
(1.04814 0.0187151 0)
(1.04776 0.0189206 0)
(1.05127 0.0179901 0)
(1.05946 0.0166844 0)
(1.07335 0.0153159 0)
(1.08195 0.0137947 0)
(1.02259 0.0102588 0)
(0.810453 0.00528643 0)
(0.466479 0.00165799 0)
(0.0922773 0.000135634 0)
(0.114765 0.000155479 0)
(0.7141 0.00238458 0)
(0.988626 0.00315687 0)
(1.10402 0.0028182 0)
(1.11258 0.00372747 0)
(1.09573 0.00583108 0)
(1.08143 0.00914253 0)
(1.07073 0.0131464 0)
(1.06191 0.0174252 0)
(1.05423 0.0213383 0)
(1.04892 0.023791 0)
(1.04735 0.0244663 0)
(1.04973 0.0238687 0)
(1.05694 0.0223993 0)
(1.07044 0.0203729 0)
(1.07579 0.0173418 0)
(1.0098 0.011778 0)
(0.7967 0.00578876 0)
(0.457169 0.00189739 0)
(0.0896098 0.000163617 0)
(0.11788 0.000204897 0)
(0.720639 0.00345854 0)
(0.989316 0.00535684 0)
(1.10361 0.00465495 0)
(1.11532 0.00509391 0)
(1.10029 0.00703258 0)
(1.08659 0.0110081 0)
(1.07585 0.0162112 0)
(1.0662 0.0217367 0)
(1.05715 0.0267456 0)
(1.05036 0.029959 0)
(1.04739 0.0309478 0)
(1.04832 0.0303381 0)
(1.05383 0.0284955 0)
(1.06508 0.0253866 0)
(1.06491 0.0200908 0)
(0.993562 0.01275 0)
(0.782108 0.00633646 0)
(0.446911 0.00219112 0)
(0.0864808 0.000194228 0)
(0.122115 0.000280829 0)
(0.731074 0.00487141 0)
(0.99283 0.0081737 0)
(1.10259 0.00869492 0)
(1.11743 0.00867206 0)
(1.10513 0.0108005 0)
(1.09302 0.0156673 0)
(1.08209 0.0217933 0)
(1.0713 0.0281109 0)
(1.06052 0.0336102 0)
(1.05182 0.0367601 0)
(1.04711 0.0372404 0)
(1.04625 0.035836 0)
(1.0496 0.0330959 0)
(1.05629 0.0284454 0)
(1.05028 0.0215203 0)
(0.976185 0.0135785 0)
(0.767105 0.00714973 0)
(0.43532 0.00256931 0)
(0.0828246 0.000228152 0)
(0.127851 0.000381636 0)
(0.746164 0.00659226 0)
(1.00086 0.0116577 0)
(1.10429 0.0140231 0)
(1.11987 0.0151753 0)
(1.11117 0.0185143 0)
(1.10026 0.0239794 0)
(1.08889 0.0305365 0)
(1.07665 0.0370516 0)
(1.06368 0.0422384 0)
(1.05262 0.0444477 0)
(1.04575 0.0435882 0)
(1.04277 0.0406014 0)
(1.0432 0.0362485 0)
(1.04519 0.0302566 0)
(1.03469 0.0228173 0)
(0.959283 0.0150892 0)
(0.751063 0.00844486 0)
(0.421715 0.00309647 0)
(0.0785131 0.000273068 0)
(0.135536 0.000521795 0)
(0.766457 0.00884403 0)
(1.01443 0.0158734 0)
(1.11106 0.0204014 0)
(1.12548 0.0238233 0)
(1.11861 0.0288741 0)
(1.1082 0.0352554 0)
(1.09593 0.0422004 0)
(1.08174 0.0485778 0)
(1.06606 0.0529031 0)
(1.05213 0.0534804 0)
(1.04263 0.0506321 0)
(1.03719 0.0457527 0)
(1.03462 0.0396317 0)
(1.03303 0.0327251 0)
(1.01948 0.0252257 0)
(0.94253 0.0176002 0)
(0.73288 0.0102502 0)
(0.405396 0.0037715 0)
(0.0733731 0.000327218 0)
(0.145907 0.000738131 0)
(0.793123 0.0120966 0)
(1.03425 0.0213913 0)
(1.12333 0.0281501 0)
(1.13544 0.0341054 0)
(1.1283 0.0412528 0)
(1.11713 0.0490422 0)
(1.10307 0.0566226 0)
(1.08624 0.0628121 0)
(1.06724 0.065984 0)
(1.04993 0.0645627 0)
(1.03752 0.059482 0)
(1.02945 0.0525721 0)
(1.02425 0.0448752 0)
(1.0201 0.0370873 0)
(1.00427 0.0292904 0)
(0.924583 0.0211593 0)
(0.711603 0.012519 0)
(0.385777 0.00454937 0)
(0.0672441 0.000383393 0)
(0.160212 0.00108056 0)
(0.827992 0.0169219 0)
(1.06115 0.0289606 0)
(1.14133 0.0380926 0)
(1.15005 0.0468531 0)
(1.1409 0.0564389 0)
(1.12741 0.0659424 0)
(1.11038 0.0743032 0)
(1.08999 0.0802023 0)
(1.06698 0.081936 0)
(1.04583 0.0782491 0)
(1.0303 0.0708127 0)
(1.01956 0.061815 0)
(1.01209 0.0525348 0)
(1.00595 0.04368 0)
(0.98791 0.0351339 0)
(0.903922 0.0258485 0)
(0.685843 0.0153513 0)
(0.362104 0.0054997 0)
(0.0600357 0.000450661 0)
(0.180637 0.00169397 0)
(0.874208 0.024568 0)
(1.09691 0.0402469 0)
(1.16568 0.0520434 0)
(1.16957 0.0641686 0)
(1.15662 0.0762749 0)
(1.13913 0.0873913 0)
(1.11772 0.0962154 0)
(1.09275 0.101366 0)
(1.06504 0.101177 0)
(1.03971 0.0948561 0)
(1.02089 0.0848765 0)
(1.00751 0.0737228 0)
(0.997919 0.0627152 0)
(0.989943 0.0525106 0)
(0.969311 0.0427654 0)
(0.879188 0.0317241 0)
(0.654541 0.0188282 0)
(0.333803 0.00662124 0)
(0.0516517 0.000517986 0)
(0.210485 0.00307553 0)
(0.937585 0.0379679 0)
(1.14348 0.0591898 0)
(1.19708 0.0736543 0)
(1.19369 0.0894676 0)
(1.1748 0.103467 0)
(1.1515 0.115219 0)
(1.1244 0.123482 0)
(1.094 0.12695 0)
(1.06112 0.124045 0)
(1.03138 0.114552 0)
(1.0092 0.101765 0)
(0.993223 0.0883398 0)
(0.981531 0.0754667 0)
(0.971579 0.0637074 0)
(0.947437 0.0524821 0)
(0.849004 0.039091 0)
(0.616624 0.0230664 0)
(0.30105 0.0079704 0)
(0.042389 0.00057816 0)
(0.251718 0.00948416 -2.10953e-21)
(1.0214 0.0650585 -1.56451e-21)
(1.19854 0.0918591 4.09842e-22)
(1.23377 0.109364 0)
(1.2197 0.126683 -2.43771e-36)
(1.19323 0.14056 6.75601e-23)
(1.16302 0.151156 -3.15734e-22)
(1.12943 0.157513 0)
(1.09296 0.15834 1.07601e-35)
(1.05442 0.152108 -7.96256e-22)
(1.01983 0.139144 0)
(0.993866 0.123474 -1.12288e-21)
(0.97489 0.107791 -3.42592e-21)
(0.960663 0.0931577 -1.65536e-21)
(0.948126 0.0800359 -5.19555e-22)
(0.919864 0.0675921 -3.14257e-22)
(0.810133 0.0512024 0)
(0.568715 0.0304715 2.25302e-22)
(0.263276 0.0115833 2.67523e-22)
(0.0338126 0.00129268 4.80487e-21)
(0.278541 0.0253499 -4.32842e-21)
(1.09045 0.10861 1.03293e-22)
(1.24492 0.139626 -2.31136e-22)
(1.26679 0.158507 0)
(1.24302 0.174364 2.54635e-22)
(1.20921 0.186534 4.51454e-23)
(1.17211 0.195272 -2.28672e-22)
(1.13187 0.199475 -1.45675e-21)
(1.08883 0.197772 0)
(1.04372 0.188516 3.38012e-21)
(1.00315 0.17247 3.70023e-21)
(0.972155 0.154264 1.18259e-21)
(0.948944 0.136606 4.63665e-21)
(0.931014 0.120311 6.79824e-21)
(0.914377 0.105661 0)
(0.879354 0.0912505 1.00674e-20)
(0.762247 0.0716788 1.46961e-20)
(0.52008 0.0454296 1.64585e-20)
(0.234084 0.0198701 -1.90064e-20)
(0.028411 0.0024325 -3.55996e-22)
(0.277255 0.0417393 0)
(1.13239 0.165038 -1.38333e-21)
(1.27833 0.199115 0)
(1.29228 0.217634 2.0745e-21)
(1.26127 0.229938 0)
(1.2211 0.238741 7.90034e-22)
(1.17769 0.244277 3.17289e-22)
(1.13129 0.2453 -2.29619e-21)
(1.08218 0.240365 -3.15219e-22)
(1.03089 0.227778 1.65481e-21)
(0.984769 0.208705 8.60759e-21)
(0.949239 0.18828 -6.09128e-23)
(0.922242 0.169179 -3.48039e-21)
(0.900987 0.151934 -6.72547e-21)
(0.881342 0.136598 8.14112e-21)
(0.844414 0.121236 -1.46381e-20)
(0.732828 0.0982911 -2.00281e-21)
(0.506249 0.0667032 0)
(0.240242 0.0318883 1.29578e-23)
(0.0326448 0.00455439 0)
(0.269273 0.0556315 -3.54503e-20)
(1.15329 0.224874 1.4445e-20)
(1.29959 0.263744 7.59367e-21)
(1.30899 0.281472 -1.40119e-21)
(1.27305 0.289881 2.11973e-21)
(1.22802 0.294771 -2.01399e-21)
(1.17951 0.296458 5.00221e-22)
(1.12781 0.293758 0)
(1.07335 0.285161 -6.71557e-21)
(1.01661 0.268972 0)
(0.965546 0.246816 -4.41677e-21)
(0.926145 0.22436 -6.14161e-21)
(0.896051 0.204031 -3.90584e-21)
(0.872326 0.186169 -5.01606e-21)
(0.850839 0.17031 0)
(0.814563 0.154156 0)
(0.713874 0.129083 -1.34737e-20)
(0.508033 0.0923562 2.69681e-21)
(0.254928 0.047052 -1.56952e-21)
(0.0388889 0.00759059 -1.85729e-21)
(0.261072 0.0680787 2.65829e-20)
(1.16094 0.284353 0)
(1.3116 0.329839 -2.15435e-20)
(1.31804 0.346477 -5.37467e-21)
(1.27855 0.351253 -3.89524e-21)
(1.22994 0.352259 0)
(1.17746 0.350059 -1.944e-22)
(1.12148 0.343499 2.17302e-21)
(1.06245 0.331114 3.01922e-21)
(1.00107 0.311163 8.36476e-21)
(0.945861 0.285871 0)
(0.903344 0.261321 -1.34148e-20)
(0.870928 0.239819 -8.54928e-21)
(0.845404 0.221343 -5.15258e-21)
(0.822842 0.205306 3.36343e-20)
(0.788139 0.188626 4.12913e-21)
(0.698116 0.16209 1.97205e-20)
(0.510698 0.119408 -9.51121e-20)
(0.26697 0.0637594 5.6676e-20)
(0.0440772 0.0109183 -6.91922e-20)
(0.253774 0.0792789 2.83377e-20)
(1.16035 0.34171 -5.17514e-21)
(1.31661 0.395194 3.83847e-21)
(1.32101 0.410919 1.02676e-20)
(1.27894 0.412341 6.12295e-21)
(1.22758 0.409656 3.39651e-22)
(1.17195 0.40374 9.56476e-23)
(1.11248 0.393427 1.79116e-21)
(1.04967 0.377273 -6.63371e-21)
(0.984331 0.353541 0)
(0.925696 0.325021 -5.78839e-21)
(0.880715 0.298231 -3.09223e-22)
(0.846651 0.275381 -9.57036e-21)
(0.820039 0.256204 0)
(0.797029 0.239906 -7.35095e-21)
(0.764167 0.222955 -1.78965e-20)
(0.682046 0.19533 4.94143e-20)
(0.508712 0.146451 -4.92268e-20)
(0.271812 0.0797066 7.019e-20)
(0.0469566 0.0140207 -7.39377e-20)
(0.247955 0.0897387 -1.07483e-22)
(1.15486 0.396359 6.40147e-21)
(1.31638 0.458497 1.8493e-20)
(1.31932 0.4737 -6.36295e-21)
(1.27527 0.47212 3.52501e-21)
(1.22177 0.466023 0)
(1.16363 0.456611 1.31106e-21)
(1.10122 0.442757 -1.54672e-21)
(1.0352 0.422943 -3.10338e-21)
(0.966431 0.395473 0)
(0.904873 0.363626 -5.70068e-21)
(0.857926 0.334412 -7.92378e-21)
(0.822698 0.309924 1.04811e-20)
(0.795511 0.289778 -6.68828e-21)
(0.772547 0.272856 -3.24313e-20)
(0.741509 0.255282 1.99303e-20)
(0.66557 0.225854 6.26158e-21)
(0.501528 0.170596 0)
(0.27051 0.0930367 -6.82699e-20)
(0.0474303 0.0164674 -2.53959e-21)
(0.243544 0.0997451 4.70216e-21)
(1.14654 0.448127 -7.40522e-21)
(1.31232 0.519185 -1.01472e-20)
(1.31412 0.534208 -1.95586e-20)
(1.26857 0.529969 1.73433e-20)
(1.21336 0.520794 -8.80175e-21)
(1.1531 0.508171 -2.73924e-21)
(1.08821 0.490988 -2.32984e-21)
(1.01936 0.467693 2.87916e-21)
(0.947572 0.436539 -2.05608e-20)
(0.883356 0.40126 -6.96497e-21)
(0.834651 0.3694 0)
(0.798593 0.342966 1.1471e-20)
(0.771204 0.321436 1.41646e-20)
(0.748571 0.303507 1.74264e-20)
(0.719116 0.284934 -2.17537e-20)
(0.647572 0.253162 -6.5512e-21)
(0.489713 0.191213 7.7768e-21)
(0.264503 0.103641 0)
(0.0463975 0.0182498 -5.53524e-21)
(0.240317 0.109395 -5.49303e-20)
(1.13685 0.497102 3.4065e-20)
(1.30557 0.577047 1.12138e-20)
(1.3063 0.592076 -1.50268e-20)
(1.25953 0.585495 1.04879e-20)
(1.20295 0.57358 -7.96407e-22)
(1.14095 0.558069 2.58772e-21)
(1.07392 0.537829 -9.51892e-22)
(1.00254 0.511262 -5.57044e-21)
(0.927934 0.476547 3.90864e-23)
(0.861307 0.437791 -2.09072e-20)
(0.81114 0.402999 2.0136e-20)
(0.774369 0.37425 -1.28464e-20)
(0.746909 0.350931 1.59514e-20)
(0.724664 0.331656 0)
(0.69652 0.311709 -1.18153e-20)
(0.627901 0.276977 -2.25634e-22)
(0.474231 0.208466 -3.40257e-20)
(0.254691 0.111459 -5.04154e-21)
(0.0441382 0.0193035 0)
(0.238108 0.11887 0)
(1.12656 0.543524 3.71099e-20)
(1.29687 0.632027 2.63058e-20)
(1.29659 0.647161 1.70412e-20)
(1.24885 0.638499 1.00172e-20)
(1.19113 0.62417 0)
(1.12765 0.60608 2.94359e-21)
(1.05874 0.583072 -2.45227e-22)
(0.985068 0.553505 1.18624e-20)
(0.907867 0.515391 -2.56025e-21)
(0.838927 0.473123 -1.53159e-20)
(0.787286 0.435276 1.01211e-20)
(0.749775 0.403936 -3.98213e-22)
(0.722215 0.378479 1.68208e-20)
(0.700387 0.35747 1.09577e-20)
(0.673218 0.335695 -2.57163e-20)
(0.606404 0.29744 3.10945e-20)
(0.455736 0.222206 9.30403e-21)
(0.241987 0.116836 3.86215e-20)
(0.0409626 0.0196993 -1.04509e-19)
(0.236783 0.128272 -1.42204e-20)
(1.11621 0.587553 2.15173e-20)
(1.28687 0.684157 -1.65463e-20)
(1.28559 0.699411 -1.9919e-20)
(1.23702 0.688891 0)
(1.17836 0.672442 8.03707e-21)
(1.1136 0.652074 -8.30382e-21)
(1.04303 0.626597 1.10088e-21)
(0.967255 0.59432 0)
(0.887522 0.553006 -3.93721e-20)
(0.816115 0.507303 4.17664e-20)
(0.762862 0.466159 0)
(0.724647 0.431988 1.52055e-20)
(0.69697 0.404184 -3.98979e-22)
(0.675479 0.381111 -3.47085e-20)
(0.648926 0.357105 1.36655e-20)
(0.58302 0.314768 0)
(0.434712 0.232555 5.0408e-20)
(0.227039 0.119879 0)
(0.0372159 0.0194905 -4.97644e-20)
(0.236151 0.137617 1.5903e-20)
(1.10614 0.629343 2.46835e-20)
(1.27602 0.733458 -1.73563e-20)
(1.27373 0.74883 0)
(1.22446 0.736663 1.40506e-20)
(1.16499 0.718355 0)
(1.09915 0.695975 1.13977e-20)
(1.02709 0.668324 9.18273e-22)
(0.949312 0.633639 1.39465e-21)
(0.867008 0.589421 -1.94654e-20)
(0.793067 0.540358 4.08223e-21)
(0.738017 0.495893 0)
(0.69892 0.458597 -3.23737e-20)
(0.671051 0.428101 4.11616e-22)
(0.649785 0.402706 0)
(0.623515 0.376054 4.83905e-22)
(0.557685 0.328997 4.57666e-20)
(0.411172 0.239469 -4.40344e-20)
(0.210153 0.120489 1.30641e-20)
(0.0329735 0.0186624 0)
(0.235869 0.146786 0)
(1.09644 0.669045 2.77033e-20)
(1.26466 0.780024 2.04768e-20)
(1.26134 0.795479 -4.50852e-22)
(1.21149 0.781839 8.90575e-21)
(1.15136 0.761904 1.9068e-20)
(1.08454 0.737767 -3.60176e-21)
(1.01113 0.708225 -4.96043e-23)
(0.931457 0.671441 7.67736e-21)
(0.846615 0.624639 -3.04659e-20)
(0.76998 0.572449 -6.50444e-22)
(0.712866 0.524567 -1.33319e-20)
(0.67255 0.484 5.30396e-20)
(0.644334 0.450522 -4.89745e-22)
(0.623202 0.422438 -2.73359e-20)
(0.596884 0.392659 -4.99276e-20)
(0.530439 0.340249 0)
(0.385358 0.243112 0)
(0.191584 0.118588 1.42649e-20)
(0.0284115 0.0172629 -8.46583e-21)
(0.236054 0.155916 1.99119e-20)
(1.0873 0.70641 -6.0839e-20)
(1.25305 0.823946 -2.19842e-20)
(1.24871 0.839423 0)
(1.19837 0.824473 -3.18418e-22)
(1.13766 0.803117 2.31769e-20)
(1.07002 0.777457 -1.25722e-20)
(0.99538 0.7463 -3.86987e-21)
(0.913935 0.707739 8.41028e-21)
(0.826565 0.658723 -2.36615e-20)
(0.746978 0.603645 -3.54729e-20)
(0.687446 0.552463 3.55837e-20)
(0.645634 0.508374 0)
(0.616791 0.471589 -1.2305e-20)
(0.595657 0.440484 -2.99818e-20)
(0.568963 0.407031 -3.61538e-20)
(0.501219 0.348423 -4.38171e-20)
(0.357356 0.243354 1.31067e-20)
(0.17145 0.11406 -7.7175e-21)
(0.0235344 0.015293 7.9212e-23)
(0.236338 0.164786 0)
(1.07875 0.74204 0)
(1.24137 0.865316 5.3365e-22)
(1.23604 0.880752 0)
(1.18529 0.864644 -3.37732e-20)
(1.12411 0.842048 -2.06707e-20)
(1.05577 0.815075 0)
(0.98003 0.782563 -1.22717e-21)
(0.896917 0.742529 1.15247e-20)
(0.806987 0.691684 -5.43932e-20)
(0.724262 0.634087 0)
(0.661907 0.579712 -2.28313e-20)
(0.618125 0.531962 -5.99507e-22)
(0.588361 0.491533 -4.92322e-22)
(0.567061 0.456958 3.20195e-20)
(0.539669 0.419179 -8.32696e-23)
(0.470012 0.353512 -9.51004e-20)
(0.32706 0.240016 2.84893e-20)
(0.149901 0.106936 8.47742e-21)
(0.0184811 0.0128129 0)
(0.236672 0.17341 -7.37877e-20)
(1.07051 0.775895 -3.75346e-20)
(1.22975 0.904221 -5.55557e-20)
(1.22348 0.919569 7.6605e-20)
(1.1724 0.902422 -6.36396e-20)
(1.11084 0.878754 0)
(1.04192 0.850662 -1.1047e-20)
(0.965206 0.81703 2.21284e-21)
(0.88052 0.775823 7.64876e-22)
(0.78807 0.723541 4.26117e-21)
(0.70202 0.663851 4.46982e-20)
(0.636442 0.606546 -7.83407e-21)
(0.590108 0.555082 -3.28006e-20)
(0.558934 0.510609 -1.46098e-20)
(0.537252 0.47196 1.77916e-20)
(0.508925 0.428999 -6.21292e-23)
(0.436962 0.355222 2.60154e-20)
(0.294634 0.232867 -6.17568e-20)
(0.127484 0.0973856 7.36444e-20)
(0.0134854 0.00998633 1.08271e-20)
(0.236773 0.181715 2.72022e-20)
(1.06262 0.808055 -2.06133e-20)
(1.2183 0.940772 1.24873e-21)
(1.21114 0.955989 4.34991e-20)
(1.15981 0.937906 1.49727e-20)
(1.09796 0.913297 4.15473e-20)
(1.02858 0.884259 -5.01234e-21)
(0.951002 0.849715 1.09735e-20)
(0.864867 0.807623 -8.36585e-21)
(0.769964 0.754304 -3.01004e-20)
(0.680445 0.692993 0)
(0.611211 0.633131 -3.52067e-20)
(0.561726 0.57804 4.76309e-20)
(0.528425 0.529195 0)
(0.50593 0.485557 -3.81094e-20)
(0.476464 0.43609 2.35263e-20)
(0.402152 0.352976 -2.8108e-20)
(0.261146 0.2218 -3.37008e-20)
(0.105268 0.0859378 -5.98324e-20)
(0.00881635 0.00700394 -4.72696e-20)
(0.237145 0.189783 -3.00129e-20)
(1.05492 0.838506 2.20659e-20)
(1.20708 0.975043 5.22527e-20)
(1.19912 0.990098 5.99886e-20)
(1.14761 0.971184 -3.13807e-20)
(1.08555 0.94576 2.88776e-20)
(1.0158 0.915916 -1.5577e-20)
(0.937497 0.880662 1.41014e-20)
(0.850044 0.837949 -3.73739e-21)
(0.752785 0.783984 2.91782e-20)
(0.659707 0.721562 9.5535e-20)
(0.586464 0.659572 0)
(0.533126 0.601183 0)
(0.496732 0.547767 -1.69195e-20)
(0.472578 0.497935 0)
(0.441683 0.43983 5.11687e-20)
(0.365629 0.345607 6.12772e-20)
(0.227796 0.206316 0)
(0.0846355 0.0730281 0)
(0.00481417 0.00414017 5.1319e-20)
(0.23715 0.197319 3.32366e-20)
(1.04745 0.867249 2.66243e-20)
(1.19616 1.00715 3.76586e-20)
(1.18746 1.02202 -5.38082e-20)
(1.13584 1.00235 -3.5143e-20)
(1.07365 0.976215 -3.85287e-20)
(1.00364 0.945694 2.32302e-20)
(0.924744 0.909899 9.34625e-23)
(0.836114 0.866802 -9.89398e-22)
(0.736625 0.812558 -1.21284e-21)
(0.639987 0.749557 4.85565e-20)
(0.562418 0.685974 0)
(0.504615 0.624759 4.82355e-20)
(0.463893 0.566974 3.57891e-20)
(0.436496 0.509737 9.08418e-20)
(0.403223 0.439604 2.76547e-20)
(0.326866 0.3308 -3.36564e-20)
(0.197067 0.184265 -1.97785e-20)
(0.0697207 0.0585801 0)
(0.00246657 0.0017073 5.56475e-20)
(0.237449 0.204801 -7.34152e-20)
(1.04016 0.894396 0)
(1.18555 1.03717 4.22811e-20)
(1.1762 1.05185 -4.4249e-20)
(1.12455 1.03151 4.00083e-20)
(1.06229 1.00474 5.66053e-20)
(0.992146 0.973645 -5.43527e-20)
(0.912767 0.937461 3.5672e-22)
(0.823103 0.894187 0)
(0.721559 0.839985 -2.80298e-20)
(0.621439 0.776953 -1.01385e-19)
(0.539324 0.712366 4.86084e-21)
(0.476545 0.648937 6.58161e-20)
(0.430179 0.587457 0)
(0.397058 0.522135 6.14743e-20)
(0.358791 0.435894 0)
(0.282393 0.305513 0)
(0.170173 0.146632 -2.19223e-20)
(0.0794403 0.0306768 0)
(0.0236457 0.00596813 1.5003e-20)
(0.237284 0.211648 -8.05406e-20)
(1.03307 0.920248 0)
(1.17522 1.06529 6.8724e-20)
(1.1653 1.07979 0)
(1.1137 1.05889 -2.18344e-20)
(1.05142 1.03162 0)
(0.981234 1.00007 -4.1238e-21)
(0.901473 0.963679 -2.56477e-21)
(0.810904 0.92047 2.42398e-22)
(0.707435 0.866651 -2.81004e-20)
(0.603938 0.804187 2.70471e-21)
(0.517053 0.739282 4.01656e-20)
(0.448753 0.674266 6.39021e-20)
(0.395316 0.610202 9.07902e-21)
(0.353083 0.537228 4.82859e-20)
(0.304852 0.431616 0)
(0.221171 0.271976 7.32562e-20)
(0.119522 0.0849884 -4.33993e-20)
(0.0397236 0.0622645 5.01152e-20)
(-0.035598 0.429328 -5.94484e-20)
(0.237084 0.218252 6.58535e-20)
(1.02595 0.944661 1.02169e-19)
(1.16513 1.09183 0)
(1.15465 1.10629 1.06451e-21)
(1.10312 1.08508 5.95015e-20)
(1.0408 1.05752 -1.10505e-19)
(0.970625 1.02576 -2.42487e-20)
(0.890494 0.989486 0)
(0.799039 0.94674 -2.91314e-21)
(0.693645 0.89386 -9.52961e-22)
(0.586652 0.832746 0)
(0.494533 0.768537 0)
(0.420039 0.702503 5.62171e-20)
(0.35814 0.637145 -2.83677e-20)
(0.302372 0.558686 -4.83729e-20)
(0.237788 0.43336 0)
(0.123617 0.254041 3.76789e-20)
(0.018764 0.450834 -4.41311e-20)
(0.0413755 1.86189 -2.40992e-20)
(0.0697834 2.79029 -2.96568e-20)
(0.236539 0.224257 -4.84992e-20)
(1.01889 0.967812 -1.29457e-19)
(1.15527 1.11679 3.98977e-20)
(1.14426 1.13121 3.80227e-20)
(1.09289 1.10987 0)
(1.0305 1.08218 -7.9413e-20)
(0.960503 1.05041 -4.09255e-20)
(0.879996 1.01445 1.77471e-21)
(0.787753 0.972476 -3.51991e-22)
(0.680544 0.920989 2.22958e-20)
(0.57016 0.861878 4.58909e-20)
(0.472752 0.799696 4.17385e-20)
(0.391617 0.733133 5.54013e-20)
(0.320968 0.666702 -6.49401e-20)
(0.251524 0.588822 -7.18963e-20)
(0.15863 0.465745 0)
(0.0611825 0.847301 0)
(0.109369 2.5344 1.9798e-20)
(0.11308 3.18402 0)
(0.1134 3.37935 4.99078e-20)
(0.238743 0.229856 0)
(1.01212 0.990003 0)
(1.14535 1.14003 0)
(1.13393 1.15435 1.06463e-20)
(1.08275 1.13305 5.34703e-20)
(1.0203 1.10544 -6.09508e-20)
(0.950792 1.0739 -2.94451e-20)
(0.86991 1.03846 2.04755e-21)
(0.776982 0.997508 -1.01631e-20)
(0.668123 0.947869 -2.10209e-21)
(0.554545 0.891369 8.38063e-20)
(0.45211 0.83265 -4.90362e-21)
(0.363874 0.766682 6.30542e-21)
(0.285707 0.695769 9.2946e-21)
(0.198123 0.626319 3.79812e-22)
(0.122433 0.986065 3.21366e-22)
(0.153686 2.68396 -1.00205e-19)
(0.165219 3.28579 -3.79014e-20)
(0.150941 3.42407 1.86227e-20)
(0.135535 3.44655 -1.99146e-20)
(0.160865 0.174713 2.87759e-20)
(1.00059 1.01409 0)
(1.13535 1.1618 -7.85776e-20)
(1.12409 1.17606 -9.89938e-20)
(1.0731 1.15511 1.11606e-19)
(1.01085 1.12774 6.47246e-20)
(0.941284 1.09628 3.48064e-20)
(0.860259 1.06154 -3.64207e-20)
(0.766852 1.02182 1.18432e-20)
(0.656679 0.974426 0)
(0.540266 0.921034 3.68857e-20)
(0.433215 0.86683 -3.14848e-20)
(0.337495 0.805687 0)
(0.253364 0.729664 8.42737e-21)
(0.170876 0.86486 2.0808e-20)
(0.169083 2.4455 -2.47327e-20)
(0.229777 3.32269 2.82168e-20)
(0.20746 3.44242 1.41012e-20)
(0.171776 3.46309 1.63164e-20)
(0.148432 3.47224 2.23064e-20)
(0.272694 0.266716 -5.63244e-20)
(0.982413 1.02277 0)
(1.11711 1.1863 8.17552e-20)
(1.11052 1.20851 1.03892e-19)
(1.05775 1.18787 -1.16325e-19)
(0.995271 1.16103 -6.97698e-20)
(0.924912 1.1309 -5.40756e-20)
(0.843483 1.09742 -2.69141e-21)
(0.749047 1.05999 -1.84256e-20)
(0.636596 1.01678 5.33648e-21)
(0.515653 0.969855 1.49425e-21)
(0.401562 0.924296 2.44284e-20)
(0.290406 0.877584 5.19692e-21)
(0.227988 1.01461 -7.46247e-21)
(0.240645 2.30323 -1.7517e-20)
(0.298464 3.33063 1.4289e-20)
(0.284277 3.4779 -1.39196e-20)
(0.246488 3.49719 -8.11107e-21)
(0.208635 3.52188 -2.73967e-21)
(0.157907 3.51447 -6.37646e-22)
(0.262208 0.265095 0)
(0.979209 1.0446 2.16307e-20)
(1.10891 1.20897 -1.61805e-20)
(1.10062 1.23102 -1.15872e-20)
(1.04798 1.21038 -7.64257e-20)
(0.98572 1.18377 6.80887e-20)
(0.915188 1.15388 3.6504e-20)
(0.833804 1.12126 -2.84996e-21)
(0.739219 1.08538 2.33547e-20)
(0.626067 1.04515 -2.98255e-21)
(0.50326 1.00314 -4.89355e-20)
(0.386091 0.96373 3.47027e-21)
(0.280115 0.949027 -4.5216e-21)
(0.266502 1.49316 -6.15989e-21)
(0.33737 3.08873 3.74724e-21)
(0.359969 3.47906 5.13613e-22)
(0.314514 3.53669 4.33823e-21)
(0.276778 3.556 -2.59749e-21)
(0.226941 3.57683 1.01859e-20)
(0.170073 3.57102 3.0539e-21)
(0.247555 0.262297 5.3602e-20)
(0.974924 1.06877 1.45029e-19)
(1.10019 1.23354 -4.61386e-20)
(1.09036 1.25504 -4.39416e-20)
(1.03788 1.23427 0)
(0.975832 1.20766 9.99706e-20)
(0.905392 1.17803 5.58688e-20)
(0.824321 1.14619 -3.02633e-21)
(0.729915 1.11191 2.40961e-21)
(0.616597 1.07483 8.90256e-21)
(0.492781 1.03815 -1.58329e-20)
(0.374954 1.00626 -2.39458e-20)
(0.287735 1.07831 -2.96934e-20)
(0.334747 2.16106 3.21021e-20)
(0.423781 3.38846 1.86105e-20)
(0.404013 3.54735 0)
(0.349712 3.58391 0)
(0.310018 3.62098 9.71611e-21)
(0.253464 3.67325 0)
(0.180188 3.64843 2.36493e-20)
(0.236937 0.263295 -7.81442e-20)
(0.968558 1.0936 -1.20503e-19)
(1.09011 1.25925 0)
(1.07898 1.27992 1.24949e-21)
(1.02668 1.25875 -7.44548e-20)
(0.964957 1.23203 1.48725e-19)
(0.894935 1.20264 3.77062e-20)
(0.814417 1.17149 -3.84261e-21)
(0.720464 1.13874 2.73693e-20)
(0.607421 1.10475 -1.27035e-21)
(0.483385 1.07356 0)
(0.367736 1.05232 0)
(0.318526 1.30681 -2.15485e-20)
(0.418761 2.83531 7.13438e-21)
(0.498596 3.50727 1.04661e-21)
(0.44622 3.58806 0)
(0.401055 3.64163 2.77405e-20)
(0.349679 3.69881 -4.30901e-20)
(0.297242 3.6714 -4.03583e-20)