/*--------------------------------*- C++ -*----------------------------------*\
  =========                 |
  \\      /  F ield         | OpenFOAM: The Open Source CFD Toolbox
   \\    /   O peration     | Website:  https://openfoam.org
    \\  /    A nd           | Version:  6
     \\/     M anipulation  |
\*---------------------------------------------------------------------------*/
FoamFile
{
    version     2.0;
    format      ascii;
    class       surfaceScalarField;
    location    "37.8";
    object      phi;
}
// * * * * * * * * * * * * * * * * * * * * * * * * * * * * * * * * * * * * * //

dimensions      [0 3 -1 0 0 0 0];

internalField   nonuniform List<scalar> 
17370
(
-0.0900015
0.0898506
0.289162
-0.0714644
0.0537544
0.364485
-0.0381212
0.0276918
0.426598
-0.0196382
0.0146026
0.504287
-0.0107568
0.00826282
0.601896
-0.00626087
0.00488634
0.720432
-0.00373044
0.00290088
0.863736
-0.00217216
0.00162243
1.036
-0.00111247
0.000702863
1.24291
-0.000296696
-9.33217e-05
1.49158
0.000469542
-0.000873882
1.4916
0.00126817
-0.00175864
1.24318
0.00229291
-0.00300901
1.03635
0.0038313
-0.00498188
0.864057
0.00635116
-0.00834582
0.721052
0.0108324
-0.0146705
0.603053
0.0196998
-0.0277469
0.507486
0.0381706
-0.053796
0.431794
0.0714979
-0.0898726
0.36515
0.0900141
0.198997
-0.12813
0.0882153
0.0399144
-0.364592
0.353365
-0.0746858
0.085913
-0.446473
0.454311
-0.0844148
0.0765771
-0.521186
0.529893
-0.0684833
0.0597762
-0.612781
0.621559
-0.0515902
0.0428125
-0.726886
0.734149
-0.035354
0.0280903
-0.86747
0.872565
-0.0225008
0.017405
-1.03847
1.0419
-0.0136143
0.0101821
-1.24459
1.24702
-0.00758109
0.00515478
-1.49263
1.4946
-0.00321331
0.00124561
-1.4925
1.49421
0.000430967
-0.00214667
-1.24398
1.24587
0.00404676
-0.00593126
-1.03751
1.04005
0.00829497
-0.0108381
-0.866102
0.869848
0.0142114
-0.0179566
-0.724395
0.729948
0.0230107
-0.028564
-0.608705
0.616123
0.0357861
-0.0432043
-0.514904
0.523052
0.0519379
-0.060086
-0.439861
0.447925
0.0687545
-0.0768186
-0.375301
0.376753
0.0846244
-0.0860763
-0.25734
0.222501
0.0747973
-0.0399582
-0.068499
0.0586679
0.0098311
-0.051846
0.0584416
-0.374107
0.367511
-0.0575342
0.0537878
-0.453581
0.457327
-0.0487
0.044749
-0.527928
0.531879
-0.040909
0.0372707
-0.621541
0.625179
-0.0331734
0.0291109
-0.735326
0.739388
-0.024567
0.0204373
-0.874314
0.878444
-0.0161248
0.0124553
-1.04346
1.04713
-0.00874177
0.00558488
-1.24854
1.2517
-0.00227186
-0.000797314
-1.49666
1.49973
0.00384038
-0.00709283
-1.49722
1.50047
0.0101666
-0.0137733
-1.25008
1.25369
0.0173445
-0.0215546
-1.04594
1.05015
0.0256008
-0.0300624
-0.877782
0.882244
0.0340525
-0.0380702
-0.739926
0.743944
0.0416356
-0.0453974
-0.6268
0.630562
0.0492826
-0.0543084
-0.534833
0.539859
0.0579918
-0.0588201
-0.457497
0.458326
0.0521353
-0.0319601
-0.33579
0.315614
0.0098791
-0.0683726
0.0584935
-0.05291
0.0489082
0.00400172
-0.0332068
0.0437722
-0.358059
0.347494
-0.0474873
0.0468725
-0.459251
0.459866
-0.0438281
0.0404851
-0.535765
0.539108
-0.0367239
0.0334333
-0.628485
0.631775
-0.0300166
0.0270109
-0.742602
0.745608
-0.0237839
0.0207012
-0.881963
0.885045
-0.0171909
0.0138272
-1.05071
1.05407
-0.0100565
0.00653961
-1.25511
1.25863
-0.00259904
-0.00117434
-1.50321
1.50698
0.00492119
-0.00878389
-1.50414
1.508
0.0121925
-0.0158197
-1.25745
1.26108
0.019039
-0.0223922
-1.05397
1.05732
0.0253451
-0.0284472
-0.885748
0.88885
0.0313486
-0.0346538
-0.747218
0.750523
0.0378416
-0.0414925
-0.634367
0.638018
0.0447416
-0.0476824
-0.544185
0.547126
0.0481913
-0.0443293
-0.456634
0.452772
0.0335914
-0.0161822
-0.296285
0.278875
0.0040601
-0.0526852
0.0486251
-0.0458223
0.0433199
0.00250236
-0.0228582
0.0332637
-0.336777
0.326372
-0.0391075
0.0401376
-0.45953
0.4585
-0.0389571
0.0366748
-0.541804
0.544086
-0.0340108
0.0314217
-0.634799
0.637388
-0.0283761
0.025507
-0.74864
0.751509
-0.022292
0.0193503
-0.88799
0.890931
-0.0161032
0.0130503
-1.05718
1.06023
-0.00956699
0.00619079
-1.26207
1.26544
-0.00225449
-0.00160986
-1.51085
1.51472
0.00544195
-0.00927419
-1.5119
1.51573
0.0125091
-0.0157999
-1.26453
1.26782
0.0186607
-0.0216982
-1.06043
1.06347
0.0244616
-0.0275025
-0.891919
0.89496
0.0302267
-0.0331208
-0.753747
0.756641
0.0355727
-0.0380907
-0.641106
0.643624
0.0402488
-0.0412709
-0.548954
0.549976
0.0400795
-0.0340034
-0.447531
0.441455
0.023348
-0.0101855
-0.263707
0.250544
0.00257376
-0.045477
0.0429032
-0.0412355
0.0394603
0.00177523
-0.0168051
0.0260904
-0.316483
0.307198
-0.0327321
0.0348994
-0.456872
0.454705
-0.034502
0.0328501
-0.546042
0.547694
-0.0306879
0.0286151
-0.639667
0.641739
-0.0262181
0.0238618
-0.75413
0.756486
-0.0210538
0.0183058
-0.893798
0.896546
-0.0151101
0.0120793
-1.06324
1.06627
-0.00863534
0.00535827
-1.26873
1.27201
-0.00157565
-0.00211701
-1.51848
1.52217
0.00576294
-0.00941117
-1.51947
1.52311
0.0125114
-0.0157175
-1.27108
1.27429
0.0185084
-0.0214332
-1.0665
1.06942
0.0239464
-0.0265206
-0.897789
0.900363
0.0286836
-0.030884
-0.759116
0.761317
0.0327839
-0.0347612
-0.645816
0.647794
0.0362352
-0.0364175
-0.550533
0.550715
0.0340051
-0.0270286
-0.434849
0.427872
0.0174108
-0.00734167
-0.239079
0.22901
0.00186178
-0.0407426
0.0388808
-0.0379288
0.0365909
0.00133792
-0.0128486
0.020831
-0.298568
0.290585
-0.0276204
0.0305727
-0.452105
0.449152
-0.0308034
0.0297088
-0.54908
0.550175
-0.0277408
0.0258541
-0.643726
0.645613
-0.023698
0.0216132
-0.758695
0.760779
-0.0191663
0.0167478
-0.899095
0.901514
-0.0138759
0.0110612
-1.06917
1.07199
-0.00776605
0.0045772
-1.27522
1.27841
-0.000871562
-0.00273356
-1.52579
1.5294
0.0062819
-0.00981797
-1.52671
1.53025
0.0127756
-0.0157622
-1.27744
1.28043
0.018266
-0.0207877
-1.07219
1.07471
0.0229012
-0.0250458
-0.902688
0.904833
0.026885
-0.0287947
-0.763319
0.765229
0.0304669
-0.0322164
-0.649631
0.65138
0.0330601
-0.0325349
-0.550549
0.550024
0.0292382
-0.0219958
-0.420708
0.413466
0.0135899
-0.00565869
-0.220114
0.212183
0.00144278
-0.0372566
0.0358138
-0.0354202
0.0343865
0.00103369
-0.0100523
0.0168053
-0.283241
0.276488
-0.0233361
0.0267504
-0.445946
0.442531
-0.0275661
0.0268912
-0.551048
0.551723
-0.0251549
0.0233994
-0.647474
0.64923
-0.0213813
0.0194298
-0.762805
0.764757
-0.0171411
0.0148904
-0.903778
0.906029
-0.0122313
0.0096146
-1.07462
1.07724
-0.0065318
0.00351783
-1.28148
1.28449
1.39855e-05
-0.00345705
-1.53293
1.53637
0.00683044
-0.0101525
-1.5337
1.53703
0.0128824
-0.0155862
-1.2833
1.286
0.0178222
-0.0200529
-1.07708
1.07931
0.0219273
-0.0238398
-0.906822
0.908734
0.0254825
-0.0271924
-0.767012
0.768722
0.0286831
-0.0301216
-0.653017
0.654456
0.0304792
-0.0292527
-0.549171
0.547944
0.0253645
-0.0182404
-0.406262
0.399138
0.010958
-0.00453276
-0.205077
0.198652
0.00116124
-0.0345305
0.0333692
-0.0334778
0.0326711
0.000806662
-0.0079709
0.0136456
-0.270301
0.264626
-0.019688
0.023306
-0.438995
0.435377
-0.0246224
0.024229
-0.552276
0.552669
-0.0228068
0.0211999
-0.650951
0.652558
-0.0193024
0.0174413
-0.766679
0.76854
-0.0152344
0.0130572
-0.908198
0.910375
-0.010499
0.00800652
-1.07973
1.08222
-0.00509278
0.00224889
-1.28737
1.29021
0.00108545
-0.00433922
-1.53968
1.54293
0.00750559
-0.0105802
-1.54023
1.5433
0.0130785
-0.0155327
-1.28862
1.29107
0.0175636
-0.0195963
-1.08147
1.08351
0.0213014
-0.0230208
-0.910555
0.912274
0.0244788
-0.0259843
-0.7703
0.771806
0.0272657
-0.0283197
-0.655669
0.656723
0.0283142
-0.0264427
-0.546404
0.544532
0.0222012
-0.0154037
-0.392177
0.38538
0.00907439
-0.00373733
-0.192824
0.187487
0.000961236
-0.0323235
0.0313622
-0.0319626
0.0313326
0.00063004
-0.00635771
0.0111085
-0.259441
0.25469
-0.0165544
0.020166
-0.431763
0.428151
-0.0217909
0.0216011
-0.55299
0.55318
-0.0203822
0.0188139
-0.654183
0.655751
-0.0169783
0.015202
-0.770365
0.772141
-0.0131191
0.0110704
-0.912413
0.914462
-0.00864927
0.00627428
-1.08457
1.08694
-0.00348798
0.000774415
-1.29294
1.29565
0.00238067
-0.0054282
-1.54607
1.54912
0.00837238
-0.011212
-1.54627
1.54911
0.0135009
-0.0157175
-1.29343
1.29565
0.0175194
-0.0192893
-1.08542
1.08719
0.0207547
-0.0222359
-0.913877
0.915358
0.0235166
-0.0248719
-0.773214
0.77457
0.026049
-0.0267487
-0.65759
0.65829
0.0263994
-0.0240407
-0.54244
0.540081
0.0196294
-0.013245
-0.378804
0.37242
0.00769499
-0.00316135
-0.182594
0.17806
0.000816399
-0.0304863
0.0296699
-0.0307829
0.0302956
0.000487324
-0.00505101
0.00899845
-0.250366
0.246419
-0.0138019
0.0172759
-0.424616
0.421142
-0.0191215
0.01917
-0.5533
0.553251
-0.0181975
0.0167048
-0.657357
0.658849
-0.0149148
0.0131539
-0.773909
0.775669
-0.0110746
0.0090351
-0.916409
0.918448
-0.00664777
0.00433436
-1.08919
1.0915
-0.00165308
-0.000925299
-1.29824
1.30081
0.00389382
-0.00673269
-1.55202
1.55486
0.00944172
-0.0120225
-1.55183
1.55441
0.0140847
-0.0160827
-1.2978
1.2998
0.0177057
-0.0193009
-1.0889
1.0905
0.0206243
-0.0219631
-0.916763
0.918101
0.023106
-0.0242832
-0.775821
0.776998
0.0252545
-0.0255821
-0.658788
0.659115
0.0248744
-0.0220816
-0.537532
0.534739
0.0175894
-0.011618
-0.36626
0.360288
0.0066891
-0.00275121
-0.173859
0.169921
0.000716764
-0.0289165
0.0281997
-0.0298787
0.029514
0.000364677
-0.00394352
0.00717582
-0.242857
0.239625
-0.0113084
0.0145048
-0.417829
0.414632
-0.0164001
0.0166159
-0.553163
0.552948
-0.0157536
0.0143752
-0.660342
0.66172
-0.012624
0.0108838
-0.777411
0.779151
-0.00882511
0.00681521
-0.920379
0.922389
-0.00447915
0.00223298
-1.09369
1.09593
0.000357406
-0.00283711
-1.30327
1.30575
0.0056788
-0.0083708
-1.55758
1.56027
0.0109049
-0.0132704
-1.55688
1.55925
0.0151117
-0.0168551
-1.30171
1.30345
0.0182534
-0.0196146
-1.09202
1.09338
0.0207336
-0.0218579
-0.919364
0.920489
0.0228255
-0.0238281
-0.778078
0.77908
0.0245543
-0.0246193
-0.659293
0.659358
0.0235266
-0.0204178
-0.531812
0.528703
0.0159436
-0.0103712
-0.35455
0.348977
0.00593913
-0.00244949
-0.166244
0.162754
0.000643599
-0.027535
0.0268914
-0.0292126
0.0289572
0.000255333
-0.00296191
0.00554098
-0.236745
0.234166
-0.00900367
0.0118499
-0.411648
0.408802
-0.0136889
0.0139848
-0.552776
0.55248
-0.0131617
0.0118206
-0.663163
0.664504
-0.0100565
0.00831044
-0.780855
0.782601
-0.00626926
0.00429237
-0.924241
0.926218
-0.00200248
-0.000197434
-1.09804
1.10024
0.00272512
-0.00512777
-1.30812
1.31052
0.00783594
-0.0103452
-1.56284
1.56535
0.0126666
-0.0148056
-1.56151
1.56365
0.0164411
-0.0179478
-1.30514
1.30664
0.0191162
-0.0202176
-1.09466
1.09576
0.0211056
-0.0220058
-0.921522
0.922423
0.0227974
-0.023625
-0.779959
0.780787
0.0241262
-0.0239314
-0.659264
0.659069
0.0224951
-0.0191154
-0.525495
0.522116
0.014679
-0.00944766
-0.343614
0.338382
0.00540152
-0.00224201
-0.159464
0.156305
0.000596779
-0.0262872
0.0256904
-0.0287622
0.0286146
0.00014754
-0.00202919
0.0039806
-0.231926
0.229975
-0.00674936
0.00916322
-0.406214
0.4038
-0.010853
0.0111986
-0.552254
0.551909
-0.0104565
0.00918371
-0.665911
0.667183
-0.00742138
0.00563678
-0.784319
0.786104
-0.00353472
0.00150287
-0.928073
0.930105
0.000832649
-0.00304904
-1.10232
1.10454
0.00555212
-0.007883
-1.3128
1.31513
0.0104555
-0.0127907
-1.5677
1.57004
0.0148926
-0.0167666
-1.56564
1.56751
0.0181556
-0.0194025
-1.30807
1.30931
0.0203636
-0.0212676
-1.0968
1.0977
0.0219913
-0.022699
-0.923263
0.923971
0.0232915
-0.0238844
-0.781519
0.782112
0.0240316
-0.0235541
-0.658664
0.658187
0.0217662
-0.0181227
-0.518655
0.515012
0.0137244
-0.00877638
-0.333344
0.328396
0.00502662
-0.00210637
-0.153305
0.150385
0.000570013
-0.0251268
0.0245568
-0.0285237
0.0284853
3.83807e-05
-0.0011007
0.00242622
-0.228359
0.227033
-0.00446935
0.00636333
-0.401693
0.399799
-0.00776697
0.00805322
-0.551706
0.55142
-0.0073315
0.00609495
-0.668537
0.669773
-0.00431593
0.00248481
-0.78784
0.789671
-0.000316424
-0.00176762
-0.932008
0.934092
0.00413653
-0.00635228
-1.10662
1.10884
0.0088253
-0.011103
-1.31734
1.31962
0.0135924
-0.0158054
-1.57226
1.57447
0.0177356
-0.0193631
-1.56925
1.57088
0.0204946
-0.0214435
-1.31049
1.31143
0.0221178
-0.0227134
-1.09851
1.09911
0.0231612
-0.0235916
-0.924585
0.925015
0.0239642
-0.0243312
-0.782557
0.782924
0.0241783
-0.0233266
-0.657387
0.656535
0.0211815
-0.0173351
-0.511336
0.507489
0.0129977
-0.00829011
-0.323637
0.31893
0.00476894
-0.0020207
-0.147598
0.14485
0.000555757
-0.024016
0.0234603
-0.0285041
0.0285759
-7.18254e-05
-0.000134173
0.000827483
-0.226043
0.22535
-0.00212501
0.00344547
-0.398254
0.396934
-0.00446111
0.00457465
-0.551381
0.551268
-0.0037557
0.00243413
-0.671168
0.67249
-0.000561722
-0.00134328
-0.791443
0.793348
0.0035618
-0.00567137
-0.936004
0.938113
0.00806485
-0.0103073
-1.11092
1.11316
0.0128012
-0.0150603
-1.32178
1.32404
0.0174514
-0.0194929
-1.57653
1.57857
0.0211742
-0.0225223
-1.57235
1.5737
0.0233771
-0.0240062
-1.31227
1.3129
0.0243863
-0.024634
-1.09959
1.09984
0.0247634
-0.0248813
-0.925358
0.925476
0.0250301
-0.025121
-0.783062
0.783152
0.0247342
-0.0234742
-0.65534
0.65408
0.0209906
-0.0169256
-0.503663
0.499598
0.0125953
-0.00803784
-0.31439
0.309833
0.00465753
-0.00200073
-0.142204
0.139547
0.000560385
-0.0229284
0.022368
-0.028713
0.0289245
-0.000211511
0.000865066
-0.000875745
-0.225007
0.225018
0.000394177
0.00027866
-0.396
0.395327
-0.000834606
0.000743975
-0.551466
0.551556
0.000156102
-0.00154049
-0.673998
0.675382
0.00349222
-0.00550493
-0.795183
0.797195
0.00786987
-0.0101248
-0.940071
0.942326
0.0126679
-0.015014
-1.11528
1.11763
0.0175667
-0.0198299
-1.32618
1.32844
0.0221551
-0.0240473
-1.58046
1.58235
0.0255151
-0.0265638
-1.57488
1.57593
0.0271095
-0.0273754
-1.31341
1.31368
0.027424
-0.0273402
-1.09996
1.09988
0.027177
-0.0269751
-0.92548
0.925278
0.0268075
-0.0265083
-0.782895
0.782595
0.025794
-0.0240272
-0.65255
0.650783
0.0211349
-0.0168057
-0.495557
0.491228
0.0124454
-0.00797366
-0.305426
0.300955
0.00466446
-0.00203374
-0.136967
0.134336
0.00058032
-0.021826
0.0212457
-0.0292008
0.0295447
-0.000343977
0.00197126
-0.00266437
-0.225323
0.226016
0.00309292
-0.00319592
-0.395092
0.395195
0.00326617
-0.00367861
-0.552069
0.552482
0.00469212
-0.00616856
-0.676971
0.678447
0.00825419
-0.0104384
-0.799151
0.801336
0.0130268
-0.0154824
-0.944459
0.946915
0.0182193
-0.0207048
-1.11986
1.12235
0.023357
-0.0256434
-1.33059
1.33287
0.0279119
-0.0296514
-1.58408
1.58581
0.0308645
-0.0315536
-1.57676
1.57745
0.0317603
-0.0316352
-1.31381
1.31369
0.0313263
-0.0308611
-1.09964
1.09917
0.0303685
-0.0297974
-0.924894
0.924322
0.0292657
-0.0284992
-0.781876
0.781109
0.0273029
-0.0249384
-0.648794
0.64643
0.0216313
-0.0170393
-0.486969
0.482377
0.0125986
-0.00811777
-0.296617
0.292136
0.00479396
-0.00211729
-0.13176
0.129083
0.000613011
-0.0206816
0.0200686
-0.0299763
0.0305022
-0.000525894
0.00323934
-0.00471064
-0.227119
0.228591
0.00606458
-0.00701532
-0.395727
0.396678
0.00785905
-0.00876341
-0.553461
0.554365
0.010109
-0.0118303
-0.680227
0.681948
0.0141647
-0.0165627
-0.80345
0.805848
0.0193682
-0.0220087
-0.949194
0.951835
0.0249368
-0.0275784
-1.12469
1.12733
0.0303671
-0.0327189
-1.33504
1.33739
0.0349572
-0.0365498
-1.5874
1.58899
0.0374959
-0.0378059
-1.57791
1.57822
0.0376232
-0.037033
-1.31335
1.31276
0.0362699
-0.0353119
-1.09845
1.09749
0.034386
-0.0333731
-0.923475
0.922462
0.03248
-0.031183
-0.779869
0.778572
0.0294683
-0.0265353
-0.643948
0.641015
0.0227716
-0.0178105
-0.477865
0.472904
0.0131657
-0.00853631
-0.287749
0.28312
0.005083
-0.00226458
-0.126431
0.123612
0.000660605
-0.0194698
0.0188092
-0.0311256
0.0318762
-0.000750614
0.00474291
-0.00708856
-0.230515
0.232861
0.00947486
-0.0113145
-0.398057
0.399897
0.0129899
-0.014455
-0.555952
0.557417
0.0162356
-0.0182893
-0.684052
0.686106
0.0209832
-0.0237087
-0.808194
0.810919
0.0268694
-0.0298245
-0.95433
0.957285
0.0330769
-0.035979
-1.12986
1.13276
0.0389786
-0.041423
-1.33961
1.34206
0.0436071
-0.0449861
-1.59035
1.59173
0.0455839
-0.0454525
-1.57825
1.57812
0.04481
-0.0437247
-1.31191
1.31083
0.0424927
-0.0410116
-1.09622
1.09474
0.0396132
-0.0381029
-0.921098
0.919588
0.0367873
-0.0349442
-0.776793
0.77495
0.0326789
-0.0290713
-0.637992
0.634384
0.0247307
-0.0192671
-0.468011
0.462548
0.0142782
-0.00932354
-0.278536
0.273582
0.00558501
-0.00249472
-0.120774
0.117683
0.000726386
-0.0181599
0.0174335
-0.0327194
0.0337534
-0.00103404
0.00654363
-0.00989925
-0.235676
0.239032
0.0134693
-0.0163162
-0.402303
0.40515
0.0189197
-0.0210217
-0.559702
0.561804
0.0233173
-0.0257758
-0.688608
0.691066
0.0289306
-0.0321009
-0.813601
0.816771
0.0357613
-0.039158
-0.960127
0.963523
0.042854
-0.0460943
-1.13557
1.13881
0.0493725
-0.0519633
-1.34437
1.34696
0.0541703
-0.0553967
-1.59291
1.59413
0.0556765
-0.0550571
-1.57768
1.57706
0.0538943
-0.0522013
-1.30937
1.30768
0.0504328
-0.0483836
-1.09285
1.0908
0.0464849
-0.0444405
-0.917632
0.915587
0.0425596
-0.0400931
-0.772606
0.77014
0.0371481
-0.0327655
-0.630706
0.626324
0.0277594
-0.0216495
-0.45717
0.45106
0.0161193
-0.0105868
-0.268602
0.263069
0.00635724
-0.00283273
-0.114513
0.110989
0.000818562
-0.016713
0.0158944
-0.0348618
0.036274
-0.00141215
0.00884793
-0.0134227
-0.242832
0.247407
0.0183645
-0.0223678
-0.40874
0.412743
0.0260441
-0.0289522
-0.56498
0.567888
0.0319801
-0.0350549
-0.694107
0.697182
0.0388897
-0.0426766
-0.819923
0.823709
0.0469979
-0.0509506
-0.966835
0.970788
0.0551764
-0.0587967
-1.14196
1.14558
0.0623461
-0.0650265
-1.34939
1.35207
0.0671327
-0.0680502
-1.59507
1.59599
0.0678455
-0.0665827
-1.57604
1.57478
0.064792
-0.062398
-1.30555
1.30316
0.0600168
-0.0573485
-1.08824
1.08557
0.0549356
-0.0523242
-0.912963
0.910351
0.0498381
-0.0466664
-0.767194
0.764023
0.0430041
-0.0377934
-0.621908
0.616697
0.0320062
-0.0250258
-0.445032
0.438052
0.018689
-0.0122926
-0.257426
0.25103
0.00736811
-0.00326336
-0.107332
0.103227
0.000933503
-0.0150762
0.0141427
-0.0377301
0.0396868
-0.00195672
0.01204
-0.0181746
-0.252371
0.258505
0.0247369
-0.0300557
-0.417788
0.423107
0.0349712
-0.0389267
-0.572255
0.57621
0.0429797
-0.04697
-0.701024
0.705015
0.051795
-0.0564053
-0.827506
0.832116
0.061524
-0.0660989
-0.974655
0.97923
0.0708668
-0.0748332
-1.14907
1.15303
0.0785605
-0.081189
-1.35449
1.35712
0.0829665
-0.0833431
-1.59647
1.59685
0.0824251
-0.0803371
-1.57301
1.57092
0.0777951
-0.0745976
-1.30026
1.29706
0.0715023
-0.0680928
-1.08227
1.07886
0.0650683
-0.0619075
-0.90706
0.903899
0.0588316
-0.0549893
-0.760343
0.756501
0.0505533
-0.0443481
-0.611443
0.605237
0.037536
-0.0293498
-0.431116
0.42293
0.0218948
-0.0143493
-0.244459
0.236913
0.00855211
-0.00375582
-0.0989615
0.0941652
0.001063
-0.0132093
0.0121463
-0.0416311
0.0444321
-0.00280104
0.0167403
-0.0249411
-0.264957
0.273158
0.0334829
-0.0403538
-0.430025
0.436896
0.0467492
-0.0519615
-0.582051
0.587263
0.0573525
-0.0625958
-0.709937
0.715181
0.0686193
-0.0741655
-0.836719
0.842266
0.0801493
-0.0853483
-0.983698
0.988897
0.0906038
-0.0948014
-1.15678
1.16098
0.0985309
-0.100914
-1.35936
1.36175
0.102139
-0.101736
-1.59664
1.59624
0.099894
-0.0967676
-1.56818
1.56505
0.0932919
-0.0891327
-1.29325
1.28909
0.0852481
-0.0810765
-1.07478
1.0706
0.0774387
-0.0736265
-0.899891
0.896079
0.0699126
-0.0652675
-0.752037
0.747392
0.0598349
-0.0523062
-0.598886
0.591357
0.0441441
-0.0344017
-0.414744
0.405001
0.0255322
-0.0165903
-0.229185
0.220243
0.00979191
-0.00425001
-0.0892225
0.0836806
0.00118698
-0.0110934
0.00990637
-0.0471168
0.0513663
-0.00424949
0.0241706
-0.0352306
-0.281727
0.292787
0.0463832
-0.0553589
-0.446436
0.455411
0.0635051
-0.0701454
-0.594843
0.601483
0.0770892
-0.0836871
-0.721276
0.727874
0.0909501
-0.0974005
-0.847742
0.854192
0.104125
-0.109769
-0.99391
0.999553
0.115252
-0.119423
-1.16483
1.169
0.122852
-0.12473
-1.36359
1.36547
0.125143
-0.123776
-1.59513
1.59376
0.120854
-0.11655
-1.56118
1.55688
0.112042
-0.106794
-1.28421
1.27896
0.101958
-0.0968122
-1.06559
1.06044
0.0923669
-0.0877195
-0.891146
0.886498
0.0832103
-0.0774225
-0.741848
0.73606
0.0706668
-0.0614497
-0.583536
0.574319
0.0516265
-0.0399999
-0.395229
0.383603
0.029426
-0.018874
-0.211192
0.20064
0.0109856
-0.00469036
-0.0780669
0.0717717
0.00128467
-0.00875107
0.0074664
-0.0552566
0.062541
-0.00728431
0.0374656
-0.0528878
-0.304833
0.320256
0.0678216
-0.0796
-0.468504
0.480283
0.0895974
-0.097587
-0.610957
0.618947
0.106052
-0.113861
-0.735025
0.742835
0.122014
-0.128879
-0.860322
0.867187
0.135746
-0.141276
-1.00476
1.01029
0.146393
-0.149971
-1.17254
1.17612
0.152515
-0.153331
-1.36654
1.36735
0.152376
-0.149551
-1.59146
1.58863
0.145103
-0.139262
-1.55169
1.54585
0.133463
-0.126957
-1.27294
1.26644
0.121071
-0.114862
-1.05432
1.04811
0.109494
-0.103794
-0.880388
0.874688
0.0982794
-0.0911052
-0.728978
0.721804
0.0828545
-0.0717061
-0.564623
0.553475
0.0598339
-0.0458962
-0.371831
0.357893
0.0333938
-0.0211306
-0.190188
0.177925
0.0121009
-0.00505608
-0.0655993
0.0585545
0.00133962
-0.00624684
0.00490722
-0.0693988
0.0733885
-0.0039897
0.0282463
-0.0416804
-0.338308
0.351742
0.0550801
-0.0658289
-0.497467
0.508216
0.0754561
-0.0845558
-0.63025
0.63935
0.0949436
-0.10424
-0.750104
0.7594
0.114548
-0.123682
-0.873093
0.882227
0.133352
-0.141837
-1.0149
1.02338
0.150513
-0.157674
-1.1786
1.18576
0.164372
-0.169133
-1.36693
1.37169
0.172426
-0.173161
-1.58445
1.58519
0.171235
-0.167152
-1.53879
1.53471
0.162034
-0.155478
-1.259
1.25244
0.149239
-0.14185
-1.0409
1.03351
0.135351
-0.128259
-0.867227
0.860135
0.121398
-0.112204
-0.713105
0.703911
0.100536
-0.0849065
-0.541464
0.525834
0.0687339
-0.0503541
-0.343597
0.325217
0.0349269
-0.0208408
-0.166056
0.15197
0.0111727
-0.00430599
-0.0521477
0.045281
0.000982944
-0.00368251
0.00269957
-0.0807008
0.0785959
0.00210485
0.00675727
-0.0152165
-0.367959
0.376418
0.0253267
-0.0331717
-0.523501
0.531346
0.0410699
-0.0489228
-0.651061
0.658914
0.0584979
-0.0673113
-0.768343
0.777157
0.0766858
-0.0852099
-0.890869
0.899393
0.0941868
-0.101692
-1.0316
1.0391
0.109502
-0.115555
-1.19268
1.19873
0.121092
-0.12464
-1.37599
1.37954
0.126339
-0.125684
-1.5848
1.58414
0.122473
-0.117144
-1.52948
1.52416
0.110768
-0.102939
-1.24503
1.2372
0.0955522
-0.0873901
-1.02535
1.01719
0.0799807
-0.071782
-0.850897
0.842698
0.0640316
-0.0550892
-0.690291
0.681349
0.0453663
-0.0337555
-0.50767
0.496059
0.0234377
-0.0141891
-0.306303
0.297055
0.0080662
-0.00374876
-0.138355
0.134038
0.0013899
-0.000227139
-0.0387323
0.0375696
-0.000103846
-0.00141896
0.0015228
-0.0817882
0.0788728
0.00291543
-0.00195569
-0.00267839
-0.387855
0.392489
0.0092153
-0.0151094
-0.542972
0.548866
0.0212862
-0.0281637
-0.669021
0.675898
0.0365885
-0.0443464
-0.785121
0.792879
0.0527986
-0.0602991
-0.907208
0.914709
0.0679169
-0.0746267
-1.04643
1.05314
0.081408
-0.0867585
-1.20433
1.20968
0.0912454
-0.0939609
-1.38243
1.38515
0.0952535
-0.0942893
-1.58291
1.58194
0.091024
-0.085885
-1.51846
1.51332
0.0798723
-0.072627
-1.22947
1.22223
0.0652008
-0.056796
-1.00846
1.00006
0.0485643
-0.038895
-0.832843
0.823174
0.029847
-0.0201375
-0.667789
0.65808
0.0116981
-0.0033756
-0.482182
0.47386
-0.00184279
0.00461589
-0.286631
0.283858
-0.00524357
0.00453451
-0.128366
0.129075
-0.00327423
0.00172074
-0.0357522
0.0373057
-0.00062195
-0.00107674
0.00169869
-0.0804318
0.0776056
0.00282619
-0.00558044
0.00344838
-0.400826
0.402958
0.000635148
-0.00510736
-0.557763
0.562235
0.0104796
-0.0163391
-0.684009
0.689868
0.0236559
-0.0304271
-0.800101
0.806873
0.0377466
-0.0442249
-0.921716
0.928194
0.0511606
-0.0568874
-1.05941
1.06514
0.0628905
-0.0672412
-1.21466
1.21901
0.0712747
-0.0737732
-1.38777
1.39027
0.0749134
-0.0739066
-1.58086
1.57985
0.0711938
-0.0667474
-1.50807
1.50362
0.0612987
-0.054162
-1.215
1.20787
0.0469261
-0.0383056
-0.990995
0.982374
0.0293698
-0.0191442
-0.811959
0.801734
0.00949703
-0.000102189
-0.644864
0.635469
-0.00688795
0.011834
-0.463615
0.458669
-0.013604
0.0128665
-0.278151
0.278888
-0.010947
0.00797302
-0.128349
0.131323
-0.00528428
0.0025413
-0.0379876
0.0407306
-0.000816944
-0.00174418
0.00256112
-0.0788479
0.0763834
0.00246453
-0.00666868
0.00609291
-0.409358
0.409934
-0.00312394
-0.000187788
-0.569665
0.572976
0.00454361
-0.00986356
-0.696746
0.702066
0.0160541
-0.0220517
-0.813008
0.819006
0.0284327
-0.0340994
-0.934254
0.939921
0.0401177
-0.0453164
-1.07076
1.07596
0.0505523
-0.0547509
-1.2233
1.2275
0.0584862
-0.0608659
-1.39257
1.39495
0.0620335
-0.0611806
-1.57892
1.57806
0.0586771
-0.0542541
-1.49867
1.49425
0.0489582
-0.0420532
-1.20066
1.19376
0.0348579
-0.0261142
-0.973136
0.964393
0.0174919
-0.00779535
-0.790547
0.78085
-0.00068635
0.00855403
-0.624255
0.616388
-0.0137367
0.0169083
-0.451031
0.447859
-0.0174771
0.0154871
-0.275735
0.277725
-0.0125317
0.00895379
-0.132556
0.136134
-0.005798
0.00270129
-0.0425283
0.045625
-0.00083938
-0.0029413
0.00378068
-0.0774276
0.075344
0.00208355
-0.00648425
0.00638149
-0.415052
0.415155
-0.00476343
0.00210901
-0.578796
0.58145
0.00206689
-0.00659155
-0.707567
0.712091
0.011896
-0.0170963
-0.824244
0.829444
0.0227737
-0.0278817
-0.945268
0.950376
0.0334886
-0.0381856
-1.08093
1.08563
0.0430977
-0.0471026
-1.23152
1.23552
0.0506667
-0.0529637
-1.3972
1.39949
0.0540778
-0.0535727
-1.5772
1.5767
0.0510244
-0.0467405
-1.48936
1.48507
0.0414629
-0.0346543
-1.18656
1.17976
0.0279146
-0.0195702
-0.955426
0.947082
0.0116861
-0.00327374
-0.770895
0.762482
-0.00393004
0.0104547
-0.607396
0.600872
-0.0145485
0.0168867
-0.442059
0.439721
-0.0169212
0.0149154
-0.275826
0.277832
-0.0121307
0.00862341
-0.137881
0.141388
-0.00549897
0.00257829
-0.0475497
0.0504703
-0.000799838
-0.00418529
0.00498513
-0.0763912
0.0747936
0.00159759
-0.00547315
0.00565421
-0.419174
0.418992
-0.00435118
0.00244822
-0.586672
0.588575
0.00134583
-0.00536384
-0.716858
0.720876
0.0103163
-0.014765
-0.834263
0.838711
0.01976
-0.0243459
-0.955484
0.96007
0.0297756
-0.0341862
-1.09042
1.09483
0.0387567
-0.0427299
-1.23944
1.24341
0.0466042
-0.0488703
-1.40188
1.40414
0.0501042
-0.0495178
-1.5758
1.57521
0.0472873
-0.0428525
-1.48049
1.47605
0.0379202
-0.0316312
-1.17275
1.16646
0.0253015
-0.0179991
-0.938868
0.931566
0.0110939
-0.00377674
-0.753833
0.746515
-0.00200183
0.00749649
-0.59331
0.587816
-0.0110918
0.0130078
-0.43495
0.433034
-0.0132508
0.0119236
-0.276572
0.277899
-0.00969673
0.00685536
-0.142857
0.145698
-0.00435246
0.00206258
-0.052017
0.0543069
-0.00065905
-0.00530833
0.00596738
-0.0759057
0.0746836
0.00122205
-0.00423544
0.0044868
-0.422413
0.422162
-0.00326546
0.0014884
-0.593375
0.595152
0.00194904
-0.00546463
-0.725033
0.728549
0.00963167
-0.0138721
-0.84312
0.84736
0.0184956
-0.0232684
-0.964498
0.969271
0.0280643
-0.0323919
-1.0994
1.10373
0.0372081
-0.0410524
-1.24733
1.25118
0.0445398
-0.0472404
-1.40635
1.40905
0.0486255
-0.0482604
-1.57465
1.57428
0.0461008
-0.0421749
-1.47174
1.46781
0.0376011
-0.0318106
-1.15989
1.1541
0.0261751
-0.019715
-0.92428
0.91782
0.0137587
-0.00768376
-0.73933
0.733255
0.00252223
0.00212016
-0.581528
0.576885
-0.00520948
0.00722045
-0.42864
0.426629
-0.00784009
0.00711643
-0.276431
0.277155
-0.00583276
0.00407825
-0.146216
0.147971
-0.00259566
0.00124585
-0.0551319
0.0564817
-0.000419267
-0.00612668
0.00654595
-0.0760041
0.0750036
0.0010005
-0.00278536
0.00271198
-0.425378
0.425451
-0.00162824
-0.000156101
-0.599426
0.601211
0.00320362
-0.00652186
-0.732463
0.735782
0.0104459
-0.0142539
-0.851411
0.855219
0.0190011
-0.023029
-0.973504
0.977531
0.0278638
-0.0320926
-1.10826
1.11249
0.0368656
-0.0409433
-1.25504
1.25912
0.044742
-0.04722
-1.41153
1.41401
0.048892
-0.0488415
-1.5738
1.57375
0.0472522
-0.0436107
-1.46373
1.46009
0.0395112
-0.0342624
-1.14843
1.14318
0.0292419
-0.0234457
-0.911262
0.905466
0.0182824
-0.0128054
-0.726955
0.721478
0.00820092
-0.00386897
-0.571418
0.567086
0.000730011
0.00131974
-0.422481
0.420431
-0.00232455
0.00239628
-0.275061
0.274989
-0.00215717
0.00152963
-0.147508
0.148135
-0.00100685
0.000547634
-0.0564583
0.0569175
-0.000213778
-0.00651513
0.00672891
-0.0764352
0.0757586
0.000676625
-0.00150041
0.000895154
-0.42858
0.429185
3.40652e-05
-0.0019613
-0.604713
0.60664
0.00468209
-0.00785202
-0.739245
0.742415
0.011569
-0.0154884
-0.858914
0.862833
0.0196389
-0.0238612
-0.981801
0.986023
0.028704
-0.0327638
-1.11718
1.12124
0.037663
-0.0417126
-1.26303
1.26708
0.0455542
-0.0485264
-1.41689
1.41986
0.0506294
-0.0508097
-1.5737
1.57388
0.0494179
-0.04648
-1.45659
1.45365
0.0429604
-0.0381793
-1.13782
1.13304
0.0335545
-0.0284984
-0.899648
0.894592
0.0235037
-0.0186781
-0.715744
0.710918
0.0144524
-0.010278
-0.562252
0.558078
0.00725285
-0.00472681
-0.416179
0.413653
0.00319249
-0.00215018
-0.272439
0.271397
0.00145361
-0.000835144
-0.146703
0.146084
0.000307546
4.38088e-05
-0.056132
0.0557806
-0.000111362
-0.00645925
0.00657061
-0.0773085
0.0768005
0.000507967
-0.000427856
-0.000186161
-0.432159
0.432773
0.00173858
-0.00354735
-0.610118
0.611927
0.00646105
-0.00950533
-0.745484
0.748528
0.0130617
-0.0165888
-0.866459
0.869986
0.0208824
-0.0248199
-0.990276
0.994213
0.0296366
-0.0341464
-1.12577
1.13028
0.0386943
-0.0430559
-1.27119
1.27555
0.0472892
-0.0503195
-1.42272
1.42575
0.052747
-0.0536564
-1.57425
1.57516
0.0526932
-0.0503711
-1.45057
1.44824
0.0470899
-0.042822
-1.12829
1.12402
0.0386856
-0.0339179
-0.889158
0.88439
0.0294169
-0.0248344
-0.705579
0.700996
0.020815
-0.0166479
-0.553333
0.549166
0.0133855
-0.0105076
-0.409498
0.40662
0.00820999
-0.00623419
-0.268089
0.266114
0.00452772
-0.00281926
-0.143717
0.142009
0.00148724
-0.000471222
-0.0542629
0.0532469
2.82275e-05
-0.00608211
0.00605389
-0.0784788
0.0781535
0.000325288
0.000697471
-0.00156382
-0.436008
0.436874
0.00305424
-0.00519825
-0.615214
0.617358
0.00808927
-0.0110054
-0.751491
0.754407
0.0146612
-0.0180586
-0.873526
0.876923
0.0222175
-0.026291
-0.998649
1.00272
0.0310258
-0.0354978
-1.13466
1.13913
0.0402489
-0.0446145
-1.27984
1.2842
0.048995
-0.0527288
-1.42906
1.43279
0.0555565
-0.0567398
-1.576
1.57718
0.0564398
-0.0544413
-1.44579
1.4438
0.0517206
-0.0480015
-1.11968
1.11596
0.0439714
-0.0394798
-0.879338
0.874846
0.0352118
-0.0306588
-0.696001
0.691448
0.0267852
-0.0225146
-0.5447
0.540429
0.0190592
-0.0155603
-0.402192
0.398693
0.0126969
-0.00981819
-0.262033
0.259154
0.00713439
-0.00451345
-0.138716
0.136095
0.00249252
-0.000922958
-0.0511612
0.0495916
0.000160542
-0.00547856
0.00531802
-0.0798854
0.0796815
0.000203964