/*--------------------------------*- C++ -*----------------------------------*\
  =========                 |
  \\      /  F ield         | OpenFOAM: The Open Source CFD Toolbox
   \\    /   O peration     | Website:  https://openfoam.org
    \\  /    A nd           | Version:  6
     \\/     M anipulation  |
\*---------------------------------------------------------------------------*/
FoamFile
{
    version     2.0;
    format      ascii;
    class       volScalarField;
    location    "88.6";
    object      p;
}
// * * * * * * * * * * * * * * * * * * * * * * * * * * * * * * * * * * * * * //

dimensions      [0 2 -2 0 0 0 0];

internalField   nonuniform List<scalar> 
8800
(
0.85211
0.802795
0.764831
0.736764
0.716605
0.702021
0.691427
0.683893
0.679016
0.676959
0.678342
0.682697
0.689499
0.69893
0.711672
0.728997
0.752877
0.785977
0.828915
0.88143
0.6866
0.692945
0.702096
0.705646
0.70304
0.696954
0.690017
0.683781
0.678987
0.676128
0.675911
0.678552
0.683205
0.689343
0.696449
0.703489
0.708371
0.70825
0.701578
0.692682
0.660108
0.666344
0.670846
0.674719
0.67767
0.678623
0.67754
0.675426
0.673456
0.672631
0.673679
0.676147
0.679045
0.681325
0.681854
0.680071
0.67671
0.672701
0.667923
0.664207
0.655795
0.658562
0.66117
0.663331
0.665072
0.666645
0.667755
0.668116
0.668015
0.66813
0.668955
0.670115
0.670872
0.670734
0.669769
0.668422
0.666759
0.664462
0.662055
0.660488
0.650723
0.652149
0.653991
0.656075
0.657792
0.659092
0.660198
0.661189
0.662014
0.662772
0.663507
0.663989
0.664032
0.663685
0.663029
0.661925
0.660278
0.65839
0.657041
0.656238
0.645711
0.646615
0.647865
0.649496
0.651196
0.652736
0.654031
0.655168
0.656252
0.657296
0.658112
0.65853
0.658565
0.658218
0.657432
0.656257
0.654907
0.65365
0.652833
0.652309
0.640776
0.641432
0.642397
0.64372
0.645175
0.646703
0.648201
0.649584
0.650872
0.65211
0.6531
0.653631
0.653681
0.653271
0.652513
0.651589
0.650613
0.649719
0.649144
0.648759
0.635913
0.636418
0.637208
0.638356
0.639666
0.641097
0.642623
0.644188
0.645731
0.64723
0.648434
0.649091
0.649211
0.648925
0.648391
0.647726
0.64701
0.646361
0.645939
0.645639
0.631066
0.631468
0.632132
0.633163
0.634405
0.635787
0.637315
0.638985
0.640756
0.642554
0.644033
0.6449
0.64523
0.645187
0.644904
0.644469
0.643966
0.643515
0.643206
0.642961
0.626153
0.626481
0.627059
0.628013
0.629215
0.630592
0.632164
0.633947
0.635931
0.63805
0.639886
0.641084
0.641721
0.641962
0.641933
0.641739
0.641442
0.641156
0.640932
0.640727
0.621083
0.621355
0.621874
0.622786
0.623978
0.625391
0.627051
0.628993
0.63123
0.633725
0.636009
0.637631
0.638641
0.639203
0.639453
0.639504
0.639416
0.63928
0.639125
0.638947
0.615764
0.615992
0.616474
0.617374
0.618597
0.620089
0.621882
0.62404
0.626605
0.629566
0.632395
0.634525
0.63597
0.636904
0.637467
0.63777
0.637903
0.637908
0.63781
0.63765
0.610097
0.610291
0.610756
0.611674
0.612968
0.614585
0.616569
0.619014
0.621996
0.625534
0.629024
0.631758
0.633715
0.635075
0.635996
0.636595
0.636951
0.637086
0.637036
0.636888
0.603974
0.604142
0.604606
0.605571
0.606977
0.608772
0.611014
0.613831
0.617335
0.621581
0.625872
0.629331
0.631893
0.63375
0.635083
0.636015
0.636611
0.636877
0.636868
0.636728
0.597269
0.597413
0.597893
0.598933
0.600498
0.602531
0.605111
0.6084
0.612551
0.617664
0.622922
0.627248
0.630529
0.632972
0.634774
0.636085
0.636955
0.637357
0.637386
0.637248
0.589832
0.589953
0.590461
0.591608
0.593382
0.595725
0.598735
0.602615
0.607566
0.613734
0.620156
0.625516
0.629647
0.632784
0.635148
0.636898
0.638073
0.638616
0.638679
0.638539
0.581473
0.581577
0.58212
0.583405
0.58545
0.588185
0.591737
0.596354
0.602291
0.609741
0.617561
0.624152
0.629286
0.633239
0.636277
0.638541
0.640059
0.64075
0.640844
0.640699
0.571907
0.572012
0.572623
0.574081
0.576476
0.579708
0.583938
0.589473
0.596625
0.605634
0.615126
0.623173
0.629492
0.634404
0.638233
0.641101
0.643008
0.643854
0.643975
0.643819
0.560842
0.560924
0.561621
0.563332
0.56617
0.570035
0.575123
0.581806
0.590456
0.601357
0.612845
0.622602
0.630308
0.63635
0.641089
0.64467
0.647007
0.648009
0.648149
0.647981
0.547866
0.547937
0.548741
0.550763
0.554166
0.558843
0.565026
0.573157
0.583666
0.596863
0.610718
0.62247
0.631777
0.639129
0.644933
0.649319
0.652118
0.653268
0.653418
0.653233
0.532384
0.532445
0.533402
0.535845
0.53999
0.54573
0.553332
0.563312
0.57614
0.59212
0.608761
0.622813
0.633943
0.64279
0.6498
0.655083
0.658359
0.659635
0.65978
0.659575
0.513575
0.513631
0.514808
0.517844
0.523005
0.530178
0.539665
0.552045
0.567789
0.587131
0.60701
0.623666
0.636845
0.647363
0.6557
0.661957
0.665683
0.667037
0.667158
0.666933
0.490216
0.490278
0.491809
0.495736
0.502357
0.511543
0.523616
0.539167
0.558582
0.581952
0.605535
0.625078
0.640507
0.652846
0.662615
0.669854
0.673945
0.675305
0.675379
0.675137
0.460414
0.460507
0.462647
0.468022
0.47693
0.489088
0.50482
0.524596
0.548604
0.576719
0.604454
0.627122
0.644939
0.659201
0.670471
0.6786
0.68289
0.684157
0.684163
0.683908
0.420941
0.421171
0.424575
0.432623
0.445397
0.462174
0.48314
0.508479
0.5381
0.571658
0.603919
0.629879
0.650159
0.666369
0.679108
0.687912
0.69215
0.693206
0.693131
0.692875
0.365654
0.366814
0.373616
0.387242
0.406786
0.430716
0.458938
0.4913
0.527504
0.567082
0.60411
0.633438
0.656169
0.674259
0.68829
0.697407
0.70126
0.702015
0.701864
0.701617
0.285656
0.293512
0.309176
0.33305
0.362717
0.396223
0.433266
0.473646
0.517089
0.563146
0.605245
0.638158
0.663533
0.68363
0.698663
0.707695
0.710954
0.711401
0.711206
0.711
0.200458
0.217659
0.243104
0.277984
0.318321
0.361526
0.407374
0.455844
0.506766
0.559776
0.6076
0.644694
0.67322
0.695499
0.7114
0.719677
0.72202
0.722175
0.722008
0.721879
0.127342
0.148388
0.181994
0.226305
0.276093
0.328428
0.382839
0.439236
0.497418
0.557017
0.610083
0.650864
0.682049
0.706045
0.722123
0.729372
0.731027
0.73108
0.730951
0.730857
0.0673517
0.0907387
0.129944
0.181018
0.238176
0.298129
0.360076
0.423715
0.488647
0.554374
0.61224
0.656296
0.689685
0.714873
0.730921
0.737493
0.738824
0.738843
0.738735
0.73865
0.0175734
0.0423595
0.085613
0.141944
0.204989
0.271187
0.339526
0.409528
0.480567
0.55193
0.614213
0.661221
0.696518
0.722672
0.738623
0.744683
0.74584
0.745859
0.745771
0.745687
-0.0246149
0.000988999
0.0472271
0.107816
0.175808
0.247326
0.321187
0.396804
0.473361
0.549925
0.616309
0.666022
0.702997
0.729895
0.745657
0.751338
0.752416
0.752466
0.752407
0.752322
-0.0612886
-0.0351565
0.0134055
0.0775224
0.149746
0.225913
0.304687
0.385384
0.467026
0.548465
0.618732
0.670972
0.709453
0.736904
0.752451
0.757861
0.758904
0.759005
0.75899
0.758909
-0.093973
-0.067436
-0.0169698
0.0501596
0.126064
0.206337
0.289553
0.374939
0.461369
0.547474
0.621517
0.676201
0.716105
0.744079
0.759454
0.764643
0.765693
0.765857
0.765899
0.765829
-0.123731
-0.0968341
-0.0447562
0.0250098
0.10417
0.188105
0.275366
0.365116
0.456116
0.546785
0.624571
0.681737
0.723096
0.751649
0.766983
0.772087
0.773132
0.773331
0.773417
0.773362
-0.151406
-0.124136
-0.0706208
0.00153114
0.0835892
0.17082
0.261782
0.355619
0.451002
0.546188
0.62779
0.687547
0.730485
0.759776
0.775193
0.780266
0.781269
0.78147
0.781577
0.78154
-0.17743
-0.149814
-0.0949845
-0.0207049
0.063958
0.154177
0.248538
0.346201
0.44581
0.545501
0.631058
0.693538
0.738181
0.768306
0.783928
0.789015
0.789966
0.790121
0.790217
0.79019
-0.202311
-0.174271
-0.118225
-0.042008
0.0450059
0.137937
0.235432
0.336676
0.440354
0.544554
0.634223
0.699603
0.746043
0.777066
0.792916
0.798005
0.798882
0.798971
0.799036
0.79903
-0.226215
-0.197746
-0.140559
-0.0625889
0.026543
0.12194
0.222315
0.326907
0.434477
0.543179
0.637148
0.705642
0.753949
0.785837
0.801889
0.806899
0.807687
0.80769
0.807712
0.80771
-0.249319
-0.220396
-0.162149
-0.082584
0.00845735
0.106084
0.209089
0.316786
0.428059
0.541221
0.639686
0.711569
0.76186
0.794494
0.810541
0.815413
0.816067
0.815987
0.815965
0.815959
-0.271751
-0.242345
-0.183087
-0.102068
-0.00932694
0.0903088
0.195701
0.306256
0.421015
0.538544
0.64169
0.717311
0.769777
0.80302
0.818797
0.823332
0.823824
0.823672
0.823616
0.823604
-0.293603
-0.263662
-0.203414
-0.121079
-0.0268255
0.0745926
0.182136
0.29529
0.41329
0.535032
0.643008
0.722781
0.777787
0.811602
0.826724
0.83062
0.830862
0.83066
0.830588
0.830568
-0.314774
-0.284326
-0.223133
-0.13964
-0.0440466
0.0589556
0.168402
0.283901
0.404868
0.530617
0.643483
0.727867
0.785962
0.820527
0.834653
0.837396
0.837154
0.836932
0.836907
0.836888
-0.335267
-0.304332
-0.242264
-0.157741
-0.0609691
0.0434208
0.154549
0.272115
0.395767
0.525239
0.642976
0.732403
0.794313
0.830182
0.843223
0.84418
0.842878
0.842535
0.842759
0.842849
-0.355151
-0.323673
-0.26081
-0.175373
-0.0775558
0.0280421
0.140632
0.259993
0.386021
0.518887
0.641342
0.736186
0.802713
0.840811
0.853326
0.85219
0.848855
0.847857
0.848613
0.849362
-0.374307
-0.342336
-0.278737
-0.192491
-0.0937701
0.0128822
0.126721
0.247613
0.375705
0.511597
0.638466
0.73896
0.810875
0.852303
0.865592
0.863179
0.857422
0.854228
0.853917
0.854255
-0.392828
-0.36035
-0.29606
-0.209136
-0.109657
-0.00210565
0.112761
0.234913
0.364743
0.503292
0.634177
0.740456
0.818557
0.864323
0.879985
0.878262
0.871023
0.863148
0.854495
0.856572
-0.41065
-0.377782
-0.312921
-0.225507
-0.125508
-0.0172406
0.0983523
0.221434
0.352631
0.493406
0.62791
0.740037
0.825535
0.876675
0.895674
0.896546
0.887903
0.873697
0.852652
0.853771
-0.427655
-0.394613
-0.32917
-0.241424
-0.14107
-0.0322345
0.0836792
0.20747
0.339614
0.482095
0.619546
0.736746
0.830587
0.887867
0.908617
0.910084
0.900242
0.870374
0.8137
0.78987
-0.443741
-0.411821
-0.344416
-0.256457
-0.155548
-0.0466015
0.0690223
0.193294
0.325966
0.469509
0.60907
0.729832
0.832198
0.896294
0.913295
0.909311
0.886362
0.829808
0.767267
0.729445
-0.485686
-0.428754
-0.358357
-0.271548
-0.169708
-0.0613332
0.0545289
0.178773
0.311461
0.45525
0.595955
0.718438
0.826386
0.897022
0.905578
0.880735
0.822401
0.75113
0.680252
0.641164
-0.459896
-0.44133
-0.379534
-0.292045
-0.191696
-0.083498
0.0317631
0.155535
0.287641
0.430642
0.570932
0.693034
0.794113
0.872319
0.846179
0.725216
0.626958
0.558715
0.491686
0.51471
-0.489877
-0.458202
-0.395537
-0.308517
-0.208536
-0.100459
0.0150526
0.138269
0.269524
0.41107
0.549207
0.66819
0.758022
0.801915
0.739231
0.58938
0.473091
0.39466
0.309691
0.350794
-0.512906
-0.47891
-0.414557
-0.327496
-0.227563
-0.119476
-0.00403539
0.118458
0.248464
0.3878
0.522274
0.635299
0.713126
0.718782
0.600927
0.437481
0.302231
0.204931
0.106982
0.134307
-0.535201
-0.500221
-0.434561
-0.346878
-0.246878
-0.138904
-0.023963
0.0976027
0.22607
0.362671
0.492232
0.596189
0.656634
0.628456
0.459822
0.276202
0.111561
-0.0258933
-0.152744
-0.144229
-0.557157
-0.521848
-0.455338
-0.367105
-0.266997
-0.159255
-0.0449838
0.0754641
0.202038
0.335365
0.458939
0.5535
0.592725
0.5155
0.320572
0.118114
-0.0721874
-0.228671
-0.4349
-0.514779
-0.579464
-0.544267
-0.477283
-0.388683
-0.288459
-0.180931
-0.067292
0.0519593
0.176441
0.306094
0.422974
0.508083
0.519386
0.390924
0.193125
-0.020295
-0.215082
-0.377988
-0.501988
-0.617677
-0.603187
-0.567955
-0.500752
-0.411996
-0.311803
-0.204609
-0.0917266
0.026108
0.148082
0.273365
0.382837
0.454698
0.437031
0.272489
0.0736344
-0.133501
-0.311601
-0.410015
-0.436107
-0.4494
-0.628459
-0.593208
-0.525874
-0.437134
-0.337175
-0.230514
-0.118669
-0.00261262
0.116328
0.236367
0.337977
0.390733
0.353097
0.158472
-0.0380679
-0.224865
-0.359562
-0.39798
-0.406655
-0.406983
-0.655565
-0.620153
-0.55269
-0.464084
-0.364527
-0.25866
-0.148153
-0.0342726
0.0810934
0.195094
0.287891
0.323115
0.2516
0.0539248
-0.135972
-0.298221
-0.37396
-0.388149
-0.389208
-0.389074
-0.684513
-0.648824
-0.581225
-0.492851
-0.393883
-0.289048
-0.1802
-0.0689031
0.0423862
0.149658
0.232273
0.251644
0.141015
-0.0412196
-0.220399
-0.348808
-0.378161
-0.378937
-0.379595
-0.379199
-0.715052
-0.679062
-0.611386
-0.523362
-0.425167
-0.321637
-0.214797
-0.106493
0.00025423
0.100185
0.172468
0.172105
0.0433168
-0.128175
-0.286762
-0.360539
-0.375386
-0.373751
-0.373563
-0.373213
-0.74663
-0.710521
-0.642914
-0.555393
-0.458199
-0.356277
-0.251803
-0.146928
-0.045085
0.0471316
0.108889
0.0920345
-0.0462062
-0.204162
-0.331392
-0.370105
-0.369123
-0.369239
-0.369009
-0.368735
-0.778803
-0.742669
-0.675322
-0.588528
-0.492627
-0.392645
-0.290934
-0.189936
-0.0933311
-0.00854988
0.04034
0.0166762
-0.126882
-0.263841
-0.356994
-0.365631
-0.36643
-0.366277
-0.36604
-0.36583
-0.810604
-0.774637
-0.707888
-0.622132
-0.527898
-0.430263
-0.331722
-0.235021
-0.144055
-0.0660039
-0.0280395
-0.0586321
-0.195603
-0.306785
-0.360902
-0.372818
-0.367075
-0.365488
-0.365009
-0.364705
-0.840285
-0.805142
-0.739569
-0.655316
-0.56323
-0.468416
-0.373491
-0.281436
-0.196482
-0.124774
-0.0913601
-0.136319
-0.252022
-0.343073
-0.36328
-0.367274
-0.36803
-0.367565
-0.367128
-0.366798
-0.866692
-0.832671
-0.768966
-0.686874
-0.597556
-0.506152
-0.415354
-0.328245
-0.249367
-0.184339
-0.152924
-0.203782
-0.295479
-0.370262
-0.387036
-0.375153
-0.371619
-0.370277
-0.369684
-0.369466
-0.887151
-0.855124
-0.794317
-0.715277
-0.629552
-0.54228
-0.456192
-0.37438
-0.301402
-0.24289
-0.214099
-0.256118
-0.323382
-0.376823
-0.37837
-0.373782
-0.370633
-0.369433
-0.369077
-0.368977
-0.899607
-0.87038
-0.813543
-0.738774
-0.657681
-0.575411
-0.494673
-0.418586
-0.351473
-0.297723
-0.270126
-0.297186
-0.334218
-0.365988
-0.365051
-0.367035
-0.367439
-0.367173
-0.367057
-0.36693
-0.90136
-0.876054
-0.824537
-0.755512
-0.680303
-0.604071
-0.529374
-0.459377
-0.398328
-0.348139
-0.316581
-0.332761
-0.338924
-0.35407
-0.361137
-0.363482
-0.365295
-0.365971
-0.366189
-0.36616
-0.890077
-0.86956
-0.825163
-0.763736
-0.695938
-0.62687
-0.55898
-0.495218
-0.440212
-0.395532
-0.350638
-0.366755
-0.348913
-0.353139
-0.361905
-0.364294
-0.366593
-0.36802
-0.368548
-0.368643
-0.863436
-0.84842
-0.813538
-0.762208
-0.703524
-0.642812
-0.582461
-0.525023
-0.475458
-0.438233
-0.38972
-0.385466
-0.373743
-0.367489
-0.36404
-0.370523
-0.374041
-0.375688
-0.376347
-0.376612
-0.824879
-0.815301
-0.790815
-0.751183
-0.703061
-0.65165
-0.59922
-0.548302
-0.50348
-0.471829
-0.440639
-0.415599
-0.393808
-0.399324
-0.407485
-0.399052
-0.391289
-0.389365
-0.389941
-0.390252
-0.781449
-0.775996
-0.761924
-0.733733
-0.696635
-0.6542
-0.609419
-0.564645
-0.523676
-0.49366
-0.466471
-0.445148
-0.425588
-0.418477
-0.402309
-0.39784
-0.406864
-0.413843
-0.415973
-0.41596
-0.743058
-0.739741
-0.733063
-0.715187
-0.687127
-0.652322
-0.614044
-0.573968
-0.535325
-0.504051
-0.478186
-0.465064
-0.457865
-0.469745
-0.481101
-0.494962
-0.49331
-0.475556
-0.464695
-0.466813
-0.715402
-0.713436
-0.710028
-0.699489
-0.678237
-0.649092
-0.614943
-0.577433
-0.538525
-0.5033
-0.478102
-0.465675
-0.486651
-0.539477
-0.600791
-0.649301
-0.65712
-0.625195
-0.576435
-0.561825
-0.695086
-0.694389
-0.693236
-0.688042
-0.672508
-0.647006
-0.614239
-0.576392
-0.534862
-0.493431
-0.463434
-0.434557
-0.413684
-0.424036
-0.452533
-0.45992
-0.464072
-0.463733
-0.446529
-0.436729
-0.683227
-0.682997
-0.682384
-0.679957
-0.66943
-0.646015
-0.612962
-0.573081
-0.527277
-0.47642
-0.432887
-0.379858
-0.310571
-0.255058
-0.231752
-0.230504
-0.232233
-0.215819
-0.193656
-0.18107
-0.675032
-0.674883
-0.674474
-0.673762
-0.667329
-0.646209
-0.612102
-0.568928
-0.517277
-0.455153
-0.392703
-0.310022
-0.192442
-0.0627966
0.0309645
0.0848436
0.14858
0.222123
0.281458
0.309402
-0.669692
-0.669648
-0.669522
-0.669366
-0.66552
-0.647723
-0.612487
-0.565191
-0.507861
-0.435564
-0.352771
-0.255743
-0.080543
0.15443
0.409691
0.631117
0.802564
0.914135
0.976665
0.999156
-0.665314
-0.665358
-0.665389
-0.665416
-0.664076
-0.64985
-0.614276
-0.563539
-0.501653
-0.420386
-0.324649
-0.220392
-0.0184508
0.284926
0.631418
0.957216
1.21151
1.35678
1.40866
1.41904
-0.661338
-0.661434
-0.661452
-0.661331
-0.66105
-0.651006
-0.6176
-0.566524
-0.499558
-0.41358
-0.312651
-0.20544
-0.0197241
0.274964
0.601877
0.912178
1.15967
1.29316
1.33593
1.34307
-0.658736
-0.65868
-0.658252
-0.657317
-0.656963
-0.65058
-0.623439
-0.573026
-0.502829
-0.415892
-0.317647
-0.218126
-0.0669892
0.184852
0.452833
0.689711
0.871205
0.96861
1.00396
1.01261
-0.658782
-0.658662
-0.658213
-0.657061
-0.655216
-0.653273
-0.633443
-0.583051
-0.511431
-0.426834
-0.335954
-0.247342
-0.129313
0.0730388
0.279585
0.448905
0.575834
0.648205
0.678336
0.687289
-0.661953
-0.662502
-0.663952
-0.666722
-0.669049
-0.669437
-0.650684
-0.595557
-0.523964
-0.445841
-0.363235
-0.286715
-0.201615
-0.045967
0.120805
0.252737
0.351733
0.411894
0.437488
0.443909
-0.66573
-0.667321
-0.672209
-0.683738
-0.699908
-0.704182
-0.671812
-0.60755
-0.540376
-0.470963
-0.393257
-0.327448
-0.263826
-0.143691
-0.0120674
0.0927705
0.173206
0.223947
0.243337
0.247059
-0.673452
-0.674827
-0.679081
-0.688148
-0.702871
-0.706677
-0.67117
-0.612181
-0.560407
-0.496688
-0.423312
-0.367773
-0.322275
-0.22759
-0.121309
-0.0389504
0.0234813
0.0620332
0.0756726
0.077522
-0.693072
-0.693964
-0.694746
-0.681646
-0.649919
-0.629851
-0.62039
-0.607168
-0.580052
-0.518037
-0.451187
-0.403212
-0.366812
-0.293901
-0.211602
-0.14929
-0.102141
-0.0743708
-0.0644818
-0.063827
-0.717597
-0.717352
-0.713649
-0.681596
-0.608967
-0.551834
-0.57635
-0.615132
-0.598837
-0.536858
-0.475259
-0.432634
-0.399763
-0.340461
-0.277727
-0.232945
-0.200082
-0.181605
-0.17561
-0.175407
-0.750134
-0.747078
-0.746781
-0.737933
-0.710525
-0.67473
-0.673909
-0.681843
-0.635625
-0.557619
-0.49686
-0.457017
-0.423721
-0.377635
-0.330311
-0.296888
-0.273675
-0.261352
-0.257299
-0.257493
-0.840001
-0.84462
-0.877985
-0.927105
-0.95161
-0.932075
-0.885443
-0.80688
-0.692219
-0.582784
-0.518523
-0.472307
-0.440189
-0.401782
-0.363862
-0.338666
-0.321994
-0.313818
-0.3111
-0.311264
-0.980761
-0.99894
-1.04717
-1.09942
-1.12542
-1.10931
-1.04066
-0.90358
-0.731994
-0.604277
-0.531224
-0.476798
-0.449276
-0.4163
-0.381811
-0.359313
-0.346057
-0.339494
-0.33694
-0.337104
-1.0575
-1.07556
-1.11132
-1.14762
-1.16924
-1.15361
-1.07609
-0.902536
-0.722492
-0.604187
-0.518269
-0.469371
-0.446999
-0.413596
-0.381409
-0.361036
-0.348226
-0.340947
-0.338378
-0.33868
-1.00326
-1.01635
-1.04144
-1.06893
-1.08734
-1.07496
-1.00003
-0.823666
-0.673259
-0.564739
-0.481488
-0.448714
-0.428428
-0.395008
-0.365071
-0.345305
-0.331887
-0.3247
-0.322378
-0.322896
-0.823224
-0.835981
-0.860223
-0.889403
-0.91157
-0.904683
-0.829896
-0.701721
-0.589752
-0.489193
-0.436162
-0.408736
-0.39046
-0.364345
-0.337734
-0.318632
-0.304993
-0.298014
-0.296051
-0.29676
-0.552317
-0.565133
-0.591006
-0.625301
-0.6549
-0.656449
-0.609066
-0.537957
-0.465194
-0.40813
-0.37725
-0.351836
-0.343274
-0.319879
-0.296458
-0.281094
-0.270443
-0.265341
-0.264092
-0.264805
-0.256883
-0.266572
-0.287982
-0.321033
-0.35552
-0.376847
-0.375108
-0.361443
-0.338398
-0.321711
-0.300017
-0.289704
-0.28501
-0.265074
-0.24866
-0.237852
-0.229873
-0.226148
-0.225476
-0.226158
-0.0295375
-0.0354355
-0.0509633
-0.0789418
-0.1192
-0.162737
-0.199635
-0.22217
-0.232646
-0.231488
-0.226413
-0.222556
-0.21792
-0.204493
-0.195319
-0.188621
-0.183256
-0.180928
-0.18063
-0.181303
0.0869975
0.0831086
0.0716066
0.0474915
0.00990618
-0.0376877
-0.0876225
-0.125594
-0.147774
-0.158889
-0.161088
-0.153874
-0.151476
-0.146367
-0.14223
-0.137962
-0.133798
-0.131943
-0.131974
-0.132731
0.112159
0.109438
0.100837
0.0823668
0.0515771
0.0123117
-0.027106
-0.0617965
-0.0867471
-0.0978262
-0.100089
-0.0952226
-0.0940517
-0.0928729
-0.0915345
-0.0889662
-0.0858118
-0.0843785
-0.0847421
-0.085551
0.0818326
0.0800938
0.0747382
0.0632523
0.0445549
0.0201586
-0.00552011
-0.0268715
-0.0397497
-0.0471273
-0.0507785
-0.0481643
-0.0486855
-0.0484325
-0.0478288
-0.0459491
-0.0433461
-0.042278
-0.0429551
-0.0438448
0.0213133
0.0211817
0.021101
0.0190927
0.0147751
0.00888209
0.00307131
-0.00241012
-0.00709119
-0.00938328
-0.0100909
-0.00942903
-0.00777322
-0.00841243
-0.00903754
-0.0100476
-0.0116604
-0.0127731
-0.0113162
-0.0105709
-0.0164769
0.169699
0.340196
0.484004
0.598174
0.687304
0.76079
0.82035
0.834968
0.831806
0.267346
0.386413
0.497752
0.593825
0.674185
0.740128
0.791921
0.826918
0.845707
0.862528
0.459231
0.538338
0.616442
0.6848
0.742867
0.790922
0.828801
0.857813
0.879719
0.898988
0.60121
0.657407
0.713931
0.764582
0.80826
0.845435
0.876692
0.902977
0.922992
0.941895
0.715872
0.758185
0.800163
0.839478
0.874632
0.905755
0.933016
0.956166
0.973972
0.992048
0.811428
0.846532
0.881104
0.914251
0.94484
0.972577
0.99711
1.01775
1.0334
1.05088
0.898765
0.930367
0.962225
0.993063
1.02176
1.04787
1.07079
1.08958
1.1034
1.12041
0.985057
1.01741
1.04959
1.08059
1.10919
1.13482
1.15682
1.17425
1.18656
1.20307
1.07906
1.11541
1.15005
1.18239
1.21144
1.23667
1.2577
1.27391
1.28547
1.30159
1.19198
1.23268
1.26958
1.30236
1.33074
1.35465
1.3742
1.38943
1.40128
1.41734
1.33342
1.37434
1.40952
1.439
1.46413
1.4857
1.50416
1.51961
1.53271
1.54864
1.50478
1.53686
1.56379
1.58613
1.60619
1.62489
1.64261
1.65936
1.67426
1.68998
1.69091
1.70813
1.72522
1.7419
1.75799
1.77271
1.78661
1.80108
1.81631
1.83361
1.8743
1.88422
1.89739
1.90837
1.91778
1.92743
1.93803
1.9482
1.95749
1.98315
2.09212
2.08642
2.07347
2.05921
2.05291
2.05861
2.07675
2.10527
2.13903
2.17536
2.39493
2.25899
2.17948
2.13693
2.1196
2.12359
2.15102
2.20888
2.31654
2.49495
0.755802
0.7495
0.741772
0.730661
0.717095
0.704453
0.694068
0.686073
0.68038
0.677083
0.676779
0.679657
0.684926
0.692311
0.701881
0.713725
0.727297
0.740233
0.749227
0.756771
0.664858
0.670779
0.678854
0.684991
0.688066
0.687562
0.684489
0.680512
0.67695
0.674703
0.674619
0.676922
0.680717
0.685193
0.689317
0.691579
0.690517
0.685889
0.678839
0.671008
0.658088
0.660461
0.663732
0.66651
0.668968
0.671168
0.672362
0.672236
0.671329
0.670565
0.670836
0.672308
0.674136
0.6754
0.675352
0.673905
0.671761
0.66941
0.666436
0.663421
0.653271
0.654359
0.65628
0.658625
0.660506
0.661917
0.663153
0.66417
0.664805
0.665234
0.665854
0.666665
0.667186
0.66711
0.666513
0.665615
0.664302
0.662346
0.660248
0.658774
0.648209
0.648843
0.649976
0.651742
0.653598
0.655207
0.656479
0.657573
0.658596
0.659554
0.660419
0.66102
0.661222
0.661066
0.660569
0.659625
0.65822
0.656627
0.655301
0.654502
0.643236
0.643675
0.644468
0.645782
0.647319
0.648902
0.650406
0.651737
0.652942
0.6541
0.655147
0.655845
0.656103
0.65593
0.655315
0.654353
0.653228
0.652105
0.651215
0.650684
0.638341
0.638668
0.639285
0.640367
0.641681
0.643104
0.644614
0.646131
0.647582
0.648969
0.650229
0.651091
0.651414
0.651247
0.65071
0.649974
0.649164
0.648336
0.64769
0.647301
0.633496
0.633749
0.634248
0.635174
0.636368
0.637705
0.639165
0.640744
0.642394
0.644057
0.645589
0.646649
0.647111
0.647108
0.646801
0.646315
0.645728
0.645134
0.64467
0.644373
0.628628
0.628828
0.629245
0.630063
0.631184
0.63248
0.633934
0.635568
0.637374
0.639304
0.641159
0.642513
0.64324
0.643504
0.643457
0.643213
0.642844
0.64245
0.64213
0.641897
0.623648
0.623809
0.624167
0.624915
0.625995
0.62728
0.628774
0.630506
0.632489
0.634703
0.63694
0.638696
0.639784
0.64037
0.640604
0.64061
0.64047
0.640262
0.64006
0.639874
0.618465
0.618595
0.618912
0.619618
0.620687
0.622006
0.62358
0.625457
0.627675
0.630237
0.632943
0.635194
0.636716
0.637675
0.638228
0.638507
0.638596
0.638571
0.638472
0.638322
0.612985
0.613089
0.613379
0.614069
0.615164
0.61656
0.618261
0.620339
0.622863
0.625868
0.629148
0.631992
0.634027
0.635418
0.636335
0.636912
0.637257
0.637412
0.637402
0.63728
0.607104
0.607187
0.607462
0.608161
0.609316
0.610833
0.612716
0.615066
0.617983
0.621538
0.62552
0.629079
0.631721
0.633618
0.634953
0.635888
0.636503
0.636836
0.636908
0.636806
0.600707
0.60077
0.601039
0.60177
0.603023
0.604709
0.606839
0.609544
0.612956
0.617189
0.622025
0.626444
0.629812
0.632306
0.634123
0.635455
0.636381
0.63691
0.637061
0.636975
0.593654
0.593697
0.59397
0.594755
0.596145
0.598055
0.600509
0.603664
0.607696
0.612762
0.618633
0.624083
0.628315
0.631515
0.633904
0.635692
0.636974
0.637716
0.637945
0.63787
0.58579
0.585808
0.586083
0.586946
0.588516
0.590715
0.593581
0.597302
0.602102
0.60819
0.615312
0.621997
0.627251
0.631284
0.634353
0.636691
0.638377
0.639348
0.639654
0.639587
0.576848
0.57686
0.577161
0.578126
0.57993
0.582496
0.58588
0.590308
0.59606
0.603398
0.61203
0.620186
0.626652
0.631665
0.635534
0.638528
0.640679
0.641902
0.642284
0.642221
0.566566
0.566551
0.566895
0.568013
0.570119
0.573153
0.577192
0.582507
0.58944
0.598307
0.608758
0.618658
0.62655
0.632718
0.63753
0.641282
0.643974
0.64547
0.645925
0.645861
0.554594
0.554558
0.554952
0.556258
0.558742
0.562379
0.567251
0.573687
0.582092
0.592834
0.605471
0.617428
0.62698
0.634496
0.640413
0.645041
0.648343
0.650123
0.650643
0.650572
0.540423
0.540366
0.540841
0.542399
0.54537
0.549783
0.555732
0.563599
0.573855
0.5869
0.602154
0.616519
0.627983
0.63704
0.644242
0.649864
0.653835
0.655899
0.656468
0.656382
0.52335
0.52327
0.523873
0.525788
0.529413
0.534863
0.54223
0.551958
0.564566
0.580451
0.598817
0.615961
0.629598
0.6404
0.64903
0.655773
0.660454
0.662772
0.663363
0.663255
0.502377
0.502281
0.50309
0.505522
0.510067
0.516953
0.526256
0.538462
0.554093
0.573474
0.595505
0.615802
0.631864
0.644597
0.654789
0.662751
0.668129
0.670635
0.671207
0.67107
0.475972
0.475877
0.477036
0.480275
0.486219
0.495202
0.507258
0.522843
0.542385
0.56604
0.592318
0.616123
0.634814
0.649626
0.661501
0.670713
0.67669
0.679268
0.679771
0.6796
0.441668
0.441626
0.443413
0.44804
0.456341
0.468636
0.484753
0.504992
0.529547
0.55833
0.589417
0.617029
0.638495
0.655478
0.66908
0.679485
0.685855
0.688336
0.688714
0.68851
0.39507
0.395252
0.398432
0.405989
0.418687
0.436435
0.458599
0.485132
0.515924
0.55066
0.587026
0.618649
0.64296
0.662113
0.67741
0.688811
0.695221
0.697389
0.697605
0.697377
0.327961
0.329405
0.337155
0.351478
0.372294
0.398736
0.429434
0.463971
0.502104
0.543449
0.585392
0.621089
0.648221
0.669452
0.686211
0.698205
0.704225
0.705879
0.70593
0.705708
0.247851
0.250673
0.265765
0.290512
0.322457
0.359161
0.399073
0.442018
0.487873
0.536336
0.584537
0.625053
0.655689
0.679524
0.697852
0.709988
0.715337
0.716551
0.716543
0.71641
0.165811
0.173167
0.195849
0.231003
0.273702
0.320437
0.369554
0.420938
0.474532
0.530083
0.584486
0.629722
0.663715
0.690071
0.709852
0.721639
0.72584
0.726486
0.726426
0.726347
0.098704
0.108113
0.135615
0.178128
0.229245
0.284461
0.341855
0.401127
0.462068
0.52432
0.584479
0.633951
0.670832
0.699145
0.719657
0.730879
0.734394
0.734873
0.734821
0.734767
0.0436836
0.0538371
0.0850084
0.13297
0.190427
0.252398
0.316722
0.382894
0.450477
0.518905
0.584369
0.637694
0.677109
0.706998
0.728008
0.738792
0.741876
0.742261
0.742226
0.742187
-0.00237636
0.00811352
0.0417932
0.0939941
0.156626
0.224191
0.29435
0.366486
0.439974
0.514033
0.584394
0.64126
0.682936
0.714169
0.73551
0.745881
0.748692
0.749054
0.749045
0.749021
-0.0419398
-0.0313103
0.00423436
0.0598234
0.126771
0.199138
0.274385
0.351795
0.430612
0.509851
0.584798
0.64496
0.688698
0.721058
0.742554
0.752559
0.755207
0.755583
0.75562
0.755619
-0.0767217
-0.0660545
-0.0290569
0.0293361
0.0999607
0.176503
0.256274
0.338467
0.42221
0.506314
0.585638
0.648954
0.694619
0.727972
0.749556
0.759281
0.761792
0.762198
0.762311
0.762351
-0.108001
-0.0973254
-0.0591721
0.00163334
0.0754599
0.155684
0.239514
0.3261
0.414458
0.503239
0.586822
0.653268
0.700824
0.735171
0.756906
0.766413
0.768872
0.769325
0.769499
0.769581
-0.136799
-0.126096
-0.0869253
-0.0239796
0.052701
0.136199
0.223693
0.314335
0.407058
0.500375
0.58821
0.657827
0.707373
0.742802
0.764819
0.774259
0.776682
0.777149
0.777346
0.777462
-0.163702
-0.152956
-0.112869
-0.0480003
0.0312209
0.117661
0.208493
0.302889
0.399752
0.497499
0.589644
0.66256
0.714221
0.750868
0.773301
0.782784
0.785168
0.785588
0.785783
0.785917
-0.189196
-0.178386
-0.137438
-0.0708232
0.0106808
0.0997796
0.193663
0.291538
0.392333
0.494428
0.59096
0.667352
0.721253
0.75921
0.782149
0.791715
0.794075
0.794418
0.794569
0.794692
-0.213663
-0.202699
-0.160944
-0.0927207
-0.00915623
0.0823399
0.179016
0.280122
0.384631
0.490987
0.592004
0.672077
0.728362
0.767657
0.791111
0.800735
0.803036
0.803287
0.803372
0.803471
-0.237238
-0.226094
-0.183568
-0.11388
-0.0284574
0.065211
0.164429
0.268517
0.376523
0.487014
0.592615
0.676622
0.735464
0.776094
0.799978
0.809545
0.811729
0.811876
0.811884
0.811953
-0.260112
-0.248736
-0.205468
-0.134409
-0.0473181
0.0483012
0.149822
0.256643
0.367918
0.482395
0.592636
0.680867
0.742527
0.784478
0.80854
0.817897
0.819886
0.819925
0.819867
0.819908
-0.282287
-0.270697
-0.226711
-0.154371
-0.0657858
0.0315726
0.135167
0.24447
0.358765
0.477029
0.591923
0.684686
0.749531
0.792905
0.816903
0.825709
0.827372
0.827298
0.827195
0.827211
-0.303853
-0.292022
-0.247298
-0.173787
-0.083884
0.0150141
0.120457
0.231996
0.349045
0.470857
0.590342
0.687935
0.756469
0.801552
0.825271
0.8331
0.834157
0.833936
0.833828
0.833838
-0.324696
-0.312684
-0.267238
-0.192675
-0.101605
-0.00134039
0.105717
0.219244
0.338773
0.463858
0.58778
0.690457
0.763273
0.810626
0.83412
0.840462
0.84037
0.839836
0.839819
0.839908
-0.344945
-0.332682
-0.286535
-0.211041
-0.118944
-0.0174816
0.0910048
0.206255
0.327984
0.456046
0.584152
0.692069
0.769794
0.820245
0.84404
0.848693
0.846671
0.845206
0.845357
0.845857
-0.364468
-0.351972
-0.305197
-0.228859
-0.135843
-0.033348
0.0763786
0.193119
0.316746
0.447435
0.57941
0.692579
0.775796
0.830299
0.855464
0.859058
0.854725
0.851274
0.851084
0.852424
-0.383378
-0.370615
-0.323184
-0.246087
-0.152284
-0.04889
0.0619066
0.179893
0.305136
0.438117
0.573548
0.691774
0.780968
0.840406
0.868225
0.87239
0.866764
0.860547
0.855983
0.849413
-0.401571
-0.388613
-0.340588
-0.262895
-0.168487
-0.0643805
0.0472697
0.166201
0.29275
0.427654
0.566152
0.689239
0.785134
0.85063
0.882268
0.888947
0.883885
0.874456
0.861912
0.861667
-0.419015
-0.406047
-0.357424
-0.279236
-0.18445
-0.0797909
0.0324865
0.152008
0.27953
0.415886
0.556967
0.684349
0.787347
0.860111
0.895774
0.905306
0.900751
0.890508
0.854774
0.816971
-0.435526
-0.422776
-0.373655
-0.294991
-0.200179
-0.0951354
0.0175438
0.137432
0.26552
0.402803
0.545826
0.676582
0.786127