/*--------------------------------*- C++ -*----------------------------------*\
  =========                 |
  \\      /  F ield         | OpenFOAM: The Open Source CFD Toolbox
   \\    /   O peration     | Website:  https://openfoam.org
    \\  /    A nd           | Version:  6
     \\/     M anipulation  |
\*---------------------------------------------------------------------------*/
FoamFile
{
    version     2.0;
    format      ascii;
    class       surfaceScalarField;
    location    "89.1";
    object      phi;
}
// * * * * * * * * * * * * * * * * * * * * * * * * * * * * * * * * * * * * * //

dimensions      [0 3 -1 0 0 0 0];

internalField   nonuniform List<scalar> 
17370
(
-0.0900001
0.089849
0.289162
-0.0714623
0.0537522
0.364486
-0.0381188
0.0276894
0.426598
-0.0196373
0.0146039
0.504285
-0.0107616
0.00827095
0.601893
-0.00627106
0.00489446
0.720434
-0.00373055
0.00289007
0.863747
-0.00214874
0.00158976
1.03601
-0.00107332
0.000661042
1.24292
-0.000254129
-0.00014227
1.49159
0.00052168
-0.000931572
1.4916
0.00132967
-0.00181766
1.24318
0.00234278
-0.00304654
1.03634
0.00386002
-0.00500441
0.864051
0.0063705
-0.00836329
0.72105
0.0108484
-0.0146842
0.60305
0.0197108
-0.0277547
0.507483
0.0381761
-0.0538003
0.431792
0.0715017
-0.0898755
0.365149
0.0900163
0.198995
-0.128137
0.0882287
0.0399087
-0.3646
0.353381
-0.0746698
0.0858888
-0.446477
0.454322
-0.0843847
0.0765396
-0.521191
0.529904
-0.0684415
0.059729
-0.61279
0.621571
-0.051539
0.042758
-0.726895
0.734166
-0.0352959
0.0280249
-0.867476
0.872594
-0.0224225
0.0173052
-1.03848
1.04193
-0.0134938
0.0100425
-1.2446
1.24703
-0.00743032
0.00499584
-1.49262
1.4946
-0.00304583
0.00106316
-1.49251
1.49423
0.000609979
-0.00233379
-1.24397
1.24586
0.00424002
-0.00612555
-1.03751
1.04003
0.00847917
-0.0110015
-0.866099
0.869826
0.0143484
-0.0180747
-0.724389
0.729932
0.0231143
-0.0286569
-0.608697
0.61611
0.0358703
-0.043283
-0.514896
0.523039
0.0520119
-0.0601549
-0.439855
0.447913
0.0688165
-0.076874
-0.375294
0.376738
0.0846692
-0.0861125
-0.257329
0.222475
0.0748215
-0.0399671
-0.0685229
0.0586986
0.00982427
-0.0518014
0.0583813
-0.374131
0.367552
-0.0574624
0.0537077
-0.453598
0.457353
-0.0486152
0.0446603
-0.527951
0.531906
-0.0408174
0.0371756
-0.621568
0.62521
-0.0330705
0.0289914
-0.735354
0.739433
-0.0244172
0.0202543
-0.874346
0.878509
-0.0159044
0.0122067
-1.04349
1.04719
-0.00846523
0.00528918
-1.24857
1.25174
-0.00195838
-0.00111653
-1.49666
1.49974
0.00416522
-0.00743259
-1.4972
1.50047
0.010513
-0.0141146
-1.25007
1.25367
0.0176629
-0.0218428
-1.04592
1.0501
0.0258636
-0.0303003
-0.877755
0.882191
0.0342683
-0.0382628
-0.739894
0.743889
0.0418104
-0.0455558
-0.626768
0.630514
0.0494271
-0.0544396
-0.534806
0.539818
0.0581061
-0.0589147
-0.45747
0.458278
0.0522046
-0.0319962
-0.335743
0.315535
0.00988979
-0.0683394
0.0584496
-0.0529501
0.0489572
0.00399285
-0.0331438
0.0436808
-0.358124
0.347587
-0.0473721
0.0467397
-0.459295
0.459927
-0.043679
0.0403219
-0.535812
0.539169
-0.0365444
0.0332357
-0.628539
0.631848
-0.0297925
0.0267555
-0.742661
0.745698
-0.0234907
0.0203785
-0.882032
0.885144
-0.016842
0.013457
-1.05079
1.05417
-0.00965793
0.00611458
-1.25518
1.25872
-0.00214115
-0.00165864
-1.50325
1.50705
0.00542561
-0.00930043
-1.50413
1.50801
0.0127079
-0.0163134
-1.25741
1.26101
0.0194912
-0.0227901
-1.05391
1.05721
0.0256999
-0.0287648
-0.885674
0.888739
0.031638
-0.0349175
-0.747143
0.750423
0.0380878
-0.0417246
-0.634293
0.63793
0.0449611
-0.047884
-0.544123
0.547046
0.0483709
-0.0444749
-0.456558
0.452662
0.0336934
-0.0162315
-0.296159
0.278697
0.00407465
-0.0526269
0.0485523
-0.0458827
0.0433908
0.00249184
-0.0227809
0.0331464
-0.336908
0.326543
-0.0389559
0.0399646
-0.459618
0.458609
-0.0387669
0.0364744
-0.541893
0.544185
-0.0338004
0.031198
-0.634905
0.637507
-0.0281274
0.0252208
-0.748749
0.751656
-0.0219479
0.0189464
-0.888104
0.891106
-0.0156328
0.0125257
-1.05731
1.06042
-0.00899169
0.00557641
-1.26219
1.2656
-0.00160772
-0.00227982
-1.51093
1.51482
0.00612301
-0.00995903
-1.51189
1.51573
0.0131932
-0.0164722
-1.26445
1.26772
0.0193075
-0.0223095
-1.06031
1.06331
0.0250426
-0.0280473
-0.891781
0.894786
0.0307308
-0.0335771
-0.753621
0.756468
0.0359899
-0.0384738
-0.640988
0.643472
0.0406038
-0.0415869
-0.548842
0.549825
0.0403531
-0.0342144
-0.447368
0.44123
0.0234882
-0.0102514
-0.263461
0.250225
0.00259304
-0.0453849
0.0427918
-0.04132
0.0395576
0.00176238
-0.0167125
0.0259445
-0.316706
0.307474
-0.0325315
0.0346583
-0.457019
0.454893
-0.0342265
0.0325477
-0.54617
0.547848
-0.0303581
0.0282545
-0.63982
0.641923
-0.0258133
0.0234062
-0.754308
0.756715
-0.0205365
0.0177365
-0.89401
0.89681
-0.0144882
0.0114082
-1.06347
1.06655
-0.00790698
0.0045724
-1.26893
1.27226
-0.000732128
-0.00300559
-1.51861
1.52235
0.00668682
-0.0103581
-1.51946
1.52313
0.013462
-0.0166388
-1.27096
1.27414
0.0193724
-0.0222223
-1.06634
1.06919
0.0246772
-0.0271997
-0.897585
0.900108
0.0293178
-0.0314691
-0.758907
0.761058
0.0333297
-0.0352742
-0.645616
0.647561
0.0367171
-0.0368575
-0.55033
0.55047
0.034385
-0.0273152
-0.434542
0.427472
0.0175964
-0.00742704
-0.23867
0.2285
0.0018861
-0.0406072
0.0387211
-0.0380409
0.0367176
0.00132324
-0.0127415
0.0206604
-0.298904
0.290985
-0.0273829
0.0302852
-0.452349
0.449447
-0.0304732
0.0293401
-0.549289
0.550422
-0.0273352
0.0254069
-0.643969
0.645897
-0.0231931
0.0210424
-0.758965
0.761116
-0.0185114
0.0160127
-0.899395
0.901894
-0.0130528
0.0101573
-1.0695
1.0724
-0.00677821
0.0035231
-1.27553
1.27879
0.000235635
-0.00387106
-1.52601
1.52964
0.00743566
-0.0109815
-1.52671
1.53026
0.0139471
-0.0169198
-1.27726
1.28023
0.0193825
-0.0218448
-1.07192
1.07438
0.0239115
-0.0260056
-0.902376
0.90447
0.027791
-0.0296369
-0.763027
0.764873
0.0312581
-0.0329647
-0.649368
0.651075
0.0337542
-0.033158
-0.550242
0.549646
0.0297607
-0.0223761
-0.420185
0.412801
0.0138307
-0.00576836
-0.219484
0.211421
0.00147382
-0.0370656
0.0355918
-0.0355634
0.0345466
0.00101683
-0.00993268
0.016612
-0.283712
0.277033
-0.0230562
0.0263998
-0.446306
0.442962
-0.0271566
0.0264385
-0.551343
0.552061
-0.0246628
0.0228628
-0.647806
0.649606
-0.020774
0.0187389
-0.763203
0.765238
-0.0163449
0.0139959
-0.904247
0.906596
-0.0112324
0.00852454
-1.07513
1.07783
-0.00534274
0.00223783
-1.28193
1.28503
0.00139009
-0.0049137
-1.5332
1.53673
0.00834918
-0.011712
-1.5337
1.53706
0.014458
-0.0171379
-1.28308
1.28576
0.0193117
-0.0214618
-1.07675
1.0789
0.023277
-0.0251296
-0.906425
0.908277
0.0267114
-0.0283437
-0.766604
0.768236
0.0297624
-0.0311238
-0.652638
0.654
0.0314159
-0.0300794
-0.548688
0.547351
0.0260529
-0.0187359
-0.40542
0.398103
0.0112685
-0.00467234
-0.204159
0.197563
0.00120004
-0.0342691
0.0330691
-0.033656
0.0328675
0.000788497
-0.00784516
0.0134419
-0.270925
0.265329
-0.0193878
0.0229163
-0.439518
0.43599
-0.0241395
0.0236628
-0.552694
0.553171
-0.0221478
0.0204527
-0.651406
0.653101
-0.0184533
0.0164981
-0.767226
0.769182
-0.0141894
0.0119219
-0.908836
0.911104
-0.00925527
0.00665221
-1.08041
1.08302
-0.00360627
0.000640307
-1.28802
1.29098
0.00282013
-0.00617259
-1.54014
1.54349
0.00941679
-0.012552
-1.54028
1.54341
0.0150788
-0.0175112
-1.28834
1.29077
0.0194614
-0.0213775
-1.08103
1.08295
0.0229903
-0.0246334
-0.910012
0.911655
0.0260318
-0.02747
-0.76976
0.771198
0.0286881
-0.0296615
-0.655164
0.656138
0.0295766
-0.0275631
-0.545668
0.543654
0.023122
-0.0160555
-0.390902
0.383835
0.00947892
-0.00391793
-0.191531
0.18597
0.00101123
-0.0319738
0.0309626
-0.0321778
0.0315671
0.000610699
-0.00622866
0.0108986
-0.260225
0.255555
-0.0162398
0.0197549
-0.432471
0.428955
-0.0212889
0.0210305
-0.55358
0.553838
-0.0197402
0.0180996
-0.65482
0.65646
-0.01615
0.0142379
-0.771104
0.773016
-0.0119806
0.00976432
-0.913266
0.915483
-0.0071583
0.00461864
-1.08551
1.08805
-0.00165644
-0.00120984
-1.29385
1.29671
0.00452493
-0.00770528
-1.54672
1.5499
0.0107537
-0.0136729
-1.5464
1.54932
0.0160049
-0.0182213
-1.29313
1.29535
0.0199669
-0.0216597
-1.08487
1.08656
0.023077
-0.0245196
-0.913178
0.914621
0.0257484
-0.0270082
-0.772535
0.773795
0.0280826
-0.0286341
-0.656909
0.65746
0.028156
-0.0255658
-0.541348
0.538758
0.0208599
-0.0141033
-0.376927
0.37017
0.00822321
-0.00339582
-0.180811
0.175984
0.000881283
-0.0300245
0.0291432
-0.0310378
0.0305719
0.000465862
-0.00492164
0.00878967
-0.251314
0.247446
-0.0134811
0.016833
-0.425534
0.422182
-0.0185362
0.0184593
-0.554054
0.554131
-0.0173533
0.0157424
-0.658156
0.659767
-0.0138075
0.0119023
-0.774908
0.776813
-0.00965427
0.00745339
-0.917599
0.9198
-0.0048752
0.00237258
-1.09048
1.09299
0.000533404
-0.00332785
-1.29948
1.30228
0.00653233
-0.00957248
-1.55297
1.55601
0.0124519
-0.015174
-1.55209
1.55481
0.0173189
-0.0193198
-1.29749
1.29949
0.0208595
-0.022331
-1.08828
1.08975
0.0235629
-0.0248217
-0.915945
0.917204
0.0258988
-0.0269978
-0.774957
0.776056
0.0278646
-0.0280491
-0.657815
0.658
0.0271445
-0.0240547
-0.535915
0.532825
0.0191748
-0.0127133
-0.363575
0.357114
0.00735543
-0.00304168
-0.171443
0.167129
0.000794738
-0.0283127
0.0275179
-0.0301758
0.0298333
0.000342558
-0.00382078
0.00698145
-0.243959
0.240798
-0.01101
0.0140875
-0.418989
0.415911
-0.0158316
0.0158975
-0.554196
0.55413
-0.014863
0.013316
-0.661425
0.662972
-0.011366
0.00943368
-0.778708
0.78064
-0.00715504
0.00493283
-0.921906
0.924128
-0.00234302
-0.000156109
-1.09539
1.09789
0.00303874
-0.00578947
-1.30498
1.30773
0.00891457
-0.0118436
-1.55895
1.56188
0.0145782
-0.0171196
-1.55739
1.55993
0.0190857
-0.0208752
-1.30143
1.30322
0.0222112
-0.0234649
-1.09128
1.09253
0.0245159
-0.0255966
-0.918341
0.919422
0.0265281
-0.0274653
-0.777046
0.777983
0.0280706
-0.0279538
-0.658035
0.657918
0.0265815
-0.0230259
-0.529505
0.52595
0.0180078
-0.0117794
-0.350789
0.344561
0.00678879
-0.00281741
-0.163012
0.15904
0.000742159
-0.0267564
0.0260142
-0.0295536
0.0293219
0.000231742
-0.00284975
0.00536895
-0.237983
0.235464
-0.00873334
0.0114521
-0.41304
0.410322
-0.0131214
0.0132548
-0.5541
0.553967
-0.0122529
0.010737
-0.664593
0.666109
-0.00874724
0.00675679
-0.782568
0.784558
-0.00440958
0.00212907
-0.926259
0.928539
0.000514732
-0.00304934
-1.1003
1.10283
0.00595018
-0.0086922
-1.31041
1.31315
0.0117709
-0.0146133
-1.56471
1.56756
0.0172208
-0.0195945
-1.56233
1.5647
0.02139
-0.0229723
-1.30495
1.30653
0.0241041
-0.0251373
-1.09387
1.0949
0.0260038
-0.0268993
-0.920375
0.921271
0.027674
-0.0284449
-0.778762
0.779532
0.0287658
-0.0283142
-0.657666
0.657214
0.0264766
-0.0224732
-0.522192
0.518189
0.0173118
-0.0112262
-0.338431
0.332345
0.00646405
-0.00269631
-0.155194
0.151427
0.000716515
-0.0252915
0.024575
-0.0291502
0.0290245
0.000125721
-0.00194442
0.00385843
-0.233272
0.231358
-0.00655204
0.00884048
-0.407851
0.405563
-0.0103256
0.0104466
-0.553927
0.553806
-0.00944094
0.00791528
-0.667736
0.669262
-0.00585491
0.00377367
-0.786547
0.788628
-0.00131925
-0.00105605
-0.930729
0.933104
0.00379528
-0.00640419
-1.10529
1.10789
0.00936565
-0.0121352
-1.31582
1.31859
0.015202
-0.017983
-1.57031
1.57309
0.0204811
-0.0226993
-1.56692
1.56914
0.0243308
-0.0257063
-1.30807
1.30944
0.0266291
-0.0274345
-1.09605
1.09686
0.0281054
-0.0288028
-0.922031
0.922728
0.0294208
-0.0300477
-0.780127
0.780754
0.0300154
-0.0291534
-0.656583
0.655721
0.0268348
-0.0223786
-0.513998
0.509542
0.0170396
-0.0109936
-0.326311
0.320265
0.00633713
-0.00265874
-0.147726
0.144048
0.000712652
-0.023867
0.0231543
-0.0289592
0.0289409
1.8326e-05
-0.00105612
0.00237698
-0.229762
0.228442
-0.00438364
0.00617643
-0.40356
0.401767
-0.00737351
0.00739942
-0.553842
0.553816
-0.00634171
0.00476582
-0.670938
0.672514
-0.00259316
0.00038553
-0.790708
0.792916
0.00221875
-0.00472993
-0.935389
0.9379
0.00761079
-0.0103359
-1.11043
1.11315
0.0134021
-0.0162372
-1.3213
1.32413
0.0193298
-0.0220779
-1.57579
1.57854
0.0244857
-0.0265573
-1.57119
1.57326
0.0280265
-0.0291937
-1.31077
1.31194
0.0299091
-0.0304867
-1.0978
1.09838
0.0309568
-0.0314445
-0.923284
0.923772
0.0318792
-0.0322444
-0.781115
0.78148
0.0319131
-0.0305617
-0.654671
0.65332
0.0277203
-0.0227679
-0.50489
0.499937
0.0171824
-0.0110562
-0.314216
0.30809
0.00638719
-0.00269526
-0.140386
0.136694
0.000728131
-0.0224408
0.0217127
-0.0289827
0.0290754
-9.26574e-05
-0.000135795
0.000854753
-0.22744
0.226721
-0.00214455
0.00337507
-0.400295
0.399064
-0.00418206
0.00402767
-0.554021
0.554176
-0.00285894
0.00117363
-0.674291
0.675976
0.00115035
-0.0035287
-0.795124
0.797502
0.00633334
-0.00902708
-0.940323
0.943016
0.0121009
-0.0149886
-1.11581
1.1187
0.0182087
-0.0211501
-1.32692
1.32986
0.0243054
-0.0270465
-1.58121
1.58395
0.0293804
-0.0313127
-1.57516
1.57709
0.0326202
-0.0335789
-1.31306
1.31402
0.034081
-0.0344199
-1.0991
1.09944
0.0346786
-0.0349461
-0.924108
0.924376
0.0351733
-0.0352041
-0.781532
0.781563
0.0345382
-0.0326148
-0.651765
0.649842
0.0291856
-0.0236625
-0.494769
0.489246
0.0177352
-0.0113964
-0.3019
0.295562
0.00659903
-0.00279818
-0.132972
0.129171
0.000760595
-0.0209755
0.0202149
-0.0292399
0.0294664
-0.000226466
0.000824364
-0.000766226
-0.226332
0.226274
0.000248877
0.000343745
-0.398188
0.397596
-0.000656531
0.000230482
-0.554651
0.555077
0.00112156
-0.00297708
-0.677916
0.679772
0.00551103
-0.00811028
-0.79988
0.802479
0.0111717
-0.0141007
-0.945624
0.948553
0.0174263
-0.0205295
-1.12153
1.12464
0.0239577
-0.0270495
-1.33276
1.33585
0.0303081
-0.0330679
-1.58662
1.58938
0.0353396
-0.0371358
-1.57883
1.58063
0.0382811
-0.0390273
-1.31489
1.31564
0.0393074
-0.0393875
-1.09992
1.1
0.0394148
-0.0394467
-0.92447
0.924502
0.0394843
-0.0390831
-0.781272
0.780871
0.0379892
-0.0353983
-0.647716
0.645125
0.0312885
-0.025085
-0.483469
0.477266
0.018695
-0.0119992
-0.289092
0.282396
0.00695887
-0.00295989
-0.125295
0.121296
0.000807538
-0.0194379
0.0186303
-0.0297643
0.0301363
-0.000371952
0.00190208
-0.00247194
-0.226537
0.227107
0.00281888
-0.002986
-0.397385
0.397552
0.00332109
-0.00413049
-0.555955
0.556765
0.00572861
-0.00782178
-0.681942
0.684035
0.01064
-0.013527
-0.805076
0.807963
0.016916
-0.0201443
-0.951402
0.95463
0.0237898
-0.0271673
-1.12769
1.13107
0.0308628
-0.0341516
-1.33892
1.34221
0.0375528
-0.0403524
-1.59207
1.59487
0.0425646
-0.0442124
-1.5822
1.58384
0.0451796
-0.0457123
-1.31626
1.31679
0.0457656
-0.0455683
-1.10021
1.10001
0.0453468
-0.0451294
-0.924316
0.924098
0.0449379
-0.0440272
-0.780149
0.779239
0.0424113
-0.0390217
-0.642333
0.638944
0.0340996
-0.0270643
-0.470753
0.463718
0.0200632
-0.0128528
-0.275495
0.268285
0.00745411
-0.00317292
-0.117181
0.112899
0.000866389
-0.0178004
0.016934
-0.0305834
0.031134
-0.000550618
0.00319226
-0.00455234
-0.228106
0.229466
0.00581243
-0.00678079
-0.398093
0.399061
0.00786468
-0.0091758
-0.558168
0.559479
0.0111501
-0.0135635
-0.686507
0.688921
0.0167537
-0.0200046
-0.810844
0.814095
0.0238023
-0.0274024
-0.957787
0.961388
0.0314443
-0.0351607
-1.13442
1.13813
0.0391849
-0.0427147
-1.34547
1.349
0.0462909
-0.0491438
-1.5976
1.60046
0.0512939
-0.0527774
-1.58524
1.58672
0.0535521
-0.0538572
-1.31713
1.31743
0.0536626
-0.0531656
-1.09992
1.09943
0.0526818
-0.0521936
-0.923609
0.923121
0.0516241
-0.0502419
-0.778095
0.776713
0.0479327
-0.0435806
-0.635344
0.630992
0.037677
-0.0296164
-0.456301
0.44824
0.0218289
-0.0139347
-0.260791
0.252897
0.00806433
-0.00342549
-0.108464
0.103825
0.000933077
-0.016041
0.0151079
-0.0317682
0.0325487
-0.000780589
0.0047452
-0.00701111
-0.231276
0.233542
0.00935157
-0.0112527
-0.400521
0.402423
0.0132014
-0.0151316
-0.561536
0.563466
0.0176156
-0.020444
-0.691782
0.69461
0.0241198
-0.0278224
-0.81734
0.821043
0.0321244
-0.0361815
-0.96493
0.968987
0.0407071
-0.0448323
-1.14183
1.14596
0.0492471
-0.053058
-1.35251
1.35632
0.0568322
-0.0597385
-1.60323
1.60614
0.0618084
-0.0630973
-1.58793
1.58922
0.0636413
-0.0636909
-1.31742
1.31747
0.063227
-0.0624005
-1.09903
1.0982
0.0616323
-0.0608695
-0.922295
0.921532
0.0598222
-0.05786
-0.775134
0.773171
0.0547129
-0.0491735
-0.626395
0.620856
0.0420607
-0.0327292
-0.439701
0.43037
0.0239539
-0.0152009
-0.244636
0.235883
0.00875453
-0.00369883
-0.0990008
0.0939451
0.00100145
-0.0141466
0.0131451
-0.0334122
0.0344913
-0.00107914
0.00668512
-0.0100549
-0.236274
0.239644
0.0136605
-0.0166398
-0.404955
0.407934
0.019589
-0.0222681
-0.566345
0.569024
0.0254153
-0.0287978
-0.697977
0.701359
0.0330981
-0.0373704
-0.824748
0.82902
0.0422951
-0.0469058
-0.973004
0.977615
0.0520062
-0.0566055
-1.15008
1.15468
0.0614583
-0.0655674
-1.36011
1.36422
0.0695269
-0.0724487
-1.60894
1.61186
0.0743892
-0.0754342
-1.59019
1.59123
0.0757004
-0.0754475
-1.31703
1.31677
0.0747023
-0.0735125
-1.09744
1.09625
0.0724481
-0.0713918
-0.920375
0.919319
0.0697813
-0.0670979
-0.771059
0.768375
0.0628859
-0.0558464
-0.615016
0.607977
0.0472282
-0.0363298
-0.420447
0.409549
0.0263476
-0.0165693
-0.226684
0.216906
0.00946614
-0.00396391
-0.0886859
0.0831836
0.00106257
-0.0121179
0.0110553
-0.0356422
0.0371357
-0.0014935
0.009248
-0.0139778
-0.243465
0.248195
0.0190884
-0.0233148
-0.411754
0.41598
0.0274239
-0.0310064
-0.572925
0.576508
0.0350002
-0.0391075
-0.705384
0.709492
0.0442074
-0.0491936
-0.833299
0.838286
0.0548753
-0.0601406
-0.982206
0.987471
0.0658991
-0.0710169
-1.15927
1.16439
0.0763174
-0.0806976
-1.36827
1.37265
0.0847778
-0.0876292
-1.61462
1.61747
0.0893473
-0.0900556
-1.59189
1.5926
0.0899898
-0.0894134
-1.31588
1.3153
0.0883178
-0.0867381
-1.09512
1.09354
0.0853661
-0.0838422
-0.917744
0.916221
0.0817256
-0.0780496
-0.765515
0.761839
0.0724861
-0.0635488
-0.60056
0.591623
0.0530564
-0.0402495
-0.397934
0.385127
0.0288405
-0.0179048
-0.206619
0.195683
0.01011
-0.00417949
-0.0774816
0.0715511
0.0011045
-0.00997481
0.00887031
-0.0386677
0.0407554
-0.00208769
0.0127804
-0.0192476
-0.253339
0.259807
0.0261659
-0.0318439
-0.42141
0.427088
0.0373185
-0.0420033
-0.581666
0.586351
0.0470501
-0.0520901
-0.714366
0.719406
0.0582247
-0.0640912
-0.843277
0.849144
0.0706644
-0.0766643
-0.992732
0.998732
0.0831201
-0.0887444
-1.16948
1.1751
0.0944283
-0.0989799
-1.37692
1.38147
0.103035
-0.105661
-1.62008
1.62271
0.107003
-0.10723
-1.59283
1.59305
0.106736
-0.105703
-1.31388
1.31285
0.104238
-0.102288
-1.09202
1.09007
0.100598
-0.0985145
-0.914044
0.911961
0.0958062
-0.0908052
-0.757934
0.752933
0.0834561
-0.072082
-0.582189
0.570815
0.0592606
-0.044176
-0.371485
0.3564
0.0311543
-0.0190069
-0.184214
0.172066
0.0105637
-0.00429324
-0.0654573
0.0591869
0.00111317
-0.00776195
0.00664878
-0.0428189
0.0458258
-0.0030069
0.0179098
-0.0266624
-0.266641
0.275393
0.0358051
-0.0432269
-0.434602
0.442024
0.0503171
-0.0563295
-0.593068
0.59908
0.0627712
-0.0690877
-0.725357
0.731674
0.0764604
-0.08332
-0.854986
0.861845
0.0908452
-0.0975695
-1.00471
1.01144
0.104636
-0.110625
-1.18062
1.18661
0.11648
-0.120974
-1.38578
1.39027
0.124729
-0.126876
-1.62495
1.6271
0.127623
-0.127187
-1.59269
1.59225
0.126132
-0.12454
-1.31087
1.30928
0.122693
-0.12033
-1.08807
1.0857
0.118207
-0.115571
-0.909061
0.906425
0.111955
-0.105173
-0.747588
0.740806
0.0954675
-0.0809882
-0.55879
0.544311
0.0653205
-0.0476146
-0.340402
0.322696
0.0328901
-0.0196165
-0.159433
0.146159
0.010682
-0.00424814
-0.0528332
0.0463994
0.00107445
-0.00555148
0.00447704
-0.0486831
0.0532386
-0.00455545
0.0258427
-0.03768
-0.284549
0.296386
0.0496973
-0.059463
-0.452403
0.462169
0.0686041
-0.0762215
-0.607711
0.615329
0.0843455
-0.0921868
-0.738822
0.746663
0.100874
-0.108682
-0.868636
0.876444
0.117004
-0.124224
-1.01804
1.02526
0.131571
-0.137575
-1.19231
1.19832
0.143186
-0.147238
-1.39431
1.39836
0.150283
-0.151601
-1.62868
1.62999
0.151456
-0.150108
-1.5911
1.58975
0.148317
-0.146074
-1.30659
1.30435
0.143784
-0.14096
-1.08314
1.08032
0.138354
-0.13505
-0.902694
0.899391
0.130068
-0.120732
-0.733412
0.724076
0.107857
-0.0894648
-0.528969
0.510576
0.0704294
-0.0498921
-0.304116
0.283579
0.0335626
-0.0194576
-0.132575
0.11847
0.0103269
-0.0039959
-0.0400131
0.0336821
0.000976315
-0.00343982
0.00246351
-0.0573686
0.0651332
-0.00776463
0.039713
-0.0560951
-0.309248
0.32563
0.0721643
-0.0850965
-0.476434
0.489367
0.0963906
-0.105517
-0.626105
0.635232
0.115287
-0.124513
-0.755032
0.764258
0.134252
-0.142556
-0.883955
0.892259
0.151045
-0.15813
-1.03208
1.03917
0.165074
-0.170468
-1.20372
1.20912
0.175199
-0.178228
-1.40166
1.40469
0.180004
-0.180023
-1.63049
1.63051
0.178602
-0.176062
-1.58753
1.58499
0.173337
-0.170308
-1.30083
1.2978
0.167495
-0.164145
-1.07708
1.07373
0.160941
-0.15655
-0.894439
0.890048
0.149529
-0.13652
-0.713717
0.700709
0.119353
-0.0961928
-0.490989
0.46783
0.073533
-0.0503262
-0.262454
0.239247
0.0327937
-0.0183882
-0.104436
0.090031
0.00945013
-0.00352339
-0.0275791
0.0216524
0.000810442
-0.00153583
0.000725391
-0.0723423
0.0767025
-0.00436014
0.0303784
-0.0447302
-0.344747
0.359099
0.0591421
-0.0710681
-0.508052
0.519978
0.0818938
-0.0921518
-0.648022
0.65828
0.103812
-0.114609
-0.772837
0.783634
0.126677
-0.137453
-0.899539
0.910315
0.149032
-0.159445
-1.04536
1.05577
0.170523
-0.180224
-1.21348
1.22318
0.190179
-0.198465
-1.40663
1.41491
0.20638
-0.212227
-1.62943
1.63528
0.216019
-0.218415
-1.58138
1.58378
0.219528
-0.220205
-1.29326
1.29394
0.220717
-0.220186
-1.06947
1.06894
0.218697
-0.21383
-0.883007
0.878141
0.203022
-0.182031
-0.686058
0.665067
0.154537
-0.119502
-0.443341
0.408306
0.0876163
-0.0570681
-0.216072
0.185524
0.0356127
-0.0191039
-0.0764241
0.0599153
0.00936426
-0.00327175
-0.0162053
0.0101128
0.000672813
9.85613e-05
-0.000771375
-0.084377
0.0824552
0.00192172
0.00833559
-0.017734
-0.376293
0.385691
0.0287616
-0.0374701
-0.536714
0.545423
0.0463334
-0.0549339
-0.671315
0.679916
0.0655739
-0.0756189
-0.793863
0.803909
0.0864597
-0.0963989
-0.920483
0.930422
0.107067
-0.116322
-1.06592
1.07518
0.126375
-0.134828
-1.23271
1.24117
0.143513
-0.150538
-1.42296
1.42998
0.156901
-0.161493
-1.64055
1.64514
0.164213
-0.165637
-1.58574
1.58716
0.165723
-0.165408
-1.29334
1.29302
0.165084
-0.164178
-1.06615
1.06524
0.161682
-0.15486
-0.868061
0.861239
0.142571
-0.122105
-0.63995
0.619484
0.0985306
-0.0715966
-0.37118
0.344246
0.0496997
-0.0308589
-0.155974
0.137133
0.0185377
-0.00961324
-0.0446385
0.035714
0.00454335
-0.00152234
-0.00429067
0.00126966
0.000277342
0.00164293
-0.00192027
-0.0859826
0.0830126
0.00296996
-0.000881302
-0.0045864
-0.397864
0.403332
0.0119717
-0.0184538
-0.55817
0.564652
0.0250942
-0.0325064
-0.691141
0.698554
0.0417763
-0.0505104
-0.812904
0.821638
0.0601501
-0.0688333
-0.939525
0.948209
0.0779202
-0.0862075
-1.08428
1.09256
0.0950174
-0.102546
-1.24922
1.25675
0.109864
-0.115665
-1.43642
1.44222
0.121033
-0.12458
-1.64924
1.65279
0.126341
-0.126911
-1.58816
1.58873
0.12637
-0.125528
-1.29186
1.29102
0.124327
-0.12276
-1.06122
1.05966
0.119627
-0.112063
-0.850423
0.842859
0.100104
-0.0819543
-0.596032
0.577882
0.0631456
-0.0436903
-0.31567
0.296215
0.0295497
-0.0182175
-0.118445
0.107113
0.01101
-0.00583052
-0.0269473
0.0217678
0.00282736
-0.000980485
0.00194332
-0.0037902
0.000191588
0.00240124
-0.00259283
-0.084731
0.0818413
0.00288966
-0.00494998
0.00217276
-0.412347
0.415124
0.0026634
-0.00760002
-0.574291
0.579227
0.0132013
-0.0194187
-0.707463
0.713681
0.0273801
-0.0348749
-0.829594
0.837089
0.0431083
-0.0505555
-0.956298
0.963745
0.058747
-0.0658006
-1.10039
1.10744
0.0734914
-0.0796104
-1.26385
1.26997
0.0859026
-0.0908068
-1.44781
1.45271
0.0950473
-0.0974378
-1.65601
1.6584
0.0985513
-0.09859
-1.58887
1.58891
0.0976279
-0.0959355
-1.28949
1.2878
0.0941995
-0.0919586
-1.05509
1.05285
0.0883084
-0.081209
-0.831394
0.824295
0.0704153
-0.0557247
-0.557303
0.542612
0.0418026
-0.0287485
-0.275835
0.262781
0.0197648
-0.01272
-0.0951539
0.088109
0.00811084
-0.00460417
-0.0160441
0.0125374
0.00239631
-0.000905728
0.00602944
-0.00752002
0.000203059
0.00294131
-0.00314437
-0.0831411
0.0805347
0.00260641
-0.00646013
0.00538617
-0.422083
0.423157
-0.00175489
-0.00194065
-0.587219
0.590915
0.00640657
-0.0119928
-0.72116
0.726746
0.0186643
-0.0252157
-0.84376
0.850311
0.0323168
-0.0387591
-0.970687
0.977129
0.0457605
-0.0519735
-1.11432
1.12054
0.058455
-0.063931
-1.2759
1.28138
0.0692371
-0.0732683
-1.4572
1.46123
0.0765735
-0.0781482
-1.66063
1.6622
0.0785456
-0.0777488
-1.58827
1.58747
0.076304
-0.074254
-1.28572
1.28367
0.0720261
-0.069049
-1.04812
1.04514
0.0653181
-0.0588706
-0.813223
0.806776
0.0500161
-0.0387158
-0.525885
0.514584
0.0289328
-0.0203829
-0.248494
0.239944
0.014619
-0.0100883
-0.0802038
0.0756731
0.00692412
-0.00424602
-0.00836355
0.00568546
0.00239222
-0.000978809
0.00940113
-0.0108145
0.000249224
0.00346799
-0.00371722
-0.0815681
0.0792896
0.00227849
-0.00666884
0.00620699
-0.428717
0.429179
-0.00404282
0.00105698
-0.597173
0.600158
0.00322358
-0.00796693
-0.73271
0.737453
0.0136504
-0.0192826
-0.855959
0.861591
0.0255192
-0.0312042
-0.983161
0.988846
0.0375016
-0.042859
-1.12641
1.13177
0.0485421
-0.053301
-1.28649
1.29125
0.0577702
-0.0610395
-1.4649
1.46817
0.0634869
-0.0646726
-1.66361
1.66479
0.0643329
-0.0630406
-1.58615
1.58486
0.0610654
-0.058474
-1.28114
1.27855
0.0559897
-0.0523724
-1.04036
1.03675
0.0484206
-0.0427876
-0.796615
0.790982
0.0356608
-0.0272667
-0.501415
0.493021
0.0205884
-0.0150979
-0.230109
0.224619
0.0115688
-0.00863748
-0.0702017
0.0672704
0.00634296
-0.00418896
-0.00237579
0.000221786
0.002514
-0.0011112
0.0125432
-0.013946
0.000308632
0.00404262
-0.00435125
-0.0802516
0.0784207
0.00183088
-0.00604454
0.00603627
-0.433506
0.433514
-0.00431014
0.00209958
-0.605754
0.607964
0.00181714
-0.00606237
-0.742618
0.746863
0.011359
-0.0161429
-0.866743
0.871527
0.0215322
-0.0264786
-0.994437
0.999384
0.0322958
-0.037014
-1.13709
1.14181
0.0418923
-0.0461462
-1.29573
1.29998
0.0503639
-0.053029
-1.47133
1.474
0.0549482
-0.0554133
-1.66544
1.66591
0.0547712
-0.0526206
-1.58319
1.58104
0.0503116
-0.0473544
-1.27548
1.27252
0.0442652
-0.0404081
-1.03188
1.02802
0.0362345
-0.0309242
-0.781662
0.776352
0.025365
-0.0190705
-0.482645
0.47635
0.0145462
-0.0112745
-0.217884
0.214613
0.00916858
-0.00733264
-0.0634314
0.0615955
0.00574759
-0.0040617
0.00249467
-0.00418056
0.00258089
-0.00121856
0.0155965
-0.0169588
0.000368847
0.00469528
-0.00506412
-0.0793797
0.0779044
0.00147528
-0.00514734
0.0053877
-0.437099
0.436858
-0.00389113
0.00186706
-0.613073
0.615097
0.00174871
-0.00550918
-0.751371
0.755131
0.00997328
-0.0144747
-0.876199
0.880701
0.0193362
-0.0242814
-1.00406
1.00901
0.0291552
-0.033474
-1.14655
1.15087
0.0382127
-0.0419275
-1.30401
1.30772
0.0452584
-0.0479029
-1.47643
1.47907
0.0494081
-0.0495066
-1.66626
1.66636
0.0482823
-0.0458785
-1.57887
1.57647
0.0431089
-0.0396062
-1.26889
1.26538
0.0361157
-0.0317554
-1.02298
1.01862
0.0273298
-0.0224657
-0.767936
0.763072
0.0175697
-0.0128402
-0.468175
0.463445
0.00983898
-0.00785725
-0.209982
0.208
0.00669461
-0.00572144
-0.0588649
0.0578918
0.00474714
-0.00356072
0.00634018
-0.00752659
0.0023854
-0.00119491
0.0184444
-0.0196349
0.00039294
0.00541606
-0.005809
-0.0790138
0.0777461
0.00126768
-0.00397656
0.00405672
-0.440103
0.440023
-0.00285002
0.000923562
-0.619619
0.621545
0.00235623
-0.00592085
-0.759356
0.762921
0.0101008
-0.0140847
-0.884943
0.888927
0.0189397
-0.0229306
-1.01329
1.01728
0.0275975
-0.0315492
-1.15528
1.15923
0.0359179
-0.0395488
-1.3113
1.31493
0.0428114
-0.0448193
-1.48132
1.48333
0.0461106
-0.0459644
-1.66617
1.66603
0.0446646
-0.0417391
-1.57368
1.57076
0.0386255
-0.0346514
-1.26162
1.25765
0.0307568
-0.0258708
-1.01319
1.00831
0.02122
-0.0163021
-0.755156
0.750238
0.0119575
-0.00809429
-0.456784
0.452921
0.00586629
-0.0047683
-0.204612
0.203514
0.00419935
-0.00380869
-0.0559797
0.0555891
0.00334793
-0.00268501
0.00903204
-0.00969496
0.00190291
-0.0010285
0.0207816
-0.021656
0.00036243
0.0061085
-0.00647093
-0.078909
0.0779769
0.000932105
-0.00288988
0.00254253
-0.443018
0.443366
-0.00156443
-0.000367537
-0.625271
0.627203
0.00326028
-0.00662613
-0.766646
0.770012
0.0105416
-0.0145683
-0.892733
0.89676
0.0186766
-0.0227179
-1.02142
1.02547
0.0271928
-0.0307618
-1.16354
1.16711
0.0350107
-0.0383561
-1.31825
1.3216
0.0413459
-0.0435294
-1.48561
1.48779
0.0448151
-0.0443748
-1.66571
1.66527
0.0426336
-0.0396804
-1.56774
1.56479
0.036412
-0.0320103
-1.25319
1.24879
0.0276343
-0.0225608
-1.00266
0.997585
0.0172286
-0.0122823
-0.742561
0.737615
0.00821668
-0.00476299
-0.447221
0.443767
0.00295585
-0.00211582
-0.200761
0.199921
0.00188212
-0.00184943
-0.0543574
0.0543247
0.00179801
-0.00161567
0.0105877
-0.01077
0.00126874
-0.000762214
0.022401
-0.0229075
0.000299748
0.00667383
-0.00697358
-0.0792063
0.0784527
0.000753646
-0.00195122
0.00167186
-0.446024
0.446303
-0.000218084
-0.00151825
-0.630874
0.632611
0.004541
-0.00772311
-0.773288
0.77647
0.0114131
-0.0149562
-0.900414
0.903957
0.0191029
-0.0227241
-1.02945
1.03307
0.0270182
-0.030902
-1.17107
1.17496
0.0345968
-0.0380762
-1.32489
1.32837
0.0412289
-0.0431895
-1.48972
1.49168
0.0444195
-0.0442664
-1.66485
1.66469
0.0424039
-0.0394183
-1.56142
1.55844
0.0357452
-0.031143
-1.24411
1.23951
0.0266054
-0.0210884
-0.99154
0.986023
0.0156543
-0.0103307
-0.730061
0.724738
0.00621098
-0.00286369
-0.438287
0.43494
0.00104124
-0.000226555
-0.197607
0.196792
1.98449e-05
-0.000162679
-0.0535159
0.0536588
0.000381408
-0.000576817
0.0111599
-0.0109645
0.000592181
-0.000442233
0.0232293
-0.0233792
0.000202953
0.00706006
-0.00726302
-0.0798055
0.0792303
0.000575212
-0.000886313
0.000446311
-0.449109
0.449549
0.000832414
-0.00284609
-0.635983
0.637997
0.00577091
-0.00875739
-0.779575
0.782561
0.0124829
-0.0158196
-0.907446
0.910782
0.0197331
-0.0234013
-1.03713
1.0408
0.0275005
-0.0312363
-1.17862
1.18236
0.0350117
-0.0383578
-1.33167
1.33502
0.0414767
-0.0439505
-1.4938
1.49628
0.0452703
-0.0449935
-1.66427
1.664
0.0433335
-0.0401088
-1.55508
1.55186
0.0364822
-0.031889
-1.23457
1.22998
0.0269366
-0.0212015
-0.979796
0.974061
0.0155893
-0.00982529
-0.71742
0.711656
0.00558773
-0.00205735
-0.429658
0.426127
0.000179959
0.000860544
-0.194544
0.193503
-0.00114606
0.00100331
-0.053007
0.0531498
-0.000689674
0.000280825
0.0110089
-0.0106001
-1.55674e-05
-0.000121753
0.023328
-0.0231906
0.000100658
0.00724822
-0.00734888
-0.0806491
0.080201
0.000448108