/*--------------------------------*- C++ -*----------------------------------*\
  =========                 |
  \\      /  F ield         | OpenFOAM: The Open Source CFD Toolbox
   \\    /   O peration     | Website:  https://openfoam.org
    \\  /    A nd           | Version:  6
     \\/     M anipulation  |
\*---------------------------------------------------------------------------*/
FoamFile
{
    version     2.0;
    format      ascii;
    class       volVectorField;
    location    "99";
    object      U;
}
// * * * * * * * * * * * * * * * * * * * * * * * * * * * * * * * * * * * * * //

dimensions      [0 1 -1 0 0 0 0];

internalField   nonuniform List<vector> 
8800
(
(0.987184 -0.0766652 0)
(1.00189 -0.0551899 0)
(0.999722 -0.0285477 0)
(1.00003 -0.0151426 0)
(1.0001 -0.00854376 0)
(1.00012 -0.00504573 0)
(1.00008 -0.00299985 0)
(1.00002 -0.00169878 0)
(0.999991 -0.000792101 0)
(1.00006 -7.56208e-05 0)
(0.999959 0.000657232 0)
(1.00001 0.00142506 0)
(1.00006 0.00242945 0)
(1.00007 0.00399872 0)
(1.00006 0.00663266 0)
(1.00005 0.0113721 0)
(0.999956 0.0208158 0)
(0.999174 0.0386705 0)
(1.0071 0.0724575 0)
(0.771215 0.0366617 0)
(0.363081 -0.0160163 0)
(1.04332 -0.0768108 0)
(1.0846 -0.0704387 0)
(1.0452 -0.0535319 0)
(1.02329 -0.0388819 0)
(1.01203 -0.0262024 0)
(1.00644 -0.0168383 0)
(1.0036 -0.0103023 0)
(1.00215 -0.00563757 0)
(1.00143 -0.00197423 0)
(1.00128 0.00134857 0)
(1.00166 0.00473759 0)
(1.00269 0.00865852 0)
(1.00468 0.0139761 0)
(1.00861 0.0216842 0)
(1.01657 0.0326506 0)
(1.03252 0.0465619 0)
(1.06269 0.061678 0)
(1.09187 0.0761057 0)
(0.838664 0.0565645 0)
(0.216874 -0.00242856 0)
(1.07592 -0.0501214 0)
(1.09989 -0.0482895 0)
(1.06466 -0.0404374 0)
(1.04005 -0.033574 0)
(1.02393 -0.0260459 0)
(1.01413 -0.0184538 0)
(1.00856 -0.0116232 0)
(1.00558 -0.00574488 0)
(1.0043 -0.000319769 0)
(1.00463 0.0049309 0)
(1.00661 0.0103226 0)
(1.01063 0.016381 0)
(1.01794 0.0233977 0)
(1.03053 0.0308594 0)
(1.05062 0.0378823 0)
(1.08037 0.0445621 0)
(1.10627 0.0513702 0)
(0.942495 0.0416305 0)
(0.216113 0.00246302 0)
(0.175222 -0.000814975 0)
(1.01776 -0.0354624 0)
(1.10523 -0.0413442 0)
(1.07829 -0.0360198 0)
(1.0535 -0.0300766 0)
(1.03624 -0.0244899 0)
(1.02403 -0.0187468 0)
(1.0159 -0.0126502 0)
(1.01102 -0.00644686 0)
(1.00879 -0.000100028 0)
(1.00934 0.00616217 0)
(1.01266 0.0121591 0)
(1.01889 0.0179499 0)
(1.02875 0.0235131 0)
(1.04318 0.0288064 0)
(1.0637 0.0342777 0)
(1.09356 0.0402547 0)
(1.09339 0.0420043 0)
(0.827035 0.0229333 0)
(0.173939 0.000855021 0)
(0.154048 -0.000608624 0)
(0.956329 -0.0254271 0)
(1.10353 -0.0350744 0)
(1.08773 -0.0325839 0)
(1.06178 -0.0279186 0)
(1.04417 -0.0228789 0)
(1.03169 -0.0176109 0)
(1.02282 -0.012056 0)
(1.01698 -0.00609867 0)
(1.0141 0.00038745 0)
(1.01475 0.00685888 0)
(1.01878 0.0127385 0)
(1.0258 0.0179767 0)
(1.03606 0.0228786 0)
(1.0506 0.0276263 0)
(1.07184 0.0321397 0)
(1.10005 0.0360609 0)
(1.06799 0.0340973 0)
(0.739303 0.0143418 0)
(0.152111 0.000654134 0)
(0.139713 -0.000464529 0)
(0.899545 -0.0190341 0)
(1.09592 -0.0300019 0)
(1.09583 -0.0290894 0)
(1.06935 -0.0253401 0)
(1.05091 -0.0211789 0)
(1.03796 -0.0163776 0)
(1.02882 -0.0110597 0)
(1.02267 -0.00528753 0)
(1.01949 0.00106181 0)
(1.02007 0.00738624 0)
(1.02422 0.0130152 0)
(1.03135 0.0179109 0)
(1.04181 0.0223572 0)
(1.05692 0.0263073 0)
(1.07911 0.0297457 0)
(1.1022 0.0323521 0)
(1.03577 0.0282131 0)
(0.672565 0.0102495 0)
(0.136972 0.000517046 0)
(0.129218 -0.000358701 0)
(0.850119 -0.0146587 0)
(1.08363 -0.0258418 0)
(1.10157 -0.0261015 0)
(1.07625 -0.0227915 0)
(1.05728 -0.0191189 0)
(1.04387 -0.0148357 0)
(1.03437 -0.00987132 0)
(1.02796 -0.00430108 0)
(1.02457 0.00187619 0)
(1.02499 0.00799169 0)
(1.02909 0.0133419 0)
(1.03632 0.0178117 0)
(1.04704 0.0216499 0)
(1.06254 0.0249303 0)
(1.08517 0.0278422 0)
(1.10122 0.0295688 0)
(1.00066 0.0237313 0)
(0.6205 0.00789738 0)
(0.125498 0.000420506 0)
(0.121234 -0.000277485 0)
(0.808195 -0.0114854 0)
(1.06851 -0.0221988 0)
(1.10518 -0.023418 0)
(1.08257 -0.0205132 0)
(1.06318 -0.0170471 0)
(1.04949 -0.0130609 0)
(1.0397 -0.00842331 0)
(1.03299 -0.00311448 0)
(1.02933 0.00285264 0)
(1.02955 0.00872542 0)
(1.03359 0.0137268 0)
(1.04086 0.0177088 0)
(1.05166 0.021036 0)
(1.06737 0.0238993 0)
(1.09034 0.0265038 0)
(1.09731 0.0273222 0)
(0.965105 0.0202327 0)
(0.578543 0.00637771 0)
(0.116322 0.000351016 0)
(0.115074 -0.000213611 0)
(0.773005 -0.00910474 0)
(1.05195 -0.0189815 0)
(1.10767 -0.0209213 0)
(1.08852 -0.0183776 0)
(1.06874 -0.0150461 0)
(1.0548 -0.0112098 0)
(1.0448 -0.00676943 0)
(1.03783 -0.0016886 0)
(1.03387 0.00403556 0)
(1.03384 0.00961498 0)
(1.03774 0.0142391 0)
(1.04492 0.0177835 0)
(1.05569 0.0207202 0)
(1.07159 0.0232513 0)
(1.0942 0.0255008 0)
(1.09051 0.0254879 0)
(0.930396 0.0175535 0)
(0.543664 0.00534852 0)
(0.108713 0.000301556 0)
(0.110306 -0.000161937 0)
(0.743615 -0.00724931 0)
(1.03504 -0.0161181 0)
(1.10925 -0.0185539 0)
(1.0942 -0.0163045 0)
(1.07413 -0.0130528 0)
(1.05992 -0.00929108 0)
(1.04972 -0.00495616 0)
(1.0425 -3.31709e-05 0)
(1.03822 0.00546233 0)
(1.03786 0.0107358 0)
(1.04152 0.0149993 0)
(1.04852 0.0181518 0)
(1.05922 0.0207407 0)
(1.0753 0.0229729 0)
(1.09674 0.0248311 0)
(1.08119 0.0240247 0)
(0.897069 0.0155452 0)
(0.513795 0.00464095 0)
(0.102185 0.000267457 0)
(0.106649 -0.000118668 0)
(0.719217 -0.00574451 0)
(1.01861 -0.0135358 0)
(1.11005 -0.0162513 0)
(1.09981 -0.0142592 0)
(1.07948 -0.0110043 0)
(1.06496 -0.00725484 0)
(1.05452 -0.00296297 0)
(1.04703 0.0018644 0)
(1.04237 0.00717632 0)
(1.0416 0.0121703 0)
(1.04494 0.0160977 0)
(1.0517 0.0188729 0)
(1.06231 0.0211252 0)
(1.07856 0.0230807 0)
(1.09788 0.0245082 0)
(1.06971 0.0229329 0)
(0.865208 0.0140924 0)
(0.487461 0.00416514 0)
(0.0963929 0.000245704 0)
(0.10392 -8.07998e-05 0)
(0.699182 -0.00447351 0)
(1.00328 -0.0111659 0)
(1.11024 -0.0139764 0)
(1.10529 -0.0121553 0)
(1.08485 -0.00884545 0)
(1.07001 -0.00504605 0)
(1.05928 -0.000733461 0)
(1.05145 0.00405865 0)
(1.04634 0.0092401 0)
(1.04507 0.0139907 0)
(1.04802 0.0176008 0)
(1.05449 0.020003 0)
(1.06498 0.0219253 0)
(1.08134 0.023606 0)
(1.09792 0.0246848 0)
(1.05628 0.0222319 0)
(0.834608 0.0131133 0)
(0.463544 0.00386732 0)
(0.0910697 0.000233962 0)
(0.102001 -4.56035e-05 0)
(0.683052 -0.00334841 0)
(0.98953 -0.00893607 0)
(1.11004 -0.01164 0)
(1.11064 -0.00990775 0)
(1.09034 -0.00651212 0)
(1.07514 -0.00259858 0)
(1.06408 0.00180394 0)
(1.05583 0.00662639 0)
(1.05017 0.0117321 0)
(1.0483 0.0162734 0)
(1.05077 0.0195808 0)
(1.0569 0.0216072 0)
(1.06722 0.0231971 0)
(1.08359 0.0245836 0)
(1.09704 0.0252025 0)
(1.04104 0.0219295 0)
(0.804886 0.0125318 0)
(0.441149 0.00370885 0)
(0.0860053 0.000230067 0)
(0.100837 -1.07797e-05 0)
(0.670541 -0.00229881 0)
(0.977725 -0.0067704 0)
(1.10977 -0.00918421 0)
(1.116 -0.00745509 0)
(1.09603 -0.00392678 0)
(1.08044 0.00016881 0)
(1.06898 0.00473378 0)
(1.06022 0.00965683 0)
(1.0539 0.0147449 0)
(1.0513 0.0191107 0)
(1.0532 0.0221244 0)
(1.05891 0.0237743 0)
(1.06904 0.0250243 0)
(1.08539 0.026114 0)
(1.09482 0.0262079 0)
(1.02399 0.0220334 0)
(0.775563 0.0123029 0)
(0.419552 0.00366572 0)
(0.0810325 0.000232755 0)
(0.100421 2.62973e-05 0)
(0.661509 -0.00126776 0)
(0.968191 -0.00459504 0)
(1.1098 -0.00654755 0)
(1.12152 -0.00472315 0)
(1.10201 -0.001 0)
(1.08601 0.0033523 0)
(1.07406 0.00815716 0)
(1.06469 0.0132565 0)
(1.05756 0.0183882 0)
(1.05408 0.0226123 0)
(1.05529 0.0253398 0)
(1.06054 0.0266171 0)
(1.07041 0.0275044 0)
(1.08662 0.0282581 0)
(1.09116 0.0277304 0)
(1.00501 0.0225889 0)
(0.74609 0.0124027 0)
(0.398121 0.00372474 0)
(0.0760089 0.000241325 0)
(0.100763 5.97715e-05 0)
(0.65595 -0.000196263 0)
(0.961239 -0.00233374 0)
(1.11046 -0.00366112 0)
(1.12737 -0.0016257 0)
(1.1084 0.00237058 0)
(1.09193 0.00706278 0)
(1.07941 0.0121935 0)
(1.0693 0.0175518 0)
(1.0612 0.022794 0)
(1.05667 0.0269098 0)
(1.05706 0.0293594 0)
(1.06174 0.0302578 0)
(1.07129 0.0307589 0)
(1.08699 0.0311326 0)
(1.08575 0.0298601 0)
(0.983871 0.0236335 0)
(0.715846 0.0128157 0)
(0.376282 0.00387591 0)
(0.0708082 0.000254866 0)
(0.101957 0.000115477 0)
(0.654026 0.000959726 0)
(0.957199 9.15475e-05 0)
(1.11214 -0.000444718 0)
(1.13374 0.00193773 0)
(1.11532 0.00630434 0)
(1.09833 0.0114335 0)
(1.08513 0.0169888 0)
(1.07412 0.0226971 0)
(1.06485 0.0281183 0)
(1.05906 0.0321573 0)
(1.05847 0.0343375 0)
(1.06248 0.0348319 0)
(1.07164 0.0349257 0)
(1.08636 0.0348766 0)
(1.07831 0.0326816 0)
(0.960173 0.0252055 0)
(0.684143 0.0135313 0)
(0.353491 0.00410948 0)
(0.0653205 0.000272359 0)
(0.104147 0.000167577 0)
(0.655906 0.00208901 0)
(0.956436 0.00277592 0)
(1.11531 0.00320688 0)
(1.14088 0.0060808 0)
(1.12293 0.0109469 0)
(1.10534 0.0166287 0)
(1.09132 0.0227221 0)
(1.07922 0.0288797 0)
(1.06855 0.0345473 0)
(1.06125 0.0385289 0)
(1.05951 0.0403975 0)
(1.06271 0.0404956 0)
(1.07139 0.0401549 0)
(1.08449 0.0395871 0)
(1.0685 0.0362979 0)
(0.933379 0.0273497 0)
(0.650239 0.0145397 0)
(0.329246 0.00441475 0)
(0.0594563 0.000292573 0)
(0.10744 0.000231617 0)
(0.662235 0.00358147 0)
(0.959294 0.00573298 0)
(1.12044 0.00743281 0)
(1.14903 0.0109473 0)
(1.13141 0.0164814 0)
(1.11313 0.0228512 0)
(1.09812 0.0296126 0)
(1.08468 0.0363264 0)
(1.07231 0.0423035 0)
(1.06323 0.0462293 0)
(1.06017 0.0477733 0)
(1.0624 0.0474386 0)
(1.07051 0.0466207 0)
(1.08138 0.0454301 0)
(1.05582 0.0408296 0)
(0.902774 0.0300997 0)
(0.613327 0.0158197 0)
(0.303085 0.0047753 0)
(0.0531501 0.000313669 0)
(0.112125 0.000319255 0)
(0.673346 0.00533802 0)
(0.966353 0.00924622 0)
(1.12804 0.0123972 0)
(1.15853 0.0167537 0)
(1.14102 0.0231509 0)
(1.12188 0.03037 0)
(1.10564 0.0379435 0)
(1.09058 0.0453172 0)
(1.07615 0.0516462 0)
(1.06497 0.0554897 0)
(1.06032 0.0566779 0)
(1.06149 0.0558633 0)
(1.0689 0.0545226 0)
(1.07694 0.0525945 0)
(1.03962 0.0463841 0)
(0.867451 0.03346 0)
(0.572563 0.0173247 0)
(0.274625 0.00516388 0)
(0.0463743 0.000332967 0)
(0.11856 0.0004361 0)
(0.690059 0.0075248 0)
(0.978466 0.0135365 0)
(1.13869 0.0183337 0)
(1.16975 0.0237667 0)
(1.15202 0.0312813 0)
(1.13181 0.0395395 0)
(1.11403 0.0480781 0)
(1.09694 0.0561986 0)
(1.08004 0.0628825 0)
(1.06641 0.0665712 0)
(1.05986 0.0673061 0)
(1.05994 0.0659732 0)
(1.06665 0.0640573 0)
(1.07081 0.0612662 0)
(1.01901 0.0530265 0)
(0.826302 0.0373794 0)
(0.527117 0.018963 0)
(0.243631 0.00553755 0)
(0.039158 0.000346864 0)
(0.127275 0.000599282 0)
(0.713399 0.0103846 0)
(0.996372 0.0188662 0)
(1.15304 0.0255868 0)
(1.18318 0.0323665 0)
(1.16477 0.0413305 0)
(1.14315 0.0508437 0)
(1.12338 0.0604916 0)
(1.10377 0.0693963 0)
(1.08391 0.0763568 0)
(1.06745 0.0797418 0)
(1.05877 0.0798963 0)
(1.05768 0.0779726 0)
(1.06345 0.0753831 0)
(1.06241 0.0714619 0)
(0.992807 0.0607655 0)
(0.77804 0.041706 0)
(0.476291 0.0205766 0)
(0.210116 0.00583544 0)
(0.0316075 0.000351019 0)
(0.139082 0.000838632 0)
(0.744746 0.0142995 0)
(1.02124 0.0257135 0)
(1.1719 0.0347072 0)
(1.19949 0.0431648 0)
(1.17966 0.0539872 0)
(1.15609 0.0649789 0)
(1.13372 0.0758202 0)
(1.11096 0.0854279 0)
(1.0876 0.0924427 0)
(1.06795 0.0952631 0)
(1.05697 0.094657 0)
(1.05475 0.0921085 0)
(1.05898 0.0887304 0)
(1.05086 0.0833736 0)
(0.959463 0.0694605 0)
(0.721279 0.0461362 0)
(0.419709 0.0219255 0)
(0.17447 0.00598061 0)
(0.0239238 0.000341025 0)
(0.155288 0.00121282 0)
(0.786102 0.0199189 0)
(1.05475 0.0348698 0)
(1.19623 0.0466556 0)
(1.21957 0.0575821 0)
(1.19707 0.0703263 0)
(1.17071 0.0829367 0)
(1.14491 0.0948756 0)
(1.11827 0.104887 0)
(1.09086 0.111529 0)
(1.06769 0.113373 0)
(1.05433 0.111757 0)
(1.05105 0.108491 0)
(1.05306 0.104367 0)
(1.03496 0.096936 0)
(0.916965 0.0787315 0)
(0.654743 0.0501593 0)
(0.357634 0.022688 0)
(0.137596 0.0058911 0)
(0.0164073 0.000313392 0)
(0.178143 0.00186168 0)
(0.840701 0.0283993 0)
(1.0998 0.0479327 0)
(1.22713 0.063298 0)
(1.24385 0.0772116 0)
(1.21709 0.0920224 0)
(1.18677 0.10608 0)
(1.15652 0.118636 0)
(1.12525 0.128391 0)
(1.09329 0.133954 0)
(1.06642 0.134244 0)
(1.05062 0.131283 0)
(1.04638 0.127162 0)
(1.04555 0.12203 0)
(1.01291 0.111852 0)
(0.862848 0.0878668 0)
(0.577777 0.0530408 0)
(0.291444 0.0225131 0)
(0.101005 0.00550348 0)
(0.00944446 0.000266035 0)
(0.211145 0.00329748 0)
(0.914417 0.0425119 0)
(1.15939 0.0688086 0)
(1.26492 0.0881516 0)
(1.27219 0.105193 0)
(1.23912 0.121527 0)
(1.20342 0.136077 0)
(1.16772 0.148106 0)
(1.13121 0.156474 0)
(1.09444 0.159954 0)
(1.06383 0.157964 0)
(1.0457 0.153247 0)
(1.04057 0.148139 0)
(1.03555 0.14175 0)
(0.982065 0.127465 0)
(0.79436 0.0956825 0)
(0.491405 0.053922 0)
(0.224341 0.0212026 0)
(0.0669286 0.00481636 0)
(0.00351651 0.000198301 0)
(0.256177 0.00976263 9.42505e-21)
(1.01104 0.0704636 8.09252e-21)
(1.23109 0.104336 -2.82974e-21)
(1.30678 0.125223 0)
(1.30161 0.145301 -7.24205e-35)
(1.26088 0.161254 1.05957e-21)
(1.21906 0.174462 -1.91397e-21)
(1.17745 0.184508 0)
(1.13541 0.190421 3.9629e-35)
(1.09359 0.19107 -2.39626e-21)
(1.0591 0.186412 0)
(1.03876 0.179985 -2.87203e-21)
(1.03355 0.174722 -8.49494e-21)
(1.0208 0.167054 -4.02948e-21)
(0.936284 0.145647 -1.21476e-21)
(0.703396 0.102261 -7.21586e-22)
(0.390918 0.0525207 0)
(0.155962 0.0190361 5.04646e-22)
(0.0355084 0.00395812 5.9762e-22)
(-0.00146818 7.92742e-05 1.09304e-20)
(0.287723 0.0255501 6.60986e-21)
(1.09143 0.114708 1.19003e-22)
(1.29023 0.154932 7.40401e-22)
(1.34498 0.175844 0)
(1.32771 0.195947 -3.60918e-21)
(1.27995 0.209871 -4.11439e-21)
(1.23214 0.220939 -1.91371e-21)
(1.1847 0.228753 -6.83411e-21)
(1.13708 0.232299 0)
(1.09006 0.230408 1.01179e-20)
(1.05148 0.223451 1.00716e-20)
(1.02842 0.215445 2.99435e-21)
(1.02024 0.209076 1.09933e-20)
(0.992175 0.197531 1.55396e-20)
(0.859979 0.164603 0)
(0.576285 0.106337 2.18906e-20)
(0.275843 0.0492025 3.13828e-20)
(0.0880602 0.0156533 3.49153e-20)
(0.00632096 0.00195821 -4.00466e-20)
(-0.00586339 -0.000472856 -7.64189e-22)
(0.289809 0.0434898 0)
(1.14351 0.17181 1.06807e-21)
(1.33119 0.216778 0)
(1.37515 0.237502 -4.52115e-21)
(1.34866 0.254465 0)
(1.29498 0.264503 -7.95106e-21)
(1.24161 0.271907 3.86513e-21)
(1.1887 0.2763 -1.3611e-20)
(1.13589 0.276562 -3.31928e-22)
(1.08411 0.271452 5.18008e-21)
(1.04192 0.261813 2.20215e-20)
(1.01651 0.252061 -2.44192e-23)
(1.00452 0.243978 -7.95581e-21)
(0.959231 0.227181 -1.45058e-20)
(0.785781 0.180741 1.71922e-20)
(0.477707 0.107557 -3.04138e-20)
(0.204293 0.0454314 -4.00154e-21)
(0.0502972 0.0122286 0)
(-0.00885301 -0.000404023 -3.322e-24)
(-0.00798705 -0.00112184 0)
(0.283399 0.058488 1.20922e-20)
(1.17271 0.232727 -6.14614e-21)
(1.35741 0.283381 -5.04686e-21)
(1.39561 0.304412 2.07183e-21)
(1.36287 0.317262 -3.47536e-21)
(1.30484 0.322718 1.64608e-20)
(1.24698 0.325698 7.96365e-21)
(1.18945 0.325924 0)
(1.13214 0.322233 -2.56273e-20)
(1.07621 0.31335 0)
(1.03092 0.300688 -1.14356e-20)
(1.00349 0.28901 -1.42377e-20)
(0.987247 0.278501 -8.59982e-21)
(0.925058 0.255284 -1.04742e-20)
(0.720326 0.194692 0)
(0.406226 0.10891 0)
(0.158006 0.0429781 -2.58695e-20)
(0.0262455 0.00904187 5.10353e-21)
(-0.0187103 -0.00297282 -3.01015e-21)
(-0.00938968 -0.00182676 -3.56562e-21)
(0.275393 0.0715645 -3.19567e-21)
(1.18641 0.293531 0)
(1.37255 0.350948 9.36148e-21)
(1.40743 0.372505 5.55589e-21)
(1.37043 0.381334 8.07386e-21)
(1.30929 0.382175 0)
(1.24801 0.380568 7.63992e-21)
(1.18681 0.376357 1.47974e-20)
(1.1258 0.36837 1.2985e-20)
(1.06639 0.355375 2.40197e-20)
(1.01848 0.339412 0)
(0.989282 0.325585 -3.04228e-20)
(0.968647 0.312235 -1.83808e-20)
(0.891321 0.281679 -1.08816e-20)
(0.664637 0.207422 6.66791e-20)
(0.354586 0.110944 7.8957e-21)
(0.126706 0.0412548 3.71879e-20)
(0.00908464 0.00574734 -1.75758e-19)
(-0.0263567 -0.00582955 1.04094e-19)
(-0.0105654 -0.00259199 -1.27067e-19)
(0.267364 0.0832349 5.43061e-22)
(1.18997 0.352188 5.04982e-22)
(1.37948 0.417487 -7.89947e-22)
(1.4123 0.439881 -4.95911e-21)
(1.37229 0.444919 -6.39886e-21)
(1.30886 0.441283 3.55786e-22)
(1.24497 0.435181 -8.23944e-21)
(1.18087 0.426533 1.50846e-20)
(1.11686 0.414156 -2.77289e-20)
(1.05458 0.396885 0)
(1.00451 0.377452 -1.37192e-20)
(0.973785 0.361311 -3.02062e-22)
(0.948928 0.34482 -2.0014e-20)
(0.858781 0.306428 0)
(0.617966 0.219327 -1.4353e-20)
(0.316576 0.113675 -3.39358e-20)
(0.103813 0.0399448 9.01631e-20)
(-0.00455011 0.00225517 -8.87727e-20)
(-0.0330127 -0.00898539 1.26186e-19)
(-0.0116507 -0.00341962 -1.32778e-19)
(0.260204 0.0938596 -1.16369e-22)
(1.18693 0.407921 4.57259e-22)
(1.38037 0.481913 -1.06627e-21)
(1.41168 0.505412 1.66131e-21)
(1.3695 0.506991 -3.11955e-21)
(1.30438 0.499105 0)
(1.23845 0.488696 -7.47697e-21)
(1.172 0.475727 -1.5665e-20)
(1.10551 0.45899 -1.43019e-20)
(1.04082 0.437381 0)
(0.988989 0.414363 -1.40019e-20)
(0.957048 0.395734 -1.74323e-20)
(0.928411 0.37587 2.15419e-20)
(0.827897 0.329503 -1.3114e-20)
(0.57907 0.230553 -6.19107e-20)
(0.287862 0.116943 3.65855e-20)
(0.0859826 0.0387951 1.07987e-20)
(-0.0164589 -0.00158268 0)
(-0.03954 -0.0125466 -1.20752e-19)
(-0.0128255 -0.00434858 -4.47482e-21)
(0.254121 0.103787 8.18368e-22)
(1.1796 0.460518 -1.11062e-21)
(1.37672 0.543662 2.53367e-22)
(1.40679 0.568433 6.24202e-21)
(1.36302 0.566913 -1.08255e-20)
(1.29665 0.555085 1.43062e-20)
(1.2291 0.540616 1.60064e-20)
(1.1607 0.523506 -2.4909e-20)
(1.09209 0.502501 8.87592e-21)
(1.02535 0.476545 -5.80724e-20)
(0.972066 0.449829 -1.58336e-20)
(0.939181 0.428509 0)
(0.907323 0.405075 2.32171e-20)
(0.798778 0.350772 2.7787e-20)
(0.546615 0.241089 3.31803e-20)
(0.265635 0.120418 -3.93595e-20)
(0.0714603 0.0374755 -1.16137e-20)
(-0.0273989 -0.00593752 1.36876e-20)
(-0.0463573 -0.0166614 0)
(-0.0142462 -0.00544426 -9.61954e-21)
(0.249051 0.113085 -1.38501e-20)
(1.16975 0.510016 7.30507e-21)
(1.36984 0.602687 1.35776e-22)
(1.39866 0.628607 3.27694e-21)
(1.35366 0.624309 -4.46587e-21)
(1.28637 0.608865 -8.53728e-22)
(1.21751 0.590641 -1.74895e-20)
(1.14747 0.569626 -9.00117e-21)
(1.077 0.544493 -2.46969e-20)
(1.00842 0.514208 3.96192e-23)
(0.953901 0.483672 -4.91488e-20)
(0.920282 0.459435 4.17312e-20)
(0.885753 0.432184 -2.53273e-20)
(0.771352 0.370093 3.03497e-20)
(0.519327 0.250748 0)
(0.248118 0.123686 -2.11817e-20)
(0.0595021 0.0357008 2.57565e-23)
(-0.0373064 -0.0108909 -5.9007e-20)
(-0.0533441 -0.0213862 -8.7214e-21)
(-0.0159342 -0.00674999 0)
(0.244972 0.12203 0)
(1.15845 0.556653 8.5712e-21)
(1.3606 0.659021 2.75424e-21)
(1.38809 0.68578 -2.47977e-21)
(1.34213 0.678987 -6.13513e-21)
(1.27415 0.660259 0)
(1.20423 0.638598 -7.71131e-21)
(1.13275 0.613945 -2.33921e-22)
(1.0606 0.584881 5.27908e-20)
(0.990308 0.550321 -7.91057e-21)
(0.934643 0.515833 -3.54537e-20)
(0.900419 0.488437 2.16148e-20)
(0.863697 0.457083 -3.99669e-22)
(0.745319 0.387364 3.22074e-20)
(0.496001 0.259338 1.94632e-20)
(0.234039 0.126344 -4.547e-20)
(0.0498831 0.0333213 5.36707e-20)
(-0.0457353 -0.0163197 1.58771e-20)
(-0.0599625 -0.0265725 6.57632e-20)
(-0.0177834 -0.00825055 -1.77945e-19)
(0.24181 0.130785 -4.88707e-21)
(1.14652 0.600604 6.31613e-21)
(1.34966 0.712313 -4.07778e-21)
(1.37576 0.739917 9.26798e-22)
(1.32902 0.730866 0)
(1.26052 0.709172 -5.98706e-21)
(1.1897 0.684401 2.61434e-20)
(1.11695 0.656406 1.96055e-20)
(1.04322 0.623638 0)
(0.971245 0.584899 -1.14107e-19)
(0.91442 0.546341 9.57557e-20)
(0.879616 0.515523 0)
(0.841087 0.479788 2.93693e-20)
(0.720288 0.402584 -3.37071e-22)
(0.475516 0.266728 -6.24032e-20)
(0.222438 0.128212 2.44072e-20)
(0.0425055 0.0305026 0)
(-0.0521526 -0.0218715 8.53593e-20)
(-0.0655229 -0.0318741 0)
(-0.0195858 -0.0098691 -8.37791e-20)
(0.239491 0.139363 5.91835e-21)
(1.13448 0.642114 8.44966e-21)
(1.33753 0.762641 -3.97345e-21)
(1.36221 0.791046 0)
(1.31481 0.779957 -4.44385e-21)
(1.24591 0.755597 0)
(1.17432 0.728023 -2.544e-20)
(1.10041 0.696995 -8.95183e-21)
(1.02516 0.660791 9.25476e-21)
(0.951451 0.618013 -5.64896e-20)
(0.893341 0.575291 9.88378e-21)
(0.857896 0.540779 0)
(0.817842 0.500387 -6.26969e-20)
(0.695866 0.415797 2.79714e-22)
(0.456857 0.272918 0)
(0.212532 0.129356 5.13863e-23)
(0.0369614 0.027463 7.77083e-20)
(-0.0563844 -0.0271229 -7.34887e-20)
(-0.0695254 -0.0368578 2.17629e-20)
(-0.0211259 -0.0114694 0)
(0.237681 0.147743 0)
(1.12258 0.681386 1.0321e-20)
(1.32466 0.810131 6.1981e-21)
(1.34787 0.839247 -5.33421e-22)
(1.2999 0.826309 -8.8055e-22)
(1.2307 0.799564 -1.35248e-20)
(1.15845 0.769487 9.67521e-21)
(1.08345 0.73573 -1.07383e-20)
(1.00669 0.696384 4.15576e-20)
(0.931128 0.649766 -9.05839e-20)
(0.871523 0.602827 -8.59043e-22)
(0.835295 0.564319 -2.75113e-20)
(0.793904 0.519002 1.01749e-19)
(0.671457 0.427191 -3.97775e-22)
(0.439362 0.277864 -4.82874e-20)
(0.203726 0.129861 -8.51555e-20)
(0.0329966 0.0245095 0)
(-0.0585023 -0.0317201 0)
(-0.0717651 -0.0411534 2.34457e-20)
(-0.0222441 -0.0129286 -1.39117e-20)
(0.236544 0.156112 8.44837e-21)
(1.11102 0.718455 -2.35203e-20)
(1.31139 0.854897 -6.64095e-21)
(1.33309 0.884611 0)
(1.28463 0.869996 -3.09225e-22)
(1.21519 0.841128 -1.17548e-20)
(1.14235 0.808835 2.29941e-20)
(1.06632 0.772648 4.19798e-20)
(0.988053 0.730482 5.4086e-20)
(0.910494 0.680282 -7.42572e-20)
(0.849096 0.629123 -8.29202e-20)
(0.811843 0.586313 7.37786e-20)
(0.769252 0.535734 0)
(0.647034 0.436828 -2.21794e-20)
(0.422457 0.281642 -5.20327e-20)
(0.195599 0.129856 -6.12108e-20)
(0.0302114 0.021848 -7.21524e-20)
(-0.0588852 -0.0354355 2.13672e-20)
(-0.0723591 -0.0445975 -1.26098e-20)
(-0.0228726 -0.0141561 5.42149e-23)
(0.235666 0.164293 0)
(1.10019 0.753392 0)
(1.29797 0.897056 5.08404e-22)
(1.31812 0.927246 0)
(1.26924 0.911121 2.29021e-22)
(1.19962 0.88037 7.46672e-21)
(1.12627 0.846123 0)
(1.04927 0.807802 4.93303e-21)
(0.969478 0.763143 9.05967e-20)
(0.889761 0.709686 -1.71413e-19)
(0.826206 0.654382 0)
(0.787586 0.606948 -4.78237e-20)
(0.743821 0.550617 -5.09077e-22)
(0.62248 0.444589 -2.94365e-22)
(0.405865 0.284152 5.60676e-20)
(0.187978 0.129387 4.70753e-23)
(0.0283244 0.019677 -1.55488e-19)
(-0.0580525 -0.038127 4.59771e-20)
(-0.0716518 -0.0471155 1.36442e-20)
(-0.023036 -0.0150939 0)
(0.235043 0.172246 -3.42128e-20)
(1.08985 0.786612 -1.60721e-20)
(1.28451 0.936696 -2.01931e-20)
(1.30317 0.967264 1.78875e-20)
(1.25394 0.949769 -2.60535e-21)
(1.18421 0.917367 0)
(1.1104 0.881417 1.38077e-20)
(1.03249 0.841247 -1.11376e-20)
(0.95116 0.794432 8.01704e-22)
(0.869133 0.738088 1.27219e-20)
(0.803009 0.678816 1.08597e-19)
(0.762538 0.626447 -1.68516e-20)
(0.717513 0.563703 -6.33097e-20)
(0.597688 0.450274 -2.59483e-20)
(0.389715 0.285045 3.02673e-20)
(0.18112 0.128399 6.28197e-23)
(0.0273826 0.0183038 4.19181e-20)
(-0.056697 -0.0394635 -9.90207e-20)
(-0.0705014 -0.0486813 1.17534e-19)
(-0.0229287 -0.0157946 1.73515e-20)
(0.234473 0.179962 1.30347e-20)
(1.08001 0.818173 -9.06599e-21)
(1.2712 0.973954 1.32331e-21)
(1.28842 1.0048 1.19015e-20)
(1.2389 0.98606 1.93772e-21)
(1.16909 0.952206 -1.2745e-20)
(1.09491 0.914784 3.81748e-21)
(1.01612 0.873028 -4.65526e-20)
(0.93328 0.824388 -1.00823e-19)
(0.848796 0.765566 -1.03186e-19)
(0.779675 0.702625 0)
(0.736738 0.64509 -7.46452e-20)
(0.690152 0.575079 9.1726e-20)
(0.572426 0.453468 0)
(0.374132 0.283617 -6.51385e-20)
(0.176048 0.126161 3.83931e-20)
(0.0286794 0.0178677 -4.51765e-20)
(-0.0546369 -0.0390734 -5.3403e-20)
(-0.0704858 -0.0497035 -9.48357e-20)
(-0.0233168 -0.0166445 -7.48984e-20)
(0.234241 0.18753 -1.48114e-20)
(1.07055 0.848094 9.71519e-21)
(1.25814 1.00891 2.16974e-20)
(1.27399 1.03994 1.77069e-20)
(1.22424 1.0201 -3.18602e-21)
(1.1544 0.984981 -6.31268e-21)
(1.0799 0.946284 1.30154e-20)
(1.00031 0.903203 -4.79609e-20)
(0.915969 0.853059 -6.01736e-20)
(0.828932 0.792192 1.09025e-19)
(0.756382 0.725983 2.41766e-19)
(0.710237 0.663195 0)
(0.661484 0.584956 0)
(0.546097 0.453765 -2.99845e-20)
(0.358904 0.278475 0)
(0.174265 0.120933 8.25408e-20)
(0.0354341 0.0161977 9.72166e-20)
(-0.0481959 -0.0388273 0)
(-0.0710149 -0.051588 0)
(-0.025435 -0.0185517 8.07253e-20)
(0.233878 0.194679 1.68959e-20)
(1.0615 0.876396 1.33281e-20)
(1.24542 1.04169 1.57967e-20)
(1.25995 1.07285 -1.73502e-20)
(1.21004 1.05199 -4.82131e-21)
(1.14022 1.01577 5.54369e-21)
(1.06548 0.975985 -1.79266e-20)
(0.985155 0.931811 -2.73481e-22)
(0.899356 0.880469 -1.0624e-21)
(0.809698 0.818001 -6.12069e-22)
(0.733331 0.749037 1.25328e-19)
(0.68313 0.681078 0)
(0.631253 0.593718 9.43733e-20)
(0.517791 0.451082 6.48187e-20)
(0.342621 0.268165 1.53201e-19)
(0.174872 0.108411 4.47316e-20)
(0.0513974 0.0044034 -5.24235e-20)
(-0.0253482 -0.0495421 -3.09724e-20)
(-0.0560916 -0.0571584 0)
(-0.0261817 -0.020919 8.72783e-20)
(0.233866 0.201858 -3.83577e-20)
(1.05284 0.903186 0)
(1.23305 1.07235 1.87548e-20)
(1.24635 1.10359 -1.48116e-20)
(1.19638 1.08184 7.34345e-21)
(1.12661 1.04467 -4.18596e-21)
(1.05171 1.00394 3.43837e-20)
(0.970721 0.958892 -3.85995e-21)
(0.883527 0.906638 0)
(0.791234 0.842993 -1.22015e-19)
(0.71073 0.771881 -2.75351e-19)
(0.655574 0.699059 1.13065e-20)
(0.599322 0.601888 1.32281e-19)
(0.486578 0.445946 0)
(0.322754 0.252416 1.04351e-19)
(0.173106 0.0840573 0)
(0.0706078 -0.0307547 0)
(0.0201131 -0.0939025 -3.35192e-20)
(0.01505 -0.0782508 0)
(0.0157135 -0.00606201 2.35294e-20)
(0.233585 0.208501 -4.29308e-20)
(1.04454 0.928794 0)
(1.22102 1.1011 3.14645e-20)
(1.23316 1.13243 0)
(1.18323 1.10992 -4.72382e-21)
(1.11352 1.07196 0)
(1.03853 1.03047 1.55701e-21)
(0.956926 0.984776 6.75605e-21)
(0.868372 0.931917 7.71874e-21)
(0.773386 0.86753 -1.34902e-19)
(0.688403 0.79497 8.32034e-21)
(0.62726 0.717892 9.18824e-20)
(0.565056 0.610413 1.30068e-19)
(0.450983 0.43919 1.73524e-20)
(0.296029 0.232556 8.26888e-20)
(0.160202 0.0492402 0)
(0.0739924 -0.0899819 1.1089e-19)
(0.0435754 -0.119852 -6.50263e-20)
(0.0207722 0.0287858 7.63225e-20)
(-0.0390725 0.463195 -9.06539e-20)
(0.233348 0.214988 3.56238e-20)
(1.03636 0.953042 5.35091e-20)
(1.20927 1.12827 0)
(1.22024 1.15981 9.88439e-22)
(1.17039 1.13682 1.45157e-20)
(1.10067 1.09833 8.84873e-23)
(1.02563 1.05635 1.1641e-20)
(0.943344 1.01039 0)
(0.853344 0.957373 5.10175e-20)
(0.755449 0.892872 -7.03433e-21)
(0.665377 0.819719 0)
(0.596717 0.739118 0)
(0.525928 0.620273 1.18011e-19)
(0.40771 0.430996 -5.39074e-20)
(0.258623 0.210364 -8.50158e-20)
(0.130408 0.00747344 0)
(0.0466797 -0.0535418 5.66956e-20)
(0.00172794 0.44696 -6.55596e-20)
(0.0271668 1.94929 -3.6754e-20)
(0.0530358 2.83564 -4.52217e-20)
(0.232848 0.220982 -2.68762e-20)
(1.0284 0.976115 -6.89029e-20)
(1.19781 1.15387 1.87873e-20)
(1.20759 1.1856 1.49129e-20)
(1.15794 1.16232 0)
(1.08817 1.1235 -2.06451e-21)
(1.01323 1.08127 1.53069e-20)
(0.930192 1.0353 -3.28486e-21)
(0.838753 0.982512 7.71529e-21)
(0.737867 0.918467 1.29894e-19)
(0.642362 0.84561 1.42631e-19)
(0.565027 0.762921 1.05777e-19)
(0.482645 0.632398 1.2044e-19)
(0.357177 0.421371 -1.29114e-19)
(0.214839 0.191078 -1.30327e-19)
(0.0874321 0.0696922 0)
(0.0326365 0.923729 0)
(0.0775548 2.60033 3.16336e-20)
(0.0808807 3.22128 0)
(0.0831677 3.39228 8.23869e-20)
(0.235203 0.226671 0)
(1.021 0.998425 0)
(1.18634 1.17775 0)
(1.19504 1.20966 4.58856e-21)
(1.14552 1.1862 1.336e-20)
(1.07584 1.14732 -4.0159e-21)
(1.00126 1.10515 9.67005e-21)
(0.917405 1.05939 -3.21184e-21)
(0.824544 1.00716 6.4335e-20)
(0.720646 0.944153 -1.47277e-21)
(0.619493 0.872468 2.84877e-19)
(0.532622 0.789515 -1.23459e-20)
(0.435202 0.648318 1.48707e-20)
(0.300415 0.409325 1.89386e-20)
(0.158248 0.205941 -8.94438e-22)
(0.0762038 1.04074 3.40953e-22)
(0.11103 2.78421 -1.71696e-19)
(0.115407 3.30344 -6.43861e-20)
(0.108496 3.42263 3.38611e-20)
(0.100018 3.44187 -3.83541e-20)
(0.157977 0.171938 1.64765e-20)
(1.00915 1.02269 0)
(1.17461 1.20014 -3.87585e-20)
(1.18301 1.23244 -4.10474e-20)
(1.1336 1.20893 3.2622e-20)
(1.06436 1.17029 5.20542e-21)
(0.989501 1.12799 -9.76009e-21)
(0.905017 1.0827 3.51565e-20)
(0.810804 1.03139 -5.30868e-20)
(0.70404 0.970048 0)
(0.597142 0.900392 1.4184e-19)
(0.500117 0.818819 -8.78203e-20)
(0.388299 0.678526 0)
(0.235649 0.401498 1.87454e-20)
(0.110775 0.697146 4.36308e-20)
(0.125661 2.59821 -4.8642e-20)
(0.170809 3.32611 5.49318e-20)
(0.156179 3.42913 2.95002e-20)
(0.130776 3.44808 3.31805e-20)
(0.113104 3.45712 5.29415e-20)
(0.26944 0.263632 -3.17147e-20)
(0.990153 1.03175 0)
(1.15511 1.22554 4.19341e-20)
(1.1675 1.26358 4.54783e-20)
(1.1153 1.24243 -3.71908e-20)
(1.04548 1.20409 -9.94709e-21)
(0.969385 1.16331 7.45764e-21)
(0.884163 1.1192 2.80628e-21)
(0.788135 1.07 5.08906e-20)
(0.67757 1.0126 1.14781e-19)
(0.563016 0.948873 8.01573e-21)
(0.449502 0.866612 7.95443e-20)
(0.299156 0.698551 1.44383e-20)
(0.193021 0.841486 -1.82506e-20)
(0.199483 2.48666 -4.03081e-20)
(0.250412 3.32615 3.94502e-20)
(0.23318 3.44986 -4.31295e-20)
(0.200246 3.46972 -2.46479e-20)
(0.168141 3.49484 -2.2401e-20)
(0.123829 3.49125 -3.2198e-21)
(0.259252 0.262276 0)
(0.986483 1.05416 1.2345e-20)
(1.14569 1.24894 -8.67609e-21)
(1.15578 1.2871 -5.4708e-21)
(1.10359 1.26569 -2.58988e-20)
(1.03372 1.22751 1.06585e-20)
(0.957226 1.18689 -3.24866e-21)
(0.871587 1.14358 2.51065e-21)
(0.774604 1.09584 -5.3235e-20)
(0.661873 1.04138 -2.56538e-21)
(0.542709 0.982442 -2.60296e-19)
(0.419881 0.901871 1.1472e-20)
(0.274389 0.77223 -1.3776e-20)
(0.229458 1.52301 -1.68746e-20)
(0.294122 3.14541 3.64448e-21)
(0.305075 3.44928 4.32703e-23)
(0.264957 3.49632 6.4991e-20)
(0.232047 3.52186 3.29791e-20)
(0.186995 3.54284 -1.08723e-20)
(0.137965 3.54068 -1.63333e-20)
(0.245029 0.259981 3.16919e-20)
(0.981853 1.07906 8.36809e-20)
(1.13587 1.27442 -2.46895e-20)
(1.14368 1.31225 -2.04938e-20)
(1.09138 1.29043 0)
(1.02156 1.25225 2.11733e-20)
(0.944947 1.21187 -1.68336e-21)
(0.859154 1.16934 2.18825e-21)
(0.76154 1.12323 -5.99938e-21)
(0.647228 1.07211 -1.05235e-19)
(0.5245 1.01872 -1.20996e-19)
(0.393541 0.938637 -9.42665e-20)
(0.27459 0.929851 -1.04375e-19)
(0.297411 2.33212 1.07089e-19)
(0.376908 3.3778 8.99975e-20)
(0.345839 3.50247 0)
(0.299313 3.54208 0)
(0.263323 3.57707 -8.77667e-21)
(0.221314 3.62199 0)
(0.152389 3.60901 -1.36511e-20)
(0.235007 0.26162 -4.72897e-20)
(0.975273 1.10476 -7.09334e-20)
(1.12463 1.30112 0)
(1.13028 1.33821 1.2002e-21)
(1.0779 1.31583 -2.85757e-20)
(1.00829 1.27758 3.54513e-20)
(0.931887 1.23749 6.42386e-22)
(0.846174 1.1957 1.12147e-21)
(0.748199 1.15123 -3.77081e-20)
(0.632788 1.10355 5.23331e-21)
(0.507542 1.05588 0)
(0.368254 0.978609 0)
(0.296272 1.24279 -9.53078e-20)