/*--------------------------------*- C++ -*----------------------------------*\
  =========                 |
  \\      /  F ield         | OpenFOAM: The Open Source CFD Toolbox
   \\    /   O peration     | Website:  https://openfoam.org
    \\  /    A nd           | Version:  6
     \\/     M anipulation  |
\*---------------------------------------------------------------------------*/
FoamFile
{
    version     2.0;
    format      ascii;
    class       surfaceScalarField;
    location    "42";
    object      phi;
}
// * * * * * * * * * * * * * * * * * * * * * * * * * * * * * * * * * * * * * //

dimensions      [0 3 -1 0 0 0 0];

internalField   nonuniform List<scalar> 
17370
(
-0.0900012
0.08985
0.289162
-0.0714634
0.0537529
0.364486
-0.0381192
0.0276897
0.426598
-0.0196365
0.0146015
0.504287
-0.0107568
0.00826404
0.601895
-0.00626366
0.0048901
0.720431
-0.0037338
0.00290208
0.863738
-0.00216943
0.00161601
1.036
-0.00110336
0.000693146
1.24291
-0.000285852
-0.000104268
1.49158
0.000482386
-0.000888113
1.4916
0.00128196
-0.00177054
1.24318
0.00230241
-0.00301653
1.03635
0.00383813
-0.00498912
0.864057
0.00635939
-0.00835463
0.721053
0.0108403
-0.0146762
0.60305
0.0197035
-0.0277489
0.507485
0.0381721
-0.0537974
0.431793
0.0714991
-0.0898735
0.36515
0.0900145
0.198996
-0.12813
0.0882161
0.039914
-0.364592
0.353366
-0.0746846
0.0859113
-0.446473
0.454312
-0.0844125
0.0765739
-0.521185
0.529895
-0.0684787
0.0597694
-0.612782
0.621561
-0.0515815
0.0428021
-0.726888
0.734152
-0.0353425
0.0280779
-0.867472
0.87257
-0.0224872
0.0173885
-1.03847
1.04191
-0.0135937
0.0101569
-1.2446
1.24702
-0.00755446
0.00513003
-1.49263
1.49459
-0.00319074
0.00122393
-1.4925
1.49422
0.000454084
-0.00217422
-1.24398
1.24587
0.00407755
-0.00596185
-1.03751
1.04005
0.00832049
-0.0108579
-0.866103
0.869845
0.014226
-0.017968
-0.724394
0.729948
0.023021
-0.0285752
-0.608703
0.616122
0.0357991
-0.0432182
-0.514903
0.523051
0.0519518
-0.0600997
-0.43986
0.447923
0.0687677
-0.0768306
-0.375301
0.37675
0.0846355
-0.086085
-0.257338
0.222495
0.0748034
-0.0399609
-0.0685013
0.05867
0.00983128
-0.0518449
0.0584397
-0.374109
0.367514
-0.0575317
0.0537852
-0.453582
0.457328
-0.0486977
0.0447476
-0.527929
0.531879
-0.0409092
0.0372723
-0.621543
0.62518
-0.0331756
0.0291103
-0.735329
0.739394
-0.0245583
0.020419
-0.874319
0.878459
-0.0160966
0.0124218
-1.04347
1.04714
-0.0087053
0.00554685
-1.24855
1.25171
-0.00223063
-0.00083947
-1.49665
1.49972
0.00388596
-0.0071458
-1.49721
1.50047
0.0102219
-0.0138277
-1.25009
1.25369
0.0173939
-0.0215994
-1.04594
1.05015
0.0256423
-0.0301014
-0.877781
0.88224
0.0340902
-0.0381068
-0.739919
0.743936
0.0416701
-0.0454283
-0.626794
0.630553
0.0493099
-0.0543323
-0.534828
0.53985
0.0580129
-0.0588377
-0.457492
0.458317
0.0521487
-0.0319671
-0.335782
0.3156
0.00988112
-0.0683677
0.0584866
-0.0529132
0.0489112
0.00400198
-0.0332058
0.0437703
-0.358064
0.3475
-0.0474846
0.0468683
-0.459255
0.459871
-0.0438217
0.0404759
-0.53577
0.539116
-0.0367117
0.0334182
-0.628491
0.631785
-0.0299971
0.0269858
-0.742608
0.745619
-0.0237518
0.0206634
-0.881969
0.885058
-0.017148
0.0137797
-1.05072
1.05409
-0.010002
0.0064807
-1.25513
1.25865
-0.0025343
-0.00124378
-1.50322
1.507
0.00499366
-0.00885518
-1.50414
1.50801
0.012264
-0.0158892
-1.25745
1.26107
0.0191026
-0.0224459
-1.05396
1.0573
0.0253887
-0.0284826
-0.885739
0.888833
0.0313803
-0.0346845
-0.747207
0.750511
0.0378728
-0.0415248
-0.634355
0.638007
0.0447743
-0.0477138
-0.544175
0.547115
0.0482205
-0.0443535
-0.456621
0.452754
0.0336087
-0.0161909
-0.296263
0.278845
0.00406282
-0.0526756
0.0486127
-0.0458266
0.0433236
0.00250303
-0.0228603
0.0332662
-0.336787
0.326381
-0.0391116
0.040144
-0.459539
0.458506
-0.0389678
0.0366912
-0.541816
0.544093
-0.0340353
0.0314523
-0.634813
0.637396
-0.028408
0.0255316
-0.74865
0.751526
-0.0222986
0.0193357
-0.887999
0.890962
-0.0160652
0.0129964
-1.0572
1.06027
-0.00950043
0.00611381
-1.26209
1.26548
-0.00216755
-0.00170721
-1.51087
1.51475
0.0055443
-0.00937673
-1.51191
1.51574
0.01261
-0.0159005
-1.26453
1.26782
0.0187658
-0.0218101
-1.06042
1.06346
0.0245783
-0.0276192
-0.8919
0.894941
0.0303378
-0.0332219
-0.75373
0.756614
0.035664
-0.0381721
-0.641091
0.643599
0.0403219
-0.0413336
-0.548938
0.549949
0.0401328
-0.0340443
-0.447504
0.441416
0.0233754
-0.0101988
-0.263665
0.250488
0.00257783
-0.0454615
0.0428837
-0.0412404
0.0394648
0.00177564
-0.0168083
0.0260939
-0.316497
0.307211
-0.0327345
0.0348993
-0.456884
0.45472
-0.0344985
0.0328432
-0.546054
0.547709
-0.0306781
0.0286021
-0.639683
0.641759
-0.0262004
0.0238372
-0.754153
0.756516
-0.0210198
0.018265
-0.893827
0.896582
-0.0150622
0.0120204
-1.06328
1.06632
-0.00855999
0.00526384
-1.26877
1.27206
-0.00146455
-0.00223783
-1.51852
1.52223
0.00589142
-0.00954848
-1.51948
1.52314
0.0126544
-0.015863
-1.27108
1.27429
0.0186511
-0.0215664
-1.06649
1.0694
0.0240663
-0.026624
-0.89777
0.900328
0.0287741
-0.0309667
-0.759088
0.761281
0.0328663
-0.0348475
-0.645782
0.647763
0.0363223
-0.036501
-0.5505
0.550678
0.0340792
-0.0270854
-0.434798
0.427804
0.0174478
-0.00735855
-0.239008
0.228919
0.00186646
-0.0407192
0.0388528
-0.0379337
0.0365947
0.00133902
-0.0128551
0.0208402
-0.298581
0.290595
-0.0276335
0.0305903
-0.452126
0.449169
-0.0308265
0.029736
-0.54911
0.5502
-0.0277725
0.0258877
-0.643761
0.645646
-0.0237272
0.0216288
-0.758726
0.760824
-0.0191571
0.0167116
-0.899129
0.901575
-0.0138117
0.0109734
-1.06923
1.07206
-0.00765663
0.00445266
-1.27529
1.27849
-0.000733315
-0.00287975
-1.52585
1.52946
0.00643503
-0.00997729
-1.52675
1.53029
0.0129421
-0.015939
-1.27744
1.28044
0.0184547
-0.0209892
-1.07216
1.07469
0.0231096
-0.0252502
-0.90265
0.90479
0.0270765
-0.0289691
-0.763285
0.765178
0.0306289
-0.032369
-0.6496
0.651341
0.0332011
-0.0326613
-0.550505
0.549965
0.0293433
-0.0220718
-0.420618
0.413346
0.013638
-0.00568051
-0.219999
0.212041
0.00144887
-0.0372223
0.0357735
-0.0354243
0.0343892
0.00103518
-0.0100655
0.0168251
-0.28325
0.276491
-0.0233606
0.0267763
-0.445966
0.44255
-0.0275931
0.026918
-0.551075
0.55175
-0.0251811
0.0234202
-0.647511
0.649272
-0.0213876
0.0194168
-0.762861
0.764832
-0.0171052
0.0148358
-0.903857
0.906127
-0.0121597
0.00952932
-1.07472
1.07735
-0.00642682
0.00338986
-1.28157
1.28461
0.000172932
-0.00364656
-1.533
1.53648
0.00704795
-0.0103905
-1.53375
1.53709
0.013132
-0.0158397
-1.28331
1.28602
0.0180721
-0.0202936
-1.07707
1.07929
0.0221571
-0.0240552
-0.906794
0.908692
0.0256853
-0.0273842
-0.766962
0.768661
0.0288701
-0.0303041
-0.652957
0.654391
0.0306545
-0.0294129
-0.549088
0.547846
0.0255016
-0.0183414
-0.406109
0.398949
0.0110217
-0.00456102
-0.204904
0.198444
0.00116881
-0.0344824
0.0333136
-0.0334799
0.0326703
0.000809541
-0.00799581
0.0136849
-0.270298
0.264609
-0.0197419
0.0233683
-0.439022
0.435396
-0.0246873
0.0242878
-0.552326
0.552725
-0.0228521
0.0212289
-0.651015
0.652638
-0.0193109
0.0174297
-0.766753
0.768635
-0.0151994
0.0130008
-0.908291
0.91049
-0.0104141
0.00789188
-1.07985
1.08237
-0.00494456
0.0020715
-1.28751
1.29038
0.0012929
-0.00457426
-1.53982
1.5431
0.00776482
-0.010861
-1.54032
1.54341
0.0133759
-0.0158463
-1.28863
1.2911
0.0178887
-0.0199231
-1.08144
1.08348
0.0216178
-0.0233226
-0.910502
0.912207
0.0247691
-0.0262663
-0.770243
0.77174
0.0275458
-0.0285961
-0.655608
0.656659
0.0285769
-0.0266809
-0.546286
0.54439
0.0224001
-0.0155465
-0.391938
0.385085
0.00916399
-0.00377742
-0.192572
0.187186
0.000972314
-0.0322579
0.0312856
-0.0319598
0.0313259
0.000633992
-0.0063962
0.0111705
-0.25941
0.254636
-0.0166397
0.020267
-0.431778
0.428151
-0.0219061
0.021727
-0.553055
0.553234
-0.0205173
0.0189457
-0.654274
0.655846
-0.0170855
0.0152695
-0.770472
0.772288
-0.0131332
0.0110375
-0.912554
0.91465
-0.00857251
0.00616284
-1.08475
1.08716
-0.00333888
0.000586843
-1.29314
1.29589
0.0026188
-0.00571857
-1.54626
1.54936
0.00870879
-0.011586
-1.5464
1.54927
0.0138949
-0.0161273
-1.29349
1.29572
0.0179402
-0.0197194
-1.08541
1.08719
0.021193
-0.0226826
-0.913825
0.915315
0.0239659
-0.0253133
-0.773142
0.77449
0.0264779
-0.0271556
-0.657501
0.658178
0.0267882
-0.0243823
-0.542255
0.539849
0.0199086
-0.0134418
-0.378438
0.371971
0.0078165
-0.00321495
-0.182233
0.177632
0.000831055
-0.0303971
0.029566
-0.0307724
0.0302806
0.000491789
-0.00510453
0.00908698
-0.250288
0.246305
-0.0139248
0.0174164
-0.42461
0.421119
-0.0192618
0.0192951
-0.55337
0.553337
-0.0182988
0.0167763
-0.657469
0.658992
-0.0149517
0.0131598
-0.774069
0.775861
-0.0110483
0.00897948
-0.916623
0.918691
-0.00655541
0.0042006
-1.08945
1.0918
-0.00146403
-0.00117144
-1.29852
1.30116
0.00420022
-0.00708816
-1.55232
1.5552
0.00984639
-0.0124837
-1.55203
1.55467
0.0145924
-0.0166278
-1.29789
1.29992
0.0182749
-0.0198852
-1.08891
1.09052
0.0212079
-0.0225316
-0.91673
0.918053
0.0236577
-0.0248248
-0.77575
0.776917
0.0257895
-0.0261073
-0.658661
0.658978
0.0253758
-0.0225302
-0.537248
0.534402
0.0179563
-0.0118735
-0.365716
0.359634
0.00684394
-0.00281727
-0.173353
0.169326
0.000733717
-0.0287964
0.0280626
-0.0298571
0.0294859
0.000371224
-0.00401836
0.00730136
-0.242701
0.239418
-0.0114873
0.0147186
-0.417781
0.41455
-0.0166305
0.0168424
-0.553268
0.553056
-0.0159605
0.01455
-0.660521
0.661931
-0.012753
0.0109651
-0.777626
0.779414
-0.00885356
0.00679513
-0.920658
0.922717
-0.00440185
0.00209817
-1.09404
1.09634
0.000560767
-0.00310898
-1.30368
1.30622
0.00602992
-0.00879545
-1.55798
1.56075
0.0113995
-0.0138354
-1.55719
1.55962
0.0157315
-0.0175198
-1.30187
1.30366
0.0189506
-0.0203391
-1.09206
1.09345
0.0214771
-0.0226216
-0.919322
0.920466
0.0236001
-0.0245971
-0.778011
0.779008
0.0253114
-0.0253533
-0.65915
0.659192
0.0242317
-0.0210336
-0.531396
0.528198
0.0164362
-0.0107086
-0.353759
0.348031
0.00614192
-0.00253586
-0.165544
0.161938
0.000666117
-0.0273769
0.0267108
-0.0291756
0.028912
0.000263584
-0.0030631
0.00571278
-0.236479
0.23383
-0.00924879
0.0121409
-0.411524
0.408632
-0.0139999
0.0142909
-0.552886
0.552595
-0.0134441
0.0120676
-0.663403
0.66478
-0.0102513
0.00844875
-0.781163
0.782965
-0.0063401
0.00429877
-0.924634
0.926676
-0.0019312
-0.000346347
-1.09852
1.1008
0.00296536
-0.00545292
-1.30867
1.31116
0.00826184
-0.0108732
-1.5634
1.56601
0.013291
-0.0155192
-1.56195
1.56418
0.0172274
-0.018808
-1.30539
1.30697
0.0200356
-0.0211912
-1.09476
1.09591
0.0221169
-0.0230453
-0.921526
0.922454
0.0238507
-0.0246725
-0.779925
0.780747
0.0251467
-0.0249314
-0.659076
0.65886
0.0234312
-0.0199193
-0.524876
0.521364
0.0153158
-0.00987833
-0.34249
0.337053
0.00565643
-0.00234808
-0.158516
0.155207
0.000623364
-0.026081
0.0254576
-0.0287053
0.028545
0.000160245
-0.0021656
0.00421122
-0.231505
0.229459
-0.00708244
0.00956418
-0.405982
0.4035
-0.0112848
0.0116215
-0.552378
0.552042
-0.0108392
0.00951368
-0.666231
0.667557
-0.00767953
0.00582291
-0.784742
0.786599
-0.00363661
0.00152528
-0.928606
0.930717
0.000901344
-0.00320465
-1.10297
1.10527
0.00581177
-0.00824806
-1.31353
1.31597
0.0109527
-0.0134216
-1.56849
1.57095
0.0156524
-0.0176401
-1.56627
1.56826
0.0191168
-0.0204456
-1.30846
1.30979
0.0214636
-0.0224134
-1.097
1.09795
0.0231689
-0.0239174
-0.923338
0.924087
0.0245592
-0.0251989
-0.781508
0.782147
0.0253585
-0.0248374
-0.658428
0.657907
0.0229604
-0.0191495
-0.517752
0.513941
0.0145335
-0.0093178
-0.331777
0.326561
0.00534342
-0.00223631
-0.152037
0.14893
0.000601934
-0.0248618
0.0242599
-0.02844
0.0283846
5.53411e-05
-0.00127877
0.00272802
-0.227727
0.226278
-0.0049111
0.00690196
-0.401306
0.399315
-0.00835141
0.00862392
-0.551852
0.551579
-0.00784141
0.00652806
-0.668983
0.670297
-0.00465406
0.00273709
-0.78842
0.790337
-0.00047247
-0.00170808
-0.93271
0.93489
0.00419699
-0.00653516
-1.10746
1.10979
0.00915132
-0.0115655
-1.3183
1.32071
0.0142045
-0.0165605
-1.57331
1.57566
0.0186243
-0.0203943
-1.57012
1.57189
0.0216508
-0.0227243
-1.31104
1.31211
0.0234964
-0.0241711
-1.09884
1.09952
0.0246708
-0.0251612
-0.924767
0.925258
0.0256017
-0.0260409
-0.782643
0.783082
0.0259034
-0.025007
-0.657094
0.656198
0.0227434
-0.0186608
-0.510064
0.505981
0.0140292
-0.00897138
-0.321494
0.316436
0.00516267
-0.0021799
-0.14593
0.142947
0.000594256
-0.0236816
0.0230874
-0.028386
0.0284365
-5.05224e-05
-0.000377401
0.00121726
-0.225139
0.224299
-0.0026788
0.00411611
-0.397645
0.396207
-0.00519564
0.00530828
-0.551537
0.551425
-0.0044391
0.00304787
-0.671786
0.673178
-0.00107519
-0.000938627
-0.792223
0.794237
0.00329634
-0.00554735
-0.936922
0.939173
0.00810713
-0.0105048
-1.112
1.1144
0.0131691
-0.0155898
-1.32302
1.32544
0.0181641
-0.0203761
-1.57788
1.5801
0.0222407
-0.023761
-1.57351
1.57503
0.0247667
-0.0255448
-1.31307
1.31385
0.0260456
-0.0264218
-1.10011
1.10049
0.0266529
-0.0268684
-0.925702
0.925918
0.0271016
-0.0272825
-0.783277
0.783458
0.0269082
-0.0255783
-0.654989
0.653659
0.0229202
-0.0185403
-0.501868
0.497488
0.0138392
-0.00885095
-0.311498
0.30651
0.00512306
-0.00218737
-0.14004
0.137104
0.000605399
-0.0225102
0.0219048
-0.0285561
0.0287321
-0.000175964
0.000578034
-0.00039012
-0.223767
0.223579
-0.0002959
0.00110675
-0.395116
0.394305
-0.00173477
0.00163764
-0.551606
0.551703
-0.000667174
-0.000814455
-0.674785
0.676267
0.00289674
-0.00504712
-0.796218
0.798369
0.00757747
-0.00999171
-0.941292
0.943706
0.0127197
-0.0152451
-1.11668
1.11921
0.0180033
-0.0204532
-1.32775
1.3302
0.0229883
-0.0250772
-1.58216
1.58425
0.0267379
-0.0279922
-1.57638
1.57764
0.0287324
-0.0291993
-1.31452
1.31499
0.0294086
-0.0294764
-1.10078
1.10085
0.0294305
-0.0293551
-0.926067
0.925992
0.0293265
-0.0291419
-0.78328
0.783095
0.0284493
-0.0265905
-0.652063
0.650205
0.0234814
-0.0187581
-0.49309
0.488366
0.0139355
-0.00893477
-0.301619
0.296618
0.00520772
-0.00224813
-0.134217
0.131258
0.000630814
-0.0213131
0.0206823
-0.0289827
0.0293037
-0.000320987
0.00166102
-0.00212532
-0.22372
0.224185
0.00230494
-0.00223284
-0.393881
0.393809
0.00222214
-0.00265941
-0.552202
0.552639
0.00379161
-0.00540052
-0.677992
0.679601
0.00764558
-0.0099858
-0.800484
0.802824
0.0127511
-0.0153732
-0.946
0.948622
0.0182972
-0.0209613
-1.12162
1.12428
0.0238264
-0.0263269
-1.33253
1.33503
0.0288477
-0.0308443
-1.58621
1.5882
0.0322996
-0.0332365
-1.5787
1.57963
0.0336523
-0.0337264
-1.3153
1.31537
0.033591
-0.0333003
-1.10079
1.1005
0.0329451
-0.0325365
-0.9258
0.925392
0.0322161
-0.0315922
-0.78247
0.781846
0.0304604
-0.0280009
-0.648139
0.645679
0.0244176
-0.0193288
-0.483665
0.478576
0.0143263
-0.00922124
-0.291693
0.286588
0.00541413
-0.00236125
-0.128323
0.12527
0.000670267
-0.0200621
0.0193919
-0.0296982
0.0301917
-0.000493505
0.00292261
-0.00417669
-0.225057
0.226311
0.00528268
-0.00605334
-0.39415
0.394921
0.00679314
-0.00769936
-0.553628
0.554534
0.00915749
-0.0110282
-0.68155
0.683421
0.013555
-0.0161396
-0.805127
0.807712
0.0191509
-0.0219783
-0.951088
0.953916
0.0251185
-0.0279641
-1.12682
1.12967
0.0309855
-0.0335594
-1.33741
1.33998
0.0360465
-0.0378742
-1.59001
1.59183
0.0390702
-0.0396438
-1.58033
1.5809
0.0396966
-0.0393619
-1.31526
1.31493
0.0388182
-0.0380805
-1.1
1.09926
0.0373293
-0.0365181
-0.924791
0.923979
0.035861
-0.0347389
-0.780711
0.779589
0.0331177
-0.0300397
-0.643101
0.640023
0.0259193
-0.0203626
-0.47352
0.467963
0.0150732
-0.00974537
-0.281527
0.276199
0.0057616
-0.00253477
-0.122216
0.118989
0.000726204
-0.0187285
0.0180023
-0.0307703
0.0314858
-0.000715519
0.00444057
-0.00658683
-0.228004
0.23015
0.00874651
-0.0104083
-0.396111
0.397772
0.0119816
-0.013445
-0.556144
0.557607
0.0153151
-0.0175055
-0.685702
0.687893
0.0203917
-0.023308
-0.810254
0.813171
0.0266879
-0.0298452
-0.956601
0.959758
0.0333214
-0.0364308
-1.1324
1.13551
0.0396679
-0.0423478
-1.34244
1.34511
0.0448282
-0.0465065
-1.59347
1.59514
0.0474079
-0.047571
-1.58121
1.58137
0.0471729
-0.0463501
-1.31433
1.31351
0.0453442
-0.0441094
-1.09823
1.097
0.0429203
-0.0416456
-0.922892
0.921617
0.04051
-0.0388534
-0.777945
0.776289
0.0366152
-0.0327932
-0.63685
0.633028
0.0280234
-0.0218851
-0.462436
0.456298
0.0161953
-0.0105123
-0.270881
0.265198
0.00624609
-0.00276222
-0.115731
0.112247
0.000795091
-0.0172799
0.0164848
-0.0322871
0.0332925
-0.00100536
0.00634475
-0.00956825
-0.232762
0.235985
0.0129775
-0.0156961
-0.40002
0.402738
0.0182187
-0.0203409
-0.559929
0.562051
0.0227294
-0.0253273
-0.69055
0.693148
0.0286836
-0.0320554
-0.816056
0.819427
0.0359468
-0.0395526
-0.962814
0.96642
0.0434674
-0.0469002
-1.13853
1.14196
0.0503825
-0.0531601
-1.34765
1.35043
0.0555836
-0.057033
-1.59658
1.59803
0.0575483
-0.0571897
-1.58119
1.58083
0.0562847
-0.0548866
-1.31233
1.31093
0.0533755
-0.051601
-1.0954
1.09362
0.0499357
-0.048125
-0.919962
0.918151
0.0464229
-0.0441115
-0.774079
0.771767
0.0411204
-0.0364236
-0.629123
0.624427
0.030895
-0.0240297
-0.450197
0.443331
0.0177793
-0.0115664
-0.25948
0.253267
0.00688533
-0.00304503
-0.108702
0.104862
0.000874612
-0.0156932
0.0148186
-0.0343775
0.0357779
-0.00140045
0.00880673
-0.0133412
-0.239666
0.2442
0.0182036
-0.0221281
-0.406233
0.410158
0.0257681
-0.0287392
-0.565309
0.56828
0.031891
-0.0351145
-0.696335
0.699558
0.0391432
-0.0430973
-0.822759
0.826713
0.0475837
-0.0516802
-0.969912
0.974009
0.0560614
-0.0598277
-1.14528
1.14905
0.0635481
-0.0663936
-1.35303
1.35587
0.0686892
-0.0698105
-1.59918
1.6003
0.0698198
-0.0688173
-1.58007
1.57906
0.0672877
-0.0651936
-1.30906
1.30697
0.0630987
-0.0607248
-1.09136
1.08898
0.0585279
-0.0561578
-0.915855
0.913485
0.0538246
-0.0507899
-0.768866
0.765832
0.0469556
-0.0412465
-0.619682
0.613973
0.0347884
-0.0269741
-0.43649
0.428676
0.0199467
-0.0129755
-0.246963
0.239992
0.00770956
-0.00339059
-0.100921
0.0966019
0.000964874
-0.0139479
0.0129831
-0.037231
0.0391952
-0.00196418
0.0121371
-0.0183135
-0.24915
0.255326
0.0248903
-0.0301965
-0.415178
0.420484
0.0351411
-0.039164
-0.572721
0.576744
0.0433223
-0.0474164
-0.703514
0.707608
0.0523648
-0.0570734
-0.830634
0.835343
0.0622921
-0.0669671
-0.978009
0.982684
0.0718659
-0.0759683
-1.15268
1.15678
0.0798623
-0.0826611
-1.35847
1.36127
0.0846428
-0.0852261
-1.601
1.60158
0.0845497
-0.0827379
-1.57757
1.57576
0.0804454
-0.0775251
-1.30433
1.3014
0.0747063
-0.07162
-1.08595
1.08287
0.0688707
-0.0659511
-0.910502
0.907583
0.0629742
-0.059147
-0.762199
0.758371
0.0543728
-0.0474713
-0.60823
0.601329
0.0398708
-0.0308374
-0.420872
0.411839
0.0227628
-0.0147549
-0.232862
0.224854
0.00871417
-0.00379352
-0.0921444
0.0872238
0.00106444
-0.0120229
0.0109585
-0.0411514
0.0439812
-0.00282984
0.0169685
-0.0253009
-0.261868
0.270201
0.0339751
-0.0409178
-0.427451
0.434394
0.0473742
-0.0526416
-0.582629
0.587896
0.0580607
-0.0632755
-0.712565
0.717779
0.0693385
-0.0749315
-0.840005
0.845598
0.0809774
-0.0862555
-0.98726
0.992538
0.091626
-0.0959537
-1.16068
1.16501
0.0998542
-0.102422
-1.3637
1.36626
0.103896
-0.103769
-1.60163
1.6015
0.102223
-0.0994077
-1.57337
1.57055
0.0962123
-0.0923504
-1.29789
1.29403
0.0887331
-0.0848367
-1.07899
1.07509
0.0814192
-0.0778156
-0.903772
0.900169
0.0741744
-0.0693909
-0.753807
0.749023
0.0634917
-0.0551724
-0.594358
0.586038
0.0461807
-0.0355983
-0.402811
0.392229
0.0261514
-0.0168096
-0.216647
0.207305
0.00982383
-0.00421578
-0.0821546
0.0765465
0.00116169
-0.00990547
0.00874378
-0.0466884
0.0509789
-0.00429051
0.0244923
-0.0357587
-0.278919
0.290185
0.0471492
-0.0562945
-0.444048
0.453193
0.0646283
-0.0713636
-0.595543
0.602278
0.0783208
-0.0849424
-0.723854
0.730476
0.0921934
-0.0986393
-0.851097
0.857543
0.10539
-0.11108
-0.997632
1.00332
0.116626
-0.120866
-1.16897
1.17321
0.124387
-0.126367
-1.36828
1.37026
0.126932
-0.125755
-1.60066
1.59948
0.123042
-0.118989
-1.567
1.56294
0.114733
-0.109787
-1.28948
1.28454
0.10526
-0.100478
-1.07034
1.06556
0.0963418
-0.0918954
-0.895367
0.890921
0.0874621
-0.0815154
-0.743324
0.737378
0.0742898
-0.0642688
-0.577542
0.567521
0.0535669
-0.0410376
-0.381621
0.369092
0.0298774
-0.0189457
-0.1978
0.186868
0.0109049
-0.00459332
-0.0708406
0.064529
0.00123681
-0.00760772
0.00637092
-0.0548959
0.0622248
-0.00732882
0.0377983
-0.0534469
-0.302408
0.318056
0.0686961
-0.0808115
-0.466544
0.478659
0.0911507
-0.0993071
-0.611933
0.62009
0.107877
-0.115818
-0.737667
0.745608
0.124043
-0.130924
-0.863697
0.870578
0.137777
-0.14327
-1.00856
1.01405
0.148329
-0.15185
-1.17678
1.1803
0.154328
-0.155093
-1.37135
1.37211
0.15411
-0.151295
-1.59726
1.59444
0.146935
-0.141281
-1.55793
1.55227
0.13571
-0.129517
-1.27878
1.27259
0.123995
-0.118277
-1.05981
1.05409
0.113405
-0.108165
-0.88515
0.87991
0.10286
-0.0955519
-0.730271
0.722963
0.0866708
-0.0744432
-0.55707
0.544843
0.0615388
-0.0466797
-0.356441
0.341582
0.0335932
-0.0209658
-0.175978
0.163351
0.0118428
-0.00487215
-0.0583004
0.0513298
0.0012648
-0.00518474
0.00391994
-0.069084
0.0731299
-0.00404596
0.0286094
-0.0422374
-0.3363
0.349928
0.0558646
-0.0669519
-0.496219
0.507306
0.0768856
-0.0861997
-0.63166
0.640974
0.0967058
-0.106194
-0.752996
0.762485
0.116648
-0.125832
-0.876498
0.885682
0.13548
-0.143897
-1.0186
1.02702
0.152476
-0.159547
-1.18268
1.18975
0.166159
-0.170878
-1.37161
1.37633
0.17418
-0.175035
-1.59026
1.59111
0.173392
-0.169744
-1.54539
1.54174
0.16513
-0.159235
-1.26544
1.25955
0.153735
-0.147354
-1.0473
1.04092
0.141922
-0.135873
-0.872932
0.866883
0.129337
-0.119236
-0.714036
0.703935
0.106424
-0.0893311
-0.531876
0.514783
0.0719315
-0.052388
-0.326431
0.306888
0.036086
-0.0213616
-0.15113
0.136406
0.0113956
-0.00438253
-0.044949
0.0379359
0.0010078
-0.00272974
0.00172194
-0.0804515
0.0784394
0.00201208
0.00718002
-0.0158419
-0.366307
0.374969
0.026125
-0.0341501
-0.522959
0.530984
0.0421881
-0.0500644
-0.652855
0.660731
0.059686
-0.0685676
-0.771541
0.780423
0.0779655
-0.0864445
-0.894314
0.902793
0.0953142
-0.102708
-1.03514
1.04253
0.110413
-0.116396
-1.19659
1.20257
0.121923
-0.125556
-1.38066
1.38429
0.127493
-0.127228
-1.59108
1.59081
0.124535
-0.119848
-1.53729
1.5326
0.114098
-0.106964
-1.25306
1.24593
0.100128
-0.0923333
-1.03348
1.02569
0.0849743
-0.0766454
-0.857271
0.848942
0.0688965
-0.0599887
-0.689687
0.680779
0.0502187
-0.0384634
-0.495752
0.483997
0.0277212
-0.0175922
-0.287077
0.276948
0.010561
-0.00539087
-0.122272
0.117102
0.00242876
-0.000733922
-0.0312359
0.029541
6.93207e-05
-0.00043602
0.000366699
-0.08171
0.0788424
0.00286757
-0.00151591
-0.00332784
-0.386519
0.391362
0.0100284
-0.0159492
-0.542784
0.548705
0.0220119
-0.0287631
-0.670917
0.677668
0.0371009
-0.0447978
-0.788358
0.796055
0.0531542
-0.0605408
-0.9105
0.917887
0.0680389
-0.0746732
-1.04976
1.05639
0.0814065
-0.0867433
-1.20814
1.21348
0.0912591
-0.0940068
-1.3873
1.39005
0.0952972
-0.0942054
-1.58983
1.58874
0.090637
-0.0850256
-1.52716
1.52155
0.0785088
-0.0707286
-1.23839
1.23061
0.0629495
-0.0544379
-1.01685
1.00834
0.0465818
-0.0380841
-0.83889
0.830392
0.0307763
-0.0229874
-0.667959
0.66017
0.0154447
-0.00744232
-0.470389
0.462387
0.00192981
0.0014921
-0.265883
0.262461
-0.00274377
0.00271482
-0.110981
0.11101
-0.00204698
0.00108541
-0.0272867
0.0282483
-0.000398193
0.000162029
0.000236164
-0.0804661
0.0777138
0.00275234
-0.0050734
0.00271046
-0.399843
0.402206
0.00155256
-0.00599534
-0.557654
0.562097
0.0111521
-0.0168055
-0.685724
0.691378
0.0239401
-0.0305556
-0.803091
0.809707
0.0377209
-0.0440958
-0.924754
0.931129
0.0509805
-0.0567003
-1.06263
1.06835
0.0627059
-0.0670412
-1.21845
1.22279
0.0709846
-0.0732453
-1.39259
1.39485
0.0738471
-0.0719528
-1.58712
1.58523
0.0680076
-0.062099
-1.51517
1.50927
0.0554177
-0.0472584
-1.22242
1.21426
0.0396414
-0.0314936
-0.999361
0.991213
0.0239434
-0.0160678
-0.82096
0.813084
0.00880177
-0.00161179
-0.648681
0.641491
-0.0044128
0.00930947
-0.452571
0.447674
-0.0112423
0.0108025
-0.256392
0.256832
-0.00924956
0.00667403
-0.109907
0.112482
-0.00437708
0.00207087
-0.028482
0.0307882
-0.000655382
-0.00014446
0.000799842
-0.0790174
0.0766278
0.00238961
-0.00609617
0.00521882
-0.408794
0.409672
-0.00202108
-0.00130372
-0.56958
0.572904
0.005477
-0.0106065
-0.698136
0.703266
0.0166069
-0.0224532
-0.815623
0.821469
0.0287269
-0.0343658
-0.937104
0.942743
0.0404158
-0.0456551
-1.074
1.07924
0.0509028
-0.0550263
-1.22705
1.23117
0.0584925
-0.0603924
-1.39677
1.39867
0.060712
-0.0587627
-1.58319
1.58124
0.055033
-0.0494366
-1.50283
1.49723
0.0433994
-0.0361954
-1.20631
1.1991
0.0293161
-0.0215919
-0.982842
0.975117
0.0143477
-0.00625882
-0.803959
0.79587
-0.00109862
0.00820949
-0.631137
0.624026
-0.0131194
0.0162992
-0.440033
0.436853
-0.0167188
0.0145728
-0.253795
0.255941
-0.0117644
0.00835038
-0.113716
0.11713
-0.00533442
0.00246382
-0.0323858
0.0352564
-0.000755874
-0.00111307
0.00186895
-0.077743
0.0757301
0.00201295
-0.00589593
0.00543293
-0.41504
0.415503
-0.00350008
0.000736639
-0.578864
0.581628
0.00338874
-0.00783108
-0.7087
0.713142
0.0130461
-0.0181808
-0.826546
0.83168
0.0238485
-0.0290066
-0.948093
0.953252
0.0346936
-0.0394322
-1.08427
1.089
0.0443062
-0.0481426
-1.23506
1.2389
0.0513225
-0.0530846
-1.40036
1.40212
0.053423
-0.0521565
-1.57937
1.5781
0.0490337
-0.0445059
-1.49161
1.48709
0.03938
-0.0331067
-1.19214
1.18586
0.027103
-0.0196569
-0.967283
0.959837
0.0124073
-0.00425734
-0.786767
0.778617
-0.00313938
0.0101136
-0.614488
0.607513
-0.0146479
0.0172279
-0.430796
0.428216
-0.0170709
0.014742
-0.254368
0.256697
-0.0118717
0.00835962
-0.119154
0.122666
-0.00527219
0.00245515
-0.0372211
0.0400381
-0.000756871
-0.00230481
0.00306168
-0.0768471
0.0753017
0.00154537
-0.00496461
0.00477365
-0.419811
0.420002
-0.00310036
0.000950322
-0.587111
0.589261
0.00296777
-0.00707434
-0.717973
0.722079
0.0121004
-0.0166064
-0.836462
0.840968
0.0216929
-0.0263785
-0.958433
0.963118
0.0318862
-0.0362931
-1.09382
1.09822
0.0407407
-0.0444685
-1.2426
1.24632
0.0479324
-0.0497436
-1.40398
1.40579
0.0504907
-0.0496412
-1.57668
1.57583
0.04748
-0.0434898
-1.48269
1.4787
0.0391807
-0.0336381
-1.17966
1.17411
0.0278617
-0.0208049
-0.952301
0.945244
0.0136327
-0.00551403
-0.769567
0.761448
-0.00123705
0.00766385
-0.598794
0.592367
-0.0117067
0.0137765
-0.423041
0.420971
-0.0139004
0.012295
-0.255703
0.257308
-0.00992563
0.0069704
-0.124476
0.127432
-0.00439107
0.00205328
-0.0417355
0.0440733
-0.000640178
-0.00343327
0.00407345
-0.0764713
0.0752777
0.00119359
-0.00387347
0.00377498
-0.423717
0.423816
-0.00214618
6.25043e-05
-0.594424
0.596507
0.00369039
-0.00746439
-0.726452
0.730226
0.0118652
-0.0162819
-0.845474
0.849891
0.0210744
-0.0259611
-0.967651
0.972538
0.0307921
-0.035047
-1.10275
1.10701
0.0396575
-0.0432121
-1.24996
1.25351
0.046321
-0.0487021
-1.40759
1.40997
0.0498934
-0.0496321
-1.57522
1.57496
0.0478878
-0.0446082
-1.47504
1.47176
0.0406315
-0.0353144
-1.16825
1.16293
0.0297667
-0.0228925
-0.937864
0.93099
0.0160628
-0.00865724
-0.752998
0.745592
0.00222463
0.00351
-0.58467
0.578936
-0.00707434
0.00906969
-0.416415
0.414419
-0.00950723
0.00847104
-0.256176
0.257213
-0.0069198
0.0048859
-0.128413
0.130447
-0.00311644
0.00148211
-0.0451867
0.0468211
-0.000483221
-0.00430439
0.00478761
-0.076632
0.0756326
0.000999433
-0.00261694
0.00226522
-0.427289
0.427641
-0.000778411
-0.00137449
-0.601254
0.603407
0.00485344
-0.00855713
-0.734494
0.738198
0.0128477
-0.0169245
-0.854157
0.858234
0.0218853
-0.0260104
-0.976872
0.980997
0.0308204
-0.0349101
-1.11143
1.11552
0.0394217
-0.0432034
-1.25706
1.26085
0.0466868
-0.0489736
-1.41218
1.41447
0.050648
-0.0508672
-1.5747
1.57492
0.0497419
-0.0466274
-1.46833
1.46521
0.0428766
-0.0377321
-1.15759
1.15244
0.0324482
-0.0259265
-0.923807
0.917286
0.0197701
-0.0130358
-0.737836
0.731102
0.00737266
-0.0022215
-0.572263
0.567112
-0.00123119
0.0032478
-0.410008
0.407992
-0.00408742
0.00387046
-0.255557
0.255773
-0.00328705
0.0022932
-0.130541
0.131535
-0.00145113
0.000727504
-0.0471787
0.0479024
-0.000254094
-0.00487219
0.00512628
-0.0770706
0.0763712
0.000699377
-0.00152201
0.000718036
-0.430956
0.43176
0.000575322
-0.00287608
-0.607399
0.609699
0.00608643
-0.00971238
-0.742112
0.745738
0.0138759
-0.0181151
-0.862218
0.866458
0.0224869
-0.0267767
-0.985342
0.989632
0.0315405
-0.0354178
-1.12003
1.12391
0.0400356
-0.0438114
-1.26445
1.26823
0.0474115
-0.0502884
-1.41721
1.42009
0.0524874
-0.0529473
-1.57518
1.57564
0.051913
-0.0492812
-1.46217
1.45954
0.045855
-0.0409059
-1.14706
1.14212
0.035847
-0.0300268
-0.910676
0.904856
0.024147
-0.0183202
-0.724134
0.718307
0.013308
-0.0085377
-0.561421
0.556651
0.00526534
-0.00276442
-0.403501
0.401
0.0013706
-0.000566508
-0.253556
0.252752
0.000191249
-1.64955e-06
-0.130579
0.13039
-0.000150824
0.000193405
-0.0475467
0.0475041
-0.000123613
-0.00501915
0.00514276
-0.0778948
0.0773509
0.000543902
-0.000605192
-0.000119587
-0.434838
0.435563
0.00196051
-0.00411018
-0.613646
0.615796
0.00752192
-0.0110456
-0.749305
0.752828
0.0150792
-0.0189382
-0.870405
0.874263
0.0234388
-0.0274096
-0.993924
0.997895
0.0321101
-0.03642
-1.12823
1.13254
0.0406979
-0.0448292
-1.27207
1.2762
0.0488924
-0.0518888
-1.42289
1.42588
0.0544352
-0.0555607
-1.57628
1.57741
0.0548073
-0.0525883
-1.45668
1.45446
0.049225
-0.044656
-1.13713
1.13256
0.0400521
-0.0346016
-0.89866
0.89321
0.0293911
-0.0240401
-0.711999
0.706648
0.019418
-0.0147692
-0.551233
0.546585
0.0112698
-0.00837444
-0.396615
0.39372
0.00622182
-0.0045198
-0.249797
0.248095
0.00315933
-0.00188353
-0.128528
0.127252
0.000924696
-0.000229796
-0.0464139
0.045719
-3.01381e-05
-0.00479979
0.00482993
-0.0789808
0.0786067
0.000374027
0.000410272
-0.00130648
-0.43882
0.439717
0.00299758
-0.0054313
-0.619498
0.621932
0.00878495
-0.0121604
-0.756287
0.759662
0.01628
-0.0199919
-0.878121
0.881833
0.0243274
-0.0284056
-1.00234
1.00642
0.0330064
-0.0372849
-1.13671
1.14098
0.0418019
-0.0459901
-1.28027
1.28446
0.0502623
-0.0539986
-1.42917
1.43291
0.0569319
-0.0582451
-1.57843
1.57974
0.0580255
-0.0559844
-1.45204
1.45
0.0530899
-0.0490342
-1.12788
1.12383
0.0445773
-0.0395372
-0.887515
0.882475
0.0347412
-0.029629
-0.700924
0.695811
0.0253123
-0.0206719
-0.541586
0.536945
0.0170139
-0.0134728
-0.389113
0.385572
0.0107251
-0.00811685
-0.244329
0.241721
0.00577283
-0.00355985
-0.124485
0.122272
0.00190815
-0.000672096
-0.0440489
0.0428128
9.68645e-05
-0.00437829
0.00428143
-0.0802796
0.0800253
0.000254233
0.00121385