/*--------------------------------*- C++ -*----------------------------------*\
  =========                 |
  \\      /  F ield         | OpenFOAM: The Open Source CFD Toolbox
   \\    /   O peration     | Website:  https://openfoam.org
    \\  /    A nd           | Version:  6
     \\/     M anipulation  |
\*---------------------------------------------------------------------------*/
FoamFile
{
    version     2.0;
    format      ascii;
    class       volVectorField;
    location    "74.6";
    object      U;
}
// * * * * * * * * * * * * * * * * * * * * * * * * * * * * * * * * * * * * * //

dimensions      [0 1 -1 0 0 0 0];

internalField   nonuniform List<vector> 
8800
(
(0.987184 -0.0766659 0)
(1.00189 -0.0551913 0)
(0.999723 -0.0285496 0)
(1.00003 -0.0151448 0)
(1.0001 -0.00854614 0)
(1.00012 -0.00504812 0)
(1.00007 -0.00300276 0)
(1.00003 -0.00170238 0)
(0.999997 -0.000795973 0)
(1.00006 -7.98019e-05 0)
(0.99997 0.000651524 0)
(0.999984 0.00141988 0)
(1.00003 0.00243713 0)
(1.00006 0.00400336 0)
(1.00004 0.00663486 0)
(1.00003 0.0113733 0)
(0.999918 0.020816 0)
(0.999159 0.0386715 0)
(1.0071 0.0724575 0)
(0.771213 0.0366614 0)
(0.363069 -0.0160174 0)
(1.04331 -0.0768169 0)
(1.08459 -0.0704486 0)
(1.04519 -0.0535448 0)
(1.02328 -0.0388974 0)
(1.01202 -0.0262205 0)
(1.00643 -0.0168598 0)
(1.00359 -0.0103281 0)
(1.00215 -0.00566727 0)
(1.00144 -0.00200778 0)
(1.0013 0.00131565 0)
(1.00166 0.00470106 0)
(1.00265 0.0086348 0)
(1.00466 0.0139626 0)
(1.0086 0.021668 0)
(1.01655 0.032637 0)
(1.03248 0.0465499 0)
(1.06265 0.0616663 0)
(1.09187 0.0761015 0)
(0.838669 0.0565622 0)
(0.216846 -0.00242983 0)
(1.0759 -0.0501367 0)
(1.09988 -0.0483118 0)
(1.06464 -0.0404647 0)
(1.04003 -0.0336064 0)
(1.02391 -0.0260843 0)
(1.01412 -0.0185001 0)
(1.00855 -0.011678 0)
(1.00558 -0.0058064 0)
(1.00432 -0.000385108 0)
(1.00465 0.00486368 0)
(1.00658 0.0102583 0)
(1.01061 0.0163452 0)
(1.01794 0.0233606 0)
(1.03052 0.030825 0)
(1.05061 0.0378542 0)
(1.08034 0.0445366 0)
(1.10625 0.0513504 0)
(0.942518 0.0416199 0)
(0.216143 0.00246199 0)
(0.175173 -0.000816483 0)
(1.01769 -0.0354848 0)
(1.1052 -0.0413799 0)
(1.07826 -0.0360634 0)
(1.05346 -0.0301276 0)
(1.0362 -0.0245497 0)
(1.024 -0.0188185 0)
(1.01588 -0.0127345 0)
(1.01101 -0.00654153 0)
(1.0088 -0.000201014 0)
(1.00936 0.00605862 0)
(1.01262 0.0120595 0)
(1.01887 0.0178851 0)
(1.02876 0.0234484 0)
(1.04319 0.0287485 0)
(1.06371 0.0342306 0)
(1.09354 0.0402132 0)
(1.0934 0.0419726 0)
(0.827115 0.0229188 0)
(0.173988 0.000853512 0)
(0.153975 -0.000610318 0)
(0.956193 -0.025457 0)
(1.10346 -0.0351255 0)
(1.08768 -0.032647 0)
(1.06172 -0.0279912 0)
(1.04411 -0.0229635 0)
(1.03164 -0.0177122 0)
(1.02279 -0.0121752 0)
(1.01696 -0.00623197 0)
(1.01411 0.000244314 0)
(1.01477 0.00671093 0)
(1.01874 0.0125983 0)
(1.02579 0.0178816 0)
(1.03609 0.0227835 0)
(1.05063 0.0275405 0)
(1.07187 0.0320692 0)
(1.10005 0.036 0)
(1.06805 0.0340521 0)
(0.739465 0.0143228 0)
(0.152188 0.000652359 0)
(0.139609 -0.000466457 0)
(0.899311 -0.0190724 0)
(1.0958 -0.0300706 0)
(1.09575 -0.0291753 0)
(1.06925 -0.0254389 0)
(1.05082 -0.0212936 0)
(1.03789 -0.0165143 0)
(1.02877 -0.0112199 0)
(1.02264 -0.00546752 0)
(1.0195 0.000868069 0)
(1.02009 0.00718512 0)
(1.02418 0.0128234 0)
(1.03136 0.0177748 0)
(1.04187 0.022223 0)
(1.05697 0.0261872 0)
(1.07917 0.0296461 0)
(1.10224 0.0322654 0)
(1.03591 0.0281518 0)
(0.672837 0.0102249 0)
(0.137083 0.000514951 0)
(0.129077 -0.000360937 0)
(0.849756 -0.0147063 0)
(1.08343 -0.0259306 0)
(1.10144 -0.0262148 0)
(1.07612 -0.0229213 0)
(1.05715 -0.0192689 0)
(1.04376 -0.0150143 0)
(1.03429 -0.0100807 0)
(1.02792 -0.00453582 0)
(1.02457 0.00162303 0)
(1.02502 0.00772724 0)
(1.02906 0.0130897 0)
(1.03634 0.0176283 0)
(1.04712 0.0214675 0)
(1.06263 0.0247665 0)
(1.08526 0.027704 0)
(1.10131 0.0294497 0)
(1.00092 0.0236506 0)
(0.620913 0.0078663 0)
(0.125653 0.000417986 0)
(0.121048 -0.00028011 0)
(0.807667 -0.0115439 0)
(1.06819 -0.0223112 0)
(1.10499 -0.0235644 0)
(1.08239 -0.0206812 0)
(1.06301 -0.0172408 0)
(1.04934 -0.013291 0)
(1.03959 -0.0086918 0)
(1.03292 -0.00341548 0)
(1.02932 0.00252939 0)
(1.02958 0.0083894 0)
(1.03357 0.0134026 0)
(1.04091 0.0174673 0)
(1.05179 0.020795 0)
(1.06751 0.023682 0)
(1.09048 0.0263174 0)
(1.09748 0.0271631 0)
(0.965536 0.0201284 0)
(0.579137 0.00633863 0)
(0.11653 0.00034796 0)
(0.114833 -0.0002167 0)
(0.772271 -0.00917595 0)
(1.05149 -0.0191213 0)
(1.1074 -0.0211073 0)
(1.08828 -0.0185906 0)
(1.06851 -0.015291 0)
(1.05461 -0.0114995 0)
(1.04465 -0.00710752 0)
(1.03774 -0.00206884 0)
(1.03385 0.00362542 0)
(1.03387 0.00918665 0)
(1.03773 0.0138233 0)
(1.04501 0.0174643 0)
(1.05587 0.0204017 0)
(1.07178 0.0229646 0)
(1.0944 0.0252517 0)
(1.0908 0.0252789 0)
(0.931058 0.0174196 0)
(0.544487 0.00529954 0)
(0.108988 0.000297827 0)
(0.11 -0.000165586 0)
(0.74263 -0.00733515 0)
(1.03438 -0.0162895 0)
(1.10888 -0.0187867 0)
(1.09389 -0.0165715 0)
(1.07384 -0.01336 0)
(1.05966 -0.00965483 0)
(1.04951 -0.0053791 0)
(1.04237 -0.000509184 0)
(1.03818 0.00494553 0)
(1.03789 0.0101937 0)
(1.04151 0.0144728 0)
(1.04864 0.0177422 0)
(1.05946 0.0203284 0)
(1.07556 0.0225993 0)
(1.09702 0.0245036 0)
(1.08164 0.0237519 0)
(0.898035 0.0153748 0)
(0.514903 0.00458008 0)
(0.102542 0.000262926 0)
(0.106266 -0.000122999 0)
(0.717926 -0.00584741 0)
(1.01769 -0.0137439 0)
(1.10955 -0.016539 0)
(1.09941 -0.0145919 0)
(1.0791 -0.011387 0)
(1.06463 -0.0077054 0)
(1.05425 -0.00348566 0)
(1.04684 0.001274 0)
(1.04231 0.00653354 0)
(1.04164 0.0114925 0)
(1.04494 0.0154318 0)
(1.05187 0.018344 0)
(1.06262 0.0205928 0)
(1.07889 0.022597 0)
(1.09829 0.0240865 0)
(1.07038 0.0225828 0)
(0.866566 0.0138788 0)
(0.488923 0.00409038 0)
(0.0968477 0.000240244 0)
(0.103444 -8.59709e-05 0)
(0.697522 -0.00459639 0)
(1.00205 -0.0114167 0)
(1.10957 -0.0143268 0)
(1.10478 -0.012561 0)
(1.08437 -0.00931323 0)
(1.06958 -0.0055981 0)
(1.05893 -0.00137485 0)
(1.0512 0.00333465 0)
(1.04625 0.00844775 0)
(1.04511 0.0131494 0)
(1.04803 0.0167678 0)
(1.05472 0.0193273 0)
(1.06537 0.02124 0)
(1.08176 0.022983 0)
(1.09851 0.0240881 0)
(1.05727 0.0217848 0)
(0.836473 0.0128442 0)
(0.465448 0.00377523 0)
(0.0916456 0.000227377 0)
(0.101416 -5.18093e-05 0)
(0.680949 -0.00349463 0)
(0.987908 -0.00923681 0)
(1.10915 -0.0120641 0)
(1.11 -0.0104023 0)
(1.08973 -0.00708748 0)
(1.0746 -0.00327725 0)
(1.06362 0.00101709 0)
(1.0555 0.00573437 0)
(1.05004 0.0107537 0)
(1.04833 0.0152336 0)
(1.05079 0.0185442 0)
(1.05719 0.0207522 0)
(1.0677 0.0223295 0)
(1.08413 0.0237911 0)
(1.09772 0.0244797 0)
(1.04245 0.0213687 0)
(0.807398 0.0121997 0)
(0.443603 0.00359709 0)
(0.086728 0.000222345 0)
(0.100121 -1.82644e-05 0)
(0.667911 -0.00247274 0)
(0.97563 -0.00712998 0)
(1.10861 -0.00969052 0)
(1.11519 -0.00804746 0)
(1.09528 -0.00461911 0)
(1.07976 -0.000647576 0)
(1.06839 0.00378308 0)
(1.0598 0.00857388 0)
(1.05371 0.0135449 0)
(1.05132 0.0178214 0)
(1.05322 0.0208358 0)
(1.05927 0.0226807 0)
(1.06962 0.0239066 0)
(1.08603 0.0250891 0)
(1.09572 0.0252995 0)
(1.02597 0.0213273 0)
(0.778896 0.0118911 0)
(0.42268 0.00353037 0)
(0.0819303 0.000223632 0)
(0.0995444 1.75799e-05 0)
(0.658257 -0.0014779 0)
(0.965535 -0.00502562 0)
(1.10829 -0.00714796 0)
(1.12051 -0.00542986 0)
(1.10108 -0.00183396 0)
(1.08514 0.00236533 0)
(1.07332 0.00700767 0)
(1.06414 0.0119441 0)
(1.05729 0.0169293 0)
(1.05408 0.0210369 0)
(1.05532 0.0237517 0)
(1.06095 0.025225 0)
(1.0711 0.0260893 0)
(1.0874 0.0269438 0)
(1.09238 0.0265917 0)
(1.00775 0.0217037 0)
(0.750462 0.011896 0)
(0.402078 0.00356203 0)
(0.0771158 0.000230743 0)
(0.0997099 4.87896e-05 0)
(0.651976 -0.0004635 0)
(0.957929 -0.0028476 0)
(1.10854 -0.0043625 0)
(1.12609 -0.00246257 0)
(1.10725 0.00137065 0)
(1.09085 0.00587981 0)
(1.07847 0.0108115 0)
(1.06859 0.0159654 0)
(1.06083 0.0210222 0)
(1.05662 0.0249874 0)
(1.05706 0.0274012 0)
(1.0622 0.0284937 0)
(1.0721 0.0289693 0)
(1.08796 0.0294449 0)
(1.0874 0.0284184 0)
(0.987596 0.0225306 0)
(0.721524 0.0121978 0)
(0.381245 0.00368322 0)
(0.0721596 0.000242901 0)
(0.10069 9.6734e-05 0)
(0.649198 0.000602178 0)
(0.953134 -0.000511569 0)
(1.10972 -0.00125381 0)
(1.13217 0.000961537 0)
(1.11391 0.00513041 0)
(1.09699 0.0100364 0)
(1.08395 0.0153462 0)
(1.07321 0.0207992 0)
(1.06434 0.0259735 0)
(1.05895 0.0298043 0)
(1.05844 0.0319064 0)
(1.06299 0.0326148 0)
(1.07257 0.0326717 0)
(1.0876 0.0327195 0)
(1.08055 0.0308687 0)
(0.965196 0.0238402 0)
(0.691456 0.012786 0)
(0.359665 0.00388516 0)
(0.0669526 0.000259253 0)
(0.102637 0.000153503 0)
(0.650224 0.00177603 0)
(0.951507 0.00204791 0)
(1.11228 0.00227761 0)
(1.13893 0.0049376 0)
(1.12119 0.00955642 0)
(1.10368 0.0149672 0)
(1.08985 0.0207636 0)
(1.07806 0.026607 0)
(1.06786 0.0319717 0)
(1.06104 0.0356932 0)
(1.05942 0.0374308 0)
(1.06325 0.0377355 0)
(1.07245 0.0373417 0)
(1.08602 0.036884 0)
(1.07153 0.0340338 0)
(0.940094 0.0256763 0)
(0.65958 0.0136555 0)
(0.33685 0.00416073 0)
(0.0614009 0.000278929 0)
(0.105636 0.000217227 0)
(0.655524 0.00323089 0)
(0.95349 0.00498698 0)
(1.11668 0.00638494 0)
(1.14663 0.00963927 0)
(1.12928 0.0148619 0)
(1.11108 0.0209054 0)
(1.09628 0.0272993 0)
(1.08322 0.0336209 0)
(1.0714 0.0392142 0)
(1.0629 0.0428058 0)
(1.05997 0.044153 0)
(1.06294 0.0440217 0)
(1.07169 0.0431254 0)
(1.08316 0.0421411 0)
(1.05993 0.0380252 0)
(0.911687 0.0280792 0)
(0.625161 0.0147959 0)
(0.312343 0.00449879 0)
(0.0554279 0.000300599 0)
(0.109979 0.000301551 0)
(0.665487 0.0049302 0)
(0.959571 0.0084531 0)
(1.12346 0.0112104 0)
(1.15556 0.0152577 0)
(1.1384 0.0212752 0)
(1.11936 0.0280992 0)
(1.10336 0.035225 0)
(1.08871 0.0421138 0)
(1.07493 0.0479544 0)
(1.06445 0.0513703 0)
(1.06002 0.0522665 0)
(1.06199 0.0516591 0)
(1.07019 0.0501924 0)
(1.07904 0.0485974 0)
(1.04519 0.042949 0)
(0.879206 0.0310653 0)
(0.587414 0.0161778 0)
(0.285732 0.00487996 0)
(0.0489845 0.000322137 0)
(0.116007 0.00041557 0)
(0.680964 0.00706151 0)
(0.970433 0.0126478 0)
(1.13315 0.0169943 0)
(1.16608 0.0220487 0)
(1.14881 0.0290982 0)
(1.12871 0.0368801 0)
(1.11119 0.044876 0)
(1.09459 0.0524067 0)
(1.07845 0.0584981 0)
(1.06565 0.0616574 0)
(1.05938 0.0619735 0)
(1.06034 0.0608412 0)
(1.06796 0.0587509 0)
(1.07336 0.05642 0)
(1.02658 0.0488797 0)
(0.841713 0.0346187 0)
(0.545545 0.0177433 0)
(0.256705 0.00527359 0)
(0.0420653 0.00034069 0)
(0.124247 0.000573952 0)
(0.702853 0.00984542 0)
(0.986933 0.0178741 0)
(1.14644 0.0240817 0)
(1.17869 0.0304293 0)
(1.16083 0.0388276 0)
(1.13933 0.0477644 0)
(1.11987 0.0567503 0)
(1.10083 0.0649347 0)
(1.08186 0.0711573 0)
(1.06637 0.0738842 0)
(1.05806 0.0734863 0)
(1.05789 0.0717218 0)
(1.06487 0.0689237 0)
(1.06568 0.0655591 0)
(1.00316 0.055876 0)
(0.798109 0.0386601 0)
(0.498819 0.0193863 0)
(0.225121 0.00563369 0)
(0.0347255 0.000352518 0)
(0.135435 0.000803558 0)
(0.732478 0.0136725 0)
(1.01023 0.0246027 0)
(1.16413 0.0330163 0)
(1.19402 0.0409845 0)
(1.17483 0.0511143 0)
(1.1514 0.0614044 0)
(1.12941 0.0714471 0)
(1.10732 0.0801875 0)
(1.08498 0.0863129 0)
(1.06647 0.0883333 0)
(1.05597 0.0870291 0)
(1.05459 0.0845616 0)
(1.06052 0.0808634 0)
(1.05525 0.0763023 0)
(0.973665 0.0638717 0)
(0.747184 0.0429962 0)
(0.446696 0.0209319 0)
(0.19112 0.00589656 0)
(0.0271013 0.000353187 0)
(0.15084 0.00116393 0)
(0.771822 0.019162 0)
(1.04198 0.0336137 0)
(1.18714 0.0447329 0)
(1.21289 0.0549137 0)
(1.19116 0.0669977 0)
(1.16499 0.0787596 0)
(1.13964 0.0897476 0)
(1.11378 0.098731 0)
(1.08755 0.104325 0)
(1.06571 0.105221 0)
(1.05291 0.102742 0)
(1.05034 0.0994492 0)
(1.0547 0.0949769 0)
(1.04116 0.0886422 0)
(0.9365 0.0726506 0)
(0.687765 0.0472862 0)
(0.389067 0.022133 0)
(0.155249 0.00598636 0)
(0.019426 0.000338375 0)
(0.172663 0.00178827 0)
(0.824139 0.0274541 0)
(1.08487 0.0464649 0)
(1.21663 0.061123 0)
(1.23582 0.0741649 0)
(1.20989 0.0881553 0)
(1.17982 0.101201 0)
(1.15012 0.112637 0)
(1.11976 0.121188 0)
(1.08917 0.125514 0)
(1.06382 0.124694 0)
(1.04872 0.120713 0)
(1.04498 0.116396 0)
(1.04738 0.11096 0)
(1.02206 0.102426 0)
(0.889675 0.0817291 0)
(0.619058 0.0510089 0)
(0.326648 0.0226856 0)
(0.118619 0.00582784 0)
(0.0120362 0.000304145 0)
(0.204291 0.00316022 0)
(0.895198 0.0411854 0)
(1.14238 0.0669714 0)
(1.25297 0.0857587 0)
(1.26259 0.1016 0)
(1.23039 0.11696 0)
(1.19504 0.130345 0)
(1.16001 0.141088 0)
(1.12456 0.148064 0)
(1.08933 0.150105 0)
(1.06049 0.146831 0)
(1.04323 0.140931 0)
(1.03841 0.135398 0)
(1.03794 0.128886 0)
(0.996046 0.117196 0)
(0.830872 0.0902657 0)
(0.54142 0.0534853 0)
(0.261734 0.0223651 0)
(0.0831699 0.00539017 0)
(0.00542189 0.000246052 0)
(0.247443 0.00941692 8.34541e-21)
(0.988939 0.0683658 7.17766e-21)
(1.21212 0.101751 -2.51802e-21)
(1.29307 0.122332 0)
(1.29026 0.14086 -6.54187e-35)
(1.25043 0.155752 9.59793e-22)
(1.20905 0.16767 -1.7511e-21)
(1.16824 0.176276 0)
(1.12739 0.18061 3.65335e-35)
(1.08729 0.179578 -2.21862e-21)
(1.05479 0.173395 0)
(1.03533 0.165467 -2.66467e-21)
(1.02983 0.159005 -7.88492e-21)
(1.02485 0.152012 -3.73958e-21)
(0.958422 0.135318 -1.1289e-21)
(0.753419 0.0992041 -6.71346e-22)
(0.449903 0.0547675 0)
(0.193292 0.0215048 4.70209e-22)
(0.0490763 0.00488715 5.56867e-22)
(-0.000435955 0.000153429 1.01734e-20)
(0.277363 0.0247581 5.69396e-21)
(1.0666 0.11133 1.12651e-22)
(1.26963 0.151312 6.51909e-22)
(1.32916 0.171843 0)
(1.31459 0.190542 -3.24999e-21)
(1.26769 0.203313 -3.72277e-21)
(1.22038 0.21296 -1.7486e-21)
(1.17378 0.219138 -6.2979e-21)
(1.12739 0.220819 0)
(1.08213 0.216831 9.39379e-21)
(1.04566 0.207881 9.36437e-21)
(1.02385 0.19803 2.7896e-21)
(1.01594 0.18996 1.02385e-20)
(1.0006 0.18064 1.44681e-20)
(0.897996 0.155625 0)
(0.646959 0.107818 2.04405e-20)
(0.342151 0.0554202 2.93342e-20)
(0.122615 0.0198557 3.2644e-20)
(0.0154207 0.00322781 -3.74458e-20)
(-0.00612543 -0.000453402 -7.14224e-22)
(0.278841 0.0417798 0)
(1.11617 0.16689 8.81183e-22)
(1.30875 0.211921 0)
(1.35737 0.232137 -3.96299e-21)
(1.33378 0.248026 0)
(1.28095 0.256892 -7.18073e-21)
(1.22808 0.262787 3.53742e-21)
(1.17599 0.265382 -1.25463e-20)
(1.12436 0.263508 -3.21857e-22)
(1.0743 0.25587 4.82541e-21)
(1.03422 0.243646 2.05669e-20)
(1.01029 0.231567 -3.61395e-23)
(0.999784 0.221603 -7.42853e-21)
(0.973949 0.208551 -1.35668e-20)
(0.842177 0.174879 1.60951e-20)
(0.567819 0.11508 -2.85109e-20)
(0.276006 0.0556813 -3.76169e-21)
(0.0831867 0.0179691 0)
(-0.00315367 0.000923755 -3.56444e-24)
(-0.00939198 -0.00126919 0)
(0.272207 0.0560693 8.92459e-21)
(1.14313 0.226119 -4.72029e-21)
(1.33311 0.277085 -4.11553e-21)
(1.37615 0.297723 1.79584e-21)
(1.34636 0.30982 -3.04207e-21)
(1.2891 0.314112 1.49329e-20)
(1.23169 0.31553 7.32434e-21)
(1.17488 0.313835 0)
(1.11862 0.307762 -2.38974e-20)
(1.06425 0.295912 0)
(1.02093 0.27999 -1.07321e-20)
(0.995095 0.265308 -1.33564e-20)
(0.982049 0.252966 -8.06415e-21)
(0.947139 0.235372 -9.82717e-21)
(0.796055 0.192906 0)
(0.514636 0.1228 0)
(0.237983 0.0573626 -2.44176e-20)
(0.0598926 0.016232 4.82546e-21)
(-0.0160207 -0.00196532 -2.83844e-21)
(-0.0122534 -0.00232314 -3.3627e-21)
(0.264234 0.0685998 -1.45038e-21)
(1.15503 0.285221 0)
(1.3466 0.343204 7.28634e-21)
(1.38653 0.364707 4.77439e-21)
(1.35243 0.372993 7.18423e-21)
(1.29195 0.372699 0)
(1.23101 0.36951 7.03408e-21)
(1.17037 0.363301 1.3746e-20)
(1.11016 0.352734 1.21456e-20)
(1.05197 0.336337 2.26502e-20)
(1.00568 0.316402 0)
(0.977977 0.298747 -2.87115e-20)
(0.962501 0.283661 -1.73508e-20)
(0.920571 0.261174 -1.02768e-20)
(0.759357 0.210363 6.30793e-20)
(0.480696 0.131507 7.50037e-21)
(0.216944 0.0600776 3.53034e-20)
(0.0463605 0.0146111 -1.66986e-19)
(-0.0251457 -0.00523327 9.89178e-20)
(-0.0148133 -0.00356833 -1.20744e-19)
(0.256484 0.0798103 1.974e-21)
(1.15727 0.342265 1.77903e-22)
(1.35219 0.408403 -5.14096e-22)
(1.39015 0.431151 -3.98237e-21)
(1.35296 0.435821 -5.55845e-21)
(1.29007 0.43111 3.62649e-22)
(1.22637 0.423445 -7.62743e-21)
(1.16259 0.412772 1.41011e-20)
(1.09903 0.397677 -2.61012e-20)
(1.03745 0.376634 0)
(0.988407 0.352494 -1.29564e-20)
(0.95888 0.331671 -3.13763e-22)
(0.941124 0.313599 -1.89793e-20)
(0.893883 0.286339 0)
(0.729586 0.228107 -1.36456e-20)
(0.459365 0.141478 -3.23946e-20)
(0.206399 0.0640513 8.62883e-20)
(0.0400628 0.0135413 -8.49995e-20)
(-0.0305817 -0.00841694 1.20858e-19)
(-0.0168347 -0.0048929 -1.27184e-19)
(0.249812 0.0901019 -1.08249e-22)
(1.15342 0.396562 7.45727e-22)
(1.35205 0.471653 -9.87789e-24)
(1.38848 0.495905 1.1888e-21)
(1.34901 0.497301 -2.71388e-21)
(1.28431 0.488427 0)
(1.21839 0.476514 -6.89143e-21)
(1.15198 0.46155 -1.47021e-20)
(1.08551 0.442034 -1.35044e-20)
(1.02089 0.416388 0)
(0.969244 0.388021 -1.33694e-20)
(0.937849 0.363907 -1.66735e-20)
(0.917963 0.342758 2.05714e-20)
(0.867209 0.310807 -1.25033e-20)
(0.704493 0.246131 -5.94898e-20)
(0.445531 0.15278 3.52953e-20)
(0.203012 0.0693532 1.0471e-20)
(0.0393463 0.0134996 0)
(-0.0323618 -0.0109321 -1.1674e-19)
(-0.0180437 -0.00611975 -4.33818e-21)
(0.244384 0.0998153 9.78515e-22)
(1.14582 0.447944 -1.38457e-21)
(1.34769 0.5324 -2.82126e-22)
(1.38275 0.558283 4.81039e-21)
(1.34156 0.556788 -9.22793e-21)
(1.27548 0.544086 1.29128e-20)
(1.20774 0.528216 1.4857e-20)
(1.13909 0.5092 -2.3471e-20)
(1.07004 0.485447 8.47633e-21)
(1.00263 0.455331 -5.55642e-20)
(0.948491 0.422814 -1.51905e-20)
(0.915225 0.39536 0)
(0.893309 0.371138 2.23379e-20)
(0.840202 0.334763 2.6825e-20)
(0.681666 0.264508 3.20737e-20)
(0.435 0.165186 -3.83751e-20)
(0.202622 0.0758249 -1.13618e-20)
(0.0420752 0.0148358 1.33354e-20)
(-0.0309575 -0.0123601 0)
(-0.0182799 -0.00705349 -9.42689e-21)
(0.240106 0.109049 -1.53069e-20)
(1.13618 0.496488 8.34855e-21)
(1.3404 0.590494 6.62635e-22)
(1.37399 0.617934 2.3356e-21)
(1.33143 0.613891 -3.67314e-21)
(1.26429 0.597706 -8.34328e-22)
(1.19506 0.578224 -1.63237e-20)
(1.12447 0.555453 -8.51619e-21)
(1.05307 0.527708 -2.35053e-20)
(0.983004 0.4933 6.5962e-23)
(0.926481 0.456744 -4.7502e-20)
(0.891352 0.426008 4.04064e-20)
(0.8675 0.398802 -2.46109e-20)
(0.812785 0.358273 2.96205e-20)
(0.659588 0.282771 0)
(0.425243 0.178189 -2.09118e-20)
(0.202963 0.0832491 6.93981e-23)
(0.0464112 0.0174333 -5.83297e-20)
(-0.0275404 -0.0126636 -8.58827e-21)
(-0.0177479 -0.00764854 0)
(0.236904 0.118052 0)
(1.12553 0.542425 9.66585e-21)
(1.33107 0.646223 3.79419e-21)
(1.36302 0.674693 -1.5225e-21)
(1.31932 0.668393 -5.28581e-21)
(1.25137 0.649075 0)
(1.18089 0.626332 -7.12586e-21)
(1.10857 0.600139 -2.11979e-22)
(1.03502 0.568696 5.04394e-20)
(0.962442 0.530221 -7.61148e-21)
(0.903548 0.489744 -3.43657e-20)
(0.866574 0.455849 2.09873e-20)
(0.840842 0.425688 -4.48395e-22)
(0.784864 0.381179 3.15912e-20)
(0.63727 0.300574 1.93576e-20)
(0.414567 0.191209 -4.51557e-20)
(0.202699 0.0909571 5.34732e-20)
(0.0509234 0.0208161 1.58629e-20)
(-0.0230574 -0.0120561 6.55691e-20)
(-0.0166654 -0.00791156 -1.77358e-19)
(0.234689 0.126965 -5.16383e-21)
(1.11458 0.585936 6.84168e-21)
(1.3203 0.699067 -4.55291e-21)
(1.35048 0.728508 -3.70642e-23)
(1.30581 0.72019 0)
(1.23721 0.698074 -5.27549e-21)
(1.16568 0.672423 2.43047e-20)
(1.09184 0.643154 1.85969e-20)
(1.01628 0.60833 0)
(0.941247 0.566045 -1.10227e-19)
(0.879983 0.521801 9.32592e-20)
(0.841186 0.484795 0)
(0.813662 0.451716 2.88999e-20)
(0.756519 0.40327 -4.40602e-22)
(0.613986 0.317584 -6.23487e-20)
(0.402162 0.20367 2.438e-20)
(0.200369 0.0985594 0)
(0.0544176 0.024643 8.58311e-20)
(-0.0184519 -0.010772 0)
(-0.0152621 -0.00789048 -8.41815e-20)
(0.233328 0.135821 6.20613e-21)
(1.10378 0.627235 8.96306e-21)
(1.30854 0.749084 -4.49984e-21)
(1.33691 0.779396 0)
(1.29138 0.769271 -3.55265e-21)
(1.22227 0.744669 0)
(1.14984 0.716442 -2.35084e-20)
(1.07462 0.684431 -8.42404e-21)
(0.997152 0.64657 8.83413e-21)
(0.919681 0.600748 -5.46128e-20)
(0.856029 0.552901 9.61748e-21)
(0.815389 0.51278 0)
(0.78614 0.476728 -6.18793e-20)
(0.727839 0.424262 4.16926e-22)
(0.589502 0.333371 0)
(0.387839 0.21485 1.60067e-22)
(0.195688 0.10542 7.85988e-20)
(0.0560923 0.0282593 -7.43209e-20)
(-0.0145975 -0.00930478 2.19987e-20)
(-0.0138381 -0.00770013 0)
(0.232474 0.144557 0)
(1.09332 0.666503 1.08566e-20)
(1.29622 0.796384 6.72078e-21)
(1.32271 0.827429 -5.20467e-22)
(1.27641 0.815669 -4.2567e-22)
(1.2069 0.788866 -1.18824e-20)
(1.1337 0.758376 8.97485e-21)
(1.0572 0.723947 -1.01639e-20)
(0.977907 0.683385 3.97538e-20)
(0.898008 0.634352 -8.75656e-20)
(0.83187 0.583043 -8.70358e-22)
(0.789364 0.53979 -2.70245e-20)
(0.758424 0.500603 1.00678e-19)
(0.698886 0.443882 -5.11118e-22)
(0.563814 0.347613 -4.86815e-20)
(0.371594 0.224267 -8.63639e-20)
(0.188781 0.111034 0)
(0.0557413 0.0311478 0)
(-0.0118806 -0.00804803 2.37898e-20)
(-0.012569 -0.00746697 -1.41341e-20)
(0.232261 0.15334 8.77333e-21)
(1.08343 0.703555 -2.47163e-20)
(1.28364 0.841061 -7.22312e-21)
(1.3082 0.872689 0)
(1.26119 0.859444 -3.09833e-22)
(1.19138 0.8307 -9.98735e-21)
(1.11751 0.798237 2.1112e-20)
(1.03984 0.761705 3.94906e-20)
(0.958798 0.718782 5.16094e-20)
(0.876443 0.666883 -7.16053e-20)
(0.807677 0.612282 -8.07776e-20)
(0.763187 0.565837 7.24356e-20)
(0.730565 0.523236 0)
(0.669747 0.461793 -2.22193e-20)
(0.537423 0.359803 -5.26601e-20)
(0.353713 0.231623 -6.2219e-20)
(0.179881 0.114933 -7.34835e-20)
(0.053707 0.0329016 2.1757e-20)
(-0.0102802 -0.007258 -1.28265e-20)
(-0.0115234 -0.00726678 6.69884e-23)
(0.232251 0.161945 0)
(1.07425 0.738874 0)
(1.27101 0.883218 5.1366e-22)
(1.29361 0.915282 0)
(1.24598 0.900686 -1.38503e-21)
(1.17593 0.870236 6.01765e-21)
(1.10149 0.836057 0)
(1.02276 0.797716 4.58989e-21)
(0.940021 0.752772 8.61233e-20)
(0.855168 0.698368 -1.65073e-19)
(0.783602 0.640696 0)
(0.73693 0.590984 -4.68179e-20)
(0.702522 0.54452 -5.9904e-22)
(0.640331 0.477704 -4.36285e-22)
(0.510446 0.369548 5.65506e-20)
(0.334577 0.236514 1.09403e-23)
(0.169394 0.116876 -1.58503e-19)
(0.0502551 0.0334543 4.68396e-20)
(-0.00962045 -0.00696376 1.38973e-20)
(-0.0106849 -0.00710795 0)
(0.232514 0.170364 -3.53804e-20)
(1.06553 0.77254 -1.67758e-20)
(1.2584 0.922924 -2.15716e-20)
(1.27913 0.955317 2.04992e-20)
(1.23097 0.93947 -5.58498e-21)
(1.16074 0.907538 0)
(1.08582 0.871884 1.23982e-20)
(1.00611 0.832005 -1.03622e-20)
(0.921739 0.785373 7.99549e-22)
(0.834369 0.72885 1.22422e-20)
(0.759785 0.668382 1.05159e-19)
(0.710618 0.615329 -1.64429e-20)
(0.67419 0.564435 -6.24704e-20)
(0.610567 0.491377 -2.59866e-20)
(0.483078 0.376452 3.06727e-20)
(0.314462 0.238613 3.98109e-23)
(0.158003 0.116714 4.27338e-20)
(0.0458937 0.0328199 -1.00919e-19)
(-0.00959217 -0.00710058 1.19715e-19)
(-0.0100107 -0.00699274 1.76749e-20)
(0.232658 0.178541 1.34738e-20)
(1.05729 0.804631 -9.47522e-21)
(1.246 0.960302 1.29901e-21)
(1.2649 0.992918 1.33615e-20)
(1.21627 0.975908 2.58064e-21)
(1.14594 0.942678 -9.80639e-21)
(1.07063 0.905767 3.31458e-21)
(0.990019 0.864597 -4.31016e-20)
(0.904101 0.81659 -9.50645e-20)
(0.814196 0.758344 -9.87332e-20)
(0.736368 0.695434 0)
(0.684293 0.639013 -7.26159e-20)
(0.645436 0.583062 9.03378e-20)
(0.580191 0.502564 0)
(0.45534 0.379975 -6.58459e-20)
(0.294381 0.237436 3.90788e-20)
(0.146679 0.114241 -4.60173e-20)
(0.041583 0.0312127 -5.43584e-20)
(-0.00982332 -0.00746443 -9.65128e-20)
(-0.00949508 -0.00691592 -7.622e-20)
(0.233189 0.186597 -1.53034e-20)
(1.04938 0.835141 1.01515e-20)
(1.23386 0.995418 2.29545e-20)
(1.25102 1.02817 1.96831e-20)
(1.20202 1.0101 -4.64018e-21)
(1.13163 0.975744 -4.30368e-21)
(1.056 0.937757 1.13291e-20)
(0.974601 0.895536 -4.40763e-20)
(0.887208 0.846445 -5.64205e-20)
(0.79478 0.786871 1.03606e-19)
(0.713486 0.721933 2.32301e-19)
(0.658008 0.662213 0)
(0.616105 0.600599 0)
(0.548796 0.511166 -2.99865e-20)
(0.426959 0.379523 0)
(0.274836 0.231938 8.40207e-20)
(0.137295 0.108596 9.89799e-20)
(0.0395219 0.0283728 0)
(-0.00922426 -0.00792428 0)
(-0.00920609 -0.00694577 8.19959e-20)
(0.23341 0.194206 1.74569e-20)
(1.04182 0.864066 1.38201e-20)
(1.22206 1.02839 1.67274e-20)
(1.23756 1.06119 -1.91478e-20)
(1.18826 1.04214 -6.43659e-21)
(1.11788 1.00681 2.95277e-21)
(1.04203 0.967914 -1.53886e-20)
(0.959926 0.92485 -1.43941e-22)
(0.87115 0.874945 -1.04819e-21)
(0.776236 0.814436 -8.62155e-22)
(0.69129 0.747941 1.19971e-19)
(0.63185 0.685102 0)
(0.586097 0.617338 9.21268e-20)
(0.515879 0.517336 6.42661e-20)
(0.397117 0.374694 1.54159e-19)
(0.255484 0.220322 4.53697e-20)
(0.131789 0.0963676 -5.32885e-20)
(0.0451354 0.0203403 -3.13855e-20)
(-0.00108792 -0.0101484 0)
(-0.0076288 -0.00680019 8.82109e-20)
(0.234021 0.20185 -3.96164e-20)
(1.03456 0.891538 0)
(1.21059 1.05926 1.98152e-20)
(1.22456 1.09207 -1.63313e-20)
(1.17508 1.07214 9.17138e-21)
(1.10473 1.03596 -5.14364e-22)
(1.02875 0.996292 2.86575e-20)
(0.946039 0.952571 -3.67217e-21)
(0.855982 0.902098 0)
(0.758661 0.841014 -1.14725e-19)
(0.669932 0.773495 -2.61671e-19)
(0.605945 0.707859 1.08062e-20)
(0.555407 0.633611 1.27849e-19)
(0.481025 0.521581 0)
(0.364432 0.365804 1.04388e-19)
(0.233697 0.200867 0)
(0.128207 0.069796 0)
(0.0653292 -0.0108339 -3.39372e-20)
(0.0432643 -0.0275292 0)
(0.0245202 0.00383278 2.36697e-20)
(0.234217 0.20894 -4.43754e-20)
(1.02758 0.917793 0)
(1.19944 1.08823 3.31645e-20)
(1.21197 1.12105 0)
(1.16242 1.10036 -5.72226e-21)
(1.09214 1.06349 0)
(1.0161 1.0232 1.18404e-21)
(0.932846 0.979035 6.07973e-21)
(0.841582 0.928263 7.14075e-21)
(0.741877 0.866977 -1.2612e-19)
(0.649217 0.799049 7.84558e-21)
(0.579985 0.731153 8.75283e-20)
(0.523507 0.650224 1.2517e-19)
(0.443198 0.524644 1.68691e-20)
(0.326792 0.354292 8.21304e-20)
(0.203787 0.174248 0)
(0.112846 0.0243692 1.12378e-19)
(0.0650326 -0.0460642 -6.59992e-20)
(0.0298678 0.0510048 7.71441e-20)
(-0.0384612 0.457302 -9.16608e-20)
(0.234382 0.215877 3.68414e-20)
(1.02066 0.942695 5.55806e-20)
(1.18855 1.11564 0)
(1.19965 1.14857 1.03191e-21)
(1.1501 1.12739 1.71869e-20)
(1.07981 1.09008 -6.9995e-21)
(1.00376 1.04944 9.186e-21)
(0.919927 1.00518 0)
(0.827406 0.954536 4.67612e-20)
(0.72519 0.89363 -6.52145e-21)
(0.628203 0.826097 0)
(0.552615 0.756668 0)
(0.488237 0.66845 1.12547e-19)
(0.399697 0.526889 -5.22424e-20)
(0.280858 0.341854 -8.35621e-20)
(0.161077 0.143336 0)
(0.0655158 0.0459083 5.71942e-20)
(0.00529592 0.461275 -6.64207e-20)
(0.0303597 1.93069 -3.73104e-20)
(0.0568585 2.82664 -4.57615e-20)
(0.234215 0.222273 -2.78214e-20)
(1.01383 0.966419 -7.16131e-20)
(1.17792 1.14147 1.98429e-20)
(1.18761 1.1745 1.62047e-20)
(1.13816 1.15302 0)
(1.06785 1.11545 -7.15455e-21)
(0.991955 1.07469 1.13255e-20)
(0.907482 1.03058 -2.88862e-21)
(0.813743 0.980403 7.03188e-21)
(0.709002 0.920377 1.20245e-19)
(0.607531 0.854007 1.33165e-19)
(0.524817 0.784247 9.88027e-20)
(0.450368 0.688533 1.1377e-19)
(0.351716 0.527587 -1.23493e-19)
(0.232477 0.332284 -1.26759e-19)
(0.107507 0.199525 0)
(0.0381779 0.890866 0)
(0.0854984 2.58446 3.17671e-20)
(0.0884479 3.21338 0)
(0.0899367 3.38987 8.28194e-20)
(0.236845 0.228262 0)
(1.00741 0.989352 0)
(1.16726 1.1656 0)
(1.17564 1.19872 4.9308e-21)
(1.12628 1.17702 1.58947e-20)
(1.05608 1.13947 -7.94718e-21)
(0.980603 1.09887 6.81527e-21)
(0.895444 1.0551 -2.78544e-21)
(0.800532 1.00569 5.79349e-20)
(0.693305 0.947055 -1.75743e-21)
(0.587296 0.882575 2.63591e-19)
(0.496965 0.813958 -1.14705e-20)
(0.409783 0.711356 1.38587e-20)
(0.301132 0.524992 1.79605e-20)
(0.173453 0.350199 -5.84355e-22)
(0.0883836 1.01722 3.498e-22)
(0.122193 2.76614 -1.69045e-19)
(0.12687 3.30167 -6.38019e-20)
(0.117784 3.42366 3.36998e-20)
(0.107643 3.44341 -3.80428e-20)
(0.160237 0.17402 1.70647e-20)
(0.996862 1.01423 0)
(1.15636 1.18821 -4.08765e-20)
(1.16416 1.22166 -4.44989e-20)
(1.1149 1.19987 3.77527e-20)
(1.04516 1.16261 9.36688e-21)
(0.969518 1.12196 -6.3904e-21)
(0.883842 1.07879 2.92195e-20)
(0.787847 1.03047 -4.73093e-20)
(0.678319 0.973784 0)
(0.567787 0.911872 1.29988e-19)
(0.469598 0.845581 -8.09618e-20)
(0.369465 0.740722 0)
(0.242071 0.523418 1.7435e-20)
(0.126872 0.749701 4.13923e-20)
(0.136838 2.57077 -4.68468e-20)
(0.184423 3.32839 5.32004e-20)
(0.167434 3.43374 2.86266e-20)
(0.139242 3.45253 3.25534e-20)
(0.120255 3.46126 5.17677e-20)
(0.271595 0.266197 -3.29359e-20)
(0.979601 1.02459 0)
(1.13826 1.21425 4.42289e-20)
(1.14947 1.25289 4.91537e-20)
(1.09736 1.23358 -4.25563e-20)
(1.02702 1.19669 -1.43728e-20)
(0.950189 1.1576 2.57422e-21)
(0.863931 1.11574 2.32574e-21)
(0.766444 1.06968 4.4337e-20)
(0.653813 1.01717 1.03432e-19)
(0.537226 0.96161 7.2671e-21)
(0.42701 0.89905 7.21213e-20)
(0.29337 0.77359 1.31313e-20)
(0.202709 0.916532 -1.67854e-20)
(0.208622 2.44767 -3.78042e-20)
(0.25975 3.33242 3.71676e-20)
(0.242683 3.45892 -4.07186e-20)
(0.208638 3.4777 -2.34717e-20)
(0.175222 3.50215 -2.10932e-20)
(0.13023 3.49715 -3.0778e-21)
(0.261866 0.265136 0)
(0.976812 1.04756 1.2849e-20)
(1.12953 1.23797 -9.10878e-21)
(1.13837 1.27659 -5.85626e-21)
(1.0862 1.25698 -2.94552e-20)
(1.01585 1.22028 1.49573e-20)
(0.938682 1.18141 8.78228e-24)
(0.852146 1.14041 2.02847e-21)
(0.753978 1.09588 -4.57697e-20)
(0.639747 1.04638 -2.77856e-21)
(0.519703 0.995767 -2.34411e-19)
(0.402874 0.935806 1.03412e-20)
(0.275219 0.846977 -1.24287e-20)
(0.238057 1.54257 -1.54217e-20)
(0.301096 3.14382 3.67314e-21)
(0.313913 3.46078 2.30227e-22)
(0.272573 3.5078 5.9878e-20)
(0.238771 3.53112 3.01755e-20)
(0.193119 3.55113 -9.41664e-21)
(0.143267 3.54774 -1.50988e-20)
(0.247952 0.26324 3.28968e-20)
(0.973113 1.07311 8.71597e-20)
(1.12047 1.26379 -2.60215e-20)
(1.12691 1.30191 -2.20503e-20)
(1.07458 1.28184 0)
(1.00429 1.24517 2.72937e-20)
(0.927078 1.20659 3.13367e-21)
(0.84052 1.1664 1.70674e-21)
(0.741984 1.12352 -5.14451e-21)
(0.626699 1.07731 -9.24758e-20)
(0.504145 1.03226 -1.07719e-19)
(0.3815 0.97395 -8.44363e-20)
(0.278441 0.992991 -9.33351e-20)
(0.30372 2.31357 9.65118e-20)
(0.381892 3.38866 8.14373e-20)
(0.353315 3.5172 0)
(0.305439 3.55401 0)
(0.268871 3.58763 -7.35968e-21)
(0.225051 3.63267 0)
(0.155616 3.61736 -1.11859e-20)
(0.238185 0.265242 -4.91063e-20)
(0.967497 1.09953 -7.38614e-20)
(1.11003 1.29084 0)
(1.11419 1.32806 1.25458e-21)
(1.06172 1.30737 -3.19342e-20)
(0.991667 1.27065 4.4437e-20)
(0.914728 1.23238 3.84195e-21)
(0.828374 1.19295 6.70261e-22)
(0.72973 1.15168 -3.10589e-20)
(0.613837 1.10879 4.51606e-21)
(0.489737 1.06941 0)
(0.362392 1.01634 0)
(0.300819 1.28715 -8.44316e-20)
(0.383062 2.97484 3.43839e-20)
(0.44701 3.48769 4.35579e-20)