/*--------------------------------*- C++ -*----------------------------------*\
  =========                 |
  \\      /  F ield         | OpenFOAM: The Open Source CFD Toolbox
   \\    /   O peration     | Website:  https://openfoam.org
    \\  /    A nd           | Version:  6
     \\/     M anipulation  |
\*---------------------------------------------------------------------------*/
FoamFile
{
    version     2.0;
    format      ascii;
    class       volVectorField;
    location    "55";
    object      U;
}
// * * * * * * * * * * * * * * * * * * * * * * * * * * * * * * * * * * * * * //

dimensions      [0 1 -1 0 0 0 0];

internalField   nonuniform List<vector> 
8800
(
(0.987184 -0.0766674 0)
(1.00189 -0.0551945 0)
(0.999718 -0.0285547 0)
(1.00001 -0.0151526 0)
(1.00006 -0.00855559 0)
(1.00008 -0.00505798 0)
(1.00005 -0.00301288 0)
(1.00002 -0.00171187 0)
(0.999997 -0.000805652 0)
(1.00006 -8.99998e-05 0)
(0.999987 0.000638568 0)
(0.999995 0.00140202 0)
(1.00001 0.00242519 0)
(1.00003 0.00399918 0)
(1.00003 0.0066315 0)
(1.00001 0.0113702 0)
(0.999889 0.0208138 0)
(0.999146 0.0386711 0)
(1.00709 0.072457 0)
(0.771212 0.036661 0)
(0.363052 -0.0160189 0)
(1.0433 -0.0768252 0)
(1.08458 -0.0704625 0)
(1.04517 -0.0535643 0)
(1.02325 -0.0389232 0)
(1.01197 -0.026252 0)
(1.00639 -0.016896 0)
(1.00357 -0.0103683 0)
(1.00214 -0.00571225 0)
(1.00145 -0.00205783 0)
(1.00131 0.00126356 0)
(1.00168 0.00464507 0)
(1.00265 0.00857987 0)
(1.00464 0.0139245 0)
(1.00859 0.021638 0)
(1.01655 0.0326116 0)
(1.03246 0.0465288 0)
(1.06262 0.0616485 0)
(1.09187 0.0760928 0)
(0.838682 0.0565583 0)
(0.216809 -0.0024316 0)
(1.07586 -0.0501576 0)
(1.09985 -0.0483429 0)
(1.0646 -0.040505 0)
(1.03997 -0.0336571 0)
(1.02384 -0.0261462 0)
(1.01407 -0.0185717 0)
(1.00853 -0.0117572 0)
(1.00558 -0.00589446 0)
(1.00433 -0.000479526 0)
(1.00468 0.00476782 0)
(1.0066 0.010159 0)
(1.0106 0.0162631 0)
(1.01793 0.0232987 0)
(1.03053 0.0307696 0)
(1.05062 0.0378087 0)
(1.08032 0.0444984 0)
(1.10625 0.0513212 0)
(0.94256 0.041605 0)
(0.216184 0.00246032 0)
(0.175111 -0.000818506 0)
(1.0176 -0.0355147 0)
(1.10515 -0.0414291 0)
(1.0782 -0.0361259 0)
(1.05337 -0.0302028 0)
(1.03611 -0.0246392 0)
(1.02394 -0.0189225 0)
(1.01584 -0.0128538 0)
(1.011 -0.00667486 0)
(1.00881 -0.000345779 0)
(1.0094 0.00591006 0)
(1.01266 0.01191 0)
(1.01887 0.0177583 0)
(1.02877 0.0233496 0)
(1.04322 0.0286596 0)
(1.06373 0.0341554 0)
(1.09354 0.0401508 0)
(1.09343 0.0419266 0)
(0.827236 0.0228983 0)
(0.174058 0.000851266 0)
(0.153881 -0.00061252 0)
(0.956016 -0.025496 0)
(1.10337 -0.0351942 0)
(1.08759 -0.0327348 0)
(1.0616 -0.0280973 0)
(1.04399 -0.0230932 0)
(1.03155 -0.0178658 0)
(1.02274 -0.0123462 0)
(1.01694 -0.00641761 0)
(1.01412 4.44609e-05 0)
(1.01482 0.00650608 0)
(1.0188 0.0123946 0)
(1.02581 0.0177096 0)
(1.03612 0.0226474 0)
(1.0507 0.0274139 0)
(1.07193 0.0319603 0)
(1.10009 0.0359093 0)
(1.06815 0.033986 0)
(0.7397 0.0142953 0)
(0.152296 0.000649705 0)
(0.139476 -0.000468917 0)
(0.899014 -0.019121 0)
(1.09564 -0.0301592 0)
(1.09561 -0.0292895 0)
(1.06909 -0.0255782 0)
(1.05066 -0.0214626 0)
(1.03777 -0.0167112 0)
(1.02869 -0.0114462 0)
(1.02261 -0.00571883 0)
(1.01951 0.000601449 0)
(1.02016 0.00691783 0)
(1.02426 0.0125574 0)
(1.0314 0.0175393 0)
(1.04193 0.0220273 0)
(1.05707 0.0260068 0)
(1.07927 0.029491 0)
(1.10232 0.032136 0)
(1.03611 0.0280622 0)
(0.673223 0.0101894 0)
(0.137239 0.000511865 0)
(0.128899 -0.000363842 0)
(0.849299 -0.0147668 0)
(1.08317 -0.0260449 0)
(1.10125 -0.0263646 0)
(1.07591 -0.023103 0)
(1.05696 -0.0194892 0)
(1.0436 -0.0152744 0)
(1.03417 -0.0103751 0)
(1.02785 -0.00485897 0)
(1.02457 0.00127544 0)
(1.02509 0.00737115 0)
(1.02916 0.0127388 0)
(1.03641 0.0173208 0)
(1.04723 0.0212076 0)
(1.06278 0.024522 0)
(1.08542 0.0274924 0)
(1.10146 0.0292747 0)
(1.00129 0.0235337 0)
(0.621495 0.0078214 0)
(0.125869 0.000414316 0)
(0.120814 -0.000283506 0)
(0.807008 -0.0116172 0)
(1.06779 -0.0224533 0)
(1.10472 -0.0237579 0)
(1.08212 -0.0209207 0)
(1.06275 -0.0175278 0)
(1.04913 -0.0136212 0)
(1.03942 -0.0090677 0)
(1.03282 -0.00383699 0)
(1.02931 0.00208253 0)
(1.02967 0.00794245 0)
(1.0337 0.0129622 0)
(1.04101 0.0170729 0)
(1.05195 0.02046 0)
(1.06772 0.0233663 0)
(1.09069 0.0260371 0)
(1.09773 0.026929 0)
(0.966139 0.0199768 0)
(0.57997 0.00628207 0)
(0.116821 0.00034354 0)
(0.114535 -0.000220632 0)
(0.771365 -0.00926326 0)
(1.05089 -0.0192956 0)
(1.10703 -0.0213484 0)
(1.08794 -0.0188812 0)
(1.06819 -0.0156321 0)
(1.05432 -0.0118983 0)
(1.04442 -0.00756847 0)
(1.03759 -0.00258521 0)
(1.03381 0.00306469 0)
(1.03396 0.00860675 0)
(1.03787 0.0132482 0)
(1.04514 0.0169422 0)
(1.05609 0.0199371 0)
(1.07206 0.02253 0)
(1.0947 0.0248781 0)
(1.0912 0.0249736 0)
(0.931978 0.0172263 0)
(0.545639 0.00522909 0)
(0.109372 0.000292511 0)
(0.109625 -0.000170112 0)
(0.741426 -0.00743744 0)
(1.03354 -0.0164989 0)
(1.10839 -0.0190887 0)
(1.09347 -0.0169443 0)
(1.07342 -0.0138018 0)
(1.05929 -0.0101639 0)
(1.04921 -0.00595438 0)
(1.04216 -0.00115464 0)
(1.03811 0.00424577 0)
(1.03799 0.00947306 0)
(1.04169 0.0137553 0)
(1.04882 0.0171038 0)
(1.05975 0.0197682 0)
(1.07591 0.0220579 0)
(1.09743 0.0240198 0)
(1.08226 0.0233574 0)
(0.899376 0.0151275 0)
(0.516462 0.00449176 0)
(0.103041 0.000256445 0)
(0.105802 -0.00012822 0)
(0.716372 -0.00596656 0)
(1.01656 -0.0139912 0)
(1.10888 -0.0168963 0)
(1.09887 -0.015029 0)
(1.07857 -0.0118971 0)
(1.06415 -0.00829971 0)
(1.05385 -0.00418099 0)
(1.04656 0.000483506 0)
(1.0422 0.00566881 0)
(1.04173 0.0105909 0)
(1.04514 0.0145223 0)
(1.05209 0.0174995 0)
(1.063 0.0198201 0)
(1.07934 0.0218641 0)
(1.09884 0.0234528 0)
(1.0713 0.0220696 0)
(0.868466 0.0135646 0)
(0.490997 0.00398007 0)
(0.0974909 0.000232349 0)
(0.102876 -9.2023e-05 0)
(0.69556 -0.00473483 0)
(1.00055 -0.0117084 0)
(1.1087 -0.0147588 0)
(1.10412 -0.0130926 0)
(1.08371 -0.00993755 0)
(1.06896 -0.00632761 0)
(1.05841 -0.00221444 0)
(1.05084 0.00237652 0)
(1.04609 0.0073761 0)
(1.04521 0.0120087 0)
(1.04826 0.0156202 0)
(1.05499 0.0182865 0)
(1.06584 0.0202824 0)
(1.08233 0.0220552 0)
(1.09931 0.0232319 0)
(1.05862 0.0211285 0)
(0.839097 0.0124475 0)
(0.468167 0.00363927 0)
(0.0924637 0.000217954 0)
(0.100726 -5.8721e-05 0)
(0.67852 -0.00365378 0)
(0.985969 -0.00957239 0)
(1.108 -0.0125682 0)
(1.10915 -0.0110392 0)
(1.0889 -0.00784442 0)
(1.07383 -0.00416011 0)
(1.06297 -9.98325e-06 0)
(1.05502 0.00455356 0)
(1.04981 0.00944431 0)
(1.04842 0.0138488 0)
(1.05104 0.0171297 0)
(1.05752 0.0194395 0)
(1.0683 0.0210963 0)
(1.08481 0.0225992 0)
(1.09877 0.0233773 0)
(1.04438 0.0205277 0)
(0.810963 0.0116991 0)
(0.447135 0.00342926 0)
(0.0877608 0.000211024 0)
(0.0992923 -2.6145e-05 0)
(0.664951 -0.00265469 0)
(0.973183 -0.00751506 0)
(1.10714 -0.0102736 0)
(1.11412 -0.00877315 0)
(1.09424 -0.00547515 0)
(1.07878 -0.00167343 0)
(1.06754 0.00256304 0)
(1.05916 0.00715894 0)
(1.05338 0.0119524 0)
(1.05137 0.0161113 0)
(1.05348 0.019077 0)
(1.05963 0.0210355 0)
(1.07032 0.02232 0)
(1.08686 0.0235593 0)
(1.09703 0.0239057 0)
(1.0287 0.0202719 0)
(0.78367 0.0112706 0)
(0.427225 0.00332691 0)
(0.0832237 0.000210465 0)
(0.0985571 7.75191e-06 0)
(0.654698 -0.00168239 0)
(0.962485 -0.00546004 0)
(1.10642 -0.00782661 0)
(1.11916 -0.00629968 0)
(1.0998 -0.00287638 0)
(1.08391 0.00113035 0)
(1.07223 0.00555349 0)
(1.06329 0.0102438 0)
(1.05681 0.0149935 0)
(1.05406 0.0189342 0)
(1.05557 0.021558 0)
(1.06135 0.0231667 0)
(1.0719 0.0240723 0)
(1.08837 0.0250035 0)
(1.09404 0.0248476 0)
(1.01154 0.0203696 0)
(0.756784 0.0111241 0)
(0.40788 0.00331501 0)
(0.078721 0.000215335 0)
(0.0985429 4.099e-05 0)
(0.647742 -0.000688909 0)
(0.954191 -0.00333092 0)
(1.10616 -0.00512481 0)
(1.12437 -0.00344121 0)
(1.10565 0.00018372 0)
(1.08932 0.00444289 0)
(1.0771 0.00908331 0)
(1.06748 0.0139251 0)
(1.06016 0.0186868 0)
(1.0565 0.0224353 0)
(1.05729 0.0247169 0)
(1.06261 0.025899 0)
(1.07302 0.0263876 0)
(1.08912 0.0269537 0)
(1.08956 0.0262319 0)
(0.992817 0.0208514 0)
(0.729823 0.0112461 0)
(0.388596 0.00338708 0)
(0.0741348 0.000225293 0)
(0.0992872 7.9785e-05 0)
(0.644161 0.000341835 0)
(0.948619 -0.00105559 0)
(1.10678 -0.00211597 0)
(1.13004 -0.000151249 0)
(1.11192 0.00377603 0)
(1.09507 0.00837583 0)
(1.08222 0.0133288 0)
(1.07181 0.0183895 0)
(1.06345 0.0231636 0)
(1.0587 0.0266716 0)
(1.0586 0.0285763 0)
(1.06338 0.0293476 0)
(1.07359 0.0294012 0)
(1.08901 0.029542 0)
(1.08347 0.0281116 0)
(0.972299 0.021748 0)
(0.702254 0.0116255 0)
(0.368899 0.00353665 0)
(0.0693578 0.000239809 0)
(0.100997 0.000140455 0)
(0.644353 0.00149918 0)
(0.946124 0.00144822 0)
(1.10863 0.00131351 0)
(1.13629 0.00366901 0)
(1.11875 0.00797171 0)
(1.10131 0.0130183 0)
(1.08768 0.018391 0)
(1.07625 0.0237497 0)
(1.06663 0.0286116 0)
(1.06058 0.0319253 0)
(1.05945 0.0333939 0)
(1.06357 0.0336735 0)
(1.07355 0.0332451 0)
(1.0878 0.0328911 0)
(1.07548 0.0305735 0)
(0.949677 0.0230807 0)
(0.673519 0.0122593 0)
(0.348347 0.00375907 0)
(0.0642931 0.000258335 0)
(0.10372 0.000200473 0)
(0.648629 0.00289717 0)
(0.947162 0.00433538 0)
(1.11224 0.0053244 0)
(1.14335 0.00824708 0)
(1.12626 0.0130869 0)
(1.10816 0.0186732 0)
(1.09356 0.0245298 0)
(1.0809 0.030251 0)
(1.06976 0.0352234 0)
(1.06213 0.0382997 0)
(1.05977 0.0392628 0)
(1.0631 0.038992 0)
(1.07281 0.038017 0)
(1.08528 0.0370928 0)
(1.06529 0.0337065 0)
(0.924526 0.0249091 0)
(0.64301 0.0131519 0)
(0.3265 0.00405172 0)
(0.0588521 0.000280351 0)
(0.107743 0.000281829 0)
(0.657601 0.00456969 0)
(0.952173 0.00770155 0)
(1.11813 0.0100489 0)
(1.15157 0.0137339 0)
(1.13469 0.0192888 0)
(1.11573 0.0255594 0)
(1.09996 0.0320408 0)
(1.08577 0.0381978 0)
(1.07274 0.0432446 0)
(1.06326 0.0459693 0)
(1.05953 0.0463405 0)
(1.06192 0.0454552 0)
(1.07128 0.0438459 0)
(1.08149 0.0423056 0)
(1.05248 0.0376152 0)
(0.896282 0.0272538 0)
(0.610061 0.0142948 0)
(0.302931 0.00440552 0)
(0.0529572 0.000304621 0)
(0.113403 0.000391412 0)
(0.671951 0.00665838 0)
(0.961942 0.0118264 0)
(1.12683 0.0157363 0)
(1.16125 0.0203749 0)
(1.14428 0.0268342 0)
(1.12426 0.0339681 0)
(1.10702 0.0412092 0)
(1.09092 0.0478486 0)
(1.07562 0.0529543 0)
(1.06393 0.0552246 0)
(1.05856 0.0548597 0)
(1.05989 0.053267 0)
(1.06882 0.0509438 0)
(1.07622 0.0486479 0)
(1.03655 0.0423746 0)
(0.86429 0.0301403 0)
(0.573984 0.0156721 0)
(0.277254 0.00480644 0)
(0.0465584 0.000329304 0)
(0.121212 0.000546159 0)
(0.692693 0.00939159 0)
(0.977298 0.0169866 0)
(1.139 0.0227432 0)
(1.1728 0.0286253 0)
(1.15532 0.0363026 0)
(1.13393 0.0444671 0)
(1.11474 0.0525401 0)
(1.09625 0.0596685 0)
(1.07821 0.0647083 0)
(1.06395 0.0663154 0)
(1.05665 0.0650374 0)
(1.05684 0.0625969 0)
(1.06534 0.0594694 0)
(1.06914 0.0562588 0)
(1.01685 0.0480845 0)
(0.827739 0.0335755 0)
(0.534062 0.0172478 0)
(0.249142 0.00523215 0)
(0.0396381 0.000352082 0)
(0.131912 0.000769126 0)
(0.72113 0.0131522 0)
(0.999388 0.0236408 0)
(1.1555 0.0315854 0)
(1.18692 0.0390647 0)
(1.16816 0.0483374 0)
(1.14483 0.0576986 0)
(1.12314 0.0666613 0)
(1.10165 0.0741611 0)
(1.0803 0.0788667 0)
(1.06314 0.0795123 0)
(1.05376 0.0770642 0)
(1.05269 0.0735828 0)
(1.06053 0.069483 0)
(1.05969 0.0651482 0)
(0.992509 0.0547777 0)
(0.785741 0.0375016 0)
(0.489638 0.0189413 0)
(0.218411 0.00564283 0)
(0.0322345 0.000369114 0)
(0.146758 0.00112224 0)
(0.759232 0.0185561 0)
(1.02983 0.0325618 0)
(1.17721 0.0431742 0)
(1.20434 0.052639 0)
(1.18312 0.0638487 0)
(1.15707 0.0745602 0)
(1.13206 0.0843294 0)
(1.10685 0.0918781 0)
(1.08167 0.0957901 0)
(1.06126 0.0950027 0)
(1.04966 0.0910665 0)
(1.04729 0.086357 0)
(1.05405 0.0812209 0)
(1.04723 0.0755091 0)
(0.962524 0.0623861 0)
(0.737386 0.0417904 0)
(0.440239 0.0206206 0)
(0.185126 0.00598115 0)
(0.0244661 0.000375613 0)
(0.167897 0.00173108 0)
(0.810194 0.0267452 0)
(1.07117 0.045289 0)
(1.2052 0.0593719 0)
(1.22569 0.071599 0)
(1.20031 0.0845943 0)
(1.17041 0.0964596 0)
(1.14108 0.106507 0)
(1.11142 0.113431 0)
(1.0819 0.115839 0)
(1.05799 0.11301 0)
(1.0441 0.107209 0)
(1.04043 0.101069 0)
(1.04579 0.0948831 0)
(1.03099 0.0872065 0)
(0.925614 0.0707425 0)
(0.681884 0.0462034 0)
(0.385852 0.022093 0)
(0.149797 0.00616978 0)
(0.0165674 0.000365368 0)
(0.198635 0.00306602 0)
(0.879671 0.0402779 0)
(1.12705 0.0655534 0)
(1.23999 0.0837605 0)
(1.2507 0.0987074 0)
(1.21907 0.112956 0)
(1.18392 0.125021 0)
(1.14929 0.134239 0)
(1.11452 0.139421 0)
(1.08035 0.139272 0)
(1.05293 0.133643 0)
(1.03683 0.125512 0)
(1.03194 0.117685 0)
(1.03545 0.110314 0)
(1.00979 0.100175 0)
(0.880238 0.0794239 0)
(0.618948 0.0503018 0)
(0.327607 0.0231505 0)
(0.113874 0.00614119 0)
(0.00900676 0.000328407 0)
(0.240611 0.00916691 7.36935e-21)
(0.971603 0.0670091 6.35189e-21)
(1.19516 0.0998232 -2.23714e-21)
(1.27842 0.120042 0)
(1.27659 0.137435 -5.91106e-35)
(1.23725 0.151148 8.69953e-22)
(1.19612 0.161668 -1.60498e-21)
(1.15576 0.168655 0)
(1.11557 0.171031 3.37713e-35)
(1.07643 0.167575 -2.06197e-21)
(1.04517 0.158667 0)
(1.02658 0.147992 -2.48222e-21)
(1.02043 0.138461 -7.34594e-21)
(1.02167 0.130173 -3.48225e-21)
(0.980526 0.117206 -1.05254e-21)
(0.821409 0.0903606 -6.26436e-22)
(0.543096 0.0548202 0)
(0.263695 0.0241841 4.39654e-22)
(0.0777685 0.006248 5.20772e-22)
(0.00194722 0.00029301 9.49094e-21)
(0.269746 0.024096 4.85485e-21)
(1.04767 0.109205 1.07367e-22)
(1.25132 0.148643 5.7217e-22)
(1.31274 0.16878 0)
(1.29921 0.186445 -2.92715e-21)
(1.25272 0.198015 -3.37104e-21)
(1.20563 0.206255 -1.60112e-21)
(1.15933 0.210766 -5.82279e-21)
(1.11336 0.210371 0)
(1.06869 0.203683 8.76656e-21)
(1.03295 0.191496 8.75798e-21)
(1.01141 0.178252 2.61791e-21)
(1.00302 0.166704 9.60619e-21)
(0.997537 0.155797 1.35593e-20)
(0.935723 0.138199 0)
(0.743464 0.103598 1.92127e-20)
(0.454895 0.0606475 2.76165e-20)
(0.196747 0.025337 3.075e-20)
(0.0426448 0.00553872 -3.52859e-20)
(-0.00481692 -0.00030937 -6.71488e-22)
(0.271242 0.0406454 0)
(1.09605 0.163847 7.08413e-22)
(1.28918 0.208382 0)
(1.33934 0.228268 -3.45743e-21)
(1.31679 0.243277 0)
(1.26433 0.251008 -6.48603e-21)
(1.21162 0.255551 3.24405e-21)
(1.15971 0.256495 -1.16001e-20)
(1.10827 0.252494 -3.16507e-22)
(1.05832 0.24199 4.52046e-21)
(1.01827 0.226287 1.93596e-20)
(0.993801 0.210397 -5.26296e-23)
(0.982933 0.19673 -7.00353e-21)
(0.971135 0.183037 -1.28375e-20)
(0.895286 0.160524 1.52391e-20)
(0.688962 0.117589 -2.70506e-20)
(0.405761 0.0668179 -3.58673e-21)
(0.165655 0.0267834 0)
(0.0277087 0.00460391 -2.07588e-24)
(-0.00777591 -0.00105083 0)
(0.265018 0.0546104 5.88351e-21)
(1.12231 0.222195 -3.37081e-21)
(1.31256 0.272702 -3.24999e-21)
(1.35682 0.293123 1.54335e-21)
(1.32801 0.304522 -2.64271e-21)
(1.27109 0.307777 1.35373e-20)
(1.21374 0.307935 6.74558e-21)
(1.15692 0.304674 0)
(1.10051 0.296547 -2.23764e-20)
(1.04572 0.281898 0)
(1.00161 0.262396 -1.01523e-20)
(0.974252 0.243634 -1.26632e-20)
(0.960895 0.227824 -7.65664e-21)
(0.944259 0.211384 -9.35596e-21)
(0.861358 0.183826 0)
(0.653862 0.133775 0)
(0.382008 0.0759306 -2.34677e-20)
(0.15515 0.0303522 4.6512e-21)
(0.0232418 0.00435681 -2.72369e-21)
(-0.00912965 -0.00177677 -3.22635e-21)
(0.257665 0.0669455 3.05587e-22)
(1.13404 0.280536 0)
(1.32545 0.338084 5.30301e-21)
(1.36622 0.359479 4.03701e-21)
(1.33296 0.367249 6.3493e-21)
(1.27273 0.366046 0)
(1.21174 0.361731 6.46701e-21)
(1.15089 0.354099 1.2789e-20)
(1.09023 0.341637 1.13891e-20)
(1.03112 0.322586 2.14589e-20)
(0.9832 0.299054 0)
(0.953062 0.277322 -2.73847e-20)
(0.937413 0.259423 -1.65936e-20)
(0.917076 0.240333 -9.83951e-21)
(0.832102 0.208309 6.07707e-20)
(0.630983 0.152158 7.26904e-21)
(0.37311 0.0881316 3.42194e-20)
(0.157174 0.0361031 -1.62154e-19)
(0.0260152 0.00546149 9.6108e-20)
(-0.00889138 -0.00221919 -1.1732e-19)
(0.250696 0.0780779 3.50556e-21)
(1.13661 0.337003 -1.53768e-22)
(1.3308 0.402686 -2.37293e-22)
(1.36918 0.425403 -3.02575e-21)
(1.33262 0.429717 -4.74056e-21)
(1.26989 0.424237 3.62586e-22)
(1.20604 0.415613 -7.03958e-21)
(1.14191 0.403719 1.31545e-20)
(1.07761 0.386958 -2.45713e-20)
(1.01457 0.363468 0)
(0.96316 0.33608 -1.23518e-20)
(0.930412 0.311617 -3.25517e-22)
(0.912387 0.291488 -1.82287e-20)
(0.889217 0.269779 0)
(0.805504 0.233729 -1.32102e-20)
(0.614142 0.172539 -3.15411e-20)
(0.371789 0.10258 8.44347e-20)
(0.164689 0.0441885 -8.32029e-20)
(0.0333639 0.00832264 1.18391e-19)
(-0.00720237 -0.00218872 -1.24588e-19)
(0.244906 0.0884108 -1.04385e-22)
(1.13352 0.390941 1.06669e-21)
(1.33073 0.465484 1.10276e-21)
(1.36712 0.489729 7.0871e-22)
(1.32807 0.490897 -2.29602e-21)
(1.26343 0.481411 0)
(1.19727 0.468747 -6.29935e-21)
(1.13036 0.452818 -1.37242e-20)
(1.06289 0.431919 -1.27149e-20)
(0.996374 0.40418 0)
(0.941835 0.373141 -1.27854e-20)
(0.90657 0.345858 -1.6018e-20)
(0.886224 0.323359 1.98353e-20)
(0.860964 0.29942 -1.21141e-20)
(0.779506 0.259671 -5.79533e-20)
(0.599185 0.194161 3.4637e-20)
(0.372422 0.118292 1.03573e-20)
(0.174027 0.0538679 0)
(0.042469 0.0126502 -1.15002e-19)
(-0.00480622 -0.0017348 -4.27655e-21)
(0.240413 0.0982737 1.17602e-21)
(1.12706 0.442196 -1.71313e-21)
(1.32671 0.525926 -8.65398e-22)
(1.36123 0.551766 3.27715e-21)
(1.32023 0.550145 -7.5049e-21)
(1.25413 0.537009 1.14324e-20)
(1.18609 0.520627 1.36132e-20)
(1.11681 0.500926 -2.19264e-20)
(1.04653 0.476117 8.05651e-21)
(0.976922 0.444369 -5.29457e-20)
(0.919475 0.409614 -1.45789e-20)
(0.881823 0.379303 0)
(0.859493 0.354749 2.15736e-20)
(0.832628 0.328791 2.59847e-20)
(0.753124 0.285922 3.12433e-20)
(0.583875 0.216268 -3.77512e-20)
(0.371304 0.134883 -1.12136e-20)
(0.181794 0.0648347 1.31651e-20)
(0.0511942 0.0178883 0)
(-0.00220074 -0.000948788 -9.31658e-21)
(0.237087 0.107765 -1.73374e-20)
(1.11884 0.490822 9.70678e-21)
(1.32004 0.584113 1.27964e-21)
(1.35251 0.61117 1.26656e-21)
(1.30992 0.607075 -2.7762e-21)
(1.24271 0.590649 -8.22746e-22)
(1.17312 0.570906 -1.49873e-20)
(1.10178 0.547737 -7.96562e-21)
(1.02899 0.519263 -2.21795e-20)
(0.956516 0.483686 6.05487e-23)
(0.896283 0.445131 -4.55459e-20)
(0.856511 0.412 3.89598e-20)
(0.832528 0.385695 -2.38042e-20)
(0.804148 0.357708 2.87731e-20)
(0.726274 0.311527 0)
(0.567021 0.237915 -2.05505e-20)
(0.367077 0.151417 -2.66425e-24)
(0.186407 0.0758477 -5.76364e-20)
(0.0579282 0.0233225 -8.48975e-21)
(0.000115179 -3.11067e-05 0)
(0.234829 0.1171 0)
(1.10978 0.537031 1.11356e-20)
(1.3114 0.639774 5.08087e-21)
(1.34173 0.667761 -3.89553e-22)
(1.2978 0.661466 -4.29827e-21)
(1.22974 0.642109 0)
(1.15886 0.619346 -6.4276e-21)
(1.0857 0.593022 -2.19004e-22)
(1.01063 0.561178 4.75783e-20)
(0.935444 0.521905 -7.23353e-21)
(0.872553 0.479752 -3.29573e-20)
(0.830887 0.444168 2.01976e-20)
(0.805389 0.416053 -4.43982e-22)
(0.775478 0.385617 3.05886e-20)
(0.698938 0.335956 1.90147e-20)
(0.548171 0.25804 -4.4425e-20)
(0.359393 0.166783 5.27713e-20)
(0.186809 0.0858911 1.56575e-20)
(0.0616927 0.0281226 6.47743e-20)
(0.00177764 0.00079635 -1.75196e-19)
(0.233541 0.126414 -5.63056e-21)
(1.10055 0.581001 7.61977e-21)
(1.30144 0.692666 -5.21828e-21)
(1.32954 0.721484 -1.25057e-21)
(1.28445 0.713209 0)
(1.21571 0.691248 -4.38858e-21)
(1.14373 0.665799 2.19847e-20)
(1.06898 0.636639 1.72951e-20)
(0.991808 0.601742 0)
(0.913976 0.558978 -1.04803e-19)
(0.848545 0.513577 8.93189e-20)
(0.805099 0.475626 0)
(0.778048 0.445174 2.7902e-20)
(0.746702 0.411974 -4.45885e-22)
(0.671061 0.358585 -6.07805e-20)
(0.527157 0.275831 2.38361e-20)
(0.348462 0.180112 0)
(0.183359 0.0940129 8.45842e-20)
(0.0622229 0.0316501 0)
(0.0026677 0.00136769 -8.30263e-20)
(0.23304 0.135732 6.71749e-21)
(1.09152 0.622892 9.79943e-21)
(1.29058 0.742813 -5.22775e-21)
(1.31643 0.772351 0)
(1.27029 0.762282 -2.39759e-21)
(1.20102 0.738013 0)
(1.12811 0.710182 -2.10139e-20)
(1.05192 0.678509 -7.73038e-21)
(0.972776 0.640887 8.26307e-21)
(0.892378 0.594945 -5.18763e-20)
(0.824463 0.54656 9.18156e-21)
(0.779193 0.505923 0)
(0.750584 0.472639 -5.95839e-20)
(0.717908 0.43656 4.42553e-22)
(0.642561 0.379006 0)
(0.504356 0.291103 3.08955e-22)
(0.334379 0.190763 7.71854e-20)
(0.176429 0.0997078 -7.31491e-20)
(0.0601732 0.0335421 2.16557e-20)
(0.00283247 0.00159174 0)
(0.232981 0.144949 0)
(1.08287 0.662739 1.17758e-20)
(1.27923 0.790304 7.50462e-21)
(1.30279 0.820423 -5.02003e-22)
(1.2557 0.808705 1.75492e-22)
(1.186 0.782392 -9.69199e-21)
(1.11229 0.752471 8.03958e-21)
(1.03479 0.718604 -9.37969e-21)
(0.953783 0.678581 3.72198e-20)
(0.87087 0.629831 -8.28792e-20)
(0.800422 0.578557 -7.71645e-22)
(0.753199 0.534796 -2.59086e-20)
(0.723093 0.498532 9.68304e-20)
(0.68907 0.459547 -5.19582e-22)
(0.613323 0.397094 -4.72537e-20)
(0.479565 0.303714 -8.4487e-20)
(0.317581 0.198529 0)
(0.16639 0.102784 0)
(0.0560299 0.0339146 2.33785e-20)
(0.00247966 0.00151556 -1.38871e-20)
(0.233474 0.154166 9.39975e-21)
(1.07475 0.700533 -2.67644e-20)
(1.26765 0.835227 -8.09257e-21)
(1.2889 0.865782 0)
(1.24095 0.852525 -3.17518e-22)
(1.17091 0.824406 -7.59576e-21)
(1.09651 0.792673 1.85752e-20)
(1.01784 0.756922 3.60846e-20)
(0.935041 0.714829 4.80879e-20)
(0.849636 0.663637 -6.7511e-20)
(0.776503 0.609466 -7.68511e-20)
(0.727152 0.562348 6.9317e-20)
(0.695615 0.523227 0)
(0.660037 0.480887 -2.1432e-20)
(0.583374 0.412508 -5.11717e-20)
(0.453352 0.31332 -6.07402e-20)
(0.298349 0.20319 -7.20639e-20)
(0.153673 0.103193 2.13519e-20)
(0.0500266 0.0328202 -1.2596e-20)
(0.0017843 0.00118999 5.71681e-23)
(0.234263 0.163189 0)
(1.06721 0.736701 0)
(1.25601 0.877667 5.29432e-22)
(1.27498 0.908483 0)
(1.22627 0.893823 -3.61027e-21)
(1.15595 0.864114 4.04367e-21)
(1.08097 0.83082 0)
(1.00123 0.793477 4.12122e-21)
(0.91673 0.749634 7.97981e-20)
(0.828834 0.696353 -1.55339e-19)
(0.752802 0.639319 0)
(0.701118 0.588936 -4.4634e-20)
(0.668064 0.546993 -6.14706e-22)
(0.630547 0.50024 -4.87496e-22)
(0.552766 0.424909 5.47092e-20)
(0.426154 0.319817 -4.27256e-23)
(0.277057 0.204615 -1.55235e-19)
(0.138958 0.100926 4.59405e-20)
(0.0429037 0.0303486 1.36275e-20)
(0.000866792 0.000668032 0)
(0.23509 0.172085 -3.7687e-20)
(1.06001 0.771214 -1.80238e-20)
(1.24439 0.917676 -2.37136e-20)
(1.2612 0.948627 2.42452e-20)
(1.21182 0.932672 -9.71435e-21)
(1.1413 0.901579 0)
(1.06583 0.866961 1.04982e-20)
(0.985118 0.82829 -9.30646e-21)
(0.898994 0.783009 7.87589e-22)
(0.808607 0.727975 1.15078e-20)
(0.729448 0.66826 9.94362e-20)
(0.67517 0.614961 -1.56339e-20)
(0.640252 0.569883 -5.97696e-20)
(0.600324 0.517188 -2.50196e-20)
(0.521642 0.434101 2.97729e-20)
(0.398427 0.323079 -4.77036e-24)
(0.254508 0.202674 4.18387e-20)
(0.123239 0.0961962 -9.88766e-20)
(0.035433 0.0268796 1.17304e-19)
(-0.000116136 2.15789e-05 1.73191e-20)
(0.235699 0.180752 1.43329e-20)
(1.05317 0.804158 -1.0181e-20)
(1.23294 0.955368 1.29121e-21)
(1.24771 0.986332 1.54595e-20)
(1.19773 0.969181 3.47683e-21)
(1.12706 0.936877 -5.81957e-21)
(1.0512 0.901147 2.63883e-21)
(0.969617 0.861381 -3.84544e-20)
(0.881963 0.81495 -8.72034e-20)
(0.789078 0.758492 -9.22792e-20)
(0.706598 0.696479 0)
(0.649381 0.64071 -6.88762e-20)
(0.61199 0.591819 8.62754e-20)
(0.569124 0.53149 0)
(0.490017 0.439981 -6.37773e-20)
(0.370463 0.322659 3.81041e-20)
(0.231803 0.197152 -4.49907e-20)
(0.107855 0.0894236 -5.32242e-20)
(0.0283742 0.0228696 -9.45095e-20)
(-0.00102838 -0.000648426 -7.46196e-20)
(0.236648 0.18927 -1.62611e-20)
(1.04654 0.83551 1.0906e-20)
(1.22172 0.990803 2.49345e-20)
(1.23456 1.02168 2.25288e-20)
(1.18409 1.00344 -6.64656e-21)
(1.11333 0.970095 -1.61134e-21)
(1.03716 0.933431 9.08367e-21)
(0.954809 0.892787 -3.89296e-20)
(0.86572 0.845471 -5.14469e-20)
(0.770368 0.787919 9.62208e-20)
(0.684405 0.724145 2.18317e-19)
(0.62383 0.666309 0)
(0.583156 0.612741 0)
(0.536709 0.543275 -2.88494e-20)
(0.457562 0.4424 0)
(0.342278 0.317593 8.19819e-20)
(0.210197 0.18734 9.6802e-20)
(0.0947767 0.0807041 0)
(0.0229438 0.0187739 0)
(-0.00174672 -0.00124918 8.02141e-20)
(0.237231 0.197312 1.85296e-20)
(1.04013 0.865255 1.47034e-20)
(1.21079 1.02409 1.8175e-20)
(1.22184 1.05481 -2.17106e-20)
(1.17095 1.03557 -8.65214e-21)
(1.10017 1.00131 -4.89843e-22)
(1.02378 0.963871 -1.20571e-20)
(0.940757 0.922533 -3.0431e-23)
(0.850342 0.874574 -1.02717e-21)
(0.752579 0.816267 -1.02875e-21)
(0.663038 0.751369 1.12437e-19)
(0.598618 0.691751 0)
(0.55376 0.632721 8.75266e-20)
(0.502873 0.553044 6.1561e-20)
(0.423476 0.441366 1.49135e-19)
(0.313202 0.306546 4.41823e-20)
(0.190964 0.170881 -5.21486e-20)
(0.0880857 0.067512 -3.06936e-20)
(0.0242305 0.0134877 0)
(-0.00101512 -0.00150459 8.6213e-20)
(0.238145 0.205365 -4.20176e-20)
(1.03392 0.893547 0)
(1.20014 1.05527 2.14459e-20)
(1.20955 1.0858 -1.84695e-20)
(1.15837 1.06565 1.16487e-20)
(1.08761 1.03061 4.32299e-21)
(1.0111 0.992519 2.12688e-20)
(0.927498 0.950647 -3.37499e-21)
(0.835871 0.902265 0)
(0.735797 0.843523 -1.05554e-19)
(0.642649 0.778184 -2.43924e-19)
(0.573881 0.716984 1.01308e-20)
(0.523958 0.651959 1.20799e-19)
(0.467519 0.561586 0)
(0.386596 0.437514 1.00757e-19)
(0.28091 0.288589 0)
(0.172359 0.142483 0)
(0.0928436 0.0357217 -3.32335e-20)
(0.0564356 -0.00715087 0)
(0.0272334 0.00702008 2.3109e-20)
(0.238603 0.212826 -4.70443e-20)
(1.02787 0.92057 0)
(1.18978 1.08455 3.5787e-20)
(1.19766 1.11489 0)
(1.14632 1.09396 -7.05856e-21)
(1.0756 1.05829 0)
(0.999048 1.01969 7.06599e-22)
(0.914937 0.977471 5.23826e-21)
(0.822187 0.928912 6.42977e-21)
(0.719862 0.870089 -1.15454e-19)
(0.623067 0.805024 7.26372e-21)
(0.549361 0.742505 8.19278e-20)
(0.493411 0.671197 1.17985e-19)
(0.429864 0.569873 1.59965e-20)
(0.345103 0.432524 7.9073e-20)
(0.240698 0.26488 0)
(0.143572 0.0986878 1.1015e-19)
(0.0797242 -0.00972813 -6.47821e-20)
(0.0328922 0.0586818 7.55575e-20)
(-0.0381478 0.454024 -8.97672e-20)
(0.238994 0.220114 3.90436e-20)
(1.02179 0.94622 5.9095e-20)
(1.17963 1.11226 0)
(1.18602 1.14252 1.07737e-21)
(1.13459 1.12108 2.07477e-20)
(1.06386 1.08502 -1.6154e-20)
(0.987314 1.04618 6.09133e-21)
(0.902667 1.00395 0)
(0.808762 0.955623 4.16108e-20)
(0.704103 0.897303 -5.91254e-21)
(0.603376 0.833373 0)
(0.52379 0.769939 0)
(0.460303 0.691993 1.05532e-19)
(0.387648 0.578771 -4.94964e-20)
(0.295959 0.428489 -8.00535e-20)
(0.18852 0.239039 0)
(0.0813748 0.106071 5.60341e-20)
(0.00745014 0.465811 -6.5231e-20)
(0.0321695 1.92146 -3.65897e-20)
(0.0588976 2.82209 -4.48412e-20)
(0.23899 0.226817 -2.94748e-20)
(1.01572 0.97067 -7.6119e-20)
(1.16971 1.13839 2.14116e-20)
(1.17464 1.16857 1.79927e-20)
(1.12325 1.1468 0)
(1.05249 1.11055 -1.3669e-20)
(0.976106 1.07168 6.37753e-21)
(0.890876 1.02965 -2.41381e-21)
(0.795871 0.981877 6.23304e-21)
(0.688909 0.924568 1.09117e-19)
(0.584184 0.86247 1.22514e-19)
(0.498136 0.798881 9.12867e-20)
(0.425589 0.714449 1.06059e-19)
(0.342502 0.587475 -1.16078e-19)
(0.245658 0.428715 -1.2079e-19)
(0.122923 0.283748 0)
(0.042292 0.872041 0)
(0.0901685 2.57648 3.09884e-20)
(0.0925993 3.20933 0)
(0.0935761 3.38858 8.07119e-20)
(0.241771 0.233029 0)
(1.0099 0.994281 0)
(1.15973 1.16279 0)
(1.16329 1.19286 5.40551e-21)
(1.11199 1.17091 1.92054e-20)
(1.04129 1.13472 -1.28918e-20)
(0.965347 1.09608 3.31217e-21)
(0.879497 1.05445 -2.28301e-21)
(0.783449 1.0075 5.05396e-20)
(0.674271 0.95173 -1.92742e-21)
(0.565557 0.892011 2.40802e-19)
(0.472793 0.829306 -1.05655e-20)
(0.389318 0.739424 1.28041e-20)
(0.296672 0.594057 1.68053e-20)
(0.184942 0.446846 -3.81472e-22)
(0.0965078 1.01012 3.44601e-22)
(0.12871 2.7568 -1.62748e-19)
(0.133482 3.30078 -6.1658e-20)
(0.123093 3.42449 3.25855e-20)
(0.111865 3.44448 -3.66632e-20)
(0.164116 0.177974 1.80611e-20)
(1.00008 1.01976 0)
(1.14956 1.18572 -4.40219e-20)
(1.15236 1.21575 -4.90668e-20)
(1.10127 1.19387 4.44259e-20)
(1.03093 1.15801 1.45761e-20)
(0.954902 1.11934 -2.31574e-21)
(0.868598 1.07835 2.23139e-20)
(0.771591 1.03255 -4.07631e-20)
(0.660396 0.978903 0)
(0.547739 0.921968 1.17804e-19)
(0.448335 0.860938 -7.40872e-20)
(0.352252 0.770129 0)
(0.243967 0.602936 1.61015e-20)
(0.138144 0.795211 3.87865e-20)
(0.143076 2.55685 -4.43465e-20)
(0.192099 3.33058 5.05446e-20)
(0.173681 3.43693 2.71791e-20)
(0.143781 3.45543 3.11303e-20)
(0.124019 3.46387 4.92358e-20)
(0.277397 0.272272 -3.48967e-20)
(0.983896 1.03114 0)
(1.13202 1.21219 4.75035e-20)
(1.13825 1.24834 5.40728e-20)
(1.08437 1.22779 -4.94335e-20)
(1.01353 1.19238 -1.97965e-20)
(0.936359 1.15526 -3.21853e-21)
(0.849505 1.11557 1.77994e-21)
(0.751127 1.07205 3.71448e-20)
(0.637139 1.02271 9.14232e-20)
(0.519312 0.971923 6.5082e-21)
(0.408751 0.914061 6.51107e-20)
(0.285969 0.813973 1.19087e-20)
(0.207796 0.969541 -1.53492e-20)
(0.213616 2.42935 -3.50309e-20)
(0.264226 3.33718 3.44106e-20)
(0.247189 3.46494 -3.7688e-20)
(0.212596 3.48282 -2.1855e-20)
(0.178495 3.50669 -1.92892e-20)
(0.133408 3.50069 -2.85396e-21)
(0.267951 0.271399 0)
(0.981625 1.05463 1.3627e-20)
(1.12384 1.23618 -9.73478e-21)
(1.12772 1.27215 -6.37603e-21)
(1.07368 1.25132 -3.39445e-20)
(1.00291 1.21614 2.02041e-20)
(0.925448 1.17928 3.8244e-21)
(0.838379 1.14045 1.48811e-21)
(0.739446 1.09845 -3.77027e-20)
(0.624153 1.0522 -2.89876e-21)
(0.503438 1.00576 -2.09018e-19)
(0.387264 0.949939 9.29438e-21)
(0.275015 0.888721 -1.11939e-20)
(0.242376 1.56329 -1.40049e-20)
(0.303534 3.14553 3.65588e-21)
(0.317479 3.46855 3.49423e-22)
(0.27553 3.51502 5.37787e-20)
(0.241341 3.53687 2.67582e-20)
(0.195503 3.55604 -7.58579e-21)
(0.145588 3.55177 -1.34199e-20)
(0.253942 0.269591 3.48016e-20)
(0.978482 1.08076 9.24257e-20)
(1.11529 1.26229 -2.78772e-20)
(1.11681 1.29754 -2.41003e-20)
(1.06258 1.27633 0)
(0.991943 1.24121 3.46777e-20)
(0.914444 1.20464 8.73134e-21)
(0.827413 1.1666 1.17362e-21)
(0.728227 1.12623 -4.23943e-21)
(0.612139 1.08327 -7.95393e-20)
(0.489351 1.04138 -9.49514e-20)
(0.36867 0.987816 -7.53219e-20)
(0.275151 1.03202 -8.32573e-20)
(0.305817 2.31083 8.65084e-20)
(0.382398 3.39681 7.27611e-20)
(0.355537 3.52645 0)
(0.307137 3.56138 0)
(0.270314 3.59379 -5.69223e-21)
(0.225869 3.63851 0)
(0.156676 3.62201 -8.06998e-21)
(0.244042 0.271688 -5.19201e-20)
(0.973398 1.10785 -7.82539e-20)
(1.1054 1.2897 0)
(1.1047 1.32385 1.30861e-21)
(1.05029 1.30204 -3.61323e-20)
(0.979931 1.26687 5.52082e-20)
(0.902711 1.23061 7.51676e-21)
(0.815943 1.19329 1.6609e-22)
(0.716757 1.15449 -2.40427e-20)
(0.60029 1.11481 3.78565e-21)
(0.476265 1.0773 0)
(0.352528 1.03121 0)
(0.299848 1.31911 -7.45029e-20)
(0.382246 2.97536 3.03124e-20)
(0.446469 3.49759 3.78218e-20)
(0.393927 3.56134 0)