/*--------------------------------*- C++ -*----------------------------------*\
  =========                 |
  \\      /  F ield         | OpenFOAM: The Open Source CFD Toolbox
   \\    /   O peration     | Website:  https://openfoam.org
    \\  /    A nd           | Version:  6
     \\/     M anipulation  |
\*---------------------------------------------------------------------------*/
FoamFile
{
    version     2.0;
    format      ascii;
    class       volVectorField;
    location    "101.8";
    object      U;
}
// * * * * * * * * * * * * * * * * * * * * * * * * * * * * * * * * * * * * * //

dimensions      [0 1 -1 0 0 0 0];

internalField   nonuniform List<vector> 
8800
(
(0.987183 -0.0766651 0)
(1.00189 -0.05519 0)
(0.999722 -0.0285478 0)
(1.00003 -0.0151428 0)
(1.0001 -0.00854425 0)
(1.00012 -0.00504646 0)
(1.00008 -0.00300055 0)
(1.00002 -0.00169928 0)
(0.99999 -0.000792448 0)
(1.00006 -7.54527e-05 0)
(0.99996 0.000657661 0)
(1.00001 0.00142507 0)
(1.00006 0.0024283 0)
(1.00007 0.00399821 0)
(1.00006 0.00663239 0)
(1.00005 0.011372 0)
(0.999959 0.0208157 0)
(0.999175 0.0386704 0)
(1.0071 0.0724575 0)
(0.771215 0.0366617 0)
(0.363081 -0.0160162 0)
(1.04332 -0.0768104 0)
(1.0846 -0.070438 0)
(1.0452 -0.0535312 0)
(1.02329 -0.0388813 0)
(1.01203 -0.0262019 0)
(1.00644 -0.0168377 0)
(1.0036 -0.0103011 0)
(1.00215 -0.00563578 0)
(1.00143 -0.00197198 0)
(1.00128 0.00135117 0)
(1.00167 0.00474052 0)
(1.0027 0.00865936 0)
(1.00468 0.0139772 0)
(1.00861 0.0216854 0)
(1.01657 0.0326516 0)
(1.03252 0.0465628 0)
(1.06269 0.0616789 0)
(1.09187 0.076106 0)
(0.838664 0.0565646 0)
(0.216877 -0.00242846 0)
(1.07592 -0.0501203 0)
(1.09989 -0.0482879 0)
(1.06466 -0.0404357 0)
(1.04006 -0.0335723 0)
(1.02394 -0.026044 0)
(1.01413 -0.0184512 0)
(1.00856 -0.0116197 0)
(1.00558 -0.00574056 0)
(1.0043 -0.000314603 0)
(1.00464 0.00493717 0)
(1.00662 0.0103275 0)
(1.01064 0.0163834 0)
(1.01794 0.0234007 0)
(1.03053 0.0308621 0)
(1.05062 0.0378844 0)
(1.08037 0.0445639 0)
(1.10627 0.0513718 0)
(0.942493 0.0416313 0)
(0.216111 0.00246311 0)
(0.175226 -0.000814862 0)
(1.01777 -0.0354607 0)
(1.10524 -0.0413415 0)
(1.0783 -0.0360168 0)
(1.05351 -0.0300735 0)
(1.03624 -0.0244864 0)
(1.02403 -0.0187422 0)
(1.0159 -0.0126443 0)
(1.01102 -0.00644001 0)
(1.00879 -9.23828e-05 0)
(1.00935 0.00617121 0)
(1.01266 0.0121666 0)
(1.01889 0.0179544 0)
(1.02875 0.0235181 0)
(1.04317 0.028811 0)
(1.0637 0.0342815 0)
(1.09356 0.040258 0)
(1.09338 0.0420069 0)
(0.827028 0.0229345 0)
(0.173935 0.000855153 0)
(0.154054 -0.000608498 0)
(0.95634 -0.0254248 0)
(1.10353 -0.0350705 0)
(1.08774 -0.0325794 0)
(1.06179 -0.0279138 0)
(1.04417 -0.0228733 0)
(1.03169 -0.0176038 0)
(1.02282 -0.0120473 0)
(1.01698 -0.0060885 0)
(1.0141 0.000398672 0)
(1.01475 0.00687147 0)
(1.01878 0.0127494 0)
(1.0258 0.0179842 0)
(1.03605 0.0228867 0)
(1.0506 0.0276335 0)
(1.07184 0.0321458 0)
(1.10004 0.0360662 0)
(1.06798 0.0341012 0)
(0.739289 0.0143435 0)
(0.152105 0.000654296 0)
(0.139721 -0.000464384 0)
(0.899564 -0.0190311 0)
(1.09593 -0.0299967 0)
(1.09584 -0.0290831 0)
(1.06936 -0.0253333 0)
(1.05092 -0.021171 0)
(1.03797 -0.0163677 0)
(1.02883 -0.0110477 0)
(1.02267 -0.00527377 0)
(1.01949 0.00107709 0)
(1.02007 0.0074031 0)
(1.02422 0.0130295 0)
(1.03135 0.017921 0)
(1.0418 0.0223682 0)
(1.05691 0.0263172 0)
(1.07911 0.0297543 0)
(1.10219 0.0323596 0)
(1.03575 0.0282184 0)
(0.672542 0.0102516 0)
(0.136963 0.000517234 0)
(0.12923 -0.00035853 0)
(0.850148 -0.0146549 0)
(1.08365 -0.0258348 0)
(1.10158 -0.026093 0)
(1.07626 -0.0227822 0)
(1.05729 -0.0191081 0)
(1.04388 -0.0148224 0)
(1.03438 -0.0098553 0)
(1.02797 -0.00428302 0)
(1.02457 0.00189584 0)
(1.02499 0.00801349 0)
(1.0291 0.0133617 0)
(1.03631 0.017827 0)
(1.04703 0.0216655 0)
(1.06253 0.0249442 0)
(1.08516 0.0278541 0)
(1.10121 0.029579 0)
(1.00063 0.0237381 0)
(0.620465 0.00789998 0)
(0.125485 0.000420718 0)
(0.121249 -0.000277285 0)
(0.808238 -0.0114807 0)
(1.06853 -0.0221899 0)
(1.1052 -0.0234069 0)
(1.08258 -0.0205009 0)
(1.06319 -0.0170329 0)
(1.0495 -0.0130435 0)
(1.03971 -0.00840253 0)
(1.033 -0.00309067 0)
(1.02933 0.00287881 0)
(1.02955 0.0087539 0)
(1.0336 0.0137522 0)
(1.04085 0.0177284 0)
(1.05165 0.0210562 0)
(1.06736 0.0239174 0)
(1.09033 0.0265197 0)
(1.0973 0.0273355 0)
(0.965067 0.0202413 0)
(0.578493 0.00638095 0)
(0.116304 0.000351271 0)
(0.115093 -0.000213376 0)
(0.773064 -0.00909909 0)
(1.05199 -0.0189705 0)
(1.10769 -0.020907 0)
(1.08854 -0.0183618 0)
(1.06876 -0.0150277 0)
(1.05482 -0.0111874 0)
(1.04482 -0.00674296 0)
(1.03784 -0.00165852 0)
(1.03387 0.00406883 0)
(1.03384 0.00965116 0)
(1.03775 0.0142722 0)
(1.04491 0.0178099 0)
(1.05567 0.0207468 0)
(1.07157 0.0232752 0)
(1.09418 0.0255214 0)
(1.09049 0.0255053 0)
(0.93034 0.0175645 0)
(0.543596 0.00535255 0)
(0.10869 0.000301867 0)
(0.110331 -0.000161658 0)
(0.743695 -0.00724246 0)
(1.03509 -0.0161045 0)
(1.10928 -0.0185359 0)
(1.09423 -0.0162845 0)
(1.07416 -0.0130294 0)
(1.05994 -0.00926287 0)
(1.04974 -0.00492299 0)
(1.04251 4.41073e-06 0)
(1.03822 0.00550367 0)
(1.03786 0.0107805 0)
(1.04153 0.0150405 0)
(1.0485 0.0181855 0)
(1.0592 0.0207748 0)
(1.07528 0.0230038 0)
(1.09672 0.0248578 0)
(1.08115 0.0240471 0)
(0.896987 0.0155591 0)
(0.513704 0.00464591 0)
(0.102156 0.000267828 0)
(0.106681 -0.000118335 0)
(0.719323 -0.00573625 0)
(1.01868 -0.0135192 0)
(1.11009 -0.0162289 0)
(1.09984 -0.014234 0)
(1.07951 -0.0109749 0)
(1.06499 -0.00721951 0)
(1.05454 -0.00292154 0)
(1.04704 0.00191138 0)
(1.04238 0.00722824 0)
(1.0416 0.0122267 0)
(1.04495 0.0161493 0)
(1.05168 0.0189167 0)
(1.06229 0.0211695 0)
(1.07853 0.0231208 0)
(1.09784 0.0245425 0)
(1.06965 0.0229615 0)
(0.865094 0.0141099 0)
(0.487341 0.00417127 0)
(0.0963559 0.000246153 0)
(0.103959 -8.04021e-05 0)
(0.699318 -0.00446362 0)
(1.00338 -0.0111457 0)
(1.11029 -0.0139489 0)
(1.10533 -0.0121241 0)
(1.08489 -0.0088088 0)
(1.07005 -0.00500219 0)
(1.05931 -0.000682238 0)
(1.05147 0.00411685 0)
(1.04635 0.00930455 0)
(1.04508 0.0140605 0)
(1.04803 0.0176627 0)
(1.05447 0.0200578 0)
(1.06495 0.0219811 0)
(1.0813 0.0236573 0)
(1.09787 0.0247328 0)
(1.0562 0.0222684 0)
(0.834453 0.0131352 0)
(0.463387 0.0038748 0)
(0.0910229 0.000234498 0)
(0.102049 -4.5129e-05 0)
(0.683225 -0.00333663 0)
(0.989661 -0.0089117 0)
(1.11011 -0.0116066 0)
(1.11069 -0.00986963 0)
(1.09038 -0.00646707 0)
(1.07519 -0.0025449 0)
(1.06412 0.00186647 0)
(1.05585 0.00669737 0)
(1.05018 0.011811 0)
(1.0483 0.0163599 0)
(1.05078 0.019656 0)
(1.05687 0.0216779 0)
(1.06718 0.0232685 0)
(1.08355 0.024649 0)
(1.09698 0.0252609 0)
(1.04092 0.0219753 0)
(0.804678 0.0125588 0)
(0.440949 0.00371789 0)
(0.0859468 0.000230692 0)
(0.100896 -1.02098e-05 0)
(0.670757 -0.00228473 0)
(0.977894 -0.00674114 0)
(1.10987 -0.00914422 0)
(1.11607 -0.00740896 0)
(1.09609 -0.00387175 0)
(1.0805 0.000234465 0)
(1.06902 0.00481038 0)
(1.06025 0.00974399 0)
(1.05392 0.0148414 0)
(1.0513 0.0192162 0)
(1.0532 0.022217 0)
(1.05888 0.0238643 0)
(1.06899 0.0251146 0)
(1.08533 0.026198 0)
(1.09474 0.0262818 0)
(1.02382 0.0220907 0)
(0.775289 0.0123361 0)
(0.419297 0.0036766 0)
(0.08096 0.000233486 0)
(0.100491 2.66596e-05 0)
(0.661776 -0.0012509 0)
(0.968405 -0.00456003 0)
(1.10992 -0.00649994 0)
(1.1216 -0.0046675 0)
(1.10209 -0.000933161 0)
(1.08608 0.00343158 0)
(1.07412 0.00824964 0)
(1.06473 0.0133623 0)
(1.05759 0.0185065 0)
(1.05409 0.022742 0)
(1.0553 0.0254556 0)
(1.0605 0.0267315 0)
(1.07036 0.0276188 0)
(1.08655 0.028365 0)
(1.09106 0.0278234 0)
(1.00478 0.0226604 0)
(0.745731 0.0124434 0)
(0.3978 0.00373774 0)
(0.0759197 0.000242165 0)
(0.100851 6.07128e-05 0)
(0.656276 -0.000176883 0)
(0.961509 -0.00229265 0)
(1.11062 -0.00360526 0)
(1.12747 -0.00155958 0)
(1.10849 0.00245048 0)
(1.09201 0.00715772 0)
(1.07948 0.0123046 0)
(1.06935 0.0176791 0)
(1.06123 0.0229372 0)
(1.05668 0.0270674 0)
(1.05706 0.0295052 0)
(1.06169 0.0304016 0)
(1.07123 0.0309035 0)
(1.08691 0.0312693 0)
(1.08561 0.0299771 0)
(0.983563 0.0237223 0)
(0.715382 0.0128652 0)
(0.37588 0.00389123 0)
(0.0706998 0.000255807 0)
(0.102062 0.000116625 0)
(0.654427 0.000984477 0)
(0.957533 0.00014191 0)
(1.11234 -0.000379414 0)
(1.13387 0.00201581 0)
(1.11544 0.00640003 0)
(1.09843 0.0115477 0)
(1.08522 0.0171229 0)
(1.07419 0.0228516 0)
(1.06489 0.0282924 0)
(1.05908 0.0323495 0)
(1.05848 0.0345198 0)
(1.06243 0.0350109 0)
(1.07156 0.0351064 0)
(1.08626 0.0350492 0)
(1.07812 0.0328279 0)
(0.959759 0.0253151 0)
(0.683548 0.0135906 0)
(0.352993 0.00412712 0)
(0.0651903 0.000273372 0)
(0.10427 0.000168735 0)
(0.656379 0.00211996 0)
(0.956845 0.00283705 0)
(1.11556 0.00328272 0)
(1.14104 0.00617374 0)
(1.12307 0.0110603 0)
(1.10547 0.0167634 0)
(1.09144 0.0228804 0)
(1.07931 0.0290633 0)
(1.0686 0.0347563 0)
(1.06128 0.0387628 0)
(1.05953 0.0406354 0)
(1.06266 0.0407189 0)
(1.07131 0.0403794 0)
(1.08437 0.0398001 0)
(1.06824 0.0364794 0)
(0.932829 0.0274831 0)
(0.649482 0.0146094 0)
(0.328636 0.00443445 0)
(0.059302 0.000293602 0)
(0.107586 0.000232229 0)
(0.662772 0.00361068 0)
(0.959783 0.00579918 0)
(1.12075 0.0075188 0)
(1.14923 0.0110548 0)
(1.13159 0.0166144 0)
(1.11329 0.0230108 0)
(1.09827 0.0298015 0)
(1.0848 0.0365453 0)
(1.07238 0.0425528 0)
(1.06327 0.0465092 0)
(1.0602 0.0480634 0)
(1.06234 0.047713 0)
(1.07041 0.0468994 0)
(1.08124 0.0456883 0)
(1.05548 0.0410536 0)
(0.902046 0.0302596 0)
(0.612372 0.0158995 0)
(0.302346 0.00479637 0)
(0.0529707 0.000314618 0)
(0.112298 0.000320776 0)
(0.673977 0.00537155 0)
(0.96691 0.00931022 0)
(1.12842 0.0124951 0)
(1.15877 0.016878 0)
(1.14123 0.0233073 0)
(1.12209 0.0305581 0)
(1.10583 0.0381672 0)
(1.09072 0.0455788 0)
(1.07624 0.0519457 0)
(1.06502 0.0558263 0)
(1.06036 0.0570305 0)
(1.06144 0.056198 0)
(1.0688 0.0548648 0)
(1.07676 0.0529139 0)
(1.03916 0.0466559 0)
(0.866494 0.0336476 0)
(0.57137 0.0174125 0)
(0.273745 0.00518482 0)
(0.0461708 0.000333687 0)
(0.118771 0.000437878 0)
(0.690808 0.0075626 0)
(0.979135 0.013609 0)
(1.13914 0.018445 0)
(1.17005 0.0239111 0)
(1.15228 0.0314625 0)
(1.13206 0.0397587 0)
(1.11425 0.0483402 0)
(1.09712 0.0565072 0)
(1.08016 0.063238 0)
(1.06648 0.0669727 0)
(1.05991 0.0677357 0)
(1.05989 0.0663806 0)
(1.06655 0.0644764 0)
(1.07059 0.0616569 0)
(1.01838 0.0533508 0)
(0.825053 0.0375925 0)
(0.525646 0.0190539 0)
(0.242605 0.00555601 0)
(0.0389343 0.000347157 0)
(0.127531 0.000601487 0)
(0.714286 0.0104284 0)
(0.99717 0.0189484 0)
(1.15359 0.0257132 0)
(1.18355 0.0325333 0)
(1.16509 0.041542 0)
(1.14345 0.0511022 0)
(1.12366 0.0608028 0)
(1.10399 0.0697627 0)
(1.08407 0.0767778 0)
(1.06754 0.0802175 0)
(1.05885 0.0804125 0)
(1.05765 0.0784616 0)
(1.06334 0.0758921 0)
(1.06214 0.071924 0)
(0.991954 0.0611463 0)
(0.776419 0.0419367 0)
(0.474507 0.0206618 0)
(0.208952 0.00584806 0)
(0.0313716 0.000350686 0)
(0.139394 0.000841572 0)
(0.745791 0.0143525 0)
(1.02219 0.0258082 0)
(1.17255 0.0348515 0)
(1.19994 0.0433617 0)
(1.18005 0.054234 0)
(1.15647 0.065282 0)
(1.13406 0.0761865 0)
(1.11124 0.0858609 0)
(1.0878 0.0929437 0)
(1.06806 0.0958281 0)
(1.05707 0.0952728 0)
(1.05474 0.0926885 0)
(1.05884 0.089345 0)
(1.05049 0.0839185 0)
(0.958293 0.0698857 0)
(0.719196 0.046365 0)
(0.417593 0.0219897 0)
(0.173199 0.00598274 0)
(0.0236886 0.000339826 0)
(0.155672 0.00121706 0)
(0.787329 0.0199843 0)
(1.05585 0.0349793 0)
(1.197 0.0468261 0)
(1.22012 0.0578121 0)
(1.19755 0.0706132 0)
(1.17118 0.0832928 0)
(1.14532 0.0953081 0)
(1.11862 0.105398 0)
(1.0911 0.112118 0)
(1.06784 0.114033 0)
(1.05446 0.112486 0)
(1.05108 0.109176 0)
(1.05292 0.105088 0)
(1.03444 0.097565 0)
(0.915357 0.0791814 0)
(0.652107 0.0503543 0)
(0.355206 0.0227122 0)
(0.136276 0.00587847 0)
(0.0161909 0.000311224 0)
(0.178624 0.00186857 0)
(0.842144 0.028488 0)
(1.10108 0.048066 0)
(1.22802 0.063496 0)
(1.24451 0.0774852 0)
(1.21768 0.0923649 0)
(1.18734 0.106507 0)
(1.15703 0.119152 0)
(1.12567 0.128996 0)
(1.0936 0.134644 0)
(1.06661 0.135015 0)
(1.05079 0.132138 0)
(1.04645 0.127965 0)
(1.04538 0.122876 0)
(1.01214 0.112552 0)
(0.860646 0.088299 0)
(0.574515 0.0531543 0)
(0.28878 0.0224764 0)
(0.0997258 0.00547348 0)
(0.00926738 0.000262999 0)
(0.211758 0.00331071 0)
(0.916115 0.0426398 0)
(1.16087 0.0689809 0)
(1.26594 0.0883751 0)
(1.27299 0.105528 0)
(1.23984 0.121942 0)
(1.2041 0.136588 0)
(1.16833 0.14872 0)
(1.13171 0.157192 0)
(1.0948 0.16077 0)
(1.06406 0.158862 0)
(1.0459 0.154237 0)
(1.0407 0.149077 0)
(1.03531 0.142724 0)
(0.980863 0.128205 0)
(0.791383 0.0960269 0)
(0.487511 0.0538958 0)
(0.221591 0.0210897 0)
(0.0657944 0.00476923 0)
(0.00339673 0.000194754 0)
(0.256973 0.00979475 1.0389e-20)
(1.01301 0.0706684 8.90124e-21)
(1.23275 0.104581 -3.10125e-21)
(1.30797 0.125504 0)
(1.30256 0.145721 -7.8226e-35)
(1.26175 0.161763 1.14162e-21)
(1.21987 0.175079 -2.04524e-21)
(1.17818 0.185241 0)
(1.13601 0.191268 4.19754e-35)
(1.09403 0.192028 -2.52591e-21)
(1.05938 0.187463 0)
(1.03904 0.18115 -3.01197e-21)
(1.03378 0.175829 -8.89854e-21)
(1.02039 0.168164 -4.2172e-21)
(0.934378 0.146352 -1.26963e-21)
(0.699351 0.10238 -7.53769e-22)
(0.386446 0.0522744 0)
(0.15333 0.0188323 5.27012e-22)
(0.0346186 0.00388938 6.24111e-22)
(-0.001517 7.45444e-05 1.14173e-20)
(0.288694 0.0256187 7.53518e-21)
(1.09368 0.115042 1.19591e-22)
(1.29205 0.155281 8.22779e-22)
(1.34635 0.176255 0)
(1.32882 0.196472 -3.93391e-21)
(1.28097 0.210496 -4.46248e-21)
(1.23309 0.221687 -2.05341e-21)
(1.18556 0.229633 -7.27841e-21)
(1.1378 0.233318 0)
(1.09059 0.231562 1.06705e-20)
(1.05183 0.224717 1.05927e-20)
(1.02872 0.216835 3.14304e-21)
(1.0205 0.210533 1.15099e-20)
(0.991303 0.198748 1.62419e-20)
(0.856736 0.165087 0)
(0.570733 0.106031 2.28506e-20)
(0.271097 0.0486392 3.27546e-20)
(0.0858224 0.0153347 3.64407e-20)
(0.00582052 0.00187399 -4.17961e-20)
(-0.00581574 -0.000471958 -7.97634e-22)
(0.290864 0.0436565 0)
(1.14602 0.172299 1.28011e-21)
(1.33319 0.217254 0)
(1.37671 0.238074 -5.0879e-21)
(1.34992 0.255109 0)
(1.29616 0.265252 -8.68992e-21)
(1.24272 0.272788 4.16185e-21)
(1.1897 0.27733 -1.45546e-20)
(1.13674 0.277754 -3.32976e-22)
(1.08476 0.272808 5.47316e-21)
(1.04236 0.263306 2.31333e-20)
(1.01687 0.253685 -2.37993e-23)
(1.00475 0.245644 -8.32385e-21)
(0.957708 0.228418 -1.51469e-20)
(0.780982 0.180854 1.79399e-20)
(0.470841 0.106718 -3.1728e-20)
(0.199473 0.0446098 -4.17285e-21)
(0.0483494 0.0118461 0)
(-0.00907121 -0.000468125 -3.27373e-24)
(-0.00786183 -0.00110647 0)
(0.284512 0.0587334 1.62327e-20)
(1.17549 0.233394 -7.94366e-21)
(1.35962 0.284012 -6.15187e-21)
(1.39734 0.305116 2.37292e-21)
(1.3643 0.318025 -3.96008e-21)
(1.30618 0.323589 1.80309e-20)
(1.24823 0.326708 8.59323e-21)
(1.19059 0.327099 0)
(1.13313 0.323596 -2.72139e-20)
(1.07699 0.314915 0)
(1.03146 0.302425 -1.2025e-20)
(1.00388 0.290865 -1.49159e-20)
(0.987369 0.280369 -8.9922e-21)
(0.922706 0.256432 -1.09299e-20)
(0.713896 0.194285 0)
(0.398294 0.107467 0)
(0.153053 0.0418397 -2.69637e-20)
(0.0245884 0.00858025 5.31862e-21)
(-0.018629 -0.00300157 -3.13797e-21)
(-0.00918852 -0.00179036 -3.71695e-21)
(0.276543 0.0718752 -5.82253e-21)
(1.18942 0.294387 0)
(1.37495 0.35174 1.20945e-20)
(1.4093 0.373335 6.51191e-21)
(1.372 0.38221 9.10747e-21)
(1.31077 0.383159 0)
(1.24942 0.381704 8.30587e-21)
(1.18811 0.377673 1.58632e-20)
(1.12695 0.369904 1.3826e-20)
(1.06732 0.357152 2.53434e-20)
(1.01915 0.34142 0)
(0.989742 0.327748 -3.18646e-20)
(0.968594 0.314311 -1.92152e-20)
(0.888036 0.282634 -1.13678e-20)
(0.656547 0.20635 6.95039e-20)
(0.345673 0.10883 8.22499e-21)
(0.121584 0.0397564 3.87395e-20)
(0.00774791 0.00521694 -1.83086e-19)
(-0.0258873 -0.00578489 1.08435e-19)
(-0.0102619 -0.00252203 -1.32367e-19)
(0.268528 0.0836068 -1.93055e-21)
(1.19318 0.353232 1.01069e-21)
(1.38205 0.418436 -1.20338e-21)
(1.41431 0.440829 -6.30862e-21)
(1.374 0.445898 -7.49314e-21)
(1.31049 0.442372 3.55085e-22)
(1.24654 0.43643 -8.94847e-21)
(1.18234 0.42798 1.62111e-20)
(1.11818 0.415848 -2.95132e-20)
(1.05568 0.398874 0)
(1.00533 0.379745 -1.43931e-20)
(0.974334 0.363799 -3.02458e-22)
(0.948655 0.347109 -2.09051e-20)
(0.854417 0.307182 0)
(0.608193 0.217503 -1.49551e-20)
(0.306653 0.110833 -3.53405e-20)
(0.0984546 0.0380475 9.38713e-20)
(-0.00549658 0.00168339 -9.24248e-20)
(-0.0320092 -0.00880278 1.31377e-19)
(-0.0111936 -0.00329345 -1.38241e-19)
(0.261361 0.0942831 -1.17279e-22)
(1.19029 0.409144 -7.68337e-23)
(1.38307 0.483008 -2.82201e-21)
(1.41381 0.506465 2.37781e-21)
(1.37134 0.50806 -3.7e-21)
(1.30615 0.500285 0)
(1.24017 0.49004 -8.22775e-21)
(1.17364 0.477283 -1.68603e-20)
(1.10702 0.460818 -1.52486e-20)
(1.04214 0.439571 0)
(0.990024 0.416946 -1.4707e-20)
(0.95773 0.398594 -1.82437e-20)
(0.927903 0.378426 2.24894e-20)
(0.822378 0.330051 -1.36664e-20)
(0.567551 0.227942 -6.44685e-20)
(0.276786 0.113345 3.80747e-20)
(0.0802395 0.0365018 1.1234e-20)
(-0.017021 -0.00213676 0)
(-0.0378578 -0.0121314 -1.25651e-19)
(-0.0121387 -0.00412842 -4.65569e-21)
(0.255251 0.104252 4.69616e-22)
(1.18308 0.461903 -5.43299e-22)
(1.37954 0.544889 1.18869e-21)
(1.40903 0.569579 8.53055e-21)
(1.36497 0.568056 -1.32924e-20)
(1.29855 0.556338 1.62983e-20)
(1.23096 0.542035 1.76001e-20)
(1.16251 0.525144 -2.68142e-20)
(1.09381 0.504439 9.38048e-21)
(1.02691 0.478909 -6.1233e-20)
(0.973365 0.452696 -1.65874e-20)
(0.940078 0.431777 0)
(0.906624 0.407938 2.42221e-20)
(0.792114 0.351128 2.89547e-20)
(0.533317 0.2377 3.45434e-20)
(0.253222 0.116111 -4.0938e-20)
(0.0650728 0.0348466 -1.20759e-20)
(-0.0277623 -0.00640829 1.42362e-20)
(-0.0439944 -0.015926 0)
(-0.0132673 -0.00508639 -1.0002e-20)
(0.250134 0.113579 -1.01539e-20)
(1.1733 0.511542 4.89269e-21)
(1.37276 0.604043 -8.5815e-22)
(1.40099 0.629832 4.89836e-21)
(1.35572 0.625512 -5.77744e-21)
(1.28839 0.610171 -8.56314e-22)
(1.21951 0.592112 -1.91852e-20)
(1.14944 0.57132 -9.67687e-21)
(1.07893 0.546508 -2.63009e-20)
(1.01025 0.51671 3.51363e-23)
(0.955534 0.486798 -5.15139e-20)
(0.921499 0.463106 4.35602e-20)
(0.884984 0.435394 -2.6387e-20)
(0.763629 0.370294 3.15801e-20)
(0.504298 0.246652 0)
(0.234228 0.11877 -2.20103e-20)
(0.0521009 0.0327957 2.39028e-23)
(-0.0379118 -0.0112707 -6.13066e-20)
(-0.0505395 -0.0203223 -9.06412e-21)
(-0.0146636 -0.00622658 0)
(0.245995 0.122539 0)
(1.16201 0.558296 5.99671e-21)
(1.36358 0.66047 6.3827e-22)
(1.3905 0.687067 -4.20699e-21)
(1.34428 0.680233 -7.53737e-21)
(1.27627 0.661599 0)
(1.20635 0.640098 -8.61272e-21)
(1.13489 0.61567 -2.38139e-22)
(1.06274 0.586937 5.61919e-20)
(0.992436 0.552906 -8.35358e-21)
(0.936677 0.519169 -3.71284e-20)
(0.902068 0.492458 2.2577e-20)
(0.863033 0.460625 -3.95698e-22)
(0.736755 0.387405 3.34982e-20)
(0.479467 0.254591 2.02079e-20)
(0.218653 0.120901 -4.72226e-20)
(0.0410975 0.0301156 5.57126e-20)
(-0.0471574 -0.0167281 1.64747e-20)
(-0.0572033 -0.0252901 6.82538e-20)
(-0.0163097 -0.00757461 -1.847e-19)
(0.242762 0.131298 -4.04999e-21)
(1.15006 0.60234 4.94775e-21)
(1.35269 0.713839 -2.95705e-21)
(1.37823 0.741252 2.76487e-21)
(1.33124 0.732141 0)
(1.26272 0.710531 -7.18558e-21)
(1.19193 0.685911 2.90247e-20)
(1.11923 0.658133 2.11317e-20)
(1.04557 0.625697 0)
(0.973679 0.587508 -1.20211e-19)
(0.916906 0.549805 1.00148e-19)
(0.881817 0.519806 0)
(0.840723 0.483561 3.05294e-20)
(0.71121 0.402405 -3.24419e-22)
(0.457859 0.261336 -6.47166e-20)
(0.205717 0.122221 2.53213e-20)
(0.032139 0.0268277 0)
(-0.0549305 -0.0225803 8.84769e-20)
(-0.0633774 -0.0306241 0)
(-0.0180719 -0.00910232 -8.68451e-20)
(0.240364 0.139868 5.02521e-21)
(1.13797 0.643917 6.99338e-21)
(1.34057 0.764227 -2.77306e-21)
(1.36472 0.792416 0)
(1.31709 0.781249 -6.03297e-21)
(1.24819 0.756961 0)
(1.17666 0.729526 -2.8514e-20)
(1.10283 0.698696 -9.76525e-21)
(1.0277 0.662813 9.89536e-21)
(0.954191 0.620587 -5.94896e-20)
(0.89631 0.578782 1.03499e-20)
(0.860742 0.545192 0)
(0.817978 0.504222 -6.51004e-20)
(0.686635 0.415284 2.6123e-22)
(0.43861 0.266806 0)
(0.194798 0.122672 4.6938e-23)
(0.0251104 0.0231102 8.04422e-20)
(-0.0608264 -0.0284436 -7.60618e-20)
(-0.068464 -0.0359488 2.25244e-20)
(-0.0197516 -0.0107058 0)
(0.238468 0.148228 0)
(1.12599 0.683233 8.76698e-21)
(1.32769 0.811762 4.92098e-21)
(1.35041 0.840642 -5.34205e-22)
(1.30224 0.827608 -1.72781e-21)
(1.23304 0.800921 -1.62568e-20)
(1.16086 0.770966 1.0769e-20)
(1.08597 0.737385 -1.16065e-20)
(1.0094 0.698332 4.42904e-20)
(0.934158 0.652248 -9.53534e-20)
(0.874974 0.606231 -8.39436e-22)
(0.838836 0.56871 -2.86204e-20)
(0.794696 0.522685 1.05508e-19)
(0.662719 0.426138 -3.77175e-22)
(0.420982 0.270999 -4.9907e-20)
(0.185368 0.122343 -8.80211e-20)
(0.0198857 0.01929 0)
(-0.0646525 -0.0339125 0)
(-0.0720642 -0.0408801 2.42296e-20)
(-0.0211645 -0.0122711 -1.43711e-20)
(0.237244 0.156568 7.43043e-21)
(1.11432 0.720341 -2.01956e-20)
(1.3144 0.85656 -5.27428e-21)
(1.33564 0.886022 0)
(1.28699 0.871296 -3.09911e-22)
(1.21757 0.84247 -1.46731e-20)
(1.14482 0.810278 2.59162e-20)
(1.06894 0.77424 4.56917e-20)
(0.990914 0.732327 5.77335e-20)
(0.91378 0.682616 -7.82194e-20)
(0.853005 0.632335 -8.65794e-20)
(0.816086 0.590494 7.67151e-20)
(0.770808 0.539052 0)
(0.638874 0.435034 -2.29018e-20)
(0.404523 0.273892 -5.37037e-20)
(0.17707 0.12141 -6.31624e-20)
(0.0161832 0.0156404 -7.44656e-20)
(-0.0665629 -0.0386599 2.2041e-20)
(-0.074067 -0.0451046 -1.30178e-20)
(-0.0221938 -0.0136923 4.56079e-23)
(0.236279 0.164715 0)
(1.10337 0.755275 0)
(1.30094 0.89874 5.08916e-22)
(1.32067 0.928666 0)
(1.27162 0.912415 3.13093e-21)
(1.20204 0.88169 9.80735e-21)
(1.12879 0.84752 0)
(1.05196 0.809316 5.42904e-21)
(0.972456 0.764867 9.68401e-20)
(0.893259 0.711825 -1.80492e-19)
(0.830518 0.65731 0)
(0.792478 0.610738 -4.96887e-20)
(0.746191 0.553341 -4.95076e-22)
(0.615229 0.441925 -2.76978e-22)
(0.388872 0.275488 5.77908e-20)
(0.16976 0.120047 3.93592e-23)
(0.0137688 0.0125122 -1.60265e-19)
(-0.0669719 -0.0423896 4.7382e-20)
(-0.0747057 -0.0484885 1.40575e-20)
(-0.0227856 -0.0148789 0)
(0.235573 0.172628 -3.07225e-20)
(1.0929 0.788482 -1.41711e-20)
(1.28743 0.93839 -1.70701e-20)
(1.30571 0.968686 1.27866e-20)
(1.25633 0.951053 2.57217e-21)
(1.18664 0.918662 0)
(1.11295 0.882763 1.58167e-20)
(1.03522 0.842674 -1.22007e-20)
(0.954223 0.79602 8.00993e-22)
(0.872796 0.740004 1.33683e-20)
(0.807648 0.681383 1.1339e-19)
(0.768006 0.629695 -1.75192e-20)
(0.720692 0.565612 -6.55202e-20)
(0.591571 0.446587 -2.67224e-20)
(0.374022 0.27552 3.11563e-20)
(0.163728 0.118313 5.4148e-23)
(0.0126595 0.0104815 4.3155e-20)
(-0.0667122 -0.0445171 -1.01963e-19)
(-0.0749355 -0.0509161 1.20995e-19)
(-0.0231476 -0.0158765 1.78673e-20)
(0.23492 0.180301 1.179e-20)
(1.08292 0.820017 -8.04745e-21)
(1.27406 0.975651 1.32626e-21)
(1.29094 1.00622 9.17023e-21)
(1.24128 0.987331 8.30893e-22)
(1.17153 0.953471 -1.72182e-20)
(1.09746 0.916074 4.53355e-21)
(1.01888 0.874365 -5.11105e-20)
(0.936395 0.825831 -1.08003e-19)
(0.852574 0.767241 -1.08755e-19)
(0.78456 0.704781 0)
(0.74266 0.647664 -7.74974e-20)
(0.694071 0.575971 9.48439e-20)
(0.567577 0.448616 0)
(0.360199 0.273191 -6.70093e-20)
(0.16013 0.115616 3.94631e-20)
(0.0144185 0.00992373 -4.64541e-20)
(-0.0657382 -0.0445384 -5.49295e-20)
(-0.0767401 -0.052981 -9.75652e-20)
(-0.0242236 -0.0171841 -7.70457e-20)
(0.234611 0.187822 -1.3479e-20)
(1.07332 0.849901 8.62602e-21)
(1.26093 1.0106 1.9018e-20)
(1.27648 1.04136 1.40556e-20)
(1.22661 1.02135 -8.13883e-22)
(1.15683 0.986215 -9.19164e-21)
(1.08246 0.947519 1.53185e-20)
(1.00308 0.904451 -5.28503e-20)
(0.919109 0.854356 -6.45166e-20)
(0.832773 0.793618 1.15036e-19)
(0.761421 0.727701 2.52534e-19)
(0.716475 0.665007 0)
(0.666021 0.584657 0)
(0.542617 0.447602 -3.0865e-20)
(0.347241 0.26718 0)
(0.160499 0.110099 8.48191e-20)
(0.0227225 0.00812296 9.99021e-20)
(-0.0594307 -0.0450758 0)
(-0.0792177 -0.0563661 0)
(-0.0273807 -0.019821 8.30164e-20)
(0.234178 0.194928 1.54689e-20)
(1.06414 0.87816 1.21644e-20)
(1.24814 1.04337 1.38839e-20)
(1.2624 1.07426 -1.4219e-20)
(1.21239 1.05323 -2.27884e-21)
(1.14263 1.01698 9.14161e-21)
(1.06802 0.977165 -2.12216e-20)
(0.987911 0.932971 -2.84368e-22)
(0.902495 0.881624 -1.06259e-21)
(0.813556 0.819182 -5.86542e-22)
(0.738434 0.750309 1.30947e-19)
(0.689534 0.682084 0)
(0.636236 0.592097 9.75456e-20)
(0.515625 0.44343 6.67541e-20)
(0.33341 0.255765 1.57404e-19)
(0.163909 0.0964939 4.59319e-20)
(0.0414325 -0.00518797 -5.38542e-20)
(-0.034314 -0.0579777 -3.18422e-20)
(-0.0636489 -0.0635477 0)
(-0.0288861 -0.0229261 8.97359e-20)
(0.234088 0.202058 -3.53045e-20)
(1.05534 0.904896 0)
(1.2357 1.07402 1.67045e-20)
(1.24877 1.10499 -1.22947e-20)
(1.1987 1.08307 4.61588e-21)
(1.12899 1.04584 -9.14271e-21)
(1.05422 1.00507 4.1457e-20)
(0.973454 0.959969 -4.20089e-21)
(0.886643 0.907656 0)
(0.795068 0.843939 -1.29008e-19)
(0.715815 0.77272 -2.87989e-19)
(0.66199 0.699253 1.17652e-20)
(0.604531 0.598877 1.36808e-19)
(0.485525 0.436678 0)
(0.315795 0.238572 1.07225e-19)
(0.164899 0.0704166 0)
(0.0632034 -0.0432877 0)
(0.0144156 -0.10518 -3.44455e-20)
(0.0115658 -0.0853653 0)
(0.0148092 -0.00732144 2.42081e-20)
(0.233755 0.208655 -3.96613e-20)
(1.04691 0.930453 0)
(1.2236 1.10276 2.82201e-20)
(1.23553 1.13382 0)
(1.18552 1.11114 -3.29944e-21)
(1.11587 1.0731 0)
(1.04102 1.03155 2.01105e-21)
(0.959624 0.985775 7.47689e-21)
(0.871446 0.932807 8.28384e-21)
(0.777159 0.868255 -1.42814e-19)
(0.693392 0.795395 8.7289e-21)
(0.633537 0.717299 9.55241e-20)
(0.570263 0.605989 1.34566e-19)
(0.450773 0.428224 1.79015e-20)
(0.29097 0.217036 8.49981e-20)
(0.154305 0.0335321 0)
(0.068397 -0.105855 1.13854e-19)
(0.0399037 -0.129441 -6.67829e-20)
(0.0196223 0.0261822 7.8447e-20)
(-0.0390771 0.464021 -9.31745e-20)
(0.233466 0.215094 3.29992e-20)
(1.03861 0.954646 4.92723e-20)
(1.21177 1.12991 0)
(1.22256 1.16119 9.84973e-22)
(1.17264 1.13801 1.07693e-20)
(1.10299 1.09944 9.06615e-21)
(1.02807 1.05738 1.44883e-20)
(0.945998 1.01131 0)
(0.856357 0.95814 5.51024e-20)
(0.759127 0.893386 -7.48645e-21)
(0.670194 0.819741 0)
(0.602697 0.737746 0)
(0.530857 0.61438 1.22206e-19)
(0.40799 0.418228 -5.55937e-20)
(0.255084 0.192923 -8.74668e-20)
(0.126523 -0.0102119 0)
(0.0455464 -0.0675601 5.8192e-20)
(0.00118953 0.444665 -6.73253e-20)
(0.0267682 1.95172 -3.77946e-20)
(0.0525334 2.83687 -4.64808e-20)
(0.232919 0.221046 -2.50026e-20)
(1.03052 0.977663 -6.36384e-20)
(1.20024 1.15549 1.69574e-20)
(1.20986 1.18696 1.29437e-20)
(1.16015 1.16351 0)
(1.09045 1.12458 4.2032e-21)
(1.01563 1.08226 1.9761e-20)
(0.932791 1.03616 -3.67401e-21)
(0.841691 0.983166 8.32116e-21)
(0.741419 0.918787 1.3782e-19)
(0.646938 0.845263 1.49582e-19)
(0.570563 0.760845 1.10259e-19)
(0.486997 0.625102 1.24852e-19)
(0.357451 0.406832 -1.33336e-19)
(0.212156 0.171729 -1.34225e-19)
(0.0854297 0.0520558 0)
(0.0319612 0.928093 0)
(0.0765271 2.60262 3.25535e-20)
(0.079862 3.22247 0)
(0.0822467 3.39267 8.49149e-20)
(0.235238 0.226702 0)
(1.02302 0.999919 0)
(1.18869 1.17935 0)
(1.19726 1.21101 4.07009e-21)
(1.14769 1.18737 1.0043e-20)
(1.07807 1.14839 5.8326e-22)
(1.00361 1.1061 1.27614e-20)
(0.919941 1.06018 -3.61556e-21)
(0.827391 1.00771 6.99478e-20)
(0.724045 0.944298 -1.43496e-21)
(0.623768 0.871797 2.99284e-19)
(0.53758 0.78685 -1.28618e-20)
(0.438707 0.639802 1.54555e-20)
(0.299999 0.393187 1.95727e-20)
(0.156181 0.185316 -9.40239e-22)
(0.074636 1.04481 3.38058e-22)
(0.109494 2.78691 -1.76778e-19)
(0.113826 3.30378 -6.63229e-20)
(0.107213 3.42259 3.49835e-20)
(0.0989573 3.44174 -3.96963e-20)
(0.157867 0.171856 1.54124e-20)
(1.01103 1.02412 0)
(1.17689 1.20173 -3.53486e-20)
(1.18518 1.23378 -3.61162e-20)
(1.13573 1.21009 2.6085e-20)
(1.06654 1.17133 3.99145e-22)
(0.991794 1.1289 -1.32771e-20)
(0.907482 1.08344 4.06738e-20)
(0.813547 1.03185 -5.79751e-20)
(0.707261 0.97004 0)
(0.601067 0.899451 1.49356e-19)
(0.504384 0.815715 -9.17637e-20)
(0.39097 0.670042 0)
(0.234531 0.384323 1.94349e-20)
(0.108396 0.690929 4.50957e-20)
(0.123999 2.60228 -5.02324e-20)
(0.168843 3.32596 5.67455e-20)
(0.154554 3.42863 3.05538e-20)
(0.129543 3.44757 3.43681e-20)
(0.112066 3.45663 5.5076e-20)
(0.269438 0.263583 -2.95839e-20)
(0.99184 1.03304 0)
(1.15725 1.22706 3.84987e-20)
(1.16962 1.26493 4.05296e-20)
(1.11736 1.24356 -3.06467e-20)
(1.0476 1.2051 -5.12295e-21)
(0.971609 1.16417 1.231e-20)
(0.886542 1.11986 3.22708e-21)
(0.790761 1.07035 5.60944e-20)
(0.680571 1.01242 1.22796e-19)
(0.566468 0.94764 8.48442e-21)
(0.45264 0.86243 8.34011e-20)
(0.299976 0.688208 1.50744e-20)
(0.191482 0.831477 -1.89687e-20)
(0.19801 2.49284 -4.18238e-20)
(0.248878 3.32529 4.11224e-20)
(0.231673 3.44869 -4.50602e-20)
(0.198932 3.46869 -2.5752e-20)
(0.167042 3.49388 -2.36909e-20)
(0.122868 3.49049 -3.39332e-21)
(0.259195 0.26219 0)
(0.98807 1.05539 1.15398e-20)
(1.14775 1.25043 -8.02748e-21)
(1.15785 1.28843 -4.94947e-21)
(1.1056 1.26681 -2.17218e-20)
(1.03579 1.22849 6.02758e-21)
(0.959388 1.18772 -6.38049e-21)
(0.873885 1.1442 2.92067e-21)
(0.777119 1.09612 -5.89787e-20)
(0.664678 1.0411 -2.53485e-21)
(0.545791 0.981056 -2.75393e-19)
(0.422197 0.897366 1.20289e-20)
(0.274174 0.761784 -1.44153e-20)
(0.228037 1.52112 -1.75884e-20)
(0.292863 3.14583 3.6342e-21)
(0.30357 3.44773 1.53001e-23)
(0.263699 3.49475 6.8918e-20)
(0.230946 3.5206 3.52639e-20)
(0.186002 3.54172 -1.21881e-20)
(0.137136 3.53972 -1.7582e-20)
(0.244918 0.259837 2.97939e-20)
(0.983335 1.08023 7.83598e-20)
(1.13785 1.27588 -2.28396e-20)
(1.14568 1.31356 -1.85044e-20)
(1.09334 1.29153 0)
(1.02358 1.25322 1.48093e-20)
(0.947045 1.21267 -6.22281e-21)
(0.861366 1.16992 2.58715e-21)
(0.763939 1.12346 -6.62682e-21)
(0.649836 1.07177 -1.13586e-19)
(0.52723 1.01723 -1.28517e-19)
(0.395043 0.933841 -9.91988e-20)
(0.273776 0.921527 -1.09513e-19)
(0.29628 2.33552 1.12139e-19)
(0.375905 3.37633 9.4708e-20)
(0.344518 3.50039 0)
(0.29824 3.54042 0)
(0.26236 3.57558 -9.92286e-21)
(0.220657 3.62045 0)
(0.151861 3.60783 -1.59515e-20)
(0.234848 0.261423 -4.46151e-20)
(0.976644 1.10585 -6.66318e-20)
(1.12653 1.30255 0)
(1.13222 1.33951 1.19503e-21)
(1.0798 1.31692 -2.47699e-20)
(1.01025 1.27853 2.6294e-20)
(0.933917 1.23826 -2.28175e-21)
(0.848296 1.19624 1.50593e-21)
(0.750477 1.15142 -4.25958e-20)
(0.6352 1.10319 5.71245e-21)
(0.509941 1.05434 0)
(0.368551 0.973518 0)
(0.295398 1.23758 -1.00404e-19)
(0.379142 2.9867 4.08087e-20)