/*--------------------------------*- C++ -*----------------------------------*\
  =========                 |
  \\      /  F ield         | OpenFOAM: The Open Source CFD Toolbox
   \\    /   O peration     | Website:  https://openfoam.org
    \\  /    A nd           | Version:  6
     \\/     M anipulation  |
\*---------------------------------------------------------------------------*/
FoamFile
{
    version     2.0;
    format      ascii;
    class       volVectorField;
    location    "37.5";
    object      U;
}
// * * * * * * * * * * * * * * * * * * * * * * * * * * * * * * * * * * * * * //

dimensions      [0 1 -1 0 0 0 0];

internalField   nonuniform List<vector> 
8800
(
(0.987188 -0.0766667 0)
(1.0019 -0.0551916 0)
(0.999749 -0.0285502 0)
(1.00004 -0.0151418 0)
(1.00006 -0.00853622 0)
(1.00004 -0.00503383 0)
(1.00002 -0.00300228 0)
(0.999993 -0.00172328 0)
(0.999979 -0.00082883 0)
(1.00005 -0.000115492 0)
(0.999986 0.000608168 0)
(0.999997 0.00136774 0)
(1.00001 0.00239644 0)
(1.00002 0.0039803 0)
(1.00003 0.00661812 0)
(1.00001 0.0113597 0)
(0.999913 0.020808 0)
(0.999155 0.038667 0)
(1.00709 0.0724551 0)
(0.771213 0.0366604 0)
(0.363045 -0.0160199 0)
(1.04329 -0.0768297 0)
(1.0846 -0.0704718 0)
(1.04521 -0.053575 0)
(1.02326 -0.0389314 0)
(1.01194 -0.0262582 0)
(1.00635 -0.0169171 0)
(1.00355 -0.0104154 0)
(1.00212 -0.00577093 0)
(1.00144 -0.00212208 0)
(1.00131 0.00118245 0)
(1.00169 0.00455496 0)
(1.00267 0.00849741 0)
(1.00464 0.0138588 0)
(1.00858 0.0215927 0)
(1.01655 0.0325752 0)
(1.03247 0.0464952 0)
(1.06265 0.0616213 0)
(1.09188 0.07607 0)
(0.838717 0.0565495 0)
(0.216775 -0.00243239 0)
(1.07585 -0.0501709 0)
(1.09987 -0.0483632 0)
(1.06461 -0.0405222 0)
(1.03994 -0.0336658 0)
(1.02379 -0.0261575 0)
(1.01402 -0.0186207 0)
(1.00849 -0.0118458 0)
(1.00555 -0.0060001 0)
(1.00432 -0.00061099 0)
(1.00468 0.00460832 0)
(1.00661 0.00999122 0)
(1.01059 0.0161102 0)
(1.01792 0.0231748 0)
(1.03055 0.0306731 0)
(1.05063 0.0377275 0)
(1.08036 0.0444323 0)
(1.1063 0.0512706 0)
(0.94266 0.0415805 0)
(0.216254 0.00245694 0)
(0.175057 -0.000819569 0)
(1.01755 -0.0355353 0)
(1.10514 -0.0414631 0)
(1.07818 -0.0361685 0)
(1.05331 -0.0302547 0)
(1.03602 -0.0247125 0)
(1.02387 -0.0190444 0)
(1.01579 -0.0130004 0)
(1.01096 -0.00684396 0)
(1.00879 -0.000540803 0)
(1.0094 0.00569656 0)
(1.01269 0.0116944 0)
(1.01889 0.0175681 0)
(1.02878 0.0231984 0)
(1.04325 0.0285438 0)
(1.06378 0.0340521 0)
(1.09361 0.0400538 0)
(1.09354 0.0418496 0)
(0.827468 0.0228635 0)
(0.174178 0.000847162 0)
(0.153803 -0.000613669 0)
(0.955896 -0.0255209 0)
(1.10332 -0.0352347 0)
(1.08754 -0.0327743 0)
(1.0615 -0.0281233 0)
(1.04387 -0.0231282 0)
(1.03145 -0.0179666 0)
(1.02265 -0.0125293 0)
(1.0169 -0.00665772 0)
(1.01412 -0.000232816 0)
(1.01485 0.00621446 0)
(1.01884 0.0120949 0)
(1.02585 0.0173954 0)
(1.03617 0.0223475 0)
(1.05078 0.0271694 0)
(1.07202 0.0317634 0)
(1.10022 0.0357491 0)
(1.06839 0.0338714 0)
(0.740135 0.0142465 0)
(0.152485 0.000644815 0)
(0.13937 -0.000470198 0)
(0.898797 -0.0191476 0)
(1.09553 -0.030215 0)
(1.09554 -0.0293693 0)
(1.06895 -0.0256788 0)
(1.05048 -0.0215973 0)
(1.0376 -0.0169018 0)
(1.02855 -0.011677 0)
(1.0225 -0.00600731 0)
(1.01945 0.000240867 0)
(1.02016 0.00650303 0)
(1.02431 0.0121267 0)
(1.03145 0.0171445 0)
(1.042 0.0217023 0)
(1.05721 0.0257428 0)
(1.07944 0.0292563 0)
(1.10254 0.031917 0)
(1.03655 0.0278986 0)
(0.673937 0.0101223 0)
(0.137516 0.000505954 0)
(0.128766 -0.000365071 0)
(0.84899 -0.0147935 0)
(1.08298 -0.0260989 0)
(1.10108 -0.0264312 0)
(1.07567 -0.0231797 0)
(1.0567 -0.0196042 0)
(1.04339 -0.0154809 0)
(1.03399 -0.0106954 0)
(1.02772 -0.0052725 0)
(1.02452 0.000814322 0)
(1.02511 0.00689454 0)
(1.02923 0.0122426 0)
(1.03652 0.0167931 0)
(1.04737 0.020698 0)
(1.06296 0.0240759 0)
(1.08561 0.0271069 0)
(1.10181 0.0289448 0)
(1.00204 0.0233092 0)
(0.622594 0.00773295 0)
(0.12626 0.000407054 0)
(0.120654 -0.000284695 0)
(0.806607 -0.0116371 0)
(1.06751 -0.0225098 0)
(1.1045 -0.0238464 0)
(1.08183 -0.0210276 0)
(1.06237 -0.0176948 0)
(1.04876 -0.0138854 0)
(1.03911 -0.00941642 0)
(1.03257 -0.00427816 0)
(1.02913 0.00151329 0)
(1.0296 0.00725245 0)
(1.03374 0.012231 0)
(1.0411 0.0163611 0)
(1.05207 0.0198158 0)
(1.06797 0.0228006 0)
(1.09104 0.0255383 0)
(1.09829 0.0264891 0)
(0.967341 0.0196754 0)
(0.581577 0.00616646 0)
(0.117358 0.000334768 0)
(0.114355 -0.000221391 0)
(0.770902 -0.00926619 0)
(1.05047 -0.0193199 0)
(1.10663 -0.0214223 0)
(1.08746 -0.0190294 0)
(1.06768 -0.0158827 0)
(1.05386 -0.0122462 0)
(1.04399 -0.00802056 0)
(1.03721 -0.00318221 0)
(1.03353 0.00233816 0)
(1.03383 0.0077904 0)
(1.0379 0.0123592 0)
(1.04528 0.0160609 0)
(1.05629 0.0191401 0)
(1.07235 0.0217824 0)
(1.09509 0.0241829 0)
(1.092 0.0243561 0)
(0.93382 0.0168139 0)
(0.547928 0.00507511 0)
(0.110097 0.00028131 0)
(0.109436 -0.000170567 0)
(0.740966 -0.00741796 0)
(1.03304 -0.0164884 0)
(1.10786 -0.019098 0)
(1.09282 -0.0169635 0)
(1.07272 -0.0139112 0)
(1.05862 -0.0104604 0)
(1.04859 -0.00645779 0)
(1.04165 -0.0018426 0)
(1.03775 0.00335965 0)
(1.03781 0.00842468 0)
(1.04168 0.0126076 0)
(1.04892 0.0159015 0)
(1.05997 0.0185766 0)
(1.07631 0.0209028 0)
(1.09804 0.0230186 0)
(1.08351 0.0224865 0)
(0.902149 0.0145674 0)
(0.519672 0.00428777 0)
(0.104014 0.000241999 0)
(0.105614 -0.000128471 0)
(0.716 -0.00591324 0)
(1.01597 -0.0139208 0)
(1.10819 -0.0169021 0)
(1.09806 -0.0151523 0)
(1.07766 -0.012168 0)
(1.06326 -0.00870771 0)
(1.05305 -0.00475134 0)
(1.04588 -0.000332384 0)
(1.0417 0.00456845 0)
(1.04148 0.00924651 0)
(1.04514 0.0130052 0)
(1.05223 0.0159603 0)
(1.06325 0.0183936 0)
(1.07981 0.0204908 0)
(1.0997 0.0221575 0)
(1.07315 0.0209296 0)
(0.872468 0.0128264 0)
(0.495405 0.00372217 0)
(0.09877 0.000215736 0)
(0.10271 -9.15437e-05 0)
(0.695429 -0.00463819 0)
(0.99997 -0.011544 0)
(1.10771 -0.0146234 0)
(1.10294 -0.0130759 0)
(1.08254 -0.010127 0)
(1.06788 -0.00674918 0)
(1.05738 -0.00290857 0)
(1.04994 0.00135743 0)
(1.04545 0.00604556 0)
(1.04485 0.0104132 0)
(1.04819 0.0137989 0)
(1.05514 0.0163559 0)
(1.06617 0.0183768 0)
(1.08285 0.0201248 0)
(1.10038 0.0214443 0)
(1.06131 0.0195777 0)
(0.844804 0.0114783 0)
(0.474146 0.0033092 0)
(0.0941334 0.000197263 0)
(0.100604 -5.77828e-05 0)
(0.678794 -0.00350213 0)
(0.985522 -0.00930327 0)
(1.10684 -0.0123329 0)
(1.10765 -0.0109129 0)
(1.08732 -0.0079293 0)
(1.07227 -0.00456491 0)
(1.06148 -0.000785548 0)
(1.0537 0.00337785 0)
(1.04878 0.00782195 0)
(1.04775 0.0118162 0)
(1.05076 0.0148085 0)
(1.05748 0.0169529 0)
(1.0685 0.0185652 0)
(1.08533 0.020015 0)
(1.10011 0.0209705 0)
(1.04833 0.018505 0)
(0.818937 0.0104518 0)
(0.455127 0.00301806 0)
(0.0899101 0.000186601 0)
(0.0992442 -2.33109e-05 0)
(0.665874 -0.00242412 0)
(0.972981 -0.00707749 0)
(1.10568 -0.00987362 0)
(1.11215 -0.00861295 0)
(1.09217 -0.00564459 0)
(1.07676 -0.0021723 0)
(1.06562 0.0016662 0)
(1.05743 0.00577003 0)
(1.05195 0.00999544 0)
(1.0504 0.0136431 0)
(1.05298 0.016203 0)
(1.05944 0.0179631 0)
(1.07043 0.0192911 0)
(1.08732 0.0203734 0)
(1.09882 0.0208057 0)
(1.0343 0.0176692 0)
(0.794614 0.0096881 0)
(0.437768 0.00282175 0)
(0.0859544 0.000182507 0)
(0.0986228 1.28605e-05 0)
(0.656601 -0.00135178 0)
(0.962793 -0.00480179 0)
(1.10461 -0.00713285 0)
(1.11649 -0.00587251 0)
(1.09712 -0.00287046 0)
(1.08139 0.000679763 0)
(1.06982 0.00454771 0)
(1.06107 0.00857927 0)
(1.05498 0.0126427 0)
(1.05275 0.0159641 0)
(1.05485 0.0180529 0)
(1.06099 0.0192772 0)
(1.07184 0.0200959 0)
(1.08858 0.0208024 0)
(1.09629 0.0207344 0)
(1.01943 0.0169832 0)
(0.771648 0.00912301 0)
(0.421643 0.0026955 0)
(0.0821565 0.000182143 0)
(0.0987627 4.13723e-05 0)
(0.650941 -0.000242361 0)
(0.955263 -0.00246303 0)
(1.10413 -0.00418837 0)
(1.12101 -0.00276279 0)
(1.1022 0.000399073 0)
(1.086 0.00402294 0)
(1.07394 0.0079366 0)
(1.06467 0.0120026 0)
(1.05787 0.0158931 0)
(1.05479 0.0188119 0)
(1.05611 0.0204132 0)
(1.06181 0.0211256 0)
(1.07257 0.0213516 0)
(1.0892 0.0216057 0)
(1.09252 0.0210375 0)
(1.00391 0.0166591 0)
(0.749703 0.00880921 0)
(0.406315 0.00265734 0)
(0.0784046 0.000188577 0)
(0.0997267 0.000103872 0)
(0.649091 0.000959116 0)
(0.950673 6.73241e-05 0)
(1.10443 -0.000920531 0)
(1.12578 0.00062116 0)
(1.10745 0.00389886 0)
(1.09076 0.00779544 0)
(1.07812 0.0119618 0)
(1.06799 0.0161047 0)
(1.06013 0.0198775 0)
(1.0561 0.02243 0)
(1.05673 0.023473 0)
(1.06191 0.0235876 0)
(1.07249 0.0233176 0)
(1.08868 0.0229707 0)
(1.08746 0.0216934 0)
(0.987455 0.0165588 0)
(0.728422 0.0086902 0)
(0.391379 0.00268794 0)
(0.0745787 0.000199545 0)
(0.101664 0.000145627 0)
(0.650971 0.0021177 0)
(0.949452 0.00283328 0)
(1.10588 0.00282086 0)
(1.13079 0.00466066 0)
(1.11314 0.00816192 0)
(1.09605 0.0123853 0)
(1.08274 0.0168318 0)
(1.07178 0.0211142 0)
(1.0628 0.0247662 0)
(1.05748 0.0268896 0)
(1.05701 0.0273345 0)
(1.06147 0.0267816 0)
(1.07167 0.025878 0)
(1.08701 0.0248211 0)
(1.08071 0.0226703 0)
(0.970155 0.0167905 0)
(0.707472 0.0088085 0)
(0.376468 0.00279173 0)
(0.0705952 0.000214264 0)
(0.104717 0.000212446 0)
(0.657555 0.00357958 0)
(0.951953 0.00579539 0)
(1.10911 0.00702229 0)
(1.13647 0.00943778 0)
(1.11926 0.0133679 0)
(1.10157 0.0179435 0)
(1.08735 0.0226919 0)
(1.07518 0.02718 0)
(1.06471 0.0307701 0)
(1.05789 0.032453 0)
(1.05627 0.0321985 0)
(1.05997 0.0308295 0)
(1.06975 0.0291496 0)
(1.08396 0.0273596 0)
(1.07227 0.0242624 0)
(0.951763 0.017553 0)
(0.686256 0.00924005 0)
(0.361098 0.00299207 0)
(0.0663621 0.000233171 0)
(0.109166 0.00029708 0)
(0.66895 0.00524677 0)
(0.958408 0.00913008 0)
(1.11455 0.011721 0)
(1.14318 0.0148023 0)
(1.12609 0.019333 0)
(1.10769 0.0245012 0)
(1.09247 0.0297884 0)
(1.07891 0.0346342 0)
(1.06661 0.0381366 0)
(1.05795 0.0392612 0)
(1.05487 0.0382349 0)
(1.05745 0.036031 0)
(1.06665 0.033511 0)
(1.07944 0.0309152 0)
(1.06195 0.0267097 0)
(0.931786 0.0189868 0)
(0.664052 0.0100964 0)
(0.344605 0.00331781 0)
(0.0617643 0.000257068 0)
(0.115276 0.000406284 0)
(0.685653 0.00721951 0)
(0.969623 0.0130464 0)
(1.12259 0.0171532 0)
(1.15121 0.0210365 0)
(1.134 0.0263731 0)
(1.11474 0.0323539 0)
(1.09819 0.0383545 0)
(1.08282 0.0436445 0)
(1.06831 0.0471967 0)
(1.0574 0.0477871 0)
(1.05256 0.0458413 0)
(1.05388 0.0426598 0)
(1.0623 0.0392686 0)
(1.07334 0.0357417 0)
(1.04936 0.0302157 0)
(0.909813 0.0213313 0)
(0.639838 0.0114991 0)
(0.32611 0.00379737 0)
(0.0566386 0.000289354 0)
(0.12346 0.000555239 0)
(0.708289 0.00974231 0)
(0.986182 0.0177976 0)
(1.13386 0.023683 0)
(1.161 0.0287656 0)
(1.14326 0.0353067 0)
(1.1228 0.0423456 0)
(1.10444 0.0491923 0)
(1.08674 0.0549063 0)
(1.06947 0.0582777 0)
(1.05593 0.0580321 0)
(1.04907 0.0549525 0)
(1.04902 0.0506497 0)
(1.05649 0.0463063 0)
(1.06546 0.041798 0)
(1.03431 0.0349102 0)
(0.885176 0.0246736 0)
(0.612335 0.0133999 0)
(0.304732 0.00440267 0)
(0.050806 0.000327985 0)
(0.13442 0.000772625 0)
(0.737885 0.0132314 0)
(1.00894 0.023875 0)
(1.14943 0.0318237 0)
(1.17355 0.0385473 0)
(1.1545 0.0468233 0)
(1.13225 0.0551457 0)
(1.11146 0.0628926 0)
(1.09082 0.0689152 0)
(1.07024 0.0717844 0)
(1.05363 0.0703384 0)
(1.04446 0.0658497 0)
(1.04286 0.0602753 0)
(1.04943 0.0548042 0)
(1.05567 0.0494291 0)
(1.01647 0.0410218 0)
(0.856825 0.0289916 0)
(0.580293 0.0157095 0)
(0.279788 0.00509047 0)
(0.0441442 0.000370007 0)
(0.149336 0.00111438 0)
(0.776166 0.0183253 0)
(1.03932 0.0320826 0)
(1.17012 0.0425136 0)
(1.18976 0.0514918 0)
(1.16801 0.0616247 0)
(1.14303 0.0713836 0)
(1.11892 0.079984 0)
(1.09451 0.0861068 0)
(1.06995 0.0881645 0)
(1.04991 0.0851849 0)
(1.03832 0.0790055 0)
(1.03517 0.0719263 0)
(1.04076 0.0652023 0)
(1.04387 0.0585905 0)
(0.995003 0.048482 0)
(0.823503 0.03408 0)
(0.542686 0.0182621 0)
(0.250938 0.00578602 0)
(0.0366432 0.000407154 0)
(0.170331 0.00171618 0)
(0.826342 0.0261826 0)
(1.08002 0.044101 0)
(1.19666 0.0576204 0)
(1.20981 0.0692296 0)
(1.18391 0.081187 0)
(1.15506 0.0922544 0)
(1.12665 0.101333 0)
(1.09772 0.107081 0)
(1.06866 0.107877 0)
(1.04484 0.103024 0)
(1.03053 0.0949351 0)
(1.02569 0.086132 0)
(1.03012 0.0778109 0)
(1.0292 0.0695339 0)
(0.968811 0.0571061 0)
(0.784113 0.0398153 0)
(0.498884 0.0209321 0)
(0.218303 0.00642514 0)
(0.0284568 0.000431235 0)
(0.200766 0.00305903 0)
(0.894332 0.0396005 0)
(1.13376 0.0638278 0)
(1.22913 0.0807973 0)
(1.23335 0.0951888 0)
(1.20157 0.108429 0)
(1.16758 0.119871 0)
(1.13391 0.128409 0)
(1.09982 0.132665 0)
(1.06584 0.131105 0)
(1.03802 0.123416 0)
(1.02097 0.112835 0)
(1.01416 0.10208 0)
(1.01686 0.0921202 0)
(1.01079 0.0818377 0)
(0.937085 0.0668928 0)
(0.737493 0.0460085 0)
(0.449127 0.0236285 0)
(0.182933 0.00699151 0)
(0.0200213 0.000434737 0)
(0.24254 0.00924079 1.29398e-20)
(0.984121 0.0664006 1.10255e-20)
(1.19842 0.0977799 -3.80498e-21)
(1.26533 0.116027 0)
(1.2578 0.133442 -9.22856e-35)
(1.21889 0.14623 1.33748e-21)
(1.1791 0.15633 -2.34751e-21)
(1.13956 0.162836 0)
(1.09976 0.164342 4.68379e-35)
(1.06037 0.159296 -2.77906e-21)
(1.02812 0.147915 0)
(1.00804 0.134248 -3.24316e-21)
(0.99909 0.121236 -9.5304e-21)
(0.99931 0.109908 -4.49214e-21)
(0.987899 0.0987158 -1.34811e-21)
(0.896117 0.0809113 -8.00195e-22)
(0.678472 0.0543841 0)
(0.390794 0.027427 5.61956e-22)
(0.145656 0.00842787 6.65886e-22)
(0.0120885 0.00063838 1.21323e-20)
(0.270857 0.0245115 1.03112e-20)
(1.05812 0.108709 1.05555e-22)
(1.2512 0.146277 1.05419e-21)
(1.29896 0.164901 0)
(1.27958 0.182262 -4.81476e-21)
(1.23392 0.193319 -5.38578e-21)
(1.18814 0.201326 -2.40056e-21)
(1.14241 0.205438 -8.34991e-21)
(1.09639 0.204161 0)
(1.05074 0.195862 1.18626e-20)
(1.01292 0.181351 1.16618e-20)
(0.988687 0.165261 3.44791e-21)
(0.977168 0.150512 1.24604e-20)
(0.974409 0.137694 1.7404e-20)
(0.952111 0.123174 0)
(0.839333 0.0996723 2.45476e-20)
(0.609301 0.0660126 3.53193e-20)
(0.332307 0.0336928 3.93464e-20)
(0.113123 0.0106738 -4.51755e-20)
(0.00572715 0.000567116 -8.58239e-22)
(0.271521 0.0407309 0)
(1.10445 0.163606 1.98191e-21)
(1.28737 0.205633 0)
(1.32553 0.224678 -6.82619e-21)
(1.29709 0.238879 0)
(1.24548 0.246399 -1.08159e-20)
(1.19379 0.250846 4.96111e-21)
(1.14219 0.251498 -1.70341e-20)
(1.09035 0.246937 -3.15991e-22)
(1.03897 0.235607 6.18991e-21)
(0.996177 0.218816 2.56311e-20)
(0.967953 0.201313 -6.09652e-23)
(0.953105 0.185383 -9.05793e-21)
(0.945148 0.169966 -1.64381e-20)
(0.912823 0.150203 1.94713e-20)
(0.794706 0.120846 -3.45479e-20)
(0.572133 0.0813512 -4.5855e-21)
(0.312104 0.0428777 0)
(0.108496 0.0144592 8.17489e-25)
(0.00554646 0.000740299 0)
(0.264614 0.0545104 3.11089e-20)
(1.12863 0.222039 -1.42975e-20)
(1.31009 0.26976 -9.94863e-21)
(1.3433 0.289211 3.35179e-21)
(1.30871 0.299526 -5.55843e-21)
(1.25236 0.302697 2.28121e-20)
(1.19574 0.302918 1.04303e-20)
(1.13918 0.299656 0)
(1.08237 0.291615 -3.15477e-20)
(1.02609 0.277208 0)
(0.978825 0.257933 -1.35267e-20)
(0.946646 0.238417 -1.65141e-20)
(0.927167 0.22019 -9.87786e-21)
(0.912437 0.201547 -1.19491e-20)
(0.874211 0.177944 0)
(0.761908 0.145065 0)
(0.555781 0.101204 -3.00214e-20)
(0.314016 0.0567303 5.94671e-21)
(0.116788 0.0208871 -3.48919e-21)
(0.00830451 0.00153955 -4.13182e-21)
(0.256832 0.0667381 -1.59324e-20)
(1.13835 0.280258 0)
(1.32249 0.334869 2.2074e-20)
(1.35312 0.354899 9.84903e-21)
(1.31432 0.361285 1.25685e-20)
(1.25437 0.35999 0)
(1.194 0.355965 1.04142e-20)
(1.13353 0.34885 1.90313e-20)
(1.07263 0.337239 1.63007e-20)
(1.01205 0.31941 2.91496e-20)
(0.960663 0.296776 0)
(0.924437 0.274194 -3.56578e-20)
(0.900125 0.253067 -2.13673e-20)
(0.879461 0.231685 -1.26048e-20)
(0.839048 0.206506 7.71324e-20)
(0.736346 0.172133 9.21948e-21)
(0.547886 0.124463 4.35578e-20)
(0.322296 0.0734295 -2.06695e-19)
(0.129324 0.0295954 1.22655e-19)
(0.0123801 0.00297309 -1.49723e-19)
(0.249602 0.0777507 -1.19662e-20)
(1.13894 0.336457 2.98655e-21)
(1.32718 0.399113 -2.80388e-21)
(1.35636 0.41999 -1.13392e-20)
(1.31468 0.422586 -1.14144e-20)
(1.2521 0.416986 3.53554e-22)
(1.18896 0.409006 -1.1258e-20)
(1.12538 0.398255 1.98277e-20)
(1.06105 0.383051 -3.50745e-20)
(0.996631 0.361374 0)
(0.941337 0.334784 -1.62353e-20)
(0.901288 0.308659 -3.24637e-22)
(0.872711 0.284724 -2.3331e-20)
(0.847955 0.261587 0)
(0.807619 0.235673 -1.66926e-20)
(0.714486 0.200063 -3.98056e-20)
(0.542055 0.148971 1.06964e-19)
(0.331007 0.0916104 -1.0552e-19)
(0.141349 0.0395301 1.5023e-19)
(0.0162791 0.0047376 -1.58104e-19)
(0.243718 0.0880066 -1.03705e-22)
(1.13398 0.39008 -2.29489e-21)
(1.32614 0.461509 -9.8798e-21)
(1.35426 0.483442 5.15916e-21)
(1.3107 0.4826 -5.85572e-21)
(1.24638 0.473058 0)
(1.18118 0.461492 -1.08134e-20)
(1.11506 0.447295 -2.0849e-20)
(1.0477 0.42849 -1.83245e-20)
(0.979722 0.402716 0)
(0.920801 0.371951 -1.69169e-20)
(0.877369 0.34241 -2.07329e-20)
(0.845496 0.316052 2.52648e-20)
(0.81814 0.291734 -1.52761e-20)
(0.778524 0.265291 -7.26657e-20)
(0.69336 0.228634 4.34716e-20)
(0.535062 0.174007 1.30779e-20)
(0.336397 0.11009 0)
(0.150137 0.0496906 -1.44972e-19)
(0.0194063 0.00661397 -5.38151e-21)
(0.23927 0.0978328 -1.04044e-21)
(1.1259 0.441015 1.88308e-21)
(1.32097 0.521805 5.0053e-21)
(1.34796 0.54465 1.74988e-20)
(1.30326 0.540824 -2.27219e-20)
(1.23794 0.527839 2.3569e-20)
(1.17119 0.513041 2.32311e-20)
(1.1029 0.495572 -3.33324e-20)
(1.03277 0.473181 1.10521e-20)
(0.961492 0.443254 -7.16881e-20)
(0.899229 0.408349 -1.89968e-20)
(0.852943 0.375595 0)
(0.818698 0.347042 2.73389e-20)
(0.789879 0.32164 3.26312e-20)
(0.75129 0.294526 3.90213e-20)
(0.671687 0.256336 -4.70594e-20)
(0.525045 0.198334 -1.39789e-20)
(0.336437 0.127646 1.64918e-20)
(0.154012 0.0589195 0)
(0.0211953 0.00825888 -1.16456e-20)
(0.236109 0.107354 6.35954e-21)
(1.11638 0.489357 -5.68113e-21)
(1.31295 0.579789 -4.98147e-21)
(1.33854 0.603284 1.13803e-20)
(1.29317 0.596943 -1.09055e-20)
(1.22738 0.581009 -8.19871e-22)
(1.15946 0.563329 -2.52352e-20)
(1.08927 0.542772 -1.20225e-20)
(1.01657 0.516862 -3.17675e-20)
(0.94218 0.482865 5.20916e-23)
(0.876857 0.44396 -5.96293e-20)
(0.828159 0.408063 4.96418e-20)
(0.79219 0.377377 -2.98964e-20)
(0.762505 0.350575 3.57894e-20)
(0.72482 0.322265 0)
(0.649666 0.281983 -2.54149e-20)
(0.512009 0.220389 -1.26409e-22)
(0.331445 0.142943 -7.15664e-20)
(0.153158 0.0662349 -1.05727e-20)
(0.0216763 0.00943844 0)
(0.234111 0.116778 0)
(1.10641 0.535372 -5.30945e-21)
(1.30291 0.634898 -8.31111e-21)
(1.32688 0.659139 -1.11879e-20)
(1.28113 0.650737 -1.2952e-20)
(1.21522 0.63233 0)
(1.14639 0.612071 -1.19064e-20)
(1.07451 0.588623 -2.34596e-22)
(0.99943 0.559365 6.80141e-20)
(0.922094 0.521463 -9.89634e-21)
(0.853913 0.478696 -4.29791e-20)
(0.803115 0.439683 2.59061e-20)
(0.765839 0.406708 -4.17392e-22)
(0.735604 0.378252 3.80531e-20)
(0.698587 0.348423 2.33854e-20)
(0.626679 0.305613 -5.48203e-20)
(0.495905 0.239822 6.52098e-20)
(0.321473 0.155266 1.93471e-20)
(0.148333 0.0711614 8.01527e-20)
(0.0209385 0.0100302 -2.16926e-19)
(0.23315 0.126238 -2.14e-22)
(1.09664 0.579222 -1.16882e-21)
(1.29168 0.68725 1.93713e-21)
(1.31377 0.712173 1.02658e-20)
(1.26775 0.702055 0)
(1.20191 0.681583 -1.17505e-20)
(1.13235 0.659037 3.94654e-20)
(1.05895 0.632927 2.6504e-20)
(0.981661 0.600553 0)
(0.901513 0.558987 -1.41698e-19)
(0.830604 0.512483 1.15953e-19)
(0.777887 0.470305 0)
(0.73951 0.434845 3.47728e-20)
(0.708908 0.40444 -4.11925e-22)
(0.672372 0.372654 -7.46092e-20)
(0.602721 0.32675 2.92727e-20)
(0.476634 0.255906 0)
(0.307263 0.164177 1.04192e-19)
(0.139824 0.0736544 0)
(0.0191771 0.0100324 -1.02399e-19)
(0.232995 0.135744 9.30233e-22)
(1.08738 0.621054 4.04494e-22)
(1.27976 0.736848 2.41902e-21)
(1.29979 0.762368 0)
(1.25354 0.750834 -1.22156e-20)
(1.18786 0.728635 0)
(1.11768 0.70406 -3.96782e-20)
(1.0429 0.675539 -1.26462e-20)
(0.963548 0.640335 1.21295e-20)
(0.880699 0.595396 -7.00515e-20)
(0.807085 0.545296 1.20226e-20)
(0.752463 0.499871 0)
(0.713085 0.461696 -7.42443e-20)
(0.682162 0.429006 4.17889e-22)
(0.645904 0.394791 0)
(0.577606 0.345201 4.22297e-22)
(0.454532 0.268452 9.46341e-20)
(0.289262 0.169368 -8.99235e-20)
(0.128472 0.0738291 2.66279e-20)
(0.0167733 0.0095042 0)
(0.233257 0.145137 0)
(1.07878 0.660841 1.73627e-21)
(1.26758 0.783789 -6.63441e-22)
(1.28541 0.809775 -4.81668e-22)
(1.2389 0.797049 -5.08819e-21)
(1.1734 0.7734 -2.63456e-20)
(1.10269 0.747042 1.46541e-20)
(1.02665 0.716372 -1.46125e-20)
(0.945354 0.678649 5.37111e-20)
(0.859857 0.630666 -1.11852e-19)
(0.783477 0.577144 -7.16945e-22)
(0.726868 0.528399 -3.27666e-20)
(0.686445 0.487243 1.2024e-19)
(0.655205 0.451957 -4.89473e-22)
(0.618996 0.414849 -5.77156e-20)
(0.551208 0.36089 -1.03264e-19)
(0.429914 0.277485 0)
(0.268167 0.170984 0)
(0.114967 0.0716373 2.87149e-20)
(0.0139594 0.00851078 -1.70354e-20)
(0.234153 0.15453 2.79869e-21)
(1.07087 0.698698 -5.32504e-21)
(1.25539 0.828173 6.2045e-22)
(1.27096 0.854467 0)
(1.22415 0.840716 -3.2505e-22)
(1.15882 0.815844 -2.53484e-20)
(1.08762 0.787933 3.62185e-20)
(1.01044 0.755383 5.84098e-20)
(0.927308 0.71547 7.00426e-20)
(0.83919 0.664797 -9.15095e-20)
(0.759929 0.608079 -9.93776e-20)
(0.70113 0.555966 8.76139e-20)
(0.65954 0.511573 0)
(0.627911 0.47331 -2.62021e-20)
(0.591547 0.432797 -6.24086e-20)
(0.523576 0.373702 -7.41107e-20)
(0.402946 0.282775 -8.81899e-20)
(0.244673 0.169042 2.61543e-20)
(0.099888 0.0671431 -1.54435e-20)
(0.0108206 0.0070845 6.09421e-23)
(0.235207 0.163763 0)
(1.06362 0.734939 0)
(1.24334 0.870093 5.39908e-22)
(1.25665 0.896537 0)
(1.20953 0.881896 1.42754e-20)
(1.14432 0.855985 1.82285e-20)
(1.07271 0.826726 0)
(0.994476 0.792561 7.09077e-21)
(0.909609 0.750786 1.17176e-19)
(0.818894 0.697808 -2.10181e-19)
(0.7366 0.63818 0)
(0.67534 0.582712 -5.63037e-20)
(0.632319 0.534808 -5.92095e-22)
(0.600144 0.493107 -4.78784e-22)
(0.563456 0.448567 6.66728e-20)
(0.494732 0.38348 -7.38225e-23)
(0.373751 0.284222 -1.89781e-19)
(0.219116 0.163494 5.62619e-20)
(0.0842577 0.0608651 1.6689e-20)
(0.00769765 0.00540863 0)
(0.236239 0.172867 -1.51356e-20)
(1.05675 0.769554 -5.79119e-21)
(1.2315 0.909615 -3.87e-21)
(1.24267 0.936092 -7.61609e-21)
(1.1952 0.920647 2.20302e-20)
(1.13009 0.893858 0)
(1.0581 0.863446 2.24755e-20)
(0.978926 0.827917 -1.56319e-20)
(0.892424 0.784607 7.88029e-22)
(0.799149 0.729726 1.53998e-20)
(0.713654 0.667529 1.28616e-19)
(0.649586 0.60881 -1.97828e-20)
(0.604721 0.557137 -7.39999e-20)
(0.571726 0.511418 -3.0482e-20)
(0.534548 0.462 3.62487e-20)
(0.464749 0.389888 -3.81209e-23)
(0.343237 0.281666 5.11634e-20)
(0.192866 0.154796 -1.21021e-19)
(0.0687979 0.0532826 1.43623e-19)
(0.00475171 0.00361934 2.12051e-20)
(0.237026 0.181717 6.30911e-21)
(1.05026 0.802611 -3.66112e-21)
(1.21998 0.946858 1.27579e-21)
(1.22911 0.973257 -1.51277e-21)
(1.18129 0.957072 -3.30497e-21)
(1.11625 0.929522 -3.26918e-20)
(1.04395 0.898131 6.90359e-21)
(0.963923 0.861469 -6.54284e-20)
(0.875901 0.81693 -1.29598e-19)
(0.780104 0.76055 -1.25463e-19)
(0.691256 0.696195 0)
(0.623964 0.634429 -8.64744e-20)
(0.576736 0.57883 1.06448e-19)
(0.54242 0.528387 0)
(0.504515 0.472856 -7.75967e-20)
(0.43363 0.392396 4.64574e-20)
(0.31204 0.274815 -5.49701e-20)
(0.167118 0.143299 -6.51607e-20)
(0.0544177 0.0449636 -1.15714e-19)
(0.0021591 0.00186325 -9.13588e-20)
(0.238113 0.1904 -7.70649e-21)
(1.04396 0.834068 3.93268e-21)
(1.2088 0.98188 7.99804e-21)
(1.21602 1.00812 -1.33527e-22)
(1.16788 0.991258 7.76552e-21)
(1.1029 0.963057 -1.87466e-20)
(1.03034 0.93083 2.27186e-20)
(0.949566 0.893258 -6.76579e-20)
(0.860132 0.847777 -7.6819e-20)
(0.761891 0.790292 1.31445e-19)
(0.66955 0.72423 2.82356e-19)
(0.598629 0.659726 0)
(0.548407 0.600199 0)
(0.511942 0.544317 -3.50941e-20)
(0.472777 0.480924 0)
(0.40111 0.390077 1.0002e-19)
(0.281077 0.262828 1.18364e-19)
(0.143715 0.129074 0)
(0.0423976 0.0364985 0)
(8.07805e-05 0.000294565 9.82225e-20)
(0.2388 0.19858 9.39952e-21)
(1.03787 0.863907 7.28203e-21)
(1.19799 1.01479 6.12563e-21)
(1.20345 1.04081 -2.41556e-21)
(1.15502 1.02331 6.71749e-21)
(1.0901 0.994537 2.08203e-20)
(1.01735 0.961605 -3.1414e-20)
(0.935927 0.923315 3.48865e-23)
(0.845203 0.87715 -1.02612e-21)
(0.744614 0.818942 -1.12383e-21)
(0.64871 0.751671 1.45427e-19)
(0.573756 0.684825 0)
(0.519852 0.621551 1.07438e-19)
(0.480063 0.559701 7.48308e-20)
(0.438445 0.486343 1.81081e-19)
(0.366188 0.381735 5.38242e-20)
(0.251095 0.243447 -6.38544e-20)
(0.126313 0.110153 -3.75938e-20)
(0.0372431 0.0271615 0)
(-0.000479286 -0.000868252 1.05583e-19)
(0.239782 0.206745 -2.25722e-20)
(1.03195 0.89229 0)
(1.18753 1.04563 8.60533e-21)
(1.19139 1.0714 -3.06196e-21)
(1.14274 1.05331 -4.71426e-21)
(1.07788 1.02405 -2.49041e-20)
(1.00502 0.990515 6.24763e-20)
(0.923048 0.951678 -5.47441e-21)
(0.831162 0.905061 0)
(0.728358 0.84647 -1.45457e-19)
(0.628894 0.778529 -3.16303e-19)
(0.549542 0.709828 1.27723e-20)
(0.491291 0.643134 1.47763e-19)
(0.446728 0.57516 0)
(0.400485 0.489966 1.22058e-19)
(0.32645 0.366866 0)
(0.219963 0.212454 0)
(0.118805 0.0747488 -4.07491e-20)
(0.0616078 0.00336053 0)
(0.0252449 0.00597754 2.83125e-20)
(0.240283 0.214292 -2.63239e-20)
(1.02616 0.91937 0)
(1.1774 1.07461 1.54903e-20)
(1.17979 1.10013 0)
(1.131 1.08153 1.42714e-21)
(1.0662 1.05188 0)
(0.993285 1.01788 3.34247e-21)
(0.910844 0.978693 9.35949e-21)
(0.817898 0.931885 9.63669e-21)
(0.712975 0.873266 -1.59979e-19)
(0.60996 0.805257 9.5585e-21)
(0.525795 0.735332 1.02458e-19)
(0.462427 0.665581 1.44118e-19)
(0.411316 0.591556 1.93603e-20)
(0.357319 0.49376 9.55261e-20)
(0.277502 0.347299 0)
(0.177214 0.169018 1.349e-19)
(0.0930686 0.0194649 -7.94426e-20)
(0.0329396 0.0570381 9.27334e-20)
(-0.0381963 0.448546 -1.1011e-19)
(0.240692 0.221641 2.24585e-20)
(1.02029 0.945064 3.23954e-20)
(1.16752 1.10204 0)
(1.1685 1.12742 1.1071e-21)
(1.1196 1.10855 -1.52865e-21)
(1.05478 1.07873 3.62172e-20)
(0.981852 1.0445 2.24916e-20)
(0.898921 1.00532 0)
(0.8049 0.958739 6.46444e-20)
(0.6978 0.900649 -8.43459e-21)
(0.591014 0.833346 0)
(0.501356 0.763115 0)
(0.431724 0.690669 1.28641e-19)
(0.372038 0.610189 -5.96057e-20)
(0.306325 0.500527 -9.6357e-20)
(0.215345 0.328126 0)
(0.0997231 0.161683 6.85086e-20)
(0.00930194 0.462485 -8.00118e-20)
(0.0337827 1.91096 -4.52357e-20)
(0.061049 2.81616 -5.51462e-20)
(0.24069 0.228382 -1.7703e-20)
(1.01441 0.969544 -4.31008e-20)
(1.15788 1.12791 1.00826e-20)
(1.15752 1.15315 6.06018e-21)
(1.10861 1.13416 0)
(1.04372 1.10431 2.27156e-20)
(0.97092 1.07008 3.18537e-20)
(0.887465 1.03113 -4.60068e-21)
(0.792438 0.985099 9.59398e-21)
(0.683217 0.928002 1.52676e-19)
(0.572674 0.862105 1.59908e-19)
(0.47722 0.792848 1.14316e-19)
(0.400219 0.718149 1.28978e-19)
(0.330808 0.629725 -1.39186e-19)
(0.254515 0.512976 -1.44921e-19)
(0.13856 0.36249 0)
(0.0473251 0.866949 0)
(0.0946878 2.57034 3.82509e-20)
(0.0969458 3.20399 0)
(0.0975914 3.38636 1.00733e-19)
(0.243448 0.234606 0)
(1.00872 0.993146 0)
(1.14821 1.15207 0)
(1.14661 1.17713 2.25975e-21)
(1.09773 1.15814 -2.78053e-22)
(1.0328 1.1285 1.35569e-20)
(0.960413 1.09451 2.08805e-20)
(0.876408 1.05599 -4.53267e-21)
(0.780451 1.01079 8.15039e-20)
(0.669218 0.955163 -2.0291e-21)
(0.555036 0.891321 3.16053e-19)
(0.453824 0.82457 -1.31061e-20)
(0.368135 0.74851 1.56465e-20)
(0.290047 0.647926 2.00758e-20)
(0.19419 0.534152 -1.98811e-22)
(0.104476 1.00767 3.29618e-22)
(0.135075 2.74149 -1.97843e-19)
(0.140847 3.29734 -7.57056e-20)
(0.129411 3.42448 4.09021e-20)
(0.116914 3.44485 -4.64259e-20)
(0.165506 0.179362 1.14373e-20)
(0.998986 1.01857 0)
(1.13844 1.17481 -2.31113e-20)
(1.13611 1.19963 -1.94289e-20)
(1.08741 1.18097 6.20207e-21)
(1.02267 1.15173 -1.29969e-20)
(0.950116 1.11782 -2.21354e-20)
(0.865788 1.07993 5.28225e-20)
(0.769058 1.03585 -6.74516e-20)
(0.656067 0.982172 0)
(0.538425 0.921001 1.56003e-19)
(0.431752 0.858084 -9.32798e-20)
(0.336029 0.784506 0)
(0.244343 0.670671 1.92598e-20)
(0.148361 0.839714 4.64154e-20)
(0.149624 2.53365 -5.36965e-20)
(0.200955 3.33022 6.17002e-20)
(0.181249 3.43882 3.38341e-20)
(0.149648 3.45739 3.92049e-20)
(0.129024 3.46579 6.35639e-20)
(0.279114 0.273997 -2.17194e-20)
(0.983104 1.03001 0)
(1.12108 1.20095 2.66191e-20)
(1.1218 1.23296 2.4632e-20)
(1.07123 1.21508 -1.14477e-20)
(1.00598 1.18643 7.56872e-21)
(0.932379 1.15394 2.3848e-20)
(0.847356 1.11726 4.07861e-21)
(0.749202 1.07527 6.50479e-20)
(0.633355 1.02539 1.33363e-19)
(0.510534 0.969986 8.86805e-21)
(0.395456 0.914891 8.28439e-20)
(0.280575 0.847301 1.47193e-20)
(0.212478 1.01455 -1.84703e-20)
(0.21926 2.40079 -4.26069e-20)
(0.270638 3.33826 4.35244e-20)
(0.254308 3.46916 -4.85473e-20)
(0.21902 3.48678 -2.83779e-20)
(0.184097 3.51031 -2.69501e-20)
(0.138196 3.50371 -3.9324e-21)
(0.269602 0.273084 0)
(0.980878 1.05335 8.67863e-21)
(1.11316 1.22473 -5.78816e-21)
(1.11176 1.25649 -3.26501e-21)
(1.06088 1.23853 -9.84786e-21)
(0.995717 1.21018 -6.0015e-21)
(0.921797 1.17796 -1.35104e-20)
(0.836583 1.14211 3.70995e-21)
(0.737955 1.10156 -6.82049e-20)
(0.620919 1.05445 -2.97912e-21)
(0.495601 1.00356 -2.82719e-19)
(0.376312 0.95375 1.17669e-20)
(0.27008 0.922834 -1.39704e-20)
(0.248142 1.56948 -1.71284e-20)
(0.308584 3.13755 3.61193e-21)
(0.324254 3.47341 4.28264e-22)
(0.282192 3.52095 7.53588e-20)
(0.247323 3.54147 3.95326e-20)
(0.200872 3.56054 -1.51182e-20)
(0.149975 3.55559 -2.08574e-20)
(0.255477 0.271162 2.31594e-20)
(0.977769 1.07932 5.99153e-20)
(1.10487 1.2506 -1.67509e-20)
(1.10133 1.28158 -1.23586e-20)
(1.05019 1.26347 0)
(0.985128 1.23522 -1.07111e-21)
(0.911127 1.20329 -1.62702e-20)
(0.825979 1.16821 3.31878e-21)
(0.727188 1.12918 -7.5281e-21)
(0.609488 1.08504 -1.21942e-19)
(0.482518 1.03913 -1.31076e-19)
(0.360389 0.995799 -9.7553e-20)
(0.274475 1.06431 -1.05033e-19)
(0.31082 2.29136 1.08272e-19)
(0.387472 3.39884 9.50398e-20)
(0.362833 3.53279 0)
(0.313317 3.5673 0)
(0.276254 3.59967 -1.20159e-20)
(0.230137 3.64503 0)
(0.160076 3.6267 -2.13195e-20)
(0.245421 0.273131 -3.5645e-20)
(0.972685 1.1062 -5.20993e-20)
(1.09525 1.27777 0)
(1.08973 1.30761 1.34063e-21)
(1.03837 1.28911 -1.43068e-20)
(0.973519 1.26083 3.99751e-21)
(0.899746 1.22919 -8.46582e-21)
(0.814885 1.1948 2.23996e-21)
(0.71618 1.15721 -4.95809e-20)
(0.598229 1.11602 6.22834e-21)
(0.470394 1.07524 0)
(0.350011 1.04259 0)
(0.302186 1.33945 -9.62189e-20)
(0.386649 2.95683 3.97319e-20)
(0.452671 3.50299 5.26428e-20)
(0.400903 3.56847 0)
(0.358237 3.62245 -1.05513e-20)
(0.315724 3.66782 2.9595e-21)