/*--------------------------------*- C++ -*----------------------------------*\
  =========                 |
  \\      /  F ield         | OpenFOAM: The Open Source CFD Toolbox
   \\    /   O peration     | Website:  https://openfoam.org
    \\  /    A nd           | Version:  6
     \\/     M anipulation  |
\*---------------------------------------------------------------------------*/
FoamFile
{
    version     2.0;
    format      ascii;
    class       volVectorField;
    location    "14";
    object      U;
}
// * * * * * * * * * * * * * * * * * * * * * * * * * * * * * * * * * * * * * //

dimensions      [0 1 -1 0 0 0 0];

internalField   nonuniform List<vector> 
918
(
(0.985121 -0.000573789 0)
(0.0052944 2.96628 0)
(-0.00473537 1.64076 0)
(0.979732 0.00177848 0)
(0.000108837 1.6031 5.2427e-24)
(-0.00703426 2.94853 -1.95772e-18)
(0.84992 1.15276 7.46793e-19)
(0.494177 0.219521 -8.1825e-21)
(0.999943 -0.000409928 0)
(0.0344321 1.17983 0)
(-0.00982834 1.33714 0)
(0.820017 -0.00694066 0)
(0.0101185 2.9314 0)
(0.00286143 2.79394 0)
(-0.000294366 3.20319 1.15652e-18)
(-0.00306878 1.51331 -1.59947e-20)
(0.591929 0.0893475 5.04027e-19)
(0.202189 1.17015 6.17326e-19)
(0.965555 0.00830263 0)
(0.000273953 1.48473 0)
(0.187133 0.275141 -4.3357e-19)
(1.00129 -0.00466335 0)
(0.999765 -0.0091225 0)
(0.974983 -0.00678779 0)
(0.744865 -0.0119458 0)
(0.0240723 2.63771 0)
(-0.0128644 2.91167 6.71832e-19)
(-0.0118297 1.66799 0)
(-0.0125039 1.76491 0)
(-0.010958 1.6646 0)
(0.000916154 1.80783 0)
(0.000628537 1.61683 -4.15004e-24)
(-0.00134276 1.5239 0)
(-0.022239 2.98756 -6.87666e-23)
(-0.0165648 3.00552 1.52233e-18)
(0.00229536 3.00068 0)
(0.874266 -0.00527412 0)
(0.340433 0.879064 -6.17145e-20)
(0.855017 1.16402 -1.07952e-18)
(0.978003 1.04676 9.98032e-19)
(0.713561 1.25165 -1.73772e-19)
(0.752723 1.19168 9.93368e-19)
(0.528115 0.301817 7.98361e-21)
(0.525969 0.196143 0)
(1.20374 0.546847 0)
(0.484752 0.316282 3.73809e-20)
(0.448543 0.223895 -3.8791e-20)
(0.921939 -0.00355339 0)
(1.00038 -0.000224252 0)
(0.999919 0.000280262 0)
(1.00402 -0.0072339 0)
(1.00062 -0.00113594 0)
(1 -8.57629e-05 0)
(0.0598533 1.57646 -5.29071e-19)
(-0.00323648 1.27987 0)
(0.0448647 1.10471 0)
(-0.00957205 1.36879 0)
(0.02822 1.24083 0)
(-0.00369946 1.57145 0)
(-0.0108534 1.50568 0)
(0.00347554 1.33471 0)
(-0.020146 1.53213 0)
(-0.0117943 1.36331 0)
(0.896638 0.00154976 0)
(0.901484 0.00949074 0)
(0.836542 0.000853734 0)
(0.892181 0.0141832 0)
(0.805055 -0.00776694 0)
(0.0140253 3.00014 7.17615e-19)
(0.0113149 3.00559 0)
(0.00651731 3.00402 0)
(0.0119705 2.9969 8.01823e-24)
(0.00834551 2.95869 -1.06655e-18)
(0.0123406 2.98296 0)
(0.00893173 2.90459 0)
(0.0219546 2.93096 1.46535e-24)
(0.00371278 2.82338 0)
(0.0271311 2.91796 0)
(-0.00249342 2.74361 0)
(0.310658 3.60391 0)
(-0.123206 3.68752 0)
(0.15327 3.29313 -1.07643e-18)
(0.00636306 3.02286 0)
(-0.010046 1.78877 0)
(-0.00372127 1.64126 1.57788e-20)
(-0.00527824 1.52896 -2.40978e-20)
(0.654744 0.156119 -1.73587e-19)
(0.612986 0.0557824 -1.65777e-19)
(0.6167 0.188112 -5.19058e-19)
(0.56898 0.125352 -3.48481e-19)
(0.298998 1.06487 0)
(0.246443 1.24062 -6.25706e-19)
(0.341438 1.2363 1.03546e-18)
(0.988864 0.010344 0)
(0.946155 0.0104329 0)
(1.00026 0.000843332 0)
(1.00241 0.00927325 0)
(1.00303 0.00976038 -8.5157e-19)
(0.991958 0.00904422 6.44272e-19)
(-0.00903465 1.59646 0)
(-0.00574308 1.47309 0)
(-0.0142616 1.6751 0)
(-0.0116286 1.62501 0)
(0.00124295 1.50161 0)
(0.253552 0.291221 1.33886e-19)
(0.295219 0.267596 0)
(0.993243 -0.00733114 0)
(0.952971 -0.00625564 0)
(0.868767 0.0191227 0)
(0.834035 0.0388695 0)
(0.781383 -0.000484586 0)
(1.02982 -0.00336524 0)
(0.788783 0.045306 0)
(0.665679 -0.026759 6.42909e-19)
(-0.038766 2.86415 3.86291e-19)
(0.0355805 2.91268 0)
(0.0452102 2.88923 0)
(0.00262493 2.69846 0)
(-0.00882552 2.98583 6.27591e-19)
(-0.0146261 2.8949 0)
(-0.0111411 2.99168 -1.96423e-18)
(-0.0118917 2.92965 6.73136e-19)
(-0.00919782 1.81306 0)
(-0.00795524 1.80824 0)
(-0.00231991 1.6427 -2.91717e-22)
(-0.00158715 1.61748 0)
(-0.00532464 1.51534 0)
(0.935255 -0.00249596 0)
(0.868737 -0.00285708 0)
(0.869074 0.0113518 0)
(0.942089 -0.00135627 0)
(0.89029 -0.00456222 0)
(0.465358 1.08342 6.53454e-20)
(0.518309 1.16701 0)
(0.297974 0.794974 -1.58016e-22)
(0.241095 0.664818 0)
(0.968542 1.05896 -2.9518e-19)
(1.0867 0.875977 6.00675e-19)
(0.42158 1.29377 0)
(0.612017 1.29157 0)
(0.547191 1.2418 0)
(0.140332 0.0522285 -8.73018e-20)
(0.561645 0.270418 0)
(0.544171 0.168292 1.01418e-19)
(1.0464 0.921082 0)
(1.12096 0.764043 0)
(1.15291 0.697413 -5.26822e-19)
(1.18097 0.607134 0)
(1.23787 0.393648 4.99573e-20)
(0.954536 -0.00397403 0)
(0.960683 -0.00389885 0)
(0.904905 -0.00374343 0)
(0.984339 -0.00692111 0)
(0.975635 -0.00517965 0)
(0.937811 -0.00406611 0)
(1.00028 0.0029126 0)
(1.00091 0.00116628 0)
(1.00008 0.000682344 0)
(0.0496902 1.74016 2.88972e-19)
(0.103627 1.53585 0)
(0.0238611 1.76275 4.57113e-19)
(0.0329858 1.60185 -3.84829e-19)
(0.0964113 1.18381 -5.12854e-19)
(0.000842139 1.19931 0)
(0.138838 1.05023 0)
(0.00485966 1.43616 0)
(0.0156493 1.28221 0)
(-0.0103267 1.6933 -1.12499e-21)
(-0.0100115 1.59489 0)
(-0.00262974 1.68392 -5.27221e-20)
(-0.000311373 1.57177 1.01923e-19)
(-0.00821838 1.47417 0)
(-0.000186422 1.50084 0)
(0.008207 1.3053 0)
(-0.0213016 1.55546 0)
(-0.0136209 1.39775 0)
(0.96903 0.016597 0)
(0.917177 0.00819787 0)
(0.952351 0.00987089 0)
(0.887854 0.00291133 0)
(0.837579 -0.00690402 0)
(0.920066 9.84443e-05 0)
(0.911793 0.00806187 0)
(0.836088 -0.00335337 0)
(0.0108155 3.06736 -6.29379e-21)
(0.0142258 3.05949 0)
(0.0126241 2.97026 0)
(0.00784207 2.8763 0)
(0.897292 4.00137 0)
(1.19176 3.38975 1.027e-18)
(0.0834611 3.10373 0)
(-0.0161715 2.92465 0)
(-0.011523 1.79343 0)
(-0.012403 1.78899 0)
(-0.0112596 1.79061 0)
(-0.0027452 1.79717 3.8532e-21)
(-0.0105879 1.79168 0)
(-0.00389434 1.78933 0)
(-0.00499444 1.54988 9.07987e-22)
(-0.00564202 1.67012 3.20549e-20)
(-0.00635765 1.65683 2.46349e-20)
(-0.00497749 1.53483 0)
(0.685406 0.121559 2.53137e-19)
(0.641754 0.0312144 -2.46997e-19)
(0.186281 1.40067 0)
(0.35472 0.843421 -2.45513e-19)
(0.133787 1.48139 -7.69285e-19)
(0.248631 1.25687 7.6726e-19)
(0.911092 0.0123713 0)
(0.969432 0.0126975 0)
(0.975826 0.0121624 0)
(0.928355 0.00944425 0)
(-0.0198906 1.57474 0)
(-0.0161469 1.58607 0)
(-0.0121423 1.43437 0)
(0.453158 0.334092 3.40625e-19)
(0.375582 0.307679 -4.15482e-19)
(0.394393 0.24779 0)
(1.14619 0.087044 -8.43701e-21)
(1.13453 0.0404652 0)
(1.06216 0.0349636 0)
(0.977427 0.00373534 0)
(0.688885 0.0769615 0)
(0.719113 0.0335816 -1.04972e-18)
(0.633864 -0.000418837 4.13028e-19)
(0.0116371 2.97901 4.72824e-19)
(-0.0314038 2.86389 4.74824e-20)
(0.00881324 3.05316 -1.35319e-20)
(0.0150291 3.04385 5.17323e-19)
(-0.0119369 3.00002 2.24218e-20)
(-0.0121713 2.95234 -9.1185e-23)
(-0.0150496 3.01342 -4.31125e-19)
(0.0136625 3.02717 3.01059e-19)
(0.00734076 3.03421 -4.81976e-19)
(0.947718 0.00896347 0)
(0.941541 0.0042345 0)
(0.872519 0.00243531 0)
(0.960048 0.0134945 0)
(0.946366 0.0164925 0)
(0.889997 0.01036 0)
(0.923448 0.000899446 0)
(0.930383 0.0103385 0)
(0.845517 -0.00149026 0)
(0.650579 1.40433 3.19983e-19)
(0.676159 1.52091 0)
(0.184454 0.358174 1.55808e-20)
(0.15278 0.476073 1.19016e-19)
(0.199688 0.607056 -5.99253e-20)
(0.178061 0.502591 1.106e-19)
(0.31536 0.637354 5.27886e-19)
(0.149011 0.127905 1.8819e-19)
(0.601881 0.219687 3.75221e-19)
(0.582552 0.239649 9.16469e-20)
(0.560998 0.147421 1.8671e-19)
(1.2268 0.452471 3.47635e-19)
(1.24778 0.248228 3.61012e-19)
(0.0118281 1.75956 1.77733e-19)
(0.0186762 1.61685 0)
(1.01624 0.0279706 0)
(0.985583 0.0195718 0)
(0.943233 0.000168431 0)
(0.0119027 3.07433 0)
(0.017355 2.94365 8.57946e-19)
(0.0142306 2.95644 0)
(0.00590809 2.84927 -8.51372e-19)
(0.00893167 3.09097 2.05601e-19)
(0.0119797 3.08203 0)
(0.697842 1.82283 -2.52592e-19)
(1.23481 2.64028 8.39322e-19)
(0.685337 2.00485 -1.66326e-18)
(0.0233253 2.98011 -3.5711e-19)
(0.042531 3.00594 0)
(-0.0369569 2.88229 0)
(2.13124e-05 1.66544 -5.52827e-21)
(-0.00442198 1.67623 -7.03841e-20)
(-0.00168624 1.56401 -6.43275e-21)
(0.250809 1.27877 7.33109e-19)
(0.313043 0.564084 -5.01491e-19)
(0.0625297 1.67155 5.08879e-19)
(0.101361 1.58653 -6.22871e-19)
(0.150058 1.40779 7.68122e-20)
(0.00833656 3.11962 -1.07548e-18)
(0.0146039 3.12089 1.18597e-18)
(-0.00484391 2.9799 5.59529e-19)
(-0.000600761 2.97572 -5.0694e-19)
(-0.0177616 2.87858 -5.69893e-19)
(0.012973 3.09814 -1.50314e-18)
(0.00419895 3.10609 1.52476e-18)
(0.189995 0.530752 0)
(0.104115 0.42561 -2.49466e-19)
(0.159038 0.132748 1.07192e-19)
(0.312032 0.759093 5.58436e-19)
(0.243236 0.17857 -8.53854e-19)
(1.23086 0.169563 -8.0426e-20)
(1.24133 0.307241 0)
(1.22483 0.112543 1.45673e-19)
(-0.0104464 1.72895 -1.41579e-21)
(-0.00222233 1.74333 0)
(0.000625792 1.60531 0)
(0.342448 1.17042 -2.32902e-19)
(0.376152 1.01171 -5.07559e-19)
(0.256118 0.311666 8.39441e-19)
(1.0058 -0.0104455 0)
(1.00728 -0.00811483 1.56252e-19)
(-0.00845051 1.80221 0)
(-0.0140774 1.80998 0)
(1.00269 0.00332579 1.36598e-21)
(1.00328 0.00770991 3.19658e-19)
(-0.00352149 1.80116 -5.08295e-21)
(-0.00239552 1.7996 0)
(0.0483446 3.18088 1.7623e-19)
(0.38443 3.56946 0)
(1.06677 0.687554 7.91722e-20)
(1.01042 0.00936171 -2.30234e-21)
(1.01654 -0.0156263 0)
(1.00172 0.000306031 8.92008e-23)
(-0.175448 1.47308 0)
(-0.0323134 2.10942 0)
(-0.0243896 1.78122 0)
(-0.035444 1.86064 7.01317e-20)
(-0.00802287 1.82854 4.2844e-20)
(1.00341 0.00945045 1.62267e-21)
(1.04683 0.0136304 0)
(1.07948 0.0336275 0)
(-0.012389 1.78926 0)
(-0.00868644 1.81099 0)
(-0.0188874 1.79513 0)
(0.236675 1.19935 -4.38613e-19)
(1.00918 -0.0086886 0)
(1.01162 -0.0132076 0)
(1.00254 0.000189334 1.95766e-19)
(1.00616 -0.00610738 -2.33433e-19)
(1.00102 -0.000823374 0)
(-0.0138473 1.78896 0)
(-0.0111864 1.79483 0)
(-0.0112465 1.79425 0)
(-0.0159172 1.79813 0)
(-0.0124224 1.79468 0)
(-0.0155307 1.79796 0)
(1.01976 -0.000123172 0)
(1.0244 0.0105428 -1.62329e-21)
(0.761484 1.28056 5.49501e-19)
(1.00274 0.000416944 -1.94528e-19)
(1.00409 0.00385752 2.3972e-19)
(1.00127 0.00193365 0)
(1.01059 0.00906124 1.87221e-19)
(1.00744 0.00921546 -2.39113e-19)
(1.00843 0.00977485 0)
(-0.00725478 1.81183 0)
(-0.00515035 1.80728 1.31214e-20)
(-0.00548072 1.80651 -8.91254e-21)
(1.18477 0.265903 -1.71124e-19)
(1.11912 0.0820529 0)
(0.0552955 3.08995 -5.57868e-19)
(0.054285 2.86615 -4.26033e-20)
(0.114697 3.20467 7.03594e-19)
(0.127908 3.21823 -6.75301e-20)
(0.152374 3.26962 0)
(0.0235276 3.13921 1.36132e-19)
(0.0680729 3.16346 5.52374e-19)
(0.0674683 3.1835 -2.58696e-19)
(0.0287455 3.12803 0)
(0.704233 0.339895 0)
(0.635956 0.40041 0)
(1.06801 0.714321 -2.9477e-19)
(1.03197 0.866045 4.45845e-19)
(1.12092 0.594694 0)
(1.15474 0.549727 0)
(1.01419 0.00909434 -3.53343e-19)
(1.01315 0.00699269 4.39166e-19)
(1.01887 -0.0157226 0)
(1.01194 -0.0220085 0)
(1.00824 0.000807313 0)
(1.01068 0.00200008 0)
(1.00379 0.00329048 0)
(1.00922 0.00758484 0)
(1.00709 0.00505575 0)
(1.00411 0.00511993 0)
(-0.154582 1.49794 0)
(-0.137588 1.55312 0)
(-0.169775 1.43264 0)
(-0.117193 1.38918 0)
(-0.0600977 2.1701 0)
(0.0578556 2.16781 -2.99501e-19)
(-0.0278372 2.10216 0)
(-0.0234417 2.03157 1.4457e-19)
(-0.030788 1.93258 -1.33428e-19)
(-0.0240664 1.78287 0)
(-0.0218156 1.78494 0)
(-0.0327041 1.7715 0)
(-0.0268636 1.74498 0)
(-0.0587235 1.8261 -4.22619e-20)
(-0.0189745 1.8377 5.83306e-20)
(-0.0334191 1.85911 7.05504e-20)
(-0.0174175 1.84663 0)
(-0.00832464 1.82939 -9.26207e-20)
(-0.00788735 1.8245 -5.03628e-20)
(-0.0535193 1.82046 3.2601e-20)
(-0.0311541 1.83011 -7.6097e-20)
(-0.0354167 1.84182 -9.18174e-20)
(1.01022 0.0157911 3.45332e-19)
(1.00965 0.00430523 -4.26099e-19)
(1.0066 0.017721 -3.63533e-19)
(0.995216 0.0162223 4.6355e-19)
(1.04104 0.0195747 0)
(1.04193 0.0114324 0)
(1.06318 0.035415 0)
(1.0509 0.0242417 0)
(1.05813 0.0122276 0)
(1.10247 0.0732231 0)
(1.07833 0.047877 0)
(1.09983 0.0392542 0)
(-0.00879549 1.80292 -1.53071e-21)
(-0.0120541 1.79213 0)
(-0.0105867 1.7952 0)
(-0.00924163 1.81456 1.52858e-20)
(-0.010147 1.814 -6.86688e-22)
(-0.0155615 1.78861 1.49326e-20)
(-0.014943 1.79037 -1.52655e-20)
(-0.0165112 1.79422 0)
(-0.0138349 1.79493 0)
(-0.0138377 1.79505 0)
(-0.0188841 1.79511 0)
(-0.0208845 1.79543 0)
(0.407387 1.27593 9.09454e-19)
(0.377173 1.36801 3.26027e-19)
(0.579843 2.44093 -1.75756e-19)
(0.275428 2.38288 4.52495e-19)
(0.443653 2.4073 -1.79954e-19)
(1.01703 -0.0122081 0)
(1.01727 -0.0102128 0)
(1.01736 -0.0146831 0)
(1.00942 -0.000773673 0)
(1.00468 -0.000871842 0)
(1.0074 -0.00430497 0)
(1.01061 -0.00470878 0)
(1.0115 -0.00541714 0)
(1.02287 0.0112779 3.38603e-19)
(1.01398 0.014338 -4.31639e-19)
(1.02614 0.00788327 -3.32132e-19)
(1.02374 0.00762931 4.16479e-19)
(0.743326 1.30467 0)
(0.645729 1.38352 6.54575e-19)
(0.857277 1.20752 3.85979e-19)
(0.869607 1.207 -5.1326e-19)
(1.12451 2.61695 -5.94982e-19)
(0.82728 0.104683 2.533e-19)
(1.12519 0.0973657 0)
(1.16717 0.171759 1.43437e-19)
(1.15179 0.154453 6.20987e-21)
(0.972076 0.134021 0)
(0.105514 3.03367 -1.19922e-19)
(0.101985 2.90544 -6.30981e-19)
(0.051018 2.35246 4.26401e-19)
(0.161694 0.0832026 -1.98372e-19)
(0.351062 3.46515 -4.98992e-19)
(0.200762 3.35201 0)
(0.230198 3.41769 6.50002e-19)
(0.239847 3.09037 -1.26487e-19)
(0.275391 3.21068 0)
(0.00731357 3.12203 2.96844e-20)
(0.0192521 3.13099 -3.61844e-19)
(0.0172186 3.12679 5.32591e-19)
(0.0361256 3.13981 0)
(0.0340992 3.15127 0)
(1.2446 2.58873 0)
(0.508522 0.817342 -1.93805e-19)
(0.948246 1.03622 -2.17835e-19)
(0.954907 1.07051 0)
(0.812896 0.958561 7.734e-20)
(1.01955 0.900721 2.62536e-20)
(0.434263 0.458668 -4.91639e-19)
(0.726716 0.321957 -2.54421e-20)
(0.718567 0.2942 1.95482e-19)
(0.633733 0.424889 1.57593e-20)
(0.569645 0.422303 -6.5457e-19)
(0.70164 0.356072 0)
(0.68543 0.439602 3.3525e-19)
(0.691035 0.439703 0)
(0.679267 0.403561 0)
(0.68224 0.359372 0)
(0.720949 0.621638 8.55692e-20)
(1.1817 0.284494 1.23807e-19)
(1.17451 0.420213 0)
(1.17092 0.399118 0)
(0.774446 0.216213 2.93174e-19)
(0.765071 0.520031 -1.604e-19)
(0.691982 0.495058 2.56025e-19)
(0.887023 0.406568 -2.10268e-19)
(1.01577 0.0109601 2.32922e-19)
(1.01419 0.00730801 -2.40155e-19)
(1.00913 0.0083353 0)
(1.0171 -0.00418969 0)
(1.01733 -0.0150721 -2.07384e-19)
(1.0068 -0.0212167 2.05096e-19)
(1.03331 0.00750668 0)
(1.02779 0.0100143 0)
(1.01404 0.004693 0)
(1.01421 0.00805985 0)
(1.01959 -0.00058803 0)
(1.01632 -0.00249487 0)
(-0.110385 1.60338 0)
(-0.0844127 1.63855 0)
(-0.238606 1.40616 1.82399e-19)
(0.184687 1.26413 2.45329e-19)
(-0.0619878 1.33295 5.03989e-19)
(0.058837 1.2541 -8.27255e-19)
(-0.172249 1.4104 0)
(-0.335354 1.96379 2.5194e-19)
(-0.324362 1.91985 0)
(0.236923 2.45388 2.64768e-19)
(0.0727988 2.52092 2.37474e-19)
(-0.328999 1.92195 -2.21872e-19)
(0.0985086 1.1843 2.62949e-19)
(-0.15422 1.37384 -2.06892e-19)
(0.117169 1.18576 7.36428e-19)
(-0.145803 1.9357 0)
(0.0198438 1.99073 -5.21139e-19)
(-0.110152 1.89504 -2.98674e-20)
(-0.0296283 1.95065 0)
(-0.0988994 1.95238 1.30485e-19)
(-0.0918646 1.91843 0)
(-0.0231786 2.00789 -1.56155e-19)
(-0.0209583 1.98057 0)
(-0.0509798 1.79323 -3.00978e-20)
(-0.067443 1.7996 0)
(-0.0712993 1.76719 0)
(-0.0561554 1.7821 3.38784e-20)
(-0.0410583 1.87401 -3.88348e-21)
(-0.0349457 1.91739 1.57175e-19)
(-0.0346362 1.89808 1.09425e-21)
(-0.0277411 1.81054 2.80803e-20)
(-0.0353267 1.80555 1.82526e-20)
(-0.0249388 1.78623 0)
(-0.0250274 1.78647 0)
(-0.10936 1.8405 7.49688e-20)
(-0.101362 1.76781 4.82078e-20)
(-0.0963911 1.803 -6.97144e-20)
(-0.145829 1.85977 0)
(-0.0133599 1.80689 -4.90559e-20)
(-0.0131409 1.81431 2.28102e-20)
(-0.0138103 1.81332 -7.61134e-21)
(-0.0231624 1.81189 -3.41431e-20)
(-0.015288 1.81734 -1.20381e-20)
(-0.0160699 1.82245 6.15157e-20)
(1.02395 0.00647321 -2.2224e-19)
(1.0181 0.0112614 2.25171e-19)
(1.01893 0.00618704 0)
(0.997963 0.0446577 3.22746e-19)
(0.995105 0.0316114 -3.89814e-19)
(0.968514 0.0279762 4.5692e-19)
(0.989863 0.0852141 -4.22854e-20)
(1.02196 0.00367051 0)
(1.03328 0.00991803 1.85553e-19)
(1.02726 0.00469258 -1.81189e-19)
(1.03623 0.042295 -9.74433e-21)
(1.03987 0.0262821 8.61568e-20)
(1.02377 0.0547653 0)
(1.01858 0.0464299 -3.37049e-20)
(1.01887 0.0215801 0)
(1.01847 0.02124 0)
(1.03352 0.0101433 0)
(1.02832 0.00825652 0)
(1.02694 0.0222151 6.9374e-20)
(1.02852 0.0180045 -1.60742e-19)
(1.02915 0.0287768 -6.80952e-20)
(1.02928 0.0335924 -8.17004e-20)
(1.02022 0.0545573 1.38318e-19)
(1.05414 0.0494644 0)
(1.04555 0.084317 0)
(-0.0136165 1.80711 -2.02616e-20)
(-0.0127867 1.79699 -1.78844e-21)
(-0.0143174 1.79578 0)
(-0.00901392 1.80832 2.15497e-20)
(-0.00923131 1.80387 3.19279e-21)
(-0.00859259 1.80688 -3.5809e-21)
(-0.00965123 1.82249 4.46275e-20)
(-0.0142681 1.81622 -2.66632e-21)
(-0.0145406 1.81616 1.26741e-20)
(-0.01135 1.81843 -2.40488e-20)
(-0.0114138 1.81848 2.85437e-20)
(-0.0169752 1.7892 2.92113e-22)
(-0.0171497 1.79035 2.33378e-20)
(0.45395 1.16054 -5.00675e-19)
(0.44058 1.32362 -7.93262e-19)
(0.646805 1.40851 -6.31356e-19)
(0.524123 1.40855 -3.1406e-19)
(0.515035 1.43734 0)
(0.635673 2.39401 1.16732e-19)
(0.675415 2.40425 2.18876e-19)
(0.310646 2.47871 8.85008e-20)
(0.261197 2.62235 -1.85028e-19)
(0.361949 2.59685 1.98092e-19)
(0.529334 2.45506 0)
(0.485887 2.41104 -3.61685e-19)
(0.0176456 2.28917 7.68893e-19)
(0.177026 2.39548 -5.408e-20)
(0.176006 2.27383 -1.03178e-18)
(0.92568 2.35426 8.26492e-20)
(0.842842 2.3687 0)
(1.01004 -0.00168898 7.67252e-21)
(1.01221 -0.00529818 -6.3535e-21)
(1.01316 -0.00865793 -1.11589e-19)
(1.01422 -0.0105336 1.13555e-19)
(1.01437 -0.00569711 0)
(0.662166 1.28035 0)
(0.643527 1.17942 0)
(0.756885 1.05495 0)
(0.624695 1.12815 0)
(1.16206 2.63833 4.01166e-20)
(1.03485 2.3549 0)
(0.771608 2.23925 -1.67359e-21)
(0.882474 2.4763 0)
(0.932489 2.55422 -1.03781e-20)
(0.92281 2.50093 7.04806e-21)
(0.82083 0.129443 0)
(0.800297 0.15572 7.48723e-20)
(0.89607 0.123397 3.67623e-19)
(0.863491 0.103443 -1.5222e-19)
(0.862762 0.0778803 -4.42604e-19)
(1.01842 0.220246 -1.65957e-19)
(0.940425 0.255645 -1.19118e-20)
(0.899326 0.274427 3.16497e-19)
(0.97353 0.209816 2.32136e-19)
(0.919834 0.164471 -4.53151e-19)
(0.879212 0.18174 6.04172e-20)
(0.911186 0.265748 -1.08926e-19)
(0.884917 0.198216 0)
(0.978786 0.173472 2.13277e-19)
(1.00313 0.169723 0)
(1.00458 0.196163 0)
(1.06405 0.0945512 5.15725e-20)
(1.01302 0.1523 -9.86447e-21)
(1.00502 0.224156 -3.43497e-20)
(1.03428 0.185209 0)
(1.01276 0.0215558 1.70738e-19)
(1.0152 0.0398382 1.97829e-19)
(1.0168 0.0265243 -1.69651e-19)
(1.01032 0.0451482 -1.33186e-19)
(1.00058 0.0483542 -2.28167e-19)
(0.974714 0.1357 0)
(0.986576 0.0825983 0)
(0.968533 0.0468866 -1.66796e-19)
(0.927531 0.0586528 7.13708e-20)
(0.99609 0.0810082 1.88848e-19)
(1.01759 0.0930624 -1.67451e-19)
(1.01559 0.1341 1.61464e-19)
(1.00335 0.12191 0)
(1.02841 0.0888435 0)
(1.01517 0.0741694 -7.49352e-20)
(1.01436 0.0732038 -1.49838e-19)
(0.543757 1.11815 -1.24096e-19)
(0.591434 1.54669 2.2044e-19)
(1.1165 2.78083 1.37571e-19)
(1.18583 3.13998 -8.15313e-20)
(1.22543 2.7504 5.97341e-19)
(1.27692 2.71999 -3.07623e-19)
(1.24239 2.3185 -3.03366e-20)
(1.16893 3.04491 2.5477e-19)
(1.18077 3.00116 -2.9181e-19)
(1.17286 3.28688 -2.55664e-19)
(1.38985 2.99607 3.15627e-19)
(1.40393 2.93134 0)
(0.522668 0.83212 -6.55577e-21)
(0.254205 1.26037 2.63808e-19)
(0.476382 0.545667 3.16334e-19)
(0.336087 0.322752 3.72024e-19)
(0.561507 0.446355 3.65833e-19)
(0.537067 0.513374 -5.64193e-19)
(0.540176 0.519465 4.66359e-19)
(0.516864 0.480278 -1.90856e-19)
(0.490228 0.434453 4.42483e-19)
(0.779604 0.248558 -1.6227e-19)
(0.743165 0.296284 0)
(0.747403 0.252726 1.2096e-20)
(0.683903 0.524997 1.69601e-19)
(0.643626 0.502825 -6.29663e-19)
(0.61439 0.494141 2.39668e-20)
(0.63014 0.475699 0)
(0.659752 0.736923 1.06436e-19)
(0.738169 0.784687 4.17524e-20)
(0.695143 0.834815 -5.62562e-20)
(0.795048 0.7928 -2.29782e-21)
(0.873132 0.836169 2.07077e-20)
(0.873463 0.844679 -2.12683e-20)
(0.794831 0.635434 -1.4864e-19)
(0.875346 0.698599 2.13784e-21)
(0.936832 0.709478 0)
(0.931945 0.6851 1.26396e-20)
(0.967623 0.303001 4.22573e-20)
(1.07676 0.29277 -3.43476e-20)
(1.00044 0.262976 6.72483e-20)
(0.939367 0.333295 -1.07124e-19)
(0.971172 0.42471 0)
(1.05438 0.38769 0)
(0.868801 0.347321 8.56626e-21)
(0.835363 0.274001 0)
(0.83671 0.26004 1.72935e-19)
(0.894643 0.272119 2.26623e-21)
(0.87925 0.417946 5.76743e-19)
(0.811355 0.491021 1.46293e-19)
(0.828183 0.444045 -2.02113e-19)
(0.784129 0.419801 2.15197e-19)
(0.759678 0.41746 1.55826e-19)
(0.761205 0.416797 -1.51566e-19)
(1.02051 -0.00620628 1.80334e-19)
(1.02416 -0.00850091 0)
(1.02043 -0.0109537 1.21848e-19)
(1.01844 -0.0112202 -2.70362e-19)
(1.03415 0.000436823 1.31735e-19)
(1.0305 0.00754449 -2.78544e-19)
(1.02714 0.0107617 0)
(1.02331 0.0128456 -5.66557e-20)
(1.02494 0.00236636 1.45808e-19)
(1.02163 0.0108729 -7.44535e-20)
(1.02388 0.011684 5.36284e-20)
(-0.0460674 1.73138 0)
(-0.0761167 1.75587 0)
(-0.0724391 1.67768 0)
(-0.0509287 1.69353 0)
(-0.222889 1.68975 -1.54177e-19)
(-0.219137 1.56497 4.47368e-20)
(-0.295252 1.91881 1.48782e-20)
(-0.37433 1.68514 -1.31986e-19)
(-0.133648 1.76789 -2.41282e-20)
(-0.146752 1.76317 1.58105e-20)
(-0.18131 1.678 2.24063e-20)
(-0.158222 1.69272 5.45666e-20)
(-0.107064 1.71711 4.56253e-21)
(-0.102382 1.73768 -1.68845e-21)
(-0.132733 2.022 -1.37106e-19)
(-0.14064 2.08544 0)
(-0.26329 2.1134 2.93156e-20)
(-0.298356 1.95568 1.35058e-20)
(-0.2061 2.27768 2.71984e-20)
(-0.108778 2.41449 0)
(-0.0791697 2.44129 -1.87075e-19)
(-0.0197299 2.5 1.33134e-19)
(-0.238886 2.21631 1.68798e-21)
(-0.251162 2.1823 -4.39615e-20)
(-0.17984 2.28777 0)
(-0.0855194 1.83447 -9.86756e-20)
(-0.0702727 1.84208 -1.43629e-19)
(-0.072969 1.83265 0)
(-0.0759684 1.88003 -4.14326e-21)
(-0.0975604 1.87788 5.28883e-20)
(-0.0271985 1.79409 5.34473e-21)
(-0.0241315 1.79423 -8.22507e-20)
(-0.0269332 1.79653 1.72357e-20)
(-0.0304955 1.79569 3.41019e-20)
(-0.0366982 1.79659 0)
(-0.0263079 1.79594 0)
(-0.0266233 1.79159 2.66297e-20)
(-0.0263111 1.79178 -8.17695e-21)
(-0.0275471 1.79358 0)
(-0.0266519 1.78797 2.02219e-20)
(-0.0252886 1.78965 -3.97078e-20)
(1.02939 0.0203394 0)
(1.03304 0.0202997 -1.70394e-20)
(1.03188 0.0178729 -1.27783e-19)
(1.03241 0.0204977 0)
(1.03196 0.0238695 0)
(1.03348 0.0128822 -5.08998e-21)
(1.03324 0.0123633 2.11746e-19)
(1.02922 0.0115223 2.60218e-19)
(1.02799 0.00987428 0)
(1.02304 0.00867084 0)
(1.02632 0.0173248 1.2924e-19)
(1.02154 0.0137539 0)
(1.02272 0.0118867 0)
(-0.0167182 1.807 0)
(-0.0178849 1.79113 1.77371e-21)
(-0.0174396 1.79958 1.14747e-20)
(-0.0258635 1.79259 0)
(-0.0200333 1.79242 1.58584e-20)
(-0.0181785 1.79072 -7.79569e-21)
(-0.0215115 1.79023 0)
(0.651205 1.66436 0)
(0.482047 1.35965 1.22991e-18)
(0.449586 1.73244 0)
(0.630132 1.2467 -1.2576e-18)
(0.562221 1.27765 0)
(0.585907 1.22698 5.51022e-19)
(1.02818 2.685 -2.43884e-21)
(0.950805 2.36632 -1.02055e-19)
(0.854702 2.08542 2.25187e-19)
(0.853294 2.35369 8.40692e-20)
(0.903086 2.49982 0)
(0.927813 2.49387 0)
(0.903808 2.34697 0)
(0.900497 2.32162 -3.21687e-19)
(0.775005 2.52871 7.86014e-20)
(0.881641 2.48519 -6.22003e-21)
(0.880743 2.46344 4.70704e-21)
(0.730603 2.38483 0)
(0.813811 2.36922 0)
(0.774369 2.39619 -1.9721e-19)
(0.847904 2.49603 0)
(0.561782 1.06516 0)
(0.502459 0.902168 3.14313e-20)
(0.508064 0.955735 3.5059e-21)
(0.478494 1.07004 0)
(0.491502 1.00347 -4.80832e-20)
(0.725728 0.859756 2.67801e-20)
(0.757047 0.989969 0)
(0.739846 0.976637 -9.16981e-20)
(0.637945 0.987357 0)
(0.611032 0.922505 0)
(1.13238 2.79528 8.68615e-20)
(1.1064 2.86095 1.45385e-19)
(0.89017 2.4144 -3.22149e-19)
(0.866216 2.39806 4.61405e-20)
(1.09771 2.76076 0)
(1.05291 2.7278 -5.63017e-20)
(1.06252 2.48533 -3.27785e-20)
(0.933347 2.19537 -2.25414e-20)
(0.482119 1.43229 0)
(0.47375 1.1122 1.08852e-19)
(0.53422 1.20213 0)
(0.841519 0.217337 0)
(0.804792 0.170388 0)
(0.777743 0.192607 0)
(0.831905 0.220326 -2.72978e-19)
(0.787246 0.21984 1.70783e-19)
(0.928284 0.0561538 -1.41745e-19)
(0.936815 0.104569 0)
(0.920766 0.109183 6.81906e-20)
(0.886169 0.0726498 2.80704e-19)
(0.886245 0.063319 -1.72568e-19)
(1.0957 3.37437 -9.57955e-19)
(1.16183 3.29815 0)
(1.11846 3.46187 -2.07799e-18)
(0.660882 3.60951 1.75467e-18)
(1.03017 3.10139 4.6212e-19)
(0.505784 0.832312 1.54365e-19)
(0.496223 0.811186 0)
(0.392669 0.559496 -7.16904e-20)
(0.404135 0.683808 3.15342e-19)
(0.495932 0.54662 -1.01299e-19)
(0.494216 0.558702 1.1244e-19)
(0.630385 0.551099 2.27428e-19)
(0.647249 0.57323 0)
(0.578846 0.626113 0)
(0.553871 0.568258 0)
(0.917048 0.583459 -6.27914e-20)
(0.852716 0.524908 -1.39834e-19)
(0.887176 0.574957 3.31166e-20)
(0.915211 0.484503 -9.75054e-20)
(0.992513 0.457063 0)
(1.01045 0.566054 6.55643e-21)
(0.826828 0.368703 -3.35401e-19)
(0.819416 0.355823 -4.05414e-19)
(0.81788 0.365291 2.61342e-19)
(0.798699 0.335605 -3.09922e-19)
(0.826429 0.291403 -2.28984e-19)
(0.802162 0.294643 2.80395e-19)
(1.03669 0.00233828 -1.37189e-19)
(1.03673 0.00451683 2.79703e-19)
(1.02227 0.0014943 1.70694e-19)
(1.02714 0.00475454 -2.05201e-19)
(1.03034 0.0187808 0)
(1.03403 0.0132293 -3.36376e-19)
(-0.146447 1.86776 2.9583e-20)
(-0.169317 1.86125 0)
(-0.225534 1.92897 1.65401e-20)
(-0.258959 1.95091 -3.40851e-21)
(-0.278283 1.90919 -2.70313e-20)
(-0.242845 1.89962 0)
(-0.0190178 1.80813 0)
(-0.0244158 1.79983 -8.71542e-21)
(-0.0233277 1.7953 7.77058e-21)
(-0.0216906 1.79465 1.93423e-21)
(-0.0192076 1.80597 -1.54863e-20)
(-0.0172919 1.80741 1.01219e-20)
(0.558825 1.40809 4.37667e-19)
(0.632345 1.42846 -4.69057e-19)
(0.597767 1.27916 5.28575e-19)
(0.721522 1.36968 -2.85894e-20)
(0.641451 1.28822 0)
(0.612374 1.3173 6.05453e-19)
(0.622489 1.34993 -5.97997e-19)
(0.598965 1.25171 -5.33817e-19)
(0.615488 1.2653 0)
(0.573541 1.26428 0)
(0.815454 2.54036 -1.18529e-19)
(0.735993 2.52434 3.97446e-19)
(0.826488 2.53741 -2.69616e-19)
(0.728423 2.53715 -1.07289e-19)
(0.573648 2.72191 -1.49595e-20)
(0.435194 2.7447 -1.08492e-19)
(0.959902 2.32583 -1.27806e-19)
(0.988527 2.36692 0)
(0.864468 2.08972 -1.4014e-19)
(1.02632 2.7073 0)
(1.0171 2.68257 0)
(0.619635 2.33688 3.75669e-19)
(1.10654 3.07827 4.56045e-19)
(1.0026 2.99288 -5.47484e-19)
(0.346694 0.931502 0)
(0.373351 0.846024 -1.15401e-19)
(0.544348 0.750879 -3.3812e-20)
(0.401146 2.18647 0)
(0.418526 2.76629 -3.2193e-19)
(0.433424 2.51171 0)
(0.652312 0.691789 -2.21514e-19)
(0.70571 0.669777 3.16974e-19)
(0.701704 0.642277 -3.18607e-19)
(0.60246 0.659955 -3.5565e-20)
(0.673593 0.613189 -1.51602e-19)
(0.970894 2.78802 -3.45341e-19)
(1.00983 2.804 3.37863e-19)
(0.590498 2.29232 -2.06291e-19)
(0.602115 1.7732 9.55145e-20)
(0.703062 1.94929 1.51948e-19)
(0.969609 2.46242 -7.55141e-20)
(0.966265 2.44245 -1.91417e-19)
(0.669107 1.9111 -8.36729e-21)
(0.463151 1.40263 -1.08536e-19)
)
;

boundaryField
{
    wall-4
    {
        type            noSlip;
    }
    velocity-inlet-5
    {
        type            fixedValue;
        value           uniform (1 0 0);
    }
    velocity-inlet-6
    {
        type            fixedValue;
        value           uniform (0 3 0);
    }
    pressure-outlet-7
    {
        type            zeroGradient;
    }
    wall-8
    {
        type            noSlip;
    }
    frontAndBackPlanes
    {
        type            empty;
    }
}


// ************************************************************************* //
