/*--------------------------------*- C++ -*----------------------------------*\
  =========                 |
  \\      /  F ield         | OpenFOAM: The Open Source CFD Toolbox
   \\    /   O peration     | Website:  https://openfoam.org
    \\  /    A nd           | Version:  6
     \\/     M anipulation  |
\*---------------------------------------------------------------------------*/
FoamFile
{
    version     2.0;
    format      ascii;
    class       surfaceScalarField;
    location    "65";
    object      phi;
}
// * * * * * * * * * * * * * * * * * * * * * * * * * * * * * * * * * * * * * //

dimensions      [0 3 -1 0 0 0 0];

internalField   nonuniform List<scalar> 
4262
(
0.106791
0.471197
0.0925263
0.707851
0.0647739
0.860055
0.0423364
1.0212
0.0262919
1.21456
0.0161948
1.44832
0.00992327
1.73214
0.00574586
2.07521
0.00251221
2.48848
-0.000430109
2.98523
-0.00331882
2.98518
-0.00647669
2.4884
-0.0106258
2.07519
-0.0167956
1.73203
-0.026727
1.44815
-0.0425763
1.21437
-0.0648429
1.02103
-0.0924892
0.859949
-0.106834
0.707931
0.471154
0.114782
0.356415
0.139954
0.682678
0.125309
0.874701
0.101774
1.04474
0.0735596
1.24278
0.0474277
1.47445
0.0268555
1.75271
0.0128139
2.08926
0.00449673
2.49679
-0.00122563
2.99096
-0.00682643
2.99078
-0.0152613
2.49684
-0.0290132
2.08894
-0.0492755
1.7523
-0.0752732
1.47415
-0.103446
1.24254
-0.126965
1.04455
-0.140796
0.87378
-0.115214
0.682349
0.35594
0.0916947
0.264721
0.126271
0.648102
0.124772
0.8762
0.110841
1.05867
0.0963852
1.25723
0.0765441
1.49429
0.0544209
1.77483
0.0327677
2.11091
0.0134062
2.51616
-0.00246531
3.00683
-0.0182096
3.00653
-0.0368855
2.51551
-0.0581742
2.11023
-0.0798974
1.77402
-0.0991246
1.49338
-0.112745
1.25616
-0.125838
1.05764
-0.127634
0.875576
-0.0923387
0.647054
0.263601
0.0628223
0.201898
0.103995
0.60693
0.106735
0.87346
0.09715
1.06825
0.0860411
1.26834
0.0754805
1.50485
0.0608169
1.78949
0.0419091
2.12982
0.0203507
2.53771
-0.00340198
3.03058
-0.0270873
3.03021
-0.0480747
2.5365
-0.0660284
2.12818
-0.0797816
1.78777
-0.0896328
1.50323
-0.100413
1.26694
-0.109701
1.06693
-0.106123
0.871997
-0.0637465
0.604678
0.199854
0.0370359
0.164862
0.0793909
0.564575
0.0897606
0.86309
0.0829818
1.07503
0.0716902
1.27963
0.0626373
1.5139
0.0524426
1.79969
0.0384862
2.14377
0.0195454
2.55666
-0.00467106
3.0548
-0.0282641
3.0538
-0.0463877
2.55462
-0.0596253
2.14142
-0.0690739
1.79722
-0.0773198
1.51147
-0.0877458
1.27737
-0.093453
1.07264
-0.0817475
0.860292
-0.0378832
0.560814
0.161971
0.0194979
0.145364
0.056509
0.527564
0.0714931
0.848106
0.0689583
1.07756
0.0598762
1.28871
0.0497688
1.52401
0.0402444
1.80921
0.0291378
2.15488
0.0142297
2.57156
-0.00610147
3.07513
-0.0261973
3.0739
-0.0401548
2.56858
-0.0497691
2.15103
-0.0577254
1.80518
-0.0665262
1.52027
-0.0744803
1.28532
-0.0759126
1.07407
-0.0592674
0.843647
-0.020366
0.521912
0.141605
0.0107147
0.13465
0.0420286
0.49625
0.0575221
0.832612
0.0571262
1.07796
0.0501656
1.29567
0.0401321
1.53404
0.030306
1.81904
0.0199808
2.1652
0.00773115
2.58381
-0.00762023
3.09048
-0.0222918
3.08857
-0.0334203
2.57971
-0.0425984
2.16021
-0.0511136
1.81369
-0.0599401
1.5291
-0.0652801
1.29066
-0.0637872
1.07258
-0.0457994
0.825659
-0.0118695
0.487982
0.129736
0.00664883
0.128001
0.0328906
0.470008
0.0486905
0.816812
0.0495678
1.07708
0.0436969
1.30155
0.0341486
1.54359
0.0235984
1.82959
0.0128998
2.1759
0.00185251
2.59486
-0.0101664
3.1025
-0.0216903
3.1001
-0.0312517
2.58927
-0.0396932
2.16865
-0.0477707
1.82177
-0.0551664
1.5365
-0.0590672
1.29456
-0.0560489
1.06956
-0.0373629
0.806973
-0.00802891
0.458648
0.121707
0.00468474
0.123316
0.0263356
0.448358
0.041764
0.801384
0.0434184
1.07543
0.0382936
1.30667
0.0301816
1.5517
0.0205108
1.83926
0.00985132
2.18656
-0.00110218
2.60581
-0.0120374
3.11343
-0.0221811
3.11024
-0.0313498
2.59844
-0.0399963
2.1773
-0.0477024
1.82948
-0.0536368
1.54243
-0.056288
1.29721
-0.0514581
1.06473
-0.0319697
0.787485
-0.00638055
0.433059
0.115326
0.00367787
0.119638
0.021512
0.430523
0.0364398
0.786456
0.0389316
1.07294
0.0342766
1.31133
0.026426
1.55955
0.0169041
1.84878
0.00634202
2.19712
-0.00466158
2.61682
-0.0158871
3.12466
-0.0261346
3.12049
-0.034809
2.60711
-0.0421307
2.18462
-0.0484275
1.83577
-0.0532805
1.54728
-0.0545094
1.29844
-0.0482556
1.05848
-0.0283742
0.767603
-0.00580483
0.41049
0.109521
0.00309464
0.116544
0.0175864
0.416032
0.031519
0.772524
0.0344868
1.06997
0.030291
1.31552
0.0231151
1.56673
0.0144978
1.8574
0.00450512
2.20712
-0.00681611
2.62814
-0.0187984
3.13664
-0.0295253
3.13121
-0.0380364
2.61562
-0.0448749
2.19146
-0.0502125
1.84111
-0.0539412
1.55101
-0.0540972
1.2986
-0.0462026
1.05058
-0.0259358
0.747336
-0.005643
0.390197
0.103878
0.00238905
0.114155
0.0137965
0.404624
0.0262231
0.760097
0.0292024
1.06699
0.0251973
1.31953
0.0180801
1.57385
0.00937479
1.8661
-0.000615168
2.21711
-0.0119068
2.63943
-0.024161
3.1489
-0.0349823
3.14204
-0.0426305
2.62327
-0.0481038
2.19693
-0.0520794
1.84509
-0.0546378
1.55357
-0.0539532
1.29791
-0.0446263
1.04125
-0.0241678
0.726878
-0.00555695
0.371586
0.0983214
0.0016789
0.112476
0.0105266
0.395777
0.0212998
0.749324
0.0238224
1.06447
0.0196357
1.32371
0.0127117
1.58077
0.00445154
1.87436
-0.00518738
2.22675
-0.0163318
2.65057
-0.0289853
3.16155
-0.0399986
3.15305
-0.0471129
2.63039
-0.051907
2.20173
-0.0553955
1.84857
-0.056759
1.55493
-0.0548203
1.29597
-0.0439936
1.03043
-0.0231045
0.705989
-0.00551741
0.353999
0.092804
0.000867326
0.111608
0.00723684
0.389407
0.0163884
0.740172
0.0185872
1.06227
0.0141695
1.32813
0.00660844
1.58833
-0.00254539
1.88352
-0.0129063
2.23711
-0.0242682
2.66194
-0.03615
3.17343
-0.0456366
3.16254
-0.0519187
2.63667
-0.0558531
2.20566
-0.0584876
1.85121
-0.0590859
1.55553
-0.0562742
1.29316
-0.044002
1.01815
-0.0225389
0.684526
-0.00552625
0.336987
0.0872777
7.06859e-05
0.111538
0.00390993
0.385568
0.0105214
0.733561
0.0113811
1.06141
0.00629419
1.33322
-0.00149646
1.59612
-0.0106334
1.89266
-0.0207795
2.24725
-0.0317818
2.67294
-0.0438184
3.18547
-0.0533781
3.17209
-0.058794
2.64209
-0.061673
2.20854
-0.0632539
1.85279
-0.0629447
1.55522
-0.058552
1.28877
-0.0446008
1.0042
-0.0223648
0.66229
-0.00557377
0.320195
0.0817039
-0.00100507
0.112543
2.92585e-05
0.384534
0.00442702
0.729163
0.00435336
1.06148
-0.00138927
1.33896
-0.0100942
1.60483
-0.020275
1.90284
-0.0314071
2.25839
-0.0432377
2.68477
-0.0544402
3.19667
-0.0620767
3.17973
-0.0663761
2.64638
-0.0684978
2.21066
-0.0693246
1.85362
-0.0681078
1.55401
-0.0620022
1.28266
-0.0460227
0.988224
-0.0227135
0.63898
-0.00572859
0.303211
0.0759754
-0.00197472
0.114517
-0.00322708
0.385786
-0.00194162
0.727877
-0.00380989
1.06335
-0.0104947
1.34564
-0.0198927
1.61423
-0.0306717
1.91362
-0.0423453
2.27006
-0.0541968
2.69662
-0.0651418
3.20762
-0.0732592
3.18785
-0.0770529
2.65018
-0.078158
2.21177
-0.0777602
1.85322
-0.0748585
1.5511
-0.0667237
1.27453
-0.04845
0.96995
-0.0236311
0.614162
-0.00600771
0.285587
0.0699677
-0.00323272
0.11775
-0.00685447
0.389408
-0.00891815
0.729941
-0.0127813
1.06721
-0.0207892
1.35365
-0.0317238
1.62516
-0.0439534
1.92584
-0.0569433
2.28305
-0.0701611
2.70984
-0.082143
3.2196
-0.0889205
3.19463
-0.0906575
2.65192
-0.0899635
2.21107
-0.0880698
1.85133
-0.0837731
1.54681
-0.0732179
1.26397
-0.0520241
0.948757
-0.0251522
0.58729
-0.00642213
0.266857
0.0635455
-0.00463345
0.122384
-0.0113918
0.396166
-0.0168284
0.735378
-0.0234776
1.07386
-0.0328772
1.36305
-0.0448759
1.63716
-0.0581269
1.9391
-0.0724023
2.29732
-0.0867448
2.72418
-0.098931
3.23178
-0.105044
3.20074
-0.106463
2.65333
-0.104751
2.20936
-0.101206
1.84778
-0.0947802
1.54038
-0.0814019
1.25059
-0.0568518
0.924207
-0.0272726
0.557711
-0.0069668
0.246551
0.0565787
-0.00605758
0.128441
-0.0164045
0.406513
-0.0262945
0.745268
-0.0359063
1.08347
-0.0473968
1.37454
-0.0616207
1.65138
-0.0773785
1.95485
-0.0941
2.31405
-0.110145
2.74023
-0.122425
3.24406
-0.126851
3.20517
-0.125508
2.65199
-0.121439
2.20529
-0.115996
1.84234
-0.107719
1.53211
-0.0909583
1.23383
-0.0623052
0.895553
-0.0295706
0.524976
-0.00745366
0.224434
0.0491251
-0.00857244
0.137014
-0.0236244
0.421565
-0.0387987
0.760442
-0.0519065
1.09658
-0.0652433
1.38788
-0.0811675
1.66731
-0.0991676
1.97285
-0.118282
2.33316
-0.136212
2.75816
-0.149022
3.25687
-0.151641
3.20778
-0.148475
2.64883
-0.143102
2.19992
-0.135617
1.83485
-0.124137
1.52063
-0.103229
1.21293
-0.0694681
0.861792
-0.0324294
0.487937
-0.00802698
0.200032
0.0410981
-0.01066
0.147674
-0.0298502
0.440755
-0.0505021
0.781094
-0.0688657
1.11495
-0.086797
1.40581
-0.107285
1.6878
-0.129615
1.99518
-0.152206
2.35575
-0.171096
2.77705
-0.180973
3.26675
-0.180608
3.20742
-0.174577
2.64279
-0.166045
2.19139
-0.156318
1.82512
-0.142259
1.50657
-0.116254
1.18692
-0.0763951
0.821934
-0.0349138
0.446456
-0.00840929
0.173528
0.0326888
-0.0154454
0.163119
-0.0427409
0.468051
-0.0709797
0.809333
-0.0943812
1.13835
-0.115984
1.42741
-0.140805
1.71262
-0.167077
2.02146
-0.191574
2.38025
-0.210085
2.79556
-0.218868
3.27553
-0.215647
3.2042
-0.205693
2.63284
-0.194713
2.18041
-0.182074
1.81249
-0.163153
1.48765
-0.131186
1.15495
-0.0844019
0.77515
-0.0373327
0.399387
-0.00866569
0.144861
0.0240231
-0.0194453
0.182564
-0.0549463
0.503552
-0.092314
0.8467
-0.12399
1.17002
-0.152862
1.45629
-0.184811
1.74457
-0.215298
2.05194
-0.241027
2.40598
-0.257414
2.81194
-0.259424
3.27754
-0.249166
3.19394
-0.236732
2.62041
-0.223294
2.16697
-0.207944
1.79714
-0.185368
1.46507
-0.145987
1.11557
-0.0906085
0.719771
-0.038438
0.347216
-0.00839687
0.114819
0.0156262
-0.0315572
0.214121
-0.0790946
0.551089
-0.127712
0.895317
-0.167104
1.20942
-0.202162
1.49134
-0.241292
1.7837
-0.275056
2.08571
-0.299405
2.43033
-0.310171
2.82271
-0.306464
3.27384
-0.292699
3.18017
-0.275146
2.60285
-0.258502
2.15033
-0.240056
1.77869
-0.210271
1.43528
-0.161568
1.06687
-0.097241
0.655445
-0.0394562
0.289431
-0.00811716
0.0834804
0.00750907
-0.0452288
0.25935
-0.118462
0.624322
-0.183911
0.960767
-0.231069
1.25657
-0.273042
1.53332
-0.314907
1.82556
-0.34406
2.11486
-0.361092
2.44736
-0.365863
2.82748
-0.35747
3.26544
-0.33747
3.16017
-0.31543
2.58081
-0.292414
2.12731
-0.265829
1.7521
-0.228956
1.39841
-0.171042
1.00896
-0.0973661
0.581769
-0.0372826
0.229348
-0.00774551
0.0539433
-0.000236433
-0.0322513
0.291601
-0.0969122
0.688983
-0.156566
1.02042
-0.205913
1.30592
-0.258843
1.58625
-0.304971
1.87169
-0.347088
2.15698
-0.383063
2.48333
-0.409871
2.85429
-0.42237
3.27794
-0.417848
3.15565
-0.40166
2.56462
-0.379898
2.10555
-0.34935
1.72156
-0.294299
1.34336
-0.207668
0.922325
-0.10926
0.483361
-0.0405057
0.160593
-0.00905723
0.0224949
-0.00929366
-0.0135646
0.305166
-0.0479727
0.723391
-0.0881784
1.06063
-0.130071
1.34781
-0.171996
1.62817
-0.203344
1.90304
-0.234365
2.188
-0.26298
2.51195
-0.284327
2.87563
-0.293989
3.28761
-0.290957
3.15262
-0.279224
2.55289
-0.260324
2.08665
-0.228353
1.68959
-0.180042
1.29505
-0.114539
0.856822
-0.0520538
0.420875
-0.0194965
0.128036
-0.00473231
0.00773067
-0.014026
-0.00318622
0.308352
-0.023762
0.743967
-0.0511861
1.08805
-0.0797701
1.3764
-0.107229
1.65563
-0.134423
1.93023
-0.161713
2.21529
-0.187128
2.53736
-0.206492
2.895
-0.214445
3.29556
-0.206131
3.14431
-0.188665
2.53543
-0.165815
2.0638
-0.136887
1.66066
-0.0964812
1.25464
-0.0508383
0.81118
-0.018633
0.38867
-0.00796606
0.117369
-0.0024425
0.0022071
-0.0164685
0.000933222
0.307419
-0.0136923
0.758592
-0.0336522
1.10801
-0.0539946
1.39674
-0.0736045
1.67524
-0.0951094
1.95174
-0.117367
2.23755
-0.13756
2.55756
-0.152122
2.90956
-0.156223
3.29966
-0.147286
3.13537
-0.129618
2.51776
-0.104437
2.03861
-0.0726676
1.62889
-0.0390192
1.221
-0.0103819
0.782542
0.00130841
0.376979
0.000704429
0.117973
-0.000410255
0.00332179
-0.0168787
0.00352004
0.303899
-0.00553696
0.767649
-0.0221564
1.12463
-0.0403718
1.41496
-0.0575987
1.69247
-0.0749066
1.96904
-0.092459
2.2551
-0.108241
2.57334
-0.119046
2.92037
-0.119775
3.30039
-0.106272
3.12187
-0.084705
2.49619
-0.059908
2.01382
-0.033713
1.60269
-0.00607011
1.19335
0.0137825
0.76269
0.0154146
0.375347
0.00793747
0.12545
0.00171725
0.00954201
-0.0151615
0.00451481
0.299384
-0.00155959
0.773724
-0.0158001
1.13887
-0.0322453
1.4314
-0.0483399
1.70856
-0.0637129
1.98442
-0.0782492
2.26964
-0.090116
2.5852
-0.0963285
2.92658
-0.0940403
3.2981
-0.0820954
3.10992
-0.0641405
2.47824
-0.0391967
1.98887
-0.00977293
1.57327
0.013561
1.17002
0.0244726
0.751778
0.0215372
0.378283
0.0113182
0.135669
0.00294027
0.01792
-0.0122212
0.00421764
0.295167
0.000594745
0.777347
-0.011572
1.15104
-0.0273
1.44713
-0.0433621
1.72462
-0.0580499
1.9991
-0.0710311
2.28262
-0.0813539
2.59553
-0.0867159
2.93194
-0.0834558
3.29484
-0.0692816
3.09575
-0.0479898
2.45695
-0.0238058
1.96469
-0.00224024
1.5517
0.018157
1.14962
0.0281259
0.741809
0.0232078
0.383201
0.012394
0.146483
0.00342384
0.0268901
-0.00879737
0.00259036
0.292576
-0.00070096
0.780638
-0.010903
1.16124
-0.0243283
1.46055
-0.0390764
1.73937
-0.0537081
2.01374
-0.067256
2.29617
-0.0777244
2.606
-0.0817743
2.93599
-0.0761322
3.2892
-0.063398
3.08301
-0.0458816
2.43943
-0.024345
1.94315
0.000282165
1.52708
0.0185254
1.13138
0.0256457
0.734689
0.0215872
0.387259
0.0117798
0.15629
0.00335109
0.0353188
-0.00544628
0.00148554
0.291091
-0.00166338
0.783787
-0.0108712
1.17045
-0.0233532
1.47304
-0.0374805
1.7535
-0.0521049
2.02836
-0.0662704
2.31033
-0.0778178
2.61754
-0.0833536
2.94153
-0.078937
3.28478
-0.0638644
3.06794
-0.042578
2.41814
-0.0217992
1.92237
-0.00379465
1.50907
0.0131608
1.11442
0.0217438
0.726106
0.018433
0.39057
0.0102075
0.164516
0.00300881
0.0425175
-0.00243746
-0.000376651
0.291467
-0.00429209
0.787702
-0.0125841
1.17874
-0.0234847
1.48394
-0.0363489
1.76636
-0.0507671
2.04278
-0.065903
2.32547
-0.0791509
2.63079
-0.0864093
2.94878
-0.0823602
3.28073
-0.0670787
3.05266
-0.0498127
2.40088
-0.0314198
1.90398
-0.0098227
1.48747
0.00611815
1.09848
0.0136493
0.718574
0.0129998
0.39122
0.00757051
0.169945
0.00236792
0.0477201
-6.95399e-05
-0.00155845
0.293026
-0.00583724
0.791981
-0.0139246
1.18683
-0.024632
1.49464
-0.0372301
1.77896
-0.0512633
2.05681
-0.0663798
2.34058
-0.0809983
2.64541
-0.0916156
2.9594
-0.0908721
3.27999
-0.0748839
3.03667
-0.0536986
2.37969
-0.0339357
1.88422
-0.0186435
1.47218
-0.00315846
1.083
0.00682452
0.708591
0.00786462
0.39018
0.00502725
0.172782
0.0017753
0.0509721
0.00170576
-0.00299598
0.296022
-0.00821271
0.797198
-0.0161708
1.19478
-0.0260801
1.50455
-0.0378044
1.79069
-0.0512743
2.07028
-0.0665386
2.35585
-0.0825097
2.66138
-0.0961081
2.973
-0.0990323
3.28291
-0.0859406
3.02358
-0.066513
2.36026
-0.0473521
1.86506
-0.0271537
1.45198
-0.0119653
1.06781
-0.00234026
0.698966
0.00199661
0.385843
0.00213776
0.172641
0.00102312
0.0520867
0.00272888
-0.0037503
0.299772
-0.00943288
0.80288
-0.017527
1.20288
-0.0275837
1.51461
-0.0392996
1.8024
-0.0523724
2.08335
-0.0671103
2.37059
-0.0833896
2.67766
-0.0998777
2.98949
-0.108725
3.29176
-0.0989394
3.01379
-0.076313
2.33764
-0.0521733
1.84092
-0.035634
1.43545
-0.0201826
1.05236
-0.00834696
0.687131
-0.00310017
0.380596
-0.000411121
0.169952
0.000298239
0.0513773
0.00302712
-0.00450065
0.304273
-0.0111725
0.809552
-0.0193672
1.21107
-0.0289277
1.52417
-0.0400402
1.81351
-0.05263
2.09594
-0.067179
2.38514
-0.0838281
2.69431
-0.102244
3.0079
-0.116452
3.30597
-0.112616
3.00996
-0.0933894
2.31841
-0.0679262
1.81545
-0.0420138
1.40953
-0.0252808
1.03562
-0.0139984
0.675848
-0.0062024
0.3728
-0.00183388
0.165584
-0.000169491
0.049713
0.00285762
-0.00483326
0.309106
-0.011792
0.816511
-0.0201406
1.21942
-0.0299082
1.53394
-0.0411253
1.82473
-0.0534781
2.1083
-0.067513
2.39917
-0.0839546
2.71075
-0.10335
3.0273
-0.121687
3.3243
-0.123052
3.01132
-0.104695
2.30005
-0.0751379
1.7859
-0.0482039
1.3826
-0.0269879
1.01441
-0.0131445
0.662005
-0.00591336
0.365569
-0.00176773
0.161438
-0.000227549
0.0481728
0.00263008
-0.00517235
0.314278
-0.0128265
0.824165
-0.0212601
1.22785
-0.0306766
1.54336
-0.0414043
1.83546
-0.0533171
2.12021
-0.0672785
2.41313
-0.0840964
2.72757
-0.103925
3.04713
-0.12413
3.34451
-0.13117
3.01836
-0.119153
2.28804
-0.0930629
1.75981
-0.0557682
1.3453
-0.0260296
0.984669
-0.0104674
0.646443
-0.0015762
0.356678
0.000811429
0.15905
0.0005447
0.0484395
0.00317477
-0.00517737
0.319456
-0.0128563
0.831844
-0.0214069
1.23641
-0.030992
1.55294
-0.0416983
1.84617
-0.0533816
2.13189
-0.0673012
2.42705
-0.0842624
2.74453
-0.104057
3.06692
-0.124728
3.36518
-0.135705
3.02934
-0.12691
2.27924
-0.10026
1.73316
-0.0650397
1.31008
-0.0257139
0.945343
0.00116641
0.619563
0.00964542
0.348199
0.00814197
0.160554
0.00296788
0.0536136
0.00614265
-0.00526485
0.324721
-0.0133212
0.8399
-0.0218903
1.24497
-0.0311657
1.56222
-0.0412325
1.85623
-0.052482
2.14314
-0.0668049
2.44137
-0.0845014
2.76223
-0.104315
3.08674
-0.12473
3.3856
-0.138131
3.04274
-0.136263
2.27738
-0.116861
1.71375
-0.0758719
1.26909
-0.0284711
0.897943
0.01296
0.578131
0.0329936
0.328165
0.0287778
0.16477
0.0114868
0.0709046
0.0176295
-0.00508054
0.329801
-0.0129655
0.847785
-0.0215174
1.25353
-0.0308951
1.57159
-0.040633
1.86597
-0.051728
2.15424
-0.0665287
2.45618
-0.0847632
2.78046
-0.104418
3.10639
-0.124379
3.40556
-0.138776
3.05714
-0.139772
2.27837
-0.120967
1.69495
-0.0855993
1.23373
-0.0316383
0.843982
0.0255867
0.520906
0.0713828
0.282369
0.0852127
0.15094
0.0548723
0.101245
0.0725018
-0.00500268
0.334804
-0.0126257
0.855408
-0.0204945
1.2614
-0.0291838
1.58028
-0.0399999
1.87679
-0.0536461
2.16788
-0.070535
2.47306
-0.089999
2.79992
-0.110303
3.1267
-0.12933
3.42458
-0.141382
3.06919
-0.142906
2.27989
-0.130654
1.6827
-0.093016
1.19609
-0.0383106
0.789276
0.034087
0.448509
0.108477
0.207979
0.157847
0.101569
0.148926
0.110166
0.221428
-0.00484391
0.339648
-0.012008
0.862572
-0.0197002
1.26909
-0.0287389
1.58932
-0.0404762
1.88852
-0.0554292
2.18284
-0.0737278
2.49136
-0.0946334
2.82083
-0.117206
3.14927
-0.139698
3.44708
-0.156264
3.08575
-0.160521
2.28415
-0.14611
1.66829
-0.113821
1.1638
-0.048155
0.723611
0.0141255
0.386228
-0.0420946
0.264199
-0.382086
0.44156
-1.00807
0.736147
0.929198
-1.71584
-0.00475963
0.344407
-0.0121152
0.869928
-0.0199256
1.2769
-0.0287986
1.59819
-0.0397072
1.89943
-0.0539191
2.19705
-0.0725633
2.51001
-0.094783
2.84305
-0.119048
3.17353
-0.144428
3.47246
-0.166378
3.10771
-0.179331
2.2971
-0.179101
1.66806
-0.146913
1.13161
-0.11099
0.687688
-0.235894
0.511132
-0.766403
0.794708
-1.52449
1.19965
-2.11013
1.32178
1.20504
-2.38597
-0.0044417
0.348849
-0.0114583
0.876944
-0.0191657
1.28461
-0.0279254
1.60695
-0.0388109
1.91032
-0.0533372
2.21157
-0.0725633
2.52923
-0.095631
2.86612
-0.121524
3.19943
-0.15029
3.50122
-0.178251
3.13567
-0.197571
2.31642
-0.198137
1.66862
-0.186567
1.12004
-0.306437
0.807559
-0.849012
1.05371
-1.63408
1.57978
-2.15184
1.71741
-2.37043
1.54038
1.30765
-2.47304
-0.0039545
0.352803
-0.0112647
0.884255
-0.0187949
1.29214
-0.0269737
1.61513
-0.0375175
1.92086
-0.052212
2.22627
-0.0720035
2.54902
-0.0960014
2.89012
-0.123755
3.22718
-0.156558
3.53402
-0.19069
3.1698
-0.222425
2.34816
-0.241053
1.68725
-0.326168
1.20516
-0.725601
1.20699
-1.50863
1.83674
-2.06021
2.13135
-2.28427
1.94148
-2.38946
1.64556
1.37413
-2.45594
-0.00310432
0.355908
-0.00901944
0.89017
-0.0159457
1.29906
-0.0246927
1.62388
-0.0366609
1.93283
-0.052282
2.24189
-0.0721586
2.5689
-0.0963755
2.91433
-0.12602
3.25682
-0.163273
3.57128
-0.205676
3.2122
-0.243666
2.38615
-0.284322
1.72791
-0.51817
1.439
-1.20598
1.89481
-1.87019
2.50094
-2.15592
2.41708
-2.28974
2.0753
-2.36696
1.72278
1.43139
-2.42422
-0.00275626
0.358664
-0.00762445
0.895038
-0.0144633
1.3059
-0.024203
1.63362
-0.0372869
1.94591
-0.0536792
2.25828
-0.0738144
2.58904
-0.0987167
2.93923
-0.130759
3.28887
-0.173091
3.61361
-0.22162
3.26073
-0.27004
2.43457
-0.396503
1.85437
-0.822095
1.8646
-1.57541
2.64813
-1.9991
2.92463
-2.17364
2.59162
-2.26458
2.16625
-2.33492
1.79311
1.49031
-2.39383
-0.00264437
0.361308
-0.00773872
0.900132
-0.0151168
1.31328
-0.025595
1.6441
-0.0394464
1.95976
-0.0566335
2.27547
-0.077669
2.61007
-0.103853
2.96542
-0.138311
3.32332
-0.185775
3.66107
-0.242265
3.31722
-0.307943
2.50025
-0.524094
2.07052
-1.14264
2.48314
-1.7569
3.26239
-1.99327
3.16099
-2.12461
2.72296
-2.22462
2.26626
-2.30774
1.87623
1.54864
-2.36607
-0.00298518
0.364294
-0.00917679
0.906324
-0.017242
1.32134
-0.0278137
1.65467
-0.0416905
1.97364
-0.059213
2.29299
-0.0811463
2.63201
-0.108893
2.99317
-0.145946
3.36038
-0.198614
3.71374
-0.260026
3.37863
-0.361916
2.60214
-0.692605
2.40121
-1.37963
3.17017
-1.80873
3.69149
-1.99746
3.34972
-2.1234
2.84889
-2.2219
2.36477
-2.29549
1.94982
1.57802
-2.32487
-0.00323341
0.367527
-0.00964389
0.912734
-0.0183511
1.33005
-0.0296588
1.66598
-0.0441855
1.98817
-0.062364
2.31117
-0.0851884
2.65483
-0.11436
3.02234
-0.15406
3.40008
-0.210694
3.77038
-0.279969
3.44791
-0.432151
2.75432
-0.868223
2.83728
-1.50662
3.80856
-1.81791
4.00278
-1.97071
3.50252
-2.05999
2.93818
-2.13726
2.44204
-2.18548
1.99803
1.52099
-2.12845
-0.00365595
0.371183
-0.011028
0.920106
-0.0204174
1.33944
-0.0320451
1.6776
-0.0467466
2.00287
-0.0652368
2.32966
-0.0888581
2.67845
-0.119501
3.05298
-0.161784
3.44236
-0.224688
3.83328
-0.318752
3.54197
-0.519655
2.95522
-1.02577
3.34339
-1.55849
4.34129
-1.79147
4.23575
-1.92602
3.63707
-2.00463
3.01679
-2.00951
2.44692
-1.9232
1.91171
1.43528
-1.83748
-0.0035959
0.374779
-0.010901
0.927412
-0.0207709
1.34931
-0.0332625
1.6901
-0.0488677
2.01847
-0.0679987
2.34879
-0.091975
2.70243
-0.122993
3.084
-0.165994
3.48536
-0.226306
3.89359
-0.328143
3.64381
-0.566884
3.19396
-1.10951
3.88602
-1.51206
4.74385
-1.66572
4.38941
-1.7408
3.71215
-1.7679
3.04389
-1.63391
2.31294
-1.11453
1.39232
0.320754
-0.00367773
0.378457
-0.0118687
0.935603
-0.022384
1.35983
-0.035418
1.70313
-0.0517963
2.03485
-0.0722122
2.36921
-0.0981116
2.72833
-0.132094
3.11798
-0.17951
3.53278
-0.246008
3.96009
-0.36719
3.76499
-0.670743
3.49752
-1.2547
4.46997
-1.575
5.06415
-1.68274
4.49715
-1.7113
3.74071
-1.6048
2.93739
-1.24397
1.95211
-0.471888
0.620238
-0.151134
-0.00334415
0.381801
-0.0111002
0.943359
-0.0221652
1.37089
-0.0363282
1.71729
-0.0541373
2.05266
-0.0761667
2.39124
-0.104191
2.75635
-0.141145
3.15493
-0.192569
3.5842
-0.266683
4.0342
-0.418906
3.91721
-0.796846
3.87546
-1.36672
5.03985
-1.59371
5.29113
-1.65988
4.56333
-1.6277
3.70852
-1.36293
2.67262
-0.636795
1.22598
-0.0167032
0.00014645
-0.167837
-0.00278052
0.384581
-0.0116773
0.952255
-0.023423
1.38264
-0.0378918
1.73176
-0.0560946
2.07087
-0.079198
2.41434
-0.109226
2.78638
-0.14922
3.19493
-0.204024
3.63901
-0.294978
4.12516
-0.48035
4.10258
-0.919257
4.31436
-1.43852
5.55911
-1.59454
5.44715
-1.62887
4.59766
-1.47755
3.5572
-0.971254
2.16633
-0.165002
0.41973
0.0387084
-0.203564
-0.129129
-0.00216099
0.386742
-0.00963608
0.95973
-0.0215028
1.3945
-0.0370491
1.74731
-0.0567313
2.09055
-0.0814773
2.43909
-0.113631
2.81853
-0.156721
3.23802
-0.214548
3.69683
-0.314639
4.22525
-0.526792
4.31474
-1.03923
4.8268
-1.47091
5.99079
-1.57106
5.5473
-1.54586
4.57246
-1.25991
3.27124
-0.498927
1.40534
0.00659597
-0.0857929
0.0245968
-0.221565
-0.104532
-0.00117504
0.387917
-0.00918669
0.967742
-0.0212793
1.4066
-0.0367622
1.76279
-0.056441
2.11023
-0.0819545
2.4646
-0.115877
2.85245
-0.162154
3.2843
-0.22424
3.75892
-0.33409
4.3351
-0.578849
4.5595
-1.13287
5.38082
-1.44645
6.30437
-1.50065
5.60151
-1.40816
4.47997
-0.969346
2.83243
-0.152885
0.588883
0.0192521
-0.25793
0.0174179
-0.21973
-0.0871141
0.000972413
0.386945
-0.00480857
0.973523
-0.016468
1.41826
-0.0326371
1.77896
-0.0535491
2.13114
-0.0803987
2.49145
-0.116035
2.88809
-0.164827
3.33309
-0.230551
3.82464
-0.349614
4.45416
-0.631362
4.84124
-1.18531
5.93477
-1.40608
6.52513
-1.42942
5.62485
-1.20869
4.25924
-0.57115
2.19489
-0.00509825
0.0228311
0.0153049
-0.278333
0.00726199
-0.211687
-0.0798521
0.0024403
0.384505
-0.00219051
0.978154
-0.0131303
1.42919
-0.0285652
1.7944
-0.0487266
2.1513
-0.0756416
2.51836
-0.112138
2.92459
-0.162242
3.38319
-0.233576
3.89598
-0.364334
4.58492
-0.678178
5.15509
-1.18635
6.44294
-1.33361
6.6724
-1.30732
5.59856
-0.984561
3.93648
-0.280328
1.49066
-0.0160852
-0.241412
0.000205057
-0.294623
-0.000978299
-0.210504
-0.0808304
0.00664591
0.377859
0.00583893
0.978961
-0.00325916
1.43829
-0.0185893
1.80973
-0.0393274
2.17204
-0.0668117
2.54585
-0.1039
2.96168
-0.154864
3.43416
-0.229363
3.97048
-0.369149
4.72471
-0.706199
5.49214
-1.14112
6.87786
-1.21159
6.74286
-1.15173
5.5387
-0.792532
3.57728
-0.0582141
0.756342
0.0182984
-0.317925
0.0243324
-0.300658
0.010099
-0.196271
-0.0707315
0.0101997
0.367659
0.0126852
0.976475
0.00600556
1.44497
-0.00731862
1.82305
-0.0261467
2.19087
-0.0525891
2.57229
-0.0891276
2.99821
-0.138743
3.48377
-0.217315
4.04905
-0.36602
4.87341
-0.706613
5.83273
-1.04854
7.2198
-1.09172
6.78604
-0.968408
5.41539
-0.521293
3.13017
0.0685734
0.166475
0.070493
-0.319844
0.0553162
-0.285481
0.0209098
-0.161864
-0.0498216
0.0174858
0.350173
0.0271179
0.966843
0.0247501
1.44734
0.0129557
1.83484
-0.00554163
2.20936
-0.0313165
2.59807
-0.0667248
3.03362
-0.114932
3.53198
-0.189887
4.124
-0.327628
5.01115
-0.663971
6.16907
-0.923297
7.47912
-0.948552
6.8113
-0.780508
5.24734
-0.29855
2.64821
0.0327825
-0.164857
0.0616835
-0.348745
0.0513423
-0.27514
0.0178739
-0.128396
-0.0319477
0.0246047
0.325568
0.0416655
0.949782
0.0443078
1.4447
0.0365875
1.84256
0.0220013
2.22395
-0.00101391
2.62108
-0.034011
3.06662
-0.079986
3.57795
-0.148949
4.19297
-0.272489
5.13469
-0.578928
6.47551
-0.763464
7.66366
-0.775455
6.82329
-0.614348
5.08624
-0.19203
2.22589
-0.0817843
-0.275103
-0.0225794
-0.40795
0.0171831
-0.314902
0.0105706
-0.121783
-0.0213771
0.0366148
0.288954
0.0659988
0.920398
0.0766413
1.43406
0.0728517
1.84635
0.0608479
2.23595
0.0405429
2.64139
0.0116594
3.0955
-0.0301265
3.61974
-0.0930044
4.25584
-0.196918
5.23861
-0.433178
6.71177
-0.56356
7.79404
-0.58609
6.84582
-0.454851
4.955
-0.110651
1.88169
-0.103853
-0.281901
-0.0638279
-0.447975
-0.0138384
-0.364892
0.0136568
-0.149278
-0.00772025
0.0488947
0.240059
0.0922946
0.876998
0.112143
1.41421
0.116255
1.84224
0.111733
2.24047
0.0971081
2.65601
0.0738196
3.11879
0.0373616
3.6562
-0.0193415
4.31255
-0.112527
5.33179
-0.233134
6.83238
-0.320133
7.88104
-0.34479
6.87048
-0.277893
4.8881
-0.108028
1.71183
-0.185676
-0.204253
-0.150859
-0.482792
-0.0833034
-0.432447
0.00378428
-0.236366
-0.00393597
0.0642457
0.175813
0.127036
0.814208
0.163807
1.37744
0.177985
1.82806
0.17941
2.23905
0.170553
2.66487
0.154174
3.13517
0.126694
3.68368
0.0867995
4.35244
0.0429396
5.37565
0.0127664
6.86255
-0.0107418
7.90455
-0.0544651
6.9142
-0.0957227
4.92936
-0.133863
1.74997
-0.328479
-0.00963789
-0.301561
-0.509709
-0.204816
-0.529193
-0.0517242
-0.389457
-0.0556602
0.0662435
0.10957
0.161052
0.719399
0.222166
1.31632
0.253538
1.79669
0.266233
2.22636
0.266386
2.66471
0.25745
3.14411
0.241628
3.6995
0.217477
4.37659
0.211017
5.38211
0.287454
6.78612
0.331322
7.86068
0.342731
6.90279
0.213389
5.0587
-0.058137
2.02149
-0.374053
0.306278
-0.430244
-0.453518
-0.326691
-0.632746
-0.151431
-0.564717
-0.207091
0.0569471
0.0526226
0.197756
0.578591
0.300205
1.21387
0.351944
1.74495
0.373696
2.2046
0.383875
2.65454
0.383965
3.14402
0.38573
3.69773
0.37384
4.38848
0.359952
5.396
0.567513
6.57855
0.762196
7.66599
0.851678
6.81331
0.746251
5.16413
0.19699
2.57075
-0.120847
0.624115
-0.273241
-0.301124
-0.285847
-0.62014
-0.180605
-0.669959
-0.387696
0.0425536
0.010069
0.242776
0.378368
0.378682
1.07797
0.459425
1.66421
0.505449
2.15858
0.531171
2.62881
0.543358
3.13183
0.558818
3.68227
0.578976
4.36832
0.625682
5.34929
0.924691
6.27955
1.29593
7.29475
1.51004
6.59921
1.4704
5.20376
0.806723
3.23443
0.326982
1.10386
0.0294176
-0.00355908
-0.144982
-0.44574
-0.13897
-0.675971
-0.526666
0.0255945
-0.0155256
0.239703
0.16426
0.468073
0.849597
0.599979
1.5323
0.667786
2.09077
0.707979
2.58862
0.7372
3.10261
0.761066
3.65841
0.81655
4.31284
0.932084
5.23376
1.33355
5.87808
1.86733
6.76097
2.16024
6.3063
2.25443
5.10957
1.91141
3.57745
1.18134
1.83392
0.577142
0.600639
0.178789
-0.0473869
0.0118217
-0.509004
-0.514844
0.0222388
-0.0377643
0.164523
0.0219757
0.524026
0.490094
0.750137
1.30619
0.862402
1.97851
0.920984
2.53004
0.967298
3.05629
1.00152
3.62418
1.08017
4.2342
1.24071
5.07322
1.66049
5.45829
2.36705
6.05442
2.69621
5.97713
2.85281
4.95298
2.61722
3.81304
1.91147
2.53967
1.19084
1.32127
0.636849
0.506602
0.217081
-0.0892357
-0.297764
0.00212753
-0.0398919
0.0714571
-0.0473538
0.408088
0.153463
0.748822
0.965457
0.925774
1.80156
0.984361
2.47145
0.997322
3.04333
0.994398
3.62711
1.01163
4.21697
1.0705
5.01434
1.29408
5.23471
1.84859
5.49991
1.82284
6.00288
1.89394
4.88188
1.78466
3.92233
1.41934
2.90499
0.907386
1.83322
0.495716
0.918272
0.191086
0.215394
-0.106678
0.000673111
-0.040565
0.0333819
-0.0800626
0.186875
-2.98702e-05
0.570749
0.581584
0.790914
1.58139
0.881401
2.38097
0.90516
3.01958
0.905897
3.62637
0.884618
4.23825
0.91497
4.98399
1.01828
5.1314
1.31151
5.20668
1.57124
5.74315
1.58182
4.8713
1.52845
3.9757
1.33398
3.09946
0.968344
2.19886
0.580302
1.30631
0.227191
0.568505
0.120514
-0.00573907
-0.0348259
-0.00063851
-0.0851631
0.0587791
-0.0594475
0.379131
0.261231
0.637864
1.32266
0.755345
2.26348
0.784159
2.99076
0.789281
3.62125
0.765906
4.26162
0.766942
4.98295
0.810427
5.08792
1.0433
4.97381
1.27315
5.5133
1.25537
4.88908
1.19533
4.03573
1.05598
3.2388
0.816125
2.43872
0.512316
1.61012
0.208524
0.872297
0.329037
-0.00784146
-0.0269844
-0.00546309
-0.0875415
0.0326214
-0.0975319
0.222344
0.071509
0.495068
1.04994
0.633869
2.12468
0.668396
2.95623
0.664187
3.62546
0.638306
4.2875
0.625161
4.9961
0.640354
5.07273
0.782485
4.83168
0.963683
5.3321
0.939957
4.91281
0.874969
4.10072
0.765679
3.34809
0.600678
2.60372
0.386978
1.82382
0.163911
1.09536
0.492948
-0.00711792
-0.0198665
0.00849928
-0.103159
0.0420345
-0.131067
0.133555
-0.0200111
0.381061
0.802429
0.504185
2.00156
0.535771
2.92465
0.53202
3.62921
0.511863
4.30766
0.501069
5.00689
0.499864
5.07393
0.561509
4.77004
0.661902
5.23171
0.654624
4.92009
0.587759
4.16759
0.499146
3.4367
0.385395