0.490941 	1.2946
0.561075 	1.2946
0.63121 	1.2946
0.701344 	1.2946
0.771478 	1.2946
0.841613 	1.2946
0.911747 	1.27141
0.981881 	1.27141
1.05202 	1.27141
1.12215 	1.27141
1.19228 	1.27141
1.26242 	1.27141
1.33255 	1.22936
1.40269 	1.22936
1.47282 	1.22936
1.54296 	1.22936
1.61309 	1.22936
1.68323 	1.22936
1.75336 	1.16963
1.82349 	1.16963
1.89363 	1.16963
1.96376 	1.16963
2.0339 	1.16963
2.10403 	1.16963
2.17417 	1.09956
2.2443 	1.09956
2.31443 	1.09956
2.38457 	1.09956
2.4547 	1.09956
2.52484 	1.09956
2.59497 	1.02025
2.66511 	1.02025
2.73524 	1.02025
2.80538 	1.02025
2.87551 	1.02025
2.94564 	1.02025
3.01578 	0.937023
3.08591 	0.937023
3.15605 	0.937023
3.22618 	0.937023
3.29632 	0.937023
3.36645 	0.937023
3.43659 	0.869122
3.50672 	0.869122
3.57685 	0.869122
3.64699 	0.869122
3.71712 	0.869122
3.78726 	0.862787
3.85739 	0.81517
3.92753 	0.81517
3.99766 	0.81517
4.06779 	0.81517
4.13793 	0.81517
4.20806 	0.81517
4.2782 	0.767483
4.34833 	0.767483
4.41847 	0.767483
4.4886 	0.767483
4.55874 	0.767483
4.62887 	0.767483
4.699 	0.767483
4.76914 	0.708737
4.83927 	0.708737
4.90941 	0.708737
4.97954 	0.708737
5.04968 	0.708737
5.11981 	0.708737
5.18994 	0.651648
5.26008 	0.651648
5.33021 	0.651648
5.40035 	0.651648
5.47048 	0.651648
5.54062 	0.651648
5.61075 	0.608175
5.68089 	0.608175
5.75102 	0.608175
5.82115 	0.608175
5.89129 	0.608175
5.96142 	0.608175
6.03156 	0.574094
6.10169 	0.574094
6.17183 	0.574094
6.24196 	0.574094
6.3121 	0.574094
6.38223 	0.574094
6.45236 	0.540976
6.5225 	0.540976
6.59263 	0.540976
6.66277 	0.540976
6.7329 	0.540976
6.80304 	0.540976
6.87317 	0.506704
6.9433 	0.506704
7.01344 	0.506704
7.08357 	0.506704
7.15371 	0.506704
7.22384 	0.506704
7.29398 	0.473119
7.36411 	0.473119
7.43425 	0.473119
7.50438 	0.473119
7.57451 	0.473119
7.64465 	0.473119
7.71478 	0.473119
7.78492 	0.440517
7.85505 	0.440517
7.92519 	0.440517
7.99532 	0.440517
8.06545 	0.440517
8.13559 	0.440517
8.20572 	0.408743
8.27586 	0.408743
8.34599 	0.408743
8.41613 	0.408743
8.48626 	0.408743
8.5564 	0.408743
8.62653 	0.377193
8.69666 	0.377193
8.7668 	0.377193
8.83693 	0.377193
8.90707 	0.377193
8.9772 	0.377193
9.04734 	0.345654
9.11747 	0.345654
9.18761 	0.345654
9.25774 	0.333211
9.32787 	0.333211
9.39801 	0.333211
9.46814 	0.333211
9.53828 	0.299825
9.60841 	0.299825
9.67855 	0.299825
9.74868 	0.299825
9.81881 	0.299825
9.88895 	0.299825
9.95908 	0.265078
10.0292 	0.265078
10.0994 	0.265078
10.1695 	0.265078
10.2396 	0.265078
10.3098 	0.265078
10.3799 	0.228866
10.45 	0.228866
10.5202 	0.228866
10.5903 	0.228866
10.6604 	0.228866
10.7306 	0.228866
10.8007 	0.18848
10.8708 	0.18848
10.941 	0.18848
11.0111 	0.18848
11.0812 	0.18848
11.1514 	0.18848
11.2215 	0.18848
11.2916 	0.14286
11.3618 	0.14286
11.4319 	0.14286
11.502 	0.14286
11.5722 	0.14286
11.6423 	0.14286
11.7124 	0.0885213
11.7826 	0.0885213
11.8527 	0.0885213
11.9228 	0.0885213
11.993 	0.0885213
12.0631 	0.0885213
12.1332 	0.0256217
12.2034 	0.0256217
12.2735 	0.0256217
12.3437 	0.0256217
12.4138 	0.0256217
12.4839 	0.0256217
12.5541 	0.0256217
12.6242 	-0.0467448
12.6943 	-0.0467448
12.7645 	-0.0467448
12.8346 	-0.0467448
12.9047 	-0.0467448
12.9749 	-0.0467448
13.045 	-0.123248
13.1151 	-0.123248
13.1853 	-0.123248
13.2554 	-0.123248
13.3255 	-0.123248
13.3957 	-0.123248
13.4658 	-0.123248
13.5359 	-0.192068
13.6061 	-0.192068
13.6762 	-0.192068
13.7463 	-0.192068
13.8165 	-0.192068
13.8866 	-0.192068
13.9567 	-0.246086
14.0269 	-0.246086
14.097 	-0.246086
14.1671 	-0.246086
14.2373 	-0.246086
14.3074 	-0.246086
14.3776 	-0.242863
14.4477 	-0.271887
14.5178 	-0.271887
14.588 	-0.271887
14.6581 	-0.258726
14.7282 	-0.258726
14.7984 	-0.287167
14.8685 	-0.249043
14.9386 	-0.249043
15.0088 	-0.249043
15.0789 	-0.249043
15.149 	-0.197866
15.2192 	-0.224384
15.2893 	-0.224384
15.3594 	-0.224384
15.4296 	-0.157539
15.4997 	-0.157539
15.5698 	-0.187503
15.64 	-0.187503
15.7101 	-0.187503
15.7802 	-0.0958311
15.8504 	-0.0958311
15.9205 	-0.135511
15.9906 	-0.135511
16.0608 	-0.135511
16.1309 	-0.0167265
16.201 	-0.0167265
16.2712 	-0.0641622
16.3413 	-0.0641622
16.4114 	-0.0641622
16.4816 	-0.0641622
16.5517 	0.0783753
16.6219 	0.0208815
16.692 	0.0208815
16.7621 	0.0208815
16.8323 	0.0208815
16.9024 	0.0208815
16.9725 	0.143915
17.0427 	0.143915
17.1128 	0.143915
17.1829 	0.143915
17.2531 	0.1121
17.3232 	0.1121
17.3933 	0.1121
17.4635 	0.299231
17.5336 	0.299231
17.6037 	0.280246
17.6739 	0.280246
17.744 	0.280246
17.8141 	0.280246
17.8843 	0.280246
17.9544 	0.420731
18.0245 	0.420731
18.0947 	0.420731
18.1648 	0.420731
18.2349 	0.403548
18.3051 	0.403548
18.3752 	0.403548
18.4453 	0.403548
18.5155 	0.403548
18.5856 	0.530297
18.6557 	0.530297
18.7259 	0.530297
18.796 	0.530297
18.8662 	0.531672
18.9363 	0.531672
19.0064 	0.531672
19.0766 	0.531672
19.1467 	0.531672
19.2168 	0.538927
19.287 	0.633794
19.3571 	0.633794
19.4272 	0.633794
19.4974 	0.633794
19.5675 	0.63336
19.6376 	0.63336
19.7078 	0.63336
19.7779 	0.63336
19.848 	0.63336
19.9182 	0.638393
19.9883 	0.638393
20.0584 	0.694893
20.1286 	0.694893
20.1987 	0.694893
20.2688 	0.695644
20.339 	0.695644
20.4091 	0.695644
20.4792 	0.695644
20.5494 	0.695644
20.6195 	0.699688
20.6896 	0.699688
20.7598 	0.699688
20.8299 	0.699688
20.9 	0.72799
20.9702 	0.727061
21.0403 	0.727061
21.1105 	0.727061
21.1806 	0.727061
21.2507 	0.727061
21.3209 	0.728305
21.391 	0.728305
21.4611 	0.728305
21.5313 	0.728305
21.6014 	0.728305
21.6715 	0.728305
21.7417 	0.731475
21.8118 	0.731475
21.8819 	0.731475
21.9521 	0.732905
22.0222 	0.732905
22.0923 	0.731732
22.1625 	0.731732
22.2326 	0.731732
22.3027 	0.731732
22.3729 	0.731732
22.443 	0.731732
22.5131 	0.73211
22.5833 	0.73211
22.6534 	0.73211
22.7235 	0.73211
22.7937 	0.73211
22.8638 	0.733364
22.9339 	0.733364
23.0041 	0.733364
23.0742 	0.71574
23.1443 	0.71574
23.2145 	0.71574
23.2846 	0.713611
23.3548 	0.713611
23.4249 	0.713611
23.495 	0.713611
23.5652 	0.713611
23.6353 	0.713611
23.7054 	0.712804
23.7756 	0.712804
23.8457 	0.712804
23.9158 	0.712804
23.986 	0.712804
24.0561 	0.712804
24.1262 	0.71242
24.1964 	0.71242
24.2665 	0.71242
24.3366 	0.71242
24.4068 	0.71242
24.4769 	0.67944
24.547 	0.67944
24.6172 	0.676023
24.6873 	0.676023
24.7574 	0.676023
24.8276 	0.676023
24.8977 	0.676023
24.9678 	0.676023
25.038 	0.672635
25.1081 	0.672635
25.1782 	0.672635
25.2484 	0.672635
25.3185 	0.672635
25.3886 	0.672635
25.4588 	0.669945
25.5289 	0.669945
25.5991 	0.669945
25.6692 	0.669945
25.7393 	0.669945
25.8095 	0.669945
25.8796 	0.669945
25.9497 	0.667274
26.0199 	0.667274
26.09 	0.618889
26.1601 	0.618889
26.2303 	0.618889
26.3004 	0.618889
26.3705 	0.618889
26.4407 	0.614055
26.5108 	0.614055
26.5809 	0.614055
26.6511 	0.614055
26.7212 	0.614055
26.7913 	0.614055
26.8615 	0.614055
26.9316 	0.609323
27.0017 	0.609323
27.0719 	0.609323
27.142 	0.609323
27.2121 	0.609323
27.2823 	0.609323
27.3524 	0.604395
27.4225 	0.604395
27.4927 	0.604395
27.5628 	0.604395
27.6329 	0.604395
27.7031 	0.604395
27.7732 	0.604395
27.8434 	0.604395
27.9135 	0.599184
27.9836 	0.599184
28.0538 	0.599184
28.1239 	0.599184
28.194 	0.599184
28.2642 	0.599184
28.3343 	0.536753
28.4044 	0.530196
28.4746 	0.530196
28.5447 	0.530196
28.6148 	0.530196
28.685 	0.530196
28.7551 	0.530196
28.8252 	0.530196
28.8954 	0.530196
28.9655 	0.523418
29.0356 	0.523418
29.1058 	0.523418
29.1759 	0.523418
29.246 	0.523418
29.3162 	0.523418
29.3863 	0.523418
29.4564 	0.516246
29.5266 	0.516246
29.5967 	0.516246
29.6668 	0.516246
29.737 	0.516246
29.8071 	0.516246
29.8773 	0.516246
29.9474 	0.516246
30.0175 	0.508656
30.0877 	0.508656
30.1578 	0.508656
30.2279 	0.508656
30.2981 	0.508656
30.3682 	0.508656
30.4383 	0.508656
30.5085 	0.508656
30.5786 	0.500438
30.6487 	0.500438
30.7189 	0.500438
30.789 	0.500438
30.8591 	0.500438
30.9293 	0.500438
30.9994 	0.500438
31.0695 	0.500438
31.1397 	0.491626
31.2098 	0.491626
31.2799 	0.491626
31.3501 	0.491626
31.4202 	0.491626
31.4903 	0.491626
31.5605 	0.423712
31.6306 	0.423712
31.7007 	0.414816
31.7709 	0.414816
31.841 	0.414816
31.9111 	0.414816
31.9813 	0.414816
32.0514 	0.414816
32.1216 	0.414816
32.1917 	0.414816
32.2618 	0.414816
32.332 	0.405624
32.4021 	0.405624
32.4722 	0.405624
32.5424 	0.405624
32.6125 	0.405624
32.6826 	0.405624
32.7528 	0.405624
32.8229 	0.405624
32.893 	0.405624
32.9632 	0.39559
33.0333 	0.39559
33.1034 	0.39559
33.1736 	0.39559
33.2437 	0.39559
33.3138 	0.39559
33.384 	0.39559
33.4541 	0.39559
33.5242 	0.39559
33.5944 	0.385283
33.6645 	0.385283
33.7346 	0.385283
33.8048 	0.385283
33.8749 	0.385283
33.945 	0.385283
34.0152 	0.385283
34.0853 	0.385283
34.1554 	0.385283
34.2256 	0.373992
34.2957 	0.373992
34.3659 	0.373992
34.436 	0.373992
34.5061 	0.373992
34.5763 	0.373992
34.6464 	0.373992
34.7165 	0.373992
34.7867 	0.373992
34.8568 	0.373992
34.9269 	0.362281
34.9971 	0.362281
35.0672 	0.362281
35.1373 	0.362281
35.2075 	0.362281
35.2776 	0.362281
35.3477 	0.362281
35.4179 	0.362281
35.488 	0.362281
35.5581 	0.362281
35.6283 	0.350054
35.6984 	0.350054
35.7685 	0.350054
35.8387 	0.350054
35.9088 	0.350054
35.9789 	0.350054
36.0491 	0.350054
36.1192 	0.350054
36.1893 	0.350054
36.2595 	0.350054
36.3296 	0.336914
36.3997 	0.336914
36.4699 	0.336914
36.54 	0.336914
36.6102 	0.336914
36.6803 	0.336914
36.7504 	0.336914
36.8206 	0.336914
36.8907 	0.336914
36.9608 	0.336914
37.031 	0.336914
37.1011 	0.325507
37.1712 	0.325507
37.2414 	0.325507
37.3115 	0.325507
37.3816 	0.325507
37.4518 	0.325507
37.5219 	0.325507
37.592 	0.325507
37.6622 	0.315702
37.7323 	0.315702
37.8024 	0.315702
37.8726 	0.315702
37.9427 	0.315702
38.0128 	0.315702
38.083 	0.315702
38.1531 	0.315702
38.2232 	0.315702
38.2934 	0.306486
38.3635 	0.306486
38.4336 	0.306486
38.5038 	0.306486
38.5739 	0.306486
38.644 	0.306486
38.7142 	0.306486
38.7843 	0.306486
38.8545 	0.306486
38.9246 	0.298248
38.9947 	0.298248
39.0649 	0.298248
39.135 	0.298248
39.2051 	0.298248
39.2753 	0.298248
39.3454 	0.298248
39.4155 	0.298248
39.4857 	0.298248
39.5558 	0.290781
39.6259 	0.290781
39.6961 	0.290781
39.7662 	0.290781
39.8363 	0.290781
39.9065 	0.290781
39.9766 	0.290781
40.0467 	0.290781
40.1169 	0.283656
40.187 	0.283656
40.2571 	0.283656
40.3273 	0.283656
40.3974 	0.283656
40.4675 	0.283656
40.5377 	0.283656
40.6078 	0.283656
40.6779 	0.283656
40.7481 	0.276809
40.8182 	0.276809
40.8883 	0.276809
40.9585 	0.276809
41.0286 	0.276809
41.0988 	0.276809
41.1689 	0.276809
41.239 	0.276809
41.3092 	0.276809
41.3793 	0.270298
41.4494 	0.270298
41.5196 	0.270298
41.5897 	0.270298
41.6598 	0.270298
41.73 	0.270298
41.8001 	0.270298
41.8702 	0.270298
41.9404 	0.270298
42.0105 	0.264058
42.0806 	0.264058
42.1508 	0.264058
42.2209 	0.264058
42.291 	0.264058
42.3612 	0.264058
42.4313 	0.264058
42.5014 	0.264058
42.5716 	0.264058
42.6417 	0.257974
42.7118 	0.257974
42.782 	0.257974
42.8521 	0.257974
42.9222 	0.257974
42.9924 	0.257974
43.0625 	0.257974
43.1327 	0.257974
43.2028 	0.251985
43.2729 	0.251985
43.3431 	0.251985
43.4132 	0.251985
43.4833 	0.251985
43.5535 	0.251985
43.6236 	0.251985
43.6937 	0.251985
43.7639 	0.251985
43.834 	0.246064
43.9041 	0.246064
43.9743 	0.246064
44.0444 	0.246064
44.1145 	0.246064
44.1847 	0.246064
44.2548 	0.246064
44.3249 	0.246064
44.3951 	0.246064
44.4652 	0.24019
44.5353 	0.24019
44.6055 	0.24019
44.6756 	0.24019
44.7457 	0.24019
44.8159 	0.24019
44.886 	0.24019
44.9561 	0.24019
45.0263 	0.24019
45.0964 	0.234336
45.1665 	0.234336
45.2367 	0.234336
45.3068 	0.234336
45.377 	0.234336
45.4471 	0.234336
45.5172 	0.234336
45.5874 	0.234336
45.6575 	0.228489
45.7276 	0.228489
45.7978 	0.228489
45.8679 	0.228489
45.938 	0.228489
46.0082 	0.228489
46.0783 	0.228489
46.1484 	0.228489
46.2186 	0.228489
46.2887 	0.22264
46.3588 	0.22264
46.429 	0.22264
46.4991 	0.22264
46.5692 	0.22264
46.6394 	0.22264
46.7095 	0.22264
46.7796 	0.23275
46.8498 	0.23275
46.9199 	0.225768
46.99 	0.225768
47.0602 	0.225768
47.1303 	0.225768
47.2004 	0.225768
47.2706 	0.225768
47.3407 	0.225768
47.4108 	0.225768
47.481 	0.225768
47.5511 	0.218889
47.6213 	0.218889
47.6914 	0.218889
47.7615 	0.218889
47.8317 	0.218889
47.9018 	0.218889
47.9719 	0.218889
48.0421 	0.218889
48.1122 	0.218889
48.1823 	0.212098
48.2525 	0.212098
48.3226 	0.212098
48.3927 	0.212098
48.4629 	0.212098
48.533 	0.212098
48.6031 	0.212098
48.6733 	0.212098
48.7434 	0.205383
48.8135 	0.205383
48.8837 	0.205383
48.9538 	0.205383
49.0239 	0.205383
49.0941 	0.205383
49.1642 	0.205383
49.2343 	0.205383
49.3045 	0.205383
49.3746 	0.198735
49.4447 	0.198735
49.5149 	0.198735
49.585 	0.198735
49.6551 	0.198735
49.7253 	0.198735
49.7954 	0.198735
49.8656 	0.198735
49.9357 	0.198735
50.0058 	0.192144
50.076 	0.192144
50.1461 	0.192144
50.2162 	0.192144
50.2864 	0.192144
50.3565 	0.192144
50.4266 	0.192144
50.4968 	0.192144
50.5669 	0.192144
50.637 	0.185603
50.7072 	0.185603
50.7773 	0.185603
50.8474 	0.185603
50.9176 	0.185603
50.9877 	0.185603
51.0578 	0.185603
51.128 	0.185603
51.1981 	0.185603
51.2682 	0.179102
51.3384 	0.179102
51.4085 	0.179102
51.4786 	0.179102
51.5488 	0.179102
51.6189 	0.179102
51.689 	0.179102
51.7592 	0.179102
51.8293 	0.172636
51.8994 	0.172636
51.9696 	0.172636
52.0397 	0.172636
52.1099 	0.172636
52.18 	0.172636
52.2501 	0.172636
52.3203 	0.172636
52.3904 	0.172636
52.4605 	0.166201
52.5307 	0.166201
52.6008 	0.166201
52.6709 	0.166201
52.7411 	0.166201
52.8112 	0.166201
52.8813 	0.166201
52.9515 	0.166201
53.0216 	0.166201
53.0917 	0.159796
53.1619 	0.159796
53.232 	0.159796
53.3021 	0.159796
53.3723 	0.159796
53.4424 	0.159796
53.5125 	0.159796
53.5827 	0.159796
53.6528 	0.159796
53.7229 	0.153415
53.7931 	0.153415
53.8632 	0.153415
53.9333 	0.153415
54.0035 	0.153415
54.0736 	0.153415
54.1437 	0.153415
54.2139 	0.153415
54.284 	0.147052
54.3542 	0.147052
54.4243 	0.147052
54.4944 	0.147052
54.5646 	0.147052
54.6347 	0.147052
54.7048 	0.147052
54.775 	0.147052
54.8451 	0.147052
54.9152 	0.140706
54.9854 	0.140706
55.0555 	0.140706
55.1256 	0.140706
55.1958 	0.140706
55.2659 	0.140706
55.336 	0.140706
55.4062 	0.140706
55.4763 	0.140706
55.5464 	0.13438
55.6166 	0.13438
55.6867 	0.13438
55.7568 	0.13438
55.827 	0.13438
55.8971 	0.13438
55.9672 	0.13438
56.0374 	0.13438
56.1075 	0.13438
56.1776 	0.128067
56.2478 	0.128067
56.3179 	0.128067
56.3881 	0.128067
56.4582 	0.128067
56.5283 	0.128067
56.5985 	0.128067
56.6686 	0.128067
56.7387 	0.128067
56.8089 	0.121764
56.879 	0.121764
56.9491 	0.121764
57.0193 	0.121764
57.0894 	0.121764
57.1595 	0.121764
57.2297 	0.121764
57.2998 	0.121764
57.3699 	0.115471
57.4401 	0.115471
57.5102 	0.115471
57.5803 	0.115471
57.6505 	0.115471
57.7206 	0.115471
57.7907 	0.115471
57.8609 	0.115471
57.931 	0.115471
58.0011 	0.109188
58.0713 	0.109188
58.1414 	0.109188
58.2115 	0.109188
58.2817 	0.109188
58.3518 	0.109188
58.4219 	0.109188
58.4921 	0.109188
58.5622 	0.109188
58.6324 	0.102916
58.7025 	0.102916
58.7726 	0.102916
58.8428 	0.102916
58.9129 	0.102916
58.983 	0.102916
59.0532 	0.102916
59.1233 	0.102916
59.1934 	0.102916
59.2636 	0.096653
59.3337 	0.096653
59.4038 	0.096653
59.474 	0.096653
59.5441 	0.096653
59.6142 	0.096653
59.6844 	0.096653
59.7545 	0.096653
59.8246 	0.0903927
59.8948 	0.0903927
59.9649 	0.0903927
60.035 	0.0903927
60.1052 	0.0903927
60.1753 	0.0903927
60.2454 	0.0903927
60.3156 	0.0903927
60.3857 	0.0903927
60.4558 	0.0841349
60.526 	0.0841349
60.5961 	0.0841349
60.6662 	0.0841349
60.7364 	0.0841349
60.8065 	0.0841349
60.8767 	0.0841349
60.9468 	0.0841349
61.0169 	0.0841349
61.0871 	0.0778838
61.1572 	0.0778838
61.2273 	0.0778838
61.2975 	0.0778838
61.3676 	0.0778838
61.4377 	0.0778838
61.5079 	0.0778838
61.578 	0.0778838
61.6481 	0.0778838
61.7183 	0.0716374
61.7884 	0.0716374
61.8585 	0.0716374
61.9287 	0.0716374
61.9988 	0.0716374
62.0689 	0.0716374
62.1391 	0.0716374
62.2092 	0.0716374
62.2793 	0.0716374
62.3495 	0.0653976
62.4196 	0.0653976
62.4897 	0.0653976
62.5599 	0.0653976
62.63 	0.0653976
62.7001 	0.0653976
62.7703 	0.0653976
62.8404 	0.0653976
62.9105 	0.0591612
62.9807 	0.0591612
63.0508 	0.0591612
63.121 	0.0591612
63.1911 	0.0591612
63.2612 	0.0591612
63.3314 	0.0591612
63.4015 	0.0591612
63.4716 	0.0591612
63.5418 	0.0529297
63.6119 	0.0529297
63.682 	0.0529297
63.7522 	0.0529297
63.8223 	0.0529297
63.8924 	0.0529297
63.9626 	0.0529297
64.0327 	0.0529297
64.1028 	0.0529297
64.173 	0.0466973
64.2431 	0.0466973
64.3132 	0.0466973
64.3834 	0.0466973
64.4535 	0.0466973
64.5236 	0.0466973
64.5938 	0.0466973
64.6639 	0.0466973
64.734 	0.0466973
64.8042 	0.0404638
64.8743 	0.0404638
64.9444 	0.0404638
65.0146 	0.0404638
65.0847 	0.0404638
65.1548 	0.0404638
65.225 	0.0404638
65.2951 	0.0406819
65.3653 	0.0406819
65.4354 	0.0344197
65.5055 	0.0344197
65.5757 	0.0344197
65.6458 	0.0344197
65.7159 	0.0344197
65.7861 	0.0344197
65.8562 	0.0344197
65.9263 	0.0344197
65.9965 	0.0281573
66.0666 	0.0281573
66.1367 	0.0281573
66.2069 	0.0281573
66.277 	0.0281573
66.3471 	0.0281573
66.4173 	0.0281573
66.4874 	0.0281573
66.5575 	0.0281573
66.6277 	0.0219037
66.6978 	0.0219037
66.7679 	0.0219037
66.8381 	0.0219037
66.9082 	0.0219037
66.9783 	0.0219037
67.0485 	0.0219037
67.1186 	0.0219037
67.1887 	0.0219037
67.2589 	0.0156396
67.329 	0.0156396
67.3991 	0.0156396
67.4693 	0.0156396
67.5394 	0.0156396
67.6096 	0.0156396
67.6797 	0.0156396
67.7498 	0.0156396
67.82 	0.0156396
67.8901 	0.00935813
67.9602 	0.00935813
68.0304 	0.00935813
68.1005 	0.00935813
68.1706 	0.00935813
68.2408 	0.00935813
68.3109 	0.00935813
68.381 	0.00935813
68.4512 	0.00310884
68.5213 	0.00310884
68.5914 	0.00310884
68.6616 	0.00310884
68.7317 	0.00310884
68.8018 	0.00310884
68.872 	0.00310884
68.9421 	0.00310884
69.0122 	0.00310884
