/*--------------------------------*- C++ -*----------------------------------*\
  =========                 |
  \\      /  F ield         | OpenFOAM: The Open Source CFD Toolbox
   \\    /   O peration     | Website:  https://openfoam.org
    \\  /    A nd           | Version:  6
     \\/     M anipulation  |
\*---------------------------------------------------------------------------*/
FoamFile
{
    version     2.0;
    format      ascii;
    class       volScalarField;
    location    "20";
    object      p;
}
// * * * * * * * * * * * * * * * * * * * * * * * * * * * * * * * * * * * * * //

dimensions      [0 2 -2 0 0 0 0];

internalField   nonuniform List<scalar> 
8800
(
0.436226
0.386918
0.348957
0.320885
0.300711
0.286099
0.275465
0.267874
0.262911
0.260695
0.261819
0.265905
0.272491
0.281751
0.294374
0.311615
0.335434
0.368491
0.411393
0.463913
0.270696
0.277044
0.286197
0.289746
0.28714
0.281054
0.274106
0.267824
0.262957
0.259979
0.259543
0.261889
0.266284
0.272222
0.279172
0.286084
0.290876
0.290692
0.283977
0.275055
0.244235
0.250483
0.255005
0.258899
0.261869
0.262834
0.261751
0.259599
0.257488
0.256435
0.257218
0.259437
0.262089
0.264134
0.26448
0.262554
0.259079
0.25498
0.250143
0.246415
0.239941
0.242718
0.245358
0.247557
0.249336
0.250938
0.25205
0.25233
0.252048
0.251893
0.252426
0.253328
0.253838
0.25345
0.252255
0.250719
0.248902
0.246484
0.244005
0.242434
0.234908
0.236342
0.238233
0.240374
0.242129
0.243434
0.244493
0.245417
0.246121
0.246607
0.246992
0.247096
0.246776
0.246165
0.24528
0.243964
0.242124
0.240075
0.238638
0.23784
0.229998
0.230906
0.232233
0.233968
0.235752
0.237325
0.238596
0.239646
0.240573
0.241345
0.241722
0.241667
0.241312
0.240617
0.239524
0.238055
0.236427
0.234944
0.234022
0.233512
0.22526
0.225914
0.226986
0.228466
0.230081
0.231753
0.23335
0.234731
0.235861
0.236763
0.237244
0.237222
0.236721
0.235767
0.23451
0.23314
0.231778
0.230587
0.229889
0.22953
0.220791
0.221272
0.222228
0.223653
0.225218
0.226859
0.228547
0.230137
0.231488
0.23253
0.233166
0.233193
0.23263
0.231646
0.230453
0.2292
0.227923
0.226843
0.226278
0.226027
0.216654
0.217002
0.217805
0.219073
0.220495
0.221921
0.223358
0.224898
0.22647
0.227847
0.228565
0.228581
0.228159
0.227523
0.226705
0.225697
0.224617
0.223724
0.223291
0.223117
0.212889
0.213115
0.213846
0.215096
0.216532
0.218052
0.219648
0.221191
0.222675
0.224079
0.225114
0.225562
0.225474
0.224925
0.224112
0.223172
0.222161
0.221345
0.22101
0.220913
0.209817
0.209944
0.210508
0.211565
0.212818
0.214162
0.215636
0.2173
0.219079
0.220811
0.2221
0.222691
0.222758
0.222503
0.222031
0.22139
0.220651
0.220074
0.219871
0.219824
0.207068
0.207144
0.207506
0.208262
0.209248
0.210402
0.211737
0.213292
0.215059
0.217009
0.218706
0.219817
0.220403
0.220606
0.220521
0.220277
0.21994
0.21969
0.219608
0.219575
0.203982
0.204051
0.204309
0.204868
0.205695
0.206783
0.208181
0.20992
0.212015
0.214383
0.21653
0.218005
0.218882
0.219327
0.219584
0.219676
0.21967
0.219657
0.219637
0.219602
0.200106
0.200167
0.200411
0.200894
0.201628
0.20266
0.204086
0.205954
0.208326
0.211163
0.213898
0.215958
0.217388
0.218323
0.218904
0.219295
0.219558
0.219679
0.219689
0.219652
0.195361
0.19542
0.195689
0.196223
0.197053
0.19823
0.199903
0.202133
0.204988
0.208472
0.211917
0.214577
0.216427
0.217708
0.218632
0.219262
0.219648
0.219817
0.21985
0.219816
0.189799
0.189843
0.190161
0.190862
0.191809
0.193249
0.195255
0.19794
0.201422
0.205726
0.210057
0.213467
0.215916
0.217646
0.218844
0.219666
0.22014
0.220358
0.220424
0.220396
0.183479
0.18352
0.183868
0.184722
0.186005
0.187713
0.19017
0.193453
0.197732
0.203063
0.208494
0.21282
0.215969
0.218194
0.219731
0.220745
0.221333
0.22163
0.221737
0.221712
0.176279
0.176319
0.176715
0.17769
0.17929
0.181457
0.184471
0.188515
0.193817
0.20045
0.207223
0.21266
0.216637
0.219457
0.221423
0.222691
0.223465
0.223878
0.224025
0.223996
0.167921
0.167961
0.168468
0.169588
0.171464
0.174184
0.177905
0.182957
0.189571
0.197842
0.206289
0.21308
0.218042
0.221594
0.224048
0.22568
0.226697
0.22725
0.227435
0.227398
0.157878
0.157934
0.15854
0.159946
0.162253
0.165601
0.170275
0.176621
0.184926
0.195267
0.20577
0.214173
0.220337
0.224742
0.227797
0.229858
0.231166
0.231873
0.232098
0.23205
0.145567
0.145644
0.146433
0.148206
0.151109
0.155354
0.161294
0.169352
0.17983
0.192756
0.205769
0.216124
0.223702
0.229096
0.232865
0.23543
0.23707
0.237942
0.238217
0.238155
0.130189
0.130294
0.13134
0.133678
0.137488
0.142998
0.150681
0.161007
0.174263
0.190388
0.206411
0.219056
0.228273
0.234853
0.239468
0.242631
0.244662
0.245728
0.246058
0.24598
0.110583
0.110732
0.112188
0.115408
0.120572
0.127937
0.138062
0.151426
0.16824
0.188276
0.207846
0.223142
0.234265
0.242226
0.247845
0.251729
0.254243
0.255567
0.255956
0.255852
0.084987
0.0852287
0.08738
0.0920429
0.0993314
0.109489
0.123115
0.140575
0.161886
0.186595
0.210241
0.228537
0.241831
0.251401
0.258217
0.262978
0.266074
0.267694
0.268155
0.268022
0.0503225
0.0507937
0.0543356
0.0617029
0.0725964
0.0871388
0.105791
0.128649
0.15547
0.185593
0.213782
0.235374
0.251081
0.262488
0.27073
0.276586
0.280437
0.282435
0.282971
0.282792
0.000701915
0.00227192
0.00945051
0.0223414
0.0395527
0.060874
0.0864506
0.11611
0.149413
0.185565
0.218631
0.24372
0.262011
0.275449
0.285355
0.29257
0.297432
0.299973
0.300612
0.300365
-0.0727021
-0.0640543
-0.047697
-0.0249536
0.00172478
0.0320415
0.0660501
0.103537
0.144049
0.186816
0.225249
0.254278
0.275598
0.291527
0.303635
0.312828
0.319264
0.322846
0.32388
0.323781
-0.150364
-0.132278
-0.105943
-0.0728107
-0.0363279
0.00308714
0.0456092
0.0911335
0.139294
0.189463
0.234361
0.268458
0.293836
0.313195
0.328263
0.340144
0.348979
0.35429
0.356055
0.356115
-0.215229
-0.193466
-0.159129
-0.117461
-0.0724096
-0.0244868
0.0262192
0.0795321
0.13509
0.192299
0.243164
0.281772
0.310617
0.332777
0.350173
0.363868
0.374289
0.380596
0.382314
0.38253
-0.267382
-0.243381
-0.204019
-0.156377
-0.104657
-0.0497272
0.00809431
0.0684378
0.130822
0.194536
0.250765
0.293189
0.324748
0.348864
0.367706
0.382536
0.393758
0.400593
0.402687
0.403036
-0.310187
-0.285067
-0.242201
-0.189949
-0.13298
-0.072366
-0.0085629
0.0579034
0.126373
0.195931
0.256889
0.302507
0.336115
0.361571
0.381271
0.396692
0.408242
0.415382
0.417788
0.418131
-0.346729
-0.320967
-0.275564
-0.219571
-0.158242
-0.0928463
-0.0239341
0.047895
0.121781
0.196605
0.261792
0.310137
0.345398
0.37181
0.392022
0.407651
0.419243
0.426398
0.428943
0.429254
-0.379016
-0.35287
-0.30549
-0.246434
-0.181412
-0.111868
-0.038424
0.0382045
0.11702
0.196705
0.265831
0.316735
0.353485
0.380667
0.401183
0.416845
0.428371
0.435489
0.438131
0.438444
-0.408486
-0.382007
-0.332987
-0.271318
-0.203129
-0.129958
-0.0524709
0.0285331
0.11194
0.196266
0.269227
0.322579
0.360721
0.388622
0.409446
0.425182
0.436674
0.443709
0.446402
0.446712
-0.436024
-0.409241
-0.358801
-0.29486
-0.223903
-0.147525
-0.0663989
0.0186099
0.106339
0.195112
0.271823
0.327696
0.367359
0.396116
0.417354
0.433235
0.444728
0.451668
0.454338
0.454699
-0.46232
-0.435181
-0.383455
-0.317471
-0.244063
-0.164824
-0.0804292
0.00824105
0.100009
0.193098
0.273708
0.332338
0.373717
0.403474
0.425245
0.441361
0.45291
0.459754
0.462342
0.462697
-0.487642
-0.46013
-0.407243
-0.339439
-0.263848
-0.182062
-0.0947127
-0.00267611
0.0929002
0.190288
0.274917
0.336506
0.379846
0.410805
0.433275
0.449752
0.461423
0.468218
0.470673
0.470955
-0.512319
-0.484345
-0.430397
-0.360951
-0.283411
-0.199329
-0.109303
-0.0141683
0.0850101
0.186561
0.275299
0.340125
0.385734
0.418166
0.441527
0.458496
0.470362
0.477125
0.479428
0.479616
-0.536404
-0.507969
-0.453022
-0.38209
-0.302806
-0.216666
-0.124234
-0.0262697
0.076236
0.181794
0.274764
0.34313
0.391337
0.425535
0.450004
0.467608
0.479738
0.486484
0.488639
0.488696
-0.559957
-0.531033
-0.475158
-0.402894
-0.32206
-0.234093
-0.139519
-0.0390153
0.0665487
0.175957
0.27319
0.345369
0.396553
0.432854
0.458672
0.477054
0.489489
0.496174
0.498166
0.498099
-0.583015
-0.553603
-0.496822
-0.423359
-0.341154
-0.25157
-0.155107
-0.0523495
0.0560006
0.16901
0.270447
0.346648
0.401214
0.440029
0.467485
0.48678
0.499538
0.506094
0.507865
0.507685
-0.605591
-0.575629
-0.517986
-0.443445
-0.360027
-0.269039
-0.170925
-0.0661904
0.0446262
0.16092
0.266433
0.346779
0.405085
0.446916
0.476409
0.496776
0.509813
0.516133
0.517613
0.517326
-0.627524
-0.597046
-0.538597
-0.463107
-0.378626
-0.286416
-0.186892
-0.0804576
0.0324918
0.151724
0.261059
0.345564
0.407899
0.453303
0.485427
0.507119
0.520263
0.52607
0.527154
0.526763
-0.648766
-0.617809
-0.558614
-0.482284
-0.396881
-0.303628
-0.202909
-0.0950622
0.0197005
0.141468
0.254286
0.342825
0.409329
0.458835
0.494451
0.518084
0.53113
0.535797
0.536206
0.535736
-0.66936
-0.637875
-0.578006
-0.500928
-0.414716
-0.320584
-0.218878
-0.109881
0.00636413
0.130242
0.246096
0.33844
0.40905
0.462983
0.503123
0.530056
0.543376
0.545808
0.544551
0.544015
-0.689154
-0.657212
-0.596714
-0.518969
-0.432072
-0.337198
-0.234695
-0.124794
-0.00738753
0.118176
0.236527
0.332312
0.406781
0.465063
0.510573
0.542868
0.558718
0.559018
0.553488
0.550324
-0.708222
-0.67583
-0.614742
-0.536437
-0.448977
-0.353516
-0.250415
-0.139865
-0.0216277
0.105203
0.225452
0.324204
0.40223
0.464275
0.51532
0.554993
0.577225
0.580558
0.569202
0.563143
-0.726501
-0.693788
-0.63223
-0.553517
-0.465722
-0.369875
-0.266457
-0.155595
-0.0369308
0.090632
0.212138
0.313208
0.394683
0.459339
0.514378
0.561507
0.590291
0.591398
0.580749
0.567182
-0.743877
-0.711068
-0.649026
-0.570001
-0.482082
-0.385978
-0.2826
-0.171643
-0.0529595
0.0747836
0.196811
0.299044
0.383826
0.449634
0.503056
0.550953
0.580345
0.569425
0.507307
0.475601
-0.760239
-0.728377
-0.664697
-0.585382
-0.497446
-0.401363
-0.298587
-0.187751
-0.0694372
0.0578573
0.179603
0.281509
0.369029
0.435945
0.478557
0.514961
0.526961
0.485332
0.418329
0.376494
-0.802334
-0.74503
-0.679166
-0.600366
-0.512515
-0.416873
-0.314307
-0.204026
-0.0865381
0.0395825
0.160206
0.260467
0.347607
0.419955
0.436177
0.444681
0.420722
0.365159
0.293128
0.253299
-0.776491
-0.758524
-0.700623
-0.62291
-0.535044
-0.439957
-0.338373
-0.229293
-0.113554
0.00987479
0.127142
0.223558
0.30169
0.373608
0.375826
0.27549
0.183208
0.120796
0.0541118
0.0932208
-0.806417
-0.77558
-0.717054
-0.639386
-0.551949
-0.457395
-0.355952
-0.247875
-0.133672
-0.0127721
0.100938
0.193213
0.263235
0.3011
0.256456
0.115798
-0.000175641
-0.0778024
-0.167364
-0.106073
-0.829299
-0.796192
-0.73594
-0.658063
-0.570892
-0.476564
-0.375497
-0.268555
-0.156187
-0.0383381
0.0709346
0.157454
0.216604
0.220734
0.111301
-0.0624698
-0.205493
-0.305422
-0.41506
-0.367081
-0.851244
-0.817181
-0.75569
-0.677299
-0.590112
-0.496018
-0.39566
-0.289995
-0.179661
-0.0651966
0.0388486
0.118633
0.162548
0.128217
-0.0435796
-0.248716
-0.433402
-0.590203
-0.733432
-0.695204
-0.872638
-0.838344
-0.776137
-0.697302
-0.61003
-0.516242
-0.416713
-0.312449
-0.204387
-0.093672
0.00451468
0.0767413
0.100667
0.0242257
-0.1977
-0.432322
-0.657823
-0.848339
-1.0957
-1.19084
-0.894152
-0.860092
-0.797543
-0.718404
-0.631043
-0.537527
-0.438763
-0.335917
-0.230202
-0.123447
-0.0313847
0.0319784
0.0353105
-0.100057
-0.340034
-0.594616
-0.836052
-1.03852
-1.19979
-1.38581
-0.916659
-0.882806
-0.820177
-0.740921
-0.653591
-0.560434
-0.462535
-0.361276
-0.25821
-0.155931
-0.0705974
-0.0175556
-0.0441091
-0.229754
-0.473821
-0.727915
-0.950235
-1.08163
-1.11811
-1.13544
-0.940339
-0.9067
-0.844105
-0.764887
-0.677747
-0.585092
-0.488282
-0.388913
-0.288903
-0.191796
-0.113771
-0.0735481
-0.132238
-0.354281
-0.597428
-0.830812
-1.00809
-1.06271
-1.0776
-1.07843
-0.965429
-0.931843
-0.869306
-0.790215
-0.703386
-0.611422
-0.515915
-0.418781
-0.32225
-0.230968
-0.160778
-0.13781
-0.225102
-0.473675
-0.708804
-0.919091
-1.0354
-1.05419
-1.05536
-1.05548
-0.991783
-0.958227
-0.895725
-0.816818
-0.730423
-0.639308
-0.545297
-0.45076
-0.35815
-0.273103
-0.212023
-0.204782
-0.333237
-0.58634
-0.811289
-0.987649
-1.04066
-1.04424
-1.04448
-1.04372
-1.01915
-0.985599
-0.923174
-0.844527
-0.758664
-0.668564
-0.576232
-0.484606
-0.396504
-0.317627
-0.267745
-0.275349
-0.449601
-0.698599
-0.904879
-1.03016
-1.03953
-1.03885
-1.03744
-1.03662
-1.04687
-1.01354
-0.951343
-0.873027
-0.787808
-0.69887
-0.608393
-0.519853
-0.437024
-0.363993
-0.326504
-0.352586
-0.555773
-0.813864
-0.995298
-1.04224
-1.04898
-1.03572
-1.02672
-1.02496
-1.07438
-1.0415
-0.979727
-0.901842
-0.817392
-0.729734
-0.641289
-0.555809
-0.479022
-0.412039
-0.385602
-0.435409
-0.647145
-0.926188
-1.10972
-1.11664
-1.08538
-1.06283
-1.04958
-1.04264
-1.10093
-1.06872
-1.00762
-0.930328
-0.846757
-0.760508
-0.674205
-0.591618
-0.521095
-0.461882
-0.44257
-0.531263
-0.731882
-0.986216
-1.22329
-1.27454
-1.22427
-1.20825
-1.18581
-1.17236
-1.12559
-1.09425
-1.03416
-0.957649
-0.875077
-0.790276
-0.706191
-0.626292
-0.560987
-0.512958
-0.497106
-0.631521
-0.854939
-0.979959
-1.13224
-1.19735
-1.39239
-1.4775
-1.44925
-1.43532
-1.14679
-1.11688
-1.05826
-0.982776
-0.901363
-0.817902
-0.735956
-0.65876
-0.596001
-0.562571
-0.549832
-0.708085
-1.02986
-1.05331
-0.886597
-1.07375
-1.43172
-1.53374
-1.52177
-1.52223
-1.16315
-1.13521
-1.07865
-1.00455
-0.924407
-0.842223
-0.761801
-0.687438
-0.624919
-0.601618
-0.602225
-0.763844
-1.21781
-1.48303
-1.46741
-1.69379
-1.75463
-1.6433
-1.57136
-1.5882
-1.17355
-1.14804
-1.09407
-1.02175
-0.942853
-0.861981
-0.782195
-0.709652
-0.647494
-0.620745
-0.648335
-0.835721
-1.43059
-2.11421
-2.63164
-2.93296
-2.89256
-2.56498
-2.21633
-2.11259
-1.17616
-1.15388
-1.10343
-1.0332
-0.955537
-0.8756
-0.79611
-0.722918
-0.659495
-0.630422
-0.645499
-0.880973
-1.4792
-2.42384
-3.07678
-3.30666
-3.24326
-3.04581
-2.76868
-2.5901
-1.1706
-1.15194
-1.10569
-1.03802
-0.961631
-0.881996
-0.802338
-0.725533
-0.659324
-0.614824
-0.608623
-0.766999
-1.1605
-1.69965
-2.29176
-2.49762
-2.44245
-2.23138
-2.01272
-1.8699
-1.15546
-1.14079
-1.1001
-1.03593
-0.96068
-0.881055
-0.799747
-0.718439
-0.645293
-0.559787
-0.547882
-0.433587
-0.585651
-0.677346
-0.674647
-0.512686
-0.204805
0.0848914
0.281549
0.366702
-1.13228
-1.12163
-1.08713
-1.02704
-0.952852
-0.873012
-0.789175
-0.703748
-0.611599
-0.516826
-0.405171
-0.283204
0.0179905
0.470414
1.00879
1.55754
2.00139
2.28934
2.42928
2.47303
-1.1028
-1.09617
-1.0684
-1.01239
-0.938961
-0.858511
-0.773763
-0.683328
-0.583321
-0.466243
-0.323189
-0.183855
0.112502
0.669299
1.36696
1.99932
2.45334
2.72268
2.84907
2.88865
-1.06871
-1.06532
-1.04429
-0.991928
-0.919241
-0.840041
-0.755996
-0.665254
-0.562989
-0.435143
-0.293649
-0.162816
-0.00325875
0.409792
0.960685
1.44238
1.80525
2.02102
2.12659
2.16327
-1.02804
-1.02692
-1.01145
-0.963434
-0.893491
-0.816575
-0.736409
-0.651086
-0.553108
-0.431123
-0.287229
-0.189418
-0.113707
0.12338
0.476488
0.799359
1.04177
1.19333
1.27309
1.29767
-0.962257
-0.962465
-0.951295
-0.912532
-0.852502
-0.785445
-0.716586
-0.642866
-0.552987
-0.438242
-0.299757
-0.197064
-0.123073
0.00541116
0.255696
0.467314
0.616988
0.713766
0.766118
0.784676
-0.870914
-0.870249
-0.862133
-0.836553
-0.795004
-0.746543
-0.69539
-0.638443
-0.564066
-0.456251
-0.326049
-0.222851
-0.132723
-0.0535053
0.111714
0.239981
0.33205
0.385253
0.411462
0.418561
-0.785467
-0.783907
-0.778249
-0.764131
-0.740407
-0.71093
-0.678327
-0.640611
-0.586706
-0.491861
-0.365983
-0.263692
-0.14925
-0.0875451
-0.0181181
0.0600089
0.117015
0.156062
0.173899
0.17755
-0.732193
-0.730552
-0.727296
-0.720725
-0.709231
-0.694881
-0.680282
-0.665305
-0.639636
-0.576175
-0.473361
-0.36312
-0.227491
-0.169263
-0.13093
-0.079617
-0.033663
0.00144365
0.0190728
0.0205332
-0.711991
-0.711331
-0.7102
-0.708114
-0.705038
-0.703415
-0.707603
-0.72229
-0.745032
-0.757837
-0.721755
-0.591255
-0.41914
-0.341505
-0.288067
-0.220874
-0.158502
-0.117535
-0.0971831
-0.0973131
-0.706815
-0.707281
-0.708473
-0.710796
-0.716031
-0.728465
-0.75608
-0.813817
-0.921958
-1.06305
-1.14121
-0.955589
-0.708204
-0.58851
-0.500935
-0.397495
-0.299728
-0.232677
-0.204711
-0.207275
-0.698533
-0.700178
-0.703749
-0.710519
-0.724054
-0.751061
-0.804791
-0.914888
-1.13846
-1.4867
-1.67956
-1.43721
-1.06823
-0.867115
-0.72656
-0.570729
-0.443652
-0.358998
-0.332861
-0.336806
-0.671141
-0.673675
-0.678891
-0.688891
-0.708587
-0.746592
-0.820837
-0.973983
-1.29427
-1.82861
-2.12202
-1.83427
-1.39595
-1.13846
-0.934
-0.754819
-0.625028
-0.556262
-0.540113
-0.541987
-0.614361
-0.617149
-0.622815
-0.633788
-0.655084
-0.696036
-0.77578
-0.940966
-1.29134
-1.87435
-2.16469
-1.86996
-1.48741
-1.25185
-1.03753
-0.89764
-0.827067
-0.79887
-0.784477
-0.780836
-0.52798
-0.530333
-0.535119
-0.544367
-0.562648
-0.597567
-0.665245
-0.804315
-1.09951
-1.59144
-1.83929
-1.62165
-1.35679
-1.14425
-0.983001
-0.914459
-0.912363
-0.912454
-0.900047
-0.893314
-0.422009
-0.423498
-0.42658
-0.432584
-0.444799
-0.468147
-0.512979
-0.6036
-0.793807
-1.12054
-1.30795
-1.1981
-1.01537
-0.848848
-0.765244
-0.770258
-0.803194
-0.812401
-0.807495
-0.803079
-0.311841
-0.312418
-0.313753
-0.316472
-0.322348
-0.333734
-0.355358
-0.397942
-0.484892
-0.640763
-0.742303
-0.665703
-0.561492
-0.492027
-0.512572
-0.563476
-0.595475
-0.605388
-0.606915
-0.605983
-0.21167
-0.211579
-0.211662
-0.212055
-0.213319
-0.215954
-0.220991
-0.230613
-0.248603
-0.271302
-0.269778
-0.24632
-0.219985
-0.256657
-0.322255
-0.36964
-0.391643
-0.400427
-0.403593
-0.404089
-0.130156
-0.129728
-0.129211
-0.128491
-0.127416
-0.125523
-0.122137
-0.116149
-0.105351
-0.0842241
-0.0539592
-0.0344268
-0.0693088
-0.129044
-0.181983
-0.21539
-0.232621
-0.239779
-0.243508
-0.244589
-0.0697641
-0.0692635
-0.0686323
-0.0677086
-0.0660113
-0.0627626
-0.0569208
-0.0468604
-0.0303796
-0.00587056
0.0152568
0.0148741
-0.0174548
-0.0605314
-0.0954929
-0.117257
-0.128067
-0.133527
-0.136596
-0.137613
-0.0285589
-0.0281303
-0.0276296
-0.0269391
-0.0255247
-0.0225855
-0.0172333
-0.0083117
0.00528767
0.0227079
0.032964
0.0257087
0.00223752
-0.0250566
-0.0465709
-0.0599145
-0.066895
-0.0705016
-0.0725359
-0.0732281
-0.00260164
-0.0022935
-0.00198507
-0.00165526
-0.000792386
0.00125686
0.00514204
0.0115526
0.020757
0.0310438
0.0344371
0.0262172
0.0102524
-0.00652944
-0.0195712
-0.0278366
-0.0323276
-0.0346624
-0.0359227
-0.0363439
0.0122882
0.0124832
0.0126233
0.0126424
0.0129792
0.0141298
0.016512
0.0204792
0.0259438
0.0312633
0.0312788
0.0242584
0.0136431
0.00324633
-0.00478637
-0.0100419
-0.0130268
-0.0145768
-0.0153604
-0.0156136
0.0196396
0.0197504
0.0197676
0.0195826
0.0195578
0.0200259
0.0212633
0.0234263
0.0262939
0.028589
0.0272188
0.0217569
0.0146879
0.00809579
0.00300332
-0.000440682
-0.00248279
-0.00354092
-0.00404216
-0.00419851
0.0220849
0.0221405
0.0220858
0.0218011
0.0215615
0.0215861
0.0220555
0.0230303
0.024292
0.0249211
0.0231378
0.0190426
0.0142844
0.00999602
0.00667285
0.00435965
0.00293739
0.0022023
0.00187674
0.00177857
0.0214476
0.0214705
0.021384
0.0210751
0.0207353
0.0205163
0.0205323
0.020798
0.0211362
0.0209333
0.0192051
0.0161993
0.0129589
0.0101075
0.00788873
0.00630771
0.00530782
0.00479331
0.00457826
0.00451558
0.0189275
0.0189334
0.0188422
0.0185528
0.0181958
0.0178773
0.0176697
0.017572
0.0174544
0.0169162
0.0154309
0.0132609
0.0110471
0.00913104
0.00763277
0.00654487
0.00584184
0.00548169
0.0053378
0.00529834
0.015279
0.0152777
0.0151968
0.0149502
0.0146259
0.0143003
0.0140203
0.0137807
0.0134934
0.0129088
0.0117541
0.0102442
0.00876088
0.0074898
0.0064894
0.00574991
0.00526347
0.00501611
0.00492246
0.00489632
0.0109591
0.0109555
0.0108918
0.0106995
0.0104376
0.0101674
0.0099165
0.00967937
0.00939982
0.00893099
0.00813784
0.00716898
0.00624044
0.00544757
0.00481615
0.00433789
0.0040154
0.0038519
0.00379286
0.00377615
0.00623729
0.00623356
0.00619094
0.00606233
0.00589194
0.00572249
0.00556453
0.00541342
0.00523868
0.00496727
0.0045382
0.00403262
0.00355545
0.00314732
0.00281709
0.00255727
0.00237309
0.00227903
0.00224583
0.00223428
0.00129426
0.00130074
0.00133404
0.00135826
0.00133029
0.00128183
0.00123013
0.00117919
0.00112292
0.00104919
0.000944207
0.000816216
0.000693006
0.000584275
0.000494304
0.00042403
0.000382587
0.000386238
0.000416443
0.000432074
-0.540963
-0.317367
-0.10668
0.0674391
0.21046
0.327098
0.426706
0.50831
0.532958
0.529177
-0.189798
-0.0442868
0.0914836
0.210029
0.31135
0.396483
0.464514
0.511435
0.536812
0.552843
0.0483752
0.143317
0.237991
0.32198
0.394262
0.454574
0.502227
0.538164
0.564077
0.583228
0.217646
0.284855
0.353088
0.414293
0.467188
0.512012
0.549214
0.579689
0.60251
0.621542
0.350625
0.400401
0.450371
0.496578
0.537534
0.573422
0.604457
0.630446
0.64995
0.668203
0.459953
0.499136
0.538089
0.575506
0.609801
0.640581
0.66756
0.690025
0.706849
0.724477
0.553848
0.588484
0.623297
0.656757
0.68779
0.715873
0.740374
0.760363
0.775001
0.792161
0.644798
0.678918
0.713028
0.745744
0.775829
0.802716
0.825737
0.843955
0.856841
0.873504
0.741726
0.779164
0.815004
0.848409
0.878396
0.904433
0.926126
0.942877
0.954799
0.971057
0.856463
0.897882
0.935493
0.968898
0.997844
1.02227
1.04228
1.05785
1.06994
1.08611
0.999087
1.04033
1.07596
1.10584
1.13134
1.15324
1.172
1.18767
1.20091
1.21694
1.17114
1.20333
1.23059
1.25323
1.27355
1.29244
1.31032
1.32719
1.34219
1.35803
1.35769
1.37501
1.39228
1.40913
1.42537
1.4402
1.45418
1.4687
1.484
1.50146
1.54121
1.55112
1.56432
1.57533
1.58478
1.5945
1.60518
1.61544
1.62483
1.65025
1.75874
1.753
1.74
1.72575
1.71951
1.72528
1.74341
1.77194
1.80575
1.84207
2.06195
1.9261
1.8467
1.80429
1.78693
1.79093
1.81848
1.87641
1.98406
2.16228
0.339878
0.33358
0.325852
0.314741
0.301179
0.288534
0.278128
0.270096
0.264342
0.260932
0.260408
0.263006
0.268015
0.275194
0.284613
0.296343
0.309827
0.322702
0.331656
0.339175
0.248974
0.254903
0.262984
0.269127
0.27221
0.271714
0.268647
0.264641
0.260975
0.258563
0.258248
0.260272
0.263839
0.26811
0.272043
0.274161
0.272993
0.268287
0.261181
0.253317
0.242228
0.244604
0.247891
0.250695
0.253178
0.2554
0.256602
0.256449
0.255441
0.254491
0.254494
0.255687
0.257248
0.258266
0.258004
0.256376
0.254089
0.251621
0.248563
0.245514
0.237422
0.238508
0.24046
0.242859
0.244791
0.246244
0.247491
0.248474
0.24901
0.249193
0.249503
0.250022
0.250241
0.249874
0.249025
0.247901
0.246392
0.244272
0.242052
0.240541
0.232435
0.233062
0.234234
0.236073
0.237997
0.239637
0.240886
0.241894
0.242804
0.243586
0.24411
0.244272
0.244069
0.243602
0.242844
0.241655
0.240017
0.23821
0.236734
0.235901
0.227608
0.228033
0.228876
0.230299
0.231955
0.233638
0.235194
0.236538
0.237657
0.238614
0.239271
0.239438
0.239189
0.238543
0.237512
0.236181
0.234715
0.233302
0.232223
0.23166
0.222975
0.223273
0.223963
0.225251
0.226802
0.228453
0.230172
0.231782
0.233126
0.234181
0.234956
0.235276
0.235035
0.234261
0.233089
0.231764
0.230436
0.22916
0.228245
0.22783
0.218694
0.218902
0.219462
0.220612
0.222057
0.223555
0.225082
0.226684
0.228299
0.229716
0.230692
0.230993
0.230643
0.229905
0.228987
0.227937
0.226777
0.225659
0.224904
0.2246
0.214695
0.214823
0.215281
0.216336
0.217708
0.219162
0.220632
0.222097
0.22356
0.225015
0.226189
0.226735
0.226755
0.226385
0.225707
0.224808
0.223783
0.222793
0.22216
0.221953
0.211271
0.211331
0.211692
0.212659
0.213979
0.215402
0.216953
0.218603
0.220286
0.221901
0.223295
0.224138
0.224329
0.224017
0.223396
0.222632
0.221751
0.220889
0.220384
0.220262
0.208445
0.20847
0.208705
0.209403
0.210436
0.211594
0.212868
0.214305
0.215972
0.217805
0.219523
0.220695
0.221261
0.221449
0.221333
0.220978
0.220487
0.219983
0.219716
0.219656
0.205606
0.205622
0.205782
0.206252
0.207038
0.208048
0.209297
0.210824
0.212602
0.214636
0.216724
0.218362
0.219352
0.219828
0.219993
0.219986
0.219868
0.219717
0.219642
0.219607
0.202151
0.202171
0.202317
0.202683
0.20331
0.20422
0.205413
0.206987
0.208999
0.21143
0.214028
0.216157
0.217572
0.218477
0.21902
0.219357
0.21955
0.21966
0.219689
0.219662
0.197846
0.19786
0.198011
0.198374
0.19899
0.199904
0.201202
0.202967
0.20527
0.208141
0.211344
0.214125
0.2161
0.217481
0.218349
0.218943
0.219418
0.219683
0.219762
0.219746
0.192678
0.192678
0.192835
0.193281
0.194018
0.195123
0.196662
0.198773
0.201574
0.205097
0.209089
0.212607
0.215154
0.216933
0.218194
0.21907
0.219659
0.219966
0.220075
0.220077
0.18675
0.186737
0.18691
0.18745
0.188401
0.189703
0.191583
0.194155
0.197553
0.201882
0.206849
0.211297
0.21459
0.21694
0.21857
0.219711
0.220414
0.2208
0.220966
0.220988
0.180014
0.179987
0.180174
0.1808
0.18191
0.18369
0.185964
0.18911
0.193294
0.198652
0.204836
0.210439
0.214597
0.217582
0.219677
0.221108
0.221997
0.222508
0.222744
0.22278
0.172274
0.172236
0.172476
0.173224
0.174576
0.176643
0.179512
0.183395
0.188589
0.195259
0.202975
0.209973
0.215204
0.218958
0.22161
0.223407
0.224567
0.225256
0.225572
0.225618
0.163151
0.163112
0.163408
0.164334
0.165965
0.168443
0.171976
0.176848
0.183362
0.191705
0.201326
0.210032
0.216518
0.221212
0.224521
0.226784
0.228279
0.229186
0.229591
0.229644
0.152023
0.151973
0.152373
0.153519
0.155554
0.158666
0.163122
0.169289
0.177502
0.187963
0.199944
0.210716
0.218737
0.224533
0.228603
0.231414
0.233298
0.234449
0.234952
0.235016
0.138251
0.138195
0.138747
0.140251
0.14287
0.146853
0.152574
0.160458
0.170883
0.184032
0.198914
0.212168
0.221986
0.229059
0.234053
0.237513
0.239851
0.241282
0.241905
0.241978
0.120883
0.120829
0.121621
0.123652
0.127121
0.132383
0.139883
0.150108
0.16344
0.179963
0.198347
0.21452
0.226431
0.235013
0.24109
0.245325
0.248203
0.249963
0.250726
0.250808
0.0984598
0.0984236
0.0996098
0.102475
0.107276
0.114494
0.124593
0.138063
0.155184
0.17588
0.19841
0.217944
0.23225
0.242575
0.249931
0.255099
0.258637
0.260798
0.26172
0.261814
0.068646
0.0686876
0.070584
0.0749038
0.081974
0.0923096
0.106287
0.124241
0.146249
0.171999
0.199306
0.222604
0.239589
0.251897
0.260751
0.267048
0.271404
0.274061
0.275176
0.275278
0.0272736
0.0275732
0.031035
0.0383612
0.0496414
0.0651146
0.0848544
0.108875
0.136979
0.168631
0.201251
0.228634
0.248524
0.263029
0.273608
0.281277
0.286692
0.28999
0.291324
0.291421
-0.0334412
-0.0318081
-0.0235304
-0.00956642
0.00947073
0.0331494
0.0609479
0.0926578
0.127934
0.166152
0.204442
0.236084
0.259001
0.275833
0.288317
0.297584
0.304272
0.308413
0.310056
0.310171
-0.106732
-0.103432
-0.0875079
-0.0631407
-0.0336071
-0.000418937
0.0361491
0.076069
0.119085
0.164641
0.209649
0.246763
0.273894
0.294189
0.309607
0.321458
0.33035
0.335851
0.337838
0.338288
-0.181253
-0.172877
-0.149161
-0.114972
-0.0756435
-0.0332224
0.0120809
0.0602254
0.111
0.163948
0.215778
0.258451
0.289819
0.313568
0.331977
0.346402
0.357484
0.364252
0.367419
0.368336
-0.239858
-0.230133
-0.201585
-0.160576
-0.113744
-0.0635784
-0.0105139
0.0452247
0.103294
0.163201
0.221356
0.268985
0.303931
0.330376
0.350873
0.366954
0.379251
0.387239
0.391221
0.392341
-0.287514
-0.277126
-0.24522
-0.199386
-0.146948
-0.0906737
-0.031176
0.0311356
0.0957542
0.161999
0.225846
0.277756
0.31556
0.343966
0.365814
0.382885
0.395995
0.404756
0.40916
0.41033
-0.327205
-0.316672
-0.282626
-0.232989
-0.176024
-0.114762
-0.0499069
0.0180235
0.0883945
0.160302
0.229241
0.284867
0.324977
0.3548
0.377517
0.395101
0.408531
0.417612
0.422133
0.42335
-0.361755
-0.351185
-0.315548
-0.262898
-0.2022
-0.136696
-0.0672117
0.0056719
0.0811687
0.158212
0.231794
0.290757
0.332898
0.36389
0.38721
0.405022
0.418482
0.427574
0.432058
0.433293
-0.39273
-0.382177
-0.345318
-0.2902
-0.226322
-0.15717
-0.0835973
-0.00627547
0.0738979
0.155713
0.233708
0.295901
0.339948
0.371967
0.395755
0.413717
0.427185
0.436293
0.440783
0.441912
-0.421309
-0.41075
-0.372893
-0.315635
-0.249038
-0.176708
-0.0995106
-0.0181638
0.0663406
0.152694
0.234961
0.300286
0.34623
0.379316
0.403651
0.421841
0.435354
0.444462
0.44896
0.449955
-0.448307
-0.43771
-0.398957
-0.339824
-0.270815
-0.19567
-0.115232
-0.0302399
0.0582792
0.148923
0.235371
0.303965
0.352004
0.386336
0.41134
0.429844
0.443467
0.452561
0.457026
0.457936
-0.474166
-0.463526
-0.423922
-0.363106
-0.291952
-0.214307
-0.130971
-0.0426747
0.0495624
0.144314
0.235029
0.307101
0.357425
0.39319
0.419023
0.437967
0.451785
0.460895
0.465306
0.466187
-0.499237
-0.488472
-0.448073
-0.38574
-0.312684
-0.232807
-0.146851
-0.0555429
0.0401598
0.138895
0.233871
0.309598
0.362488
0.399936
0.426817
0.446359
0.46048
0.469654
0.473955
0.474797
-0.523709
-0.512753
-0.471613
-0.407873
-0.333108
-0.251233
-0.162919
-0.0688666
0.0300422
0.132542
0.231738
0.311355
0.367159
0.406597
0.434751
0.455059
0.46958
0.478858
0.483049
0.48383
-0.547616
-0.53644
-0.494578
-0.429573
-0.353283
-0.26962
-0.179206
-0.0826839
0.0191426
0.125167
0.228561
0.312267
0.371307
0.413096
0.442794
0.464048
0.479072
0.488482
0.492543
0.493205
-0.571039
-0.559593
-0.517045
-0.450863
-0.373217
-0.287969
-0.195697
-0.0969818
0.0074773
0.116796
0.224252
0.312175
0.374779
0.419311
0.450889
0.473287
0.48889
0.498413
0.502305
0.50282
-0.593899
-0.582219
-0.538985
-0.471732
-0.392874
-0.306228
-0.212325
-0.111686
-0.00487859
0.107425
0.218733
0.310913
0.377388
0.425101
0.458962
0.482743
0.498982
0.508559
0.512221
0.512559
-0.616216
-0.60427
-0.560349
-0.49213
-0.412204
-0.32434
-0.229021
-0.126708
-0.0178634
0.09708
0.211967
0.308332
0.378876
0.430237
0.466926
0.492439
0.509337
0.518783
0.522055
0.522197
-0.63782
-0.62568
-0.581095
-0.512011
-0.431146
-0.342218
-0.245702
-0.141969
-0.0313915
0.0858436
0.203939
0.304315
0.378999
0.434393
0.474602
0.502464
0.520096
0.529022
0.53159
0.531484
-0.658802
-0.646408
-0.60118
-0.531334
-0.449648
-0.359805
-0.262267
-0.157371
-0.0453518
0.0738193
0.194678
0.298766
0.377524
0.437162
0.481626
0.51291
0.531805
0.539613
0.540666
0.54013
-0.679019
-0.666376
-0.620584
-0.550042
-0.467625
-0.377012
-0.278626
-0.172782
-0.0596201
0.061099
0.184261
0.291637
0.374254
0.438075
0.487325
0.523497
0.545344
0.55219
0.550013
0.547933
-0.698516
-0.68564
-0.639249
-0.568077
-0.485034
-0.393768
-0.294688
-0.18811
-0.074076
0.0478422
0.172808
0.282905
0.369077
0.436679
0.490687
0.533058
0.56068
0.569869
0.564697
0.552865
-0.717203
-0.704171
-0.65726
-0.585605
-0.50209
-0.410364
-0.310804
-0.203784
-0.0892029
0.0334886
0.159714
0.271876
0.361342
0.432275