/*--------------------------------*- C++ -*----------------------------------*\
  =========                 |
  \\      /  F ield         | OpenFOAM: The Open Source CFD Toolbox
   \\    /   O peration     | Website:  https://openfoam.org
    \\  /    A nd           | Version:  6
     \\/     M anipulation  |
\*---------------------------------------------------------------------------*/
FoamFile
{
    version     2.0;
    format      ascii;
    class       surfaceScalarField;
    location    "20";
    object      phi;
}
// * * * * * * * * * * * * * * * * * * * * * * * * * * * * * * * * * * * * * //

dimensions      [0 3 -1 0 0 0 0];

internalField   nonuniform List<scalar> 
17370
(
-0.0899983
0.08985
0.289159
-0.0714559
0.0537499
0.364482
-0.0381163
0.0276884
0.426596
-0.0196341
0.0145968
0.504289
-0.0107505
0.00826142
0.601891
-0.00626815
0.00489564
0.72043
-0.00373173
0.00288739
0.863751
-0.00214193
0.00158532
1.03601
-0.00107969
0.000684759
1.2429
-0.000301062
-5.35896e-05
1.49155
0.000401125
-0.000791782
1.49158
0.00118661
-0.00168635
1.24319
0.00223712
-0.00297744
1.03638
0.00381674
-0.00497326
0.864063
0.00633745
-0.00832261
0.721043
0.0108064
-0.0146475
0.603056
0.01968
-0.0277284
0.507488
0.0381507
-0.0537781
0.431795
0.0714786
-0.0898649
0.365162
0.090007
0.199004
-0.128136
0.0882279
0.0399085
-0.364594
0.353417
-0.074664
0.0858412
-0.446478
0.454321
-0.0843382
0.0764952
-0.521189
0.529892
-0.0684051
0.0597018
-0.612779
0.621559
-0.0515223
0.0427416
-0.726862
0.734153
-0.0352646
0.0279731
-0.867434
0.872526
-0.0223636
0.0172719
-1.03845
1.04183
-0.0135044
0.010119
-1.24462
1.24698
-0.00757653
0.00521986
-1.49268
1.49461
-0.00332528
0.00138885
-1.49247
1.4942
0.000300492
-0.00202943
-1.24402
1.24588
0.0039235
-0.00578407
-1.0375
1.04001
0.00810236
-0.0106049
-0.866065
0.869801
0.0139506
-0.0176862
-0.72437
0.729948
0.0227404
-0.0283186
-0.608702
0.616147
0.0355754
-0.0430206
-0.514914
0.523066
0.0517689
-0.0599216
-0.439869
0.447937
0.0685973
-0.0766661
-0.375314
0.376786
0.0844835
-0.0859548
-0.25736
0.222557
0.074741
-0.0399382
-0.068529
0.0587203
0.00980876
-0.0517344
0.0582991
-0.374132
0.367567
-0.0573685
0.053605
-0.453583
0.457346
-0.0485021
0.0445353
-0.527914
0.53188
-0.0406834
0.0370429
-0.621541
0.625181
-0.0329457
0.0288899
-0.735316
0.739372
-0.0243557
0.020243
-0.874259
0.878372
-0.0159917
0.0123839
-1.0434
1.047
-0.00876378
0.00569206
-1.24849
1.25156
-0.00246594
-0.000562557
-1.49658
1.49961
0.00357188
-0.00675719
-1.49717
1.50036
0.00978648
-0.0133443
-1.25005
1.2536
0.0168901
-0.0210716
-1.04591
1.05009
0.0251174
-0.0295816
-0.877792
0.882256
0.0335787
-0.0376151
-0.739973
0.744009
0.0412028
-0.0449988
-0.626826
0.630622
0.0489178
-0.0539749
-0.534855
0.539912
0.0576904
-0.0585636
-0.457548
0.458421
0.0519337
-0.031843
-0.335895
0.315804
0.00984131
-0.0684368
0.0585955
-0.052989
0.0490151
0.00397383
-0.0330196
0.0435239
-0.358167
0.347663
-0.0472039
0.046569
-0.459305
0.45994
-0.0435024
0.0401298
-0.535802
0.539175
-0.0363334
0.0330224
-0.628483
0.631794
-0.0296012
0.026598
-0.742546
0.745549
-0.0234009
0.0203733
-0.881843
0.88487
-0.0169438
0.0136678
-1.05051
1.05379
-0.0100121
0.00660027
-1.2549
1.25831
-0.00279085
-0.00084733
-1.50307
1.50671
0.00446719
-0.00822491
-1.50395
1.5077
0.0115657
-0.0151314
-1.25725
1.26082
0.0183193
-0.0216451
-1.05386
1.05718
0.0245787
-0.0276753
-0.88574
0.888837
0.0305845
-0.033906
-0.747298
0.75062
0.0371307
-0.0408435
-0.634471
0.638184
0.0441475
-0.0471386
-0.544302
0.547293
0.0476968
-0.0439124
-0.456799
0.453014
0.0332871
-0.0160282
-0.296591
0.279332
0.00401435
-0.0528284
0.0488141
-0.0459647
0.0435116
0.00245312
-0.0224899
0.0327298
-0.337052
0.326812
-0.0384595
0.039459
-0.459599
0.4586
-0.0382982
0.036082
-0.541822
0.544038
-0.0334907
0.0309439
-0.634801
0.637347
-0.0279278
0.0250713
-0.748567
0.751424
-0.0218663
0.0189592
-0.887797
0.890705
-0.015777
0.0128233
-1.05686
1.05982
-0.00947203
0.00625279
-1.26165
1.26487
-0.00251766
-0.00115149
-1.51039
1.51406
0.004795
-0.00846455
-1.51146
1.51513
0.0115903
-0.0148156
-1.26421
1.26743
0.0176407
-0.0206761
-1.06029
1.06332
0.0234487
-0.0265085
-0.891948
0.895007
0.0292409
-0.032134
-0.753885
0.756778
0.0345749
-0.0370564
-0.641273
0.643755
0.039183
-0.0402323
-0.549122
0.550171
0.0391207
-0.0332322
-0.447877
0.441988
0.0228221
-0.00993602
-0.264373
0.251487
0.00250149
-0.0457191
0.0432176
-0.0414832
0.0397764
0.00170681
-0.0162388
0.0252411
-0.317137
0.308134
-0.0316499
0.0336818
-0.457064
0.455032
-0.0331956
0.0314917
-0.545988
0.547692
-0.0293252
0.0272979
-0.639553
0.641581
-0.0250153
0.0228237
-0.753948
0.756139
-0.0202298
0.0176947
-0.893469
0.896005
-0.0147372
0.0119186
-1.0627
1.06552
-0.00868244
0.00559195
-1.268
1.27109
-0.00199073
-0.00152218
-1.51767
1.52118
0.0050019
-0.00850439
-1.5187
1.5222
0.0114715
-0.0145486
-1.27056
1.27364
0.0172073
-0.0199808
-1.06626
1.06903
0.0223417
-0.0247452
-0.897797
0.9002
0.0267763
-0.0288917
-0.759221
0.761336
0.0307803
-0.032806
-0.64594
0.647966
0.0343823
-0.0347153
-0.55082
0.551153
0.0325116
-0.0258733
-0.435637
0.428999
0.0166467
-0.00699202
-0.240349
0.230694
0.00176618
-0.0411353
0.0393691
-0.0383254
0.0370815
0.00124385
-0.0120157
0.0195549
-0.299859
0.29232
-0.0259859
0.0287855
-0.452567
0.449768
-0.0290113
0.0279679
-0.549085
0.550128
-0.0261023
0.0242966
-0.643501
0.645306
-0.0222339
0.0202611
-0.758166
0.760138
-0.0179773
0.0157467
-0.898336
0.900567
-0.0131139
0.0105371
-1.06823
1.07081
-0.00753609
0.00464321
-1.27411
1.27701
-0.00129287
-0.00195559
-1.52457
1.52782
0.00516555
-0.00839285
-1.5256
1.52883
0.0111267
-0.013916
-1.27661
1.2794
0.0162816
-0.0186735
-1.07161
1.074
0.0206835
-0.0227353
-0.90235
0.904402
0.0245038
-0.0263545
-0.763303
0.765153
0.0279783
-0.0296666
-0.64983
0.651518
0.0305246
-0.0300894
-0.551098
0.550663
0.0270549
-0.0203236
-0.422242
0.415511
0.0125064
-0.00517514
-0.222294
0.214963
0.00131509
-0.0378531
0.036538
-0.0360249
0.0351436
0.000881266
-0.00869185
0.014683
-0.285547
0.279556
-0.0205436
0.0236222
-0.446763
0.443684
-0.0243644
0.0237886
-0.55088
0.551456
-0.0222778
0.0207539
-0.646967
0.648491
-0.0190036
0.017281
-0.762014
0.763737
-0.0152851
0.0133462
-0.902688
0.904627
-0.0110909
0.00887534
-1.07322
1.07544
-0.00625261
0.00364781
-1.27976
1.28236
-0.000559038
-0.00250731
-1.53096
1.53403
0.00551789
-0.00844365
-1.5319
1.53482
0.0108334
-0.0131782
-1.28198
1.28433
0.015119
-0.0170575
-1.0762
1.07814
0.0187117
-0.0204078
-0.90631
0.908006
0.021865
-0.0233561
-0.76683
0.768321
0.0246575
-0.0259319
-0.653002
0.654276
0.0262769
-0.0252489
-0.549902
0.548874
0.0218573
-0.0156146
-0.408957
0.402714
0.00928522
-0.00379641
-0.208596
0.203107
0.000968686
-0.0354024
0.0344337
-0.0344098
0.0337949
0.000614902
-0.00611647
0.0106806
-0.274306
0.269742
-0.0156774
0.0187084
-0.44061
0.437579
-0.0198104
0.0194887
-0.551913
0.552234
-0.0183069
0.0169785
-0.649915
0.651243
-0.0154288
0.0139631
-0.765326
0.766792
-0.0122627
0.0106032
-0.906399
0.908059
-0.00864564
0.00671918
-1.07747
1.07939
-0.00443567
0.00217652
-1.28479
1.28705
0.000511366
-0.00315378
-1.53694
1.53958
0.00572763
-0.00821962
-1.53755
1.54004
0.0102232
-0.0121608
-1.28644
1.28838
0.0137355
-0.0153094
-1.07986
1.08143
0.0166216
-0.0179436
-0.909505
0.910827
0.0190687
-0.0202587
-0.769655
0.770845
0.0212899
-0.0221578
-0.655347
0.656215
0.0221747
-0.0206939
-0.547608
0.546128
0.0172644
-0.0118006
-0.396849
0.391385
0.00683205
-0.00278015
-0.198383
0.194331
0.000722432
-0.0336034
0.032881
-0.0332955
0.0329275
0.000367939
-0.00376725
0.00696507
-0.265854
0.262656
-0.0109473
0.0137449
-0.434639
0.431841
-0.0151274
0.015157
-0.552394
0.552364
-0.0144116
0.0134287
-0.652432
0.653415
-0.0122683
0.0111322
-0.768101
0.769237
-0.00976359
0.00836557
-0.909596
0.910994
-0.00663718
0.00489428
-1.08124
1.08298
-0.00280234
0.000741445
-1.28919
1.29125
0.00166087
-0.00396707
-1.54199
1.5443
0.00619013
-0.00834231
-1.54233
1.54448
0.0100605
-0.0117091
-1.29019
1.29184
0.0130115
-0.0142116
-1.08284
1.08404
0.0151412
-0.0160339
-0.911919
0.912812
0.0167649
-0.0175114
-0.771854
0.772601
0.0181294
-0.0184655
-0.656855
0.657191
0.0180413
-0.0161678
-0.544449
0.542576
0.0128661
-0.00831382
-0.386355
0.381803
0.00463294
-0.00186612
-0.190925
0.188158
0.000500773
-0.0322639
0.0317632
-0.032693
0.0325801
0.000112905
-0.00166991
0.0035761
-0.260133
0.258226
-0.00642453
0.00881838
-0.429223
0.426829
-0.0103887
0.010832
-0.552124
0.551681
-0.0106406
0.010069
-0.654186
0.654757
-0.00923263
0.00832101
-0.770276
0.771188
-0.00717066
0.00594981
-0.912287
0.913508
-0.00446253
0.00294562
-1.08458
1.0861
-0.00110363
-0.000734954
-1.29319
1.29503
0.00291142
-0.00501727
-1.54652
1.54862
0.0070122
-0.00886405
-1.5465
1.54836
0.0102796
-0.0115646
-1.29329
1.29457
0.0125322
-0.013411
-1.08508
1.08596
0.0140679
-0.0146287
-0.913551
0.914112
0.0149934
-0.015236
-0.773061
0.773304
0.0153071
-0.0149406
-0.657158
0.656792
0.0139727
-0.0117733
-0.540515
0.538316
0.00876317
-0.00523359
-0.37776
0.37423
0.00274396
-0.00105964
-0.185988
0.184303
0.000278926
-0.0313843
0.0311053
-0.0325547
0.0325908
-3.61132e-05
-0.000459788
0.00145578
-0.256831
0.255835
-0.00324784
0.00502314
-0.424713
0.422938
-0.00644427
0.00702572
-0.551123
0.550542
-0.00705353
0.00669571
-0.655206
0.655564
-0.00612444
0.00548088
-0.771988
0.772632
-0.00459709
0.00361627
-0.914636
0.915617
-0.00231716
0.00094345
-1.08753
1.0889
0.000738197
-0.002418
-1.29675
1.29843
0.0044046
-0.0063161
-1.5506
1.55251
0.0080811
-0.00963258
-1.55005
1.5516
0.0107356
-0.011675
-1.29571
1.29665
0.0123004
-0.0127362
-1.08663
1.08707
0.0129369
-0.0130161
-0.914415
0.914494
0.0130302
-0.0129804
-0.77336
0.77331
0.0127846
-0.0120886
-0.656219
0.655523
0.0108772
-0.00869554
-0.536082
0.533901
0.00617172
-0.00354105
-0.371188
0.368557
0.00181303
-0.000681413
-0.182971
0.181839
0.000169318
-0.0309025
0.0307332
-0.0326664
0.0327635
-9.71469e-05
1.54597e-05
0.000531281
-0.255111
0.254564
-0.00162486
0.0027719
-0.421502
0.420355
-0.00372596
0.00409351
-0.550064
0.549697
-0.00401916
0.00368141
-0.655898
0.656236
-0.00310678
0.00250053
-0.773283
0.773889
-0.00173046
0.000859133
-0.916516
0.917388
0.000290235
-0.00150026
-1.09014
1.09135
0.002988
-0.0044857
-1.29998
1.30148
0.00624364
-0.0079088
-1.5543
1.55596
0.00939729
-0.0106268
-1.55303
1.55426
0.0114324
-0.0120517
-1.29742
1.29804
0.0124121
-0.0125776
-1.08732
1.08748
0.0125617
-0.0123912
-0.9144
0.914229
0.0121455
-0.0118081
-0.773085
0.772747
0.0113609
-0.0105467
-0.654769
0.653954
0.0093408
-0.00740579
-0.531856
0.529921
0.00530747
-0.00314991
-0.366236
0.364079
0.00167846
-0.000653675
-0.180809
0.179785
0.000164639
-0.0305845
0.0304199
-0.0328677
0.0329865
-0.000118837
0.000257475
0.000114703
-0.254124
0.253751
-0.000969623
0.00187675
-0.419405
0.418498
-0.00258726
0.00277036
-0.549473
0.54929
-0.00250979
0.00197923
-0.656676
0.657206
-0.00130856
0.000630612
-0.774607
0.775285
0.000260095
-0.00122087
-0.918274
0.919235
0.0024478
-0.00371023
-1.09247
1.09373
0.00524056
-0.00673551
-1.30288
1.30437
0.00841254
-0.00990182
-1.55746
1.55895
0.0111804
-0.0122002
-1.55538
1.5564
0.0128254
-0.0132241
-1.29854
1.29893
0.0133587
-0.0133325
-1.0876
1.08757
0.013185
-0.0129481
-0.913983
0.913746
0.0126552
-0.0122083
-0.772231
0.771784
0.011694
-0.0108424
-0.653136
0.652285
0.00962115
-0.00768247
-0.528096
0.526157
0.0055793
-0.00339192
-0.361981
0.359794
0.00186473
-0.000762117
-0.17875
0.177647
0.000205252
-0.0302542
0.030049
-0.0331195
0.0332676
-0.000148033
0.000532977
-0.000317639
-0.253449
0.253234
-0.000455518
0.00146877
-0.417597
0.416584
-0.00245291
0.00284169
-0.549068
0.548679
-0.00273932
0.0022964
-0.657745
0.658188
-0.00154947
0.000685996
-0.776194
0.777057
0.000450096
-0.0017205
-0.920281
0.921552
0.00332324
-0.00494712
-1.09504
1.09666
0.00687631
-0.00871559
-1.30593
1.30776
0.010741
-0.0125079
-1.56048
1.56225
0.0140022
-0.0152066
-1.5575
1.55871
0.0159346
-0.0164268
-1.29935
1.29985
0.0166282
-0.0166
-1.0874
1.08737
0.0164091
-0.0160646
-0.913424
0.913079
0.0156104
-0.0150352
-0.771262
0.770687
0.0143338
-0.0130418
-0.651337
0.650045
0.0112469
-0.00865815
-0.524048
0.521459
0.00612587
-0.00369317
-0.35753
0.355097
0.00206425
-0.00088263
-0.17653
0.175348
0.000254593
-0.029842
0.0295874
-0.0334419
0.0336432
-0.000201342
0.00106471
-0.00119038
-0.253205
0.253331
0.000681884
0.000347368
-0.415588
0.414559
-0.00174401
0.00270146
-0.548003
0.547045
-0.00300811
0.00287639
-0.658436
0.658567
-0.00229386
0.00144182
-0.778142
0.778994
-5.31242e-05
-0.00159586
-0.922955
0.924604
0.00373849
-0.00591236
-1.0984
1.10058
0.00844996
-0.010842
-1.30978
1.31217
0.0134702
-0.0158007
-1.56424
1.56657
0.0178014
-0.0194338
-1.56014
1.56177
0.0204802
-0.0212286
-1.30053
1.30128
0.0216522
-0.021856
-1.08739
1.08759
0.0217474
-0.021242
-0.912544
0.912038
0.020548
-0.0194729
-0.769859
0.768784
0.0178785
-0.0154627
-0.648288
0.645873
0.0126288
-0.00920508
-0.518539
0.515116
0.00632568
-0.00381572
-0.352682
0.350172
0.00218595
-0.000973385
-0.174196
0.172984
0.000293777
-0.0293407
0.029047
-0.0338958
0.0341783
-0.000282564
0.00170308
-0.00230004
-0.253652
0.254249
0.00240988
-0.00177445
-0.413775
0.41314
0.000418744
0.000889185
-0.545836
0.544528
-0.00183994
0.00195548
-0.658576
0.65846
-0.00150998
0.000629065
-0.780061
0.780942
0.000979741
-0.00299246
-0.926319
0.928331
0.00560416
-0.00821268
-1.10284
1.10545
0.0112289
-0.0140546
-1.31471
1.31754
0.0171545
-0.019873
-1.56908
1.5718
0.0221838
-0.0240364
-1.56357
1.56542
0.0251949
-0.0259994
-1.30217
1.30297
0.0263614
-0.0263633
-1.08766
1.08766
0.0259875
-0.0252562
-0.911278
0.910546
0.0241481
-0.0222133
-0.767238
0.765304
0.0196721
-0.0162815
-0.642978
0.639588
0.0128131
-0.00911909
-0.511613
0.507919
0.00629373
-0.00392156
-0.34783
0.345458
0.00233377
-0.00107538
-0.171814
0.170556
0.000332504
-0.0287646
0.0284321
-0.0345357
0.0349282
-0.000392449
0.00245903
-0.00357215
-0.255092
0.256205
0.00442804
-0.00461035
-0.413016
0.413198
0.00397794
-0.00305846
-0.543446
0.542526
0.0021641
-0.00183984
-0.658128
0.657804
0.00229085
-0.00340994
-0.782014
0.783133
0.00533892
-0.00753612
-0.930314
0.932511
0.0102974
-0.0130387
-1.108
1.11074
0.0161948
-0.0191154
-1.32034
1.32326
0.0222494
-0.0249002
-1.57447
1.57712
0.0270124
-0.0285556
-1.56717
1.56871
0.0293538
-0.0297019
-1.30367
1.30401
0.0295986
-0.0291091
-1.08734
1.08685
0.0283389
-0.0270141
-0.909452
0.908127
0.0251934
-0.0225443
-0.762857
0.760208
0.0195866
-0.015933
-0.636042
0.632388
0.0125245
-0.00910308
-0.504497
0.501076
0.00652663
-0.00427208
-0.343297
0.341042
0.00263766
-0.00124377
-0.169318
0.167924
0.000388569
-0.0281124
0.0277238
-0.0354096
0.0359466
-0.000536933
0.00338131
-0.00504525
-0.257652
0.259316
0.00667413
-0.00770768
-0.413849
0.414882
0.00814802
-0.0081524
-0.542296
0.542301
0.00811552
-0.00838199
-0.657788
0.658054
0.00927113
-0.0106576
-0.784258
0.785644
0.0126925
-0.0149072
-0.934485
0.936699
0.0176436
-0.0203303
-1.1133
1.11599
0.0233764
-0.0261198
-1.326
1.32874
0.028923
-0.0311163
-1.5795
1.58169
0.0326524
-0.0334945
-1.56991
1.57075
0.0336031
-0.0331187
-1.30403
1.30355
0.0322766
-0.0310061
-1.08589
1.08462
0.0294918
-0.0273768
-0.906211
0.904095
0.0250886
-0.0222028
-0.757272
0.754386
0.019262
-0.0158615
-0.628902
0.625502
0.0128071
-0.0097321
-0.49807
0.494995
0.00729116
-0.00495563
-0.33896
0.336624
0.00312154
-0.00148482
-0.166519
0.164882
0.000463509
-0.0273502
0.0268867
-0.0365757
0.0372757
-0.000699987
0.00441358
-0.00666246
-0.261324
0.263572
0.00903442
-0.0108658
-0.416387
0.418218
0.0122907
-0.0132601
-0.543143
0.544112
0.0142555
-0.015405
-0.658866
0.660016
0.0170878
-0.0189905
-0.787032
0.788934
0.021418
-0.0238697
-0.938751
0.941203
0.0267476
-0.0294531
-1.11847
1.12118
0.0323849
-0.0348818
-1.33122
1.33372
0.037222
-0.0387872
-1.5835
1.58506
0.0395371
-0.0394431
-1.57112
1.57103
0.0386849
-0.0372954
-1.30263
1.30124
0.0356655
-0.0335197
-1.08277
1.08063
0.0312661
-0.0285968
-0.901526
0.898857
0.0260042
-0.0230234
-0.751282
0.748301
0.0201901
-0.0170379
-0.622306
0.619154
0.0142027
-0.0112158
-0.492292
0.489305
0.00864825
-0.00599978
-0.334395
0.331747
0.00382224
-0.00182355
-0.1632
0.161201
0.000568827
-0.0264373
0.0258685
-0.038083
0.0390268
-0.000943842
0.00585376
-0.00883713
-0.266199
0.269183
0.0120561
-0.0146906
-0.420616
0.42325
0.0170204
-0.018862
-0.545956
0.547798
0.0208395
-0.0229088
-0.661723
0.663792
0.0255057
-0.0281265
-0.790891
0.793512
0.0312064
-0.0341199
-0.943555
0.946469
0.0373447
-0.0402134
-1.12372
1.12659
0.0431441
-0.0454576
-1.33596
1.33828
0.0473673
-0.0482968
-1.58621
1.58714
0.0482319
-0.0471604
-1.57039
1.56932
0.0455095
-0.0431829
-1.29936
1.29703
0.0407155
-0.0377508
-1.07798
1.07502
0.0349059
-0.0317323
-0.895755
0.892582
0.0288245
-0.0256606
-0.745021
0.741858
0.0227769
-0.0196187
-0.616067
0.612908
0.0167138
-0.0134881
-0.486593
0.483367
0.0105496
-0.00738683
-0.329169
0.326006
0.00471886
-0.0022494
-0.159146
0.156677
0.000699853
-0.0253225
0.0246226
-0.0400687
0.0413591
-0.00129041
0.00786222
-0.0118168
-0.27256
0.276514
0.0160589
-0.0195387
-0.426546
0.430026
0.0227375
-0.0254104
-0.550654
0.553327
0.0283832
-0.0314002
-0.666446
0.669463
0.0350275
-0.0385257
-0.796211
0.799709
0.0424554
-0.0460153
-0.949346
0.952906
0.0497867
-0.0529825
-1.12937
1.13256
0.056052
-0.0582653
-1.34036
1.34257
0.0597902
-0.0600973
-1.58764
1.58794
0.0592188
-0.0571851
-1.56771
1.56567
0.054638
-0.0513426
-1.29419
1.29089
0.0480389
-0.0442571
-1.07157
1.06778
0.0407698
-0.0370039
-0.888909
0.885143
0.0336621
-0.0301308
-0.73824
0.734708
0.026978
-0.0235371
-0.609617
0.606176
0.0203005
-0.0165724
-0.480331
0.476603
0.0130283
-0.00915274
-0.322891
0.319015
0.0058504
-0.0027808
-0.154155
0.151085
0.000860983
-0.0239624
0.0231014
-0.0427333
0.0445317
-0.00179839
0.0107454
-0.0160048
-0.280861
0.28612
0.0215193
-0.0259695
-0.434439
0.43889
0.0301272
-0.0337221
-0.557305
0.560899
0.0378258
-0.0419377
-0.673108
0.67722
0.0467599
-0.0512775
-0.803276
0.807794
0.0562042
-0.0605384
-0.956448
0.960782
0.064975
-0.0685712
-1.13566
1.13926
0.0718136
-0.0739187
-1.34453
1.34664
0.0750154
-0.0746373
-1.58779
1.58741
0.0728738
-0.0698032
-1.56306
1.55999
0.0663012
-0.0619808
-1.28705
1.28273
0.0577934
-0.0531143
-1.06348
1.0588
0.0488806
-0.0443816
-0.880778
0.876279
0.0404494
-0.0363502
-0.730541
0.726441
0.0327225
-0.0287574
-0.602384
0.598419
0.0249636
-0.0205043
-0.472952
0.468493
0.0161632
-0.0113019
-0.315216
0.310355
0.00716522
-0.00336729
-0.14801
0.144212
0.00102789
-0.0223021
0.0212742
-0.0463912
0.0490188
-0.00262762
0.0151899
-0.0222622
-0.291817
0.298889
0.0294135
-0.0350548
-0.444807
0.450448
0.0403762
-0.0451006
-0.566192
0.570916
0.0506166
-0.0560519
-0.681973
0.687409
0.0622632
-0.0679156
-0.812347
0.817999
0.0739071
-0.0790154
-0.965068
0.970177
0.0840566
-0.087957
-1.14269
1.14659
0.0912381
-0.0930935
-1.3484
1.35026
0.0935886
-0.0923571
-1.58647
1.58523
0.0895509
-0.0852946
-1.55626
1.552
0.0807216
-0.0752667
-1.2778
1.27235
0.070097
-0.0644013
-1.05352
1.04783
0.0592979
-0.0539134
-0.871071
0.865687
0.0492358
-0.0443848
-0.721518
0.716667
0.0401048
-0.0354081
-0.593881
0.589184
0.0308468
-0.0253967
-0.464001
0.458551
0.0200166
-0.0139604
-0.305651
0.299595
0.00879614
-0.0040971
-0.140453
0.135754
0.00123639
-0.0203126
0.0190762
-0.0516164
0.0557065
-0.00409009
0.0224829
-0.032174
-0.306577
0.316268
0.041556
-0.0488255
-0.458511
0.465781
0.0556498
-0.0618469
-0.577876
0.584073
0.0691556
-0.0761087
-0.693452
0.700405
0.0837653
-0.0904863
-0.823615
0.830336
0.0973684
-0.103027
-0.975132
0.98079
0.10837
-0.112266
-1.15015
1.15405
0.115227
-0.116504
-1.35157
1.35285
0.116047
-0.113665
-1.58326
1.58088
0.109563
-0.103907
-1.54695
1.5413
0.0981064
-0.0913729
-1.26621
1.25947
0.0851018
-0.0782658
-1.04146
1.03463
0.0721809
-0.0657811
-0.859491
0.853091
0.0602319
-0.0544853
-0.710807
0.70506
0.0494161
-0.0438076
-0.583651
0.578043
0.0382822
-0.0315688
-0.452941
0.446228
0.0248697
-0.0172948
-0.293739
0.286164
0.0108237
-0.00497778
-0.131178
0.125332
0.00147383
-0.0179345
0.0164607
-0.0595232
0.066715
-0.00719177
0.0358403
-0.0497311
-0.327325
0.341215
0.0623681
-0.0715913
-0.476794
0.486017
0.0800655
-0.087949
-0.593134
0.601017
0.0971107
-0.105428
-0.707727
0.716043
0.114146
-0.121466
-0.836805
0.844125
0.128659
-0.134292
-0.986034
0.991668
0.139303
-0.142599
-1.1573
1.1606
0.144624
-0.144772
-1.35328
1.35342
0.142851
-0.138892
-1.57749
1.57353
0.133159
-0.125847
-1.53468
1.52737
0.118633
-0.110478
-1.25196
1.2438
0.102994
-0.0949233
-1.02706
1.01899
0.0877858
-0.0803116
-0.8458
0.838326
0.0738368
-0.0671261
-0.69811
0.691399
0.0611923
-0.0545496
-0.571306
0.564664
0.047785
-0.039445
-0.43914
0.4308
0.0310493
-0.021553
-0.278748
0.269252
0.0134073
-0.00608182
-0.119818
0.112493
0.00172781
-0.0151333
0.0134055
-0.0736407
0.0772297
-0.00358904
0.0258373
-0.0379894
-0.358174
0.370326
0.0490359
-0.0577227
-0.500411
0.509098
0.0665707
-0.076124
-0.611789
0.621342
0.0869122
-0.0965433
-0.723834
0.733465
0.107234
-0.11665
-0.850615
0.860031
0.126424
-0.134791
-0.996365
1.00473
0.143096
-0.149723
-1.16279
1.16942
0.155598
-0.159395
-1.35235
1.35615
0.161349
-0.160592
-1.56828
1.56752
0.156991
-0.150962
-1.5189
1.51288
0.143922
-0.135035
-1.23475
1.22586
0.126399
-0.11609
-1.01013
0.999825
0.10671
-0.0964954
-0.82992
0.819706
0.0874664
-0.0779565
-0.683329
0.673819
0.0692062
-0.0596923
-0.556417
0.546903
0.0503169
-0.0386413
-0.421842
0.410167
0.0278566
-0.0170606
-0.259708
0.248912
0.00906441
-0.00329674
-0.105748
0.0999805
0.000600715
-0.0119211
0.0113204
-0.0846338
0.0818391
0.00279462
0.00389619
-0.0109904
-0.385407
0.392501
0.0192229
-0.0260835
-0.522411
0.529271
0.0343377
-0.0426656
-0.631898
0.640226
0.0524085
-0.0612978
-0.742885
0.751774
0.0707361
-0.0792631
-0.868969
0.877496
0.0881343
-0.0954442
-1.01281
1.02012
0.102916
-0.108546
-1.1759
1.18153
0.113477
-0.116348
-1.35967
1.36254
0.11713
-0.11545
-1.56589
1.56421
0.111068
-0.104394
-1.50594
1.49927
0.0967167
-0.0873341
-1.21638
1.207
0.0783347
-0.0681064
-0.989122
0.978894
0.0585768
-0.04809
-0.80843
0.797943
0.0387968
-0.0294242
-0.661774
0.652402
0.0215065
-0.0134441
-0.534299
0.526237
0.00649564
-0.000346239
-0.39774
0.391591
-0.00323849
0.00490972
-0.237251
0.23558
-0.00479581
0.00311317
-0.0931431
0.0948257
-0.00136124
-0.00973373
0.011095
-0.0846418
0.081447
0.00319479
-0.00415102
0.000720623
-0.403108
0.406539
0.00429332
-0.00949899
-0.54005
0.545256
0.0163893
-0.0236438
-0.649214
0.656469
0.0320067
-0.0396309
-0.760036
0.76766
0.0479289
-0.0552933
-0.885368
0.892733
0.0627416
-0.0692611
-1.02728
1.0338
0.0757724
-0.080801
-1.18679
1.19181
0.0848227
-0.0869648
-1.36486
1.367
0.0874019
-0.0854078
-1.56197
1.55997
0.0809117
-0.0743703
-1.4921
1.48556
0.0670854
-0.0584993
-1.19763
1.18905
0.0500017
-0.0406709
-0.968483
0.959153
0.0320301
-0.0226011
-0.787647
0.778218
0.0144708
-0.00621077
-0.641834
0.633574
-0.000532054
0.0070783
-0.51575
0.509204
-0.0115884
0.0142042
-0.383187
0.380571
-0.0142071
0.0117628
-0.230551
0.232995
-0.00855848
0.00467135
-0.0946467
0.0985338
-0.00167746
-0.0110886
0.0127661
-0.0827535
0.0796836
0.00306991
-0.00717857
0.00588695
-0.414196
0.415488
-0.0028193
-0.00131998
-0.553707
0.557846
0.00734317
-0.0133906
-0.663683
0.66973
0.0205105
-0.0270408
-0.77494
0.781471
0.0341244
-0.0404387
-0.899695
0.90601
0.0472178
-0.0527917
-1.03995
1.04553
0.0585625
-0.0626283
-1.19651
1.20058
0.0662131
-0.0681209
-1.36905
1.37096
0.0683487
-0.0662294
-1.55777
1.55565
0.0622393
-0.056479
-1.47878
1.47302
0.0500581
-0.0422331
-1.18056
1.17274
0.0348944
-0.0269267
-0.949904
0.941937
0.0194838
-0.0117257
-0.769132
0.761374
0.00472466
0.00215415
-0.624509
0.61763
-0.00769112
0.0125332
-0.500895
0.496053
-0.0155185
0.0167694
-0.374324
0.373073
-0.0156771
0.0121013
-0.231116
0.234692
-0.00855708
0.00441853
-0.100209
0.104347
-0.00150751
-0.0132123
0.0147198
-0.0808163
0.0782516
0.00256462
-0.00769879
0.00768791
-0.421422
0.421433
-0.00534053
0.00210141
-0.56497
0.568209
0.00280756
-0.00823479
-0.675955
0.681383
0.014239
-0.0200189
-0.787576
0.793356
0.0262054
-0.0317491
-0.912018
0.917562
0.0376556
-0.0427193
-1.05106
1.05612
0.0477286
-0.0516182
-1.20461
1.2085
0.0548577
-0.0566165
-1.37264
1.3744
0.0569011
-0.0550664
-1.55359
1.55176
0.0516073
-0.0464429
-1.46691
1.46174
0.0408928
-0.0342976
-1.16525
1.15866
0.0280648
-0.0212109
-0.934091
0.927237
0.0150708
-0.00860288
-0.753727
0.747259
0.00302278
0.00249996
-0.610437
0.604914
-0.0067401
0.0102682
-0.489498
0.48597
-0.0124125
0.012953
-0.368556
0.368015
-0.0116216
0.00872151
-0.233536
0.236436
-0.00599462
0.00300492
-0.105417
0.108407
-0.00105764
-0.0150463
0.016104
-0.0792436
0.0771162
0.00212742
-0.00715068
0.00736338
-0.42625
0.426038
-0.00602248
0.00323887
-0.57383
0.576613
0.00139099
-0.00602421
-0.68649
0.691124
0.0112368
-0.0163122
-0.798593
0.803668
0.0218785
-0.0269126
-0.922894
0.927929
0.0324233
-0.0369779
-1.06101
1.06556
0.0416414
-0.0453077
-1.21223
1.21589
0.0483605
-0.05008
-1.37604
1.37776
0.0504622
-0.049288
-1.55002
1.54884
0.0462774
-0.0419216
-1.45639
1.45203
0.0370746
-0.031347
-1.15218
1.14645
0.0261957
-0.0202444
-0.920585
0.914634
0.0150219
-0.00973121
-0.741014
0.735723
0.00515045
-0.00066108
-0.599323
0.594834
-0.00278281
0.00573695
-0.480917
0.477963
-0.00718969
0.00755569
-0.364496
0.36413
-0.00687657
0.00501182
-0.234823
0.236687
-0.00331692
0.00170637
-0.108442
0.110053
-0.000631738
-0.01605
0.0166818
-0.0781574
0.0765317
0.00162567
-0.00596557
0.00631516
-0.429846
0.429497
-0.00505142
0.00284855
-0.581732
0.583935
0.00133101
-0.00551953
-0.695736
0.699925
0.0105146
-0.014963
-0.808546
0.812994
0.0199339
-0.0244829
-0.933047
0.937596
0.0298088
-0.0340577
-1.07023
1.07448
0.0383516
-0.0419732
-1.21948
1.22311
0.0453715
-0.0471508
-1.37961
1.38139
0.0478584
-0.0469356
-1.54742
1.5465
0.0446579
-0.0406322
-1.44761
1.44358
0.036515
-0.0316159
-1.14073
1.13583
0.026993
-0.0219549
-0.90889
0.903852
0.0173449
-0.0125452
-0.730339
0.725539
0.0087599
-0.00474945
-0.590062
0.586052
0.00159708
0.000924182
-0.47376
0.471239
-0.00247687
0.00329077
-0.361013
0.360199
-0.00318223
0.00241538
-0.23463
0.235397
-0.00167829
0.000956359
-0.109189
0.109911
-0.000430538
-0.0162925
0.016723
-0.0776443
0.0763834
0.00126098
-0.00471743
0.00509842
-0.432775
0.432394
-0.00383692
0.00161334
-0.588666
0.59089
0.00223795
-0.00601868
-0.704124
0.707905
0.0103697
-0.0147018
-0.817541
0.821874
0.0193663
-0.0241073
-0.94206
0.946801
0.0287976
-0.0329449
-1.07891
1.08305
0.0374648
-0.0409758
-1.2267
1.23021
0.0440615
-0.0463941
-1.38318
1.38551
0.0474819
-0.0470375
-1.54573
1.54529
0.0451136
-0.0418223
-1.43982
1.43653
0.0381449
-0.0336639
-1.13065
1.12617
0.0294919
-0.0248477
-0.898672
0.894028
0.020624
-0.0163452
-0.720795
0.716517
0.0125515
-0.00887288
-0.581724
0.578046
0.00599311
-0.0033408
-0.467489
0.464836
0.00158089
-0.000625313
-0.357
0.356045
4.30069e-05
0.000264607
-0.232884
0.232576
-0.000431032
0.000414164
-0.108307
0.108324
-0.000294276
-0.0161154
0.0164097
-0.0776914
0.0766378
0.00105366
-0.00334505
0.00347716
-0.435548
0.435416
-0.00234771
4.72186e-05
-0.595059
0.59736
0.00348194
-0.00714587
-0.711991
0.715655
0.0113531
-0.0153359
-0.826137
0.83012
0.0201605
-0.0241835
-0.951069
0.955092
0.0289042
-0.0329471
-1.08742
1.09147
0.0374404
-0.0412259
-1.23378
1.23756
0.0447009
-0.0469433
-1.38769
1.38993
0.0485032
-0.04856
-1.54483
1.54488
0.0473447
-0.0443863
-1.43314
1.43018
0.041103
-0.0369344
-1.12174
1.11757
0.0330319
-0.028562
-0.889076
0.884606
0.0246278
-0.0204031
-0.711961
0.707736
0.0167284
-0.0130319
-0.573993
0.570297
0.00999296
-0.00738883
-0.461149
0.458544
0.00530435
-0.00383336
-0.352442
0.350971
0.00258724
-0.00149235
-0.229739
0.228644
0.000631741
3.51756e-05
-0.106176
0.105509
-0.000209636
-0.0155696
0.0157792
-0.0780193
0.0772743
0.000744962
-0.00217327
0.00183294
-0.438518
0.438858
-0.000826634
-0.00156112
-0.600758
0.603146
0.00476682
-0.00831777
-0.719374
0.722925
0.0123795
-0.0165112
-0.834081
0.838213
0.0207796
-0.0249975
-0.959395
0.963613
0.029725
-0.0336129
-1.09598
1.09987
0.0382615
-0.0420731
-1.24122
1.24503
0.0456856
-0.0485327
-1.39265
1.39549
0.0506511
-0.0510635
-1.54502
1.54543
0.0501223
-0.0478428
-1.42736
1.42508
0.0450293
-0.0410963
-1.11321
1.10928
0.0372733
-0.0330953
-0.879932
0.875754
0.0288837
-0.0248195
-0.703156
0.699092
0.021131
-0.0172875
-0.566423
0.56258
0.0142437
-0.011245
-0.454643
0.451645
0.00887971
-0.00670686
-0.347304
0.345131
0.00498391
-0.00318493
-0.225371
0.223572
0.00161293
-0.000399208
-0.103061
0.101848
-9.82189e-05
-0.014763
0.0148612
-0.078736
0.0781364
0.000599586
-0.00120459
0.000873452
-0.441734
0.442065
0.000703758
-0.00288512
-0.606559
0.60874
0.00623301
-0.00965835
-0.726296
0.729721
0.0135809
-0.017346
-0.842119
0.845884
0.0217621
-0.0257038
-0.967896
0.971837
0.030414
-0.0347631
-1.10425
1.1086
0.039108
-0.0432863
-1.24894
1.25312
0.0473775
-0.0503892
-1.3983
1.40131
0.0529592
-0.0541985
-1.5461
1.54734
0.0537251
-0.0520168
-1.42263
1.42092
0.0493195
-0.0456825
-1.10526
1.10163
0.0420734
-0.0378111
-0.871054
0.866791
0.0337105
-0.0294896
-0.694411
0.69019
0.0256968
-0.0216285
-0.558399
0.55433
0.0182737
-0.0150351
-0.44774
0.444501
0.0121293
-0.00943194
-0.341121
0.338423
0.00711664
-0.00469155
-0.219767
0.217342
0.00263722
-0.000924162
-0.0991105
0.0973975
8.62374e-05
-0.0138014
0.0137152
-0.0796984
0.0792595
0.000438903
-0.000165254
-0.000398138
-0.445113
0.445677
0.00185019
-0.00424712
-0.611965
0.614362
0.00749858
-0.0107687
-0.732986
0.736256
0.0147761
-0.0184114
-0.849702
0.853338
0.0226945
-0.0267704
-0.976294
0.98037
0.0314131
-0.0357519
-1.11285
1.11719
0.0403435
-0.0445884
-1.25727
1.26152
0.0489159
-0.052713
-1.40466
1.40846
0.0557861
-0.0573781
-1.54856
1.55016
0.0576124
-0.0562258
-1.4191
1.41771
0.0540207
-0.050784
-1.09783
1.09459
0.0470938
-0.0428465
-0.862144
0.857897
0.0387061
-0.0342123
-0.685482
0.680988
0.0303376
-0.0260114
-0.550167
0.54584
0.0224491
-0.01872
-0.440314
0.436585
0.0155178
-0.0122664
-0.333998
0.330747
0.00923705
-0.00617148
-0.213039
0.209973