/*--------------------------------*- C++ -*----------------------------------*\
  =========                 |
  \\      /  F ield         | OpenFOAM: The Open Source CFD Toolbox
   \\    /   O peration     | Website:  https://openfoam.org
    \\  /    A nd           | Version:  6
     \\/     M anipulation  |
\*---------------------------------------------------------------------------*/
FoamFile
{
    version     2.0;
    format      ascii;
    class       volScalarField;
    location    "71";
    object      p;
}
// * * * * * * * * * * * * * * * * * * * * * * * * * * * * * * * * * * * * * //

dimensions      [0 2 -2 0 0 0 0];

internalField   nonuniform List<scalar> 
8800
(
0.895629
0.846319
0.808356
0.780283
0.760115
0.74552
0.734913
0.727361
0.722462
0.720373
0.721725
0.726052
0.732834
0.742251
0.754985
0.772305
0.796183
0.829281
0.872209
0.92474
0.730101
0.736447
0.745598
0.749141
0.74653
0.740441
0.733499
0.727252
0.72244
0.719555
0.719304
0.721914
0.72654
0.732656
0.739745
0.74677
0.751644
0.751519
0.744845
0.735948
0.703652
0.709888
0.714388
0.718255
0.721195
0.722133
0.721034
0.7189
0.716904
0.716045
0.717057
0.719494
0.722369
0.724633
0.725153
0.723366
0.720001
0.715986
0.711204
0.707487
0.699353
0.702118
0.704724
0.70688
0.708614
0.710175
0.711266
0.711604
0.711473
0.71155
0.712333
0.71346
0.714191
0.714035
0.713057
0.711699
0.710026
0.707721
0.705309
0.703743
0.694306
0.69573
0.697567
0.699644
0.701351
0.702637
0.703726
0.704692
0.705482
0.706196
0.706883
0.707326
0.707338
0.706966
0.706292
0.705173
0.703515
0.70162
0.700267
0.699464
0.689326
0.690229
0.691473
0.693095
0.694782
0.696306
0.697579
0.698686
0.699731
0.700724
0.701484
0.701854
0.70185
0.701474
0.700665
0.699474
0.698111
0.696844
0.696023
0.695499
0.684431
0.685087
0.686045
0.687358
0.688798
0.690305
0.691778
0.693125
0.694366
0.695543
0.696466
0.69694
0.696943
0.696497
0.695711
0.694766
0.693772
0.692867
0.692287
0.691903
0.679619
0.680124
0.680906
0.682041
0.683334
0.684741
0.686236
0.687759
0.689246
0.690671
0.691795
0.692381
0.692445
0.692114
0.691545
0.690854
0.690115
0.689451
0.689025
0.688725
0.674834
0.675235
0.675892
0.676907
0.678129
0.679483
0.680973
0.682593
0.684297
0.686008
0.687389
0.68817
0.688429
0.68833
0.688004
0.687535
0.687003
0.686535
0.68622
0.685977
0.669996
0.670323
0.670893
0.67183
0.673006
0.67435
0.675878
0.677602
0.679507
0.681521
0.683238
0.68433
0.68488
0.685051
0.684967
0.684728
0.684396
0.684091
0.683861
0.683657
0.665016
0.665288
0.665798
0.66669
0.667852
0.669226
0.670834
0.672705
0.674848
0.677217
0.679357
0.68085
0.681752
0.682228
0.682408
0.682404
0.682273
0.682111
0.681949
0.681773
0.659805
0.660034
0.660506
0.661383
0.662571
0.664018
0.66575
0.667825
0.670277
0.673086
0.675742
0.677714
0.679027
0.679853
0.68033
0.680567
0.680642
0.680616
0.680509
0.680352
0.654269
0.654464
0.654918
0.65581
0.657065
0.658629
0.66054
0.662888
0.665735
0.669091
0.672373
0.674916
0.67671
0.677938
0.678749
0.679254
0.679547
0.679647
0.679587
0.679443
0.648303
0.648472
0.648924
0.64986
0.651222
0.652955
0.655114
0.657817
0.661162
0.665192
0.669232
0.672459
0.674821
0.676513
0.677708
0.678531
0.679043
0.679265
0.679246
0.679109
0.641785
0.641932
0.642399
0.643408
0.644921
0.646884
0.649369
0.652525
0.656491
0.661348
0.666305
0.67035
0.673385
0.675624
0.677258
0.678428
0.679194
0.679544
0.679563
0.67943
0.634573
0.634697
0.635193
0.636306
0.638022
0.640286
0.643188
0.646915
0.651651
0.657517
0.663581
0.668601
0.672434
0.675319
0.677471
0.679044
0.680092
0.680575
0.680628
0.680494
0.626475
0.626587
0.627126
0.628372
0.630352
0.633001
0.63643
0.640871
0.646558
0.653655
0.661051
0.667234
0.672007
0.67565
0.678423
0.680469
0.681834
0.682457
0.682541
0.682403
0.617254
0.617357
0.617951
0.619375
0.621699
0.624835
0.628927
0.63426
0.641122
0.649716
0.658709
0.666272
0.672156
0.676693
0.680198
0.682796
0.684519
0.685289
0.685401
0.685255
0.606593
0.606681
0.607364
0.609025
0.611786
0.615545
0.620477
0.626931
0.635246
0.645664
0.656564
0.665751
0.672939
0.678527
0.682871
0.686121
0.688246
0.689168
0.689303
0.689146
0.594109
0.594184
0.594969
0.596944
0.600266
0.604826
0.610834
0.618703
0.628828
0.641466
0.654636
0.665715
0.674411
0.681219
0.686545
0.690541
0.6931
0.694171
0.694322
0.69415
0.579235
0.579303
0.580235
0.582623
0.586683
0.592295
0.599701
0.609383
0.62177
0.637106
0.652952
0.666219
0.676632
0.684836
0.691288
0.696114
0.699132
0.700339
0.700494
0.700303
0.561177
0.561237
0.562385
0.565361
0.570432
0.577463
0.586728
0.598765
0.613999
0.632598
0.651564
0.667316
0.679665
0.689436
0.697126
0.702869
0.706339
0.70765
0.707792
0.707582
0.538757
0.538822
0.540317
0.544173
0.550698
0.559725
0.571538
0.586687
0.605508
0.628021
0.650564
0.669077
0.683555
0.695045
0.704076
0.710769
0.714639
0.715998
0.716109
0.715878
0.510164
0.51026
0.512356
0.517636
0.526417
0.538387
0.553802
0.573099
0.596413
0.623542
0.65009
0.671591
0.688338
0.701643
0.712098
0.719697
0.723847
0.725172
0.725227
0.72498
0.4723
0.472525
0.475851
0.483758
0.496343
0.512854
0.533417
0.558176
0.586984
0.619411
0.650319
0.674967
0.694051
0.709194
0.721083
0.729427
0.733659
0.734843
0.734824
0.734566
0.419241
0.420353
0.426971
0.44032
0.459553
0.483088
0.510774
0.542421
0.57767
0.615957
0.651455
0.679302
0.700707
0.717628
0.730801
0.739627
0.743656
0.744598
0.744497
0.744237
0.342421
0.349958
0.365145
0.388485
0.41765
0.450583
0.486934
0.526454
0.568805
0.613428
0.653829
0.68507
0.708973
0.727783
0.742064
0.751058
0.754715
0.7554
0.755245
0.755018
0.260752
0.277202
0.301862
0.335943
0.375561
0.418049
0.463098
0.510638
0.560425
0.611969
0.658045
0.693338
0.720189
0.741093
0.75642
0.765112
0.76807
0.76847
0.768336
0.768188
0.190767
0.210872
0.243443
0.286768
0.335689
0.387176
0.440693
0.496115
0.553171
0.611348
0.662716
0.701674
0.73106
0.753617
0.769391
0.777412
0.77978
0.780086
0.78001
0.779904
0.133492
0.155843
0.193848
0.243801
0.300004
0.359036
0.420044
0.482713
0.546594
0.611053
0.667396
0.709764
0.741402
0.765262
0.781303
0.788995
0.791145
0.791437
0.791408
0.791328
0.0860528
0.109736
0.151676
0.206805
0.268837
0.334088
0.401493
0.470582
0.540713
0.611076
0.672164
0.717768
0.751573
0.776746
0.793274
0.800841
0.802869
0.80318
0.803188
0.80313
0.0458161
0.070287
0.115129
0.174469
0.241417
0.311982
0.384941
0.459743
0.535579
0.611461
0.677116
0.725902
0.76188
0.788427
0.805508
0.813227
0.815301
0.815588
0.815622
0.81558
0.0107327
0.0357235
0.0828338
0.145667
0.216827
0.292039
0.369948
0.449921
0.531028
0.612126
0.682191
0.734121
0.772253
0.80021
0.818045
0.826131
0.828281
0.82857
0.828601
0.828575
-0.0207083
0.00470354
0.05368
0.119492
0.19431
0.273616
0.355985
0.440723
0.526796
0.612902
0.687218
0.742232
0.782513
0.811931
0.830617
0.839077
0.841383
0.841673
0.841694
0.841677
-0.0495392
-0.0237417
0.0268273
0.0952318
0.173269
0.256219
0.342638
0.431791
0.522563
0.613484
0.691986
0.750022
0.792441
0.823278
0.842777
0.851642
0.854116
0.854428
0.854431
0.854419
-0.0765788
-0.0503681
0.00162559
0.0723658
0.153258
0.239471
0.329575
0.422813
0.518026
0.613646
0.696301
0.757335
0.801817
0.834035
0.854291
0.863544
0.866169
0.866501
0.866469
0.866451
-0.102234
-0.0756235
-0.0223178
0.0505
0.133941
0.223089
0.316543
0.413573
0.513012
0.613232
0.700026
0.764072
0.810583
0.844071
0.864991
0.874527
0.877253
0.877576
0.877513
0.877482
-0.12696
-0.0998689
-0.0453504
0.0293506
0.115077
0.206868
0.303386
0.403936
0.507379
0.612072
0.703061
0.770173
0.8187
0.853364
0.874797
0.884469
0.887225
0.887526
0.887426
0.887379
-0.1509
-0.123324
-0.0676605
0.00874055
0.096515
0.190693
0.290001
0.393794
0.501007
0.61008
0.705332
0.775639
0.826204
0.86192
0.883672
0.893366
0.896068
0.896334
0.896203
0.896141
-0.174197
-0.146099
-0.0893766
-0.011431
0.0781795
0.174496
0.276326
0.38309
0.493842
0.607176
0.706765
0.780461
0.83318
0.869894
0.89178
0.901286
0.903868
0.904083
0.903928
0.903851
-0.196951
-0.168323
-0.110559
-0.0312114
0.0600237
0.158255
0.262352
0.371824
0.485857
0.60328
0.707286
0.784644
0.839751
0.877456
0.899268
0.908386
0.910732
0.910864
0.91069
0.910604
-0.219232
-0.189999
-0.131225
-0.0506131
0.0420618
0.141982
0.248108
0.360012
0.477049
0.598348
0.706817
0.78815
0.846021
0.884843
0.906389
0.914833
0.916773
0.916783
0.916591
0.9165
-0.240906
-0.211098
-0.151362
-0.0696306
0.0243163
0.125729
0.233631
0.347703
0.467451
0.592376
0.705271
0.790904
0.852043
0.892329
0.913498
0.920878
0.922112
0.92192
0.921727
0.921645
-0.261957
-0.231597
-0.17097
-0.0882319
0.00683123
0.10954
0.219
0.33496
0.457126
0.58536
0.702575
0.792787
0.857776
0.900138
0.921137
0.927091
0.927069
0.926401
0.926224
0.926209
-0.28244
-0.251471
-0.19003
-0.106394
-0.0103416
0.0934905
0.204292
0.321873
0.446146
0.577338
0.69865
0.793654
0.863062
0.90831
0.929885
0.934509
0.932534
0.930625
0.930263
0.930583
-0.302213
-0.270698
-0.208493
-0.124058
-0.0271518
0.0776593
0.189599
0.308541
0.434613
0.568387
0.693441
0.793324
0.867643
0.916569
0.939945
0.944391
0.940579
0.9362
0.933896
0.933037
-0.321365
-0.289287
-0.226366
-0.14126
-0.0436358
0.0620063
0.174868
0.294908
0.422457
0.558442
0.686791
0.791544
0.871278
0.924458
0.950879
0.957253
0.953496
0.946094
0.936776
0.937551
-0.339819
-0.307302
-0.243787
-0.158196
-0.0600843
0.0462055
0.159689
0.280498
0.409148
0.546895
0.678071
0.787587
0.873584
0.931482
0.961353
0.97135
0.968273
0.956408
0.937457
0.936131
-0.357447
-0.324703
-0.260599
-0.174683
-0.0762321
0.0305548
0.144265
0.265626
0.394964
0.533963
0.667284
0.7807
0.87363
0.936404
0.967332
0.977921
0.976125
0.949741
0.892207
0.867363
-0.374121
-0.342359
-0.276403
-0.19028
-0.0912935
0.0155351
0.128879
0.250569
0.380186
0.519812
0.654475
0.770245
0.870256
0.938149
0.96384
0.969268
0.953567
0.900808
0.83847
0.800822
-0.416664
-0.35993
-0.290871
-0.205839
-0.106011
0.000187699
0.113677
0.235202
0.364604
0.504076
0.639214
0.755526
0.859486
0.933056
0.948073
0.932138
0.881819
0.815198
0.745447
0.70707
-0.391815
-0.373514
-0.312839
-0.226982
-0.128842
-0.0228741
0.0899288
0.210811
0.339333
0.477493
0.611461
0.726147
0.822045
0.903172
0.884321
0.772438
0.679542
0.614814
0.550093
0.57727
-0.422411
-0.39095
-0.329494
-0.244289
-0.146319
-0.0404712
0.0724967
0.192721
0.320233
0.456663
0.588127
0.699475
0.784204
0.830211
0.775972
0.633393
0.522091
0.446945
0.363925
0.409538
-0.446135
-0.412308
-0.349113
-0.263865
-0.165938
-0.0601068
0.0527314
0.172155
0.2983
0.432342
0.559988
0.665336
0.738665
0.746361
0.636934
0.479313
0.348266
0.254182
0.158228
0.190283
-0.469199
-0.43433
-0.36975
-0.283823
-0.185861
-0.0801763
0.0321334
0.150578
0.275105
0.406313
0.529039
0.625939
0.682539
0.656676
0.495831
0.316904
0.155591
0.0201163
-0.10573
-0.092427
-0.49199
-0.456735
-0.391243
-0.30472
-0.206643
-0.101199
0.0104326
0.127733
0.250333
0.378246
0.495147
0.583696
0.61924
0.547344
0.356913
0.158255
-0.0297849
-0.184587
-0.390943
-0.471041
-0.515195
-0.479994
-0.413969
-0.32703
-0.228806
-0.123557
-0.0125492
0.103557
0.224078
0.348382
0.458948
0.538073
0.547442
0.424041
0.230176
0.0196057
-0.17351
-0.335789
-0.460155
-0.578715
-0.539882
-0.504589
-0.438272
-0.351115
-0.252881
-0.147933
-0.0376562
0.0770606
0.195131
0.315222
0.41899
0.485116
0.46678
0.307031
0.111618
-0.0930408
-0.269543
-0.367533
-0.393861
-0.40733
-0.56618
-0.530805
-0.464278
-0.377065
-0.279011
-0.17455
-0.0652653
0.04773
0.16287
0.277967
0.374468
0.422667
0.384808
0.194546
0.00111881
-0.183447
-0.316751
-0.354961
-0.363928
-0.364259
-0.594366
-0.558771
-0.492033
-0.40487
-0.307149
-0.203419
-0.0954047
0.0155024
0.127218
0.236583
0.324744
0.356449
0.286794
0.0917189
-0.0955794
-0.256059
-0.331059
-0.345138
-0.346199
-0.346072
-0.624449
-0.588518
-0.521555
-0.434532
-0.337316
-0.234535
-0.12809
-0.0196479
0.0881814
0.191174
0.269667
0.286633
0.178432
-0.00136776
-0.178673
-0.30654
-0.335678
-0.336005
-0.336387
-0.335911
-0.656171
-0.619878
-0.552742
-0.465968
-0.369427
-0.267851
-0.1633
-0.0577059
0.0458063
0.14187
0.210519
0.208341
0.0825189
-0.0866444
-0.243753
-0.317726
-0.332414
-0.330383
-0.330065
-0.329616
-0.68897
-0.652499
-0.585326
-0.498946
-0.403294
-0.303206
-0.200886
-0.0985542
0.000307184
0.0890812
0.147759
0.129363
-0.00593359
-0.160756
-0.285149
-0.324414
-0.324194
-0.32509
-0.325136
-0.324872
-0.722398
-0.685842
-0.618814
-0.53304
-0.438555
-0.340274
-0.240561
-0.141915
-0.0480299
0.0337209
0.080031
0.0548091
-0.0865554
-0.218974
-0.30697
-0.317354
-0.320246
-0.32129
-0.321351
-0.321299
-0.755475
-0.719009
-0.65246
-0.5676
-0.474646
-0.378564
-0.281853
-0.187298
-0.0987906
-0.0233957
0.0122485
-0.0199111
-0.156203
-0.264928
-0.312488
-0.324992
-0.320906
-0.319042
-0.318473
-0.318381
-0.786366
-0.750708
-0.685214
-0.601718
-0.510769
-0.417356
-0.324081
-0.233966
-0.151207
-0.081871
-0.0506008
-0.0978164
-0.214596
-0.308508
-0.330073
-0.328429
-0.322795
-0.318316
-0.317043
-0.316597
-0.813961
-0.779401
-0.715648
-0.634172
-0.545841
-0.455686
-0.36636
-0.280988
-0.20407
-0.141159
-0.11196
-0.165466
-0.259765
-0.336136
-0.359309
-0.343493
-0.33162
-0.326663
-0.324443
-0.323281
-0.835538
-0.802946
-0.741972
-0.663407
-0.578519
-0.49234
-0.407575
-0.327284
-0.256118
-0.199399
-0.173344
-0.217545
-0.287714
-0.336023
-0.340358
-0.346783
-0.351028
-0.349116
-0.346042
-0.344875
-0.848963
-0.819175
-0.762074
-0.687636
-0.607242
-0.525898
-0.446375
-0.371621
-0.306197
-0.253988
-0.229461
-0.260775
-0.301963
-0.332353
-0.334836
-0.345768
-0.351666
-0.352312
-0.352097
-0.352542
-0.851499
-0.825653
-0.773802
-0.704966
-0.630328
-0.554881
-0.481255
-0.412558
-0.352952
-0.304546
-0.275878
-0.302053
-0.316236
-0.332563
-0.337468
-0.343238
-0.346172
-0.347538
-0.348602
-0.348925
-0.840824
-0.81982
-0.774983
-0.713611
-0.646237
-0.577887
-0.510844
-0.448462
-0.394699
-0.352284
-0.310057
-0.340413
-0.337205
-0.339147
-0.345489
-0.350423
-0.353253
-0.354166
-0.35424
-0.354227
-0.814403
-0.79898
-0.763662
-0.712291
-0.653906
-0.593793
-0.534218
-0.477922
-0.429922
-0.39466
-0.350443
-0.366658
-0.375452
-0.386387
-0.388922
-0.375534
-0.363238
-0.361519
-0.362373
-0.362695
-0.775661
-0.765813
-0.74093
-0.701209
-0.653318
-0.602282
-0.550694
-0.500515
-0.457375
-0.427925
-0.401217
-0.393508
-0.39973
-0.429614
-0.436226
-0.405158
-0.385866
-0.378329
-0.376593
-0.375936
-0.731694
-0.72611
-0.71174
-0.683431
-0.646438
-0.604368
-0.56
-0.516144
-0.476167
-0.448542
-0.423691
-0.410077
-0.392897
-0.389532
-0.340324
-0.337244
-0.370522
-0.384017
-0.383743
-0.382044
-0.692606
-0.689241
-0.682423
-0.664361
-0.636316
-0.601694
-0.563628
-0.52393
-0.485941
-0.454932
-0.432063
-0.415192
-0.378465
-0.350577
-0.36486
-0.403077
-0.411847
-0.393662
-0.379395
-0.381702
-0.664333
-0.662354
-0.658834
-0.648091
-0.626759
-0.597452
-0.563331
-0.525463
-0.486993
-0.450987
-0.429148
-0.412689
-0.413817
-0.448581
-0.497166
-0.573617
-0.603604
-0.575115
-0.520964
-0.507231
-0.643409
-0.642667
-0.641434
-0.63613
-0.620441
-0.594619
-0.561199
-0.523506
-0.480934
-0.441126
-0.414757
-0.387333
-0.348441
-0.363102
-0.392138
-0.405789
-0.470968
-0.519559
-0.515148
-0.505946
-0.631488
-0.631238
-0.630632
-0.628163
-0.617269
-0.593129
-0.559036
-0.518168
-0.471235
-0.420754
-0.376032
-0.33445
-0.284757
-0.289058
-0.360658
-0.435105
-0.479148
-0.449387
-0.395568
-0.362877
-0.623275
-0.623198
-0.622952
-0.622338
-0.61539
-0.593074
-0.557315
-0.512117
-0.45938
-0.390462
-0.326414
-0.227592
-0.145961
-0.0970418
-0.072476
-0.0630601
0.0157588
0.174228
0.305696
0.366306
-0.617331
-0.617246
-0.616966
-0.616754
-0.612673
-0.594169
-0.557326
-0.50721
-0.443003
-0.365884
-0.272131
-0.152332
0.0543857
0.30035
0.583629
0.84936
1.08874
1.28427
1.39669
1.43617
-0.613453
-0.613354
-0.613012
-0.612324
-0.611075
-0.597657
-0.559691
-0.501879
-0.432593
-0.347471
-0.238509
-0.121716
0.103483
0.43123
0.856937
1.25916
1.57764
1.78156
1.86694
1.88848
-0.610717
-0.611492
-0.613427
-0.616128
-0.617548
-0.606721
-0.563709
-0.50101
-0.431266
-0.33769
-0.226536
-0.10816
0.0888583
0.41961
0.805379
1.15419
1.43203
1.59496
1.65905
1.67367
-0.604696
-0.606729
-0.611867
-0.620948
-0.629406
-0.612651
-0.563654
-0.507097
-0.43811
-0.342398
-0.2337
-0.128136
0.014709
0.293853
0.610557
0.877521
1.08205
1.19381
1.23581
1.24467
-0.611002
-0.612561
-0.612757
-0.605123
-0.594802
-0.580095
-0.553872
-0.519762
-0.454653
-0.357126
-0.253328
-0.158544
-0.0557904
0.153904
0.386626
0.581384
0.723389
0.795462
0.822844
0.826587
-0.645754
-0.645438
-0.635182
-0.593819
-0.535876
-0.524763
-0.553984
-0.542553
-0.476522
-0.375326
-0.278006
-0.199119
-0.113619
0.0329915
0.194282
0.324847
0.415042
0.460696
0.475885
0.478803
-0.696392
-0.693615
-0.689172
-0.668055
-0.643118
-0.624957
-0.643191
-0.599464
-0.504916
-0.395225
-0.309534
-0.23727
-0.179331
-0.0651776
0.041442
0.118398
0.169795
0.191759
0.200288
0.201125
-0.806334
-0.814579
-0.853775
-0.902128
-0.919174
-0.89124
-0.825608
-0.693983
-0.541061
-0.420011
-0.332729
-0.267757
-0.217934
-0.147969
-0.0807495
-0.0387184
-0.0204272
-0.0121098
-0.00874414
-0.00752039
-0.954643
-0.977011
-1.02999
-1.07946
-1.09748
-1.06427
-0.959281
-0.758397
-0.567125
-0.442601
-0.343836
-0.293407
-0.254402
-0.196857
-0.15137
-0.135581
-0.135322
-0.134478
-0.130023
-0.127275
-1.00103
-1.0227
-1.05903
-1.09287
-1.10655
-1.07599
-0.950039
-0.727355
-0.560331
-0.431689
-0.344986
-0.302111
-0.279908
-0.22688
-0.185696
-0.164718
-0.159927
-0.153604
-0.149391
-0.148068
-0.876589
-0.894226
-0.92592
-0.958816
-0.974918
-0.941121
-0.806948
-0.632853
-0.496649
-0.382767
-0.325314
-0.292345
-0.275583
-0.226663
-0.18061
-0.152169
-0.132445
-0.121769
-0.116967
-0.116745
-0.590069
-0.608036
-0.642043
-0.682575
-0.708585
-0.684718
-0.591825
-0.489004
-0.385563
-0.318943
-0.278168
-0.255301
-0.242527
-0.19277
-0.147853
-0.120551
-0.0957634
-0.082942
-0.0789165
-0.0797561
-0.236131
-0.248667
-0.275016
-0.311677
-0.343435
-0.350835
-0.336573
-0.304353
-0.270891
-0.241097
-0.21178
-0.195121
-0.181109
-0.14707
-0.115409
-0.0928693
-0.072381
-0.0618066
-0.0596081
-0.06057
0.0429571
0.0364659
0.0194842
-0.0115968
-0.0537724
-0.0960162
-0.129396
-0.153718
-0.164205
-0.158262
-0.145292
-0.128941
-0.113389
-0.097201
-0.0822601
-0.0684391
-0.0551828
-0.0481171
-0.0466376
-0.0480728
0.183555
0.180035
0.168322
0.142655
0.100357
0.0453244
-0.00918803
-0.0517951
-0.0782825
-0.089306
-0.085795
-0.0672319
-0.0572887
-0.0563785
-0.0554194
-0.0517445
-0.0469881
-0.0444777
-0.0445915
-0.0460051
0.219811
0.217499
0.209021
0.189029
0.154509
0.108912
0.0592132
0.0118878
-0.021553
-0.0389685
-0.0381042
-0.0226613
-0.0167388
-0.0280519
-0.038051
-0.0437545
-0.048508
-0.0520795
-0.0542332
-0.0552479
0.20566
0.204185
0.198336
0.184252
0.159134
0.123925
0.0841209
0.0456777
0.0146686
-0.00337472
-0.00588806
0.00436062
0.00436147
-0.0125646
-0.0303276
-0.0442235
-0.0547467
-0.0627272
-0.0656207
-0.0660734
0.173298
0.172463
0.168673
0.159265
0.142198
0.11758
0.0878101
0.0571762
0.0311913
0.0154466
0.0121255
0.018067
0.0119225
-0.00567655
-0.0253498
-0.0414425
-0.0549475
-0.0640563
-0.0667176
-0.066926
0.136531
0.136155
0.133849
0.127832
0.116565
0.0998316
0.0788384
0.0565019
0.036087
0.0227169
0.0184259
0.0205485
0.0128643
-0.00485733
-0.022661
-0.0368112
-0.0487145
-0.0550266
-0.0567254
-0.0569274
0.100592
0.100451
0.0991698
0.0954929
0.088331
0.0773796
0.0630864
0.0476292
0.0326008
0.0212605
0.0141878
0.0117187
0.00406184
-0.00925576
-0.0209867
-0.0305522
-0.0380641
-0.0414062
-0.0420894
-0.042274
0.0671123
0.067098
0.0665089
0.0644701
0.0602388
0.0535402
0.0444709
0.0343115
0.0236075
0.0142776
0.003314
-0.00827878
-0.0158419
-0.0190737
-0.0205115
-0.0232466
-0.0256805
-0.0265036
-0.0265818
-0.0268801
0.0359658
0.0360713
0.0359
0.0349977
0.0329346
0.0295214
0.0247675
0.0192683
0.0130042
0.0062923
-0.00610912
-0.0273425
-0.0359019
-0.0267382
-0.0184878
-0.0159148
-0.0153559
-0.0152094
-0.0148855
-0.0151106
0.00660501
0.00667576
0.00667818
0.00689681
0.00698649
0.00665043
0.00586836
0.0049003
0.00372042
0.00198083
-0.000787093
-0.0092157
-0.0175999
-0.00965639
-0.00949601
-0.00795753
-0.00730209
-0.00562983
-0.00462759
-0.00433578
0.0387095
0.227505
0.400729
0.547648
0.665371
0.758264
0.835556
0.898442
0.914425
0.911071
0.32842
0.449694
0.563417
0.662202
0.745305
0.813878
0.867921
0.90457
0.924249
0.940899
0.525061
0.605946
0.686008
0.756281
0.816154
0.86582
0.904952
0.934805
0.957273
0.976523
0.670528
0.727991
0.785896
0.837826
0.882631
0.920742
0.952743
0.979599
0.999868
1.01877
0.787582
0.830705
0.873514
0.913629
0.94951
0.981215
1.00895
1.03247
1.0504
1.06844
0.884445
0.920116
0.955258
0.988915
1.01995
1.04807
1.07289
1.09372
1.10947
1.12695
0.972699
1.00463
1.03687
1.06803
1.09699
1.12332
1.14641
1.16533
1.17922
1.19624
1.0596
1.09213
1.12453
1.1557
1.18445
1.21021
1.23232
1.24984
1.26221
1.27874
1.15394
1.19032
1.22507
1.2575
1.28666
1.312
1.33311
1.34939
1.361
1.37716
1.26696
1.30753
1.34454
1.37748
1.40596
1.42995
1.44957
1.46484
1.47673
1.49284
1.40834
1.44938
1.48463
1.51422
1.53942
1.56104
1.57954
1.59502
1.60812
1.62411
1.57989
1.61228
1.63918
1.66151
1.6816
1.70032
1.71805
1.7348
1.74971
1.76552
1.76627
1.78354
1.80067
1.81735
1.83344
1.84817
1.86206
1.87651
1.89175
1.90916
1.94949
1.95941
1.97258
1.98353
1.99293
2.00258
2.01317
2.02337
2.0327
2.05809
2.16693
2.16116
2.14815
2.1339
2.12761
2.1333
2.15141
2.17991
2.21369
2.24999
2.47019
2.33435
2.25488
2.21232
2.19492
2.19894
2.22643
2.28435
2.392
2.57022
0.799286
0.792988
0.785256
0.774143
0.760579
0.747939
0.737549
0.729544
0.723833
0.720511
0.720173
0.72302
0.728264
0.735628
0.74518
0.757007
0.770565
0.783493
0.792485
0.800024
0.708392
0.714319
0.722386
0.728513
0.731578
0.731064
0.727979
0.723988
0.720406
0.718132
0.718013
0.720283
0.724051
0.728507
0.732617
0.73487
0.733805
0.729176
0.722131
0.714298
0.701638
0.70401
0.70728
0.710057
0.712509
0.714697
0.715875
0.715729
0.714796
0.714001
0.714234
0.715669
0.717469
0.718714
0.718653
0.717198
0.715047
0.712688
0.709706
0.706689
0.69684
0.697928
0.699846
0.702185
0.704059
0.705461
0.706682
0.707679
0.708286
0.708677
0.709254
0.710023
0.710512
0.710413
0.709798
0.708884
0.70756
0.705595
0.703491
0.702016
0.691807
0.692441
0.69357
0.695329
0.697175
0.698771
0.700027
0.701097
0.702089
0.703005
0.703819
0.704371
0.704535
0.704348
0.703827
0.702865
0.701448
0.699845
0.698512
0.697711
0.68687
0.687309
0.688098
0.689405
0.690929
0.692496
0.69398
0.695284
0.696451
0.69756
0.698547
0.699186
0.699397
0.699187
0.698543
0.69756
0.696418
0.695283
0.694385
0.693852
0.68202
0.682347
0.682961
0.684033
0.685333
0.686738
0.688223
0.689706
0.691113
0.692441
0.693629
0.694421
0.694687
0.694474
0.693902
0.693138
0.692308
0.691464
0.690809
0.690418
0.677231
0.677485
0.67798
0.678895
0.680072
0.681387
0.682818
0.684357
0.685954
0.687546
0.688992
0.689967
0.690358
0.690299
0.689948
0.689427
0.688813
0.688199
0.687725
0.687427
0.67243
0.672632
0.673045
0.67385
0.674951
0.676221
0.67764
0.679228
0.680971
0.682817
0.684567
0.685817
0.686456
0.686652
0.686549
0.68626
0.685858
0.68544
0.685107
0.684872
0.667533
0.667695
0.66805
0.668783
0.66984
0.671094
0.672546
0.674223
0.676131
0.678245
0.680357
0.681985
0.682966
0.683466
0.68363
0.68358
0.683397
0.683158
0.682941
0.682754
0.662449
0.662581
0.662894
0.663584
0.664626
0.665908
0.667434
0.669245
0.671374
0.673817
0.676371
0.678466
0.679857
0.68071
0.681176
0.681385
0.681421
0.681356
0.68124
0.681089
0.657088
0.657194
0.65748
0.658152
0.659215
0.66057
0.662214
0.664215
0.666633
0.669494
0.672592
0.675249
0.677123
0.678383
0.679192
0.679684
0.679954
0.680064
0.680035
0.679911
0.651352
0.651436
0.651706
0.652385
0.653505
0.654973
0.65679
0.65905
0.661842
0.665226
0.66899
0.672322
0.674769
0.676504
0.677703
0.678525
0.679055
0.679331
0.67938
0.679278
0.645127
0.645192
0.645456
0.646164
0.647377
0.649008
0.651062
0.653662
0.656929
0.660961
0.665535
0.669681
0.67281
0.675103
0.676754
0.677947
0.678762
0.679221
0.679346
0.67926
0.638281
0.638327
0.638593
0.639353
0.640699
0.642547
0.644915
0.647949
0.651812
0.656643
0.662203
0.667325
0.671265
0.674219
0.676399
0.678015
0.679161
0.679816
0.680015
0.679941
0.630661
0.630683
0.63095
0.631788
0.633312
0.635442
0.63821
0.641793
0.646399
0.652211
0.658967
0.665258
0.670161
0.673893
0.676703
0.67882
0.680339
0.68121
0.681483
0.681418
0.622024
0.622041
0.622327
0.623263
0.625018
0.62751
0.630784
0.635056
0.640583
0.647598
0.655799
0.663489
0.669533
0.67418
0.677731
0.680453
0.6824
0.683503
0.68385
0.683791
0.612102
0.612093
0.612425
0.61351
0.615565
0.618518
0.622434
0.627572
0.634245
0.642737
0.652683
0.662034
0.669423
0.67515
0.679573
0.682994
0.685436
0.686796
0.687216
0.687158
0.600576
0.600545
0.600928
0.602204
0.604631
0.608175
0.612911
0.619146
0.627253
0.637561
0.64961
0.660921
0.66988
0.676868
0.682311
0.68654
0.689548
0.69118
0.691668
0.691606
0.586947
0.586894
0.587356
0.588884
0.591796
0.596111
0.601908
0.609547
0.619464
0.632011
0.646582
0.660192
0.670958
0.679392
0.686023
0.691179
0.694811
0.696718
0.697264
0.697192
0.570547
0.570472
0.571061
0.572941
0.576503
0.581844
0.589044
0.598513
0.610731
0.626041
0.64362
0.659891
0.672715
0.682789
0.69076
0.696953
0.701259
0.703431
0.704014
0.703924
0.550407
0.550315
0.551108
0.553501
0.55798
0.564747
0.573859
0.585766
0.600944
0.619661
0.640787
0.660087
0.675214
0.687108
0.696542
0.70388
0.708873
0.711265
0.711853
0.711739
0.525071
0.52498
0.526112
0.5293
0.535162
0.544013
0.555842
0.571071
0.590079
0.612965
0.638206
0.660879
0.678509
0.692372
0.703386
0.71192
0.717544
0.72007
0.720621
0.720474
0.492165
0.492122
0.493867
0.498429
0.506606
0.518715
0.534547
0.554352
0.578278
0.606168
0.636068
0.662397
0.682668
0.698587
0.711236
0.720953
0.727054
0.729579
0.730039
0.729858
0.44746
0.447625
0.450704
0.458125
0.470633
0.4881
0.509872
0.535859
0.565897
0.599602
0.634617
0.664785
0.687762
0.705732
0.720002
0.730759
0.737062
0.739393
0.739716
0.739504
0.383052
0.384413
0.391889
0.405894
0.426343
0.452333
0.482481
0.516317
0.553544
0.593702
0.634122
0.668179
0.693813
0.713753
0.729415
0.740896
0.747053
0.748966
0.749122
0.748903
0.306208
0.308882
0.323407
0.347525
0.378837
0.414919
0.454143
0.496273
0.541131
0.588324
0.634911
0.673643
0.702597
0.724991
0.742234
0.75414
0.759931
0.761526
0.761626
0.761496
0.227593
0.234633
0.256435
0.290673
0.332526
0.378471
0.426774
0.477259
0.529819
0.584094
0.63689
0.680305
0.712491
0.737209
0.755952
0.767923
0.772885
0.773964
0.774003
0.773935
0.163466
0.172411
0.198883
0.240282
0.290435
0.344751
0.401239
0.459562
0.519478
0.580528
0.639183
0.686929
0.722008
0.748656
0.768249
0.779958
0.784425
0.785366
0.785454
0.78544
0.110964
0.120631
0.150657
0.19738
0.25378
0.314794
0.378179
0.443408
0.51003
0.577415
0.641625
0.693455
0.731239
0.759617
0.779999
0.791754
0.796015
0.796867
0.796999
0.79703
0.0670611
0.0770373
0.109487
0.160368
0.221891
0.288473
0.357694
0.428934
0.501585
0.574832
0.644304
0.700076
0.740491
0.77065
0.791995
0.803879
0.807972
0.808936
0.809114
0.809181
0.0292778
0.0393847
0.0736448
0.127854
0.193666
0.265034
0.339359
0.41594
0.494059
0.572734
0.647211
0.706844
0.749872
0.781805
0.804142
0.816402
0.82071
0.821707
0.821894
0.821982
-0.00407579
0.00607256
0.0417516
0.0987167
0.168186
0.243713
0.322572
0.403987
0.487156
0.570959
0.65024
0.713625
0.759238
0.792963
0.816411
0.829282
0.833844
0.834886
0.835051
0.835131
-0.0342697
-0.0240955
0.0127341
0.0720667
0.144707
0.223891
0.306804
0.392646
0.480542
0.569239
0.65317
0.720207
0.768393
0.803904
0.828509
0.841988
0.846822
0.847909
0.848046
0.848108
-0.0622748
-0.0520565
-0.0142104
0.0472232
0.122674
0.205098
0.291662
0.381569
0.473882
0.567259
0.655747
0.726411
0.777101
0.814356
0.840058
0.854114
0.859266
0.8604
0.8605
0.860538
-0.0886627
-0.078388
-0.0396047
0.0237187
0.101656
0.186976
0.27684
0.370472
0.466919
0.564811
0.657807
0.732089
0.78526
0.824187
0.850906
0.865466
0.870876
0.872037
0.872093
0.872096
-0.113903
-0.103516
-0.0638539
0.00118499
0.081344
0.16926
0.262112
0.35917
0.459511
0.561736
0.659202
0.737141
0.792801
0.833327
0.860964
0.875892
0.881409
0.882583
0.882604
0.882574
-0.138314
-0.127736
-0.0872395
-0.0206228
0.061531
0.151773
0.247342
0.347549
0.451516
0.557903
0.659817
0.741517
0.799718
0.841789
0.870153
0.885304
0.890838
0.891973
0.891961
0.891903
-0.162007
-0.151209
-0.109912
-0.0418581
0.0420889
0.134425
0.232443
0.335522
0.442852
0.553221
0.659576
0.745176
0.806044
0.849641
0.878584
0.893776
0.899193
0.900255
0.90021
0.90013
-0.185135
-0.174067
-0.132002
-0.0625954
0.0229538
0.117157
0.217374
0.323058
0.433495
0.547638
0.658388
0.748073
0.811836
0.857038
0.886423
0.901418
0.906596
0.90754
0.907449
0.907351
-0.207672
-0.196377
-0.153539
-0.0828715
0.00410366
0.0999625
0.202146
0.310174
0.423445
0.54111
0.656179
0.750151
0.817145
0.864145
0.893874
0.908431
0.913178
0.913928
0.913787
0.913673
-0.229713
-0.218126
-0.174505
-0.102685
-0.014455
0.0828639
0.186788
0.296907
0.412725
0.533638
0.652893
0.751328
0.821971
0.871149
0.901241
0.915053
0.919063
0.919501
0.919302
0.919185
-0.251077
-0.239287
-0.194895
-0.122033
-0.0326854
0.0659212
0.171352
0.283309
0.401392
0.525256
0.64848
0.751507
0.826254
0.878174
0.908905
0.921738
0.924545
0.924381
0.924087
0.924002
-0.271912
-0.259821
-0.214693
-0.140902
-0.0505666
0.0491632
0.155919
0.269454
0.38952
0.516024
0.642915
0.750572
0.829858
0.885212
0.917239
0.929236
0.930326
0.928911
0.92829
0.928326
-0.292046
-0.279691
-0.233886
-0.159249
-0.0680279
0.0326677
0.140568
0.255452
0.377202
0.505993
0.636205
0.748399
0.832592
0.892067
0.926363
0.93841
0.93785
0.934292
0.932405
0.932396
-0.311584
-0.298928
-0.252423
-0.17702
-0.0850383
0.0164985
0.125381
0.241379
0.36454
0.495286
0.628392
0.744848
0.834227
0.898355
0.93586
0.949559
0.948864
0.943304
0.937573
0.929387
-0.330412
-0.317527
-0.270391
-0.194383
-0.10182
0.000379384
0.110028
0.226842
0.351101
0.483427
0.618998
0.739399
0.834439
0.903921
0.945275
0.96231
0.963868
0.957145
0.945835
0.944842
-0.348494
-0.335561
-0.287789
-0.211287
-0.118358
-0.0156527
0.0945366
0.211818
0.336846
0.47028
0.607825
0.731522
0.832425
0.907969
0.95274
0.972793
0.976256
0.971214
0.936916
0.898345
-0.365621
-0.352903
-0.304564
-0.227617
-0.134645
-0.031604
0.0789041
0.196436