/*--------------------------------*- C++ -*----------------------------------*\
  =========                 |
  \\      /  F ield         | OpenFOAM: The Open Source CFD Toolbox
   \\    /   O peration     | Website:  https://openfoam.org
    \\  /    A nd           | Version:  6
     \\/     M anipulation  |
\*---------------------------------------------------------------------------*/
FoamFile
{
    version     2.0;
    format      ascii;
    class       surfaceScalarField;
    location    "28.7";
    object      phi;
}
// * * * * * * * * * * * * * * * * * * * * * * * * * * * * * * * * * * * * * //

dimensions      [0 3 -1 0 0 0 0];

internalField   nonuniform List<scalar> 
17370
(
-0.0900011
0.0898494
0.289162
-0.0714624
0.0537514
0.364487
-0.0381174
0.0276881
0.426597
-0.0196353
0.0146002
0.504287
-0.010754
0.00825862
0.601897
-0.0062541
0.00487588
0.720436
-0.00371441
0.00287999
0.863741
-0.00214937
0.001603
1.036
-0.001103
0.000705835
1.2429
-0.000307702
-6.97456e-05
1.49157
0.00044058
-0.000837142
1.49159
0.00123026
-0.0017237
1.24318
0.00226279
-0.0029854
1.03636
0.00381241
-0.00496549
0.86406
0.00633592
-0.00833196
0.721054
0.0108199
-0.0146585
0.603053
0.0196871
-0.0277329
0.507485
0.0381561
-0.0537836
0.431796
0.0714885
-0.0898668
0.365154
0.0900114
0.198999
-0.12813
0.0882158
0.0399139
-0.364592
0.353365
-0.0746847
0.0859119
-0.446473
0.454311
-0.0844132
0.0765756
-0.521182
0.529897
-0.068479
0.0597642
-0.612773
0.621563
-0.0515685
0.0427787
-0.726876
0.734148
-0.0353096
0.0280374
-0.867464
0.87255
-0.0224453
0.0173587
-1.03847
1.04187
-0.0135873
0.0101875
-1.24461
1.247
-0.00762087
0.0052264
-1.49264
1.49461
-0.00329726
0.00133481
-1.49248
1.49421
0.000364788
-0.00209858
-1.24399
1.24588
0.00402164
-0.00591215
-1.03752
1.04004
0.00826152
-0.0107835
-0.866103
0.86983
0.014132
-0.0178581
-0.724393
0.729946
0.0228985
-0.028451
-0.6087
0.616134
0.0356824
-0.043116
-0.5149
0.523064
0.051869
-0.0600331
-0.439864
0.447934
0.0687146
-0.0767849
-0.375304
0.376763
0.084591
-0.0860508
-0.257346
0.222518
0.0747787
-0.0399504
-0.0685004
0.058671
0.00982936
-0.0518393
0.0584364
-0.374107
0.36751
-0.0575327
0.0537926
-0.453581
0.457321
-0.0487156
0.0447768
-0.52793
0.531869
-0.0409503
0.0373205
-0.621541
0.62517
-0.0332229
0.029153
-0.735316
0.739386
-0.024594
0.0204495
-0.874286
0.87843
-0.016131
0.0124602
-1.04343
1.0471
-0.00876509
0.00563687
-1.24854
1.25166
-0.0023715
-0.000656617
-1.49665
1.49968
0.00366694
-0.0068974
-1.49722
1.50045
0.00997554
-0.0136023
-1.25007
1.2537
0.0172006
-0.0214388
-1.04592
1.05016
0.0255118
-0.0299929
-0.877784
0.882265
0.0339909
-0.0380116
-0.739943
0.743963
0.0415751
-0.0453339
-0.626819
0.630577
0.0492164
-0.0542405
-0.53485
0.539874
0.0579248
-0.0587602
-0.457514
0.458349
0.0520842
-0.0319311
-0.335816
0.315663
0.00986949
-0.0683895
0.05852
-0.0529144
0.0489167
0.00399771
-0.0331811
0.0437349
-0.358062
0.347508
-0.0474374
0.0468103
-0.459242
0.459869
-0.0437508
0.0403913
-0.535745
0.539104
-0.0366108
0.0333064
-0.628463
0.631767
-0.0298854
0.0268881
-0.742589
0.745586
-0.0236863
0.0206412
-0.881954
0.884999
-0.0171875
0.0138798
-1.05068
1.05399
-0.0101625
0.00668259
-1.25507
1.25855
-0.0027599
-0.00101009
-1.50317
1.50694
0.00476006
-0.00861021
-1.5041
1.50795
0.0120029
-0.0156036
-1.25743
1.26103
0.018798
-0.0221261
-1.05398
1.05731
0.0250593
-0.0281445
-0.885785
0.888871
0.0310381
-0.0343496
-0.74725
0.750562
0.0375602
-0.0412466
-0.634378
0.638064
0.0445278
-0.0475001
-0.544199
0.547172
0.0480373
-0.04421
-0.456669
0.452842
0.0335094
-0.0161415
-0.296359
0.278992
0.0040475
-0.0527197
0.0486722
-0.0458344
0.0433368
0.00249754
-0.0228195
0.0332116
-0.336799
0.326407
-0.0390525
0.0400891
-0.459538
0.458502
-0.0389189
0.03665
-0.541813
0.544082
-0.0340016
0.0314232
-0.634796
0.637374
-0.0283824
0.0255119
-0.748601
0.751471
-0.0222966
0.0193599
-0.887914
0.890851
-0.0161218
0.0130841
-1.05708
1.06012
-0.00962716
0.00628962
-1.26196
1.2653
-0.00242014
-0.0013698
-1.51077
1.51456
0.00513024
-0.00890996
-1.51182
1.5156
0.0121278
-0.0154331
-1.26446
1.26777
0.0183249
-0.0213993
-1.0604
1.06347
0.0241909
-0.0272546
-0.891937
0.895001
0.0299913
-0.0328889
-0.753809
0.756706
0.0353416
-0.0378628
-0.641182
0.643703
0.040025
-0.0410589
-0.549024
0.550058
0.0398831
-0.0338434
-0.447628
0.441589
0.0232379
-0.0101335
-0.263866
0.250761
0.00255891
-0.0455363
0.0429774
-0.0412591
0.0394939
0.00176526
-0.0167324
0.0259795
-0.316545
0.307298
-0.0325834
0.0347271
-0.456865
0.454721
-0.0343199
0.0326714
-0.545996
0.547645
-0.0305216
0.0284599
-0.639616
0.641677
-0.02608
0.0237518
-0.754092
0.75642
-0.0209897
0.0182959
-0.893747
0.89644
-0.0151697
0.0122043
-1.06313
1.0661
-0.00882201
0.00558761
-1.26854
1.27178
-0.00184061
-0.00182291
-1.51827
1.52193
0.00544042
-0.00905843
-1.51929
1.52291
0.0121267
-0.0153077
-1.27101
1.27419
0.0180786
-0.0209915
-1.06653
1.06944
0.0234973
-0.0260602
-0.897875
0.900438
0.0282128
-0.0304066
-0.759196
0.76139
0.0323083
-0.0342969
-0.645864
0.647852
0.0357967
-0.0360237
-0.550605
0.550832
0.0336712
-0.0267809
-0.435036
0.428146
0.0172497
-0.00726644
-0.239369
0.229386
0.00183978
-0.0408347
0.038995
-0.0379714
0.0366457
0.00132575
-0.0127367
0.0206623
-0.298706
0.29078
-0.0274098
0.0303407
-0.452151
0.44922
-0.0305529
0.029436
-0.549065
0.550182
-0.0274428
0.0255472
-0.643665
0.645561
-0.0234116
0.0213785
-0.758569
0.760602
-0.0190173
0.0166918
-0.898913
0.901238
-0.0139145
0.0111701
-1.06893
1.07168
-0.00793887
0.0048087
-1.27495
1.27808
-0.00116614
-0.00235915
-1.52552
1.52905
0.0058359
-0.00932361
-1.5265
1.52999
0.0122459
-0.0152179
-1.27729
1.28027
0.0177086
-0.0202038
-1.07212
1.07462
0.0222814
-0.0243889
-0.902696
0.904804
0.0262045
-0.028109
-0.763407
0.765311
0.0297994
-0.0315873
-0.649755
0.651543
0.0324806
-0.0320118
-0.550732
0.550263
0.0287838
-0.0216505
-0.421073
0.41394
0.0133664
-0.00555846
-0.220587
0.21278
0.00141583
-0.0373935
0.0359776
-0.0354907
0.0344781
0.00101263
-0.00987229
0.0165228
-0.28351
0.276859
-0.022962
0.0263418
-0.446017
0.442637
-0.0271826
0.0265686
-0.551004
0.551618
-0.0249192
0.0232231
-0.647368
0.649064
-0.0212395
0.0193005
-0.762622
0.764561
-0.017028
0.0148025
-0.903519
0.905745
-0.0121933
0.00964269
-1.07429
1.07684
-0.00665379
0.00374345
-1.28106
1.28397
-0.000344572
-0.00297944
-1.53244
1.53577
0.00623743
-0.00944089
-1.53334
1.53655
0.012095
-0.0147481
-1.2831
1.28576
0.0169715
-0.0192212
-1.077
1.07925
0.0211352
-0.0230968
-0.906837
0.908798
0.0247672
-0.0264695
-0.767107
0.768809
0.027915
-0.0292913
-0.653147
0.654523
0.0296338
-0.0284432
-0.549419
0.548228
0.0246683
-0.0177329
-0.406868
0.399933
0.0106384
-0.00439015
-0.205821
0.199573
0.00112216
-0.0347269
0.0336048
-0.0335919
0.0328155
0.000776469
-0.00769927
0.013214
-0.270798
0.265283
-0.0190963
0.0226
-0.439178
0.435674
-0.0238268
0.0233796
-0.552152
0.552599
-0.0219235
0.0203214
-0.650719
0.652321
-0.0184874
0.0167435
-0.76643
0.768174
-0.0147152
0.0127145
-0.907856
0.909857
-0.0103447
0.00800895
-1.07922
1.08155
-0.00525813
0.00254935
-1.28673
1.28944
0.000645147
-0.00378691
-1.53901
1.54215
0.00684227
-0.00978182
-1.53965
1.54259
0.0121609
-0.0144902
-1.28826
1.29059
0.0164143
-0.0183262
-1.08133
1.08324
0.0199347
-0.0215726
-0.910571
0.912209
0.0229861
-0.0244769
-0.770369
0.77186
0.0257735
-0.026882
-0.655759
0.656867
0.0269604
-0.0252471
-0.546787
0.545074
0.021212
-0.0146954
-0.393202
0.386685
0.00863353
-0.00354478
-0.193953
0.188864
0.000910554
-0.0326028
0.0316922
-0.03214
0.0315504
0.000589625
-0.00597208
0.0104876
-0.260283
0.255768
-0.0157086
0.0191961
-0.432162
0.428675
-0.0207797
0.0206068
-0.552937
0.55311
-0.0194261
0.0179115
-0.653911
0.655425
-0.0161549
0.0144856
-0.769918
0.771587
-0.0125506
0.0106447
-0.911776
0.913682
-0.0083769
0.00614796
-1.08376
1.08599
-0.00353525
0.00100767
-1.292
1.29453
0.00191311
-0.00471261
-1.54508
1.54788
0.0074188
-0.0100531
-1.5454
1.54803
0.0121924
-0.0142907
-1.29283
1.29493
0.0160028
-0.0176869
-1.08506
1.08674
0.0190885
-0.0205254
-0.913707
0.915144
0.021785
-0.0231198
-0.773231
0.774566
0.0242633
-0.0249695
-0.657795
0.658502
0.0246734
-0.0224552
-0.54314
0.540922
0.0182924
-0.0122878
-0.38043
0.374426
0.00710636
-0.00290989
-0.184261
0.180064
0.000752414
-0.030876
0.0301236
-0.0310433
0.0306106
0.000432697
-0.00452267
0.00813052
-0.251726
0.248119
-0.0125784
0.0158191
-0.425296
0.422056
-0.0175526
0.0176215
-0.553143
0.553074
-0.0167467
0.0154107
-0.656874
0.65821
-0.0138085
0.0122331
-0.773279
0.774854
-0.0103557
0.00848875
-0.915551
0.917418
-0.00629552
0.00418033
-1.08809
1.0902
-0.00174096
-0.000602976
-1.29691
1.29926
0.00330446
-0.00588968
-1.55053
1.55312
0.00835973
-0.0107072
-1.55052
1.55286
0.012567
-0.0143554
-1.29692
1.29871
0.0158154
-0.0172859
-1.08835
1.08982
0.0185243
-0.0197847
-0.916492
0.917753
0.0208584
-0.021951
-0.775731
0.776824
0.0228203
-0.0230819
-0.658972
0.659233
0.0223989
-0.0198399
-0.538554
0.535995
0.0157428
-0.0103277
-0.36874
0.363325
0.00590875
-0.00242244
-0.176258
0.172772
0.000633826
-0.0294437
0.0288099
-0.0302481
0.0299556
0.000292575
-0.00324321
0.00601805
-0.244938
0.242163
-0.0096628
0.0125248
-0.418997
0.416135
-0.014224
0.014401
-0.552947
0.55277
-0.0136057
0.0123668
-0.659521
0.660759
-0.0108323
0.00934464
-0.776449
0.777936
-0.00760517
0.00589758
-0.919179
0.920887
-0.00389636
0.00195547
-1.09216
1.0941
0.00029681
-0.00246704
-1.30146
1.30363
0.00496537
-0.00733591
-1.55557
1.55794
0.00955235
-0.0116069
-1.55507
1.55712
0.0131937
-0.0146818
-1.3004
1.30189
0.0158518
-0.0169518
-1.09118
1.09228
0.0178566
-0.0187804
-0.918841
0.919764
0.019598
-0.0204641
-0.777701
0.778567
0.0210974
-0.0211509
-0.659374
0.659428
0.0201778
-0.0174461
-0.533384
0.530652
0.0135276
-0.00870214
-0.358235
0.353409
0.00494006
-0.00203346
-0.169607
0.1667
0.000540127
-0.0282377
0.0276976
-0.0297276
0.0295606
0.000166922
-0.0020614
0.00403494
-0.239797
0.237824
-0.00684082
0.00922903
-0.413513
0.411125
-0.0107992
0.011049
-0.552575
0.552325
-0.0103353
0.0092037
-0.662019
0.66315
-0.00776483
0.00636976
-0.779429
0.780824
-0.00473412
0.00311843
-0.922454
0.924069
-0.00121246
-0.000640254
-1.09589
1.09774
0.0027699
-0.00478597
-1.30567
1.30768
0.00705164
-0.00912871
-1.56014
1.56222
0.0110341
-0.012752
-1.55902
1.56074
0.0140369
-0.0151706
-1.30323
1.30437
0.0160202
-0.0168124
-1.09322
1.09401
0.0174343
-0.018053
-0.920527
0.921146
0.0186065
-0.0192352
-0.779283
0.779912
0.0196308
-0.0193916
-0.659358
0.659119
0.0181284
-0.0152566
-0.527895
0.525023
0.0115664
-0.00732416
-0.348914
0.344672
0.00414701
-0.00172864
-0.164074
0.161655
0.000472367
-0.0272094
0.026737
-0.0294568
0.0294149
4.19305e-05
-0.000925578
0.0021293
-0.236235
0.235031
-0.00408744
0.00594936
-0.409011
0.407149
-0.00734751
0.00770661
-0.552051
0.551692
-0.00721067
0.00630273
-0.664245
0.665153
-0.00500961
0.00366346
-0.782226
0.783572
-0.00201752
0.000379143
-0.925606
0.927244
0.00153325
-0.00335168
-1.09949
1.10131
0.00541619
-0.00735005
-1.30958
1.31152
0.00947078
-0.0113762
-1.56413
1.56604
0.0130557
-0.0145012
-1.56232
1.56377
0.0155167
-0.0163893
-1.30547
1.30634
0.0169917
-0.0174858
-1.09477
1.09527
0.0178458
-0.0181878
-0.921628
0.92197
0.0184621
-0.0187101
-0.780198
0.780446
0.0186449
-0.0180031
-0.658628
0.657986
0.0163554
-0.0133356
-0.52214
0.51912
0.00987962
-0.00616915
-0.340753
0.337043
0.00349456
-0.00148354
-0.159484
0.157473
0.000420906
-0.0263118
0.0258909
-0.0294385
0.0295412
-0.000102675
0.000215808
0.000234467
-0.234207
0.233756
-0.00131573
0.00254028
-0.405622
0.404398
-0.00357067
0.00384817
-0.551394
0.551117
-0.00339232
0.00256353
-0.666095
0.666924
-0.00133909
3.26412e-05
-0.784934
0.786241
0.00156598
-0.00314252
-0.92873
0.930307
0.00496204
-0.00669225
-1.10295
1.10468
0.00864663
-0.010451
-1.31331
1.31512
0.0124224
-0.0141667
-1.56785
1.5696
0.015611
-0.0167216
-1.56508
1.56619
0.01738
-0.0177878
-1.30705
1.30746
0.0179927
-0.0181056
-1.09563
1.09575
0.0181421
-0.0181054
-0.922094
0.922057
0.0180223
-0.017903
-0.780405
0.780286
0.0174924
-0.0164577
-0.657046
0.656011
0.014589
-0.0115755
-0.516183
0.513169
0.00841274
-0.00520222
-0.333662
0.330452
0.00295452
-0.00127097
-0.155687
0.154003
0.000367384
-0.0255211
0.0251537
-0.0297133
0.0299375
-0.000224232
0.00115752
-0.00135228
-0.233679
0.233874
0.00108237
-0.000517746
-0.403548
0.402983
-4.03621e-05
9.97346e-05
-0.551031
0.550972
0.000442079
-0.00130477
-0.667894
0.668756
0.0025512
-0.00387112
-0.78755
0.78887
0.00548634
-0.00708117
-0.931716
0.933311
0.00892773
-0.010662
-1.10626
1.10799
0.0125827
-0.014308
-1.31677
1.3185
0.0161049
-0.0175705
-1.57113
1.5726
0.0186934
-0.0194584
-1.56711
1.56788
0.0198008
-0.0198925
-1.3078
1.30789
0.0197647
-0.0194683
-1.09571
1.09541
0.019138
-0.0187725
-0.921838
0.921472
0.0184305
-0.0180177
-0.77982
0.779407
0.0172892
-0.0159065
-0.654805
0.653422
0.0138088
-0.0107509
-0.510269
0.507212
0.00776227
-0.00484216
-0.3275
0.32458
0.00279697
-0.00122396
-0.152457
0.150884
0.000356588
-0.024827
0.0244705
-0.0302175
0.0305406
-0.000323051
0.00188219
-0.00260691
-0.234308
0.235033
0.00304398
-0.00308636
-0.402772
0.402814
0.0029843
-0.00315689
-0.551156
0.551329
0.00380221
-0.00475587
-0.669804
0.670758
0.00610627
-0.00755427
-0.790233
0.791681
0.00933184
-0.0110744
-0.934769
0.936512
0.0130667
-0.0149228
-1.1096
1.11146
0.0169499
-0.0187274
-1.32013
1.32191
0.0205089
-0.0218619
-1.57393
1.57528
0.0227812
-0.0232796
-1.56851
1.56901
0.0233458
-0.0231143
-1.30786
1.30763
0.0227194
-0.0221339
-1.09497
1.09438
0.0214854
-0.0207372
-0.920857
0.920109
0.0200704
-0.0192827
-0.778669
0.777881
0.0181795
-0.0163938
-0.65189
0.650104
0.0140438
-0.0108822
-0.504276
0.501114
0.00793832
-0.00508196
-0.32183
0.318974
0.00301006
-0.00133977
-0.14935
0.14768
0.000391604
-0.0241355
0.0237439
-0.030925
0.0313499
-0.000424888
0.00258629
-0.00376478
-0.236003
0.237181
0.00483145
-0.00548907
-0.403196
0.403853
0.00593267
-0.0063687
-0.551815
0.552251
0.00712853
-0.00818985
-0.671931
0.672992
0.00969705
-0.0113395
-0.79316
0.794802
0.013385
-0.0153933
-0.93815
0.940158
0.0176818
-0.0197917
-1.11325
1.11536
0.0220486
-0.0239959
-1.32363
1.32558
0.0258784
-0.0272381
-1.57655
1.57791
0.028068
-0.0283339
-1.56937
1.56964
0.0281556
-0.0275878
-1.30725
1.30669
0.0268423
-0.0258793
-1.09359
1.09263
0.0249458
-0.0238831
-0.919115
0.918052
0.0228678
-0.0216225
-0.776722
0.775477
0.0201213
-0.0179117
-0.648215
0.646005
0.0152564
-0.011899
-0.498065
0.494707
0.00884814
-0.00581525
-0.316194
0.313161
0.00351103
-0.00158184
-0.145971
0.144042
0.000465605
-0.0233587
0.0228931
-0.0318475
0.0323994
-0.000551901
0.0034108
-0.00507569
-0.238637
0.240302
0.00677936
-0.00807626
-0.404846
0.406143
0.00917659
-0.0100781
-0.553149
0.55405
0.0111616
-0.0124776
-0.674318
0.675634
0.0142943
-0.016257
-0.796463
0.798426
0.0186553
-0.0209722
-0.942053
0.94437
0.0235887
-0.0259629
-1.1174
1.11977
0.0284774
-0.0305771
-1.32747
1.32957
0.0325417
-0.0338876
-1.57919
1.58054
0.0345606
-0.0345457
-1.56974
1.56972
0.0340268
-0.0330634
-1.30594
1.30498
0.0319467
-0.0305591
-1.09142
1.09003
0.0291867
-0.0276496
-0.916636
0.915099
0.0262402
-0.0245701
-0.773876
0.772206
0.022708
-0.0201292
-0.643713
0.641134
0.0172263
-0.0136403
-0.491496
0.48791
0.010304
-0.00686417
-0.310119
0.30668
0.00417253
-0.00188738
-0.142041
0.139756
0.000557162
-0.0224339
0.0218768
-0.0330377
0.0337623
-0.000724656
0.00449051
-0.00672404
-0.242279
0.244512
0.00910206
-0.0110782
-0.40786
0.409836
0.0129486
-0.0145384
-0.555634
0.557224
0.0163168
-0.0182297
-0.677393
0.679306
0.0206445
-0.0230902
-0.800416
0.802861
0.0259469
-0.0286396
-0.946559
0.949251
0.0315985
-0.0342238
-1.12204
1.12466
0.0369087
-0.0390585
-1.33154
1.33369
0.0409283
-0.0420033
-1.58167
1.58274
0.0422758
-0.041762
-1.56944
1.56893
0.0407675
-0.039286
-1.30376
1.30228
0.0377017
-0.0357992
-1.08832
1.08642
0.0340123
-0.032061
-0.913163
0.911212
0.0302797
-0.0282212
-0.770141
0.768082
0.0260775
-0.0232283
-0.638557
0.635708
0.020058
-0.0160335
-0.484472
0.480447
0.0121705
-0.00810732
-0.303172
0.299108
0.00492476
-0.00223042
-0.137392
0.134698
0.000660039
-0.0213269
0.0206668
-0.0345822
0.0355512
-0.000968965
0.00598954
-0.00897706
-0.247105
0.250093
0.0121483
-0.014776
-0.412303
0.41493
0.0173437
-0.0195866
-0.559618
0.561861
0.0221167
-0.0247538
-0.68176
0.684397
0.0279544
-0.0310673
-0.805346
0.808459
0.0345982
-0.0378008
-0.951853
0.955055
0.0412229
-0.0441826
-1.12719
1.13014
0.0471318
-0.0494082
-1.33569
1.33796
0.0512251
-0.0520394
-1.58353
1.58434
0.0518835
-0.0507992
-1.56803
1.56695
0.0492045
-0.0470383
-1.30042
1.29826
0.044829
-0.0423724
-1.0842
1.08174
0.0402053
-0.0379202
-0.908907
0.906622
0.0359022
-0.0335821
-0.765657
0.763337
0.0311619
-0.0278464
-0.632839
0.629524
0.0239869
-0.019021
-0.47638
0.471414
0.0143076
-0.00947728
-0.294953
0.290123
0.00575404
-0.00260908
-0.13194
0.128795
0.000772017
-0.0200188
0.0192468
-0.0366165
0.0379268
-0.00131028
0.00805905
-0.0120592
-0.253477
0.257477
0.0162212
-0.0195367
-0.418161
0.421477
0.0226593
-0.0253994
-0.565015
0.567755
0.028525
-0.0317926
-0.687545
0.690813
0.0358129
-0.0397025
-0.81161
0.815499
0.0440037
-0.0478791
-0.958204
0.962079
0.0519996
-0.0555378
-1.13307
1.13661
0.0590311
-0.0616741
-1.34017
1.34282
0.0637269
-0.0645877
-1.585
1.58586
0.0643309
-0.0630032
-1.56562
1.5643
0.0611072
-0.0585273
-1.29579
1.29321
0.0558727
-0.0528152
-1.07882
1.07577
0.0500035
-0.0470639
-0.90379
0.90085
0.0445675
-0.0415635
-0.760535
0.757531
0.0383266
-0.0337378
-0.625853
0.621264
0.0285688
-0.0222983
-0.466247
0.459977
0.0166608
-0.011046
-0.285258
0.279644
0.00672568
-0.00305497
-0.125591
0.121921
0.000903514
-0.0184874
0.0175839
-0.0393183
0.0411547
-0.00183641
0.0111318
-0.0165832
-0.261919
0.267371
0.0221391
-0.0263914
-0.42569
0.429942
0.0301347
-0.0332754
-0.571556
0.574696
0.0368534
-0.0406808
-0.694541
0.698368
0.0453882
-0.0499359
-0.819301
0.823849
0.0550868
-0.0598066
-0.965959
0.970678
0.0648566
-0.0691865
-1.14022
1.14455
0.0734071
-0.0765614
-1.34548
1.34863
0.0789927
-0.080015
-1.58664
1.58767
0.0797363
-0.0782352
-1.5628
1.5613
0.0760973
-0.0731906
-1.29042
1.28751
0.0701845
-0.0666341
-1.07233
1.06878
0.0632804
-0.0595445
-0.897238
0.893502
0.0558966
-0.0514458
-0.753583
0.749132
0.0465048
-0.0400273
-0.615877
0.6094
0.0333898
-0.0259
-0.453581
0.446091
0.0193903
-0.0129158
-0.274069
0.267594
0.00787694
-0.00356771
-0.118194
0.113884
0.00104784
-0.0167028
0.0156549
-0.0430272
0.0457008
-0.00267354
0.0157823
-0.0232645
-0.273285
0.280768
0.0307199
-0.0363477
-0.435732
0.44136
0.0411059
-0.0449167
-0.579304
0.583115
0.0491164
-0.0535285
-0.702576
0.706989
0.0589917
-0.0643818
-0.828285
0.833676
0.0705572
-0.0761867
-0.975427
0.981057
0.0821443
-0.0871352
-1.14891
1.1539
0.0918652
-0.0952691
-1.3517
1.3551
0.0977245
-0.0985398
-1.58845
1.58927
0.097854
-0.0957833
-1.55947
1.5574
0.0930646
-0.0894589
-1.28425
1.28064
0.0857624
-0.0813977
-1.06471
1.06035
0.077166
-0.0721786
-0.888801
0.883814
0.0670749
-0.060799
-0.74333
0.737054
0.0542411
-0.0462738
-0.602202
0.594234
0.0385968
-0.0301585
-0.438732
0.430293
0.0227426
-0.0152002
-0.261219
0.253677
0.0092451
-0.00415208
-0.109523
0.10443
0.00120401
-0.0146378
0.0134338
-0.0483145
0.0524388
-0.00412432
0.0232151
-0.0335328
-0.288798
0.299116
0.0435254
-0.0511604
-0.449559
0.457194
0.0575652
-0.06263
-0.589052
0.594117
0.0681708
-0.0737354
-0.711896
0.717461
0.0803766
-0.0867038
-0.838986
0.845313
0.093706
-0.0998913
-0.986558
0.992743
0.106202
-0.111273
-1.15863
1.1637
0.115821
-0.118799
-1.35809
1.36107
0.120495
-0.120351
-1.58946
1.58932
0.118548
-0.115214
-1.55465
1.55131
0.111318
-0.106397
-1.27636
1.27144
0.1015
-0.0957967
-1.05519
1.04948
0.0902667
-0.083796
-0.877606
0.871135
0.077403
-0.0698314
-0.729435
0.721863
0.0622994
-0.0534737
-0.585819
0.576993
0.0450215
-0.0355439
-0.422085
0.412608
0.0269268
-0.0179554
-0.246261
0.237289
0.0108244
-0.00478788
-0.099335
0.0932986
0.00135932
-0.0122795
0.0109201
-0.056258
0.0634437
-0.00718573
0.036589
-0.0512256
-0.310638
0.325275
0.0649464
-0.0752358
-0.468886
0.479175
0.0836552
-0.0904239
-0.602108
0.608877
0.0980033
-0.105033
-0.723506
0.730536
0.112721
-0.119525
-0.85132
0.858124
0.126633
-0.132574
-0.998416
1.00436
0.138307
-0.142573
-1.16805
1.17232
0.145978
-0.147639
-1.36314
1.3648
0.147643
-0.145673
-1.58808
1.58611
0.141965
-0.136661
-1.54688
1.54158
0.131039
-0.124333
-1.26556
1.25885
0.117883
-0.110557
-1.04278
1.03545
0.103655
-0.0958946
-0.863424
0.855664
0.0885937
-0.0803184
-0.713031
0.704756
0.072274
-0.0627675
-0.567728
0.558222
0.0533368
-0.0423428
-0.403214
0.39222
0.0320385
-0.0212251
-0.228483
0.21767
0.0126437
-0.00548497
-0.0874215
0.0802628
0.00150892
-0.00964261
0.00813369
-0.0702533
0.0740804
-0.0038271
0.0272296
-0.0399746
-0.342723
0.355468
0.0523658
-0.0618614
-0.494816
0.504312
0.0704371
-0.0790562
-0.619117
0.627736
0.0889236
-0.097717
-0.737224
0.746017
0.107658
-0.116626
-0.864055
0.873023
0.126231
-0.134738
-1.00926
1.01776
0.143533
-0.150901
-1.17532
1.18269
0.157931
-0.163092
-1.36504
1.37021
0.166887
-0.168094
-1.58262
1.58383
0.166533
-0.162572
-1.53482
1.53086
0.157202
-0.149835
-1.251
1.24363
0.142257
-0.132707
-1.02708
1.01753
0.12366
-0.11342
-0.846721
0.836482
0.103969
-0.0935116
-0.695042
0.684584
0.0831805
-0.0709166
-0.547855
0.535591
0.0588285
-0.0446164
-0.380981
0.366768
0.0318276
-0.0193533
-0.206998
0.194524
0.0103853
-0.00394273
-0.0737114
0.0672688
0.000854307
-0.00681932
0.00596501
-0.081361
0.0790323
0.00232868
0.00577509
-0.013701
-0.371135
0.379061
0.0229178
-0.030158
-0.51842
0.525661
0.0377946
-0.0454303
-0.638536
0.646172
0.0545977
-0.0629803
-0.754651
0.763033
0.0719554
-0.0801989
-0.881549
0.889793
0.0889441
-0.0963115
-1.02593
1.0333
0.104053
-0.110105
-1.18974
1.19579
0.115706
-0.119357
-1.37479
1.37845
0.121186
-0.120603
-1.58373
1.58314
0.117279
-0.11156
-1.52548
1.51976
0.104569
-0.0957337
-1.23521
1.22637
0.0870261
-0.0768977
-1.00721
0.997085
0.0672913
-0.0566281
-0.824776
0.814113
0.0471991
-0.0378054
-0.670882
0.661489
0.0298678
-0.0214562
-0.521087
0.512676
0.0139359
-0.00719771
-0.351858
0.34512
0.0028059
2.9024e-05
-0.182144
0.179309
-0.00121511
0.00116868
-0.0606246
0.060671
-0.000604354
-0.004519
0.00512335
-0.0820929
0.0791416
0.00295127
-0.00248125
-0.00182188
-0.390245
0.394548
0.00763649
-0.0131539
-0.53674
0.542257
0.0194178
-0.0261553
-0.655437
0.662175
0.0341355
-0.0414679
-0.770807
0.77814
0.0495034
-0.0566903
-0.897395
0.904582
0.0640316
-0.0705408
-1.04047
1.04698
0.0771419
-0.0823473
-1.20133
1.20654
0.0866772
-0.0891844
-1.38131
1.38382
0.0900939
-0.0885224
-1.58164
1.58007
0.0843713
-0.0780341
-1.51317
1.50683
0.070761
-0.0620423
-1.21718
1.20846
0.0533086
-0.0436524
-0.986511
0.976855
0.0346774
-0.0249118
-0.803337
0.793572
0.0165793
-0.00829884
-0.65008
0.641799
0.00166935
0.00462425
-0.50196
0.495666
-0.0086491
0.0104928
-0.336186
0.334342
-0.0102042
0.00839774
-0.174215
0.176022
-0.00599586
0.00318188
-0.0597065
0.0625205
-0.00112721
-0.00482829
0.0059555
-0.0806488
0.0778318
0.00281702
-0.00571178
0.00372315
-0.402756
0.404745
-9.93746e-05
-0.00417414
-0.550884
0.555157
0.00974902
-0.0155057
-0.669629
0.675386
0.0224384
-0.0288188
-0.785125
0.791506
0.0357483
-0.0419459
-0.911358
0.917556
0.0486388
-0.0541677
-1.05309
1.05862
0.0599308
-0.0640184
-1.21134
1.21542
0.0676518
-0.0696239
-1.38606
1.38803
0.0699175
-0.0677874
-1.57803
1.5759
0.0636729
-0.0576201
-1.49998
1.49393
0.0507941
-0.0424062
-1.1996
1.19121
0.0344634
-0.0257753
-0.967
0.958312
0.0176257
-0.00911518
-0.783727
0.775217
0.00151477
0.00574062
-0.631875
0.62462
-0.0112642
0.0154713
-0.486968
0.482761
-0.0173489
0.0168155
-0.328762
0.329295
-0.0144273
0.0107772
-0.175433
0.179084
-0.00733714
0.00363394
-0.0640754
0.0677786
-0.00118721
-0.00627791
0.00746512
-0.0790964
0.0766958
0.00240059
-0.00649322
0.00589682
-0.41113
0.411727
-0.00314713
-0.000111914
-0.562492
0.565751
0.00476597
-0.0100424
-0.681781
0.687058
0.0159644
-0.0216705
-0.797437
0.803143
0.0277671
-0.0332288
-0.923442
0.928904
0.0390471
-0.0440386
-1.06406
1.06905
0.0489854
-0.0528178
-1.21941
1.22325
0.0559783
-0.0576314
-1.38968
1.39134
0.0577244
-0.0556225
-1.57365
1.57155
0.0517677
-0.0460308
-1.48734
1.4816
0.0398406
-0.0324414
-1.18299
1.17559
0.0253921
-0.0175889
-0.949519
0.941716
0.0105528
-0.00312969
-0.766496
0.759073
-0.00323538
0.00939036
-0.616397
0.610242
-0.0138916
0.017116
-0.475976
0.472752
-0.0183627
0.0173187
-0.325698
0.326742
-0.014464
0.0106152
-0.179983
0.183832
-0.00708759
0.00340362
-0.0698254
0.0735093
-0.00110273
-0.00793724
0.00903997
-0.0777988
0.075793
0.00200579
-0.00614444
0.00588605
-0.416934
0.417192
-0.00425636
0.00150068
-0.571643
0.574399
0.00303805
-0.00761835
-0.692281
0.696861
0.0128043
-0.0178473
-0.808269
0.813312
0.0233609
-0.0283359
-0.934148
0.939123
0.0337733
-0.0382544
-1.07385
1.07833
0.0428219
-0.0463797
-1.22686
1.23042
0.0492839
-0.0508047
-1.39279
1.39431
0.0508814
-0.0493108
-1.56944
1.56787
0.0457877
-0.0407699
-1.47559
1.47057
0.0352298
-0.0286517
-1.16825
1.16167
0.0226532
-0.0157182
-0.934022
0.927087
0.00958031
-0.00331006
-0.751644
0.745374
-0.00207348
0.00721266
-0.603506
0.598367
-0.0109439
0.0137501
-0.467274
0.464468
-0.0145697
0.0137144
-0.324207
0.325062
-0.0115956
0.00838003
-0.184575
0.18779
-0.00550536
0.00268019
-0.075142
0.0779671
-0.000883346
-0.00941612
0.0102995
-0.0769182
0.0753881
0.00153001
-0.00510134
0.00503987
-0.421349
0.42141
-0.00352302
0.00132258
-0.579829
0.582029
0.00283414
-0.00700333
-0.701576
0.705745
0.0119944
-0.0164281
-0.818134
0.822568
0.0213698
-0.0258745
-0.944179
0.948684
0.0311426
-0.0353182
-1.08291
1.08709
0.0395054
-0.0430028
-1.23387
1.23737
0.0462124
-0.047758
-1.39591
1.39746
0.0481363
-0.0467828
-1.56601
1.56466
0.0439799
-0.0393003
-1.46546
1.46079
0.0345369
-0.0288754
-1.1551
1.14944
0.0235141
-0.0176424
-0.920405
0.914534
0.0122716
-0.0066782
-0.738955
0.733361
0.00225978
0.00224518
-0.592608
0.588103
-0.00556021
0.00784751
-0.459883
0.457596
-0.00874294
0.00845789
-0.322861
0.323146
-0.00708311
0.00493339
-0.187774
0.189924
-0.00313932
0.00153183
-0.0786566
0.0802641
-0.000534516
-0.0104304
0.010965
-0.0765761
0.0754023
0.00117382
-0.00392193
0.00390929
-0.42499
0.425002
-0.00236984
0.000189208
-0.587084
0.589265
0.00364909
-0.00743411
-0.710054
0.713839
0.0118002
-0.0161401
-0.827088
0.831428
0.0207925
-0.0255119
-0.953098
0.957817
0.0301531
-0.0342333
-1.09143
1.09551
0.0386516
-0.0420303
-1.24081
1.24419
0.0449098
-0.0470063
-1.39898
1.40108
0.0477403
-0.0468795
-1.56343
1.56257
0.0444666
-0.0406051
-1.45638
1.45252
0.0363898
-0.0313007
-1.14355
1.13847
0.026569
-0.0213185
-0.908625
0.903374
0.0165628
-0.0117507
-0.727861
0.723049
0.00755165
-0.00358968
-0.583069
0.579107
0.000666708
0.00170464
-0.45357
0.451199
-0.00287962
0.00299678
-0.320664
0.320546
-0.002665
0.00191037
-0.188866
0.18962
-0.00127786
0.000684364
-0.0800404
0.0806339
-0.000297893
-0.0108332
0.0111311
-0.0767874
0.0758089
0.000978549
-0.00260381
0.00233959
-0.428399
0.428663
-0.000985212
-0.00131164
-0.593789
0.596086
0.0048584
-0.00855094
-0.718036
0.721728
0.0127914
-0.0167935
-0.835685
0.839687
0.0216272
-0.0256347
-0.962056
0.966064
0.030318
-0.0343015
-1.09981
1.10379
0.0386947
-0.0423486
-1.2476
1.25125
0.0456273
-0.0476358
-1.403
1.40501
0.048846
-0.0485109
-1.56168
1.56134
0.0468524
-0.043416
-1.44857
1.44513
0.03972
-0.0351205
-1.1335
1.1289
0.0308295
-0.025931
-0.897918
0.89302
0.0216297
-0.0170615
-0.717977
0.713409
0.0131568
-0.00934644
-0.574589
0.570779
0.00637178
-0.00407042
-0.44734
0.445039
0.00250211
-0.00170591
-0.317524
0.316728
0.00101451
-0.000529952
-0.187777
0.187293
0.000146532
0.000149885
-0.0794536
0.0791572
-0.000173259
-0.010707
0.0108803
-0.0772884
0.07661
0.00067837
-0.00146104
0.000754707
-0.431997
0.432703
0.000475273
-0.00289404
-0.599809
0.602228
0.00614918
-0.00974735
-0.725557
0.729155
0.013854
-0.0180197
-0.843659
0.847824
0.0223043
-0.0265211
-0.970351
0.974568
0.0312265
-0.0350634
-1.10824
1.11208
0.0396242
-0.0433125
-1.25476
1.25845
0.0467405
-0.0493604
-1.40747
1.41009
0.0511587
-0.0512035
-1.56108
1.56113
0.0498574
-0.0471613
-1.44186
1.43917
0.0439966
-0.0397221
-1.12413
1.11986
0.0356338
-0.0312099
-0.888
0.883577
0.026802
-0.0225764
-0.708548
0.704323
0.0188068
-0.0149674
-0.566657
0.562817
0.0120413
-0.00933194
-0.441032
0.438323
0.00737411
-0.00567257
-0.313359
0.311658
0.00423586
-0.00269531
-0.18472
0.183179
0.00136685
-0.000350947
-0.0772971
0.0762812
-5.85043e-05
-0.0101747
0.0102332
-0.0781736
0.0776481
0.00052545
-0.000509672
-0.000159739
-0.435829
0.436499
0.00196444
-0.00420968
-0.605946
0.608192
0.00764276
-0.0111342
-0.732637
0.736129
0.0151154
-0.0189228
-0.851758
0.855565
0.023371
-0.0273227
-0.97885
0.982802
0.0320238
-0.0363388
-1.11641
1.12072
0.0406055
-0.0446753
-1.26223
1.2663
0.0485942
-0.0513792
-1.41265
1.41543
0.0536319
-0.0545056
-1.56141
1.56228
0.0536579
-0.0515775
-1.43632
1.43424
0.0485941
-0.044706
-1.11556
1.11167
0.0409359
-0.0365677
-0.878684
0.874316
0.0324124
-0.0281726
-0.699535
0.695295
0.0244085
-0.020425
-0.558539
0.554556
0.0172018
-0.0141792
-0.434328
0.431305
0.0115397
-0.00908165
-0.307747
0.305289
0.00682904
-0.00443778
-0.179801
0.17741
0.00247744
-0.000896348
-0.0739282
0.0723471
0.000123276
-0.00942179
0.00929851
-0.0793151
0.0789585
0.000356557
0.000522232
-0.00139877
-0.439822
0.440698
0.00307741
-0.00558892
-0.611705
0.614217
0.00895662
-0.0123059
-0.73951
0.742859
0.0163835
-0.0200704
-0.859424
0.863111
0.0243975
-0.0284981
-0.987274
0.991375
0.0331451
-0.0374614
-1.12493
1.12925
0.0419891
-0.0461337
-1.27033
1.27448
0.0502923
-0.0538702
-1.41854
1.42211
0.0566257
-0.0578569
-1.56312
1.56436
0.0577189
-0.0559681
-1.43204
1.43029
0.0535046
-0.050059
-1.10765
1.10421
0.0462607
-0.0419907
-0.869584
0.865314
0.0378954
-0.0334995
-0.690614
0.686218
0.0297437
-0.0255668
-0.550405
0.546228
0.0221367
-0.018537
-0.42703
0.42343
0.0154333
-0.0122197
-0.300782
0.297568
0.00910979
-0.00594772
-0.17329
0.170128
0.0034064
-0.00132508
-0.0695298
0.0674485
0.000257408
-0.00845846