0.490941 	0.00468575 	3.00024 	-1.91437e-20
0.561075 	0.00468575 	3.00024 	-1.91437e-20
0.63121 	0.00468575 	3.00024 	-1.91437e-20
0.701344 	0.00468575 	3.00024 	-1.91437e-20
0.771478 	0.00468575 	3.00024 	-1.91437e-20
0.841613 	0.00468575 	3.00024 	-1.91437e-20
0.911747 	0.0128428 	3.00441 	-4.40107e-20
0.981881 	0.0128428 	3.00441 	-4.40107e-20
1.05202 	0.0128428 	3.00441 	-4.40107e-20
1.12215 	0.0128428 	3.00441 	-4.40107e-20
1.19228 	0.0128428 	3.00441 	-4.40107e-20
1.26242 	0.0128428 	3.00441 	-4.40107e-20
1.33255 	0.0167678 	3.01599 	4.39805e-20
1.40269 	0.0167678 	3.01599 	4.39805e-20
1.47282 	0.0167678 	3.01599 	4.39805e-20
1.54296 	0.0167678 	3.01599 	4.39805e-20
1.61309 	0.0167678 	3.01599 	4.39805e-20
1.68323 	0.0167678 	3.01599 	4.39805e-20
1.75336 	0.0148744 	3.03328 	2.01406e-20
1.82349 	0.0148744 	3.03328 	2.01406e-20
1.89363 	0.0148744 	3.03328 	2.01406e-20
1.96376 	0.0148744 	3.03328 	2.01406e-20
2.0339 	0.0148744 	3.03328 	2.01406e-20
2.10403 	0.0148744 	3.03328 	2.01406e-20
2.17417 	0.0108791 	3.07093 	0
2.2443 	0.0108791 	3.07093 	0
2.31443 	0.0108791 	3.07093 	0
2.38457 	0.0108791 	3.07093 	0
2.4547 	0.0108791 	3.07093 	0
2.52484 	0.0108791 	3.07093 	0
2.59497 	0.00994505 	3.09304 	-8.76307e-20
2.66511 	0.00994505 	3.09304 	-8.76307e-20
2.73524 	0.00994505 	3.09304 	-8.76307e-20
2.80538 	0.00994505 	3.09304 	-8.76307e-20
2.87551 	0.00994505 	3.09304 	-8.76307e-20
2.94564 	0.00994505 	3.09304 	-8.76307e-20
3.01578 	0.00853839 	3.09751 	6.98076e-20
3.08591 	0.00853839 	3.09751 	6.98076e-20
3.15605 	0.00853839 	3.09751 	6.98076e-20
3.22618 	0.00853839 	3.09751 	6.98076e-20
3.29632 	0.00853839 	3.09751 	6.98076e-20
3.36645 	0.00853839 	3.09751 	6.98076e-20
3.43659 	0.00557924 	3.10306 	-1.28165e-19
3.50672 	0.00557924 	3.10306 	-1.28165e-19
3.57685 	0.00557924 	3.10306 	-1.28165e-19
3.64699 	0.00557924 	3.10306 	-1.28165e-19
3.71712 	0.00557924 	3.10306 	-1.28165e-19
3.78726 	0.000690808 	3.09896 	-1.42448e-19
3.85739 	-0.00226042 	3.10833 	2.59647e-19
3.92753 	-0.00226042 	3.10833 	2.59647e-19
3.99766 	-0.00226042 	3.10833 	2.59647e-19
4.06779 	-0.00226042 	3.10833 	2.59647e-19
4.13793 	-0.00226042 	3.10833 	2.59647e-19
4.20806 	-0.00226042 	3.10833 	2.59647e-19
4.2782 	-0.00277599 	3.11163 	-1.2468e-19
4.34833 	-0.00277599 	3.11163 	-1.2468e-19
4.41847 	-0.00277599 	3.11163 	-1.2468e-19
4.4886 	-0.00277599 	3.11163 	-1.2468e-19
4.55874 	-0.00277599 	3.11163 	-1.2468e-19
4.62887 	-0.00277599 	3.11163 	-1.2468e-19
4.699 	-0.00277599 	3.11163 	-1.2468e-19
4.76914 	-0.00109635 	3.11086 	-8.98372e-20
4.83927 	-0.00109635 	3.11086 	-8.98372e-20
4.90941 	-0.00109635 	3.11086 	-8.98372e-20
4.97954 	-0.00109635 	3.11086 	-8.98372e-20
5.04968 	-0.00109635 	3.11086 	-8.98372e-20
5.11981 	-0.00109635 	3.11086 	-8.98372e-20
5.18994 	0.00164379 	3.11044 	8.9389e-20
5.26008 	0.00164379 	3.11044 	8.9389e-20
5.33021 	0.00164379 	3.11044 	8.9389e-20
5.40035 	0.00164379 	3.11044 	8.9389e-20
5.47048 	0.00164379 	3.11044 	8.9389e-20
5.54062 	0.00164379 	3.11044 	8.9389e-20
5.61075 	0.00284471 	3.11219 	-1.70132e-19
5.68089 	0.00284471 	3.11219 	-1.70132e-19
5.75102 	0.00284471 	3.11219 	-1.70132e-19
5.82115 	0.00284471 	3.11219 	-1.70132e-19
5.89129 	0.00284471 	3.11219 	-1.70132e-19
5.96142 	0.00284471 	3.11219 	-1.70132e-19
6.03156 	0.0028141 	3.11559 	1.88796e-19
6.10169 	0.0028141 	3.11559 	1.88796e-19
6.17183 	0.0028141 	3.11559 	1.88796e-19
6.24196 	0.0028141 	3.11559 	1.88796e-19
6.3121 	0.0028141 	3.11559 	1.88796e-19
6.38223 	0.0028141 	3.11559 	1.88796e-19
6.45236 	0.00104657 	3.11863 	1.06528e-20
6.5225 	0.00104657 	3.11863 	1.06528e-20
6.59263 	0.00104657 	3.11863 	1.06528e-20
6.66277 	0.00104657 	3.11863 	1.06528e-20
6.7329 	0.00104657 	3.11863 	1.06528e-20
6.80304 	0.00104657 	3.11863 	1.06528e-20
6.87317 	-0.00173956 	3.12022 	-9.91792e-21
6.9433 	-0.00173956 	3.12022 	-9.91792e-21
7.01344 	-0.00173956 	3.12022 	-9.91792e-21
7.08357 	-0.00173956 	3.12022 	-9.91792e-21
7.15371 	-0.00173956 	3.12022 	-9.91792e-21
7.22384 	-0.00173956 	3.12022 	-9.91792e-21
7.29398 	-0.00474316 	3.12145 	0
7.36411 	-0.00474316 	3.12145 	0
7.43425 	-0.00474316 	3.12145 	0
7.50438 	-0.00474316 	3.12145 	0
7.57451 	-0.00474316 	3.12145 	0
7.64465 	-0.00474316 	3.12145 	0
7.71478 	-0.00474316 	3.12145 	0
7.78492 	-0.00813364 	3.12167 	0
7.85505 	-0.00813364 	3.12167 	0
7.92519 	-0.00813364 	3.12167 	0
7.99532 	-0.00813364 	3.12167 	0
8.06545 	-0.00813364 	3.12167 	0
8.13559 	-0.00813364 	3.12167 	0
8.20572 	-0.0124182 	3.123 	0
8.27586 	-0.0124182 	3.123 	0
8.34599 	-0.0124182 	3.123 	0
8.41613 	-0.0124182 	3.123 	0
8.48626 	-0.0124182 	3.123 	0
8.5564 	-0.0124182 	3.123 	0
8.62653 	-0.0169305 	3.12232 	1.38581e-22
8.69666 	-0.0169305 	3.12232 	1.38581e-22
8.7668 	-0.0169305 	3.12232 	1.38581e-22
8.83693 	-0.0169305 	3.12232 	1.38581e-22
8.90707 	-0.0169305 	3.12232 	1.38581e-22
8.9772 	-0.0169305 	3.12232 	1.38581e-22
9.04734 	-0.0244764 	3.12494 	-8.89777e-20
9.11747 	-0.0244764 	3.12494 	-8.89777e-20
9.18761 	-0.0244764 	3.12494 	-8.89777e-20
9.25774 	-0.0211907 	3.12067 	-1.71757e-20
9.32787 	-0.0211907 	3.12067 	-1.71757e-20
9.39801 	-0.0211907 	3.12067 	-1.71757e-20
9.46814 	-0.0211907 	3.12067 	-1.71757e-20
9.53828 	-0.0287944 	3.11722 	-9.22228e-20
9.60841 	-0.0287944 	3.11722 	-9.22228e-20
9.67855 	-0.0287944 	3.11722 	-9.22228e-20
9.74868 	-0.0287944 	3.11722 	-9.22228e-20
9.81881 	-0.0287944 	3.11722 	-9.22228e-20
9.88895 	-0.0287944 	3.11722 	-9.22228e-20
9.95908 	-0.0429544 	3.11945 	-4.85099e-21
10.0292 	-0.0429544 	3.11945 	-4.85099e-21
10.0994 	-0.0429544 	3.11945 	-4.85099e-21
10.1695 	-0.0429544 	3.11945 	-4.85099e-21
10.2396 	-0.0429544 	3.11945 	-4.85099e-21
10.3098 	-0.0429544 	3.11945 	-4.85099e-21
10.3799 	-0.0564678 	3.10842 	6.33962e-20
10.45 	-0.0564678 	3.10842 	6.33962e-20
10.5202 	-0.0564678 	3.10842 	6.33962e-20
10.5903 	-0.0564678 	3.10842 	6.33962e-20
10.6604 	-0.0564678 	3.10842 	6.33962e-20
10.7306 	-0.0564678 	3.10842 	6.33962e-20
10.8007 	-0.0813474 	3.11114 	-6.70138e-20
10.8708 	-0.0813474 	3.11114 	-6.70138e-20
10.941 	-0.0813474 	3.11114 	-6.70138e-20
11.0111 	-0.0813474 	3.11114 	-6.70138e-20
11.0812 	-0.0813474 	3.11114 	-6.70138e-20
11.1514 	-0.0813474 	3.11114 	-6.70138e-20
11.2215 	-0.0813474 	3.11114 	-6.70138e-20
11.2916 	-0.0988471 	3.08953 	-1.00107e-19
11.3618 	-0.0988471 	3.08953 	-1.00107e-19
11.4319 	-0.0988471 	3.08953 	-1.00107e-19
11.502 	-0.0988471 	3.08953 	-1.00107e-19
11.5722 	-0.0988471 	3.08953 	-1.00107e-19
11.6423 	-0.0988471 	3.08953 	-1.00107e-19
11.7124 	-0.144017 	3.07797 	9.71953e-20
11.7826 	-0.144017 	3.07797 	9.71953e-20
11.8527 	-0.144017 	3.07797 	9.71953e-20
11.9228 	-0.144017 	3.07797 	9.71953e-20
11.993 	-0.144017 	3.07797 	9.71953e-20
12.0631 	-0.144017 	3.07797 	9.71953e-20
12.1332 	-0.15803 	3.04705 	0
12.2034 	-0.15803 	3.04705 	0
12.2735 	-0.15803 	3.04705 	0
12.3437 	-0.15803 	3.04705 	0
12.4138 	-0.15803 	3.04705 	0
12.4839 	-0.15803 	3.04705 	0
12.5541 	-0.15803 	3.04705 	0
12.6242 	-0.216443 	3.00466 	-3.22438e-21
12.6943 	-0.216443 	3.00466 	-3.22438e-21
12.7645 	-0.216443 	3.00466 	-3.22438e-21
12.8346 	-0.216443 	3.00466 	-3.22438e-21
12.9047 	-0.216443 	3.00466 	-3.22438e-21
12.9749 	-0.216443 	3.00466 	-3.22438e-21
13.045 	-0.214719 	2.9489 	3.38739e-21
13.1151 	-0.214719 	2.9489 	3.38739e-21
13.1853 	-0.214719 	2.9489 	3.38739e-21
13.2554 	-0.214719 	2.9489 	3.38739e-21
13.3255 	-0.214719 	2.9489 	3.38739e-21
13.3957 	-0.214719 	2.9489 	3.38739e-21
13.4658 	-0.214719 	2.9489 	3.38739e-21
13.5359 	-0.26877 	2.86607 	0
13.6061 	-0.26877 	2.86607 	0
13.6762 	-0.26877 	2.86607 	0
13.7463 	-0.26877 	2.86607 	0
13.8165 	-0.26877 	2.86607 	0
13.8866 	-0.26877 	2.86607 	0
13.9567 	-0.200981 	2.74538 	-2.21618e-22
14.0269 	-0.200981 	2.74538 	-2.21618e-22
14.097 	-0.200981 	2.74538 	-2.21618e-22
14.1671 	-0.200981 	2.74538 	-2.21618e-22
14.2373 	-0.200981 	2.74538 	-2.21618e-22
14.3074 	-0.200981 	2.74538 	-2.21618e-22
14.3776 	-0.257137 	2.69297 	1.20504e-19
14.4477 	-0.193629 	2.69445 	-2.42572e-20
14.5178 	-0.193629 	2.69445 	-2.42572e-20
14.588 	-0.193629 	2.69445 	-2.42572e-20
14.6581 	-0.186202 	2.65262 	0
14.7282 	-0.186202 	2.65262 	0
14.7984 	-0.145961 	2.64352 	-2.01535e-19
14.8685 	-0.133963 	2.59835 	-2.02874e-19
14.9386 	-0.133963 	2.59835 	-2.02874e-19
15.0088 	-0.133963 	2.59835 	-2.02874e-19
15.0789 	-0.133963 	2.59835 	-2.02874e-19
15.149 	-0.149889 	2.55401 	1.79781e-19
15.2192 	-0.0570276 	2.54272 	1.83506e-19
15.2893 	-0.0570276 	2.54272 	1.83506e-19
15.3594 	-0.0570276 	2.54272 	1.83506e-19
15.4296 	-0.0432298 	2.47768 	-6.33056e-19
15.4997 	-0.0432298 	2.47768 	-6.33056e-19
15.5698 	0.00544894 	2.48647 	3.71465e-19
15.64 	0.00544894 	2.48647 	3.71465e-19
15.7101 	0.00544894 	2.48647 	3.71465e-19
15.7802 	0.0290395 	2.46315 	-6.26569e-19
15.8504 	0.0290395 	2.46315 	-6.26569e-19
15.9205 	0.131868 	2.44951 	-1.86197e-19
15.9906 	0.131868 	2.44951 	-1.86197e-19
16.0608 	0.131868 	2.44951 	-1.86197e-19
16.1309 	0.146023 	2.40409 	0
16.201 	0.146023 	2.40409 	0
16.2712 	0.226234 	2.42629 	0
16.3413 	0.226234 	2.42629 	0
16.4114 	0.226234 	2.42629 	0
16.4816 	0.226234 	2.42629 	0
16.5517 	0.254965 	2.35583 	-3.58805e-19
16.6219 	0.341681 	2.34506 	4.07163e-20
16.692 	0.341681 	2.34506 	4.07163e-20
16.7621 	0.341681 	2.34506 	4.07163e-20
16.8323 	0.341681 	2.34506 	4.07163e-20
16.9024 	0.341681 	2.34506 	4.07163e-20
16.9725 	0.418584 	2.20973 	0
17.0427 	0.418584 	2.20973 	0
17.1128 	0.418584 	2.20973 	0
17.1829 	0.418584 	2.20973 	0
17.2531 	0.503008 	2.18708 	0
17.3232 	0.503008 	2.18708 	0
17.3933 	0.503008 	2.18708 	0
17.4635 	0.463274 	2.09279 	3.99358e-19
17.5336 	0.463274 	2.09279 	3.99358e-19
17.6037 	0.536616 	2.07143 	0
17.6739 	0.536616 	2.07143 	0
17.744 	0.536616 	2.07143 	0
17.8141 	0.536616 	2.07143 	0
17.8843 	0.536616 	2.07143 	0
17.9544 	0.556418 	1.95549 	5.242e-19
18.0245 	0.556418 	1.95549 	5.242e-19
18.0947 	0.556418 	1.95549 	5.242e-19
18.1648 	0.556418 	1.95549 	5.242e-19
18.2349 	0.611308 	1.92976 	-7.11384e-19
18.3051 	0.611308 	1.92976 	-7.11384e-19
18.3752 	0.611308 	1.92976 	-7.11384e-19
18.4453 	0.611308 	1.92976 	-7.11384e-19
18.5155 	0.611308 	1.92976 	-7.11384e-19
18.5856 	0.612214 	1.83809 	-1.12208e-18
18.6557 	0.612214 	1.83809 	-1.12208e-18
18.7259 	0.612214 	1.83809 	-1.12208e-18
18.796 	0.612214 	1.83809 	-1.12208e-18
18.8662 	0.650676 	1.81287 	1.08554e-18
18.9363 	0.650676 	1.81287 	1.08554e-18
19.0064 	0.650676 	1.81287 	1.08554e-18
19.0766 	0.650676 	1.81287 	1.08554e-18
19.1467 	0.650676 	1.81287 	1.08554e-18
19.2168 	0.680638 	1.78187 	3.27833e-19
19.287 	0.63974 	1.74019 	6.28622e-19
19.3571 	0.63974 	1.74019 	6.28622e-19
19.4272 	0.63974 	1.74019 	6.28622e-19
19.4974 	0.63974 	1.74019 	6.28622e-19
19.5675 	0.665632 	1.71819 	3.05553e-19
19.6376 	0.665632 	1.71819 	3.05553e-19
19.7078 	0.665632 	1.71819 	3.05553e-19
19.7779 	0.665632 	1.71819 	3.05553e-19
19.848 	0.665632 	1.71819 	3.05553e-19
19.9182 	0.683691 	1.6926 	-3.00414e-19
19.9883 	0.683691 	1.6926 	-3.00414e-19
20.0584 	0.650468 	1.66588 	0
20.1286 	0.650468 	1.66588 	0
20.1987 	0.650468 	1.66588 	0
20.2688 	0.667388 	1.64941 	3.15673e-19
20.339 	0.667388 	1.64941 	3.15673e-19
20.4091 	0.667388 	1.64941 	3.15673e-19
20.4792 	0.667388 	1.64941 	3.15673e-19
20.5494 	0.667388 	1.64941 	3.15673e-19
20.6195 	0.677702 	1.62994 	1.65818e-21
20.6896 	0.677702 	1.62994 	1.65818e-21
20.7598 	0.677702 	1.62994 	1.65818e-21
20.8299 	0.677702 	1.62994 	1.65818e-21
20.9 	0.65267 	1.61248 	1.26203e-18
20.9702 	0.663276 	1.60129 	7.55476e-19
21.0403 	0.663276 	1.60129 	7.55476e-19
21.1105 	0.663276 	1.60129 	7.55476e-19
21.1806 	0.663276 	1.60129 	7.55476e-19
21.2507 	0.663276 	1.60129 	7.55476e-19
21.3209 	0.667837 	1.58749 	-4.70842e-19
21.391 	0.667837 	1.58749 	-4.70842e-19
21.4611 	0.667837 	1.58749 	-4.70842e-19
21.5313 	0.667837 	1.58749 	-4.70842e-19
21.6014 	0.667837 	1.58749 	-4.70842e-19
21.6715 	0.667837 	1.58749 	-4.70842e-19
21.7417 	0.673106 	1.5762 	2.35315e-19
21.8118 	0.673106 	1.5762 	2.35315e-19
21.8819 	0.673106 	1.5762 	2.35315e-19
21.9521 	0.657591 	1.57155 	2.38657e-19
22.0222 	0.657591 	1.57155 	2.38657e-19
22.0923 	0.659409 	1.56119 	1.11779e-18
22.1625 	0.659409 	1.56119 	1.11779e-18
22.2326 	0.659409 	1.56119 	1.11779e-18
22.3027 	0.659409 	1.56119 	1.11779e-18
22.3729 	0.659409 	1.56119 	1.11779e-18
22.443 	0.659409 	1.56119 	1.11779e-18
22.5131 	0.657834 	1.55586 	-8.53327e-22
22.5833 	0.657834 	1.55586 	-8.53327e-22
22.6534 	0.657834 	1.55586 	-8.53327e-22
22.7235 	0.657834 	1.55586 	-8.53327e-22
22.7937 	0.657834 	1.55586 	-8.53327e-22
22.8638 	0.650253 	1.54813 	-6.24227e-19
22.9339 	0.650253 	1.54813 	-6.24227e-19
23.0041 	0.650253 	1.54813 	-6.24227e-19
23.0742 	0.642526 	1.55635 	8.58065e-19
23.1443 	0.642526 	1.55635 	8.58065e-19
23.2145 	0.642526 	1.55635 	8.58065e-19
23.2846 	0.638933 	1.55534 	1.76279e-19
23.3548 	0.638933 	1.55534 	1.76279e-19
23.4249 	0.638933 	1.55534 	1.76279e-19
23.495 	0.638933 	1.55534 	1.76279e-19
23.5652 	0.638933 	1.55534 	1.76279e-19
23.6353 	0.638933 	1.55534 	1.76279e-19
23.7054 	0.637068 	1.55287 	3.1955e-19
23.7756 	0.637068 	1.55287 	3.1955e-19
23.8457 	0.637068 	1.55287 	3.1955e-19
23.9158 	0.637068 	1.55287 	3.1955e-19
23.986 	0.637068 	1.55287 	3.1955e-19
24.0561 	0.637068 	1.55287 	3.1955e-19
24.1262 	0.634912 	1.54951 	0
24.1964 	0.634912 	1.54951 	0
24.2665 	0.634912 	1.54951 	0
24.3366 	0.634912 	1.54951 	0
24.4068 	0.634912 	1.54951 	0
24.4769 	0.640569 	1.57272 	6.38115e-19
24.547 	0.640569 	1.57272 	6.38115e-19
24.6172 	0.632803 	1.57158 	8.98115e-19
24.6873 	0.632803 	1.57158 	8.98115e-19
24.7574 	0.632803 	1.57158 	8.98115e-19
24.8276 	0.632803 	1.57158 	8.98115e-19
24.8977 	0.632803 	1.57158 	8.98115e-19
24.9678 	0.632803 	1.57158 	8.98115e-19
25.038 	0.623523 	1.56967 	-3.04659e-19
25.1081 	0.623523 	1.56967 	-3.04659e-19
25.1782 	0.623523 	1.56967 	-3.04659e-19
25.2484 	0.623523 	1.56967 	-3.04659e-19
25.3185 	0.623523 	1.56967 	-3.04659e-19
25.3886 	0.623523 	1.56967 	-3.04659e-19
25.4588 	0.610728 	1.56628 	0
25.5289 	0.610728 	1.56628 	0
25.5991 	0.610728 	1.56628 	0
25.6692 	0.610728 	1.56628 	0
25.7393 	0.610728 	1.56628 	0
25.8095 	0.610728 	1.56628 	0
25.8796 	0.610728 	1.56628 	0
25.9497 	0.597479 	1.56503 	5.47735e-19
26.0199 	0.597479 	1.56503 	5.47735e-19
26.09 	0.595601 	1.58275 	4.43247e-19
26.1601 	0.595601 	1.58275 	4.43247e-19
26.2303 	0.595601 	1.58275 	4.43247e-19
26.3004 	0.595601 	1.58275 	4.43247e-19
26.3705 	0.595601 	1.58275 	4.43247e-19
26.4407 	0.58262 	1.58445 	-1.03868e-18
26.5108 	0.58262 	1.58445 	-1.03868e-18
26.5809 	0.58262 	1.58445 	-1.03868e-18
26.6511 	0.58262 	1.58445 	-1.03868e-18
26.7212 	0.58262 	1.58445 	-1.03868e-18
26.7913 	0.58262 	1.58445 	-1.03868e-18
26.8615 	0.58262 	1.58445 	-1.03868e-18
26.9316 	0.568971 	1.5881 	6.08609e-19
27.0017 	0.568971 	1.5881 	6.08609e-19
27.0719 	0.568971 	1.5881 	6.08609e-19
27.142 	0.568971 	1.5881 	6.08609e-19
27.2121 	0.568971 	1.5881 	6.08609e-19
27.2823 	0.568971 	1.5881 	6.08609e-19
27.3524 	0.553152 	1.59133 	1.96512e-19
27.4225 	0.553152 	1.59133 	1.96512e-19
27.4927 	0.553152 	1.59133 	1.96512e-19
27.5628 	0.553152 	1.59133 	1.96512e-19
27.6329 	0.553152 	1.59133 	1.96512e-19
27.7031 	0.553152 	1.59133 	1.96512e-19
27.7732 	0.553152 	1.59133 	1.96512e-19
27.8434 	0.553152 	1.59133 	1.96512e-19
27.9135 	0.536162 	1.59591 	1.93647e-19
27.9836 	0.536162 	1.59591 	1.93647e-19
28.0538 	0.536162 	1.59591 	1.93647e-19
28.1239 	0.536162 	1.59591 	1.93647e-19
28.194 	0.536162 	1.59591 	1.93647e-19
28.2642 	0.536162 	1.59591 	1.93647e-19
28.3343 	0.545158 	1.62458 	-1.69711e-19
28.4044 	0.526803 	1.63075 	3.33123e-19
28.4746 	0.526803 	1.63075 	3.33123e-19
28.5447 	0.526803 	1.63075 	3.33123e-19
28.6148 	0.526803 	1.63075 	3.33123e-19
28.685 	0.526803 	1.63075 	3.33123e-19
28.7551 	0.526803 	1.63075 	3.33123e-19
28.8252 	0.526803 	1.63075 	3.33123e-19
28.8954 	0.526803 	1.63075 	3.33123e-19
28.9655 	0.506976 	1.63715 	3.249e-19
29.0356 	0.506976 	1.63715 	3.249e-19
29.1058 	0.506976 	1.63715 	3.249e-19
29.1759 	0.506976 	1.63715 	3.249e-19
29.246 	0.506976 	1.63715 	3.249e-19
29.3162 	0.506976 	1.63715 	3.249e-19
29.3863 	0.506976 	1.63715 	3.249e-19
29.4564 	0.48598 	1.64422 	-3.03755e-19
29.5266 	0.48598 	1.64422 	-3.03755e-19
29.5967 	0.48598 	1.64422 	-3.03755e-19
29.6668 	0.48598 	1.64422 	-3.03755e-19
29.737 	0.48598 	1.64422 	-3.03755e-19
29.8071 	0.48598 	1.64422 	-3.03755e-19
29.8773 	0.48598 	1.64422 	-3.03755e-19
29.9474 	0.48598 	1.64422 	-3.03755e-19
30.0175 	0.46343 	1.6506 	2.95192e-19
30.0877 	0.46343 	1.6506 	2.95192e-19
30.1578 	0.46343 	1.6506 	2.95192e-19
30.2279 	0.46343 	1.6506 	2.95192e-19
30.2981 	0.46343 	1.6506 	2.95192e-19
30.3682 	0.46343 	1.6506 	2.95192e-19
30.4383 	0.46343 	1.6506 	2.95192e-19
30.5085 	0.46343 	1.6506 	2.95192e-19
30.5786 	0.440228 	1.65867 	-5.4743e-19
30.6487 	0.440228 	1.65867 	-5.4743e-19
30.7189 	0.440228 	1.65867 	-5.4743e-19
30.789 	0.440228 	1.65867 	-5.4743e-19
30.8591 	0.440228 	1.65867 	-5.4743e-19
30.9293 	0.440228 	1.65867 	-5.4743e-19
30.9994 	0.440228 	1.65867 	-5.4743e-19
31.0695 	0.440228 	1.65867 	-5.4743e-19
31.1397 	0.415375 	1.6648 	2.71529e-19
31.2098 	0.415375 	1.6648 	2.71529e-19
31.2799 	0.415375 	1.6648 	2.71529e-19
31.3501 	0.415375 	1.6648 	2.71529e-19
31.4202 	0.415375 	1.6648 	2.71529e-19
31.4903 	0.415375 	1.6648 	2.71529e-19
31.5605 	0.425934 	1.69912 	-3.70349e-19
31.6306 	0.425934 	1.69912 	-3.70349e-19
31.7007 	0.400625 	1.70831 	1.21115e-19
31.7709 	0.400625 	1.70831 	1.21115e-19
31.841 	0.400625 	1.70831 	1.21115e-19
31.9111 	0.400625 	1.70831 	1.21115e-19
31.9813 	0.400625 	1.70831 	1.21115e-19
32.0514 	0.400625 	1.70831 	1.21115e-19
32.1216 	0.400625 	1.70831 	1.21115e-19
32.1917 	0.400625 	1.70831 	1.21115e-19
32.2618 	0.400625 	1.70831 	1.21115e-19
32.332 	0.373767 	1.71351 	0
32.4021 	0.373767 	1.71351 	0
32.4722 	0.373767 	1.71351 	0
32.5424 	0.373767 	1.71351 	0
32.6125 	0.373767 	1.71351 	0
32.6826 	0.373767 	1.71351 	0
32.7528 	0.373767 	1.71351 	0
32.8229 	0.373767 	1.71351 	0
32.893 	0.373767 	1.71351 	0
32.9632 	0.347169 	1.72338 	0
33.0333 	0.347169 	1.72338 	0
33.1034 	0.347169 	1.72338 	0
33.1736 	0.347169 	1.72338 	0
33.2437 	0.347169 	1.72338 	0
33.3138 	0.347169 	1.72338 	0
33.384 	0.347169 	1.72338 	0
33.4541 	0.347169 	1.72338 	0
33.5242 	0.347169 	1.72338 	0
33.5944 	0.319395 	1.72735 	-4.72364e-20
33.6645 	0.319395 	1.72735 	-4.72364e-20
33.7346 	0.319395 	1.72735 	-4.72364e-20
33.8048 	0.319395 	1.72735 	-4.72364e-20
33.8749 	0.319395 	1.72735 	-4.72364e-20
33.945 	0.319395 	1.72735 	-4.72364e-20
34.0152 	0.319395 	1.72735 	-4.72364e-20
34.0853 	0.319395 	1.72735 	-4.72364e-20
34.1554 	0.319395 	1.72735 	-4.72364e-20
34.2256 	0.29237 	1.73753 	4.81785e-20
34.2957 	0.29237 	1.73753 	4.81785e-20
34.3659 	0.29237 	1.73753 	4.81785e-20
34.436 	0.29237 	1.73753 	4.81785e-20
34.5061 	0.29237 	1.73753 	4.81785e-20
34.5763 	0.29237 	1.73753 	4.81785e-20
34.6464 	0.29237 	1.73753 	4.81785e-20
34.7165 	0.29237 	1.73753 	4.81785e-20
34.7867 	0.29237 	1.73753 	4.81785e-20
34.8568 	0.29237 	1.73753 	4.81785e-20
34.9269 	0.264748 	1.74081 	-9.06421e-20
34.9971 	0.264748 	1.74081 	-9.06421e-20
35.0672 	0.264748 	1.74081 	-9.06421e-20
35.1373 	0.264748 	1.74081 	-9.06421e-20
35.2075 	0.264748 	1.74081 	-9.06421e-20
35.2776 	0.264748 	1.74081 	-9.06421e-20
35.3477 	0.264748 	1.74081 	-9.06421e-20
35.4179 	0.264748 	1.74081 	-9.06421e-20
35.488 	0.264748 	1.74081 	-9.06421e-20
35.5581 	0.264748 	1.74081 	-9.06421e-20
35.6283 	0.238244 	1.74954 	1.9781e-20
35.6984 	0.238244 	1.74954 	1.9781e-20
35.7685 	0.238244 	1.74954 	1.9781e-20
35.8387 	0.238244 	1.74954 	1.9781e-20
35.9088 	0.238244 	1.74954 	1.9781e-20
35.9789 	0.238244 	1.74954 	1.9781e-20
36.0491 	0.238244 	1.74954 	1.9781e-20
36.1192 	0.238244 	1.74954 	1.9781e-20
36.1893 	0.238244 	1.74954 	1.9781e-20
36.2595 	0.238244 	1.74954 	1.9781e-20
36.3296 	0.21223 	1.75445 	-2.06011e-20
36.3997 	0.21223 	1.75445 	-2.06011e-20
36.4699 	0.21223 	1.75445 	-2.06011e-20
36.54 	0.21223 	1.75445 	-2.06011e-20
36.6102 	0.21223 	1.75445 	-2.06011e-20
36.6803 	0.21223 	1.75445 	-2.06011e-20
36.7504 	0.21223 	1.75445 	-2.06011e-20
36.8206 	0.21223 	1.75445 	-2.06011e-20
36.8907 	0.21223 	1.75445 	-2.06011e-20
36.9608 	0.21223 	1.75445 	-2.06011e-20
37.031 	0.21223 	1.75445 	-2.06011e-20
37.1011 	0.190086 	1.75924 	0
37.1712 	0.190086 	1.75924 	0
37.2414 	0.190086 	1.75924 	0
37.3115 	0.190086 	1.75924 	0
37.3816 	0.190086 	1.75924 	0
37.4518 	0.190086 	1.75924 	0
37.5219 	0.190086 	1.75924 	0
37.592 	0.190086 	1.75924 	0
37.6622 	0.171026 	1.76305 	0
37.7323 	0.171026 	1.76305 	0
37.8024 	0.171026 	1.76305 	0
37.8726 	0.171026 	1.76305 	0
37.9427 	0.171026 	1.76305 	0
38.0128 	0.171026 	1.76305 	0
38.083 	0.171026 	1.76305 	0
38.1531 	0.171026 	1.76305 	0
38.2232 	0.171026 	1.76305 	0
38.2934 	0.15348 	1.76569 	0
38.3635 	0.15348 	1.76569 	0
38.4336 	0.15348 	1.76569 	0
38.5038 	0.15348 	1.76569 	0
38.5739 	0.15348 	1.76569 	0
38.644 	0.15348 	1.76569 	0
38.7142 	0.15348 	1.76569 	0
38.7843 	0.15348 	1.76569 	0
38.8545 	0.15348 	1.76569 	0
38.9246 	0.137461 	1.76765 	0
38.9947 	0.137461 	1.76765 	0
39.0649 	0.137461 	1.76765 	0
39.135 	0.137461 	1.76765 	0
39.2051 	0.137461 	1.76765 	0
39.2753 	0.137461 	1.76765 	0
39.3454 	0.137461 	1.76765 	0
39.4155 	0.137461 	1.76765 	0
39.4857 	0.137461 	1.76765 	0
39.5558 	0.122832 	1.76923 	0
39.6259 	0.122832 	1.76923 	0
39.6961 	0.122832 	1.76923 	0
39.7662 	0.122832 	1.76923 	0
39.8363 	0.122832 	1.76923 	0
39.9065 	0.122832 	1.76923 	0
39.9766 	0.122832 	1.76923 	0
40.0467 	0.122832 	1.76923 	0
40.1169 	0.109523 	1.77045 	0
40.187 	0.109523 	1.77045 	0
40.2571 	0.109523 	1.77045 	0
40.3273 	0.109523 	1.77045 	0
40.3974 	0.109523 	1.77045 	0
40.4675 	0.109523 	1.77045 	0
40.5377 	0.109523 	1.77045 	0
40.6078 	0.109523 	1.77045 	0
40.6779 	0.109523 	1.77045 	0
40.7481 	0.0974919 	1.77127 	0
40.8182 	0.0974919 	1.77127 	0
40.8883 	0.0974919 	1.77127 	0
40.9585 	0.0974919 	1.77127 	0
41.0286 	0.0974919 	1.77127 	0
41.0988 	0.0974919 	1.77127 	0
41.1689 	0.0974919 	1.77127 	0
41.239 	0.0974919 	1.77127 	0
41.3092 	0.0974919 	1.77127 	0
41.3793 	0.0866668 	1.77181 	0
41.4494 	0.0866668 	1.77181 	0
41.5196 	0.0866668 	1.77181 	0
41.5897 	0.0866668 	1.77181 	0
41.6598 	0.0866668 	1.77181 	0
41.73 	0.0866668 	1.77181 	0
41.8001 	0.0866668 	1.77181 	0
41.8702 	0.0866668 	1.77181 	0
41.9404 	0.0866668 	1.77181 	0
42.0105 	0.0769578 	1.77215 	0
42.0806 	0.0769578 	1.77215 	0
42.1508 	0.0769578 	1.77215 	0
42.2209 	0.0769578 	1.77215 	0
42.291 	0.0769578 	1.77215 	0
42.3612 	0.0769578 	1.77215 	0
42.4313 	0.0769578 	1.77215 	0
42.5014 	0.0769578 	1.77215 	0
42.5716 	0.0769578 	1.77215 	0
42.6417 	0.0682813 	1.77234 	0
42.7118 	0.0682813 	1.77234 	0
42.782 	0.0682813 	1.77234 	0
42.8521 	0.0682813 	1.77234 	0
42.9222 	0.0682813 	1.77234 	0
42.9924 	0.0682813 	1.77234 	0
43.0625 	0.0682813 	1.77234 	0
43.1327 	0.0682813 	1.77234 	0
43.2028 	0.0605451 	1.77241 	0
43.2729 	0.0605451 	1.77241 	0
43.3431 	0.0605451 	1.77241 	0
43.4132 	0.0605451 	1.77241 	0
43.4833 	0.0605451 	1.77241 	0
43.5535 	0.0605451 	1.77241 	0
43.6236 	0.0605451 	1.77241 	0
43.6937 	0.0605451 	1.77241 	0
43.7639 	0.0605451 	1.77241 	0
43.834 	0.053657 	1.7724 	0
43.9041 	0.053657 	1.7724 	0
43.9743 	0.053657 	1.7724 	0
44.0444 	0.053657 	1.7724 	0
44.1145 	0.053657 	1.7724 	0
44.1847 	0.053657 	1.7724 	0
44.2548 	0.053657 	1.7724 	0
44.3249 	0.053657 	1.7724 	0
44.3951 	0.053657 	1.7724 	0
44.4652 	0.0475329 	1.77234 	0
44.5353 	0.0475329 	1.77234 	0
44.6055 	0.0475329 	1.77234 	0
44.6756 	0.0475329 	1.77234 	0
44.7457 	0.0475329 	1.77234 	0
44.8159 	0.0475329 	1.77234 	0
44.886 	0.0475329 	1.77234 	0
44.9561 	0.0475329 	1.77234 	0
45.0263 	0.0475329 	1.77234 	0
45.0964 	0.0420933 	1.77224 	0
45.1665 	0.0420933 	1.77224 	0
45.2367 	0.0420933 	1.77224 	0
45.3068 	0.0420933 	1.77224 	0
45.377 	0.0420933 	1.77224 	0
45.4471 	0.0420933 	1.77224 	0
45.5172 	0.0420933 	1.77224 	0
45.5874 	0.0420933 	1.77224 	0
45.6575 	0.0372683 	1.77212 	0
45.7276 	0.0372683 	1.77212 	0
45.7978 	0.0372683 	1.77212 	0
45.8679 	0.0372683 	1.77212 	0
45.938 	0.0372683 	1.77212 	0
46.0082 	0.0372683 	1.77212 	0
46.0783 	0.0372683 	1.77212 	0
46.1484 	0.0372683 	1.77212 	0
46.2186 	0.0372683 	1.77212 	0
46.2887 	0.0329896 	1.77198 	0
46.3588 	0.0329896 	1.77198 	0
46.429 	0.0329896 	1.77198 	0
46.4991 	0.0329896 	1.77198 	0
46.5692 	0.0329896 	1.77198 	0
46.6394 	0.0329896 	1.77198 	0
46.7095 	0.0329896 	1.77198 	0
46.7796 	0.0327642 	1.76677 	0
46.8498 	0.0327642 	1.76677 	0
46.9199 	0.0290212 	1.76722 	0
46.99 	0.0290212 	1.76722 	0
47.0602 	0.0290212 	1.76722 	0
47.1303 	0.0290212 	1.76722 	0
47.2004 	0.0290212 	1.76722 	0
47.2706 	0.0290212 	1.76722 	0
47.3407 	0.0290212 	1.76722 	0
47.4108 	0.0290212 	1.76722 	0
47.481 	0.0290212 	1.76722 	0
47.5511 	0.0256996 	1.7676 	0
47.6213 	0.0256996 	1.7676 	0
47.6914 	0.0256996 	1.7676 	0
47.7615 	0.0256996 	1.7676 	0
47.8317 	0.0256996 	1.7676 	0
47.9018 	0.0256996 	1.7676 	0
47.9719 	0.0256996 	1.7676 	0
48.0421 	0.0256996 	1.7676 	0
48.1122 	0.0256996 	1.7676 	0
48.1823 	0.0227546 	1.76793 	0
48.2525 	0.0227546 	1.76793 	0
48.3226 	0.0227546 	1.76793 	0
48.3927 	0.0227546 	1.76793 	0
48.4629 	0.0227546 	1.76793 	0
48.533 	0.0227546 	1.76793 	0
48.6031 	0.0227546 	1.76793 	0
48.6733 	0.0227546 	1.76793 	0
48.7434 	0.0201449 	1.76821 	0
48.8135 	0.0201449 	1.76821 	0
48.8837 	0.0201449 	1.76821 	0
48.9538 	0.0201449 	1.76821 	0
49.0239 	0.0201449 	1.76821 	0
49.0941 	0.0201449 	1.76821 	0
49.1642 	0.0201449 	1.76821 	0
49.2343 	0.0201449 	1.76821 	0
49.3045 	0.0201449 	1.76821 	0
49.3746 	0.0178332 	1.76845 	0
49.4447 	0.0178332 	1.76845 	0
49.5149 	0.0178332 	1.76845 	0
49.585 	0.0178332 	1.76845 	0
49.6551 	0.0178332 	1.76845 	0
49.7253 	0.0178332 	1.76845 	0
49.7954 	0.0178332 	1.76845 	0
49.8656 	0.0178332 	1.76845 	0
49.9357 	0.0178332 	1.76845 	0
50.0058 	0.0157839 	1.76866 	0
50.076 	0.0157839 	1.76866 	0
50.1461 	0.0157839 	1.76866 	0
50.2162 	0.0157839 	1.76866 	0
50.2864 	0.0157839 	1.76866 	0
50.3565 	0.0157839 	1.76866 	0
50.4266 	0.0157839 	1.76866 	0
50.4968 	0.0157839 	1.76866 	0
50.5669 	0.0157839 	1.76866 	0
50.637 	0.0139698 	1.76883 	0
50.7072 	0.0139698 	1.76883 	0
50.7773 	0.0139698 	1.76883 	0
50.8474 	0.0139698 	1.76883 	0
50.9176 	0.0139698 	1.76883 	0
50.9877 	0.0139698 	1.76883 	0
51.0578 	0.0139698 	1.76883 	0
51.128 	0.0139698 	1.76883 	0
51.1981 	0.0139698 	1.76883 	0
51.2682 	0.0123634 	1.76899 	0
51.3384 	0.0123634 	1.76899 	0
51.4085 	0.0123634 	1.76899 	0
51.4786 	0.0123634 	1.76899 	0
51.5488 	0.0123634 	1.76899 	0
51.6189 	0.0123634 	1.76899 	0
51.689 	0.0123634 	1.76899 	0
51.7592 	0.0123634 	1.76899 	0
51.8293 	0.0109415 	1.76913 	0
51.8994 	0.0109415 	1.76913 	0
51.9696 	0.0109415 	1.76913 	0
52.0397 	0.0109415 	1.76913 	0
52.1099 	0.0109415 	1.76913 	0
52.18 	0.0109415 	1.76913 	0
52.2501 	0.0109415 	1.76913 	0
52.3203 	0.0109415 	1.76913 	0
52.3904 	0.0109415 	1.76913 	0
52.4605 	0.00968236 	1.76924 	0
52.5307 	0.00968236 	1.76924 	0
52.6008 	0.00968236 	1.76924 	0
52.6709 	0.00968236 	1.76924 	0
52.7411 	0.00968236 	1.76924 	0
52.8112 	0.00968236 	1.76924 	0
52.8813 	0.00968236 	1.76924 	0
52.9515 	0.00968236 	1.76924 	0
53.0216 	0.00968236 	1.76924 	0
53.0917 	0.0085677 	1.76934 	0
53.1619 	0.0085677 	1.76934 	0
53.232 	0.0085677 	1.76934 	0
53.3021 	0.0085677 	1.76934 	0
53.3723 	0.0085677 	1.76934 	0
53.4424 	0.0085677 	1.76934 	0
53.5125 	0.0085677 	1.76934 	0
53.5827 	0.0085677 	1.76934 	0
53.6528 	0.0085677 	1.76934 	0
53.7229 	0.00758183 	1.76943 	0
53.7931 	0.00758183 	1.76943 	0
53.8632 	0.00758183 	1.76943 	0
53.9333 	0.00758183 	1.76943 	0
54.0035 	0.00758183 	1.76943 	0
54.0736 	0.00758183 	1.76943 	0
54.1437 	0.00758183 	1.76943 	0
54.2139 	0.00758183 	1.76943 	0
54.284 	0.00670788 	1.76951 	0
54.3542 	0.00670788 	1.76951 	0
54.4243 	0.00670788 	1.76951 	0
54.4944 	0.00670788 	1.76951 	0
54.5646 	0.00670788 	1.76951 	0
54.6347 	0.00670788 	1.76951 	0
54.7048 	0.00670788 	1.76951 	0
54.775 	0.00670788 	1.76951 	0
54.8451 	0.00670788 	1.76951 	0
54.9152 	0.00593619 	1.76958 	0
54.9854 	0.00593619 	1.76958 	0
55.0555 	0.00593619 	1.76958 	0
55.1256 	0.00593619 	1.76958 	0
55.1958 	0.00593619 	1.76958 	0
55.2659 	0.00593619 	1.76958 	0
55.336 	0.00593619 	1.76958 	0
55.4062 	0.00593619 	1.76958 	0
55.4763 	0.00593619 	1.76958 	0
55.5464 	0.00525324 	1.76963 	0
55.6166 	0.00525324 	1.76963 	0
55.6867 	0.00525324 	1.76963 	0
55.7568 	0.00525324 	1.76963 	0
55.827 	0.00525324 	1.76963 	0
55.8971 	0.00525324 	1.76963 	0
55.9672 	0.00525324 	1.76963 	0
56.0374 	0.00525324 	1.76963 	0
56.1075 	0.00525324 	1.76963 	0
56.1776 	0.00464699 	1.76969 	0
56.2478 	0.00464699 	1.76969 	0
56.3179 	0.00464699 	1.76969 	0
56.3881 	0.00464699 	1.76969 	0
56.4582 	0.00464699 	1.76969 	0
56.5283 	0.00464699 	1.76969 	0
56.5985 	0.00464699 	1.76969 	0
56.6686 	0.00464699 	1.76969 	0
56.7387 	0.00464699 	1.76969 	0
56.8089 	0.00411127 	1.76973 	0
56.879 	0.00411127 	1.76973 	0
56.9491 	0.00411127 	1.76973 	0
57.0193 	0.00411127 	1.76973 	0
57.0894 	0.00411127 	1.76973 	0
57.1595 	0.00411127 	1.76973 	0
57.2297 	0.00411127 	1.76973 	0
57.2998 	0.00411127 	1.76973 	0
57.3699 	0.00363787 	1.76977 	0
57.4401 	0.00363787 	1.76977 	0
57.5102 	0.00363787 	1.76977 	0
57.5803 	0.00363787 	1.76977 	0
57.6505 	0.00363787 	1.76977 	0
57.7206 	0.00363787 	1.76977 	0
57.7907 	0.00363787 	1.76977 	0
57.8609 	0.00363787 	1.76977 	0
57.931 	0.00363787 	1.76977 	0
58.0011 	0.00321898 	1.76981 	0
58.0713 	0.00321898 	1.76981 	0
58.1414 	0.00321898 	1.76981 	0
58.2115 	0.00321898 	1.76981 	0
58.2817 	0.00321898 	1.76981 	0
58.3518 	0.00321898 	1.76981 	0
58.4219 	0.00321898 	1.76981 	0
58.4921 	0.00321898 	1.76981 	0
58.5622 	0.00321898 	1.76981 	0
58.6324 	0.00284815 	1.76983 	0
58.7025 	0.00284815 	1.76983 	0
58.7726 	0.00284815 	1.76983 	0
58.8428 	0.00284815 	1.76983 	0
58.9129 	0.00284815 	1.76983 	0