/*--------------------------------*- C++ -*----------------------------------*\
  =========                 |
  \\      /  F ield         | OpenFOAM: The Open Source CFD Toolbox
   \\    /   O peration     | Website:  https://openfoam.org
    \\  /    A nd           | Version:  6
     \\/     M anipulation  |
\*---------------------------------------------------------------------------*/
FoamFile
{
    version     2.0;
    format      ascii;
    class       volScalarField;
    location    "19";
    object      p;
}
// * * * * * * * * * * * * * * * * * * * * * * * * * * * * * * * * * * * * * //

dimensions      [0 2 -2 0 0 0 0];

internalField   nonuniform List<scalar> 
8800
(
0.429536
0.380224
0.342262
0.314195
0.294029
0.279424
0.2688
0.261223
0.256269
0.254049
0.255171
0.259243
0.265808
0.275051
0.287662
0.304893
0.328704
0.361756
0.404663
0.457165
0.264025
0.270372
0.279526
0.283085
0.280484
0.274401
0.26746
0.261178
0.256302
0.253321
0.252884
0.255218
0.259612
0.265551
0.272488
0.279393
0.284179
0.283985
0.277262
0.268336
0.237527
0.243776
0.248297
0.252197
0.255178
0.256157
0.255081
0.252943
0.250853
0.249799
0.250578
0.252771
0.255398
0.257429
0.257761
0.255816
0.252331
0.248228
0.24339
0.239661
0.233206
0.235986
0.238644
0.240863
0.242664
0.244287
0.245422
0.245717
0.245426
0.245254
0.245786
0.246697
0.247188
0.246774
0.245551
0.243989
0.242149
0.239707
0.237215
0.235645
0.228177
0.229614
0.231514
0.233668
0.235433
0.236743
0.237801
0.238721
0.239437
0.239939
0.240308
0.240376
0.240048
0.239431
0.238535
0.237209
0.235352
0.23329
0.231844
0.231045
0.223245
0.224153
0.225498
0.227252
0.229059
0.230653
0.23195
0.233036
0.233987
0.234763
0.235122
0.235041
0.234643
0.233902
0.232783
0.231286
0.229631
0.228124
0.227191
0.226683
0.218501
0.219152
0.220264
0.221806
0.223482
0.225215
0.226857
0.228239
0.229346
0.230224
0.230704
0.23069
0.230184
0.229197
0.227871
0.226432
0.225001
0.22375
0.223032
0.22268
0.214128
0.214606
0.215584
0.217043
0.218632
0.220279
0.22198
0.223615
0.22502
0.226082
0.226693
0.226656
0.226023
0.224999
0.22379
0.222511
0.221193
0.220077
0.219499
0.219254
0.210053
0.210382
0.21122
0.212537
0.213993
0.21544
0.216866
0.218358
0.219876
0.221229
0.221938
0.221976
0.221588
0.220961
0.220119
0.21907
0.21794
0.216988
0.216543
0.216386
0.206595
0.206791
0.207533
0.208808
0.210253
0.211783
0.213411
0.214986
0.216485
0.217871
0.218889
0.219305
0.219164
0.218559
0.217718
0.216764
0.215722
0.214876
0.214546
0.214472
0.203949
0.204052
0.204556
0.205526
0.206688
0.207933
0.209287
0.210858
0.212575
0.214284
0.21556
0.216167
0.216291
0.216129
0.215734
0.215161
0.214505
0.213998
0.213827
0.213791
0.201401
0.201475
0.201774
0.202406
0.20327
0.204342
0.205627
0.207144
0.208876
0.210788
0.212468
0.213578
0.214157
0.214366
0.214328
0.214181
0.213952
0.213794
0.213733
0.213699
0.198201
0.198275
0.198507
0.198972
0.199688
0.200676
0.201993
0.203669
0.205718
0.208049
0.210174
0.211649
0.212567
0.213034
0.213344
0.21352
0.213613
0.213652
0.213634
0.213596
0.194107
0.194167
0.194411
0.194861
0.195549
0.196531
0.19792
0.199753
0.202088
0.204893
0.207598
0.209631
0.211
0.211994
0.212607
0.213026
0.213307
0.213421
0.213427
0.213392
0.189223
0.189271
0.189543
0.190117
0.190919
0.192089
0.193757
0.195969
0.198798
0.202241
0.205646
0.208274
0.210132
0.211395
0.212266
0.212853
0.2132
0.213342
0.21338
0.213354
0.183669
0.183705
0.184018
0.184736
0.185762
0.187126
0.189131
0.191787
0.195221
0.199472
0.203765
0.207147
0.209587
0.211297
0.212448
0.213215
0.213624
0.213822
0.213898
0.213878
0.177466
0.1775
0.177825
0.178655
0.179978
0.181672
0.184092
0.187325
0.191546
0.196822
0.202204
0.206494
0.209622
0.211825
0.213326
0.214284
0.214843
0.21514
0.215253
0.215231
0.170422
0.170458
0.170856
0.171762
0.173277
0.175451
0.178385
0.182365
0.187606
0.194179
0.200902
0.206311
0.210237
0.213024
0.214962
0.216219
0.216987
0.217409
0.217558
0.217531
0.162136
0.162182
0.162669
0.163761
0.165545
0.168158
0.171808
0.176794
0.183348
0.191559
0.199951
0.206685
0.211624
0.21514
0.217557
0.21917
0.220188
0.220747
0.220932
0.220896
0.152076
0.152134
0.152738
0.154099
0.156331
0.159591
0.164186
0.170459
0.178693
0.188969
0.199412
0.207769
0.2139
0.21824
0.221252
0.223285
0.224583
0.225286
0.225514
0.225468
0.139738
0.139821
0.14061
0.14235
0.145192
0.149349
0.155204
0.163176
0.17358
0.186441
0.199393
0.209694
0.217206
0.222543
0.22626
0.228784
0.230401
0.231269
0.231547
0.231489
0.124327
0.124441
0.125492
0.127798
0.131545
0.136974
0.144568
0.154812
0.167996
0.184051
0.200009
0.21259
0.221739
0.228253
0.232806
0.23592
0.23792
0.238979
0.239314
0.23924
0.104673
0.104832
0.106295
0.109492
0.114605
0.121898
0.131947
0.145229
0.161961
0.181919
0.201418
0.216644
0.227696
0.235588
0.24114
0.244968
0.247447
0.248765
0.249161
0.249062
0.0790183
0.0792732
0.0814393
0.0860966
0.0933416
0.103437
0.116987
0.134362
0.155589
0.180218
0.20379
0.222016
0.235242
0.244743
0.251492
0.256197
0.259263
0.260885
0.261358
0.261229
0.0442898
0.0447849
0.0483545
0.0557211
0.066568
0.0810478
0.0996263
0.122406
0.149147
0.179187
0.207302
0.228832
0.24448
0.25583
0.264015
0.269826
0.27366
0.275678
0.276235
0.276061
-0.00545589
-0.00384375
0.00341545
0.0163291
0.033498
0.0547605
0.0802671
0.109845
0.143059
0.179124
0.212118
0.237156
0.255404
0.268805
0.278676
0.285868
0.290752
0.293355
0.294036
0.293794
-0.0790676
-0.0702834
-0.0537862
-0.030984
-0.00434441
0.0259103
0.0598401
0.0972399
0.13766
0.180335
0.218696
0.247685
0.268984
0.284905
0.29701
0.306239
0.312769
0.316498
0.317624
0.317548
-0.156937
-0.138601
-0.112046
-0.0788495
-0.042423
-0.00307055
0.0393658
0.0847909
0.132848
0.182916
0.227736
0.261799
0.287177
0.306564
0.321679
0.33365
0.342635
0.34828
0.35022
0.350302
-0.221788
-0.199781
-0.165197
-0.123466
-0.0784811
-0.0306445
0.0199628
0.0731526
0.128577
0.185663
0.236441
0.275006
0.303851
0.326032
0.343484
0.357288
0.367891
0.374558
0.376456
0.376703
-0.273835
-0.249578
-0.209989
-0.16235
-0.11071
-0.05589
0.0018075
0.0620141
0.124245
0.187798
0.243905
0.286259
0.317785
0.341899
0.360754
0.37565
0.38702
0.394177
0.396495
0.396875
-0.316485
-0.291133
-0.248057
-0.195824
-0.138962
-0.0784864
-0.0148514
0.0514338
0.119721
0.189083
0.249881
0.295384
0.328911
0.354306
0.373966
0.389393
0.401067
0.40848
0.411064
0.411428
-0.352864
-0.326893
-0.2813
-0.225354
-0.164171
-0.0989504
-0.0302282
0.0413945
0.115054
0.189659
0.254634
0.302828
0.337978
0.3643
0.384437
0.400032
0.411702
0.41907
0.421804
0.422146
-0.384986
-0.358646
-0.311118
-0.25211
-0.187263
-0.117921
-0.0447047
0.0316817
0.110237
0.189661
0.258573
0.309309
0.34592
0.372986
0.393407
0.409017
0.42061
0.427933
0.430747
0.431087
-0.414295
-0.387639
-0.338473
-0.276887
-0.208901
-0.135972
-0.0587424
0.0219898
0.105121
0.189157
0.261866
0.315021
0.353016
0.380799
0.40153
0.417217
0.428773
0.435992
0.438846
0.439189
-0.441674
-0.414732
-0.364168
-0.30033
-0.229604
-0.153482
-0.0726375
0.012056
0.099469
0.187916
0.264348
0.320035
0.359562
0.388205
0.409352
0.425186
0.436747
0.443856
0.446677
0.447073
-0.467803
-0.440518
-0.388686
-0.32282
-0.249658
-0.17072
-0.0866459
0.00167942
0.0930838
0.185831
0.26617
0.324602
0.365841
0.395495
0.417182
0.433253
0.444867
0.451897
0.454628
0.455018
-0.492948
-0.465304
-0.412326
-0.344665
-0.269357
-0.187891
-0.100893
-0.00923708
0.0859533
0.182971
0.267306
0.328703
0.371913
0.402785
0.425185
0.441627
0.45337
0.460351
0.462947
0.463265
-0.517441
-0.489354
-0.435331
-0.366046
-0.288804
-0.205066
-0.115427
-0.0207049
0.0780441
0.179176
0.267605
0.332262
0.377771
0.410129
0.433434
0.450379
0.462326
0.469286
0.471731
0.471954
-0.541332
-0.512795
-0.457786
-0.387039
-0.30808
-0.222312
-0.1303
-0.0327864
0.0692403
0.174348
0.266996
0.335195
0.383335
0.417491
0.441928
0.459528
0.471759
0.478717
0.481018
0.481104
-0.564682
-0.535672
-0.479754
-0.407696
-0.327206
-0.239638
-0.145515
-0.0455091
0.0595376
0.168453
0.265336
0.337356
0.388496
0.424803
0.450629
0.469039
0.481606
0.488523
0.490666
0.490625
-0.587528
-0.558044
-0.501239
-0.427999
-0.346158
-0.257002
-0.161025
-0.0588028
0.0489831
0.161441
0.262496
0.338545
0.393101
0.43197
0.459488
0.478863
0.491804
0.498627
0.500556
0.500395
-0.609884
-0.579862
-0.522212
-0.447912
-0.364881
-0.274348
-0.176753
-0.072595
0.0376007
0.153286
0.258371
0.338554
0.396888
0.438832
0.468462
0.488986
0.50228
0.508912
0.510551
0.510276
-0.631588
-0.601065
-0.542625
-0.467397
-0.383324
-0.291593
-0.192621
-0.0868088
0.0254673
0.144027
0.252878
0.337196
0.399571
0.44515
0.477507
0.499469
0.512978
0.51915
0.520392
0.520003
-0.652594
-0.621607
-0.562439
-0.486388
-0.401411
-0.308663
-0.20853
-0.101349
0.0126858
0.133709
0.245969
0.334285
0.400835
0.45056
0.486508
0.510572
0.524143
0.529238
0.52979
0.529309
-0.672949
-0.641448
-0.581621
-0.504838
-0.419073
-0.325472
-0.224382
-0.116092
-0.000633127
0.122424
0.237637
0.329699
0.400338
0.45451
0.495067
0.522629
0.536721
0.539674
0.538511
0.537936
-0.692501
-0.660557
-0.600116
-0.522682
-0.436251
-0.341932
-0.240073
-0.130921
-0.0143597
0.110305
0.227921
0.323346
0.397805
0.456307
0.502278
0.535397
0.552358
0.553377
0.547873
0.544597
-0.711326
-0.678945
-0.617928
-0.539948
-0.452972
-0.358087
-0.255661
-0.145898
-0.0285635
0.0972851
0.216697
0.314984
0.392946
0.455148
0.506625
0.547271
0.570965
0.575403
0.564344
0.557968
-0.729363
-0.696673
-0.635196
-0.556819
-0.469525
-0.374275
-0.271558
-0.161519
-0.0438171
0.0826747
0.203227
0.3037
0.385025
0.449742
0.505059
0.553223
0.583668
0.586441
0.575958
0.562008
-0.746495
-0.713724
-0.651766
-0.573089
-0.485689
-0.390199
-0.287545
-0.177448
-0.0597833
0.0667953
0.187746
0.289229
0.37372
0.43955
0.492924
0.541881
0.57247
0.562996
0.500997
0.468604
-0.762626
-0.730821
-0.667196
-0.588261
-0.500861
-0.405404
-0.303371
-0.193428
-0.0761852
0.0498475
0.170386
0.271388
0.35838
0.425457
0.467884
0.504419
0.517477
0.476502
0.409449
0.367005
-0.804468
-0.746944
-0.681451
-0.603066
-0.515741
-0.420734
-0.318923
-0.209564
-0.0931925
0.03157
0.150848
0.250045
0.336517
0.408607
0.425155
0.433253
0.409898
0.354116
0.281646
0.241613
-0.778243
-0.760422
-0.702641
-0.625319
-0.537959
-0.443524
-0.342738
-0.234616
-0.120057
0.0018774
0.117597
0.212742
0.290574
0.361155
0.364089
0.262485
0.169539
0.107154
0.0394931
0.0774692
-0.807904
-0.777184
-0.718774
-0.641492
-0.5546
-0.460708
-0.360063
-0.25297
-0.139996
-0.0206857
0.0913255
0.182155
0.251484
0.289028
0.24316
0.100778
-0.0163538
-0.0943584
-0.184697
-0.123951
-0.830477
-0.797464
-0.737369
-0.659888
-0.573264
-0.479604
-0.37934
-0.273405
-0.162303
-0.0461144
0.0613092
0.146182
0.204395
0.207922
0.0967511
-0.0801123
-0.225186
-0.325822
-0.436909
-0.389719
-0.852081
-0.818122
-0.756813
-0.678827
-0.592188
-0.498767
-0.39922
-0.294589
-0.185547
-0.0728132
0.0292407
0.107181
0.149867
0.113936
-0.0601996
-0.268999
-0.457704
-0.616528
-0.759948
-0.720877
-0.873097
-0.838918
-0.776912
-0.698491
-0.611776
-0.518667
-0.419956
-0.316746
-0.21
-0.10109
-0.00502443
0.0651219
0.0876559
0.00922901
-0.216906
-0.455593
-0.685759
-0.881663
-1.13259
-1.22518
-0.894192
-0.860257
-0.797927
-0.719214
-0.63242
-0.539585
-0.441651
-0.339864
-0.235499
-0.130618
-0.040817
0.0202941
0.0216902
-0.115756
-0.361573
-0.621392
-0.868197
-1.07615
-1.24251
-1.43376
-0.916223
-0.882516
-0.820126
-0.741307
-0.654553
-0.562074
-0.465012
-0.364804
-0.263135
-0.162791
-0.0798385
-0.0291329
-0.0579023
-0.247124
-0.497494
-0.758412
-0.985605
-1.12085
-1.15888
-1.17663
-0.939376
-0.905902
-0.843569
-0.764796
-0.678237
-0.586257
-0.490275
-0.391945
-0.293388
-0.198213
-0.122691
-0.0844995
-0.146493
-0.373316
-0.62264
-0.86366
-1.04537
-1.10117
-1.11729
-1.11844
-0.963885
-0.930482
-0.86823
-0.789592
-0.703338
-0.612048
-0.517331
-0.421234
-0.326194
-0.236733
-0.169295
-0.147715
-0.239518
-0.494533
-0.735193
-0.953661
-1.07763
-1.09515
-1.09576
-1.09577
-0.98959
-0.956242
-0.894047
-0.815602
-0.729767
-0.639319
-0.546042
-0.452521
-0.361424
-0.278087
-0.220175
-0.213709
-0.346706
-0.609614
-0.838284
-1.02345
-1.08328
-1.08606
-1.08519
-1.0841
-1.01625
-0.982933
-0.920836
-0.842651
-0.757334
-0.667859
-0.576227
-0.485503
-0.398947
-0.321754
-0.275086
-0.282861
-0.462496
-0.724658
-0.932408
-1.05985
-1.07349
-1.07729
-1.07803
-1.07742
-1.04321
-1.01014
-0.948289
-0.870425
-0.785736
-0.697345
-0.60754
-0.51969
-0.438416
-0.367191
-0.33253
-0.359973
-0.567846
-0.84455
-1.03241
-1.07032
-1.08433
-1.07527
-1.06864
-1.06788
-1.06988
-1.03731
-0.975908
-0.898461
-0.814493
-0.727312
-0.639427
-0.554456
-0.479011
-0.414238
-0.389284
-0.445729
-0.656345
-0.959931
-1.19005
-1.17238
-1.13289
-1.10472
-1.08705
-1.07944
-1.09564
-1.06373
-1.00301
-0.926127
-0.842961
-0.757099
-0.671171
-0.588956
-0.519172
-0.462747
-0.443677
-0.540791
-0.747118
-1.00841
-1.34771
-1.38924
-1.2953
-1.26062
-1.22849
-1.21071
-1.11946
-1.08846
-1.02875
-0.952598
-0.870366
-0.785751
-0.701877
-0.622134
-0.556596
-0.511877
-0.495615
-0.62681
-0.874148
-0.976787
-1.12001
-1.20872
-1.41693
-1.52264
-1.48758
-1.46992
-1.13989
-1.11035
-1.05209
-0.976909
-0.895708
-0.812244
-0.730166
-0.652937
-0.588911
-0.55789
-0.544258
-0.691069
-1.00409
-1.00827
-0.798806
-0.969239
-1.37229
-1.50902
-1.5083
-1.51072
-1.15565
-1.12807
-1.07183
-0.997954
-0.91777
-0.83554
-0.754354
-0.679661
-0.615227
-0.590302
-0.599221
-0.736878
-1.18841
-1.43226
-1.47744
-1.77297
-1.87718
-1.70604
-1.58803
-1.60503
-1.16568
-1.1405
-1.08679
-1.0145
-0.935429
-0.854121
-0.773432
-0.699334
-0.635031
-0.603461
-0.628436
-0.802774
-1.42722
-2.22244
-2.82795
-3.16798
-3.11334
-2.77971
-2.41559
-2.28943
-1.16823
-1.1462
-1.09596
-1.02553
-0.947513
-0.866669
-0.786292
-0.710256
-0.644331
-0.606943
-0.606961
-0.861507
-1.43728
-2.44499
-3.13617
-3.37353
-3.3589
-3.18185
-2.91661
-2.71954
-1.163
-1.14464
-1.0983
-1.03027
-0.953026
-0.872537
-0.79143
-0.711904
-0.642789
-0.580907
-0.581146
-0.662477
-1.09679
-1.61464
-2.29244
-2.53843
-2.36738
-2.04486
-1.76652
-1.61661
-1.14868
-1.13411
-1.09319
-1.02807
-0.95178
-0.871186
-0.78823
-0.705266
-0.624007
-0.533887
-0.488594
-0.344925
-0.435697
-0.450525
-0.266336
-0.0137929
0.371064
0.71259
0.909847
0.989062
-1.12642
-1.11585
-1.08063
-1.01894
-0.943517
-0.862557
-0.778116
-0.691039
-0.595191
-0.491601
-0.358239
-0.238323
0.117439
0.626706
1.24209
1.88415
2.36877
2.65965
2.7989
2.8409
-1.09691
-1.09022
-1.0611
-1.00309
-0.927794
-0.847895
-0.763977
-0.673378
-0.572002
-0.44515
-0.295517
-0.153227
0.0876497
0.643976
1.33509
1.95363
2.39346
2.64797
2.76493
2.80144
-1.05981
-1.05643
-1.03313
-0.978157
-0.905739
-0.828165
-0.746555
-0.658884
-0.557597
-0.425735
-0.271138
-0.143537
-0.021879
0.357906
0.877464
1.32329
1.65199
1.84696
1.94716
1.98283
-1.00943
-1.00777
-0.989937
-0.941315
-0.87436
-0.802539
-0.72903
-0.650896
-0.5567
-0.433324
-0.267376
-0.150867
-0.0555126
0.157641
0.475262
0.75947
0.976096
1.11698
1.19202
1.2157
-0.931329
-0.930248
-0.917576
-0.881572
-0.828911
-0.771592
-0.713945
-0.652791
-0.57397
-0.452157
-0.296257
-0.166843
-0.0305164
0.0747858
0.289148
0.467088
0.602417
0.692359
0.742465
0.760438
-0.842203
-0.84048
-0.832002
-0.810276
-0.776979
-0.739383
-0.701434
-0.66149
-0.607156
-0.502557
-0.359614
-0.237883
-0.085825
0.00143833
0.11365
0.237401
0.322699
0.380125
0.40724
0.414445
-0.773328
-0.771548
-0.76647
-0.755568
-0.738456
-0.71931
-0.702224
-0.689469
-0.673481
-0.620112
-0.506438
-0.386672
-0.211993
-0.127636
-0.07861
0.00801277
0.0818334
0.13551
0.162916
0.167559
-0.734383
-0.733571
-0.731689
-0.727776
-0.722458
-0.719616
-0.725467
-0.748635
-0.794386
-0.847532
-0.843723
-0.697691
-0.46075
-0.356181
-0.276584
-0.18799
-0.104525
-0.0501249
-0.0216204
-0.0201647
-0.710735
-0.711396
-0.712259
-0.713537
-0.717831
-0.730437
-0.761373
-0.831327
-0.978764
-1.21476
-1.3937
-1.20075
-0.846783
-0.644845
-0.518627
-0.392044
-0.279541
-0.203822
-0.172048
-0.173948
-0.680816
-0.682647
-0.685922
-0.691901
-0.704613
-0.731216
-0.786455
-0.906143
-1.17483
-1.66283
-2.04502
-1.797
-1.29106
-1.00648
-0.811912
-0.613881
-0.462606
-0.366758
-0.335631
-0.338767
-0.63059
-0.633159
-0.637996
-0.646923
-0.664623
-0.699393
-0.769008
-0.918614
-1.26222
-1.92851
-2.40682
-2.10181
-1.55323
-1.22822
-0.978232
-0.779439
-0.647063
-0.580441
-0.561695
-0.561622
-0.554185
-0.556762
-0.561739
-0.571041
-0.588749
-0.62286
-0.68995
-0.83251
-1.15963
-1.79468
-2.22325
-1.92393
-1.51764
-1.24343
-1.00149
-0.856731
-0.796812
-0.780078
-0.767582
-0.762528
-0.456188
-0.458158
-0.462071
-0.469155
-0.482779
-0.508506
-0.558252
-0.661614
-0.894203
-1.34643
-1.6666
-1.49964
-1.23926
-1.00343
-0.848254
-0.790296
-0.798903
-0.806137
-0.798595
-0.792884
-0.348678
-0.34977
-0.352062
-0.356102
-0.363903
-0.378338
-0.405557
-0.460315
-0.578965
-0.813477
-0.995529
-0.902623
-0.74988
-0.614022
-0.567569
-0.597477
-0.63497
-0.649414
-0.649492
-0.647487
-0.245681
-0.245998
-0.24686
-0.248316
-0.251118
-0.256064
-0.264926
-0.281878
-0.316074
-0.37672
-0.419443
-0.370321
-0.311356
-0.294174
-0.35292
-0.404333
-0.433501
-0.445024
-0.448665
-0.448821
-0.157766
-0.157597
-0.157596
-0.157535
-0.157311
-0.156585
-0.154942
-0.151717
-0.145424
-0.129628
-0.0997602
-0.0691121
-0.0829734
-0.13731
-0.196181
-0.237965
-0.259459
-0.269646
-0.273827
-0.27495
-0.0896868
-0.0893188
-0.0889739
-0.0883601
-0.0869592
-0.0839539
-0.0783158
-0.0683732
-0.0513983
-0.0241568
0.00271421
0.00944035
-0.0171566
-0.0607609
-0.100309
-0.127213
-0.141562
-0.148482
-0.152121
-0.153309
-0.0411826
-0.0408068
-0.0404453
-0.0398608
-0.0384378
-0.0353031
-0.0294332
-0.0194238
-0.00366927
0.017872
0.0335606
0.0300011
0.00794053
-0.021026
-0.045634
-0.0619959
-0.0710067
-0.0756542
-0.0781499
-0.0789975
-0.00912178
-0.00882661
-0.00858233
-0.00826747
-0.00728948
-0.00490977
-0.000374099
0.00724347
0.0186453
0.0325027
0.0398687
0.0336365
0.017876
-0.000243133
-0.0152397
-0.0253285
-0.0311046
-0.0341448
-0.035726
-0.036256
0.0105009
0.0106965
0.0108001
0.0108282
0.0112905
0.0127618
0.0157646
0.0208006
0.02801
0.0359359
0.0386277
0.0327724
0.0220153
0.0106608
0.00138269
-0.00503963
-0.00889355
-0.0109444
-0.0119536
-0.0122797
0.021355
0.021466
0.0214556
0.0212658
0.0213098
0.0220088
0.0237093
0.0266948
0.0308729
0.0349626
0.0352527
0.0304415
0.0231746
0.0159249
0.0100169
0.00579924
0.00315469
0.00173698
0.00108426
0.000879559
0.026316
0.0263687
0.0262793
0.0259515
0.025724
0.025873
0.0266311
0.0281337
0.0302405
0.0320255
0.0312696
0.0275474
0.0226015
0.0178446
0.0139658
0.0111229
0.00927422
0.00827723
0.00784013
0.0077124
0.0274376
0.0274546
0.0273269
0.0269504
0.0265784
0.0264002
0.0265726
0.0271596
0.0280174
0.0284956
0.0273175
0.0244478
0.0210054
0.017792
0.0151669
0.0132018
0.0118876
0.0111781
0.0108839
0.0107977
0.0261316
0.0261291
0.0259916
0.0256199
0.0251938
0.0248465
0.0246788
0.0247181
0.0248534
0.0246512
0.0233959
0.0211999
0.0187645
0.016542
0.014724
0.0133418
0.0123985
0.0118899
0.011688
0.0116304
0.0233324
0.0233214
0.0231935
0.0228577
0.0224413
0.0220382
0.0217133
0.0214761
0.0212435
0.0207352
0.0195685
0.017893
0.0161456
0.0145812
0.0133013
0.0123175
0.0116368
0.0112703
0.0111302
0.0110914
0.0196346
0.0196219
0.0195137
0.0192294
0.0188578
0.0184675
0.0180996
0.0177568
0.0173812
0.0167934
0.0157979
0.0145399
0.0132889
0.0121852
0.011282
0.0105815
0.0100914
0.00982788
0.00973078
0.00970434
0.0153987
0.0153874
0.015303
0.0150769
0.0147693
0.0144346
0.0140973
0.0137577
0.0133772
0.0128449
0.0120672
0.011161
0.0102889
0.00952642
0.0089003
0.00840913
0.0080613
0.00787522
0.0078095
0.00779182
0.0108419
0.010833
0.0107719
0.0106055
0.0103745
0.0101221
0.00986296
0.00959555
0.0092955
0.00889788
0.00836027
0.00776355
0.00720086
0.00671003
0.0063024
0.00597559
0.00573944
0.00561379
0.00557117
0.00555944
0.00609463
0.00608821
0.00605029
0.00594521
0.0058032
0.00565392
0.00550226
0.00534595
0.00517161
0.00494796
0.00465652
0.00434031
0.0040456
0.00378759
0.00356937
0.00338727
0.00324937
0.00317605
0.00315187
0.00314373
0.0012509
0.00125503
0.00127674
0.00128851
0.00126525
0.00122729
0.00118476
0.00114051
0.00109143
0.00103104
0.000954903
0.000870816
0.000792189
0.000722504
0.000663822
0.00061661
0.000585375
0.000581125
0.000599365
0.000610519
-0.563896
-0.336911
-0.122628
0.0536053
0.198727
0.317261
0.418699
0.50179
0.527337
0.523382
-0.206721
-0.0590621
0.0785149
0.198631
0.301376
0.387808
0.456934
0.504597
0.530383
0.546377
0.0348439
0.131045
0.226963
0.312043
0.385279
0.446393
0.494668
0.531022
0.557181
0.576324
0.206278
0.274296
0.343345
0.405212
0.458697
0.504003
0.541573
0.572305
0.595289
0.614321
0.340663
0.390847
0.441319
0.487963
0.529274
0.56547
0.596739
0.622898
0.642486
0.660748
0.450747
0.490209
0.529425
0.567147
0.601673
0.632637
0.659763
0.682332
0.699223
0.716856
0.545115
0.579938
0.61493
0.648536
0.679719
0.707921
0.732514
0.75257
0.767258
0.784424
0.636345
0.670577
0.704808
0.737623
0.767792
0.794756
0.817836
0.836099
0.849023
0.865685
0.733457
0.770961
0.806874
0.840347
0.870393
0.896477
0.918204
0.934984
0.946933
0.963176
0.848317
0.889794
0.927447
0.960888
0.989864
1.01432
1.03434
1.04994
1.06204
1.07819
0.991032
1.03229
1.06794
1.09783
1.12335
1.14526
1.16402
1.17971
1.19297
1.20897
1.16307
1.19524
1.2225
1.24515
1.26547
1.28438
1.30227
1.31916
1.33417
1.34992
1.34957
1.36688
1.38415
1.40102
1.41726
1.4321
1.4461
1.46065
1.47595
1.4933
1.53327
1.54322
1.55645
1.56748
1.57694
1.58669
1.59739
1.60764
1.61699
1.64268
1.75126
1.74559
1.73264
1.71838
1.71214
1.71793
1.7361
1.76466
1.79845
1.8348
2.05401
1.91805
1.83863
1.79627
1.77898
1.78294
1.81043
1.8683
1.97597
2.15438
0.333225
0.326925
0.3192
0.30809
0.294523
0.281875
0.271467
0.263433
0.257686
0.254286
0.253761
0.25634
0.261333
0.268503
0.27792
0.289649
0.303136
0.316012
0.324964
0.332483
0.242268
0.248191
0.256286
0.262443
0.265541
0.265058
0.262002
0.258017
0.25436
0.251937
0.251614
0.253642
0.257201
0.261446
0.265359
0.267462
0.266276
0.261555
0.254432
0.246562
0.235508
0.237885
0.241175
0.243984
0.246478
0.248719
0.249944
0.249796
0.248776
0.247821
0.247821
0.249004
0.250563
0.251584
0.251297
0.249642
0.247337
0.244859
0.241796
0.238744
0.230693
0.231778
0.233739
0.236151
0.238096
0.239555
0.240804
0.241793
0.242362
0.242564
0.242869
0.243366
0.243545
0.243148
0.242293
0.241161
0.23964
0.237502
0.235269
0.233754
0.225688
0.226313
0.227497
0.22936
0.231311
0.232974
0.234241
0.235262
0.236164
0.236946
0.237465
0.237613
0.237406
0.236924
0.23614
0.234924
0.233253
0.231417
0.229919
0.229081
0.220847
0.221268
0.222122
0.223571
0.225253
0.226966
0.228552
0.229927
0.231076
0.232045
0.232704
0.232842
0.232554
0.231865
0.230794
0.229427
0.227926
0.226481
0.225379
0.224814
0.216261
0.21655
0.217259
0.218606
0.220226
0.221935
0.223714
0.225362
0.226709
0.227742
0.228494
0.228825
0.228577
0.227767
0.226528
0.225133
0.223734
0.222384
0.221425
0.221009
0.212056
0.212255
0.212823
0.213997
0.215457
0.216953
0.218446
0.220025
0.221661
0.223119
0.224097
0.224338
0.223935
0.223185
0.222291
0.221247
0.220066
0.218916
0.218137
0.217837
0.208207
0.208313
0.208778
0.209892
0.211317
0.212813
0.214335
0.215827
0.217251
0.218639
0.219786
0.220363
0.220414
0.220023
0.219283
0.218324
0.217243
0.216181
0.215506
0.215315
0.205202
0.205243
0.20558
0.206514
0.207793
0.209163
0.210654
0.212254
0.213944
0.21558
0.216963
0.217759
0.217905
0.217598
0.217016
0.216296
0.215444
0.21461
0.214131
0.214029
0.202716
0.202736
0.202936
0.203534
0.20445
0.205503
0.206688
0.208048
0.209616
0.211371
0.213061
0.214257
0.214884
0.215132
0.215073
0.214784
0.214397
0.213993
0.21379
0.213739
0.199909
0.199933
0.200081
0.200466
0.201125
0.202031
0.203201
0.204683
0.206443
0.208468
0.210536
0.212143
0.213112
0.213559
0.21376
0.213835
0.213813
0.213764
0.213728
0.213691
0.196259
0.19628
0.196425
0.196759
0.197307
0.198121
0.199244
0.200749
0.202701
0.205077
0.207632
0.209753
0.211201
0.212141
0.212691
0.213081
0.213363
0.213524
0.213558
0.213529
0.191759
0.191768
0.191917
0.19229
0.19289
0.193791
0.195061
0.196818
0.199107
0.201949
0.205121
0.207864
0.209798
0.211123
0.212041
0.212657
0.213095
0.213318
0.21338
0.213368
0.186535
0.186533
0.186681
0.187149
0.187922
0.18897
0.190525
0.192608
0.195369
0.198853
0.202804
0.206289
0.208819
0.210597
0.211824
0.212659
0.213187
0.21345
0.213556
0.213568
0.180671
0.180653
0.180807
0.181334
0.182249
0.183703
0.185504
0.188041
0.191395
0.195671
0.200583
0.204997
0.208269
0.210595
0.212198
0.213285
0.213928
0.214285
0.214455
0.214484
0.17409
0.17406
0.174253
0.174844
0.175941
0.17762
0.179946
0.183006
0.187131
0.192428
0.198555
0.204115
0.208242
0.21119
0.213257
0.214649
0.215517
0.216025
0.21627
0.216309
0.166474
0.16644
0.166676
0.167407
0.168689
0.170639
0.173438
0.177279
0.182411
0.189018
0.196677
0.20363
0.208804
0.212537
0.215159
0.216925
0.218076
0.218773
0.219095
0.219141
0.157354
0.157316
0.157614
0.158503
0.160083
0.162472
0.165922
0.170718
0.17716
0.185442
0.195006
0.203659
0.210104
0.214767
0.218025
0.220254
0.221736
0.222642
0.223048
0.223104
0.146222
0.146177
0.146581
0.147704
0.149678
0.152702
0.157066
0.163146
0.171286
0.181683
0.193604
0.204321
0.212299
0.218028
0.222051
0.224821
0.226681
0.227822
0.228326
0.228392
0.132408
0.132354
0.13291
0.1344
0.136974
0.140886
0.146522
0.154324
0.164667
0.177742
0.192556
0.205747
0.215502
0.222512
0.227444
0.230853
0.233155
0.234571
0.235196
0.235273
0.114986
0.114934
0.115734
0.117763
0.121199
0.126399
0.133823
0.143962
0.15721
0.173657
0.191971
0.208075
0.219916
0.228427
0.234436
0.238611
0.241443
0.243187
0.243955
0.244044
0.0925247
0.0924958
0.0936948
0.0965612
0.101325
0.108476
0.118499
0.131888
0.148932
0.169552
0.192007
0.211469
0.225705
0.235961
0.243248
0.24835
0.251838
0.253984
0.254917
0.25502
0.0626503
0.0627015
0.0646208
0.0689477
0.0759919
0.0862672
0.100177
0.118055
0.13998
0.165646
0.192874
0.216102
0.233022
0.245268
0.254058
0.260295
0.264606
0.26726
0.268397
0.268512
0.0211798
0.0214931
0.0250026
0.0323602
0.0436274
0.0590532
0.0787287
0.102669
0.130686
0.162252
0.194792
0.222109
0.241944
0.2564
0.266933
0.274557
0.279948
0.283271
0.284648
0.284764
-0.0396652
-0.0379999
-0.0296291
-0.0156194
0.00342259
0.0270535
0.0547845
0.0864156
0.121607
0.159736
0.197946
0.22953
0.252409
0.269213
0.281675
0.29093
0.29763
0.30185
0.303581
0.303723
-0.113147
-0.109777
-0.0936971
-0.0692042
-0.0396582
-0.00653054
0.0299663
0.0698032
0.11272
0.158172
0.203093
0.240155
0.267265
0.287565
0.303003
0.314892
0.323931
0.329589
0.331681
0.332191
-0.187842
-0.179309
-0.15535
-0.121015
-0.0817043
-0.0393452
0.00587197
0.0539203
0.104588
0.157417
0.209142
0.251756
0.283112
0.306876
0.325328
0.339812
0.351045
0.358087
0.361488
0.362505
-0.246356
-0.236514
-0.207703
-0.166574
-0.119777
-0.0696863
-0.0167272
0.0388814
0.0968178
0.156593
0.214622
0.262167
0.297077
0.323526
0.344048
0.360198
0.37264
0.380924
0.385127
0.386353
-0.293886
-0.283383
-0.251235
-0.205288
-0.152921
-0.0967564
-0.0373849
0.024773
0.0892181
0.155291
0.218978
0.270772
0.308506
0.336869
0.358695
0.375767
0.38897
0.397978
0.402617
0.403882
-0.333414
-0.322782
-0.2885
-0.238788
-0.181904
-0.12079
-0.0561108
0.0116348
0.0818094
0.153499
0.222246
0.277708
0.3177
0.347436
0.370084
0.387622
0.401079
0.410343
0.415046
0.416368
-0.367802
-0.357144
-0.321297
-0.268588
-0.208003
-0.142682
-0.0733946
-0.000726622
0.0745361
0.151338
0.224674
0.283455
0.325462
0.356344
0.379568
0.39731
0.410777
0.420015
0.424679
0.425989
-0.398614
-0.387983
-0.350927
-0.295753
-0.232033
-0.163086
-0.0897487
-0.0126786
0.0672243
0.148777
0.226516
0.288497
0.332375
0.364263
0.387944
0.40583
0.419296
0.428543
0.433215
0.434413
-0.427034
-0.416403
-0.378368
-0.32109
-0.254662
-0.182572
-0.105634
-0.0245621
0.0596454
0.145692
0.227673
0.292756
0.338529
0.371489
0.395725
0.41384
0.427352
0.436595
0.441277
0.442342
-0.453873
-0.443211
-0.404292
-0.345153
-0.276337
-0.20145
-0.121303
-0.0366339
0.051555
0.141849
0.227986
0.29636
0.344237
0.37844
0.403346
0.42178
0.435405
0.444627
0.449264
0.450246
-0.479562
-0.468861
-0.429106
-0.368302
-0.297366
-0.220016
-0.137
-0.0490551
0.0428102
0.137196
0.227587
0.299421
0.349595
0.385245
0.410984
0.429864
0.443687
0.45293
0.457518
0.458468
-0.50445
-0.493638
-0.453106
-0.390798
-0.317983
-0.238423
-0.152815
-0.0618924
0.0334078
0.131742
0.226357
0.301836
0.354586
0.391948
0.418754
0.438242
0.452376
0.461691
0.466175
0.467088
-0.528735
-0.517738
-0.476475
-0.41278
-0.338279
-0.256741
-0.168807
-0.0751749
0.0232881
0.125336
0.224148
0.303528
0.359202
0.398573
0.426683
0.446956
0.461508
0.470946
0.475325
0.476179
-0.552444
-0.541233
-0.499262
-0.434322
-0.358319
-0.275018
-0.185018
-0.0889496
0.0123835
0.117919
0.220899
0.304361
0.363303
0.405053
0.434738
0.455985
0.471062
0.480653
0.484914
0.48565
-0.575659
-0.564187
-0.521544
-0.45545
-0.378109
-0.293245
-0.201415
-0.103197
0.000731138
0.109514
0.216509
0.304173
0.366703
0.411248
0.442854
0.465286
0.480981
0.49072
0.494828
0.495417
-0.598303
-0.586603
-0.54329
-0.476142
-0.397607
-0.311371
-0.217941
-0.117833
-0.0116034
0.100104
0.210903
0.302805
0.369212
0.416984
0.450943
0.474824
0.491219
0.501069
0.504971
0.505377
-0.620396
-0.608436
-0.564451
-0.496355
-0.416773
-0.329343
-0.234525
-0.13278
-0.0245639
0.0897259
0.204043
0.300095
0.370586
0.422043
0.458904
0.484607
0.501756
0.511548
0.515082
0.515285
-0.641767
-0.629621
-0.584988
-0.516045
-0.435542
-0.347071
-0.251084
-0.147958
-0.0380576
0.0784624
0.195918
0.295928
0.370548
0.426076
0.466533
0.494705
0.512728
0.522099
0.524948
0.524891
-0.662511
-0.650117
-0.604857
-0.535169
-0.453864
-0.364499
-0.26752
-0.163268
-0.0519732
0.0664168
0.186555
0.290213
0.368878
0.428661
0.473435
0.50517
0.524663
0.533065
0.534404
0.533889
-0.682487
-0.669851
-0.624041
-0.553674
-0.471654
-0.381542
-0.283742
-0.178576
-0.0661895
0.0536811
0.176039
0.282898
0.365378
0.42933
0.478917
0.515667
0.538384
0.546069
0.544188
0.542042
-0.701743
-0.688881
-0.642484
-0.571502
-0.488873
-0.398129
-0.299661
-0.193795
-0.0805841
0.0404185
0.164489
0.273971
0.359934
0.42763
0.481948
0.524974
0.553752
0.564136
0.559439
0.547528
-0.720186
-0.707175
-0.660271
-0.588817
-0.505731
-0.414545
-0.315622
-0.209347
-0.0956356
0.0260679
0.1513