/*--------------------------------*- C++ -*----------------------------------*\
  =========                 |
  \\      /  F ield         | OpenFOAM: The Open Source CFD Toolbox
   \\    /   O peration     | Website:  https://openfoam.org
    \\  /    A nd           | Version:  6
     \\/     M anipulation  |
\*---------------------------------------------------------------------------*/
FoamFile
{
    version     2.0;
    format      ascii;
    class       volVectorField;
    location    "75";
    object      U;
}
// * * * * * * * * * * * * * * * * * * * * * * * * * * * * * * * * * * * * * //

dimensions      [0 1 -1 0 0 0 0];

internalField   nonuniform List<vector> 
8800
(
(0.987184 -0.0766659 0)
(1.00189 -0.0551912 0)
(0.999723 -0.0285495 0)
(1.00003 -0.0151447 0)
(1.0001 -0.008546 0)
(1.00012 -0.00504793 0)
(1.00007 -0.00300254 0)
(1.00003 -0.00170216 0)
(0.999997 -0.000795804 0)
(1.00006 -7.97216e-05 0)
(0.99997 0.000651514 0)
(0.999984 0.00141993 0)
(1.00003 0.0024371 0)
(1.00006 0.00400329 0)
(1.00004 0.00663488 0)
(1.00003 0.0113733 0)
(0.999919 0.0208161 0)
(0.999159 0.0386715 0)
(1.0071 0.0724575 0)
(0.771213 0.0366614 0)
(0.363069 -0.0160173 0)
(1.04331 -0.0768167 0)
(1.08459 -0.0704483 0)
(1.04519 -0.0535445 0)
(1.02328 -0.0388969 0)
(1.01202 -0.02622 0)
(1.00643 -0.0168592 0)
(1.00359 -0.0103274 0)
(1.00215 -0.00566654 0)
(1.00144 -0.00200697 0)
(1.0013 0.00131649 0)
(1.00166 0.00470194 0)
(1.00265 0.00863576 0)
(1.00466 0.0139635 0)
(1.0086 0.0216687 0)
(1.01655 0.0326374 0)
(1.03248 0.0465502 0)
(1.06265 0.0616666 0)
(1.09187 0.0761016 0)
(0.838669 0.0565623 0)
(0.216846 -0.0024298 0)
(1.0759 -0.0501364 0)
(1.09988 -0.0483113 0)
(1.06464 -0.040464 0)
(1.04003 -0.0336056 0)
(1.02391 -0.0260832 0)
(1.01412 -0.0184987 0)
(1.00855 -0.0116765 0)
(1.00558 -0.00580485 0)
(1.00432 -0.000383427 0)
(1.00465 0.00486551 0)
(1.00658 0.0102598 0)
(1.01061 0.0163458 0)
(1.01794 0.0233611 0)
(1.03052 0.0308257 0)
(1.05061 0.0378549 0)
(1.08034 0.0445372 0)
(1.10625 0.0513508 0)
(0.942517 0.0416202 0)
(0.216142 0.00246201 0)
(0.175174 -0.00081645 0)
(1.0177 -0.0354843 0)
(1.1052 -0.0413791 0)
(1.07826 -0.0360624 0)
(1.05346 -0.0301263 0)
(1.0362 -0.0245483 0)
(1.024 -0.0188168 0)
(1.01588 -0.0127326 0)
(1.01101 -0.00653943 0)
(1.0088 -0.000198763 0)
(1.00936 0.00606098 0)
(1.01262 0.0120618 0)
(1.01887 0.0178871 0)
(1.02876 0.0234501 0)
(1.04318 0.02875 0)
(1.06371 0.0342317 0)
(1.09354 0.0402141 0)
(1.0934 0.0419733 0)
(0.827113 0.0229191 0)
(0.173987 0.000853545 0)
(0.153977 -0.000610279 0)
(0.956196 -0.0254564 0)
(1.10346 -0.0351243 0)
(1.08768 -0.0326455 0)
(1.06172 -0.0279894 0)
(1.04411 -0.0229613 0)
(1.03164 -0.0177096 0)
(1.02279 -0.0121723 0)
(1.01696 -0.00622898 0)
(1.01411 0.000247223 0)
(1.01476 0.00671364 0)
(1.01874 0.0126013 0)
(1.02579 0.0178843 0)
(1.03609 0.0227859 0)
(1.05063 0.0275426 0)
(1.07187 0.0320709 0)
(1.10005 0.0360014 0)
(1.06804 0.0340531 0)
(0.739462 0.0143233 0)
(0.152186 0.0006524 0)
(0.139611 -0.000466414 0)
(0.899317 -0.0190715 0)
(1.0958 -0.0300691 0)
(1.09575 -0.0291733 0)
(1.06925 -0.0254364 0)
(1.05082 -0.0212908 0)
(1.03789 -0.0165112 0)
(1.02877 -0.0112164 0)
(1.02265 -0.00546349 0)
(1.0195 0.000872237 0)
(1.02009 0.00718896 0)
(1.02418 0.012827 0)
(1.03136 0.0177776 0)
(1.04186 0.0222255 0)
(1.05697 0.0261897 0)
(1.07917 0.0296482 0)
(1.10224 0.0322674 0)
(1.0359 0.0281531 0)
(0.672831 0.0102255 0)
(0.137081 0.000514997 0)
(0.12908 -0.000360888 0)
(0.849764 -0.0147053 0)
(1.08344 -0.0259287 0)
(1.10144 -0.0262123 0)
(1.07612 -0.0229183 0)
(1.05716 -0.0192653 0)
(1.04377 -0.01501 0)
(1.03429 -0.0100758 0)
(1.02792 -0.00453068 0)
(1.02457 0.00162879 0)
(1.02502 0.00773348 0)
(1.02906 0.0130956 0)
(1.03634 0.0176335 0)
(1.04712 0.0214724 0)
(1.06263 0.0247708 0)
(1.08526 0.0277073 0)
(1.10131 0.0294524 0)
(1.00091 0.0236524 0)
(0.620904 0.00786697 0)
(0.125649 0.000418041 0)
(0.121052 -0.000280053 0)
(0.807679 -0.0115427 0)
(1.0682 -0.0223088 0)
(1.105 -0.0235611 0)
(1.08239 -0.0206772 0)
(1.06301 -0.0172361 0)
(1.04934 -0.0132858 0)
(1.03959 -0.00868583 0)
(1.03293 -0.00340852 0)
(1.02932 0.0025368 0)
(1.02958 0.00839688 0)
(1.03357 0.0134094 0)
(1.04091 0.0174721 0)
(1.05179 0.0207994 0)
(1.06751 0.0236863 0)
(1.09048 0.0263213 0)
(1.09748 0.0271666 0)
(0.965527 0.0201306 0)
(0.579124 0.00633947 0)
(0.116526 0.000348024 0)
(0.114838 -0.000216632 0)
(0.772287 -0.00917441 0)
(1.0515 -0.0191182 0)
(1.10741 -0.0211032 0)
(1.08828 -0.0185859 0)
(1.06852 -0.0152858 0)
(1.05461 -0.0114934 0)
(1.04465 -0.00710034 0)
(1.03774 -0.00206124 0)
(1.03385 0.00363348 0)
(1.03387 0.00919539 0)
(1.03773 0.0138328 0)
(1.04501 0.0174727 0)
(1.05586 0.0204098 0)
(1.07178 0.0229717 0)
(1.09439 0.0252573 0)
(1.09079 0.0252835 0)
(0.931044 0.0174224 0)
(0.544469 0.00530059 0)
(0.108982 0.000297905 0)
(0.110007 -0.000165508 0)
(0.742651 -0.00733332 0)
(1.03439 -0.0162858 0)
(1.10889 -0.0187814 0)
(1.09389 -0.0165652 0)
(1.07385 -0.0133527 0)
(1.05967 -0.00964616 0)
(1.04952 -0.0053694 0)
(1.04237 -0.000498275 0)
(1.03818 0.0049566 0)
(1.03789 0.0102037 0)
(1.04151 0.0144823 0)
(1.04864 0.0177496 0)
(1.05945 0.0203356 0)
(1.07556 0.0226067 0)
(1.09701 0.0245105 0)
(1.08163 0.0237577 0)
(0.898015 0.0153785 0)
(0.51488 0.00458139 0)
(0.102534 0.000263021 0)
(0.106274 -0.000122911 0)
(0.717953 -0.00584525 0)
(1.01771 -0.0137395 0)
(1.10956 -0.0165328 0)
(1.09942 -0.0145845 0)
(1.07911 -0.0113787 0)
(1.06463 -0.00769634 0)
(1.05425 -0.00347491 0)
(1.04685 0.00128673 0)
(1.04231 0.00654832 0)
(1.04164 0.011509 0)
(1.04494 0.0154484 0)
(1.05187 0.018358 0)
(1.06261 0.020606 0)
(1.07888 0.0226083 0)
(1.09828 0.0240958 0)
(1.07036 0.0225904 0)
(0.866537 0.0138834 0)
(0.488892 0.004092 0)
(0.0968379 0.000240361 0)
(0.103454 -8.58661e-05 0)
(0.697556 -0.0045938 0)
(1.00208 -0.0114113 0)
(1.10958 -0.0143192 0)
(1.10479 -0.0125522 0)
(1.08438 -0.00930317 0)
(1.06959 -0.00558567 0)
(1.05893 -0.00136068 0)
(1.05121 0.00334989 0)
(1.04625 0.00846438 0)
(1.04511 0.0131667 0)
(1.04803 0.0167842 0)
(1.05472 0.0193393 0)
(1.06536 0.0212532 0)
(1.08175 0.0229958 0)
(1.0985 0.0241008 0)
(1.05725 0.0217943 0)
(0.836433 0.01285 0)
(0.465407 0.00377722 0)
(0.0916332 0.000227517 0)
(0.101428 -5.16881e-05 0)
(0.680992 -0.00349159 0)
(0.987941 -0.00923062 0)
(1.10916 -0.012055 0)
(1.11001 -0.0103909 0)
(1.08975 -0.00707384 0)
(1.07461 -0.00326205 0)
(1.06363 0.00103435 0)
(1.05551 0.0057541 0)
(1.05004 0.0107737 0)
(1.04833 0.0152536 0)
(1.05079 0.0185668 0)
(1.05719 0.0207722 0)
(1.06769 0.0223486 0)
(1.08412 0.0238082 0)
(1.09771 0.0244966 0)
(1.04242 0.021381 0)
(0.807345 0.012207 0)
(0.44355 0.00359954 0)
(0.0867124 0.000222514 0)
(0.100135 -1.81237e-05 0)
(0.667964 -0.00246924 0)
(0.975673 -0.00712273 0)
(1.10863 -0.0096801 0)
(1.11521 -0.00803565 0)
(1.09529 -0.00460617 0)
(1.07977 -0.000631865 0)
(1.0684 0.00380235 0)
(1.05981 0.00859618 0)
(1.05371 0.0135715 0)
(1.05132 0.0178508 0)
(1.05322 0.020864 0)
(1.05927 0.0227032 0)
(1.06961 0.0239311 0)
(1.08602 0.0251111 0)
(1.0957 0.025319 0)
(1.02592 0.0213426 0)
(0.778824 0.0119 0)
(0.422612 0.00353331 0)
(0.0819108 0.000223825 0)
(0.0995622 1.77509e-05 0)
(0.658322 -0.00147394 0)
(0.96559 -0.00501712 0)
(1.10832 -0.00713494 0)
(1.12053 -0.00541352 0)
(1.1011 -0.0018142 0)
(1.08516 0.00238873 0)
(1.07333 0.0070338 0)
(1.06415 0.0119736 0)
(1.0573 0.0169607 0)
(1.05408 0.0210694 0)
(1.05531 0.0237858 0)
(1.06094 0.0252537 0)
(1.07108 0.0261182 0)
(1.08738 0.0269707 0)
(1.09236 0.0266165 0)
(1.00769 0.0217227 0)
(0.750368 0.011907 0)
(0.401993 0.00356555 0)
(0.0770918 0.00023097 0)
(0.0997316 4.90145e-05 0)
(0.652056 -0.000458359 0)
(0.957998 -0.00283738 0)
(1.10858 -0.00434819 0)
(1.12612 -0.00244524 0)
(1.10728 0.00139091 0)
(1.09087 0.00590309 0)
(1.07849 0.0108397 0)
(1.0686 0.0159981 0)
(1.06084 0.0210588 0)
(1.05662 0.0250273 0)
(1.05706 0.0274437 0)
(1.06219 0.0285325 0)
(1.07208 0.0290097 0)
(1.08794 0.0294815 0)
(1.08737 0.02845 0)
(0.987518 0.0225549 0)
(0.721401 0.0122115 0)
(0.381137 0.0036875 0)
(0.0721302 0.000243166 0)
(0.100716 9.7243e-05 0)
(0.649297 0.000611591 0)
(0.953218 -0.00049891 0)
(1.10977 -0.00123626 0)
(1.1322 0.000981705 0)
(1.11394 0.0051537 0)
(1.09702 0.0100652 0)
(1.08398 0.0153802 0)
(1.07323 0.0208392 0)
(1.06436 0.0260204 0)
(1.05895 0.0298561 0)
(1.05844 0.0319594 0)
(1.06298 0.0326632 0)
(1.07255 0.0327214 0)
(1.08757 0.0327675 0)
(1.08051 0.0309089 0)
(0.965089 0.0238703 0)
(0.691297 0.0128025 0)
(0.35953 0.00389016 0)
(0.0669169 0.000259546 0)
(0.102668 0.000153754 0)
(0.65034 0.00178161 0)
(0.951609 0.00206244 0)
(1.11234 0.00229685 0)
(1.13898 0.00496308 0)
(1.12123 0.00958853 0)
(1.10372 0.0150048 0)
(1.08988 0.0208069 0)
(1.07809 0.0266567 0)
(1.06787 0.032026 0)
(1.06105 0.0357512 0)
(1.05942 0.0374933 0)
(1.06324 0.0377951 0)
(1.07243 0.0374018 0)
(1.08599 0.0369407 0)
(1.07147 0.0340833 0)
(0.939951 0.0257131 0)
(0.659377 0.0136752 0)
(0.336684 0.0041664 0)
(0.0613582 0.000279233 0)
(0.105673 0.000217537 0)
(0.655661 0.0032378 0)
(0.95361 0.00500133 0)
(1.11676 0.00640585 0)
(1.14668 0.00966392 0)
(1.12932 0.0148916 0)
(1.11113 0.0209422 0)
(1.09632 0.0273453 0)
(1.08325 0.033676 0)
(1.07142 0.03928 0)
(1.0629 0.0428811 0)
(1.05997 0.0442314 0)
(1.06293 0.0440967 0)
(1.07166 0.0432027 0)
(1.08312 0.0422145 0)
(1.05984 0.0380869 0)
(0.911496 0.028124 0)
(0.624903 0.0148189 0)
(0.312139 0.00450505 0)
(0.0553777 0.000300894 0)
(0.110023 0.000301964 0)
(0.665649 0.00493858 0)
(0.959713 0.00846982 0)
(1.12355 0.0112357 0)
(1.15562 0.0152893 0)
(1.13845 0.0213144 0)
(1.11941 0.0281471 0)
(1.10341 0.0352817 0)
(1.08876 0.0421815 0)
(1.07496 0.0480325 0)
(1.06446 0.0514558 0)
(1.06002 0.05236 0)
(1.06199 0.0517519 0)
(1.07016 0.0502882 0)
(1.07899 0.0486897 0)
(1.04507 0.0430252 0)
(0.878952 0.0311189 0)
(0.587089 0.0162038 0)
(0.285486 0.00488652 0)
(0.0489266 0.000322394 0)
(0.116059 0.000415984 0)
(0.68115 0.00707062 0)
(0.970599 0.0126657 0)
(1.13327 0.0170209 0)
(1.16616 0.0220843 0)
(1.14887 0.0291452 0)
(1.12877 0.036937 0)
(1.11126 0.0449446 0)
(1.09464 0.052487 0)
(1.07849 0.05859 0)
(1.06567 0.0617603 0)
(1.05939 0.0620867 0)
(1.06033 0.0609538 0)
(1.06794 0.0588666 0)
(1.07331 0.056529 0)
(1.02643 0.0489721 0)
(0.841379 0.034681 0)
(0.545139 0.0177714 0)
(0.256413 0.00527986 0)
(0.0420003 0.000340848 0)
(0.124308 0.000574529 0)
(0.703067 0.00985602 0)
(0.987124 0.017894 0)
(1.14658 0.0241106 0)
(1.17879 0.0304646 0)
(1.16091 0.0388726 0)
(1.13941 0.047822 0)
(1.11995 0.0568233 0)
(1.1009 0.0650255 0)
(1.08191 0.0712692 0)
(1.0664 0.0740131 0)
(1.05808 0.073624 0)
(1.05789 0.0718608 0)
(1.06484 0.0690661 0)
(1.06562 0.0656928 0)
(1.00294 0.0559859 0)
(0.797673 0.0387301 0)
(0.498319 0.0194147 0)
(0.224784 0.00563879 0)
(0.0346551 0.000352511 0)
(0.135507 0.00080419 0)
(0.732722 0.0136849 0)
(1.01045 0.024625 0)
(1.16428 0.03305 0)
(1.19414 0.0410281 0)
(1.17494 0.0511725 0)
(1.1515 0.0614768 0)
(1.1295 0.0715353 0)
(1.1074 0.0802945 0)
(1.08504 0.086438 0)
(1.0665 0.0884759 0)
(1.05599 0.0871918 0)
(1.0546 0.0847334 0)
(1.0605 0.0810373 0)
(1.05516 0.0764633 0)
(0.973366 0.0639998 0)
(0.746618 0.0430701 0)
(0.446092 0.020957 0)
(0.190741 0.00589929 0)
(0.0270286 0.000352951 0)
(0.150927 0.00116488 0)
(0.772103 0.0191763 0)
(1.04223 0.0336378 0)
(1.18732 0.0447698 0)
(1.21303 0.0549663 0)
(1.19129 0.0670658 0)
(1.16511 0.0788453 0)
(1.13975 0.0898536 0)
(1.11388 0.0988586 0)
(1.08763 0.104476 0)
(1.06576 0.105395 0)
(1.05294 0.102934 0)
(1.05036 0.0996558 0)
(1.05468 0.095186 0)
(1.04103 0.0888312 0)
(0.936087 0.0727919 0)
(0.687039 0.0473571 0)
(0.388355 0.0221494 0)
(0.154841 0.00598519 0)
(0.0193556 0.000337837 0)
(0.172767 0.00178959 0)
(0.824459 0.0274713 0)
(1.08516 0.046492 0)
(1.21684 0.061162 0)
(1.23599 0.0742179 0)
(1.21004 0.088224 0)
(1.17997 0.101291 0)
(1.15026 0.112752 0)
(1.11989 0.12133 0)
(1.08926 0.125688 0)
(1.06389 0.124897 0)
(1.04877 0.120938 0)
(1.04503 0.116641 0)
(1.04735 0.111207 0)
(1.02187 0.102643 0)
(0.889104 0.0818762 0)
(0.618142 0.051065 0)
(0.325838 0.0226868 0)
(0.118204 0.00582144 0)
(0.0119745 0.000303284 0)
(0.204419 0.00316264 0)
(0.895565 0.0412088 0)
(1.14271 0.0670049 0)
(1.25321 0.0858032 0)
(1.26278 0.101664 0)
(1.23057 0.117044 0)
(1.19521 0.130452 0)
(1.16018 0.141223 0)
(1.12471 0.148229 0)
(1.08945 0.150302 0)
(1.06058 0.147062 0)
(1.04329 0.141193 0)
(1.03847 0.135689 0)
(1.0379 0.129175 0)
(0.995768 0.117439 0)
(0.830088 0.0904046 0)
(0.540297 0.05351 0)
(0.260855 0.022344 0)
(0.082778 0.0053776 0)
(0.00537524 0.000244914 0)
(0.247604 0.00942316 8.84275e-21)
(0.989355 0.0684017 7.59457e-21)
(1.21249 0.101797 -2.65783e-21)
(1.29334 0.122386 0)
(1.29049 0.140943 -6.83971e-35)
(1.25064 0.155857 1.00185e-21)
(1.20926 0.167799 -1.81825e-21)
(1.16844 0.176434 0)
(1.12757 0.180801 3.77279e-35)
(1.08744 0.179811 -2.2844e-21)
(1.0549 0.173666 0)
(1.03542 0.165774 -2.73534e-21)
(1.02993 0.159354 -8.08859e-21)
(1.0248 0.152348 -3.83425e-21)
(0.957981 0.135572 -1.15658e-21)
(0.752336 0.0993012 -6.87591e-22)
(0.448555 0.0547335 0)
(0.19239 0.0214511 4.81511e-22)
(0.0487395 0.00486478 5.70253e-22)
(-0.000462257 0.000151509 1.04193e-20)
(0.277549 0.0247734 6.17552e-21)
(1.06706 0.111387 1.12766e-22)
(1.27002 0.151374 6.94517e-22)
(1.32947 0.171911 0)
(1.31486 0.190635 -3.41751e-21)
(1.26794 0.203428 -3.90211e-21)
(1.22063 0.213102 -1.82029e-21)
(1.17401 0.219312 -6.52535e-21)
(1.12761 0.221034 0)
(1.08232 0.217094 9.67463e-21)
(1.04582 0.208198 9.6285e-21)
(1.02398 0.198402 2.86484e-21)
(1.01607 0.190381 1.04993e-20)
(1.00049 0.181035 1.48224e-20)
(0.897233 0.155871 0)
(0.6454 0.107833 2.09259e-20)
(0.340578 0.0553024 3.00283e-20)
(0.121727 0.0197595 3.34159e-20)
(0.0151737 0.00319552 -3.83311e-20)
(-0.00611986 -0.000454085 -7.31149e-22)
(0.279032 0.0418092 0)
(1.11666 0.166973 9.92258e-22)
(1.30918 0.212004 0)
(1.35771 0.232222 -4.25775e-21)
(1.33408 0.24813 0)
(1.28123 0.257017 -7.5633e-21)
(1.22836 0.262942 3.69034e-21)
(1.17626 0.265573 -1.30315e-20)
(1.12462 0.263743 -3.22001e-22)
(1.07454 0.256161 4.97499e-21)
(1.03444 0.244004 2.11305e-20)
(1.01049 0.231989 -3.58379e-23)
(0.999944 0.222083 -7.6142e-21)
(0.973741 0.209023 -1.38903e-20)
(0.841059 0.175094 1.64732e-20)
(0.56579 0.114995 -2.91762e-20)
(0.274193 0.0554821 -3.84855e-21)
(0.0822652 0.0178393 0)
(-0.00334609 0.000888785 -3.59117e-24)
(-0.0093546 -0.00126538 0)
(0.272396 0.0561093 1.11123e-20)
(1.14366 0.226229 -5.66786e-21)
(1.33356 0.277191 -4.69602e-21)
(1.37652 0.297829 1.95318e-21)
(1.34668 0.309941 -3.29573e-21)
(1.28941 0.314254 1.57493e-20)
(1.232 0.315702 7.65048e-21)
(1.17519 0.314043 0)
(1.11892 0.308016 -2.47131e-20)
(1.06454 0.296229 0)
(1.0212 0.280381 -1.10321e-20)
(0.995363 0.265786 -1.36992e-20)
(0.982276 0.253519 -8.26191e-21)
(0.946857 0.235887 -1.00572e-20)
(0.794595 0.193084 0)
(0.512172 0.122611 0)
(0.235869 0.0570888 -2.49722e-20)
(0.0588041 0.0160697 4.93443e-21)
(-0.0162448 -0.00200048 -2.90322e-21)
(-0.0121968 -0.00231254 -3.43941e-21)
(0.264416 0.0686474 -2.84927e-21)
(1.15558 0.285357 0)
(1.34707 0.343334 8.73132e-21)
(1.38692 0.364833 5.27765e-21)
(1.35278 0.373131 7.72641e-21)
(1.29229 0.372857 0)
(1.23136 0.369694 7.38172e-21)
(1.17071 0.363518 1.42985e-20)
(1.1105 0.352996 1.25805e-20)
(1.05231 0.336662 2.33302e-20)
(1.00603 0.316813 0)
(0.978336 0.299254 -2.9441e-20)
(0.962805 0.284231 -1.77709e-20)
(0.920323 0.261658 -1.05205e-20)
(0.757605 0.210446 6.45014e-20)
(0.47787 0.131173 7.66662e-21)
(0.214521 0.0596961 3.60882e-20)
(0.0450155 0.0143739 -1.70695e-19)
(-0.0255007 -0.00529533 1.01112e-19)
(-0.0147651 -0.00355581 -1.23423e-19)
(0.256655 0.0798633 6.4701e-22)
(1.15783 0.342424 4.47681e-22)
(1.35268 0.408553 -7.34394e-22)
(1.39056 0.431293 -4.69824e-21)
(1.35333 0.435971 -6.13685e-21)
(1.29044 0.431275 3.6257e-22)
(1.22674 0.423632 -7.99884e-21)
(1.16296 0.41299 1.46901e-20)
(1.09941 0.397938 -2.70292e-20)
(1.03785 0.376959 0)
(0.988827 0.352907 -1.32984e-20)
(0.959333 0.33218 -3.13374e-22)
(0.941519 0.314173 -1.9427e-20)
(0.893649 0.286782 0)
(0.727673 0.228047 -1.39481e-20)
(0.45628 0.140973 -3.31013e-20)
(0.203679 0.0634809 8.81571e-20)
(0.0383633 0.0131741 -8.68274e-20)
(-0.0311799 -0.00855168 1.23474e-19)
(-0.0168328 -0.00489004 -1.29937e-19)
(0.249969 0.0901578 -1.08372e-22)
(1.15398 0.39674 4.57993e-22)
(1.35255 0.471818 -9.50859e-22)
(1.38891 0.496056 1.571e-21)
(1.3494 0.497454 -3.02272e-21)
(1.28469 0.488593 0)
(1.21877 0.476699 -7.28785e-21)
(1.15238 0.461764 -1.5331e-20)
(1.08593 0.44229 -1.39999e-20)
(1.02133 0.416705 0)
(0.969728 0.38842 -1.37328e-20)
(0.938388 0.364404 -1.70873e-20)
(0.918446 0.343301 2.10478e-20)
(0.866999 0.311172 -1.27795e-20)
(0.702503 0.245905 -6.0771e-20)
(0.442314 0.152058 3.60426e-20)
(0.200009 0.0685878 1.06902e-20)
(0.0373236 0.0129609 0)
(-0.0332343 -0.0111809 -1.19208e-19)
(-0.0181179 -0.00614142 -4.42922e-21)
(0.244524 0.0998719 7.89219e-22)
(1.14637 0.448136 -1.0771e-21)
(1.3482 0.532577 2.20806e-22)
(1.3832 0.558442 6.03636e-21)
(1.34197 0.556942 -1.05476e-20)
(1.27588 0.544249 1.39735e-20)
(1.20815 0.528397 1.57042e-20)
(1.13951 0.509408 -2.44793e-20)
(1.07049 0.485693 8.74104e-21)
(1.00311 0.45563 -5.72183e-20)
(0.949031 0.423189 -1.55788e-20)
(0.915842 0.395829 0)
(0.893877 0.371625 2.28456e-20)
(0.840048 0.335009 2.74124e-20)
(0.679696 0.264088 3.27568e-20)
(0.431765 0.164241 -3.91688e-20)
(0.199491 0.0748325 -1.15951e-20)
(0.0398049 0.0140981 1.3612e-20)
(-0.0320822 -0.0127431 0)
(-0.0184362 -0.0071087 -9.62014e-21)
(0.240229 0.109103 -1.32854e-20)
(1.13672 0.49669 7.03401e-21)
(1.3409 0.590682 1.25002e-22)
(1.37444 0.618098 3.20894e-21)
(1.33184 0.614045 -4.37833e-21)
(1.2647 0.597868 -8.3458e-22)
(1.19548 0.578402 -1.72296e-20)
(1.1249 0.555654 -8.87555e-21)
(1.05354 0.527938 -2.43543e-20)
(0.983518 0.493575 6.58996e-23)
(0.927068 0.457089 -4.87453e-20)
(0.892028 0.426428 4.13488e-20)
(0.868129 0.399212 -2.5152e-20)
(0.812678 0.358381 3.02456e-20)
(0.65768 0.282183 0)
(0.422074 0.177033 -2.13348e-20)
(0.19978 0.0820436 6.96332e-23)
(0.0439862 0.0165023 -5.9505e-20)
(-0.0288473 -0.0131809 -8.76252e-21)
(-0.0179692 -0.00774014 0)
(0.237009 0.118103 0)
(1.12604 0.542633 8.25959e-21)
(1.33157 0.646417 2.6445e-21)
(1.36346 0.674862 -2.4562e-21)
(1.31974 0.668549 -6.04063e-21)
(1.25178 0.649237 0)
(1.18132 0.626506 -7.61004e-21)
(1.10902 0.600328 -2.12023e-22)
(1.0355 0.568907 5.22547e-20)
(0.962977 0.530467 -7.84787e-21)
(0.90417 0.490048 -3.52521e-20)
(0.867294 0.456206 2.14916e-20)
(0.841514 0.426012 -4.48081e-22)
(0.784792 0.381154 3.22611e-20)
(0.635465 0.299812 1.97425e-20)
(0.411532 0.18986 -4.6059e-20)
(0.19956 0.0895683 5.4533e-20)
(0.0484443 0.019716 1.61764e-20)
(-0.0244778 -0.0126942 6.68694e-20)
(-0.0169381 -0.00803707 -1.80879e-19)
(0.234775 0.127011 -4.70137e-21)
(1.11506 0.586145 6.09005e-21)
(1.32078 0.699266 -3.93885e-21)
(1.35092 0.728681 9.61658e-22)
(1.30623 0.720349 0)
(1.23763 0.698236 -5.92382e-21)
(1.16612 0.672592 2.58593e-20)
(1.09229 0.64333 1.94194e-20)
(1.01677 0.608519 0)
(0.9418 0.566263 -1.13515e-19)
(0.880627 0.522058 9.56304e-20)
(0.841936 0.485097 0)
(0.814364 0.451959 2.95187e-20)
(0.75649 0.403114 -4.3993e-22)
(0.612308 0.316671 -6.35919e-20)
(0.399297 0.202163 2.48648e-20)
(0.197354 0.097013 0)
(0.0519745 0.0234066 8.75088e-20)
(-0.0199035 -0.0115029 0)
(-0.015562 -0.00804234 -8.58291e-20)
(0.233397 0.135861 5.71127e-21)
(1.10424 0.627443 8.15915e-21)
(1.30901 0.749286 -3.8425e-21)
(1.33734 0.779573 0)
(1.29179 0.769433 -4.4164e-21)
(1.22269 0.744831 0)
(1.15028 0.716604 -2.51719e-20)
(1.07507 0.684595 -8.86407e-21)
(0.997647 0.646738 9.18076e-21)
(0.920243 0.600936 -5.6237e-20)
(0.856686 0.553114 9.8715e-21)
(0.816157 0.51303 0)
(0.786852 0.476897 -6.32066e-20)
(0.727832 0.423991 4.15747e-22)
(0.587981 0.332322 0)
(0.385158 0.213229 1.57197e-22)
(0.192837 0.10376 8.01198e-20)
(0.0537594 0.0269338 -7.57575e-20)
(-0.0160118 -0.0100904 2.24239e-20)
(-0.0141428 -0.00786785 0)
(0.232527 0.144588 0)
(1.09374 0.666706 9.99623e-21)
(1.29668 0.796586 6.01792e-21)
(1.32313 0.827609 -5.20776e-22)
(1.27681 0.815832 -8.87417e-22)
(1.20731 0.789025 -1.33687e-20)
(1.13413 0.75853 9.56863e-21)
(1.05765 0.724097 -1.06352e-20)
(0.978403 0.683535 4.12381e-20)
(0.898571 0.634509 -9.01768e-20)
(0.832535 0.583218 -8.71922e-22)
(0.790139 0.539989 -2.76432e-20)
(0.759139 0.500693 1.0281e-19)
(0.6989 0.443506 -5.10484e-22)
(0.562404 0.346454 -4.96346e-20)
(0.369105 0.222552 -8.80277e-20)
(0.186117 0.109301 0)
(0.0535584 0.0297808 0)
(-0.0132105 -0.00885243 2.42453e-20)
(-0.0128624 -0.00764059 -1.44043e-20)
(0.232298 0.153364 8.20658e-21)
(1.08382 0.703753 -2.28737e-20)
(1.28408 0.841263 -6.4708e-21)
(1.30862 0.872872 0)
(1.2616 0.859608 -3.09736e-22)
(1.19179 0.830855 -1.1578e-20)
(1.11794 0.798383 2.2701e-20)
(1.04029 0.761841 4.15086e-20)
(0.959289 0.718913 5.3597e-20)
(0.877005 0.667009 -7.37825e-20)
(0.808345 0.612419 -8.28195e-20)
(0.763964 0.565978 7.40933e-20)
(0.731277 0.523252 0)
(0.669775 0.461326 -2.26592e-20)
(0.536127 0.358554 -5.36786e-20)
(0.351417 0.229846 -6.34085e-20)
(0.177424 0.113166 -7.48796e-20)
(0.0516966 0.0315314 2.21694e-20)
(-0.0115008 -0.008052 -1.30705e-20)
(-0.0117964 -0.00743879 6.72196e-23)
(0.232274 0.161961 0)
(1.07461 0.739062 0)
(1.27143 0.883419 5.13451e-22)
(1.29402 0.915466 0)
(1.24638 0.900849 2.02321e-22)
(1.17633 0.870385 7.29483e-21)
(1.10191 0.836194 0)
(1.0232 0.797841 4.85994e-21)
(0.940508 0.752885 8.95313e-20)
(0.855724 0.698464 -1.70071e-19)
(0.784265 0.640794 0)
(0.737704 0.591065 -4.7886e-20)
(0.70323 0.544466 -5.98303e-22)
(0.640377 0.47715 -4.34707e-22)
(0.509255 0.368216 5.76466e-20)
(0.332493 0.234699 1.21001e-23)
(0.167155 0.11511 -1.61496e-19)
(0.0484379 0.0321134 4.77226e-20)
(-0.0107192 -0.00772627 1.41589e-20)
(-0.0109325 -0.00727302 0)
(0.23252 0.170373 -3.34333e-20)
(1.06586 0.772716 -1.57198e-20)
(1.25881 0.923122 -1.98474e-20)
(1.27953 0.955501 1.76977e-20)
(1.23135 0.93963 -2.75117e-21)
(1.16113 0.907681 0)
(1.08623 0.872013 1.34921e-20)
(1.00654 0.832119 -1.09412e-20)
(0.922217 0.785468 7.99714e-22)
(0.834916 0.728919 1.25994e-20)
(0.76044 0.668437 1.07843e-19)
(0.711386 0.615357 -1.68245e-20)
(0.67489 0.564312 -6.37839e-20)
(0.610627 0.490732 -2.64919e-20)
(0.481996 0.375055 3.1257e-20)
(0.31258 0.236788 4.06597e-23)
(0.155999 0.114986 4.35355e-20)
(0.0442798 0.0315414 -1.02813e-19)
(-0.0105675 -0.00781865 1.21955e-19)
(-0.010233 -0.00714884 1.80069e-20)
(0.232653 0.178541 1.2779e-20)
(1.05759 0.804795 -8.90981e-21)
(1.24639 0.960497 1.29937e-21)
(1.26529 0.993101 1.1861e-20)
(1.21665 0.976065 1.97434e-21)
(1.14632 0.942816 -1.22467e-20)
(1.07103 0.905888 3.70455e-21)
(0.990447 0.8647 -4.55816e-20)
(0.904569 0.816668 -9.89782e-20)
(0.814732 0.75839 -1.01795e-19)
(0.73701 0.695448 0)
(0.685048 0.638992 -7.42546e-20)
(0.646125 0.582865 9.22155e-20)
(0.580272 0.501826 0)
(0.454375 0.378525 -6.70995e-20)
(0.292706 0.235619 3.98096e-20)
(0.14491 0.11258 -4.68766e-20)
(0.0401666 0.0300212 -5.5373e-20)
(-0.0106842 -0.00812765 -9.83145e-20)
(-0.00969542 -0.00706258 -7.76432e-20)
(0.233174 0.186588 -1.45601e-20)
(1.04965 0.835291 9.54678e-21)
(1.23423 0.995609 2.14734e-20)
(1.2514 1.02835 1.76767e-20)
(1.20239 1.01025 -3.34226e-21)
(1.132 0.975877 -5.87235e-21)
(1.0564 0.937872 1.25821e-20)
(0.975018 0.89563 -4.67328e-20)
(0.887663 0.846508 -5.87811e-20)
(0.795302 0.786895 1.06892e-19)
(0.714111 0.721909 2.38283e-19)
(0.658746 0.662144 0)
(0.616778 0.600316 0)
(0.5489 0.51033 -3.05655e-20)
(0.426122 0.378015 0)
(0.273387 0.230139 8.55843e-20)
(0.135782 0.107025 1.00819e-19)
(0.0383079 0.027289 0)
(-0.00999321 -0.0085322 0)
(-0.00939573 -0.00708789 8.35207e-20)
(0.233385 0.194188 1.66607e-20)
(1.04206 0.864203 1.31723e-20)
(1.22241 1.02857 1.56708e-20)
(1.23793 1.06137 -1.74286e-20)
(1.18863 1.04229 -5.04629e-21)
(1.11825 1.00694 4.91139e-21)
(1.04241 0.968023 -1.71782e-20)
(0.960331 0.924934 -1.46298e-22)
(0.871593 0.874994 -1.04856e-21)
(0.776742 0.814441 -8.58273e-22)
(0.691896 0.747886 1.23073e-19)
(0.632564 0.684983 0)
(0.586749 0.616963 9.40197e-20)
(0.516007 0.516392 6.55115e-20)
(0.396417 0.373114 1.57037e-19)
(0.254284 0.218538 4.62083e-20)
(0.130572 0.0948792 -5.42727e-20)
(0.0441629 0.0193337 -3.19678e-20)
(-0.00173897 -0.010724 0)
(-0.00781664 -0.00694678 8.9846e-20)
(0.233988 0.201824 -3.79138e-20)
(1.03478 0.891662 0)
(1.21092 1.05944 1.86835e-20)
(1.22492 1.09224 -1.4951e-20)
(1.17543 1.07228 7.68188e-21)
(1.10509 1.03609 -3.20997e-21)
(1.02912 0.996396 3.24908e-20)
(0.946433 0.952647 -3.86061e-21)
(0.856411 0.902135 0)
(0.759149 0.841001 -1.18503e-19)
(0.670515 0.773415 -2.68558e-19)
(0.606631 0.707686 1.10595e-20)
(0.55603 0.633141 1.30469e-19)
(0.481169 0.520518 0)
(0.363869 0.364138 1.06318e-19)
(0.232758 0.199066 0)
(0.127321 0.068304 0)
(0.0646978 -0.0119001 -3.45597e-20)
(0.0429197 -0.0280846 0)
(0.0244278 0.00373183 2.4108e-20)
(0.234178 0.208906 -4.25548e-20)
(1.02778 0.917903 0)
(1.19977 1.08841 3.13733e-20)
(1.21232 1.12122 0)
(1.16277 1.1005 -4.94561e-21)
(1.09249 1.06362 0)
(1.01646 1.0233 1.42987e-21)
(0.933228 0.979104 6.468e-21)
(0.841996 0.92829 7.44452e-21)
(0.742346 0.866949 -1.30365e-19)
(0.649773 0.798946 8.06548e-21)
(0.580635 0.730926 8.95223e-20)
(0.52409 0.649656 1.27734e-19)
(0.443347 0.523449 1.71968e-20)
(0.326353 0.352518 8.36329e-20)
(0.203085 0.172382 0)
(0.112237 0.0227818 1.14409e-19)
(0.0647471 -0.0469827 -6.71952e-20)
(0.0297689 0.0507549 7.85609e-20)
(-0.0384691 0.45738 -9.33426e-20)
(0.234337 0.215836 3.53803e-20)
(1.02083 0.942792 5.32287e-20)
(1.18885 1.11581 0)
(1.19999 1.14874 1.03109e-21)
(1.15043 1.12753 1.51454e-20)
(1.08015 1.0902 -2.13119e-21)
(1.00411 1.04953 1.07237e-20)
(0.920297 1.00524 0)
(0.827804 0.954555 4.895e-20)
(0.725637 0.893587 -6.76279e-21)
(0.628729 0.825974 0)
(0.55322 0.756387 0)
(0.488762 0.66778 1.1486e-19)
(0.399831 0.525546 -5.32344e-20)
(0.280522 0.339948 -8.50831e-20)
(0.16056 0.141352 0)
(0.0652344 0.0445682 5.8213e-20)
(0.00525179 0.461126 -6.76154e-20)
(0.0303168 1.93093 -3.80161e-20)
(0.0568076 2.82676 -4.66061e-20)
(0.234166 0.222226 -2.67793e-20)
(1.01399 0.966504 -6.86942e-20)
(1.17821 1.14164 1.88353e-20)
(1.18793 1.17467 1.51271e-20)
(1.13849 1.15316 0)
(1.06818 1.11557 -3.76073e-21)
(0.992297 1.07479 1.37253e-20)
(0.907839 1.03064 -3.09679e-21)
(0.814126 0.980414 7.35415e-21)
(0.709426 0.920321 1.24446e-19)
(0.608024 0.853864 1.36822e-19)
(0.525372 0.78392 1.01125e-19)
(0.450815 0.687761 1.16118e-19)
(0.351803 0.52609 -1.25844e-19)
(0.232201 0.330232 -1.29067e-19)
(0.107202 0.197711 0)
(0.0380999 0.891314 0)
(0.0853913 2.58467 3.23702e-20)
(0.0883473 3.21348 0)
(0.0898464 3.3899 8.4475e-20)
(0.236792 0.22821 0)
(1.00755 0.989425 0)
(1.16753 1.16576 0)
(1.17595 1.19889 4.64702e-21)
(1.1266 1.17716 1.40929e-20)
(1.0564 1.13959 -5.46425e-21)
(0.980934 1.09896 8.477e-21)
(0.895788 1.05515 -3.00065e-21)
(0.800898 1.00569 6.09126e-20)
(0.693706 0.94699 -1.75334e-21)
(0.587751 0.882412 2.71045e-19)
(0.497459 0.813598 -1.17326e-20)
(0.410136 0.710482 1.41563e-20)
(0.301137 0.523347 1.83004e-20)
(0.17322 0.348157 -5.88576e-22)
(0.0882111 1.01746 3.49827e-22)
(0.122045 2.76638 -1.72173e-19)
(0.126716 3.30169 -6.50191e-20)
(0.117658 3.42365 3.44114e-20)
(0.107539 3.44339 -3.88839e-20)
(0.160184 0.173969 1.64743e-20)
(0.996982 1.01429 0)
(1.15662 1.18837 -3.90023e-20)
(1.16446 1.22182 -4.18067e-20)
(1.11521 1.2 3.42062e-20)
(1.04547 1.16273 6.7743e-21)
(0.969837 1.12205 -8.27529e-21)
(0.884173 1.07884 3.21516e-20)
(0.788196 1.03047 -4.98897e-20)
(0.678696 0.97371 0)
(0.568203 0.91169 1.33814e-19)
(0.470019 0.845193 -8.29396e-20)
(0.36973 0.739853 0)
(0.241998 0.521655 1.77788e-20)
(0.126651 0.748845 4.21787e-20)
(0.136692 2.57113 -4.77528e-20)
(0.184243 3.32835 5.4253e-20)
(0.167285 3.43368 2.9244e-20)
(0.139129 3.45247 3.32739e-20)
(0.120159 3.46121 5.3052e-20)
(0.271531 0.266126 -3.17583e-20)
(0.979694 1.02463 0)
(1.13849 1.2144 4.23464e-20)
(1.14975 1.25305 4.64589e-20)
(1.09765 1.23372 -3.90145e-20)
(1.02732 1.19681 -1.17807e-20)
(0.950494 1.15768 5.16443e-21)
(0.864245 1.11578 2.54813e-21)
(0.766773 1.06967 4.70608e-20)
(0.654159 1.01709 1.07572e-19)
(0.537585 0.961407 7.50438e-21)
(0.427335 0.898593 7.39905e-20)
(0.293454 0.772479 1.34345e-20)
(0.202594 0.915402 -1.71327e-20)
(0.20851 2.44817 -3.85938e-20)
(0.259634 3.33233 3.80742e-20)
(0.242562 3.4588 -4.17812e-20)
(0.20853 3.47759 -2.40939e-20)
(0.175131 3.50205 -2.18208e-20)
(0.130145 3.49707 -3.17794e-21)
(0.261794 0.265061 0)
(0.97689 1.0476 1.2405e-20)
(1.12976 1.23811 -8.75302e-21)
(1.13864 1.27674 -5.57217e-21)
(1.08648 1.25712 -2.71996e-20)
(1.01613 1.22039 1.24712e-20)
(0.938976 1.18149 -1.65799e-21)
(0.852447 1.14045 2.24439e-21)
(0.75429 1.09587 -4.87621e-20)
(0.640069 1.0463 -2.77541e-21)
(0.520021 0.995557 -2.41928e-19)
(0.403125 0.935314 1.06064e-20)
(0.275217 0.845865 -1.27297e-20)
(0.237961 1.54221 -1.57669e-20)
(0.301016 3.14384 3.67325e-21)
(0.313805 3.46062 2.27783e-22)
(0.272479 3.50764 6.20059e-20)
(0.238688 3.531 3.14239e-20)
(0.193043 3.55102 -1.01441e-20)
(0.1432 3.54764 -1.58018e-20)
(0.247878 0.26316 3.18493e-20)
(0.973178 1.07313 8.42322e-20)
(1.12068 1.26392 -2.50109e-20)
(1.12716 1.30206 -2.09697e-20)
(1.07485 1.28198 0)
(1.00457 1.24528 2.38866e-20)
(0.927362 1.20666 7.22559e-22)
(0.840808 1.16644 1.9161e-21)
(0.74228 1.12351 -5.4692e-21)
(0.626999 1.07723 -9.6721e-20)
(0.504423 1.03205 -1.11429e-19)
(0.381686 0.973421 -8.67913e-20)
(0.278397 0.992042 -9.57307e-20)
(0.303648 2.31381 9.89113e-20)
(0.381833 3.38851 8.37914e-20)
(0.353226 3.51701 0)
(0.305366 3.55385 0)
(0.268805 3.58749 -7.98167e-21)
(0.225009 3.63253 0)
(0.155578 3.61725 -1.24619e-20)
(0.238109 0.265159 -4.76337e-20)
(0.967548 1.09954 -7.14977e-20)
(1.11023 1.29097 0)
(1.11444 1.32821 1.25364e-21)
(1.06198 1.30751 -2.98837e-20)
(0.991933 1.27076 3.95425e-20)
(0.915001 1.23246 2.29354e-21)
(0.828649 1.19299 8.72491e-22)
(0.730009 1.15167 -3.35862e-20)
(0.614115 1.10872 4.76033e-21)
(0.489979 1.06921 0)
(0.362528 1.01575 0)
(0.300757 1.28645 -8.68034e-20)
(0.383023 2.97499 3.54004e-20)
(0.446955 3.48749 4.51242e-20)
(0.393589 3.55148 0)