/*--------------------------------*- C++ -*----------------------------------*\
  =========                 |
  \\      /  F ield         | OpenFOAM: The Open Source CFD Toolbox
   \\    /   O peration     | Website:  https://openfoam.org
    \\  /    A nd           | Version:  6
     \\/     M anipulation  |
\*---------------------------------------------------------------------------*/
FoamFile
{
    version     2.0;
    format      ascii;
    class       surfaceScalarField;
    location    "82.1";
    object      phi;
}
// * * * * * * * * * * * * * * * * * * * * * * * * * * * * * * * * * * * * * //

dimensions      [0 3 -1 0 0 0 0];

internalField   nonuniform List<scalar> 
17370
(
-0.0900003
0.0898492
0.289162
-0.0714627
0.0537527
0.364485
-0.0381194
0.0276902
0.426597
-0.0196382
0.0146049
0.504285
-0.0107627
0.00827207
0.601893
-0.00627212
0.00489548
0.720434
-0.00373157
0.00289116
0.863747
-0.00214992
0.00159104
1.03601
-0.00107469
0.000662517
1.24292
-0.000255589
-0.000139422
1.49159
0.000518519
-0.000928998
1.4916
0.00132775
-0.00181747
1.24318
0.00234458
-0.0030493
1.03634
0.00386233
-0.00500589
0.86405
0.00637152
-0.00836407
0.72105
0.010849
-0.0146845
0.60305
0.019711
-0.0277549
0.507483
0.0381764
-0.0538007
0.431792
0.071502
-0.0898756
0.365149
0.0900162
0.198995
-0.128137
0.0882273
0.0399094
-0.364599
0.353379
-0.0746715
0.0858912
-0.446476
0.454321
-0.0843877
0.0765432
-0.521191
0.529903
-0.0684456
0.0597337
-0.612789
0.621569
-0.0515441
0.0427637
-0.726895
0.734165
-0.0353019
0.0280313
-0.867476
0.872592
-0.0224294
0.0173127
-1.03847
1.04193
-0.0135021
0.0100516
-1.2446
1.24703
-0.00744017
0.00500633
-1.49262
1.4946
-0.00305718
0.0010763
-1.4925
1.49423
0.000598255
-0.00232291
-1.24398
1.24586
0.00422751
-0.0061129
-1.03751
1.04003
0.00846875
-0.0109949
-0.8661
0.869826
0.0143442
-0.0180702
-0.72439
0.729933
0.0231091
-0.0286519
-0.608697
0.61611
0.0358659
-0.0432791
-0.514896
0.52304
0.0520081
-0.0601512
-0.439856
0.447914
0.0688131
-0.0768709
-0.375295
0.376738
0.0846673
-0.0861109
-0.25733
0.222476
0.0748205
-0.0399669
-0.0685208
0.0586958
0.00982496
-0.0518058
0.0583872
-0.374129
0.367548
-0.0574696
0.0537158
-0.453596
0.45735
-0.0486242
0.04467
-0.527949
0.531903
-0.040828
0.037187
-0.621566
0.625207
-0.0330828
0.0290048
-0.735352
0.73943
-0.0244319
0.0202704
-0.874344
0.878505
-0.0159221
0.0122259
-1.04349
1.04719
-0.00848573
0.00531036
-1.24856
1.25174
-0.00197965
-0.00109506
-1.49666
1.49973
0.00414362
-0.00741091
-1.4972
1.50047
0.0104919
-0.0140971
-1.25007
1.25367
0.0176505
-0.0218334
-1.04592
1.0501
0.0258539
-0.0302898
-0.877758
0.882194
0.0342579
-0.0382531
-0.739897
0.743892
0.0418015
-0.0455474
-0.626771
0.630517
0.049419
-0.0544318
-0.534808
0.539821
0.0580993
-0.058909
-0.457472
0.458281
0.0522007
-0.0319942
-0.335746
0.31554
0.00988923
-0.0683419
0.0584527
-0.0529464
0.0489527
0.00399375
-0.0331501
0.0436898
-0.358118
0.347578
-0.0473835
0.0467526
-0.459291
0.459922
-0.0436933
0.0403372
-0.535807
0.539164
-0.0365609
0.0332534
-0.628535
0.631842
-0.0298116
0.0267762
-0.742655
0.745691
-0.0235137
0.0204035
-0.882027
0.885137
-0.0168694
0.0134866
-1.05078
1.05416
-0.00968951
0.00614759
-1.25518
1.25872
-0.00217512
-0.00162422
-1.50324
1.50704
0.00539073
-0.00926526
-1.50413
1.50801
0.0126736
-0.0162835
-1.25741
1.26102
0.0194675
-0.0227703
-1.05391
1.05722
0.0256804
-0.0287454
-0.885681
0.888746
0.0316196
-0.0349006
-0.747149
0.75043
0.0380724
-0.0417102
-0.634299
0.637936
0.0449475
-0.0478714
-0.544128
0.547052
0.0483596
-0.0444657
-0.456563
0.452669
0.0336869
-0.0162284
-0.296168
0.278709
0.00407378
-0.052631
0.0485572
-0.045877
0.043384
0.00249294
-0.022789
0.0331587
-0.336896
0.326526
-0.0389717
0.0399828
-0.45961
0.458599
-0.0387871
0.036496
-0.541885
0.544177
-0.0338235
0.0312228
-0.634896
0.637497
-0.0281543
0.0252502
-0.74874
0.751644
-0.0219802
0.0189818
-0.888095
0.891093
-0.0156715
0.0125674
-1.0573
1.0604
-0.0090362
0.00562321
-1.26218
1.26559
-0.00165655
-0.00222953
-1.51093
1.51481
0.00607163
-0.00990758
-1.5119
1.51573
0.0131437
-0.0164295
-1.26445
1.26774
0.0192733
-0.0222801
-1.06032
1.06332
0.0250135
-0.0280185
-0.891793
0.894798
0.0307034
-0.0335516
-0.753631
0.75648
0.0359665
-0.0384521
-0.640998
0.643483
0.0405831
-0.0415681
-0.54885
0.549835
0.0403364
-0.0342013
-0.44738
0.441245
0.0234795
-0.0102474
-0.263478
0.250246
0.00259189
-0.0453912
0.0427993
-0.0413118
0.0395481
0.00176375
-0.0167226
0.0259603
-0.316685
0.307447
-0.0325526
0.034683
-0.457006
0.454875
-0.0342539
0.032577
-0.546158
0.547835
-0.0303896
0.0282882
-0.639806
0.641907
-0.0258498
0.0234459
-0.754293
0.756697
-0.0205802
0.0177841
-0.893994
0.89679
-0.0145402
0.0114638
-1.06346
1.06653
-0.00796617
0.00463427
-1.26892
1.27225
-0.000796102
-0.00294032
-1.51861
1.52234
0.00662057
-0.0102913
-1.51946
1.52313
0.0133964
-0.0165801
-1.27097
1.27416
0.0193235
-0.0221792
-1.06635
1.06921
0.0246348
-0.0271582
-0.897603
0.900127
0.0292784
-0.0314324
-0.758923
0.761077
0.0332959
-0.035243
-0.64563
0.647578
0.0366878
-0.0368307
-0.550344
0.550487
0.0343619
-0.0272977
-0.434564
0.427499
0.0175851
-0.00742188
-0.238697
0.228534
0.00188464
-0.0406164
0.0387317
-0.0380296
0.0367047
0.00132491
-0.0127541
0.0206803
-0.29887
0.290944
-0.0274101
0.0303175
-0.452327
0.449419
-0.0305093
0.0293793
-0.549272
0.550402
-0.0273768
0.0254513
-0.643949
0.645875
-0.0232412
0.0210945
-0.758943
0.76109
-0.0185686
0.0160749
-0.899372
0.901866
-0.0131206
0.0102299
-1.06948
1.07237
-0.00685561
0.00360406
-1.27551
1.27877
0.000151941
-0.00378582
-1.526
1.52963
0.00734934
-0.0108947
-1.52672
1.53027
0.0138615
-0.0168424
-1.27728
1.28026
0.019316
-0.0217843
-1.07194
1.07441
0.0238519
-0.0259479
-0.902402
0.904498
0.0277364
-0.0295859
-0.763051
0.7649
0.0312109
-0.0329215
-0.649388
0.651099
0.0337139
-0.0331215
-0.550265
0.549672
0.0297298
-0.0223534
-0.420221
0.412845
0.0138164
-0.00576183
-0.219525
0.211471
0.00147197
-0.0370783
0.0356064
-0.0355486
0.0345297
0.00101885
-0.00994802
0.0166364
-0.283663
0.276974
-0.0230903
0.0264411
-0.44627
0.44292
-0.0272034
0.0264894
-0.551317
0.552031
-0.0247172
0.0229207
-0.647778
0.649575
-0.0208365
0.0188065
-0.763172
0.765202
-0.016419
0.0140762
-0.904214
0.906557
-0.0113197
0.00861805
-1.07509
1.0778
-0.00544264
0.00234296
-1.2819
1.285
0.00128033
-0.00480086
-1.53319
1.53671
0.00823424
-0.0115965
-1.53371
1.53707
0.0143449
-0.0170359
-1.28311
1.2858
0.0192232
-0.02138
-1.07679
1.07894
0.0231963
-0.0250517
-0.906461
0.908316
0.0266376
-0.0282744
-0.766636
0.768273
0.0296981
-0.0310659
-0.652666
0.654034
0.0313615
-0.0300304
-0.548722
0.547391
0.0260121
-0.0187066
-0.405476
0.39817
0.0112502
-0.00466406
-0.204218
0.197632
0.00119769
-0.0342862
0.0330885
-0.0336368
0.0328458
0.000790942
-0.0078637
0.0134716
-0.270856
0.265248
-0.0194298
0.0229679
-0.439466
0.435928
-0.024199
0.0237276
-0.552658
0.553129
-0.0222175
0.0205267
-0.651369
0.653059
-0.0185328
0.0165837
-0.767185
0.769134
-0.0142829
0.0120229
-0.908792
0.911051
-0.00936485
0.00676933
-1.08037
1.08297
-0.00373106
0.000771385
-1.28798
1.29094
0.00268319
-0.00603125
-1.54012
1.54347
0.00927216
-0.012406
-1.54029
1.54343
0.0149354
-0.017381
-1.28837
1.29082
0.0193465
-0.0212696
-1.08108
1.083
0.0228837
-0.0245304
-0.91006
0.911707
0.0259336
-0.0273772
-0.769804
0.771248
0.0286022
-0.0295851
-0.655202
0.656185
0.0295043
-0.0274985
-0.54572
0.543714
0.023069
-0.0160181
-0.390984
0.383933
0.00945575
-0.00390751
-0.191613
0.186064
0.00100828
-0.0319962
0.030988
-0.0321533
0.0315397
0.000613656
-0.00625097
0.0109344
-0.260131
0.255448
-0.016291
0.0198188
-0.432396
0.428868
-0.0213634
0.0211122
-0.553529
0.553781
-0.0198282
0.0181925
-0.654771
0.656407
-0.0162497
0.0143454
-0.771049
0.772953
-0.012098
0.00989128
-0.913207
0.915414
-0.00729574
0.00476523
-1.08545
1.08798
-0.00181229
-0.00104649
-1.2938
1.29666
0.00435478
-0.00753021
-1.5467
1.54988
0.0105747
-0.0134913
-1.54642
1.54934
0.0158253
-0.0180562
-1.29317
1.2954
0.0198181
-0.0215175
-1.08493
1.08663
0.0229364
-0.024384
-0.913241
0.914688
0.025619
-0.0268852
-0.772593
0.773859
0.0279658
-0.0285253
-0.656963
0.657522
0.0280606
-0.0254816
-0.541425
0.538846
0.0207921
-0.0140562
-0.377045
0.370309
0.00819425
-0.00338288
-0.18092
0.176109
0.00087765
-0.0300536
0.0291759
-0.031007
0.0305376
0.000469418
-0.00494832
0.00883261
-0.251191
0.247307
-0.0135431
0.0169113
-0.425431
0.422062
-0.0186288
0.0185611
-0.553986
0.554054
-0.0174631
0.0158582
-0.658093
0.659698
-0.0139317
0.0120361
-0.774836
0.776731
-0.00980027
0.00761104
-0.917521
0.91971
-0.00504576
0.00255486
-1.09041
1.0929
0.000338628
-0.00312252
-1.29942
1.3022
0.00631715
-0.00935014
-1.55294
1.55597
0.0122243
-0.0149436
-1.55212
1.55483
0.0170921
-0.0191115
-1.29754
1.29956
0.0206708
-0.0221493
-1.08836
1.08983
0.0233827
-0.0246471
-0.916025
0.917289
0.0257308
-0.026837
-0.775031
0.776137
0.0277134
-0.0279092
-0.657889
0.658085
0.0270172
-0.0239466
-0.536022
0.532951
0.0190896
-0.0126552
-0.363739
0.357304
0.00732005
-0.003026
-0.171586
0.167292
0.000790357
-0.0283497
0.0275594
-0.0301377
0.0297909
0.000346808
-0.00385256
0.00703281
-0.2438
0.24062
-0.0110848
0.0141828
-0.418849
0.415751
-0.0159449
0.0160223
-0.554104
0.554027
-0.0149968
0.0134575
-0.661345
0.662884
-0.011518
0.00959767
-0.778616
0.780537
-0.00733397
0.00512608
-0.921806
0.924014
-0.00255201
6.68601e-05
-1.09529
1.09777
0.00280103
-0.00553889
-1.3049
1.30763
0.00865071
-0.0115688
-1.55891
1.56183
0.0142944
-0.0168306
-1.55742
1.55995
0.0188004
-0.0206125
-1.30149
1.3033
0.0219712
-0.0232315
-1.09137
1.09263
0.0242838
-0.0253718
-0.918442
0.91953
0.026311
-0.0272545
-0.777139
0.778083
0.0278696
-0.0277666
-0.658136
0.658033
0.0264167
-0.0228889
-0.529657
0.526129
0.0179008
-0.0117068
-0.351012
0.344818
0.00674482
-0.00279805
-0.163198
0.159251
0.00073681
-0.0268032
0.0260664
-0.0295066
0.0292698
0.000236812
-0.00288768
0.00543043
-0.237782
0.23524
-0.00882337
0.0115671
-0.412856
0.410112
-0.0132583
0.013406
-0.553978
0.55383
-0.0124152
0.0109096
-0.664492
0.665997
-0.00893372
0.00695854
-0.782452
0.784427
-0.00462984
0.00236675
-0.926131
0.928394
0.000257894
-0.00277517
-1.10017
1.10269
0.00565758
-0.00838394
-1.31029
1.31302
0.0114475
-0.0142779
-1.56465
1.56748
0.016875
-0.0192409
-1.56235
1.56472
0.0210388
-0.0226473
-1.30503
1.30664
0.0238047
-0.0248435
-1.09399
1.09503
0.0257112
-0.0266159
-0.920498
0.921403
0.0274012
-0.0281789
-0.778881
0.779659
0.0285083
-0.0280834
-0.657788
0.657363
0.0262703
-0.0223022
-0.522403
0.518435
0.0171793
-0.011137
-0.338728
0.332686
0.00641047
-0.00267291
-0.155434
0.151696
0.000710099
-0.0253502
0.0246401
-0.0290927
0.0289609
0.000131828
-0.0019901
0.00393233
-0.233021
0.231079
-0.00665985
0.00897778
-0.407613
0.405295
-0.0104889
0.010627
-0.553766
0.553628
-0.00963527
0.008123
-0.667607
0.669119
-0.00607999
0.00401706
-0.786402
0.788465
-0.00158452
-0.000769873
-0.930567
0.932922
0.00348542
-0.00607237
-1.10512
1.10771
0.00901005
-0.0117589
-1.31567
1.31842
0.0148047
-0.0175681
-1.57023
1.57299
0.0200511
-0.0222576
-1.56694
1.56915
0.0238914
-0.0252981
-1.30816
1.30956
0.0262487
-0.0270576
-1.09619
1.097
0.0277279
-0.0284352
-0.922181
0.922888
0.0290652
-0.0297035
-0.780268
0.780906
0.0296925
-0.0288603
-0.656752
0.65592
0.0265751
-0.0221653
-0.514287
0.509878
0.0168756
-0.0108843
-0.326704
0.320712
0.00627197
-0.00263053
-0.148031
0.144389
0.000704992
-0.0239399
0.0232349
-0.0288893
0.0288637
2.5659e-05
-0.00111186
0.00246613
-0.229453
0.228099
-0.00451227
0.00633947
-0.403256
0.401429
-0.00756689
0.00761354
-0.553634
0.553587
-0.00657322
0.00501478
-0.670775
0.672334
-0.0028635
0.000678482
-0.790528
0.792713
0.00189869
-0.00438407
-0.935187
0.937672
0.00723612
-0.00993481
-1.11022
1.11292
0.0129723
-0.0157817
-1.32111
1.32392
0.0188474
-0.0215728
-1.57568
1.5784
0.0239601
-0.0260154
-1.57121
1.57327
0.0274851
-0.0286875
-1.31087
1.31208
0.0294321
-0.0300092
-1.09797
1.09855
0.0304778
-0.0309759
-0.923465
0.923963
0.0314259
-0.0318122
-0.781286
0.781672
0.0315106
-0.0301944
-0.654894
0.653578
0.0273949
-0.0225023
-0.505284
0.500391
0.0169797
-0.0109223
-0.314728
0.308671
0.00630796
-0.00266126
-0.14077
0.137123
0.00071898
-0.0225307
0.0218117
-0.0288989
0.0289827
-8.38045e-05
-0.000205644
0.000962424
-0.227061
0.226305
-0.00229677
0.0035667
-0.399914
0.398644
-0.0044087
0.00427937
-0.553755
0.553884
-0.00313286
0.00147037
-0.674085
0.675748
0.000826151
-0.00317668
-0.7949
0.797251
0.00594882
-0.00861166
-0.940069
0.942732
0.0116504
-0.0145053
-1.11555
1.1184
0.0176895
-0.0205992
-1.32668
1.32959
0.0237223
-0.0264352
-1.58106
1.58377
0.0287428
-0.0306517
-1.57517
1.57707
0.0319545
-0.0329467
-1.31317
1.31416
0.0334793
-0.0338176
-1.0993
1.09964
0.0340741
-0.0343529
-0.924321
0.9246
0.0346008
-0.0346662
-0.781738
0.781803
0.0340331
-0.0321505
-0.652065
0.650182
0.028776
-0.0233315
-0.495299
0.489855
0.0174854
-0.0112335
-0.302563
0.296311
0.00650384
-0.00275792
-0.133453
0.129707
0.000749934
-0.0210853
0.0203353
-0.0291391
0.0293534
-0.0002143
0.000749788
-0.000640504
-0.225873
0.225764
6.83743e-05
0.00056931
-0.397717
0.397079
-0.00092003
0.000522207
-0.554314
0.554712
0.000803665
-0.00263175
-0.67766
0.679488
0.00513118
-0.00769684
-0.799604
0.80217
0.010719
-0.0136103
-0.945309
0.948201
0.0168925
-0.0199549
-1.1212
1.12426
0.023338
-0.0263889
-1.33245
1.3355
0.029604
-0.0323256
-1.58641
1.58913
0.0345622
-0.0363262
-1.57882
1.58058
0.0374623
-0.0382404
-1.31501
1.31579
0.0385519
-0.038631
-1.10014
1.10022
0.0386562
-0.0387007
-0.924717
0.924762
0.0387573
-0.0384046
-0.781527
0.781174
0.0373544
-0.0348172
-0.648113
0.645576
0.0307798
-0.024679
-0.484177
0.478076
0.0183925
-0.0118049
-0.289942
0.283355
0.00684699
-0.00291342
-0.125894
0.12196
0.000795487
-0.0195707
0.0187752
-0.0296426
0.0300024
-0.000359812
0.00181136
-0.00233291
-0.225986
0.226508
0.00261892
-0.00272803
-0.39681
0.396919
0.00301643
-0.00379292
-0.555531
0.556308
0.00535951
-0.00741661
-0.681624
0.683681
0.0101912
-0.0130361
-0.804737
0.807582
0.0163768
-0.019559
-0.951011
0.954193
0.0231519
-0.0264795
-1.12728
1.1306
0.0301193
-0.0333578
-1.33852
1.34176
0.0367059
-0.0394596
-1.59179
1.59454
0.0416298
-0.0432369
-1.58215
1.58376
0.0441864
-0.0447422
-1.31638
1.31694
0.0448255
-0.0446257
-1.10046
1.10026
0.0443998
-0.0441951
-0.924597
0.924392
0.0440243
-0.0431617
-0.78047
0.779608
0.0416034
-0.0382939
-0.642859
0.63955
0.033472
-0.0265715
-0.471692
0.464792
0.0197017
-0.012625
-0.27658
0.269503
0.00732539
-0.0031207
-0.117918
0.113714
0.000853232
-0.0179589
0.0171057
-0.0304359
0.0309744
-0.000538527
0.00310332
-0.0044091
-0.227452
0.228758
0.0055907
-0.00650103
-0.397395
0.398305
0.00753038
-0.00879797
-0.557643
0.558911
0.0107273
-0.0130947
-0.686114
0.688481
0.0162308
-0.019431
-0.810425
0.813625
0.023171
-0.0267156
-0.957304
0.960849
0.0306929
-0.0343477
-1.1339
1.13755
0.0383029
-0.0417699
-1.34497
1.34844
0.0452785
-0.0480713
-1.59723
1.60002
0.0501664
-0.051598
-1.58515
1.58658
0.0523426
-0.0526662
-1.31724
1.31757
0.0525011
-0.0519985
-1.1002
1.09969
0.0515065
-0.0510371
-0.92392
0.923451
0.0505068
-0.0491807
-0.778482
0.777156
0.0469384
-0.0426896
-0.636046
0.631797
0.0369175
-0.0290302
-0.45754
0.449652
0.0214071
-0.0136753
-0.262162
0.254431
0.00792158
-0.0033695
-0.109363
0.104811
0.00091959
-0.0162273
0.0153078
-0.0315928
0.0323591
-0.000766231
0.00464104
-0.00684112
-0.230501
0.232702
0.00910993
-0.0109452
-0.399691
0.401526
0.0128264
-0.0147029
-0.560899
0.562776
0.0171324
-0.019906
-0.691297
0.694071
0.0235167
-0.0271588
-0.816825
0.820467
0.0313909
-0.0353799
-0.964334
0.968323
0.0398264
-0.0438759
-1.14119
1.14523
0.0482049
-0.0519363
-1.35188
1.35561
0.0556241
-0.0584531
-1.60273
1.60556
0.0604526
-0.061675
-1.58777
1.58899
0.0621765
-0.0622385
-1.31752
1.31758
0.0618017
-0.0609647
-1.09931
1.09847
0.0601803
-0.0594287
-0.922633
0.921881
0.0584398
-0.0565452
-0.775596
0.773701
0.0534858
-0.0480879
-0.627337
0.621939
0.0411511
-0.0320438
-0.441327
0.432219
0.0234733
-0.0149152
-0.246355
0.237797
0.00860301
-0.00364218
-0.100081
0.0951204
0.0009887
-0.0143611
0.0133724
-0.0332022
0.0342646
-0.00106243
0.00656831
-0.00986087
-0.235364
0.238657
0.0133908
-0.0162996
-0.403968
0.406876
0.0191709
-0.0217842
-0.565581
0.568194
0.0248597
-0.0281769
-0.697381
0.700699
0.0323956
-0.0365932
-0.824116
0.828314
0.0414328
-0.0459613
-0.972268
0.976797
0.0509659
-0.0554731
-1.14927
1.15378
0.0602218
-0.0642353
-1.35931
1.36332
0.0680923
-0.0709224
-1.60829
1.61112
0.0727767
-0.0737334
-1.58994
1.5909
0.0739323
-0.0736865
-1.3171
1.31685
0.0729641
-0.0717564
-1.09773
1.09652
0.0706617
-0.0696166
-0.920723
0.919678
0.0680647
-0.0654791
-0.771615
0.76903
0.0613918
-0.0545511
-0.616283
0.609443
0.0461688
-0.0355573
-0.422571
0.411959
0.0258251
-0.0162736
-0.228818
0.219267
0.00931776
-0.00391257
-0.0899621
0.0845569
0.00105237
-0.0123584
0.0113061
-0.0353921
0.0368672
-0.00147504
0.00909709
-0.0137536
-0.242391
0.247048
0.018784
-0.0229348
-0.410594
0.414745
0.026956
-0.0304627
-0.572017
0.575523
0.0343721
-0.0383979
-0.704659
0.708684
0.0434028
-0.0483001
-0.832522
0.837419
0.053879
-0.0590441
-0.981301
0.986466
0.0646859
-0.0696925
-1.15828
1.16328
0.0748672
-0.0791299
-1.36727
1.37154
0.0830804
-0.0858147
-1.61379
1.61652
0.0874239
-0.0880223
-1.59152
1.59211
0.0878654
-0.0872534
-1.3159
1.31529
0.0861937
-0.0846053
-1.09538
1.09379
0.0831947
-0.081691
-0.918113
0.916609
0.0796377
-0.0760944
-0.766219
0.762676
0.0707053
-0.0620455
-0.602278
0.593618
0.0518668
-0.0394214
-0.400692
0.388246
0.0283101
-0.0176276
-0.209232
0.198549
0.00998391
-0.00414241
-0.078954
0.0731125
0.00109945
-0.0102352
0.00913578
-0.0383677
0.0404275
-0.00205977
0.0126136
-0.0189976
-0.25209
0.258474
0.0258263
-0.0314214
-0.420063
0.425658
0.0367967
-0.0413934
-0.580602
0.585198
0.0463445
-0.0512891
-0.713481
0.718426
0.0573058
-0.0630627
-0.842324
0.848081
0.0695104
-0.0753891
-0.99162
0.997498
0.081704
-0.0871934
-1.16825
1.17374
0.092724
-0.0971334
-1.37567
1.38008
0.101033
-0.103518
-1.61901
1.62149
0.104731
-0.104827
-1.59229
1.59238
0.104223
-0.103119
-1.31384
1.31273
0.101684
-0.0997178
-1.09222
1.09025
0.0979656
-0.0958877
-0.914448
0.91237
0.0932622
-0.0884716
-0.758845
0.754054
0.081387
-0.0704071
-0.584532
0.573552
0.0580001
-0.043361
-0.375038
0.360398
0.0306783
-0.018793
-0.187353
0.175468
0.0104869
-0.00428152
-0.0671037
0.0608983
0.00111602
-0.00803087
0.00691484
-0.042455
0.0454261
-0.00297107
0.0177042
-0.0263637
-0.265194
0.273853
0.035413
-0.0427452
-0.433045
0.440377
0.0497355
-0.0556443
-0.591829
0.597737
0.0619636
-0.0681435
-0.724286
0.730466
0.075383
-0.0821165
-0.853814
0.860548
0.0894936
-0.0960733
-1.00335
1.00993
0.102972
-0.108801
-1.17911
1.18494
0.114476
-0.118803
-1.38423
1.38856
0.122377
-0.124359
-1.62359
1.62557
0.124951
-0.124357
-1.59194
1.59135
0.123167
-0.121476
-1.31069
1.309
0.119647
-0.117265
-1.08818
1.0858
0.115091
-0.112437
-0.909489
0.906836
0.108963
-0.102481
-0.748847
0.742364
0.0931647
-0.0792384
-0.562006
0.548079
0.0641095
-0.0469304
-0.344928
0.327749
0.0325633
-0.0195267
-0.163107
0.150071
0.0106877
-0.0042742
-0.0545971
0.0481836
0.00108799
-0.00581184
0.00472385
-0.0482403
0.0527435
-0.00450314
0.025579
-0.0373163
-0.28288
0.294617
0.0492395
-0.0589033
-0.450603
0.460267
0.0679419
-0.0754427
-0.606285
0.613786
0.0834097
-0.0911086
-0.737506
0.745205
0.0996336
-0.107287
-0.867201
0.874855
0.11543
-0.122478
-1.01638
1.02343
0.129627
-0.135445
-1.19047
1.19629
0.140845
-0.144699
-1.39242
1.39628
0.147524
-0.148644
-1.62698
1.6281
0.148316
-0.146786
-1.59009
1.58856
0.144835
-0.142457
-1.30626
1.30388
0.14016
-0.137334
-1.08313
1.0803
0.134655
-0.131361
-0.903158
0.899863
0.126608
-0.117744
-0.73522
0.726356
0.10545
-0.0878237
-0.533385
0.515759
0.0694671
-0.0495104
-0.309778
0.289821
0.0335076
-0.0195592
-0.136717
0.122769
0.0104464
-0.00406932
-0.0417965
0.0354194
0.00100222
-0.00366954
0.00266733
-0.0568199
0.0644902
-0.00767031
0.0393218
-0.0555861
-0.307322
0.323586
0.0715649
-0.0844243
-0.47437
0.48723
0.0956289
-0.1046
-0.624465
0.633436
0.114173
-0.123233
-0.753452
0.762512
0.132789
-0.140915
-0.882205
0.890332
0.149199
-0.156086
-1.03006
1.03695
0.162803
-0.16798
-1.2015
1.20667
0.172465
-0.175267
-1.39936
1.40216
0.176791
-0.176577
-1.62838
1.62817
0.17494
-0.172185
-1.58622
1.58347
0.16927
-0.166059
-1.30031
1.2971
0.163194
-0.159865
-1.07692
1.07359
0.156618
-0.152297
-0.89504
0.890718
0.145665
-0.133406
-0.716432
0.704173
0.117093
-0.0949353
-0.497032
0.474875
0.0730849
-0.0504441
-0.269336
0.246696
0.0331319
-0.0187358
-0.108866
0.0944702
0.00970273
-0.00364729
-0.0292462
0.0231908
0.000847386
-0.00171091
0.000863523
-0.0716126
0.075905
-0.0042924
0.0300195
-0.0442552
-0.342512
0.356748
0.0585648
-0.0704263
-0.505743
0.517604
0.0811351
-0.0912315
-0.646108
0.656204
0.102648
-0.113256
-0.770951
0.781559
0.125107
-0.135662
-0.897423
0.907978
0.146969
-0.157108
-1.04294
1.05307
0.167855
-0.177222
-1.21081
1.22018
0.186773
-0.194651
-1.40385
1.41173
0.202076
-0.207435
-1.62684
1.6322
0.210735
-0.212619
-1.57969
1.58157
0.213256
-0.213421
-1.29252
1.29268
0.213586
-0.212926
-1.06917
1.06851
0.21141
-0.206752
-0.883961
0.879303
0.196775
-0.17729
-0.690239
0.670754
0.151437
-0.118131
-0.451495
0.418189
0.0874325
-0.0575827
-0.224081
0.194231
0.0362894
-0.019666
-0.080831
0.0642075
0.00973121
-0.00343764
-0.0176079
0.0113143
0.000718064
-2.57916e-06
-0.000715485
-0.0834946
0.0815562
0.00193844
0.00810307
-0.0173699
-0.373768
0.383035
0.0282818
-0.0369113
-0.534192
0.542822
0.045665
-0.0540876
-0.669081
0.677504
0.0644938
-0.0743329
-0.791607
0.801446
0.0849419
-0.0946502
-0.917903
0.927611
0.105038
-0.114008
-1.06293
1.0719
0.123711
-0.131805
-1.22935
1.23744
0.140045
-0.146611
-1.41932
1.42589
0.152407
-0.15642
-1.63692
1.64093
0.158541
-0.15934
-1.58301
1.58381
0.158859
-0.157894
-1.29182
1.29085
0.157039
-0.155828
-1.06543
1.06422
0.153442
-0.147157
-0.869788
0.863503
0.136014
-0.117379
-0.647218
0.628583
0.0956159
-0.0703759
-0.38292
0.35768
0.0494752
-0.0312069
-0.165211
0.146942
0.0190393
-0.0100527
-0.0487396
0.0397531
0.00484293
-0.00166284
-0.00525138
0.0020713
0.000317936
0.00164569
-0.00196363
-0.0850217
0.082064
0.00295771
-0.00104318
-0.00429769
-0.395067
0.400408
0.0115736
-0.0179495
-0.555417
0.561793
0.0244586
-0.0317178
-0.688565
0.695824
0.0407697
-0.0493103
-0.81027
0.81881
0.0587299
-0.0671902
-0.936472
0.944933
0.0760002
-0.0839984
-1.0807
1.0887
0.0924463
-0.0995967
-1.24511
1.25226
0.106441
-0.111742
-1.43183
1.43713
0.116473
-0.119348
-1.64438
1.64725
0.120402
-0.120219
-1.58414
1.58396
0.119001
-0.117416
-1.28925
1.28767
0.115583
-0.113555
-1.06001
1.05798
0.11048
-0.103757
-0.853319
0.846596
0.093202
-0.0770746
-0.607046
0.590919
0.0601583
-0.0423584
-0.330897
0.313098
0.0291661
-0.0184282
-0.128659
0.117921
0.0114446
-0.00627173
-0.0308573
0.0256845
0.00315247
-0.00114556
0.00133333
-0.00334024
0.000241453
0.00249449
-0.00273594
-0.0837487
0.0808662
0.00288252
-0.00505565
0.00238205
-0.409284
0.411958
0.00235306
-0.00718339
-0.57128
0.57611
0.0126493
-0.0187236
-0.704583
0.710657
0.0264874
-0.0338042
-0.826601
0.833918
0.0418312
-0.0490663
-0.95279
0.960025
0.0569904
-0.063763
-1.09622
1.103
0.0710961
-0.0768366
-1.25897
1.26471
0.0826414
-0.087021
-1.44218
1.44656
0.0905806
-0.0922267
-1.64972
1.65137
0.0925309
-0.091692
-1.58327
1.58243
0.0899365
-0.0873858
-1.28551
1.28296
0.0849198
-0.082067
-1.05329
1.05044
0.0783407
-0.0721315
-0.835871
0.829662
0.0628158
-0.0502048
-0.572388
0.559777
0.0381666
-0.0267911
-0.294405
0.283029
0.0188957
-0.0126242
-0.10655
0.100279
0.00839604
-0.00503512
-0.0199241
0.0165632
0.00276448
-0.00111893
0.00580877
-0.00745431
0.000275843
0.00316402
-0.00343986
-0.0821449
0.0795573
0.00258765
-0.00650139
0.00551265
-0.418796
0.419784
-0.00197213
-0.00162096
-0.583967
0.58756
0.00595891
-0.0114218
-0.718007
0.72347
0.0179239
-0.0243149
-0.840431
0.846822
0.0312261
-0.0374722
-0.966748
0.972994
0.0442254
-0.0501752
-1.10959
1.11554
0.0563202
-0.061433
-1.27025
1.27536
0.0662627
-0.0697691
-1.45049
1.454
0.072378
-0.0731709
-1.65279
1.65358
0.0726852
-0.0708901
-1.58084
1.57904
0.0685194
-0.0654616
-1.28005
1.27699
0.0623654
-0.058605
-1.04546
1.0417
0.0545824
-0.0488275
-0.819323
0.813568
0.0413895
-0.032063
-0.545086
0.53576
0.0240702
-0.0172089
-0.270422
0.263561
0.0126774
-0.00917143
-0.0931575
0.0896515
0.00663385
-0.00434853
-0.012536
0.0102507
0.00260604
-0.0011496
0.00951172
-0.0109682
0.000320056
0.00385678
-0.00417684
-0.0805798
0.0783295
0.00225032
-0.00664779
0.00624825
-0.425247
0.425647
-0.00415785
0.00126527
-0.593712
0.596605
0.00290462
-0.00754916
-0.729313
0.733957
0.013086
-0.0185778
-0.852329
0.85782
0.0246479
-0.0301612
-0.97883
0.984343
0.0362399
-0.0413637
-1.12115
1.12627
0.0467429
-0.0511692
-1.2801
1.28453
0.0551966
-0.0579689
-1.45712
1.45989
0.0597349
-0.0601308
-1.65415
1.65455
0.0588792
-0.0565209
-1.57665
1.57429
0.053519
-0.0497833
-1.27342
1.26968
0.0463136
-0.0417822
-1.03645
1.03191
0.0373211
-0.0320613
-0.804063
0.798803
0.0260146
-0.0192207
-0.524458
0.517665
0.0141242
-0.0103031
-0.25539
0.251569
0.00816407
-0.00650922
-0.0851888
0.0835339
0.00513117
-0.00370586
-0.00735075
0.00592544
0.00240956
-0.00116557
0.0127355
-0.0139795
0.000357573
0.00458542
-0.00494299
-0.0792926
0.0774963
0.00179633
-0.00596569
0.00599187
-0.429905
0.429879
-0.00432249
0.00218768
-0.602121
0.604255
0.00165093
-0.00581704
-0.739014
0.74318
0.0109826
-0.0156488
-0.862853
0.867519
0.0209013
-0.0257064
-0.989766
0.994572
0.0313405
-0.0358622
-1.13136
1.13589
0.0404813
-0.0444455
-1.28868
1.29265
0.0482715
-0.0504909
-1.46256
1.46478
0.0517838
-0.0515016
-1.65438
1.6541
0.0499691
-0.0467552
-1.57151
1.56829
0.0433937
-0.0392337
-1.26544
1.26128
0.0350808
-0.030187
-1.02637
1.02148
0.0252973
-0.0200798
-0.789964
0.784747
0.0152098
-0.0100582
-0.508873
0.503721
0.00682939
-0.0051091
-0.246226
0.244506
0.00436343
-0.00388129
-0.0808057
0.0803236
0.00339285
-0.00271703
-0.00398993
0.00331411
0.00191785
-0.00101436
0.0153726
-0.0162761
0.00034703
0.00531049
-0.00565752
-0.0784677
0.0770309
0.00143684
-0.00501728
0.00526417
-0.433424
0.433177
-0.00380684
0.00183616
-0.609306
0.611277
0.00173652
-0.00543571
-0.747601
0.7513
0.00978817
-0.0141954
-0.872099
0.876506
0.018951
-0.0237839
-0.999116
1.00395
0.0285155
-0.0326786
-1.14045
1.14461
0.0372083
-0.0406887
-1.29639
1.29987
0.0436977
-0.0459645
-1.46677
1.46904
0.046935
-0.0463806
-1.65371
1.65315
0.0443531
-0.0409643
-1.56504
1.56165
0.0372092
-0.0325616
-1.25645
1.2518
0.0280319
-0.0226372
-1.01561
1.01021
0.0174403
-0.0123148
-0.776467
0.771342
0.00773877
-0.00374895
-0.496597
0.492607
0.00168184
-0.000946258
-0.24087
0.240135
0.000977472
-0.00128885
-0.0788943
0.0792057
0.00144518
-0.00144338
-0.00228498
0.00228318
0.00117977
-0.000710009
0.0171766
-0.0176463
0.000278899
0.00593873
-0.00621763
-0.0781619
0.0769375
0.0012244
-0.00380275
0.00386542
-0.436407
0.436345
-0.00267681
0.000785665
-0.61576
0.617651
0.00248181
-0.00600248
-0.755462
0.758982
0.0100936
-0.0140091
-0.880681
0.884597
0.0187861
-0.0226984
-1.00813
1.01204
0.0272612
-0.0310992
-1.14887
1.15271
0.035314
-0.0387706
-1.30323
1.30669
0.0417905
-0.0435099
-1.47093
1.47265
0.0443816
-0.0437159
-1.65234
1.65168
0.0417609
-0.0380104
-1.55791
1.55416
0.0340503
-0.0290827
-1.24694
1.24197
0.0242771
-0.0184863
-1.00392
0.998132
0.0131487
-0.00774503
-0.763391
0.757987
0.00349709
-1.69976e-05
-0.486469
0.482989
-0.00170271
0.00192572
-0.237401
0.237178
-0.00155786
0.000862554
-0.0785501
0.0792454
-0.000277782
-0.000241951
-0.00198261
0.00250235
0.000430338
-0.000380348
0.0179977
-0.0180477
0.000181984
0.00635584
-0.00653782
-0.0781314
0.077242
0.000889369
-0.00268303
0.00229786
-0.439352
0.439737
-0.00131767
-0.000604114
-0.621364
0.623286
0.00350177
-0.00683975
-0.762667
0.766005
0.0106926
-0.0146736
-0.888358
0.892339
0.0187339
-0.022724
-1.01611
1.0201
0.0271321
-0.0306294
-1.15692
1.16041
0.0347786
-0.0380126
-1.30985
1.31309
0.0408461
-0.0428374
-1.47467
1.47666
0.0438339
-0.0430262
-1.65088
1.65008
0.0408117
-0.0372447
-1.55038
1.54681
0.033332
-0.0281743
-1.23661
1.23146
0.0231182
-0.0173812
-0.991774
0.986037
0.011534
-0.0060539
-0.750274
0.744794
0.00186469
0.00145336
-0.477387
0.474069
-0.00306595
0.00345769
-0.234807
0.234415
-0.00307045
0.00232243
-0.0790159
0.0797639
-0.00154899
0.00075029
-0.00269025
0.00348895
-0.000242054
-4.30654e-05
0.0179705
-0.0176853
7.47264e-05
0.00654565
-0.00662038
-0.0785121
0.0777997
0.000712373
-0.00171974
0.00138488
-0.44243
0.442765
8.82286e-05
-0.0018347
-0.62696
0.628707
0.00487341
-0.0080432
-0.769263
0.772433
0.0116959
-0.0152163
-0.895968
0.899488
0.0193387
-0.0229366
-1.02405
1.02764
0.0271992
-0.0310481
-1.16432
1.16817
0.0346986
-0.0381242
-1.31629
1.31972
0.0412004
-0.043066
-1.47843
1.4803
0.0441419
-0.0437753
-1.64934
1.64898
0.0416281
-0.0382577
-1.54292
1.53955
0.0341745
-0.0290848
-1.22614
1.22105
0.0241198
-0.0182081
-0.979519
0.973607
0.0124635
-0.00668937
-0.737325
0.731551
0.00233973
0.00112089
-0.46836
0.4649
-0.00294304
0.00365406
-0.23219
0.231479
-0.00362558
0.00303827
-0.0796026
0.0801899
-0.00230042
0.00141709
-0.00393828
0.00482161
-0.000746127
0.000235797
0.0172962
-0.0167858
-2.41149e-05
0.00652794
-0.00650383
-0.0791967
0.0786638
0.000532913
-0.000640657
0.0001321
-0.445622
0.44613
0.00118501
-0.0032223
-0.632097
0.634134
0.0061728
-0.00916017
-0.775536
0.778524
0.0128697
-0.0162026
-0.90297
0.906303
0.0201139
-0.0237813
-1.03169
1.03536
0.027881
-0.0316177
-1.17181
1.17555
0.0353958
-0.0387421
-1.32299
1.32634
0.0418576
-0.0443182
-1.48236
1.48482
0.0456081
-0.0452723
-1.64841
1.64807
0.0435082
-0.0401226
-1.53591
1.53252
0.0363115
-0.0315001
-1.21574
1.21093
0.0263751
-0.0205027
-0.967166
0.961294
0.014792
-0.00878737
-0.724382
0.718378
0.00423156
-0.00037197
-0.45934
0.455481
-0.00175361
0.0029542
-0.229016
0.227816
-0.00326317
0.0029923
-0.0798077
0.0800786
-0.00245808
0.00167208
-0.00530599
0.00609199
-0.000991987
0.000395734
0.0162303
-0.015634
-8.07532e-05
0.00633603
-0.00625528