/*--------------------------------*- C++ -*----------------------------------*\
  =========                 |
  \\      /  F ield         | OpenFOAM: The Open Source CFD Toolbox
   \\    /   O peration     | Website:  https://openfoam.org
    \\  /    A nd           | Version:  6
     \\/     M anipulation  |
\*---------------------------------------------------------------------------*/
FoamFile
{
    version     2.0;
    format      ascii;
    class       volScalarField;
    location    "63";
    object      p;
}
// * * * * * * * * * * * * * * * * * * * * * * * * * * * * * * * * * * * * * //

dimensions      [0 2 -2 0 0 0 0];

internalField   nonuniform List<scalar> 
8800
(
0.905201
0.855884
0.817916
0.789842
0.769674
0.755078
0.744465
0.736905
0.731992
0.729887
0.731218
0.735529
0.742299
0.751704
0.764429
0.781742
0.805614
0.838708
0.881644
0.934157
0.7397
0.746044
0.755191
0.758736
0.756121
0.750024
0.743071
0.736811
0.731984
0.729082
0.728811
0.731402
0.736016
0.742124
0.74921
0.756234
0.761106
0.760978
0.7543
0.745399
0.713227
0.719461
0.723957
0.727822
0.730762
0.7317
0.730595
0.728451
0.726439
0.725561
0.726551
0.728969
0.73183
0.734082
0.73459
0.732793
0.729421
0.725404
0.72062
0.716904
0.708944
0.711708
0.714309
0.71646
0.718188
0.719743
0.720828
0.721155
0.721008
0.721064
0.721823
0.722927
0.723641
0.72347
0.722481
0.721116
0.71944
0.717133
0.714719
0.713153
0.703911
0.705335
0.707169
0.709242
0.710943
0.71222
0.713298
0.714249
0.715021
0.715709
0.716368
0.716786
0.716779
0.716392
0.715708
0.714581
0.712916
0.711016
0.709661
0.708858
0.698951
0.699853
0.701094
0.702711
0.704391
0.705906
0.707166
0.708256
0.709277
0.710239
0.710966
0.711308
0.711282
0.710887
0.710066
0.708864
0.707492
0.706219
0.705395
0.704871
0.694081
0.694736
0.69569
0.696997
0.698428
0.699925
0.701382
0.702709
0.703922
0.705063
0.705946
0.706385
0.706361
0.705893
0.70509
0.704132
0.703127
0.702215
0.701632
0.701248
0.689298
0.689802
0.690581
0.691708
0.692991
0.694385
0.695862
0.697361
0.698816
0.700197
0.701274
0.701818
0.701847
0.701488
0.700898
0.70019
0.699438
0.698766
0.698336
0.698037
0.68455
0.684951
0.685603
0.686609
0.687819
0.689158
0.690627
0.692218
0.693884
0.695543
0.696866
0.697595
0.697811
0.697678
0.697325
0.696836
0.696287
0.695808
0.695489
0.695247
0.679756
0.680083
0.680648
0.681575
0.682737
0.684063
0.685566
0.687256
0.689115
0.691067
0.692715
0.693743
0.69424
0.694367
0.69425
0.693984
0.693631
0.693312
0.693078
0.692875
0.67483
0.675101
0.675606
0.676487
0.677633
0.678985
0.680564
0.682395
0.684484
0.686778
0.688833
0.690248
0.691085
0.691507
0.691645
0.691605
0.691447
0.691271
0.691105
0.690929
0.669683
0.669912
0.670379
0.671243
0.672412
0.673833
0.675531
0.677558
0.679944
0.682663
0.685217
0.687095
0.688329
0.689089
0.689512
0.68971
0.689749
0.689702
0.689591
0.689435
0.664224
0.66442
0.664867
0.665745
0.666979
0.668513
0.670384
0.672676
0.675446
0.678695
0.681853
0.684282
0.685978
0.687124
0.687868
0.688318
0.688569
0.688645
0.68858
0.688438
0.658352
0.65852
0.658967
0.659887
0.661224
0.662923
0.665035
0.667673
0.670926
0.67483
0.678722
0.681809
0.684052
0.685642
0.686753
0.687505
0.687967
0.68816
0.688136
0.688002
0.651946
0.652092
0.652552
0.653543
0.65503
0.656955
0.659387
0.662469
0.66633
0.671038
0.675818
0.679692
0.68258
0.684692
0.68622
0.687303
0.688003
0.688321
0.688334
0.688204
0.644868
0.644991
0.645479
0.646573
0.64826
0.650482
0.653324
0.656966
0.66158
0.667273
0.673126
0.677941
0.681593
0.684321
0.68634
0.687804
0.688773
0.689218
0.689264
0.689135
0.63693
0.637034
0.637568
0.638799
0.640747
0.64335
0.646711
0.651055
0.6566
0.663492
0.67064
0.67658
0.681136
0.684588
0.687197
0.689106
0.690372
0.690951
0.691029
0.690896
0.627905
0.628009
0.628592
0.629996
0.632283
0.635368
0.639385
0.644608
0.651306
0.659664
0.668365
0.675639
0.681263
0.685566
0.688871
0.691299
0.692906
0.693627
0.693734
0.693594
0.617478
0.617568
0.618244
0.619882
0.622604
0.626306
0.631156
0.637484
0.645614
0.655759
0.666321
0.675168
0.682043
0.687349
0.691447
0.694492
0.696479
0.697349
0.697481
0.697331
0.605277
0.605353
0.606131
0.608082
0.611366
0.615865
0.621781
0.629513
0.639432
0.651761
0.664537
0.675218
0.683542
0.690015
0.695041
0.698788
0.701191
0.70221
0.702361
0.702198
0.590746
0.590815
0.591738
0.594102
0.598122
0.60367
0.610976
0.620503
0.632656
0.647641
0.663039
0.675845
0.685832
0.693634
0.699733
0.704269
0.707116
0.708275
0.708435
0.708255
0.573112
0.573174
0.574311
0.577261
0.582288
0.589248
0.598402
0.610265
0.625233
0.643438
0.6619
0.67713
0.688985
0.698291
0.705567
0.710985
0.714279
0.715555
0.715712
0.715511
0.551217
0.551283
0.552763
0.556588
0.563064
0.572013
0.5837
0.598652
0.617176
0.639249
0.661229
0.67916
0.693073
0.704031
0.712597
0.71893
0.72264
0.723989
0.724123
0.723902
0.523282
0.523378
0.525453
0.530691
0.539408
0.551287
0.566554
0.585629
0.608615
0.63526
0.661184
0.682036
0.698152
0.71086
0.720797
0.72803
0.732061
0.733413
0.733502
0.733261
0.486261
0.48648
0.489769
0.497613
0.510105
0.526491
0.546872
0.571365
0.599799
0.631697
0.661932
0.685874
0.704274
0.718776
0.730094
0.738101
0.742289
0.743548
0.743569
0.743312
0.434323
0.435407
0.441939
0.455164
0.474247
0.497599
0.525048
0.55638
0.59121
0.628925
0.663719
0.690809
0.711479
0.727691
0.740287
0.748854
0.752945
0.754006
0.753948
0.753682
0.359025
0.366412
0.381387
0.404477
0.433408
0.466088
0.502137
0.541301
0.583212
0.627252
0.666938
0.697395
0.720522
0.7386
0.75235
0.76121
0.765053
0.765896
0.765785
0.76555
0.278953
0.29509
0.319409
0.353127
0.392418
0.434592
0.479305
0.526478
0.575845
0.626858
0.672315
0.706933
0.733055
0.753321
0.768288
0.777115
0.780425
0.781007
0.780921
0.780776
0.210363
0.230082
0.262208
0.305094
0.35362
0.404727
0.457866
0.512909
0.569581
0.627343
0.678244
0.716718
0.745586
0.767703
0.783443
0.791961
0.794789
0.795265
0.795235
0.795143
0.154235
0.176171
0.213672
0.263128
0.318889
0.377504
0.438123
0.500441
0.564008
0.628173
0.684235
0.726313
0.757684
0.781436
0.797915
0.806498
0.809186
0.809639
0.809639
0.809576
0.107722
0.13098
0.172377
0.226977
0.288538
0.353355
0.420366
0.489111
0.558961
0.629135
0.690148
0.735705
0.769475
0.794886
0.812251
0.821107
0.823913
0.824345
0.824364
0.824323
0.0682044
0.0922568
0.136535
0.19532
0.26177
0.331874
0.404421
0.478889
0.554511
0.630311
0.69603
0.744955
0.781086
0.808123
0.826502
0.835858
0.838831
0.83929
0.839323
0.839302
0.0336534
0.0582409
0.104777
0.167031
0.237665
0.312398
0.38989
0.469544
0.550469
0.631538
0.701741
0.753917
0.792372
0.821007
0.840394
0.850342
0.853567
0.854076
0.85412
0.854112
0.00257677
0.0276082
0.0760092
0.141223
0.215491
0.294297
0.376229
0.460623
0.546495
0.632611
0.707121
0.76243
0.803088
0.833293
0.853639
0.864119
0.867637
0.868238
0.868286
0.868282
-0.0260363
-0.000593254
0.0494025
0.117194
0.194649
0.277063
0.363011
0.451794
0.542355
0.633288
0.711994
0.770305
0.813078
0.844712
0.865964
0.876971
0.880744
0.881454
0.881484
0.881474
-0.0529882
-0.0270974
0.024333
0.0944375
0.17471
0.260352
0.349951
0.442795
0.537765
0.63335
0.716184
0.777468
0.822263
0.855259
0.877287
0.888686
0.892662
0.893428
0.893441
0.893417
-0.0786698
-0.052344
0.000413802
0.0725777
0.155365
0.243906
0.336817
0.433406
0.532551
0.63268
0.719617
0.783874
0.830645
0.864879
0.88755
0.89921
0.903302
0.90409
0.904076
0.904031
-0.103509
-0.0766658
-0.02268
0.0513477
0.136387
0.227533
0.323461
0.423515
0.526609
0.631156
0.722227
0.789519
0.838273
0.873649
0.896813
0.908609
0.912697
0.913479
0.913434
0.913368
-0.12764
-0.100272
-0.0451247
0.0305864
0.117641
0.211134
0.309808
0.413052
0.51985
0.628698
0.723967
0.794426
0.845236
0.881707
0.905216
0.916976
0.921009
0.921751
0.921686
0.921599
-0.151185
-0.123266
-0.0670338
0.0102091
0.099069
0.194663
0.295815
0.401973
0.512232
0.625246
0.724782
0.798618
0.851639
0.889207
0.912935
0.924516
0.92838
0.929042
0.928949
0.928845
-0.174241
-0.145752
-0.0884524
-0.00981876
0.0806392
0.178112
0.281486
0.390292
0.503751
0.620753
0.724609
0.802094
0.857596
0.896342
0.920151
0.931353
0.934925
0.935468
0.935334
0.935215
-0.196859
-0.167723
-0.109393
-0.029498
0.062378
0.161505
0.266862
0.378041
0.494422
0.615186
0.723386
0.804813
0.863194
0.903319
0.927079
0.937646
0.940737
0.941092
0.940924
0.940799
-0.218894
-0.189145
-0.129834
-0.0488138
0.0443156
0.144903
0.251996
0.365285
0.484292
0.608554
0.721041
0.806693
0.868445
0.910361
0.934071
0.943661
0.945958
0.946013
0.945809
0.945691
-0.240317
-0.209981
-0.149758
-0.0677281
0.0265028
0.12836
0.236973
0.352095
0.473433
0.60087
0.717512
0.807613
0.873277
0.917617
0.941595
0.949952
0.950911
0.950339
0.95007
0.950008
-0.261183
-0.230202
-0.169142
-0.086209
0.00899863
0.111958
0.221879
0.338568
0.461929
0.592185
0.712733
0.807441
0.877506
0.925036
0.9501
0.957474
0.956496
0.954471
0.953823
0.954022
-0.281337
-0.24978
-0.187931
-0.104192
-0.00813912
0.0957803
0.206809
0.324811
0.449889
0.582587
0.706665
0.806011
0.880866
0.932266
0.959626
0.967322
0.964758
0.960182
0.957284
0.956061
-0.300872
-0.268717
-0.206129
-0.121708
-0.0249448
0.0797874
0.191712
0.310766
0.437243
0.572011
0.699152
0.80307
0.883105
0.938793
0.969567
0.979778
0.977875
0.97082
0.961182
0.961422
-0.319702
-0.287082
-0.223871
-0.138954
-0.0417125
0.0636479
0.176172
0.29595
0.423447
0.55983
0.689535
0.797853
0.883769
0.944002
0.978344
0.992704
0.992263
0.98132
0.962949
0.960785
-0.337692
-0.304835
-0.240989
-0.155739
-0.0581779
0.0476639
0.160397
0.280683
0.408791
0.54628
0.677857
0.789679
0.882026
0.946707
0.981843
0.996594
0.998382
0.973379
0.915482
0.890382
-0.354719
-0.322835
-0.257082
-0.171613
-0.0735756
0.0323155
0.144667
0.26524
0.393554
0.531531
0.664181
0.777949
0.876825
0.945996
0.975307
0.984851
0.972152
0.920964
0.858958
0.821138
-0.397859
-0.340344
-0.271897
-0.187437
-0.088655
0.01665
0.12912
0.249497
0.377534
0.515231
0.64811
0.762024
0.864284
0.938753
0.956547
0.944185
0.897167
0.832247
0.763338
0.725458
-0.373058
-0.354872
-0.29448
-0.209391
-0.111935
-0.00687515
0.104883
0.224577
0.351653
0.487884
0.619297
0.731149
0.825019
0.906743
0.8909
0.782828
0.69245
0.629651
0.565666
0.592675
-0.404121
-0.372587
-0.311358
-0.226759
-0.129647
-0.0247633
0.0871472
0.206162
0.332182
0.466606
0.595384
0.703678
0.786991
0.832822
0.781933
0.642817
0.534006
0.460655
0.378583
0.424153
-0.42827
-0.394287
-0.331286
-0.246607
-0.149561
-0.0447056
0.0670719
0.185274
0.309905
0.441898
0.566836
0.66917
0.74076
0.748772
0.642942
0.48806
0.359204
0.26693
0.171503
0.203047
-0.451811
-0.416738
-0.352326
-0.266969
-0.169842
-0.0651094
0.0461461
0.163368
0.286377
0.415527
0.535598
0.629902
0.684388
0.659702
0.502255
0.325486
0.165784
0.0320868
-0.0921195
-0.0790803
-0.475102
-0.439606
-0.374253
-0.288281
-0.191003
-0.0864856
0.0241072
0.140196
0.261292
0.38717
0.501527
0.587728
0.621483
0.551894
0.363938
0.167066
-0.0198988
-0.17368
-0.379164
-0.458132
-0.498826
-0.463351
-0.397427
-0.311007
-0.213553
-0.109206
0.000786943
0.115704
0.234753
0.357078
0.465296
0.542086
0.550559
0.429353
0.237886
0.028947
-0.163138
-0.325033
-0.448989
-0.567665
-0.524067
-0.488465
-0.42221
-0.335534
-0.238034
-0.133959
-0.0246651
0.0888981
0.205546
0.323751
0.42539
0.48948
0.470691
0.3131
0.12005
-0.0829451
-0.258333
-0.355768
-0.382017
-0.395508
-0.550953
-0.515241
-0.448738
-0.361961
-0.2646
-0.160971
-0.0526278
0.0592617
0.173047
0.286388
0.380953
0.427532
0.389659
0.201553
0.0104139
-0.172467
-0.305024
-0.342977
-0.351876
-0.352168
-0.579765
-0.543806
-0.477051
-0.390277
-0.293201
-0.190255
-0.0831304
0.0267332
0.137179
0.244942
0.331411
0.361985
0.293001
0.0997899
-0.085229
-0.244254
-0.318856
-0.332802
-0.33378
-0.333621
-0.610517
-0.574193
-0.507166
-0.420481
-0.323858
-0.221805
-0.116188
-0.00871193
0.0979464
0.199511
0.276603
0.292796
0.185756
0.0078356
-0.16721
-0.293469
-0.322609
-0.322999
-0.323351
-0.322884
-0.642951
-0.606233
-0.538984
-0.452493
-0.356486
-0.255572
-0.151778
-0.0470608
0.0553992
0.150223
0.217768
0.215095
0.0906253
-0.0766985
-0.23149
-0.303571
-0.318783
-0.316754
-0.316404
-0.315941
-0.676502
-0.639577
-0.572237
-0.486079
-0.390895
-0.291399
-0.189752
-0.0882004
0.00975513
0.0974548
0.155298
0.136619
0.00265655
-0.150641
-0.272829
-0.310533
-0.310591
-0.311672
-0.311662
-0.311326
-0.710726
-0.673687
-0.606434
-0.520814
-0.426725
-0.328958
-0.229826
-0.131856
-0.0387148
0.0420948
0.087769
0.0625758
-0.0777064
-0.208539
-0.295212
-0.304386
-0.307194
-0.308273
-0.308273
-0.30817
-0.744659
-0.707664
-0.640819
-0.556044
-0.46341
-0.367762
-0.271532
-0.177537
-0.0896217
-0.0150121
0.0200639
-0.0120668
-0.147562
-0.253788
-0.299586
-0.3111
-0.307188
-0.305523
-0.304961
-0.304871
-0.776386
-0.740193
-0.67434
-0.590858
-0.500151
-0.407087
-0.314199
-0.224513
-0.142199
-0.0734935
-0.0426589
-0.0899792
-0.207149
-0.298145
-0.317291
-0.31484
-0.308142
-0.302585
-0.300923
-0.300474
-0.804861
-0.769739
-0.705563
-0.624027
-0.535859
-0.445969
-0.356948
-0.27187
-0.195249
-0.132782
-0.104068
-0.156885
-0.254294
-0.332288
-0.352258
-0.332548
-0.314153
-0.304893
-0.301874
-0.300611
-0.827298
-0.794148
-0.732689
-0.65399
-0.569188
-0.483187
-0.398668
-0.318549
-0.247571
-0.190835
-0.165736
-0.206675
-0.281767
-0.341132
-0.342931
-0.341951
-0.340395
-0.33523
-0.330174
-0.327542
-0.841546
-0.811217
-0.753586
-0.678941
-0.598567
-0.517317
-0.437989
-0.36336
-0.298047
-0.245126
-0.221865
-0.246359
-0.282988
-0.329613
-0.330301
-0.349334
-0.364297
-0.363548
-0.359551
-0.358525
-0.844841
-0.818479
-0.766072
-0.696969
-0.62229
-0.546893
-0.473364
-0.404925
-0.34521
-0.295901
-0.267004
-0.285824
-0.26886
-0.288081
-0.305783
-0.327287
-0.339115
-0.344334
-0.347162
-0.348577
-0.834875
-0.81341
-0.767965
-0.706257
-0.638786
-0.570486
-0.503454
-0.441497
-0.387552
-0.34496
-0.299546
-0.327471
-0.29176
-0.230975
-0.282936
-0.323367
-0.342926
-0.353417
-0.358228
-0.359469
-0.808903
-0.793116
-0.757243
-0.705487
-0.646978
-0.586866
-0.527428
-0.471353
-0.424296
-0.389288
-0.345991
-0.378465
-0.410787
-0.390112
-0.417186
-0.41816
-0.414538
-0.414497
-0.414504
-0.414865
-0.770356
-0.760275
-0.73491
-0.694804
-0.646754
-0.595665
-0.544366
-0.49442
-0.452815
-0.425333
-0.40828
-0.449734
-0.584122
-0.710134
-0.652955
-0.549346
-0.495193
-0.468659
-0.46024
-0.458226
-0.726339
-0.720652
-0.705927
-0.677254
-0.639957
-0.597891
-0.553553
-0.510519
-0.471594
-0.449387
-0.434222
-0.486796
-0.526249
-0.611603
-0.496529
-0.408606
-0.406882
-0.409931
-0.404456
-0.400058
-0.687047
-0.683664
-0.67668
-0.658192
-0.629773
-0.594825
-0.556825
-0.517222
-0.48069
-0.452333
-0.433886
-0.407459
-0.283517
-0.179513
-0.213983
-0.305612
-0.357639
-0.325038
-0.30042
-0.304124
-0.658532
-0.656583
-0.652977
-0.641793
-0.619855
-0.589932
-0.555326
-0.517312
-0.479047
-0.442563
-0.431349
-0.384169
-0.324459
-0.286366
-0.281619
-0.384722
-0.458525
-0.466445
-0.429399
-0.416945
-0.637022
-0.636298
-0.635052
-0.629428
-0.612978
-0.586205
-0.551948
-0.513304
-0.469225
-0.432309
-0.40591
-0.366085
-0.287608
-0.265911
-0.286439
-0.316508
-0.423216
-0.490774
-0.495254
-0.48426
-0.624297
-0.624047
-0.623411
-0.620708
-0.609075
-0.583857
-0.548126
-0.504802
-0.457142
-0.402854
-0.35236
-0.311456
-0.273833
-0.327608
-0.466363
-0.574124
-0.605997
-0.518851
-0.418489
-0.370843
-0.615602
-0.6154
-0.614875
-0.614036
-0.60698
-0.583505
-0.544958
-0.496524
-0.439596
-0.363924
-0.290443
-0.166514
-0.0925359
-0.0799304
-0.0960337
-0.0898594
0.0211953
0.242528
0.409104
0.477401
-0.61093
-0.610732
-0.610283
-0.610081
-0.606442
-0.585846
-0.543675
-0.488483
-0.418444
-0.335552
-0.226655
-0.0801882
0.132402
0.368095
0.653652
0.934221
1.21163
1.43553
1.55589
1.59495
-0.607504
-0.608304
-0.61027
-0.612609
-0.611517
-0.59035
-0.543707
-0.483318
-0.40995
-0.310833
-0.192517
-0.0678439
0.169243
0.481995
0.924103
1.33556
1.6565
1.86108
1.9459
1.96674
-0.600561
-0.602105
-0.605034
-0.60893
-0.608975
-0.587281
-0.543924
-0.489637
-0.410631
-0.299778
-0.181628
-0.0557259
0.132048
0.464889
0.863351
1.21953
1.49227
1.64512
1.70497
1.71796
-0.610518
-0.610516
-0.602965
-0.583266
-0.566829
-0.563599
-0.549832
-0.506567
-0.419432
-0.305113
-0.18894
-0.0775082
0.0568776
0.325095
0.647155
0.92332
1.13026
1.23557
1.27448
1.28198
-0.653813
-0.650574
-0.634115
-0.597771
-0.567832
-0.576093
-0.587699
-0.534654
-0.432302
-0.318075
-0.206566
-0.10751
-0.0127287
0.183544
0.421326
0.618046
0.757103
0.824868
0.849592
0.852612
-0.736319
-0.736583
-0.747836
-0.765298
-0.762789
-0.748827
-0.69911
-0.581172
-0.448147
-0.330983
-0.223735
-0.145322
-0.0662604
0.0710642
0.226572
0.355592
0.442698
0.485331
0.500591
0.50255
-0.872988
-0.890053
-0.936978
-0.979601
-0.984585
-0.94285
-0.821778
-0.629696
-0.466254
-0.340839
-0.242161
-0.174341
-0.126606
-0.0202906
0.0811686
0.150889
0.192631
0.210244
0.216058
0.216829
-0.952219
-0.973943
-1.01229
-1.04312
-1.04572
-0.998669
-0.841378
-0.626916
-0.46547
-0.338795
-0.246196
-0.196968
-0.152738
-0.0936288
-0.0366661
-0.0156565
-0.00413754
-0.00373572
-0.000186285
0.00121457
-0.862798
-0.882304
-0.914997
-0.94501
-0.950579
-0.895037
-0.72787
-0.556663
-0.421506
-0.307731
-0.246944
-0.202329
-0.178025
-0.124765
-0.0989897
-0.0958831
-0.11341
-0.114036
-0.10818
-0.103865
-0.589318
-0.608825
-0.644101
-0.68233
-0.697596
-0.648146
-0.539605
-0.432408
-0.326339
-0.261648
-0.220346
-0.196626
-0.187572
-0.141767
-0.112606
-0.0958421
-0.0977397
-0.0933527
-0.0895115
-0.0881797
-0.230631
-0.243289
-0.269139
-0.303703
-0.327816
-0.325717
-0.304747
-0.266652
-0.228056
-0.197249
-0.175082
-0.175418
-0.170584
-0.118824
-0.0814238
-0.0609464
-0.0432448
-0.0325803
-0.0291518
-0.0295877
0.0518097
0.0455211
0.02876
-0.00132055
-0.0419929
-0.0797187
-0.107555
-0.127231
-0.134136
-0.123441
-0.119879
-0.117141
-0.112197
-0.070757
-0.0347257
-0.0145106
0.00432529
0.0135242
0.0161128
0.0150677
0.191666
0.188427
0.176872
0.150957
0.108944
0.0561483
0.00627671
-0.0319587
-0.0542821
-0.0624262
-0.0588318
-0.0439038
-0.0265831
-0.0123728
0.00364358
0.0164444
0.0290429
0.0360548
0.0370848
0.0362104
0.226304
0.224324
0.216253
0.196456
0.162423
0.118539
0.0717627
0.030402
0.000958065
-0.0092625
-0.00406173
0.0192911
0.0406475
0.0429601
0.0424449
0.0430842
0.047724
0.051077
0.0517666
0.0505915
0.212384
0.211171
0.205842
0.192383
0.168375
0.13568
0.0989855
0.0644628
0.0383783
0.0281407
0.0365927
0.0627719
0.0806675
0.0740351
0.0658537
0.061937
0.0608439
0.0596796
0.0581519
0.0567436
0.182336
0.181662
0.178327
0.169662
0.153765
0.131189
0.104302
0.0778483
0.0567145
0.0492431
0.0597925
0.0827882
0.0974396
0.0848214
0.0701537
0.0616346
0.0572101
0.0531835
0.050882
0.0500049
0.14911
0.148875
0.146903
0.141518
0.131299
0.116219
0.0974282
0.0780817
0.0618947
0.0561134
0.0653597
0.0858019
0.0949111
0.0796676
0.0660334
0.0568494
0.0504016
0.0450378
0.0422261
0.0415629
0.117669
0.117505
0.11635
0.113041
0.106532
0.0965697
0.083609
0.0696508
0.0569502
0.0502924
0.0552402
0.070145
0.0749018
0.0587347
0.0466463
0.0418054
0.0384797
0.0350399
0.0334989
0.0329485
0.0890104
0.0889798
0.0883042
0.0863113
0.0821899
0.0755924
0.0665244
0.0558776
0.0447254
0.0349542
0.0290916
0.0293586
0.0278971
0.0171207
0.0138865
0.017152
0.0196629
0.0201889
0.0195098
0.0187816
0.0633962
0.0634082
0.063039
0.0619275
0.0594364
0.0551539
0.0488776
0.0405923
0.0299456
0.0154535
-0.0066171
-0.035636
-0.0552057
-0.0481879
-0.0322255
-0.0169421
-0.00926937
-0.00669011
-0.00612074
-0.00652992
0.0408246
0.0408422
0.040672
0.040124
0.0387673
0.0361929
0.0320479
0.0260986
0.0161793
-0.000901048
-0.0366192
-0.093973
-0.124411
-0.0970026
-0.063262
-0.0442482
-0.0366757
-0.0340282
-0.032698
-0.0324509
0.021143
0.0211773
0.0211446
0.0209676
0.0204001
0.0191659
0.0169101
0.0132808
0.00721941
-0.00675523
-0.0393961
-0.0977365
-0.11725
-0.0850517
-0.0566643
-0.0447947
-0.0423977
-0.0416939
-0.0401249
-0.0393743
0.00379185
0.0038297
0.00378679
0.00384471
0.00407232
0.00412028
0.00391071
0.00334177
0.00221602
0.00034001
-0.00535007
-0.019143
-0.03328
-0.025346
-0.0238103
-0.0202198
-0.0186372
-0.0161814
-0.0142548
-0.0127109
0.0535883
0.243203
0.417557
0.565407
0.684312
0.778682
0.857464
0.921496
0.937921
0.934243
0.345652
0.467717
0.582196
0.681788
0.765807
0.835285
0.890087
0.927155
0.946975
0.963546
0.543897
0.625365
0.70605
0.776901
0.837379
0.887553
0.927025
0.957089
0.979672
0.998906
0.690604
0.748326
0.806708
0.859021
0.904147
0.942551
0.974755
1.00174
1.02207
1.04096
0.808295
0.851544
0.89466
0.935104
0.971169
1.00303
1.0309
1.0545
1.07247
1.09051
0.90556
0.941445
0.976672
1.01048
1.04168
1.06989
1.09478
1.11566
1.13145
1.14893
0.994064
1.02613
1.05847
1.08969
1.11873
1.14513
1.16827
1.18722
1.20114
1.21816
1.08111
1.11374
1.14619
1.17742
1.20622
1.23202
1.25416
1.2717
1.28409
1.30062
1.17558
1.21203
1.2468
1.27926
1.30844
1.33381
1.35494
1.37123
1.38286
1.399
1.28867
1.32926
1.3663
1.39926
1.42776
1.45176
1.4714
1.48668
1.49858
1.51466
1.43001
1.47111
1.50639
1.536
1.56122
1.58283
1.60134
1.61683
1.62995
1.6459
1.6016
1.63403
1.6609
1.68323
1.70332
1.72204
1.73978
1.75655
1.77147
1.78719
1.78796
1.80523
1.82235
1.83903
1.85513
1.86986
1.88377
1.89825
1.91349
1.93079
1.97134
1.98132
1.99452
2.00551
2.01491
2.02457
2.03518
2.04536
2.05465
2.08031
2.18925
2.18354
2.1706
2.15634
2.15005
2.15576
2.1739
2.20242
2.23619
2.27251
2.49206
2.3561
2.2766
2.23408
2.21676
2.22074
2.24817
2.30604
2.4137
2.59211
0.808896
0.802593
0.794862
0.783746
0.770172
0.75752
0.747118
0.7391
0.733375
0.730036
0.729678
0.732508
0.737739
0.745096
0.754645
0.766474
0.780037
0.792966
0.801956
0.809497
0.717967
0.723886
0.731957
0.738088
0.741154
0.740639
0.737548
0.733546
0.72995
0.727659
0.72752
0.72977
0.733523
0.737969
0.742071
0.744317
0.743244
0.738608
0.731554
0.723721
0.711221
0.713593
0.716859
0.71963
0.722078
0.724263
0.725437
0.725284
0.72434
0.723526
0.723737
0.72515
0.726932
0.728162
0.728088
0.726622
0.724464
0.722103
0.719121
0.716103
0.706438
0.707526
0.709442
0.711777
0.713646
0.71504
0.716253
0.717239
0.717831
0.718203
0.718754
0.719498
0.719966
0.71985
0.719223
0.718301
0.716971
0.715003
0.712896
0.711418
0.701422
0.702055
0.703183
0.704938
0.706778
0.708367
0.709613
0.710669
0.711642
0.712534
0.713318
0.71384
0.713981
0.713777
0.713242
0.712269
0.710843
0.709234
0.707897
0.707095
0.696507
0.696946
0.697733
0.699035
0.700553
0.702111
0.703583
0.70487
0.706015
0.707095
0.708046
0.708651
0.708834
0.708602
0.707941
0.706944
0.705792
0.704649
0.703746
0.703213
0.691683
0.692011
0.692623
0.693689
0.694981
0.696375
0.697846
0.699311
0.700692
0.701985
0.70313
0.70388
0.704112
0.703872
0.703278
0.702497
0.701653
0.7008
0.700139
0.699748
0.686927
0.687182
0.687675
0.688583
0.689751
0.691054
0.692467
0.693984
0.695551
0.697102
0.698496
0.69942
0.699768
0.699675
0.699298
0.698755
0.698125
0.697499
0.697018
0.696718
0.682167
0.68237
0.68278
0.683578
0.684668
0.685923
0.687322
0.688883
0.690591
0.692388
0.694077
0.695264
0.69585
0.696003
0.695867
0.695551
0.695128
0.694694
0.694353
0.694118
0.677319
0.677482
0.677833
0.678559
0.679603
0.680839
0.682268
0.683913
0.685779
0.687834
0.689872
0.691424
0.69234
0.692787
0.692909
0.692825
0.692615
0.692357
0.692131
0.691943
0.672294
0.672426
0.672736
0.673417
0.674445
0.675707
0.677205
0.678979
0.681057
0.683429
0.685894
0.687898
0.689209
0.689997
0.69041
0.690575
0.690579
0.690489
0.690362
0.69021
0.667003
0.66711
0.667393
0.668055
0.669102
0.670433
0.672044
0.674001
0.676359
0.679136
0.682126
0.684671
0.686449
0.687631
0.688374
0.688811
0.689036
0.689117
0.689076
0.688952
0.661351
0.661436
0.661703
0.662372
0.663473
0.664915
0.666695
0.668903
0.671624
0.674908
0.678542
0.68174
0.684069
0.685706
0.686823
0.687577
0.68805
0.688291
0.688326
0.688223
0.655228
0.655294
0.655555
0.656252
0.657444
0.659044
0.661056
0.663597
0.666782
0.670698
0.67512
0.679101
0.682086
0.684257
0.685804
0.686912
0.687658
0.688073
0.688181
0.688095
0.648502
0.64855
0.648814
0.649562
0.650885
0.652699
0.65502
0.657987
0.661755
0.66645
0.671829
0.676755
0.680519
0.683323
0.685373
0.68688
0.687939
0.688543
0.688724
0.68865
0.64102
0.64105
0.641321
0.642143
0.643641
0.645735
0.648451
0.651958
0.656454
0.662109
0.668652
0.67471
0.6794
0.682948
0.685595
0.687578
0.688993
0.689797
0.69005
0.689986
0.632574
0.632591
0.632868
0.633792
0.63552
0.637972
0.641188
0.645373
0.650773
0.657605
0.665557
0.672972
0.678762
0.683188
0.686541
0.689093
0.690911
0.691939
0.692264
0.692207
0.622865
0.622859
0.623187
0.624254
0.62628
0.629189
0.63304
0.638081
0.644612
0.652893
0.662549
0.671577
0.678664
0.684121
0.688302
0.691517
0.693803
0.695075
0.695473
0.695419
0.611597
0.611568
0.611947
0.613206
0.615604
0.619101
0.623766
0.629892
0.637839
0.647909
0.659623
0.670558
0.679158
0.685824
0.690974
0.69495
0.697772
0.699306
0.699774
0.699718
0.598279
0.598228
0.598684
0.600194
0.603078
0.607345
0.613064
0.620586
0.630324
0.642602
0.65679
0.669963
0.680312
0.688364
0.694643
0.699497
0.702912
0.704718
0.705247
0.705183
0.582262
0.582189
0.582769
0.58463
0.588163
0.593452
0.600567
0.609904
0.621918
0.636924
0.654072
0.669846
0.68219
0.691819
0.699377
0.705218
0.709283
0.711354
0.711929
0.711852
0.562593
0.562503
0.563284
0.565656
0.570103
0.576813
0.585832
0.59759
0.612539
0.630911
0.651554
0.670299
0.684881
0.696263
0.705215
0.712162
0.716892
0.719201
0.719797
0.719698
0.537844
0.537753
0.53887
0.542031
0.547854
0.55664
0.568361
0.58342
0.602174
0.624681
0.649387
0.671436
0.688455
0.701738
0.712213
0.720306
0.725678
0.728155
0.728733
0.728605
0.505683
0.505638
0.507359
0.511883
0.520005
0.532028
0.547728
0.567333
0.590966
0.618437
0.64775
0.673395
0.692997
0.708275
0.720326
0.729575
0.735467
0.737998
0.73851
0.738348
0.461948
0.462102
0.465135
0.472485
0.484902
0.502239
0.523834
0.549574
0.579273
0.612512
0.6469
0.676337
0.698589
0.715875
0.729484
0.739784
0.745967
0.748377
0.748772
0.748575
0.398865
0.400187
0.407543
0.421393
0.441668
0.467449
0.497351
0.530882
0.567725
0.607378
0.647141
0.680435
0.705292
0.724493
0.739469
0.750542
0.7567
0.758766
0.758999
0.758789
0.323553
0.32615
0.340433
0.364264
0.395279
0.431086
0.470011
0.511803
0.556274
0.602984
0.648945
0.686959
0.715154
0.736805
0.753423
0.765077
0.771041
0.772867
0.77306
0.772949
0.24647
0.253372
0.27481
0.30864
0.350111
0.395702
0.443652
0.493773
0.54594
0.599775
0.652054
0.694901
0.726478
0.750596
0.768894
0.78092
0.786306
0.787652
0.787777
0.787737
0.183631
0.192384
0.218443
0.259356
0.309068
0.362973
0.419063
0.477008
0.536568
0.597278
0.655574
0.702924
0.737615
0.763895
0.783351
0.795552
0.80069
0.801927
0.802077
0.802092
0.132166
0.141634
0.171209
0.217399
0.273318
0.333888
0.396865
0.461728
0.52803
0.595143
0.659144
0.710812
0.748423
0.776756
0.797483
0.810138
0.81517
0.816408
0.816638
0.816691
0.0890896
0.0988646
0.130844
0.181163
0.242178
0.308294
0.377087
0.447949
0.5203
0.593352
0.662768
0.718587
0.759046
0.789374
0.811378
0.824599
0.829876
0.831321
0.831576
0.831652
0.0519359
0.0618469
0.0956303
0.149256
0.214533
0.285406
0.359285
0.435491
0.513352
0.59191
0.666412
0.72621
0.76946
0.801759
0.825122
0.839082
0.844785
0.84633
0.84659
0.846666
0.0190337
0.0289969
0.0642024
0.120568
0.189477
0.264489
0.34289
0.423923
0.506827
0.590527
0.669892
0.733517
0.779441
0.813668
0.838294
0.853087
0.859218
0.860907
0.861177
0.861236
-0.0108698
-0.000865596
0.0354998
0.0942273
0.166284
0.244923
0.327348
0.412777
0.500382
0.588979
0.673039
0.740332
0.788835
0.82486
0.850729
0.866236
0.872833
0.874657
0.874921
0.874961
-0.0387165
-0.0286522
0.00874381
0.0695659
0.144401
0.226243
0.312282
0.401749
0.493755
0.58701
0.675603
0.74651
0.797487
0.835231
0.862211
0.878385
0.885363
0.887297
0.887545
0.887557
-0.0650668
-0.0549352
-0.0165775
0.0461304
0.12342
0.208123
0.297428
0.390585
0.486686
0.584403
0.677459
0.751962
0.805369
0.844741
0.872734
0.889382
0.896611
0.898633
0.898869
0.898849
-0.0903827
-0.0801096
-0.0408503
0.0235711
0.103052
0.190317
0.28257
0.379104
0.479043
0.581042
0.678514
0.756634
0.81249
0.853418
0.882268
0.899297
0.906622
0.908649
0.908875
0.908825
-0.114948
-0.104459
-0.0643388
0.00165812
0.0831051
0.17266
0.267586
0.36722
0.470728
0.576827
0.678681
0.760509
0.818889
0.861358
0.890949
0.908184
0.91548
0.917465
0.917664
0.917596
-0.138864
-0.128133
-0.0871845
-0.0197465
0.0634675
0.15508
0.252415
0.354873
0.461681
0.571678
0.677892
0.763573
0.824634
0.868687
0.898921
0.916198
0.923373
0.925264
0.925415
0.925319
-0.162251
-0.151251
-0.1095
-0.0407019
0.0440905
0.137537
0.237031
0.342044
0.451891
0.56557
0.676082
0.765798
0.829786
0.875556
0.906383
0.923535
0.930434
0.932163
0.932254
0.932136
-0.185106
-0.173854
-0.1313
-0.0612348
0.0249654
0.120039
0.221459
0.328763
0.441374
0.558483
0.673196
0.767127
0.834387
0.882132
0.913527
0.930338
0.936777
0.938257
0.938261
0.93812
-0.207505
-0.195931
-0.152561
-0.0813369
0.00610996
0.102616
0.205737
0.315083
0.430172
0.550428
0.669193
0.767486
0.838414
0.888554
0.920629
0.936864
0.942529
0.943602
0.943504
0.943355
-0.229236
-0.217442
-0.173269
-0.100993
-0.0124328
0.0853362
0.189931
0.301069
0.418352
0.541453
0.664038
0.766784
0.841789
0.894897
0.928015
0.943548
0.948011
0.948354
0.948074
0.947936
-0.250452
-0.238335
-0.193394
-0.120179
-0.0306367
0.068237
0.174129
0.286799
0.405997
0.531631
0.65772
0.764913
0.84437
0.901091
0.935956
0.951058
0.953904
0.952851
0.95207
0.951989
-0.27097
-0.258571
-0.21292
-0.138846
-0.0484219
0.0514025
0.158413
0.272392
0.39321
0.521023
0.65026
0.761768
0.84597
0.906889
0.944444
0.960109
0.96159
0.958333
0.956012
0.95564
-0.290893
-0.278174
-0.23179
-0.156936
-0.0657513
0.0349016
0.142871
0.257929
0.380097
0.509761
0.641715
0.757227
0.846375
0.911895
0.952957
0.970802
0.972654
0.967712
0.961672
0.952884
-0.310103
-0.297138
-0.250092
-0.174616
-0.082848
0.0184525
0.127168
0.243008
0.366213
0.497349
0.631578
0.75073
0.845199
0.91586
0.960877
0.982487
0.987311
0.981949
0.97099
0.969644
-0.32856
-0.315539
-0.267821
-0.191828
-0.0996952
0.00209146
0.111332
0.227608
0.351523
0.483661
0.619665
0.741776
0.841683
0.917998
0.966265
0.991001
0.99818
0.995503
0.961535
0.922942
-0.34603
-0.333238
-0.284908
-0.208453
-0.116283
-0.0141881
0.0953676
0.211863
0.336096
0.468731
0.605896
0.730003
0.834673