/*--------------------------------*- C++ -*----------------------------------*\
  =========                 |
  \\      /  F ield         | OpenFOAM: The Open Source CFD Toolbox
   \\    /   O peration     | Website:  https://openfoam.org
    \\  /    A nd           | Version:  6
     \\/     M anipulation  |
\*---------------------------------------------------------------------------*/
FoamFile
{
    version     2.0;
    format      ascii;
    class       volVectorField;
    location    "54";
    object      U;
}
// * * * * * * * * * * * * * * * * * * * * * * * * * * * * * * * * * * * * * //

dimensions      [0 1 -1 0 0 0 0];

internalField   nonuniform List<vector> 
8800
(
(0.987195 -0.0767064 0)
(1.0019 -0.0551793 0)
(0.999718 -0.0285536 0)
(1.00002 -0.0151593 0)
(1.00006 -0.0085626 0)
(1.00008 -0.00506248 0)
(1.00005 -0.00301529 0)
(1.00002 -0.00171326 0)
(0.999997 -0.000806749 0)
(1.00006 -9.08289e-05 0)
(0.999987 0.000637438 0)
(0.999995 0.00140034 0)
(1.00001 0.00242383 0)
(1.00003 0.00400022 0)
(1.00003 0.00663642 0)
(1.00001 0.0113772 0)
(0.999889 0.0208173 0)
(0.999146 0.0386584 0)
(1.0071 0.0724576 0)
(0.771225 0.0366896 0)
(0.363031 -0.0160164 0)
(1.04331 -0.0768323 0)
(1.08461 -0.0704537 0)
(1.04521 -0.0535611 0)
(1.02328 -0.0389168 0)
(1.01199 -0.0262476 0)
(1.0064 -0.016895 0)
(1.00358 -0.0103689 0)
(1.00215 -0.00571323 0)
(1.00145 -0.00206079 0)
(1.00132 0.00126146 0)
(1.00169 0.00464141 0)
(1.00266 0.00857665 0)
(1.00465 0.0139202 0)
(1.0086 0.0216302 0)
(1.01658 0.0326013 0)
(1.03249 0.0465196 0)
(1.06265 0.0616434 0)
(1.09189 0.0760807 0)
(0.838679 0.0565756 0)
(0.216801 -0.00242275 0)
(1.07585 -0.0501653 0)
(1.09984 -0.0483542 0)
(1.0646 -0.0405098 0)
(1.03997 -0.0336569 0)
(1.02384 -0.0261437 0)
(1.01407 -0.0185699 0)
(1.00853 -0.0117585 0)
(1.00558 -0.00589883 0)
(1.00433 -0.000486447 0)
(1.00468 0.00475891 0)
(1.0066 0.0101479 0)
(1.0106 0.0162503 0)
(1.01793 0.0232875 0)
(1.03054 0.0307614 0)
(1.05062 0.0378048 0)
(1.08032 0.0445021 0)
(1.10625 0.0513277 0)
(0.942555 0.0416037 0)
(0.216182 0.00245129 0)
(0.175109 -0.000816066 0)
(1.01759 -0.0355163 0)
(1.10514 -0.0414331 0)
(1.0782 -0.0361314 0)
(1.05337 -0.0302101 0)
(1.0361 -0.0246469 0)
(1.02393 -0.0189305 0)
(1.01584 -0.012861 0)
(1.01099 -0.006682 0)
(1.00881 -0.000354957 0)
(1.0094 0.00589865 0)
(1.01266 0.0118989 0)
(1.01886 0.0177506 0)
(1.02877 0.0233437 0)
(1.04322 0.0286554 0)
(1.06374 0.0341531 0)
(1.09355 0.0401489 0)
(1.09343 0.0419235 0)
(0.827246 0.022895 0)
(0.174065 0.000848593 0)
(0.153876 -0.000611363 0)
(0.956004 -0.0254982 0)
(1.10336 -0.0351981 0)
(1.08759 -0.0327406 0)
(1.06159 -0.0281043 0)
(1.04398 -0.0230992 0)
(1.03154 -0.0178703 0)
(1.02273 -0.0123544 0)
(1.01693 -0.00643097 0)
(1.01411 2.96738e-05 0)
(1.01482 0.00649226 0)
(1.0188 0.0123791 0)
(1.02581 0.0176929 0)
(1.03612 0.0226329 0)
(1.0507 0.0274033 0)
(1.07194 0.0319514 0)
(1.1001 0.0359025 0)
(1.06816 0.0339807 0)
(0.739719 0.0142927 0)
(0.152305 0.000648232 0)
(0.139468 -0.000468292 0)
(0.898995 -0.0191242 0)
(1.09563 -0.0301661 0)
(1.09561 -0.0292991 0)
(1.06908 -0.0255873 0)
(1.05065 -0.0214722 0)
(1.03776 -0.0167243 0)
(1.02868 -0.0114599 0)
(1.0226 -0.00573226 0)
(1.0195 0.000582907 0)
(1.02016 0.00689322 0)
(1.02426 0.0125343 0)
(1.0314 0.0175228 0)
(1.04193 0.0220142 0)
(1.05709 0.0259932 0)
(1.07929 0.0294801 0)
(1.10234 0.0321275 0)
(1.03614 0.0280551 0)
(0.673254 0.0101865 0)
(0.137252 0.00051084 0)
(0.128888 -0.000363396 0)
(0.849272 -0.0147699 0)
(1.08316 -0.0260515 0)
(1.10124 -0.0263749 0)
(1.07589 -0.0231161 0)
(1.05694 -0.0195042 0)
(1.04359 -0.0152895 0)
(1.03416 -0.0103942 0)
(1.02785 -0.00488391 0)
(1.02457 0.00125167 0)
(1.02509 0.0073531 0)
(1.02916 0.0127188 0)
(1.03641 0.0172989 0)
(1.04724 0.0211904 0)
(1.06279 0.0245074 0)
(1.08544 0.0274785 0)
(1.10148 0.0292623 0)
(1.00132 0.0235242 0)
(0.621542 0.00781778 0)
(0.125886 0.000413494 0)
(0.120801 -0.00028322 0)
(0.806972 -0.0116209 0)
(1.06777 -0.0224612 0)
(1.1047 -0.0237671 0)
(1.0821 -0.0209287 0)
(1.06273 -0.0175363 0)
(1.04911 -0.013636 0)
(1.0394 -0.00908823 0)
(1.03281 -0.0038592 0)
(1.02931 0.00205311 0)
(1.02967 0.0079046 0)
(1.0337 0.0129242 0)
(1.04102 0.0170376 0)
(1.05196 0.0204252 0)
(1.06773 0.0233339 0)
(1.09071 0.0260124 0)
(1.09776 0.0269101 0)
(0.966192 0.0199648 0)
(0.580036 0.0062775 0)
(0.116844 0.000342773 0)
(0.114518 -0.0002205 0)
(0.771316 -0.00926763 0)
(1.05086 -0.0193047 0)
(1.10701 -0.0213634 0)
(1.08791 -0.0189042 0)
(1.06816 -0.0156644 0)
(1.05429 -0.0119337 0)
(1.0444 -0.00760249 0)
(1.03757 -0.00262203 0)
(1.0338 0.00302607 0)
(1.03396 0.00856978 0)
(1.03788 0.0132132 0)
(1.04515 0.016918 0)
(1.0561 0.0199247 0)
(1.07208 0.0225116 0)
(1.09473 0.0248519 0)
(1.09124 0.0249501 0)
(0.932054 0.0172106 0)
(0.545731 0.0052234 0)
(0.109401 0.00029177 0)
(0.109604 -0.000170065 0)
(0.741362 -0.00744236 0)
(1.0335 -0.0165087 0)
(1.10835 -0.0191008 0)
(1.09343 -0.0169578 0)
(1.07339 -0.0138158 0)
(1.05926 -0.0101831 0)
(1.04918 -0.00598766 0)
(1.04214 -0.00119684 0)
(1.0381 0.00419936 0)
(1.03799 0.00942314 0)
(1.0417 0.0137005 0)
(1.04883 0.0170362 0)
(1.05977 0.0196995 0)
(1.07594 0.0220012 0)
(1.09747 0.0239763 0)
(1.08231 0.0233239 0)
(0.899486 0.0151075 0)
(0.516586 0.00448463 0)
(0.10308 0.00025567 0)
(0.105776 -0.000128254 0)
(0.71629 -0.00597179 0)
(1.0165 -0.0140032 0)
(1.10885 -0.0169178 0)
(1.09884 -0.0150571 0)
(1.07853 -0.0119324 0)
(1.06411 -0.00834197 0)
(1.05381 -0.00422212 0)
(1.04654 0.000437919 0)
(1.04219 0.00560914 0)
(1.04174 0.0105194 0)
(1.04515 0.0144542 0)
(1.05211 0.0174512 0)
(1.06302 0.0197844 0)
(1.07938 0.0218193 0)
(1.09889 0.0234032 0)
(1.07138 0.0220317 0)
(0.868618 0.0135397 0)
(0.491161 0.00397152 0)
(0.0975405 0.000231578 0)
(0.102845 -9.20964e-05 0)
(0.69546 -0.00474002 0)
(1.00047 -0.0117196 0)
(1.10863 -0.0147775 0)
(1.10406 -0.0131234 0)
(1.08366 -0.0099794 0)
(1.06892 -0.00637542 0)
(1.05837 -0.00227519 0)
(1.0508 0.00230318 0)
(1.04607 0.00730424 0)
(1.0452 0.0119443 0)
(1.04828 0.0155461 0)
(1.05501 0.0181994 0)
(1.06587 0.0202036 0)
(1.08236 0.0219807 0)
(1.09937 0.0231562 0)
(1.05872 0.021072 0)
(0.839308 0.0124141 0)
(0.468384 0.00362784 0)
(0.0925272 0.000216975 0)
(0.10069 -5.88853e-05 0)
(0.6784 -0.00365976 0)
(0.98587 -0.00958667 0)
(1.10793 -0.0125893 0)
(1.10909 -0.0110583 0)
(1.08884 -0.00786445 0)
(1.07376 -0.00419484 0)
(1.06291 -6.24083e-05 0)
(1.05498 0.00448699 0)
(1.04979 0.00935633 0)
(1.04842 0.0137419 0)
(1.05106 0.017022 0)
(1.05754 0.0193352 0)
(1.06833 0.0209933 0)
(1.08487 0.0224981 0)
(1.09885 0.0232929 0)
(1.04454 0.0204618 0)
(0.811252 0.0116589 0)
(0.447419 0.00341591 0)
(0.0878417 0.000210025 0)
(0.0992491 -2.63888e-05 0)
(0.664809 -0.00266102 0)
(0.973054 -0.00752915 0)
(1.10705 -0.0103031 0)
(1.11405 -0.00882497 0)
(1.09416 -0.00554824 0)
(1.0787 -0.00175066 0)
(1.06747 0.00248554 0)
(1.05909 0.00706739 0)
(1.05333 0.0118432 0)
(1.05135 0.0159885 0)
(1.05349 0.0189423 0)
(1.05966 0.0209105 0)
(1.07036 0.022214 0)
(1.08692 0.0234466 0)
(1.09714 0.0237938 0)
(1.02891 0.0201822 0)
(0.784058 0.0112181 0)
(0.427593 0.00330991 0)
(0.0833248 0.000209254 0)
(0.0985077 7.54355e-06 0)
(0.654537 -0.0016879 0)
(0.962336 -0.00547268 0)
(1.1063 -0.00784605 0)
(1.11905 -0.00632675 0)
(1.0997 -0.00291557 0)
(1.08382 0.00106857 0)
(1.07214 0.00546102 0)
(1.06322 0.0101284 0)
(1.05677 0.0148634 0)
(1.05404 0.0187948 0)
(1.05558 0.0214164 0)
(1.06136 0.0230054 0)
(1.07195 0.0239089 0)
(1.08843 0.0248425 0)
(1.09417 0.0247016 0)
(1.01185 0.020258 0)
(0.757303 0.0110595 0)
(0.408353 0.00329473 0)
(0.0788474 0.000214027 0)
(0.0984863 4.06075e-05 0)
(0.647561 -0.000694805 0)
(0.954018 -0.00334523 0)
(1.10603 -0.0051547 0)
(1.12426 -0.00348234 0)
(1.10553 0.000133428 0)
(1.08919 0.0043745 0)
(1.07698 0.00899513 0)
(1.06739 0.0138114 0)
(1.06009 0.0185314 0)
(1.05647 0.0222375 0)
(1.05729 0.024502 0)
(1.06262 0.0256921 0)
(1.07306 0.0261849 0)
(1.0892 0.0267506 0)
(1.08972 0.026053 0)
(0.993237 0.0207119 0)
(0.730506 0.0111661 0)
(0.389199 0.00336276 0)
(0.0742908 0.000223831 0)
(0.099223 7.92812e-05 0)
(0.643965 0.000336709 0)
(0.948415 -0.00106628 0)
(1.1066 -0.00214363 0)
(1.12989 -0.000208854 0)
(1.11177 0.00368542 0)
(1.09493 0.00826711 0)
(1.08208 0.0132018 0)
(1.07168 0.0182324 0)
(1.06335 0.022984 0)
(1.05865 0.0264786 0)
(1.0586 0.0283563 0)
(1.06339 0.0291049 0)
(1.07363 0.02916 0)
(1.0891 0.029295 0)
(1.08369 0.0278826 0)
(0.972871 0.0215704 0)
(0.70315 0.0115275 0)
(0.369661 0.00350786 0)
(0.0695481 0.0002382 0)
(0.100925 0.000140132 0)
(0.644145 0.001496 0)
(0.945903 0.00144105 0)
(1.10842 0.00129388 0)
(1.13609 0.00363764 0)
(1.11855 0.00792045 0)
(1.10113 0.0129299 0)
(1.0875 0.0182539 0)
(1.0761 0.0235707 0)
(1.06652 0.028392 0)
(1.06051 0.0316686 0)
(1.05942 0.0331093 0)
(1.06357 0.0333666 0)
(1.07358 0.0329329 0)
(1.08789 0.0325683 0)
(1.07577 0.0302847 0)
(0.950455 0.0228636 0)
(0.674682 0.012142 0)
(0.349299 0.00372616 0)
(0.0645222 0.000256669 0)
(0.103641 0.000199968 0)
(0.648407 0.00289216 0)
(0.946918 0.00432903 0)
(1.11201 0.00529573 0)
(1.14313 0.00819786 0)
(1.12603 0.0130133 0)
(1.10791 0.0185654 0)
(1.09333 0.024386 0)
(1.0807 0.030058 0)
(1.06958 0.0349622 0)
(1.06201 0.0379736 0)
(1.05972 0.0388952 0)
(1.06308 0.0386044 0)
(1.07282 0.0376196 0)
(1.0854 0.0366869 0)
(1.06568 0.0333509 0)
(0.925564 0.0246429 0)
(0.644504 0.013014 0)
(0.327675 0.0040152 0)
(0.0591231 0.000278745 0)
(0.107655 0.000281337 0)
(0.657374 0.00456701 0)
(0.951893 0.00769455 0)
(1.11784 0.0100242 0)
(1.15129 0.0136683 0)
(1.13441 0.0191743 0)
(1.11545 0.025414 0)
(1.09969 0.0318585 0)
(1.08552 0.0379577 0)
(1.07254 0.0429446 0)
(1.06312 0.0456116 0)
(1.05943 0.0459265 0)
(1.06185 0.0449934 0)
(1.07126 0.0433714 0)
(1.08162 0.0418081 0)
(1.05301 0.0371704 0)
(0.897668 0.0269343 0)
(0.611961 0.0141369 0)
(0.304362 0.00436662 0)
(0.0532722 0.000303195 0)
(0.113308 0.000390728 0)
(0.671717 0.0066569 0)
(0.961649 0.0118216 0)
(1.12649 0.0157234 0)
(1.16088 0.0203387 0)
(1.14393 0.0267588 0)
(1.12393 0.0338365 0)
(1.10668 0.0410075 0)
(1.09062 0.0475848 0)
(1.07536 0.0526166 0)
(1.06373 0.0548136 0)
(1.05842 0.0543976 0)
(1.05977 0.0527208 0)
(1.06877 0.0503705 0)
(1.07634 0.0480491 0)
(1.03727 0.0418485 0)
(0.866116 0.0297708 0)
(0.576368 0.0155 0)
(0.278964 0.00476855 0)
(0.0469146 0.000328436 0)
(0.121107 0.000545148 0)
(0.692454 0.00938831 0)
(0.976988 0.0169766 0)
(1.13863 0.0227177 0)
(1.17239 0.0285809 0)
(1.15489 0.0362186 0)
(1.13349 0.0443166 0)
(1.11433 0.052321 0)
(1.09587 0.0593702 0)
(1.07787 0.0643144 0)
(1.06368 0.0658271 0)
(1.05646 0.0644685 0)
(1.05667 0.0619377 0)
(1.06521 0.0587627 0)
(1.06926 0.055521 0)
(1.01782 0.0474543 0)
(0.83013 0.0331533 0)
(0.537015 0.0170676 0)
(0.251145 0.005198 0)
(0.040028 0.000351894 0)
(0.131798 0.000768365 0)
(0.720895 0.013148 0)
(0.999053 0.0236291 0)
(1.15505 0.0315497 0)
(1.18642 0.0389793 0)
(1.16765 0.0481822 0)
(1.14432 0.057498 0)
(1.12265 0.0664036 0)
(1.10118 0.0738168 0)
(1.07988 0.0784206 0)
(1.06278 0.0789474 0)
(1.05347 0.0763863 0)
(1.05241 0.07281 0)
(1.06033 0.0686508 0)
(1.05985 0.0642738 0)
(0.993849 0.0540438 0)
(0.788838 0.0370455 0)
(0.493233 0.0187693 0)
(0.220698 0.00561864 0)
(0.0326444 0.000370094 0)
(0.14664 0.00112163 0)
(0.759012 0.018554 0)
(1.02948 0.0325542 0)
(1.17667 0.0431554 0)
(1.20372 0.0525835 0)
(1.18252 0.0637272 0)
(1.15649 0.0743726 0)
(1.13149 0.0840521 0)
(1.10633 0.0915058 0)
(1.0812 0.0953035 0)
(1.06083 0.0943894 0)
(1.04927 0.0903378 0)
(1.04688 0.0854974 0)
(1.05373 0.0802427 0)
(1.04744 0.0745096 0)
(0.96436 0.0615789 0)
(0.741334 0.041332 0)
(0.44452 0.0204782 0)
(0.187657 0.00597232 0)
(0.0248751 0.000377932 0)
(0.167777 0.0017305 0)
(0.809992 0.0267382 0)
(1.07081 0.0452693 0)
(1.20462 0.0593452 0)
(1.225 0.0715528 0)
(1.19961 0.084483 0)
(1.16972 0.096257 0)
(1.1404 0.106214 0)
(1.11075 0.113034 0)
(1.08126 0.115306 0)
(1.05742 0.112336 0)
(1.04357 0.106388 0)
(1.03989 0.100088 0)
(1.04533 0.0937746 0)
(1.03131 0.0860987 0)
(0.928099 0.0698874 0)
(0.686814 0.0457868 0)
(0.390804 0.0220067 0)
(0.1525 0.00617949 0)
(0.0169538 0.000368597 0)
(0.198507 0.00306731 0)
(0.879462 0.040267 0)
(1.12664 0.0655137 0)
(1.23933 0.0836885 0)
(1.24992 0.0985828 0)
(1.21825 0.112764 0)
(1.18312 0.124764 0)
(1.14852 0.133907 0)
(1.11378 0.138985 0)
(1.07965 0.138702 0)
(1.05225 0.132907 0)
(1.03615 0.124616 0)
(1.03123 0.116602 0)
(1.03484 0.109102 0)
(1.01032 0.0989951 0)
(0.883582 0.0786139 0)
(0.624923 0.0500086 0)
(0.333119 0.0231579 0)
(0.116644 0.00617381 0)
(0.0093562 0.000331986 0)
(0.24047 0.00917357 4.99844e-20)
(0.971366 0.0669971 4.3563e-20)
(1.19465 0.0997669 -1.51774e-20)
(1.27762 0.11992 0)
(1.27569 0.137264 -3.82227e-34)
(1.23636 0.150909 5.57646e-21)
(1.19526 0.161376 -9.98163e-21)
(1.1549 0.168287 0)
(1.11471 0.170567 2.0347e-34)
(1.07558 0.166984 -1.22061e-20)
(1.04433 0.157905 0)
(1.02573 0.147039 -1.4419e-20)
(1.01948 0.137312 -4.24786e-20)
(1.02088 0.128854 -2.00571e-20)
(0.981489 0.116063 -6.02459e-21)
(0.825899 0.0897776 -3.57724e-21)
(0.550109 0.0548046 0)
(0.269572 0.024348 2.50243e-21)
(0.080527 0.00633629 2.95471e-21)
(0.00227716 0.000303802 5.32223e-20)
(0.269607 0.0240864 3.75147e-20)
(1.04742 0.109194 5.2757e-22)
(1.25072 0.148571 4.084e-21)
(1.31183 0.168656 0)
(1.29821 0.186293 -1.95405e-20)
(1.25175 0.197806 -2.21217e-20)
(1.20466 0.205978 -1.01092e-20)
(1.15836 0.210408 -3.5792e-20)
(1.11239 0.209902 0)
(1.0677 0.203062 5.20535e-20)
(1.03193 0.190722 5.14967e-20)
(1.01032 0.177304 1.52797e-20)
(1.00182 0.165528 5.55624e-20)
(0.996665 0.154487 7.79347e-20)
(0.937429 0.137303 0)
(0.749524 0.103439 1.09655e-19)
(0.463062 0.0610535 1.57303e-19)
(0.20285 0.0257581 1.74717e-19)
(0.0454219 0.00575346 -1.99766e-19)
(-0.00448042 -0.000280724 -3.75487e-21)
(0.271118 0.0406384 0)
(1.09581 0.163836 6.76138e-21)
(1.28855 0.208288 0)
(1.3384 0.228143 -2.59388e-20)
(1.31574 0.24313 0)
(1.26329 0.250801 -4.37157e-20)
(1.21059 0.255267 2.07241e-20)
(1.15867 0.256132 -7.23027e-20)
(1.1072 0.252042 -1.57911e-21)
(1.05722 0.241437 2.70049e-20)
(1.01708 0.225561 1.13299e-19)
(0.992473 0.209452 -2.65959e-22)
(0.981447 0.195603 -4.03928e-20)
(0.970226 0.181895 -7.35021e-20)
(0.89763 0.159874 8.69238e-20)
(0.69614 0.117871 -1.53896e-19)
(0.414691 0.0676645 -2.03409e-20)
(0.172238 0.0275156 0)
(0.0308074 0.00498667 -9.78226e-24)
(-0.00736529 -0.000994861 0)
(0.264924 0.0546092 9.2552e-20)
(1.12208 0.222189 -4.45855e-20)
(1.31195 0.272591 -3.33867e-20)
(1.35589 0.292966 1.2361e-20)
(1.32691 0.304333 -2.07503e-20)
(1.26997 0.307532 9.18429e-20)
(1.21262 0.307635 4.33722e-20)
(1.1558 0.304315 0)
(1.09936 0.296119 -1.36e-19)
(1.0445 0.281333 0)
(1.00024 0.261612 -5.95974e-20)
(0.972731 0.242665 -7.33496e-20)
(0.959306 0.226756 -4.40387e-20)
(0.943369 0.210386 -5.34268e-20)
(0.864058 0.183508 0)
(0.661599 0.13455 0)
(0.391475 0.0772458 -1.32453e-19)
(0.162549 0.0315008 2.62091e-20)
(0.0270036 0.00499227 -1.53374e-20)
(-0.0085753 -0.00167452 -1.79424e-20)
(0.25761 0.0669484 -3.96412e-20)
(1.13384 0.280544 0)
(1.32485 0.337965 6.95002e-20)
(1.36528 0.359289 3.5139e-20)
(1.33183 0.367011 4.78505e-20)
(1.27157 0.365767 0)
(1.21058 0.36143 4.26652e-20)
(1.14973 0.353768 8.03244e-20)
(1.08903 0.341242 6.98513e-20)
(1.02977 0.322059 1.27455e-19)
(0.981699 0.298452 0)
(0.951379 0.276649 -1.58401e-19)
(0.935565 0.258593 -9.52892e-20)
(0.915989 0.239537 -5.63123e-20)
(0.834981 0.208269 3.44752e-19)
(0.638865 0.153448 4.1006e-20)
(0.382956 0.0900222 1.92391e-19)
(0.16527 0.0377724 -9.11634e-19)
(0.0305445 0.00645736 5.396e-19)
(-0.00810133 -0.00203164 -6.50339e-19)
(0.250687 0.0780931 -2.21535e-20)
(1.13646 0.33704 7.27893e-21)
(1.33021 0.402574 -7.79604e-21)
(1.36823 0.425196 -3.65725e-20)
(1.33148 0.429454 -4.09913e-20)
(1.26873 0.423956 1.80529e-21)
(1.20487 0.415343 -4.62431e-20)
(1.14071 0.403444 8.33008e-20)
(1.07633 0.38663 -1.5046e-19)
(1.01317 0.363093 0)
(0.961603 0.335693 -7.18625e-20)
(0.928586 0.311049 -1.62369e-21)
(0.910324 0.290685 -1.04315e-19)
(0.888056 0.269261 0)
(0.808148 0.234109 -7.48518e-20)
(0.621756 0.174391 -1.7767e-19)
(0.381671 0.10503 4.73697e-19)
(0.173217 0.0464514 -4.66382e-19)
(0.0385056 0.00974272 6.62853e-19)
(-0.00618623 -0.00189463 -6.88731e-19)
(0.244949 0.0884456 -5.04872e-22)
(1.13345 0.39102 -3.37564e-21)
(1.33017 0.465395 -2.29002e-20)
(1.36616 0.489524 1.50497e-20)
(1.32692 0.490641 -2.07338e-20)
(1.26227 0.481165 0)
(1.1961 0.468532 -4.33311e-20)
(1.12914 0.452603 -8.7363e-20)
(1.06158 0.431675 -7.83342e-20)
(0.994953 0.403936 0)
(0.940201 0.372732 -7.47289e-20)
(0.904613 0.345149 -9.23589e-20)
(0.884129 0.322639 1.1325e-19)
(0.859773 0.299164 -6.87041e-20)
(0.781742 0.2605 -3.27476e-19)
(0.606408 0.196477 1.94604e-19)
(0.382 0.121292 5.79999e-20)
(0.182743 0.0566744 0)
(0.0479703 0.0144656 -6.42203e-19)
(-0.00362613 -0.00133633 -2.35638e-20)
(0.240511 0.0983342 8.60995e-23)
(1.12708 0.442328 8.17306e-22)
(1.3262 0.52587 1.08941e-20)
(1.36028 0.551583 5.32658e-20)
(1.31909 0.549919 -7.71723e-20)
(1.253 0.536813 8.89102e-20)
(1.18493 0.520462 9.33627e-20)
(1.11558 0.500759 -1.39678e-19)
(1.04522 0.47594 4.81488e-20)
(0.975465 0.444161 -3.13951e-19)
(0.917728 0.40915 -8.44237e-20)
(0.879815 0.378757 0)
(0.857438 0.354418 1.22887e-19)
(0.831377 0.328873 1.4726e-19)
(0.755066 0.287123 1.76335e-19)
(0.590566 0.2191 -2.117e-19)
(0.380395 0.138417 -6.27172e-20)
(0.190321 0.0681368 7.36537e-20)
(0.0567467 0.0200366 0)
(-0.000938628 -0.000460411 -5.12137e-20)
(0.237239 0.107856 -2.38876e-20)
(1.11896 0.491013 8.11397e-21)
(1.3196 0.584131 -9.90484e-21)
(1.35158 0.611017 3.26621e-20)
(1.3088 0.606884 -3.51174e-20)
(1.2416 0.590495 -4.09114e-21)
(1.17198 0.570772 -1.01957e-19)
(1.10056 0.547603 -5.0526e-20)
(1.02768 0.519138 -1.36168e-19)
(0.955016 0.483484 2.98508e-22)
(0.894493 0.44484 -2.64667e-19)
(0.854516 0.411908 2.22738e-19)
(0.830423 0.385735 -1.35033e-19)
(0.802751 0.357996 1.62349e-19)
(0.728001 0.313051 0)
(0.573155 0.241023 -1.15044e-19)
(0.375597 0.155351 -4.69684e-23)
(0.194492 0.0794986 -3.21463e-19)
(0.0632517 0.0256735 -4.72092e-20)
(0.0013507 0.000506443 0)
(0.235033 0.117221 0)
(1.11001 0.537285 1.23544e-20)
(1.31105 0.639825 -9.61096e-21)
(1.34086 0.667637 -3.01365e-20)
(1.29673 0.661302 -4.41476e-20)
(1.22866 0.641979 0)
(1.15773 0.619228 -4.66121e-20)
(1.08451 0.592918 -1.09437e-21)
(1.00934 0.561106 2.91851e-19)
(0.93393 0.521775 -4.31896e-20)
(0.870805 0.479781 -1.91067e-19)
(0.828921 0.444365 1.15911e-19)
(0.803178 0.416044 -2.203e-21)
(0.774048 0.385911 1.72646e-19)
(0.700485 0.337643 1.06504e-19)
(0.553746 0.261248 -2.48532e-19)
(0.367373 0.170961 2.94248e-19)
(0.194342 0.089733 8.7071e-20)
(0.0666183 0.0305542 3.59263e-19)
(0.00292579 0.00134724 -9.59543e-19)
(0.233791 0.126569 -1.34827e-20)
(1.10088 0.581322 1.47467e-20)
(1.30118 0.692755 -7.22054e-21)
(1.32874 0.721393 2.39674e-20)
(1.28342 0.713062 0)
(1.21465 0.691126 -4.13982e-20)
(1.14263 0.665692 1.56265e-19)
(1.06781 0.636577 1.10889e-19)
(0.990531 0.601736 0)
(0.912488 0.558999 -6.21336e-19)
(0.846866 0.51383 5.16614e-19)
(0.803122 0.475711 0)
(0.775795 0.444889 1.57698e-19)
(0.745368 0.412318 -2.21065e-21)
(0.672444 0.360336 -3.40387e-19)
(0.532335 0.279121 1.33248e-19)
(0.355934 0.18449 0)
(0.190352 0.0979368 4.69576e-19)
(0.0667014 0.0340609 0)
(0.00371108 0.00190976 -4.53875e-19)
(0.233332 0.135921 1.77633e-20)
(1.09193 0.623279 2.38396e-20)
(1.2904 0.742941 -5.96589e-21)
(1.31571 0.772293 0)
(1.26932 0.762143 -3.79607e-20)
(1.19999 0.737892 0)
(1.12704 0.710096 -1.54641e-19)
(1.05078 0.678508 -5.17244e-20)
(0.971519 0.640962 5.15803e-20)
(0.890938 0.595132 -3.07308e-19)
(0.822817 0.546827 5.33859e-20)
(0.777178 0.505706 0)
(0.748407 0.472289 -3.36686e-19)
(0.716692 0.43719 2.19809e-21)
(0.643681 0.380873 0)
(0.5091 0.294586 1.56794e-21)
(0.341324 0.195271 4.2917e-19)
(0.182795 0.103628 -4.05556e-19)
(0.0641728 0.0358538 1.19587e-19)
(0.00374062 0.00209973 0)
(0.233307 0.145168 0)
(1.08336 0.663186 3.18293e-20)
(1.27913 0.790473 1.58183e-20)
(1.30214 0.820404 -2.48015e-21)
(1.25478 0.80857 -1.30679e-20)
(1.18501 0.782274 -9.28762e-20)
(1.11126 0.75242 5.78162e-20)
(1.0337 0.718679 -6.08159e-20)
(0.952556 0.67875 2.29851e-19)
(0.869473 0.630145 -4.91009e-19)
(0.798752 0.578695 -3.80462e-21)
(0.75115 0.534424 -1.47587e-19)
(0.721049 0.498497 5.4607e-19)
(0.687865 0.460497 -2.57539e-21)
(0.61417 0.398952 -2.63832e-19)
(0.483911 0.307288 -4.70458e-19)
(0.323965 0.203094 0)
(0.172083 0.106617 0)
(0.0595121 0.0361225 1.28856e-19)
(0.00327422 0.00199302 -7.56553e-20)
(0.233844 0.154418 2.85626e-20)
(1.07531 0.701047 -7.58081e-20)
(1.26761 0.835438 -1.72303e-20)
(1.28832 0.86578 0)
(1.24009 0.852396 -1.57507e-21)
(1.16997 0.824301 -8.55201e-20)
(1.09553 0.792675 1.40003e-19)
(1.01679 0.757078 2.39948e-19)
(0.933848 0.71509 2.98806e-19)
(0.848263 0.664019 -4.01115e-19)
(0.774779 0.609478 -4.43583e-19)
(0.725093 0.562146 3.94649e-19)
(0.693655 0.523707 0)
(0.658674 0.481909 -1.19812e-19)
(0.583976 0.414209 -2.85202e-19)
(0.457442 0.316983 -3.37746e-19)
(0.304189 0.207763 -3.99696e-19)
(0.158683 0.106867 1.18084e-19)
(0.0529613 0.0348318 -6.94499e-20)
(0.00245357 0.00161864 2.70435e-22)
(0.234655 0.16348 0)
(1.06784 0.73728 0)
(1.25602 0.877915 2.60888e-21)
(1.27446 0.908501 0)
(1.22547 0.893705 2.98664e-20)
(1.15507 0.864036 5.83877e-20)
(1.08005 0.830887 0)
(1.00022 0.79371 2.85622e-20)
(0.915574 0.749978 4.98589e-19)
(0.827467 0.696756 -9.21821e-19)
(0.751033 0.63933 0)
(0.699074 0.589174 -2.53845e-19)
(0.666066 0.547878 -3.05188e-21)
(0.628898 0.501018 -2.42098e-21)
(0.55323 0.42649 3.04738e-19)
(0.43006 0.323654 -2.28791e-22)
(0.282321 0.209142 -8.60059e-19)
(0.143262 0.104358 2.53831e-19)
(0.0453362 0.0321346 7.50019e-20)
(0.00141984 0.0010427 0)
(0.235503 0.172411 -1.2356e-19)
(1.0607 0.771858 -5.65644e-20)
(1.24445 0.917964 -6.48801e-20)
(1.26075 0.948663 3.55179e-20)
(1.21107 0.932572 3.69927e-20)
(1.14047 0.901542 0)
(1.06496 0.8671 8.47598e-20)
(0.984157 0.828592 -6.34848e-20)
(0.897879 0.783422 3.90803e-21)
(0.80724 0.728382 6.78213e-20)
(0.727666 0.668432 5.74039e-19)
(0.67315 0.615717 -8.90612e-20)
(0.638097 0.570858 -3.36205e-19)
(0.598385 0.51755 -1.39386e-19)
(0.522101 0.43575 1.65449e-19)
(0.402141 0.327104 -4.17539e-23)
(0.259198 0.207081 2.3148e-19)
(0.126867 0.0993366 -5.45677e-19)
(0.0373888 0.0284186 6.44875e-19)
(0.00033152 0.000341083 9.40441e-20)
(0.236139 0.18111 4.83443e-20)
(1.0539 0.804866 -3.28749e-20)
(1.23304 0.955694 6.34137e-21)
(1.2473 0.986387 3.12567e-20)
(1.19704 0.969106 -9.8905e-22)
(1.12629 0.93689 -1.01751e-19)
(1.05038 0.901358 2.47202e-20)
(0.968699 0.861741 -2.64607e-19)
(0.880889 0.815418 -5.4918e-19)
(0.787716 0.758913 -5.49175e-19)
(0.704843 0.696937 0)
(0.647376 0.641867 -3.90588e-19)
(0.609615 0.592547 4.84249e-19)
(0.566993 0.531476 0)
(0.490553 0.441876 -3.54124e-19)
(0.373932 0.326808 2.10948e-19)
(0.235906 0.201371 -2.48616e-19)
(0.110841 0.092228 -2.93343e-19)
(0.0299006 0.024155 -5.19019e-19)
(-0.000671608 -0.000381391 -4.04633e-19)
(0.237103 0.189663 -5.59806e-20)
(1.04732 0.83628 3.51996e-20)
(1.22186 0.991165 7.80166e-20)
(1.23421 1.02176 5.09055e-20)
(1.18344 1.0034 5.98234e-21)
(1.11262 0.970166 -5.47107e-20)
(1.0364 0.933709 8.22744e-20)
(0.953934 0.893196 -2.71805e-19)
(0.864685 0.845984 -3.25025e-19)
(0.769023 0.788385 5.74472e-19)
(0.682711 0.724939 1.25991e-18)
(0.621825 0.667631 0)
(0.580566 0.612999 0)
(0.534526 0.543076 -1.60388e-19)
(0.458187 0.444628 0)
(0.345442 0.321805 4.53323e-19)
(0.213697 0.191314 5.34256e-19)
(0.0971528 0.0831452 0)
(0.0240904 0.0198107 0)
(-0.00146543 -0.00102961 4.34441e-19)
(0.237707 0.197735 6.52478e-20)
(1.04095 0.866085 5.24323e-20)
(1.21096 1.02449 5.74671e-20)
(1.22153 1.05492 -5.54611e-20)
(1.17036 1.03556 -1.19642e-21)
(1.09952 1.00144 5.58093e-20)
(1.02307 0.964208 -1.12729e-19)
(0.939924 0.922979 -1.23933e-22)
(0.849348 0.875126 -5.08102e-21)
(0.751268 0.816811 -5.14979e-21)
(0.661426 0.752475 6.4868e-19)
(0.5966 0.692984 0)
(0.551012 0.632448 4.89655e-19)
(0.500766 0.552901 3.42004e-19)
(0.424151 0.443958 8.24846e-19)
(0.315995 0.310785 2.43908e-19)
(0.193831 0.174573 -2.87395e-19)
(0.0898683 0.0696096 -1.68795e-19)
(0.025008 0.0142977 0)
(-0.00081208 -0.00133331 4.66395e-19)
(0.23863 0.205817 -1.5029e-19)
(1.03478 0.894432 0)
(1.20036 1.05571 7.1135e-20)
(1.20928 1.08593 -4.95963e-20)
(1.15783 1.06569 1.30509e-20)
(1.08701 1.03081 -5.86359e-20)
(1.01043 0.992907 2.18412e-19)
(0.926705 0.951127 -2.23245e-20)
(0.834917 0.902852 0)
(0.734534 0.844172 -6.33327e-19)
(0.641127 0.779521 -1.40942e-18)
(0.571847 0.717922 5.75753e-20)
(0.521137 0.651228 6.74677e-19)
(0.465574 0.561712 0)
(0.387264 0.440482 5.56105e-19)
(0.28327 0.292834 0)
(0.174572 0.145913 0)
(0.0940209 0.0375984 -1.82407e-19)
(0.0567946 -0.0065356 0)
(0.0272926 0.00709689 1.24862e-19)
(0.239101 0.213302 -1.70792e-19)
(1.02877 0.921511 0)
(1.19003 1.08503 1.21288e-19)
(1.19743 1.11505 0)
(1.14581 1.09404 -1.16465e-20)
(1.07505 1.05854 0)
(0.998424 1.02012 1.07333e-20)
(0.914185 0.977979 3.72268e-20)
(0.821274 0.929534 4.06307e-20)
(0.71866 0.87086 -6.94282e-19)
(0.621636 0.806489 4.23112e-20)
(0.547319 0.743016 4.63005e-19)
(0.490604 0.670145 6.5787e-19)
(0.428133 0.570426 8.86374e-20)
(0.345713 0.435883 4.35387e-19)
(0.242582 0.26912 0)
(0.145146 0.101953 6.05057e-19)
(0.0804084 -0.00845901 -3.5429e-19)
(0.0330193 0.0587293 4.10382e-19)
(-0.0381396 0.453972 -4.89165e-19)
(0.239505 0.220614 1.43125e-19)
(1.02272 0.947212 2.17075e-19)
(1.17992 1.11277 0)
(1.18583 1.14271 5.26746e-21)
(1.13413 1.1212 4.13569e-20)
(1.06336 1.08533 6.4256e-20)
(0.986731 1.04664 7.5247e-20)
(0.901957 1.00449 0)
(0.807894 0.956285 2.69473e-19)
(0.702974 0.898208 -3.62607e-20)
(0.602036 0.834848 0)
(0.521758 0.769949 0)
(0.457612 0.690795 5.8872e-19)
(0.386177 0.579891 -2.73602e-19)
(0.296474 0.432258 -4.40481e-19)
(0.189876 0.243311 0)
(0.0821947 0.108467 3.04435e-19)
(0.00764608 0.465726 -3.52538e-19)
(0.032302 1.92121 -1.97837e-19)
(0.0588406 2.82216 -2.49067e-19)
(0.239517 0.227339 -1.09416e-19)
(1.01667 0.971704 -2.82148e-19)
(1.17004 1.13893 7.41882e-20)
(1.17449 1.16879 5.5974e-20)
(1.12283 1.14697 0)
(1.05203 1.11091 3.28285e-20)
(0.975562 1.07217 1.01823e-19)
(0.890211 1.03022 -1.79728e-20)
(0.795051 0.982585 4.01348e-20)
(0.687862 0.9256 6.61002e-19)
(0.582928 0.863836 7.11251e-19)
(0.496139 0.798415 5.17907e-19)
(0.423134 0.713286 5.9161e-19)
(0.341314 0.589231 -6.41364e-19)
(0.246055 0.432854 -6.64226e-19)
(0.123671 0.287347 0)
(0.0424492 0.871494 0)
(0.0902981 2.57642 1.69291e-19)
(0.0926197 3.20935 0)
(0.0936737 3.38872 4.11843e-19)
(0.242249 0.233559 0)
(1.01084 0.99534 0)
(1.1601 1.16337 0)
(1.16319 1.19311 1.79519e-20)
(1.11162 1.17112 4.08312e-20)
(1.04088 1.13512 9.70275e-21)
(0.964841 1.09661 6.49013e-20)
(0.878878 1.05505 -1.75022e-20)
(0.782682 1.00826 3.35746e-19)
(0.673315 0.952872 -9.5677e-21)
(0.564385 0.893168 1.40407e-18)
(0.470869 0.828483 -5.96788e-20)
(0.387201 0.738452 7.17365e-20)
(0.295762 0.59645 9.27407e-20)
(0.185247 0.450958 -1.77517e-21)
(0.0967936 1.01044 1.69994e-21)
(0.128751 2.75691 -8.86617e-19)
(0.133491 3.30097 -3.33677e-19)
(0.123236 3.4247 1.74297e-19)
(0.111933 3.44463 -1.9447e-19)
(0.164603 0.178349 6.594e-20)
(1.00122 1.02099 0)
(1.14998 1.18634 -1.55226e-19)
(1.15227 1.216 -1.57691e-19)
(1.10094 1.19413 1.12925e-19)
(1.03055 1.15844 -4.65012e-21)
(0.954441 1.11988 -6.61468e-20)
(0.868034 1.07897 1.94251e-19)
(0.770895 1.03336 -2.74698e-19)
(0.659538 0.980124 0)
(0.546659 0.922842 6.89704e-19)
(0.446529 0.859953 -4.22145e-19)
(0.350345 0.769471 0)
(0.243366 0.605988 8.66597e-20)
(0.138292 0.797806 2.10034e-19)
(0.142882 2.55724 -2.42357e-19)
(0.192041 3.33088 2.73452e-19)
(0.173772 3.43713 1.49374e-19)
(0.143606 3.45559 1.69096e-19)
(0.123887 3.46404 2.74575e-19)
(0.278042 0.272913 -1.24797e-19)
(0.984925 1.0323 0)
(1.13238 1.21284 1.72631e-19)
(1.13808 1.24876 1.82169e-19)
(1.08409 1.22811 -1.36347e-19)
(1.01318 1.19286 -2.09168e-20)
(0.935917 1.15581 5.95587e-20)
(0.848973 1.11624 1.51634e-20)
(0.750473 1.07292 2.61288e-19)
(0.636352 1.02399 5.69496e-19)
(0.518117 0.972218 3.88948e-20)
(0.406904 0.912793 3.74159e-19)
(0.284534 0.81463 6.68658e-20)
(0.207497 0.972249 -8.50058e-20)
(0.213135 2.43041 -1.92238e-19)
(0.26379 3.33761 1.89158e-19)
(0.24686 3.46516 -2.13151e-19)
(0.21223 3.48305 -1.24319e-19)
(0.178292 3.50677 -1.1124e-19)
(0.133413 3.50043 -1.30256e-20)
(0.268546 0.272063 0)
(0.982691 1.05585 5.22452e-20)
(1.12426 1.23689 -3.63729e-20)
(1.12767 1.27266 -2.25317e-20)
(1.07345 1.25169 -9.90675e-20)
(1.0026 1.21666 2.60599e-20)
(0.925049 1.17985 -2.97272e-20)
(0.837897 1.14116 1.35476e-20)
(0.738849 1.09938 -2.71772e-19)
(0.62342 1.05346 -1.43478e-20)
(0.502222 1.00571 -1.2451e-18)
(0.385445 0.948722 5.33155e-20)
(0.273855 0.889776 -6.31048e-20)
(0.241749 1.56555 -7.86316e-20)
(0.302688 3.14629 1.75739e-20)
(0.316878 3.46885 1.72346e-21)
(0.275075 3.51521 3.23642e-19)
(0.240985 3.53691 1.65842e-19)
(0.195351 3.55601 -5.55078e-20)
(0.145615 3.55144 -6.68101e-20)
(0.254538 0.270261 1.3487e-19)
(0.979588 1.08205 3.58398e-19)
(1.11576 1.26305 -1.04766e-19)
(1.11681 1.29809 -8.52355e-20)
(1.06238 1.27675 0)
(0.991672 1.24176 7.00023e-20)
(0.914082 1.20523 -2.73396e-20)
(0.826975 1.16736 1.18171e-20)
(0.727686 1.12721 -3.02049e-20)
(0.611458 1.08448 -5.13568e-19)
(0.488151 1.04105 -5.73735e-19)
(0.366718 0.986792 -4.36171e-19)
(0.274084 1.03385 -4.771e-19)
(0.304819 2.31288 4.88674e-19)
(0.381396 3.39726 4.15247e-19)
(0.354747 3.52657 0)
(0.306566 3.56136 0)
(0.269786 3.5937 -4.50651e-20)
(0.225294 3.63827 0)
(0.156351 3.62146 -7.04975e-20)
(0.244617 0.272352 -2.04589e-19)
(0.974522 1.10919 -3.07842e-19)
(1.1059 1.29051 0)
(1.10473 1.32442 6.34322e-21)
(1.05012 1.30251 -1.16171e-19)
(0.979692 1.26745 1.27156e-19)
(0.902383 1.23122 -8.16608e-21)
(0.815545 1.19409 6.68357e-21)
(0.71627 1.15552 -1.91155e-19)
(0.599652 1.11593 2.56692e-20)
(0.475086 1.07677 0)
(0.350983 1.0307 0)
(0.298895 1.32161 -4.3348e-19)
(0.380989 2.9768 1.74799e-19)
(0.445298 3.49781 2.27183e-19)
(0.392931 3.56129 0)
(0.351156 3.61618 -3.07156e-20)