/*--------------------------------*- C++ -*----------------------------------*\
  =========                 |
  \\      /  F ield         | OpenFOAM: The Open Source CFD Toolbox
   \\    /   O peration     | Website:  https://openfoam.org
    \\  /    A nd           | Version:  6
     \\/     M anipulation  |
\*---------------------------------------------------------------------------*/
FoamFile
{
    version     2.0;
    format      ascii;
    class       volScalarField;
    location    "110";
    object      p;
}
// * * * * * * * * * * * * * * * * * * * * * * * * * * * * * * * * * * * * * //

dimensions      [0 2 -2 0 0 0 0];

internalField   nonuniform List<scalar> 
8800
(
1.04694
0.997622
0.959659
0.931594
0.91144
0.896863
0.886278
0.878757
0.873897
0.871862
0.87327
0.877643
0.884462
0.893905
0.906655
0.923985
0.947869
0.980971
1.02391
1.07643
0.881422
0.887768
0.896921
0.900473
0.89787
0.89179
0.884861
0.878636
0.873857
0.871019
0.870826
0.873491
0.878162
0.884313
0.891429
0.898476
0.903363
0.903245
0.896576
0.887682
0.85492
0.861158
0.865662
0.86954
0.872496
0.873457
0.872384
0.870284
0.868333
0.867532
0.868607
0.871098
0.874014
0.876307
0.876845
0.875069
0.871713
0.867708
0.862932
0.859217
0.850594
0.853361
0.855973
0.858138
0.859886
0.861468
0.862589
0.862967
0.862887
0.86303
0.863885
0.865071
0.865848
0.865725
0.864772
0.863433
0.861777
0.859484
0.857079
0.855513
0.845503
0.84693
0.848775
0.850866
0.852591
0.8539
0.85502
0.85603
0.85688
0.85767
0.85844
0.858952
0.859019
0.85869
0.858048
0.856954
0.855314
0.853433
0.852086
0.851284
0.840467
0.841372
0.842625
0.844264
0.845973
0.847525
0.848837
0.849995
0.851109
0.852191
0.853048
0.853502
0.853565
0.85324
0.852471
0.851309
0.84997
0.84872
0.847906
0.847382
0.835501
0.836158
0.837127
0.838459
0.839926
0.841468
0.842986
0.844395
0.845717
0.847001
0.848041
0.848614
0.848699
0.848316
0.847578
0.846671
0.845707
0.844822
0.844251
0.843866
0.830601
0.831106
0.831901
0.833059
0.834383
0.835831
0.837381
0.838977
0.840562
0.842115
0.843379
0.844087
0.844251
0.843997
0.843489
0.842845
0.842144
0.841506
0.841088
0.840788
0.825709
0.82611
0.826781
0.827822
0.829081
0.830485
0.83204
0.833747
0.835567
0.837431
0.838982
0.839912
0.840294
0.840292
0.840042
0.839633
0.839149
0.838711
0.838406
0.838161
0.82074
0.821067
0.821652
0.82262
0.823841
0.825243
0.826848
0.828675
0.830718
0.832916
0.834839
0.836114
0.836816
0.837107
0.837119
0.836958
0.836686
0.836416
0.836196
0.83599
0.815603
0.815874
0.816401
0.817328
0.818542
0.819986
0.821685
0.823679
0.825987
0.828575
0.830964
0.832681
0.83377
0.834396
0.834696
0.834788
0.834732
0.834615
0.834465
0.834285
0.810203
0.81043
0.81092
0.811838
0.813087
0.814615
0.816454
0.818674
0.821323
0.824395
0.827352
0.829596
0.831139
0.832151
0.832778
0.833132
0.833305
0.833333
0.833241
0.833079
0.80444
0.804633
0.805106
0.806044
0.807369
0.809027
0.811064
0.813582
0.816663
0.820335
0.823978
0.826852
0.828928
0.830385
0.831387
0.832052
0.832457
0.832619
0.832575
0.832425
0.798202
0.798368
0.798841
0.799828
0.80127
0.803112
0.805416
0.808319
0.811939
0.816345
0.820819
0.824448
0.827156
0.829133
0.830566
0.831579
0.832237
0.832535
0.832533
0.832389
0.791358
0.791501
0.791989
0.793054
0.79466
0.796746
0.799398
0.802786
0.807075
0.812376
0.817853
0.822383
0.825843
0.828434
0.830361
0.831774
0.832719
0.833159
0.833195
0.833053
0.783755
0.783876
0.784392
0.785565
0.787385
0.789788
0.792881
0.796876
0.801987
0.808377
0.81506
0.820665
0.825013
0.828331
0.83085
0.832727
0.833994
0.83458
0.834651
0.834506
0.775191
0.775294
0.775846
0.777162
0.779259
0.782063
0.785708
0.790458
0.796581
0.804292
0.81242
0.819304
0.824699
0.828873
0.832102
0.834525
0.836154
0.836893
0.836994
0.836842
0.765376
0.765478
0.766099
0.767594
0.770049
0.773358
0.777695
0.783382
0.79075
0.800062
0.809918
0.818313
0.824944
0.830125
0.834187
0.837249
0.839286
0.840185
0.84031
0.840148
0.754021
0.7541
0.754811
0.756559
0.759457
0.763405
0.768614
0.775471
0.784373
0.795627
0.807541
0.817707
0.825784
0.832149
0.83717
0.840983
0.843469
0.844525
0.844667
0.84449
0.740679
0.740746
0.741568
0.743632
0.747098
0.751868
0.758188
0.766519
0.777319
0.790929
0.805278
0.817509
0.827252
0.834985
0.841125
0.845784
0.848747
0.849947
0.850094
0.8499
0.724742
0.7248
0.725776
0.728265
0.732481
0.738324
0.746082
0.756295
0.769463
0.785924
0.803139
0.817743
0.829379
0.838672
0.846073
0.851667
0.855112
0.856426
0.856562
0.856347
0.705358
0.705412
0.706615
0.709704
0.71494
0.722232
0.731901
0.744557
0.7607
0.780603
0.801148
0.818436
0.832193
0.843222
0.852001
0.858598
0.862482
0.863853
0.863955
0.863721
0.681269
0.681329
0.682889
0.686881
0.693591
0.702916
0.715209
0.731093
0.750985
0.775012
0.799362
0.819627
0.835701
0.848618
0.858875
0.86646
0.870669
0.872011
0.872057
0.871808
0.650504
0.650595
0.652779
0.658241
0.667266
0.679599
0.695613
0.715801
0.740385
0.769275
0.797888
0.821372
0.839913
0.854798
0.866591
0.875037
0.879372
0.880575
0.880546
0.880289
0.609728
0.609961
0.613436
0.621623
0.634575
0.651603
0.672942
0.698802
0.729127
0.763607
0.796878
0.823752
0.844829
0.861723
0.874978
0.884012
0.888182
0.88913
0.889018
0.888766
0.552569
0.55377
0.560743
0.574637
0.594474
0.618788
0.647525
0.680557
0.717625
0.758299
0.796507
0.826862
0.850453
0.869265
0.88378
0.89297
0.896622
0.897238
0.897058
0.896823
0.46979
0.477935
0.494046
0.518431
0.548585
0.582661
0.620396
0.661619
0.706104
0.753453
0.796925
0.831016
0.857332
0.878156
0.893559
0.902422
0.905339
0.905633
0.905421
0.905232
0.381327
0.39928
0.425473
0.461141
0.502182
0.546125
0.592816
0.64227
0.694374
0.748837
0.798215
0.836674
0.866266
0.889261
0.90523
0.91298
0.914865
0.914893
0.914722
0.91461
0.305249
0.327229
0.361838
0.407151
0.457818
0.51106
0.566458
0.623969
0.683455
0.744646
0.799447
0.841788
0.874201
0.898877
0.914698
0.921085
0.922234
0.92218
0.922054
0.921977
0.242522
0.266966
0.307359
0.359589
0.417762
0.478732
0.541771
0.606619
0.672941
0.74037
0.800138
0.845992
0.880817
0.906676
0.922123
0.927555
0.928348
0.928271
0.92817
0.928107
0.190221
0.216179
0.260765
0.31835
0.382494
0.449773
0.519257
0.590504
0.662958
0.736067
0.800389
0.849445
0.88646
0.913309
0.928337
0.93302
0.933595
0.933506
0.93342
0.933363
0.145768
0.172621
0.220308
0.282215
0.351346
0.423968
0.498979
0.575817
0.653735
0.731993
0.800462
0.852425
0.891411
0.919078
0.933642
0.937759
0.938195
0.938095
0.938015
0.93796
0.107078
0.134513
0.184612
0.250094
0.323473
0.400738
0.480631
0.562474
0.645343
0.728295
0.800539
0.855108
0.89581
0.924087
0.938199
0.941899
0.942239
0.942122
0.942039
0.941983
0.0726418
0.100513
0.152583
0.221108
0.298171
0.379518
0.463798
0.550217
0.637668
0.724984
0.800678
0.857557
0.899698
0.92841
0.942081
0.945468
0.945736
0.945599
0.945508
0.945446
0.0413979
0.0696444
0.123375
0.194558
0.274872
0.359856
0.448112
0.538758
0.630531
0.721985
0.800895
0.859818
0.903131
0.93207
0.945302
0.948447
0.948668
0.948521
0.948422
0.948351
0.012495
0.041118
0.0963303
0.169914
0.253124
0.341381
0.433269
0.527858
0.623749
0.719217
0.801224
0.861991
0.906213
0.93515
0.947896
0.950843
0.95105
0.950918
0.950823
0.950743
-0.014502
0.0144482
0.0710073
0.146747
0.232571
0.323801
0.419034
0.51732
0.61718
0.716633
0.801727
0.864214
0.909101
0.937791
0.949979
0.952748
0.952978
0.952898
0.952828
0.952741
-0.0401263
-0.0107736
0.0470258
0.124738
0.212937
0.30688
0.405213
0.506986
0.610694
0.714174
0.802476
0.866664
0.912009
0.940215
0.951758
0.954354
0.954634
0.954643
0.954619
0.954533
-0.0645594
-0.0348089
0.0241502
0.103663
0.194016
0.290446
0.391656
0.496725
0.604174
0.711773
0.803539
0.869543
0.915202
0.94269
0.95349
0.955899
0.956247
0.956362
0.956399
0.956321
-0.0880006
-0.0578432
0.0021954
0.0833634
0.175676
0.274377
0.378245
0.48642
0.597505
0.709324
0.804923
0.873055
0.918975
0.945489
0.955406
0.957605
0.958029
0.958246
0.958342
0.958275
-0.110599
-0.0799876
-0.0189446
0.0637402
0.157815
0.258586
0.364904
0.475992
0.590585
0.706696
0.806573
0.877364
0.923673
0.948914
0.957667
0.959582
0.960112
0.960415
0.960537
0.960472
-0.132474
-0.101372
-0.0393267
0.0447315
0.140386
0.24302
0.351582
0.465374
0.583322
0.703742
0.808355
0.882562
0.929679
0.953387
0.960398
0.961732
0.962401
0.96287
0.963027
0.962929
-0.153542
-0.121979
-0.0589839
0.0262882
0.123356
0.227669
0.338251
0.454536
0.57565
0.700339
0.810072
0.888617
0.93737
0.959521
0.963999
0.963974
0.96458
0.965574
0.966099
0.965983
-0.17383
-0.141835
-0.0779566
0.00839684
0.106721
0.212524
0.324921
0.443457
0.567527
0.696355
0.811496
0.895339
0.946995
0.968207
0.969626
0.966986
0.966794
0.96871
0.970562
0.970846
-0.193432
-0.160945
-0.0962692
-0.00895405
0.0904949
0.197613
0.311615
0.432155
0.558927
0.691692
0.812365
0.902416
0.958525
0.980251
0.979053
0.973103
0.971071
0.973931
0.978232
0.980171
-0.212239
-0.179315
-0.113902
-0.0257361
0.0746932
0.182973
0.298372
0.420665
0.549863
0.68629
0.812424
0.909404
0.971581
0.995764
0.993572
0.984888
0.980094
0.981409
0.986305
0.98901
-0.23036
-0.196987
-0.130884
-0.042006
0.0592568
0.168541
0.285118
0.408903
0.540228
0.68002
0.811418
0.915894
0.985741
1.01439
1.01327
1.00329
0.994886
0.988383
0.981504
0.985978
-0.24775
-0.214031
-0.147367
-0.0579665
0.0438872
0.153996
0.271455
0.396415
0.529529
0.672338
0.808817
0.921318
1.00092
1.03623
1.03773
1.02781
1.01413
0.998659
0.975327
0.980256
-0.264308
-0.230455
-0.163213
-0.0734444
0.0288242
0.139611
0.257543
0.383463
0.517958
0.663294
0.804272
0.924324
1.01525
1.05915
1.0626
1.05087
1.03242
0.999223
0.944681
0.92287
-0.279948
-0.247315
-0.178016
-0.0880119
0.0148726
0.125873
0.243656
0.370308
0.505769
0.652992
0.797619
0.923863
1.02639
1.08046
1.08065
1.06273
1.0305
0.970342
0.908586
0.871618
-0.321754
-0.263997
-0.191488
-0.102659
0.00125021
0.111759
0.229939
0.356803
0.4927
0.640961
0.788152
0.918639
1.03047
1.09315
1.08951
1.04827
0.979561
0.903179
0.831443
0.791791
-0.29445
-0.275304
-0.211931
-0.122457
-0.0199386
0.0905161
0.208275
0.334997
0.470887
0.619426
0.767948
0.900753
1.0089
1.07891
1.03901
0.903673
0.797762
0.724296
0.654657
0.673263
-0.324091
-0.291765
-0.227494
-0.138405
-0.0362167
0.0741962
0.192352
0.318729
0.454114
0.601822
0.749091
0.879554
0.976133
1.01614
0.937567
0.775072
0.65107
0.567466
0.479772
0.516013
-0.346613
-0.312001
-0.246018
-0.156856
-0.0546818
0.0558225
0.174035
0.299872
0.43429
0.580244
0.72441
0.849182
0.933528
0.935032
0.801827
0.628673
0.486686
0.384105
0.283798
0.30615
-0.368283
-0.332725
-0.265448
-0.175656
-0.0733805
0.0370798
0.154891
0.27995
0.413055
0.556573
0.696097
0.811079
0.876916
0.843829
0.661639
0.470691
0.301084
0.160176
0.0308779
0.0333211
-0.389508
-0.353669
-0.285571
-0.195232
-0.0928227
0.0174546
0.134669
0.258726
0.390099
0.530504
0.663915
0.768145
0.811911
0.725332
0.522703
0.314574
0.121384
-0.0369295
-0.242723
-0.32384
-0.410979
-0.375316
-0.306794
-0.216105
-0.113571
-0.00347724
0.113154
0.236088
0.365462
0.502212
0.628469
0.722727
0.736551
0.599183
0.394734
0.177234
-0.0195955
-0.182468
-0.304694
-0.415919
-0.433752
-0.398138
-0.329464
-0.238659
-0.136162
-0.0263899
0.0895111
0.211066
0.337959
0.470222
0.588547
0.668366
0.652555
0.478915
0.274302
0.0634747
-0.116411
-0.214852
-0.2405
-0.253368
-0.45798
-0.422433
-0.35371
-0.262976
-0.160742
-0.0515106
0.0633523
0.183123
0.306935
0.433711
0.542943
0.603234
0.564796
0.363075
0.161101
-0.029064
-0.165226
-0.203606
-0.211794
-0.212162
-0.483958
-0.448333
-0.379574
-0.289047
-0.187262
-0.0788585
0.0346335
0.152174
0.272283
0.392657
0.491999
0.533989
0.457763
0.256382
0.0615121
-0.10375
-0.17998
-0.19399
-0.194919
-0.194785
-0.51169
-0.475874
-0.407086
-0.316878
-0.215752
-0.108443
0.00332293
0.118177
0.233993
0.347156
0.435641
0.459405
0.344572
0.159069
-0.0244254
-0.155275
-0.184321
-0.184901
-0.185399
-0.184987
-0.540932
-0.504905
-0.436159
-0.346406
-0.246145
-0.140231
-0.0305784
0.0811291
0.192117
0.297339
0.374821
0.377407
0.244833
0.0706029
-0.0913075
-0.166948
-0.181631
-0.17958
-0.179272
-0.178869
-0.571136
-0.535083
-0.46654
-0.377411
-0.278268
-0.174083
-0.0669387
0.041137
0.146891
0.243776
0.309721
0.295317
0.153962
-0.00660444
-0.135932
-0.175206
-0.174598
-0.175094
-0.174864
-0.174555
-0.601863
-0.565884
-0.497752
-0.409489
-0.311782
-0.209687
-0.105482
-0.00152192
0.0986241
0.187479
0.239544
0.218337
0.0731644
-0.0670813
-0.161579
-0.170098
-0.17173
-0.172103
-0.172059
-0.171891
-0.632125
-0.596452
-0.529084
-0.44202
-0.346144
-0.246569
-0.145742
-0.0463452
0.047761
0.129344
0.169964
0.14099
0.00488565
-0.109349
-0.166247
-0.176479
-0.171234
-0.170218
-0.169868
-0.169708
-0.660343
-0.62553
-0.559511
-0.47413
-0.380583
-0.284025
-0.18704
-0.0925759
-0.00487529
0.069848
0.105614
0.0623957
-0.0501864
-0.141787
-0.164781
-0.168062
-0.168726
-0.168223
-0.168012
-0.16788
-0.685226
-0.651633
-0.587659
-0.504627
-0.414045
-0.32111
-0.228488
-0.139266
-0.0580008
0.00957069
0.0429769
-0.00486181
-0.0916408
-0.160828
-0.181611
-0.171812
-0.168295
-0.167136
-0.166774
-0.166604
-0.704207
-0.672684
-0.611791
-0.532014
-0.445225
-0.356641
-0.268967
-0.185324
-0.110297
-0.0496307
-0.0191267
-0.057393
-0.118876
-0.164065
-0.169496
-0.168696
-0.167057
-0.16641
-0.166168
-0.165994
-0.715314
-0.68664
-0.629875
-0.554572
-0.472612
-0.389237
-0.307151
-0.22948
-0.160633
-0.105125
-0.0758035
-0.101154
-0.134815
-0.160852
-0.161036
-0.164665
-0.166124
-0.166294
-0.166286
-0.166206
-0.715903
-0.691175
-0.639862
-0.570488
-0.494593
-0.417444
-0.341615
-0.270245
-0.207749
-0.156275
-0.123144
-0.140593
-0.148591
-0.162177
-0.165358
-0.166248
-0.167059
-0.167405
-0.167544
-0.167548
-0.703589
-0.683621
-0.639636
-0.578052
-0.509725
-0.439897
-0.371039
-0.306101
-0.249855
-0.204301
-0.158816
-0.177356
-0.164845
-0.172807
-0.173951
-0.171648
-0.170844
-0.170961
-0.171144
-0.171144
-0.676436
-0.661899
-0.627449
-0.576091
-0.516986
-0.455621
-0.394406
-0.335955
-0.285207
-0.247243
-0.199204
-0.194039
-0.18606
-0.191385
-0.183969
-0.180399
-0.178158
-0.177999
-0.178242
-0.178253
-0.637932
-0.628687
-0.604615
-0.564953
-0.516448
-0.464388
-0.411151
-0.359233
-0.313272
-0.280759
-0.249166
-0.22103
-0.192862
-0.196258
-0.202269
-0.195454
-0.191384
-0.190677
-0.191142
-0.191161
-0.595097
-0.589821
-0.576029
-0.547753
-0.510222
-0.467075
-0.421405
-0.37558
-0.333466
-0.302162
-0.274058
-0.246062
-0.210751
-0.183747
-0.166819
-0.176476
-0.200218
-0.214062
-0.217989
-0.218366
-0.557571
-0.554337
-0.547729
-0.529744
-0.501147
-0.465484
-0.426192
-0.384987
-0.344846
-0.31205
-0.286149
-0.268713
-0.260739
-0.270932
-0.295649
-0.331555
-0.337204
-0.305158
-0.287105
-0.289153
-0.530518
-0.5286
-0.525267
-0.514634
-0.492813
-0.462708
-0.427411
-0.38845
-0.348141
-0.311467
-0.283568
-0.277753
-0.319012
-0.394624
-0.473178
-0.510783
-0.513068
-0.475632
-0.426969
-0.409584
-0.510667
-0.509993
-0.508881
-0.50363
-0.487679
-0.461192
-0.427085
-0.387781
-0.344495
-0.301227
-0.270823
-0.246155
-0.238097
-0.261487
-0.313601
-0.329743
-0.312048
-0.283905
-0.250885
-0.234219
-0.49901
-0.498789
-0.498186
-0.495804
-0.485
-0.460664
-0.426209
-0.384717
-0.336776
-0.283914
-0.238795
-0.176713
-0.0974855
-0.0251751
0.017807
0.0534794
0.0874177
0.119969
0.146622
0.160144
-0.490906
-0.490761
-0.490361
-0.489706
-0.483143
-0.46127
-0.42573
-0.380711
-0.327077
-0.262044
-0.195446
-0.109278
0.0321897
0.208895
0.37547
0.506174
0.59214
0.644519
0.672661
0.68448
-0.485563
-0.485521
-0.48541
-0.485262
-0.481405
-0.463018
-0.42646
-0.377179
-0.317438
-0.242084
-0.157083
-0.0612335
0.122708
0.376505
0.638382
0.864465
1.02217
1.1101
1.15117
1.16545
-0.481178
-0.481172
-0.481097
-0.480995
-0.479611
-0.465218
-0.428581
-0.375493
-0.310392
-0.227684
-0.131094
-0.0286261
0.166447
0.454232
0.768323
1.05373
1.26978
1.3898
1.43867
1.45325
-0.477468
-0.477459
-0.477331
-0.477061
-0.476866
-0.466898
-0.431991
-0.377177
-0.307639
-0.220791
-0.119546
-0.014443
0.16654
0.446513
0.755062
1.04173
1.26913
1.40034
1.45132
1.46378
-0.474704
-0.474715
-0.474672
-0.474616
-0.474978
-0.468026
-0.436792
-0.381343
-0.309834
-0.222532
-0.12332
-0.025106
0.123806
0.371896
0.637804
0.878482
1.07367
1.18884
1.23297
1.24313
-0.471951
-0.472058
-0.472329
-0.47282
-0.47318
-0.469485
-0.441992
-0.387575
-0.317022
-0.232512
-0.139881
-0.0527737
0.0617342
0.264895
0.480209
0.661974
0.806108
0.891745
0.924862
0.932059
-0.468933
-0.46912
-0.469429
-0.469878
-0.470419
-0.469233
-0.445988
-0.394799
-0.328002
-0.248411
-0.164594
-0.0890818
-0.00487725
0.149889
0.315429
0.447183
0.547393
0.606297
0.628634
0.633557
-0.466139
-0.466308
-0.466457
-0.466532
-0.466847
-0.466437
-0.447518
-0.402308
-0.341445
-0.268361
-0.193389
-0.12974
-0.0680606
0.0453807
0.170313
0.266131
0.33534
0.375402
0.390452
0.393726
-0.464496
-0.464502
-0.464126
-0.462995
-0.461388
-0.460362
-0.446982
-0.409981
-0.356007
-0.28886
-0.223328
-0.170167
-0.124202
-0.0391606
0.0537667
0.123364
0.173942
0.203071
0.21412
0.215796
-0.46598
-0.465784
-0.464879
-0.462453
-0.458306
-0.455568
-0.449047
-0.419608
-0.369963
-0.308495
-0.252884
-0.208065
-0.173908
-0.109045
-0.0367921
0.0164172
0.054381
0.0768785
0.0841786
0.0849067
-0.471556
-0.471494
-0.471264
-0.470719
-0.469566
-0.468107
-0.462064
-0.433497
-0.382865
-0.32721
-0.279509
-0.241234
-0.212868
-0.163243
-0.106998
-0.0657076
-0.035543
-0.0181913
-0.0121895
-0.0118517
-0.477734
-0.478329
-0.480557
-0.486862
-0.496412
-0.499763
-0.489512
-0.449777
-0.39478
-0.345032
-0.303164
-0.267384
-0.245791
-0.204545
-0.159527
-0.127299
-0.103608
-0.0905343
-0.0865365
-0.0868019
-0.478695
-0.479808
-0.484134
-0.497209
-0.518678
-0.529132
-0.508638
-0.45787
-0.40482
-0.361561
-0.319392
-0.286701
-0.26838
-0.236288
-0.200014
-0.174424
-0.156445
-0.146902
-0.144027
-0.144444
-0.476258
-0.477109
-0.479937
-0.486233
-0.494598
-0.503075
-0.486494
-0.447923
-0.409807
-0.371266
-0.328241
-0.299105
-0.282523
-0.253574
-0.225063
-0.206242
-0.193128
-0.186771
-0.184775
-0.185105
-0.478299
-0.478607
-0.477981
-0.464265
-0.43134
-0.408859
-0.41625
-0.418758
-0.407289
-0.371282
-0.331724
-0.304645
-0.288409
-0.26283
-0.23799
-0.22267
-0.212969
-0.208442
-0.206724
-0.206991
-0.487663
-0.48683
-0.482478
-0.457058
-0.405374
-0.368554
-0.386019
-0.414252
-0.407654
-0.369934
-0.331184
-0.30616
-0.287698
-0.26364
-0.241449
-0.226852
-0.217077
-0.211708
-0.209753
-0.210043
-0.514145
-0.511472
-0.512084
-0.507389
-0.493844
-0.465971
-0.460994
-0.460544
-0.427972
-0.372508
-0.329891
-0.304015
-0.283568
-0.25798
-0.235485
-0.219115
-0.207106
-0.200345
-0.198082
-0.198511
-0.590507
-0.594866
-0.619709
-0.651905
-0.662356
-0.640736
-0.601311
-0.53602
-0.451737
-0.371985
-0.327252
-0.297308
-0.274361
-0.249592
-0.224303
-0.203594
-0.188444
-0.179895
-0.177335
-0.177982
-0.68662
-0.698583
-0.730246
-0.761068
-0.772022
-0.750788
-0.692499
-0.586002
-0.459799
-0.366236
-0.31598
-0.281511
-0.260555
-0.235337
-0.207024
-0.183563
-0.166342
-0.156975
-0.154447
-0.155301
-0.720802
-0.732198
-0.754319
-0.775765
-0.784905
-0.764957
-0.69837
-0.564283
-0.432066
-0.342096
-0.285755
-0.25441
-0.239764
-0.212789
-0.182576
-0.15948
-0.143465
-0.135466
-0.133425
-0.134212
-0.656651
-0.665888
-0.682661
-0.700594
-0.710263
-0.693335
-0.624603
-0.486926
-0.369791
-0.288207
-0.235032
-0.216241
-0.205644
-0.178732
-0.151487
-0.131643
-0.118334
-0.111995
-0.110636
-0.11139
-0.506735
-0.516796
-0.534615
-0.554469
-0.565774
-0.548449
-0.477227
-0.36952
-0.280208
-0.209546
-0.172202
-0.164077
-0.155273
-0.132181
-0.111087
-0.0968445
-0.087956
-0.0842466
-0.0836065
-0.0842081
-0.288297
-0.300195
-0.320958
-0.346106
-0.359421
-0.340977
-0.280734
-0.214107
-0.159454
-0.117909
-0.102476
-0.0964724
-0.0918771
-0.0760746
-0.0634282
-0.0557831
-0.0502733
-0.0483033
-0.0485304
-0.0492364
0.0104649
-0.00708455
-0.0507821
-0.0789251
-0.0843046
-0.0782022
-0.0668366
-0.0511995
-0.0375799
-0.0274562
-0.0240758
-0.0198511
-0.0196067
-0.0177491
-0.0141842
-0.0154237
-0.0153341
-0.0146012
-0.0126485
-0.0117774
0.155088
0.336208
0.50107
0.6394
0.747712
0.830803
0.898599
0.953584
0.966573
0.964108
0.427618
0.542659
0.650026
0.741872
0.818057
0.880106
0.928693
0.961529
0.979262
0.99646
0.611766
0.687888
0.763037
0.828526
0.883904
0.929667
0.965837
0.993742
1.01482
1.03417
0.748526
0.802804
0.857246
0.905982
0.947983
0.983789
1.01401
1.0395
1.05916
1.07807
0.859972
0.901012
0.941557
0.979617
1.01372
1.04398
1.07054
1.09318
1.11083
1.12893
0.953358
0.987647
1.02133
1.05368
1.0836
1.11079
1.1349
1.15526
1.17074
1.18824
1.03932
1.07041
1.10173
1.13208
1.16037
1.18614
1.2088
1.2274
1.2411
1.2581
1.12477
1.15683
1.18869
1.2194
1.24775
1.27317
1.29499
1.31229
1.3245
1.341
1.21826
1.25449
1.28894
1.32109
1.34998
1.37507
1.39597
1.41209
1.42358
1.43968
1.33091
1.37161
1.40838
1.44101
1.46925
1.49306
1.51254
1.5277
1.5395
1.55554
1.47228
1.51307
1.54817
1.57756
1.60261
1.62411
1.64253
1.65794
1.671
1.68692
1.64347
1.67536
1.70229
1.72461
1.74464
1.7633
1.781
1.79773
1.81261
1.82831
1.82946
1.84662
1.86369
1.88035
1.89642
1.91114
1.92502
1.93947
1.95468
1.97198
2.01282
2.0227
2.03585
2.04683
2.05623
2.06587
2.07646
2.08662
2.09589
2.12156
2.23057
2.22487
2.21192
2.19766
2.19135
2.19704
2.21517
2.24369
2.27745
2.31378
2.5334
2.39746
2.31793
2.27536
2.25802
2.26202
2.28944
2.34729
2.45494
2.63335
0.950627
0.944325
0.936599
0.92549
0.911928
0.899291
0.888913
0.880929
0.87525
0.871974
0.871694
0.874595
0.879882
0.88728
0.896859
0.90871
0.922287
0.935226
0.944222
0.951767
0.859677
0.865598
0.873675
0.879814
0.882893
0.882396
0.87933
0.875365
0.871818
0.869593
0.869534
0.871862
0.875675
0.880166
0.8843
0.886569
0.885512
0.880888
0.873841
0.866011
0.852895
0.855268
0.858541
0.861323
0.863786
0.865992
0.867196
0.867083
0.866193
0.865452
0.865751
0.86725
0.8691
0.87038
0.870343
0.868905
0.866768
0.864422
0.861451
0.858437
0.848061
0.84915
0.851073
0.853422
0.855309
0.856729
0.857975
0.859007
0.859662
0.860117
0.860769
0.861611
0.862157
0.8621
0.861518
0.86063
0.859325
0.857375
0.855281
0.853808
0.842978
0.843612
0.844747
0.846519
0.848382
0.850001
0.851286
0.852396
0.853443
0.854432
0.855334
0.855972
0.856204
0.85607
0.85559
0.854659
0.853264
0.851679
0.850357
0.84956
0.837978
0.838416
0.839212
0.840533
0.842078
0.843673
0.845192
0.846544
0.847776
0.848971
0.850063
0.850804
0.851098
0.850951
0.850357
0.849412
0.8483
0.847187
0.846302
0.845772
0.833049
0.833375
0.833996
0.835085
0.836409
0.837846
0.839374
0.840916
0.8424
0.843831
0.845144
0.846058
0.846424
0.84629
0.84578
0.845064
0.844271
0.843455
0.842815
0.842427
0.828163
0.828415
0.828917
0.829852
0.831059
0.832412
0.833894
0.835502
0.837192
0.838906
0.840502
0.841626
0.84214
0.842178
0.841905
0.841444
0.840877
0.840298
0.839842
0.839546
0.823244
0.823444
0.823864
0.824692
0.825827
0.827143
0.828623
0.830292
0.832146
0.834138
0.836069
0.837501
0.838291
0.838607
0.838601
0.838389
0.838045
0.83767
0.837359
0.837128
0.818203
0.818363
0.818725
0.819484
0.820581
0.82189
0.823414
0.825188
0.827227
0.829515
0.831846
0.833696
0.834861
0.835511
0.835796
0.835843
0.835735
0.83555
0.835358
0.835174
0.812947
0.813076
0.813397
0.814115
0.815205
0.816551
0.818161
0.820088
0.822371
0.825023
0.827841
0.830205
0.831822
0.832859
0.833477
0.833807
0.833937
0.83394
0.833853
0.833704
0.807378
0.807481
0.807775
0.80848
0.809598
0.811026
0.812769
0.814906
0.817508
0.820618
0.824033
0.827015
0.829165
0.830654
0.83165
0.832292
0.83269
0.832879
0.832883
0.832761
0.801393
0.801473
0.801752
0.802467
0.803649
0.805203
0.807135
0.809553
0.812563
0.816243
0.820386
0.824111
0.826895
0.828911
0.830345
0.831362
0.832042
0.832417
0.832506
0.832404
0.794869
0.79493
0.795203
0.795952
0.797235
0.798962
0.80115
0.803933
0.807454
0.811836
0.816863
0.821481
0.825022
0.827663
0.829603
0.831037
0.832042
0.832623
0.832793
0.832707
0.787668
0.787705
0.787982
0.788787
0.79021
0.792167
0.794687
0.797933
0.802091
0.807332
0.813429
0.819119
0.823559
0.826939
0.829481
0.831397
0.832777
0.83358
0.83383
0.833756
0.779613
0.779631
0.779913
0.780797
0.782403
0.784655
0.787596
0.791421
0.796368
0.802659
0.810049
0.81702
0.822525
0.826776
0.830034
0.832531
0.834338
0.835382
0.835711
0.835643
0.770448
0.770455
0.770764
0.771754
0.7736
0.776225
0.779694
0.784242
0.790164
0.797739
0.806686
0.815181
0.821947
0.827224
0.831323
0.834513
0.836812
0.838119
0.838525
0.838459
0.759911
0.759892
0.76024
0.76138
0.763526
0.766626
0.77076
0.776212
0.78334
0.792484
0.803303
0.813602
0.821851
0.828337
0.833428
0.837416
0.840284
0.841875
0.842353
0.842284
0.747611
0.747572
0.747972
0.749302
0.751829
0.755536
0.760515
0.767107
0.775737
0.786801
0.799867
0.812291
0.822264
0.830155
0.836409
0.841316
0.844825
0.846707
0.847246
0.847167
0.733033
0.732971
0.733453
0.735037
0.738056
0.74255
0.748618
0.756664
0.76718
0.780601
0.796355
0.811258
0.823217
0.832712
0.840312
0.846261
0.850464
0.852628
0.853209
0.853113
0.715453
0.715368
0.71598
0.717922
0.721599
0.727139
0.734644
0.74458
0.757494
0.773816
0.792764
0.810531
0.824734
0.836044
0.84513
0.852246
0.857177
0.859583
0.860172
0.860051
0.693832
0.69373
0.694554
0.697019
0.701623
0.708613
0.718077
0.730531
0.746527
0.766424
0.789128
0.810143
0.826847
0.840154
0.850865
0.859237
0.864858
0.867421
0.867972
0.86782
0.666588
0.666488
0.667668
0.670946
0.676971
0.686081
0.698335
0.714226
0.734209
0.758478
0.785538
0.81016
0.829578
0.84503
0.857472
0.867114
0.873296
0.875876
0.876336
0.876148
0.631161
0.63112
0.632949
0.63764
0.646052
0.65852
0.674899
0.695527
0.720627
0.750146
0.782146
0.810682
0.832962
0.850651
0.864862
0.875675
0.882162
0.884571
0.884886
0.884667
0.582999
0.583199
0.586472
0.594153
0.607034
0.625052
0.647587
0.674631
0.706103
0.741727
0.779167
0.811841
0.837051
0.856962
0.8729
0.884636
0.891021
0.893037
0.893178
0.892943
0.513567
0.515093
0.5231
0.53771
0.558879
0.585766
0.617003
0.652219
0.691206
0.733621
0.776828
0.813738
0.841875
0.86389
0.881298
0.893492
0.899297
0.900742
0.900729
0.90051
0.430565
0.433501
0.44914
0.474475
0.507042
0.544362
0.584979
0.628758
0.675619
0.725319
0.774971
0.816885
0.848674
0.873365
0.892214
0.904226
0.909154
0.910107
0.910044
0.909915
0.345317
0.352961
0.376513
0.412551
0.456097
0.503644
0.553629
0.605991
0.660725
0.71765
0.773671
0.820494
0.855793
0.883109
0.903241
0.914518
0.91805
0.918455
0.918364
0.91829
0.275267
0.285143
0.313687
0.357298
0.409424
0.465591
0.523987
0.58436
0.646551
0.71029
0.772213
0.82348
0.861881
0.891244
0.911926
0.922262
0.924966
0.925192
0.925115
0.925069
0.217638
0.22829
0.260647
0.30985
0.368441
0.431456
0.496864
0.56421
0.633104
0.703081
0.770423
0.825752
0.866949
0.898054
0.919049
0.928592
0.93074
0.93087
0.930806
0.930775
0.169174
0.180212
0.215205
0.268751
0.332583
0.401242
0.47252
0.545848
0.620642
0.696235
0.768516
0.827553
0.8713
0.903966
0.92514
0.933964
0.935729
0.9358
0.935744
0.935721
0.127462
0.138671
0.175622
0.232639
0.300826
0.374301
0.450665
0.529237
0.609286
0.689947
0.766726
0.829125
0.875166
0.909163
0.930382
0.938606
0.940107
0.940133
0.940074
0.940053
0.0907833
0.102052
0.140527
0.200409
0.272295
0.349941
0.430802
0.514089
0.598931
0.684249
0.765152
0.830587
0.878626
0.913716
0.934881
0.942611
0.943926
0.943912
0.943843
0.943818
0.0578798
0.0691642
0.108841
0.171186
0.246283
0.327597
0.412475
0.500064
0.589348
0.679044
0.763795
0.831972
0.881732
0.917687
0.93869
0.945997
0.947181
0.947135
0.947053
0.94702
0.0277169
0.0390321
0.0797662
0.14429
0.22224
0.306816
0.395313
0.486854
0.580313
0.67419
0.762626
0.833334
0.884561
0.921108
0.941836
0.948761
0.949852
0.949797
0.949715
0.949675
-0.000292992
0.0110604
0.0527321
0.119214
0.199715
0.287227
0.379024
0.474223
0.571629
0.66957
0.761637
0.83477
0.887242
0.924116
0.944411
0.950959
0.951991
0.951961
0.951904
0.951865
-0.0266477
-0.0152459
0.0272961
0.0955613
0.178368
0.268545
0.363369
0.461974
0.563143
0.665082
0.760836
0.836398
0.889955
0.926894
0.946585
0.952736
0.953734
0.95377
0.953769
0.953746
-0.0517521
-0.0402162
0.00313463
0.0730468
0.15795
0.250546
0.348161
0.449955
0.554717
0.66063
0.760227
0.838356
0.892926
0.929692
0.948611
0.954329
0.955302
0.955433
0.955513
0.955518
-0.0757599
-0.064072
-0.019954
0.0514635
0.138275
0.233082
0.333261
0.438034
0.546233
0.656095
0.759771
0.840778
0.89641
0.932792
0.950745
0.95598
0.956932
0.957166
0.957334
0.957374
-0.0988866
-0.0869967
-0.0421463
0.0306824
0.119225
0.216036
0.318567
0.426113
0.537589
0.651364
0.759376
0.843746
0.900682
0.936508
0.953229
0.957873
0.958807
0.959147
0.959381
0.959447
-0.121152
-0.109078
-0.0635287
0.0106229
0.100724
0.199342
0.304023
0.41413
0.528704
0.646316
0.758903
0.847259
0.906011
0.941234
0.956308
0.960054
0.960949
0.961438
0.961712
0.961775
-0.142687
-0.130382
-0.0841207
-0.00876125
0.0827214
0.182959
0.289586
0.402045
0.519515
0.640846
0.758183
0.85122
0.912614
0.947466
0.960359
0.962515
0.963111
0.96387
0.964377
0.964479
-0.163368
-0.150922
-0.103961
-0.027513
0.0652017
0.166894
0.275246
0.389837
0.509986
0.634873
0.757033
0.855429
0.920573
0.955792
0.966198
0.965743
0.965191
0.966252
0.967676
0.968242
-0.183374
-0.170708
-0.123071
-0.0456598
0.0481455
0.151129
0.261031
0.377508
0.5001
0.628342
0.755277
0.859603
0.929761
0.966712
0.975142
0.971386
0.968455
0.96939
0.972547
0.974594
-0.202594
-0.189708
-0.141475
-0.0631935
0.0315917
0.135702
0.246968
0.365112
0.489873
0.621192
0.752756
0.863399
0.939843
0.98031
0.988288
0.981702
0.975766
0.975612
0.980447
0.985395
-0.221123
-0.208021
-0.159152
-0.0800883
0.0155408
0.12064
0.233101
0.352673
0.479338
0.61344
0.749348
0.866422
0.950266
0.996084
1.00563
0.997891
0.989248
0.98555
0.984541
0.980651
-0.238888
-0.225634
-0.176198
-0.096524
-0.000235241
0.105667
0.21911
0.339814
0.468096
0.60467
0.744671
0.86833
0.960938
1.01425
1.02745
1.02039
1.00968
0.998415
0.986224
0.98733
-0.255892
-0.242647
-0.192644
-0.11246
-0.0157442
0.0907974
0.204998
0.326484
0.456064
0.594668
0.738365
0.8683
0.970613
1.03372
1.05173
1.04622
1.03213
1.01746
0.980502
0.944055
-0.271962
-0.258933
-0.208489
-0.127775
-0.0310084
0.0760053
0.190735
0.31278
0.443252
0.583369
0.730132
0.865545
0.977293
1.05235
1.07568
1.06778
1.04847
1.01425
0.960035
0.908562
-0.2898
-0.273416
-0.223541
-0.142007
-0.0457495
0.0615268
0.17593
0.298721
0.429709