/*--------------------------------*- C++ -*----------------------------------*\
  =========                 |
  \\      /  F ield         | OpenFOAM: The Open Source CFD Toolbox
   \\    /   O peration     | Website:  https://openfoam.org
    \\  /    A nd           | Version:  6
     \\/     M anipulation  |
\*---------------------------------------------------------------------------*/
FoamFile
{
    version     2.0;
    format      ascii;
    class       surfaceScalarField;
    location    "110";
    object      phi;
}
// * * * * * * * * * * * * * * * * * * * * * * * * * * * * * * * * * * * * * //

dimensions      [0 3 -1 0 0 0 0];

internalField   nonuniform List<scalar> 
17370
(
-0.0899999
0.0898488
0.289162
-0.0714622
0.0537523
0.364485
-0.0381192
0.0276901
0.426597
-0.0196386
0.0146061
0.504284
-0.0107649
0.00827529
0.601892
-0.00627637
0.0049002
0.720434
-0.00373609
0.00289497
0.863748
-0.00215265
0.00159278
1.03601
-0.00107545
0.000662313
1.24292
-0.000254053
-0.000145443
1.49159
0.000526071
-0.000936518
1.4916
0.00133169
-0.00181295
1.24317
0.00233374
-0.00303748
1.03634
0.00385292
-0.00499932
0.864053
0.00636665
-0.0083604
0.721051
0.0108462
-0.0146827
0.603051
0.0197097
-0.027754
0.507484
0.0381753
-0.0537997
0.431793
0.0715014
-0.0898754
0.36515
0.0900164
0.198994
-0.128139
0.0882312
0.0399077
-0.364601
0.353384
-0.0746668
0.0858843
-0.446478
0.454324
-0.0843793
0.0765333
-0.521192
0.529905
-0.068435
0.0597225
-0.612791
0.621572
-0.0515327
0.0427523
-0.726897
0.734168
-0.0352906
0.0280196
-0.867477
0.872596
-0.0224165
0.0172974
-1.03848
1.04193
-0.0134838
0.0100298
-1.2446
1.24704
-0.00741547
0.0049789
-1.49262
1.49461
-0.00302648
0.00103929
-1.49251
1.49423
0.000632379
-0.00235645
-1.24397
1.24585
0.00426723
-0.00615034
-1.03751
1.04002
0.00849308
-0.0110072
-0.866096
0.869825
0.014354
-0.0180832
-0.724388
0.72993
0.0231243
-0.0286668
-0.608696
0.616108
0.0358795
-0.0432916
-0.514894
0.523037
0.0520201
-0.0601627
-0.439854
0.447911
0.0688236
-0.0768806
-0.375293
0.376736
0.084674
-0.0861166
-0.257328
0.222471
0.074824
-0.0399679
-0.0685275
0.0587046
0.00982292
-0.0517926
0.0583696
-0.374136
0.367559
-0.0574488
0.0536928
-0.453601
0.457357
-0.0486
0.0446446
-0.527955
0.531911
-0.0408015
0.0371594
-0.621573
0.625215
-0.0330533
0.0289723
-0.735359
0.73944
-0.0243948
0.020228
-0.874351
0.878517
-0.0158738
0.0121724
-1.0435
1.0472
-0.00842728
0.00524838
-1.24857
1.25175
-0.00191478
-0.00116391
-1.49666
1.49974
0.00421619
-0.00748504
-1.4972
1.50047
0.0105603
-0.0141483
-1.25006
1.25365
0.0176872
-0.0218666
-1.04591
1.05009
0.0258893
-0.0303264
-0.877748
0.882185
0.0342932
-0.0382858
-0.739889
0.743882
0.0418315
-0.0455754
-0.626763
0.630507
0.0494454
-0.054457
-0.534802
0.539813
0.0581215
-0.0589277
-0.457466
0.458272
0.052214
-0.0320011
-0.335736
0.315524
0.00989126
-0.0683342
0.0584429
-0.052958
0.048967
0.00399106
-0.033131
0.0436626
-0.358137
0.347605
-0.04735
0.0467152
-0.459303
0.459938
-0.0436529
0.0402948
-0.535821
0.539179
-0.0365163
0.0332065
-0.62855
0.63186
-0.0297611
0.0267208
-0.742672
0.745712
-0.0234511
0.0203336
-0.882043
0.88516
-0.0167912
0.0134012
-1.0508
1.05419
-0.00959721
0.00604996
-1.25519
1.25874
-0.00207231
-0.00173208
-1.50325
1.50705
0.00550386
-0.00938033
-1.50413
1.508
0.0127808
-0.0163692
-1.2574
1.26099
0.0195358
-0.0228341
-1.05389
1.05719
0.0257457
-0.0288099
-0.885661
0.888725
0.0316806
-0.0349568
-0.747132
0.750408
0.0381239
-0.0417579
-0.634283
0.637917
0.0449924
-0.0479127
-0.544114
0.547035
0.0483965
-0.0444957
-0.456546
0.452646
0.0337079
-0.0162384
-0.296141
0.278671
0.00407667
-0.0526182
0.0485416
-0.0458949
0.0434053
0.00248958
-0.0227642
0.0331214
-0.336935
0.326578
-0.0389239
0.0399285
-0.459634
0.458629
-0.0387276
0.0364333
-0.541908
0.544202
-0.0337577
0.0311532
-0.634923
0.637527
-0.0280792
0.0251679
-0.748769
0.75168
-0.0218881
0.0188796
-0.888124
0.891133
-0.0155581
0.0124444
-1.05733
1.06044
-0.00890394
0.00548353
-1.2622
1.26562
-0.00150964
-0.00238311
-1.51094
1.51483
0.00623171
-0.0100699
-1.51188
1.51572
0.0132959
-0.0165545
-1.26443
1.26769
0.0193769
-0.0223783
-1.06028
1.06328
0.0251127
-0.0281154
-0.891758
0.894761
0.0307951
-0.0336364
-0.7536
0.756442
0.0360444
-0.0385241
-0.64097
0.643449
0.0406511
-0.0416297
-0.548824
0.549803
0.0403906
-0.0342435
-0.447344
0.441197
0.0235076
-0.0102604
-0.263426
0.250178
0.00259566
-0.0453714
0.0427757
-0.0413376
0.039578
0.00175961
-0.0166914
0.0259118
-0.316752
0.307532
-0.0324881
0.0346082
-0.457049
0.454929
-0.0341716
0.0324896
-0.546194
0.547876
-0.0302977
0.0281911
-0.639848
0.641955
-0.0257451
0.0233315
-0.754339
0.756753
-0.0204527
0.0176437
-0.894042
0.896851
-0.0143855
0.0112969
-1.0635
1.06659
-0.00778707
0.00444544
-1.26895
1.2723
-0.000598106
-0.00314629
-1.51862
1.52236
0.00683397
-0.0105073
-1.51944
1.52311
0.0136004
-0.016752
-1.27094
1.27409
0.0194706
-0.0223203
-1.0663
1.06915
0.0247763
-0.0272957
-0.897549
0.900068
0.0294084
-0.0315529
-0.758873
0.761018
0.0334072
-0.0353459
-0.645587
0.647525
0.0367839
-0.0369179
-0.5503
0.550434
0.0344368
-0.027354
-0.434497
0.427414
0.0176214
-0.00743855
-0.238611
0.228428
0.00188941
-0.0405877
0.0386983
-0.0380649
0.0367451
0.00131989
-0.0127155
0.0206194
-0.298977
0.291073
-0.0273269
0.0302188
-0.452398
0.449506
-0.0303998
0.0292614
-0.549327
0.550465
-0.0272536
0.0253213
-0.644011
0.645943
-0.0231009
0.0209415
-0.759011
0.76117
-0.0183988
0.0158886
-0.899443
0.901953
-0.0129162
0.0100099
-1.06955
1.07245
-0.00662006
0.00335604
-1.27557
1.27883
0.000411748
-0.00405578
-1.52602
1.52966
0.0076286
-0.011177
-1.52669
1.53024
0.0141291
-0.0170715
-1.27723
1.28017
0.0195168
-0.0219792
-1.07186
1.07433
0.0240468
-0.0261362
-0.902323
0.904412
0.0279147
-0.0297519
-0.762979
0.764816
0.031365
-0.033064
-0.649325
0.651024
0.0338458
-0.0332401
-0.550195
0.549589
0.0298297
-0.0224263
-0.42011
0.412706
0.0138625
-0.00578285
-0.219395
0.211316
0.00147797
-0.0370386
0.0355606
-0.0355954
0.0345826
0.00101277
-0.00990095
0.0165613
-0.28382
0.277159
-0.0229854
0.0263143
-0.446381
0.443052
-0.0270606
0.0263359
-0.551398
0.552123
-0.0245553
0.0227501
-0.647864
0.649669
-0.0206525
0.0186062
-0.763267
0.765314
-0.0161975
0.0138341
-0.904315
0.906679
-0.0110552
0.008334
-1.07519
1.07791
-0.00513873
0.00202273
-1.28198
1.2851
0.00161617
-0.00514998
-1.53322
1.53676
0.00859531
-0.0119614
-1.53367
1.53703
0.0146912
-0.0173353
-1.28304
1.28568
0.0194898
-0.0216409
-1.07668
1.07883
0.0234567
-0.025303
-0.90635
0.908196
0.026876
-0.0284976
-0.766535
0.768157
0.0299062
-0.0312565
-0.652579
0.653929
0.0315389
-0.0301883
-0.548615
0.547265
0.0261427
-0.0187999
-0.405302
0.397959
0.0113085
-0.00469043
-0.204033
0.197415
0.00120518
-0.0342328
0.0330276
-0.0336974
0.0329138
0.000783588
-0.00780665
0.01338
-0.271076
0.265502
-0.0192998
0.0228083
-0.43963
0.436122
-0.0240167
0.0235311
-0.552773
0.553258
-0.0220094
0.0203073
-0.651484
0.653186
-0.0182964
0.016327
-0.767314
0.769283
-0.0140001
0.011715
-0.90893
0.911215
-0.00902931
0.00640964
-1.08051
1.08313
-0.00334674
0.000366648
-1.28809
1.29107
0.00310797
-0.00647346
-1.54017
1.54354
0.00973013
-0.0128697
-1.54024
1.54338
0.0153768
-0.0177668
-1.28828
1.29067
0.0196954
-0.0216138
-1.08093
1.08285
0.0232269
-0.0248616
-0.909912
0.911546
0.0262488
-0.0276737
-0.769668
0.771093
0.028879
-0.0298373
-0.655082
0.65604
0.0297391
-0.0277051
-0.545559
0.543525
0.0232372
-0.0161362
-0.390726
0.383625
0.00952884
-0.00394037
-0.191358
0.185769
0.00101758
-0.0319261
0.0309085
-0.0322306
0.0316258
0.000604787
-0.00618217
0.0108233
-0.260427
0.255786
-0.0161318
0.0196207
-0.432632
0.429143
-0.0211345
0.0208642
-0.553687
0.553958
-0.019564
0.0179149
-0.654923
0.656572
-0.0159504
0.0140204
-0.771219
0.773149
-0.0117406
0.00950299
-0.913391
0.915629
-0.00687382
0.0043138
-1.08564
1.0882
-0.00133042
-0.00155383
-1.29395
1.29683
0.00488717
-0.00808408
-1.54677
1.54996
0.0111481
-0.0140726
-1.54636
1.54928
0.0163805
-0.0185463
-1.29305
1.29522
0.0202677
-0.0219647
-1.08473
1.08643
0.0233824
-0.024814
-0.913047
0.914478
0.026029
-0.0272733
-0.772414
0.773658
0.028334
-0.0288667
-0.656793
0.657326
0.0283677
-0.0257483
-0.541188
0.538569
0.0210059
-0.0142043
-0.376675
0.369873
0.00828515
-0.00342347
-0.180578
0.175717
0.000889052
-0.0299628
0.0290738
-0.031104
0.0306452
0.000458765
-0.00486579
0.00869897
-0.251581
0.247748
-0.0133499
0.0166685
-0.425758
0.422439
-0.0183451
0.0182524
-0.554201
0.554294
-0.0171331
0.0155106
-0.658288
0.65991
-0.0135567
0.0116294
-0.775058
0.776985
-0.00935409
0.00712749
-0.917763
0.919989
-0.00452117
0.00199361
-1.09065
1.09318
0.000938398
-0.00375499
-1.29962
1.30244
0.00698225
-0.0100434
-1.55303
1.5561
0.0129429
-0.0156734
-1.55204
1.55477
0.0177908
-0.019733
-1.29739
1.29933
0.0212467
-0.0227252
-1.08811
1.08959
0.023957
-0.0252018
-0.915777
0.917022
0.0262624
-0.0273433
-0.774801
0.775882
0.0281905
-0.0283509
-0.657657
0.657818
0.0274185
-0.0242869
-0.535686
0.532554
0.0193582
-0.0128387
-0.363225
0.356706
0.00743183
-0.00307557
-0.171136
0.16678
0.000804208
-0.0282339
0.0274297
-0.0302582
0.0299242
0.000334019
-0.0037538
0.00687255
-0.244302
0.241183
-0.0108518
0.0138879
-0.419291
0.416254
-0.0155978
0.0156428
-0.554393
0.554348
-0.0145921
0.0130289
-0.661594
0.663157
-0.0110549
0.00909523
-0.778899
0.780859
-0.0067832
0.00452961
-0.922117
0.92437
-0.00190541
-0.000624449
-1.0956
1.09813
0.00353954
-0.00631823
-1.30516
1.30794
0.00947203
-0.012427
-1.55904
1.56199
0.0151862
-0.0177384
-1.55734
1.55989
0.0196714
-0.0213922
-1.3013
1.30302
0.0227009
-0.0239662
-1.09107
1.09233
0.0250177
-0.0260821
-0.91813
0.919195
0.0269956
-0.0279165
-0.776849
0.77777
0.0285001
-0.0283533
-0.657824
0.657677
0.0269351
-0.02332
-0.529183
0.525567
0.0182373
-0.0119349
-0.350313
0.344011
0.00688292
-0.00285889
-0.162614
0.15859
0.000753675
-0.0266569
0.0259032
-0.0296551
0.0294337
0.000221421
-0.00276944
0.0052385
-0.238419
0.23595
-0.00854362
0.0112118
-0.413439
0.410771
-0.0128383
0.0129448
-0.554363
0.554256
-0.0119216
0.0103845
-0.664809
0.666346
-0.00836403
0.00634002
-0.78281
0.784834
-0.00395253
0.00163436
-0.926528
0.928846
0.00105104
-0.00362334
-1.10057
1.10314
0.00656457
-0.00934179
-1.31064
1.31342
0.0124571
-0.0153328
-1.56484
1.56771
0.0179723
-0.0203618
-1.56227
1.56466
0.0221194
-0.0236225
-1.3048
1.3063
0.0247258
-0.0257754
-1.09361
1.09466
0.026641
-0.0275137
-0.920117
0.920989
0.0282645
-0.029016
-0.778514
0.779265
0.0293109
-0.0288094
-0.6574
0.656898
0.0269198
-0.0228406
-0.521742
0.517663
0.0175964
-0.0114172
-0.337794
0.331615
0.00657878
-0.0027464
-0.154683
0.150851
0.000730276
-0.0251668
0.0244366
-0.0292742
0.029161
0.000113207
-0.00184812
0.00370267
-0.233816
0.231962
-0.00632555
0.00855302
-0.408368
0.406141
-0.00998595
0.0100732
-0.554272
0.554184
-0.00904068
0.00748746
-0.668009
0.669562
-0.00538856
0.00326636
-0.786851
0.788973
-0.000763257
-0.00165773
-0.931068
0.933489
0.00444778
-0.00710301
-1.10563
1.10829
0.0101143
-0.0129279
-1.31613
1.31894
0.016041
-0.0188646
-1.57048
1.57331
0.0214036
-0.0236433
-1.56686
1.5691
0.0252304
-0.026518
-1.30789
1.30918
0.0274168
-0.0282468
-1.09574
1.09657
0.028918
-0.0295912
-0.921715
0.922388
0.0301847
-0.0307842
-0.779832
0.780432
0.0307076
-0.0297837
-0.656224
0.6553
0.0273936
-0.022837
-0.513379
0.508823
0.0173912
-0.0112274
-0.325472
0.319308
0.00647626
-0.00271888
-0.147076
0.143319
0.000728994
-0.0237125
0.0229835
-0.0291102
0.0291056
4.69667e-06
-0.00094081
0.00219131
-0.230436
0.229185
-0.00411384
0.00583439
-0.404218
0.402497
-0.00696952
0.00695433
-0.554289
0.554304
-0.00586247
0.00425
-0.671283
0.672895
-0.00202907
-0.000229051
-0.791087
0.793345
0.00289234
-0.00545862
-0.935816
0.938382
0.00840107
-0.011183
-1.11087
1.11365
0.0143114
-0.0172019
-1.32169
1.32458
0.0203526
-0.0231541
-1.57603
1.57883
0.0256135
-0.0277155
-1.57114
1.57325
0.0291373
-0.0302138
-1.31057
1.31164
0.0309084
-0.031516
-1.09743
1.09804
0.0319863
-0.0324452
-0.922907
0.923366
0.032848
-0.0331668
-0.780755
0.781074
0.032783
-0.0313531
-0.654196
0.652766
0.0284194
-0.0233367
-0.504049
0.498966
0.0176147
-0.0113407
-0.313121
0.306847
0.00655484
-0.00276687
-0.139567
0.135779
0.000747317
-0.0222508
0.0215035
-0.0291668
0.0292774
-0.000110571
1.47369e-06
0.000635031
-0.228263
0.227626
-0.00182422
0.00297059
-0.40112
0.399973
-0.00370633
0.00350309
-0.554594
0.554798
-0.00229097
0.000558554
-0.674725
0.676458
0.00182644
-0.00426609
-0.795593
0.798033
0.00714131
-0.00990121
-0.940855
0.943615
0.0130499
-0.0160073
-1.11637
1.11933
0.0193042
-0.0223147
-1.32743
1.33044
0.0255446
-0.0283549
-1.58153
1.58434
0.0307566
-0.0327328
-1.57513
1.57711
0.0339955
-0.03486
-1.31283
1.31369
0.0353428
-0.0357158
-1.09867
1.09904
0.0359762
-0.0362131
-0.923663
0.923899
0.0364049
-0.0363734
-0.781096
0.781064
0.0356304
-0.033608
-0.651134
0.649112
0.0300569
-0.0243637
-0.493637
0.487944
0.0182624
-0.0117389
-0.300486
0.293962
0.00679839
-0.00288207
-0.131947
0.128031
0.000782678
-0.020744
0.0199613
-0.0294592
0.0297088
-0.000249524
0.000985315
-0.001027
-0.227334
0.227376
0.000630749
-0.000132502
-0.399213
0.398715
-0.000101396
-0.000385386
-0.555379
0.555865
0.001788
-0.00370322
-0.678459
0.680374
0.00631453
-0.0089892
-0.800459
0.803134
0.012136
-0.0151454
-0.946286
0.949295
0.0185621
-0.0217508
-1.12223
1.12542
0.025274
-0.0284521
-1.33341
1.33659
0.0318039
-0.0346501
-1.58705
1.5899
0.0370061
-0.0388658
-1.57884
1.5807
0.039979
-0.0406293
-1.31464
1.31529
0.0408861
-0.0410048
-1.09943
1.09955
0.0410355
-0.0410341
-0.923953
0.923952
0.0410361
-0.0405427
-0.78073
0.780237
0.039356
-0.0366376
-0.646876
0.644157
0.0323671
-0.0259423
-0.481958
0.475533
0.0193314
-0.0124062
-0.287278
0.280353
0.00719207
-0.00305616
-0.124025
0.119889
0.000832307
-0.0191591
0.0183268
-0.0300274
0.0304217
-0.000394359
0.00210441
-0.00279062
-0.227728
0.228415
0.00327489
-0.00354867
-0.398645
0.398919
0.00397203
-0.00484501
-0.556872
0.557745
0.00650834
-0.00867906
-0.682616
0.684786
0.0115929
-0.0145708
-0.805791
0.808768
0.0180616
-0.0213862
-0.952222
0.955547
0.0251422
-0.0286243
-1.12857
1.13205
0.0324367
-0.0358321
-1.33974
1.34313
0.0393493
-0.0422571
-1.59265
1.59555
0.0445754
-0.0463114
-1.58227
1.58401
0.0472624
-0.0477041
-1.31601
1.31645
0.0477266
-0.0475745
-1.09966
1.09951
0.0473614
-0.047107
-0.923728
0.923473
0.0468579
-0.04585
-0.779476
0.778468
0.044114
-0.0405567
-0.641214
0.637656
0.0354217
-0.0280991
-0.468748
0.461426
0.020819
-0.0133263
-0.273188
0.265696
0.0077198
-0.00327976
-0.115621
0.111181
0.000892991
-0.017469
0.016576
-0.0309042
0.0314784
-0.000574245
0.00338103
-0.00487474
-0.229532
0.231026
0.00628647
-0.00739398
-0.399618
0.400725
0.00858877
-0.00998516
-0.559297
0.560693
0.012052
-0.0145635
-0.687337
0.689848
0.0178705
-0.0212304
-0.811723
0.815082
0.0251502
-0.0288673
-0.958801
0.962518
0.0330445
-0.0368895
-1.13551
1.13935
0.041058
-0.0447207
-1.34651
1.35017
0.048442
-0.0514304
-1.59836
1.60135
0.0537143
-0.0553204
-1.5854
1.58701
0.0561111
-0.056323
-1.3169
1.31711
0.0560851
-0.0556429
-1.09933
1.09888
0.055176
-0.0546404
-0.922959
0.922423
0.0539912
-0.0524889
-0.777286
0.775783
0.0500359
-0.0454615
-0.633847
0.629272
0.0392747
-0.0308423
-0.453656
0.445224
0.0227056
-0.0144692
-0.257879
0.249643
0.00835582
-0.00353851
-0.106571
0.101754
0.000959888
-0.0156539
0.014694
-0.0321533
0.0329617
-0.000808398
0.00496098
-0.00736968
-0.232983
0.235391
0.00986258
-0.0119085
-0.402339
0.404384
0.0140024
-0.0160483
-0.562904
0.56495
0.018655
-0.0216078
-0.692802
0.695755
0.0254242
-0.0292584
-0.81842
0.822255
0.0337088
-0.0379084
-0.96618
0.97038
0.042599
-0.046881
-1.14319
1.14747
0.0514721
-0.0554453
-1.35382
1.3578
0.0593969
-0.0624678
-1.60423
1.6073
0.064701
-0.0661497
-1.58822
1.58967
0.0667528
-0.0666941
-1.31722
1.31716
0.0661891
-0.0654336
-1.0984
1.09764
0.0647
-0.0639012
-0.921591
0.920792
0.0627322
-0.0606242
-0.77416
0.772052
0.0572878
-0.0514446
-0.624384
0.61854
0.0439541
-0.0341447
-0.436233
0.426423
0.0249376
-0.0157782
-0.240995
0.231836
0.00905669
-0.00380974
-0.0967376
0.0914907
0.00102576
-0.0137044
0.0126786
-0.0338727
0.0349877
-0.00111505
0.00694683
-0.0104628
-0.238301
0.241817
0.0142333
-0.0173676
-0.40711
0.410244
0.0204903
-0.0233128
-0.567988
0.57081
0.0266175
-0.0301401
-0.69924
0.702762
0.0346154
-0.0390455
-0.826077
0.830507
0.0441489
-0.0489325
-0.974545
0.979328
0.0542338
-0.0590242
-1.15175
1.15654
0.0640915
-0.068398
-1.36175
1.36606
0.0725746
-0.0756985
-1.61024
1.61336
0.0778396
-0.0790868
-1.59065
1.5919
0.0794626
-0.0791015
-1.31688
1.31652
0.0783059
-0.0772048
-1.0968
1.0957
0.0761985
-0.0750983
-0.919653
0.918553
0.0733625
-0.0704684
-0.769879
0.766985
0.0659939
-0.0585306
-0.612303
0.604839
0.0494091
-0.0379024
-0.415923
0.404416
0.0273966
-0.0171512
-0.222185
0.211939
0.00975154
-0.00405927
-0.0860319
0.0803396
0.00108033
-0.0116273
0.0105469
-0.036197
0.0377334
-0.00153645
0.00955525
-0.0144484
-0.245843
0.250736
0.019739
-0.0241317
-0.414296
0.418688
0.0284388
-0.0321916
-0.574878
0.57863
0.0363746
-0.0406597
-0.706921
0.711206
0.0459628
-0.0511379
-0.834936
0.840111
0.0570381
-0.0625154
-0.984102
0.989579
0.0685189
-0.073869
-1.16134
1.16669
0.07943
-0.0840496
-1.37033
1.37495
0.0883913
-0.0914851
-1.6163
1.61939
0.0934437
-0.0943994
-1.59259
1.59354
0.0944855
-0.0938216
-1.31581
1.31515
0.0926516
-0.0911971
-1.0945
1.09304
0.0899196
-0.0883284
-0.916975
0.915384
0.0860738
-0.082102
-0.764015
0.760043
0.0761588
-0.0666248
-0.596874
0.58734
0.0554639
-0.0418947
-0.392072
0.378503
0.0298705
-0.0184246
-0.201142
0.189696
0.0103355
-0.00424009
-0.0744488
0.0683533
0.00111044
-0.00945108
0.00834064
-0.0393364
0.041483
-0.00214661
0.0131508
-0.0198058
-0.256117
0.262772
0.0269258
-0.0327869
-0.424379
0.43024
0.0384625
-0.0433469
-0.583962
0.588847
0.0486266
-0.0538868
-0.716246
0.721506
0.0602686
-0.0663662
-0.845291
0.851389
0.0732055
-0.0794617
-0.995065
1.00132
0.0862115
-0.0921133
-1.17203
1.17793
0.0981066
-0.102941
-1.37946
1.38429
0.107302
-0.11021
-1.62221
1.62512
0.111834
-0.11236
-1.59383
1.59435
0.112069
-0.111029
-1.31396
1.31292
0.109469
-0.107632
-1.09149
1.08965
0.106063
-0.103924
-0.913178
0.911039
0.101004
-0.0955708
-0.755958
0.750525
0.0876581
-0.0754415
-0.577149
0.564933
0.0617431
-0.045731
-0.363955
0.347942
0.0320233
-0.0193658
-0.177686
0.165029
0.0106712
-0.00429549
-0.0621103
0.0557346
0.00110146
-0.00723138
0.00612992
-0.0436325
0.0467203
-0.00308784
0.0183733
-0.0273329
-0.269876
0.278836
0.0366847
-0.0443235
-0.438041
0.44568
0.0516584
-0.0579006
-0.595747
0.60199
0.0646102
-0.0712199
-0.727639
0.734249
0.0788693
-0.0859947
-0.85747
0.864595
0.0938352
-0.100866
-1.00757
1.01461
0.108285
-0.114603
-1.18374
1.19006
0.120824
-0.125652
-1.3889
1.39373
0.129769
-0.132243
-1.62762
1.63009
0.133309
-0.133212
-1.59407
1.59397
0.13241
-0.130906
-1.31113
1.30963
0.128954
-0.126685
-1.0877
1.08543
0.124685
-0.122034
-0.908127
0.905475
0.118052
-0.110601
-0.744851
0.737399
0.100051
-0.0843893
-0.551872
0.53621
0.0675968
-0.0488154
-0.33086
0.312079
0.0333931
-0.0196888
-0.151881
0.138177
0.0106062
-0.00416896
-0.0493098
0.0428726
0.00104034
-0.00505172
0.00401138
-0.0496825
0.0543634
-0.00468095
0.0264728
-0.0385426
-0.288307
0.300377
0.050768
-0.0607632
-0.456403
0.466398
0.0701454
-0.0780245
-0.610812
0.618691
0.0864993
-0.0946566
-0.741632
0.74979
0.103698
-0.111841
-0.871679
0.879823
0.120548
-0.128134
-1.02154
1.02912
0.135893
-0.142282
-1.19612
1.20251
0.148318
-0.152754
-1.39813
1.40256
0.156211
-0.1579
-1.63197
1.63366
0.158111
-0.157146
-1.59291
1.59194
0.155668
-0.153578
-1.30712
1.30503
0.151177
-0.148397
-1.08301
1.08023
0.145955
-0.142546
-0.901645
0.898236
0.137011
-0.126622
-0.729435
0.719046
0.112493
-0.0924756
-0.519465
0.499447
0.0720557
-0.0503746
-0.292275
0.270594
0.0334532
-0.0191175
-0.124199
0.109863
0.0100143
-0.00382132
-0.0365337
0.0303408
0.000918297
-0.00301658
0.00209828
-0.058624
0.0666195
-0.00799546
0.0406658
-0.0573265
-0.313625
0.330285
0.0735991
-0.0866966
-0.481055
0.494152
0.0982061
-0.107703
-0.629681
0.639178
0.117942
-0.127539
-0.75843
0.768027
0.137676
-0.146361
-0.887688
0.896373
0.155293
-0.162799
-1.03633
1.04383
0.170216
-0.176046
-1.20832
1.21415
0.181257
-0.184719
-1.40627
1.40973
0.186962
-0.187397
-1.63451
1.63494
0.18637
-0.184249
-1.58985
1.58773
0.181899
-0.179103
-1.30165
1.29885
0.176157
-0.172793
-1.0772
1.07384
0.169738
-0.165091
-0.893014
0.888367
0.157127
-0.14243
-0.707703
0.693006
0.123415
-0.0981744
-0.478031
0.45279
0.0739324
-0.0496939
-0.248241
0.224002
0.0318489
-0.0175497
-0.0956806
0.0813814
0.00887807
-0.0032542
-0.0244301
0.0188063
0.000732733
-0.00123488
0.000502147
-0.0740404
0.0785784
-0.00453793
0.0313011
-0.045937
-0.349877
0.364513
0.0605854
-0.0726632
-0.513252
0.52533
0.0837789
-0.0944371
-0.652236
0.662894
0.106671
-0.11789
-0.776925
0.788145
0.130434
-0.141699
-0.904074
0.915339
0.153874
-0.164883
-1.05046
1.06147
0.176669
-0.187068
-1.21897
1.22937
0.197851
-0.206945
-1.41212
1.42122
0.215797
-0.222549
-1.63427
1.64102
0.227256
-0.23066
-1.58426
1.58767
0.232721
-0.234272
-1.29439
1.29594
0.235072
-0.234613
-1.06983
1.06937
0.233155
-0.227431
-0.880707
0.874983
0.214636
-0.190415
-0.676708
0.652486
0.159472
-0.120968
-0.425992
0.387488
0.0869212
-0.0553173
-0.199865
0.168261
0.0338179
-0.0177582
-0.0679851
0.0519254
0.00852746
-0.002906
-0.0136793
0.0080578
0.000574242
0.000243216
-0.000817457
-0.0864648
0.0846135
0.00185133
0.00900724
-0.0187518
-0.38215
0.391894
0.03006
-0.0389604
-0.542435
0.551335
0.0481078
-0.0571651
-0.67629
0.685348
0.0683557
-0.0788696
-0.798806
0.80932
0.0902365
-0.100701
-0.926058
0.936523
0.112004
-0.121896
-1.07226
1.08215
0.132713
-0.141931
-1.23966
1.24888
0.151533
-0.159472
-1.43015
1.43809
0.166925
-0.172589
-1.6473
1.65296
0.176391
-0.178967
-1.59036
1.59294
0.180162
-0.18106
-1.29567
1.29657
0.181441
-0.180579
-1.06728
1.06642
0.177582
-0.169168
-0.863731
0.855317
0.154102
-0.129742
-0.623653
0.599294
0.102496
-0.0723964
-0.346635
0.316535
0.0488611
-0.0293595
-0.138065
0.118563
0.0170768
-0.00852587
-0.0372603
0.0287093
0.00386279
-0.00121807
-0.00277066
0.000125939
0.0001923
0.00157191
-0.00176421
-0.0883201
0.0853492
0.00297099
-0.000331248
-0.00549491
-0.404443
0.410269
0.0131567
-0.0199044
-0.564487
0.571235
0.0269399
-0.0347726
-0.69693
0.704763
0.0445509
-0.0537313
-0.818738
0.827919
0.0638875
-0.0730993
-0.946196
0.955407
0.0828369
-0.0917905
-1.09194
1.10089
0.101414
-0.10977
-1.25776
1.26611
0.118098
-0.124925
-1.44554
1.45237
0.131537
-0.136331
-1.65827
1.66306
0.139353
-0.141223
-1.59495
1.59682
0.141856
-0.142305
-1.29582
1.29627
0.142026
-0.140718
-1.06271
1.0614
0.136698
-0.126845
-0.842734
0.832882
0.111423
-0.0888926
-0.571519
0.548988
0.0664158
-0.0442234
-0.284661
0.262469
0.0287938
-0.0169539
-0.0995854
0.0877455
0.00976638
-0.00487649
-0.0204217
0.0155318
0.00221947
-0.000703663
0.00267794
-0.00419375
0.000114499
0.00215177
-0.00226627
-0.0871838
0.0843179
0.00286596
-0.00449166
0.00138992
-0.419677
0.422779
0.00372779
-0.00894975
-0.581303
0.586525
0.014988
-0.0216063
-0.714015
0.720633
0.0300259
-0.0379527
-0.836318
0.844244
0.0467009
-0.0546753
-0.964062
0.972037
0.0635207
-0.0712479
-1.10942
1.11715
0.0797763
-0.0867591
-1.27411
1.28109
0.0941285
-0.100149
-1.45908
1.4651
0.10577
-0.10958
-1.66767
1.67148
0.112149
-0.11369
-1.59825
1.59979
0.114037
-0.113716
-1.29541
1.29509
0.113007
-0.111188
-1.05668
1.05486
0.106453
-0.096457
-0.819228
0.809231
0.0817656
-0.0624711
-0.523814
0.50452
0.0449841
-0.0293101
-0.239263
0.223589
0.0189931
-0.0113078
-0.0753868
0.0677016
0.00662553
-0.00339604
-0.0102714
0.00704195
0.00160369
-0.000535094
0.00597312
-0.00704171
9.63636e-05
0.00250654
-0.00260291
-0.0857079
0.0831002
0.00260771
-0.00612491
0.004746
-0.430103
0.431482
-0.000842166
-0.00314355
-0.594916
0.598901
0.00803752
-0.0139959
-0.728444
0.734403
0.021084
-0.0280458
-0.851353
0.858315
0.0356433
-0.0425978
-0.979534
0.986488
0.0502388
-0.05712
-1.12473
1.13161
0.0644413
-0.0708005
-1.28794
1.2943
0.0772249
-0.08244
-1.47079
1.47601
0.0872472
-0.0904094
-1.67528
1.67844
0.0924716
-0.093415
-1.60072
1.60166
0.0934767
-0.0929482
-1.29397
1.29344
0.0918352
-0.0893765
-1.04967
1.04721
0.0845432
-0.0748245
-0.795621
0.785902
0.0618051
-0.0457769
-0.483045
0.467017
0.0324335
-0.0211615
-0.2066
0.195328
0.0138575
-0.00846586
-0.0592007
0.0538091
0.00512544
-0.0027231
-0.0033033
0.000900963
0.00133926
-0.000469115
0.0083617
-0.00923185
9.77343e-05
0.00278101
-0.00287874
-0.0842054
0.0819034
0.00230204
-0.00645819
0.00573034
-0.437369
0.438096
-0.00331605
5.69962e-05
-0.605513
0.608772
0.00462066
-0.00969785
-0.740684
0.745761
0.0157615
-0.0217731
-0.864371
0.870382
0.0284734
-0.034641
-0.99305
0.999218
0.0415492
-0.0475505
-1.13818
1.14418
0.0540554
-0.0596931
-1.30033
1.30597
0.0652951
-0.0697895
-1.48094
1.48543
0.0738309
-0.0767556
-1.68159
1.68452
0.078293
-0.0790138
-1.60221
1.60293
0.0787964
-0.0779667
-1.2922
1.29137
0.0767385
-0.0737275
-1.04198
1.03897
0.068789
-0.0598263
-0.772924
0.763961
0.0484319
-0.0352599
-0.448997
0.435825
0.0249525
-0.0165074
-0.182641
0.174196
0.0111131
-0.00701412
-0.0474871
0.0433882
0.00436763
-0.00239206
0.00199605
-0.00397162
0.00120704
-0.000441864
0.0102814
-0.0110466
9.82114e-05
0.00301001
-0.00310822
-0.0829108
0.0810374
0.00187342
-0.00596551
0.00574856
-0.442693
0.44291
-0.00380012
0.00134488
-0.614673
0.617128
0.0029192
-0.00745939
-0.751219
0.75576
0.0130977
-0.0182224
-0.875911
0.881036
0.0240326
-0.0294206
-1.0053
1.01069
0.0358046
-0.0411246
-1.15016
1.15548
0.0467801
-0.0518807
-1.31136
1.31646
0.0572138
-0.0611086
-1.48989
1.49379
0.0646719
-0.0669837
-1.68705
1.68936
0.0684107
-0.0685557
-1.60344
1.60359
0.0683044
-0.0674353
-1.29001
1.28914
0.0658446
-0.0627636
-1.0339
1.03082
0.0578592
-0.0494381
-0.751661
0.74324
0.0397044
-0.0287458
-0.420596
0.409637
0.0205546
-0.0140453
-0.164358
0.157849
0.00975195
-0.00637485
-0.0383578
0.0349807
0.00409586
-0.00230895
0.00641499
-0.0082019
0.00119201
-0.000447086
0.0119531
-0.012698
0.000105097
0.00320556
-0.00331066
-0.0820149
0.0804808
0.00153404
-0.00520111
0.00529479
-0.446704
0.446611
-0.0036063
0.00137425
-0.622492
0.624724
0.0025325
-0.00654333
-0.760526
0.764537
0.0112985
-0.0161
-0.886044
0.890846
0.0213322
-0.0266737
-1.01581
1.02116
0.0320493
-0.0369112
-1.16083
1.1657
0.0423636
-0.0468615
-1.32135
1.32584
0.05124
-0.0550767
-1.49749
1.50133
0.058219
-0.0602179
-1.69169
1.69369
0.0611903
-0.0613167
-1.6039
1.60403
0.0608911
-0.0598194
-1.28764
1.28657
0.0581323
-0.054869
-1.02598
1.02271
0.0500847
-0.0425348
-0.731934
0.724384
0.0338349
-0.0247596
-0.396741
0.387666
0.0181781
-0.0128691
-0.149944
0.144635
0.00928554
-0.0063471
-0.030698
0.0277595
0.00421878
-0.00246097
0.0104267
-0.0121845
0.00130785
-0.000501688
0.0135625
-0.0143686
0.00012321
0.00339382
-0.00351703
-0.0815839
0.0802403
0.00134359
-0.00415352
0.00414726
-0.450004
0.45001
-0.0027915
0.000685494
-0.629452
0.631558
0.0028123
-0.00658526
-0.768984
0.772757
0.0110101
-0.0152455
-0.895378
0.899614
0.0204189
-0.0247405
-1.02582
1.03014
0.0298385
-0.0342584
-1.17064
1.17506
0.0392507
-0.0435795
-1.33021
1.33453
0.0477917
-0.050896
-1.50479
1.50789
0.0537435
-0.0554681
-1.69549
1.69722
0.0564122
-0.0561511
-1.60393
1.60367
0.0555927
-0.0543534
-1.28536
1.28412
0.0525859
-0.0491812
-1.01797
1.01456
0.0446237
-0.037593
-0.71395
0.70692
0.0300167
-0.0223668
-0.376736
0.369086
0.0169068
-0.0125664
-0.138059
0.133718
0.00945931
-0.00675614
-0.0239016
0.0211985
0.00466819
-0.002834
0.0143513
-0.0161855
0.00155626
-0.000626285
0.0152672
-0.0161972
0.000158162
0.00359883
-0.003757
-0.081372
0.0803553
0.00101663
-0.0031772
0.00280045
-0.453096
0.453472
-0.00173134
-0.000338755
-0.635417
0.637488
0.0033966
-0.00693537
-0.776658
0.780196
0.0110464
-0.0152786
-0.903656
0.907889
0.019639
-0.0239513
-1.03461
1.03892
0.0287781
-0.0327282
-1.17982
1.18377
0.037496
-0.0414282
-1.33853
1.34246
0.045232
-0.0483822
-1.51127
1.51442
0.0510709
-0.0523678
-1.69881
1.70011
0.0527912
-0.0525096
-1.60343
1.60315
0.0518879
-0.0504055
-1.28252
1.28104
0.0483974
-0.0451311
-1.01008
1.00681
0.0403305
-0.0340113
-0.697285
0.690965
0.0273779
-0.0208684
-0.359829
0.353319
0.0163699
-0.0126492
-0.128067
0.124346
0.00988973
-0.00732559
-0.0176442
0.01508
0.00523201
-0.00329372
0.0183879
-0.0203262
0.00188575
-0.000791579
0.0172151
-0.0183092
0.000212549
0.00386071
-0.00407326
-0.0815309
0.0806869
0.000844042
-0.00233122
0.00208302
-0.456165
0.456413
-0.000572143
-0.00124942
-0.641246
0.643067
0.00439738
-0.00771236
-0.783598
0.786913
0.0115445
-0.0152397
-0.91173
0.915426
0.0195809
-0.0234054
-1.04316
1.04698
0.0279679
-0.0321493
-1.1881
1.19228
0.0362413
-0.0401868
-1.34631
1.35026
0.0439969
-0.0467492
-1.51728
1.52003
0.049162
-0.0505291
-1.70141
1.70278
0.0506193
-0.0501538
-1.6025
1.60203
0.0490461
-0.047368
-1.27935
1.27767
0.0452732
-0.0417433
-1.0023
0.998771
0.0371589
-0.0311992
-0.682083
0.676123
0.0253391
-0.0197395
-0.345245
0.339645
0.0158942
-0.0126959
-0.119485
0.116286
0.0101933
-0.00776394
-0.0117529
0.00932349
0.00570092
-0.00371056
0.0225557
-0.024546
0.00219282
-0.000956855
0.0194534
-0.0206894
0.000268815
0.00421646
-0.00448527
-0.0819678
0.0812968
0.000671045
-0.00133481
0.000968477
-0.459203
0.45957
0.000316289
-0.00237798
-0.646487
0.648549
0.00538789
-0.00846629
-0.7901
0.793178
0.0122847
-0.0157248
-0.919053
0.922493
0.0197729
-0.0235837
-1.05124
1.05505
0.0278681
-0.0318111
-1.19621
1.20015
0.0358676
-0.0395468
-1.35398
1.35766
0.0431463
-0.0462235
-1.52289
1.52597
0.0484603
-0.0493977
-1.70381
1.70475
0.0493701
-0.0483305
-1.60114
1.6001
0.0470328
-0.0451614
-1.27564
1.27377
0.0425383
-0.0387849
-0.994264
0.99051
0.0342036
-0.0284537
-0.667997
0.662247
0.0232976
-0.0184381
-0.332772
0.327913
0.0151599
-0.012326
-0.111991
0.109157
0.0100838
-0.00782975
-0.00622051
0.00396651
0.00588338
-0.00393509
0.0267541
-0.0287023
0.00239077
-0.00108342
0.0219137
-0.0232211
0.000325092
0.00466789
-0.00499298
-0.0826326
0.0820827
0.000549901
-0.000512243
7.67173e-05
-0.462272
0.462708