/*--------------------------------*- C++ -*----------------------------------*\
  =========                 |
  \\      /  F ield         | OpenFOAM: The Open Source CFD Toolbox
   \\    /   O peration     | Website:  https://openfoam.org
    \\  /    A nd           | Version:  6
     \\/     M anipulation  |
\*---------------------------------------------------------------------------*/
FoamFile
{
    version     2.0;
    format      ascii;
    class       volVectorField;
    location    "110";
    object      U;
}
// * * * * * * * * * * * * * * * * * * * * * * * * * * * * * * * * * * * * * //

dimensions      [0 1 -1 0 0 0 0];

internalField   nonuniform List<vector> 
8800
(
(0.987183 -0.0766652 0)
(1.00189 -0.0551901 0)
(0.99972 -0.0285482 0)
(1.00003 -0.0151437 0)
(1.0001 -0.00854602 0)
(1.00012 -0.00504904 0)
(1.00008 -0.00300299 0)
(1.00002 -0.00170102 0)
(0.99999 -0.000793564 0)
(1.00006 -7.46663e-05 0)
(0.999965 0.000659633 0)
(1.00003 0.0014247 0)
(1.00007 0.00242518 0)
(1.00007 0.00399704 0)
(1.00006 0.00663194 0)
(1.00006 0.0113718 0)
(0.999964 0.0208157 0)
(0.999177 0.0386703 0)
(1.0071 0.0724575 0)
(0.771215 0.0366618 0)
(0.363083 -0.016016 0)
(1.04332 -0.0768095 0)
(1.0846 -0.0704365 0)
(1.04519 -0.0535296 0)
(1.0233 -0.0388802 0)
(1.01204 -0.0262016 0)
(1.00644 -0.016837 0)
(1.0036 -0.010299 0)
(1.00215 -0.00563226 0)
(1.00143 -0.00196749 0)
(1.00128 0.00135803 0)
(1.00168 0.0047482 0)
(1.00271 0.00866 0)
(1.00468 0.0139798 0)
(1.00861 0.0216887 0)
(1.01657 0.0326547 0)
(1.03252 0.0465654 0)
(1.06269 0.0616813 0)
(1.09186 0.0761072 0)
(0.838662 0.0565652 0)
(0.216882 -0.00242826 0)
(1.07593 -0.0501177 0)
(1.09989 -0.0482842 0)
(1.06466 -0.0404318 0)
(1.04006 -0.0335688 0)
(1.02394 -0.0260403 0)
(1.01414 -0.0184456 0)
(1.00856 -0.0116116 0)
(1.00558 -0.00573048 0)
(1.0043 -0.000302809 0)
(1.00464 0.0049522 0)
(1.00663 0.0103382 0)
(1.01064 0.0163892 0)
(1.01794 0.0234086 0)
(1.03053 0.0308694 0)
(1.05063 0.0378907 0)
(1.08038 0.0445694 0)
(1.10627 0.0513761 0)
(0.942486 0.0416336 0)
(0.216105 0.00246337 0)
(0.175235 -0.000814597 0)
(1.01778 -0.0354565 0)
(1.10524 -0.0413352 0)
(1.0783 -0.0360099 0)
(1.05351 -0.0300666 0)
(1.03625 -0.0244786 0)
(1.02404 -0.0187316 0)
(1.0159 -0.0126304 0)
(1.01102 -0.00642324 0)
(1.00879 -7.33055e-05 0)
(1.00935 0.00619398 0)
(1.01268 0.0121842 0)
(1.01889 0.017966 0)
(1.02875 0.0235317 0)
(1.04317 0.0288232 0)
(1.0637 0.034292 0)
(1.09356 0.040267 0)
(1.09338 0.0420137 0)
(0.827009 0.0229376 0)
(0.173924 0.000855483 0)
(0.154069 -0.000608194 0)
(0.956364 -0.0254192 0)
(1.10354 -0.0350612 0)
(1.08775 -0.0325687 0)
(1.0618 -0.0279029 0)
(1.04419 -0.0228608 0)
(1.0317 -0.0175874 0)
(1.02283 -0.0120266 0)
(1.01698 -0.00606409 0)
(1.0141 0.000426022 0)
(1.01476 0.00690294 0)
(1.0188 0.0127744 0)
(1.0258 0.0180024 0)
(1.03605 0.0229068 0)
(1.05059 0.0276514 0)
(1.07183 0.0321611 0)
(1.10004 0.0360793 0)
(1.06796 0.0341108 0)
(0.739254 0.0143475 0)
(0.152089 0.00065468 0)
(0.139742 -0.000464035 0)
(0.899608 -0.0190238 0)
(1.09595 -0.0299838 0)
(1.09586 -0.029068 0)
(1.06938 -0.0253175 0)
(1.05094 -0.0211527 0)
(1.03798 -0.0163442 0)
(1.02884 -0.0110188 0)
(1.02268 -0.00524012 0)
(1.01949 0.00111482 0)
(1.02008 0.00744563 0)
(1.02424 0.0130637 0)
(1.03134 0.0179477 0)
(1.04179 0.0223966 0)
(1.0569 0.0263424 0)
(1.0791 0.029776 0)
(1.10218 0.0323782 0)
(1.03572 0.0282314 0)
(0.672484 0.0102568 0)
(0.136939 0.000517687 0)
(0.129258 -0.000358125 0)
(0.850219 -0.0146457 0)
(1.08368 -0.0258179 0)
(1.10161 -0.0260725 0)
(1.07629 -0.0227604 0)
(1.05732 -0.0190829 0)
(1.0439 -0.0147905 0)
(1.03439 -0.00981664 0)
(1.02798 -0.00423839 0)
(1.02458 0.00194584 0)
(1.025 0.00806911 0)
(1.02911 0.0134061 0)
(1.0363 0.0178633 0)
(1.04701 0.0217037 0)
(1.06251 0.0249783 0)
(1.08514 0.0278837 0)
(1.10119 0.0296043 0)
(1.00057 0.0237552 0)
(0.620378 0.00790656 0)
(0.125453 0.000421262 0)
(0.121287 -0.000276807 0)
(0.808343 -0.0114693 0)
(1.06859 -0.0221682 0)
(1.10524 -0.02338 0)
(1.08262 -0.0204719 0)
(1.06323 -0.0169991 0)
(1.04953 -0.0130015 0)
(1.03973 -0.00835209 0)
(1.03301 -0.00303299 0)
(1.02934 0.00294297 0)
(1.02956 0.00882479 0)
(1.03362 0.0138092 0)
(1.04084 0.0177778 0)
(1.05162 0.0211072 0)
(1.06733 0.0239631 0)
(1.0903 0.0265595 0)
(1.09726 0.0273694 0)
(0.964973 0.0202634 0)
(0.578369 0.00638918 0)
(0.116262 0.000351925 0)
(0.115142 -0.000212809 0)
(0.773211 -0.00908506 0)
(1.05207 -0.0189431 0)
(1.10775 -0.0208722 0)
(1.08859 -0.018324 0)
(1.0688 -0.0149835 0)
(1.05486 -0.0111332 0)
(1.04485 -0.00667839 0)
(1.03786 -0.00158482 0)
(1.03388 0.0041507 0)
(1.03385 0.00974101 0)
(1.03777 0.0143438 0)
(1.04489 0.0178747 0)
(1.05564 0.0208132 0)
(1.07153 0.0233354 0)
(1.09414 0.0255743 0)
(1.09042 0.0255496 0)
(0.930198 0.0175926 0)
(0.543424 0.00536277 0)
(0.108634 0.000302653 0)
(0.110393 -0.000160985 0)
(0.743894 -0.00722544 0)
(1.03522 -0.0160706 0)
(1.10935 -0.0184917 0)
(1.09429 -0.0162361 0)
(1.07422 -0.0129727 0)
(1.06 -0.00919387 0)
(1.04978 -0.00484146 0)
(1.04254 9.7253e-05 0)
(1.03823 0.00560696 0)
(1.03787 0.010894 0)
(1.04154 0.015131 0)
(1.04847 0.0182706 0)
(1.05915 0.020861 0)
(1.07523 0.0230822 0)
(1.09666 0.0249274 0)
(1.08105 0.0241041 0)
(0.896783 0.0155945 0)
(0.513474 0.00465849 0)
(0.102083 0.000268768 0)
(0.106758 -0.000117533 0)
(0.719585 -0.00571574 0)
(1.01886 -0.0134777 0)
(1.11019 -0.0161739 0)
(1.09992 -0.0141729 0)
(1.07958 -0.0109033 0)
(1.06506 -0.00713296 0)
(1.0546 -0.00281974 0)
(1.04708 0.00202725 0)
(1.04239 0.00735702 0)
(1.04162 0.0123679 0)
(1.04496 0.0162623 0)
(1.05164 0.019026 0)
(1.06222 0.0212794 0)
(1.07846 0.0232215 0)
(1.09776 0.0246339 0)
(1.0695 0.0230342 0)
(0.864808 0.0141541 0)
(0.487038 0.00418668 0)
(0.096263 0.000247274 0)
(0.104055 -7.94402e-05 0)
(0.699656 -0.00443898 0)
(1.00362 -0.0110954 0)
(1.11042 -0.0138813 0)
(1.10543 -0.0120482 0)
(1.08498 -0.00871935 0)
(1.07013 -0.00489479 0)
(1.05939 -0.000556393 0)
(1.05152 0.00426012 0)
(1.04637 0.00946408 0)
(1.0451 0.0142358 0)
(1.04804 0.0178054 0)
(1.05442 0.0201986 0)
(1.06487 0.0221216 0)
(1.08121 0.023786 0)
(1.09775 0.0248538 0)
(1.05599 0.0223601 0)
(0.834062 0.0131903 0)
(0.462994 0.00389355 0)
(0.0909057 0.000235821 0)
(0.102169 -4.39631e-05 0)
(0.683654 -0.00330699 0)
(0.989985 -0.00885119 0)
(1.11029 -0.0115244 0)
(1.11082 -0.00977638 0)
(1.09051 -0.00635656 0)
(1.0753 -0.00241274 0)
(1.06421 0.00202103 0)
(1.05592 0.0068735 0)
(1.05022 0.0120077 0)
(1.04833 0.0165762 0)
(1.05079 0.0198345 0)
(1.0568 0.0218563 0)
(1.06709 0.0234464 0)
(1.08344 0.0248132 0)
(1.09684 0.0254076 0)
(1.04062 0.0220908 0)
(0.804154 0.0126268 0)
(0.440443 0.00374059 0)
(0.0858002 0.00023225 0)
(0.101041 -8.77793e-06 0)
(0.671295 -0.00224916 0)
(0.978316 -0.00666865 0)
(1.11011 -0.00904518 0)
(1.11623 -0.00729545 0)
(1.09624 -0.0037365 0)
(1.08064 0.000395674 0)
(1.06914 0.00499872 0)
(1.06034 0.0099592 0)
(1.05396 0.0150827 0)
(1.05133 0.0194829 0)
(1.05321 0.0224397 0)
(1.0588 0.0240922 0)
(1.06888 0.0253409 0)
(1.0852 0.0264094 0)
(1.09455 0.0264681 0)
(1.0234 0.0222354 0)
(0.774596 0.0124199 0)
(0.418654 0.00370391 0)
(0.0807785 0.000235298 0)
(0.100667 2.81503e-05 0)
(0.662444 -0.00120882 0)
(0.968945 -0.00447326 0)
(1.11023 -0.00638204 0)
(1.1218 -0.00453122 0)
(1.10227 -0.000769402 0)
(1.08625 0.00362667 0)
(1.07427 0.00847771 0)
(1.06484 0.0136236 0)
(1.05765 0.0188004 0)
(1.05413 0.0230685 0)
(1.05531 0.0257342 0)
(1.06041 0.0270201 0)
(1.07022 0.0279055 0)
(1.08639 0.0286344 0)
(1.09079 0.0280583 0)
(1.00421 0.022841 0)
(0.744826 0.012546 0)
(0.39699 0.00377031 0)
(0.075697 0.000244241 0)
(0.10107 6.25503e-05 0)
(0.657102 -0.000127671 0)
(0.962187 -0.0021878 0)
(1.11101 -0.0034669 0)
(1.12772 -0.00139724 0)
(1.10873 0.00264767 0)
(1.09223 0.00739259 0)
(1.07967 0.0125795 0)
(1.0695 0.0179951 0)
(1.06131 0.023294 0)
(1.05673 0.0274657 0)
(1.05709 0.0298576 0)
(1.06159 0.030764 0)
(1.07107 0.0312646 0)
(1.08672 0.031612 0)
(1.08525 0.0302716 0)
(0.982786 0.0239463 0)
(0.714211 0.0129895 0)
(0.374868 0.00392941 0)
(0.0704292 0.000258115 0)
(0.102324 0.000119608 0)
(0.655433 0.00104389 0)
(0.958374 0.000266152 0)
(1.11284 -0.000219496 0)
(1.13418 0.00220806 0)
(1.11572 0.00663553 0)
(1.0987 0.011828 0)
(1.08546 0.0174515 0)
(1.07437 0.0232308 0)
(1.065 0.0287232 0)
(1.05914 0.0328325 0)
(1.05851 0.0349601 0)
(1.06231 0.0354625 0)
(1.07138 0.0355564 0)
(1.08602 0.0354822 0)
(1.07765 0.033195 0)
(0.958717 0.0255903 0)
(0.682046 0.013739 0)
(0.351741 0.00417091 0)
(0.0648658 0.000275835 0)
(0.104565 0.000170251 0)
(0.657522 0.00219568 0)
(0.957876 0.00298653 0)
(1.1162 0.00347023 0)
(1.14142 0.00640315 0)
(1.12342 0.0113396 0)
(1.10581 0.0170966 0)
(1.09174 0.0232727 0)
(1.07954 0.0295176 0)
(1.06874 0.035275 0)
(1.06136 0.0393456 0)
(1.05959 0.0411864 0)
(1.06254 0.0412774 0)
(1.07111 0.0409399 0)
(1.08407 0.0403221 0)
(1.06761 0.0369353 0)
(0.931442 0.0278178 0)
(0.647571 0.0147835 0)
(0.327103 0.00448317 0)
(0.0589188 0.000296076 0)
(0.107944 0.000235162 0)
(0.664088 0.00368223 0)
(0.961013 0.00595908 0)
(1.12153 0.00773174 0)
(1.1497 0.011322 0)
(1.13202 0.0169439 0)
(1.1137 0.0234045 0)
(1.09863 0.0302668 0)
(1.08509 0.0370867 0)
(1.07257 0.0431739 0)
(1.06338 0.0472113 0)
(1.06029 0.0487702 0)
(1.06221 0.0484015 0)
(1.07019 0.0475936 0)
(1.08087 0.0463361 0)
(1.05462 0.0416146 0)
(0.900211 0.0306603 0)
(0.609964 0.0160979 0)
(0.300494 0.00484802 0)
(0.0525268 0.00031685 0)
(0.11273 0.000323953 0)
(0.675549 0.00544996 0)
(0.968363 0.00947984 0)
(1.12937 0.0127369 0)
(1.15935 0.017185 0)
(1.14175 0.0236919 0)
(1.12259 0.0310205 0)
(1.10628 0.0387169 0)
(1.09109 0.0462216 0)
(1.07648 0.0526848 0)
(1.06517 0.0566677 0)
(1.06049 0.0579035 0)
(1.06131 0.0570403 0)
(1.06856 0.0557198 0)
(1.07632 0.0537093 0)
(1.038 0.0473365 0)
(0.864081 0.0341154 0)
(0.568367 0.0176292 0)
(0.271545 0.0052355 0)
(0.0456693 0.000335294 0)
(0.119293 0.000442009 0)
(0.692684 0.00765598 0)
(0.980811 0.0137871 0)
(1.14029 0.0187188 0)
(1.17078 0.0242669 0)
(1.15292 0.0319106 0)
(1.13268 0.0403012 0)
(1.11481 0.0489892 0)
(1.09758 0.0572697 0)
(1.08047 0.0641162 0)
(1.06667 0.0679722 0)
(1.06008 0.0687964 0)
(1.05977 0.0674027 0)
(1.06631 0.065519 0)
(1.07005 0.0626248 0)
(1.01681 0.0541606 0)
(0.821901 0.0381207 0)
(0.521949 0.0192757 0)
(0.240048 0.00559947 0)
(0.0383863 0.00034765 0)
(0.128166 0.000606903 0)
(0.716509 0.0105378 0)
(0.999169 0.0191534 0)
(1.15496 0.026028 0)
(1.18445 0.0329434 0)
(1.16587 0.0420632 0)
(1.14421 0.0517379 0)
(1.12434 0.0615671 0)
(1.10456 0.0706634 0)
(1.08446 0.0778188 0)
(1.06779 0.0814019 0)
(1.05906 0.0816879 0)
(1.05755 0.0796828 0)
(1.06307 0.0771528 0)
(1.06144 0.0730816 0)
(0.989798 0.0620857 0)
(0.772334 0.0425027 0)
(0.470034 0.0208646 0)
(0.206066 0.00587536 0)
(0.030799 0.000349495 0)
(0.140171 0.00084896 0)
(0.748416 0.0144854 0)
(1.02456 0.0260458 0)
(1.17417 0.0352116 0)
(1.20105 0.0438543 0)
(1.18102 0.054841 0)
(1.15739 0.0660286 0)
(1.1349 0.0770885 0)
(1.11194 0.0869255 0)
(1.08829 0.0941723 0)
(1.06839 0.0972234 0)
(1.05735 0.0967921 0)
(1.05468 0.0941425 0)
(1.05853 0.0908727 0)
(1.04956 0.0852769 0)
(0.95533 0.0709343 0)
(0.713953 0.0469206 0)
(0.41231 0.0221366 0)
(0.170068 0.00598303 0)
(0.0231256 0.000336475 0)
(0.156631 0.00122761 0)
(0.790418 0.0201484 0)
(1.05862 0.035252 0)
(1.19891 0.0472546 0)
(1.22147 0.0583911 0)
(1.19873 0.0713266 0)
(1.17231 0.0841766 0)
(1.14635 0.0963767 0)
(1.11947 0.106656 0)
(1.09171 0.113565 0)
(1.06825 0.115671 0)
(1.05481 0.114278 0)
(1.05108 0.110886 0)
(1.0526 0.10687 0)
(1.03312 0.0991212 0)
(0.911284 0.0802815 0)
(0.645483 0.0508148 0)
(0.349174 0.0227535 0)
(0.133057 0.00584108 0)
(0.0156831 0.000305488 0)
(0.179827 0.00188584 0)
(0.845774 0.0287094 0)
(1.1043 0.0483946 0)
(1.23023 0.0639919 0)
(1.24614 0.0781645 0)
(1.21913 0.0932137 0)
(1.18872 0.107559 0)
(1.15827 0.120421 0)
(1.1267 0.130484 0)
(1.09434 0.136345 0)
(1.0671 0.136923 0)
(1.05125 0.134238 0)
(1.04654 0.129966 0)
(1.04498 0.124946 0)
(1.01017 0.114268 0)
(0.85508 0.089337 0)
(0.566347 0.0533955 0)
(0.282212 0.0223607 0)
(0.0966471 0.00539241 0)
(0.00886589 0.000255145 0)
(0.213295 0.00334419 0)
(0.920387 0.042962 0)
(1.16457 0.0694084 0)
(1.26848 0.088931 0)
(1.27496 0.106355 0)
(1.2416 0.122973 0)
(1.20577 0.137856 0)
(1.16982 0.150236 0)
(1.13295 0.158954 0)
(1.09569 0.162762 0)
(1.06465 0.161072 0)
(1.04646 0.15668 0)
(1.04091 0.151392 0)
(1.03475 0.145093 0)
(0.977846 0.129993 0)
(0.783903 0.0968182 0)
(0.47783 0.0537684 0)
(0.214891 0.0207804 0)
(0.0631223 0.0046456 0)
(0.00314528 0.000185592 0)
(0.258975 0.00987597 1.4237e-20)
(1.01799 0.0711913 1.21281e-20)
(1.23691 0.1052 -4.18388e-21)
(1.31091 0.126212 0)
(1.30491 0.146781 -1.01323e-34)
(1.26387 0.163041 1.46788e-21)
(1.22186 0.176622 -2.56671e-21)
(1.17995 0.18706 0)
(1.13747 0.19336 5.12667e-35)
(1.09509 0.194373 -3.0382e-21)
(1.06009 0.190039 0)
(1.0398 0.184042 -3.56256e-21)
(1.03426 0.178503 -1.0485e-20)
(1.01935 0.170846 -4.95433e-21)
(0.929577 0.148005 -1.48496e-21)
(0.689212 0.102556 -8.80088e-22)
(0.375464 0.0515717 0)
(0.147059 0.018296 6.14861e-22)
(0.0326179 0.00371473 7.28163e-22)
(-0.00158288 6.37398e-05 1.33291e-20)
(0.291149 0.0257897 1.12471e-20)
(1.09937 0.115898 1.21049e-22)
(1.2966 0.156163 1.15221e-21)
(1.3498 0.177304 0)
(1.33155 0.197802 -5.23075e-21)
(1.28347 0.212072 -5.85159e-21)
(1.23543 0.223558 -2.60958e-21)
(1.18765 0.231821 -9.04515e-21)
(1.13954 0.235829 0)
(1.09188 0.234376 1.2858e-20)
(1.05269 0.227785 1.26516e-20)
(1.02953 0.220217 3.72999e-21)
(1.02106 0.214068 1.35431e-20)
(0.989081 0.201647 1.90005e-20)
(0.848538 0.166121 0)
(0.556893 0.105115 2.66242e-20)
(0.259619 0.0471987 3.81494e-20)
(0.0806347 0.014559 4.24401e-20)
(0.00482114 0.00168678 -4.86773e-20)
(-0.005638 -0.000463941 -9.29174e-22)
(0.293551 0.0440822 0)
(1.1524 0.173559 2.13451e-21)
(1.33822 0.218467 0)
(1.38061 0.23955 -7.36228e-21)
(1.35306 0.256749 0)
(1.29905 0.267148 -1.1648e-20)
(1.24541 0.275006 5.34672e-21)
(1.19212 0.279903 -1.83185e-20)
(1.13877 0.280704 -3.35513e-22)
(1.08629 0.276121 6.63767e-21)
(1.0434 0.266913 2.75315e-20)
(1.01778 0.257592 -2.23127e-23)
(1.00523 0.249679 -9.77308e-21)
(0.953785 0.231269 -1.76694e-20)
(0.768902 0.18085 2.08823e-20)
(0.453981 0.104434 -3.69029e-20)
(0.187984 0.0425178 -4.84841e-21)
(0.0440571 0.0109314 0)
(-0.00927472 -0.00059075 -3.13901e-24)
(-0.00747455 -0.0010583 0)
(0.28737 0.0593668 3.29938e-20)
(1.18255 0.23512 -1.52124e-20)
(1.36518 0.285632 -1.06116e-20)
(1.40164 0.306943 3.58459e-21)
(1.36781 0.319984 -5.91253e-21)
(1.30944 0.325815 2.43341e-20)
(1.2513 0.32928 1.11161e-20)
(1.19335 0.330064 0)
(1.13548 0.326994 -3.35486e-20)
(1.07879 0.31875 0)
(1.03271 0.306615 -1.43663e-20)
(1.00488 0.295343 -1.75971e-20)
(0.987585 0.284859 -1.05394e-20)
(0.916781 0.258846 -1.27255e-20)
(0.697795 0.192881 0)
(0.37906 0.103718 0)
(0.141647 0.0390852 -3.12869e-20)
(0.0211828 0.00755598 6.16895e-21)
(-0.0180425 -0.00299788 -3.64275e-21)
(-0.00859757 -0.00168238 -4.3146e-21)
(0.279522 0.0726855 -1.65009e-20)
(1.19711 0.296617 0)
(1.381 0.353792 2.31638e-20)
(1.41399 0.37551 1.03752e-20)
(1.37589 0.384485 1.32768e-20)
(1.31441 0.385708 0)
(1.25285 0.38462 1.09865e-20)
(1.19123 0.381023 2.01382e-20)
(1.12964 0.373747 1.71968e-20)
(1.06944 0.361527 3.06352e-20)
(1.02063 0.346243 0)
(0.990816 0.332848 -3.75828e-20)
(0.968341 0.319126 -2.25151e-20)
(0.87963 0.284446 -1.32863e-20)
(0.636413 0.20325 8.06554e-20)
(0.324422 0.103487 9.52795e-21)
(0.110098 0.0362652 4.48811e-20)
(0.00525314 0.00413889 -2.12101e-19)
(-0.0244044 -0.00556601 1.25624e-19)
(-0.00944688 -0.00233036 -1.53353e-19)
(0.271579 0.0845876 -1.20229e-20)
(1.20144 0.355974 3.06831e-21)
(1.38855 0.420915 -2.88457e-21)
(1.41934 0.443331 -1.17836e-20)
(1.37823 0.448467 -1.19248e-20)
(1.31449 0.445219 3.53533e-22)
(1.25034 0.439667 -1.18084e-20)
(1.18584 0.43169 2.07522e-20)
(1.12127 0.420125 -3.66912e-20)
(1.05816 0.403795 0)
(1.0071 0.385253 -1.7072e-20)
(0.975509 0.369606 -3.03744e-22)
(0.947784 0.352226 -2.44318e-20)
(0.843245 0.308216 0)
(0.584112 0.212317 -1.7335e-20)
(0.283495 0.103694 -4.09035e-20)
(0.086901 0.0336819 1.08585e-19)
(-0.00684334 0.000589849 -1.06919e-19)
(-0.0293685 -0.00825238 1.51981e-19)
(-0.0101047 -0.00298581 -1.59925e-19)
(0.264431 0.0954139 -1.19715e-22)
(1.19902 0.412381 -2.26017e-21)
(1.38998 0.485893 -9.98169e-21)
(1.41917 0.509268 5.29275e-21)
(1.3759 0.51089 -6.05832e-21)
(1.31049 0.503396 0)
(1.24434 0.493563 -1.12677e-20)
(1.17754 0.481318 -2.16947e-20)
(1.11053 0.465501 -1.90699e-20)
(1.04505 0.445038 0)
(0.992154 0.423191 -1.75389e-20)
(0.959029 0.405234 -2.149e-20)
(0.926209 0.383911 2.6252e-20)
(0.808162 0.330163 -1.58479e-20)
(0.539499 0.22044 -7.46115e-20)
(0.251583 0.104218 4.39953e-20)
(0.0685781 0.0311698 1.29721e-20)
(-0.0168666 -0.0031235 0)
(-0.0335712 -0.011037 -1.45165e-19)
(-0.0106252 -0.00363621 -5.37714e-21)
(0.258292 0.105511 -9.60888e-22)
(1.19217 0.465604 1.78192e-21)
(1.38679 0.54815 5.0084e-21)
(1.41468 0.572649 1.78581e-20)
(1.36984 0.571112 -2.33396e-20)
(1.30322 0.559675 2.43949e-20)
(1.23549 0.545799 2.40732e-20)
(1.16682 0.529456 -3.45409e-20)
(1.09778 0.509479 1.14219e-20)
(1.03032 0.484899 -7.40142e-20)
(0.975969 0.459719 -1.96187e-20)
(0.941581 0.439353 0)
(0.904037 0.413882 2.82363e-20)
(0.774613 0.350219 3.36127e-20)
(0.501108 0.227787 3.99664e-20)
(0.225622 0.104918 -4.72482e-20)
(0.0530791 0.028598 -1.39299e-20)
(-0.0259067 -0.0070459 1.64311e-20)
(-0.0375508 -0.0139761 0)
(-0.0111025 -0.00429349 -1.15388e-20)
(0.253097 0.114936 5.05361e-21)
(1.18263 0.515659 -5.01706e-21)
(1.3803 0.60769 -4.92636e-21)
(1.4069 0.633133 1.15218e-20)
(1.36086 0.628755 -1.11304e-20)
(1.29337 0.61369 -8.63542e-22)
(1.2244 0.59607 -2.60865e-20)
(1.15416 0.575852 -1.24232e-20)
(1.08339 0.551837 -3.28107e-20)
(1.01425 0.523167 2.41547e-23)
(0.958757 0.494598 -6.11223e-20)
(0.923385 0.471733 5.09482e-20)
(0.881561 0.441993 -3.06596e-20)
(0.742798 0.368434 3.65329e-20)
(0.467741 0.234395 0)
(0.203754 0.105674 -2.53657e-20)
(0.0391777 0.0258464 2.33504e-23)
(-0.0346968 -0.0112913 -7.06282e-20)
(-0.0417792 -0.0172007 -1.04473e-20)
(-0.0116384 -0.00499128 0)
(0.24884 0.123962 0)
(1.17149 0.562772 -4.58566e-21)
(1.37133 0.664399 -8.03777e-21)
(1.39663 0.690561 -1.12723e-20)
(1.34967 0.683626 -1.32621e-20)
(1.28154 0.66526 0)
(1.21157 0.644197 -1.22885e-20)
(1.14001 0.620357 -2.49674e-22)
(1.06772 0.592474 7.00426e-20)
(0.997101 0.559744 -1.01594e-20)
(0.940695 0.527692 -4.39552e-20)
(0.904596 0.502192 2.64906e-20)
(0.858992 0.468024 -3.9163e-22)
(0.712706 0.384743 3.87632e-20)
(0.438518 0.240203 2.32497e-20)
(0.184871 0.106251 -5.43723e-20)
(0.0263982 0.0227199 6.40912e-20)
(-0.0435752 -0.0160525 1.89399e-20)
(-0.0465817 -0.0208829 7.84957e-20)
(-0.0123695 -0.0057965 -2.12449e-19)
(0.245459 0.132758 -5.94731e-22)
(1.15958 0.607117 -6.87916e-22)
(1.36058 0.71801 1.65244e-21)
(1.38455 0.744903 1.02963e-20)
(1.33686 0.73565 0)
(1.26825 0.714291 -1.20851e-20)
(1.19746 0.690098 4.07885e-20)
(1.12475 0.66291 2.73619e-20)
(1.05108 0.631353 0)
(0.979082 0.594607 -1.45182e-19)
(0.921904 0.558938 1.18195e-19)
(0.88531 0.530594 0)
(0.836476 0.491796 3.53235e-20)
(0.684359 0.39904 -2.99838e-22)
(0.412837 0.245087 -7.43779e-20)
(0.168401 0.106361 2.91151e-20)
(0.0146552 0.0190314 0)
(-0.0524293 -0.0214285 1.01525e-19)
(-0.051958 -0.0251368 0)
(-0.0133706 -0.00677355 -9.96617e-20)
(0.242886 0.141334 1.33638e-21)
(1.14743 0.648931 9.8637e-22)
(1.34855 0.768598 2.1618e-21)
(1.37119 0.796192 0)
(1.32289 0.784841 -1.2539e-20)
(1.25394 0.760782 0)
(1.18246 0.733751 -4.10737e-20)
(1.10872 0.703496 -1.3088e-20)
(1.03373 0.668497 1.25139e-20)
(0.960373 0.627799 -7.17798e-20)
(0.902454 0.588342 1.22681e-20)
(0.865552 0.556847 0)
(0.814071 0.513159 -7.51564e-20)
(0.65771 0.411191 2.22579e-22)
(0.39028 0.248893 0)
(0.154051 0.105738 3.28572e-23)
(0.00408837 0.0146449 9.20602e-20)
(-0.0608831 -0.0273987 -8.70256e-20)
(-0.0576341 -0.0299359 2.57678e-20)
(-0.0146278 -0.00794436 0)
(0.240797 0.14967 0)
(1.13531 0.688424 2.35316e-21)
(1.33572 0.816291 -3.36879e-22)
(1.35699 0.844512 -5.35936e-22)
(1.30819 0.831256 -5.19982e-21)
(1.23898 0.804769 -2.74324e-20)
(1.16691 0.775184 1.52394e-20)
(1.0922 0.742144 -1.51547e-20)
(1.01592 0.703953 5.54692e-20)
(0.941125 0.659414 -1.14932e-19)
(0.882377 0.615972 -7.76831e-22)
(0.845275 0.58091 -3.32421e-20)
(0.791731 0.531995 1.21376e-19)
(0.632688 0.421165 -3.27373e-22)
(0.370468 0.251504 -5.69419e-20)
(0.141632 0.104207 -1.00458e-19)
(-0.00499272 0.00967546 0)
(-0.0684085 -0.0337663 0)
(-0.0631542 -0.0351101 2.76173e-20)
(-0.0160464 -0.00928837 -1.63688e-20)
(0.239369 0.157962 3.22374e-21)
(1.12342 0.725686 -6.47972e-21)
(1.32241 0.861213 3.49481e-22)
(1.34229 0.88996 0)
(1.29306 0.874975 -3.1251e-22)
(1.22366 0.846315 -2.66105e-20)
(1.15107 0.814451 3.78585e-20)
(1.07545 0.778903 6.08578e-20)
(0.997877 0.7378 7.26498e-20)
(0.921502 0.689586 -9.44694e-20)
(0.861705 0.641965 -1.01697e-19)
(0.824378 0.602816 8.89637e-20)
(0.769367 0.548235 0)
(0.609162 0.428881 -2.60396e-20)
(0.353086 0.252838 -6.10592e-20)
(0.131062 0.101853 -7.1779e-20)
(-0.0124568 0.00438019 -8.46019e-20)
(-0.0746397 -0.0402097 2.50119e-20)
(-0.0680437 -0.0403821 -1.47998e-20)
(-0.0174755 -0.0107366 1.86799e-23)
(0.238196 0.166041 0)
(1.11223 0.760674 0)
(1.3089 0.903481 5.11552e-22)
(1.32735 0.932652 0)
(1.27777 0.916107 1.50202e-20)
(1.20824 0.885509 1.9378e-20)
(1.1352 0.851618 0)
(1.05871 0.813839 7.45405e-21)
(0.979804 0.770116 1.22343e-19)
(0.901668 0.718462 -2.17695e-19)
(0.840473 0.666531 0)
(0.802726 0.622676 -5.74463e-20)
(0.746765 0.561786 -4.65337e-22)
(0.586973 0.434214 -2.41594e-22)
(0.337965 0.252846 6.5399e-20)
(0.122408 0.0990494 8.44361e-24)
(-0.0183692 -0.000489557 -1.81408e-19)
(-0.0797931 -0.0460247 5.36084e-20)
(-0.0722988 -0.0454031 1.58917e-20)
(-0.0187857 -0.0121874 0)
(0.237286 0.173868 -1.63051e-20)
(1.10147 0.7939 -6.32944e-21)
(1.29531 0.943193 -4.22315e-21)
(1.3124 0.972705 -8.14449e-21)
(1.26253 0.954743 2.37704e-20)
(1.19292 0.922438 0)
(1.11947 0.886763 2.40111e-20)
(1.04215 0.847023 -1.65359e-20)
(0.961886 0.800987 7.9907e-22)
(0.881794 0.746192 1.60141e-20)
(0.818744 0.689926 1.33082e-19)
(0.780167 0.640703 -2.02845e-20)
(0.723637 0.572619 -7.48457e-20)
(0.565771 0.436889 -3.00829e-20)
(0.325324 0.251257 3.51131e-20)
(0.116323 0.0963507 1.42702e-23)
(-0.0224923 -0.00326025 4.86407e-20)
(-0.0852526 -0.049779 -1.14981e-19)
(-0.077729 -0.0501038 1.36353e-19)
(-0.020413 -0.0138241 2.01574e-20)
(0.236425 0.181447 6.65151e-21)
(1.09119 0.825416 -3.85083e-21)
(1.28183 0.980492 1.33487e-21)
(1.29761 1.01026 -2.02651e-21)
(1.24751 0.991008 -3.69946e-21)
(1.17785 0.957193 -3.54833e-20)
(1.10406 0.919961 7.45342e-21)
(1.02595 0.878517 -6.96745e-20)
(0.944298 0.830476 -1.37227e-19)
(0.862044 0.772893 -1.31475e-19)
(0.796621 0.712427 0)
(0.756558 0.657231 -8.92477e-20)
(0.69955 0.580764 1.07933e-19)
(0.54533 0.436373 0)
(0.315559 0.247156 -7.52846e-20)
(0.115197 0.0932986 4.42183e-20)
(-0.021903 -0.00316608 -5.2151e-20)
(-0.0909215 -0.0512536 -6.17013e-20)
(-0.08768 -0.0557773 -1.0964e-19)
(-0.023979 -0.0165849 -8.65775e-20)
(0.235922 0.188861 -7.98303e-21)
(1.08127 0.855252 4.13808e-21)
(1.26857 1.01546 8.00636e-21)
(1.2831 1.04541 -9.08944e-22)
(1.23284 1.02501 8.88401e-21)
(1.16317 0.989875 -2.09273e-20)
(1.0891 0.951285 2.46993e-20)
(1.01023 0.908393 -7.2732e-20)
(0.927174 0.858652 -8.21447e-20)
(0.842586 0.798676 1.39435e-19)
(0.774226 0.734291 2.96384e-19)
(0.731809 0.672708 0)
(0.673945 0.586458 0)
(0.524669 0.432047 -3.46574e-20)
(0.30849 0.238886 0)
(0.120688 0.0866688 9.48961e-20)
(-0.0104819 -0.00652954 1.1181e-19)
(-0.0876229 -0.0566681 0)
(-0.0983194 -0.0654541 0)
(-0.0310129 -0.0218553 9.30706e-20)
(0.235306 0.195857 9.58752e-21)
(1.07176 0.883438 7.37366e-21)
(1.25563 1.04824 6.02873e-21)
(1.26897 1.0783 -1.40326e-21)
(1.2186 1.05686 8.10585e-21)
(1.14896 1.02057 2.37934e-20)
(1.07467 0.980806 -3.46206e-20)
(0.995095 0.936701 -3.07489e-22)
(0.910648 0.885563 -1.06215e-21)
(0.82358 0.823616 -5.3004e-22)
(0.751736 0.755747 1.5373e-19)
(0.705904 0.687613 0)
(0.646252 0.590244 1.10591e-19)
(0.502197 0.4237 7.48955e-20)
(0.30166 0.224211 1.75522e-19)
(0.131679 0.0688121 5.11916e-20)
(0.0146909 -0.0267372 -6.01399e-20)
(-0.056957 -0.0783666 -3.56426e-20)
(-0.0814438 -0.0787186 0)
(-0.0348468 -0.0272533 1.00497e-19)
(0.235046 0.202873 -2.2724e-20)
(1.06264 0.910083 0)
(1.24303 1.07888 8.29533e-21)
(1.25526 1.10904 -2.00549e-21)
(1.20488 1.08668 -6.50824e-21)
(1.1353 1.04937 -2.93087e-20)
(1.06085 1.00859 7.01698e-20)
(0.980633 0.96349 -5.60267e-21)
(0.89482 0.911244 0)
(0.805178 0.847749 -1.57189e-19)
(0.729356 0.776971 -3.38877e-19)
(0.678938 0.702445 1.36112e-20)
(0.616064 0.592899 1.55078e-19)
(0.476301 0.412081 0)
(0.290952 0.202166 1.19376e-19)
(0.139899 0.0360921 0)
(0.0423317 -0.0752764 0)
(-0.00164732 -0.132391 -3.84096e-20)
(0.00337849 -0.103175 0)
(0.0138603 -0.0094965 2.71116e-20)
(0.234554 0.209359 -2.6217e-20)
(1.05389 0.935528 0)
(1.23076 1.1076 1.49171e-20)
(1.24194 1.13786 0)
(1.19164 1.11471 2.50192e-21)
(1.12213 1.07657 0)
(1.0476 1.03494 3.85275e-21)
(0.966763 0.989094 1.03893e-20)
(0.879587 0.936053 1.05606e-20)
(0.787238 0.871452 -1.74591e-19)
(0.706918 0.798463 1.03665e-20)
(0.650589 0.718099 1.10088e-19)
(0.582628 0.595575 1.5259e-19)
(0.445038 0.398183 2.01163e-20)
(0.272343 0.174749 9.45672e-20)
(0.135423 -0.008671 0)
(0.0534409 -0.146806 1.26647e-19)
(0.0310015 -0.15418 -7.4422e-20)
(0.0172663 0.0210878 8.76006e-20)
(-0.0389545 0.46668 -1.04053e-19)
(0.234121 0.215687 2.22151e-20)
(1.04528 0.959608 3.18779e-20)
(1.21877 1.13473 0)
(1.22887 1.16521 9.78212e-22)
(1.1787 1.14156 -4.48057e-21)
(1.10918 1.10284 4.5511e-20)
(1.03459 1.06066 2.60189e-20)
(0.953064 1.01443 0)
(0.864407 0.961051 7.154e-20)
(0.769068 0.895972 -9.29919e-21)
(0.683458 0.821613 0)
(0.619351 0.736054 0)
(0.543222 0.599142 1.38811e-19)
(0.404753 0.382161 -6.23259e-20)
(0.241968 0.143705 -9.73985e-20)
(0.115752 -0.0619643 0)
(0.04076 -0.104413 6.45806e-20)
(-0.000309448 0.440257 -7.49078e-20)
(0.0258132 1.95796 -4.23143e-20)
(0.0512665 2.84021 -5.19041e-20)
(0.233445 0.221532 -1.73158e-20)
(1.0369 0.982506 -4.20492e-20)
(1.20707 1.16028 9.47085e-21)
(1.21607 1.19097 4.91261e-21)
(1.16613 1.16703 0)
(1.09657 1.12792 2.96212e-20)
(1.02206 1.08543 3.77712e-20)
(0.939754 1.03909 -5.24031e-21)
(0.8496 0.985759 1.07495e-20)
(0.75112 0.920797 1.69477e-19)
(0.659701 0.846016 1.7716e-19)
(0.586293 0.756773 1.27854e-19)
(0.498376 0.605063 1.42114e-19)
(0.35509 0.364671 -1.49886e-19)
(0.203435 0.115479 -1.49725e-19)
(0.0774798 0.00376529 0)
(0.0299638 0.940842 0)
(0.0738134 2.60918 3.64322e-20)
(0.0771365 3.2262 0)
(0.0797882 3.39395 9.55918e-20)
(0.235664 0.227106 0)
(1.02913 1.00464 0)
(1.19535 1.1841 0)
(1.20335 1.21499 1.95612e-21)
(1.15359 1.19086 -3.4292e-21)
(1.0841 1.15166 1.91988e-20)
(1.00993 1.10916 2.52445e-20)
(0.926774 1.06294 -5.23755e-21)
(0.835112 1.01 9.2425e-20)
(0.733411 0.945776 -1.33099e-21)
(0.635804 0.871551 3.56117e-19)
(0.551878 0.780652 -1.48714e-20)
(0.448173 0.615359 1.7723e-20)
(0.295981 0.345661 2.20296e-20)
(0.148992 0.122321 -1.04581e-21)
(0.0697202 1.05807 3.24391e-22)
(0.104989 2.79488 -1.97408e-19)
(0.109295 3.30543 -7.4301e-20)
(0.103591 3.42282 3.96527e-20)
(0.0960017 3.44167 -4.52556e-20)
(0.157801 0.171874 1.10562e-20)
(1.01677 1.02872 0)
(1.18337 1.20644 -2.14197e-20)
(1.19117 1.23774 -1.6043e-20)
(1.14153 1.21355 -4.39241e-22)
(1.07247 1.17456 -1.90448e-20)
(0.997997 1.13187 -2.74573e-20)
(0.914158 1.08603 6.28145e-20)
(0.821038 1.03388 -7.75107e-20)
(0.716211 0.971042 0)
(0.612174 0.898356 1.78845e-19)
(0.516794 0.807847 -1.07121e-19)
(0.398319 0.645308 0)
(0.227086 0.332869 2.20724e-20)
(0.103617 0.674191 5.07556e-20)
(0.118406 2.61482 -5.64894e-20)
(0.162682 3.32618 6.39525e-20)
(0.149681 3.42767 3.47771e-20)
(0.125937 3.44649 3.92143e-20)
(0.109044 3.45553 6.38086e-20)
(0.269809 0.263831 -2.08667e-20)
(0.997101 1.03731 0)
(1.16336 1.23165 2.45027e-20)
(1.17551 1.26892 2.04242e-20)
(1.12302 1.24697 -4.13678e-21)
(1.05339 1.20824 1.43463e-20)
(0.977674 1.16701 3.18274e-20)
(0.893046 1.12226 4.91075e-21)
(0.797985 1.07204 7.68147e-20)
(0.689034 1.01286 1.54491e-19)
(0.576472 0.945223 1.03233e-20)
(0.462116 0.850918 9.83186e-20)
(0.30418 0.656732 1.75148e-20)
(0.186275 0.801491 -2.171e-20)
(0.192527 2.51289 -4.76828e-20)
(0.243771 3.32337 4.76777e-20)
(0.226793 3.44576 -5.26782e-20)
(0.194747 3.4661 -3.01511e-20)
(0.163574 3.49138 -2.88595e-20)
(0.119967 3.48854 -4.09617e-21)
(0.259416 0.262343 0)
(0.993076 1.0595 8.25355e-21)
(1.15369 1.25495 -5.38498e-21)
(1.1636 1.29239 -2.83146e-21)
(1.11114 1.27019 -4.82528e-21)
(1.04147 1.23158 -1.26524e-20)
(0.965314 1.19047 -1.89576e-20)
(0.880209 1.14646 4.55855e-21)
(0.784067 1.09762 -8.18051e-20)
(0.672645 1.04121 -2.4461e-21)
(0.554745 0.978094 -3.34309e-19)
(0.429411 0.884465 1.41726e-20)
(0.27136 0.730127 -1.68598e-20)
(0.221209 1.5159 -2.03458e-20)
(0.287807 3.14758 3.57535e-21)
(0.29836 3.44349 -7.73932e-23)
(0.259484 3.49052 8.44425e-20)
(0.227285 3.51721 4.4336e-20)
(0.182747 3.53866 -1.74545e-20)
(0.134512 3.5371 -2.26045e-20)
(0.244975 0.259823 2.20516e-20)
(0.988065 1.08419 5.66741e-20)
(1.1436 1.28033 -1.53199e-20)
(1.15129 1.31749 -1.04374e-20)
(1.09876 1.29489 0)
(1.02913 1.25626 -1.08196e-20)
(0.95282 1.21535 -2.4434e-20)
(0.867495 1.17206 4.17825e-21)
(0.770593 1.12479 -9.11341e-21)
(0.657289 1.07164 -1.46433e-19)
(0.535145 1.01391 -1.57785e-19)
(0.400351 0.919841 -1.18247e-19)
(0.270321 0.896495 -1.2912e-19)
(0.290756 2.34699 1.31576e-19)
(0.37178 3.37221 1.13006e-19)
(0.339785 3.49448 0)
(0.294497 3.53575 0)
(0.259045 3.57139 -1.44824e-20)
(0.218352 3.61601 0)
(0.150079 3.60446 -2.51785e-20)
(0.234754 0.261256 -3.37274e-20)
(0.98108 1.10963 -4.91211e-20)
(1.13207 1.30692 0)
(1.13768 1.34341 1.18367e-21)
(1.08509 1.32025 -9.39889e-21)
(1.01565 1.28152 -1.05492e-20)
(0.939524 1.24086 -1.39946e-20)
(0.854214 1.19828 3.04115e-21)
(0.75682 1.15261 -6.19644e-20)
(0.64213 1.10288 7.60004e-21)
(0.516849 1.05078 0)
(0.371851 0.957634 0)
(0.292374 1.22232 -1.19846e-19)