/*--------------------------------*- C++ -*----------------------------------*\
  =========                 |
  \\      /  F ield         | OpenFOAM: The Open Source CFD Toolbox
   \\    /   O peration     | Website:  https://openfoam.org
    \\  /    A nd           | Version:  6
     \\/     M anipulation  |
\*---------------------------------------------------------------------------*/
FoamFile
{
    version     2.0;
    format      ascii;
    class       volVectorField;
    location    "97.1";
    object      U;
}
// * * * * * * * * * * * * * * * * * * * * * * * * * * * * * * * * * * * * * //

dimensions      [0 1 -1 0 0 0 0];

internalField   nonuniform List<vector> 
8800
(
(0.987184 -0.0766652 0)
(1.00189 -0.05519 0)
(0.999722 -0.0285477 0)
(1.00003 -0.0151425 0)
(1.0001 -0.00854351 0)
(1.00012 -0.00504533 0)
(1.00008 -0.00299946 0)
(1.00002 -0.00169854 0)
(0.999991 -0.000792059 0)
(1.00006 -7.59718e-05 0)
(0.999958 0.000656705 0)
(1.00001 0.00142489 0)
(1.00006 0.00243029 0)
(1.00007 0.00399912 0)
(1.00006 0.00663291 0)
(1.00005 0.0113723 0)
(0.999954 0.0208158 0)
(0.999173 0.0386706 0)
(1.0071 0.0724575 0)
(0.771215 0.0366617 0)
(0.36308 -0.0160163 0)
(1.04332 -0.0768111 0)
(1.0846 -0.0704392 0)
(1.04519 -0.0535324 0)
(1.02329 -0.0388824 0)
(1.01203 -0.0262029 0)
(1.00643 -0.0168389 0)
(1.0036 -0.0103032 0)
(1.00215 -0.00563875 0)
(1.00144 -0.0019757 0)
(1.00128 0.00134648 0)
(1.00166 0.00473534 0)
(1.00269 0.00865802 0)
(1.00468 0.0139755 0)
(1.00861 0.0216834 0)
(1.01657 0.0326498 0)
(1.03251 0.0465613 0)
(1.06268 0.0616774 0)
(1.09187 0.0761054 0)
(0.838664 0.0565643 0)
(0.216873 -0.00242862 0)
(1.07592 -0.0501222 0)
(1.09989 -0.0482906 0)
(1.06465 -0.0404387 0)
(1.04005 -0.0335754 0)
(1.02393 -0.0260474 0)
(1.01413 -0.0184559 0)
(1.00856 -0.0116259 0)
(1.00558 -0.00574805 0)
(1.0043 -0.000323006 0)
(1.00463 0.00492713 0)
(1.00661 0.0103191 0)
(1.01063 0.016379 0)
(1.01794 0.0233955 0)
(1.03053 0.0308574 0)
(1.05062 0.0378806 0)
(1.08037 0.0445606 0)
(1.10627 0.0513691 0)
(0.942496 0.0416299 0)
(0.216115 0.00246296 0)
(0.175219 -0.000815058 0)
(1.01776 -0.0354636 0)
(1.10523 -0.0413461 0)
(1.07829 -0.0360221 0)
(1.0535 -0.030079 0)
(1.03624 -0.0244927 0)
(1.02403 -0.0187503 0)
(1.0159 -0.0126546 0)
(1.01102 -0.00645221 0)
(1.00879 -0.000106081 0)
(1.00934 0.00615557 0)
(1.01265 0.0121536 0)
(1.01889 0.0179466 0)
(1.02875 0.0235093 0)
(1.04318 0.0288031 0)
(1.0637 0.0342751 0)
(1.09356 0.0402524 0)
(1.09339 0.0420025 0)
(0.827039 0.0229325 0)
(0.173942 0.000854934 0)
(0.154044 -0.00060872 0)
(0.956321 -0.0254288 0)
(1.10352 -0.0350772 0)
(1.08773 -0.0325873 0)
(1.06178 -0.0279223 0)
(1.04417 -0.022883 0)
(1.03169 -0.0176161 0)
(1.02282 -0.0120624 0)
(1.01698 -0.00610592 0)
(1.0141 0.000379233 0)
(1.01475 0.0068496 0)
(1.01877 0.0127305 0)
(1.0258 0.0179716 0)
(1.03606 0.0228733 0)
(1.0506 0.0276215 0)
(1.07184 0.0321357 0)
(1.10005 0.0360575 0)
(1.06799 0.0340947 0)
(0.739313 0.0143407 0)
(0.152116 0.000654028 0)
(0.139706 -0.000464636 0)
(0.899532 -0.0190363 0)
(1.09591 -0.0300058 0)
(1.09583 -0.0290941 0)
(1.06934 -0.0253453 0)
(1.0509 -0.0211848 0)
(1.03796 -0.0163849 0)
(1.02882 -0.0110685 0)
(1.02267 -0.00529743 0)
(1.01949 0.00105104 0)
(1.02007 0.00737424 0)
(1.02421 0.0130041 0)
(1.03135 0.0179028 0)
(1.04181 0.022349 0)
(1.05692 0.0263001 0)
(1.07911 0.0297397 0)
(1.1022 0.032347 0)
(1.03578 0.0282094 0)
(0.672581 0.010248 0)
(0.136978 0.000516912 0)
(0.12921 -0.000358825 0)
(0.850098 -0.0146614 0)
(1.08362 -0.0258468 0)
(1.10157 -0.0261077 0)
(1.07624 -0.0227983 0)
(1.05727 -0.0191268 0)
(1.04386 -0.0148455 0)
(1.03436 -0.00988307 0)
(1.02796 -0.00431456 0)
(1.02457 0.00186121 0)
(1.02499 0.00797545 0)
(1.02908 0.0133278 0)
(1.03632 0.0178017 0)
(1.04704 0.0216392 0)
(1.06255 0.0249206 0)
(1.08517 0.0278337 0)
(1.10123 0.0295615 0)
(1.00067 0.0237263 0)
(0.620525 0.00789544 0)
(0.125507 0.00042034 0)
(0.121223 -0.000277633 0)
(0.808164 -0.0114887 0)
(1.06849 -0.0222052 0)
(1.10517 -0.0234261 0)
(1.08256 -0.0205222 0)
(1.06317 -0.0170576 0)
(1.04948 -0.0130736 0)
(1.03969 -0.0084384 0)
(1.03299 -0.00313142 0)
(1.02933 0.00283412 0)
(1.02955 0.00870531 0)
(1.03359 0.0137083 0)
(1.04087 0.0176944 0)
(1.05167 0.0210212 0)
(1.06738 0.0238862 0)
(1.09035 0.0264925 0)
(1.09733 0.0273124 0)
(0.965131 0.0202263 0)
(0.578578 0.00637533 0)
(0.116334 0.000350827 0)
(0.11506 -0.000213786 0)
(0.772961 -0.00910886 0)
(1.05192 -0.0189896 0)
(1.10766 -0.0209317 0)
(1.0885 -0.0183892 0)
(1.06872 -0.0150595 0)
(1.05479 -0.011226 0)
(1.0448 -0.00678866 0)
(1.03783 -0.00171029 0)
(1.03387 0.00401213 0)
(1.03383 0.00958952 0)
(1.03774 0.0142154 0)
(1.04493 0.0177646 0)
(1.0557 0.0207009 0)
(1.0716 0.023234 0)
(1.09421 0.0254857 0)
(1.09053 0.0254754 0)
(0.930437 0.0175456 0)
(0.543713 0.00534564 0)
(0.108729 0.000301337 0)
(0.110288 -0.000162143 0)
(0.743556 -0.00725429 0)
(1.035 -0.016128 0)
(1.10923 -0.0185671 0)
(1.09418 -0.0163192 0)
(1.07412 -0.0130699 0)
(1.05991 -0.00931174 0)
(1.04971 -0.00498047 0)
(1.04249 -6.08401e-05 0)
(1.03821 0.00543183 0)
(1.03785 0.010703 0)
(1.04152 0.014969 0)
(1.04853 0.0181274 0)
(1.05923 0.020716 0)
(1.07532 0.0229506 0)
(1.09676 0.0248119 0)
(1.08122 0.0240084 0)
(0.897127 0.0155351 0)
(0.513861 0.00463738 0)
(0.102206 0.000267185 0)
(0.106627 -0.000118912 0)
(0.71914 -0.00575049 0)
(1.01855 -0.0135479 0)
(1.11002 -0.0162677 0)
(1.09978 -0.0142777 0)
(1.07945 -0.0110258 0)
(1.06494 -0.00728055 0)
(1.0545 -0.00299298 0)
(1.04701 0.00183038 0)
(1.04237 0.00713874 0)
(1.0416 0.0121294 0)
(1.04494 0.016059 0)
(1.05171 0.0188413 0)
(1.06233 0.0210937 0)
(1.07858 0.023052 0)
(1.0979 0.0244835 0)
(1.06975 0.0229122 0)
(0.865289 0.0140798 0)
(0.487548 0.00416074 0)
(0.0964197 0.000245385 0)
(0.103891 -8.10911e-05 0)
(0.699083 -0.00448069 0)
(1.00321 -0.0111805 0)
(1.1102 -0.0139964 0)
(1.10526 -0.012178 0)
(1.08482 -0.00887201 0)
(1.06998 -0.00507776 0)
(1.05926 -0.00077055 0)
(1.05143 0.00401666 0)
(1.04634 0.00919384 0)
(1.04507 0.0139406 0)
(1.04802 0.0175532 0)
(1.05451 0.0199628 0)
(1.065 0.0218845 0)
(1.08136 0.0235689 0)
(1.09795 0.0246501 0)
(1.05634 0.0222056 0)
(0.834719 0.0130975 0)
(0.463656 0.00386192 0)
(0.0911035 0.000233576 0)
(0.101966 -4.59543e-05 0)
(0.682927 -0.00335698 0)
(0.989435 -0.00895369 0)
(1.10998 -0.0116643 0)
(1.1106 -0.00993562 0)
(1.0903 -0.00654502 0)
(1.07511 -0.00263782 0)
(1.06405 0.00175827 0)
(1.05581 0.00657442 0)
(1.05016 0.0116748 0)
(1.0483 0.0162115 0)
(1.05077 0.0195222 0)
(1.05692 0.0215568 0)
(1.06725 0.0231463 0)
(1.08362 0.0245367 0)
(1.09709 0.0251606 0)
(1.04112 0.0218965 0)
(0.805035 0.0125123 0)
(0.441294 0.00370231 0)
(0.0860476 0.000229612 0)
(0.100794 -1.12009e-05 0)
(0.670384 -0.00230899 0)
(0.977602 -0.00679158 0)
(1.10971 -0.00921335 0)
(1.11595 -0.00748877 0)
(1.09598 -0.00396674 0)
(1.0804 0.000121475 0)
(1.06894 0.00467863 0)
(1.06019 0.00959407 0)
(1.05389 0.0146747 0)
(1.05129 0.0190338 0)
(1.05319 0.0220547 0)
(1.05894 0.0237094 0)
(1.06908 0.0249586 0)
(1.08542 0.0260532 0)
(1.09488 0.0261545 0)
(1.0241 0.0219921 0)
(0.77576 0.0122789 0)
(0.419735 0.00365787 0)
(0.0810849 0.000232226 0)
(0.100368 2.58067e-05 0)
(0.661316 -0.00127998 0)
(0.968035 -0.00462038 0)
(1.10971 -0.00658198 0)
(1.12146 -0.00476332 0)
(1.10196 -0.00104826 0)
(1.08595 0.00329467 0)
(1.07401 0.00808991 0)
(1.06465 0.0131798 0)
(1.05755 0.018303 0)
(1.05408 0.022519 0)
(1.05529 0.0252558 0)
(1.06056 0.0265352 0)
(1.07045 0.0274217 0)
(1.08666 0.0281809 0)
(1.09124 0.0276633 0)
(1.00518 0.0225373 0)
(0.746348 0.0123733 0)
(0.398353 0.00371536 0)
(0.0760733 0.000240717 0)
(0.1007 5.89401e-05 0)
(0.655714 -0.000210924 0)
(0.961045 -0.00236372 0)
(1.11034 -0.00370155 0)
(1.12729 -0.00167393 0)
(1.10833 0.00231204 0)
(1.09186 0.00699342 0)
(1.07935 0.0121126 0)
(1.06925 0.017459 0)
(1.06118 0.02269 0)
(1.05666 0.026795 0)
(1.05705 0.0292522 0)
(1.06177 0.0301541 0)
(1.07134 0.0306549 0)
(1.08705 0.0310343 0)
(1.08585 0.0297759 0)
(0.984093 0.0235694 0)
(0.71618 0.01278 0)
(0.376572 0.00386483 0)
(0.0708865 0.000254182 0)
(0.101881 0.000114653 0)
(0.653737 0.000941496 0)
(0.956958 5.54114e-05 0)
(1.11199 -0.000492261 0)
(1.13365 0.00188109 0)
(1.11524 0.00623547 0)
(1.09825 0.0113517 0)
(1.08506 0.0168927 0)
(1.07406 0.0225861 0)
(1.06482 0.0279929 0)
(1.05905 0.0320193 0)
(1.05846 0.0341986 0)
(1.06251 0.0347019 0)
(1.07169 0.0347945 0)
(1.08644 0.0347515 0)
(1.07844 0.032576 0)
(0.960471 0.0251265 0)
(0.684572 0.0134885 0)
(0.35385 0.0040967 0)
(0.0654148 0.000271618 0)
(0.104058 0.000166813 0)
(0.655565 0.00206785 0)
(0.95614 0.00273206 0)
(1.11513 0.00315199 0)
(1.14077 0.00601338 0)
(1.12283 0.0108645 0)
(1.10524 0.01653 0)
(1.09124 0.0226062 0)
(1.07915 0.0287461 0)
(1.06851 0.0343968 0)
(1.06123 0.0383613 0)
(1.0595 0.0402296 0)
(1.06275 0.0403355 0)
(1.07146 0.0399924 0)
(1.08458 0.0394315 0)
(1.06868 0.0361668 0)
(0.933776 0.0272533 0)
(0.650784 0.0144893 0)
(0.329687 0.00440043 0)
(0.0595681 0.000291817 0)
(0.107335 0.000231122 0)
(0.661846 0.00356001 0)
(0.958941 0.00568494 0)
(1.12022 0.00737065 0)
(1.14889 0.0108694 0)
(1.13129 0.0163849 0)
(1.11301 0.0227362 0)
(1.09801 0.0294764 0)
(1.0846 0.0361672 0)
(1.07226 0.0421211 0)
(1.06321 0.0460259 0)
(1.06015 0.0475654 0)
(1.06243 0.0472407 0)
(1.07058 0.0464197 0)
(1.08149 0.045243 0)
(1.05607 0.0406681 0)
(0.903299 0.029984 0)
(0.614016 0.0157619 0)
(0.303619 0.00475997 0)
(0.0532802 0.000312971 0)
(0.111998 0.000318106 0)
(0.67289 0.00531301 0)
(0.965952 0.0091996 0)
(1.12777 0.0123261 0)
(1.15835 0.0166639 0)
(1.14086 0.0230386 0)
(1.12174 0.0302343 0)
(1.10551 0.0377822 0)
(1.09047 0.0451286 0)
(1.07608 0.0514308 0)
(1.06493 0.0552482 0)
(1.0603 0.0564209 0)
(1.06153 0.0556207 0)
(1.06898 0.0542726 0)
(1.07707 0.0523619 0)
(1.03995 0.0461874 0)
(0.86814 0.0333242 0)
(0.573423 0.0172608 0)
(0.275262 0.0051485 0)
(0.0465222 0.000332422 0)
(0.118407 0.00043489 0)
(0.68952 0.00749838 0)
(0.977985 0.0134845 0)
(1.13835 0.0182532 0)
(1.16954 0.0236622 0)
(1.15183 0.0311488 0)
(1.13163 0.0393789 0)
(1.11386 0.0478861 0)
(1.0968 0.055974 0)
(1.07995 0.0626249 0)
(1.06636 0.0662809 0)
(1.05982 0.0669979 0)
(1.05997 0.0656798 0)
(1.06673 0.0637539 0)
(1.07097 0.0609856 0)
(1.01946 0.0527903 0)
(0.827203 0.0372243 0)
(0.52818 0.0188964 0)
(0.244375 0.00552379 0)
(0.0393211 0.000346606 0)
(0.127091 0.000597665 0)
(0.712761 0.0103533 0)
(0.9958 0.0188071 0)
(1.15264 0.0254957 0)
(1.18292 0.0322483 0)
(1.16454 0.0411791 0)
(1.14292 0.0506589 0)
(1.12317 0.0602684 0)
(1.1036 0.0691312 0)
(1.0838 0.0760491 0)
(1.06739 0.0793964 0)
(1.05872 0.0795228 0)
(1.0577 0.0776185 0)
(1.06354 0.0750155 0)
(1.0626 0.0711273 0)
(0.993423 0.0604908 0)
(0.77921 0.0415384 0)
(0.477581 0.0205142 0)
(0.210961 0.00582596 0)
(0.0317801 0.000351233 0)
(0.138858 0.000836446 0)
(0.743994 0.0142604 0)
(1.02057 0.0256448 0)
(1.17143 0.0346023 0)
(1.19916 0.0430271 0)
(1.17938 0.0538096 0)
(1.15581 0.0647591 0)
(1.13347 0.0755541 0)
(1.11075 0.0851143 0)
(1.08746 0.0920831 0)
(1.06786 0.0948585 0)
(1.0569 0.0942099 0)
(1.05476 0.0916857 0)
(1.05908 0.0882835 0)
(1.05112 0.0829772 0)
(0.960306 0.0691509 0)
(0.722781 0.0459686 0)
(0.42124 0.0218774 0)
(0.175396 0.00597849 0)
(0.0240965 0.000341856 0)
(0.155011 0.00120975 0)
(0.785219 0.0198712 0)
(1.05395 0.0347898 0)
(1.19568 0.046532 0)
(1.21917 0.0574121 0)
(1.19672 0.0701165 0)
(1.17038 0.0826769 0)
(1.1446 0.0945615 0)
(1.11802 0.104516 0)
(1.09068 0.111101 0)
(1.06759 0.112893 0)
(1.05423 0.111227 0)
(1.05103 0.107992 0)
(1.05317 0.103842 0)
(1.03534 0.096477 0)
(0.918122 0.0784019 0)
(0.656646 0.0500146 0)
(0.359396 0.0226682 0)
(0.138559 0.00589955 0)
(0.0165674 0.000314922 0)
(0.177796 0.00185673 0)
(0.839663 0.0283359 0)
(1.09888 0.0478372 0)
(1.22649 0.0631572 0)
(1.24337 0.0770154 0)
(1.21666 0.0917782 0)
(1.18637 0.105775 0)
(1.15615 0.118265 0)
(1.12494 0.127951 0)
(1.09308 0.13345 0)
(1.06629 0.133682 0)
(1.05051 0.130663 0)
(1.04632 0.126575 0)
(1.04567 0.121414 0)
(1.01348 0.111341 0)
(0.864433 0.0875476 0)
(0.580134 0.0529542 0)
(0.293382 0.0225372 0)
(0.101944 0.00552464 0)
(0.00957698 0.000268226 0)
(0.210704 0.00328812 0)
(0.913199 0.0424216 0)
(1.15833 0.0686861 0)
(1.26419 0.0879942 0)
(1.27162 0.104955 0)
(1.2386 0.12123 0)
(1.20293 0.135708 0)
(1.16728 0.147663 0)
(1.13084 0.155958 0)
(1.09417 0.159366 0)
(1.06367 0.157312 0)
(1.04556 0.152528 0)
(1.04048 0.147453 0)
(1.03572 0.141039 0)
(0.982929 0.126922 0)
(0.796505 0.0954245 0)
(0.494224 0.0539358 0)
(0.226351 0.021282 0)
(0.0677671 0.0048502 0)
(0.00360818 0.000200899 0)
(0.255607 0.00973969 9.27759e-21)
(1.00962 0.0703184 7.96829e-21)
(1.2299 0.10416 -2.78777e-21)
(1.30593 0.125023 0)
(1.30092 0.144997 -7.15031e-35)
(1.26026 0.160886 1.04656e-21)
(1.21847 0.174016 -1.89293e-21)
(1.17693 0.183979 0)
(1.13497 0.189803 3.92421e-35)
(1.09327 0.190372 -2.37449e-21)
(1.05889 0.185646 0)
(1.03857 0.179137 -2.84774e-21)
(1.03335 0.173876 -8.42444e-21)
(1.0211 0.166238 -3.99641e-21)
(0.937651 0.145127 -1.20506e-21)
(0.706309 0.102166 -7.15912e-22)
(0.394173 0.0526882 0)
(0.157902 0.0191807 5.00727e-22)
(0.0361773 0.00400751 5.9298e-22)
(-0.00142607 8.27643e-05 1.08447e-20)
(0.28703 0.0255006 6.47539e-21)
(1.08982 0.114472 1.18579e-22)
(1.28892 0.154685 7.28012e-22)
(1.34398 0.175554 0)
(1.32691 0.195573 -3.55967e-21)
(1.27921 0.209426 -4.06091e-21)
(1.23144 0.220407 -1.89176e-21)
(1.18408 0.228123 -6.76351e-21)
(1.13655 0.231568 0)
(1.08966 0.229573 1.00266e-20)
(1.05121 0.222531 9.98414e-21)
(1.0282 0.214437 2.96923e-21)
(1.02004 0.208056 1.09041e-20)
(0.992801 0.196632 1.54165e-20)
(0.862313 0.164226 0)
(0.580314 0.106533 2.17235e-20)
(0.27933 0.0496018 3.11453e-20)
(0.0897295 0.0158833 3.46515e-20)
(0.0067101 0.00202052 -3.97442e-20)
(-0.00589269 -0.00047307 -7.58397e-22)
(0.289057 0.0433714 0)
(1.14171 0.171463 1.03862e-21)
(1.32975 0.216441 0)
(1.37402 0.2371 -4.43884e-21)
(1.34774 0.254012 0)
(1.29413 0.263974 -7.84102e-21)
(1.24081 0.271281 3.81977e-21)
(1.18798 0.275565 -1.34651e-20)
(1.13527 0.275705 -3.31163e-22)
(1.08363 0.270468 5.13311e-21)
(1.04159 0.260727 2.18368e-20)
(1.01626 0.250891 -2.48732e-23)
(1.00434 0.242754 -7.89254e-21)
(0.960315 0.226267 -1.43948e-20)
(0.789228 0.180632 1.70635e-20)
(0.482703 0.108147 -3.01889e-20)
(0.207861 0.0460276 -3.9726e-21)
(0.0517752 0.0125134 0)
(-0.00865718 -0.000352437 -3.36287e-24)
(-0.00806821 -0.00113168 0)
(0.28261 0.0583145 1.15469e-20)
(1.17073 0.232256 -5.90624e-21)
(1.35583 0.282934 -4.89605e-21)
(1.39437 0.303918 2.02935e-21)
(1.36184 0.316723 -3.40763e-21)
(1.30388 0.322101 1.62333e-20)
(1.24606 0.324976 7.87054e-21)
(1.18861 0.325083 0)
(1.13141 0.321252 -2.53839e-20)
(1.07563 0.312219 0)
(1.03051 0.299415 -1.13408e-20)
(1.00319 0.28763 -1.41244e-20)
(0.987156 0.277106 -8.53305e-21)
(0.926715 0.254418 -1.03962e-20)
(0.72496 0.194937 0)
(0.412038 0.109936 0)
(0.161711 0.0438167 -2.56877e-20)
(0.0275248 0.00939434 5.06799e-21)
(-0.0187378 -0.00294335 -2.98881e-21)
(-0.00952875 -0.00185159 -3.54038e-21)
(0.274582 0.0713458 -2.86689e-21)
(1.18427 0.292928 0)
(1.37084 0.350389 9.00313e-21)
(1.40609 0.37192 5.427e-21)
(1.3693 0.380714 7.93154e-21)
(1.30821 0.381476 0)
(1.24698 0.379762 7.54582e-21)
(1.18585 0.375422 1.46411e-20)
(1.12495 0.367277 1.28605e-20)
(1.06569 0.354094 2.38185e-20)
(1.01797 0.337948 0)
(0.988922 0.324 -3.01881e-20)
(0.968657 0.310691 -1.82421e-20)
(0.893659 0.280906 -1.07996e-20)
(0.67049 0.208128 6.62076e-20)
(0.361171 0.112454 7.84194e-21)
(0.130589 0.0423643 3.6935e-20)
(0.0101545 0.00615849 -1.74567e-19)
(-0.0266794 -0.00585323 1.03388e-19)
(-0.0107881 -0.00264273 -1.26205e-19)
(0.266547 0.0829743 8.38127e-22)
(1.1877 0.351456 4.4238e-22)
(1.37765 0.416819 -7.38323e-22)
(1.41086 0.439215 -4.78558e-21)
(1.37106 0.44423 -6.25495e-21)
(1.30768 0.440516 3.56307e-22)
(1.24384 0.434304 -8.14131e-21)
(1.1798 0.425513 1.49275e-20)
(1.11588 0.412957 -2.74737e-20)
(1.05374 0.395456 0)
(1.00386 0.375792 -1.36114e-20)
(0.973339 0.359474 -3.01875e-22)
(0.949075 0.343085 -1.98672e-20)
(0.861872 0.305753 0)
(0.625065 0.220531 -1.42537e-20)
(0.32398 0.115697 -3.37092e-20)
(0.10796 0.0413451 8.95742e-20)
(-0.00370642 0.00270249 -8.81933e-20)
(-0.0337252 -0.00911135 1.25362e-19)
(-0.011998 -0.0035149 -1.31911e-19)
(0.259397 0.0935645 -1.15734e-22)
(1.18455 0.407067 5.19292e-22)
(1.37844 0.481146 -8.55108e-22)
(1.41015 0.504675 1.57236e-21)
(1.36818 0.506245 -3.04612e-21)
(1.30311 0.498283 0)
(1.23721 0.487758 -7.37758e-21)
(1.17081 0.474637 -1.55039e-20)
(1.10439 0.457697 -1.41711e-20)
(1.03983 0.435822 0)
(0.988175 0.412499 -1.38987e-20)
(0.956471 0.393623 -1.73088e-20)
(0.928686 0.373938 2.13895e-20)
(0.831758 0.328935 -1.30227e-20)
(0.587446 0.232278 -6.15024e-20)
(0.2962 0.119481 3.63539e-20)
(0.0905431 0.040472 1.07332e-20)
(-0.0157665 -0.00113788 0)
(-0.0406978 -0.0128364 -1.20001e-19)
(-0.013347 -0.00451571 -4.44741e-21)
(0.253338 0.103465 8.56871e-22)
(1.17715 0.459554 -1.17399e-21)
(1.37471 0.542806 1.43104e-22)
(1.40519 0.567636 5.96457e-21)
(1.36161 0.56612 -1.05231e-20)
(1.29529 0.554219 1.40546e-20)
(1.22775 0.539629 1.58028e-20)
(1.15939 0.522363 -2.46597e-20)
(1.09082 0.501142 8.8074e-21)
(1.02417 0.474876 -5.76398e-20)
(0.971038 0.447773 -1.57238e-20)
(0.938409 0.42612 0)
(0.90765 0.402888 2.30618e-20)
(0.803385 0.350285 2.7606e-20)
(0.556252 0.243313 3.29678e-20)
(0.275023 0.123424 -3.91251e-20)
(0.0766611 0.0393868 -1.15469e-20)
(-0.0266203 -0.00551534 1.36064e-20)
(-0.047874 -0.0171518 0)
(-0.0149653 -0.00570835 -9.56481e-21)
(0.248304 0.112746 -1.42383e-20)
(1.16726 0.508958 7.56502e-21)
(1.36777 0.601746 2.49031e-22)
(1.39699 0.627759 3.08652e-21)
(1.35219 0.62348 -4.30978e-21)
(1.28492 0.607964 -8.51915e-22)
(1.21607 0.589622 -1.72783e-20)
(1.14603 0.568449 -8.91496e-21)
(1.07558 0.543094 -2.44876e-20)
(1.00703 0.512461 4.26748e-23)
(0.95261 0.481454 -4.88363e-20)
(0.919241 0.456791 4.14722e-20)
(0.886041 0.42975 -2.51745e-20)
(0.77658 0.369686 3.01718e-20)
(0.530118 0.253432 0)
(0.25861 0.127099 -2.10702e-20)
(0.0656066 0.0378294 2.78131e-23)
(-0.0360807 -0.0104527 -5.87018e-20)
(-0.0549491 -0.0220398 -8.67455e-21)
(-0.0168163 -0.007116 0)
(0.244271 0.121682 0)
(1.15596 0.555518 8.84519e-21)
(1.35849 0.658019 2.98859e-21)
(1.38637 0.684891 -2.28111e-21)
(1.34059 0.678129 -5.96885e-21)
(1.27263 0.659335 0)
(1.20269 0.637564 -7.6022e-21)
(1.1312 0.612759 -2.31089e-22)
(1.05903 0.583467 5.23643e-20)
(0.988709 0.548535 -7.85509e-21)
(0.933052 0.513502 -3.52396e-20)
(0.899021 0.485583 2.14875e-20)
(0.86382 0.454459 -4.03127e-22)
(0.750974 0.387059 3.20376e-20)
(0.507721 0.262457 1.93708e-20)
(0.245572 0.130147 -4.52489e-20)
(0.0571032 0.0357426 5.34224e-20)
(-0.0436607 -0.0157229 1.58095e-20)
(-0.0612687 -0.0272505 6.54701e-20)
(-0.0187326 -0.00869073 -1.77148e-19)
(0.241163 0.130436 -4.96957e-21)
(1.14405 0.59941 6.45665e-21)
(1.34754 0.711261 -4.19539e-21)
(1.37401 0.738996 7.21312e-22)
(1.32743 0.72999 0)
(1.25893 0.708236 -5.8479e-21)
(1.18809 0.683366 2.58012e-20)
(1.1153 0.655231 1.9422e-20)
(1.04151 0.622236 0)
(0.969429 0.583118 -1.13374e-19)
(0.9125 0.543963 9.52413e-20)
(0.877793 0.512543 0)
(0.840893 0.477067 2.92339e-20)
(0.726132 0.402453 -3.46578e-22)
(0.487805 0.270361 -6.21669e-20)
(0.234794 0.132487 2.43078e-20)
(0.0507983 0.0333729 0)
(-0.0489411 -0.0209045 8.50585e-20)
(-0.0661516 -0.0323787 0)
(-0.020473 -0.0103261 -8.34789e-20)
(0.238903 0.139023 6.00495e-21)
(1.13206 0.640878 8.59455e-21)
(1.3354 0.76155 -4.10024e-21)
(1.36043 0.790101 0)
(1.31318 0.779069 -4.26446e-21)
(1.24428 0.754662 0)
(1.17265 0.727001 -2.50798e-20)
(1.09868 0.695846 -8.85569e-21)
(1.02331 0.659428 9.17879e-21)
(0.949426 0.61628 -5.61369e-20)
(0.891086 0.572944 9.83097e-21)
(0.855606 0.537775 0)
(0.817237 0.497713 -6.24576e-20)
(0.701547 0.415992 2.93308e-22)
(0.469378 0.277075 0)
(0.225429 0.134228 5.47566e-23)
(0.0461943 0.0309184 7.74941e-20)
(-0.0519505 -0.0255833 -7.32981e-20)
(-0.0692224 -0.0369653 2.17053e-20)
(-0.0218303 -0.0118699 0)
(0.237154 0.147419 0)
(1.12022 0.680126 1.04731e-20)
(1.32253 0.80901 6.32893e-21)
(1.34608 0.838286 -5.32835e-22)
(1.29825 0.825417 -7.86614e-22)
(1.22903 0.798637 -1.32137e-20)
(1.15672 0.768488 9.54801e-21)
(1.08164 0.734618 -1.06365e-20)
(1.00473 0.695084 4.12373e-20)
(0.928914 0.648121 -9.00437e-20)
(0.868944 0.600581 -8.7072e-22)
(0.832524 0.561413 -2.74017e-20)
(0.792786 0.516525 1.01425e-19)
(0.676744 0.427869 -4.11801e-22)
(0.451727 0.282663 -4.82042e-20)
(0.216846 0.135435 -8.50049e-20)
(0.042969 0.028682 0)
(-0.0529505 -0.029469 0)
(-0.0704631 -0.0407405 2.34041e-20)
(-0.0226727 -0.0132051 -1.38911e-20)
(0.236079 0.155809 8.54464e-21)
(1.10875 0.717173 -2.38459e-20)
(1.30929 0.853757 -6.78144e-21)
(1.33129 0.88364 0)
(1.28296 0.869106 -3.08784e-22)
(1.2135 0.840216 -1.14247e-20)
(1.14059 0.807867 2.26562e-20)
(1.06446 0.771586 4.15462e-20)
(0.986001 0.729261 5.36613e-20)
(0.908118 0.678762 -7.38095e-20)
(0.846226 0.627045 -8.254e-20)
(0.808623 0.583624 7.3501e-20)
(0.767611 0.533603 0)
(0.651777 0.438093 -2.2149e-20)
(0.434315 0.287118 -5.1982e-20)
(0.208595 0.136164 -6.11608e-20)
(0.0406224 0.026782 -7.20826e-20)
(-0.0524555 -0.032432 2.13523e-20)
(-0.0701001 -0.0435974 -1.2596e-20)
(-0.0229924 -0.0142647 5.92327e-23)
(0.235264 0.164017 0)
(1.09802 0.752116 0)
(1.29589 0.895905 5.08061e-22)
(1.31632 0.92627 0)
(1.26756 0.910237 -8.95442e-23)
(1.19792 0.879477 7.20223e-21)
(1.12449 0.84519 0)
(1.04737 0.806798 4.87506e-21)
(0.967356 0.762015 8.98663e-20)
(0.887256 0.708312 -1.70385e-19)
(0.823093 0.652531 0)
(0.783958 0.604574 -4.76531e-20)
(0.741655 0.548976 -5.18851e-22)
(0.626573 0.446532 -3.07238e-22)
(0.416948 0.290307 5.60432e-20)
(0.200531 0.13636 5.05561e-23)
(0.0388614 0.0252989 -1.5543e-19)
(-0.0510396 -0.034426 4.59651e-20)
(-0.0685771 -0.0454851 1.36431e-20)
(-0.0228474 -0.0150096 0)
(0.2347 0.171999 -3.45402e-20)
(1.08778 0.78535 -1.62563e-20)
(1.28248 0.935539 -2.05109e-20)
(1.30139 0.966287 1.84296e-20)
(1.25226 0.948894 -3.17504e-21)
(1.1825 0.916497 0)
(1.10861 0.880521 1.35729e-20)
(1.03056 0.840306 -1.10121e-20)
(0.948993 0.793407 8.02032e-22)
(0.866533 0.736878 1.26487e-20)
(0.799703 0.677233 1.08082e-19)
(0.758576 0.624482 -1.67881e-20)
(0.714862 0.562674 -6.31551e-20)
(0.60103 0.452973 -2.59383e-20)
(0.399819 0.291852 3.02739e-20)
(0.192927 0.135887 6.6554e-23)
(0.0377761 0.0243781 4.19172e-20)
(-0.0492292 -0.0352879 -9.90329e-20)
(-0.0666908 -0.0465239 1.17581e-19)
(-0.0224626 -0.0155183 1.73558e-20)
(0.234188 0.179746 1.31517e-20)
(1.07804 0.816934 -9.16582e-21)
(1.26922 0.972797 1.32118e-21)
(1.28666 1.00382 1.21929e-20)
(1.23723 0.985196 2.05914e-21)
(1.16739 0.951359 -1.2234e-20)
(1.09311 0.913926 3.73396e-21)
(1.01418 0.872151 -4.6009e-20)
(0.931087 0.823468 -9.9958e-20)
(0.846137 0.764528 -1.02533e-19)
(0.776239 0.701335 0)
(0.732528 0.643605 -7.43687e-20)
(0.687081 0.574771 9.15167e-20)
(0.574962 0.456979 0)
(0.382988 0.290999 -6.51639e-20)
(0.186759 0.133978 3.84288e-20)
(0.0385342 0.0240301 -4.52068e-20)
(-0.0467635 -0.0346691 -5.34287e-20)
(-0.0657964 -0.0470068 -9.47965e-20)
(-0.0224738 -0.0161073 -7.49301e-20)
(0.234009 0.187347 -1.49375e-20)
(1.06868 0.846884 9.8218e-21)
(1.25621 1.00776 2.19702e-20)
(1.27225 1.03897 1.80969e-20)
(1.22258 1.01924 -3.44983e-21)
(1.1527 0.984156 -5.97888e-21)
(1.07812 0.945465 1.27435e-20)
(0.998375 0.902391 -4.73689e-20)
(0.91377 0.852242 -5.96363e-20)
(0.826247 0.791327 1.08284e-19)
(0.752875 0.724998 2.40511e-19)
(0.705874 0.662232 0)
(0.658084 0.585453 0)
(0.547797 0.45816 -2.99744e-20)
(0.366189 0.286419 0)
(0.183358 0.128886 8.26451e-20)
(0.0441743 0.0223508 9.73022e-20)
(-0.0404464 -0.0341242 0)
(-0.065291 -0.0480892 0)
(-0.0240028 -0.0175936 8.0761e-20)
(0.233693 0.194525 1.70317e-20)
(1.05973 0.875221 1.34412e-20)
(1.24354 1.04054 1.59929e-20)
(1.25824 1.07188 -1.76885e-20)
(1.2084 1.05115 -5.10626e-21)
(1.13854 1.01497 5.1229e-21)
(1.06371 0.975204 -1.75314e-20)
(0.983231 0.931061 -2.6544e-22)
(0.897168 0.879751 -1.06196e-21)
(0.807018 0.817305 -6.30613e-22)
(0.72981 0.748352 1.24645e-19)
(0.678712 0.680655 0)
(0.627643 0.595076 9.41128e-20)
(0.518734 0.456447 6.47531e-20)
(0.348378 0.276817 1.53259e-19)
(0.182133 0.116914 4.47738e-20)
(0.0582079 0.0112933 -5.24679e-20)
(-0.0191354 -0.0436565 -3.09843e-20)
(-0.0508227 -0.0527319 0)
(-0.0242825 -0.0194986 8.72835e-20)
(0.233739 0.201739 -3.86484e-20)
(1.05116 0.90205 0)
(1.23122 1.07121 1.89673e-20)
(1.24467 1.10264 -1.50869e-20)
(1.19477 1.08101 7.65331e-21)
(1.12495 1.04389 -3.60137e-21)
(1.04996 1.0032 3.35204e-20)
(0.96882 0.9582 -3.82378e-21)
(0.881364 0.906011 0)
(0.788586 0.842455 -1.21085e-19)
(0.707248 0.771483 -2.73689e-19)
(0.651196 0.699166 1.12481e-20)
(0.595638 0.604136 1.31803e-19)
(0.486873 0.452342 0)
(0.327077 0.261942 1.04337e-19)
(0.178488 0.0935416 0)
(0.0755874 -0.0221458 0)
(0.024011 -0.08621 -3.35324e-20)
(0.017606 -0.073217 0)
(0.0164333 -0.00512351 2.35198e-20)
(0.23349 0.208414 -4.32492e-20)
(1.04295 0.927696 0)
(1.21925 1.09998 3.1801e-20)
(1.23152 1.13148 0)
(1.18164 1.1091 -4.88775e-21)
(1.11188 1.0712 0)
(1.03681 1.02976 1.50131e-21)
(0.955054 0.984138 6.66281e-21)
(0.866248 0.931375 7.64322e-21)
(0.770793 0.867141 -1.3381e-19)
(0.68501 0.794841 8.2635e-21)
(0.623016 0.718504 9.13919e-20)
(0.561444 0.613557 1.29546e-19)
(0.450819 0.44666 1.73027e-20)
(0.299144 0.2431 8.26195e-20)
(0.164028 0.0599025 0)
(0.0774415 -0.0791503 1.10962e-19)
(0.0450998 -0.113003 -6.51299e-20)
(0.0216954 0.0307509 7.63355e-20)
(-0.0390509 0.462651 -9.0672e-20)
(0.233287 0.214934 3.58812e-20)
(1.03487 0.951984 5.39331e-20)
(1.20755 1.12716 0)
(1.21863 1.15887 9.90733e-22)
(1.16883 1.13601 1.49488e-20)
(1.09906 1.09758 -9.93681e-22)
(1.02394 1.05567 1.12848e-20)
(0.94151 1.0098 0)
(0.851268 0.956913 5.04645e-20)
(0.752935 0.892623 -6.97075e-21)
(0.66212 0.819849 0)
(0.592704 0.740221 0)
(0.522562 0.624342 1.17435e-19)
(0.407316 0.439573 -5.37363e-20)
(0.260808 0.222066 -8.48561e-20)
(0.132938 0.0193171 0)
(0.0482852 -0.0441834 5.6709e-20)
(0.00210934 0.448629 -6.55924e-20)
(0.0274398 1.9476 -3.67738e-20)
(0.0533879 2.8348 -4.52352e-20)
(0.232819 0.220958 -2.70629e-20)
(1.02699 0.975099 -6.94361e-20)
(1.19615 1.15277 1.89819e-20)
(1.20602 1.18466 1.51326e-20)
(1.1564 1.16152 0)
(1.0866 1.12277 -2.82792e-21)
(1.01157 1.08062 1.47413e-20)
(0.9284 1.03476 -3.23245e-21)
(0.836737 0.982126 7.62966e-21)
(0.735449 0.918346 1.28733e-19)
(0.639285 0.845975 1.41553e-19)
(0.561337 0.76446 1.0502e-19)
(0.479709 0.637337 1.1974e-19)
(0.356875 0.431012 -1.28537e-19)
(0.216565 0.2039 -1.29947e-19)
(0.0888243 0.081535 0)
(0.0331589 0.920684 0)
(0.0782988 2.59877 3.16233e-20)
(0.0815974 3.22048 0)
(0.0838079 3.39203 8.23596e-20)
(0.235199 0.226668 0)
(1.01966 0.997448 0)
(1.18473 1.17667 0)
(1.1935 1.20873 4.6463e-21)
(1.14402 1.18541 1.37529e-20)
(1.0743 1.14661 -4.58745e-21)
(0.999641 1.10453 9.27186e-21)
(0.915662 1.05889 -3.1564e-21)
(0.822596 1.00684 6.35346e-20)
(0.718343 0.944144 -1.49814e-21)
(0.616632 0.873036 2.82493e-19)
(0.529334 0.791417 -1.22523e-20)
(0.43286 0.653992 1.47638e-20)
(0.300624 0.419912 1.88375e-20)
(0.159641 0.219421 -8.63064e-22)
(0.0772859 1.03809 3.42846e-22)
(0.112097 2.78244 -1.71358e-19)
(0.116505 3.30326 -6.42919e-20)
(0.109384 3.42269 3.38184e-20)
(0.100747 3.44199 -3.82913e-20)
(0.158062 0.172005 1.65849e-20)
(1.00792 1.02176 0)
(1.17307 1.19907 -3.91273e-20)
(1.18151 1.23153 -4.16089e-20)
(1.13213 1.20815 3.34029e-20)
(1.06285 1.16959 5.8058e-21)
(0.987926 1.1274 -9.29929e-21)
(0.903327 1.08224 3.43906e-20)
(0.808932 1.03113 -5.23744e-20)
(0.701864 0.970137 0)
(0.594525 0.901129 1.40527e-19)
(0.497298 0.820988 -8.70834e-20)
(0.386536 0.68415 0)
(0.236365 0.412663 1.86093e-20)
(0.112368 0.701373 4.33973e-20)
(0.126772 2.59555 -4.84483e-20)
(0.172127 3.32628 5.47367e-20)
(0.157274 3.42952 2.93963e-20)
(0.131606 3.44847 3.30948e-20)
(0.113802 3.45749 5.27793e-20)
(0.269463 0.263687 -3.19357e-20)
(0.989048 1.03091 0)
(1.15367 1.22451 4.23144e-20)
(1.16604 1.26266 4.60523e-20)
(1.11388 1.24166 -3.79852e-20)
(1.04402 1.20341 -1.05643e-20)
(0.967858 1.16274 6.8072e-21)
(0.882531 1.11879 2.74594e-21)
(0.786354 1.06981 5.01012e-20)
(0.675543 1.0128 1.13474e-19)
(0.560707 0.949786 7.93261e-21)
(0.447429 0.869414 7.87535e-20)
(0.298612 0.705269 1.43006e-20)
(0.194015 0.848078 -1.80971e-20)
(0.200435 2.48277 -4.00421e-20)
(0.251388 3.3268 3.92001e-20)
(0.23415 3.4507 -4.286e-20)
(0.201097 3.47046 -2.4512e-20)
(0.168856 3.49552 -2.22458e-20)
(0.124463 3.4918 -3.20204e-21)
(0.259313 0.262355 0)
(0.985446 1.05336 1.24309e-20)
(1.14429 1.24793 -8.74753e-21)
(1.15437 1.28619 -5.53097e-21)
(1.1022 1.26493 -2.64133e-20)
(1.0323 1.22685 1.1254e-20)
(0.955743 1.18634 -2.82202e-21)
(0.870009 1.1432 2.45084e-21)
(0.772906 1.09569 -5.23458e-20)
(0.659985 1.04163 -2.58504e-21)
(0.540655 0.983446 -2.57464e-19)
(0.418343 0.904849 1.13523e-20)
(0.274506 0.778985 -1.36339e-20)
(0.230337 1.52442 -1.67215e-20)
(0.294888 3.14524 3.64977e-21)
(0.306012 3.45038 6.17742e-23)
(0.265751 3.4974 6.44133e-20)
(0.232745 3.52274 3.26571e-20)
(0.187626 3.54363 -1.06992e-20)
(0.1385 3.54135 -1.61838e-20)
(0.245124 0.260098 3.18938e-20)
(0.980888 1.07831 8.4257e-20)
(1.13453 1.27344 -2.48991e-20)
(1.14231 1.31135 -2.07285e-20)
(1.09003 1.28968 0)
(1.02018 1.2516 2.20041e-20)
(0.943513 1.21135 -1.05889e-21)
(0.857632 1.16899 2.12916e-21)
(0.759925 1.12312 -5.89922e-21)
(0.645479 1.0724 -1.03793e-19)
(0.522696 1.01978 -1.19546e-19)
(0.392552 0.94178 -9.32216e-20)
(0.275091 0.935291 -1.03206e-19)
(0.298068 2.33016 1.0597e-19)
(0.377481 3.37884 8.90781e-20)
(0.346648 3.50388 0)
(0.299974 3.54322 0)
(0.263917 3.57809 -8.61188e-21)
(0.221717 3.62303 0)
(0.15272 3.60982 -1.33541e-20)
(0.235133 0.261771 -4.758e-20)
(0.974385 1.10406 -7.14041e-20)
(1.12335 1.30016 0)
(1.12896 1.33733 1.20346e-21)
(1.07659 1.31509 -2.90505e-20)
(1.00696 1.27694 3.66571e-20)
(0.930506 1.23698 1.05092e-21)
(0.844711 1.19537 1.0655e-21)
(0.746668 1.15114 -3.69279e-20)
(0.631177 1.10386 5.15172e-21)
(0.505986 1.05697 0)
(0.368178 0.981919 0)
(0.296804 1.24632 -9.41483e-20)
(0.380206 2.98382 3.82257e-20)