/*--------------------------------*- C++ -*----------------------------------*\
  =========                 |
  \\      /  F ield         | OpenFOAM: The Open Source CFD Toolbox
   \\    /   O peration     | Website:  https://openfoam.org
    \\  /    A nd           | Version:  6
     \\/     M anipulation  |
\*---------------------------------------------------------------------------*/
FoamFile
{
    version     2.0;
    format      ascii;
    class       volVectorField;
    location    "48.5";
    object      U;
}
// * * * * * * * * * * * * * * * * * * * * * * * * * * * * * * * * * * * * * //

dimensions      [0 1 -1 0 0 0 0];

internalField   nonuniform List<vector> 
8800
(
(0.987185 -0.0766674 0)
(1.0019 -0.0551942 0)
(0.99973 -0.028554 0)
(1.00003 -0.015149 0)
(1.00007 -0.00854887 0)
(1.00007 -0.00505153 0)
(1.00004 -0.00301219 0)
(1.00002 -0.00171466 0)
(0.999998 -0.000809108 0)
(1.00006 -9.53071e-05 0)
(0.999987 0.000629832 0)
(0.999995 0.00139059 0)
(1.00001 0.0024138 0)
(1.00002 0.00399332 0)
(1.00003 0.00663065 0)
(1.00001 0.01137 0)
(0.999886 0.0208134 0)
(0.999144 0.0386706 0)
(1.00709 0.0724566 0)
(0.771212 0.0366608 0)
(0.363048 -0.0160194 0)
(1.04329 -0.0768276 0)
(1.08459 -0.0704668 0)
(1.04518 -0.053569 0)
(1.02325 -0.038927 0)
(1.01196 -0.0262569 0)
(1.00637 -0.0169069 0)
(1.00356 -0.0103845 0)
(1.00214 -0.00573093 0)
(1.00145 -0.00207905 0)
(1.00131 0.00124155 0)
(1.00168 0.00461925 0)
(1.00265 0.00855343 0)
(1.00464 0.0139023 0)
(1.00858 0.0216221 0)
(1.01655 0.0326009 0)
(1.03246 0.0465193 0)
(1.06262 0.0616407 0)
(1.09187 0.0760878 0)
(0.838689 0.0565562 0)
(0.216794 -0.00243245 0)
(1.07585 -0.0501671 0)
(1.09984 -0.0483551 0)
(1.06459 -0.0405185 0)
(1.03996 -0.0336714 0)
(1.02383 -0.026165 0)
(1.01405 -0.0186005 0)
(1.00852 -0.0117902 0)
(1.00557 -0.00592881 0)
(1.00433 -0.000521979 0)
(1.00468 0.00471689 0)
(1.0066 0.0101068 0)
(1.0106 0.0162125 0)
(1.01793 0.0232592 0)
(1.03054 0.0307426 0)
(1.05062 0.0377863 0)
(1.08032 0.0444793 0)
(1.10626 0.0513069 0)
(0.942583 0.0415979 0)
(0.216204 0.00245946 0)
(0.175086 -0.000819338 0)
(1.01756 -0.035527 0)
(1.10512 -0.0414497 0)
(1.07818 -0.0361527 0)
(1.05335 -0.0302367 0)
(1.03608 -0.0246811 0)
(1.02391 -0.0189723 0)
(1.01582 -0.0129083 0)
(1.01099 -0.00673437 0)
(1.00881 -0.000408768 0)
(1.0094 0.0058462 0)
(1.01267 0.0118429 0)
(1.01887 0.0176954 0)
(1.02877 0.0232991 0)
(1.04323 0.0286225 0)
(1.06375 0.0341267 0)
(1.09356 0.0401242 0)
(1.09345 0.0419053 0)
(0.827296 0.0228888 0)
(0.174091 0.000850239 0)
(0.153844 -0.000613504 0)
(0.95594 -0.0255123 0)
(1.10332 -0.0352232 0)
(1.08755 -0.0327719 0)
(1.06156 -0.0281386 0)
(1.04395 -0.0231369 0)
(1.03151 -0.0179174 0)
(1.0227 -0.0124111 0)
(1.01692 -0.00649569 0)
(1.01412 -4.51291e-05 0)
(1.01483 0.00640791 0)
(1.01881 0.0122946 0)
(1.02582 0.0176145 0)
(1.03613 0.0225615 0)
(1.05072 0.0273441 0)
(1.07196 0.0319076 0)
(1.10012 0.035868 0)
(1.0682 0.0339561 0)
(0.739815 0.0142826 0)
(0.152348 0.000648488 0)
(0.139424 -0.000469948 0)
(0.898887 -0.0191401 0)
(1.09556 -0.030197 0)
(1.09556 -0.0293439 0)
(1.06903 -0.0256446 0)
(1.05059 -0.0215407 0)
(1.03771 -0.0168005 0)
(1.02865 -0.0115418 0)
(1.02258 -0.00582455 0)
(1.0195 0.000483029 0)
(1.02017 0.00679067 0)
(1.02429 0.0124302 0)
(1.03142 0.0174285 0)
(1.04195 0.0219409 0)
(1.05711 0.0259335 0)
(1.07933 0.0294262 0)
(1.10238 0.0320784 0)
(1.03622 0.0280186 0)
(0.673414 0.0101718 0)
(0.137315 0.000510299 0)
(0.12883 -0.000364905 0)
(0.849113 -0.0147888 0)
(1.08305 -0.026089 0)
(1.10116 -0.0264247 0)
(1.07581 -0.0231701 0)
(1.05685 -0.019558 0)
(1.04352 -0.0153555 0)
(1.03411 -0.0104885 0)
(1.02781 -0.00500424 0)
(1.02456 0.00112028 0)
(1.02511 0.00721704 0)
(1.02919 0.0125777 0)
(1.03644 0.0171596 0)
(1.04727 0.0210606 0)
(1.06284 0.0243953 0)
(1.08549 0.027391 0)
(1.10156 0.0291944 0)
(1.00148 0.0234758 0)
(0.621788 0.00779884 0)
(0.125976 0.000412472 0)
(0.120726 -0.000284621 0)
(0.806755 -0.0116416 0)
(1.06763 -0.0225063 0)
(1.1046 -0.0238352 0)
(1.08199 -0.0210101 0)
(1.06261 -0.0176317 0)
(1.04901 -0.0137448 0)
(1.03933 -0.00920716 0)
(1.03276 -0.00399651 0)
(1.02928 0.00188756 0)
(1.02968 0.0077191 0)
(1.03374 0.0127345 0)
(1.04106 0.0168718 0)
(1.052 0.0202911 0)
(1.06781 0.0232114 0)
(1.09081 0.0259035 0)
(1.09788 0.0268117 0)
(0.966454 0.0198982 0)
(0.580395 0.00625217 0)
(0.116967 0.000341174 0)
(0.114426 -0.000221777 0)
(0.77104 -0.0092896 0)
(1.05067 -0.0193524 0)
(1.10685 -0.0214324 0)
(1.08773 -0.0189892 0)
(1.06799 -0.0157624 0)
(1.05417 -0.0120518 0)
(1.0443 -0.00775871 0)
(1.03749 -0.00281555 0)
(1.03375 0.00281775 0)
(1.03396 0.00836257 0)
(1.03792 0.0129931 0)
(1.04521 0.0166951 0)
(1.05617 0.0197247 0)
(1.07216 0.0223258 0)
(1.09484 0.0246837 0)
(1.09141 0.0248097 0)
(0.932456 0.0171213 0)
(0.546233 0.00519043 0)
(0.109566 0.000289535 0)
(0.109495 -0.00017124 0)
(0.741027 -0.00746499 0)
(1.03326 -0.0165604 0)
(1.10817 -0.0191742 0)
(1.09321 -0.0170392 0)
(1.07318 -0.0139155 0)
(1.05908 -0.0103165 0)
(1.04904 -0.00615453 0)
(1.04204 -0.00139913 0)
(1.03805 0.00394622 0)
(1.038 0.00912727 0)
(1.04174 0.0133919 0)
(1.04888 0.0167468 0)
(1.05985 0.0194439 0)
(1.07608 0.0217552 0)
(1.09766 0.0237589 0)
(1.0826 0.0231462 0)
(0.900082 0.0149937 0)
(0.517275 0.00444347 0)
(0.103296 0.000252962 0)
(0.105647 -0.000129432 0)
(0.715895 -0.00599338 0)
(1.01618 -0.0140498 0)
(1.10859 -0.0169974 0)
(1.09856 -0.0151832 0)
(1.07827 -0.0121041 0)
(1.0639 -0.00854313 0)
(1.05364 -0.00445217 0)
(1.04639 0.000162629 0)
(1.0421 0.00529129 0)
(1.04172 0.0101752 0)
(1.04522 0.0140879 0)
(1.0522 0.017091 0)
(1.06312 0.0194714 0)
(1.07952 0.0215165 0)
(1.09913 0.0231042 0)
(1.07179 0.0217901 0)
(0.869468 0.0133886 0)
(0.492091 0.00391841 0)
(0.0978216 0.000228062 0)
(0.102696 -9.35139e-05 0)
(0.694997 -0.00476166 0)
(1.00007 -0.0117664 0)
(1.1083 -0.0148496 0)
(1.10371 -0.0132185 0)
(1.08334 -0.0101047 0)
(1.06865 -0.00656311 0)
(1.05814 -0.00253956 0)
(1.05063 0.00197389 0)
(1.04598 0.00691831 0)
(1.0452 0.0115176 0)
(1.04834 0.0150965 0)
(1.0551 0.0177437 0)
(1.06601 0.0197704 0)
(1.08256 0.0215487 0)
(1.09968 0.0227467 0)
(1.05933 0.0207566 0)
(0.840502 0.0122208 0)
(0.469626 0.00356154 0)
(0.0928908 0.000212716 0)
(0.100518 -6.05174e-05 0)
(0.677862 -0.00367904 0)
(0.985366 -0.0096325 0)
(1.10752 -0.0126867 0)
(1.10869 -0.0112148 0)
(1.08845 -0.008077 0)
(1.07341 -0.00445512 0)
(1.0626 -0.000371122 0)
(1.05473 0.00410692 0)
(1.04963 0.0088822 0)
(1.04838 0.0131864 0)
(1.05113 0.0164204 0)
(1.05764 0.0187377 0)
(1.06848 0.020463 0)
(1.08512 0.0219716 0)
(1.09927 0.0228103 0)
(1.04541 0.0200667 0)
(0.812888 0.0114168 0)
(0.449054 0.00333542 0)
(0.0883046 0.000205207 0)
(0.0990519 -2.79429e-05 0)
(0.664201 -0.00267566 0)
(0.97245 -0.0075672 0)
(1.1065 -0.0103863 0)
(1.11352 -0.00897349 0)
(1.09368 -0.00577303 0)
(1.07828 -0.00205195 0)
(1.06708 0.00209259 0)
(1.05875 0.00657111 0)
(1.0531 0.0112657 0)
(1.05126 0.0153579 0)
(1.05354 0.0182581 0)
(1.05979 0.0202033 0)
(1.07054 0.0215369 0)
(1.08716 0.0227396 0)
(1.09766 0.0231476 0)
(1.03014 0.0196577 0)
(0.786285 0.0109072 0)
(0.429728 0.00320836 0)
(0.0839102 0.000203146 0)
(0.0982851 5.99443e-06 0)
(0.653881 -0.00169979 0)
(0.961653 -0.00550492 0)
(1.10566 -0.00792732 0)
(1.11843 -0.00645785 0)
(1.09909 -0.00311445 0)
(1.08325 0.000768192 0)
(1.07161 0.00503765 0)
(1.06277 0.00957622 0)
(1.05645 0.0141645 0)
(1.05389 0.0179697 0)
(1.05559 0.0205084 0)
(1.06145 0.0220576 0)
(1.07212 0.0229982 0)
(1.08873 0.0239194 0)
(1.09486 0.0238648 0)
(1.01358 0.0195981 0)
(0.760297 0.0106704 0)
(0.411118 0.00317168 0)
(0.079581 0.000207018 0)
(0.09824 3.88901e-05 0)
(0.646885 -0.000698868 0)
(0.953249 -0.0033582 0)
(1.10525 -0.00523111 0)
(1.12352 -0.00366155 0)
(1.10479 -0.000158177 0)
(1.08848 0.00398474 0)
(1.07633 0.00849427 0)
(1.06682 0.0131544 0)
(1.05965 0.0176937 0)
(1.05624 0.0212477 0)
(1.05726 0.0233973 0)
(1.0627 0.0245426 0)
(1.07323 0.0250655 0)
(1.08953 0.0255916 0)
(1.09063 0.0249765 0)
(0.995617 0.0198663 0)
(0.734491 0.0106804 0)
(0.392746 0.00321393 0)
(0.0752005 0.000215776 0)
(0.0989558 7.78502e-05 0)
(0.643295 0.000339595 0)
(0.947589 -0.00106295 0)
(1.10565 -0.00218893 0)
(1.12894 -0.000355369 0)
(1.11085 0.00339972 0)
(1.09406 0.00784132 0)
(1.08126 0.012604 0)
(1.07096 0.0174392 0)
(1.06281 0.021987 0)
(1.05833 0.0252972 0)
(1.05849 0.0270359 0)
(1.0634 0.0276866 0)
(1.07378 0.0277324 0)
(1.08942 0.0278235 0)
(1.08484 0.0265219 0)
(0.976148 0.0205119 0)
(0.708401 0.0109349 0)
(0.374167 0.00333298 0)
(0.0706637 0.000229364 0)
(0.100637 0.000138663 0)
(0.64353 0.00150586 0)
(0.945056 0.00147522 0)
(1.10734 0.00126794 0)
(1.13496 0.00351453 0)
(1.1174 0.00765946 0)
(1.10001 0.0124812 0)
(1.08644 0.0175866 0)
(1.07515 0.0226652 0)
(1.06575 0.027215 0)
(1.06001 0.0302279 0)
(1.05917 0.031484 0)
(1.06344 0.0315982 0)
(1.07364 0.0311186 0)
(1.08825 0.0307008 0)
(1.07732 0.0285863 0)
(0.954903 0.0215632 0)
(0.681523 0.0114318 0)
(0.354953 0.00352581 0)
(0.0658695 0.000247499 0)
(0.103336 0.000198268 0)
(0.647879 0.00291738 0)
(0.946047 0.00439931 0)
(1.11074 0.005282 0)
(1.14176 0.00803444 0)
(1.12461 0.0126586 0)
(1.10652 0.0180154 0)
(1.09202 0.0236147 0)
(1.07951 0.0290048 0)
(1.0686 0.033587 0)
(1.06133 0.0362948 0)
(1.05931 0.0369496 0)
(1.06279 0.0364479 0)
(1.07273 0.0354029 0)
(1.08583 0.0343636 0)
(1.06778 0.031233 0)
(0.931543 0.0230421 0)
(0.653327 0.0121726 0)
(0.334685 0.00378942 0)
(0.060725 0.000269483 0)
(0.107345 0.000279239 0)
(0.65697 0.00460249 0)
(0.950983 0.00776211 0)
(1.11634 0.0100564 0)
(1.14953 0.0135283 0)
(1.13267 0.0188075 0)
(1.11378 0.0248096 0)
(1.09809 0.0309749 0)
(1.08406 0.0367382 0)
(1.07131 0.0413496 0)
(1.06219 0.0436437 0)
(1.0588 0.0436452 0)
(1.06137 0.0424131 0)
(1.07095 0.0406869 0)
(1.08202 0.0389497 0)
(1.05585 0.0345666 0)
(0.905657 0.0250216 0)
(0.623214 0.0131749 0)
(0.312931 0.00412526 0)
(0.0551419 0.000295048 0)
(0.112985 0.000388217 0)
(0.671467 0.00669662 0)
(0.960802 0.0119023 0)
(1.12482 0.0157743 0)
(1.15877 0.0202424 0)
(1.14182 0.0264361 0)
(1.12187 0.0332108 0)
(1.10471 0.0400233 0)
(1.08881 0.0462068 0)
(1.07381 0.0507832 0)
(1.06249 0.0525213 0)
(1.05747 0.0517195 0)
(1.05899 0.0496312 0)
(1.06815 0.0470902 0)
(1.07671 0.0445606 0)
(1.04113 0.0387221 0)
(0.876645 0.0275387 0)
(0.590524 0.0144405 0)
(0.289254 0.00452566 0)
(0.0490427 0.000322807 0)
(0.120779 0.000542205 0)
(0.692385 0.00944397 0)
(0.976179 0.0170717 0)
(1.13673 0.0227618 0)
(1.16991 0.0284125 0)
(1.15233 0.0357595 0)
(1.13097 0.0435466 0)
(1.11191 0.0512007 0)
(1.09359 0.0578244 0)
(1.0758 0.062237 0)
(1.06197 0.0631911 0)
(1.05509 0.0613407 0)
(1.05542 0.0582992 0)
(1.06415 0.054847 0)
(1.06959 0.0513616 0)
(1.02307 0.0437583 0)
(0.843863 0.0306316 0)
(0.554553 0.0159541 0)
(0.263253 0.00497251 0)
(0.0423808 0.000350146 0)
(0.131501 0.000767257 0)
(0.721073 0.0131939 0)
(0.998276 0.0237106 0)
(1.15277 0.0315821 0)
(1.18343 0.0387636 0)
(1.16461 0.0476253 0)
(1.14141 0.0566152 0)
(1.11986 0.0651269 0)
(1.09859 0.0720714 0)
(1.07756 0.0760951 0)
(1.06074 0.0759814 0)
(1.05166 0.0728403 0)
(1.0506 0.0686407 0)
(1.05867 0.0641371 0)
(1.06019 0.0594414 0)
(1.001 0.0498157 0)
(0.806529 0.0343288 0)
(0.514568 0.0176816 0)
(0.234613 0.00543478 0)
(0.0351631 0.000372977 0)
(0.146378 0.00111943 0)
(0.759442 0.0185776 0)
(1.02873 0.0325779 0)
(1.17402 0.0431391 0)
(1.20019 0.0523512 0)
(1.17898 0.0631399 0)
(1.15308 0.0733984 0)
(1.12818 0.0826353 0)
(1.10314 0.0895784 0)
(1.07821 0.0927519 0)
(1.05813 0.0911279 0)
(1.04683 0.0863853 0)
(1.04436 0.0808012 0)
(1.05137 0.0750502 0)
(1.04794 0.0689891 0)
(0.974061 0.0569797 0)
(0.763727 0.0386143 0)
(0.469866 0.019554 0)
(0.203188 0.00586291 0)
(0.0274788 0.000385642 0)
(0.167542 0.00172792 0)
(0.810602 0.0267232 0)
(1.07004 0.0452067 0)
(1.20158 0.0592133 0)
(1.22095 0.0712086 0)
(1.19549 0.083776 0)
(1.16573 0.0951551 0)
(1.13656 0.104673 0)
(1.10707 0.110958 0)
(1.07778 0.11255 0)
(1.05414 0.108815 0)
(1.04039 0.102071 0)
(1.03655 0.09487 0)
(1.04218 0.087935 0)
(1.03224 0.0801118 0)
(0.941173 0.0651952 0)
(0.714548 0.0434117 0)
(0.419975 0.0214547 0)
(0.169185 0.00619016 0)
(0.0195419 0.000381663 0)
(0.198287 0.00306361 0)
(0.88015 0.0402204 0)
(1.12563 0.0653291 0)
(1.23576 0.0833601 0)
(1.24537 0.0979934 0)
(1.21364 0.111808 0)
(1.17868 0.12344 0)
(1.14425 0.13216 0)
(1.10965 0.136717 0)
(1.07563 0.135774 0)
(1.04833 0.129161 0)
(1.03221 0.119977 0)
(1.02694 0.111003 0)
(1.03084 0.10279 0)
(1.01232 0.0928525 0)
(0.901116 0.0743327 0)
(0.658247 0.0484618 0)
(0.365282 0.0232263 0)
(0.13372 0.00636583 0)
(0.0117997 0.000353537 0)
(0.240274 0.00916473 7.44698e-21)
(0.971937 0.0669217 6.41696e-21)
(1.19315 0.0994525 -2.25853e-21)
(1.2734 0.119262 0)
(1.27058 0.136469 -5.94683e-35)
(1.23125 0.149782 8.74704e-22)
(1.1903 0.15993 -1.61143e-21)
(1.15005 0.166455 0)
(1.10995 0.168231 3.38369e-35)
(1.07085 0.163939 -2.06476e-21)
(1.03959 0.153982 0)
(1.02083 0.142166 -2.48203e-21)
(1.01399 0.131382 -7.34278e-21)
(1.01576 0.12206 -3.47923e-21)
(0.985702 0.110129 -1.05184e-21)
(0.849385 0.0867383 -6.26186e-22)
(0.588934 0.0547984 0)
(0.30339 0.0253419 4.39892e-22)
(0.0973343 0.00690519 5.21103e-22)
(0.00456617 0.000382692 9.48917e-21)
(0.269371 0.0240922 4.95192e-21)
(1.04785 0.109124 1.06273e-22)
(1.24867 0.148135 5.80242e-22)
(1.30726 0.167898 0)
(1.29268 0.185387 -2.95587e-21)
(1.24628 0.196606 -3.39974e-21)
(1.19933 0.204488 -1.61047e-21)
(1.15312 0.208543 -5.84923e-21)
(1.10714 0.20754 0)
(1.06231 0.199975 8.78977e-21)
(1.02626 0.186772 8.77694e-21)
(1.00422 0.172417 2.62422e-21)
(0.995099 0.159609 9.62131e-21)
(0.991313 0.147872 1.35702e-20)
(0.945278 0.132197 0)
(0.781088 0.102353 1.92495e-20)
(0.508147 0.0630352 2.76906e-20)
(0.238446 0.0280693 3.08408e-20)
(0.0624075 0.00702493 -3.5398e-20)
(-0.00222437 -8.91383e-05 -6.72964e-22)
(0.270874 0.0406175 0)
(1.09614 0.163799 7.36277e-22)
(1.28622 0.207701 0)
(1.33365 0.22731 -3.52496e-21)
(1.30993 0.242112 0)
(1.25753 0.249516 -6.56006e-21)
(1.20491 0.253738 3.26882e-21)
(1.15298 0.254283 -1.16739e-20)
(1.10138 0.249766 -3.15491e-22)
(1.05114 0.238602 4.54056e-21)
(1.01054 0.221965 1.94263e-20)
(0.985184 0.204903 -5.65873e-23)
(0.973334 0.19001 -7.02175e-21)
(0.96443 0.175881 -1.28769e-20)
(0.908437 0.156011 1.52928e-20)
(0.73316 0.119142 -2.71637e-20)
(0.463877 0.0721566 -3.60819e-21)
(0.210742 0.031558 0)
(0.0500413 0.007317 -1.1343e-24)
(-0.00460367 -0.000623673 0)
(0.264733 0.054588 6.47809e-21)
(1.12238 0.222225 -3.63015e-21)
(1.30956 0.271947 -3.40894e-21)
(1.35104 0.292054 1.58343e-21)
(1.32092 0.303167 -2.70821e-21)
(1.26397 0.306132 1.37124e-20)
(1.20667 0.306047 6.80877e-21)
(1.14982 0.302495 0)
(1.09322 0.293985 -2.2515e-20)
(1.03796 0.278717 0)
(0.992933 0.258152 -1.02007e-20)
(0.964345 0.238124 -1.27157e-20)
(0.95002 0.221339 -7.68671e-21)
(0.937218 0.205276 -9.39642e-21)
(0.876208 0.18135 0)
(0.701009 0.138424 0)
(0.443428 0.0844274 -2.36618e-20)
(0.205575 0.038229 4.69288e-21)
(0.0502838 0.00894908 -2.74543e-21)
(-0.00481074 -0.000974971 -3.25209e-21)
(0.257543 0.0669564 -1.06859e-22)
(1.13417 0.280687 0)
(1.32252 0.337323 5.73418e-21)
(1.3604 0.358305 4.17782e-21)
(1.32573 0.365685 6.48764e-21)
(1.26545 0.364247 0)
(1.2045 0.359811 6.54305e-21)
(1.14359 0.352048 1.2897e-20)
(1.08263 0.339334 1.14724e-20)
(1.02275 0.3197 2.15883e-20)
(0.973636 0.295368 0)
(0.942069 0.272816 -2.75227e-20)
(0.925383 0.254214 -1.66771e-20)
(0.909275 0.235867 -9.886e-21)
(0.84711 0.207938 6.11748e-20)
(0.678375 0.160144 7.32984e-21)
(0.436354 0.100387 3.45499e-20)
(0.211623 0.0475861 -1.63809e-19)
(0.0579391 0.0126104 9.71296e-20)
(-0.00293304 -0.000794793 -1.18555e-19)
(0.250787 0.0781515 3.09748e-21)
(1.13692 0.337328 -7.06453e-23)
(1.32798 0.401991 -3.06742e-22)
(1.36332 0.424164 -3.24353e-21)
(1.32534 0.428003 -4.9028e-21)
(1.26255 0.422388 3.6034e-22)
(1.19874 0.4138 -7.12223e-21)
(1.13448 0.401942 1.3279e-20)
(1.06977 0.385048 -2.47584e-20)
(1.00582 0.361211 0)
(0.953119 0.333458 -1.24192e-20)
(0.918735 0.308456 -3.25342e-22)
(0.899392 0.287696 -1.83221e-20)
(0.880383 0.266968 0)
(0.818336 0.236233 -1.32974e-20)
(0.659727 0.184022 -3.17928e-20)
(0.434553 0.118463 8.53523e-20)
(0.221374 0.0595208 -8.411e-20)
(0.0686663 0.0182317 1.197e-19)
(0.000112726 -6.00003e-05 -1.25969e-19)
(0.245244 0.0885784 -1.04666e-22)
(1.13413 0.391489 9.75393e-22)
(1.32807 0.464914 8.01749e-22)
(1.36128 0.488472 8.29318e-22)
(1.32079 0.489141 -2.3819e-21)
(1.25614 0.479647 0)
(1.19002 0.467169 -6.392e-21)
(1.12293 0.451397 -1.3856e-20)
(1.05496 0.430478 -1.2815e-20)
(0.987516 0.402677 0)
(0.931558 0.371361 -1.2856e-20)
(0.894481 0.343387 -1.60982e-20)
(0.872576 0.320248 1.99316e-20)
(0.851614 0.297926 -1.21837e-20)
(0.790369 0.26488 -5.82885e-20)
(0.641752 0.208788 3.49235e-20)
(0.432853 0.137796 1.04828e-20)
(0.231016 0.072756 0)
(0.0792573 0.0249773 -1.16211e-19)
(0.00330289 0.00102551 -4.32021e-21)
(0.241014 0.0985614 1.11717e-21)
(1.12804 0.443007 -1.61655e-21)
(1.3243 0.525519 -7.04558e-22)
(1.3555 0.550547 3.64524e-21)
(1.31305 0.548435 -7.87166e-21)
(1.24699 0.535414 1.16983e-20)
(1.17898 0.519326 1.37988e-20)
(1.10945 0.499856 -2.21281e-20)
(1.03862 0.475142 8.10549e-21)
(0.968062 0.443472 -5.32486e-20)
(0.909054 0.408313 -1.46514e-20)
(0.86944 0.377134 0)
(0.845627 0.352163 2.16613e-20)
(0.823359 0.328801 2.60826e-20)
(0.762703 0.293098 3.13884e-20)
(0.623021 0.232941 -3.80182e-20)
(0.428643 0.157458 -1.13012e-20)
(0.237106 0.0865308 1.32882e-20)
(0.0876704 0.0321076 0)
(0.00614797 0.00229634 -9.3997e-21)
(0.237944 0.108193 -1.67322e-20)
(1.12025 0.49191 9.30487e-21)
(1.318 0.584083 1.11537e-21)
(1.34696 0.610026 1.51956e-21)
(1.30291 0.605448 -2.96913e-21)
(1.23576 0.589242 -8.21474e-22)
(1.16618 0.569854 -1.51682e-20)
(1.09455 0.54696 -8.03231e-21)
(1.02121 0.518722 -2.23338e-20)
(0.947704 0.483243 5.59706e-23)
(0.885744 0.444246 -4.57384e-20)
(0.843932 0.410364 3.91005e-20)
(0.818746 0.384212 -2.38727e-20)
(0.795048 0.359522 2.88559e-20)
(0.734156 0.320118 0)
(0.603029 0.255934 -2.06495e-20)
(0.421217 0.176559 -4.60169e-23)
(0.238636 0.0997074 -5.80414e-20)
(0.0925529 0.0387076 -8.55856e-21)
(0.00819609 0.00349133 0)
(0.235927 0.117675 0)
(1.11164 0.538407 1.07196e-20)
(1.30972 0.639892 4.73972e-21)
(1.33646 0.666707 -6.50964e-22)
(1.29105 0.659924 -4.48813e-21)
(1.22304 0.64086 0)
(1.15213 0.618483 -6.5234e-21)
(1.07868 0.59249 -2.27008e-22)
(1.00306 0.56104 4.78654e-20)
(0.92671 0.52191 -7.26831e-21)
(0.861948 0.479432 -3.3081e-20)
(0.818254 0.443519 2.02666e-20)
(0.791835 0.416145 -4.35215e-22)
(0.766195 0.388981 3.06431e-20)
(0.704764 0.345197 1.90795e-20)
(0.580993 0.277148 -4.46199e-20)
(0.410235 0.193808 5.30569e-20)
(0.235482 0.110883 1.57429e-20)
(0.0932943 0.0438696 6.51472e-20)
(0.00918527 0.00436249 -1.76274e-19)
(0.234846 0.127145 -5.51179e-21)
(1.10284 0.582666 7.41414e-21)
(1.30016 0.692947 -5.05281e-21)
(1.32464 0.720527 -9.93469e-22)
(1.27801 0.711732 0)
(1.20929 0.690103 -4.52222e-21)
(1.13725 0.665068 2.22397e-20)
(1.06221 0.636338 1.74073e-20)
(0.984482 0.601993 0)
(0.905386 0.559498 -1.05187e-19)
(0.838003 0.514045 8.955e-20)
(0.792575 0.476306 0)
(0.764652 0.446887 2.79322e-20)
(0.736628 0.415904 -4.35938e-22)
(0.674847 0.367442 -6.08462e-20)
(0.557416 0.295781 2.38801e-20)
(0.396056 0.208165 0)
(0.228255 0.119386 8.49578e-20)
(0.0908395 0.0471 0)
(0.00924691 0.00479254 -8.34278e-20)
(0.234517 0.136609 6.60234e-21)
(1.09418 0.624836 9.60089e-21)
(1.2897 0.743256 -5.05459e-21)
(1.31193 0.77148 0)
(1.26422 0.760843 -2.57144e-21)
(1.19491 0.736922 0)
(1.12191 0.709553 -2.12667e-20)
(1.04547 0.678455 -7.78644e-21)
(0.965745 0.641538 8.30062e-21)
(0.884015 0.596042 -5.20379e-20)
(0.814131 0.548004 9.2014e-21)
(0.766906 0.508094 0)
(0.737055 0.475502 -5.96016e-20)
(0.706444 0.439894 4.33284e-22)
(0.644668 0.387137 0)
(0.532469 0.312043 3.50857e-22)
(0.378668 0.219632 7.73692e-20)
(0.217207 0.124955 -7.34126e-20)
(0.085515 0.0483636 2.17293e-20)
(0.00850269 0.00478599 0)
(0.234588 0.145954 0)
(1.08587 0.664929 1.15866e-20)
(1.27873 0.790903 7.34199e-21)
(1.29871 0.819616 -4.94584e-22)
(1.25002 0.807278 8.06775e-23)
(1.18022 0.781324 -9.89992e-21)
(1.10641 0.751941 8.10727e-21)
(1.0287 0.718816 -9.42223e-21)
(0.94709 0.679641 3.73426e-20)
(0.862814 0.631542 -8.30141e-20)
(0.790448 0.581086 -7.33251e-22)
(0.741194 0.53834 -2.59192e-20)
(0.709062 0.50164 9.67895e-20)
(0.676033 0.461276 -5.04974e-22)
(0.614568 0.404698 -4.72001e-20)
(0.506407 0.325759 -8.45468e-20)
(0.358476 0.227888 0)
(0.202768 0.127426 0)
(0.0778266 0.0478557 2.34527e-20)
(0.00730913 0.00443125 -1.39233e-20)
(0.235211 0.155285 9.29952e-21)
(1.07803 0.702969 -2.64046e-20)
(1.26749 0.835972 -7.93312e-21)
(1.28525 0.865003 0)
(1.23567 0.851095 -3.23382e-22)
(1.16548 0.823352 -7.78336e-21)
(1.09099 0.79226 1.87301e-20)
(1.01212 0.757413 3.62341e-20)
(0.928715 0.716287 4.81934e-20)
(0.841976 0.665975 -6.75512e-20)
(0.767019 0.613092 -7.68449e-20)
(0.715397 0.566835 6.93064e-20)
(0.680788 0.525458 0)
(0.645685 0.480488 -2.13827e-20)
(0.584596 0.420171 -5.11018e-20)
(0.47923 0.336584 -6.07246e-20)
(0.335865 0.232607 -7.21755e-20)
(0.18563 0.126755 2.13925e-20)
(0.0682475 0.0454071 -1.26257e-20)
(0.00571079 0.00372702 5.27405e-23)
(0.23607 0.164424 0)
(1.07071 0.739354 0)
(1.25614 0.878539 5.40321e-22)
(1.27173 0.907728 0)
(1.22138 0.892389 -3.38626e-21)
(1.15088 0.863083 4.1615e-21)
(1.07583 0.830549 0)
(0.995911 0.794248 4.13376e-21)
(0.910796 0.751462 7.98597e-20)
(0.821648 0.699298 -1.55309e-19)
(0.743898 0.643922 0)
(0.689534 0.593676 -4.45767e-20)
(0.652324 0.547352 -6.05812e-22)
(0.615466 0.497855 -4.8062e-22)
(0.554651 0.433394 5.45609e-20)
(0.451148 0.344296 -6.02536e-23)
(0.311 0.23371 -1.55373e-19)
(0.166424 0.122914 4.60145e-20)
(0.0578135 0.0414043 1.36482e-20)
(0.00397249 0.0027947 0)
(0.236944 0.173425 -3.74542e-20)
(1.06367 0.774067 -1.78707e-20)
(1.24477 0.918662 -2.34549e-20)
(1.25834 0.947892 2.38462e-20)
(1.20732 0.931238 -9.40375e-21)
(1.1366 0.900589 0)
(1.06107 0.866857 1.05309e-20)
(0.980196 0.829331 -9.31424e-21)
(0.89347 0.785169 7.84866e-22)
(0.801951 0.731482 1.14923e-20)
(0.721162 0.673591 9.92542e-20)
(0.663667 0.619158 -1.56059e-20)
(0.623701 0.567798 -5.96417e-20)
(0.585228 0.513558 -2.49188e-20)
(0.524515 0.444138 2.97042e-20)
(0.422317 0.348654 -2.2484e-23)
(0.284946 0.231096 4.18704e-20)
(0.146419 0.116328 -9.89903e-20)
(0.0472502 0.0363023 1.17442e-19)
(0.0022503 0.00173803 1.7341e-20)
(0.237583 0.182182 1.42686e-20)
(1.05695 0.807193 -1.01166e-20)
(1.23353 0.956454 1.29689e-21)
(1.24518 0.985617 1.52992e-20)
(1.19359 0.967759 3.42183e-21)
(1.12272 0.935951 -5.94394e-21)
(1.04683 0.901225 2.648e-21)
(0.965083 0.862668 -3.84375e-20)
(0.876858 0.817399 -8.70486e-20)
(0.782988 0.762491 -9.20925e-20)
(0.698922 0.702186 0)
(0.637893 0.643643 -6.86752e-20)
(0.594898 0.587265 8.60002e-20)
(0.554657 0.5277 0)
(0.493881 0.452063 -6.35841e-20)
(0.39294 0.349098 3.80641e-20)
(0.258622 0.224518 -4.49947e-20)
(0.12694 0.107431 -5.32725e-20)
(0.0374038 0.0306199 -9.45987e-20)
(0.000694324 0.000671932 -7.46865e-20)
(0.238551 0.190781 -1.62122e-20)
(1.05041 0.838708 1.08375e-20)
(1.22249 0.991976 2.47988e-20)
(1.23235 1.02099 2.23418e-20)
(1.18029 1.00205 -6.56404e-21)
(1.10935 0.969256 -1.63147e-21)
(1.03318 0.933697 9.08553e-21)
(0.950651 0.89429 -3.88447e-20)
(0.861034 0.848165 -5.12735e-20)
(0.764856 0.792322 9.58769e-20)
(0.677296 0.729831 2.17577e-19)
(0.612333 0.667474 0)
(0.565894 0.606182 0)
(0.523338 0.540463 -2.87193e-20)
(0.46217 0.456768 0)
(0.36296 0.344623 8.19173e-20)
(0.233251 0.213262 9.68233e-20)
(0.109971 0.0963951 0)
(0.0295155 0.0248883 0)
(-0.000565288 -0.000291628 8.02682e-20)
(0.239141 0.198888 1.84998e-20)
(1.04407 0.868599 1.46773e-20)
(1.21171 1.02534 1.80933e-20)
(1.2199 1.05414 -2.16129e-20)
(1.16747 1.03421 -8.59707e-21)
(1.09653 1.00058 -5.03991e-22)
(1.02016 0.964321 -1.20107e-20)
(0.936957 0.924218 6.31629e-24)
(0.846069 0.877469 -1.02285e-21)
(0.747634 0.820966 -1.07432e-21)
(0.656433 0.75665 1.11984e-19)
(0.587142 0.690922 0)
(0.536717 0.624925 8.70598e-20)
(0.490862 0.5522 6.12204e-20)
(0.428441 0.458142 1.4861e-19)
(0.331628 0.33393 4.4119e-20)
(0.210018 0.195094 -5.21788e-20)
(0.099493 0.0809906 -3.07102e-20)
(0.0284344 0.01809 0)
(-0.000397504 -0.000921963 8.62546e-20)
(0.240053 0.206998 -4.20034e-20)
(1.03791 0.89701 0)
(1.2012 1.05659 2.13992e-20)
(1.20786 1.08516 -1.8427e-20)
(1.15518 1.06434 1.16397e-20)
(1.0843 1.03 4.39136e-21)
(1.00781 0.993144 2.10663e-20)
(0.924035 0.952482 -3.39214e-21)
(0.831998 0.905318 0)
(0.73139 0.8484 -1.04966e-19)
(0.636482 0.782738 -2.42674e-19)
(0.562503 0.714203 1.00757e-20)
(0.507489 0.643794 1.19932e-19)
(0.456972 0.56345 0)
(0.391516 0.456821 1.0035e-19)
(0.29661 0.316231 0)
(0.187157 0.165108 0)
(0.100332 0.0477313 -3.32704e-20)
(0.0579623 -0.0037954 0)
(0.0269018 0.00695901 2.31197e-20)
(0.240501 0.214505 -4.70718e-20)
(1.0319 0.924147 0)
(1.19095 1.08593 3.57388e-20)
(1.1962 1.11428 0)
(1.1434 1.09271 -7.0744e-21)
(1.07259 1.0578 0)
(0.996078 1.02047 6.90491e-22)
(0.911794 0.979427 5.19533e-21)
(0.818702 0.932086 6.38589e-21)
(0.715963 0.87503 -1.14702e-19)
(0.617299 0.808609 7.21996e-21)
(0.538198 0.737976 8.13996e-20)
(0.477818 0.663448 1.17051e-19)
(0.420833 0.574992 1.58672e-20)
(0.349644 0.454572 7.87188e-20)
(0.253288 0.292895 0)
(0.153993 0.120514 1.1032e-19)
(0.0837753 -0.00143513 -6.49022e-20)
(0.0327999 0.0584623 7.56597e-20)
(-0.0382385 0.453353 -8.98759e-20)
(0.240872 0.221828 3.90912e-20)
(1.02585 0.949899 5.91331e-20)
(1.18091 1.1137 0)
(1.18478 1.14193 1.09771e-21)
(1.13193 1.11989 2.08149e-20)
(1.06115 1.08466 -1.64577e-20)
(0.984644 1.04711 5.95856e-21)
(0.899835 1.00601 0)
(0.805661 0.958888 4.12774e-20)
(0.700689 0.902178 -5.86801e-21)
(0.59798 0.83576 0)
(0.513011 0.76396 0)
(0.445948 0.685455 1.04544e-19)
(0.380297 0.587749 -4.90703e-20)
(0.299906 0.453672 -7.9607e-20)
(0.197617 0.26803 0)
(0.086713 0.122537 5.61393e-20)
(0.00793975 0.46613 -6.53817e-20)
(0.0324311 1.92059 -3.66537e-20)
(0.0591847 2.82157 -4.49128e-20)
(0.240848 0.228553 -2.95389e-20)
(1.01979 0.974441 -7.62277e-20)
(1.17109 1.13988 2.14227e-20)
(1.17363 1.16799 1.80189e-20)
(1.12084 1.14569 0)
(1.05006 1.11032 -1.39355e-20)
(0.973715 1.07274 6.12277e-21)
(0.888342 1.03178 -2.38283e-21)
(0.793142 0.9852 6.17373e-21)
(0.685941 0.929243 1.08235e-19)
(0.579143 0.863558 1.21584e-19)
(0.487931 0.791936 9.04188e-20)
(0.41282 0.70971 1.04896e-19)
(0.337018 0.600631 -1.14837e-19)
(0.248984 0.457212 -1.19966e-19)
(0.127856 0.308639 0)
(0.0434444 0.870172 0)
(0.0910506 2.57597 3.10228e-20)
(0.0932886 3.20848 0)
(0.0941334 3.38832 8.08213e-20)
(0.243605 0.234776 0)
(1.01398 0.998126 0)
(1.1612 1.16434 0)
(1.1625 1.19227 5.41603e-21)
(1.10985 1.16987 1.93321e-20)
(1.03912 1.13463 -1.3157e-20)
(0.963216 1.09725 3.10801e-21)
(0.877247 1.05664 -2.24722e-21)
(0.781077 1.01085 4.99725e-20)
(0.671707 0.956074 -1.96221e-21)
(0.560877 0.891816 2.38688e-19)
(0.463385 0.821989 -1.04457e-20)
(0.378516 0.736799 1.26446e-20)
(0.293287 0.611483 1.66081e-20)
(0.187674 0.475541 -3.22404e-22)
(0.0985293 1.01131 3.40442e-22)
(0.129931 2.7552 -1.62268e-19)
(0.134721 3.30064 -6.15709e-20)
(0.124097 3.42473 3.2582e-20)
(0.11256 3.44467 -3.66473e-20)
(0.165433 0.179308 1.8122e-20)
(1.00414 1.02365 0)
(1.15115 1.18735 -4.41557e-20)
(1.15175 1.21507 -4.91469e-20)
(1.09943 1.19295 4.47634e-20)
(1.02899 1.15803 1.48713e-20)
(0.953018 1.12059 -2.04853e-21)
(0.866631 1.08055 2.17869e-20)
(0.769568 1.03588 -4.02309e-20)
(0.658192 0.982785 0)
(0.54346 0.920611 1.16647e-19)
(0.439952 0.853909 -7.32539e-20)
(0.343493 0.769728 0)
(0.24305 0.624968 1.58695e-20)
(0.140664 0.811373 3.83585e-20)
(0.144154 2.55479 -4.40048e-20)
(0.193459 3.33136 5.02327e-20)
(0.174743 3.43771 2.70381e-20)
(0.144473 3.45604 3.10489e-20)
(0.124563 3.46437 4.9113e-20)
(0.279344 0.274225 -3.5019e-20)
(0.987951 1.03506 0)
(1.13347 1.21374 4.76745e-20)
(1.13726 1.24859 5.43296e-20)
(1.08275 1.22704 -4.98592e-20)
(1.0119 1.19265 -2.0177e-20)
(0.934834 1.15665 -3.66305e-21)
(0.847912 1.11781 1.73448e-21)
(0.749571 1.0753 3.65093e-20)
(0.635218 1.02562 9.03294e-20)
(0.514769 0.968481 6.43428e-21)
(0.401044 0.907972 6.42362e-20)
(0.281286 0.822198 1.172e-20)
(0.207684 0.986042 -1.51008e-20)
(0.214064 2.42682 -3.45832e-20)
(0.264439 3.33859 3.40445e-20)
(0.247501 3.46634 -3.73285e-20)
(0.212907 3.4839 -2.16911e-20)
(0.178748 3.50753 -1.91461e-20)
(0.133772 3.50132 -2.84062e-21)
(0.269851 0.273346 0)
(0.985665 1.05857 1.36807e-20)
(1.12536 1.23774 -9.773e-21)
(1.12693 1.2724 -6.40593e-21)
(1.07219 1.25066 -3.42535e-20)
(1.00151 1.21653 2.05871e-20)
(0.924146 1.18073 4.14127e-21)
(0.837035 1.14268 1.44075e-21)
(0.73818 1.10161 -3.69652e-20)
(0.622415 1.0544 -2.91824e-21)
(0.499032 1.0014 -2.06439e-19)
(0.380327 0.945063 9.15281e-21)
(0.271941 0.898183 -1.101e-20)
(0.242159 1.57148 -1.37689e-20)
(0.302942 3.14669 3.626e-21)
(0.31724 3.47036 3.76161e-22)
(0.275386 3.51649 5.31526e-20)
(0.241213 3.53793 2.64543e-20)
(0.195456 3.55685 -7.47771e-21)
(0.145707 3.5524 -1.33174e-20)
(0.255727 0.271452 3.49604e-20)
(0.9825 1.08473 9.28353e-20)
(1.11688 1.2639 -2.80107e-20)
(1.1162 1.29779 -2.42397e-20)
(1.06126 1.27579 0)
(0.990775 1.24172 3.52861e-20)
(0.913358 1.20613 9.22108e-21)
(0.826312 1.16882 1.12479e-21)
(0.727231 1.12925 -4.15452e-21)
(0.610555 1.08473 -7.83112e-20)
(0.485126 1.0364 -9.36396e-20)
(0.361687 0.984526 -7.42018e-20)
(0.27358 1.04277 -8.17486e-20)
(0.305124 2.31315 8.49254e-20)
(0.38106 3.39887 7.15297e-20)
(0.354898 3.52827 0)
(0.306582 3.5627 0)
(0.269794 3.59477 -5.57924e-21)
(0.225422 3.63925 0)
(0.15653 3.62263 -7.92548e-21)
(0.245694 0.273469 -5.21925e-20)
(0.977374 1.11182 -7.86404e-20)
(1.10706 1.29138 0)
(1.10427 1.32413 1.33098e-21)
(1.04916 1.30163 -3.6468e-20)
(0.978992 1.2675 5.6151e-20)
(0.901839 1.23213 7.85958e-21)
(0.815084 1.19548 1.18651e-22)
(0.716012 1.15735 -2.33628e-20)
(0.598828 1.11549 3.71565e-21)
(0.472176 1.07199 0)
(0.348509 1.03002 0)
(0.299584 1.32955 -7.30765e-20)
(0.380811 2.97681 2.97295e-20)
(0.444728 3.49973 3.70755e-20)
(0.392704 3.56308 0)