/*--------------------------------*- C++ -*----------------------------------*\
  =========                 |
  \\      /  F ield         | OpenFOAM: The Open Source CFD Toolbox
   \\    /   O peration     | Website:  https://openfoam.org
    \\  /    A nd           | Version:  6
     \\/     M anipulation  |
\*---------------------------------------------------------------------------*/
FoamFile
{
    version     2.0;
    format      ascii;
    class       volVectorField;
    location    "104";
    object      U;
}
// * * * * * * * * * * * * * * * * * * * * * * * * * * * * * * * * * * * * * //

dimensions      [0 1 -1 0 0 0 0];

internalField   nonuniform List<vector> 
8800
(
(0.987183 -0.0766651 0)
(1.00189 -0.05519 0)
(0.999721 -0.0285479 0)
(1.00003 -0.015143 0)
(1.0001 -0.00854467 0)
(1.00012 -0.00504709 0)
(1.00008 -0.00300115 0)
(1.00002 -0.00169968 0)
(0.99999 -0.00079262 0)
(1.00006 -7.51e-05 0)
(0.999961 0.000658366 0)
(1.00002 0.00142512 0)
(1.00007 0.0024274 0)
(1.00007 0.00399779 0)
(1.00006 0.00663215 0)
(1.00006 0.0113718 0)
(0.99996 0.0208156 0)
(0.999176 0.0386703 0)
(1.0071 0.0724575 0)
(0.771215 0.0366617 0)
(0.363082 -0.0160161 0)
(1.04332 -0.0768101 0)
(1.0846 -0.0704375 0)
(1.0452 -0.0535307 0)
(1.02329 -0.0388808 0)
(1.01203 -0.0262017 0)
(1.00644 -0.0168373 0)
(1.0036 -0.0103004 0)
(1.00215 -0.00563474 0)
(1.00143 -0.00197073 0)
(1.00128 0.00135321 0)
(1.00167 0.00474288 0)
(1.0027 0.00865981 0)
(1.00468 0.0139779 0)
(1.00861 0.0216863 0)
(1.01657 0.0326524 0)
(1.03252 0.0465634 0)
(1.06269 0.0616795 0)
(1.09187 0.0761063 0)
(0.838663 0.0565648 0)
(0.216878 -0.0024284 0)
(1.07592 -0.0501195 0)
(1.09989 -0.0482868 0)
(1.06466 -0.0404345 0)
(1.04006 -0.0335711 0)
(1.02394 -0.0260428 0)
(1.01413 -0.0184494 0)
(1.00856 -0.0116172 0)
(1.00558 -0.00573745 0)
(1.0043 -0.000311159 0)
(1.00464 0.00494142 0)
(1.00662 0.0103306 0)
(1.01064 0.0163849 0)
(1.01794 0.0234029 0)
(1.03053 0.0308642 0)
(1.05062 0.0378862 0)
(1.08037 0.0445655 0)
(1.10627 0.0513731 0)
(0.942491 0.041632 0)
(0.216109 0.00246319 0)
(0.175228 -0.000814782 0)
(1.01777 -0.0354594 0)
(1.10524 -0.0413396 0)
(1.0783 -0.0360147 0)
(1.05351 -0.0300713 0)
(1.03625 -0.0244839 0)
(1.02403 -0.0187388 0)
(1.0159 -0.0126401 0)
(1.01102 -0.00643492 0)
(1.00879 -8.6599e-05 0)
(1.00935 0.00617794 0)
(1.01267 0.0121721 0)
(1.01889 0.017958 0)
(1.02875 0.0235222 0)
(1.04317 0.0288147 0)
(1.0637 0.0342847 0)
(1.09356 0.0402607 0)
(1.09338 0.042009 0)
(0.827022 0.0229354 0)
(0.173932 0.000855253 0)
(0.154058 -0.000608406 0)
(0.956347 -0.0254231 0)
(1.10354 -0.0350677 0)
(1.08774 -0.0325761 0)
(1.06179 -0.0279104 0)
(1.04418 -0.0228694 0)
(1.0317 -0.0175988 0)
(1.02283 -0.0120411 0)
(1.01698 -0.00608137 0)
(1.0141 0.000406528 0)
(1.01475 0.00688049 0)
(1.01879 0.0127568 0)
(1.0258 0.0179893 0)
(1.03605 0.0228926 0)
(1.0506 0.0276387 0)
(1.07184 0.0321503 0)
(1.10004 0.03607 0)
(1.06798 0.0341041 0)
(0.739279 0.0143447 0)
(0.1521 0.000654408 0)
(0.139727 -0.000464279 0)
(0.899577 -0.0190289 0)
(1.09593 -0.0299928 0)
(1.09585 -0.0290785 0)
(1.06936 -0.0253285 0)
(1.05092 -0.0211655 0)
(1.03797 -0.0163606 0)
(1.02883 -0.0110389 0)
(1.02268 -0.00526363 0)
(1.01949 0.00108823 0)
(1.02007 0.00741567 0)
(1.02423 0.0130405 0)
(1.03135 0.0179293 0)
(1.0418 0.0223768 0)
(1.05691 0.0263247 0)
(1.0791 0.0297607 0)
(1.10219 0.032365 0)
(1.03574 0.0282222 0)
(0.672525 0.0102531 0)
(0.136956 0.000517363 0)
(0.129238 -0.000358409 0)
(0.850169 -0.0146522 0)
(1.08366 -0.0258298 0)
(1.10159 -0.0260868 0)
(1.07627 -0.0227756 0)
(1.0573 -0.0191005 0)
(1.04388 -0.0148129 0)
(1.03438 -0.00984377 0)
(1.02797 -0.00426963 0)
(1.02457 0.00191085 0)
(1.02499 0.00802996 0)
(1.0291 0.0133757 0)
(1.03631 0.0178375 0)
(1.04702 0.0216766 0)
(1.06253 0.024954 0)
(1.08516 0.0278627 0)
(1.1012 0.0295863 0)
(1.00061 0.0237431 0)
(0.620439 0.0079019 0)
(0.125475 0.000420877 0)
(0.12126 -0.000277142 0)
(0.808269 -0.0114774 0)
(1.06855 -0.0221835 0)
(1.10521 -0.0233989 0)
(1.08259 -0.0204922 0)
(1.0632 -0.0170228 0)
(1.04951 -0.013031 0)
(1.03971 -0.00838751 0)
(1.033 -0.00307369 0)
(1.02933 0.00289753 0)
(1.02956 0.00877459 0)
(1.03361 0.0137708 0)
(1.04085 0.0177432 0)
(1.05164 0.0210712 0)
(1.06735 0.0239308 0)
(1.09032 0.0265312 0)
(1.09729 0.0273454 0)
(0.96504 0.0202477 0)
(0.578457 0.00638334 0)
(0.116292 0.000351461 0)
(0.115108 -0.000213206 0)
(0.773108 -0.00909495 0)
(1.05201 -0.0189624 0)
(1.10771 -0.0208966 0)
(1.08855 -0.0183505 0)
(1.06877 -0.0150145 0)
(1.05483 -0.0111713 0)
(1.04483 -0.0067238 0)
(1.03785 -0.00163664 0)
(1.03387 0.00409305 0)
(1.03384 0.00967735 0)
(1.03776 0.014295 0)
(1.0449 0.0178286 0)
(1.05566 0.020766 0)
(1.07156 0.0232926 0)
(1.09417 0.0255365 0)
(1.09047 0.0255181 0)
(0.930299 0.0175727 0)
(0.543546 0.00535551 0)
(0.108674 0.000302094 0)
(0.110349 -0.000161457 0)
(0.743754 -0.00723745 0)
(1.03513 -0.0160945 0)
(1.1093 -0.0185228 0)
(1.09424 -0.01627 0)
(1.07418 -0.0130125 0)
(1.05996 -0.00924235 0)
(1.04975 -0.00489879 0)
(1.04252 3.19042e-05 0)
(1.03822 0.00553427 0)
(1.03786 0.0108141 0)
(1.04153 0.0150693 0)
(1.04849 0.0182106 0)
(1.05919 0.0208002 0)
(1.07527 0.0230268 0)
(1.0967 0.0248775 0)
(1.08112 0.0240636 0)
(0.896928 0.0155694 0)
(0.513637 0.00464957 0)
(0.102135 0.000268102 0)
(0.106704 -0.000118096 0)
(0.7194 -0.00573023 0)
(1.01873 -0.013507 0)
(1.11012 -0.0162126 0)
(1.09986 -0.0142158 0)
(1.07953 -0.0109536 0)
(1.06501 -0.0071938 0)
(1.05456 -0.00289139 0)
(1.04705 0.0019456 0)
(1.04238 0.00726602 0)
(1.04161 0.0122676 0)
(1.04495 0.0161828 0)
(1.05167 0.0189478 0)
(1.06227 0.0212015 0)
(1.07851 0.0231501 0)
(1.09782 0.0245676 0)
(1.0696 0.0229825 0)
(0.865011 0.0141228 0)
(0.487253 0.00417577 0)
(0.0963287 0.000246482 0)
(0.103987 -8.01167e-05 0)
(0.699418 -0.00445641 0)
(1.00345 -0.0111309 0)
(1.11033 -0.0139289 0)
(1.10536 -0.0121015 0)
(1.08492 -0.00878222 0)
(1.07007 -0.00497036 0)
(1.05933 -0.000645069 0)
(1.05148 0.00415895 0)
(1.04636 0.00935119 0)
(1.04508 0.0141119 0)
(1.04803 0.017706 0)
(1.05445 0.0200993 0)
(1.06492 0.0220226 0)
(1.08127 0.023695 0)
(1.09783 0.0247682 0)
(1.05614 0.0222954 0)
(0.834339 0.0131513 0)
(0.463273 0.0038803 0)
(0.0909886 0.000234889 0)
(0.102084 -4.47835e-05 0)
(0.683351 -0.00332796 0)
(0.989756 -0.00889383 0)
(1.11016 -0.0115823 0)
(1.11073 -0.00984199 0)
(1.09042 -0.00643431 0)
(1.07522 -0.0025057 0)
(1.06414 0.00191238 0)
(1.05587 0.00674964 0)
(1.05019 0.0118689 0)
(1.04831 0.0164229 0)
(1.05078 0.0197093 0)
(1.05685 0.0217298 0)
(1.06716 0.0233206 0)
(1.08351 0.024697 0)
(1.09694 0.0253037 0)
(1.04083 0.022009 0)
(0.804525 0.0125786 0)
(0.440801 0.00372452 0)
(0.0859038 0.000231149 0)
(0.100938 -9.79625e-06 0)
(0.670915 -0.00227423 0)
(0.978017 -0.00671968 0)
(1.10994 -0.00911497 0)
(1.11611 -0.00737527 0)
(1.09613 -0.00383161 0)
(1.08054 0.000282164 0)
(1.06906 0.00486592 0)
(1.06028 0.00980748 0)
(1.05393 0.0149124 0)
(1.05131 0.0192943 0)
(1.0532 0.0222846 0)
(1.05886 0.0239307 0)
(1.06896 0.0251808 0)
(1.08529 0.0262596 0)
(1.09468 0.026336 0)
(1.0237 0.0221329 0)
(0.775087 0.0123606 0)
(0.419109 0.00368459 0)
(0.0809068 0.00023402 0)
(0.100542 2.69563e-05 0)
(0.661971 -0.0012386 0)
(0.968563 -0.00453476 0)
(1.11001 -0.00646535 0)
(1.12166 -0.00462712 0)
(1.10214 -0.000884692 0)
(1.08613 0.00348924 0)
(1.07416 0.00831704 0)
(1.06476 0.0134393 0)
(1.0576 0.0185928 0)
(1.0541 0.0228372 0)
(1.0553 0.0255391 0)
(1.06047 0.0268159 0)
(1.07032 0.027703 0)
(1.0865 0.0284439 0)
(1.09098 0.027892 0)
(1.00462 0.0227131 0)
(0.745468 0.0124734 0)
(0.397564 0.00374729 0)
(0.0758544 0.00024278 0)
(0.100916 6.07428e-05 0)
(0.656516 -0.000162698 0)
(0.961706 -0.00226235 0)
(1.11073 -0.00356442 0)
(1.12754 -0.00151149 0)
(1.10856 0.00250885 0)
(1.09208 0.00722734 0)
(1.07954 0.0123861 0)
(1.06939 0.0177731 0)
(1.06126 0.0230426 0)
(1.05669 0.0271837 0)
(1.05707 0.0296104 0)
(1.06166 0.0305071 0)
(1.07118 0.031009 0)
(1.08686 0.0313694 0)
(1.0855 0.0300629 0)
(0.983336 0.0237877 0)
(0.715041 0.0129015 0)
(0.375585 0.00390242 0)
(0.0706204 0.00025649 0)
(0.102138 0.000117437 0)
(0.654722 0.00100173 0)
(0.957779 0.000178165 0)
(1.11249 -0.000332082 0)
(1.13396 0.00207254 0)
(1.11552 0.00646971 0)
(1.09851 0.0116304 0)
(1.08529 0.0172194 0)
(1.07424 0.0229625 0)
(1.06493 0.0284187 0)
(1.05909 0.0324907 0)
(1.05848 0.0346512 0)
(1.0624 0.0351427 0)
(1.07151 0.0352382 0)
(1.08619 0.0351757 0)
(1.07798 0.0329351 0)
(0.959455 0.0253954 0)
(0.683111 0.013634 0)
(0.352628 0.00413999 0)
(0.0650949 0.000274104 0)
(0.104358 0.000169536 0)
(0.656724 0.00214297 0)
(0.957147 0.00288223 0)
(1.11575 0.00333875 0)
(1.14115 0.0062416 0)
(1.12317 0.0111426 0)
(1.10557 0.016862 0)
(1.09153 0.0229969 0)
(1.07938 0.0291981 0)
(1.06864 0.0349094 0)
(1.0613 0.0389325 0)
(1.05955 0.0408037 0)
(1.06262 0.0408822 0)
(1.07125 0.0405439 0)
(1.08428 0.0399532 0)
(1.06806 0.0366125 0)
(0.932424 0.0275809 0)
(0.648925 0.0146604 0)
(0.328188 0.00444881 0)
(0.0591892 0.000294343 0)
(0.107692 0.000232761 0)
(0.663157 0.00363133 0)
(0.960142 0.0058467 0)
(1.12098 0.00758102 0)
(1.14937 0.0111335 0)
(1.13171 0.0167121 0)
(1.11342 0.0231276 0)
(1.09837 0.0299392 0)
(1.08489 0.036706 0)
(1.07243 0.042736 0)
(1.0633 0.0467165 0)
(1.06022 0.0482719 0)
(1.06231 0.0479146 0)
(1.07035 0.0471026 0)
(1.08113 0.0458786 0)
(1.05523 0.041218 0)
(0.901511 0.030377 0)
(0.61167 0.0159578 0)
(0.301805 0.00481169 0)
(0.0528399 0.000315298 0)
(0.112424 0.000321827 0)
(0.674439 0.00539562 0)
(0.967322 0.00935697 0)
(1.1287 0.0125661 0)
(1.15894 0.0169687 0)
(1.14138 0.023421 0)
(1.12223 0.0306945 0)
(1.10596 0.0383293 0)
(1.09083 0.0457679 0)
(1.07631 0.0521635 0)
(1.06506 0.0560731 0)
(1.0604 0.057289 0)
(1.0614 0.0564438 0)
(1.06873 0.0551152 0)
(1.07663 0.0531476 0)
(1.03882 0.0468552 0)
(0.865791 0.0337846 0)
(0.570493 0.0174764 0)
(0.273101 0.00519993 0)
(0.0460226 0.000334188 0)
(0.118924 0.000439136 0)
(0.691359 0.00759014 0)
(0.979628 0.0136624 0)
(1.13948 0.0185263 0)
(1.17027 0.0240171 0)
(1.15247 0.0315953 0)
(1.13224 0.0399197 0)
(1.11442 0.0485332 0)
(1.09726 0.0567339 0)
(1.08025 0.0634979 0)
(1.06653 0.0672664 0)
(1.05996 0.0680495 0)
(1.05986 0.0666792 0)
(1.06648 0.0647833 0)
(1.07043 0.0619424 0)
(1.01792 0.0535882 0)
(0.824134 0.037748 0)
(0.524567 0.0191197 0)
(0.241855 0.00556918 0)
(0.0387718 0.000347343 0)
(0.127718 0.000603101 0)
(0.714938 0.0104609 0)
(0.997757 0.0190092 0)
(1.15399 0.025806 0)
(1.18382 0.032655 0)
(1.16532 0.0416968 0)
(1.14368 0.0512908 0)
(1.12386 0.061029 0)
(1.10416 0.0700293 0)
(1.08418 0.077086 0)
(1.06761 0.0805676 0)
(1.05891 0.0807902 0)
(1.05762 0.0788175 0)
(1.06326 0.0762638 0)
(1.06193 0.0722647 0)
(0.991328 0.061423 0)
(0.775229 0.0421039 0)
(0.473199 0.0207227 0)
(0.208103 0.0058567 0)
(0.0312009 0.000350387 0)
(0.139623 0.000843757 0)
(0.74656 0.0143914 0)
(1.02288 0.0258779 0)
(1.17303 0.0349572 0)
(1.20027 0.0435068 0)
(1.18034 0.054413 0)
(1.15674 0.0655021 0)
(1.13431 0.0764529 0)
(1.11145 0.0861756 0)
(1.08794 0.0933067 0)
(1.06815 0.096239 0)
(1.05715 0.0957233 0)
(1.05473 0.0931108 0)
(1.05874 0.0897933 0)
(1.05023 0.0843152 0)
(0.957432 0.0701956 0)
(0.717666 0.0465308 0)
(0.416045 0.0220352 0)
(0.172274 0.00598375 0)
(0.0235194 0.000338916 0)
(0.155954 0.00122019 0)
(0.788234 0.0200327 0)
(1.05667 0.0350599 0)
(1.19756 0.0469526 0)
(1.22052 0.057983 0)
(1.1979 0.0708248 0)
(1.17151 0.0835553 0)
(1.14563 0.0956264 0)
(1.11887 0.105772 0)
(1.09128 0.112546 0)
(1.06796 0.114516 0)
(1.05456 0.113012 0)
(1.05109 0.109677 0)
(1.05282 0.105614 0)
(1.03406 0.0980226 0)
(0.914172 0.0795072 0)
(0.650171 0.0504939 0)
(0.353433 0.0227276 0)
(0.135319 0.00586858 0)
(0.0160364 0.000309615 0)
(0.178978 0.00187364 0)
(0.843206 0.0285531 0)
(1.10203 0.048163 0)
(1.22867 0.0636426 0)
(1.24499 0.0776863 0)
(1.21811 0.0926166 0)
(1.18775 0.106818 0)
(1.15739 0.119527 0)
(1.12597 0.129437 0)
(1.09381 0.135152 0)
(1.06675 0.135577 0)
(1.05092 0.132757 0)
(1.04649 0.128555 0)
(1.04525 0.123488 0)
(1.01156 0.113061 0)
(0.859021 0.08861 0)
(0.572122 0.0532325 0)
(0.28684 0.0224468 0)
(0.0988039 0.0054509 0)
(0.00914253 0.000260769 0)
(0.212209 0.00332049 0)
(0.917365 0.0427341 0)
(1.16196 0.069107 0)
(1.26669 0.0885393 0)
(1.27357 0.10577 0)
(1.24036 0.122244 0)
(1.2046 0.136962 0)
(1.16878 0.149168 0)
(1.13208 0.157715 0)
(1.09506 0.161361 0)
(1.06423 0.159516 0)
(1.04606 0.154959 0)
(1.04077 0.149763 0)
(1.03514 0.143428 0)
(0.979978 0.12874 0)
(0.789197 0.0962715 0)
(0.484664 0.0538688 0)
(0.219599 0.0210036 0)
(0.0649843 0.00473405 0)
(0.00331468 0.000192127 0)
(0.25756 0.00981853 1.09302e-20)
(1.01447 0.070821 9.35538e-21)
(1.23397 0.104764 -3.2538e-21)
(1.30883 0.125713 0)
(1.30326 0.146032 -8.1494e-35)
(1.26238 0.16214 1.18782e-21)
(1.22046 0.175536 -2.11924e-21)
(1.17871 0.185779 0)
(1.13644 0.19189 4.33011e-35)
(1.09434 0.192727 -2.59927e-21)
(1.05958 0.188229 0)
(1.03925 0.182004 -3.09131e-21)
(1.03394 0.176627 -9.12752e-21)
(1.02008 0.168965 -4.32375e-21)
(0.932975 0.146855 -1.30078e-21)
(0.696383 0.102451 -7.7203e-22)
(0.383197 0.0520811 0)
(0.151445 0.018679 5.39695e-22)
(0.0339962 0.00383837 6.39132e-22)
(-0.00154563 7.11601e-05 1.16936e-20)
(0.289412 0.025669 8.05236e-21)
(1.09535 0.115291 1.20025e-22)
(1.29338 0.15554 8.68961e-22)
(1.34737 0.176562 0)
(1.32963 0.196863 -4.11618e-21)
(1.28171 0.21096 -4.658e-21)
(1.23379 0.222238 -2.13202e-21)
(1.18618 0.23028 -7.52868e-21)
(1.13832 0.234064 0)
(1.09098 0.2324 1.09827e-20)
(1.05208 0.225635 1.08874e-20)
(1.02894 0.217835 3.22722e-21)
(1.02069 0.211579 1.18026e-20)
(0.990651 0.199623 1.66402e-20)
(0.854345 0.165415 0)
(0.56667 0.105785 2.33945e-20)
(0.267677 0.0482232 3.35313e-20)
(0.0842368 0.0151042 3.73043e-20)
(0.00548404 0.00181532 -4.27866e-20)
(-0.005775 -0.000470649 -8.16574e-22)
(0.291649 0.0437805 0)
(1.14789 0.172664 1.39822e-21)
(1.33467 0.217608 0)
(1.37786 0.238502 -5.40475e-21)
(1.35085 0.255588 0)
(1.29702 0.265806 -9.1039e-21)
(1.24352 0.273437 4.32847e-21)
(1.19043 0.278087 -1.5085e-20)
(1.13735 0.278626 -3.33743e-22)
(1.08522 0.273796 5.6384e-21)
(1.04267 0.264384 2.37617e-20)
(1.01712 0.254859 -2.33347e-23)
(1.00491 0.246854 -8.53235e-21)
(0.95657 0.229286 -1.55101e-20)
(0.777452 0.180898 1.83632e-20)
(0.465856 0.106077 -3.24714e-20)
(0.196023 0.0440018 -4.26964e-21)
(0.0470015 0.0115711 0)
(-0.00918585 -0.000510559 -3.24012e-24)
(-0.00776042 -0.00109404 0)
(0.285343 0.058917 1.85293e-20)
(1.17755 0.233892 -8.94178e-21)
(1.36125 0.284483 -6.76655e-21)
(1.3986 0.305643 2.54087e-21)
(1.36534 0.318593 -4.23027e-21)
(1.30715 0.324236 1.89088e-20)
(1.24915 0.327459 8.9459e-21)
(1.19142 0.32797 0)
(1.13384 0.324601 -2.81055e-20)
(1.07754 0.31606 0)
(1.03184 0.303686 -1.23576e-20)
(1.00417 0.292224 -1.52994e-20)
(0.987418 0.281747 -9.21427e-21)
(0.920998 0.257211 -1.11878e-20)
(0.709181 0.193941 0)
(0.392564 0.106397 0)
(0.149558 0.041024 -2.75809e-20)
(0.02347 0.00826287 5.43986e-21)
(-0.0185239 -0.00301156 -3.21012e-21)
(-0.00903036 -0.0017614 -3.80234e-21)
(0.277405 0.0721089 -7.27386e-21)
(1.19166 0.295029 0)
(1.37672 0.352334 1.36101e-20)
(1.41068 0.373961 7.0433e-21)
(1.37315 0.382867 9.68302e-21)
(1.31185 0.383899 0)
(1.25044 0.382554 8.67761e-21)
(1.18905 0.378655 1.646e-20)
(1.12777 0.371038 1.42974e-20)
(1.06797 0.358453 2.60872e-20)
(1.01961 0.342871 0)
(0.990067 0.329283 -3.26788e-20)
(0.968554 0.315743 -1.96868e-20)
(0.885576 0.283259 -1.16427e-20)
(0.650621 0.205502 7.10966e-20)
(0.339286 0.107271 8.41026e-21)
(0.118013 0.0386936 3.96126e-20)
(0.00687601 0.00486172 -1.87209e-19)
(-0.0255169 -0.00574001 1.10878e-19)
(-0.0100382 -0.00246982 -1.3535e-19)
(0.269406 0.0838882 -3.29222e-21)
(1.19558 0.35402 1.28986e-21)
(1.38395 0.41915 -1.43178e-21)
(1.41579 0.441547 -7.05589e-21)
(1.37525 0.446639 -8.10023e-21)
(1.31168 0.443195 3.54582e-22)
(1.24767 0.43737 -9.34367e-21)
(1.18339 0.42906 1.68396e-20)
(1.11912 0.417103 -3.0511e-20)
(1.05645 0.400333 0)
(1.00589 0.3814 -1.47733e-20)
(0.974693 0.365567 -3.02829e-22)
(0.94842 0.348704 -2.14085e-20)
(0.851152 0.307607 0)
(0.601075 0.216062 -1.52943e-20)
(0.299619 0.108732 -3.613e-20)
(0.0947949 0.0367004 9.59535e-20)
(-0.00604582 0.00130545 -9.44758e-20)
(-0.0312677 -0.00866079 1.34293e-19)
(-0.0108749 -0.00320447 -1.4131e-19)
(0.262239 0.0946056 -1.17973e-22)
(1.19282 0.410069 -3.70242e-22)
(1.38509 0.483836 -3.78914e-21)
(1.41538 0.507267 2.77346e-21)
(1.37269 0.508873 -4.02105e-21)
(1.30744 0.50118 0)
(1.24141 0.491055 -8.64469e-21)
(1.17482 0.47845 -1.75254e-20)
(1.1081 0.462183 -1.57767e-20)
(1.04305 0.441187 0)
(0.99071 0.418825 -1.51027e-20)
(0.958153 0.400631 -1.87008e-20)
(0.927451 0.380176 2.30245e-20)
(0.818258 0.330258 -1.39777e-20)
(0.559203 0.22587 -6.59079e-20)
(0.269026 0.110667 3.89103e-20)
(0.0764327 0.0348601 1.14781e-20)
(-0.0171853 -0.00249398 0)
(-0.0366042 -0.0118209 -1.28399e-19)
(-0.0116692 -0.00397707 -4.75714e-21)
(0.256115 0.104609 2.78764e-22)
(1.1857 0.462956 -2.32583e-22)
(1.38165 0.545821 1.70309e-21)
(1.41069 0.570455 9.79192e-21)
(1.36641 0.568929 -1.46533e-20)
(1.29993 0.557291 1.74002e-20)
(1.23231 0.543111 1.84827e-20)
(1.16381 0.526384 -2.7872e-20)
(1.09503 0.5059 9.66187e-21)
(1.02798 0.48067 -6.29976e-20)
(0.974221 0.454801 -1.70108e-20)
(0.940609 0.434111 0)
(0.905962 0.40989 2.47899e-20)
(0.787068 0.351134 2.96144e-20)
(0.523676 0.234998 3.53113e-20)
(0.244601 0.112867 -4.18235e-20)
(0.060982 0.0329459 -1.23351e-20)
(-0.0275735 -0.00667663 1.45438e-20)
(-0.0421396 -0.0153636 0)
(-0.0125839 -0.00483704 -1.02166e-20)
(0.25097 0.11396 -8.13899e-21)
(1.17597 0.512708 3.57513e-21)
(1.37495 0.605078 -1.40323e-21)
(1.40272 0.630769 5.7897e-21)
(1.35724 0.626432 -6.49922e-21)
(1.28986 0.611168 -8.58352e-22)
(1.22097 0.593237 -2.01223e-20)
(1.15087 0.572615 -1.00513e-20)
(1.0803 0.548041 -2.71919e-20)
(1.01152 0.518592 3.17741e-23)
(0.956606 0.489115 -5.28343e-20)
(0.922208 0.465755 4.45893e-20)
(0.884168 0.437588 -2.69853e-20)
(0.757683 0.370123 3.22746e-20)
(0.493344 0.243355 0)
(0.224607 0.115033 -2.24754e-20)
(0.0474704 0.0306963 2.32641e-23)
(-0.0376009 -0.011398 -6.25953e-20)
(-0.0481523 -0.0194504 -9.25603e-21)
(-0.0137316 -0.00584518 0)
(0.246791 0.122936 0)
(1.16472 0.559557 4.59229e-21)
(1.36582 0.66158 -5.19421e-22)
(1.39229 0.688054 -5.1548e-21)
(1.34587 0.68119 -8.30881e-21)
(1.27783 0.66263 0)
(1.20791 0.641255 -9.10952e-21)
(1.13643 0.616999 -2.41464e-22)
(1.06427 0.588513 5.80752e-20)
(0.993912 0.554877 -8.59913e-21)
(0.938021 0.521668 -3.80615e-20)
(0.903045 0.495413 2.31155e-20)
(0.862165 0.463072 -3.93569e-22)
(0.730013 0.387086 3.4226e-20)
(0.467268 0.250763 2.06256e-20)
(0.207948 0.116764 -4.82055e-20)
(0.0356461 0.0278534 5.68551e-20)
(-0.047127 -0.0167562 1.68086e-20)
(-0.0545555 -0.0241385 6.9646e-20)
(-0.0151566 -0.00705082 -1.88477e-19)
(0.243509 0.131702 -3.5961e-21)
(1.15277 0.603678 4.20348e-21)
(1.35497 0.715012 -2.34663e-21)
(1.38007 0.742279 3.7709e-21)
(1.33289 0.733125 0)
(1.26435 0.711585 -7.84355e-21)
(1.19358 0.687085 3.06096e-20)
(1.12089 0.659475 2.19726e-20)
(1.04725 0.62729 0)
(0.975382 0.589525 -1.23583e-19)
(0.918569 0.552443 1.0258e-19)
(0.883157 0.523018 0)
(0.839961 0.486234 3.11792e-20)
(0.703865 0.401931 -3.15895e-22)
(0.444622 0.257027 -6.60107e-20)
(0.193949 0.117731 2.58335e-20)
(0.0256219 0.0243455 0)
(-0.0556333 -0.022653 9.02112e-20)
(-0.0608726 -0.0293292 0)
(-0.0167896 -0.00846081 -8.85501e-20)
(0.241056 0.140269 4.54171e-21)
(1.14064 0.645314 6.20342e-21)
(1.34286 0.765452 -2.11903e-21)
(1.3666 0.793475 0)
(1.31879 0.782252 -6.90295e-21)
(1.24988 0.758027 0)
(1.17838 0.730702 -3.02025e-20)
(1.10459 0.70003 -1.02124e-20)
(1.02953 0.664395 1.02479e-20)
(0.956123 0.622603 -6.11433e-20)
(0.89833 0.581492 1.06067e-20)
(0.86253 0.548576 0)
(0.817483 0.507037 -6.6429e-20)
(0.678955 0.414596 2.48567e-22)
(0.42466 0.262013 0)
(0.182106 0.117791 4.35002e-23)
(0.0174296 0.0202648 8.19441e-20)
(-0.0626172 -0.0287849 -7.74783e-20)
(-0.0665144 -0.0347247 2.29432e-20)
(-0.0184693 -0.0100057 0)
(0.2391 0.148618 0)
(1.12861 0.684672 7.92538e-21)
(1.32999 0.813026 4.22707e-21)
(1.35232 0.841724 -5.34737e-22)
(1.30397 0.828622 -2.19089e-21)
(1.23478 0.801989 -1.77523e-20)
(1.16264 0.772132 1.1369e-20)
(1.08783 0.738693 -1.20832e-20)
(1.01137 0.699878 4.57921e-20)
(0.936315 0.654218 -9.79693e-20)
(0.877366 0.608933 -8.22705e-22)
(0.841138 0.572153 -2.92277e-20)
(0.794617 0.5255 1.07563e-19)
(0.655006 0.425146 -3.61308e-22)
(0.406709 0.265703 -5.07853e-20)
(0.17199 0.116969 -8.95833e-20)
(0.0111115 0.015926 0)
(-0.0677174 -0.034754 0)
(-0.0709871 -0.0399629 2.46528e-20)
(-0.0200132 -0.0115876 -1.46187e-20)
(0.237814 0.156941 6.88094e-21)
(1.11687 0.721816 -1.83961e-20)
(1.31669 0.857854 -4.53185e-21)
(1.33756 0.88712 0)
(1.28876 0.872315 -3.10568e-22)
(1.21935 0.843531 -1.62687e-20)
(1.14666 0.811422 2.75173e-20)
(1.07087 0.775509 4.77276e-20)
(0.993003 0.733812 5.9734e-20)
(0.916145 0.684499 -8.0387e-20)
(0.855759 0.634942 -8.85714e-20)
(0.818933 0.593869 7.83112e-20)
(0.771281 0.541693 0)
(0.631633 0.433594 -2.32842e-20)
(0.390297 0.26804 -5.45942e-20)
(0.163299 0.115463 -6.42022e-20)
(0.00649383 0.0116333 -7.56917e-20)
(-0.0709065 -0.0401863 2.23969e-20)
(-0.0740269 -0.0447044 -1.32354e-20)
(-0.0212752 -0.0131002 3.82389e-23)
(0.236786 0.165065 0)
(1.10584 0.756758 0)
(1.3032 0.900054 5.09543e-22)
(1.3226 0.929774 0)
(1.2734 0.913435 4.71359e-21)
(1.20384 0.882738 1.10861e-20)
(1.13066 0.848634 0)
(1.05395 0.810536 5.70075e-21)
(0.974644 0.766272 1.0026e-19)
(0.895805 0.713585 -1.85452e-19)
(0.833608 0.659741 0)
(0.795863 0.613898 -5.06909e-20)
(0.747284 0.555639 -4.85176e-22)
(0.608554 0.439912 -2.64854e-22)
(0.375135 0.269037 5.86798e-20)
(0.155939 0.11351 3.1697e-23)
(0.00338863 0.00784782 -1.62742e-19)
(-0.0725191 -0.0446735 4.81101e-20)
(-0.0757494 -0.0486994 1.42715e-20)
(-0.0221581 -0.0144352 0)
(0.236019 0.17295 -2.88418e-20)
(1.09527 0.789962 -1.31439e-20)
(1.28966 0.939717 -1.5377e-20)
(1.30763 0.969799 1.00123e-20)
(1.25813 0.952069 5.39435e-21)
(1.18846 0.919693 0)
(1.11485 0.883842 1.69162e-20)
(1.03725 0.843836 -1.2783e-20)
(0.956489 0.797331 8.00461e-22)
(0.875488 0.741611 1.37207e-20)
(0.811027 0.683573 1.15987e-19)
(0.771884 0.6325 -1.78776e-20)
(0.722455 0.56737 -6.66871e-20)
(0.585729 0.443893 -2.71066e-20)
(0.361187 0.26846 3.16027e-20)
(0.150272 0.111295 4.49269e-23)
(0.00185404 0.00539998 4.37787e-20)
(-0.0734749 -0.0474104 -1.03415e-19)
(-0.0772643 -0.0518575 1.22754e-19)
(-0.0229085 -0.0156605 1.81296e-20)
(0.235305 0.180593 1.11196e-20)
(1.0852 0.821483 -7.49706e-21)
(1.27626 0.976984 1.32863e-21)
(1.29285 1.00733 7.68566e-21)
(1.24308 0.988341 2.28059e-22)
(1.17335 0.954482 -1.96616e-20)
(1.09938 0.917117 4.92521e-21)
(1.02094 0.875464 -5.36072e-20)
(0.938715 0.827039 -1.11935e-19)
(0.855376 0.768677 -1.11796e-19)
(0.788168 0.706677 0)
(0.746961 0.649994 -7.90185e-20)
(0.69649 0.577001 9.64666e-20)
(0.562774 0.445076 0)
(0.34862 0.265517 -6.79277e-20)
(0.147675 0.108327 3.99595e-20)
(0.00364462 0.00482687 -4.70786e-20)
(-0.0738054 -0.047804 -5.56808e-20)
(-0.0809291 -0.0547905 -9.89098e-20)
(-0.0245988 -0.0173482 -7.81042e-20)
(0.234939 0.188081 -1.27615e-20)
(1.0755 0.851346 8.03751e-21)
(1.26309 1.01194 1.7567e-20)
(1.27837 1.04247 1.20715e-20)
(1.2284 1.02235 4.7881e-22)
(1.15865 0.987205 -1.07646e-20)
(1.08438 0.948523 1.65788e-20)
(1.00515 0.905485 -5.55296e-20)
(0.92146 0.855455 -6.68974e-20)
(0.835647 0.794872 1.18324e-19)
(0.765192 0.729273 2.58377e-19)
(0.721095 0.666767 0)
(0.669021 0.584785 0)
(0.538946 0.443059 -3.12961e-20)
(0.337385 0.258759 0)
(0.149555 0.102514 8.59104e-20)
(0.0130396 0.00274404 1.01183e-19)
(-0.0679147 -0.0492746 0)
(-0.0852735 -0.0596333 0)
(-0.0287285 -0.0206598 8.41317e-20)
(0.234453 0.195154 1.47006e-20)
(1.06622 0.879577 1.1537e-20)
(1.25025 1.04471 1.28479e-20)
(1.26427 1.07537 -1.25174e-20)
(1.21417 1.05422 -8.93226e-22)
(1.14445 1.01794 1.11079e-20)
(1.06993 0.978131 -2.30257e-20)
(0.989986 0.933941 -2.91789e-22)
(0.904857 0.882615 -1.06264e-21)
(0.816465 0.820251 -5.6848e-22)
(0.742297 0.751541 1.34001e-19)
(0.694355 0.683214 0)
(0.639697 0.591186 9.91869e-20)
(0.513109 0.437704 6.77045e-20)
(0.325531 0.246482 1.59372e-19)
(0.15515 0.0878275 4.64876e-20)
(0.0337814 -0.0120796 -5.45272e-20)
(-0.041026 -0.0642547 -3.22614e-20)
(-0.0692373 -0.0682895 0)
(-0.0308745 -0.0243628 9.09416e-20)
(0.234314 0.20225 -3.36591e-20)
(1.05732 0.90628 0)
(1.23775 1.07535 1.5594e-20)
(1.25061 1.1061 -1.09262e-20)
(1.20047 1.08405 3.12887e-21)
(1.1308 1.04679 -1.18523e-20)
(1.05612 1.006 4.5333e-20)
(0.975519 0.960877 -4.38633e-21)
(0.888998 0.908545 0)
(0.797977 0.844827 -1.32852e-19)
(0.719699 0.773614 -2.94901e-19)
(0.666887 0.699736 1.20138e-20)
(0.608279 0.596839 1.39182e-19)
(0.484022 0.429626 0)
(0.309755 0.228028 1.08577e-19)
(0.15825 0.0601652 0)
(0.057393 -0.0527334 0)
(0.00933206 -0.113225 -3.48459e-20)
(0.00912181 -0.0908258 0)
(0.0143024 -0.00816709 2.4542e-20)
(0.233936 0.208814 -3.79007e-20)
(1.0488 0.931801 0)
(1.2256 1.10408 2.64633e-20)
(1.23735 1.13493 0)
(1.18727 1.11211 -2.5225e-21)
(1.11766 1.07403 0)
(1.0429 1.03244 2.25988e-21)
(0.961669 0.986623 7.87328e-21)
(0.873779 0.933597 8.59502e-21)
(0.780037 0.86897 -1.47176e-19)
(0.697231 0.795962 8.95367e-21)
(0.638383 0.71714 9.75041e-20)
(0.574105 0.602779 1.36943e-19)
(0.450069 0.419743 1.81819e-20)
(0.286529 0.205022 8.6102e-20)
(0.149429 0.0213591 0)
(0.0641836 -0.117907 1.15228e-19)
(0.0369846 -0.136871 -6.76047e-20)
(0.0188477 0.0245204 7.94603e-20)
(-0.0390559 0.464717 -9.43789e-20)
(0.233606 0.21522 3.15858e-20)
(1.0404 0.955957 4.69862e-20)
(1.21372 1.13122 0)
(1.22434 1.16229 9.82766e-22)
(1.17437 1.13898 8.72554e-21)
(1.10475 1.10035 1.39789e-20)
(1.02993 1.05824 1.60507e-20)
(0.948014 1.0121 0)
(0.858652 0.958836 5.73548e-20)
(0.761946 0.893932 -7.73625e-21)
(0.673921 0.819986 0)
(0.60736 0.736943 0)
(0.534566 0.609931 1.24464e-19)
(0.407807 0.408207 -5.64592e-20)
(0.251956 0.179227 -8.86744e-20)
(0.123512 -0.0245037 0)
(0.045334 -0.0784327 5.8872e-20)
(0.000723239 0.443201 -6.81492e-20)
(0.0264695 1.95357 -3.82844e-20)
(0.052158 2.83784 -4.70771e-20)
(0.233023 0.221141 -2.39931e-20)
(1.03223 0.978936 -6.07968e-20)
(1.20213 1.15679 1.59655e-20)
(1.21161 1.18806 1.18727e-20)
(1.16185 1.16446 0)
(1.09219 1.12547 7.63501e-21)
(1.01746 1.08309 2.22074e-20)
(0.93477 1.03689 -3.88864e-21)
(0.843935 0.983773 8.65637e-21)
(0.744152 0.919176 1.42214e-19)
(0.650492 0.845214 1.53448e-19)
(0.574911 0.759449 1.12768e-19)
(0.490315 0.619452 1.27273e-19)
(0.357374 0.395276 -1.35578e-19)
(0.209956 0.156292 -1.36204e-19)
(0.0838777 0.0379939 0)
(0.031485 0.931563 0)
(0.0757368 2.60448 3.29904e-20)
(0.0790604 3.22349 0)
(0.0815232 3.393 8.61222e-20)
(0.235313 0.226773 0)
(1.02465 1.00115 0)
(1.19053 1.18064 0)
(1.19897 1.2121 3.78819e-21)
(1.14936 1.18831 8.23107e-21)
(1.07978 1.14926 3.1046e-21)
(1.0054 1.10689 1.4461e-20)
(0.921877 1.06087 -3.83857e-21)
(0.829573 1.00823 7.30566e-20)
(0.726669 0.944544 -1.40598e-21)
(0.627091 0.871494 3.07364e-19)
(0.541492 0.784943 -1.31533e-20)
(0.441397 0.633096 1.5785e-20)
(0.299451 0.380194 1.99167e-20)
(0.154284 0.168552 -9.7251e-22)
(0.0733106 1.04838 3.35704e-22)
(0.108259 2.78912 -1.79293e-19)
(0.112575 3.30409 -6.72699e-20)
(0.106193 3.42261 3.55328e-20)
(0.0981126 3.44168 -4.03584e-20)
(0.157819 0.17183 1.48387e-20)
(1.01255 1.02532 0)
(1.17868 1.203 -3.3499e-20)
(1.18686 1.23486 -3.34314e-20)
(1.13736 1.21102 2.25128e-20)
(1.06822 1.17219 -2.23661e-21)
(0.993547 1.12967 -1.52132e-20)
(0.909367 1.08408 4.37247e-20)
(0.815656 1.03231 -6.06882e-20)
(0.709758 0.970161 0)
(0.60411 0.898943 1.53599e-19)
(0.507751 0.813407 -9.40097e-20)
(0.392993 0.663339 0)
(0.233441 0.37036 1.9826e-20)
(0.106286 0.686257 4.58873e-20)
(0.122581 2.60562 -5.10623e-20)
(0.16721 3.3259 5.76824e-20)
(0.153229 3.42828 3.10965e-20)
(0.128541 3.44721 3.49675e-20)
(0.111225 3.45627 5.61625e-20)
(0.269492 0.263602 -2.8433e-20)
(0.993223 1.03414 0)
(1.15893 1.2283 3.6634e-20)
(1.17126 1.26601 3.78329e-20)
(1.11895 1.24448 -2.70674e-20)
(1.04923 1.20593 -2.47324e-21)
(0.973317 1.1649 1.49856e-20)
(0.888372 1.12045 3.46043e-21)
(0.792779 1.07072 5.89947e-20)
(0.682917 1.01239 1.27293e-19)
(0.5692 0.946814 8.75013e-21)
(0.455176 0.859224 8.56412e-20)
(0.301112 0.679979 1.54457e-20)
(0.190037 0.823535 -1.9384e-20)
(0.196716 2.49791 -4.26672e-20)
(0.247551 3.32463 4.20311e-20)
(0.230399 3.44778 -4.61e-20)
(0.19783 3.46789 -2.63382e-20)
(0.166124 3.49313 -2.43772e-20)
(0.122079 3.4899 -3.48423e-21)
(0.259207 0.262182 0)
(0.989379 1.05644 1.11042e-20)
(1.14938 1.25164 -7.67566e-21)
(1.15945 1.2895 -4.66558e-21)
(1.10715 1.26772 -1.94351e-20)
(1.03739 1.22931 3.48309e-21)
(0.961053 1.18843 -8.10965e-21)
(0.875661 1.14475 3.14841e-21)
(0.779051 1.09644 -6.21869e-20)
(0.666877 1.04099 -2.51112e-21)
(0.548231 0.980101 -2.84021e-19)
(0.424127 0.893888 1.23548e-20)
(0.273525 0.753624 -1.47891e-20)
(0.226358 1.51974 -1.80062e-20)
(0.291749 3.14617 3.62338e-21)
(0.30228 3.44648 -8.32402e-24)
(0.262625 3.49351 7.10605e-20)
(0.23001 3.51961 3.6505e-20)
(0.185165 3.54082 -1.28992e-20)
(0.136444 3.53896 -1.82485e-20)
(0.244887 0.259784 2.87683e-20)
(0.984565 1.08124 7.54796e-20)
(1.13942 1.27707 -2.18343e-20)
(1.14724 1.31462 -1.74196e-20)
(1.09486 1.29244 0)
(1.02513 1.25402 1.1309e-20)
(0.948662 1.21336 -8.73119e-21)
(0.863085 1.17044 2.80906e-21)
(0.765781 1.12374 -6.97846e-21)
(0.651886 1.0716 -1.18307e-19)
(0.529386 1.01619 -1.32831e-19)
(0.396499 0.930171 -1.02084e-19)
(0.272997 0.914926 -1.12527e-19)
(0.2951 2.33834 1.1511e-19)
(0.374984 3.37515 9.74055e-20)
(0.343386 3.49872 0)
(0.297318 3.53909 0)
(0.261534 3.57439 -1.05493e-20)
(0.22009 3.61921 0)
(0.151411 3.60687 -1.71932e-20)
(0.234777 0.261329 -4.31689e-20)
(0.97779 1.1068 -6.43027e-20)
(1.12804 1.30371 0)
(1.13373 1.34056 1.19157e-21)
(1.08128 1.31781 -2.26851e-20)
(1.01176 1.27932 2.12542e-20)
(0.935482 1.23893 -3.89971e-21)
(0.849953 1.19673 1.71948e-21)
(0.752226 1.15166 -4.53355e-20)
(0.6371 1.10297 5.98297e-21)
(0.511825 1.05324 0)
(0.369512 0.969412 0)
(0.294745 1.23343 -1.03389e-19)
(0.378413 2.98826 4.20473e-20)