/*--------------------------------*- C++ -*----------------------------------*\
  =========                 |
  \\      /  F ield         | OpenFOAM: The Open Source CFD Toolbox
   \\    /   O peration     | Website:  https://openfoam.org
    \\  /    A nd           | Version:  6
     \\/     M anipulation  |
\*---------------------------------------------------------------------------*/
FoamFile
{
    version     2.0;
    format      ascii;
    class       volScalarField;
    location    "89";
    object      p;
}
// * * * * * * * * * * * * * * * * * * * * * * * * * * * * * * * * * * * * * //

dimensions      [0 2 -2 0 0 0 0];

internalField   nonuniform List<scalar> 
8800
(
0.848561
0.799246
0.761282
0.733214
0.713056
0.698472
0.687878
0.680345
0.675468
0.673411
0.674795
0.679151
0.685953
0.695385
0.708127
0.725452
0.749332
0.782431
0.82537
0.877885
0.683051
0.689396
0.698547
0.702097
0.69949
0.693405
0.686468
0.680233
0.675439
0.672581
0.672363
0.675005
0.679659
0.685797
0.692904
0.699943
0.704826
0.704705
0.698033
0.689137
0.656558
0.662794
0.667296
0.67117
0.674121
0.675074
0.673991
0.671878
0.669908
0.669083
0.670132
0.6726
0.6755
0.67778
0.678309
0.676526
0.673165
0.669156
0.664378
0.660662
0.652245
0.655012
0.65762
0.659781
0.661522
0.663096
0.664205
0.664568
0.664467
0.664583
0.665408
0.666569
0.667326
0.667189
0.666224
0.664877
0.663215
0.660918
0.65851
0.656944
0.647173
0.648599
0.650441
0.652525
0.654243
0.655542
0.656649
0.657641
0.658466
0.659224
0.65996
0.660443
0.660487
0.66014
0.659485
0.658381
0.656733
0.654846
0.653497
0.652694
0.64216
0.643064
0.644314
0.645945
0.647645
0.649186
0.650481
0.651618
0.652703
0.653748
0.654565
0.654985
0.65502
0.654673
0.653888
0.652713
0.651364
0.650107
0.64929
0.648766
0.637224
0.637881
0.638845
0.640169
0.641624
0.643152
0.644651
0.646034
0.647323
0.648563
0.649554
0.650086
0.650136
0.649728
0.648969
0.648046
0.64707
0.646177
0.645602
0.645217
0.632361
0.632866
0.633655
0.634803
0.636114
0.637545
0.639072
0.640638
0.642182
0.643682
0.644888
0.645546
0.645667
0.645382
0.644848
0.644184
0.643468
0.642819
0.642398
0.642098
0.627513
0.627914
0.628579
0.629609
0.630853
0.632235
0.633763
0.635434
0.637206
0.639006
0.640487
0.641356
0.641686
0.641644
0.641363
0.640928
0.640425
0.639974
0.639665
0.639421
0.622598
0.622926
0.623504
0.624459
0.625661
0.627039
0.628611
0.630396
0.632381
0.634502
0.63634
0.63754
0.638179
0.638421
0.638393
0.6382
0.637903
0.637618
0.637394
0.637188
0.617527
0.617798
0.618318
0.61923
0.620422
0.621836
0.623497
0.62544
0.62768
0.630177
0.632463
0.634087
0.635099
0.635663
0.635914
0.635966
0.635879
0.635743
0.635588
0.63541
0.612205
0.612433
0.612916
0.613816
0.615039
0.616532
0.618327
0.620487
0.623054
0.626017
0.628849
0.630982
0.632429
0.633365
0.63393
0.634234
0.634368
0.634374
0.634276
0.634116
0.606536
0.60673
0.607195
0.608114
0.609409
0.611027
0.613011
0.615458
0.618443
0.621984
0.625478
0.628216
0.630175
0.631538
0.632461
0.633061
0.633418
0.633555
0.633504
0.633357
0.60041
0.600578
0.601042
0.602007
0.603415
0.605211
0.607455
0.610274
0.61378
0.618031
0.622326
0.62579
0.628355
0.630215
0.631551
0.632484
0.633082
0.633349
0.63334
0.633199
0.593701
0.593846
0.594326
0.595366
0.596932
0.598967
0.601549
0.60484
0.608995
0.614112
0.619375
0.623706
0.626992
0.629439
0.631244
0.632558
0.633429
0.633832
0.633861
0.633723
0.586261
0.586381
0.58689
0.588037
0.589813
0.592157
0.595169
0.599052
0.604007
0.61018
0.616609
0.621975
0.626112
0.629253
0.63162
0.633374
0.634551
0.635095
0.635158
0.635018
0.577896
0.578001
0.578544
0.57983
0.581876
0.584613
0.588167
0.592787
0.598729
0.606185
0.614013
0.620611
0.625752
0.62971
0.632752
0.635021
0.636542
0.637234
0.637328
0.637182
0.568324
0.56843
0.569041
0.5705
0.572896
0.57613
0.580363
0.585901
0.593059
0.602075
0.611576
0.619632
0.625959
0.630877
0.634712
0.637585
0.639495
0.640343
0.640464
0.640308
0.557252
0.557334
0.558031
0.559743
0.562583
0.56645
0.571541
0.578228
0.586885
0.597795
0.609293
0.61906
0.626776
0.632826
0.637572
0.641158
0.643499
0.644503
0.644643
0.644474
0.544267
0.544338
0.545142
0.547165
0.55057
0.555249
0.561436
0.569572
0.580088
0.593295
0.607163
0.618927
0.628245
0.635607
0.641419
0.645811
0.648615
0.649766
0.649916
0.649731
0.528774
0.528835
0.529792
0.532236
0.536383
0.542125
0.549731
0.559716
0.572554
0.588545
0.605201
0.619267
0.63041
0.639269
0.646289
0.65158
0.65486
0.656136
0.656281
0.656076
0.50995
0.510006
0.511184
0.514221
0.519384
0.52656
0.536051
0.548438
0.564192
0.583548
0.603444
0.620116
0.633311
0.643841
0.65219
0.658455
0.662185
0.66354
0.663661
0.663436
0.486574
0.486636
0.488167
0.492095
0.498719
0.507908
0.519986
0.535545
0.554972
0.578359
0.601961
0.621523
0.636968
0.649323
0.659104
0.666353
0.670447
0.671807
0.671881
0.671638
0.456748
0.456841
0.458982
0.464359
0.47327
0.485432
0.501171
0.520956
0.544978
0.573113
0.60087
0.623559
0.641395
0.655674
0.666958
0.675096
0.679388
0.680653
0.680658
0.680403
0.417244
0.417474
0.420879
0.428931
0.441709
0.458491
0.479466
0.504817
0.534455
0.568036
0.600323
0.626307
0.646608
0.662836
0.67559
0.684401
0.688637
0.689692
0.689615
0.689359
0.361912
0.363074
0.36988
0.383511
0.403062
0.427
0.455234
0.487611
0.523836
0.56344
0.600499
0.629854
0.652609
0.670718
0.684763
0.693884
0.697732
0.698484
0.698332
0.698086
0.28185
0.289713
0.305386
0.329271
0.35895
0.392469
0.429527
0.469925
0.513393
0.559481
0.601614
0.634559
0.65996
0.680078
0.695122
0.704152
0.707404
0.707847
0.707651
0.707446
0.196577
0.213796
0.239257
0.274154
0.314506
0.357727
0.403594
0.452085
0.503034
0.556077
0.60394
0.64107
0.669626
0.691927
0.707834
0.716101
0.718433
0.718584
0.718417
0.718289
0.123395
0.144462
0.17809
0.222422
0.272229
0.324584
0.379015
0.435435
0.493645
0.553279
0.606387
0.647208
0.678431
0.702449
0.718528
0.725759
0.7274
0.727451
0.727321
0.727227
0.0633451
0.0867549
0.125986
0.177085
0.234264
0.294237
0.356206
0.41987
0.484829
0.550592
0.6085
0.652602
0.686032
0.711248
0.727292
0.73384
0.735156
0.735171
0.735063
0.734979
0.0135131
0.038324
0.081606
0.137963
0.201031
0.267251
0.335612
0.405637
0.476702
0.548098
0.610423
0.657478
0.692823
0.719008
0.734951
0.740982
0.742123
0.742136
0.742048
0.741964
-0.0287217
-0.00309186
0.0431769
0.103793
0.171808
0.243348
0.317231
0.392868
0.469448
0.546039
0.612459
0.662217
0.699238
0.726168
0.741918
0.747567
0.748629
0.748672
0.74861
0.748526
-0.0654347
-0.0392761
0.00931798
0.0734629
0.14571
0.221898
0.300691
0.381407
0.463066
0.544525
0.614817
0.667093
0.705614
0.733088
0.748613
0.753988
0.755016
0.75511
0.75509
0.755008
-0.0981514
-0.0715878
-0.0210884
0.0460692
0.121997
0.20229
0.285524
0.370926
0.457367
0.543482
0.617535
0.672239
0.712168
0.740146
0.755484
0.760633
0.761664
0.761821
0.761859
0.761788
-0.127935
-0.101012
-0.0488998
0.020894
0.100077
0.184032
0.271311
0.361073
0.45208
0.542746
0.620529
0.677693
0.719055
0.747586
0.762855
0.767905
0.768936
0.769133
0.769216
0.769159
-0.15563
-0.128334
-0.0747841
-0.00260336
0.0794778
0.166729
0.257707
0.351554
0.446938
0.542113
0.623693
0.683429
0.726342
0.755576
0.770906
0.775914
0.776904
0.777105
0.777214
0.777175
-0.181668
-0.154027
-0.0991626
-0.0248525
0.059834
0.150073
0.24445
0.342122
0.441729
0.541402
0.626922
0.689361
0.733956
0.763997
0.779503
0.784513
0.785449
0.78561
0.785712
0.785684
-0.206558
-0.178493
-0.122413
-0.046164
0.0408746
0.133827
0.231338
0.332591
0.436265
0.540441
0.630064
0.695387
0.741761
0.772676
0.788389
0.793394
0.794254
0.794351
0.794423
0.794415
-0.230466
-0.201974
-0.144752
-0.0667487
0.0224091
0.117828
0.218221
0.322823
0.430389
0.539066
0.632983
0.701408
0.749634
0.781395
0.797297
0.802218
0.802986
0.802998
0.803028
0.803027
-0.25357
-0.224626
-0.166343
-0.0867437
0.00432502
0.101975
0.204999
0.312708
0.42398
0.537119
0.635531
0.707339
0.757534
0.790032
0.805921
0.810697
0.811331
0.811258
0.811244
0.81124
-0.275999
-0.246572
-0.18728
-0.106224
-0.0134543
0.0862068
0.19162
0.302191
0.416951
0.534462
0.637559
0.713102
0.765464
0.798554
0.814165
0.818607
0.819079
0.818934
0.818885
0.818875
-0.297844
-0.267884
-0.207601
-0.125229
-0.0309452
0.0705002
0.178067
0.29124
0.409247
0.530978
0.638913
0.718611
0.773504
0.807153
0.822101
0.825901
0.826125
0.825931
0.825865
0.825847
-0.319007
-0.288541
-0.227313
-0.143783
-0.0481569
0.0548749
0.164349
0.27987
0.40085
0.526597
0.639433
0.723752
0.781729
0.816108
0.830044
0.832691
0.832434
0.832222
0.832205
0.832188
-0.339489
-0.308538
-0.246435
-0.161874
-0.0650685
0.0393532
0.150512
0.268104
0.391776
0.521257
0.638979
0.728354
0.790146
0.825811
0.838639
0.839488
0.838177
0.837853
0.838093
0.838186
-0.359362
-0.327869
-0.264971
-0.179496
-0.0816434
0.0239885
0.136611
0.256003
0.382059
0.514945
0.637403
0.732213
0.798631
0.83651
0.848785
0.847522
0.844173
0.843214
0.844009
0.844773
-0.378506
-0.34652
-0.282887
-0.196602
-0.0978452
0.00884301
0.122718
0.243645
0.371771
0.507696
0.634587
0.735071
0.806892
0.848096
0.861122
0.858555
0.85277
0.849622
0.84938
0.849756
-0.397014
-0.364523
-0.300199
-0.213236
-0.113719
-0.00613018
0.108775
0.230966
0.360838
0.499433
0.630361
0.736656
0.814688
0.860236
0.875621
0.873713
0.866407
0.858534
0.849901
0.852007
-0.414823
-0.381943
-0.317049
-0.229595
-0.129557
-0.0212501
0.0943839
0.21751
0.348755
0.48959
0.62416
0.736335
0.821798
0.872741
0.891462
0.89212
0.883353
0.869091
0.84799
0.849167
-0.431814
-0.398761
-0.333286
-0.2455
-0.145106
-0.0362291
0.0797283
0.203567
0.335767
0.47832
0.615861
0.733143
0.826989
0.884111
0.904597
0.905837
0.895809
0.865856
0.809201
0.785394
-0.447888
-0.415959
-0.34852
-0.26052
-0.159571
-0.0505811
0.0650887
0.189412
0.322147
0.465775
0.605448
0.726327
0.82874
0.892725
0.909495
0.905265
0.88214
0.825498
0.762949
0.725129
-0.489822
-0.432883
-0.362449
-0.275599
-0.173717
-0.0652983
0.0506123
0.174912
0.307669
0.451555
0.592391
0.715023
0.823064
0.893616
0.902
0.876914
0.81838
0.747002
0.676094
0.636985
-0.464004
-0.445429
-0.383605
-0.296078
-0.195685
-0.0874416
0.0278703
0.151703
0.283887
0.426999
0.567443
0.689728
0.790932
0.86905
0.842717
0.721519
0.623121
0.554782
0.487702
0.510652
-0.493973
-0.462289
-0.399595
-0.312536
-0.212512
-0.104388
0.0111765
0.134456
0.265794
0.407461
0.545763
0.664935
0.75489
0.798718
0.735812
0.585766
0.469346
0.390825
0.305806
0.34683
-0.516987
-0.482984
-0.418602
-0.331502
-0.231525
-0.12339
-0.0078953
0.114664
0.244756
0.384218
0.518864
0.632077
0.710007
0.715603
0.597528
0.433928
0.298566
0.201178
0.103186
0.130435
-0.539265
-0.504278
-0.438591
-0.350868
-0.250825
-0.142803
-0.0278064
0.0938262
0.222382
0.359112
0.488848
0.592979
0.653497
0.625257
0.456422
0.272682
0.107955
-0.0295622
-0.156456
-0.148028
-0.561202
-0.525888
-0.459351
-0.371079
-0.270927
-0.163138
-0.0488104
0.071705
0.198368
0.331826
0.455573
0.550282
0.589571
0.512212
0.317164
0.114607
-0.0757493
-0.232275
-0.43851
-0.5184
-0.583487
-0.548286
-0.481277
-0.39264
-0.292372
-0.184796
-0.0711019
0.0482166
0.172787
0.30257
0.419618
0.504876
0.5162
0.387608
0.189701
-0.0237996
-0.218632
-0.381549
-0.505541
-0.621168
-0.607186
-0.571953
-0.504726
-0.415934
-0.315698
-0.208456
-0.0955198
0.0223811
0.144442
0.26985
0.379479
0.451497
0.433815
0.269139
0.0701937
-0.13702
-0.315176
-0.413601
-0.439684
-0.452973
-0.632433
-0.597182
-0.529826
-0.44105
-0.341051
-0.234343
-0.122445
-0.00632461
0.112699
0.232857
0.334613
0.387504
0.349839
0.155085
-0.0415253
-0.228405
-0.363167
-0.401588
-0.410249
-0.410576
-0.659512
-0.624101
-0.556618
-0.467978
-0.368382
-0.262471
-0.151912
-0.0379706
0.0774731
0.191583
0.28452
0.31987
0.248255
0.0504747
-0.139435
-0.301752
-0.377573
-0.391756
-0.392804
-0.392668
-0.68843
-0.652743
-0.585127
-0.496722
-0.397717
-0.29284
-0.183942
-0.0725883
0.0387718
0.146142
0.228881
0.248384
0.137615
-0.0447825
-0.223871
-0.352242
-0.381695
-0.382503
-0.383175
-0.382784
-0.718937
-0.682951
-0.615261
-0.527209
-0.428979
-0.325409
-0.218523
-0.110166
-0.00335615
0.096655
0.169039
0.168805
0.0398814
-0.131904
-0.290368
-0.363845
-0.378847
-0.377311
-0.377157
-0.376818
-0.750481
-0.714377
-0.646759
-0.559213
-0.461986
-0.360028
-0.255512
-0.150591
-0.0486939
0.0435801
0.105411
0.0886448
-0.0495786
-0.208147
-0.335493
-0.373768
-0.372823
-0.372938
-0.3727
-0.372425
-0.782618
-0.746492
-0.679136
-0.592319
-0.49639
-0.396375
-0.294627
-0.193587
-0.096941
-0.0121191
0.0367877
0.0131971
-0.130078
-0.267944
-0.362276
-0.370242
-0.37051
-0.370136
-0.369814
-0.369577
-0.81438
-0.778424
-0.711669
-0.625894
-0.531636
-0.433971
-0.335398
-0.238662
-0.147665
-0.0695889
-0.031659
-0.0620823
-0.198473
-0.3098
-0.3663
-0.377285
-0.37093
-0.369169
-0.368622
-0.368292
-0.844024
-0.808891
-0.743316
-0.659047
-0.566941
-0.472102
-0.377149
-0.285067
-0.200087
-0.128366
-0.095027
-0.139653
-0.254252
-0.342861
-0.364331
-0.369502
-0.370825
-0.370614
-0.370282
-0.369984
-0.870391
-0.836382
-0.772678
-0.690574
-0.601239
-0.509816
-0.418992
-0.331866
-0.252963
-0.187929
-0.156628
-0.207113
-0.297956
-0.367198
-0.384733
-0.376053
-0.373853
-0.373064
-0.372696
-0.372552
-0.89081
-0.858796
-0.797993
-0.718945
-0.633207
-0.545919
-0.459811
-0.377985
-0.304988
-0.246487
-0.217739
-0.26039
-0.32847
-0.380617
-0.381084
-0.377185
-0.374367
-0.373312
-0.373014
-0.372939
-0.903226
-0.874013
-0.817183
-0.74241
-0.661308
-0.579024
-0.498273
-0.42217
-0.355051
-0.301334
-0.27367
-0.302943
-0.344004
-0.379183
-0.374645
-0.374048
-0.373271
-0.372524
-0.37221
-0.372031
-0.904942
-0.879649
-0.828141
-0.759115
-0.683899
-0.607658
-0.532949
-0.462934
-0.401902
-0.351729
-0.320184
-0.338167
-0.347814
-0.368365
-0.371551
-0.370774
-0.371127
-0.371184
-0.371145
-0.371034
-0.893623
-0.873118
-0.828733
-0.767308
-0.699503
-0.630432
-0.562524
-0.498752
-0.443744
-0.399047
-0.354413
-0.369649
-0.350554
-0.356048
-0.365677
-0.3677
-0.369685
-0.370959
-0.37142
-0.371478
-0.866954
-0.851948
-0.817078
-0.765751
-0.707063
-0.646344
-0.585981
-0.528521
-0.478905
-0.441712
-0.393197
-0.386145
-0.370572
-0.361396
-0.360585
-0.369119
-0.373714
-0.375857
-0.376721
-0.377026
-0.828378
-0.818807
-0.794331
-0.754702
-0.706576
-0.655155
-0.602726
-0.55175
-0.506896
-0.475093
-0.443445
-0.415928
-0.389987
-0.392304
-0.401405
-0.395926
-0.390193
-0.389213
-0.390166
-0.390573
-0.784939
-0.77949
-0.765425
-0.737237
-0.700136
-0.657693
-0.612899
-0.568118
-0.52708
-0.496972
-0.469678
-0.446984
-0.426129
-0.416632
-0.401547
-0.399286
-0.410178
-0.418136
-0.420625
-0.420736
-0.746548
-0.743232
-0.736556
-0.718684
-0.690621
-0.655801
-0.617528
-0.57746
-0.538736
-0.507511
-0.481562
-0.469865
-0.465861
-0.479899
-0.493443
-0.511168
-0.508709
-0.489969
-0.478326
-0.480437
-0.71889
-0.716925
-0.71352
-0.702984
-0.681725
-0.652575
-0.618427
-0.580909
-0.542114
-0.506831
-0.481326
-0.471964
-0.503663
-0.5722
-0.642586
-0.685167
-0.686515
-0.649682
-0.597039
-0.580392
-0.698575
-0.697878
-0.696726
-0.691538
-0.676003
-0.650473
-0.617684
-0.579806
-0.538203
-0.496677
-0.467418
-0.438975
-0.419349
-0.430179
-0.461437
-0.471146
-0.459446
-0.448966
-0.426723
-0.414806
-0.686714
-0.686484
-0.685871
-0.683446
-0.672929
-0.649485
-0.616379
-0.57644
-0.530603
-0.479946
-0.436039
-0.382149
-0.305921
-0.231828
-0.176282
-0.142137
-0.144211
-0.141583
-0.132378
-0.12566
-0.678517
-0.678368
-0.67796
-0.677251
-0.670822
-0.649686
-0.615554
-0.572403
-0.520732
-0.458571
-0.396074
-0.313551
-0.190027
-0.0492605
0.0559964
0.113635
0.169742
0.229778
0.27834
0.301771
-0.673169
-0.673125
-0.672997
-0.672838
-0.668997
-0.65122
-0.615915
-0.568664
-0.511366
-0.439065
-0.356573
-0.260156
-0.0865352
0.141026
0.377349
0.57654
0.728338
0.833994
0.898494
0.923558
-0.668794
-0.668835
-0.668862
-0.668887
-0.667567
-0.653382
-0.617781
-0.567114
-0.505071
-0.423879
-0.328352
-0.224473
-0.0244508
0.269981
0.605668
0.919862
1.1648
1.31037
1.36982
1.38441
-0.664817
-0.664916
-0.664947
-0.664853
-0.664603
-0.654574
-0.621243
-0.569926
-0.502829
-0.416826
-0.315816
-0.208805
-0.0207749
0.274105
0.604775
0.91791
1.17247
1.31698
1.36593
1.37483
-0.662124
-0.66208
-0.661693
-0.660834
-0.660536
-0.65405
-0.62673
-0.576058
-0.506053
-0.419011
-0.32049
-0.220424
-0.0693988
0.186001
0.46256
0.711762
0.906672
1.01318
1.05037
1.05796
-0.661951
-0.661829
-0.661356
-0.660167
-0.658322
-0.656289
-0.6361
-0.585946
-0.514659
-0.429948
-0.338637
-0.249495
-0.130406
0.0739348
0.284029
0.457274
0.587493
0.659668
0.687692
0.695316
-0.665058
-0.665528
-0.666715
-0.668906
-0.670553
-0.670823
-0.652466
-0.598692
-0.527318
-0.448736
-0.365986
-0.288786
-0.203404
-0.0484183
0.115352
0.242681
0.335257
0.388815
0.411877
0.418151
-0.668948
-0.670455
-0.675082
-0.685987
-0.701108
-0.705017
-0.674256
-0.611275
-0.543515
-0.473881
-0.396598
-0.330322
-0.266585
-0.149707
-0.022086
0.0778844
0.152055
0.197699
0.215546
0.219468
-0.675813
-0.677198
-0.681613
-0.691821
-0.708299
-0.71253
-0.677556
-0.616651
-0.56325
-0.500083
-0.427113
-0.371246
-0.325176
-0.232325
-0.129158
-0.0493453
0.0108886
0.0481586
0.0619078
0.0636797
-0.694425
-0.695334
-0.696375
-0.685671
-0.659208
-0.643214
-0.629563
-0.611351
-0.583064
-0.522101
-0.455587
-0.408481
-0.373397
-0.301057
-0.218167
-0.1549
-0.107015
-0.0781696
-0.0686152
-0.0682047
-0.718616
-0.718502
-0.715319
-0.684162
-0.612444
-0.555333
-0.579136
-0.615943
-0.601366
-0.540595
-0.480139
-0.438992
-0.40814
-0.348162
-0.283519
-0.23625
-0.200919
-0.18053
-0.173736
-0.17338
-0.748829
-0.745889
-0.744264
-0.730992
-0.696123
-0.657994
-0.6607
-0.676348
-0.635616
-0.560956
-0.501287
-0.46302
-0.431633
-0.383387
-0.333265
-0.297935
-0.27259
-0.258841
-0.254209
-0.254436
-0.83148
-0.834623
-0.864837
-0.910536
-0.932943
-0.913111
-0.870557
-0.799169
-0.691395
-0.585374
-0.522218
-0.477727
-0.445357
-0.406073
-0.367497
-0.340755
-0.322372
-0.312868
-0.309816
-0.310073
-0.971323
-0.988736
-1.03693
-1.09047
-1.11686
-1.10121
-1.0342
-0.901992
-0.734539
-0.60744
-0.535585
-0.481391
-0.452717
-0.419242
-0.384896
-0.362523
-0.348913
-0.342472
-0.340056
-0.340291
-1.05753
-1.07625
-1.11328
-1.1506
-1.17249
-1.15666
-1.08048
-0.910345
-0.729448
-0.60953
-0.524736
-0.473676
-0.449922
-0.417545
-0.386443
-0.366813
-0.355008
-0.348461
-0.34607
-0.346348
-1.01706
-1.02959
-1.05517
-1.08302
-1.10161
-1.08923
-1.01443
-0.836804
-0.68274
-0.574152
-0.488866
-0.453725
-0.432481
-0.399796
-0.371355
-0.353269
-0.341283
-0.334715
-0.33251
-0.332957
-0.847648
-0.860171
-0.883924
-0.912318
-0.933834
-0.926442
-0.851748
-0.7183
-0.603376
-0.500806
-0.443827
-0.415953
-0.396596
-0.370792
-0.345347
-0.327048
-0.314481
-0.307855
-0.30589
-0.306556
-0.584964
-0.597842
-0.623515
-0.657128
-0.68574
-0.686076
-0.635136
-0.558657
-0.481825
-0.419238
-0.387494
-0.361222
-0.351568
-0.329244
-0.305928
-0.290487
-0.279524
-0.274093
-0.272719
-0.273465
-0.28928
-0.29932
-0.32121
-0.354393
-0.387962
-0.407031
-0.400487
-0.381396
-0.35316
-0.334258
-0.312007
-0.301313
-0.297902
-0.277278
-0.259404
-0.247597
-0.239074
-0.235176
-0.234482
-0.235187
-0.0523275
-0.0585782
-0.0746605
-0.103088
-0.14299
-0.184269
-0.217674
-0.237489
-0.245634
-0.243159
-0.237449
-0.236129
-0.233133
-0.218013
-0.206766
-0.199053
-0.193316
-0.190893
-0.190586
-0.19124
0.0755387
0.0714582
0.0595549
0.0349711
-0.00298155
-0.050922
-0.10046
-0.136782
-0.157292
-0.167934
-0.171226
-0.166252
-0.164647
-0.158227
-0.152724
-0.147845
-0.143615
-0.141908
-0.1419
-0.142589
0.108386
0.105517
0.0965677
0.0774499
0.045851
0.00615674
-0.0338084
-0.0686121
-0.0935398
-0.104636
-0.107238
-0.103204
-0.1022
-0.100789
-0.0987266
-0.0962117
-0.0933065
-0.0920042
-0.0923254
-0.0930674
0.0815804
0.0797161
0.074056
0.062036
0.0425717
0.0171815
-0.00896704
-0.0302715
-0.0432283
-0.0504824
-0.0541638
-0.0504527
-0.0503182
-0.0507396
-0.0509278
-0.0494431
-0.0467641
-0.0455789
-0.0462778
-0.0471728
0.0217474
0.0215799
0.0214113
0.0191994
0.0146121
0.00848634
0.00247768
-0.00316908
-0.00775027
-0.00995937
-0.0106966
-0.0101667
-0.00773765
-0.00857858
-0.00952444
-0.0105162
-0.0118626
-0.0127098
-0.011398
-0.0108098
-0.0203642
0.165742
0.336159
0.479885
0.593964
0.682995
0.756382
0.815858
0.830439
0.827287
0.263296
0.382303
0.493579
0.589582
0.669872
0.735748
0.787484
0.822442
0.84121
0.858036
0.455057
0.534115
0.612167
0.680476
0.738498
0.786515
0.824363
0.853357
0.875248
0.894517
0.596936
0.653104
0.709594
0.760216
0.803867
0.841018
0.872258
0.898528
0.918538
0.937441
0.711542
0.753836
0.795796
0.835089
0.870226
0.901335
0.928583
0.951725
0.969529
0.987606
0.80707
0.842157
0.876713
0.909851
0.940428
0.968156
0.992683
1.01332
1.02896
1.04645
0.894382
0.925978
0.957826
0.988654
1.01734
1.04345
1.06636
1.08515
1.09897
1.11598
0.980659
1.01301
1.04519
1.07618
1.10478
1.13041
1.1524
1.16983
1.18213
1.19864
1.07466
1.11101
1.14564
1.17797
1.20702
1.23226
1.25328
1.26949
1.28105
1.29717
1.18757
1.22827
1.26517
1.29795
1.32632
1.35023
1.36978
1.38501
1.39686
1.41292
1.32901
1.36993
1.40511
1.43459
1.45972
1.48128
1.49974
1.5152
1.52829
1.54423
1.50037
1.53244
1.55938
1.58171
1.60178
1.62047
1.63819
1.65495
1.66984
1.68556
1.6865
1.70371
1.7208
1.73748
1.75357
1.7683
1.78219
1.79666
1.81189
1.82919
1.86988
1.8798
1.89298
1.90396
1.91336
1.92302
1.93362
1.94379
1.95307
1.97874
2.0877
2.082
2.06905
2.05479
2.04849
2.05419
2.07233
2.10085
2.13462
2.17094
2.39052
2.25458
2.17506
2.13252
2.11519
2.11917
2.1466
2.20446
2.31212
2.49053
0.752253
0.745951
0.738223
0.727112
0.713546
0.700904
0.690519
0.682524
0.676831
0.673536
0.673231
0.67611
0.68138
0.688765
0.698335
0.710179
0.723751
0.736688
0.745682
0.753226
0.661309
0.667229
0.675305
0.681442
0.684516
0.684013
0.68094
0.676963
0.673402
0.671155
0.671072
0.673375
0.67717
0.681647
0.685771
0.688033
0.686971
0.682344
0.675294
0.667463
0.654538
0.656911
0.660182
0.662961
0.665419
0.667619
0.668813
0.668687
0.667781
0.667017
0.667289
0.668761
0.67059
0.671855
0.671806
0.67036
0.668216
0.665865
0.662891
0.659876
0.64972
0.650809
0.65273
0.655075
0.656956
0.658368
0.659604
0.660621
0.661257
0.661686
0.662307
0.663118
0.66364
0.663564
0.662968
0.662071
0.660758
0.658802
0.656704
0.65523
0.644658
0.645292
0.646425
0.648192
0.650047
0.651657
0.652929
0.654023
0.655048
0.656006
0.656872
0.657473
0.657677
0.657521
0.657024
0.656081
0.654676
0.653084
0.651757
0.650958
0.639685
0.640124
0.640917
0.642231
0.643768
0.645351
0.646855
0.648187
0.649393
0.650552
0.6516
0.652299
0.652558
0.652386
0.651771
0.650809
0.649685
0.648562
0.647672
0.647141
0.634789
0.635116
0.635733
0.636815
0.638129
0.639553
0.641063
0.64258
0.644032
0.645421
0.646682
0.647545
0.64787
0.647703
0.647167
0.646431
0.645622
0.644794
0.644148
0.643759
0.629943
0.630196
0.630695
0.631621
0.632816
0.634153
0.635613
0.637193
0.638844
0.640508
0.642042
0.643104
0.643567
0.643565
0.643259
0.642773
0.642186
0.641593
0.641129
0.640833
0.625073
0.625274
0.625691
0.626509
0.62763
0.628927
0.630381
0.632016
0.633824
0.635755
0.637612
0.638968
0.639696
0.639962
0.639916
0.639672
0.639304
0.638911
0.638591
0.638358
0.620092
0.620253
0.620612
0.62136
0.62244
0.623726
0.62522
0.626953
0.628938
0.631153
0.633393
0.635151
0.636241
0.636829
0.637064
0.637071
0.636932
0.636724
0.636522
0.636337
0.614907
0.615037
0.615355
0.616061
0.617131
0.61845
0.620025
0.621903
0.624122
0.626687
0.629396
0.631649
0.633174
0.634134
0.634689
0.634969
0.63506
0.635035
0.634936
0.634786
0.609425
0.609529
0.609819
0.61051
0.611605
0.613002
0.614704
0.616784
0.61931
0.622317
0.6256
0.628448
0.630485
0.631879
0.632798
0.633377
0.633723
0.633879
0.633869
0.633747
0.603542
0.603624
0.603899
0.604599
0.605755
0.607273
0.609157
0.611509
0.614428
0.617986
0.621972
0.625535
0.628181
0.63008
0.631418
0.632355
0.632972
0.633306
0.633378
0.633276
0.597142
0.597204
0.597474
0.598205
0.599459
0.601145
0.603278
0.605984
0.609399
0.613636
0.618476
0.6229
0.626273
0.62877
0.630591
0.631925
0.632852
0.633383
0.633534
0.633448
0.590085
0.590128
0.5904
0.591186
0.592577
0.594488
0.596944
0.600101
0.604136
0.609207
0.615083
0.620539
0.624776
0.627981
0.630374
0.632165
0.633449
0.634193
0.634422
0.634348
0.582216
0.582234
0.582509
0.583373
0.584944
0.587144
0.590012
0.593735
0.598539
0.604632
0.61176
0.618453
0.623713
0.627751
0.630825
0.633167
0.634856
0.635829
0.636135
0.636069
0.573268
0.57328
0.573582
0.574548
0.576352
0.57892
0.582305
0.586737
0.592493
0.599837
0.608476
0.616641
0.623115
0.628134
0.632009
0.635008
0.637163
0.638388
0.638771
0.638708
0.56298
0.562965
0.563309
0.564428
0.566535
0.569571
0.573611
0.57893
0.585868
0.594742
0.605202
0.615112
0.623013
0.629189
0.634008
0.637766
0.640463
0.641961
0.642416
0.642352
0.550999
0.550964
0.551358
0.552664
0.55515
0.558788
0.563663
0.570103
0.578514
0.589263
0.601912
0.61388
0.623443
0.630968
0.636894
0.641528
0.644836
0.646619
0.647139
0.647068
0.536819
0.536761
0.537236
0.538795
0.541768
0.546183
0.552134
0.560006
0.570268
0.583323
0.59859
0.612968
0.624445
0.633513
0.640725
0.646356
0.650332
0.652398
0.652968
0.652882
0.519733
0.519653
0.520257
0.522172
0.525798
0.53125
0.538621
0.548354
0.560969
0.576865
0.595246
0.612406
0.626057
0.636873
0.645514
0.652267
0.656954
0.659275
0.659865
0.659758
0.498744
0.498648
0.499458
0.50189
0.506437
0.513325
0.522632
0.534844
0.550484
0.569878
0.591926
0.612241
0.62832
0.641068
0.651273
0.659246
0.66463
0.667138
0.66771
0.667572
0.472319
0.472224
0.473383
0.476623
0.482569
0.491555
0.503616
0.519208
0.53876
0.562431
0.588729
0.612554
0.631265
0.646094
0.657984
0.667207
0.67319
0.675768
0.67627
0.676098
0.437987
0.437945
0.439734
0.444362
0.452666
0.464965
0.481088
0.501336
0.525904
0.554705
0.585815
0.613451
0.634938
0.65194
0.665558
0.675975
0.682349
0.684828
0.685205
0.685
0.391352
0.391535
0.394717
0.402277
0.414979
0.432733
0.454905
0.481451
0.512258
0.547016
0.583409
0.615059
0.639394
0.658567
0.673881
0.685293
0.691703
0.693868
0.694082
0.693854
0.324189
0.325635
0.33339
0.34772
0.368544
0.394996
0.425706
0.460258
0.498411
0.539781
0.581755
0.617484
0.644644
0.665896
0.682674
0.694674
0.70069
0.70234
0.702389
0.702167
0.244012
0.246837
0.261941
0.286701
0.31866
0.355377
0.395305
0.438268
0.484145
0.532637
0.580873
0.621425
0.652093
0.675954
0.694298
0.706433
0.711773
0.712981
0.712971
0.712838
0.1619
0.169263
0.191964
0.227137
0.269854
0.316607
0.365742
0.417147
0.470765
0.526347
0.580788
0.626064
0.660095
0.686478
0.706273
0.718052
0.722238
0.722878
0.722816
0.722737
0.094728
0.104147
0.131671
0.174208
0.225347
0.280582
0.337997
0.397291
0.458258
0.520542
0.58074
0.630256
0.667177
0.695526
0.716052
0.727257
0.730753
0.731224
0.731171
0.731117
0.0396509
0.0498153
0.0810117
0.129001
0.186481
0.248473
0.312818
0.379013
0.446622
0.51508
0.580582
0.633953
0.673415
0.703344
0.724367
0.73513
0.738191
0.738569
0.738532
0.738492
-0.00645939
0.00404209
0.0377493
0.0899789
0.152635
0.220223
0.290403
0.362561
0.436073
0.510158
0.580554
0.637464
0.679188
0.710464
0.731818
0.742163
0.744951
0.745302
0.74529
0.745265
-0.0460658
-0.0354244
0.000149375
0.0557683
0.122742
0.19513
0.270398
0.347829
0.426665
0.505925
0.580898
0.641098
0.684879
0.71728
0.738785
0.748759
0.751381
0.751747
0.751779
0.751776
-0.0808839
-0.0702044
-0.0331767
0.0252471
0.095897
0.172461
0.252252
0.334463
0.418222
0.502339
0.581679
0.645018
0.690716
0.724096
0.745674
0.75536
0.757848
0.758242
0.758349
0.758385
-0.112192
-0.101505
-0.0633205
-0.00248352
0.0713679
0.151613
0.235462
0.322064
0.410434
0.49922
0.582808
0.649258
0.69683
0.731183
0.752889
0.762343
0.764769
0.765209
0.765381
0.76546
-0.141013
-0.130298
-0.0910964
-0.0281183
0.0485868
0.132106
0.219619
0.310275
0.403006
0.496323
0.584146
0.65375
0.703285
0.738693
0.760647
0.770016
0.772405
0.772866
0.773064
0.773178
-0.167933
-0.157175
-0.117058
-0.0521555
0.0270915
0.113553
0.204403
0.298813
0.395681
0.493421
0.585542
0.658426
0.710054
0.746653
0.768995
0.778381
0.780727
0.781146
0.781344
0.781479
-0.193439
-0.182617
-0.141639
-0.0749897
0.006541
0.0956619
0.189564
0.287452
0.38825
0.490333
0.586834
0.663178
0.717028
0.754909
0.777731
0.787186
0.789501
0.789844
0.790004
0.790131
-0.217912
-0.206938
-0.165153
-0.0968939
-0.0133016
0.0782179
0.174914
0.276033
0.380545
0.486889
0.587869
0.667882
0.7241
0.763304
0.786617
0.796119
0.798369
0.798621
0.798716
0.798819
-0.241489
-0.230336
-0.187779
-0.118056
-0.0326039
0.0610893
0.160328
0.264431
0.372442
0.482921
0.588484
0.672425
0.731188
0.771709
0.795442
0.804878
0.807011
0.807156
0.807175
0.807249
-0.264362
-0.252977
-0.209679
-0.138584
-0.051462
0.0441837
0.145727
0.252566
0.363848
0.478316
0.588522
0.676686
0.738258
0.78009
0.803989
0.813209
0.815148
0.815184
0.815136
0.815182
-0.286532
-0.274934
-0.23092
-0.158542
-0.0699241
0.0274624
0.131081
0.240404
0.354711
0.472972
0.587836
0.680536
0.74529
0.78853
0.812353
0.821023
0.822633
0.822558
0.822463
0.822485
-0.30809
-0.296252
-0.251501
-0.177951
-0.0880146
0.0109135
0.116383
0.227946
0.345011
0.466826
0.586291
0.68383
0.752273
0.797211
0.820738
0.828421
0.829431
0.82921
0.829112
0.829126
-0.328924
-0.316905
-0.271433
-0.196831
-0.105726
-0.00542975
0.101657
0.215211
0.334761
0.459857
0.583771
0.686408
0.759138
0.806334
0.829614
0.8358
0.835659
0.835131
0.835129
0.835225
-0.349162
-0.336894
-0.29072
-0.215188
-0.123055
-0.0215586
0.0869602
0.202241
0.323996
0.452078
0.58019
0.688085
0.765735
0.816022
0.839579
0.844054
0.841974
0.840526
0.840708
0.841224
-0.368673
-0.356172
-0.309371
-0.232995
-0.139943
-0.0374118
0.0723496
0.189124
0.312783
0.443501
0.575498
0.688665
0.771827
0.826166
0.851073
0.854462
0.850054
0.846624
0.846494
0.84788
-0.38757
-0.374804
-0.327348
-0.250212
-0.156371
-0.0529403
0.0578934
0.175917
0.301198
0.434217
0.569686
0.687933
0.777096
0.836381
0.863933
0.867866
0.862138
0.855927
0.851403
0.844872
-0.40575
-0.392789
-0.344741
-0.267009
-0.172562
-0.0684169
0.0432725
0.162244
0.288836
0.423789
0.562341
0.685477
0.781372
0.846739
0.878112
0.884539
0.87933
0.869846
0.857275
0.857046
-0.423181
-0.41021
-0.361564
-0.283337
-0.188512
-0.0838133
0.0285055
0.148071
0.275642
0.412055
0.553209
0.680668
0.783703
0.856374
0.891789
0.901064
0.896321
0.885957
0.850184
0.812391
-0.439679
-0.426926
-0.377783
-0.29908
-0.204229
-0.0991439