/*--------------------------------*- C++ -*----------------------------------*\
  =========                 |
  \\      /  F ield         | OpenFOAM: The Open Source CFD Toolbox
   \\    /   O peration     | Website:  https://openfoam.org
    \\  /    A nd           | Version:  6
     \\/     M anipulation  |
\*---------------------------------------------------------------------------*/
FoamFile
{
    version     2.0;
    format      ascii;
    class       volScalarField;
    location    "67";
    object      p;
}
// * * * * * * * * * * * * * * * * * * * * * * * * * * * * * * * * * * * * * //

dimensions      [0 2 -2 0 0 0 0];

internalField   nonuniform List<scalar> 
8800
(
0.814364
0.765053
0.727089
0.699015
0.678846
0.664249
0.653638
0.646082
0.641176
0.639079
0.640421
0.64474
0.651517
0.660928
0.673659
0.690978
0.714853
0.74795
0.790878
0.843409
0.648837
0.655183
0.664333
0.667876
0.665264
0.659172
0.652227
0.645976
0.641158
0.638265
0.638004
0.640605
0.645224
0.651335
0.65842
0.665443
0.670314
0.670188
0.663513
0.654615
0.622392
0.628628
0.633126
0.636992
0.639929
0.640865
0.639762
0.637622
0.635619
0.634751
0.635752
0.63818
0.641048
0.643307
0.643823
0.642034
0.638667
0.63465
0.629868
0.62615
0.618099
0.620863
0.623467
0.625622
0.627353
0.628911
0.629998
0.63033
0.63019
0.630257
0.631028
0.632145
0.632868
0.632706
0.631723
0.630362
0.628687
0.626379
0.623967
0.6224
0.613058
0.614482
0.616318
0.618392
0.620097
0.621379
0.622462
0.623421
0.624202
0.624903
0.625577
0.626008
0.626011
0.625632
0.624953
0.623829
0.622168
0.620271
0.618916
0.618114
0.608088
0.60899
0.610232
0.611852
0.613535
0.615055
0.616322
0.617421
0.618454
0.619432
0.620176
0.620533
0.620518
0.620132
0.619318
0.618121
0.616754
0.615485
0.614662
0.614138
0.603205
0.60386
0.604817
0.606126
0.607562
0.609064
0.610529
0.611867
0.613094
0.614253
0.615157
0.615614
0.615604
0.615148
0.614353
0.613402
0.612403
0.611494
0.610913
0.610529
0.598407
0.598911
0.599692
0.600823
0.602111
0.603511
0.604998
0.606509
0.60798
0.609384
0.610485
0.611051
0.611098
0.610754
0.610175
0.609475
0.60873
0.608062
0.607634
0.607335
0.59364
0.594041
0.594695
0.595706
0.596922
0.598268
0.599748
0.601355
0.60304
0.604725
0.606078
0.606835
0.607073
0.606957
0.606618
0.60614
0.6056
0.605126
0.60481
0.604567
0.588823
0.58915
0.589717
0.59065
0.591819
0.593154
0.59467
0.596377
0.598259
0.600244
0.601927
0.602988
0.603513
0.603663
0.603563
0.603311
0.602969
0.602657
0.602425
0.602222
0.583869
0.584141
0.584649
0.585535
0.586689
0.588052
0.589646
0.591498
0.593614
0.595947
0.598046
0.599501
0.600372
0.600822
0.600982
0.600961
0.600816
0.600648
0.600484
0.600308
0.57869
0.578919
0.579388
0.580259
0.581438
0.582872
0.584587
0.586639
0.589059
0.591824
0.59443
0.596357
0.597632
0.598426
0.598877
0.599096
0.599154
0.599117
0.599008
0.598852
0.573191
0.573386
0.573837
0.574722
0.575967
0.577516
0.579408
0.581727
0.584537
0.587841
0.591063
0.593551
0.595298
0.596487
0.597266
0.597744
0.598017
0.598105
0.598044
0.5979
0.567271
0.567439
0.567889
0.568817
0.570166
0.571883
0.574019
0.57669
0.57999
0.583959
0.587927
0.591087
0.59339
0.595034
0.596188
0.596976
0.597465
0.597674
0.597653
0.597517
0.560807
0.560954
0.561417
0.562417
0.563917
0.565861
0.56832
0.571439
0.575354
0.580138
0.585009
0.588972
0.591937
0.594115
0.595699
0.596829
0.597562
0.597897
0.597912
0.597781
0.55366
0.553783
0.554275
0.555379
0.557081
0.559324
0.562196
0.565882
0.570558
0.576339
0.582301
0.587222
0.590968
0.593777
0.595866
0.597386
0.598397
0.598862
0.598912
0.59878
0.545638
0.545747
0.546284
0.547522
0.549487
0.552112
0.555507
0.559901
0.565519
0.572516
0.579791
0.585856
0.590524
0.594076
0.59677
0.598752
0.60007
0.600671
0.600752
0.600617
0.536512
0.536616
0.537204
0.538618
0.540925
0.544036
0.548091
0.55337
0.560151
0.568629
0.57748
0.584904
0.590662
0.595087
0.598495
0.601012
0.60268
0.603427
0.603536
0.603394
0.525966
0.526055
0.526734
0.528384
0.531125
0.534856
0.539747
0.546138
0.554362
0.564647
0.575382
0.584403
0.591441
0.596893
0.60112
0.604272
0.606332
0.607229
0.607363
0.607209
0.513621
0.513696
0.514478
0.51644
0.519743
0.524272
0.530234
0.538035
0.548057
0.560542
0.573519
0.584406
0.592923
0.59957
0.604751
0.60863
0.611115
0.612162
0.612313
0.612144
0.498913
0.498982
0.499909
0.502285
0.506325
0.511904
0.51926
0.528866
0.541137
0.556299
0.571925
0.584966
0.595172
0.603185
0.609467
0.614155
0.617092
0.618276
0.618434
0.618248
0.481061
0.481123
0.482265
0.485227
0.490277
0.497273
0.506482
0.518432
0.533532
0.551935
0.570653
0.586148
0.598258
0.607805
0.615298
0.620885
0.624273
0.625568
0.625717
0.625511
0.458899
0.458965
0.460452
0.464292
0.470793
0.479781
0.49153
0.50658
0.525251
0.547544
0.569806
0.588031
0.602235
0.613467
0.622276
0.628801
0.632595
0.63395
0.634072
0.633846
0.43063
0.430726
0.432812
0.438071
0.44682
0.458745
0.474085
0.493268
0.516413
0.543297
0.569531
0.590714
0.607149
0.620167
0.630376
0.6378
0.641897
0.643235
0.643306
0.643062
0.393186
0.393408
0.396716
0.40459
0.417129
0.433577
0.454047
0.478672
0.50729
0.539446
0.57001
0.594303
0.613048
0.627881
0.639494
0.647682
0.651896
0.653116
0.653115
0.652858
0.340689
0.341788
0.348362
0.361647
0.380807
0.404249
0.431813
0.463296
0.498327
0.536316
0.57145
0.598912
0.619951
0.636527
0.649419
0.658126
0.66219
0.663189
0.663108
0.662844
0.26464
0.272102
0.287179
0.310394
0.339439
0.372243
0.408439
0.447774
0.489892
0.534205
0.57423
0.605061
0.628566
0.647011
0.661026
0.669965
0.673718
0.674479
0.674343
0.674111
0.183791
0.200078
0.224561
0.258458
0.297909
0.340238
0.385111
0.432457
0.482021
0.533279
0.579012
0.613928
0.640381
0.660928
0.676075
0.684816
0.687942
0.688431
0.68832
0.688173
0.114522
0.134425
0.166765
0.209866
0.258586
0.309882
0.363206
0.418431
0.475277
0.53321
0.584305
0.622981
0.652057
0.674362
0.690049
0.698283
0.700855
0.701243
0.701193
0.701094
0.0578433
0.0799759
0.117718
0.167418
0.2234
0.282221
0.343025
0.405499
0.4692
0.533489
0.589652
0.631828
0.663282
0.687017
0.703242
0.71134
0.713734
0.714087
0.714074
0.714003
0.0108929
0.0343496
0.0760058
0.130863
0.192659
0.257688
0.324891
0.393806
0.46379
0.534031
0.595041
0.640573
0.674328
0.699587
0.716486
0.724638
0.727013
0.727364
0.727381
0.727333
-0.0289569
-0.00471066
0.039834
0.0988901
0.165591
0.235929
0.308684
0.383307
0.459006
0.53482
0.600487
0.649321
0.68535
0.712127
0.729826
0.738359
0.74083
0.74118
0.741206
0.741173
-0.0637457
-0.0389734
0.00783377
0.0703723
0.141272
0.216243
0.293933
0.373733
0.454743
0.53582
0.605933
0.657977
0.696251
0.724568
0.743219
0.752189
0.754823
0.755194
0.755221
0.755204
-0.0949762
-0.0697725
-0.021102
0.0444033
0.118945
0.198001
0.280153
0.364721
0.450692
0.536771
0.611179
0.66633
0.706823
0.73664
0.756188
0.765657
0.768522
0.768927
0.768954
0.768942
-0.12367
-0.0980695
-0.0478059
0.0202834
0.0980333
0.180721
0.266907
0.355863
0.446507
0.537427
0.616021
0.674207
0.716811
0.748097
0.768511
0.778434
0.781524
0.782004
0.782009
0.781998
-0.150638
-0.124609
-0.0729161
-0.00250049
0.078086
0.164016
0.253859
0.346891
0.441972
0.537574
0.620301
0.681466
0.726126
0.758763
0.779962
0.790317
0.793575
0.794091
0.794069
0.794048
-0.176279
-0.149832
-0.0968227
-0.0243403
0.0587756
0.147621
0.240802
0.337608
0.436889
0.537033
0.623892
0.688041
0.734708
0.76862
0.79048
0.801077
0.804459
0.804986
0.804936
0.804897
-0.201034
-0.174089
-0.119862
-0.0455063
0.0398805
0.131352
0.227575
0.327863
0.431107
0.535702
0.626715
0.693914
0.742566
0.777625
0.799977
0.810732
0.814132
0.814644
0.814561
0.814504
-0.225041
-0.197593
-0.142213
-0.0661662
0.0212531
0.115089
0.214072
0.317574
0.424555
0.533488
0.628715
0.699083
0.749776
0.785908
0.808593
0.819333
0.82267
0.82315
0.823039
0.822964
-0.248433
-0.220446
-0.164
-0.0864164
0.00282162
0.0987762
0.200256
0.306702
0.417178
0.530307
0.629828
0.703569
0.756434
0.793608
0.816454
0.827005
0.830202
0.830615
0.830483
0.830392
-0.27131
-0.242776
-0.185275
-0.106297
-0.0154494
0.0824018
0.186127
0.295244
0.408952
0.526111
0.629989
0.70737
0.762661
0.800908
0.823753
0.833912
0.836843
0.837159
0.836997
0.836894
-0.293732
-0.264572
-0.206052
-0.125814
-0.0335382
0.0659833
0.171711
0.283224
0.39989
0.52086
0.629127
0.71045
0.768554
0.808041
0.830717
0.840214
0.842698
0.84286
0.842674
0.842566
-0.315559
-0.285806
-0.226314
-0.144957
-0.0514202
0.0495744
0.157055
0.270704
0.390034
0.514555
0.627164
0.712734
0.774146
0.815249
0.837704
0.846172
0.847902
0.847816
0.847614
0.847515
-0.33677
-0.306447
-0.246056
-0.163691
-0.0690479
0.0332276
0.142244
0.25775
0.379448
0.507202
0.624033
0.714101
0.779379
0.822724
0.845224
0.852355
0.852787
0.852151
0.851924
0.851888
-0.357418
-0.326469
-0.265255
-0.18199
-0.0863655
0.0170208
0.12736
0.244454
0.368211
0.498847
0.619664
0.714415
0.784084
0.830459
0.853784
0.859757
0.858247
0.856264
0.855752
0.856011
-0.377357
-0.345846
-0.283857
-0.199792
-0.103319
0.00103483
0.112493
0.23092
0.356431
0.48957
0.614009
0.713504
0.788001
0.83814
0.863504
0.869546
0.866334
0.861847
0.859239
0.858194
-0.396675
-0.364587
-0.301871
-0.217131
-0.119945
-0.0147698
0.0975929
0.217092
0.344036
0.479308
0.606914
0.711112
0.790883
0.845279
0.873858
0.882113
0.879275
0.872062
0.862602
0.86311
-0.415293
-0.382753
-0.319433
-0.234203
-0.136533
-0.0307208
0.082248
0.20249
0.330488
0.467443
0.597733
0.706494
0.792312
0.851317
0.883385
0.895511
0.893763
0.882403
0.863781
0.861974
-0.433079
-0.400301
-0.336382
-0.250824
-0.152817
-0.0465188
0.0666629
0.187431
0.316074
0.454203
0.586492
0.698938
0.791409
0.855043
0.888021
0.900649
0.900656
0.875034
0.81734
0.792323
-0.449903
-0.418083
-0.352316
-0.266551
-0.168017
-0.0616839
0.0511211
0.172192
0.301074
0.439757
0.573245
0.687825
0.787072
0.855471
0.882865
0.890313
0.876183
0.824321
0.76216
0.724565
-0.492689
-0.435739
-0.366918
-0.282224
-0.182871
-0.0771687
0.0357658
0.156651
0.285281
0.423746
0.557581
0.672488
0.775388
0.849226
0.86545
0.851345
0.802823
0.737287
0.66797
0.629849
-0.467892
-0.44962
-0.389102
-0.303599
-0.205897
-0.100431
0.0118045
0.13202
0.259721
0.396791
0.529305
0.642342
0.736981
0.818104
0.800664
0.690893
0.599388
0.535634
0.471525
0.499304
-0.498683
-0.467189
-0.405897
-0.321038
-0.223503
-0.118162
-0.00577606
0.113766
0.240433
0.375733
0.505692
0.615289
0.699094
0.744652
0.69213
0.551414
0.441466
0.367251
0.284871
0.331139
-0.522594
-0.488708
-0.425655
-0.34074
-0.243252
-0.137933
-0.0256833
0.0930458
0.218331
0.351219
0.477365
0.580998
0.653192
0.66078
0.553213
0.39713
0.267291
0.174158
0.0787946
0.111538
-0.545862
-0.510911
-0.446451
-0.360844
-0.263317
-0.158144
-0.0464253
0.071317
0.194975
0.325021
0.446293
0.541696
0.596919
0.571576
0.412409
0.23476
0.0744623
-0.0601634
-0.185344
-0.171342
-0.568865
-0.533508
-0.46812
-0.381903
-0.284253
-0.179315
-0.0682731
0.0483231
0.170049
0.296813
0.412333
0.49954
0.53392
0.463097
0.273842
0.0762709
-0.110955
-0.265019
-0.470867
-0.550656
-0.59229
-0.556971
-0.491032
-0.404383
-0.306574
-0.201823
-0.0914004
0.0240032
0.143654
0.266838
0.376118
0.45398
0.462664
0.340222
0.147444
-0.0621961
-0.254553
-0.416304
-0.540381
-0.659174
-0.617205
-0.581781
-0.515529
-0.428645
-0.330811
-0.226351
-0.116653
-0.0026334
0.114575
0.233586
0.336181
0.401251
0.382508
0.223582
0.029202
-0.174616
-0.350406
-0.447841
-0.474075
-0.487599
-0.643744
-0.608222
-0.541742
-0.45478
-0.35711
-0.253124
-0.144407
-0.032102
0.0821916
0.196253
0.291697
0.339139
0.300994
0.111489
-0.0809947
-0.26481
-0.397591
-0.435493
-0.44441
-0.444745
-0.672179
-0.636424
-0.569712
-0.482778
-0.385421
-0.282149
-0.174689
-0.0644626
0.0464271
0.154799
0.242044
0.27319
0.203481
0.00895006
-0.17739
-0.33722
-0.411979
-0.425933
-0.426957
-0.426825
-0.702522
-0.666417
-0.599456
-0.512637
-0.415763
-0.313421
-0.207512
-0.0997389
0.00728311
0.109326
0.187048
0.203546
0.0953618
-0.0840539
-0.260219
-0.387243
-0.416431
-0.416903
-0.417323
-0.416871
-0.734513
-0.698029
-0.630869
-0.544273
-0.448048
-0.346887
-0.242852
-0.137912
-0.0351967
0.0599691
0.127938
0.125446
-0.000717068
-0.169658
-0.325284
-0.397964
-0.413277
-0.411562
-0.411361
-0.410948
-0.767584
-0.730906
-0.663682
-0.577449
-0.482082
-0.382383
-0.280557
-0.178859
-0.0807949
0.00710605
0.0651164
0.0463361
-0.0896135
-0.244838
-0.367757
-0.405555
-0.406004
-0.407277
-0.407442
-0.407203
-0.801286
-0.764506
-0.697396
-0.611735
-0.517501
-0.419575
-0.320334
-0.222297
-0.129221
-0.0483735
-0.00273537
-0.0287199
-0.170919
-0.304792
-0.392347
-0.401347
-0.403959
-0.404993
-0.404995
-0.404928
-0.834643
-0.797926
-0.731257
-0.646473
-0.553732
-0.457967
-0.361701
-0.26773
-0.180052
-0.105618
-0.0708743
-0.104063
-0.24149
-0.352334
-0.400713
-0.410828
-0.405857
-0.403658
-0.402931
-0.402822
-0.865773
-0.829861
-0.76421
-0.680747
-0.589969
-0.496827
-0.403965
-0.314407
-0.232498
-0.164211
-0.134301
-0.18276
-0.300289
-0.395866
-0.418347
-0.414894
-0.40772
-0.402186
-0.400517
-0.400027
-0.893595
-0.858767
-0.794816
-0.713324
-0.625118
-0.535182
-0.446218
-0.361396
-0.285268
-0.223714
-0.196112
-0.251647
-0.345517
-0.42172
-0.446981
-0.429644
-0.414322
-0.40718
-0.404594
-0.403376
-0.915357
-0.882487
-0.821275
-0.742642
-0.657818
-0.571812
-0.487308
-0.40761
-0.337029
-0.282198
-0.257441
-0.305444
-0.375195
-0.419912
-0.426346
-0.434322
-0.438204
-0.435208
-0.431016
-0.429012
-0.928895
-0.89883
-0.841462
-0.766903
-0.686497
-0.605278
-0.525896
-0.45169
-0.38677
-0.336608
-0.313409
-0.350196
-0.396653
-0.419254
-0.422431
-0.439826
-0.449429
-0.449098
-0.446875
-0.446702
-0.931477
-0.905354
-0.853209
-0.784206
-0.709483
-0.63404
-0.560549
-0.491989
-0.433331
-0.385884
-0.360352
-0.389429
-0.425281
-0.444304
-0.442355
-0.439003
-0.435471
-0.434252
-0.434671
-0.434923
-0.920798
-0.899534
-0.854353
-0.792748
-0.72526
-0.656709
-0.589803
-0.52709
-0.474378
-0.431649
-0.393224
-0.424912
-0.441593
-0.496886
-0.473364
-0.442682
-0.428942
-0.425865
-0.424726
-0.423868
-0.894212
-0.878563
-0.842924
-0.79127
-0.732712
-0.672378
-0.612441
-0.556122
-0.507445
-0.472546
-0.425944
-0.416697
-0.398333
-0.427015
-0.432865
-0.41666
-0.410411
-0.412752
-0.414134
-0.414067
-0.855176
-0.845157
-0.819982
-0.780026
-0.731851
-0.680676
-0.62835
-0.577918
-0.533223
-0.502587
-0.468183
-0.409952
-0.29855
-0.238715
-0.277237
-0.349986
-0.4007
-0.422445
-0.430193
-0.432096
-0.810852
-0.805155
-0.790579
-0.762074
-0.724896
-0.68236
-0.637816
-0.592469
-0.551695
-0.519114
-0.492287
-0.448596
-0.377647
-0.237622
-0.278848
-0.411209
-0.508477
-0.543191
-0.551619
-0.555492
-0.771561
-0.768119
-0.761222
-0.743036
-0.714802
-0.679881
-0.641122
-0.600958
-0.561123
-0.53012
-0.506402
-0.54875
-0.722405
-1.00689
-1.14103
-1.18833
-1.11394
-0.958167
-0.868269
-0.859393
-0.743659
-0.74163
-0.738129
-0.727265
-0.705595
-0.675934
-0.641295
-0.602725
-0.563224
-0.529148
-0.507484
-0.596584
-0.851532
-1.16967
-1.40605
-1.38046
-1.25823
-1.11104
-0.985416
-0.930515
-0.723471
-0.722786
-0.721648
-0.716178
-0.6999
-0.673437
-0.639645
-0.600278
-0.557944
-0.51231
-0.486008
-0.462308
-0.458566
-0.421204
-0.393505
-0.302688
-0.220396
-0.163302
-0.12116
-0.0962199
-0.711696
-0.711464
-0.710851
-0.708172
-0.696815
-0.672342
-0.637408
-0.596483
-0.545942
-0.492019
-0.445325
-0.370148
-0.212021
0.058775
0.324492
0.537099
0.653815
0.690122
0.711288
0.718622
-0.703672
-0.703487
-0.702967
-0.701978
-0.695015
-0.672734
-0.636644
-0.589571
-0.53454
-0.46918
-0.386983
-0.297714
-0.0491741
0.311474
0.668836
0.985604
1.15522
1.21997
1.23513
1.23451
-0.699267
-0.699063
-0.698548
-0.698186
-0.694639
-0.676199
-0.637461
-0.584059
-0.523855
-0.441465
-0.350691
-0.234695
0.00681534
0.370173
0.732111
1.04567
1.21213
1.26509
1.26786
1.26295
-0.697298
-0.697558
-0.69822
-0.698978
-0.69859
-0.682645
-0.63978
-0.582134
-0.512741
-0.42723
-0.327675
-0.213278
0.0108957
0.291169
0.546868
0.757037
0.877973
0.941914
0.982951
1.00048
-0.692528
-0.694093
-0.697997
-0.704028
-0.706912
-0.687826
-0.641802
-0.584362
-0.512729
-0.42213
-0.31909
-0.222952
-0.0412802
0.205125
0.429413
0.612312
0.730478
0.813556
0.871356
0.894034
-0.690255
-0.691946
-0.693429
-0.69195
-0.690258
-0.674077
-0.639949
-0.595097
-0.523906
-0.423627
-0.320385
-0.233265
-0.0658661
0.142038
0.360108
0.552234
0.70252
0.805883
0.857394
0.872729
-0.715724
-0.715607
-0.705467
-0.672849
-0.636075
-0.636287
-0.643404
-0.616172
-0.538881
-0.431622
-0.333462
-0.251411
-0.137954
0.0773615
0.281578
0.460758
0.602854
0.694914
0.733784
0.743728
-0.76564
-0.762753
-0.751449
-0.720547
-0.689333
-0.686011
-0.702521
-0.655624
-0.555787
-0.44352
-0.347963
-0.263867
-0.176309
-0.018884
0.167782
0.321411
0.441613
0.51403
0.542909
0.548685
-0.862424
-0.867337
-0.895485
-0.93173
-0.937823
-0.910813
-0.853283
-0.72511
-0.577529
-0.460174
-0.356556
-0.279789
-0.208251
-0.0883771
0.0678456
0.184988
0.278444
0.330009
0.349703
0.352086
-1.00591
-1.02659
-1.0778
-1.12442
-1.13628
-1.09843
-0.982381
-0.780745
-0.602129
-0.471571
-0.364362
-0.290951
-0.249319
-0.154677
-0.0332059
0.0585167
0.130631
0.167399
0.181758
0.182605
-1.06372
-1.08533
-1.12183
-1.15378
-1.16195
-1.12353
-0.982256
-0.762237
-0.597821
-0.464639
-0.362046
-0.295848
-0.275911
-0.206943
-0.116105
-0.0447743
0.00615109
0.0318505
0.0408651
0.0404814
-0.949441
-0.968004
-1.00038
-1.03239
-1.04382
-0.99974
-0.848067
-0.677927
-0.541233
-0.425005
-0.350745
-0.300108
-0.273257
-0.231578
-0.177395
-0.132702
-0.100578
-0.0849215
-0.0800315
-0.081419
-0.663847
-0.682371
-0.716827
-0.75621
-0.777736
-0.742401
-0.644625
-0.539424
-0.439512
-0.368244
-0.32469
-0.286101
-0.274978
-0.246936
-0.219223
-0.201659
-0.19263
-0.190987
-0.190322
-0.19098
-0.307104
-0.319409
-0.345053
-0.380493
-0.408038
-0.413766
-0.398012
-0.368115
-0.331971
-0.307667
-0.282126
-0.268171
-0.261265
-0.251821
-0.2489
-0.252571
-0.259525
-0.265626
-0.266793
-0.266776
-0.0298097
-0.0360869
-0.0527687
-0.0831848
-0.125711
-0.166858
-0.200554
-0.225615
-0.239732
-0.241047
-0.244789
-0.244795
-0.247594
-0.247944
-0.257637
-0.271986
-0.288683
-0.297267
-0.299323
-0.299207
0.10823
0.104632
0.0925684
0.066122
0.0230872
-0.0327456
-0.0872406
-0.131962
-0.164222
-0.190029
-0.211436
-0.225753
-0.236953
-0.240886
-0.252948
-0.269577
-0.286496
-0.292762
-0.292979
-0.292491
0.145919
0.143515
0.134652
0.113855
0.0782566
0.0314751
-0.0199181
-0.0699332
-0.11264
-0.147395
-0.18164
-0.214883
-0.23354
-0.22767
-0.232169
-0.242218
-0.250847
-0.253244
-0.25215
-0.251864
0.137565
0.135992
0.129862
0.115102
0.0889798
0.0526998
0.0104854
-0.0325201
-0.072902
-0.109493
-0.150187
-0.191311
-0.213237
-0.196492
-0.187735
-0.190248
-0.19168
-0.19172
-0.19189
-0.192075
0.114561
0.113633
0.109657
0.099788
0.0819009
0.0560855
0.0239934
-0.010303
-0.0444061
-0.0762747
-0.108121
-0.138327
-0.150268
-0.138177
-0.132065
-0.131736
-0.129583
-0.128933
-0.129022
-0.12973
0.0896102
0.0891734
0.0867723
0.0805403
0.0688038
0.0512264
0.0285355
0.00351153
-0.0220548
-0.0435264
-0.0604866
-0.0685365
-0.0674808
-0.0685503
-0.0739551
-0.0793367
-0.0808872
-0.0819035
-0.0831299
-0.0839527
0.0671276
0.0669041
0.0655518
0.0617872
0.0544081
0.0430061
0.0278587
0.0111451
-0.00527183
-0.0164254
-0.0172268
-0.00412443
0.00598474
-0.00892979
-0.0262623
-0.0391125
-0.0465782
-0.0504193
-0.0524
-0.052964
0.0477097
0.0476453
0.0469681
0.044876
0.0405143
0.0335492
0.0241097
0.0137349
0.0047518
0.00267022
0.0132604
0.0357141
0.0504287
0.0301711
0.00638261
-0.00952316
-0.0190239
-0.0244208
-0.026698
-0.0270676
0.0308894
0.0309261
0.0306705
0.0296688
0.0273808
0.0235266
0.0182419
0.0126674
0.0087684
0.011824
0.0276646
0.0527489
0.0667191
0.0462352
0.0236183
0.00989923
0.00224718
-0.00192158
-0.00412604
-0.00458006
0.0161997
0.0162991
0.0162542
0.0159435
0.014947
0.013204
0.0107471
0.00823014
0.00695008
0.0108917
0.0257762
0.0459757
0.0561814
0.0391776
0.0232483
0.0157854
0.0123202
0.0102785
0.00871212
0.00806059
0.0027611
0.00281732
0.00278888
0.0028933
0.00309105
0.00295988
0.00248604
0.0018994
0.00161895
0.00195475
0.0047185
0.0109878
0.014524
0.0134276
0.00919587
0.0086082
0.00671767
0.00485721
0.0034052
0.00323696
-0.0393433
0.14961
0.32306
0.470308
0.588497
0.682005
0.759967
0.823459
0.839702
0.836299
0.251115
0.372612
0.486516
0.585601
0.669028
0.73803
0.792499
0.829467
0.849312
0.865956
0.448269
0.52938
0.60941
0.679877
0.74013
0.790132
0.829563
0.859628
0.882206
0.901473
0.594063
0.651158
0.709321
0.761573
0.806826
0.845225
0.877402
0.904382
0.924739
0.943652
0.709808
0.753425
0.797424
0.837952
0.873948
0.905825
0.933662
0.957245
0.97523
0.993288
0.809439
0.844846
0.879664
0.913489
0.944605
0.972748
0.997626
1.0185
1.03428
1.05177
0.897222
0.929428
0.961568
0.992685
1.02169
1.04805
1.07117
1.0901
1.10402
1.12104
0.984189
1.0168
1.04923
1.08041
1.10918
1.13496
1.15709
1.17461
1.18699
1.20352
1.07859
1.11501
1.14979
1.18225
1.21142
1.23676
1.25788
1.27416
1.28577
1.30193
1.19167
1.23231
1.26932
1.30224
1.33072
1.3547
1.37433
1.3896
1.40149
1.4176
1.3331
1.37413
1.40939
1.43896
1.46417
1.48578
1.50429
1.51977
1.53287
1.54886
1.50465
1.53696
1.56389
1.58624
1.60634
1.62506
1.64279
1.65954
1.67445
1.69027
1.691
1.70826
1.72539
1.74208
1.75817
1.7729
1.78679
1.80124
1.81649
1.8339
1.87423
1.88414
1.8973
1.90826
1.91766
1.9273
1.9379
1.9481
1.95744
1.98283
2.09165
2.08588
2.07287
2.05863
2.05234
2.05803
2.07614
2.10464
2.13842
2.17472
2.39492
2.25908
2.17961
2.13705
2.11964
2.12367
2.15116
2.20908
2.31673
2.49495
0.718022
0.711723
0.70399
0.692876
0.679311
0.666669
0.656276
0.648267
0.64255
0.639221
0.638873
0.641712
0.646948
0.654308
0.663855
0.67568
0.689236
0.702163
0.711154
0.718693
0.62713
0.633057
0.641123
0.647248
0.650312
0.649796
0.646708
0.642713
0.639124
0.636842
0.636714
0.638974
0.642734
0.647185
0.65129
0.653541
0.652474
0.647844
0.640797
0.632965
0.62038
0.622753
0.626022
0.628797
0.631247
0.633432
0.634607
0.634456
0.633517
0.632712
0.632935
0.634359
0.636151
0.63739
0.637324
0.635865
0.633712
0.63135
0.628367
0.625349
0.615588
0.616677
0.618593
0.620931
0.622803
0.624202
0.625419
0.62641
0.627009
0.62739
0.627955
0.628712
0.629191
0.629084
0.628464
0.627546
0.626219
0.624252
0.622146
0.62067
0.610563
0.611197
0.612326
0.614083
0.615926
0.617519
0.618769
0.619833
0.620816
0.62172
0.622519
0.623057
0.62321
0.623015
0.622487
0.621519
0.620098
0.618492
0.617157
0.616356
0.605637
0.606076
0.606865
0.608169
0.60969
0.611253
0.61273
0.614026
0.615183
0.616277
0.617247
0.61787
0.618067
0.617847
0.617194
0.616204
0.615058
0.613919
0.613019
0.612486
0.6008
0.601128
0.60174
0.60281
0.604106
0.605505
0.606984
0.608458
0.609852
0.611163
0.61233
0.613102
0.613351
0.613125
0.612543
0.611771
0.610934
0.610086
0.609428
0.609037
0.596027
0.596281
0.596775
0.597687
0.59886
0.600169
0.601591
0.603119
0.604702
0.606274
0.607694
0.608645
0.609015
0.60894
0.608576
0.608045
0.607423
0.606803
0.606326
0.606027
0.591246
0.591448
0.59186
0.592662
0.593757
0.59502
0.596429
0.598004
0.599729
0.601551
0.603272
0.604492
0.605106
0.605281
0.605162
0.60486
0.604448
0.604022
0.603685
0.60345
0.586373
0.586535
0.586888
0.587618
0.588668
0.589913
0.591355
0.593016
0.594903
0.596989
0.599065
0.600656
0.601605
0.60208
0.602224
0.602158
0.601962
0.601714
0.601493
0.601305
0.581317
0.581449
0.581761
0.582446
0.583481
0.584754
0.586266
0.588059
0.590162
0.592571
0.595082
0.597133
0.598486
0.599307
0.599748
0.599936
0.599956
0.59988
0.599758
0.599607
0.575991
0.576097
0.576381
0.577049
0.578104
0.579447
0.581075
0.583054
0.585443
0.588263
0.591309
0.593912
0.595739
0.596962
0.597739
0.598205
0.598454
0.598549
0.598514
0.59839
0.570295
0.57038
0.570648
0.571322
0.572433
0.573888
0.575687
0.577921
0.580679
0.584014
0.587715
0.590982
0.593372
0.59506
0.59622
0.597009
0.597511
0.597771
0.597814
0.597711
0.564119
0.564185
0.564447
0.56515
0.566353
0.567968
0.570003
0.572573
0.5758
0.579774
0.584275
0.588341
0.591401
0.593636
0.595236
0.596389
0.597172
0.597609
0.597726
0.59764
0.557332
0.557379
0.557644
0.558398
0.559732
0.561564
0.563908
0.566909
0.570726
0.57549
0.580964
0.58599
0.589845
0.592727
0.594845
0.596409
0.597513
0.598144
0.598334
0.598261
0.54978
0.549805
0.550074
0.550904
0.552414
0.554527
0.557269
0.560815
0.565366
0.571101
0.577753
0.583932
0.588732
0.592376
0.595108
0.597161
0.59863
0.59947
0.599733
0.599669
0.541233
0.54125
0.541532
0.542462
0.544204
0.546676
0.549922
0.554151
0.559617
0.566542
0.574622
0.582179
0.588098
0.592639
0.596095
0.598736
0.600621
0.601689
0.602025
0.601967
0.531415
0.531408
0.531737
0.532814
0.534854
0.537785
0.541669
0.546759
0.553362
0.56175
0.571554
0.580748
0.587992
0.593589
0.597896
0.601218
0.603586
0.604904
0.605314
0.605258
0.520015
0.519986
0.520366
0.521634
0.524046
0.527567
0.532267
0.538448
0.546477
0.556667
0.568551
0.57968
0.588464
0.595297
0.6006
0.604708
0.607628
0.609213
0.609691
0.609632
0.506538
0.506487
0.506946
0.508464
0.511362
0.515653
0.52141
0.52899
0.538817
0.551231
0.565614
0.57901
0.589574
0.597825
0.604288
0.609299
0.612828
0.614688
0.615226
0.615158
0.490324
0.49025
0.490834
0.492705
0.496252
0.501568
0.508725
0.518129
0.530246
0.545404
0.56277
0.578797
0.591388
0.601246
0.609018
0.615045
0.619235
0.62136
0.621939
0.621856
0.470414
0.470323
0.47111
0.473493
0.477956
0.484694
0.49376
0.505591
0.520654
0.539198
0.560084
0.579111
0.59397
0.605617
0.614822
0.62197
0.626842
0.629194
0.629786
0.629679
0.445366
0.445275
0.4464
0.449575
0.455418
0.464237
0.476012
0.491155
0.510034
0.532726
0.557697
0.580063
0.597391
0.610976
0.621728
0.630055
0.635558
0.638063
0.638627
0.638489
0.41283
0.412785
0.414519
0.419063
0.427212
0.439277
0.455042
0.474745
0.498522
0.526198
0.555801
0.581785
0.601723
0.617331
0.629694
0.639188
0.645193
0.647722
0.648207
0.648034
0.368609
0.368769
0.371824
0.379211
0.391674
0.409076
0.430758
0.456619
0.486482
0.519947
0.554638
0.584433
0.607047
0.624679
0.638629
0.64917
0.655421
0.657792
0.658148
0.657943
0.304868
0.30621
0.313624
0.327551
0.347915
0.373796
0.403819
0.437498
0.474524
0.514418
0.554494
0.588154
0.613393
0.632966
0.64829
0.659578
0.665743
0.667732
0.667924
0.667709
0.228806
0.231442
0.245842
0.269812
0.300975
0.336917
0.375988
0.417942
0.462593
0.509525
0.555778
0.594124
0.622678
0.644676
0.661585
0.673383
0.679262
0.680968
0.681111
0.680988
0.150979
0.157947
0.179558
0.213587
0.255245
0.30101
0.349131
0.399427
0.451783
0.505821
0.558323
0.601412
0.633241
0.657624
0.676126
0.688073
0.693228
0.694437
0.694519
0.694465
0.0875163
0.0963617
0.122615
0.163764
0.213694
0.267804
0.324091
0.382217
0.441932
0.50278
0.561221
0.608729
0.643572
0.669976
0.689444
0.701352
0.706111
0.707201
0.707328
0.70733
0.0355568
0.04512
0.0749064
0.121354
0.177512
0.238303
0.301475
0.366507
0.432959
0.500198
0.564272
0.61597
0.653622
0.681926
0.702431
0.714602
0.719205
0.72022
0.720399
0.72044
-0.00790644
0.00196399
0.0341619
0.0847505
0.146017
0.212365
0.281374
0.352427
0.424919
0.498039
0.567447
0.623214
0.663615
0.693842
0.715493
0.727984
0.73262
0.733792
0.734003
0.734077
-0.045347
-0.0353438
-0.00134068
0.0525651
0.118111
0.189236
0.263337
0.339718
0.417685
0.496282
0.570761
0.630461
0.673573
0.705676
0.728499
0.741641
0.746606
0.747838
0.748044
0.748124
-0.078446
-0.0683967
-0.0329745
0.0236787
0.0928664
0.168135
0.246759
0.327977
0.411018
0.494762
0.574069
0.637551
0.683332
0.717311
0.741405
0.755208
0.760515
0.761839
0.762037
0.762103
-0.108467
-0.0983845
-0.061808
-0.00279379
0.0695526
0.148467
0.231141
0.31678
0.404519
0.493148
0.577118
0.644293
0.692634
0.728433
0.753693
0.768217
0.77389
0.775311
0.775494
0.775542
-0.136365
-0.126232
-0.0886325
-0.0275202
0.0476238
0.129763
0.216066
0.305743
0.397883
0.491192
0.57973
0.650511
0.701359
0.738883
0.765271
0.780413
0.786472
0.787967
0.788116
0.788136
-0.162706
-0.152512
-0.113964
-0.050965
0.0266495
0.111663
0.201244
0.294632
0.390905
0.488693
0.581708
0.656086
0.709391
0.748574
0.775994
0.791643
0.79794
0.799493
0.799617
0.799603
-0.187957
-0.177635
-0.138199
-0.0734885
0.00633144
0.0939248
0.18648
0.283273
0.383399
0.485486
0.582931
0.660958
0.716722
0.757482
0.785781
0.801797
0.80821
0.809784
0.809884
0.809839
-0.212416
-0.201893
-0.16161
-0.0953239
-0.0135223
0.0763809
0.171628
0.271538
0.375252
0.481473
0.58333
0.665075
0.723367
0.765656
0.794684
0.810922
0.817329
0.818857
0.818935
0.818864
-0.236193
-0.225439
-0.184341
-0.116618
-0.0330372
0.0589402
0.156611
0.259366
0.366416
0.476568
0.582811
0.668423
0.729377
0.77322
0.802859
0.819122
0.825402
0.826853
0.826887
0.826795
-0.259422
-0.248396
-0.206518
-0.13744
-0.0522706
0.0415554
0.141406
0.24674
0.356858
0.470726
0.581304
0.670966
0.734818
0.780314
0.810455
0.826556
0.832577
0.833883
0.833868
0.833757
-0.28209
-0.270825
-0.22816
-0.15782
-0.0712352
0.0242312
0.126027
0.233675
0.346582
0.463921
0.578752
0.672646
0.739736
0.787112
0.817702
0.833402
0.838974
0.840061
0.839979
0.839847
-0.304281
-0.292711
-0.249247
-0.177752
-0.0899192
0.00699203
0.110506
0.220215
0.335631
0.456161
0.575098
0.673388
0.744125
0.793777
0.824879
0.839909
0.844717
0.845444
0.845285
0.845151
-0.325802
-0.314019
-0.26977
-0.19723
-0.108283
-0.0100987
0.0949021
0.206424
0.324066
0.447485
0.570305
0.6731
0.747915
0.800408
0.832345
0.846526
0.850126
0.850188
0.849892
0.849781
-0.346801
-0.334707
-0.289707
-0.216234
-0.126304
-0.0270072
0.0793022
0.192375
0.311961
0.437959
0.564355
0.671671
0.750965
0.806967
0.840421
0.853963
0.855895
0.854635
0.853926
0.853902
-0.367102
-0.354735
-0.309042
-0.234718
-0.143906
-0.0436525
0.063786
0.178185
0.299417
0.427642
0.557261
0.668988
0.753088
0.813235
0.849161
0.863006
0.863432
0.860004
0.857888
0.857688
-0.386807
-0.37413
-0.327723
-0.252627
-0.161055
-0.0599683
0.0484381
0.16393
0.286537
0.41666
0.549073
0.66492
0.754064
0.818821
0.858095
0.873846
0.874393
0.869134
0.863235
0.854769
-0.405801
-0.392888
-0.345836
-0.270128
-0.177975
-0.0762326
0.0329265
0.149212
0.272884
0.404528
0.539301
0.658926
0.753537
0.823523
0.866678
0.885966
0.889123
0.883102
0.872015
0.87083
-0.424047
-0.411078
-0.363377
-0.287169
-0.19465
-0.0924076
0.0172796
0.134013
0.25842
0.391114
0.527752
0.650494
0.750729
0.826547
0.87301
0.89535
0.900667
0.89683
0.862766
0.824059
-0.441327
-0.428577
-0.380286
-0.303636
-0.211068
-0.108499