/*--------------------------------*- C++ -*----------------------------------*\
  =========                 |
  \\      /  F ield         | OpenFOAM: The Open Source CFD Toolbox
   \\    /   O peration     | Website:  https://openfoam.org
    \\  /    A nd           | Version:  6
     \\/     M anipulation  |
\*---------------------------------------------------------------------------*/
FoamFile
{
    version     2.0;
    format      ascii;
    class       volVectorField;
    location    "67";
    object      U;
}
// * * * * * * * * * * * * * * * * * * * * * * * * * * * * * * * * * * * * * //

dimensions      [0 1 -1 0 0 0 0];

internalField   nonuniform List<vector> 
8800
(
(0.987195 -0.0767053 0)
(1.0019 -0.0551767 0)
(0.999723 -0.0285495 0)
(1.00003 -0.0151531 0)
(1.00009 -0.00855581 0)
(1.00011 -0.0050568 0)
(1.00007 -0.00300992 0)
(1.00002 -0.00170792 0)
(0.999998 -0.000800459 0)
(1.00006 -8.3036e-05 0)
(0.99998 0.000647532 0)
(0.99999 0.00141515 0)
(1.00003 0.00243627 0)
(1.00005 0.00400625 0)
(1.00004 0.00663905 0)
(1.00002 0.0113789 0)
(0.999905 0.0208185 0)
(0.999154 0.0386587 0)
(1.0071 0.072458 0)
(0.771226 0.0366899 0)
(0.363043 -0.0160153 0)
(1.04332 -0.0768261 0)
(1.08462 -0.0704431 0)
(1.04522 -0.053546 0)
(1.02331 -0.0388972 0)
(1.01204 -0.0262252 0)
(1.00643 -0.01687 0)
(1.0036 -0.0103414 0)
(1.00215 -0.00568237 0)
(1.00145 -0.00202532 0)
(1.00131 0.00129931 0)
(1.00167 0.00468268 0)
(1.00266 0.00861689 0)
(1.00467 0.01395 0)
(1.00861 0.0216536 0)
(1.01658 0.0326198 0)
(1.0325 0.0465347 0)
(1.06267 0.0616562 0)
(1.09189 0.0760873 0)
(0.838669 0.0565786 0)
(0.216827 -0.00242148 0)
(1.07588 -0.0501503 0)
(1.09987 -0.0483317 0)
(1.06463 -0.0404805 0)
(1.04002 -0.0336214 0)
(1.0239 -0.0261018 0)
(1.01411 -0.0185216 0)
(1.00855 -0.0117033 0)
(1.00559 -0.00583543 0)
(1.00432 -0.000416932 0)
(1.00466 0.00483074 0)
(1.00659 0.0102233 0)
(1.0106 0.016315 0)
(1.01794 0.0233359 0)
(1.03053 0.0308024 0)
(1.05061 0.0378382 0)
(1.08033 0.0445303 0)
(1.10625 0.0513494 0)
(0.942522 0.0416148 0)
(0.216151 0.00245257 0)
(0.175154 -0.000814629 0)
(1.01766 -0.035495 0)
(1.10518 -0.0413978 0)
(1.07825 -0.0360862 0)
(1.05344 -0.0301563 0)
(1.03618 -0.0245832 0)
(1.02398 -0.0188558 0)
(1.01587 -0.0127757 0)
(1.01101 -0.00658674 0)
(1.0088 -0.00024991 0)
(1.00937 0.00600804 0)
(1.01263 0.0120095 0)
(1.01886 0.0178446 0)
(1.02876 0.0234171 0)
(1.04319 0.0287213 0)
(1.06371 0.0342087 0)
(1.09354 0.0401949 0)
(1.0934 0.0419577 0)
(0.827154 0.0229103 0)
(0.174013 0.000850286 0)
(0.153943 -0.000609803 0)
(0.956131 -0.0254706 0)
(1.10343 -0.0351491 0)
(1.08766 -0.0326776 0)
(1.0617 -0.0280289 0)
(1.04408 -0.0230092 0)
(1.03162 -0.0177653 0)
(1.02277 -0.0122341 0)
(1.01695 -0.00629587 0)
(1.01411 0.000176601 0)
(1.01478 0.00664222 0)
(1.01875 0.0125305 0)
(1.02579 0.0178252 0)
(1.0361 0.0227374 0)
(1.05065 0.0274982 0)
(1.07189 0.0320341 0)
(1.10006 0.0359705 0)
(1.06808 0.0340302 0)
(0.739543 0.0143133 0)
(0.152224 0.000650232 0)
(0.139563 -0.000466572 0)
(0.899206 -0.0190897 0)
(1.09574 -0.0301026 0)
(1.09571 -0.0292174 0)
(1.06922 -0.0254892 0)
(1.05078 -0.0213529 0)
(1.03785 -0.0165833 0)
(1.02875 -0.011298 0)
(1.02263 -0.00555267 0)
(1.0195 0.000778649 0)
(1.02011 0.00709534 0)
(1.0242 0.0127352 0)
(1.03136 0.0176995 0)
(1.04189 0.0221576 0)
(1.05701 0.0261271 0)
(1.07921 0.0295972 0)
(1.10227 0.0322236 0)
(1.03598 0.0281223 0)
(0.672965 0.0102131 0)
(0.137135 0.000513173 0)
(0.129014 -0.00036143 0)
(0.849593 -0.0147279 0)
(1.08334 -0.0259719 0)
(1.10139 -0.02627 0)
(1.07607 -0.0229875 0)
(1.0571 -0.0193462 0)
(1.04372 -0.0151035 0)
(1.03425 -0.0101813 0)
(1.0279 -0.0046467 0)
(1.02457 0.00150592 0)
(1.02504 0.00760997 0)
(1.02908 0.0129747 0)
(1.03636 0.0175295 0)
(1.04716 0.0213805 0)
(1.06268 0.0246863 0)
(1.08532 0.0276381 0)
(1.10136 0.0293929 0)
(1.00104 0.0236124 0)
(0.621106 0.00785165 0)
(0.125724 0.000416267 0)
(0.120965 -0.000280903 0)
(0.807432 -0.0115702 0)
(1.06805 -0.0223628 0)
(1.10491 -0.0236345 0)
(1.08231 -0.0207651 0)
(1.06293 -0.0173382 0)
(1.04927 -0.013403 0)
(1.03953 -0.00881916 0)
(1.03289 -0.0035569 0)
(1.02932 0.00237819 0)
(1.02961 0.00823563 0)
(1.0336 0.0132532 0)
(1.04094 0.0173387 0)
(1.05185 0.0206797 0)
(1.06758 0.0235749 0)
(1.09055 0.0262284 0)
(1.09757 0.0270874 0)
(0.965736 0.0200793 0)
(0.579412 0.00632036 0)
(0.116627 0.000346135 0)
(0.114727 -0.000217784 0)
(0.771946 -0.00920767 0)
(1.05128 -0.0191849 0)
(1.10729 -0.0211954 0)
(1.08818 -0.0186958 0)
(1.06841 -0.0154128 0)
(1.05452 -0.0116399 0)
(1.04458 -0.00726713 0)
(1.03769 -0.00224599 0)
(1.03384 0.00343569 0)
(1.0339 0.008993 0)
(1.03776 0.0136342 0)
(1.04504 0.0173017 0)
(1.05594 0.020252 0)
(1.07187 0.0228244 0)
(1.0945 0.0251347 0)
(1.09093 0.0251804 0)
(0.931362 0.017357 0)
(0.544866 0.00527676 0)
(0.109114 0.000295788 0)
(0.109866 -0.000166966 0)
(0.742196 -0.00737303 0)
(1.03408 -0.0163667 0)
(1.10872 -0.0188956 0)
(1.09376 -0.0167017 0)
(1.07371 -0.0135101 0)
(1.05955 -0.00982705 0)
(1.04941 -0.00557576 0)
(1.0423 -0.000728682 0)
(1.03816 0.00471071 0)
(1.03793 0.00995388 0)
(1.04155 0.0142348 0)
(1.04869 0.0175346 0)
(1.05956 0.0201349 0)
(1.07568 0.0224178 0)
(1.09716 0.0243507 0)
(1.08184 0.0236242 0)
(0.898478 0.0152952 0)
(0.515415 0.00455172 0)
(0.102706 0.000260584 0)
(0.106099 -0.00012469 0)
(0.717363 -0.00589229 0)
(1.01729 -0.0138365 0)
(1.10933 -0.0166712 0)
(1.09924 -0.0147502 0)
(1.07893 -0.0115681 0)
(1.06447 -0.00791502 0)
(1.05412 -0.00372676 0)
(1.04675 0.00100387 0)
(1.04228 0.00624116 0)
(1.04167 0.0111906 0)
(1.04499 0.0151325 0)
(1.05193 0.0180822 0)
(1.06275 0.0203432 0)
(1.07904 0.0223627 0)
(1.09848 0.02389 0)
(1.07068 0.0224178 0)
(0.867188 0.0137786 0)
(0.4896 0.00405534 0)
(0.0970582 0.000237526 0)
(0.103238 -8.79888e-05 0)
(0.696806 -0.00464923 0)
(1.00152 -0.0115267 0)
(1.10927 -0.0144858 0)
(1.10457 -0.0127527 0)
(1.08416 -0.00953389 0)
(1.06938 -0.00585373 0)
(1.05876 -0.00166922 0)
(1.05108 0.00300174 0)
(1.0462 0.00808354 0)
(1.04515 0.0127684 0)
(1.04809 0.0163887 0)
(1.0548 0.0190002 0)
(1.06554 0.0209239 0)
(1.08195 0.0226849 0)
(1.09878 0.0238116 0)
(1.05771 0.0215756 0)
(0.837325 0.012719 0)
(0.466328 0.00373252 0)
(0.0919116 0.000224205 0)
(0.101165 -5.41834e-05 0)
(0.680057 -0.00355664 0)
(0.987213 -0.00936619 0)
(1.10876 -0.0122526 0)
(1.10972 -0.0106304 0)
(1.08947 -0.0073498 0)
(1.07435 -0.00358252 0)
(1.06341 0.000662642 0)
(1.05535 0.00533218 0)
(1.04997 0.0103103 0)
(1.04837 0.0147642 0)
(1.05085 0.0180694 0)
(1.05729 0.0203413 0)
(1.06792 0.0219241 0)
(1.08436 0.0234136 0)
(1.09808 0.0241193 0)
(1.04308 0.0211038 0)
(0.808552 0.0120423 0)
(0.444741 0.00354438 0)
(0.087063 0.000218601 0)
(0.0998174 -2.09999e-05 0)
(0.666815 -0.00254494 0)
(0.974741 -0.00728023 0)
(1.1081 -0.0099133 0)
(1.11484 -0.00831934 0)
(1.09494 -0.00493437 0)
(1.07944 -0.00101729 0)
(1.06812 0.00335327 0)
(1.0596 0.00808421 0)
(1.05361 0.0130056 0)
(1.05135 0.017253 0)
(1.05329 0.0202505 0)
(1.05939 0.0221723 0)
(1.06987 0.0233944 0)
(1.08631 0.0246149 0)
(1.09612 0.0248651 0)
(1.02685 0.0209976 0)
(0.780434 0.0116981 0)
(0.424138 0.00346703 0)
(0.0823482 0.000219348 0)
(0.0991817 1.37529e-05 0)
(0.656928 -0.00155918 0)
(0.964414 -0.00519681 0)
(1.10764 -0.00740724 0)
(1.12005 -0.00574926 0)
(1.10067 -0.00220703 0)
(1.08475 0.00192701 0)
(1.07297 0.00649403 0)
(1.06388 0.0113522 0)
(1.05716 0.0162679 0)
(1.05409 0.0203314 0)
(1.05539 0.0230234 0)
(1.06108 0.0245795 0)
(1.07139 0.0254305 0)
(1.08772 0.0263359 0)
(1.0929 0.026053 0)
(1.00898 0.0212869 0)
(0.752487 0.011656 0)
(0.403928 0.00348521 0)
(0.0776322 0.000225715 0)
(0.0992752 4.6384e-05 0)
(0.650367 -0.000552739 0)
(0.956534 -0.00304439 0)
(1.10771 -0.00466371 0)
(1.12552 -0.00283251 0)
(1.10673 0.000936621 0)
(1.09036 0.00536385 0)
(1.07804 0.0102026 0)
(1.06825 0.0152589 0)
(1.06064 0.020222 0)
(1.05661 0.0241187 0)
(1.05713 0.0264969 0)
(1.06234 0.0276738 0)
(1.07245 0.0281303 0)
(1.08836 0.0286642 0)
(1.08811 0.0277347 0)
(0.989286 0.0220079 0)
(0.724169 0.011903 0)
(0.383578 0.00359124 0)
(0.0727931 0.000237169 0)
(0.100154 8.91955e-05 0)
(0.647222 0.000487797 0)
(0.951419 -0.000747064 0)
(1.10867 -0.00160044 0)
(1.13146 0.000531518 0)
(1.11327 0.00461832 0)
(1.09638 0.00942472 0)
(1.0834 0.0146216 0)
(1.07277 0.0199533 0)
(1.06408 0.0250148 0)
(1.05891 0.0287574 0)
(1.05849 0.0307984 0)
(1.06313 0.0315814 0)
(1.07297 0.0316158 0)
(1.08809 0.031722 0)
(1.08152 0.0300088 0)
(0.967486 0.0231902 0)
(0.694878 0.0124277 0)
(0.36258 0.0037774 0)
(0.0677211 0.000252946 0)
(0.102004 0.000147922 0)
(0.647875 0.00165071 0)
(0.949441 0.00178165 0)
(1.11098 0.00188973 0)
(1.13806 0.00445292 0)
(1.1204 0.00897034 0)
(1.10292 0.0142596 0)
(1.08916 0.0199148 0)
(1.07751 0.0256039 0)
(1.06751 0.0308169 0)
(1.06095 0.0344202 0)
(1.05944 0.0360862 0)
(1.0634 0.0364395 0)
(1.0729 0.0360148 0)
(1.08665 0.0356239 0)
(1.07285 0.0329548 0)
(0.943175 0.0248727 0)
(0.663975 0.0132266 0)
(0.340462 0.00403702 0)
(0.0623217 0.000272289 0)
(0.104891 0.000210804 0)
(0.652756 0.00309083 0)
(0.951037 0.00469673 0)
(1.11508 0.0059475 0)
(1.14555 0.0090903 0)
(1.12831 0.0141852 0)
(1.11014 0.0200785 0)
(1.09542 0.0263014 0)
(1.0825 0.0324334 0)
(1.07092 0.0378336 0)
(1.06272 0.0412721 0)
(1.05994 0.0425102 0)
(1.06307 0.0424084 0)
(1.07217 0.041471 0)
(1.08391 0.0405512 0)
(1.06173 0.0366803 0)
(0.915801 0.0271006 0)
(0.630764 0.0142926 0)
(0.31677 0.00436182 0)
(0.0565137 0.000294058 0)
(0.109101 0.000293785 0)
(0.662256 0.00477051 0)
(0.956686 0.00812784 0)
(1.12151 0.0107232 0)
(1.15424 0.0146416 0)
(1.1372 0.0204964 0)
(1.11819 0.0271409 0)
(1.10228 0.0340596 0)
(1.08781 0.040716 0)
(1.0743 0.0463184 0)
(1.06417 0.0495354 0)
(1.05992 0.050278 0)
(1.06208 0.0496658 0)
(1.0707 0.0481404 0)
(1.07993 0.0466101 0)
(1.04764 0.0412911 0)
(0.884665 0.0298924 0)
(0.594494 0.0156051 0)
(0.291085 0.00473593 0)
(0.0502395 0.00031648 0)
(0.114972 0.000406266 0)
(0.677226 0.00687882 0)
(0.967073 0.0122851 0)
(1.13083 0.0164589 0)
(1.16447 0.0213704 0)
(1.14734 0.0282216 0)
(1.12727 0.0357878 0)
(1.10986 0.0435326 0)
(1.09345 0.0507771 0)
(1.07762 0.0565602 0)
(1.06521 0.0594592 0)
(1.05921 0.0595706 0)
(1.06034 0.0583935 0)
(1.06844 0.056226 0)
(1.07443 0.0539887 0)
(1.02994 0.0468659 0)
(0.848914 0.0332489 0)
(0.554397 0.0171203 0)
(0.263067 0.00513442 0)
(0.0434777 0.000337049 0)
(0.123024 0.000562883 0)
(0.698582 0.00963756 0)
(0.983058 0.0174769 0)
(1.14369 0.0234951 0)
(1.17673 0.0296788 0)
(1.15904 0.0378306 0)
(1.13757 0.0465081 0)
(1.11823 0.055193 0)
(1.09941 0.0630334 0)
(1.08078 0.0688828 0)
(1.06575 0.0712801 0)
(1.05776 0.0706144 0)
(1.05777 0.0687415 0)
(1.06531 0.0658492 0)
(1.06702 0.0626565 0)
(1.00777 0.0534631 0)
(0.807542 0.0371167 0)
(0.50974 0.0187528 0)
(0.232512 0.00551814 0)
(0.0362602 0.000352337 0)
(0.133996 0.000790245 0)
(0.727623 0.0134319 0)
(1.00579 0.024171 0)
(1.16091 0.0323784 0)
(1.19164 0.0401628 0)
(1.17266 0.0499894 0)
(1.14927 0.0599698 0)
(1.12739 0.0696521 0)
(1.10555 0.0779837 0)
(1.0836 0.0836564 0)
(1.06559 0.0852624 0)
(1.05546 0.0836134 0)
(1.05424 0.0809144 0)
(1.06094 0.0771446 0)
(1.05703 0.0727987 0)
(0.980011 0.0610675 0)
(0.759443 0.0413492 0)
(0.459936 0.020363 0)
(0.199449 0.0058318 0)
(0.0286918 0.000358177 0)
(0.149134 0.00114595 0)
(0.766323 0.0188878 0)
(1.03694 0.0331464 0)
(1.18342 0.0440397 0)
(1.20999 0.053952 0)
(1.18852 0.0657396 0)
(1.1624 0.0771359 0)
(1.13718 0.0876988 0)
(1.11159 0.0961961 0)
(1.08579 0.101243 0)
(1.06451 0.101629 0)
(1.05213 0.0987102 0)
(1.04966 0.0950505 0)
(1.05506 0.0904764 0)
(1.04363 0.0844992 0)
(0.945269 0.0695042 0)
(0.703516 0.0456853 0)
(0.404739 0.0217397 0)
(0.164265 0.00600503 0)
(0.0209697 0.000349944 0)
(0.170623 0.00176334 0)
(0.81792 0.0271324 0)
(1.0791 0.0459442 0)
(1.21236 0.0603492 0)
(1.23237 0.0730907 0)
(1.20671 0.0867261 0)
(1.17669 0.099347 0)
(1.14715 0.110295 0)
(1.11708 0.118282 0)
(1.08695 0.121966 0)
(1.06222 0.120525 0)
(1.04759 0.115992 0)
(1.04391 0.111186 0)
(1.04762 0.10571 0)
(1.02569 0.0976223 0)
(0.901796 0.0784051 0)
(0.638961 0.0496932 0)
(0.3446 0.0226166 0)
(0.127865 0.00596197 0)
(0.0133992 0.000323107 0)
(0.201817 0.0031186 0)
(0.88815 0.040763 0)
(1.1359 0.0663511 0)
(1.24814 0.0849065 0)
(1.2585 0.100365 0)
(1.22658 0.115317 0)
(1.1913 0.128223 0)
(1.15647 0.138416 0)
(1.12133 0.144759 0)
(1.08659 0.146055 0)
(1.05839 0.14203 0)
(1.04163 0.135453 0)
(1.03686 0.129262 0)
(1.03815 0.122723 0)
(1.00162 0.111816 0)
(0.847569 0.0870839 0)
(0.56591 0.0527899 0)
(0.281394 0.0227783 0)
(0.0920028 0.00566441 0)
(0.00645914 0.000271726 0)
(0.244378 0.00931036 3.8802e-20)
(0.980997 0.0677146 3.40389e-20)
(1.20495 0.100904 -1.19886e-20)
(1.2876 0.121364 0)
(1.28551 0.139388 -3.15117e-34)
(1.24593 0.153855 4.63112e-21)
(1.20465 0.165255 -8.48263e-21)
(1.16404 0.173256 0)
(1.1235 0.176876 1.77442e-34)
(1.08389 0.174991 -1.07895e-20)
(1.05202 0.167889 0)
(1.03305 0.159085 -1.29506e-20)
(1.02743 0.151672 -3.82966e-20)
(1.02528 0.144734 -1.81224e-20)
(0.967286 0.129576 -5.46825e-21)
(0.776532 0.0968014 -3.25176e-21)
(0.47931 0.0552695 0)
(0.213744 0.0226119 2.27346e-21)
(0.0567712 0.00538097 2.68381e-21)
(0.000131117 0.000197415 4.83863e-20)
(0.273874 0.0244651 2.62832e-20)
(1.05785 0.110299 5.43968e-22)
(1.26193 0.150139 3.0905e-21)
(1.32298 0.17057 0)
(1.30918 0.188803 -1.56428e-20)
(1.2625 0.201136 -1.79684e-20)
(1.21528 0.210233 -8.4745e-21)
(1.16884 0.215758 -3.06327e-20)
(1.1227 0.21664 0)
(1.07784 0.211652 4.58329e-20)
(1.04189 0.201538 4.57068e-20)
(1.02046 0.190532 1.36251e-20)
(1.01267 0.181287 4.99601e-20)
(1.00219 0.171729 7.0455e-20)
(0.913112 0.149973 0)
(0.680275 0.106915 9.94197e-20)
(0.377305 0.0575754 1.42534e-19)
(0.14346 0.0218128 1.58245e-19)
(0.0215525 0.0039246 -1.80866e-19)
(-0.00625703 -0.000440053 -3.4046e-21)
(0.27529 0.041245 0)
(1.10677 0.165398 4.05844e-21)
(1.30051 0.210369 0)
(1.35053 0.230498 -1.88579e-20)
(1.32774 0.246007 0)
(1.27511 0.254444 -3.46458e-20)
(1.22231 0.259788 1.71573e-20)
(1.17034 0.261718 -6.10412e-20)
(1.11888 0.258987 -1.59505e-21)
(1.06907 0.250228 2.35813e-20)
(1.0293 0.236643 1.00608e-19)
(1.00553 0.223089 -2.13944e-22)
(0.995354 0.211793 -3.63065e-20)
(0.976063 0.198739 -6.63296e-20)
(0.86411 0.169628 7.85306e-20)
(0.610874 0.116197 -1.39051e-19)
(0.317181 0.0594461 -1.83463e-20)
(0.105985 0.0206101 0)
(0.00299376 0.00174535 -1.37081e-23)
(-0.00993824 -0.00133023 0)
(0.268756 0.0553588 3.87774e-20)
(1.13325 0.224151 -2.11109e-20)
(1.32438 0.275124 -1.90098e-20)
(1.36877 0.295739 8.51519e-21)
(1.33977 0.307549 -1.4508e-20)
(1.28267 0.311436 7.21637e-20)
(1.2253 0.312326 3.55897e-20)
(1.16855 0.309974 0)
(1.11233 0.303037 -1.16807e-19)
(1.05798 0.29 0)
(1.01466 0.272581 -5.26138e-20)
(0.988635 0.256205 -6.54759e-20)
(0.976067 0.242448 -3.95216e-20)
(0.949434 0.225422 -4.81508e-20)
(0.824079 0.18893 0)
(0.566078 0.126303 0)
(0.285397 0.0632067 -1.1938e-19)
(0.0870766 0.0200671 2.35717e-20)
(-0.00779909 -0.00072531 -1.37916e-20)
(-0.0126778 -0.00241427 -1.61323e-20)
(0.260967 0.0677634 -4.588e-21)
(1.14486 0.282808 0)
(1.33749 0.340863 3.30581e-20)
(1.3787 0.362423 2.25738e-20)
(1.34537 0.370516 3.44471e-20)
(1.28502 0.369856 0)
(1.22406 0.366181 3.41854e-20)
(1.16338 0.35935 6.70551e-20)
(1.10307 0.347947 5.9421e-20)
(1.04467 0.330365 1.11189e-19)
(0.998043 0.308867 0)
(0.969772 0.289458 -1.41121e-19)
(0.954838 0.273056 -8.53153e-20)
(0.922603 0.251957 -5.05315e-20)
(0.791437 0.208979 3.0992e-19)
(0.537953 0.138482 3.68328e-20)
(0.270038 0.0688512 1.72832e-19)
(0.0794763 0.0206058 -8.17679e-19)
(-0.0129484 -0.00288711 4.8311e-19)
(-0.0145152 -0.00352765 -5.82188e-19)
(0.253473 0.0788932 1.15543e-20)
(1.14702 0.339467 4.07816e-22)
(1.34284 0.40573 -2.14455e-21)
(1.38199 0.428618 -1.83528e-20)
(1.34552 0.433188 -2.64188e-20)
(1.28272 0.428163 1.81169e-21)
(1.21894 0.420067 -3.71227e-20)
(1.15504 0.408825 6.8894e-20)
(1.09127 0.39295 -1.27909e-19)
(1.02927 0.370792 0)
(0.979521 0.345143 -6.37011e-20)
(0.948983 0.322556 -1.59887e-21)
(0.931736 0.303488 -9.3502e-20)
(0.895598 0.278546 0)
(0.763983 0.229823 -6.71678e-20)
(0.520218 0.152453 -1.59349e-19)
(0.264913 0.0768311 4.24017e-19)
(0.0797501 0.022636 -4.17801e-19)
(-0.0133242 -0.00419693 5.9246e-19)
(-0.015273 -0.00448999 -6.15563e-19)
(0.24711 0.089154 -5.13107e-22)
(1.14328 0.393463 4.06856e-21)
(1.34259 0.468706 1.49043e-21)
(1.38009 0.493171 5.21e-21)
(1.34128 0.49455 -1.28882e-20)
(1.27663 0.48542 0)
(1.21059 0.47314 -3.34651e-20)
(1.14399 0.457684 -7.18686e-20)
(1.07717 0.437477 -6.62014e-20)
(1.01191 0.410831 0)
(0.959262 0.381083 -6.58688e-20)
(0.92652 0.355323 -8.22522e-20)
(0.907098 0.333576 1.01552e-19)
(0.868286 0.30501 -6.17763e-20)
(0.739245 0.251381 -2.93925e-19)
(0.507413 0.167985 1.74355e-19)
(0.264655 0.0862741 5.16689e-20)
(0.0842865 0.0262942 0)
(-0.0100855 -0.00425116 -5.7422e-19)
(-0.0149503 -0.00512906 -2.10834e-20)
(0.242021 0.09888 4.95979e-21)
(1.13596 0.444635 -7.18588e-21)
(1.33823 0.529239 -2.18995e-21)
(1.37423 0.555388 2.1708e-20)
(1.33363 0.553952 -4.34287e-20)
(1.26756 0.541055 6.21387e-20)
(1.19966 0.52489 7.22281e-20)
(1.13074 0.505482 -1.14784e-19)
(1.06122 0.481154 4.16801e-20)
(0.992999 0.450172 -2.73515e-19)
(0.937623 0.416449 -7.49351e-20)
(0.902757 0.387625 0)
(0.88125 0.363232 1.10394e-19)
(0.840551 0.331373 1.32674e-19)
(0.715772 0.272925 1.58652e-19)
(0.496123 0.18448 -1.89986e-19)
(0.265584 0.0969155 -5.60902e-20)
(0.0904547 0.0313804 6.59491e-20)
(-0.00478799 -0.00304394 0)
(-0.0138479 -0.00539991 -4.58942e-20)
(0.238101 0.108173 -7.6165e-20)
(1.12674 0.493061 4.24735e-20)
(1.33105 0.58719 4.09998e-21)
(1.3654 0.614912 1.01149e-20)
(1.32337 0.610996 -1.70076e-20)
(1.25622 0.594684 -4.12918e-21)
(1.18679 0.574988 -7.94112e-20)
(1.11587 0.551929 -4.1664e-20)
(1.04394 0.523745 -1.15331e-19)
(0.97292 0.488623 3.2884e-22)
(0.914955 0.451079 -2.34351e-19)
(0.87805 0.419227 1.99682e-19)
(0.854632 0.392306 -1.21751e-19)
(0.812426 0.357228 1.46729e-19)
(0.692157 0.294281 0)
(0.484184 0.201204 -1.03618e-19)
(0.265848 0.108008 2.65475e-22)
(0.0965743 0.0374159 -2.8882e-19)
(0.00125871 -0.000938186 -4.23589e-20)
(-0.0122884 -0.00535635 0)
(0.235259 0.11727 0)
(1.11661 0.538962 4.90448e-20)
(1.32191 0.642821 2.04299e-20)
(1.35443 0.671577 -6.01392e-21)
(1.3112 0.665463 -2.48908e-20)
(1.2432 0.646088 0)
(1.17251 0.623214 -3.45022e-20)
(1.09984 0.596835 -1.05948e-21)
(1.02567 0.565089 2.47459e-19)
(0.952022 0.526079 -3.74398e-20)
(0.891556 0.484817 -1.69539e-19)
(0.852713 0.450031 1.03644e-19)
(0.8275 0.420607 -2.24861e-21)
(0.784017 0.382417 1.56299e-19)
(0.667746 0.31496 9.62742e-20)
(0.470441 0.217522 -2.23979e-19)
(0.263442 0.119019 2.65112e-19)
(0.100956 0.0438074 7.85487e-20)
(0.00686787 0.00174884 3.23527e-19)
(-0.0105324 -0.00505155 -8.63955e-19)
(0.233408 0.126302 -2.54073e-20)
(1.10625 0.582519 3.43584e-20)
(1.3114 0.695613 -2.33172e-20)
(1.34197 0.725324 -1.79936e-21)
(1.29769 0.717245 0)
(1.22904 0.695139 -2.50106e-20)
(1.15727 0.669441 1.17733e-19)
(1.08303 0.640085 9.08104e-20)
(1.0068 0.605089 0)
(0.930631 0.56246 -5.42154e-19)
(0.867696 0.517605 4.59835e-19)
(0.826976 0.479948 0)
(0.800067 0.44801 1.42879e-19)
(0.755268 0.406617 -2.23568e-21)
(0.641862 0.334633 -3.09183e-19)
(0.454812 0.232504 1.20779e-19)
(0.25823 0.129268 0)
(0.102789 0.0498398 4.24803e-19)
(0.011107 0.00441621 0)
(-0.00891541 -0.00464701 -4.09903e-19)
(0.23239 0.13531 3.04641e-20)
(1.09609 0.623928 4.47784e-20)
(1.29994 0.745615 -2.31288e-20)
(1.32852 0.776168 0)
(1.28331 0.766326 -1.60642e-20)
(1.21413 0.741798 0)
(1.14145 0.713602 -1.13482e-19)
(1.0658 0.681605 -4.09726e-20)
(0.987635 0.643701 4.32147e-20)
(0.908983 0.597718 -2.68444e-19)
(0.843572 0.549439 4.73561e-20)
(0.801001 0.508903 0)
(0.772491 0.474333 -3.05533e-19)
(0.726358 0.42951 2.15923e-21)
(0.615167 0.352724 0)
(0.436927 0.245713 1.08313e-21)
(0.250062 0.138001 3.89198e-19)
(0.101611 0.0547777 -3.67165e-19)
(0.0134214 0.00654546 1.08409e-19)
(-0.00766754 -0.00427746 0)
(0.23186 0.144211 0)
(1.08628 0.663353 5.41158e-20)
(1.28796 0.792928 3.41145e-20)
(1.31449 0.824177 -2.5438e-21)
(1.26844 0.812735 -1.30405e-21)
(1.19884 0.786065 -5.59954e-20)
(1.12538 0.755681 4.33169e-20)
(1.04844 0.721364 -4.94769e-20)
(0.968432 0.680885 1.94415e-19)
(0.887302 0.631859 -4.29736e-19)
(0.819358 0.58032 -4.16373e-21)
(0.774908 0.53685 -1.33199e-19)
(0.744828 0.499419 4.96726e-19)
(0.697269 0.450809 -2.58736e-21)
(0.587699 0.368848 -2.40844e-19)
(0.417153 0.256669 -4.27891e-19)
(0.239373 0.144709 0)
(0.0980617 0.058088 0)
(0.0139896 0.00779007 1.17069e-19)
(-0.00681767 -0.0040499 -6.86941e-20)
(0.231933 0.153141 4.29357e-20)
(1.07708 0.700541 -1.23316e-19)
(1.27574 0.837644 -3.66807e-20)
(1.30018 0.869432 0)
(1.25335 0.856528 -1.54688e-21)
(1.18343 0.827971 -4.62616e-20)
(1.10931 0.795685 1.0135e-19)
(1.0312 0.759354 1.91595e-19)
(0.949414 0.716639 2.51886e-19)
(0.865807 0.664904 -3.50775e-19)
(0.795206 0.61029 -3.96891e-19)
(0.748753 0.563784 3.5662e-19)
(0.717089 0.523211 0)
(0.667991 0.470292 -1.09674e-19)
(0.559615 0.382637 -2.60537e-19)
(0.395755 0.265052 -3.08005e-19)
(0.226388 0.149027 -3.63477e-19)
(0.0923039 0.059613 1.07355e-19)
(0.0130911 0.00810213 -6.30796e-20)
(-0.00632492 -0.00397907 3.04085e-22)
(0.232256 0.161898 0)
(1.06855 0.736119 0)
(1.26347 0.879859 2.55241e-21)
(1.28582 0.912035 0)
(1.2383 0.897793 -9.87556e-21)
(1.16813 0.867579 2.70979e-20)
(1.09344 0.833643 0)
(1.01425 0.795586 2.21446e-20)
(0.93078 0.750964 4.19312e-19)
(0.844673 0.69688 -8.0763e-19)
(0.771247 0.639405 0)
(0.722587 0.589784 -2.3004e-19)
(0.689206 0.545669 -3.03396e-21)
(0.638453 0.487734 -2.29971e-21)
(0.530958 0.393756 2.79132e-19)
(0.372777 0.270549 -5.51671e-23)
(0.211706 0.150767 -7.83523e-19)
(0.0848513 0.0593357 2.3105e-19)
(0.0111188 0.00759318 6.82593e-20)
(-0.00606942 -0.00401701 0)
(0.232764 0.170489 -1.72267e-19)
(1.06045 0.77004 -8.34535e-20)
(1.25124 0.919637 -1.08759e-19)
(1.27158 0.952092 1.06071e-19)
(1.22346 0.936603 -3.32736e-20)
(1.15311 0.904949 0)
(1.07793 0.869599 5.87919e-20)
(0.997779 0.830084 -4.99398e-20)
(0.912683 0.783876 3.9558e-21)
(0.824067 0.727823 5.98249e-20)
(0.747611 0.667744 5.14912e-19)
(0.696442 0.614992 -8.06667e-20)
(0.661067 0.566823 -3.0714e-19)
(0.608492 0.502929 -1.28036e-19)
(0.501826 0.401848 1.51524e-19)
(0.349094 0.27289 1.14358e-22)
(0.195777 0.149827 2.11093e-19)
(0.0763419 0.0573243 -4.97329e-19)
(0.00850301 0.00639381 5.8777e-19)
(-0.00595965 -0.00413268 8.56986e-20)
(0.233119 0.17885 6.55736e-20)
(1.05278 0.802399 -4.71232e-20)
(1.23921 0.957097 6.35181e-21)
(1.2576 0.989728 6.86469e-20)
(1.20896 0.973067 1.39795e-20)
(1.13849 0.940156 -4.29223e-20)
(1.06292 0.903605 1.54616e-20)
(0.981891 0.862868 -2.07112e-19)
(0.895258 0.815376 -4.60593e-19)
(0.804129 0.757744 -4.81226e-19)
(0.724438 0.695401 0)
(0.670359 0.639578 -3.55643e-19)
(0.632538 0.586777 4.43548e-19)
(0.577853 0.51571 0)
(0.472183 0.406487 -3.24814e-19)
(0.325328 0.271621 1.93004e-19)
(0.179978 0.146055 -2.27063e-19)
(0.0680461 0.0538922 -2.67634e-19)
(0.00589573 0.00480484 -4.73493e-19)
(-0.00594016 -0.00429815 -3.69111e-19)
(0.233832 0.187083 -7.42053e-20)
(1.0454 0.833181 5.04209e-20)
(1.22742 0.992302 1.15052e-19)
(1.24397 1.02501 1.00688e-19)
(1.19491 1.00728 -2.56772e-20)
(1.12438 0.973284 -1.74356e-20)
(1.0485 0.935708 5.28502e-20)
(0.966685 0.893982 -2.10931e-19)
(0.878599 0.845489 -2.72545e-19)
(0.784988 0.786664 5.03388e-19)
(0.701859 0.722461 1.13315e-18)
(0.6444 0.663712 0)
(0.603503 0.605732 0)
(0.546147 0.526067 -1.47525e-19)
(0.441687 0.40718 0)
(0.301767 0.26579 4.14793e-19)
(0.165795 0.138669 4.88116e-19)
(0.0620177 0.048947 0)
(0.00449846 0.00313437 0)
(-0.00594157 -0.00447871 3.96722e-19)
(0.234221 0.19486 8.45744e-20)
(1.03833 0.862377 6.84147e-20)
(1.21596 1.02536 8.37106e-20)
(1.23076 1.05808 -9.75876e-20)
(1.18136 1.03936 -3.48045e-20)
(1.11083 1.00441 9.63916e-21)
(1.03473 0.965969 -7.12358e-20)
(0.952231 0.923452 -4.94453e-22)
(0.862793 0.874218 -5.15922e-21)
(0.766747 0.814581 -4.62133e-21)
(0.680023 0.748998 5.8408e-19)
(0.61866 0.687535 0)
(0.573903 0.623975 4.50701e-19)
(0.512935 0.534225 3.15364e-19)
(0.409544 0.403662 7.58962e-19)
(0.27798 0.253932 2.23655e-19)
(0.154804 0.12482 -2.62641e-19)
(0.0629614 0.0391489 -1.54203e-19)
(0.0102753 3.73219e-05 0)
(-0.0045079 -0.00434511 4.26406e-19)
(0.234964 0.202661 -1.91007e-19)
(1.03152 0.890128 0)
(1.20482 1.05633 9.88877e-20)
(1.21801 1.089 -8.30648e-20)
(1.16838 1.06938 4.86033e-20)
(1.09788 1.03362 4.4334e-21)
(1.02166 0.994441 1.30626e-19)
(0.938571 0.951312 -1.77571e-20)
(0.847887 0.901575 0)
(0.749495 0.841468 -5.54407e-19)
(0.659076 0.77505 -1.2701e-18)
(0.593274 0.711178 5.2558e-20)
(0.543784 0.641824 6.23523e-19)
(0.477888 0.540695 0)
(0.374532 0.396392 5.13002e-19)
(0.251553 0.234798 0)
(0.145126 0.0979943 0)
(0.0768653 0.00853579 -1.66741e-19)
(0.0491939 -0.0180674 0)
(0.0260653 0.005447 1.14243e-19)
(0.235282 0.209893 -2.13926e-19)
(1.02496 0.916642 0)
(1.19399 1.0854 1.64934e-19)
(1.20566 1.11802 0)
(1.15593 1.09764 -2.99686e-20)
(1.08549 1.0612 0)
(1.00922 1.02144 5.12904e-21)
(0.92561 0.9779 2.87167e-20)
(0.833758 0.927921 3.41828e-20)
(0.733059 0.867703 -6.07144e-19)
(0.63883 0.80107 3.79232e-20)
(0.567959 0.735287 4.24707e-19)
(0.512672 0.660069 6.09005e-19)
(0.440056 0.5462 8.22727e-20)
(0.334746 0.386909 4.02813e-19)
(0.21736 0.209317 0)
(0.124476 0.0539814 5.53651e-19)
(0.0701873 -0.0298707 -3.23011e-19)
(0.0315977 0.0550479 3.75137e-19)
(-0.0383036 0.455685 -4.47171e-19)
(0.235557 0.216968 1.77473e-19)
(1.01841 0.941796 2.73634e-19)
(1.1834 1.1129 0)
(1.19357 1.14559 5.12451e-21)
(1.14381 1.1247 8.9287e-20)
(1.07336 1.08783 -4.76906e-20)
(0.997099 1.04776 4.06248e-20)
(0.912933 1.00416 0)
(0.819871 0.954359 2.23081e-19)
(0.716751 0.8946 -3.13104e-20)
(0.618358 0.828566 0)
(0.541402 0.761578 0)
(0.478514 0.680092 5.46706e-19)
(0.396901 0.551186 -2.54813e-19)
(0.287012 0.377015 -4.09085e-19)
(0.171192 0.180551 0)
(0.0713386 0.0704136 2.79513e-19)
(0.00614922 0.463151 -3.22454e-19)
(0.0312373 1.92569 -1.80172e-19)
(0.0577386 2.82436 -2.27387e-19)
(0.235476 0.223487 -1.33462e-19)
(1.01191 0.965758 -3.5161e-19)
(1.17306 1.13883 9.82916e-20)
(1.18176 1.17158 8.15006e-20)
(1.13207 1.15036 0)
(1.06161 1.11325 -4.45973e-20)
(0.985509 1.07309 4.82947e-20)
(0.900733 1.02966 -1.35044e-20)
(0.806508 0.980371 3.34686e-20)
(0.700967 0.921557 5.76995e-19)
(0.598286 0.856871 6.42082e-19)
(0.514578 0.789855 4.77138e-19)
(0.442108 0.701974 5.51324e-19)
(0.349785 0.554759 -6.00424e-19)
(0.237599 0.370373 -6.19025e-19)
(0.113356 0.233019 0)
(0.0397441 0.881978 0)
(0.0875344 2.58035 1.54612e-19)
(0.0902913 3.2115 0)
(0.0916977 3.38936 3.73805e-19)
(0.238118 0.22956 0)
(1.00574 0.9889 0)
(1.16268 1.16303 0)
(1.17 1.19585 2.46439e-20)
(1.12038 1.17439 8.23319e-20)
(1.05005 1.13731 -4.61889e-20)
(0.974372 1.09733 2.82e-20)
(0.888945 1.05427 -1.29363e-20)
(0.793605 1.00578 2.74262e-19)
(0.685697 0.948414 -9.03408e-21)
(0.578702 0.885765 1.26728e-18)
(0.487857 0.820196 -5.53141e-20)
(0.403354 0.72642 6.68593e-20)
(0.30074 0.555064 8.71546e-20)
(0.177891 0.388069 -2.44557e-21)
(0.0916541 1.01273 1.71645e-21)
(0.124914 2.76149 -8.19193e-19)
(0.129722 3.30118 -3.06421e-19)
(0.120268 3.42404 1.57965e-19)
(0.109665 3.4439 -1.7565e-19)
(0.161527 0.175188 7.8903e-20)
(0.99571 1.01413 0)
(1.15207 1.18571 -1.97423e-19)
(1.15867 1.21882 -2.21434e-19)
(1.10919 1.19725 1.94111e-19)
(1.03933 1.16049 5.36008e-20)
(0.963522 1.12047 -2.51073e-20)
(0.8776 1.07804 1.32539e-19)
(0.781238 1.03068 -2.2221e-19)
(0.671156 0.975289 0)
(0.559891 0.915304 6.21535e-19)
(0.461789 0.852385 -3.89258e-19)
(0.363949 0.756331 0)
(0.243411 0.555999 8.18774e-20)
(0.131131 0.765931 1.97272e-19)
(0.139314 2.5638 -2.25353e-19)
(0.187743 3.32902 2.53193e-19)
(0.170359 3.43496 1.36909e-19)
(0.141253 3.4537 1.53659e-19)
(0.121983 3.46238 2.46755e-19)
(0.273222 0.26792 -1.50636e-19)
(0.978786 1.02478 0)
(1.13424 1.21197 2.15721e-19)
(1.14432 1.25005 2.43537e-19)
(1.09193 1.23101 -2.15899e-19)
(1.02146 1.19464 -7.79505e-20)
(0.944463 1.15616 3.80232e-21)
(0.85799 1.11506 1.05558e-20)
(0.760205 1.06998 2.06748e-19)
(0.647161 1.01879 4.90919e-19)
(0.530222 0.965207 3.46692e-20)
(0.420377 0.907149 3.45024e-19)
(0.292459 0.793354 6.25864e-20)
(0.205221 0.937491 -8.03236e-20)
(0.210569 2.43852 -1.79834e-19)
(0.261799 3.33398 1.73603e-19)
(0.244882 3.46119 -1.93618e-19)
(0.210499 3.47978 -1.12234e-19)
(0.176912 3.50394 -9.71409e-20)
(0.131944 3.49824 -1.14454e-20)
(0.263563 0.266949 0)
(0.976256 1.04797 6.23494e-20)
(1.12579 1.23584 -4.45176e-20)
(1.13352 1.2739 -2.90214e-20)
(1.08099 1.25446 -1.49486e-19)
(1.01049 1.21827 8.06984e-20)
(0.933185 1.18004 5.87855e-21)
(0.846468 1.1398 9.10862e-21)
(0.748056 1.09626 -2.12448e-19)
(0.63353 1.04808 -1.39823e-20)
(0.513401 0.999416 -1.11653e-18)
(0.397355 0.944387 4.94063e-20)
(0.277011 0.866729 -5.89061e-20)
(0.239999 1.54911 -7.38681e-20)
(0.30227 3.14363 1.77048e-20)
(0.315776 3.46368 1.35117e-21)
(0.274222 3.51071 2.84074e-19)
(0.240266 3.53334 1.42036e-19)
(0.194652 3.55305 -4.14837e-20)
(0.144741 3.54902 -5.56285e-20)
(0.249686 0.265137 1.58231e-19)
(0.972838 1.07375 4.24872e-19)
(1.11697 1.26176 -1.2771e-19)
(1.12227 1.29928 -1.09722e-19)
(1.06956 1.27937 0)
(0.99914 1.24321 1.44323e-19)
(0.921808 1.20526 2.39578e-20)
(0.835099 1.16585 7.5428e-21)
(0.736372 1.12394 -2.3884e-20)
(0.620902 1.07903 -4.35332e-19)
(0.498488 1.03587 -5.11214e-19)
(0.3778 0.983607 -4.0072e-19)
(0.276734 1.01026 -4.44246e-19)
(0.304656 2.31002 4.56125e-19)
(0.382583 3.39143 3.79797e-19)
(0.354709 3.52084 0)
(0.306642 3.55686 0)
(0.269953 3.5901 -3.30724e-20)
(0.225537 3.63509 0)
(0.156192 3.61876 -4.64933e-20)
(0.239924 0.267205 -2.37046e-19)
(0.967483 1.10042 -3.61164e-19)
(1.10677 1.28893 0)
(1.10976 1.32548 6.16979e-21)
(1.0569 1.30494 -1.61784e-19)
(0.986732 1.26873 2.33518e-19)
(0.909686 1.2311 2.4532e-20)
(0.823212 1.19242 2.50205e-21)
(0.724428 1.15212 -1.41753e-19)
(0.608447 1.1105 2.11062e-20)
(0.484661 1.07297 0)
(0.359583 1.02668 0)
(0.300074 1.29995 -4.00675e-19)
(0.382846 2.97315 1.60393e-19)
(0.447491 3.49137 2.0296e-19)