/*--------------------------------*- C++ -*----------------------------------*\
  =========                 |
  \\      /  F ield         | OpenFOAM: The Open Source CFD Toolbox
   \\    /   O peration     | Website:  https://openfoam.org
    \\  /    A nd           | Version:  6
     \\/     M anipulation  |
\*---------------------------------------------------------------------------*/
FoamFile
{
    version     2.0;
    format      ascii;
    class       volScalarField;
    location    "19";
    object      p;
}
// * * * * * * * * * * * * * * * * * * * * * * * * * * * * * * * * * * * * * //

dimensions      [0 2 -2 0 0 0 0];

internalField   nonuniform List<scalar> 
8800
(
0.430221
0.380915
0.342957
0.314889
0.29472
0.280112
0.269487
0.261909
0.256958
0.25474
0.255861
0.25993
0.266494
0.275737
0.288351
0.305585
0.329398
0.362451
0.40535
0.457869
0.264685
0.271034
0.280191
0.283748
0.281149
0.275071
0.268137
0.261862
0.25699
0.254009
0.253572
0.255906
0.260298
0.26623
0.273161
0.280059
0.284842
0.284648
0.277925
0.269001
0.238217
0.244468
0.248992
0.252892
0.255871
0.256847
0.255769
0.253629
0.251538
0.250485
0.251263
0.253456
0.256085
0.258117
0.258451
0.256509
0.253025
0.24892
0.24408
0.24035
0.233893
0.236673
0.239333
0.241555
0.243358
0.244981
0.246114
0.246411
0.246124
0.245951
0.246484
0.247393
0.247879
0.247466
0.246244
0.244682
0.242838
0.240394
0.237901
0.236331
0.228859
0.230296
0.232199
0.234356
0.236124
0.237438
0.2385
0.239421
0.240134
0.240633
0.241003
0.241073
0.240747
0.240127
0.239228
0.237897
0.236037
0.233972
0.232525
0.231726
0.223928
0.224836
0.226183
0.227942
0.22975
0.231345
0.232643
0.23373
0.234685
0.235467
0.235824
0.235734
0.235333
0.234593
0.233472
0.231974
0.230316
0.228806
0.227871
0.227363
0.219198
0.219849
0.220964
0.222511
0.224193
0.225932
0.227579
0.228962
0.230066
0.230937
0.23142
0.231412
0.230905
0.229914
0.228583
0.227138
0.225701
0.224445
0.223725
0.223374
0.214826
0.215303
0.216283
0.217743
0.219329
0.220971
0.222667
0.224302
0.225709
0.226778
0.227383
0.227343
0.226708
0.225687
0.224483
0.223208
0.22189
0.220771
0.220192
0.219948
0.210783
0.211109
0.211948
0.213268
0.214725
0.216171
0.217596
0.219083
0.220594
0.221939
0.222651
0.222695
0.222314
0.22169
0.220847
0.219798
0.218666
0.217711
0.217267
0.217113
0.207388
0.207584
0.208315
0.209571
0.211001
0.212519
0.214134
0.215706
0.217205
0.218596
0.219611
0.220022
0.219884
0.219287
0.218456
0.217515
0.21649
0.215661
0.215336
0.215261
0.204735
0.204843
0.205338
0.206287
0.207428
0.208659
0.210005
0.211569
0.213277
0.214978
0.216255
0.216872
0.216999
0.216846
0.216464
0.215907
0.215271
0.214779
0.214609
0.21457
0.202124
0.2022
0.202503
0.203132
0.203993
0.205064
0.206349
0.207864
0.209599
0.211512
0.213192
0.214296
0.214874
0.21508
0.215041
0.214897
0.214675
0.214516
0.214451
0.214416
0.198883
0.198957
0.199194
0.199669
0.200391
0.201378
0.202697
0.204372
0.206418
0.208748
0.21087
0.212346
0.213269
0.213737
0.214037
0.214206
0.21429
0.214318
0.2143
0.214263
0.194783
0.194841
0.195087
0.195551
0.19625
0.197243
0.198636
0.200472
0.202808
0.20561
0.208312
0.210344
0.211702
0.212687
0.213304
0.21371
0.213975
0.214082
0.214089
0.214054
0.189922
0.189969
0.190241
0.190819
0.191626
0.192799
0.194466
0.196677
0.199501
0.202944
0.206347
0.208975
0.210835
0.212097
0.212966
0.213548
0.213887
0.214027
0.214065
0.214039
0.184394
0.18443
0.184741
0.185454
0.186487
0.187851
0.189849
0.1925
0.195932
0.20018
0.204471
0.207851
0.210289
0.212
0.213151
0.213916
0.214327
0.214527
0.214603
0.214583
0.178202
0.178237
0.178564
0.179386
0.180695
0.182393
0.184806
0.188034
0.192252
0.197525
0.202904
0.207195
0.210319
0.212516
0.214024
0.214985
0.215548
0.215846
0.215958
0.215937
0.171147
0.171184
0.171583
0.172488
0.173998
0.176161
0.179094
0.183072
0.188311
0.194882
0.201603
0.207009
0.210939
0.213732
0.215661
0.216917
0.217685
0.218106
0.218255
0.218228
0.16285
0.162897
0.163386
0.164478
0.166258
0.168871
0.172518
0.177501
0.184051
0.192259
0.200649
0.207381
0.212313
0.215828
0.218245
0.219859
0.220876
0.221433
0.221619
0.221583
0.152784
0.152843
0.153446
0.154808
0.157043
0.160303
0.164896
0.171165
0.179396
0.189667
0.200107
0.20846
0.214587
0.218926
0.221936
0.223968
0.225264
0.225967
0.226194
0.226149
0.140445
0.140528
0.141318
0.143059
0.145902
0.150061
0.155915
0.163885
0.174284
0.187139
0.200087
0.210382
0.21789
0.223225
0.22694
0.229463
0.231078
0.231945
0.232223
0.232164
0.125037
0.125151
0.126202
0.12851
0.132257
0.137686
0.14528
0.155521
0.168699
0.184748
0.2007
0.213276
0.222421
0.228932
0.233483
0.236594
0.238593
0.239652
0.239986
0.239912
0.105391
0.105551
0.107014
0.110209
0.11532
0.122611
0.132657
0.145936
0.162663
0.182614
0.202106
0.217327
0.228375
0.236264
0.241814
0.24564
0.248117
0.249434
0.24983
0.249731
0.0797413
0.0799963
0.0821621
0.0868184
0.094062
0.104156
0.117702
0.135072
0.156291
0.180911
0.204475
0.222695
0.235917
0.245415
0.252162
0.256865
0.25993
0.261551
0.262024
0.261896
0.0450204
0.0455161
0.0490859
0.056452
0.0672973
0.0817741
0.100347
0.123119
0.149849
0.179879
0.207984
0.229507
0.245151
0.256498
0.264681
0.270491
0.274324
0.276341
0.276899
0.276725
-0.00471408
-0.00309987
0.00415854
0.0170694
0.0342336
0.0554903
0.0809896
0.110558
0.143761
0.179813
0.212796
0.237826
0.25607
0.269469
0.279338
0.28653
0.291414
0.294017
0.2947
0.294458
-0.0783097
-0.069521
-0.0530252
-0.0302278
-0.00359492
0.026652
0.0605717
0.097958
0.138361
0.181019
0.219367
0.248346
0.269642
0.285561
0.297666
0.306896
0.313427
0.31716
0.318287
0.318212
-0.156155
-0.137819
-0.111265
-0.0780756
-0.0416576
-0.00231627
0.0401056
0.0855133
0.133549
0.183594
0.228395
0.262448
0.28782
0.307205
0.322321
0.334293
0.343282
0.348934
0.350878
0.350961
-0.220982
-0.198973
-0.164391
-0.12267
-0.0776962
-0.0298749
0.0207127
0.0738793
0.129278
0.186334
0.237086
0.275635
0.304472
0.326649
0.3441
0.357905
0.368511
0.375184
0.377087
0.377334
-0.272991
-0.248735
-0.209153
-0.161526
-0.1099
-0.0550981
0.00257505
0.0627497
0.124944
0.18846
0.244534
0.286865
0.318377
0.342484
0.361334
0.376227
0.387595
0.394755
0.397077
0.397458
-0.315599
-0.290249
-0.247182
-0.194965
-0.138123
-0.0776724
-0.0140685
0.0521804
0.120422
0.189736
0.250491
0.295965
0.329472
0.354854
0.374506
0.389926
0.401595
0.409005
0.411591
0.411955
-0.351929
-0.325964
-0.280384
-0.224457
-0.163297
-0.0981057
-0.029421
0.0421542
0.115759
0.190302
0.255226
0.303384
0.33851
0.364815
0.384942
0.400528
0.412192
0.419559
0.422295
0.422638
-0.383997
-0.357667
-0.310151
-0.251166
-0.186348
-0.117043
-0.0438737
0.0324565
0.110947
0.190299
0.259146
0.309837
0.34642
0.373468
0.393877
0.409479
0.421066
0.428387
0.431203
0.431544
-0.413246
-0.386602
-0.337453
-0.275895
-0.207944
-0.135056
-0.0578797
0.0227847
0.105836
0.189786
0.262419
0.315521
0.353482
0.381245
0.401964
0.417643
0.429193
0.436411
0.439266
0.43961
-0.440558
-0.413631
-0.363086
-0.29928
-0.228591
-0.152521
-0.0717424
0.0128724
0.100192
0.188537
0.264881
0.320507
0.359994
0.388614
0.409748
0.425572
0.437128
0.444237
0.447059
0.447455
-0.466612
-0.439346
-0.387537
-0.321709
-0.248594
-0.169714
-0.0857129
0.00252141
0.0938179
0.186446
0.266679
0.325041
0.366236
0.395863
0.417533
0.433595
0.445203
0.452233
0.454966
0.455357
-0.491678
-0.464055
-0.411106
-0.343488
-0.26823
-0.18683
-0.0999165
-0.00836503
0.0867008
0.183579
0.267791
0.329105
0.372265
0.403107
0.425489
0.441919
0.453656
0.460637
0.463237
0.463556
-0.516085
-0.488021
-0.434032
-0.364794
-0.287611
-0.203948
-0.114405
-0.0198016
0.0788057
0.179778
0.268067
0.332628
0.378077
0.410401
0.433686
0.450619
0.462561
0.46952
0.471968
0.472192
-0.539887
-0.511375
-0.456406
-0.385711
-0.306818
-0.221133
-0.129227
-0.0318474
0.0700188
0.174945
0.267431
0.335521
0.383594
0.417711
0.442125
0.459712
0.471936
0.478895
0.481199
0.481287
-0.563142
-0.53416
-0.478288
-0.406287
-0.325868
-0.238393
-0.144389
-0.0445313
0.0603366
0.169046
0.265743
0.337637
0.388703
0.424967
0.450769
0.469166
0.481727
0.488645
0.490791
0.490752
-0.585889
-0.556436
-0.499682
-0.426504
-0.344742
-0.255688
-0.159841
-0.0577816
0.0498038
0.162031
0.262874
0.338779
0.393249
0.432073
0.459568
0.478931
0.491866
0.498692
0.500626
0.500466
-0.608143
-0.578157
-0.520563
-0.44633
-0.363384
-0.272961
-0.175507
-0.0715281
0.0384473
0.153874
0.258719
0.338739
0.396977
0.438872
0.468479
0.488993
0.502285
0.508922
0.510566
0.510292
-0.629742
-0.59926
-0.54088
-0.465724
-0.381742
-0.29013
-0.19131
-0.0856924
0.0263425
0.144615
0.253195
0.337327
0.399595
0.445122
0.477457
0.499414
0.512925
0.519106
0.520354
0.519966
-0.650643
-0.619701
-0.560597
-0.484622
-0.399744
-0.307123
-0.207152
-0.10018
0.0135932
0.1343
0.246256
0.33436
0.400789
0.450457
0.486386
0.510452
0.524034
0.529144
0.529702
0.529222
-0.67089
-0.639438
-0.57968
-0.50298
-0.417319
-0.323851
-0.222935
-0.114868
0.00030889
0.12302
0.237894
0.329715
0.400217
0.454327
0.494867
0.522439
0.536557
0.539535
0.538378
0.537803
-0.690335
-0.658442
-0.598077
-0.520731
-0.434408
-0.34023
-0.238555
-0.129638
-0.0133793
0.11091
0.22815
0.3233
0.397605
0.456039
0.501992
0.535129
0.552131
0.55319
0.547699
0.54442
-0.709053
-0.676727
-0.615791
-0.537904
-0.451041
-0.356303
-0.254068
-0.144555
-0.0275415
0.0979021
0.2169
0.314874
0.39266
0.454787
0.50624
0.54691
0.570665
0.575165
0.56415
0.557753
-0.726981
-0.694351
-0.632962
-0.554682
-0.467503
-0.372406
-0.269888
-0.16011
-0.0427478
0.0833075
0.203403
0.303518
0.384636
0.44928
0.504552
0.552748
0.583279
0.58625
0.575663
0.561495
-0.744012
-0.711295
-0.64944
-0.570859
-0.483574
-0.388243
-0.285795
-0.175968
-0.0586603
0.0674501
0.187898
0.288971
0.373205
0.439002
0.492269
0.541286
0.571907
0.562587
0.500498
0.467829
-0.760035
-0.728264
-0.664791
-0.585932
-0.498652
-0.403358
-0.301535
-0.191871
-0.0750017
0.050531
0.17052
0.271055
0.357698
0.424897
0.467115
0.503482
0.516729
0.475711
0.408355
0.36609
-0.801698
-0.744559
-0.678941
-0.600616
-0.513431
-0.418587
-0.316995
-0.207924
-0.0919407
0.0322911
0.150972
0.249648
0.335618
0.408199
0.424161
0.432142
0.408885
0.353234
0.280456
0.240285
-0.775468
-0.757576
-0.699902
-0.622723
-0.535494
-0.441225
-0.340643
-0.23282
-0.118675
0.00268092
0.117724
0.212258
0.289753
0.359658
0.362652
0.26081
0.167545
0.104636
0.0372347
0.077282
-0.804987
-0.774282
-0.715996
-0.638823
-0.552052
-0.458326
-0.3579
-0.251109
-0.138553
-0.0198411
0.0914509
0.181598
0.250389
0.287554
0.241583
0.0986591
-0.0190965
-0.0975724
-0.188192
-0.125405
-0.82744
-0.794474
-0.73448
-0.657099
-0.570603
-0.477111
-0.377073
-0.271443
-0.160767
-0.0452016
0.0614531
0.145572
0.203199
0.206328
0.0949153
-0.0825561
-0.228552
-0.329672
-0.440534
-0.391029
-0.848902
-0.814995
-0.75378
-0.675899
-0.589395
-0.496144
-0.396824
-0.292497
-0.183894
-0.0718132
0.0294163
0.10651
0.148303
0.112146
-0.0626134
-0.271796
-0.461743
-0.622119
-0.765995
-0.724561
-0.869763
-0.835641
-0.773731
-0.695421
-0.608841
-0.515901
-0.417417
-0.314508
-0.208212
-0.0999851
-0.00479516
0.0644528
0.0861971
0.00725762
-0.219827
-0.459067
-0.689649
-0.886814
-1.13908
-1.23356
-0.890691
-0.85682
-0.794589
-0.71599
-0.629333
-0.536666
-0.438957
-0.337471
-0.233559
-0.129387
-0.0405187
0.0197253
0.0201234
-0.117785
-0.364923
-0.62567
-0.873272
-1.08136
-1.24847
-1.44245
-0.912537
-0.878901
-0.816614
-0.737912
-0.651295
-0.558985
-0.462142
-0.362237
-0.261017
-0.161402
-0.0794506
-0.0295826
-0.0595394
-0.249651
-0.501084
-0.763292
-0.991806
-1.12738
-1.16564
-1.18351
-0.935486
-0.902089
-0.839861
-0.76121
-0.674786
-0.582975
-0.4872
-0.38918
-0.291053
-0.196615
-0.1222
-0.0849137
-0.148107
-0.376485
-0.6264
-0.868663
-1.05239
-1.10779
-1.12404
-1.12527
-0.959769
-0.926451
-0.864306
-0.785793
-0.699674
-0.608546
-0.514025
-0.418226
-0.323605
-0.234867
-0.168776
-0.148146
-0.24134
-0.499091
-0.739696
-0.957811
-1.08511
-1.10289
-1.1028
-1.10264
-0.985229
-0.951972
-0.889887
-0.811567
-0.725868
-0.635568
-0.54248
-0.449214
-0.358548
-0.275854
-0.219471
-0.213842
-0.34908
-0.616083
-0.844195
-1.02591
-1.08734
-1.09186
-1.09126
-1.09028
-1.01162
-0.9784
-0.916418
-0.838357
-0.753173
-0.663832
-0.572373
-0.481841
-0.395736
-0.319049
-0.274023
-0.28264
-0.464849
-0.734595
-0.942443
-1.06347
-1.07765
-1.08321
-1.08431
-1.08382
-1.03828
-1.00532
-0.943589
-0.86585
-0.781283
-0.693021
-0.603345
-0.515639
-0.434752
-0.363959
-0.33076
-0.360711
-0.568058
-0.857996
-1.05743
-1.08426
-1.09637
-1.08513
-1.0769
-1.07586
-1.06463
-1.03218
-0.970905
-0.893583
-0.809724
-0.722658
-0.634856
-0.549973
-0.474707
-0.410438
-0.386562
-0.448623
-0.656037
-0.967495
-1.24183
-1.22048
-1.16342
-1.129
-1.10723
-1.09802
-1.09005
-1.05827
-0.997684
-0.920925
-0.83786
-0.752074
-0.666206
-0.583985
-0.514084
-0.45823
-0.43939
-0.540974
-0.753488
-1.00128
-1.38569
-1.4438
-1.3362
-1.29658
-1.2652
-1.24519
-1.11352
-1.08266
-1.02309
-0.94706
-0.864915
-0.780346
-0.696473
-0.616651
-0.550681
-0.506241
-0.488983
-0.620672
-0.87817
-0.948314
-1.06443
-1.15827
-1.41141
-1.53147
-1.50033
-1.48405
-1.13361
-1.1042
-1.04609
-0.971031
-0.8899
-0.806467
-0.724282
-0.646906
-0.582285
-0.550484
-0.535219
-0.680623
-0.985772
-0.981468
-0.700021
-0.905916
-1.33372
-1.48613
-1.48982
-1.49686
-1.14903
-1.12159
-1.0655
-0.991726
-0.911632
-0.82937
-0.748062
-0.672992
-0.608021
-0.581532
-0.588083
-0.721572
-1.19998
-1.52205
-1.64587
-1.93981
-2.0328
-1.80574
-1.63641
-1.64373
-1.15876
-1.13372
-1.08016
-1.00798
-0.928957
-0.847612
-0.766779
-0.69216
-0.627069
-0.594639
-0.611905
-0.794516
-1.45037
-2.34903
-2.99737
-3.33527
-3.26556
-2.94667
-2.55218
-2.41289
-1.16104
-1.13915
-1.08907
-1.01876
-0.940747
-0.859911
-0.779319
-0.702746
-0.635501
-0.595472
-0.593141
-0.84473
-1.42268
-2.42588
-3.1719
-3.41363
-3.41383
-3.23216
-2.97146
-2.77559
-1.15558
-1.13732
-1.09122
-1.02326
-0.946091
-0.865574
-0.784294
-0.704164
-0.633851
-0.56683
-0.567514
-0.614048
-1.05993
-1.5772
-2.23789
-2.42427
-2.19199
-1.84138
-1.5561
-1.4076
-1.14115
-1.1267
-1.08594
-1.02092
-0.944743
-0.864155
-0.781077
-0.697882
-0.614743
-0.523559
-0.4677
-0.325386
-0.35931
-0.29483
-0.0250654
0.287785
0.688887
1.01919
1.20032
1.27136
-1.11883
-1.10834
-1.07325
-1.01171
-0.936405
-0.855658
-0.771349
-0.683962
-0.587772
-0.482453
-0.348488
-0.231154
0.125412
0.656497
1.30957
1.96878
2.44531
2.72715
2.86036
2.90011
-1.08923
-1.08257
-1.05355
-0.995747
-0.920783
-0.841267
-0.757695
-0.667352
-0.565999
-0.439606
-0.293594
-0.159229
0.0663134
0.620397
1.29514
1.89051
2.31662
2.56349
2.67776
2.71405
-1.05188
-1.04849
-1.0253
-0.97068
-0.898814
-0.821838
-0.740942
-0.653959
-0.553134
-0.422838
-0.27039
-0.146289
-0.0308546
0.343202
0.850134
1.28353
1.6021
1.79194
1.89058
1.92594
-1.00142
-0.999687
-0.981946
-0.93382
-0.867613
-0.796681
-0.724228
-0.647375
-0.553733
-0.432505
-0.268346
-0.149577
-0.04671
0.162824
0.467185
0.742984
0.953491
1.09326
1.16678
1.19003
-0.924203
-0.923102
-0.910478
-0.874789
-0.822714
-0.766197
-0.709628
-0.649809
-0.573093
-0.454897
-0.302631
-0.172946
-0.0303149
0.0760648
0.281246
0.454926
0.587309
0.675832
0.72547
0.74307
-0.836424
-0.834764
-0.82631
-0.804604
-0.771544
-0.73452
-0.697585
-0.659081
-0.606922
-0.510201
-0.379801
-0.252982
-0.0972944
-0.0144679
0.0973475
0.220284
0.3078
0.365664
0.393465
0.400231
-0.767754
-0.766058
-0.761033
-0.75018
-0.733275
-0.714724
-0.698948
-0.688489
-0.676526
-0.638076
-0.543363
-0.411424
-0.238415
-0.162043
-0.102509
-0.0131227
0.0644995
0.118818
0.146614
0.151037
-0.727833
-0.727108
-0.725342
-0.721584
-0.716611
-0.714546
-0.722141
-0.749227
-0.803581
-0.876309
-0.888381
-0.725493
-0.493818
-0.382288
-0.29795
-0.208027
-0.123188
-0.0675958
-0.0394786
-0.0385314
-0.702442
-0.70316
-0.704184
-0.705764
-0.710543
-0.724057
-0.75701
-0.83163
-0.989124
-1.23959
-1.4086
-1.21236
-0.875519
-0.689357
-0.556176
-0.418647
-0.302411
-0.225749
-0.194519
-0.196431
-0.670598
-0.672474
-0.675868
-0.682052
-0.695074
-0.722233
-0.778702
-0.900549
-1.1668
-1.6313
-1.95743
-1.70426
-1.26071
-1.00662
-0.809535
-0.619744
-0.478795
-0.392575
-0.365017
-0.367489
-0.618391
-0.620953
-0.625784
-0.634703
-0.652313
-0.686873
-0.755982
-0.903142
-1.22846
-1.81919
-2.19629
-1.91179
-1.46176
-1.17939
-0.945101
-0.762219
-0.647793
-0.595421
-0.579789
-0.579056
-0.540438
-0.542958
-0.547817
-0.556899
-0.574182
-0.607442
-0.672686
-0.80987
-1.11329
-1.66189
-1.99977
-1.75921
-1.419
-1.16749
-0.942283
-0.817937
-0.769962
-0.75776
-0.747293
-0.742472
-0.441926
-0.443817
-0.447583
-0.454386
-0.467503
-0.49226
-0.540045
-0.638453
-0.852438
-1.24114
-1.49384
-1.3605
-1.1285
-0.907208
-0.772672
-0.725506
-0.739576
-0.749644
-0.744997
-0.740552
-0.335194
-0.33622
-0.338395
-0.342235
-0.349668
-0.363457
-0.389473
-0.44145
-0.550807
-0.75214
-0.892008
-0.801763
-0.668993
-0.544761
-0.517089
-0.547701
-0.581224
-0.595361
-0.596436
-0.59504
-0.234001
-0.234282
-0.235089
-0.236463
-0.239126
-0.243878
-0.252437
-0.268683
-0.300576
-0.352183
-0.375532
-0.325576
-0.270675
-0.272949
-0.323312
-0.370351
-0.397323
-0.408354
-0.411916
-0.41215
-0.148365
-0.148188
-0.148185
-0.148142
-0.147976
-0.147407
-0.146073
-0.143337
-0.137957
-0.124226
-0.0979067
-0.0671091
-0.0810109
-0.129266
-0.181446
-0.219547
-0.239248
-0.248674
-0.252616
-0.253651
-0.0825448
-0.0821854
-0.0818705
-0.0813387
-0.0801098
-0.0774394
-0.0723552
-0.0632596
-0.0477862
-0.0233058
0.000355728
0.0075269
-0.0158933
-0.0560221
-0.0926896
-0.117604
-0.131042
-0.137589
-0.14094
-0.142012
-0.0359987
-0.0356385
-0.0353191
-0.0348369
-0.0336196
-0.0308498
-0.0255422
-0.016349
-0.00188143
0.0176696
0.031441
0.028399
0.00860016
-0.0183567
-0.0414908
-0.0569022
-0.0654277
-0.0698234
-0.0721555
-0.0729376
-0.00549999
-0.00522113
-0.00501814
-0.00479737
-0.00400481
-0.00193764
0.00214046
0.00911701
0.0195816
0.0321719
0.0384465
0.0326557
0.0181677
0.00119643
-0.012966
-0.0225272
-0.0280211
-0.030913
-0.0324048
-0.0329044
0.0129418
0.0131235
0.0131954
0.0131528
0.013476
0.0147176
0.0173863
0.0219603
0.0285329
0.0356782
0.0377453
0.0321534
0.0220983
0.0114045
0.00261648
-0.00348841
-0.00716575
-0.00912859
-0.010083
-0.0103831
0.0229419
0.0230423
0.0230108
0.022775
0.0227299
0.0232777
0.0247541
0.0274233
0.0311751
0.0347792
0.0347145
0.0300347
0.0231623
0.0162937
0.0106771
0.00665418
0.00412269
0.00276305
0.00213851
0.00194437
0.0273134
0.0273585
0.0272567
0.026905
0.0266291
0.0266894
0.0273084
0.0286087
0.0304439
0.0319273
0.0309626
0.0272896
0.0225598
0.0180208
0.0143136
0.011589
0.00981122
0.00885105
0.0084321
0.00830977
0.0280501
0.0280619
0.0279272
0.0275404
0.027144
0.0269161
0.0270036
0.0274608
0.0281436
0.0284321
0.0271324
0.0242816
0.0209574
0.0178687
0.0153456
0.0134531
0.0121839
0.0114977
0.0112141
0.0111315
0.0265038
0.0264981
0.0263572
0.0259824
0.0255454
0.0251719
0.024955
0.0249156
0.0249427
0.0246217
0.023291
0.0210987
0.0187252
0.0165732
0.0148153
0.0134772
0.0125623
0.012068
0.0118725
0.0118172
0.0235567
0.0235439
0.0234145
0.0230788
0.0226584
0.0222414
0.0218873
0.0216017
0.0213015
0.0207184
0.0195048
0.0178294
0.0161155
0.0145916
0.0133471
0.0123902
0.0117271
0.0113696
0.0112336
0.0111962
0.0197674
0.0197535
0.0196446
0.0193619
0.0189896
0.0185929
0.0182086
0.017837
0.0174204
0.0167861
0.0157609
0.0145015
0.0132684
0.0121874
0.011305
0.0106209
0.0101418
0.00988425
0.00978981
0.00976432
0.0154758
0.0154637
0.0153786
0.0151541
0.0148472
0.0145096
0.0141634
0.0138072
0.0134022
0.0128418
0.0120458
0.0111382
0.0102756
0.00952614
0.00891247
0.00843143
0.00809076
0.00790863
0.00784452
0.00782741
0.0108854
0.010876
0.0108144
0.0106486
0.0104183
0.0101648
0.00990107
0.00962455
0.00931061
0.00889661
0.00834813
0.0077502
0.00719267
0.00670925
0.00630902
0.00598869
0.0057573
0.0056341
0.00559234
0.00558091
0.00611608
0.00610953
0.00607111
0.00596578
0.0058241
0.00567453
0.00552093
0.00536046
0.00517973
0.00494797
0.00465042
0.0043333
0.00404114
0.00378679
0.00357247
0.00339416
0.00325909
0.00318693
0.00316311
0.00315514
0.00125517
0.00125944
0.00128165
0.00129421
0.00127069
0.00123168
0.00118824
0.00114315
0.00109298
0.00103145
0.000954369
0.000870079
0.000792066
0.000723064
0.000665022
0.000618189
0.000587101
0.000583167
0.000601701
0.00061295
-0.568083
-0.34031
-0.125473
0.0515511
0.197091
0.315981
0.417664
0.501094
0.526856
0.523069
-0.20997
-0.0618162
0.0762567
0.196809
0.299928
0.386671
0.456092
0.504087
0.530087
0.546081
0.0324822
0.128958
0.225146
0.310514
0.384039
0.445417
0.493931
0.530489
0.556756
0.575899
0.204282
0.27253
0.341827
0.403948
0.457648
0.503137
0.540857
0.5717
0.594754
0.613787
0.339035
0.389386
0.440111
0.486902
0.528346
0.564654
0.596012
0.622247
0.641868
0.660133
0.449579
0.489083
0.528365
0.566202
0.600809
0.631843
0.659027
0.681639
0.698549
0.716185
0.54405
0.578957
0.614001
0.647655
0.678892
0.707135
0.731762
0.751846
0.766543
0.783713
0.635396
0.669659
0.703935
0.736781
0.766981
0.793967
0.817068
0.835347
0.848274
0.864947
0.732568
0.770084
0.806023
0.839517
0.869578
0.895676
0.917418
0.934209
0.946156
0.962421
0.847458
0.888936
0.9266
0.96005
0.989037
1.0135
1.03354
1.04914
1.06124
1.07742
0.990217
1.03145
1.06711
1.09701
1.12254
1.14446
1.16324
1.17892
1.19217
1.20821
1.16228
1.19445
1.22174
1.24441
1.26474
1.28365
1.30155
1.31842
1.33343
1.34927
1.34885
1.36617
1.38345
1.40032
1.41657
1.43141
1.44539
1.45992
1.47522
1.49268
1.53239
1.54229
1.5555
1.56651
1.57596
1.58569
1.59638
1.60665
1.61604
1.64146
1.74992
1.74419
1.73118
1.71693
1.7107
1.71647
1.73461
1.76314
1.79696
1.83327
2.05313
1.91729
1.8379
1.79549
1.77813
1.78213
1.80968
1.86761
1.97526
2.15349
0.333873
0.327577
0.31985
0.308743
0.295183
0.282544
0.272143
0.264114
0.258369
0.254971
0.254447
0.257024
0.262015
0.269182
0.278593
0.290314
0.303792
0.316662
0.325614
0.33313
0.242956
0.248886
0.256975
0.263126
0.26622
0.265736
0.262681
0.258699
0.255046
0.252628
0.252305
0.25433
0.257884
0.262125
0.266037
0.268139
0.266956
0.26224
0.255124
0.247254
0.236195
0.238571
0.241865
0.244681
0.247179
0.24942
0.250644
0.250496
0.249474
0.248514
0.248513
0.249699
0.251263
0.252282
0.251996
0.250343
0.248036
0.245552
0.242483
0.239429
0.231377
0.232463
0.234424
0.236837
0.238782
0.240243
0.241494
0.242482
0.243052
0.243256
0.24356
0.244057
0.244233
0.243837
0.242982
0.241847
0.240324
0.238186
0.235952
0.234437
0.226372
0.226997
0.228182
0.230047
0.232
0.233665
0.234933
0.23596
0.236864
0.237649
0.238167
0.238313
0.238103
0.237616
0.23683
0.235613
0.233941
0.232101
0.230601
0.229763
0.221533
0.221954
0.22281
0.224265
0.225955
0.227673
0.229263
0.230635
0.231781
0.232748
0.233405
0.233546
0.23326
0.232575
0.231502
0.230129
0.228621
0.227169
0.226063
0.225497
0.216961
0.217251
0.217961
0.219308
0.220929
0.222638
0.224417
0.226069
0.227422
0.228457
0.229212
0.22954
0.229287
0.228469
0.227228
0.225834
0.224434
0.223083
0.222123
0.221706
0.21276
0.212956
0.213524
0.214705
0.216167
0.217662
0.219154
0.220727
0.222353
0.223806
0.224783
0.225024
0.22463
0.223887
0.222997
0.221954
0.220773
0.219618
0.218834
0.218536
0.208973
0.209079
0.20954
0.210647
0.212064
0.213554
0.215071
0.216561
0.217986
0.219375
0.22052
0.221097
0.221145
0.220755
0.220018
0.219064
0.217991
0.216936
0.216268
0.216077
0.206002
0.206046
0.206377
0.207293
0.208549
0.209901
0.211375
0.212963
0.214644
0.216273
0.217656
0.218457
0.218607
0.218314
0.217744
0.217038
0.216207
0.215395
0.214928
0.214824
0.203474
0.203497
0.203699
0.204288
0.205189
0.206231
0.207412
0.208772
0.21034
0.212096
0.213783
0.214975
0.215601
0.215844
0.215791
0.215512
0.215137
0.214746
0.214545
0.214491
0.200607
0.20063
0.200781
0.201173
0.201836
0.202745
0.203913
0.20539
0.207149
0.20917
0.211236
0.212846
0.21382
0.214277
0.214462
0.214535
0.214512
0.214457
0.214415
0.214378
0.196933
0.196953
0.197099
0.197441
0.198002
0.19882
0.199951
0.201461
0.203415
0.205792
0.208346
0.210463
0.211898
0.212842
0.213388
0.213766
0.214038
0.214185
0.214215
0.214188
0.192444
0.192452
0.1926
0.192977
0.193587
0.1945
0.195775
0.19753
0.199817
0.202658
0.205827
0.208569
0.210505
0.211823
0.212742
0.213352
0.213775
0.213989
0.21405
0.21404
0.187247
0.187245
0.187393
0.187858
0.188633
0.189678
0.191237
0.193322
0.19608
0.199561
0.203509
0.206993
0.209523
0.2113
0.212524
0.213359
0.213883
0.214148
0.214254
0.214265
0.181404
0.181386
0.181542
0.182067
0.182976
0.184427
0.186229
0.188755
0.192103
0.196376
0.201286
0.2057
0.208971
0.211296
0.2129
0.213986
0.214633
0.214993
0.215163
0.215192
0.174821
0.174793
0.174986
0.175577
0.176672
0.178341
0.180651
0.183714
0.187836
0.19313
0.199256
0.204814
0.208941
0.211891
0.213957
0.215348
0.216219
0.216728
0.216972
0.217011
0.167194
0.16716
0.167396
0.168127
0.169406
0.171355
0.17415
0.177987
0.183117
0.189721
0.197377
0.204327
0.209502
0.213229
0.21585
0.217617
0.218769
0.219465
0.219786
0.219832
0.158065
0.158027
0.158324
0.159213
0.160799
0.163188
0.166635
0.171428
0.177867
0.186145
0.195704
0.204354
0.210795
0.215456
0.218712
0.22094
0.222421
0.223325
0.223731
0.223787
0.146927
0.146882
0.147286
0.14841
0.150387
0.153413
0.157777
0.163855
0.171992
0.182384
0.194301
0.205014
0.212987
0.218713
0.222734
0.225502
0.22736
0.2285
0.229004
0.22907
0.133118
0.133065
0.133621
0.135111
0.137684
0.141596
0.147232
0.155031
0.165371
0.178441
0.19325
0.206436
0.216187
0.223194
0.228124
0.231531
0.23383
0.235245
0.23587
0.235947
0.1157
0.115648
0.116448
0.118477
0.121912
0.127113
0.134535
0.144673
0.157916
0.174356
0.192663
0.208761
0.220598
0.229105
0.235112
0.239285
0.242115
0.243858
0.244626
0.244714
0.0932433
0.0932146
0.0944138
0.0972804
0.102044
0.109195
0.119216
0.132601
0.149639
0.170251
0.192698
0.212153
0.226384
0.236636
0.24392
0.249021
0.252507
0.254652
0.255585
0.255688
0.0633773
0.0634291
0.0653486
0.0696743
0.0767163
0.0869886
0.100894
0.118767
0.140686
0.166344
0.193562
0.216782
0.233697
0.24594
0.254728
0.260963
0.265272
0.267925
0.269062
0.269177
0.021915
0.0222295
0.0257397
0.0330966
0.0443612
0.0597829
0.079453
0.103387
0.131394
0.162948
0.195476
0.222785
0.242615
0.257068
0.267598
0.275221
0.280611
0.283933
0.285312
0.285428
-0.0389174
-0.0372492
-0.0288784
-0.0148697
0.00416899
0.0277949
0.0555183
0.0871384
0.122317
0.160431
0.198626
0.2302
0.253073
0.269874
0.282335
0.291589
0.29829
0.302511
0.304244
0.304387
-0.112376
-0.109005
-0.0929239
-0.0684369
-0.0388994
-0.00578015
0.0307061
0.0705297
0.11343
0.158864
0.203767
0.240815
0.267918
0.288215
0.303652
0.315543
0.324584
0.330245
0.332341
0.332852
-0.187047
-0.178513
-0.154557
-0.120226
-0.0809227
-0.0385746
0.00662768
0.0546567
0.1053
0.158104
0.209805
0.252402
0.283747
0.307507
0.325958
0.340443
0.351678
0.358727
0.362133
0.363153
-0.245533
-0.235688
-0.20688
-0.165761
-0.118976
-0.0688997
-0.0159594
0.0396266
0.0975349
0.157276
0.215272
0.262793
0.297689
0.324129
0.344649
0.360797
0.373241
0.381528
0.385734
0.386962
-0.293021
-0.282517
-0.250375
-0.204439
-0.152087
-0.0959402
-0.0365944
0.0255307
0.0899395
0.15597
0.219616
0.271378
0.30909
0.33744
0.359257
0.376323
0.389523
0.398529
0.403169
0.404436
-0.332504
-0.321871
-0.287598
-0.237903
-0.181039
-0.119948
-0.0552993
0.0124096
0.0825372
0.154175
0.222869
0.27829
0.318255
0.347973
0.37061
0.38814
0.401589
0.410848
0.415549
0.416874
-0.366841
-0.356183
-0.320348
-0.267657
-0.207095
-0.141802
-0.0725526
6.74096e-05
0.075273
0.15201
0.225285
0.284015
0.32599
0.356851
0.380061
0.397793
0.411253
0.420487
0.425152
0.426462
-0.397597
-0.386967
-0.349925
-0.294773
-0.23108
-0.162171
-0.088878
-0.0118621
0.067975
0.14945
0.227111
0.289033
0.332873
0.364736
0.388402
0.406278
0.419737
0.428979
0.433652
0.434852
-0.425953
-0.415325
-0.377306
-0.320054
-0.253659
-0.181609
-0.104723
-0.0237187
0.060409
0.146365
0.228254
0.293267
0.338996
0.371927
0.396146
0.41425
0.427755
0.436995
0.441678
0.442746
-0.452721
-0.442064
-0.403164
-0.344055
-0.275276
-0.200438
-0.120354
-0.0357607
0.0523354
0.142523
0.228555
0.296844
0.344667
0.378839
0.403725
0.422148
0.435765
0.444985
0.449624
0.450608
-0.478333
-0.467638
-0.427904
-0.367137
-0.296246
-0.218951
-0.136004
-0.048148
0.0436103
0.137874
0.228139
0.299876
0.349989
0.385601
0.41132
0.430187
0.444002
0.453242
0.457832
0.458784
-0.503139
-0.492333
-0.451826
-0.389561
-0.316795
-0.237296
-0.151768
-0.0609468
0.0342302
0.132422
0.226892
0.302261
0.354943
0.392262
0.419041
0.438514
0.45264
0.461951
0.466437
0.467352
-0.527335
-0.516347
-0.475113
-0.411464
-0.337019
-0.255551
-0.167708
-0.0741883
0.0241362
0.126021
0.224668
0.303919
0.359512
0.398836
0.426917
0.447174
0.461716
0.471151
0.475533
0.476389
-0.550952
-0.539751
-0.497813
-0.432926
-0.356984
-0.27376
-0.183859
-0.0879175
0.0132599
0.118612
0.221402
0.304717
0.363566
0.405261
0.434916
0.456147
0.471213
0.480802
0.485066
0.485804
-0.57407
-0.562611
-0.520005
-0.453967
-0.376692
-0.291914
-0.200195
-0.102115
0.00163987
0.110216
0.216995
0.304491
0.366917
0.411401
0.442974
0.465389
0.481074
0.490811
0.494924
0.495515
-0.596614
-0.584926
-0.541657
-0.474569
-0.396107
-0.309965
-0.216655
-0.116699
-0.0106602
0.100818
0.211374
0.303081
0.369372
0.417077
0.451002
0.474866
0.491253
0.501104
0.505012
0.50542
-0.618603
-0.606658
-0.562722
-0.494691
-0.415187
-0.327858
-0.233169
-0.13159
-0.0235824
0.090454
0.204498
0.30033
0.370685
0.42207
0.458896
0.484586
0.501731
0.511527
0.515067
0.515274
-0.639869
-0.62774
-0.58316
-0.514287
-0.433868
-0.345504
-0.249657
-0.14671
-0.0370347
0.0792076
0.196358
0.296119
0.370586
0.426033
0.466455
0.494618
0.512643
0.522024
0.524882
0.524828
-0.660507
-0.648133
-0.602929
-0.533315
-0.4521
-0.36285
-0.266019
-0.161958
-0.0509058
0.0671817
0.186983
0.290358
0.368849
0.428543
0.473281
0.505011
0.524517
0.53294
0.534292
0.533778
-0.680375
-0.667761
-0.622013
-0.551725
-0.4698
-0.379809
-0.282165
-0.177201
-0.0650745
0.0544695
0.176456
0.282997
0.365279
0.42913
0.478679
0.51543
0.538172
0.545893
0.544032
0.541887
-0.699523
-0.686684
-0.640356
-0.569457
-0.486928
-0.39631
-0.298006
-0.192354
-0.0794181
0.0412333
0.164898
0.274024
0.359761
0.427345
0.48162
0.524648
0.553464
0.5639
0.559242
0.547348
-0.717859
-0.704872
-0.658042
-0.586677
-0.503694
-0.412639
-0.313888
-0.207836
-0.0944147
0.0269133
0.151703
0.262733
0.351626
0.422472
0.480566