/*--------------------------------*- C++ -*----------------------------------*\
  =========                 |
  \\      /  F ield         | OpenFOAM: The Open Source CFD Toolbox
   \\    /   O peration     | Website:  https://openfoam.org
    \\  /    A nd           | Version:  6
     \\/     M anipulation  |
\*---------------------------------------------------------------------------*/
FoamFile
{
    version     2.0;
    format      ascii;
    class       volScalarField;
    location    "79";
    object      p;
}
// * * * * * * * * * * * * * * * * * * * * * * * * * * * * * * * * * * * * * //

dimensions      [0 2 -2 0 0 0 0];

internalField   nonuniform List<scalar> 
8800
(
0.827597
0.778282
0.740317
0.712247
0.692086
0.677498
0.666898
0.659356
0.654468
0.652395
0.653763
0.658104
0.664895
0.674318
0.687055
0.704376
0.728253
0.761351
0.804289
0.856803
0.66209
0.668435
0.677585
0.681133
0.678524
0.672435
0.665493
0.65925
0.654446
0.651573
0.651338
0.653964
0.658605
0.664734
0.671834
0.678868
0.683748
0.683624
0.67695
0.668052
0.635604
0.64184
0.64634
0.650211
0.653158
0.654106
0.653016
0.650893
0.64891
0.648068
0.649098
0.651551
0.654438
0.656709
0.657231
0.655444
0.652079
0.648067
0.643287
0.639572
0.631301
0.634067
0.636673
0.638831
0.640567
0.642135
0.643237
0.643588
0.643473
0.643569
0.644373
0.645516
0.646259
0.646111
0.645138
0.643786
0.642119
0.639819
0.637409
0.635843
0.626242
0.627667
0.629506
0.631587
0.633299
0.634592
0.635689
0.636668
0.637476
0.638212
0.638924
0.639386
0.639413
0.639053
0.638389
0.637278
0.635625
0.633734
0.632382
0.631579
0.621246
0.62215
0.623396
0.625023
0.626717
0.628249
0.629533
0.630655
0.63172
0.632739
0.633527
0.633922
0.633937
0.633575
0.632778
0.631595
0.630239
0.628977
0.628158
0.627634
0.616332
0.616987
0.617949
0.619267
0.620715
0.622232
0.623718
0.625083
0.626348
0.627556
0.628513
0.629016
0.629043
0.628615
0.627843
0.626908
0.625923
0.625024
0.624447
0.624062
0.611494
0.611999
0.612785
0.613926
0.615228
0.616647
0.618158
0.619702
0.621218
0.622681
0.623846
0.624467
0.62456
0.624251
0.6237
0.623022
0.622295
0.621639
0.621215
0.620915
0.606678
0.60708
0.60774
0.608763
0.609995
0.611363
0.612873
0.614518
0.616256
0.618012
0.619442
0.620268
0.620562
0.620492
0.620188
0.619736
0.619219
0.618759
0.618447
0.618204
0.601803
0.60213
0.602704
0.60365
0.604839
0.6062
0.60775
0.609504
0.611449
0.613516
0.615294
0.61644
0.617035
0.617241
0.617185
0.616969
0.616655
0.61636
0.616133
0.615928
0.596778
0.597049
0.597564
0.598466
0.599643
0.601037
0.602672
0.604579
0.60677
0.609202
0.611416
0.612975
0.613932
0.614452
0.614668
0.614692
0.614583
0.614434
0.614276
0.614098
0.591513
0.591741
0.592219
0.593107
0.594313
0.595783
0.597545
0.599663
0.602172
0.605058
0.607802
0.609855
0.611235
0.612116
0.612637
0.612908
0.613013
0.613003
0.612901
0.612742
0.585912
0.586106
0.586566
0.587471
0.588746
0.590336
0.592284
0.594681
0.597597
0.601045
0.604433
0.607074
0.608951
0.610246
0.611114
0.611667
0.611992
0.61211
0.612055
0.611909
0.579868
0.580036
0.580495
0.581445
0.582829
0.584593
0.586794
0.589554
0.59298
0.59712
0.601288
0.604633
0.607097
0.608873
0.610139
0.611018
0.611574
0.611818
0.611804
0.611665
0.573257
0.573402
0.573876
0.5749
0.576439
0.578437
0.58097
0.584193
0.588252
0.593238
0.598349
0.602537
0.605698
0.608042
0.609763
0.611006
0.611824
0.612201
0.612225
0.612089
0.565933
0.566055
0.566557
0.567686
0.569432
0.571735
0.574691
0.578495
0.583339
0.589357
0.595603
0.600797
0.604783
0.607797
0.610058
0.611721
0.612835
0.613349
0.613408
0.613271
0.557704
0.557811
0.558352
0.559618
0.56163
0.564322
0.567812
0.572341
0.578154
0.585429
0.59304
0.599431
0.604389
0.608191
0.6111
0.613259
0.614702
0.615361
0.61545
0.615308
0.54831
0.548415
0.549019
0.550458
0.552816
0.556
0.56016
0.565594
0.572601
0.581405
0.59065
0.59846
0.604566
0.609295
0.612968
0.615704
0.617522
0.618332
0.618449
0.618298
0.537447
0.537533
0.538222
0.539908
0.542707
0.546518
0.551527
0.558094
0.566577
0.577237
0.588435
0.597912
0.605364
0.611185
0.615734
0.619154
0.621389
0.622352
0.62249
0.622327
0.524719
0.524792
0.525586
0.527583
0.530944
0.535561
0.541655
0.549653
0.559968
0.572886
0.586401
0.597824
0.606832
0.613921
0.619492
0.623689
0.626374
0.627487
0.627637
0.627458
0.509542
0.509607
0.51055
0.512964
0.517064
0.522737
0.530239
0.540067
0.552672
0.568328
0.584574
0.59824
0.609021
0.617556
0.624293
0.62936
0.632512
0.633755
0.633905
0.633707
0.491113
0.491171
0.492331
0.495334
0.500448
0.507547
0.516919
0.529122
0.544605
0.563572
0.582995
0.599206
0.611978
0.622136
0.630162
0.636172
0.639778
0.641112
0.641244
0.641026
0.468222
0.468286
0.469799
0.473689
0.48026
0.489363
0.5013
0.516642
0.535751
0.558685
0.581745
0.600779
0.615741
0.627674
0.637088
0.644066
0.648056
0.649418
0.64951
0.649272
0.439038
0.439133
0.441249
0.446573
0.455413
0.467471
0.483036
0.502559
0.526204
0.553812
0.580946
0.603037
0.62033
0.634135
0.645011
0.652893
0.657124
0.658421
0.658451
0.658199
0.40039
0.400617
0.40398
0.411953
0.424625
0.441259
0.46201
0.48704
0.51623
0.549198
0.580767
0.606075
0.625768
0.641468
0.653802
0.6624
0.666644
0.667764
0.667714
0.667457
0.346254
0.347389
0.354094
0.367571
0.38695
0.410668
0.438601
0.470578
0.506272
0.545163
0.581398
0.609982
0.63206
0.649593
0.663226
0.672222
0.67617
0.677015
0.676886
0.676633
0.267916
0.275603
0.291015
0.314604
0.344005
0.377203
0.41387
0.453781
0.496631
0.541911
0.583106
0.615166
0.639816
0.659293
0.673996
0.683039
0.686501
0.687059
0.68688
0.686663
0.184589
0.201384
0.22641
0.260863
0.300818
0.343636
0.389045
0.436998
0.487284
0.539473
0.586333
0.62246
0.650131
0.671766
0.687432
0.695955
0.698604
0.698867
0.698709
0.698571
0.113146
0.133683
0.166735
0.210518
0.259842
0.311716
0.365634
0.421481
0.479012
0.537783
0.589858
0.629607
0.659823
0.683083
0.699059
0.706749
0.708757
0.708917
0.708799
0.708693
0.0546295
0.0774534
0.116014
0.166483
0.223129
0.282581
0.344008
0.407095
0.471402
0.536348
0.593255
0.636256
0.668578
0.692977
0.709016
0.716154
0.717882
0.718031
0.717955
0.717862
0.00614252
0.0303238
0.0728698
0.128552
0.191053
0.256739
0.324561
0.394038
0.464521
0.535211
0.59666
0.642674
0.676933
0.702326
0.718414
0.725177
0.726764
0.726934
0.726901
0.726821
-0.0349505
-0.00997348
0.0355095
0.0954303
0.162864
0.233871
0.307236
0.38238
0.458486
0.534559
0.600333
0.649262
0.685358
0.71172
0.727916
0.734419
0.735932
0.736155
0.736171
0.736106
-0.0707133
-0.0452183
0.0025537
0.0659906
0.137652
0.213313
0.291621
0.371913
0.453225
0.534389
0.60435
0.65614
0.694092
0.72145
0.737851
0.744343
0.745859
0.746085
0.746141
0.746092
-0.102666
-0.0767631
-0.0271122
0.039325
0.114664
0.194435
0.277211
0.362255
0.448474
0.534522
0.608597
0.663254
0.703106
0.731566
0.748417
0.755071
0.756595
0.756812
0.756869
0.756832
-0.131861
-0.105587
-0.0543376
0.0147138
0.0932982
0.176732
0.263569
0.353024
0.443917
0.534723
0.612876
0.670432
0.712254
0.741959
0.75938
0.766252
0.767807
0.767995
0.768033
0.76801
-0.15913
-0.132464
-0.0797873
-0.00837733
0.0730892
0.159813
0.250354
0.343917
0.439271
0.534758
0.616994
0.677498
0.721322
0.752285
0.770334
0.77745
0.779056
0.779199
0.779213
0.779201
-0.184894
-0.157858
-0.10387
-0.0303588
0.0536884
0.14338
0.23731
0.334702
0.434314
0.534411
0.620783
0.684281
0.730129
0.76234
0.780982
0.788304
0.789958
0.790059
0.790029
0.790013
-0.209636
-0.182149
-0.126949
-0.0515284
0.0348393
0.127214
0.224251
0.325206
0.428869
0.5335
0.624104
0.690676
0.738536
0.771912
0.791043
0.798515
0.800167
0.800213
0.80014
0.800115
-0.233511
-0.205568
-0.149225
-0.0720811
0.0163699
0.111172
0.211048
0.315303
0.422811
0.531912
0.626838
0.696626
0.746519
0.780924
0.800383
0.807867
0.809467
0.80946
0.809348
0.809312
-0.256677
-0.228245
-0.170846
-0.0921347
-0.00181228
0.0951729
0.197624
0.304921
0.416057
0.529523
0.62888
0.70209
0.754094
0.789407
0.808943
0.816291
0.817792
0.81773
0.817586
0.817541
-0.279246
-0.250307
-0.191883
-0.111749
-0.0197671
0.0791778
0.183954
0.294033
0.408546
0.526228
0.630132
0.707042
0.761356
0.797493
0.816858
0.823845
0.825161
0.825043
0.824878
0.824824
-0.301298
-0.271789
-0.212366
-0.130947
-0.0374929
0.063185
0.170046
0.282632
0.400255
0.521964
0.630486
0.711444
0.76842
0.80543
0.824341
0.830654
0.831651
0.83146
0.831288
0.83123
-0.322714
-0.292665
-0.232288
-0.149735
-0.0549798
0.0472311
0.155925
0.270756
0.391203
0.516701
0.629836
0.715211
0.775367
0.813518
0.831762
0.836973
0.837371
0.837065
0.836916
0.836866
-0.343489
-0.312916
-0.25166
-0.168092
-0.0721934
0.0313528
0.141658
0.258455
0.381434
0.510411
0.628087
0.718217
0.782188
0.822063
0.839722
0.843346
0.842578
0.841959
0.841912
0.841943
-0.363681
-0.33253
-0.27047
-0.186
-0.0890885
0.0156165
0.127314
0.245807
0.371005
0.503118
0.625138
0.720297
0.788745
0.831201
0.848934
0.850893
0.84816
0.846517
0.846556
0.847028
-0.383159
-0.351486
-0.288676
-0.203405
-0.10562
9.45109e-05
0.112977
0.232902
0.360008
0.494885
0.620913
0.72125
0.794778
0.84073
0.85979
0.861084
0.856247
0.852239
0.850696
0.850263
-0.402014
-0.369801
-0.306289
-0.220345
-0.121828
-0.0152558
0.0985931
0.219683
0.348375
0.485643
0.615254
0.720818
0.800052
0.850253
0.872035
0.874708
0.869274
0.861585
0.852554
0.853898
-0.420174
-0.387544
-0.323447
-0.237017
-0.138004
-0.0307565
0.0837589
0.205685
0.335586
0.474805
0.60756
0.718316
0.804256
0.859408
0.884568
0.890426
0.884813
0.871932
0.852177
0.851994
-0.437512
-0.404686
-0.339993
-0.253238
-0.153889
-0.0461132
0.0686679
0.191211
0.321905
0.462561
0.597784
0.712909
0.806345
0.866872
0.893381
0.899931
0.894571
0.866645
0.809558
0.785303
-0.45392
-0.422163
-0.355537
-0.268574
-0.168695
-0.0608424
0.0536016
0.176536
0.307612
0.449073
0.585949
0.703916
0.805018
0.871353
0.893293
0.894629
0.875756
0.821347
0.759038
0.721272
-0.496174
-0.439293
-0.369779
-0.283948
-0.183178
-0.075922
0.0387052
0.161533
0.292489
0.433961
0.571585
0.690577
0.796296
0.868628
0.880863
0.861135
0.807313
0.738566
0.668456
0.629901
-0.470944
-0.452594
-0.39145
-0.304904
-0.205638
-0.0985968
0.0153756
0.137629
0.267828
0.408202
0.544975
0.66285
0.760989
0.840964
0.818936
0.703101
0.607931
0.541842
0.475972
0.500677
-0.50125
-0.469753
-0.407751
-0.321698
-0.222804
-0.115905
-0.00172852
0.119907
0.249158
0.387911
0.522331
0.636937
0.723848
0.769015
0.711079
0.565438
0.452047
0.375597
0.291701
0.334598
-0.524648
-0.490791
-0.42709
-0.340998
-0.242155
-0.135266
-0.0211967
0.0996676
0.2276
0.364033
0.494705
0.603339
0.67858
0.68541
0.572342
0.412214
0.279409
0.184035
0.0869931
0.115978
-0.547362
-0.512492
-0.447458
-0.36073
-0.261821
-0.155057
-0.0415085
0.078395
0.204742
0.33838
0.464138
0.564046
0.62234
0.595429
0.431246
0.250239
0.0874456
-0.0486509
-0.174587
-0.164259
-0.569779
-0.534552
-0.468639
-0.381342
-0.282318
-0.175791
-0.0629201
0.0558478
0.180279
0.310632
0.430494
0.521641
0.558814
0.484479
0.29222
0.0918446
-0.0972728
-0.252839
-0.458955
-0.538574
-0.592586
-0.557438
-0.491019
-0.40333
-0.304176
-0.197856
-0.0856153
0.0319545
0.154297
0.281019
0.394385
0.476125
0.486281
0.360704
0.16522
-0.0466192
-0.240491
-0.403127
-0.527231
-0.644198
-0.616853
-0.581634
-0.514957
-0.427078
-0.327934
-0.221932
-0.110437
0.00572924
0.125593
0.248041
0.354367
0.422906
0.40488
0.243146
0.0462943
-0.159424
-0.336606
-0.434728
-0.460919
-0.474305
-0.642708
-0.607433
-0.540581
-0.452679
-0.35374
-0.248247
-0.137766
-0.0233484
0.0935391
0.210891
0.309738
0.359831
0.32211
0.129992
-0.0646898
-0.250194
-0.38417
-0.422444
-0.431243
-0.431568
-0.670432
-0.634961
-0.567934
-0.48012
-0.381544
-0.276811
-0.167632
-0.0553442
0.0580555
0.169543
0.259881
0.293091
0.222578
0.0264373
-0.161758
-0.323061
-0.398506
-0.412623
-0.413638
-0.41349
-0.700034
-0.664251
-0.597036
-0.509403
-0.411369
-0.307624
-0.200054
-0.0902859
0.0191453
0.124105
0.204577
0.222593
0.113206
-0.0675664
-0.245173
-0.373172
-0.402624
-0.403298
-0.40388
-0.403449
-0.731261
-0.695139
-0.627793
-0.540452
-0.443136
-0.340639
-0.235014
-0.12816
-0.0231468
0.0747064
0.145138
0.143815
0.0163371
-0.15381
-0.310687
-0.384004
-0.399279
-0.397852
-0.397762
-0.397417
-0.763554
-0.727278
-0.659939
-0.573038
-0.476658
-0.375701
-0.272368
-0.168849
-0.0686058
0.021774
0.0819965
0.064306
-0.072802
-0.229564
-0.354247
-0.392453
-0.392372
-0.393243
-0.393287
-0.393073
-0.79647
-0.760132
-0.692985
-0.60674
-0.51158
-0.412487
-0.31183
-0.212081
-0.116936
-0.0337719
0.0138435
-0.0107938
-0.153575
-0.290041
-0.380187
-0.388739
-0.39021
-0.390416
-0.390278
-0.390161
-0.829044
-0.79282
-0.726197
-0.640917
-0.547344
-0.450511
-0.352928
-0.257363
-0.167713
-0.0910983
-0.0542725
-0.0858887
-0.222567
-0.335603
-0.388624
-0.398244
-0.39174
-0.389064
-0.388233
-0.387963
-0.859462
-0.82405
-0.75853
-0.67467
-0.583158
-0.489054
-0.394984
-0.303947
-0.220174
-0.149745
-0.117401
-0.16368
-0.278722
-0.37282
-0.397248
-0.396811
-0.392868
-0.390082
-0.389148
-0.38862
-0.886617
-0.852298
-0.788569
-0.706784
-0.617949
-0.527159
-0.437109
-0.3509
-0.273084
-0.209155
-0.178976
-0.230966
-0.321564
-0.389741
-0.413646
-0.403633
-0.399708
-0.39801
-0.396885
-0.396193
-0.907793
-0.875447
-0.81454
-0.735717
-0.650381
-0.563625
-0.478175
-0.397157
-0.32511
-0.26758
-0.240261
-0.283518
-0.351387
-0.390756
-0.395746
-0.402273
-0.405135
-0.405319
-0.404673
-0.40455
-0.920901
-0.891347
-0.834345
-0.759701
-0.678904
-0.597052
-0.516846
-0.44145
-0.375129
-0.322411
-0.296251
-0.327914
-0.375446
-0.405583
-0.402232
-0.404424
-0.404794
-0.404304
-0.404272
-0.404418
-0.923217
-0.897584
-0.84585
-0.776863
-0.70186
-0.625945
-0.551692
-0.482253
-0.421942
-0.372882
-0.342751
-0.36715
-0.39281
-0.427668
-0.417424
-0.408385
-0.404932
-0.403457
-0.402953
-0.402721
-0.91243
-0.891611
-0.846914
-0.785428
-0.71775
-0.648906
-0.581361
-0.518038
-0.463726
-0.419879
-0.376783
-0.399314
-0.384443
-0.401759
-0.399476
-0.397563
-0.39811
-0.398935
-0.399246
-0.3992
-0.886059
-0.870783
-0.835599
-0.784138
-0.725496
-0.664934
-0.604794
-0.547739
-0.498595
-0.46197
-0.415003
-0.405575
-0.377622
-0.355855
-0.371609
-0.387297
-0.394825
-0.399282
-0.401193
-0.40165
-0.847533
-0.837774
-0.812998
-0.773221
-0.72508
-0.673754
-0.621466
-0.570771
-0.526152
-0.494872
-0.463374
-0.434413
-0.404878
-0.401098
-0.424988
-0.425291
-0.421855
-0.421836
-0.422772
-0.423218
-0.803909
-0.798358
-0.784064
-0.755734
-0.718593
-0.676198
-0.631523
-0.586833
-0.545968
-0.516131
-0.48926
-0.472769
-0.468865
-0.481758
-0.462021
-0.44769
-0.451818
-0.454522
-0.45394
-0.453428
-0.765219
-0.761859
-0.755077
-0.737067
-0.708968
-0.6742
-0.635927
-0.595942
-0.557244
-0.52564
-0.49828
-0.490465
-0.491866
-0.51094
-0.506713
-0.503457
-0.497879
-0.48602
-0.477252
-0.479239
-0.737395
-0.735413
-0.731937
-0.721276
-0.699972
-0.670769
-0.636672
-0.599045
-0.560105
-0.523919
-0.497286
-0.480844
-0.490598
-0.523877
-0.584175
-0.644624
-0.657397
-0.629425
-0.579599
-0.564205
-0.716938
-0.716233
-0.715048
-0.709767
-0.694159
-0.668606
-0.635828
-0.597796
-0.556013
-0.51392
-0.483575
-0.452892
-0.426619
-0.437768
-0.468071
-0.471714
-0.473757
-0.472383
-0.45114
-0.438718
-0.705056
-0.704806
-0.704163
-0.701674
-0.691088
-0.667653
-0.634515
-0.594726
-0.548557
-0.497856
-0.454536
-0.401132
-0.327587
-0.266812
-0.241558
-0.236833
-0.221884
-0.197122
-0.169458
-0.154952
-0.697057
-0.696914
-0.696529
-0.6958
-0.689293
-0.66798
-0.633786
-0.590876
-0.539152
-0.47729
-0.414035
-0.332685
-0.208951
-0.065118
0.0494024
0.130329
0.209321
0.270111
0.319818
0.340737
-0.69174
-0.691746
-0.691716
-0.691721
-0.687699
-0.669572
-0.634423
-0.587528
-0.530442
-0.456733
-0.374388
-0.277143
-0.10243
0.134369
0.391716
0.61617
0.77118
0.868616
0.909633
0.921464
-0.687236
-0.687217
-0.687017
-0.686673
-0.685132
-0.671388
-0.637009
-0.586958
-0.523025
-0.440936
-0.346777
-0.23973
-0.0435578
0.240833
0.551201
0.838343
1.06536
1.18964
1.22899
1.23841
-0.684733
-0.68454
-0.683827
-0.682316
-0.681176
-0.673743
-0.64344
-0.589975
-0.518666
-0.434191
-0.333828
-0.227684
-0.0412481
0.231254
0.539689
0.828125
1.05008
1.17294
1.22236
1.23732
-0.685895
-0.686133
-0.686599
-0.687065
-0.687682
-0.685172
-0.656202
-0.594527
-0.521774
-0.436564
-0.336968
-0.238512
-0.0828276
0.171822
0.442969
0.68762
0.885433
1.00687
1.0597
1.07438
-0.684454
-0.686314
-0.692312
-0.704662
-0.71754
-0.713018
-0.670022
-0.600493
-0.531413
-0.448545
-0.352771
-0.265678
-0.149888
0.064097
0.296894
0.494709
0.654642
0.759538
0.803865
0.814695
-0.682189
-0.684621
-0.690964
-0.703537
-0.718436
-0.713065
-0.66523
-0.605933
-0.547963
-0.466421
-0.376752
-0.300078
-0.215416
-0.0465446
0.144496
0.298879
0.418146
0.493583
0.523688
0.53034
-0.703641
-0.705389
-0.705555
-0.686991
-0.651764
-0.636675
-0.623357
-0.61059
-0.565667
-0.487425
-0.402147
-0.336895
-0.271993
-0.144612
0.00233858
0.118426
0.206917
0.261018
0.282038
0.285236
-0.734973
-0.734578
-0.727935
-0.686837
-0.609266
-0.563354
-0.601743
-0.629304
-0.588066
-0.506972
-0.430398
-0.373369
-0.322069
-0.221361
-0.109415
-0.0255351
0.0378135
0.074784
0.0879986
0.0892204
-0.777079
-0.773953
-0.777373
-0.772051
-0.756405
-0.723411
-0.724233
-0.703623
-0.6292
-0.528682
-0.458143
-0.401792
-0.359721
-0.286264
-0.202224
-0.138903
-0.091916
-0.0662231
-0.0570714
-0.0565803
-0.893023
-0.902841
-0.947658
-1.00501
-1.03124
-1.00855
-0.942169
-0.828771
-0.680965
-0.557297
-0.480714
-0.423855
-0.386166
-0.328304
-0.266596
-0.221695
-0.189974
-0.173489
-0.167997
-0.168593
-1.04372
-1.06585
-1.11859
-1.17058
-1.19642
-1.17386
-1.08854
-0.909841
-0.711524
-0.583062
-0.489617
-0.432503
-0.405462
-0.35902
-0.314357
-0.285174
-0.26677
-0.257865
-0.25517
-0.255687
-1.09223
-1.11255
-1.14805
-1.18374
-1.20391
-1.1835
-1.09017
-0.876493
-0.697629
-0.572292
-0.476129
-0.428618
-0.403523
-0.369127
-0.33766
-0.322794
-0.315894
-0.315092
-0.314672
-0.314833
-0.980865
-0.99704
-1.02707
-1.0604
-1.08182
-1.06627
-0.96129
-0.776865
-0.63592
-0.518126
-0.44615
-0.406675
-0.384017
-0.359071
-0.341309
-0.334844
-0.334888
-0.336195
-0.33586
-0.335808
-0.718511
-0.735611
-0.768696
-0.810177
-0.841692
-0.830232
-0.746074
-0.634389
-0.52563
-0.444499
-0.40559
-0.368658
-0.354212
-0.336721
-0.324989
-0.322255
-0.323649
-0.322931
-0.321763
-0.321721
-0.377121
-0.389975
-0.417034
-0.456064
-0.491708
-0.502675
-0.480365
-0.441384
-0.398116
-0.371601
-0.346716
-0.332777
-0.328726
-0.312552
-0.301136
-0.292956
-0.286534
-0.281865
-0.28034
-0.280862
-0.0839254
-0.0913903
-0.109806
-0.141638
-0.184669
-0.224416
-0.254279
-0.273094
-0.284792
-0.287601
-0.288272
-0.297295
-0.305731
-0.28692
-0.266923
-0.252813
-0.239818
-0.233716
-0.23294
-0.234197
0.0864752
0.0821613
0.0691604
0.0421762
-0.00041803
-0.0568348
-0.114283
-0.159097
-0.191221
-0.213862
-0.235327
-0.253201
-0.267841
-0.252724
-0.234402
-0.217905
-0.205247
-0.199893
-0.199746
-0.201082
0.147012
0.144205
0.134653
0.112855
0.0755118
0.0259226
-0.0283267
-0.0820784
-0.124567
-0.156156
-0.178489
-0.196288
-0.206668
-0.200962
-0.19379
-0.188307
-0.184306
-0.183052
-0.183415
-0.184288
0.14527
0.143384
0.136547
0.120634
0.0922758
0.0527312
0.00771118
-0.0370858
-0.0750915
-0.105069
-0.126126
-0.135806
-0.14152
-0.146188
-0.153577
-0.161235
-0.166895
-0.17057
-0.171677
-0.172154
0.117902
0.116754
0.112292
0.101626
0.0825165
0.0551622
0.0217959
-0.0129802
-0.0433755
-0.0668842
-0.0798637
-0.0797926
-0.0804743
-0.0958093
-0.11413
-0.131717
-0.145217
-0.152728
-0.154278
-0.154296
0.0826905
0.0821184
0.079514
0.073031
0.0610745
0.0434743
0.0218682
-0.00160093
-0.0228476
-0.0376778
-0.041912
-0.0349195
-0.0345588
-0.0535924
-0.076274
-0.0960824
-0.110949
-0.118992
-0.120644
-0.12045
0.0460207
0.045865
0.0446715
0.0413662
0.0351898
0.0258456
0.0140634
0.00164483
-0.00934168
-0.0160875
-0.0164775
-0.00896709
-0.0073797
-0.0223865
-0.0402813
-0.0540495
-0.0641504
-0.069109
-0.0702975
-0.070182
0.00917057
0.0093012
0.00951521
0.00955658
0.00870263
0.00698242
0.00454337
0.00187102
-0.000641202
-0.00310097
-0.00341081
-0.00160451
0.00105413
-0.000712723
-0.00636699
-0.0092535
-0.0126076
-0.0146699
-0.0142183
-0.0139486
-0.0346481
0.153116
0.325644
0.471483
0.587804
0.679143
0.754791
0.816154
0.831512
0.828095
0.252922
0.373759
0.486868
0.584532
0.666307
0.733585
0.78652
0.822302
0.841506
0.858204
0.448704
0.529294
0.608231
0.677277
0.736079
0.784867
0.823337
0.85274
0.874938
0.894198
0.59397
0.650205
0.706471
0.757588
0.801832
0.839488
0.871123
0.897723
0.917838
0.936734
0.706779
0.750203
0.793086
0.832831
0.868395
0.899848
0.927373
0.950723
0.968579
0.98663
0.804585
0.839368
0.874402
0.907896
0.938721
0.966668
0.991364
1.0121
1.02781
1.04529
0.891971
0.92377
0.955789
0.986835
1.0157
1.04193
1.06495
1.08381
1.09768
1.11469
0.978586
1.01105
1.04335
1.07445
1.10315
1.12886
1.15092
1.1684
1.18074
1.19726
1.07278
1.10918
1.14388
1.17628
1.20539
1.23069
1.25175
1.268
1.27959
1.29573
1.18579
1.22646
1.26342
1.29628
1.3247
1.34865
1.36824
1.38348
1.39537
1.41143
1.32723
1.36821
1.40343
1.43295
1.45812
1.4797
1.49819
1.51366
1.52676
1.54271
1.49867
1.53085
1.55778
1.58011
1.60019
1.6189
1.63663
1.65339
1.6683
1.68402
1.68487
1.70211
1.71921
1.7359
1.75199
1.76672
1.78062
1.7951
1.81033
1.82763
1.86826
1.87821
1.89139
1.90237
1.91178
1.92143
1.93204
1.94221
1.9515
1.97717
2.08611
2.08041
2.06746
2.05321
2.04691
2.05262
2.07076
2.09928
2.13304
2.16937
2.38893
2.25298
2.17347
2.13094
2.11361
2.1176
2.14503
2.20289
2.31055
2.48896
0.73129
0.724988
0.717259
0.706146
0.692578
0.679933
0.669543
0.661541
0.655838
0.652528
0.652206
0.655069
0.660327
0.667703
0.677266
0.689105
0.702674
0.715609
0.724601
0.732144
0.640351
0.646271
0.654345
0.66048
0.663552
0.663045
0.659966
0.655982
0.652409
0.650149
0.650047
0.652334
0.656116
0.660583
0.6647
0.666956
0.665891
0.66126
0.654209
0.646378
0.633589
0.635962
0.639231
0.642007
0.644462
0.646657
0.647845
0.647711
0.646792
0.646012
0.646265
0.647718
0.649532
0.650785
0.650729
0.649276
0.647128
0.644774
0.641797
0.638781
0.628782
0.629871
0.63179
0.634132
0.636009
0.637415
0.638644
0.639651
0.640273
0.640684
0.641283
0.642073
0.642577
0.642488
0.641882
0.640977
0.639659
0.637699
0.635598
0.634123
0.623735
0.624369
0.6255
0.627263
0.629114
0.630717
0.631981
0.633063
0.634071
0.635008
0.635848
0.636424
0.636607
0.636436
0.635927
0.634974
0.633563
0.631965
0.630635
0.629835
0.618781
0.619219
0.620011
0.621321
0.622852
0.624427
0.625921
0.627239
0.628425
0.629559
0.630576
0.631246
0.63148
0.631289
0.630659
0.629687
0.628554
0.627425
0.62653
0.625999
0.613908
0.614235
0.614851
0.615928
0.617235
0.618649
0.620147
0.621647
0.623077
0.624435
0.625659
0.626486
0.626782
0.626592
0.626037
0.625288
0.624468
0.623632
0.622981
0.622591
0.609091
0.609345
0.609842
0.610762
0.611948
0.613274
0.61472
0.616279
0.617903
0.619532
0.621021
0.62204
0.622466
0.622436
0.622107
0.621604
0.621003
0.6204
0.619931
0.619633
0.604257
0.604458
0.604873
0.605684
0.606796
0.608079
0.609516
0.611127
0.612902
0.61479
0.616594
0.617898
0.618581
0.618812
0.618738
0.618471
0.618086
0.61768
0.617354
0.61712
0.599319
0.59948
0.599837
0.600577
0.601646
0.602915
0.604389
0.606093
0.60804
0.610204
0.61238
0.614074
0.615109
0.615653
0.615853
0.615831
0.61567
0.615447
0.615238
0.615052
0.594186
0.594316
0.594631
0.595329
0.596385
0.597686
0.599236
0.601081
0.603254
0.605758
0.608389
0.610564
0.612022
0.612929
0.61344
0.613684
0.613748
0.613703
0.613595
0.613445
0.588765
0.588871
0.589158
0.589839
0.590918
0.592294
0.593967
0.596007
0.598479
0.601413
0.604604
0.607356
0.609312
0.610639
0.611504
0.612038
0.612347
0.61248
0.612461
0.612338
0.582957
0.583041
0.583313
0.584002
0.585139
0.586633
0.588483
0.590788
0.593644
0.597114
0.600989
0.604436
0.606983
0.608801
0.61007
0.610949
0.611523
0.611829
0.61189
0.611787
0.576647
0.576711
0.576977
0.577696
0.578929
0.580588
0.582681
0.585333
0.588674
0.592807
0.597514
0.601799
0.605051
0.607446
0.609182
0.610447
0.611319
0.611814
0.611952
0.611866
0.569697
0.569742
0.57001
0.570783
0.572152
0.574031
0.576441
0.579536
0.583484
0.588434
0.594152
0.599441
0.60353
0.60661
0.608898
0.610603
0.611817
0.612517
0.612732
0.612658
0.561955
0.561975
0.562246
0.563097
0.564644
0.566808
0.569625
0.573277
0.57798
0.58393
0.590872
0.597364
0.602446
0.606333
0.609275
0.611506
0.613112
0.614034
0.614324
0.614258
0.553166
0.55318
0.553475
0.554425
0.556203
0.558732
0.56206
0.56641
0.57205
0.579228
0.587647
0.595573
0.601832
0.606667
0.610381
0.613243
0.615296
0.616461
0.616826
0.616765
0.543063
0.543052
0.543389
0.544491
0.546571
0.549564
0.55354
0.558766
0.565569
0.57425
0.584451
0.59408
0.601725
0.607678
0.612302
0.615893
0.618464
0.619894
0.620333
0.620271
0.531314
0.531282
0.53167
0.53296
0.535415
0.539005
0.543808
0.550142
0.558397
0.568921
0.581267
0.592905
0.602167
0.609425
0.615111
0.619549
0.622707
0.624416
0.624921
0.624854
0.517415
0.51736
0.517828
0.519372
0.522312
0.526674
0.532544
0.540296
0.550379
0.563173
0.578087
0.592079
0.603202
0.611958
0.618881
0.624275
0.628086
0.630075
0.630633
0.630554
0.500681
0.500604
0.5012
0.503096
0.506688
0.512081
0.519361
0.528957
0.541365
0.556958
0.57493
0.591642
0.604881
0.61533
0.623637
0.630121
0.63462
0.63687
0.637457
0.637358
0.480125
0.480032
0.480834
0.483246
0.487756
0.494579
0.503782
0.515833
0.531231
0.550273
0.571848
0.59165
0.60725
0.619579
0.629404
0.637068
0.642263
0.644718
0.645298
0.645172
0.454263
0.45417
0.455315
0.458527
0.464428
0.473341
0.485278
0.500676
0.51994
0.543198
0.568949
0.592189
0.610357
0.624712
0.636172
0.64506
0.650874
0.653431
0.653958
0.653798
0.420674
0.420631
0.422396
0.426989
0.435223
0.447419
0.463384
0.483392
0.507615
0.535931
0.566408
0.593375
0.614252
0.630725
0.643866
0.653947
0.6602
0.662707
0.663125
0.662931
0.375051
0.375223
0.378349
0.385834
0.398431
0.416029
0.437982
0.464222
0.494611
0.5288
0.564463
0.595349
0.618996
0.637582
0.652387
0.663494
0.669867
0.672118
0.672384
0.672163
0.309346
0.310745
0.318349
0.332506
0.353127
0.379325
0.409726
0.443884
0.481529
0.522236
0.56337
0.598222
0.624606
0.645213
0.661455
0.673229
0.679333
0.681112
0.681211
0.680989
0.230948
0.233693
0.248481
0.272895
0.304504
0.340876
0.380414
0.422912
0.468216
0.515979
0.563297
0.602861
0.632648
0.655767
0.673601
0.685673
0.691258
0.692655
0.692692
0.692558
0.150729
0.15792
0.180127
0.214793
0.257041
0.30335
0.352022
0.402908
0.455916
0.510741
0.564228
0.608446
0.64146
0.667004
0.686305
0.698245
0.702851
0.703699
0.703673
0.703592
0.0852332
0.0943895
0.121334
0.16325
0.213851
0.26858
0.325478
0.38422
0.444569
0.506109
0.565363
0.613799
0.649639
0.677005
0.697042
0.708569
0.712577
0.713272
0.713273
0.713225
0.031589
0.0414773
0.0720266
0.119324
0.176209
0.237664
0.301475
0.367116
0.434138
0.501915
0.56656
0.618889
0.657234
0.686134
0.706719
0.717939
0.72159
0.722225
0.722271
0.722258
-0.0132713
-0.00306433
0.0299438
0.0814378
0.143469
0.210509
0.280158
0.351788
0.424777
0.498303
0.56801
0.624049
0.664759
0.695104
0.716143
0.72717
0.730607
0.731212
0.731319
0.731347
-0.0518267
-0.0414881
-0.00664962
0.0482016
0.114541
0.18638
0.26113
0.338077
0.416481
0.495342
0.56988
0.629493
0.672522
0.70429
0.725899
0.736779
0.740074
0.740772
0.740929
0.740997
-0.0857812
-0.0754058
-0.0391384
0.0184904
0.0885061
0.164518
0.243809
0.325586
0.409006
0.492897
0.572086
0.635224
0.680584
0.713802
0.736035
0.747065
0.750426
0.751123
0.751302
0.751407
-0.116412
-0.106022
-0.0686052
-0.00859041
0.0646209
0.14431
0.22767
0.313876
0.401994
0.490712
0.574439
0.641098
0.688816
0.723603
0.746672
0.758028
0.761496
0.762181
0.762334
0.76244
-0.144719
-0.134293
-0.0958632
-0.033732
0.0423158
0.12527
0.212298
0.30258
0.395122
0.488508
0.576726
0.64692
0.697057
0.733469
0.757434
0.769229
0.772825
0.773475
0.773583
0.773672
-0.171282
-0.160807
-0.121454
-0.0574188
0.0211445
0.107024
0.197381
0.291419
0.388128
0.486044
0.578747
0.652516
0.705107
0.743147
0.76806
0.780239
0.783973
0.784595
0.784648
0.784711
-0.196581
-0.186019
-0.145799
-0.0800337
0.000782825
0.0892942
0.18268
0.280185
0.380824
0.483112
0.580313
0.65775
0.712828
0.75247
0.778254
0.790743
0.794611
0.79519
0.795171
0.7952
-0.220965
-0.210231
-0.169192
-0.101836
-0.018992
0.0718831
0.168029
0.26873
0.373049
0.47957
0.581289
0.662514
0.720139
0.761314
0.787838
0.800558
0.80441
0.80494
0.804866
0.804861
-0.244558
-0.233623
-0.1918
-0.122996
-0.0383277
0.0546798
0.153321
0.256952
0.364709
0.475303
0.581554
0.666731
0.727028
0.769689
0.796754
0.809503
0.813271
0.813729
0.813607
0.813574
-0.267532
-0.256342
-0.213766
-0.143604
-0.057303
0.0376113
0.138502
0.244803
0.35575
0.47022
0.580987
0.67033
0.733506
0.777667
0.805055
0.817606
0.821177
0.821539
0.821378
0.821323
-0.289872
-0.27846
-0.235138
-0.163707
-0.0759512
0.0206584
0.123566
0.232275
0.346142
0.464254
0.579492
0.673231
0.73962
0.785416
0.812958
0.825012
0.828196
0.82842
0.828224
0.828156
-0.311664
-0.299988
-0.255904
-0.183314
-0.0942779
0.00382839
0.108526
0.21939
0.335895
0.457388
0.576985
0.675333
0.745379
0.793143
0.82075
0.83194
0.83446
0.834453
0.834233
0.834164
-0.33276
-0.320897
-0.276066
-0.202433
-0.112258
-0.0128298
0.0934212
0.20619
0.325053
0.449635
0.573391
0.676525
0.750732
0.801021
0.828872
0.838851
0.840196
0.839722
0.839493
0.83947
-0.353311
-0.341164
-0.295617
-0.221057
-0.129878
-0.0292954
0.0783251
0.192734
0.313674
0.441035
0.568667
0.676669
0.755547
0.809105
0.837801
0.846558
0.846104
0.844529
0.844157
0.844356
-0.373147
-0.360755
-0.314553
-0.23915
-0.147073
-0.0454972
0.0633077
0.179126
0.301839
0.431627
0.562802
0.67562
0.759623
0.817243
0.847792
0.856101
0.853707
0.850044
0.848773
0.849248
-0.392386
-0.379708
-0.332827
-0.256664
-0.163816
-0.0613774
0.048446
0.165434
0.289643
0.421525
0.555818
0.673211
0.762703
0.82506
0.858544
0.868011
0.864977
0.858976
0.853677
0.846151
-0.410919
-0.398024
-0.350529
-0.273766
-0.180329
-0.0772104
0.033416
0.151273
0.276666
0.410269
0.54727
0.66897
0.76453
0.832498
0.869777
0.882208
0.880705
0.872724
0.860884
0.860297
-0.428706
-0.415781
-0.367666
-0.290405
-0.196602
-0.0929629
0.0182417
0.136617
0.262863
0.397714
0.536935
0.66233
0.764246
0.838746
0.879666
0.895054
0.89491
0.887548
0.852665
0.814664
-0.445543
-0.432839
-0.384188
-0.306463
-0.212638
-0.108645
0.00291626
0.121589
0.248288