/*--------------------------------*- C++ -*----------------------------------*\
  =========                 |
  \\      /  F ield         | OpenFOAM: The Open Source CFD Toolbox
   \\    /   O peration     | Website:  https://openfoam.org
    \\  /    A nd           | Version:  6
     \\/     M anipulation  |
\*---------------------------------------------------------------------------*/
FoamFile
{
    version     2.0;
    format      ascii;
    class       volVectorField;
    location    "79";
    object      U;
}
// * * * * * * * * * * * * * * * * * * * * * * * * * * * * * * * * * * * * * //

dimensions      [0 1 -1 0 0 0 0];

internalField   nonuniform List<vector> 
8800
(
(0.987184 -0.0766657 0)
(1.00189 -0.0551907 0)
(0.999723 -0.0285488 0)
(1.00003 -0.0151437 0)
(1.0001 -0.00854453 0)
(1.00012 -0.005046 0)
(1.00008 -0.00300039 0)
(1.00003 -0.00170019 0)
(0.999995 -0.000794104 0)
(1.00006 -7.83734e-05 0)
(0.999965 0.000653472 0)
(0.999983 0.00142196 0)
(1.00004 0.00243754 0)
(1.00006 0.00400325 0)
(1.00004 0.00663516 0)
(1.00003 0.0113736 0)
(0.999926 0.0208163 0)
(0.999162 0.0386715 0)
(1.0071 0.0724576 0)
(0.771214 0.0366615 0)
(0.363072 -0.0160171 0)
(1.04331 -0.0768154 0)
(1.08459 -0.0704461 0)
(1.04519 -0.0535415 0)
(1.02329 -0.038893 0)
(1.01202 -0.0262148 0)
(1.00643 -0.0168529 0)
(1.00359 -0.0103205 0)
(1.00215 -0.0056593 0)
(1.00144 -0.00199942 0)
(1.00129 0.00132423 0)
(1.00165 0.00471032 0)
(1.00266 0.00864282 0)
(1.00467 0.0139673 0)
(1.0086 0.0216728 0)
(1.01656 0.0326408 0)
(1.03249 0.0465531 0)
(1.06266 0.0616692 0)
(1.09187 0.0761026 0)
(0.838668 0.0565628 0)
(0.216852 -0.00242951 0)
(1.0759 -0.050133 0)
(1.09988 -0.0483064 0)
(1.06464 -0.0404578 0)
(1.04004 -0.0335976 0)
(1.02392 -0.0260734 0)
(1.01412 -0.0184874 0)
(1.00856 -0.0116638 0)
(1.00558 -0.00579138 0)
(1.00431 -0.000370021 0)
(1.00464 0.00487857 0)
(1.00658 0.0102737 0)
(1.01061 0.0163559 0)
(1.01794 0.0233699 0)
(1.03052 0.0308338 0)
(1.05061 0.0378613 0)
(1.08034 0.0445428 0)
(1.10626 0.0513551 0)
(0.942512 0.0416224 0)
(0.216136 0.00246224 0)
(0.175184 -0.000816124 0)
(1.01771 -0.0354796 0)
(1.10521 -0.0413714 0)
(1.07827 -0.0360525 0)
(1.05347 -0.0301142 0)
(1.03621 -0.0245338 0)
(1.02401 -0.0188002 0)
(1.01588 -0.0127141 0)
(1.01101 -0.00651915 0)
(1.0088 -0.000178071 0)
(1.00935 0.00608086 0)
(1.01262 0.0120819 0)
(1.01887 0.017903 0)
(1.02876 0.0234648 0)
(1.04318 0.0287632 0)
(1.06371 0.0342424 0)
(1.09355 0.0402233 0)
(1.09339 0.0419801 0)
(0.827096 0.0229222 0)
(0.173977 0.000853869 0)
(0.153992 -0.000609922 0)
(0.956225 -0.0254502 0)
(1.10348 -0.0351136 0)
(1.08769 -0.0326317 0)
(1.06173 -0.0279728 0)
(1.04412 -0.0229417 0)
(1.03165 -0.0176868 0)
(1.0228 -0.0121465 0)
(1.01697 -0.00620054 0)
(1.0141 0.000277729 0)
(1.01476 0.00674433 0)
(1.01874 0.01263 0)
(1.0258 0.0179067 0)
(1.03608 0.0228069 0)
(1.05063 0.027562 0)
(1.07186 0.0320865 0)
(1.10005 0.0360146 0)
(1.06803 0.0340626 0)
(0.739428 0.0143272 0)
(0.152171 0.000652769 0)
(0.139632 -0.000466008 0)
(0.899365 -0.0190636 0)
(1.09583 -0.0300547 0)
(1.09577 -0.0291547 0)
(1.06927 -0.0254143 0)
(1.05084 -0.0212649 0)
(1.0379 -0.0164812 0)
(1.02878 -0.0111822 0)
(1.02265 -0.00542546 0)
(1.01949 0.000913168 0)
(1.02008 0.00723101 0)
(1.02418 0.0128668 0)
(1.03136 0.0178087 0)
(1.04185 0.0222544 0)
(1.05696 0.0262159 0)
(1.07916 0.0296694 0)
(1.10223 0.0322857 0)
(1.03587 0.0281658 0)
(0.672775 0.0102305 0)
(0.137058 0.000515422 0)
(0.129109 -0.000360419 0)
(0.849839 -0.0146955 0)
(1.08348 -0.0259101 0)
(1.10147 -0.0261879 0)
(1.07615 -0.0228897 0)
(1.05718 -0.0192324 0)
(1.04379 -0.0149717 0)
(1.03431 -0.0100315 0)
(1.02793 -0.00448191 0)
(1.02457 0.00168002 0)
(1.025 0.00778596 0)
(1.02906 0.0131471 0)
(1.03634 0.0176738 0)
(1.0471 0.0215107 0)
(1.06261 0.0248057 0)
(1.08524 0.027736 0)
(1.10129 0.0294772 0)
(1.00086 0.0236689 0)
(0.62082 0.0078733 0)
(0.125618 0.000418546 0)
(0.121089 -0.000279508 0)
(0.807787 -0.0115306 0)
(1.06826 -0.0222853 0)
(1.10503 -0.0235298 0)
(1.08243 -0.0206405 0)
(1.06304 -0.017194 0)
(1.04937 -0.0132367 0)
(1.03961 -0.00862932 0)
(1.03294 -0.00334587 0)
(1.02932 0.00260227 0)
(1.02957 0.00846254 0)
(1.03356 0.0134745 0)
(1.04091 0.0175229 0)
(1.05176 0.0208484 0)
(1.06748 0.0237314 0)
(1.09045 0.0263594 0)
(1.09745 0.0271992 0)
(0.965442 0.0201519 0)
(0.579004 0.00634737 0)
(0.116483 0.000348631 0)
(0.114887 -0.000216007 0)
(0.772435 -0.00915988 0)
(1.05159 -0.0190893 0)
(1.10746 -0.021064 0)
(1.08833 -0.0185402 0)
(1.06856 -0.0152334 0)
(1.05465 -0.0114327 0)
(1.04468 -0.00702987 0)
(1.03776 -0.00198196 0)
(1.03385 0.00371868 0)
(1.03386 0.00928253 0)
(1.03772 0.0139181 0)
(1.04499 0.0175395 0)
(1.05583 0.0204745 0)
(1.07174 0.0230308 0)
(1.09435 0.0253081 0)
(1.09074 0.0253259 0)
(0.930913 0.0174495 0)
(0.544303 0.00531048 0)
(0.108926 0.000298645 0)
(0.110068 -0.000164779 0)
(0.742848 -0.00731586 0)
(1.03452 -0.0162504 0)
(1.10896 -0.018733 0)
(1.09395 -0.0165088 0)
(1.0739 -0.013288 0)
(1.05972 -0.00957058 0)
(1.04956 -0.00528228 0)
(1.0424 -0.000400612 0)
(1.03818 0.00506261 0)
(1.03788 0.0103136 0)
(1.0415 0.0145902 0)
(1.04862 0.0178326 0)
(1.05941 0.0204183 0)
(1.07551 0.0226826 0)
(1.09696 0.0245772 0)
(1.08154 0.0238119 0)
(0.897822 0.0154127 0)
(0.514655 0.00459365 0)
(0.102461 0.000263916 0)
(0.106351 -0.000122061 0)
(0.718209 -0.0058244 0)
(1.01789 -0.013697 0)
(1.10966 -0.0164735 0)
(1.0995 -0.0145143 0)
(1.07918 -0.0112981 0)
(1.0647 -0.00760281 0)
(1.05431 -0.00336744 0)
(1.04688 0.00140733 0)
(1.04232 0.00667798 0)
(1.04162 0.011643 0)
(1.04493 0.0155839 0)
(1.05184 0.0184647 0)
(1.06255 0.0207125 0)
(1.07882 0.0227055 0)
(1.0982 0.024181 0)
(1.07023 0.0226627 0)
(0.866264 0.0139275 0)
(0.488595 0.00410743 0)
(0.0967452 0.000241484 0)
(0.103549 -8.48675e-05 0)
(0.697881 -0.0045691 0)
(1.00232 -0.011361 0)
(1.10971 -0.014248 0)
(1.1049 -0.0124678 0)
(1.08447 -0.00920668 0)
(1.06967 -0.00547274 0)
(1.05901 -0.0012294 0)
(1.05126 0.003498 0)
(1.04627 0.00862585 0)
(1.04509 0.0133353 0)
(1.04801 0.0169546 0)
(1.05468 0.019475 0)
(1.06528 0.0213918 0)
(1.08168 0.0231213 0)
(1.09838 0.024223 0)
(1.05706 0.0218845 0)
(0.836057 0.0129044 0)
(0.465019 0.0037958 0)
(0.0915157 0.000228824 0)
(0.101543 -5.04967e-05 0)
(0.681402 -0.00346259 0)
(0.98826 -0.0091714 0)
(1.10934 -0.0119692 0)
(1.11014 -0.010288 0)
(1.08987 -0.00695489 0)
(1.07472 -0.00312268 0)
(1.06372 0.00119548 0)
(1.05557 0.00593701 0)
(1.05007 0.0109742 0)
(1.04831 0.0154641 0)
(1.05077 0.0187805 0)
(1.05714 0.020944 0)
(1.0676 0.0225238 0)
(1.08402 0.0239655 0)
(1.09758 0.0246463 0)
(1.04215 0.0214943 0)
(0.806837 0.0122752 0)
(0.44305 0.00362249 0)
(0.0865647 0.00022409 0)
(0.100276 -1.66485e-05 0)
(0.668476 -0.0024355 0)
(0.976088 -0.0070529 0)
(1.10887 -0.00957799 0)
(1.11537 -0.0079136 0)
(1.09544 -0.00446504 0)
(1.07991 -0.000466352 0)
(1.06852 0.00399571 0)
(1.05989 0.00881688 0)
(1.05375 0.013815 0)
(1.0513 0.0181095 0)
(1.0532 0.0211286 0)
(1.0592 0.0229236 0)
(1.06949 0.0241609 0)
(1.08589 0.0253168 0)
(1.09553 0.0255015 0)
(1.02553 0.0214895 0)
(0.778148 0.0119853 0)
(0.421973 0.00356141 0)
(0.0817269 0.000225714 0)
(0.099735 1.95318e-05 0)
(0.658962 -0.00143345 0)
(0.966121 -0.00493237 0)
(1.10863 -0.0070123 0)
(1.12073 -0.00526812 0)
(1.10129 -0.00164515 0)
(1.08534 0.00258833 0)
(1.07348 0.00726632 0)
(1.06426 0.0122401 0)
(1.05736 0.0172571 0)
(1.05407 0.021386 0)
(1.05529 0.0241136 0)
(1.06087 0.0255361 0)
(1.07094 0.0264073 0)
(1.08723 0.0272371 0)
(1.09212 0.0268528 0)
(1.00714 0.0219043 0)
(0.749477 0.0120114 0)
(0.401181 0.00359913 0)
(0.0768643 0.000233148 0)
(0.0999401 5.12521e-05 0)
(0.652846 -0.000403295 0)
(0.958663 -0.0027342 0)
(1.10896 -0.00420493 0)
(1.12638 -0.00227372 0)
(1.10751 0.00159406 0)
(1.09109 0.00614299 0)
(1.07868 0.0111199 0)
(1.06875 0.0163203 0)
(1.06092 0.0214197 0)
(1.05662 0.0254151 0)
(1.05704 0.0278465 0)
(1.06211 0.0288938 0)
(1.07192 0.0293774 0)
(1.08775 0.0298278 0)
(1.08705 0.0287471 0)
(0.986768 0.0227815 0)
(0.720242 0.0123393 0)
(0.380118 0.00372737 0)
(0.0718523 0.000245625 0)
(0.100968 0.000101778 0)
(0.650249 0.000697217 0)
(0.954031 -0.000379532 0)
(1.11025 -0.00107316 0)
(1.13252 0.00117843 0)
(1.11422 0.00538823 0)
(1.09729 0.0103455 0)
(1.08422 0.0157111 0)
(1.07342 0.0212227 0)
(1.06446 0.0264556 0)
(1.05896 0.0303317 0)
(1.05842 0.0324582 0)
(1.06289 0.0331193 0)
(1.07237 0.0331869 0)
(1.08733 0.0332147 0)
(1.08007 0.0312834 0)
(0.964073 0.0241533 0)
(0.6898 0.0129575 0)
(0.358259 0.00393701 0)
(0.0665804 0.000262275 0)
(0.102967 0.000156425 0)
(0.651461 0.00183884 0)
(0.952586 0.00220751 0)
(1.11294 0.00248212 0)
(1.13937 0.00519182 0)
(1.12158 0.00986712 0)
(1.10406 0.0153381 0)
(1.09019 0.0212003 0)
(1.07833 0.0271153 0)
(1.06802 0.0325473 0)
(1.06108 0.0363233 0)
(1.05942 0.0380974 0)
(1.06315 0.0383642 0)
(1.07222 0.0379829 0)
(1.08569 0.0374939 0)
(1.07087 0.034553 0)
(0.938588 0.0260606 0)
(0.657459 0.0138604 0)
(0.335113 0.00421988 0)
(0.0609558 0.000282116 0)
(0.10603 0.000220469 0)
(0.656989 0.00330452 0)
(0.954756 0.00514074 0)
(1.11751 0.00661332 0)
(1.14717 0.00992285 0)
(1.12976 0.0152125 0)
(1.11154 0.0213295 0)
(1.0967 0.0278088 0)
(1.08355 0.0342219 0)
(1.07161 0.0399062 0)
(1.06297 0.0435728 0)
(1.06 0.0449682 0)
(1.06284 0.0448024 0)
(1.07143 0.0439273 0)
(1.08278 0.0429017 0)
(1.05903 0.0386697 0)
(0.90968 0.028546 0)
(0.622464 0.0150346 0)
(0.31022 0.00456389 0)
(0.054904 0.00030371 0)
(0.110445 0.000305826 0)
(0.667211 0.00501808 0)
(0.96107 0.00862819 0)
(1.12446 0.0114709 0)
(1.15623 0.0155838 0)
(1.13898 0.0216826 0)
(1.11993 0.0285955 0)
(1.10388 0.0358226 0)
(1.08914 0.0428238 0)
(1.07522 0.0487799 0)
(1.06457 0.0522916 0)
(1.06006 0.0532603 0)
(1.06191 0.0526224 0)
(1.06991 0.0511857 0)
(1.07859 0.0495189 0)
(1.04396 0.0437363 0)
(0.87655 0.0316211 0)
(0.584017 0.0164471 0)
(0.283172 0.00494761 0)
(0.0483809 0.000324772 0)
(0.116559 0.000419963 0)
(0.682952 0.0071612 0)
(0.972193 0.0128422 0)
(1.13436 0.0172833 0)
(1.1669 0.0224192 0)
(1.14953 0.0295725 0)
(1.12941 0.0374603 0)
(1.11184 0.0455785 0)
(1.09513 0.0532445 0)
(1.07883 0.0594741 0)
(1.06583 0.0627549 0)
(1.05947 0.063173 0)
(1.06028 0.0620233 0)
(1.06768 0.0599644 0)
(1.07282 0.0574934 0)
(1.02491 0.049848 0)
(0.838221 0.0352652 0)
(0.541312 0.0180347 0)
(0.253675 0.00533825 0)
(0.0413884 0.000342348 0)
(0.124902 0.000580171 0)
(0.705139 0.00995978 0)
(0.988979 0.018088 0)
(1.14788 0.0244009 0)
(1.17969 0.0308367 0)
(1.16171 0.0393575 0)
(1.14019 0.0484234 0)
(1.12067 0.05756 0)
(1.10152 0.0659129 0)
(1.08235 0.0723156 0)
(1.06663 0.0751982 0)
(1.0582 0.0749287 0)
(1.05788 0.0731798 0)
(1.06458 0.0704031 0)
(1.06498 0.0669114 0)
(1.00087 0.057012 0)
(0.793549 0.0393817 0)
(0.493618 0.0196764 0)
(0.22162 0.00568541 0)
(0.0339936 0.0003524 0)
(0.13621 0.000810164 0)
(0.735098 0.0138054 0)
(1.01259 0.0248365 0)
(1.16581 0.0333699 0)
(1.19523 0.0414392 0)
(1.17591 0.0517216 0)
(1.15246 0.0621673 0)
(1.13039 0.072389 0)
(1.10816 0.0813286 0)
(1.08561 0.0876658 0)
(1.06683 0.0898771 0)
(1.05618 0.0887425 0)
(1.05469 0.0863479 0)
(1.06022 0.0826722 0)
(1.05431 0.0779578 0)
(0.970514 0.0651879 0)
(0.741276 0.043757 0)
(0.440422 0.0211867 0)
(0.187199 0.00592325 0)
(0.0263476 0.000350668 0)
(0.151772 0.00117414 0)
(0.774836 0.0193168 0)
(1.0447 0.0338741 0)
(1.1891 0.045128 0)
(1.21437 0.0554632 0)
(1.19248 0.0676946 0)
(1.16628 0.0796428 0)
(1.14084 0.0908441 0)
(1.11483 0.100066 0)
(1.08835 0.105912 0)
(1.06621 0.107039 0)
(1.05323 0.104761 0)
(1.05058 0.101608 0)
(1.05439 0.0971577 0)
(1.03983 0.0905997 0)
(0.932147 0.0741088 0)
(0.680193 0.0480106 0)
(0.381691 0.0222965 0)
(0.15104 0.00597273 0)
(0.0186996 0.000332817 0)
(0.173796 0.00180285 0)
(0.827596 0.0276426 0)
(1.08802 0.046762 0)
(1.21888 0.0615611 0)
(1.23759 0.0747769 0)
(1.21149 0.0889454 0)
(1.18138 0.102212 0)
(1.15157 0.113898 0)
(1.12104 0.12273 0)
(1.09018 0.127357 0)
(1.0645 0.126819 0)
(1.04918 0.123075 0)
(1.04539 0.118965 0)
(1.04706 0.113541 0)
(1.02011 0.104675 0)
(0.883665 0.0832429 0)
(0.609523 0.0515696 0)
(0.318281 0.0226878 0)
(0.114352 0.00575973 0)
(0.0114006 0.000295233 0)
(0.205689 0.00318667 0)
(0.899166 0.0414417 0)
(1.14594 0.0673342 0)
(1.25552 0.0862402 0)
(1.26468 0.102312 0)
(1.23231 0.11788 0)
(1.19691 0.131515 0)
(1.16177 0.142544 0)
(1.12612 0.149841 0)
(1.09059 0.152237 0)
(1.06138 0.149299 0)
(1.04386 0.143685 0)
(1.03902 0.138433 0)
(1.03755 0.131899 0)
(0.993075 0.119687 0)
(0.822648 0.0916709 0)
(0.529756 0.0537058 0)
(0.252697 0.022134 0)
(0.079158 0.00525853 0)
(0.00494269 0.000234324 0)
(0.249198 0.00948526 8.11512e-21)
(0.993455 0.0687632 6.98675e-21)
(1.21607 0.102251 -2.45505e-21)
(1.29597 0.122898 0)
(1.29272 0.141725 -6.41547e-35)
(1.25272 0.156844 9.42129e-22)
(1.21127 0.169036 -1.72356e-21)
(1.17033 0.177958 0)
(1.12927 0.182651 3.60856e-35)
(1.08886 0.182042 -2.19539e-21)
(1.05595 0.176265 0)
(1.03622 0.168701 -2.64358e-21)
(1.03083 0.162654 -7.82751e-21)
(1.02421 0.155548 -3.71454e-21)
(0.953702 0.137916 -1.12192e-21)
(0.742069 0.100153 -6.67241e-22)
(0.435947 0.0543784 0)
(0.184071 0.0209435 4.67226e-22)
(0.0456444 0.00465908 5.53322e-22)
(-0.000706887 0.000134181 1.01105e-20)
(0.2794 0.0249234 5.44338e-21)
(1.07162 0.111965 1.139e-22)
(1.2739 0.152004 6.31299e-22)
(1.33248 0.172592 0)
(1.31741 0.191571 -3.1712e-21)
(1.27036 0.204581 -3.63988e-21)
(1.22298 0.214523 -1.71721e-21)
(1.17625 0.221055 -6.2005e-21)
(1.12966 0.223155 0)
(1.08411 0.21968 9.28586e-21)
(1.04725 0.211266 9.26834e-21)
(1.02515 0.201947 2.76273e-21)
(1.01717 0.194365 1.01564e-20)
(0.999231 0.184705 1.437e-20)
(0.889836 0.158139 0)
(0.630678 0.107858 2.03039e-20)
(0.325923 0.054133 2.91325e-20)
(0.113656 0.0188537 3.24178e-20)
(0.0129585 0.00290043 -3.71849e-20)
(-0.00607422 -0.000460285 -7.09309e-22)
(0.28095 0.042105 0)
(1.12162 0.16781 8.1822e-22)
(1.31335 0.212841 0)
(1.36107 0.233106 -3.80886e-21)
(1.33695 0.249226 0)
(1.28397 0.258327 -6.98994e-21)
(1.23105 0.264531 3.46511e-21)
(1.17885 0.267503 -1.23212e-20)
(1.12706 0.266097 -3.23538e-22)
(1.07676 0.259054 4.7606e-21)
(1.03637 0.247516 2.03454e-20)
(1.01218 0.236113 -3.30053e-23)
(1.00135 0.22675 -7.36637e-21)
(0.971463 0.213404 -1.34635e-20)
(0.83015 0.17693 1.59777e-20)
(0.546672 0.11399 -2.82977e-20)
(0.257651 0.0534919 -3.73149e-21)
(0.0741085 0.0165845 0)
(-0.00492057 0.00056333 -3.73811e-24)
(-0.00901144 -0.00123148 0)
(0.274303 0.0565148 7.58022e-21)
(1.14894 0.227343 -4.14887e-21)
(1.33803 0.278261 -3.77747e-21)
(1.38017 0.29891 1.70904e-21)
(1.34984 0.311183 -2.89974e-21)
(1.29247 0.315702 1.45012e-20)
(1.23501 0.31743 7.15729e-21)
(1.17813 0.316118 0)
(1.12177 0.31055 -2.35018e-20)
(1.06723 0.299361 0)
(1.02371 0.284264 -1.05971e-20)
(0.997696 0.270433 -1.32168e-20)
(0.984103 0.258766 -7.98902e-21)
(0.943724 0.240605 -9.74595e-21)
(0.780186 0.194405 0)
(0.488879 0.120544 0)
(0.216646 0.0543693 -2.41961e-20)
(0.0494574 0.0145278 4.7792e-21)
(-0.017748 -0.00228397 -2.81329e-21)
(-0.0115704 -0.00220042 -3.3329e-21)
(0.266267 0.0691327 -5.36306e-22)
(1.16109 0.286739 0)
(1.35178 0.34463 6.39743e-21)
(1.3908 0.36609 4.47669e-21)
(1.35619 0.374498 6.87296e-21)
(1.29562 0.374417 0)
(1.23466 0.371526 6.84119e-21)
(1.17399 0.365695 1.34555e-20)
(1.11376 0.355635 1.19179e-20)
(1.05554 0.33996 2.22986e-20)
(1.00921 0.320936 0)
(0.981533 0.304324 -2.83685e-20)
(0.96532 0.289968 -1.71578e-20)
(0.916619 0.266622 -1.01626e-20)
(0.740059 0.211239 6.2429e-20)
(0.450838 0.127913 7.41737e-21)
(0.192362 0.0560488 3.49238e-20)
(0.0335436 0.0122665 -1.65162e-19)
(-0.0278271 -0.00571555 9.78266e-20)
(-0.0140761 -0.0033894 -1.19411e-19)
(0.258407 0.0804087 2.88299e-21)
(1.16347 0.34405 9.14745e-26)
(1.35757 0.410051 -3.7098e-22)
(1.39464 0.432698 -3.53323e-21)
(1.35695 0.437439 -5.20581e-21)
(1.294 0.432917 3.61648e-22)
(1.23032 0.425526 -7.41467e-21)
(1.16657 0.415213 1.37655e-20)
(1.10307 0.400617 -2.55835e-20)
(1.0416 0.380297 0)
(0.992735 0.357153 -1.27878e-20)
(0.963442 0.337437 -3.09572e-22)
(0.944908 0.320054 -1.87529e-20)
(0.890279 0.291255 0)
(0.708054 0.227585 -1.34874e-20)
(0.426369 0.136204 -3.19935e-20)
(0.17848 0.0583625 8.51703e-20)
(0.0237203 0.0100825 -8.3885e-20)
(-0.0355035 -0.00947193 1.19277e-19)
(-0.0164429 -0.00476043 -1.25505e-19)
(0.251591 0.0907391 -1.09639e-22)
(1.15966 0.398572 9.46216e-22)
(1.35756 0.47349 6.24011e-22)
(1.39314 0.497583 9.39888e-22)
(1.3532 0.498997 -2.51825e-21)
(1.28845 0.490283 0)
(1.22258 0.478615 -6.6527e-21)
(1.15626 0.463981 -1.43294e-20)
(1.08994 0.444936 -1.3216e-20)
(1.02557 0.419985 0)
(0.97433 0.392611 -1.3159e-20)
(0.943441 0.369611 -1.64329e-20)
(0.922751 0.348988 2.02979e-20)
(0.863976 0.314976 -1.2346e-20)
(0.681827 0.243791 -5.86569e-20)
(0.410618 0.145281 3.47659e-20)
(0.171585 0.0616026 1.03045e-20)
(0.0192025 0.00832267 0)
(-0.0402219 -0.013081 -1.14968e-19)
(-0.0183529 -0.00618691 -4.26987e-21)
(0.245994 0.100467 1.11578e-21)
(1.15199 0.450128 -1.60451e-21)
(1.35326 0.534391 -6.25417e-22)
(1.38753 0.560064 4.00081e-21)
(1.3459 0.558535 -8.36972e-21)
(1.27979 0.545961 1.22443e-20)
(1.21214 0.530301 1.43321e-20)
(1.14362 0.511573 -2.28585e-20)
(1.07479 0.488243 8.31768e-21)
(1.00776 0.458765 -5.45691e-20)
(0.954242 0.427162 -1.49578e-20)
(0.921718 0.400781 0)
(0.899054 0.376819 2.20203e-20)
(0.837541 0.337761 2.64366e-20)
(0.658977 0.260132 3.15943e-20)
(0.399486 0.155258 -3.77316e-20)
(0.169331 0.065655 -1.11668e-20)
(0.0188356 0.00751654 1.31147e-20)
(-0.0417137 -0.0159238 0)
(-0.01949 -0.00747521 -9.26268e-21)
(0.24153 0.109686 -1.68117e-20)
(1.1422 0.498794 9.30982e-21)
(1.34597 0.59262 1.03531e-21)
(1.37884 0.619795 1.74732e-21)
(1.33587 0.615669 -3.20513e-21)
(1.26873 0.599578 -8.3729e-22)
(1.19961 0.580266 -1.57559e-20)
(1.12918 0.557734 -8.2948e-21)
(1.05809 0.530341 -2.29877e-20)
(0.988546 0.496499 6.41764e-23)
(0.932791 0.460747 -4.67153e-20)
(0.898604 0.430966 3.97943e-20)
(0.874041 0.403711 -2.42422e-20)
(0.810688 0.359849 2.91618e-20)
(0.637476 0.276457 0)
(0.390146 0.165879 -2.05409e-20)
(0.168824 0.0706624 6.89098e-23)
(0.021105 0.00795429 -5.72682e-20)
(-0.0406031 -0.01773 -8.43476e-21)
(-0.0197528 -0.00846294 0)
(0.238135 0.118655 0)
(1.13131 0.544807 1.06931e-20)
(1.33658 0.648431 4.60502e-21)
(1.36789 0.676614 -8.86959e-22)
(1.32382 0.670187 -4.78758e-21)
(1.25588 0.65093 0)
(1.18554 0.628313 -6.81702e-21)
(1.11343 0.602299 -2.13289e-22)
(1.04024 0.57113 4.93146e-20)
(0.96827 0.533117 -7.46404e-21)
(0.910298 0.493339 -3.37981e-20)
(0.874397 0.460206 2.06586e-20)
(0.847999 0.429706 -4.43701e-22)
(0.783383 0.381213 3.11062e-20)
(0.616266 0.292344 1.90067e-20)
(0.380699 0.176718 -4.4335e-20)
(0.168526 0.0762664 5.24616e-20)
(0.0245956 0.00941103 1.55666e-20)
(-0.0376658 -0.0185053 6.43487e-20)
(-0.0193098 -0.00911656 -1.74063e-19)
(0.23572 0.127516 -5.51452e-21)
(1.12008 0.588345 7.39899e-21)
(1.32571 0.701329 -4.99825e-21)
(1.35535 0.730475 -7.23218e-22)
(1.31034 0.721991 0)
(1.24177 0.699899 -4.84976e-21)
(1.1704 0.67433 2.33175e-20)
(1.09679 0.645173 1.80858e-20)
(1.02163 0.610545 0)
(0.947273 0.568602 -1.08175e-19)
(0.887055 0.524927 9.17357e-20)
(0.849414 0.488501 0)
(0.821199 0.454767 2.84647e-20)
(0.7555 0.401796 -4.31212e-22)
(0.594342 0.307548 -6.12908e-20)
(0.370025 0.187278 2.39525e-20)
(0.167362 0.08201 0)
(0.0281444 0.0115865 8.42288e-20)
(-0.0337353 -0.0183759 0)
(-0.0183256 -0.00943135 -8.26122e-20)
(0.234168 0.136301 6.581e-21)
(1.10897 0.629633 9.56492e-21)
(1.31381 0.751377 -4.97233e-21)
(1.34173 0.781397 0)
(1.2959 0.771072 -2.97697e-21)
(1.22684 0.746457 0)
(1.15458 0.718262 -2.2451e-20)
(1.0796 0.686303 -8.1499e-21)
(1.00257 0.648552 8.62118e-21)
(0.925856 0.602966 -5.36049e-20)
(0.863304 0.555526 9.45761e-21)
(0.823893 0.515831 0)
(0.793924 0.478846 -6.0976e-20)
(0.727206 0.421389 4.02526e-22)
(0.571459 0.321736 0)
(0.357733 0.197057 1.30266e-22)
(0.164317 0.0874908 7.71674e-20)
(0.0307428 0.0140932 -7.29536e-20)
(-0.0297472 -0.0176353 2.15954e-20)
(-0.0170567 -0.00946126 0)
(0.23313 0.144955 0)
(1.09817 0.668854 1.14999e-20)
(1.30133 0.79869 7.23052e-21)
(1.32746 0.829453 -5.23664e-22)
(1.28089 0.817464 -1.13908e-22)
(1.21144 0.790611 -1.09267e-20)
(1.13841 0.760105 8.60443e-21)
(1.06218 0.725674 -9.87647e-21)
(0.983361 0.685136 3.8854e-20)
(0.904241 0.63622 -8.59961e-20)
(0.839264 0.585174 -8.86268e-22)
(0.798013 0.542181 -2.6628e-20)
(0.76631 0.501818 9.92525e-20)
(0.698565 0.439742 -5.02806e-22)
(0.547403 0.334605 -4.79152e-20)
(0.343615 0.205364 -8.48627e-20)
(0.1594 0.0921879 0)
(0.0319118 0.0163729 0)
(-0.0263316 -0.0167195 2.33646e-20)
(-0.0157437 -0.00933767 -1.38829e-20)
(0.232745 0.15365 9.19902e-21)
(1.08791 0.70587 -2.6078e-20)
(1.28857 0.843363 -7.76221e-21)
(1.31285 0.874727 0)
(1.26563 0.861227 -3.08948e-22)
(1.19588 0.8324 -8.97161e-21)
(1.12218 0.799876 2.01264e-20)
(1.0448 0.763284 3.82704e-20)
(0.964227 0.72031 5.04307e-20)
(0.88267 0.668404 -7.03415e-20)
(0.815114 0.613925 -7.95707e-20)
(0.771898 0.567588 7.14056e-20)
(0.738472 0.523581 0)
(0.669649 0.456528 -2.19077e-20)
(0.522321 0.345738 -5.18296e-20)
(0.32794 0.211966 -6.11795e-20)
(0.152707 0.0956379 -7.22066e-20)
(0.0316291 0.0180041 2.13792e-20)
(-0.0236922 -0.0159182 -1.26008e-20)
(-0.0145273 -0.00915368 6.96017e-23)
(0.232583 0.162179 0)
(1.07839 0.741081 0)
(1.27575 0.885504 5.1165e-22)
(1.29816 0.917327 0)
(1.25034 0.902454 -2.43284e-21)
(1.18036 0.871889 5.21171e-21)
(1.10611 0.837609 0)
(1.02765 0.799152 4.4296e-21)
(0.945389 0.754084 8.41687e-20)
(0.861354 0.699563 -1.62246e-19)
(0.791012 0.641868 0)
(0.745629 0.592097 -4.62011e-20)
(0.710398 0.544015 -5.90088e-22)
(0.640493 0.471404 -4.17717e-22)
(0.496647 0.354613 5.57313e-20)
(0.311069 0.216433 2.37211e-23)
(0.144585 0.0975447 -1.55831e-19)
(0.030173 0.0188034 4.60458e-20)
(-0.0218045 -0.015367 1.36636e-20)
(-0.0134494 -0.00894706 0)
(0.232658 0.170515 -3.68257e-20)
(1.06934 0.774632 -1.75469e-20)
(1.26295 0.925184 -2.27869e-20)
(1.28356 0.95736 2.23963e-20)
(1.23524 0.94122 -7.42724e-21)
(1.16509 0.909143 0)
(1.09035 0.873352 1.17513e-20)
(1.01092 0.83331 -1.00294e-20)
(0.927024 0.786484 8.01254e-22)
(0.840465 0.729736 1.20488e-20)
(0.76711 0.669103 1.03724e-19)
(0.719246 0.615804 -1.62318e-20)
(0.682001 0.563071 -6.16858e-20)
(0.610981 0.484066 -2.56499e-20)
(0.470602 0.360768 3.02143e-20)
(0.293376 0.21838 4.92311e-23)
(0.135738 0.0977312 4.20314e-20)
(0.0279644 0.0187495 -9.92267e-20)
(-0.0205159 -0.0150856 1.17749e-19)
(-0.0125287 -0.00875668 1.73826e-20)
(0.232693 0.178596 1.39823e-20)
(1.06078 0.806599 -9.88026e-21)
(1.25035 0.96253 1.30317e-21)
(1.2692 0.994954 1.4361e-20)
(1.22045 0.977638 2.97288e-21)
(1.1502 0.944238 -8.31022e-21)
(1.07506 0.907157 3.08376e-21)
(0.994733 0.865782 -4.17051e-20)
(0.909278 0.817515 -9.29646e-20)
(0.820162 0.758941 -9.71311e-20)
(0.743562 0.695724 0)
(0.69279 0.638856 -7.17776e-20)
(0.653136 0.580804 8.92723e-20)
(0.580888 0.49422 0)
(0.444269 0.363654 -6.4905e-20)
(0.275643 0.217305 3.84763e-20)
(0.127028 0.0959795 -4.5286e-20)
(0.0257577 0.0180512 -5.34798e-20)
(-0.0195871 -0.0149094 -9.49592e-20)
(-0.0117976 -0.00859696 -7.50015e-20)
(0.233099 0.18656 -1.58417e-20)
(1.05257 0.836977 1.05849e-20)
(1.23802 0.997607 2.3977e-20)
(1.25519 1.03018 2.10131e-20)
(1.20609 1.0118 -5.4615e-21)
(1.13579 0.977262 -3.3695e-21)
(1.06034 0.939076 1.06039e-20)
(0.979204 0.896609 -4.26213e-20)
(0.892256 0.847201 -5.52134e-20)
(0.800594 0.787209 1.02012e-19)
(0.720501 0.721816 2.29452e-19)
(0.666308 0.661434 0)
(0.623644 0.597388 0)
(0.549797 0.501715 -2.96091e-20)
(0.417406 0.362585 0)
(0.258671 0.21205 8.27308e-20)
(0.120471 0.0913253 9.74262e-20)
(0.0258362 0.0163591 0)
(-0.0180495 -0.0148227 0)
(-0.0114311 -0.00860526 8.07223e-20)
(0.233218 0.194079 1.80254e-20)
(1.04472 0.865769 1.42754e-20)
(1.22603 1.03053 1.74491e-20)
(1.2416 1.06319 -2.02631e-20)
(1.19224 1.04383 -7.30304e-21)
(1.12194 1.00829 1.80408e-21)
(1.04625 0.969168 -1.43813e-20)
(0.964406 0.925822 -1.6936e-22)
(0.876057 0.875549 -1.05223e-21)
(0.781876 0.814541 -8.19624e-22)
(0.698085 0.74745 1.18573e-19)
(0.63989 0.683719 0)
(0.593397 0.613109 9.12032e-20)
(0.517166 0.506659 6.35384e-20)
(0.389177 0.357026 1.52113e-19)
(0.242164 0.200592 4.4705e-20)
(0.118295 0.0799574 -5.24647e-20)
(0.0341651 0.00906949 -3.09086e-20)
(-0.00863466 -0.0167839 0)
(-0.00987147 -0.00854581 8.68917e-20)
(0.233743 0.201635 -4.08122e-20)
(1.0372 0.893099 0)
(1.21437 1.06136 2.05733e-20)
(1.22847 1.09404 -1.72098e-20)
(1.17895 1.07381 1.00782e-20)
(1.10869 1.03741 1.04463e-21)
(1.03286 0.997487 2.65597e-20)
(0.950394 0.953454 -3.55181e-21)
(0.86074 0.902568 0)
(0.764106 0.840912 -1.13085e-19)
(0.676472 0.772667 -2.58867e-19)
(0.613655 0.705897 1.07064e-20)
(0.562367 0.628315 1.26773e-19)
(0.482524 0.509562 0)
(0.358083 0.347192 1.03099e-19)
(0.223333 0.180898 0)
(0.11843 0.053207 0)
(0.0581997 -0.0229323 -3.34245e-20)
(0.0392145 -0.0340282 0)
(0.0233936 0.00261675 2.33281e-20)
(0.233864 0.208645 -4.56341e-20)
(1.02998 0.91922 0)
(1.20306 1.09029 3.43586e-20)
(1.21576 1.123 0)
(1.16618 1.10201 -6.18551e-21)
(1.09598 1.06491 0)
(1.0201 1.02434 1.05038e-21)
(0.937072 0.979838 5.88935e-21)
(0.846182 0.928615 7.004e-21)
(0.747111 0.866694 -1.24378e-19)
(0.655464 0.797919 7.76137e-21)
(0.587285 0.728643 8.68174e-20)
(0.529998 0.64383 1.242e-19)
(0.444772 0.511169 1.67263e-20)
(0.321868 0.334479 8.12046e-20)
(0.19608 0.153504 0)
(0.106128 0.00656309 1.10688e-19)
(0.0617995 -0.0566075 -6.49974e-20)
(0.0286842 0.0480385 7.59852e-20)
(-0.0385767 0.458168 -9.02828e-20)
(0.233962 0.215505 3.784e-20)
(1.02282 0.943991 5.71708e-20)
(1.19199 1.11765 0)
(1.20331 1.15049 1.02336e-21)
(1.15375 1.12902 1.8395e-20)
(1.08354 1.09146 -9.72154e-21)
(1.00764 1.05053 8.37583e-21)
(0.924017 1.00591 0)
(0.831837 0.954781 4.57871e-20)
(0.730192 0.893183 -6.4239e-21)
(0.63411 0.824691 0)
(0.559403 0.753618 0)
(0.494066 0.660877 1.11824e-19)
(0.401102 0.511798 -5.18359e-20)
(0.277101 0.320572 -8.2752e-20)
(0.155413 0.121234 0)
(0.0624005 0.0307791 5.63791e-20)
(0.00475649 0.459535 -6.54132e-20)
(0.0298251 1.93349 -3.67103e-20)
(0.0562326 2.82793 -4.50647e-20)
(0.233746 0.221832 -2.85159e-20)
(1.0158 0.967585 -7.35568e-20)
(1.1812 1.14344 2.04935e-20)
(1.19115 1.1764 1.68675e-20)
(1.1417 1.15464 0)
(1.07148 1.11681 -9.02231e-21)
(0.995713 1.07574 1.00898e-20)
(0.911431 1.03125 -2.79277e-21)
(0.817998 0.980555 6.89919e-21)
(0.713756 0.919788 1.18684e-19)
(0.613059 0.852362 1.32031e-19)
(0.531003 0.780708 9.82634e-20)
(0.455327 0.679788 1.13202e-19)
(0.352598 0.510824 -1.2278e-19)
(0.229392 0.309412 -1.25729e-19)
(0.104101 0.179179 0)
(0.0372725 0.896043 0)
(0.0842142 2.58682 3.13103e-20)
(0.0872319 3.21446 0)
(0.0888441 3.39015 8.15584e-20)
(0.236335 0.227769 0)
(1.0092 0.990395 0)
(1.17039 1.16751 0)
(1.17906 1.20059 5.1049e-21)
(1.12971 1.17862 1.69244e-20)
(1.05959 1.14081 -9.27268e-21)
(0.984239 1.09988 5.97852e-21)
(0.899248 1.05571 -2.68939e-21)
(0.804602 1.00576 5.67169e-20)
(0.697796 0.946346 -1.71339e-21)
(0.592407 0.880729 2.61594e-19)
(0.502455 0.809998 -1.1424e-20)
(0.413659 0.70153 1.38098e-20)
(0.301035 0.506604 1.78809e-20)
(0.17081 0.327389 -6.31237e-22)
(0.0864169 1.02019 3.49614e-22)
(0.120442 2.7689 -1.67251e-19)
(0.125032 3.3019 -6.30261e-20)
(0.11626 3.42341 3.32169e-20)
(0.106372 3.44306 -3.74902e-20)
(0.159702 0.173505 1.7447e-20)
(0.998433 1.01516 0)
(1.15933 1.19009 -4.20516e-20)
(1.16747 1.22351 -4.61096e-20)
(1.11823 1.20145 3.97519e-20)
(1.04856 1.16392 1.074e-20)
(0.973021 1.12294 -5.4662e-21)
(0.887498 1.07936 2.79281e-20)
(0.791727 1.03048 -4.62929e-20)
(0.682537 0.972976 0)
(0.572457 0.909863 1.29106e-19)
(0.474299 0.841279 -8.06416e-20)
(0.372334 0.730991 0)
(0.241088 0.503791 1.74034e-20)
(0.124266 0.740468 4.12009e-20)
(0.135106 2.57504 -4.64988e-20)
(0.182274 3.32795 5.27349e-20)
(0.16563 3.43294 2.83284e-20)
(0.137842 3.45176 3.21403e-20)
(0.119041 3.46053 5.10401e-20)
(0.270969 0.265505 -3.36937e-20)
(0.980868 1.02529 0)
(1.14098 1.21601 4.53771e-20)
(1.15259 1.25471 5.07199e-20)
(1.10054 1.23514 -4.45058e-20)
(1.03028 1.19797 -1.56951e-20)
(0.953537 1.15854 1.35032e-21)
(0.86741 1.11624 2.23356e-21)
(0.770098 1.06962 4.33425e-20)
(0.657707 1.01628 1.02197e-19)
(0.54133 0.959453 7.21395e-21)
(0.430612 0.8939 7.19628e-20)
(0.29416 0.761373 1.31234e-20)
(0.201195 0.904011 -1.67744e-20)
(0.207216 2.45358 -3.76498e-20)
(0.258311 3.33145 3.68903e-20)
(0.241187 3.45747 -4.03485e-20)
(0.207279 3.47641 -2.3216e-20)
(0.174031 3.50099 -2.07781e-20)
(0.129103 3.49619 -3.02855e-21)
(0.261161 0.264399 0)
(0.977929 1.04816 1.31254e-20)
(1.13213 1.23967 -9.32564e-21)
(1.14138 1.27838 -6.02179e-21)
(1.08927 1.25851 -3.06696e-20)
(1.01899 1.22153 1.62154e-20)
(0.941906 1.18232 7.75145e-22)
(0.855482 1.14088 1.94172e-21)
(0.757448 1.09578 -4.47229e-20)
(0.643374 1.04545 -2.74649e-21)
(0.523384 0.993541 -2.33089e-19)
(0.40567 0.930397 1.03313e-20)
(0.275062 0.834806 -1.24281e-20)
(0.236741 1.53882 -1.54101e-20)
(0.300085 3.14404 3.67185e-21)
(0.312575 3.45898 2.01698e-22)
(0.271384 3.50601 5.91688e-20)
(0.237701 3.52969 2.97238e-20)
(0.192092 3.54986 -9.11513e-21)
(0.142307 3.54667 -1.47844e-20)
(0.24722 0.262448 3.35433e-20)
(0.974072 1.07359 8.89532e-20)
(1.12293 1.26543 -2.66178e-20)
(1.12979 1.30367 -2.26622e-20)
(1.07754 1.28336 0)
(1.00732 1.24641 2.89759e-20)
(0.930176 1.20747 4.22385e-21)
(0.843713 1.16684 1.62505e-21)
(0.745272 1.12339 -5.03909e-21)
(0.630065 1.07638 -9.13923e-20)
(0.507425 1.03002 -1.07145e-19)
(0.383601 0.968249 -8.43069e-20)
(0.277874 0.982473 -9.33768e-20)
(0.302789 2.31617 9.64958e-20)
(0.381202 3.38697 8.11306e-20)
(0.352204 3.51493 0)
(0.304512 3.55217 0)
(0.268009 3.58604 -7.1323e-21)
(0.224446 3.63109 0)
(0.155016 3.61617 -1.06355e-20)
(0.237431 0.264401 -4.99894e-20)
(0.968295 1.09988 -7.52839e-20)
(1.11235 1.29242 0)
(1.11695 1.3298 1.24481e-21)
(1.06456 1.30887 -3.30148e-20)
(0.99457 1.27187 4.68182e-20)
(0.917693 1.23324 4.52283e-21)
(0.83142 1.19336 5.8819e-22)
(0.732836 1.15154 -3.02321e-20)
(0.616943 1.10788 4.4503e-21)
(0.492636 1.06718 0)
(0.363803 1.01013 0)
(0.300121 1.27941 -8.44551e-20)
(0.382623 2.9763 3.43434e-20)
(0.446425 3.48539 4.33632e-20)