/*--------------------------------*- C++ -*----------------------------------*\
  =========                 |
  \\      /  F ield         | OpenFOAM: The Open Source CFD Toolbox
   \\    /   O peration     | Website:  https://openfoam.org
    \\  /    A nd           | Version:  6
     \\/     M anipulation  |
\*---------------------------------------------------------------------------*/
FoamFile
{
    version     2.0;
    format      ascii;
    class       volVectorField;
    location    "2";
    object      U;
}
// * * * * * * * * * * * * * * * * * * * * * * * * * * * * * * * * * * * * * //

dimensions      [0 1 -1 0 0 0 0];

internalField   nonuniform List<vector> 
8800
(
(0.973136 -0.0770287 0)
(1.01176 -0.0598217 0)
(1.00042 -0.0339213 0)
(0.995502 -0.0183601 0)
(0.994319 -0.0093827 0)
(0.994234 -0.00484919 0)
(0.994364 -0.00261825 0)
(0.99449 -0.00144363 0)
(0.994559 -0.000748029 0)
(0.994589 -0.000162731 0)
(0.994585 0.000385274 0)
(0.994547 0.00101297 0)
(0.994449 0.00188828 0)
(0.994314 0.00350626 0)
(0.994243 0.00668852 0)
(0.994651 0.0131601 0)
(0.99732 0.025222 0)
(1.00507 0.0448203 0)
(1.01381 0.0740392 0)
(0.762612 0.0368078 0)
(0.445889 -0.0100056 0)
(1.04511 -0.0408979 0)
(1.05803 -0.0390003 0)
(1.02888 -0.0370918 0)
(1.00863 -0.0312576 0)
(0.997374 -0.0238698 0)
(0.991249 -0.0171086 0)
(0.987878 -0.0114909 0)
(0.986039 -0.00682752 0)
(0.985057 -0.00271767 0)
(0.984883 0.00126936 0)
(0.985486 0.00526131 0)
(0.986858 0.00952631 0)
(0.989333 0.0145351 0)
(0.993886 0.0206586 0)
(1.00212 0.027798 0)
(1.01749 0.0347652 0)
(1.04284 0.0387792 0)
(1.06708 0.0386911 0)
(0.896384 0.0319791 0)
(0.358298 -0.00101465 0)
(1.05895 -0.0170075 0)
(1.05472 -0.0220008 0)
(1.04313 -0.0237652 0)
(1.03378 -0.0226136 0)
(1.02675 -0.0195071 0)
(1.02186 -0.0153061 0)
(1.01881 -0.0106118 0)
(1.01707 -0.00574434 0)
(1.01632 -0.000636149 0)
(1.01651 0.0044755 0)
(1.01765 0.00930547 0)
(1.01993 0.0139264 0)
(1.0238 0.0182592 0)
(1.0297 0.0218181 0)
(1.03785 0.0239209 0)
(1.04835 0.0235425 0)
(1.06014 0.0202068 0)
(1.01706 0.0132414 0)
(0.358065 0.00102978 0)
(0.355268 0.000359485 0)
(1.02635 -0.00278496 0)
(1.03156 -0.00714611 0)
(1.02759 -0.0107591 0)
(1.02231 -0.0126363 0)
(1.01729 -0.0125298 0)
(1.01287 -0.0109425 0)
(1.00938 -0.00813284 0)
(1.00699 -0.00452788 0)
(1.00582 -0.000280932 0)
(1.00608 0.00404565 0)
(1.00772 0.00781502 0)
(1.01054 0.0108352 0)
(1.01446 0.0128917 0)
(1.01916 0.0135624 0)
(1.0244 0.0124778 0)
(1.02912 0.00946576 0)
(1.03148 0.00521567 0)
(0.984551 0.000873107 0)
(0.354858 -0.000345769 0)
(0.355121 -0.000102038 0)
(1.0212 -0.00178093 0)
(1.02766 -0.00355755 0)
(1.02632 -0.00526087 0)
(1.02438 -0.00652672 0)
(1.02197 -0.00707272 0)
(1.0193 -0.00667385 0)
(1.01675 -0.00527288 0)
(1.0147 -0.00295811 0)
(1.01354 0.000118917 0)
(1.0137 0.00331938 0)
(1.01507 0.00584441 0)
(1.01721 0.00746272 0)
(1.01972 0.0081165 0)
(1.02224 0.00778914 0)
(1.02441 0.0066186 0)
(1.02607 0.00489516 0)
(1.02632 0.00292859 0)
(0.979921 0.00111742 0)
(0.354549 0.000112864 0)
(0.353876 -2.972e-05 0)
(1.01719 -0.000839754 0)
(1.02376 -0.00168789 0)
(1.02315 -0.00255845 0)
(1.02211 -0.00330445 0)
(1.02068 -0.00374887 0)
(1.01895 -0.00368882 0)
(1.01712 -0.00296808 0)
(1.0155 -0.00152358 0)
(1.01442 0.00055022 0)
(1.01445 0.00271256 0)
(1.01547 0.00425969 0)
(1.01694 0.00504874 0)
(1.01855 0.00511399 0)
(1.02001 0.00459785 0)
(1.02117 0.00370249 0)
(1.02196 0.00263498 0)
(1.02175 0.00154864 0)
(0.975706 0.000597942 0)
(0.353074 4.50171e-05 0)
(0.353354 -1.5361e-05 0)
(1.01551 -0.000397736 0)
(1.02219 -0.00079844 0)
(1.0219 -0.00122165 0)
(1.02133 -0.00160327 0)
(1.0205 -0.00184272 0)
(1.0194 -0.00180809 0)
(1.01815 -0.0013645 0)
(1.01692 -0.000429562 0)
(1.01603 0.000964034 0)
(1.01588 0.00238318 0)
(1.01643 0.00329446 0)
(1.01729 0.0036163 0)
(1.0182 0.00345859 0)
(1.01899 0.00297403 0)
(1.01957 0.00231992 0)
(1.01994 0.00162084 0)
(1.0195 0.000957046 0)
(0.973566 0.000381348 0)
(0.35228 3.44138e-05 0)
(0.353129 -2.68553e-06 0)
(1.01474 -0.00014339 0)
(1.02145 -0.000301037 0)
(1.02129 -0.000465018 0)
(1.02093 -0.000600961 0)
(1.0204 -0.000655462 0)
(1.01966 -0.000550246 0)
(1.01875 -0.000197659 0)
(1.01778 0.000463852 0)
(1.01696 0.00140626 0)
(1.01664 0.00229834 0)
(1.01682 0.00278531 0)
(1.01723 0.00284058 0)
(1.01769 0.00258864 0)
(1.01808 0.0021541 0)
(1.01837 0.00164594 0)
(1.01854 0.00113827 0)
(1.018 0.000673408 0)
(0.972134 0.000272798 0)
(0.351719 2.66957e-05 0)
(0.353113 5.6396e-06 0)
(1.01453 1.75393e-05 0)
(1.02125 1.62958e-05 0)
(1.02115 2.69062e-05 0)
(1.0209 6.67627e-05 0)
(1.02052 0.00016563 0)
(1.01996 0.000365835 0)
(1.01924 0.000715308 0)
(1.0184 0.00124183 0)
(1.01759 0.00190218 0)
(1.01708 0.0024411 0)
(1.01693 0.00265659 0)
(1.01702 0.00251984 0)
(1.01717 0.00219898 0)
(1.01731 0.0017816 0)
(1.01742 0.00134067 0)
(1.01749 0.000921676 0)
(1.01689 0.000546923 0)
(0.97106 0.000225734 0)
(0.351275 2.38158e-05 0)
(0.353249 1.46081e-05 0)
(1.0147 0.00014398 0)
(1.02143 0.000257933 0)
(1.02136 0.000398752 0)
(1.02115 0.000577593 0)
(1.02083 0.000810168 0)
(1.02035 0.0011161 0)
(1.0197 0.0015123 0)
(1.01889 0.00199328 0)
(1.018 0.00249093 0)
(1.01728 0.00279134 0)
(1.01688 0.00276004 0)
(1.01667 0.00252064 0)
(1.0166 0.0021314 0)
(1.01658 0.00169211 0)
(1.01657 0.00125899 0)
(1.01657 0.000862153 0)
(1.01593 0.000513938 0)
(0.970123 0.000215722 0)
(0.350869 2.42726e-05 0)
(0.353511 2.17595e-05 0)
(1.01518 0.000256239 0)
(1.0219 0.000471095 0)
(1.02184 0.000726861 0)
(1.02165 0.00103263 0)
(1.02134 0.0013956 0)
(1.02087 0.00182021 0)
(1.0202 0.00229973 0)
(1.01933 0.00279756 0)
(1.01828 0.0032155 0)
(1.01731 0.00335804 0)
(1.01664 0.00317842 0)
(1.01621 0.0027887 0)
(1.01595 0.00230578 0)
(1.0158 0.00180586 0)
(1.01571 0.00133382 0)
(1.01565 0.000911324 0)
(1.01498 0.000544761 0)
(0.969187 0.000231288 0)
(0.350449 2.71645e-05 0)
(0.353904 2.99595e-05 0)
(1.01595 0.000369413 0)
(1.02267 0.000685672 0)
(1.02259 0.00105933 0)
(1.02239 0.00149708 0)
(1.02205 0.00200178 0)
(1.02153 0.00256612 0)
(1.02079 0.00316325 0)
(1.01977 0.00372718 0)
(1.01849 0.00412379 0)
(1.01722 0.00415212 0)
(1.01626 0.00382173 0)
(1.01561 0.00328969 0)
(1.01518 0.00268508 0)
(1.0149 0.00208622 0)
(1.01474 0.0015342 0)
(1.01464 0.00104692 0)
(1.01394 0.000627323 0)
(0.96815 0.000268372 0)
(0.349973 3.24027e-05 0)
(0.354439 3.96548e-05 0)
(1.01703 0.000498691 0)
(1.02373 0.000928436 0)
(1.02364 0.00143388 0)
(1.0234 0.00202262 0)
(1.023 0.00269263 0)
(1.02239 0.00342736 0)
(1.0215 0.00418055 0)
(1.02026 0.00485532 0)
(1.01866 0.00527404 0)
(1.01702 0.00521188 0)
(1.01573 0.00472673 0)
(1.01483 0.00402713 0)
(1.01422 0.00326432 0)
(1.01383 0.00252525 0)
(1.01358 0.00185273 0)
(1.01343 0.0012632 0)
(1.01271 0.000757656 0)
(0.966923 0.000325212 0)
(0.349402 3.97627e-05 0)
(0.355147 5.17788e-05 0)
(1.01846 0.000655121 0)
(1.02516 0.00122044 0)
(1.02503 0.00188479 0)
(1.02473 0.00265543 0)
(1.02424 0.00352778 0)
(1.02349 0.00447471 0)
(1.02238 0.00543024 0)
(1.02083 0.0062615 0)
(1.01881 0.00673793 0)
(1.0167 0.00659355 0)
(1.01502 0.00593312 0)
(1.01383 0.00502695 0)
(1.01302 0.00405954 0)
(1.01249 0.00313309 0)
(1.01216 0.00229585 0)
(1.01196 0.00156477 0)
(1.01121 0.000939062 0)
(0.96542 0.000403862 0)
(0.348699 4.97804e-05 0)
(0.356068 6.71349e-05 0)
(1.02034 0.000850673 0)
(1.02701 0.00158499 0)
(1.02684 0.00244648 0)
(1.02646 0.00344451 0)
(1.02585 0.00457017 0)
(1.02489 0.00578572 0)
(1.02349 0.00700069 0)
(1.02153 0.00803929 0)
(1.01896 0.00860503 0)
(1.01626 0.008374 0)
(1.0141 0.00750181 0)
(1.01255 0.00633587 0)
(1.0115 0.00510569 0)
(1.01081 0.0039352 0)
(1.01038 0.0028815 0)
(1.01013 0.00196322 0)
(1.00934 0.00117861 0)
(0.963543 0.00050728 0)
(0.347818 6.26309e-05 0)
(0.357264 8.69943e-05 0)
(1.02278 0.00110009 0)
(1.02941 0.00204862 0)
(1.02918 0.00316085 0)
(1.02869 0.00444722 0)
(1.02791 0.00589492 0)
(1.02669 0.00745172 0)
(1.0249 0.0089977 0)
(1.0224 0.0103034 0)
(1.01911 0.0109884 0)
(1.01567 0.0106538 0)
(1.0129 0.00951627 0)
(1.01092 0.008021 0)
(1.00958 0.00645497 0)
(1.00869 0.004971 0)
(1.00814 0.00363793 0)
(1.00782 0.00247794 0)
(1.00699 0.00148742 0)
(0.96118 0.000640201 0)
(0.346709 7.89445e-05 0)
(0.358813 0.000112899 0)
(1.02592 0.00142189 0)
(1.0325 0.00264607 0)
(1.03219 0.00408004 0)
(1.03157 0.00573632 0)
(1.03055 0.00759592 0)
(1.02899 0.00958849 0)
(1.02669 0.0115552 0)
(1.02348 0.0131983 0)
(1.01928 0.0140317 0)
(1.01488 0.0135627 0)
(1.01136 0.0120866 0)
(1.00885 0.0101715 0)
(1.00713 0.00817703 0)
(1.00601 0.0062928 0)
(1.00531 0.00460329 0)
(1.00489 0.00313479 0)
(1.00401 0.00188122 0)
(0.958193 0.000809335 0)
(0.345308 9.97604e-05 0)
(0.360826 0.000147057 0)
(1.02997 0.00184154 0)
(1.0365 0.00342292 0)
(1.03608 0.00527318 0)
(1.03527 0.00740722 0)
(1.03395 0.00979663 0)
(1.03192 0.012346 0)
(1.02895 0.0148452 0)
(1.02482 0.0169082 0)
(1.01945 0.0179164 0)
(1.01385 0.0172645 0)
(1.00938 0.0153514 0)
(1.0062 0.0129005 0)
(1.00402 0.0103618 0)
(1.0026 0.00796973 0)
(1.00172 0.00582792 0)
(1.00119 0.00396756 0)
(1.00025 0.00238025 0)
(0.954415 0.00102346 0)
(0.343538 0.00012597 0)
(0.363452 0.000192798 0)
(1.03522 0.00239361 0)
(1.04167 0.00444236 0)
(1.0411 0.00683604 0)
(1.04003 0.00959019 0)
(1.0383 0.0126632 0)
(1.03565 0.0159237 0)
(1.0318 0.0190928 0)
(1.02648 0.0216699 0)
(1.0196 0.0228714 0)
(1.01249 0.0219629 0)
(1.00684 0.0194839 0)
(1.00282 0.0163505 0)
(1.00008 0.013122 0)
(0.998284 0.0100879 0)
(0.997165 0.00737431 0)
(0.996502 0.00501886 0)
(0.995482 0.00300968 0)
(0.949633 0.00129301 0)
(0.341305 0.000158762 0)
(0.366902 0.000254937 0)
(1.04204 0.00312935 0)
(1.04837 0.00579571 0)
(1.0476 0.00890343 0)
(1.04618 0.0124689 0)
(1.04389 0.0164269 0)
(1.04041 0.0205944 0)
(1.03538 0.0245977 0)
(1.02851 0.0277888 0)
(1.01972 0.0291838 0)
(1.01071 0.0279094 0)
(1.00358 0.0246963 0)
(0.998517 0.0206972 0)
(0.995069 0.0165993 0)
(0.992816 0.0127565 0)
(0.991406 0.00932311 0)
(0.990572 0.00634403 0)
(0.989452 0.00380321 0)
(0.943587 0.00163241 0)
(0.338491 0.000199953 0)
(0.37148 0.000341724 0)
(1.05096 0.00412663 0)
(1.05712 0.00761983 0)
(1.05605 0.0116785 0)
(1.05413 0.016312 0)
(1.05107 0.0214185 0)
(1.04645 0.0267363 0)
(1.03985 0.0317611 0)
(1.03095 0.0356571 0)
(1.01972 0.0372068 0)
(1.00835 0.0354062 0)
(0.999408 0.0312449 0)
(0.99306 0.0261552 0)
(0.988735 0.0209695 0)
(0.985903 0.0161148 0)
(0.984127 0.0117782 0)
(0.983075 0.0080142 0)
(0.981828 0.00480343 0)
(0.935946 0.00205986 0)
(0.334945 0.000251712 0)
(0.377649 0.000467052 0)
(1.06271 0.00551233 0)
(1.06862 0.0101353 0)
(1.06711 0.0154766 0)
(1.06447 0.0215312 0)
(1.06028 0.0281295 0)
(1.05407 0.0348889 0)
(1.04534 0.0411251 0)
(1.0338 0.0457742 0)
(1.0195 0.0473655 0)
(1.00523 0.0448062 0)
(0.994083 0.0394316 0)
(0.986165 0.0329874 0)
(0.980749 0.0264562 0)
(0.977183 0.0203442 0)
(0.974939 0.0148786 0)
(0.973605 0.0101284 0)
(0.972193 0.00607117 0)
(0.92629 0.00260212 0)
(0.330478 0.000317617 0)
(0.386154 0.000658012 0)
(1.07837 0.0075201 0)
(1.08388 0.01373 0)
(1.08169 0.0208361 0)
(1.07792 0.0287961 0)
(1.07206 0.0373202 0)
(1.06355 0.0458363 0)
(1.05193 0.0534213 0)
(1.03696 0.0587599 0)
(1.01886 0.0601508 0)
(1.00111 0.0565049 0)
(0.987329 0.0496021 0)
(0.977509 0.0415119 0)
(0.970733 0.0333506 0)
(0.966225 0.0256988 0)
(0.963359 0.0188293 0)
(0.961643 0.0128367 0)
(0.960006 0.00770319 0)
(0.91407 0.00330329 0)
(0.324828 0.000403731 0)
(0.398355 0.000976785 0)
(1.09955 0.0106824 0)
(1.1044 0.0192034 0)
(1.10103 0.0287701 0)
(1.09538 0.0392764 0)
(1.0869 0.0502141 0)
(1.07504 0.0607233 0)
(1.05945 0.0696108 0)
(1.04011 0.0753502 0)
(1.01744 0.0760934 0)
(0.995643 0.0709121 0)
(0.978815 0.0621311 0)
(0.966737 0.052111 0)
(0.95827 0.0420469 0)
(0.95252 0.0325645 0)
(0.948786 0.023979 0)
(0.946518 0.0164243 0)
(0.944555 0.00990189 0)
(0.898544 0.00426679 0)
(0.317603 0.000524202 0)
(0.417195 0.00163293 0)
(1.12898 0.0165422 0)
(1.13255 0.0284719 0)
(1.12679 0.0413692 0)
(1.11771 0.0550904 0)
(1.10493 0.0687514 0)
(1.08815 0.0811375 0)
(1.06729 0.0908636 0)
(1.04258 0.0963308 0)
(1.01463 0.0957007 0)
(0.988336 0.0884029 0)
(0.968136 0.0773864 0)
(0.953481 0.0652201 0)
(0.942956 0.0530827 0)
(0.935552 0.0415782 0)
(0.930538 0.0310196 0)
(0.927371 0.0215783 0)
(0.924865 0.0132651 0)
(0.878701 0.00590228 0)
(0.308127 0.000734448 0)
(0.447713 0.0035434 0)
(1.1722 0.0296744 0)
(1.17223 0.0460065 0)
(1.16083 0.0626984 0)
(1.14528 0.0797469 0)
(1.12566 0.0956426 0)
(1.10201 0.108952 0)
(1.07448 0.11836 0)
(1.04349 0.122387 0)
(1.00976 0.119363 0)
(0.978761 0.109258 0)
(0.955052 0.0956804 0)
(0.937618 0.0812965 0)
(0.924701 0.0671496 0)
(0.915145 0.0537614 0)
(0.90818 0.0413526 0)
(0.903311 0.0301133 0)
(0.899424 0.0197621 0)
(0.853298 0.00984647 0)
(0.295766 0.00125243 0)
(0.493237 0.0150465 1.88411e-20)
(1.23367 0.0617949 1.63102e-20)
(1.22317 0.0798677 -5.62054e-21)
(1.20137 0.0994257 0)
(1.17626 0.117976 -1.30566e-34)
(1.14779 0.133892 1.87302e-21)
(1.11587 0.146126 -3.16664e-21)
(1.08071 0.153601 0)
(1.04273 0.154972 6.05126e-35)
(1.00263 0.148683 -3.48088e-21)
(0.966462 0.135343 0)
(0.938812 0.119169 -3.9323e-21)
(0.918076 0.102811 -1.14676e-20)
(0.90209 0.0871419 -5.38036e-21)
(0.889469 0.0726433 -1.59812e-21)
(0.879263 0.0595493 -9.46945e-22)
(0.870823 0.0482101 0)
(0.86308 0.0384521 6.68886e-22)
(0.81702 0.0281796 7.95564e-22)
(0.281385 0.00832558 1.45768e-20)
(0.514819 0.0435455 1.57271e-20)
(1.28961 0.122202 1.04283e-22)
(1.26893 0.136985 1.60953e-21)
(1.23785 0.153749 0)
(1.20397 0.169603 -6.96514e-21)
(1.16717 0.183107 -7.66423e-21)
(1.1274 0.192941 -3.27714e-21)
(1.0847 0.197882 -1.09994e-20)
(1.03939 0.196448 0)
(0.992045 0.187092 1.4779e-20)
(0.949339 0.17094 1.42684e-20)
(0.91637 0.152786 4.1442e-21)
(0.891173 0.135277 1.4753e-20)
(0.871194 0.119226 2.04552e-20)
(0.854784 0.104949 0)
(0.840869 0.0928088 2.87123e-20)
(0.828738 0.0829063 4.14516e-20)
(0.817433 0.0762781 4.63082e-20)
(0.772621 0.0662685 -5.35155e-20)
(0.270163 0.0237787 -9.67738e-22)
(0.513794 0.0749187 0)
(1.32631 0.198781 3.43826e-21)
(1.3015 0.208177 0)
(1.26434 0.219168 -1.07775e-20)
(1.22401 0.23007 0)
(1.18066 0.239244 -1.57444e-20)
(1.1343 0.245235 6.84363e-21)
(1.08504 0.246509 -2.27681e-20)
(1.03325 0.24147 -2.39569e-22)
(0.979549 0.22848 7.72624e-21)
(0.931379 0.209286 3.07377e-20)
(0.894271 0.189235 1.06472e-23)
(0.865937 0.170947 -1.05618e-20)
(0.843548 0.154955 -1.88073e-20)
(0.825373 0.141395 2.22652e-20)
(0.810329 0.130312 -3.93837e-20)
(0.79763 0.121725 -5.21483e-21)
(0.78627 0.116024 0)
(0.743599 0.105543 2.07602e-22)
(0.264251 0.0377062 0)
(0.514291 0.103494 5.77564e-20)
(1.34633 0.274438 -2.7011e-20)
(1.32006 0.280807 -1.80213e-20)
(1.28021 0.287543 5.51404e-21)
(1.23621 0.294057 -9.05798e-21)
(1.18836 0.298883 3.34247e-20)
(1.13685 0.300696 1.44529e-20)
(1.08204 0.297899 0)
(1.02453 0.288807 -4.03721e-20)
(0.965174 0.27172 0)
(0.912323 0.249051 -1.61417e-20)
(0.872037 0.226748 -1.91459e-20)
(0.841681 0.207239 -1.1266e-20)
(0.818072 0.190758 -1.34178e-20)
(0.799273 0.177157 0)
(0.784001 0.16622 0)
(0.771394 0.157758 -3.34544e-20)
(0.760243 0.15212 6.60182e-21)
(0.718989 0.14028 -3.95037e-21)
(0.257374 0.0503945 -4.64881e-21)
(0.516112 0.131249 -3.4026e-20)
(1.35842 0.347988 0)
(1.33082 0.35224 4.3224e-20)
(1.28884 0.355677 1.70582e-20)
(1.24207 0.35853 2.00701e-20)
(1.19072 0.359555 0)
(1.13505 0.357479 1.48694e-20)
(1.07555 0.350647 2.55745e-20)
(1.01303 0.337317 2.11041e-20)
(0.948717 0.315756 3.54075e-20)
(0.891948 0.289123 0)
(0.849275 0.264028 -4.05734e-20)
(0.817647 0.242737 -2.37793e-20)
(0.793466 0.225202 -1.38357e-20)
(0.774526 0.210965 8.3309e-20)
(0.759391 0.199611 9.85623e-21)
(0.747041 0.190847 4.69502e-20)
(0.736252 0.18471 -2.24154e-19)
(0.696448 0.171484 1.33836e-19)
(0.25095 0.0618527 -1.63674e-19)
(0.517432 0.157753 -2.96199e-20)
(1.36509 0.418779 6.98736e-21)
(1.33612 0.421682 -6.19915e-21)
(1.29248 0.422547 -2.21212e-20)
(1.2434 0.422433 -1.98431e-20)
(1.18911 0.420199 3.27391e-22)
(1.12985 0.414544 -1.60292e-20)
(1.06618 0.403862 2.69701e-20)
(0.999125 0.386238 -4.5216e-20)
(0.930284 0.359933 0)
(0.870107 0.3288 -1.87133e-20)
(0.825602 0.300316 -7.26312e-23)
(0.793243 0.276715 -2.53614e-20)
(0.76892 0.257612 0)
(0.750173 0.242328 -1.76493e-20)
(0.735409 0.230161 -4.15922e-20)
(0.723495 0.220812 1.11643e-19)
(0.713172 0.213961 -1.10903e-19)
(0.674772 0.199315 1.58428e-19)
(0.244608 0.0721576 -1.67112e-19)
(0.518746 0.183337 -4.15644e-22)
(1.36805 0.486954 -6.8127e-21)
(1.33775 0.488809 -2.47849e-20)
(1.29252 0.487645 1.11218e-20)
(1.2414 0.48509 -1.05059e-20)
(1.1845 0.480079 0)
(1.12195 0.471258 -1.62217e-20)
(1.05443 0.456973 -2.86528e-20)
(0.983068 0.435119 -2.38906e-20)
(0.909935 0.403802 0)
(0.846639 0.367627 -1.94667e-20)
(0.800718 0.335161 -2.27459e-20)
(0.768026 0.308731 2.6794e-20)
(0.743948 0.28761 -1.59658e-20)
(0.725684 0.27092 -7.38858e-20)
(0.711476 0.257813 4.38277e-20)
(0.700138 0.247578 1.31002e-20)
(0.690362 0.239986 0)
(0.653428 0.223877 -1.475e-19)
(0.23845 0.0814354 -5.42832e-21)
(0.520168 0.2083 -3.72449e-21)
(1.36856 0.552395 6.8664e-21)
(1.33682 0.553563 1.31859e-20)
(1.2901 0.550757 3.70109e-20)
(1.23706 0.546237 -4.32809e-20)
(1.17765 0.538827 3.9222e-20)
(1.11207 0.527234 3.50575e-20)
(1.0408 0.509577 -4.60539e-20)
(0.965236 0.483636 1.3585e-20)
(0.887801 0.447137 -8.59804e-20)
(0.821442 0.40538 -2.10899e-20)
(0.774368 0.368304 0)
(0.741725 0.338465 2.82114e-20)
(0.718252 0.315012 3.27841e-20)
(0.700752 0.296704 3.88052e-20)
(0.687321 0.282353 -4.57236e-20)
(0.67671 0.271249 -1.34292e-20)
(0.667582 0.262842 1.61994e-20)
(0.63212 0.245325 0)
(0.232697 0.0898808 -1.1381e-20)
(0.52165 0.232457 3.59114e-20)
(1.36735 0.615306 -2.70285e-20)
(1.33416 0.615957 -1.40741e-20)
(1.28596 0.611844 2.57194e-20)
(1.23106 0.60563 -2.22579e-20)
(1.16929 0.596222 -6.45038e-22)
(1.10069 0.582218 -3.8093e-20)
(1.0258 0.561553 -1.65916e-20)
(0.945947 0.531739 -4.14178e-20)
(0.863983 0.489918 9.99235e-23)
(0.794409 0.44199 -6.65429e-20)
(0.746321 0.39954 5.13431e-20)
(0.714122 0.365733 -2.9519e-20)
(0.691691 0.339546 3.43261e-20)
(0.675325 0.319419 0)
(0.662931 0.303847 -2.34677e-20)
(0.653177 0.291902 -4.02723e-22)
(0.644806 0.282662 -6.62455e-20)
(0.610935 0.263955 -9.99863e-21)
(0.227367 0.0975762 0)
(0.523169 0.255795 0)
(1.3651 0.675807 -2.93664e-20)
(1.33038 0.676046 -2.81899e-20)
(1.28068 0.670854 -2.68563e-20)
(1.22397 0.663255 -2.50556e-20)
(1.15988 0.65215 0)
(1.0884 0.636065 -1.92007e-20)
(1.00985 0.612758 -3.88379e-23)
(0.925587 0.579343 8.90805e-20)
(0.838678 0.532188 -1.21617e-20)
(0.765459 0.477521 -4.74665e-20)
(0.716332 0.428767 2.72336e-20)
(0.685 0.390278 2.26528e-22)
(0.664192 0.36093 3.57132e-20)
(0.649491 0.338875 2.0939e-20)
(0.63848 0.322119 -4.93432e-20)
(0.629837 0.309346 5.77356e-20)
(0.622311 0.299545 1.69064e-20)
(0.590099 0.279758 7.1265e-20)
(0.222679 0.104727 -1.93726e-19)
(0.524981 0.278783 6.817e-21)
(1.36206 0.733933 -1.41388e-20)
(1.3258 0.733835 1.28983e-20)
(1.27469 0.727749 2.75672e-20)
(1.21615 0.71898 0)
(1.1499 0.70645 -2.23789e-20)
(1.07556 0.688604 6.33532e-20)
(0.99343 0.663129 3.79367e-20)
(0.904482 0.626513 0)
(0.812094 0.574263 -1.71928e-19)
(0.734389 0.512216 1.26767e-19)
(0.684051 0.455965 0)
(0.654098 0.411706 3.21766e-20)
(0.63574 0.378795 4.76446e-22)
(0.623416 0.35475 -6.37179e-20)
(0.61429 0.337067 2.53024e-20)
(0.607031 0.323735 0)
(0.60052 0.313551 8.67533e-20)
(0.570076 0.293181 0)
(0.219312 0.111759 -8.62906e-20)
(0.527009 0.301267 -6.93436e-21)
(1.35858 0.789768 -1.33834e-20)
(1.32077 0.78939 1.42322e-20)
(1.26825 0.782493 0)
(1.20804 0.772763 -2.70598e-20)
(1.13959 0.759098 0)
(1.06256 0.739835 -6.61074e-20)
(0.976833 0.712576 -1.92658e-20)
(0.883074 0.67331 1.67549e-20)
(0.784503 0.616235 -8.53697e-20)
(0.701254 0.546419 1.35804e-20)
(0.64899 0.48125 0)
(0.620957 0.429721 -6.71303e-20)
(0.606219 0.392432 -6.11583e-22)
(0.597483 0.366417 0)
(0.591068 0.348139 -1.95516e-22)
(0.585617 0.334917 7.375e-20)
(0.580255 0.324872 -7.00287e-20)
(0.551793 0.304463 2.07535e-20)
(0.217712 0.119005 0)
(0.528722 0.322827 0)
(1.3547 0.843376 -1.31722e-20)
(1.31541 0.842693 -1.34823e-20)
(1.26155 0.835094 -4.78613e-22)
(1.19972 0.824544 -1.32345e-20)
(1.12931 0.809909 -5.19195e-20)
(1.04969 0.789573 2.42858e-20)
(0.960458 0.760984 -2.16708e-20)
(0.861832 0.719702 7.34922e-20)
(0.756297 0.658559 -1.38731e-19)
(0.665902 0.580717 -3.91988e-22)
(0.610554 0.504877 -3.22213e-20)
(0.584767 0.44389 1.04827e-19)
(0.57541 0.400913 9.43145e-22)
(0.572115 0.372907 -4.30603e-20)
(0.569755 0.354876 -7.57677e-20)
(0.566811 0.342637 0)
(0.562772 0.333774 0)
(0.536435 0.31436 2.06356e-20)
(0.218752 0.127204 -1.19068e-20)
(0.531001 0.344109 -6.28276e-21)
(1.35055 0.894751 2.74003e-20)
(1.30992 0.893727 1.45193e-20)
(1.25476 0.885507 0)
(1.19144 0.874248 -2.43122e-22)
(1.11915 0.858867 -5.35006e-20)
(1.03716 0.837766 6.29536e-20)
(0.94462 0.808291 9.03226e-20)
(0.841026 0.765775 9.82735e-20)
(0.727877 0.70154 -1.16569e-19)
(0.628453 0.615802 -1.11218e-19)
(0.567911 0.527391 8.65116e-20)
(0.544353 0.453641 0)
(0.542747 0.402651 -1.8838e-20)
(0.548001 0.372533 -4.30338e-20)
(0.551933 0.355987 -4.91903e-20)
(0.552574 0.346572 -5.68724e-20)
(0.550127 0.340493 1.62501e-20)
(0.525942 0.323739 -1.0187e-20)
(0.223662 0.137306 -6.57923e-22)
(0.532703 0.364798 0)
(1.34631 0.943854 0)
(1.30432 0.942456 4.86706e-22)
(1.24799 0.933615 0)
(1.18328 0.921757 4.3385e-20)
(1.10932 0.905774 4.13985e-20)
(1.02522 0.884106 0)
(0.929557 0.854273 1.1636e-20)
(0.821167 0.811332 1.68869e-19)
(0.699902 0.745307 -2.70126e-19)
(0.589199 0.65267 0)
(0.520239 0.549943 -5.6421e-20)
(0.497736 0.458699 1.15297e-21)
(0.506938 0.395502 1.13322e-21)
(0.525842 0.362533 4.20104e-20)
(0.539945 0.349639 -4.35551e-22)
(0.545881 0.345868 -1.07957e-19)
(0.545335 0.345558 3.14425e-20)
(0.523039 0.334175 8.97621e-21)
(0.233993 0.150523 0)
(0.534022 0.384721 1.48236e-20)
(1.3419 0.990831 1.31686e-20)
(1.29873 0.988953 2.84988e-20)
(1.24129 0.979488 -6.02523e-20)
(1.17535 0.967017 7.48042e-20)
(1.09996 0.950568 0)
(1.01391 0.928604 4.21665e-20)
(0.915526 0.898817 -2.55613e-20)
(0.802568 0.856252 5.8691e-22)
(0.672885 0.789984 1.96881e-20)
(0.548808 0.692304 1.50774e-19)
(0.466682 0.574287 -2.05544e-20)
(0.441928 0.459159 -6.21733e-20)
(0.465494 0.376058 -1.7484e-20)
(0.50659 0.338388 1.93654e-20)
(0.537608 0.333034 -8.4617e-22)
(0.551401 0.340684 2.40927e-20)
(0.552832 0.349821 -5.81708e-20)
(0.532552 0.347803 6.60067e-20)
(0.252106 0.168819 1.05105e-20)
(0.534868 0.403777 -4.31711e-21)
(1.3372 1.03568 6.64251e-21)
(1.2931 1.03331 1.32271e-21)
(1.23473 1.02316 -2.99662e-20)
(1.16772 1.01008 -1.4738e-20)
(1.0911 0.993195 -7.7984e-20)
(1.0035 0.971062 1.40785e-20)
(0.902628 0.941714 -1.09056e-19)
(0.785505 0.900295 -1.94714e-19)
(0.647482 0.835478 -1.6814e-19)
(0.508101 0.735482 0)
(0.406975 0.602915 -8.89909e-20)
(0.372959 0.456611 8.65824e-20)
(0.413296 0.339784 0)
(0.491302 0.291854 -3.7033e-20)
(0.552432 0.301301 1.60157e-20)
(0.578657 0.330477 -2.01333e-20)
(0.580763 0.357967 -2.41643e-20)
(0.557777 0.369382 -4.45215e-20)
(0.279548 0.193816 -3.497e-20)
(0.535853 0.422466 3.81226e-21)
(1.33226 1.07819 -7.10631e-21)
(1.28737 1.07537 -1.98295e-20)
(1.22823 1.06465 -3.82664e-20)
(1.16041 1.05094 3.2361e-20)
(1.08286 1.03358 -4.84604e-20)
(0.994022 1.01146 4.59931e-20)
(0.891137 0.982731 -1.15734e-19)
(0.77024 0.94315 -1.1792e-19)
(0.624268 0.881494 1.82619e-19)
(0.468446 0.782888 3.48156e-19)
(0.34176 0.639164 0)
(0.285996 0.455226 0)
(0.340336 0.281108 -1.75225e-20)
(0.480812 0.207313 0)
(0.601144 0.247364 2.39893e-20)
(0.64667 0.322068 2.84476e-20)
(0.638698 0.38053 0)
(0.595735 0.410519 0)
(0.307493 0.225176 2.95786e-20)
(0.536113 0.439823 -2.53309e-21)
(1.32708 1.11859 -4.02742e-21)
(1.2815 1.11518 -1.3771e-20)
(1.22174 1.10381 3.03936e-20)
(1.15336 1.0896 3.3254e-20)
(1.07513 1.07186 5.8301e-20)
(0.985493 1.04993 -6.52224e-20)
(0.881064 1.02196 -4.98524e-22)
(0.757088 0.984566 -8.95148e-22)
(0.603885 0.927674 6.72271e-22)
(0.431394 0.834612 1.83416e-19)
(0.273006 0.686521 0)
(0.176496 0.463433 8.85426e-20)
(0.227653 0.194538 3.57102e-20)
(0.474146 0.0490363 8.74845e-21)
(0.728123 0.155408 -1.5979e-21)
(0.787598 0.355733 -4.3094e-21)
(0.711723 0.455674 -8.5673e-21)
(0.637903 0.478577 0)
(0.330374 0.265169 2.80701e-20)
(0.536817 0.457171 2.56621e-21)
(1.32178 1.15704 0)
(1.27561 1.15281 -1.26357e-20)
(1.21534 1.14065 2.3332e-20)
(1.14649 1.12592 -3.33485e-20)
(1.06774 1.10801 -7.68832e-20)
(0.977759 1.0862 1.36132e-19)
(0.872376 1.05936 -8.54901e-21)
(0.746285 1.0245 0)
(0.58711 0.973324 -2.11637e-19)
(0.398769 0.890083 -4.16251e-19)
(0.204715 0.747924 1.53071e-20)
(0.0432672 0.4952 1.31738e-19)
(0.0423135 0.0799571 0)
(0.418129 -0.276524 -5.42401e-20)
(0.902462 -0.0848905 0)
(1.03349 0.337431 0)
(0.87471 0.543911 -3.03308e-21)
(0.670906 0.556628 0)
(0.304614 0.251418 8.28908e-21)
(0.536747 0.473245 4.6138e-22)
(1.31622 1.19351 0)
(1.26972 1.18831 -1.79425e-20)
(1.20917 1.17545 0)
(1.13993 1.16021 1.64147e-20)
(1.0608 1.142 0)
(0.970505 1.12047 8.1178e-21)
(0.864787 1.09497 1.68482e-20)
(0.737434 1.0634 1.53667e-20)
(0.574183 1.01882 -2.37706e-19)
(0.372344 0.949087 1.32312e-20)
(0.141704 0.825852 1.22996e-19)
(-0.110237 0.572399 1.34172e-19)
(-0.281422 -0.0112201 9.78322e-21)
(-0.0185848 -0.379323 -1.27386e-19)
(0.794298 0.184306 0)
(1.08848 0.763339 -7.71827e-20)
(0.893964 1.02987 1.43974e-20)
(0.402175 0.822762 2.96878e-20)
(-0.137589 1.14982 -4.90511e-20)
(0.536882 0.489116 1.50429e-21)
(1.31033 1.22827 -8.3537e-21)
(1.2636 1.22198 0)
(1.20304 1.20864 1.11712e-21)
(1.13365 1.19319 -4.09448e-20)
(1.05424 1.17496 1.31087e-19)
(0.963599 1.15386 5.25662e-20)
(0.857643 1.12994 0)
(0.73002 1.10213 1.06921e-19)
(0.564552 1.06647 -1.30335e-20)
(0.353714 1.01406 0)
(0.0917655 0.924763 0)
(-0.265153 0.734196 1.33229e-19)
(-0.78406 0.353367 -5.05487e-21)
(-0.908334 0.624661 1.54068e-19)
(0.167738 1.5795 0)
(0.570002 1.96915 -8.06073e-20)
(0.397161 2.09062 2.35983e-20)
(0.171023 2.84127 -1.48511e-20)
(0.086997 3.18249 -5.34897e-21)
(0.537218 0.504571 -3.21785e-21)
(1.30376 1.2612 7.42201e-21)
(1.25742 1.25358 -8.76513e-21)
(1.19703 1.24 -1.44671e-20)
(1.12751 1.22444 0)
(1.048 1.20636 8.90742e-20)
(0.957793 1.18609 7.91788e-20)
(0.851494 1.1637 -8.73444e-21)
(0.723685 1.13954 1.59587e-20)
(0.557961 1.1135 2.33935e-19)
(0.343863 1.08311 2.27042e-19)
(0.0686309 1.03866 1.52883e-19)
(-0.33705 0.965426 1.45005e-19)
(-0.970474 0.93901 -7.32162e-20)
(-1.44469 1.62074 1.5286e-19)
(-0.733746 2.70261 0)
(-0.272426 3.21238 0)
(-0.111785 3.42068 -2.39718e-20)
(-0.0423284 3.43127 0)
(-0.0212912 3.3473 -3.19802e-20)
(0.539286 0.522652 0)
(1.29579 1.29189 0)
(1.25134 1.28297 0)
(1.19102 1.2694 -3.10674e-21)
(1.12128 1.2538 -3.51828e-20)
(1.04159 1.23606 6.23319e-20)
(0.95241 1.21674 5.38003e-20)
(0.846732 1.19629 -8.84083e-21)
(0.719079 1.17579 1.41006e-19)
(0.553955 1.15882 -1.15874e-21)
(0.341498 1.15129 4.6014e-19)
(0.0699611 1.15822 -1.73521e-20)
(-0.306612 1.20155 1.94771e-20)
(-0.853935 1.36596 1.08072e-20)
(-1.33124 2.13997 -1.31824e-20)
(-0.892981 2.97318 -1.54391e-20)
(-0.549553 3.26456 1.10961e-19)
(-0.325844 3.29974 3.49957e-20)
(-0.197061 3.29414 -1.51409e-20)
(-0.125169 3.27113 1.33684e-20)
(0.40131 0.443192 3.8234e-21)
(1.28793 1.3199 0)
(1.24554 1.3104 1.1747e-20)
(1.18521 1.29721 3.17028e-20)
(1.11562 1.28192 -6.22421e-20)
(1.03614 1.26459 -6.3906e-20)
(0.947603 1.24504 -5.95948e-20)
(0.84274 1.22595 1.11952e-19)
(0.71744 1.20957 -1.19517e-19)
(0.555962 1.20165 0)
(0.351977 1.2149 2.31653e-19)
(0.103839 1.26347 -1.29302e-19)
(-0.19927 1.3786 0)
(-0.604792 1.6484 1.97098e-20)
(-0.949096 2.27986 1.07953e-20)
(-0.728752 2.8484 5.81989e-21)
(-0.461443 3.11259 -1.437e-20)
(-0.299168 3.17258 -1.01964e-20)
(-0.194253 3.17848 -1.19285e-20)
(-0.129611 3.17576 -1.77641e-20)
(0.623775 0.634092 -1.09328e-21)
(1.27805 1.34612 0)
(1.23576 1.35099 -7.93094e-21)
(1.17456 1.33849 -2.61515e-20)
(1.10489 1.32401 5.67435e-20)
(1.02541 1.30728 5.86238e-20)
(0.93587 1.28899 7.59051e-20)
(0.831976 1.27233 8.62755e-21)
(0.709341 1.26282 1.21167e-19)
(0.553965 1.26913 2.18274e-19)
(0.362665 1.31024 1.36645e-20)
(0.144917 1.41169 1.16344e-19)
(-0.0858432 1.60308 1.8985e-20)
(-0.29945 1.91353 -1.94487e-20)
(-0.396948 2.31516 -2.36157e-20)
(-0.314761 2.64723 1.04185e-20)
(-0.223334 2.84478 -4.13765e-21)
(-0.149983 2.9546 1.44937e-21)
(-0.105233 3.03599 7.2893e-21)
(-0.105761 3.11792 1.59128e-21)
(0.623308 0.635194 0)
(1.2754 1.37354 1.26686e-21)
(1.23016 1.37894 6.10889e-22)
(1.1685 1.36718 2.0272e-21)
(1.09847 1.35274 3.3475e-20)
(1.01939 1.33577 -5.49948e-20)
(0.930637 1.31809 -4.71527e-20)
(0.82825 1.30362 8.15441e-21)
(0.708901 1.2976 -1.29994e-19)
(0.56181 1.31071 -2.77513e-21)
(0.38701 1.36955 -4.31313e-19)
(0.202885 1.49276 1.60385e-20)
(0.0278259 1.69617 -1.80278e-20)
(-0.105554 1.98126 -1.63149e-20)
(-0.156431 2.3007 5.41076e-22)
(-0.113115 2.58754 -3.5684e-21)
(-0.0632188 2.78468 1.02716e-21)
(-0.0223811 2.897 -8.31469e-21)
(-0.00759941 2.99573 1.69384e-20)
(-0.0467799 3.07035 1.37443e-20)
(0.60051 0.625653 8.18521e-21)
(1.27366 1.40701 1.12432e-20)
(1.22443 1.41012 1.37059e-21)
(1.16273 1.39839 7.6904e-21)
(1.09169 1.38263 0)
(1.01282 1.36542 -6.81404e-20)
(0.925361 1.34913 -6.48259e-20)
(0.826289 1.33679 7.63552e-21)
(0.71011 1.33014 -1.42839e-20)
(0.566424 1.34647 -2.10579e-19)
(0.404812 1.41263 -2.04845e-19)
(0.250159 1.54427 -1.3855e-19)
(0.12535 1.75178 -1.3182e-19)
(0.0458967 2.01426 1.13539e-19)
(0.035992 2.28088 7.70982e-20)
(0.0773729 2.54448 0)
(0.0997518 2.7481 0)
(0.119097 2.89751 1.28744e-20)
(0.104808 2.99286 0)
(0.0278834 3.05901 3.65812e-20)
(0.575436 0.618579 -1.66923e-20)
(1.26931 1.44413 -1.43537e-20)
(1.21763 1.44386 0)
(1.15472 1.43019 1.49136e-21)
(1.08425 1.41419 2.47406e-20)
(1.00645 1.39741 -9.20747e-20)
(0.919309 1.3801 -3.98443e-20)
(0.820814 1.36442 6.41348e-21)
(0.708848 1.36079 -1.02701e-19)
(0.577337 1.38656 1.13279e-20)
(0.43829 1.46103 0)
(0.31835 1.59599 0)
(0.240341 1.79292 -1.22188e-19)
(0.207621 2.03425 4.27614e-20)
(0.225629 2.2738 4.76867e-20)
(0.259455 2.53566 0)
(0.289109 2.7203 1.82177e-20)
(0.28683 2.89954 -4.48597e-20)