/*--------------------------------*- C++ -*----------------------------------*\
| =========                 |                                                 |
| \\      /  F ield         | OpenFOAM: The Open Source CFD Toolbox           |
|  \\    /   O peration     | Version:  2106                                  |
|   \\  /    A nd           | Website:  www.openfoam.com                      |
|    \\/     M anipulation  |                                                 |
\*---------------------------------------------------------------------------*/
FoamFile
{
    version     2.0;
    format      ascii;
    arch        "LSB;label=32;scalar=64";
    class       volScalarField;
    location    "4";
    object      T;
}
// * * * * * * * * * * * * * * * * * * * * * * * * * * * * * * * * * * * * * //

dimensions      [0 0 0 1 0 0 0];

internalField   nonuniform List<scalar> 
1000
(
0
0
0
0
0
0
0
0
0
0
0
0
0
0
0
0
0
0
0
0
0
0
0
0
0
0
0
0
0
0
0
0
0
0
0
0
0
0
0
0
0
0
0
0
0
0
0
0
0
0
0
0
0
0
0
0
0
0
0
0
0
0
0
0
0
0
0
0
0
0
0
0
0
0
0
0
0
0
0
0
0
0
0
0
0
0
0
0
0
0
0
0
0
0
0
0
0
0
0
0
0
0
0
0
0
0
0
0
0
0
0
0
0
0
0
0
0
0
0
0
0
0
0
0
0
0
0
0
0
0
0
0
0
0
0
0
0
0
0
0
0
0
0
0
0
0
0
0
0
0
0
0
0
0
0
0
0
0
0
0
0
0
0
0
0
0
0
0
0
0
0
0
0
0
0
0
0
0
0
0
0
0
0
0
0
0
0
0
0
0
0
0
0
0
0
0
0
0
0
0
0
0
0
0
0
0
0
0
0
0
0
0
0
0
0
0
0
0
0
0
0
0
0
0
0
0
0
0
0
0
0
0
0
0
0
0
0
0
0
0
0
0
0
0
0
0
0
0
0
0
0
0
0
0
0
0
0
0
0
0
0
0
0
0
0
0
0
0
0
0
0
0
0
0
0
0
0
0
0
0
0
0
0
0
0
0
0
0
0
0
0
0
0
0
0
0
0
0
0
0
0
0
0
0
0
0
0
0
0
0
0
0
0
0
0
0
0
0
0
0
0
0
0
0
0
0
0
0
0
0
0
0
0
0
0
0
0
0
0
0
0
0
0
0
0
0
0
0
0
0
0
0
0
0
0
0
0
0
0
0
0
0
0
0
0
0
0
0
0
0
0
0
0
0
0
0
0
0
0
0
0
0
0
0
0
0
0
0
0
0
0
0
0
0
0
0
0
0
0
0
0
0
0
0
5.26302e-197
-5.9996e-181
4.73106e-173
-3.10509e-169
-8.31138e-167
-1.03994e-164
-7.88738e-163
-3.68708e-161
-6.50034e-160
5.80493e-158
6.96043e-156
4.53408e-154
2.24407e-152
9.235e-151
3.29348e-149
1.04267e-147
2.97772e-146
7.76099e-145
1.86262e-143
4.14576e-142
8.60799e-141
1.67555e-139
3.07044e-138
5.31643e-137
8.72579e-136
1.3614e-134
2.02425e-133
2.8749e-132
3.908e-131
5.0941e-130
6.37824e-129
7.68298e-128
8.91607e-127
9.9817e-126
1.07932e-124
1.1285e-123
1.14211e-122
1.11994e-121
1.06501e-120
9.82986e-120
8.81284e-119
7.68026e-118
6.51061e-117
5.37189e-116
4.31664e-115
3.37997e-114
2.58014e-113
1.92104e-112
1.39562e-111
9.89696e-111
6.85292e-110
4.63458e-109
3.06198e-108
1.97662e-107
1.24686e-106
7.68593e-106
4.62947e-105
2.72426e-104
1.56571e-103
8.78442e-103
4.80772e-102
2.56416e-101
1.33073e-100
6.70582e-100
3.27102e-99
1.53722e-98
6.90796e-98
2.93057e-97
1.14524e-96
3.89746e-96
9.59059e-96
-3.12613e-96
-2.67832e-94
-2.53077e-93
-1.8028e-92
-1.13132e-91
-6.57815e-91
-3.62619e-90
-1.91874e-89
-9.81901e-89
-4.88364e-88
-2.36882e-87
-1.12335e-86
-5.21805e-86
-2.37767e-85
-1.06403e-84
-4.68087e-84
-2.02592e-83
-8.63241e-83
-3.62333e-82
-1.4989e-81
-6.11388e-81
-2.45989e-80
-9.76618e-80
-3.82723e-79
-1.4809e-78
-5.65931e-78
-2.13654e-77
-7.97023e-77
-2.93858e-76
-1.07103e-75
-3.85968e-75
-1.37551e-74
-4.8486e-74
-1.69077e-73
-5.83361e-73
-1.99178e-72
-6.73077e-72
-2.25147e-71
-7.45606e-71
-2.44484e-70
-7.93864e-70
-2.55301e-69
-8.13242e-69
-2.56627e-68
-8.02323e-68
-2.48547e-67
-7.63007e-67
-2.32142e-66
-7.00054e-66
-2.09268e-65
-6.20173e-65
-1.82222e-64
-5.30894e-64
-1.53382e-63
-4.39477e-63
-1.24892e-62
-3.52048e-62
-9.84416e-62
-2.73085e-61
-7.51612e-61
-2.05258e-60
-5.56225e-60
-1.49581e-59
-3.99219e-59
-1.05751e-58
-2.78051e-58
-7.25714e-58
-1.88033e-57
-4.83681e-57
-1.23529e-56
-3.13249e-56
-7.88768e-56
-1.9723e-55
-4.89761e-55
-1.20784e-54
-2.95848e-54
-7.19759e-54
-1.73934e-53
-4.17523e-53
-9.9562e-53
-2.35853e-52
-5.55063e-52
-1.2978e-51
-3.01478e-51
-6.95817e-51
-1.59565e-50
-3.63577e-50
-8.23148e-50
-1.85178e-49
-4.13941e-49
-9.19456e-49
-2.02942e-48
-4.45108e-48
-9.70099e-48
-2.10101e-47
-4.52171e-47
-9.67046e-47
-2.05525e-46
-4.34069e-46
-9.11039e-46
-1.90023e-45
-3.93889e-45
-8.11429e-45
-1.6613e-44
-3.38051e-44
-6.83703e-44
-1.37443e-43
-2.74647e-43
-5.45563e-43
-1.07737e-42
-2.11526e-42
-4.12935e-42
-8.01603e-42
-1.54754e-41
-2.9715e-41
-5.6757e-41
-1.07852e-40
-2.03925e-40
-3.83714e-40
-7.1865e-40
-1.33991e-39
-2.48748e-39
-4.59893e-39
-8.46942e-39
-1.55396e-38
-2.84124e-38
-5.17784e-38
-9.40704e-38
-1.70417e-37
-3.07901e-37
-5.54922e-37
-9.97817e-37
-1.79034e-36
-3.20585e-36
-5.72956e-36
-1.02213e-35
-1.82018e-35
-3.23563e-35
-5.74152e-35
-1.01695e-34
-1.79777e-34
-3.17164e-34
-5.58324e-34
-9.80539e-34
-1.71766e-33
-3.00063e-33
-5.22629e-33
-9.07364e-33
-1.56992e-32
-2.70631e-32
-4.64715e-32
-7.94714e-32
-1.3532e-31
-2.29378e-31
-3.87e-31
-6.49783e-31
-1.08559e-30
-1.80447e-30
-2.98389e-30
-4.90828e-30
-8.03093e-30
-1.30701e-29
-2.11573e-29
-3.40655e-29
-5.45569e-29
-8.6913e-29
-1.37734e-28
-2.17144e-28
-3.40595e-28
-5.31551e-28
-8.2548e-28
-1.27572e-27
-1.96214e-27
-3.00369e-27
-4.57673e-27
-6.9414e-27
-1.04795e-26
-1.57481e-26
-2.3556e-26
-3.507e-26
-5.19637e-26
-7.66213e-26
-1.12418e-25
-1.64096e-25
-2.38277e-25
-3.44132e-25
-4.94282e-25
-7.05961e-25
-1.00256e-24
-1.4156e-24
-1.98737e-24
-2.77433e-24
-3.8516e-24
-5.319e-24
-7.30917e-24
-9.99859e-24
-1.36228e-23
-1.84974e-23
-2.50468e-23
-3.38439e-23
-4.56629e-23
-6.15492e-23
-8.29083e-23
-1.11614e-22
-1.50132e-22
-2.01646e-22
-2.70167e-22
-3.60573e-22
-4.7853e-22
-6.30169e-22
-8.21408e-22
-1.05673e-21
-1.33718e-21
-1.65748e-21
-2.00189e-21
-2.33903e-21
-2.61566e-21
-2.75022e-21
-2.6275e-21
-2.09668e-21
-9.76484e-22
9.27369e-22
3.78564e-21
7.68162e-21
1.2511e-20
1.78375e-20
2.27007e-20
2.53799e-20
2.31343e-20
1.19607e-20
-1.35556e-20
-6.01762e-20
-1.3556e-19
-2.47194e-19
-4.00418e-19
-5.95216e-19
-8.2146e-19
-1.05237e-18
-1.23614e-18
-1.28618e-18
-1.07063e-18
-4.0298e-19
9.63256e-19
3.33157e-18
7.04504e-18
1.24463e-17
1.98054e-17
2.92044e-17
4.03699e-17
5.24509e-17
6.37514e-17
7.1453e-17
7.13568e-17
5.74018e-17
2.1048e-17
-4.9322e-17
-1.68878e-16
-3.55914e-16
-6.28643e-16
-9.9469e-16
-1.43079e-15
-1.86574e-15
-2.18658e-15
-2.18689e-15
-2.99854e-16
5.76025e-15
1.46757e-14
2.05984e-14
1.5104e-14
-1.37529e-14
-6.0215e-14
-8.49488e-14
-4.58569e-14
7.98088e-14
2.37723e-13
2.67371e-13
6.29952e-14
-3.94931e-13
-8.37719e-13
-7.71519e-13
9.58895e-14
1.62288e-12
2.74857e-12
2.08724e-12
-1.10556e-12
-6.00231e-12
-8.89819e-12
-5.86654e-12
5.12002e-12
2.0594e-11
2.89106e-11
1.77891e-11
-1.7811e-11
-6.80419e-11
-9.48511e-11
-6.17921e-11
4.98986e-11
2.13187e-10
3.16763e-10
2.40535e-10
-9.04644e-11
-6.20847e-10
-1.06018e-09
-9.64729e-10
-7.45787e-11
1.61364e-09
3.42194e-09
3.75953e-09
1.83923e-09
-3.05419e-09
-9.70706e-09
-1.41067e-08
-1.17848e-08
2.99352e-10
2.17693e-08
4.52143e-08
5.34997e-08
3.45162e-08
-2.15032e-08
-1.08596e-07
-1.93512e-07
-2.08068e-07
-1.18389e-07
1.1312e-07
4.61047e-07
7.98663e-07
8.77462e-07
5.64708e-07
-2.9953e-07
-1.67297e-06
-3.19408e-06
-3.98091e-06
-3.32282e-06
-5.95719e-07
4.55707e-06
1.13591e-05
1.76966e-05
1.93454e-05
1.41398e-05
-9.8257e-07
-2.72354e-05
-6.13898e-05
-9.43725e-05
-0.000108228
-9.05123e-05
-2.74565e-05
9.24995e-05
0.000268542
0.000476428
0.000661202
0.000729851
0.000619017
0.000247665
-0.000468724
-0.00157773
-0.00303959
-0.00471399
-0.00629115
-0.00718688
-0.00690313
-0.00497425
-0.000593937
0.00709681
0.0189468
0.0357354
0.0581054
0.0864991
0.121106
0.161829
0.208274
0.259759
0.315354
0.373932
0.434241
0.494977
0.554865
0.612723
0.667525
0.718441
0.764862
0.806405
0.842909
0.874409
0.901104
0.923326
0.941493
0.95608
0.967581
0.976484
0.983247
0.988288
0.991972
0.994611
0.996462
0.997732
0.998583
0.999139
0.999494
0.999713
0.999844
0.99992
0.999962
0.999983
0.999994
0.999998
1
1
1
1
1
1
1
1
1
1
1
1
1
1
1
1
1
1
1
1
0.999999
0.999999
0.999999
1
1
1
1
1
1
0.999995
0.999989
0.999982
0.999981
0.999986
1
1.00003
1.00006
1.00009
1.00011
1.00009
1.00003
0.999907
0.999731
0.999524
0.999339
0.999271
0.999382
0.999754
1.00047
1.00158
1.00304
1.00471
1.00629
1.00718
1.0069
1.00496
1.00058
0.992886
0.981033
0.964242
0.94187
0.913475
0.878868
0.838146
0.791704
0.740223
0.684633
0.62606
0.565757
0.505026
0.445143
0.387289
0.332491
0.281577
0.235159
0.193616
0.157112
0.125611
0.0989144
0.0766913
0.058522
0.0439327
0.0324295
0.0235249
0.0167598
0.0117174
0.00803186
0.00539206
0.00354055
0.00227015
0.00141845
0.000861395
0.00050665
0.000287254
0.000155933
8.02223e-05
3.84688e-05
1.66766e-05
6.10409e-06
1.51681e-06
6.73346e-08
1.62918e-16
1.62133e-16
1.60824e-16
1.58483e-16
1.55253e-16
1.5125e-16
1.46589e-16
1.41381e-16
1.35731e-16
1.29737e-16
1.23489e-16
1.17072e-16
1.10561e-16
1.04026e-16
9.75253e-17
9.11137e-17
8.48364e-17
7.87324e-17
7.28263e-17
)
;

boundaryField
{
    sides
    {
        type            zeroGradient;
    }
    empty
    {
        type            empty;
    }
}


// ************************************************************************* //
