/*--------------------------------*- C++ -*----------------------------------*\
  =========                 |
  \\      /  F ield         | OpenFOAM: The Open Source CFD Toolbox
   \\    /   O peration     | Website:  https://openfoam.org
    \\  /    A nd           | Version:  6
     \\/     M anipulation  |
\*---------------------------------------------------------------------------*/
FoamFile
{
    version     2.0;
    format      ascii;
    class       volVectorField;
    location    "15.4";
    object      U;
}
// * * * * * * * * * * * * * * * * * * * * * * * * * * * * * * * * * * * * * //

dimensions      [0 1 -1 0 0 0 0];

internalField   nonuniform List<vector> 
8800
(
(0.98718 -0.0766584 0)
(1.00188 -0.0551805 0)
(0.99976 -0.0285259 0)
(1.00005 -0.0150557 0)
(1.00008 -0.0084399 0)
(1.00008 -0.00497048 0)
(1.00003 -0.00292954 0)
(0.999984 -0.00168276 0)
(0.99995 -0.000827675 0)
(1.00004 -0.000154029 0)
(0.999943 0.000552445 0)
(0.999966 0.00130808 0)
(1.00001 0.00231515 0)
(1.00006 0.00389001 0)
(1.00008 0.00651094 0)
(1.00007 0.0112328 0)
(0.999991 0.0207304 0)
(0.999167 0.0386377 0)
(1.00706 0.0724433 0)
(0.771216 0.0366564 0)
(0.363217 -0.016001 0)
(1.04341 -0.0767208 0)
(1.08457 -0.0702968 0)
(1.04517 -0.0534918 0)
(1.02329 -0.0389843 0)
(1.01193 -0.0261746 0)
(1.00612 -0.0167006 0)
(1.00324 -0.010246 0)
(1.00191 -0.00565645 0)
(1.00135 -0.00211954 0)
(1.00125 0.000982118 0)
(1.00154 0.00423736 0)
(1.00241 0.00816644 0)
(1.00438 0.0134763 0)
(1.00851 0.0212612 0)
(1.01669 0.032467 0)
(1.03256 0.0463804 0)
(1.06267 0.0613736 0)
(1.09192 0.0758429 0)
(0.839009 0.0564595 0)
(0.217194 -0.00240154 0)
(1.07622 -0.0499208 0)
(1.10006 -0.0479274 0)
(1.06454 -0.0398277 0)
(1.03962 -0.0328904 0)
(1.02345 -0.0256474 0)
(1.01368 -0.018333 0)
(1.00824 -0.0117011 0)
(1.00548 -0.00598328 0)
(1.00437 -0.000789883 0)
(1.00469 0.00422934 0)
(1.00649 0.00953401 0)
(1.01038 0.0155873 0)
(1.01771 0.0225081 0)
(1.03028 0.0297228 0)
(1.0506 0.0367369 0)
(1.08063 0.0436911 0)
(1.1068 0.0508003 0)
(0.943456 0.041335 0)
(0.216864 0.00241617 0)
(0.175985 -0.000764149 0)
(1.0187 -0.0349526 0)
(1.10561 -0.0407454 0)
(1.07861 -0.035555 0)
(1.05334 -0.0295926 0)
(1.03569 -0.023922 0)
(1.02352 -0.0183439 0)
(1.01552 -0.0125523 0)
(1.01079 -0.00675771 0)
(1.0088 -0.000802616 0)
(1.00935 0.00506221 0)
(1.01253 0.0107972 0)
(1.01876 0.0164334 0)
(1.0286 0.0219903 0)
(1.04331 0.0274293 0)
(1.06428 0.0330835 0)
(1.09439 0.0390958 0)
(1.09459 0.0409247 0)
(0.829927 0.0223929 0)
(0.175439 0.000780635 0)
(0.155474 -0.000550877 0)
(0.95878 -0.0244445 0)
(1.10369 -0.0335312 0)
(1.08716 -0.0309527 0)
(1.06132 -0.0265926 0)
(1.04355 -0.0217913 0)
(1.03107 -0.0168997 0)
(1.02228 -0.0119064 0)
(1.01653 -0.00657541 0)
(1.01383 -0.000626245 0)
(1.01459 0.00546324 0)
(1.01865 0.0108651 0)
(1.02568 0.0157634 0)
(1.03612 0.0204625 0)
(1.05094 0.025147 0)
(1.0722 0.029542 0)
(1.10067 0.0334989 0)
(1.0706 0.0321312 0)
(0.745401 0.0134414 0)
(0.154664 0.000568836 0)
(0.142136 -0.000379591 0)
(0.905259 -0.0174518 0)
(1.09728 -0.0276163 0)
(1.09555 -0.0265063 0)
(1.06841 -0.0229523 0)
(1.04979 -0.0193343 0)
(1.03678 -0.0151708 0)
(1.02769 -0.0105849 0)
(1.02175 -0.00563895 0)
(1.01885 -0.000198429 0)
(1.01958 0.00526348 0)
(1.02374 0.0102451 0)
(1.03098 0.0147645 0)
(1.04173 0.018861 0)
(1.05709 0.0224445 0)
(1.07971 0.0257447 0)
(1.10406 0.0285654 0)
(1.04164 0.0252386 0)
(0.684037 0.00893492 0)
(0.141004 0.000401123 0)
(0.133119 -0.000258861 0)
(0.861285 -0.0120599 0)
(1.08593 -0.021656 0)
(1.1002 -0.021856 0)
(1.07396 -0.0192905 0)
(1.0541 -0.0165079 0)
(1.04024 -0.0132936 0)
(1.03079 -0.00942532 0)
(1.02482 -0.00486617 0)
(1.02201 0.000250119 0)
(1.02257 0.00531973 0)
(1.02651 0.00989319 0)
(1.03381 0.013744 0)
(1.04507 0.0168917 0)
(1.06159 0.0195216 0)
(1.08507 0.0218821 0)
(1.10335 0.0234373 0)
(1.01162 0.0190289 0)
(0.639926 0.00590377 0)
(0.131598 0.000284614 0)
(0.127371 -0.00014317 0)
(0.828765 -0.00715001 0)
(1.0735 -0.0153632 0)
(1.10256 -0.0167001 0)
(1.07843 -0.0153282 0)
(1.05927 -0.0133389 0)
(1.04606 -0.0107856 0)
(1.03657 -0.00765 0)
(1.03012 -0.00385288 0)
(1.02681 0.000777221 0)
(1.02745 0.00552093 0)
(1.03173 0.00936265 0)
(1.03921 0.0123859 0)
(1.05005 0.0147162 0)
(1.06563 0.0165153 0)
(1.08875 0.0177778 0)
(1.10052 0.0179764 0)
(0.98483 0.0128385 0)
(0.610606 0.00337484 0)
(0.125372 0.000174147 0)
(0.124838 -1.92416e-05 0)
(0.807946 -0.00319029 0)
(1.06025 -0.00913877 0)
(1.10181 -0.0113508 0)
(1.0806 -0.0107651 0)
(1.06135 -0.00973077 0)
(1.04815 -0.00816867 0)
(1.03908 -0.00579427 0)
(1.03314 -0.0025931 0)
(1.03016 0.0014168 0)
(1.03038 0.00548719 0)
(1.034 0.00867309 0)
(1.04082 0.0108432 0)
(1.05131 0.0120819 0)
(1.06699 0.012693 0)
(1.08953 0.0131961 0)
(1.09428 0.0123383 0)
(0.962783 0.00724887 0)
(0.594161 0.00150361 0)
(0.12227 5.64885e-05 0)
(0.124467 3.31077e-05 0)
(0.796446 -0.00139882 0)
(1.04958 -0.00528678 0)
(1.10018 -0.00727321 0)
(1.08176 -0.00741253 0)
(1.06279 -0.00664727 0)
(1.05023 -0.00566476 0)
(1.04158 -0.00389396 0)
(1.03574 -0.00125768 0)
(1.03269 0.00218347 0)
(1.03268 0.00562921 0)
(1.03597 0.00816141 0)
(1.04227 0.00962317 0)
(1.05205 0.0102892 0)
(1.06724 0.0105666 0)
(1.08884 0.0100488 0)
(1.0874 0.00864179 0)
(0.94719 0.00447375 0)
(0.585499 0.000804061 0)
(0.121168 1.31651e-05 0)
(0.124659 3.09511e-05 0)
(0.788759 -0.000985039 0)
(1.04094 -0.0043612 0)
(1.09797 -0.0066879 0)
(1.08204 -0.00704831 0)
(1.06427 -0.00662194 0)
(1.05227 -0.00530701 0)
(1.04429 -0.00332481 0)
(1.03898 -0.000489779 0)
(1.036 0.00301183 0)
(1.0357 0.00635733 0)
(1.03828 0.00889701 0)
(1.0437 0.0104228 0)
(1.05274 0.0110066 0)
(1.06666 0.0108334 0)
(1.0868 0.0101528 0)
(1.08054 0.00823131 0)
(0.93472 0.00397164 0)
(0.579124 0.00076012 0)
(0.120473 2.56955e-05 0)
(0.124871 2.5481e-05 0)
(0.782257 -0.000613685 0)
(1.03123 -0.00393424 0)
(1.09419 -0.00754431 0)
(1.08193 -0.00870665 0)
(1.06557 -0.00830719 0)
(1.05433 -0.00667218 0)
(1.04682 -0.00401862 0)
(1.04164 -0.000398545 0)
(1.03842 0.00390899 0)
(1.03784 0.0080452 0)
(1.04001 0.0112153 0)
(1.04476 0.0131883 0)
(1.05283 0.0141802 0)
(1.06569 0.0138803 0)
(1.08366 0.0125419 0)
(1.07104 0.00899024 0)
(0.922022 0.00376531 0)
(0.573214 0.000765886 0)
(0.119578 4.43345e-05 0)
(0.125216 3.51485e-05 0)
(0.77759 -3.97234e-05 0)
(1.02034 -0.00263872 0)
(1.08686 -0.00707488 0)
(1.08091 -0.00968962 0)
(1.06724 -0.00948491 0)
(1.05756 -0.00765632 0)
(1.05082 -0.00431815 0)
(1.04581 2.93766e-05 0)
(1.04241 0.00510991 0)
(1.04141 0.00998088 0)
(1.04299 0.0135699 0)
(1.04681 0.0159528 0)
(1.05346 0.0168735 0)
(1.06412 0.0165051 0)
(1.07683 0.013874 0)
(1.0576 0.00851369 0)
(0.909696 0.00315897 0)
(0.568078 0.000710732 0)
(0.118549 5.32427e-05 0)
(0.12589 5.88383e-05 0)
(0.775743 0.000625174 0)
(1.01147 -0.000703496 0)
(1.07784 -0.00430769 0)
(1.07804 -0.00731281 0)
(1.06836 -0.00778201 0)
(1.06096 -0.0059437 0)
(1.05489 -0.00260913 0)
(1.04994 0.0017567 0)
(1.04627 0.00684752 0)
(1.04473 0.0115746 0)
(1.0456 0.0149276 0)
(1.04846 0.0167761 0)
(1.0533 0.0172291 0)
(1.06115 0.0161332 0)
(1.06723 0.0123486 0)
(1.04368 0.00687585 0)
(0.8997 0.00253421 0)
(0.563851 0.000678882 0)
(0.117491 5.85367e-05 0)
(0.12697 7.66717e-05 0)
(0.776395 0.00112579 0)
(1.00684 0.00112828 0)
(1.07127 -0.000695512 0)
(1.07474 -0.00258881 0)
(1.06944 -0.0030271 0)
(1.06391 -0.00171453 0)
(1.05866 0.00101294 0)
(1.05387 0.00477576 0)
(1.04987 0.00912099 0)
(1.04761 0.0128576 0)
(1.04766 0.0150745 0)
(1.04929 0.0159345 0)
(1.05223 0.0154412 0)
(1.05616 0.0132692 0)
(1.05806 0.009671 0)
(1.0326 0.00538822 0)
(0.892332 0.00226592 0)
(0.560073 0.000733889 0)
(0.116372 6.77952e-05 0)
(0.128454 9.80696e-05 0)
(0.779255 0.00161686 0)
(1.00627 0.00250639 0)
(1.06838 0.00219226 0)
(1.07344 0.00158588 0)
(1.07033 0.00178639 0)
(1.06625 0.00311468 0)
(1.06173 0.0054464 0)
(1.05706 0.00854085 0)
(1.05259 0.0119304 0)
(1.04948 0.0145045 0)
(1.04837 0.0155446 0)
(1.04868 0.0151364 0)
(1.04978 0.0136185 0)
(1.05129 0.0111841 0)
(1.05069 0.00806027 0)
(1.02459 0.00482574 0)
(0.886463 0.00241896 0)
(0.556074 0.000887682 0)
(0.115065 8.50141e-05 0)
(0.130374 0.000123165 0)
(0.783836 0.00207871 0)
(1.00822 0.00358981 0)
(1.06873 0.00435618 0)
(1.07417 0.00487724 0)
(1.07199 0.00593856 0)
(1.06862 0.00771109 0)
(1.06448 0.0100601 0)
(1.05967 0.012766 0)
(1.05455 0.0153702 0)
(1.05037 0.0168394 0)
(1.04794 0.0166517 0)
(1.04683 0.0154147 0)
(1.04652 0.0132533 0)
(1.04657 0.0106557 0)
(1.0447 0.0078448 0)
(1.0183 0.00512457 0)
(0.880819 0.002884 0)
(0.551313 0.00111803 0)
(0.113438 0.000109097 0)
(0.132818 0.000154855 0)
(0.790084 0.00263317 0)
(1.0124 0.0047117 0)
(1.07139 0.00622229 0)
(1.07678 0.00776012 0)
(1.07474 0.00969182 0)
(1.0715 0.0120902 0)
(1.06728 0.0148063 0)
(1.06201 0.0175121 0)
(1.05591 0.0196165 0)
(1.05038 0.0201988 0)
(1.0466 0.0190574 0)
(1.04422 0.0169381 0)
(1.04276 0.0142941 0)
(1.04184 0.0114892 0)
(1.03925 0.00871518 0)
(1.01245 0.00605657 0)
(0.874615 0.00358631 0)
(0.545428 0.00140415 0)
(0.111396 0.000137281 0)
(0.13595 0.00019914 0)
(0.798245 0.00335166 0)
(1.01859 0.0060858 0)
(1.07599 0.00836643 0)
(1.08092 0.0106963 0)
(1.07869 0.0135243 0)
(1.0752 0.016782 0)
(1.07044 0.0201088 0)
(1.06429 0.0230344 0)
(1.05685 0.0248756 0)
(1.04971 0.0247394 0)
(1.04444 0.0227681 0)
(1.04082 0.019812 0)
(1.03841 0.0165454 0)
(1.03673 0.0133554 0)
(1.03361 0.0103426 0)
(1.0062 0.00741201 0)
(0.867376 0.00447802 0)
(0.538135 0.00176332 0)
(0.108835 0.000170496 0)
(0.14004 0.000266803 0)
(0.808892 0.00438049 0)
(1.02679 0.00797552 0)
(1.08238 0.0110209 0)
(1.08667 0.0141568 0)
(1.08399 0.0180159 0)
(1.07983 0.0222438 0)
(1.07412 0.0263128 0)
(1.06661 0.0296488 0)
(1.0574 0.0313986 0)
(1.04835 0.030615 0)
(1.04143 0.0277539 0)
(1.03655 0.0239129 0)
(1.03321 0.0198738 0)
(1.03087 0.0160728 0)
(1.02726 0.0125783 0)
(0.999005 0.00914272 0)
(0.858433 0.00558278 0)
(0.529124 0.00220636 0)
(0.105662 0.000211352 0)
(0.145447 0.00036397 0)
(0.822772 0.00583864 0)
(1.03746 0.0105768 0)
(1.09085 0.0145455 0)
(1.09432 0.0187136 0)
(1.09083 0.0237246 0)
(1.08556 0.0290159 0)
(1.07835 0.033967 0)
(1.06899 0.0378522 0)
(1.05753 0.0395571 0)
(1.04618 0.0380811 0)
(1.03741 0.0342126 0)
(1.03117 0.0293263 0)
(1.02686 0.0243169 0)
(1.02386 0.0196779 0)
(1.01972 0.0154852 0)
(0.990343 0.0113607 0)
(0.847382 0.00696455 0)
(0.517899 0.00274133 0)
(0.101748 0.000261702 0)
(0.152671 0.000501594 0)
(0.840711 0.00790764 0)
(1.05115 0.0141088 0)
(1.10183 0.0191802 0)
(1.10427 0.0246836 0)
(1.09958 0.0310938 0)
(1.09271 0.0376915 0)
(1.08347 0.0437253 0)
(1.07161 0.0481996 0)
(1.05725 0.0497758 0)
(1.04314 0.0474327 0)
(1.03222 0.042348 0)
(1.02445 0.0361985 0)
(1.01904 0.0300002 0)
(1.01529 0.0243024 0)
(1.01055 0.0191989 0)
(0.979748 0.0141839 0)
(0.833643 0.00873761 0)
(0.503946 0.00342202 0)
(0.0969382 0.000325987 0)
(0.162501 0.000711554 0)
(0.864034 0.0108966 0)
(1.06885 0.0188994 0)
(1.1161 0.0253481 0)
(1.11706 0.0326003 0)
(1.1107 0.0407786 0)
(1.10165 0.0489852 0)
(1.08963 0.0562055 0)
(1.07449 0.0612156 0)
(1.05652 0.0624742 0)
(1.03912 0.058978 0)
(1.02572 0.0523858 0)
(1.01615 0.0447056 0)
(1.00945 0.0370696 0)
(1.00478 0.0300841 0)
(0.999267 0.0238498 0)
(0.966664 0.0177376 0)
(0.816773 0.0109702 0)
(0.486767 0.00425219 0)
(0.0910857 0.00039775 0)
(0.176229 0.0010676 0)
(0.894998 0.0155834 0)
(1.09198 0.0259907 0)
(1.13469 0.0342939 0)
(1.13333 0.0438101 0)
(1.12447 0.0541219 0)
(1.11227 0.0640301 0)
(1.09653 0.0723037 0)
(1.0773 0.0775655 0)
(1.05504 0.0781049 0)
(1.03386 0.0730478 0)
(1.01764 0.0646149 0)
(1.006 0.055124 0)
(0.997772 0.045787 0)
(0.991961 0.0372673 0)
(0.985422 0.0296632 0)
(0.950511 0.0222195 0)
(0.796027 0.0137918 0)
(0.465856 0.00529273 0)
(0.0840347 0.000481267 0)
(0.196096 0.00170591 0)
(0.936815 0.0231495 0)
(1.1228 0.0368029 0)
(1.15914 0.0476559 0)
(1.15378 0.0600057 0)
(1.14091 0.0726915 0)
(1.12425 0.0841793 0)
(1.10371 0.0931082 0)
(1.07952 0.0979854 0)
(1.05233 0.0971164 0)
(1.02696 0.0899466 0)
(1.00764 0.0793132 0)
(0.993696 0.0677669 0)
(0.983684 0.0565197 0)
(0.976463 0.0462436 0)
(0.968542 0.03704 0)
(0.9305 0.0280125 0)
(0.770373 0.0174914 0)
(0.44031 0.0066655 0)
(0.0755626 0.000587816 0)
(0.225525 0.00314433 0)
(0.995375 0.0366152 0)
(1.16344 0.0551282 0)
(1.19044 0.069279 0)
(1.17859 0.084541 0)
(1.15974 0.0990521 0)
(1.137 0.111173 0)
(1.11051 0.119665 0)
(1.08058 0.123097 0)
(1.04798 0.119876 0)
(1.01814 0.109922 0)
(0.995508 0.0967222 0)
(0.979046 0.0829386 0)
(0.966991 0.0696923 0)
(0.958012 0.0575741 0)
(0.948148 0.0466713 0)
(0.905661 0.0357651 0)
(0.738517 0.0225011 0)
(0.409672 0.00857064 0)
(0.0658962 0.000701333 0)
(0.266604 0.00991223 -2.4835e-21)
(1.07354 0.0640614 -1.85032e-21)
(1.21227 0.0874162 4.98276e-22)
(1.22592 0.104977 0)
(1.20521 0.121315 -6.53391e-37)
(1.17881 0.135582 4.18421e-23)
(1.14896 0.146548 -2.70803e-22)
(1.11579 0.153185 0)
(1.07965 0.154177 9.89439e-36)
(1.04116 0.147932 -7.45574e-22)
(1.00634 0.134846 0)
(0.97988 0.118994 -1.06642e-21)
(0.96032 0.10303 -3.26272e-21)
(0.945576 0.0879576 -1.57958e-21)
(0.934063 0.0743574 -4.97729e-22)
(0.921206 0.062097 -3.01856e-22)
(0.873799 0.0496697 0)
(0.697375 0.0324863 2.18056e-22)
(0.372451 0.0144846 2.59534e-22)
(0.056756 0.00201575 4.65285e-21)
(0.292118 0.0264719 -4.74206e-21)
(1.13621 0.109256 1.03702e-22)
(1.25495 0.135441 -2.58071e-22)
(1.2579 0.154037 0)
(1.22903 0.168856 3.5982e-22)
(1.19526 0.18128 1.59899e-22)
(1.1584 0.190326 -1.80352e-22)
(1.11847 0.194815 -1.29074e-21)
(1.07574 0.193394 0)
(1.03064 0.184434 3.15621e-21)
(0.989697 0.168675 3.48497e-21)
(0.958075 0.150695 1.11974e-21)
(0.934079 0.133144 4.42124e-21)
(0.915339 0.11679 6.51735e-21)
(0.900006 0.102165 0)
(0.882616 0.089291 9.71837e-21)
(0.830513 0.0751685 1.42753e-20)
(0.654087 0.0538019 1.60398e-20)
(0.347023 0.0288443 -1.8624e-20)
(0.0531579 0.00455565 -3.46657e-22)
(0.28808 0.0434508 0)
(1.17237 0.167315 -1.46427e-21)
(1.28754 0.196622 0)
(1.28301 0.213159 2.25199e-21)
(1.24777 0.224319 0)
(1.20762 0.233304 1.04e-21)
(1.16442 0.239081 2.10475e-22)
(1.11828 0.240399 -1.93724e-21)
(1.0694 0.235854 -3.10853e-22)
(1.01818 0.223815 1.5307e-21)
(0.971649 0.20541 8.11998e-21)
(0.935465 0.185677 -5.60903e-23)
(0.907643 0.167174 -3.32122e-21)
(0.885557 0.150516 -6.44945e-21)
(0.867221 0.135909 7.83694e-21)
(0.847488 0.123181 -1.41086e-20)
(0.797341 0.108959 -1.9418e-21)
(0.638961 0.0835888 0)
(0.355603 0.0481475 3.48793e-23)
(0.0602374 0.00861622 0)
(0.278166 0.0575668 -3.72651e-20)
(1.18906 0.228673 1.51466e-20)
(1.30806 0.262645 7.95751e-21)
(1.29935 0.276887 -1.49442e-21)
(1.25971 0.284098 2.27223e-21)
(1.21481 0.289078 -2.56365e-21)
(1.16658 0.291008 2.61047e-22)
(1.11524 0.288609 0)
(1.06109 0.280507 -6.03374e-21)
(1.00449 0.265029 0)
(0.953192 0.243904 -4.13968e-21)
(0.913287 0.222549 -5.82091e-21)
(0.882599 0.203349 -3.7201e-21)
(0.858247 0.186616 -4.80333e-21)
(0.838209 0.172401 0)
(0.817852 0.160108 0)
(0.772247 0.145981 -1.30294e-20)
(0.631778 0.11707 2.61435e-21)
(0.36493 0.06997 -1.53184e-21)
(0.0663296 0.013172 -1.81361e-21)
(0.268558 0.0702059 2.76526e-20)
(1.19341 0.289489 0)
(1.31918 0.329445 -2.236e-20)
(1.30808 0.341661 -5.66404e-21)
(1.26537 0.345165 -4.2344e-21)
(1.21703 0.346215 0)
(1.16494 0.344247 -4.51563e-22)
(1.10934 0.338096 1.73179e-21)
(1.05079 0.326227 2.6457e-21)
(0.989712 0.30716 7.71252e-21)
(0.934523 0.283129 0)
(0.891874 0.259935 -1.26635e-20)
(0.859333 0.239792 -8.10018e-21)
(0.833789 0.222759 -4.88293e-21)
(0.813056 0.208674 3.20364e-20)
(0.792986 0.196833 3.93679e-21)
(0.751619 0.182556 1.88774e-20)
(0.623061 0.149941 -9.16165e-20)
(0.366945 0.090403 5.47506e-20)
(0.0689308 0.0173207 -6.6916e-20)
(0.260239 0.0814638 2.92817e-20)
(1.19012 0.347875 -5.34203e-21)
(1.32325 0.395035 3.95082e-21)
(1.31075 0.405706 1.06429e-20)
(1.2658 0.405794 6.45752e-21)
(1.21485 0.40312 3.30825e-22)
(1.15978 0.397441 3.80452e-22)
(1.10083 0.387594 1.29895e-21)
(1.03859 0.372081 -5.79145e-21)
(0.97382 0.349341 0)
(0.915465 0.32216 -5.43515e-21)
(0.870606 0.296831 -2.99347e-22)
(0.836727 0.275386 -9.05679e-21)
(0.810468 0.257679 0)
(0.789539 0.243283 -6.98364e-21)
(0.770142 0.231236 -1.70062e-20)
(0.732228 0.216109 4.71565e-20)
(0.611275 0.179124 -4.72131e-20)
(0.363127 0.107932 6.74749e-20)
(0.0688553 0.0207243 -7.11028e-20)
(0.253596 0.0919286 -1.12889e-22)
(1.18228 0.403262 6.55786e-21)
(1.32211 0.458411 1.89542e-20)
(1.30885 0.467977 -6.54856e-21)
(1.26227 0.464985 3.70311e-21)
(1.20934 0.458882 0)
(1.15179 0.449768 1.60259e-21)
(1.09008 0.43638 -1.00859e-21)
(1.02468 0.417329 -2.64712e-21)
(0.956562 0.390935 0)
(0.895444 0.36046 -5.30316e-21)
(0.848862 0.33268 -7.4435e-21)
(0.814105 0.309535 9.90183e-21)
(0.78756 0.290644 -6.34081e-21)
(0.766785 0.275411 -3.07307e-20)
(0.748112 0.262684 1.89176e-20)
(0.712634 0.246267 5.99608e-21)
(0.596659 0.204649 0)
(0.35523 0.122743 -6.54608e-20)
(0.0673841 0.023499 -2.43335e-21)
(0.248473 0.101893 4.81677e-21)
(1.17185 0.455518 -7.5573e-21)
(1.31726 0.518973 -1.03724e-20)
(1.30348 0.527816 -2.01591e-20)
(1.25565 0.522106 1.80666e-20)
(1.20112 0.512972 -9.49053e-21)
(1.14162 0.500689 -3.38685e-21)
(1.07754 0.48402 -1.44454e-21)
(1.00943 0.461575 2.60412e-21)
(0.938329 0.431593 -1.87933e-20)
(0.874897 0.397738 -6.51647e-21)
(0.826885 0.36725 0)
(0.791425 0.341992 1.08249e-20)
(0.764709 0.321472 1.33877e-20)
(0.744152 0.305002 1.64958e-20)
(0.726115 0.291239 -2.06331e-20)
(0.692224 0.273097 -6.22591e-21)
(0.579712 0.226787 7.42137e-21)
(0.344457 0.134898 0)
(0.0649592 0.0256344 -5.30408e-21)
(0.244569 0.111441 -5.6008e-20)
(1.16017 0.504732 3.47e-20)
(1.30969 0.576458 1.14259e-20)
(1.29552 0.58494 -1.54328e-20)
(1.24677 0.576822 1.08526e-20)
(1.191 0.565015 -7.80498e-22)
(1.12988 0.549909 3.3101e-21)
(1.06378 0.530262 -6.24843e-22)
(0.993346 0.504628 -4.73875e-21)
(0.91962 0.471144 3.13436e-23)
(0.853786 0.433857 -1.94277e-20)
(0.804353 0.400411 1.89414e-20)
(0.768213 0.372696 -1.2129e-20)
(0.741378 0.350173 1.50922e-20)
(0.721123 0.332125 0)
(0.703693 0.316999 -1.12062e-20)
(0.670883 0.29684 -2.59546e-22)
(0.560897 0.245744 -3.24418e-20)
(0.331617 0.144811 -4.82339e-21)
(0.0618059 0.0270634 0)
(0.241696 0.12076 0)
(1.14796 0.551175 3.76584e-20)
(1.30018 0.630902 2.67222e-20)
(1.28573 0.639194 1.74554e-20)
(1.23626 0.628942 1.04413e-20)
(1.17948 0.6148 0)
(1.11703 0.597178 3.30184e-21)
(1.04921 0.574874 -2.49837e-22)
(0.97659 0.546323 1.00158e-20)
(0.900331 0.509575 -2.29927e-21)
(0.832094 0.468816 -1.42437e-20)
(0.78119 0.432161 9.48881e-21)
(0.744347 0.401714 -3.9084e-22)
(0.717403 0.376885 1.59108e-20)
(0.697475 0.356902 1.0398e-20)
(0.680653 0.340138 -2.44151e-20)
(0.64854 0.317665 2.96157e-20)
(0.540451 0.261625 8.88996e-21)
(0.316982 0.152401 3.7002e-20)
(0.0580046 0.0278877 -1.00139e-19)
(0.239698 0.129942 -1.44058e-20)
(1.13576 0.595012 2.1784e-20)
(1.28932 0.682491 -1.67261e-20)
(1.27464 0.690533 -2.032e-20)
(1.2246 0.678404 0)
(1.167 0.662205 8.42465e-21)
(1.10345 0.642355 -9.5172e-21)
(1.03409 0.617699 3.26964e-22)
(0.959443 0.586556 0)
(0.880681 0.546766 -3.55956e-20)
(0.810066 0.502611 3.88279e-20)
(0.757461 0.46261 0)
(0.719829 0.429152 1.43784e-20)
(0.692718 0.401763 -3.95524e-22)
(0.673063 0.379532 -3.29589e-20)
(0.656719 0.360838 1.29739e-20)
(0.624953 0.335748 0)
(0.51838 0.274561 4.81849e-20)
(0.300634 0.157693 0)
(0.0536509 0.0280544 -4.77509e-20)
(0.238388 0.138991 1.60675e-20)
(1.12384 0.63643 2.49374e-20)
(1.27755 0.731154 -1.75374e-20)
(1.26272 0.738997 0)
(1.21223 0.725221 1.44856e-20)
(1.15395 0.707207 0)
(1.08943 0.685408 1.26513e-20)
(1.01873 0.658698 1.30384e-21)
(0.942239 0.625322 1.04188e-21)
(0.861001 0.582819 -1.75742e-20)
(0.787763 0.535402 3.76923e-21)
(0.733227 0.492006 0)
(0.694636 0.455273 -3.06257e-20)
(0.667181 0.425027 4.10584e-22)
(0.647624 0.400383 0)
(0.631535 0.379371 4.88915e-22)
(0.599907 0.351234 4.36784e-20)
(0.494505 0.284455 -4.22442e-20)
(0.282529 0.160574 1.25508e-20)
(0.0487544 0.027525 0)
(0.237416 0.147803 0)
(1.11237 0.675604 2.79207e-20)
(1.26531 0.776904 2.0626e-20)
(1.25027 0.784625 -4.38588e-22)
(1.19945 0.769403 9.10016e-21)
(1.14062 0.749803 1.99737e-20)
(1.07532 0.72632 -4.0735e-21)
(1.00341 0.697848 3.99258e-22)
(0.92518 0.662554 6.0998e-21)
(0.84143 0.617715 -2.73437e-20)
(0.765309 0.56738 -6.24729e-22)
(0.70844 0.520668 -1.25303e-20)
(0.668431 0.480503 5.02485e-20)
(0.640491 0.447003 -4.94563e-22)
(0.620986 0.419485 -2.60676e-20)
(0.605128 0.395845 -4.76777e-20)
(0.573405 0.364141 0)
(0.46875 0.291302 0)
(0.262678 0.160899 1.37836e-20)
(0.0434131 0.026287 -8.16617e-21)
(0.236916 0.156532 2.00217e-20)
(1.10146 0.712429 -6.11513e-20)
(1.25287 0.819894 -2.21132e-20)
(1.23758 0.827505 0)
(1.18651 0.811002 -3.09213e-22)
(1.12727 0.790023 2.40804e-20)
(1.06131 0.765101 -1.3777e-20)
(0.98835 0.735146 -5.72531e-21)
(0.908452 0.698278 6.28741e-21)
(0.822222 0.651468 -2.10304e-20)
(0.743016 0.598477 -3.28423e-20)
(0.683336 0.548553 3.3428e-20)
(0.64126 0.5048 0)
(0.61256 0.467745 -1.17429e-20)
(0.593047 0.437056 -2.86607e-20)
(0.577369 0.410451 -3.46173e-20)
(0.545247 0.374656 -4.21306e-20)
(0.440862 0.295061 1.26531e-20)
(0.24091 0.158284 -7.45464e-21)
(0.0375776 0.0243033 9.31547e-23)
(0.236462 0.164965 0)
(1.09124 0.747195 0)
(1.24041 0.86025 5.10366e-22)
(1.22485 0.867737 0)
(1.17361 0.850103 -3.43482e-20)
(1.11407 0.827924 -2.13416e-20)
(1.04757 0.801774 0)
(0.97369 0.770602 -1.46276e-21)
(0.892274 0.73248 7.85302e-21)
(0.803556 0.684157 -4.8261e-20)
(0.721081 0.628987 0)
(0.658256 0.576022 -2.14211e-20)
(0.613602 0.52853 -6.06404e-22)
(0.583482 0.487616 -5.00261e-22)
(0.563689 0.453373 3.06645e-20)
(0.548037 0.423173 -7.7922e-23)
(0.515122 0.382605 -9.17021e-20)
(0.410352 0.295497 2.7641e-20)
(0.217292 0.15279 8.24124e-21)
(0.0313259 0.0215815 0)
(0.236055 0.17305 -7.3916e-20)
(1.08141 0.780112 -3.75906e-20)
(1.22802 0.898082 -5.56244e-20)
(1.21223 0.905421 7.70607e-20)
(1.1609 0.886773 -6.45478e-20)
(1.10115 0.863564 0)
(1.03425 0.836387 -1.18425e-20)
(0.959582 0.804237 2.73982e-21)
(0.876761 0.765175 7.46418e-22)
(0.785599 0.71574 3.80865e-21)
(0.699685 0.658877 4.11315e-20)
(0.633265 0.603323 -7.32545e-21)
(0.585609 0.552371 -3.10933e-20)
(0.553354 0.507336 -1.39947e-20)
(0.532805 0.468742 1.71027e-20)
(0.516933 0.43442 -6.53234e-23)
(0.482905 0.387988 2.52289e-20)
(0.377119 0.292255 -6.00569e-20)
(0.19127 0.143868 7.18892e-20)
(0.024761 0.0181564 1.05513e-20)
(0.235513 0.18077 2.71861e-20)
(1.07199 0.81123 -2.05895e-20)
(1.21583 0.933497 1.2119e-21)
(1.19983 0.940669 4.36304e-20)
(1.14848 0.921123 1.51172e-20)
(1.08863 0.897021 4.27755e-20)
(1.02145 0.868986 -5.26377e-21)
(0.946127 0.836071 1.32257e-20)
(0.862036 0.796359 -4.08309e-21)
(0.76853 0.746263 -2.62554e-20)
(0.679044 0.688235 0)
(0.608635 0.630535 -3.29669e-20)
(0.557275 0.576262 4.51712e-20)
(0.522069 0.526982 0)
(0.500112 0.483538 -3.66535e-20)
(0.483731 0.443714 2.278e-20)
(0.448388 0.390312 -2.73122e-20)
(0.341503 0.285 -3.30091e-20)
(0.163866 0.131845 -5.86534e-20)
(0.0181104 0.0141577 -4.63696e-20)
(0.235143 0.188205 -2.99406e-20)
(1.06283 0.840541 2.20417e-20)
(1.20392 0.966579 5.20941e-20)
(1.18775 0.973574 6.0084e-20)
(1.13645 0.953244 -3.17066e-20)
(1.07658 0.928379 2.95964e-20)
(1.00922 0.899625 -1.64103e-20)
(0.933382 0.866146 1.64889e-20)
(0.848169 0.826059 -1.12251e-21)
(0.752447 0.775685 2.49722e-20)
(0.659375 0.717049 8.72921e-20)
(0.58463 0.657776 0)
(0.528775 0.60076 0)
(0.48962 0.547258 -1.62101e-20)
(0.465195 0.498125 0)
(0.447664 0.451339 4.97012e-20)
(0.410951 0.388607 5.98519e-20)
(0.303775 0.272662 0)
(0.136217 0.116775 0)
(0.0119591 0.00995399 5.06209e-20)
(0.234493 0.195087 3.30801e-20)
(1.05394 0.868058 2.64697e-20)
(1.19235 0.99745 3.75064e-20)
(1.17603 1.00427 -5.37562e-20)
(1.12485 0.983242 -3.54245e-20)
(1.06504 0.957712 -3.93343e-20)
(0.997623 0.928366 2.44022e-20)
(0.921399 0.894491 1.13493e-22)
(0.83522 0.854268 -9.61251e-22)
(0.73743 0.803998 -1.242e-21)
(0.640837 0.745333 4.42082e-20)
(0.561538 0.685133 0)
(0.500703 0.625884 4.56106e-20)
(0.456284 0.568808 3.41665e-20)
(0.427673 0.513803 8.74732e-20)
(0.407459 0.457082 2.68327e-20)
(0.369285 0.380955 -3.31847e-20)
(0.264965 0.252658 -1.95884e-20)
(0.111885 0.0983175 0)
(0.00746713 0.00599478 5.5176e-20)
(0.234047 0.201854 -7.29413e-20)
(1.04532 0.893909 0)
(1.18114 1.0262 4.19972e-20)
(1.16473 1.03285 -4.41352e-20)
(1.11372 1.01121 4.01951e-20)
(1.05405 0.985109 5.75707e-20)
(0.986679 0.955269 -5.67277e-20)
(0.910197 0.921142 5.35019e-22)
(0.823214 0.88099 0)
(0.723549 0.831149 -2.30926e-20)
(0.62357 0.772977 -9.14766e-20)
(0.539627 0.712462 4.48527e-21)
(0.473399 0.651862 6.19107e-20)
(0.422621 0.592208 0)
(0.387457 0.531632 5.89816e-20)
(0.361232 0.462786 0)
(0.31906 0.365594 0)
(0.223845 0.216699 -2.19068e-20)
(0.105615 0.0661514 0)
(0.023965 0.00766371 1.49221e-20)
(0.233245 0.20797 -7.98318e-20)
(1.03691 0.91839 0)
(1.17027 1.05303 6.81856e-20)
(1.15381 1.05954 0)
(1.10304 1.03741 -2.18795e-20)
(1.04354 1.01084 0)
(0.976318 0.980633 -4.25258e-21)
(0.899678 0.946431 -2.91593e-21)
(0.812039 0.906572 -1.06364e-22)
(0.710665 0.8575 -2.25101e-20)
(0.607465 0.800436 2.38917e-21)
(0.518754 0.740422 3.71077e-20)
(0.446788 0.679058 5.99572e-20)
(0.388582 0.618349 8.57436e-21)
(0.343851 0.554249 4.60796e-20)
(0.306413 0.472106 0)
(0.249654 0.346043 7.2605e-20)
(0.157758 0.153577 -4.34307e-20)
(0.0528659 0.0777567 5.03926e-20)
(-0.032677 0.409569 -5.97848e-20)
(0.232396 0.213811 6.51909e-20)
(1.02854 0.941374 1.01112e-19)
(1.15966 1.07826 0)
(1.14315 1.08477 9.96287e-22)
(1.09264 1.06239 5.95092e-20)
(1.03328 1.03556 -1.1187e-19)
(0.966271 1.00521 -2.51191e-20)
(0.889504 0.971254 0)
(0.801253 0.932074 -5.31729e-21)
(0.698227 0.884353 -6.47134e-22)
(0.591754 0.82916 0)
(0.498 0.770692 0)
(0.419776 0.709353 5.24337e-20)
(0.353478 0.649268 -2.66922e-20)
(0.295327 0.585538 -4.57418e-20)
(0.240424 0.493707 0)
(0.138053 0.334409 3.72149e-20)
(0.031847 0.462899 -4.43153e-20)
(0.047221 1.79135 -2.42441e-20)
(0.078538 2.75614 -2.96276e-20)
(0.231228 0.219057 -4.79004e-20)
(1.02029 0.963048 -1.27901e-19)
(1.14932 1.10189 3.94713e-20)
(1.13277 1.10841 3.77257e-20)
(1.08258 1.08595 0)
(1.02334 1.05901 -8.02446e-20)
(0.956709 1.02871 -4.21618e-20)
(0.879826 0.995199 1.95361e-21)
(0.791083 0.956983 -7.16872e-22)
(0.686568 0.91107 1.66989e-20)
(0.57699 0.858385 4.03326e-20)
(0.478295 0.802774 3.78262e-20)
(0.393518 0.742136 5.12968e-20)
(0.319858 0.68309 -6.0575e-20)
(0.247824 0.627038 -6.73084e-20)
(0.166983 0.536451 0)
(0.0746171 0.839553 0)
(0.123572 2.48309 1.94193e-20)
(0.130332 3.16639 0)
(0.129876 3.3719 4.87043e-20)
(0.23285 0.224016 0)
(1.01239 0.983684 0)
(1.13896 1.12379 0)
(1.12249 1.13028 1.05329e-20)
(1.07263 1.10792 5.33913e-20)
(1.01352 1.08106 -6.14012e-20)
(0.947554 1.05104 -3.0255e-20)
(0.870573 1.01815 2.22648e-21)
(0.781461 0.981137 -1.33343e-20)
(0.675679 0.937476 -2.10591e-21)
(0.563263 0.887925 7.22476e-20)
(0.459984 0.836447 -4.43684e-21)
(0.368482 0.777864 5.75012e-21)
(0.289207 0.716652 8.60244e-21)
(0.208775 0.67602 5.30266e-22)
(0.135933 0.944329 3.30314e-22)
(0.172281 2.62379 -9.46095e-20)
(0.189901 3.27338 -3.60334e-20)
(0.172718 3.42357 1.75609e-20)
(0.155039 3.4484 -1.84317e-20)
(0.155078 0.169117 2.83254e-20)
(0.999063 1.00618 0)
(1.12858 1.14418 -7.76108e-20)
(1.11276 1.15077 -9.80701e-20)
(1.06316 1.12877 1.11079e-19)
(1.00441 1.10212 6.51336e-20)
(0.938607 1.07221 3.56551e-20)
(0.861756 1.04014 -3.85268e-20)
(0.772483 1.00455 1.45137e-20)
(0.665857 0.96343 0)
(0.551118 0.917496 3.087e-20)
(0.443813 0.870884 -2.80288e-20)
(0.345303 0.818414 0)
(0.262636 0.7556 7.70653e-21)
(0.191094 0.875295 1.88484e-20)
(0.182224 2.31182 -2.2611e-20)
(0.256594 3.3118 2.58517e-20)
(0.23407 3.44514 1.26159e-20)
(0.195017 3.46868 1.47242e-20)
(0.169086 3.47891 1.89434e-20)
(0.265185 0.258266 -5.5395e-20)
(0.978615 1.01193 0)
(1.10937 1.16662 8.03649e-20)
(1.09936 1.18152 1.02492e-19)
(1.04816 1.15952 -1.1545e-19)
(0.989549 1.13343 -6.98689e-20)
(0.923434 1.10491 -5.4935e-20)
(0.846633 1.07427 -2.85615e-21)
(0.756811 1.0412 -2.10809e-20)
(0.648484 1.00474 -6.36843e-23)
(0.529856 0.966129 1.13346e-21)
(0.416721 0.92867 2.10561e-20)
(0.307216 0.893018 4.59992e-21)
(0.237411 1.00821 -6.67455e-21)
(0.262554 2.20023 -1.56323e-20)
(0.329409 3.31527 1.15854e-20)
(0.316598 3.48391 -1.04251e-20)
(0.27597 3.50661 -6.09979e-21)
(0.235359 3.53389 2.37912e-22)
(0.179348 3.52553 -2.64177e-22)
(0.253711 0.255753 0)
(0.974354 1.03191 2.12115e-20)
(1.10071 1.18775 -1.58801e-20)
(1.08934 1.20251 -1.14001e-20)
(1.0386 1.1806 -7.5684e-20)
(0.980422 1.15474 6.81107e-20)
(0.914408 1.1265 3.69607e-20)
(0.837977 1.09682 -3.00043e-21)
(0.748383 1.06551 2.61825e-20)
(0.639868 1.03228 -2.92359e-21)
(0.519889 0.999166 -3.69781e-20)
(0.4043 0.968383 2.9737e-21)
(0.297972 0.95834 -3.92921e-21)
(0.283227 1.42053 -5.36324e-21)
(0.366639 3.02319 3.94518e-21)
(0.402202 3.47914 4.89841e-22)
(0.350415 3.55016 -4.89266e-21)
(0.309937 3.57128 -8.5657e-21)
(0.255058 3.59343 1.45228e-20)
(0.192595 3.58689 6.49807e-21)
(0.238396 0.25198 5.2484e-20)
(0.968822 1.05398 1.41969e-19)
(1.09143 1.21053 -4.51868e-20)
(1.07898 1.22488 -4.31889e-20)
(1.02872 1.20287 0)
(0.970968 1.17703 9.95588e-20)
(0.905344 1.1491 5.63475e-20)
(0.829566 1.12028 -3.16003e-21)
(0.740576 1.09083 2.72577e-21)
(0.632375 1.06093 1.41435e-20)
(0.511916 1.0337 -1.00025e-20)
(0.395847 1.01079 -1.96627e-20)
(0.307299 1.07049 -2.49763e-20)
(0.361283 2.01893 2.67239e-20)
(0.461646 3.36662 1.144e-20)
(0.453831 3.55579 0)
(0.392971 3.60103 0)
(0.347687 3.64426 1.35661e-20)
(0.279617 3.70228 0)
(0.203157 3.67205 3.18534e-20)
(0.227114 0.251873 -7.62895e-20)
(0.961087 1.07641 -1.17727e-19)
(1.08075 1.23425 0)
(1.06752 1.24794 1.13581e-21)
(1.01776 1.22557 -7.34153e-20)
(0.960571 1.19963 1.47757e-19)
(0.89568 1.17199 3.78871e-20)
(0.820824 1.14399 -3.92423e-21)
(0.732734 1.11629 2.94573e-20)
(0.625266 1.08956 -1.53851e-21)
(0.505011 1.06837 0)
(0.390845 1.05574 0)
(0.34009 1.26198 -1.70195e-20)
(0.458277 2.68493 4.57766e-21)
(0.548901 3.50419 -4.52142e-21)
(0.500364 3.60378 0)
(0.4542 3.66112 3.60482e-20)
(0.389373 3.73366 -5.46393e-20)
(0.33634 3.71578 -4.81414e-20)