/*--------------------------------*- C++ -*----------------------------------*\
  =========                 |
  \\      /  F ield         | OpenFOAM: The Open Source CFD Toolbox
   \\    /   O peration     | Website:  https://openfoam.org
    \\  /    A nd           | Version:  6
     \\/     M anipulation  |
\*---------------------------------------------------------------------------*/
FoamFile
{
    version     2.0;
    format      ascii;
    class       surfaceScalarField;
    location    "50.4";
    object      phi;
}
// * * * * * * * * * * * * * * * * * * * * * * * * * * * * * * * * * * * * * //

dimensions      [0 3 -1 0 0 0 0];

internalField   nonuniform List<scalar> 
17370
(
-0.0900017
0.0898518
0.289161
-0.0714666
0.0537577
0.364484
-0.0381255
0.0276971
0.426597
-0.0196458
0.0146132
0.504284
-0.0107717
0.00828189
0.601892
-0.0062833
0.00490849
0.720432
-0.00374698
0.00290828
0.863745
-0.00216796
0.00160919
1.03601
-0.00109263
0.000680167
1.24292
-0.000272284
-0.00011829
1.49158
0.000496065
-0.000902114
1.4916
0.00129671
-0.00178586
1.24318
0.00231757
-0.00303024
1.03635
0.00384924
-0.00499677
0.864054
0.00636452
-0.00835815
0.721051
0.0108432
-0.0146788
0.60305
0.019706
-0.0277514
0.507485
0.0381745
-0.0537995
0.431793
0.0715009
-0.0898747
0.365149
0.0900152
0.198996
-0.128132
0.0882176
0.0399143
-0.364594
0.353368
-0.074684
0.0859096
-0.446473
0.454314
-0.0844117
0.0765712
-0.521188
0.529895
-0.0684775
0.059771
-0.612786
0.621561
-0.0515863
0.042811
-0.726891
0.734156
-0.035354
0.0280892
-0.867472
0.872581
-0.0224936
0.0173845
-1.03847
1.04192
-0.0135793
0.0101328
-1.2446
1.24703
-0.0075239
0.00509324
-1.49263
1.4946
-0.00314894
0.00117628
-1.4925
1.49422
0.000502675
-0.00222486
-1.24398
1.24586
0.00412601
-0.00600848
-1.03751
1.04005
0.00836588
-0.0109009
-0.866103
0.86984
0.0142648
-0.0180019
-0.724394
0.729943
0.0230492
-0.0285982
-0.608702
0.616119
0.0358183
-0.0432355
-0.514901
0.523047
0.0519677
-0.0601142
-0.439859
0.44792
0.0687809
-0.0768427
-0.375299
0.376746
0.0846467
-0.0860941
-0.257335
0.222489
0.0748098
-0.0399633
-0.0685071
0.0586763
0.00983085
-0.0518404
0.0584322
-0.374115
0.367523
-0.0575245
0.0537788
-0.453586
0.457332
-0.0486954
0.0447496
-0.527937
0.531883
-0.0409169
0.0372843
-0.621552
0.625184
-0.0331894
0.0291199
-0.735334
0.739404
-0.0245563
0.0204026
-0.874325
0.878478
-0.0160634
0.0123756
-1.04348
1.04716
-0.00864574
0.00547817
-1.24855
1.25172
-0.00215402
-0.00091883
-1.49666
1.49973
0.0039668
-0.00722942
-1.49721
1.50047
0.0103077
-0.0139166
-1.25008
1.25369
0.0174844
-0.0216889
-1.04594
1.05014
0.0257257
-0.0301741
-0.877776
0.882225
0.0341524
-0.0381593
-0.739914
0.743921
0.0417167
-0.0454703
-0.626788
0.630541
0.049348
-0.0543664
-0.534822
0.53984
0.0580425
-0.058862
-0.457486
0.458305
0.0521672
-0.031977
-0.33577
0.31558
0.00988421
-0.0683598
0.0584756
-0.0529213
0.048921
0.00400037
-0.0331949
0.0437551
-0.358079
0.347519
-0.0474665
0.0468485
-0.459265
0.459883
-0.0438016
0.0404565
-0.535781
0.539126
-0.0366923
0.033396
-0.628503
0.631799
-0.0299674
0.026945
-0.74262
0.745642
-0.0236972
0.0205999
-0.881986
0.885083
-0.0170793
0.0137081
-1.05074
1.05411
-0.00992435
0.00639393
-1.25514
1.25867
-0.0024341
-0.00135583
-1.50323
1.50702
0.00511555
-0.00898594
-1.50414
1.50802
0.0123956
-0.0160165
-1.25744
1.26106
0.0192229
-0.0225551
-1.05395
1.05728
0.0254848
-0.0285631
-0.885727
0.888805
0.0314488
-0.0347451
-0.74719
0.750486
0.0379304
-0.0415811
-0.634335
0.637986
0.0448291
-0.0477653
-0.544159
0.547095
0.0482671
-0.0443916
-0.456603
0.452728
0.0336353
-0.0162036
-0.296233
0.278801
0.0040665
-0.0526614
0.0485949
-0.0458383
0.0433374
0.00250094
-0.0228457
0.0332447
-0.336814
0.326415
-0.0390854
0.0401162
-0.459559
0.458528
-0.0389401
0.0366647
-0.541839
0.544114
-0.0340106
0.0314272
-0.634839
0.637422
-0.0283785
0.0254925
-0.748674
0.75156
-0.0222423
0.019261
-0.888023
0.891004
-0.01597
0.0128839
-1.05723
1.06032
-0.00937219
0.00597459
-1.26212
1.26552
-0.00202032
-0.00185895
-1.5109
1.51478
0.0056985
-0.00953389
-1.51191
1.51575
0.0127715
-0.0160691
-1.26451
1.26781
0.0189395
-0.0219839
-1.06039
1.06343
0.0247443
-0.0277683
-0.891871
0.894895
0.0304681
-0.0333343
-0.753705
0.756571
0.0357656
-0.0382661
-0.641064
0.643565
0.0404092
-0.0414114
-0.548912
0.549914
0.0402002
-0.0340961
-0.447465
0.441361
0.0234098
-0.0102149
-0.263604
0.250409
0.00258244
-0.0454385
0.0428561
-0.0412566
0.0394832
0.00177343
-0.0167929
0.0260698
-0.31654
0.307263
-0.0327016
0.0348604
-0.456915
0.454756
-0.0344557
0.0327976
-0.546081
0.547739
-0.0306301
0.0285471
-0.639714
0.641797
-0.0261305
0.0237483
-0.754189
0.756571
-0.0209095
0.0181404
-0.89388
0.896649
-0.0149281
0.0118806
-1.06334
1.06639
-0.00841183
0.00510272
-1.26882
1.27213
-0.00128287
-0.0024422
-1.51856
1.52229
0.00611699
-0.00978645
-1.51949
1.52316
0.0128942
-0.0160944
-1.27106
1.27426
0.0188701
-0.0217681
-1.06646
1.06936
0.0242513
-0.0267939
-0.89773
0.900272
0.0289324
-0.0311127
-0.759038
0.761218
0.0330027
-0.0349747
-0.645732
0.647704
0.0364413
-0.0366107
-0.550448
0.550617
0.0341748
-0.0271582
-0.434721
0.427705
0.0174954
-0.00738064
-0.238905
0.22879
0.00187286
-0.0406854
0.0388125
-0.0379545
0.0366182
0.00133638
-0.0128388
0.0208148
-0.298644
0.290668
-0.0275984
0.0305475
-0.452176
0.449227
-0.0307755
0.0296757
-0.549156
0.550256
-0.0277013
0.025804
-0.643816
0.645714
-0.0236274
0.0215121
-0.758787
0.760902
-0.0190201
0.0165558
-0.899197
0.901662
-0.0136332
0.0107724
-1.06931
1.07217
-0.00743136
0.00420888
-1.27537
1.27859
-0.000478129
-0.00314088
-1.52592
1.52954
0.00669776
-0.0102419
-1.52676
1.53031
0.0132119
-0.0162144
-1.2774
1.28041
0.0187332
-0.021262
-1.07209
1.07462
0.023369
-0.0254895
-0.902583
0.904703
0.0272966
-0.0291709
-0.763222
0.765097
0.0308218
-0.0325584
-0.649538
0.651275
0.0333788
-0.0328225
-0.55043
0.549874
0.0294791
-0.022171
-0.420487
0.413179
0.0137011
-0.00570931
-0.21984
0.211848
0.00145703
-0.0371744
0.0357174
-0.0354497
0.0344175
0.00103217
-0.0100483
0.0167974
-0.283333
0.276584
-0.0233194
0.0267237
-0.446035
0.442631
-0.0275322
0.0268526
-0.551139
0.551819
-0.0251145
0.0233495
-0.647586
0.649351
-0.0213022
0.0193081
-0.76295
0.764944
-0.0169637
0.0146645
-0.903971
0.90627
-0.0119593
0.00930474
-1.07485
1.0775
-0.00617706
0.00311472
-1.28169
1.28476
0.000478309
-0.00398172
-1.53309
1.53659
0.00740797
-0.0107686
-1.53377
1.53713
0.0135189
-0.0162294
-1.28328
1.28599
0.0184614
-0.0206799
-1.077
1.07922
0.0225365
-0.0244191
-0.906713
0.908595
0.0260282
-0.0276976
-0.766871
0.76854
0.0291578
-0.0305697
-0.652866
0.654278
0.0309019
-0.0296298
-0.54897
0.547698
0.0256822
-0.0184717
-0.405896
0.398685
0.0111036
-0.0045979
-0.20467
0.198164
0.00117906
-0.0344161
0.033237
-0.0335098
0.0327035
0.000806358
-0.00798101
0.0136615
-0.270401
0.26472
-0.0197041
0.0233119
-0.439119
0.435511
-0.0246044
0.0241779
-0.552411
0.552837
-0.022712
0.0210628
-0.651115
0.652764
-0.0191198
0.0172209
-0.766885
0.768784
-0.014977
0.0127681
-0.908451
0.91066
-0.010164
0.00761693
-1.08002
1.08257
-0.00463244
0.00172219
-1.28769
1.2906
0.00168202
-0.00499234
-1.53997
1.54328
0.00820996
-0.0113334
-1.54036
1.54349
0.0138659
-0.0163417
-1.28859
1.29107
0.0183722
-0.0203798
-1.08136
1.08336
0.0220438
-0.0237199
-0.910395
0.912071
0.0251467
-0.0266265
-0.770126
0.771606
0.027897
-0.0289408
-0.655485
0.656529
0.0289063
-0.0269785
-0.546102
0.544174
0.0226467
-0.0157214
-0.391613
0.384688
0.00927228
-0.0038254
-0.192238
0.186792
0.000985382
-0.0321683
0.0311829
-0.0319936
0.031362
0.000631652
-0.00638709
0.0111549
-0.259525
0.254757
-0.0166111
0.0202237
-0.4319
0.428288
-0.0218479
0.0216586
-0.553184
0.553374
-0.0204411
0.0188623
-0.65443
0.656008
-0.0169853
0.0151411
-0.770646
0.772491
-0.0129603
0.0108164
-0.912759
0.914903
-0.00829338
0.00583163
-1.08499
1.08746
-0.00295316
0.000156022
-1.29339
1.29619
0.00309602
-0.0062352
-1.54647
1.5496
0.00925906
-0.0121649
-1.54649
1.54939
0.0144981
-0.0167538
-1.29346
1.29572
0.0185829
-0.0203734
-1.08531
1.0871
0.0218479
-0.02333
-0.913677
0.915159
0.0245929
-0.0258978
-0.773002
0.774307
0.0270225
-0.0276612
-0.657346
0.657985
0.0272659
-0.0247975
-0.541986
0.539517
0.0202437
-0.0136759
-0.377952
0.371385
0.0079608
-0.00327893
-0.181767
0.177085
0.000848721
-0.0302776
0.0294289
-0.0308096
0.0303189
0.000490697
-0.00510691
0.00908988
-0.250409
0.246426
-0.0139193
0.0173919
-0.424755
0.421282
-0.0192069
0.0192107
-0.55352
0.553516
-0.018184
0.016635
-0.65765
0.659199
-0.0147781
0.0129545
-0.774312
0.776136
-0.0108071
0.0087049
-0.916929
0.919031
-0.00623814
0.00383612
-1.08979
1.09219
-0.00103745
-0.00166365
-1.29887
1.30157
0.0047737
-0.00774121
-1.55262
1.55559
0.0105693
-0.0132625
-1.55218
1.55487
0.0154041
-0.0174521
-1.29788
1.29993
0.0190912
-0.0206736
-1.08882
1.0904
0.0219631
-0.0232602
-0.91658
0.917877
0.0243766
-0.0255325
-0.775561
0.776717
0.026473
-0.0267626
-0.658428
0.658718
0.0259879
-0.0230694
-0.536836
0.533917
0.0183936
-0.0121772
-0.365013
0.358797
0.00702884
-0.00289753
-0.172713
0.168582
0.000755044
-0.0286387
0.0278837
-0.029896
0.0295246
0.000371389
-0.00403409
0.00732734
-0.242812
0.239519
-0.0115182
0.0147441
-0.417951
0.414725
-0.0166361
0.0168182
-0.553486
0.553304
-0.0158952
0.0144427
-0.660783
0.662236
-0.0125995
0.0107681
-0.777942
0.779773
-0.00860282
0.00648636
-0.921034
0.92315
-0.00401769
0.00163613
-1.09448
1.09686
0.00111215
-0.00374163
-1.30416
1.30679
0.00674525
-0.0095803
-1.55843
1.56127
0.0122452
-0.01474
-1.55744
1.55993
0.0166897
-0.018526
-1.3019
1.30374
0.0199785
-0.021366
-1.09195
1.09333
0.0224888
-0.0236191
-0.919125
0.920255
0.0245898
-0.0255719
-0.777802
0.778784
0.0262589
-0.0262471
-0.658862
0.658851
0.0250759
-0.0217629
-0.53081
0.527497
0.0170167
-0.0111057
-0.352762
0.346851
0.00638149
-0.00263915
-0.164678
0.160936
0.000693586
-0.0271716
0.026478
-0.0292138
0.0289488
0.000265027
-0.0030947
0.00576652
-0.236559
0.233887
-0.00931971
0.0122124
-0.411693
0.4088
-0.0140541
0.0143201
-0.553151
0.552885
-0.0134413
0.0120314
-0.663751
0.665161
-0.0101651
0.00829955
-0.78159
0.783455
-0.00610469
0.00397522
-0.925153
0.927282
-0.0015056
-0.000867159
-1.09913
1.1015
0.00359441
-0.00618647
-1.30932
1.31191
0.00911661
-0.0118416
-1.564
1.56673
0.0143619
-0.0166772
-1.56231
1.56463
0.0184467
-0.0200725
-1.30548
1.30711
0.0213252
-0.0224895
-1.09468
1.09584
0.0234096
-0.0243418
-0.921339
0.922271
0.0251605
-0.0259837
-0.779689
0.780513
0.0264135
-0.0261505
-0.658702
0.658439
0.0245491
-0.0208702
-0.524024
0.520345
0.0160653
-0.0103858
-0.341097
0.335417
0.00595955
-0.0024772
-0.157358
0.153875
0.000657218
-0.0258162
0.025159
-0.028741
0.0285767
0.000164314
-0.00222628
0.0043154
-0.23153
0.229441
-0.00722734
0.00972228
-0.40614
0.403645
-0.0114193
0.0117056
-0.552701
0.552414
-0.0108508
0.00945498
-0.666672
0.668067
-0.00754252
0.00561275
-0.785309
0.787238
-0.00333971
0.00114088
-0.929302
0.931501
0.00139538
-0.00381115
-1.10377
1.10618
0.00655492
-0.00912447
-1.3144
1.31697
0.0119797
-0.014583
-1.56932
1.57193
0.0169392
-0.0190523
-1.56681
1.56893
0.0206299
-0.0220439
-1.30865
1.31006
0.0231053
-0.0240612
-1.09698
1.09794
0.0247979
-0.0255422
-0.923169
0.923913
0.026207
-0.0268784
-0.781249
0.78192
0.0270089
-0.0264035
-0.657953
0.657348
0.0243924
-0.0203623
-0.516537
0.512507
0.0154829
-0.0099537
-0.329863
0.324334
0.00571833
-0.00239298
-0.150507
0.147182
0.000641752
-0.0245239
0.0238822
-0.0284692
0.0284068
6.23964e-05
-0.0013773
0.00289549
-0.227659
0.226141
-0.00514684
0.00717421
-0.40142
0.399393
-0.00861878
0.00884782
-0.552258
0.552029
-0.00798634
0.00658749
-0.66958
0.670979
-0.00460905
0.00259024
-0.789155
0.791174
-0.000204116
-0.00209666
-0.933596
0.935897
0.00473122
-0.00721716
-1.1085
1.11099
0.0100102
-0.0125954
-1.31945
1.32203
0.0154256
-0.0179558
-1.57443
1.57696
0.020183
-0.0221102
-1.57091
1.57284
0.023495
-0.0246833
-1.31138
1.31257
0.0255326
-0.0262435
-1.09889
1.0996
0.0267527
-0.0272754
-0.924626
0.925148
0.0277657
-0.0282282
-0.782425
0.782887
0.028073
-0.0270611
-0.65648
0.655469
0.0246163
-0.0202251
-0.508366
0.503975
0.0152373
-0.00977007
-0.318899
0.313432
0.00562894
-0.00237305
-0.143932
0.140676
0.000643131
-0.0232563
0.0226132
-0.0284024
0.0284487
-4.62933e-05
-0.000499942
0.00144124
-0.224932
0.223991
-0.00300634
0.00450315
-0.397672
0.396175
-0.00558919
0.00566027
-0.55201
0.551938
-0.00470602
0.00321804
-0.672556
0.674044
-0.00111948
-0.00102651
-0.793178
0.795324
0.0035495
-0.00596475
-0.938072
0.940487
0.00871323
-0.0112908
-1.11336
1.11594
0.0141637
-0.016788
-1.32453
1.32715
0.0196047
-0.0220521
-1.57938
1.58183
0.0241347
-0.0258601
-1.57463
1.57635
0.0270352
-0.0279718
-1.31364
1.31457
0.0285825
-0.0290337
-1.1003
1.10075
0.0293056
-0.0295837
-0.925646
0.925924
0.0298863
-0.0300931
-0.783083
0.78329
0.0296823
-0.0281945
-0.65418
0.652692
0.0252813
-0.0204913
-0.499493
0.494703
0.0153318
-0.00982555
-0.308022
0.302515
0.00568385
-0.00241506
-0.137459
0.134191
0.00066139
-0.0219795
0.0213181
-0.0285515
0.0287154
-0.000163966
0.000430939
-0.00010515
-0.223374
0.223049
-0.000722596
0.00161286
-0.395018
0.394127
-0.00224329
0.00208624
-0.552144
0.552301
-0.000999189
-0.000614416
-0.675756
0.67737
0.00286449
-0.00518205
-0.797457
0.799775
0.00790799
-0.0105085
-0.942789
0.94539
0.0134508
-0.0161827
-1.11842
1.12116
0.0191838
-0.0218725
-1.32969
1.33237
0.0246859
-0.0270504
-1.58415
1.58652
0.0289723
-0.0304657
-1.57792
1.57941
0.0314092
-0.0320799
-1.31538
1.31605
0.0324448
-0.032629
-1.10119
1.10138
0.0326532
-0.0326712
-0.926178
0.926195
0.0327591
-0.0326336
-0.783136
0.78301
0.0318917
-0.029837
-0.65096
0.648905
0.0264045
-0.0211575
-0.489829
0.484582
0.0157519
-0.010103
-0.297028
0.291379
0.00586988
-0.00251209
-0.130928
0.127571
0.000694107
-0.020661
0.0199669
-0.0289584
0.0292627
-0.000304296
0.00143462
-0.0017591
-0.223082
0.223406
0.00177505
-0.00159891
-0.393599
0.393423
0.00155934
-0.00205732
-0.552832
0.55333
0.00334435
-0.00513176
-0.679245
0.681032
0.00758995
-0.0101244
-0.802073
0.804607
0.0131045
-0.0159347
-0.947884
0.950715
0.0191109
-0.0220291
-1.1238
1.12672
0.025194
-0.0279853
-1.33497
1.33777
0.0308441
-0.0331602
-1.58877
1.59109
0.0349427
-0.036198
-1.58074
1.58199
0.0368819
-0.0372215
-1.31655
1.31689
0.0372889
-0.037162
-1.1015
1.10137
0.0369072
-0.0366358
-0.926161
0.92589
0.0364955
-0.0359264
-0.782425
0.781856
0.0347502
-0.0320531
-0.646664
0.643967
0.0280347
-0.0222532
-0.479256
0.473475
0.0165081
-0.0106019
-0.285709
0.279803
0.00618437
-0.00266243
-0.124189
0.120667
0.000740691
-0.0192725
0.0185318
-0.0296387
0.0301144
-0.000475739
0.00269688
-0.00376103
-0.224112
0.225176
0.0046608
-0.00529164
-0.393629
0.39426
0.00597241
-0.00692636
-0.55435
0.555304
0.00853229
-0.0105895
-0.683154
0.685211
0.0133556
-0.016183
-0.807122
0.809949
0.0194749
-0.0225735
-0.953429
0.956527
0.0260257
-0.0291729
-1.12954
1.13269
0.0325469
-0.0354629
-1.34047
1.34338
0.0383505
-0.0405722
-1.59325
1.59548
0.0421482
-0.0431092
-1.58304
1.584
0.0434845
-0.0434816
-1.31705
1.31705
0.0432186
-0.0427324
-1.10112
1.10063
0.0421524
-0.0415536
-0.925503
0.924904
0.0410973
-0.0400783
-0.780798
0.779779
0.0383745
-0.0349484
-0.641139
0.637713
0.0302469
-0.0238132
-0.467603
0.461169
0.0176129
-0.0113242
-0.273831
0.267542
0.00662619
-0.00286481
-0.11709
0.113329
0.000800714
-0.0177863
0.0169856
-0.0306691
0.0313624
-0.000693273
0.00418299
-0.00613016
-0.226683
0.22863
0.00808024
-0.00959742
-0.395314
0.396831
0.0111097
-0.0126407
-0.556945
0.558476
0.0146928
-0.017097
-0.687675
0.690079
0.0202608
-0.0234526
-0.812754
0.815946
0.0271481
-0.0306082
-0.959523
0.962983
0.0344351
-0.0378802
-1.13576
1.13921
0.0415036
-0.0445558
-1.3462
1.34925
0.0474715
-0.049584
-1.59752
1.59964
0.0509217
-0.0515261
-1.58472
1.58532
0.0515081
-0.051097
-1.31681
1.31639
0.0504557
-0.0495644
-1.09994
1.09905
0.0486197
-0.0476369
-0.924117
0.923134
0.0467575
-0.0452453
-0.778247
0.776734
0.0428774
-0.0385922
-0.634184
0.629899
0.0330843
-0.0258621
-0.454628
0.447406
0.0190759
-0.0122687
-0.261141
0.254334
0.00719015
-0.00311458
-0.109483
0.105408
0.000871948
-0.0161769
0.015305
-0.032133
0.0331091
-0.000976083
0.00604753
-0.00907114
-0.23104
0.234063
0.0122577
-0.0148315
-0.398934
0.401508
0.017314
-0.0195426
-0.560863
0.563092
0.0221652
-0.0250243
-0.692953
0.695812
0.0286887
-0.0323509
-0.81912
0.822782
0.0365677
-0.0404832
-0.966367
0.970282
0.0447578
-0.0485429
-1.14258
1.14637
0.0524425
-0.0556344
-1.35219
1.35538
0.0585538
-0.0605009
-1.60155
1.6035
0.0615192
-0.0616763
-1.58563
1.58579
0.0612097
-0.0603016
-1.31564
1.31474
0.0592216
-0.0578743
-1.09786
1.09652
0.0565278
-0.0551218
-0.921881
0.920475
0.0537036
-0.0515796
-0.77466
0.772536
0.0484149
-0.0431059
-0.62553
0.620221
0.0366334
-0.028442
-0.440059
0.431868
0.0209101
-0.0134319
-0.247367
0.239889
0.0078683
-0.00340533
-0.101222
0.0967588
0.000951676
-0.0144238
0.0134721
-0.0341548
0.0355259
-0.00137107
0.00851979
-0.0128695
-0.237537
0.241886
0.0175355
-0.0213378
-0.40486
0.408662
0.0249592
-0.0280643
-0.566449
0.569554
0.031484
-0.0349948
-0.699251
0.702762
0.0393498
-0.0436066
-0.826433
0.83069
0.0484284
-0.0528449
-0.974114
0.97853
0.0576023
-0.0617442
-1.15006
1.1542
0.0659119
-0.0692017
-1.35842
1.36171
0.0720272
-0.0736824
-1.60518
1.60684
0.0742531
-0.0738403
-1.58559
1.58518
0.0728399
-0.071308
-1.31336
1.31183
0.0697003
-0.0678076
-1.09473
1.09284
0.0660041
-0.0641286
-0.91869
0.916814
0.0620908
-0.0592417
-0.769806
0.766957
0.0551245
-0.0485803
-0.614839
0.608295
0.0409345
-0.0315542
-0.42353
0.41415
0.0230969
-0.0147867
-0.232209
0.223899
0.00863584
-0.00372235
-0.0921652
0.0872517
0.00103479
-0.0125121
0.0114774
-0.0369375
0.0388779
-0.00194044
0.0119392
-0.0179925
-0.246654
0.252707
0.0244438
-0.0296746
-0.41357
0.4188
0.0346212
-0.0387711
-0.574126
0.578276
0.0431901
-0.0475518
-0.706968
0.71133
0.0527966
-0.0577928
-0.834937
0.839933
0.0633506
-0.0683597
-0.982878
0.987887
0.0736547
-0.0781467
-1.15823
1.16273
0.0825047
-0.0857658
-1.36476
1.36803
0.0883182
-0.0894956
-1.6081
1.60928
0.0894359
-0.088278
-1.58431
1.58315
0.086586
-0.0843238
-1.30976
1.3075
0.0820965
-0.0795957
-1.09039
1.08789
0.0772782
-0.074785
-0.914413
0.91192
0.0721326
-0.0683518
-0.763405
0.759624
0.063071
-0.0550362
-0.601671
0.593637
0.0459783
-0.0351597
-0.404619
0.3938
0.0255774
-0.0162704
-0.215357
0.20605
0.00944215
-0.00403736
-0.0822012
0.0767964
0.00111152
-0.0104395
0.00932801
-0.0408011
0.04362
-0.00281892
0.0168972
-0.025194
-0.259121
0.267418
0.0338474
-0.0407879
-0.42572
0.432661
0.0473282
-0.0527417
-0.584326
0.589739
0.0583828
-0.0638137
-0.716492
0.721923
0.0701715
-0.0760512
-0.844912
0.850792
0.082434
-0.0880385
-0.992823
0.998427
0.0937849
-0.0984773
-1.16702
1.17172
0.10281
-0.105823
-1.37093
1.37394
0.107854
-0.108323
-1.60994
1.61041
0.107409
-0.105281
-1.58141
1.57928
0.102727
-0.0995824
-1.30459
1.30145
0.0966371
-0.093459
-1.08466
1.08148
0.0905786
-0.0873595
-0.908704
0.905484
0.0840026
-0.0790595
-0.755009
0.750066
0.0723487
-0.0625041
-0.585483
0.575638
0.0517416
-0.039185
-0.382836
0.37028
0.0282531
-0.0177852
-0.196512
0.186044
0.0102111
-0.00430947
-0.0712729
0.0653713
0.00116816
-0.00822489
0.00705673
-0.0463075
0.0506056
-0.00429812
0.0245784
-0.035913
-0.276096
0.28743
0.0474041
-0.0566404
-0.442328
0.451565
0.0651831
-0.0721285
-0.597634
0.604579
0.0793108
-0.0861938
-0.728209
0.735092
0.0937261
-0.100418
-0.856572
0.863264
0.107442
-0.113397
-1.00385
1.0098
0.119253
-0.1238
-1.17604
1.18059
0.127693
-0.130056
-1.37639
1.37875
0.131098
-0.130436
-1.61014
1.60948
0.128309
-0.124934
-1.57643
1.57306
0.121334
-0.117157
-1.29758
1.2934
0.1134
-0.109488
-1.07735
1.07344
0.106016
-0.102012
-0.9013
0.897295
0.0977875
-0.0913746
-0.744111
0.737698
0.0829081
-0.0708673
-0.565583
0.553542
0.0580678
-0.043461
-0.35761
0.343003
0.0309547
-0.0191839
-0.175417
0.163646
0.0108341
-0.00448263
-0.0594165
0.0530651
0.00118567
-0.00591585
0.00473018
-0.0545181
0.0618579
-0.00733973
0.037953
-0.0537513
-0.299694
0.315492
0.0692514
-0.0816563
-0.465053
0.477458
0.0923486
-0.100681
-0.614547
0.622879
0.109422
-0.117597
-0.742525
0.7507
0.126059
-0.133121
-0.869644
0.876706
0.140165
-0.145847
-1.01529
1.02097
0.151147
-0.154931
-1.18445
1.18823
0.157759
-0.158906
-1.38024
1.38139
0.158433
-0.156201
-1.60783
1.6056
0.152508
-0.147604
-1.56881
1.5639
0.142729
-0.137309
-1.28839
1.28297
0.132552
-0.127739
-1.06837
1.06355
0.123589
-0.118788
-0.892046
0.887244
0.113375
-0.105123
-0.730048
0.721796
0.0944691
-0.0797469
-0.541059
0.526337
0.0645561
-0.0476797
-0.328333
0.311457
0.0334523
-0.0203254
-0.151939
0.138812
0.0112203
-0.00451077
-0.046823
0.0401135
0.00113817
-0.00359425
0.00245608
-0.0687043
0.0728006
-0.00409634
0.0289219
-0.042718
-0.333843
0.34764
0.0565359
-0.0679516
-0.495291
0.506707
0.0780863
-0.0875286
-0.634729
0.644172
0.0980308
-0.107692
-0.758276
0.767937
0.118345
-0.127689
-0.882753
0.892097
0.137527
-0.146162
-1.02571
1.03435
0.155047
-0.162474
-1.19091
1.19833
0.169581
-0.174875
-1.3813
1.3866
0.178993
-0.180807
-1.60208
1.60389
0.180264
-0.177914
-1.55786
1.55551
0.174555
-0.170096
-1.27662
1.27216
0.165957
-0.16108
-1.0574
1.05252
0.156877
-0.151676
-0.880544
0.875342
0.144719
-0.133014
-0.711854
0.700148
0.117515
-0.0968789
-0.510961
0.490325
0.0764287
-0.0543828
-0.294409
0.272363
0.0367305
-0.0213379
-0.126221
0.110829
0.0112206
-0.00425392
-0.0339317
0.026965
0.000967968
-0.00135178
0.000383809
-0.0801133
0.0782029
0.00191042
0.00761363
-0.0164841
-0.364142
0.373012
0.0269369
-0.0351438
-0.5227
0.530907
0.0433127
-0.0511123
-0.656193
0.663992
0.0606766
-0.0696043
-0.777063
0.78599
0.0790993
-0.087685
-0.900831
0.909416
0.0967044
-0.104269
-1.04269
1.05025
0.112205
-0.118442
-1.20551
1.21175
0.124307
-0.128312
-1.39148
1.39549
0.130748
-0.131035
-1.60474
1.60502
0.128989
-0.125111
-1.55227
1.5484
0.120218
-0.114194
-1.26705
1.26102
0.108597
-0.102409
-1.04622
1.04003
0.0966644
-0.0900137
-0.865767
0.859117
0.0828451
-0.0727107
-0.684599
0.674464
0.0611478
-0.0473146
-0.468189
0.454356
0.0349026
-0.0231408
-0.250413
0.238651
0.0146885
-0.00807043
-0.0961089
0.0894908
0.00403751
-0.00145342
-0.0202245
0.0176404
0.000292036
0.000843985
-0.00113602
-0.0815343
0.0787027
0.00283156
-0.00114544
-0.0039042
-0.384665
0.389714
0.010804
-0.0167929
-0.542947
0.548936
0.0228477
-0.029561
-0.674265
0.680979
0.0378476
-0.0455831
-0.793982
0.801717
0.0540257
-0.0615019
-0.917197
0.924673
0.0691053
-0.0758399
-1.05763
1.06437
0.0826853
-0.0881216
-1.21752
1.22296
0.0927391
-0.095594
-1.39876
1.40162
0.0970618
-0.0962822
-1.60449
1.60371
0.0932391
-0.0884146
-1.54377
1.53895
0.0827857
-0.0761501
-1.25467
1.24803
0.0695601
-0.062441
-1.03265
1.02553
0.0557753
-0.0483149
-0.849615
0.842155
0.0414089
-0.0328941
-0.660877
0.652362
0.0244787
-0.0157519
-0.438748
0.430021
0.00951815
-0.00498288
-0.226124
0.221588
0.00247748
-0.00104019
-0.0825902
0.0811529
0.000370239
-8.78467e-05
-0.01471
0.0144276
-1.95365e-05
0.00173966
-0.00172013
-0.0803666
0.0776386
0.002728
-0.00481686
0.00228682
-0.398298
0.400828
0.00217518
-0.0066866
-0.55802
0.562531
0.0117986
-0.0174376
-0.689125
0.694763
0.0245808
-0.0312383
-0.808784
0.815442
0.0384583
-0.0448732
-0.931595
0.93801
0.0517748
-0.0574764
-1.07066
1.07636
0.0634307
-0.0676905
-1.22797
1.23223
0.0715465
-0.0737722
-1.4042
1.40643
0.0744592
-0.0728678
-1.60248
1.60089
0.0694706
-0.0643183
-1.53355
1.5284
0.0583804
-0.051016
-1.24102
1.23366
0.0440372
-0.0364216
-1.0174
1.00978
0.0292212
-0.0217304
-0.832394
0.824903
0.0149049
-0.00785795
-0.640796
0.633749
0.00194336
0.00260477
-0.419877
0.415329
-0.00460795
0.00494059
-0.214945
0.214613
-0.0043541
0.00304361
-0.0787481
0.0800586
-0.00193655
0.000873442
-0.0135794
0.0146425
-0.000270063
0.00205919
-0.00178912
-0.0789551
0.0765645
0.0023906
-0.00595472
0.0049675
-0.407495
0.408482
-0.00159762
-0.00177932
-0.570122
0.573499
0.00588696
-0.0110221
-0.701639
0.706775
0.0170623
-0.0229419
-0.821373
0.827253
0.0292198
-0.0348147
-0.943971
0.949566
0.0407533
-0.0458404
-1.08192
1.08701
0.0508763
-0.0547879
-1.23634
1.24025
0.0580442
-0.0598067
-1.40828
1.41004
0.0600562
-0.0580984
-1.5991
1.59714
0.0543629
-0.0487093
-1.52246
1.51681
0.0425693
-0.0352213
-1.22613
1.21878
0.0282308
-0.0204784
-1.0015
0.993752
0.0134126
-0.00594184
-0.815583
0.808112
-0.000348308
0.00604707
-0.623982
0.618283
-0.0101069
0.0122845
-0.408154
0.405977
-0.0122343
0.010508
-0.211638
0.213365
-0.00832455
0.0056816
-0.0804414
0.0830843
-0.00349544
0.00152897
-0.0152751
0.0172415
-0.000438173
0.00178586
-0.00134768
-0.0776788
0.0756517
0.00202714
-0.00584031
0.00531428
-0.413896
0.414422
-0.00327215
0.000495958
-0.57953
0.582306
0.00354898
-0.00797933
-0.712296
0.716727
0.013208
-0.0183342
-0.832317
0.837443
0.0239352
-0.0289629
-0.954811
0.959839
0.034433
-0.0389222
-1.09182
1.09631
0.0434872
-0.0470341
-1.24388
1.24742
0.0499051
-0.0513759
-1.41154
1.41301
0.0513309
-0.0495429
-1.59504
1.59325
0.0456937
-0.0402592
-1.51069
1.50526
0.0343056
-0.0272633
-1.21131
1.20426
0.020815
-0.013267
-0.98574
0.978192
0.00639218
0.000760548
-0.799457
0.792304
-0.00670697
0.0116947
-0.609865
0.604878
-0.0148422
0.0162571
-0.400727
0.399312
-0.0152826
0.0127073
-0.212355
0.21493
-0.0100337
0.00686625
-0.0848198
0.0879873
-0.00420492
0.00186994
-0.018759
0.021094
-0.000540148
0.00106645
-0.0005263
-0.0767556
0.0751933
0.00156228
-0.00494627
0.00472493
-0.418757
0.418978
-0.00300562
0.000888826
-0.587813
0.58993
0.00291686
-0.00697045
-0.72159
0.725643
0.0119602
-0.0163972
-0.842162
0.846599
0.0213415
-0.0258294
-0.964836
0.969324
0.0310633
-0.0351835
-1.10084
1.10496
0.0392968
-0.0427094
-1.25081
1.25422
0.0457906
-0.0471577
-1.4145
1.41586
0.0472229
-0.0454786
-1.5911
1.58935
0.0422261
-0.0370157
-1.49975
1.49454
0.0317192
-0.0253588
-1.19724
1.19087
0.0191828
-0.0121717
-0.970582
0.963571
0.00553686
0.00145892
-0.784103
0.777107
-0.00682402
0.0115681
-0.597108
0.592364
-0.0144054
0.015579
-0.395072
0.393898
-0.01491
0.012678
-0.214577
0.216809
-0.0100864
0.00693792
-0.0901696
0.0933181
-0.00427991
0.00193738
-0.0228349
0.0251774
-0.000573717
0.000163524
0.000410193
-0.0763473
0.075144
0.00120332
-0.00383731
0.00372236
-0.422708
0.422823
-0.00209604
8.42256e-05
-0.59507
0.597082
0.00352469
-0.00719417
-0.729981
0.73365
0.0114956
-0.0157861
-0.850982
0.855272
0.0203828
-0.025047
-0.973621
0.978285
0.0295986
-0.0335836
-1.1092
1.11319
0.0378879
-0.0411301
-1.25753
1.26077
0.0438076
-0.0456497
-1.41716
1.419
0.0460027
-0.0447223
-1.58775
1.58647
0.0418418
-0.037407
-1.48966
1.48523
0.0325471
-0.0265481
-1.18428
1.17828
0.0207537
-0.0141002
-0.956328
0.949674
0.0079528
-0.00170569
-0.769669
0.763422
-0.00353992
0.00800146
-0.585383
0.580922
-0.0106115
0.0121198
-0.389982
0.388474
-0.0120435
0.0103946
-0.216446
0.218094
-0.00839474
0.00584112
-0.0950412
0.0975948
-0.00365617
0.00168437
-0.0267147
0.0286865
-0.000514147
-0.000755513
0.00126966
-0.0764903
0.0754895
0.00100079
-0.00253101
0.00215461
-0.426319
0.426696
-0.000697838
-0.00134778
-0.601778
0.603824
0.00466743
-0.00823143
-0.737815
0.741379
0.0123773
-0.0162865
-0.859364
0.863273
0.0210311
-0.0249383
-0.982377
0.986284
0.0295074
-0.0333719
-1.11735
1.12121
0.0376188
-0.0411011
-1.26401
1.26749
0.044133
-0.0458397
-1.42063
1.42234
0.046654
-0.0458877
-1.58518
1.58441
0.0437173
-0.0395807
-1.48071
1.47657
0.0350823
-0.0294182
-1.17236
1.1667
0.0240536
-0.0179314
-0.942817
0.936695
0.0125261
-0.00678146
-0.756679
0.750934
0.00185808
0.00273395
-0.574612
0.57002
-0.00574365
0.00731968
-0.384448
0.382872
-0.0077861
0.00697253
-0.217266
0.21808
-0.00576874
0.00407793
-0.0986329
0.100324
-0.00259903
0.00124763
-0.0297348
0.0310862
-0.000397913
-0.00152667
0.00192458
-0.076934
0.0762418
0.000692204
-0.00137482
0.000522433
-0.430051
0.430903
0.000746211
-0.00294347
-0.607761
0.609958
0.00598166
-0.00944321
-0.745146
0.748608
0.0134323
-0.0174876
-0.867055
0.87111
0.0216455
-0.0257501
-0.990411
0.994515
0.0303247
-0.0340225
-1.12552
1.12922
0.0384109
-0.0418967
-1.27079
1.27428
0.0450405
-0.0473452
-1.42448
1.42679
0.0487386
-0.0483076
-1.58371
1.58328
0.0463494
-0.0428502
-1.47257
1.46907
0.0388672
-0.0336687
-1.16095
1.15575
0.0287953
-0.0236128
-0.930649
0.925466
0.0184906
-0.0133463
-0.744746
0.739602
0.00854692
-0.00365719
-0.564111
0.559221
0.000329875
0.00191605
-0.378434
0.376188
-0.00285049
0.00297265
-0.216785
0.216663
-0.00258661
0.00189806
-0.100485
0.101174
-0.00128473
0.000664619
-0.0315244
0.0321445
-0.000234036
-0.00205908
0.00229312
-0.0777849
0.0772569
0.000528032
-0.000402629
-0.000396317
-0.434047
0.434846
0.00223539
-0.00430058
-0.613858
0.615924
0.00755025
-0.0109093
-0.752008
0.755367
0.0147605
-0.0184371
-0.87485
0.878527
0.0227502
-0.0265735
-0.998629
1.00245
0.0311315
-0.0352986
-1.13338
1.13754
0.0393641
-0.0432115
-1.27782
1.28167
0.0468294
-0.0492869
-1.42901
1.43147
0.0511105
-0.0514612
-1.58307
1.58342
0.0499447
-0.0470935
-1.46544
1.46259
0.0434623
-0.0390189
-1.15074
1.1463
0.0349071
-0.0302295
-0.920057
0.91538
0.0256343
-0.0205239
-0.733703
0.728592
0.015607
-0.0103524
-0.553127
0.547872
0.00648066
-0.00364405
-0.371602
0.368765
0.00186617
-0.000829711
-0.214542
0.213506
0.00026933
4.44278e-05
-0.10037
0.100056
-0.000196193
0.000208162
-0.0319432
0.0319312
-0.000115524
-0.00227814
0.00239367
-0.0789166
0.0785664
0.000350187
0.000651747
-0.0016478
-0.438199
0.439195
0.00337094
-0.00575119
-0.619594
0.621975
0.00897071
-0.0121979
-0.758663
0.76189
0.0161435
-0.0196921
-0.882195
0.885743
0.0238742
-0.0278418
-1.00676
1.01073
0.0323338
-0.0364863
-1.14157
1.14572
0.0407957
-0.0447026
-1.28545
1.28935
0.0485497
-0.0517985
-1.43422
1.43747
0.0541008
-0.0547773
-1.58371
1.58439
0.0540018
-0.0516449
-1.4597
1.45734
0.048826
-0.0452489
-1.142
1.13843
0.0414483
-0.0370922
-0.910507
0.906151
0.0325516
-0.027109
-0.722741
0.717298
0.0220168
-0.0164107
-0.541811
0.536205
0.0122001
-0.00861942
-0.363816
0.360235
0.00621019
-0.00426407
-0.210544
0.208598
0.00273599
-0.00148513
-0.0984015
0.0971507
0.000661114
-0.000129544
-0.0311261
0.0305945
-4.16359e-05
-0.00220725