/*--------------------------------*- C++ -*----------------------------------*\
  =========                 |
  \\      /  F ield         | OpenFOAM: The Open Source CFD Toolbox
   \\    /   O peration     | Website:  https://openfoam.org
    \\  /    A nd           | Version:  6
     \\/     M anipulation  |
\*---------------------------------------------------------------------------*/
FoamFile
{
    version     2.0;
    format      ascii;
    class       surfaceScalarField;
    location    "39.9";
    object      phi;
}
// * * * * * * * * * * * * * * * * * * * * * * * * * * * * * * * * * * * * * //

dimensions      [0 3 -1 0 0 0 0];

internalField   nonuniform List<scalar> 
17370
(
-0.0900015
0.0898504
0.289162
-0.0714641
0.053754
0.364486
-0.0381207
0.0276916
0.426597
-0.0196389
0.0146044
0.504286
-0.01076
0.00826753
0.601895
-0.00626736
0.00489397
0.720431
-0.00373784
0.00290615
0.863738
-0.00217316
0.00161868
1.036
-0.00110416
0.000693288
1.24291
-0.000288075
-9.86084e-05
1.49158
0.000472109
-0.00087515
1.49159
0.00126988
-0.00176163
1.24318
0.0022971
-0.00301471
1.03636
0.00383836
-0.00499003
0.864058
0.00635968
-0.00835379
0.721052
0.0108389
-0.0146746
0.60305
0.019702
-0.0277477
0.507485
0.0381711
-0.0537966
0.431794
0.0714985
-0.089873
0.36515
0.0900143
0.198997
-0.12813
0.0882159
0.0399138
-0.364592
0.353365
-0.0746844
0.0859109
-0.446472
0.454311
-0.0844117
0.0765727
-0.521185
0.529894
-0.0684774
0.0597678
-0.612781
0.621562
-0.0515793
0.0427985
-0.726887
0.734154
-0.035337
0.0280702
-0.867471
0.872567
-0.0224788
0.0173829
-1.03847
1.0419
-0.0135942
0.0101658
-1.2446
1.24702
-0.00756946
0.00514817
-1.49263
1.4946
-0.00320802
0.00123688
-1.4925
1.49422
0.000446258
-0.00216923
-1.24398
1.24586
0.00407216
-0.00595276
-1.03751
1.04005
0.00830887
-0.0108449
-0.866102
0.869843
0.0142118
-0.0179535
-0.724395
0.729949
0.0230063
-0.0285604
-0.608704
0.616125
0.0357851
-0.0432057
-0.514903
0.523052
0.0519411
-0.0600903
-0.43986
0.447924
0.0687594
-0.0768233
-0.3753
0.376751
0.0846294
-0.0860803
-0.257338
0.222498
0.0748002
-0.0399595
-0.0685
0.0586687
0.00983124
-0.0518456
0.0584412
-0.374108
0.367512
-0.0575342
0.053789
-0.453582
0.457327
-0.0487033
0.0447552
-0.52793
0.531878
-0.0409201
0.0372875
-0.621544
0.625177
-0.033197
0.0291383
-0.735329
0.739387
-0.0245918
0.0204524
-0.874316
0.878455
-0.016125
0.0124434
-1.04346
1.04714
-0.00872226
0.00556406
-1.24854
1.2517
-0.00225123
-0.000817001
-1.49665
1.49972
0.00386188
-0.00711829
-1.49721
1.50047
0.0101974
-0.0138108
-1.25009
1.2537
0.0173861
-0.021601
-1.04594
1.05016
0.0256488
-0.0301096
-0.877782
0.882243
0.0340973
-0.0381104
-0.739923
0.743936
0.0416702
-0.0454256
-0.6268
0.630555
0.049306
-0.0543275
-0.534832
0.539853
0.0580075
-0.0588322
-0.457495
0.45832
0.0521443
-0.0319649
-0.335786
0.315606
0.00988062
-0.0683702
0.0584896
-0.0529114
0.0489097
0.00400168
-0.0332058
0.0437697
-0.358062
0.347498
-0.0474816
0.0468626
-0.459251
0.45987
-0.0438121
0.0404621
-0.535763
0.539113
-0.0366917
0.0333914
-0.628483
0.631783
-0.0299634
0.0269491
-0.742603
0.745617
-0.0237195
0.0206437
-0.88197
0.885046
-0.0171489
0.0138003
-1.05072
1.05407
-0.0100382
0.00652264
-1.25512
1.25864
-0.00257556
-0.00120732
-1.50323
1.50701
0.00496338
-0.00883023
-1.50414
1.50801
0.0122365
-0.0158498
-1.25745
1.26107
0.0190509
-0.0223838
-1.05397
1.0573
0.0253234
-0.0284202
-0.885743
0.88884
0.0313241
-0.0346374
-0.747208
0.750522
0.0378339
-0.041493
-0.634355
0.638015
0.0447475
-0.0476918
-0.544177
0.547121
0.0482028
-0.0443405
-0.456627
0.452764
0.0335998
-0.0161863
-0.296274
0.27886
0.00406119
-0.0526801
0.0486189
-0.0458241
0.043321
0.0025031
-0.0228603
0.033267
-0.336781
0.326375
-0.0391142
0.0401491
-0.459537
0.458502
-0.038975
0.0366997
-0.541817
0.544092
-0.0340455
0.0314658
-0.634814
0.637394
-0.0284277
0.0255581
-0.748647
0.751517
-0.0223294
0.0193641
-0.887985
0.89095
-0.0160836
0.0130035
-1.05718
1.06026
-0.00950266
0.00612147
-1.26208
1.26546
-0.00219399
-0.00165581
-1.51087
1.51472
0.00546952
-0.00929129
-1.5119
1.51572
0.0125286
-0.015837
-1.26452
1.26783
0.0187208
-0.0217813
-1.06041
1.06347
0.0245582
-0.0276013
-0.891906
0.894949
0.0303186
-0.0332008
-0.753744
0.756627
0.0356414
-0.0381482
-0.641107
0.643614
0.0402967
-0.0413087
-0.548951
0.549963
0.0401092
-0.0340247
-0.447518
0.441433
0.023362
-0.0101924
-0.263684
0.250514
0.00257599
-0.0454686
0.0428926
-0.0412377
0.0394619
0.00177576
-0.0168093
0.0260953
-0.316489
0.307203
-0.0327349
0.0348983
-0.456874
0.454711
-0.0344968
0.0328426
-0.54604
0.547694
-0.0306792
0.0286036
-0.639665
0.64174
-0.026201
0.0238389
-0.754139
0.756501
-0.0210287
0.0182854
-0.893827
0.89657
-0.0151013
0.0120789
-1.06328
1.0663
-0.00863489
0.00534363
-1.26875
1.27204
-0.00153325
-0.0021875
-1.51849
1.52221
0.00586304
-0.00953383
-1.51947
1.52314
0.012636
-0.0158251
-1.2711
1.27429
0.0185912
-0.0214894
-1.06652
1.06942
0.0239847
-0.0265515
-0.897786
0.900353
0.0287155
-0.0309179
-0.759092
0.761294
0.0328178
-0.0347948
-0.645788
0.647765
0.0362708
-0.0364564
-0.550508
0.550693
0.0340432
-0.0270602
-0.43482
0.427837
0.0174322
-0.00735154
-0.239042
0.228961
0.00186459
-0.0407304
0.0388658
-0.0379304
0.0365917
0.00133872
-0.0128537
0.0208392
-0.298572
0.290586
-0.027634
0.030591
-0.452119
0.449162
-0.0308231
0.0297253
-0.549102
0.5502
-0.0277496
0.0258569
-0.643752
0.645645
-0.0236961
0.0216054
-0.758711
0.760801
-0.0191472
0.0167141
-0.899096
0.901529
-0.0138225
0.010988
-1.06918
1.07202
-0.00767427
0.00448085
-1.27526
1.27845
-0.000783164
-0.00280433
-1.52585
1.52943
0.00633297
-0.00985503
-1.52675
1.53027
0.0128151
-0.0158169
-1.27743
1.28043
0.0183398
-0.020879
-1.07215
1.07468
0.0230008
-0.0251437
-0.902655
0.904798
0.0269748
-0.028878
-0.763309
0.765213
0.0305531
-0.0323108
-0.649626
0.651384
0.0331527
-0.0326168
-0.550535
0.549999
0.0293034
-0.0220405
-0.420663
0.4134
0.0136177
-0.00567147
-0.220052
0.212106
0.00144651
-0.0372384
0.0357919
-0.0354207
0.0343862
0.00103457
-0.0100603
0.0168165
-0.28324
0.276483
-0.0233487
0.0267655
-0.445949
0.442532
-0.0275916
0.0269324
-0.551059
0.551718
-0.0252203
0.023482
-0.647494
0.649232
-0.021468
0.0195044
-0.762837
0.764801
-0.0171895
0.014911
-0.903832
0.90611
-0.0122272
0.0095979
-1.07468
1.07731
-0.00650652
0.0034802
-1.28152
1.28455
7.65449e-05
-0.00355548
-1.53294
1.53642
0.0069615
-0.0103023
-1.53372
1.53706
0.0130397
-0.0157471
-1.28332
1.28602
0.0179906
-0.0202354
-1.07709
1.07934
0.022121
-0.0240317
-0.906823
0.908734
0.0256612
-0.0273502
-0.766987
0.768676
0.0288181
-0.0302318
-0.652981
0.654394
0.0305754
-0.0293349
-0.549123
0.547883
0.0254345
-0.0182925
-0.406177
0.399035
0.0109908
-0.00454689
-0.204983
0.19854
0.0011647
-0.0345043
0.0333396
-0.0334771
0.0326686
0.000808562
-0.00798805
0.0136733
-0.270293
0.264608
-0.0197252
0.0233427
-0.439007
0.43539
-0.0246427
0.02422
-0.55229
0.552713
-0.0227552
0.0211121
-0.650969
0.652612
-0.0191904
0.0173282
-0.766718
0.76858
-0.0151403
0.0129896
-0.908254
0.910405
-0.0104513
0.00795924
-1.07979
1.08228
-0.00502848
0.00216134
-1.28745
1.29031
0.00119578
-0.00446383
-1.53979
1.54306
0.0076452
-0.0107385
-1.54029
1.54338
0.0132488
-0.0157043
-1.28862
1.29108
0.017717
-0.0197099
-1.08146
1.08345
0.0213741
-0.0230653
-0.910531
0.912222
0.0245194
-0.026041
-0.770264
0.771786
0.0273493
-0.0284289
-0.655632
0.656711
0.0284269
-0.0265578
-0.546337
0.544468
0.0223034
-0.0154787
-0.39205
0.385225
0.0091212
-0.0037577
-0.192688
0.187324
0.000966486
-0.0322879
0.0313214
-0.0319583
0.031325
0.000633284
-0.00638348
0.0111495
-0.259411
0.254645
-0.0166132
0.0202453
-0.431765
0.428133
-0.0219016
0.0217447
-0.553045
0.553201
-0.0205615
0.0190126
-0.654259
0.655807
-0.0171709
0.0153587
-0.770415
0.772228
-0.0132102
0.0110927
-0.912458
0.914576
-0.00860563
0.0061877
-1.08465
1.08707
-0.00337419
0.000649453
-1.29305
1.29578
0.00251107
-0.00556238
-1.54617
1.54923
0.0085054
-0.0113438
-1.54635
1.54919
0.0136386
-0.0158824
-1.29347
1.29571
0.0177265
-0.0195541
-1.0854
1.08722
0.0210703
-0.0225925
-0.913831
0.915353
0.0238829
-0.0252136
-0.773198
0.774529
0.0263575
-0.0270239
-0.657566
0.658232
0.0266604
-0.0242551
-0.542353
0.539948
0.0197968
-0.0133612
-0.378605
0.372169
0.00776755
-0.00319468
-0.182397
0.177824
0.000826413
-0.0304385
0.0296121
-0.0307737
0.0302834
0.000490217
-0.00508549
0.00905511
-0.250308
0.246339
-0.0138777
0.0173549
-0.424596
0.421119
-0.0191886
0.0192204
-0.553307
0.553275
-0.0182313
0.0167255
-0.657389
0.658895
-0.0149224
0.0131534
-0.774006
0.775775
-0.0110707
0.0090319
-0.916566
0.918604
-0.00664359
0.00432242
-1.08935
1.09167
-0.00161711
-0.00100155
-1.29838
1.301
0.00403116
-0.00693174
-1.55216
1.55506
0.00970142
-0.0123377
-1.55192
1.55456
0.014427
-0.0164235
-1.29787
1.29987
0.018031
-0.019599
-1.08896
1.09053
0.020891
-0.0221944
-0.916793
0.918097
0.023323
-0.0245132
-0.775769
0.776959
0.0254983
-0.0258349
-0.658696
0.659032
0.0251089
-0.022304
-0.537364
0.534559
0.0177792
-0.0117522
-0.365963
0.359936
0.00676969
-0.00278427
-0.173582
0.169597
0.000724348
-0.0288507
0.0281264
-0.0298627
0.0294933
0.00036939
-0.00399209
0.00725729
-0.24275
0.239485
-0.0114284
0.0146549
-0.417796
0.41457
-0.0165652
0.0167694
-0.553234
0.553029
-0.0158722
0.0144465
-0.660442
0.661868
-0.0126498
0.0108828
-0.777511
0.779278
-0.00881084
0.00679358
-0.920503
0.92252
-0.00444081
0.00216511
-1.09386
1.09614
0.000467758
-0.0029864
-1.3035
1.30602
0.00586036
-0.0085723
-1.55783
1.56054
0.0111278
-0.0135301
-1.55708
1.55949
0.0154155
-0.017206
-1.3018
1.30359
0.0186307
-0.020001
-1.09203
1.0934
0.0211201
-0.0222478
-0.919323
0.92045
0.0232192
-0.0242294
-0.778049
0.77906
0.0249653
-0.0250238
-0.659237
0.659296
0.0239282
-0.0207693
-0.531603
0.528444
0.0162224
-0.010561
-0.35412
0.348458
0.00605338
-0.00249855
-0.16586
0.162305
0.000656658
-0.0274496
0.026793
-0.0291858
0.0289257
0.000260063
-0.00302244
0.00564388
-0.236568
0.233947
-0.00914991
0.0120261
-0.41155
0.408674
-0.0138928
0.0142166
-0.552834
0.55251
-0.0134238
0.0121003
-0.663319
0.664642
-0.010325
0.00853631
-0.781023
0.782812
-0.00642054
0.00436656
-0.924438
0.926492
-0.00199663
-0.00026423
-1.0983
1.10056
0.00284536
-0.00528645
-1.30842
1.31086
0.00804321
-0.0106148
-1.56313
1.5657
0.012993
-0.0151675
-1.56176
1.56393
0.0168257
-0.0183607
-1.3053
1.30683
0.0195771
-0.0207552
-1.09471
1.09589
0.0217161
-0.0226766
-0.92153
0.92249
0.0234867
-0.0242836
-0.779981
0.780778
0.0247362
-0.0245196
-0.659184
0.658968
0.0230392
-0.0195713
-0.525161
0.521694
0.015037
-0.00969
-0.342994
0.337647
0.00554562
-0.0023026
-0.158942
0.155699
0.000612444
-0.0261749
0.0255625
-0.0287235
0.028568
0.000155472
-0.00211284
0.00412206
-0.231657
0.229648
-0.00695177
0.00939914
-0.406054
0.403606
-0.0110895
0.0114098
-0.552282
0.551962
-0.0106258
0.00931347
-0.666045
0.667358
-0.00750989
0.00569189
-0.784557
0.786375
-0.00356001
0.0015055
-0.928406
0.93046
0.000853461
-0.00309459
-1.10269
1.10493
0.0056387
-0.00802896
-1.31319
1.31558
0.0106895
-0.0131149
-1.56816
1.57058
0.0153049
-0.01726
-1.56599
1.56795
0.0187055
-0.0199952
-1.3083
1.30959
0.0209686
-0.0218642
-1.09698
1.09787
0.0225721
-0.0232762
-0.923354
0.924058
0.0238913
-0.0245254
-0.781487
0.782121
0.0247032
-0.0241962
-0.658531
0.658024
0.0223668
-0.0186553
-0.518153
0.514441
0.0141522
-0.00906391
-0.332484
0.327396
0.00519348
-0.00217295
-0.152607
0.149587
0.000585185
-0.0249816
0.0243964
-0.0284696
0.0284203
4.92732e-05
-0.00120978
0.00261156
-0.227963
0.226561
-0.00474523
0.00670753
-0.40145
0.399488
-0.00814674
0.00841642
-0.551796
0.551526
-0.0076286
0.00630901
-0.668789
0.670108
-0.00444291
0.00255845
-0.788153
0.790037
-0.000356872
-0.00175282
-0.932372
0.934482
0.00416634
-0.0064456
-1.10705
1.10933
0.00900414
-0.0113605
-1.31786
1.32022
0.0139145
-0.0161711
-1.57285
1.57511
0.0181412
-0.0198337
-1.56976
1.57145
0.0210332
-0.022058
-1.31079
1.31181
0.0227979
-0.0234393
-1.09868
1.09932
0.0239165
-0.0243801
-0.924702
0.925166
0.0248016
-0.0252365
-0.782662
0.783097
0.0251152
-0.0242757
-0.657237
0.656397
0.0220834
-0.0181005
-0.510674
0.506691
0.0135882
-0.00867788
-0.322464
0.317553
0.00499344
-0.00211245
-0.146681
0.1438
0.000578561
-0.0238355
0.0232569
-0.0284269
0.0284866
-5.97026e-05
-0.000272358
0.00105041
-0.225482
0.224704
-0.00244509
0.00384081
-0.397861
0.396465
-0.00491874
0.00507206
-0.551467
0.551314
-0.0042768
0.00296014
-0.671552
0.672869
-0.00106222
-0.000903505
-0.79187
0.793836
0.00323376
-0.00547179
-0.936472
0.93871
0.00801134
-0.0103707
-1.11151
1.11387
0.0129679
-0.0153105
-1.32246
1.32481
0.0178036
-0.0199462
-1.57724
1.57938
0.0217418
-0.0231855
-1.57299
1.57444
0.024126
-0.024854
-1.31275
1.31347
0.025318
-0.0256718
-1.0999
1.10025
0.0258886
-0.0260791
-0.925563
0.925753
0.0262638
-0.0263695
-0.783245
0.783351
0.0259631
-0.02465
-0.655216
0.653903
0.0220442
-0.0177945
-0.502685
0.498435
0.0132645
-0.00847669
-0.312793
0.308005
0.00490858
-0.00210081
-0.141009
0.138202
0.000584275
-0.0226991
0.0221148
-0.0286122
0.0288051
-0.000192859
0.000700662
-0.000604283
-0.224246
0.224149
8.35676e-06
0.000735343
-0.395443
0.394699
-0.00131604
0.00121316
-0.551478
0.551581
-0.000280186
-0.0011459
-0.674384
0.67581
0.00316098
-0.00525193
-0.795759
0.79785
0.00771172
-0.0100475
-0.9408
0.943136
0.0126702
-0.0150908
-1.11608
1.1185
0.0177379
-0.0200966
-1.32704
1.3294
0.0225426
-0.0245671
-1.58139
1.58342
0.026149
-0.0273127
-1.57572
1.57688
0.027959
-0.0283154
-1.31407
1.31442
0.0284403
-0.0284295
-1.10049
1.10048
0.0283349
-0.0282112
-0.925857
0.925733
0.0281294
-0.0279044
-0.783101
0.782876
0.0271872
-0.0253544
-0.652306
0.650473
0.0223682
-0.0178542
-0.494212
0.489698
0.0132533
-0.00849535
-0.303339
0.298581
0.00495863
-0.00214904
-0.135455
0.132645
0.000606962
-0.0215465
0.0209395
-0.0290651
0.0293965
-0.000331444
0.00180321
-0.0023633
-0.224359
0.224919
0.00264802
-0.00264678
-0.394364
0.394363
0.00267635
-0.00313978
-0.552128
0.552591
0.00428609
-0.00589574
-0.677515
0.679125
0.00810533
-0.0103644
-0.79989
0.802149
0.0129978
-0.0154897
-0.945303
0.947795
0.0182871
-0.0208537
-1.12079
1.12336
0.0236169
-0.0260152
-1.33164
1.33404
0.0283959
-0.0302347
-1.58527
1.5871
0.0315577
-0.0323744
-1.57783
1.57865
0.0326947
-0.0326727
-1.31464
1.31462
0.0324356
-0.0320336
-1.10032
1.09991
0.0315857
-0.0310945
-0.92546
0.924968
0.0307038
-0.0300624
-0.782234
0.781592
0.0289527
-0.0265877
-0.648466
0.6461
0.0231487
-0.0182852
-0.485215
0.480352
0.0135376
-0.0087197
-0.293923
0.289105
0.00513442
-0.00225256
-0.129874
0.126992
0.000645235
-0.020345
0.0196998
-0.0298059
0.0303101
-0.000504186
0.00304938
-0.00439742
-0.225886
0.227234
0.00561002
-0.00645077
-0.394778
0.395619
0.00720868
-0.00807516
-0.553574
0.55444
0.00944192
-0.0112171
-0.681029
0.682804
0.0136419
-0.0161444
-0.804362
0.806864
0.0190836
-0.0218543
-0.950164
0.952935
0.0249265
-0.0276982
-1.12582
1.12859
0.0306261
-0.0331051
-1.33631
1.33879
0.0354887
-0.037215
-1.58877
1.5905
0.0382975
-0.0387452
-1.57924
1.57968
0.0386825
-0.0382346
-1.31441
1.31396
0.0376026
-0.0367769
-1.09929
1.09847
0.0359543
-0.035042
-0.924246
0.923333
0.0342523
-0.0330558
-0.78045
0.779253
0.031409
-0.0283904
-0.643597
0.640578
0.0244247
-0.0191491
-0.475538
0.470263
0.0141709
-0.00917761
-0.28436
0.279367
0.00544586
-0.00241154
-0.124122
0.121088
0.000697543
-0.0190644
0.0183668
-0.0309067
0.0316396
-0.000732892
0.00459101
-0.00683512
-0.229033
0.231277
0.00910723
-0.0108613
-0.396883
0.398637
0.0124867
-0.0139305
-0.555996
0.55744
0.0157127
-0.0177922
-0.68495
0.687029
0.0205551
-0.0233852
-0.809323
0.812153
0.02669
-0.0297798
-0.955576
0.958666
0.0331679
-0.0361783
-1.13125
1.13426
0.0392937
-0.0418567
-1.34114
1.3437
0.0442053
-0.0457579
-1.59204
1.59359
0.046523
-0.0465373
-1.57986
1.57987
0.046017
-0.0450701
-1.31324
1.31229
0.0439625
-0.0426291
-1.09734
1.09601
0.0413653
-0.0399859
-0.9221
0.92072
0.038728
-0.036941
-0.777529
0.775742
0.0346608
-0.0309364
-0.637461
0.633736
0.0263861
-0.0205874
-0.465058
0.45926
0.0152426
-0.00991868
-0.274408
0.269084
0.00591685
-0.00263159
-0.118035
0.11475
0.000763094
-0.0176782
0.0169151
-0.0324608
0.0334847
-0.00102392
0.00647286
-0.00977497
-0.233995
0.237297
0.0132775
-0.0160762
-0.400975
0.403774
0.0186698
-0.0208176
-0.55976
0.561908
0.0231964
-0.0257517
-0.68961
0.692165
0.029023
-0.0322917
-0.814946
0.818215
0.0360499
-0.0395242
-0.961618
0.965092
0.0432968
-0.0466053
-1.13716
1.14047
0.0499549
-0.0526072
-1.34611
1.34876
0.0548758
-0.0561686
-1.59487
1.59616
0.0565239
-0.0560156
-1.57955
1.57904
0.054977
-0.0534233
-1.31099
1.30943
0.051785
-0.0498768
-1.09429
1.09238
0.0481033
-0.0461897
-0.918925
0.917011
0.0444229
-0.0420249
-0.773428
0.77103
0.0390658
-0.0345418
-0.629948
0.625424
0.0292731
-0.0227752
-0.453521
0.447023
0.0168862
-0.0110298
-0.263742
0.257885
0.00659359
-0.00292821
-0.111403
0.107738
0.00084441
-0.0161589
0.0153145
-0.0345842
0.035995
-0.00141089
0.00886609
-0.0134424
-0.241049
0.245625
0.0183594
-0.0223216
-0.40732
0.411282
0.0259778
-0.0289306
-0.565172
0.568125
0.0320472
-0.0352257
-0.695332
0.69851
0.0391778
-0.0430418
-0.821455
0.825319
0.0474187
-0.0514165
-0.968454
0.972451
0.0556962
-0.0593769
-1.14367
1.14735
0.0629988
-0.0657456
-1.35124
1.35399
0.0679125
-0.0688964
-1.59715
1.59814
0.0687824
-0.0676521
-1.57813
1.577
0.0659934
-0.063745
-1.30741
1.30517
0.0614775
-0.058916
-1.08997
1.08741
0.0565901
-0.0541131
-0.914593
0.912115
0.0517359
-0.0486703
-0.768114
0.765048
0.0449311
-0.0394516
-0.620835
0.615356
0.033308
-0.0259051
-0.44058
0.433177
0.0192385
-0.0125811
-0.251936
0.245279
0.00750779
-0.00331363
-0.103958
0.0997637
0.000945601
-0.0144735
0.0135279
-0.0374533
0.0394169
-0.00196355
0.012128
-0.0183093
-0.250595
0.256777
0.0248995
-0.030206
-0.416311
0.421617
0.035102
-0.0390358
-0.572514
0.576448
0.0430746
-0.047066
-0.702412
0.706404
0.0519162
-0.0565516
-0.829161
0.833796
0.0617121
-0.066343
-0.976371
0.981002
0.0711959
-0.0752499
-1.15091
1.15497
0.0790913
-0.0818393
-1.3565
1.35925
0.0837772
-0.0843113
-1.59873
1.59926
0.0835599
-0.0816325
-1.57536
1.57343
0.0792247
-0.076176
-1.30238
1.29934
0.0732341
-0.0699849
-1.08421
1.08096
0.067054
-0.0639268
-0.908975
0.905848
0.0608629
-0.0570191
-0.761424
0.75758
0.0523662
-0.0457805
-0.609829
0.603243
0.0385826
-0.030005
-0.425819
0.417242
0.0222689
-0.0145155
-0.238457
0.230704
0.00861074
-0.00376289
-0.0954176
0.0905698
0.00105923
-0.0125855
0.0115263
-0.0413734
0.0441928
-0.00281941
0.0168844
-0.0251704
-0.263302
0.271588
0.0338033
-0.0407307
-0.428566
0.435493
0.0471454
-0.0523436
-0.582249
0.587447
0.0576696
-0.0628218
-0.711258
0.71641
0.0688102
-0.0743621
-0.838392
0.843944
0.08038
-0.0856316
-0.985542
0.990794
0.09096
-0.095243
-1.15882
1.16311
0.0990825
-0.101589
-1.36164
1.36414
0.102981
-0.10277
-1.59927
1.59906
0.101108
-0.0981564
-1.57089
1.56794
0.094837
-0.0908325
-1.29566
1.29165
0.0870681
-0.0830116
-1.07695
1.07289
0.0794578
-0.0757165
-0.901861
0.89812
0.071985
-0.0672186
-0.753028
0.748262
0.0615526
-0.0536586
-0.596605
0.588711
0.045122
-0.0349908
-0.408671
0.398539
0.0258441
-0.0167057
-0.222748
0.213609
0.00981128
-0.00423244
-0.0855662
0.0799874
0.00117293
-0.0104762
0.00930325
-0.0468929
0.0511674
-0.00427455
0.024357
-0.0355414
-0.280257
0.291442
0.0468518
-0.0559636
-0.445132
0.454244
0.0642657
-0.0710045
-0.595048
0.601787
0.0780052
-0.0846441
-0.722462
0.729101
0.0919216
-0.0983759
-0.849425
0.855879
0.105105
-0.110751
-0.995848
1.00149
0.116231
-0.120385
-1.167
1.17116
0.123786
-0.125623
-1.36605
1.36789
0.125986
-0.124572
-1.59805
1.59664
0.121617
-0.117325
-1.56422
1.55993
0.112862
-0.107725
-1.28696
1.28183
0.103056
-0.0981507
-1.068
1.06309
0.0939554
-0.0895446
-0.893222
0.888811
0.085156
-0.0793781
-0.742627
0.736849
0.0724869
-0.0629329
-0.580636
0.571082
0.0526707
-0.0405768
-0.388364
0.37627
0.0297021
-0.018948
-0.204326
0.193572
0.0109682
-0.00465066
-0.0743171
0.0679996
0.00126252
-0.00815726
0.00689474
-0.0550781
0.0623875
-0.00730933
0.0376419
-0.0531873
-0.303595
0.319141
0.0683038
-0.0802996
-0.467526
0.479522
0.0905669
-0.098762
-0.61145
0.619645
0.107416
-0.115395
-0.736354
0.744333
0.123637
-0.130521
-0.862027
0.868911
0.137359
-0.142813
-1.00667
1.01213
0.14781
-0.151258
-1.17462
1.17807
0.153646
-0.154315
-1.36884
1.36951
0.153203
-0.150247
-1.5942
1.59124
0.145741
-0.139895
-1.55471
1.54886
0.134128
-0.127694
-1.27591
1.26948
0.12195
-0.116014
-1.05725
1.05132
0.11099
-0.105711
-0.882954
0.877675
0.100501
-0.0933604
-0.729921
0.72278
0.0848153
-0.0731054
-0.561019
0.549309
0.0607214
-0.0463471
-0.36406
0.349685
0.0335525
-0.0210848
-0.182886
0.170418
0.0119898
-0.00497051
-0.0617828
0.0547635
0.00130369
-0.00568878
0.00438509
-0.0692332
0.0732483
-0.00401503
0.0284211
-0.0419396
-0.337278
0.350797
0.0554268
-0.0663296
-0.496929
0.507832
0.0761214
-0.0853442
-0.631183
0.640406
0.0958206
-0.105254
-0.751745
0.761178
0.115666
-0.124827
-0.874844
0.884004
0.134447
-0.142849
-1.01665
1.02505
0.151427
-0.158523
-1.18043
1.18752
0.16519
-0.169989
-1.36899
1.37379
0.173417
-0.174421
-1.58705
1.58805
0.172892
-0.169315
-1.5419
1.53832
0.164694
-0.158674
-1.26214
1.25612
0.152875
-0.145917
-1.04432
1.03737
0.139739
-0.132784
-0.870641
0.863686
0.125702
-0.115771
-0.713857
0.703926
0.103427
-0.0871024
-0.536774
0.52045
0.0703977
-0.0514635
-0.334978
0.316044
0.0355749
-0.0211414
-0.158345
0.143911
0.01131
-0.00436047
-0.0483589
0.0414094
0.00100251
-0.00317364
0.00217113
-0.0805634
0.0785092
0.00205414
0.0069982
-0.0155533
-0.367067
0.375622
0.0257012
-0.0335585
-0.523271
0.531128
0.0414156
-0.0491721
-0.652148
0.659904
0.0586639
-0.0674403
-0.770156
0.778932
0.0767627
-0.0852105
-0.892604
0.901051
0.0941014
-0.101563
-1.03319
1.04065
0.109379
-0.115481
-1.19444
1.20054
0.121144
-0.124871
-1.37825
1.38198
0.126837
-0.126446
-1.58809
1.5877
0.123465
-0.118349
-1.53373
1.52861
0.112149
-0.104501
-1.24933
1.24169
0.0972255
-0.0890263
-1.02937
1.02117
0.0814542
-0.073131
-0.853648
0.845325
0.0655538
-0.0569855
-0.689988
0.68142
0.0475773
-0.0361576
-0.502047
0.490627
0.0256716
-0.0159295
-0.296714
0.286972
0.00932004
-0.00457215
-0.130026
0.125278
0.0019134
-0.000486271
-0.0347904
0.0333633
-1.3928e-05
-0.000891731
0.000905659
-0.0817536
0.0788739
0.00287969
-0.0016386
-0.00313468
-0.387115
0.391888
0.00974402
-0.0155758
-0.542764
0.548596
0.0215598
-0.0282337
-0.669911
0.676585
0.0364635
-0.0440673
-0.786767
0.794371
0.0523736
-0.059784
-0.908756
0.916167
0.0673824
-0.0741427
-1.04798
1.05474
0.0810173
-0.08646
-1.20623
1.21168
0.0910272
-0.0937335
-1.385
1.3877
0.094864
-0.093523
-1.58642
1.58508
0.0896522
-0.0837189
-1.52259
1.51665
0.0769596
-0.0690049
-1.23359
1.22563
0.0612056
-0.0528896
-1.01229
1.00398
0.0453411
-0.0370721
-0.835997
0.827728
0.0296418
-0.0215125
-0.668758
0.660629
0.0137217
-0.00550729
-0.477045
0.46883
3.55221e-05
0.00311161
-0.276179
0.273032
-0.00404856
0.00366224
-0.119384
0.119771
-0.00268071
0.00140962
-0.0313344
0.0326054
-0.000510198
-0.000418391
0.000928589
-0.0804774
0.0777131
0.00276432
-0.00517895
0.00285009
-0.400338
0.402667
0.00137788
-0.00582644
-0.557492
0.561941
0.0110292
-0.0167021
-0.684556
0.690228
0.0238241
-0.0304345
-0.801382
0.807992
0.0376419
-0.044107
-0.923105
0.929571
0.0511164
-0.0569377
-1.0611
1.06692
0.0630248
-0.0673975
-1.21673
1.2211
0.0713264
-0.0735643
-1.39018
1.39241
0.0741851
-0.0724615
-1.58337
1.58165
0.068903
-0.0635903
-1.5104
1.50509
0.0575245
-0.0500126
-1.21774
1.21023
0.0428241
-0.034787
-0.9953
0.987262
0.0268499
-0.017978
-0.818043
0.809171
0.00946215
-0.0010159
-0.648457
0.64001
-0.00555723
0.010661
-0.458663
0.453559
-0.0125658
0.0119437
-0.267143
0.267765
-0.0101886
0.00738893
-0.118913
0.121712
-0.00487312
0.00232809
-0.0330867
0.0356317
-0.000743868
-0.000912995
0.00165686
-0.0790023
0.0765946
0.00240768
-0.00624772
0.00541694
-0.409233
0.410063
-0.00221843
-0.00118032
-0.569454
0.572853
0.00548788
-0.0107314
-0.697026
0.702269
0.0168315
-0.0227637
-0.813977
0.819909
0.029145
-0.0348812
-0.93566
0.941397
0.0410029
-0.0462663
-1.07264
1.0779
0.0515055
-0.0556052
-1.22536
1.22946
0.0590817
-0.0610945
-1.39437
1.39638
0.0617305
-0.0603458
-1.58002
1.57863
0.0574149
-0.0527581
-1.49955
1.49489
0.0474912
-0.0408705
-1.20303
1.19641
0.0341268
-0.02601
-0.978746
0.970629
0.0179139
-0.0085765
-0.798814
0.789477
0.000127941
0.00797185
-0.628709
0.620609
-0.0134622
0.0167328
-0.44574
0.44247
-0.0172235
0.0151086
-0.264687
0.266801
-0.012199
0.00869102
-0.122984
0.126492
-0.00559402
0.00260262
-0.0373559
0.0403473
-0.000808688
-0.00201832
0.002827
-0.0776885
0.0756465
0.00204197
-0.00612414
0.00574913
-0.415383
0.415758
-0.00383002
0.000981471
-0.578867
0.581716
0.00330187
-0.00790222
-0.707828
0.712428
0.0132796
-0.0185487
-0.825126
0.830395
0.0243327
-0.029543
-0.946836
0.952046
0.0352171
-0.0399019
-1.08291
1.0876
0.0447033
-0.0485093
-1.23331
1.23712
0.0517654
-0.0537393
-1.39825
1.40022
0.0545177
-0.0538388
-1.5774
1.57673
0.0513359
-0.0473317
-1.49009
1.48608
0.0424494
-0.036137
-1.18972
1.1834
0.0298016
-0.0217042
-0.962182
0.954085
0.0137671
-0.0049904
-0.779405
0.770628
-0.00270253
0.00970426
-0.610901
0.603899
-0.0141285
0.0167395
-0.43637
0.433759
-0.0167386
0.0146151
-0.26506
0.267183
-0.0118257
0.00837462
-0.128381
0.131832
-0.00530534
0.0024743
-0.042288
0.045119
-0.00076288
-0.00325052
0.0040134
-0.0767322
0.0751506
0.00158164
-0.00525437
0.00519944
-0.419975
0.42003
-0.00358379
0.00138983
-0.587226
0.58942
0.00265442
-0.00690278
-0.717406
0.721654
0.0120861
-0.0167151
-0.835329
0.839958
0.0218728
-0.0265454
-0.957253
0.961925
0.0319715
-0.036286
-1.09233
1.09664
0.0406581
-0.0443911
-1.2408
1.24453
0.0479805
-0.0500241
-1.40232
1.40436
0.0511406
-0.0506317
-1.5758
1.57529
0.0486647
-0.0446359
-1.48191
1.47788
0.0400791
-0.0340938
-1.17687
1.17088
0.0278423
-0.0203281
-0.945892
0.938377
0.0129327
-0.00485272
-0.761324
0.753244
-0.00166199
0.00779338
-0.595587
0.589456
-0.0116329
0.0135089
-0.428777
0.426901
-0.0136699
0.012191
-0.265994
0.267473
-0.00988181
0.00697166
-0.13347
0.13638
-0.00440574
0.00207123
-0.0467185
0.049053
-0.000651792
-0.00434338
0.00499517
-0.0762804
0.0750512
0.00122921
-0.00418123
0.00426218
-0.423619
0.423538
-0.00275955
0.000691863
-0.594548
0.596616
0.003119
-0.00698097
-0.726135
0.729997
0.0114864
-0.0159719
-0.844577
0.849063
0.0207677
-0.025588
-0.966418
0.971238
0.0303106
-0.0344831
-1.10107
1.10525
0.0390627
-0.0426727
-1.24819
1.2518
0.0459372
-0.0485177
-1.4064
1.40898
0.0499194
-0.0497255
-1.57488
1.57469
0.047846
-0.0442214
-1.47396
1.47034
0.0398382
-0.0340951
-1.1645
1.15876
0.0282976
-0.0214097
-0.930735
0.923847
0.0148631
-0.00802941
-0.745175
0.738342
0.00221794
0.00293917
-0.582386
0.577229
-0.00624291
0.00825619
-0.422478
0.420464
-0.00876563
0.00786192
-0.266224
0.267127
-0.00641761
0.00450579
-0.137152
0.139064
-0.00287618
0.00137736
-0.05005
0.0515488
-0.000458275
-0.00520165
0.00565992
-0.0763629
0.0753386
0.00102428
-0.00288834
0.00273212
-0.426859
0.427015
-0.00141672
-0.000651299
-0.601254
0.603322
0.00409907
-0.0078048
-0.7343
0.738006
0.0121135
-0.0161869
-0.853371
0.857444
0.0210877
-0.0251222
-0.975489
0.979524
0.0298408
-0.0338938
-1.1096
1.11365
0.0384403
-0.0423244
-1.25544
1.25933
0.0459727
-0.0484073
-1.41137
1.41381
0.0501505
-0.0502659
-1.57439
1.57451
0.0488712
-0.0453833
-1.4665
1.46301
0.0413123
-0.0359482
-1.15305
1.14769
0.0306689
-0.0244288
-0.916821
0.910581
0.0187713
-0.012745
-0.731334
0.725308
0.00771852
-0.00309135
-0.57127
0.566643
-0.000129555
0.00212007
-0.416147
0.414157
-0.00305793
0.00302831
-0.265249
0.265279
-0.00265176
0.00186293
-0.138883
0.139672
-0.00119001
0.000610181
-0.0517061
0.0522859
-0.000220533
-0.0056847
0.00590524
-0.0767344
0.0760246
0.000709833
-0.00171682
0.00109362
-0.430177
0.430801
4.25819e-07
-0.00215169
-0.607146
0.609298
0.00523915
-0.00878265
-0.74187
0.745413
0.0128757
-0.017043
-0.861394
0.865562
0.0213136
-0.0255168
-0.983776
0.987979
0.0302328
-0.0341308
-1.11816
1.12205
0.0388453
-0.0427582
-1.26306
1.26697
0.0465187
-0.049494
-1.41667
1.41965
0.0516794
-0.0519822
-1.57462
1.57492
0.0506925
-0.0477865
-1.45962
1.45671
0.0442022
-0.0392336
-1.14218
1.13721
0.0343381
-0.0289069
-0.904334
0.898903
0.023524
-0.0182813
-0.719053
0.71381
0.0137316
-0.00929944
-0.561464
0.557031
0.00615332
-0.00364176
-0.409801
0.407289
0.00219369
-0.00127574
-0.26289
0.261972
0.000757954
-0.000383933
-0.138465
0.13809
6.57022e-05
0.000119963
-0.0517248
0.0515391
-0.000115009
-0.00572317
0.00583818
-0.0775222
0.0769746
0.000547596
-0.000710729
0.000135626
-0.433732
0.434307
0.001495
-0.00345902
-0.613042
0.615006
0.00667727
-0.0100455
-0.748849
0.752217
0.0139317
-0.017668
-0.86941
0.873147
0.0220514
-0.0259583
-0.992194
0.996101
0.0306623
-0.0350457
-1.12643
1.13082
0.0394661
-0.0437503
-1.27097
1.27525
0.0479592
-0.0510192
-1.42253
1.42559
0.0535241
-0.0545072
-1.5754
1.57638
0.0535771
-0.0512188
-1.45362
1.45126
0.0478301
-0.0433705
-1.13226
1.1278
0.0390041
-0.0339381
-0.893116
0.88805
0.0291494
-0.0242643
-0.70807
0.703185
0.0200062
-0.015644
-0.551989
0.547627
0.0122802
-0.00939311
-0.40302
0.400133
0.00717087
-0.0053506
-0.258862
0.257042
0.00382698
-0.00233897
-0.13599
0.134502
0.00119702
-0.000343906
-0.0502426
0.0493894
-3.9589e-06
-0.00542757
0.00543153
-0.0785962
0.078229
0.000367155
0.000393174
-0.00117427
-0.437449
0.438231
0.00267111
-0.00490372
-0.618476
0.620709
0.00801653
-0.011184
-0.75548
0.758648
0.0151019
-0.0186619
-0.876865
0.880425
0.0228832
-0.026927
-1.00049
1.00454
0.0315788
-0.0359693
-1.13508
1.13947
0.0406512
-0.0449914
-1.27948
1.28382
0.0493887
-0.0531684
-1.42893
1.43271
0.0560605
-0.0572784
-1.57727
1.57849
0.0569701
-0.0548996
-1.44876
1.44669
0.0520659
-0.0481793
-1.12327
1.11939
0.0439629
-0.039255
-0.88273
0.878022
0.0347925
-0.0300388
-0.697912
0.693158
0.0260063
-0.0216029
-0.542952
0.538549
0.0180774
-0.0145699
-0.395636
0.392128
0.0117583
-0.00900165
-0.253111
0.250354
0.00647734
-0.00405198
-0.131466
0.129041
0.00220755
-0.000799327
-0.0475135
0.0461053
0.000128725
-0.00492081
0.00479209
-0.0799076
0.0796668
0.000240813
0.00127276