/*--------------------------------*- C++ -*----------------------------------*\
  =========                 |
  \\      /  F ield         | OpenFOAM: The Open Source CFD Toolbox
   \\    /   O peration     | Website:  https://openfoam.org
    \\  /    A nd           | Version:  6
     \\/     M anipulation  |
\*---------------------------------------------------------------------------*/
FoamFile
{
    version     2.0;
    format      ascii;
    class       surfaceScalarField;
    location    "90.9";
    object      phi;
}
// * * * * * * * * * * * * * * * * * * * * * * * * * * * * * * * * * * * * * //

dimensions      [0 3 -1 0 0 0 0];

internalField   nonuniform List<scalar> 
17370
(
-0.0900001
0.0898489
0.289162
-0.0714622
0.0537521
0.364486
-0.0381188
0.0276894
0.426598
-0.0196372
0.0146039
0.504285
-0.0107616
0.008271
0.601893
-0.00627116
0.00489459
0.720434
-0.00373066
0.00289013
0.863747
-0.00214873
0.00158971
1.03601
-0.00107322
0.000660921
1.24292
-0.00025397
-0.000142825
1.49159
0.000522386
-0.000932239
1.4916
0.00133011
-0.00181742
1.24318
0.00234186
-0.00304533
1.03634
0.00385896
-0.00500359
0.864051
0.00636983
-0.00836274
0.72105
0.010848
-0.0146839
0.60305
0.0197105
-0.0277545
0.507483
0.0381759
-0.0538002
0.431792
0.0715016
-0.0898755
0.365149
0.0900163
0.198995
-0.128138
0.0882289
0.0399086
-0.3646
0.353381
-0.0746695
0.0858883
-0.446477
0.454322
-0.084384
0.0765388
-0.521191
0.529904
-0.0684407
0.0597281
-0.61279
0.621571
-0.051538
0.042757
-0.726896
0.734167
-0.0352949
0.0280238
-0.867476
0.872594
-0.0224214
0.0173039
-1.03848
1.04193
-0.0134923
0.0100407
-1.2446
1.24703
-0.0074284
0.00499379
-1.49262
1.4946
-0.00304367
0.00106086
-1.49251
1.49423
0.00061154
-0.00233478
-1.24397
1.24586
0.00424142
-0.00612718
-1.03751
1.04003
0.0084803
-0.0110017
-0.866099
0.869826
0.0143482
-0.0180748
-0.724389
0.729932
0.0231147
-0.0286574
-0.608697
0.616109
0.0358708
-0.0432836
-0.514895
0.523039
0.0520125
-0.0601555
-0.439855
0.447913
0.0688171
-0.0768746
-0.375294
0.376737
0.0846696
-0.0861129
-0.257329
0.222474
0.0748217
-0.0399672
-0.0685234
0.0586993
0.00982412
-0.0518004
0.0583799
-0.374132
0.367552
-0.0574608
0.0537059
-0.453598
0.457353
-0.0486134
0.0446583
-0.527951
0.531906
-0.0408154
0.0371735
-0.621569
0.625211
-0.0330681
0.0289888
-0.735355
0.739434
-0.0244142
0.0202508
-0.874346
0.87851
-0.0159004
0.0122024
-1.0435
1.04719
-0.00846051
0.00528414
-1.24857
1.25174
-0.00195303
-0.00112223
-1.49666
1.49974
0.00417103
-0.00743839
-1.4972
1.50047
0.0105185
-0.0141193
-1.25007
1.25367
0.0176663
-0.0218455
-1.04592
1.0501
0.0258663
-0.0303028
-0.877754
0.882191
0.0342707
-0.038265
-0.739894
0.743888
0.0418124
-0.0455577
-0.626768
0.630513
0.0494289
-0.0544413
-0.534805
0.539818
0.0581077
-0.0589161
-0.457469
0.458278
0.0522055
-0.0319967
-0.335742
0.315534
0.00988994
-0.0683388
0.0584488
-0.0529509
0.0489583
0.00399264
-0.0331424
0.0436787
-0.358126
0.347589
-0.0473696
0.0467369
-0.459295
0.459928
-0.043676
0.0403188
-0.535813
0.53917
-0.0365411
0.0332322
-0.628541
0.63185
-0.0297886
0.0267512
-0.742662
0.745699
-0.0234859
0.0203731
-0.882033
0.885146
-0.016836
0.0134505
-1.05079
1.05417
-0.00965084
0.00610702
-1.25518
1.25872
-0.00213296
-0.00166752
-1.50325
1.50705
0.00543508
-0.00930986
-1.50413
1.50801
0.0127165
-0.0163201
-1.25741
1.26101
0.0194961
-0.0227943
-1.05391
1.0572
0.0257043
-0.0287692
-0.885673
0.888738
0.0316421
-0.0349215
-0.747142
0.750421
0.0380914
-0.041728
-0.634292
0.637929
0.0449644
-0.0478871
-0.544122
0.547045
0.0483737
-0.0444772
-0.456556
0.45266
0.0336949
-0.0162322
-0.296157
0.278694
0.00407487
-0.052626
0.0485511
-0.045884
0.0433924
0.00249157
-0.022779
0.0331436
-0.336911
0.326547
-0.0389523
0.0399605
-0.459619
0.458611
-0.0387624
0.0364697
-0.541894
0.544187
-0.0337954
0.0311926
-0.634907
0.637509
-0.0281215
0.0252144
-0.748751
0.751658
-0.0219407
0.0189385
-0.888106
0.891109
-0.0156241
0.0125164
-1.05731
1.06042
-0.00898183
0.00556627
-1.26219
1.2656
-0.00159749
-0.00229006
-1.51093
1.51482
0.00613349
-0.00997003
-1.51189
1.51573
0.0132044
-0.0164823
-1.26444
1.26772
0.019316
-0.0223172
-1.06031
1.06331
0.0250502
-0.0280546
-0.891779
0.894783
0.0307377
-0.0335834
-0.753619
0.756465
0.0359956
-0.0384791
-0.640986
0.64347
0.0406088
-0.0415915
-0.54884
0.549822
0.0403571
-0.0342175
-0.447366
0.441226
0.0234903
-0.0102524
-0.263457
0.25022
0.00259332
-0.0453834
0.0427901
-0.0413219
0.0395598
0.00176205
-0.0167101
0.0259408
-0.316711
0.307481
-0.0325266
0.0346526
-0.457023
0.454897
-0.0342202
0.0325409
-0.546172
0.547852
-0.0303509
0.0282469
-0.639823
0.641927
-0.0258051
0.0233973
-0.754312
0.75672
-0.0205267
0.0177259
-0.894013
0.896814
-0.0144766
0.0113957
-1.06347
1.06656
-0.00789335
0.00455794
-1.26893
1.27227
-0.000717087
-0.00302082
-1.51861
1.52235
0.0067021
-0.0103734
-1.51945
1.52312
0.0134769
-0.0166518
-1.27096
1.27414
0.0193836
-0.022233
-1.06633
1.06918
0.0246879
-0.02721
-0.897581
0.900103
0.0293274
-0.0314779
-0.758903
0.761053
0.0333377
-0.0352815
-0.645613
0.647557
0.0367241
-0.0368638
-0.550326
0.550466
0.0343904
-0.0273193
-0.434537
0.427466
0.017599
-0.00742825
-0.238663
0.228493
0.00188644
-0.040605
0.0387186
-0.0380435
0.0367206
0.00132286
-0.0127386
0.0206559
-0.298912
0.290995
-0.0273767
0.0302777
-0.452354
0.449453
-0.0304648
0.029331
-0.549293
0.550427
-0.0273255
0.0253967
-0.643973
0.645902
-0.0231822
0.0210306
-0.75897
0.761122
-0.0184985
0.0159985
-0.8994
0.9019
-0.0130373
0.0101406
-1.06951
1.0724
-0.00676042
0.00350424
-1.27554
1.27879
0.000255729
-0.00389227
-1.52601
1.52964
0.00745759
-0.0110035
-1.52671
1.53026
0.0139681
-0.016938
-1.27726
1.28023
0.0193981
-0.0218595
-1.07191
1.07437
0.0239262
-0.0260197
-0.90237
0.904464
0.0278044
-0.0296493
-0.763022
0.764867
0.0312695
-0.0329751
-0.649363
0.651069
0.0337639
-0.0331667
-0.550237
0.54964
0.029768
-0.0223814
-0.420177
0.41279
0.0138341
-0.00576991
-0.219474
0.21141
0.00147426
-0.0370627
0.0355884
-0.0355669
0.0345505
0.00101637
-0.00992919
0.0166064
-0.283724
0.277047
-0.0230485
0.0263904
-0.446314
0.442972
-0.0271459
0.0264269
-0.551349
0.552068
-0.0246503
0.0228496
-0.647812
0.649613
-0.0207599
0.0187235
-0.76321
0.765246
-0.0163281
0.0139776
-0.904255
0.906605
-0.0112126
0.00850341
-1.07513
1.07784
-0.00532035
0.0022145
-1.28194
1.28504
0.00141422
-0.00493852
-1.53321
1.53673
0.00837462
-0.0117378
-1.53369
1.53706
0.0144831
-0.01716
-1.28308
1.28575
0.0193312
-0.0214804
-1.07675
1.07889
0.0232954
-0.0251475
-0.906416
0.908268
0.0267286
-0.02836
-0.766596
0.768227
0.0297775
-0.0311375
-0.652632
0.653992
0.0314287
-0.0300909
-0.54868
0.547342
0.0260625
-0.0187427
-0.405407
0.398088
0.0112728
-0.00467427
-0.204146
0.197547
0.00120058
-0.0342652
0.0330646
-0.0336605
0.0328725
0.00078794
-0.00784092
0.0134352
-0.270942
0.265347
-0.0193782
0.0229045
-0.43953
0.436004
-0.0241259
0.0236479
-0.552703
0.553181
-0.0221321
0.0204361
-0.651414
0.65311
-0.0184355
0.0164788
-0.767236
0.769193
-0.0141682
0.0118987
-0.908846
0.911116
-0.00922996
0.00662505
-1.08042
1.08303
-0.00357732
0.00060998
-1.28803
1.29099
0.00285167
-0.00620506
-1.54014
1.5435
0.00945025
-0.0125863
-1.54027
1.54341
0.0151124
-0.0175416
-1.28833
1.29076
0.0194889
-0.0214042
-1.08102
1.08294
0.0230166
-0.0246586
-0.910001
0.911643
0.0260558
-0.0274924
-0.76975
0.771187
0.0287087
-0.0296798
-0.655156
0.656127
0.0295937
-0.0275783
-0.545656
0.54364
0.0231343
-0.0160641
-0.390882
0.383812
0.00948427
-0.00392034
-0.191513
0.185949
0.00101191
-0.0319686
0.0309567
-0.0321835
0.0315735
0.000610019
-0.00622352
0.0108903
-0.260247
0.25558
-0.0162279
0.01974
-0.432488
0.428976
-0.0212715
0.0210117
-0.553591
0.553851
-0.0197201
0.0180786
-0.654831
0.656472
-0.0161274
0.0142134
-0.771117
0.773031
-0.0119536
0.009735
-0.91328
0.915499
-0.0071265
0.0045846
-1.08552
1.08807
-0.00161989
-0.00124863
-1.29386
1.29673
0.00456582
-0.00774759
-1.54673
1.54991
0.010797
-0.0137161
-1.5464
1.54931
0.0160464
-0.0182577
-1.29312
1.29533
0.0199992
-0.021691
-1.08485
1.08655
0.0231085
-0.0245502
-0.913163
0.914605
0.0257777
-0.027036
-0.772521
0.77378
0.0281092
-0.0286589
-0.656896
0.657446
0.028178
-0.0255851
-0.54133
0.538738
0.0208755
-0.0141141
-0.3769
0.370138
0.00822984
-0.00339877
-0.180786
0.175955
0.0008821
-0.0300178
0.0291357
-0.0310449
0.0305799
0.000465054
-0.00491547
0.00877968
-0.251343
0.247479
-0.0134666
0.0168147
-0.425558
0.42221
-0.0185148
0.0184359
-0.55407
0.554149
-0.0173283
0.015716
-0.65817
0.659783
-0.0137791
0.0118716
-0.774924
0.776832
-0.00962092
0.0074175
-0.917617
0.91982
-0.00483646
0.0023313
-1.0905
1.09301
0.000577253
-0.00337382
-1.2995
1.30229
0.00658064
-0.00962311
-1.55298
1.55602
0.0125049
-0.0152288
-1.55209
1.55481
0.0173732
-0.0193691
-1.29748
1.29948
0.0209046
-0.022375
-1.08826
1.08973
0.0236062
-0.024863
-0.915927
0.917183
0.025938
-0.0270349
-0.77494
0.776037
0.0278994
-0.0280812
-0.657798
0.65798
0.0271737
-0.0240794
-0.53589
0.532795
0.0191943
-0.0127267
-0.363537
0.35707
0.00736355
-0.00304527
-0.171409
0.167091
0.000795731
-0.0283041
0.0275084
-0.0301847
0.0298432
0.000341595
-0.00381341
0.00696949
-0.243996
0.24084
-0.0109926
0.0140654
-0.419021
0.415948
-0.0158056
0.015869
-0.554217
0.554154
-0.0148327
0.0132838
-0.661444
0.662993
-0.0113314
0.0093961
-0.778729
0.780664
-0.00711378
0.00488804
-0.921929
0.924155
-0.00229442
-0.000208028
-1.09541
1.09792
0.0030941
-0.00584773
-1.305
1.30776
0.00897552
-0.0119066
-1.55896
1.56189
0.014643
-0.0171856
-1.55739
1.55993
0.0191499
-0.0209323
-1.30142
1.3032
0.0222634
-0.0235173
-1.09126
1.09251
0.0245689
-0.0256487
-0.918317
0.919397
0.0265784
-0.0275139
-0.777024
0.77796
0.0281169
-0.0279968
-0.658012
0.657892
0.0266194
-0.0230574
-0.52947
0.525908
0.0180325
-0.0117962
-0.350738
0.344502
0.00679898
-0.00282192
-0.162969
0.158992
0.000743416
-0.0267456
0.0260021
-0.0295646
0.029334
0.000230573
-0.00284088
0.00535458
-0.23803
0.235516
-0.00871244
0.0114256
-0.413083
0.41037
-0.0130899
0.0132201
-0.554129
0.553999
-0.0122155
0.0106971
-0.664617
0.666135
-0.00870392
0.00670989
-0.782594
0.784588
-0.0043585
0.00207412
-0.926288
0.928573
0.00057403
-0.00311275
-1.10033
1.10287
0.00601813
-0.00876408
-1.31043
1.31318
0.0118467
-0.0146925
-1.56473
1.56757
0.0173033
-0.0196796
-1.56232
1.5647
0.021474
-0.0230483
-1.30493
1.30651
0.0241736
-0.0252061
-1.09384
1.09488
0.0260722
-0.0269652
-0.920347
0.92124
0.027737
-0.0285059
-0.778734
0.779503
0.0288245
-0.0283671
-0.657637
0.65718
0.0265241
-0.0225127
-0.522143
0.518132
0.0173425
-0.0112468
-0.338362
0.332266
0.00647651
-0.00270178
-0.155139
0.151364
0.000718029
-0.0252779
0.0245599
-0.0291636
0.0290393
0.000124301
-0.00193374
0.00384121
-0.23333
0.231423
-0.00652705
0.00880877
-0.407907
0.405625
-0.0102881
0.0104052
-0.553964
0.553847
-0.00939654
0.00786793
-0.667766
0.669295
-0.00580364
0.00371822
-0.78658
0.788665
-0.00125864
-0.00112173
-0.930766
0.933146
0.00386661
-0.00648044
-1.10532
1.10794
0.00944692
-0.0122209
-1.31585
1.31863
0.0152926
-0.0180781
-1.57033
1.57312
0.0205804
-0.0228014
-1.56691
1.56913
0.0244314
-0.0257975
-1.30805
1.30941
0.0267152
-0.0275221
-1.09602
1.09682
0.0281937
-0.028889
-0.921995
0.922691
0.0295042
-0.0301282
-0.780094
0.780718
0.030091
-0.0292222
-0.656544
0.655675
0.0268956
-0.0224285
-0.513931
0.509464
0.0170778
-0.0110191
-0.32622
0.320162
0.00635236
-0.00266537
-0.147656
0.143969
0.000714474
-0.0238502
0.0231357
-0.0289755
0.0289589
1.66556e-05
-0.00104324
0.00235633
-0.229835
0.228522
-0.00435382
0.00613861
-0.403631
0.401846
-0.00732866
0.00734977
-0.55389
0.553869
-0.0062881
0.00470812
-0.670976
0.672556
-0.00253017
0.000316878
-0.79075
0.792963
0.00229403
-0.0048113
-0.935436
0.937953
0.00769882
-0.0104301
-1.11048
1.11321
0.0135032
-0.0163441
-1.32134
1.32418
0.0194419
-0.0221942
-1.57582
1.57857
0.0246061
-0.0266818
-1.57118
1.57326
0.0281508
-0.029309
-1.31075
1.31191
0.0300178
-0.0305965
-1.09776
1.09834
0.0310669
-0.031552
-0.923243
0.923728
0.0319836
-0.032344
-0.781075
0.781435
0.0320072
-0.0306476
-0.654619
0.653259
0.0277965
-0.02283
-0.504799
0.499832
0.0172295
-0.0110873
-0.314098
0.307955
0.00640552
-0.0027031
-0.140297
0.136595
0.000730239
-0.0224201
0.0216899
-0.0290024
0.0290971
-9.46386e-05
-0.000119983
0.000830142
-0.227528
0.226818
-0.00210947
0.0033309
-0.400384
0.399162
-0.00412996
0.00396993
-0.554084
0.554244
-0.00279613
0.00110547
-0.674339
0.676029
0.00122495
-0.0036096
-0.795176
0.79756
0.00642142
-0.00912206
-0.940381
0.943082
0.012204
-0.0150995
-1.11587
1.11877
0.0183281
-0.0212771
-1.32698
1.32992
0.0244409
-0.0271896
-1.58125
1.58399
0.0295306
-0.0314684
-1.57515
1.57709
0.0327758
-0.0337252
-1.31303
1.31398
0.034221
-0.0345612
-1.09906
1.0994
0.03482
-0.0350845
-0.924059
0.924324
0.0353078
-0.0353318
-0.781484
0.781508
0.0346568
-0.0327224
-0.651697
0.649762
0.0292799
-0.0237385
-0.494647
0.489105
0.0177924
-0.0114336
-0.301747
0.295389
0.00662073
-0.00280732
-0.13286
0.129047
0.000762994
-0.0209502
0.0201872
-0.0292635
0.0294927
-0.000229176
0.000841216
-0.000794646
-0.22644
0.226393
0.000290199
0.000291766
-0.398299
0.397717
-0.000595377
0.000162748
-0.55473
0.555163
0.00119497
-0.00305657
-0.677976
0.679837
0.0055985
-0.0082058
-0.799943
0.802551
0.0112769
-0.0142152
-0.945696
0.948635
0.017551
-0.0206636
-1.12161
1.12472
0.0241023
-0.0272036
-1.33283
1.33594
0.030472
-0.03324
-1.58667
1.58944
0.0355192
-0.0373226
-1.57883
1.58063
0.0384694
-0.039207
-1.31486
1.3156
0.0394809
-0.0395632
-1.09987
1.09995
0.0395916
-0.0396206
-0.924412
0.924441
0.0396537
-0.0392423
-0.781212
0.780801
0.0381381
-0.0355331
-0.647624
0.645019
0.0314058
-0.0251785
-0.483306
0.477078
0.0187646
-0.0120439
-0.288895
0.282175
0.00698459
-0.00297057
-0.125157
0.121143
0.00081031
-0.0194073
0.018597
-0.0297929
0.0301676
-0.000374755
0.00192355
-0.00250488
-0.226666
0.227247
0.00286576
-0.00304556
-0.39752
0.3977
0.00339172
-0.0042092
-0.556054
0.556871
0.00581519
-0.00791734
-0.682016
0.684118
0.0107464
-0.0136435
-0.805155
0.808052
0.0170435
-0.0202819
-0.951493
0.954731
0.023939
-0.0273278
-1.12779
1.13118
0.0310358
-0.0343358
-1.33901
1.34231
0.0377487
-0.0405589
-1.59214
1.59495
0.0427812
-0.0444388
-1.5822
1.58386
0.0454093
-0.0459346
-1.31623
1.31676
0.0459805
-0.0457847
-1.10015
1.09995
0.0455641
-0.0453437
-0.924251
0.92403
0.0451477
-0.0442262
-0.780075
0.779153
0.042597
-0.0391891
-0.642211
0.638803
0.0342439
-0.0271775
-0.470536
0.46347
0.0201461
-0.012905
-0.275245
0.268004
0.00748354
-0.00318485
-0.117011
0.112712
0.00086939
-0.0177639
0.0168945
-0.030618
0.0311714
-0.000553478
0.00321285
-0.00458546
-0.228259
0.229631
0.00586503
-0.00684788
-0.398256
0.399239
0.00794311
-0.00926315
-0.558291
0.559611
0.011247
-0.0136708
-0.686599
0.689023
0.0168733
-0.0201357
-0.810941
0.814203
0.0239466
-0.0275599
-0.957898
0.961512
0.0316172
-0.0353483
-1.13454
1.13827
0.0393889
-0.0429342
-1.34559
1.34913
0.0465275
-0.049396
-1.59769
1.60056
0.0515599
-0.0530549
-1.58526
1.58675
0.0538339
-0.0541317
-1.3171
1.3174
0.0539303
-0.0534361
-1.09986
1.09937
0.0529542
-0.0524615
-0.923537
0.923044
0.0518828
-0.0504871
-0.778005
0.776609
0.0481621
-0.0437858
-0.635182
0.630805
0.0378516
-0.0297508
-0.456014
0.447913
0.0219255
-0.0139939
-0.260475
0.252543
0.00809682
-0.00343819
-0.108257
0.103599
0.000936122
-0.0159982
0.0150621
-0.0318096
0.0325931
-0.000783452
0.00476776
-0.00705183
-0.231456
0.23374
0.00940838
-0.0113245
-0.400717
0.402633
0.0132891
-0.015232
-0.561684
0.563627
0.0177294
-0.0205711
-0.691894
0.694735
0.0242627
-0.0279799
-0.817459
0.821176
0.0322989
-0.0363718
-0.965068
0.969141
0.0409154
-0.0450577
-1.14198
1.14613
0.0494916
-0.0533199
-1.35266
1.35649
0.057112
-0.0600341
-1.60334
1.60627
0.0621197
-0.063426
-1.58796
1.58927
0.0639803
-0.0640248
-1.3174
1.31744
0.0635544
-0.0627323
-1.09896
1.09814
0.0619683
-0.0612025
-0.922216
0.92145
0.060141
-0.0581623
-0.775026
0.773047
0.0549947
-0.0494225
-0.626177
0.620605
0.0422689
-0.0328857
-0.439325
0.429942
0.0240633
-0.0152657
-0.24424
0.235442
0.0087888
-0.0037116
-0.0987527
0.0936755
0.00100431
-0.0140975
0.0130932
-0.0334612
0.034545
-0.00108374
0.0067153
-0.0101008
-0.236491
0.239876
0.0137239
-0.0167197
-0.405186
0.408182
0.0196877
-0.0223824
-0.566524
0.569218
0.0255468
-0.0289449
-0.698115
0.701513
0.0332647
-0.0375543
-0.824895
0.829184
0.0424981
-0.0471272
-0.973174
0.977804
0.0522495
-0.0568697
-1.15026
1.15488
0.0617456
-0.0658758
-1.36029
1.36442
0.0698594
-0.0728039
-1.60908
1.61203
0.0747661
-0.0758325
-1.59024
1.59131
0.0761128
-0.0758523
-1.31701
1.31675
0.0750997
-0.0739153
-1.09737
1.09619
0.0728574
-0.0717973
-0.920294
0.919234
0.070173
-0.0674672
-0.770928
0.768222
0.0632272
-0.0561424
-0.614722
0.607637
0.04747
-0.0365055
-0.419957
0.408992
0.0264659
-0.0166358
-0.226194
0.216364
0.00949932
-0.00397529
-0.0883936
0.0828696
0.0010648
-0.012063
0.0109982
-0.0357018
0.0371992
-0.00149745
0.00928239
-0.0140292
-0.243719
0.248465
0.0191583
-0.0234026
-0.412026
0.416271
0.0275323
-0.0311323
-0.573138
0.576738
0.0351456
-0.0392715
-0.705553
0.709679
0.0443927
-0.0493991
-0.833479
0.838486
0.0551049
-0.060394
-0.982414
0.987703
0.0661802
-0.0713248
-1.1595
1.16465
0.0766563
-0.0810653
-1.3685
1.37291
0.0851761
-0.0880541
-1.61481
1.61769
0.0897963
-0.0905286
-1.59197
1.5927
0.0904823
-0.0899074
-1.31586
1.31529
0.088802
-0.0872289
-1.09505
1.09348
0.0858665
-0.0843372
-0.917658
0.916128
0.0822059
-0.0784984
-0.765351
0.761643
0.0728935
-0.0638911
-0.600161
0.591159
0.053326
-0.0404359
-0.397298
0.384408
0.0289589
-0.0179661
-0.20602
0.195027
0.0101375
-0.00418743
-0.0771455
0.0711954
0.00110552
-0.00991563
0.00881012
-0.0387387
0.0408329
-0.00209424
0.0128199
-0.0193071
-0.253635
0.260122
0.0262468
-0.0319447
-0.421727
0.427425
0.0374432
-0.0421498
-0.581914
0.586621
0.0472201
-0.0522835
-0.714571
0.719634
0.0584465
-0.0643395
-0.843498
0.849391
0.0709423
-0.0769703
-0.99299
0.999018
0.083458
-0.0891122
-1.16976
1.17542
0.0948289
-0.0994104
-1.3772
1.38178
0.103497
-0.106152
-1.62032
1.62298
0.107524
-0.107784
-1.59294
1.5932
0.107316
-0.106294
-1.31389
1.31287
0.104819
-0.102877
-1.09196
1.09002
0.101203
-0.0991154
-0.913948
0.911861
0.0963847
-0.0913362
-0.757719
0.752671
0.0839259
-0.0724606
-0.581644
0.570179
0.0595436
-0.0443571
-0.370666
0.355479
0.0312587
-0.0190527
-0.183496
0.17129
0.0105794
-0.00429514
-0.0650832
0.058799
0.00111232
-0.00770119
0.00658887
-0.0429054
0.0459211
-0.00301565
0.0179597
-0.0267347
-0.266984
0.275759
0.0358998
-0.0433431
-0.43497
0.442414
0.0504571
-0.0564949
-0.593359
0.599396
0.0629664
-0.0693157
-0.725608
0.731957
0.0767195
-0.0836079
-0.855259
0.862147
0.0911666
-0.097924
-1.00503
1.01179
0.105029
-0.111055
-1.18097
1.18699
0.116952
-0.121484
-1.38612
1.39066
0.125283
-0.12747
-1.62525
1.62744
0.12825
-0.127847
-1.59285
1.59245
0.126819
-0.125243
-1.3109
1.30932
0.123388
-0.121031
-1.08803
1.08568
0.118921
-0.116287
-0.908957
0.906322
0.112634
-0.105782
-0.747292
0.74044
0.0959867
-0.0813795
-0.558043
0.543436
0.0655883
-0.0477627
-0.339361
0.321535
0.0329583
-0.0196329
-0.158596
0.14527
0.0106784
-0.00424132
-0.0524348
0.0459977
0.00107115
-0.00549314
0.00442198
-0.048789
0.0533572
-0.00456823
0.0259072
-0.0377688
-0.284947
0.296808
0.0498085
-0.0595984
-0.452829
0.462619
0.0687642
-0.0764081
-0.608047
0.615691
0.084568
-0.0924418
-0.73913
0.747003
0.101167
-0.109011
-0.868969
0.876813
0.117375
-0.124636
-1.01843
1.02569
0.132029
-0.138078
-1.19274
1.19878
0.143739
-0.147837
-1.39474
1.39884
0.150929
-0.15229
-1.62906
1.63042
0.152185
-0.150879
-1.59131
1.59
0.149125
-0.146907
-1.30666
1.30444
0.144609
-0.141788
-1.08313
1.08031
0.139199
-0.13589
-0.902579
0.89927
0.130851
-0.121404
-0.732986
0.723539
0.108395
-0.0898258
-0.527943
0.509374
0.0706355
-0.0499677
-0.302818
0.28215
0.033567
-0.0194298
-0.131637
0.1175
0.0102975
-0.00397846
-0.0396132
0.0332942
0.000970289
-0.00338892
0.00241863
-0.0575005
0.0652885
-0.00778796
0.0398097
-0.0562207
-0.309709
0.32612
0.072312
-0.0852622
-0.476925
0.489875
0.096579
-0.105744
-0.626489
0.635655
0.115563
-0.12483
-0.755401
0.764667
0.134612
-0.142958
-0.884363
0.892709
0.151495
-0.158627
-1.03255
1.03968
0.165623
-0.171065
-1.20424
1.20968
0.175848
-0.178926
-1.40219
1.40526
0.180757
-0.180826
-1.63096
1.63102
0.179451
-0.176959
-1.58781
1.58532
0.174276
-0.171281
-1.30093
1.29794
0.168468
-0.165114
-1.0771
1.07375
0.161925
-0.157516
-0.894286
0.889877
0.150398
-0.137212
-0.713076
0.69989
0.119846
-0.0964566
-0.489588
0.466199
0.0736145
-0.0502842
-0.260883
0.237553
0.0327073
-0.0183047
-0.103441
0.0890383
0.00939098
-0.00349484
-0.027209
0.0213128
0.000802034
-0.00149764
0.000695601
-0.072519
0.0768962
-0.00437725
0.0304684
-0.0448488
-0.345284
0.359665
0.0592855
-0.0712277
-0.508603
0.520545
0.0820836
-0.0923828
-0.648475
0.658774
0.104104
-0.114946
-0.773281
0.784124
0.127066
-0.137894
-0.900034
0.910863
0.149537
-0.160014
-1.04592
1.0564
0.17117
-0.180948
-1.21409
1.22387
0.190999
-0.19938
-1.40725
1.41563
0.207406
-0.21336
-1.63
1.63596
0.217258
-0.219765
-1.58174
1.58424
0.220981
-0.221766
-1.2934
1.29419
0.222343
-0.221828
-1.06952
1.06901
0.220339
-0.215403
-0.882765
0.877829
0.204389
-0.183054
-0.685067
0.663732
0.155184
-0.119761
-0.441455
0.406032
0.0876162
-0.0569247
-0.214256
0.183565
0.0354441
-0.0189699
-0.0754442
0.0589699
0.00927856
-0.00323348
-0.015898
0.00985289
0.000662392
0.0001199
-0.000782292
-0.0845918
0.0826753
0.00191642
0.00839705
-0.0178288
-0.376902
0.386334
0.0288845
-0.0376119
-0.537318
0.546046
0.0465021
-0.0551462
-0.671848
0.680492
0.0658422
-0.0759359
-0.794397
0.804491
0.0868319
-0.0968263
-0.921088
0.931083
0.107562
-0.116886
-1.06662
1.07594
0.127023
-0.135561
-1.23349
1.24203
0.14435
-0.151478
-1.42378
1.43091
0.15797
-0.162693
-1.64135
1.64607
0.165546
-0.167107
-1.58631
1.58787
0.167321
-0.167149
-1.29363
1.29346
0.166917
-0.166035
-1.0663
1.06541
0.163496
-0.156544
-0.867623
0.860671
0.143985
-0.123094
-0.638229
0.617338
0.0991097
-0.0718032
-0.368483
0.341176
0.0497005
-0.0307516
-0.153913
0.134964
0.0184102
-0.00950974
-0.043745
0.0348445
0.00447561
-0.00149149
-0.00408604
0.00110192
0.000268675
0.00164104
-0.00190972
-0.0862191
0.0832473
0.0029718
-0.000834751
-0.00466648
-0.398543
0.404044
0.0120794
-0.0185873
-0.558831
0.565339
0.0252607
-0.0327115
-0.691755
0.699206
0.0420344
-0.0508154
-0.813528
0.822309
0.0605093
-0.0692484
-0.940246
0.948985
0.0784045
-0.0867634
-1.08511
1.09347
0.0956612
-0.10328
-1.25017
1.25779
0.110711
-0.116631
-1.43747
1.44339
0.122145
-0.125843
-1.65032
1.65402
0.127761
-0.128493
-1.58901
1.58974
0.128094
-0.127407
-1.29238
1.2917
0.126333
-0.124838
-1.06143
1.05994
0.121657
-0.113876
-0.849668
0.841887
0.101566
-0.082937
-0.593425
0.574796
0.0637001
-0.0438912
-0.312209
0.2924
0.0295637
-0.018128
-0.11621
0.104775
0.0108925
-0.0057279
-0.026118
0.0209535
0.00275761
-0.000947352
0.00206742
-0.00387768
0.000182161
0.00238018
-0.00256235
-0.0849753
0.0820855
0.00288982
-0.00491596
0.00211008
-0.413096
0.415902
0.00275296
-0.00771723
-0.575018
0.579982
0.0133564
-0.0196115
-0.708152
0.714407
0.0276217
-0.0351612
-0.830307
0.837846
0.043447
-0.0509478
-0.957132
0.964633
0.0592061
-0.0663291
-1.10137
1.1085
0.0741071
-0.0803177
-1.26499
1.2712
0.086727
-0.091756
-1.4491
1.45413
0.0961555
-0.0987152
-1.6574
1.65996
0.100009
-0.100239
-1.59005
1.59029
0.0994492
-0.0979396
-1.29028
1.28877
0.0963565
-0.0942188
-1.05537
1.05324
0.0905187
-0.0831504
-0.830223
0.822855
0.0719642
-0.0567684
-0.553727
0.538531
0.0424156
-0.0290045
-0.271656
0.258245
0.019809
-0.0126316
-0.0927165
0.0855391
0.0079738
-0.00446905
-0.0152608
0.0117561
0.00229851
-0.000855863
0.00606224
-0.00750489
0.000187722
0.00289575
-0.00308347
-0.0833919
0.0807823
0.0026096
-0.0064419
0.00534302
-0.422892
0.423991
-0.00168685
-0.00203658
-0.58801
0.591734
0.00654023
-0.0121598
-0.72192
0.72754
0.0188736
-0.0254663
-0.84456
0.851153
0.032616
-0.0391076
-0.97163
0.978121
0.0461705
-0.0524487
-1.11545
1.12173
0.0590143
-0.064581
-1.27723
1.2828
0.0700043
-0.0741628
-1.45875
1.46291
0.0776372
-0.0794
-1.66238
1.66414
0.0800035
-0.0794313
-1.58986
1.58929
0.078188
-0.0763491
-1.28686
1.28502
0.0742861
-0.0714309
-1.04852
1.04566
0.0676936
-0.0609978
-0.811551
0.804856
0.0517516
-0.0399424
-0.521294
0.509485
0.0297244
-0.0207938
-0.243591
0.23466
0.014778
-0.0100654
-0.0774986
0.0727859
0.00681331
-0.00410995
-0.00759416
0.0048908
0.00227999
-0.000915948
0.00932318
-0.0106872
0.000227947
0.00338529
-0.00361324
-0.0818199
0.0795358
0.0022841
-0.00666579
0.00618473
-0.429579
0.43006
-0.00399965
0.000988571
-0.598022
0.601033
0.00332499
-0.00809626
-0.733536
0.738307
0.0138166
-0.0194848
-0.856837
0.862506
0.025764
-0.031493
-0.984203
0.989932
0.0378469
-0.0432649
-1.12767
1.13309
0.0490275
-0.0538738
-1.288
1.29285
0.0584586
-0.0618566
-1.46671
1.47011
0.0644768
-0.0658592
-1.66575
1.66713
0.0657431
-0.0647029
-1.58821
1.58717
0.0629605
-0.0606221
-1.2827
1.28036
0.0583532
-0.0549208
-1.04094
1.03751
0.0510139
-0.0451598
-0.794472
0.788618
0.0376621
-0.028794
-0.495809
0.486941
0.0216968
-0.01581
-0.224439
0.218552
0.0119824
-0.00880575
-0.0671253
0.0639486
0.00636711
-0.00412438
-0.00155285
-0.000689874
0.00243206
-0.00105344
0.0123608
-0.0137394
0.000286011
0.00391231
-0.00419832
-0.0804989
0.0786606
0.00183829
-0.00605597
0.00603549
-0.434407
0.434427
-0.00429271
0.00206102
-0.606651
0.608883
0.00188112
-0.00614802
-0.7435
0.747767
0.0114766
-0.0162911
-0.86769
0.872504
0.0217171
-0.0267022
-0.995568
1.00055
0.0325702
-0.0373436
-1.13847
1.14324
0.0422941
-0.0466274
-1.29742
1.30175
0.0509523
-0.0537394
-1.4734
1.47619
0.0558258
-0.0564841
-1.66799
1.66865
0.0560703
-0.0541916
-1.58578
1.5839
0.052143
-0.0494756
-1.27756
1.27489
0.0466316
-0.0429798
-1.03276
1.0291
0.0388962
-0.0334726
-0.779117
0.773693
0.0276352
-0.0209615
-0.476096
0.469423
0.0160673
-0.012395
-0.211426
0.207754
0.00995882
-0.00781757
-0.059862
0.0577207
0.00600926
-0.00414697
0.00349882
-0.0053611
0.00258207
-0.00119083
0.0153709
-0.0167621
0.00035124
0.00451849
-0.00486973
-0.0796179
0.078134
0.00148388
-0.00517185
0.00540682
-0.438025
0.43779
-0.00389766
0.00185712
-0.614008
0.616048
0.00177564
-0.00555172
-0.752299
0.756075
0.0100429
-0.0145701
-0.877203
0.88173
0.0194623
-0.0244406
-1.00527
1.01025
0.0293569
-0.0337224
-1.14804
1.15241
0.0385228
-0.0423053
-1.30585
1.30963
0.0457279
-0.0484788
-1.47874
1.48149
0.0501358
-0.050419
-1.6692
1.66948
0.0494153
-0.0472821
-1.58201
1.57988
0.0447863
-0.0415919
-1.27156
1.26836
0.0383661
-0.0342551
-1.02423
1.02012
0.0299893
-0.0250855
-0.765155
0.760252
0.0200061
-0.0150041
-0.460846
0.455844
0.0116981
-0.00935708
-0.202787
0.200446
0.00787325
-0.00655631
-0.0547166
0.0533997
0.00531252
-0.00387508
0.00770362
-0.00914106
0.00253535
-0.00123643
0.0183058
-0.0196047
0.000394182
0.00521284
-0.00560702
-0.0792393
0.0779618
0.00127756
-0.00401204
0.00409244
-0.441041
0.440961
-0.00287777
0.000939386
-0.620581
0.622519
0.00234758
-0.00592401
-0.760319
0.763895
0.0101274
-0.0141315
-0.885994
0.889998
0.0190109
-0.0230273
-1.01456
1.01858
0.0277274
-0.0317149
-1.15686
1.16084
0.0361309
-0.0398155
-1.31328
1.31696
0.0431525
-0.0452471
-1.48384
1.48594
0.0466658
-0.0466824
-1.66948
1.6695
0.0455871
-0.0429117
-1.57737
1.57469
0.0400525
-0.0363744
-1.26491
1.26124
0.0327463
-0.028125
-1.01489
1.01027
0.0236668
-0.0187658
-0.752278
0.747377
0.0143445
-0.0103079
-0.448932
0.444895
0.00785809
-0.00644939
-0.196818
0.195409
0.00558127
-0.00486546
-0.0511968
0.050481
0.00413715
-0.0031867
0.0109331
-0.0118835
0.00218388
-0.00113848
0.0208965
-0.0219419
0.000386427
0.00592406
-0.00631048
-0.0791182
0.0781761
0.00094212
-0.00293432
0.0025923
-0.443957
0.4443
-0.00161135
-0.000326367
-0.626251
0.628189
0.00322001
-0.00659521
-0.767632
0.771008
0.0105298
-0.0145717
-0.893818
0.89786
0.0186968
-0.0227562
-1.02274
1.0268
0.0272541
-0.0308471
-1.16519
1.16878
0.0351287
-0.038512
-1.32033
1.32371
0.0415564
-0.0438076
-1.4883
1.49055
0.0451941
-0.0448813
-1.66934
1.66902
0.0433065
-0.0405673
-1.57192
1.56918
0.0375186
-0.0333777
-1.25707
1.25293
0.0292423
-0.0244029
-1.00485
1.00001
0.0192369
-0.0144156
-0.739719
0.734898
0.0103323
-0.0067917
-0.439061
0.43552
0.004853
-0.00378954
-0.192496
0.191432
0.00331099
-0.00299771
-0.0489426
0.0486294
0.0026933
-0.00221932
0.0130824
-0.0135563
0.00162922
-0.000916426
0.0228838
-0.0235966
0.000340367
0.00655274
-0.0068931
-0.0793968
0.0786331
0.000763723
-0.00200352
0.00173463
-0.446953
0.447222
-0.00028202
-0.00145491
-0.631863
0.6336
0.00447632
-0.00766469
-0.774291
0.77748
0.0113678
-0.0149202
-0.901524
0.905076
0.0190772
-0.0227085
-1.0308
1.03444
0.0270155
-0.0309132
-1.17276
1.17666
0.034627
-0.0381301
-1.32704
1.33054
0.0413175
-0.0433225
-1.49254
1.49454
0.0446217
-0.0445576
-1.66872
1.66865
0.0428127
-0.0399878
-1.56602
1.56319
0.0364855
-0.0320906
-1.24849
1.24409
0.027744
-0.0224125
-0.994159
0.988828
0.0171139
-0.0119169
-0.727364
0.722167
0.00783
-0.00445889
-0.43002
0.426649
0.00258467
-0.00164467
-0.189017
0.188077
0.00127726
-0.00122332
-0.0475537
0.0474998
0.00123249
-0.00117765
0.0142202
-0.0142751
0.000971546
-0.000621196
0.0241278
-0.0244781
0.000258221
0.00703131
-0.00728953
-0.0799758
0.07939
0.000585724
-0.000943836
0.000518076
-0.450018
0.450444
0.000754331
-0.0027649
-0.636972
0.638982
0.00568641
-0.00867639
-0.780586
0.783576
0.0124094
-0.01575
-0.90857
0.911911
0.0196673
-0.0233389
-1.0385
1.04218
0.0274419
-0.0311824
-1.18034
1.18408
0.0349654
-0.0383215
-1.33386
1.33722
0.0414559
-0.0439513
-1.4967
1.4992
0.0453057
-0.0450775
-1.66831
1.66808
0.0434866
-0.0403603
-1.55997
1.55685
0.036846
-0.032391
-1.23933
1.23488
0.0275604
-0.0219386
-0.982736
0.977114
0.0164164
-0.0107763
-0.714854
0.709214
0.00660223
-0.00312431
-0.42143
0.417952
0.00124942
-0.000166784
-0.185799
0.184716
-0.000193507
0.000167275
-0.0466739
0.0467002
1.58305e-05
-0.000242874
0.014534
-0.014307
0.000336682
-0.00030434
0.0246203
-0.0246526
0.000164334
0.00731889
-0.00748322
-0.0807981
0.0803391
0.000458973
-7.5335e-05
-0.000454345
-0.453197
0.453726
0.00178297