/*--------------------------------*- C++ -*----------------------------------*\
  =========                 |
  \\      /  F ield         | OpenFOAM: The Open Source CFD Toolbox
   \\    /   O peration     | Website:  https://openfoam.org
    \\  /    A nd           | Version:  6
     \\/     M anipulation  |
\*---------------------------------------------------------------------------*/
FoamFile
{
    version     2.0;
    format      ascii;
    class       volScalarField;
    location    "6";
    object      p;
}
// * * * * * * * * * * * * * * * * * * * * * * * * * * * * * * * * * * * * * //

dimensions      [0 2 -2 0 0 0 0];

internalField   nonuniform List<scalar> 
8800
(
0.478792
0.429707
0.392046
0.364373
0.344584
0.330522
0.3206
0.313689
0.309293
0.307432
0.308279
0.311745
0.317601
0.326052
0.337964
0.354719
0.378115
0.410814
0.453417
0.505821
0.31252
0.319226
0.329089
0.333742
0.332138
0.327033
0.320738
0.314876
0.310228
0.307166
0.306604
0.308993
0.31315
0.318656
0.325006
0.331051
0.334754
0.33352
0.325804
0.316351
0.28486
0.291557
0.297163
0.301922
0.305756
0.307689
0.307479
0.305904
0.304118
0.303173
0.303798
0.305622
0.307721
0.308948
0.30826
0.305388
0.300998
0.295944
0.290014
0.286297
0.283496
0.286311
0.290021
0.293036
0.295062
0.296401
0.297221
0.297587
0.297614
0.297697
0.297956
0.298351
0.298517
0.298174
0.297262
0.295695
0.293274
0.289804
0.286444
0.285163
0.285002
0.285855
0.287634
0.289645
0.291509
0.293044
0.294257
0.294951
0.295278
0.295499
0.2958
0.296027
0.295862
0.295143
0.29389
0.292406
0.290512
0.288578
0.287246
0.28694
0.283402
0.28364
0.284205
0.284909
0.28576
0.286687
0.287648
0.288488
0.289137
0.28961
0.289931
0.289974
0.289663
0.289037
0.288286
0.287513
0.28685
0.286223
0.285853
0.285759
0.280861
0.281025
0.281449
0.282054
0.282733
0.283464
0.284186
0.284879
0.28552
0.286089
0.286477
0.286588
0.286456
0.28613
0.285657
0.2851
0.284555
0.284076
0.283808
0.28375
0.277541
0.277608
0.277788
0.278079
0.278466
0.278964
0.279563
0.280233
0.280923
0.281588
0.282087
0.282314
0.282298
0.282131
0.281897
0.281658
0.281445
0.281276
0.281189
0.281165
0.273743
0.27379
0.273917
0.274127
0.274421
0.274813
0.275311
0.27592
0.276625
0.277392
0.278045
0.278445
0.278627
0.278663
0.278617
0.278533
0.278441
0.278361
0.278317
0.278301
0.269636
0.269664
0.269757
0.269917
0.270159
0.270507
0.270986
0.271614
0.272394
0.273304
0.27415
0.274744
0.275101
0.275292
0.275381
0.27541
0.27541
0.275398
0.275387
0.275378
0.265237
0.265263
0.265343
0.265487
0.265716
0.266063
0.266561
0.267248
0.268148
0.269255
0.270346
0.271169
0.271713
0.272063
0.272274
0.272395
0.272459
0.272489
0.272498
0.272493
0.260545
0.260567
0.260652
0.260804
0.261053
0.261435
0.262001
0.262802
0.263882
0.265251
0.266643
0.267728
0.268497
0.269006
0.269333
0.269535
0.269653
0.269717
0.269742
0.269739
0.255543
0.255566
0.25566
0.255835
0.256123
0.256574
0.25725
0.258221
0.259551
0.261266
0.263043
0.264462
0.265469
0.266157
0.266608
0.266893
0.267064
0.267159
0.267199
0.267197
0.250163
0.250189
0.250302
0.250513
0.250865
0.251419
0.252253
0.253459
0.255123
0.257287
0.259547
0.261363
0.262669
0.263566
0.26416
0.264538
0.264767
0.264896
0.264951
0.264949
0.244318
0.24435
0.244491
0.244755
0.245196
0.24589
0.246939
0.248459
0.250561
0.253301
0.256171
0.258485
0.260154
0.261304
0.262067
0.262555
0.262852
0.26302
0.263091
0.26309
0.237888
0.237929
0.238108
0.238444
0.239005
0.239888
0.241221
0.243152
0.245822
0.249301
0.252942
0.255877
0.257995
0.259456
0.260426
0.261046
0.261424
0.261639
0.26173
0.261729
0.230709
0.230762
0.230992
0.231426
0.232146
0.233279
0.234987
0.237455
0.240858
0.24528
0.249895
0.253607
0.256283
0.258127
0.259351
0.260134
0.260613
0.260884
0.260999
0.260997
0.222562
0.222632
0.222931
0.223495
0.224429
0.225894
0.228095
0.231263
0.235613
0.241238
0.24708
0.251763
0.25513
0.257449
0.258988
0.259972
0.260574
0.260914
0.261059
0.261057
0.213151
0.213244
0.213639
0.214379
0.2156
0.21751
0.220364
0.22445
0.230024
0.237179
0.244562
0.250453
0.254678
0.257584
0.259513
0.260746
0.2615
0.261926
0.262107
0.262103
0.202072
0.2022
0.202726
0.203709
0.205325
0.207837
0.211566
0.216863
0.224021
0.23312
0.242427
0.24981
0.255093
0.258727
0.261138
0.262681
0.263624
0.264157
0.264383
0.264377
0.188767
0.188947
0.189658
0.190985
0.193156
0.196503
0.201422
0.208328
0.217539
0.229094
0.24078
0.249993
0.256574
0.261102
0.264115
0.266046
0.267227
0.267894
0.268176
0.268168
0.172439
0.172695
0.173678
0.175514
0.178497
0.183037
0.189605
0.19867
0.210543
0.22517
0.239758
0.251182
0.259343
0.264977
0.268741
0.271164
0.272648
0.273484
0.273836
0.273828
0.15187
0.152238
0.153652
0.156305
0.160545
0.166848
0.175756
0.187747
0.20305
0.221462
0.23952
0.253569
0.263628
0.270627
0.275348
0.278413
0.280298
0.281355
0.281796
0.281786
0.125088
0.125634
0.12783
0.131916
0.138215
0.147232
0.159531
0.175489
0.195153
0.218127
0.240223
0.257312
0.269619
0.278296
0.284257
0.288205
0.290674
0.292063
0.292633
0.292617
0.0886924
0.0896618
0.0935303
0.100392
0.110235
0.123553
0.140771
0.162005
0.187053
0.215345
0.24199
0.262491
0.277387
0.288104
0.295688
0.300914
0.304337
0.306345
0.307184
0.307155
0.036003
0.0388025
0.0470862
0.0597049
0.075839
0.0958818
0.119926
0.147811
0.179173
0.213378
0.244922
0.269087
0.286837
0.299925
0.309564
0.316595
0.321617
0.324874
0.326449
0.326457
-0.0438366
-0.030719
-0.0116354
0.0112049
0.0369166
0.0658982
0.0981783
0.133616
0.171893
0.212475
0.249319
0.277559
0.298637
0.314661
0.327053
0.336788
0.34454
0.350532
0.35455
0.355579
-0.127236
-0.101431
-0.0704236
-0.0370749
-0.00169889
0.0361219
0.0765121
0.119482
0.164874
0.212368
0.255386
0.28866
0.313944
0.333695
0.349506
0.362487
0.373307
0.382982
0.390581
0.392221
-0.191302
-0.161254
-0.122419
-0.0809748
-0.037291
0.00845483
0.0563315
0.10631
0.158341
0.212243
0.260809
0.298281
0.326745
0.348965
0.366688
0.381076
0.392904
0.402677
0.409515
0.411168
-0.239387
-0.207204
-0.16402
-0.11724
-0.0678471
-0.0160765
0.0378576
0.0937961
0.151606
0.211114
0.26444
0.305338
0.336108
0.359784
0.378326
0.39307
0.404976
0.414709
0.421598
0.423343
-0.276142
-0.243173
-0.197186
-0.146838
-0.0934391
-0.0372523
0.0213694
0.0821671
0.144922
0.20941
0.26701
0.310878
0.343528
0.368327
0.387473
0.402485
0.414419
0.423997
0.430713
0.432469
-0.305513
-0.272322
-0.224616
-0.171684
-0.115214
-0.055616
0.00672941
0.071473
0.138362
0.207172
0.268648
0.315293
0.349736
0.3756
0.395316
0.410565
0.422544
0.432044
0.438646
0.440403
-0.330034
-0.296719
-0.24784
-0.193079
-0.134335
-0.0720715
-0.006798
0.0611187
0.131483
0.20418
0.269411
0.31892
0.355279
0.382327
0.402708
0.418283
0.430369
0.43983
0.446338
0.448099
-0.3514
-0.317808
-0.268058
-0.211876
-0.15139
-0.0871078
-0.0195512
0.0508959
0.124154
0.200368
0.269363
0.322
0.360567
0.389042
0.410272
0.426289
0.438569
0.448047
0.454497
0.456264
-0.370547
-0.336622
-0.286073
-0.228743
-0.166872
-0.101027
-0.0317576
0.0405939
0.116163
0.195547
0.268438
0.324621
0.365857
0.396127
0.418458
0.435093
0.447662
0.457225
0.463637
0.465393
-0.388054
-0.353693
-0.30238
-0.244095
-0.181145
-0.114125
-0.043632
0.030042
0.107333
0.189512
0.266481
0.326787
0.371302
0.403858
0.427638
0.44511
0.458095
0.467822
0.474227
0.476003
-0.404016
-0.369265
-0.317283
-0.258178
-0.19437
-0.126514
-0.0552595
0.0191554
0.0975167
0.182044
0.263261
0.328397
0.376964
0.412442
0.438111
0.456703
0.470281
0.480259
0.486685
0.488524
-0.418834
-0.383604
-0.330963
-0.271164
-0.206672
-0.13826
-0.0666638
0.00790064
0.0866162
0.172904
0.258491
0.329245
0.382825
0.422015
0.450141
0.470202
0.484575
0.494907
0.50141
0.503304
-0.432538
-0.396843
-0.34354
-0.283128
-0.21811
-0.149378
-0.0778133
-0.00367478
0.0745926
0.161875
0.251822
0.329073
0.388786
0.43266
0.463921
0.485897
0.501315
0.512128
0.518761
0.520634
-0.445239
-0.409039
-0.355105
-0.294126
-0.228694
-0.159845
-0.0886433
-0.0154951
0.0614617
0.14877
0.242882
0.327539
0.394667
0.444381
0.479617
0.504036
0.520801
0.532242
0.539047
0.54087
-0.45704
-0.42033
-0.365705
-0.304212
-0.238439
-0.169612
-0.0990684
-0.0274261
0.0473228
0.133457
0.231286
0.324228
0.400213
0.457081
0.497277
0.524768
0.543274
0.555565
0.562602
0.564251
-0.468018
-0.430673
-0.375401
-0.313405
-0.247341
-0.178647
-0.108975
-0.0393246
0.0323142
0.115879
0.216662
0.318714
0.40509
0.470526
0.516842
0.548175
0.568855
0.582202
0.589526
0.590909
-0.478113
-0.440145
-0.384233
-0.321743
-0.255409
-0.186908
-0.118265
-0.0509918
0.0166177
0.0960493
0.198647
0.310547
0.408888
0.484443
0.537987
0.573986
0.597268
0.611815
0.61939
0.620495
-0.487424
-0.448832
-0.392255
-0.32927
-0.262667
-0.194374
-0.12685
-0.0622598
0.000480639
0.0740319
0.176946
0.299262
0.411316
0.49832
0.560062
0.601906
0.628643
0.644519
0.651986
0.652428
-0.496123
-0.456786
-0.399534
-0.336037
-0.26914
-0.201045
-0.134653
-0.0729557
-0.0158182
0.0499634
0.151221
0.284391
0.412022
0.511745
0.582499
0.631223
0.66316
0.680705
0.686349
0.685238
-0.504129
-0.464085
-0.406121
-0.342079
-0.274874
-0.206925
-0.141623
-0.0829108
-0.0320043
0.0241056
0.12101
0.265621
0.410803
0.52486
0.605277
0.66095
0.699815
0.722183
0.72363
0.715805
-0.511665
-0.470792
-0.412065
-0.34746
-0.279953
-0.212072
-0.147788
-0.0921098
-0.0480266
-0.00370654
0.0853036
0.241852
0.407586
0.538144
0.627096
0.688685
0.734245
0.76803
0.773467
0.761588
-0.518742
-0.477013
-0.417394
-0.352328
-0.284538
-0.216636
-0.153303
-0.100741
-0.0642628
-0.0348458
0.0411195
0.209473
0.402007
0.551077
0.644649
0.706696
0.752847
0.782272
0.787022
0.761574
-0.52529
-0.48263
-0.421974
-0.356724
-0.288566
-0.22053
-0.158079
-0.108505
-0.0801415
-0.0687533
-0.0124903
0.166219
0.394465
0.563963
0.651314
0.698801
0.731605
0.731991
0.667803
0.623946
-0.531193
-0.486868
-0.425542
-0.360323
-0.291644
-0.223521
-0.162
-0.115152
-0.0951737
-0.105003
-0.0774869
0.110734
0.382442
0.573664
0.650261
0.662918
0.670036
0.618825
0.534417
0.479772
-0.57281
-0.48851
-0.428974
-0.363545
-0.294456
-0.226258
-0.164828
-0.120064
-0.108447
-0.143616
-0.156969
0.0335123
0.354602
0.589206
0.644061
0.612324
0.556962
0.471143
0.370915
0.316082
-0.509089
-0.490403
-0.434698
-0.368007
-0.298237
-0.229208
-0.168448
-0.127128
-0.127913
-0.205796
-0.317732
-0.154765
0.273592
0.554816
0.578404
0.404477
0.242049
0.13887
0.0449299
0.100939
-0.534117
-0.496419
-0.43907
-0.371906
-0.301455
-0.231615
-0.170008
-0.129786
-0.137919
-0.247104
-0.452647
-0.36865
0.11779
0.433975
0.392786
0.150582
-0.0374561
-0.162225
-0.285292
-0.172631
-0.548737
-0.506125
-0.445329
-0.376998
-0.305303
-0.234201
-0.171276
-0.13117
-0.144748
-0.285829
-0.625529
-0.690844
-0.203042
0.180095
0.0946622
-0.179462
-0.37849
-0.522599
-0.691111
-0.539906
-0.561394
-0.515393
-0.451919
-0.38179
-0.308484
-0.235875
-0.171501
-0.130911
-0.148548
-0.323127
-0.843918
-1.17881
-0.638191
-0.205205
-0.311619
-0.563159
-0.801055
-0.992113
-1.20242
-1.07814
-0.572154
-0.523975
-0.458444
-0.386458
-0.311361
-0.236924
-0.170717
-0.128442
-0.147913
-0.350146
-1.06069
-1.77432
-1.17368
-0.648157
-0.747414
-0.955594
-1.2377
-1.52589
-1.87004
-1.9234
-0.581626
-0.532401
-0.465196
-0.391398
-0.314343
-0.237761
-0.169102
-0.123888
-0.142195
-0.361114
-1.24003
-2.24846
-1.62447
-1.08495
-1.13072
-1.30063
-1.58092
-1.90751
-2.20656
-2.66624
-0.591252
-0.54108
-0.472414
-0.39682
-0.317644
-0.238628
-0.166777
-0.117417
-0.13056
-0.356083
-1.33349
-2.50648
-1.90352
-1.46411
-1.47457
-1.59529
-1.73425
-1.95441
-2.08418
-2.11566
-0.601424
-0.550355
-0.480264
-0.402829
-0.321416
-0.239601
-0.163969
-0.108973
-0.112405
-0.324023
-1.29089
-2.47445
-1.95583
-1.67665
-1.76286
-1.8934
-1.79561
-1.79697
-1.92005
-1.95605
-0.612725
-0.560598
-0.488979
-0.409601
-0.325803
-0.240874
-0.160971
-0.0987668
-0.088147
-0.259178
-1.08561
-2.09778
-1.73878
-1.73449
-1.99037
-2.34186
-2.0822
-1.87096
-2.01874
-2.12239
-0.625796
-0.572239
-0.498898
-0.417441
-0.331055
-0.242833
-0.158066
-0.0877053
-0.0592167
-0.172007
-0.751868
-1.4403
-1.30741
-1.56952
-2.18871
-3.13869
-3.29434
-3.10463
-2.86045
-2.7865
-0.640873
-0.585676
-0.510397
-0.426667
-0.337571
-0.245789
-0.155922
-0.0767468
-0.0280255
-0.0734599
-0.380107
-0.723623
-0.790984
-1.24556
-2.17498
-3.76832
-4.64403
-4.34968
-3.81233
-3.51562
-0.658208
-0.60123
-0.523807
-0.437641
-0.345649
-0.250224
-0.15509
-0.0666816
0.00215815
0.0204556
-0.0612264
-0.134607
-0.286521
-0.710001
-1.65629
-2.94998
-3.81824
-3.58525
-3.0901
-2.83426
-0.678162
-0.61927
-0.539426
-0.450621
-0.355594
-0.256379
-0.155971
-0.058973
0.0285846
0.0987489
0.155689
0.222748
0.149106
-0.083372
-0.48949
-0.951025
-1.25649
-1.23704
-1.08961
-1.0203
-0.700878
-0.639913
-0.557407
-0.465708
-0.367519
-0.264603
-0.159113
-0.0536461
0.0500821
0.156969
0.282096
0.408927
0.434706
0.393597
0.297848
0.221424
0.226814
0.279359
0.304839
0.309649
-0.726184
-0.663014
-0.577636
-0.482877
-0.38143
-0.274641
-0.164165
-0.0511075
0.0657753
0.197169
0.352267
0.502447
0.592241
0.647092
0.691386
0.743222
0.805604
0.853987
0.874994
0.877617
-0.753008
-0.687928
-0.599582
-0.501565
-0.396733
-0.28623
-0.17107
-0.0511126
0.0762546
0.223372
0.391557
0.550656
0.671809
0.767367
0.849284
0.923667
0.989417
1.03646
1.05991
1.06451
-0.780634
-0.713468
-0.622223
-0.521009
-0.412791
-0.298595
-0.178961
-0.0532823
0.0821176
0.238761
0.412041
0.571967
0.701612
0.806102
0.892186
0.964173
1.02242
1.06527
1.08995
1.09584
-0.806746
-0.737964
-0.644049
-0.539659
-0.428216
-0.310608
-0.187136
-0.0568258
0.0845363
0.246481
0.420102
0.576009
0.703651
0.805873
0.887486
0.952584
1.00397
1.04299
1.06723
1.07362
-0.827823
-0.758691
-0.662763
-0.555604
-0.441362
-0.320932
-0.194465
-0.0607222
0.0842747
0.248728
0.419642
0.569146
0.690605
0.787304
0.863613
0.923756
0.971069
1.00758
1.03047
1.03707
-0.841405
-0.772754
-0.675469
-0.566213
-0.45004
-0.327793
-0.199513
-0.0639473
0.0823811
0.246553
0.412554
0.554495
0.668864
0.759701
0.831471
0.888157
0.933047
0.967946
0.99006
0.996833
-0.843048
-0.77571
-0.678569
-0.56843
-0.45167
-0.32918
-0.200824
-0.0655334
0.0796665
0.240221
0.399295
0.533229
0.640342
0.72565
0.793436
0.847322
0.890326
0.923901
0.945639
0.952517
-0.826794
-0.762432
-0.66757
-0.558487
-0.443312
-0.3229
-0.197054
-0.0648191
0.0762903
0.230396
0.380418
0.505431
0.605001
0.684753
0.748705
0.799989
0.841258
0.873482
0.895055
0.902354
-0.784512
-0.725671
-0.636817
-0.531969
-0.421735
-0.306845
-0.186918
-0.0611086
0.0725504
0.217098
0.355932
0.470513
0.561635
0.635054
0.694636
0.743022
0.782244
0.813428
0.834768
0.842388
-0.711679
-0.663153
-0.580722
-0.484693
-0.384213
-0.27914
-0.169194
-0.0536516
0.068942
0.200636
0.325748
0.427811
0.50861
0.573747
0.627087
0.671155
0.707141
0.735911
0.75634
0.763905
-0.601108
-0.564796
-0.494486
-0.413904
-0.328888
-0.238443
-0.14284
-0.0414249
0.0665369
0.182086
0.290641
0.377706
0.445543
0.499226
0.542371
0.577854
0.607464
0.631252
0.647242
0.652373
-0.43434
-0.416359
-0.372227
-0.31707
-0.254762
-0.185277
-0.108751
-0.024644
0.0671499
0.166764
0.260531
0.335064
0.392085
0.43617
0.470357
0.496515
0.516099
0.531529
0.543583
0.547743
-0.264711
-0.258367
-0.238276
-0.209184
-0.171261
-0.124847
-0.0689351
-0.00376503
0.0707755
0.154121
0.233619
0.296643
0.344032
0.379191
0.404829
0.42341
0.436885
0.445706
0.450724
0.451865
-0.136276
-0.13433
-0.126696
-0.113397
-0.0936695
-0.0656462
-0.0281274
0.0196933
0.0777997
0.14543
0.211151
0.263106
0.301424
0.329153
0.348817
0.36204
0.370243
0.375002
0.377408
0.377827
-0.0519975
-0.0525893
-0.0515349
-0.0461647
-0.0354908
-0.0182137
0.00691835
0.0412708
0.0854694
0.139079
0.1924
0.234666
0.265424
0.286967
0.301357
0.310607
0.316269
0.319311
0.320413
0.320461
-0.00259083
-0.00333618
-0.00385905
-0.00200646
0.00375715
0.0148093
0.0324179
0.0576499
0.0913071
0.133309
0.175761
0.209467
0.233778
0.250656
0.26194
0.269039
0.273051
0.274978
0.27561
0.275644
0.0265328
0.0262203
0.0261364
0.0274954
0.0312897
0.0386397
0.0509239
0.0694319
0.0950401
0.127824
0.16147
0.188301
0.207591
0.220808
0.229392
0.234651
0.237646
0.23913
0.239661
0.239712
0.0456252
0.0455103
0.0455862
0.0466666
0.0494922
0.0549167
0.0639562
0.0777244
0.0971754
0.122597
0.14902
0.170147
0.185258
0.195541
0.202221
0.206325
0.208643
0.209776
0.210186
0.210228
0.0579751
0.0579596
0.0581492
0.0590648
0.0612173
0.0652665
0.0720473
0.082481
0.0973803
0.117084
0.137761
0.154357
0.166228
0.174293
0.179503
0.182684
0.18448
0.185366
0.185693
0.185726
0.0657471
0.065775
0.0660099
0.0667984
0.0685108
0.0716336
0.0768
0.0847533
0.0961957
0.11147
0.127611
0.140598
0.149882
0.156175
0.160234
0.162712
0.164112
0.164802
0.165056
0.16508
0.0701946
0.0702322
0.0704559
0.0711075
0.07246
0.074883
0.0788628
0.0849793
0.0938031
0.105644
0.118219
0.128363
0.135616
0.140529
0.143697
0.145628
0.146717
0.147251
0.147446
0.147463
0.0721328
0.0721695
0.0723635
0.0728911
0.0739581
0.0758439
0.0789217
0.0836443
0.0904651
0.0996507
0.109441
0.117351
0.12301
0.126841
0.129308
0.130809
0.131653
0.132065
0.132214
0.132225
0.0721421
0.072174
0.0723337
0.0727537
0.0735905
0.0750593
0.0774466
0.0811024
0.0863852
0.0935131
0.101128
0.10729
0.111697
0.114681
0.1166
0.117767
0.118421
0.118739
0.118851
0.118859
0.0706577
0.0706839
0.0708115
0.0711421
0.0717963
0.0729391
0.0747915
0.0776252
0.0817204
0.0872534
0.093174
0.0979689
0.101399
0.10372
0.105211
0.106116
0.106621
0.106865
0.106951
0.106956
0.0680132
0.0680343
0.0681354
0.0683944
0.068904
0.0697921
0.07123
0.0734279
0.0766037
0.0808976
0.0854967
0.0892235
0.0918904
0.0936941
0.0948527
0.0955543
0.0959449
0.0961315
0.0961958
0.0961991
0.0644697
0.0644861
0.0645649
0.0647664
0.0651628
0.0658528
0.0669684
0.0686723
0.0711344
0.0744656
0.0780366
0.0809315
0.0830027
0.0844019
0.085299
0.0858413
0.0861427
0.0862866
0.086336
0.0863381
0.060227
0.0602397
0.0603011
0.0604577
0.0607651
0.0612996
0.0621636
0.0634838
0.0653921
0.0679745
0.0707433
0.0729879
0.0745932
0.0756775
0.0763721
0.0767916
0.0770241
0.0771338
0.0771706
0.0771719
0.055443
0.0554527
0.0555
0.0556208
0.0558581
0.0562714
0.0569399
0.0579612
0.0594373
0.0614348
0.0635786
0.065316
0.0665577
0.0673963
0.0679336
0.0682575
0.068436
0.0685198
0.0685477
0.0685483
0.0502395
0.0502468
0.0502829
0.0503757
0.0505587
0.0508774
0.0513926
0.0521802
0.0533191
0.054861
0.0565161
0.0578577
0.0588167
0.0594637
0.0598764
0.0601241
0.0602605
0.060324
0.0603448
0.0603451
0.044713
0.0447185
0.0447457
0.0448161
0.0449555
0.0451994
0.0455947
0.046199
0.0470738
0.0482591
0.0495304
0.0505607
0.0512973
0.0517932
0.0521095
0.0522996
0.0524036
0.0524517
0.0524663
0.0524664
0.0389366
0.0389404
0.0389602
0.039013
0.0391185
0.0393041
0.0396056
0.0400669
0.040734
0.0416381
0.0426081
0.0433933
0.0439526
0.0443287
0.044569
0.0447131
0.0447921
0.0448285
0.0448396
0.0448395
0.032968
0.0329707
0.0329853
0.0330246
0.0331039
0.033243
0.0334688
0.0338151
0.0343168
0.0349973
0.0357272
0.0363185
0.0367403
0.0370239
0.0372044
0.0373113
0.0373687
0.0373946
0.0374016
0.0374014
0.0268566
0.0268582
0.026868
0.0268958
0.0269534
0.027055
0.0272203
0.0274746
0.0278437
0.0283447
0.028883
0.0293192
0.0296301
0.029838
0.0299687
0.0300461
0.0300874
0.0301052
0.0301096
0.0301095
0.0206368
0.0206372
0.0206436
0.0206626
0.0207022
0.020773
0.0208896
0.0210694
0.0213306
0.0216848
0.0220646
0.0223709
0.0225887
0.0227346
0.0228273
0.0228819
0.0229107
0.022923
0.0229261
0.0229257
0.0143408
0.0143408
0.014344
0.0143559
0.0143809
0.0144268
0.0145022
0.0146188
0.0147885
0.0150191
0.0152669
0.0154669
0.0156084
0.0157032
0.0157622
0.0157955
0.0158121
0.0158182
0.0158186
0.0158181
0.00798918
0.00798914
0.00799032
0.00799573
0.00800878
0.00803303
0.00807322
0.00813507
0.00822499
0.00834724
0.00848041
0.00858579
0.00866023
0.00870864
0.00873883
0.00875641
0.00876454
0.00876661
0.00876611
0.00876613
0.00160075
0.00159927
0.0015967
0.00159602
0.00159743
0.00160093
0.00160742
0.00161805
0.0016337
0.0016554
0.00168352
0.00170937
0.00172734
0.00173943
0.00174749
0.00175223
0.00175471
0.00175535
0.00175392
0.00175148
-0.802721
-0.468824
-0.172064
0.0648009
0.256425
0.411825
0.546782
0.662136
0.708231
0.688057
-0.282104
-0.0788196
0.0996244
0.253959
0.384836
0.4949
0.584197
0.645902
0.675036
0.680077
0.0470097
0.169587
0.285752
0.387989
0.47671
0.550986
0.608655
0.649158
0.673154
0.685116
0.256535
0.334684
0.412653
0.483966
0.547329
0.600089
0.641118
0.671941
0.691211
0.704948
0.399643
0.455318
0.514398
0.568085
0.614051
0.652197
0.683204
0.708496
0.723622
0.738851
0.511687
0.554525
0.599049
0.639989
0.675674
0.70755
0.735877
0.757881
0.771081
0.786788
0.604954
0.640945
0.678411
0.714565
0.747956
0.77745
0.801949
0.820415
0.833477
0.849705
0.695726
0.73151
0.767371
0.801986
0.833065
0.860116
0.882811
0.900222
0.912122
0.928164
0.791735
0.831195
0.869087
0.902838
0.933479
0.959712
0.981046
0.996888
1.00842
1.02437
0.907879
0.950059
0.987882
1.02179
1.05106
1.07536
1.09508
1.1106
1.12264
1.13888
1.04983
1.09176
1.12803
1.15811
1.18382
1.20567
1.22447
1.23999
1.25316
1.26939
1.22266
1.25503
1.28251
1.30536
1.32559
1.34458
1.36238
1.37939
1.39454
1.41056
1.40987
1.42736
1.44466
1.46126
1.47736
1.49225
1.50639
1.52087
1.53646
1.55362
1.5932
1.60328
1.61646
1.62756
1.63705
1.64674
1.65736
1.66767
1.677
1.7023
1.80931
1.80412
1.79152
1.7776
1.77163
1.77734
1.79553
1.82405
1.85779
1.89402
2.11542
1.97844
1.89875
1.85587
1.83833
1.84261
1.86998
1.92799
2.03587
2.21421
0.382158
0.376005
0.36863
0.358084
0.34508
0.333101
0.323411
0.316076
0.310855
0.307757
0.307234
0.309501
0.313954
0.320411
0.329029
0.340006
0.352868
0.365117
0.373615
0.380865
0.290067
0.296299
0.305555
0.313031
0.317348
0.318014
0.315769
0.312135
0.308533
0.305875
0.305395
0.307571
0.311077
0.31502
0.318272
0.319318
0.31685
0.3109
0.302401
0.293757
0.283545
0.285717
0.289834
0.293456
0.296492
0.298921
0.300399
0.300789
0.300454
0.300103
0.300188
0.300715
0.301499
0.301806
0.301097
0.299216
0.296514
0.293281
0.28926
0.285852
0.284349
0.285024
0.287533
0.29061
0.292972
0.294686
0.295694
0.296323
0.29657
0.296646
0.296838
0.297225
0.29746
0.297286
0.29664
0.295443
0.293552
0.290838
0.28786
0.286278
0.284548
0.284692
0.285272
0.286275
0.28743
0.288888
0.290331
0.291436
0.292161
0.292603
0.292948
0.293157
0.293037
0.292446
0.291383
0.290054
0.288854
0.287845
0.287049
0.286728
0.282177
0.282252
0.282636
0.2833
0.284009
0.284714
0.285419
0.286121
0.286779
0.28734
0.28777
0.288018
0.28797
0.287694
0.287288
0.286706
0.286133
0.285504
0.284988
0.284795
0.279301
0.279337
0.279509
0.279854
0.280324
0.280917
0.2816
0.282319
0.283026
0.28369
0.284247
0.284534
0.284546
0.284333
0.283977
0.283562
0.283176
0.282846
0.282624
0.282546
0.275679
0.275699
0.275797
0.275996
0.276278
0.27665
0.277121
0.277694
0.278353
0.279057
0.279717
0.28017
0.280365
0.280379
0.280291
0.280158
0.280014
0.27988
0.279786
0.27975
0.271727
0.271738
0.271808
0.271951
0.272172
0.272485
0.272912
0.273463
0.274142
0.274935
0.275752
0.276381
0.276751
0.27693
0.276989
0.276981
0.276944
0.2769
0.276864
0.276848
0.267473
0.267481
0.267532
0.267647
0.267834
0.268117
0.268525
0.269088
0.269829
0.270751
0.271765
0.272615
0.273188
0.273539
0.273744
0.273854
0.273907
0.273927
0.273932
0.273929
0.262928
0.262932
0.262986
0.263097
0.263284
0.263577
0.264015
0.264642
0.265499
0.266608
0.26788
0.269
0.269783
0.270321
0.270662
0.270872
0.270995
0.271061
0.271093
0.271098
0.258086
0.258089
0.258144
0.258267
0.258476
0.258809
0.259316
0.260055
0.261087
0.262452
0.264056
0.265502
0.266561
0.267285
0.267768
0.268076
0.268264
0.268373
0.268428
0.26844
0.252905
0.252907
0.25297
0.253114
0.253362
0.253762
0.254376
0.25528
0.256555
0.258262
0.260291
0.262146
0.263514
0.26447
0.265113
0.265529
0.265787
0.265938
0.266016
0.266035
0.247305
0.247306
0.247384
0.247561
0.247868
0.248364
0.249128
0.250258
0.251858
0.25401
0.256582
0.258946
0.260698
0.26193
0.262762
0.263303
0.263641
0.263841
0.263944
0.263971
0.241185
0.241186
0.241285
0.241508
0.241896
0.242522
0.243488
0.244918
0.246945
0.249673
0.252937
0.255939
0.258167
0.259737
0.260799
0.26149
0.261923
0.262179
0.262312
0.262347
0.234404
0.234406
0.234532
0.234818
0.235314
0.236115
0.237349
0.239173
0.241754
0.245223
0.249366
0.253169
0.255991
0.257978
0.259322
0.260198
0.260747
0.261072
0.26124
0.261284
0.226774
0.226776
0.22694
0.22731
0.227951
0.228984
0.230571
0.232911
0.236212
0.240632
0.245889
0.2507
0.25426
0.256764
0.258457
0.25956
0.260252
0.260661
0.260874
0.260928
0.218039
0.218043
0.218259
0.218743
0.219579
0.220922
0.222977
0.225995
0.230232
0.235872
0.242539
0.24861
0.253088
0.256232
0.258357
0.259742
0.260609
0.261123
0.261389
0.261457
0.207856
0.207863
0.208151
0.208793
0.209896
0.211657
0.21434
0.218254
0.22371
0.230914
0.23936
0.247
0.252615
0.256552
0.25921
0.260943
0.262028
0.262672
0.263004
0.263089
0.195746
0.195757
0.196152
0.197017
0.198492
0.200829
0.204363
0.209477
0.21653
0.225738
0.236414
0.245994
0.253006
0.257917
0.261236
0.263402
0.264761
0.265567
0.265985
0.26609
0.181021
0.181043
0.181601
0.182799
0.184808
0.187956
0.192673
0.199412
0.208572
0.220341
0.233788
0.245736
0.254451
0.260559
0.264696
0.267404
0.269109
0.270127
0.270656
0.270788
0.162675
0.162722
0.163551
0.165264
0.168061
0.172395
0.1788
0.187783
0.199732
0.21475
0.231589
0.246386
0.257151
0.264722
0.269881
0.27328
0.275437
0.276739
0.277425
0.277595
0.139176
0.139298
0.140606
0.143145
0.147174
0.153336
0.16224
0.174361
0.189986
0.209061
0.229964
0.248106
0.261296
0.270644
0.277089
0.281393
0.284162
0.285867
0.286791
0.287026
0.107973
0.108295
0.110523
0.114521
0.120726
0.129923
0.142621
0.159117
0.179494
0.203496
0.22911
0.251058
0.267038
0.278505
0.286575
0.2921
0.295749
0.298057
0.299349
0.299698
0.0642815
0.0651138
0.0694604
0.0766457
0.0871355
0.101513
0.119901
0.142322
0.168628
0.198379
0.229242
0.255352
0.27442
0.288332
0.298413
0.3056
0.310598
0.313933
0.315911
0.31643
-0.000355388
0.00230209
0.0124612
0.0270552
0.0456919
0.0682866
0.0946161
0.124563
0.157849
0.19399
0.230439
0.260894
0.283221
0.299808
0.312231
0.32156
0.328527
0.333703
0.3371
0.337762
-0.0795999
-0.0733948
-0.0537175
-0.0274095
0.00170697
0.0336474
0.0685494
0.106392
0.147014
0.190091
0.232969
0.268834
0.295541
0.315957
0.331896
0.344561
0.354776
0.363162
0.368318
0.370621
-0.157947
-0.144737
-0.115167
-0.0788954
-0.0402188
0.000740425
0.0438715
0.0892927
0.136998
0.186837
0.236093
0.277304
0.30816
0.331984
0.350863
0.366123
0.378613
0.388835
0.396362
0.400218
-0.213881
-0.199594
-0.165091
-0.122574
-0.076942
-0.0290238
0.021076
0.0732203
0.127334
0.183293
0.238184
0.283852
0.317877
0.343957
0.364363
0.380547
0.393474
0.403828
0.411269
0.414898
-0.256427
-0.241749
-0.204038
-0.157426
-0.10726
-0.0543612
0.000953317
0.0584323
0.117891
0.179164
0.239054
0.288624
0.325217
0.3529
0.374237
0.390915
0.404063
0.414453
0.42195
0.425585
-0.289454
-0.27491
-0.235442
-0.186032
-0.1326
-0.0760105
-0.0166595
0.045134
0.109069
0.174938
0.239259
0.292307
0.331174
0.360258
0.382393
0.399466
0.412762
0.423151
0.430645
0.434267
-0.316481
-0.302079
-0.261499
-0.210168
-0.154295
-0.0948558
-0.0323209
0.0328788
0.100465
0.170256
0.238609
0.295026
0.336174
0.366698
0.389666
0.407176
0.420658
0.431095
0.43864
0.442263
-0.339525
-0.325184
-0.283691
-0.230997
-0.173353
-0.111766
-0.0467729
0.0211588
0.091749
0.164955
0.237126
0.296999
0.340635
0.372801
0.396764
0.41482
0.428575
0.439106
0.446721
0.450334
-0.359822
-0.345449
-0.303341
-0.24943
-0.190352
-0.1271
-0.060225
0.00978931
0.0827521
0.158875
0.234721
0.298294
0.344804
0.378955
0.404172
0.42296
0.437098
0.447803
0.45548
0.459126
-0.378238
-0.363767
-0.320964
-0.26605
-0.205825
-0.141268
-0.0729858
-0.00145153
0.0732764
0.15182
0.231221
0.298877
0.348805
0.38543
0.412263
0.432023
0.446689
0.457647
0.465427
0.469082
-0.395088
-0.380435
-0.337012
-0.281199
-0.220043
-0.154495
-0.0852121
-0.0126905
0.0631786
0.143582
0.226412
0.298623
0.352661
0.392405
0.421329
0.442374
0.457764
0.469081
0.477039
0.480711
-0.41057
-0.395759
-0.351655
-0.29509
-0.233179
-0.16689
-0.0969758
-0.0239726
0.0523914
0.133991
0.220015
0.297309
0.356322
0.399976
0.431606
0.45433
0.470691
0.482503
0.490671
0.494358
-0.424952
-0.409922
-0.365119
-0.307872
-0.245319
-0.178513
-0.108297
-0.0352978
0.0408884
0.122906
0.211743
0.294639
0.359631
0.408181
0.443253
0.468166
0.485791
0.498269
0.506718
0.510454
-0.438263
-0.423003
-0.377498
-0.319636
-0.256532
-0.189365
-0.119133
-0.0465984
0.0287002
0.110239
0.201292
0.290256
0.36235
0.416968
0.456395
0.484101
0.503365
0.516716
0.525532
0.529334
-0.450664
-0.435105
-0.388894
-0.330418
-0.266854
-0.199448
-0.129422
-0.057773
0.0159352
0.0959501
0.188391
0.283756
0.364178
0.426199
0.471072
0.50233
0.523672
0.538137
0.547425
0.551319
-0.462075
-0.446319
-0.399362
-0.340293
-0.276292
-0.208745
-0.139102
-0.0686871
0.00272249
0.0800749
0.172774
0.274711
0.364752
0.435664
0.487236
0.52293
0.546859
0.562662
0.572527
0.576484
-0.472688
-0.456595
-0.408912
-0.349284
-0.284873
-0.217235
-0.148104
-0.0792079
-0.010725
0.0627109
0.154232
0.262681
0.363641
0.445064
0.504681
0.545749
0.572921
0.590417
0.600986
0.604924
-0.482406
-0.466051
-0.417639
-0.357432
-0.292623
-0.224909
-0.156366
-0.0892008
-0.0242081
0.0440563
0.132604
0.247238
0.360471
0.453993
0.522845
0.57036
0.601646
0.621228
0.63257
0.636337
-0.491471
-0.474803
-0.425582
-0.364805
-0.299583
-0.23179
-0.163845
-0.0985351
-0.0374982
0.0243441
0.107802
0.227891
0.35478
0.462143
0.54122
0.596058
0.632586
0.655039
0.666453
0.669292
-0.499824
-0.482834
-0.432824
-0.371449
-0.305783
-0.237894
-0.170507
-0.107098
-0.0503626
0.00384563
0.0797618
0.204203
0.3464
0.469267
0.559214
0.622356
0.665614
0.693005
0.703888
0.702499
-0.507649
-0.490293
-0.439417
-0.377399
-0.311284
-0.243262
-0.176353
-0.114812
-0.0625896
-0.0171075
0.0485453
0.1756
0.335173
0.475266
0.577555
0.647871
0.697974
0.733513
0.749239
0.736898
-0.514952
-0.49721
-0.445433
-0.382732
-0.316228
-0.248027
-0.181524
-0.121846
-0.0744442
-0.0392472
0.0121363
0.139164
0.31919
0.48097
0.595684
0.67078
0.724984
0.767693
0.791679
0.793731
-0.521809
-0.503804
-0.450779
-0.387477
-0.320699
-0.252231
-0.186019
-0.12813
-0.0857123
-0.0623436
-0.0303864
0.0925712
0.296486
0.486185
0.610799
0.681386
0.728548
0.76229
0.75826
0.704643