/*--------------------------------*- C++ -*----------------------------------*\
  =========                 |
  \\      /  F ield         | OpenFOAM: The Open Source CFD Toolbox
   \\    /   O peration     | Website:  https://openfoam.org
    \\  /    A nd           | Version:  6
     \\/     M anipulation  |
\*---------------------------------------------------------------------------*/
FoamFile
{
    version     2.0;
    format      ascii;
    class       volVectorField;
    location    "104.1";
    object      U;
}
// * * * * * * * * * * * * * * * * * * * * * * * * * * * * * * * * * * * * * //

dimensions      [0 1 -1 0 0 0 0];

internalField   nonuniform List<vector> 
8800
(
(0.987183 -0.0766651 0)
(1.00189 -0.05519 0)
(0.999721 -0.0285479 0)
(1.00003 -0.0151431 0)
(1.0001 -0.00854469 0)
(1.00012 -0.00504712 0)
(1.00008 -0.00300118 0)
(1.00002 -0.0016997 0)
(0.99999 -0.000792633 0)
(1.00006 -7.5088e-05 0)
(0.999961 0.000658401 0)
(1.00002 0.00142512 0)
(1.00007 0.00242736 0)
(1.00007 0.00399777 0)
(1.00006 0.00663214 0)
(1.00006 0.0113718 0)
(0.999961 0.0208156 0)
(0.999176 0.0386703 0)
(1.0071 0.0724575 0)
(0.771215 0.0366617 0)
(0.363082 -0.0160161 0)
(1.04332 -0.0768101 0)
(1.0846 -0.0704375 0)
(1.0452 -0.0535306 0)
(1.02329 -0.0388808 0)
(1.01203 -0.0262017 0)
(1.00644 -0.0168373 0)
(1.0036 -0.0103004 0)
(1.00215 -0.00563469 0)
(1.00143 -0.00197069 0)
(1.00128 0.00135326 0)
(1.00167 0.00474295 0)
(1.0027 0.00865982 0)
(1.00468 0.0139779 0)
(1.00861 0.0216863 0)
(1.01657 0.0326524 0)
(1.03252 0.0465635 0)
(1.06269 0.0616796 0)
(1.09187 0.0761063 0)
(0.838663 0.0565648 0)
(0.216878 -0.0024284 0)
(1.07592 -0.0501194 0)
(1.09989 -0.0482867 0)
(1.06466 -0.0404344 0)
(1.04006 -0.033571 0)
(1.02394 -0.0260427 0)
(1.01413 -0.0184493 0)
(1.00856 -0.0116171 0)
(1.00558 -0.00573731 0)
(1.0043 -0.000310981 0)
(1.00464 0.00494163 0)
(1.00662 0.0103307 0)
(1.01064 0.016385 0)
(1.01794 0.023403 0)
(1.03053 0.0308643 0)
(1.05062 0.0378863 0)
(1.08037 0.0445656 0)
(1.10627 0.0513731 0)
(0.942491 0.0416321 0)
(0.216109 0.00246319 0)
(0.175228 -0.000814779 0)
(1.01777 -0.0354594 0)
(1.10524 -0.0413395 0)
(1.0783 -0.0360146 0)
(1.05351 -0.0300712 0)
(1.03625 -0.0244838 0)
(1.02403 -0.0187387 0)
(1.0159 -0.0126399 0)
(1.01102 -0.0064347 0)
(1.00879 -8.63543e-05 0)
(1.00935 0.00617824 0)
(1.01267 0.0121723 0)
(1.01889 0.0179581 0)
(1.02875 0.0235224 0)
(1.04317 0.0288148 0)
(1.0637 0.0342848 0)
(1.09356 0.0402609 0)
(1.09338 0.0420091 0)
(0.827022 0.0229355 0)
(0.173931 0.000855257 0)
(0.154059 -0.000608402 0)
(0.956347 -0.0254231 0)
(1.10354 -0.0350676 0)
(1.08774 -0.032576 0)
(1.06179 -0.0279103 0)
(1.04418 -0.0228692 0)
(1.0317 -0.0175986 0)
(1.02283 -0.0120408 0)
(1.01698 -0.00608105 0)
(1.0141 0.000406859 0)
(1.01475 0.00688087 0)
(1.01879 0.0127571 0)
(1.0258 0.0179896 0)
(1.03605 0.0228928 0)
(1.0506 0.027639 0)
(1.07184 0.0321505 0)
(1.10004 0.0360702 0)
(1.06798 0.0341042 0)
(0.739278 0.0143447 0)
(0.1521 0.000654413 0)
(0.139727 -0.000464274 0)
(0.899578 -0.0190288 0)
(1.09593 -0.0299927 0)
(1.09585 -0.0290783 0)
(1.06936 -0.0253283 0)
(1.05092 -0.0211652 0)
(1.03797 -0.0163603 0)
(1.02883 -0.0110386 0)
(1.02268 -0.00526319 0)
(1.01949 0.00108874 0)
(1.02007 0.00741623 0)
(1.02423 0.013041 0)
(1.03135 0.0179296 0)
(1.0418 0.0223771 0)
(1.05691 0.026325 0)
(1.0791 0.029761 0)
(1.10219 0.0323653 0)
(1.03574 0.0282224 0)
(0.672524 0.0102531 0)
(0.136955 0.000517369 0)
(0.129238 -0.000358404 0)
(0.85017 -0.0146521 0)
(1.08366 -0.0258296 0)
(1.10159 -0.0260866 0)
(1.07627 -0.0227753 0)
(1.0573 -0.0191002 0)
(1.04388 -0.0148124 0)
(1.03438 -0.00984327 0)
(1.02797 -0.00426905 0)
(1.02457 0.0019115 0)
(1.02499 0.0080307 0)
(1.0291 0.0133764 0)
(1.03631 0.017838 0)
(1.04702 0.0216771 0)
(1.06253 0.0249545 0)
(1.08516 0.0278631 0)
(1.1012 0.0295866 0)
(1.00061 0.0237433 0)
(0.620438 0.00790198 0)
(0.125475 0.000420883 0)
(0.121261 -0.000277135 0)
(0.808271 -0.0114772 0)
(1.06855 -0.0221832 0)
(1.10521 -0.0233985 0)
(1.0826 -0.0204918 0)
(1.0632 -0.0170223 0)
(1.04951 -0.0130304 0)
(1.03971 -0.00838685 0)
(1.033 -0.00307293 0)
(1.02933 0.00289836 0)
(1.02956 0.00877549 0)
(1.03361 0.0137716 0)
(1.04085 0.0177438 0)
(1.05164 0.0210718 0)
(1.06735 0.0239314 0)
(1.09032 0.0265317 0)
(1.09729 0.0273458 0)
(0.965039 0.020248 0)
(0.578455 0.00638344 0)
(0.116291 0.000351469 0)
(0.115108 -0.000213199 0)
(0.77311 -0.00909477 0)
(1.05201 -0.0189621 0)
(1.10771 -0.0208962 0)
(1.08855 -0.01835 0)
(1.06877 -0.0150139 0)
(1.05483 -0.0111705 0)
(1.04483 -0.00672296 0)
(1.03785 -0.00163568 0)
(1.03387 0.00409411 0)
(1.03384 0.00967851 0)
(1.03776 0.014296 0)
(1.0449 0.0178294 0)
(1.05566 0.0207669 0)
(1.07156 0.0232934 0)
(1.09417 0.0255372 0)
(1.09047 0.0255187 0)
(0.930297 0.017573 0)
(0.543544 0.00535564 0)
(0.108673 0.000302105 0)
(0.11035 -0.000161448 0)
(0.743756 -0.00723723 0)
(1.03513 -0.0160941 0)
(1.1093 -0.0185222 0)
(1.09424 -0.0162694 0)
(1.07418 -0.0130117 0)
(1.05996 -0.00924145 0)
(1.04975 -0.00489773 0)
(1.04252 3.31015e-05 0)
(1.03822 0.0055356 0)
(1.03786 0.0108156 0)
(1.04153 0.0150705 0)
(1.04849 0.0182116 0)
(1.05919 0.0208013 0)
(1.07526 0.0230278 0)
(1.0967 0.0248784 0)
(1.08112 0.0240643 0)
(0.896925 0.0155698 0)
(0.513634 0.00464973 0)
(0.102134 0.000268114 0)
(0.106705 -0.000118086 0)
(0.719403 -0.00572996 0)
(1.01873 -0.0135065 0)
(1.11012 -0.0162119 0)
(1.09986 -0.014215 0)
(1.07953 -0.0109527 0)
(1.06501 -0.00719268 0)
(1.05456 -0.00289007 0)
(1.04705 0.0019471 0)
(1.04238 0.00726768 0)
(1.04161 0.0122694 0)
(1.04495 0.0161843 0)
(1.05167 0.0189493 0)
(1.06227 0.0212029 0)
(1.07851 0.0231514 0)
(1.09782 0.0245687 0)
(1.0696 0.0229835 0)
(0.865007 0.0141233 0)
(0.487249 0.00417597 0)
(0.0963275 0.000246496 0)
(0.103988 -8.01042e-05 0)
(0.699422 -0.00445609 0)
(1.00346 -0.0111302 0)
(1.11033 -0.013928 0)
(1.10536 -0.0121005 0)
(1.08492 -0.00878106 0)
(1.07007 -0.00496896 0)
(1.05934 -0.000643427 0)
(1.05148 0.00416082 0)
(1.04636 0.00935325 0)
(1.04508 0.0141141 0)
(1.04803 0.0177079 0)
(1.05445 0.0201011 0)
(1.06492 0.0220244 0)
(1.08127 0.0236966 0)
(1.09783 0.0247697 0)
(1.05613 0.0222966 0)
(0.834334 0.013152 0)
(0.463268 0.00388055 0)
(0.0909871 0.000234907 0)
(0.102086 -4.47684e-05 0)
(0.683357 -0.00332758 0)
(0.98976 -0.00889305 0)
(1.11016 -0.0115812 0)
(1.11073 -0.00984078 0)
(1.09042 -0.00643288 0)
(1.07522 -0.002504 0)
(1.06414 0.00191437 0)
(1.05587 0.0067519 0)
(1.05019 0.0118714 0)
(1.04831 0.0164257 0)
(1.05078 0.0197117 0)
(1.05685 0.0217321 0)
(1.06716 0.0233229 0)
(1.08351 0.0246991 0)
(1.09694 0.0253056 0)
(1.04083 0.0220105 0)
(0.804519 0.0125795 0)
(0.440795 0.00372481 0)
(0.0859019 0.000231169 0)
(0.10094 -9.77855e-06 0)
(0.670922 -0.00227377 0)
(0.978023 -0.00671874 0)
(1.10994 -0.00911369 0)
(1.11612 -0.0073738 0)
(1.09613 -0.00382986 0)
(1.08054 0.000284258 0)
(1.06906 0.00486836 0)
(1.06028 0.00981026 0)
(1.05393 0.0149155 0)
(1.05131 0.0192976 0)
(1.0532 0.0222875 0)
(1.05886 0.0239336 0)
(1.06896 0.0251837 0)
(1.08529 0.0262623 0)
(1.09468 0.0263384 0)
(1.02369 0.0221348 0)
(0.775078 0.0123617 0)
(0.419101 0.00368494 0)
(0.0809044 0.000234044 0)
(0.100544 2.69741e-05 0)
(0.661979 -0.00123807 0)
(0.96857 -0.00453366 0)
(1.11001 -0.00646383 0)
(1.12166 -0.00462535 0)
(1.10214 -0.000882557 0)
(1.08613 0.00349177 0)
(1.07416 0.00832001 0)
(1.06476 0.0134427 0)
(1.0576 0.0185967 0)
(1.0541 0.0228414 0)
(1.0553 0.0255428 0)
(1.06047 0.0268196 0)
(1.07031 0.0277067 0)
(1.0865 0.0284474 0)
(1.09098 0.027895 0)
(1.00461 0.0227154 0)
(0.745456 0.0124747 0)
(0.397553 0.00374771 0)
(0.0758515 0.000242807 0)
(0.100919 6.07701e-05 0)
(0.656527 -0.000162059 0)
(0.961715 -0.00226099 0)
(1.11074 -0.00356262 0)
(1.12755 -0.00150939 0)
(1.10856 0.00251139 0)
(1.09208 0.00723036 0)
(1.07954 0.0123897 0)
(1.0694 0.0177771 0)
(1.06126 0.0230472 0)
(1.0567 0.0271888 0)
(1.05707 0.029615 0)
(1.06166 0.0305118 0)
(1.07118 0.0310136 0)
(1.08685 0.0313738 0)
(1.0855 0.0300667 0)
(0.983326 0.0237905 0)
(0.715026 0.0129031 0)
(0.375572 0.00390291 0)
(0.0706169 0.00025652 0)
(0.102142 0.000117472 0)
(0.654735 0.00100247 0)
(0.95779 0.00017976 0)
(1.11249 -0.00033 0)
(1.13397 0.00207503 0)
(1.11552 0.00647277 0)
(1.09852 0.0116341 0)
(1.0853 0.0172238 0)
(1.07424 0.0229675 0)
(1.06493 0.0284243 0)
(1.05909 0.0324969 0)
(1.05848 0.0346569 0)
(1.06239 0.0351485 0)
(1.07151 0.035244 0)
(1.08619 0.0351812 0)
(1.07797 0.0329398 0)
(0.959442 0.025399 0)
(0.683091 0.0136359 0)
(0.352612 0.00414055 0)
(0.0650907 0.000274136 0)
(0.104361 0.00016956 0)
(0.656739 0.00214397 0)
(0.95716 0.0028842 0)
(1.11576 0.00334119 0)
(1.14116 0.00624457 0)
(1.12318 0.0111462 0)
(1.10558 0.0168663 0)
(1.09153 0.023002 0)
(1.07938 0.029204 0)
(1.06864 0.0349161 0)
(1.0613 0.03894 0)
(1.05955 0.0408109 0)
(1.06262 0.0408894 0)
(1.07125 0.0405512 0)
(1.08428 0.0399599 0)
(1.06805 0.0366183 0)
(0.932406 0.0275852 0)
(0.6489 0.0146627 0)
(0.328168 0.00444944 0)
(0.0591843 0.000294375 0)
(0.107697 0.000232795 0)
(0.663173 0.0036322 0)
(0.960158 0.00584876 0)
(1.12099 0.00758376 0)
(1.14937 0.011137 0)
(1.13172 0.0167164 0)
(1.11342 0.0231327 0)
(1.09838 0.0299452 0)
(1.08489 0.036713 0)
(1.07244 0.042744 0)
(1.0633 0.0467256 0)
(1.06022 0.0482813 0)
(1.0623 0.0479236 0)
(1.07034 0.0471116 0)
(1.08112 0.045887 0)
(1.05522 0.0412252 0)
(0.901488 0.0303822 0)
(0.611639 0.0159604 0)
(0.301781 0.00481236 0)
(0.0528341 0.000315327 0)
(0.11243 0.000321873 0)
(0.67446 0.00539671 0)
(0.967341 0.00935919 0)
(1.12872 0.0125692 0)
(1.15895 0.0169727 0)
(1.14139 0.023426 0)
(1.12224 0.0307005 0)
(1.10597 0.0383365 0)
(1.09083 0.0457763 0)
(1.07631 0.0521732 0)
(1.06506 0.056084 0)
(1.0604 0.0573002 0)
(1.0614 0.0564546 0)
(1.06873 0.0551262 0)
(1.07662 0.0531579 0)
(1.0388 0.046864 0)
(0.86576 0.0337906 0)
(0.570455 0.0174792 0)
(0.273072 0.00520059 0)
(0.0460161 0.000334209 0)
(0.118931 0.000439188 0)
(0.691383 0.00759131 0)
(0.979649 0.0136647 0)
(1.1395 0.0185299 0)
(1.17028 0.0240217 0)
(1.15248 0.031601 0)
(1.13225 0.0399267 0)
(1.11443 0.0485415 0)
(1.09726 0.0567437 0)
(1.08025 0.0635093 0)
(1.06653 0.0672793 0)
(1.05996 0.0680633 0)
(1.05986 0.0666923 0)
(1.06647 0.0647967 0)
(1.07042 0.0619549 0)
(1.0179 0.0535986 0)
(0.824093 0.0377548 0)
(0.524519 0.0191226 0)
(0.241822 0.00556975 0)
(0.0387647 0.00034735 0)
(0.127727 0.000603173 0)
(0.714967 0.0104623 0)
(0.997782 0.0190119 0)
(1.15401 0.0258101 0)
(1.18383 0.0326603 0)
(1.16533 0.0417036 0)
(1.14369 0.0512991 0)
(1.12387 0.061039 0)
(1.10417 0.070041 0)
(1.08418 0.0770994 0)
(1.06761 0.0805829 0)
(1.05891 0.0808068 0)
(1.05762 0.0788332 0)
(1.06326 0.0762802 0)
(1.06192 0.0722797 0)
(0.9913 0.0614351 0)
(0.775176 0.0421113 0)
(0.473141 0.0207254 0)
(0.208065 0.00585706 0)
(0.0311935 0.000350373 0)
(0.139633 0.000843854 0)
(0.746594 0.0143931 0)
(1.02291 0.025881 0)
(1.17305 0.0349619 0)
(1.20028 0.0435132 0)
(1.18035 0.0544209 0)
(1.15675 0.0655118 0)
(1.13432 0.0764646 0)
(1.11146 0.0861895 0)
(1.08795 0.0933227 0)
(1.06816 0.096257 0)
(1.05715 0.0957429 0)
(1.05473 0.0931293 0)
(1.05874 0.0898129 0)
(1.05022 0.0843327 0)
(0.957394 0.0702092 0)
(0.717599 0.046538 0)
(0.415976 0.0220371 0)
(0.172233 0.00598379 0)
(0.0235121 0.000338875 0)
(0.155966 0.00122033 0)
(0.788274 0.0200348 0)
(1.0567 0.0350634 0)
(1.19759 0.0469581 0)
(1.22053 0.0579905 0)
(1.19791 0.0708339 0)
(1.17153 0.0835667 0)
(1.14564 0.0956401 0)
(1.11888 0.105788 0)
(1.09129 0.112565 0)
(1.06796 0.114537 0)
(1.05456 0.113035 0)
(1.05109 0.109699 0)
(1.05281 0.105637 0)
(1.03404 0.0980427 0)
(0.914119 0.0795215 0)
(0.650086 0.0505 0)
(0.353355 0.0227282 0)
(0.135278 0.00586813 0)
(0.0160297 0.000309544 0)
(0.178993 0.00187386 0)
(0.843253 0.0285559 0)
(1.10207 0.0481672 0)
(1.2287 0.063649 0)
(1.24501 0.0776951 0)
(1.21813 0.0926277 0)
(1.18776 0.106832 0)
(1.15741 0.119544 0)
(1.12599 0.129456 0)
(1.09382 0.135174 0)
(1.06676 0.135602 0)
(1.05093 0.132785 0)
(1.04649 0.128581 0)
(1.04525 0.123515 0)
(1.01154 0.113083 0)
(0.858949 0.0886236 0)
(0.572016 0.0532358 0)
(0.286755 0.0224454 0)
(0.0987637 0.00544989 0)
(0.00913716 0.00026067 0)
(0.212229 0.00332092 0)
(0.91742 0.0427382 0)
(1.162 0.0691125 0)
(1.26673 0.0885466 0)
(1.2736 0.105781 0)
(1.24038 0.122258 0)
(1.20462 0.136979 0)
(1.16879 0.149188 0)
(1.1321 0.157738 0)
(1.09507 0.161387 0)
(1.06424 0.159544 0)
(1.04607 0.15499 0)
(1.04077 0.149793 0)
(1.03513 0.143458 0)
(0.979939 0.128764 0)
(0.789101 0.096282 0)
(0.484539 0.0538674 0)
(0.219512 0.0209997 0)
(0.0649491 0.00473248 0)
(0.00331121 0.00019201 0)
(0.257586 0.00981958 1.09809e-20)
(1.01453 0.0708277 9.39796e-21)
(1.23403 0.104772 -3.26808e-21)
(1.30887 0.125722 0)
(1.30329 0.146046 -8.17988e-35)
(1.2624 0.162156 1.19212e-21)
(1.22048 0.175555 -2.12612e-21)
(1.17873 0.185803 0)
(1.13646 0.191917 4.34237e-35)
(1.09436 0.192757 -2.60603e-21)
(1.05959 0.188263 0)
(1.03926 0.182041 -3.09858e-21)
(1.03394 0.176662 -9.14845e-21)
(1.02007 0.169 -4.33348e-21)
(0.932913 0.146877 -1.30362e-21)
(0.696253 0.102454 -7.73697e-22)
(0.383055 0.0520723 0)
(0.151363 0.0186722 5.40854e-22)
(0.0339694 0.00383611 6.40506e-22)
(-0.00154672 7.10141e-05 1.17188e-20)
(0.289444 0.0256712 8.10136e-21)
(1.09542 0.115302 1.20044e-22)
(1.29344 0.155551 8.73308e-22)
(1.34741 0.176575 0)
(1.32966 0.19688 -4.13329e-21)
(1.28174 0.210981 -4.67633e-21)
(1.23382 0.222262 -2.13936e-21)
(1.18621 0.230308 -7.55199e-21)
(1.13835 0.234097 0)
(1.09099 0.232436 1.10116e-20)
(1.05209 0.225676 1.09146e-20)
(1.02895 0.217879 3.23496e-21)
(1.02069 0.211625 1.18294e-20)
(0.990622 0.199661 1.66766e-20)
(0.85424 0.165429 0)
(0.566492 0.105774 2.34443e-20)
(0.267528 0.0482049 3.36026e-20)
(0.0841682 0.0150942 3.73835e-20)
(0.00546994 0.00181282 -4.28774e-20)
(-0.00577303 -0.000470573 -8.18311e-22)
(0.291683 0.043786 0)
(1.14797 0.172681 1.4095e-21)
(1.33473 0.217624 0)
(1.37791 0.238521 -5.43476e-21)
(1.35089 0.255609 0)
(1.29706 0.265831 -9.14293e-21)
(1.24355 0.273466 4.3441e-21)
(1.19046 0.27812 -1.51347e-20)
(1.13738 0.278664 -3.33776e-22)
(1.08524 0.27384 5.65377e-21)
(1.04268 0.264432 2.38198e-20)
(1.01713 0.25491 -2.33148e-23)
(1.00491 0.246907 -8.55148e-21)
(0.956519 0.229323 -1.55434e-20)
(0.777297 0.180899 1.84021e-20)
(0.465638 0.106048 -3.25398e-20)
(0.195873 0.0439749 -4.27855e-21)
(0.0469438 0.0115592 0)
(-0.00918995 -0.000512327 -3.23808e-24)
(-0.00775576 -0.00109346 0)
(0.28538 0.0589251 1.87506e-20)
(1.17764 0.233915 -9.03773e-21)
(1.36132 0.284503 -6.82541e-21)
(1.39866 0.305667 2.55686e-21)
(1.36538 0.318618 -4.25604e-21)
(1.30719 0.324265 1.89919e-20)
(1.24919 0.327492 8.97919e-21)
(1.19146 0.328008 0)
(1.13387 0.324645 -2.81891e-20)
(1.07756 0.31611 0)
(1.03186 0.303741 -1.23884e-20)
(1.00418 0.292284 -1.53348e-20)
(0.987421 0.281807 -9.23469e-21)
(0.920922 0.257243 -1.12115e-20)
(0.708974 0.193925 0)
(0.392314 0.10635 0)
(0.149407 0.0409884 -2.7638e-20)
(0.023423 0.00824925 5.45109e-21)
(-0.0185181 -0.00301181 -3.21679e-21)
(-0.0090231 -0.00176008 -3.81023e-21)
(0.277443 0.0721193 -7.41485e-21)
(1.19175 0.295058 0)
(1.3768 0.35236 1.37562e-20)
(1.41074 0.373989 7.09429e-21)
(1.3732 0.382897 9.73804e-21)
(1.3119 0.383932 0)
(1.25049 0.382592 8.71299e-21)
(1.18909 0.378698 1.65164e-20)
(1.1278 0.371088 1.43419e-20)
(1.068 0.35851 2.6157e-20)
(1.01963 0.342934 0)
(0.990082 0.32935 -3.27542e-20)
(0.968551 0.315805 -1.97303e-20)
(0.885469 0.283286 -1.1668e-20)
(0.650361 0.205464 7.12438e-20)
(0.339008 0.107202 8.42746e-21)
(0.11786 0.0386477 3.96937e-20)
(0.00684001 0.00484687 -1.87592e-19)
(-0.0254998 -0.00573771 1.11105e-19)
(-0.0100282 -0.00246747 -1.35627e-19)
(0.269445 0.0839007 -3.4255e-21)
(1.19568 0.354054 1.31703e-21)
(1.38403 0.419182 -1.45398e-21)
(1.41585 0.441578 -7.12817e-21)
(1.3753 0.446671 -8.15873e-21)
(1.31173 0.443232 3.54561e-22)
(1.24772 0.437411 -9.3814e-21)
(1.18344 0.429108 1.68995e-20)
(1.11916 0.417158 -3.06057e-20)
(1.05648 0.400397 0)
(1.00592 0.381472 -1.48087e-20)
(0.974709 0.365642 -3.02847e-22)
(0.948409 0.348771 -2.14551e-20)
(0.851007 0.307623 0)
(0.600763 0.215997 -1.53258e-20)
(0.299314 0.10864 -3.62035e-20)
(0.0946391 0.0366422 9.61478e-20)
(-0.00606723 0.00128977 -9.46673e-20)
(-0.0312349 -0.0086543 1.34565e-19)
(-0.0108611 -0.00320059 -1.41596e-19)
(0.262278 0.0946199 -1.18003e-22)
(1.19293 0.41011 -3.99078e-22)
(1.38518 0.483873 -3.88368e-21)
(1.41545 0.507303 2.81195e-21)
(1.37275 0.508909 -4.05218e-21)
(1.3075 0.501219 0)
(1.24147 0.4911 -8.6848e-21)
(1.17487 0.478502 -1.75892e-20)
(1.10814 0.462243 -1.58271e-20)
(1.04309 0.441258 0)
(0.990739 0.418906 -1.514e-20)
(0.95817 0.400719 -1.87436e-20)
(0.92743 0.38025 2.30742e-20)
(0.818076 0.330263 -1.40065e-20)
(0.558839 0.225776 -6.60419e-20)
(0.268692 0.110549 3.89885e-20)
(0.0762729 0.034789 1.1501e-20)
(-0.0171882 -0.00250861 0)
(-0.0365489 -0.0118072 -1.28657e-19)
(-0.0116491 -0.0039706 -4.76667e-21)
(0.256153 0.104625 2.59865e-22)
(1.18581 0.463003 -2.01867e-22)
(1.38174 0.545862 1.75354e-21)
(1.41076 0.570494 9.91508e-21)
(1.36647 0.568968 -1.4786e-20)
(1.3 0.557334 1.75071e-20)
(1.23237 0.543159 1.85682e-20)
(1.16386 0.526439 -2.7974e-20)
(1.09508 0.505965 9.68879e-21)
(1.02803 0.480748 -6.31662e-20)
(0.974256 0.454893 -1.70508e-20)
(0.94063 0.434212 0)
(0.90593 0.409972 2.48428e-20)
(0.786845 0.351129 2.96758e-20)
(0.523255 0.234875 3.53829e-20)
(0.244232 0.112724 -4.19069e-20)
(0.0608136 0.0328631 -1.23596e-20)
(-0.0275574 -0.00668696 1.45728e-20)
(-0.0420565 -0.0153386 0)
(-0.0125546 -0.00482636 -1.02369e-20)
(0.251007 0.113978 -7.93803e-21)
(1.17609 0.51276 3.44419e-21)
(1.37504 0.605124 -1.45696e-21)
(1.4028 0.630811 5.87717e-21)
(1.3573 0.626473 -6.5699e-21)
(1.28993 0.611213 -8.58443e-22)
(1.22103 0.593287 -2.02134e-20)
(1.15093 0.572672 -1.00875e-20)
(1.08036 0.548109 -2.72778e-20)
(1.01157 0.518675 3.16275e-23)
(0.956651 0.489216 -5.29609e-20)
(0.922236 0.46587 4.46866e-20)
(0.884128 0.43768 -2.70416e-20)
(0.757418 0.370109 3.23399e-20)
(0.492866 0.243204 0)
(0.224197 0.114866 -2.25197e-20)
(0.0472829 0.0306048 2.32485e-23)
(-0.0375737 -0.011401 -6.27183e-20)
(-0.0480423 -0.0194108 -9.27428e-21)
(-0.013691 -0.0058286 0)
(0.246826 0.122954 0)
(1.16484 0.559613 4.45245e-21)
(1.36592 0.66163 -6.34042e-22)
(1.39237 0.688098 -5.24812e-21)
(1.34594 0.681233 -8.3844e-21)
(1.2779 0.662677 0)
(1.20797 0.641307 -9.15805e-21)
(1.1365 0.617059 -2.41611e-22)
(1.06433 0.588583 5.82579e-20)
(0.993975 0.554964 -8.62295e-21)
(0.938077 0.521779 -3.81514e-20)
(0.903084 0.495542 2.3167e-20)
(0.86212 0.463176 -3.93493e-22)
(0.729709 0.387064 3.42952e-20)
(0.466733 0.250588 2.06657e-20)
(0.207491 0.116579 -4.82997e-20)
(0.0354274 0.0277556 5.69655e-20)
(-0.047105 -0.0167526 1.68411e-20)
(-0.0544282 -0.0240844 6.97809e-20)
(-0.0151051 -0.00702749 -1.88842e-19)
(0.243543 0.13172 -3.55042e-21)
(1.15289 0.603738 4.12899e-21)
(1.35507 0.715065 -2.28571e-21)
(1.38016 0.742325 3.87039e-21)
(1.33296 0.733169 0)
(1.26443 0.711632 -7.90826e-21)
(1.19365 0.687137 3.07649e-20)
(1.12096 0.659535 2.20548e-20)
(1.04732 0.627361 0)
(0.975455 0.589615 -1.23912e-19)
(0.918639 0.55256 1.02817e-19)
(0.88321 0.523159 0)
(0.839918 0.486348 3.12422e-20)
(0.70353 0.401902 -3.15541e-22)
(0.444037 0.25683 -6.61377e-20)
(0.193445 0.117531 2.58833e-20)
(0.0253596 0.0242403 0)
(-0.0556369 -0.0226478 9.03827e-20)
(-0.0607447 -0.0292653 0)
(-0.0167304 -0.00843133 -8.87187e-20)
(0.241087 0.140287 4.49292e-21)
(1.14076 0.645377 6.124e-21)
(1.34297 0.765507 -2.05381e-21)
(1.36669 0.793523 0)
(1.31887 0.782297 -6.98891e-21)
(1.24996 0.758074 0)
(1.17845 0.730755 -3.03683e-20)
(1.10467 0.700091 -1.02563e-20)
(1.02961 0.664467 1.02825e-20)
(0.956206 0.622694 -6.13054e-20)
(0.898415 0.581614 1.0632e-20)
(0.862602 0.548726 0)
(0.817449 0.507159 -6.6561e-20)
(0.678601 0.414558 2.48028e-22)
(0.424039 0.261795 0)
(0.181558 0.117576 4.33399e-23)
(0.0171169 0.0201469 8.20966e-20)
(-0.0626643 -0.0287874 -7.76222e-20)
(-0.066405 -0.03466 2.29858e-20)
(-0.0184078 -0.00997229 0)
(0.239129 0.148636 0)
(1.12873 0.684737 7.84056e-21)
(1.33009 0.813083 4.15756e-21)
(1.3524 0.841773 -5.3476e-22)
(1.30405 0.828668 -2.23677e-21)
(1.23486 0.802037 -1.79e-20)
(1.16272 0.772184 1.14281e-20)
(1.08791 0.738752 -1.213e-20)
(1.01146 0.699948 4.59396e-20)
(0.936408 0.654307 -9.82277e-20)
(0.877468 0.609055 -8.21923e-22)
(0.841233 0.572308 -2.92885e-20)
(0.794599 0.525624 1.07772e-19)
(0.654645 0.425095 -3.60627e-22)
(0.406068 0.265463 -5.08775e-20)
(0.171408 0.116734 -8.97462e-20)
(0.0107481 0.0157882 0)
(-0.0678192 -0.0347749 0)
(-0.0709119 -0.039908 2.46972e-20)
(-0.0199554 -0.0115536 -1.46449e-20)
(0.237839 0.156958 6.82528e-21)
(1.11698 0.721883 -1.82147e-20)
(1.31679 0.857912 -4.45749e-21)
(1.33765 0.887169 0)
(1.28883 0.872361 -3.10597e-22)
(1.21943 0.843579 -1.64265e-20)
(1.14674 0.811474 2.76751e-20)
(1.07096 0.775567 4.7928e-20)
(0.993094 0.73388 5.99309e-20)
(0.916247 0.684585 -8.06015e-20)
(0.855878 0.635061 -8.87708e-20)
(0.819052 0.594023 7.84726e-20)
(0.771287 0.541812 0)
(0.631288 0.433527 -2.33254e-20)
(0.389652 0.267779 -5.46905e-20)
(0.162694 0.115206 -6.4315e-20)
(0.00608571 0.0114695 -7.58245e-20)
(-0.0710663 -0.0402349 2.24358e-20)
(-0.0739958 -0.0446692 -1.32588e-20)
(-0.021226 -0.0130689 3.78976e-23)
(0.236809 0.165081 0)
(1.10595 0.756825 0)
(1.3033 0.900113 5.09571e-22)
(1.32268 0.929823 0)
(1.27348 0.913481 4.87077e-21)
(1.20392 0.882786 1.12127e-20)
(1.13075 0.848685 0)
(1.05404 0.810591 5.72751e-21)
(0.97474 0.766336 1.00597e-19)
(0.895916 0.713666 -1.85943e-19)
(0.833742 0.659853 0)
(0.796007 0.614044 -5.07933e-20)
(0.747317 0.555745 -4.84753e-22)
(0.608231 0.43982 -2.64343e-22)
(0.374507 0.26875 5.87797e-20)
(0.155325 0.113229 3.13232e-23)
(0.00294365 0.00765679 -1.6302e-19)
(-0.0727367 -0.0447541 4.81919e-20)
(-0.0757674 -0.0486907 1.42957e-20)
(-0.0221208 -0.0144095 0)
(0.23604 0.172965 -2.8651e-20)
(1.09538 0.790029 -1.30402e-20)
(1.28976 0.939777 -1.52071e-20)
(1.30772 0.969849 9.73546e-21)
(1.2582 0.952115 5.67465e-21)
(1.18854 0.919739 0)
(1.11493 0.883891 1.70245e-20)
(1.03734 0.843889 -1.28403e-20)
(0.956589 0.797391 8.00434e-22)
(0.875606 0.741685 1.37556e-20)
(0.811175 0.683675 1.16248e-19)
(0.772051 0.632631 -1.79142e-20)
(0.722519 0.567454 -6.68102e-20)
(0.585443 0.443773 -2.71511e-20)
(0.360595 0.268149 3.16548e-20)
(0.149668 0.110996 4.44728e-23)
(0.00138288 0.00519272 4.38511e-20)
(-0.0737548 -0.0475166 -1.03594e-19)
(-0.0773441 -0.05188 1.22957e-19)
(-0.0228886 -0.0156445 1.81597e-20)
(0.235323 0.180607 1.10516e-20)
(1.08531 0.82155 -7.44152e-21)
(1.27636 0.977044 1.32874e-21)
(1.29294 1.00738 7.53755e-21)
(1.24316 0.988386 1.68142e-22)
(1.17344 0.954528 -1.99031e-20)
(1.09946 0.917164 4.96382e-21)
(1.02103 0.875514 -5.38525e-20)
(0.938818 0.827095 -1.12321e-19)
(0.855499 0.768744 -1.12096e-19)
(0.788327 0.706767 0)
(0.747149 0.650106 -7.91741e-20)
(0.696585 0.577053 9.66399e-20)
(0.562535 0.444921 0)
(0.348084 0.26518 -6.80372e-20)
(0.147111 0.108017 4.00223e-20)
(0.0031684 0.00462189 -4.71539e-20)
(-0.074154 -0.0479284 -5.57704e-20)
(-0.0811006 -0.0548554 -9.90695e-20)
(-0.0246081 -0.0173499 -7.82301e-20)
(0.234955 0.188094 -1.26887e-20)
(1.0756 0.851412 7.97812e-21)
(1.26318 1.012 1.74212e-20)
(1.27845 1.04252 1.18735e-20)
(1.22848 1.0224 6.0708e-22)
(1.15873 0.98725 -1.09199e-20)
(1.08446 0.948569 1.67029e-20)
(1.00524 0.905532 -5.57924e-20)
(0.921564 0.855506 -6.71304e-20)
(0.835775 0.794932 1.18646e-19)
(0.765359 0.729348 2.58957e-19)
(0.721298 0.666853 0)
(0.669145 0.584798 0)
(0.53876 0.442858 -3.13466e-20)
(0.336925 0.25839 0)
(0.149058 0.102191 8.60443e-20)
(0.012609 0.00252282 1.01341e-19)
(-0.0682889 -0.0494483 0)
(-0.0855372 -0.0597695 0)
(-0.0287846 -0.0206935 8.42652e-20)
(0.234466 0.195165 1.46227e-20)
(1.06631 0.879642 1.14735e-20)
(1.25034 1.04477 1.2744e-20)
(1.26436 1.07542 -1.23478e-20)
(1.21425 1.05427 -7.55852e-22)
(1.14453 1.01799 1.13017e-20)
(1.07002 0.978175 -2.32029e-20)
(0.990078 0.933986 -2.92109e-22)
(0.904962 0.882662 -1.06264e-21)
(0.816594 0.820302 -5.67694e-22)
(0.742468 0.751602 1.34303e-19)
(0.694569 0.683272 0)
(0.639843 0.591152 9.93606e-20)
(0.512977 0.43745 6.78134e-20)
(0.325161 0.246072 1.59615e-19)
(0.154752 0.0874516 4.6558e-20)
(0.0334398 -0.0123761 -5.46111e-20)
(-0.0413222 -0.0645287 -3.2312e-20)
(-0.0694803 -0.068496 0)
(-0.03096 -0.0244254 9.10851e-20)
(0.234325 0.202259 -3.34925e-20)
(1.05741 0.906344 0)
(1.23784 1.07541 1.54827e-20)
(1.25069 1.10615 -1.07901e-20)
(1.20055 1.0841 2.98168e-21)
(1.13088 1.04683 -1.2119e-20)
(1.05621 1.00604 4.57127e-20)
(0.975611 0.960919 -4.40486e-21)
(0.889103 0.908586 0)
(0.798107 0.84487 -1.33224e-19)
(0.719872 0.773659 -2.95574e-19)
(0.667105 0.699764 1.20383e-20)
(0.608441 0.596753 1.39425e-19)
(0.483939 0.429312 0)
(0.30947 0.22756 1.0874e-19)
(0.157945 0.0597137 0)
(0.0571313 -0.0531501 0)
(0.00912126 -0.113584 -3.48995e-20)
(0.009015 -0.0910696 0)
(0.0142829 -0.00820146 2.45808e-20)
(0.233945 0.208821 -3.77226e-20)
(1.04888 0.931863 0)
(1.22569 1.10414 2.62871e-20)
(1.23743 1.13498 0)
(1.18734 1.11215 -2.44573e-21)
(1.11774 1.07407 0)
(1.04298 1.03248 2.28424e-21)
(0.96176 0.986662 7.91179e-21)
(0.873883 0.933635 8.62513e-21)
(0.780166 0.869006 -1.47597e-19)
(0.697403 0.795992 8.97535e-21)
(0.638601 0.717139 9.76974e-20)
(0.574273 0.602639 1.37183e-19)
(0.450025 0.419362 1.82116e-20)
(0.286319 0.204483 8.62311e-20)
(0.149204 0.0208152 0)
(0.0640012 -0.118438 1.154e-19)
(0.0368532 -0.137199 -6.77067e-20)
(0.0188133 0.02445 7.95831e-20)
(-0.0390548 0.464749 -9.45247e-20)
(0.233613 0.215226 3.14429e-20)
(1.04049 0.956017 4.67558e-20)
(1.2138 1.13128 0)
(1.22442 1.16234 9.82664e-22)
(1.17444 1.13902 8.52373e-21)
(1.10483 1.10039 1.44611e-20)
(1.03001 1.05828 1.62033e-20)
(0.948104 1.01214 0)
(0.858755 0.958869 5.75722e-20)
(0.762072 0.893959 -7.76023e-21)
(0.674088 0.820002 0)
(0.607569 0.736912 0)
(0.53473 0.609733 1.24686e-19)
(0.40779 0.407753 -5.65497e-20)
(0.251809 0.178608 -8.88084e-20)
(0.123385 -0.0251568 0)
(0.0453129 -0.0789229 5.89577e-20)
(0.000702962 0.443137 -6.82514e-20)
(0.0264569 1.95365 -3.8345e-20)
(0.0521418 2.83788 -4.71499e-20)
(0.233028 0.221146 -2.38913e-20)
(1.03231 0.978994 -6.05107e-20)
(1.20222 1.15685 1.58663e-20)
(1.21169 1.18811 1.17663e-20)
(1.16192 1.1645 0)
(1.09227 1.12551 7.97132e-21)
(1.01754 1.08312 2.24456e-20)
(0.934859 1.03693 -3.90935e-21)
(0.844036 0.983803 8.68848e-21)
(0.744275 0.919196 1.42632e-19)
(0.650652 0.845216 1.53813e-19)
(0.575108 0.75939 1.13001e-19)
(0.490464 0.619197 1.27503e-19)
(0.357365 0.394749 -1.358e-19)
(0.209858 0.15559 -1.36413e-19)
(0.0838032 0.0373573 0)
(0.0314672 0.93172 0)
(0.0757034 2.60456 3.30426e-20)
(0.0790259 3.22353 0)
(0.0814919 3.39302 8.62659e-20)
(0.235317 0.226777 0)
(1.02472 1.00121 0)
(1.19062 1.18069 0)
(1.19905 1.21215 3.7602e-21)
(1.14944 1.18836 8.05275e-21)
(1.07986 1.1493 3.35092e-21)
(1.00548 1.10693 1.46261e-20)
(0.921963 1.0609 -3.86002e-21)
(0.829671 1.00826 7.33538e-20)
(0.726788 0.944558 -1.40466e-21)
(0.627241 0.871484 3.08116e-19)
(0.541669 0.784859 -1.31799e-20)
(0.441517 0.632791 1.58151e-20)
(0.299423 0.379597 1.99496e-20)
(0.154192 0.167779 -9.73837e-22)
(0.073249 1.04854 3.35568e-22)
(0.108206 2.78922 -1.79571e-19)
(0.11252 3.30411 -6.73771e-20)
(0.106149 3.42261 3.55956e-20)
(0.0980756 3.44168 -4.0433e-20)
(0.157817 0.17183 1.4781e-20)
(1.01262 1.02537 0)
(1.17876 1.20306 -3.33145e-20)
(1.18694 1.23491 -3.31656e-20)
(1.13744 1.21106 2.21617e-20)
(1.06829 1.17223 -2.4939e-21)
(0.993625 1.12971 -1.54008e-20)
(0.909451 1.08411 4.40175e-20)
(0.815751 1.03233 -6.09465e-20)
(0.70987 0.970169 0)
(0.604248 0.898924 1.53989e-19)
(0.507903 0.813304 -9.42127e-20)
(0.393083 0.663034 0)
(0.23339 0.369714 1.98611e-20)
(0.106186 0.686052 4.59629e-20)
(0.122515 2.60578 -5.11463e-20)
(0.167135 3.3259 5.77792e-20)
(0.153169 3.42827 3.11532e-20)
(0.128496 3.44719 3.50325e-20)
(0.111188 3.45626 5.62794e-20)
(0.269495 0.263603 -2.83174e-20)
(0.993287 1.03419 0)
(1.159 1.22835 3.64486e-20)
(1.17134 1.26606 3.75667e-20)
(1.11903 1.24452 -2.67165e-20)
(1.0493 1.20597 -2.21558e-21)
(0.973394 1.16494 1.52438e-20)
(0.888454 1.12048 3.48269e-21)
(0.79287 1.07074 5.92686e-20)
(0.683023 1.0124 1.27712e-19)
(0.569323 0.94678 8.77442e-21)
(0.455291 0.859078 8.58379e-20)
(0.301166 0.6796 1.54779e-20)
(0.189968 0.823179 -1.94203e-20)
(0.196654 2.49814 -4.27454e-20)
(0.247487 3.32461 4.21187e-20)
(0.23034 3.44774 -4.62017e-20)
(0.197779 3.46786 -2.6397e-20)
(0.166081 3.4931 -2.44461e-20)
(0.122043 3.48987 -3.4936e-21)
(0.259208 0.262182 0)
(0.98944 1.05649 1.10607e-20)
(1.14945 1.2517 -7.64065e-21)
(1.15952 1.28955 -4.63753e-21)
(1.10722 1.26776 -1.92114e-20)
(1.03746 1.22935 3.23587e-21)
(0.961127 1.18846 -8.27603e-21)
(0.875741 1.14478 3.17006e-21)
(0.779139 1.09646 -6.24886e-20)
(0.666976 1.04099 -2.51002e-21)
(0.548341 0.980061 -2.84798e-19)
(0.424215 0.893728 1.23831e-20)
(0.273487 0.753251 -1.48213e-20)
(0.226272 1.51968 -1.80426e-20)
(0.291696 3.14619 3.62278e-21)
(0.302218 3.44642 -9.42043e-24)
(0.262575 3.49345 7.12672e-20)
(0.229966 3.51957 3.66257e-20)
(0.185126 3.54078 -1.29692e-20)
(0.136412 3.53892 -1.83153e-20)
(0.244886 0.259782 2.86657e-20)
(0.984621 1.08128 7.51922e-20)
(1.13949 1.27713 -2.17347e-20)
(1.14731 1.31467 -1.73127e-20)
(1.09493 1.29248 0)
(1.0252 1.25406 1.09698e-20)
(0.948735 1.21339 -8.97211e-21)
(0.863162 1.17046 2.83009e-21)
(0.765865 1.12375 -7.01131e-21)
(0.651979 1.07159 -1.18741e-19)
(0.529482 1.01615 -1.33217e-19)
(0.396563 0.93 -1.02335e-19)
(0.272955 0.914629 -1.12785e-19)
(0.295033 2.33848 1.15366e-19)
(0.374938 3.37509 9.76472e-20)
(0.343331 3.49864 0)
(0.297274 3.53903 0)
(0.261494 3.57434 -1.06098e-20)
(0.220063 3.61915 0)
(0.15139 3.60683 -1.73159e-20)
(0.234775 0.261325 -4.30245e-20)
(0.977842 1.10685 -6.40705e-20)
(1.12811 1.30377 0)
(1.1338 1.34061 1.1914e-21)
(1.08134 1.31785 -2.24816e-20)
(1.01183 1.27935 2.07666e-20)
(0.935552 1.23896 -4.05465e-21)
(0.850027 1.19676 1.73978e-21)
(0.752306 1.15167 -4.55914e-20)
(0.637187 1.10297 6.00789e-21)
(0.51191 1.0532 0)
(0.36955 0.969221 0)
(0.294711 1.23324 -1.03645e-19)
(0.37837 2.98834 4.21548e-20)
(0.440689 3.46877 5.44937e-20)