/*--------------------------------*- C++ -*----------------------------------*\
  =========                 |
  \\      /  F ield         | OpenFOAM: The Open Source CFD Toolbox
   \\    /   O peration     | Website:  https://openfoam.org
    \\  /    A nd           | Version:  6
     \\/     M anipulation  |
\*---------------------------------------------------------------------------*/
FoamFile
{
    version     2.0;
    format      ascii;
    class       volScalarField;
    location    "40";
    object      p;
}
// * * * * * * * * * * * * * * * * * * * * * * * * * * * * * * * * * * * * * //

dimensions      [0 2 -2 0 0 0 0];

internalField   nonuniform List<scalar> 
8800
(
0.865936
0.816617
0.778643
0.750562
0.730381
0.715762
0.70512
0.697524
0.692562
0.690386
0.691634
0.695874
0.70259
0.711955
0.72465
0.741942
0.7658
0.798886
0.841816
0.894327
0.700447
0.706788
0.715929
0.719466
0.716841
0.710729
0.703754
0.697461
0.692587
0.689622
0.689271
0.691778
0.696325
0.702384
0.709435
0.716434
0.721288
0.721147
0.71446
0.705554
0.673998
0.680229
0.684718
0.688573
0.691499
0.692416
0.691283
0.689097
0.687026
0.686067
0.686966
0.689303
0.692102
0.694306
0.694779
0.692955
0.689563
0.685531
0.680738
0.677021
0.669756
0.672517
0.675111
0.677249
0.67896
0.680491
0.681542
0.681822
0.681605
0.681566
0.682225
0.683244
0.683887
0.683661
0.682629
0.681232
0.679531
0.677206
0.674782
0.673215
0.664776
0.666198
0.668024
0.670082
0.671764
0.673015
0.674055
0.674951
0.675642
0.676223
0.676767
0.677083
0.676994
0.676538
0.675802
0.674635
0.672938
0.671014
0.669646
0.668843
0.659888
0.660788
0.662019
0.663621
0.665278
0.666761
0.667977
0.669001
0.669927
0.67076
0.67135
0.671574
0.671448
0.670973
0.670088
0.668835
0.667422
0.666119
0.665281
0.664758
0.655107
0.655761
0.656707
0.657996
0.659403
0.660864
0.662269
0.663522
0.66463
0.665629
0.666344
0.666628
0.666478
0.665908
0.665024
0.663999
0.662942
0.661991
0.661393
0.661011
0.650438
0.650941
0.651711
0.652822
0.654079
0.655436
0.656856
0.658273
0.659612
0.660826
0.661699
0.662049
0.661916
0.661426
0.660729
0.659934
0.659109
0.658389
0.657942
0.657646
0.645832
0.646232
0.646876
0.647866
0.649049
0.650348
0.651758
0.65326
0.654792
0.656251
0.657328
0.657821
0.657831
0.657524
0.657031
0.656429
0.655788
0.655247
0.654909
0.65467
0.641212
0.641537
0.642095
0.643008
0.644144
0.645427
0.646864
0.648449
0.65015
0.651865
0.653216
0.653952
0.654196
0.654107
0.65381
0.653398
0.652922
0.652527
0.652271
0.652075
0.636507
0.636776
0.637273
0.638138
0.639256
0.640556
0.642046
0.643743
0.645626
0.647625
0.649328
0.650405
0.650944
0.651111
0.651032
0.650807
0.650498
0.650229
0.650038
0.649871
0.631634
0.631859
0.632318
0.633166
0.634302
0.635664
0.637257
0.639123
0.641273
0.643648
0.645774
0.647235
0.648107
0.648552
0.648701
0.648667
0.648517
0.648357
0.64822
0.648076
0.626517
0.626707
0.627145
0.628009
0.62921
0.630682
0.632446
0.63456
0.63705
0.639883
0.642536
0.644471
0.645717
0.64646
0.646854
0.647009
0.647017
0.646959
0.646867
0.646741
0.621075
0.621236
0.621672
0.622578
0.623885
0.625517
0.62751
0.629954
0.632902
0.636338
0.639621
0.642089
0.643768
0.644859
0.645536
0.645914
0.646074
0.646109
0.646056
0.645942
0.615206
0.615342
0.615789
0.616765
0.618214
0.620054
0.622329
0.625165
0.62865
0.632796
0.636867
0.640028
0.642258
0.643781
0.64479
0.645412
0.645748
0.64588
0.645865
0.645761
0.608793
0.608901
0.60937
0.610441
0.612076
0.614192
0.616854
0.620201
0.624365
0.629399
0.634433
0.638413
0.641304
0.643318
0.644693
0.645604
0.646145
0.646385
0.646409
0.646312
0.601689
0.60178
0.602279
0.603476
0.605366
0.607845
0.610998
0.615016
0.620063
0.626199
0.632403
0.637377
0.64101
0.643608
0.645434
0.646662
0.64742
0.647771
0.647831
0.647737
0.593654
0.59374
0.594296
0.595655
0.597854
0.600774
0.60453
0.609366
0.615503
0.62303
0.630637
0.636778
0.641344
0.644663
0.647051
0.648677
0.649699
0.650176
0.650275
0.650182
0.58443
0.58449
0.585119
0.586689
0.589284
0.592764
0.597291
0.603149
0.610593
0.619767
0.629144
0.636769
0.642449
0.646629
0.649708
0.65182
0.653153
0.653778
0.653917
0.653822
0.57366
0.573704
0.574431
0.576279
0.579378
0.583607
0.589153
0.596375
0.605587
0.61689
0.628316
0.637583
0.644553
0.649728
0.653565
0.656272
0.657982
0.658772
0.658949
0.658846
0.560778
0.560813
0.56167
0.563884
0.567642
0.572826
0.579663
0.588569
0.599883
0.613718
0.62771
0.639041
0.647575
0.653968
0.658752
0.662171
0.66433
0.665307
0.665517
0.665399
0.544958
0.544993
0.546054
0.548805
0.553487
0.560001
0.568617
0.579813
0.593914
0.610913
0.627867
0.641486
0.651757
0.659521
0.665402
0.669628
0.672287
0.673458
0.673691
0.673551
0.524997
0.525044
0.526447
0.530037
0.536095
0.54452
0.555595
0.569808
0.587397
0.608218
0.628641
0.644912
0.657168
0.666473
0.673551
0.678692
0.681876
0.68323
0.683474
0.683305
0.499081
0.499171
0.501173
0.506157
0.514383
0.525675
0.540259
0.558533
0.580535
0.605905
0.630276
0.649459
0.663876
0.674868
0.683258
0.689365
0.693067
0.694572
0.694808
0.694606
0.464165
0.464401
0.467636
0.47522
0.487183
0.502916
0.522552
0.546196
0.573633
0.604275
0.633001
0.655301
0.672006
0.684778
0.69455
0.701633
0.705786
0.707378
0.70758
0.707343
0.414505
0.415633
0.422148
0.435094
0.453562
0.476158
0.502776
0.533202
0.567038
0.60356
0.636947
0.662511
0.681566
0.696144
0.707366
0.715375
0.719876
0.721463
0.7216
0.721327
0.341631
0.34908
0.364099
0.386878
0.415039
0.44684
0.481976
0.520218
0.561185
0.604172
0.642673
0.671841
0.693574
0.710266
0.723131
0.732141
0.737043
0.738698
0.738831
0.738597
0.263973
0.2801
0.304499
0.337819
0.376245
0.417421
0.461184
0.507485
0.55606
0.606313
0.651022
0.684885
0.710199
0.729743
0.744845
0.755225
0.760576
0.762256
0.762425
0.762322
0.197596
0.217356
0.249603
0.291918
0.339385
0.389385
0.441528
0.495751
0.551771
0.609066
0.65968
0.697921
0.726514
0.748648
0.765682
0.777006
0.782665
0.784512
0.784728
0.784698
0.143408
0.165381
0.202954
0.251735
0.306249
0.363616
0.423163
0.484652
0.54767
0.611616
0.667766
0.710052
0.741616
0.765948
0.784502
0.796892
0.80335
0.805278
0.805522
0.805545
0.0983614
0.121636
0.163028
0.21684
0.277017
0.340446
0.406302
0.474193
0.54357
0.613671
0.674967
0.720932
0.755157
0.781401
0.80123
0.814607
0.821654
0.823821
0.824199
0.82425
0.0597628
0.0838352
0.128052
0.185945
0.250871
0.319469
0.390776
0.464327
0.539442
0.615182
0.681216
0.730564
0.767082
0.794864
0.815606
0.829609
0.837175
0.839765
0.840265
0.840337
0.0256117
0.0502266
0.0966656
0.157957
0.226954
0.300056
0.376195
0.454846
0.535195
0.616169
0.686596
0.739036
0.77755
0.806487
0.827898
0.842374
0.850329
0.853277
0.853917
0.853995
-0.00551092
0.0195471
0.06784
0.132051
0.20459
0.281654
0.36214
0.445453
0.53068
0.616594
0.691198
0.746472
0.786738
0.816646
0.838624
0.853484
0.861733
0.864911
0.8656
0.865655
-0.0345117
-0.00904039
0.0408252
0.107619
0.183285
0.263876
0.348286
0.4359
0.525729
0.616369
0.695014
0.752994
0.79486
0.825618
0.848031
0.86314
0.871565
0.874853
0.875562
0.875581
-0.0620859
-0.0361551
0.0151463
0.0842413
0.162679
0.246432
0.33441
0.426004
0.520178
0.615402
0.69802
0.758676
0.80211
0.833716
0.85655
0.87186
0.880358
0.883735
0.884466
0.884454
-0.0885268
-0.0621713
-0.00954716
0.0616018
0.142522
0.229119
0.320351
0.415628
0.513915
0.613598
0.700189
0.763572
0.808646
0.841163
0.864464
0.87998
0.888512
0.891816
0.892546
0.892532
-0.114198
-0.08732
-0.033498
0.0394991
0.122646
0.211805
0.306007
0.404694
0.506855
0.610869
0.701478
0.767735
0.814596
0.848135
0.871946
0.887645
0.896183
0.899427
0.900061
0.899994
-0.139184
-0.111767
-0.0568255
0.0178222
0.102949
0.194417
0.291323
0.393154
0.498947
0.60716
0.701858
0.771196
0.820051
0.854744
0.879129
0.895004
0.903475
0.906592
0.907126
0.906994
-0.163579
-0.135599
-0.0796175
-0.00348183
0.0834004
0.176935
0.276286
0.380989
0.490169
0.602422
0.701267
0.773935
0.825057
0.861088
0.886105
0.902111
0.910417
0.913321
0.913723
0.913542
-0.187469
-0.158898
-0.101894
-0.02443
0.0639919
0.159373
0.260921
0.368227
0.480523
0.596617
0.699626
0.775885
0.829629
0.867253
0.892964
0.909019
0.917035
0.919627
0.91989
0.919673
-0.210898
-0.181641
-0.123655
-0.0450161
0.0447646
0.141772
0.245279
0.354911
0.470033
0.589714
0.696852
0.77694
0.833731
0.873333
0.899853
0.915797
0.923296
0.925472
0.925584
0.925343
-0.233707
-0.203805
-0.144887
-0.0652151
0.0257621
0.124203
0.229424
0.341116
0.458758
0.581731
0.692872
0.776979
0.837259
0.879388
0.90701
0.922661
0.929267
0.930824
0.930765
0.930518
-0.255868
-0.225347
-0.165563
-0.0849737
0.00704736
0.106732
0.213449
0.326921
0.446777
0.572695
0.687636
0.775861
0.840027
0.885371
0.914739
0.930111
0.935248
0.935718
0.935397
0.935188
-0.277444
-0.24624
-0.185656
-0.104251
-0.0113125
0.0894463
0.197446
0.312433
0.434187
0.562674
0.6811
0.773446
0.84178
0.891024
0.923222
0.939018
0.942261
0.940617
0.939503
0.939493
-0.298274
-0.266461
-0.205113
-0.122982
-0.0292556
0.0724327
0.181516
0.297764
0.421108
0.551774
0.673254
0.769593
0.842238
0.89583
0.932135
0.950183
0.952544
0.947945
0.943923
0.942046
-0.318457
-0.286011
-0.223944
-0.141198
-0.046818
0.0556464
0.165602
0.282852
0.407463
0.539924
0.663944
0.764036
0.841098
0.899141
0.940429
0.96327
0.968028
0.962469
0.951131
0.949671
-0.337906
-0.30497
-0.242288
-0.159102
-0.0643033
0.0387373
0.149273
0.267186
0.392677
0.526454
0.652467
0.755935
0.83773
0.9
0.945787
0.974696
0.983224
0.97447
0.956525
0.951352
-0.35648
-0.323297
-0.259972
-0.17649
-0.0814558
0.0220137
0.132748
0.251103
0.377065
0.51164
0.638946
0.744802
0.831525
0.897273
0.943523
0.972129
0.984748
0.96327
0.90409
0.87764
-0.374053
-0.341778
-0.2766
-0.192853
-0.0975789
0.00596348
0.116299
0.234876
0.360909
0.495669
0.623477
0.73019
0.821687
0.89041
0.929214
0.951225
0.94806
0.901315
0.839673
0.801612
-0.418186
-0.359592
-0.292063
-0.208814
-0.113451
-0.0103326
0.100061
0.218389
0.344018
0.478223
0.605715
0.711691
0.804869
0.878211
0.90279
0.900134
0.863172
0.804172
0.737222
0.700315
-0.393265
-0.37508
-0.315391
-0.232225
-0.137596
-0.0347459
0.0748928
0.192441
0.316921
0.449306
0.574644
0.67773
0.762323
0.84002
0.832351
0.735478
0.652233
0.594247
0.532934
0.562984
-0.425067
-0.393301
-0.332827
-0.250207
-0.15575
-0.0532394
0.0564911
0.173326
0.29667
0.42709
0.549543
0.648859
0.723844
0.766162
0.723681
0.593628
0.491233
0.422195
0.342683
0.391562
-0.449876
-0.415589
-0.353282
-0.270528
-0.176172
-0.0737804
0.035803
0.151788
0.273679
0.401568
0.520116
0.613576
0.676896
0.683742
0.586416
0.438219
0.314612
0.226386
0.133117
0.167677
-0.47411
-0.438656
-0.374899
-0.29149
-0.197041
-0.0947981
0.0142728
0.129249
0.24947
0.37446
0.48823
0.574927
0.621699
0.597093
0.447337
0.276078
0.120499
-0.0101022
-0.132269
-0.116236
-0.498099
-0.462164
-0.397447
-0.313456
-0.218831
-0.116794
-0.00837231
0.105458
0.223745
0.345469
0.453799
0.533208
0.560401
0.494726
0.311078
0.118581
-0.06528
-0.216571
-0.421287
-0.500417
-0.522522
-0.486574
-0.421262
-0.336828
-0.242005
-0.140121
-0.032281
0.080382
0.196628
0.314869
0.41745
0.487758
0.492185
0.374803
0.187039
-0.0185272
-0.207855
-0.367907
-0.491052
-0.612484
-0.54846
-0.512371
-0.446702
-0.362
-0.267109
-0.165468
-0.0583077
0.0530154
0.166884
0.281113
0.377492
0.436145
0.414639
0.260259
0.0708793
-0.128733
-0.301362
-0.397072
-0.423089
-0.43684
-0.576049
-0.539839
-0.473898
-0.389076
-0.294292
-0.193058
-0.0868251
0.0228449
0.133889
0.243378
0.333038
0.375624
0.335299
0.150464
-0.0374248
-0.216883
-0.346746
-0.383962
-0.393095
-0.393382
-0.605569
-0.569098
-0.502887
-0.418037
-0.323495
-0.222892
-0.117849
-0.0101826
0.0975746
0.201602
0.283543
0.310611
0.241259
0.0497905
-0.132099
-0.287994
-0.360336
-0.374336
-0.375599
-0.375505
-0.637026
-0.600188
-0.533677
-0.448867
-0.354723
-0.254945
-0.151374
-0.0460832
0.0579498
0.15586
0.228744
0.241519
0.134587
-0.0420699
-0.213759
-0.337433
-0.365344
-0.365975
-0.366386
-0.365968
-0.67016
-0.632921
-0.566147
-0.481469
-0.387868
-0.289146
-0.187354
-0.0848303
0.0150574
0.106273
0.169559
0.163243
0.0374026
-0.128086
-0.277907
-0.348036
-0.363374
-0.36228
-0.362101
-0.361509
-0.704381
-0.666937
-0.600016
-0.515589
-0.422716
-0.325307
-0.225599
-0.126283
-0.0308949
0.0532046
0.106351
0.0823483
-0.0551673
-0.205837
-0.322141
-0.356727
-0.3579
-0.360432
-0.360788
-0.360495
-0.73925
-0.701689
-0.634785
-0.55078
-0.458871
-0.363063
-0.265775
-0.170107
-0.0796511
-0.00253349
0.0377234
0.00211116
-0.144237
-0.2717
-0.352745
-0.360415
-0.36092
-0.359254
-0.358721
-0.358823
-0.773746
-0.736258
-0.669674
-0.586359
-0.495728
-0.401873
-0.307358
-0.215697
-0.13084
-0.0600204
-0.0317524
-0.0833052
-0.232067
-0.328495
-0.368366
-0.380189
-0.370602
-0.362902
-0.359741
-0.358946
-0.806047
-0.769348
-0.703621
-0.621383
-0.532434
-0.440935
-0.349612
-0.262145
-0.183637
-0.118856
-0.0978372
-0.177311
-0.325236
-0.401049
-0.396641
-0.397852
-0.397707
-0.393926
-0.388241
-0.385054
-0.835052
-0.799433
-0.735196
-0.6546
-0.567848
-0.479177
-0.391519
-0.308405
-0.236387
-0.178754
-0.162031
-0.263382
-0.428877
-0.520105
-0.503019
-0.473167
-0.449736
-0.440447
-0.436132
-0.433663
-0.85806
-0.824395
-0.762619
-0.684436
-0.60055
-0.515284
-0.431679
-0.353391
-0.286956
-0.237903
-0.224489
-0.3255
-0.519374
-0.682807
-0.651086
-0.57494
-0.526915
-0.507324
-0.499692
-0.495472
-0.872978
-0.842083
-0.783785
-0.709088
-0.628913
-0.547707
-0.468457
-0.395501
-0.333796
-0.292111
-0.279366
-0.353281
-0.513704
-0.74032
-0.725111
-0.637461
-0.609166
-0.595584
-0.58357
-0.57972
-0.877093
-0.850101
-0.796583
-0.726632
-0.651231
-0.574738
-0.500375
-0.432126
-0.376024
-0.337629
-0.319847
-0.349503
-0.334222
-0.445895
-0.48504
-0.574732
-0.608254
-0.603757
-0.601703
-0.601508
-0.868543
-0.846249
-0.798966
-0.735248
-0.66584
-0.594956
-0.525745
-0.461536
-0.410408
-0.37584
-0.343939
-0.350119
-0.147821
0.0549082
-0.133103
-0.451421
-0.586212
-0.595569
-0.597514
-0.597955
-0.844221
-0.827453
-0.789016
-0.733752
-0.671476
-0.607271
-0.54299
-0.483556
-0.433108
-0.404262
-0.386134
-0.422812
-0.343988
-0.161316
-0.415201
-0.637025
-0.681366
-0.63291
-0.621246
-0.632273
-0.807225
-0.796159
-0.767428
-0.722289
-0.668254
-0.61065
-0.5521
-0.495569
-0.447216
-0.416251
-0.44476
-0.621465
-1.06346
-1.43971
-1.703
-1.75826
-1.58446
-1.34757
-1.13854
-1.10293
-0.763629
-0.757276
-0.738781
-0.703627
-0.657979
-0.606153
-0.55198
-0.497271
-0.449453
-0.422014
-0.43202
-0.72112
-1.3292
-2.02522
-2.17988
-2.18459
-2.05936
-1.87301
-1.6852
-1.57932
-0.722587
-0.71898
-0.709016
-0.683083
-0.643735
-0.596027
-0.543355
-0.488381
-0.43518
-0.392612
-0.381877
-0.50802
-0.833784
-1.22008
-1.43466
-1.34232
-1.19805
-0.990893
-0.851829
-0.761631
-0.691049
-0.688944
-0.683947
-0.665515
-0.630642
-0.583486
-0.529323
-0.468645
-0.399057
-0.330943
-0.252445
-0.180275
-0.0159587
0.276429
0.583871
0.901408
1.22903
1.43408
1.50034
1.53035
-0.666086
-0.665243
-0.663863
-0.653048
-0.622141
-0.573526
-0.512302
-0.442369
-0.361792
-0.256714
-0.154683
0.019895
0.306663
0.753286
1.30405
1.81735
2.1799
2.3425
2.41801
2.44513
-0.650653
-0.650117
-0.649821
-0.644325
-0.617907
-0.567239
-0.49903
-0.415881
-0.325473
-0.214448
-0.0951798
0.0356952
0.323223
0.799461
1.36153
1.8524
2.18788
2.39085
2.49044
2.51721
-0.641058
-0.640171
-0.63942
-0.638297
-0.618223
-0.565835
-0.49001
-0.399653
-0.29777
-0.195166
-0.0767834
0.00881384
0.239315
0.674217
1.11622
1.50494
1.80778
1.99337
2.0726
2.09343
-0.641499
-0.639498
-0.638142
-0.639939
-0.625182
-0.568651
-0.482025
-0.387306
-0.283468
-0.178181
-0.0788752
0.00864695
0.117039
0.472389
0.836526
1.14091
1.35664
1.47497
1.52896
1.54411
-0.656585
-0.656144
-0.659881
-0.663649
-0.641849
-0.569747
-0.470417
-0.36891
-0.269379
-0.164321
-0.0744178
0.0155042
0.1097
0.354496
0.615735
0.825684
0.967097
1.04919
1.08458
1.09396
-0.66231
-0.667714
-0.677718
-0.677755
-0.64148
-0.55139
-0.44408
-0.343559
-0.247328
-0.152137
-0.0655692
0.00825558
0.0870467
0.234233
0.411977
0.560173
0.664747
0.726168
0.753824
0.76133
-0.600074
-0.608113
-0.619306
-0.616693
-0.574275
-0.485974
-0.392262
-0.304475
-0.220514
-0.139606
-0.0639958
0.0053422
0.0563474
0.170522
0.304939
0.405714
0.474223
0.516108
0.534982
0.537684
-0.440043
-0.447269
-0.455856
-0.45378
-0.424016
-0.370479
-0.311882
-0.249248
-0.188076
-0.123538
-0.0645848
-0.000862025
0.0427436
0.0957685
0.191239
0.26909
0.322529
0.355568
0.367178
0.368459
-0.24207
-0.246172
-0.252769
-0.257539
-0.253367
-0.23911
-0.216498
-0.186515
-0.149902
-0.104867
-0.0623835
-0.0194233
0.0245385
0.0488737
0.109351
0.163454
0.206748
0.233999
0.245636
0.245818
-0.0860067
-0.0880023
-0.093823
-0.105511
-0.119772
-0.131113
-0.135046
-0.130019
-0.115036
-0.0884364
-0.0615719
-0.0359391
-0.00558499
0.0134315
0.0517685
0.0875165
0.115494
0.132592
0.137409
0.136642
-0.00119729
-0.00247129
-0.00793833
-0.0214921
-0.0421092
-0.063191
-0.0789618
-0.0871713
-0.0861974
-0.0760297
-0.0625891
-0.0527355
-0.0416385
-0.0371247
-0.00795649
0.0191809
0.0395833
0.0500257
0.0529173
0.0513503
0.0308331
0.0298835
0.0254366
0.0137897
-0.0048265
-0.0255921
-0.0439516
-0.0579988
-0.0649836
-0.0667986
-0.0668707
-0.07356
-0.0841973
-0.0873705
-0.0618491
-0.0401677
-0.0245003
-0.0180332
-0.0162932
-0.017293
0.0353347
0.0346607
0.0314822
0.0229756
0.00871267
-0.00833317
-0.0251449
-0.0392918
-0.0507113
-0.0588447
-0.0688337
-0.0861652
-0.103733
-0.103957
-0.0859241
-0.0712801
-0.0631552
-0.0608485
-0.0608282
-0.0615015
0.0284
0.0279313
0.0258134
0.0201142
0.0102809
-0.00238699
-0.0157774
-0.0283782
-0.0399122
-0.0509277
-0.0634431
-0.0854035
-0.103026
-0.0991513
-0.0858696
-0.0776129
-0.0757467
-0.0772733
-0.0782524
-0.0787562
0.0182626
0.0179276
0.0165701
0.0130049
0.00656868
-0.00205319
-0.0119642
-0.0218404
-0.0316262
-0.0418028
-0.0523378
-0.0698944
-0.0808194
-0.0738616
-0.0671379
-0.0662617
-0.0685277
-0.071153
-0.0722392
-0.0726764
0.00869959
0.00845328
0.0076174
0.00554321
0.00159276
-0.00387561
-0.0107899
-0.0176319
-0.0251722
-0.0318157
-0.0371891
-0.0438978
-0.0441655
-0.0382045
-0.0374446
-0.0414638
-0.045866
-0.0486103
-0.0495498
-0.0500819
0.00112989
0.000931548
0.000401369
-0.000786655
-0.00304525
-0.00652957
-0.0109193
-0.0157302
-0.0205756
-0.0230075
-0.021253
-0.0144401
-0.0046377
-8.11079e-05
-0.00528381
-0.0122669
-0.0164729
-0.0177533
-0.0182068
-0.0189924
-0.0041126
-0.00427998
-0.00465487
-0.005377
-0.00671466
-0.00887568
-0.0117564
-0.0150932
-0.0177598
-0.017807
-0.0103839
0.0086167
0.0291667
0.0288309
0.0180163
0.0103149
0.00859189
0.00917347
0.00909944
0.00795063
-0.00730018
-0.00744599
-0.00775234
-0.0082916
-0.00919375
-0.0107247
-0.012801
-0.0157298
-0.0178328
-0.0180274
-0.00944063
0.0117941
0.0339327
0.0302347
0.0204828
0.0176478
0.017766
0.0204136
0.0205512
0.0192637
-0.00895226
-0.00907668
-0.00935868
-0.00989202
-0.0106731
-0.0120292
-0.0139099
-0.0168163
-0.019807
-0.0229281
-0.0200768
-0.00646227
0.00733398
0.00322544
-0.00094348
0.000887011
0.00805933
0.0120355
0.0119946
0.0105493
-0.00956712
-0.00969984
-0.00998018
-0.0105332
-0.0113536
-0.0125812
-0.0146735
-0.0176889
-0.0224023
-0.0306033
-0.0388521
-0.0425491
-0.0492027
-0.0511873
-0.0433915
-0.0316644
-0.0221057
-0.0177059
-0.0176933
-0.0186549
-0.00915511
-0.00929539
-0.00954905
-0.0100831
-0.0108969
-0.0122075
-0.0143143
-0.0174006
-0.0236723
-0.0371258
-0.0574268
-0.0859454
-0.115458
-0.112971
-0.0894618
-0.0693255
-0.0583742
-0.0541639
-0.053963
-0.0543939
-0.00779214
-0.00790157
-0.00808224
-0.00853587
-0.00935004
-0.0106288
-0.0125991
-0.0160185
-0.02299
-0.037317
-0.0639273
-0.106212
-0.146337
-0.138069
-0.11083
-0.0917961
-0.085992
-0.0843618
-0.0830391
-0.0825318
-0.00588185
-0.00597971
-0.00610605
-0.00638826
-0.00704751
-0.00810853
-0.00974018
-0.0126995
-0.0185455
-0.0306757
-0.0543801
-0.0887978
-0.115529
-0.104715
-0.0893031
-0.0837835
-0.0837872
-0.084697
-0.0832833
-0.082558
-0.00350911
-0.00362711
-0.00370515
-0.00383602
-0.00427806
-0.00482542
-0.00590131
-0.00758062
-0.0119842
-0.0201234
-0.0314141
-0.0473536
-0.0570707
-0.0526099
-0.051427
-0.0513571
-0.0547325
-0.0565676
-0.0560191
-0.0556213
-0.000477264
-0.000559179
-0.000651159
-0.000723906
-0.000763506
-0.000997339
-0.00129908
-0.00129762
-0.00147103
-0.00328005
-0.00407932
-0.0042234
-0.00563396
-0.00635648
-0.0105608
-0.0147779
-0.0180389
-0.0157693
-0.014202
-0.0129956
0.0197518
0.211421
0.388145
0.538523
0.660599
0.75864
0.841042
0.907837
0.924999
0.921025
0.317297
0.441192
0.557573
0.659344
0.745719
0.817559
0.874312
0.912648
0.93308
0.949506
0.519659
0.602406
0.684448
0.756889
0.819005
0.870622
0.911223
0.942022
0.965018
0.984247
0.668856
0.727105
0.7867
0.840346
0.886673
0.925996
0.958868
0.986315
1.00693
1.02586
0.786937
0.831408
0.87615
0.917524
0.95428
0.986687
1.01496
1.03885
1.05701
1.07507
0.887823
0.923875
0.959297
0.993571
1.02512
1.05363
1.07877
1.09984
1.11575
1.13325
0.976595
1.00913
1.04166
1.07308
1.10232
1.1289
1.15219
1.17125
1.18526
1.2023
1.06415
1.09694
1.12957
1.16093
1.18984
1.21576
1.23801
1.25563
1.26808
1.28463
1.15887
1.19535
1.23023
1.2628
1.29208
1.31753
1.33874
1.3551
1.36677
1.38293
1.27208
1.31263
1.34975
1.38284
1.41142
1.43549
1.45517
1.47049
1.48243
1.49852
1.41345
1.45465
1.48997
1.51964
1.54491
1.56656
1.5851
1.60061
1.61375
1.62971
1.58515
1.61774
1.6446
1.66692
1.68702
1.70577
1.72353
1.74031
1.75524
1.77097
1.77161
1.78891
1.80605
1.82274
1.83885
1.85359
1.8675
1.88199
1.89724
1.91454
1.95499
1.965
1.97822
1.98922
1.99862
2.00829
2.0189
2.02909
2.03839
2.06405
2.17295
2.16725
2.15431
2.14005
2.13375
2.13948
2.15762
2.18615
2.21992
2.25624
2.47576
2.3398
2.26031
2.21781
2.2005
2.20447
2.2319
2.28977
2.39744
2.57584
0.769632
0.763327
0.755592
0.744469
0.730885
0.718219
0.707796
0.699745
0.693974
0.690575
0.690137
0.692887
0.698053
0.705361
0.714875
0.726681
0.740227
0.753145
0.762126
0.769663
0.678721
0.684638
0.692706
0.698828
0.701883
0.701352
0.69824
0.694205
0.69056
0.688201
0.687979
0.690144
0.693828
0.698222
0.702287
0.704505
0.703413
0.698762
0.691699
0.68386
0.67201
0.674382
0.677643
0.680404
0.682839
0.685007
0.686155
0.685966
0.684967
0.68408
0.684197
0.685517
0.687225
0.688396
0.688277
0.686777
0.684594
0.682214
0.679219
0.676195
0.667274
0.668362
0.670272
0.672597
0.67445
0.675823
0.677006
0.677949
0.678479
0.678762
0.679207
0.67985
0.680234
0.680049
0.679367
0.678404
0.677044
0.675051
0.672928
0.671445
0.66232
0.662954
0.664076
0.66582
0.667642
0.669206
0.670416
0.671422
0.672321
0.67311
0.673769
0.674171
0.674213
0.673927
0.673328
0.672305
0.670839
0.6692
0.667842
0.667035
0.657485
0.657925
0.658707
0.659996
0.661496
0.663027
0.664457
0.665686
0.666748
0.667711
0.668516
0.668973
0.66903
0.668698
0.667956
0.666894
0.66569
0.664507
0.66358
0.663041
0.652764
0.653092
0.653698
0.654752
0.656022
0.657386
0.658811
0.660209
0.661496
0.662655
0.663625
0.664193
0.664269
0.663901
0.663205
0.662339
0.661427
0.660524
0.659832
0.659436
0.648136
0.64839
0.648879
0.649775
0.650923
0.652193
0.65356
0.655005
0.656472
0.657879
0.659067
0.659759
0.659902
0.659643
0.659129
0.658474
0.657754
0.65706
0.656542
0.656238
0.643533
0.643736
0.644142
0.644929
0.645997
0.647217
0.648566
0.65005
0.651639
0.653252
0.654689
0.65561
0.65595
0.655891
0.655579
0.655118
0.65458
0.65406
0.653675
0.653435
0.638881
0.639043
0.63939
0.640106
0.64113
0.642328
0.643695
0.645246
0.646965
0.648804
0.650543
0.651763
0.652383
0.652574
0.652481
0.652214
0.651854
0.651484
0.651207
0.651016
0.634101
0.634232
0.634538
0.635209
0.636214
0.637434
0.638856
0.640508
0.642403
0.644507
0.646608
0.648221
0.649181
0.649665
0.64982
0.649758
0.649573
0.649347
0.649159
0.649005
0.629115
0.629219
0.629495
0.630148
0.631171
0.632454
0.633985
0.635806
0.637952
0.640414
0.642971
0.645044
0.646393
0.647195
0.64761
0.647763
0.647749
0.64766
0.647549
0.647426
0.623846
0.623928
0.624188
0.624849
0.62593
0.627324
0.629019
0.631085
0.633575
0.636502
0.639627
0.642253
0.644047
0.645202
0.645902
0.646286
0.64645
0.646484
0.646441
0.646342
0.618204
0.618265
0.618517
0.619206
0.620377
0.621923
0.623831
0.626199
0.62911
0.632606
0.636432
0.639732
0.642076
0.643671
0.644716
0.645371
0.645733
0.645901
0.645921
0.645842
0.612076
0.612116
0.612366
0.613102
0.614397
0.616143
0.618335
0.621081
0.624515
0.628714
0.633395
0.637524
0.640541
0.642669
0.644115
0.645071
0.645672
0.64598
0.646066
0.646007
0.605347
0.60536
0.605609
0.606415
0.607873
0.609883
0.612447
0.615709
0.619812
0.624869
0.630596
0.635757
0.639587
0.642325
0.644228
0.645532
0.646402
0.64687
0.647023
0.64698
0.597801
0.59781
0.598073
0.598969
0.600641
0.60299
0.606023
0.609923
0.614907
0.621114
0.628151
0.634479
0.639229
0.642695
0.645161
0.646893
0.648066
0.648705
0.648927
0.648899
0.589198
0.589175
0.589476
0.590499
0.592444
0.595203
0.598812
0.603494
0.609491
0.617008
0.625623
0.633476
0.639422
0.643797
0.646964
0.649243
0.650787
0.651634
0.651937
0.651923
0.579241
0.579195
0.579539
0.58073
0.583009
0.586308
0.590683
0.596404
0.603779
0.613023
0.623585
0.633188
0.640471
0.645887
0.649876
0.652787
0.654765
0.655855
0.656244
0.65624
0.567471
0.567403
0.567817
0.569235
0.57195
0.575948
0.581306
0.588343
0.59742
0.608788
0.621725
0.633445
0.642363
0.649031
0.653988
0.657651
0.660165
0.661543
0.662024
0.662024
0.553201
0.553114
0.553647
0.555378
0.558666
0.563591
0.57025
0.579014
0.590283
0.604281
0.620097
0.634341
0.645157
0.653284
0.659403
0.663965
0.667114
0.668819
0.669392
0.669387
0.535424
0.535323
0.536054
0.538265
0.542409
0.54868
0.557179
0.568309
0.582474
0.599813
0.619053
0.636163
0.649096
0.658865
0.666283
0.671833
0.675677
0.677722
0.678378
0.678358
0.512657
0.512559
0.513627
0.516609
0.522075
0.530351
0.541473
0.555823
0.573716
0.595119
0.6184
0.638814
0.654153
0.665744
0.674601
0.681279
0.68586
0.688237
0.688956
0.688912
0.482553
0.482506
0.484188
0.488532
0.496275
0.507741
0.522772
0.541617
0.564353
0.590718
0.618617
0.642627
0.660541
0.674078
0.684467
0.692323
0.697632
0.700287
0.701036
0.70096
0.441
0.441162
0.444202
0.451391
0.463375
0.480084
0.500932
0.525843
0.554607
0.58675
0.619786
0.647673
0.668296
0.683863
0.695862
0.704934
0.710893
0.713719
0.714445
0.714331
0.380322
0.381654
0.389064
0.402747
0.42249
0.447528
0.476578
0.5092
0.545095
0.583701
0.622223
0.654108
0.677483
0.695091
0.708662
0.718864
0.72538
0.728215
0.728813
0.728662
0.307302
0.309971
0.324348
0.348022
0.378454
0.413378
0.451357
0.492235
0.535829
0.58166
0.626684
0.663693
0.690842
0.711407
0.727195
0.738895
0.746184
0.749253
0.749965
0.74995
0.232543
0.239542
0.261091
0.294683
0.335436
0.380004
0.426935
0.476138
0.527533
0.580712
0.632434
0.674791
0.705857
0.7295
0.74786
0.761327
0.769301
0.772246
0.772831
0.772921
0.171862
0.180624
0.206879
0.247531
0.296277
0.348982
0.403964
0.460985
0.519825
0.580069
0.638164
0.685507
0.720194
0.746567
0.766992
0.781757
0.790149
0.793429
0.794463
0.794644
0.122116
0.131574
0.161304
0.207153
0.261979
0.321193
0.382935
0.446817
0.512436
0.579233
0.643302
0.695265
0.73323
0.762032
0.784185
0.80011
0.809398
0.813343
0.814572
0.814771
0.0802458
0.0899973
0.122095
0.171994
0.231777
0.29639
0.363851
0.43367
0.505337
0.578118
0.647683
0.703919
0.744821
0.77573
0.799304
0.816212
0.826268
0.830701
0.832082
0.832285
0.0437519
0.0536417
0.0875195
0.140671
0.204596
0.273839
0.346275
0.42134
0.498444
0.576691
0.651333
0.711492
0.755049
0.787646
0.812237
0.829767
0.84048
0.84535
0.846893
0.847128
0.0110189
0.0209662
0.0562527
0.112114
0.179583
0.252847
0.329687
0.409491
0.491563
0.574892
0.65431
0.718112
0.76404
0.798054
0.823448
0.841509
0.852679
0.857891
0.859552
0.859796
-0.0191121
-0.00912097
0.0272852
0.0855276
0.156096
0.232894
0.313667
0.397781
0.484472
0.572608
0.656591
0.723862
0.771952
0.807207
0.833262
0.851735
0.863181
0.868662
0.870373
0.870606
-0.0474704
-0.0374155
2.00507e-05
0.0603638
0.133668
0.213609
0.297914
0.385971
0.476981
0.569703
0.658123
0.728781
0.778942
0.815363
0.842005
0.8608
0.872406
0.877968
0.879702
0.879942
-0.0745219
-0.064388
-0.0260043
0.0362238
0.111961
0.194715
0.282215
0.373893
0.468934
0.566057
0.65884
0.732878
0.785132
0.822746
0.850016
0.869132
0.880876
0.886487
0.888199
0.888328
-0.100643
-0.0903611
-0.051092
0.0128367
0.0907487
0.176024
0.266423
0.361424
0.46024
0.561567
0.658669
0.736163
0.79062
0.829529
0.857502
0.876948
0.888802
0.894354
0.896009
0.896133
-0.126058
-0.115545
-0.0754369
-0.00996771
0.0698893
0.15742
0.25045
0.348504
0.450827
0.55617
0.657549
0.738639
0.795493
0.835846
0.864606
0.884398
0.896333
0.901816
0.903362
0.903439
-0.15083
-0.140063
-0.0991397
-0.0322789
0.049305
0.138854
0.234257
0.335097
0.440666
0.549814
0.65543
0.740286
0.799783
0.841784
0.87144
0.891597
0.903542
0.908862
0.910264
0.910275
-0.175041
-0.164011
-0.122306
-0.0541335
0.0289736
0.120312
0.217846
0.321207
0.429758
0.542481
0.652249
0.741039
0.803485
0.847412
0.878098
0.898605
0.910474
0.915546
0.91674
0.916671
-0.19872
-0.187406
-0.144909
-0.0755455
0.00889989
0.101821
0.201259
0.306878
0.418129
0.53416
0.647945
0.740799
0.806542
0.852774
0.884693
0.905516
0.917128
0.921791
0.922743
0.922611
-0.221917
-0.210253
-0.166936
-0.096504
-0.0108858
0.0834265
0.184547
0.292174
0.405832
0.524868
0.642474
0.739462
0.808847
0.857876
0.891378
0.912502
0.923583
0.927606
0.928251
0.928061
-0.244405
-0.232499
-0.188377
-0.116983
-0.0303279
0.0652085
0.167782
0.277167
0.392945
0.514665
0.635813
0.736934
0.810252
0.862628
0.898314
0.919914
0.930091
0.933036
0.933222
0.932985
-0.266347
-0.254092
-0.209198
-0.136947
-0.0493865
0.0472129
0.151063
0.261946
0.379557
0.503636
0.627972
0.733115
0.810564
0.866807
0.905538
0.928278
0.937355
0.938448
0.937685
0.937377
-0.287562
-0.275
-0.229384
-0.156346
-0.067977
0.0295296
0.134476
0.246635
0.365781
0.491858
0.618993
0.727916
0.809588
0.870063
0.912763
0.938029
0.946771
0.945353
0.942285
0.941367
-0.30815
-0.295246
-0.248876
-0.175124
-0.0860598
0.0122305
0.118112
0.231319
0.351732
0.479473
0.608957
0.721252
0.807136
0.871963
0.919218
0.948789
0.959645
0.957245
0.950385
0.940435
-0.327995
-0.314826
-0.267778
-0.193455
-0.103866
-0.0049825
0.101614
0.215572
0.336931
0.465945
0.597301
0.712485
0.802661
0.87202
0.923879
0.959101
0.975391
0.974639
0.964059
0.960393
-0.347056
-0.333823
-0.286081
-0.211272
-0.121372
-0.0220826