/*--------------------------------*- C++ -*----------------------------------*\
  =========                 |
  \\      /  F ield         | OpenFOAM: The Open Source CFD Toolbox
   \\    /   O peration     | Website:  https://openfoam.org
    \\  /    A nd           | Version:  6
     \\/     M anipulation  |
\*---------------------------------------------------------------------------*/
FoamFile
{
    version     2.0;
    format      ascii;
    class       volScalarField;
    location    "1";
    object      p;
}
// * * * * * * * * * * * * * * * * * * * * * * * * * * * * * * * * * * * * * //

dimensions      [0 2 -2 0 0 0 0];

internalField   nonuniform List<scalar> 
2200
(
1.78972
1.77555
1.76164
1.74876
1.73699
1.72655
1.71751
1.70998
1.70423
1.70084
1.70095
1.70456
1.71047
1.71811
1.72723
1.73772
1.74953
1.76243
1.77636
1.79053
1.61976
1.61864
1.61818
1.61631
1.61281
1.60814
1.60296
1.59795
1.5938
1.59127
1.59142
1.5942
1.59855
1.6037
1.60897
1.61369
1.61723
1.61911
1.6196
1.62073
1.48442
1.48256
1.48116
1.47967
1.47789
1.4756
1.47283
1.46984
1.46712
1.46538
1.46559
1.46763
1.47056
1.47369
1.47656
1.47891
1.48072
1.48221
1.48361
1.48547
1.46686
1.46659
1.46617
1.46517
1.46372
1.46193
1.45985
1.45764
1.4556
1.4543
1.45449
1.45615
1.45843
1.46081
1.463
1.46487
1.46637
1.4674
1.46783
1.4681
1.47541
1.47549
1.47541
1.47502
1.4743
1.47324
1.4719
1.47043
1.46905
1.46819
1.46837
1.46964
1.47131
1.47298
1.47445
1.47559
1.47639
1.47683
1.47696
1.4769
1.46662
1.46664
1.46659
1.46646
1.4662
1.46574
1.46508
1.46428
1.4635
1.46304
1.46331
1.46427
1.4654
1.46645
1.46728
1.46783
1.46814
1.46827
1.46829
1.46826
1.45578
1.45575
1.45571
1.45562
1.45546
1.45521
1.45484
1.45441
1.45401
1.45385
1.45419
1.45489
1.45569
1.45642
1.45697
1.45735
1.45759
1.45771
1.45776
1.45778
1.44652
1.44651
1.44649
1.44643
1.44635
1.44622
1.44606
1.44588
1.44576
1.44584
1.44626
1.44693
1.44759
1.44813
1.44854
1.44881
1.44897
1.44907
1.44911
1.44913
1.43761
1.43761
1.4376
1.43758
1.43756
1.43753
1.43751
1.43753
1.43764
1.43792
1.43847
1.43916
1.43979
1.44028
1.44063
1.44086
1.441
1.44108
1.44111
1.44112
1.42865
1.42865
1.42865
1.42867
1.4287
1.42875
1.42885
1.42903
1.42933
1.42982
1.43054
1.43129
1.43191
1.43238
1.4327
1.43291
1.43304
1.4331
1.43313
1.43314
1.41962
1.41962
1.41964
1.41968
1.41975
1.41987
1.42008
1.4204
1.42089
1.42161
1.42252
1.4234
1.42408
1.42458
1.42491
1.42513
1.42526
1.42533
1.42536
1.42536
1.41047
1.41047
1.4105
1.41056
1.41067
1.41086
1.41117
1.41164
1.41234
1.41332
1.41449
1.41555
1.41636
1.41694
1.41732
1.41756
1.41771
1.41778
1.41781
1.41782
1.4011
1.40111
1.40114
1.40123
1.40139
1.40165
1.40208
1.40273
1.40367
1.40496
1.40646
1.40779
1.40879
1.40948
1.40995
1.41024
1.41041
1.4105
1.41054
1.41054
1.39144
1.39145
1.3915
1.39161
1.39182
1.39218
1.39275
1.39362
1.39486
1.39654
1.39847
1.40016
1.4014
1.40227
1.40284
1.40319
1.40341
1.40352
1.40356
1.40357
1.38138
1.38139
1.38146
1.38161
1.38189
1.38237
1.38312
1.38425
1.38587
1.38805
1.39053
1.39268
1.39426
1.39535
1.39606
1.39651
1.39677
1.39691
1.39697
1.39698
1.3708
1.37081
1.3709
1.3711
1.37147
1.37209
1.37308
1.37456
1.37667
1.37949
1.38268
1.38542
1.38742
1.3888
1.3897
1.39027
1.3906
1.39078
1.39085
1.39086
1.35951
1.35953
1.35964
1.35991
1.3604
1.36122
1.36251
1.36444
1.36719
1.37084
1.37493
1.37844
1.38098
1.38273
1.38387
1.38459
1.38501
1.38523
1.38532
1.38533
1.34729
1.34732
1.34747
1.34783
1.34847
1.34956
1.35126
1.35379
1.35737
1.36209
1.36735
1.37182
1.37505
1.37726
1.3787
1.37961
1.38013
1.38041
1.38053
1.38054
1.33383
1.33387
1.33408
1.33455
1.33542
1.33686
1.33912
1.34245
1.34712
1.35324
1.35997
1.36565
1.36974
1.37253
1.37436
1.3755
1.37616
1.37651
1.37666
1.37667
1.31869
1.31875
1.31904
1.31968
1.32085
1.3228
1.32581
1.33023
1.33635
1.34427
1.35287
1.36007
1.36523
1.36874
1.37104
1.37248
1.37331
1.37375
1.37394
1.37395
1.30121
1.3013
1.30171
1.30261
1.30423
1.3069
1.311
1.31692
1.32497
1.33521
1.34615
1.35521
1.36168
1.3661
1.36899
1.3708
1.37186
1.37242
1.37265
1.37266
1.28042
1.28057
1.28118
1.28249
1.28482
1.28859
1.29427
1.30229
1.31293
1.32612
1.33992
1.35122
1.35928
1.36482
1.36847
1.37077
1.37212
1.37284
1.37314
1.37316
1.25463
1.25491
1.2559
1.25795
1.2615
1.26707
1.27515
1.28615
1.30021
1.31709
1.3343
1.34824
1.35819
1.36511
1.36975
1.37272
1.37451
1.37547
1.37588
1.37592
1.22109
1.2218
1.22374
1.22728
1.23306
1.24162
1.25337
1.26853
1.28701
1.30834
1.32948
1.34638
1.35852
1.3671
1.37302
1.37695
1.3794
1.38079
1.38142
1.3815
1.17527
1.177
1.1808
1.1877
1.19787
1.21152
1.22878
1.24957
1.27354
1.30002
1.32544
1.34554
1.36007
1.37061
1.3782
1.38355
1.38722
1.38956
1.39078
1.39122
1.10996
1.11371
1.12362
1.13804
1.15595
1.17733
1.20208
1.22988
1.26023
1.29234
1.3222
1.34552
1.36253
1.37517
1.38466
1.39179
1.39712
1.40109
1.40381
1.4047
1.02094
1.03448
1.05767
1.08353
1.11154
1.14209
1.17514
1.21043
1.24742
1.28535
1.31978
1.3465
1.36627
1.38142
1.39334
1.40291
1.41076
1.41734
1.42289
1.42594
0.932014
0.958908
0.994539
1.03088
1.0686
1.10806
1.14924
1.19187
1.23538
1.27895
1.31779
1.34768
1.3699
1.38721
1.40118
1.41275
1.42248
1.43077
1.43795
1.44303
0.864886
0.898454
0.940046
0.983369
1.02882
1.07609
1.12478
1.17436
1.22402
1.27271
1.31508
1.347
1.37044
1.3886
1.40318
1.41515
1.4251
1.43341
1.44043
1.44557
0.812889
0.850375
0.895274
0.943
0.993828
1.04715
1.10217
1.15794
1.21323
1.26647
1.3115
1.34435
1.36787
1.38577
1.39997
1.41152
1.42103
1.42894
1.43558
1.44049
0.768308
0.808869
0.856635
0.907867
0.962961
1.02122
1.08164
1.14291
1.2033
1.26057
1.30751
1.3403
1.36293
1.37975
1.39294
1.40364
1.41249
1.41987
1.42612
1.43076
0.727485
0.771008
0.821327
0.875768
0.934719
0.997398
1.06269
1.12902
1.19416
1.25514
1.30344
1.33532
1.35618
1.37115
1.38277
1.39225
1.40019
1.40692
1.41271
1.41707
0.68912
0.735229
0.787854
0.845384
0.907956
0.974779
1.04467
1.11582
1.18561
1.25022
1.29959
1.32987
1.34805
1.36033
1.36971
1.37749
1.38421
1.39011
1.39533
1.39938
0.65239
0.700492
0.755447
0.815941
0.881945
0.952726
1.02704
1.10293
1.17741
1.24583
1.29631
1.32442
1.33894
1.34748
1.35372
1.35914
1.36422
1.36901
1.37353
1.3772
0.616487
0.66627
0.723606
0.786909
0.856195
0.930785
1.0094
1.09
1.16931
1.24193
1.29387
1.3195
1.32933
1.33278
1.33465
1.33677
1.33955
1.34285
1.34645
1.34965
0.580787
0.632247
0.691916
0.757902
0.830357
0.90863
0.991444
1.07671
1.16102
1.23839
1.29255
1.31573
1.31981
1.31649
1.31225
1.30966
1.30919
1.31039
1.31276
1.31535
0.544991
0.598191
0.660083
0.728675
0.804207
0.88604
0.972927
1.06281
1.15228
1.23499
1.29246
1.31379
1.31128
1.2991
1.28631
1.27693
1.2717
1.2699
1.27052
1.2723
0.50909
0.563963
0.627973
0.699119
0.777641
0.862903
0.95371
1.04811
1.1428
1.23143
1.2936
1.31439
1.30493
1.28153
1.25683
1.23749
1.22517
1.21889
1.21701
1.21769
0.473228
0.529554
0.595591
0.669241
0.75066
0.839198
0.933733
1.03246
1.13235
1.22734
1.29574
1.31809
1.3023
1.26543
1.22432
1.19022
1.16706
1.15392
1.14828
1.14734
0.437566
0.495055
0.563035
0.639135
0.723347
0.814981
0.91301
1.01583
1.12074
1.22232
1.29841
1.32517
1.30517
1.25338
1.19027
1.13421
1.09416
1.07024
1.05877
1.05547
0.40227
0.460617
0.530459
0.608969
0.695855
0.790371
0.891624
0.998218
1.10786
1.21602
1.30093
1.33539
1.31515
1.24902
1.15776
1.06913
1.00243
0.961342
0.940814
0.934619
0.367485
0.426383
0.498048
0.578941
0.668348
0.765502
0.869684
0.9797
1.09367
1.20809
1.30248
1.34788
1.33323
1.25687
1.13214
0.995482
0.885877
0.817202
0.783271
0.773681
0.333281
0.392501
0.466045
0.5493
0.641029
0.740564
0.847373
0.960428
1.07824
1.19837
1.30224
1.3611
1.35901
1.28157
1.12175
0.91412
0.732728
0.621438
0.568752
0.555227
0.299605
0.359137
0.434742
0.52029
0.614082
0.715736
0.82487
0.940564
1.06167
1.18675
1.29943
1.37298
1.39002
1.32608
1.13883
0.822235
0.512564
0.339534
0.267416
0.246549
0.266363
0.326487
0.404362
0.492039
0.587609
0.691147
0.802325
0.92027
1.04411
1.17324
1.29348
1.38137
1.42169
1.38873
1.20223
0.704267
0.117157
-0.156388
-0.177984
-0.134243
0.233539
0.294806
0.375175
0.464737
0.56184
0.667079
0.780059
0.899902
1.02594
1.15816
1.28414
1.38408
1.44744
1.45622
1.31289
0.655247
-0.461802
-0.945109
-0.848043
-0.646211
0.201786
0.264256
0.347243
0.438285
0.536622
0.643326
0.757805
0.879134
1.00676
1.14105
1.27069
1.37925
1.46078
1.50659
1.42633
0.917625
-0.27475
-1.24839
-1.15344
-0.675054
0.170664
0.235012
0.320303
0.412272
0.511513
0.6194
0.734991
0.857298
0.985769
1.12084
1.25154
1.36233
1.44476
1.48125
1.42144
1.16341
0.577004
-0.24439
-0.593413
-0.436718
0.140156
0.207083
0.294461
0.386827
0.486779
0.595626
0.711981
0.8348
0.963424
1.09803
1.22712
1.33433
1.40877
1.43291
1.38093
1.18717
0.855853
0.541894
0.293183
0.152658
0.110487
0.180831
0.269746
0.361985
0.4626
0.572211
0.68902
0.811958
0.940135
1.07316
1.19828
1.29757
1.35864
1.36539
1.31278
1.15744
0.856635
0.651805
0.56747
0.460209
0.0816735
0.156267
0.245692
0.337552
0.43896
0.549167
0.666181
0.788897
0.916084
1.04653
1.16581
1.25429
1.29895
1.28497
1.21841
1.09381
0.848463
0.614448
0.514809
0.459807
0.05404
0.132383
0.221389
0.313166
0.415506
0.526114
0.643108
0.765287
0.890997
1.01806
1.13028
1.20646
1.23386
1.19976
1.11438
0.990052
0.784218
0.560586
0.432861
0.386277
0.0272799
0.107028
0.195395
0.287824
0.391168
0.502077
0.618993
0.740518
0.864521
0.987768
1.09228
1.15553
1.16552
1.11071
1.00452
0.865743
0.666174
0.453331
0.310831
0.263087
-0.000237721
0.0788587
0.1668
0.260698
0.365203
0.476588
0.593627
0.714626
0.836952
0.95627
1.05283
1.10334
1.09771
1.02504
0.900337
0.741735
0.517742
0.272029
0.0751667
0.0332197
-0.0297548
0.0482583
0.136186
0.23203
0.337825
0.449919
0.567276
0.687867
0.808568
0.92398
1.01273
1.05121
1.03189
0.943055
0.796383
0.621269
0.357922
0.049086
-0.194524
-0.223471
-0.0612291
0.0160294
0.10437
0.202165
0.309139
0.422
0.539731
0.659968
0.779113
0.890796
0.972366
1.00023
0.96957
0.868911
0.697243
0.497485
0.206534
-0.216445
-0.680119
-1.08972
-0.0948409
-0.018105
0.0710738
0.170832
0.278939
0.392707
0.510988
0.63109
0.748991
0.857483
0.933135
0.952802
0.914192
0.81025
0.622003
0.371774
0.0305591
-0.544028
-1.65958
-3.41243
-0.131048
-0.0549674
0.0356724
0.137566
0.246925
0.361852
0.480926
0.601162
0.71818
0.824087
0.894949
0.908759
0.864995
0.76192
0.577696
0.293662
-0.0880462
-0.642093
-1.35446
-2.01464
-0.170019
-0.094608
-0.00184982
0.102054
0.212711
0.328939
0.448915
0.569437
0.68583
0.7897
0.857066
0.867835
0.823034
0.724632
0.563797
0.313613
-0.0018393
-0.29587
-0.511506
-0.640527
-0.211943
-0.13631
-0.0410846
0.0644937
0.176517
0.294135
0.415103
0.53607
0.652158
0.754723
0.820356
0.832112
0.793228
0.711341
0.595346
0.451194
0.30114
0.205207
0.174313
0.114433
-0.256584
-0.179751
-0.0820315
0.0250906
0.138669
0.257783
0.379887
0.501543
0.617808
0.720138
0.785988
0.802849
0.777056
0.722292
0.655179
0.592109
0.538944
0.497207
0.493332
0.483868
-0.303274
-0.224821
-0.124767
-0.0159961
0.0993715
0.220139
0.343602
0.466299
0.583405
0.68677
0.755254
0.781118
0.771633
0.744148
0.712383
0.686164
0.66815
0.658115
0.66618
0.678922
-0.351453
-0.271365
-0.169058
-0.0584389
0.0589181
0.181525
0.306624
0.43077
0.549359
0.655067
0.729061
0.765985
0.773011
0.768313
0.761083
0.757509
0.760555
0.771393
0.791252
0.808673
-0.400627
-0.318959
-0.214367
-0.101692
0.0178207
0.142452
0.269463
0.395486
0.516193
0.625507
0.707357
0.754419
0.778302
0.792518
0.804445
0.818404
0.835849
0.856532
0.879999
0.894577
-0.450051
-0.366893
-0.25997
-0.145072
-0.0232757
0.103531
0.232695
0.361001
0.484539
0.598448
0.689323
0.746704
0.78601
0.815247
0.841449
0.866919
0.892195
0.916786
0.940398
0.958773
-0.498824
-0.414079
-0.304939
-0.187702
-0.0635952
0.0654671
0.196949
0.327845
0.454785
0.573996
0.673527
0.743149
0.79428
0.835086
0.871116
0.903772
0.933614
0.960631
0.984865
1.00378
-0.544994
-0.459358
-0.347989
-0.228487
-0.10218
0.0290982
0.162922
0.296517
0.427064
0.551863
0.65921
0.740144
0.800941
0.850731
0.893479
0.930761
0.963394
0.991818
1.0164
1.0352
-0.587632
-0.500775
-0.387458
-0.266089
-0.137866
-0.00460311
0.13136
0.26749
0.401459
0.531564
0.646199
0.7359
0.804887
0.861306
0.908693
0.948976
0.983295
1.0125
1.0372
1.05572
-0.624951
-0.536815
-0.421883
-0.299029
-0.169323
-0.0345474
0.103058
0.241216
0.37805
0.512684
0.633735
0.730357
0.805413
0.8664
0.916901
0.959084
0.994372
1.02395
1.0488
1.06732
-0.654546
-0.565385
-0.449317
-0.325527
-0.195011
-0.0595021
0.0788776
0.218133
0.356827
0.494722
0.620584
0.722282
0.80152
0.865541
0.918057
0.961433
0.997314
1.02703
1.05203
1.07106
-0.673437
-0.583599
-0.467107
-0.343283
-0.213036
-0.0780374
0.0597566
0.198667
0.337686
0.477059
0.605655
0.710385
0.792175
0.858027
0.911756
0.955876
0.992201
1.02209
1.04683
1.06556
-0.677778
-0.587903
-0.472034
-0.349485
-0.221121
-0.0884884
0.0467462
0.18328
0.320519
0.459074
0.587985
0.693591
0.776292
0.84285
0.897097
0.941573
0.97815
1.00828
1.03287
1.05011
-0.662425
-0.573305
-0.459636
-0.340422
-0.216522
-0.089033
0.0408856
0.172364
0.305172
0.440139
0.566584
0.67068
0.752474
0.818475
0.87244
0.916834
0.953449
0.983724
1.00869
1.02576
-0.619602
-0.533344
-0.424484
-0.312178
-0.196633
-0.0779953
0.0431457
0.166334
0.291599
0.419804
0.540632
0.640455
0.719113
0.782858
0.835339
0.878909
0.915217
0.945551
0.970891
0.988222
-0.541212
-0.458698
-0.359507
-0.260544
-0.159078
-0.0541048
0.0540881
0.165299
0.279605
0.397611
0.509384
0.601734
0.674388
0.733294
0.782029
0.822911
0.857525
0.887048
0.912412
0.930253
-0.408266
-0.339161
-0.262521
-0.186036
-0.104655
-0.0181635
0.0729874
0.16864
0.268672
0.37314
0.472373
0.553802
0.617099
0.6677
0.708985
0.743217
0.771985
0.796473
0.817826
0.833414
-0.210865
-0.175328
-0.135611
-0.089675
-0.034734
0.0283945
0.0990407
0.176726
0.260852
0.350765
0.437093
0.507571
0.561331
0.603031
0.635667
0.661297
0.681388
0.697004
0.709375
0.718427
-0.0337196
-0.023109
-0.00997976
0.0108139
0.0411296
0.0810584
0.130789
0.190028
0.258038
0.333734
0.408145
0.46915
0.515081
0.549703
0.575605
0.594641
0.60818
0.617242
0.622852
0.626463
0.0659809
0.0696319
0.0753528
0.0859228
0.102844
0.127526
0.161287
0.204757
0.257814
0.319554
0.38195
0.433398
0.471563
0.499429
0.519284
0.532937
0.541878
0.547348
0.550344
0.551989
0.119843
0.121903
0.125875
0.132897
0.144046
0.16072
0.184438
0.21642
0.257276
0.306661
0.357865
0.400364
0.431566
0.453856
0.469295
0.479613
0.486229
0.490259
0.492513
0.493672
0.153287
0.154622
0.157421
0.162362
0.1703
0.18233
0.199722
0.223723
0.255244
0.29439
0.335814
0.370442
0.395755
0.413656
0.42592
0.434051
0.439245
0.442399
0.444171
0.445055
0.174836
0.175759
0.177727
0.18123
0.18696
0.195795
0.208777
0.227008
0.251414
0.282309
0.315525
0.343488
0.363915
0.378293
0.388088
0.394544
0.398642
0.401113
0.402497
0.403184
0.187648
0.188323
0.189763
0.192327
0.19655
0.203129
0.212919
0.22686
0.2458
0.270126
0.296606
0.319048
0.335453
0.346974
0.354793
0.359927
0.363172
0.365123
0.366217
0.366759
0.193986
0.194493
0.195574
0.1975
0.200677
0.205654
0.213116
0.223843
0.238572
0.257701
0.278732
0.296658
0.309784
0.318995
0.325236
0.329326
0.331908
0.333459
0.334328
0.334758
0.195539
0.195925
0.196748
0.198214
0.200636
0.204444
0.210181
0.218479
0.229961
0.244995
0.261654
0.275927
0.286398
0.293748
0.298725
0.301985
0.304041
0.305275
0.305967
0.306308
0.193492
0.193788
0.194419
0.195545
0.197409
0.200345
0.204783
0.211229
0.220197
0.232013
0.245187
0.256524
0.264857
0.27071
0.274673
0.277267
0.278903
0.279885
0.280436
0.280706
0.188698
0.188926
0.189413
0.190283
0.191726
0.194003
0.19745
0.202474
0.209491
0.218779
0.229186
0.238172
0.24479
0.249442
0.252592
0.254655
0.255956
0.256737
0.257175
0.257389
0.181787
0.181964
0.182343
0.183019
0.184142
0.185913
0.1886
0.192525
0.198023
0.205326
0.213538
0.22065
0.225897
0.229588
0.232089
0.233727
0.234761
0.235381
0.235729
0.235899
0.173243
0.173381
0.173676
0.174203
0.175078
0.176461
0.17856
0.181631
0.185943
0.191685
0.198161
0.203783
0.207936
0.210861
0.212845
0.214145
0.214965
0.215457
0.215732
0.215867
0.16343
0.163538
0.163768
0.16418
0.164863
0.165944
0.167586
0.169992
0.173375
0.177889
0.182992
0.187431
0.190715
0.19303
0.194601
0.195629
0.196278
0.196667
0.196885
0.196991
0.152627
0.152711
0.152891
0.153213
0.153747
0.154593
0.155879
0.157765
0.160419
0.163966
0.167984
0.171485
0.174079
0.175907
0.177147
0.17796
0.178472
0.178779
0.17895
0.179034
0.141051
0.141117
0.141258
0.141509
0.141927
0.142589
0.143596
0.145074
0.147156
0.149942
0.153102
0.155859
0.157902
0.159342
0.16032
0.16096
0.161364
0.161606
0.161742
0.161808
0.12887
0.128922
0.129032
0.129229
0.129556
0.130074
0.130862
0.132018
0.133649
0.135835
0.138315
0.140481
0.142087
0.14322
0.143988
0.144492
0.14481
0.145001
0.145108
0.14516
0.116219
0.116259
0.116345
0.116499
0.116754
0.117158
0.117774
0.118678
0.119953
0.121663
0.123604
0.125301
0.12656
0.127448
0.128052
0.128447
0.128697
0.128847
0.128931
0.128972
0.103198
0.10323
0.103296
0.103416
0.103614
0.103929
0.104408
0.105112
0.106105
0.107437
0.10895
0.110273
0.111256
0.11195
0.112421
0.11273
0.112926
0.113043
0.113109
0.113141
0.0898974
0.0899218
0.0899736
0.0900661
0.0902199
0.0904632
0.0908339
0.0913785
0.092147
0.0931774
0.0943487
0.0953731
0.0961337
0.0966711
0.0970364
0.097276
0.0974273
0.0975182
0.0975691
0.0975938
0.0763694
0.0763878
0.0764272
0.0764978
0.0766152
0.0768012
0.0770844
0.0775004
0.0780875
0.0788749
0.0797706
0.080554
0.0811357
0.0815466
0.0818259
0.0820091
0.0821248
0.0821944
0.0822335
0.0822527
0.0626855
0.0627003
0.0627308
0.0627839
0.062872
0.0630123
0.0632261
0.0635397
0.0639815
0.064573
0.0652444
0.06583
0.0662644
0.0665709
0.0667787
0.0669149
0.067001
0.0670528
0.0670819
0.0670962
0.0488845
0.0488965
0.0489171
0.048949
0.0490078
0.0491099
0.0492627
0.0494872
0.0498044
0.0502311
0.0507178
0.0511454
0.0514621
0.0516848
0.0518346
0.0519321
0.0519936
0.0520308
0.0520518
0.0520624
0.034846
0.0348512
0.0348639
0.0348925
0.0349377
0.0350005
0.0351005
0.0352486
0.0354604
0.0357477
0.0360779
0.0363768
0.0366063
0.0367694
0.0368772
0.0369464
0.0369917
0.0370204
0.0370382
0.0370495
0.0208985
0.0209027
0.0209124
0.0209301
0.0209569
0.0209975
0.0210584
0.0211484
0.0212783
0.0214536
0.0216526
0.0218306
0.0219715
0.02208
0.0221582
0.0222084
0.0222388
0.0222578
0.0222678
0.0222725
0.00700857
0.00701166
0.00701625
0.00702261
0.00703142
0.00704445
0.00706399
0.00709348
0.00713496
0.00719046
0.00725601
0.00731477
0.00735742
0.00738994
0.00742178
0.00745171
0.00747136
0.0074825
0.0074875
0.00748841
-0.456156
0.100323
0.221659
0.309427
0.375418
0.369674
0.243257
-0.0167435
-0.189266
-0.153575
-0.060053
0.25435
0.320543
0.322424
0.311881
0.253351
0.136099
0.00113766
-0.085547
0.0365487
0.157272
0.310839
0.342133
0.312937
0.265259
0.202981
0.134678
0.079012
0.0729031
0.196373
0.254487
0.322556
0.327268
0.300081
0.261738
0.223273
0.192299
0.177957
0.206462
0.286112
0.280295
0.330756
0.331168
0.307475
0.282206
0.26292
0.254385
0.258816
0.294181
0.363992
0.298763
0.33684
0.344613
0.332806
0.323201
0.318999
0.320357
0.329174
0.362766
0.415817
0.321622
0.355656
0.369168
0.367185
0.366488
0.369555
0.37793
0.39284
0.423914
0.453623
0.34929
0.393928
0.406222
0.408567
0.414322
0.42241
0.431625
0.4424
0.46557
0.519352
0.416207
0.4521
0.466236
0.470518
0.479701
0.488993
0.496971
0.510108
0.535389
0.566596
0.516524
0.518527
0.538426
0.545893
0.555336
0.565401
0.576438
0.590661
0.596517
0.565413
0.558318
0.544618
0.557391
0.566677
0.572798
0.579417
0.587704
0.594489
0.582985
0.564313
0.514943
0.524258
0.530388
0.538053
0.546068
0.553603
0.560314
0.562916
0.567616
0.581469
0.533039
0.552311
0.566894
0.580904
0.599757
0.620386
0.642422
0.66422
0.689732
0.699985
0.757295
0.780825
0.811244
0.830058
0.845978
0.861043
0.874728
0.88746
0.901757
0.925504
1.06629
1.05905
1.06008
1.05881
1.05696
1.05698
1.06007
1.06719
1.08084
1.09413
1.19148
1.1378
1.10175
1.07973
1.06665
1.06237
1.06761
1.08425
1.1145
1.15081
)
;

boundaryField
{
    wall-4
    {
        type            zeroGradient;
    }
    pressure-outlet-7
    {
        type            fixedValue;
        value           uniform 0;
    }
    velocity-inlet-6
    {
        type            zeroGradient;
    }
    velocity-inlet-5
    {
        type            zeroGradient;
    }
    frontAndBackPlanes
    {
        type            empty;
    }
}


// ************************************************************************* //
