/*--------------------------------*- C++ -*----------------------------------*\
  =========                 |
  \\      /  F ield         | OpenFOAM: The Open Source CFD Toolbox
   \\    /   O peration     | Website:  https://openfoam.org
    \\  /    A nd           | Version:  6
     \\/     M anipulation  |
\*---------------------------------------------------------------------------*/
FoamFile
{
    version     2.0;
    format      ascii;
    class       surfaceScalarField;
    location    "92.4";
    object      phi;
}
// * * * * * * * * * * * * * * * * * * * * * * * * * * * * * * * * * * * * * //

dimensions      [0 3 -1 0 0 0 0];

internalField   nonuniform List<scalar> 
17370
(
-0.09
0.0898489
0.289162
-0.0714622
0.0537521
0.364486
-0.0381187
0.0276893
0.426598
-0.0196372
0.0146039
0.504285
-0.0107617
0.00827116
0.601893
-0.00627138
0.00489483
0.720434
-0.00373088
0.00289031
0.863747
-0.00214884
0.00158976
1.03601
-0.00107325
0.000660966
1.24292
-0.000254054
-0.000142898
1.49159
0.000522343
-0.000932111
1.4916
0.00132992
-0.00181687
1.24318
0.00234088
-0.00304421
1.03634
0.00385797
-0.00500281
0.864051
0.00636919
-0.00836222
0.721051
0.0108476
-0.0146836
0.603051
0.0197103
-0.0277544
0.507483
0.0381758
-0.0538001
0.431792
0.0715016
-0.0898754
0.365149
0.0900163
0.198995
-0.128138
0.0882292
0.0399085
-0.3646
0.353382
-0.0746692
0.0858878
-0.446477
0.454322
-0.0843835
0.0765382
-0.521191
0.529904
-0.06844
0.0597274
-0.61279
0.621571
-0.0515374
0.0427564
-0.726896
0.734167
-0.0352942
0.0280231
-0.867477
0.872594
-0.0224205
0.0173028
-1.03848
1.04193
-0.0134911
0.0100393
-1.2446
1.24703
-0.00742673
0.00499185
-1.49262
1.49461
-0.00304136
0.00105797
-1.49251
1.49423
0.000614328
-0.00233751
-1.24397
1.24586
0.00424446
-0.00613009
-1.03751
1.04003
0.00848244
-0.011003
-0.866099
0.869825
0.0143491
-0.0180756
-0.724389
0.729932
0.0231155
-0.0286582
-0.608697
0.616109
0.0358715
-0.0432842
-0.514895
0.523038
0.0520131
-0.0601562
-0.439855
0.447913
0.0688177
-0.0768751
-0.375294
0.376737
0.08467
-0.0861132
-0.257329
0.222474
0.0748219
-0.0399672
-0.0685238
0.0586998
0.00982399
-0.0517996
0.0583789
-0.374132
0.367553
-0.0574596
0.0537046
-0.453598
0.457353
-0.048612
0.0446569
-0.527952
0.531907
-0.0408139
0.0371718
-0.621569
0.625211
-0.0330663
0.0289868
-0.735355
0.739435
-0.0244119
0.0202482
-0.874347
0.878511
-0.0158975
0.0121992
-1.0435
1.04719
-0.008457
0.00528041
-1.24857
1.25174
-0.0019491
-0.00112645
-1.49666
1.49974
0.00417548
-0.00744285
-1.4972
1.50047
0.0105225
-0.014122
-1.25007
1.25366
0.0176679
-0.0218468
-1.04592
1.0501
0.0258678
-0.0303046
-0.877753
0.88219
0.0342725
-0.0382668
-0.739893
0.743888
0.0418141
-0.0455594
-0.626767
0.630512
0.0494304
-0.0544429
-0.534805
0.539817
0.058109
-0.0589172
-0.457469
0.458277
0.0522063
-0.0319971
-0.335742
0.315533
0.00989007
-0.0683383
0.0584482
-0.0529516
0.0489592
0.00399248
-0.0331412
0.0436771
-0.358127
0.347591
-0.0473676
0.0467347
-0.459296
0.459929
-0.0436736
0.0403162
-0.535813
0.539171
-0.0365384
0.0332293
-0.628542
0.631851
-0.0297854
0.0267477
-0.742663
0.745701
-0.023482
0.0203688
-0.882034
0.885147
-0.0168312
0.0134454
-1.05079
1.05417
-0.00964546
0.00610156
-1.25518
1.25872
-0.00212755
-0.00167289
-1.50325
1.50705
0.00544054
-0.00931576
-1.50413
1.508
0.0127228
-0.016326
-1.25741
1.26101
0.0195012
-0.0227989
-1.0539
1.0572
0.0257088
-0.0287734
-0.885672
0.888736
0.031646
-0.0349249
-0.747141
0.75042
0.0380946
-0.0417308
-0.634291
0.637927
0.0449671
-0.0478895
-0.544121
0.547044
0.0483758
-0.0444789
-0.456555
0.452659
0.0336962
-0.0162328
-0.296155
0.278692
0.00407503
-0.0526252
0.0485502
-0.0458851
0.0433937
0.00249136
-0.0227775
0.0331413
-0.336913
0.32655
-0.0389494
0.0399572
-0.459621
0.458613
-0.0387588
0.0364658
-0.541896
0.544189
-0.0337912
0.0311882
-0.634908
0.637511
-0.0281168
0.0252093
-0.748753
0.751661
-0.0219351
0.0189324
-0.888108
0.891111
-0.0156173
0.0125089
-1.05731
1.06042
-0.00897368
0.00555754
-1.26219
1.26561
-0.0015882
-0.00229976
-1.51093
1.51482
0.00614342
-0.00997983
-1.51189
1.51573
0.0132135
-0.0164898
-1.26444
1.26772
0.0193221
-0.0223229
-1.0603
1.0633
0.025056
-0.0280603
-0.891777
0.894781
0.0307431
-0.0335883
-0.753617
0.756462
0.0360001
-0.0384832
-0.640985
0.643468
0.0406127
-0.0415951
-0.548838
0.54982
0.0403603
-0.03422
-0.447364
0.441223
0.0234919
-0.0102531
-0.263454
0.250216
0.00259354
-0.0453822
0.0427887
-0.0413234
0.0395616
0.0017618
-0.0167082
0.0259379
-0.316715
0.307486
-0.0325227
0.0346481
-0.457025
0.4549
-0.0342152
0.0325355
-0.546174
0.547854
-0.0303452
0.0282408
-0.639825
0.64193
-0.0257985
0.0233902
-0.754315
0.756723
-0.0205189
0.0177173
-0.894016
0.896818
-0.0144672
0.0113856
-1.06348
1.06656
-0.00788253
0.0045464
-1.26893
1.27227
-0.000704731
-0.0030339
-1.51861
1.52235
0.00671574
-0.0103871
-1.51945
1.52312
0.01349
-0.0166628
-1.27096
1.27413
0.0193929
-0.0222416
-1.06633
1.06918
0.0246964
-0.0272183
-0.897578
0.9001
0.0293353
-0.0314851
-0.7589
0.76105
0.0333443
-0.0352876
-0.64561
0.647554
0.0367297
-0.036869
-0.550324
0.550463
0.0343949
-0.0273226
-0.434533
0.427461
0.0176011
-0.00742924
-0.238658
0.228486
0.00188672
-0.0406033
0.0387166
-0.0380456
0.036723
0.00132256
-0.0127363
0.0206523
-0.298918
0.291002
-0.0273718
0.0302719
-0.452359
0.449459
-0.0304583
0.0293239
-0.549297
0.550431
-0.027318
0.0253887
-0.643977
0.645906
-0.0231736
0.0210213
-0.758974
0.761127
-0.0184882
0.0159873
-0.899405
0.901905
-0.0130252
0.0101276
-1.06951
1.07241
-0.00674665
0.00348997
-1.27554
1.2788
0.000270349
-0.00390716
-1.52601
1.52965
0.00747284
-0.0110191
-1.52671
1.53026
0.0139832
-0.0169513
-1.27725
1.28022
0.0194099
-0.021871
-1.07191
1.07437
0.0239375
-0.0260307
-0.902366
0.904459
0.0278149
-0.0296592
-0.763018
0.764862
0.0312785
-0.0329834
-0.64936
0.651064
0.0337716
-0.0331737
-0.550233
0.549635
0.0297739
-0.0223857
-0.42017
0.412782
0.0138368
-0.00577114
-0.219466
0.211401
0.00147462
-0.0370603
0.0355857
-0.0355697
0.0345537
0.001016
-0.00992639
0.016602
-0.283733
0.277058
-0.0230422
0.0263828
-0.44632
0.44298
-0.0271373
0.0264176
-0.551354
0.552073
-0.0246406
0.0228394
-0.647817
0.649618
-0.0207489
0.0187116
-0.763216
0.765253
-0.0163148
0.013963
-0.904261
0.906612
-0.0111965
0.00848613
-1.07514
1.07785
-0.00530189
0.00219515
-1.28194
1.28505
0.00143433
-0.0049592
-1.53321
1.53673
0.00839581
-0.0117594
-1.53369
1.53705
0.0145041
-0.0171788
-1.28307
1.28575
0.019348
-0.0214967
-1.07674
1.07889
0.0233116
-0.025163
-0.90641
0.908261
0.0267433
-0.0283736
-0.76659
0.76822
0.02979
-0.0311487
-0.652627
0.653985
0.0314391
-0.0301002
-0.548673
0.547334
0.0260701
-0.0187481
-0.405397
0.398075
0.0112762
-0.00467581
-0.204135
0.197534
0.00120102
-0.034262
0.033061
-0.0336641
0.0328766
0.000787489
-0.0078375
0.0134297
-0.270955
0.265362
-0.0193704
0.0228948
-0.43954
0.436016
-0.0241148
0.023636
-0.55271
0.553189
-0.0221195
0.0204228
-0.651421
0.653118
-0.0184212
0.0164633
-0.767244
0.769202
-0.0141512
0.0118802
-0.908855
0.911126
-0.00920991
0.00660354
-1.08043
1.08304
-0.00355418
0.000585357
-1.28803
1.291
0.00287778
-0.00623233
-1.54015
1.5435
0.00947824
-0.0126142
-1.54027
1.54341
0.0151388
-0.0175643
-1.28833
1.29075
0.0195087
-0.0214233
-1.08101
1.08293
0.0230357
-0.0246773
-0.909992
0.911634
0.0260737
-0.0275093
-0.769742
0.771178
0.0287244
-0.0296939
-0.655149
0.656118
0.029607
-0.0275902
-0.545646
0.543629
0.0231441
-0.016071
-0.390867
0.383794
0.00948851
-0.00392223
-0.191498
0.185931
0.00101243
-0.0319644
0.030952
-0.0321881
0.0315786
0.000609484
-0.00621941
0.0108836
-0.260264
0.2556
-0.0162183
0.0197281
-0.432502
0.428992
-0.0212577
0.0209967
-0.553601
0.553862
-0.0197041
0.0180618
-0.65484
0.656482
-0.0161093
0.0141938
-0.771127
0.773042
-0.0119323
0.00971187
-0.913291
0.915512
-0.00710146
0.00455793
-1.08554
1.08808
-0.00159167
-0.00127812
-1.29387
1.29674
0.00459673
-0.00778002
-1.54673
1.54991
0.0108311
-0.0137516
-1.54639
1.54931
0.0160813
-0.0182892
-1.29311
1.29532
0.0200278
-0.021719
-1.08484
1.08653
0.0231359
-0.0245763
-0.913152
0.914592
0.0258023
-0.027059
-0.772511
0.773768
0.0281308
-0.0286789
-0.656886
0.657434
0.0281956
-0.0256007
-0.541316
0.538721
0.020888
-0.0141228
-0.376878
0.370112
0.00823517
-0.00340114
-0.180766
0.175932
0.000882766
-0.0300124
0.0291296
-0.0310507
0.0305863
0.000464417
-0.00491056
0.00877172
-0.251366
0.247505
-0.013455
0.0168002
-0.425578
0.422233
-0.0184978
0.0184174
-0.554083
0.554163
-0.0173085
0.0156952
-0.658182
0.659795
-0.0137565
0.0118471
-0.774937
0.776847
-0.00959398
0.00738827
-0.917631
0.919837
-0.00480476
0.00229737
-1.09052
1.09302
0.000613568
-0.00341211
-1.29951
1.30231
0.00662061
-0.00966421
-1.55298
1.55603
0.012547
-0.0152714
-1.55208
1.55481
0.0174141
-0.0194049
-1.29747
1.29946
0.0209367
-0.0224071
-1.08825
1.08972
0.0236387
-0.024895
-0.915911
0.917168
0.0259689
-0.0270643
-0.774926
0.776021
0.0279272
-0.0281068
-0.657784
0.657964
0.0271971
-0.0240993
-0.53587
0.532772
0.0192101
-0.0127375
-0.363507
0.357034
0.00737014
-0.0030482
-0.171383
0.167061
0.000796554
-0.0282972
0.0275007
-0.0301919
0.0298511
0.000340821
-0.00380749
0.00695991
-0.244025
0.240873
-0.0109786
0.0140478
-0.419047
0.415978
-0.0157848
0.0158463
-0.554235
0.554173
-0.0148083
0.0132579
-0.661459
0.663009
-0.0113033
0.00936581
-0.778746
0.780683
-0.00708081
0.00485254
-0.921948
0.924176
-0.00225606
-0.000249002
-1.09543
1.09794
0.00313784
-0.00589389
-1.30502
1.30777
0.00902431
-0.0119579
-1.55897
1.5619
0.0146967
-0.017241
-1.55738
1.55992
0.0192042
-0.0209811
-1.3014
1.30318
0.0223082
-0.0235618
-1.09124
1.09249
0.0246131
-0.0256912
-0.918299
0.919377
0.026619
-0.027553
-0.777007
0.777941
0.0281541
-0.0280315
-0.657993
0.657871
0.02665
-0.0230829
-0.529442
0.525875
0.0180524
-0.0118097
-0.350697
0.344454
0.00680719
-0.00282556
-0.162934
0.158953
0.000744438
-0.0267369
0.0259925
-0.0295734
0.0293438
0.000229636
-0.00283377
0.00534306
-0.238068
0.235558
-0.00869569
0.0114043
-0.413118
0.410409
-0.0130648
0.0131926
-0.554152
0.554024
-0.0121861
0.0106659
-0.664636
0.666156
-0.00867019
0.0066733
-0.782616
0.784613
-0.0043183
0.00203042
-0.926312
0.9286
0.000621508
-0.00316345
-1.10035
1.10289
0.00607207
-0.00882072
-1.31045
1.3132
0.011906
-0.014754
-1.56474
1.56759
0.0173669
-0.0197447
-1.56231
1.56469
0.0215376
-0.0231053
-1.30492
1.30649
0.0242268
-0.0252604
-1.09382
1.09486
0.0261271
-0.0270187
-0.920324
0.921215
0.0277886
-0.0285558
-0.778712
0.779479
0.0288722
-0.0284104
-0.657614
0.657152
0.0265628
-0.0225447
-0.522104
0.518086
0.0173673
-0.0112635
-0.338307
0.332203
0.00648655
-0.00270619
-0.155095
0.151314
0.000719251
-0.025267
0.0245478
-0.0291744
0.0290512
0.000123178
-0.00192522
0.00382744
-0.233377
0.231475
-0.00650705
0.00878336
-0.407952
0.405675
-0.0102579
0.0103719
-0.553994
0.55388
-0.00936064
0.00782949
-0.66779
0.669321
-0.00576176
0.00367273
-0.786607
0.788696
-0.00120897
-0.00117522
-0.930796
0.93318
0.00392442
-0.0065424
-1.10535
1.10797
0.00951344
-0.0122913
-1.31588
1.31866
0.0153666
-0.018155
-1.57034
1.57313
0.0206604
-0.0228843
-1.56691
1.56913
0.0245134
-0.0258722
-1.30803
1.30939
0.0267849
-0.0275923
-1.09599
1.0968
0.0282638
-0.028957
-0.921968
0.922661
0.0295701
-0.0301918
-0.780068
0.78069
0.0301508
-0.0292769
-0.656512
0.655638
0.0269444
-0.0224685
-0.513877
0.509401
0.0171085
-0.0110395
-0.326148
0.320079
0.00636449
-0.00267062
-0.1476
0.143906
0.000715902
-0.0238367
0.0231208
-0.0289887
0.0289733
1.53444e-05
-0.00103307
0.00233997
-0.229893
0.228586
-0.00433016
0.00610863
-0.403688
0.401909
-0.00729318
0.00731061
-0.553929
0.553912
-0.00624585
0.00466267
-0.671006
0.67259
-0.00248072
0.000263294
-0.790783
0.793001
0.00235256
-0.00487464
-0.935473
0.937996
0.00776764
-0.0105039
-1.11052
1.11325
0.0135823
-0.016428
-1.32138
1.32422
0.0195312
-0.0222883
-1.57584
1.5786
0.0247044
-0.0267833
-1.57118
1.57326
0.0282512
-0.0294018
-1.31073
1.31188
0.0301061
-0.0306865
-1.09773
1.09831
0.0311571
-0.0316399
-0.923209
0.923692
0.0320686
-0.0324248
-0.781043
0.781399
0.032083
-0.0307163
-0.654577
0.653211
0.027857
-0.0228792
-0.504726
0.499748
0.017267
-0.0111119
-0.314003
0.307848
0.00642006
-0.00270932
-0.140226
0.136515
0.000731899
-0.0224035
0.0216716
-0.0290183
0.0291147
-9.64077e-05
-0.000107473
0.000810661
-0.2276
0.226896
-0.00208155
0.00329557
-0.400455
0.399241
-0.00408805
0.00392338
-0.554133
0.554298
-0.00274559
0.00105075
-0.674377
0.676071
0.00128503
-0.00367519
-0.795217
0.797607
0.00649349
-0.00920012
-0.940428
0.943135
0.0122886
-0.0151902
-1.11592
1.11882
0.0184256
-0.0213805
-1.32702
1.32997
0.02455
-0.0273035
-1.58127
1.58403
0.0296492
-0.0315914
-1.57515
1.57709
0.0328989
-0.0338404
-1.31301
1.31395
0.0343309
-0.0346724
-1.09902
1.09936
0.0349316
-0.0351941
-0.924019
0.924282
0.0354146
-0.0354333
-0.781446
0.781464
0.0347514
-0.0328083
-0.651641
0.649698
0.0293553
-0.0237992
-0.494548
0.488992
0.0178381
-0.0114634
-0.301625
0.29525
0.00663814
-0.00281467
-0.132771
0.128948
0.000764941
-0.0209299
0.020165
-0.0292825
0.0295137
-0.000231162
0.000855123
-0.000817635
-0.226527
0.226489
0.000323397
0.000250169
-0.398387
0.397814
-0.000546528
0.00010848
-0.554793
0.555231
0.00125422
-0.00312117
-0.678024
0.679891
0.00566982
-0.0082834
-0.799995
0.802608
0.0113614
-0.0143063
-0.945755
0.9487
0.0176498
-0.0207698
-1.12167
1.12479
0.0242168
-0.0273256
-1.33289
1.336
0.0306024
-0.0333783
-1.58671
1.58948
0.0356647
-0.0374745
-1.57883
1.58064
0.0386219
-0.0393519
-1.31484
1.31557
0.0396204
-0.0397039
-1.09982
1.09991
0.0397324
-0.0397587
-0.924366
0.924393
0.0397884
-0.039369
-0.781165
0.780745
0.0382567
-0.0356409
-0.647551
0.644935
0.0314997
-0.0252532
-0.483175
0.476928
0.0188202
-0.0120796
-0.288738
0.281998
0.00700511
-0.00297908
-0.125047
0.121021
0.000812512
-0.0193829
0.0185704
-0.0298157
0.0301927
-0.000376979
0.00194048
-0.00253084
-0.22677
0.22736
0.00290393
-0.00309376
-0.397628
0.397818
0.00344833
-0.00427158
-0.556133
0.556956
0.00588288
-0.00799146
-0.682075
0.684183
0.0108285
-0.0137334
-0.805217
0.808122
0.0171428
-0.0203903
-0.951564
0.954812
0.0240577
-0.0274559
-1.12787
1.13127
0.0311745
-0.034484
-1.33908
1.34239
0.0379069
-0.0407258
-1.59219
1.59501
0.0429561
-0.0446211
-1.58221
1.58388
0.0455934
-0.0461125
-1.31621
1.31673
0.0461535
-0.0459603
-1.1001
1.09991
0.0457412
-0.0455184
-0.924198
0.923975
0.0453176
-0.0443867
-0.780015
0.779084
0.0427461
-0.0393232
-0.642114
0.638691
0.0343595
-0.0272681
-0.470362
0.463271
0.0202125
-0.0129467
-0.275045
0.267779
0.00750703
-0.00319435
-0.116875
0.112562
0.000871771
-0.0177348
0.016863
-0.0306458
0.0312016
-0.000555764
0.00322988
-0.00461248
-0.228382
0.229765
0.00590634
-0.00690134
-0.398388
0.399383
0.00800615
-0.00933405
-0.558389
0.559717
0.0113267
-0.0137596
-0.686672
0.689105
0.016973
-0.0202454
-0.811018
0.814291
0.0240672
-0.0276904
-0.957988
0.961612
0.0317592
-0.0355012
-1.13463
1.13838
0.0395542
-0.0431106
-1.34568
1.34923
0.0467155
-0.0495945
-1.59775
1.60063
0.051769
-0.0532749
-1.58527
1.58678
0.0540588
-0.0543503
-1.31708
1.31737
0.0541428
-0.0536507
-1.09981
1.09932
0.0531704
-0.0526745
-0.923478
0.922982
0.0520896
-0.0506832
-0.777932
0.776526
0.0483457
-0.0439501
-0.635051
0.630655
0.0379914
-0.0298584
-0.455785
0.447652
0.0220027
-0.0140413
-0.260222
0.25226
0.00812281
-0.00344836
-0.108092
0.103417
0.000938569
-0.015964
0.0150255
-0.031843
0.0326288
-0.000785783
0.00478494
-0.00708355
-0.231602
0.2339
0.00945301
-0.0113812
-0.400874
0.402802
0.0133584
-0.0153115
-0.561804
0.563757
0.0178194
-0.0206718
-0.691984
0.694837
0.0243755
-0.0281038
-0.817555
0.821283
0.0324353
-0.0365207
-0.965178
0.969264
0.041079
-0.0452353
-1.1421
1.14626
0.0496849
-0.053528
-1.35278
1.35662
0.057337
-0.0602747
-1.60343
1.60637
0.0623747
-0.0636941
-1.58798
1.5893
0.0642541
-0.0642922
-1.31738
1.31741
0.0638158
-0.0629972
-1.0989
1.09808
0.062236
-0.0614669
-0.922153
0.921384
0.0603944
-0.0584034
-0.77494
0.772949
0.0552198
-0.0496214
-0.626002
0.620403
0.0424351
-0.0330104
-0.439024
0.429599
0.0241505
-0.0153172
-0.243923
0.23509
0.00881598
-0.0037217
-0.0985545
0.0934602
0.00100657
-0.0140583
0.0130517
-0.0335006
0.0345878
-0.00108722
0.00673975
-0.0101382
-0.236665
0.240063
0.0137758
-0.0167852
-0.405373
0.408382
0.0197679
-0.0224747
-0.566667
0.569373
0.0256521
-0.0290618
-0.698226
0.701636
0.0333965
-0.0377002
-0.825011
0.829315
0.0426603
-0.0473053
-0.97331
0.977955
0.0524456
-0.0570831
-1.15041
1.15505
0.0619785
-0.0661263
-1.36044
1.36459
0.0701277
-0.0730874
-1.6092
1.61216
0.0750646
-0.0761479
-1.59028
1.59136
0.0764403
-0.0761754
-1.317
1.31673
0.0754185
-0.0742396
-1.09732
1.09614
0.0731877
-0.0721244
-0.920229
0.919165
0.0704882
-0.0677634
-0.770824
0.768099
0.0635004
-0.0563787
-0.614486
0.607364
0.0476627
-0.0366454
-0.419564
0.408546
0.02656
-0.0166886
-0.225801
0.21593
0.0095256
-0.00398428
-0.0881602
0.0826189
0.00106655
-0.0120192
0.0109527
-0.0357497
0.0372507
-0.00150095
0.0093109
-0.0140715
-0.243923
0.248684
0.0192154
-0.0234739
-0.412246
0.416505
0.0276207
-0.0312359
-0.573308
0.576923
0.0352664
-0.0394087
-0.705688
0.70983
0.0445487
-0.0495721
-0.833624
0.838647
0.0552968
-0.0606039
-0.982582
0.987889
0.066411
-0.0715752
-1.15968
1.16485
0.0769284
-0.0813575
-1.36868
1.37311
0.0854911
-0.0883905
-1.61496
1.61786
0.090153
-0.0909063
-1.59204
1.59279
0.0908747
-0.0902972
-1.31586
1.31528
0.0891846
-0.08762
-1.095
1.09343
0.0862656
-0.0847315
-0.917588
0.916054
0.0825878
-0.0788548
-0.765218
0.761485
0.0732175
-0.0641637
-0.599841
0.590788
0.0535406
-0.040584
-0.396789
0.383832
0.0290528
-0.0180144
-0.205541
0.194502
0.0101591
-0.0041936
-0.0768774
0.0709119
0.00110629
-0.00986852
0.00876223
-0.0387962
0.0408957
-0.00209945
0.0128514
-0.0193546
-0.253873
0.260376
0.0263114
-0.032025
-0.421983
0.427696
0.0375414
-0.0422648
-0.582115
0.586838
0.0473535
-0.0524348
-0.714737
0.719818
0.0586194
-0.0645324
-0.843676
0.849589
0.0711584
-0.0772093
-0.993196
0.999247
0.0837237
-0.0894036
-1.16999
1.17567
0.0951498
-0.0997587
-1.37743
1.38204
0.103875
-0.106556
-1.62051
1.62319
0.107952
-0.108234
-1.59303
1.59331
0.107785
-0.106769
-1.3139
1.31288
0.105284
-0.103348
-1.09192
1.08998
0.101684
-0.0995935
-0.913871
0.91178
0.0968456
-0.0917596
-0.757546
0.75246
0.0843003
-0.0727615
-0.581207
0.569669
0.059768
-0.0445001
-0.37001
0.354742
0.0313406
-0.0190883
-0.182922
0.17067
0.0105913
-0.00429643
-0.0647853
0.0584905
0.00111158
-0.00765292
0.00654134
-0.0429752
0.0459979
-0.00302265
0.0179998
-0.0267928
-0.267261
0.276054
0.0359762
-0.0434378
-0.435266
0.442727
0.0505724
-0.0566298
-0.593591
0.599649
0.0631241
-0.0694988
-0.725807
0.732182
0.0769273
-0.0838395
-0.855477
0.862389
0.0914265
-0.0982112
-1.00528
1.01207
0.105348
-0.111403
-1.18124
1.1873
0.117331
-0.121893
-1.38641
1.39097
0.125722
-0.127936
-1.62549
1.62771
0.128745
-0.128373
-1.59298
1.59261
0.127369
-0.125805
-1.31093
1.30936
0.123943
-0.121593
-1.088
1.08565
0.119493
-0.11686
-0.908873
0.906239
0.113177
-0.106268
-0.747054
0.740145
0.0963995
-0.0816895
-0.557444
0.542734
0.0657994
-0.0478786
-0.338528
0.320607
0.0330108
-0.0196448
-0.157929
0.144563
0.0106749
-0.00423563
-0.0521182
0.0456789
0.00106847
-0.00544692
0.00437845
-0.0488747
0.0534534
-0.00457875
0.0259601
-0.0378415
-0.285268
0.297149
0.0498995
-0.0597092
-0.453173
0.462983
0.068896
-0.0765632
-0.608316
0.615983
0.0847544
-0.0926565
-0.739376
0.747278
0.101413
-0.109286
-0.869237
0.877111
0.117684
-0.124976
-1.01874
1.02603
0.132405
-0.138487
-1.19307
1.19916
0.144186
-0.148319
-1.39508
1.39922
0.15145
-0.152847
-1.62935
1.63075
0.152772
-0.151497
-1.59148
1.5902
0.149769
-0.147568
-1.30671
1.30451
0.145265
-0.142446
-1.08313
1.08031
0.139873
-0.136559
-0.902484
0.89917
0.131474
-0.121937
-0.732642
0.723106
0.10882
-0.0901095
-0.52712
0.508409
0.0707958
-0.0500247
-0.30178
0.281009
0.033568
-0.0194062
-0.13089
0.116729
0.0102733
-0.0039643
-0.0392964
0.0329875
0.000965439
-0.00334875
0.00238331
-0.0576075
0.0654144
-0.00780697
0.0398883
-0.0563227
-0.310081
0.326516
0.0724314
-0.0853956
-0.477321
0.490285
0.09673
-0.105926
-0.626801
0.635997
0.115783
-0.125081
-0.755699
0.764997
0.134898
-0.143276
-0.884691
0.893069
0.151853
-0.159022
-1.03292
1.04009
0.166061
-0.171543
-1.20464
1.21013
0.176373
-0.179492
-1.4026
1.40572
0.181366
-0.181474
-1.63132
1.63143
0.180137
-0.177681
-1.58803
1.58557
0.175029
-0.172059
-1.30101
1.29804
0.169241
-0.165883
-1.07712
1.07376
0.162708
-0.158283
-0.894161
0.889736
0.151087
-0.137757
-0.712559
0.699229
0.120232
-0.0966601
-0.488464
0.464892
0.0736734
-0.0502463
-0.25963
0.236202
0.0326357
-0.0182368
-0.102651
0.0882522
0.00934327
-0.00347194
-0.0269168
0.0210454
0.000795313
-0.00146768
0.000672365
-0.0726625
0.0770539
-0.00439149
0.0305431
-0.044947
-0.345719
0.360123
0.059404
-0.0713589
-0.509047
0.521002
0.082238
-0.0925693
-0.648839
0.65917
0.104338
-0.115217
-0.773637
0.784516
0.127379
-0.13825
-0.900432
0.911303
0.149945
-0.160475
-1.04637
1.0569
0.171694
-0.181534
-1.21459
1.22443
0.191658
-0.200112
-1.40775
1.41621
0.208225
-0.214264
-1.63045
1.63649
0.218247
-0.220844
-1.58201
1.58461
0.222145
-0.22302
-1.29351
1.29439
0.223644
-0.223135
-1.06956
1.06905
0.221641
-0.216644
-0.882567
0.877571
0.205465
-0.183853
-0.684267
0.662655
0.155683
-0.119951
-0.439944
0.404212
0.0876042
-0.0568028
-0.212812
0.182011
0.0353054
-0.018861
-0.0746699
0.0582255
0.00920938
-0.00320272
-0.0156567
0.00965
0.000654038
0.000136395
-0.000790433
-0.0847668
0.0828551
0.00191173
0.00844859
-0.0179082
-0.377397
0.386856
0.0289878
-0.0377317
-0.537806
0.54655
0.0466452
-0.0553268
-0.672275
0.680957
0.0660705
-0.0762053
-0.794826
0.804961
0.0871471
-0.0971868
-0.921576
0.931616
0.107977
-0.117355
-1.06718
1.07656
0.127559
-0.136165
-1.23411
1.24272
0.145037
-0.15225
-1.42443
1.43165
0.158843
-0.163666
-1.64198
1.6468
0.16662
-0.168286
-1.58676
1.58842
0.168599
-0.168536
-1.29386
1.2938
0.168377
-0.167514
-1.0664
1.06554
0.164938
-0.157876
-0.867261
0.860199
0.145092
-0.123863
-0.636841
0.615612
0.0995514
-0.0719507
-0.366329
0.338728
0.049692
-0.0306615
-0.152284
0.133253
0.0183071
-0.00942742
-0.0430449
0.0341652
0.00442234
-0.00146747
-0.00392791
0.000973035
0.000262004
0.00163878
-0.00190078
-0.0864126
0.0834395
0.00297306
-0.000795679
-0.00473326
-0.399095
0.404624
0.0121691
-0.0186993
-0.559367
0.565898
0.0254015
-0.0328856
-0.692253
0.699737
0.042253
-0.0510725
-0.814033
0.822853
0.0608097
-0.0695925
-0.940827
0.94961
0.078803
-0.0872181
-1.08579
1.0942
0.0961863
-0.103878
-1.25093
1.25863
0.1114
-0.117412
-1.4383
1.44431
0.123042
-0.12686
-1.65117
1.65498
0.128902
-0.129762
-1.58967
1.59053
0.129476
-0.128916
-1.29278
1.29222
0.127939
-0.126492
-1.0616
1.06015
0.123258
-0.115296
-0.849041
0.841079
0.102699
-0.0836826
-0.591328
0.572311
0.064108
-0.0440261
-0.309452
0.28937
0.0295541
-0.0180455
-0.114452
0.102944
0.0107948
-0.0056459
-0.0254726
0.0203238
0.00270301
-0.000921797
0.00216207
-0.00394328
0.000174966
0.00236331
-0.00253828
-0.0851757
0.0822861
0.00288959
-0.00488652
0.00205697
-0.413706
0.416535
0.00282774
-0.00781426
-0.57561
0.580597
0.0134844
-0.0197702
-0.708713
0.714999
0.0278194
-0.0353946
-0.830885
0.83846
0.0437223
-0.0512664
-0.957804
0.965348
0.0595795
-0.0667601
-1.10216
1.10934
0.0746106
-0.0808965
-1.2659
1.27219
0.0874017
-0.0925332
-1.45013
1.45526
0.0970625
-0.0997576
-1.6585
1.6612
0.101193
-0.101574
-1.59098
1.59136
0.100911
-0.0995342
-1.29089
1.28951
0.0980602
-0.0959925
-1.05557
1.0535
0.0922524
-0.0846588
-0.829252
0.821658
0.0731503
-0.0575479
-0.550845
0.535243
0.0428549
-0.029169
-0.268344
0.254658
0.0198162
-0.0125449
-0.090816
0.0835447
0.00785591
-0.00435963
-0.0146604
0.0111641
0.00222181
-0.000817981
0.00608489
-0.00748872
0.000176392
0.00286046
-0.00303685
-0.0835983
0.0809867
0.00261163
-0.0064241
0.00530396
-0.423553
0.424673
-0.00162752
-0.00211797
-0.588654
0.5924
0.00665194
-0.0122979
-0.722538
0.728184
0.0190452
-0.0256712
-0.845207
0.851833
0.0328616
-0.0393957
-0.97239
0.978924
0.0465121
-0.0528466
-1.11635
1.12269
0.0594832
-0.0651252
-1.2783
1.28394
0.0706455
-0.074909
-1.45999
1.46425
0.0785192
-0.08043
-1.66376
1.66568
0.0811942
-0.0807968
-1.59109
1.59069
0.079713
-0.0780423
-1.28772
1.28605
0.0761134
-0.0733492
-1.04878
1.04602
0.0695759
-0.0626476
-0.810157
0.803228
0.0530631
-0.040837
-0.517592
0.505366
0.0302716
-0.0210457
-0.239719
0.230494
0.0148409
-0.00999885
-0.0754089
0.0705668
0.00669166
-0.00398306
-0.00702102
0.00431241
0.002182
-0.000863797
0.00925464
-0.0105728
0.000211071
0.00332213
-0.0035332
-0.0820282
0.0797402
0.00228802
-0.00665957
0.00616113
-0.430284
0.430782
-0.00395798
0.000926093
-0.598712
0.601744
0.00341481
-0.0082091
-0.734205
0.738999
0.0139599
-0.0196585
-0.85755
0.863248
0.0259749
-0.0317425
-0.985049
0.990817
0.038145
-0.0436141
-1.12869
1.13416
0.0494424
-0.0543602
-1.28922
1.29414
0.0590389
-0.0625401
-1.46816
1.47166
0.0652992
-0.0668411
-1.66745
1.66899
0.0669052
-0.0660669
-1.58981
1.58898
0.0645083
-0.0623619
-1.28389
1.28175
0.060244
-0.0569244
-1.04131
1.03799
0.0530242
-0.0469745
-0.792652
0.786602
0.0391633
-0.0298959
-0.491271
0.482004
0.022457
-0.0162569
-0.219968
0.213768
0.0122031
-0.00885028
-0.0647709
0.061418
0.0063164
-0.0040281
-0.000970264
-0.00131803
0.00234158
-0.000997718
0.0121929
-0.0135368
0.00026577
0.00381069
-0.00407646
-0.0807049
0.0788611
0.00184381
-0.00606182
0.0060294
-0.435147
0.43518
-0.00427126
0.00202107
-0.607383
0.609634
0.00194417
-0.00623071
-0.744216
0.748503
0.0115865
-0.0164275
-0.868461
0.873302
0.0218854
-0.0269033
-0.996491
1.00151
0.0328131
-0.037631
-1.13959
1.14441
0.0426399
-0.0470388
-1.29878
1.30318
0.0514522
-0.0543398
-1.47507
1.47795
0.056565
-0.057385
-1.67001
1.67083
0.0571613
-0.0555025
-1.5878
1.58614
0.053661
-0.0512214
-1.27914
1.2767
0.0485703
-0.0450849
-1.03332
1.02983
0.0410558
-0.0354859
-0.776921
0.771351
0.0293776
-0.0223603
-0.470762
0.463745
0.0171502
-0.0131555
-0.206327
0.202332
0.0104612
-0.0080934
-0.0571482
0.0547804
0.00612947
-0.0041525
0.00417851
-0.00615549
0.00254418
-0.00115183
0.0151354
-0.0165278
0.000333016
0.00437476
-0.00470777
-0.0798176
0.078327
0.0014906
-0.00518935
0.00541824
-0.43879
0.438561
-0.00389706
0.00184136
-0.614774
0.61683
0.00180919
-0.0056009
-0.753056
0.756848
0.010115
-0.0146644
-0.878024
0.882573
0.0195823
-0.0245876
-1.00626
1.01126
0.0295381
-0.0339415
-1.14925
1.15366
0.0387934
-0.0426334
-1.30735
1.31119
0.0461344
-0.0489783
-1.48061
1.48345
0.0507672
-0.0512053
-1.67156
1.67199
0.0503864
-0.0484792
-1.58449
1.58258
0.0462057
-0.0432624
-1.27361
1.27067
0.0402527
-0.0363318
-1.02508
1.02116
0.0321638
-0.0271951
-0.762688
0.75772
0.0219303
-0.0166682
-0.454818
0.449556
0.0130952
-0.0104564
-0.197062
0.194424
0.00871437
-0.00712823
-0.0515577
0.0499715
0.00567041
-0.00404962
0.00861197
-0.0102328
0.00260239
-0.00124275
0.0180882
-0.0194478
0.00038695
0.0050363
-0.00542325
-0.0794294
0.0781439
0.0012855
-0.0040395
0.00411917
-0.441819
0.441739
-0.00289688
0.000946709
-0.621374
0.623324
0.00235069
-0.00593888
-0.761109
0.764697
0.0101615
-0.0141829
-0.886856
0.890877
0.0190824
-0.0231192
-1.0156
1.01964
0.0278468
-0.0318651
-1.15814
1.16216
0.0363238
-0.0400567
-1.31489
1.31862
0.0434601
-0.0456322
-1.48589
1.48806
0.0471635
-0.0473206
-1.67215
1.67231
0.0463981
-0.0439369
-1.5803
1.57784
0.0412986
-0.0378747
-1.26747
1.26405
0.0344671
-0.0300495
-1.01609
1.01167
0.0257332
-0.0208292
-0.749672
0.744768
0.0163134
-0.0121073
-0.442389
0.438183
0.00945188
-0.00777992
-0.190567
0.188895
0.00666682
-0.00568196
-0.0475316
0.0465467
0.00472259
-0.0035408
0.0122255
-0.0134072
0.00237255
-0.00120565
0.0208298
-0.0219967
0.000397738
0.00574558
-0.00614332
-0.0792955
0.0783452
0.000950244
-0.00296946
0.00263111
-0.444737
0.445076
-0.00164718
-0.00029664
-0.627061
0.629005
0.0031945
-0.00657854
-0.768447
0.771831
0.0105283
-0.0145828
-0.89471
0.898765
0.0187222
-0.0227971
-1.02382
1.0279
0.027316
-0.0309321
-1.16653
1.17015
0.0352457
-0.0386652
-1.32203
1.32545
0.0417606
-0.0440722
-1.4905
1.49281
0.0455469
-0.0453492
-1.67228
1.67208
0.0439245
-0.0413756
-1.57528
1.57273
0.0385249
-0.0346165
-1.26013
1.25622
0.0306921
-0.0260608
-1.00643
1.00179
0.0210533
-0.016297
-0.737083
0.732327
0.0121572
-0.00851538
-0.432204
0.428562
0.00644679
-0.00517779
-0.18582
0.184551
0.00448567
-0.00392833
-0.0447609
0.0442035
0.00340318
-0.0026869
0.0148487
-0.015565
0.00190206
-0.00102934
0.0230833
-0.023956
0.000368185
0.0064101
-0.00677828
-0.0795591
0.0787872
0.00077183
-0.00204467
0.00178374
-0.447726
0.447987
-0.000331711
-0.00140602
-0.632682
0.63442
0.00442731
-0.00762166
-0.77512
0.778315
0.0113357
-0.0148961
-0.902438
0.905998
0.0190626
-0.0227043
-1.03191
1.03555
0.0270253
-0.0309388
-1.17415
1.17807
0.0346726
-0.0381992
-1.32881
1.33233
0.0414203
-0.0434668
-1.49485
1.4969
0.0448299
-0.0448506
-1.67188
1.6719
0.0432195
-0.0405472
-1.56975
1.56708
0.0372041
-0.0329983
-1.252
1.2478
0.0288258
-0.0236679
-0.996116
0.990958
0.0184967
-0.0133992
-0.724844
0.719746
0.00933035
-0.00592614
-0.423006
0.419602
0.00398926
-0.00291412
-0.182024
0.180949
0.00238489
-0.00213146
-0.0428992
0.0426458
0.00195547
-0.00167898
0.0164688
-0.0167452
0.00128121
-0.000761206
0.0246577
-0.0251777
0.000298373
0.00695589
-0.00725426
-0.0801221
0.0795279
0.000594203
-0.000989225
0.000574489
-0.450776
0.451191
0.000692964
-0.00270071
-0.637792
0.639799
0.00561992
-0.00861368
-0.781423
0.784417
0.0123526
-0.0156971
-0.909497
0.912842
0.0196194
-0.0232965
-1.03963
1.04331
0.0274067
-0.0311548
-1.18175
1.1855
0.0349471
-0.0383145
-1.33567
1.33904
0.0414654
-0.0439839
-1.49909
1.50161
0.0453767
-0.0452011
-1.67163
1.67146
0.0436835
-0.0406602
-1.56399
1.56097
0.0372603
-0.0329465
-1.24321
1.2389
0.0282458
-0.0227495
-0.985008
0.979512
0.0173198
-0.0117808
-0.712439
0.706901
0.00765408
-0.00420059
-0.414413
0.41096
0.00230774
-0.00115658
-0.178627
0.177476
0.000697233
-0.000589958
-0.0416517
0.0415444
0.00064444
-0.000702134
0.0172093
-0.0171516
0.000637943
-0.000454481
0.0254897
-0.0256731
0.000214272
0.00732457
-0.00753885
-0.0809275
0.0804597
0.000467776
-0.000123231
-0.00039298