/*--------------------------------*- C++ -*----------------------------------*\
  =========                 |
  \\      /  F ield         | OpenFOAM: The Open Source CFD Toolbox
   \\    /   O peration     | Website:  https://openfoam.org
    \\  /    A nd           | Version:  6
     \\/     M anipulation  |
\*---------------------------------------------------------------------------*/
FoamFile
{
    version     2.0;
    format      ascii;
    class       volVectorField;
    location    "72";
    object      U;
}
// * * * * * * * * * * * * * * * * * * * * * * * * * * * * * * * * * * * * * //

dimensions      [0 1 -1 0 0 0 0];

internalField   nonuniform List<vector> 
8800
(
(0.987195 -0.076705 0)
(1.0019 -0.0551761 0)
(0.999723 -0.0285486 0)
(1.00003 -0.0151519 0)
(1.0001 -0.00855383 0)
(1.00012 -0.00505354 0)
(1.00007 -0.00300621 0)
(1.00003 -0.00170468 0)
(0.999998 -0.000797613 0)
(1.00006 -8.07136e-05 0)
(0.999973 0.000650594 0)
(0.999985 0.00141875 0)
(1.00003 0.00243774 0)
(1.00006 0.00400625 0)
(1.00004 0.00664008 0)
(1.00002 0.0113803 0)
(0.999914 0.0208196 0)
(0.999157 0.0386589 0)
(1.0071 0.0724582 0)
(0.771226 0.03669 0)
(0.363047 -0.0160149 0)
(1.04332 -0.0768242 0)
(1.08462 -0.0704399 0)
(1.04522 -0.0535416 0)
(1.02331 -0.0388914 0)
(1.01204 -0.026217 0)
(1.00644 -0.0168599 0)
(1.0036 -0.0103307 0)
(1.00215 -0.00567126 0)
(1.00145 -0.00201356 0)
(1.0013 0.00131133 0)
(1.00167 0.0046954 0)
(1.00266 0.00862837 0)
(1.00467 0.0139564 0)
(1.00861 0.0216594 0)
(1.01658 0.0326257 0)
(1.03251 0.0465397 0)
(1.06268 0.0616603 0)
(1.09189 0.076089 0)
(0.838667 0.0565794 0)
(0.216836 -0.00242106 0)
(1.07588 -0.0501455 0)
(1.09987 -0.0483246 0)
(1.06464 -0.0404714 0)
(1.04003 -0.0336093 0)
(1.02391 -0.0260864 0)
(1.01412 -0.0185038 0)
(1.00856 -0.0116838 0)
(1.00559 -0.00581459 0)
(1.00432 -0.000395282 0)
(1.00465 0.00485271 0)
(1.00658 0.0102456 0)
(1.01061 0.0163318 0)
(1.01794 0.0233478 0)
(1.03052 0.0308139 0)
(1.05061 0.0378481 0)
(1.08033 0.0445387 0)
(1.10625 0.0513557 0)
(0.942514 0.041618 0)
(0.216142 0.0024529 0)
(0.175168 -0.000814153 0)
(1.01768 -0.035488 0)
(1.1052 -0.0413864 0)
(1.07826 -0.0360717 0)
(1.05346 -0.030138 0)
(1.03619 -0.024561 0)
(1.02399 -0.0188301 0)
(1.01587 -0.0127472 0)
(1.01101 -0.00655583 0)
(1.0088 -0.000217447 0)
(1.00936 0.00604048 0)
(1.01262 0.012042 0)
(1.01886 0.0178718 0)
(1.02876 0.023438 0)
(1.04319 0.0287402 0)
(1.06371 0.0342243 0)
(1.09355 0.0402081 0)
(1.0934 0.0419676 0)
(0.827129 0.0229148 0)
(0.173998 0.000850768 0)
(0.153965 -0.000609266 0)
(0.956173 -0.0254613 0)
(1.10345 -0.035133 0)
(1.08767 -0.0326568 0)
(1.06172 -0.0280034 0)
(1.0441 -0.0229787 0)
(1.03163 -0.0177298 0)
(1.02278 -0.0121944 0)
(1.01696 -0.006253 0)
(1.0141 0.000221751 0)
(1.01477 0.00668744 0)
(1.01874 0.0125748 0)
(1.02579 0.0178626 0)
(1.03609 0.022768 0)
(1.05064 0.0275265 0)
(1.07188 0.0320573 0)
(1.10006 0.03599 0)
(1.06806 0.0340444 0)
(0.739492 0.0143193 0)
(0.152201 0.000650807 0)
(0.139594 -0.000465961 0)
(0.899277 -0.019078 0)
(1.09578 -0.0300811 0)
(1.09574 -0.0291894 0)
(1.06924 -0.0254551 0)
(1.05081 -0.0213126 0)
(1.03788 -0.0165367 0)
(1.02876 -0.0112456 0)
(1.02264 -0.00549508 0)
(1.01949 0.0008394 0)
(1.0201 0.00715655 0)
(1.02419 0.0127951 0)
(1.03136 0.0177508 0)
(1.04187 0.0222006 0)
(1.05699 0.0261665 0)
(1.07919 0.0296297 0)
(1.10225 0.0322517 0)
(1.03593 0.0281418 0)
(0.67288 0.0102209 0)
(0.137101 0.00051385 0)
(0.129056 -0.000360723 0)
(0.849703 -0.0147134 0)
(1.0834 -0.0259443 0)
(1.10143 -0.0262334 0)
(1.0761 -0.0229433 0)
(1.05714 -0.0192942 0)
(1.04375 -0.0150432 0)
(1.03428 -0.0101134 0)
(1.02791 -0.00457223 0)
(1.02457 0.00158481 0)
(1.02502 0.00769029 0)
(1.02906 0.0130534 0)
(1.03634 0.017597 0)
(1.04714 0.0214389 0)
(1.06265 0.0247401 0)
(1.08529 0.0276826 0)
(1.10133 0.0294312 0)
(1.00096 0.0236379 0)
(0.620978 0.0078614 0)
(0.125677 0.00041706 0)
(0.12102 -0.00028008 0)
(0.80759 -0.0115525 0)
(1.06815 -0.0223283 0)
(1.10497 -0.0235877 0)
(1.08237 -0.0207088 0)
(1.06298 -0.0172724 0)
(1.04932 -0.0133271 0)
(1.03957 -0.00873312 0)
(1.03291 -0.00346152 0)
(1.02932 0.00247869 0)
(1.02959 0.00833661 0)
(1.03358 0.0133527 0)
(1.04092 0.0174243 0)
(1.05181 0.0207554 0)
(1.06753 0.023646 0)
(1.09051 0.0262879 0)
(1.09751 0.027138 0)
(0.965605 0.0201121 0)
(0.579229 0.00633257 0)
(0.116562 0.000347085 0)
(0.114798 -0.00021683 0)
(0.772164 -0.0091864 0)
(1.05142 -0.0191424 0)
(1.10737 -0.0211368 0)
(1.08825 -0.0186256 0)
(1.06848 -0.0153312 0)
(1.05458 -0.011546 0)
(1.04463 -0.00716032 0)
(1.03772 -0.00212752 0)
(1.03384 0.00356219 0)
(1.03388 0.00912127 0)
(1.03773 0.0137608 0)
(1.04502 0.0174138 0)
(1.05589 0.0203534 0)
(1.07181 0.0229195 0)
(1.09443 0.025214 0)
(1.09084 0.0252467 0)
(0.931161 0.017399 0)
(0.544613 0.0052921 0)
(0.10903 0.000296955 0)
(0.109956 -0.000165856 0)
(0.742487 -0.00734771 0)
(1.03428 -0.0163153 0)
(1.10883 -0.0188231 0)
(1.09385 -0.0166148 0)
(1.0738 -0.0134093 0)
(1.05962 -0.00971077 0)
(1.04948 -0.00544356 0)
(1.04234 -0.00058125 0)
(1.03817 0.00486907 0)
(1.0379 0.0101148 0)
(1.04152 0.0143922 0)
(1.04866 0.0176737 0)
(1.05949 0.020264 0)
(1.0756 0.0225402 0)
(1.09707 0.0244537 0)
(1.08171 0.0237101 0)
(0.898183 0.0153488 0)
(0.515073 0.00457087 0)
(0.102596 0.000262001 0)
(0.106211 -0.000123399 0)
(0.71774 -0.00586233 0)
(1.01756 -0.0137749 0)
(1.10948 -0.016583 0)
(1.09936 -0.0146438 0)
(1.07904 -0.0114459 0)
(1.06458 -0.00777448 0)
(1.0542 -0.0035656 0)
(1.04681 0.00118504 0)
(1.0423 0.00643773 0)
(1.04165 0.0113944 0)
(1.04495 0.0153341 0)
(1.05189 0.0182616 0)
(1.06266 0.0205123 0)
(1.07894 0.0225221 0)
(1.09835 0.0240225 0)
(1.07048 0.0225296 0)
(0.866773 0.0138464 0)
(0.489147 0.00407909 0)
(0.0969171 0.000239229 0)
(0.103376 -8.64929e-05 0)
(0.697285 -0.00461401 0)
(1.00188 -0.0114535 0)
(1.10947 -0.0143799 0)
(1.10472 -0.0126252 0)
(1.0843 -0.00938746 0)
(1.06951 -0.00568357 0)
(1.05887 -0.00147286 0)
(1.05116 0.00322281 0)
(1.04623 0.00832556 0)
(1.04512 0.0130229 0)
(1.04804 0.016642 0)
(1.05475 0.0192229 0)
(1.06543 0.021138 0)
(1.08182 0.0228881 0)
(1.09861 0.0239973 0)
(1.05742 0.0217167 0)
(0.836755 0.0128035 0)
(0.465738 0.00376135 0)
(0.0917332 0.000226219 0)
(0.101332 -5.24684e-05 0)
(0.680654 -0.0035154 0)
(0.98768 -0.00927997 0)
(1.10902 -0.0121265 0)
(1.10991 -0.0104769 0)
(1.08965 -0.0071725 0)
(1.07451 -0.00337637 0)
(1.06355 0.000901372 0)
(1.05545 0.00560358 0)
(1.05001 0.0106074 0)
(1.04834 0.0150762 0)
(1.05081 0.0183864 0)
(1.05723 0.020621 0)
(1.06778 0.0221955 0)
(1.08421 0.0236696 0)
(1.09784 0.024361 0)
(1.04266 0.0212826 0)
(0.807781 0.0121484 0)
(0.443978 0.00357994 0)
(0.0868381 0.000221 0)
(0.100019 -1.90876e-05 0)
(0.667547 -0.00249693 0)
(0.975337 -0.0071801 0)
(1.10845 -0.00976543 0)
(1.11508 -0.00813919 0)
(1.09517 -0.00472617 0)
(1.07965 -0.000773446 0)
(1.0683 0.00363849 0)
(1.05973 0.00841079 0)
(1.05368 0.0133687 0)
(1.05132 0.0176381 0)
(1.05324 0.020644 0)
(1.05931 0.0225195 0)
(1.0697 0.0237408 0)
(1.08613 0.0249374 0)
(1.09585 0.0251601 0)
(1.02626 0.0212189 0)
(0.779404 0.0118284 0)
(0.423159 0.0035098 0)
(0.0820675 0.000222143 0)
(0.0994225 1.58197e-05 0)
(0.657812 -0.00150482 0)
(0.965162 -0.00508312 0)
(1.10808 -0.00723456 0)
(1.12036 -0.00553593 0)
(1.10095 -0.00195787 0)
(1.08501 0.00222033 0)
(1.0732 0.00683693 0)
(1.06405 0.0117471 0)
(1.05725 0.0167092 0)
(1.05408 0.0208027 0)
(1.05533 0.0235106 0)
(1.06099 0.0250144 0)
(1.0712 0.0258723 0)
(1.08751 0.0267456 0)
(1.09256 0.0264151 0)
(1.00816 0.0215696 0)
(0.751129 0.0118184 0)
(0.402685 0.00353734 0)
(0.077285 0.000229027 0)
(0.0995613 4.7622e-05 0)
(0.65143 -0.000494507 0)
(0.957462 -0.00291568 0)
(1.10826 -0.00446394 0)
(1.12591 -0.00258474 0)
(1.10708 0.00122826 0)
(1.09069 0.00570921 0)
(1.07833 0.0106102 0)
(1.06848 0.0157321 0)
(1.06077 0.020756 0)
(1.05662 0.0246966 0)
(1.05708 0.0270992 0)
(1.06225 0.0282271 0)
(1.07222 0.0286936 0)
(1.08809 0.0291905 0)
(1.08764 0.0281957 0)
(0.988156 0.0223594 0)
(0.722392 0.0121018 0)
(0.382008 0.0036533 0)
(0.0723668 0.000240943 0)
(0.100509 9.39978e-05 0)
(0.648526 0.00055348 0)
(0.952556 -0.000593803 0)
(1.10937 -0.00137172 0)
(1.13194 0.000814974 0)
(1.1137 0.0049545 0)
(1.09679 0.00982788 0)
(1.08377 0.0151015 0)
(1.07307 0.0205159 0)
(1.06426 0.0256586 0)
(1.05893 0.029464 0)
(1.05845 0.0315446 0)
(1.06304 0.0322796 0)
(1.07271 0.032328 0)
(1.08777 0.0323956 0)
(1.08088 0.0305881 0)
(0.965954 0.0236293 0)
(0.692578 0.0126702 0)
(0.360617 0.00385038 0)
(0.0672038 0.000257112 0)
(0.102423 0.000151675 0)
(0.649428 0.00173433 0)
(0.950808 0.00195038 0)
(1.11184 0.00214634 0)
(1.13865 0.00477708 0)
(1.12093 0.0093635 0)
(1.10343 0.0147343 0)
(1.08963 0.020483 0)
(1.07788 0.0262748 0)
(1.06774 0.0315873 0)
(1.06101 0.0352681 0)
(1.05942 0.0369867 0)
(1.06331 0.0373119 0)
(1.07261 0.0369065 0)
(1.08623 0.0364741 0)
(1.07198 0.0336834 0)
(0.941111 0.025416 0)
(0.661019 0.0135172 0)
(0.338028 0.00412096 0)
(0.0617013 0.000276681 0)
(0.105383 0.00021512 0)
(0.654582 0.00318342 0)
(0.952666 0.00488776 0)
(1.11615 0.00623542 0)
(1.14628 0.00945276 0)
(1.12896 0.0146318 0)
(1.11077 0.0206258 0)
(1.096 0.0269658 0)
(1.08298 0.0332263 0)
(1.07124 0.0387557 0)
(1.06284 0.0422976 0)
(1.05996 0.04361 0)
(1.063 0.0434937 0)
(1.07185 0.0425843 0)
(1.08341 0.041624 0)
(1.06053 0.0375889 0)
(0.913042 0.0277629 0)
(0.626991 0.0146344 0)
(0.313783 0.00445499 0)
(0.0557815 0.000298408 0)
(0.10968 0.000298954 0)
(0.664383 0.00487517 0)
(0.958599 0.00834311 0)
(1.1228 0.0110452 0)
(1.15513 0.015047 0)
(1.13801 0.0210073 0)
(1.11898 0.0277722 0)
(1.10301 0.0348301 0)
(1.08842 0.041645 0)
(1.07473 0.0474134 0)
(1.06437 0.0507684 0)
(1.05998 0.051612 0)
(1.06204 0.0510096 0)
(1.07036 0.0495248 0)
(1.07934 0.0479526 0)
(1.046 0.0424127 0)
(0.880999 0.030688 0)
(0.58972 0.0159946 0)
(0.287469 0.00483424 0)
(0.0493921 0.000320244 0)
(0.115654 0.000412632 0)
(0.679688 0.00699966 0)
(0.969297 0.0125244 0)
(1.13237 0.0168124 0)
(1.16555 0.0218206 0)
(1.14833 0.0288061 0)
(1.12823 0.0365169 0)
(1.11076 0.0444288 0)
(1.09422 0.0518642 0)
(1.07818 0.0578506 0)
(1.06551 0.0609248 0)
(1.05932 0.0611777 0)
(1.06036 0.0600434 0)
(1.06813 0.0579285 0)
(1.07372 0.0556452 0)
(1.0277 0.0482291 0)
(0.844074 0.0341788 0)
(0.548422 0.0175448 0)
(0.258764 0.00522968 0)
(0.0425227 0.00033943 0)
(0.123829 0.000570241 0)
(0.701397 0.00977465 0)
(0.985617 0.0177389 0)
(1.14552 0.0238791 0)
(1.17805 0.0301683 0)
(1.16024 0.0384843 0)
(1.13875 0.0473355 0)
(1.11934 0.0562233 0)
(1.10037 0.0642956 0)
(1.08151 0.0704013 0)
(1.06618 0.0730248 0)
(1.05797 0.0725385 0)
(1.05786 0.0707471 0)
(1.06503 0.0679204 0)
(1.06614 0.064615 0)
(1.00469 0.055096 0)
(0.801196 0.0381655 0)
(0.50236 0.0191861 0)
(0.227506 0.00559784 0)
(0.0352209 0.000352369 0)
(0.134943 0.000799245 0)
(0.730812 0.013589 0)
(1.00872 0.0244531 0)
(1.16304 0.0327937 0)
(1.19323 0.0406958 0)
(1.17412 0.0507237 0)
(1.1507 0.0609114 0)
(1.12875 0.070835 0)
(1.10674 0.0794426 0)
(1.08454 0.0854251 0)
(1.06619 0.0873129 0)
(1.05581 0.0859001 0)
(1.0545 0.0833696 0)
(1.06068 0.0796521 0)
(1.05586 0.0751707 0)
(0.97577 0.0629684 0)
(0.751188 0.0424742 0)
(0.450976 0.0207555 0)
(0.193798 0.00587772 0)
(0.0276131 0.00035468 0)
(0.150253 0.0011578 0)
(0.769923 0.0190671 0)
(1.04026 0.0334519 0)
(1.18588 0.0444909 0)
(1.21193 0.0545814 0)
(1.19029 0.0665694 0)
(1.16414 0.0782087 0)
(1.13883 0.0890548 0)
(1.11307 0.0978777 0)
(1.08699 0.103292 0)
(1.06534 0.104021 0)
(1.05268 0.101406 0)
(1.05014 0.0980018 0)
(1.05486 0.0935099 0)
(1.04201 0.0873062 0)
(0.939401 0.0716491 0)
(0.692897 0.0467848 0)
(0.394113 0.0220168 0)
(0.158133 0.00599508 0)
(0.0199202 0.000341983 0)
(0.171954 0.00177977 0)
(0.821975 0.0273425 0)
(1.08288 0.046283 0)
(1.21519 0.0608508 0)
(1.23468 0.0737854 0)
(1.20884 0.0876591 0)
(1.17879 0.100563 0)
(1.14914 0.111836 0)
(1.11889 0.1202 0)
(1.08846 0.12432 0)
(1.06333 0.123305 0)
(1.04838 0.119144 0)
(1.04467 0.114672 0)
(1.04753 0.109235 0)
(1.0233 0.100887 0)
(0.893681 0.0806826 0)
(0.625526 0.05061 0)
(0.332397 0.0226764 0)
(0.121557 0.0058735 0)
(0.0124697 0.000310024 0)
(0.203427 0.00314722 0)
(0.892731 0.0410386 0)
(1.14014 0.0667554 0)
(1.25134 0.0854622 0)
(1.26123 0.101157 0)
(1.22913 0.116379 0)
(1.1938 0.129603 0)
(1.15885 0.140164 0)
(1.12351 0.146935 0)
(1.08845 0.148733 0)
(1.05984 0.145228 0)
(1.04275 0.139114 0)
(1.03794 0.133367 0)
(1.03809 0.126888 0)
(0.997959 0.115476 0)
(0.836383 0.0892808 0)
(0.549365 0.0532996 0)
(0.267984 0.0225116 0)
(0.085952 0.00547917 0)
(0.00574925 0.000253782 0)
(0.246363 0.00938598 4.77436e-20)
(0.98615 0.0681363 4.16901e-20)
(1.20963 0.101454 -1.4566e-20)
(1.29121 0.121991 0)
(1.28866 0.140344 -3.70693e-34)
(1.24893 0.15509 5.41725e-21)
(1.20759 0.166832 -9.74054e-21)
(1.16686 0.175233 0)
(1.12612 0.179324 1.99975e-34)
(1.0862 0.178013 -1.20347e-20)
(1.05394 0.171538 0)
(1.03464 0.163337 -1.43019e-20)
(1.0291 0.15658 -4.22029e-20)
(1.02512 0.149658 -1.99426e-20)
(0.96146 0.133512 -6.00134e-21)
(0.761034 0.0984983 -3.56505e-21)
(0.459445 0.0549941 0)
(0.199718 0.0218825 2.49025e-21)
(0.0514668 0.00504695 2.9396e-21)
(-0.000256593 0.000166891 5.30401e-20)
(0.276126 0.0246578 3.48536e-20)
(1.06352 0.110964 5.5098e-22)
(1.26696 0.150897 3.86956e-21)
(1.32706 0.171394 0)
(1.31277 0.189927 -1.87368e-20)
(1.26596 0.202549 -2.12903e-20)
(1.21868 0.212006 -9.80987e-21)
(1.17214 0.217958 -3.48788e-20)
(1.12585 0.21937 0)
(1.08075 0.215049 5.11197e-20)
(1.04448 0.20572 5.06956e-20)
(1.02282 0.195499 1.50455e-20)
(1.01496 0.187078 5.49238e-20)
(1.00128 0.177828 7.72019e-20)
(0.903227 0.153873 0)
(0.657922 0.107659 1.08716e-19)
(0.353299 0.056212 1.55777e-19)
(0.129011 0.020526 1.72908e-19)
(0.0172003 0.00345541 -1.9761e-19)
(-0.00617873 -0.000449466 -3.72169e-21)
(0.277571 0.0415921 0)
(1.11284 0.166358 6.04175e-21)
(1.30589 0.21137 0)
(1.35504 0.231549 -2.42281e-20)
(1.33175 0.247298 0)
(1.27898 0.25602 -4.16768e-20)
(1.22615 0.261724 1.99849e-20)
(1.17411 0.264088 -7.00326e-20)
(1.12256 0.261918 -1.60285e-21)
(1.07261 0.253901 2.63682e-20)
(1.03268 0.241221 1.11171e-19)
(1.00888 0.228669 -1.91614e-22)
(0.998533 0.218243 -3.9815e-20)
(0.975221 0.205246 -7.24038e-20)
(0.8498 0.17328 8.56771e-20)
(0.58205 0.115591 -1.51583e-19)
(0.289003 0.057007 -1.99656e-20)
(0.0899595 0.0188463 0)
(-0.0016265 0.00116743 -1.64193e-23)
(-0.00965004 -0.00129701 0)
(0.270961 0.0558182 7.69204e-20)
(1.13961 0.225413 -3.78732e-20)
(1.33006 0.276386 -2.94138e-20)
(1.37362 0.297007 1.13647e-20)
(1.34413 0.308996 -1.91043e-20)
(1.28693 0.31315 8.70778e-20)
(1.22954 0.314384 4.15719e-20)
(1.17276 0.312464 0)
(1.11654 0.306089 -1.31855e-19)
(1.0622 0.293821 0)
(1.01893 0.277386 -5.81689e-20)
(0.99308 0.262104 -7.1857e-20)
(0.980263 0.24931 -4.32101e-20)
(0.948603 0.231947 -5.24431e-20)
(0.805986 0.191579 0)
(0.53183 0.124009 0)
(0.253096 0.0592397 -1.29554e-19)
(0.0679811 0.0173868 2.55521e-20)
(-0.0140609 -0.00167245 -1.49742e-20)
(-0.0125726 -0.00238496 -1.75154e-20)
(0.263042 0.0682983 -2.87861e-20)
(1.15139 0.284349 0)
(1.3434 0.342367 5.87936e-20)
(1.38384 0.363882 3.16187e-20)
(1.35003 0.372097 4.42482e-20)
(1.28961 0.371679 0)
(1.22867 0.368318 4.05102e-20)
(1.16802 0.361889 7.71675e-20)
(1.1078 0.351022 6.73853e-20)
(1.04956 0.334203 1.23651e-19)
(1.0032 0.31371 0)
(0.975384 0.295438 -1.54538e-19)
(0.96022 0.279887 -9.30297e-20)
(0.921836 0.25794 -5.49963e-20)
(0.770928 0.20988 3.35803e-19)
(0.50012 0.133841 3.98487e-20)
(0.234074 0.0628139 1.87074e-19)
(0.056282 0.016354 -8.83315e-19)
(-0.0220492 -0.00467499 5.21926e-19)
(-0.0149767 -0.00361691 -6.29163e-19)
(0.25537 0.0794745 -1.12504e-20)
(1.15357 0.341245 5.12376e-21)
(1.34889 0.407443 -6.04286e-21)
(1.38734 0.430239 -3.11271e-20)
(1.35042 0.434874 -3.68008e-20)
(1.28758 0.430053 1.80878e-21)
(1.22386 0.422229 -4.38583e-20)
(1.16004 0.411348 7.95944e-20)
(1.09642 0.39597 -1.44814e-19)
(1.03471 0.374518 0)
(0.98547 0.349817 -6.99728e-20)
(0.955657 0.328356 -1.57857e-21)
(0.938195 0.309897 -1.0166e-19)
(0.895051 0.283476 0)
(0.742151 0.228602 -7.2599e-20)
(0.480325 0.145057 -1.71838e-19)
(0.22555 0.0681282 4.56809e-19)
(0.0524011 0.0162667 -4.50043e-19)
(-0.025777 -0.00729122 6.37821e-19)
(-0.0166249 -0.00484999 -6.62806e-19)
(0.248797 0.0897498 -5.19491e-22)
(1.14973 0.395422 -9.26529e-22)
(1.3487 0.470588 -1.50881e-20)
(1.38558 0.49492 1.19978e-20)
(1.34638 0.496311 -1.84092e-20)
(1.2817 0.487344 0)
(1.21573 0.475293 -4.06177e-20)
(1.14926 0.460144 -8.32563e-20)
(1.08269 0.440371 -7.51948e-20)
(1.01788 0.414357 0)
(0.965901 0.385459 -7.24672e-20)
(0.934081 0.360726 -8.975e-20)
(0.914468 0.339324 1.1016e-19)
(0.868179 0.308594 -6.67249e-20)
(0.717388 0.24784 -3.16432e-19)
(0.467091 0.157858 1.87247e-19)
(0.223621 0.0747914 5.54307e-20)
(0.0537118 0.0174447 0)
(-0.0257211 -0.00900685 -6.1586e-19)
(-0.0172986 -0.00588837 -2.26017e-20)
(0.243478 0.0994619 1.73387e-21)
(1.14221 0.446713 -1.86485e-21)
(1.34433 0.531249 6.65945e-21)
(1.3798 0.557236 4.34575e-20)
(1.33885 0.555763 -6.69482e-20)
(1.27277 0.542986 8.11534e-20)
(1.20498 0.527004 8.74767e-20)
(1.13625 0.507835 -1.33e-19)
(1.06705 0.48387 4.64765e-20)
(0.999345 0.453425 -3.03495e-19)
(0.944799 0.420447 -8.19657e-20)
(0.910995 0.39245 0)
(0.889348 0.368168 1.19536e-19)
(0.8409 0.333387 1.43196e-19)
(0.694286 0.267508 1.70598e-19)
(0.456478 0.171719 -2.03588e-19)
(0.223859 0.082764 -6.00923e-20)
(0.0578629 0.020099 7.06627e-20)
(-0.0227971 -0.00951835 0)
(-0.0170186 -0.00659024 -4.91273e-20)
(0.239318 0.10871 -4.18168e-20)
(1.13269 0.495199 1.97815e-20)
(1.33706 0.589275 -5.35356e-21)
(1.37102 0.616835 2.55731e-20)
(1.32867 0.612838 -2.95444e-20)
(1.26153 0.5966 -4.14453e-21)
(1.19223 0.577035 -9.57094e-20)
(1.12152 0.554155 -4.81534e-20)
(1.04993 0.52624 -1.30695e-19)
(0.979545 0.491559 3.29057e-22)
(0.922524 0.454617 -2.56849e-19)
(0.886778 0.423457 2.16687e-19)
(0.863148 0.396325 -1.31479e-19)
(0.813146 0.35778 1.57869e-19)
(0.671813 0.286825 0)
(0.446121 0.186055 -1.1088e-19)
(0.224438 0.0915122 3.26968e-22)
(0.0630527 0.023927 -3.08759e-19)
(-0.0182989 -0.0089639 -4.52872e-20)
(-0.0160895 -0.00695788 0)
(0.236236 0.117739 0)
(1.12219 0.541107 2.47618e-20)
(1.32778 0.644958 2.65152e-22)
(1.36003 0.673552 -2.25168e-20)
(1.31653 0.66732 -3.83241e-20)
(1.24856 0.647977 0)
(1.17801 0.625181 -4.3195e-20)
(1.10557 0.59892 -1.05708e-21)
(1.03181 0.567351 2.80312e-19)
(0.958862 0.528669 -4.17217e-20)
(0.899403 0.48789 -1.85584e-19)
(0.861771 0.453648 1.12754e-19)
(0.836301 0.423748 -2.24475e-21)
(0.785011 0.38156 1.68326e-19)
(0.648704 0.305714 1.02877e-19)
(0.434406 0.200315 -2.39433e-19)
(0.223604 0.100405 2.83063e-19)
(0.0677399 0.0284008 8.38791e-20)
(-0.013208 -0.00757668 3.45403e-19)
(-0.0147122 -0.00700654 -9.22797e-19)
(0.234142 0.126687 -1.75598e-20)
(1.11143 0.584617 2.1398e-20)
(1.31709 0.697772 -1.25858e-20)
(1.34751 0.727336 1.58348e-20)
(1.30302 0.719109 0)
(1.2344 0.696994 -3.65879e-20)
(1.16279 0.671322 1.45691e-19)
(1.08881 0.642013 1.05677e-19)
(1.01302 0.607118 0)
(0.937569 0.564684 -6.01846e-19)
(0.875716 0.520214 5.02888e-19)
(0.836224 0.482937 0)
(0.808989 0.450292 1.54063e-19)
(0.756495 0.404433 -2.21475e-21)
(0.624633 0.323638 -3.31091e-19)
(0.420859 0.213692 1.29199e-19)
(0.22037 0.10897 0)
(0.0708545 0.0330561 4.5343e-19)
(-0.00853376 -0.0057383 0)
(-0.0131768 -0.00683027 -4.37528e-19)
(0.232897 0.135591 2.20643e-20)
(1.10083 0.625939 3.092e-20)
(1.30542 0.747772 -1.16338e-20)
(1.33397 0.778203 0)
(1.2886 0.76819 -3.14307e-20)
(1.21947 0.743613 0)
(1.14696 0.715392 -1.43387e-19)
(1.07158 0.683372 -4.89195e-20)
(0.993858 0.645486 4.95019e-20)
(0.91597 0.599594 -2.97974e-19)
(0.851686 0.551571 5.19804e-20)
(0.810357 0.511293 0)
(0.781429 0.4758 -3.2967e-19)
(0.727657 0.426138 2.11265e-21)
(0.599103 0.340278 0)
(0.405309 0.22559 8.9203e-22)
(0.214538 0.116537 4.15424e-19)
(0.0716639 0.037221 -3.92037e-19)
(-0.00505133 -0.00395936 1.1565e-19)
(-0.0117565 -0.0065506 0)
(0.232152 0.144377 0)
(1.09058 0.665246 3.92726e-20)
(1.29321 0.795066 2.18392e-20)
(1.31982 0.826221 -2.56487e-21)
(1.27365 0.814593 -9.49779e-21)
(1.20412 0.787836 -8.26291e-20)
(1.13083 0.757375 5.40242e-20)
(1.05417 0.722975 -5.80216e-20)
(0.974627 0.68243 2.21405e-19)
(0.894295 0.6334 -4.77437e-19)
(0.827497 0.581985 -4.28222e-21)
(0.784287 0.538658 -1.44501e-19)
(0.753711 0.500142 5.35641e-19)
(0.698633 0.446386 -2.5642e-21)
(0.572742 0.355215 -2.57897e-19)
(0.38777 0.235609 -4.56935e-19)
(0.206348 0.122586 0)
(0.0702864 0.0403182 0)
(-0.00297592 -0.00263395 1.2493e-19)
(-0.0105907 -0.0062942 -7.32778e-20)
(0.232037 0.153208 3.32946e-20)
(1.08092 0.702329 -9.14097e-20)
(1.28074 0.839745 -2.35276e-20)
(1.30537 0.871474 0)
(1.25848 0.858375 -1.53941e-21)
(1.18863 0.829696 -7.47829e-20)
(1.11467 0.797285 1.30014e-19)
(1.03685 0.760814 2.28199e-19)
(0.955549 0.717957 2.88118e-19)
(0.872742 0.666115 -3.90708e-19)
(0.803312 0.611499 -4.34428e-19)
(0.758114 0.565045 3.87018e-19)
(0.725886 0.523209 0)
(0.669406 0.464886 -1.17683e-19)
(0.545637 0.367997 -2.78724e-19)
(0.36863 0.243324 -3.28877e-19)
(0.196047 0.126671 -3.87712e-19)
(0.0670407 0.0420518 1.14477e-19)
(-0.00215908 -0.00195446 -6.7293e-20)
(-0.00970265 -0.00611853 3.18022e-22)
(0.232135 0.161863 0)
(1.07196 0.737722 0)
(1.26823 0.881912 2.53726e-21)
(1.29085 0.914065 0)
(1.24332 0.899625 1.8373e-20)
(1.17323 0.869255 5.00241e-20)
(1.09871 0.835151 0)
(1.01982 0.796901 2.70502e-20)
(0.936818 0.752068 4.81662e-19)
(0.851516 0.697778 -8.99572e-19)
(0.779278 0.640179 0)
(0.731885 0.590513 -2.49789e-19)
(0.697889 0.544932 -3.00433e-21)
(0.639926 0.481377 -2.22028e-21)
(0.518025 0.378224 2.98934e-19)
(0.348101 0.248428 1.59009e-23)
(0.184104 0.128559 -8.35653e-19)
(0.0622666 0.0423638 2.46331e-19)
(-0.00235415 -0.00189641 7.28197e-20)
(-0.00904969 -0.00601621 0)
(0.232481 0.170334 -1.39265e-19)
(1.06345 0.77146 -6.51522e-20)
(1.25576 0.921633 -7.85747e-20)
(1.27645 0.954101 5.65909e-20)
(1.22836 0.938416 1.72338e-20)
(1.1581 0.906577 0)
(1.08309 0.87102 7.86238e-20)
(1.00322 0.831262 -6.04955e-20)
(0.918601 0.78478 3.96997e-21)
(0.830788 0.728426 6.64271e-20)
(0.755525 0.668111 5.64748e-19)
(0.705633 0.615178 -8.77474e-20)
(0.669625 0.565313 -3.31413e-19)
(0.610072 0.49561 -1.37291e-19)
(0.489962 0.385518 1.61996e-19)
(0.326686 0.250589 1.69268e-22)
(0.171152 0.128132 2.25106e-19)
(0.0565181 0.0412913 -5.30292e-19)
(-0.00318447 -0.00235757 6.26776e-19)
(-0.00855248 -0.00596714 9.13842e-20)
(0.232699 0.178568 5.37707e-20)
(1.05541 0.803627 -3.72989e-20)
(1.24348 0.959029 6.36967e-21)
(1.26231 0.991707 4.20979e-20)
(1.21373 0.97486 3.17642e-21)
(1.14335 0.941736 -8.68231e-20)
(1.06796 0.904941 2.25225e-20)
(0.987206 0.86392 -2.52401e-19)
(0.901041 0.816098 -5.32635e-19)
(0.810699 0.758072 -5.3793e-19)
(0.732199 0.695387 0)
(0.679399 0.6392 -3.86285e-19)
(0.640951 0.584441 4.78425e-19)
(0.579569 0.507368 0)
(0.461486 0.389424 -3.47407e-19)
(0.305263 0.249372 2.05941e-19)
(0.158266 0.125219 -2.42143e-19)
(0.050873 0.0390881 -2.85333e-19)
(-0.00419347 -0.00310678 -5.04729e-19)
(-0.00819577 -0.00596289 -3.93647e-19)
(0.233287 0.186681 -6.15998e-20)
(1.04767 0.834214 3.99271e-20)
(1.23146 0.994166 8.90949e-20)
(1.24851 1.02696 6.51959e-20)
(1.19954 1.00905 -2.50583e-21)
(1.12911 0.974817 -4.57329e-20)
(1.0534 0.936966 7.55777e-20)
(0.971864 0.894918 -2.59543e-19)
(0.884232 0.846042 -3.16173e-19)
(0.791384 0.78674 5.64624e-19)
(0.70943 0.72209 1.24523e-18)
(0.653236 0.662752 0)
(0.611728 0.602508 0)
(0.548036 0.516591 -1.58147e-19)
(0.432301 0.389366 0)
(0.284258 0.243738 4.42422e-19)
(0.1472 0.118963 5.20369e-19)
(0.0474618 0.0355587 0)
(-0.00424519 -0.0039572 0)
(-0.00798977 -0.00603144 4.23059e-19)
(0.233566 0.194342 7.10465e-20)
(1.04028 0.863217 5.71299e-20)
(1.21978 1.02716 6.51971e-20)
(1.23514 1.06 -6.7113e-20)
(1.18586 1.0411 -9.96646e-21)
(1.11543 1.0059 4.49888e-20)
(1.0395 0.967155 -1.03765e-19)
(0.957267 0.924283 -6.36829e-22)
(0.868266 0.87462 -5.18585e-21)
(0.772954 0.814433 -4.40181e-21)
(0.687369 0.748289 6.42428e-19)
(0.627235 0.685995 0)
(0.58187 0.619801 4.86305e-19)
(0.51499 0.523459 3.38445e-19)
(0.401594 0.38498 8.11018e-19)
(0.263298 0.232014 2.3855e-19)
(0.139757 0.106173 -2.79878e-19)
(0.051472 0.0269404 -1.6437e-19)
(0.00311191 -0.00643257 0)
(-0.00643499 -0.00586782 4.54575e-19)
(0.234216 0.202035 -1.62133e-19)
(1.03317 0.890767 0)
(1.20842 1.05805 7.90329e-20)
(1.22223 1.09088 -5.85687e-20)
(1.17274 1.0711 2.1952e-20)
(1.10235 1.03506 -4.4222e-20)
(1.02629 0.995561 2.00417e-19)
(0.943461 0.952048 -2.11355e-20)
(0.853194 0.901841 0)
(0.755499 0.841122 -6.25299e-19)
(0.666165 0.774025 -1.40047e-18)
(0.601525 0.709084 5.73762e-20)
(0.551388 0.636649 6.73411e-19)
(0.480049 0.528482 0)
(0.368046 0.376641 5.48141e-19)
(0.239834 0.212664 0)
(0.134023 0.0795889 0)
(0.0694315 -0.00390474 -1.77607e-19)
(0.0454645 -0.0239793 0)
(0.0251215 0.00446036 1.21847e-19)
(0.234451 0.209166 -1.82961e-19)
(1.02633 0.917094 0)
(1.19739 1.08705 1.33563e-19)
(1.20972 1.11987 0)
(1.16016 1.09933 -1.60715e-20)
(1.08982 1.0626 0)
(1.01372 1.02249 9.59583e-21)
(0.930353 0.978551 3.58676e-20)
(0.838894 0.928066 3.98373e-20)
(0.738845 0.867183 -6.86979e-19)
(0.645625 0.799752 4.20917e-20)
(0.575805 0.732679 4.62845e-19)
(0.519769 0.653859 6.58022e-19)
(0.442206 0.532397 8.84864e-20)
(0.329619 0.365822 4.30383e-19)
(0.2084 0.186445 0)
(0.116851 0.0347378 5.89154e-19)
(0.066878 -0.0401889 -3.43742e-19)
(0.0305865 0.0524961 3.99687e-19)
(-0.0383913 0.456609 -4.76347e-19)
(0.234653 0.216144 1.52585e-19)
(1.01953 0.942064 2.32657e-19)
(1.1866 1.11448 0)
(1.19749 1.1474 5.07271e-21)
(1.1479 1.12636 5.27585e-20)
(1.07757 1.0892 4.02379e-20)
(1.00146 1.04875 6.86529e-20)
(0.917521 1.00473 0)
(0.824823 0.954393 2.63849e-19)
(0.722299 0.893923 -3.5852e-20)
(0.624814 0.826968 0)
(0.548737 0.758472 0)
(0.484889 0.672752 5.91452e-19)
(0.398818 0.535596 -2.73714e-19)
(0.283031 0.354241 -4.37403e-19)
(0.164501 0.156285 0)
(0.0674115 0.0544963 2.97464e-19)
(0.00564602 0.461643 -3.42998e-19)
(0.0307444 1.92844 -1.92225e-19)
(0.057154 2.82568 -2.42246e-19)
(0.234518 0.222578 -1.15683e-19)
(1.01281 0.965846 -3.00779e-19)
(1.17607 1.14034 8.0645e-20)
(1.18552 1.17335 6.23955e-20)
(1.13603 1.152 0)
(1.06568 1.11459 1.67198e-20)
(0.989728 1.07403 9.20859e-20)
(0.905165 1.03016 -1.73556e-20)
(0.811271 0.980306 3.9505e-20)
(0.706262 0.920743 6.56526e-19)
(0.604365 0.855025 7.12349e-19)
(0.521298 0.786296 5.22508e-19)
(0.447522 0.693522 5.97276e-19)
(0.351135 0.537291 -6.46039e-19)
(0.234251 0.345613 -6.62597e-19)
(0.109534 0.211177 0)
(0.0386993 0.887092 0)
(0.0862967 2.58265 1.65167e-19)
(0.0891559 3.2126 0)
(0.090672 3.38969 4.00418e-19)
(0.237113 0.228587 0)
(1.00645 0.988817 0)
(1.16551 1.16448 0)
(1.17363 1.19759 1.96223e-20)
(1.12421 1.176 5.00762e-20)
(1.05398 1.13861 -1.24884e-21)
(0.978452 1.09823 5.8548e-20)
(0.893216 1.0547 -1.69242e-20)
(0.798171 1.00563 3.30003e-19)
(0.690723 0.947481 -8.81363e-21)
(0.584371 0.883711 1.41146e-18)
(0.493857 0.816225 -6.0486e-20)
(0.407542 0.71701 7.2689e-20)
(0.301064 0.535693 9.38278e-20)
(0.175004 0.363382 -2.69921e-21)
(0.0895947 1.01488 1.71838e-21)
(0.123222 2.76412 -8.76068e-19)
(0.12796 3.30143 -3.27997e-19)
(0.118826 3.42382 1.70066e-19)
(0.108485 3.4436 -1.89814e-19)
(0.160652 0.174316 6.91611e-20)
(0.996195 1.01389 0)
(1.15471 1.18709 -1.65156e-19)
(1.16218 1.22052 -1.73998e-19)
(1.11288 1.19884 1.30422e-19)
(1.04314 1.16175 6.58884e-21)
(0.967447 1.12132 -5.94747e-20)
(0.881704 1.07842 1.86698e-19)
(0.785601 1.03045 -2.70486e-19)
(0.675902 0.974256 0)
(0.565121 0.91309 6.9592e-19)
(0.466951 0.848036 -4.28311e-19)
(0.367749 0.746367 0)
(0.242503 0.534903 8.86724e-20)
(0.128368 0.75478 2.12459e-19)
(0.137702 2.56768 -2.42375e-19)
(0.185753 3.32851 2.726e-19)
(0.168705 3.43415 1.48212e-19)
(0.140005 3.45296 1.6636e-19)
(0.120912 3.46172 2.69679e-19)
(0.272021 0.266638 -1.31529e-19)
(0.978939 1.02425 0)
(1.13665 1.2132 1.82952e-19)
(1.14755 1.25167 1.95995e-19)
(1.09546 1.23254 -1.52715e-19)
(1.02509 1.19584 -3.11122e-20)
(0.948212 1.15696 5.11648e-20)
(0.861901 1.11536 1.46853e-20)
(0.764336 1.06967 2.57994e-19)
(0.65159 1.01767 5.70058e-19)
(0.534892 0.962872 3.92829e-20)
(0.424958 0.902034 3.82437e-19)
(0.29295 0.780752 6.8703e-20)
(0.203621 0.923601 -8.7373e-20)
(0.209304 2.4436 -1.95203e-19)
(0.260658 3.33284 1.90572e-19)
(0.243694 3.4597 -2.13618e-19)
(0.20943 3.4785 -1.23837e-19)
(0.175995 3.50284 -1.10198e-19)
(0.131024 3.49739 -1.28851e-20)
(0.262271 0.265608 0)
(0.976246 1.0473 5.4627e-20)
(1.12804 1.23699 -3.82995e-20)
(1.13663 1.27548 -2.39951e-20)
(1.08439 1.25597 -1.09054e-19)
(1.01399 1.21945 3.56571e-20)
(0.936795 1.18079 -2.47164e-20)
(0.850221 1.14006 1.31312e-20)
(0.751996 1.0959 -2.68933e-19)
(0.637697 1.04691 -1.38228e-20)
(0.517634 0.997052 -1.26399e-18)
(0.4013 0.938971 5.47568e-20)
(0.275299 0.85412 -6.4955e-20)
(0.238759 1.54409 -8.08899e-20)
(0.301632 3.14334 1.77162e-20)
(0.314866 3.46176 1.19345e-21)
(0.273431 3.50891 3.2443e-19)
(0.239573 3.53195 1.65455e-19)
(0.193969 3.55188 -5.44394e-20)
(0.144061 3.54809 -6.57023e-20)
(0.248386 0.263746 1.40123e-19)
(0.972656 1.07293 3.73656e-19)
(1.11908 1.26283 -1.09924e-19)
(1.12524 1.30082 -9.0493e-20)
(1.07283 1.28084 0)
(1.00251 1.24435 8.23313e-20)
(0.925275 1.20598 -2.04238e-20)
(0.838693 1.16606 1.14552e-20)
(0.740121 1.12355 -3.0045e-20)
(0.624812 1.07784 -5.17112e-19)
(0.50232 1.03353 -5.84192e-19)
(0.380289 0.977315 -4.47789e-19)
(0.278783 0.998912 -4.9322e-19)
(0.304188 2.31112 5.04671e-19)
(0.382438 3.38945 4.25818e-19)
(0.35413 3.5185 0)
(0.306192 3.55504 0)
(0.269545 3.58859 -4.4602e-20)
(0.225338 3.63367 0)
(0.155896 3.61773 -6.8121e-20)
(0.238625 0.265763 -2.11389e-19)
(0.967129 1.09942 -3.19565e-19)
(1.10872 1.2899 0)
(1.11258 1.32697 6.11154e-21)
(1.06003 1.30638 -1.24783e-19)
(0.989961 1.26984 1.44185e-19)
(0.913006 1.23178 -4.07595e-21)
(0.826644 1.1926 6.27341e-21)
(0.727984 1.15171 -1.89707e-19)
(0.612107 1.10931 2.58001e-20)
(0.488146 1.07066 0)
(0.361592 1.02002 0)
(0.301118 1.29094 -4.49333e-19)
(0.383309 2.97335 1.80627e-19)
(0.447614 3.48889 2.33774e-19)
(0.394247 3.55302 0)