/*--------------------------------*- C++ -*----------------------------------*\
  =========                 |
  \\      /  F ield         | OpenFOAM: The Open Source CFD Toolbox
   \\    /   O peration     | Website:  https://openfoam.org
    \\  /    A nd           | Version:  6
     \\/     M anipulation  |
\*---------------------------------------------------------------------------*/
FoamFile
{
    version     2.0;
    format      ascii;
    class       surfaceScalarField;
    location    "70.1";
    object      phi;
}
// * * * * * * * * * * * * * * * * * * * * * * * * * * * * * * * * * * * * * //

dimensions      [0 3 -1 0 0 0 0];

internalField   nonuniform List<scalar> 
17370
(
-0.0900007
0.0898501
0.289161
-0.0714639
0.0537543
0.364485
-0.0381215
0.0276926
0.426597
-0.0196412
0.0146087
0.504284
-0.0107674
0.00827763
0.601892
-0.00627863
0.00490265
0.720433
-0.00373911
0.0028987
0.863747
-0.00215717
0.00159786
1.03601
-0.00108089
0.000667981
1.24292
-0.000259657
-0.000133383
1.49158
0.000512819
-0.000922765
1.4916
0.0013209
-0.00181145
1.24318
0.0023412
-0.00304891
1.03635
0.00386289
-0.00500611
0.86405
0.00637125
-0.00836341
0.72105
0.010848
-0.0146833
0.60305
0.0197099
-0.0277542
0.507484
0.0381763
-0.0538007
0.431793
0.0715019
-0.0898755
0.365149
0.0900159
0.198995
-0.128135
0.0882243
0.0399109
-0.364598
0.353376
-0.0746754
0.0858969
-0.446475
0.454319
-0.0843951
0.0765518
-0.52119
0.5299
-0.0684554
0.059745
-0.612788
0.621566
-0.0515572
0.0427788
-0.726894
0.734162
-0.0353191
0.0280506
-0.867474
0.872589
-0.0224505
0.0173355
-1.03847
1.04192
-0.0135261
0.0100766
-1.2446
1.24703
-0.00746588
0.00503289
-1.49262
1.4946
-0.00308517
0.00110697
-1.4925
1.49423
0.000571918
-0.00229725
-1.24398
1.24586
0.00420086
-0.00608565
-1.03751
1.04004
0.00844286
-0.0109733
-0.866102
0.869829
0.0143279
-0.0180555
-0.724392
0.729935
0.0230941
-0.0286372
-0.608698
0.616113
0.0358525
-0.043267
-0.514898
0.523042
0.0519971
-0.0601413
-0.439857
0.447915
0.0688046
-0.0768634
-0.375296
0.376741
0.0846623
-0.0861067
-0.257331
0.222479
0.0748179
-0.0399662
-0.0685165
0.0586899
0.00982664
-0.051816
0.0584006
-0.374125
0.36754
-0.0574858
0.0537344
-0.453593
0.457344
-0.0486451
0.0446936
-0.527945
0.531897
-0.0408548
0.0372168
-0.621562
0.6252
-0.033116
0.029041
-0.735347
0.739422
-0.0244713
0.0203123
-0.874339
0.878498
-0.0159665
0.0122723
-1.04349
1.04718
-0.0085341
0.00536016
-1.24856
1.25173
-0.00203013
-0.00104456
-1.49666
1.49973
0.00409332
-0.00736038
-1.4972
1.50047
0.0104417
-0.0140497
-1.25007
1.25368
0.0176093
-0.0217994
-1.04593
1.05012
0.0258227
-0.0302592
-0.877764
0.882201
0.0342285
-0.0382263
-0.739902
0.7439
0.0417772
-0.0455253
-0.626776
0.630524
0.0493987
-0.0544132
-0.534812
0.539826
0.0580834
-0.0588958
-0.457476
0.458288
0.0521914
-0.0319895
-0.335753
0.315551
0.00988783
-0.0683472
0.0584593
-0.0529387
0.0489429
0.00399581
-0.0331639
0.0437097
-0.358106
0.34756
-0.0474086
0.0467815
-0.459283
0.45991
-0.0437259
0.0403733
-0.535799
0.539152
-0.0366012
0.0332976
-0.628525
0.631828
-0.0298603
0.026829
-0.742644
0.745676
-0.0235708
0.0204645
-0.882015
0.885121
-0.0169344
0.0135549
-1.05077
1.05415
-0.00976104
0.00622139
-1.25517
1.25871
-0.00225079
-0.00154768
-1.50324
1.50704
0.00531389
-0.00918865
-1.50414
1.50801
0.0125981
-0.0162121
-1.25742
1.26103
0.0194041
-0.0227155
-1.05392
1.05723
0.025629
-0.0286953
-0.885695
0.888761
0.0315719
-0.0348573
-0.747161
0.750446
0.0380331
-0.0416742
-0.634309
0.637951
0.044914
-0.0478412
-0.544137
0.547064
0.0483332
-0.0444445
-0.456575
0.452686
0.0336721
-0.0162214
-0.296186
0.278736
0.00407174
-0.0526398
0.048568
-0.045865
0.0433695
0.00249547
-0.0228069
0.0331856
-0.33687
0.326492
-0.039007
0.0400238
-0.459594
0.458577
-0.0388338
0.036547
-0.541871
0.544157
-0.0338798
0.0312842
-0.634878
0.637474
-0.0282215
0.0253229
-0.74872
0.751619
-0.0220592
0.0190662
-0.888074
0.891067
-0.0157617
0.0126624
-1.05728
1.06038
-0.00913603
0.00572662
-1.26216
1.26557
-0.00176267
-0.00212208
-1.51092
1.51481
0.00596376
-0.0097999
-1.5119
1.51574
0.0130376
-0.0163292
-1.26447
1.26776
0.0191841
-0.0222026
-1.06034
1.06336
0.02494
-0.0279464
-0.891817
0.894823
0.0306345
-0.0334888
-0.753652
0.756507
0.0359095
-0.0383997
-0.641017
0.643507
0.040534
-0.0415242
-0.548868
0.549858
0.0402984
-0.034172
-0.447405
0.441278
0.0234602
-0.0102384
-0.263514
0.250292
0.00258933
-0.0454048
0.0428155
-0.0412946
0.0395278
0.00176679
-0.0167449
0.0259948
-0.316639
0.307389
-0.0325994
0.0347385
-0.456977
0.454838
-0.0343168
0.0326459
-0.546135
0.547805
-0.0304649
0.0283696
-0.639778
0.641873
-0.0259383
0.023541
-0.754261
0.756659
-0.0206829
0.0178941
-0.893961
0.896749
-0.0146583
0.0115895
-1.06342
1.06649
-0.00809926
0.004773
-1.26889
1.27222
-0.000939104
-0.00279501
-1.5186
1.52233
0.00647433
-0.0101455
-1.51947
1.52314
0.0132532
-0.0164451
-1.271
1.27419
0.0192033
-0.0220741
-1.06638
1.06925
0.0245347
-0.0270601
-0.897642
0.900167
0.0291845
-0.0313459
-0.758956
0.761118
0.0332169
-0.03517
-0.645661
0.647614
0.0366197
-0.0367696
-0.550374
0.550524
0.0343099
-0.027259
-0.434609
0.427558
0.0175603
-0.00741052
-0.238757
0.228607
0.00188142
-0.0406361
0.0387547
-0.038006
0.0366775
0.00132856
-0.0127812
0.0207233
-0.298799
0.290857
-0.0274698
0.0303897
-0.45228
0.44936
-0.0305917
0.0294701
-0.549236
0.550358
-0.0274749
0.0255568
-0.643908
0.645826
-0.0233554
0.0212173
-0.758897
0.761035
-0.0187017
0.0162177
-0.899322
0.901806
-0.0132738
0.0103921
-1.06943
1.07231
-0.00702682
0.00378244
-1.27547
1.27872
-3.22283e-05
-0.00359848
-1.52598
1.52961
0.00716075
-0.0107064
-1.52674
1.53029
0.0136756
-0.0166656
-1.27732
1.28031
0.019157
-0.0216427
-1.07199
1.07447
0.0237153
-0.0258137
-0.902458
0.904556
0.027608
-0.0294674
-0.7631
0.764959
0.0311026
-0.0328221
-0.649431
0.651151
0.0336216
-0.0330395
-0.550313
0.549731
0.0296613
-0.0223037
-0.420297
0.41294
0.013785
-0.00574761
-0.219615
0.211577
0.00146798
-0.0371057
0.0356377
-0.0355173
0.034494
0.00102321
-0.00998093
0.016689
-0.283558
0.27685
-0.0231648
0.0265324
-0.446197
0.442829
-0.0273091
0.0266055
-0.551263
0.551967
-0.0248433
0.0230559
-0.647721
0.649508
-0.0209822
0.0189626
-0.763106
0.765126
-0.0165872
0.0142561
-0.904144
0.906475
-0.0115129
0.00882352
-1.07503
1.07771
-0.00566066
0.00257055
-1.28185
1.28494
0.00104566
-0.004563
-1.53317
1.53669
0.0079958
-0.0113592
-1.53373
1.5371
0.0141103
-0.0168124
-1.28316
1.28586
0.0190221
-0.0212001
-1.07685
1.07903
0.0230221
-0.0248798
-0.906538
0.908396
0.0264718
-0.0281193
-0.766705
0.768353
0.0295548
-0.0309356
-0.652725
0.654106
0.0312397
-0.029923
-0.548796
0.547479
0.0259236
-0.0186435
-0.405595
0.398315
0.0112109
-0.00464637
-0.204346
0.197781
0.00119275
-0.034323
0.0331302
-0.0335962
0.0328001
0.000796115
-0.00790323
0.0135353
-0.27071
0.265078
-0.0195211
0.0230813
-0.439356
0.435796
-0.024331
0.0238726
-0.552582
0.55304
-0.0223744
0.0206942
-0.651291
0.652971
-0.0187128
0.0167766
-0.767096
0.769032
-0.0144916
0.0122473
-0.908696
0.91094
-0.00960666
0.00702648
-1.08027
1.08286
-0.00400366
0.00105655
-1.2879
1.29085
0.00238678
-0.00572735
-1.54009
1.54343
0.00896413
-0.0120976
-1.54032
1.54346
0.01463
-0.0170896
-1.28844
1.2909
0.0190822
-0.0210298
-1.08117
1.08311
0.02265
-0.0243007
-0.910165
0.911815
0.0257128
-0.0271707
-0.769897
0.771355
0.0284123
-0.0294152
-0.655284
0.656286
0.0293447
-0.0273589
-0.54583
0.543844
0.0229554
-0.0159383
-0.391162
0.384145
0.00940639
-0.00388539
-0.191788
0.186267
0.00100211
-0.0320447
0.0310426
-0.0321018
0.0314821
0.000619766
-0.00629809
0.0110107
-0.259934
0.255221
-0.0164014
0.0199574
-0.432239
0.428683
-0.0215265
0.0212923
-0.553424
0.553658
-0.0200247
0.0184019
-0.654669
0.656292
-0.0164752
0.0145875
-0.770931
0.772819
-0.0123601
0.0101725
-0.913079
0.915266
-0.00759811
0.00508684
-1.08532
1.08784
-0.00215407
-0.00068818
-1.29369
1.29653
0.00398174
-0.00714738
-1.54665
1.54981
0.0101863
-0.013102
-1.54646
1.54937
0.0154404
-0.0176913
-1.29326
1.29551
0.0194898
-0.0212196
-1.08504
1.08677
0.0226448
-0.0240966
-0.913376
0.914828
0.0253412
-0.0266217
-0.772716
0.773996
0.027717
-0.0282972
-0.657077
0.657657
0.0278535
-0.0253008
-0.541588
0.539035
0.0206463
-0.013955
-0.3773
0.370608
0.00813214
-0.00335524
-0.181156
0.176379
0.00086997
-0.0301163
0.0292463
-0.0309425
0.0304658
0.000476644
-0.00500426
0.00892351
-0.250933
0.247014
-0.0136752
0.0170782
-0.425213
0.42181
-0.0188265
0.0187803
-0.553842
0.553889
-0.0177027
0.0161128
-0.657961
0.659551
-0.0142049
0.0123287
-0.774683
0.776559
-0.0101167
0.00795142
-0.917354
0.91952
-0.00541357
0.00294738
-1.09024
1.0927
-7.91193e-05
-0.00268421
-1.29927
1.30204
0.00585952
-0.00887819
-1.55287
1.55589
0.0117423
-0.0144563
-1.55216
1.55487
0.0166048
-0.018644
-1.29766
1.2997
0.0202449
-0.0217571
-1.08851
1.09002
0.0229967
-0.0242686
-0.916198
0.91747
0.0253671
-0.0264913
-0.775188
0.776312
0.0273878
-0.0276041
-0.658051
0.658267
0.0267474
-0.0237144
-0.536255
0.533222
0.0189053
-0.0125288
-0.364093
0.357716
0.00724311
-0.00299198
-0.171897
0.167645
0.000780968
-0.0284299
0.027649
-0.0300577
0.0297023
0.000355404
-0.00391893
0.00714069
-0.243468
0.240247
-0.011242
0.0143828
-0.418555
0.415414
-0.0161843
0.0162898
-0.553911
0.553806
-0.0152884
0.0137686
-0.661177
0.662697
-0.0118524
0.00995695
-0.778421
0.780317
-0.00772408
0.00554595
-0.92159
0.923768
-0.0030047
0.000549094
-1.09507
1.09753
0.00228734
-0.00499861
-1.30471
1.30742
0.00808591
-0.010987
-1.5588
1.5617
0.0137015
-0.0162312
-1.55746
1.55999
0.0182001
-0.0200357
-1.30163
1.30347
0.0214443
-0.0227433
-1.09156
1.09286
0.0238011
-0.024896
-0.918658
0.919753
0.0258478
-0.0268021
-0.777341
0.778295
0.0274385
-0.0273617
-0.65835
0.658274
0.0260609
-0.0225928
-0.529982
0.526514
0.0176692
-0.0115496
-0.351493
0.345374
0.00664972
-0.00275623
-0.163602
0.159708
0.000725299
-0.0269047
0.0261794
-0.0294084
0.0291614
0.00024698
-0.0029658
0.00555718
-0.237364
0.234772
-0.00900818
0.0118035
-0.412469
0.409674
-0.0135439
0.0137275
-0.553722
0.553538
-0.0127676
0.0112875
-0.664276
0.665756
-0.00934088
0.00739558
-0.782204
0.78415
-0.00510298
0.00287528
-0.925856
0.928083
-0.000291548
-0.0021873
-1.09989
1.10237
0.0050283
-0.00771946
-1.31004
1.31273
0.0107496
-0.0135556
-1.56451
1.56732
0.0161357
-0.0184907
-1.5624
1.56475
0.0202851
-0.021919
-1.3052
1.30683
0.023133
-0.0242123
-1.09422
1.0953
0.0250853
-0.0260052
-0.920762
0.921682
0.0268136
-0.0276046
-0.779133
0.779924
0.027951
-0.0275784
-0.658052
0.657679
0.0258205
-0.0219295
-0.522858
0.518967
0.01689
-0.0109421
-0.339374
0.333426
0.00629324
-0.00262173
-0.155954
0.152282
0.000696129
-0.0254778
0.0247816
-0.028973
0.0288291
0.000143886
-0.00208167
0.00408065
-0.2325
0.230501
-0.00687681
0.00925723
-0.407114
0.404734
-0.0108284
0.0110094
-0.553429
0.553248
-0.0100526
0.00856949
-0.667332
0.668815
-0.00656019
0.00453398
-0.786092
0.788118
-0.00214763
-0.000161305
-0.93022
0.932529
0.00282576
-0.00536607
-1.10476
1.1073
0.00825325
-0.010957
-1.31535
1.31805
0.0139563
-0.0166821
-1.57003
1.57276
0.0191363
-0.0213252
-1.56698
1.56917
0.0229533
-0.0243943
-1.30835
1.30979
0.0254132
-0.0262608
-1.09647
1.09732
0.0269317
-0.0276546
-0.922502
0.923224
0.0283088
-0.0289577
-0.780575
0.781224
0.028988
-0.0282225
-0.657103
0.656338
0.0260071
-0.0216975
-0.514914
0.510604
0.0165156
-0.0106441
-0.327556
0.321685
0.00612874
-0.00256859
-0.148694
0.145134
0.000688239
-0.0240987
0.0234105
-0.0287441
0.0287044
3.96784e-05
-0.00121893
0.00263961
-0.228811
0.227391
-0.00476706
0.00666924
-0.402624
0.400722
-0.00796919
0.0080683
-0.553198
0.553099
-0.00707228
0.00555312
-0.670428
0.671947
-0.00344648
0.00130828
-0.790142
0.79228
0.00121283
-0.00364467
-0.934748
0.93718
0.00643614
-0.00907796
-1.10976
1.1124
0.012053
-0.0148077
-1.32069
1.32345
0.0178193
-0.0205015
-1.57541
1.57809
0.0228542
-0.0248823
-1.57123
1.57325
0.0263357
-0.0275677
-1.31109
1.31233
0.028378
-0.0289919
-1.09831
1.09892
0.0294592
-0.0299754
-0.923846
0.924363
0.0304576
-0.0308818
-0.781644
0.782069
0.0306279
-0.0293878
-0.655373
0.654132
0.0266806
-0.0219188
-0.506135
0.501374
0.0165345
-0.0106281
-0.315843
0.309937
0.00613418
-0.00258693
-0.14161
0.138062
0.000699128
-0.0227267
0.0220276
-0.0287249
0.0287924
-6.74221e-05
-0.000337354
0.00117105
-0.22628
0.225447
-0.0025991
0.00395539
-0.399125
0.397769
-0.00487842
0.00480682
-0.553196
0.553267
-0.00370987
0.00209404
-0.673645
0.67526
0.000148638
-0.00244293
-0.79442
0.796714
0.00514654
-0.00774186
-0.939523
0.942119
0.0107026
-0.0134844
-1.11497
1.11775
0.0165885
-0.0194271
-1.32614
1.32898
0.022477
-0.0251301
-1.58069
1.58335
0.0273883
-0.029259
-1.57515
1.57702
0.0305389
-0.0315568
-1.31341
1.31443
0.0321539
-0.032522
-1.09969
1.10006
0.0327727
-0.0330687
-0.924771
0.925067
0.0333561
-0.033483
-0.78217
0.782297
0.0329191
-0.0311316
-0.652704
0.650916
0.027878
-0.022605
-0.496447
0.491174
0.0169365
-0.010875
-0.304008
0.297947
0.00629434
-0.00266944
-0.134508
0.130883
0.000726624
-0.0213253
0.0205986
-0.0289319
0.0291199
-0.000188013
0.000594415
-0.000383881
-0.224932
0.224721
-0.000294829
0.00102668
-0.396743
0.396011
-0.00146501
0.00113328
-0.553609
0.553941
0.000132347
-0.0019033
-0.677112
0.678883
0.00433364
-0.0068293
-0.799012
0.801507
0.0097674
-0.0125775
-0.944627
0.947437
0.0157671
-0.0187415
-1.12047
1.12344
0.0220248
-0.0249838
-1.33176
1.33472
0.0281012
-0.0307401
-1.58592
1.58856
0.0329069
-0.0346124
-1.57874
1.58045
0.0357133
-0.0365123
-1.31527
1.31607
0.0368901
-0.0370007
-1.10058
1.1007
0.0370192
-0.0370789
-0.925235
0.925295
0.0371707
-0.0369071
-0.78206
0.781796
0.0359495
-0.0335391
-0.648958
0.646548
0.0296628
-0.0237858
-0.485712
0.479835
0.0177256
-0.0113755
-0.291802
0.285452
0.00659957
-0.00281076
-0.127208
0.123419
0.000769023
-0.0198618
0.0190928
-0.0293924
0.029729
-0.000336602
0.00163734
-0.00206702
-0.224858
0.225287
0.00223116
-0.0022193
-0.395628
0.395616
0.00239797
-0.00309579
-0.554647
0.555345
0.00459028
-0.00657205
-0.680945
0.682926
0.00925688
-0.0120147
-0.804005
0.806763
0.0152544
-0.0183389
-0.950166
0.95325
0.0218182
-0.0250371
-1.12636
1.12958
0.0285544
-0.0316809
-1.33764
1.34076
0.0349102
-0.0375614
-1.59113
1.59378
0.0396432
-0.0411701
-1.582
1.58352
0.0420666
-0.0426187
-1.31663
1.31718
0.0427568
-0.0425854
-1.10094
1.10077
0.0423491
-0.0421582
-0.925183
0.924992
0.0420331
-0.0412828
-0.781134
0.780384
0.0398412
-0.0366992
-0.643982
0.64084
0.0320913
-0.0254822
-0.473733
0.467124
0.0188997
-0.0121176
-0.278956
0.272174
0.00703833
-0.00300429
-0.119542
0.115508
0.000824072
-0.0183076
0.0174835
-0.030137
0.0306505
-0.000513479
0.00292264
-0.00411724
-0.226124
0.227318
0.00515002
-0.00593995
-0.395971
0.396761
0.00685009
-0.0080238
-0.556551
0.557725
0.00986205
-0.0121381
-0.685273
0.687549
0.0151674
-0.0182623
-0.809523
0.812618
0.0218779
-0.0253007
-0.956257
0.95968
0.0291365
-0.0326559
-1.13275
1.13627
0.0364575
-0.0397817
-1.34385
1.34717
0.0431346
-0.0457906
-1.59635
1.59901
0.0477655
-0.0490895
-1.58487
1.58619
0.0497508
-0.0500553
-1.31745
1.31776
0.0499381
-0.0494587
-1.10071
1.10023
0.0489459
-0.0484832
-0.924566
0.924103
0.0480167
-0.0468087
-0.779281
0.778074
0.0447292
-0.0407115
-0.637543
0.633526
0.0352271
-0.0277196
-0.460235
0.452728
0.0204596
-0.0130899
-0.265177
0.257807
0.00759834
-0.00324241
-0.11135
0.106994
0.000889006
-0.0166387
0.0157497
-0.0312396
0.0319752
-0.000735592
0.0044276
-0.00650451
-0.228935
0.231012
0.00862449
-0.010323
-0.397997
0.399695
0.0120636
-0.0138262
-0.559578
0.56134
0.0161404
-0.0188054
-0.690265
0.69293
0.0222797
-0.0257947
-0.815716
0.819231
0.0298782
-0.0337225
-0.963038
0.966883
0.0380002
-0.041886
-1.13976
1.14365
0.0460267
-0.049581
-1.35045
1.35401
0.0530746
-0.055731
-1.60157
1.60423
0.057577
-0.0586559
-1.58732
1.5884
0.0590387
-0.0590449
-1.31769
1.31769
0.058642
-0.0578305
-1.09983
1.09902
0.057015
-0.0562521
-0.923325
0.922562
0.0553662
-0.0536171
-0.776548
0.774799
0.0507593
-0.0456723
-0.629345
0.624258
0.0391193
-0.030503
-0.444873
0.436257
0.0223858
-0.0142642
-0.250149
0.242028
0.00825557
-0.00351158
-0.102481
0.0977368
0.000959201
-0.0148374
0.0138782
-0.0327823
0.033811
-0.00102872
0.00633309
-0.00947442
-0.23354
0.236681
0.0128457
-0.0156106
-0.401968
0.404732
0.0183295
-0.0208146
-0.563991
0.566476
0.0237513
-0.0269316
-0.696119
0.699299
0.0309861
-0.0350275
-0.822756
0.826798
0.0396864
-0.0440384
-0.970676
0.975028
0.048836
-0.0531433
-1.14751
1.15181
0.0576636
-0.0614629
-1.35752
1.36131
0.0650824
-0.0676965
-1.60677
1.60938
0.069354
-0.0701223
-1.58924
1.59001
0.0701595
-0.0698041
-1.31717
1.31682
0.0690936
-0.0679124
-1.09821
1.09703
0.0667606
-0.065698
-0.921414
0.920352
0.0642705
-0.061878
-0.772752
0.770359
0.0580595
-0.0516476
-0.618991
0.612579
0.0437791
-0.0337985
-0.427212
0.417232
0.0246245
-0.0155869
-0.233547
0.22451
0.00896954
-0.0037907
-0.0928129
0.0876341
0.00102784
-0.0128961
0.0118683
-0.0348962
0.0363273
-0.00143118
0.0088129
-0.0133166
-0.240263
0.244767
0.0181783
-0.0221756
-0.408262
0.412259
0.0260295
-0.0293916
-0.570136
0.573498
0.0331396
-0.0370052
-0.703117
0.706982
0.0418153
-0.0465249
-0.830855
0.835565
0.051884
-0.0568336
-0.979342
0.984292
0.0622232
-0.0669865
-1.15609
1.16085
0.0718822
-0.0758812
-1.36503
1.36902
0.0795367
-0.0820009
-1.61181
1.61428
0.0833602
-0.0837196
-1.59049
1.59085
0.0833617
-0.0825584
-1.31583
1.31503
0.0814849
-0.0799129
-1.09577
1.0942
0.0784312
-0.0769277
-0.918793
0.91729
0.0749855
-0.0717137
-0.767637
0.764365
0.0667002
-0.0586399
-0.605951
0.597891
0.0491485
-0.037505
-0.406734
0.395091
0.0270648
-0.0169636
-0.215052
0.204951
0.00967498
-0.00404813
-0.0822678
0.0766409
0.00108531
-0.0108223
0.00973701
-0.0377764
0.039786
-0.00200958
0.012276
-0.0184977
-0.249632
0.255854
0.0251535
-0.0305885
-0.417365
0.4228
0.0357792
-0.0402073
-0.578404
0.582832
0.0449721
-0.0497244
-0.71161
0.716363
0.0554986
-0.0610272
-0.840285
0.845814
0.0672135
-0.072838
-0.989218
0.994842
0.0788543
-0.084053
-1.16556
1.17076
0.0892478
-0.0933389
-1.37287
1.37696
0.0968814
-0.0990375
-1.61647
1.61862
0.0999427
-0.0997406
-1.59082
1.59062
0.0988821
-0.0975145
-1.31351
1.31214
0.0960147
-0.0940325
-1.09244
1.09046
0.0921807
-0.0901172
-0.915151
0.913087
0.0876185
-0.0832265
-0.760694
0.756302
0.0766936
-0.0665593
-0.589543
0.579409
0.0550656
-0.0414237
-0.382849
0.369207
0.0295169
-0.0182486
-0.194395
0.183127
0.0102778
-0.00424103
-0.0708441
0.0648073
0.00111928
-0.00864384
0.00752456
-0.0417498
0.044651
-0.00290121
0.0173129
-0.0257948
-0.262371
0.270853
0.0346624
-0.0418211
-0.429954
0.437113
0.0486225
-0.054341
-0.58928
0.594998
0.060429
-0.0663442
-0.722021
0.727936
0.0733107
-0.0797833
-0.851324
0.857796
0.0868528
-0.0931298
-1.00042
1.0067
0.0996733
-0.105159
-1.17581
1.1813
0.110439
-0.11439
-1.38076
1.38472
0.117537
-0.11912
-1.62037
1.62195
0.119335
-0.118375
-1.58993
1.58897
0.116864
-0.114857
-1.30999
1.30799
0.112867
-0.11044
-1.08812
1.08569
0.108196
-0.105478
-0.910235
0.907517
0.102243
-0.0963527
-0.751362
0.745472
0.0878555
-0.0751205
-0.568877
0.556142
0.0611879
-0.0452095
-0.354922
0.338943
0.0316854
-0.0192355
-0.171426
0.158976
0.0106539
-0.00431678
-0.0586545
0.0523174
0.0011155
-0.00641323
0.00529773
-0.04739
0.0517971
-0.00440714
0.0250941
-0.0366427
-0.279655
0.291203
0.0483829
-0.0578606
-0.447061
0.456539
0.0667091
-0.0739929
-0.603368
0.610652
0.0816673
-0.0890915
-0.734754
0.742179
0.0972916
-0.10463
-0.864171
0.87151
0.112405
-0.119096
-1.01282
1.01951
0.12583
-0.131249
-1.18646
1.19188
0.136187
-0.139599
-1.38817
1.39158
0.141918
-0.142559
-1.62291
1.62356
0.141772
-0.139793
-1.58739
1.58541
0.137449
-0.134665
-1.3051
1.30232
0.132096
-0.129198
-1.08269
1.07979
0.126431
-0.123064
-0.903901
0.900534
0.118735
-0.110817
-0.738815
0.730897
0.0997503
-0.0837814
-0.54284
0.526871
0.0669555
-0.0483682
-0.322366
0.303779
0.0331858
-0.0196804
-0.146221
0.132715
0.0106667
-0.00422086
-0.0459675
0.0395217
0.0010591
-0.00420922
0.00315012
-0.0557802
0.0632845
-0.00750437
0.0386316
-0.0546831
-0.303638
0.31969
0.070487
-0.0831932
-0.470357
0.483064
0.0942252
-0.102911
-0.621136
0.629822
0.112133
-0.120877
-0.750174
0.758918
0.130065
-0.137836
-0.878537
0.886308
0.145704
-0.152189
-1.02577
1.03226
0.158436
-0.163157
-1.19666
1.20138
0.167113
-0.169404
-1.39419
1.39648
0.170338
-0.169557
-1.62332
1.62254
0.167368
-0.164063
-1.58265
1.57934
0.160666
-0.156931
-1.29855
1.29481
0.153703
-0.15029
-1.07602
1.0726
0.146959
-0.142675
-0.895878
0.891593
0.136739
-0.125982
-0.721834
0.711077
0.111493
-0.0915539
-0.510021
0.490081
0.0715561
-0.0503373
-0.284813
0.263594
0.0336705
-0.019423
-0.119224
0.104977
0.0102415
-0.00392419
-0.0332315
0.0269142
0.000932983
-0.00213173
0.00119875
-0.0702555
0.0744378
-0.00418233
0.0294246
-0.0434586
-0.33829
0.352324
0.0575778
-0.0693123
-0.501271
0.513005
0.0798038
-0.0896143
-0.642251
0.652061
0.100603
-0.110852
-0.767079
0.777328
0.12228
-0.132404
-0.893031
0.903155
0.143184
-0.152781
-1.03782
1.04742
0.162863
-0.171546
-1.20504
1.21372
0.180252
-0.187258
-1.39761
1.40462
0.1936
-0.197842
-1.62059
1.62483
0.199976
-0.200617
-1.57504
1.57568
0.200113
-0.198998
-1.28997
1.28885
0.198092
-0.196694
-1.06779
1.06639
0.194908
-0.190474
-0.885257
0.880823
0.181988
-0.165518
-0.6986
0.68213
0.143174
-0.113795
-0.469132
0.439753
0.0860089
-0.0581155
-0.242412
0.214518
0.0374954
-0.0208353
-0.0914042
0.0747442
0.0105566
-0.00383427
-0.021053
0.0143307
0.000831986
-0.000254024
-0.000577961
-0.0818817
0.0799357
0.00194605
0.0077719
-0.016828
-0.369054
0.37811
0.0275395
-0.0360275
-0.52934
0.537828
0.0445821
-0.0526974
-0.664645
0.67276
0.0626973
-0.0721637
-0.787035
0.796502
0.0823403
-0.0916139
-0.912622
0.921895
0.10147
-0.109896
-1.05671
1.06514
0.118923
-0.126312
-1.22217
1.22956
0.133662
-0.139282
-1.41126
1.41688
0.143871
-0.146593
-1.62828
1.631
0.147324
-0.146615
-1.57576
1.57505
0.14474
-0.142198
-1.28698
1.28443
0.139944
-0.137476
-1.06259
1.06012
0.134601
-0.129125
-0.87196
0.866484
0.119883
-0.104785
-0.661733
0.646635
0.0868723
-0.0655953
-0.408709
0.387432
0.0473538
-0.0309057
-0.18714
0.170692
0.019516
-0.010746
-0.0591404
0.0503704
0.00542072
-0.0019747
-0.00777983
0.00433381
0.000420072
0.00165494
-0.00207501
-0.0833123
0.0803953
0.00291703
-0.00122165
-0.00393244
-0.389916
0.39507
0.0110285
-0.0172239
-0.550177
0.556373
0.0235246
-0.0305345
-0.68352
0.69053
0.0392082
-0.0474037
-0.805013
0.813209
0.0564247
-0.0644795
-0.930314
0.938368
0.0727858
-0.0802564
-1.07337
1.08084
0.0880385
-0.0944835
-1.23648
1.24293
0.100422
-0.104746
-1.42181
1.42613
0.108196
-0.109658
-1.63301
1.63447
0.109151
-0.107229
-1.57373
1.57181
0.104386
-0.100962
-1.28142
1.27799
0.0974478
-0.0937482
-1.05517
1.05147
0.0898417
-0.0840511
-0.856937
0.851146
0.0755944
-0.0630768
-0.62867
0.616152
0.0499536
-0.0359296
-0.364764
0.35074
0.0253333
-0.0165941
-0.154055
0.145316
0.0107898
-0.00632079
-0.0416153
0.0371463
0.00342812
-0.00138566
-0.000634737
-0.00140773
0.000344449
0.00273893
-0.00308337
-0.0820429
0.0791992
0.00284371
-0.00511243
0.00257425
-0.403739
0.406277
0.00200542
-0.00666037
-0.565634
0.570289
0.0119418
-0.0178011
-0.699012
0.704871
0.0252179
-0.032223
-0.820713
0.827719
0.0398923
-0.0467635
-0.945817
0.952689
0.0542298
-0.0605198
-1.08783
1.09412
0.0672327
-0.0723093
-1.24891
1.25399
0.0772469
-0.0806716
-1.43016
1.43358
0.082956
-0.0831665
-1.63542
1.63564
0.0818442
-0.0791341
-1.56925
1.56654
0.0755944
-0.0710321
-1.27406
1.26949
0.0667373
-0.0620142
-1.04584
1.04111
0.0570822
-0.0512201
-0.840902
0.83504
0.0437009
-0.0342172
-0.601055
0.591572
0.0254406
-0.0174301
-0.335721
0.32771
0.0121687
-0.00829063
-0.135884
0.132006
0.00576102
-0.0037512
-0.0321439
0.0301341
0.00224492
-0.00101921
0.00386899
-0.0050947
0.000287795
0.00362806
-0.00391585
-0.0804633
0.0779334
0.00252988
-0.0064354
0.00553259
-0.412949
0.413851
-0.00212106
-0.00131893
-0.577957
0.581397
0.00550658
-0.0107817
-0.711988
0.717263
0.016986
-0.0231113
-0.833982
0.840107
0.0297175
-0.0356512
-0.959053
0.964986
0.0420093
-0.0475366
-1.10023
1.10576
0.0531361
-0.0576553
-1.25886
1.26338
0.0617028
-0.0643367
-1.43655
1.43918
0.0657628
-0.065191
-1.63557
1.635
0.063119
-0.0594605
-1.56298
1.55932
0.0552705
-0.0501356
-1.26458
1.25944
0.0451525
-0.0394696
-1.03484
1.02916
0.0340681
-0.0281127
-0.825092
0.819137
0.021883
-0.0148563
-0.57989
0.572864
0.00946635
-0.00560166
-0.318322
0.314457
0.00368647
-0.00273221
-0.126927
0.125973
0.00223754
-0.00178061
-0.0274
0.0269431
0.00126295
-0.000671996
0.00667878
-0.00726974
0.00022419
0.00435196
-0.00457615
-0.0789612
0.0767828
0.00217834
-0.00646836
0.00611176
-0.419196
0.419553
-0.00410238
0.00133162
-0.587411
0.590181
0.00272398
-0.00721696
-0.722921
0.727414
0.0125069
-0.0177821
-0.845404
0.850679
0.0236041
-0.0288629
-0.970521
0.975779
0.0346174
-0.039396
-1.11097
1.11575
0.0443268
-0.0482606
-1.26755
1.27148
0.0516297
-0.0536569
-1.44145
1.44347
0.0543968
-0.0535833
-1.6342
1.63339
0.050904
-0.0468438
-1.55505
1.55099
0.0421672
-0.0365017
-1.25386
1.2482
0.0312673
-0.0249355
-1.02246
1.01613
0.0190956
-0.0131679
-0.809919
0.803991
0.00774101
-0.00247054
-0.563815
0.558545
-0.000754609
0.00220456
-0.308448
0.306998
-0.00207689
0.00136798
-0.123601
0.124309
-0.000724419
9.58833e-05
-0.0259762
0.0266047
0.000203674
-0.000245736
0.00803367
-0.00799161
0.000118724
0.0048638
-0.00498252
-0.0777724
0.0760562
0.00171613
-0.00568755
0.00570462
-0.423747
0.42373
-0.00407816
0.0020253
-0.595602
0.597654
0.00174058
-0.00579108
-0.732327
0.736377
0.0107594
-0.0152614
-0.855546
0.860048
0.0203265
-0.024939
-0.980962
0.985574
0.0303241
-0.0345827
-1.12051
1.12477
0.0388588
-0.0424415
-1.27517
1.27875
0.0457505
-0.0473833
-1.44542
1.44706
0.0478553
-0.0465968
-1.63205
1.63079
0.0439001
-0.0392944
-1.54657
1.54197
0.0345407
-0.0287599
-1.24216
1.23638
0.0231286
-0.0167403
-1.00918
1.00279
0.0106847
-0.00452306
-0.795278
0.789116
-4.76827e-05
0.00431793
-0.550927
0.546657
-0.00654526
0.0067496
-0.302941
0.302736
-0.0058201
0.00440003
-0.123742
0.125162
-0.00302328
0.00166236
-0.0268262
0.0281871
-0.000762189
0.000186651
0.00801001
-0.00743447
1.08517e-06
0.00508345
-0.00508454
-0.0770733
0.0757196
0.00135367
-0.00465849
0.00484529
-0.427263
0.427076
-0.00339373
0.00146793
-0.602653
0.604578
0.00207015
-0.00569165
-0.740698
0.74432
0.00990213
-0.0141918
-0.864506
0.868796
0.0188161
-0.0235101
-0.989943
0.994637
0.0280713
-0.0320513
-1.12909
1.13307
0.0363399
-0.0395572
-1.28215
1.28537
0.0422117
-0.0440619
-1.44852
1.45037
0.0444447
-0.0431862
-1.6295
1.62824
0.0403083
-0.0358805
-1.53743
1.533
0.0310843
-0.0252348
-1.23011
1.22426
0.0196309
-0.0131818
-0.995793
0.989344
0.00714385
-0.00114226
-0.781139
0.775137
-0.00341686
0.00701798
-0.539861
0.53626
-0.00878568
0.00883347
-0.299759
0.299711
-0.00768105
0.00592659
-0.125297
0.127051
-0.00432635
0.00263914
-0.0291015
0.0307887
-0.00141748
0.000512549
0.00690757
-0.00600264
-9.89398e-05
0.00502727
-0.00492833
-0.0769103
0.0757733
0.00113701
-0.003384
0.00334879
-0.43034
0.430375
-0.00212912
0.00025102
-0.609051
0.610929
0.00301998
-0.00649857
-0.748417
0.751896
0.0104959
-0.0143392
-0.872892
0.876736
0.0190332
-0.0228672
-0.998699
1.00253
0.0273303
-0.0310644
-1.13717
1.1409
0.0351404
-0.0384431
-1.28851
1.29181
0.0412557
-0.0427344
-1.4519
1.45338
0.0432529
-0.0421538
-1.62682
1.62572
0.0396586
-0.0352456
-1.52835
1.52394
0.0306252
-0.0249171
-1.21842
1.21271
0.0194794
-0.0131183
-0.982366
0.976005
0.00733224
-0.00129422
-0.767565
0.761527
-0.00323727
0.00669038
-0.529988
0.526534
-0.00856443
0.00880211
-0.297169
0.296931
-0.00800893
0.00645562
-0.127361
0.128914
-0.00491295
0.00315925
-0.0319545
0.0337082
-0.00181173
0.000729449
0.00519444
-0.00411216
-0.000178442
0.00477314
-0.0045947
-0.0770401
0.0762314
0.000808706
-0.00222983
0.00172022
-0.433458
0.433968
-0.000684418
-0.00127305
-0.614672
0.616629
0.00420338
-0.00753086
-0.755553
0.758881
0.0113338
-0.0152797
-0.880458
0.884404
0.0193081
-0.0232666
-1.00655
1.0105
0.0276382
-0.0311029
-1.14503
1.1485
0.0352031
-0.0383846
-1.29487
1.29805
0.0411465
-0.0430495
-1.45522
1.45712
0.0439134
-0.0429281
-1.62459
1.62361
0.0404708
-0.0365915
-1.51964
1.51576
0.0323683
-0.0268835
-1.20682
1.20134
0.0215837
-0.0156848
-0.969377
0.963478
0.0097569
-0.00397346
-0.754256
0.748473
-0.000670748
0.00431836
-0.520581
0.516934
-0.00620783
0.00702642
-0.294247
0.293428
-0.00678899
0.00582829
-0.129026
0.129987
-0.00459952
0.00310551
-0.0347905
0.0362845
-0.00187219
0.000806744
0.00321246
-0.00214701
-0.000216943
0.00437294
-0.004156
-0.0775898
0.0769512
0.000638583
-0.00124493
0.000767341
-0.436774
0.437252
0.000791731
-0.00260093
-0.620349
0.622158
0.00569365
-0.00888047
-0.762144
0.765331
0.0125215
-0.0160431
-0.888027
0.891549
0.0201708
-0.0237814
-1.01443
1.01804
0.0280618
-0.0319323
-1.15239
1.15626
0.035618
-0.0390777
-1.30124
1.3047
0.0421987
-0.044114
-1.45887
1.46079
0.0452464
-0.0449199
-1.62279
1.62246
0.0427943
-0.0394207
-1.5117
1.50833
0.0353275
-0.030241
-1.19587
1.19078
0.0253324
-0.0195805
-0.957043
0.951291
0.014037
-0.00829946
-0.741483
0.735746
0.00352626
0.000545758
-0.510905
0.506833
-0.00292344
0.00420076
-0.290496
0.289219
-0.0046437
0.00430138
-0.129625
0.129967
-0.00359238
0.00256378
-0.0370327
0.0380613
-0.00162202
0.00074071
0.00135189
-0.000470584
-0.000215808
0.00392366
-0.00370785
-0.0784373
0.0779788
0.00045847
-0.000159111
-0.00050826
-0.440247
0.440915
0.00193591
-0.00405357
-0.625618
0.627736
0.00707423
-0.0101001
-0.768466
0.771492
0.0138272
-0.017189
-0.895053
0.898414
0.0211393
-0.024853
-1.02211
1.02582
0.0290168
-0.0328253
-1.15995
1.16376
0.0367019
-0.0401562
-1.30804
1.3115
0.0434164
-0.0460331
-1.46295
1.46557
0.0475326
-0.0474245
-1.62202
1.62192
0.0459038
-0.0427738
-1.5048
1.50167
0.0391805
-0.034618
-1.18563
1.18107
0.0297846
-0.0243095
-0.945202
0.939727
0.0189904
-0.0132214
-0.729076
0.723307
0.00842679
-0.00386712
-0.501019
0.496459
0.00100443
0.00101111
-0.285777
0.283761
-0.00199533
0.00230189
-0.128955
0.128648
-0.00218559
0.0017005
-0.0383083
0.0387934
-0.0011504
0.000561519
-8.19314e-05
0.000670808
-0.000172576
0.00350299