/*--------------------------------*- C++ -*----------------------------------*\
  =========                 |
  \\      /  F ield         | OpenFOAM: The Open Source CFD Toolbox
   \\    /   O peration     | Website:  https://openfoam.org
    \\  /    A nd           | Version:  6
     \\/     M anipulation  |
\*---------------------------------------------------------------------------*/
FoamFile
{
    version     2.0;
    format      ascii;
    class       surfaceScalarField;
    location    "53.9";
    object      phi;
}
// * * * * * * * * * * * * * * * * * * * * * * * * * * * * * * * * * * * * * //

dimensions      [0 3 -1 0 0 0 0];

internalField   nonuniform List<scalar> 
17370
(
-0.0900017
0.0898519
0.289161
-0.0714669
0.0537582
0.364484
-0.0381266
0.0276989
0.426596
-0.0196488
0.0146173
0.504283
-0.0107767
0.00828707
0.601892
-0.00628788
0.00491171
0.720434
-0.00374806
0.00290752
0.863747
-0.00216588
0.00160666
1.03601
-0.00109018
0.000677911
1.24292
-0.00026986
-0.000121199
1.49158
0.000499928
-0.000907211
1.4916
0.0013026
-0.001792
1.24318
0.00232353
-0.00303541
1.03635
0.00385315
-0.0049992
0.864053
0.00636606
-0.00835946
0.721051
0.0108446
-0.0146803
0.60305
0.0197074
-0.0277524
0.507484
0.0381753
-0.0538
0.431793
0.0715013
-0.0898749
0.365149
0.0900154
0.198996
-0.128133
0.0882188
0.0399137
-0.364595
0.35337
-0.0746826
0.0859074
-0.446474
0.454315
-0.0844088
0.0765681
-0.521188
0.529895
-0.0684743
0.0597675
-0.612786
0.621562
-0.0515826
0.042807
-0.726891
0.734157
-0.0353494
0.0280835
-0.867472
0.872583
-0.0224861
0.0173746
-1.03847
1.04192
-0.0135677
0.0101203
-1.2446
1.24703
-0.00751112
0.00508022
-1.49263
1.4946
-0.00313522
0.00116147
-1.4925
1.49422
0.000518662
-0.00224207
-1.24398
1.24586
0.00414422
-0.00602789
-1.03751
1.04005
0.0083868
-0.0109227
-0.866103
0.869837
0.0142856
-0.0180197
-0.724395
0.72994
0.0230624
-0.0286077
-0.608701
0.616117
0.0358253
-0.0432416
-0.5149
0.523046
0.0519738
-0.0601202
-0.439858
0.447919
0.0687866
-0.0768477
-0.375298
0.376745
0.0846507
-0.0860974
-0.257334
0.222486
0.0748119
-0.0399642
-0.0685087
0.0586792
0.0098295
-0.0518339
0.0584242
-0.374117
0.367526
-0.0575148
0.0537678
-0.453587
0.457334
-0.0486832
0.0447362
-0.527939
0.531885
-0.0409024
0.0372686
-0.621554
0.625187
-0.0331724
0.0291016
-0.735337
0.739408
-0.0245368
0.0203824
-0.874328
0.878483
-0.0160427
0.0123545
-1.04348
1.04717
-0.00862356
0.00545482
-1.24855
1.25172
-0.00212894
-0.000944231
-1.49666
1.49973
0.00399224
-0.00725606
-1.49721
1.50047
0.0103351
-0.0139447
-1.25008
1.25369
0.0175124
-0.0217158
-1.04593
1.05014
0.0257505
-0.0301955
-0.877774
0.882219
0.0341704
-0.0381739
-0.739912
0.743916
0.0417294
-0.0454816
-0.626785
0.630538
0.0493584
-0.0543759
-0.53482
0.539838
0.0580509
-0.0588689
-0.457484
0.458302
0.0521721
-0.0319795
-0.335767
0.315574
0.00988482
-0.068357
0.0584722
-0.0529248
0.0489253
0.00399953
-0.0331887
0.0437457
-0.358084
0.347527
-0.0474544
0.0468345
-0.459268
0.459888
-0.0437859
0.0404393
-0.535784
0.539131
-0.0366738
0.0333764
-0.628507
0.631805
-0.0299464
0.0269223
-0.742624
0.745648
-0.0236723
0.0205731
-0.881992
0.885092
-0.0170505
0.0136775
-1.05075
1.05412
-0.00989114
0.0063583
-1.25515
1.25868
-0.0023954
-0.00139705
-1.50324
1.50703
0.00515914
-0.009031
-1.50414
1.50802
0.0124411
-0.0160618
-1.25744
1.26106
0.0192666
-0.0225956
-1.05394
1.05727
0.0255216
-0.0285957
-0.88572
0.888794
0.0314777
-0.0347702
-0.747184
0.750477
0.0379532
-0.0416017
-0.63433
0.637979
0.0448479
-0.047782
-0.544154
0.547089
0.0482815
-0.0444031
-0.456597
0.452718
0.0336433
-0.0162076
-0.296222
0.278786
0.00406769
-0.0526566
0.0485889
-0.0458435
0.0433437
0.00249986
-0.0228382
0.0332332
-0.336824
0.326429
-0.03907
0.040098
-0.459565
0.458537
-0.0389187
0.0366406
-0.541844
0.544123
-0.0339835
0.0313974
-0.634847
0.637433
-0.0283457
0.0254568
-0.748683
0.751572
-0.022203
0.0192191
-0.888034
0.891017
-0.0159255
0.012837
-1.05724
1.06033
-0.00932257
0.0059225
-1.26213
1.26553
-0.00196589
-0.0019155
-1.5109
1.51479
0.00575707
-0.0095934
-1.51191
1.51575
0.0128306
-0.016126
-1.2645
1.2678
0.0189931
-0.0220328
-1.06037
1.06341
0.0247886
-0.027808
-0.89186
0.89488
0.0305037
-0.0333655
-0.753694
0.756556
0.0357937
-0.0382922
-0.641053
0.643552
0.0404342
-0.041435
-0.548901
0.549902
0.0402212
-0.0341126
-0.447451
0.441343
0.0234208
-0.01022
-0.263584
0.250383
0.0025839
-0.045431
0.0428471
-0.0412639
0.039492
0.00177196
-0.0167833
0.0260548
-0.316559
0.307288
-0.032681
0.0348355
-0.456927
0.454772
-0.0344266
0.0327655
-0.546091
0.547753
-0.0305957
0.0285119
-0.639728
0.641812
-0.026095
0.0237121
-0.754205
0.756588
-0.0208706
0.0180969
-0.893897
0.896671
-0.014877
0.0118214
-1.06336
1.06641
-0.00834475
0.00503049
-1.26884
1.27215
-0.00120827
-0.00251744
-1.51857
1.52229
0.00619206
-0.00986191
-1.51949
1.52316
0.0129708
-0.0161711
-1.27105
1.27425
0.0189456
-0.0218412
-1.06644
1.06934
0.0243213
-0.0268592
-0.897712
0.900249
0.0289918
-0.0311643
-0.759022
0.761195
0.0330482
-0.0350156
-0.645717
0.647684
0.0364784
-0.0366442
-0.550432
0.550597
0.0342035
-0.02718
-0.434696
0.427672
0.0175095
-0.00738714
-0.238872
0.228749
0.0018747
-0.0406743
0.0387996
-0.0379643
0.0366296
0.00133474
-0.0128274
0.0207965
-0.298673
0.290704
-0.0275717
0.0305131
-0.452196
0.449254
-0.0307337
0.0296284
-0.549171
0.550277
-0.0276506
0.0257515
-0.643836
0.645735
-0.0235729
0.0214551
-0.758811
0.760929
-0.0189598
0.0164923
-0.899226
0.901694
-0.0135659
0.0107005
-1.06933
1.0722
-0.0073532
0.00412412
-1.27539
1.27862
-0.00038556
-0.00323998
-1.52594
1.52956
0.00680214
-0.0103494
-1.52676
1.53031
0.0133204
-0.0163195
-1.27739
1.28039
0.018831
-0.0213496
-1.07207
1.07459
0.0234477
-0.0255616
-0.902558
0.904672
0.0273645
-0.0292344
-0.763197
0.765067
0.0308822
-0.0326159
-0.649515
0.651248
0.0334317
-0.0328714
-0.550404
0.549844
0.0295208
-0.0222018
-0.420445
0.413126
0.0137207
-0.00571839
-0.219789
0.211786
0.00145971
-0.037159
0.0356993
-0.0354625
0.0344318
0.00103069
-0.0100365
0.0167778
-0.283375
0.276634
-0.02329
0.0266857
-0.446066
0.44267
-0.0274864
0.0268018
-0.551165
0.551849
-0.0250598
0.0232924
-0.647617
0.649384
-0.0212424
0.0192448
-0.762985
0.764983
-0.016895
0.0145889
-0.904009
0.906315
-0.0118741
0.00921014
-1.07489
1.07755
-0.00607249
0.00300245
-1.28173
1.2848
0.000596394
-0.00410254
-1.53311
1.53662
0.00752994
-0.0108924
-1.53377
1.53713
0.0136454
-0.0163565
-1.28325
1.28597
0.0185864
-0.0207983
-1.07697
1.07918
0.0226469
-0.0245219
-0.906679
0.908554
0.0261261
-0.0277904
-0.766837
0.768502
0.0292459
-0.0306528
-0.652836
0.654243
0.0309796
-0.0296973
-0.548933
0.547651
0.0257387
-0.0185123
-0.405828
0.398601
0.0111291
-0.00460938
-0.204596
0.198076
0.0011823
-0.0343951
0.0332128
-0.0335261
0.0327211
0.000805049
-0.0079691
0.0136412
-0.270457
0.264785
-0.0196733
0.0232722
-0.439164
0.435565
-0.0245575
0.0241268
-0.552446
0.552877
-0.0226575
0.0210051
-0.651153
0.652806
-0.0190563
0.0171502
-0.76693
0.768836
-0.0148967
0.0126785
-0.908505
0.910723
-0.0100644
0.00750823
-1.08008
1.08264
-0.00451283
0.00159119
-1.28774
1.29066
0.00182603
-0.00514799
-1.54
1.54332
0.00837386
-0.0115038
-1.54036
1.54349
0.0140393
-0.0165148
-1.28857
1.29104
0.0185408
-0.0205392
-1.08132
1.08332
0.0221945
-0.0238635
-0.91035
0.912019
0.0252852
-0.0267572
-0.77008
0.771552
0.028019
-0.029053
-0.655442
0.656476
0.0290094
-0.0270681
-0.546041
0.5441
0.0227195
-0.0157728
-0.391511
0.384564
0.00930423
-0.00383974
-0.192135
0.186671
0.000989417
-0.0321402
0.0311508
-0.0320136
0.0313836
0.000629992
-0.0063742
0.0111337
-0.259599
0.254839
-0.0165801
0.020184
-0.431965
0.428361
-0.0217989
0.0216006
-0.553234
0.553432
-0.0203714
0.0187807
-0.654479
0.65607
-0.0168899
0.015034
-0.770707
0.772563
-0.0128419
0.0106891
-0.912829
0.914982
-0.00815666
0.00568545
-1.08507
1.08754
-0.00279513
-1.38368e-05
-1.29346
1.29627
0.00327913
-0.00642828
-1.54652
1.54967
0.00945938
-0.0123706
-1.54649
1.5494
0.0147054
-0.0169584
-1.29343
1.29568
0.0187792
-0.0205553
-1.08526
1.08703
0.0220163
-0.0234908
-0.913617
0.915092
0.0247534
-0.0260598
-0.77294
0.774247
0.0271838
-0.0278131
-0.657287
0.657917
0.0274068
-0.0249198
-0.541897
0.53941
0.020342
-0.0137442
-0.377803
0.371206
0.00800282
-0.00329767
-0.181626
0.176921
0.000853966
-0.0302408
0.0293869
-0.0308332
0.0303446
0.000488557
-0.00509228
0.00906644
-0.2505
0.246525
-0.0138854
0.0173489
-0.42484
0.421377
-0.0191549
0.0191511
-0.553587
0.553591
-0.0181152
0.0165574
-0.657718
0.659276
-0.0146891
0.012853
-0.774393
0.776229
-0.010689
0.00856888
-0.917022
0.919142
-0.00608071
0.00365968
-1.08989
1.09231
-0.000841916
-0.00187444
-1.29897
1.30169
0.00499893
-0.00797667
-1.55269
1.55566
0.010813
-0.0135136
-1.55219
1.55489
0.0156622
-0.0177168
-1.29784
1.2999
0.0193585
-0.0209359
-1.08876
1.09034
0.0222157
-0.023504
-0.916508
0.917796
0.0246143
-0.025763
-0.775486
0.776635
0.0266948
-0.0269682
-0.658348
0.658622
0.026175
-0.0232275
-0.536706
0.533759
0.0185187
-0.012263
-0.3648
0.358545
0.0070811
-0.00292044
-0.172522
0.168362
0.000761263
-0.0285905
0.0278292
-0.029924
0.0295548
0.000369135
-0.00401978
0.00730466
-0.242922
0.239637
-0.0114843
0.0146975
-0.418058
0.414845
-0.016573
0.0167392
-0.553569
0.553403
-0.0157986
0.0143312
-0.660866
0.662333
-0.012472
0.0106267
-0.778046
0.779891
-0.00844657
0.00631714
-0.921162
0.923291
-0.00383358
0.00143588
-1.09462
1.09702
0.00133397
-0.00398624
-1.3043
1.30695
0.00701684
-0.00987661
-1.55853
1.56139
0.0125628
-0.0150733
-1.55747
1.55998
0.0170315
-0.0188698
-1.30187
1.3037
0.0203158
-0.0216863
-1.09188
1.09325
0.0227926
-0.0239122
-0.919037
0.920157
0.0248788
-0.0258571
-0.777705
0.778683
0.0265389
-0.0265095
-0.658754
0.658724
0.0253143
-0.0219642
-0.530622
0.527272
0.0171755
-0.0112139
-0.352465
0.346503
0.00644665
-0.00266726
-0.164424
0.160644
0.000701007
-0.0271094
0.0264083
-0.0292466
0.0289839
0.000262715
-0.00308109
0.00574484
-0.236687
0.234024
-0.00928627
0.0121656
-0.411827
0.408947
-0.0139901
0.0142387
-0.553265
0.553016
-0.0133393
0.0119098
-0.663865
0.665294
-0.0100214
0.00813535
-0.781725
0.783612
-0.00591654
0.00376371
-0.925311
0.927463
-0.00126713
-0.001131
-1.09931
1.1017
0.00388561
-0.00650085
-1.3095
1.31212
0.00945367
-0.0121978
-1.56415
1.56689
0.0147323
-0.0170584
-1.56237
1.5647
0.0188391
-0.0204741
-1.30545
1.30708
0.0217278
-0.0228809
-1.0946
1.09575
0.0237895
-0.0247207
-0.92123
0.922161
0.025543
-0.0263634
-0.779581
0.780402
0.0267768
-0.0264944
-0.65856
0.658278
0.0248572
-0.0211304
-0.523756
0.52003
0.016269
-0.0105236
-0.340689
0.334943
0.00604209
-0.00251275
-0.157023
0.153493
0.00066669
-0.0257368
0.0250701
-0.0287787
0.0286168
0.000161942
-0.00221289
0.00429381
-0.231675
0.229594
-0.00719321
0.00967331
-0.4063
0.40382
-0.0113515
0.0116207
-0.552843
0.552574
-0.0107482
0.00933609
-0.666819
0.668231
-0.00740309
0.00545134
-0.785487
0.787438
-0.00314937
0.000919823
-0.929513
0.931742
0.00165297
-0.00410289
-1.104
1.10645
0.00688439
-0.00948893
-1.31464
1.31724
0.0123835
-0.0150234
-1.56952
1.57216
0.0174085
-0.0195437
-1.5669
1.56903
0.0211393
-0.0225691
-1.30863
1.31006
0.0236381
-0.0245915
-1.0969
1.09786
0.0253148
-0.0260505
-0.923054
0.92379
0.0267136
-0.0273772
-0.781122
0.781786
0.0274829
-0.0268435
-0.657772
0.657133
0.0247874
-0.0206919
-0.516161
0.512065
0.0157394
-0.0101257
-0.329311
0.323697
0.00582042
-0.00243631
-0.150071
0.146687
0.000653058
-0.0244236
0.0237705
-0.0285122
0.0284526
5.96246e-05
-0.00136426
0.002876
-0.22782
0.226309
-0.00511717
0.00712979
-0.40161
0.399597
-0.00855036
0.00875229
-0.552436
0.552234
-0.00785799
0.00642734
-0.669762
0.671193
-0.00441385
0.00236682
-0.789379
0.791426
4.70066e-05
-0.00237264
-0.933869
0.936194
0.00503766
-0.00755732
-1.1088
1.11132
0.0103956
-0.0130279
-1.31976
1.32239
0.0159129
-0.0184909
-1.57471
1.57729
0.0207604
-0.0227248
-1.57105
1.57301
0.0241359
-0.0253403
-1.31138
1.31258
0.0261902
-0.0268863
-1.09881
1.09951
0.0273814
-0.0278996
-0.924497
0.925015
0.0283982
-0.0288612
-0.782278
0.782741
0.0286901
-0.0276362
-0.656241
0.655187
0.0251324
-0.0206523
-0.507847
0.503367
0.0155657
-0.00998725
-0.318162
0.312583
0.00575646
-0.00242665
-0.143368
0.140038
0.000657017
-0.0231309
0.0224739
-0.0284505
0.0284995
-4.89284e-05
-0.000490099
0.00142769
-0.225106
0.224169
-0.00298528
0.00446955
-0.397888
0.396403
-0.00553444
0.00558071
-0.552237
0.552191
-0.00459395
0.00307163
-0.672801
0.674323
-0.000931502
-0.00125273
-0.793463
0.795647
0.00381924
-0.00627753
-0.938407
0.940866
0.0090791
-0.0117097
-1.11375
1.11638
0.0146432
-0.0173228
-1.32494
1.32762
0.0201967
-0.0226937
-1.57976
1.58225
0.0248208
-0.0265882
-1.57484
1.57661
0.0277939
-0.0287616
-1.31367
1.31464
0.029394
-0.0298493
-1.10023
1.10068
0.0301169
-0.0303996
-0.925512
0.925794
0.0307097
-0.0309134
-0.782924
0.783128
0.0304794
-0.0289294
-0.653868
0.652318
0.0259346
-0.021025
-0.498779
0.493869
0.0157379
-0.0100909
-0.307043
0.301396
0.00583754
-0.00247839
-0.136737
0.133377
0.000677303
-0.0218235
0.0211462
-0.028605
0.0287713
-0.000166255
0.000437956
-0.000112971
-0.223556
0.223231
-0.000710671
0.00158971
-0.395256
0.394377
-0.0021968
0.00201122
-0.552415
0.5526
-0.000889876
-0.000757134
-0.676061
0.677708
0.00304793
-0.00540929
-0.797821
0.800183
0.00819018
-0.0108461
-0.943226
0.945882
0.0138524
-0.0166451
-1.11892
1.12172
0.0197157
-0.0224737
-1.33021
1.33297
0.0253737
-0.0278227
-1.58464
1.58709
0.0298251
-0.0313872
-1.57822
1.57978
0.0323756
-0.0330828
-1.31547
1.31618
0.033469
-0.0336535
-1.10116
1.10134
0.0336791
-0.033714
-0.92605
0.926085
0.0338174
-0.0336771
-0.782956
0.782815
0.0328964
-0.0307589
-0.650543
0.648405
0.0272219
-0.0218213
-0.488854
0.483454
0.016252
-0.010425
-0.295744
0.289917
0.00605362
-0.00258645
-0.130011
0.126544
0.000712391
-0.0204696
0.0197572
-0.0290169
0.0293237
-0.000306819
0.00143826
-0.00176061
-0.223264
0.223586
0.00177546
-0.00160854
-0.39386
0.393693
0.00159818
-0.00213709
-0.553157
0.553696
0.00347672
-0.00531463
-0.679621
0.681459
0.00783138
-0.0104208
-0.802527
0.805116
0.0134593
-0.0163439
-0.948433
0.951318
0.0195863
-0.0225733
-1.12443
1.12741
0.0258238
-0.028699
-1.33565
1.33853
0.0316514
-0.0340554
-1.58943
1.59183
0.0359202
-0.0372584
-1.58118
1.58252
0.0380109
-0.0384193
-1.31672
1.31712
0.03853
-0.0384179
-1.1015
1.10139
0.0381704
-0.0379226
-0.926058
0.925811
0.0378091
-0.0372258
-0.782214
0.781631
0.0360028
-0.0332091
-0.646098
0.643304
0.0290522
-0.0230677
-0.477941
0.471956
0.0171129
-0.0109849
-0.284038
0.27791
0.00639919
-0.00274754
-0.123037
0.119385
0.000761092
-0.0190407
0.0182797
-0.0297022
0.0301804
-0.000478201
0.00269674
-0.00375551
-0.224291
0.225349
0.00464374
-0.00527736
-0.393901
0.394535
0.00598418
-0.00697636
-0.554743
0.555735
0.00863497
-0.0107462
-0.68364
0.685751
0.013581
-0.0164752
-0.80769
0.810584
0.019844
-0.0230188
-0.954097
0.957272
0.0265632
-0.0298012
-1.13032
1.13356
0.0332778
-0.0362911
-1.34133
1.34434
0.0392912
-0.0416221
-1.59411
1.59644
0.0433034
-0.0443617
-1.58366
1.58472
0.0448194
-0.0449103
-1.31733
1.31743
0.0447182
-0.0442782
-1.10119
1.10075
0.043727
-0.0431647
-0.925449
0.924887
0.0427326
-0.0417137
-0.78057
0.779551
0.0399445
-0.0363855
-0.640379
0.63682
0.0314967
-0.0247994
-0.465838
0.459141
0.0183343
-0.0117718
-0.27168
0.265118
0.00687174
-0.00295931
-0.115662
0.11175
0.000822441
-0.0175102
0.0166877
-0.0307361
0.0314307
-0.000694652
0.00417497
-0.00611258
-0.226846
0.228783
0.00805738
-0.00957961
-0.395595
0.397117
0.0111136
-0.0126807
-0.557399
0.558966
0.0147843
-0.0172469
-0.688267
0.690729
0.0204764
-0.0237487
-0.81346
0.816732
0.0275433
-0.0311026
-0.960364
0.963924
0.0350421
-0.0385938
-1.13674
1.14029
0.0423415
-0.045516
-1.34727
1.35044
0.0485776
-0.0508311
-1.59863
1.60088
0.0523023
-0.0530355
-1.58555
1.58628
0.0531223
-0.0528239
-1.31726
1.31696
0.0522694
-0.0514472
-1.10014
1.09932
0.0505552
-0.0496297
-0.924151
0.923225
0.0487892
-0.047267
-0.778024
0.776502
0.0448097
-0.0403474
-0.633155
0.628693
0.0345939
-0.0270319
-0.452287
0.444725
0.019914
-0.0127746
-0.258401
0.251262
0.00745971
-0.00321421
-0.107736
0.10349
0.000893428
-0.0158539
0.0149605
-0.0322022
0.0331824
-0.000980231
0.00604696
-0.00905234
-0.231179
0.234184
0.0122314
-0.0148101
-0.399219
0.401798
0.0173195
-0.0196012
-0.561393
0.563674
0.022304
-0.0252412
-0.693668
0.696606
0.0289998
-0.032747
-0.819993
0.82374
0.0370581
-0.0410652
-0.967409
0.971416
0.0454518
-0.0493525
-1.14377
1.14767
0.0533961
-0.0567351
-1.35351
1.35685
0.0598256
-0.061939
-1.60295
1.60506
0.0631257
-0.0634539
-1.58674
1.58707
0.0631292
-0.0623706
-1.31631
1.31556
0.0614037
-0.0601379
-1.09824
1.09698
0.0588511
-0.0575569
-0.922048
0.920754
0.0561797
-0.0540428
-0.774442
0.772305
0.0507653
-0.0452163
-0.624137
0.618588
0.038415
-0.0297885
-0.436972
0.428345
0.0218501
-0.0139801
-0.243916
0.236046
0.00814915
-0.00350348
-0.0991171
0.0944714
0.000970897
-0.0140543
0.0130834
-0.0342274
0.0356028
-0.00137536
0.00850438
-0.0128435
-0.237639
0.241978
0.0175025
-0.0213079
-0.405145
0.40895
0.0249506
-0.0281023
-0.567084
0.570236
0.0315996
-0.0351976
-0.700131
0.703729
0.0396595
-0.0440151
-0.827488
0.831844
0.0489506
-0.0534806
-0.975351
0.979881
0.058377
-0.0626592
-1.1515
1.15578
0.0669905
-0.0704375
-1.36005
1.3635
0.0734473
-0.0752869
-1.60691
1.60875
0.0760498
-0.0758362
-1.58705
1.58684
0.0750115
-0.0736806
-1.31432
1.31298
0.0722541
-0.0704983
-1.09534
1.09359
0.0687862
-0.0670404
-0.919088
0.917342
0.0650642
-0.0621914
-0.76961
0.766737
0.0579079
-0.0510348
-0.612944
0.606071
0.0429645
-0.0330454
-0.419497
0.409578
0.0241039
-0.0153469
-0.227922
0.219165
0.0089068
-0.0038086
-0.0896803
0.0845821
0.0010485
-0.0121014
0.0110529
-0.0370094
0.0389511
-0.00194169
0.0119245
-0.0179659
-0.246717
0.252759
0.0244125
-0.02965
-0.413852
0.419089
0.0346153
-0.0388036
-0.574859
0.579047
0.0432849
-0.0477217
-0.708023
0.71246
0.0530727
-0.0581819
-0.8362
0.84131
0.0638821
-0.0690322
-0.98436
0.98951
0.0744884
-0.0791339
-1.15997
1.16462
0.0836727
-0.0871174
-1.36673
1.37018
0.0899002
-0.0913146
-1.61025
1.61166
0.0914863
-0.0905548
-1.5862
1.58526
0.0890662
-0.0870341
-1.31108
1.30904
0.0850321
-0.0827356
-1.0913
1.089
0.0805645
-0.078204
-0.915089
0.912728
0.0756548
-0.0718209
-0.763192
0.759358
0.0663046
-0.0578252
-0.599092
0.590612
0.0482205
-0.0367408
-0.399415
0.387935
0.0265972
-0.0168022
-0.210124
0.200329
0.009679
-0.00410188
-0.079336
0.0737589
0.00111723
-0.00999941
0.00888218
-0.0408685
0.0436907
-0.00282223
0.016894
-0.0251861
-0.259142
0.267434
0.0338449
-0.0408022
-0.42601
0.432967
0.0473834
-0.0528547
-0.585165
0.590636
0.05858
-0.0641031
-0.717714
0.723238
0.0705898
-0.0765951
-0.846411
0.852416
0.0831219
-0.088865
-0.994593
1.00034
0.0947709
-0.0996221
-1.16908
1.17393
0.104147
-0.107353
-1.37328
1.37648
0.109621
-0.110333
-1.61257
1.61329
0.109675
-0.107825
-1.58378
1.58193
0.105524
-0.102662
-1.30637
1.30351
0.0999696
-0.0970394
-1.086
1.08307
0.0943496
-0.0912865
-0.909665
0.906602
0.0880535
-0.0830103
-0.754719
0.749675
0.075964
-0.065521
-0.581983
0.57154
0.0540645
-0.0407277
-0.376214
0.362877
0.0291817
-0.0182219
-0.190258
0.179298
0.0103789
-0.00434081
-0.0680591
0.062021
0.00116397
-0.00777162
0.00660765
-0.0463734
0.0506766
-0.00430326
0.0245921
-0.0359353
-0.276087
0.28743
0.0474483
-0.0567115
-0.442647
0.45191
0.0653156
-0.0723418
-0.598636
0.605662
0.0796294
-0.0866177
-0.72965
0.736638
0.0942832
-0.101091
-0.858314
0.865122
0.108241
-0.114318
-1.00589
1.01196
0.120328
-0.125034
-1.17841
1.18312
0.129128
-0.131698
-1.37913
1.3817
0.133001
-0.132617
-1.61328
1.61289
0.13079
-0.127737
-1.57938
1.57632
0.124426
-0.120567
-1.29991
1.29605
0.117093
-0.113459
-1.07925
1.07561
0.110229
-0.106408
-0.902624
0.898803
0.102272
-0.0956453
-0.743654
0.737028
0.0866988
-0.0738735
-0.560841
0.548016
0.0602289
-0.0447473
-0.349343
0.333861
0.0316226
-0.0194235
-0.16815
0.155951
0.0108829
-0.0044661
-0.0559333
0.0495166
0.00116994
-0.0054674
0.00429746
-0.0545843
0.0619278
-0.00734346
0.0379683
-0.0537855
-0.299675
0.315492
0.0693299
-0.0817842
-0.465432
0.477887
0.0925476
-0.100948
-0.615742
0.624143
0.109774
-0.118044
-0.744198
0.752469
0.126634
-0.133823
-0.871616
0.878805
0.141018
-0.146849
-1.01759
1.02342
0.152326
-0.156284
-1.18715
1.19111
0.159319
-0.160676
-1.38341
1.38477
0.160462
-0.158502
-1.61154
1.60958
0.155098
-0.150519
-1.5724
1.56782
0.145959
-0.140907
-1.29134
1.28629
0.136507
-0.132072
-1.07085
1.06641
0.128165
-0.123514
-0.893792
0.889141
0.118105
-0.109461
-0.729169
0.720526
0.0981016
-0.082363
-0.534681
0.518942
0.0661957
-0.0484051
-0.318274
0.300484
0.0336365
-0.020238
-0.143818
0.13042
0.0110849
-0.00442476
-0.0432155
0.0365554
0.00110719
-0.00317042
0.00206323
-0.0687689
0.072868
-0.0040991
0.0289468
-0.0427705
-0.333839
0.347663
0.0566324
-0.0681215
-0.495772
0.507261
0.0783083
-0.0877956
-0.636088
0.645576
0.098332
-0.108076
-0.760166
0.76991
0.118861
-0.128342
-0.884976
0.894457
0.138346
-0.147147
-1.02832
1.03712
0.156232
-0.163868
-1.19396
1.2016
0.171244
-0.176834
-1.3849
1.39049
0.181346
-0.183594
-1.60636
1.60861
0.183541
-0.181746
-1.56215
1.56035
0.17892
-0.175087
-1.28029
1.27646
0.171581
-0.167446
-1.06054
1.05641
0.163841
-0.159019
-0.882598
0.877775
0.15174
-0.139223
-0.71017
0.697652
0.122481
-0.100224
-0.502502
0.480245
0.0783881
-0.0552305
-0.282585
0.259427
0.0370121
-0.0213714
-0.117615
0.101975
0.0112028
-0.0042414
-0.0304063
0.0234449
0.000971468
-0.000974019
2.55121e-06
-0.0801823
0.0782716
0.00191063
0.0076258
-0.0165168
-0.364169
0.37306
0.0270058
-0.0352694
-0.523317
0.531581
0.0435025
-0.0513137
-0.65769
0.665501
0.0609109
-0.0699119
-0.779118
0.788119
0.0795106
-0.0882017
-0.903305
0.911996
0.0973486
-0.105042
-1.04561
1.0533
0.113143
-0.119553
-1.20898
1.21539
0.125639
-0.129881
-1.39567
1.39991
0.132635
-0.133304
-1.60988
1.61055
0.131727
-0.128404
-1.55771
1.55439
0.124043
-0.118613
-1.27197
1.26654
0.113565
-0.107982
-1.05063
1.04505
0.102738
-0.096482
-0.868203
0.861947
0.0890619
-0.0781542
-0.681381
0.670474
0.0655834
-0.0505925
-0.45655
0.441559
0.0372773
-0.0247756
-0.236508
0.224006
0.0158391
-0.00880123
-0.0871058
0.0800679
0.004463
-0.00163596
-0.0167387
0.0139116
0.000345663
0.00120331
-0.00154897
-0.0816031
0.0787641
0.00283903
-0.00115724
-0.00390027
-0.384714
0.389771
0.0108306
-0.0168443
-0.543678
0.549692
0.0229276
-0.0296731
-0.675851
0.682596
0.0379925
-0.0457897
-0.796192
0.803989
0.0543096
-0.0618552
-0.919862
0.927407
0.069536
-0.0763524
-1.0608
1.06761
0.0833068
-0.0888676
-1.22132
1.22689
0.0936598
-0.0967262
-1.40342
1.40649
0.0985111
-0.0981029
-1.61045
1.61004
0.0954612
-0.0910675
-1.55035
1.54596
0.0858327
-0.0796413
-1.26074
1.25454
0.0734794
-0.0668527
-1.03801
1.03138
0.0606346
-0.0535785
-0.852348
0.845292
0.0466677
-0.0376713
-0.656276
0.647279
0.0286525
-0.0192269
-0.424857
0.415432
0.0123837
-0.00721484
-0.2108
0.205631
0.00418116
-0.00221582
-0.0728241
0.0708588
0.00109543
-0.00041104
-0.0108239
0.0101395
7.60799e-05
0.00216575
-0.00224183
-0.080422
0.0776775
0.00274447
-0.00486539
0.00234372
-0.398345
0.400866
0.00213139
-0.00664935
-0.558797
0.563315
0.0117732
-0.0174281
-0.690787
0.696442
0.0245758
-0.0312635
-0.811114
0.817802
0.0385215
-0.0449684
-0.934374
0.940821
0.0519087
-0.0576563
-1.07397
1.07972
0.0636823
-0.0680311
-1.232
1.23635
0.0720181
-0.0743987
-1.40928
1.41166
0.0752799
-0.073864
-1.60912
1.60771
0.0706385
-0.0657059
-1.54089
1.53596
0.060025
-0.0530338
-1.24795
1.24096
0.0465018
-0.0394239
-1.02373
1.01665
0.0326522
-0.0255292
-0.835611
0.828488
0.0188418
-0.0116219
-0.635304
0.628084
0.00549622
-0.000692671
-0.404764
0.399961
-0.00162547
0.00241927
-0.198699
0.197906
-0.00232891
0.00159833
-0.0679101
0.0686407
-0.000999635
0.000424334
-0.00890927
0.00948457
-0.000132441
0.00263395
-0.00250151
-0.0789806
0.0765685
0.0024121
-0.00603294
0.0050705
-0.40751
0.408472
-0.00170723
-0.00165192
-0.570899
0.574258
0.00574325
-0.0108705
-0.703342
0.70847
0.0168886
-0.0227744
-0.823762
0.829648
0.0290657
-0.0346743
-0.946798
0.952407
0.0406324
-0.0457457
-1.08532
1.09044
0.0508229
-0.0547841
-1.24054
1.2445
0.0581037
-0.0599234
-1.41363
1.41545
0.060227
-0.058354
-1.60604
1.60417
0.0547872
-0.0494246
-1.53029
1.52492
0.0436234
-0.036666
-1.23386
1.2269
0.0299786
-0.0224743
-1.00875
1.00124
0.0155711
-0.00827282
-0.819106
0.811807
0.00218412
0.00358309
-0.618281
0.612514
-0.00760061
0.00968202
-0.392687
0.390606
-0.00967375
0.00826953
-0.194761
0.196165
-0.00645376
0.00429211
-0.0685428
0.0707045
-0.00257563
0.00108486
-0.00964639
0.0111372
-0.000299724
0.00261557
-0.00231585
-0.0776635
0.0756138
0.00204968
-0.00593514
0.00544879
-0.413854
0.41434
-0.00342425
0.00068368
-0.580258
0.582998
0.00332274
-0.00772414
-0.713986
0.718388
0.012907
-0.0180192
-0.834717
0.839829
0.0236188
-0.0286509
-0.957656
0.962688
0.0341299
-0.038628
-1.09527
1.09977
0.0432042
-0.0467588
-1.24817
1.25172
0.0496306
-0.0510953
-1.41697
1.41844
0.0510702
-0.0493959
-1.60219
1.60052
0.0457578
-0.0405851
-1.51917
1.51399
0.0348179
-0.027873
-1.21974
1.2128
0.0214181
-0.0137992
-0.993247
0.985628
0.00692381
5.83224e-05
-0.80303
0.796048
-0.00575843
0.0105341
-0.604182
0.599407
-0.0135382
0.0146469
-0.385403
0.384294
-0.0134988
0.0111038
-0.195264
0.197659
-0.00865158
0.00581787
-0.0721012
0.0749349
-0.00349593
0.00151125
-0.0122852
0.0142699
-0.000421331
0.00214384
-0.00172251
-0.0766945
0.0751097
0.00158478
-0.00505231
0.00487625
-0.418635
0.418811
-0.00318284
0.00110984
-0.588462
0.590535
0.00264714
-0.00665789
-0.723223
0.727234
0.0115883
-0.0159993
-0.844537
0.848948
0.0209324
-0.0254162
-0.967682
0.972166
0.0306465
-0.0347555
-1.1043
1.10841
0.0388447
-0.0422206
-1.2551
1.25847
0.0452489
-0.0465737
-1.41991
1.42123
0.0466401
-0.0449288
-1.59847
1.59676
0.0416801
-0.0363757
-1.50861
1.50331
0.0308965
-0.0242922
-1.20567
1.19906
0.0179633
-0.010948
-0.9779
0.970884
0.00444811
0.00232959
-0.787883
0.781106
-0.00746154
0.0118511
-0.591812
0.587422
-0.0144965
0.015305
-0.380245
0.379437
-0.0142934
0.0119254
-0.197578
0.199946
-0.00937753
0.00636234
-0.0769783
0.0799935
-0.00387024
0.00171494
-0.0158237
0.017979
-0.000491736
0.00142136
-0.000929627
-0.0762379
0.0750127
0.00122526
-0.00395173
0.00388609
-0.4225
0.422566
-0.00229612
0.000322908
-0.595626
0.5976
0.00323798
-0.00686053
-0.731534
0.735156
0.0110984
-0.0153574
-0.853312
0.857571
0.0199325
-0.0245792
-0.976449
0.981096
0.0291011
-0.0330444
-1.11263
1.11657
0.0372811
-0.0404415
-1.26172
1.26488
0.0430188
-0.0447786
-1.42247
1.42423
0.0450485
-0.0436258
-1.59511
1.59369
0.0404901
-0.0356939
-1.49817
1.49337
0.0305453
-0.0243813
-1.19221
1.18604
0.018618
-0.0121485
-0.963727
0.957258
0.006156
4.05964e-05
-0.773725
0.767528
-0.0052398
0.00943693
-0.580345
0.576148
-0.0117851
0.0129065
-0.375959
0.374838
-0.0124393
0.0105374
-0.199863
0.201765
-0.00841713
0.00578758
-0.0818289
0.0844584
-0.00358141
0.00162489
-0.0195172
0.0214737
-0.000484188
0.000589724
-0.000105535
-0.0763303
0.0753111
0.00101915
-0.00264824
0.00232432
-0.426022
0.426346
-0.000910718
-0.00108767
-0.602239
0.604237
0.00437555
-0.00789459
-0.739282
0.742801
0.0119784
-0.01585
-0.861637
0.865508
0.0205588
-0.0244245
-0.985154
0.98902
0.0289319
-0.0327188
-1.12067
1.12446
0.0368559
-0.0402225
-1.26802
1.27139
0.0431215
-0.0447003
-1.42576
1.42734
0.0453261
-0.0442885
-1.59218
1.59114
0.0418048
-0.0374097
-1.4885
1.48411
0.032855
-0.0273253
-1.18013
1.1746
0.0221523
-0.0161525
-0.950599
0.944599
0.0106689
-0.00470185
-0.760605
0.754638
-0.000307473
0.00465258
-0.569728
0.565383
-0.00723719
0.00848709
-0.371243
0.369993
-0.00868988
0.00765464
-0.20125
0.202285
-0.00628066
0.00440782
-0.0857546
0.0876274
-0.00277621
0.00130193
-0.0226612
0.0241355
-0.000402308
-0.000184109
0.000586416
-0.0767226
0.0760149
0.000707743
-0.00149279
0.000689569
-0.429659
0.430462
0.00054238
-0.00268822
-0.608134
0.61028
0.00568562
-0.00909964
-0.746531
0.749945
0.0130328
-0.0170454
-0.869254
0.873267
0.0211494
-0.0251901
-0.993091
0.997132
0.0296719
-0.0332613
-1.12866
1.13225
0.0375118
-0.0408612
-1.27455
1.2779
0.0438482
-0.0459881
-1.42933
1.43147
0.047131
-0.0464275
-1.59016
1.58945
0.0442844
-0.0408011
-1.48
1.47651
0.0369848
-0.0319867
-1.16909
1.16409
0.0271391
-0.0217039
-0.938497
0.933062
0.0161797
-0.0106865
-0.74805
0.742557
0.00588223
-0.00134228
-0.559543
0.555003
-0.00154007
0.00345152
-0.365894
0.363983
-0.00421518
0.00414076
-0.20129
0.201364
-0.003531
0.00256895
-0.0881128
0.0890749
-0.00170361
0.000844438
-0.0248124
0.0256716
-0.00027907
-0.000772888
0.00105196
-0.0775258
0.0769815
0.000544291
-0.000519979
-0.000234924
-0.433553
0.434308
0.00203023
-0.00404377
-0.614148
0.616162
0.00724304
-0.0105552
-0.75331
0.756622
0.0143584
-0.0179848
-0.87696
0.880586
0.0222276
-0.0259659
-1.00117
1.00491
0.0304074
-0.0344497
-1.13629
1.14033
0.0383645
-0.0420692
-1.2813
1.28501
0.0455172
-0.047787
-1.43351
1.43578
0.0493569
-0.0495158
-1.589
1.58916
0.0479614
-0.0452421
-1.473
1.47028
0.0417195
-0.037189
-1.15919
1.15466
0.0327356
-0.0274836
-0.927179
0.921927
0.022432
-0.0171674
-0.736299
0.731034
0.0124718
-0.00765775
-0.549164
0.54435
0.00418046
-0.00166334
-0.359642
0.357125
0.000139802
0.000587615
-0.19963
0.198902
-0.000823301
0.000771512
-0.0887077
0.0887595
-0.00061076
0.000365283
-0.0257657
0.0260112
-0.00014639
-0.00112103
0.00126741
-0.0786112
0.0782454
0.000365795
0.000538967
-0.00148865
-0.437605
0.438555
0.00316505
-0.00549062
-0.619801
0.622127
0.00865137
-0.0118324
-0.759881
0.763062
0.0157358
-0.0192273
-0.884196
0.887688
0.0233251
-0.0271943
-1.00912
1.01299
0.0315578
-0.0355815
-1.14423
1.14825
0.0397436
-0.0435095
-1.28864
1.2924
0.0471809
-0.0502361
-1.43834
1.4414
0.0523122
-0.052863
-1.5893
1.58985
0.0520758
-0.0497003
-1.46749
1.46512
0.046683
-0.0426268
-1.15007
1.14601
0.0382475
-0.0333587
-0.91642
0.911531
0.0286813
-0.0235363
-0.725204
0.720059
0.018925
-0.0137819
-0.538673
0.53353
0.00984248
-0.00650632
-0.352422
0.349086
0.00433246
-0.00270666
-0.19631
0.194684
0.00154268
-0.000708098
-0.0875469
0.0867123
0.000216224
4.671e-05
-0.0255526
0.0252897
-7.57512e-05
-0.00119507