/*--------------------------------*- C++ -*----------------------------------*\
  =========                 |
  \\      /  F ield         | OpenFOAM: The Open Source CFD Toolbox
   \\    /   O peration     | Website:  https://openfoam.org
    \\  /    A nd           | Version:  6
     \\/     M anipulation  |
\*---------------------------------------------------------------------------*/
FoamFile
{
    version     2.0;
    format      ascii;
    class       volVectorField;
    location    "8.4";
    object      U;
}
// * * * * * * * * * * * * * * * * * * * * * * * * * * * * * * * * * * * * * //

dimensions      [0 1 -1 0 0 0 0];

internalField   nonuniform List<vector> 
8800
(
(0.987127 -0.076602 0)
(1.00151 -0.0550796 0)
(0.999443 -0.028466 0)
(1.0004 -0.0152476 0)
(1.00066 -0.00860226 0)
(1.00012 -0.0048215 0)
(0.999895 -0.00264527 0)
(0.999924 -0.00142997 0)
(0.999947 -0.000678484 0)
(1.00003 -0.000132694 0)
(0.99996 0.000451367 0)
(0.999934 0.0010811 0)
(0.999894 0.00197933 0)
(0.999943 0.00360044 0)
(1.00042 0.00650482 0)
(1.00064 0.0114258 0)
(0.999983 0.0207932 0)
(0.998765 0.0385343 0)
(1.00687 0.0723965 0)
(0.771207 0.036632 0)
(0.364044 -0.0159254 0)
(1.04409 -0.0762944 0)
(1.0854 -0.0699374 0)
(1.04625 -0.0531441 0)
(1.02329 -0.0383074 0)
(1.01119 -0.0253609 0)
(1.00559 -0.0163282 0)
(1.00276 -0.0101571 0)
(1.00145 -0.00565568 0)
(1.00108 -0.00207098 0)
(1.00104 0.000895385 0)
(1.00115 0.00420226 0)
(1.00193 0.00810953 0)
(1.00391 0.0132654 0)
(1.00786 0.0205788 0)
(1.01626 0.0316387 0)
(1.03307 0.0458544 0)
(1.06413 0.0611369 0)
(1.09225 0.0753363 0)
(0.839984 0.0562779 0)
(0.219797 -0.0020545 0)
(1.07724 -0.0476819 0)
(1.09867 -0.0447669 0)
(1.06319 -0.0373232 0)
(1.03811 -0.0311417 0)
(1.02148 -0.0244876 0)
(1.01182 -0.017191 0)
(1.007 -0.0108336 0)
(1.00472 -0.00558571 0)
(1.00403 -0.000816234 0)
(1.00416 0.00387295 0)
(1.00545 0.00868821 0)
(1.0088 0.0143887 0)
(1.01569 0.0211918 0)
(1.0286 0.0283619 0)
(1.0493 0.0345445 0)
(1.07898 0.0405674 0)
(1.10623 0.0478877 0)
(0.946527 0.0398164 0)
(0.219551 0.00206387 0)
(0.181852 -0.000448467 0)
(1.02551 -0.0314835 0)
(1.10743 -0.0360159 0)
(1.07817 -0.0304305 0)
(1.05304 -0.0246602 0)
(1.0364 -0.0199377 0)
(1.02482 -0.0158848 0)
(1.01673 -0.0114956 0)
(1.0118 -0.00653863 0)
(1.00968 -0.000901129 0)
(1.01029 0.00497092 0)
(1.01375 0.010087 0)
(1.02009 0.0146039 0)
(1.02972 0.0185294 0)
(1.04353 0.0226753 0)
(1.06372 0.0279734 0)
(1.09473 0.0339212 0)
(1.09848 0.0365317 0)
(0.840997 0.0199003 0)
(0.181439 0.000460192 0)
(0.166976 -5.79461e-05 0)
(0.974988 -0.0152794 0)
(1.1039 -0.0230855 0)
(1.08396 -0.0230297 0)
(1.05666 -0.0210451 0)
(1.03886 -0.0185088 0)
(1.02718 -0.0148 0)
(1.01967 -0.0105351 0)
(1.01507 -0.005758 0)
(1.0131 -0.000610567 0)
(1.01356 0.00446549 0)
(1.01667 0.0093839 0)
(1.02254 0.0137571 0)
(1.03178 0.0175509 0)
(1.04629 0.0204921 0)
(1.06838 0.0226005 0)
(1.09878 0.0238751 0)
(1.07639 0.021233 0)
(0.774076 0.00738705 0)
(0.166394 7.07739e-05 0)
(0.163983 4.8955e-05 0)
(0.942597 -0.0058728 0)
(1.09218 -0.0134868 0)
(1.08345 -0.0168367 0)
(1.05913 -0.017855 0)
(1.04247 -0.0169712 0)
(1.03097 -0.0145982 0)
(1.02336 -0.0109533 0)
(1.01858 -0.00616902 0)
(1.0163 -0.000490332 0)
(1.01685 0.00529965 0)
(1.02012 0.0103508 0)
(1.02605 0.0143783 0)
(1.0353 0.0171553 0)
(1.04932 0.0186765 0)
(1.06895 0.0183731 0)
(1.09361 0.016141 0)
(1.05292 0.0106281 0)
(0.744606 0.00210788 0)
(0.163141 -3.17725e-05 0)
(0.16318 2.0063e-05 0)
(0.921062 -0.00337726 0)
(1.07471 -0.0107166 0)
(1.07692 -0.0163271 0)
(1.05829 -0.0181209 0)
(1.04522 -0.01765 0)
(1.03604 -0.0153743 0)
(1.02956 -0.0114472 0)
(1.02512 -0.00634882 0)
(1.02279 -0.000192185 0)
(1.02326 0.00606765 0)
(1.02628 0.0114786 0)
(1.03142 0.015658 0)
(1.03896 0.0184912 0)
(1.04948 0.0193744 0)
(1.06579 0.0188434 0)
(1.08118 0.0148044 0)
(1.02999 0.00739306 0)
(0.729621 0.00118366 0)
(0.162039 -1.10908e-06 0)
(0.163042 2.61925e-05 0)
(0.906828 -0.00147101 0)
(1.05607 -0.00675483 0)
(1.0665 -0.0124968 0)
(1.05644 -0.0158994 0)
(1.04635 -0.0162225 0)
(1.0388 -0.0142704 0)
(1.03297 -0.0107429 0)
(1.02872 -0.00587221 0)
(1.02636 0.000213525 0)
(1.02669 0.0065696 0)
(1.02948 0.0116975 0)
(1.03408 0.0154521 0)
(1.04038 0.0177154 0)
(1.04921 0.0182082 0)
(1.05942 0.0158851 0)
(1.0654 0.0108645 0)
(1.01021 0.00430463 0)
(0.721269 0.00051732 0)
(0.161546 -1.92609e-06 0)
(0.163155 1.95755e-05 0)
(0.899431 -0.000588679 0)
(1.04316 -0.00344376 0)
(1.05727 -0.00725565 0)
(1.0528 -0.00997262 0)
(1.04736 -0.0109358 0)
(1.04222 -0.0101392 0)
(1.03763 -0.0077921 0)
(1.03396 -0.00401429 0)
(1.03183 0.00101208 0)
(1.03189 0.00615781 0)
(1.034 0.0101529 0)
(1.03757 0.0126268 0)
(1.04205 0.0135708 0)
(1.04709 0.0128925 0)
(1.05223 0.0104421 0)
(1.05263 0.00653532 0)
(0.997669 0.00242152 0)
(0.716882 0.000358265 0)
(0.161202 1.08175e-05 0)
(0.163406 2.39921e-05 0)
(0.896218 -6.62959e-05 0)
(1.03626 -0.00132624 0)
(1.05135 -0.00331564 0)
(1.04966 -0.00499841 0)
(1.0467 -0.00586887 0)
(1.04337 -0.00567879 0)
(1.03999 -0.00428759 0)
(1.037 -0.00168884 0)
(1.03499 0.00193291 0)
(1.03475 0.00556003 0)
(1.03618 0.00815011 0)
(1.03856 0.00940552 0)
(1.04138 0.00938808 0)
(1.04417 0.00825909 0)
(1.04651 0.00624408 0)
(1.04451 0.00370274 0)
(0.990751 0.00139136 0)
(0.714346 0.000257047 0)
(0.160884 1.22854e-05 0)
(0.163795 3.07299e-05 0)
(0.895232 0.000215574 0)
(1.03325 -0.000226818 0)
(1.04841 -0.00106884 0)
(1.0479 -0.00185856 0)
(1.04628 -0.00230122 0)
(1.04418 -0.00217221 0)
(1.04177 -0.00128234 0)
(1.03938 0.000447141 0)
(1.0375 0.00289934 0)
(1.0369 0.00527291 0)
(1.03756 0.00671997 0)
(1.03886 0.00709895 0)
(1.04035 0.00661019 0)
(1.0417 0.00548241 0)
(1.04265 0.00398367 0)
(1.03976 0.00237158 0)
(0.986869 0.00100476 0)
(0.71261 0.000257988 0)
(0.160555 1.94712e-05 0)
(0.164284 3.40652e-05 0)
(0.895405 0.00038282 0)
(1.03228 0.000402218 0)
(1.04731 0.000205271 0)
(1.04723 2.2891e-05 0)
(1.04621 8.03143e-06 0)
(1.04476 0.000302564 0)
(1.04294 0.00104545 0)
(1.04093 0.00230262 0)
(1.03908 0.00397193 0)
(1.03807 0.00543602 0)
(1.03801 0.00611354 0)
(1.03849 0.00592477 0)
(1.03909 0.00522165 0)
(1.03963 0.00417899 0)
(1.03994 0.00300714 0)
(1.03672 0.00186674 0)
(0.984282 0.000912004 0)
(0.711069 0.000295199 0)
(0.160133 2.69488e-05 0)
(0.164885 4.14927e-05 0)
(0.896326 0.000561187 0)
(1.03246 0.000857741 0)
(1.04735 0.0010548 0)
(1.04742 0.00129072 0)
(1.04665 0.00164134 0)
(1.0455 0.0021788 0)
(1.04396 0.00297126 0)
(1.04209 0.00403071 0)
(1.04013 0.00522642 0)
(1.03869 0.00606849 0)
(1.03797 0.00621067 0)
(1.03776 0.0056921 0)
(1.03777 0.00480762 0)
(1.03783 0.0037806 0)
(1.03779 0.00274342 0)
(1.03442 0.001787 0)
(0.982152 0.000971884 0)
(0.709448 0.000358398 0)
(0.159592 3.5692e-05 0)
(0.165646 5.24404e-05 0)
(0.897856 0.000755389 0)
(1.03342 0.00128399 0)
(1.04816 0.00177592 0)
(1.04826 0.00233853 0)
(1.04756 0.00301204 0)
(1.04649 0.00382105 0)
(1.04499 0.00477143 0)
(1.04306 0.00580869 0)
(1.04082 0.00674701 0)
(1.03885 0.00715443 0)
(1.03756 0.00683989 0)
(1.03678 0.00606593 0)
(1.03633 0.00503389 0)
(1.03605 0.00393603 0)
(1.0358 0.00288934 0)
(1.03232 0.00194901 0)
(0.980051 0.0011291 0)
(0.707574 0.000444572 0)
(0.158902 4.60141e-05 0)
(0.166616 6.63832e-05 0)
(0.90001 0.000984466 0)
(1.03505 0.00174417 0)
(1.04962 0.00250841 0)
(1.04968 0.0033775 0)
(1.04894 0.00437236 0)
(1.0478 0.00548542 0)
(1.04617 0.00667079 0)
(1.04398 0.00780635 0)
(1.0413 0.00863459 0)
(1.0387 0.00873893 0)
(1.03681 0.00808528 0)
(1.03552 0.00700844 0)
(1.03468 0.00575159 0)
(1.03413 0.00449057 0)
(1.03371 0.00332312 0)
(1.03012 0.00228772 0)
(0.977725 0.00137 0)
(0.705305 0.000556674 0)
(0.158027 5.8573e-05 0)
(0.167853 8.48788e-05 0)
(0.902872 0.00127247 0)
(1.03736 0.00229321 0)
(1.05174 0.00334875 0)
(1.05171 0.00454655 0)
(1.05084 0.00589595 0)
(1.0495 0.00736423 0)
(1.04758 0.00885908 0)
(1.04496 0.0101882 0)
(1.04164 0.0110081 0)
(1.03829 0.0108798 0)
(1.03572 0.00989748 0)
(1.03391 0.00847177 0)
(1.03269 0.00691023 0)
(1.03189 0.00539174 0)
(1.03131 0.00400772 0)
(1.02759 0.00278802 0)
(0.974974 0.00169682 0)
(0.702497 0.000699358 0)
(0.156922 7.40013e-05 0)
(0.169443 0.000109261 0)
(0.906597 0.00164256 0)
(1.04043 0.00298129 0)
(1.05457 0.00437969 0)
(1.0544 0.00596235 0)
(1.05333 0.00773078 0)
(1.05169 0.00962973 0)
(1.04932 0.0115192 0)
(1.04607 0.0131292 0)
(1.0419 0.0140119 0)
(1.03762 0.0136722 0)
(1.03426 0.0123193 0)
(1.03187 0.0104776 0)
(1.03024 0.00851844 0)
(1.02917 0.00664355 0)
(1.02841 0.00494872 0)
(1.02455 0.00345964 0)
(0.971609 0.00212088 0)
(0.698986 0.000879044 0)
(0.15553 9.30581e-05 0)
(0.171497 0.00014167 0)
(0.911405 0.00212479 0)
(1.04441 0.0038685 0)
(1.05826 0.00569265 0)
(1.05789 0.00774587 0)
(1.05653 0.0100276 0)
(1.05446 0.0124604 0)
(1.05147 0.0148481 0)
(1.04736 0.0168274 0)
(1.04209 0.0178233 0)
(1.03665 0.0172561 0)
(1.03234 0.0154566 0)
(1.02927 0.0130981 0)
(1.02718 0.0106291 0)
(1.0258 0.00828734 0)
(1.02484 0.00617948 0)
(1.02081 0.00432919 0)
(0.967426 0.002661 0)
(0.694579 0.0011044 0)
(0.153782 0.000116662 0)
(0.174172 0.000185926 0)
(0.917604 0.00276516 0)
(1.04952 0.00503935 0)
(1.06299 0.00740081 0)
(1.06236 0.0100335 0)
(1.06059 0.0129539 0)
(1.05792 0.0160585 0)
(1.05409 0.0190744 0)
(1.04887 0.0215191 0)
(1.04218 0.0226614 0)
(1.03531 0.0218155 0)
(1.02985 0.0194586 0)
(1.02597 0.016449 0)
(1.02331 0.0133339 0)
(1.02157 0.0103973 0)
(1.02039 0.00775955 0)
(1.01614 0.00544085 0)
(0.962185 0.00334444 0)
(0.689038 0.001387 0)
(0.151593 0.000146138 0)
(0.177696 0.000248882 0)
(0.92564 0.00363901 0)
(1.05609 0.0066122 0)
(1.06909 0.00963248 0)
(1.06809 0.012967 0)
(1.06575 0.0166951 0)
(1.06225 0.020663 0)
(1.0573 0.0244749 0)
(1.05062 0.0274915 0)
(1.04213 0.0287953 0)
(1.03347 0.027581 0)
(1.02663 0.0245162 0)
(1.02176 0.020687 0)
(1.01843 0.0167622 0)
(1.01625 0.0130825 0)
(1.0148 0.00978124 0)
(1.01029 0.00686625 0)
(0.95559 0.00421525 0)
(0.68205 0.00174536 0)
(0.148851 0.000183832 0)
(0.182403 0.00034042 0)
(0.936178 0.00485669 0)
(1.06471 0.00872346 0)
(1.07714 0.0125098 0)
(1.07556 0.0167044 0)
(1.07237 0.0214992 0)
(1.06771 0.0265999 0)
(1.06124 0.0314153 0)
(1.05264 0.0351094 0)
(1.04188 0.0365568 0)
(1.03101 0.0348358 0)
(1.02248 0.0308679 0)
(1.01642 0.0260147 0)
(1.01228 0.0210868 0)
(1.00957 0.0164953 0)
(1.00779 0.0123831 0)
(1.00295 0.0087253 0)
(0.947259 0.00535274 0)
(0.673198 0.00221127 0)
(0.145412 0.000233924 0)
(0.188804 0.000472887 0)
(0.950183 0.00656817 0)
(1.07627 0.0115568 0)
(1.08791 0.0162602 0)
(1.08543 0.0216226 0)
(1.08103 0.027904 0)
(1.07472 0.0344367 0)
(1.06618 0.040448 0)
(1.05506 0.0448703 0)
(1.04141 0.0463626 0)
(1.02783 0.043925 0)
(1.01725 0.0388096 0)
(1.00973 0.0326908 0)
(1.00457 0.0265324 0)
(1.00118 0.0208343 0)
(0.998964 0.0157541 0)
(0.993702 0.0112029 0)
(0.936727 0.00689776 0)
(0.661947 0.00283806 0)
(0.14109 0.000302033 0)
(0.197725 0.00067259 0)
(0.968882 0.00910604 0)
(1.0916 0.0155759 0)
(1.10216 0.0215335 0)
(1.0984 0.0285835 0)
(1.09229 0.0367794 0)
(1.08378 0.0450578 0)
(1.07242 0.0523353 0)
(1.05799 0.0573943 0)
(1.04071 0.0586907 0)
(1.02384 0.0552248 0)
(1.01078 0.0486666 0)
(1.00147 0.0410088 0)
(0.995033 0.0333555 0)
(0.990726 0.0263094 0)
(0.987876 0.0200718 0)
(0.98205 0.014476 0)
(0.923526 0.00901433 0)
(0.647767 0.00369118 0)
(0.135673 0.000391188 0)
(0.210533 0.00101589 0)
(0.993811 0.0132902 0)
(1.11165 0.0216426 0)
(1.12071 0.0294093 0)
(1.11511 0.0387967 0)
(1.10655 0.0493165 0)
(1.09487 0.0594147 0)
(1.07974 0.0678629 0)
(1.06116 0.0732794 0)
(1.03952 0.0739747 0)
(1.0188 0.0690624 0)
(1.00284 0.0607241 0)
(0.991384 0.0512464 0)
(0.983337 0.0418196 0)
(0.977813 0.033127 0)
(0.974053 0.0254533 0)
(0.967457 0.018588 0)
(0.907176 0.011773 0)
(0.630259 0.00482565 0)
(0.128934 0.000502282 0)
(0.229484 0.00169565 0)
(1.02798 0.0204873 0)
(1.13853 0.0311934 0)
(1.14491 0.0417754 0)
(1.13603 0.0541278 0)
(1.12347 0.0670708 0)
(1.10725 0.0787771 0)
(1.08729 0.0879661 0)
(1.06375 0.0931537 0)
(1.03718 0.0926132 0)
(1.01219 0.0857442 0)
(0.993006 0.0752941 0)
(0.979095 0.0637726 0)
(0.96911 0.0523683 0)
(0.962036 0.0417686 0)
(0.957042 0.0323487 0)
(0.949331 0.0238614 0)
(0.886769 0.0153903 0)
(0.608728 0.00635583 0)
(0.120567 0.00065505 0)
(0.25792 0.00326313 0)
(1.0772 0.0338655 0)
(1.17478 0.0482049 0)
(1.17598 0.0626551 0)
(1.1613 0.0780773 0)
(1.14265 0.0927967 0)
(1.12026 0.105146 0)
(1.09426 0.113918 0)
(1.065 0.117743 0)
(1.03307 0.115014 0)
(1.0036 0.105573 0)
(0.981003 0.0927328 0)
(0.964396 0.0790784 0)
(0.952146 0.0656956 0)
(0.943109 0.0531983 0)
(0.936363 0.0419585 0)
(0.926881 0.0317654 0)
(0.860719 0.021072 0)
(0.581582 0.00859138 0)
(0.110676 0.000855858 0)
(0.299062 0.0108565 -2.62361e-21)
(1.14207 0.0615171 -1.91546e-21)
(1.22002 0.0799364 5.09129e-22)
(1.21143 0.0977694 0)
(1.1887 0.114303 -5.05245e-37)
(1.16248 0.128766 3.92842e-23)
(1.13286 0.139985 -2.62997e-22)
(1.10007 0.146909 0)
(1.06448 0.148314 9.72865e-36)
(1.02665 0.142699 -7.34337e-22)
(0.992213 0.130361 0)
(0.965703 0.11513 -1.05514e-21)
(0.945799 0.0995394 -3.23191e-21)
(0.930552 0.0845194 -1.56661e-21)
(0.918641 0.0706489 -4.94546e-22)
(0.908966 0.0582645 -3.00403e-22)
(0.89633 0.0472638 0)
(0.826602 0.034721 2.1869e-22)
(0.546261 0.018473 2.612e-22)
(0.10067 0.0035204 4.68724e-21)
(0.321348 0.0289555 -4.98388e-21)
(1.19476 0.108638 1.05855e-22)
(1.26138 0.130641 -2.63435e-22)
(1.24355 0.147055 0)
(1.21311 0.161609 3.84723e-22)
(1.17951 0.174075 1.87112e-22)
(1.14295 0.183175 -1.68363e-22)
(1.10348 0.187908 -1.24202e-21)
(1.06136 0.186975 0)
(1.01696 0.178846 3.09084e-21)
(0.976451 0.164193 3.42398e-21)
(0.944755 0.147288 1.10116e-21)
(0.920257 0.130653 4.36675e-21)
(0.900717 0.115058 6.46273e-21)
(0.884655 0.100977 0)
(0.870819 0.0887645 9.68105e-21)
(0.853492 0.0788173 1.42731e-20)
(0.784615 0.0643375 1.60975e-20)
(0.522286 0.0427597 -1.88533e-20)
(0.0993576 0.00889804 -3.46539e-22)
(0.311935 0.0471877 0)
(1.22558 0.169676 -1.49949e-21)
(1.29244 0.193699 0)
(1.26848 0.206246 2.29947e-21)
(1.23176 0.216879 0)
(1.19191 0.225625 1.11721e-21)
(1.14925 0.231325 1.75124e-22)
(1.10382 0.232797 -1.80782e-21)
(1.05581 0.228746 -3.09069e-22)
(1.00549 0.217696 1.48376e-21)
(0.959568 0.200801 7.95282e-21)
(0.923479 0.182688 -5.00751e-23)
(0.895374 0.165746 -3.27448e-21)
(0.872719 0.150588 -6.3683e-21)
(0.853932 0.137533 7.75683e-21)
(0.837797 0.126781 -1.39631e-20)
(0.819643 0.118158 -1.92317e-21)
(0.758299 0.104466 0)
(0.519729 0.0730137 8.96095e-23)
(0.106058 0.0156748 0)
(0.298498 0.0621673 -3.84217e-20)
(1.23884 0.234029 1.549e-20)
(1.31135 0.261093 8.06796e-21)
(1.28412 0.269921 -1.52185e-21)
(1.24325 0.27629 2.32273e-21)
(1.19907 0.280656 -2.78021e-21)
(1.1517 0.282353 1.56974e-22)
(1.1014 0.280055 0)
(1.04842 0.272499 -5.72108e-21)
(0.993128 0.258265 0)
(0.942921 0.238988 -4.02257e-21)
(0.903634 0.219575 -5.69925e-21)
(0.873204 0.202239 -3.65209e-21)
(0.848964 0.187302 -4.72333e-21)
(0.82922 0.174831 0)
(0.812641 0.164849 0)
(0.795225 0.156983 -1.28393e-20)
(0.739722 0.142659 2.58183e-21)
(0.514778 0.100642 -1.52517e-21)
(0.107257 0.0217141 -1.80474e-21)
(0.28671 0.0754301 2.8292e-20)
(1.24047 0.29748 0)
(1.32052 0.32864 -2.25509e-20)
(1.29147 0.334307 -5.74991e-21)
(1.248 0.336447 -4.36207e-21)
(1.20069 0.336742 0)
(1.14997 0.334372 -5.81478e-22)
(1.09603 0.328221 1.50807e-21)
(1.03919 0.317025 2.44943e-21)
(0.979861 0.29942 7.38718e-21)
(0.926073 0.277512 0)
(0.884283 0.256468 -1.23535e-20)
(0.852311 0.238266 -7.92522e-21)
(0.827209 0.22301 -4.78285e-21)
(0.807081 0.210531 3.14375e-20)
(0.790527 0.200707 3.86447e-21)
(0.773844 0.192829 1.85375e-20)
(0.721845 0.177193 -9.03296e-20)
(0.505661 0.124879 5.43271e-20)
(0.106191 0.0269762 -6.64242e-20)
(0.277259 0.0873573 2.97935e-20)
(1.23485 0.358341 -5.39556e-21)
(1.32246 0.394541 3.96403e-21)
(1.29251 0.397547 1.07205e-20)
(1.24734 0.395745 6.57223e-21)
(1.19785 0.392127 3.1722e-22)
(1.14461 0.385889 5.39e-22)
(1.08781 0.376056 1.00854e-21)
(1.02782 0.361335 -5.30927e-21)
(0.965114 0.340323 0)
(0.908462 0.315566 -5.28527e-21)
(0.864807 0.292538 -3.0154e-22)
(0.831786 0.273066 -8.86876e-21)
(0.806237 0.257003 0)
(0.786094 0.243986 -6.85581e-21)
(0.769827 0.233714 -1.67032e-20)
(0.753808 0.225291 4.63855e-20)
(0.704033 0.207876 -4.66402e-20)
(0.494701 0.146501 6.69259e-20)
(0.10405 0.0315607 -7.05889e-20)
(0.270121 0.0984978 -1.29644e-22)
(1.2251 0.415906 6.58047e-21)
(1.31906 0.457743 1.89684e-20)
(1.2887 0.458464 -6.56849e-21)
(1.24237 0.45313 3.77009e-21)
(1.19142 0.445927 0)
(1.13632 0.436165 1.7722e-21)
(1.07735 0.422862 -6.5945e-22)
(1.01489 0.404792 -2.36429e-21)
(0.949469 0.38047 0)
(0.89038 0.352751 -5.11498e-21)
(0.845132 0.32748 -7.25389e-21)
(0.81132 0.306339 9.70226e-21)
(0.785511 0.289034 -6.22442e-21)
(0.765459 0.275074 -3.02429e-20)
(0.749493 0.264008 1.86331e-20)
(0.734016 0.254776 5.93611e-21)
(0.685967 0.235496 0)
(0.482666 0.165735 -6.50669e-20)
(0.101224 0.0355024 -2.42202e-21)
(0.264733 0.109123 4.85664e-21)
(1.21302 0.470004 -7.55202e-21)
(1.31165 0.517526 -1.03507e-20)
(1.28121 0.516343 -2.02562e-20)
(1.23421 0.507959 1.83197e-20)
(1.18232 0.497578 -9.85908e-21)
(1.126 0.484655 -3.82912e-21)
(1.06539 0.468212 -8.16319e-22)
(1.00085 0.447038 2.43425e-21)
(0.933005 0.419568 -1.77933e-20)
(0.87171 0.388851 -6.32901e-21)
(0.825016 0.361081 0)
(0.790498 0.337945 1.06374e-20)
(0.76452 0.319058 1.31964e-20)
(0.744619 0.303819 1.62723e-20)
(0.729005 0.291702 -2.04023e-20)
(0.714055 0.281445 -6.16857e-21)
(0.66748 0.260174 7.36186e-21)
(0.469623 0.182671 0)
(0.0978871 0.0388141 -5.31505e-21)
(0.260627 0.119316 -5.61475e-20)
(1.19986 0.520657 3.46379e-20)
(1.30139 0.573673 1.13658e-20)
(1.27107 0.570826 -1.54763e-20)
(1.22373 0.559843 1.09605e-20)
(1.17125 0.546735 -7.60364e-22)
(1.11405 0.531022 3.85832e-21)
(1.0522 0.511807 -3.78274e-22)
(0.985964 0.487806 -4.153e-21)
(0.915949 0.457426 2.11609e-23)
(0.85253 0.423772 -1.87944e-20)
(0.804384 0.393334 1.86076e-20)
(0.769137 0.36792 -1.19881e-20)
(0.742979 0.347117 1.49609e-20)
(0.723256 0.330311 0)
(0.708029 0.31691 -1.1149e-20)
(0.693614 0.305462 -2.65557e-22)
(0.648376 0.282087 -3.23654e-20)
(0.455625 0.197415 -4.82499e-21)
(0.0940584 0.0414626 0)
(0.257471 0.129172 0)
(1.18627 0.568068 3.73435e-20)
(1.28912 0.626174 2.64942e-20)
(1.25899 0.621913 1.74735e-20)
(1.2116 0.608678 1.06273e-20)
(1.15883 0.593216 0)
(1.10103 0.57509 3.57362e-21)
(1.03825 0.553433 -2.74798e-22)
(0.970638 0.52702 8.64818e-21)
(0.898595 0.494011 -2.13368e-21)
(0.832991 0.457549 -1.38129e-20)
(0.783217 0.424347 9.29891e-21)
(0.747101 0.396379 -4.25433e-22)
(0.720681 0.373341 1.58357e-20)
(0.70113 0.354682 1.03806e-20)
(0.686312 0.339739 -2.43649e-20)
(0.672486 0.326911 2.96422e-20)
(0.628455 0.301169 8.9355e-21)
(0.44051 0.209864 3.73102e-20)
(0.089667 0.0432283 -1.00971e-19)
(0.25501 0.138769 -1.4318e-20)
(1.17267 0.612398 2.15446e-20)
(1.27558 0.675115 -1.64846e-20)
(1.24565 0.669647 -2.02825e-20)
(1.19838 0.654486 0)
(1.14555 0.636967 8.66451e-21)
(1.08744 0.616751 -1.05731e-20)
(1.02393 0.593026 -3.68885e-22)
(0.955151 0.564584 0)
(0.88124 0.529323 -3.32896e-20)
(0.813242 0.490276 3.78102e-20)
(0.761563 0.454282 0)
(0.724307 0.423506 1.43684e-20)
(0.69746 0.397907 -4.44682e-22)
(0.678002 0.37709 -3.31462e-20)
(0.663604 0.360324 1.30203e-20)
(0.650373 0.345878 0)
(0.607516 0.317658 4.86532e-20)
(0.424193 0.220045 0)
(0.0847215 0.0443667 -4.84665e-20)
(0.25301 0.148025 1.59023e-20)
(1.1594 0.653579 2.46251e-20)
(1.2613 0.720594 -1.72776e-20)
(1.23155 0.714113 0)
(1.18449 0.697282 1.4677e-20)
(1.13176 0.67798 0)
(1.07355 0.655963 1.37839e-20)
(1.0096 0.630531 1.67474e-21)
(0.939786 0.600443 7.28763e-22)
(0.864106 0.563464 -1.64111e-20)
(0.793527 0.522111 3.64396e-21)
(0.739498 0.483361 0)
(0.700721 0.449594 -3.08118e-20)
(0.673198 0.42109 4.65735e-22)
(0.653683 0.397736 0)
(0.639681 0.378855 5.08761e-22)
(0.62702 0.362519 4.43221e-20)
(0.585227 0.331524 -4.30383e-20)
(0.406431 0.227847 1.28184e-20)
(0.0791021 0.0446649 0)
(0.25112 0.156843 0)
(1.14628 0.692184 2.74885e-20)
(1.24659 0.762946 2.02398e-20)
(1.21702 0.755483 -4.02161e-22)
(1.17027 0.737161 9.12827e-21)
(1.11777 0.716285 2.07288e-20)
(1.05964 0.692738 -4.55482e-21)
(0.99548 0.665917 8.5435e-22)
(0.924823 0.63465 4.69151e-21)
(0.847363 0.596423 -2.54022e-20)
(0.774037 0.55321 -7.34036e-22)
(0.717183 0.511873 -1.25276e-20)
(0.676378 0.474985 5.09259e-20)
(0.647779 0.443282 -5.73187e-22)
(0.628072 0.416964 -2.66672e-20)
(0.614298 0.395428 -4.87046e-20)
(0.602127 0.376963 0)
(0.56136 0.342836 0)
(0.386999 0.233166 1.42825e-20)
(0.0727587 0.0440243 -8.43962e-21)
(0.249555 0.165381 1.96921e-20)
(1.13349 0.7283 -5.99452e-20)
(1.23167 0.802295 -2.16684e-20)
(1.20229 0.793885 0)
(1.15594 0.774225 -2.97092e-22)
(1.10381 0.751948 2.4841e-20)
(1.04593 0.727113 -1.50638e-20)
(0.981748 0.699206 -7.75477e-21)
(0.910507 0.667153 4.24599e-21)
(0.831217 0.628244 -1.92937e-20)
(0.754901 0.583816 -3.22739e-20)
(0.694817 0.540141 3.35582e-20)
(0.651393 0.500106 0)
(0.621121 0.464811 -1.21196e-20)
(0.600776 0.435177 -2.95319e-20)
(0.587125 0.41035 -3.5711e-20)
(0.575601 0.389227 -4.35364e-20)
(0.535863 0.351523 1.31403e-20)
(0.365559 0.235655 -7.73291e-21)
(0.0656173 0.0423617 1.42648e-22)
(0.247898 0.173442 0)
(1.12111 0.762067 0)
(1.21677 0.838805 4.6542e-22)
(1.18758 0.829482 0)
(1.14167 0.808603 -3.43951e-20)
(1.09001 0.785082 -2.19174e-20)
(1.03258 0.759133 0)
(0.968569 0.730377 -1.7463e-21)
(0.896947 0.697937 4.0211e-21)
(0.815919 0.658982 -4.42853e-20)
(0.736332 0.613969 0)
(0.672642 0.568453 -2.17066e-20)
(0.625841 0.525348 -6.76198e-22)
(0.592995 0.486269 -5.55906e-22)
(0.571375 0.452266 3.19291e-20)
(0.558162 0.423954 -4.26976e-23)
(0.547591 0.3993 -9.56282e-20)
(0.508408 0.357385 2.89999e-20)
(0.341737 0.23487 8.68625e-21)
(0.0575109 0.0395342 0)
(0.246193 0.180982 -7.23313e-20)
(1.10895 0.793662 -3.66427e-20)
(1.20201 0.872688 -5.41726e-20)
(1.17301 0.862439 7.5824e-20)
(1.1276 0.840422 -6.45141e-20)
(1.07652 0.815778 0)
(1.01967 0.788876 -1.28736e-20)
(0.956069 0.759473 3.41177e-21)
(0.884262 0.72699 7.63307e-22)
(0.801714 0.688586 3.56518e-21)
(0.718821 0.643618 4.06555e-20)
(0.650973 0.597041 -7.42456e-21)
(0.599856 0.551102 -3.20814e-20)
(0.563255 0.507878 -1.47503e-20)
(0.539931 0.468867 1.79629e-20)
(0.526439 0.436714 -2.53116e-23)
(0.516226 0.408112 2.66319e-20)
(0.477049 0.360775 -6.35091e-20)
(0.314536 0.230756 7.65709e-20)
(0.0484771 0.0355447 1.12001e-20)
(0.24429 0.18808 2.65248e-20)
(1.09697 0.823615 -1.99826e-20)
(1.18742 0.904106 1.10079e-21)
(1.15865 0.892916 4.2774e-20)
(1.11382 0.869824 1.50137e-20)
(1.0634 0.844145 4.39788e-20)
(1.00729 0.81641 -5.58524e-21)
(0.944287 0.786548 1.62919e-20)
(0.872612 0.75432 9.58365e-22)
(0.788766 0.716962 -2.36366e-20)
(0.702584 0.672988 0)
(0.629905 0.625942 -3.39205e-20)
(0.573576 0.577547 4.70473e-20)
(0.532467 0.530364 0)
(0.506621 0.487025 -3.87244e-20)
(0.492079 0.447818 2.42709e-20)
(0.48195 0.41385 -2.91092e-20)
(0.442653 0.360148 -3.54565e-20)
(0.283479 0.222135 -6.31139e-20)
(0.0383752 0.0300781 -5.00029e-20)
(0.242608 0.194796 -2.91079e-20)
(1.08515 0.85155 2.1394e-20)
(1.17309 0.933148 5.03995e-20)
(1.14459 0.921048 5.87704e-20)
(1.10037 0.896947 -3.15849e-20)
(1.05071 0.870307 3.03622e-20)
(0.995465 0.841821 -1.75709e-20)
(0.933297 0.811649 1.9983e-20)
(0.862024 0.779903 2.14697e-21)
(0.777292 0.744101 2.19907e-20)
(0.687641 0.701964 8.70194e-20)
(0.609503 0.655146 0)
(0.547893 0.60493 0)
(0.502368 0.554837 -1.71589e-20)
(0.471528 0.505627 0)
(0.454841 0.460674 5.32953e-20)
(0.443282 0.418813 6.4444e-20)
(0.403753 0.355702 0)
(0.24794 0.208406 0)
(0.0273955 0.0231647 5.53479e-20)
(0.240734 0.200947 3.20603e-20)
(1.07355 0.877589 2.55047e-20)
(1.15908 0.95999 3.62302e-20)
(1.13088 0.947008 -5.23864e-20)
(1.08731 0.921938 -3.51909e-20)
(1.03847 0.894379 -4.01869e-20)
(0.984226 0.865197 2.61775e-20)
(0.923095 0.834805 2.74683e-22)
(0.85256 0.803748 -9.8858e-22)
(0.767269 0.770053 -1.31649e-21)
(0.674042 0.730581 4.42787e-20)
(0.590536 0.684875 0)
(0.523997 0.633634 4.82418e-20)
(0.472696 0.581321 3.64074e-20)
(0.434855 0.527078 9.39139e-20)
(0.412274 0.4727 2.89267e-20)
(0.398857 0.421363 -3.63043e-20)
(0.359726 0.345075 -2.16143e-20)
(0.209817 0.188144 0)
(0.0174347 0.0154151 6.11914e-20)
(0.239164 0.206972 -7.04221e-20)
(1.06217 0.901812 0)
(1.14543 0.984773 4.03701e-20)
(1.11753 0.97093 -4.29074e-20)
(1.07466 0.944933 3.9752e-20)
(1.02669 0.916493 5.85405e-20)
(0.973539 0.886615 -6.06487e-20)
(0.913645 0.856096 6.7656e-22)
(0.844165 0.825869 0)
(0.758619 0.794747 -1.93458e-20)
(0.662365 0.758501 -9.22052e-20)
(0.573605 0.714492 4.69137e-21)
(0.500156 0.664442 6.62373e-20)
(0.440983 0.61093 0)
(0.395071 0.552443 6.35718e-20)
(0.362729 0.491205 0)
(0.343559 0.422019 0)
(0.305485 0.320144 -2.45587e-20)
(0.177266 0.151985 0)
(0.025224 0.0105171 1.67146e-20)
(0.237355 0.212425 -7.67972e-20)
(1.05105 0.924468 0)
(1.13209 1.00771 6.53921e-20)
(1.10453 0.993053 0)
(1.06236 0.966196 -2.15536e-20)
(1.01527 0.936933 0)
(0.963262 0.906393 -4.46727e-21)
(0.904752 0.875803 -3.55174e-21)
(0.836594 0.846559 -5.87701e-22)
(0.751272 0.818438 -1.81024e-20)
(0.652547 0.786305 2.36296e-21)
(0.558332 0.744552 3.93987e-20)
(0.477057 0.696964 6.44456e-20)
(0.408964 0.641951 9.25324e-21)
(0.352294 0.582667 4.98171e-20)
(0.307643 0.513541 0)
(0.269964 0.429192 8.01012e-20)
(0.22446 0.277371 -4.86707e-20)
(0.0922679 0.128882 5.74004e-20)
(-0.0228505 0.388869 -6.86338e-20)
(0.235661 0.217676 6.25684e-20)
(1.04004 0.945726 9.65231e-20)
(1.11896 1.02911 0)
(1.09173 1.01376 8.419e-22)
(1.05022 0.9862 5.84068e-20)
(1.00395 0.956222 -1.13213e-19)
(0.953101 0.925055 -2.67467e-20)
(0.896067 0.894418 0)
(0.829461 0.866464 -9.18237e-21)
(0.745068 0.842146 -3.2483e-22)
(0.644318 0.815735 0)
(0.543397 0.778929 0)
(0.454683 0.732965 5.68727e-20)
(0.373917 0.679243 -2.89887e-20)
(0.304556 0.623069 -4.9514e-20)
(0.244772 0.556427 0)
(0.163642 0.448644 4.10604e-20)
(0.0624385 0.517743 -5.00862e-20)
(0.0562424 1.70184 -2.8027e-20)
(0.0911484 2.71361 -3.37128e-20)
(0.233814 0.222369 -4.57516e-20)
(1.02914 0.965778 -1.21622e-19)
(1.10605 1.04894 3.76217e-20)
(1.0792 1.03302 3.62855e-20)
(1.0383 1.00484 0)
(0.99279 0.9742 -8.10455e-20)
(0.94321 0.942379 -4.46606e-20)
(0.887698 0.911452 2.33731e-21)
(0.822984 0.884924 -1.30826e-21)
(0.740479 0.865071 1.19869e-20)
(0.637515 0.846218 4.17924e-20)
(0.529743 0.814973 4.18332e-20)
(0.433232 0.772931 5.62631e-20)
(0.343037 0.719983 -6.62306e-20)
(0.261991 0.676537 -7.28405e-20)
(0.18546 0.617855 0)
(0.0986437 0.86754 0)
(0.146635 2.40984 2.1534e-20)
(0.157314 3.14114 0)
(0.154621 3.35745 5.45497e-20)
(0.235161 0.226591 0)
(1.01815 0.984749 0)
(1.09325 1.06709 0)
(1.06673 1.0507 1.00607e-20)
(1.02637 1.02198 5.23132e-20)
(0.981602 0.990801 -6.18273e-20)
(0.933442 0.958309 -3.20391e-20)
(0.879508 0.927158 2.6478e-21)
(0.817224 0.902346 -1.94686e-20)
(0.737512 0.887378 -2.36867e-21)
(0.633039 0.877383 7.63265e-20)
(0.517379 0.853079 -5.00897e-21)
(0.411831 0.814935 6.45274e-21)
(0.316224 0.763677 9.43222e-21)
(0.235592 0.731246 5.10242e-22)
(0.159352 0.967646 3.35037e-22)
(0.198404 2.52411 -1.01717e-19)
(0.225969 3.25618 -3.89739e-20)
(0.205566 3.41682 1.90815e-20)
(0.184996 3.44472 -1.99275e-20)
(0.15172 0.167929 2.68615e-20)
(1.00067 1.0054 0)
(1.08093 1.08383 -7.33898e-20)
(1.05458 1.06718 -9.37862e-20)
(1.01484 1.03811 1.08031e-19)
(0.970863 1.00641 6.54884e-20)
(0.923611 0.972784 3.78011e-20)
(0.871524 0.941899 -4.43599e-20)
(0.812909 0.918543 2.02933e-20)
(0.736759 0.90898 0)
(0.631988 0.909346 3.33284e-20)
(0.50892 0.893468 -3.23996e-20)
(0.394511 0.860577 0)
(0.296372 0.809575 8.56811e-21)
(0.226006 0.909276 2.06257e-20)
(0.203401 2.14392 -2.43345e-20)
(0.296027 3.28751 2.76524e-20)
(0.27462 3.43974 1.33467e-20)
(0.231064 3.46896 1.56316e-20)
(0.201792 3.48158 1.95447e-20)
(0.269713 0.262622 -5.1982e-20)
(0.97596 1.00725 0)
(1.06089 1.10381 7.54078e-20)
(1.03646 1.09072 9.7098e-20)
(0.99698 1.06092 -1.11617e-19)
(0.953758 1.02826 -6.96724e-20)
(0.90844 0.994518 -5.75439e-20)
(0.860422 0.963145 -3.36637e-21)
(0.807295 0.94113 -2.83624e-20)
(0.737091 0.939771 -6.33684e-21)
(0.630426 0.961495 1.20566e-21)
(0.494083 0.967629 2.70488e-20)
(0.366528 0.940955 5.65155e-21)
(0.283845 1.0341 -7.55928e-21)
(0.306776 2.08789 -1.67989e-20)
(0.379892 3.28017 1.18913e-20)
(0.370653 3.48049 -1.00967e-20)
(0.324713 3.51033 -5.85416e-21)
(0.278855 3.54396 1.92917e-21)
(0.214014 3.5351 -1.12774e-22)
(0.258303 0.260266 0)
(0.970165 1.02522 1.98334e-20)
(1.04919 1.12105 -1.48381e-20)
(1.02409 1.10716 -1.07244e-20)
(0.984901 1.07683 -7.28102e-20)
(0.942435 1.04339 6.7785e-20)
(0.89827 1.00857 3.8644e-20)
(0.852642 0.976076 -3.52747e-21)
(0.804466 0.954496 3.49572e-20)
(0.741576 0.960167 -3.56631e-21)
(0.635204 0.996979 -4.70258e-20)
(0.485203 1.02025 4.02057e-21)
(0.360206 1.00596 -5.14713e-21)
(0.332385 1.38344 -6.14626e-21)
(0.421939 2.91957 4.10845e-21)
(0.470963 3.46353 3.69938e-22)
(0.411748 3.55515 -1.0025e-20)
(0.371474 3.58464 -1.29922e-20)
(0.300186 3.61462 1.8875e-20)
(0.230584 3.60466 9.01599e-21)
(0.242324 0.255835 4.90686e-20)
(0.962959 1.04578 1.32058e-19)
(1.03674 1.13969 -4.197e-20)
(1.01089 1.1246 -4.05563e-20)
(0.971933 1.09346 0)
(0.930212 1.05892 9.81269e-20)
(0.887439 1.0227 5.85447e-20)
(0.844894 0.989118 -3.70739e-21)
(0.802729 0.968208 3.74778e-21)
(0.750955 0.980307 2.35542e-20)
(0.6535 1.0354 -1.52019e-20)
(0.486251 1.0797 -2.94414e-20)
(0.366974 1.108 -3.60159e-20)
(0.41416 1.90407 3.3386e-20)
(0.53315 3.30656 1.29807e-20)
(0.540162 3.55018 0)
(0.469816 3.61194 0)
(0.414958 3.67218 1.81656e-20)
(0.332498 3.73626 0)
(0.245729 3.70249 3.93715e-20)
(0.230374 0.255258 -7.09185e-20)
(0.953421 1.06714 -1.0897e-19)
(1.0226 1.15914 0)
(0.996037 1.14245 8.04833e-22)
(0.957364 1.1102 -6.97581e-20)
(0.916381 1.07422 1.44782e-19)
(0.875231 1.03627 3.92232e-20)
(0.836078 1.00066 -4.34566e-21)
(0.801092 0.979526 3.88141e-20)
(0.762345 0.999511 -2.29394e-21)
(0.669594 1.07918 0)
(0.499986 1.13686 0)
(0.39973 1.2656 -2.97648e-20)
(0.519892 2.48184 7.42146e-21)
(0.642368 3.46374 -4.28467e-21)
(0.604723 3.60256 0)
(0.551708 3.67992 4.50681e-20)