/*--------------------------------*- C++ -*----------------------------------*\
  =========                 |
  \\      /  F ield         | OpenFOAM: The Open Source CFD Toolbox
   \\    /   O peration     | Website:  https://openfoam.org
    \\  /    A nd           | Version:  6
     \\/     M anipulation  |
\*---------------------------------------------------------------------------*/
FoamFile
{
    version     2.0;
    format      ascii;
    class       surfaceScalarField;
    location    "43";
    object      phi;
}
// * * * * * * * * * * * * * * * * * * * * * * * * * * * * * * * * * * * * * //

dimensions      [0 3 -1 0 0 0 0];

internalField   nonuniform List<scalar> 
17370
(
-0.0900012
0.0898501
0.289162
-0.0714636
0.0537532
0.364486
-0.0381196
0.02769
0.426598
-0.0196367
0.0146018
0.504287
-0.0107573
0.00826497
0.601894
-0.00626503
0.0048915
0.720431
-0.00373455
0.00290161
0.863739
-0.00216745
0.0016132
1.036
-0.00110061
0.000690967
1.24291
-0.000284577
-0.00010496
1.49158
0.000483016
-0.000889447
1.4916
0.00128393
-0.00177246
1.24318
0.00230398
-0.00301763
1.03635
0.00383888
-0.00498983
0.864057
0.00636032
-0.00835576
0.721053
0.0108415
-0.0146773
0.60305
0.0197045
-0.0277499
0.507485
0.038173
-0.053798
0.431793
0.0714996
-0.0898738
0.36515
0.0900146
0.198996
-0.12813
0.0882163
0.0399142
-0.364593
0.353366
-0.0746848
0.0859115
-0.446473
0.454312
-0.084413
0.076574
-0.521185
0.529895
-0.0684785
0.0597686
-0.612782
0.621562
-0.05158
0.0427996
-0.726888
0.734154
-0.0353388
0.0280724
-0.867471
0.872572
-0.0224797
0.0173788
-1.03847
1.0419
-0.0135831
0.0101467
-1.2446
1.24702
-0.00754535
0.00512167
-1.49263
1.4946
-0.00318306
0.00121711
-1.4925
1.49422
0.000458856
-0.00217679
-1.24398
1.24586
0.00407795
-0.0059609
-1.03751
1.04005
0.00831853
-0.0108549
-0.866102
0.869844
0.0142224
-0.0179644
-0.724394
0.729948
0.0230174
-0.0285718
-0.608703
0.616123
0.0357966
-0.0432168
-0.514902
0.523051
0.0519513
-0.0600997
-0.43986
0.447923
0.0687683
-0.0768316
-0.3753
0.37675
0.084637
-0.0860863
-0.257337
0.222494
0.0748043
-0.0399612
-0.0685019
0.0586705
0.00983137
-0.0518448
0.0584394
-0.37411
0.367515
-0.0575323
0.0537871
-0.453583
0.457328
-0.0487019
0.0447542
-0.527931
0.531879
-0.0409191
0.0372855
-0.621545
0.625178
-0.0331921
0.0291281
-0.735329
0.739393
-0.0245746
0.0204306
-0.87432
0.878464
-0.0161007
0.0124188
-1.04347
1.04715
-0.00869583
0.00553346
-1.24855
1.25171
-0.00221505
-0.000855693
-1.49665
1.49972
0.00390211
-0.00716215
-1.49721
1.50047
0.0102399
-0.0138484
-1.25009
1.2537
0.0174169
-0.0216236
-1.04594
1.05015
0.0256662
-0.0301245
-0.87778
0.882239
0.0341114
-0.0381243
-0.739919
0.743932
0.0416838
-0.0454383
-0.626794
0.630549
0.0493173
-0.0543376
-0.534828
0.539848
0.0580167
-0.0588404
-0.457491
0.458315
0.0521508
-0.0319683
-0.33578
0.315598
0.00988154
-0.0683665
0.058485
-0.0529142
0.0489122
0.00400198
-0.0332059
0.0437704
-0.358067
0.347502
-0.0474842
0.0468667
-0.459256
0.459873
-0.0438183
0.0404702
-0.535769
0.539118
-0.0367029
0.0334057
-0.628491
0.631788
-0.0299803
0.0269657
-0.74261
0.745624
-0.0237305
0.0206446
-0.881972
0.885058
-0.0171348
0.0137718
-1.05072
1.05409
-0.00999745
0.0064754
-1.25513
1.25865
-0.00252528
-0.00125668
-1.50323
1.50701
0.00501025
-0.008875
-1.50415
1.50801
0.0122816
-0.0159007
-1.25745
1.26107
0.0191078
-0.0224454
-1.05396
1.0573
0.0253848
-0.0284773
-0.885738
0.88883
0.0313755
-0.0346821
-0.747204
0.75051
0.0378736
-0.0415291
-0.634351
0.638006
0.0447811
-0.0477219
-0.544172
0.547113
0.0482287
-0.0443606
-0.456619
0.452751
0.0336137
-0.0161933
-0.296259
0.278839
0.00406355
-0.0526738
0.0486102
-0.0458278
0.043325
0.00250275
-0.0228585
0.0332638
-0.33679
0.326384
-0.0391095
0.0401436
-0.459542
0.458508
-0.0389702
0.0366971
-0.541822
0.544095
-0.0340462
0.0314686
-0.63482
0.637398
-0.0284298
0.0255557
-0.748654
0.751528
-0.0223192
0.0193475
-0.887999
0.890971
-0.0160638
0.0129827
-1.0572
1.06028
-0.00947737
0.00608822
-1.26209
1.26548
-0.00214443
-0.0017249
-1.51087
1.51474
0.00555617
-0.00938461
-1.51191
1.51574
0.012621
-0.0159224
-1.26453
1.26783
0.0188005
-0.0218571
-1.06041
1.06347
0.0246303
-0.0276681
-0.891895
0.894933
0.030379
-0.0332549
-0.753729
0.756605
0.0356917
-0.0381957
-0.641091
0.643595
0.0403413
-0.0413482
-0.548937
0.549944
0.0401437
-0.0340516
-0.447499
0.441407
0.02338
-0.0102008
-0.263656
0.250477
0.00257833
-0.0454582
0.0428799
-0.0412421
0.0394665
0.00177561
-0.0168074
0.0260919
-0.316501
0.307217
-0.0327305
0.0348929
-0.456886
0.454724
-0.0344896
0.0328321
-0.546053
0.54771
-0.0306645
0.0285843
-0.639681
0.641762
-0.0261761
0.0238072
-0.754155
0.756524
-0.0209881
0.0182379
-0.89384
0.89659
-0.0150453
0.0120137
-1.06329
1.06633
-0.00855906
0.00526045
-1.26878
1.27208
-0.0014495
-0.00227014
-1.51853
1.52225
0.00594043
-0.00960597
-1.51949
1.52315
0.0127102
-0.0159071
-1.27108
1.27428
0.0186796
-0.0215777
-1.06649
1.06939
0.0240665
-0.0266201
-0.89777
0.900323
0.0287718
-0.0309676
-0.759077
0.761273
0.0328687
-0.0348504
-0.645769
0.647751
0.0363273
-0.0365095
-0.550488
0.55067
0.0340891
-0.0270943
-0.434786
0.427792
0.0174539
-0.0073613
-0.238993
0.228901
0.0018672
-0.0407143
0.0388471
-0.0379359
0.0365967
0.00133921
-0.012856
0.0208418
-0.298587
0.290601
-0.0276369
0.0305956
-0.452134
0.449175
-0.0308327
0.0297413
-0.54912
0.550212
-0.0277751
0.0258881
-0.643775
0.645662
-0.0237265
0.0216269
-0.758735
0.760835
-0.0191507
0.0166973
-0.899129
0.901582
-0.0137841
0.010933
-1.06923
1.07208
-0.00760639
0.00440117
-1.2753
1.2785
-0.000691168
-0.0029069
-1.52587
1.52947
0.00644598
-0.0099788
-1.52675
1.53029
0.0129447
-0.0159508
-1.27743
1.28044
0.0184778
-0.0210227
-1.07214
1.07468
0.0231486
-0.0252913
-0.902634
0.904777
0.0271161
-0.0290053
-0.763283
0.765173
0.0306643
-0.0324049
-0.649601
0.651342
0.0332345
-0.0326902
-0.550498
0.549954
0.0293665
-0.0220882
-0.4206
0.413322
0.0136485
-0.00568548
-0.219976
0.212013
0.00145042
-0.0372157
0.0357652
-0.0354265
0.0343914
0.00103502
-0.0100651
0.0168239
-0.283257
0.276498
-0.0233578
0.0267729
-0.445971
0.442556
-0.027593
0.0269245
-0.551081
0.551749
-0.0251984
0.0234451
-0.647518
0.649271
-0.0214133
0.0194368
-0.762871
0.764848
-0.0171147
0.0148363
-0.903881
0.906159
-0.0121549
0.00952297
-1.07474
1.07738
-0.00641921
0.00337602
-1.28159
1.28463
0.000200997
-0.00369261
-1.533
1.5365
0.00711121
-0.0104651
-1.53375
1.5371
0.0132087
-0.0159143
-1.28332
1.28602
0.0181448
-0.0203656
-1.07708
1.0793
0.0222282
-0.0241229
-0.906791
0.908686
0.0257482
-0.0274405
-0.766945
0.768637
0.0289188
-0.0303453
-0.652938
0.654364
0.0306916
-0.0294439
-0.549069
0.547822
0.0255275
-0.0183606
-0.406077
0.398911
0.0110341
-0.0045667
-0.20487
0.198403
0.00117042
-0.0344729
0.0333025
-0.0334824
0.0326728
0.000809614
-0.00799788
0.0136888
-0.270306
0.264615
-0.0197476
0.0233728
-0.439034
0.435409
-0.0246836
0.0242701
-0.552335
0.552749
-0.0228137
0.0211723
-0.651024
0.652665
-0.0192414
0.017358
-0.766769
0.768653
-0.0151353
0.0129481
-0.908309
0.910496
-0.0103713
0.00785215
-1.07987
1.08238
-0.00490073
0.00202175
-1.28754
1.29042
0.0013476
-0.00462834
-1.53986
1.54314
0.00782003
-0.0109223
-1.54033
1.54344
0.0134415
-0.0159093
-1.28863
1.2911
0.0179416
-0.0199589
-1.08142
1.08344
0.0216367
-0.0233287
-0.910489
0.91218
0.0247737
-0.0262814
-0.770227
0.771735
0.0275743
-0.0286355
-0.655594
0.656655
0.028618
-0.0267238
-0.546261
0.544366
0.0224376
-0.015573
-0.391893
0.385028
0.00918003
-0.00378421
-0.192523
0.187128
0.000973961
-0.0322449
0.031271
-0.0319617
0.0313278
0.000633912
-0.00639799
0.0111733
-0.259414
0.254639
-0.0166435
0.0202743
-0.431787
0.428157
-0.0219235
0.0217584
-0.553079
0.553244
-0.020567
0.0190097
-0.654307
0.655864
-0.0171548
0.0153296
-0.770495
0.77232
-0.0131689
0.0110442
-0.912575
0.9147
-0.00854857
0.00611827
-1.08478
1.08722
-0.00328233
0.000527492
-1.29318
1.29593
0.00267749
-0.00577671
-1.54629
1.54938
0.0087648
-0.0116388
-1.54641
1.54929
0.0139516
-0.0161998
-1.29349
1.29574
0.018036
-0.0198469
-1.0854
1.08721
0.0213481
-0.0228558
-0.913802
0.915309
0.0241359
-0.0254585
-0.773134
0.774456
0.0265968
-0.0272523
-0.65749
0.658146
0.0268771
-0.0244516
-0.542221
0.539795
0.0199613
-0.0134783
-0.378365
0.371882
0.00783932
-0.00322533
-0.182163
0.177549
0.000834133
-0.0303794
0.0295453
-0.0307739
0.030282
0.00049195
-0.0051093
0.00909497
-0.250289
0.246303
-0.0139338
0.0174199
-0.424618
0.421132
-0.0192516
0.0192689
-0.553373
0.553355
-0.0182555
0.01672
-0.657476
0.659011
-0.0148863
0.0130945
-0.774105
0.775897
-0.0109938
0.00894145
-0.916687
0.918739
-0.00653471
0.00418845
-1.08951
1.09185
-0.00144841
-0.00120257
-1.29857
1.30122
0.00425976
-0.00718115
-1.55237
1.55529
0.00997118
-0.0126322
-1.55205
1.55472
0.0147474
-0.0167718
-1.2979
1.29992
0.0183993
-0.0199809
-1.08892
1.0905
0.0212763
-0.0225802
-0.91673
0.918034
0.0237037
-0.024882
-0.775718
0.776897
0.0258609
-0.0261905
-0.658617
0.658946
0.0254532
-0.0226064
-0.537183
0.534336
0.018022
-0.01192
-0.365613
0.359511
0.00687212
-0.00282918
-0.173257
0.169214
0.000736648
-0.0287732
0.0280365
-0.0298579
0.0294857
0.000372224
-0.00402854
0.00731845
-0.242694
0.239404
-0.0115129
0.0147526
-0.417793
0.414553
-0.0166713
0.0168827
-0.553308
0.553096
-0.0159916
0.0145666
-0.660568
0.661993
-0.012754
0.0109536
-0.777663
0.779463
-0.00882825
0.00675479
-0.92069
0.922764
-0.00434199
0.00201943
-1.09409
1.09641
0.000656061
-0.00321214
-1.30376
1.30631
0.00613001
-0.00888405
-1.55807
1.56083
0.0114769
-0.0139102
-1.55725
1.55968
0.0158161
-0.0176261
-1.30189
1.3037
0.0190746
-0.0204778
-1.09203
1.09344
0.0216262
-0.022777
-0.919285
0.920436
0.0237574
-0.0247523
-0.777996
0.778991
0.0254607
-0.0254957
-0.659124
0.659159
0.0243733
-0.0211542
-0.531319
0.5281
0.01653
-0.0107717
-0.35361
0.347851
0.00617962
-0.00255195
-0.165412
0.161784
0.000670317
-0.0273464
0.026676
-0.0291743
0.0289101
0.00026412
-0.00307351
0.0057303
-0.236458
0.233801
-0.00927203
0.0121662
-0.411519
0.408625
-0.0140278
0.0143269
-0.552911
0.552611
-0.0134951
0.0121339
-0.663456
0.664817
-0.0103236
0.00851133
-0.78123
0.783043
-0.00637722
0.00430666
-0.924719
0.92679
-0.00190871
-0.00038942
-1.09862
1.10092
0.00302511
-0.00552812
-1.30877
1.31127
0.0083621
-0.0110039
-1.56348
1.56612
0.013449
-0.0156927
-1.56201
1.56425
0.0174056
-0.0189889
-1.30542
1.307
0.0202278
-0.0214046
-1.09477
1.09595
0.022349
-0.0232906
-0.921525
0.922466
0.0240958
-0.0249025
-0.77991
0.780717
0.0253561
-0.0251259
-0.659034
0.658804
0.0236056
-0.0200648
-0.524748
0.521208
0.0154308
-0.0099569
-0.342276
0.336802
0.00570348
-0.00236811
-0.158337
0.155002
0.000628684
-0.026041
0.0254123
-0.028702
0.0285405
0.000161452
-0.00218188
0.00423935
-0.231465
0.229407
-0.00712287
0.00960921
-0.405971
0.403485
-0.0113207
0.0116366
-0.552406
0.55209
-0.0108252
0.00947436
-0.666277
0.667628
-0.00762208
0.005761
-0.784826
0.786687
-0.00358144
0.00147958
-0.928725
0.930827
0.000941813
-0.00325145
-1.10309
1.1054
0.00587831
-0.00834089
-1.31367
1.31613
0.0110746
-0.013567
-1.56863
1.57113
0.0158218
-0.0178429
-1.56638
1.5684
0.0193477
-0.0206926
-1.30851
1.30986
0.0217028
-0.0226255
-1.09704
1.09796
0.023353
-0.024089
-0.923336
0.924072
0.0247435
-0.025416
-0.781464
0.782137
0.0255916
-0.0250615
-0.65836
0.65783
0.0231704
-0.0193363
-0.517574
0.513739
0.0146828
-0.00941763
-0.331486
0.326221
0.00540156
-0.00225992
-0.151802
0.14866
0.000607501
-0.0248114
0.0242039
-0.0284339
0.0283754
5.85235e-05
-0.00130726
0.00277443
-0.227658
0.226191
-0.00497721
0.00698395
-0.401275
0.399268
-0.00844564
0.00872109
-0.551909
0.551634
-0.00793118
0.00660373
-0.669088
0.670416
-0.00470907
0.00277341
-0.788527
0.790462
-0.000486923
-0.00171655
-0.93282
0.935024
0.00423714
-0.00660879
-1.1076
1.10997
0.00926091
-0.0117006
-1.31848
1.32092
0.01436
-0.0167289
-1.57349
1.57586
0.0188078
-0.0205927
-1.57028
1.57206
0.0218697
-0.0229692
-1.31111
1.31221
0.0237722
-0.0244807
-1.09885
1.09956
0.0250015
-0.0255016
-0.924767
0.925267
0.025946
-0.0263878
-0.78266
0.783102
0.0262511
-0.0253474
-0.657025
0.656122
0.0230546
-0.0189156
-0.509821
0.505682
0.0142233
-0.00909948
-0.321092
0.315968
0.00523773
-0.00221128
-0.14562
0.142593
0.000602454
-0.0236176
0.0230152
-0.0283752
0.0284237
-4.85545e-05
-0.000413363
0.00127671
-0.225032
0.224169
-0.0027611
0.00421285
-0.397579
0.396127
-0.00530177
0.00542217
-0.551576
0.551456
-0.00456349
0.00318124
-0.671904
0.673286
-0.00120775
-0.00082621
-0.792369
0.794403
0.00322611
-0.00552393
-0.9371
0.939397
0.00812916
-0.0105578
-1.11222
1.11465
0.0132509
-0.0157025
-1.32326
1.32571
0.0183248
-0.0205973
-1.57812
1.58039
0.0225126
-0.0240757
-1.57371
1.57527
0.0251066
-0.025907
-1.31321
1.31401
0.0264248
-0.0268213
-1.10019
1.10058
0.0270736
-0.0273107
-0.92573
0.925967
0.0275531
-0.0277285
-0.783277
0.783452
0.0273409
-0.0259796
-0.654901
0.653539
0.0232791
-0.0188394
-0.501507
0.497067
0.0140711
-0.00900312
-0.310958
0.30589
0.00521022
-0.00222229
-0.139638
0.13665
0.000613791
-0.0224299
0.0218161
-0.0285386
0.0287109
-0.000172357
0.0005444
-0.000323168
-0.223616
0.223395
-0.000397673
0.00122649
-0.39502
0.394191
-0.00184942
0.00172875
-0.551642
0.551763
-0.000720812
-0.000797157
-0.674903
0.676421
0.00291672
-0.00509397
-0.796409
0.798586
0.00764102
-0.0100612
-0.941545
0.943965
0.0127968
-0.0153377
-1.11695
1.11949
0.0181258
-0.0206127
-1.32805
1.33054
0.0231893
-0.0253125
-1.58251
1.58463
0.02701
-0.0282982
-1.57666
1.57795
0.0290713
-0.0295711
-1.31469
1.31519
0.0298009
-0.029877
-1.1009
1.10098
0.0298366
-0.0297754
-0.926146
0.926085
0.0297774
-0.0296298
-0.783278
0.783131
0.0289472
-0.0270743
-0.651914
0.650041
0.023931
-0.0191344
-0.49261
0.487813
0.0142211
-0.00911783
-0.300907
0.295804
0.00531117
-0.00228913
-0.133705
0.130683
0.000640524
-0.021215
0.0205745
-0.02896
0.0292768
-0.000316726
0.00160271
-0.00202865
-0.223511
0.223937
0.00216533
-0.00206135
-0.393739
0.393635
0.00203118
-0.00247385
-0.552277
0.55272
0.00364491
-0.00529858
-0.678201
0.679854
0.00758776
-0.00995541
-0.800731
0.803098
0.0127442
-0.0153921
-0.946262
0.94891
0.018356
-0.0210653
-1.12193
1.12464
0.023981
-0.0265239
-1.33291
1.33545
0.0290883
-0.031121
-1.58661
1.58864
0.0326195
-0.03361
-1.57904
1.58003
0.034075
-0.0341955
-1.31554
1.31566
0.0340921
-0.033828
-1.10094
1.10068
0.0334863
-0.0330986
-0.92592
0.925532
0.0328151
-0.0322189
-0.782542
0.781946
0.0311098
-0.0286346
-0.647969
0.645494
0.024984
-0.0197827
-0.483015
0.477814
0.0146641
-0.00943531
-0.290763
0.285534
0.00553372
-0.0024081
-0.12768
0.124554
0.000681341
-0.019943
0.0192617
-0.029664
0.0301524
-0.000488419
0.00287314
-0.00408999
-0.224771
0.225988
0.00515528
-0.00589178
-0.393938
0.394674
0.00660385
-0.00748676
-0.553691
0.554574
0.00892236
-0.0107845
-0.681818
0.68368
0.0133271
-0.0159539
-0.805436
0.808063
0.0190385
-0.0219422
-0.951436
0.95434
0.0251593
-0.0280632
-1.12724
1.13014
0.0311405
-0.0337636
-1.33788
1.3405
0.0363117
-0.0382078
-1.5905
1.5924
0.0394621
-0.0400887
-1.58078
1.58141
0.0401872
-0.0399063
-1.31559
1.31531
0.039422
-0.0387479
-1.10023
1.09955
0.0380439
-0.0372725
-0.924969
0.924197
0.0366427
-0.0355179
-0.780832
0.779708
0.0338765
-0.0307444
-0.642878
0.639746
0.0265444
-0.0208689
-0.472638
0.466962
0.0154502
-0.00998098
-0.280339
0.274869
0.00589071
-0.00258371
-0.121421
0.118114
0.000736942
-0.0185863
0.0178493
-0.0307261
0.0314361
-0.000710022
0.0043863
-0.00649673
-0.227643
0.229754
0.00861743
-0.0102545
-0.395841
0.397478
0.0118203
-0.0133039
-0.55618
0.557664
0.0152108
-0.0174393
-0.685967
0.688196
0.0203705
-0.0233283
-0.810648
0.813606
0.0267476
-0.0299351
-0.957084
0.960272
0.0334431
-0.0365857
-1.13293
1.13607
0.0398674
-0.042596
-1.343
1.34573
0.045135
-0.046871
-1.59409
1.59583
0.0478364
-0.0480673
-1.58177
1.582
0.0477258
-0.0469625
-1.31477
1.31401
0.0460074
-0.0448272
-1.0986
1.09742
0.0436832
-0.0424633
-0.923165
0.921946
0.0413735
-0.0397429
-0.778068
0.776437
0.0374928
-0.0336196
-0.636527
0.632654
0.0287583
-0.0224705
-0.4613
0.455012
0.0166233
-0.0107769
-0.269392
0.263546
0.00639105
-0.00281806
-0.114768
0.111195
0.000807929
-0.0171138
0.0163059
-0.0322312
0.0332287
-0.000997564
0.00628334
-0.00946726
-0.232323
0.235507
0.0128294
-0.0155134
-0.399699
0.402383
0.0180245
-0.0201737
-0.56002
0.56217
0.0226249
-0.0252914
-0.690913
0.69358
0.0287142
-0.0321258
-0.816526
0.819938
0.0360418
-0.0396679
-0.963343
0.96697
0.0436144
-0.0470875
-1.13912
1.14259
0.0506222
-0.0534508
-1.34832
1.35114
0.0559273
-0.0574248
-1.59732
1.59882
0.0579929
-0.0576989
-1.58189
1.5816
0.0568513
-0.0555145
-1.31289
1.31155
0.054059
-0.0523404
-1.09586
1.09415
0.0507188
-0.0489733
-0.920368
0.918622
0.0473401
-0.0450918
-0.774252
0.772004
0.0421066
-0.037339
-0.628705
0.623937
0.0316838
-0.024639
-0.448738
0.441693
0.0182158
-0.0118311
-0.257652
0.251268
0.00702903
-0.00310121
-0.107556
0.103628
0.00088829
-0.0154991
0.0146109
-0.0343058
0.0356996
-0.00139375
0.00875947
-0.0132631
-0.239149
0.243653
0.0180886
-0.0219843
-0.405846
0.409741
0.0256042
-0.0285749
-0.565437
0.568408
0.0317441
-0.0349941
-0.69681
0.70006
0.0390616
-0.0430573
-0.823311
0.827307
0.0475955
-0.0517438
-0.970506
0.974654
0.056186
-0.0600097
-1.14597
1.14979
0.063793
-0.0666982
-1.3538
1.3567
0.069071
-0.0702706
-1.60003
1.60123
0.0703584
-0.0694243
-1.58091
1.57997
0.0679533
-0.0659275
-1.30975
1.30773
0.0638877
-0.061576
-1.09193
1.08962
0.0594374
-0.0571276
-0.916399
0.91409
0.0548296
-0.0518341
-0.769147
0.766151
0.0479705
-0.0421524
-0.619117
0.613299
0.0355425
-0.0275327
-0.434659
0.42665
0.0203287
-0.0131951
-0.244786
0.237652
0.00782433
-0.00343479
-0.0996016
0.095212
0.000975878
-0.0137253
0.0127495
-0.0371462
0.0391086
-0.00196244
0.0121235
-0.0182897
-0.248582
0.254748
0.0248546
-0.0301521
-0.414741
0.420039
0.0350929
-0.0391161
-0.572838
0.576861
0.0432781
-0.0473747
-0.704019
0.708115
0.0523394
-0.057082
-0.831269
0.836012
0.0623535
-0.0670819
-0.978714
0.983442
0.072037
-0.0761875
-1.15348
1.15763
0.0801389
-0.0829974
-1.35936
1.36222
0.0850583
-0.0857277
-1.60203
1.6027
0.0851266
-0.0833854
-1.57857
1.57682
0.0811597
-0.0783163
-1.30517
1.30232
0.0755871
-0.0726014
-1.08664
1.08366
0.0699149
-0.0670253
-0.91115
0.90826
0.0640462
-0.0602029
-0.762533
0.758689
0.0553592
-0.0483207
-0.607447
0.600409
0.0405432
-0.0312943
-0.41864
0.409391
0.0230465
-0.0149004
-0.230361
0.222215
0.00878191
-0.00381637
-0.0906907
0.0857252
0.00106931
-0.011779
0.0107097
-0.0410625
0.0438947
-0.00283215
0.0169889
-0.0253331
-0.261286
0.26963
0.0340219
-0.0409809
-0.427012
0.433971
0.0474678
-0.0527744
-0.582767
0.588074
0.0582379
-0.0634841
-0.713086
0.718332
0.0695854
-0.0752109
-0.840711
0.846337
0.0812884
-0.0865906
-0.988063
0.993365
0.0919846
-0.0963348
-1.16157
1.16592
0.100258
-0.10285
-1.36469
1.36729
0.104348
-0.104253
-1.6028
1.6027
0.102761
-0.100031
-1.57449
1.57176
0.0969184
-0.0931456
-1.29888
1.29511
0.089602
-0.0857847
-1.07988
1.07606
0.0824416
-0.0788921
-0.904526
0.900976
0.0752569
-0.0704477
-0.754102
0.749293
0.0644475
-0.0559436
-0.593293
0.584789
0.0467379
-0.0359263
-0.400135
0.389323
0.0263223
-0.0168737
-0.213872
0.204423
0.00983921
-0.00421336
-0.080617
0.0749911
0.00115859
-0.00965254
0.00849395
-0.0466032
0.0508997
-0.00429644
0.0245406
-0.0358343
-0.27836
0.289654
0.0472524
-0.0564175
-0.443641
0.452806
0.0648015
-0.0715894
-0.59578
0.602568
0.0786027
-0.0852811
-0.724453
0.731132
0.0925752
-0.0990373
-0.851866
0.858329
0.105793
-0.111484
-0.998473
1.00416
0.117037
-0.121285
-1.16989
1.17414
0.124821
-0.126814
-1.36931
1.3713
0.127396
-0.126244
-1.60186
1.60071
0.123578
-0.119591
-1.56826
1.56428
0.115408
-0.110554
-1.29062
1.28577
0.106125
-0.101458
-1.07138
1.06672
0.0974091
-0.093006
-0.896318
0.891915
0.0886072
-0.0826355
-0.743555
0.737584
0.0752482
-0.0649637
-0.576097
0.565813
0.0540125
-0.0412561
-0.378484
0.365727
0.0299559
-0.0189409
-0.194809
0.183794
0.0108741
-0.00456781
-0.0692688
0.0629625
0.00122622
-0.00736126
0.00613504
-0.0548199
0.0621518
-0.00733196
0.0378369
-0.0535155
-0.3019
0.317578
0.0688054
-0.0809614
-0.466186
0.478342
0.0913434
-0.0995084
-0.61227
0.620435
0.108076
-0.116031
-0.738356
0.74631
0.124261
-0.131144
-0.864491
0.871374
0.138004
-0.143508
-1.00941
1.01491
0.148587
-0.152139
-1.17772
1.18127
0.154665
-0.15549
-1.37243
1.37326
0.154594
-0.15188
-1.59856
1.59584
0.147621
-0.142062
-1.55934
1.55379
0.136565
-0.130438
-1.28009
1.27397
0.124974
-0.119344
-1.06102
1.05539
0.11457
-0.1094
-0.886197
0.881027
0.104091
-0.0966431
-0.730404
0.722956
0.0875483
-0.0750396
-0.555133
0.542624
0.0618838
-0.0467976
-0.352868
0.337782
0.0335773
-0.020886
-0.172815
0.160124
0.0117608
-0.00482133
-0.0567364
0.0497969
0.0012456
-0.00495885
0.00371325
-0.0690113
0.0730693
-0.00405798
0.0286803
-0.0423403
-0.33585
0.34951
0.0559993
-0.0671276
-0.495934
0.507062
0.07706
-0.0863471
-0.631997
0.641284
0.0967945
-0.106261
-0.753678
0.763145
0.116705
-0.125889
-0.877291
0.886475
0.13555
-0.143995
-1.01949
1.02793
0.15262
-0.15975
-1.18371
1.19084
0.166442
-0.171253
-1.37284
1.37765
0.174681
-0.175661
-1.5918
1.59278
0.174139
-0.170636
-1.54706
1.54355
0.166168
-0.160451
-1.26693
1.26122
0.155109
-0.148862
-1.04863
1.04238
0.14351
-0.137515
-0.873973
0.867978
0.130991
-0.120795
-0.713927
0.703731
0.107755
-0.0903124
-0.529415
0.511973
0.0725805
-0.0527423
-0.322414
0.302576
0.0362588
-0.0214201
-0.147846
0.133007
0.0114077
-0.00437935
-0.0434343
0.0364059
0.00100517
-0.00253453
0.00152936
-0.0803919
0.0784043
0.00198769
0.00728971
-0.0160071
-0.365925
0.374642
0.0263357
-0.0343895
-0.522764
0.530818
0.0424303
-0.0502794
-0.653142
0.660991
0.0598755
-0.0687475
-0.77217
0.781042
0.078147
-0.0866367
-0.895108
0.903597
0.0955311
-0.102951
-1.03609
1.04351
0.110683
-0.116678
-1.19772
1.20371
0.122198
-0.125797
-1.38201
1.38561
0.127664
-0.127318
-1.59273
1.59239
0.124562
-0.119836
-1.53909
1.53436
0.114093
-0.107033
-1.25481
1.24775
0.100367
-0.0929032
-1.03517
1.02771
0.0859473
-0.0780581
-0.858622
0.850733
0.0705414
-0.0615322
-0.689409
0.6804
0.0515872
-0.0396078
-0.492654
0.480675
0.0286949
-0.0183722
-0.282522
0.272199
0.0111466
-0.00577654
-0.118769
0.113399
0.00266913
-0.000846842
-0.0296748
0.0278525
0.000105821
-0.0002433
0.000137479
-0.0816897
0.0788311
0.00285853
-0.00142748
-0.00347444
-0.386228
0.39113
0.0102402
-0.0162063
-0.542681
0.548647
0.0222984
-0.0290771
-0.671204
0.677983
0.037446
-0.0451695
-0.788984
0.796707
0.0535499
-0.0609555
-0.91132
0.918725
0.0684631
-0.0750888
-1.05075
1.05737
0.0817906
-0.0870798
-1.20926
1.21455
0.0915266
-0.0942164
-1.38856
1.39125
0.0954751
-0.0944326
-1.59137
1.59033
0.0910112
-0.0856362
-1.52903
1.52366
0.079366
-0.0718532
-1.24042
1.23291
0.0642663
-0.0558536
-1.01913
1.01072
0.0479467
-0.0392661
-0.840691
0.832011
0.0317921
-0.0238941
-0.667518
0.659619
0.0163001
-0.00833754
-0.466894
0.458931
0.00281844
0.000708073
-0.260999
0.257473
-0.00210557
0.00225091
-0.107174
0.107029
-0.00173984
0.000931041
-0.0254912
0.0263
-0.000346352
0.000409686
-6.33341e-05
-0.0804665
0.0777197
0.00274679
-0.00502463
0.00262574
-0.399644
0.402043
0.00169708
-0.00619326
-0.557663
0.562159
0.0113974
-0.017105
-0.686107
0.691815
0.0243017
-0.0309585
-0.803772
0.810429
0.038148
-0.0445219
-0.925603
0.931977
0.0513725
-0.057035
-1.06358
1.06924
0.0629592
-0.0672169
-1.21946
1.22372
0.0710953
-0.0733377
-1.39375
1.39599
0.0739811
-0.0721867
-1.58884
1.58704
0.0683692
-0.0625821
-1.51755
1.51177
0.0559711
-0.0478191
-1.22493
1.21678
0.0401232
-0.0317944
-1.00166
0.993327
0.0240601
-0.0160991
-0.82225
0.814289
0.00892719
-0.00196653
-0.64813
0.64117
-0.00388811
0.00863588
-0.449192
0.444444
-0.0105324
0.0101761
-0.251334
0.25169
-0.008725
0.00627957
-0.105787
0.108232
-0.0041072
0.00193292
-0.0264053
0.0285795
-0.000608678
0.000191513
0.000417165
-0.0790282
0.0766376
0.00239058
-0.00607942
0.00518734
-0.40865
0.409542
-0.00195844
-0.00139766
-0.569693
0.573049
0.00560229
-0.0107733
-0.698641
0.703812
0.0168217
-0.0226974
-0.816378
0.822253
0.0289739
-0.0345802
-0.937932
0.943539
0.0405592
-0.0457173
-1.07481
1.07997
0.0508743
-0.0549305
-1.2279
1.23196
0.0583565
-0.0602387
-1.3979
1.39979
0.0605398
-0.0585157
-1.58503
1.58301
0.0546058
-0.0487102
-1.50524
1.49935
0.042344
-0.0347788
-1.20862
1.20105
0.0276455
-0.0198211
-0.984748
0.976924
0.0127293
-0.00507525
-0.805299
0.797645
-0.00172211
0.0082335
-0.63111
0.624599
-0.0128748
0.0159462
-0.43697
0.433898
-0.0163332
0.0142207
-0.248671
0.250784
-0.0114838
0.00813048
-0.109412
0.112766
-0.0051733
0.00237737
-0.0300937
0.0328897
-0.000724194
-0.000699965
0.00142416
-0.0777546
0.0757405
0.00201409
-0.00588344
0.00541914
-0.414916
0.415381
-0.00348609
0.00072695
-0.579026
0.581785
0.00339282
-0.00784009
-0.70928
0.713727
0.0130653
-0.0181996
-0.82734
0.832474
0.0238399
-0.0289447
-0.948838
0.953943
0.0345562
-0.0392285
-1.08492
1.08959
0.0440452
-0.0478488
-1.2358
1.2396
0.0509994
-0.0527097
-1.40145
1.40316
0.0529193
-0.0514003
-1.58097
1.57945
0.0478948
-0.0428975
-1.49328
1.48829
0.0373749
-0.030792
-1.19369
1.1871
0.0247021
-0.0174183
-0.969119
0.961836
0.0105359
-0.00291767
-0.789075
0.781456
-0.00404521
0.010665
-0.615478
0.608858
-0.0149505
0.0174149
-0.427922
0.425458
-0.0171667
0.0147625
-0.249279
0.251683
-0.0118578
0.00832369
-0.114817
0.118351
-0.00523591
0.00243005
-0.0348403
0.0376461
-0.000744714
-0.00185107
0.00259578
-0.0768592
0.0753169
0.00154232
-0.00492975
0.00473643
-0.419691
0.419884
-0.00308001
0.000962977
-0.587254
0.589371
0.00291398
-0.00698752
-0.718547
0.722621
0.0119842
-0.0164582
-0.837232
0.841706
0.0214953
-0.0261277
-0.959063
0.963695
0.0315866
-0.0359671
-1.09435
1.09873
0.0404064
-0.0441324
-1.24328
1.24701
0.0475691
-0.0493016
-1.40495
1.40668
0.0498598
-0.0487257
-1.57773
1.57659
0.046238
-0.0419496
-1.48347
1.47918
0.0374851
-0.0319347
-1.18073
1.17518
0.0263135
-0.0195885
-0.954589
0.947864
0.0127745
-0.00497948
-0.772856
0.765061
-0.00161257
0.00801488
-0.600224
0.593821
-0.0120963
0.0141717
-0.420334
0.418259
-0.0142234
0.0125114
-0.250801
0.252513
-0.0100822
0.00706252
-0.120254
0.123274
-0.00444506
0.00207906
-0.0394031
0.0417691
-0.000648934
-0.00299024
0.00363918
-0.0764923
0.075307
0.00118529
-0.00380319
0.00368815
-0.423608
0.423723
-0.00207286
3.0757e-05
-0.594504
0.596546
0.00365755
-0.00737069
-0.726948
0.730661
0.011712
-0.0160759
-0.846162
0.850526
0.0208144
-0.0256677
-0.968179
0.973032
0.0304906
-0.034762
-1.10326
1.10753
0.0394031
-0.0429715
-1.25065
1.25422
0.0460517
-0.0483477
-1.4084
1.41069
0.0493681
-0.0489157
-1.57572
1.57527
0.0470295
-0.0437219
-1.47535
1.47205
0.0398375
-0.0347261
-1.16945
1.16434
0.0294228
-0.0228026
-0.940828
0.934208
0.0161205
-0.00874278
-0.756787
0.749409
0.00222628
0.00362784
-0.585993
0.580139
-0.00725675
0.00929627
-0.413603
0.411564
-0.00972964
0.00864914
-0.25147
0.252551
-0.00706063
0.00498766
-0.124358
0.126431
-0.00317757
0.00150496
-0.0429451
0.0446177
-0.000485582
-0.00389054
0.00437612
-0.0766741
0.075685
0.000989127
-0.0025169
0.00213168
-0.427221
0.427606
-0.000648176
-0.00147287
-0.601263
0.603384
0.00488722
-0.00852469
-0.734864
0.738501
0.0127448
-0.0167642
-0.854729
0.858748
0.0216831
-0.0258017
-0.977343
0.981462
0.0306412
-0.0347754
-1.11198
1.11612
0.0393331
-0.0431296
-1.25779
1.26158
0.0465811
-0.0487931
-1.41282
1.41503
0.0503576
-0.050513
-1.57489
1.57504
0.0494189
-0.0464481
-1.4687
1.46573
0.0428951
-0.0379808
-1.15926
1.15434
0.0328529
-0.0263864
-0.927193
0.920727
0.0201402
-0.0131731
-0.741513
0.734546
0.00724016
-0.00182525
-0.573183
0.567768
-0.00175669
0.00377884
-0.407131
0.405109
-0.0045793
0.00429078
-0.250968
0.251257
-0.00362151
0.00253114
-0.126636
0.127727
-0.00160568
0.000800848
-0.0450617
0.0458665
-0.000276853
-0.00448066
0.00475752
-0.0771437
0.0764549
0.000688855
-0.00140458
0.00055144
-0.430965
0.431818
0.000761049
-0.00304902
-0.607352
0.60964
0.00620977
-0.00977689
-0.742351
0.745918
0.0138743
-0.0180663
-0.862675
0.866867
0.0224178
-0.0267269
-0.985813
0.990123
0.0315425
-0.0354722
-1.12068
1.12461
0.0401313
-0.0439112
-1.2652
1.26898
0.0474747
-0.0502952
-1.4177
1.42052
0.0524497
-0.0529401
-1.57529
1.57578
0.0520267
-0.0495879
-1.46288
1.46044
0.0463448
-0.0415431
-1.14918
1.14437
0.0365244
-0.0306138
-0.914094
0.908183
0.0245288
-0.0183969
-0.727261
0.721129
0.0131073
-0.00811219
-0.561767
0.556772
0.00474331
-0.00223943
-0.400543
0.398039
0.000893775
-0.000170865
-0.249153
0.24843
-0.000114638
0.000206298
-0.126912
0.12682
-0.00027329
0.000240256
-0.0456085
0.0456415
-0.000133186
-0.00468637
0.00481955
-0.0780006
0.0774682
0.000532369
-0.000484802
-0.000299966
-0.434954
0.435739
0.00218037
-0.00433851
-0.613585
0.615743
0.00772413
-0.0112081
-0.749435
0.752919
0.0151948
-0.0190257
-0.870773
0.874604
0.0235304
-0.0275377
-0.994445
0.998452
0.0322953
-0.0366506
-1.12899
1.13334
0.0409505
-0.045069
-1.27281
1.27693
0.0490914
-0.0520496
-1.42327
1.42623
0.0545967
-0.0557961
-1.57649
1.57769
0.0551793
-0.053124
-1.45777
1.45572
0.049874
-0.0453563
-1.13949
1.13497
0.040707
-0.0350969
-0.901852
0.896242
0.0296649
-0.0240448
-0.714505
0.708885
0.0192084
-0.0144009
-0.551133
0.546325
0.0108372
-0.00793415
-0.3936
0.390697
0.00579711
-0.00414535
-0.245552
0.2439
0.00285703
-0.0016771
-0.125071
0.123892
0.000801588
-0.000178469
-0.0446508
0.0440276
-4.17847e-05
-0.0045111
0.00455288
-0.0791188
0.0787557
0.00036312
0.000520283
-0.00148202
-0.439062
0.440024
0.00322954
-0.00569196
-0.619465
0.621927
0.00904679
-0.0124067
-0.75635
0.759709
0.0165046
-0.0202111
-0.878444
0.88215
0.0245708
-0.0286924
-1.00294
1.00706
0.0333432
-0.0376488
-1.13755
1.14185
0.042163
-0.0463222
-1.28098
1.28514
0.0505501
-0.0542612
-1.42949
1.4332
0.057216
-0.0586086
-1.57879
1.58018
0.0584983
-0.0565587
-1.45344
1.4515
0.0537087
-0.0496302
-1.13032
1.12624
0.0450772
-0.0398617
-0.890369
0.885154
0.0348658
-0.0295293
-0.702893
0.697557
0.0250357
-0.0202525
-0.541149
0.536366
0.0165199
-0.0129634
-0.38604
0.382483
0.0102506
-0.00770344
-0.240204
0.237657
0.00544193
-0.00333039
-0.121244
0.119132
0.00177032
-0.000614675
-0.0424514
0.0412957
8.30471e-05
-0.00412822
0.00404517
-0.0804457
0.0802003