/*--------------------------------*- C++ -*----------------------------------*\
  =========                 |
  \\      /  F ield         | OpenFOAM: The Open Source CFD Toolbox
   \\    /   O peration     | Website:  https://openfoam.org
    \\  /    A nd           | Version:  6
     \\/     M anipulation  |
\*---------------------------------------------------------------------------*/
FoamFile
{
    version     2.0;
    format      ascii;
    class       volScalarField;
    location    "93.7";
    object      p;
}
// * * * * * * * * * * * * * * * * * * * * * * * * * * * * * * * * * * * * * //

dimensions      [0 2 -2 0 0 0 0];

internalField   nonuniform List<scalar> 
8800
(
0.855439
0.806125
0.768161
0.740094
0.719936
0.705354
0.694763
0.687233
0.682361
0.68031
0.681701
0.686061
0.692868
0.702303
0.715047
0.732374
0.756255
0.789355
0.832294
0.884809
0.689927
0.696273
0.705425
0.708975
0.70637
0.700286
0.693351
0.687118
0.682329
0.679476
0.679266
0.681914
0.686573
0.692714
0.699824
0.706865
0.711749
0.711629
0.704958
0.696062
0.663433
0.669669
0.674172
0.678046
0.680999
0.681954
0.680874
0.678765
0.6768
0.675982
0.677038
0.679513
0.682416
0.6847
0.685231
0.683451
0.680091
0.676083
0.671306
0.66759
0.659116
0.661883
0.664492
0.666654
0.668397
0.669973
0.671086
0.671452
0.671358
0.671481
0.672314
0.673482
0.674245
0.674111
0.67315
0.671806
0.670144
0.667849
0.665442
0.663876
0.654038
0.655464
0.657307
0.659394
0.661113
0.662415
0.663526
0.664523
0.665355
0.666122
0.666867
0.667358
0.667408
0.667066
0.666415
0.665314
0.663669
0.661783
0.660434
0.659631
0.64902
0.649923
0.651174
0.652808
0.65451
0.656054
0.657354
0.658497
0.65959
0.660645
0.661474
0.661902
0.661945
0.661604
0.660823
0.659653
0.658306
0.657051
0.656235
0.655711
0.644075
0.644732
0.645698
0.647023
0.648482
0.650013
0.651518
0.652908
0.654206
0.655458
0.656463
0.657007
0.657067
0.656665
0.655912
0.654993
0.654021
0.65313
0.652556
0.652171
0.639201
0.639707
0.640498
0.641648
0.642963
0.644398
0.645932
0.647506
0.649062
0.650576
0.651798
0.65247
0.652603
0.652327
0.6518
0.651142
0.65043
0.649784
0.649364
0.649063
0.634341
0.634743
0.635409
0.636442
0.63769
0.639078
0.640614
0.642295
0.64408
0.645898
0.647398
0.648285
0.648629
0.648598
0.648326
0.647898
0.6474
0.646953
0.646645
0.646401
0.629412
0.629739
0.630319
0.631277
0.632485
0.633869
0.635451
0.637247
0.639248
0.641391
0.643253
0.644474
0.64513
0.645386
0.645369
0.645185
0.644895
0.644614
0.644391
0.644185
0.624322
0.624593
0.625114
0.626031
0.627229
0.628651
0.630323
0.63228
0.634539
0.637061
0.639377
0.641027
0.64206
0.642641
0.642906
0.642969
0.64289
0.64276
0.642606
0.642427
0.618978
0.619206
0.619691
0.620596
0.621826
0.623329
0.625136
0.627312
0.629902
0.632896
0.635763
0.637927
0.639401
0.640358
0.64094
0.641258
0.641403
0.641415
0.641318
0.641158
0.613282
0.613476
0.613944
0.614867
0.616171
0.6178
0.619799
0.622266
0.625278
0.628856
0.632392
0.635168
0.63716
0.638549
0.639494
0.640112
0.640482
0.640625
0.640577
0.640428
0.607125
0.607292
0.607759
0.60873
0.610148
0.611956
0.614217
0.61706
0.620598
0.624892
0.629238
0.632748
0.635353
0.637246
0.638609
0.639565
0.640178
0.640454
0.640447
0.640305
0.600378
0.600522
0.601005
0.602052
0.603629
0.605678
0.60828
0.611598
0.61579
0.62096
0.626283
0.630671
0.634005
0.636492
0.638332
0.639672
0.640564
0.640977
0.641008
0.640869
0.592892
0.593012
0.593523
0.594678
0.596466
0.598826
0.601861
0.605776
0.610775
0.617009
0.62351
0.628944
0.63314
0.636331
0.63874
0.640528
0.64173
0.642286
0.642351
0.64221
0.584472
0.584576
0.585121
0.586416
0.588475
0.591231
0.594811
0.599467
0.605461
0.612989
0.620903
0.627581
0.632794
0.636813
0.639907
0.642219
0.64377
0.644475
0.644571
0.644424
0.574833
0.574937
0.575552
0.577019
0.57943
0.582685
0.586948
0.592528
0.599745
0.608846
0.618448
0.6266
0.633013
0.638006
0.641904
0.64483
0.646776
0.647638
0.64776
0.647602
0.563678
0.56376
0.564459
0.566182
0.569038
0.572928
0.578052
0.584788
0.593514
0.604523
0.616139
0.62602
0.633838
0.639977
0.644801
0.648451
0.650833
0.651851
0.651993
0.651821
0.550589
0.550658
0.551468
0.553504
0.556926
0.561632
0.567856
0.576048
0.586645
0.599968
0.613974
0.62587
0.63531
0.642777
0.648682
0.65315
0.655999
0.657165
0.657314
0.657126
0.534973
0.535033
0.535995
0.538452
0.542618
0.548389
0.556038
0.566088
0.57902
0.595146
0.611962
0.626183
0.637468
0.646451
0.653579
0.658956
0.662284
0.663573
0.663715
0.663508
0.515991
0.516047
0.517233
0.520284
0.525467
0.532676
0.542217
0.55468
0.570544
0.590056
0.610139
0.626991
0.640348
0.651022
0.659495
0.665856
0.669632
0.670993
0.671109
0.670881
0.492418
0.49248
0.494018
0.497964
0.50461
0.513837
0.525975
0.541625
0.561184
0.584754
0.608572
0.628339
0.643968
0.656487
0.666406
0.673753
0.677884
0.679242
0.679308
0.679063
0.462331
0.462423
0.464576
0.469976
0.478917
0.491125
0.50694
0.526837
0.551016
0.579367
0.607372
0.630293
0.648339
0.662797
0.674231
0.682463
0.686773
0.688023
0.688019
0.687764
0.422475
0.422707
0.42613
0.434217
0.447043
0.463891
0.484964
0.510454
0.540282
0.57412
0.606693
0.632941
0.653471
0.669899
0.682805
0.69169
0.695916
0.696943
0.696856
0.696601
0.366646
0.367819
0.374668
0.388368
0.407994
0.432031
0.460399
0.492953
0.52941
0.569315
0.606709
0.636364
0.65937
0.677693
0.691886
0.701041
0.704844
0.705559
0.705399
0.705155
0.285852
0.29379
0.309577
0.333592
0.363395
0.397058
0.434293
0.474911
0.518653
0.565094
0.607614
0.640907
0.66659
0.686934
0.702097
0.7111
0.714265
0.714666
0.714465
0.714263
0.199737
0.217143
0.242793
0.277888
0.318418
0.361823
0.407901
0.456643
0.507897
0.561329
0.609627
0.647157
0.676039
0.69858
0.714534
0.722677
0.724887
0.725003
0.724834
0.72471
0.125794
0.147095
0.180976
0.225554
0.275579
0.328156
0.382831
0.439526
0.498065
0.558111
0.611696
0.65298
0.684593
0.708842
0.72491
0.731927
0.733428
0.733444
0.733314
0.733225
0.065053
0.0887245
0.128252
0.179637
0.237061
0.297278
0.359509
0.42346
0.488757
0.554944
0.613357
0.657968
0.691861
0.717356
0.733317
0.73958
0.740741
0.740722
0.740614
0.740536
0.014597
0.0396939
0.0833038
0.139968
0.203299
0.269772
0.338399
0.408711
0.480097
0.551905
0.614736
0.66235
0.698234
0.724738
0.740551
0.746251
0.747218
0.747185
0.747088
0.747011
-0.0281851
-0.00225426
0.0443677
0.105301
0.173585
0.24538
0.319521
0.395427
0.472296
0.549246
0.61614
0.666457
0.704063
0.73134
0.746924
0.752208
0.753077
0.753053
0.752968
0.752886
-0.0653712
-0.038903
0.010062
0.0745323
0.147049
0.223487
0.302526
0.383478
0.465377
0.547108
0.617776
0.670549
0.709612
0.737412
0.752706
0.757683
0.758518
0.758529
0.758468
0.758382
-0.0984849
-0.0716087
-0.0207252
0.0467626
0.12296
0.203494
0.286958
0.37256
0.45917
0.545458
0.619724
0.674786
0.715125
0.74327
0.758243
0.762979
0.763813
0.763885
0.76387
0.763785
-0.128592
-0.101356
-0.0488505
0.0212762
0.100728
0.18492
0.272408
0.362338
0.453445
0.544156
0.621972
0.679271
0.720818
0.749258
0.763933
0.768463
0.769303
0.769446
0.76949
0.769416
-0.156539
-0.128934
-0.0749828
-0.00246711
0.0798852
0.167373
0.258547
0.352527
0.447957
0.543044
0.624467
0.684066
0.726869
0.755636
0.770088
0.774461
0.775301
0.775496
0.775593
0.775534
-0.182762
-0.154823
-0.0995513
-0.0248952
0.0600686
0.150543
0.245111
0.342894
0.442497
0.541982
0.627139
0.68919
0.733347
0.762553
0.776874
0.781124
0.781927
0.782138
0.78227
0.782227
-0.207779
-0.179426
-0.122935
-0.0463261
0.0409989
0.13419
0.231894
0.333253
0.436887
0.540803
0.629906
0.694611
0.740253
0.769984
0.784231
0.788373
0.789103
0.789293
0.789432
0.789404
-0.231761
-0.202992
-0.145357
-0.0669792
0.0224771
0.118148
0.218741
0.323455
0.430976
0.539353
0.63265
0.700261
0.747512
0.777798
0.79199
0.795994
0.796619
0.796753
0.796877
0.796864
-0.254893
-0.225686
-0.166989
-0.0869969
0.00438578
0.102304
0.205546
0.313384
0.42463
0.537471
0.635218
0.706081
0.755085
0.785869
0.79992
0.803699
0.804193
0.804251
0.804341
0.804348
-0.277308
-0.247628
-0.187926
-0.106462
-0.01336
0.0865899
0.192245
0.302974
0.417746
0.535001
0.637451
0.711986
0.762983
0.79416
0.807797
0.811232
0.811558
0.81154
0.811593
0.811599
-0.299107
-0.268906
-0.208215
-0.125421
-0.0307859
0.0709724
0.178813
0.292183
0.410254
0.531807
0.639173
0.717875
0.771266
0.802756
0.815604
0.818393
0.818499
0.81844
0.818466
0.818462
-0.320196
-0.289503
-0.227867
-0.143903
-0.0479076
0.055463
0.165244
0.281008
0.402121
0.527794
0.640198
0.723603
0.779994
0.811972
0.823592
0.825183
0.824867
0.824829
0.82492
0.824912
-0.340582
-0.309419
-0.246909
-0.161904
-0.0647101
0.0400766
0.151577
0.269464
0.393347
0.522882
0.640351
0.728978
0.78918
0.822192
0.832408
0.832065
0.830704
0.830695
0.831166
0.831293
-0.360344
-0.328653
-0.265351
-0.179422
-0.0811625
0.02486
0.137861
0.257601
0.383952
0.517036
0.639455
0.733754
0.798678
0.833724
0.843056
0.840333
0.836904
0.836496
0.837846
0.83881
-0.379364
-0.347196
-0.283162
-0.196414
-0.0972337
0.00986978
0.124158
0.245486
0.373995
0.510268
0.637364
0.737635
0.808176
0.84649
0.85629
0.851938
0.845904
0.843404
0.844087
0.844951
-0.397737
-0.365082
-0.300359
-0.212929
-0.112972
-0.00494422
0.110409
0.233054
0.363396
0.502495
0.633893
0.740329
0.817406
0.860166
0.872159
0.868079
0.860071
0.852212
0.843818
0.846297
-0.415406
-0.382375
-0.317087
-0.229163
-0.12867
-0.0199006
0.0962157
0.21985
0.351657
0.49316
0.628491
0.741222
0.826185
0.874637
0.889956
0.888042
0.877846
0.862935
0.841098
0.842996
-0.43226
-0.399064
-0.3332
-0.244939
-0.144078
-0.0347149
0.0817573
0.206158
0.33901
0.482395
0.620993
0.739274
0.833162
0.888284
0.905554
0.904076
0.891759
0.860764
0.804362
0.780827
-0.448198
-0.416153
-0.348306
-0.259826
-0.158397
-0.0489006
0.0673132
0.192251
0.325726
0.470343
0.611355
0.733682
0.836676
0.899284
0.913243
0.906072
0.880778
0.823005
0.760356
0.72255
-0.490028
-0.432999
-0.362106
-0.274781
-0.172397
-0.0634566
0.0530306
0.177992
0.311571
0.456592
0.599016
0.723517
0.832727
0.902255
0.90857
0.880506
0.819512
0.746788
0.675485
0.636114
-0.463904
-0.445208
-0.383044
-0.295063
-0.194151
-0.0853618
0.0305597
0.155119
0.288233
0.432673
0.574983
0.699578
0.802422
0.879429
0.850715
0.72664
0.626522
0.556987
0.489249
0.511281
-0.493745
-0.461947
-0.398908
-0.311376
-0.210829
-0.102145
0.0140579
0.138103
0.270434
0.413532
0.553837
0.67541
0.767016
0.810045
0.74438
0.591936
0.473892
0.39425
0.308591
0.348616
-0.516603
-0.4825
-0.417775
-0.330196
-0.229693
-0.120985
-0.00482802
0.118529
0.249661
0.390626
0.527343
0.642967
0.722348
0.72721
0.606375
0.440883
0.304129
0.205634
0.107094
0.13336
-0.538698
-0.503625
-0.437602
-0.349405
-0.248832
-0.140225
-0.0245514
0.0979039
0.227535
0.36581
0.497625
0.603994
0.66572
0.636657
0.465281
0.280057
0.114268
-0.0240288
-0.151478
-0.144154
-0.56043
-0.525043
-0.458182
-0.369441
-0.268759
-0.160379
-0.0453645
0.07599
0.20375
0.33877
0.464534
0.561232
0.601497
0.5225
0.325919
0.122179
-0.0688672
-0.225889
-0.432192
-0.512307
-0.582489
-0.547231
-0.479912
-0.390815
-0.290021
-0.181854
-0.0674673
0.0526983
0.178373
0.309708
0.428666
0.5158
0.527656
0.397464
0.198228
-0.0161782
-0.211551
-0.374627
-0.498441
-0.613332
-0.605938
-0.570666
-0.503148
-0.41391
-0.313154
-0.205325
-0.0916967
0.0270512
0.15021
0.277135
0.388541
0.462239
0.444805
0.278542
0.0784302
-0.129609
-0.30826
-0.406839
-0.432884
-0.446097
-0.630913
-0.595643
-0.528017
-0.438813
-0.338305
-0.231017
-0.118435
-0.00147653
0.118623
0.240235
0.343539
0.397885
0.360232
0.164075
-0.0336574
-0.221332
-0.356484
-0.394953
-0.403551
-0.403883
-0.657703
-0.622292
-0.554562
-0.465514
-0.365426
-0.258947
-0.147719
-0.0329575
0.0835254
0.199003
0.293329
0.329789
0.257586
0.0590175
-0.131941
-0.295028
-0.371013
-0.385152
-0.386192
-0.386059
-0.686312
-0.650644
-0.582808
-0.494018
-0.394542
-0.289117
-0.17957
-0.0674255
0.0449229
0.153561
0.237549
0.257805
0.146289
-0.0367559
-0.216694
-0.345813
-0.375266
-0.375952
-0.376567
-0.376172
-0.716493
-0.680546
-0.612664
-0.524254
-0.425579
-0.321487
-0.21398
-0.104871
0.00286597
0.104031
0.177521
0.177944
0.0481009
-0.124209
-0.283029
-0.35738
-0.372347
-0.370645
-0.37043
-0.370075
-0.747695
-0.711651
-0.643872
-0.555999
-0.458358
-0.355909
-0.250808
-0.145182
-0.0424268
0.0508709
0.113655
0.0975369
-0.0416101
-0.200828
-0.327914
-0.366556
-0.365976
-0.366139
-0.365906
-0.365622
-0.779476
-0.743431
-0.67595
-0.588841
-0.492533
-0.392065
-0.289774
-0.188083
-0.0906558
-0.00493954
0.0447928
0.0217894
-0.121921
-0.261572
-0.355025
-0.363016
-0.363749
-0.363621
-0.363361
-0.36311
-0.810866
-0.775019
-0.708178
-0.622149
-0.527552
-0.429476
-0.330409
-0.233079
-0.141388
-0.0625419
-0.023859
-0.0538497
-0.189873
-0.304231
-0.361569
-0.371065
-0.364616
-0.363109
-0.36252
-0.362188
-0.840157
-0.805142
-0.739519
-0.655039
-0.562637
-0.467431
-0.372037
-0.279421
-0.19384
-0.121421
-0.0873261
-0.131436
-0.244609
-0.336199
-0.359541
-0.362671
-0.36348
-0.362943
-0.362599
-0.362373
-0.866165
-0.832292
-0.76858
-0.68631
-0.596724
-0.504984
-0.413772
-0.326179
-0.246749
-0.181063
-0.149225
-0.198176
-0.286359
-0.352666
-0.374146
-0.365353
-0.362891
-0.362209
-0.362041
-0.361977
-0.886242
-0.854378
-0.793608
-0.71444
-0.628498
-0.540945
-0.454498
-0.372278
-0.298793
-0.239719
-0.210661
-0.250257
-0.315155
-0.357802
-0.362707
-0.363344
-0.361922
-0.361519
-0.361472
-0.361399
-0.898356
-0.8693
-0.812537
-0.73769
-0.656431
-0.573928
-0.492895
-0.416446
-0.348892
-0.29477
-0.266742
-0.294016
-0.334744
-0.366211
-0.362455
-0.363166
-0.363187
-0.362651
-0.362353
-0.362166
-0.899822
-0.874688
-0.823275
-0.754217
-0.678888
-0.60247
-0.527537
-0.457203
-0.395841
-0.345415
-0.313064
-0.332394
-0.345168
-0.374381
-0.370063
-0.364797
-0.363651
-0.363152
-0.362884
-0.362726
-0.888295
-0.867939
-0.823692
-0.762281
-0.694401
-0.625195
-0.557091
-0.493078
-0.43778
-0.3927
-0.347857
-0.363633
-0.342464
-0.347053
-0.355341
-0.358497
-0.360906
-0.362286
-0.362829
-0.362959
-0.861553
-0.846675
-0.811944
-0.760661
-0.701922
-0.641102
-0.580566
-0.522935
-0.472988
-0.435397
-0.387163
-0.377718
-0.354215
-0.332258
-0.34114
-0.356799
-0.363653
-0.366868
-0.368355
-0.368883
-0.82305
-0.813567
-0.789221
-0.749632
-0.70147
-0.649945
-0.597391
-0.546208
-0.5011
-0.469171
-0.437185
-0.413062
-0.397405
-0.406415
-0.415272
-0.402115
-0.391456
-0.387918
-0.387876
-0.38796
-0.779826
-0.774424
-0.76045
-0.732284
-0.695132
-0.652586
-0.607633
-0.562674
-0.521339
-0.491242
-0.46392
-0.4494
-0.443101
-0.455651
-0.427793
-0.407512
-0.409096
-0.413137
-0.413788
-0.41314
-0.741726
-0.738432
-0.731788
-0.713926
-0.685786
-0.650826
-0.612364
-0.572078
-0.533116
-0.501428
-0.475724
-0.45919
-0.443973
-0.43447
-0.439222
-0.458728
-0.465093
-0.451291
-0.442877
-0.445377
-0.714299
-0.712347
-0.708963
-0.698432
-0.677098
-0.647762
-0.613419
-0.575532
-0.53652
-0.500978
-0.475282
-0.454588
-0.456975
-0.49325
-0.550713
-0.613778
-0.637188
-0.612719
-0.566877
-0.553344
-0.69419
-0.693498
-0.69235
-0.687157
-0.671594
-0.645921
-0.612914
-0.574872
-0.533063
-0.491371
-0.460813
-0.43437
-0.421993
-0.445945
-0.497998
-0.511869
-0.506983
-0.493891
-0.468244
-0.454605
-0.682498
-0.682267
-0.681647
-0.679228
-0.668684
-0.645156
-0.611895
-0.571873
-0.525665
-0.47443
-0.431195
-0.376608
-0.311685
-0.267667
-0.256161
-0.253842
-0.238432
-0.211164
-0.184721
-0.17071
-0.67449
-0.674339
-0.673924
-0.673219
-0.666797
-0.645645
-0.61124
-0.567932
-0.515782
-0.453124
-0.390024
-0.307058
-0.188279
-0.0531415
0.054925
0.128192
0.199576
0.264221
0.312235
0.334638
-0.669348
-0.669301
-0.669169
-0.669005
-0.665157
-0.647349
-0.612144
-0.564491
-0.506402
-0.433712
-0.350701
-0.253048
-0.0820906
0.154083
0.40727
0.627084
0.792093
0.895407
0.951484
0.972015
-0.665252
-0.665256
-0.665203
-0.665105
-0.663748
-0.649791
-0.614252
-0.562607
-0.499997
-0.41877
-0.322998
-0.219243
-0.0187296
0.279166
0.614809
0.928347
1.17104
1.30928
1.36292
1.37576
-0.66174
-0.661821
-0.661861
-0.661817
-0.661708
-0.651847
-0.617587
-0.564746
-0.497851
-0.412107
-0.310985
-0.204513
-0.0204233
0.27193
0.597971
0.905211
1.15131
1.28887
1.33609
1.34532
-0.658978
-0.659046
-0.659037
-0.658948
-0.659371
-0.652485
-0.622318
-0.57037
-0.501292
-0.414667
-0.31535
-0.216584
-0.0656067
0.187611
0.459194
0.702618
0.893635
1.00005
1.03866
1.04727
-0.657119
-0.657108
-0.656869
-0.656238
-0.655282
-0.651951
-0.628282
-0.57949
-0.510328
-0.425094
-0.333082
-0.245492
-0.128139
0.0763469
0.287911
0.462056
0.594613
0.670628
0.700812
0.708943
-0.658355
-0.658359
-0.657924
-0.6566
-0.654472
-0.653452
-0.638089
-0.591709
-0.522848
-0.441934
-0.360347
-0.284613
-0.199488
-0.0437835
0.122525
0.253573
0.351382
0.40914
0.433162
0.439296
-0.662998
-0.663515
-0.664818
-0.667498
-0.67054
-0.671239
-0.656823
-0.606336
-0.537364
-0.464592
-0.391537
-0.326046
-0.261889
-0.144914
-0.0157748
0.0858451
0.162041
0.209183
0.227407
0.23114
-0.666332
-0.667629
-0.672147
-0.684029
-0.701329
-0.707233
-0.680457
-0.61919
-0.553426
-0.490338
-0.423298
-0.366209
-0.320401
-0.22833
-0.125652
-0.0464774
0.0130711
0.049737
0.0630186
0.0648846
-0.671328
-0.672465
-0.676534
-0.686767
-0.704363
-0.712105
-0.678261
-0.620988
-0.571369
-0.516126
-0.451487
-0.403362
-0.368711
-0.299291
-0.218316
-0.156303
-0.109636
-0.0821746
-0.0726625
-0.0720762
-0.687408
-0.688153
-0.689129
-0.679328
-0.652026
-0.631286
-0.624493
-0.610184
-0.587673
-0.535673
-0.475238
-0.434783
-0.405674
-0.348139
-0.286116
-0.241081
-0.207791
-0.188259
-0.181982
-0.181852
-0.709606
-0.709456
-0.706723
-0.678304
-0.609555
-0.551823
-0.568706
-0.608596
-0.602374
-0.550627
-0.496183
-0.459707
-0.433687
-0.387853
-0.339913
-0.306821
-0.283749
-0.271432
-0.26756
-0.267881
-0.738212
-0.735396
-0.732907
-0.71847
-0.680992
-0.640081
-0.641213
-0.663343
-0.635153
-0.56771
-0.514187
-0.478606
-0.450202
-0.412345
-0.377438
-0.354446
-0.33814
-0.330452
-0.328183
-0.328346
-0.815057
-0.816967
-0.843976
-0.884574
-0.90494
-0.885844
-0.847628
-0.785724
-0.688763
-0.591407
-0.532015
-0.490986
-0.460609
-0.42705
-0.39702
-0.378374
-0.366978
-0.36215
-0.359902
-0.359931
-0.950067
-0.965699
-1.01113
-1.06376
-1.08968
-1.07554
-1.01352
-0.89444
-0.735825
-0.613019
-0.543839
-0.493344
-0.463316
-0.433865
-0.404032
-0.38428
-0.372705
-0.366121
-0.36343
-0.363548
-1.04275
-1.0607
-1.09711
-1.13372
-1.15507
-1.14057
-1.07008
-0.912022
-0.733934
-0.614258
-0.535156
-0.483387
-0.459344
-0.428039
-0.395992
-0.373421
-0.358298
-0.349464
-0.346355
-0.34674
-1.01842
-1.03037
-1.05514
-1.08248
-1.10107
-1.09032
-1.01958
-0.847785
-0.690587
-0.581313
-0.498982
-0.462173
-0.442827
-0.408826
-0.374338
-0.349376
-0.331277
-0.321074
-0.318092
-0.318889
-0.87079
-0.882212
-0.903858
-0.929888
-0.950291
-0.943173
-0.874
-0.735318
-0.615788
-0.513441
-0.449489
-0.426205
-0.407836
-0.376242
-0.344565
-0.319853
-0.301093
-0.291467
-0.289048
-0.290011
-0.63368
-0.645494
-0.668493
-0.698128
-0.723533
-0.722689
-0.66772
-0.583136
-0.499918
-0.426605
-0.392115
-0.369633
-0.358075
-0.331569
-0.30375
-0.283866
-0.270253
-0.263809
-0.262263
-0.263043
-0.354232
-0.364119
-0.385066
-0.415805
-0.446859
-0.460014
-0.442886
-0.409347
-0.368477
-0.337742
-0.314694
-0.300755
-0.297181
-0.274043
-0.254824
-0.243063
-0.235213
-0.231795
-0.230961
-0.231508
-0.112048
-0.118905
-0.135838
-0.164483
-0.200952
-0.234462
-0.255215
-0.261132
-0.253611
-0.243058
-0.229408
-0.226882
-0.222273
-0.207278
-0.198172
-0.192946
-0.190142
-0.189225
-0.188876
-0.189255
0.0294881
0.0245721
0.0112078
-0.0140902
-0.0500848
-0.0918237
-0.12847
-0.149901
-0.156456
-0.155874
-0.153142
-0.147579
-0.142743
-0.139087
-0.136435
-0.135282
-0.134701
-0.134613
-0.134776
-0.135265
0.0664398
0.0627167
0.0529406
0.0343691
0.00725993
-0.0226163
-0.0495427
-0.0686579
-0.0785533
-0.0816479
-0.0800386
-0.0737809
-0.072161
-0.0720791
-0.0731518
-0.0741619
-0.0738956
-0.073914
-0.0744995
-0.0751602
0.0272392
0.0262706
0.0242013
0.0187861
0.0107798
0.00168412
-0.00588624
-0.0113748
-0.0149119
-0.0160675
-0.0159668
-0.0151353
-0.0121752
-0.0130161
-0.0140253
-0.0163299
-0.017833
-0.018289
-0.0170775
-0.0164932
-0.0176671
0.167554
0.336998
0.479739
0.592693
0.680496
0.752654
0.811073
0.825186
0.822149
0.263898
0.382186
0.492724
0.587892
0.667327
0.732377
0.783403
0.817864
0.836364
0.853246
0.4542
0.532668
0.610107
0.677824
0.73528
0.782801
0.82027
0.849009
0.87072
0.889995
0.59493
0.650734
0.706801
0.757025
0.800323
0.837178
0.86819
0.894276
0.914226
0.933134
0.708853
0.750882
0.792568
0.831608
0.866523
0.897449
0.924545
0.947577
0.965357
0.983446
0.803944
0.838863
0.873234
0.90621
0.93665
0.964264
0.988703
1.00928
1.0249
1.04238
0.890966
0.92246
0.954198
0.984927
1.01353
1.03957
1.06243
1.08118
1.09498
1.11198
0.97707
1.00937
1.04148
1.07241
1.10096
1.12655
1.1485
1.1659
1.17819
1.1947
1.07096
1.10729
1.1419
1.17419
1.2032
1.22841
1.2494
1.2656
1.27714
1.29326
1.18382
1.22454
1.26141
1.29416
1.3225
1.34638
1.36592
1.38113
1.39297
1.40903
1.32527
1.36616
1.40132
1.43077
1.45588
1.47743
1.49588
1.51133
1.52441
1.54035
1.49659
1.5286
1.55554
1.57788
1.59793
1.61662
1.63434
1.65109
1.66598
1.68169
1.68267
1.69987
1.71696
1.73363
1.74972
1.76445
1.77834
1.79281
1.80803
1.82533
1.86605
1.87597
1.88913
1.90011
1.90952
1.91917
1.92977
1.93993
1.94922
1.97488
2.08386
2.07815
2.0652
2.05095
2.04464
2.05034
2.06848
2.097
2.13076
2.16709
2.38667
2.25073
2.17122
2.12867
2.11133
2.11532
2.14275
2.20061
2.30827
2.48667
0.75913
0.752829
0.745101
0.733991
0.720426
0.707786
0.697402
0.689411
0.683722
0.680431
0.680134
0.683018
0.688293
0.695682
0.705254
0.7171
0.730674
0.743611
0.752606
0.76015
0.668185
0.674105
0.682181
0.688319
0.691395
0.690893
0.687822
0.683849
0.680291
0.678051
0.677974
0.680284
0.684085
0.688565
0.692692
0.694956
0.693895
0.689269
0.68222
0.674389
0.661411
0.663784
0.667056
0.669835
0.672295
0.674496
0.675693
0.675571
0.674669
0.673911
0.674191
0.675671
0.677505
0.678774
0.678729
0.677285
0.675143
0.672794
0.66982
0.666806
0.656589
0.657677
0.659599
0.661945
0.663828
0.665242
0.666481
0.667502
0.668143
0.668579
0.669209
0.670029
0.670558
0.670487
0.669895
0.669
0.667689
0.665735
0.663638
0.662164
0.651521
0.652155
0.653289
0.655056
0.656914
0.658526
0.659802
0.660901
0.661931
0.662898
0.663774
0.664386
0.664597
0.664448
0.663955
0.663015
0.661613
0.660023
0.658698
0.657899
0.64654
0.646979
0.647773
0.649089
0.650628
0.652214
0.653723
0.65506
0.656273
0.657442
0.658502
0.659214
0.659482
0.659317
0.658707
0.657751
0.65663
0.65551
0.654621
0.65409
0.641635
0.641962
0.64258
0.643664
0.644981
0.646408
0.647923
0.649447
0.650908
0.652308
0.653584
0.654462
0.654798
0.65464
0.654111
0.653381
0.652576
0.651751
0.651107
0.650719
0.636778
0.637031
0.637531
0.638459
0.639657
0.640999
0.642465
0.644053
0.645714
0.647393
0.648944
0.650023
0.6505
0.650509
0.650212
0.649734
0.649152
0.648562
0.648101
0.647805
0.631894
0.632095
0.632512
0.633333
0.634459
0.635761
0.637222
0.638867
0.640687
0.642635
0.644513
0.645891
0.646636
0.646915
0.646881
0.646646
0.646284
0.645896
0.645578
0.645346
0.626897
0.627058
0.627417
0.628168
0.629253
0.630545
0.632048
0.633792
0.635792
0.638028
0.640293
0.642077
0.643188
0.643793
0.644042
0.64406
0.643929
0.643728
0.643529
0.643343
0.621692
0.621821
0.62214
0.62285
0.623925
0.625252
0.626837
0.628728
0.630965
0.633555
0.636294
0.638578
0.640129
0.64111
0.641683
0.641976
0.642078
0.642061
0.641965
0.641816
0.616185
0.616289
0.61658
0.617275
0.618376
0.619782
0.621495
0.623591
0.626138
0.629175
0.632495
0.63538
0.637449
0.638869
0.63981
0.640406
0.640766
0.640931
0.640926
0.640803
0.610273
0.610355
0.610631
0.611335
0.612498
0.614026
0.615924
0.618294
0.621239
0.624831
0.628861
0.63247
0.635155
0.637087
0.638452
0.63941
0.640044
0.64039
0.640467
0.640365
0.603838
0.6039
0.604171
0.604907
0.606169
0.607867
0.610015
0.612743
0.616188
0.620466
0.625359
0.629837
0.633258
0.635794
0.637649
0.639011
0.639959
0.640503
0.64066
0.640574
0.59674
0.596782
0.597056
0.597847
0.599247
0.601171
0.603645
0.606827
0.610897
0.616015
0.621954
0.627476
0.631771
0.635024
0.637459
0.639285
0.640596
0.641355
0.641591
0.641516
0.588821
0.588838
0.589115
0.589984
0.591565
0.59378
0.596668
0.60042
0.605264
0.611413
0.618616
0.625387
0.630717
0.634815
0.63794
0.640324
0.642046
0.643039
0.643352
0.643285
0.579812
0.579822
0.580126
0.581098
0.582914
0.585497
0.588906
0.593371
0.599174
0.606583
0.61531
0.623568
0.630125
0.635217
0.639155
0.642207
0.644402
0.64565
0.64604
0.645976
0.569451
0.569435
0.569781
0.570906
0.573024
0.576077
0.580144
0.585501
0.592493
0.601444
0.612006
0.622026
0.630026
0.63629
0.641185
0.645009
0.647753
0.649277
0.649739
0.649674
0.557379
0.557343
0.557739
0.559052
0.56155
0.565208
0.570112
0.576595
0.585068
0.595908
0.608676
0.620773
0.630454
0.638083
0.644101
0.648812
0.652177
0.653988
0.654514
0.654441
0.543085
0.543026
0.543503
0.54507
0.548056
0.552494
0.558479
0.5664
0.576735
0.589894
0.605301
0.61983
0.631444
0.640635
0.647956
0.653677
0.657719
0.659813
0.660386
0.660298
0.525863
0.525782
0.526388
0.52831
0.53195
0.537427
0.544835
0.554626
0.567326
0.583343
0.601887
0.619222
0.633033
0.643991
0.65276
0.659616
0.664374
0.66672
0.667311
0.6672
0.504697
0.504599
0.505412
0.507854
0.512417
0.519334
0.528683
0.540963
0.556704
0.576241
0.598478
0.618996
0.635257
0.648166
0.658518
0.666606
0.672061
0.674587
0.675155
0.675013
0.478044
0.477948
0.479113
0.482363
0.488331
0.497349
0.509463
0.525138
0.544811
0.568652
0.595169
0.619226
0.638145
0.653157
0.665208
0.674554
0.680599
0.683182
0.683673
0.683497
0.443409
0.443367
0.445165
0.449811
0.458144
0.470489
0.486681
0.507033
0.531749
0.560752
0.592119
0.620018
0.641739
0.658944
0.672739
0.683277
0.689691
0.692155
0.692516
0.692307
0.396355
0.396543
0.399749
0.407341
0.42009
0.437914
0.460183
0.486862
0.517852
0.552852
0.589546
0.621499
0.646094
0.665487
0.680991
0.692508
0.698923
0.701051
0.701245
0.701015
0.328578
0.330044
0.337866
0.35227
0.373183
0.399748
0.430597
0.465325
0.503704
0.545363
0.587689
0.623768
0.651226
0.672709
0.689682
0.701757
0.707725
0.709323
0.709355
0.709133
0.247644
0.250499
0.265742
0.290652
0.322767
0.35964
0.399745
0.442922
0.489059
0.537879
0.586516
0.62747
0.658479
0.682615
0.701125
0.713251
0.718491
0.719626
0.7196
0.719468
0.164706
0.172142
0.195061
0.230457
0.273385
0.320339
0.36969
0.421339
0.475246
0.531183
0.586061
0.631791
0.666221
0.692901
0.712838
0.724519
0.728528
0.729098
0.729027
0.728951
0.0967871
0.106322
0.134106
0.176918
0.2283
0.28377
0.341428
0.400989
0.462262
0.52492
0.585578
0.635597
0.672984
0.701687
0.722335
0.733343
0.736622
0.737017
0.736954
0.736902
0.0410572
0.0513447
0.0828313
0.131129
0.188885
0.251126
0.315727
0.382199
0.450113
0.518943
0.584911
0.63882
0.678805
0.709162
0.730302
0.740797
0.743608
0.743901
0.743849
0.74381
-0.0056419
0.00499355
0.0390192
0.0915778
0.154522
0.222367
0.292805
0.365233
0.439036
0.513459
0.5843
0.641751
0.684057
0.715828
0.737288
0.747318
0.749827
0.750077
0.750034
0.750001
-0.0457608
-0.0349796
0.000931366
0.056896
0.124163
0.196809
0.272329
0.350012
0.429106
0.50865
0.583991
0.644687
0.689036
0.721946
0.743542
0.753162
0.755488
0.755733
0.755714
0.755691
-0.0810171
-0.0701951
-0.0328166
0.0259649
0.0969116
0.173728
0.253762
0.336203
0.42017
0.504499
0.584085
0.647803
0.693978
0.727784
0.749364
0.758617
0.760828
0.761102
0.761131
0.761129
-0.112686
-0.101857
-0.0633142
-0.00211024
0.0720389
0.152534
0.236613
0.32342
0.411948
0.500849
0.584547
0.651176
0.699058
0.733633
0.755127
0.764049
0.766174
0.766493
0.766594
0.766626
-0.141798
-0.130942
-0.0913744
-0.0280222
0.0489783
0.132749
0.220483
0.311317
0.404165
0.497499
0.585275
0.654831
0.704419
0.739753
0.761181
0.769834
0.771873
0.772239
0.772416
0.772493
-0.168939
-0.158043
-0.117559
-0.0522736
0.0272731
0.113988
0.205055
0.299624
0.396567
0.494256
0.586157
0.658764
0.710144
0.746314
0.767768
0.776218
0.778191
0.778574
0.778795
0.778911
-0.1946
-0.183648
-0.142306
-0.0752624
0.00657945
0.0959576
0.190075
0.288119
0.388963
0.490935
0.587084
0.662929
0.716256
0.753379
0.774952
0.783248
0.785139
0.785496
0.785727
0.785872
-0.219174
-0.208077
-0.165931
-0.0972668
-0.0133505
0.0784353
0.175353
0.276632
0.381184
0.487375
0.587923
0.667255
0.722709
0.760846
0.782605
0.790781
0.792569
0.792857
0.793065
0.793213
-0.242801
-0.231533
-0.188621
-0.118482
-0.0326907
0.0612837
0.160759
0.265031
0.373094
0.483419
0.588507
0.671649
0.729447
0.768654
0.790557
0.79857
0.800213
0.800405
0.800565
0.800692
-0.26568
-0.254191
-0.210542
-0.139023
-0.051543
0.0444016
0.146201
0.253231
0.364591
0.478935
0.588674
0.675989
0.736442
0.776746
0.798664
0.806348
0.807788
0.807869
0.807965
0.80807
-0.287819
-0.276125
-0.231768
-0.158957
-0.0699648
0.0277411
0.131642
0.241187
0.35561
0.473799
0.588258
0.680129
0.743677
0.785182
0.80682
0.813916
0.815038
0.815016
0.815057
0.815136
-0.309319
-0.297388
-0.252302
-0.178314
-0.0879877
0.0112823
0.117062
0.228885
0.346117
0.467934
0.587099
0.683901
0.751111
0.794115
0.815242
0.82126
0.821802
0.821673
0.821711
0.82178
-0.330066
-0.317965
-0.272166
-0.197119
-0.10561
-0.00494826
0.102479
0.216334
0.33611
0.461301
0.585056
0.687113
0.758664
0.803766
0.824354
0.828692
0.828074
0.827724
0.827932
0.828109
-0.3502
-0.337858
-0.291368
-0.215384
-0.122833
-0.0209486
0.0879408
0.203565
0.325613
0.453895
0.582015
0.689546
0.766164
0.814261
0.834824
0.837174
0.834504
0.833329
0.833944
0.834699
-0.3696
-0.357025
-0.309919
-0.233087
-0.139603
-0.0366632
0.0734989
0.19066
0.314679
0.445709
0.577902
0.690969
0.773334
0.825507
0.847174
0.848103
0.842899
0.839809
0.840496
0.842508
-0.388368
-0.37554
-0.327786
-0.250192
-0.155908
-0.0520478
0.0592153
0.177669
0.303376
0.43682
0.572685
0.691132
0.779817
0.837095
0.861289
0.862449
0.85558
0.849506
0.845519
0.839503
-0.406404
-0.393399
-0.345059
-0.266869
-0.17197
-0.0673754
0.0447721
0.164216
0.291303
0.4268
0.565966
0.689645
0.785472
0.849147
0.87722
0.880615
0.873702
0.863622
0.850709
0.850644
-0.423696
-0.410685
-0.361758
-0.283074
-0.187787
-0.0826205
0.0301848
0.150264
0.2784
0.415478
0.557468
0.685843
0.789289
0.860752
0.89311
0.899282
0.892258
0.880441
0.844201
0.806535
-0.440059
-0.427263
-0.377856
-0.298687
-0.203371
-0.0977999
0.0154361
0.135926
0.264701
0.402833