/*--------------------------------*- C++ -*----------------------------------*\
  =========                 |
  \\      /  F ield         | OpenFOAM: The Open Source CFD Toolbox
   \\    /   O peration     | Website:  https://openfoam.org
    \\  /    A nd           | Version:  6
     \\/     M anipulation  |
\*---------------------------------------------------------------------------*/
FoamFile
{
    version     2.0;
    format      ascii;
    class       volVectorField;
    location    "67";
    object      U;
}
// * * * * * * * * * * * * * * * * * * * * * * * * * * * * * * * * * * * * * //

dimensions      [0 1 -1 0 0 0 0];

internalField   nonuniform List<vector> 
918
(
(0.985049 -0.000714734 0)
(0.00534217 2.96624 0)
(-0.002192 0.881484 0)
(0.979574 0.00196164 0)
(-0.0137773 2.06459 3.23957e-20)
(-0.00709371 2.94855 -2.60678e-18)
(0.816722 1.11933 4.36979e-19)
(0.131648 0.0733432 -1.4374e-20)
(0.999922 -0.000244473 0)
(0.0904052 0.658449 0)
(0.0128795 0.400047 0)
(0.733087 -0.00149055 0)
(0.010196 2.93159 0)
(0.00339492 2.79441 0)
(-0.00219063 3.18106 8.18292e-19)
(-0.0137993 1.92527 1.90875e-20)
(0.293007 0.0334329 9.94902e-19)
(0.231815 1.10678 3.47504e-19)
(0.96436 0.00674246 0)
(-0.000261253 0.405995 0)
(0.0122663 0.0778477 -6.73348e-19)
(1.00183 -0.0045603 0)
(0.999851 -0.00892727 0)
(0.975166 -0.00605217 0)
(0.593468 0.0253631 0)
(0.0215453 2.64351 0)
(-0.0123325 2.91192 9.56456e-19)
(-0.00573121 0.934272 0)
(-0.0304681 1.16846 0)
(-0.0038097 0.90458 0)
(-0.0225799 2.59486 0)
(-0.00470646 2.11536 -2.58752e-20)
(-0.00977875 1.89815 0)
(-0.0221541 2.9876 -9.40568e-23)
(-0.0164934 3.00551 2.02555e-18)
(0.00230985 3.0006 0)
(0.871911 -0.009748 0)
(0.375797 0.915511 1.69974e-19)
(0.815605 1.13751 -5.41692e-19)
(0.948328 1.00305 5.548e-19)
(0.678654 1.22026 -1.00169e-19)
(0.692052 1.18149 5.72295e-19)
(0.162177 0.133815 1.40225e-20)
(0.154427 0.0716874 0)
(1.16228 0.53061 0)
(0.135417 0.117129 6.36709e-20)
(0.109861 0.0636301 -6.60714e-20)
(0.920545 -0.00704774 0)
(1.00026 5.95118e-05 0)
(0.999908 0.000320193 0)
(1.0037 -0.00728145 0)
(1.00088 -0.000947235 0)
(1.00011 -6.71427e-06 0)
(0.0920121 1.84448 -7.39486e-19)
(0.0328253 0.855578 0)
(0.122734 0.749058 0)
(0.01614 0.800175 0)
(0.0506828 0.577652 0)
(0.00406992 2.02983 0)
(-0.0079641 0.728598 0)
(0.00670457 0.428252 0)
(-0.00677603 0.724849 0)
(0.00734919 0.403386 0)
(0.843452 -0.0156446 0)
(0.840592 0.0298822 0)
(0.760313 -0.00430392 0)
(0.799343 0.0337501 0)
(0.705388 -0.000193135 0)
(0.0139567 3.0002 9.6799e-19)
(0.0111832 3.00597 0)
(0.00627662 3.00389 0)
(0.0118719 2.9971 1.10016e-23)
(0.00827677 2.95872 -1.43867e-18)
(0.0121852 2.9829 0)
(0.00901664 2.90492 0)
(0.0210823 2.93132 2.24144e-24)
(0.00413996 2.82426 0)
(0.0262592 2.91891 0)
(-0.000775256 2.74518 0)
(0.306423 3.57685 0)
(-0.122348 3.65973 0)
(0.149647 3.27188 -7.61569e-19)
(0.0035729 3.00863 0)
(-0.0300872 1.99051 0)
(-0.00720144 2.17812 -1.88256e-20)
(-0.00958449 1.9376 1.85685e-20)
(0.35455 0.14104 -3.45592e-19)
(0.317258 0.00661778 -3.362e-19)
(0.307725 0.16145 -1.03282e-18)
(0.257653 0.0529022 -6.71934e-19)
(0.262965 1.02097 0)
(0.330426 1.23754 -3.59536e-19)
(0.412712 1.14912 5.93475e-19)
(0.987741 0.00815091 0)
(0.943263 0.00578528 0)
(1.00028 0.000671602 0)
(1.00254 0.00906622 0)
(1.00311 0.00898788 -2.66425e-18)
(0.992136 0.00942384 2.01324e-18)
(-0.0207083 0.741746 0)
(0.000468812 0.415002 0)
(-0.051073 1.01848 0)
(-0.0279737 0.795312 0)
(-0.00820495 0.406866 0)
(-0.0222758 0.11805 2.08638e-19)
(0.061906 0.0726337 0)
(0.993624 -0.00769362 0)
(0.954047 -0.00648367 0)
(0.741328 0.0420232 0)
(0.674278 0.0236119 0)
(0.658912 0.00670381 0)
(0.979376 -0.00282529 0)
(0.589934 0.0610532 0)
(0.444845 -0.0230331 1.51334e-18)
(-0.0405342 2.86082 7.55719e-19)
(0.033615 2.91442 0)
(0.0428211 2.89232 0)
(0.00317325 2.70186 0)
(-0.00871813 2.98624 9.16034e-19)
(-0.0142232 2.89467 0)
(-0.0111038 2.99164 -2.81894e-18)
(-0.0116097 2.92949 9.59779e-19)
(-0.0430175 1.34319 0)
(-0.014517 1.3712 0)
(-0.00781439 2.14005 7.29964e-22)
(-0.00765308 2.0992 0)
(-0.0172729 1.90931 0)
(0.938862 -0.00521279 0)
(0.857251 -0.011137 0)
(0.863464 0.00478227 0)
(0.949655 -0.00615092 0)
(0.883659 -0.00808158 0)
(0.499426 1.1156 -2.15515e-19)
(0.546705 1.18552 0)
(0.337695 0.850082 3.26976e-20)
(0.282067 0.714561 0)
(0.916099 1.03355 -1.56292e-19)
(1.03821 0.843771 3.13655e-19)
(0.390504 1.31611 0)
(0.541547 1.27175 0)
(0.594779 1.19926 0)
(0.103242 0.181383 -3.02235e-19)
(0.183507 0.146668 0)
(0.17181 0.0838675 1.86825e-19)
(1.00148 0.897846 0)
(1.07724 0.746067 0)
(1.1067 0.681325 -2.49539e-19)
(1.14371 0.592536 0)
(1.19956 0.391005 4.69135e-20)
(0.957492 -0.00710259 0)
(0.962719 -0.00811124 0)
(0.900905 -0.0073688 0)
(0.983927 -0.00812393 0)
(0.974423 -0.00803219 0)
(0.936541 -0.00656888 0)
(1.0002 0.00250395 0)
(1.00077 0.00123906 0)
(1 0.000761918 0)
(0.0441818 2.08792 4.11676e-19)
(0.144799 1.78768 0)
(0.0192182 2.20321 6.25002e-19)
(0.0524698 1.89353 -5.22675e-19)
(0.165767 1.08322 -2.85144e-19)
(0.0503397 0.938166 0)
(0.120565 0.937005 0)
(0.00221357 0.766711 0)
(0.0251605 0.515461 0)
(-0.00332154 2.2582 -4.60251e-22)
(0.018932 2.03525 0)
(-0.0050272 2.25931 -1.14069e-20)
(0.00248896 2.04131 1.00491e-20)
(-0.00669179 0.741639 0)
(-0.00891245 0.72934 0)
(0.00879612 0.463982 0)
(-0.0130613 0.72585 0)
(0.0070856 0.409755 0)
(0.939369 0.0138095 0)
(0.856171 -0.0116372 0)
(0.928575 0.00483574 0)
(0.846137 -0.0127878 0)
(0.81244 -0.00385522 0)
(0.896952 0.024356 0)
(0.872245 0.0285553 0)
(0.787083 -0.00643729 0)
(0.0102596 3.06733 -9.025e-21)
(0.0152722 3.05899 0)
(0.0123338 2.97033 0)
(0.00758661 2.8766 0)
(0.896326 3.97148 0)
(1.19054 3.36743 9.36292e-19)
(0.0811115 3.09117 0)
(-0.017424 2.91858 0)
(-0.0151459 1.39722 0)
(-0.0348887 1.69543 0)
(-0.0237309 1.53026 0)
(-0.0329222 2.55489 -1.37572e-20)
(-0.0178653 2.24872 0)
(-0.0227216 2.39399 0)
(-0.00093525 1.96624 3.66204e-22)
(-0.00523646 2.25282 -2.35126e-20)
(-0.00623643 2.21564 -1.90664e-20)
(-0.00592637 1.95119 0)
(0.39419 0.11778 5.31222e-19)
(0.351445 0.000815282 -5.21152e-19)
(0.231499 1.59013 0)
(0.288167 0.765505 -3.26841e-19)
(0.18078 1.68731 -1.07415e-18)
(0.245305 1.22537 1.07515e-18)
(0.901704 0.00592792 0)
(0.967066 0.0106505 0)
(0.974917 0.00984719 0)
(0.923007 0.00588703 0)
(-0.0202338 0.733369 0)
(-0.0171259 0.735765 0)
(0.0042263 0.407158 0)
(0.111074 0.108678 5.86796e-19)
(0.0926866 0.0932111 -6.9467e-19)
(0.0739698 0.0613997 0)
(1.10636 0.0901888 2.464e-20)
(1.09004 0.0424054 0)
(1.01833 0.0436312 0)
(0.913489 -0.00160668 0)
(0.442698 0.0960466 0)
(0.503504 0.079557 -2.41887e-18)
(0.394272 -0.00534846 9.05253e-19)
(0.0107665 2.97707 7.99454e-19)
(-0.0330862 2.86135 4.56237e-20)
(0.00821239 3.05345 -1.90353e-20)
(0.0156965 3.04319 7.13228e-19)
(-0.0118774 3.00003 3.15492e-20)
(-0.0122815 2.95229 -1.27252e-22)
(-0.0150326 3.01332 -5.88878e-19)
(0.0144154 3.02654 4.1535e-19)
(0.00758477 3.03494 -6.75555e-19)
(0.934686 0.00211852 0)
(0.939491 -0.00112966 0)
(0.848101 -0.0111736 0)
(0.95635 0.0117723 0)
(0.942394 0.0133354 0)
(0.881709 0.00542204 0)
(0.915101 0.0191935 0)
(0.925072 0.015503 0)
(0.838105 0.000620915 0)
(0.672182 1.41423 1.03757e-20)
(0.690223 1.5248 0)
(0.118818 0.293061 6.8859e-20)
(0.212804 0.653719 5.44362e-19)
(0.240254 0.693424 -3.19358e-19)
(0.215174 0.497237 6.34025e-19)
(0.339671 0.83138 1.59819e-18)
(0.134607 0.236546 3.82902e-19)
(0.263253 0.171447 7.12711e-19)
(0.218757 0.164292 1.83626e-19)
(0.218726 0.0739491 3.50037e-19)
(1.19128 0.445588 8.76011e-20)
(1.21685 0.245458 8.50856e-20)
(0.00869864 2.2463 2.42965e-19)
(0.0394229 1.95665 0)
(0.972646 0.0329784 0)
(0.946642 0.0191713 0)
(0.870877 -0.0152767 0)
(0.012477 3.07486 0)
(0.0168929 2.94404 1.26192e-18)
(0.0139847 2.95693 0)
(0.00582556 2.84982 -1.25243e-18)
(0.00896037 3.09055 3.08421e-19)
(0.0117856 3.0828 0)
(0.71009 1.82114 -1.69411e-19)
(1.23495 2.62621 5.72984e-19)
(0.694879 1.99925 -1.39143e-18)
(0.0222964 2.9766 -6.96676e-19)
(0.0403924 2.99868 0)
(-0.0383204 2.87922 0)
(-0.00630095 2.23784 -1.27729e-20)
(-0.00492671 2.25815 4.47152e-20)
(-0.000595989 2.00217 -7.09514e-21)
(0.268 1.40222 1.03786e-18)
(0.286497 0.568185 -7.12261e-19)
(0.0720654 2.0046 7.53316e-19)
(0.121339 1.87869 -9.05797e-19)
(0.205906 1.53802 1.02511e-19)
(0.00601126 3.12036 -1.71777e-18)
(0.0129504 3.12084 1.89021e-18)
(-0.00515141 2.9805 8.58215e-19)
(-0.00159435 2.97519 -8.23321e-19)
(-0.0176692 2.87728 -8.74127e-19)
(0.0123801 3.10032 -2.29292e-18)
(0.0053189 3.10527 2.32526e-18)
(0.266461 0.698293 0)
(0.218011 0.659318 -1.16042e-18)
(0.0739228 0.212703 5.10538e-19)
(0.346526 0.951285 1.13317e-18)
(0.198917 0.280825 -1.74535e-18)
(1.19653 0.175593 5.06948e-20)
(1.21356 0.304574 0)
(1.192 0.120905 6.02656e-21)
(-0.000833358 2.26617 -1.24423e-21)
(0.00379802 2.25095 0)
(0.0311062 1.99259 0)
(0.312863 1.31827 -3.72341e-19)
(0.35394 1.17741 -8.07086e-19)
(0.232413 0.391837 1.44397e-18)
(1.00644 -0.00968463 0)
(1.00774 -0.00778613 4.89749e-19)
(-0.0376623 1.32549 0)
(-0.0457289 1.32927 0)
(1.00244 0.00327435 1.34349e-21)
(1.0032 0.00781321 1.00535e-18)
(-0.0241563 2.54114 1.74295e-20)
(-0.0272952 2.58385 0)
(0.0404536 3.17303 4.96754e-19)
(0.374895 3.54217 0)
(1.1569 0.691995 -5.38489e-20)
(1.01182 0.010664 -2.83538e-21)
(1.02085 -0.00901589 0)
(1.00158 0.000278249 1.56204e-22)
(0.117288 1.37459 0)
(0.138616 2.5868 0)
(0.0197558 1.32163 0)
(-0.000847027 2.63534 6.88018e-22)
(-0.02192 2.5843 -7.0699e-21)
(0.998624 0.0299138 3.33864e-21)
(1.06297 0.00584112 0)
(1.10003 0.0284752 0)
(-0.0333057 1.74262 0)
(-0.0191726 2.5848 0)
(-0.011838 1.317 0)
(0.309799 1.48773 -1.67545e-19)
(1.01151 -0.00905948 0)
(1.00971 -0.0129875 0)
(1.00228 0.000940887 6.27372e-19)
(1.00548 -0.00491357 -7.39381e-19)
(1.00113 -0.000864863 0)
(-0.0210882 1.46274 0)
(-0.00970201 1.38441 0)
(-0.0162264 1.42458 0)
(-0.0142257 1.30408 0)
(-0.0276395 1.29322 0)
(-0.0210047 1.27261 0)
(1.03564 -0.00430997 0)
(1.01882 0.0150381 -8.93186e-22)
(0.810839 1.31001 2.73859e-19)
(1.00242 0.000383734 -6.26721e-19)
(1.00338 0.00445258 7.48148e-19)
(1.00127 0.0020968 0)
(1.01112 0.00963451 6.24404e-19)
(1.00686 0.00745876 -7.59877e-19)
(1.00715 0.0111288 0)
(-0.0242534 2.61254 0)
(-0.0274751 2.59188 -2.96062e-20)
(-0.024357 2.60589 2.08289e-20)
(1.24162 0.272809 5.3652e-19)
(1.16326 0.0888804 0)
(0.0444257 3.09101 -9.84123e-19)
(0.0518922 2.8734 -6.96186e-20)
(0.103609 3.20198 1.3148e-18)
(0.121883 3.21397 -2.83696e-19)
(0.141839 3.25795 0)
(0.0228993 3.13795 2.70913e-19)
(0.0615094 3.1619 9.80406e-19)
(0.0616817 3.17908 -5.06629e-19)
(0.0274998 3.12918 0)
(0.577203 0.289739 0)
(0.519703 0.30781 0)
(1.1383 0.723101 1.2368e-19)
(1.10371 0.859154 -1.10081e-19)
(1.19654 0.608571 0)
(1.2236 0.543529 0)
(1.01572 0.012025 -1.16003e-18)
(1.0147 0.012766 1.45857e-18)
(1.02573 -0.00873435 0)
(1.02406 -0.0103 0)
(1.00676 0.00318177 0)
(1.01089 0.0042078 0)
(1.00424 0.00220903 0)
(1.00939 0.00636133 0)
(1.00686 0.00504586 0)
(1.00441 0.00526911 0)
(0.10658 1.37434 0)
(0.0948693 1.33307 0)
(0.140497 1.41826 0)
(0.146714 1.40144 0)
(0.145185 2.61146 0)
(0.185117 2.68081 -4.15787e-19)
(0.109152 2.67144 0)
(0.0826227 2.67039 1.68543e-19)
(0.0282661 2.67754 -1.61782e-19)
(0.0129817 1.32203 0)
(0.0192535 1.25228 0)
(0.0146387 1.33579 0)
(0.0353469 1.27351 0)
(-0.000419213 1.99511 3.19454e-20)
(-0.0216393 2.61244 -3.45948e-20)
(-0.00729409 2.67784 -2.37101e-20)
(-0.0193782 2.6907 0)
(-0.0238573 2.61883 2.41673e-20)
(-0.0225117 2.61426 3.45454e-20)
(0.00672637 1.99203 -2.44668e-20)
(-0.00973804 2.40383 4.64144e-20)
(-0.014603 2.42744 2.68775e-20)
(1.01136 0.0394567 1.17494e-18)
(1.00368 0.0203263 -1.46582e-18)
(1.00247 0.0475624 -1.20431e-18)
(0.973977 0.0357206 1.5175e-18)
(1.06463 0.00916003 0)
(1.04986 -0.00647108 0)
(1.09257 0.0374829 0)
(1.07575 0.0149248 0)
(1.0745 0.000579269 0)
(1.1411 0.0790807 0)
(1.11554 0.0460246 0)
(1.11868 0.0374607 0)
(-0.0294749 2.43573 3.26488e-21)
(-0.0196537 2.02226 0)
(-0.0205859 2.22191 0)
(-0.0213101 2.60563 -1.76346e-20)
(-0.0181625 2.61639 5.50156e-22)
(-0.0010225 1.5836 -5.24891e-20)
(-0.0100928 1.50639 5.36138e-20)
(-0.0200235 1.39737 0)
(-0.0240486 1.40318 0)
(-0.0309613 1.39444 0)
(-0.00803138 1.31863 0)
(0.00266938 1.24584 0)
(0.385582 1.51258 2.77135e-19)
(0.434029 1.51651 1.49402e-19)
(0.592763 2.46686 -2.50523e-19)
(0.381041 2.55575 7.28677e-19)
(0.350669 2.05379 7.10193e-20)
(1.02069 -0.00801226 0)
(1.01579 -0.00936457 0)
(1.01484 -0.0132214 0)
(1.00772 -0.000569006 0)
(1.00486 -0.000673031 0)
(1.00799 -0.00448389 0)
(1.00954 -0.00344755 0)
(1.01465 -0.00429445 0)
(1.01955 0.0161987 1.13894e-18)
(1.01722 0.0147071 -1.44022e-18)
(1.01986 0.0185425 -1.14818e-18)
(1.01734 0.0164979 1.43961e-18)
(0.76728 1.35703 0)
(0.706422 1.39196 2.3722e-19)
(0.874021 1.23792 9.45585e-20)
(0.91165 1.19717 -1.25497e-19)
(1.16499 2.61368 2.91721e-19)
(0.753428 0.125928 5.90093e-19)
(1.17157 0.107311 0)
(1.21387 0.2014 -4.35321e-19)
(1.19505 0.15418 -1.81141e-20)
(1.01351 0.164555 0)
(0.0779647 3.01877 3.57279e-19)
(0.0832998 2.90257 -1.15998e-18)
(0.0260693 2.35757 7.33955e-19)
(0.143821 -0.2405 -3.38306e-19)
(0.342804 3.44594 -2.447e-19)
(0.193382 3.34052 0)
(0.224179 3.39747 3.1875e-19)
(0.222969 3.07684 -1.23195e-18)
(0.255913 3.19584 0)
(0.00723265 3.12236 5.10363e-20)
(0.0174068 3.13114 -5.87173e-19)
(0.0166555 3.12702 8.64226e-19)
(0.0336713 3.14 0)
(0.0315814 3.14983 0)
(1.2584 2.57794 0)
(0.533227 0.790767 -5.30163e-19)
(1.02423 1.03266 -7.60267e-21)
(0.989342 1.08571 0)
(0.858012 0.969235 -1.09645e-19)
(1.08183 0.908034 2.66361e-20)
(0.3401 0.31224 -8.33762e-19)
(0.657758 0.32151 -2.17102e-20)
(0.549517 0.221761 3.95058e-19)
(0.551939 0.322995 2.88748e-20)
(0.439199 0.276942 -1.15664e-18)
(0.615415 0.321445 0)
(0.696292 0.424684 6.63458e-19)
(0.699197 0.430934 0)
(0.586917 0.328713 0)
(0.503126 0.254984 0)
(0.796951 0.6524 3.99201e-19)
(1.25263 0.306303 -4.36487e-19)
(1.24511 0.437708 0)
(1.24548 0.393661 0)
(0.691996 0.185192 6.02205e-19)
(0.845842 0.554899 -3.74543e-19)
(0.767053 0.517438 6.6951e-19)
(0.966041 0.449753 -6.77092e-19)
(1.0184 0.0146446 7.71874e-19)
(1.01708 0.013628 -7.79149e-19)
(1.01599 0.0141537 0)
(1.03704 -0.00453387 0)
(1.03044 -0.00770388 -7.31222e-19)
(1.02865 -0.0105804 7.23631e-19)
(1.02474 0.0109515 0)
(1.02268 0.0150623 0)
(1.0127 0.00469455 0)
(1.01456 0.00910401 0)
(1.01636 0.00421653 0)
(1.01554 0.00291179 0)
(0.0754653 1.36091 0)
(0.0760381 1.30371 0)
(0.156723 1.4187 5.44699e-20)
(0.276645 1.48395 8.12545e-20)
(0.176026 1.45534 1.83321e-19)
(0.213599 1.45213 -2.96148e-19)
(0.164506 1.4314 0)
(0.145335 1.58505 -9.07333e-20)
(0.142399 1.58127 0)
(0.35246 2.00604 -1.03387e-19)
(0.317266 2.34597 6.19691e-19)
(0.197653 1.46768 7.90575e-20)
(0.275871 1.39864 2.25645e-20)
(0.205247 1.39795 -1.83806e-20)
(0.289726 1.33741 -9.30628e-20)
(0.254246 1.57846 0)
(0.26849 1.6248 1.00936e-19)
(0.0234961 2.25474 -1.61336e-20)
(0.0380347 2.67065 0)
(0.0630763 2.40513 9.75225e-20)
(0.0585126 2.43004 0)
(0.0682512 2.68838 -1.87097e-19)
(0.0426056 2.7047 0)
(0.0236839 1.44879 5.32102e-20)
(0.0323691 1.50643 0)
(0.0267983 1.41418 0)
(0.0195387 1.42122 -6.03103e-20)
(0.00229164 2.66243 -5.14158e-22)
(0.0270174 2.69395 1.85166e-19)
(0.0100383 2.73392 9.91904e-22)
(0.0015079 1.84393 -1.90124e-20)
(-0.00480386 1.69602 -1.43995e-20)
(0.00957488 1.30348 0)
(0.0169412 1.22937 0)
(0.0404031 1.59372 -1.27498e-20)
(0.0379821 1.47112 -5.12285e-20)
(0.0272745 1.54677 5.48394e-20)
(0.0493469 1.61864 0)
(-0.0303158 2.27253 1.13741e-19)
(-0.0336243 2.55302 -4.81149e-20)
(-0.0198335 2.45209 7.7867e-21)
(-0.0055655 1.86064 2.30464e-20)
(-0.0276288 2.5072 1.06025e-20)
(-0.0229316 2.44832 -2.30548e-20)
(1.01771 0.0221949 -7.80087e-19)
(1.01492 0.0282487 7.84349e-19)
(1.01156 0.016951 0)
(1.01139 0.0707217 1.07011e-18)
(0.990813 0.0592507 -1.23007e-18)
(0.950652 0.0586952 1.37252e-18)
(1.01319 0.11647 -1.45799e-19)
(1.04397 -0.00467999 0)
(1.05217 -0.000433985 7.00996e-19)
(1.04027 -0.00818474 -7.00595e-19)
(1.07224 0.0435678 -4.15782e-20)
(1.06496 0.0288891 3.59094e-19)
(1.06428 0.0653538 0)
(1.05446 0.0547609 -1.29287e-19)
(1.03198 0.0443173 0)
(1.02584 0.0394292 0)
(1.02757 0.0136434 0)
(1.024 0.0161473 0)
(1.0406 0.0340384 2.65769e-19)
(1.03896 0.028607 -5.88139e-19)
(1.05304 0.0385818 -2.81211e-19)
(1.04823 0.0386547 -3.10309e-19)
(1.07801 0.0702729 5.93735e-19)
(1.10179 0.0562512 0)
(1.10862 0.0947957 0)
(-0.0281556 2.27921 6.88307e-20)
(-0.0298624 2.02788 3.38076e-21)
(-0.025018 2.03775 0)
(-0.0297126 2.44857 -6.85292e-20)
(-0.0272941 2.40688 -6.50964e-21)
(-0.0342329 2.47624 8.74164e-21)
(-0.021598 2.62665 -2.93505e-20)
(-0.0262958 2.56902 1.49861e-21)
(-0.0248336 2.52222 -1.00138e-20)
(-0.0172054 2.62001 1.97809e-20)
(-0.0213555 2.62209 -2.26969e-20)
(-0.00983357 1.50144 -3.9866e-22)
(-0.00465145 1.63169 -5.1343e-20)
(0.377508 1.44853 -1.17388e-19)
(0.371743 1.38055 2.35973e-20)
(0.64831 1.44 -2.29543e-19)
(0.524813 1.50969 -1.45342e-19)
(0.578372 1.4683 0)
(0.606423 2.42512 2.19905e-19)
(0.667178 2.43366 3.41674e-19)
(0.414662 2.5181 9.42263e-20)
(0.399379 2.54452 -6.18168e-19)
(0.503323 2.48296 5.72839e-19)
(0.553725 2.47754 0)
(0.484847 2.52776 -5.6094e-19)
(0.253772 2.60391 1.13573e-18)
(0.362747 2.56188 -7.15206e-20)
(0.286033 2.6617 -1.59959e-18)
(0.970758 2.39171 7.25148e-19)
(0.848937 2.39247 0)
(1.01145 0.00138618 2.54424e-20)
(1.01537 -0.00518478 -2.07799e-20)
(1.01775 -0.00393673 -3.79896e-19)
(1.01561 -0.00105085 3.78556e-19)
(1.01312 0.00183648 0)
(0.636377 1.30241 0)
(0.678072 1.18768 0)
(0.792723 1.11805 0)
(0.66562 1.14528 0)
(1.19595 2.6291 5.13643e-20)
(1.08876 2.38095 0)
(0.818791 2.17116 3.64903e-21)
(0.822038 2.43405 0)
(0.916753 2.52429 -4.4246e-19)
(0.948275 2.47375 2.95407e-19)
(0.790496 0.162305 0)
(0.730361 0.148803 1.60088e-19)
(0.907748 0.159405 9.34843e-19)
(0.812817 0.139182 -3.50959e-19)
(0.762622 0.092626 -1.07499e-18)
(1.08816 0.245643 -8.54366e-19)
(0.987074 0.315447 -9.69082e-21)
(0.930508 0.350591 8.22453e-19)
(1.01497 0.259981 7.00431e-19)
(0.931443 0.20585 -1.23409e-18)
(0.890455 0.219008 1.55097e-19)
(0.93179 0.317917 -3.21562e-19)
(0.906188 0.223466 0)
(1.00176 0.209457 6.04342e-19)
(1.05552 0.218531 0)
(1.05282 0.229333 0)
(1.1258 0.124731 2.7177e-19)
(1.06468 0.193849 -1.06731e-20)
(1.07971 0.247115 -1.55499e-19)
(1.11375 0.210885 0)
(1.02283 0.0498866 6.00731e-19)
(1.03744 0.0632927 7.48273e-19)
(1.03205 0.0465763 -5.95975e-19)
(1.04191 0.0692074 -5.01926e-19)
(1.0146 0.0750358 -7.58019e-19)
(0.985848 0.166745 0)
(0.988381 0.107597 0)
(0.961459 0.0741568 -4.87863e-19)
(0.903107 0.0965633 1.92108e-19)
(1.03989 0.117188 6.94204e-19)
(1.0763 0.1371 -7.95437e-19)
(1.07037 0.179876 7.15039e-19)
(1.03552 0.1568 0)
(1.08639 0.12219 0)
(1.05721 0.111953 -3.26033e-19)
(1.04347 0.108926 -5.64335e-19)
(0.587493 1.0862 1.21578e-19)
(0.613379 1.40441 -2.49726e-20)
(1.14528 2.72002 -2.51691e-19)
(1.19791 3.10433 3.90501e-21)
(1.25384 2.72983 -1.38042e-19)
(1.29367 2.70081 2.53752e-20)
(1.26929 2.32427 -3.798e-20)
(1.18561 3.00981 -7.8653e-20)
(1.20508 2.96675 2.31015e-19)
(1.17977 3.25788 -1.20029e-19)
(1.39759 2.9725 1.49689e-19)
(1.40914 2.90891 0)
(0.571985 0.817452 -4.8366e-20)
(0.212012 1.21268 4.78345e-19)
(0.515882 0.355014 5.36724e-19)
(0.401495 0.117782 6.10017e-19)
(0.486083 0.304179 6.54765e-19)
(0.548267 0.419281 -1.06488e-18)
(0.554724 0.406059 8.76762e-19)
(0.474803 0.309211 -3.30028e-19)
(0.351578 0.24929 7.4654e-19)
(0.725363 0.25232 -3.47539e-19)
(0.677317 0.285101 0)
(0.611587 0.19705 7.94911e-21)
(0.738868 0.506377 3.62129e-19)
(0.708528 0.47854 -1.3129e-18)
(0.636856 0.435045 1.57003e-20)
(0.625686 0.414185 0)
(0.717094 0.71501 3.77703e-19)
(0.833582 0.797931 4.18002e-19)
(0.770817 0.847635 -4.87e-19)
(0.902069 0.820195 -1.55296e-19)
(0.936761 0.863343 -3.65952e-20)
(0.944391 0.87072 3.75343e-20)
(0.881128 0.676438 -6.7899e-19)
(0.953316 0.723369 1.44378e-19)
(1.00736 0.727291 0)
(1.00654 0.703323 -1.85241e-19)
(1.03178 0.339614 2.13742e-19)
(1.15902 0.339617 2.61488e-19)
(1.07465 0.283293 3.49414e-19)
(0.999366 0.385996 -4.26548e-19)
(1.05625 0.486463 0)
(1.13838 0.427795 0)
(0.905136 0.422763 5.04575e-22)
(0.848626 0.321984 0)
(0.893168 0.311702 3.94043e-19)
(0.917133 0.349418 3.7137e-21)
(0.986514 0.494827 1.89239e-18)
(0.919314 0.554123 4.88265e-19)
(0.941344 0.510564 -5.15928e-19)
(0.859811 0.48831 5.49776e-19)
(0.826984 0.462678 3.49123e-19)
(0.804134 0.438147 -3.4227e-19)
(1.02816 -0.000384042 6.27934e-19)
(1.02041 0.000560959 0)
(1.01906 0.00138156 4.09741e-19)
(1.02263 -0.000722051 -9.2761e-19)
(1.02254 0.00456824 4.51854e-19)
(1.02002 0.0116075 -9.45771e-19)
(1.02075 0.0114037 0)
(1.01968 0.0121499 -1.96916e-19)
(1.01655 0.00778711 4.9355e-19)
(1.01668 0.0108965 -2.47665e-19)
(1.01727 0.0105933 1.81211e-19)
(0.0272893 1.3315 0)
(0.0361897 1.39135 0)
(0.0492809 1.33773 0)
(0.0519501 1.27646 0)
(0.0847189 1.40396 -7.34832e-20)
(0.0911393 1.37507 1.76661e-20)
(0.0910746 1.57581 1.76897e-21)
(0.104886 1.40945 -3.8434e-20)
(0.0411409 1.48386 4.76572e-20)
(0.0454967 1.48029 -3.75004e-20)
(0.0714702 1.39781 -2.27963e-20)
(0.0600226 1.40019 7.52802e-20)
(0.053986 1.37866 1.19301e-20)
(0.0407541 1.39664 7.70972e-21)
(0.100511 2.37306 -1.06589e-19)
(0.092538 2.42033 0)
(0.138102 2.01122 9.53787e-20)
(0.131651 1.70077 3.35009e-20)
(0.223141 2.00257 -8.85829e-20)
(0.20119 2.42944 0)
(0.264892 2.36749 -6.15647e-19)
(0.303838 2.36458 4.45533e-19)
(0.249675 1.98313 -2.0422e-19)
(0.139795 2.15475 1.49641e-19)
(0.108483 2.26941 0)
(0.016631 1.85889 -2.44551e-20)
(-0.00301853 2.3796 -1.29607e-20)
(0.00470791 2.13776 0)
(0.00737986 2.44159 -1.69568e-20)
(0.0249938 2.27856 2.3707e-20)
(0.00849603 1.42508 -1.08036e-20)
(0.00731758 1.40619 1.82064e-19)
(0.0065412 1.41471 -5.86034e-20)
(0.0176944 1.42181 -5.20999e-20)
(0.0212667 1.45205 0)
(0.00494866 1.39731 0)
(-0.000983318 1.30457 -6.87088e-20)
(0.00043478 1.38261 1.95209e-20)
(0.00556789 1.38421 0)
(0.0060699 1.2972 -5.31061e-20)
(0.0138117 1.22146 1.05994e-19)
(1.04243 0.0150615 0)
(1.04894 0.0105258 -6.55455e-20)
(1.03923 0.0244921 -4.73954e-19)
(1.04967 0.0233685 0)
(1.05466 0.0226127 0)
(1.03627 0.0130508 -6.78167e-21)
(1.02996 0.0135446 7.64876e-19)
(1.03176 0.0175453 9.25194e-19)
(1.02558 0.0211374 0)
(1.02226 0.0215456 0)
(1.03555 0.0257422 4.72899e-19)
(1.02641 0.0283977 0)
(1.02312 0.028827 0)
(-0.0202937 2.0296 0)
(-0.00897012 1.65965 -2.16251e-21)
(-0.00869679 1.76525 -3.16621e-20)
(-0.00442815 1.39128 0)
(-0.00873834 1.56127 -2.84356e-20)
(-0.0144337 1.46928 1.78292e-20)
(-0.00926509 1.40356 0)
(0.404184 1.62777 0)
(0.365493 1.31818 -3.90503e-20)
(0.275766 1.34614 0)
(0.435033 1.31611 -2.37602e-20)
(0.473114 1.47558 0)
(0.45743 1.41653 3.43898e-20)
(1.04071 2.67291 -1.54235e-20)
(0.985243 2.4109 -9.10993e-19)
(0.947779 2.21103 1.02412e-18)
(0.865543 2.38462 2.45088e-19)
(0.85315 2.48963 0)
(0.922044 2.48458 0)
(0.954546 2.38479 0)
(0.930566 2.3754 -9.4782e-19)
(0.692035 2.45412 -3.85163e-19)
(0.800909 2.43792 -9.92367e-20)
(0.808175 2.41599 7.47916e-20)
(0.704556 2.40496 0)
(0.809725 2.39873 0)
(0.770444 2.41512 -3.70451e-19)
(0.766112 2.46835 0)
(0.628203 1.0665 0)
(0.515323 0.861658 -5.62021e-19)
(0.521487 0.93333 -3.25888e-20)
(0.501507 1.07255 0)
(0.488376 0.981169 8.60591e-19)
(0.799457 0.88555 -1.35105e-19)
(0.803944 1.02081 0)
(0.784767 1.00352 1.86597e-19)
(0.673216 1.02079 0)
(0.664998 0.924819 0)
(1.16374 2.75641 -2.23979e-19)
(1.13883 2.81465 -9.28087e-20)
(0.923452 2.33741 8.04816e-20)
(0.900111 2.31825 -7.77292e-20)
(1.13338 2.7343 0)
(1.08537 2.70211 9.33746e-20)
(1.10153 2.49749 -3.01109e-19)
(1.00316 2.25693 -2.84311e-20)
(0.497557 1.33186 0)
(0.51713 1.07859 -1.07101e-19)
(0.593534 1.18173 0)
(0.847196 0.231801 0)
(0.755127 0.18155 0)
(0.667931 0.14314 0)
(0.849771 0.231655 -6.21015e-19)
(0.746524 0.222188 3.63389e-19)
(0.909148 0.089114 -3.88024e-19)
(0.927938 0.14462 0)
(0.912056 0.151704 1.74318e-19)
(0.839607 0.109977 6.99376e-19)
(0.787896 0.0788999 -4.40566e-19)
(1.09732 3.34943 -6.68558e-19)
(1.16483 3.27277 0)
(1.11575 3.43433 -1.56231e-18)
(0.657142 3.58021 1.30028e-18)
(1.02597 3.07756 1.14676e-19)
(0.532014 0.784498 5.73035e-19)
(0.512121 0.752835 0)
(0.352622 0.372174 -1.45538e-19)
(0.484439 0.630963 8.62795e-19)
(0.546337 0.356132 -1.92141e-19)
(0.517044 0.456758 2.27321e-19)
(0.689699 0.524657 4.67604e-19)
(0.734782 0.560122 0)
(0.6627 0.566242 0)
(0.645275 0.53162 0)
(1.01597 0.611014 9.26095e-20)
(0.970173 0.593142 -4.72829e-19)
(0.980098 0.605217 3.62935e-19)
(1.04495 0.548136 -3.4948e-19)
(1.08985 0.517689 0)
(1.09122 0.599711 -9.25607e-20)
(0.887062 0.418096 -7.77505e-19)
(0.876181 0.405783 -9.9922e-19)
(0.801358 0.403156 6.14112e-19)
(0.815165 0.371118 -6.34333e-19)
(0.856637 0.331697 -4.99006e-19)
(0.802205 0.33529 6.11098e-19)
(1.02655 0.00668572 -4.72921e-19)
(1.02617 0.00680542 9.52736e-19)
(1.02994 0.000950957 6.08591e-19)
(1.03417 0.00158158 -7.30682e-19)
(1.03396 0.0120025 0)
(1.02963 0.0120662 -1.19798e-18)
(0.0796115 1.64458 1.26763e-20)
(0.0662848 1.60413 0)
(0.108804 1.70222 4.61282e-20)
(0.116051 1.67993 -3.89836e-20)
(0.0775241 1.57257 -3.22478e-21)
(0.0725929 1.57513 0)
(0.00649588 1.69736 0)
(-0.008467 1.51049 1.51594e-20)
(-0.00688524 1.45044 -1.36187e-20)
(-0.0115547 1.5584 3.08601e-21)
(-0.00210399 1.89243 2.21763e-20)
(-0.0142593 1.94726 -8.57767e-21)
(0.493784 1.36234 -2.71531e-19)
(0.496292 1.35751 2.96751e-19)
(0.448842 1.30871 -1.91234e-20)
(0.42855 1.29246 8.17588e-21)
(0.627804 1.31107 0)
(0.555873 1.40426 1.09023e-19)
(0.556925 1.40734 -1.06153e-19)
(0.484346 1.2955 1.84404e-20)
(0.525155 1.2498 0)
(0.589681 1.21574 0)
(0.665688 2.41766 5.6707e-19)
(0.661309 2.44723 1.29162e-18)
(0.716483 2.4624 -8.88101e-19)
(0.614284 2.43457 -2.02351e-19)
(0.557899 2.52828 2.77495e-19)
(0.498274 2.49463 -7.15946e-19)
(0.993191 2.38965 -5.77019e-19)
(1.02532 2.40738 0)
(0.951939 2.19489 -6.31284e-19)
(1.05619 2.68318 0)
(1.05511 2.66436 0)
(0.603096 2.29109 5.13856e-21)
(1.11937 3.07041 7.30296e-20)
(0.997493 2.968 -1.21602e-19)
(0.323485 0.801741 0)
(0.323139 0.683652 -3.05306e-19)
(0.528031 0.617836 -3.10367e-19)
(0.366149 2.13364 0)
(0.404417 2.74465 -8.07198e-20)
(0.414014 2.47942 0)
(0.725486 0.68081 -8.05204e-19)
(0.791476 0.687636 1.12253e-18)
(0.797837 0.655986 -1.06403e-18)
(0.698769 0.639899 -1.02055e-19)
(0.758224 0.598688 -4.20642e-19)
(0.971566 2.75413 -5.53119e-20)
(1.01423 2.76042 -2.15012e-19)
(0.55397 2.20906 4.4098e-19)
(0.605639 1.73604 -3.49229e-19)
(0.704623 1.85468 -5.00758e-19)
(0.977817 2.3945 -1.38136e-19)
(0.977649 2.34788 3.69978e-19)
(0.647816 1.76596 3.37248e-20)
(0.454148 1.29809 1.7742e-19)
)
;

boundaryField
{
    wall-4
    {
        type            noSlip;
    }
    velocity-inlet-5
    {
        type            fixedValue;
        value           uniform (1 0 0);
    }
    velocity-inlet-6
    {
        type            fixedValue;
        value           uniform (0 3 0);
    }
    pressure-outlet-7
    {
        type            zeroGradient;
    }
    wall-8
    {
        type            noSlip;
    }
    frontAndBackPlanes
    {
        type            empty;
    }
}


// ************************************************************************* //
