/*--------------------------------*- C++ -*----------------------------------*\
  =========                 |
  \\      /  F ield         | OpenFOAM: The Open Source CFD Toolbox
   \\    /   O peration     | Website:  https://openfoam.org
    \\  /    A nd           | Version:  6
     \\/     M anipulation  |
\*---------------------------------------------------------------------------*/
FoamFile
{
    version     2.0;
    format      ascii;
    class       volVectorField;
    location    "53";
    object      U;
}
// * * * * * * * * * * * * * * * * * * * * * * * * * * * * * * * * * * * * * //

dimensions      [0 1 -1 0 0 0 0];

internalField   nonuniform List<vector> 
8800
(
(0.987195 -0.0767065 0)
(1.0019 -0.0551794 0)
(0.999719 -0.0285536 0)
(1.00002 -0.0151591 0)
(1.00006 -0.0085624 0)
(1.00007 -0.00506259 0)
(1.00005 -0.00301599 0)
(1.00002 -0.00171404 0)
(0.999997 -0.000807354 0)
(1.00006 -9.1576e-05 0)
(0.999987 0.000636181 0)
(0.999995 0.00139841 0)
(1.00001 0.00242146 0)
(1.00003 0.00399876 0)
(1.00003 0.0066361 0)
(1.00001 0.0113769 0)
(0.999888 0.0208169 0)
(0.999145 0.0386582 0)
(1.0071 0.0724576 0)
(0.771225 0.0366895 0)
(0.36303 -0.0160165 0)
(1.04331 -0.076833 0)
(1.08461 -0.0704549 0)
(1.04521 -0.0535629 0)
(1.02328 -0.0389189 0)
(1.01199 -0.0262499 0)
(1.00639 -0.0168976 0)
(1.00358 -0.0103714 0)
(1.00215 -0.00571591 0)
(1.00145 -0.00206414 0)
(1.00132 0.00125814 0)
(1.00169 0.00463758 0)
(1.00266 0.00857261 0)
(1.00465 0.013917 0)
(1.0086 0.0216276 0)
(1.01658 0.0325999 0)
(1.03249 0.0465186 0)
(1.06265 0.0616425 0)
(1.09189 0.0760801 0)
(0.83868 0.0565754 0)
(0.216799 -0.00242291 0)
(1.07585 -0.050167 0)
(1.09984 -0.0483567 0)
(1.0646 -0.040513 0)
(1.03997 -0.0336605 0)
(1.02384 -0.0261478 0)
(1.01407 -0.018575 0)
(1.00853 -0.0117637 0)
(1.00558 -0.00590366 0)
(1.00433 -0.000492304 0)
(1.00468 0.00475225 0)
(1.0066 0.0101415 0)
(1.0106 0.0162443 0)
(1.01793 0.0232825 0)
(1.03054 0.0307579 0)
(1.05062 0.037802 0)
(1.08032 0.0444998 0)
(1.10625 0.051326 0)
(0.942558 0.0416029 0)
(0.216185 0.00245119 0)
(0.175105 -0.000816171 0)
(1.01759 -0.035518 0)
(1.10514 -0.0414359 0)
(1.07819 -0.0361353 0)
(1.05336 -0.0302151 0)
(1.0361 -0.0246526 0)
(1.02392 -0.0189371 0)
(1.01584 -0.0128686 0)
(1.01099 -0.00669126 0)
(1.00881 -0.000364559 0)
(1.0094 0.00588928 0)
(1.01266 0.011889 0)
(1.01886 0.0177412 0)
(1.02877 0.0233366 0)
(1.04322 0.0286503 0)
(1.06374 0.0341489 0)
(1.09355 0.0401449 0)
(1.09343 0.0419202 0)
(0.827254 0.0228935 0)
(0.17407 0.000848426 0)
(0.15387 -0.00061151 0)
(0.955992 -0.0255005 0)
(1.10336 -0.0352021 0)
(1.08758 -0.032746 0)
(1.06159 -0.0281103 0)
(1.04397 -0.0231053 0)
(1.03154 -0.017877 0)
(1.02272 -0.0123637 0)
(1.01693 -0.00644233 0)
(1.01411 1.61484e-05 0)
(1.01482 0.00647645 0)
(1.0188 0.0123635 0)
(1.02581 0.0176791 0)
(1.03612 0.0226202 0)
(1.0507 0.0273929 0)
(1.07195 0.0319439 0)
(1.1001 0.0358967 0)
(1.06816 0.0339764 0)
(0.739735 0.0142909 0)
(0.152312 0.000648064 0)
(0.13946 -0.000468465 0)
(0.898975 -0.0191274 0)
(1.09562 -0.0301724 0)
(1.0956 -0.0293082 0)
(1.06907 -0.025598 0)
(1.05064 -0.0214837 0)
(1.03775 -0.0167368 0)
(1.02867 -0.0114735 0)
(1.02259 -0.00574853 0)
(1.0195 0.000565096 0)
(1.02016 0.00687558 0)
(1.02427 0.0125159 0)
(1.0314 0.0175063 0)
(1.04194 0.0220016 0)
(1.05709 0.0259826 0)
(1.0793 0.0294707 0)
(1.10235 0.0321194 0)
(1.03615 0.0280491 0)
(0.673282 0.010184 0)
(0.137263 0.000510614 0)
(0.128877 -0.000363542 0)
(0.849244 -0.0147733 0)
(1.08314 -0.0260586 0)
(1.10123 -0.0263845 0)
(1.07588 -0.0231263 0)
(1.05692 -0.0195142 0)
(1.04357 -0.0153012 0)
(1.03415 -0.0104107 0)
(1.02784 -0.00490469 0)
(1.02457 0.00122893 0)
(1.0251 0.00732978 0)
(1.02917 0.0126948 0)
(1.03642 0.0172759 0)
(1.04724 0.0211707 0)
(1.0628 0.0244896 0)
(1.08545 0.0274634 0)
(1.1015 0.0292503 0)
(1.00135 0.0235155 0)
(0.621584 0.00781439 0)
(0.125901 0.000413207 0)
(0.120787 -0.000283349 0)
(0.806934 -0.0116245 0)
(1.06775 -0.0224692 0)
(1.10469 -0.023778 0)
(1.08208 -0.0209415 0)
(1.06271 -0.0175525 0)
(1.04909 -0.0136565 0)
(1.03939 -0.00911034 0)
(1.03281 -0.0038825 0)
(1.0293 0.00202507 0)
(1.02967 0.00787271 0)
(1.03371 0.0128914 0)
(1.04102 0.0170089 0)
(1.05197 0.0204012 0)
(1.06775 0.0233116 0)
(1.09073 0.0259928 0)
(1.09778 0.0268932 0)
(0.966237 0.0199536 0)
(0.580097 0.00627325 0)
(0.116865 0.000342441 0)
(0.114501 -0.000220662 0)
(0.771267 -0.00927173 0)
(1.05083 -0.0193129 0)
(1.10698 -0.0213747 0)
(1.08788 -0.0189197 0)
(1.06813 -0.0156845 0)
(1.05427 -0.0119575 0)
(1.04439 -0.00763179 0)
(1.03756 -0.00265735 0)
(1.0338 0.0029896 0)
(1.03397 0.00853492 0)
(1.03789 0.0131775 0)
(1.04516 0.016883 0)
(1.05611 0.019895 0)
(1.07209 0.0224818 0)
(1.09475 0.0248226 0)
(1.09127 0.0249262 0)
(0.932123 0.0171957 0)
(0.545816 0.00521791 0)
(0.109429 0.000291342 0)
(0.109584 -0.000170299 0)
(0.741299 -0.00744729 0)
(1.03345 -0.0165187 0)
(1.10832 -0.0191142 0)
(1.09339 -0.0169734 0)
(1.07335 -0.0138349 0)
(1.05923 -0.0102082 0)
(1.04916 -0.00601866 0)
(1.04212 -0.0012322 0)
(1.03809 0.00415488 0)
(1.03799 0.00936986 0)
(1.0417 0.0136462 0)
(1.04884 0.0169852 0)
(1.05978 0.0196539 0)
(1.07597 0.0219588 0)
(1.0975 0.0239383 0)
(1.08236 0.023294 0)
(0.899586 0.0150887 0)
(0.516701 0.00447792 0)
(0.103116 0.000255193 0)
(0.105752 -0.000128497 0)
(0.716212 -0.00597682 0)
(1.01643 -0.0140136 0)
(1.1088 -0.0169358 0)
(1.09879 -0.0150843 0)
(1.07849 -0.0119682 0)
(1.06407 -0.00838272 0)
(1.05379 -0.0042666 0)
(1.04651 0.000385646 0)
(1.04217 0.00555213 0)
(1.04174 0.0104618 0)
(1.04517 0.0143942 0)
(1.05213 0.0173935 0)
(1.06304 0.0197354 0)
(1.0794 0.0217707 0)
(1.09893 0.0233535 0)
(1.07144 0.0219925 0)
(0.868759 0.0135152 0)
(0.491316 0.00396302 0)
(0.0975875 0.000230996 0)
(0.102816 -9.23578e-05 0)
(0.695364 -0.00474511 0)
(1.00039 -0.0117308 0)
(1.10857 -0.0147946 0)
(1.104 -0.0131445 0)
(1.0836 -0.0100046 0)
(1.06888 -0.00640982 0)
(1.05833 -0.0023236 0)
(1.05077 0.00224351 0)
(1.04606 0.0072367 0)
(1.04521 0.0118716 0)
(1.04829 0.0154691 0)
(1.05503 0.0181205 0)
(1.0659 0.0201285 0)
(1.0824 0.0219071 0)
(1.09942 0.0230885 0)
(1.05882 0.0210205 0)
(0.839505 0.0123828 0)
(0.468589 0.00361712 0)
(0.0925877 0.000216256 0)
(0.100655 -5.91937e-05 0)
(0.678285 -0.00366521 0)
(0.985771 -0.00959953 0)
(1.10786 -0.0126121 0)
(1.10903 -0.01109 0)
(1.08878 -0.00790508 0)
(1.0737 -0.00424405 0)
(1.06285 -0.000119111 0)
(1.05494 0.0044186 0)
(1.04977 0.0092716 0)
(1.04841 0.0136445 0)
(1.05108 0.016918 0)
(1.05756 0.0192354 0)
(1.06836 0.0209067 0)
(1.08491 0.0224099 0)
(1.09893 0.0232128 0)
(1.04469 0.0203977 0)
(0.811523 0.0116197 0)
(0.447688 0.00340278 0)
(0.0879185 0.000209187 0)
(0.0992087 -2.67187e-05 0)
(0.664676 -0.00266666 0)
(0.972932 -0.00754165 0)
(1.10695 -0.0103251 0)
(1.11396 -0.00885938 0)
(1.09409 -0.00559749 0)
(1.07863 -0.00181092 0)
(1.06741 0.00241121 0)
(1.05904 0.00697706 0)
(1.0533 0.0117406 0)
(1.05134 0.0158778 0)
(1.05351 0.0188254 0)
(1.05969 0.0207913 0)
(1.0704 0.0221 0)
(1.08696 0.0233295 0)
(1.09723 0.023686 0)
(1.02912 0.0200965 0)
(0.784426 0.0111677 0)
(0.427944 0.0032934 0)
(0.0834216 0.00020821 0)
(0.0984613 7.16636e-06 0)
(0.654386 -0.00169358 0)
(0.962192 -0.00548546 0)
(1.10618 -0.00786922 0)
(1.11895 -0.00635792 0)
(1.0996 -0.00295722 0)
(1.08373 0.00101037 0)
(1.07206 0.00538243 0)
(1.06314 0.0100288 0)
(1.05671 0.0147388 0)
(1.05402 0.0186483 0)
(1.05558 0.0212601 0)
(1.06138 0.0228452 0)
(1.07198 0.0237572 0)
(1.08849 0.0246902 0)
(1.09429 0.0245636 0)
(1.01213 0.0201508 0)
(0.757794 0.0109967 0)
(0.408805 0.00327488 0)
(0.0789684 0.000212867 0)
(0.0984333 4.02418e-05 0)
(0.647393 -0.000699518 0)
(0.95385 -0.00335637 0)
(1.10589 -0.00517968 0)
(1.12415 -0.00352725 0)
(1.10541 7.07677e-05 0)
(1.08908 0.00429694 0)
(1.07687 0.00890131 0)
(1.0673 0.0136928 0)
(1.06002 0.0183829 0)
(1.05644 0.0220629 0)
(1.05729 0.024312 0)
(1.06263 0.025499 0)
(1.0731 0.0259972 0)
(1.08927 0.0265601 0)
(1.08988 0.0258792 0)
(0.99363 0.0205763 0)
(0.731157 0.0110884 0)
(0.389777 0.00333891 0)
(0.0744407 0.000222511 0)
(0.0991635 7.88156e-05 0)
(0.643784 0.000331856 0)
(0.948227 -0.00107602 0)
(1.10643 -0.00216508 0)
(1.12973 -0.000247175 0)
(1.11162 0.0036242 0)
(1.09479 0.00818055 0)
(1.08195 0.0130851 0)
(1.07156 0.0180847 0)
(1.06326 0.0228092 0)
(1.05861 0.0262814 0)
(1.05859 0.0281357 0)
(1.06339 0.0288674 0)
(1.07367 0.0289208 0)
(1.08916 0.0290519 0)
(1.08389 0.027662 0)
(0.973413 0.021399 0)
(0.704004 0.0114319 0)
(0.370393 0.00347955 0)
(0.0697314 0.000236725 0)
(0.100859 0.000139753 0)
(0.643955 0.00149289 0)
(0.945695 0.00143511 0)
(1.10822 0.00127148 0)
(1.13591 0.00360016 0)
(1.11837 0.00786368 0)
(1.10094 0.0128424 0)
(1.08733 0.0181295 0)
(1.07595 0.0234076 0)
(1.06641 0.028184 0)
(1.06045 0.0314192 0)
(1.0594 0.0328285 0)
(1.06356 0.0330664 0)
(1.07361 0.0326285 0)
(1.08797 0.0322579 0)
(1.07604 0.0300071 0)
(0.95119 0.0226525 0)
(0.675795 0.0120272 0)
(0.350217 0.00369362 0)
(0.0647436 0.000255113 0)
(0.103567 0.000199413 0)
(0.648207 0.00288816 0)
(0.946689 0.00432531 0)
(1.11177 0.00527233 0)
(1.14291 0.00814736 0)
(1.1258 0.01293 0)
(1.10768 0.0184524 0)
(1.09312 0.0242413 0)
(1.0805 0.0298658 0)
(1.06942 0.0347162 0)
(1.0619 0.0376781 0)
(1.05967 0.0385571 0)
(1.06306 0.0382373 0)
(1.07284 0.0372444 0)
(1.08551 0.0362979 0)
(1.06604 0.0330037 0)
(0.926552 0.0243836 0)
(0.645937 0.0128785 0)
(0.328812 0.00397881 0)
(0.0593859 0.000277225 0)
(0.107574 0.000280896 0)
(0.657175 0.00456624 0)
(0.951639 0.00769088 0)
(1.11755 0.0100092 0)
(1.151 0.0136257 0)
(1.13412 0.0190917 0)
(1.11518 0.0252929 0)
(1.09943 0.0316879 0)
(1.08529 0.0377306 0)
(1.07235 0.0426539 0)
(1.06298 0.0452595 0)
(1.05934 0.0455261 0)
(1.06179 0.0445524 0)
(1.07125 0.0429163 0)
(1.08172 0.0413318 0)
(1.0535 0.0367447 0)
(0.898987 0.0266239 0)
(0.613787 0.0139817 0)
(0.30575 0.00432788 0)
(0.0535786 0.00030189 0)
(0.113222 0.000389936 0)
(0.671515 0.00665518 0)
(0.961381 0.0118173 0)
(1.12617 0.0157075 0)
(1.16053 0.0202992 0)
(1.14359 0.0266852 0)
(1.12359 0.0337089 0)
(1.10635 0.0408198 0)
(1.09032 0.0473351 0)
(1.07511 0.0522888 0)
(1.06355 0.0544067 0)
(1.05829 0.0539332 0)
(1.05966 0.0521864 0)
(1.06871 0.0498099 0)
(1.07645 0.0474647 0)
(1.03795 0.0413326 0)
(0.867856 0.0294067 0)
(0.578667 0.0153285 0)
(0.28063 0.00472977 0)
(0.0472623 0.000327585 0)
(0.121011 0.000544111 0)
(0.69225 0.00938585 0)
(0.976703 0.0169698 0)
(1.13827 0.0226951 0)
(1.17198 0.0285238 0)
(1.15448 0.0361128 0)
(1.13308 0.0441593 0)
(1.11393 0.0521055 0)
(1.09551 0.0590796 0)
(1.07755 0.0639426 0)
(1.06342 0.0653723 0)
(1.05627 0.063932 0)
(1.0565 0.0613037 0)
(1.06508 0.0580872 0)
(1.06938 0.0548097 0)
(1.01874 0.0468419 0)
(0.832412 0.0327395 0)
(0.53987 0.0168876 0)
(0.253103 0.00516273 0)
(0.040411 0.000351753 0)
(0.131697 0.00076768 0)
(0.720702 0.013146 0)
(0.998755 0.023623 0)
(1.15461 0.0315312 0)
(1.18592 0.0389241 0)
(1.16715 0.0480662 0)
(1.14384 0.0573276 0)
(1.12218 0.0661648 0)
(1.10073 0.0734942 0)
(1.07948 0.0779947 0)
(1.06244 0.0784077 0)
(1.05319 0.0757498 0)
(1.05215 0.0720742 0)
(1.06012 0.0678573 0)
(1.05998 0.0634342 0)
(0.995111 0.0533313 0)
(0.791796 0.0365942 0)
(0.496718 0.018594 0)
(0.222943 0.00559184 0)
(0.0330496 0.00037101 0)
(0.146538 0.00112092 0)
(0.75884 0.0185514 0)
(1.02917 0.032546 0)
(1.17617 0.0431393 0)
(1.20313 0.0525402 0)
(1.18194 0.0636228 0)
(1.15593 0.0741956 0)
(1.13095 0.0837891 0)
(1.10582 0.0911495 0)
(1.08074 0.0948292 0)
(1.06042 0.0937855 0)
(1.0489 0.0896158 0)
(1.0465 0.0846517 0)
(1.05343 0.0793032 0)
(1.04763 0.073541 0)
(0.966083 0.0607873 0)
(0.74511 0.0408746 0)
(0.448682 0.0203293 0)
(0.190156 0.00595955 0)
(0.0252842 0.000380079 0)
(0.167672 0.00172951 0)
(0.809836 0.0267282 0)
(1.07048 0.0452471 0)
(1.20406 0.0593066 0)
(1.22433 0.071475 0)
(1.19892 0.0843405 0)
(1.16904 0.0960447 0)
(1.13974 0.105926 0)
(1.11011 0.112653 0)
(1.08066 0.114803 0)
(1.05687 0.111696 0)
(1.04306 0.105608 0)
(1.03936 0.099148 0)
(1.04487 0.0927119 0)
(1.03158 0.0850326 0)
(0.930434 0.0690552 0)
(0.691533 0.0453693 0)
(0.395631 0.021913 0)
(0.155184 0.00618554 0)
(0.0173468 0.000371708 0)
(0.198396 0.00306623 0)
(0.879306 0.0402543 0)
(1.12627 0.0654777 0)
(1.23866 0.083624 0)
(1.24915 0.098464 0)
(1.21747 0.112581 0)
(1.18236 0.124518 0)
(1.14779 0.133585 0)
(1.11308 0.138562 0)
(1.07898 0.138152 0)
(1.0516 0.132208 0)
(1.03551 0.123761 0)
(1.03053 0.115573 0)
(1.03423 0.107948 0)
(1.01079 0.0978637 0)
(0.886727 0.0778222 0)
(0.630649 0.0497117 0)
(0.338503 0.0231591 0)
(0.119405 0.00620502 0)
(0.00971675 0.000335804 0)
(0.240355 0.00917096 6.13673e-20)
(0.971188 0.0669802 5.32836e-20)
(1.1942 0.0997125 -1.84442e-20)
(1.27684 0.119817 0)
(1.27482 0.137132 -4.52045e-34)
(1.23551 0.150712 6.56252e-21)
(1.19442 0.161113 -1.15547e-20)
(1.15406 0.167944 0)
(1.11388 0.170125 2.31336e-34)
(1.07475 0.166407 -1.37372e-20)
(1.04352 0.157162 0)
(1.02491 0.146117 -1.60521e-20)
(1.01857 0.136195 -4.71741e-20)
(1.02009 0.127576 -2.22347e-20)
(0.982362 0.114943 -6.6591e-21)
(0.830129 0.0891927 -3.94947e-21)
(0.556857 0.0547725 0)
(0.275328 0.024504 2.76134e-21)
(0.083279 0.00642481 3.26048e-21)
(0.00261627 0.00031537 5.87591e-20)
(0.26949 0.0240775 4.86272e-20)
(1.04723 0.109172 5.26741e-22)
(1.25019 0.148496 5.08267e-21)
(1.31099 0.168539 0)
(1.29725 0.186153 -2.34889e-20)
(1.2508 0.197608 -2.63493e-20)
(1.20372 0.205709 -1.17956e-20)
(1.15743 0.210059 -4.11394e-20)
(1.11146 0.209452 0)
(1.06676 0.202484 5.86297e-20)
(1.03096 0.189993 5.76683e-20)
(1.00928 0.176395 1.70374e-20)
(1.00065 0.1644 6.16252e-20)
(0.995806 0.153214 8.61317e-20)
(0.938981 0.136401 0)
(0.755259 0.103243 1.2087e-19)
(0.470968 0.0614186 1.7334e-19)
(0.208881 0.0261622 1.92521e-19)
(0.0482088 0.00596628 -2.20124e-19)
(-0.00413835 -0.000251366 -4.1385e-21)
(0.271014 0.0406268 0)
(1.0956 0.163812 9.37145e-21)
(1.28798 0.208183 0)
(1.33753 0.228004 -3.2911e-20)
(1.31472 0.242959 0)
(1.26227 0.250571 -5.27699e-20)
(1.20958 0.254976 2.43352e-20)
(1.15767 0.255773 -8.37563e-20)
(1.10618 0.251602 -1.57877e-21)
(1.05616 0.240879 3.05286e-20)
(1.01593 0.224815 1.26527e-19)
(0.991197 0.208503 -2.69513e-22)
(0.980046 0.194499 -4.47236e-20)
(0.969316 0.180786 -8.10434e-20)
(0.899772 0.159194 9.57198e-20)
(0.702951 0.118102 -1.69365e-19)
(0.423376 0.0684679 -2.23666e-20)
(0.178772 0.0282291 0)
(0.0339417 0.00537131 -9.16923e-24)
(-0.00694379 -0.000937336 0)
(0.264845 0.0545988 1.43479e-19)
(1.12189 0.22217 -6.68948e-20)
(1.31137 0.272469 -4.71513e-20)
(1.35499 0.292796 1.60946e-20)
(1.32585 0.304122 -2.67887e-20)
(1.26889 0.307273 1.11226e-19)
(1.21155 0.307339 5.11072e-20)
(1.15472 0.303973 0)
(1.09825 0.295701 -1.55316e-19)
(1.0433 0.280778 0)
(0.99892 0.260899 -6.66842e-20)
(0.971268 0.241804 -8.14179e-20)
(0.957749 0.225764 -4.86813e-20)
(0.942425 0.209392 -5.88161e-20)
(0.866527 0.183139 0)
(0.668949 0.135258 0)
(0.400701 0.0785199 -1.45444e-19)
(0.169901 0.0326424 2.87705e-20)
(0.030815 0.00563682 -1.68505e-20)
(-0.00800214 -0.00156828 -1.97132e-20)
(0.257567 0.0669447 -7.23167e-20)
(1.13368 0.28054 0)
(1.32427 0.33784 1.03886e-19)
(1.36436 0.359101 4.71298e-20)
(1.33074 0.366776 6.07673e-20)
(1.27047 0.365502 0)
(1.20948 0.361151 5.09443e-20)
(1.14862 0.353461 9.34526e-20)
(1.08785 0.340869 8.01896e-20)
(1.02849 0.321594 1.43621e-19)
(0.980276 0.297924 0)
(0.949751 0.275997 -1.75689e-19)
(0.933735 0.257753 -1.05241e-19)
(0.914867 0.238787 -6.20831e-20)
(0.837576 0.208269 3.78522e-19)
(0.646344 0.154683 4.49589e-20)
(0.392525 0.0918693 2.10998e-19)
(0.173276 0.0394404 -9.99488e-19)
(0.0351004 0.00746897 5.91682e-19)
(-0.0072937 -0.00183885 -7.13118e-19)
(0.25069 0.0781015 -5.32164e-20)
(1.13634 0.337063 1.36595e-20)
(1.32966 0.402461 -1.30555e-20)
(1.36729 0.425005 -5.36874e-20)
(1.33037 0.429217 -5.48167e-20)
(1.26762 0.423709 1.80372e-21)
(1.20376 0.415098 -5.51007e-20)
(1.13956 0.403182 9.73509e-20)
(1.0751 0.386323 -1.72589e-19)
(1.01183 0.362747 0)
(0.960101 0.335242 -7.99854e-20)
(0.926812 0.310372 -1.62509e-21)
(0.90836 0.289849 -1.14969e-19)
(0.88691 0.26873 0)
(0.810573 0.234395 -8.20858e-20)
(0.628987 0.176132 -1.94613e-19)
(0.391261 0.107412 5.18763e-19)
(0.181618 0.0486924 -5.10505e-19)
(0.0436293 0.0111651 7.2566e-19)
(-0.00516898 -0.00159951 -7.53953e-19)
(0.245002 0.0884719 -5.05127e-22)
(1.1334 0.39108 -1.01995e-20)
(1.32965 0.465301 -4.54102e-20)
(1.36522 0.489342 2.42048e-20)
(1.32581 0.490416 -2.8126e-20)
(1.26117 0.480946 0)
(1.19498 0.468321 -5.28068e-20)
(1.12797 0.452379 -1.02389e-19)
(1.06033 0.43143 -9.01697e-20)
(0.993585 0.403653 0)
(0.9386 0.372256 -8.34198e-20)
(0.902732 0.34449 -1.0226e-19)
(0.882147 0.322047 1.2465e-19)
(0.858577 0.298926 -7.53271e-20)
(0.783755 0.261283 -3.58413e-19)
(0.613288 0.198704 2.12762e-19)
(0.391295 0.124225 6.33738e-20)
(0.191303 0.0594571 0)
(0.0534102 0.0162697 -7.01958e-19)
(-0.0024584 -0.000941076 -2.57468e-20)
(0.240614 0.0983832 -4.35116e-21)
(1.12712 0.442429 8.11521e-21)
(1.32573 0.525803 2.29359e-20)
(1.35936 0.551417 8.26181e-20)
(1.318 0.549709 -1.08784e-19)
(1.2519 0.536616 1.14295e-19)
(1.18382 0.520273 1.13621e-19)
(1.11441 0.500567 -1.6378e-19)
(1.04398 0.475745 5.44794e-20)
(0.974055 0.44391 -3.53539e-19)
(0.916048 0.408761 -9.37224e-20)
(0.877905 0.378408 0)
(0.855422 0.354187 1.35076e-19)
(0.830052 0.328928 1.614e-19)
(0.756788 0.288238 1.92867e-19)
(0.596932 0.22181 -2.31124e-19)
(0.389222 0.141869 -6.84331e-20)
(0.198677 0.071388 8.0416e-20)
(0.0621976 0.0221553 0)
(0.000285142 1.49874e-05 -5.58779e-20)
(0.237391 0.107931 2.35062e-20)
(1.11908 0.491161 -2.31038e-20)
(1.31922 0.584124 -2.27695e-20)
(1.35071 0.610866 5.35687e-20)
(1.30774 0.606683 -5.20138e-20)
(1.24052 0.590309 -4.09241e-21)
(1.17087 0.570596 -1.23611e-19)
(1.0994 0.547443 -5.91163e-20)
(1.02644 0.518997 -1.56472e-19)
(0.953581 0.483297 2.9598e-22)
(0.892818 0.444695 -2.94485e-19)
(0.852618 0.411886 2.45382e-19)
(0.828326 0.385653 -1.4806e-19)
(0.801341 0.358154 1.77464e-19)
(0.729569 0.314451 0)
(0.578998 0.243954 -1.25423e-19)
(0.383907 0.159163 -7.78267e-23)
(0.202417 0.0830815 -3.5033e-19)
(0.0684712 0.0279796 -5.1473e-20)
(0.00253697 0.00102354 0)
(0.235232 0.117325 0)
(1.11022 0.537484 -2.09982e-20)
(1.31073 0.639844 -3.71131e-20)
(1.34005 0.667504 -5.24745e-20)
(1.2957 0.661105 -6.22058e-20)
(1.2276 0.641795 0)
(1.15665 0.619067 -5.81863e-20)
(1.08337 0.592802 -1.10141e-21)
(1.00811 0.561034 3.35251e-19)
(0.932506 0.521708 -4.88458e-20)
(0.869175 0.47986 -2.12324e-19)
(0.827023 0.444387 1.28018e-19)
(0.801012 0.4158 -2.19872e-21)
(0.772682 0.386111 1.88791e-19)
(0.701915 0.339162 1.15959e-19)
(0.559132 0.264262 -2.70717e-19)
(0.375207 0.175035 3.20369e-19)
(0.201768 0.0935037 9.47646e-20)
(0.0714474 0.0329386 3.91127e-19)
(0.00402671 0.00187648 -1.04472e-18)
(0.234033 0.126705 -2.66408e-21)
(1.10117 0.581575 -3.0686e-21)
(1.30093 0.692805 7.45543e-21)
(1.32799 0.72128 4.78256e-20)
(1.28243 0.712865 0)
(1.21363 0.690945 -5.68887e-20)
(1.14158 0.665558 1.93356e-19)
(1.06671 0.636521 1.30506e-19)
(0.989319 0.601743 0)
(0.911099 0.559075 -6.9993e-19)
(0.845266 0.513981 5.73398e-19)
(0.801189 0.475542 0)
(0.773653 0.444526 1.72575e-19)
(0.744103 0.412702 -2.20818e-21)
(0.673656 0.361979 -3.70645e-19)
(0.537326 0.282307 1.45089e-19)
(0.363282 0.188794 0)
(0.197239 0.101807 5.10715e-19)
(0.0710979 0.0364288 0)
(0.00470585 0.00242735 -4.93671e-19)
(0.233614 0.136089 6.21202e-21)
(1.09229 0.623588 4.80208e-21)
(1.29022 0.743024 9.71841e-21)
(1.31501 0.772203 0)
(1.26837 0.761947 -5.85574e-20)
(1.19901 0.73772 0)
(1.12603 0.710001 -1.94282e-19)
(1.04972 0.678521 -6.22063e-20)
(0.970333 0.641055 5.98403e-20)
(0.889586 0.595327 -3.46088e-19)
(0.821206 0.54692 5.9456e-20)
(0.775203 0.505387 0)
(0.746361 0.47211 -3.6849e-19)
(0.715478 0.437901 2.19931e-21)
(0.644619 0.382605 0)
(0.51363 0.297945 1.60069e-21)
(0.34816 0.199696 4.66426e-19)
(0.189068 0.10749 -4.40743e-19)
(0.0680937 0.0381291 1.29906e-19)
(0.00459676 0.00258115 0)
(0.233623 0.145365 0)
(1.08379 0.663546 1.14843e-20)
(1.27899 0.790592 -9.13657e-22)
(1.30149 0.820334 -2.47404e-21)
(1.25389 0.808379 -2.40751e-20)
(1.18407 0.782121 -1.28202e-19)
(1.11029 0.752377 7.19247e-20)
(1.03268 0.718764 -7.20137e-20)
(0.951405 0.678925 2.65157e-19)
(0.868147 0.630413 -5.53134e-19)
(0.7971 0.578709 -3.7887e-21)
(0.749155 0.534204 -1.62364e-19)
(0.719087 0.498754 5.9706e-19)
(0.686552 0.461398 -2.57367e-21)
(0.614834 0.40059 -2.86861e-19)
(0.488142 0.310721 -5.11068e-19)
(0.330275 0.207589 0)
(0.177701 0.1104 0)
(0.0629175 0.0382862 1.3996e-19)
(0.00401291 0.00243865 -8.21463e-20)
(0.234201 0.154644 1.53988e-20)
(1.07581 0.701468 -3.23209e-20)
(1.26752 0.835589 6.28052e-22)
(1.28773 0.86572 0)
(1.23925 0.852217 -1.5828e-21)
(1.16908 0.824179 -1.23234e-19)
(1.09462 0.792691 1.77685e-19)
(1.01581 0.757229 2.87799e-19)
(0.932738 0.715339 3.45949e-19)
(0.846951 0.664325 -4.5275e-19)
(0.773089 0.609503 -4.92098e-19)
(0.723105 0.56228 4.34142e-19)
(0.691689 0.524393 0)
(0.657111 0.482702 -1.30348e-19)
(0.584428 0.415688 -3.09832e-19)
(0.461463 0.320565 -3.66672e-19)
(0.30998 0.212291 -4.33809e-19)
(0.163629 0.110498 1.28143e-19)
(0.0558307 0.036802 -7.53877e-20)
(0.00306155 0.00201073 2.68658e-22)
(0.235039 0.163739 0)
(1.06839 0.737759 0)
(1.25598 0.878101 2.62383e-21)
(1.27392 0.908454 0)
(1.22467 0.893547 6.74684e-20)
(1.15424 0.863955 8.85792e-20)
(1.07919 0.830963 0)
(0.999291 0.793917 3.49445e-20)
(0.914508 0.750288 5.79132e-19)
(0.826168 0.697087 -1.04008e-18)
(0.749338 0.6395 0)
(0.697112 0.589773 -2.79162e-19)
(0.663979 0.548747 -3.05158e-21)
(0.627029 0.501462 -2.42089e-21)
(0.553602 0.427932 3.31038e-19)
(0.433922 0.32745 -2.40685e-22)
(0.287543 0.213635 -9.32981e-19)
(0.147509 0.107756 2.75339e-19)
(0.0476972 0.033878 8.13483e-20)
(0.00190582 0.00137521 0)
(0.23591 0.172702 -7.87931e-20)
(1.0613 0.772395 -3.17702e-20)
(1.24445 0.918182 -2.424e-20)
(1.26025 0.948632 -3.06681e-20)
(1.21033 0.932438 1.03875e-19)
(1.1397 0.901507 0)
(1.06415 0.867231 1.10507e-19)
(0.983269 0.828845 -7.71205e-20)
(0.896858 0.783784 3.9111e-21)
(0.805959 0.728749 7.62427e-20)
(0.726006 0.668861 6.37338e-19)
(0.671213 0.616714 -9.80791e-20)
(0.635812 0.571591 -3.6736e-19)
(0.59627 0.517592 -1.51418e-19)
(0.522516 0.437345 1.79523e-19)
(0.405814 0.33109 -5.383e-23)
(0.263854 0.211462 2.50978e-19)
(0.130441 0.102445 -5.91671e-19)
(0.0392709 0.0299127 6.99167e-19)
(0.000704866 0.000611661 1.01978e-19)
(0.236567 0.181432 3.2407e-20)
(1.05456 0.805458 -1.96515e-20)
(1.23309 0.955946 6.35177e-21)
(1.24685 0.986375 -4.03444e-21)
(1.19635 0.969002 -1.52576e-20)
(1.12557 0.936904 -1.59111e-19)
(1.04963 0.901537 3.38814e-20)
(0.967856 0.86203 -3.22851e-19)
(0.879915 0.815823 -6.41042e-19)
(0.786467 0.75934 -6.21132e-19)
(0.703255 0.697674 0)
(0.645454 0.643067 -4.29122e-19)
(0.607115 0.592893 5.28618e-19)
(0.56476 0.531239 0)
(0.491067 0.443753 -3.84191e-19)
(0.377362 0.330918 2.28626e-19)
(0.239979 0.205577 -2.69451e-19)
(0.11377 0.095003 -3.17929e-19)
(0.0313483 0.0253914 -5.62541e-19)
(-0.000396605 -0.000170919 -4.38553e-19)
(0.237548 0.190013 -3.9038e-20)
(1.04802 0.836924 2.10742e-20)
(1.22194 0.991448 4.33841e-20)
(1.23381 1.02177 3.83837e-21)
(1.18281 1.00333 3.64104e-20)
(1.11196 0.970228 -9.13998e-20)
(1.03569 0.933928 1.11616e-19)
(0.953136 0.893514 -3.33969e-19)
(0.863759 0.846429 -3.80191e-19)
(0.767823 0.788898 6.51263e-19)
(0.681219 0.725964 1.39984e-18)
(0.619904 0.668802 0)
(0.57789 0.612853 0)
(0.532311 0.542773 -1.74136e-19)
(0.45879 0.44685 0)
(0.348568 0.325999 4.91156e-19)
(0.217163 0.195287 5.78823e-19)
(0.0994641 0.0855569 0)
(0.0251504 0.0207929 0)
(-0.00127372 -0.000874766 4.70705e-19)
(0.238166 0.198112 4.71629e-20)
(1.04169 0.86678 3.74073e-20)
(1.21109 1.0248 3.28462e-20)
(1.22117 1.05495 -1.53416e-20)
(1.16977 1.03553 3.12698e-20)
(1.0989 1.00155 1.01455e-19)
(1.0224 0.964457 -1.54467e-19)
(0.939171 0.923324 -8.96214e-23)
(0.848469 0.875607 -5.08597e-21)
(0.750131 0.81743 -5.18941e-21)
(0.660037 0.753715 7.20996e-19)
(0.594672 0.693925 0)
(0.548235 0.631845 5.33934e-19)
(0.498671 0.552754 3.71351e-19)
(0.424795 0.446556 8.93555e-19)
(0.318745 0.315031 2.64117e-19)
(0.196653 0.17827 -3.1124e-19)
(0.0915732 0.0716742 -1.82846e-19)
(0.0256865 0.0150424 0)
(-0.000707091 -0.00123588 5.05169e-19)
(0.239101 0.206219 -1.11917e-19)
(1.03555 0.895173 0)
(1.20052 1.05605 4.49128e-20)
(1.20897 1.08599 -1.75358e-20)
(1.15729 1.06569 -2.15487e-20)
(1.08644 1.03095 -1.21226e-19)
(1.00981 0.99318 3.07411e-19)
(0.925996 0.951494 -2.67859e-20)
(0.834086 0.903369 0)
(0.733471 0.844905 -7.2087e-19)
(0.639839 0.780874 -1.56904e-18)
(0.569915 0.718502 6.34444e-20)
(0.518343 0.650294 7.35386e-19)
(0.463663 0.561905 0)
(0.387891 0.44348 6.01972e-19)
(0.285575 0.297105 0)
(0.176718 0.149349 0)
(0.0951008 0.039433 -1.97447e-19)
(0.0570231 -0.00599079 0)
(0.0272451 0.0070919 1.35224e-19)
(0.239581 0.213727 -1.29869e-19)
(1.02958 0.922296 0)
(1.19024 1.0854 7.9953e-20)
(1.19716 1.11513 0)
(1.14532 1.09407 6.29265e-21)
(1.07452 1.05872 0)
(0.997838 1.02041 1.64161e-20)
(0.913519 0.978368 4.61914e-20)
(0.820491 0.930086 4.76428e-20)
(0.717678 0.871706 -7.92173e-19)
(0.620445 0.807851 4.7382e-20)
(0.545395 0.743171 5.08964e-19)
(0.48787 0.669038 7.16987e-19)
(0.426442 0.571096 9.62239e-20)
(0.346272 0.439305 4.7089e-19)
(0.244387 0.273412 0)
(0.146621 0.105233 6.54311e-19)
(0.080963 -0.00720239 -3.83189e-19)
(0.0329603 0.0587309 4.4424e-19)
(-0.038213 0.453934 -5.29504e-19)
(0.239992 0.221058 1.10371e-19)
(1.02355 0.948038 1.63208e-19)
(1.18016 1.11318 0)
(1.18562 1.14282 5.30358e-21)
(1.13368 1.12127 -5.67729e-21)
(1.06287 1.08554 1.76435e-19)
(0.986182 1.04695 1.10703e-19)
(0.901334 1.0049 0)
(0.807161 0.956873 3.19925e-19)
(0.702079 0.899158 -4.18176e-20)
(0.600935 0.836114 0)
(0.519864 0.769661 0)
(0.455019 0.689686 6.41699e-19)
(0.384745 0.581164 -2.96515e-19)
(0.296924 0.436139 -4.76136e-19)
(0.191129 0.247692 0)
(0.0828799 0.11092 3.2883e-19)
(0.00764961 0.46588 -3.81115e-19)
(0.0322755 1.92121 -2.14643e-19)
(0.0588235 2.82214 -2.69755e-19)
(0.240008 0.227801 -8.62355e-20)
(1.01752 0.97257 -2.15657e-19)
(1.17032 1.13937 5.11519e-20)
(1.17433 1.16891 3.1254e-20)
(1.12243 1.14707 0)
(1.05159 1.11114 1.10764e-19)
(0.975049 1.07249 1.5695e-19)
(0.88963 1.03066 -2.27505e-20)
(0.794368 0.983209 4.75298e-20)
(0.687053 0.926632 7.57408e-19)
(0.581908 0.864915 7.95013e-19)
(0.494305 0.797744 5.70755e-19)
(0.420758 0.71233 6.44958e-19)
(0.340168 0.591173 -6.95023e-19)
(0.246384 0.437188 -7.17847e-19)
(0.124279 0.291073 0)
(0.0424997 0.871094 0)
(0.090325 2.57639 1.83695e-19)
(0.0926263 3.20925 0)
(0.0936752 3.38869 4.48701e-19)
(0.242744 0.234033 0)
(1.01172 0.996241 0)
(1.16042 1.16384 0)
(1.16307 1.19325 1.14688e-20)
(1.11126 1.17124 -3.48422e-22)
(1.04047 1.13537 6.64294e-20)
(0.964363 1.09694 1.02922e-19)
(0.878337 1.05551 -2.24234e-20)
(0.78205 1.00892 4.03917e-19)
(0.672588 0.953951 -9.60381e-21)
(0.563434 0.893992 1.57398e-18)
(0.46913 0.82755 -6.56049e-20)
(0.385146 0.737747 7.84627e-20)
(0.294912 0.599085 1.00445e-19)
(0.185436 0.455283 -1.74404e-21)
(0.096915 1.01078 1.69161e-21)
(0.128791 2.75682 -9.59757e-19)
(0.13354 3.30095 -3.62097e-19)
(0.123274 3.42471 1.90661e-19)
(0.111945 3.44463 -2.13536e-19)
(0.164994 0.178739 5.33553e-20)
(1.00211 1.02193 0)
(1.15034 1.18685 -1.1346e-19)
(1.1522 1.21615 -9.7094e-20)
(1.10064 1.19428 3.19831e-20)
(1.03017 1.15871 -6.3883e-20)
(0.953997 1.12022 -1.08944e-19)
(0.867531 1.07946 2.60771e-19)
(0.770312 1.03405 -3.33337e-19)
(0.658887 0.98121 0)
(0.545774 0.923374 7.7645e-19)
(0.444927 0.85892 -4.66809e-19)
(0.348576 0.769123 0)
(0.242872 0.609416 9.41109e-20)
(0.138387 0.800314 2.27565e-19)
(0.14283 2.5571 -2.63087e-19)
(0.192062 3.33096 2.97402e-19)
(0.173781 3.43719 1.63594e-19)
(0.143597 3.45562 1.85627e-19)
(0.123878 3.46406 3.04426e-19)
(0.278579 0.273467 -1.00047e-19)
(0.985835 1.03327 0)
(1.13275 1.21338 1.30621e-19)
(1.13798 1.2491 1.21651e-19)
(1.08383 1.2283 -5.65451e-20)
(1.01285 1.19316 3.75962e-20)
(0.935527 1.15618 1.18169e-19)
(0.848539 1.11677 2.02035e-20)
(0.749975 1.07367 3.23071e-19)
(0.63582 1.02503 6.6342e-19)
(0.517231 0.972216 4.42655e-20)
(0.40536 0.91171 4.16092e-19)
(0.283418 0.815789 7.35665e-20)
(0.207118 0.974888 -9.26879e-20)
(0.212937 2.43008 -2.09887e-19)
(0.263619 3.33772 2.09347e-19)
(0.246746 3.46525 -2.3742e-19)
(0.212143 3.4831 -1.38684e-19)
(0.178221 3.50678 -1.27614e-19)
(0.133383 3.50043 -1.48346e-20)
(0.269089 0.272629 0)
(0.983609 1.05684 4.23637e-20)
(1.12466 1.23745 -2.84207e-20)
(1.12761 1.27302 -1.61416e-20)
(1.07322 1.25191 -4.82715e-20)
(1.0023 1.21697 -3.01038e-20)
(0.924694 1.18024 -6.73917e-20)
(0.837501 1.14172 1.84344e-20)
(0.738401 1.10016 -3.39534e-19)
(0.62295 1.05443 -1.43788e-20)
(0.501357 1.00542 -1.41462e-18)
(0.384011 0.94779 5.92393e-20)
(0.272986 0.891188 -6.97508e-20)
(0.241415 1.56684 -8.63384e-20)
(0.302378 3.14633 1.75279e-20)
(0.316654 3.46894 1.73133e-21)
(0.274909 3.51528 3.72761e-19)
(0.240842 3.53692 1.94681e-19)
(0.195252 3.55599 -7.18293e-20)
(0.145558 3.55141 -7.96063e-20)
(0.255066 0.270827 1.11817e-19)
(0.980513 1.08307 2.93153e-19)
(1.11619 1.26364 -8.21978e-20)
(1.11679 1.29848 -6.09456e-20)
(1.06218 1.27701 0)
(0.991408 1.24208 -6.82196e-21)
(0.913762 1.20564 -8.17804e-20)
(0.826618 1.16796 1.65491e-20)
(0.727287 1.12801 -3.75447e-20)
(0.611039 1.08534 -6.09423e-19)
(0.487308 1.04052 -6.5722e-19)
(0.365271 0.986123 -4.88748e-19)
(0.273474 1.03544 -5.30511e-19)
(0.304459 2.31293 5.41865e-19)
(0.381017 3.39735 4.67503e-19)
(0.354479 3.52664 0)
(0.306345 3.56136 0)
(0.269602 3.59366 -5.93916e-20)
(0.225147 3.63819 0)
(0.15628 3.6214 -9.80211e-20)
(0.245129 0.272922 -1.72223e-19)
(0.97545 1.11023 -2.55166e-19)
(1.10636 1.29114 0)
(1.10477 1.32484 6.39339e-21)
(1.04996 1.30279 -6.99916e-20)
(0.979464 1.26778 1.6849e-20)
(0.902099 1.23165 -4.30723e-20)
(0.815224 1.19472 1.12528e-20)
(0.715915 1.15634 -2.48213e-19)
(0.599272 1.11664 3.11841e-20)
(0.474254 1.07605 0)
(0.350007 1.03043 0)
(0.298555 1.32299 -4.86575e-19)
(0.380578 2.97666 1.97356e-19)
(0.444886 3.49789 2.62407e-19)
(0.392592 3.56134 0)