/*--------------------------------*- C++ -*----------------------------------*\
  =========                 |
  \\      /  F ield         | OpenFOAM: The Open Source CFD Toolbox
   \\    /   O peration     | Website:  https://openfoam.org
    \\  /    A nd           | Version:  6
     \\/     M anipulation  |
\*---------------------------------------------------------------------------*/
FoamFile
{
    version     2.0;
    format      ascii;
    class       surfaceScalarField;
    location    "48";
    object      phi;
}
// * * * * * * * * * * * * * * * * * * * * * * * * * * * * * * * * * * * * * //

dimensions      [0 3 -1 0 0 0 0];

internalField   nonuniform List<scalar> 
4262
(
0.106802
0.471186
0.0925552
0.707833
0.064826
0.860032
0.0424177
1.02117
0.0263921
1.21454
0.0162983
1.44831
0.0100237
1.73214
0.00586488
2.0752
0.00270177
2.48841
-0.000333286
2.98533
-0.00335931
2.98532
-0.00643947
2.48832
-0.0104745
2.07507
-0.0167153
1.7321
-0.0267645
1.44827
-0.0426402
1.21439
-0.0648942
1.02102
-0.0925306
0.859939
-0.106844
0.7079
0.471144
0.114771
0.356415
0.139916
0.682688
0.125214
0.874734
0.101621
1.04477
0.0734734
1.24269
0.0476976
1.47409
0.0275734
1.75226
0.0136391
2.08913
0.00482665
2.49722
-0.000999046
2.99115
-0.0067119
2.99103
-0.0156567
2.49727
-0.0295416
2.08896
-0.0494187
1.75198
-0.0749103
1.47376
-0.102981
1.24246
-0.126569
1.04461
-0.140656
0.874026
-0.115147
0.682391
0.355997
0.0917422
0.264673
0.126383
0.648048
0.12496
0.876157
0.111106
1.05862
0.0965779
1.25722
0.0765866
1.49408
0.0543937
1.77446
0.0330001
2.11052
0.0140872
2.51613
-0.00194615
3.00719
-0.0181776
3.00726
-0.0366654
2.51576
-0.0576314
2.10992
-0.0793536
1.7737
-0.0988796
1.49329
-0.112784
1.25637
-0.125922
1.05774
-0.127517
0.875621
-0.0922704
0.647144
0.263726
0.0628461
0.201827
0.104029
0.606864
0.106761
0.873426
0.0971464
1.06823
0.085987
1.26838
0.0751308
1.50494
0.0601336
1.78945
0.0411313
2.12953
0.0199468
2.53732
-0.00312045
3.03025
-0.0257769
3.02992
-0.0463628
2.53634
-0.06471
2.12827
-0.0790651
1.78806
-0.08934
1.50356
-0.100108
1.26713
-0.109387
1.06702
-0.105906
0.87214
-0.0636719
0.60491
0.200054
0.037007
0.16482
0.079347
0.564524
0.0897434
0.863029
0.0829787
1.075
0.0716847
1.27967
0.0625016
1.51412
0.0521875
1.79977
0.0381786
2.14353
0.0196146
2.55588
-0.00393782
3.05381
-0.0271675
3.05315
-0.0451277
2.5543
-0.0583175
2.14146
-0.0678129
1.79755
-0.0762177
1.51197
-0.0867977
1.27771
-0.0927752
1.073
-0.0812764
0.860641
-0.037691
0.561325
0.162363
0.0196045
0.145215
0.0567814
0.527347
0.071846
0.847965
0.0693124
1.07753
0.0602458
1.28874
0.0502016
1.52416
0.0405947
1.80937
0.0294085
2.15472
0.0146089
2.57068
-0.00543067
3.07385
-0.024987
3.07271
-0.0387882
2.5681
-0.0489774
2.15165
-0.0574812
1.80606
-0.0664922
1.52098
-0.0744931
1.28572
-0.0758797
1.07439
-0.0592462
0.844008
-0.0203767
0.522455
0.141986
0.0108176
0.134397
0.042288
0.495877
0.0579783
0.832274
0.0577411
1.07777
0.0508411
1.29564
0.0408521
1.53415
0.0310673
1.81916
0.0207435
2.16504
0.00842141
2.583
-0.00687748
3.08914
-0.0215755
3.0874
-0.0327926
2.57932
-0.0417149
2.16057
-0.0500063
1.81435
-0.0587668
1.52974
-0.0643005
1.29125
-0.0630568
1.07314
-0.0453793
0.82633
-0.0117782
0.488854
0.130208
0.00670973
0.127688
0.0330402
0.469547
0.0489005
0.816414
0.0499421
1.07673
0.0443622
1.30122
0.0352369
1.54328
0.0250911
1.8293
0.0147271
2.17541
0.00370157
2.59403
-0.0084015
3.10125
-0.0201205
3.09912
-0.0300346
2.58923
-0.0386396
2.16918
-0.0467643
1.82247
-0.0541986
1.53717
-0.0580569
1.29511
-0.0551374
1.07022
-0.0367968
0.80799
-0.00785644
0.459914
0.122352
0.00478043
0.122907
0.0267006
0.447626
0.0423265
0.800788
0.0441089
1.07494
0.0392186
1.30611
0.0313724
1.55112
0.0218979
1.83878
0.011452
2.18585
0.000522593
2.60496
-0.0107989
3.11257
-0.0213323
3.10966
-0.0304386
2.59834
-0.0388203
2.17756
-0.046355
1.83001
-0.0522614
1.54308
-0.0551359
1.29798
-0.050655
1.06574
-0.0315627
0.788897
-0.00627394
0.434625
0.116078
0.00388767
0.11902
0.0221411
0.429373
0.0375512
0.785378
0.0403611
1.07213
0.0358629
1.31061
0.0282095
1.55878
0.0190037
1.84798
0.00872024
2.19614
-0.00196982
2.61565
-0.0130867
3.12369
-0.0234242
3.11999
-0.0323532
2.60727
-0.0400877
2.18529
-0.0467232
1.83664
-0.0517749
1.54813
-0.0533339
1.29954
-0.0473327
1.05974
-0.0278456
0.76941
-0.00567553
0.412455
0.110402
0.00317616
0.115843
0.0178213
0.414728
0.031925
0.771274
0.0351054
1.06895
0.0311648
1.31455
0.0242135
1.56573
0.0158779
1.85632
0.00615481
2.20586
-0.00497077
2.62677
-0.0167198
3.13543
-0.0272139
3.13049
-0.035706
2.61576
-0.042636
2.19222
-0.0479112
1.84192
-0.0516988
1.55192
-0.0520589
1.2999
-0.0446721
1.05236
-0.0250814
0.749819
-0.00540492
0.392779
0.104997
0.00250942
0.113334
0.0143076
0.40293
0.0272443
0.758338
0.0306348
1.06556
0.0269507
1.31823
0.0203528
1.57233
0.0123844
1.86429
0.00288141
2.21536
-0.0080872
2.63774
-0.0200999
3.14745
-0.0312908
3.14168
-0.0394133
2.62388
-0.045246
2.19805
-0.0494177
1.84609
-0.0522003
1.5547
-0.0516668
1.29937
-0.0427735
1.04346
-0.023062
0.730108
-0.00522826
0.374945
0.0997692
0.0017911
0.111543
0.0108631
0.393858
0.0220356
0.747165
0.0251151
1.06248
0.0215015
1.32184
0.0149705
1.57886
0.00692472
1.87233
-0.00251789
2.22481
-0.0133929
2.64862
-0.0254945
3.15955
-0.0357789
3.15196
-0.0428879
2.63099
-0.0478493
2.20302
-0.0514653
1.84971
-0.0529406
1.55618
-0.0513502
1.29778
-0.0413278
1.03344
-0.021645
0.710425
-0.00512336
0.358423
0.0946458
0.000958716
0.110584
0.00757796
0.387238
0.0170234
0.73772
0.0195047
1.06
0.0153638
1.32599
0.00816986
1.58605
-0.000235929
1.88074
-0.00957206
2.23414
-0.0198758
2.65892
-0.0309255
3.1706
-0.0403115
3.16135
-0.0463962
2.63708
-0.0500958
2.20672
-0.0528656
1.85248
-0.0537916
1.5571
-0.0516067
1.29559
-0.0404084
1.02224
-0.020545
0.690562
-0.0049762
0.342855
0.0896696
9.64661e-05
0.110488
0.00400744
0.383327
0.0108408
0.730886
0.0120429
1.0588
0.00748029
1.33055
0.000313914
1.59322
-0.00821401
1.88927
-0.0176571
2.24359
-0.0280386
2.6693
-0.0386881
3.18125
-0.0466367
3.1693
-0.0512913
2.64173
-0.054062
2.20949
-0.0559162
1.85433
-0.055988
1.55717
-0.0523011
1.29191
-0.0399264
1.00987
-0.0198733
0.670509
-0.00495347
0.327935
0.0847161
-0.000963292
0.111451
4.75384e-05
0.382317
0.00482097
0.726113
0.00537142
1.05825
0.000179273
1.33574
-0.007954
1.60135
-0.0171737
1.89849
-0.0269043
2.25332
-0.0369535
2.67935
-0.0465274
3.19082
-0.0539337
3.1767
-0.0578413
2.64564
-0.059265
2.21091
-0.0598732
1.85494
-0.0589877
1.55629
-0.0538483
1.28677
-0.0399672
0.995985
-0.0195305
0.650072
-0.0049477
0.313352
0.0797684
-0.00187123
0.113322
-0.00308083
0.383526
-0.00175589
0.724788
-0.00347562
1.05997
-0.00948318
1.34175
-0.0176816
1.60955
-0.0273078
1.90811
-0.0377858
2.26379
-0.0485985
2.69016
-0.0585676
3.20079
-0.0648462
3.18298
-0.0672329
2.64803
-0.0678156
2.21149
-0.0669768
1.8541
-0.0644224
1.55373
-0.0574289
1.27977
-0.041568
0.980124
-0.0201959
0.6287
-0.00524835
0.298404
0.0745201
-0.00302747
0.11635
-0.00647245
0.386971
-0.00809515
0.726411
-0.0109118
1.06279
-0.0179012
1.34874
-0.0279293
1.61958
-0.0392082
1.91939
-0.050753
2.27534
-0.061755
2.70117
-0.0712951
3.21033
-0.0762776
3.18796
-0.07695
2.6487
-0.0757478
2.21029
-0.0742539
1.85261
-0.0704945
1.54997
-0.0616587
1.27094
-0.0438401
0.962306
-0.0212888
0.606148
-0.00562963
0.282745
0.0688905
-0.00438646
0.120736
-0.0108863
0.393471
-0.0160084
0.731533
-0.0221113
1.06889
-0.030529
1.35715
-0.0411433
1.63019
-0.0530975
1.93135
-0.0659312
2.28817
-0.0783586
2.71359
-0.0888034
3.22078
-0.0929532
3.19211
-0.0929522
2.6487
-0.0901514
2.20749
-0.0856643
1.84812
-0.0793162
1.54363
-0.0678347
1.25946
-0.0473972
0.941868
-0.0230314
0.581783
-0.00618056
0.265894
0.0627099
-0.00584164
0.126578
-0.0157773
0.403407
-0.0250531
0.740809
-0.0336341
1.07747
-0.0437561
1.36728
-0.0565041
1.64294
-0.070584
1.94543
-0.0853071
2.3029
-0.0990169
2.7273
-0.108993
3.23075
-0.110794
3.19391
-0.107087
2.64499
-0.10166
2.20206
-0.0961411
1.8426
-0.088451
1.53594
-0.0744216
1.24543
-0.0511317
0.918579
-0.0248155
0.555466
-0.00669515
0.247774
0.0560147
-0.0083379
0.134916
-0.023134
0.418203
-0.0379104
0.755585
-0.0502232
1.08978
-0.0624389
1.37949
-0.0768315
1.65733
-0.0928052
1.9614
-0.109584
2.31967
-0.124535
2.74225
-0.133534
3.23975
-0.133269
3.19365
-0.12842
2.64014
-0.120997
2.19464
-0.111847
1.83345
-0.100429
1.52452
-0.0827088
1.22771
-0.0558729
0.891743
-0.026986
0.526579
-0.00723096
0.228019
0.0487838
-0.0107678
0.145684
-0.0305463
0.437981
-0.0514497
0.776488
-0.0687763
1.10711
-0.0848636
1.39558
-0.103335
1.6758
-0.122982
1.98105
-0.14212
2.33881
-0.157038
2.75717
-0.163189
3.2459
-0.159107
3.18957
-0.149224
2.63026
-0.138089
2.1835
-0.126836
1.8222
-0.113501
1.51118
-0.0921764
1.20638
-0.0612648
0.860831
-0.0294514
0.494766
-0.00779345
0.206361
0.0409903
-0.0154859
0.161169
-0.043061
0.465556
-0.0710355
0.804463
-0.0934814
1.12956
-0.113384
1.41548
-0.135692
1.69811
-0.158797
2.00415
-0.179798
2.35981
-0.194225
2.7716
-0.197328
3.24901
-0.188815
3.18105
-0.176042
2.61749
-0.162646
2.17011
-0.14809
1.80764
-0.129661
1.49275
-0.103469
1.18019
-0.0680235
0.825386
-0.0324814
0.459224
-0.00836501
0.182245
0.0326253
-0.0194459
0.180615
-0.0553168
0.501427
-0.0923063
0.841452
-0.122457
1.15971
-0.149085
1.44211
-0.178475
1.7275
-0.205877
2.03155
-0.227574
2.38151
-0.239175
2.7832
-0.236634
3.24647
-0.222914
3.16733
-0.205379
2.59995
-0.187244
2.15197
-0.169348
1.78975
-0.148203
1.47161
-0.116959
1.14895
-0.07553
0.783957
-0.0353423
0.419036
-0.00867813
0.155581
0.0239472
-0.031602
0.212217
-0.0791834
0.549009
-0.126789
0.889058
-0.164712
1.19763
-0.198152
1.47555
-0.233565
1.76292
-0.262342
2.06033
-0.28129
2.40046
-0.287886
2.78979
-0.280643
3.23922
-0.262602
3.14929
-0.241426
2.57878
-0.220498
2.13105
-0.198508
1.76776
-0.170968
1.44407
-0.132781
1.11076
-0.0844257
0.735601
-0.0386469
0.373257
-0.00890454
0.125838
0.0150427
-0.0452085
0.257426
-0.117775
0.621575
-0.181621
0.952903
-0.227229
1.24324
-0.268632
1.51695
-0.305883
1.80017
-0.330306
2.08475
-0.343037
2.41319
-0.343765
2.79052
-0.330123
3.22558
-0.305345
3.12451
-0.278237
2.55167
-0.251029
2.10384
-0.223351
1.74008
-0.190756
1.41147
-0.145606
1.06561
-0.0901341
0.680129
-0.0395099
0.322633
-0.00880115
0.0951295
0.00624151
-0.0322391
0.289665
-0.0965148
0.685851
-0.155722
1.01211
-0.205306
1.29282
-0.256177
1.56782
-0.296247
1.84024
-0.331852
2.12036
-0.361404
2.44274
-0.380468
2.80959
-0.385189
3.2303
-0.374607
3.11393
-0.352144
2.5292
-0.32312
2.07481
-0.286375
1.70333
-0.236877
1.36197
-0.171544
1.00028
-0.0979344
0.606519
-0.0382651
0.262964
-0.00843562
0.0653001
-0.00219411
-0.0136385
0.303304
-0.0478417
0.720054
-0.0870638
1.05133
-0.12648
1.33224
-0.164454
1.6058
-0.197123
1.87291
-0.227622
2.15086
-0.253552
2.46867
-0.270723
2.82676
-0.272541
3.23212
-0.255548
3.09694
-0.23068
2.50434
-0.201564
2.0457
-0.16851
1.67028
-0.129663
1.32313
-0.0828792
0.953493
-0.0375801
0.56122
-0.01216
0.237544
-0.00283967
0.0559797
-0.00503379
-0.00324767
0.306551
-0.0237417
0.740548
-0.0509367
1.07853
-0.0782435
1.35955
-0.104213
1.63177
-0.131084
1.89978
-0.158176
2.17795
-0.181945
2.49244
-0.19718
2.84199
-0.197013
3.23195
-0.18089
3.08082
-0.155764
2.47921
-0.125109
2.01504
-0.0923976
1.63757
-0.0561351
1.28686
-0.021989
0.919347
3.9043e-05
0.539192
0.00422813
0.233355
0.00125244
0.0589554
-0.00378134
0.000652131
0.305899
-0.0141014
0.755302
-0.0339485
1.09837
-0.0543512
1.37995
-0.073993
1.65141
-0.0950536
1.92084
-0.117053
2.19995
-0.136863
2.51225
-0.149287
2.85442
-0.149282
3.23195
-0.131983
3.06352
-0.104985
2.45221
-0.0756053
1.98566
-0.0437118
1.60568
-0.0154301
1.25858
0.00683481
0.897082
0.016111
0.529916
0.0119632
0.237502
0.00365824
0.0672604
-0.000123103
0.00301487
0.302884
-0.0068402
0.765157
-0.0238467
1.11538
-0.0418991
1.398
-0.0590398
1.66855
-0.0761752
1.93797
-0.0931859
2.21696
-0.107798
2.52686
-0.11633
2.86295
-0.114555
3.23017
-0.098217
3.04718
-0.0746935
2.42869
-0.0483868
1.95936
-0.0218076
1.5791
0.00495881
1.23182
0.0238042
0.878236
0.0263143
0.527406
0.016377
0.24744
0.00500525
0.0786321
0.00488215
0.00421183
0.298672
-0.00232133
0.77169
-0.0173782
1.13044
-0.0348211
1.41544
-0.0515985
1.68533
-0.0669249
1.9533
-0.0814158
2.23145
-0.0941981
2.53964
-0.102976
2.87173
-0.102021
3.22922
-0.0872475
3.03241
-0.0646491
2.40609
-0.038519
1.93323
-0.0117983
1.55238
0.0105108
1.20951
0.0250025
0.863745
0.0262022
0.526206
0.0160734
0.257569
0.00498787
0.0897177
0.00987003
0.00332944
0.295343
-0.00139537
0.776415
-0.0142425
1.14329
-0.0301276
1.43133
-0.0464341
1.70163
-0.0618332
1.9687
-0.0761071
2.24573
-0.0875835
2.55112
-0.0933166
2.87746
-0.0891857
3.22509
-0.0758928
3.01911
-0.0569376
2.38713
-0.0347132
1.911
-0.0127917
1.53045
0.00901619
1.1877
0.0227675
0.849993
0.022597
0.526377
0.0136014
0.266564
0.00422132
0.0990977
0.0140913
0.00206612
0.293277
-0.00195675
0.780438
-0.0130118
1.15434
-0.0275224
1.44584
-0.0433902
1.7175
-0.0590775
1.98439
-0.0738812
2.26053
-0.0860257
2.56327
-0.0934288
2.88486
-0.0923802
3.22404
-0.0791261
3.00586
-0.0593742
2.36738
-0.0378946
1.88952
-0.0151067
1.50767
0.0037911
1.1688
0.0155155
0.838269
0.0168528
0.525039
0.00998002
0.273437
0.00300126
0.106077
0.0170926
0.000542459
0.292734
-0.00381741
0.784798
-0.0137833
1.16431
-0.0267073
1.45876
-0.0414459
1.73224
-0.0572603
2.0002
-0.0733
2.27657
-0.0871301
2.5771
-0.0951155
2.89285
-0.0923603
3.22128
-0.079437
2.99293
-0.0618306
2.34978
-0.0423341
1.87003
-0.0234806
1.48881
-0.00436949
1.14969
0.00708522
0.826814
0.00861458
0.52351
0.00553124
0.27652
0.00194588
0.109662
0.0190385
-0.00102229
0.293757
-0.00564159
0.789417
-0.0148094
1.17347
-0.0268808
1.47083
-0.0410602
1.74642
-0.0568174
2.01596
-0.0735651
2.29332
-0.0890828
2.59261
-0.0996062
2.90337
-0.100001
3.22168
-0.087909
2.98084
-0.070215
2.33208
-0.052272
1.85208
-0.031165
1.46771
-0.0149151
1.13344
-0.00364637
0.815546
0.000861699
0.519002
0.000477511
0.276905
0.000380631
0.109759
0.0194191
-0.00238114
0.296138
-0.00767081
0.794707
-0.0165701
1.18237
-0.0278996
1.48216
-0.0413261
1.75985
-0.0567104
2.03134
-0.0738
2.31041
-0.090745
2.60956
-0.103669
2.9163
-0.106401
3.22441
-0.0954601
2.9699
-0.0780583
2.31468
-0.0589981
1.83302
-0.0418006
1.45051
-0.0242289
1.11587
-0.0117804
0.803097
-0.00575123
0.512973
-0.00259057
0.273744
-0.000551492
0.10772
0.0188676
-0.00345416
0.299592
-0.00920918
0.800462
-0.0179706
1.19113
-0.0290721
1.49327
-0.0422491
1.77302
-0.0572534
2.04635
-0.0742034
2.32736
-0.0920768
2.62743
-0.108167
2.93239
-0.115372
3.23162
-0.106241
2.96077
-0.088759
2.2972
-0.0695991
1.81386
-0.0493898
1.4303
-0.0334962
1.09998
-0.0206594
0.79026
-0.0114664
0.50378
-0.00559554
0.267873
-0.00147188
0.103596
0.0173957
-0.0041506
0.303743
-0.0106696
0.806981
-0.0195801
1.20005
-0.0304266
1.50411
-0.0431498
1.78575
-0.0576388
2.06083
-0.0742246
2.34394
-0.0923296
2.64554
-0.110357
2.95041
-0.122101
3.24336
-0.118374
2.95704
-0.100654
2.27948
-0.0763907
1.7896
-0.0570873
1.411
-0.0396331
1.08252
-0.0262592
0.776886
-0.0162493
0.49377
-0.00738388
0.259008
-0.00191151
0.0981236
0.0154842
-0.00469029
0.308433
-0.0117272
0.814017
-0.0206803
1.209
-0.0314547
1.51489
-0.044017
1.79831
-0.0580992
2.07492
-0.0741549
2.36
-0.092301
2.66368
-0.112424
2.97054
-0.129433
3.26037
-0.130017
2.95763
-0.113951
2.26341
-0.0893407
1.76499
-0.0625357
1.38419
-0.0451426
1.06513
-0.0310343
0.762778
-0.0185152
0.481251
-0.00840632
0.248899
-0.00198147
0.0916988
0.0135028
-0.00505997
0.313493
-0.0126433
0.821601
-0.0217135
1.21807
-0.0323037
1.52548
-0.0444944
1.8105
-0.0581091
2.08853
-0.0737529
2.37564
-0.0918196
2.68175
-0.112286
2.991
-0.131764
3.27985
-0.138047
2.96391
-0.125467
2.25083
-0.0976418
1.73716
-0.0693393
1.35589
-0.0461667
1.04196
-0.0314167
0.748028
-0.0199108
0.469745
-0.00851819
0.237506
-0.00166983
0.0848504
0.0118329
-0.00526826
0.318761
-0.0131627
0.829495
-0.0222184
1.22712
-0.0326856
1.53594
-0.0446686
1.82248
-0.0579335
2.1018
-0.0732839
2.39099
-0.0913432
2.69981
-0.112403
3.01206
-0.134419
3.30186
-0.144995
2.97449
-0.137085
2.24292
-0.113868
1.71395
-0.0789432
1.32096
-0.0479532
1.01097
-0.0277262
0.727801
-0.0148714
0.45689
-0.00581863
0.228453
-0.00105529
0.0800871
0.0107776
-0.00534004
0.324101
-0.0134763
0.837632
-0.0225838
1.23623
-0.0328297
1.54619
-0.0443459
1.834
-0.0572052
2.11466
-0.0725965
2.40638
-0.0909362
2.71815
-0.111753
3.03288
-0.133418
3.32353
-0.147395
2.98846
-0.144271
2.2398
-0.122167
1.69184
-0.090342
1.28914
-0.050242
0.970866
-0.0181072
0.695666
-0.00420817
0.442991
0.00247625
0.221769
0.00164993
0.0809134
0.0124276
-0.00531674
0.329418
-0.0135088
0.845824
-0.0225271
1.24525
-0.0325697
1.55623
-0.0436101
1.84504
-0.0562229
2.12727
-0.0718973
2.42206
-0.0905401
2.73679
-0.111396
3.05374
-0.133829
3.34596
-0.149674
3.00431
-0.150653
2.24078
-0.136501
1.67769
-0.102434
1.25507
-0.0579983
0.92643
-0.0104105
0.648078
0.0201558
0.412425
0.0233767
0.218548
0.00997284
0.0943172
0.0224004
-0.00518142
0.334599
-0.0133806
0.854023
-0.0223428
1.25421
-0.0321403
1.56603
-0.0423833
1.85528
-0.0548048
2.13969
-0.0710161
2.43827
-0.0902022
2.75598
-0.110838
3.07437
-0.132366
3.36749
-0.148717
3.02066
-0.153323
2.24538
-0.140304
1.66467
-0.113134
1.2279
-0.0647675
0.878064
-0.00740182
0.590713
0.0512082
0.353815
0.0758553
0.193901
0.0520226
0.11815
0.074423
-0.00500841
0.339608
-0.0126731
0.861687
-0.0208837
1.26242
-0.0302849
1.57543
-0.0419514
1.86695
-0.0561965
2.15394
-0.0735456
2.45562
-0.0935829
2.77601
-0.11525
3.09604
-0.137185
3.38942
-0.153059
3.03653
-0.156711
2.24904
-0.14932
1.65728
-0.120621
1.1992
-0.0751041
0.832547
-0.00251586
0.518125
0.0811481
0.270151
0.14341
0.131639
0.143321
0.118239
0.217744
-0.00488873
0.344496
-0.0122562
0.869055
-0.0202846
1.27045
-0.0298461
1.58499
-0.0421547
1.87926
-0.0573959
2.16918
-0.0759851
2.47421
-0.0978013
2.79783
-0.122124
3.12036
-0.147221
3.41452
-0.166672
3.05598
-0.175655
2.25802
-0.167857
1.64948
-0.144287
1.17563
-0.0900285
0.778289
-0.0308915
0.458988
-0.0717872
0.311047
-0.387294
0.447145
-1.00203
0.732977
0.927254
-1.71154
-0.0047432
0.34924
-0.0120696
0.876381
-0.0200918
1.27847
-0.029475
1.59438
-0.04101
1.89079
-0.0559447
2.18411
-0.0751516
2.49341
-0.0979042
2.82058
-0.123519
3.14598
-0.152203
3.4432
-0.178355
3.08214
-0.192942
2.27261
-0.198832
1.65537
-0.18182
1.15862
-0.156116
0.752584
-0.268385
0.571257
-0.762336
0.804998
-1.50966
1.19447
-2.09984
1.32316
1.20691
-2.3795
-0.00447025
0.35371
-0.0116104
0.883521
-0.0195137
1.28638
-0.0285318
1.60339
-0.039787
1.90205
-0.0549582
2.19928
-0.0747555
2.51321
-0.098425
2.84425
-0.125835
3.17339
-0.157566
3.47493
-0.187798
3.11237
-0.211475
2.29628
-0.222343
1.66624
-0.222815
1.15909
-0.340531
0.870299
-0.846171
1.0769
-1.6171
1.57592
-2.14347
1.72084
-2.36446
1.54415
1.31045
-2.46801
-0.00392593
0.357636
-0.0111669
0.890762
-0.018801
1.29401
-0.0272598
1.61185
-0.0383154
1.9131
-0.0538785
2.21485
-0.0741739
2.53351
-0.0983929
2.86847
-0.127542
3.20254
-0.163749
3.51114
-0.202348
3.15097
-0.235735
2.32967
-0.264076
1.69458
-0.35758
1.2526
-0.736293
1.24901
-1.49647
1.83708
-2.05388
2.13333
-2.27969
1.94666
-2.38548
1.64995
1.37725
-2.45229
-0.00306435
0.3607
-0.00906206
0.89676
-0.0161775
1.30113
-0.025182
1.62086
-0.0374549
1.92538
-0.0534539
2.23084
-0.0735774
2.55363
-0.0983229
2.89322
-0.129631
3.23384
-0.169895
3.55141
-0.214046
3.19512
-0.25737
2.37299
-0.308336
1.74555
-0.535821
1.48008
-1.1981
1.91129
-1.86143
2.50041
-2.15238
2.42428
-2.2877
2.08198
-2.3655
1.72775
1.43501
-2.42326
-0.00262663
0.363327
-0.00736423
0.901498
-0.0143795
1.30814
-0.024609
1.63109
-0.0381912
1.93896
-0.0547458
2.2474
-0.0749098
2.57379
-0.100398
2.91871
-0.133993
3.26744
-0.179134
3.59655
-0.231251
3.24724
-0.281515
2.42326
-0.409933
1.87397
-0.82863
1.89878
-1.56914
2.65179
-1.99797
2.92924
-2.17316
2.59947
-2.26451
2.17333
-2.33483
1.79806
1.49402
-2.39383
-0.00250127
0.365828
-0.00766694
0.906663
-0.0152896
1.31576
-0.0260757
1.64187
-0.0401637
1.95305
-0.0573761
2.26461
-0.0784389
2.59486
-0.105373
2.94564
-0.141486
3.30355
-0.191336
3.6464
-0.249252
3.30515
-0.323861
2.49787
-0.540237
2.09034
-1.14133
2.49987
-1.75219
3.26265
-1.9931
3.17015
-2.1251
2.73147
-2.22514
2.27337
-2.30818
1.88111
1.55274
-2.3669
-0.00274073
0.368569
-0.00874828
0.912671
-0.0169442
1.32396
-0.027931
1.65286
-0.0422528
1.96737
-0.0600247
2.28238
-0.0820341
2.61687
-0.110264
2.97387
-0.148657
3.34195
-0.202838
3.70058
-0.266448
3.36876
-0.370702
2.60212
-0.699044
2.41868
-1.3758
3.17663
-1.80924
3.69609
-1.9984
3.35931
-2.12527
2.85835
-2.22387
2.37197
-2.29821
1.95545
1.5825
-2.32798
-0.00305945
0.371628
-0.00950984
0.919121
-0.0184086
1.33286
-0.0298792
1.66433
-0.0445056
1.98199
-0.0627759
2.30065
-0.0857207
2.63981
-0.115545
3.00369
-0.156645
3.38305
-0.214739
3.75867
-0.284378
3.4384
-0.436754
2.7545
-0.87015
2.85208
-1.50457
3.81105
-1.81915
4.01067
-1.97292
3.51308
-2.0632
2.94863
-2.14086
2.44963
-2.19033
2.00492
1.52559
-2.13342
-0.00336163
0.37499
-0.0104154
0.926175
-0.0198399
1.34228
-0.0318153
1.67631
-0.046919
1.9971
-0.0657043
2.31944
-0.0894586
2.66357
-0.120429
3.03466
-0.16383
3.42645
-0.227389
3.82223
-0.32218
3.53319
-0.524704
2.95702
-1.02418
3.35156
-1.55744
4.34431
-1.7935
4.24673
-1.92937
3.64894
-2.00809
3.02736
-2.01436
2.4559
-1.93003
1.92058
1.44456
-1.849
-0.00338504
0.378375
-0.0106912
0.933481
-0.0207006
1.35229
-0.0332525
1.68886
-0.0488136
2.01266
-0.0679301
2.33856
-0.0920285
2.68766
-0.123726
3.06636
-0.167957
3.47068
-0.229135
3.88341
-0.330689
3.63474
-0.570273
3.19661
-1.1068
3.88808
-1.51206
4.74957
-1.66749
4.40216
-1.74368
3.72513
-1.77193
3.05561
-1.6389
2.32287
-1.12035
1.40204
0.324202
-0.00330848
0.381683
-0.0110484
0.941221
-0.021505
1.36275
-0.0348604
1.70221
-0.051626
2.02943
-0.0721345
2.35906
-0.0980736
2.7136
-0.132623
3.10091
-0.180891
3.51895
-0.247183
3.9497
-0.368583
3.75614
-0.671698
3.49972
-1.25202
4.46841
-1.57607
5.07362
-1.68525
4.51134
-1.71386
3.75374
-1.60853
2.95027
-1.25048
1.96482
-0.476158
0.627716
-0.151956
-0.00304635
0.38473
-0.0108084
0.948983
-0.0219741
1.37392
-0.0360621
1.7163
-0.0536254
2.04699
-0.0754863
2.38092
-0.103599
2.74172
-0.141285
3.1386
-0.193834
3.57149
-0.268753
4.02462
-0.419738
3.90713
-0.794598
3.87458
-1.36442
5.03823
-1.59446
5.30366
-1.66073
4.57761
-1.63008
3.72309
-1.36736
2.68756
-0.642104
1.23956
-0.0171655
0.00277747
-0.169122
-0.00257101
0.387301
-0.010732
0.957144
-0.0222125
1.3854
-0.0368884
1.73098
-0.0554291
2.06553
-0.0785661
2.40406
-0.108506
2.77166
-0.148868
3.17896
-0.204572
3.6272
-0.295354
4.1154
-0.479707
4.09148
-0.914985
4.30986
-1.43626
5.55951
-1.59481
5.46221
-1.63073
4.61353
-1.48267
3.57504
-0.978462
2.18335
-0.168744
0.429845
0.0383709
-0.204338
-0.130751
-0.00174073
0.389041
-0.00928139
0.964685
-0.0211977
1.39731
-0.0364999
1.74628
-0.0556871
2.08472
-0.080064
2.42844
-0.112131
2.80372
-0.155782
3.22261
-0.21466
3.68608
-0.316187
4.21693
-0.52809
4.30339
-1.03353
4.8153
-1.46822
5.99419
-1.57126
5.56525
-1.54792
4.59019
-1.26227
3.28939
-0.50477
1.42584
0.00769314
-0.0826181
0.0262205
-0.222865
-0.10453
-0.00091107
0.389952
-0.00806888
0.971843
-0.0197636
1.40901
-0.0353739
1.76189
-0.0553713
2.10471
-0.0807285
2.4538
-0.114198
2.83719
-0.160492
3.2689
-0.223217
3.7488
-0.33245
4.32616
-0.575
4.54594
-1.12552
5.36582
-1.44392
6.3126
-1.49899
5.62031
-1.41017
4.50137
-0.97844
2.85766
-0.160125
0.607529
0.018776
-0.261519
0.0182516
-0.222341
-0.0862787
0.00119385
0.388759
-0.00442504
0.977462
-0.0160823
1.42066
-0.0319128
1.77772
-0.0520983
2.1249
-0.0783087
2.48001
-0.113451
2.87234
-0.162165
3.31762
-0.228271
3.81491
-0.348205
4.44609
-0.628315
4.82605
-1.17747
5.91497
-1.40012
6.53525
-1.42438
5.64457
-1.21148
4.28847
-0.58325
2.22942
-0.0109787
0.0352583
0.00898403
-0.281482
0.00427494
-0.217631
-0.0820037
0.00292373
0.385835
-0.000966894
0.981352
-0.0114747
1.43117
-0.0270185
1.79326
-0.0475744
2.14546
-0.0741989
2.50663
-0.109671
2.90781
-0.15858
3.36653
-0.229187
3.88551
-0.358511
4.57542
-0.670144
5.13768
-1.17793
6.42276
-1.32712
6.68445
-1.3003
5.61774
-0.979395
3.96757
-0.289881
1.53991
-0.0343981
-0.220224
-0.0125502
-0.303329
-0.00610511
-0.224077
-0.0881088
0.00672993
0.379105
0.0060892
0.981993
-0.00300837
1.44027
-0.0179315
1.80819
-0.0378083
2.16533
-0.06455
2.53337
-0.100686
2.94394
-0.150161
3.416
-0.222506
3.95786
-0.360751
4.71366
-0.697346
5.47427
-1.13354
6.85895
-1.20404
6.75495
-1.1444
5.5581
-0.790225
3.6134
-0.065604
0.815289
0.00854334
-0.294372
0.0180663
-0.312852
0.00689247
-0.212903
-0.0812164
0.01056
0.368545
0.0137576
0.978795
0.0076341
1.44639
-0.00588964
1.82171
-0.0254148
2.18486
-0.0517999
2.55976
-0.0871015
2.97925
-0.134231
3.46313
-0.207959
4.03159
-0.350906
4.85661
-0.6906
5.81397
-1.03961
7.20796
-1.0829
6.79824
-0.953991
5.42919
-0.525185
3.18459
0.0791631
0.210941
0.0993442
-0.314553
0.0796864
-0.293195
0.0317791
-0.164995
-0.0494373
0.0173174
0.351228
0.0268792
0.969234
0.0244447
1.44883
0.0131952
1.83296
-0.00435618
2.20241
-0.0296945
2.5851
-0.064656
3.01421
-0.110911
3.50939
-0.180323
4.101
-0.311203
4.98749
-0.641883
6.14465
-0.911421
7.4775
-0.943854
6.83067
-0.777765
5.2631
-0.291316
2.69814
0.0746998
-0.155074
0.102933
-0.342786
0.0913798
-0.281642
0.0388192
-0.112435
-0.0106181
0.0245038
0.326724
0.041951
0.951786
0.0451096
1.44567
0.0372801
1.84079
0.0218546
2.21783
-0.00173781
2.60869
-0.0347864
3.04726
-0.0789796
3.55358
-0.142394
4.16441
-0.253794
5.09889
-0.538949
6.4298
-0.739517
7.67807
-0.777521
6.86867
-0.654235
5.13981
-0.235546
2.27946
-0.119033
-0.271587
-0.0458886
-0.415931
0.0181955
-0.345726
0.0290145
-0.123254
0.0183965
0.0356991
0.291025
0.0644453
0.92304
0.0748006
1.43531
0.071642
1.84395
0.0608999
2.22858
0.041064
2.62852
0.0111006
3.07722
-0.032093
3.59677
-0.0909787
4.2233
-0.17979
5.1877
-0.382793
6.63281
-0.525522
7.8208
-0.586299
6.92945
-0.512826
5.06634
-0.190964
1.95759
-0.263448
-0.199103
-0.191622
-0.487757
-0.0989074
-0.438441
0.000572786
-0.222734
0.0189693
0.047654
0.243371
0.0906507
0.880043
0.110704
1.41526
0.114559
1.84009
0.109356
2.23378
0.0942723
2.64361
0.0705542
3.10094
0.0320751
3.63525
-0.0242542
4.27963
-0.0946369
5.25808
-0.190592
6.72876
-0.26772
7.89793
-0.322939
6.98467
-0.309938
5.05334
-0.208244
1.8559
-0.421676
0.0143297
-0.390888
-0.518545
-0.271251
-0.558077
-0.0779624
-0.416023
-0.0589932
0.0620405
0.18133
0.123054
0.81903
0.158511
1.3798
0.172703
1.8259
0.175564
2.23092
0.16815
2.65102
0.153135
3.11595
0.124525
3.66386
0.0770774
4.32708
0.0239188
5.31124
0.0351524
6.71753
0.0492735
7.88381
0.0256565
7.00829
-0.029496
5.10849
-0.155174
1.98158
-0.442588
0.301744
-0.502328
-0.458805
-0.386029
-0.674376
-0.182417
-0.619635
-0.24141
0.0654123
0.115918
0.156764
0.727679
0.215665
1.3209
0.245496
1.79607
0.257777
2.21864
0.258656
2.65014
0.253488
3.12112
0.242602
3.67475
0.216707
4.35297
0.194415
5.33353
0.311168
6.60077
0.445723
7.74925
0.532708
6.9213
0.456785
5.18441
0.0613724
2.37699
-0.199698
0.562814
-0.319685
-0.338818
-0.313205
-0.680856
-0.193992
-0.738849
-0.435402
0.0571799
0.0587381
0.190596
0.594262
0.288017
1.22348
0.338263
1.74582
0.36099
2.19591
0.372635
2.6385
0.376426
3.11733
0.387714
3.66346
0.396577
4.34411
0.415911
5.3142
0.648866
6.36782
0.942152
7.45597
1.11847
6.74499
1.05519
5.24769
0.461827
2.97035
0.145885
0.878757
-0.0585117
-0.134421
-0.176237
-0.56313
-0.140631
-0.774455
-0.576033
0.043608
0.0151302
0.233671
0.4042
0.363955
1.0932
0.440696
1.66908
0.483913
2.15269
0.511249
2.61116
0.527665
3.10091
0.555184
3.63594
0.604607
4.29468
0.697325
5.22148
1.06206
6.00308
1.49804
7.01999
1.79805
6.44498
1.87622
5.16952
1.40515
3.44143
0.776015
1.50789
0.313291
0.328303
0.0472779
-0.297117
-0.0399836
-0.687194
-0.616016
0.0277381
-0.0126079
0.239802
0.192136
0.448013
0.884986
0.570286
1.54681
0.635248
2.08773
0.676286
2.57012
0.708444
3.06876
0.740894
3.60349
0.818012
4.21757
0.985516
5.05398
1.44201
5.54659
2.07035
6.39164
2.41914
6.09619
2.59854
4.99013
2.36679
3.67318
1.67786
2.19681
1.0381
0.968062
0.521072
0.219909
0.143912
-0.310033
-0.472104
0.0252294
-0.0378373
0.176243
0.0411225
0.506265
0.554964
0.710914
1.34216
0.814506
1.98414
0.871724
2.51291
0.919708
3.02077
0.965538
3.55766
1.07566
4.10745
1.25727
4.87236
1.69767
5.10619
2.62202
5.4673
2.74775
5.97046
2.97869
4.75919
2.87663
3.77523
2.34931
2.72413
1.56879
1.74858
0.847135
0.941568
0.330226
0.206875
-0.141878
0.00614822
-0.0439855
0.0867599
-0.0394892
0.42229
0.219434
0.714456
1.04999
0.85619
1.8424
0.899081
2.47001
0.915157
3.0047
0.917363
3.55545
0.9368
4.08801
1.01129
4.79787
1.17843
4.93905
1.59476
5.05097
1.81143
5.75379
1.79058
4.78004
1.70131
3.86451
1.42058
3.00486
1.0313
2.13785
0.658661
1.31421
0.270936
0.594601
0.129057
-0.000116786
-0.0438687
0.0428207
-0.0824267
0.224241
0.0380136
0.525842
0.748393
0.695052
1.67319
0.759774
2.40529
0.779635
2.98483
0.785976
3.54911
0.775385
4.0986
0.805158
4.7681
0.865629
4.87858
1.11223
4.80436
1.44062
5.42541
1.41768
4.80299
1.33327
3.94891
1.16646
3.17167
0.904296
2.40002
0.603487
1.61502
0.266093
0.931995
0.39515
0.00426339
-0.0481321
0.0362617
-0.114425
0.11764
-0.0433643
0.370374
0.495659
0.531641
1.51193
0.600136
2.3368
0.624626
2.96034
0.636457
3.53728
0.629418
4.10564
0.6382
4.75931
0.66289
4.85389
0.81143
4.65582
1.02721
5.20962
1.01891
4.81129
0.937469
4.03036
0.810225
3.29891
0.634042
2.5762
0.419037
1.83002
0.184978
1.16606
0.580128
0.0191119
-0.067244
0.0602259
-0.155539
0.104449
-0.0875878
0.245069
0.355039
0.370991
1.38601
0.437531
2.27026
0.463262
2.93461
0.481161
3.51938
0.486552
4.10025
0.495195
4.75067
0.503049
4.84603
0.564748
4.59412
0.673799
5.10057
0.666219
4.81887
0.59617
4.10041
0.502653
3.39243
0.387054
2.6918
0.25414
1.96294
0.107282
1.31291
0.68741
0.0385379
-0.105782
0.0852194
-0.20222
0.101721
-0.104089
0.118093
0.338667
0.197995
1.3061
0.256433
2.21182
0.295596
2.89545
0.327861
3.48712
0.346722
4.08139
0.357975
4.73942
0.359881
4.84413
0.373257
4.58075
0.434136
5.03969
0.430613
4.82239
0.380734
4.15029
0.311533
3.46163
0.224405
2.77893
0.129948
2.0574
0.0398081
1.40305
0.727218