/*--------------------------------*- C++ -*----------------------------------*\
  =========                 |
  \\      /  F ield         | OpenFOAM: The Open Source CFD Toolbox
   \\    /   O peration     | Website:  https://openfoam.org
    \\  /    A nd           | Version:  6
     \\/     M anipulation  |
\*---------------------------------------------------------------------------*/
FoamFile
{
    version     2.0;
    format      ascii;
    class       volScalarField;
    location    "25";
    object      p;
}
// * * * * * * * * * * * * * * * * * * * * * * * * * * * * * * * * * * * * * //

dimensions      [0 2 -2 0 0 0 0];

internalField   nonuniform List<scalar> 
8800
(
0.453063
0.403745
0.365773
0.337693
0.317512
0.302889
0.292236
0.284628
0.279652
0.27743
0.278601
0.282746
0.289379
0.298686
0.311341
0.328603
0.35244
0.385509
0.428428
0.480935
0.287573
0.293916
0.303057
0.306596
0.303974
0.297863
0.290888
0.28459
0.279695
0.276692
0.276273
0.278683
0.283149
0.289141
0.296134
0.303092
0.307915
0.307752
0.301052
0.292139
0.261118
0.267353
0.271851
0.275714
0.278649
0.279578
0.278449
0.276251
0.274154
0.273133
0.273947
0.276187
0.278901
0.28103
0.281436
0.279563
0.276132
0.27207
0.267256
0.263534
0.256874
0.25964
0.262248
0.264406
0.266137
0.267687
0.268755
0.269033
0.268756
0.268627
0.269197
0.270147
0.270695
0.270367
0.269251
0.267785
0.266027
0.263658
0.261209
0.25964
0.251893
0.253319
0.255164
0.257245
0.258948
0.260214
0.261256
0.262132
0.262779
0.263278
0.263713
0.263907
0.263712
0.26316
0.262333
0.261087
0.259324
0.257346
0.255947
0.255145
0.247016
0.247919
0.249182
0.25083
0.252527
0.254033
0.255244
0.256264
0.257179
0.257931
0.258381
0.258437
0.258149
0.257559
0.256565
0.255205
0.253692
0.252307
0.251432
0.250913
0.242272
0.242927
0.243916
0.245268
0.246742
0.248264
0.249718
0.250981
0.252064
0.252984
0.253525
0.253608
0.253272
0.252516
0.251455
0.250271
0.249074
0.248018
0.247375
0.247
0.237673
0.23817
0.239003
0.24022
0.24159
0.243061
0.244597
0.246103
0.247439
0.248552
0.249233
0.249334
0.248914
0.248127
0.247166
0.246137
0.245113
0.24424
0.243741
0.243461
0.23323
0.233618
0.23434
0.235476
0.236809
0.23823
0.239734
0.241282
0.242785
0.244098
0.244959
0.245179
0.244893
0.244285
0.243497
0.242605
0.241695
0.240961
0.240565
0.24035
0.228883
0.229178
0.229808
0.230863
0.232133
0.233494
0.234944
0.236514
0.238184
0.239775
0.240834
0.241219
0.241143
0.240788
0.240223
0.23951
0.238746
0.23814
0.237836
0.237675
0.224642
0.224869
0.225442
0.226484
0.227778
0.229231
0.23084
0.232527
0.23424
0.235986
0.237404
0.238215
0.238435
0.2382
0.237702
0.237078
0.236397
0.23588
0.235645
0.235524
0.220476
0.220633
0.221164
0.222209
0.223528
0.224989
0.22663
0.228511
0.230626
0.232785
0.234549
0.235543
0.23595
0.235969
0.235718
0.235242
0.234663
0.234226
0.234058
0.233979
0.216505
0.216601
0.217056
0.218012
0.219261
0.220698
0.222352
0.22426
0.226461
0.228967
0.23124
0.232826
0.233768
0.234199
0.234265
0.234058
0.233704
0.233425
0.233335
0.233288
0.212612
0.212666
0.213046
0.213908
0.215117
0.216608
0.218424
0.220656
0.223311
0.226349
0.229192
0.231252
0.232516
0.233268
0.233619
0.233719
0.23364
0.233555
0.233534
0.2335
0.208371
0.208421
0.208732
0.209489
0.210627
0.212112
0.214014
0.216437
0.219495
0.223173
0.226776
0.22953
0.231473
0.232732
0.233553
0.234026
0.234262
0.234383
0.23442
0.234384
0.203376
0.203426
0.20373
0.204468
0.205651
0.207274
0.209446
0.21231
0.215966
0.220453
0.224966
0.228528
0.231074
0.232871
0.234113
0.234937
0.23546
0.235741
0.235814
0.235773
0.197384
0.197439
0.197801
0.198597
0.19992
0.201784
0.204334
0.207742
0.212206
0.217763
0.223396
0.227905
0.231211
0.233582
0.235269
0.236451
0.237237
0.237638
0.237734
0.237685
0.190118
0.190177
0.190614
0.191573
0.193129
0.195372
0.198472
0.202672
0.208165
0.21504
0.222069
0.227735
0.231921
0.23494
0.237112
0.238662
0.239685
0.240184
0.240305
0.240252
0.18132
0.18138
0.181923
0.183134
0.185101
0.187911
0.191789
0.197038
0.2039
0.212452
0.221173
0.228185
0.233327
0.237099
0.23984
0.241802
0.243032
0.243621
0.243779
0.243722
0.170714
0.170769
0.17143
0.172992
0.175518
0.179098
0.184028
0.190638
0.199221
0.209859
0.220646
0.229302
0.235696
0.240342
0.243719
0.246066
0.247543
0.248253
0.248457
0.248394
0.157934
0.15799
0.15882
0.1608
0.164054
0.168681
0.174978
0.183362
0.194141
0.207363
0.220652
0.231266
0.239093
0.244789
0.248906
0.251742
0.253518
0.254399
0.254652
0.254577
0.142324
0.142396
0.143457
0.146
0.150218
0.15621
0.164319
0.17502
0.188593
0.204995
0.221274
0.234186
0.243708
0.250643
0.255623
0.259067
0.261234
0.262325
0.262627
0.262533
0.122696
0.122799
0.124228
0.127606
0.133184
0.141081
0.151682
0.165453
0.182587
0.20288
0.222688
0.238256
0.249711
0.258059
0.264064
0.268237
0.270883
0.272206
0.272557
0.272437
0.097278
0.0974553
0.0995248
0.104305
0.111961
0.122623
0.136732
0.154607
0.176242
0.201201
0.22507
0.243627
0.257252
0.267204
0.2744
0.27945
0.282673
0.284261
0.284658
0.284504
0.0629918
0.0633623
0.0667445
0.0741024
0.0853192
0.100309
0.119416
0.14269
0.169843
0.200215
0.228614
0.250441
0.266438
0.278173
0.286744
0.292832
0.296734
0.298617
0.299048
0.298849
0.0139522
0.0153103
0.0221729
0.0349427
0.0524183
0.0741086
0.100116
0.13018
0.163819
0.200228
0.23349
0.258766
0.277266
0.290929
0.301044
0.308366
0.313095
0.315326
0.315777
0.315515
-0.0584584
-0.0503658
-0.0346861
-0.0122071
0.0147062
0.0453745
0.0797812
0.117667
0.158531
0.201573
0.240187
0.269334
0.290736
0.306738
0.318867
0.327876
0.333836
0.336753
0.337426
0.337256
-0.135313
-0.118217
-0.0928197
-0.0600097
-0.0232914
0.016499
0.0594266
0.105365
0.153924
0.204418
0.249499
0.283646
0.308981
0.328193
0.34308
0.354517
0.36224
0.36615
0.367271
0.367275
-0.200207
-0.179429
-0.146199
-0.104761
-0.0593696
-0.0110356
0.0401407
0.0939337
0.149939
0.20754
0.258643
0.2973
0.326061
0.348048
0.365111
0.378231
0.387453
0.392158
0.393166
0.393272
-0.252685
-0.22969
-0.191358
-0.143829
-0.0917084
-0.0362764
0.0221108
0.0830378
0.145969
0.210166
0.266727
0.309316
0.340883
0.36491
0.38355
0.39786
0.408146
0.413307
0.414529
0.414749
-0.29604
-0.271854
-0.229894
-0.17763
-0.120165
-0.0589231
0.0055519
0.0727122
0.141847
0.212034
0.273477
0.3194
0.353217
0.378788
0.398526
0.413648
0.424373
0.430037
0.431618
0.431873
-0.333145
-0.308228
-0.263629
-0.207551
-0.145589
-0.0794302
-0.0097189
0.0629135
0.13759
0.213162
0.278976
0.327806
0.363445
0.390173
0.41062
0.426218
0.437177
0.443149
0.444943
0.445185
-0.36598
-0.34058
-0.293897
-0.234651
-0.168893
-0.0984697
-0.0241184
0.0534144
0.133129
0.213651
0.283507
0.334962
0.372175
0.39979
0.420679
0.436451
0.447473
0.453514
0.4554
0.455598
-0.395968
-0.370159
-0.321755
-0.259788
-0.190737
-0.116585
-0.0380863
0.0439264
0.12831
0.213535
0.287233
0.34122
0.379907
0.408287
0.429507
0.445372
0.456391
0.462464
0.464432
0.464613
-0.424011
-0.397815
-0.347912
-0.283579
-0.211655
-0.134186
-0.0519423
0.034176
0.122953
0.212696
0.290219
0.346709
0.386869
0.416053
0.437657
0.453654
0.464666
0.470659
0.472678
0.472894
-0.450809
-0.424183
-0.372909
-0.306434
-0.23196
-0.151535
-0.065915
0.0239778
0.11689
0.211019
0.292372
0.351501
0.393307
0.42345
0.44554
0.461738
0.47278
0.478683
0.480649
0.480865
-0.47663
-0.449575
-0.397047
-0.328667
-0.251914
-0.16883
-0.0801515
0.0132162
0.110018
0.20842
0.293733
0.355766
0.399429
0.430684
0.453403
0.469909
0.481041
0.486877
0.488716
0.488863
-0.501822
-0.474236
-0.420572
-0.350467
-0.271664
-0.186186
-0.0947269
0.00182919
0.102294
0.204902
0.294319
0.359457
0.40523
0.43782
0.461335
0.478263
0.489531
0.495301
0.496988
0.497047
-0.526448
-0.498336
-0.443593
-0.371913
-0.291275
-0.203649
-0.109681
-0.0101953
0.0937077
0.200401
0.293971
0.362495
0.410694
0.444879
0.469364
0.486814
0.498235
0.503912
0.505453
0.505402
-0.550572
-0.521911
-0.466151
-0.393044
-0.310772
-0.221225
-0.124999
-0.0228583
0.0842212
0.194803
0.292591
0.364798
0.415771
0.45184
0.477481
0.495537
0.5071
0.512625
0.513985
0.513838
-0.57424
-0.545015
-0.488252
-0.413869
-0.330142
-0.238875
-0.140644
-0.0361309
0.0738325
0.18809
0.290097
0.366203
0.420338
0.45866
0.485677
0.504405
0.516069
0.521338
0.522471
0.52224
-0.597464
-0.567603
-0.509894
-0.434349
-0.349322
-0.256551
-0.156559
-0.049952
0.0625983
0.180263
0.286372
0.366544
0.424229
0.46527
0.493976
0.513411
0.525032
0.529915
0.530777
0.530471
-0.620069
-0.589622
-0.531017
-0.45444
-0.368263
-0.274173
-0.172658
-0.0642226
0.0506024
0.171333
0.281336
0.36564
0.427214
0.471542
0.502448
0.522689
0.533972
0.538181
0.538696
0.53833
-0.642014
-0.611012
-0.551576
-0.474075
-0.38689
-0.291659
-0.188834
-0.0788501
0.0379288
0.161338
0.274947
0.363328
0.429008
0.477218
0.51115
0.532614
0.543154
0.546069
0.54603
0.545642
-0.663337
-0.63173
-0.571533
-0.493204
-0.405128
-0.308919
-0.204992
-0.0937251
0.0246827
0.150368
0.267176
0.359473
0.429306
0.481845
0.519907
0.543781
0.553616
0.554087
0.552657
0.552333
-0.683882
-0.651739
-0.590828
-0.511754
-0.422911
-0.325867
-0.22103
-0.108728
0.010997
0.138546
0.258045
0.353969
0.427813
0.484785
0.52801
0.556377
0.567369
0.565091
0.559809
0.557135
-0.703727
-0.671047
-0.609465
-0.529755
-0.440273
-0.342546
-0.237003
-0.123921
-0.0032032
0.125802
0.247416
0.346567
0.424229
0.485277
0.534092
0.569239
0.585224
0.584361
0.572305
0.5679
-0.722791
-0.689722
-0.62758
-0.547398
-0.457508
-0.359302
-0.253337
-0.13981
-0.0185009
0.111445
0.234555
0.336379
0.41785
0.482114
0.535333
0.57774
0.59952
0.596051
0.582369
0.571879
-0.740947
-0.707729
-0.645007
-0.564469
-0.474381
-0.375831
-0.269808
-0.156058
-0.0345641
0.095785
0.219667
0.323044
0.408309
0.474453
0.526929
0.569366
0.593944
0.57833
0.517193
0.488102
-0.758091
-0.725797
-0.661324
-0.580454
-0.49026
-0.391661
-0.286158
-0.1724
-0.0511116
0.0790152
0.202883
0.306269
0.39495
0.462596
0.505573
0.538321
0.545715
0.502618
0.438032
0.397813
-0.80153
-0.742952
-0.676486
-0.596029
-0.505875
-0.407665
-0.302265
-0.188946
-0.0683258
0.0608491
0.183885
0.285863
0.374761
0.447891
0.467333
0.473535
0.446401
0.390855
0.321837
0.283644
-0.775986
-0.757868
-0.699086
-0.619374
-0.529334
-0.431559
-0.327047
-0.214772
-0.0956795
0.0311171
0.151222
0.249655
0.329805
0.403559
0.402714
0.306989
0.220538
0.161491
0.0977138
0.132344
-0.807055
-0.775648
-0.716161
-0.636669
-0.546908
-0.449595
-0.345121
-0.233738
-0.11603
0.00845381
0.125227
0.219692
0.290961
0.330413
0.2877
0.154697
0.0469976
-0.0252811
-0.109153
-0.0543041
-0.831045
-0.797234
-0.73596
-0.656254
-0.566656
-0.469506
-0.36531
-0.254953
-0.138935
-0.0172871
0.0952143
0.184127
0.244018
0.249146
0.146438
-0.0134117
-0.145489
-0.238659
-0.3398
-0.298621
-0.854254
-0.819388
-0.756773
-0.676464
-0.586779
-0.489803
-0.38623
-0.277042
-0.162911
-0.0444347
0.0629855
0.145322
0.188968
0.15918
-0.00119129
-0.188706
-0.357665
-0.500423
-0.632548
-0.604662
-0.877046
-0.841838
-0.778393
-0.697551
-0.607707
-0.51097
-0.408142
-0.300249
-0.188253
-0.0732987
0.0283977
0.10315
0.127107
0.0565244
-0.146974
-0.360495
-0.564856
-0.734958
-0.961297
-1.04642
-0.900086
-0.865013
-0.80111
-0.719873
-0.62986
-0.533319
-0.431167
-0.324583
-0.214819
-0.103571
-0.00789147
0.0577508
0.0610414
-0.0664259
-0.280664
-0.51137
-0.727316
-0.908762
-1.05076
-1.20378
-0.924338
-0.889335
-0.825231
-0.743784
-0.653724
-0.557474
-0.456091
-0.350979
-0.243777
-0.136715
-0.0475286
0.00710873
-0.0183548
-0.188604
-0.406121
-0.634242
-0.831327
-0.944626
-0.975609
-0.991128
-0.949959
-0.915044
-0.850847
-0.769347
-0.679405
-0.583602
-0.483222
-0.379874
-0.275682
-0.173474
-0.0912594
-0.0510742
-0.103607
-0.307151
-0.521687
-0.729455
-0.883054
-0.929317
-0.941088
-0.941543
-0.977207
-0.942234
-0.877957
-0.796499
-0.706803
-0.611651
-0.512526
-0.411254
-0.310525
-0.213887
-0.139168
-0.115518
-0.195028
-0.41979
-0.626696
-0.809928
-0.90162
-0.920617
-0.921614
-0.921455
-1.006
-0.970897
-0.906528
-0.825177
-0.735866
-0.641536
-0.543937
-0.445057
-0.348201
-0.257854
-0.191631
-0.18373
-0.305353
-0.524581
-0.72415
-0.870234
-0.909688
-0.910464
-0.912115
-0.911894
-1.03606
-1.00082
-0.936391
-0.855232
-0.766433
-0.673103
-0.577315
-0.481185
-0.388532
-0.305156
-0.248155
-0.261333
-0.416599
-0.624798
-0.805045
-0.899173
-0.909188
-0.9084
-0.907843
-0.907532
-1.06677
-1.0316
-0.967231
-0.886367
-0.798227
-0.706085
-0.612335
-0.519443
-0.431131
-0.35542
-0.307375
-0.342583
-0.523981
-0.719848
-0.870053
-0.917378
-0.917766
-0.910353
-0.905938
-0.904241
-1.09762
-1.06264
-0.998543
-0.918098
-0.830801
-0.740044
-0.648481
-0.559409
-0.475548
-0.407586
-0.369766
-0.421811
-0.630674
-0.82169
-0.926506
-0.942633
-0.931251
-0.910119
-0.900761
-0.899387
-1.12752
-1.09311
-1.02957
-0.94974
-0.8635
-0.774383
-0.68506
-0.600191
-0.521477
-0.459913
-0.437085
-0.496532
-0.72163
-0.93904
-1.00938
-0.976494
-0.974761
-0.970926
-0.956013
-0.948124
-1.15557
-1.12191
-1.05933
-0.980391
-0.895433
-0.808238
-0.721272
-0.640254
-0.568533
-0.511162
-0.504467
-0.578294
-0.782096
-1.0303
-1.17362
-1.14751
-1.13325
-1.13627
-1.12001
-1.10761
-1.18002
-1.1477
-1.08658
-1.0089
-0.925463
-0.840425
-0.756183
-0.677849
-0.614847
-0.561926
-0.562561
-0.680705
-0.831876
-0.999497
-1.1309
-1.20796
-1.2964
-1.31892
-1.30725
-1.30084
-1.19908
-1.16873
-1.10981
-1.03388
-0.952282
-0.869437
-0.788368
-0.712042
-0.655516
-0.614048
-0.60754
-0.786976
-0.937346
-0.885581
-0.819166
-1.07914
-1.34616
-1.38131
-1.37556
-1.37545
-1.21121
-1.18342
-1.12737
-1.05383
-0.974429
-0.89368
-0.815621
-0.742403
-0.685506
-0.662745
-0.651412
-0.861985
-1.15384
-1.16042
-1.13777
-1.33739
-1.45412
-1.43162
-1.41707
-1.42387
-1.21416
-1.18993
-1.13776
-1.06719
-0.9903
-0.911768
-0.8356
-0.76607
-0.707724
-0.687158
-0.708941
-0.942389
-1.46171
-1.9576
-2.27972
-2.45462
-2.33958
-2.00906
-1.74886
-1.71968
-1.20724
-1.18688
-1.13951
-1.07266
-0.998561
-0.922202
-0.847303
-0.778271
-0.721682
-0.692456
-0.733362
-0.99725
-1.62942
-2.43886
-2.88667
-3.06477
-2.97663
-2.73483
-2.44135
-2.2913
-1.18803
-1.17217
-1.1314
-1.06953
-0.998429
-0.924098
-0.849129
-0.779105
-0.717541
-0.689465
-0.685773
-0.908769
-1.32374
-1.94424
-2.33323
-2.43997
-2.41935
-2.29346
-2.12447
-2.00751
-1.15873
-1.14748
-1.11394
-1.05819
-0.990136
-0.917336
-0.840755
-0.768093
-0.694502
-0.638989
-0.608476
-0.601625
-0.754568
-0.911067
-1.06
-0.97864
-0.705851
-0.452516
-0.269292
-0.184787
-1.12246
-1.11553
-1.09002
-1.04057
-0.975649
-0.902503
-0.825865
-0.740915
-0.665594
-0.55892
-0.480491
-0.307438
-0.100307
0.272125
0.761491
1.23223
1.63257
1.88817
2.00414
2.04097
-1.08394
-1.08009
-1.06298
-1.02037
-0.957722
-0.884296
-0.802767
-0.716648
-0.615407
-0.508938
-0.363079
-0.216355
0.142808
0.711743
1.38286
2.00009
2.44681
2.71448
2.8398
2.87583
-1.0481
-1.04587
-1.03618
-1.0013
-0.940669
-0.865183
-0.781349
-0.689683
-0.589718
-0.47173
-0.336073
-0.210318
-0.0190825
0.422404
0.947545
1.4239
1.78585
1.99838
2.09478
2.12236
-1.01622
-1.01554
-1.01177
-0.98457
-0.924926
-0.846707
-0.761865
-0.671234
-0.573761
-0.463122
-0.350925
-0.248354
-0.153996
0.107239
0.503076
0.854757
1.10703
1.25303
1.32336
1.34653
-0.989285
-0.991228
-0.990347
-0.964228
-0.901772
-0.822218
-0.739526
-0.654632
-0.563908
-0.465278
-0.374423
-0.29933
-0.24957
-0.0980572
0.188929
0.441619
0.61522
0.709504
0.750912
0.760282
-0.929274
-0.932966
-0.93298
-0.909001
-0.85214
-0.781525
-0.708617
-0.634328
-0.556158
-0.469152
-0.393561
-0.342536
-0.307304
-0.212056
-0.0263345
0.135495
0.242721
0.304836
0.333091
0.340284
-0.817612
-0.820169
-0.819639
-0.803697
-0.766632
-0.718874
-0.665639
-0.608048
-0.543121
-0.472301
-0.407715
-0.370101
-0.349477
-0.283192
-0.152108
-0.0503216
0.012992
0.0492603
0.0656704
0.0681237
-0.696773
-0.697188
-0.696528
-0.690484
-0.675362
-0.651447
-0.619408
-0.579616
-0.529036
-0.469954
-0.415239
-0.37984
-0.352486
-0.314105
-0.232909
-0.167526
-0.126228
-0.100957
-0.0917424
-0.0912052
-0.612662
-0.612489
-0.61275
-0.612769
-0.609005
-0.599288
-0.582004
-0.555339
-0.516814
-0.466519
-0.419174
-0.388243
-0.346825
-0.313311
-0.26594
-0.228638
-0.2019
-0.184969
-0.178056
-0.17861
-0.569532
-0.569381
-0.569839
-0.571265
-0.571066
-0.566876
-0.556779
-0.538137
-0.507977
-0.462899
-0.421505
-0.39679
-0.355288
-0.334625
-0.298257
-0.273881
-0.252456
-0.239493
-0.233421
-0.234139
-0.554782
-0.554492
-0.55448
-0.555313
-0.555347
-0.552584
-0.545229
-0.530328
-0.503424
-0.458279
-0.4243
-0.407918
-0.380466
-0.36828
-0.343092
-0.314791
-0.290557
-0.275476
-0.27007
-0.271627
-0.560688
-0.560086
-0.559457
-0.559288
-0.558377
-0.555118
-0.547858
-0.533645
-0.506055
-0.460709
-0.424385
-0.415188
-0.403917
-0.400825
-0.372652
-0.343953
-0.320048
-0.308524
-0.302334
-0.303633
-0.584972
-0.584123
-0.583124
-0.582221
-0.580361
-0.576225
-0.568439
-0.55382
-0.523198
-0.471839
-0.430205
-0.40825
-0.391789
-0.393703
-0.374819
-0.350888
-0.33598
-0.330177
-0.327942
-0.32777
-0.625929
-0.625049
-0.623934
-0.622821
-0.620953
-0.617497
-0.611414
-0.599336
-0.569085
-0.51238
-0.46603
-0.412629
-0.379864
-0.383828
-0.366466
-0.343452
-0.320145
-0.306854
-0.302487
-0.305025
-0.680717
-0.679937
-0.679327
-0.679029
-0.679094
-0.679875
-0.681538
-0.682
-0.66883
-0.628287
-0.579109
-0.480467
-0.405997
-0.392985
-0.370224
-0.337099
-0.306353
-0.282327
-0.277903
-0.279938
-0.743998
-0.74377
-0.744397
-0.74644
-0.751423
-0.761854
-0.781141
-0.812495
-0.849642
-0.873955
-0.820908
-0.662593
-0.521526
-0.470263
-0.4286
-0.353617
-0.291641
-0.260804
-0.258032
-0.260079
-0.805401
-0.80621
-0.808937
-0.815037
-0.82814
-0.854007
-0.902262
-0.98844
-1.1203
-1.26901
-1.21639
-0.965121
-0.751087
-0.645967
-0.53538
-0.410926
-0.309269
-0.267794
-0.275292
-0.278926
-0.849303
-0.851431
-0.856671
-0.867726
-0.890582
-0.9349
-1.01887
-1.17788
-1.447
-1.75502
-1.69512
-1.32972
-1.04276
-0.885936
-0.705086
-0.531688
-0.427408
-0.392921
-0.397106
-0.403621
-0.857653
-0.860965
-0.868297
-0.883428
-0.914263
-0.973695
-1.08749
-1.30903
-1.70178
-2.13935
-2.08158
-1.62641
-1.30302
-1.12409
-0.927622
-0.762512
-0.68302
-0.673269
-0.672054
-0.675433
-0.81791
-0.821566
-0.829406
-0.84591
-0.879504
-0.944165
-1.06851
-1.31385
-1.7548
-2.22631
-2.22597
-1.75733
-1.47952
-1.30767
-1.16727
-1.075
-1.02296
-1.00414
-0.995812
-0.995299
-0.728449
-0.731663
-0.738508
-0.753014
-0.782962
-0.840791
-0.952097
-1.17127
-1.56486
-1.94933
-1.95309
-1.64554
-1.46061
-1.40043
-1.40893
-1.36218
-1.30959
-1.2779
-1.26023
-1.25495
-0.602325
-0.60447
-0.609023
-0.619159
-0.640845
-0.683268
-0.765141
-0.926481
-1.22236
-1.50097
-1.48219
-1.34264
-1.29952
-1.35639
-1.51306
-1.51614
-1.43311
-1.38376
-1.3575
-1.3476
-0.460956
-0.461839
-0.463808
-0.468956
-0.481077
-0.505695
-0.553892
-0.649977
-0.838162
-1.05195
-1.07545
-1.02692
-1.01471
-1.10119
-1.30339
-1.3362
-1.27157
-1.23079
-1.20956
-1.20056
-0.325878
-0.325723
-0.325679
-0.326776
-0.330918
-0.340482
-0.360162
-0.400572
-0.486902
-0.620937
-0.658748
-0.633925
-0.598199
-0.684967
-0.849212
-0.901234
-0.892065
-0.883622
-0.879232
-0.876451
-0.212143
-0.211405
-0.210257
-0.209043
-0.208278
-0.208228
-0.20947
-0.213245
-0.222329
-0.253857
-0.267341
-0.238202
-0.267043
-0.375177
-0.477061
-0.519869
-0.531596
-0.538953
-0.543807
-0.545013
-0.125988
-0.125095
-0.123701
-0.121837
-0.119224
-0.115139
-0.108495
-0.0971717
-0.077044
-0.0397879
-0.0096614
-0.0261005
-0.11015
-0.193663
-0.249071
-0.271464
-0.286104
-0.295029
-0.301028
-0.303075
-0.066352
-0.0655917
-0.0644829
-0.0630306
-0.0606657
-0.056415
-0.0490763
-0.0366579
-0.0161934
0.0138553
0.0333859
0.0132323
-0.0408713
-0.0889557
-0.119503
-0.135275
-0.143624
-0.148962
-0.1528
-0.154211
-0.0279675
-0.0274601
-0.0268368
-0.0262653
-0.0250604
-0.0224354
-0.0176832
-0.00976717
0.00249339
0.0182475
0.0260434
0.0136466
-0.0125531
-0.0357976
-0.050618
-0.0580585
-0.0614929
-0.0637511
-0.0656101
-0.0663472
-0.0041955
-0.00409121
-0.00379175
-0.00347361
-0.00314258
-0.00278109
-0.00214185
-0.00100743
0.000813118
0.00337261
0.00572977
0.00479068
0.000735395
-0.00396496
-0.00740567
-0.00923722
-0.00987208
-0.0100893
-0.0104581
-0.0109159
-0.458253
-0.249662
-0.0547214
0.108797
0.242689
0.351438
0.443843
0.519005
0.540071
0.536091
-0.131584
0.00412826
0.131253
0.24238
0.337104
0.416426
0.479494
0.522508
0.545546
0.561684
0.0909776
0.180534
0.269363
0.348082
0.41577
0.472183
0.516679
0.550276
0.574814
0.593946
0.251707
0.314582
0.378517
0.436234
0.4862
0.528562
0.563816
0.592881
0.614732
0.633709
0.376613
0.424228
0.472036
0.516089
0.555205
0.589557
0.619342
0.644356
0.663324
0.681494
0.48233
0.520113
0.557637
0.593734
0.626805
0.656576
0.682733
0.704576
0.721016
0.73859
0.574132
0.607844
0.64162
0.674194
0.704442
0.731842
0.7558
0.775382
0.789755
0.806862
0.663601
0.697144
0.730583
0.762665
0.792214
0.818666
0.841347
0.859308
0.87202
0.888631
0.759577
0.79654
0.831904
0.864904
0.894577
0.920378
0.941877
0.958469
0.970298
0.986507
0.873517
0.914357
0.951803
0.985152
1.01398
1.03828
1.05816
1.07364
1.08567
1.1018
1.01531
1.05668
1.09223
1.1221
1.14752
1.16932
1.18798
1.20359
1.2168
1.23278
1.18734
1.22003
1.247
1.26945
1.28967
1.3085
1.32633
1.34317
1.35814
1.37388
1.37399
1.39134
1.40856
1.42532
1.44148
1.45628
1.47023
1.48476
1.50003
1.51735
1.55751
1.56753
1.58078
1.59179
1.60122
1.61092
1.62158
1.6318
1.64112
1.6668
1.77555
1.76986
1.75692
1.74265
1.73638
1.74214
1.7603
1.78883
1.82262
1.85895
2.07831
1.94234
1.86289
1.82048
1.80318
1.80714
1.8346
1.89247
2.00014
2.17855
0.356759
0.350455
0.342721
0.331598
0.318016
0.305347
0.294919
0.286858
0.281073
0.277649
0.277148
0.279796
0.284872
0.292115
0.30158
0.313349
0.326866
0.339764
0.348732
0.356261
0.265839
0.271757
0.279831
0.285961
0.289023
0.288503
0.285397
0.281363
0.277705
0.275298
0.275
0.277081
0.280678
0.284991
0.288991
0.291156
0.290023
0.285343
0.278253
0.270401
0.259133
0.261506
0.264772
0.267543
0.26999
0.27217
0.273334
0.273147
0.272109
0.271157
0.271194
0.272421
0.274058
0.27515
0.274946
0.273382
0.271149
0.268729
0.265707
0.262672
0.254387
0.255475
0.257398
0.259743
0.261618
0.263012
0.264211
0.265158
0.265672
0.265895
0.266242
0.266783
0.267056
0.266762
0.265989
0.264947
0.263518
0.261467
0.259301
0.257806
0.249435
0.250067
0.251205
0.252983
0.254842
0.256437
0.257657
0.258653
0.259524
0.260241
0.260789
0.261072
0.260987
0.260587
0.259891
0.25877
0.257212
0.255489
0.254076
0.253257
0.244631
0.245066
0.245868
0.247199
0.248747
0.250318
0.251774
0.253
0.254064
0.255006
0.2557
0.255959
0.255813
0.255329
0.254454
0.253266
0.251943
0.250658
0.249664
0.249113
0.239945
0.240263
0.240898
0.242031
0.243397
0.24486
0.246383
0.247864
0.249164
0.250263
0.251091
0.251456
0.251316
0.250698
0.249758
0.248681
0.247579
0.246514
0.245727
0.24532
0.235443
0.235684
0.236203
0.2372
0.238477
0.239875
0.241365
0.242908
0.244406
0.245745
0.24677
0.247224
0.247087
0.246524
0.245712
0.244785
0.24382
0.242918
0.242286
0.241975
0.231041
0.231219
0.231655
0.232569
0.2338
0.23515
0.236567
0.238083
0.239686
0.241245
0.242487
0.243107
0.243109
0.242744
0.24216
0.24142
0.240579
0.239795
0.239276
0.239039
0.226757
0.226887
0.22725
0.228082
0.229255
0.230586
0.232039
0.233584
0.23521
0.2369
0.2384
0.239309
0.239643
0.239543
0.239127
0.238526
0.237842
0.237195
0.236787
0.236611
0.222546
0.222633
0.22295
0.223773
0.224996
0.226401
0.227969
0.229719
0.231596
0.23352
0.235331
0.23661
0.237186
0.237211
0.236901
0.236398
0.235777
0.235184
0.234844
0.23472
0.218464
0.218505
0.218765
0.21953
0.220707
0.222075
0.223587
0.225309
0.227337
0.229622
0.231863
0.233499
0.234426
0.234882
0.234954
0.234725
0.23431
0.233867
0.23363
0.233559
0.214565
0.214575
0.214785
0.215459
0.216556
0.217907
0.219508
0.221411
0.223636
0.226199
0.228919
0.23118
0.232633
0.233453
0.233802
0.233867
0.233705
0.233474
0.233361
0.233329
0.210565
0.210568
0.21074
0.211312
0.212316
0.213641
0.215282
0.217369
0.219968
0.223108
0.226488
0.229307
0.231251
0.232501
0.233241
0.233649
0.233855
0.233903
0.233926
0.233914
0.205982
0.20598
0.206139
0.206647
0.20759
0.208921
0.210672
0.212967
0.215912
0.219596
0.223765
0.227467
0.230152
0.232023
0.233288
0.234134
0.234641
0.234939
0.235069
0.235067
0.200529
0.200522
0.2007
0.201229
0.202239
0.203714
0.205725
0.208447
0.212023
0.216556
0.221727
0.226354
0.229768
0.232214
0.233951
0.235167
0.235993
0.236505
0.23671
0.236712
0.193931
0.193919
0.194135
0.194767
0.195904
0.197601
0.199982
0.203232
0.207577
0.21313
0.219558
0.225386
0.229745
0.232931
0.235204
0.236837
0.23799
0.238677
0.238936
0.238942
0.185923
0.185902
0.186166
0.186949
0.188348
0.190436
0.193378
0.197434
0.202829
0.209745
0.217727
0.224967
0.230405
0.234368
0.237195
0.239265
0.240752
0.2416
0.241914
0.241933
0.176254
0.176218
0.176541
0.177542
0.179325
0.181967
0.185684
0.190777
0.197531
0.206153
0.216065
0.225036
0.231743
0.23665
0.240229
0.242819
0.24457
0.245568
0.245954
0.245984
0.164602
0.164546
0.16495
0.166203
0.168504
0.171907
0.176676
0.183136
0.191649
0.202409
0.214684
0.225729
0.233991
0.240035
0.244402
0.247552
0.24965
0.250853
0.251343
0.251389
0.150482
0.15041
0.150941
0.152548
0.155505
0.159888
0.166039
0.174299
0.185054
0.198496
0.213651
0.227169
0.237253
0.244632
0.249974
0.253772
0.256316
0.257788
0.258391
0.258446
0.13298
0.132902
0.133646
0.135754
0.139541
0.145332
0.153301
0.163953
0.177633
0.19444
0.213076
0.229505
0.241709
0.250642
0.257101
0.261689
0.264784
0.266589
0.267314
0.267371
0.11064
0.110573
0.111689
0.114602
0.119675
0.127368
0.137969
0.151893
0.169388
0.190366
0.213128
0.232907
0.247513
0.258204
0.265955
0.27148
0.275245
0.277443
0.278303
0.278358
0.0810967
0.0810951
0.0828906
0.0871801
0.0944536
0.105218
0.119667
0.138075
0.16046
0.186493
0.214021
0.237549
0.254818
0.267469
0.276689
0.283324
0.287883
0.290525
0.291528
0.291572
0.0401803
0.0404149
0.0436906
0.0508908
0.0622721
0.0781173
0.0982793
0.12273
0.151207
0.183152
0.215991
0.243577
0.2637
0.278476
0.289336
0.297261
0.302769
0.305917
0.307046
0.307067
-0.0198253
-0.0183328
-0.0104851
0.00320454
0.0222837
0.0462501
0.0744425
0.106557
0.142206
0.18073
0.219242
0.251052
0.274121
0.291109
0.303735
0.313078
0.319676
0.323417
0.324679
0.324678
-0.0922995
-0.0892661
-0.0740593
-0.0502153
-0.0207338
0.0127573
0.0497232
0.0900542
0.13345
0.179337
0.224594
0.261835
0.289009
0.309272
0.324608
0.336204
0.344532
0.349307
0.350821
0.350986
-0.166152
-0.158415
-0.135728
-0.102103
-0.0627552
-0.0199845
0.025727
0.0743202
0.125542
0.178869
0.23098
0.273777
0.30512
0.328743
0.346897
0.360976
0.371142
0.376593
0.378765
0.379306
-0.225032
-0.215781
-0.188334
-0.147899
-0.10095
-0.0503657
0.00319254
0.0594539
0.118048
0.178435
0.236944
0.284751
0.319705
0.346046
0.366336
0.381977
0.393337
0.399917
0.402893
0.4036
-0.273104
-0.263183
-0.232332
-0.186972
-0.134304
-0.0775201
-0.0174209
0.0455226
0.110763
0.177594
0.241938
0.294166
0.332129
0.360569
0.382381
0.399239
0.411617
0.419011
0.422333
0.423103
-0.313369
-0.303238
-0.270168
-0.220944
-0.163606
-0.101686
-0.0361145
0.0325678
0.103675
0.176304
0.245875
0.30198
0.342441
0.372529
0.395429
0.413042
0.425999
0.433968
0.437533
0.43835
-0.348467
-0.338246
-0.303492
-0.251174
-0.189989
-0.123708
-0.0533791
0.0203655
0.0967109
0.174581
0.248908
0.308493
0.351112
0.382504
0.406171
0.424209
0.437431
0.445672
0.449334
0.45017
-0.379971
-0.369726
-0.333663
-0.278761
-0.214297
-0.144252
-0.0697318
0.00854835
0.0896828
0.172397
0.251211
0.314042
0.358635
0.391156
0.415386
0.433642
0.446937
0.455243
0.458875
0.459727
-0.409053
-0.39877
-0.361638
-0.304514
-0.23721
-0.163873
-0.0856189
-0.00320902
0.0823427
0.169655
0.252777
0.318827
0.365345
0.398929
0.423691
0.442165
0.455533
0.463874
0.467527
0.46823
-0.436538
-0.426197
-0.388085
-0.328994
-0.259176
-0.182927
-0.10133
-0.0151668
0.0744933
0.16619
0.253556
0.322824
0.371344
0.406101
0.431495
0.450257
0.463707
0.472035
0.475671
0.476288
-0.462901
-0.452472
-0.413445
-0.352578
-0.280522
-0.201671
-0.117067
-0.0274876
0.0659927
0.161879
0.253451
0.32609
0.376844
0.412965
0.439122
0.458273
0.471887
0.4802
0.483775
0.484371
-0.488477
-0.477889
-0.437997
-0.375532
-0.30148
-0.220293
-0.132969
-0.0402679
0.0567614
0.156652
0.252478
0.328734
0.381927
0.419611
0.446709
0.466388
0.480253
0.488591
0.492042
0.4926
-0.513479
-0.50266
-0.461949
-0.398011
-0.322154
-0.238873
-0.149095
-0.0535515
0.0467696
0.150507
0.250596
0.330619
0.38655
0.426063
0.454308
0.474653
0.488834
0.497206
0.50052
0.501005
-0.537941
-0.526873
-0.485381
-0.420076
-0.342599
-0.257446
-0.165467
-0.0673431
0.0360134
0.143377
0.247647
0.33165
0.39065
0.432311
0.461924
0.483069
0.497611
0.505984
0.509131
0.509507
-0.561934
-0.550586
-0.508319
-0.441749
-0.362835
-0.276009
-0.182059
-0.0816245
0.0244863
0.135216
0.243573
0.33173
0.39412
0.438287
0.469539
0.491615
0.506543
0.51488
0.517799
0.518035
-0.585411
-0.573798
-0.530758
-0.463034
-0.382827
-0.294511
-0.198819
-0.0963466
0.0122254
0.126044
0.238333
0.330695
0.396798
0.4439
0.477136
0.500294
0.515564
0.523729
0.526351
0.526444
-0.608409
-0.596469
-0.552661
-0.483886
-0.402526
-0.3129
-0.215688
-0.111426
-0.000686926
0.115911
0.231867
0.328414
0.398474
0.448988
0.484702
0.50917
0.524677
0.53243
0.534621
0.534562
-0.630692
-0.618539
-0.573977
-0.504253
-0.421868
-0.331088
-0.232574
-0.126768
-0.0141551
0.104874
0.224158
0.324773
0.398932
0.453299
0.492176
0.518445
0.534068
0.540939
0.542426
0.542194
-0.652401
-0.63994
-0.594658
-0.524088
-0.440801
-0.349016
-0.249372
-0.142279
-0.0280838
0.0930299
0.215234
0.319676
0.39794
0.456478
0.499322
0.528377
0.544372
0.549619
0.549681
0.549161
-0.673346
-0.660617
-0.614681
-0.543334
-0.459235
-0.366592
-0.265995
-0.157831
-0.0423531
0.0804723
0.205156
0.313059
0.395307
0.458085
0.505583
0.53894
0.556719
0.560134
0.55711
0.555412
-0.693618
-0.680597
-0.633983
-0.561927
-0.477126
-0.383745
-0.282351
-0.173334
-0.0568389
0.0673579
0.194032
0.304885
0.390887
0.45767
0.510007
0.549205
0.571587
0.575929
0.56932
0.558069
-0.713097
-0.699873
-0.652654
-0.580036
-0.494694
-0.400768
-0.298793
-0.189217
-0.0720279
0.0531238
0.181269
0.294463
0.384063
0.454572
0.511241
0.557108
0.587033
0.59581
0.588734
0.582652
-0.731739
-0.718513
-0.670697
-0.597586
-0.511912
-0.417641
-0.315282
-0.205487
-0.0879357
0.0376783
0.166741
0.28144
0.374276