/*--------------------------------*- C++ -*----------------------------------*\
  =========                 |
  \\      /  F ield         | OpenFOAM: The Open Source CFD Toolbox
   \\    /   O peration     | Website:  https://openfoam.org
    \\  /    A nd           | Version:  6
     \\/     M anipulation  |
\*---------------------------------------------------------------------------*/
FoamFile
{
    version     2.0;
    format      ascii;
    class       volScalarField;
    location    "4";
    object      p;
}
// * * * * * * * * * * * * * * * * * * * * * * * * * * * * * * * * * * * * * //

dimensions      [0 2 -2 0 0 0 0];

internalField   nonuniform List<scalar> 
8800
(
0.68209
0.633434
0.596349
0.569224
0.549914
0.536238
0.526684
0.52004
0.515901
0.514463
0.514997
0.518105
0.523698
0.5318
0.54333
0.559634
0.582562
0.614611
0.656664
0.708956
0.515398
0.522728
0.534273
0.539801
0.539073
0.534543
0.528467
0.522395
0.517447
0.5141
0.513416
0.515978
0.520432
0.526167
0.532526
0.53811
0.541061
0.539
0.529886
0.519171
0.493164
0.49898
0.50353
0.507427
0.510214
0.511255
0.51096
0.509869
0.508186
0.506893
0.507553
0.509553
0.511341
0.512186
0.512043
0.510223
0.506772
0.502597
0.49762
0.494403
0.496923
0.49914
0.501835
0.503984
0.50567
0.506703
0.506748
0.505905
0.505329
0.505291
0.505679
0.506251
0.507196
0.507911
0.507496
0.506111
0.504309
0.501862
0.499311
0.498303
0.495828
0.496059
0.496634
0.497435
0.498296
0.499298
0.500004
0.500269
0.500284
0.500377
0.500697
0.501076
0.501258
0.501004
0.500204
0.499402
0.498618
0.49793
0.497554
0.497466
0.491888
0.492067
0.49239
0.492773
0.493154
0.493512
0.493841
0.494114
0.494308
0.494515
0.494846
0.495164
0.495312
0.49526
0.495085
0.494822
0.494497
0.494165
0.493925
0.493847
0.487602
0.487687
0.48785
0.488091
0.488406
0.488775
0.489166
0.489545
0.489905
0.490297
0.490665
0.490913
0.490999
0.490929
0.490758
0.490551
0.490354
0.490196
0.490099
0.490062
0.482849
0.4829
0.482999
0.483144
0.48334
0.483595
0.48391
0.484281
0.484704
0.485181
0.485643
0.485975
0.486149
0.486203
0.486184
0.48613
0.486064
0.486
0.485955
0.485933
0.477912
0.477944
0.478015
0.478128
0.478293
0.478525
0.478835
0.479235
0.479734
0.480331
0.480917
0.481351
0.481622
0.481768
0.481833
0.48185
0.481842
0.481823
0.481805
0.481792
0.472785
0.472807
0.472864
0.472963
0.473117
0.473348
0.473677
0.474128
0.474722
0.475463
0.476212
0.476791
0.477176
0.477422
0.477566
0.477644
0.477681
0.477694
0.477693
0.477686
0.467457
0.467477
0.467535
0.467636
0.467801
0.468055
0.468432
0.468966
0.469691
0.470618
0.471571
0.472319
0.472853
0.473203
0.473425
0.473558
0.473632
0.473669
0.473682
0.473677
0.46192
0.461938
0.462
0.462115
0.462306
0.462607
0.46306
0.463713
0.464612
0.46578
0.466998
0.467974
0.468666
0.469136
0.46944
0.469629
0.469739
0.469798
0.469822
0.469819
0.456126
0.456145
0.456218
0.456356
0.456587
0.456957
0.457517
0.458332
0.459464
0.460942
0.462494
0.463743
0.46464
0.465253
0.465655
0.465907
0.466056
0.466138
0.466172
0.46617
0.450012
0.450034
0.450124
0.450296
0.450586
0.451049
0.451755
0.452785
0.454218
0.456096
0.458071
0.459666
0.460813
0.461601
0.462119
0.462446
0.462642
0.46275
0.462796
0.462794
0.443496
0.443523
0.443637
0.443854
0.444222
0.444811
0.445709
0.44702
0.448845
0.451237
0.453749
0.455778
0.457239
0.458242
0.458904
0.459322
0.459572
0.459711
0.459771
0.459769
0.436464
0.436498
0.436644
0.436923
0.437396
0.438151
0.439302
0.440979
0.44331
0.446358
0.449553
0.452128
0.453981
0.455253
0.456092
0.456622
0.456941
0.457117
0.457193
0.45719
0.428765
0.42881
0.429
0.429361
0.429972
0.430947
0.432429
0.434585
0.43757
0.441457
0.445516
0.448777
0.45112
0.452727
0.453786
0.454456
0.454858
0.455081
0.455177
0.455173
0.420199
0.420259
0.420509
0.42098
0.421777
0.423044
0.424963
0.427743
0.431573
0.436533
0.441684
0.445806
0.44876
0.450783
0.452116
0.452959
0.453465
0.453745
0.453866
0.453861
0.410494
0.410575
0.410906
0.411529
0.412577
0.414237
0.416738
0.420338
0.425263
0.431591
0.438116
0.443312
0.447027
0.449569
0.451243
0.452301
0.452935
0.453287
0.453438
0.453431
0.399273
0.399386
0.399832
0.400666
0.402061
0.404257
0.407542
0.412229
0.418576
0.426644
0.434888
0.441414
0.446069
0.449255
0.451353
0.452681
0.453477
0.453918
0.454107
0.454098
0.386005
0.386169
0.386781
0.38792
0.389808
0.392753
0.397112
0.403253
0.41145
0.421722
0.432092
0.440251
0.446064
0.450046
0.452676
0.454344
0.455346
0.455901
0.456139
0.456127
0.369924
0.370167
0.371032
0.372627
0.375244
0.379269
0.385132
0.393239
0.403845
0.416876
0.42984
0.439975
0.447202
0.452177
0.455479
0.457584
0.458855
0.45956
0.459862
0.459847
0.349872
0.350246
0.351512
0.353836
0.357589
0.363239
0.371263
0.382054
0.395773
0.412203
0.42826
0.44074
0.449676
0.455886
0.460058
0.462746
0.464382
0.465293
0.465683
0.465666
0.323974
0.32456
0.326544
0.330163
0.335836
0.344048
0.355242
0.369688
0.38736
0.407859
0.427488
0.44267
0.453631
0.46138
0.466702
0.470213
0.472392
0.473612
0.474128
0.474113
0.288715
0.289741
0.293388
0.299675
0.308835
0.321197
0.337028
0.356342
0.378867
0.404048
0.427634
0.445811
0.4591
0.468734
0.475595
0.480331
0.483417
0.485217
0.48598
0.485971
0.236849
0.239953
0.248231
0.260372
0.275795
0.294665
0.316971
0.342438
0.370613
0.40091
0.428662
0.449999
0.465839
0.477683
0.486533
0.493081
0.497802
0.500944
0.502522
0.502594
0.156563
0.171749
0.191325
0.213747
0.238573
0.26613
0.296256
0.328623
0.36283
0.398437
0.4305
0.455224
0.473971
0.488512
0.500013
0.509253
0.516803
0.522893
0.527731
0.529406
0.0727102
0.102773
0.134975
0.168099
0.202782
0.238964
0.276636
0.315628
0.355679
0.396591
0.433227
0.461737
0.483798
0.501445
0.515927
0.528105
0.538519
0.547765
0.556494
0.5592
0.0126206
0.0472024
0.0869519
0.128369
0.171
0.214689
0.259167
0.304123
0.34929
0.394584
0.434682
0.465798
0.489937
0.509286
0.525124
0.53828
0.549323
0.558697
0.566318
0.568841
-0.0291002
0.00780182
0.0515121
0.0976507
0.145532
0.194633
0.244305
0.293966
0.343145
0.391706
0.434152
0.46682
0.491982
0.511959
0.528109
0.541325
0.552269
0.561484
0.568999
0.571559
-0.058702
-0.0209365
0.0252081
0.074444
0.125926
0.178894
0.232475
0.285717
0.337836
0.388542
0.432252
0.465575
0.491071
0.511183
0.52733
0.54046
0.551248
0.560237
0.567433
0.569937
-0.0815601
-0.0430424
0.00479267
0.0564143
0.11071
0.166737
0.2233
0.279157
0.33322
0.385001
0.429019
0.46234
0.487766
0.507769
0.523778
0.53674
0.547354
0.556143
0.563118
0.565597
-0.0999708
-0.0605616
-0.0112407
0.0422898
0.0988478
0.157308
0.216234
0.274025
0.329224
0.381137
0.424606
0.457409
0.482504
0.502302
0.518153
0.530964
0.54143
0.55005
0.556835
0.559296
-0.115224
-0.0748935
-0.024188
0.0310857
0.0896261
0.150157
0.211003
0.270191
0.325839
0.377002
0.419098
0.45092
0.475554
0.495168
0.510935
0.523676
0.534052
0.542576
0.549239
0.551703
-0.128142
-0.0869131
-0.0348613
0.0220392
0.082401
0.144808
0.207314
0.26753
0.323079
0.372633
0.412488
0.442888
0.467023
0.486605
0.502481
0.515317
0.525728
0.534225
0.540803
0.543269
-0.139614
-0.0973068
-0.043899
0.0145977
0.0767147
0.140905
0.204937
0.265965
0.320962
0.368088
0.404705
0.433195
0.456878
0.476747
0.49308
0.506298
0.516931
0.525529
0.532101
0.5346
-0.149826
-0.10661
-0.051793
0.00829579
0.072174
0.138151
0.20369
0.265437
0.319567
0.363447
0.395641
0.421567
0.444929
0.465615
0.482997
0.497061
0.508249
0.517141
0.523798
0.526366
-0.159519
-0.115114
-0.0589319
0.00277594
0.0684584
0.136268
0.203392
0.265901
0.318995
0.358827
0.385155
0.40759
0.430792
0.453112
0.472454
0.488106
0.500348
0.509826
0.516768
0.519456
-0.168809
-0.123214
-0.065606
-0.0022457
0.0652867
0.135027
0.20388
0.267308
0.319359
0.35444
0.373122
0.390675
0.413834
0.438957
0.461639
0.480014
0.494085
0.504616
0.512064
0.51492
-0.177995
-0.13115
-0.0720705
-0.00701548
0.062433
0.13421
0.204968
0.269588
0.320783
0.350565
0.359492
0.370037
0.393081
0.422608
0.450683
0.473475
0.490527
0.502783
0.511072
0.514198
-0.187289
-0.13911
-0.0785173
-0.0117275
0.0596935
0.13362
0.20649
0.272636
0.323365
0.347569
0.344353
0.344773
0.367144
0.403175
0.439597
0.469342
0.49104
0.505957
0.515537
0.519081
-0.196892
-0.147228
-0.0850945
-0.0165427
0.0568989
0.13308
0.208274
0.276326
0.32714
0.345853
0.327986
0.313829
0.334052
0.379307
0.428192
0.468355
0.497059
0.516016
0.527548
0.531713
-0.206695
-0.155581
-0.0918642
-0.0215543
0.0539206
0.13241
0.210125
0.280503
0.332106
0.345856
0.310938
0.276111
0.290961
0.348673
0.415781
0.471364
0.510295
0.535217
0.549776
0.554861
-0.216705
-0.164174
-0.0988937
-0.0268306
0.0506765
0.131488
0.211868
0.28498
0.338195
0.347957
0.294044
0.230521
0.234789
0.308177
0.400695
0.478467
0.532872
0.566196
0.584052
0.588945
-0.227115
-0.172997
-0.106184
-0.032398
0.047097
0.130236
0.213352
0.289521
0.345234
0.352468
0.278405
0.176093
0.159781
0.253286
0.38185
0.491363
0.5672
0.612202
0.632228
0.635614
-0.237691
-0.182078
-0.113708
-0.0382277
0.0431495
0.128569
0.214477
0.293935
0.352967
0.359545
0.265367
0.112021
0.0586689
0.177182
0.360849
0.516361
0.621268
0.68009
0.698454
0.688811
-0.248647
-0.191372
-0.121403
-0.0443232
0.0388058
0.126466
0.215145
0.298128
0.361243
0.369307
0.256225
0.0361438
-0.0834978
0.0675438
0.33499
0.548104
0.68406
0.76059
0.784977
0.771145
-0.259849
-0.200891
-0.129185
-0.0507769
0.0339427
0.123808
0.215241
0.301982
0.370093
0.382233
0.252573
-0.0585081
-0.303049
-0.119224
0.272186
0.563666
0.733459
0.79559
0.801201
0.75081
-0.271041
-0.210273
-0.136789
-0.0575588
0.0286952
0.120666
0.214675
0.305331
0.379087
0.397983
0.257433
-0.171236
-0.672754
-0.543184
0.0751806
0.501713
0.713315
0.727816
0.623657
0.544055
-0.281914
-0.218086
-0.143879
-0.0641536
0.0236446
0.117444
0.213616
0.308224
0.387949
0.416318
0.272718
-0.291254
-1.24187
-1.23977
-0.301598
0.313181
0.481944
0.459392
0.357812
0.292309
-0.345149
-0.223311
-0.151494
-0.0710176
0.0179764
0.113296
0.212214
0.310489
0.396763
0.437968
0.305328
-0.346683
-1.82284
-2.02662
-0.781916
-0.13134
0.035448
0.0815448
0.0264604
-0.000507745
-0.253907
-0.231739
-0.164306
-0.0820727
0.00839163
0.106087
0.207966
0.311083
0.406131
0.465202
0.371047
-0.347762
-2.16266
-2.27436
-1.28004
-0.835676
-0.57912
-0.471094
-0.471867
-0.323917
-0.293749
-0.243781
-0.174317
-0.091766
-0.000166804
0.0990574
0.203426
0.309814
0.411278
0.484974
0.428373
-0.18135
-1.70431
-1.92692
-1.3615
-1.0422
-0.903971
-0.822636
-0.832567
-0.653947
-0.319921
-0.262153
-0.188328
-0.104197
-0.010978
0.0900377
0.196643
0.306359
0.413135
0.498847
0.477578
0.0295577
-1.0458
-1.32832
-1.19531
-1.12634
-1.13927
-1.14369
-1.20774
-1.02769
-0.3448
-0.281721
-0.204163
-0.117542
-0.0223407
0.0803811
0.189171
0.30163
0.412392
0.508357
0.519864
0.232437
-0.46205
-0.820353
-0.99267
-1.15649
-1.33596
-1.47838
-1.61169
-1.49916
-0.368981
-0.301894
-0.22125
-0.132086
-0.0348758
0.0696659
0.180515
0.294852
0.409305
0.514154
0.550374
0.384528
-0.0588429
-0.447523
-0.810357
-1.18669
-1.52449
-1.80312
-2.13537
-2.22252
-0.392663
-0.323278
-0.239917
-0.148366
-0.0490732
0.0574443
0.169899
0.286331
0.403992
0.512696
0.566758
0.476883
0.167553
-0.234996
-0.693205
-1.21729
-1.73016
-2.07248
-2.33648
-2.68855
-0.417058
-0.346096
-0.260491
-0.166766
-0.0652823
0.0430204
0.157234
0.27553
0.394387
0.507272
0.573814
0.524819
0.297365
-0.0929957
-0.592027
-1.21741
-1.91828
-2.23694
-2.21726
-2.27654
-0.442724
-0.370579
-0.283139
-0.187279
-0.0838637
0.0263489
0.14218
0.261739
0.382457
0.496455
0.567843
0.540015
0.363515
0.000692982
-0.503591
-1.18867
-2.07064
-2.5508
-2.41487
-2.39771
-0.470449
-0.397116
-0.307875
-0.210041
-0.10468
0.0073551
0.124626
0.245244
0.366227
0.48089
0.555831
0.544573
0.405476
0.0964565
-0.376575
-1.09122
-2.05383
-2.81279
-2.73022
-2.53735
-0.500599
-0.425934
-0.33487
-0.235053
-0.127823
-0.0142049
0.104421
0.226225
0.348235
0.463074
0.539503
0.541266
0.434392
0.210415
-0.156129
-0.743747
-1.41191
-1.92853
-1.92485
-1.77779
-0.533167
-0.457067
-0.364167
-0.262427
-0.153362
-0.0378342
0.0824145
0.205178
0.327508
0.442745
0.523149
0.539575
0.479416
0.341826
0.138315
-0.126967
-0.368336
-0.490336
-0.489878
-0.448544
-0.567865
-0.490426
-0.39568
-0.291846
-0.18072
-0.0635569
0.0580644
0.182109
0.305443
0.422483
0.509029
0.544471
0.529475
0.477747
0.412271
0.354353
0.327158
0.352602
0.397192
0.411277
-0.604741
-0.525875
-0.429221
-0.323354
-0.210176
-0.0909766
0.0325124
0.158003
0.28261
0.402884
0.497514
0.552268
0.575283
0.581437
0.589357
0.611868
0.655032
0.711057
0.752611
0.763951
-0.64359
-0.56311
-0.464285
-0.356142
-0.240652
-0.119374
0.00590551
0.13315
0.260135
0.384961
0.488753
0.561085
0.611924
0.653951
0.697426
0.746827
0.80076
0.851594
0.885182
0.894136
-0.683624
-0.601463
-0.50026
-0.389679
-0.271836
-0.148312
-0.0208857
0.10868
0.239058
0.368866
0.482332
0.569183
0.637937
0.697847
0.753897
0.807069
0.856052
0.897771
0.926337
0.934947
-0.723919
-0.639771
-0.536137
-0.42298
-0.302647
-0.176773
-0.046879
0.0854481
0.219441
0.354811
0.47676
0.574688
0.654395
0.722658
0.782105
0.833798
0.877823
0.914001
0.939668
0.948065
-0.762903
-0.676652
-0.570563
-0.454786
-0.33191
-0.203576
-0.0710734
0.0641638
0.201693
0.34237
0.472081
0.577207
0.663102
0.734797
0.794969
0.845142
0.88661
0.920342
0.944238
0.952624
-0.797996
-0.709862
-0.601496
-0.483231
-0.358016
-0.227315
-0.0925094
0.0452695
0.185941
0.331147
0.465942
0.576065
0.665073
0.738088
0.798081
0.847298
0.887467
0.920068
0.943194
0.951526
-0.824968
-0.736225
-0.626368
-0.506102
-0.379036
-0.246658
-0.110296
0.0292074
0.172052
0.320201
0.458024
0.570676
0.660824
0.733997
0.793521
0.841929
0.881264
0.912997
0.935536
0.943836
-0.840609
-0.752885
-0.642199
-0.520805
-0.392966
-0.260105
-0.12348
0.0163478
0.159758
0.308823
0.447502
0.560582
0.650482
0.723035
0.781798
0.829446
0.868125
0.899252
0.921466
0.929803
-0.840934
-0.755277
-0.64517
-0.524312
-0.39744
-0.266008
-0.131016
0.00707218
0.148846
0.296324
0.433473
0.544953
0.633399
0.704653
0.762374
0.80924
0.847359
0.878059
0.900078
0.908457
-0.820442
-0.738507
-0.631229
-0.513116
-0.389764
-0.26242
-0.13183
0.00182708
0.139164
0.282131
0.415004
0.522739
0.608321
0.677432
0.733664
0.779538
0.81702
0.847277
0.869304
0.877922
-0.771531
-0.695832
-0.594777
-0.482936
-0.366996
-0.24743
-0.124749
0.00106612
0.130709
0.265803
0.391259
0.492738
0.573494
0.639043
0.692818
0.737057
0.773502
0.803198
0.825465
0.834371
-0.685602
-0.620747
-0.529485
-0.43002
-0.326574
-0.219465
-0.1089
0.00527576
0.12362
0.247269
0.361813
0.45399
0.527108
0.586527
0.635681
0.676586
0.710419
0.73827
0.759978
0.768845
-0.558992
-0.507759
-0.432273
-0.352123
-0.26722
-0.177819
-0.083838
0.0148138
0.118297
0.227005
0.327275
0.406838
0.468788
0.518157
0.558329
0.591781
0.619493
0.64151
0.657426
0.663545
-0.362922
-0.339997
-0.298365
-0.248029
-0.18959
-0.124006
-0.0510276
0.0290652
0.116046
0.209523
0.296583
0.36536
0.41796
0.458564
0.489813
0.513515
0.531851
0.546806
0.559016
0.563911
-0.181196
-0.174693
-0.16024
-0.137426
-0.105923
-0.0645509
-0.0132872
0.0477213
0.117835
0.196018
0.27003
0.328298
0.371939
0.404346
0.428271
0.445761
0.457935
0.465416
0.469459
0.470714
-0.067475
-0.0665433
-0.0619095
-0.0519076
-0.0354505
-0.0108158
0.0233465
0.0677278
0.122173
0.185647
0.247202
0.295689
0.331353
0.357
0.374743
0.386323
0.393436
0.397579
0.399508
0.399871
-0.00462272
-0.0049263
-0.00343437
0.0017124
0.0118775
0.0282639
0.0521658
0.0847287
0.126532
0.177067
0.227059
0.266497
0.295102
0.315148
0.32872
0.337568
0.342938
0.345762
0.346839
0.347027
0.0329818
0.0331197
0.0343421
0.0376941
0.0443013
0.0554968
0.0726504
0.0969389
0.129108
0.169031
0.209203
0.241014
0.263965
0.279911
0.290537
0.297247
0.301205
0.30332
0.30424
0.304446
0.0580813
0.0583129
0.0593468
0.0618847
0.0667092
0.0748115
0.0873636
0.105558
0.13028
0.161635
0.193622
0.219047
0.237312
0.249876
0.258164
0.263389
0.266488
0.268152
0.268881
0.269047
0.0746323
0.0748749
0.0757417
0.0776906
0.0813057
0.0873626
0.0968003
0.110627
0.129689
0.154235
0.17956
0.199772
0.214273
0.224223
0.230769
0.23488
0.237312
0.238622
0.239202
0.239335
0.0853321
0.085549
0.0862569
0.0877779
0.0905437
0.0951431
0.10232
0.112908
0.12765
0.146846
0.166822
0.182823
0.194304
0.202166
0.207326
0.210563
0.212479
0.213512
0.213971
0.214074
0.091674
0.0918517
0.0924126
0.0935948
0.0957259
0.0992575
0.104767
0.112924
0.124356
0.139359
0.155073
0.167705
0.176773
0.18298
0.187051
0.189604
0.191113
0.191927
0.192286
0.192366
0.0947088
0.0948513
0.0952921
0.0962116
0.0978602
0.100585
0.104838
0.11115
0.120034
0.131758
0.144102
0.15405
0.1612
0.166094
0.169301
0.171312
0.172499
0.173138
0.173419
0.173481
0.0952109
0.0953237
0.0956689
0.0963842
0.0976629
0.0997744
0.10307
0.107969
0.114884
0.124045
0.133729
0.141552
0.147179
0.151032
0.153558
0.155139
0.156071
0.156572
0.156792
0.156839
0.0937636
0.0938523
0.0941217
0.0946783
0.0956721
0.097312
0.099872
0.103681
0.10907
0.11623
0.123821
0.129965
0.134388
0.137416
0.1394
0.140642
0.141375
0.141768
0.14194
0.141976
0.0908076
0.0908771
0.0910875
0.0915212
0.0922942
0.0935692
0.0955606
0.0985273
0.10273
0.108325
0.11427
0.119088
0.12256
0.124938
0.126498
0.127473
0.128047
0.128354
0.128486
0.128514
0.0866832
0.0867375
0.0869013
0.0872388
0.0878407
0.0888336
0.0903847
0.0926959
0.0959732
0.100345
0.104997
0.108774
0.111497
0.113361
0.114582
0.115346
0.115796
0.116036
0.11614
0.116162
0.0816494
0.0816918
0.0818196
0.0820824
0.0825511
0.0833243
0.0845321
0.0863332
0.0888901
0.0923045
0.0959418
0.0988968
0.101029
0.102489
0.103446
0.104043
0.104393
0.104581
0.104661
0.104678
0.0759102
0.075943
0.0760421
0.0762465
0.0766112
0.077213
0.0781532
0.079556
0.081549
0.0842121
0.0870532
0.0893624
0.0910277
0.0921685
0.0929164
0.0933846
0.0936594
0.0938056
0.0938682
0.093881
0.0696202
0.0696458
0.0697229
0.0698819
0.0701652
0.0706328
0.0713644
0.0724563
0.0740075
0.0760814
0.0782966
0.0800978
0.081397
0.0822879
0.0828711
0.0832348
0.0834484
0.0835618
0.0836103
0.0836201
0.0629043
0.0629239
0.0629834
0.0631064
0.0633263
0.0636892
0.064256
0.065102
0.066306
0.0679178
0.069639
0.0710398
0.0720521
0.0727456
0.0731984
0.0734801
0.073645
0.0737325
0.0737693
0.0737768
0.0558566
0.0558716
0.0559174
0.0560121
0.0561812
0.056461
0.0568994
0.0575541
0.058485
0.0597317
0.0610634
0.0621473
0.062929
0.0634633
0.0638135
0.0640326
0.064161
0.064229
0.0642582
0.064264
0.0485522
0.0485636
0.0485988
0.0486713
0.0488007
0.0490146
0.0493502
0.049852
0.0505662
0.0515226
0.0525444
0.0533758
0.0539755
0.0543867
0.0546561
0.0548238
0.0549219
0.0549737
0.0549953
0.0549996
0.0410528
0.0410612
0.041087
0.0411415
0.0412393
0.041401
0.0416542
0.0420335
0.0425735
0.0432975
0.0440725
0.0447041
0.0451605
0.0454732
0.0456769
0.0458028
0.045876
0.0459143
0.0459298
0.0459329
0.0334048
0.0334111
0.0334299
0.0334693
0.0335407
0.0336604
0.0338488
0.0341302
0.0345307
0.0350675
0.0356413
0.0361076
0.0364435
0.0366725
0.036822
0.0369162
0.0369714
0.0370003
0.0370131
0.0370156
0.0256455
0.0256495
0.0256619
0.0256898
0.0257415
0.0258273
0.025961
0.0261607
0.0264458
0.0268279
0.0272358
0.027567
0.0278051
0.0279681
0.0280741
0.0281388
0.0281764
0.028196
0.0282033
0.0282046
0.0178052
0.0178078
0.0178169
0.0178352
0.0178692
0.0179248
0.0180115
0.0181417
0.0183278
0.0185773
0.018844
0.0190613
0.0192182
0.0193246
0.0193939
0.0194365
0.0194601
0.0194713
0.0194752
0.019476
0.00991173
0.00991358
0.00991922
0.00993014
0.00994759
0.00997627
0.0100222
0.0100913
0.0101898
0.0103227
0.0104649
0.0105791
0.0106608
0.0107169
0.0107535
0.0107759
0.0107887
0.0107956
0.010799
0.0108001
0.00198356
0.00198242
0.00198119
0.00198134
0.00198372
0.0019889
0.00199718
0.00200942
0.00202718
0.00205249
0.00208064
0.00210782
0.00212778
0.00214145
0.00214997
0.00215522
0.00215869
0.0021607
0.00216083
0.00215948
-1.20132
-0.860336
-0.536756
-0.254448
0.000505301
0.231107
0.433687
0.600798
0.686728
0.657193
-0.585841
-0.358913
-0.149149
0.0450287
0.220298
0.373572
0.497642
0.582415
0.62296
0.62854
-0.173507
-0.0269311
0.112481
0.240294
0.35385
0.45053
0.523918
0.573427
0.603081
0.613322
0.0981621
0.193123
0.283177
0.367148
0.440479
0.50104
0.547903
0.580546
0.60237
0.613168
0.276147
0.339829
0.401184
0.456243
0.503892
0.543294
0.574701
0.598227
0.613537
0.620339
0.402973
0.444991
0.486711
0.52402
0.55773
0.587147
0.610572
0.627572
0.633535
0.638073
0.502687
0.529705
0.560679
0.591674
0.61878
0.640434
0.656683
0.667078
0.668465
0.676145
0.570447
0.598038
0.624647
0.649949
0.672462
0.693245
0.711377
0.724214
0.728245
0.739304
0.631527
0.66317
0.694139
0.726851
0.757062
0.782262
0.80022
0.81025
0.814484
0.828039
0.714876
0.763143
0.806674
0.842162
0.869255
0.890257
0.906681
0.918217
0.927375
0.940023
0.859324
0.902139
0.937297
0.965352
0.990898
1.0127
1.02981
1.04352
1.05473
1.07103
1.02416
1.05764
1.08649
1.11014
1.13056
1.14813
1.1652
1.1819
1.19682
1.21221
1.21371
1.23181
1.24917
1.2654
1.28182
1.29664
1.31095
1.32481
1.33935
1.35629
1.3971
1.40739
1.42105
1.43202
1.44056
1.45029
1.46069
1.47092
1.48041
1.506
1.61322
1.60757
1.59514
1.58132
1.57538
1.58106
1.59917
1.62748
1.66123
1.69754
1.91885
1.78185
1.70196
1.65913
1.64185
1.64605
1.67335
1.73139
1.83927
2.01762
0.585293
0.579667
0.573275
0.564
0.551812
0.540343
0.530695
0.523203
0.517877
0.514788
0.514345
0.516437
0.520922
0.527483
0.536187
0.546904
0.558996
0.570359
0.577389
0.584084
0.494865
0.500866
0.510604
0.517581
0.521797
0.522547
0.520723
0.517687
0.514378
0.511641
0.51099
0.513318
0.51666
0.520115
0.522815
0.523585
0.521178
0.515453
0.507186
0.498026
0.49499
0.496874
0.50029
0.503149
0.505189
0.506539
0.506989
0.506506
0.505618
0.504723
0.504604
0.505528
0.506794
0.507765
0.507958
0.507113
0.505484
0.503114
0.499867
0.49692
0.497333
0.497692
0.499005
0.500693
0.502255
0.503537
0.504231
0.504393
0.504149
0.50398
0.504118
0.504626
0.505159
0.505426
0.505142
0.504321
0.502908
0.501321
0.499758
0.498907
0.493797
0.493849
0.494056
0.494407
0.49482
0.495277
0.495812
0.496265
0.496504
0.496618
0.496864
0.497215
0.497463
0.497394
0.49706
0.496675
0.496319
0.495977
0.495703
0.495592
0.489854
0.489917
0.490111
0.490421
0.4908
0.491207
0.491605
0.49196
0.492266
0.492559
0.492898
0.493213
0.493398
0.493411
0.493268
0.493014
0.492713
0.492418
0.492183
0.492066
0.485247
0.485274
0.485359
0.485504
0.485706
0.485969
0.48629
0.486652
0.487036
0.487442
0.487866
0.488237
0.488444
0.488499
0.488448
0.488346
0.488234
0.488132
0.488052
0.488011
0.480406
0.480422
0.480483
0.480588
0.48074
0.480949
0.481223
0.481569
0.481989
0.482488
0.483033
0.483493
0.483788
0.483942
0.484
0.483999
0.48397
0.483931
0.483893
0.48387
0.475374
0.475381
0.475424
0.475506
0.475634
0.475824
0.476093
0.476461
0.476942
0.477547
0.478232
0.478828
0.479241
0.479495
0.479641
0.479714
0.479744
0.47975
0.479745
0.479735
0.470147
0.470154
0.470192
0.470267
0.470392
0.470587
0.470878
0.471293
0.471863
0.472605
0.473469
0.474244
0.47479
0.475164
0.475399
0.475539
0.475617
0.475656
0.47567
0.47567
0.464716
0.464719
0.464759
0.464841
0.464979
0.465201
0.465539
0.466034
0.466727
0.467651
0.468744
0.469736
0.470469
0.470966
0.471294
0.471501
0.471624
0.471691
0.471723
0.471729
0.459059
0.459061
0.459104
0.459198
0.459361
0.459626
0.460037
0.460645
0.461507
0.462668
0.464057
0.465331
0.466272
0.466927
0.467364
0.467643
0.467813
0.467909
0.467957
0.467968
0.453114
0.453115
0.453167
0.45328
0.453481
0.45381
0.454321
0.455084
0.456171
0.45764
0.459405
0.46103
0.462236
0.463081
0.463648
0.464013
0.464237
0.464366
0.464431
0.464448
0.446811
0.446811
0.446876
0.447018
0.447271
0.447686
0.448334
0.4493
0.45068
0.452548
0.454793
0.456864
0.458401
0.45948
0.460205
0.460674
0.460963
0.46113
0.461215
0.461237
0.440052
0.440053
0.440135
0.440317
0.44064
0.44117
0.441997
0.443232
0.444992
0.447373
0.450231
0.452863
0.454815
0.456187
0.457109
0.457705
0.458073
0.458286
0.458395
0.458424
0.432709
0.43271
0.432816
0.43305
0.433466
0.434149
0.435213
0.436797
0.439052
0.442093
0.445731
0.449072
0.451546
0.453281
0.454448
0.455202
0.455667
0.455937
0.456076
0.456112
0.424606
0.424607
0.424746
0.425051
0.425592
0.426478
0.427854
0.429897
0.432793
0.436682
0.441312
0.445546
0.448672
0.450861
0.452332
0.453283
0.45387
0.45421
0.454385
0.45443
0.41551
0.415512
0.415696
0.416098
0.416807
0.417965
0.419756
0.422403
0.426135
0.431114
0.437002
0.442358
0.446298
0.449053
0.450903
0.452097
0.452834
0.453262
0.453481
0.453538
0.405102
0.405108
0.405354
0.405891
0.406831
0.408358
0.410708
0.414158
0.418983
0.425363
0.432842
0.439597
0.444548
0.448006
0.450326
0.451825
0.45275
0.453286
0.45356
0.453631
0.39294
0.392951
0.393288
0.394018
0.395282
0.397323
0.400438
0.404967
0.411231
0.419411
0.428885
0.437372
0.443569
0.447894
0.4508
0.452679
0.45384
0.454514
0.454859
0.454947
0.378385
0.378409
0.378887
0.379902
0.38164
0.384415
0.388601
0.394604
0.402772
0.413255
0.42521
0.435812
0.44353
0.448925
0.452562
0.454921
0.456384
0.457235
0.457671
0.457782
0.360476
0.360527
0.361239
0.362709
0.365171
0.369038
0.374773
0.382825
0.393524
0.406931
0.421915
0.435055
0.444606
0.451316
0.455872
0.458852
0.460711
0.461802
0.462365
0.46251
0.337662
0.337784
0.338941
0.341187
0.344826
0.35041
0.358465
0.369412
0.383464
0.400524
0.419121
0.435228
0.446947
0.455261
0.460991
0.464798
0.467213
0.468654
0.469418
0.469623
0.307318
0.307664
0.309755
0.313435
0.319166
0.32762
0.339253
0.354287
0.372704
0.394193
0.416952
0.436412
0.450622
0.460868
0.46811
0.473073
0.476331
0.478354
0.479483
0.479817
0.26468
0.265677
0.270025
0.276792
0.286651
0.300089
0.317175
0.337781
0.361626
0.388229
0.415553
0.438628
0.455579
0.468069
0.477216
0.483806
0.488421
0.491521
0.493435
0.494032
0.200971
0.203914
0.214509
0.22884
0.246841
0.268416
0.293168
0.320795
0.350918
0.383044
0.415057
0.441782
0.46156
0.476481
0.487856
0.496557
0.503195
0.50826
0.511837
0.512682
0.120808
0.128686
0.149864
0.176536
0.205205
0.236048
0.268984
0.303868
0.340386
0.378203
0.415226
0.446157
0.469493
0.487698
0.502244
0.514071
0.523807
0.532041
0.537875
0.540564
0.0434169
0.0593177
0.0915569
0.128166
0.166451
0.206066
0.246843
0.288581
0.331057
0.374073
0.415621
0.450234
0.476506
0.497269
0.514146
0.528118
0.539774
0.549501
0.55705
0.56144
-0.00688123
0.0101973
0.0470123
0.0897131
0.134555
0.180729
0.227753
0.275177
0.322603
0.369773
0.414651
0.451703
0.479727
0.501777
0.519539
0.534017
0.545868
0.555578
0.562936
0.567037
-0.0423354
-0.0246985
0.0149525
0.0611644
0.109959
0.160565
0.212153
0.26394
0.315197
0.365478
0.412614
0.451088
0.479941
0.502459
0.520442
0.534987
0.546801
0.556411
0.563787
0.567926
-0.0682422
-0.0506208
-0.00937932
0.0393185
0.0911572
0.145073
0.200098
0.255148
0.309177
0.361459
0.409728
0.448691
0.477732
0.500295
0.51823
0.532667
0.54435
0.553804
0.561125
0.565234
-0.0889781
-0.071055
-0.0283642
0.0222645
0.0764145
0.132979
0.190727
0.248274
0.304225
0.357571
0.406004
0.444718
0.473506
0.495881
0.513657
0.527939
0.539477
0.548795
0.556061
0.560152
-0.105924
-0.0876304
-0.0435561
0.0087745
0.0649072
0.123647
0.183611
0.243083
0.300293
0.353872
0.40155
0.439328
0.46755
0.489635
0.507247
0.521415
0.532856
0.542087
0.549293
0.553379
-0.120138
-0.101416
-0.0560583
-0.00214039
0.0557842
0.116489
0.178351
0.239368
0.297309
0.350381
0.396389
0.432573
0.45999
0.481802
0.499371
0.51355
0.524994
0.534211
0.541412
0.54554
-0.132446
-0.113279
-0.0665866
-0.0111518
0.0484893
0.111006
0.174616
0.236941
0.295236
0.347145
0.390542
0.424394
0.450802
0.472494
0.490279
0.504717
0.51634
0.525651
0.532904
0.537075
-0.143459
-0.123749
-0.0757147
-0.0187847
0.0425291
0.106843
0.17214
0.235674
0.294079
0.344251
0.383994
0.414629
0.439824
0.461688
0.480158
0.495262
0.507377
0.516983
0.524401
0.528692
-0.153488
-0.133286
-0.0839278
-0.0254744
0.0375464
0.103666
0.170687
0.235433
0.293861
0.341813
0.376774
0.403014
0.426714
0.449215
0.469106
0.485563
0.498664
0.508876
0.516609
0.521053
-0.163101
-0.142265
-0.0915492
-0.0315409
0.0332224
0.101216
0.17004
0.236129
0.294601
0.340015
0.36893
0.389188
0.410911
0.43472
0.457147
0.476001
0.490854
0.502166
0.510492
0.515244
-0.172443
-0.150976
-0.0988711
-0.0372814
0.0292765
0.0992364
0.170012
0.237627
0.296349
0.339033
0.360627
0.37275
0.391612
0.417567
0.44417
0.466994
0.484765
0.49791
0.507229
0.512448
-0.181786
-0.159639
-0.10609
-0.042889
0.0254996
0.0975003
0.170386
0.23979
0.299079
0.339133
0.352109
0.353266
0.367701
0.396746
0.42985
0.45896
0.481376
0.497459
0.508381
0.514278
-0.191255
-0.168397
-0.11338
-0.0485329
0.0217259
0.0958302
0.170968
0.242462
0.302781
0.34054
0.343808
0.330374
0.337701
0.370752
0.413571
0.452364
0.48193
0.50251
0.515897
0.522821
-0.201085
-0.177376
-0.120851
-0.0543453
0.0178137
0.0940761
0.171585
0.24546
0.307355
0.343468
0.336296
0.303867
0.299784
0.337339
0.394216
0.447473
0.487629
0.514777
0.531706
0.539749
-0.211019
-0.186656
-0.12856
-0.0603951
0.0136615
0.092115
0.172086
0.24858
0.312639
0.348034
0.330292
0.273773
0.251576
0.293416
0.370051
0.443881
0.499506
0.536105
0.558097
0.568281
-0.221295
-0.196137
-0.136495
-0.0667149
0.00921104
0.089824
0.172332
0.251672
0.318445
0.354268
0.32654
0.240512
0.190007
0.234567
0.337556
0.44136
0.519865
0.570415
0.598546
0.609943
-0.231817
-0.205861
-0.144693
-0.0733005
0.00445666
0.0871651
0.172201
0.254562
0.324569
0.362058
0.325798
0.204977
0.111372
0.153852
0.295586
0.440458
0.551642
0.621665
0.656336
0.66357
-0.242684
-0.215869
-0.1531
-0.0800914
-0.000629483
0.084099
0.171648
0.257082
0.330764
0.371224
0.32866
0.168626
0.0105761
0.0404471
0.238653
0.450272
0.600862
0.691597
0.736491
0.728804
-0.253799
-0.226109
-0.161688
-0.0870839
-0.00611537
0.0805553
0.17059
0.259196
0.337028
0.381992
0.336067
0.131292
-0.129849
-0.134728
0.154944
0.4498
0.647917
0.757275
0.809394
0.816955
-0.265097
-0.23669
-0.170162
-0.0942358
-0.012043
0.0764912
0.168958
0.260703
0.343071
0.394034
0.348872
0.0963997
-0.331481
-0.443564
-0.0492913
0.394959
0.657893
0.780348
0.761481
0.676045
-0.276072
-0.24767
-0.177988
-0.101654
-0.0183864
0.0717995
0.166638
0.261465
0.348564
0.406757
0.367791
0.0711748
-0.623273
-1.0273
-0.470783
0.199969
0.565367
0.637598
0.565099
0.446281
-0.290516
-0.25642
-0.184961
-0.109467
-0.0249976
0.0666954
0.163243
0.261398
0.353273
0.419479
0.392196
0.0631257
-0.96443
-1.87751
-1.09007