/*--------------------------------*- C++ -*----------------------------------*\
  =========                 |
  \\      /  F ield         | OpenFOAM: The Open Source CFD Toolbox
   \\    /   O peration     | Website:  https://openfoam.org
    \\  /    A nd           | Version:  6
     \\/     M anipulation  |
\*---------------------------------------------------------------------------*/
FoamFile
{
    version     2.0;
    format      ascii;
    class       surfaceScalarField;
    location    "4";
    object      phi;
}
// * * * * * * * * * * * * * * * * * * * * * * * * * * * * * * * * * * * * * //

dimensions      [0 3 -1 0 0 0 0];

internalField   nonuniform List<scalar> 
17370
(
-0.0902091
0.0902438
0.288976
-0.0718459
0.0537579
0.364864
-0.0377421
0.0273659
0.426544
-0.0191488
0.0139516
0.504449
-0.00994813
0.00753109
0.601819
-0.00556866
0.00449101
0.720135
-0.00360112
0.00299259
0.863515
-0.00234727
0.00182521
1.03597
-0.00127812
0.000835989
1.24294
-0.000344685
-4.52726e-05
1.49158
0.000437265
-0.000930572
1.49168
0.00136921
-0.00190952
1.24323
0.00242355
-0.00306128
1.03628
0.00366609
-0.00454854
0.863789
0.00560802
-0.00755876
0.721008
0.00996769
-0.0139672
0.603214
0.0191624
-0.0273763
0.507653
0.0377539
-0.0537684
0.432183
0.0718535
-0.0902484
0.36517
0.0902126
0.198798
-0.128991
0.0924725
0.0365188
-0.36469
0.354029
-0.0678742
0.0785358
-0.447478
0.454282
-0.0775144
0.0707101
-0.521565
0.529836
-0.0629123
0.0546414
-0.612629
0.620716
-0.046865
0.0387783
-0.726745
0.732779
-0.0320462
0.026012
-0.866948
0.871302
-0.021237
0.0168836
-1.03792
1.04105
-0.0134475
0.0103112
-1.24437
1.24664
-0.00785098
0.00558084
-1.4926
1.49459
-0.00365869
0.00166479
-1.49236
1.49421
0.00018925
-0.00204076
-1.24385
1.24575
0.00401386
-0.00591207
-1.03712
1.03956
0.00816006
-0.0105981
-0.865486
0.868927
0.013718
-0.0171595
-0.724028
0.728795
0.0214798
-0.0262463
-0.608538
0.615242
0.0322452
-0.0389488
-0.514995
0.522775
0.0469973
-0.0547771
-0.440546
0.448329
0.0630334
-0.070817
-0.375704
0.376707
0.0776032
-0.0786063
-0.257249
0.225865
0.067922
-0.0365379
-0.0772434
0.0711215
0.00612193
-0.0288539
0.0334819
-0.373207
0.36858
-0.0354095
0.0358711
-0.450534
0.450072
-0.0353114
0.0344453
-0.525958
0.526824
-0.0328731
0.0310123
-0.619393
0.621254
-0.0284489
0.0256843
-0.733242
0.736007
-0.0222805
0.0189383
-0.87284
0.876182
-0.0152673
0.0120308
-1.04263
1.04587
-0.00868115
0.00574727
-1.24835
1.25128
-0.00259778
-0.000392206
-1.49678
1.49977
0.00337844
-0.00651121
-1.49721
1.50034
0.00939577
-0.0126634
-1.2495
1.25277
0.0158432
-0.0194969
-1.04465
1.04831
0.0227892
-0.0261449
-0.875746
0.879102
0.0288497
-0.0313391
-0.737441
0.739931
0.0331622
-0.0347115
-0.624496
0.626045
0.03554
-0.0360481
-0.53246
0.532968
0.0355519
-0.0335936
-0.454411
0.452453
0.0289391
-0.0182468
-0.341255
0.330563
0.00614163
-0.077197
0.0710554
-0.0690064
0.0689495
5.68717e-05
-0.00887398
0.014958
-0.362536
0.356452
-0.0208426
0.0252022
-0.447748
0.443389
-0.0282002
0.0293723
-0.526858
0.525686
-0.0292969
0.0284044
-0.622311
0.623203
-0.0267733
0.0248636
-0.738108
0.740018
-0.0223772
0.0198512
-0.878867
0.881393
-0.0167637
0.0137341
-1.04894
1.05197
-0.0102413
0.00692334
-1.25463
1.25795
-0.00303146
-0.000779592
-1.50348
1.50729
0.00457038
-0.00840255
-1.50413
1.50796
0.0116908
-0.0151071
-1.25629
1.2597
0.0180076
-0.0209514
-1.05142
1.05437
0.0233787
-0.0257632
-0.88171
0.884095
0.0275866
-0.0291393
-0.74166
0.743213
0.0299555
-0.0299333
-0.626612
0.62659
0.028677
-0.0255904
-0.532247
0.529161
0.0211511
-0.0151809
-0.448173
0.442203
0.0090185
-0.00293024
-0.321706
0.315618
7.62853e-05
-0.0689111
0.0688348
-0.0692581
0.0692048
5.33545e-05
-0.00271587
0.00557141
-0.352067
0.349212
-0.00913617
0.0122129
-0.439277
0.4362
-0.0151166
0.017209
-0.523473
0.521381
-0.0187673
0.0195553
-0.622946
0.622158
-0.0197714
0.0193596
-0.741342
0.741754
-0.0182681
0.0167485
-0.883642
0.885162
-0.0146053
0.0122606
-1.05477
1.05711
-0.00930639
0.00630657
-1.26114
1.26414
-0.00264178
-0.00100407
-1.51104
1.51468
0.00461121
-0.00819415
-1.5117
1.51528
0.0111623
-0.0140772
-1.26289
1.2658
0.0163146
-0.0183123
-1.05704
1.05904
0.0196988
-0.0206563
-0.885994
0.886951
0.0209511
-0.0206074
-0.743804
0.74346
0.0196995
-0.0179904
-0.625084
0.623375
0.0157634
-0.0127271
-0.525443
0.522406
0.00954267
-0.00586883
-0.437033
0.433359
0.00291963
-0.00080142
-0.312176
0.310058
8.69122e-05
-0.0691224
0.0690355
-0.0690296
0.0689502
7.9454e-05
-0.00134496
0.00265823
-0.347274
0.345961
-0.00443983
0.00614196
-0.433907
0.432205
-0.0079145
0.00936761
-0.519629
0.518176
-0.0106797
0.0115647
-0.62127
0.620385
-0.0121233
0.0122498
-0.741821
0.741695
-0.0119345
0.0112486
-0.886154
0.88684
-0.0100417
0.00854803
-1.05898
1.06047
-0.00649179
0.004275
-1.26675
1.26896
-0.0015061
-0.00129391
-1.51798
1.52078
0.00406133
-0.00674376
-1.51846
1.52115
0.00884508
-0.010758
-1.26823
1.27014
0.0121119
-0.0131245
-1.06043
1.06145
0.0136249
-0.0137349
-0.887384
0.887494
0.0134256
-0.012676
-0.742866
0.742116
0.0116291
-0.0101625
-0.621776
0.62031
0.00858191
-0.00668074
-0.520026
0.518125
0.0048676
-0.00296953
-0.430731
0.428833
0.00155177
-0.000541261
-0.30858
0.307569
0.000113447
-0.068821
0.0687076
-0.068915
0.0688755
3.9491e-05
-0.000643218
0.00123437
-0.345089
0.344498
-0.00204616
0.00285773
-0.431014
0.430202
-0.00376145
0.00455426
-0.517068
0.516275
-0.00534372
0.00594026
-0.619618
0.619022
-0.00641394
0.00664697
-0.741471
0.741238
-0.00664356
0.00637127
-0.887279
0.887551
-0.00575002
0.00487861
-1.06162
1.06249
-0.00358576
0.00211512
-1.27079
1.27226
-0.000266187
-0.00160807
-1.52308
1.52496
0.00343926
-0.00516658
-1.52331
1.52504
0.00644312
-0.00748421
-1.27158
1.27262
0.00815338
-0.00854647
-1.06211
1.06251
0.00860372
-0.0083692
-0.887378
0.887143
0.00792175
-0.00722072
-0.741344
0.740643
0.00643125
-0.00545469
-0.619076
0.6181
0.00450352
-0.00343756
-0.516682
0.515616
0.00248887
-0.00153995
-0.427498
0.426549
0.000838903
-0.000315963
-0.30687
0.306347
7.15651e-05
-0.0686445
0.0685729
-0.0688463
0.0688348
1.15547e-05
-0.000289315
0.000569568
-0.344087
0.343807
-0.000953419
0.00134018
-0.429641
0.429255
-0.0017781
0.00217193
-0.515713
0.51532
-0.0025754
0.00289392
-0.618579
0.618261
-0.00316118
0.00330567
-0.741042
0.740898
-0.00332192
0.00317941
-0.887735
0.887878
-0.0028204
0.00229163
-1.06316
1.06369
-0.00147951
0.000534733
-1.27343
1.27438
0.000681684
-0.00193061
-1.52649
1.52774
0.00313881
-0.00421695
-1.52641
1.52749
0.00494672
-0.00546937
-1.27336
1.27388
0.00573774
-0.00581262
-1.06271
1.06278
0.00569322
-0.00539299
-0.886861
0.886561
0.00499622
-0.00446495
-0.740033
0.739502
0.0039206
-0.00329012
-0.617324
0.616694
0.00270466
-0.00207275
-0.514809
0.514177
0.00152316
-0.000976216
-0.425842
0.425295
0.000560886
-0.000230779
-0.305936
0.305606
5.93251e-05
-0.0685037
0.0684443
-0.068836
0.0688467
-1.07267e-05
-5.75204e-05
0.000166403
-0.343624
0.343516
-0.000325023
0.000487414
-0.428996
0.428834
-0.000671744
0.000836975
-0.515054
0.514889
-0.00100455
0.00113306
-0.618045
0.617917
-0.0012316
0.00126674
-0.740808
0.740773
-0.0012243
0.00109252
-0.888006
0.888138
-0.00082498
0.000454883
-1.06413
1.0645
9.82969e-05
-0.000733213
-1.27515
1.27578
0.00154667
-0.0023615
-1.52875
1.52956
0.00311783
-0.00375276
-1.52832
1.52896
0.00414122
-0.00437071
-1.27424
1.27447
0.00443114
-0.00434789
-1.06277
1.06268
0.00415809
-0.0038542
-0.886256
0.885952
0.00351397
-0.00309701
-0.739034
0.738617
0.00269499
-0.00224837
-0.61617
0.615723
0.00184692
-0.00142362
-0.513668
0.513245
0.00106037
-0.000698491
-0.424858
0.424497
0.000417258
-0.000182278
-0.305332
0.305097
5.05971e-05
-0.0683912
0.0683406
-0.068867
0.0688952
-2.81753e-05
8.3422e-05
-8.23762e-05
-0.343467
0.343466
6.08827e-05
-3.52385e-05
-0.428746
0.42872
8.41348e-06
1.00959e-05
-0.514803
0.514785
-1.83521e-05
8.76854e-06
-0.617862
0.617872
2.87292e-05
-9.71293e-05
-0.740791
0.740859
0.000221035
-0.000389849
-0.888284
0.888453
0.000647577
-0.000956978
-1.06483
1.06514
0.00138104
-0.00183979
-1.27632
1.27678
0.00240128
-0.00293285
-1.53022
1.53075
0.00339153
-0.00373846
-1.52943
1.52978
0.00391272
-0.00394256
-1.27459
1.27462
0.00386463
-0.00368446
-1.06255
1.06237
0.00345213
-0.0031448
-0.885649
0.885341
0.00283345
-0.00247523
-0.738237
0.737878
0.0021441
-0.00178711
-0.615331
0.614974
0.0014729
-0.00114626
-0.51288
0.512553
0.000867682
-0.000588755
-0.424185
0.423906
0.000366105
-0.00016981
-0.304887
0.304691
5.07132e-05
-0.0682906
0.0682399
-0.0689307
0.0689735
-4.28136e-05
0.000205521
-0.000274145
-0.343498
0.343566
0.000347008
-0.000417781
-0.428748
0.428819
0.000503543
-0.000592098
-0.514824
0.514913
0.000703228
-0.000821049
-0.617938
0.618056
0.000972369
-0.00113515
-0.740976
0.741138
0.00134597
-0.00157291
-0.888649
0.888876
0.00186391
-0.00216916
-1.06544
1.06574
0.00254466
-0.00291452
-1.27718
1.27755
0.00332821
-0.00367914
-1.53118
1.53153
0.00393741
-0.00407282
-1.53001
1.53015
0.00407633
-0.0039948
-1.27459
1.27451
0.0038171
-0.00355976
-1.06215
1.06189
0.00328301
-0.00295215
-0.885025
0.884694
0.00263754
-0.0022905
-0.737531
0.737184
0.00197918
-0.00165053
-0.614637
0.614308
0.00136552
-0.00107211
-0.512249
0.511956
0.000823029
-0.000572285
-0.423647
0.423396
0.000367212
-0.00017793
-0.304501
0.304312
5.57833e-05
-0.0681873
0.0681315
-0.069025
0.0690856
-6.058e-05
0.000322264
-0.00045907
-0.343672
0.343808
0.000611624
-0.00076054
-0.428928
0.429077
0.000938372
-0.00111604
-0.515046
0.515224
0.00132922
-0.00154244
-0.618222
0.618435
0.0017978
-0.00205271
-0.741347
0.741602
0.00235683
-0.00265737
-0.889138
0.889438
0.00300981
-0.0033485
-1.06606
1.0664
0.00372863
-0.00406838
-1.2779
1.27824
0.0044067
-0.00464849
-1.53182
1.53207
0.00477435
-0.00476842
-1.53021
1.5302
0.00465256
-0.00442723
-1.27435
1.27413
0.00416635
-0.0038309
-1.0616
1.06126
0.00349831
-0.00312013
-0.884343
0.883965
0.00277328
-0.0024004
-0.736828
0.736455
0.00207212
-0.00173019
-0.613978
0.613636
0.00143642
-0.00113601
-0.511663
0.511362
0.000881589
-0.000624189
-0.423145
0.422888
0.000409491
-0.000204353
-0.304117
0.303912
6.6066e-05
-0.0680712
0.0680052
-0.0691556
0.0692357
-8.01278e-05
0.000443693
-0.000644946
-0.343977
0.344178
0.000876171
-0.00110297
-0.429265
0.429492
0.0013722
-0.00163856
-0.515445
0.515712
0.00195417
-0.00226485
-0.618696
0.619007
0.00262991
-0.00298502
-0.741905
0.74226
0.00339604
-0.00378761
-0.889782
0.890174
0.00422798
-0.00463021
-1.06677
1.06717
0.00505515
-0.00540714
-1.27858
1.27893
0.0057206
-0.00590012
-1.53227
1.53245
0.00593317
-0.00581111
-1.53014
1.53001
0.00558793
-0.00525029
-1.27385
1.27351
0.0048872
-0.00445323
-1.06088
1.06045
0.00404063
-0.00358531
-0.883552
0.883096
0.00317646
-0.00274366
-0.736057
0.735624
0.00236694
-0.00197772
-0.613274
0.612885
0.00164536
-0.0013067
-0.511047
0.510708
0.00102024
-0.000729444
-0.422617
0.422326
0.000484081
-0.000245104
-0.303692
0.303453
8.03998e-05
-0.0679324
0.067852
-0.0693273
0.0694319
-0.00010459
0.000588573
-0.000861979
-0.344414
0.344687
0.00117884
-0.00149026
-0.429759
0.430071
0.00185974
-0.00222428
-0.516026
0.51639
0.00265423
-0.00307487
-0.61937
0.619791
0.00356486
-0.00403671
-0.742671
0.743143
0.00457553
-0.00508053
-0.890619
0.891124
0.00563648
-0.00613117
-1.06761
1.06811
0.00663576
-0.00703326
-1.2793
1.2797
0.00735772
-0.00750396
-1.53261
1.53276
0.00746392
-0.00723475
-1.52984
1.52961
0.00690043
-0.00643846
-1.27311
1.27265
0.00596158
-0.00540664
-1.05996
1.0594
0.00488926
-0.00432646
-0.882591
0.882028
0.00382626
-0.00330118
-0.735149
0.734624
0.00284673
-0.00237967
-0.612461
0.611993
0.00198214
-0.00157801
-0.51034
0.509936
0.00123639
-0.000888975
-0.42201
0.421662
0.000593868
-0.000303171
-0.30319
0.3029
0.000100255
-0.0677623
0.067662
-0.069551
0.0696866
-0.000135654
0.000768109
-0.00112841
-0.345002
0.345362
0.0015475
-0.00195953
-0.43043
0.430842
0.00244772
-0.00292855
-0.51681
0.517291
0.00349461
-0.00404679
-0.620274
0.620826
0.00468763
-0.00530166
-0.743682
0.744296
0.00599848
-0.00664617
-0.891696
0.892344
0.00735161
-0.00797043
-1.06866
1.06928
0.00858903
-0.00906177
-1.28013
1.28061
0.0094254
-0.0095569
-1.53289
1.53303
0.00945201
-0.00911124
-1.52933
1.52898
0.0086528
-0.00804212
-1.27212
1.27151
0.00742492
-0.00671627
-1.05877
1.05806
0.00606243
-0.00535655
-0.881399
0.880693
0.00473299
-0.00408097
-0.73404
0.733388
0.00351853
-0.00294155
-0.611476
0.610899
0.00245129
-0.00195352
-0.509488
0.508991
0.0015331
-0.00110539
-0.421278
0.42085
0.000740895
-0.000379804
-0.302576
0.302215
0.000126041
-0.0675497
0.0674237
-0.069841
0.0700167
-0.000175721
0.000996279
-0.00146492
-0.345774
0.346242
0.00201061
-0.00254707
-0.431313
0.431849
0.00318258
-0.00380788
-0.51784
0.518465
0.00454293
-0.00525874
-0.621455
0.622171
0.00608777
-0.00687977
-0.744994
0.745786
0.00777519
-0.00860349
-0.893076
0.893904
0.00950002
-0.0102797
-1.06997
1.07075
0.0110499
-0.0116271
-1.28113
1.2817
0.0120536
-0.0121809
-1.53315
1.53328
0.0120072
-0.011538
-1.52858
1.52811
0.0109303
-0.0101364
-1.27081
1.27002
0.00934306
-0.00843903
-1.05726
1.05636
0.00760965
-0.0067176
-0.8799
0.879008
0.00593214
-0.00511283
-0.732658
0.731839
0.00440757
-0.00368503
-0.610254
0.609531
0.0030716
-0.00244912
-0.508435
0.507812
0.00192348
-0.00138831
-0.420372
0.419837
0.000931458
-0.000477854
-0.301811
0.301357
0.000158604
-0.0672825
0.0671239
-0.070217
0.0704452
-0.000228256
0.00129146
-0.00189828
-0.346776
0.347382
0.00260484
-0.00329936
-0.43246
0.433154
0.00412153
-0.0049299
-0.519176
0.519984
0.00587934
-0.00680278
-0.622985
0.623908
0.00787029
-0.0088881
-0.746684
0.747702
0.0100356
-0.0110934
-0.894841
0.895898
0.0122328
-0.0132177
-1.07163
1.07261
0.0141818
-0.0148942
-1.28234
1.28306
0.0154045
-0.0155312
-1.53341
1.53354
0.0152755
-0.0146476
-1.52757
1.52694
0.013854
-0.012829
-1.26911
1.26809
0.0118119
-0.0106591
-1.05534
1.05419
0.00960469
-0.00847412
-0.878004
0.876874
0.00748019
-0.00644513
-0.730918
0.729883
0.00555488
-0.00464366
-0.60872
0.607809
0.00387064
-0.00308665
-0.507114
0.50633
0.00242472
-0.0017506
-0.419237
0.418563
0.0011747
-0.000602509
-0.300848
0.300276
0.000199825
-0.0669458
0.066746
-0.0707057
0.0710034
-0.000297679
0.00167734
-0.00246291
-0.348073
0.348858
0.00337708
-0.00427551
-0.433944
0.434843
0.00533816
-0.00638213
-0.520903
0.521947
0.00760679
-0.00879625
-0.624956
0.626146
0.0101691
-0.0114749
-0.748855
0.750161
0.0129432
-0.014292
-0.897093
0.898442
0.0157387
-0.0169819
-1.07372
1.07496
0.0181889
-0.019069
-1.28385
1.28473
0.0196811
-0.019803
-1.53366
1.53378
0.01944
-0.0186085
-1.52622
1.52539
0.0175775
-0.0162582
-1.26693
1.26561
0.0149569
-0.0134871
-1.05288
1.05142
0.0121468
-0.0107121
-0.8756
0.874165
0.00945286
-0.00814277
-0.728719
0.727408
0.00701681
-0.00586498
-0.606785
0.605633
0.00488815
-0.00389759
-0.505449
0.504458
0.00306125
-0.00220953
-0.417805
0.416953
0.00148205
-0.000759596
-0.299633
0.29891
0.000251645
-0.0665217
0.06627
-0.0713442
0.0717349
-0.000390712
0.00218835
-0.00320783
-0.349753
0.350772
0.00439269
-0.00555657
-0.435865
0.437028
0.00693171
-0.00828122
-0.523134
0.524483
0.00986214
-0.011395
-0.627496
0.629029
0.0131603
-0.0148354
-0.75164
0.753315
0.0167127
-0.0184302
-0.899964
0.901682
0.0202628
-0.0218273
-1.07636
1.07792
0.023332
-0.0244127
-1.28571
1.28679
0.0251389
-0.0252406
-1.5339
1.534
0.0247306
-0.0236329
-1.52443
1.52333
0.0222963
-0.0206017
-1.26411
1.26242
0.0189388
-0.0170671
-1.04976
1.04788
0.0153643
-0.0135444
-0.87255
0.87073
0.0119491
-0.0102904
-0.725934
0.724276
0.00886581
-0.00740899
-0.604338
0.602881
0.0061739
-0.00492174
-0.503345
0.502093
0.00386473
-0.00278842
-0.415996
0.41492
0.00186927
-0.000957018
-0.298098
0.297186
0.000316488
-0.0659875
0.0656711
-0.0721847
0.0727026
-0.000517871
0.00287596
-0.00420557
-0.351935
0.353265
0.0057479
-0.00726159
-0.438355
0.439868
0.00904699
-0.0107963
-0.526019
0.527768
0.0128417
-0.0148203
-0.63077
0.632749
0.0170924
-0.0192408
-0.755212
0.75736
0.0216381
-0.02382
-0.903618
0.9058
0.0261324
-0.0280895
-1.07968
1.08163
0.0299493
-0.0312595
-1.28798
1.28929
0.0321001
-0.0321499
-1.53408
1.53413
0.0314323
-0.0299833
-1.52207
1.52062
0.0282536
-0.0260809
-1.2605
1.25832
0.0239608
-0.021582
-1.04577
1.0434
0.0194222
-0.0171171
-0.868681
0.866376
0.0150979
-0.0129999
-0.72241
0.720312
0.0111987
-0.00935706
-0.601243
0.599401
0.00779587
-0.00621307
-0.500685
0.499102
0.00487698
-0.00351654
-0.41371
0.412349
0.00235525
-0.00120394
-0.296161
0.29501
0.000397272
-0.0653167
0.0649194
-0.0733035
0.0739986
-0.000695093
0.00381886
-0.00556779
-0.354784
0.356533
0.00759053
-0.00957197
-0.441596
0.443577
0.0119021
-0.0141789
-0.529764
0.532041
0.0168328
-0.0193919
-0.635
0.637559
0.0223188
-0.0250733
-0.759794
0.762549
0.0281287
-0.0308888
-0.908256
0.911016
0.033787
-0.0362108
-1.08381
1.08624
0.0384757
-0.0400296
-1.29072
1.29227
0.0409611
-0.0408997
-1.53413
1.53407
0.0398861
-0.0379729
-1.51896
1.51705
0.0357383
-0.0329617
-1.25587
1.25309
0.0302671
-0.0272543
-1.04072
1.0377
0.0245239
-0.0216128
-0.863784
0.860873
0.0190638
-0.0164157
-0.717954
0.715306
0.0141419
-0.0118167
-0.597331
0.595006
0.00984508
-0.00784554
-0.497323
0.495324
0.00615693
-0.00443703
-0.410821
0.409101
0.00296915
-0.00151543
-0.293717
0.292263
0.000498976
-0.0644741
0.0639751
-0.0748158
0.0757703
-0.000954468
0.00516255
-0.00749872
-0.35853
0.360866
0.0101836
-0.0127995
-0.445843
0.448459
0.0158561
-0.0188297
-0.53465
0.537623
0.022281
-0.0255953
-0.640481
0.643795
0.0293663
-0.0328916
-0.76567
0.769195
0.0367684
-0.0402334
-0.914112
0.917577
0.0438225
-0.0467736
-1.08892
1.09187
0.0494669
-0.0512441
-1.29395
1.29572
0.0521986
-0.0519242
-1.53392
1.53365
0.0504885
-0.0479653
-1.51485
1.51233
0.0450916
-0.0415622
-1.24996
1.24643
0.0381589
-0.0343644
-1.03432
1.03052
0.0309304
-0.0272698
-0.857604
0.853944
0.0240643
-0.0207324
-0.712331
0.708999
0.01787
-0.0149403
-0.592393
0.589463
0.0124534
-0.00992775
-0.493078
0.490552
0.00779145
-0.00561266
-0.407171
0.404992
0.00375245
-0.00191239
-0.290631
0.288791
0.000628673
-0.0634156
0.0627869
-0.0769028
0.0782762
-0.00137337
0.0072236
-0.0104234
-0.363503
0.366703
0.0140385
-0.0175101
-0.451465
0.454937
0.0215212
-0.0254036
-0.541078
0.544961
0.0298896
-0.0341798
-0.64761
0.651901
0.0390298
-0.043521
-0.773187
0.777679
0.0483961
-0.052684
-0.921435
0.925723
0.0570379
-0.0605305
-1.09509
1.09858
0.0636099
-0.0655245
-1.29758
1.2995
0.0663613
-0.0657114
-1.53321
1.53256
0.0636799
-0.0603667
-1.50943
1.50612
0.056698
-0.0522533
-1.24246
1.23802
0.0479959
-0.0432628
-1.02628
1.02155
0.0389822
-0.0344161
-0.849843
0.845277
0.0304124
-0.0262443
-0.705255
0.701087
0.0226573
-0.0189791
-0.586165
0.582487
0.0158491
-0.01266
-0.487716
0.484526
0.00995046
-0.00717412
-0.402559
0.399782
0.00479594
-0.00244338
-0.286732
0.284379
0.000804797
-0.0620826
0.0612778
-0.0798653
0.0820177
-0.00215245
0.0107404
-0.0152186
-0.370226
0.374704
0.0200881
-0.0246499
-0.459051
0.463613
0.0298606
-0.0349075
-0.549637
0.554684
0.0407356
-0.0462853
-0.656905
0.662455
0.0524994
-0.0581645
-0.782727
0.788392
0.0641861
-0.0693539
-0.93041
0.935578
0.0744504
-0.0783947
-1.10229
1.10623
0.0816979
-0.0835572
-1.3014
1.30326
0.0840333
-0.0827682
-1.53163
1.53036
0.0799141
-0.0756012
-1.50233
1.49801
0.0709722
-0.0654519
-1.23305
1.22753
0.0602048
-0.0543885
-1.01628
1.01046
0.0491304
-0.0435133
-0.840174
0.834557
0.0385774
-0.0334234
-0.696388
0.691234
0.028975
-0.0243996
-0.57831
0.573735
0.0204892
-0.0164796
-0.480925
0.476916
0.0130377
-0.00946428
-0.396714
0.393141
0.00635576
-0.00325192
-0.281791
0.278687
0.00108286
-0.0603935
0.0593106
-0.0842861
0.0880502
-0.00376415
0.0173169
-0.0235519
-0.379677
0.385912
0.029931
-0.0358281
-0.469564
0.475461
0.0425968
-0.0491916
-0.56113
0.567725
0.0568065
-0.0639587
-0.668921
0.676073
0.0717874
-0.078721
-0.794554
0.801488
0.0858482
-0.0917502
-0.940991
0.946893
0.0973392
-0.101445
-1.11019
1.1143
0.10461
-0.106066
-1.30489
1.30635
0.105798
-0.103586
-1.52862
1.52641
0.0996309
-0.0940893
-1.49308
1.48754
0.0883431
-0.0816174
-1.2214
1.21467
0.0752871
-0.0683
-1.00404
0.997051
0.0619887
-0.0552378
-0.828299
0.821548
0.049289
-0.0430536
-0.685378
0.679142
0.0376486
-0.0320678
-0.568417
0.562836
0.0272673
-0.0222902
-0.472267
0.46729
0.0179443
-0.0132968
-0.389228
0.38458
0.00906799
-0.00470988
-0.27548
0.271122
0.00159524
-0.0582217
0.0566264
-0.091541
0.099026
-0.007485
0.0313197
-0.0400436
-0.393773
0.402497
0.048158
-0.0556618
-0.48439
0.491894
0.0645146
-0.073098
-0.576308
0.584892
0.082755
-0.091475
-0.683931
0.692651
0.100608
-0.108336
-0.808499
0.816227
0.11594
-0.12194
-0.95262
0.95862
0.127309
-0.130929
-1.11802
1.12164
0.133284
-0.133752
-1.30722
1.30769
0.132178
-0.128566
-1.52343
1.51982
0.123167
-0.116158
-1.48121
1.47421
0.109156
-0.101149
-1.20725
1.19924
0.0937097
-0.0855645
-0.989409
0.981264
0.0782295
-0.0703861
-0.814081
0.806237
0.0634629
-0.0561843
-0.672015
0.664736
0.04985
-0.0432721
-0.556136
0.549558
0.0375698
-0.0316143
-0.461204
0.455249
0.0262862
-0.0201461
-0.379434
0.373294
0.0140092
-0.00724463
-0.267045
0.26028
0.00236648
-0.0552922
0.0529257
-0.106928
0.109377
-0.00244884
0.0182943
-0.0264518
-0.415056
0.423213
0.0349877
-0.0433742
-0.504247
0.512634
0.053432
-0.0636681
-0.594903
0.605139
0.0747291
-0.0845189
-0.701108
0.710898
0.0953406
-0.104866
-0.823291
0.832816
0.114711
-0.123118
-0.963811
0.972218
0.131436
-0.138059
-1.12431
1.13093
0.143927
-0.147751
-1.3071
1.31093
0.149784
-0.1492
-1.51511
1.51453
0.145882
-0.140207
-1.46624
1.46057
0.133507
-0.124938
-1.1905
1.18193
0.116508
-0.106312
-0.972476
0.96228
0.0968375
-0.0862585
-0.797722
0.787143
0.0766448
-0.0662682
-0.656532
0.646155
0.0567865
-0.0469845
-0.541641
0.531839
0.0386712
-0.0297207
-0.447651
0.4387
0.0218455
-0.0134249
-0.366492
0.358071
0.00649778
-0.00136481
-0.254169
0.249036
-0.000671933
-0.0505002
0.0511722
-0.116703
0.111154
0.00554926
-0.00451296
-0.000375901
-0.435899
0.440788
0.00821249
-0.0159716
-0.52397
0.531729
0.0254356
-0.0341851
-0.615306
0.624056
0.0439835
-0.0528732
-0.720664
0.729554
0.0623151
-0.0708289
-0.841895
0.850409
0.0796382
-0.086888
-0.980353
0.987603
0.0942509
-0.099826
-1.13747
1.14304
0.104729
-0.107691
-1.31465
1.31761
0.108691
-0.107459
-1.51345
1.51222
0.10374
-0.0979663
-1.45451
1.44873
0.0912638
-0.0830301
-1.17335
1.16512
0.0751539
-0.0661579
-0.952362
0.943366
0.0577481
-0.0483931
-0.776647
0.767292
0.0400071
-0.0313467
-0.635207
0.626547
0.0239414
-0.0163395
-0.520826
0.513224
0.00998344
-0.0039021
-0.427414
0.421333
-0.000874781
0.00477041
-0.347287
0.343391
-0.00644735
0.00577403
-0.240534
0.241207
-0.00309537
-0.0485724
0.0516678
-0.113023
0.108693
0.00433046
-0.00820639
0.00574532
-0.450838
0.453299
-0.00071962
-0.00513634
-0.541011
0.546867
0.012338
-0.0194105
-0.632707
0.63978
0.0274075
-0.0347339
-0.737824
0.74515
0.042749
-0.0498674
-0.858147
0.865266
0.057049
-0.063306
-0.994603
1.00086
0.0695061
-0.0742993
-1.14823
1.15302
0.078145
-0.0802614
-1.32007
1.32219
0.08089
-0.0793864
-1.51064
1.50913
0.0757276
-0.0704003
-1.44287
1.43754
0.0644793
-0.0575943
-1.1574
1.15052
0.0508448
-0.0435568
-0.934839
0.927551
0.0369323
-0.0297648
-0.759081
0.751914
0.0236999
-0.017501
-0.618563
0.612365
0.0124588
-0.00730504
-0.505447
0.500293
0.00340022
3.38007e-05
-0.413794
0.41036
-0.00251746
0.00432987
-0.33631
0.334497
-0.00476528
0.00349467
-0.235163
0.236434
-0.00185047
-0.0499959
0.0518464
-0.110079
0.106806
0.00327281
-0.00766724
0.00658682
-0.461142
0.462223
-0.00314934
-0.00145341
-0.553696
0.558299
0.00731759
-0.0128312
-0.646362
0.651876
0.019221
-0.0251229
-0.752009
0.757911
0.031588
-0.0373677
-0.871782
0.877561
0.043572
-0.0486342
-1.0066
1.01166
0.0538574
-0.0574703
-1.15739
1.161
0.0606269
-0.0622768
-1.32417
1.32582
0.0624814
-0.0607025
-1.50748
1.5057
0.0574601
-0.0529068
-1.43221
1.42765
0.0479121
-0.0419368
-1.14403
1.13806
0.0364828
-0.0307254
-0.920707
0.91495
0.0254339
-0.0200806
-0.745512
0.740159
0.0152587
-0.0105636
-0.606381
0.601686
0.00670437
-0.00304102
-0.494937
0.491273
0.000324996
0.00210478
-0.404957
0.402527
-0.00382372
0.0045927
-0.329118
0.328349
-0.00467777
0.00330113
-0.231284
0.232661
-0.00167213
-0.0500542
0.0517264
-0.108899
0.106531
0.00236812
-0.00603904
0.00568067
-0.468674
0.469033
-0.0027293
-0.000857893
-0.56378
0.567367
0.00536825
-0.0100814
-0.657239
0.661952
0.0151987
-0.0201853
-0.763313
0.768299
0.0255387
-0.0303411
-0.88285
0.887653
0.0354325
-0.0397488
-1.01649
1.02081
0.0439577
-0.0471381
-1.16441
1.16759
0.0496575
-0.0508662
-1.32714
1.32835
0.0507751
-0.0489521
-1.50391
1.50209
0.0459392
-0.0417155
-1.42283
1.41861
0.0373827
-0.0324313
-1.1325
1.12755
0.0279003
-0.023049
-0.909427
0.904576
0.0188125
-0.0144456
-0.735042
0.730675
0.010714
-0.0069762
-0.597179
0.593441
0.00398975
-0.0011811
-0.487125
0.484316
-0.00104387
0.00288623
-0.398477
0.396635
-0.00389303
0.0044878
-0.324092
0.323497
-0.00446788
0.00293942
-0.228316
0.229845
-0.00149199
-0.0501595
0.0516515
-0.108803
0.10678
0.00202289
-0.00487909
0.00431548
-0.47469
0.475253
-0.00207906
-0.00113604
-0.571483
0.574699
0.00536922
-0.00928506
-0.666147
0.670063
0.0135885
-0.0178188
-0.772701
0.776931
0.022454
-0.02663
-0.892109
0.896285
0.0311605
-0.0347922
-1.02479
1.02842
0.0384104
-0.0411019
-1.17041
1.1731
0.0430931
-0.0438877
-1.32924
1.33003
0.0434385
-0.0417973
-1.50019
1.49855
0.0387902
-0.0349782
-1.41417
1.41036
0.0310278
-0.0266014
-1.12272
1.1183
0.0228446
-0.0185587
-0.899941
0.895655
0.014909
-0.011326
-0.726527
0.722944
0.00821981
-0.00512549
-0.58994
0.586846
0.00263036
-0.000127757
-0.481074
0.478571
-0.00152677
0.0029801
-0.393394
0.391941
-0.00398087
0.00435177
-0.319908
0.319538
-0.00411283
0.00277197
-0.226049
0.22739
-0.00135782
-0.0502494
0.0516072
-0.10909
0.107491
0.00159945
-0.00363876
0.00302005
-0.480114
0.480733
-0.000662954
-0.00204853
-0.578511
0.581223
0.00593133
-0.00949126
-0.673837
0.677397
0.0136373
-0.0172853
-0.780969
0.784617
0.021349
-0.025011
-0.900443
0.904105
0.0292662
-0.0324743
-1.03202
1.03523
0.0355149
-0.0378946
-1.17551
1.17789
0.0398307
-0.0402694
-1.3307
1.33114
0.0395827
-0.0376277
-1.49642
1.49446
0.0347954
-0.0307969
-1.40636
1.40237
0.0271869
-0.0232154
-1.11387
1.1099
0.0196829
-0.016019
-0.891612
0.887949
0.0127685
-0.00946462
-0.719317
0.716013
0.00697991
-0.00421987
-0.583783
0.581023
0.00193945
8.68952e-05
-0.475866
0.473839
-0.00164935
0.00307309
-0.389328
0.387904
-0.00384628
0.00412106
-0.31665
0.316375
-0.00381015
0.00258234
-0.224199
0.225427
-0.0012823
-0.0503679
0.0516502
-0.109821
0.10851
0.00131063
-0.00255802
0.00188081
-0.485142
0.48582
0.000662855
-0.00341512
-0.584889
0.587641
0.00705016
-0.0103231
-0.680889
0.684162
0.0139748
-0.017603
-0.788391
0.792019
0.0214296
-0.0252913
-0.907629
0.911491
0.0289095
-0.0319358
-1.03848
1.0415
0.035019
-0.0370335
-1.18003
1.18205
0.0382815
-0.0387858
-1.33127
1.33178
0.0378116
-0.0356366
-1.4923
1.49013
0.0324817
-0.0285968
-1.39841
1.39452
0.0249989
-0.0211366
-1.10566
1.1018
0.0178539
-0.0144218
-0.884277
0.880845
0.0114576
-0.00861631
-0.712894
0.710052
0.00611524
-0.00372283
-0.57828
0.575888
0.00179741
0.000174176
-0.471533
0.469561
-0.00167537
0.0027505
-0.385608
0.384533
-0.00350769
0.00384484
-0.313814
0.313477
-0.00359735
0.00242914
-0.22271
0.223878
-0.00122538
-0.0506191
0.0518445
-0.110986
0.109824
0.00116164
-0.00133861
0.000349518
-0.490086
0.491075
0.00212709
-0.00494666
-0.591034
0.593853
0.00837142
-0.0116821
-0.687678
0.690989
0.0153543
-0.0187685
-0.79562
0.799034
0.022849
-0.0260869
-0.91488
0.918118
0.0297507
-0.0326215
-1.04463
1.0475
0.0355415
-0.0375909
-1.18391
1.18596
0.0388211
-0.0387309
-1.33178
1.33169
0.0374833
-0.034993
-1.4875
1.48501
0.0317222
-0.0274643
-1.39025
1.38599
0.0237788
-0.0198744
-1.09794
1.09404
0.0166932
-0.0133533
-0.877273
0.873933
0.0106531
-0.00791414
-0.707123
0.704384
0.00562452
-0.00338628
-0.573457
0.571219
0.00152083
8.50877e-05
-0.467473
0.465868
-0.00153215
0.00256224
-0.382325
0.381294
-0.00336579
0.00364603
-0.31124
0.310959
-0.00335921
0.00238511
-0.221414
0.222388
-0.00113593
-0.0509567
0.0520926
-0.112292
0.11148
0.000812194
-0.00032536
-0.00120636
-0.495227
0.496758
0.00358764
-0.00649949
-0.596764
0.599676
0.0097407
-0.0131012
-0.694311
0.697671
0.0168125
-0.0205222
-0.802478
0.806188
0.0242153
-0.0277351
-0.921609
0.925128
0.0314707
-0.0341994
-1.05075
1.05348
0.0371705
-0.0390498
-1.18768
1.18956
0.0400415
-0.0400061
-1.33166
1.33163
0.0384966
-0.0354217
-1.48204
1.47897
0.031476
-0.0269874
-1.38146
1.37697
0.0231508
-0.0190644
-1.08986
1.08578
0.0157627
-0.012686
-0.870567
0.86749
0.00979014
-0.00736577
-0.701543
0.699119
0.00525786
-0.00312253
-0.569168
0.567033
0.00155174
3.04066e-05
-0.463813
0.462231
-0.00128409
0.00243229
-0.379549
0.378401
-0.00308865
0.00337897
-0.308967
0.308676
-0.0032684
0.00233958
-0.220353
0.221282
-0.0011208
-0.05131
0.0524308
-0.11396
0.113324
0.000635543
0.000548463
-0.0020693
-0.500559
0.50208
0.00509258
-0.00782169
-0.602843
0.605572
0.011343
-0.0147513
-0.700832
0.704241
0.0185286
-0.0220668
-0.809735
0.813273
0.0260719
-0.0294652
-0.928724
0.932117
0.0333009
-0.0365137
-1.05661
1.05982
0.0391649
-0.0412512
-1.19134
1.19342
0.0423573
-0.0419567
-1.33115
1.33074
0.0400347
-0.0366836
-1.47547
1.47211
0.0320164
-0.0270194
-1.37181
1.36681
0.0225881
-0.0182819
-1.0815
1.0772
0.0149949
-0.0118328
-0.864082
0.860919
0.00919673
-0.00686301
-0.696401
0.694068
0.00493228
-0.00292246
-0.564971
0.562961
0.0013864
-2.96182e-05
-0.46052
0.459163
-0.00126429
0.00230115
-0.376843
0.375807
-0.00297742
0.00330545
-0.306855
0.306527
-0.00314242
0.0022418
-0.219586
0.220486
-0.0010624
-0.051791
0.0528534
-0.115877
0.115453
0.000424785
0.00154856
-0.00333723
-0.505972
0.507761
0.00625599
-0.00926611
-0.60879
0.6118
0.0128487
-0.0162802
-0.707489
0.71092
0.0203428
-0.0239394
-0.816921
0.820518
0.0280209
-0.0317161
-0.936035
0.93973
0.0356314
-0.0389446
-1.06288
1.0662
0.0418709
-0.0439404
-1.1953
1.19737
0.0449987
-0.0448594
-1.33024
1.3301
0.0425195
-0.0383443
-1.46799
1.46381
0.0329954
-0.0269181
-1.36096
1.35489
0.0220226
-0.0174709