/*--------------------------------*- C++ -*----------------------------------*\
  =========                 |
  \\      /  F ield         | OpenFOAM: The Open Source CFD Toolbox
   \\    /   O peration     | Website:  https://openfoam.org
    \\  /    A nd           | Version:  6
     \\/     M anipulation  |
\*---------------------------------------------------------------------------*/
FoamFile
{
    version     2.0;
    format      ascii;
    class       surfaceScalarField;
    location    "102.4";
    object      phi;
}
// * * * * * * * * * * * * * * * * * * * * * * * * * * * * * * * * * * * * * //

dimensions      [0 3 -1 0 0 0 0];

internalField   nonuniform List<scalar> 
17370
(
-0.0899999
0.0898488
0.289162
-0.0714621
0.0537521
0.364486
-0.0381188
0.0276896
0.426597
-0.0196378
0.0146049
0.504285
-0.0107632
0.00827316
0.601892
-0.00627379
0.00489741
0.720434
-0.00373337
0.00289249
0.863747
-0.00215055
0.00159103
1.03601
-0.00107406
0.000661327
1.24292
-0.000253786
-0.000144694
1.49159
0.000524687
-0.00093469
1.4916
0.00133128
-0.00181512
1.24317
0.00233692
-0.00304007
1.03634
0.00385464
-0.00500033
0.864052
0.00636726
-0.00836076
0.721051
0.0108464
-0.0146828
0.603051
0.0197097
-0.027754
0.507483
0.0381754
-0.0537997
0.431793
0.0715014
-0.0898754
0.365149
0.0900163
0.198995
-0.128138
0.0882305
0.0399079
-0.364601
0.353383
-0.0746676
0.0858855
-0.446477
0.454323
-0.0843807
0.0765349
-0.521192
0.529905
-0.0684366
0.059724
-0.612791
0.621572
-0.051534
0.0427532
-0.726896
0.734168
-0.0352911
0.0280199
-0.867477
0.872596
-0.022417
0.0172985
-1.03848
1.04193
-0.0134856
0.0100325
-1.2446
1.24704
-0.00741894
0.004983
-1.49262
1.49461
-0.00303122
0.00104539
-1.49251
1.49423
0.000626225
-0.00234918
-1.24397
1.24586
0.00425852
-0.00614321
-1.03751
1.04003
0.00849028
-0.0110063
-0.866097
0.869825
0.014352
-0.01808
-0.724388
0.729931
0.0231206
-0.0286632
-0.608696
0.616108
0.0358761
-0.0432884
-0.514895
0.523038
0.0520171
-0.06016
-0.439855
0.447912
0.0688212
-0.0768784
-0.375293
0.376736
0.0846723
-0.0861152
-0.257328
0.222472
0.0748231
-0.0399676
-0.0685261
0.0587029
0.00982328
-0.0517951
0.0583729
-0.374135
0.367557
-0.0574526
0.0536969
-0.4536
0.457356
-0.048604
0.0446486
-0.527954
0.531909
-0.0408053
0.037163
-0.621572
0.625214
-0.033057
0.0289765
-0.735357
0.739438
-0.0244
0.0202345
-0.874349
0.878515
-0.0158817
0.0121816
-1.0435
1.0472
-0.00843765
0.00525975
-1.24857
1.25175
-0.00192727
-0.00114988
-1.49666
1.49974
0.00420051
-0.00746878
-1.4972
1.50047
0.0105467
-0.01414
-1.25006
1.25366
0.0176812
-0.0218595
-1.04592
1.05009
0.0258812
-0.030318
-0.87775
0.882187
0.0342851
-0.0382783
-0.739891
0.743884
0.0418245
-0.0455689
-0.626765
0.630509
0.0494394
-0.0544514
-0.534803
0.539815
0.0581166
-0.0589236
-0.457467
0.458274
0.0522109
-0.0319995
-0.335738
0.315527
0.00989078
-0.0683357
0.0584449
-0.0529556
0.0489641
0.00399156
-0.0331347
0.0436678
-0.358133
0.3476
-0.0473563
0.0467221
-0.4593
0.459935
-0.0436601
0.040302
-0.535818
0.539176
-0.0365236
0.0332138
-0.628547
0.631857
-0.0297689
0.0267296
-0.742668
0.745708
-0.0234615
0.0203456
-0.88204
0.885156
-0.0168051
0.0134167
-1.05079
1.05418
-0.00961433
0.00606841
-1.25519
1.25873
-0.00209227
-0.00171034
-1.50325
1.50705
0.00548012
-0.00935595
-1.50413
1.508
0.0127596
-0.0163542
-1.2574
1.261
0.0195235
-0.0228207
-1.0539
1.05719
0.0257313
-0.0287958
-0.885665
0.888729
0.0316672
-0.0349445
-0.747135
0.750412
0.0381125
-0.0417472
-0.634286
0.637921
0.0449824
-0.0479037
-0.544117
0.547038
0.0483885
-0.0444893
-0.45655
0.452651
0.0337035
-0.0162363
-0.296146
0.278679
0.00407604
-0.0526208
0.0485448
-0.0458913
0.043401
0.00249022
-0.0227691
0.0331286
-0.336927
0.326567
-0.0389331
0.0399388
-0.459629
0.458623
-0.0387387
0.0364446
-0.541904
0.544198
-0.0337691
0.031165
-0.634918
0.637522
-0.0280918
0.0251819
-0.748763
0.751673
-0.0219043
0.018898
-0.888118
0.891125
-0.015579
0.0124674
-1.05732
1.06043
-0.008929
0.00551022
-1.2622
1.26562
-0.00153813
-0.00235261
-1.51094
1.51483
0.00619903
-0.0100365
-1.51189
1.51572
0.0132663
-0.0165322
-1.26444
1.2677
0.0193576
-0.0223576
-1.06029
1.06329
0.0250913
-0.0280945
-0.891765
0.894768
0.0307754
-0.0336182
-0.753607
0.756449
0.0360275
-0.0385084
-0.640975
0.643456
0.0406364
-0.0416165
-0.548829
0.549809
0.0403791
-0.0342346
-0.447351
0.441207
0.0235017
-0.0102577
-0.263436
0.250192
0.00259486
-0.0453754
0.0427806
-0.0413323
0.0395719
0.0017604
-0.0166975
0.0259214
-0.316739
0.307515
-0.0325008
0.0346226
-0.45704
0.454918
-0.0341872
0.0325058
-0.546187
0.547868
-0.0303142
0.0282082
-0.63984
0.641946
-0.0257635
0.0233519
-0.75433
0.756742
-0.020476
0.0176698
-0.894032
0.896838
-0.0144148
0.0113289
-1.06349
1.06658
-0.00782174
0.00448238
-1.26895
1.27229
-0.000637546
-0.00310424
-1.51862
1.52236
0.00678937
-0.0104622
-1.51944
1.52312
0.0135603
-0.0167207
-1.27095
1.27411
0.0194427
-0.0222909
-1.06631
1.06916
0.0247462
-0.0272665
-0.89756
0.90008
0.0293808
-0.0315274
-0.758883
0.76103
0.0333834
-0.0353236
-0.645595
0.647536
0.0367632
-0.0368993
-0.550308
0.550444
0.034421
-0.0273421
-0.434511
0.427432
0.0176137
-0.00743505
-0.238629
0.22845
0.0018884
-0.0405935
0.0387051
-0.0380577
0.0367369
0.00132084
-0.0127231
0.0206315
-0.298955
0.291047
-0.0273433
0.0302382
-0.452383
0.449488
-0.0304208
0.0292837
-0.549315
0.550453
-0.0272763
0.0253449
-0.643998
0.64593
-0.0231264
0.0209697
-0.758998
0.761154
-0.0184307
0.0159239
-0.899429
0.901936
-0.0129554
0.0100524
-1.06953
1.07244
-0.00666598
0.00340487
-1.27556
1.27882
0.000359754
-0.00400056
-1.52602
1.52966
0.00757029
-0.0111183
-1.5267
1.53025
0.0140768
-0.0170295
-1.27724
1.28019
0.0194783
-0.0219388
-1.07188
1.07434
0.0240057
-0.0260966
-0.902339
0.904429
0.0278772
-0.0297171
-0.762993
0.764833
0.0313323
-0.0330333
-0.649338
0.651039
0.0338176
-0.0332149
-0.550209
0.549606
0.0298086
-0.022411
-0.420132
0.412735
0.0138528
-0.00577843
-0.219422
0.211348
0.0014767
-0.0370467
0.03557
-0.0355858
0.0345719
0.00101393
-0.00991029
0.0165763
-0.283787
0.277121
-0.0230063
0.0263393
-0.446358
0.443025
-0.0270883
0.0263652
-0.551382
0.552105
-0.0245856
0.0227816
-0.647847
0.649651
-0.0206866
0.0186437
-0.763248
0.765291
-0.0162396
0.0138807
-0.904295
0.906654
-0.0111065
0.00838938
-1.07517
1.07789
-0.00519827
0.0020858
-1.28197
1.28508
0.00154937
-0.00507946
-1.53322
1.53675
0.00852115
-0.0118869
-1.53368
1.53704
0.0146247
-0.0172805
-1.28305
1.28571
0.0194383
-0.0215869
-1.0767
1.07885
0.0234021
-0.0252503
-0.906372
0.90822
0.026826
-0.0284509
-0.766555
0.76818
0.0298623
-0.0312155
-0.652597
0.65395
0.0315009
-0.030155
-0.548637
0.547291
0.0261153
-0.0187804
-0.405337
0.398002
0.0112963
-0.00468493
-0.204071
0.19746
0.00120362
-0.0342437
0.0330401
-0.033685
0.0329
0.000784992
-0.007818
0.0133983
-0.27103
0.26545
-0.0193258
0.0228401
-0.439597
0.436082
-0.0240524
0.023569
-0.552749
0.553233
-0.0220488
0.0203486
-0.651461
0.653161
-0.0183411
0.016376
-0.767288
0.769253
-0.0140547
0.011775
-0.908902
0.911182
-0.00909507
0.00648044
-1.08048
1.08309
-0.00342275
0.000447104
-1.28807
1.29105
0.0030228
-0.00638366
-1.54016
1.54352
0.009636
-0.0127756
-1.54025
1.54339
0.0152928
-0.0176964
-1.2883
1.2907
0.0196278
-0.0215428
-1.08096
1.08288
0.0231554
-0.0247926
-0.909941
0.911578
0.0261832
-0.0276119
-0.769695
0.771124
0.0288206
-0.0297829
-0.655107
0.656069
0.029689
-0.0276617
-0.545591
0.543564
0.0232021
-0.0161116
-0.390778
0.383688
0.00951367
-0.00393356
-0.19141
0.18583
0.00101565
-0.0319404
0.0309247
-0.0322147
0.0316083
0.00060648
-0.00619589
0.0108456
-0.260366
0.255717
-0.0161637
0.0196602
-0.432583
0.429087
-0.0211795
0.0209123
-0.553655
0.553922
-0.0196145
0.0179677
-0.654892
0.656539
-0.0160076
0.0140831
-0.771186
0.77311
-0.0118102
0.00957906
-0.913355
0.915586
-0.00695691
0.00440306
-1.0856
1.08815
-0.00142612
-0.00145257
-1.29392
1.2968
0.00477991
-0.00797088
-1.54675
1.54994
0.0110293
-0.0139537
-1.54637
1.54929
0.0162743
-0.0184558
-1.29307
1.29525
0.0201795
-0.0218721
-1.08478
1.08647
0.0232895
-0.0247246
-0.913085
0.91452
0.0259437
-0.0271923
-0.77245
0.773698
0.0282568
-0.0287954
-0.656827
0.657366
0.0283026
-0.0256926
-0.541236
0.538626
0.0209615
-0.0141736
-0.376751
0.369963
0.00826637
-0.0034151
-0.180649
0.175797
0.000886701
-0.0299813
0.0290946
-0.0310841
0.0306233
0.000460803
-0.00488228
0.00872586
-0.2515
0.247657
-0.0133887
0.016717
-0.425691
0.422362
-0.0184011
0.0183125
-0.554157
0.554246
-0.0171965
0.0155773
-0.658249
0.659868
-0.0136291
0.0117085
-0.775013
0.776934
-0.00944159
0.00722284
-0.917714
0.919933
-0.00462507
0.00210508
-1.0906
1.09312
0.000818933
-0.00362856
-1.29958
1.30239
0.0068484
-0.00990231
-1.55302
1.55607
0.012795
-0.0155253
-1.55206
1.55479
0.0176577
-0.0196182
-1.29742
1.29938
0.0211336
-0.0226064
-1.08816
1.08963
0.023838
-0.0250873
-0.915826
0.917076
0.0261526
-0.0272382
-0.774847
0.775933
0.0280904
-0.0282577
-0.657704
0.657871
0.0273348
-0.0242163
-0.535754
0.532636
0.0193025
-0.0128007
-0.363331
0.356829
0.00740871
-0.00306534
-0.171228
0.166885
0.000801358
-0.0282575
0.0274562
-0.0302335
0.029897
0.000336482
-0.00377362
0.00690488
-0.244198
0.241067
-0.0108987
0.0139469
-0.4192
0.416151
-0.0156664
0.0157171
-0.554334
0.554284
-0.0146707
0.013112
-0.661544
0.663103
-0.0111453
0.00919392
-0.778843
0.780794
-0.006892
0.00464782
-0.922054
0.924299
-0.00203393
-0.00048666
-1.09554
1.09806
0.00339185
-0.00616184
-1.30511
1.30788
0.00930634
-0.0122524
-1.55901
1.56196
0.0150031
-0.0175544
-1.55735
1.5599
0.0195047
-0.0212464
-1.30134
1.30308
0.022556
-0.0238141
-1.09113
1.09239
0.0248659
-0.0259361
-0.918192
0.919262
0.0268551
-0.0277806
-0.776907
0.777833
0.0283699
-0.0282332
-0.657885
0.657748
0.0268284
-0.0232312
-0.529279
0.525682
0.0181681
-0.0118881
-0.350457
0.344177
0.00685462
-0.00284647
-0.162734
0.158726
0.000750246
-0.0266867
0.0259364
-0.0296246
0.0294002
0.000224426
-0.00279332
0.00527732
-0.238287
0.235803
-0.00859992
0.0112828
-0.413319
0.410636
-0.0129215
0.0130355
-0.554284
0.554171
-0.0120181
0.010487
-0.664745
0.666276
-0.00847569
0.00646181
-0.782739
0.784753
-0.00408648
0.00177962
-0.926448
0.928755
0.000893297
-0.0034543
-1.10049
1.10305
0.00638332
-0.0091497
-1.31057
1.31334
0.0122532
-0.0151176
-1.5648
1.56767
0.0177463
-0.0201339
-1.56228
1.56467
0.0219117
-0.0234394
-1.30484
1.30637
0.0245422
-0.0255821
-1.09369
1.09473
0.0264483
-0.0273285
-0.920192
0.921073
0.0280863
-0.0288436
-0.778586
0.779344
0.029147
-0.0286597
-0.65748
0.656993
0.0267858
-0.0227296
-0.521877
0.517821
0.0175104
-0.0113596
-0.337986
0.331835
0.00654425
-0.00273137
-0.154837
0.151024
0.000726164
-0.0252041
0.024478
-0.029237
0.0291201
0.000116907
-0.00187693
0.00374909
-0.233652
0.23178
-0.00639275
0.0086381
-0.408212
0.405967
-0.0100861
0.0101829
-0.554169
0.554072
-0.0091578
0.00761248
-0.667929
0.669474
-0.00552512
0.00341531
-0.786761
0.788871
-0.000926864
-0.00148047
-0.930968
0.933375
0.00425536
-0.00689672
-1.10553
1.10817
0.00989293
-0.0126929
-1.31604
1.31884
0.0157912
-0.0186003
-1.57043
1.57324
0.0211255
-0.0233616
-1.56688
1.56911
0.0249723
-0.0262858
-1.30794
1.30925
0.0271829
-0.0280011
-1.09583
1.09665
0.0286731
-0.0293545
-0.921807
0.922488
0.0299552
-0.0305627
-0.779919
0.780526
0.0304991
-0.0295936
-0.656331
0.655425
0.027225
-0.0226987
-0.513565
0.509039
0.0172851
-0.011157
-0.325725
0.319597
0.00643444
-0.00270087
-0.147272
0.143539
0.000724125
-0.0237587
0.0230346
-0.029065
0.0290561
8.83463e-06
-0.000975183
0.00224645
-0.230232
0.228961
-0.00419396
0.00593583
-0.404019
0.402277
-0.00708893
0.00708528
-0.554155
0.554159
-0.00600282
0.00440084
-0.671181
0.672783
-0.00219431
-4.86401e-05
-0.790975
0.793218
0.00269426
-0.00524412
-0.93569
0.93824
0.00816818
-0.0109332
-1.11074
1.1135
0.0140429
-0.0169164
-1.32158
1.32445
0.0200485
-0.0228318
-1.57596
1.57874
0.0252735
-0.0273693
-1.57116
1.57325
0.0288163
-0.0299206
-1.31063
1.31173
0.0306109
-0.0312049
-1.09754
1.09813
0.0316759
-0.0321444
-0.923017
0.923485
0.0325566
-0.0328892
-0.78086
0.781193
0.0325208
-0.0311142
-0.654337
0.652931
0.0282083
-0.0231651
-0.504302
0.499259
0.0174844
-0.0112551
-0.313452
0.307223
0.00650453
-0.00274546
-0.139814
0.136055
0.000741609
-0.0223076
0.021566
-0.0291118
0.0292166
-0.000104781
-3.85613e-05
0.000700577
-0.228014
0.227352
-0.00192068
0.00309193
-0.400871
0.3997
-0.00384786
0.00365788
-0.554423
0.554613
-0.00245761
0.000738767
-0.674597
0.676316
0.00162788
-0.00404897
-0.795455
0.797876
0.00690294
-0.00964308
-0.940698
0.943438
0.0127695
-0.0157062
-1.1162
1.11914
0.0189802
-0.0219697
-1.32728
1.33027
0.0251763
-0.0279641
-1.58143
1.58422
0.0303433
-0.0323089
-1.57514
1.5771
0.0335964
-0.0344902
-1.31289
1.31379
0.0349681
-0.0353254
-1.0988
1.09916
0.035586
-0.0358333
-0.923792
0.924039
0.0360354
-0.0360225
-0.781224
0.781211
0.0353013
-0.0333085
-0.651322
0.649329
0.0297941
-0.0241524
-0.493978
0.488337
0.0181038
-0.0116361
-0.300913
0.294446
0.00673877
-0.0028571
-0.132256
0.128374
0.000776143
-0.0208131
0.0200369
-0.0293934
0.0296358
-0.000242464
0.000935295
-0.000947571
-0.227032
0.227044
0.000515177
9.95696e-06
-0.398904
0.398379
-0.000265492
-0.000203878
-0.55516
0.55563
0.00159245
-0.00348967
-0.678299
0.680196
0.00607767
-0.00872963
-0.800289
0.802941
0.0118511
-0.0148368
-0.94609
0.949076
0.0182266
-0.02139
-1.12202
1.12519
0.024885
-0.0280372
-1.33322
1.33637
0.0313599
-0.0341774
-1.58693
1.58974
0.0365054
-0.0383495
-1.57884
1.58068
0.039486
-0.0401669
-1.31471
1.31539
0.0404182
-0.0405189
-1.09957
1.09967
0.0405495
-0.0405593
-0.924102
0.924112
0.0405703
-0.0401033
-0.780889
0.780422
0.0389445
-0.0362647
-0.647126
0.644446
0.0320428
-0.0256849
-0.482414
0.476056
0.0191408
-0.0122847
-0.287826
0.28097
0.00712276
-0.00302772
-0.124407
0.120312
0.000825054
-0.0192421
0.018417
-0.0299486
0.0303382
-0.000389641
0.00204475
-0.00268674
-0.227373
0.228015
0.00313064
-0.00337728
-0.398262
0.398508
0.0037785
-0.00463428
-0.556596
0.557452
0.0062786
-0.00842644
-0.682416
0.684564
0.011312
-0.0142628
-0.80558
0.808531
0.0177235
-0.0210196
-0.951981
0.955277
0.0247428
-0.0281938
-1.12831
1.13176
0.0319713
-0.0353347
-1.3395
1.34286
0.0388161
-0.0416886
-1.59248
1.59535
0.0439707
-0.0456827
-1.58225
1.58396
0.0466574
-0.0471295
-1.31608
1.31655
0.0471453
-0.0469713
-1.09982
1.09965
0.0467573
-0.0465177
-0.923896
0.923657
0.046288
-0.0453076
-0.779674
0.778693
0.0436044
-0.0400961
-0.641548
0.63804
0.0350251
-0.0277894
-0.469353
0.462117
0.0205934
-0.0131856
-0.273885
0.266477
0.00764128
-0.00324843
-0.116089
0.111697
0.000885275
-0.0175673
0.0166821
-0.0308087
0.031375
-0.000566277
0.00332339
-0.00478103
-0.229097
0.230554
0.00614879
-0.00721532
-0.399158
0.400224
0.00837442
-0.00974443
-0.55896
0.56033
0.0117834
-0.014266
-0.687093
0.689575
0.0175387
-0.0208665
-0.811464
0.814792
0.0247504
-0.0284332
-0.958502
0.962185
0.0325708
-0.036378
-1.13519
1.13899
0.0405039
-0.0441271
-1.3462
1.34983
0.0478047
-0.0507504
-1.59814
1.60108
0.0529897
-0.0545563
-1.58535
1.58692
0.055355
-0.0556024
-1.31696
1.3172
0.0553665
-0.0548997
-1.0995
1.09904
0.0544287
-0.0539086
-0.923145
0.922625
0.0532838
-0.0518167
-0.777521
0.776054
0.0494059
-0.0448978
-0.634295
0.629787
0.0387966
-0.0304767
-0.454454
0.446134
0.0224452
-0.0143115
-0.258757
0.250623
0.00827042
-0.00350575
-0.107138
0.102374
0.000952239
-0.0157683
0.014816
-0.0320376
0.0328381
-0.000800526
0.0048976
-0.00726676
-0.232464
0.234834
0.00971141
-0.0117103
-0.401788
0.403787
0.0137625
-0.0157756
-0.562495
0.564508
0.0183464
-0.0212622
-0.692502
0.695418
0.0250379
-0.028833
-0.818103
0.821898
0.0332399
-0.0373977
-0.965813
0.96997
0.0420396
-0.0462754
-1.14279
1.14702
0.0508146
-0.0547395
-1.35344
1.35736
0.058637
-0.0616558
-1.60394
1.60696
0.0638355
-0.0652325
-1.58813
1.58953
0.0658238
-0.0658088
-1.31727
1.31725
0.0653118
-0.0645273
-1.09858
1.0978
0.0637844
-0.0629971
-0.921791
0.921004
0.0618634
-0.0597981
-0.774444
0.772378
0.0565189
-0.0507671
-0.624986
0.619234
0.0433906
-0.0337254
-0.437279
0.427613
0.0246479
-0.0156098
-0.242091
0.233053
0.00896949
-0.00377827
-0.0974134
0.0922221
0.00101904
-0.0138343
0.0128153
-0.0337339
0.0348388
-0.00110491
0.00687083
-0.0103429
-0.237687
0.241159
0.0140643
-0.0171526
-0.40646
0.409549
0.0202241
-0.0230038
-0.567498
0.570277
0.0262616
-0.0297416
-0.698868
0.702348
0.0341657
-0.0385495
-0.825687
0.830071
0.0436002
-0.0483327
-0.974092
0.978825
0.0535747
-0.0583089
-1.15126
1.156
0.0633129
-0.067561
-1.36127
1.36552
0.0716727
-0.0747343
-1.60985
1.61292
0.0768108
-0.0779937
-1.59051
1.5917
0.0783424
-0.0780258
-1.31691
1.31659
0.077241
-0.0761027
-1.09699
1.09585
0.075081
-0.0739959
-0.919856
0.918771
0.0722963
-0.0694646
-0.770223
0.767391
0.0650699
-0.0577342
-0.613117
0.605781
0.0487645
-0.037441
-0.417287
0.405963
0.0270917
-0.0169845
-0.223536
0.213429
0.00967131
-0.00403329
-0.0868208
0.0811828
0.0010758
-0.0117704
0.0106946
-0.03603
0.0375535
-0.00152351
0.00946492
-0.0143086
-0.245122
0.249966
0.0195447
-0.0238879
-0.413529
0.417872
0.0281355
-0.0318366
-0.574296
0.577997
0.0359636
-0.0401972
-0.706467
0.710701
0.0454395
-0.0505588
-0.834455
0.839574
0.0563947
-0.0618099
-0.983545
0.98896
0.0677418
-0.0730242
-1.16073
1.16602
0.0785096
-0.0830595
-1.36972
1.37427
0.087324
-0.0903436
-1.61581
1.61883
0.0922249
-0.0931018
-1.59238
1.59326
0.0931491
-0.0925305
-1.31582
1.3152
0.0913728
-0.0898703
-1.09468
1.09317
0.0885666
-0.0869972
-0.91719
0.915621
0.0847816
-0.080901
-0.764456
0.760575
0.0750738
-0.0657195
-0.597982
0.588628
0.0547595
-0.0414189
-0.393837
0.380497
0.0295772
-0.0182806
-0.202781
0.191484
0.0102756
-0.0042255
-0.0753448
0.0692947
0.00110969
-0.00960222
0.00849253
-0.0391346
0.0412639
-0.00212927
0.0130401
-0.0196386
-0.255274
0.261872
0.0266977
-0.0325042
-0.423482
0.429289
0.0381223
-0.0429481
-0.583277
0.588103
0.0481539
-0.0533458
-0.715691
0.720883
0.0596576
-0.065689
-0.844699
0.850731
0.0724507
-0.0786315
-0.994381
1.00056
0.085295
-0.0911155
-1.17128
1.1771
0.0970184
-0.10177
-1.37872
1.38347
0.106041
-0.108864
-1.62159
1.62441
0.110399
-0.11083
-1.59353
1.59396
0.110489
-0.109483
-1.31392
1.31292
0.107938
-0.106046
-1.09164
1.08975
0.104446
-0.102328
-0.913421
0.911303
0.0994724
-0.0941682
-0.756543
0.751239
0.0864261
-0.0744632
-0.578667
0.566704
0.0610274
-0.045292
-0.366218
0.350483
0.0317859
-0.0192746
-0.17963
0.167119
0.010649
-0.00429919
-0.063091
0.0567411
0.00110615
-0.0073822
0.00627605
-0.0433869
0.0464506
-0.00306368
0.0182343
-0.0271321
-0.268893
0.277791
0.0364213
-0.0439921
-0.437002
0.444573
0.0512522
-0.0574255
-0.59495
0.601123
0.0640546
-0.070579
-0.726966
0.73349
0.0781488
-0.0851961
-0.856739
0.863787
0.0929431
-0.0998836
-1.00674
1.01368
0.107199
-0.113422
-1.18283
1.18905
0.119537
-0.124269
-1.38799
1.39272
0.128282
-0.130661
-1.62684
1.62922
0.131628
-0.131422
-1.59366
1.59346
0.130546
-0.129035
-1.31105
1.30954
0.127105
-0.124796
-1.08781
1.0855
0.122763
-0.12013
-0.908384
0.905751
0.116263
-0.109016
-0.745666
0.738419
0.0987229
-0.0834183
-0.553958
0.538653
0.0669599
-0.0484962
-0.333721
0.315258
0.0332746
-0.0196883
-0.154115
0.140529
0.0106409
-0.0041975
-0.0503305
0.0438871
0.00105174
-0.00519064
0.0041389
-0.0493803
0.0540225
-0.00464226
0.0262791
-0.0382785
-0.287164
0.299163
0.0504426
-0.0603685
-0.455194
0.46512
0.0696768
-0.0774763
-0.609888
0.617687
0.0858456
-0.0939086
-0.740803
0.748866
0.102845
-0.110889
-0.870784
0.878828
0.119483
-0.126962
-1.02051
1.02799
0.134601
-0.14088
-1.19501
1.20128
0.146794
-0.151122
-1.39702
1.40135
0.154461
-0.156043
-1.63102
1.6326
0.156147
-0.155063
-1.59238
1.5913
0.153494
-0.151371
-1.30697
1.30485
0.149004
-0.146199
-1.08305
1.08025
0.143717
-0.140358
-0.901937
0.898577
0.134994
-0.124926
-0.730631
0.720563
0.111178
-0.0916503
-0.522332
0.502805
0.0716357
-0.0502855
-0.295811
0.274461
0.0335263
-0.0192433
-0.126654
0.112371
0.0101203
-0.00387811
-0.0375255
0.0312833
0.000936617
-0.00312998
0.00219336
-0.0582427
0.0661661
-0.00792347
0.0403696
-0.0569453
-0.31229
0.328866
0.0731582
-0.0862068
-0.479656
0.492704
0.0976502
-0.107033
-0.628614
0.637997
0.117129
-0.126617
-0.757425
0.766912
0.136636
-0.145209
-0.886588
0.895161
0.154011
-0.161394
-1.03508
1.04246
0.168673
-0.174378
-1.20698
1.21268
0.179452
-0.182794
-1.40494
1.40828
0.184907
-0.185226
-1.63336
1.63368
0.184084
-0.181834
-1.58919
1.58694
0.179373
-0.17652
-1.30141
1.29855
0.173627
-0.170253
-1.07717
1.0738
0.167163
-0.162623
-0.893421
0.888881
0.154955
-0.14077
-0.709524
0.695339
0.122314
-0.0976935
-0.481934
0.457314
0.0739049
-0.0499515
-0.252456
0.228502
0.032176
-0.0178236
-0.0982111
0.0838588
0.00905983
-0.00333811
-0.0253064
0.0195847
0.00075662
-0.00130973
0.000553105
-0.0735211
0.0780019
-0.00448085
0.0310075
-0.0455553
-0.348308
0.362856
0.060133
-0.0721655
-0.511677
0.523709
0.0831906
-0.0937231
-0.650976
0.661509
0.105782
-0.116877
-0.775714
0.786809
0.12928
-0.1404
-0.902737
0.913857
0.152399
-0.163232
-1.04897
1.0598
0.174812
-0.18501
-1.21738
1.22758
0.195557
-0.204425
-1.41055
1.41942
0.213018
-0.219518
-1.6329
1.6394
0.223961
-0.227059
-1.58346
1.58656
0.228838
-0.230175
-1.29406
1.29539
0.230956
-0.230461
-1.06973
1.06924
0.228981
-0.223569
-0.881383
0.875971
0.211394
-0.188157
-0.679553
0.656315
0.158249
-0.120768
-0.4312
0.393718
0.0873361
-0.0559797
-0.204617
0.17326
0.0344411
-0.018207
-0.0703751
0.054141
0.0088022
-0.00302478
-0.0143544
0.00857695
0.000606419
0.000216064
-0.000822483
-0.0858216
0.0839446
0.00187694
0.00878474
-0.0184187
-0.380352
0.389986
0.0296407
-0.0384822
-0.540699
0.54954
0.0475389
-0.0564493
-0.674798
0.683708
0.0674711
-0.0778445
-0.797337
0.807711
0.0890541
-0.0993616
-0.924411
0.934718
0.110475
-0.120179
-1.0704
1.08011
0.130773
-0.13977
-1.23765
1.24664
0.149111
-0.156793
-1.4281
1.43578
0.163947
-0.169323
-1.64542
1.65079
0.172832
-0.175081
-1.5891
1.59135
0.175943
-0.176478
-1.29503
1.29556
0.176674
-0.175846
-1.06694
1.06612
0.173015
-0.165191
-0.86506
0.857236
0.151022
-0.12784
-0.628635
0.605453
0.101673
-0.0724492
-0.353951
0.324728
0.049335
-0.0299436
-0.143193
0.123801
0.0175926
-0.00888969
-0.0392634
0.0305604
0.00408255
-0.00131429
-0.00312409
0.000355834
0.000218555
0.00161125
-0.00182981
-0.0875918
0.0846174
0.00297447
-0.000523051
-0.00518556
-0.402413
0.408122
0.0127616
-0.0194262
-0.562561
0.569226
0.0263257
-0.0340217
-0.695188
0.702883
0.0436473
-0.0526941
-0.816997
0.826044
0.0626939
-0.0717456
-0.944218
0.95327
0.0812873
-0.0900423
-1.08969
1.09844
0.0994266
-0.107542
-1.25529
1.2634
0.115583
-0.122123
-1.44295
1.44949
0.128394
-0.132853
-1.65577
1.66023
0.135541
-0.137065
-1.59313
1.59466
0.137378
-0.13747
-1.29477
1.29486
0.136957
-0.135622
-1.06232
1.06099
0.131946
-0.122891
-0.84516
0.836105
0.108559
-0.0873284
-0.578995
0.557765
0.0658865
-0.0444001
-0.293757
0.272271
0.0292566
-0.0174668
-0.104836
0.0930462
0.0102113
-0.00519442
-0.0220891
0.0170722
0.00241535
-0.000791497
0.00258442
-0.00420827
0.000139193
0.00224788
-0.00238708
-0.0864111
0.083532
0.0028791
-0.00466281
0.00167214
-0.4174
0.420391
0.003355
-0.00848587
-0.579154
0.584285
0.0143728
-0.0208598
-0.712033
0.71852
0.0291426
-0.0369373
-0.834298
0.842093
0.0455259
-0.0533373
-0.961752
0.969563
0.0619823
-0.0695055
-1.10676
1.11428
0.0777833
-0.0845117
-1.27114
1.27786
0.0915702
-0.0972762
-1.45589
1.46159
0.102519
-0.105952
-1.66447
1.66791
0.108144
-0.1093
-1.59577
1.59693
0.109306
-0.108624
-1.29389
1.29321
0.107663
-0.105813
-1.05638
1.05452
0.101615
-0.0925682
-0.823106
0.814058
0.079079
-0.0611223
-0.533968
0.516011
0.0445923
-0.0295385
-0.249789
0.234735
0.0194768
-0.0118605
-0.0806781
0.0730619
0.00711813
-0.00375519
-0.0116334
0.00827047
0.00182645
-0.000634873
0.00612189
-0.00731346
0.000124551
0.0026565
-0.00278105
-0.0848881
0.0822737
0.00261438
-0.00626567
0.0049956
-0.42759
0.42886
-0.00118324
-0.0027075
-0.592541
0.596431
0.00745509
-0.0132868
-0.726227
0.732059
0.0202442
-0.0270777
-0.849062
0.855895
0.0345188
-0.0413117
-0.976887
0.98368
0.048752
-0.0554261
-1.12165
1.12833
0.062491
-0.068585
-1.28444
1.29053
0.0746799
-0.0795555
-1.46695
1.47182
0.0839469
-0.086685
-1.67129
1.67403
0.0883181
-0.0888288
-1.59749
1.598
0.0885239
-0.0876385
-1.29192
1.29103
0.086283
-0.0837708
-1.04958
1.04707
0.0794993
-0.0709401
-0.801283
0.792723
0.0592239
-0.0445592
-0.495946
0.481281
0.0321341
-0.0214667
-0.218379
0.207712
0.0144369
-0.00912665
-0.0645975
0.0592872
0.00572061
-0.00315933
-0.0043479
0.00178662
0.0016133
-0.000590266
0.00878625
-0.00980928
0.0001306
0.00299152
-0.00312212
-0.0833493
0.081047
0.00230228
-0.00656637
0.00593902
-0.434632
0.435259
-0.00361253
0.000444891
-0.602919
0.606087
0.00409322
-0.00905366
-0.738239
0.7432
0.0149943
-0.0208829
-0.861816
0.867705
0.0274319
-0.0334425
-0.990072
0.996083
0.0401537
-0.0459497
-1.13468
1.14047
0.0521967
-0.0575635
-1.29629
1.30166
0.0628234
-0.0669569
-1.47639
1.48052
0.0705442
-0.0729954
-1.67671
1.67916
0.0740447
-0.074271
-1.59811
1.59833
0.0736509
-0.0724507
-1.28959
1.28839
0.0710106
-0.0680063
-1.04221
1.0392
0.0636572
-0.0559594
-0.780685
0.772987
0.0459632
-0.0341977
-0.464681
0.452916
0.0248222
-0.0170211
-0.195659
0.187858
0.0119472
-0.00794734
-0.0530143
0.0490144
0.00520956
-0.00301612
0.00133783
-0.00353127
0.00160317
-0.000619142
0.0110547
-0.0120387
0.000146634
0.00329148
-0.00343812
-0.0820321
0.0801643
0.00186781
-0.00603698
0.00590571
-0.439755
0.439886
-0.00403943
0.00166918
-0.611876
0.614246
0.00246774
-0.00690052
-0.748562
0.752995
0.012425
-0.0174353
-0.873105
0.878115
0.0231031
-0.0283422
-1.00201
1.00724
0.0345371
-0.0396584
-1.14624
1.15136
0.0450608
-0.0498903
-1.30676
1.31159
0.0548739
-0.0583922
-1.48459
1.48811
0.0614675
-0.0632554
-1.68118
1.68296
0.0641264
-0.0636888
-1.59832
1.59789
0.0629537
-0.0616503
-1.28672
1.28542
0.0598367
-0.0568307
-1.03451
1.0315
0.0525233
-0.045445
-0.761816
0.754737
0.0372071
-0.0277391
-0.439147
0.429679
0.0205597
-0.0148038
-0.178724
0.172969
0.0109003
-0.00765646
-0.044059
0.0408152
0.00527834
-0.00320513
0.00627276
-0.00834598
0.00177619
-0.000717714
0.0132251
-0.0142836
0.000182809
0.00359331
-0.00377612
-0.0811272
0.0796043
0.00152283
-0.00523319
0.00539569
-0.443596
0.443434
-0.00378349
0.0016271
-0.619511
0.621667
0.00216735
-0.00608304
-0.757673
0.761589
0.0107383
-0.0154352
-0.883005
0.887702
0.0205367
-0.0257389
-1.01221
1.01742
0.0309393
-0.0356135
-1.15651
1.16119
0.0408223
-0.0450569
-1.3162
1.32043
0.0490895
-0.0525415
-1.49142
1.49487
0.0551708
-0.0565973
-1.68472
1.68615
0.0569399
-0.0563835
-1.59756
1.59701
0.0553754
-0.0537779
-1.28352
1.28192
0.0518152
-0.0486184
-1.02699
1.02379
0.0444268
-0.0382297
-0.744703
0.738506
0.031073
-0.0235759
-0.418321
0.410824
0.0181181
-0.0136813
-0.16589
0.161453
0.0105804
-0.00785203
-0.0366562
0.0339278
0.00565115
-0.00359465
0.0109238
-0.0129803
0.00208137
-0.000878441
0.0155243
-0.0167273
0.000239016
0.00394993
-0.00418895
-0.0807003
0.0793739
0.00132645
-0.00414679
0.00419132
-0.44676
0.446715
-0.00290153
0.000866962
-0.626309
0.628344
0.00253998
-0.00623146
-0.765956
0.769648
0.01057
-0.0147132
-0.892127
0.89627
0.0197684
-0.0239671
-1.02194
1.02614
0.028906
-0.0331541
-1.16594
1.17018
0.0379201
-0.0419994
-1.32452
1.3286
0.0458778
-0.0486042
-1.49792
1.50065
0.050929
-0.0520461
-1.68733
1.68845
0.0522921
-0.0512455
-1.59616
1.59512
0.0499863
-0.048077
-1.28016
1.27825
0.0459067
-0.0424614
-1.01927
1.01582
0.0384282
-0.0326903
-0.729373
0.723635
0.0266524
-0.0206118
-0.401492
0.395452
0.0163419
-0.0129766
-0.155819
0.152454
0.010451
-0.0080773
-0.0302915
0.0279178
0.0060329
-0.00399734
0.0154693
-0.0175048
0.00239616
-0.00106572
0.0180504
-0.0193808
0.000302833
0.00439461
-0.00469745
-0.080506
0.079511
0.000995084
-0.00313242
0.00278805
-0.449751
0.450096
-0.0017657
-0.000239914
-0.632144
0.634149
0.00322113
-0.00669005
-0.773478
0.776947
0.0107293
-0.0148813
-0.90022
0.904372
0.0191412
-0.0233457
-1.03049
1.03469
0.0280331
-0.0318323
-1.17478
1.17858
0.036397
-0.0401021
-1.33235
1.33605
0.0435964
-0.046387
-1.50364
1.50643
0.0485647
-0.0492438
-1.6894
1.69008
0.0489234
-0.0477638
-1.59403
1.59287
0.0463193
-0.0440009
-1.27591
1.27359
0.0414253
-0.0379479
-1.0114
1.00792
0.0335116
-0.02833
-0.715227
0.710045
0.0231265
-0.0181465
-0.387781
0.382801
0.014822
-0.0121002
-0.147813
0.145092
0.0100179
-0.00795685
-0.0247349
0.0226739
0.00611064
-0.00418238
0.0198751
-0.0218034
0.00260137
-0.00120748
0.0207756
-0.0221695
0.000363524
0.00493672
-0.00530024
-0.0806936
0.0798746
0.000819002
-0.00225353
0.00201638
-0.452755
0.452992
-0.000544028
-0.00122805
-0.637866
0.639638
0.00431159
-0.00757075
-0.780292
0.783551
0.0113463
-0.0149762
-0.908134
0.911764
0.0192328
-0.0229682
-1.03882
1.04256
0.0274137
-0.031466
-1.18276
1.18681
0.035386
-0.0391329
-1.33967
1.34342
0.0426671
-0.0450939
-1.50893
1.51135
0.0470309
-0.047798
-1.69074
1.69151
0.0471356
-0.0457321
-1.59128
1.58988
0.0437087
-0.0410461
-1.27099
1.26833
0.0382199
-0.0342747
-1.00325
0.999309
0.0298429
-0.0247688
-0.702211
0.697137
0.0201155
-0.0158307
-0.376154
0.371869
0.0130272
-0.0107942
-0.141248
0.139015
0.00903129
-0.00729666
-0.0199075
0.0181729
0.00572382
-0.00403128
0.0239441
-0.0256367
0.00257921
-0.00124469
0.023533
-0.0248675
0.00039282
0.00556035
-0.00595317
-0.0811695
0.0805255
0.000643973
-0.00123129
0.000861567
-0.455765
0.456134
0.000400611
-0.00242456
-0.643029
0.645053
0.00538441
-0.00842139
-0.786693
0.78973
0.0121965
-0.0155854
-0.915327
0.918716
0.0195666
-0.023306
-1.04672
1.05046
0.0274974
-0.0313371
-1.19062
1.19446
0.0352544
-0.0387709
-1.34696
1.35047
0.0421393
-0.0449335
-1.5139
1.51669
0.0467497
-0.047143
-1.69193
1.69233
0.0463997
-0.0444263
-1.58801
1.58604
0.0421659
-0.0392178
-1.26524
1.2623
0.0357373
-0.0313792
-0.994415
0.990057
0.0267141
-0.0215368
-0.6898
0.684623
0.0172723
-0.0134135
-0.36616
0.362301
0.0109902
-0.00902944
-0.13568
0.13372
0.00757203
-0.00616697
-0.0158012
0.0143962
0.00491939
-0.00355325
0.0274592
-0.0288254
0.002335
-0.00117461
0.0260769
-0.0272373
0.000398837
0.00620261
-0.00660145
-0.0818801
0.0813597
0.000520372
-0.000388276
-6.40615e-05
-0.458836
0.459288
0.00135936