/*--------------------------------*- C++ -*----------------------------------*\
  =========                 |
  \\      /  F ield         | OpenFOAM: The Open Source CFD Toolbox
   \\    /   O peration     | Website:  https://openfoam.org
    \\  /    A nd           | Version:  6
     \\/     M anipulation  |
\*---------------------------------------------------------------------------*/
FoamFile
{
    version     2.0;
    format      ascii;
    class       volScalarField;
    location    "51.9";
    object      p;
}
// * * * * * * * * * * * * * * * * * * * * * * * * * * * * * * * * * * * * * //

dimensions      [0 2 -2 0 0 0 0];

internalField   nonuniform List<scalar> 
8800
(
0.961936
0.912618
0.874648
0.84657
0.826397
0.811791
0.801167
0.79359
0.788655
0.786519
0.787816
0.792098
0.798846
0.808236
0.820949
0.838253
0.862119
0.89521
0.938143
0.990656
0.796441
0.802784
0.81193
0.815471
0.812852
0.806748
0.799785
0.79351
0.788662
0.785732
0.785426
0.787984
0.79257
0.798658
0.80573
0.812744
0.81761
0.817477
0.810795
0.801892
0.769981
0.776213
0.780706
0.784565
0.787498
0.788427
0.787309
0.785146
0.783108
0.782195
0.783147
0.785533
0.788368
0.790601
0.791096
0.789288
0.785909
0.781886
0.777099
0.773382
0.765716
0.768479
0.771076
0.773221
0.77494
0.776484
0.777554
0.777859
0.777682
0.777699
0.778415
0.779483
0.780168
0.779976
0.77897
0.777593
0.775907
0.773593
0.771176
0.769609
0.760708
0.762131
0.76396
0.766025
0.767717
0.768982
0.770041
0.770967
0.771704
0.772347
0.772957
0.773333
0.773292
0.772879
0.772174
0.771032
0.769356
0.767447
0.766087
0.765284
0.75578
0.756682
0.757917
0.759525
0.761194
0.762693
0.763932
0.764993
0.765973
0.76688
0.76755
0.767842
0.767776
0.767349
0.766502
0.765281
0.763894
0.762611
0.761782
0.761258
0.750951
0.751605
0.752554
0.75385
0.755268
0.756746
0.758179
0.759471
0.760636
0.761713
0.762527
0.762905
0.762831
0.762324
0.761489
0.760507
0.759483
0.758557
0.757969
0.757586
0.746219
0.746722
0.747495
0.748611
0.749878
0.75125
0.752699
0.754158
0.755558
0.756866
0.757857
0.758324
0.758291
0.757882
0.757252
0.756513
0.755735
0.755046
0.75461
0.754312
0.741532
0.741933
0.742579
0.743572
0.744765
0.746079
0.747514
0.749059
0.75066
0.752231
0.753451
0.754086
0.754224
0.754028
0.753624
0.753095
0.752514
0.752013
0.751688
0.751447
0.736814
0.737141
0.737699
0.738612
0.739754
0.741052
0.742516
0.744153
0.745937
0.747785
0.749308
0.750218
0.750618
0.750665
0.750482
0.750165
0.749771
0.749426
0.749184
0.748983
0.73198
0.732252
0.732749
0.733614
0.734737
0.736057
0.73759
0.739356
0.741352
0.743518
0.745424
0.7467
0.747418
0.747742
0.747799
0.747693
0.747483
0.747275
0.7471
0.746927
0.726946
0.727174
0.727633
0.72848
0.729623
0.731007
0.732649
0.734599
0.736875
0.73944
0.741814
0.743524
0.744613
0.745251
0.745573
0.74569
0.74566
0.745576
0.745455
0.745302
0.721622
0.721817
0.722257
0.723116
0.724319
0.72581
0.727618
0.729818
0.732457
0.735524
0.738466
0.740689
0.742209
0.743204
0.743821
0.744166
0.744334
0.744364
0.744289
0.744151
0.715915
0.716083
0.71652
0.71742
0.718725
0.720377
0.722419
0.724954
0.728058
0.731745
0.735379
0.738216
0.740238
0.741638
0.742589
0.743209
0.743566
0.743704
0.743668
0.74354
0.709709
0.709855
0.710305
0.711276
0.712727
0.714599
0.716952
0.719918
0.723609
0.728069
0.73254
0.736108
0.738724
0.740599
0.741926
0.74284
0.743411
0.743664
0.743665
0.743542
0.702872
0.702995
0.703473
0.704545
0.706195
0.708357
0.711108
0.714614
0.719026
0.724423
0.729914
0.734371
0.737698
0.740135
0.741905
0.743157
0.743969
0.744339
0.744374
0.744254
0.695236
0.695334
0.695856
0.697062
0.698968
0.701502
0.70476
0.708945
0.714258
0.72081
0.727532
0.733046
0.737217
0.740319
0.74262
0.744269
0.745345
0.745838
0.745905
0.745784
0.686564
0.686667
0.687238
0.688615
0.690853
0.693863
0.697764
0.702812
0.709245
0.717209
0.725421
0.732199
0.737358
0.741237
0.744165
0.746271
0.74765
0.748276
0.748375
0.74825
0.676563
0.676651
0.67731
0.67892
0.681595
0.685216
0.689939
0.696077
0.703923
0.713633
0.723625
0.73188
0.738201
0.742996
0.746644
0.749293
0.751013
0.751781
0.751909
0.751776
0.664879
0.664951
0.665714
0.667636
0.670864
0.67527
0.681042
0.688552
0.698139
0.709974
0.722114
0.732129
0.739821
0.74569
0.750177
0.753458
0.75556
0.756475
0.75663
0.756486
0.650965
0.651028
0.651937
0.654268
0.658222
0.663659
0.670804
0.680087
0.691869
0.706306
0.721001
0.73306
0.742325
0.74943
0.754896
0.75889
0.761407
0.762473
0.762648
0.76249
0.634069
0.634126
0.635247
0.638156
0.643107
0.649946
0.658919
0.670514
0.685086
0.702699
0.72039
0.734789
0.745827
0.75434
0.760895
0.765693
0.768649
0.769856
0.770042
0.769865
0.613067
0.613127
0.614585
0.618356
0.624739
0.633546
0.645029
0.659685
0.677783
0.699227
0.720371
0.737402
0.750428
0.760498
0.768255
0.773929
0.777322
0.778645
0.778827
0.778629
0.586204
0.586291
0.588334
0.593497
0.60208
0.613779
0.628796
0.647522
0.670017
0.695983
0.721066
0.741001
0.756191
0.767963
0.777026
0.783603
0.787393
0.788784
0.788941
0.78872
0.550449
0.550656
0.553893
0.56163
0.573939
0.590102
0.610191
0.634312
0.662256
0.693464
0.722824
0.745807
0.763242
0.776786
0.787219
0.794655
0.798731
0.800109
0.800212
0.799968
0.500062
0.501116
0.507554
0.520607
0.539428
0.562482
0.589562
0.620444
0.654721
0.691725
0.725677
0.751865
0.771599
0.786901
0.798694
0.806875
0.811058
0.812315
0.812337
0.812071
0.426658
0.433918
0.4487
0.471488
0.500044
0.532316
0.567916
0.606588
0.647944
0.691313
0.730218
0.759861
0.782137
0.799438
0.812638
0.821472
0.825702
0.826835
0.826801
0.826562
0.348402
0.364317
0.388358
0.421677
0.46049
0.502174
0.546392
0.593064
0.641915
0.692378
0.737247
0.771301
0.796867
0.816643
0.831568
0.841016
0.845097
0.846023
0.846007
0.84587
0.281393
0.300862
0.332654
0.375041
0.422994
0.473529
0.526126
0.58067
0.636883
0.694214
0.744752
0.7829
0.811485
0.833504
0.849747
0.859483
0.863374
0.864198
0.864222
0.864149
0.226542
0.248229
0.285374
0.334277
0.389394
0.447381
0.507421
0.569227
0.632367
0.696204
0.752089
0.794076
0.825366
0.849325
0.866781
0.877075
0.881204
0.882094
0.882147
0.882114
0.181011
0.204038
0.245071
0.299083
0.359949
0.424082
0.490471
0.558696
0.628162
0.698085
0.759022
0.804646
0.838532
0.864357
0.883096
0.894237
0.898748
0.89968
0.89977
0.899769
0.142199
0.166052
0.209974
0.268141
0.333844
0.403222
0.47512
0.549041
0.62426
0.699837
0.765519
0.814556
0.850918
0.878537
0.898581
0.910524
0.915445
0.916529
0.916666
0.916683
0.108094
0.132528
0.178726
0.240343
0.31018
0.384134
0.460924
0.539985
0.620473
0.701318
0.77147
0.823709
0.862349
0.891641
0.91277
0.925413
0.930766
0.932069
0.932266
0.932286
0.0772301
0.102157
0.150249
0.214807
0.288226
0.366197
0.447377
0.531146
0.616547
0.702352
0.776746
0.831987
0.872709
0.903434
0.925517
0.938745
0.944441
0.945966
0.946186
0.946199
0.0486247
0.0740145
0.123726
0.190869
0.26743
0.34896
0.434107
0.522207
0.612227
0.70276
0.781215
0.839345
0.881985
0.913974
0.936813
0.950483
0.956436
0.958117
0.958358
0.958357
0.0215048
0.0474121
0.098608
0.168055
0.24739
0.332096
0.420835
0.512929
0.607289
0.70239
0.784837
0.845797
0.890281
0.923423
0.946924
0.960833
0.966955
0.968726
0.968956
0.96893
-0.00446953
0.0219183
0.0744867
0.146001
0.227813
0.315369
0.407371
0.503152
0.601605
0.701145
0.78759
0.851391
0.897706
0.931962
0.95599
0.970046
0.976205
0.97799
0.978192
0.978133
-0.0297078
-0.00274701
0.0510866
0.124471
0.208506
0.298626
0.393599
0.492781
0.595091
0.698946
0.789432
0.856164
0.90438
0.939745
0.964192
0.978271
0.984398
0.986152
0.98635
0.986274
-0.0543181
-0.0267722
0.0282578
0.10333
0.189358
0.281787
0.379455
0.481764
0.587692
0.695744
0.790335
0.860162
0.910431
0.946932
0.971708
0.985731
0.991776
0.993456
0.993596
0.993489
-0.0784062
-0.0502635
0.00589893
0.0825158
0.170329
0.264822
0.364923
0.470085
0.579389
0.691496
0.790248
0.86341
0.915953
0.953647
0.978688
0.992579
0.998431
0.999977
1.00005
0.999902
-0.102052
-0.0732798
-0.0160166
0.0620092
0.151402
0.247744
0.350029
0.457776
0.570192
0.686167
0.789113
0.86589
0.92102
0.960021
0.98527
0.998899
1.00442
1.00575
1.00574
1.00558
-0.125293
-0.0958125
-0.037485
0.0418198
0.132617
0.230591
0.334825
0.444884
0.560134
0.679739
0.786872
0.867541
0.925647
0.966199
0.991648
1.00481
1.0098
1.01085
1.01076
1.01058
-0.147965
-0.117815
-0.0584718
0.021968
0.114016
0.213436
0.319374
0.431487
0.549276
0.672232
0.783464
0.868267
0.929782
0.972332
0.998139
1.01058
1.01471
1.01532
1.01514
1.01496
-0.170026
-0.139241
-0.0789504
0.00250986
0.0956634
0.196344
0.303776
0.417668
0.5377
0.663673
0.778844
0.867939
0.933296
0.978489
1.00515
1.01675
1.01946
1.01925
1.01893
1.01879
-0.191534
-0.160053
-0.0988884
-0.0165098
0.0776291
0.179405
0.288121
0.403533
0.525499
0.654128
0.772967
0.866426
0.935972
0.984534
1.01302
1.02422
1.025
1.02308
1.0222
1.02228
-0.212319
-0.180218
-0.118224
-0.0350192
0.0599768
0.162707
0.272512
0.389195
0.512794
0.6437
0.765816
0.863576
0.937547
0.990055
1.02163
1.03399
1.03348
1.0289
1.02551
1.02388
-0.232474
-0.199735
-0.136959
-0.0530461
0.0426736
0.146209
0.256896
0.374595
0.499509
0.632323
0.757235
0.859126
0.937747
0.994493
1.03018
1.04608
1.047
1.04074
1.03048
1.03013
-0.251908
-0.218673
-0.155227
-0.0707856
0.0254206
0.129569
0.240849
0.359234
0.485083
0.619344
0.746539
0.852267
0.936025
0.997055
1.03678
1.05772
1.06121
1.0514
1.03344
1.03017
-0.270476
-0.236993
-0.172852
-0.088033
0.00847911
0.113095
0.224588
0.343442
0.469822
0.605023
0.733817
0.842424
0.931696
0.996597
1.0371
1.05797
1.06481
1.04178
0.983526
0.958056
-0.288051
-0.255502
-0.189422
-0.104281
-0.00743266
0.0972754
0.20839
0.327494
0.454009
0.589538
0.719152
0.829073
0.923867
0.992417
1.02652
1.04191
1.03351
0.98487
0.923611
0.886065
-0.33235
-0.273382
-0.204791
-0.120201
-0.023096
0.0811828
0.192388
0.311272
0.437447
0.572564
0.702169
0.811715
0.908917
0.982544
1.00365
0.996374
0.954468
0.892724
0.825265
0.78822
-0.307122
-0.288688
-0.228132
-0.143372
-0.0470062
0.0570497
0.167505
0.285679
0.410814
0.544323
0.67214
0.779227
0.867333
0.947485
0.935539
0.833644
0.7476
0.687691
0.625543
0.654022
-0.339015
-0.306915
-0.245488
-0.161252
-0.0650468
0.0387315
0.149324
0.26681
0.39086
0.522517
0.647636
0.751027
0.829023
0.87373
0.827152
0.693581
0.588903
0.518295
0.438038
0.485117
-0.363877
-0.329252
-0.265938
-0.181531
-0.0853869
0.0183416
0.128825
0.245496
0.368148
0.497371
0.61866
0.715967
0.783085
0.790616
0.689691
0.539574
0.414494
0.324977
0.231362
0.264082
-0.388159
-0.352372
-0.287571
-0.202444
-0.106157
-0.00252867
0.10747
0.223172
0.344206
0.47061
0.587114
0.676808
0.7276
0.703338
0.550854
0.378453
0.222227
0.0914042
-0.0308117
-0.017207
-0.412192
-0.375927
-0.31013
-0.224352
-0.127839
-0.024381
0.0849941
0.199587
0.31873
0.441929
0.552868
0.635163
0.66576
0.598172
0.41452
0.221808
0.0383503
-0.112465
-0.315626
-0.394154
-0.436658
-0.400382
-0.333959
-0.24768
-0.15092
-0.0475815
0.0612398
0.174699
0.291837
0.41159
0.516605
0.589834
0.596152
0.477638
0.290391
0.0855439
-0.102777
-0.261785
-0.383824
-0.501564
-0.462649
-0.42623
-0.359427
-0.272829
-0.175955
-0.0728261
0.0353508
0.147504
0.262298
0.378059
0.476708
0.537809
0.517779
0.363147
0.174366
-0.0245614
-0.196318
-0.291141
-0.316857
-0.330399
-0.490302
-0.453762
-0.386667
-0.299907
-0.203098
-0.100343
0.00694823
0.117488
0.229488
0.34052
0.43234
0.476365
0.438292
0.253225
0.066315
-0.112222
-0.241637
-0.278605
-0.287331
-0.287691
-0.519905
-0.483103
-0.415719
-0.328896
-0.232295
-0.130141
-0.0239914
0.0845919
0.193328
0.298917
0.3829
0.411481
0.342604
0.152698
-0.028158
-0.183064
-0.254899
-0.268954
-0.270008
-0.269819
-0.551471
-0.514293
-0.446595
-0.359791
-0.263559
-0.162207
-0.057478
0.0487964
0.153825
0.253323
0.328194
0.342488
0.236118
0.0614728
-0.109507
-0.231386
-0.258713
-0.259878
-0.260713
-0.260326
-0.58474
-0.547153
-0.479187
-0.392503
-0.296798
-0.196486
-0.0934839
0.0101229
0.111027
0.203828
0.269273
0.264753
0.140859
-0.0233774
-0.174058
-0.241735
-0.256513
-0.255152
-0.255046
-0.254763
-0.619131
-0.581326
-0.513219
-0.426792
-0.331813
-0.232807
-0.131851
-0.0313063
0.0651477
0.150819
0.206247
0.185735
0.0520994
-0.099218
-0.217382
-0.252762
-0.25192
-0.251598
-0.251246
-0.25095
-0.654198
-0.61627
-0.548197
-0.46222
-0.368227
-0.270827
-0.172277
-0.0752109
0.016476
0.0951564
0.137686
0.110497
-0.0294895
-0.1583
-0.24253
-0.249665
-0.251362
-0.251652
-0.251246
-0.250796
-0.688957
-0.651069
-0.583342
-0.49812
-0.40546
-0.310039
-0.214273
-0.121089
-0.0345542
0.0375666
0.0690496
0.0313262
-0.102069
-0.204181
-0.247966
-0.258935
-0.255289
-0.254189
-0.253455
-0.253033
-0.721473
-0.684387
-0.617596
-0.533564
-0.44269
-0.34969
-0.257128
-0.168175
-0.0871301
-0.0214507
0.00493219
-0.0533666
-0.169575
-0.249612
-0.26624
-0.265113
-0.260198
-0.255606
-0.254356
-0.253983
-0.750679
-0.714692
-0.649512
-0.567308
-0.478816
-0.388784
-0.299899
-0.215496
-0.140011
-0.0811288
-0.0587578
-0.129598
-0.235383
-0.293336
-0.303362
-0.28753
-0.269975
-0.260215
-0.258204
-0.25753
-0.773795
-0.739812
-0.677286
-0.59778
-0.512467
-0.426076
-0.341392
-0.261843
-0.191974
-0.138888
-0.122159
-0.190004
-0.300486
-0.350666
-0.334887
-0.32131
-0.308709
-0.299693
-0.293256
-0.290121
-0.788654
-0.757536
-0.698781
-0.623168
-0.542058
-0.460126
-0.38022
-0.305729
-0.241797
-0.191833
-0.178375
-0.231669
-0.35136
-0.441006
-0.40398
-0.382456
-0.379122
-0.368748
-0.357066
-0.352965
-0.792536
-0.765413
-0.711822
-0.641568
-0.565877
-0.489441
-0.41488
-0.345606
-0.287408
-0.23938
-0.217956
-0.251812
-0.319207
-0.495012
-0.453328
-0.384067
-0.36673
-0.362113
-0.358758
-0.358168
-0.783134
-0.760977
-0.714257
-0.651168
-0.582376
-0.512623
-0.44402
-0.380139
-0.325895
-0.282363
-0.238114
-0.226005
-0.145334
-0.165134
-0.237613
-0.278967
-0.300165
-0.313855
-0.321363
-0.323438
-0.757625
-0.741235
-0.704102
-0.65072
-0.590518
-0.52855
-0.466821
-0.408084
-0.356874
-0.32012
-0.25889
-0.198909
0.0248291
0.184679
-0.00978926
-0.221059
-0.321829
-0.348423
-0.357785
-0.360084
-0.719437
-0.708898
-0.682292
-0.640449
-0.590319
-0.536893
-0.482737
-0.42935
-0.38211
-0.346026
-0.312422
-0.300102
-0.265876
-0.123477
-0.254406
-0.422588
-0.499886
-0.502557
-0.508077
-0.512129
-0.675622
-0.669655
-0.65387
-0.623389
-0.583755
-0.538681
-0.491308
-0.444006
-0.400133
-0.36865
-0.368106
-0.519708
-0.897272
-1.28409
-1.3894
-1.39085
-1.23058
-0.994548
-0.863103
-0.852586
-0.63642
-0.632918
-0.625306
-0.605102
-0.573877
-0.535689
-0.493976
-0.450344
-0.408994
-0.382094
-0.369959
-0.596233
-1.05678
-1.65483
-1.85959
-1.77542
-1.60613
-1.38634
-1.19721
-1.10506
-0.608589
-0.606563
-0.602798
-0.590056
-0.565065
-0.531029
-0.491747
-0.448803
-0.406077
-0.366997
-0.375841
-0.392002
-0.424267
-0.438438
-0.368683
-0.205572
-0.150652
-0.0566296
3.08541e-05
0.0405434
-0.588178
-0.587455
-0.586279
-0.579701
-0.559999
-0.527776
-0.487538
-0.441535
-0.389207
-0.339909
-0.297543
-0.258567
-0.0531528
0.275661
0.623629
0.837489
0.950587
0.967993
0.958072
0.951435
-0.576586
-0.576195
-0.575596
-0.572645
-0.557993
-0.526301
-0.481643
-0.428144
-0.368455
-0.297144
-0.210217
-0.110269
0.135318
0.50635
0.881067
1.1589
1.26993
1.28726
1.29053
1.28692
-0.569983
-0.569922
-0.569775
-0.569249
-0.558574
-0.526338
-0.477002
-0.417501
-0.341281
-0.24985
-0.158907
-0.0162204
0.220771
0.557493
0.864405
1.08906
1.21743
1.29747
1.35692
1.38278
-0.564575
-0.564994
-0.565419
-0.565613
-0.557561
-0.528223
-0.478184
-0.409256
-0.32289
-0.218716
-0.115208
0.00565269
0.273357
0.595885
0.88911
1.1523
1.34271
1.47033
1.54578
1.5747
-0.563589
-0.562273
-0.557202
-0.550866
-0.548569
-0.533716
-0.488841
-0.410295
-0.314636
-0.201338
-0.089452
0.00347292
0.226703
0.512406
0.844531
1.15022
1.38433
1.5317
1.60479
1.62613
-0.591898
-0.586917
-0.574175
-0.561054
-0.562504
-0.562964
-0.513411
-0.416955
-0.30631
-0.193286
-0.0730183
0.0207743
0.189693
0.493028
0.759456
1.00687
1.20774
1.33728
1.39618
1.41177
-0.667513
-0.665978
-0.669771
-0.678839
-0.678837
-0.650355
-0.553506
-0.426037
-0.298696
-0.181596
-0.0673189
0.0336454
0.142992
0.366773
0.609982
0.817272
0.968036
1.05981
1.09843
1.10823
-0.767028
-0.780241
-0.809716
-0.828142
-0.816803
-0.742697
-0.585353
-0.425857
-0.290308
-0.168041
-0.0598057
0.033223
0.125245
0.255436
0.44729
0.605122
0.725055
0.795428
0.825603
0.831073
-0.777504
-0.796068
-0.826398
-0.845861
-0.829316
-0.729294
-0.550019
-0.396258
-0.26673
-0.15233
-0.056827
0.0290911
0.0899213
0.196583
0.337635
0.444427
0.52727
0.575149
0.592361
0.594726
-0.601276
-0.619574
-0.647786
-0.668603
-0.649753
-0.559168
-0.435635
-0.321046
-0.216057
-0.129231
-0.0530206
0.0140125
0.0556305
0.107775
0.214458
0.301959
0.363812
0.39546
0.40819
0.408841
-0.29311
-0.304805
-0.325166
-0.345067
-0.346184
-0.312946
-0.264634
-0.206999
-0.149496
-0.0935904
-0.0478381
0.000921441
0.0340455
0.070766
0.129447
0.182818
0.224936
0.248745
0.257143
0.256919
-0.0117996
-0.0168515
-0.0295595
-0.0514637
-0.0749804
-0.0935764
-0.100794
-0.0971934
-0.0826277
-0.0561152
-0.0353872
-0.0137108
-0.000494709
0.0218032
0.0717327
0.106526
0.127639
0.136344
0.138516
0.137428
0.146293
0.143818
0.134265
0.111915
0.0764262
0.0374375
0.00518915
-0.0156826
-0.026829
-0.0246624
-0.0258239
-0.0308008
-0.0416046
-0.0279084
0.00202963
0.027403
0.0444518
0.0515581
0.0533604
0.0527692
0.201367
0.199569
0.191969
0.172885
0.141318
0.103398
0.0668642
0.0367659
0.0151364
0.000646037
-0.0168218
-0.0461612
-0.0715675
-0.0492727
-0.0207575
-0.00519239
0.00141104
0.00121828
0.00074216
0.000332907
0.205111
0.203808
0.198354
0.184529
0.160907
0.13115
0.099779
0.0706911
0.0468145
0.0267872
0.0020949
-0.031802
-0.0563094
-0.0358764
-0.0160234
-0.00967901
-0.0110954
-0.0142038
-0.0153738
-0.0154334
0.19
0.189164
0.18559
0.176386
0.160164
0.138716
0.114638
0.0909876
0.0699113
0.052138
0.0327355
0.0112574
0.00297944
0.0148125
0.0199226
0.015227
0.00837287
0.00400168
0.00259158
0.00245995
0.169976
0.169511
0.167343
0.16157
0.151093
0.136657
0.1198
0.102927
0.08788
0.077715
0.0702635
0.0650842
0.0689864
0.076334
0.0733788
0.0625761
0.0512089
0.0448087
0.043168
0.0429989
0.14981
0.14962
0.148445
0.14511
0.138771
0.129809
0.119184
0.10884
0.101016
0.0992678
0.10656
0.119136
0.137759
0.138735
0.125218
0.111464
0.102742
0.0987784
0.0975833
0.0971882
0.130641
0.130619
0.130117
0.128401
0.124963
0.119949
0.114222
0.109448
0.10834
0.115771
0.136676
0.166552
0.19282
0.191804
0.175741
0.162605
0.154729
0.152617
0.151508
0.150859
0.112184
0.112273
0.112196
0.111566
0.110073
0.107903
0.105731
0.105185
0.109081
0.123341
0.154531
0.195516
0.230686
0.226379
0.208127
0.197456
0.194606
0.194374
0.193863
0.192721
0.0938469
0.0940013
0.0941735
0.0942427
0.094038
0.0937493
0.0939663
0.0960958
0.103014
0.120101
0.15483
0.199671
0.235419
0.229033
0.214121
0.208685
0.208868
0.210939
0.210674
0.209427
0.075372
0.0755348
0.0758419
0.0762973
0.0768722
0.077729
0.0792316
0.0827081
0.0900872
0.10635
0.13674
0.175839
0.20269
0.196176
0.189817
0.192075
0.197872
0.201215
0.200817
0.199524
0.056796
0.0569231
0.0572366
0.0578795
0.0588264
0.0601792
0.0621624
0.0656979
0.0720812
0.0837745
0.103193
0.125935
0.139874
0.138877
0.140612
0.151387
0.161784
0.166768
0.166574
0.165358
0.03846
0.0385371
0.0387939
0.0394156
0.0404102
0.0417657
0.043571
0.0460816
0.0503685
0.0561529
0.0603919
0.0582614
0.0465706
0.0516239
0.0727208
0.0947425
0.108466
0.112637
0.112299
0.111392
0.0207142
0.0207222
0.020871
0.0213039
0.0220547
0.0229815
0.0242299
0.0259318
0.0278093
0.0291909
0.0226921
-0.0092947
-0.0352377
-0.0243359
0.0078531
0.0377028
0.0498552
0.052064
0.0516149
0.0513218
0.00402834
0.00401511
0.00402079
0.00403968
0.00422177
0.00454293
0.00478552
0.00510792
0.00546376
0.0056985
0.00393916
-0.0031463
-0.0232929
-0.0181704
-0.00920811
-0.000587927
-0.00327535
-0.00287408
0.00235344
0.00481815
0.116662
0.306042
0.480272
0.628478
0.748236
0.843886
0.924053
0.989275
1.0061
1.0023
0.409644
0.53181
0.646508
0.746583
0.831295
0.901607
0.957156
0.994721
1.01477
1.03131
0.608705
0.690372
0.771287
0.842577
0.903597
0.954282
0.994182
1.02451
1.04723
1.06648
0.75594
0.81363
0.872364
0.925179
0.970777
1.00951
1.04194
1.06909
1.08951
1.10841
0.873162
0.917148
0.961035
1.0018
1.03809
1.07014
1.09813
1.12181
1.13984
1.15788
0.972778
1.00844
1.04358
1.07751
1.10877
1.13706
1.16202
1.18294
1.19876
1.21625
1.06099
1.09322
1.12556
1.15681
1.18589
1.21232
1.23549
1.25447
1.26841
1.28544
1.14817
1.18082
1.21332
1.24457
1.27338
1.29921
1.32137
1.33893
1.35133
1.36787
1.24268
1.27912
1.31391
1.34641
1.37561
1.401
1.42215
1.43845
1.45009
1.46624
1.35579
1.39637
1.43343
1.46642
1.49494
1.51896
1.5386
1.55389
1.5658
1.58188
1.49717
1.53828
1.57356
1.60318
1.6284
1.65003
1.66854
1.68403
1.69716
1.71311
1.66876
1.70122
1.72809
1.75041
1.7705
1.78923
1.80698
1.82375
1.83867
1.8544
1.85513
1.87242
1.88954
1.90622
1.92232
1.93706
1.95096
1.96545
1.98069
1.99799
2.03852
2.0485
2.06171
2.0727
2.0821
2.09176
2.10237
2.11256
2.12185
2.14751
2.25644
2.25073
2.23779
2.22353
2.21724
2.22295
2.2411
2.26962
2.30338
2.33971
2.55925
2.4233
2.34379
2.30128
2.28396
2.28794
2.31537
2.37324
2.4809
2.65931
0.865635
0.859331
0.851598
0.840479
0.8269
0.814241
0.803828
0.795796
0.790051
0.786685
0.786293
0.789091
0.794295
0.801633
0.811168
0.822988
0.836544
0.849469
0.858455
0.865995
0.774715
0.780634
0.788702
0.794828
0.797889
0.797366
0.794265
0.790248
0.78663
0.784309
0.784135
0.786351
0.790076
0.794501
0.798588
0.800823
0.799742
0.795101
0.788043
0.780208
0.767983
0.770355
0.773619
0.776385
0.778826
0.781002
0.782165
0.781995
0.781026
0.780181
0.780352
0.781727
0.783478
0.784684
0.784593
0.783114
0.780947
0.778578
0.775591
0.772571
0.763221
0.76431
0.766222
0.768552
0.770413
0.771797
0.772995
0.773962
0.774527
0.774862
0.775368
0.776068
0.776501
0.776358
0.77571
0.774773
0.773431
0.771453
0.76934
0.767861
0.758234
0.758868
0.759992
0.761741
0.763572
0.765148
0.766377
0.76741
0.768351
0.769199
0.76993
0.770402
0.770502
0.770264
0.769705
0.768713
0.767272
0.765651
0.764307
0.763503
0.753355
0.753794
0.754579
0.755873
0.75738
0.758924
0.760376
0.761636
0.762743
0.763772
0.76466
0.765205
0.765338
0.765066
0.764374
0.763352
0.762181
0.761023
0.760111
0.759576
0.748577
0.748905
0.749513
0.750572
0.751851
0.753228
0.754676
0.756109
0.757445
0.758679
0.759749
0.760425
0.760595
0.760305
0.759672
0.75886
0.757992
0.757121
0.756449
0.756056
0.743877
0.744132
0.744622
0.745521
0.746675
0.747958
0.749345
0.750825
0.752342
0.753824
0.755129
0.75596
0.756231
0.756075
0.755647
0.755064
0.754401
0.753752
0.753259
0.752958
0.739186
0.739389
0.739796
0.740585
0.741658
0.74289
0.744259
0.745777
0.747425
0.749142
0.750724
0.751798
0.752287
0.752361
0.752161
0.751794
0.75133
0.750868
0.750511
0.750274
0.734421
0.734584
0.734933
0.735648
0.736673
0.737883
0.739277
0.740872
0.742668
0.744624
0.746532
0.74795
0.748748
0.749097
0.749139
0.748989
0.748727
0.748431
0.748188
0.747999
0.729498
0.729631
0.729938
0.730607
0.731614
0.732847
0.734303
0.736017
0.73801
0.740264
0.742573
0.744413
0.745581
0.746249
0.746563
0.746645
0.746583
0.746446
0.746298
0.746145
0.72433
0.724438
0.724717
0.725367
0.72639
0.727687
0.729249
0.731135
0.73339
0.736023
0.738825
0.741176
0.742782
0.743817
0.744437
0.744769
0.74491
0.744934
0.744869
0.744744
0.718828
0.718914
0.719177
0.719831
0.720907
0.722311
0.724035
0.726163
0.728768
0.731887
0.7353
0.738257
0.740373
0.741827
0.742789
0.743411
0.743777
0.743947
0.743955
0.743852
0.712887
0.712954
0.71321
0.713893
0.715057
0.716615
0.718566
0.721016
0.724069
0.727791
0.731949
0.735644
0.738368
0.740312
0.741664
0.742606
0.743215
0.743544
0.743621
0.743535
0.706381
0.70643
0.706688
0.707421
0.708715
0.710483
0.712736
0.715601
0.719218
0.723691
0.728762
0.733341
0.736787
0.73931
0.741119
0.742416
0.743308
0.743806
0.743951
0.74388
0.699166
0.699195
0.699462
0.700269
0.701735
0.703778
0.706414
0.7098
0.714115
0.719506
0.725687
0.731342
0.735657
0.738873
0.741224
0.742944
0.744155
0.744836
0.745049
0.744989
0.691051
0.69107
0.691337
0.692243
0.693932
0.696326
0.699454
0.703504
0.7087
0.715228
0.72276
0.729706
0.735052
0.739074
0.742063
0.744291
0.745862
0.746743
0.747026
0.746976
0.681728
0.681722
0.682045
0.683091
0.685078
0.687925
0.691679
0.69657
0.702878
0.710822
0.719997
0.728474
0.735033
0.740003
0.74374
0.746562
0.748547
0.749651
0.750006
0.749962
0.670931
0.670902
0.671272
0.672508
0.674865
0.678296
0.682853
0.688815
0.696512
0.706206
0.717375
0.727674
0.73566
0.741752
0.746369
0.749877
0.75234
0.753687
0.754115
0.754073
0.658184
0.658133
0.658578
0.66006
0.662896
0.667083
0.67268
0.68001
0.689458
0.70131
0.714897
0.727359
0.737012
0.744407
0.750055
0.754356
0.757362
0.75897
0.759469
0.759426
0.642844
0.64277
0.643335
0.645162
0.648642
0.653842
0.660819
0.669948
0.681647
0.696178
0.712662
0.727661
0.739222
0.74809
0.754929
0.760122
0.763728
0.765607
0.766169
0.766119
0.623991
0.623899
0.624659
0.62699
0.631374
0.637982
0.646845
0.65837
0.672984
0.690869
0.710794
0.728671
0.742383
0.752919
0.761063
0.767267
0.771515
0.773656
0.774267
0.774202
0.600224
0.600128
0.601217
0.604325
0.610064
0.618725
0.630257
0.645047
0.663411
0.685362
0.70931
0.73047
0.746579
0.758951
0.768529
0.775835
0.780737
0.783109
0.78374
0.783652
0.569226
0.569173
0.57086
0.575309
0.583315
0.595162
0.610628
0.629919
0.653136
0.680033
0.708569
0.733292
0.751939
0.766261
0.777384
0.785837
0.791339
0.793863
0.794471
0.794352
0.526885
0.527027
0.530011
0.537249
0.549497
0.566611
0.587919
0.613297
0.64254
0.675178
0.708772
0.737294
0.758592
0.774911
0.787604
0.797181
0.80314
0.805674
0.806201
0.806044
0.465548
0.466838
0.47409
0.487738
0.50773
0.533185
0.562697
0.595777
0.632098
0.671125
0.710117
0.742551
0.76652
0.784808
0.79899
0.809534
0.81575
0.818077
0.818435
0.81825
0.392062
0.3946
0.408708
0.432235
0.462852
0.498228
0.536697
0.578012
0.621972
0.668117
0.71342
0.750734
0.778237
0.799184
0.815287
0.826919
0.833381
0.835669
0.83602
0.835931
0.316714
0.32351
0.344708
0.378136
0.419119
0.464178
0.511596
0.561202
0.612875
0.666229
0.718026
0.760406
0.791563
0.815322
0.833498
0.846094
0.852486
0.854453
0.854736
0.85472
0.255304
0.263938
0.28975
0.330213
0.379337
0.43263
0.488139
0.545554
0.604643
0.664936
0.722913
0.770043
0.804532
0.830738
0.850581
0.863927
0.870393
0.872267
0.872656
0.872715
0.204977
0.21432
0.243647
0.289363
0.344643
0.404544
0.466887
0.531183
0.597023
0.663792
0.727593
0.779217
0.816843
0.845293
0.866719
0.880984
0.887788
0.890035
0.890545
0.890644
0.162748
0.172408
0.204152
0.253984
0.31431
0.379703
0.447823
0.5181
0.589991
0.662734
0.732004
0.787859
0.828474
0.859078
0.882087
0.897394
0.904896
0.907458
0.908032
0.90814
0.126174
0.135989
0.169562
0.222699
0.287242
0.357345
0.430509
0.506088
0.583444
0.661677
0.736067
0.795902
0.839299
0.871982
0.896487
0.912796
0.920933
0.923753
0.924396
0.924494
0.093602
0.103493
0.138525
0.19441
0.262541
0.336725
0.414353
0.494712
0.577085
0.660422
0.73964
0.803226
0.849211
0.883727
0.9095
0.926668
0.935456
0.938549
0.939229
0.939308
0.0638146
0.0737675
0.109984
0.168256
0.2395
0.31726
0.398863
0.483576
0.570602
0.65877
0.742557
0.809723
0.858124
0.894284
0.921156
0.938995
0.948232
0.95156
0.952285
0.952351
0.035899
0.0459262
0.0832324
0.143625
0.217611
0.298527
0.383692
0.47238
0.563735
0.656492
0.744702
0.81534
0.866061
0.903722
0.931549
0.949907
0.959406
0.962903
0.96367
0.963719
0.00930973
0.0194513
0.057765
0.120065
0.196482
0.280212
0.368588
0.460909
0.556295
0.653429
0.746002
0.820089
0.873096
0.912209
0.940887
0.959633
0.969254
0.972816
0.973587
0.973605
-0.016358
-0.00604345
0.0332178
0.097258
0.175847
0.2621
0.353379
0.449027
0.548175
0.64949
0.74638
0.823978
0.87931
0.919879
0.949335
0.968328
0.977974
0.981499
0.982242
0.982227
-0.0413686
-0.0308016
0.00936922
0.0750017
0.155546
0.244057
0.337965
0.436657
0.539298
0.644613
0.745786
0.827003
0.884788
0.926889
0.957068
0.976191
0.985787
0.989251
0.989946
0.989904
-0.0657933
-0.0549595
-0.0139138
0.0531855
0.13549
0.226028
0.322301
0.423763
0.529632
0.638747
0.744173
0.829163
0.889611
0.933366
0.964231
0.983404
0.992883
0.996219
0.996829
0.996752
-0.0897335
-0.078617
-0.0367223
0.0317652
0.115648
0.207989
0.306386
0.410352
0.519186
0.631882
0.741484
0.830423
0.893829
0.93942
0.970965
0.9901
0.999347
1.00247
1.00295
1.00283
-0.113199
-0.101792
-0.0590452
0.0107292
0.0960222
0.189965
0.29026
0.396469
0.507991
0.624013
0.737676
0.830723
0.897442
0.945148
0.977426
0.996402
1.00523
1.00801
1.00835
1.00818
-0.136238
-0.124471
-0.0808539
-0.00990545
0.0766403
0.172001
0.273974
0.382179
0.496108
0.615167
0.732714
0.829988
0.900384
0.950614
0.983838
1.00255
1.01066
1.01292
1.01307
1.01289
-0.158609
-0.146596
-0.102123
-0.0301083
0.0575564
0.154177
0.257605
0.367559
0.483614
0.605403
0.726581
0.828131
0.902538
0.955815
0.990468
1.00894
1.01595
1.01732
1.01718
1.01698
-0.180469
-0.168105
-0.122814
-0.0498431
0.0388144
0.136539
0.241249
0.352699
0.470602
0.594804
0.719284
0.82506
0.903738
0.960613
0.997491
1.0162
1.02179
1.02157
1.02075
1.02054
-0.201628
-0.188956
-0.142906
-0.0690523
0.0205027
0.11918
0.224995
0.337723
0.457184
0.583445
0.710862
0.820683
0.903794
0.964725
1.00478
1.02491
1.02956
1.02703
1.02436
1.0237
-0.222179
-0.209166
-0.162333
-0.0876733
0.00266377
0.102173
0.208936
0.322718
0.443471
0.571467
0.701391
0.814898
0.902511
0.967756
1.01173
1.03499
1.04076
1.03688
1.0306
1.0213
-0.242003
-0.228727
-0.181187
-0.105871
-0.0149272
0.0852254
0.192725
0.307268
0.429
0.558348
0.690332
0.807098
0.89941
0.969328
1.01752
1.04541
1.05528
1.0519
1.04139
1.03926
-0.261054
-0.247716
-0.199457
-0.123578
-0.0322442
0.0683696
0.176398
0.291356
0.413742
0.543972
0.677518
0.796825
0.893808
0.968662
1.02009
1.05145
1.06417
1.06476
1.03121
0.992202
-0.279085
-0.265993
-0.21708
-0.140665
-0.0492642
0.0515911
0.159966
0.27512
0.397773
0.528388
0.662892
0.78378
0.884674
0.965034
1.01749
1.0439
1.05659
1.04014
0.988793
0.933645
-0.298837
-0.282272
-0.233722
-0.156633
-0.0657657
0.035144
0.143086
0.258607
0.381188
0.511711
0.646397
0.767765
0.870286
0.958936
1.00823
1.03545
1.016
0.973116
0.909957
0.850951
-0.288652
-0.264493
-0.212549
-0.130789
-0.0341881
0.0701288
0.183368
0.302059
0.427945
0.562653
0.691981
0.801127