/*--------------------------------*- C++ -*----------------------------------*\
  =========                 |
  \\      /  F ield         | OpenFOAM: The Open Source CFD Toolbox
   \\    /   O peration     | Website:  https://openfoam.org
    \\  /    A nd           | Version:  6
     \\/     M anipulation  |
\*---------------------------------------------------------------------------*/
FoamFile
{
    version     2.0;
    format      ascii;
    class       volScalarField;
    location    "87.8";
    object      p;
}
// * * * * * * * * * * * * * * * * * * * * * * * * * * * * * * * * * * * * * //

dimensions      [0 2 -2 0 0 0 0];

internalField   nonuniform List<scalar> 
8800
(
0.857233
0.807918
0.769954
0.741886
0.721727
0.707143
0.696549
0.689014
0.684137
0.682078
0.68346
0.687814
0.694615
0.704046
0.716787
0.734112
0.757992
0.791091
0.83403
0.886544
0.691723
0.698068
0.707219
0.710769
0.708162
0.702076
0.695139
0.688903
0.684108
0.681248
0.681029
0.683669
0.688322
0.694458
0.701565
0.708603
0.713486
0.713364
0.706692
0.697796
0.665231
0.671467
0.675969
0.679842
0.682793
0.683746
0.682662
0.680548
0.678577
0.67775
0.678796
0.681263
0.684161
0.68644
0.686968
0.685186
0.681824
0.677815
0.673037
0.669321
0.66092
0.663686
0.666294
0.668454
0.670195
0.671768
0.672877
0.673238
0.673136
0.673249
0.674072
0.675232
0.675987
0.675848
0.674883
0.673536
0.671873
0.669575
0.667168
0.665601
0.655848
0.657274
0.659116
0.6612
0.662917
0.664215
0.665321
0.666312
0.667135
0.667891
0.668624
0.669105
0.669147
0.668799
0.668143
0.667038
0.66539
0.663502
0.662153
0.66135
0.650838
0.651741
0.652991
0.654622
0.656321
0.657861
0.659155
0.660291
0.661373
0.662415
0.663229
0.663646
0.663679
0.663331
0.662544
0.661369
0.660019
0.658761
0.657944
0.65742
0.645904
0.64656
0.647525
0.648847
0.650302
0.651829
0.653326
0.654708
0.655994
0.65723
0.658217
0.658746
0.658794
0.658383
0.657624
0.656699
0.655722
0.654828
0.654253
0.653868
0.641043
0.641548
0.642337
0.643485
0.644794
0.646224
0.64775
0.649313
0.650854
0.65235
0.653551
0.654205
0.654324
0.654036
0.6535
0.652835
0.652117
0.651468
0.651046
0.650746
0.636199
0.6366
0.637264
0.638294
0.639536
0.640917
0.642443
0.644111
0.645879
0.647675
0.64915
0.650014
0.650341
0.650296
0.650012
0.649575
0.649071
0.648619
0.64831
0.648066
0.631288
0.631616
0.632194
0.633147
0.634348
0.635724
0.637294
0.639075
0.641056
0.643171
0.645003
0.646197
0.646831
0.647069
0.647038
0.646843
0.646544
0.646258
0.646034
0.645828
0.626222
0.626493
0.627012
0.627923
0.629114
0.630526
0.632184
0.634123
0.636357
0.638847
0.641125
0.642743
0.643748
0.644308
0.644555
0.644604
0.644514
0.644378
0.644222
0.644044
0.620906
0.621134
0.621616
0.622515
0.623737
0.625227
0.627018
0.629173
0.631734
0.634689
0.637512
0.639635
0.641076
0.642006
0.642566
0.642867
0.642997
0.643001
0.642903
0.642743
0.615244
0.615439
0.615903
0.61682
0.618113
0.619728
0.621708
0.62415
0.627127
0.630658
0.634141
0.636868
0.638818
0.640174
0.641091
0.641686
0.64204
0.642174
0.642123
0.641976
0.609127
0.609295
0.609759
0.610722
0.612127
0.61392
0.616159
0.618971
0.622469
0.626708
0.630989
0.63444
0.636994
0.638845
0.640173
0.641101
0.641694
0.641959
0.641949
0.641809
0.602429
0.602574
0.603052
0.604091
0.605655
0.607685
0.610262
0.613545
0.617689
0.622792
0.628039
0.632355
0.635627
0.638063
0.639859
0.641165
0.642031
0.642431
0.64246
0.642321
0.595
0.595121
0.595629
0.596774
0.598547
0.600886
0.603892
0.607767
0.61271
0.618866
0.625275
0.630623
0.634743
0.637871
0.640226
0.64197
0.643141
0.643682
0.643744
0.643605
0.586651
0.586755
0.587298
0.588582
0.590624
0.593356
0.596903
0.601513
0.607441
0.614878
0.622683
0.629258
0.63438
0.638321
0.641349
0.643606
0.645118
0.645807
0.6459
0.645755
0.577098
0.577203
0.577814
0.57927
0.581662
0.584891
0.589116
0.594643
0.601784
0.610777
0.62025
0.62828
0.634583
0.639481
0.643298
0.646156
0.648057
0.648901
0.649021
0.648866
0.566048
0.566131
0.566826
0.568536
0.571371
0.575232
0.580314
0.586988
0.595626
0.606508
0.617974
0.62771
0.635397
0.641423
0.646147
0.649717
0.652047
0.653046
0.653186
0.653017
0.553091
0.553163
0.553965
0.555985
0.559385
0.564058
0.570234
0.578355
0.588849
0.602025
0.615854
0.627581
0.636866
0.644199
0.649985
0.654357
0.657148
0.658295
0.658445
0.65826
0.537631
0.537693
0.538648
0.54109
0.545231
0.550965
0.55856
0.568528
0.58134
0.597295
0.613906
0.627929
0.639034
0.647858
0.654848
0.660114
0.663381
0.664654
0.6648
0.664596
0.518852
0.518908
0.520084
0.523117
0.528274
0.535441
0.544919
0.557286
0.573009
0.592323
0.612167
0.62879
0.64194
0.65243
0.660745
0.666984
0.670701
0.672053
0.672175
0.671951
0.495528
0.495591
0.49712
0.501044
0.507661
0.516841
0.528902
0.544437
0.563829
0.587165
0.610709
0.630214
0.645608
0.657917
0.66766
0.674881
0.678964
0.680324
0.6804
0.680158
0.465773
0.465867
0.468005
0.473376
0.482278
0.494428
0.510147
0.529903
0.553882
0.581958
0.609648
0.632272
0.650051
0.664279
0.675522
0.683632
0.687919
0.689188
0.689195
0.688941
0.426364
0.426594
0.429994
0.438037
0.450802
0.467568
0.488516
0.51383
0.543417
0.57693
0.609137
0.63505
0.655287
0.671459
0.684169
0.692959
0.697198
0.698259
0.698185
0.697929
0.371167
0.372325
0.379119
0.392733
0.412264
0.436176
0.464375
0.496706
0.532869
0.572392
0.60936
0.638632
0.661315
0.679366
0.693369
0.702478
0.706338
0.7071
0.70695
0.706703
0.2913
0.299142
0.314786
0.338637
0.368283
0.401763
0.438776
0.479117
0.522512
0.568507
0.610535
0.643383
0.668706
0.688758
0.703769
0.712804
0.716079
0.716534
0.71634
0.716133
0.20625
0.223419
0.24883
0.283675
0.323981
0.367154
0.412966
0.461393
0.512262
0.565205
0.612951
0.649971
0.678435
0.70067
0.716555
0.724854
0.72722
0.727382
0.727216
0.727086
0.133269
0.154274
0.187835
0.232103
0.281854
0.334151
0.38852
0.44487
0.502996
0.562524
0.615506
0.656205
0.687315
0.711264
0.72734
0.734627
0.736308
0.736368
0.736239
0.736143
0.0733993
0.0967404
0.135894
0.186918
0.244034
0.303945
0.365848
0.429439
0.494315
0.559971
0.617753
0.661718
0.695023
0.720153
0.736209
0.742829
0.744189
0.744216
0.744109
0.744023
0.0237286
0.0484651
0.0916611
0.147939
0.210939
0.277093
0.345388
0.415343
0.486331
0.557629
0.619829
0.666745
0.701945
0.728035
0.744002
0.750119
0.751308
0.751338
0.751253
0.751169
-0.0183671
0.00718487
0.0533614
0.113895
0.181841
0.253316
0.327134
0.402709
0.479221
0.555733
0.622046
0.671673
0.708554
0.735391
0.751176
0.756919
0.758033
0.758097
0.758043
0.757959
-0.0549623
-0.0288835
0.0196143
0.0836752
0.155852
0.231978
0.310711
0.391372
0.47298
0.554381
0.624602
0.676774
0.715178
0.742586
0.758179
0.763658
0.764731
0.764848
0.764842
0.764763
-0.087582
-0.0610986
-0.0106988
0.0563741
0.132233
0.212464
0.295643
0.380998
0.467406
0.553495
0.62752
0.682168
0.722027
0.749997
0.765453
0.770728
0.771816
0.771991
0.77204
0.771973
-0.117288
-0.0904446
-0.0384354
0.031275
0.110388
0.194282
0.28151
0.371234
0.462222
0.552898
0.630694
0.687869
0.729229
0.757838
0.773303
0.778518
0.779591
0.779794
0.779883
0.779832
-0.144924
-0.117705
-0.0642602
0.00783283
0.0898442
0.177035
0.267964
0.36178
0.45716
0.552368
0.634019
0.693822
0.736815
0.766219
0.781825
0.787035
0.788068
0.788261
0.788364
0.788329
-0.170921
-0.143355
-0.0885952
-0.0143773
0.0702374
0.160416
0.254745
0.352388
0.452003
0.55173
0.63736
0.699924
0.744666
0.774963
0.79082
0.796064
0.797048
0.797193
0.797277
0.797253
-0.195785
-0.167792
-0.111817
-0.0356641
0.0512997
0.144189
0.24165
0.342875
0.44656
0.550807
0.640566
0.706061
0.752634
0.78387
0.799998
0.80526
0.806174
0.806248
0.806299
0.806296
-0.219681
-0.191259
-0.134142
-0.056238
0.0328412
0.128194
0.228533
0.333104
0.440679
0.54943
0.6435
0.712128
0.760598
0.792736
0.809086
0.81428
0.815111
0.815098
0.815104
0.8151
-0.242786
-0.213906
-0.155731
-0.076234
0.0147519
0.11233
0.215296
0.322969
0.434242
0.547448
0.646015
0.718045
0.768519
0.801421
0.817785
0.822851
0.823549
0.823456
0.823419
0.82341
-0.265225
-0.23586
-0.176673
-0.0957256
-0.0030429
0.0965411
0.201889
0.312415
0.427166
0.544728
0.647969
0.723738
0.776407
0.809948
0.826053
0.830778
0.831316
0.831152
0.831081
0.831067
-0.28709
-0.257188
-0.197009
-0.114749
-0.020557
0.0808053
0.188299
0.301417
0.419399
0.54116
0.649213
0.729127
0.784352
0.81849
0.833958
0.838047
0.838329
0.838117
0.838031
0.838009
-0.308279
-0.277868
-0.216743
-0.133326
-0.0377976
0.0651447
0.174537
0.28999
0.410928
0.536677
0.649595
0.734104
0.792424
0.827351
0.841854
0.844793
0.844585
0.844345
0.844305
0.844284
-0.328792
-0.297891
-0.235892
-0.151446
-0.054742
0.0495834
0.160651
0.278163
0.401772
0.531222
0.648982
0.738506
0.800642
0.83691
0.850373
0.85155
0.850271
0.849891
0.850084
0.850169
-0.3487
-0.317253
-0.254458
-0.1691
-0.0713528
0.0341766
0.1467
0.265999
0.39197
0.524791
0.647233
0.742136
0.808874
0.8474
0.860389
0.85951
0.856211
0.855139
0.855818
0.856539
-0.367881
-0.335938
-0.272406
-0.18624
-0.0875923
0.0189877
0.132755
0.253575
0.381597
0.517419
0.644237
0.744744
0.816838
0.858706
0.872516
0.870415
0.864721
0.861439
0.860993
0.861259
-0.386429
-0.353976
-0.289752
-0.202909
-0.103505
0.00397042
0.118759
0.240832
0.370578
0.509033
0.639824
0.746062
0.824296
0.870489
0.886701
0.885352
0.878255
0.87038
0.86169
0.863707
-0.404277
-0.371432
-0.306637
-0.219304
-0.119383
-0.0111945
0.104316
0.22731
0.358408
0.499063
0.633428
0.745451
0.831014
0.882538
0.90209
0.903395
0.895008
0.880919
0.859989
0.860987
-0.421308
-0.388288
-0.32291
-0.235246
-0.134971
-0.0262184
0.0896078
0.213303
0.345334
0.487669
0.624935
0.741963
0.835789
0.89338
0.914651
0.916575
0.907114
0.877419
0.820706
0.796831
-0.437421
-0.405518
-0.338181
-0.250304
-0.149477
-0.0406156
0.0749165
0.199085
0.331631
0.475003
0.614334
0.734856
0.837127
0.901439
0.91889
0.915394
0.892802
0.836431
0.773905
0.736081
-0.479388
-0.422467
-0.352147
-0.265418
-0.163663
-0.0553766
0.060389
0.184522
0.317073
0.460669
0.601104
0.723281
0.831045
0.901847
0.910732
0.886366
0.828436
0.757385
0.686569
0.647522
-0.45365
-0.435104
-0.373364
-0.285952
-0.185691
-0.0775845
0.0375757
0.161228
0.293181
0.43596
0.575935
0.69766
0.798492
0.876878
0.851112
0.730612
0.632631
0.56458
0.497655
0.520825
-0.483657
-0.451999
-0.389391
-0.302452
-0.202559
-0.0945755
0.0208317
0.143923
0.275017
0.416325
0.554124
0.672713
0.762303
0.806339
0.744082
0.594609
0.478582
0.40033
0.315464
0.356723
-0.506716
-0.472735
-0.408439
-0.321459
-0.221614
-0.113622
0.00171084
0.124076
0.253915
0.393003
0.527128
0.639752
0.717373
0.723163
0.605734
0.442587
0.307559
0.210437
0.112577
0.14006
-0.529046
-0.494078
-0.428474
-0.34087
-0.24096
-0.133081
-0.0182499
0.103185
0.231482
0.367831
0.497039
0.600612
0.660894
0.632854
0.46462
0.281239
0.116767
-0.020558
-0.147315
-0.138621
-0.551041
-0.515743
-0.449285
-0.361131
-0.261111
-0.153466
-0.0393046
0.0810116
0.207414
0.34049
0.463715
0.557932
0.596999
0.520059
0.325379
0.123115
-0.0670783
-0.223473
-0.429686
-0.509523
-0.573391
-0.538201
-0.471268
-0.382745
-0.282607
-0.175176
-0.0616466
0.0574736
0.181787
0.311196
0.427743
0.51249
0.523707
0.395543
0.197963
-0.0153084
-0.210006
-0.37289
-0.496908
-0.612721
-0.597161
-0.561934
-0.494778
-0.406096
-0.305988
-0.198889
-0.0861154
0.0315903
0.153401
0.278453
0.387623
0.459107
0.441417
0.277194
0.0785174
-0.128496
-0.306499
-0.404878
-0.430985
-0.444288
-0.622485
-0.587236
-0.519944
-0.431275
-0.3314
-0.224831
-0.113092
0.00283888
0.121624
0.241452
0.342794
0.395241
0.357594
0.163291
-0.0331122
-0.219837
-0.354437
-0.392818
-0.401512
-0.401843
-0.649647
-0.614233
-0.546809
-0.458269
-0.358793
-0.253015
-0.142611
-0.0288507
0.0863716
0.200183
0.292757
0.327699
0.256289
0.0589089
-0.130901
-0.293239
-0.368897
-0.383026
-0.384065
-0.383926
-0.678654
-0.64296
-0.575396
-0.487084
-0.388192
-0.283444
-0.174693
-0.0635094
0.0476492
0.154762
0.237219
0.256356
0.145827
-0.0360368
-0.215042
-0.343849
-0.373217
-0.373827
-0.37442
-0.374003
-0.709256
-0.673258
-0.605612
-0.517646
-0.419522
-0.316073
-0.209325
-0.101127
0.00550309
0.105315
0.177509
0.17701
0.0481575
-0.122827
-0.280721
-0.355131
-0.370097
-0.368429
-0.368246
-0.367893
-0.7409
-0.70478
-0.637198
-0.549729
-0.452601
-0.350755
-0.246366
-0.14159
-0.0398475
0.0522829
0.114036
0.0971087
-0.0415338
-0.198911
-0.324277
-0.363412
-0.363181
-0.363668
-0.363578
-0.363344
-0.773144
-0.736996
-0.669668
-0.582919
-0.487078
-0.387167
-0.285533
-0.184625
-0.0881051
-0.00339067
0.0455962
0.0217808
-0.122489
-0.259837
-0.349813
-0.358866
-0.360669
-0.360906
-0.360812
-0.360655
-0.805019
-0.769033
-0.702296
-0.616581
-0.5224
-0.424828
-0.326358
-0.229736
-0.138849
-0.0608485
-0.0227689
-0.0536402
-0.191611
-0.306097
-0.358429
-0.36889
-0.362754
-0.360864
-0.360268
-0.359945
-0.834774
-0.79961
-0.734044
-0.649823
-0.557784
-0.463024
-0.368164
-0.276175
-0.191302
-0.119631
-0.0861403
-0.131271
-0.247832
-0.34542
-0.366761
-0.366394
-0.364843
-0.363395
-0.362593
-0.362143
-0.861257
-0.827212
-0.763508
-0.681441
-0.592162
-0.500805
-0.410065
-0.323012
-0.244211
-0.179214
-0.147815
-0.197892
-0.288401
-0.3665
-0.386959
-0.371899
-0.367045
-0.365195
-0.364378
-0.364064
-0.881791
-0.849739
-0.788926
-0.709904
-0.62421
-0.53698
-0.450937
-0.36918
-0.29626
-0.237777
-0.209137
-0.24837
-0.311118
-0.357448
-0.364214
-0.364095
-0.36281
-0.362272
-0.362159
-0.362125
-0.894319
-0.865067
-0.808219
-0.733462
-0.652391
-0.570157
-0.489456
-0.413424
-0.346339
-0.292626
-0.265161
-0.289451
-0.320881
-0.345125
-0.349236
-0.355996
-0.358738
-0.359457
-0.359761
-0.359772
-0.896141
-0.870809
-0.819276
-0.750256
-0.675066
-0.598857
-0.524206
-0.454245
-0.393217
-0.343163
-0.311593
-0.328444
-0.334354
-0.346264
-0.353465
-0.357162
-0.359708
-0.360751
-0.361146
-0.361193
-0.884924
-0.864383
-0.819963
-0.758534
-0.690749
-0.621699
-0.553858
-0.490118
-0.435192
-0.390677
-0.345967
-0.366974
-0.353999
-0.360012
-0.363889
-0.364141
-0.36545
-0.36647
-0.366844
-0.366917
-0.85833
-0.843293
-0.808389
-0.757053
-0.698374
-0.637686
-0.577359
-0.519995
-0.470511
-0.433374
-0.3854
-0.385182
-0.378535
-0.377194
-0.371258
-0.374304
-0.375608
-0.376202
-0.376408
-0.376552
-0.8198
-0.810208
-0.785701
-0.746059
-0.697946
-0.646541
-0.594139
-0.543325
-0.498522
-0.46713
-0.436415
-0.41474
-0.398044
-0.409532
-0.416087
-0.401962
-0.390348
-0.386801
-0.386699
-0.386797
-0.776373
-0.770914
-0.756825
-0.728625
-0.691532
-0.649104
-0.60434
-0.55959
-0.518777
-0.488867
-0.461528
-0.440141
-0.419391
-0.413018
-0.393221
-0.386209
-0.393646
-0.399716
-0.401351
-0.401118
-0.737967
-0.734648
-0.727963
-0.710079
-0.682022
-0.647221
-0.608911
-0.568855
-0.530259
-0.498697
-0.472691
-0.453984
-0.435959
-0.432454
-0.436976
-0.449345
-0.454148
-0.442846
-0.435443
-0.438158
-0.710298
-0.708331
-0.704918
-0.694373
-0.673127
-0.643967
-0.60981
-0.572205
-0.533146
-0.498139
-0.472882
-0.453643
-0.460358
-0.491038
-0.547251
-0.611435
-0.635827
-0.614341
-0.571126
-0.55963
-0.689968
-0.68927
-0.688113
-0.682909
-0.667392
-0.641918
-0.609139
-0.571394
-0.529956
-0.488546
-0.457566
-0.433623
-0.425211
-0.460118
-0.519281
-0.542379
-0.560352
-0.556948
-0.532746
-0.519066
-0.678105
-0.677874
-0.677259
-0.674822
-0.664271
-0.64088
-0.608015
-0.568215
-0.52235
-0.471269
-0.428986
-0.375969
-0.329754
-0.314143
-0.348658
-0.389963
-0.367174
-0.310256
-0.25857
-0.232935
-0.669919
-0.669768
-0.669357
-0.668634
-0.6622
-0.641125
-0.607204
-0.564087
-0.512342
-0.450344
-0.387311
-0.304763
-0.185589
-0.0502696
0.0620098
0.151398
0.250878
0.334619
0.396617
0.4235
-0.664599
-0.664556
-0.664435
-0.664288
-0.660434
-0.642638
-0.607528
-0.560162
-0.503028
-0.430339
-0.346995
-0.249299
-0.070123
0.193415
0.490959
0.765669
0.963376
1.07147
1.11483
1.12605
-0.660218
-0.660267
-0.660304
-0.660333
-0.658961
-0.644713
-0.60931
-0.558547
-0.496565
-0.415413
-0.319685
-0.214779
-0.0110492
0.300811
0.646349
0.969197
1.21871
1.34564
1.38007
1.38405
-0.656256
-0.656345
-0.65633
-0.656146
-0.655781
-0.645707
-0.612348
-0.561306
-0.494709
-0.409127
-0.308769
-0.202704
-0.0223588
0.262496
0.571498
0.856961
1.07066
1.17952
1.21736
1.22658
-0.65386
-0.653777
-0.653265
-0.652171
-0.651685
-0.645449
-0.618404
-0.568511
-0.498191
-0.411387
-0.313827
-0.215544
-0.0631039
0.182063
0.434705
0.654823
0.822884
0.916924
0.957203
0.969759
-0.654364
-0.65426
-0.653891
-0.652872
-0.651064
-0.649243
-0.629846
-0.579054
-0.506551
-0.422147
-0.332027
-0.244534
-0.127828
0.07545
0.287616
0.4643
0.603811
0.690732
0.727771
0.737763
-0.657596
-0.658321
-0.660359
-0.664427
-0.66831
-0.668847
-0.648761
-0.591037
-0.518892
-0.441388
-0.35841
-0.282652
-0.196813
-0.0365117
0.138742
0.282623
0.39557
0.468164
0.49701
0.503226
-0.661248
-0.662985
-0.668305
-0.680846
-0.698801
-0.703698
-0.668589
-0.601801
-0.535708
-0.466253
-0.387147
-0.321454
-0.25845
-0.132419
0.00580177
0.115901
0.201587
0.254836
0.275086
0.278306
-0.671123
-0.672507
-0.676483
-0.682824
-0.69257
-0.695165
-0.659212
-0.604768
-0.556276
-0.491066
-0.416282
-0.359274
-0.311696
-0.216959
-0.110436
-0.0287335
0.033096
0.0698867
0.0824945
0.0840172
-0.692552
-0.693334
-0.69353
-0.675641
-0.633146
-0.605137
-0.60441
-0.600998
-0.575652
-0.511802
-0.443776
-0.393067
-0.352993
-0.281295
-0.202982
-0.145125
-0.102764
-0.0788197
-0.0704818
-0.0695531
-0.717386
-0.716827
-0.712637
-0.679692
-0.60663
-0.551091
-0.57562
-0.616551
-0.596346
-0.531574
-0.468173
-0.424047
-0.388832
-0.332979
-0.274226
-0.233578
-0.205417
-0.190819
-0.185827
-0.185733
-0.755753
-0.752664
-0.756513
-0.75772
-0.745956
-0.712429
-0.704862
-0.696298
-0.638244
-0.553569
-0.491639
-0.450194
-0.416329
-0.372337
-0.328235
-0.297841
-0.277991
-0.267709
-0.264229
-0.264195
-0.860282
-0.867928
-0.907398
-0.960933
-0.987535
-0.96916
-0.915221
-0.822578
-0.695266
-0.579724
-0.514259
-0.466512
-0.436535
-0.398941
-0.360137
-0.334503
-0.318757
-0.311146
-0.308266
-0.308253
-0.999156
-1.0181
-1.06606
-1.1153
-1.14035
-1.1233
-1.05177
-0.905631
-0.727046
-0.59946
-0.524221
-0.470662
-0.445763
-0.411918
-0.375091
-0.350457
-0.334937
-0.326438
-0.323345
-0.323533
-1.05502
-1.07238
-1.10553
-1.13968
-1.16064
-1.14543
-1.06574
-0.886251
-0.708889
-0.594066
-0.506148
-0.462147
-0.441873
-0.405338
-0.369901
-0.346853
-0.330762
-0.321996
-0.319224
-0.319698
-0.973997
-0.987662
-1.01207
-1.0393
-1.05769
-1.04543
-0.969472
-0.797276
-0.654683
-0.54538
-0.467242
-0.437513
-0.418129
-0.384201
-0.352257
-0.330249
-0.31458
-0.306522
-0.304155
-0.30479
-0.772072
-0.785257
-0.810667
-0.841771
-0.865571
-0.859633
-0.786045
-0.668104
-0.561997
-0.466895
-0.419844
-0.391005
-0.374208
-0.347453
-0.320751
-0.302329
-0.28935
-0.282944
-0.28117
-0.281822
-0.485784
-0.498346
-0.524349
-0.559762
-0.591087
-0.595996
-0.556359
-0.496772
-0.43277
-0.386128
-0.35534
-0.329628
-0.32068
-0.298211
-0.27795
-0.264588
-0.255225
-0.250538
-0.249382
-0.250029
-0.19446
-0.203358
-0.223635
-0.256066
-0.292764
-0.318298
-0.326864
-0.323262
-0.310633
-0.29746
-0.276943
-0.265664
-0.257632
-0.240908
-0.228184
-0.219682
-0.212898
-0.209506
-0.208862
-0.209588
0.0117134
0.00637018
-0.00805087
-0.0352039
-0.075633
-0.123383
-0.16624
-0.194118
-0.208565
-0.210817
-0.207899
-0.200123
-0.194203
-0.184224
-0.178507
-0.172793
-0.167011
-0.164217
-0.163969
-0.164785
0.106084
0.102544
0.0917908
0.0687056
0.0319032
-0.0148188
-0.0644755
-0.105533
-0.13144
-0.144223
-0.146703
-0.139894
-0.139097
-0.135136
-0.131003
-0.126545
-0.122147
-0.120064
-0.120129
-0.120966
0.117412
0.114964
0.107028
0.0898021
0.0606976
0.0225929
-0.0160954
-0.0504735
-0.0752457
-0.0880265
-0.0930696
-0.0922243
-0.0941228
-0.0911129
-0.0885693
-0.0852021
-0.08205
-0.0808516
-0.0811953
-0.0820075
0.0813787
0.0798741
0.0750889
0.0646238
0.0473828
0.0248884
0.000309933
-0.0211216
-0.034805
-0.0435767
-0.04909
-0.0510401
-0.0539624
-0.051234
-0.0490107
-0.0473459
-0.0466603
-0.0468989
-0.0474011
-0.0480253
0.0203432
0.0202717
0.0203356
0.0186916
0.0148842
0.00945214
0.00394386
-0.00125724
-0.0059362
-0.00848815
-0.00961985
-0.0108857
-0.00930824
-0.0102545
-0.0115204
-0.0123901
-0.0145465
-0.0158249
-0.0138575
-0.0126041
-0.0106874
0.175619
0.346269
0.490239
0.604594
0.693925
0.767612
0.827341
0.842031
0.838849
0.273439
0.392629
0.504098
0.600313
0.680813
0.746892
0.798799
0.833875
0.852705
0.869517
0.465574
0.544782
0.622992
0.691448
0.74961
0.797742
0.835681
0.864733
0.886666
0.905934
0.607755
0.664017
0.720613
0.771324
0.815057
0.852275
0.883568
0.909881
0.929904
0.948806
0.722551
0.764903
0.806913
0.846264
0.881448
0.912602
0.939885
0.963052
0.980861
0.998934
0.818157
0.853288
0.887884
0.921059
0.95167
0.979422
1.00397
1.02462
1.04027
1.05775
0.905532
0.937151
0.969028
0.999879
1.02859
1.05471
1.07764
1.09643
1.11026
1.12726
0.991853
1.02422
1.05641
1.08742
1.11602
1.14166
1.16367
1.1811
1.19341
1.20992
1.08587
1.12222
1.15687
1.18921
1.21827
1.24351
1.26454
1.28075
1.29231
1.30844
1.19879
1.23949
1.27639
1.30919
1.33757
1.36148
1.38104
1.39626
1.40812
1.42419
1.34023
1.38116
1.41635
1.44583
1.47097
1.49253
1.511
1.52645
1.53955
1.55548
1.51161
1.5437
1.57063
1.59296
1.61303
1.63172
1.64944
1.6662
1.6811
1.69682
1.69774
1.71496
1.73206
1.74873
1.76482
1.77955
1.79345
1.80792
1.82315
1.84044
1.88113
1.89106
1.90423
1.91521
1.92461
1.93427
1.94487
1.95504
1.96433
1.98999
2.09895
2.09325
2.0803
2.06605
2.05974
2.06545
2.08359
2.11211
2.14587
2.18219
2.40177
2.26583
2.18631
2.14377
2.12644
2.13043
2.15785
2.21572
2.32338
2.50178
0.760925
0.754623
0.746895
0.735784
0.722217
0.709576
0.69919
0.691194
0.6855
0.682203
0.681897
0.684774
0.690043
0.697427
0.706996
0.71884
0.732411
0.745348
0.754342
0.761885
0.669982
0.675902
0.683977
0.690114
0.693188
0.692685
0.689611
0.685634
0.682071
0.679823
0.679737
0.682039
0.685833
0.690309
0.694432
0.696693
0.695631
0.691003
0.683953
0.676122
0.663212
0.665585
0.668856
0.671634
0.674092
0.676291
0.677485
0.677358
0.67645
0.675685
0.675954
0.677425
0.679252
0.680515
0.680466
0.679019
0.676875
0.674524
0.671549
0.668534
0.658395
0.659484
0.661404
0.663749
0.66563
0.667041
0.668276
0.669293
0.669927
0.670354
0.670973
0.671781
0.672301
0.672224
0.671627
0.670729
0.669415
0.667459
0.665361
0.663886
0.653335
0.653969
0.655101
0.656867
0.658723
0.660331
0.661603
0.662696
0.663718
0.664675
0.665537
0.666136
0.666338
0.66618
0.665682
0.664737
0.663332
0.661739
0.660412
0.659613
0.648363
0.648802
0.649595
0.650909
0.652445
0.654027
0.655531
0.656861
0.658064
0.659221
0.660265
0.660962
0.661218
0.661043
0.660427
0.659464
0.658339
0.657216
0.656325
0.655794
0.64347
0.643797
0.644414
0.645495
0.646808
0.648231
0.64974
0.651256
0.652705
0.65409
0.655347
0.656207
0.656528
0.656359
0.655821
0.655084
0.654273
0.653445
0.652798
0.652409
0.638627
0.63888
0.639379
0.640304
0.641498
0.642834
0.644293
0.64587
0.647518
0.649178
0.650707
0.651765
0.652224
0.652219
0.651911
0.651423
0.650834
0.65024
0.649776
0.649479
0.633761
0.633962
0.634378
0.635196
0.636316
0.637611
0.639064
0.640696
0.6425
0.644427
0.646277
0.647628
0.648352
0.648614
0.648565
0.648319
0.647948
0.647554
0.647233
0.647
0.628784
0.628946
0.629304
0.630051
0.63113
0.632414
0.633906
0.635636
0.637616
0.639826
0.64206
0.643811
0.644895
0.645477
0.645709
0.645713
0.645571
0.645362
0.645159
0.644974
0.623605
0.623735
0.624052
0.624758
0.625826
0.627144
0.628716
0.63059
0.632804
0.635363
0.638063
0.640307
0.641825
0.64278
0.64333
0.643606
0.643694
0.643667
0.643567
0.643417
0.618129
0.618234
0.618524
0.619213
0.620306
0.621702
0.6234
0.625475
0.627995
0.630995
0.634268
0.637105
0.639134
0.640521
0.641434
0.642008
0.64235
0.642503
0.642493
0.64237
0.612254
0.612337
0.612611
0.61331
0.614464
0.615979
0.617859
0.620206
0.623119
0.626667
0.630641
0.634191
0.636827
0.638717
0.640048
0.640978
0.64159
0.641922
0.641993
0.641891
0.605864
0.605926
0.606195
0.606925
0.608177
0.60986
0.611988
0.614689
0.618096
0.622322
0.627148
0.631556
0.634916
0.637402
0.639214
0.640541
0.641462
0.641988
0.642139
0.642052
0.598818
0.598862
0.599134
0.599918
0.601307
0.603214
0.605665
0.608815
0.612841
0.617898
0.623757
0.629195
0.633416
0.636608
0.638989
0.640771
0.642048
0.642787
0.643014
0.64294
0.590963
0.590981
0.591256
0.592118
0.593687
0.595883
0.598745
0.60246
0.607253
0.613331
0.620439
0.62711
0.632351
0.636373
0.639433
0.641763
0.643443
0.64441
0.644715
0.644648
0.582033
0.582045
0.582345
0.58331
0.585111
0.587674
0.591054
0.595476
0.60122
0.608545
0.617161
0.6253
0.631751
0.636751
0.640608
0.643592
0.645736
0.646955
0.647336
0.647273
0.571764
0.571749
0.572093
0.57321
0.575314
0.578345
0.582378
0.587687
0.59461
0.603463
0.613895
0.623775
0.631648
0.637801
0.642598
0.646338
0.649022
0.650512
0.650966
0.650902
0.559808
0.559773
0.560166
0.561471
0.563953
0.567586
0.572453
0.578882
0.587275
0.598
0.610616
0.622549
0.632079
0.639576
0.645476
0.650089
0.653381
0.655156
0.655675
0.655604
0.545659
0.545601
0.546075
0.547633
0.550601
0.555011
0.560953
0.568812
0.579054
0.59208
0.607309
0.621645
0.633084
0.642119
0.6493
0.654906
0.658865
0.660923
0.661491
0.661406
0.52861
0.528531
0.529134
0.531047
0.534669
0.540114
0.547475
0.557193
0.569785
0.585648
0.603984
0.621096
0.634703
0.645479
0.654086
0.660809
0.665477
0.667791
0.668381
0.668274
0.507669
0.507574
0.508383
0.510813
0.515355
0.522236
0.53153
0.543724
0.559338
0.578693
0.600689
0.620949
0.636977
0.649679
0.659844
0.667785
0.67315
0.675652
0.676225
0.676089
0.481306
0.481211
0.482369
0.485606
0.491547
0.500524
0.51257
0.528141
0.547661
0.571285
0.597523
0.621285
0.639938
0.654716
0.666561
0.675749
0.681715
0.684292
0.684796
0.684626
0.447056
0.447014
0.4488
0.453425
0.46172
0.474007
0.490112
0.510332
0.534861
0.563607
0.594648
0.622211
0.643634
0.660579
0.674147
0.68453
0.690892
0.693374
0.693756
0.693552
0.400534
0.400716
0.403891
0.411442
0.424133
0.441869
0.464015
0.490525
0.521284
0.555977
0.592289
0.623856
0.648118
0.667229
0.682491
0.693871
0.70028
0.702455
0.702674
0.702447
0.333536
0.334976
0.342714
0.357024
0.377824
0.404246
0.43492
0.469426
0.50752
0.548814
0.590693
0.626325
0.653402
0.674589
0.691311
0.70329
0.709318
0.710981
0.711035
0.710813
0.253561
0.256376
0.271444
0.296165
0.328082
0.364759
0.404641
0.447548
0.493358
0.541764
0.589893
0.630336
0.66091
0.684692
0.702987
0.715123
0.720489
0.721717
0.721711
0.721578
0.171667
0.17901
0.201653
0.236768
0.27943
0.32613
0.37521
0.426552
0.480097
0.535587
0.589914
0.635067
0.668985
0.695285
0.715035
0.726837
0.73107
0.73173
0.731672
0.731593
0.10469
0.114078
0.141535
0.184
0.235075
0.29025
0.347603
0.40683
0.46772
0.529909
0.589989
0.639373
0.676172
0.704414
0.724896
0.736151
0.739705
0.740198
0.740149
0.740094
0.0497834
0.0599153
0.091036
0.138944
0.196353
0.258281
0.322561
0.388687
0.45622
0.524589
0.589975
0.643211
0.682532
0.712339
0.733321
0.744146
0.747275
0.747678
0.747647
0.747609
0.00382413
0.0142908
0.0479152
0.100058
0.16264
0.230162
0.300277
0.372369
0.445811
0.519818
0.590111
0.646891
0.688471
0.719617
0.740933
0.751353
0.754213
0.754595
0.754594
0.754572
-0.0356534
-0.0250481
0.0104383
0.0659674
0.132865
0.205188
0.280393
0.357762
0.43654
0.515737
0.590634
0.650723
0.694377
0.726658
0.748137
0.758205
0.760905
0.761302
0.76135
0.761354
-0.0703633
-0.0597205
-0.0227836
0.0355478
0.106122
0.182621
0.262352
0.344508
0.428221
0.512298
0.591592
0.654868
0.700471
0.733774
0.755376
0.765178
0.767737
0.768168
0.768294
0.768341
-0.101584
-0.0909329
-0.0528414
0.00790096
0.0816773
0.161858
0.245649
0.332204
0.420538
0.509309
0.592889
0.659328
0.70686
0.7412
0.762997
0.772619
0.775143
0.775622
0.775799
0.775886
-0.130336
-0.119657
-0.0805488
-0.0176689
0.0589619
0.142416
0.229873
0.320487
0.413195
0.506513
0.594375
0.66402
0.713594
0.749076
0.771219
0.780808
0.7833
0.783776
0.783973
0.784093
-0.157205
-0.146482
-0.106457
-0.0416569
0.0375122
0.123909
0.214704
0.309073
0.405926
0.503687
0.59588
0.668863
0.72059
0.757341
0.779961
0.789642
0.79211
0.792534
0.792717
0.79285
-0.182677
-0.171889
-0.131003
-0.0644574
0.0169923
0.106046
0.199892
0.29774
0.398527
0.500646
0.59724
0.673729
0.727735
0.765842
0.789016
0.798811
0.801265
0.80161
0.801744
0.80186
-0.207132
-0.196189
-0.154495
-0.0863422
-0.00283432
0.0886141
0.185251
0.286329
0.390829
0.497211
0.598301
0.67849
0.734907
0.774385
0.798123
0.807992
0.810395
0.81065
0.810713
0.810804
-0.230704
-0.219579
-0.177112
-0.107497
-0.0221339
0.071484
0.170659
0.274717
0.382711
0.493225
0.598901
0.683034
0.742031
0.782872
0.807055
0.816887
0.81918
0.819332
0.819319
0.819379
-0.253582
-0.242223
-0.199014
-0.128029
-0.0410004
0.0545653
0.156039
0.262826
0.374084
0.488576
0.598886
0.687245
0.749072
0.791256
0.815642
0.82527
0.827367
0.827413
0.827337
0.827368
-0.275767
-0.264193
-0.220265
-0.147999
-0.0594799
0.0378217
0.141365
0.250627
0.364898
0.483167
0.598116
0.690997
0.756018
0.79965
0.823992
0.833073
0.834844
0.834777
0.834657
0.834665
-0.297348
-0.285532
-0.240864
-0.167428
-0.0775938
0.0212436
0.126631
0.238123
0.355139
0.476941
0.596462
0.694155
0.762863
0.808228
0.832322
0.840441
0.8416
0.84138
0.841255
0.841258
-0.318211
-0.306212
-0.26082
-0.186333
-0.0953335
0.00486637
0.111863
0.225336
0.344821
0.469881
0.593813
0.696564
0.769542
0.817202
0.841114
0.847771
0.847782
0.847236
0.847192
0.84727
-0.338482
-0.326231
-0.280136
-0.204719
-0.112695
-0.0113
0.097121
0.21231
0.333985
0.462003
0.590092
0.698047
0.775911
0.826683
0.850943
0.855954
0.854052
0.852558
0.852651
0.853118
-0.358028
-0.345543
-0.298818
-0.222558
-0.129617
-0.0271929
0.0824636
0.199136
0.322698
0.453326
0.585253
0.698417
0.781738
0.836559
0.862229
0.866236
0.862055
0.858568
0.858263
0.859513
-0.376964
-0.364211
-0.316828
-0.239809
-0.146081
-0.0427622
0.06796
0.185872
0.311039
0.443941
0.579291
0.697466
0.786716
0.84645
0.874797
0.879425
0.874009
0.867787
0.863146
0.856498
-0.395184
-0.382233
-0.334256
-0.25664
-0.16231
-0.0582805
0.0532908
0.17214
0.298603
0.433409
0.571792
0.694775
0.790665
0.856412
0.888572
0.895754
0.890993
0.881681
0.869195
0.868916
-0.412656
-0.399693
-0.351115
-0.273005
-0.178298
-0.073719
0.0384753
0.157909
0.285334
0.421572
0.562504
0.689724
0.792645
0.865589
0.901737
0.911784
0.907613
0.897622
0.861966
0.824142
-0.429193
-0.416448
-0.36737
-0.288785
-0.194052
-0.0890915
0.0235007
0.143295
0.271276
0.408424