/*--------------------------------*- C++ -*----------------------------------*\
  =========                 |
  \\      /  F ield         | OpenFOAM: The Open Source CFD Toolbox
   \\    /   O peration     | Website:  https://openfoam.org
    \\  /    A nd           | Version:  6
     \\/     M anipulation  |
\*---------------------------------------------------------------------------*/
FoamFile
{
    version     2.0;
    format      ascii;
    class       volVectorField;
    location    "29";
    object      U;
}
// * * * * * * * * * * * * * * * * * * * * * * * * * * * * * * * * * * * * * //

dimensions      [0 1 -1 0 0 0 0];

internalField   nonuniform List<vector> 
2200
(
(0.877535 -0.0201758 0)
(1.00461 -0.040009 0)
(1.00264 -0.0343245 0)
(1.00023 -0.0233035 0)
(1.00002 -0.0156336 0)
(1.00015 -0.0102718 0)
(1.00008 -0.00655994 0)
(1.00002 -0.00394955 0)
(1.00004 -0.00203837 0)
(1.0001 -0.000654079 0)
(1.00003 0.000788639 0)
(1.00015 0.00226094 0)
(1.00011 0.00412441 0)
(1.00007 0.00677855 0)
(1.00011 0.010442 0)
(0.999996 0.0157391 0)
(1.00026 0.0233811 0)
(1.00276 0.0343379 0)
(1.00462 0.0400374 0)
(0.877554 0.0201903 0)
(0.700966 -0.0265863 0)
(0.993651 -0.058549 0)
(1.02979 -0.0595551 0)
(1.02168 -0.0485934 0)
(1.01362 -0.0359298 0)
(1.00811 -0.0251124 0)
(1.00505 -0.016894 0)
(1.00334 -0.0108433 0)
(1.00233 -0.00605558 0)
(1.00176 -0.00161757 0)
(1.0018 0.00255299 0)
(1.00216 0.00685217 0)
(1.00322 0.0115168 0)
(1.00495 0.0173314 0)
(1.00801 0.0255781 0)
(1.0135 0.0363402 0)
(1.02148 0.0489449 0)
(1.02948 0.0598953 0)
(0.993533 0.0586686 0)
(0.700719 0.0266294 0)
(0.530558 -0.0213742 0)
(0.966386 -0.0552833 0)
(1.05283 -0.0606623 0)
(1.0484 -0.053454 0)
(1.0321 -0.0416972 0)
(1.02109 -0.0314419 0)
(1.01367 -0.0224158 0)
(1.00899 -0.0151649 0)
(1.00608 -0.00882898 0)
(1.00466 -0.00262995 0)
(1.00457 0.00367059 0)
(1.00592 0.00983772 0)
(1.00871 0.0161791 0)
(1.01345 0.0234537 0)
(1.02082 0.0322628 0)
(1.0318 0.0423775 0)
(1.04815 0.0539599 0)
(1.05267 0.0608806 0)
(0.965785 0.0555586 0)
(0.529699 0.0214551 0)
(0.393415 -0.0132558 0)
(0.910075 -0.045271 0)
(1.05608 -0.0512664 0)
(1.06688 -0.0471421 0)
(1.05132 -0.0387977 0)
(1.03563 -0.031053 0)
(1.02464 -0.0242478 0)
(1.01716 -0.0172128 0)
(1.01245 -0.0101131 0)
(1.0104 -0.00288322 0)
(1.01038 0.00471769 0)
(1.01235 0.0119099 0)
(1.01683 0.0188813 0)
(1.02403 0.0256311 0)
(1.03493 0.0322458 0)
(1.05075 0.0398681 0)
(1.06618 0.0479389 0)
(1.05494 0.0517764 0)
(0.908577 0.0456008 0)
(0.391663 0.0133585 0)
(0.309806 -0.00618153 0)
(0.846929 -0.0328848 0)
(1.04842 -0.0425667 0)
(1.0773 -0.0388363 0)
(1.06552 -0.0330729 0)
(1.04875 -0.0273971 0)
(1.03551 -0.0222481 0)
(1.02575 -0.0165826 0)
(1.01921 -0.0104599 0)
(1.01605 -0.00298268 0)
(1.01575 0.00558056 0)
(1.0185 0.0128453 0)
(1.02484 0.0187258 0)
(1.03465 0.0241925 0)
(1.0479 0.0291093 0)
(1.06429 0.0344064 0)
(1.07584 0.0398728 0)
(1.04659 0.0433537 0)
(0.844215 0.0332825 0)
(0.307131 0.0063133 0)
(0.266154 -0.00183607 0)
(0.789772 -0.0218681 0)
(1.03243 -0.0335948 0)
(1.08152 -0.0319185 0)
(1.07499 -0.0274882 0)
(1.05874 -0.0227097 0)
(1.04547 -0.0185188 0)
(1.03517 -0.014001 0)
(1.02779 -0.00895774 0)
(1.02287 -0.0023505 0)
(1.02263 0.00553114 0)
(1.0271 0.0120245 0)
(1.03419 0.0168002 0)
(1.04409 0.021014 0)
(1.05699 0.0247646 0)
(1.07335 0.0292818 0)
(1.07968 0.0333122 0)
(1.02982 0.0346404 0)
(0.785617 0.0223577 0)
(0.262559 0.00198422 0)
(0.241817 -0.000313833 0)
(0.739422 -0.0139355 0)
(1.01336 -0.0267208 0)
(1.08237 -0.0264246 0)
(1.08097 -0.0228177 0)
(1.06612 -0.0186898 0)
(1.05359 -0.015817 0)
(1.04399 -0.0123405 0)
(1.03698 -0.00722982 0)
(1.03111 -0.00107302 0)
(1.03074 0.0052023 0)
(1.0358 0.0111493 0)
(1.04223 0.0159771 0)
(1.05152 0.0189215 0)
(1.06393 0.0214401 0)
(1.0785 0.0252114 0)
(1.07926 0.0283444 0)
(1.00865 0.0280026 0)
(0.73291 0.0145288 0)
(0.237037 0.000520231 0)
(0.227034 -6.93338e-05 0)
(0.696686 -0.0091194 0)
(0.992577 -0.0216139 0)
(1.08097 -0.0226317 0)
(1.08553 -0.0194918 0)
(1.07233 -0.0159098 0)
(1.05989 -0.0135484 0)
(1.05005 -0.0105108 0)
(1.04231 -0.00515837 0)
(1.03654 0.000448095 0)
(1.03589 0.00493579 0)
(1.0407 0.0102485 0)
(1.04766 0.0149322 0)
(1.05717 0.0175129 0)
(1.0695 0.0193306 0)
(1.08206 0.0221671 0)
(1.07679 0.0246965 0)
(0.986546 0.0230085 0)
(0.688224 0.00983286 0)
(0.221063 0.000321673 0)
(0.217569 7.75109e-05 0)
(0.66268 -0.00635271 0)
(0.973055 -0.0179476 0)
(1.07856 -0.0200177 0)
(1.08917 -0.0176728 0)
(1.07773 -0.0144299 0)
(1.06518 -0.0117523 0)
(1.05538 -0.00822281 0)
(1.04737 -0.00306235 0)
(1.0427 0.00177635 0)
(1.04195 0.00505392 0)
(1.04546 0.00940173 0)
(1.05273 0.0139251 0)
(1.06166 0.0167417 0)
(1.07341 0.0187678 0)
(1.08443 0.0214819 0)
(1.0725 0.0229321 0)
(0.963871 0.0198521 0)
(0.650714 0.0073409 0)
(0.209816 0.000234263 0)
(0.210449 0.000302562 0)
(0.634422 -0.00440947 0)
(0.953807 -0.015436 0)
(1.07479 -0.0185729 0)
(1.09148 -0.0167546 0)
(1.08118 -0.0136357 0)
(1.06858 -0.0101823 0)
(1.05907 -0.00635828 0)
(1.05172 -0.00176323 0)
(1.0482 0.00254516 0)
(1.04733 0.00609801 0)
(1.04914 0.00989649 0)
(1.05518 0.013756 0)
(1.06372 0.0165948 0)
(1.07604 0.0190641 0)
(1.08519 0.0209097 0)
(1.06675 0.0219562 0)
(0.941973 0.0177138 0)
(0.619248 0.0055967 0)
(0.200825 6.91613e-05 0)
(0.205167 0.000434407 0)
(0.612343 -0.00249839 0)
(0.937188 -0.0125403 0)
(1.07121 -0.0159919 0)
(1.09304 -0.0143726 0)
(1.08344 -0.0117086 0)
(1.07063 -0.00876513 0)
(1.06103 -0.00524326 0)
(1.05371 -0.00105406 0)
(1.04959 0.00302729 0)
(1.04833 0.00714397 0)
(1.05017 0.0107836 0)
(1.05585 0.0140279 0)
(1.06462 0.016464 0)
(1.07676 0.018159 0)
(1.08499 0.0198873 0)
(1.06042 0.020358 0)
(0.920899 0.0155141 0)
(0.59225 0.00395879 0)
(0.192848 4.71775e-05 0)
(0.201567 0.000412349 0)
(0.596154 -0.000836826 0)
(0.922637 -0.00919674 0)
(1.06793 -0.0122315 0)
(1.09529 -0.0104306 0)
(1.08676 -0.00826638 0)
(1.07345 -0.00635912 0)
(1.0629 -0.00325161 0)
(1.055 0.00054718 0)
(1.05015 0.00451957 0)
(1.04867 0.00874576 0)
(1.05107 0.0119102 0)
(1.05704 0.0144253 0)
(1.06596 0.0161473 0)
(1.0781 0.0167876 0)
(1.08468 0.0174606 0)
(1.05348 0.0174797 0)
(0.901599 0.012634 0)
(0.570974 0.00270181 0)
(0.186162 0.000208678 0)
(0.200051 0.000355046 0)
(0.586224 0.000304392 0)
(0.911737 -0.00547868 0)
(1.06603 -0.00775282 0)
(1.09827 -0.00601238 0)
(1.09137 -0.00444474 0)
(1.07806 -0.00296445 0)
(1.06672 -0.000226221 0)
(1.05814 0.00272646 0)
(1.05231 0.00602562 0)
(1.0505 0.00971591 0)
(1.05322 0.0121817 0)
(1.05924 0.0137667 0)
(1.06884 0.0148858 0)
(1.08054 0.0150658 0)
(1.08484 0.0151316 0)
(1.04758 0.0147634 0)
(0.884645 0.0099242 0)
(0.554741 0.00206311 0)
(0.180556 0.000365352 0)
(0.200273 0.000300131 0)
(0.582508 0.00114279 0)
(0.904091 -0.00243112 0)
(1.06438 -0.0046069 0)
(1.1014 -0.00301763 0)
(1.09585 -0.00121664 0)
(1.08296 0.000685925 0)
(1.07178 0.00351238 0)
(1.0632 0.00592498 0)
(1.0566 0.00851705 0)
(1.05401 0.0112595 0)
(1.05601 0.0128332 0)
(1.06134 0.0138573 0)
(1.06967 0.0149686 0)
(1.08048 0.0144689 0)
(1.08312 0.0138287 0)
(1.03943 0.0126533 0)
(0.868181 0.00788113 0)
(0.542179 0.00191172 0)
(0.175855 0.000444521 0)
(0.201884 0.00040811 0)
(0.582587 0.0015629 0)
(0.898319 -0.000263126 0)
(1.06353 -0.00155187 0)
(1.10386 -0.000323426 0)
(1.09913 0.00131847 0)
(1.08647 0.00360006 0)
(1.07583 0.0063476 0)
(1.06752 0.0086743 0)
(1.06062 0.011204 0)
(1.05728 0.0135443 0)
(1.05788 0.0147738 0)
(1.06183 0.0152031 0)
(1.06927 0.0153525 0)
(1.07973 0.0145629 0)
(1.08097 0.0135868 0)
(1.0322 0.0118726 0)
(0.854648 0.00697279 0)
(0.531973 0.00201148 0)
(0.171501 0.000493694 0)
(0.204564 0.000685485 0)
(0.584502 0.0020352 0)
(0.897214 0.00239018 0)
(1.06277 0.000921854 0)
(1.10606 0.00216709 0)
(1.10172 0.00424747 0)
(1.08869 0.00658123 0)
(1.0779 0.00905314 0)
(1.0691 0.0115789 0)
(1.06199 0.0144292 0)
(1.0581 0.0166894 0)
(1.05787 0.0177228 0)
(1.06106 0.0174518 0)
(1.06831 0.0165994 0)
(1.07802 0.0154704 0)
(1.07659 0.0139646 0)
(1.02204 0.0112786 0)
(0.84012 0.00629769 0)
(0.521794 0.00221272 0)
(0.166955 0.000596022 0)
(0.20988 0.000997019 0)
(0.590738 0.00303351 0)
(0.89945 0.00421773 0)
(1.06416 0.00481825 0)
(1.10836 0.00635613 0)
(1.10467 0.00803618 0)
(1.09131 0.0103605 0)
(1.07975 0.0127688 0)
(1.06985 0.0153483 0)
(1.06183 0.0181009 0)
(1.0569 0.0201003 0)
(1.05597 0.0207704 0)
(1.05889 0.0199152 0)
(1.06578 0.0182819 0)
(1.07477 0.0166027 0)
(1.07195 0.0143282 0)
(1.01421 0.0110453 0)
(0.829502 0.00639125 0)
(0.512936 0.00258824 0)
(0.162345 0.000719533 0)
(0.215417 0.00116493 0)
(0.59841 0.00379321 0)
(0.904181 0.00612365 0)
(1.06718 0.00765224 0)
(1.11195 0.00980625 0)
(1.10868 0.0123571 0)
(1.09537 0.015302 0)
(1.08334 0.0179593 0)
(1.07273 0.02057 0)
(1.06363 0.0230561 0)
(1.05731 0.0245127 0)
(1.05486 0.0243879 0)
(1.05679 0.0229901 0)
(1.06288 0.0209388 0)
(1.07063 0.0185819 0)
(1.06542 0.0156028 0)
(1.00277 0.0116196 0)
(0.814722 0.00679512 0)
(0.501428 0.00310272 0)
(0.156726 0.000887761 0)
(0.224344 0.00145061 0)
(0.612761 0.00496372 0)
(0.914295 0.00845543 0)
(1.07296 0.0111438 0)
(1.11682 0.0138112 0)
(1.1141 0.0166608 0)
(1.1009 0.0198157 0)
(1.08842 0.0231946 0)
(1.07703 0.0263442 0)
(1.06651 0.0290223 0)
(1.05789 0.0302392 0)
(1.05364 0.0298443 0)
(1.05421 0.0277276 0)
(1.05931 0.0248101 0)
(1.06568 0.021532 0)
(1.05894 0.017543 0)
(0.993859 0.0129994 0)
(0.804172 0.00811669 0)
(0.491127 0.00386637 0)
(0.150842 0.00107006 0)
(0.233617 0.00176829 0)
(0.626792 0.00562701 0)
(0.925626 0.0101893 0)
(1.08077 0.0138149 0)
(1.12354 0.0173359 0)
(1.12034 0.0211388 0)
(1.1066 0.0254934 0)
(1.09326 0.0297377 0)
(1.08074 0.0336636 0)
(1.0687 0.0368147 0)
(1.05819 0.0380548 0)
(1.05217 0.0369964 0)
(1.05083 0.0341946 0)
(1.05462 0.0303086 0)
(1.05919 0.0266328 0)
(1.04988 0.0217454 0)
(0.979278 0.0160615 0)
(0.785172 0.00984709 0)
(0.474554 0.00476635 0)
(0.142546 0.0013181 0)
(0.247037 0.00240389 0)
(0.64737 0.00775711 0)
(0.941736 0.0133407 0)
(1.09036 0.0182081 0)
(1.13061 0.0223626 0)
(1.12742 0.027221 0)
(1.11321 0.0321345 0)
(1.09867 0.0372705 0)
(1.08437 0.0422162 0)
(1.0697 0.0459736 0)
(1.0564 0.0471631 0)
(1.04815 0.0457157 0)
(1.04573 0.0423639 0)
(1.04843 0.0372287 0)
(1.05123 0.0320932 0)
(1.03942 0.025426 0)
(0.966035 0.0185977 0)
(0.77067 0.0117986 0)
(0.45954 0.00579012 0)
(0.133862 0.0015613 0)
(0.262984 0.00294715 0)
(0.671527 0.00915243 0)
(0.961186 0.0166804 0)
(1.10339 0.0230369 0)
(1.14104 0.0288196 0)
(1.13682 0.0348056 0)
(1.12161 0.041066 0)
(1.10538 0.0476574 0)
(1.08854 0.0536068 0)
(1.0709 0.0577548 0)
(1.05505 0.058765 0)
(1.04455 0.056233 0)
(1.03946 0.0513354 0)
(1.04007 0.0450319 0)
(1.04105 0.0386101 0)
(1.02528 0.0309486 0)
(0.945764 0.0224899 0)
(0.744614 0.0139441 0)
(0.435475 0.00676315 0)
(0.121898 0.00182374 0)
(0.284978 0.00421626 0)
(0.704413 0.0132556 0)
(0.987542 0.0227239 0)
(1.11985 0.031218 0)
(1.15281 0.0378357 0)
(1.14835 0.0454387 0)
(1.13185 0.0533096 0)
(1.11361 0.0611826 0)
(1.09379 0.0680395 0)
(1.07249 0.0723091 0)
(1.05257 0.0723863 0)
(1.03904 0.0683307 0)
(1.0326 0.0620878 0)
(1.03095 0.0540842 0)
(1.02874 0.0453924 0)
(1.00906 0.03575 0)
(0.925927 0.0257922 0)
(0.72372 0.0164797 0)
(0.414292 0.00814185 0)
(0.110145 0.00212348 0)
(0.315161 0.00526468 0)
(0.747663 0.0158025 0)
(1.02073 0.0287861 0)
(1.14143 0.0401659 0)
(1.16951 0.0497811 0)
(1.1625 0.0602247 0)
(1.14385 0.0698576 0)
(1.12255 0.0791236 0)
(1.09876 0.0865868 0)
(1.07297 0.0901685 0)
(1.04962 0.0887149 0)
(1.03328 0.0825377 0)
(1.02306 0.0738397 0)
(1.01852 0.0642459 0)
(1.01355 0.0538694 0)
(0.989256 0.0427185 0)
(0.899166 0.0309849 0)
(0.68834 0.0195354 0)
(0.380049 0.00926065 0)
(0.0939942 0.00239336 0)
(0.350871 0.00883721 0)
(0.801117 0.0248097 0)
(1.06265 0.0408884 0)
(1.16911 0.0558509 0)
(1.18928 0.0677301 0)
(1.17918 0.0804553 0)
(1.15676 0.0922683 0)
(1.13092 0.102701 0)
(1.1024 0.109897 0)
(1.0721 0.111897 0)
(1.0447 0.10779 0)
(1.02478 0.0985883 0)
(1.01289 0.0874569 0)
(1.00541 0.0753838 0)
(0.996364 0.0628996 0)
(0.96697 0.0495746 0)
(0.871003 0.0359376 0)
(0.658094 0.0230035 0)
(0.351538 0.0112541 0)
(0.0795194 0.00273909 0)
(0.431323 0.0139945 0)
(0.881748 0.0342589 0)
(1.11913 0.057521 0)
(1.20346 0.0777604 0)
(1.21468 0.0923815 6.44343e-34)
(1.19785 0.109863 -2.88306e-34)
(1.16949 0.123149 0)
(1.13821 0.133358 0)
(1.10429 0.138445 0)
(1.06887 0.137126 0)
(1.03706 0.128907 0)
(1.01423 0.116611 0)
(0.998448 0.102867 0)
(0.987623 0.0888301 0)
(0.975334 0.0740304 0)
(0.940485 0.0588843 0)
(0.835422 0.0430102 0)
(0.608918 0.0271128 0)
(0.302001 0.0116404 0)
(0.0583021 0.00249844 0)
(0.495299 0.0285337 4.89604e-20)
(0.973719 0.0556654 -3.69447e-20)
(1.1789 0.0856394 0)
(1.23968 0.11 2.81418e-20)
(1.24117 0.13076 -2.27993e-20)
(1.2151 0.150274 3.0418e-34)
(1.1804 0.16334 0)
(1.14336 0.171797 1.62476e-20)
(1.10388 0.173944 -5.34759e-20)
(1.06364 0.168716 1.09136e-20)
(1.02819 0.156669 0)
(1.001 0.140542 -2.77511e-20)
(0.98197 0.123789 -3.31814e-20)
(0.967207 0.106846 5.79868e-20)
(0.948721 0.0900712 -4.58183e-20)
(0.904292 0.0717088 0)
(0.785098 0.0522766 -1.66088e-20)
(0.545211 0.0325864 0)
(0.250549 0.0152111 -9.11085e-20)
(0.0409274 0.00276121 1.07705e-19)
(0.526847 0.0537817 -6.46068e-21)
(1.03013 0.092687 1.1273e-19)
(1.22457 0.128319 -7.39535e-21)
(1.2716 0.154942 -7.05896e-20)
(1.26379 0.178641 -4.7967e-20)
(1.2295 0.198397 7.79991e-20)
(1.1885 0.210515 0)
(1.14539 0.216791 0)
(1.10011 0.215781 8.53769e-20)
(1.054 0.206256 0)
(1.01152 0.189769 1.00541e-19)
(0.978147 0.170862 2.9774e-20)
(0.954241 0.152639 3.31778e-22)
(0.934391 0.134477 -6.35564e-20)
(0.91169 0.114982 0)
(0.863443 0.0939884 0)
(0.741645 0.0696996 -2.73272e-19)
(0.510151 0.0488064 6.83977e-19)
(0.237143 0.0217388 -4.05848e-19)
(0.0376326 0.00474849 -4.79976e-19)
(0.533305 0.0746758 -6.77899e-20)
(1.06039 0.139963 2.55501e-20)
(1.25755 0.182721 1.33447e-20)
(1.29723 0.210267 1.22802e-19)
(1.28162 0.234453 1.37134e-20)
(1.2401 0.252706 -2.0398e-19)
(1.19308 0.262285 6.94865e-20)
(1.14422 0.265062 0)
(1.09406 0.259844 -1.81026e-19)
(1.04363 0.246488 1.60799e-19)
(0.996697 0.227145 -2.71548e-19)
(0.959874 0.206272 1.27369e-19)
(0.932874 0.185798 -8.25797e-20)
(0.911046 0.166998 1.85898e-19)
(0.884413 0.146897 0)
(0.832881 0.122137 -6.8247e-20)
(0.714272 0.0955257 0)
(0.498943 0.0651798 3.79852e-19)
(0.239154 0.0353906 -9.02198e-19)
(0.044752 0.008059 5.65362e-19)
(0.531039 0.10379 1.95873e-19)
(1.08153 0.1926 -8.56413e-20)
(1.27996 0.242999 -1.73401e-20)
(1.31468 0.272357 0)
(1.29322 0.295917 -9.018e-20)
(1.24622 0.31127 1.11168e-19)
(1.19431 0.316967 -7.48068e-20)
(1.14083 0.315037 0)
(1.0865 0.304812 1.28727e-19)
(1.03064 0.287495 -1.12988e-19)
(0.976454 0.264952 2.35825e-19)
(0.933304 0.240068 0)
(0.901449 0.216991 -1.75624e-19)
(0.874282 0.197596 9.90169e-20)
(0.848698 0.179296 2.50127e-19)
(0.802188 0.156305 -2.20059e-19)
(0.69197 0.124882 3.53737e-19)
(0.492767 0.0875355 -7.83256e-19)
(0.250417 0.049802 4.95387e-19)
(0.0554798 0.0125964 -6.2039e-19)
(0.517847 0.13122 -7.27138e-20)
(1.08725 0.243086 5.23214e-20)
(1.29225 0.303406 -5.70295e-20)
(1.32434 0.335998 1.11636e-19)
(1.29851 0.359182 -1.03872e-19)
(1.24751 0.371605 3.53053e-20)
(1.19204 0.372963 3.64498e-21)
(1.13497 0.366057 -1.46018e-19)
(1.07646 0.351284 -1.34938e-19)
(1.01492 0.330927 -2.42818e-19)
(0.956392 0.306329 -5.07041e-19)
(0.912867 0.278256 -1.56155e-19)
(0.880893 0.253029 2.47205e-21)
(0.855729 0.234529 -3.38816e-19)
(0.824804 0.214662 -6.2585e-21)
(0.775502 0.187096 3.19872e-19)
(0.673504 0.153886 -9.69418e-20)
(0.490947 0.111455 -5.65697e-20)
(0.26286 0.0656576 0)
(0.0650776 0.0180652 1.31633e-18)
(0.502057 0.155714 0)
(1.08426 0.291896 -6.56559e-21)
(1.29653 0.362889 -1.05004e-20)
(1.3272 0.399157 -1.2166e-20)
(1.29829 0.422058 1.00901e-19)
(1.24453 0.43164 -8.20564e-20)
(1.18669 0.428729 8.17385e-20)
(1.12714 0.417023 2.39621e-19)
(1.06529 0.397901 -7.50666e-20)
(0.99906 0.373833 1.2018e-19)
(0.936505 0.344577 2.72537e-19)
(0.889534 0.31265 3.40113e-19)
(0.851044 0.287303 -2.04305e-19)
(0.819006 0.264664 3.66078e-19)
(0.795297 0.24419 -2.89749e-19)
(0.755278 0.221323 0)
(0.661804 0.182959 -7.35438e-19)
(0.491923 0.136038 9.89888e-19)
(0.273001 0.0819579 7.40515e-20)
(0.0722114 0.023753 -1.38648e-18)
(0.486568 0.178277 -6.76023e-21)
(1.07653 0.3389 1.89158e-20)
(1.29562 0.420586 7.6438e-20)
(1.32529 0.46041 -9.72496e-20)
(1.29377 0.483138 8.24777e-20)
(1.2379 0.490184 -7.9875e-20)
(1.17849 0.483221 1.61705e-19)
(1.11694 0.467153 -7.18092e-20)
(1.0514 0.444502 -3.01735e-19)
(0.980213 0.417665 2.47584e-22)
(0.915366 0.384077 -2.95237e-19)
(0.867493 0.349909 -3.64206e-19)
(0.832474 0.322014 2.24762e-19)
(0.806033 0.299779 -1.31446e-19)
(0.775098 0.279579 3.13525e-19)
(0.731195 0.248011 0)
(0.64513 0.211261 -4.54496e-19)
(0.488099 0.160159 6.71287e-19)
(0.278815 0.0978964 1.27665e-18)
(0.076781 0.0294197 -1.50207e-18)
(0.472969 0.199213 -3.51528e-20)
(1.06562 0.383717 9.72249e-21)
(1.29034 0.475552 -5.36506e-20)
(1.31953 0.51889 1.00038e-19)
(1.28597 0.541589 1.10569e-20)
(1.22854 0.546365 -1.55956e-19)
(1.16801 0.535733 -9.33308e-20)
(1.10483 0.515937 -9.09737e-20)
(1.03645 0.490596 -1.69582e-19)
(0.96168 0.459806 2.74636e-19)
(0.895409 0.421327 2.98739e-19)
(0.845325 0.383177 5.77834e-19)
(0.805588 0.353611 0)
(0.773798 0.32987 5.6092e-21)
(0.750106 0.30583 -8.57042e-19)
(0.71467 0.282565 1.98885e-19)
(0.632764 0.239323 9.76878e-19)
(0.481153 0.183675 -2.87588e-19)
(0.274742 0.113174 6.02502e-19)
(0.0768314 0.0328416 -5.02358e-20)
(0.461596 0.218983 8.21292e-21)
(1.05485 0.427412 3.42934e-20)
(1.28283 0.529181 -2.51954e-20)
(1.31114 0.575266 1.14448e-19)
(1.27573 0.597431 -1.6894e-19)
(1.21712 0.599824 1.54735e-19)
(1.15573 0.585936 9.63287e-20)
(1.09086 0.563001 2.72078e-19)
(1.01922 0.535092 3.41095e-19)
(0.94177 0.501051 -3.158e-19)
(0.876053 0.458871 0)
(0.825507 0.416943 -2.16951e-19)
(0.788099 0.386238 2.49079e-19)
(0.761137 0.360018 3.13e-19)
(0.732013 0.338355 -1.80779e-19)
(0.691048 0.306189 -4.42259e-19)
(0.61438 0.265615 -1.32396e-19)
(0.469035 0.20271 -1.24266e-21)
(0.265865 0.122438 0)
(0.0737322 0.0344731 0)
(0.452652 0.237805 -6.35484e-20)
(1.04281 0.468398 0)
(1.27291 0.579371 -1.09352e-20)
(1.30069 0.628373 -8.44276e-21)
(1.26376 0.650224 1.89537e-19)
(1.20414 0.650477 -4.83247e-20)
(1.14195 0.633702 9.71876e-20)
(1.07551 0.608094 -1.83962e-19)
(1.00168 0.578323 2.57126e-19)
(0.923192 0.541414 -1.02407e-19)
(0.855557 0.49296 1.6958e-19)
(0.801552 0.448694 6.86315e-19)
(0.760775 0.414343 1.36139e-20)
(0.729471 0.386635 -3.26139e-19)
(0.704958 0.360993 6.03511e-19)
(0.673113 0.335388 4.51681e-21)
(0.59896 0.28608 1.41646e-19)
(0.456213 0.219579 -6.78327e-19)
(0.255956 0.128693 6.89999e-19)
(0.0690252 0.0355292 -8.22322e-19)
(0.446516 0.256382 6.99345e-23)
(1.03204 0.508678 0)
(1.26201 0.628333 0)
(1.28874 0.679371 -5.98336e-21)
(1.25042 0.700377 -5.688e-20)
(1.19005 0.69828 7.24646e-20)
(1.12739 0.67887 -1.82017e-19)
(1.05968 0.65114 0)
(0.98389 0.619343 -3.79531e-19)
(0.903985 0.578463 4.55752e-19)
(0.835262 0.5264 4.8122e-19)
(0.779027 0.480256 -2.51982e-19)
(0.741403 0.443644 -3.03607e-19)
(0.712436 0.41362 7.11437e-19)
(0.685348 0.389014 -2.14225e-19)
(0.64808 0.351711 -2.56218e-19)
(0.577566 0.307247 -1.53994e-19)
(0.43864 0.232481 -7.31389e-19)
(0.242966 0.132966 1.04881e-19)
(0.0631599 0.0356149 8.87471e-19)
(0.441593 0.275666 -3.36877e-20)
(1.02068 0.546317 -4.10489e-20)
(1.24988 0.67388 2.26942e-20)
(1.27581 0.727167 3.27115e-22)
(1.23635 0.747607 -5.53932e-20)
(1.17542 0.743304 1.18435e-19)
(1.11232 0.721532 0)
(1.04338 0.692084 1.10406e-19)
(0.965613 0.658786 -8.70567e-20)
(0.883682 0.615606 7.56286e-19)
(0.810907 0.56053 -1.10596e-19)
(0.753495 0.509722 1.24657e-19)
(0.711308 0.46852 0)
(0.680763 0.435892 -3.84972e-19)
(0.656831 0.404664 4.66153e-19)
(0.62788 0.376899 0)
(0.558392 0.320236 -3.33342e-19)
(0.419177 0.242237 9.79206e-19)
(0.228995 0.135171 1.15359e-19)
(0.0567578 0.0347996 -1.09322e-18)
(0.438107 0.294194 -8.68084e-20)
(1.01073 0.583251 1.09084e-19)
(1.23768 0.71805 0)
(1.2624 0.772825 6.63856e-21)
(1.22188 0.792294 0)
(1.16062 0.785741 -1.5167e-19)
(1.09739 0.761796 0)
(1.02734 0.730897 0)
(0.948007 0.696357 -1.14995e-19)
(0.865644 0.650406 -7.19137e-19)
(0.79179 0.590709 -8.88017e-19)
(0.73075 0.536889 1.45488e-19)
(0.689911 0.493052 5.2407e-19)
(0.662163 0.4579 4.23756e-19)
(0.637124 0.429828 -1.49585e-18)
(0.601504 0.387 -6.03208e-19)
(0.533544 0.33577 3.52545e-19)
(0.398687 0.248723 0)
(0.213637 0.135648 9.95229e-19)
(0.0500762 0.0332481 -1.17891e-18)
(0.435528 0.311875 1.06263e-19)
(1.00067 0.617623 -1.28844e-19)
(1.22507 0.759043 0)
(1.24871 0.815539 -1.0428e-20)
(1.20737 0.834373 2.67131e-21)
(1.14598 0.825681 0)
(1.08256 0.799659 5.52187e-20)
(1.01161 0.767881 7.58681e-20)
(0.930862 0.732183 -2.15421e-19)
(0.84576 0.684241 9.4714e-20)
(0.764593 0.621493 0)
(0.701991 0.5643 6.01837e-19)
(0.661324 0.515801 4.86423e-21)
(0.629082 0.477405 2.28702e-19)
(0.60681 0.43995 2.71641e-19)
(0.579793 0.407289 0)
(0.512436 0.341639 -5.81235e-19)
(0.375386 0.252595 1.14133e-18)
(0.19722 0.134037 -1.21021e-18)
(0.043451 0.0309816 2.54302e-18)
(0.434002 0.328493 0)
(0.992063 0.651165 0)
(1.21294 0.798604 -6.34463e-20)
(1.23521 0.856167 0)
(1.1931 0.874024 0)
(1.1317 0.863257 -1.24206e-19)
(1.06834 0.835563 5.62445e-20)
(0.99632 0.802776 1.74651e-20)
(0.913725 0.766184 -4.89861e-20)
(0.827181 0.71627 0)
(0.747421 0.65226 -1.34531e-19)
(0.682834 0.591942 -4.91152e-19)
(0.634942 0.539924 -5.90983e-19)
(0.607811 0.495226 -2.37499e-19)
(0.585337 0.461346 2.95286e-19)
(0.551943 0.410315 -6.97145e-19)
(0.484256 0.352721 1.25169e-18)
(0.353232 0.253289 5.64531e-21)
(0.180126 0.130654 -1.16355e-18)
(0.0371938 0.0282734 -1.72029e-19)
(0.433082 0.344209 0)
(0.983579 0.682319 -1.07305e-19)
(1.20076 0.835257 7.73079e-20)
(1.22178 0.89409 0)
(1.17911 0.911316 0)
(1.11791 0.898666 2.48071e-19)
(1.05439 0.869197 0)
(0.981282 0.8358 0)
(0.897826 0.798667 -4.67286e-19)
(0.810348 0.747777 1.3017e-19)
(0.723161 0.683116 -1.18392e-18)
(0.651235 0.618938 0)
(0.605915 0.560562 -6.39309e-19)
(0.572569 0.512438 1.10425e-20)
(0.550744 0.464095 -9.47781e-19)
(0.52739 0.425799 3.7563e-19)
(0.463445 0.350426 3.2008e-21)
(0.328705 0.250298 -1.32799e-18)
(0.1637 0.125185 6.28706e-19)
(0.0323997 0.025193 1.84054e-19)
(0.43267 0.359063 0)
(0.976258 0.712582 -1.51526e-19)
(1.18923 0.870559 8.35135e-20)
(1.20878 0.93004 1.05264e-19)
(1.16552 0.946245 -1.20078e-20)
(1.10442 0.931742 2.32132e-20)
(1.04088 0.901028 -3.3457e-20)
(0.967056 0.86707 4.44332e-19)
(0.882597 0.829451 4.99865e-19)
(0.793765 0.777427 9.82789e-19)
(0.706511 0.711772 9.83616e-19)
(0.63471 0.646158 1.72831e-19)
(0.579206 0.584658 9.20316e-19)
(0.546203 0.526892 5.68984e-19)
(0.525786 0.481756 6.80557e-19)
(0.496699 0.41874 -4.13083e-19)
(0.43319 0.353342 -4.86213e-19)
(0.309961 0.244091 5.73082e-19)
(0.149899 0.115699 -3.38996e-19)
(0.0297215 0.0217516 5.96366e-19)
(0.432409 0.373207 2.18557e-19)
(0.968948 0.740601 2.37723e-19)
(1.1777 0.90315 5.01054e-20)
(1.19589 0.963483 1.69209e-20)
(1.1522 0.979019 6.41432e-21)
(1.09152 0.962933 -6.86267e-20)
(1.02806 0.930864 3.19403e-20)
(0.953439 0.89642 -2.16047e-20)
(0.868355 0.858317 -5.76514e-19)
(0.778671 0.805931 -1.06668e-18)
(0.684784 0.741096 6.77181e-20)
(0.604974 0.673746 0)
(0.548296 0.607699 0)
(0.509006 0.546153 -2.95836e-19)
(0.482939 0.477947 -1.11288e-18)
(0.46435 0.425023 8.90113e-19)
(0.412825 0.335428 5.33463e-19)
(0.291848 0.227589 0)
(0.152552 0.10342 1.08418e-18)
(0.0365018 0.0193847 -6.43694e-19)
(0.432271 0.386601 -1.14838e-19)
(0.962502 0.767784 1.02694e-19)
(1.16678 0.934601 -1.19621e-19)
(1.18341 0.99516 -9.45589e-20)
(1.13935 1.00954 -1.38565e-20)
(1.07904 0.991839 -2.26515e-20)
(1.01565 0.958925 0)
(0.940367 0.924196 -5.55653e-19)
(0.854645 0.885684 7.25406e-20)
(0.763104 0.832783 0)
(0.669493 0.768492 0)
(0.587184 0.701812 1.09651e-19)
(0.521798 0.634918 1.48719e-19)
(0.478294 0.562461 -3.17949e-19)
(0.452391 0.498007 8.00238e-19)
(0.419787 0.401971 -9.70634e-19)
(0.375108 0.319739 -1.14281e-18)
(0.293626 0.195948 1.0092e-18)
(0.194564 0.0876168 -3.92015e-19)
(0.0904988 0.0291457 2.27831e-19)
(0.431961 0.399182 1.46884e-19)
(0.955883 0.792759 0)
(1.15583 0.963472 0)
(1.17113 1.02454 -2.63209e-20)
(1.12687 1.03814 2.13083e-20)
(1.0672 1.01907 -2.1344e-20)
(1.00396 0.985243 1.38641e-19)
(0.92819 0.950166 5.63438e-19)
(0.842115 0.91141 1.03877e-18)
(0.750169 0.858399 -7.95224e-20)
(0.650415 0.79492 1.64634e-19)
(0.56218 0.728271 -9.71827e-19)
(0.495125 0.65939 -9.69281e-19)
(0.439841 0.589852 -1.69617e-19)
(0.397722 0.494662 0)
(0.376812 0.410911 -9.86677e-21)
(0.335757 0.26662 6.24423e-19)
(0.260731 0.124795 -1.07895e-18)
(0.20615 -0.0160267 8.31776e-19)
(0.0665647 -0.0260117 7.13002e-19)
(0.43165 0.411299 -3.25251e-19)
(0.949679 0.816903 -1.4633e-19)
(1.14526 0.991448 8.04891e-21)
(1.15915 1.05261 5.67882e-20)
(1.11478 1.065 0)
(1.05569 1.04457 -6.43276e-20)
(0.992589 1.01034 -2.00078e-19)
(0.916187 0.975338 -4.91765e-21)
(0.829354 0.936246 -5.43051e-19)
(0.73517 0.882854 -7.78134e-20)
(0.633746 0.821124 7.22718e-20)
(0.543556 0.757707 8.53649e-19)
(0.466586 0.691552 9.46899e-19)
(0.407722 0.610103 1.64099e-19)
(0.364533 0.533022 8.4383e-19)
(0.303955 0.388592 0)
(0.203611 0.258682 0)
(0.0598874 0.289937 7.22758e-19)
(-0.0324704 0.707301 -1.93381e-20)
(-0.000245639 1.66035 -8.12609e-19)
(0.43109 0.42288 1.80228e-19)
(0.94331 0.839183 4.10549e-19)
(1.13465 1.01726 -5.64984e-19)
(1.14743 1.07894 2.79942e-19)
(1.1032 1.09076 -7.98859e-21)
(1.04484 1.06938 -1.35535e-20)
(0.981758 1.03481 0)
(0.904911 0.999967 -4.66058e-19)
(0.817679 0.960975 0)
(0.722151 0.908178 1.08912e-18)
(0.616163 0.847576 -8.78669e-20)
(0.5219 0.784742 9.85199e-20)
(0.440672 0.719579 1.07205e-18)
(0.366825 0.654312 -3.55227e-19)
(0.278809 0.540127 -4.32731e-19)
(0.214218 0.458174 0)
(0.101452 0.603662 0)
(0.0348532 1.38812 0)
(0.0606575 2.48677 -4.19945e-19)
(0.0767873 2.91713 -2.52837e-19)
(0.430475 0.433773 0)
(0.937451 0.860912 0)
(1.12453 1.04249 2.0679e-19)
(1.13608 1.1042 -2.26878e-19)
(1.09206 1.11507 1.02118e-19)
(1.03448 1.09283 2.08071e-20)
(0.971472 1.05842 2.52742e-20)
(0.893842 1.02407 -1.96782e-20)
(0.805538 0.985338 7.60663e-20)
(0.70799 0.932702 -1.24968e-18)
(0.601277 0.874919 1.58675e-19)
(0.501898 0.816889 8.43254e-19)
(0.412404 0.759922 -1.06822e-18)
(0.330481 0.677617 -1.16838e-18)
(0.260475 0.613772 3.96093e-19)
(0.174625 0.775478 0)
(0.102435 1.63695 5.61409e-19)
(0.111434 2.70736 6.41923e-19)
(0.115273 3.0802 -7.24476e-19)
(0.102999 3.20743 7.98002e-19)
(0.429354 0.444311 0)
(0.931412 0.880709 3.6727e-19)
(1.1145 1.06553 -5.17658e-20)
(1.12519 1.12774 3.21039e-19)
(1.08169 1.13831 -1.07189e-19)
(1.0249 1.1156 0)
(0.961651 1.08132 0)
(0.883546 1.0476 0)
(0.795208 1.00945 4.22113e-19)
(0.696484 0.958158 5.71324e-20)
(0.584875 0.902286 0)
(0.484073 0.847068 -8.38719e-19)
(0.392198 0.79018 0)
(0.294232 0.732225 8.33882e-19)
(0.213586 0.827993 -5.57324e-19)
(0.162279 1.54295 -4.481e-19)
(0.156803 2.70737 -1.07562e-18)
(0.171036 3.12544 -5.79425e-19)
(0.147826 3.25553 -8.20954e-19)
(0.129692 3.29093 7.29234e-19)
(0.427545 0.45359 -1.29997e-19)
(0.925854 0.900001 1.68217e-20)
(1.10499 1.08824 -5.78388e-20)
(1.11468 1.15038 -2.47345e-19)
(1.07174 1.16024 0)
(1.01575 1.13717 0)
(0.952381 1.10349 0)
(0.873482 1.0705 3.18809e-20)
(0.784011 1.03299 -5.34074e-19)
(0.68338 0.982814 0)
(0.572206 0.930194 0)
(0.468388 0.880281 0)
(0.363417 0.83229 0)
(0.301223 0.836424 6.05143e-19)
(0.259571 1.2739 1.48626e-18)
(0.221792 2.46564 4.45757e-19)
(0.227489 3.09853 9.11137e-19)
(0.21447 3.27816 -6.93165e-19)
(0.174676 3.33273 2.5128e-19)
(0.154227 3.3436 0)
(0.424849 0.461575 1.34267e-19)
(0.91917 0.916997 -8.19739e-19)
(1.09526 1.10916 -2.21654e-19)
(1.10464 1.17211 -4.82749e-20)
(1.06257 1.18186 2.66044e-20)
(1.0072 1.15865 -1.11155e-19)
(0.943212 1.12533 -4.64333e-22)
(0.863844 1.09328 -3.40877e-19)
(0.774808 1.05697 0)
(0.673758 1.00897 -7.24559e-20)
(0.559709 0.959369 6.59096e-20)
(0.456309 0.91351 0)
(0.374083 0.88282 0)
(0.305488 1.05307 -7.50661e-19)
(0.257738 1.95066 8.69528e-20)
(0.247327 2.98022 -3.33186e-19)
(0.270172 3.2854 7.01279e-19)
(0.251405 3.36971 5.28337e-19)
(0.195373 3.39065 -7.81451e-19)
(0.174724 3.39865 3.95809e-19)
(0.42167 0.469203 2.65849e-19)
(0.912267 0.934936 8.00536e-19)
(1.08535 1.1317 2.65619e-19)
(1.09441 1.19497 0)
(1.05309 1.20389 0)
(0.998132 1.18025 8.68453e-20)
(0.933874 1.14766 4.24148e-20)
(0.854114 1.11642 3.03498e-19)
(0.764458 1.08089 2.0103e-20)
(0.661751 1.0341 9.15966e-19)
(0.549365 0.987396 -1.09013e-18)
(0.442998 0.946157 0)
(0.371389 0.970519 0)
(0.328267 1.42093 -4.98084e-19)
(0.311009 2.59114 -6.1249e-19)
(0.343433 3.21323 0)
(0.362705 3.35858 -7.46415e-19)
(0.288714 3.41128 1.36777e-20)
(0.215902 3.44295 4.65287e-19)
(0.188908 3.46024 -1.88684e-19)
(0.417624 0.477146 -5.0901e-19)
(0.904031 0.952349 -3.84644e-19)
(1.07461 1.154 0)
(1.084 1.21857 0)
(1.04359 1.22727 0)
(0.988858 1.2031 0)
(0.923896 1.1706 -5.2253e-20)
(0.84402 1.14023 2.51895e-19)
(0.754986 1.10596 0)
(0.653037 1.06221 -8.33962e-19)
(0.540343 1.01923 1.94938e-18)
(0.44703 0.991385 7.91152e-20)
(0.393362 1.11125 1.02087e-19)
(0.364297 1.87529 8.01134e-19)
(0.364441 2.96253 -4.28897e-19)
(0.396507 3.32187 0)
(0.370907 3.42523 2.13859e-19)
(0.284751 3.49735 7.72291e-20)
(0.228909 3.54152 8.45339e-20)
(0.196592 3.54014 5.00844e-20)
(0.413601 0.485752 2.43271e-19)
(0.89597 0.972093 -3.93467e-19)
(1.06358 1.17865 0)
(1.0727 1.24362 -7.25975e-20)
(1.03283 1.25128 2.5416e-19)
(0.97823 1.22627 0)
(0.913183 1.19431 0)
(0.833582 1.16466 -4.29882e-19)
(0.745078 1.13122 -5.1997e-20)
(0.64255 1.08895 8.01969e-19)
(0.530014 1.04827 -9.25541e-19)
(0.45116 1.0407 5.2523e-19)
(0.413611 1.31739 0)
(0.40012 2.31795 -4.20448e-19)
(0.427746 3.18797 2.77297e-19)
(0.471654 3.42066 1.74655e-19)
(0.447634 3.50094 0)
(0.383156 3.55807 -9.8363e-21)
(0.33074 3.57673 -2.93439e-19)
(0.245602 3.51273 -5.53241e-20)
(0.408704 0.495361 -4.84431e-19)
(0.886548 0.991236 5.6445e-19)
(1.05158 1.20266 3.96079e-19)
(1.06086 1.26905 -9.82559e-20)
(1.02169 1.27658 -3.92246e-19)