/*--------------------------------*- C++ -*----------------------------------*\
  =========                 |
  \\      /  F ield         | OpenFOAM: The Open Source CFD Toolbox
   \\    /   O peration     | Website:  https://openfoam.org
    \\  /    A nd           | Version:  6
     \\/     M anipulation  |
\*---------------------------------------------------------------------------*/
FoamFile
{
    version     2.0;
    format      ascii;
    class       volVectorField;
    location    "11";
    object      U;
}
// * * * * * * * * * * * * * * * * * * * * * * * * * * * * * * * * * * * * * //

dimensions      [0 1 -1 0 0 0 0];

internalField   nonuniform List<vector> 
8800
(
(0.987198 -0.0766739 0)
(1.00189 -0.0551273 0)
(0.999804 -0.028451 0)
(1.00004 -0.0149297 0)
(0.999919 -0.0083006 0)
(0.999909 -0.00493744 0)
(0.999949 -0.00299884 0)
(0.999985 -0.00174114 0)
(1.00001 -0.000844716 0)
(1.00004 -0.000133684 0)
(1.00002 0.000557133 0)
(1 0.001346 0)
(0.999966 0.00238715 0)
(0.999953 0.00392013 0)
(0.999886 0.00641961 0)
(0.999983 0.0110905 0)
(1.00003 0.0206269 0)
(0.999184 0.0385775 0)
(1.00704 0.0724398 0)
(0.771241 0.0366821 0)
(0.363465 -0.0159499 0)
(1.0436 -0.0765168 0)
(1.08432 -0.0699001 0)
(1.04478 -0.0531285 0)
(1.02307 -0.0387042 0)
(1.01184 -0.0260978 0)
(1.00596 -0.016415 0)
(1.00329 -0.00980254 0)
(1.00205 -0.00527398 0)
(1.00149 -0.00191532 0)
(1.00136 0.000877133 0)
(1.00169 0.00388896 0)
(1.00252 0.00768123 0)
(1.00433 0.0130549 0)
(1.00835 0.0210861 0)
(1.01652 0.0322354 0)
(1.0323 0.0460225 0)
(1.06225 0.0609185 0)
(1.09184 0.0754876 0)
(0.83923 0.0563206 0)
(0.218127 -0.00231373 0)
(1.07705 -0.0495275 0)
(1.10063 -0.047256 0)
(1.06463 -0.0388893 0)
(1.03939 -0.0319452 0)
(1.02334 -0.0246007 0)
(1.01354 -0.0174649 0)
(1.00785 -0.0112304 0)
(1.005 -0.00587067 0)
(1.0041 -0.000798308 0)
(1.00428 0.00412618 0)
(1.00602 0.00919938 0)
(1.01013 0.014847 0)
(1.01761 0.0214766 0)
(1.03013 0.0286489 0)
(1.05046 0.0357876 0)
(1.08104 0.0428171 0)
(1.10754 0.0502573 0)
(0.944724 0.0410466 0)
(0.21784 0.00232554 0)
(0.17814 -0.000623527 0)
(1.02093 -0.0331644 0)
(1.10571 -0.0384317 0)
(1.07832 -0.0335341 0)
(1.05307 -0.0278292 0)
(1.03528 -0.0227294 0)
(1.02284 -0.0176286 0)
(1.01489 -0.0121804 0)
(1.01035 -0.00655525 0)
(1.00845 -0.000834252 0)
(1.00899 0.00484107 0)
(1.01201 0.0103328 0)
(1.01808 0.015814 0)
(1.02807 0.0209021 0)
(1.04308 0.025789 0)
(1.06402 0.0311164 0)
(1.09422 0.036769 0)
(1.0954 0.0386403 0)
(0.834141 0.0212154 0)
(0.177679 0.000636471 0)
(0.159197 -0.000401964 0)
(0.965555 -0.0224724 0)
(1.10471 -0.0305086 0)
(1.08645 -0.0279495 0)
(1.06057 -0.0241587 0)
(1.04302 -0.0200169 0)
(1.03103 -0.0156035 0)
(1.02254 -0.0110382 0)
(1.01695 -0.00613309 0)
(1.01422 -0.000608361 0)
(1.01503 0.00508186 0)
(1.01905 0.0100963 0)
(1.02588 0.0145879 0)
(1.03589 0.0188422 0)
(1.05026 0.0229283 0)
(1.07149 0.0267058 0)
(1.1007 0.0302342 0)
(1.07409 0.029396 0)
(0.755284 0.0120935 0)
(0.15851 0.000417061 0)
(0.148654 -0.000170198 0)
(0.919426 -0.0121159 0)
(1.0984 -0.0205558 0)
(1.09259 -0.0204664 0)
(1.06489 -0.0183344 0)
(1.04582 -0.0161948 0)
(1.03288 -0.0134343 0)
(1.02441 -0.00976171 0)
(1.01919 -0.00537613 0)
(1.01694 -0.000271227 0)
(1.01736 0.00493946 0)
(1.02085 0.00949227 0)
(1.02746 0.0132886 0)
(1.03779 0.0162321 0)
(1.05336 0.0182423 0)
(1.07658 0.0202914 0)
(1.10257 0.021668 0)
(1.04849 0.0184729 0)
(0.704514 0.00556151 0)
(0.147708 0.000189592 0)
(0.145061 -5.97552e-06 0)
(0.889922 -0.00532659 0)
(1.08724 -0.0122112 0)
(1.09389 -0.0139624 0)
(1.06833 -0.013934 0)
(1.05023 -0.0128424 0)
(1.03816 -0.0110472 0)
(1.02989 -0.00832343 0)
(1.02447 -0.00458357 0)
(1.02193 0.00010253 0)
(1.02241 0.00486712 0)
(1.02598 0.00887538 0)
(1.03244 0.011767 0)
(1.04217 0.0136602 0)
(1.05683 0.0149953 0)
(1.07885 0.0150208 0)
(1.09931 0.0143993 0)
(1.02507 0.00994658 0)
(0.67931 0.00212065 0)
(0.143776 2.76745e-05 0)
(0.144177 2.41453e-05 0)
(0.871655 -0.00279944 0)
(1.07437 -0.00879813 0)
(1.09044 -0.0123588 0)
(1.06775 -0.0134039 0)
(1.05124 -0.0131423 0)
(1.04005 -0.0113712 0)
(1.03254 -0.00844468 0)
(1.02767 -0.00441877 0)
(1.02521 0.00049269 0)
(1.02552 0.00544261 0)
(1.02861 0.00962953 0)
(1.03431 0.0127024 0)
(1.04324 0.0146741 0)
(1.05659 0.0151194 0)
(1.07675 0.0145328 0)
(1.09165 0.0120811 0)
(1.00568 0.00648325 0)
(0.666191 0.00106549 0)
(0.142486 2.06248e-06 0)
(0.144039 1.95711e-05 0)
(0.858674 -0.00162007 0)
(1.0592 -0.00698948 0)
(1.08366 -0.0121521 0)
(1.06691 -0.0142887 0)
(1.05298 -0.014166 0)
(1.04328 -0.0123023 0)
(1.03653 -0.00906439 0)
(1.03188 -0.00460765 0)
(1.02926 0.000886248 0)
(1.02949 0.00646512 0)
(1.03232 0.0110417 0)
(1.03743 0.0143405 0)
(1.0451 0.0162854 0)
(1.05619 0.0166055 0)
(1.07311 0.0154942 0)
(1.07979 0.0112668 0)
(0.987796 0.00477504 0)
(0.657928 0.000695916 0)
(0.141846 1.31228e-05 0)
(0.144036 1.72562e-05 0)
(0.849834 -0.000797495 0)
(1.04398 -0.0047386 0)
(1.0738 -0.0100209 0)
(1.06498 -0.0132898 0)
(1.05424 -0.0135441 0)
(1.0467 -0.0118254 0)
(1.04091 -0.00856818 0)
(1.03662 -0.00411113 0)
(1.03412 0.00150711 0)
(1.03407 0.00724365 0)
(1.03637 0.0118121 0)
(1.04058 0.0149338 0)
(1.04654 0.0166022 0)
(1.05545 0.0167108 0)
(1.06612 0.0141684 0)
(1.06503 0.00906612 0)
(0.972584 0.00330431 0)
(0.652334 0.000510525 0)
(0.141225 2.20386e-05 0)
(0.144282 2.8047e-05 0)
(0.845173 -9.57941e-05 0)
(1.03298 -0.00222911 0)
(1.06472 -0.00586692 0)
(1.06111 -0.00856322 0)
(1.05493 -0.00941451 0)
(1.04936 -0.0084935 0)
(1.04452 -0.00606068 0)
(1.04062 -0.0023232 0)
(1.0382 0.00252486 0)
(1.03781 0.0073735 0)
(1.03956 0.0110152 0)
(1.04274 0.0132117 0)
(1.04719 0.0138981 0)
(1.05261 0.0130213 0)
(1.05808 0.0102033 0)
(1.05222 0.00597358 0)
(0.96211 0.0020389 0)
(0.648803 0.000360228 0)
(0.140708 2.13669e-05 0)
(0.144789 4.08813e-05 0)
(0.843613 0.000339599 0)
(1.02708 -0.000512704 0)
(1.05886 -0.00240319 0)
(1.05823 -0.00406069 0)
(1.0548 -0.00474957 0)
(1.05111 -0.00427814 0)
(1.04742 -0.00262073 0)
(1.04408 0.00016215 0)
(1.04171 0.00381181 0)
(1.04091 0.00732988 0)
(1.04185 0.00972928 0)
(1.04381 0.0107274 0)
(1.04648 0.0104866 0)
(1.04936 0.00910327 0)
(1.05165 0.00674507 0)
(1.04358 0.0038215 0)
(0.955798 0.00141198 0)
(0.646431 0.00033926 0)
(0.140234 2.67721e-05 0)
(0.145477 4.67998e-05 0)
(0.843861 0.000590392 0)
(1.02476 0.0005463 0)
(1.05601 -0.000125677 0)
(1.05666 -0.000792346 0)
(1.05471 -0.00100562 0)
(1.05224 -0.000560161 0)
(1.0494 0.000671116 0)
(1.04652 0.00270014 0)
(1.04407 0.00527467 0)
(1.04276 0.00755344 0)
(1.0429 0.0087493 0)
(1.04373 0.00885967 0)
(1.04501 0.00810288 0)
(1.0463 0.00664962 0)
(1.04698 0.00477719 0)
(1.03812 0.00280064 0)
(0.951786 0.00123855 0)
(0.64439 0.000389602 0)
(0.139676 3.56159e-05 0)
(0.146331 5.68932e-05 0)
(0.845301 0.000841684 0)
(1.02462 0.00125609 0)
(1.0553 0.00133736 0)
(1.05641 0.0014123 0)
(1.05514 0.0017186 0)
(1.05331 0.00239178 0)
(1.05099 0.00353157 0)
(1.04833 0.00513533 0)
(1.04569 0.0069624 0)
(1.04383 0.0083329 0)
(1.04302 0.00877253 0)
(1.04298 0.00819983 0)
(1.04326 0.0070643 0)
(1.0436 0.0056146 0)
(1.0435 0.00404416 0)
(1.03437 0.00254397 0)
(0.94869 0.00132398 0)
(0.642218 0.000483623 0)
(0.138961 4.71841e-05 0)
(0.147398 7.13611e-05 0)
(0.847608 0.00110147 0)
(1.0258 0.00187112 0)
(1.05599 0.00246033 0)
(1.05721 0.00307899 0)
(1.05617 0.00386124 0)
(1.05459 0.00487243 0)
(1.05243 0.00614201 0)
(1.04975 0.00760334 0)
(1.04675 0.00898597 0)
(1.0442 0.0096894 0)
(1.04262 0.00939022 0)
(1.04173 0.00845327 0)
(1.0413 0.00708546 0)
(1.04106 0.00556917 0)
(1.04055 0.0040809 0)
(1.03125 0.00272346 0)
(0.945726 0.00155776 0)
(0.63965 0.000608678 0)
(0.138039 6.09821e-05 0)
(0.148746 8.99622e-05 0)
(0.850774 0.00141776 0)
(1.02799 0.00252097 0)
(1.0577 0.0035278 0)
(1.05887 0.00460547 0)
(1.05784 0.00584189 0)
(1.05624 0.00725406 0)
(1.05397 0.00879808 0)
(1.051 0.010321 0)
(1.04744 0.0114818 0)
(1.04408 0.0117156 0)
(1.04168 0.0109326 0)
(1.04008 0.0095486 0)
(1.03907 0.00789076 0)
(1.03841 0.00619718 0)
(1.03763 0.00460949 0)
(1.02817 0.00318446 0)
(0.942458 0.00190643 0)
(0.636495 0.000766981 0)
(0.136864 7.76285e-05 0)
(0.150462 0.000115092 0)
(0.854926 0.00182288 0)
(1.03111 0.00330255 0)
(1.06032 0.00472116 0)
(1.06136 0.00624532 0)
(1.06018 0.00795427 0)
(1.05835 0.00983626 0)
(1.05574 0.0117733 0)
(1.05224 0.0135107 0)
(1.04787 0.0146039 0)
(1.04354 0.0144773 0)
(1.04026 0.013227 0)
(1.03796 0.0113868 0)
(1.03643 0.00934948 0)
(1.03541 0.00735319 0)
(1.0344 0.00551971 0)
(1.02473 0.00387912 0)
(0.938583 0.00237009 0)
(0.632561 0.000965506 0)
(0.135378 9.80734e-05 0)
(0.152668 0.000149506 0)
(0.860309 0.00235524 0)
(1.03528 0.00429105 0)
(1.06392 0.00615351 0)
(1.06476 0.0081538 0)
(1.0633 0.010401 0)
(1.06104 0.0128575 0)
(1.05785 0.0153173 0)
(1.05355 0.0174015 0)
(1.04811 0.0185357 0)
(1.04261 0.0180943 0)
(1.03831 0.0163446 0)
(1.03527 0.0139673 0)
(1.0332 0.0114378 0)
(1.03183 0.00901332 0)
(1.0306 0.0068043 0)
(1.02064 0.00482011 0)
(0.933824 0.00296853 0)
(0.627621 0.00121573 0)
(0.13351 0.000123804 0)
(0.155532 0.000196602 0)
(0.867299 0.003059 0)
(1.0408 0.00555443 0)
(1.06878 0.00790797 0)
(1.0693 0.0104585 0)
(1.06742 0.0133941 0)
(1.06453 0.0165914 0)
(1.06046 0.0197011 0)
(1.05506 0.022256 0)
(1.04821 0.023504 0)
(1.04124 0.0227363 0)
(1.03576 0.0203998 0)
(1.03186 0.0173654 0)
(1.02919 0.0142095 0)
(1.02744 0.0112266 0)
(1.02595 0.00851777 0)
(1.01563 0.00606241 0)
(0.927867 0.00374091 0)
(0.621383 0.00153489 0)
(0.131166 0.000156994 0)
(0.159288 0.000260094 0)
(0.876427 0.00398391 0)
(1.04811 0.00717379 0)
(1.07529 0.0101049 0)
(1.07532 0.0133419 0)
(1.07284 0.0172211 0)
(1.06906 0.0213816 0)
(1.06379 0.0252887 0)
(1.05689 0.0284125 0)
(1.04821 0.0297998 0)
(1.03942 0.0286339 0)
(1.0325 0.0255711 0)
(1.02757 0.0217178 0)
(1.02421 0.017774 0)
(1.02198 0.0140901 0)
(1.02019 0.0107576 0)
(1.0094 0.0076997 0)
(0.920357 0.00474977 0)
(0.613482 0.00194549 0)
(0.128228 0.000200124 0)
(0.164282 0.000347427 0)
(0.888388 0.00522473 0)
(1.05769 0.00933173 0)
(1.08387 0.0130115 0)
(1.08324 0.0171767 0)
(1.07982 0.0222135 0)
(1.07488 0.0275362 0)
(1.06811 0.032498 0)
(1.05921 0.0362817 0)
(1.04816 0.0377744 0)
(1.03708 0.0360677 0)
(1.02841 0.0320824 0)
(1.02224 0.0272005 0)
(1.018 0.022266 0)
(1.01519 0.0177095 0)
(1.01299 0.0136222 0)
(1.00161 0.00983558 0)
(0.910927 0.00607524 0)
(0.60351 0.00246996 0)
(0.12456 0.000254229 0)
(0.17105 0.000478232 0)
(0.904067 0.00703363 0)
(1.06999 0.0123899 0)
(1.0949 0.017062 0)
(1.09342 0.0225406 0)
(1.08884 0.0290322 0)
(1.08234 0.0357619 0)
(1.0735 0.0418567 0)
(1.06201 0.0463105 0)
(1.04798 0.0478004 0)
(1.0341 0.0453334 0)
(1.0233 0.0401704 0)
(1.01562 0.0340055 0)
(1.01032 0.0278306 0)
(1.00675 0.0221742 0)
(1.00402 0.0171585 0)
(0.991925 0.0125107 0)
(0.899241 0.00777101 0)
(0.591109 0.00312758 0)
(0.120018 0.000316678 0)
(0.180411 0.000688894 0)
(0.924733 0.00986074 0)
(1.08595 0.0168249 0)
(1.10916 0.0228115 0)
(1.10635 0.029979 0)
(1.10012 0.0383015 0)
(1.09138 0.0466145 0)
(1.07974 0.0539199 0)
(1.06498 0.0590016 0)
(1.04734 0.060278 0)
(1.03015 0.0567495 0)
(1.01686 0.0501104 0)
(1.00738 0.042384 0)
(1.00079 0.0346903 0)
(0.996309 0.0276494 0)
(0.992896 0.0214545 0)
(0.979936 0.0157459 0)
(0.884884 0.00983974 0)
(0.575889 0.0039463 0)
(0.114408 0.000395917 0)
(0.19364 0.00104474 0)
(0.952347 0.0143571 0)
(1.10701 0.0234541 0)
(1.12775 0.031371 0)
(1.1228 0.0407712 0)
(1.11394 0.0512255 0)
(1.10196 0.0612516 0)
(1.08657 0.0696826 0)
(1.06773 0.0750771 0)
(1.04582 0.0757034 0)
(1.02485 0.0706931 0)
(1.00872 0.0622548 0)
(0.997162 0.0527037 0)
(0.989035 0.0432403 0)
(0.983423 0.0345425 0)
(0.97917 0.0268918 0)
(0.965107 0.0198689 0)
(0.867101 0.012546 0)
(0.557082 0.00502912 0)
(0.107545 0.000493449 0)
(0.212988 0.00170403 0)
(0.990033 0.0216399 0)
(1.13508 0.033694 0)
(1.15207 0.044343 0)
(1.14365 0.0566205 0)
(1.1308 0.0694753 0)
(1.11425 0.0811223 0)
(1.09391 0.0902243 0)
(1.07002 0.09528 0)
(1.04314 0.0945716 0)
(1.01794 0.0875209 0)
(0.998657 0.0769323 0)
(0.984716 0.0653339 0)
(0.974728 0.0539251 0)
(0.967652 0.0433889 0)
(0.962217 0.0340447 0)
(0.946635 0.0254573 0)
(0.844816 0.016273 0)
(0.533883 0.00652702 0)
(0.0991156 0.000632751 0)
(0.241999 0.00320284 0)
(1.04361 0.0350923 0)
(1.1723 0.0514002 0)
(1.18308 0.0656386 0)
(1.16892 0.0809052 0)
(1.15016 0.095571 0)
(1.12749 0.107842 0)
(1.10108 0.116505 0)
(1.07135 0.120179 0)
(1.03899 0.11722 0)
(1.00926 0.107481 0)
(0.986575 0.0943927 0)
(0.969983 0.0805942 0)
(0.95779 0.0671792 0)
(0.948815 0.054775 0)
(0.941617 0.0436339 0)
(0.923744 0.0334213 0)
(0.816638 0.0217615 0)
(0.505184 0.00864143 0)
(0.0893189 0.000784373 0)
(0.282949 0.0104144 -7.23432e-21)
(1.11426 0.0629149 -4.90526e-21)
(1.21814 0.083203 1.01635e-21)
(1.21814 0.101228 0)
(1.19587 0.117586 -3.45698e-35)
(1.16958 0.131971 6.49705e-22)
(1.13981 0.143066 -2.04249e-21)
(1.1067 0.149854 0)
(1.07068 0.151073 6.14807e-35)
(1.03238 0.145169 -4.37507e-21)
(0.997636 0.132426 0)
(0.971046 0.116807 -6.01239e-21)
(0.951218 0.100936 -1.82603e-20)
(0.936135 0.0857698 -8.79721e-21)
(0.924425 0.0719221 -2.74925e-21)
(0.914366 0.0595332 -1.66098e-21)
(0.893218 0.048299 0)
(0.780032 0.0338326 1.19395e-21)
(0.468888 0.0167536 1.41576e-21)
(0.0796084 0.00277591 2.52025e-20)
(0.307076 0.027761 -1.86325e-20)
(1.17108 0.109221 5.13594e-22)
(1.26012 0.132643 -8.39657e-22)
(1.25016 0.150368 0)
(1.22004 0.164962 6.16331e-23)
(1.18637 0.177513 -1.05259e-21)
(1.14961 0.186732 -1.6333e-21)
(1.10981 0.191384 -8.73332e-21)
(1.06718 0.190185 0)
(1.02221 0.181621 1.854e-20)
(0.981297 0.166399 2.0001e-20)
(0.949492 0.148929 6.32392e-21)
(0.925101 0.131767 2.46125e-20)
(0.905823 0.115717 3.60038e-20)
(0.890071 0.101211 0)
(0.875911 0.0887119 5.32627e-20)
(0.849661 0.0774592 7.80616e-20)
(0.739077 0.0597049 8.7233e-20)
(0.445196 0.0368144 -1.01266e-19)
(0.0775497 0.00681668 -1.86057e-21)
(0.300385 0.0453794 0)
(1.20374 0.168822 -6.09108e-21)
(1.29186 0.194871 0)
(1.27522 0.209445 8.13767e-21)
(1.2389 0.220324 0)
(1.19891 0.229348 1.27137e-21)
(1.15595 0.23522 2.59631e-21)
(1.11002 0.236768 -1.45149e-20)
(1.06136 0.232514 -1.54155e-21)
(1.01034 0.220943 9.10015e-21)
(0.96391 0.203264 4.59807e-20)
(0.927562 0.184313 -2.60871e-22)
(0.899383 0.166562 -1.83626e-20)
(0.876794 0.150638 -3.52697e-20)
(0.858113 0.136897 4.2723e-20)
(0.841435 0.125386 -7.66622e-20)
(0.815155 0.115261 -1.04923e-20)
(0.717398 0.0961079 0)
(0.448755 0.0623769 3.07609e-22)
(0.0851833 0.0124031 0)
(0.288511 0.0598713 -1.60269e-19)
(1.21805 0.231627 6.50205e-20)
(1.31173 0.261587 3.3476e-20)
(1.2915 0.273117 -5.79605e-21)
(1.25084 0.279965 8.68989e-21)
(1.20616 0.284872 -4.50998e-21)
(1.15827 0.286827 4.54597e-21)
(1.1073 0.284647 0)
(1.05353 0.276909 -3.80065e-20)
(0.997264 0.262044 0)
(0.946211 0.241801 -2.35055e-20)
(0.906439 0.221378 -3.22838e-20)
(0.87576 0.203142 -2.04142e-20)
(0.851371 0.187398 -2.60887e-20)
(0.831509 0.174182 0)
(0.814302 0.16347 0)
(0.789835 0.153823 -6.98767e-20)
(0.702193 0.133454 1.39647e-20)
(0.449586 0.0877251 -8.17013e-21)
(0.0885985 0.0178119 -9.58473e-21)
(0.277523 0.072741 1.2054e-19)
(1.22045 0.293818 0)
(1.32211 0.328994 -9.56561e-20)
(1.29985 0.337863 -2.28997e-20)
(1.2563 0.340826 -1.55165e-20)
(1.20839 0.341605 0)
(1.15676 0.339652 1.18189e-21)
(1.10178 0.333624 1.40119e-20)
(1.04378 0.32223 1.73618e-20)
(0.98329 0.303885 4.48408e-20)
(0.928611 0.280855 0)
(0.886251 0.258728 -6.9903e-20)
(0.85392 0.239601 -4.42357e-20)
(0.828555 0.223527 -2.65542e-20)
(0.808168 0.210346 1.72327e-19)
(0.790926 0.199861 2.10638e-20)
(0.768225 0.190252 1.00736e-19)
(0.687292 0.167543 -4.87462e-19)
(0.444622 0.110155 2.90171e-19)
(0.0887594 0.0224569 -3.50959e-19)
(0.268403 0.0842589 1.28711e-19)
(1.21563 0.353453 -2.34303e-20)
(1.32544 0.394989 1.7216e-20)
(1.30205 0.40167 4.52758e-20)
(1.25645 0.400963 2.6119e-20)
(1.20606 0.397988 1.61805e-21)
(1.15165 0.392271 -1.73104e-21)
(1.09353 0.382551 1.21159e-20)
(1.03209 0.367486 -3.7632e-20)
(0.967929 0.345615 0)
(0.910113 0.319583 -3.02818e-20)
(0.865727 0.295343 -1.47562e-21)
(0.832276 0.274842 -4.92242e-20)
(0.806408 0.257935 0)
(0.785991 0.244247 -3.74788e-20)
(0.769143 0.233391 -9.08569e-20)
(0.747813 0.223118 2.50777e-19)
(0.671031 0.197631 -2.50573e-19)
(0.435868 0.129541 3.56464e-19)
(0.0872632 0.026394 -3.71631e-19)
(0.261233 0.0949347 -5.81475e-22)
(1.20647 0.409872 2.91155e-20)
(1.32354 0.458552 8.37122e-20)
(1.29957 0.463475 -2.84075e-20)
(1.25257 0.459465 1.5213e-20)
(1.20031 0.453085 0)
(1.14369 0.443874 4.08532e-21)
(1.08293 0.430672 -1.09941e-20)
(1.01857 0.412105 -1.78412e-20)
(0.951343 0.38667 0)
(0.890962 0.35744 -2.97739e-20)
(0.844969 0.330751 -4.08799e-20)
(0.810711 0.308468 5.36596e-20)
(0.784629 0.290271 -3.40607e-20)
(0.764371 0.275616 -1.64467e-19)
(0.747965 0.263967 1.00749e-19)
(0.727614 0.252709 3.17831e-20)
(0.653558 0.224257 0)
(0.424896 0.146428 -3.45135e-19)
(0.0848575 0.0296971 -1.26889e-20)
(0.255735 0.105105 2.13464e-20)
(1.19484 0.462962 -3.3731e-20)
(1.31779 0.51901 -4.58533e-20)
(1.29357 0.522634 -8.69415e-20)
(1.24559 0.515757 7.60254e-20)
(1.19195 0.506362 -3.6545e-20)
(1.13357 0.494009 -8.68418e-21)
(1.07071 0.477569 -1.66263e-20)
(1.00392 0.455707 1.53828e-20)
(0.934 0.42677 -1.08734e-19)
(0.871195 0.394215 -3.60242e-20)
(0.8237 0.364797 0)
(0.788757 0.340369 5.85519e-20)
(0.762547 0.320491 7.20138e-20)
(0.742525 0.304527 8.82782e-20)
(0.726576 0.291771 -1.09781e-19)
(0.706999 0.279283 -3.30295e-20)
(0.635045 0.247835 3.92871e-20)
(0.412356 0.160997 0)
(0.08183 0.0323829 -2.76716e-20)
(0.25154 0.11485 -2.49306e-19)
(1.18203 0.512887 1.55841e-19)
(1.30922 0.576241 5.05625e-20)
(1.28495 0.57885 -6.71451e-20)
(1.23628 0.569482 4.64844e-20)
(1.18166 0.557414 -3.83167e-21)
(1.12194 0.542259 7.88136e-21)
(1.05731 0.522933 -6.42365e-21)
(0.988337 0.498019 -3.13503e-20)
(0.915903 0.465759 1.36971e-22)
(0.850775 0.429816 -1.08113e-19)
(0.801804 0.397444 1.03015e-19)
(0.76619 0.37054 -6.53975e-20)
(0.739883 0.348653 8.09094e-20)
(0.720119 0.331065 0)
(0.704631 0.316963 -5.96266e-20)
(0.685732 0.303027 -1.33204e-21)
(0.615529 0.268477 -1.71657e-19)
(0.39846 0.173359 -2.53785e-20)
(0.0782608 0.0343917 0)
(0.248409 0.124347 0)
(1.16876 0.559865 1.68688e-19)
(1.29867 0.630222 1.19191e-19)
(1.27448 0.632007 7.64165e-20)
(1.22535 0.620455 4.40496e-20)
(1.16997 0.606028 0)
(1.10916 0.588408 1.17637e-20)
(1.04305 0.566527 -1.27923e-21)
(0.972098 0.538917 6.62298e-20)
(0.897298 0.50358 -1.35725e-20)
(0.829851 0.464286 -7.90191e-20)
(0.779281 0.428793 5.18858e-20)
(0.742897 0.399124 -1.97732e-21)
(0.716431 0.374895 8.54653e-20)
(0.696909 0.355392 5.53544e-20)
(0.681895 0.339708 -1.29812e-19)
(0.663599 0.324111 1.57035e-19)
(0.594817 0.286231 4.70605e-20)
(0.383141 0.183386 1.94672e-19)
(0.0740742 0.0356549 -5.20912e-19)
(0.246163 0.133668 -6.4395e-20)
(1.15554 0.604065 9.81004e-20)
(1.28678 0.680963 -7.54982e-20)
(1.26269 0.682078 -8.97117e-20)
(1.21324 0.668602 0)
(1.15733 0.652092 3.53092e-20)
(1.09568 0.632339 -3.26947e-20)
(1.02834 0.608258 9.00179e-21)
(0.95561 0.578309 0)
(0.878378 0.540223 -2.06499e-19)
(0.808525 0.49774 2.14996e-19)
(0.756177 0.459005 0)
(0.718818 0.426329 7.74617e-20)
(0.692068 0.39943 -2.02143e-21)
(0.672747 0.377703 -1.75933e-19)
(0.658177 0.360131 6.90982e-20)
(0.640438 0.342682 0)
(0.572865 0.301163 2.55017e-19)
(0.366333 0.19108 0)
(0.0693319 0.036272 -2.48494e-19)
(0.244575 0.14281 7.18361e-20)
(1.14266 0.645646 1.12808e-19)
(1.27401 0.728515 -7.89271e-20)
(1.25006 0.729079 0)
(1.20044 0.713924 6.28274e-20)
(1.14417 0.69561 0)
(1.0819 0.674014 4.71878e-20)
(1.01349 0.648072 2.50366e-21)
(0.939114 0.616144 8.23255e-21)
(0.859425 0.575708 -1.01865e-19)
(0.786971 0.530277 2.10628e-20)
(0.732583 0.488306 0)
(0.693944 0.452399 -1.65292e-19)
(0.66666 0.42249 2.10298e-21)
(0.647423 0.398224 0)
(0.633281 0.37842 2.4366e-21)
(0.616108 0.358795 2.31797e-19)
(0.549538 0.31332 -2.23827e-19)
(0.347968 0.196344 6.60743e-20)
(0.0639907 0.0361119 0)
(0.243263 0.151646 0)
(1.13021 0.684744 1.26471e-19)
(1.26076 0.772984 9.33348e-20)
(1.23693 0.773071 -2.09914e-21)
(1.18726 0.75645 4.0125e-20)
(1.13078 0.736589 8.44764e-20)
(1.06804 0.713429 -1.47792e-20)
(0.99877 0.685953 -2.15488e-21)
(0.922878 0.652416 4.32196e-20)
(0.840807 0.610015 -1.5896e-19)
(0.765453 0.561984 -3.21011e-21)
(0.708621 0.516896 -6.82587e-20)
(0.668232 0.4776 2.71136e-19)
(0.640036 0.444395 -2.55284e-21)
(0.620724 0.41705 -1.39382e-19)
(0.607208 0.39473 -2.53828e-19)
(0.590594 0.372506 0)
(0.524662 0.322714 0)
(0.327867 0.19906 7.29195e-20)
(0.0580484 0.0351194 -4.25834e-20)
(0.242362 0.160315 8.96458e-20)
(1.11834 0.721175 -2.7704e-19)
(1.24731 0.814504 -9.98866e-20)
(1.22359 0.814157 0)
(1.17396 0.796259 -1.49963e-21)
(1.11741 0.775079 1.03607e-19)
(1.05435 0.750609 -5.37257e-20)
(0.984371 0.721891 -1.07502e-20)
(0.907123 0.687136 4.82843e-20)
(0.822718 0.643216 -1.23489e-19)
(0.744165 0.593059 -1.82147e-19)
(0.684381 0.545005 1.82217e-19)
(0.641719 0.502206 0)
(0.612186 0.465392 -6.3043e-20)
(0.592697 0.434498 -1.53229e-19)
(0.579657 0.409321 -1.84562e-19)
(0.563356 0.383994 -2.23969e-19)
(0.497624 0.329239 6.71847e-20)
(0.305725 0.198864 -3.94289e-20)
(0.0514752 0.0332487 5.33222e-22)
(0.241437 0.168602 0)
(1.10705 0.75553 0)
(1.23386 0.853231 2.41033e-21)
(1.21024 0.852469 0)
(1.16075 0.833467 -1.52709e-19)
(1.10423 0.811162 -9.29641e-20)
(1.041 0.785594 0)
(0.970454 0.755901 -4.89682e-21)
(0.891985 0.720299 6.776e-20)
(0.805259 0.67538 -2.83147e-19)
(0.723318 0.623574 0)
(0.66004 0.572831 -1.16933e-19)
(0.614773 0.526468 -3.10709e-21)
(0.583507 0.485766 -2.56278e-21)
(0.563277 0.451153 1.64384e-19)
(0.550103 0.422192 -3.26955e-22)
(0.533819 0.39325 -4.88219e-19)
(0.46808 0.332774 1.47115e-19)
(0.281312 0.195558 4.37453e-20)
(0.0442603 0.0304524 0)
(0.240489 0.176443 -3.30988e-19)
(1.09608 0.787781 -1.70421e-19)
(1.22053 0.889311 -2.51766e-19)
(1.19704 0.888143 3.4699e-19)
(1.14777 0.868168 -2.8804e-19)
(1.0914 0.844912 0)
(1.02813 0.818446 -4.87864e-20)
(0.957156 0.788019 8.6293e-21)
(0.87759 0.751911 3.70738e-21)
(0.788638 0.70648 2.2036e-20)
(0.703205 0.653484 2.291e-19)
(0.636058 0.600553 -4.01101e-20)
(0.58769 0.550902 -1.68106e-19)
(0.554029 0.506165 -7.52813e-20)
(0.532169 0.467094 9.16301e-20)
(0.518674 0.433842 -2.6769e-22)
(0.502183 0.40016 1.34619e-19)
(0.435845 0.332793 -3.19966e-19)
(0.254112 0.188546 3.82599e-19)
(0.0364154 0.0266665 5.53238e-20)
(0.239324 0.183847 1.21609e-19)
(1.08546 0.818033 -9.32056e-20)
(1.20744 0.922885 5.72849e-21)
(1.1841 0.921323 1.96844e-19)
(1.13511 0.900492 6.7814e-20)
(1.079 0.876411 1.87288e-19)
(1.01582 0.84923 -2.24345e-20)
(0.944576 0.818303 4.45253e-20)
(0.864094 0.781978 -5.24614e-20)
(0.773027 0.736491 -1.56483e-19)
(0.684072 0.682955 0)
(0.612598 0.628489 -1.8007e-19)
(0.559922 0.576192 2.44204e-19)
(0.522758 0.527147 0)
(0.498762 0.482747 -1.96551e-19)
(0.48434 0.444338 1.21984e-19)
(0.467795 0.405327 -1.45981e-19)
(0.400386 0.329533 -1.76577e-19)
(0.223696 0.177614 -3.12892e-19)
(0.0279704 0.0218546 -2.44272e-19)
(0.238298 0.190874 -1.33664e-19)
(1.07505 0.846314 9.9721e-20)
(1.19464 0.954087 2.35903e-19)
(1.17149 0.952127 2.71081e-19)
(1.12286 0.930545 -1.41957e-19)
(1.06709 0.905755 1.30564e-19)
(1.00413 0.878005 -6.97255e-20)
(0.932792 0.846805 5.93367e-20)
(0.851578 0.810546 -2.47419e-20)
(0.758503 0.765446 1.5165e-19)
(0.665874 0.71209 4.88329e-19)
(0.589698 0.656691 0)
(0.531704 0.602036 0)
(0.489698 0.548809 -8.70992e-20)
(0.462843 0.499415 0)
(0.44679 0.45374 2.66266e-19)
(0.430043 0.407053 3.20502e-19)
(0.361656 0.321408 0)
(0.191094 0.162408 0)
(0.0195036 0.0162917 2.67783e-19)
(0.236977 0.197269 1.47493e-19)
(1.06488 0.872803 1.20131e-19)
(1.18219 0.983057 1.69544e-19)
(1.15928 0.980706 -2.42632e-19)
(1.11106 0.958444 -1.58827e-19)
(1.05573 0.933031 -1.74309e-19)
(0.993105 0.904835 1.04347e-19)
(0.921835 0.873526 7.07936e-22)
(0.840085 0.837604 -4.76499e-21)
(0.745162 0.793303 -6.2046e-21)
(0.648857 0.740647 2.47834e-19)
(0.567928 0.685096 0)
(0.504208 0.628677 2.46619e-19)
(0.455855 0.572095 1.83683e-19)
(0.424427 0.517177 4.68686e-19)
(0.404743 0.46352 1.43647e-19)
(0.386799 0.405197 -1.78424e-19)
(0.319153 0.305844 -1.05579e-19)
(0.158843 0.142001 0)
(0.0125095 0.0105768 2.93014e-19)
(0.235835 0.203483 -3.24505e-19)
(1.05491 0.897606 0)
(1.17012 1.00993 1.8967e-19)
(1.14749 1.00717 -1.99027e-19)
(1.09974 0.984297 1.80545e-19)
(1.04491 0.958336 2.56021e-19)
(0.982755 0.929784 -2.45148e-19)
(0.911692 0.89851 9.88307e-22)
(0.82958 0.863132 0)
(0.733094 0.820002 -1.45848e-19)
(0.63332 0.768597 -5.16638e-19)
(0.547471 0.713511 2.47216e-20)
(0.477807 0.656445 3.35081e-19)
(0.422217 0.597801 0)
(0.383604 0.538947 3.15363e-19)
(0.357082 0.474966 0)
(0.333777 0.399018 0)
(0.269793 0.275079 -1.18461e-19)
(0.138239 0.106847 0)
(0.0247822 0.00925522 7.9278e-20)
(0.234337 0.209029 -3.54394e-19)
(1.04512 0.920759 0)
(1.15841 1.0349 3.07384e-19)
(1.13608 1.03176 0)
(1.08886 1.00835 -9.82526e-20)
(1.03458 0.981939 0)
(0.972986 0.953141 -1.86349e-20)
(0.90225 0.922071 -1.12288e-20)
(0.819938 0.88746 1.89065e-21)
(0.722107 0.845887 -1.46435e-19)
(0.619116 0.796391 1.37896e-20)
(0.528314 0.742597 2.03642e-19)
(0.452553 0.685524 3.24328e-19)
(0.389045 0.626495 4.60948e-20)
(0.340132 0.565277 2.45608e-19)
(0.301959 0.493654 0)
(0.260965 0.3938 3.89247e-19)
(0.194879 0.220172 -2.33749e-19)
(0.0699874 0.100032 2.7039e-19)
(-0.0295572 0.393787 -3.23211e-19)
(0.232823 0.214278 2.88921e-19)
(1.03539 0.942381 4.55258e-19)
(1.14696 1.05831 0)
(1.1249 1.05487 4.59138e-21)
(1.07824 1.03111 2.67299e-19)
(1.02451 1.00444 -4.98786e-19)
(0.963564 0.975601 -1.09637e-19)
(0.893246 0.945052 0)
(0.810853 0.911621 -9.02425e-21)
(0.711787 0.872227 -5.15892e-21)
(0.605575 0.825585 0)
(0.509562 0.774216 0)
(0.426995 0.718054 2.84383e-19)
(0.355304 0.660264 -1.43223e-19)
(0.293129 0.60203 -2.43444e-19)
(0.238649 0.526957 0)
(0.150294 0.397241 1.96557e-19)
(0.0462282 0.483881 -2.35517e-19)
(0.0513289 1.72719 -1.30029e-19)
(0.0855407 2.72545 -1.62279e-19)
(0.231048 0.218892 -2.11338e-19)
(1.0258 0.962651 -5.74054e-19)
(1.13577 1.08016 1.77104e-19)
(1.114 1.07638 1.69474e-19)
(1.06795 1.05243 0)
(1.01476 1.02561 -3.57977e-19)
(0.954629 0.996889 -1.85221e-19)
(0.884787 0.967052 7.94885e-21)
(0.802495 0.935113 -1.00108e-21)
(0.702415 0.898348 1.17224e-19)
(0.593124 0.855335 2.33338e-19)
(0.492061 0.807502 2.10777e-19)
(0.402614 0.753207 2.7889e-19)
(0.323193 0.69697 -3.25668e-19)
(0.249429 0.648056 -3.57754e-19)
(0.17393 0.581646 0)
(0.0853595 0.842315 0)
(0.13561 2.43295 1.0364e-19)
(0.145218 3.14992 0)
(0.144124 3.36486 2.47638e-19)
(0.232081 0.223267 0)
(1.01644 0.981786 0)
(1.12459 1.10035 0)
(1.10318 1.09614 4.72525e-20)
(1.05776 1.07212 2.39129e-19)
(1.00512 1.04532 -2.74331e-19)
(0.946092 1.01691 -1.33287e-19)
(0.876799 0.987941 9.23112e-21)
(0.794789 0.957736 -4.25482e-20)
(0.693959 0.924052 -1.03174e-20)
(0.581934 0.885463 4.25988e-19)
(0.475878 0.842297 -2.46409e-20)
(0.379704 0.791603 3.15442e-20)
(0.294165 0.733755 4.61552e-20)
(0.216421 0.701856 2.52183e-21)
(0.145475 0.947637 1.53447e-21)
(0.185053 2.55335 -4.96099e-19)
(0.209835 3.26354 -1.89798e-19)
(0.191399 3.42193 9.1118e-20)
(0.17199 3.44887 -9.52042e-20)
(0.152691 0.16718 1.2039e-19)
(1.00108 1.00275 0)
(1.11341 1.11906 -3.47852e-19)
(1.09284 1.11452 -4.40611e-19)
(1.04804 1.09066 4.98887e-19)
(0.996139 1.06397 2.91507e-19)
(0.937752 1.0357 1.562e-19)
(0.869295 1.00776 -1.63816e-19)
(0.787839 0.979597 5.09794e-20)
(0.686702 0.949397 0)
(0.572531 0.915695 1.86504e-19)
(0.462253 0.877769 -1.58145e-19)
(0.359256 0.833829 0)
(0.26951 0.776739 4.08073e-20)
(0.204271 0.885224 9.88415e-20)
(0.188352 2.18338 -1.20099e-19)
(0.278454 3.29751 1.34427e-19)
(0.256931 3.44471 6.63641e-20)
(0.215207 3.47171 7.67635e-20)
(0.187405 3.48317 1.00151e-19)
(0.26396 0.256396 -2.33507e-19)
(0.977961 1.00557 0)
(1.09295 1.1379 3.55226e-19)
(1.07852 1.1418 4.55355e-19)
(1.03294 1.11759 -5.14443e-19)
(0.981934 1.09135 -3.11572e-19)
(0.92452 1.06446 -2.43899e-19)
(0.857352 1.03826 -1.22185e-20)
(0.776656 1.01373 -8.25871e-20)
(0.674772 0.989861 3.4264e-20)
(0.557031 0.965963 7.76415e-21)
(0.438447 0.93818 1.23973e-19)
(0.326064 0.910276 2.61042e-20)
(0.249777 1.00342 -3.65169e-20)
(0.285435 2.11312 -8.40092e-20)
(0.356055 3.29543 6.12483e-20)
(0.347213 3.48593 -5.57104e-20)
(0.302413 3.5134 -3.2582e-20)
(0.259365 3.54282 1.32372e-21)
(0.198945 3.53304 -1.17114e-21)
(0.251738 0.25326 0)
(0.972525 1.02384 9.38478e-20)
(1.08336 1.15694 -7.04962e-20)
(1.06782 1.16023 -5.08141e-20)
(1.02308 1.13596 -3.38183e-19)
(0.973018 1.1098 3.04487e-19)
(0.916432 1.08318 1.64892e-19)
(0.850499 1.05814 -1.29859e-20)
(0.771014 1.03615 1.05707e-19)
(0.669762 1.01687 -1.44353e-20)
(0.551196 0.999843 -2.53084e-19)
(0.429672 0.980352 1.76307e-20)
(0.320604 0.973181 -2.28863e-20)
(0.299143 1.38309 -3.0129e-20)
(0.397427 2.94941 1.96349e-20)
(0.440453 3.47498 2.10809e-21)
(0.385677 3.55851 -2.48972e-20)
(0.341472 3.58458 -4.64477e-20)
(0.278881 3.60837 7.43598e-20)
(0.214334 3.599 2.65735e-20)
(0.235652 0.248648 2.31007e-19)
(0.965612 1.044 6.30711e-19)
(1.07286 1.17722 -2.00849e-19)
(1.05662 1.17972 -1.92887e-19)
(1.0128 1.15515 0)
(0.963732 1.12883 4.46655e-19)
(0.908336 1.10245 2.52371e-19)
(0.844055 1.07857 -1.3822e-20)
(0.766344 1.05931 1.08823e-20)
(0.666205 1.04485 3.40985e-20)
(0.547071 1.03457 -8.52676e-20)
(0.424696 1.02491 -1.22206e-19)
(0.334182 1.06883 -1.52637e-19)
(0.38454 1.93094 1.59174e-19)
(0.502493 3.33369 7.2172e-20)
(0.503079 3.55744 0)
(0.435817 3.61306 0)
(0.383719 3.66531 7.45752e-20)
(0.302282 3.72885 0)
(0.226325 3.68657 1.44614e-19)
(0.223623 0.247661 -3.36683e-19)
(0.956265 1.06439 -5.24535e-19)
(1.06076 1.19813 0)
(1.04416 1.19955 4.95176e-21)
(1.00134 1.17439 -3.29453e-19)
(0.953483 1.14776 6.64341e-19)
(0.899708 1.12156 1.70318e-19)
(0.837505 1.09881 -1.75242e-20)
(0.761957 1.08213 1.25433e-19)
(0.663344 1.07237 -5.58601e-21)
(0.543777 1.0689 0)
(0.422095 1.07089 0)
(0.369833 1.22778 -1.14056e-19)
(0.491839 2.54891 3.33337e-20)
(0.601685 3.49117 -1.38943e-20)
(0.558469 3.61221 0)
(0.507828 3.6773 1.92745e-19)
(0.431133 3.764 -2.92977e-19)