/*--------------------------------*- C++ -*----------------------------------*\
  =========                 |
  \\      /  F ield         | OpenFOAM: The Open Source CFD Toolbox
   \\    /   O peration     | Website:  https://openfoam.org
    \\  /    A nd           | Version:  6
     \\/     M anipulation  |
\*---------------------------------------------------------------------------*/
FoamFile
{
    version     2.0;
    format      ascii;
    class       volScalarField;
    location    "74.7";
    object      p;
}
// * * * * * * * * * * * * * * * * * * * * * * * * * * * * * * * * * * * * * //

dimensions      [0 2 -2 0 0 0 0];

internalField   nonuniform List<scalar> 
8800
(
0.835856
0.78654
0.748574
0.720504
0.70034
0.68575
0.675148
0.667601
0.662708
0.660627
0.661987
0.666321
0.673108
0.682526
0.695261
0.71258
0.736456
0.769553
0.81249
0.865004
0.67035
0.676695
0.685844
0.689391
0.686781
0.68069
0.673745
0.667498
0.662689
0.659809
0.659566
0.662184
0.666819
0.672943
0.68004
0.687072
0.69195
0.691825
0.68515
0.676252
0.643867
0.650102
0.654601
0.658471
0.661416
0.662362
0.661269
0.65914
0.657151
0.6563
0.657321
0.659766
0.662647
0.664914
0.665433
0.663644
0.660277
0.656264
0.651484
0.647768
0.639568
0.642334
0.644939
0.647095
0.648829
0.650394
0.651492
0.651838
0.651715
0.651802
0.652595
0.65373
0.654466
0.654313
0.653336
0.651981
0.650312
0.64801
0.6456
0.644034
0.634515
0.63594
0.637778
0.639857
0.641566
0.642855
0.643948
0.644921
0.64572
0.646445
0.647144
0.647597
0.647616
0.64725
0.646581
0.645466
0.643811
0.641917
0.640565
0.639762
0.629528
0.630431
0.631676
0.6333
0.634991
0.636519
0.637797
0.638912
0.639967
0.640972
0.641746
0.642129
0.642134
0.641765
0.640963
0.639775
0.638415
0.637151
0.636331
0.635807
0.624623
0.625279
0.626239
0.627554
0.628998
0.63051
0.631989
0.633346
0.634598
0.635791
0.63673
0.637218
0.637233
0.636796
0.636017
0.635077
0.634088
0.633185
0.632607
0.632222
0.619798
0.620303
0.621087
0.622225
0.623522
0.624935
0.626439
0.627972
0.629473
0.630917
0.632061
0.632665
0.632742
0.632422
0.631862
0.631177
0.630444
0.629784
0.629359
0.62906
0.614998
0.6154
0.616058
0.617077
0.618304
0.619665
0.621164
0.622797
0.624517
0.62625
0.627655
0.628459
0.628735
0.62865
0.628335
0.627875
0.62735
0.626886
0.626572
0.626329
0.610142
0.610469
0.611041
0.611982
0.613165
0.614517
0.616055
0.617794
0.619718
0.621758
0.623506
0.624624
0.625196
0.625384
0.625314
0.625086
0.624763
0.624463
0.624235
0.62403
0.60514
0.605411
0.605924
0.60682
0.60799
0.609373
0.610994
0.612883
0.61505
0.617449
0.619625
0.621151
0.62208
0.622578
0.622775
0.622786
0.622665
0.62251
0.622349
0.622172
0.599902
0.60013
0.600605
0.601488
0.602684
0.604142
0.605889
0.607984
0.610464
0.613311
0.61601
0.618022
0.619368
0.620221
0.62072
0.620974
0.621064
0.621045
0.620941
0.620783
0.594333
0.594528
0.594985
0.595883
0.597148
0.598724
0.600654
0.603025
0.605906
0.609307
0.612641
0.615232
0.617067
0.618328
0.619166
0.619694
0.620004
0.620113
0.620056
0.619911
0.588328
0.588497
0.588952
0.589896
0.591268
0.593016
0.595195
0.597926
0.60131
0.605394
0.609497
0.612782
0.615194
0.616928
0.618158
0.619011
0.619543
0.619775
0.619759
0.619621
0.581764
0.58191
0.582381
0.583397
0.584923
0.586903
0.589411
0.592599
0.596611
0.60153
0.606563
0.610678
0.613775
0.616067
0.617744
0.618949
0.619741
0.620105
0.620126
0.619992
0.574497
0.57462
0.575119
0.57624
0.57797
0.580253
0.583181
0.586945
0.591734
0.597674
0.603827
0.608933
0.612841
0.615789
0.617995
0.619614
0.620694
0.621192
0.621248
0.621113
0.566334
0.566444
0.566984
0.56824
0.570235
0.572904
0.576362
0.580846
0.586594
0.593778
0.601279
0.607564
0.612429
0.616151
0.618991
0.621092
0.622496
0.623137
0.623223
0.623083
0.557028
0.557132
0.55773
0.559161
0.561502
0.564661
0.568786
0.574168
0.581101
0.589797
0.598913
0.606597
0.61259
0.617222
0.62081
0.623477
0.625247
0.626037
0.626151
0.626003
0.546268
0.546355
0.54704
0.548713
0.551493
0.555276
0.560245
0.566753
0.57515
0.585685
0.596731
0.60606
0.613379
0.619082
0.623527
0.626862
0.629041
0.629984
0.630121
0.62996
0.533664
0.533738
0.534528
0.536512
0.539853
0.54444
0.550489
0.558421
0.568637
0.581411
0.594749
0.605997
0.614846
0.621793
0.62724
0.631337
0.633958
0.63505
0.635201
0.635025
0.518641
0.518708
0.519644
0.522044
0.526124
0.531765
0.539216
0.548968
0.56146
0.576951
0.592992
0.606454
0.617048
0.625416
0.632013
0.636955
0.64004
0.641265
0.641418
0.641224
0.500402
0.500461
0.501615
0.504603
0.509695
0.516759
0.526074
0.538191
0.553544
0.57232
0.591508
0.607484
0.620041
0.630004
0.637859
0.643735
0.647273
0.648596
0.648733
0.648519
0.477754
0.477818
0.479321
0.483193
0.489739
0.498802
0.510674
0.525914
0.544873
0.567588
0.59038
0.609147
0.623862
0.635573
0.644793
0.651628
0.655558
0.656919
0.65702
0.656786
0.448875
0.44897
0.451076
0.456376
0.465184
0.477196
0.492681
0.512085
0.535555
0.562911
0.589741
0.61153
0.628544
0.642096
0.65276
0.660501
0.664693
0.666004
0.666047
0.665797
0.410633
0.410859
0.414203
0.42214
0.434766
0.451334
0.471985
0.496871
0.525859
0.55854
0.589764
0.614732
0.634111
0.64953
0.661641
0.670115
0.674354
0.675507
0.675472
0.675215
0.357059
0.358181
0.36484
0.378249
0.397551
0.421172
0.448973
0.480774
0.51623
0.554798
0.590646
0.618846
0.640579
0.6578
0.671206
0.680119
0.68411
0.685004
0.684888
0.684632
0.279518
0.287124
0.302416
0.325874
0.35515
0.388208
0.424705
0.464407
0.506987
0.551913
0.592682
0.624307
0.648578
0.667709
0.682209
0.691235
0.694798
0.695419
0.69525
0.695029
0.19707
0.213678
0.238509
0.272765
0.312543
0.355185
0.400401
0.448127
0.498138
0.549973
0.596399
0.632074
0.659302
0.680581
0.696072
0.704696
0.707503
0.707832
0.707683
0.70754
0.126404
0.146708
0.179501
0.223041
0.272152
0.323818
0.377521
0.433137
0.490404
0.548839
0.600512
0.639816
0.66957
0.692434
0.708303
0.716165
0.718359
0.718592
0.718492
0.718383
0.0685531
0.0911212
0.129383
0.179578
0.23599
0.295219
0.35642
0.419277
0.483344
0.548001
0.604569
0.647173
0.679085
0.703141
0.719151
0.726544
0.728486
0.728719
0.728671
0.728584
0.0206332
0.0445434
0.0867639
0.142152
0.204406
0.26986
0.337458
0.406722
0.477003
0.547492
0.6087
0.654448
0.688385
0.713592
0.72983
0.736986
0.738768
0.739008
0.739008
0.73894
-0.0199918
0.00470909
0.0498462
0.109459
0.176637
0.247412
0.320562
0.395517
0.471467
0.547422
0.613089
0.661883
0.697852
0.724237
0.74083
0.747888
0.749673
0.749926
0.749959
0.749908
-0.0553785
-0.0301596
0.0172546
0.0803726
0.151773
0.227198
0.305295
0.38542
0.466623
0.547736
0.617729
0.669549
0.707555
0.735172
0.752278
0.759552
0.761356
0.761609
0.761654
0.761616
-0.0870428
-0.0614101
-0.0121249
0.0539824
0.12905
0.208581
0.291149
0.376036
0.462174
0.548242
0.622449
0.67728
0.717347
0.746315
0.764112
0.771692
0.773565
0.773804
0.773837
0.773813
-0.116027
-0.0900168
-0.0391377
0.0295726
0.107875
0.191061
0.277684
0.366982
0.457817
0.548706
0.627047
0.684877
0.727021
0.757358
0.775912
0.783812
0.785799
0.786015
0.786028
0.786013
-0.143159
-0.116746
-0.0644414
0.00661607
0.0877865
0.174249
0.264564
0.357972
0.453272
0.548848
0.631327
0.692145
0.736366
0.768047
0.787323
0.795541
0.79764
0.797854
0.797833
0.797818
-0.168851
-0.142052
-0.0884371
-0.0152911
0.0684429
0.157859
0.251552
0.348767
0.448304
0.548483
0.635127
0.698954
0.745209
0.778179
0.798089
0.80659
0.808768
0.808952
0.808893
0.808868
-0.193571
-0.166308
-0.111479
-0.0364376
0.0496005
0.141679
0.238456
0.339205
0.442772
0.547476
0.638321
0.705236
0.753508
0.787644
0.808074
0.816719
0.818916
0.819069
0.818971
0.818935
-0.21747
-0.189735
-0.133762
-0.0570096
0.0310937
0.125576
0.225163
0.329192
0.436569
0.545688
0.640827
0.710941
0.761257
0.796442
0.817189
0.825848
0.828006
0.828115
0.827983
0.827933
-0.240695
-0.212455
-0.155424
-0.0771172
0.012838
0.109481
0.211617
0.318653
0.429605
0.543024
0.642554
0.716072
0.768517
0.804647
0.825497
0.834009
0.836052
0.836115
0.835955
0.835894
-0.263353
-0.234595
-0.17653
-0.0968123
-0.00521587
0.0933647
0.197796
0.307567
0.421844
0.539419
0.643415
0.720609
0.775403
0.81245
0.83318
0.841301
0.843138
0.843132
0.842955
0.842884
-0.285518
-0.256171
-0.197102
-0.116112
-0.0230597
0.0772292
0.183713
0.29595
0.413282
0.534801
0.643324
0.724522
0.782031
0.820075
0.840443
0.84789
0.849363
0.849262
0.849074
0.848998
-0.307064
-0.277158
-0.217132
-0.135016
-0.0406789
0.0611197
0.169406
0.283849
0.403942
0.529152
0.642186
0.727733
0.788461
0.827819
0.847672
0.854033
0.85485
0.854589
0.854412
0.854346
-0.32798
-0.297535
-0.236623
-0.153497
-0.0580326
0.0450804
0.154949
0.271314
0.393874
0.522471
0.639919
0.730117
0.794676
0.835946
0.855434
0.860293
0.859895
0.859232
0.85911
0.859117
-0.348322
-0.317282
-0.255561
-0.171535
-0.075071
0.0291809
0.140413
0.258432
0.383149
0.514783
0.636434
0.731525
0.800523
0.844536
0.864366
0.867741
0.865385
0.863581
0.863389
0.863775
-0.367953
-0.336378
-0.273898
-0.189074
-0.0917472
0.0134962
0.125887
0.245299
0.371864
0.506159
0.631669
0.731767
0.805745
0.853347
0.874758
0.877729
0.873417
0.869188
0.867214
0.866545
-0.386964
-0.354834
-0.291644
-0.206148
-0.108099
-0.00201444
0.111318
0.231859
0.359948
0.496535
0.625466
0.730588
0.810105
0.86195
0.886253
0.890901
0.88635
0.878811
0.869627
0.870655
-0.405278
-0.372719
-0.308937
-0.222954
-0.124418
-0.0176745
0.0963009
0.217639
0.346878
0.485311
0.617209
0.72728
0.813252
0.86991
0.897625
0.9057
0.901447
0.889122
0.869831
0.869078
-0.422768
-0.390002
-0.325617
-0.239309
-0.140444
-0.0331876
0.081032
0.202951
0.332924
0.472692
0.606878
0.721055
0.814204
0.875951
0.904851
0.913585
0.910162
0.883038
0.825717
0.801211
-0.439319
-0.407598
-0.341291
-0.254777
-0.155392
-0.0480717
0.0657928
0.188068
0.318366
0.458841
0.59451
0.711252
0.811737
0.878902
0.902874
0.906439
0.889266
0.835733
0.773469
0.735653
-0.481739
-0.424813
-0.355666
-0.270272
-0.170015
-0.0632987
0.0507274
0.172866
0.302992
0.443387
0.579658
0.69715
0.801865
0.874823
0.888562
0.870906
0.818963
0.751265
0.681461
0.643052
-0.456696
-0.438427
-0.377552
-0.291437
-0.192674
-0.0861877
0.0271639
0.148688
0.27799
0.417167
0.552424
0.668515
0.765391
0.845949
0.825584
0.711904
0.618039
0.552863
0.487521
0.51285
-0.487158
-0.455711
-0.393983
-0.308366
-0.209976
-0.10364
0.00989765
0.13078
0.259097
0.39659
0.529416
0.642197
0.727848
0.773397
0.717401
0.573545
0.461408
0.385824
0.302483
0.3461
-0.510721
-0.476896
-0.413459
-0.327798
-0.229462
-0.123142
-0.0097246
0.110369
0.237338
0.372475
0.501512
0.608337
0.682432
0.689636
0.578549
0.41984
0.288111
0.193611
0.0970519
0.126836
-0.533622
-0.498767
-0.433981
-0.347676
-0.249273
-0.143082
-0.0301914
0.0889291
0.214294
0.346614
0.470732
0.569019
0.626312
0.599846
0.437511
0.257632
0.0956621
-0.0397864
-0.165216
-0.153985
-0.556238
-0.521011
-0.455333
-0.368448
-0.269926
-0.16397
-0.0517597
0.0662187
0.189659
0.318685
0.436954
0.526746
0.562989
0.48977
0.298615
0.0991448
-0.0894409
-0.244574
-0.450572
-0.529944
-0.579256
-0.544094
-0.477895
-0.390605
-0.291944
-0.186191
-0.0746087
0.0421715
0.163526
0.288929
0.400801
0.481143
0.490818
0.366345
0.17182
-0.0393218
-0.232788
-0.395319
-0.519503
-0.637077
-0.603748
-0.568501
-0.502025
-0.414531
-0.315869
-0.210426
-0.0995827
0.0157999
0.134687
0.255847
0.360838
0.42802
0.409814
0.249136
0.053126
-0.151949
-0.328714
-0.426718
-0.452985
-0.46642
-0.629841
-0.594523
-0.527853
-0.440317
-0.341846
-0.2369
-0.127061
-0.0134144
0.102517
0.218634
0.316272
0.365313
0.327489
0.136283
-0.0575904
-0.242473
-0.376124
-0.414339
-0.42321
-0.42354
-0.657814
-0.622285
-0.555421
-0.467952
-0.369827
-0.265625
-0.157072
-0.0455355
0.0669375
0.177257
0.266451
0.298898
0.228709
0.0330177
-0.154395
-0.315099
-0.390442
-0.40456
-0.405574
-0.40543
-0.687676
-0.651821
-0.584746
-0.497436
-0.399832
-0.296598
-0.189632
-0.0805897
0.0279545
0.131817
0.211223
0.228715
0.119764
-0.0606795
-0.237652
-0.365022
-0.394496
-0.395239
-0.395816
-0.395385
-0.71917
-0.682961
-0.615732
-0.52869
-0.43178
-0.329769
-0.224722
-0.118561
-0.0143859
0.0824469
0.151884
0.150088
0.0232067
-0.146792
-0.303445
-0.375877
-0.39124
-0.389902
-0.389836
-0.389485
-0.751736
-0.715358
-0.648111
-0.561482
-0.46548
-0.364982
-0.262194
-0.159332
-0.0598698
0.0295729
0.0888745
0.0707038
-0.0656462
-0.222429
-0.347481
-0.384948
-0.384675
-0.385543
-0.3856
-0.385373
-0.784929
-0.748475
-0.681392
-0.595389
-0.500577
-0.40191
-0.301762
-0.202625
-0.108204
-0.0258804
0.020865
-0.00420682
-0.146323
-0.28216
-0.37368
-0.381708
-0.382649
-0.382786
-0.382552
-0.382426
-0.817783
-0.781423
-0.714833
-0.629765
-0.536507
-0.440064
-0.34295
-0.247948
-0.158963
-0.0830818
-0.047159
-0.0788786
-0.215201
-0.326379
-0.379892
-0.389713
-0.383415
-0.380642
-0.379753
-0.379517
-0.848457
-0.812903
-0.747386
-0.663705
-0.572474
-0.478724
-0.385079
-0.294555
-0.211377
-0.141599
-0.110103
-0.156348
-0.271208
-0.362581
-0.387178
-0.387771
-0.383197
-0.379714
-0.378664
-0.37818
-0.875858
-0.841388
-0.77763
-0.695989
-0.607398
-0.516925
-0.427261
-0.341509
-0.264227
-0.200911
-0.171467
-0.223823
-0.31479
-0.382316
-0.406646
-0.396978
-0.391069
-0.38845
-0.386928
-0.385993
-0.897251
-0.864748
-0.803782
-0.725066
-0.639938
-0.553461
-0.468367
-0.387746
-0.316205
-0.259233
-0.232513
-0.277321
-0.346137
-0.388912
-0.392431
-0.399948
-0.404198
-0.404072
-0.402415
-0.401874
-0.91053
-0.880821
-0.823733
-0.749158
-0.668535
-0.586923
-0.507042
-0.432029
-0.366161
-0.313948
-0.288411
-0.322596
-0.369628
-0.400548
-0.397847
-0.40252
-0.40464
-0.404592
-0.404602
-0.404955
-0.912958
-0.887174
-0.835337
-0.766383
-0.691514
-0.615815
-0.541834
-0.472816
-0.412885
-0.364396
-0.335403
-0.362519
-0.387405
-0.412855
-0.409147
-0.405836
-0.404369
-0.403464
-0.403298
-0.403216
-0.90223
-0.881273
-0.836441
-0.774955
-0.707365
-0.638712
-0.571414
-0.508464
-0.454628
-0.411612
-0.369813
-0.39892
-0.39244
-0.406818
-0.404364
-0.402312
-0.401804
-0.401745
-0.401628
-0.401521
-0.875795
-0.860405
-0.825087
-0.773595
-0.715022
-0.654573
-0.594711
-0.537883
-0.489406
-0.45368
-0.408419
-0.409067
-0.404403
-0.409805
-0.412464
-0.405598
-0.399143
-0.398872
-0.39951
-0.399591
-0.837081
-0.827243
-0.802345
-0.762519
-0.714428
-0.663173
-0.611078
-0.560627
-0.516411
-0.48628
-0.456768
-0.429545
-0.406883
-0.41792
-0.433611
-0.419276
-0.408656
-0.406091
-0.406256
-0.406154
-0.793155
-0.787562
-0.773173
-0.744802
-0.707652
-0.665354
-0.620711
-0.576223
-0.535609
-0.505859
-0.478093
-0.448044
-0.411131
-0.383775
-0.363233
-0.37796
-0.40812
-0.421678
-0.423262
-0.422908
-0.754107
-0.750725
-0.743895
-0.72583
-0.697735
-0.662909
-0.624743
-0.584607
-0.545923
-0.513739
-0.486096
-0.46613
-0.444229
-0.436569
-0.437089
-0.459201
-0.470862
-0.467857
-0.460621
-0.463499
-0.725996
-0.723986
-0.72048
-0.709792
-0.688436
-0.659147
-0.624864
-0.587154
-0.547709
-0.51147
-0.485688
-0.47607
-0.50583
-0.569344
-0.65616
-0.732667
-0.746201
-0.706661
-0.645621
-0.627607
-0.70544
-0.704726
-0.70354
-0.698248
-0.682481
-0.656654
-0.623679
-0.585462
-0.543457
-0.502265
-0.471092
-0.452333
-0.459117
-0.525383
-0.595804
-0.59263
-0.604453
-0.60594
-0.584917
-0.572178
-0.693526
-0.693304
-0.692725
-0.690228
-0.67937
-0.655455
-0.621902
-0.581646
-0.535485
-0.48411
-0.442527
-0.394255
-0.358634
-0.34515
-0.387397
-0.442371
-0.433834
-0.384659
-0.331318
-0.304612
-0.685231
-0.6851
-0.684713
-0.68389
-0.677072
-0.65546
-0.620932
-0.577881
-0.525108
-0.460398
-0.397394
-0.312282
-0.200121
-0.0786546
0.0196788
0.0878821
0.1795
0.282481
0.360393
0.396379
-0.679786
-0.679683
-0.679376
-0.678986
-0.674793
-0.657066
-0.621957
-0.574096
-0.513412
-0.439315
-0.350429
-0.24631
-0.056607
0.211006
0.51342
0.786732
1.01315
1.15891
1.22737
1.25173
-0.676412
-0.676266
-0.675799
-0.675059
-0.673714
-0.660945
-0.62606
-0.571894
-0.505774
-0.421086
-0.321206
-0.209162
0.0060484
0.341858
0.732343
1.10214
1.39361
1.55784
1.62385
1.63969
-0.675428
-0.67558
-0.675854
-0.676007
-0.676671
-0.66961
-0.633635
-0.572961
-0.501816
-0.414081
-0.309811
-0.195915
-0.00402636
0.317095
0.671555
0.999311
1.26376
1.41453
1.46581
1.47517
-0.67326
-0.674762
-0.678806
-0.686111
-0.693566
-0.68516
-0.640546
-0.57586
-0.505445
-0.419237
-0.315389
-0.214579
-0.0657025
0.200022
0.477431
0.727698
0.918869
1.01566
1.04726
1.05212
-0.666987
-0.669214
-0.675246
-0.688524
-0.701416
-0.687163
-0.636375
-0.581251
-0.519932
-0.433243
-0.33238
-0.244484
-0.127356
0.0672326
0.265995
0.423019
0.527279
0.578161
0.599112
0.605426
-0.681985
-0.683503
-0.682482
-0.666127
-0.638307
-0.625043
-0.610955
-0.591325
-0.539074
-0.451045
-0.359197
-0.284925
-0.200282
-0.0507711
0.0880949
0.186764
0.247989
0.281992
0.300533
0.307689
-0.719315
-0.719
-0.710267
-0.666323
-0.595308
-0.564612
-0.603978
-0.614509
-0.563051
-0.47035
-0.389778
-0.324238
-0.260761
-0.149306
-0.0332238
0.0540162
0.110365
0.143812
0.159738
0.164489
-0.768172
-0.765344
-0.767235
-0.757394
-0.741265
-0.714065
-0.723148
-0.68669
-0.597502
-0.492853
-0.41736
-0.36109
-0.312032
-0.217335
-0.11723
-0.036555
0.0236103
0.0624254
0.0771759
0.0794179
-0.8875
-0.898092
-0.943772
-1.00053
-1.02519
-0.999674
-0.929478
-0.801643
-0.642747
-0.520485
-0.439416
-0.384207
-0.348106
-0.263579
-0.169633
-0.101571
-0.0505199
-0.0188356
-0.00826176
-0.00716707
-1.03778
-1.06089
-1.11438
-1.16569
-1.18946
-1.16236
-1.06845
-0.869846
-0.671312
-0.540664
-0.445952
-0.389949
-0.362162
-0.291554
-0.212932
-0.157902
-0.112191
-0.0867776
-0.0768225
-0.0762545
-1.07677
-1.09787
-1.13375
-1.16896
-1.18663
-1.16226
-1.05284
-0.831038
-0.655587
-0.529084
-0.428798
-0.383535
-0.351051
-0.296697
-0.234616
-0.191372
-0.157605
-0.13881
-0.132354
-0.132867
-0.947932
-0.96488
-0.996226
-1.03031
-1.05064
-1.0278
-0.906958
-0.728437
-0.589363
-0.470649
-0.400269
-0.352879
-0.332372
-0.289474
-0.245815
-0.214314
-0.189411
-0.175567
-0.171405
-0.172613
-0.662824
-0.680393
-0.714209
-0.755924
-0.786334
-0.769259
-0.684382
-0.576887
-0.475781
-0.397126
-0.353888
-0.313034
-0.296891
-0.271794
-0.246483
-0.227414
-0.212704
-0.205045
-0.203083
-0.204469
-0.312035
-0.324339
-0.350325
-0.387418
-0.421867
-0.43198
-0.416829
-0.388403
-0.351014
-0.324484
-0.292089
-0.270728
-0.261571
-0.25048
-0.243099
-0.238037
-0.234387
-0.234045
-0.234424
-0.235572
-0.0314831
-0.0382531
-0.0556599
-0.0868281
-0.129632
-0.173789
-0.207322
-0.230901
-0.243999
-0.2428
-0.23695
-0.228895
-0.22894
-0.229797
-0.236287
-0.243686
-0.252228
-0.259133
-0.261275
-0.26166
0.116003
0.112302
0.100305
0.0743335
0.0318221
-0.0243219
-0.0814419
-0.127934
-0.158267
-0.180299
-0.189471
-0.187624
-0.194432
-0.205906
-0.222893
-0.238756
-0.253451
-0.262627
-0.264944
-0.264998
0.15805
0.155575
0.146739
0.126149
0.0902985
0.0425724
-0.0106439
-0.0621611
-0.104474
-0.134014
-0.14961
-0.154445
-0.163581
-0.180642
-0.201365
-0.220168
-0.235321
-0.242745
-0.244431
-0.244508
0.147874
0.146154
0.139764
0.12476
0.098116
0.0601975
0.0170614
-0.0276875
-0.0674992
-0.100376
-0.125081
-0.136031
-0.146638
-0.163178
-0.179319
-0.192501
-0.202446
-0.20673
-0.207593
-0.20784
0.11975
0.118662
0.11434
0.104021
0.0855118
0.058669
0.025238
-0.0116847
-0.0471154
-0.0807226
-0.11218
-0.137351
-0.15236
-0.155703
-0.160573
-0.163482
-0.165816
-0.166369
-0.166379
-0.166751
0.0884765
0.0879
0.0851798
0.0784324
0.0659716
0.0472428
0.0233287
-0.00439147
-0.0340087
-0.065376
-0.102633
-0.141541
-0.158936
-0.145858
-0.138234
-0.13431
-0.131775
-0.129927
-0.129321
-0.129558
0.058769
0.0585539
0.0570479
0.0530028
0.0452052
0.0331122
0.0170162
-0.00196379
-0.0235163
-0.0492276
-0.0834256
-0.122204
-0.135722
-0.117573
-0.104964
-0.10027
-0.096908
-0.0950178
-0.0945224
-0.0947104
0.0317152
0.0317166
0.0311084
0.0291375
0.025051
0.0185737
0.00972626
-0.000913446
-0.0136348
-0.0280606
-0.0502866
-0.0740783
-0.0760215
-0.0668377
-0.0605048
-0.0593175
-0.0590564
-0.0589705
-0.0587878
-0.0587489
0.0058804
0.00598741
0.00610304
0.0062707
0.0059821
0.00499507
0.00332826
0.00125433
-0.00105414
-0.00398556
-0.00672
-0.0118366
-0.0141864
-0.0151544
-0.0152925
-0.0150258
-0.0145514
-0.0147049
-0.0147394
-0.0139741
-0.0233453
0.164959
0.337842
0.48411
0.601113
0.693346
0.769953
0.832176
0.847906
0.844427
0.265502
0.38639
0.499647
0.59785
0.68037
0.748409
0.801979
0.838198
0.857616
0.874283
0.461218
0.541785
0.62145
0.691305
0.750778
0.800058
0.838883
0.868506
0.890825
0.910077
0.606146
0.663281
0.720825
0.772431
0.816975
0.854859
0.886669
0.91339
0.933568
0.952461
0.722531
0.76548
0.808083
0.848002
0.883699
0.915274
0.942894
0.966312
0.984201
1.00225
0.819042
0.854573
0.889601
0.92315
0.95408
0.9821
1.00685
1.02763
1.04336
1.06083
0.90708
0.938934
0.971091
1.00218
1.03108
1.05735
1.0804
1.09928
1.11317
1.13018
0.993837
1.02633
1.05867
1.0898
1.11852
1.14426
1.16634
1.18384
1.1962
1.21272
1.08809
1.12448
1.1592
1.19162
1.22075
1.24607
1.26716
1.28342
1.29502
1.31116
1.2011
1.24172
1.27871
1.31162
1.34007
1.36403
1.38364
1.39889
1.41078
1.42685
1.34253
1.38354
1.41876
1.44831
1.4735
1.49509
1.51358
1.52906
1.54217
1.55811
1.514
1.54627
1.57318
1.5955
1.61558
1.63429
1.65203
1.66879
1.6837
1.69943
1.70025
1.7175
1.73461
1.75129
1.76739
1.78212
1.79602
1.8105
1.82573
1.84303
1.88364
1.8936
1.90678
1.91777
1.92717
1.93683
1.94744
1.95761
1.9669
1.99256
2.10151
2.09581
2.08286
2.0686
2.0623
2.06801
2.08615
2.11468
2.14844
2.18477
2.40433
2.26837
2.18887
2.14634
2.12901
2.133
2.16042
2.21829
2.32595
2.50436
0.739549
0.733247
0.725517
0.714404
0.700834
0.688188
0.677794
0.669789
0.66408
0.660764
0.660434
0.66329
0.668541
0.675913
0.685473
0.69731
0.710878
0.723811
0.732803
0.740345
0.648612
0.654532
0.662606
0.66874
0.67181
0.671301
0.668219
0.664231
0.660653
0.658385
0.658275
0.660553
0.664329
0.668791
0.672905
0.675159
0.674092
0.66946
0.662408
0.654576
0.641854
0.644226
0.647495
0.65027
0.652723
0.654916
0.6561
0.655962
0.655037
0.654249
0.654492
0.655936
0.657743
0.658991
0.65893
0.657475
0.655325
0.652969
0.649991
0.646975
0.637052
0.638141
0.640059
0.642399
0.644275
0.645678
0.646903
0.647906
0.648521
0.648922
0.64951
0.650289
0.650785
0.65069
0.65008
0.649171
0.64785
0.645888
0.643786
0.64231
0.632012
0.632646
0.633777
0.635538
0.637386
0.638985
0.640245
0.641321
0.642321
0.643248
0.644075
0.644638
0.644812
0.644633
0.644118
0.643161
0.641746
0.640146
0.638814
0.638014
0.627067
0.627506
0.628296
0.629604
0.631132
0.632703
0.634192
0.635503
0.636679
0.6378
0.638802
0.639457
0.639679
0.639479
0.638842
0.637864
0.636726
0.635594
0.634698
0.634166
0.622206
0.622533
0.623148
0.624222
0.625525
0.626935
0.628426
0.629918
0.631336
0.632679
0.633885
0.634694
0.634974
0.634773
0.63421
0.633453
0.632627
0.631788
0.631135
0.630744
0.617403
0.617657
0.618153
0.61907
0.620252
0.621572
0.62301
0.624559
0.62617
0.62778
0.629247
0.630243
0.630652
0.630607
0.630267
0.629755
0.629147
0.628539
0.628067
0.627769
0.612586
0.612787
0.613201
0.614009
0.615115
0.616392
0.61782
0.619419
0.621177
0.623044
0.62482
0.626097
0.626758
0.626971
0.626882
0.626604
0.626211
0.625798
0.625468
0.625235
0.607668
0.60783
0.608186
0.608922
0.609985
0.611246
0.612709
0.614399
0.616326
0.618464
0.620608
0.622268
0.623276
0.623797
0.623979
0.623944
0.623771
0.62354
0.623327
0.623141
0.60256
0.602691
0.603005
0.603699
0.604748
0.606039
0.607577
0.609404
0.611554
0.614027
0.616619
0.618753
0.620177
0.621057
0.621545
0.621772
0.621821
0.621766
0.621654
0.621503
0.59717
0.597275
0.597562
0.598238
0.599309
0.600674
0.602331
0.604352
0.606796
0.609693
0.612836
0.61554
0.617454
0.618747
0.619584
0.620097
0.620386
0.620507
0.620483
0.62036
0.591398
0.591482
0.591752
0.592436
0.593565
0.595045
0.596878
0.59916
0.601983
0.605409
0.609227
0.612616
0.615112
0.616888
0.618121
0.618971
0.619524
0.619814
0.619869
0.619767
0.585131
0.585195
0.58546
0.586173
0.587396
0.58904
0.591113
0.593738
0.597041
0.601123
0.605762
0.609976
0.613165
0.615509
0.617202
0.618432
0.619274
0.61975
0.619882
0.619796
0.578233
0.578279
0.578545
0.579311
0.580668
0.582531
0.58492
0.587983
0.591887
0.596776
0.602414
0.607617
0.611631
0.614647
0.616881
0.61854
0.619719
0.620398
0.620605
0.620531
0.570552
0.570573
0.570842
0.571686
0.573221
0.575368
0.57816
0.581776
0.586429
0.592308
0.599155
0.605545
0.610536
0.614344
0.617219
0.619393
0.620955
0.621851
0.622132
0.622067
0.56184
0.561856
0.562146
0.563089
0.564855
0.567364
0.570664
0.574974
0.580556
0.58765
0.595958
0.603764
0.609913
0.614653
0.618285
0.621076
0.623075
0.624209
0.624565
0.624505
0.551828
0.551819
0.552153
0.553246
0.555313
0.558286
0.562231
0.567411
0.574147
0.582731
0.592801
0.602288
0.609803
0.615642
0.620164
0.62367
0.626175
0.62757
0.628
0.62794
0.540194
0.540162
0.540547
0.54183
0.54427
0.547836
0.552604
0.558886
0.567065
0.577479
0.589671
0.601142
0.61025
0.617372
0.622936
0.627267
0.630351
0.63202
0.632517
0.632452
0.526431
0.526378
0.526843
0.528378
0.531304
0.535641
0.541473
0.549166
0.559162
0.571829
0.586566
0.600363
0.611304
0.619896
0.626672
0.631951
0.635669
0.637617
0.638168
0.638093
0.509869
0.509792
0.510384
0.512272
0.515849
0.521214
0.528452
0.537982
0.550291
0.565738
0.583507
0.599993
0.61302
0.623278
0.63142
0.637752
0.642156
0.644367
0.644952
0.644858
0.489525
0.489433
0.49023
0.492633
0.497126
0.50392
0.513075
0.52505
0.540333
0.559205
0.580547
0.600092
0.615451
0.627559
0.637187
0.644687
0.64978
0.652204
0.652788
0.652668
0.463935
0.463843
0.464981
0.468181
0.474061
0.48294
0.49482
0.510129
0.529259
0.552322
0.577807
0.600755
0.618648
0.632754
0.643988
0.652698
0.658417
0.66096
0.661498
0.661346
0.430699
0.430656
0.432411
0.436987
0.445192
0.457341
0.473235
0.493135
0.517199
0.54529
0.575466
0.602102
0.622669
0.638861
0.651753
0.661653
0.667832
0.670349
0.670788
0.6706
0.385554
0.385721
0.388822
0.396274
0.408824
0.426352
0.448209
0.474314
0.504517
0.538448
0.573768
0.60428
0.627583
0.645853
0.660389
0.671324
0.677665
0.679957
0.680251
0.680034
0.320528
0.321905
0.329441
0.343519
0.364049
0.390136
0.420403
0.454388
0.491809
0.532223
0.572973
0.607406
0.633404
0.653666
0.66962
0.681251
0.687386
0.689233
0.68936
0.689139
0.242948
0.245654
0.260301
0.284559
0.316011
0.352231
0.391601
0.433901
0.478962
0.526414
0.573332
0.612451
0.64179
0.664538
0.682083
0.694075
0.699771
0.701268
0.701336
0.701203
0.16358
0.170692
0.192681
0.22712
0.269159
0.315274
0.363748
0.414416
0.467178
0.521697
0.574799
0.618568
0.651138
0.676242
0.695239
0.707213
0.712008
0.712972
0.712973
0.712896
0.0988192
0.10786
0.13455
0.17619
0.226553
0.281063
0.337742
0.396258
0.456368
0.517627
0.576536
0.624561
0.659954
0.686888
0.706677
0.718295
0.722535
0.723353
0.723398
0.723366
0.0457896
0.0555571
0.0858243
0.132815
0.189443
0.250666
0.314248
0.379664
0.446463
0.514013
0.578382
0.630404
0.668385
0.696951
0.717356
0.728787
0.732745
0.733517
0.733609
0.733617
0.00144943
0.0115299
0.0442363
0.0954027
0.157165
0.223963
0.293385
0.364805
0.437604
0.510961
0.580513
0.636353
0.676843
0.707011
0.72814
0.739559
0.74329
0.744064
0.744218
0.74427
-0.0366815
-0.0264706
0.00805415
0.0625619
0.128625
0.200218
0.274744
0.351494
0.429741
0.508496
0.582979
0.642553
0.685532
0.717324
0.73924
0.750776
0.754541
0.755378
0.755557
0.755648
-0.0703008
-0.0600514
-0.0241039
0.0331699
0.1029
0.178659
0.257725
0.339315
0.422606
0.506441
0.585664
0.648916
0.694377
0.727839
0.750687
0.762632
0.766579
0.767427
0.767592
0.767688
-0.100683
-0.0904128
-0.0533169
0.0063323
0.0792464
0.158675
0.241806
0.327827
0.415825
0.504536
0.588374
0.655245
0.703201
0.738384
0.762268
0.774743
0.77889
0.779749
0.779877
0.779958
-0.128813
-0.118503
-0.0803937
-0.0186362
0.0571021
0.139785
0.226573
0.316662
0.409096
0.502499
0.590878
0.661334
0.711798
0.748689
0.773629
0.786633
0.790991
0.791853
0.791942
0.792003
-0.155268
-0.144905
-0.105867
-0.0422123
0.0360261
0.121618
0.211724
0.305561
0.402155
0.500068
0.592953
0.667031
0.719973
0.758544
0.784487
0.797951
0.802548
0.803413
0.803441
0.803468
-0.180522
-0.17006
-0.130149
-0.0647717
0.0157035
0.10391
0.197029
0.294311
0.394802
0.497081
0.594458
0.672211
0.727648
0.767828
0.794673
0.808499
0.813217
0.814072
0.814052
0.814045
-0.204908
-0.194264
-0.153526
-0.0865651
-0.00407861
0.0864727
0.182324
0.282777
0.386924
0.49341
0.59527
0.67679
0.734781
0.776501
0.804095
0.818147
0.822864
0.823682
0.82362
0.823582
-0.228544
-0.217688
-0.176159
-0.107755
-0.0234612
0.0692016
0.167523
0.270879
0.378435
0.48893
0.595272
0.680723
0.74138
0.784611
0.812748
0.826831
0.831467
0.832216
0.832119
0.832055
-0.251592
-0.240472
-0.198181
-0.128424
-0.0425138
0.052035
0.152583
0.258573
0.369269
0.483585
0.594379
0.683953
0.747492
0.792273
0.820802
0.834694
0.839097
0.839742
0.839604
0.839522
-0.274025
-0.262685
-0.219633
-0.148611
-0.0612617
0.0349619
0.1375
0.24586
0.359426
0.477327
0.592507
0.686406
0.753168
0.799672
0.828449
0.841864
0.845861
0.846339
0.846161
0.846066
-0.295944
-0.284321
-0.240497
-0.168321
-0.0797051
0.0179949
0.122294
0.232776
0.348933
0.470138
0.589577
0.688005
0.758412
0.806992
0.835989
0.848601
0.851894
0.852102
0.851883
0.851786
-0.317173
-0.305359
-0.260773
-0.187556
-0.0978133
0.00118958
0.107017
0.219368
0.337832
0.462046
0.585539
0.68864
0.763171
0.814391
0.843843
0.855364
0.857465
0.857133
0.85686
0.856803
-0.33787
-0.325761
-0.28045
-0.206305
-0.115568
-0.0154275
0.0917452
0.205701
0.326188
0.453106
0.580358
0.688189
0.767313
0.821887
0.852426
0.86293
0.863276
0.861764
0.861245
0.861351
-0.35786
-0.345496
-0.299517
-0.224527
-0.132899
-0.0317821
0.0765519
0.191883
0.314095
0.443362
0.57403
0.686521
0.770643
0.829305
0.861918
0.872242
0.870805
0.867175
0.865551
0.865751
-0.377255
-0.364596
-0.317926
-0.242173
-0.149781
-0.0478139
0.0615174
0.177989
0.301648
0.432932
0.566593
0.683481
0.772919
0.836264
0.871956
0.883702
0.881901
0.876117
0.870575
0.862678
-0.395943
-0.383059
-0.335766
-0.259409
-0.166432
-0.0637981
0.0463161
0.163627
0.288423
0.421349
0.557583
0.678574
0.773849
0.842655
0.882162
0.897073
0.8972
0.889895
0.878343
0.877579
-0.413886
-0.400964
-0.35304
-0.276181
-0.182843
-0.0796999
0.0309736
0.148774
0.274376
0.408473
0.546791
0.671251
0.772605
0.847675
0.89069
0.908595
0.910392
0.904279
0.869698
0.831542
-0.43087
-0.418171
-0.369691
-0.292374
-0.199012
-0.0955273
0.0154851
0.133556
0.259566
0.39432
0.534103
0.661091