/*--------------------------------*- C++ -*----------------------------------*\
  =========                 |
  \\      /  F ield         | OpenFOAM: The Open Source CFD Toolbox
   \\    /   O peration     | Website:  https://openfoam.org
    \\  /    A nd           | Version:  6
     \\/     M anipulation  |
\*---------------------------------------------------------------------------*/
FoamFile
{
    version     2.0;
    format      ascii;
    class       surfaceScalarField;
    location    "11.8";
    object      phi;
}
// * * * * * * * * * * * * * * * * * * * * * * * * * * * * * * * * * * * * * //

dimensions      [0 3 -1 0 0 0 0];

internalField   nonuniform List<scalar> 
17370
(
-0.0899791
0.0898086
0.289181
-0.0713966
0.0536439
0.364528
-0.0379558
0.0274661
0.426658
-0.0193636
0.0143164
0.504299
-0.0105009
0.00807069
0.601832
-0.00615101
0.00481147
0.720397
-0.0036536
0.00282102
0.863739
-0.00208655
0.0015391
1.036
-0.00103878
0.000650827
1.24289
-0.000290061
-4.41263e-05
1.49153
0.000366195
-0.000741859
1.49157
0.00113186
-0.00162836
1.24319
0.00216982
-0.00289696
1.03636
0.00372305
-0.00487354
0.864057
0.00620729
-0.00812036
0.720971
0.0105443
-0.0143526
0.603023
0.0193949
-0.0274939
0.507538
0.0379811
-0.0536656
0.431853
0.0714143
-0.0898203
0.365182
0.0899861
0.199025
-0.128185
0.0883474
0.039838
-0.364647
0.353479
-0.0744829
0.0856512
-0.446504
0.454267
-0.0841229
0.07636
-0.521317
0.529886
-0.0684082
0.0598389
-0.612796
0.62165
-0.0517003
0.0428455
-0.726782
0.734191
-0.035222
0.0278128
-0.867332
0.872445
-0.0221333
0.0170205
-1.0384
1.04177
-0.0132359
0.0098693
-1.24461
1.24691
-0.00735578
0.00505577
-1.49275
1.4946
-0.00321139
0.00135256
-1.49248
1.49413
0.000248071
-0.00189375
-1.24402
1.24583
0.00373099
-0.00554606
-1.03746
1.03994
0.00781169
-0.0102894
-0.865974
0.869718
0.0136101
-0.0173541
-0.724245
0.729896
0.0224286
-0.02808
-0.608645
0.616254
0.0354675
-0.0430765
-0.515006
0.523119
0.0519079
-0.060021
-0.439957
0.447885
0.0685593
-0.0764879
-0.375313
0.376818
0.0842316
-0.0857365
-0.257399
0.222718
0.0745407
-0.03986
-0.0687832
0.0590778
0.00970547
-0.0511334
0.0574973
-0.374297
0.367933
-0.0562805
0.0522563
-0.453461
0.457486
-0.0469972
0.0429882
-0.527868
0.531877
-0.0391856
0.0356147
-0.621646
0.625217
-0.0315724
0.0275495
-0.735318
0.739341
-0.0231087
0.0191425
-0.874148
0.878115
-0.0151307
0.0117366
-1.04325
1.04664
-0.00836873
0.00550087
-1.2483
1.25117
-0.00247275
-0.000468282
-1.4964
1.49934
0.00336509
-0.00634922
-1.49697
1.49995
0.00918776
-0.0125137
-1.24985
1.25317
0.0158582
-0.0198114
-1.04577
1.04973
0.02372
-0.0280997
-0.877722
0.882101
0.0320674
-0.0360563
-0.740091
0.74408
0.039593
-0.0433522
-0.626906
0.630665
0.0473234
-0.0525491
-0.534725
0.539951
0.0565348
-0.0577046
-0.457595
0.458765
0.0512904
-0.031504
-0.336246
0.31646
0.00973118
-0.0687114
0.0589802
-0.053459
0.0497107
0.00374827
-0.0314174
0.0414394
-0.35878
0.348758
-0.044977
0.0443552
-0.459681
0.460303
-0.0413139
0.037911
-0.535928
0.539331
-0.0340803
0.0308593
-0.628488
0.631709
-0.0276338
0.0248578
-0.742366
0.745142
-0.021925
0.0191402
-0.881394
0.884179
-0.015958
0.0129173
-1.0499
1.05294
-0.00949609
0.00629167
-1.25429
1.2575
-0.00271319
-0.000690113
-1.50265
1.50605
0.00408198
-0.00762449
-1.50334
1.50689
0.0107602
-0.0140952
-1.25655
1.25989
0.0170563
-0.0201475
-1.05326
1.05635
0.0228582
-0.0257114
-0.885398
0.888252
0.0284069
-0.0315478
-0.747296
0.750437
0.0346834
-0.0384422
-0.634521
0.63828
0.0417872
-0.0447622
-0.544629
0.547604
0.0453229
-0.04171
-0.457352
0.453739
0.0316034
-0.0151737
-0.297635
0.281206
0.00377611
-0.0533343
0.0495582
-0.0469431
0.0447535
0.00218961
-0.020406
0.0296844
-0.338944
0.329666
-0.0347561
0.0356087
-0.459909
0.459056
-0.0346065
0.032768
-0.541725
0.543564
-0.0305637
0.0283007
-0.634459
0.636722
-0.025616
0.0230821
-0.747937
0.750471
-0.0201427
0.0174796
-0.886915
0.889578
-0.0145203
0.0117759
-1.05581
1.05855
-0.00866212
0.00572161
-1.2606
1.26354
-0.00232655
-0.000950893
-1.50937
1.51264
0.0042069
-0.00754202
-1.51036
1.5137
0.0103989
-0.0133995
-1.26309
1.26609
0.0160184
-0.0188323
-1.05929
1.0621
0.0213648
-0.0241682
-0.891193
0.893997
0.0265976
-0.0291953
-0.7534
0.755997
0.0313677
-0.0334731
-0.641205
0.64331
0.0352416
-0.0361673
-0.549217
0.550143
0.0352362
-0.0300496
-0.449008
0.443821
0.0206474
-0.00892106
-0.267339
0.255613
0.00222721
-0.0467565
0.0445293
-0.0430174
0.0417571
0.00126032
-0.0121605
0.0194666
-0.321173
0.313867
-0.0248474
0.026639
-0.457837
0.456046
-0.026398
0.0251825
-0.545157
0.546373
-0.0236967
0.0222938
-0.638426
0.639829
-0.0207536
0.0192202
-0.752621
0.754155
-0.0173487
0.0153575
-0.891969
0.89396
-0.0129493
0.0105854
-1.06111
1.06347
-0.00782637
0.00512591
-1.26634
1.26904
-0.00192384
-0.00129119
-1.51592
1.51913
0.00446408
-0.00756289
-1.51691
1.52001
0.0101499
-0.012771
-1.26887
1.2715
0.0149951
-0.0172438
-1.06469
1.06694
0.0190791
-0.0207738
-0.896388
0.898083
0.0221549
-0.0235306
-0.758006
0.759382
0.0248217
-0.0261891
-0.644902
0.64627
0.027284
-0.0273791
-0.550734
0.550829
0.0254425
-0.0198912
-0.438368
0.432817
0.0124349
-0.00505057
-0.245971
0.238587
0.00130477
-0.0427548
0.0414501
-0.0409846
0.0405938
0.000390829
-0.00519925
0.00962613
-0.308037
0.30361
-0.0140891
0.0165113
-0.453776
0.451354
-0.017343
0.0172044
-0.547055
0.547193
-0.0165457
0.0158556
-0.641016
0.641706
-0.0149412
0.0140299
-0.755224
0.756135
-0.0129109
0.0117455
-0.895419
0.896584
-0.0102115
0.00852284
-1.06548
1.06717
-0.00634185
0.00405394
-1.27156
1.27385
-0.00124229
-0.00158074
-1.5222
1.52502
0.00436878
-0.00706809
-1.52294
1.52564
0.00920684
-0.0111829
-1.27381
1.27579
0.0126639
-0.0139692
-1.06863
1.06994
0.0149424
-0.0158532
-0.899181
0.900092
0.016621
-0.0173377
-0.760494
0.761211
0.0178533
-0.0183425
-0.647345
0.647834
0.0183406
-0.017354
-0.550307
0.54932
0.0147761
-0.0101284
-0.427561
0.422914
0.00553282
-0.00196523
-0.233364
0.229796
0.000444791
-0.040628
0.0401832
-0.0404167
0.0403434
7.32704e-05
-0.00231661
0.00502207
-0.30023
0.297525
-0.00846466
0.0109346
-0.448942
0.446472
-0.0124888
0.013243
-0.546857
0.546103
-0.0136011
0.0137012
-0.641861
0.641761
-0.0135329
0.012965
-0.756832
0.7574
-0.0120166
0.0108753
-0.897746
0.898887
-0.0093092
0.00761495
-1.06881
1.07051
-0.00547191
0.00327365
-1.27602
1.27822
-0.000623204
-0.00197978
-1.52764
1.53024
0.0045498
-0.00708472
-1.52818
1.53071
0.00911416
-0.0110327
-1.27768
1.2796
0.0125068
-0.013814
-1.07124
1.07255
0.014718
-0.0154199
-0.900938
0.90164
0.0156764
-0.0156127
-0.761362
0.761298
0.015311
-0.0147468
-0.647708
0.647144
0.0137956
-0.0120234
-0.547955
0.546183
0.00934114
-0.00565502
-0.418856
0.41517
0.00273267
-0.000830573
-0.227274
0.225372
0.000140045
-0.0399458
0.0398058
-0.0403238
0.0403208
3.02364e-06
-0.00130945
0.00330983
-0.295236
0.293236
-0.00647784
0.00940912
-0.443806
0.440875
-0.0119049
0.0134391
-0.544976
0.543441
-0.0141628
0.0143957
-0.641593
0.64136
-0.0141875
0.0136641
-0.757919
0.758442
-0.0127367
0.0115491
-0.899993
0.90118
-0.00988858
0.00803913
-1.07225
1.07409
-0.00566609
0.0032069
-1.28054
1.283
-0.000253343
-0.00263941
-1.53298
1.53587
0.00546747
-0.00823521
-1.53334
1.53611
0.0104599
-0.0125318
-1.28156
1.28363
0.0140783
-0.015398
-1.0738
1.07512
0.0162695
-0.0168797
-0.902183
0.902793
0.0171505
-0.0169541
-0.761217
0.76102
0.0164445
-0.0154092
-0.646353
0.645317
0.013588
-0.0107842
-0.543953
0.541149
0.00756693
-0.00408817
-0.411637
0.408158
0.00181967
-0.000527167
-0.223847
0.222554
8.48872e-05
-0.0397125
0.0396276
-0.0403162
0.0403172
-9.89209e-07
-0.000766516
0.00220026
-0.291499
0.290065
-0.00492363
0.00802383
-0.437747
0.434647
-0.0113324
0.0137341
-0.541433
0.539031
-0.0153453
0.0157978
-0.640972
0.640519
-0.0157745
0.0153503
-0.75902
0.759444
-0.014299
0.0128539
-0.902536
0.903981
-0.0108275
0.00864393
-1.07615
1.07833
-0.00591644
0.00315417
-1.28563
1.28839
0.000175311
-0.00348399
-1.53899
1.5423
0.00672367
-0.00983909
-1.53908
1.54219
0.0122949
-0.0145949
-1.28586
1.28816
0.0163419
-0.0178598
-1.07659
1.07811
0.018822
-0.0193814
-0.903487
0.904047
0.0194167
-0.0191285
-0.760677
0.760389
0.0182449
-0.0161793
-0.643809
0.641744
0.0134018
-0.00969902
-0.537781
0.534078
0.00624955
-0.00315613
-0.404791
0.401697
0.00140079
-0.00045527
-0.221434
0.220489
0.0001016
-0.0395309
0.0394293
-0.0403348
0.040376
-4.12614e-05
-0.000153902
0.000902494
-0.288977
0.288228
-0.00264121
0.00496744
-0.431831
0.429505
-0.00785655
0.0102585
-0.53646
0.534058
-0.0123198
0.0135234
-0.639691
0.638487
-0.0138926
0.0135039
-0.759829
0.760217
-0.0124963
0.011178
-0.905433
0.906751
-0.00931514
0.00726559
-1.08051
1.08256
-0.00465965
0.00198108
-1.29118
1.29386
0.00126475
-0.00447658
-1.54565
1.54886
0.00758782
-0.0105279
-1.54531
1.54825
0.0127971
-0.0148721
-1.29041
1.29249
0.016388
-0.0176341
-1.07954
1.08079
0.0184116
-0.0187705
-0.904431
0.904789
0.0185708
-0.0175896
-0.759964
0.758982
0.0158476
-0.0132522
-0.639267
0.636671
0.0103975
-0.00703576
-0.530387
0.527026
0.00429353
-0.00210486
-0.399025
0.396836
0.000952586
-0.000336026
-0.21972
0.219103
8.54574e-05
-0.0393347
0.0392492
-0.040442
0.0405262
-8.42253e-05
0.000278111
-8.07046e-05
-0.287773
0.287575
-0.000697352
0.00193559
-0.427746
0.426508
-0.00365495
0.00521772
-0.532051
0.530488
-0.0066558
0.00758612
-0.63738
0.63645
-0.00810487
0.00810621
-0.760369
0.760368
-0.00763961
0.00680922
-0.90781
0.90864
-0.00547763
0.00390928
-1.08438
1.08595
-0.00182938
-0.000358712
-1.29632
1.29851
0.00302368
-0.00562961
-1.55181
1.55441
0.00809782
-0.0103735
-1.55089
1.55317
0.0120587
-0.0134404
-1.29424
1.29563
0.0143035
-0.0148501
-1.0817
1.08225
0.0149525
-0.0146454
-0.90484
0.904533
0.0139257
-0.012629
-0.757705
0.756408
0.0110699
-0.00897422
-0.634283
0.632187
0.00684757
-0.00454391
-0.524184
0.52188
0.00278823
-0.00144263
-0.39511
0.393765
0.000718045
-0.000285543
-0.2186
0.218167
7.96482e-05
-0.0391694
0.0390897
-0.0406271
0.0407411
-0.000113923
0.000591499
-0.000686606
-0.287557
0.287652
0.000543959
-9.51142e-05
-0.425706
0.425257
-0.00065427
0.00139668
-0.529359
0.528617
-0.00211956
0.00260901
-0.635732
0.635243
-0.00289497
0.00290151
-0.760324
0.760317
-0.00260437
0.00204788
-0.909301
0.909857
-0.00111833
-1.05381e-05
-1.08728
1.08841
0.00153761
-0.0031585
-1.3004
1.30202
0.00512389
-0.00699928
-1.55665
1.55852
0.00871013
-0.0101616
-1.55503
1.55648
0.0111074
-0.011795
-1.29666
1.29735
0.0120893
-0.0120366
-1.08246
1.08241
0.0116784
-0.010991
-0.903987
0.9033
0.0101125
-0.00891356
-0.755148
0.753949
0.007642
-0.00611103
-0.630386
0.628855
0.00467756
-0.00320961
-0.520044
0.518576
0.00211023
-0.00123366
-0.392699
0.391822
0.000697568
-0.000310149
-0.217771
0.217383
9.27749e-05
-0.0390055
0.0389127
-0.04087
0.0410116
-0.00014151
0.00081151
-0.00113908
-0.287869
0.288197
0.00133929
-0.00136691
-0.42508
0.425108
0.00124652
-0.00108979
-0.528197
0.52804
0.000944957
-0.000888392
-0.634978
0.634922
0.000946597
-0.00113442
-0.760396
0.760583
0.0015132
-0.00203281
-0.910371
0.910891
0.0028055
-0.00369343
-1.08939
1.09028
0.00485339
-0.00604835
-1.30341
1.3046
0.00745117
-0.00872996
-1.56008
1.56136
0.00980419
-0.0106204
-1.55759
1.55841
0.0110317
-0.011095
-1.29768
1.29774
0.0108991
-0.0104367
-1.08214
1.08168
0.00982923
-0.00898648
-0.902524
0.901682
0.0080946
-0.00702365
-0.75282
0.751749
0.00599231
-0.00484423
-0.627545
0.626397
0.00382593
-0.00280332
-0.517375
0.516353
0.00201006
-0.00130979
-0.391062
0.390361
0.000806767
-0.000381771
-0.216985
0.21656
0.000118773
-0.0388082
0.0386894
-0.0411711
0.0413474
-0.000176256
0.00105334
-0.00153892
-0.288602
0.289088
0.00200296
-0.00233269
-0.42529
0.42562
0.00260798
-0.00283868
-0.528094
0.528325
0.00311048
-0.00340502
-0.635051
0.635346
0.0037968
-0.00423314
-0.760895
0.761331
0.00481153
-0.00544078
-0.911453
0.912082
0.0062456
-0.0070789
-1.09112
1.09195
0.00808101
-0.00903993
-1.30566
1.30662
0.0100777
-0.010926
-1.5624
1.56325
0.0115182
-0.0117894
-1.55893
1.55921
0.0117308
-0.011447
-1.29763
1.29735
0.0109447
-0.0102208
-1.08106
1.08034
0.00943552
-0.00848931
-0.900783
0.899837
0.00757947
-0.00656274
-0.750717
0.7497
0.00563956
-0.00465716
-0.625357
0.624375
0.00380675
-0.00294555
-0.515439
0.514578
0.00223774
-0.00154711
-0.389681
0.388991
0.000991989
-0.000482418
-0.216097
0.215588
0.000152827
-0.0385548
0.038402
-0.0415495
0.0417721
-0.000222662
0.00135266
-0.00200929
-0.289656
0.290312
0.00269201
-0.00325774
-0.426061
0.426627
0.00382858
-0.00434776
-0.528702
0.529221
0.00494413
-0.0055318
-0.635796
0.636384
0.00623168
-0.00693002
-0.761903
0.762601
0.00776287
-0.00858449
-0.912799
0.913621
0.00954233
-0.0104519
-1.09281
1.09372
0.0114546
-0.0123294
-1.30751
1.30839
0.0131706
-0.0137371
-1.56394
1.56451
0.0139863
-0.0138774
-1.55927
1.55917
0.0134966
-0.0128378
-1.29686
1.29621
0.0120752
-0.0111152
-1.0795
1.07854
0.0101685
-0.00909536
-0.898833
0.89776
0.00810981
-0.00704813
-0.748673
0.747612
0.00611097
-0.00513254
-0.623414
0.622436
0.00428989
-0.00342233
-0.513734
0.512866
0.00267588
-0.00190039
-0.388268
0.387493
0.00123969
-0.000609864
-0.215023
0.214393
0.000194777
-0.0382302
0.0380355
-0.0420284
0.042313
-0.000284611
0.00173609
-0.00259576
-0.291061
0.291921
0.00351844
-0.00431666
-0.42729
0.428088
0.00515031
-0.00592066
-0.529872
0.530643
0.00680602
-0.00766683
-0.63713
0.637991
0.00867237
-0.0096516
-0.76345
0.764429
0.0107839
-0.0118604
-0.914555
0.915631
0.0130604
-0.0141422
-1.09469
1.09577
0.0152617
-0.016163
-1.30926
1.31016
0.016929
-0.0173194
-1.56497
1.56536
0.0173091
-0.0168801
-1.55889
1.55846
0.0161978
-0.0152233
-1.29539
1.29441
0.0141952
-0.0129764
-1.07745
1.07623
0.0118256
-0.0105599
-0.896592
0.895326
0.00942468
-0.00822228
-0.746489
0.745286
0.00717284
-0.00608333
-0.621422
0.620333
0.00514303
-0.00416227
-0.511965
0.510984
0.00329644
-0.00236847
-0.386653
0.385725
0.00155672
-0.000769839
-0.213693
0.212906
0.000247028
-0.0378192
0.0375722
-0.0426394
0.0430082
-0.000368841
0.0022415
-0.00335532
-0.292891
0.294005
0.00456015
-0.00560844
-0.428994
0.430042
0.00671394
-0.00773466
-0.531581
0.532602
0.00890873
-0.0100595
-0.63905
0.640201
0.0114082
-0.0127184
-0.76558
0.766891
0.0142172
-0.0156154
-0.916829
0.918227
0.0171376
-0.0184728
-1.09692
1.09826
0.019802
-0.0208131
-1.31108
1.31209
0.0215883
-0.0218677
-1.56567
1.56595
0.0216416
-0.0209115
-1.55787
1.55714
0.0199248
-0.0186074
-1.29327
1.29195
0.0172756
-0.015743
-1.07485
1.07332
0.0143267
-0.0127941
-0.893918
0.892385
0.0114356
-0.0100074
-0.743972
0.742543
0.00876481
-0.00747348
-0.619169
0.617878
0.00635307
-0.005173
-0.509943
0.508763
0.00411806
-0.00297249
-0.384708
0.383563
0.00196057
-0.000972588
-0.212032
0.211044
0.000313623
-0.0373034
0.0369897
-0.043429
0.0439084
-0.000479472
0.0028979
-0.00432957
-0.295263
0.296694
0.00586891
-0.0072009
-0.431253
0.432585
0.00859829
-0.0098959
-0.533886
0.535183
0.0114118
-0.0129272
-0.641615
0.64313
0.0147277
-0.0164799
-0.768371
0.770124
0.0184666
-0.0202813
-0.919737
0.921552
0.0221968
-0.0238297
-1.09967
1.10131
0.0254263
-0.0266047
-1.31311
1.31429
0.0274401
-0.0276359
-1.56615
1.56635
0.0271966
-0.0261405
-1.55624
1.55518
0.0248101
-0.0230925
-1.29042
1.28871
0.0213919
-0.0194664
-1.07157
1.06965
0.0177094
-0.0158276
-0.890644
0.888762
0.014172
-0.012439
-0.740941
0.739208
0.0109312
-0.0093578
-0.616479
0.614906
0.00798119
-0.00651553
-0.507518
0.506052
0.00519444
-0.00375252
-0.382316
0.380875
0.00247854
-0.00123247
-0.209956
0.20871
0.000399935
-0.0366605
0.0362606
-0.0444587
0.0450835
-0.000624854
0.00375427
-0.00559463
-0.298335
0.300175
0.00755925
-0.00924177
-0.434203
0.435886
0.0109928
-0.012631
-0.536916
0.538555
0.0145693
-0.0165402
-0.644954
0.646925
0.0189093
-0.0211964
-0.77197
0.774257
0.0237576
-0.0260774
-0.923423
0.925742
0.0285209
-0.0305785
-1.10304
1.1051
0.0325416
-0.0339357
-1.31548
1.31688
0.0348499
-0.0349493
-1.56644
1.56654
0.0342568
-0.0328082
-1.55391
1.55246
0.0310594
-0.0288504
-1.28673
1.28452
0.0266919
-0.0242724
-1.06744
1.06502
0.0220829
-0.0197561
-0.886583
0.884256
0.017723
-0.0156054
-0.73721
0.735092
0.0137647
-0.0118359
-0.61318
0.611251
0.0101306
-0.00828837
-0.50454
0.502698
0.00660918
-0.00476683
-0.379349
0.377507
0.00314505
-0.00156422
-0.207365
0.205785
0.000510065
-0.0358627
0.0353526
-0.0458161
0.0466447
-0.00082863
0.00492322
-0.00732098
-0.302324
0.304722
0.00986695
-0.0120295
-0.438014
0.440176
0.0142612
-0.0163602
-0.540842
0.542941
0.0188668
-0.0214242
-0.649261
0.651818
0.0244928
-0.0274364
-0.776581
0.779524
0.0307108
-0.0336542
-0.928078
0.931022
0.0367213
-0.0392711
-1.10719
1.10974
0.0416344
-0.0432485
-1.31825
1.31986
0.0442161
-0.044163
-1.5665
1.56644
0.043135
-0.0411878
-1.55074
1.54879
0.0389138
-0.03609
-1.28199
1.27916
0.033358
-0.0303164
-1.06224
1.0592
0.0275788
-0.0246864
-0.881522
0.87863
0.0221753
-0.0195777
-0.732576
0.729979
0.0173296
-0.0149745
-0.609082
0.606727
0.0128754
-0.0105747
-0.500836
0.498536
0.00844611
-0.00607895
-0.375651
0.373284
0.00398321
-0.00196462
-0.204135
0.202117
0.000637818
-0.0348725
0.0342346
-0.0476199
0.048765
-0.00114511
0.00666524
-0.00986168
-0.307524
0.31072
0.0131917
-0.0159681
-0.442959
0.445736
0.0188043
-0.0215059
-0.545923
0.548624
0.0247765
-0.0281199
-0.654788
0.658132
0.0320798
-0.0358321
-0.782465
0.786218
0.0399566
-0.0436027
-0.933927
0.937574
0.0473455
-0.050396
-1.11228
1.11533
0.0531636
-0.0549781
-1.32142
1.32324
0.05594
-0.0556397
-1.56619
1.56589
0.0541557
-0.0515687
-1.5465
1.54391
0.0486357
-0.0450486
-1.27595
1.27236
0.0416061
-0.0377904
-1.05572
1.0519
0.0343649
-0.0307547
-0.875219
0.871609
0.0276316
-0.0244195
-0.726818
0.723606
0.0216562
-0.0187743
-0.603979
0.601098
0.016197
-0.0133433
-0.496205
0.493351
0.0106599
-0.00765889
-0.371018
0.368017
0.00503057
-0.0024731
-0.2001
0.197543
0.000797686
-0.0336429
0.0328452
-0.0500596
0.0517147
-0.00165511
0.00938477
-0.0137264
-0.31438
0.318722
0.0180908
-0.021658
-0.449442
0.453009
0.0252909
-0.028808
-0.552546
0.556063
0.0330906
-0.0374207
-0.661919
0.666249
0.0424686
-0.0471583
-0.789947
0.794637
0.0522245
-0.0566416
-0.941195
0.945612
0.0611109
-0.0646771
-1.11835
1.12192
0.0678076
-0.0697338
-1.32491
1.32684
0.0705457
-0.0698367
-1.56528
1.56457
0.0677258
-0.0643213
-1.54087
1.53747
0.0605767
-0.0560656
-1.2683
1.26379
0.0517688
-0.0470218
-1.04758
1.04283
0.0427628
-0.0382707
-0.867393
0.862901
0.0343833
-0.0303943
-0.719679
0.71569
0.026977
-0.0234331
-0.597636
0.594092
0.0202695
-0.0167596
-0.4904
0.48689
0.0134255
-0.00964632
-0.36519
0.36141
0.00631522
-0.00310253
-0.195045
0.191832
0.000994567
-0.0321206
0.031126
-0.0534686
0.0559533
-0.00248478
0.0136686
-0.0196447
-0.323579
0.329555
0.0253864
-0.0300158
-0.457993
0.462623
0.0347677
-0.039435
-0.561192
0.565859
0.045096
-0.0506925
-0.671099
0.676696
0.0570573
-0.0628334
-0.799381
0.805157
0.0689421
-0.0741503
-0.950036
0.955245
0.0792729
-0.083214
-1.12537
1.12931
0.0864871
-0.0882893
-1.32849
1.33029
0.0886697
-0.0872889
-1.56339
1.56201
0.0843079
-0.0798658
-1.53348
1.52904
0.0751398
-0.0695404
-1.25871
1.25311
0.0642537
-0.0584353
-1.0375
1.03168
0.0532173
-0.0477024
-0.857728
0.852213
0.0429193
-0.0380039
-0.71085
0.705935
0.0337924
-0.0294363
-0.589764
0.585407
0.0255538
-0.0212328
-0.483133
0.478812
0.0170821
-0.0123243
-0.357837
0.353079
0.00805276
-0.00391671
-0.18874
0.184604
0.00124173
-0.0302374
0.0289957
-0.0584549
0.0624214
-0.00396647
0.0207559
-0.029106
-0.336286
0.344636
0.0367307
-0.0427933
-0.469493
0.475555
0.0490594
-0.0552801
-0.572568
0.578789
0.0627217
-0.0698402
-0.68284
0.689959
0.0776687
-0.0845538
-0.810966
0.817851
0.0916182
-0.0974371
-0.960361
0.96618
0.10293
-0.106937
-1.13299
1.137
0.109979
-0.1113
-1.33164
1.33296
0.110854
-0.108447
-1.55996
1.55756
0.104287
-0.0985434
-1.52386
1.51811
0.092646
-0.0857924
-1.24683
1.23997
0.0793915
-0.0723837
-1.0252
1.01819
0.0661098
-0.0594706
-0.84593
0.839291
0.0536962
-0.0477345
-0.700018
0.694056
0.042612
-0.0373193
-0.580021
0.574728
0.0325938
-0.027258
-0.474031
0.468695
0.0220379
-0.0159432
-0.348549
0.342454
0.0104095
-0.00503684
-0.180753
0.175381
0.00157608
-0.0278988
0.0263228
-0.0661618
0.0733989
-0.00723712
0.0345149
-0.0467725
-0.354676
0.366933
0.0570922
-0.0648157
-0.485126
0.492849
0.0728808
-0.0809062
-0.587404
0.595429
0.0901874
-0.0986389
-0.697433
0.705885
0.107515
-0.114995
-0.824548
0.832027
0.122367
-0.12817
-0.971629
0.977433
0.133361
-0.136822
-1.14043
1.14389
0.13902
-0.139311
-1.33354
1.33383
0.137518
-0.133647
-1.55425
1.55038
0.12796
-0.120644
-1.51147
1.50416
0.113389
-0.105145
-1.23235
1.22411
0.0975373
-0.0892737
-1.01045
1.00219
0.0819009
-0.0741058
-0.831817
0.824022
0.0673089
-0.0602589
-0.686962
0.679912
0.0541782
-0.0478981
-0.568085
0.561805
0.0422806
-0.0358043
-0.462606
0.45613
0.0291835
-0.0212382
-0.336565
0.32862
0.0138256
-0.00653543
-0.170465
0.163175
0.00193357
-0.0249695
0.023036
-0.0804545
0.0837014
-0.00324682
0.0234583
-0.0338397
-0.382163
0.392544
0.043348
-0.0511664
-0.505951
0.51377
0.0602209
-0.069963
-0.605407
0.61515
0.0807752
-0.090418
-0.713945
0.723588
0.10114
-0.110605
-0.838806
0.848271
0.120433
-0.128848
-0.98239
0.990805
0.137198
-0.143868
-1.14633
1.153
0.149786
-0.153632
-1.33297
1.33681
0.155632
-0.154914
-1.5453
1.54458
0.151339
-0.145299
-1.49578
1.48974
0.13821
-0.129204
-1.21502
1.20601
0.120381
-0.109783
-0.993189
0.982591
0.100036
-0.0892874
-0.8154
0.804652
0.0796375
-0.0693581
-0.671724
0.661445
0.0600817
-0.050591
-0.553881
0.544391
0.0422934
-0.0326964
-0.448363
0.438766
0.0237077
-0.0144576
-0.320732
0.311481
0.00744639
-0.00240654
-0.156557
0.151518
0.000197911
-0.0212409
0.021043
-0.0912411
0.0876125
0.00362864
0.000641365
-0.00641983
-0.405959
0.411738
0.0139105
-0.0206481
-0.52605
0.532788
0.0292964
-0.037771
-0.625159
0.633634
0.047486
-0.0563583
-0.733178
0.74205
0.0658418
-0.0744386
-0.857307
0.865904
0.0833903
-0.0907891
-0.998988
1.00639
0.0983625
-0.104096
-1.15963
1.16536
0.109161
-0.112192
-1.34052
1.34355
0.113188
-0.111767
-1.54317
1.54175
0.107669
-0.101301
-1.48302
1.47665
0.0939031
-0.0848038
-1.19665
1.18755
0.0760427
-0.0660312
-0.971852
0.96184
0.0566522
-0.0462436
-0.793285
0.782876
0.0369089
-0.0273093
-0.649542
0.639943
0.0190702
-0.0106028
-0.532389
0.523922
0.00335961
0.00323774
-0.426941
0.420343
-0.00744449
0.00929106
-0.300821
0.298974
-0.00855634
0.00557862
-0.144787
0.147765
-0.00233665
-0.0194163
0.021753
-0.0900022
0.0863049
0.00369732
-0.00688499
0.00438056
-0.42137
0.423874
0.000172726
-0.00561272
-0.542896
0.548336
0.0126828
-0.0199233
-0.642401
0.649642
0.0281581
-0.0357149
-0.750407
0.757964
0.0440026
-0.0513883
-0.873828
0.881214
0.058904
-0.0655113
-1.01364
1.02024
0.0721281
-0.0772928
-1.17077
1.17594
0.0815143
-0.0839008
-1.34613
1.34851
0.0846928
-0.0831441
-1.53993
1.53838
0.0791818
-0.0732662
-1.47005
1.46414
0.0666032
-0.0587227
-1.17876
1.17088
0.0509135
-0.0423557
-0.952014
0.943456
0.0344669
-0.0258735
-0.77314
0.764547
0.0184968
-0.0109631
-0.630102
0.622569
0.00477284
0.00144949
-0.514046
0.507824
-0.0062102
0.0100811
-0.411545
0.407674
-0.0118345
0.0111229
-0.293005
0.293717
-0.00850783
0.00496973
-0.147008
0.150546
-0.00190938
-0.0219415
0.0238509
-0.087317
0.0838167
0.00350034
-0.00950855
0.00891767
-0.430934
0.431525
-0.00614135
0.00173965
-0.556083
0.560485
0.00438522
-0.0104144
-0.656675
0.662704
0.0174179
-0.0238629
-0.765244
0.771689
0.0309037
-0.0372193
-0.888184
0.8945
0.044039
-0.049668
-1.02648
1.03211
0.0555379
-0.0597564
-1.1808
1.18502
0.0635635
-0.0657624
-1.35088
1.35308
0.0664246
-0.0648504
-1.53673
1.53516
0.0615241
-0.056556
-1.45816
1.45319
0.0509414
-0.0440755
-1.16333
1.15647
0.0376806
-0.0308015
-0.935292
0.928412
0.0244178
-0.0178372
-0.756691
0.75011
0.0119092
-0.0060939
-0.614903
0.609087
0.00135953
0.00298631
-0.500578
0.496232
-0.0060446
0.00831123
-0.401183
0.398916
-0.00906662
0.00765127
-0.289327
0.290742
-0.00561538
0.00316505
-0.150049
0.1525
-0.00122555
-0.0237862
0.0250118
-0.0847347
0.0818727
0.00286206
-0.0095847
0.0101712
-0.43699
0.436403
-0.00806398
0.00456687
-0.566997
0.570494
0.00042881
-0.00583463
-0.668734
0.67414
0.0117274
-0.0173955
-0.777761
0.78343
0.0234875
-0.0289748
-0.900496
0.905984
0.0348409
-0.0399083
-1.03766
1.04273
0.0449968
-0.049016
-1.1892
1.19322
0.0524857
-0.0545413
-1.35509
1.35714
0.0552675
-0.0539831
-1.53369
1.53241
0.0511868
-0.046832
-1.44797
1.44361
0.0420963
-0.036465
-1.15003
1.1444
0.031161
-0.0253625
-0.921763
0.915965
0.0202112
-0.0148364
-0.743779
0.738404
0.0102204
-0.00563686
-0.603315
0.598731
0.00203624
0.00118354
-0.490759
0.487539
-0.00354104
0.00512784
-0.394144
0.392557
-0.00547171
0.00469084
-0.287083
0.287863
-0.00354011
0.00195991
-0.151069
0.152649
-0.000858578
-0.024499
0.0253576
-0.0827218
0.0803942
0.00232764
-0.00865076
0.00941795
-0.440888
0.44012
-0.00830576
0.00526036
-0.575511
0.578556
-0.000567851
-0.00400821
-0.679028
0.683604
0.00907026
-0.0140032
-0.788573
0.793506
0.0194427
-0.0243807
-0.911254
0.916192
0.0298044
-0.0343252
-1.04762
1.05214
0.0390047
-0.0427462
-1.19706
1.2008
0.0459775
-0.0479501
-1.35906
1.36103
0.0487549
-0.0481148
-1.53122
1.53058
0.0457512
-0.0421633
-1.43913
1.43554
0.0380531
-0.0331483
-1.1389
1.134
0.0287526
-0.0236307
-0.910365
0.905243
0.019158
-0.0146532
-0.733241
0.728736
0.0107327
-0.0068345
-0.594223
0.590325
0.00372549
-0.000777499
-0.483248
0.4803
-0.00107497
0.00248501
-0.38859
0.38718
-0.00323218
0.00295586
-0.284334
0.284611
-0.00232979
0.00140401
-0.150516
0.151442
-0.000657808
-0.024571
0.0252288
-0.081336
0.0795585
0.00177754
-0.007189
0.00808457
-0.443717
0.442821
-0.00704993
0.00458167
-0.583037
0.585505
-0.000343108
-0.00375658
-0.68797
0.69207
0.00855109
-0.0128145
-0.798253
0.802516
0.0176062
-0.0220133
-0.921184
0.925591
0.027221
-0.0314051
-1.05678
1.06097
0.0356715
-0.0393352
-1.20448
1.20814
0.0428596
-0.0448588
-1.36314
1.36514
0.0459429
-0.0455076
-1.52969
1.52925
0.0438056
-0.0404318
-1.43188
1.4285
0.036908
-0.0326304
-1.12907
1.1248
0.0285425
-0.0240729
-0.90029
0.89582
0.0199699
-0.0156923
-0.724099
0.719822
0.0123219
-0.00865411
-0.586264
0.582597
0.0056493
-0.00301069
-0.476565
0.473927
0.00105506
0.000593944
-0.383707
0.382058
-0.0014526
0.00159488
-0.281292
0.28115
-0.00141919
0.000971478
-0.149085
0.149532
-0.000518464
-0.0243133
0.0248317
-0.0805977
0.0792101
0.00138761
-0.00575796
0.0066807
-0.445959
0.445036
-0.00558439
0.00315794
-0.589601
0.592028
0.00068274
-0.00433079
-0.696006
0.699654
0.00845152
-0.0125698
-0.806888
0.811007
0.0170213
-0.0215925
-0.929897
0.934468
0.0261449
-0.030195
-1.06531
1.06936
0.0346607
-0.0381785
-1.2118
1.21532
0.0413402
-0.0438438
-1.36716
1.36966
0.0452301
-0.0451907
-1.52895
1.52891
0.0437555
-0.0410098
-1.42534
1.42259
0.0378134
-0.0338241
-1.12023
1.11624
0.0300486
-0.0257958
-0.891231
0.886979
0.0219073
-0.0179612
-0.715584
0.711638
0.0144235
-0.0109195
-0.578726
0.575222
0.00805531
-0.00520463
-0.470473
0.467623
0.00305574
-0.00146985
-0.378658
0.377072
0.000338017
0.000301273
-0.277818
0.277178
-0.000612814
0.000586494
-0.147091
0.147117
-0.000407309
-0.0238535
0.0242608
-0.0804516
0.0792852
0.00116636
-0.00421684
0.00480062
-0.448036
0.447452
-0.00381174
0.00146002
-0.595613
0.597965
0.0019552
-0.00543989
-0.703446
0.706931
0.00938529
-0.0131279
-0.815058
0.8188
0.017706
-0.0215386
-0.938553
0.942386
0.0260824
-0.0299941
-1.07362
1.07753
0.0343979
-0.0381623
-1.2189
1.22266
0.0417015
-0.0440879
-1.37206
1.37445
0.0458983
-0.0462991
-1.52888
1.52928
0.0454899
-0.0430002
-1.4197
1.41721
0.0401159
-0.0363373
-1.11227
1.10849
0.0327265
-0.0285114
-0.882445
0.87823
0.0247659
-0.020723
-0.707398
0.703355
0.0171843
-0.0135653
-0.571435
0.567816
0.0104896
-0.00768893
-0.464167
0.461366
0.00529947
-0.00341063
-0.37348
0.371591
0.00191739
-0.000923546
-0.273843
0.272849
0.00022558
0.000267205
-0.144501
0.144008
-0.000303509
-0.023182
0.0234855
-0.0806021
0.0797574
0.000844732
-0.00293451
0.00296537
-0.450345
0.450314
-0.0021214
-0.000170397
-0.600866
0.603158
0.00318337
-0.00651761
-0.710342
0.713677
0.0102877
-0.0141483
-0.822517
0.826377
0.0181434
-0.0221366
-0.946465
0.950458
0.026655
-0.0303901
-1.0819
1.08564
0.0349213
-0.0386963
-1.2263
1.23007
0.0423713
-0.0453601
-1.37734
1.38033
0.0477303
-0.0484691
-1.52984
1.53058
0.0478953
-0.0460075
-1.41486
1.41297
0.0435096
-0.039864
-1.10449
1.10085
0.0362459
-0.0322294
-0.873825
0.869808
0.0281193
-0.0241373
-0.698958
0.694976
0.0205032
-0.0166668
-0.564079
0.560243
0.0135718
-0.0104384
-0.457644
0.45451
0.00789561
-0.00550202
-0.368152
0.365759
0.00377944
-0.00232634
-0.269382
0.267929
0.00106854
-0.000118854
-0.141337
0.140388
-0.000212386
-0.0222835
0.0224959
-0.0811429
0.0804471
0.000695795
-0.00191838
0.00191765
-0.452916
0.452916
-0.000515033
-0.00145278
-0.60613
0.608098
0.00454448
-0.00772222
-0.71672
0.719898
0.011329
-0.0148033
-0.830009
0.833483
0.018913
-0.0225999
-0.954491
0.958178
0.0270637
-0.0312259
-1.08984
1.094
0.0354349
-0.0395645
-1.23394
1.23807
0.0437037
-0.0468629
-1.3833
1.38646
0.049719
-0.0512987
-1.53165
1.53323
0.0511913
-0.0498569
-1.411
1.40967
0.0474549
-0.0440631
-1.09715
1.09376
0.0406146
-0.0364667
-0.865276
0.861129
0.0324213
-0.0282118
-0.690374
0.686164
0.0244143
-0.0202983
-0.556109
0.551993
0.0168703
-0.013554
-0.450739
0.447423
0.0105874
-0.00784973
-0.362172
0.359435
0.00568435
-0.00371377
-0.264222
0.262251
0.00205634
-0.000614412
-0.137561
0.13612
-6.1871e-05
-0.0212126
0.0212745
-0.0819281
0.0813854
0.000542793
-0.000858958
0.000604461
-0.455644
0.455899
0.000646111
-0.00274993
-0.610925
0.613029
0.00569817
-0.00868921
-0.722814
0.725805
0.0123469
-0.0156615
-0.836997
0.840312
0.019605
-0.0233906
-0.96235
0.966136
0.0277513
-0.031875
-1.09804
1.10217
0.0363075
-0.0404912
-1.24216
1.24635
0.0448613
-0.0488028
-1.38995
1.39389
0.0521768
-0.0541485
-1.53488
1.53685
0.0548003
-0.0538333
-1.40834
1.40737
0.0519399
-0.0489424
-1.09027
1.08727
0.0454096
-0.0412658
-0.856579
0.852435
0.0371567
-0.0326244
-0.681441
0.676909
0.0286837
-0.0242547
-0.547779
0.54335
0.0205668
-0.0167395
-0.44335
0.439523
0.0135457
-0.0104278
-0.35556
0.352442
0.00769848