/*--------------------------------*- C++ -*----------------------------------*\
  =========                 |
  \\      /  F ield         | OpenFOAM: The Open Source CFD Toolbox
   \\    /   O peration     | Website:  https://openfoam.org
    \\  /    A nd           | Version:  6
     \\/     M anipulation  |
\*---------------------------------------------------------------------------*/
FoamFile
{
    version     2.0;
    format      ascii;
    class       volVectorField;
    location    "48";
    object      U;
}
// * * * * * * * * * * * * * * * * * * * * * * * * * * * * * * * * * * * * * //

dimensions      [0 1 -1 0 0 0 0];

internalField   nonuniform List<vector> 
918
(
(0.985048 -0.000710825 0)
(0.00533639 2.96625 0)
(-0.000713779 0.869999 0)
(0.979573 0.00195989 0)
(-0.012842 2.06018 3.08095e-20)
(-0.00709159 2.94855 -2.63765e-18)
(0.800247 1.11683 4.30585e-19)
(0.241796 0.0967638 -1.49807e-20)
(0.999921 -0.000242957 0)
(0.0842433 0.720412 0)
(0.014809 0.494139 0)
(0.734262 -0.0172742 0)
(0.0102226 2.93154 0)
(0.00346748 2.79428 0)
(-0.0010289 3.18708 8.23368e-19)
(-0.0125786 1.9158 1.09601e-20)
(0.306969 0.0221505 9.94437e-19)
(0.231952 1.1299 3.46063e-19)
(0.96443 0.0067298 0)
(-0.0250685 0.457776 0)
(0.0512987 0.141397 -7.07738e-19)
(1.00183 -0.00456416 0)
(0.999851 -0.0089323 0)
(0.975157 -0.00605568 0)
(0.594255 -0.0355802 0)
(0.0223904 2.64444 0)
(-0.0123991 2.91197 9.70064e-19)
(-0.00253632 0.93318 0)
(-0.0172645 1.16582 0)
(-0.00143613 0.905135 0)
(-0.0212175 2.6072 0)
(-0.00431386 2.1119 -2.46046e-20)
(-0.00945391 1.88753 0)
(-0.0221517 2.98761 -9.52622e-23)
(-0.0164946 3.0055 2.04949e-18)
(0.00230881 3.00059 0)
(0.871513 -0.00965877 0)
(0.377384 0.919792 1.66226e-19)
(0.800324 1.12874 -5.31112e-19)
(0.937015 0.984604 5.45403e-19)
(0.66659 1.2124 -9.90999e-20)
(0.679098 1.18486 5.6953e-19)
(0.26319 0.180299 1.4615e-20)
(0.248317 0.0794902 0)
(1.14155 0.522788 0)
(0.230508 0.171206 6.66216e-20)
(0.209656 0.0981571 -6.91351e-20)
(0.92046 -0.00701809 0)
(1.00026 7.44073e-05 0)
(0.999909 0.000319219 0)
(1.0037 -0.00728475 0)
(1.0009 -0.000946805 0)
(1.00011 -1.13738e-05 0)
(0.093784 1.83692 -7.53854e-19)
(0.0363259 0.893592 0)
(0.13349 0.792836 0)
(0.0166797 0.846788 0)
(0.0433613 0.651152 0)
(0.00592757 2.01766 0)
(-0.00468828 0.75709 0)
(0.00752392 0.521543 0)
(-0.00350742 0.750768 0)
(0.0109125 0.490662 0)
(0.841775 -0.0157614 0)
(0.839819 0.0337107 0)
(0.766179 -0.00745635 0)
(0.809995 0.0446373 0)
(0.701821 -0.0174291 0)
(0.0139568 3.0002 9.79815e-19)
(0.0111834 3.006 0)
(0.00626135 3.00388 0)
(0.0118916 2.99711 1.11418e-23)
(0.008284 2.95871 -1.45625e-18)
(0.0121986 2.98287 0)
(0.00901159 2.90479 0)
(0.0210321 2.93143 2.27826e-24)
(0.00411935 2.82433 0)
(0.0260267 2.91879 0)
(-0.000270191 2.74494 0)
(0.309024 3.58605 0)
(-0.122543 3.66917 0)
(0.15179 3.2782 -7.66309e-19)
(0.00518391 3.01241 0)
(-0.0253698 1.99625 0)
(-0.00680882 2.17573 -1.08096e-20)
(-0.00786348 1.92602 7.43928e-21)
(0.395931 0.14046 -3.44473e-19)
(0.319651 -0.00149196 -3.33718e-19)
(0.362942 0.157163 -1.03423e-18)
(0.289154 0.033053 -6.77874e-19)
(0.261106 1.00742 0)
(0.328757 1.25674 -3.59227e-19)
(0.40433 1.16074 5.91784e-19)
(0.987834 0.00811702 0)
(0.943383 0.0057855 0)
(1.00028 0.000672259 0)
(1.00254 0.00906858 0)
(1.00312 0.00896383 -2.63932e-18)
(0.992134 0.00945579 1.99443e-18)
(-0.0129849 0.758759 0)
(-0.0129384 0.451118 0)
(-0.0399634 1.00638 0)
(-0.0374545 0.803378 0)
(-0.0116249 0.452329 0)
(0.0575923 0.153575 2.18912e-19)
(0.113319 0.12467 0)
(0.993614 -0.00769893 0)
(0.954019 -0.00647441 0)
(0.751723 0.0501789 0)
(0.686726 0.0546666 0)
(0.660021 -0.0218503 0)
(0.973866 -0.00409046 0)
(0.615194 0.058903 0)
(0.44998 -0.0300293 1.48347e-18)
(-0.0410152 2.86064 7.72013e-19)
(0.03349 2.91441 0)
(0.0422616 2.8924 0)
(0.00353975 2.70209 0)
(-0.00860748 2.98643 9.29239e-19)
(-0.0140856 2.89463 0)
(-0.011035 2.99159 -2.85894e-18)
(-0.0116519 2.92956 9.73095e-19)
(-0.0258616 1.338 0)
(-0.000463214 1.3681 0)
(-0.00727627 2.1372 5.59725e-22)
(-0.00727186 2.09624 0)
(-0.0171775 1.90042 0)
(0.938533 -0.00534175 0)
(0.856637 -0.0110213 0)
(0.863588 0.0054895 0)
(0.949409 -0.00625413 0)
(0.883398 -0.00803945 0)
(0.5017 1.12052 -2.11052e-19)
(0.549061 1.19088 0)
(0.338742 0.853689 3.22577e-20)
(0.282463 0.718438 0)
(0.89903 1.02209 -1.53017e-19)
(1.01711 0.827472 3.02371e-19)
(0.386316 1.3209 0)
(0.529226 1.27255 0)
(0.58122 1.20257 0)
(0.0981427 0.177055 -2.94591e-19)
(0.282933 0.177323 0)
(0.24745 0.0769298 1.91438e-19)
(0.981617 0.883098 0)
(1.05803 0.73154 0)
(1.08704 0.665375 -2.36608e-19)
(1.12517 0.580414 0)
(1.18013 0.388523 4.49058e-20)
(0.957331 -0.00718186 0)
(0.962635 -0.00816205 0)
(0.900746 -0.00733978 0)
(0.983904 -0.00813579 0)
(0.974379 -0.00806123 0)
(0.936488 -0.00654762 0)
(1.0002 0.00249945 0)
(1.00076 0.00124494 0)
(1 0.000767175 0)
(0.0431059 2.084 4.19448e-19)
(0.146035 1.78022 0)
(0.0176092 2.2007 6.38879e-19)
(0.0525048 1.88721 -5.3692e-19)
(0.169116 1.11069 -2.83779e-19)
(0.0516714 0.974733 0)
(0.122655 0.969447 0)
(0.00715379 0.813288 0)
(0.0206946 0.591117 0)
(-0.00388916 2.2509 -7.02665e-22)
(0.0197968 2.02412 0)
(-0.00444925 2.25141 -2.67271e-20)
(0.00435307 2.02966 4.02721e-20)
(0.00306833 0.778886 0)
(0.000661313 0.767636 0)
(0.00914116 0.551311 0)
(0.000901137 0.746265 0)
(-0.000693933 0.485703 0)
(0.937954 0.0134532 0)
(0.853892 -0.0118207 0)
(0.927578 0.00455229 0)
(0.844988 -0.0128632 0)
(0.812205 -0.0018106 0)
(0.8987 0.0228835 0)
(0.873262 0.0280502 0)
(0.788514 -0.00506893 0)
(0.0103595 3.06711 -9.15458e-21)
(0.0150787 3.0593 0)
(0.0123527 2.97036 0)
(0.00756132 2.87656 0)
(0.89996 3.98348 0)
(1.19512 3.37824 9.43436e-19)
(0.0823606 3.09403 0)
(-0.0163258 2.9202 0)
(-0.0118103 1.38998 0)
(-0.0290805 1.7002 0)
(-0.0174886 1.5285 0)
(-0.0318967 2.5642 -1.07363e-20)
(-0.0146675 2.25382 0)
(-0.0201276 2.40152 0)
(0.00218539 1.95585 1.40225e-21)
(-0.0048416 2.24894 -1.12974e-20)
(-0.00537466 2.21309 -7.73025e-21)
(-0.00348716 1.94198 0)
(0.424264 0.117558 5.26042e-19)
(0.346293 -0.00915729 -5.16083e-19)
(0.237057 1.58381 0)
(0.285419 0.741747 -3.21226e-19)
(0.179876 1.68487 -1.07189e-18)
(0.244223 1.20979 1.07243e-18)
(0.901832 0.00606887 0)
(0.967174 0.0105383 0)
(0.975035 0.00977453 0)
(0.92312 0.00593749 0)
(-0.012366 0.746926 0)
(-0.0124349 0.754646 0)
(0.00131111 0.457728 0)
(0.19314 0.167609 6.12105e-19)
(0.154794 0.153725 -7.26523e-19)
(0.158153 0.108951 0)
(1.09876 0.0877203 2.45775e-20)
(1.0826 0.0406241 0)
(1.01369 0.0426728 0)
(0.90947 -0.00255388 0)
(0.459186 0.0945833 0)
(0.519967 0.0721527 -2.37715e-18)
(0.384232 -0.0129045 8.94614e-19)
(0.0107319 2.97694 8.13656e-19)
(-0.0334658 2.86155 4.56383e-20)
(0.00815736 3.05318 -1.92977e-20)
(0.0158032 3.04325 7.22161e-19)
(-0.01189 3 3.19781e-20)
(-0.0122636 2.95233 -1.28975e-22)
(-0.0150555 3.01327 -5.96392e-19)
(0.0144551 3.02648 4.20569e-19)
(0.00758887 3.03495 -6.83786e-19)
(0.934014 0.00187455 0)
(0.93903 -0.00131975 0)
(0.847265 -0.0111221 0)
(0.956526 0.0115654 0)
(0.942743 0.0129632 0)
(0.881843 0.00573492 0)
(0.9163 0.0181091 0)
(0.925701 0.0149041 0)
(0.838181 0.00193328 0)
(0.675118 1.4205 1.78769e-20)
(0.693377 1.53146 0)
(0.121953 0.30638 6.84282e-20)
(0.203067 0.642351 5.42753e-19)
(0.237304 0.691765 -3.17812e-19)
(0.219855 0.514797 6.29621e-19)
(0.330859 0.812344 1.55949e-18)
(0.127913 0.228261 3.74758e-19)
(0.338581 0.175424 7.20557e-19)
(0.30961 0.185755 1.86554e-19)
(0.262343 0.0579406 3.57812e-19)
(1.17465 0.436755 7.78983e-20)
(1.20363 0.242085 7.711e-20)
(0.00676803 2.24302 2.50257e-19)
(0.039399 1.94982 0)
(0.969508 0.0324103 0)
(0.944492 0.0188359 0)
(0.867706 -0.0155329 0)
(0.0122037 3.07476 0)
(0.0168035 2.94395 1.28072e-18)
(0.0139641 2.9569 0)
(0.0058716 2.85004 -1.27099e-18)
(0.00931014 3.08986 3.13208e-19)
(0.0118039 3.08334 0)
(0.714263 1.82905 -1.73054e-19)
(1.23973 2.63549 5.84951e-19)
(0.699141 2.00749 -1.40747e-18)
(0.0224655 2.97613 -7.11454e-19)
(0.0410902 2.99915 0)
(-0.0382381 2.8797 0)
(-0.00547589 2.23094 -1.30553e-20)
(-0.00475249 2.25274 1.72698e-20)
(0.00176264 1.99094 -7.60395e-21)
(0.265747 1.39013 1.02872e-18)
(0.274996 0.541378 -7.07132e-19)
(0.0703554 2.0008 7.55891e-19)
(0.123165 1.87207 -9.05434e-19)
(0.206906 1.53018 9.9542e-20)
(0.0055533 3.12042 -1.81923e-18)
(0.0137544 3.12066 2.0049e-18)
(-0.00519257 2.98076 8.71212e-19)
(-0.00131895 2.97507 -8.37152e-19)
(-0.0177069 2.87731 -8.87366e-19)
(0.0118463 3.10088 -2.3296e-18)
(0.00576468 3.10527 2.3566e-18)
(0.255073 0.684316 0)
(0.206837 0.648338 -1.14794e-18)
(0.0703026 0.211891 5.04515e-19)
(0.341639 0.929997 1.11184e-18)
(0.192925 0.270974 -1.71204e-18)
(1.18616 0.172566 5.16282e-20)
(1.20048 0.299249 0)
(1.18184 0.11955 3.82015e-21)
(-0.0027167 2.25992 -1.43882e-21)
(0.00118096 2.24673 0)
(0.0314064 1.98434 0)
(0.314019 1.31102 -3.68516e-19)
(0.351653 1.15674 -7.96778e-19)
(0.224021 0.37993 1.42259e-18)
(1.00643 -0.00970458 0)
(1.00774 -0.00780161 4.85202e-19)
(-0.0234848 1.31754 0)
(-0.0362263 1.31579 0)
(1.00245 0.00329389 1.3662e-21)
(1.00322 0.00785733 9.95976e-19)
(-0.0225496 2.54933 1.35961e-20)
(-0.0270231 2.59202 0)
(0.04166 3.17289 5.11938e-19)
(0.377614 3.54913 0)
(1.14582 0.682902 -5.66989e-20)
(1.01191 0.0107569 -2.79901e-21)
(1.02079 -0.00909252 0)
(1.0016 0.000246408 1.53966e-22)
(0.1091 1.36386 0)
(0.139203 2.5918 0)
(0.022784 1.31445 0)
(-0.00232403 2.63612 1.89935e-20)
(-0.0208202 2.58608 6.25201e-21)
(0.998256 0.0271893 2.7075e-21)
(1.06233 0.00531545 0)
(1.09846 0.0274891 0)
(-0.0280128 1.74045 0)
(-0.0186683 2.59098 0)
(-0.00514213 1.31237 0)
(0.293803 1.48262 -1.69951e-19)
(1.01149 -0.00908583 0)
(1.0097 -0.0130029 0)
(1.0023 0.000945084 6.22111e-19)
(1.00548 -0.00493938 -7.32428e-19)
(1.00114 -0.000874133 0)
(-0.0125051 1.4584 0)
(-0.0122918 1.36754 0)
(-0.010033 1.41486 0)
(-0.00857579 1.30025 0)
(-0.019862 1.28279 0)
(-0.00976332 1.26695 0)
(1.03543 -0.00451483 0)
(1.01923 0.0150211 -8.98193e-22)
(0.797997 1.30163 2.70095e-19)
(1.00235 0.000369965 -6.20374e-19)
(1.00341 0.00449909 7.41108e-19)
(1.00128 0.00210516 0)
(1.01125 0.0096658 6.18355e-19)
(1.00692 0.00750444 -7.52754e-19)
(1.00725 0.0111905 0)
(-0.0240712 2.6198 0)
(-0.0273406 2.59982 -2.35338e-20)
(-0.0244348 2.61337 1.66229e-20)
(1.23616 0.26885 5.36972e-19)
(1.16098 0.0875617 0)
(0.0449074 3.09042 -1.00672e-18)
(0.0511479 2.87189 -7.11721e-20)
(0.103925 3.20106 1.34867e-18)
(0.122546 3.21358 -2.93404e-19)
(0.144324 3.25974 0)
(0.0233107 3.13776 2.77386e-19)
(0.0618808 3.16172 1.00279e-18)
(0.062214 3.17873 -5.18512e-19)
(0.027475 3.12918 0)
(0.615526 0.287008 0)
(0.556872 0.330036 0)
(1.12578 0.714122 1.33236e-19)
(1.09217 0.847464 -1.23675e-19)
(1.18487 0.601813 0)
(1.21512 0.537035 0)
(1.0158 0.0120427 -1.14878e-18)
(1.01475 0.0128085 1.44434e-18)
(1.02559 -0.00880596 0)
(1.02391 -0.0103707 0)
(1.00663 0.00294918 0)
(1.01089 0.00417476 0)
(1.00437 0.00217663 0)
(1.00951 0.00644565 0)
(1.00698 0.00508387 0)
(1.00448 0.00529858 0)
(0.0966179 1.36122 0)
(0.0791941 1.34163 0)
(0.135266 1.40942 0)
(0.134104 1.41032 0)
(0.147009 2.61701 0)
(0.188945 2.68677 -4.24699e-19)
(0.10773 2.67639 0)
(0.0825677 2.6764 1.72165e-19)
(0.0283299 2.67949 -1.74314e-19)
(0.0140135 1.32145 0)
(0.019668 1.2517 0)
(0.0163476 1.33529 0)
(0.033644 1.28181 0)
(-0.000523021 1.99102 1.01745e-20)
(-0.0207058 2.61392 -1.63776e-20)
(-0.00884864 2.6782 2.95495e-22)
(-0.0195219 2.69134 0)
(-0.0223821 2.62118 -9.09617e-21)
(-0.0209311 2.61668 1.53956e-20)
(0.00767647 1.98976 -5.70285e-21)
(-0.00800035 2.40634 2.19739e-20)
(-0.0134594 2.42852 -3.35041e-22)
(1.0097 0.0386213 1.1651e-18)
(1.00554 0.0176393 -1.45108e-18)
(1.00275 0.0444622 -1.19223e-18)
(0.975858 0.0312843 1.50136e-18)
(1.06396 0.00862686 0)
(1.04939 -0.0066486 0)
(1.09127 0.0360788 0)
(1.07475 0.0141491 0)
(1.07346 1.77072e-05 0)
(1.13966 0.0770458 0)
(1.11361 0.0442984 0)
(1.11609 0.0366706 0)
(-0.0268218 2.44227 1.9225e-21)
(-0.0170075 2.0206 0)
(-0.0174819 2.22508 0)
(-0.0207045 2.6116 -1.18441e-20)
(-0.0177309 2.62147 2.93088e-22)
(0.00193485 1.57328 -4.05385e-20)
(-0.00354394 1.49878 4.13401e-20)
(-0.0144247 1.38815 0)
(-0.0181982 1.39354 0)
(-0.0204191 1.38703 0)
(-0.00118577 1.31422 0)
(0.0106668 1.24862 0)
(0.375573 1.50427 2.82498e-19)
(0.423219 1.50939 1.50812e-19)
(0.590228 2.47401 -2.51863e-19)
(0.38258 2.56853 6.97156e-19)
(0.351818 2.06855 6.95362e-20)
(1.02061 -0.00808103 0)
(1.01574 -0.00940491 0)
(1.01482 -0.0132398 0)
(1.00763 -0.000638427 0)
(1.00492 -0.000655638 0)
(1.00798 -0.00453305 0)
(1.00953 -0.00352145 0)
(1.0146 -0.00438634 0)
(1.02 0.0160004 1.12711e-18)
(1.01752 0.0147599 -1.42546e-18)
(1.02042 0.0182145 -1.1366e-18)
(1.01813 0.0167393 1.41928e-18)
(0.753968 1.34707 0)
(0.691178 1.38366 2.38737e-19)
(0.861973 1.22752 9.32406e-20)
(0.89881 1.18714 -1.23738e-19)
(1.16698 2.62041 2.74615e-19)
(0.772996 0.120967 5.82438e-19)
(1.16872 0.104375 0)
(1.20939 0.196362 -4.34978e-19)
(1.18991 0.15329 -1.80645e-20)
(1.01389 0.160385 0)
(0.0819622 3.02182 3.58813e-19)
(0.0853809 2.9045 -1.19352e-18)
(0.0318273 2.36453 7.57262e-19)
(0.133915 -0.138468 -3.61668e-19)
(0.345363 3.45207 -2.47116e-19)
(0.195022 3.3437 0)
(0.226213 3.4025 3.21897e-19)
(0.226405 3.08023 -1.2485e-18)
(0.260195 3.20049 0)
(0.00679214 3.1224 5.19844e-20)
(0.016935 3.13121 -5.9804e-19)
(0.0160731 3.12703 8.80209e-19)
(0.0335927 3.14007 0)
(0.0316095 3.14963 0)
(1.26239 2.58648 0)
(0.530047 0.810439 -5.25398e-19)
(1.01094 1.01866 -1.82564e-21)
(0.975422 1.07161 0)
(0.844716 0.95958 -1.11324e-19)
(1.06761 0.895008 2.64014e-20)
(0.393461 0.352367 -8.88031e-19)
(0.682798 0.309023 -2.31714e-20)
(0.616923 0.225039 4.03493e-19)
(0.582191 0.353334 2.98553e-20)
(0.492573 0.320655 -1.20057e-18)
(0.642835 0.317623 0)
(0.700194 0.413221 6.76179e-19)
(0.699821 0.417345 0)
(0.616949 0.343575 0)
(0.558986 0.272183 0)
(0.784553 0.645265 3.98702e-19)
(1.24508 0.299481 -4.39694e-19)
(1.23559 0.432534 0)
(1.23869 0.388137 0)
(0.724441 0.181184 6.06857e-19)
(0.836524 0.543588 -3.78696e-19)
(0.75421 0.503969 6.74049e-19)
(0.954582 0.432542 -6.97548e-19)
(1.01869 0.0145568 7.64018e-19)
(1.01725 0.0135938 -7.72478e-19)
(1.0161 0.0142016 0)
(1.03677 -0.0047163 0)
(1.03025 -0.00779858 -7.24591e-19)
(1.02841 -0.0106922 7.17114e-19)
(1.02477 0.0106316 0)
(1.02286 0.0146555 0)
(1.01266 0.00456255 0)
(1.01456 0.00909941 0)
(1.01619 0.00405682 0)
(1.01544 0.00281449 0)
(0.0649297 1.35773 0)
(0.0627307 1.31844 0)
(0.140974 1.4082 5.35852e-20)
(0.267319 1.47693 8.05051e-20)
(0.16195 1.4501 1.78186e-19)
(0.192852 1.4548 -2.89296e-19)
(0.146172 1.41458 0)
(0.12911 1.58213 -9.70868e-20)
(0.130105 1.57576 0)
(0.350692 2.02506 -1.01219e-19)
(0.33463 2.34649 6.39195e-19)
(0.184864 1.45557 8.46251e-20)
(0.265159 1.37975 2.21353e-20)
(0.193403 1.38076 -1.80366e-20)
(0.279253 1.31726 -9.57417e-20)
(0.250291 1.57618 0)
(0.258206 1.62354 1.03673e-19)
(0.0255215 2.27273 -1.62849e-20)
(0.0349373 2.67454 0)
(0.0659031 2.41432 9.81106e-20)
(0.0606201 2.43458 0)
(0.0680165 2.69372 -1.91108e-19)
(0.041832 2.70823 0)
(0.0240353 1.42748 3.60057e-20)
(0.0343957 1.4868 0)
(0.0305607 1.39183 0)
(0.0191054 1.39206 -4.22088e-20)
(-0.000117876 2.66302 -7.15024e-22)
(0.0228243 2.69706 1.99635e-19)
(0.00719245 2.73231 1.14702e-21)
(0.0012709 1.83651 -4.99762e-21)
(-0.0039491 1.68776 -5.89477e-21)
(0.0119177 1.30007 0)
(0.0164983 1.23097 0)
(0.0356542 1.58257 -6.09163e-21)
(0.0353814 1.45761 -2.34058e-20)
(0.0321138 1.52842 2.57018e-20)
(0.0412292 1.61042 0)
(-0.028571 2.27635 9.09423e-20)
(-0.031082 2.55941 -3.88321e-20)
(-0.0174138 2.45735 4.79896e-21)
(-0.0034812 1.85459 6.05976e-21)
(-0.0253114 2.50993 4.14418e-21)
(-0.0216165 2.44933 2.01809e-21)
(1.01829 0.0213439 -7.69713e-19)
(1.01437 0.0274516 7.74637e-19)
(1.01318 0.0165187 0)
(1.01201 0.069061 1.0608e-18)
(0.99107 0.0557447 -1.22306e-18)
(0.952162 0.052901 1.3687e-18)
(1.01332 0.114242 -1.44413e-19)
(1.04358 -0.00489755 0)
(1.05169 -0.000771181 6.93798e-19)
(1.03996 -0.00828678 -6.93575e-19)
(1.07132 0.042406 -4.11643e-20)
(1.06435 0.0275609 3.55458e-19)
(1.06443 0.0637088 0)
(1.05418 0.052622 -1.27969e-19)
(1.03226 0.0435867 0)
(1.02556 0.0388256 0)
(1.02768 0.0133952 0)
(1.02403 0.0159242 0)
(1.04053 0.0328034 2.63114e-19)
(1.03953 0.0279673 -5.82398e-19)
(1.05259 0.0373283 -2.78443e-19)
(1.04819 0.0372865 -3.07227e-19)
(1.07685 0.0678432 5.88271e-19)
(1.10051 0.053911 0)
(1.10718 0.0924369 0)
(-0.0252433 2.2839 5.88398e-20)
(-0.0259887 2.02762 1.95838e-21)
(-0.0216271 2.037 0)
(-0.028807 2.45411 -5.85921e-20)
(-0.025531 2.41215 -3.8005e-21)
(-0.0327541 2.4837 6.91461e-21)
(-0.0203604 2.63014 -1.26138e-20)
(-0.0240247 2.5737 5.08068e-22)
(-0.0220018 2.52567 -4.91659e-21)
(-0.0163881 2.62467 1.18477e-20)
(-0.0203282 2.6262 -1.31478e-20)
(-0.00515526 1.48425 -2.82687e-22)
(-0.000139326 1.6223 -3.81672e-20)
(0.363829 1.43873 -1.19977e-19)
(0.363717 1.36603 1.94939e-20)
(0.635462 1.43104 -2.31187e-19)
(0.512038 1.50148 -1.46472e-19)
(0.564101 1.46269 0)
(0.609337 2.42846 2.24336e-19)
(0.668086 2.43539 3.37502e-19)
(0.424518 2.52129 8.20036e-20)
(0.399838 2.54968 -6.44674e-19)
(0.501538 2.49218 5.80989e-19)
(0.549115 2.48535 0)
(0.494301 2.53004 -5.52362e-19)
(0.258647 2.60127 1.15387e-18)
(0.359644 2.57327 -6.09913e-20)
(0.284191 2.65987 -1.59177e-18)
(0.966674 2.39719 7.09081e-19)
(0.848279 2.39761 0)
(1.01145 0.00130841 2.52145e-20)
(1.01532 -0.0052849 -2.0583e-20)
(1.01767 -0.00407289 -3.76318e-19)
(1.01552 -0.00116223 3.74925e-19)
(1.01305 0.00173863 0)
(0.625291 1.29777 0)
(0.667297 1.18846 0)
(0.781893 1.11148 0)
(0.654623 1.14501 0)
(1.19757 2.63644 5.07348e-20)
(1.09031 2.38659 0)
(0.824385 2.18983 3.4775e-21)
(0.825199 2.44995 0)
(0.919004 2.53821 -4.27547e-19)
(0.951028 2.48764 2.85578e-19)
(0.798092 0.155996 0)
(0.756766 0.138091 1.58538e-19)
(0.919451 0.154357 9.21962e-19)
(0.827067 0.13395 -3.46829e-19)
(0.78056 0.085465 -1.06032e-18)
(1.08543 0.237386 -8.48535e-19)
(0.983189 0.303535 -7.90382e-21)
(0.930787 0.337902 8.26809e-19)
(1.01933 0.248889 6.95165e-19)
(0.934708 0.197127 -1.22003e-18)
(0.89547 0.209197 1.52996e-19)
(0.936087 0.30026 -3.18942e-19)
(0.90961 0.21264 0)
(1.00065 0.199761 5.97249e-19)
(1.05549 0.214271 0)
(1.05119 0.219888 0)
(1.12246 0.120986 2.69692e-19)
(1.06497 0.187714 -1.06556e-20)
(1.07854 0.23999 -1.53836e-19)
(1.11388 0.205772 0)
(1.02336 0.0478545 5.9624e-19)
(1.03877 0.0619412 7.41007e-19)
(1.03277 0.0456431 -5.91423e-19)
(1.04238 0.067676 -4.96903e-19)
(1.01495 0.0734215 -7.5115e-19)
(0.989572 0.164813 0)
(0.991825 0.106333 0)
(0.961165 0.0671023 -4.8604e-19)
(0.908936 0.0961724 1.92146e-19)
(1.03961 0.113896 6.87359e-19)
(1.07453 0.132742 -7.89602e-19)
(1.0689 0.174512 7.09372e-19)
(1.03575 0.151828 0)
(1.08469 0.118942 0)
(1.05743 0.108937 -3.23002e-19)
(1.04418 0.105435 -5.59086e-19)
(0.590736 1.1073 1.12792e-19)
(0.622524 1.42789 -1.85988e-20)
(1.14746 2.72916 -2.41679e-19)
(1.19997 3.11159 1.46852e-21)
(1.25611 2.73754 -1.23272e-19)
(1.29709 2.70915 1.68607e-20)
(1.27314 2.33226 -3.73519e-20)
(1.18783 3.0174 -6.95244e-20)
(1.20684 2.97426 2.17084e-19)
(1.18213 3.26558 -1.2494e-19)
(1.40114 2.9815 1.5483e-19)
(1.41309 2.91985 0)
(0.56149 0.833531 -4.75713e-20)
(0.228388 1.21901 4.86094e-19)
(0.503973 0.417842 5.6694e-19)
(0.383815 0.179686 6.50567e-19)
(0.524334 0.349046 6.7809e-19)
(0.552048 0.447504 -1.0961e-18)
(0.555042 0.442376 8.98717e-19)
(0.50108 0.368588 -3.4426e-19)
(0.417227 0.302313 7.78317e-19)
(0.743892 0.24163 -3.48377e-19)
(0.706254 0.270879 0)
(0.663327 0.192949 8.36867e-21)
(0.737281 0.500409 3.6785e-19)
(0.697037 0.473755 -1.33692e-18)
(0.635617 0.449951 1.95915e-20)
(0.632443 0.427651 0)
(0.708833 0.719257 3.76932e-19)
(0.824416 0.794222 4.15779e-19)
(0.759113 0.848228 -4.84653e-19)
(0.894062 0.813025 -1.55334e-19)
(0.92492 0.852588 -3.72495e-20)
(0.932761 0.859904 3.81982e-20)
(0.87586 0.670081 -6.77851e-19)
(0.945943 0.717192 1.44413e-19)
(0.996399 0.720238 0)
(0.993713 0.695925 -1.87877e-19)
(1.02822 0.326815 2.16402e-19)
(1.15415 0.327001 2.62962e-19)
(1.06941 0.275928 3.47426e-19)
(0.990581 0.370746 -4.28511e-19)
(1.04471 0.474939 0)
(1.12961 0.418374 0)
(0.89571 0.413985 3.26067e-21)
(0.842895 0.298769 0)
(0.884383 0.28739 3.94209e-19)
(0.908889 0.334057 7.64624e-21)
(0.968698 0.477433 1.95438e-18)
(0.901155 0.539341 5.0165e-19)
(0.92014 0.487894 -5.38521e-19)
(0.839336 0.46762 5.72517e-19)
(0.814248 0.444226 3.57092e-19)
(0.790462 0.410769 -3.50097e-19)
(1.02804 -0.000420155 6.21895e-19)
(1.02031 0.000368442 0)
(1.01896 0.00121714 4.05739e-19)
(1.02252 -0.000954759 -9.1853e-19)
(1.0225 0.00438794 4.47467e-19)
(1.02011 0.0113851 -9.36387e-19)
(1.0209 0.0111443 0)
(1.01983 0.0118912 -1.95038e-19)
(1.01648 0.00765176 4.88798e-19)
(1.01672 0.0107709 -2.45333e-19)
(1.01735 0.0104162 1.79532e-19)
(0.0277756 1.32615 0)
(0.030203 1.35924 0)
(0.0438352 1.33517 0)
(0.0454703 1.29211 0)
(0.0758084 1.37235 -1.02345e-20)
(0.08876 1.34543 -1.4149e-20)
(0.056652 1.55017 -4.90641e-21)
(0.0982656 1.38072 -4.72513e-20)
(0.0406453 1.46746 2.20709e-20)
(0.0441436 1.46472 -1.78174e-20)
(0.0674225 1.37307 -3.47909e-20)
(0.0575569 1.37749 5.71772e-20)
(0.0474133 1.35379 8.85771e-21)
(0.0399309 1.3766 4.1088e-21)
(0.104499 2.3853 -1.07266e-19)
(0.0936677 2.42825 0)
(0.148807 2.03076 9.54621e-20)
(0.115908 1.70358 3.56649e-20)
(0.214952 2.02908 -8.27232e-20)
(0.217371 2.43214 0)
(0.25056 2.39075 -6.26304e-19)
(0.291354 2.38719 4.52394e-19)
(0.255519 1.99908 -2.10339e-19)
(0.142855 2.15916 1.50373e-19)
(0.110044 2.2631 0)
(0.0203226 1.86618 -2.063e-20)
(-0.00634083 2.39207 -4.73036e-20)
(0.00233604 2.14065 0)
(0.00431896 2.45446 -1.50669e-20)
(0.0272012 2.29939 2.00381e-20)
(0.0140555 1.40716 -6.84261e-21)
(0.015379 1.39402 1.19968e-19)
(0.0153089 1.39934 -3.76863e-20)
(0.0183645 1.39944 -3.4571e-20)
(0.023851 1.43074 0)
(0.0128301 1.38328 0)
(0.00542934 1.30144 -5.0928e-20)
(0.00811071 1.37239 1.43104e-20)
(0.012751 1.37362 0)
(0.0103684 1.29448 -3.83955e-20)
(0.0183297 1.22609 7.76895e-20)
(1.04218 0.0144184 0)
(1.04846 0.00996232 -6.49091e-20)
(1.03891 0.0234745 -4.69196e-19)
(1.04914 0.0224747 0)
(1.05432 0.0217624 0)
(1.03618 0.0124087 -6.73974e-21)
(1.03027 0.0127313 7.53302e-19)
(1.03184 0.0168758 9.16108e-19)
(1.02565 0.0206605 0)
(1.02215 0.0212301 0)
(1.03539 0.0253741 4.68228e-19)
(1.02537 0.0274886 0)
(1.02365 0.0275009 0)
(-0.018323 2.02725 0)
(-0.00266993 1.65046 -1.73789e-21)
(-0.00597514 1.75866 -2.71496e-20)
(-0.00170827 1.38039 0)
(-0.00232693 1.54734 -1.89438e-20)
(-0.00936138 1.4563 1.32855e-20)
(-0.00860222 1.39055 0)
(0.406428 1.65419 0)
(0.359313 1.30574 -2.54486e-20)
(0.279126 1.34576 0)
(0.425879 1.31207 -4.1815e-20)
(0.462414 1.46595 0)
(0.4472 1.40876 4.16647e-20)
(1.04048 2.68392 -1.51621e-20)
(0.98188 2.41746 -8.91087e-19)
(0.942037 2.21058 1.01299e-18)
(0.864194 2.3902 2.39236e-19)
(0.854666 2.50105 0)
(0.922222 2.49755 0)
(0.950481 2.39055 0)
(0.927117 2.3793 -9.25662e-19)
(0.694651 2.47022 -3.76364e-19)
(0.803147 2.45366 -9.67935e-20)
(0.810975 2.43182 7.30036e-20)
(0.704512 2.40852 0)
(0.809336 2.40283 0)
(0.771023 2.41822 -3.64278e-19)
(0.768146 2.48019 0)
(0.617333 1.07419 0)
(0.520221 0.885695 -5.41847e-19)
(0.523888 0.951944 -3.1405e-20)
(0.506906 1.09252 0)
(0.493048 1.00354 8.30897e-19)
(0.788923 0.882086 -1.35016e-19)
(0.792659 1.01445 0)
(0.770837 0.993268 1.89052e-19)
(0.658747 1.02358 0)
(0.656187 0.935335 0)
(1.16528 2.76419 -2.17915e-19)
(1.14052 2.82261 -8.77671e-20)
(0.927037 2.3501 7.06593e-20)
(0.903304 2.33015 -7.46615e-20)
(1.13458 2.74229 0)
(1.08651 2.71077 8.97415e-20)
(1.10243 2.50447 -2.97441e-19)
(1.0032 2.2603 -2.86828e-20)
(0.503144 1.35282 0)
(0.522402 1.09462 -9.94194e-20)
(0.587831 1.1847 0)
(0.85814 0.220908 0)
(0.777183 0.172658 0)
(0.709047 0.140174 0)
(0.858911 0.219805 -6.05502e-19)
(0.765421 0.214717 3.63096e-19)
(0.920555 0.0810053 -3.9674e-19)
(0.941732 0.133791 0)
(0.91669 0.144977 1.71563e-19)
(0.851735 0.101704 6.8828e-19)
(0.808013 0.0698582 -4.31546e-19)
(1.10179 3.35862 -6.83641e-19)
(1.16767 3.28133 0)
(1.12095 3.44391 -1.58525e-18)
(0.660772 3.58915 1.32128e-18)
(1.03206 3.08499 1.26086e-19)
(0.527947 0.813534 5.65427e-19)
(0.51309 0.785156 0)
(0.372603 0.444498 -1.46938e-19)
(0.474142 0.652556 8.55294e-19)
(0.530342 0.420303 -1.99523e-19)
(0.514596 0.481509 2.30869e-19)
(0.683844 0.528773 4.78948e-19)
(0.724426 0.561794 0)
(0.651051 0.586833 0)
(0.624448 0.541804 0)
(1.00044 0.60356 9.49399e-20)
(0.95532 0.582304 -4.85419e-19)
(0.967052 0.597314 3.67682e-19)
(1.03009 0.533339 -3.6152e-19)
(1.07505 0.505104 0)
(1.07848 0.592039 -9.43319e-20)
(0.869274 0.403966 -7.95643e-19)
(0.862381 0.395172 -1.01618e-18)
(0.802995 0.385685 6.27028e-19)
(0.808719 0.346799 -6.48622e-19)
(0.848318 0.309195 -5.07195e-19)
(0.8032 0.310078 6.23433e-19)
(1.02656 0.00640763 -4.68281e-19)
(1.0262 0.00653656 9.43907e-19)
(1.02979 0.000684959 6.0272e-19)
(1.03396 0.00138024 -7.23864e-19)
(1.0337 0.0112544 0)
(1.02982 0.0114583 -1.17825e-18)
(0.0876347 1.65747 1.11232e-20)
(0.0504114 1.59613 0)
(0.0947347 1.70446 7.15274e-20)
(0.106603 1.67866 -6.50789e-20)
(0.0468964 1.54505 9.16371e-21)
(0.0338125 1.53758 0)
(0.0073205 1.68552 0)
(-0.00300722 1.49191 8.70287e-21)
(-0.000966213 1.43466 -7.81411e-21)
(-0.00543021 1.54454 4.55623e-21)
(-0.000762995 1.88673 1.22048e-20)
(-0.0109928 1.9404 -3.35397e-21)
(0.494908 1.37713 -2.51463e-19)
(0.497023 1.37451 2.74978e-19)
(0.442811 1.3032 -7.87798e-21)
(0.429054 1.30116 7.33773e-21)
(0.616701 1.30555 0)
(0.544604 1.39707 1.16166e-19)
(0.545641 1.40006 -1.13107e-19)
(0.473941 1.28752 7.5977e-21)
(0.518722 1.24695 0)
(0.584235 1.21684 0)
(0.669223 2.43322 5.5443e-19)
(0.66305 2.45797 1.27566e-18)
(0.719734 2.4744 -8.76843e-19)
(0.619903 2.44782 -2.07018e-19)
(0.555631 2.54387 2.77036e-19)
(0.494901 2.50655 -7.21588e-19)
(0.991089 2.39471 -5.70572e-19)
(1.02522 2.41285 0)
(0.948772 2.19524 -6.29167e-19)
(1.05683 2.69153 0)
(1.05617 2.67409 0)
(0.613571 2.30702 2.92585e-20)
(1.12352 3.07803 9.4951e-20)
(1.00471 2.97877 -1.48994e-19)
(0.333136 0.845084 0)
(0.345399 0.745192 -3.01435e-19)
(0.539902 0.674412 -3.05629e-19)
(0.379021 2.15251 0)
(0.409141 2.74851 -8.87074e-20)
(0.420378 2.48687 0)
(0.714792 0.675087 -8.06592e-19)
(0.772363 0.678273 1.13133e-18)
(0.787442 0.647781 -1.07239e-18)
(0.687946 0.642061 -1.02604e-19)
(0.750666 0.601779 -4.21849e-19)
(0.97793 2.76428 -7.19228e-20)
(1.01662 2.76761 -1.98822e-19)
(0.565971 2.23102 4.01312e-19)
(0.615646 1.7527 -3.23421e-19)
(0.713085 1.87013 -4.82944e-19)
(0.982601 2.40499 -1.36556e-19)
(0.981243 2.35962 3.53996e-19)
(0.658952 1.78789 3.24175e-20)
(0.46624 1.31845 1.70303e-19)
)
;

boundaryField
{
    wall-4
    {
        type            noSlip;
    }
    velocity-inlet-5
    {
        type            fixedValue;
        value           uniform (1 0 0);
    }
    velocity-inlet-6
    {
        type            fixedValue;
        value           uniform (0 3 0);
    }
    pressure-outlet-7
    {
        type            zeroGradient;
    }
    wall-8
    {
        type            noSlip;
    }
    frontAndBackPlanes
    {
        type            empty;
    }
}


// ************************************************************************* //
