/*--------------------------------*- C++ -*----------------------------------*\
  =========                 |
  \\      /  F ield         | OpenFOAM: The Open Source CFD Toolbox
   \\    /   O peration     | Website:  https://openfoam.org
    \\  /    A nd           | Version:  6
     \\/     M anipulation  |
\*---------------------------------------------------------------------------*/
FoamFile
{
    version     2.0;
    format      ascii;
    class       volScalarField;
    location    "101";
    object      p;
}
// * * * * * * * * * * * * * * * * * * * * * * * * * * * * * * * * * * * * * //

dimensions      [0 2 -2 0 0 0 0];

internalField   nonuniform List<scalar> 
8800
(
0.911512
0.862199
0.824235
0.79617
0.776013
0.761434
0.750846
0.74332
0.738455
0.736412
0.737811
0.742178
0.748991
0.75843
0.771177
0.788506
0.812388
0.845489
0.888429
0.940944
0.746
0.752345
0.761498
0.76505
0.762445
0.756363
0.749431
0.743202
0.738419
0.735573
0.735372
0.738028
0.742694
0.74884
0.755953
0.762997
0.767883
0.767763
0.761093
0.752198
0.719502
0.725739
0.730242
0.734118
0.737073
0.738031
0.736954
0.73485
0.732892
0.732083
0.733149
0.735632
0.738542
0.74083
0.741365
0.739587
0.736229
0.732222
0.727445
0.72373
0.71518
0.717947
0.720557
0.722721
0.724467
0.726046
0.727163
0.727535
0.727448
0.727581
0.728426
0.729603
0.730373
0.730245
0.729287
0.727946
0.726287
0.723993
0.721587
0.720021
0.710096
0.711522
0.713366
0.715455
0.717177
0.718483
0.719598
0.720602
0.721443
0.722221
0.722979
0.723482
0.72354
0.723205
0.722558
0.72146
0.719818
0.717934
0.716587
0.715784
0.705068
0.705972
0.707225
0.70886
0.710566
0.712115
0.71342
0.714571
0.715675
0.716744
0.717587
0.718029
0.718082
0.717749
0.716974
0.715808
0.714465
0.713212
0.712398
0.711873
0.700113
0.70077
0.701737
0.703066
0.704529
0.706065
0.707577
0.708977
0.710287
0.711556
0.712578
0.713137
0.71321
0.712818
0.712072
0.711159
0.710191
0.709303
0.70873
0.708346
0.695225
0.695731
0.696524
0.697678
0.698997
0.700439
0.701981
0.703567
0.705137
0.706671
0.707915
0.708606
0.708754
0.708489
0.707972
0.707321
0.706615
0.705972
0.705554
0.705253
0.690349
0.69075
0.691419
0.692456
0.69371
0.695106
0.696651
0.698346
0.700149
0.701991
0.703516
0.704425
0.704789
0.704773
0.704512
0.704093
0.703603
0.70316
0.702854
0.702609
0.685399
0.685726
0.686309
0.687272
0.688486
0.68988
0.691473
0.693286
0.695308
0.697479
0.699373
0.700621
0.701301
0.701574
0.701572
0.7014
0.701119
0.700843
0.700622
0.700416
0.680285
0.680556
0.68108
0.682002
0.683209
0.684642
0.686327
0.688303
0.690588
0.693144
0.695497
0.697181
0.698243
0.698847
0.69913
0.699208
0.69914
0.699017
0.698865
0.698686
0.674912
0.67514
0.675627
0.676539
0.677779
0.679294
0.681118
0.683317
0.685937
0.688971
0.691884
0.69409
0.695599
0.696584
0.697189
0.697524
0.697684
0.697704
0.69761
0.697449
0.669182
0.669376
0.669846
0.670777
0.672091
0.673735
0.675754
0.678247
0.681294
0.684921
0.688512
0.691339
0.693373
0.694797
0.695771
0.696414
0.696801
0.696954
0.696907
0.696758
0.662983
0.663149
0.663619
0.664599
0.666029
0.667854
0.670138
0.673011
0.676592
0.680944
0.685356
0.688927
0.691585
0.693521
0.69492
0.695905
0.696541
0.696828
0.696823
0.69668
0.656186
0.656329
0.656815
0.657871
0.659463
0.661531
0.664159
0.667513
0.671755
0.676993
0.682396
0.686857
0.690256
0.692796
0.69468
0.696058
0.696977
0.697403
0.697437
0.697296
0.648638
0.648759
0.649273
0.650437
0.652241
0.654624
0.657689
0.661645
0.666703
0.673017
0.679613
0.685136
0.68941
0.692666
0.695131
0.696964
0.698199
0.698771
0.698839
0.698696
0.640145
0.640248
0.640797
0.642102
0.644181
0.646962
0.650575
0.65528
0.661341
0.668964
0.67699
0.683775
0.689082
0.693181
0.696343
0.698712
0.700302
0.701025
0.701124
0.700974
0.630416
0.63052
0.631138
0.632617
0.635051
0.638333
0.642634
0.64827
0.655566
0.664777
0.674511
0.68279
0.689316
0.694406
0.698388
0.701383
0.703376
0.704257
0.704381
0.704221
0.619152
0.619232
0.619938
0.621675
0.624554
0.628474
0.633643
0.640442
0.64926
0.660397
0.672168
0.682198
0.690151
0.696406
0.701332
0.705066
0.707501
0.708539
0.708681
0.708507
0.605934
0.606002
0.606818
0.608869
0.612314
0.617053
0.623327
0.631592
0.642296
0.655769
0.669955
0.682026
0.691623
0.699229
0.705255
0.709821
0.712729
0.713913
0.714062
0.71387
0.590151
0.59021
0.591179
0.593653
0.597845
0.603653
0.611359
0.621495
0.634551
0.650853
0.667879
0.682302
0.693769
0.702913
0.710183
0.715673
0.719062
0.720365
0.720504
0.720293
0.57096
0.571015
0.57221
0.57528
0.580491
0.587743
0.597352
0.609916
0.625927
0.645645
0.665971
0.683052
0.69662
0.70748
0.716113
0.722597
0.72643
0.727797
0.727907
0.727676
0.54712
0.54718
0.54873
0.5527
0.559379
0.568657
0.580876
0.596649
0.616383
0.640193
0.664292
0.684324
0.700189
0.712918
0.723013
0.730486
0.734661
0.736012
0.736069
0.735822
0.516683
0.516775
0.518944
0.524375
0.53336
0.545632
0.56155
0.581599
0.60599
0.634626
0.662953
0.686172
0.704485
0.719169
0.730793
0.739141
0.743469
0.744698
0.744681
0.744425
0.476355
0.476588
0.480037
0.488174
0.501065
0.518004
0.539214
0.564895
0.594982
0.629159
0.662105
0.688688
0.70951
0.726189
0.739283
0.748254
0.752458
0.753447
0.753348
0.753094
0.419847
0.421034
0.427945
0.441741
0.461474
0.485651
0.514207
0.547006
0.58378
0.62409
0.661919
0.691954
0.715276
0.733863
0.748234
0.757421
0.761153
0.76182
0.761649
0.76141
0.338046
0.346088
0.362036
0.386235
0.416212
0.450083
0.48757
0.528496
0.572621
0.619538
0.662566
0.696299
0.722328
0.742941
0.758241
0.767187
0.770231
0.770578
0.770371
0.770176
0.250751
0.268426
0.294345
0.329722
0.370506
0.414178
0.460562
0.509662
0.56135
0.615319
0.664195
0.702231
0.731519
0.754323
0.770312
0.778274
0.780322
0.780391
0.780219
0.780101
0.175736
0.197371
0.231611
0.276549
0.326889
0.379793
0.434825
0.491925
0.550942
0.611577
0.665809
0.707679
0.739747
0.764255
0.780236
0.78695
0.788272
0.788251
0.788124
0.788041
0.114005
0.138055
0.178006
0.229803
0.287592
0.348175
0.410798
0.475188
0.540992
0.607808
0.666932
0.712231
0.746674
0.772428
0.788178
0.794029
0.794996
0.794945
0.794841
0.794772
0.0626383
0.0881529
0.132238
0.18935
0.253074
0.319932
0.388968
0.459727
0.531628
0.604079
0.667676
0.716066
0.752622
0.779429
0.794922
0.800124
0.800878
0.800806
0.800713
0.800646
0.0190399
0.0454154
0.0925533
0.153955
0.222644
0.29483
0.369379
0.445719
0.523077
0.600645
0.668321
0.719506
0.757918
0.78555
0.800742
0.805465
0.806093
0.806009
0.805917
0.805847
-0.0188704
0.00806039
0.0575709
0.122525
0.195451
0.272274
0.351707
0.433062
0.515391
0.597665
0.669068
0.722732
0.762699
0.790918
0.805778
0.810155
0.810715
0.810629
0.810537
0.81046
-0.052611
-0.0252627
0.0261887
0.0941703
0.170775
0.251685
0.335517
0.421476
0.508438
0.595136
0.669999
0.725875
0.767111
0.795678
0.810164
0.81428
0.814816
0.814749
0.81467
0.814585
-0.0832462
-0.0555344
-0.00244574
0.0681832
0.14804
0.232596
0.320425
0.410653
0.502013
0.592964
0.671143
0.729058
0.771343
0.800048
0.814105
0.818004
0.818548
0.818536
0.818487
0.818399
-0.111626
-0.0835458
-0.0289969
0.0440258
0.126781
0.214621
0.306111
0.400334
0.495907
0.591045
0.672521
0.73241
0.775611
0.804307
0.817892
0.821589
0.82216
0.822231
0.822236
0.822152
-0.138187
-0.109779
-0.0539005
0.0212692
0.106639
0.197462
0.292323
0.390302
0.489948
0.589282
0.674155
0.736059
0.780141
0.80875
0.821851
0.825349
0.825945
0.826103
0.826173
0.8261
-0.163457
-0.134645
-0.0775386
-0.000406055
0.087334
0.180876
0.278859
0.38038
0.483981
0.587562
0.676042
0.740114
0.785114
0.813613
0.826242
0.829529
0.830126
0.830355
0.830486
0.83043
-0.187614
-0.158398
-0.100142
-0.021224
0.0686616
0.164691
0.265564
0.370422
0.47786
0.585768
0.678147
0.74465
0.790651
0.819047
0.831189
0.834239
0.834804
0.835074
0.83525
0.835212
-0.21085
-0.181215
-0.121889
-0.0413366
0.0504943
0.148786
0.252322
0.360308
0.471452
0.583754
0.680372
0.749705
0.796858
0.825109
0.836687
0.839458
0.839952
0.840228
0.840426
0.840404
-0.233308
-0.203211
-0.142883
-0.0608365
0.0327362
0.133083
0.239058
0.34996
0.464647
0.581358
0.682576
0.755264
0.803841
0.831836
0.842665
0.845041
0.845439
0.845697
0.845892
0.845881
-0.255099
-0.224499
-0.163176
-0.0797777
0.0153519
0.117538
0.225733
0.33932
0.457359
0.578424
0.684576
0.761256
0.811741
0.839409
0.849077
0.850773
0.851046
0.851313
0.851485
0.851462
-0.276133
-0.245059
-0.182793
-0.0982009
-0.00168447
0.102149
0.212328
0.328368
0.449532
0.574834
0.686154
0.767543
0.820672
0.848162
0.856107
0.856512
0.856471
0.856883
0.857195
0.857173
-0.29643
-0.264907
-0.201765
-0.116112
-0.0183682
0.0869187
0.198868
0.3171
0.44114
0.570474
0.687097
0.773887
0.830663
0.858576
0.864483
0.862655
0.861627
0.862358
0.863355
0.863553
-0.316075
-0.284042
-0.220109
-0.133515
-0.0346771
0.0718848
0.185387
0.30555
0.432182
0.565276
0.687173
0.779988
0.841567
0.87108
0.87545
0.870772
0.867649
0.868478
0.871024
0.872401
-0.334955
-0.302467
-0.2378
-0.150374
-0.0505875
0.0570945
0.171939
0.293772
0.422695
0.559215
0.686183
0.78547
0.853006
0.885629
0.889925
0.883086
0.877151
0.876059
0.878574
0.880329
-0.353168
-0.320216
-0.254861
-0.166742
-0.0661523
0.0424921
0.158455
0.281689
0.412587
0.552191
0.683911
0.789991
0.864648
0.901883
0.908018
0.900763
0.892096
0.884426
0.876602
0.87986
-0.370669
-0.337355
-0.271441
-0.182817
-0.0816662
0.0277583
0.14454
0.268851
0.401365
0.543654
0.67982
0.79296
0.876356
0.919815
0.929171
0.923174
0.910997
0.895409
0.872617
0.875712
-0.38735
-0.353885
-0.287397
-0.198424
-0.0968841
0.0131724
0.130364
0.25553
0.389242
0.5337
0.673666
0.79319
0.886553
0.937573
0.949098
0.943039
0.927167
0.894737
0.838986
0.816075
-0.403116
-0.370839
-0.302337
-0.213135
-0.111004
-0.000778896
0.116204
0.241996
0.376483
0.522456
0.665355
0.789779
0.893294
0.952968
0.96161
0.949451
0.920672
0.861278
0.79871
0.761085
-0.444866
-0.387591
-0.315965
-0.227921
-0.124803
-0.0151051
0.102206
0.228104
0.362841
0.509488
0.65426
0.781667
0.892567
0.959839
0.962257
0.928781
0.863863
0.789082
0.7173
0.677615
-0.41822
-0.399323
-0.336612
-0.247938
-0.146259
-0.036669
0.0801386
0.205748
0.340212
0.486642
0.63184
0.760177
0.865696
0.940307
0.907159
0.778178
0.675251
0.60377
0.535011
0.555476
-0.447919
-0.415905
-0.35231
-0.264053
-0.162726
-0.0532158
0.0639238
0.189091
0.322886
0.468181
0.611671
0.737138
0.831545
0.87287
0.802141
0.645579
0.524857
0.443367
0.356691
0.394995
-0.470579
-0.436276
-0.370989
-0.282673
-0.18138
-0.0718179
0.0453184
0.169858
0.302548
0.445847
0.585955
0.705405
0.787483
0.790791
0.664935
0.496178
0.357108
0.256771
0.157374
0.18191
-0.492434
-0.457176
-0.390599
-0.301663
-0.200289
-0.0908057
0.0258796
0.149566
0.280828
0.421517
0.556838
0.666553
0.730945
0.70005
0.524117
0.336358
0.168827
0.0292972
-0.099032
-0.0937423
-0.513888
-0.478334
-0.410931
-0.321455
-0.219965
-0.110692
0.00535659
0.127978
0.25742
0.394888
0.524094
0.623529
0.666254
0.584003
0.384772
0.179053
-0.0130467
-0.170767
-0.377011
-0.457544
-0.535632
-0.500231
-0.432389
-0.342565
-0.240961
-0.131893
-0.0164583
0.104995
0.232378
0.36615
0.488332
0.57821
0.591452
0.458294
0.256811
0.0409641
-0.15518
-0.31833
-0.441623
-0.555068
-0.558726
-0.523341
-0.455325
-0.365375
-0.263815
-0.155083
-0.0404
0.0796431
0.204512
0.333823
0.448231
0.524332
0.507911
0.338628
0.136592
-0.0727089
-0.252042
-0.350712
-0.376632
-0.389705
-0.583314
-0.54796
-0.479866
-0.389972
-0.288671
-0.180487
-0.0668529
0.0513938
0.17318
0.297089
0.402961
0.459686
0.421917
0.223466
0.0239034
-0.164906
-0.300594
-0.339093
-0.347546
-0.34789
-0.609684
-0.574219
-0.506054
-0.416345
-0.315483
-0.208122
-0.0958566
0.0201696
0.138286
0.255931
0.352441
0.391094
0.317404
0.11762
-0.0750157
-0.239087
-0.315276
-0.329373
-0.330389
-0.330263
-0.637843
-0.602151
-0.533918
-0.4445
-0.344276
-0.237994
-0.127438
-0.0140674
0.0998308
0.210468
0.296402
0.318093
0.20525
0.0210531
-0.160442
-0.290332
-0.319639
-0.320274
-0.320828
-0.320431
-0.667544
-0.631605
-0.563368
-0.474369
-0.374981
-0.270066
-0.16159
-0.0513124
0.0578666
0.16082
0.236029
0.237391
0.106407
-0.0669218
-0.227152
-0.302165
-0.316959
-0.314976
-0.314686
-0.314303
-0.698239
-0.662235
-0.59415
-0.505731
-0.407421
-0.304193
-0.198176
-0.0914557
0.0126222
0.107491
0.171656
0.15633
0.0162787
-0.143727
-0.272037
-0.310992
-0.310351
-0.310564
-0.310282
-0.309963
-0.729487
-0.693515
-0.625782
-0.538177
-0.441252
-0.34006
-0.236917
-0.134219
-0.0356008
0.0514819
0.102275
0.080122
-0.0641694
-0.204206
-0.298468
-0.306709
-0.307894
-0.308072
-0.307904
-0.307663
-0.760311
-0.724585
-0.657549
-0.571082
-0.475927
-0.377189
-0.277346
-0.179104
-0.0863667
-0.00631513
0.0331959
0.00393523
-0.132162
-0.246492
-0.303657
-0.313543
-0.307953
-0.306841
-0.306406
-0.306183
-0.78906
-0.754178
-0.688422
-0.603566
-0.51067
-0.414874
-0.318784
-0.225359
-0.138867
-0.065431
-0.0307198
-0.0739008
-0.186749
-0.278813
-0.301592
-0.304858
-0.305531
-0.305058
-0.304819
-0.304685
-0.814506
-0.780798
-0.717014
-0.634433
-0.544423
-0.452169
-0.360341
-0.272046
-0.191823
-0.125318
-0.0927739
-0.140755
-0.227616
-0.297343
-0.318591
-0.308153
-0.304548
-0.303445
-0.303165
-0.303037
-0.834037
-0.802362
-0.741582
-0.662173
-0.575876
-0.487885
-0.400907
-0.318073
-0.24393
-0.184168
-0.154325
-0.192884
-0.254256
-0.298899
-0.304808
-0.304576
-0.303027
-0.30254
-0.302402
-0.302246
-0.845649
-0.816797
-0.760076
-0.685056
-0.603508
-0.520637
-0.439159
-0.362174
-0.294084
-0.239362
-0.210626
-0.236233
-0.270074
-0.295256
-0.296228
-0.300944
-0.30307
-0.303389
-0.303386
-0.303297
-0.846679
-0.821754
-0.770425
-0.701254
-0.625695
-0.548969
-0.473663
-0.402877
-0.341037
-0.290207
-0.257722
-0.275581
-0.285635
-0.298433
-0.302439
-0.30397
-0.30516
-0.305472
-0.305511
-0.305517
-0.834766
-0.814604
-0.770507
-0.709045
-0.64098
-0.571513
-0.50309
-0.438682
-0.382989
-0.337942
-0.293163
-0.313954
-0.302977
-0.312562
-0.312735
-0.309607
-0.308248
-0.308093
-0.308192
-0.30823
-0.807817
-0.793106
-0.758525
-0.707227
-0.648334
-0.587271
-0.526444
-0.468469
-0.418155
-0.380738
-0.332969
-0.330022
-0.324007
-0.331344
-0.320907
-0.315998
-0.312984
-0.312416
-0.312482
-0.312448
-0.769303
-0.759933
-0.735723
-0.696112
-0.647796
-0.596022
-0.543152
-0.49163
-0.446096
-0.414218
-0.38292
-0.353807
-0.325861
-0.331677
-0.337257
-0.328398
-0.321979
-0.320612
-0.321023
-0.32102
-0.726249
-0.720904
-0.707015
-0.6788
-0.641472
-0.598632
-0.553318
-0.507933
-0.466286
-0.435333
-0.407084
-0.376739
-0.335166
-0.304006
-0.290943
-0.301693
-0.325417
-0.340497
-0.344893
-0.345221
-0.688406
-0.685137
-0.678503
-0.66058
-0.63222
-0.596916
-0.558014
-0.517298
-0.477599
-0.445221
-0.41901
-0.398087
-0.38564
-0.380858
-0.396716
-0.437324
-0.44854
-0.427438
-0.415498
-0.418495
-0.661151
-0.659213
-0.655843
-0.645256
-0.623684
-0.593966
-0.559154
-0.520622
-0.480992
-0.444939
-0.416415
-0.410289
-0.459064
-0.555108
-0.652624
-0.694015
-0.691616
-0.647875
-0.592066
-0.57305
-0.641173
-0.640488
-0.639349
-0.634116
-0.618371
-0.592298
-0.558705
-0.52009
-0.47741
-0.434274
-0.404617
-0.380897
-0.386617
-0.428011
-0.50476
-0.531046
-0.497693
-0.455352
-0.411146
-0.391035
-0.629526
-0.629298
-0.628679
-0.626264
-0.615588
-0.59169
-0.557769
-0.517024
-0.469788
-0.417947
-0.373376
-0.314444
-0.237147
-0.159537
-0.106147
-0.0490433
-0.00335382
0.0274175
0.0498718
0.061178
-0.621524
-0.621376
-0.620966
-0.620272
-0.613759
-0.592281
-0.557381
-0.513174
-0.460539
-0.396938
-0.331707
-0.250069
-0.107183
0.0910295
0.279726
0.431929
0.512967
0.548738
0.560655
0.565023
-0.616353
-0.616309
-0.616187
-0.616026
-0.61215
-0.594096
-0.558264
-0.509845
-0.451171
-0.376985
-0.293609
-0.197218
-0.0146015
0.23229
0.479683
0.687327
0.826249
0.902615
0.941818
0.956568
-0.612195
-0.61219
-0.612118
-0.612003
-0.610608
-0.596399
-0.560504
-0.508284
-0.44414
-0.362566
-0.267375
-0.165049
0.0273891
0.30539
0.604723
0.871438
1.06867
1.18415
1.23827
1.25724
-0.608723
-0.60875
-0.608676
-0.608475
-0.608267
-0.598358
-0.563911
-0.509878
-0.441528
-0.355774
-0.255039
-0.150786
0.0327488
0.310464
0.619296
0.907735
1.13939
1.27617
1.33277
1.34729
-0.60609
-0.606142
-0.606197
-0.606254
-0.606679
-0.599653
-0.568541
-0.514232
-0.44432
-0.357483
-0.258385
-0.15982
-0.00866393
0.245945
0.520316
0.768584
0.974124
1.09977
1.1487
1.15986
-0.60352
-0.60365
-0.603885
-0.604262
-0.60444
-0.600506
-0.573369
-0.5213
-0.452425
-0.367757
-0.274492
-0.187004
-0.070291
0.137469
0.363431
0.555934
0.709172
0.800637
0.835872
0.843362
-0.602008
-0.602082
-0.60185
-0.601085
-0.600028
-0.598342
-0.577599
-0.53087
-0.465178
-0.384053
-0.298929
-0.222721
-0.13507
0.0253114
0.196612
0.334362
0.440849
0.50167
0.52371
0.527846
-0.603814
-0.603712
-0.602971
-0.600838
-0.597717
-0.596241
-0.583684
-0.543386
-0.480406
-0.403898
-0.329121
-0.26407
-0.20116
-0.0850848
0.0413635
0.137897
0.207865
0.247072
0.261272
0.26369
-0.609155
-0.609227
-0.609305
-0.609296
-0.608841
-0.608349
-0.599139
-0.559164
-0.495872
-0.425976
-0.360699
-0.30431
-0.254936
-0.170908
-0.0808281
-0.0149104
0.0293654
0.053336
0.062413
0.0643784
-0.614387
-0.615222
-0.618209
-0.626137
-0.6375
-0.642509
-0.626228
-0.575916
-0.510723
-0.449327
-0.391851
-0.341327
-0.304115
-0.240288
-0.172838
-0.125193
-0.0932372
-0.0761706
-0.0696094
-0.0683704
-0.615771
-0.617098
-0.622194
-0.636678
-0.659483
-0.670195
-0.645272
-0.584157
-0.524937
-0.473075
-0.418476
-0.373992
-0.34522
-0.295756
-0.240674
-0.201234
-0.174698
-0.159118
-0.153749
-0.153234
-0.619692
-0.620615
-0.623632
-0.628862
-0.633219
-0.638689
-0.615711
-0.573551
-0.536293
-0.491094
-0.438705
-0.401806
-0.378632
-0.336311
-0.28877
-0.254134
-0.228564
-0.213623
-0.208841
-0.208734
-0.632028
-0.632343
-0.632032
-0.615657
-0.571811
-0.535678
-0.540115
-0.549968
-0.541244
-0.501731
-0.454503
-0.423409
-0.405019
-0.365647
-0.321677
-0.28993
-0.266282
-0.252924
-0.248681
-0.248972
-0.650403
-0.649508
-0.645547
-0.617354
-0.552859
-0.497667
-0.511609
-0.554969
-0.553713
-0.511565
-0.464628
-0.438775
-0.418399
-0.383382
-0.345029
-0.3161
-0.29435
-0.281913
-0.277953
-0.278391
-0.686056
-0.683049
-0.685223
-0.685145
-0.672444
-0.638905
-0.62732
-0.625925
-0.591097
-0.523366
-0.4751
-0.446414
-0.423013
-0.388168
-0.353446
-0.328276
-0.309816
-0.299814
-0.296552
-0.29704
-0.780967
-0.786413
-0.818028
-0.861893
-0.882719
-0.864118
-0.819154
-0.743333
-0.636703
-0.537597
-0.483424
-0.444734
-0.418281
-0.385499
-0.353587
-0.330387
-0.314212
-0.305893
-0.303026
-0.303465
-0.906418
-0.921367
-0.9614
-1.00295
-1.02306
-1.00693
-0.943935
-0.821664
-0.664364
-0.546845
-0.478733
-0.431599
-0.403255
-0.371244
-0.340862
-0.319071
-0.304946
-0.297606
-0.294994
-0.295335
-0.964464
-0.978702
-1.00692
-1.03563
-1.05169
-1.03611
-0.966395
-0.810945
-0.644284
-0.530482
-0.451576
-0.403117
-0.377734
-0.344887
-0.314336
-0.293526
-0.279966
-0.272796
-0.270347
-0.270752
-0.908707
-0.919749
-0.940035
-0.962539
-0.977041
-0.964524
-0.896212
-0.736348
-0.589628
-0.480594
-0.399917
-0.361784
-0.337516
-0.305073
-0.276232
-0.255815
-0.24168
-0.233789
-0.231442
-0.232042
-0.753246
-0.763351
-0.782533
-0.806045
-0.824321
-0.816028
-0.745842
-0.618851
-0.504949
-0.401835
-0.337624
-0.307422
-0.283207
-0.254295
-0.228987
-0.209554
-0.19482
-0.186664
-0.184672
-0.18555
-0.526795
-0.538007
-0.55905
-0.585941
-0.608801
-0.60405
-0.547513
-0.46377
-0.379281
-0.30718
-0.267317
-0.239782
-0.222232
-0.199921
-0.177586
-0.159781
-0.146656
-0.139804
-0.138458
-0.139432
-0.267654
-0.276794
-0.29792
-0.329825
-0.359731
-0.366102
-0.338908
-0.294654
-0.245917
-0.208659
-0.183402
-0.166876
-0.161657
-0.143358
-0.124638
-0.110861
-0.100771
-0.0962665
-0.0958369
-0.0967774
-0.0636134
-0.0728847
-0.0932365
-0.120924
-0.148157
-0.164165
-0.162696
-0.148712
-0.127975
-0.111169
-0.0969371
-0.0950797
-0.0959876
-0.0816455
-0.070387
-0.0624719
-0.0566981
-0.0548932
-0.0552881
-0.056052
0.0242285
0.0187254
0.00815692
-0.00541283
-0.0178796
-0.0257549
-0.0309023
-0.0314356
-0.0274591
-0.0244285
-0.0214081
-0.0207251
-0.0194823
-0.0179812
-0.0163328
-0.017124
-0.0174722
-0.0175851
-0.0150151
-0.0138636
0.0306634
0.214212
0.381797
0.52272
0.633666
0.719344
0.789445
0.846153
0.85956
0.856751
0.308414
0.425356
0.534553
0.628249
0.706212
0.769863
0.819716
0.853366
0.871434
0.888434
0.496063
0.573492
0.64989
0.716596
0.773093
0.819787
0.856634
0.884962
0.906341
0.925639
0.6349
0.690049
0.745387
0.794932
0.837628
0.873989
0.904618
0.930386
0.950243
0.969157
0.747689
0.789264
0.830449
0.869045
0.903582
0.934191
0.961024
0.983869
1.00162
1.01973
0.842006
0.876636
0.910693
0.943384
0.973584
1.001
1.02529
1.04577
1.06133
1.07883
0.928539
0.959852
0.991398
1.02195
1.05041
1.07633
1.0991
1.11779
1.13154
1.14855
1.01434
1.04653
1.07853
1.10937
1.13783
1.16334
1.18523
1.20259
1.21484
1.23134
1.10805
1.14434
1.17888
1.21111
1.24007
1.26522
1.28617
1.30234
1.31385
1.32996
1.22083
1.26156
1.29838
1.33106
1.35936
1.38321
1.40271
1.4179
1.42973
1.44577
1.36226
1.40309
1.43823
1.46765
1.49273
1.51425
1.53269
1.54812
1.56119
1.57712
1.53352
1.56544
1.59238
1.61472
1.63476
1.65344
1.67115
1.68789
1.70278
1.71848
1.71954
1.73672
1.75379
1.77047
1.78655
1.80127
1.81516
1.82962
1.84484
1.86214
1.90291
1.91281
1.92597
1.93694
1.94635
1.956
1.96659
1.97675
1.98603
2.0117
2.12069
2.11499
2.10203
2.08778
2.08147
2.08717
2.1053
2.13382
2.16759
2.20391
2.42351
2.28757
2.20805
2.16549
2.14815
2.15215
2.17957
2.23743
2.34508
2.52349
0.815204
0.808902
0.801175
0.790066
0.776502
0.763864
0.753483
0.745495
0.739812
0.736529
0.73624
0.739132
0.744414
0.751807
0.761383
0.773232
0.786807
0.799745
0.80874
0.816285
0.724256
0.730177
0.738253
0.744392
0.747469
0.74697
0.743901
0.739932
0.73638
0.734148
0.73408
0.736399
0.740206
0.744692
0.748822
0.751089
0.75003
0.745405
0.738356
0.730526
0.717478
0.719851
0.723123
0.725904
0.728366
0.73057
0.73177
0.731652
0.730756
0.730007
0.730297
0.731787
0.733629
0.734903
0.734863
0.733422
0.731282
0.728934
0.725962
0.722948
0.71265
0.713739
0.715661
0.718008
0.719894
0.72131
0.722553
0.72358
0.724228
0.724674
0.725315
0.726146
0.726684
0.72662
0.726033
0.725142
0.723834
0.721882
0.719786
0.718313
0.707575
0.708208
0.709343
0.711113
0.712973
0.714588
0.715869
0.716974
0.718013
0.718991
0.71988
0.720505
0.720727
0.720585
0.720099
0.719164
0.717766
0.716178
0.714854
0.714056
0.702584
0.703022
0.703817
0.705136
0.706678
0.708268
0.709782
0.711127
0.71235
0.713532
0.714609
0.715335
0.715616
0.715461
0.714859
0.713908
0.712792
0.711675
0.710789
0.710258
0.697666
0.697993
0.698612
0.699699
0.701019
0.702452
0.703974
0.705507
0.70698
0.708395
0.70969
0.710586
0.710938
0.710792
0.710273
0.70955
0.708751
0.70793
0.707289
0.7069
0.692794
0.693047
0.693548
0.694479
0.695682
0.69703
0.698504
0.700102
0.701778
0.703475
0.705049
0.706151
0.706647
0.706671
0.706386
0.705917
0.705342
0.704758
0.7043
0.704003
0.687893
0.688093
0.688512
0.689336
0.690467
0.691776
0.693247
0.694904
0.696741
0.698712
0.700617
0.702023
0.702791
0.703089
0.703069
0.702846
0.702493
0.702111
0.701797
0.701565
0.682873
0.683033
0.683394
0.684149
0.68524
0.686541
0.688055
0.689814
0.691834
0.694097
0.696396
0.698213
0.699352
0.69998
0.700247
0.70028
0.700161
0.699968
0.699772
0.699587
0.677641
0.677771
0.67809
0.678805
0.679887
0.681224
0.682822
0.684731
0.686992
0.689614
0.692393
0.694719
0.696304
0.697314
0.697909
0.698221
0.698337
0.69833
0.698239
0.69809
0.672103
0.672206
0.672499
0.673199
0.674308
0.675726
0.677454
0.679571
0.682147
0.685221
0.68859
0.691525
0.693636
0.695091
0.69606
0.696679
0.697059
0.697236
0.697235
0.697113
0.666153
0.666234
0.666512
0.667221
0.668394
0.669935
0.671851
0.674246
0.677224
0.680862
0.68495
0.688618
0.691355
0.693329
0.69473
0.695718
0.696375
0.696736
0.696819
0.696717
0.659672
0.659733
0.660006
0.660748
0.662021
0.663734
0.665903
0.668659
0.672143
0.676475
0.681437
0.685988
0.68947
0.69206
0.693959
0.695357
0.696334
0.696897
0.697061
0.696975
0.652521
0.65256
0.652836
0.653634
0.655046
0.656987
0.659485
0.6627
0.666815
0.671997
0.678018
0.683627
0.687997
0.691315
0.693805
0.695676
0.697023
0.697804
0.698047
0.697972
0.644531
0.644549
0.644828
0.645705
0.647299
0.649533
0.652448
0.656238
0.661136
0.667359
0.674659
0.681533
0.686954
0.691131
0.694324
0.696765
0.698531
0.69955
0.699871
0.699803
0.635442
0.635451
0.635757
0.636738
0.638569
0.641174
0.644614
0.649122
0.654987
0.662483
0.671323
0.679706
0.686371
0.691558
0.695578
0.698701
0.700949
0.702228
0.702626
0.702561
0.624988
0.62497
0.625317
0.626451
0.628584
0.631661
0.635763
0.641169
0.648232
0.657284
0.66798
0.678144
0.686276
0.692653
0.697649
0.701558
0.704365
0.705923
0.706394
0.706327
0.612797
0.612759
0.613158
0.61448
0.616992
0.620677
0.62562
0.63216
0.640715
0.651672
0.664597
0.676864
0.686698
0.694462
0.700602
0.705414
0.708853
0.710701
0.711234
0.711158
0.598356
0.598296
0.598775
0.60035
0.603354
0.607821
0.61385
0.621836
0.632266
0.645563
0.661152
0.675878
0.68767
0.69702
0.704486
0.710325
0.71445
0.716581
0.717159
0.717067
0.580947
0.580865
0.581474
0.583406
0.587066
0.592576
0.600035
0.609901
0.622714
0.638891
0.657648
0.67521
0.689227
0.700369
0.709303
0.716294
0.721142
0.723521
0.724112
0.723996
0.559545
0.559445
0.560264
0.562719
0.567302
0.574258
0.583667
0.596038
0.611913
0.631639
0.654122
0.674903
0.691399
0.704516
0.715058
0.723294
0.728836
0.731384
0.731944
0.731797
0.532588
0.532489
0.533662
0.536927
0.542923
0.551989
0.564176
0.579964
0.599799
0.623865
0.650669
0.675024
0.694212
0.709456
0.721713
0.731215
0.737335
0.739921
0.740397
0.740215
0.497545
0.497503
0.499317
0.503986
0.512359
0.524767
0.541056
0.561551
0.586466
0.61574
0.647443
0.675682
0.697702
0.715163
0.729182
0.739868
0.746327
0.748767
0.749106
0.748892
0.449923
0.450117
0.453357
0.460994
0.473809
0.491731
0.514136
0.541002
0.572242
0.607568
0.644658
0.677
0.701925
0.721595
0.737335
0.748976
0.755385
0.75746
0.757628
0.757395
0.381304
0.3828
0.390714
0.405221
0.426262
0.452989
0.484034
0.519011
0.557701
0.599755
0.642547
0.679076
0.706904
0.728675
0.745888
0.758039
0.763934
0.765459
0.765467
0.765247
0.299323
0.30222
0.317658
0.34278
0.375119
0.412215
0.452576
0.496056
0.542562
0.591837
0.641012
0.682485
0.713929
0.738373
0.75708
0.76917
0.774262
0.775304
0.775258
0.775128
0.215226
0.222765
0.245996
0.281709
0.324941
0.372187
0.421852
0.473856
0.52818
0.584622
0.640102
0.686425
0.721336
0.748383
0.768458
0.77996
0.783732
0.784217
0.784135
0.78406
0.146243
0.155946
0.184102
0.227305
0.279051
0.334861
0.39288
0.45284
0.514568
0.577772
0.639086
0.689782
0.72775
0.756825
0.77755
0.788254
0.791243
0.791549
0.791479
0.791431
0.0895702
0.100036
0.131945
0.180685
0.238847
0.301462
0.366451
0.433345
0.501735
0.571132
0.637801
0.692464
0.733135
0.763973
0.785131
0.795174
0.797643
0.797844
0.797784
0.79775
0.0420035
0.0528345
0.0873276
0.140366
0.203738
0.271972
0.342808
0.415661
0.489933
0.564914
0.636469
0.694742
0.737853
0.77021
0.791651
0.801135
0.803261
0.803402
0.803343
0.803314
0.00111137
0.0120991
0.0485096
0.104981
0.172688
0.245726
0.32164
0.399734
0.479264
0.559318
0.635334
0.696878
0.742136
0.775738
0.797314
0.806323
0.808228
0.808334
0.808274
0.808244
-0.0348251
-0.0237896
0.0141125
0.0734211
0.144814
0.22202
0.302433
0.385256
0.469607
0.554356
0.634512
0.699017
0.746116
0.780683
0.802242
0.810842
0.812607
0.812704
0.812654
0.812624
-0.0670737
-0.0560288
-0.0169481
0.0447999
0.119398
0.200274
0.284716
0.371865
0.460708
0.549914
0.633997
0.701248
0.749948
0.78522
0.80661
0.814829
0.816506
0.816628
0.816611
0.816588
-0.0966689
-0.0855972
-0.0454791
0.0184296
0.0958799
0.180024
0.268103
0.35924
0.45232
0.545824
0.633749
0.703647
0.753801
0.789582
0.810677
0.81852
0.820134
0.82031
0.820355
0.820356
-0.124198
-0.113088
-0.072047
-0.00619469
0.0738044
0.160891
0.252287
0.347123
0.444225
0.541932
0.633728
0.706295
0.757851
0.794032
0.814758
0.822224
0.823777
0.824025
0.824151
0.824189
-0.150155
-0.138996
-0.0970939
-0.0294725
0.0528277
0.142581
0.23702
0.335301
0.436246
0.5381
0.633879
0.709263
0.76227
0.798817
0.819143
0.826242
0.827723
0.828032
0.828237
0.828319
-0.174943
-0.163646
-0.120941
-0.0516869
0.0327001
0.124871
0.22211
0.32361
0.428221
0.534195
0.634134
0.712592
0.767182
0.804113
0.82404
0.830765
0.832145
0.832488
0.832753
0.832874
-0.19871
-0.187254
-0.143784
-0.0730402
0.0132402
0.107613
0.207419
0.311916
0.420017
0.530067
0.634377
0.716285
0.772675
0.810031
0.829529
0.835837
0.837083
0.837423
0.837719
0.837871
-0.221663
-0.209996
-0.165795
-0.0936557
-0.00566499
0.0906974
0.192847
0.300121
0.411528
0.525582
0.634461
0.720277
0.778836
0.816634
0.835583
0.841391
0.842454
0.84276
0.843053
0.843216
-0.243817
-0.231957
-0.187055
-0.113609
-0.0240831
0.0740661
0.178346
0.288167
0.402673
0.520606
0.63421
0.724451
0.785707
0.824082
0.842222
0.847271
0.848067
0.848338
0.848608
0.84876
-0.265289
-0.253197
-0.207577
-0.132939
-0.0420551
0.0576877
0.163884
0.276027
0.393401
0.51504
0.63344
0.728633
0.793304
0.832595
0.849637
0.853376
0.853653
0.853921
0.854239
0.85438
-0.285961
-0.273714
-0.227391
-0.15168
-0.0595886
0.0415775
0.149462
0.263692
0.383689
0.508818
0.631979
0.732595
0.80155
0.842445
0.858273
0.859949
0.859062
0.859253
0.859945
0.860294
-0.305992
-0.293514
-0.246511
-0.169853
-0.0766952
0.0257274
0.135119
0.251179
0.373539
0.501907
0.629673
0.736066
0.810239
0.853826
0.868964
0.868089
0.864952
0.864533
0.866126
0.867396
-0.325272
-0.312562
-0.264956
-0.187441
-0.0933288
0.0101842
0.120893
0.238556
0.362988
0.494274
0.626404
0.738752
0.81904
0.866666
0.882396
0.87951
0.873493
0.871379
0.873769
0.877035
-0.343883
-0.330947
-0.282697
-0.204412
-0.109482
-0.0050152
0.10684
0.22586
0.352086
0.485967
0.622095
0.740333
0.827497
0.880487
0.898492
0.895265
0.887062
0.881609
0.878807
0.873719
-0.361751
-0.348652
-0.299828
-0.220944
-0.125378
-0.0201456
0.0926399
0.212718
0.340437
0.476568
0.616364
0.740446
0.835505
0.895469
0.917422
0.915863
0.906774
0.895498
0.882875
0.882985
-0.378872
-0.365772
-0.316374
-0.236991
-0.141022
-0.0351859
0.0783036
0.199086
0.327969
0.465886
0.608894
0.738353
0.841939
0.910603
0.937221
0.938147
0.927517
0.91374
0.876945
0.839672
-0.395065
-0.38218
-0.332321
-0.252436
-0.156428
-0.0501573
0.0638079
0.185068
0.314704
0.453881
0.599446
0.733394
0.845036