/*--------------------------------*- C++ -*----------------------------------*\
  =========                 |
  \\      /  F ield         | OpenFOAM: The Open Source CFD Toolbox
   \\    /   O peration     | Website:  https://openfoam.org
    \\  /    A nd           | Version:  6
     \\/     M anipulation  |
\*---------------------------------------------------------------------------*/
FoamFile
{
    version     2.0;
    format      ascii;
    class       surfaceScalarField;
    location    "40";
    object      phi;
}
// * * * * * * * * * * * * * * * * * * * * * * * * * * * * * * * * * * * * * //

dimensions      [0 3 -1 0 0 0 0];

internalField   nonuniform List<scalar> 
1300
(
3.75095
5.62643
-3.11692
3.75095
-7.54571
5.62643
-4.2974
4.2974
-0.8591
0.8591
1.87645
1.8745
-2.66575
2.66575
-2.05945
2.05945
-2.55143
2.55143
-5.24799
5.24799
-5.06906
5.06906
4.71731
-4.71731
-6.1868
6.1868
-1.1844
1.1844
-3.69551
3.69551
3.17304
-3.17304
-2.21808
2.21808
-0.235451
0.235451
-0.554099
4.30505
3.19685
3.19685
-2.00083
2.00083
-4.87254
4.87254
6.22215
-6.22215
5.01557
-5.01557
-1.89865
-2.23755
1.77067
-11.5148
-5.77504
-5.77504
-8.44104
8.44104
-2.81461
2.81182
2.94519
-2.94519
-1.73139
1.73139
-4.28359
-0.0138164
-4.28359
4.27953
0.0178749
4.27953
-0.943965
0.0848648
-0.943965
3.82687
-3.82687
0.733313
0.125787
0.733313
3.06684
-3.06684
-1.87687
3.75332
1.87408
-1.87203
6.17708
-1.87892
3.75342
-6.04217
6.04217
-2.86988
0.204136
-2.86988
2.47389
0.191858
2.47389
-6.83519
6.83519
-2.15458
0.0951293
-2.15458
2.03244
0.0270112
2.03244
2.87844
-2.87844
-2.64677
0.0953398
-2.64677
2.42236
0.129069
2.42236
0.353509
5.27292
-5.97994
8.79176
-5.27292
0.0249321
5.2104
0.0375916
5.2104
-5.10524
0.0361779
-5.10524
5.01333
0.0557306
5.01333
4.81234
-0.0950281
4.81234
-4.83129
0.113981
-4.83129
-3.55176
-4.12755
-6.376
0.189194
-6.376
-1.18481
0.00040983
-1.18481
1.14073
0.0436702
1.14073
-3.66297
3.66297
-4.01806
0.322551
-4.01806
3.12797
0.0450732
3.12797
1.86811
1.88284
5.61907
-5.61907
2.44603
-2.12514
-0.0929437
-2.12514
-2.24426
-2.77131
2.24426
-0.0261816
-0.469965
0.234514
-0.469965
3.15697
0.0398861
3.15697
2.26502
0.157344
-2.26502
0.264188
3.26594
-3.26594
1.32913
0.671699
1.32913
-5.56065
5.56065
4.96075
0.0525784
-4.96075
0.0882167
6.15702
0.0651283
6.15702
-6.20765
-0.0144965
-6.20765
2.67619
-4.91374
-2.49769
5.9744
0.212406
-5.9744
0.199351
2.91553
0.0296642
2.91553
-2.92072
2.92072
-2.98293
0.037744
-2.98293
-2.15904
0.42765
-2.15904
1.41114
0.32025
1.41114
-4.15329
-0.130301
-4.15329
-4.15908
0.141022
4.15908
0.120447
1.06725
-1.06725
-1.02075
0.0767891
-1.02075
-3.9585
-0.194782
3.9585
-0.131638
-3.76765
-0.0592189
-3.76765
-3.02103
0.0381005
3.02103
0.0458041
3.11185
0.0451226
-3.11185
0.0450077
-1.87097
3.75381
-1.87998
3.75407
-5.65963
-0.382538
-5.65963
6.33932
-0.297152
6.33932
3.25467
0.440843
-3.25467
0.384784
2.33109
0.142798
2.33109
-6.81878
-0.0164068
-6.81878
6.82698
0.00820493
6.82698
2.23986
0.0912266
-2.23986
0.0852799
2.0262
0.0062402
2.0262
2.90176
-0.0233281
2.90176
-2.87508
-0.00335788
-2.87508
2.79737
-2.79737
2.72673
0.0706447
-2.72673
0.0799583
-11.124
11.1095
-0.0363009
-11.0877
5.1741
5.1741
4.26772
0.544616
4.26772
-5.02105
0.189764
-5.02105
2.95179
-5.44948
3.14736
-6.69912
4.72021
-16.235
4.29784
-8.4254
6.6573
-6.6573
6.53333
0.123966
-6.53333
0.157335
-1.22593
0.0411257
-1.22593
-3.06172
-0.601251
-3.06172
4.31808
-0.655106
4.31808
-3.02833
3.02833
-3.07693
0.0485976
3.07693
0.0510417
2.05834
-0.0321353
-2.05834
-0.0667978
0.593683
0.13963
-0.593683
0.123719
3.47267
-0.206736
3.47267
-3.07245
-0.193487
-3.07245
-1.27627
0.0503396
1.27627
0.0528575
-5.80764
0.246992
-5.80764
-11.1814
0.093724
-11.1438
-6.11393
-6.11393
2.32711
11.1189
-2.89249
0.0174151
2.89249
0.0230326
2.97601
0.0523146
-2.97601
0.0552939
-2.86121
0.0638313
2.86121
0.0595139
-2.53152
0.372478
-2.53152
-1.01258
1.01258
-1.17078
0.158201
1.17078
0.240359
1.35559
-0.288336
1.35559
1.08981
0.0509177
-1.08981
0.0690564
-3.73309
-0.034558
-3.73309
6.57561
-0.236287
6.57561
-2.94951
-0.122944
2.94951
-0.0477414
-0.0349963
11.1445
-5.1391
0.0338582
5.1391
-11.2096
11.2435
-3.24229
0.710767
3.24229
1.02544
5.28741
0.273236
-5.28741
0.266358
6.75095
0.0760361
-6.75095
0.093649
-2.56871
-0.493012
-2.56871
-5.05711
-0.602524
5.05711
-0.739031
-11.4817
-0.203037
11.6847
-11.426
6.01068
0.146341
-6.01068
11.3898
-0.964716
-0.102538
0.964716
0.0478644
1.692
-0.336412
1.692
3.66969
-0.197012
-3.66969
-0.0634047
-6.71763
-0.101145
6.71763
-0.142022
-2.12178
-0.446928
2.12178
-0.429781
-4.26719
4.30708
1.90989
-2.48366
-2.43008
-5.25497
1.85483
1.89897
4.30086
-10.1876
-6.04738
-9.98827
7.21393
-6.94757
-9.36563
9.2706
7.72208
-7.7813
-5.77822
5.82926
6.48394
-6.43813
1.87911
1.87422
7.98116
-7.77703
-15.7183
15.3357
7.56498
-7.46985
15.8881
-15.9045
-17.9334
18.0094
-5.70602
5.80136
-6.73073
6.72737
-6.96113
6.91339
-3.00879
-3.69033
13.191
-13.0019
8.37843
-8.47138
-8.62537
8.94792
3.3845
0.922581
3.42962
-1.88201
3.76112
-1.87141
3.7813
2.70422
-5.71301
2.74526
-5.17534
4.14702
4.23141
-4.12084
-1.13413
-5.92489
5.95455
-5.814
5.87351
9.01428
-9.0281
-1.88502
3.75923
-1.86905
3.76803
-3.42355
-2.35467
3.37848
0.922385
8.08451
5.10653
-8.29692
-1.69135
-7.92312
7.72611
-8.1791
7.98561
-0.438331
5.83652
-5.39819
4.43421
-1.65304
7.48956
5.56089
5.75066
5.86055
-5.58731
1.08703
-6.48522
-6.397
-2.51931
2.5961
2.49848
-2.37269
6.00302
1.71906
5.87138
-5.69325
-2.08805
-5.72781
3.82051
2.00875
3.86911
4.0809
2.40303
4.119
3.03004
-3.03612
0.0060797
-3.05885
6.08889
0.723109
-5.41352
-4.49114
5.00773
2.97343
5.19959
-5.57077
-2.20626
-5.18598
-9.59161
-6.12664
-10.1941
10.1247
5.21101
9.82755
-12.0099
11.8679
4.84824
2.71674
4.87525
-4.95234
-2.51752
-4.86706
11.6746
-2.6194
-9.05517
-10.3713
-7.56206
10.3631
5.52498
11.016
6.99342
11.1096
4.43998
7.23459
-9.96496
2.40291
-3.86493
-1.84109
-3.78497
3.66628
2.13508
3.79535
-4.21501
-2.51572
-4.19759
-4.2908
-2.67034
4.31413
2.41324
-4.40413
-3.77497
4.52708
2.38632
4.10385
-10.1512
4.32155
-8.01187
-9.24929
-3.75256
-9.09195
3.54283
2.55237
-6.0952
-2.17018
8.47964
-4.24823
7.34552
-5.1155
-3.35588
-5.1823
-6.91026
-1.71512
-6.76923
-8.94443
8.45142
-9.23703
8.58193
12.6472
-5.68136
-6.96588
-3.96678
-2.47135
3.92177
-0.49215
-3.71049
3.71657
0.050623
3.83193
4.75451
4.26236
-3.88388
-1.93012
-3.82859
3.82642
2.04709
3.89025
6.77127
2.24301
6.78914
-6.4625
-2.56559
-6.5928
9.13855
-8.7109
2.87528
-2.82494
5.32257
2.66304
-5.11583
-2.80729
6.22435
-3.16461
-3.05973
-12.3595
10.8575
1.50209
-4.86998
-0.435776
-0.200326
-5.588
-3.77764
5.47401
0.276642
11.1341
7.35647
-5.51598
5.76297
6.16877
6.22135
-0.175657
5.92016
-5.2094
5.34943
-2.54574
-2.80369
5.33201
-5.52679
-1.2608
-5.41853
4.15773
0.344589
1.73528
-1.50077
-1.95882
-0.560493
-1.88976
1.47133
1.02715
1.61096
0.913553
1.68255
-2.97045
0.605281
2.36516
-2.05689
-1.76741
-3.65241
-1.10339
4.7558
5.60313
2.12298
-5.53973
-0.188077
2.66659
-2.62292
-0.745576
-2.90683
2.15408
-2.89966
-3.56015
-1.85646
5.4166
-3.36959
-0.458996
3.31728
0.551836
-3.82696
-2.09793
3.78922
0.329786
-3.12704
6.19029
-3.06325
-5.05715
2.52899
3.5599
4.53774
-4.79092
2.44845
2.34247
-1.23102
4.28061
0.918983
4.42341
-6.99274
4.78648
5.71323
3.23469
-6.15407
0.968088
-6.02465
8.38985
-7.25016
-1.13968
3.88106
4.50878
7.0917
5.55554
-5.70275
12.7944
-1.04798
-6.20218
7.07263
-3.83794
4.78198
-8.61992
-10.3375
4.13534
-9.23703
11.0452
-1.80817
-3.62495
-8.38499
12.862
-1.20627
-11.6557
8.62128
-4.21525
-4.27581
8.49106
-6.83465
6.79333
-1.96091
-4.83242
-10.1737
-5.73083
10.2748
1.59311
-9.87375
12.2767
-2.63916
4.16168
0.713571
4.16792
3.27342
-5.42112
2.1477
3.56122
-5.52213
2.05614
-7.47726
-6.81484
12.1955
-5.38071
-10.5674
-9.60132
-0.966083
2.54194
9.73472
-9.53536
7.45968
2.07569
3.30382
0.58643
-3.37446
-0.410508
0.249199
4.5187
-4.7679
4.04455
4.20189
3.26774
1.25096
3.84591
2.10864
-3.86895
-0.328645
-4.15941
1.48907
-1.74616
-3.68341
5.17248
-4.06292
0.379508
-2.7405
-3.49945
6.23995
-4.58158
3.03846
3.15183
5.08555
-4.91269
1.41324
-2.39482
-2.51787
2.64968
-4.39584
1.98284
3.18964
4.36916
0.594192
5.98316
6.21239
-8.53553
0.523656
11.3189
-9.62758
2.49403
8.6156
-9.95371
0.352387
-8.73957
0.960594
-5.20883
-5.13461
5.13539
-6.85051
-3.48452
6.21736
0.571782
-6.33781
-0.431427
-6.06691
-2.87752
-6.51383
-3.07146
-6.16558
-8.77421
-1.68459
-7.08962
6.76683
-6.6899
-3.50423
7.42893
1.15299
-7.47764
7.3751
-7.5406
7.20419
0.0943427
3.62223
4.3567
1.88535
-2.39121
4.27656
-5.06153
7.30455
-8.63056
3.56903
4.096
-6.66159
-4.53456
5.07093
4.06762
5.39118
8.98134
-10.4897
1.50836
-10.7566
12.0851
-1.3285
-16.5593
5.80269
-7.578
2.57075
0.304533
2.61187
0.617524
2.46882
-3.08635
-2.20742
-2.15456
-2.37853
-3.49078
5.86931
1.13813
-3.40937
2.27124
-3.55848
4.69662
0.0159479
-3.42532
5.21599
-2.74717
5.52052
-3.54254
1.97799
3.47718
5.80385
-2.32667
4.42086
-1.75781
1.87722
-4.20388
-1.61356
-2.96175
5.09683
-3.2782
3.6577
-0.328932
3.98664
-4.07635
0.91174
-0.808609
3.39328
3.65747
4.31033
-3.05937
2.95329
-4.7111
-1.25059
-4.11691
-0.927267
-0.227954
-3.8331
4.06105
6.06736
-6.29531
-5.3135
9.57275
-4.25925
7.73176
-5.46459
-2.26717
-4.31248
-4.39842
3.94
1.98016
9.71192
0.177026
-5.64161
-5.03237
-4.00694
3.20917
2.14027
-1.90644
3.40853
2.10677
-0.371486
0.502413
1.10855
1.86311
-1.3607
0.268502
1.59461
-1.23227
1.91038
0.756214
-1.9613
0.071538
-1.28071
3.4348
1.08445
-2.1116
0.750902
0.981989
-3.52773
4.86089
-2.59696
-2.26392
5.84288
1.15901
-3.75598
4.25952
-3.91493
2.40018
-3.50357
-1.3558
-5.27073
-3.55167
-2.55883
4.83007
-3.31047
5.43345
1.26993
-5.24537
6.5153
-3.5938
1.73734
-3.07017
3.82638
-1.10282
-1.96735
2.9481
2.4685
-3.06632
0.15949
-0.118216
2.37636
-2.49457
-0.5233
-2.58019
-4.57473
4.90452
-2.10486
4.55331
2.1717
-1.9159
6.46921
1.80941
-3.72531
-3.24774
-3.70674
-1.38284
3.1549
-0.577804
-4.28925
-5.41023
4.19803
0.225381
-6.81646
7.73186
-0.915394
-3.84303
-0.943445
4.82451
-5.9894
0.467272
-3.93327
3.79859
4.71757
4.94295
-11.4253
-0.230391
-6.21431
1.09792
-7.31222
5.6067
-3.58779
7.72313
-10.3596
6.85541
-9.20666
6.58345
-0.728775
6.2441
-4.09641
2.81107
-8.5419
-6.94879
5.45881
-2.74206
6.17238
-3.10984
9.28221
-5.749
5.21433
4.06788
-1.04043
-4.14187
-5.20825
4.16782
0.00608215
4.174
4.98233
-2.8737
4.65369
2.25788
-4.6527
-2.13797
-6.49068
1.83798
-3.33885
-1.91886
3.75684
3.16669
3.75312
1.23897
-3.34261
7.25725
-8.22334
-1.87655
-3.25806
5.17645
-1.00863
3.38826
-6.64632
-1.82057
4.81835
-0.761546
-4.05681
0.863001
-4.34752
1.66814
-6.01566
5.18237
-5.6138
2.24531
-9.82331
-5.23232
-5.18446
-2.27587
-5.26474
-7.62472
5.34885
-1.82203
5.55307
-8.59945
7.83791
-3.48569
8.83454
-5.45996
-1.05387
5.88974
1.31445
10.149
0.0983399
-4.6329
-1.91528
3.84004
-1.92476
1.29389
-3.73476
0.105289
2.46666
3.37621
-6.62439
-0.037196
-4.6701
-3.91679
7.98441
5.65596
11.7233
1.23362
9.18521
-1.20079
10.4188
4.19039
4.43075
-3.03475
4.54311
1.0263
4.59533
-0.842658
2.82064
1.76922
1.76963
0.853298
2.29831
1.35916
3.21005
0.123698
-2.03086
4.65531
-8.66225
-0.986303
-8.11763
1.15297
5.43181
-4.27884
3.02014
-0.879878
1.09538
0.0092964
-1.57857
1.56927
-2.7944
-1.95005
-0.355447
-1.61585
2.36675
1.81895
-2.01131
-0.78309
0.295218
-3.84688
3.20835
-3.04886
-0.580365
5.93493
-2.79618
0.301607
-1.05884
-2.27859
-2.83908
2.76754
6.17494
0.294275
3.11169
5.19879
3.10086
0.227168
3.9119
-5.72006
-3.56536
-5.95045
-0.343753
4.48076
1.73134
8.00338
5.79922
4.79059
-1.85573
-10.0791
6.5325
-1.98939
5.204
-1.14719
-4.86847
5.05225
2.2523
-5.62403
0.0102345
-4.85824
-6.84762
-0.494342
8.33225
-9.65465
8.60078
5.72325
1.36637
-4.44174
-0.742719
4.28354
0.147207
10.566
-0.90601
-7.17555
8.08156
-4.5258
3.5395
0.74088
2.66765
2.31015
1.43027
-5.74528
-10.0241
-1.91857
-1.60917
-4.18249
0.573311
-2.39226
6.10702
-2.56752
3.83985
5.51404
6.60942
-2.07495
-4.22036
6.3342
-2.49435
4.11507
)
;

boundaryField
{
    wall-4
    {
        type            calculated;
        value           uniform 0;
    }
    velocity-inlet-5
    {
        type            calculated;
        value           uniform -3.75095;
    }
    velocity-inlet-6
    {
        type            calculated;
        value           uniform -5.62643;
    }
    pressure-outlet-7
    {
        type            calculated;
        value           nonuniform List<scalar> 8(3.11692 7.54571 4.1362 9.74412 7.67932 5.17387 6.09915 9.01806);
    }
    wall-8
    {
        type            calculated;
        value           uniform 0;
    }
    frontAndBackPlanes
    {
        type            empty;
        value           nonuniform 0();
    }
}


// ************************************************************************* //
