/*--------------------------------*- C++ -*----------------------------------*\
  =========                 |
  \\      /  F ield         | OpenFOAM: The Open Source CFD Toolbox
   \\    /   O peration     | Website:  https://openfoam.org
    \\  /    A nd           | Version:  6
     \\/     M anipulation  |
\*---------------------------------------------------------------------------*/
FoamFile
{
    version     2.0;
    format      ascii;
    class       volScalarField;
    location    "79.8";
    object      p;
}
// * * * * * * * * * * * * * * * * * * * * * * * * * * * * * * * * * * * * * //

dimensions      [0 2 -2 0 0 0 0];

internalField   nonuniform List<scalar> 
8800
(
0.826624
0.777309
0.739344
0.711274
0.691113
0.676525
0.665926
0.658384
0.653498
0.651426
0.652795
0.657137
0.66393
0.673354
0.686091
0.703413
0.727291
0.760389
0.803326
0.855841
0.661117
0.667462
0.676612
0.68016
0.677551
0.671462
0.66452
0.658278
0.653474
0.650603
0.65037
0.652998
0.65764
0.663769
0.67087
0.677905
0.682785
0.682661
0.675988
0.66709
0.63463
0.640866
0.645366
0.649237
0.652185
0.653133
0.652044
0.649921
0.647939
0.647099
0.64813
0.650585
0.653473
0.655745
0.656268
0.654481
0.651117
0.647105
0.642326
0.63861
0.630326
0.633091
0.635698
0.637855
0.639593
0.641161
0.642263
0.642615
0.642501
0.642599
0.643405
0.64455
0.645294
0.645148
0.644176
0.642824
0.641157
0.638857
0.636448
0.634882
0.625264
0.62669
0.628529
0.63061
0.632323
0.633616
0.634714
0.635694
0.636504
0.637242
0.637956
0.63842
0.638449
0.63809
0.637427
0.636316
0.634664
0.632773
0.631422
0.630619
0.620267
0.62117
0.622417
0.624044
0.625738
0.627271
0.628557
0.62968
0.630747
0.631768
0.632559
0.632956
0.632973
0.632613
0.631817
0.630635
0.629279
0.628018
0.627199
0.626675
0.61535
0.616006
0.616967
0.618286
0.619734
0.621253
0.62274
0.624107
0.625373
0.626584
0.627545
0.62805
0.628079
0.627653
0.626882
0.625949
0.624965
0.624066
0.623489
0.623105
0.610509
0.611014
0.6118
0.612942
0.614245
0.615665
0.617178
0.618724
0.620242
0.621708
0.622876
0.623502
0.623597
0.62329
0.622741
0.622064
0.621338
0.620683
0.620259
0.619959
0.60569
0.606092
0.606752
0.607776
0.609009
0.610379
0.611889
0.613537
0.615278
0.617037
0.618472
0.619302
0.6196
0.619532
0.61923
0.61878
0.618264
0.617805
0.617494
0.61725
0.600811
0.601138
0.601712
0.602659
0.603849
0.605211
0.606763
0.60852
0.610468
0.61254
0.614324
0.615475
0.616073
0.616283
0.616229
0.616015
0.615702
0.615409
0.615182
0.614977
0.595781
0.596053
0.596568
0.597471
0.598649
0.600045
0.601681
0.603591
0.605787
0.608225
0.610444
0.612009
0.612971
0.613495
0.613714
0.613741
0.613634
0.613486
0.613328
0.61315
0.59051
0.590739
0.591216
0.592106
0.593313
0.594785
0.59655
0.598671
0.601185
0.604078
0.60683
0.608889
0.610275
0.611162
0.611687
0.611961
0.612068
0.612059
0.611957
0.611799
0.584902
0.585097
0.585557
0.586463
0.587739
0.589332
0.591283
0.593684
0.596606
0.600062
0.603459
0.606109
0.607992
0.609294
0.610167
0.610724
0.611052
0.611172
0.611117
0.610971
0.57885
0.579018
0.579477
0.580429
0.581814
0.583581
0.585786
0.588551
0.591983
0.596133
0.600312
0.603668
0.60614
0.607924
0.609196
0.61008
0.61064
0.610886
0.610873
0.610734
0.572229
0.572374
0.572848
0.573874
0.575415
0.577416
0.579953
0.583182
0.587249
0.592247
0.59737
0.601571
0.604743
0.607096
0.608824
0.610075
0.610897
0.611276
0.611301
0.611165
0.564893
0.565015
0.565518
0.566648
0.568396
0.570703
0.573664
0.577474
0.582328
0.58836
0.594622
0.599831
0.60383
0.606856
0.609126
0.610797
0.611917
0.612434
0.612492
0.612355
0.556651
0.556758
0.557299
0.558567
0.560582
0.563277
0.566772
0.571309
0.577133
0.584424
0.592054
0.598464
0.603438
0.607253
0.610175
0.612343
0.613794
0.614455
0.614545
0.614402
0.54724
0.547345
0.547949
0.54939
0.551751
0.554939
0.559106
0.564549
0.571569
0.580391
0.589659
0.59749
0.603616
0.608362
0.612049
0.614798
0.616624
0.617437
0.617554
0.617403
0.536357
0.536443
0.537132
0.53882
0.541623
0.545438
0.550454
0.557032
0.56553
0.576212
0.587436
0.596938
0.604415
0.610256
0.614823
0.618257
0.620501
0.621469
0.621607
0.621443
0.523605
0.523678
0.524473
0.526472
0.529837
0.534459
0.540561
0.548571
0.558903
0.571846
0.585392
0.596845
0.605881
0.612993
0.618587
0.622801
0.625497
0.626613
0.626764
0.626584
0.508398
0.508463
0.509407
0.511823
0.515928
0.521607
0.529117
0.538959
0.551583
0.567268
0.583551
0.597252
0.608066
0.61663
0.623392
0.628479
0.631643
0.632889
0.633039
0.63284
0.489934
0.489992
0.491153
0.494159
0.499277
0.506382
0.515764
0.527983
0.543489
0.562489
0.581954
0.598205
0.611016
0.621206
0.629262
0.635296
0.638912
0.640249
0.64038
0.640161
0.466998
0.467062
0.468576
0.47247
0.479045
0.488155
0.500104
0.515465
0.534601
0.557573
0.580681
0.599761
0.614767
0.626737
0.636186
0.643188
0.647188
0.64855
0.64864
0.648403
0.437758
0.437853
0.439971
0.445299
0.454145
0.466212
0.48179
0.501336
0.525012
0.552664
0.579852
0.601997
0.619338
0.633187
0.6441
0.652006
0.656243
0.657538
0.657565
0.657313
0.399034
0.399262
0.402628
0.410607
0.423289
0.439935
0.460703
0.48576
0.514987
0.548006
0.579638
0.605005
0.624753
0.640502
0.652874
0.661492
0.665737
0.666851
0.666799
0.666542
0.344796
0.345933
0.352646
0.366136
0.385529
0.409265
0.437222
0.469232
0.504968
0.543919
0.580224
0.608875
0.631015
0.648601
0.662272
0.671282
0.675222
0.676058
0.675927
0.675674
0.266312
0.274013
0.289447
0.31306
0.342483
0.375707
0.412406
0.452356
0.495255
0.540601
0.581873
0.614011
0.638728
0.658264
0.673001
0.682046
0.68549
0.686037
0.685856
0.68564
0.182822
0.199651
0.224713
0.259203
0.29919
0.342039
0.387485
0.435479
0.485817
0.538073
0.585013
0.621225
0.648975
0.670672
0.686365
0.694868
0.697489
0.69774
0.697582
0.697444
0.111234
0.131814
0.164913
0.208741
0.258105
0.310016
0.363975
0.419865
0.477447
0.536281
0.588436
0.628269
0.658569
0.681902
0.697894
0.705549
0.707525
0.707673
0.707553
0.707447
0.0525924
0.0754639
0.11408
0.1646
0.221289
0.280782
0.342251
0.40538
0.469733
0.534737
0.591711
0.634795
0.667202
0.691667
0.707713
0.714805
0.716497
0.716632
0.716551
0.716459
0.00399885
0.0282309
0.0708374
0.126574
0.189119
0.254848
0.322711
0.392228
0.462749
0.533483
0.594984
0.641061
0.675391
0.700839
0.71691
0.723606
0.725156
0.725314
0.725275
0.725193
-0.0371827
-0.0121536
0.0333933
0.0933702
0.16085
0.2319
0.305303
0.380481
0.456617
0.532714
0.598518
0.647483
0.683626
0.709997
0.726139
0.732567
0.734032
0.734241
0.734253
0.734185
-0.0730181
-0.0474706
0.000367933
0.063863
0.135571
0.211274
0.289618
0.36994
0.451271
0.532444
0.602406
0.654202
0.692156
0.719488
0.735778
0.742143
0.743616
0.743836
0.74389
0.743838
-0.105028
-0.079073
-0.0293539
0.0371432
0.11253
0.192342
0.275155
0.360225
0.446454
0.532497
0.606546
0.661175
0.700994
0.729367
0.746052
0.75255
0.754023
0.754239
0.754301
0.754264
-0.134265
-0.10794
-0.0566216
0.012492
0.0911263
0.174603
0.261475
0.350954
0.441853
0.532638
0.610748
0.668249
0.710007
0.739588
0.756806
0.763494
0.764984
0.765173
0.765218
0.765191
-0.161562
-0.134847
-0.0821005
-0.0106261
0.0708926
0.15766
0.248238
0.341825
0.43718
0.532637
0.614819
0.67525
0.718993
0.749809
0.76762
0.774542
0.77607
0.77621
0.77623
0.776218
-0.187341
-0.160259
-0.106201
-0.032623
0.051479
0.141218
0.235186
0.332602
0.432217
0.532284
0.61859
0.682008
0.72776
0.75981
0.778206
0.785312
0.786878
0.786971
0.786951
0.786937
-0.212088
-0.184558
-0.129287
-0.0537978
0.0326278
0.125052
0.222131
0.323113
0.426784
0.531386
0.621921
0.68841
0.73617
0.769378
0.788248
0.795501
0.797065
0.797098
0.797032
0.79701
-0.235959
-0.207974
-0.151563
-0.0743472
0.0141646
0.109021
0.208942
0.313232
0.42075
0.529826
0.62469
0.69439
0.744179
0.778411
0.797607
0.804873
0.80638
0.806358
0.806252
0.806219
-0.259113
-0.230643
-0.173175
-0.0943907
-0.00400448
0.0930389
0.195541
0.302877
0.41403
0.527484
0.626785
0.69991
0.751805
0.786935
0.806207
0.813336
0.814743
0.814665
0.814526
0.814483
-0.281666
-0.25269
-0.194199
-0.11399
-0.0219404
0.0770667
0.181899
0.292023
0.406565
0.524248
0.628106
0.704936
0.759131
0.79507
0.814158
0.820933
0.822159
0.822024
0.821863
0.821813
-0.303696
-0.274155
-0.214663
-0.133168
-0.0396431
0.0611007
0.168023
0.280663
0.398325
0.520048
0.628544
0.709428
0.766275
0.80306
0.82168
0.82778
0.828692
0.828489
0.828322
0.828267
-0.325087
-0.295009
-0.234566
-0.151933
-0.0571042
0.0451768
0.153938
0.268831
0.389328
0.514856
0.627986
0.713301
0.773318
0.811211
0.829135
0.834129
0.834454
0.834142
0.834
0.833952
-0.345835
-0.315235
-0.253913
-0.170265
-0.0742903
0.0293302
0.139708
0.256574
0.379615
0.508643
0.626336
0.716425
0.780255
0.819835
0.837131
0.840521
0.839689
0.83908
0.839049
0.839084
-0.365998
-0.334823
-0.272699
-0.188146
-0.0911568
0.0136261
0.125402
0.243972
0.369244
0.501426
0.62349
0.718636
0.786949
0.829079
0.846396
0.848087
0.845286
0.843676
0.843761
0.844251
-0.385446
-0.353752
-0.290878
-0.205525
-0.107659
-0.00186367
0.111102
0.231111
0.358304
0.493268
0.619371
0.719727
0.793139
0.838746
0.857342
0.858316
0.853383
0.849426
0.847955
0.847583
-0.404271
-0.37204
-0.308464
-0.222438
-0.123839
-0.0171819
0.0967546
0.217936
0.346725
0.484102
0.613817
0.719441
0.798592
0.848448
0.869732
0.872026
0.866425
0.858706
0.849701
0.8511
-0.4224
-0.389753
-0.325595
-0.239083
-0.139985
-0.0326504
0.0819569
0.203981
0.333991
0.473339
0.606233
0.717097
0.803003
0.857836
0.882489
0.887918
0.882043
0.869046
0.849192
0.849103
-0.439708
-0.406867
-0.342114
-0.255276
-0.155841
-0.0479753
0.0669017
0.189549
0.320364
0.461168
0.596567
0.711851
0.805314
0.865576
0.891607
0.897732
0.891983
0.8639
0.806852
0.782628
-0.456086
-0.424319
-0.357631
-0.270585
-0.170618
-0.0626729
0.0518703
0.174916
0.306123
0.447751
0.584837
0.703017
0.804211
0.870355
0.891878
0.892772
0.873564
0.818996
0.756689
0.718921
-0.49831
-0.441431
-0.371846
-0.285934
-0.185073
-0.0777222
0.0370082
0.159953
0.29105
0.432706
0.57057
0.689829
0.795716
0.867895
0.87981
0.859674
0.805505
0.736574
0.666435
0.62786
-0.473035
-0.454668
-0.393473
-0.306847
-0.207491
-0.100353
0.0137265
0.136104
0.266456
0.407037
0.544082
0.662283
0.760643
0.840469
0.8181
0.701872
0.606486
0.540257
0.474338
0.498931
-0.50331
-0.471801
-0.409746
-0.323613
-0.224628
-0.11763
-0.0033441
0.11842
0.247831
0.386802
0.521509
0.636455
0.723587
0.768652
0.71033
0.564368
0.450781
0.374212
0.290277
0.333079
-0.526674
-0.492809
-0.429057
-0.342885
-0.243951
-0.136962
-0.02278
0.0982157
0.226312
0.362973
0.493937
0.60291
0.678357
0.685092
0.571634
0.411252
0.27828
0.182796
0.0857132
0.114622
-0.54935
-0.514475
-0.449392
-0.362585
-0.263586
-0.156722
-0.0430592
0.0769777
0.203492
0.33736
0.463409
0.563623
0.622101
0.595085
0.430533
0.249322
0.0863956
-0.0497871
-0.175756
-0.165518
-0.571726
-0.536495
-0.470536
-0.383162
-0.284049
-0.177422
-0.0644374
0.0544642
0.179064
0.309646
0.429789
0.521194
0.558542
0.483959
0.291474
0.0909289
-0.0982825
-0.253924
-0.460027
-0.539603
-0.594488
-0.559339
-0.492877
-0.405114
-0.305872
-0.199452
-0.0870995
0.0306032
0.153114
0.280059
0.393687
0.475694
0.485935
0.360105
0.164418
-0.0475579
-0.241511
-0.404179
-0.528279
-0.645118
-0.618706
-0.583489
-0.516772
-0.428823
-0.329593
-0.223494
-0.111888
0.00440954
0.124437
0.2471
0.353655
0.422444
0.40444
0.242456
0.045422
-0.160425
-0.337695
-0.435837
-0.462014
-0.475393
-0.644509
-0.609239
-0.542351
-0.454382
-0.35536
-0.249772
-0.139183
-0.0246375
0.0924074
0.209962
0.309004
0.359289
0.321551
0.129206
-0.0656468
-0.251269
-0.38531
-0.423593
-0.432377
-0.432702
-0.672178
-0.636715
-0.569655
-0.481779
-0.383124
-0.2783
-0.169016
-0.0566042
0.0569444
0.16862
0.259126
0.292436
0.221835
0.0255411
-0.162814
-0.324188
-0.399652
-0.413782
-0.414804
-0.414658
-0.701722
-0.665949
-0.598706
-0.511015
-0.412907
-0.309074
-0.201404
-0.0915188
0.0180522
0.123185
0.203804
0.221876
0.11233
-0.0685864
-0.246354
-0.374368
-0.403787
-0.404486
-0.405083
-0.404657
-0.732887
-0.696779
-0.629408
-0.542015
-0.444629
-0.342051
-0.236332
-0.129368
-0.0242242
0.0737851
0.144339
0.143023
0.0153396
-0.15491
-0.311943
-0.385325
-0.400545
-0.399102
-0.399007
-0.398664
-0.765116
-0.728855
-0.661498
-0.574549
-0.478105
-0.377074
-0.273654
-0.170035
-0.0696707
0.0208463
0.08118
0.0634993
-0.0739309
-0.230737
-0.35559
-0.393875
-0.393711
-0.394536
-0.394555
-0.39434
-0.797964
-0.761645
-0.694485
-0.608198
-0.51298
-0.41382
-0.313086
-0.213246
-0.117994
-0.0346966
0.0130368
-0.0114939
-0.154839
-0.291315
-0.381396
-0.390035
-0.391533
-0.391716
-0.391581
-0.391459
-0.830466
-0.794265
-0.727635
-0.642319
-0.548696
-0.451804
-0.354154
-0.258509
-0.168768
-0.0920221
-0.0551818
-0.0864461
-0.223758
-0.337536
-0.38979
-0.39964
-0.393155
-0.39049
-0.389651
-0.389365
-0.860813
-0.825425
-0.759903
-0.676014
-0.584461
-0.490306
-0.396178
-0.30508
-0.221219
-0.150682
-0.118275
-0.164014
-0.279311
-0.376087
-0.399971
-0.398775
-0.394602
-0.391749
-0.39073
-0.390167
-0.887894
-0.8536
-0.789876
-0.708069
-0.619201
-0.52837
-0.438271
-0.352018
-0.274128
-0.210141
-0.17973
-0.231221
-0.320172
-0.393736
-0.418141
-0.405431
-0.400673
-0.398744
-0.397585
-0.396907
-0.908994
-0.876675
-0.815778
-0.73694
-0.65158
-0.564794
-0.479308
-0.398252
-0.326187
-0.268572
-0.240918
-0.283234
-0.346308
-0.38512
-0.392587
-0.399968
-0.403161
-0.403728
-0.403389
-0.403359
-0.922025
-0.892499
-0.835513
-0.760861
-0.680047
-0.598174
-0.517947
-0.442531
-0.376226
-0.323405
-0.297077
-0.327358
-0.366513
-0.385648
-0.390295
-0.398791
-0.402197
-0.40291
-0.403349
-0.403617
-0.924266
-0.898661
-0.846946
-0.777958
-0.702942
-0.62702
-0.552754
-0.483327
-0.423021
-0.374045
-0.344455
-0.36914
-0.395549
-0.411597
-0.411006
-0.408389
-0.406901
-0.406043
-0.405751
-0.405626
-0.913404
-0.892609
-0.847936
-0.786457
-0.718767
-0.649923
-0.582382
-0.519079
-0.464821
-0.421508
-0.379354
-0.409521
-0.413324
-0.447956
-0.428549
-0.413998
-0.408529
-0.40691
-0.406288
-0.405996
-0.886965
-0.87171
-0.836548
-0.785096
-0.726449
-0.665875
-0.60576
-0.548708
-0.499707
-0.463425
-0.417252
-0.41454
-0.401235
-0.405184
-0.403242
-0.401661
-0.401764
-0.403155
-0.403813
-0.403831
-0.848381
-0.838634
-0.813878
-0.774107
-0.725959
-0.674624
-0.622332
-0.571647
-0.527022
-0.496041
-0.464419
-0.428086
-0.377196
-0.363086
-0.390835
-0.402452
-0.405632
-0.40878
-0.410858
-0.411517
-0.804701
-0.799156
-0.784874
-0.75655
-0.719397
-0.676995
-0.632294
-0.587576
-0.546634
-0.516129
-0.488059
-0.455003
-0.423227
-0.397668
-0.394917
-0.408595
-0.429492
-0.440083
-0.442596
-0.443049
-0.765949
-0.76259
-0.755812
-0.737808
-0.709705
-0.674907
-0.636646
-0.596569
-0.557679
-0.526029
-0.497792
-0.490142
-0.498942
-0.533719
-0.537803
-0.542199
-0.533245
-0.51543
-0.503448
-0.505426
-0.738058
-0.736072
-0.732599
-0.721947
-0.70064
-0.671451
-0.637285
-0.599621
-0.560606
-0.524529
-0.497562
-0.491025
-0.534612
-0.617172
-0.701215
-0.740292
-0.731796
-0.69031
-0.632063
-0.612366
-0.717546
-0.716843
-0.715662
-0.710388
-0.69478
-0.6692
-0.636424
-0.598371
-0.556502
-0.514233
-0.484462
-0.455826
-0.437157
-0.449381
-0.482709
-0.489296
-0.466568
-0.450494
-0.422949
-0.40862
-0.70558
-0.705334
-0.704697
-0.70221
-0.691636
-0.668231
-0.634925
-0.595172
-0.549152
-0.498443
-0.454784
-0.399745
-0.318297
-0.227449
-0.15248
-0.0997426
-0.0878942
-0.0801761
-0.0700348
-0.0635606
-0.697475
-0.697324
-0.696916
-0.696164
-0.689689
-0.668528
-0.634243
-0.591468
-0.539867
-0.477764
-0.414674
-0.333669
-0.197233
-0.0318511
0.106425
0.195931
0.263418
0.307464
0.343193
0.358924
-0.692149
-0.69215
-0.692112
-0.692102
-0.688119
-0.670095
-0.634871
-0.58829
-0.530953
-0.457671
-0.375001
-0.278746
-0.103517
0.129459
0.367434
0.569682
0.709838
0.797517
0.84956
0.867586
-0.687599
-0.687609
-0.687485
-0.687263
-0.68576
-0.671841
-0.637577
-0.587511
-0.523992
-0.441854
-0.347975
-0.241864
-0.0449789
0.237249
0.546026
0.829958
1.0498
1.17953
1.22635
1.2375
-0.684728
-0.684554
-0.68387
-0.682425
-0.681261
-0.673409
-0.643605
-0.590611
-0.519844
-0.434961
-0.335254
-0.228143
-0.0421545
0.231988
0.539803
0.832849
1.06683
1.19565
1.24134
1.25223
-0.685688
-0.685762
-0.685759
-0.685355
-0.685097
-0.682388
-0.655523
-0.595589
-0.522654
-0.437724
-0.338168
-0.239213
-0.0830923
0.166625
0.434177
0.675404
0.867854
0.980878
1.02688
1.03944
-0.685526
-0.687105
-0.692257
-0.702678
-0.713208
-0.709547
-0.670792
-0.602236
-0.532251
-0.44983
-0.354197
-0.266184
-0.148557
0.0617313
0.286609
0.47542
0.625939
0.721096
0.761853
0.77239
-0.682734
-0.685203
-0.692089
-0.707283
-0.725307
-0.722039
-0.672423
-0.608933
-0.548748
-0.468262
-0.37877
-0.302108
-0.217289
-0.053239
0.132073
0.282744
0.398818
0.472917
0.502435
0.50927
-0.701059
-0.702876
-0.704204
-0.692078
-0.6676
-0.656784
-0.63465
-0.612764
-0.566959
-0.489681
-0.406059
-0.340138
-0.276556
-0.149581
-0.0036158
0.111881
0.199222
0.253745
0.275497
0.279219
-0.730716
-0.730771
-0.725461
-0.686448
-0.610925
-0.565851
-0.599632
-0.625213
-0.587122
-0.510161
-0.433251
-0.378598
-0.326982
-0.228257
-0.115071
-0.0289988
0.0354451
0.0750504
0.0887078
0.0907037
-0.766223
-0.763031
-0.761399
-0.745483
-0.709806
-0.674602
-0.687075
-0.686638
-0.625073
-0.531236
-0.462548
-0.409263
-0.369488
-0.291589
-0.204336
-0.138788
-0.0891521
-0.0614137
-0.0509053
-0.0499085
-0.864535
-0.87067
-0.908421
-0.96044
-0.983568
-0.960749
-0.905226
-0.808535
-0.677695
-0.558086
-0.485795
-0.431234
-0.393944
-0.334484
-0.26634
-0.217133
-0.181508
-0.162028
-0.155191
-0.155366
-1.01889
-1.03983
-1.09411
-1.14954
-1.17601
-1.1537
-1.0714
-0.907682
-0.714669
-0.586276
-0.49786
-0.441262
-0.413471
-0.363613
-0.312481
-0.275824
-0.249639
-0.23536
-0.230691
-0.231426
-1.09566
-1.11592
-1.15414
-1.19207
-1.21351
-1.19331
-1.1029
-0.895409
-0.708759
-0.584615
-0.487023
-0.438671
-0.414476
-0.374248
-0.335747
-0.312518
-0.297786
-0.291088
-0.28906
-0.289775
-1.01635
-1.03301
-1.06262
-1.09477
-1.11494
-1.09914
-0.999431
-0.804388
-0.657612
-0.536117
-0.457849
-0.419212
-0.398103
-0.369194
-0.344753
-0.333397
-0.328129
-0.327578
-0.327174
-0.327483
-0.785232
-0.802125
-0.834502
-0.874203
-0.903532
-0.890689
-0.800405
-0.673119
-0.555798
-0.462799
-0.416795
-0.378458
-0.362297
-0.344403
-0.331392
-0.329353
-0.331065
-0.333217
-0.33365
-0.333879
-0.45344
-0.467469
-0.496339
-0.536743
-0.571605
-0.579579
-0.540851
-0.486992
-0.427078
-0.388341
-0.357717
-0.331235
-0.319503
-0.30885
-0.30686
-0.309243
-0.312322
-0.313321
-0.313317
-0.313534
-0.142325
-0.150741
-0.170628
-0.203642
-0.245076
-0.276916
-0.298282
-0.307104
-0.309306
-0.306178
-0.294384
-0.288462
-0.284421
-0.278152
-0.276379
-0.275774
-0.274921
-0.273442
-0.272741
-0.273219
0.0552435
0.05045
0.0366183
0.00898363
-0.0340249
-0.0898071
-0.143452
-0.183546
-0.211441
-0.229134
-0.244304
-0.252194
-0.260399
-0.251657
-0.244035
-0.235855
-0.228673
-0.224758
-0.224226
-0.225178
0.13578
0.132704
0.122504
0.0995237
0.0608892
0.00982548
-0.0464647
-0.0998239
-0.14203
-0.173513
-0.197723
-0.220044
-0.235764
-0.226308
-0.210947
-0.198665
-0.188797
-0.184522
-0.184725
-0.185984
0.143855
0.141763
0.134307
0.11711
0.0866254
0.0444814
-0.00254138
-0.050227
-0.0909312
-0.124221
-0.15285
-0.17757
-0.19269
-0.185059
-0.175539
-0.168877
-0.164321
-0.163054
-0.163505
-0.164338
0.119807
0.118488
0.11351
0.10171
0.080689
0.0508012
0.0145185
-0.0228005
-0.0560734
-0.0853198
-0.109066
-0.124793
-0.132907
-0.133712
-0.136546
-0.141213
-0.14523
-0.148271
-0.148959
-0.149267
0.0850205
0.0843341
0.0813816
0.0741152
0.0608096
0.0414447
0.0176116
-0.00858542
-0.0330729
-0.0533763
-0.0666004
-0.0715594
-0.0742384
-0.0836837
-0.0958952
-0.109424
-0.120291
-0.126112
-0.126833
-0.126578
0.0476496
0.0474356
0.0460399
0.0422983
0.0353364
0.0248415
0.011743
-0.00210361
-0.0153439
-0.0256431
-0.0319532
-0.0280397
-0.0251508
-0.0384894
-0.0532621
-0.0667273
-0.0776133
-0.0829673
-0.0835528
-0.0830532
0.0096142
0.009734
0.00992185
0.00991193
0.0089168
0.00703185
0.00431335
0.00122451
-0.00158301
-0.00423851
-0.00522052
-0.00462332
-0.000707485
-0.00267521
-0.00858761
-0.0124037
-0.0168911
-0.019188
-0.0187134
-0.0180196
-0.0358581
0.151866
0.324193
0.469722
0.585707
0.676763
0.752195
0.813422
0.828752
0.82538
0.251841
0.372352
0.484965
0.582224
0.663769
0.730942
0.783832
0.81961
0.838826
0.855563
0.446909
0.526869
0.605418
0.674464
0.733339
0.782193
0.820706
0.850145
0.872346
0.89163
0.590561
0.646803
0.70345
0.75482
0.799216
0.836926
0.868585
0.895188
0.915329
0.934239
0.703744
0.747167
0.790588
0.830366
0.865937
0.897393
0.92491
0.948251
0.966121
0.984184
0.802629
0.837423
0.872093
0.905582
0.936358
0.964277
0.988957
1.00969
1.02539
1.04288
0.889759
0.921645
0.953569
0.984535
1.01337
1.03958
1.06258
1.08143
1.09529
1.1123
0.976336
1.0088
1.04107
1.07215
1.10082
1.12652
1.14857
1.16603
1.17837
1.19489
1.0705
1.10688
1.14158
1.17396
1.20306
1.22835
1.24941
1.26565
1.27724
1.29337
1.18348
1.22416
1.26111
1.29396
1.32237
1.34631
1.3659
1.38114
1.39302
1.40909
1.32493
1.36589
1.4011
1.43063
1.45578
1.47737
1.49585
1.51131
1.52442
1.54036
1.49635
1.52852
1.55544
1.57778
1.59785
1.61656
1.63429
1.65105
1.66596
1.68168
1.68254
1.69977
1.71688
1.73356
1.74965
1.76439
1.77828
1.79276
1.80799
1.82529
1.86593
1.87587
1.88905
1.90003
1.90944
1.9191
1.9297
1.93988
1.94917
1.97483
2.08378
2.07808
2.06513
2.05087
2.04457
2.05028
2.06842
2.09694
2.1307
2.16703
2.38659
2.25065
2.17114
2.1286
2.11128
2.11526
2.14269
2.20055
2.30822
2.48662
0.730317
0.724015
0.716286
0.705173
0.691605
0.678961
0.66857
0.660569
0.654867
0.651558
0.651238
0.654103
0.659361
0.666739
0.676302
0.688142
0.701711
0.714646
0.723639
0.731181
0.639377
0.645297
0.653372
0.659507
0.662579
0.662072
0.658994
0.65501
0.651438
0.649179
0.649079
0.651367
0.65515
0.659618
0.663736
0.665993
0.664928
0.660298
0.653247
0.645416
0.632614
0.634987
0.638256
0.641032
0.643487
0.645683
0.646871
0.646738
0.64582
0.645042
0.645296
0.646751
0.648566
0.649821
0.649765
0.648313
0.646166
0.643812
0.640835
0.63782
0.627806
0.628894
0.630814
0.633156
0.635033
0.63644
0.637669
0.638678
0.639301
0.639713
0.640314
0.641106
0.641612
0.641524
0.64092
0.640015
0.638697
0.636738
0.634637
0.633162
0.622757
0.623391
0.624522
0.626285
0.628136
0.62974
0.631005
0.632088
0.633097
0.634036
0.634879
0.635457
0.635642
0.635473
0.634965
0.634013
0.632603
0.631005
0.629676
0.628876
0.6178
0.618239
0.61903
0.620341
0.621872
0.623448
0.624943
0.626262
0.62745
0.628586
0.629606
0.630279
0.630516
0.630326
0.629698
0.628726
0.627594
0.626466
0.625572
0.62504
0.612925
0.613252
0.613868
0.614945
0.616253
0.617668
0.619167
0.620669
0.6221
0.623461
0.624689
0.625519
0.625817
0.625629
0.625077
0.624328
0.62351
0.622675
0.622024
0.621635
0.608105
0.608359
0.608856
0.609776
0.610963
0.61229
0.613737
0.615298
0.616925
0.618556
0.62005
0.621072
0.621502
0.621474
0.621148
0.620646
0.620047
0.619444
0.618976
0.618678
0.603267
0.603468
0.603883
0.604695
0.605807
0.607092
0.60853
0.610143
0.611921
0.613813
0.615621
0.61693
0.617617
0.617851
0.617779
0.617515
0.617132
0.616727
0.616401
0.616168
0.598324
0.598486
0.598843
0.599584
0.600653
0.601924
0.603399
0.605106
0.607056
0.609225
0.611406
0.613105
0.614146
0.614693
0.614896
0.614878
0.614718
0.614497
0.614288
0.614102
0.593186
0.593317
0.593632
0.594331
0.595387
0.59669
0.598242
0.600089
0.602267
0.604776
0.607414
0.609595
0.611059
0.611971
0.612486
0.612734
0.6128
0.612756
0.61265
0.612499
0.587759
0.587864
0.588152
0.588834
0.589914
0.591292
0.592967
0.59501
0.597487
0.600427
0.603626
0.606387
0.60835
0.609683
0.610552
0.611091
0.611403
0.611538
0.61152
0.611397
0.581944
0.582027
0.582299
0.582989
0.584128
0.585623
0.587476
0.589785
0.592647
0.596125
0.600009
0.603466
0.606022
0.607847
0.609122
0.610006
0.610584
0.610893
0.610954
0.610852
0.575624
0.575687
0.575954
0.576674
0.577909
0.57957
0.581666
0.584323
0.58767
0.591813
0.596531
0.600828
0.604091
0.606495
0.608238
0.609509
0.610387
0.610884
0.611024
0.610938
0.568663
0.568708
0.568977
0.569751
0.571121
0.573003
0.575417
0.578517
0.582473
0.587433
0.593165
0.598468
0.602571
0.605662
0.607959
0.609672
0.610892
0.611596
0.611812
0.611738
0.560909
0.560928
0.5612
0.562052
0.5636
0.565768
0.568589
0.572247
0.576959
0.582922
0.589879
0.596389
0.601487
0.605387
0.608342
0.610582
0.612195
0.613122
0.613413
0.613347
0.552104
0.552118
0.552413
0.553365
0.555145
0.557677
0.561011
0.565368
0.571017
0.578209
0.586648
0.594595
0.600873
0.605724
0.609453
0.612327
0.614389
0.615559
0.615926
0.615865
0.541983
0.541972
0.54231
0.543413
0.545496
0.548492
0.552474
0.557708
0.564522
0.573219
0.583443
0.593097
0.600765
0.606738
0.611379
0.614985
0.617567
0.619004
0.619444
0.619382
0.530213
0.53018
0.530568
0.53186
0.534318
0.537912
0.542721
0.549064
0.557332
0.567876
0.580248
0.591916
0.601204
0.608486
0.614194
0.61865
0.621821
0.623536
0.624043
0.623975
0.516287
0.516232
0.516701
0.518246
0.521189
0.525556
0.531433
0.539194
0.549292
0.562109
0.577054
0.59108
0.602234
0.611018
0.617967
0.623383
0.627209
0.629205
0.629764
0.629684
0.499521
0.499444
0.50004
0.501938
0.505533
0.51093
0.518218
0.527825
0.540252
0.555871
0.573878
0.590629
0.603906
0.614387
0.622725
0.629232
0.633749
0.636005
0.636593
0.636493
0.478925
0.478832
0.479635
0.482049
0.486562
0.49339
0.502602
0.514666
0.530085
0.549157
0.570773
0.59062
0.606263
0.618629
0.628488
0.636182
0.641393
0.643853
0.644433
0.644306
0.453014
0.45292
0.454066
0.457281
0.463186
0.472104
0.484052
0.499466
0.518754
0.542047
0.567845
0.591136
0.609352
0.623751
0.635249
0.644168
0.649998
0.652558
0.653082
0.652922
0.419359
0.419316
0.421083
0.42568
0.433919
0.446122
0.4621
0.482128
0.506379
0.534736
0.565268
0.592293
0.613225
0.629746
0.64293
0.653042
0.659307
0.661812
0.662227
0.662032
0.373647
0.37382
0.37695
0.384442
0.397048
0.414659
0.43663
0.462895
0.493318
0.527554
0.563278
0.59423
0.617939
0.636579
0.651431
0.662567
0.668944
0.671188
0.671449
0.671227
0.307818
0.309221
0.316838
0.331009
0.351646
0.377865
0.408292
0.442481
0.480167
0.520928
0.562131
0.597059
0.623511
0.644178
0.66047
0.672266
0.678364
0.680132
0.680226
0.680004
0.22927
0.232022
0.246836
0.271279
0.302916
0.339316
0.378885
0.421419
0.466769
0.51459
0.561982
0.601628
0.631493
0.654678
0.672561
0.684644
0.690209
0.691588
0.691621
0.691487
0.148893
0.156099
0.178346
0.213054
0.255339
0.301684
0.350392
0.401319
0.454374
0.509256
0.562817
0.607119
0.640218
0.665838
0.68519
0.69712
0.701691
0.702519
0.702489
0.702409
0.0832593
0.0924371
0.119429
0.161396
0.21204
0.26681
0.323749
0.382533
0.442927
0.504521
0.563842
0.61236
0.648286
0.675736
0.695819
0.707327
0.711292
0.711966
0.71196
0.71191
0.0294998
0.0394106
0.0700125
0.117367
0.174299
0.235797
0.299649
0.365332
0.432396
0.500218
0.56492
0.617318
0.655739
0.684711
0.705335
0.71652
0.720121
0.720732
0.72077
0.720753
-0.0154584
-0.00522778
0.0278368
0.0793913
0.141471
0.208555
0.278246
0.349915
0.422939
0.496498
0.566242
0.622325
0.663096
0.693493
0.714543
0.725497
0.728884
0.729469
0.729564
0.729585
-0.0540947
-0.0437319
-0.00883467
0.0460798
0.112469
0.184352
0.259142
0.336124
0.414556
0.493438
0.567988
0.627623
0.670672
0.702456
0.724018
0.734812
0.738034
0.738704
0.738854
0.738917
-0.0881145
-0.0777151
-0.0413873
0.016307
0.0863738
0.16243
0.24176
0.32357
0.407011
0.49091
0.570093
0.633215
0.678566
0.711754
0.733891
0.744764
0.748035
0.748709
0.74889
0.748992
-0.118795
-0.108381
-0.0709043
-0.0108219
0.0624424
0.142177
0.225576
0.311814
0.399948
0.488663
0.572366
0.638984
0.68666
0.721372
0.74429
0.755453
0.75881
0.759471
0.75963
0.759741
-0.147138
-0.13669
-0.0981986
-0.035998
0.0401053
0.123107
0.210175
0.300487
0.393044
0.486419
0.574598
0.644731
0.694803
0.731119
0.754908
0.766461
0.769933
0.770557
0.770673
0.770768
-0.173723
-0.163227
-0.123813
-0.0597071
0.0189142
0.104843
0.195243
0.289312
0.386035
0.483937
0.576592
0.650291
0.702801
0.740724
0.765422
0.777371
0.780962
0.781546
0.781607
0.781676
-0.199031
-0.18845
-0.148171
-0.0823336
-0.00145613
0.0871078
0.180539
0.278077
0.378731
0.48101
0.57816
0.655517
0.710509
0.75003
0.775596
0.787831
0.79154
0.792081
0.792069
0.792106
-0.223416
-0.212664
-0.171567
-0.104138
-0.0212302
0.0697007
0.165894
0.266634
0.370974
0.477487
0.579159
0.660303
0.717837
0.758885
0.785183
0.797642
0.801345
0.801829
0.801758
0.80176
-0.247001
-0.23605
-0.194171
-0.125292
-0.0405577
0.0525092
0.151203
0.254877
0.36266
0.473254
0.579464
0.664566
0.724768
0.767295
0.794131
0.806622
0.810235
0.810647
0.810526
0.810499
-0.269961
-0.258757
-0.216125
-0.145889
-0.0595185
0.0354588
0.136407
0.242756
0.353736
0.468218
0.578956
0.668229
0.731309
0.775326
0.802475
0.814764
0.818185
0.818501
0.818339
0.818289
-0.292283
-0.280856
-0.237481
-0.165975
-0.0781473
0.0185289
0.121498
0.230262
0.344172
0.462306
0.577531
0.67121
0.737502
0.783136
0.81042
0.82221
0.825247
0.825429
0.825232
0.825169
-0.314051
-0.302364
-0.258228
-0.185562
-0.0964509
0.00172524
0.106489
0.217416
0.333973
0.4555
0.575102
0.673408
0.743356
0.790937
0.818257
0.829171
0.831548
0.831508
0.83129
0.831225
-0.335121
-0.323248
-0.278368
-0.204658
-0.114405
-0.0149043
0.0914183
0.204255
0.32318
0.447811
0.571593
0.674705
0.748822
0.798905
0.826428
0.836108
0.837315
0.836819
0.836599
0.836583
-0.355644
-0.343488
-0.297894
-0.223258
-0.131999
-0.0313399
0.0763567
0.19084
0.311851
0.439277
0.566957
0.674964
0.753767
0.807101
0.835422
0.84384
0.843239
0.841654
0.841313
0.841531
-0.375451
-0.363052
-0.316804
-0.241325
-0.149166
-0.0475112
0.0613738
0.177272
0.300067
0.429935
0.561181
0.674035
0.757987
0.815378
0.84551
0.853428
0.850855
0.84719
0.845988
0.846519
-0.394659
-0.381976
-0.335052
-0.258812
-0.165882
-0.0633611
0.0465463
0.163621
0.287919
0.419896
0.554286
0.671749
0.761224
0.823362
0.8564
0.865424
0.862158
0.856117
0.850858
0.843411
-0.41316
-0.400262
-0.352727
-0.275887
-0.182366
-0.0791634
0.0315506
0.1495
0.274991
0.408704
0.545828
0.667639
0.763227
0.831004
0.867831
0.879779
0.877967
0.869852
0.857952
0.857389
-0.430916
-0.41799
-0.369836
-0.292498
-0.198612
-0.0948857
0.0164103
0.134882
0.261236
0.396212
0.535583
0.661133
0.763131
0.837492
0.877984
0.892877
0.892358
0.884747
0.849798
0.811812
-0.447724
-0.435018
-0.386332
-0.308529
-0.21462
-0.110538
0.00111793