/*--------------------------------*- C++ -*----------------------------------*\
  =========                 |
  \\      /  F ield         | OpenFOAM: The Open Source CFD Toolbox
   \\    /   O peration     | Website:  https://openfoam.org
    \\  /    A nd           | Version:  6
     \\/     M anipulation  |
\*---------------------------------------------------------------------------*/
FoamFile
{
    version     2.0;
    format      ascii;
    class       surfaceScalarField;
    location    "42";
    object      phi;
}
// * * * * * * * * * * * * * * * * * * * * * * * * * * * * * * * * * * * * * //

dimensions      [0 3 -1 0 0 0 0];

internalField   nonuniform List<scalar> 
4262
(
0.106798
0.47119
0.0925323
0.707852
0.064792
0.860043
0.0423824
1.02117
0.0263763
1.21452
0.0163128
1.44828
0.0100406
1.73214
0.00583879
2.07524
0.00264742
2.48843
-0.000114676
2.98505
-0.00297638
2.98515
-0.00626221
2.48853
-0.0105331
2.07531
-0.016776
1.73211
-0.0267538
1.4482
-0.0426491
1.21441
-0.0649317
1.02105
-0.0925687
0.85994
-0.106855
0.707873
0.471133
0.114804
0.356386
0.140001
0.682655
0.125375
0.874669
0.101857
1.04469
0.073761
1.24262
0.0481492
1.47389
0.0282719
1.75201
0.0144045
2.08911
0.00534561
2.49749
-0.00127828
2.99168
-0.00766313
2.99154
-0.0166991
2.49757
-0.0302228
2.08883
-0.0497228
1.75161
-0.0751051
1.47358
-0.103026
1.24233
-0.126464
1.04448
-0.140611
0.874087
-0.115129
0.682391
0.356004
0.0916875
0.264698
0.126268
0.648075
0.124757
0.87618
0.110782
1.05867
0.0961503
1.25725
0.0760566
1.49399
0.0538473
1.77422
0.0325965
2.11036
0.0140199
2.51607
-0.00177733
3.00748
-0.0176207
3.00738
-0.0356552
2.5156
-0.0565184
2.10969
-0.0785385
1.77363
-0.0983129
1.49335
-0.112463
1.25648
-0.125848
1.05787
-0.127391
0.87563
-0.0922139
0.647213
0.26379
0.0628213
0.201877
0.104
0.606897
0.10675
0.873429
0.0971571
1.06826
0.0859795
1.26843
0.0750347
1.50493
0.0599685
1.78929
0.0409883
2.12934
0.0198912
2.53717
-0.002894
3.03026
-0.0253845
3.02987
-0.0460459
2.53626
-0.0645227
2.12817
-0.0788325
1.78794
-0.089037
1.50356
-0.0997793
1.26722
-0.109071
1.06716
-0.10568
0.872239
-0.0635531
0.605086
0.200237
0.0371068
0.16477
0.0795362
0.564467
0.0899501
0.863015
0.0832421
1.07497
0.0719981
1.27967
0.0626848
1.51425
0.0520803
1.79989
0.0380996
2.14332
0.0196187
2.55565
-0.00374413
3.05362
-0.0267641
3.05289
-0.0445541
2.55405
-0.0576367
2.14125
-0.0675722
1.79787
-0.0762867
1.51227
-0.0869233
1.27786
-0.092817
1.07306
-0.0813316
0.860754
-0.0377286
0.561483
0.162508
0.0195566
0.145214
0.0566407
0.527383
0.0716477
0.848008
0.0690636
1.07755
0.0599092
1.28883
0.0497464
1.52441
0.0399677
1.80967
0.0287544
2.15453
0.0143382
2.57006
-0.00479739
3.07276
-0.0236154
3.07171
-0.0372046
2.56764
-0.0476221
2.15167
-0.0563741
1.80662
-0.0654942
1.52139
-0.0736352
1.286
-0.0752142
1.07464
-0.0588487
0.844388
-0.0202604
0.522895
0.142247
0.0108074
0.134406
0.0422777
0.495913
0.0579641
0.832322
0.0576775
1.07784
0.0507896
1.29571
0.0408651
1.53433
0.0312917
1.81925
0.0211858
2.16464
0.00915927
2.58209
-0.00624682
3.08817
-0.0212512
3.08672
-0.0324166
2.57881
-0.0413996
2.16065
-0.0494012
1.81463
-0.0581687
1.53016
-0.0638406
1.29167
-0.0627487
1.07354
-0.0451954
0.826835
-0.0117098
0.489409
0.130538
0.00680468
0.127602
0.0332824
0.469435
0.0492456
0.816359
0.0503701
1.07671
0.0449211
1.30116
0.0359891
1.54327
0.0259854
1.82925
0.0154828
2.17514
0.00423035
2.59334
-0.00808948
3.10048
-0.0197859
3.09841
-0.0297802
2.5888
-0.0385954
2.16947
-0.0468472
1.82288
-0.0543084
1.53762
-0.0581392
1.2955
-0.0551781
1.07058
-0.0368237
0.80848
-0.00790391
0.460489
0.122634
0.00482395
0.122778
0.0268239
0.447435
0.0427146
0.800468
0.0447394
1.07469
0.0399459
1.30596
0.0322635
1.55095
0.0227852
1.83873
0.0119968
2.18593
0.00104281
2.6043
-0.00982981
3.11136
-0.0201734
3.10876
-0.0296365
2.59826
-0.0382952
2.17813
-0.0457484
1.83033
-0.0515076
1.54338
-0.0543778
1.29837
-0.0500166
1.06622
-0.0311314
0.789595
-0.00615773
0.435516
0.116476
0.00383826
0.118939
0.0219008
0.429373
0.0371042
0.785264
0.0400252
1.07177
0.0358894
1.31009
0.0286566
1.55818
0.0199395
1.84744
0.00983888
2.19603
-0.0012084
2.61534
-0.0124319
3.12258
-0.0227635
3.11909
-0.0318934
2.60739
-0.0396248
2.18586
-0.0459886
1.83669
-0.0507166
1.54811
-0.0521796
1.29984
-0.0462895
1.06033
-0.0272249
0.770531
-0.00548515
0.413776
0.110991
0.00314433
0.115795
0.0178295
0.414687
0.0319583
0.771136
0.0351361
1.06859
0.03136
1.31387
0.0248281
1.56471
0.0171536
1.85512
0.00789416
2.20529
-0.00331473
2.62655
-0.0152188
3.13449
-0.0261149
3.12998
-0.0349727
2.61625
-0.0414592
2.19235
-0.046478
1.84171
-0.0503334
1.55196
-0.050849
1.30035
-0.043743
1.05322
-0.0245591
0.751347
-0.00524835
0.394465
0.105743
0.00259516
0.1132
0.0145376
0.402745
0.0275708
0.758102
0.0309728
1.06519
0.0271887
1.31765
0.0202951
1.57161
0.0121838
1.86323
0.00328627
2.21419
-0.00715572
2.637
-0.0190527
3.14638
-0.0298216
3.14075
-0.0373214
2.62375
-0.0429057
2.19793
-0.0473272
1.84613
-0.0504611
1.5551
-0.0500724
1.29996
-0.0416134
1.04477
-0.0224741
0.732207
-0.00509357
0.377085
0.100649
0.00177006
0.11143
0.0106411
0.393874
0.0217063
0.747037
0.0247486
1.06215
0.0210897
1.32131
0.0145435
1.57815
0.00662892
1.87114
-0.00215337
2.22297
-0.012213
2.64706
-0.0236282
3.1578
-0.0334763
3.1506
-0.0400256
2.6303
-0.0446068
2.20251
-0.0484827
1.85001
-0.0501943
1.55681
-0.0489804
1.29875
-0.0395113
1.0353
-0.0205676
0.713264
-0.00482234
0.361339
0.0958266
0.000740231
0.11069
0.00693836
0.387676
0.0161704
0.737805
0.0186994
1.05962
0.0148568
1.32515
0.00821187
1.5848
0.000221684
1.87913
-0.00862477
2.23181
-0.0181713
2.6566
-0.028798
3.16842
-0.0378832
3.15969
-0.0434925
2.63591
-0.0468736
2.20589
-0.0494541
1.85259
-0.0504123
1.55777
-0.0484604
1.2968
-0.0377606
1.0246
-0.0189782
0.694481
-0.00457505
0.346936
0.0912516
-0.000150616
0.11084
0.00307203
0.384453
0.00946722
0.73141
0.0109161
1.05817
0.0069384
1.32913
0.000334917
1.5914
-0.00767832
1.88715
-0.0165812
2.24072
-0.0260761
2.6661
-0.0360549
3.1784
-0.0436294
3.16726
-0.0477521
2.64003
-0.0502709
2.20841
-0.0516298
1.85395
-0.0513616
1.5575
-0.0476988
1.29314
-0.036277
1.01318
-0.017881
0.676085
-0.00444692
0.333502
0.0868047
-0.000954834
0.111795
-0.000348193
0.383847
0.00394591
0.727116
0.00422957
1.05788
-0.000762207
1.33412
-0.00824842
1.59889
-0.0168205
1.89572
-0.0261269
2.25002
-0.0351795
2.67515
-0.0438504
3.18707
-0.0499935
3.1734
-0.0527799
2.64282
-0.0542162
2.20985
-0.0547611
1.85449
-0.0539123
1.55665
-0.0492687
1.28849
-0.036437
1.00034
-0.0177307
0.657379
-0.00456678
0.320338
0.0822379
-0.0018786
0.113674
-0.00333258
0.3853
-0.00244479
0.726228
-0.00407696
1.05952
-0.00974166
1.33979
-0.0177212
1.60687
-0.0270222
1.90502
-0.0369525
2.25995
-0.0464726
2.68467
-0.0550913
3.19569
-0.0599257
3.17824
-0.0616007
2.64449
-0.0617046
2.20995
-0.0606532
1.85344
-0.0579414
1.55394
-0.0514582
1.28201
-0.0372886
0.986174
-0.0181731
0.638263
-0.00488939
0.307055
0.0773485
-0.00310632
0.11678
-0.00695633
0.389151
-0.00905912
0.728331
-0.0119414
1.0624
-0.0186029
1.34645
-0.027938
1.6162
-0.0381458
1.91523
-0.0488045
2.27061
-0.0591059
2.69497
-0.0674745
3.20406
-0.0711796
3.18194
-0.0714313
2.64475
-0.0698734
2.20839
-0.0674277
1.851
-0.0633418
1.54985
-0.0549331
1.2736
-0.0387263
0.969967
-0.0187944
0.618332
-0.00514979
0.29341
0.0721987
-0.00468874
0.121469
-0.0118933
0.396355
-0.0176746
0.734112
-0.0235944
1.06832
-0.0311243
1.35398
-0.0406283
1.62571
-0.051512
1.92611
-0.0633259
2.28243
-0.075268
2.70691
-0.0845596
3.21335
-0.0877773
3.18516
-0.0860353
2.643
-0.0816137
2.20397
-0.0763056
1.84569
-0.0696382
1.54319
-0.0588466
1.26281
-0.0407452
0.951866
-0.019869
0.597455
-0.00553727
0.279078
0.0666614
-0.00614619
0.127615
-0.0170258
0.407235
-0.0271397
0.744226
-0.0355612
1.07674
-0.0449697
1.36339
-0.0569286
1.63767
-0.0698303
1.93901
-0.0830062
2.2956
-0.0951951
2.7191
-0.102775
3.22093
-0.103053
3.18544
-0.099121
2.63907
-0.0929125
2.19776
-0.0862165
1.83899
-0.0774989
1.53447
-0.0640141
1.24932
-0.0435644
0.931416
-0.0213218
0.575213
-0.00595539
0.263712
0.060706
-0.0087761
0.136391
-0.0250804
0.423539
-0.0410632
0.760209
-0.0534755
1.08915
-0.0648057
1.37472
-0.0779278
1.65079
-0.0926485
1.95373
-0.107814
2.31077
-0.121117
2.73241
-0.128009
3.22782
-0.126143
3.18357
-0.118885
2.63181
-0.109189
2.18807
-0.0988357
1.82864
-0.0873111
1.52294
-0.0710766
1.23309
-0.0480161
0.908356
-0.023778
0.550975
-0.00665737
0.246591
0.0540487
-0.0111097
0.147501
-0.0318646
0.444294
-0.0533135
0.781658
-0.0701846
1.10602
-0.0851495
1.38968
-0.102403
1.66804
-0.120811
1.97214
-0.13854
2.3285
-0.15185
2.74572
-0.155761
3.23174
-0.149328
3.17714
-0.138073
2.62056
-0.12582
2.17581
-0.113501
1.81632
-0.0994342
1.50888
-0.0798665
1.21352
-0.0534393
0.881928
-0.0265515
0.524087
-0.00728942
0.227329
0.0467592
-0.015652
0.163153
-0.0433501
0.471992
-0.0710527
0.80936
-0.0933538
1.12832
-0.112888
1.40922
-0.134268
1.68942
-0.156267
1.99414
-0.176032
2.34826
-0.189102
2.75879
-0.190935
3.23357
-0.181225
3.16743
-0.166635
2.60597
-0.150697
2.15988
-0.13399
1.79961
-0.11574
1.49063
-0.092101
1.18988
-0.0614435
0.851271
-0.0305303
0.493174
-0.00815877
0.204958
0.0386005
-0.0193655
0.182518
-0.0551801
0.507807
-0.0915983
0.845779
-0.120951
1.15768
-0.146971
1.43524
-0.175476
1.71793
-0.201632
2.0203
-0.221991
2.36862
-0.232133
2.76893
-0.228713
3.23015
-0.213607
3.15232
-0.194419
2.58678
-0.174769
2.14023
-0.155824
1.78067
-0.134779
1.46958
-0.106345
1.16145
-0.0701938
0.81512
-0.0342475
0.457227
-0.00882056
0.179531
0.0297799
-0.0318668
0.214385
-0.0794642
0.555404
-0.126314
0.892628
-0.163631
1.19499
-0.197003
1.46861
-0.230957
1.75188
-0.25823
2.04757
-0.275949
2.38634
-0.281029
2.77401
-0.272244
3.22136
-0.252226
3.1323
-0.22947
2.56402
-0.206849
2.11761
-0.18353
1.75735
-0.156786
1.44284
-0.122498
1.12716
-0.0801051
0.772726
-0.0384063
0.415529
-0.00936013
0.150484
0.0204198
-0.0454531
0.259838
-0.117253
0.627203
-0.179721
0.955097
-0.225118
1.24039
-0.267705
1.5112
-0.303528
1.7877
-0.326325
2.07037
-0.337315
2.39733
-0.335956
2.77265
-0.321262
3.20667
-0.295787
3.10683
-0.266765
2.535
-0.237188
2.08803
-0.208371
1.72853
-0.177373
1.41184
-0.137237
1.08703
-0.0879369
0.723426
-0.0400551
0.367647
-0.00908279
0.119512
0.011337
-0.0322115
0.29205
-0.0959324
0.690924
-0.154935
1.0141
-0.204896
1.29035
-0.254003
1.5603
-0.291561
1.82526
-0.325274
2.10408
-0.353593
2.42565
-0.372226
2.79128
-0.375756
3.2102
-0.360023
3.0911
-0.334322
2.5093
-0.304115
2.05782
-0.268128
1.69255
-0.221358
1.36507
-0.161768
1.02744
-0.0941659
0.655824
-0.0374501
0.310931
-0.00818453
0.0902464
0.00315248
-0.0130153
0.305065
-0.0461439
0.724053
-0.0846036
1.05256
-0.122799
1.32855
-0.159687
1.59719
-0.193596
1.85917
-0.225074
2.13556
-0.251504
2.45208
-0.26838
2.80816
-0.268647
3.21047
-0.250508
3.07296
-0.222579
2.48137
-0.189564
2.02481
-0.153716
1.6567
-0.115845
1.3272
-0.0726926
0.984284
-0.0319064
0.615038
-0.00919018
0.288215
-0.00186147
0.0829177
0.001291
-0.00239935
0.307464
-0.0220412
0.743695
-0.0486881
1.07921
-0.0759538
1.35581
-0.102404
1.62364
-0.130283
1.88705
-0.158238
2.16351
-0.181803
2.47564
-0.196528
2.82288
-0.196738
3.21068
-0.180016
3.05623
-0.153345
2.4547
-0.121787
1.99325
-0.0862827
1.6212
-0.0477283
1.28864
-0.0137566
0.950313
0.0060577
0.595223
0.00868446
0.285588
0.00309467
0.0885075
0.00438567
0.000662388
0.306802
-0.0139163
0.758273
-0.0336471
1.09894
-0.0541155
1.37628
-0.0739659
1.64349
-0.0951688
1.90825
-0.117202
2.18555
-0.136929
2.49537
-0.150603
2.83656
-0.151264
3.21134
-0.134689
3.03966
-0.108496
2.42851
-0.0771815
1.96193
-0.0449852
1.589
-0.0152911
1.25895
0.00872382
0.926298
0.0189027
0.585044
0.0148569
0.289634
0.00500117
0.0983632
0.00938684
0.0034016
0.3034
-0.00595731
0.767632
-0.023055
1.11603
-0.0415581
1.39479
-0.0592829
1.66122
-0.0769105
1.92588
-0.0947482
2.20339
-0.110876
2.5115
-0.121228
2.84691
-0.121058
3.21117
-0.108168
3.02677
-0.0852527
2.40559
-0.0580298
1.93471
-0.0294648
1.56043
-0.000544592
1.23003
0.0198659
0.905887
0.0247962
0.580114
0.0166749
0.297755
0.00535104
0.109687
0.0147379
0.00435983
0.299041
-0.00179636
0.773788
-0.016936
1.13117
-0.0347131
1.41256
-0.0519215
1.67842
-0.0678353
1.94179
-0.0831164
2.21867
-0.096467
2.52485
-0.10519
2.85563
-0.105491
3.21147
-0.0923386
3.01362
-0.0703003
2.38355
-0.046107
1.91052
-0.0191862
1.53351
0.00453079
1.20631
0.020569
0.889849
0.0238204
0.576863
0.0153411
0.306235
0.0048896
0.120139
0.0196275
0.00352212
0.295518
-0.00063597
0.777947
-0.0132811
1.14382
-0.0294004
1.42868
-0.0461803
1.6952
-0.06224
1.95785
-0.0773431
2.23377
-0.0902812
2.53779
-0.0988007
2.86415
-0.098184
3.21085
-0.086703
3.00214
-0.0673739
2.36422
-0.043428
1.88657
-0.0193905
1.50948
0.0034004
1.18352
0.0173649
0.875884
0.018952
0.575276
0.0117958
0.313391
0.00360043
0.128334
0.0232279
0.00220023
0.293318
-0.00144065
0.781587
-0.0123839
1.15476
-0.0269548
1.44325
-0.042953
1.7112
-0.0591593
1.97406
-0.0750314
2.24964
-0.0887885
2.55154
-0.0976784
2.87304
-0.0970992
3.21027
-0.0844323
2.98947
-0.0659049
2.3457
-0.0449162
1.86558
-0.0210327
1.48559
-0.00254942
1.16504
0.00960604
0.863729
0.0126148
0.572267
0.00785173
0.318154
0.00242091
0.133765
0.0256488
0.000693999
0.292624
-0.00314023
0.785422
-0.0127217
1.16434
-0.0256079
1.45614
-0.0406205
1.72622
-0.0570536
1.99049
-0.0739749
2.26656
-0.0888554
2.56642
-0.0983929
2.88258
-0.0978103
3.20969
-0.0848508
2.97651
-0.0676624
2.32851
-0.0474439
1.84536
-0.0284419
1.46659
-0.0104943
1.14709
0.000360862
0.852874
0.00334928
0.569278
0.00234203
0.319161
0.00109064
0.135016
0.0267395
-0.000902655
0.293527
-0.00515112
0.78967
-0.0140609
1.17325
-0.0260658
1.46814
-0.0402812
1.74043
-0.0563402
2.00655
-0.0738387
2.28406
-0.0907409
2.58333
-0.103196
2.89503
-0.105248
3.21174
-0.092589
2.96385
-0.0752675
2.31119
-0.0565719
1.82667
-0.0368443
1.44686
-0.0214022
1.13165
-0.0100056
0.841477
-0.00375334
0.563026
-0.00249792
0.317906
-0.000674411
0.133193
0.0260651
-0.00225508
0.295782
-0.00710661
0.794522
-0.0155862
1.18173
-0.0267625
1.47932
-0.0403178
1.75399
-0.0561408
2.02237
-0.0738476
2.30177
-0.0914588
2.60094
-0.104793
2.90837
-0.10762
3.21457
-0.0969511
2.95318
-0.0807222
2.29496
-0.0623653
1.80831
-0.0459079
1.43041
-0.0302624
1.116
-0.0184165
0.829631
-0.0110764
0.555686
-0.00540857
0.312238
-0.00147821
0.129262
0.0245868
-0.0033883
0.29917
-0.00884417
0.799978
-0.0172974
1.19019
-0.0282566
1.49028
-0.0413615
1.76709
-0.056542
2.03755
-0.0739807
2.31921
-0.0925525
2.61951
-0.109704
2.92552
-0.118886
3.22375
-0.111216
2.94551
-0.0927503
2.27649
-0.0721785
1.78774
-0.0529866
1.41121
-0.0390436
1.10206
-0.026387
0.816975
-0.0162116
0.545511
-0.0083832
0.304409
-0.00244076
0.12332
0.0221461
-0.00414746
0.303318
-0.0103726
0.806203
-0.018836
1.19865
-0.0294007
1.50084
-0.0420744
1.77977
-0.056881
2.05236
-0.0739321
2.33626
-0.0924516
2.63803
-0.110493
2.94356
-0.121449
3.23471
-0.117848
2.94191
-0.10201
2.26065
-0.0786413
1.76437
-0.0609476
1.39352
-0.0447897
1.0859
-0.03217
0.804355
-0.0209914
0.534332
-0.00992355
0.293342
-0.00270588
0.116102
0.0194402
-0.00470631
0.308024
-0.0115435
0.81304
-0.0201674
1.20727
-0.0307006
1.51138
-0.0430965
1.79216
-0.0573121
2.06658
-0.0737694
2.35272
-0.0923718
2.65663
-0.112691
2.96388
-0.130486
3.2525
-0.13313
2.94456
-0.116476
2.244
-0.0915667
1.73946
-0.0668979
1.36885
-0.0503708
1.06938
-0.0360876
0.790072
-0.0223171
0.520561
-0.0105956
0.28162
-0.00258714
0.108094
0.016853
-0.00508362
0.313108
-0.0124705
0.820427
-0.0211287
1.21593
-0.0313913
1.52164
-0.0434641
1.80423
-0.057318
2.08043
-0.0733586
2.36876
-0.0917879
2.67506
-0.112107
2.9842
-0.130577
3.27097
-0.137114
2.95109
-0.125878
2.23277
-0.101332
1.71492
-0.0748998
1.34242
-0.0515653
1.04604
-0.0369144
0.775421
-0.024364
0.508011
-0.0108774
0.268133
-0.00225088
0.0994673
0.0146022
-0.00527441
0.318382
-0.0130146
0.828167
-0.0217698
1.22469
-0.0319805
1.53185
-0.0437865
1.81604
-0.0571499
2.09379
-0.0728487
2.38445
-0.0912717
2.69348
-0.112343
3.00527
-0.134646
3.29328
-0.146536
2.96298
-0.138732
2.22496
-0.117487
1.69367
-0.0849323
1.30986
-0.0546435
1.01575
-0.0330686
0.753846
-0.0186745
0.493617
-0.00803815
0.257497
-0.00154256
0.0929717
0.0130596
-0.00535243
0.323735
-0.0133478
0.836162
-0.0220926
1.23343
-0.0319969
1.54175
-0.0433618
1.8274
-0.056409
2.10684
-0.0721295
2.40018
-0.0907853
2.71214
-0.111682
3.02617
-0.132707
3.3143
-0.146474
2.97675
-0.145102
2.22359
-0.127464
1.67603
-0.0980762
1.28048
-0.0582701
0.975946
-0.0251606
0.720736
-0.00932683
0.477783
0.000169996
0.248
0.00114301
0.0919987
0.0142026
-0.00530888
0.329043
-0.0133805
0.844234
-0.0221271
1.24218
-0.031876
1.5515
-0.0427341
1.83826
-0.0554798
2.11959
-0.0714097
2.41611
-0.0903079
2.73104
-0.111264
3.04712
-0.133632
3.33667
-0.150137
2.99325
-0.151989
2.22544
-0.140671
1.66471
-0.110073
1.24988
-0.0682097
0.934082
-0.0189229
0.671449
0.0148219
0.444039
0.0214583
0.241364
0.00945957
0.103997
0.0236622
-0.00518588
0.334229
-0.013295
0.852343
-0.0219428
1.25083
-0.0313415
1.5609
-0.0414065
1.84833
-0.0540896
2.13227
-0.0705261
2.43254
-0.0897815
2.75029
-0.110609
3.06795
-0.132262
3.35832
-0.149454
3.01045
-0.155294
2.23128
-0.145749
1.65517
-0.121761
1.22589
-0.076209
0.88853
-0.0196624
0.614903
0.0429962
0.38138
0.0723678
0.211992
0.0508271
0.125538
0.0744893
-0.00499476
0.339224
-0.012573
0.859921
-0.0205707
1.25882
-0.0297374
1.57007
-0.0411781
1.85977
-0.0552624
2.14635
-0.0725576
2.44984
-0.0927059
2.77044
-0.114562
3.08981
-0.136853
3.38061
-0.153696
3.02729
-0.158837
2.23642
-0.154029
1.65036
-0.128899
1.20076
-0.0882671
0.847898
-0.0171122
0.543748
0.069985
0.294283
0.137663
0.144315
0.141102
0.122098
0.215592
-0.0048964
0.34412
-0.0122133
0.867238
-0.0199942
1.26661
-0.0292833
1.57936
-0.0413553
1.87184
-0.0563969
2.1614
-0.0748948
2.46833
-0.0968062
2.79235
-0.121345
3.11434
-0.147074
3.40634
-0.168408
3.04862
-0.179537
2.24755
-0.174855
1.64568
-0.154773
1.18068
-0.10535
0.798475
-0.0485871
0.486985
-0.0836166
0.329312
-0.388922
0.44962
-0.998329
0.731505
0.926252
-1.70899
-0.00474378
0.348864
-0.0120019
0.874496
-0.0198222
1.27443
-0.0289414
1.58848
-0.0402549
1.88315
-0.0551288
2.17627
-0.0742625
2.48747
-0.096999
2.81509
-0.122959
3.1403
-0.152704
3.43609
-0.179354
3.07527
-0.195919
2.26412
-0.205394
1.65515
-0.193988
1.16927
-0.173147
0.777634
-0.28067
0.594508
-0.760015
0.808658
-1.50251
1.19212
-2.09473
1.32372
1.20783
-2.37631
-0.00450484
0.353369
-0.0116152
0.881607
-0.0192694
1.28208
-0.0279551
1.59716
-0.0390101
1.89421
-0.0541959
2.19146
-0.0739159
2.50719
-0.0974627
2.83864
-0.12513
3.16797
-0.15787
3.46883
-0.18978
3.10718
-0.216054
2.29039
-0.2312
1.6703
-0.235974
1.17405
-0.352877
0.894537
-0.844016
1.08565
-1.60936
1.57401
-2.13948
1.72224
-2.36158
1.54582
1.3118
-2.46555
-0.00395326
0.357322
-0.0111373
0.888791
-0.0185699
1.28951
-0.026728
1.60532
-0.0376315
1.90511
-0.0532531
2.20708
-0.0733886
2.52732
-0.0974822
2.86273
-0.127161
3.19765
-0.164874
3.50654
-0.20396
3.14627
-0.239311
2.32574
-0.271278
1.70227
-0.367798
1.27057
-0.739763
1.2665
-1.49063
1.83652
-2.05065
2.13402
-2.27742
1.94901
-2.38362
1.65202
1.37872
-2.45054
-0.0030976
0.36042
-0.00909251
0.894786
-0.0160252
1.29645
-0.0247718
1.61407
-0.0368472
1.91719
-0.0527547
2.22299
-0.072712
2.54728
-0.0973829
2.8874
-0.12903
3.2293
-0.170048
3.54756
-0.215764
3.19199
-0.264053
2.37403
-0.321091
1.75931
-0.543556
1.49303
-1.19351
1.91645
-1.85653
2.49954
-2.15015
2.42764
-2.28637
2.08522
-2.36455
1.7302
1.4368
-2.42264
-0.00261844
0.363038
-0.00731732
0.899485
-0.0142411
1.30337
-0.0243452
1.62417
-0.0377094
1.93055
-0.0539804
2.23926
-0.0739631
2.56726
-0.0995924
2.91303
-0.133722
3.26343
-0.180301
3.59414
-0.232854
3.24454
-0.284587
2.42576
-0.413693
1.88841
-0.82923
1.90857
-1.56503
2.65225
-1.99651
2.93102
-2.17228
2.60342
-2.26395
2.17688
-2.33433
1.80059
1.49591
-2.39344
-0.00251457
0.365553
-0.00771035
0.90468
-0.0152058
1.31086
-0.0257819
1.63475
-0.0396165
1.94439
-0.0565593
2.2562
-0.0774635
2.58817
-0.104489
2.94005
-0.140843
3.29978
-0.190985
3.64428
-0.250094
3.30365
-0.328603
2.50427
-0.544717
2.10453
-1.13831
2.50217
-1.74823
3.26216
-1.99183
3.17462
-2.1244
2.736
-2.22466
2.27714
-2.3078
1.88373
1.555
-2.36689
-0.0027222
0.368275
-0.00867824
0.910636
-0.0167759
1.31896
-0.0275995
1.64557
-0.0416918
1.95848
-0.0592488
2.27376
-0.0811052
2.61002
-0.109448
2.9684
-0.148325
3.33866
-0.203818
3.69977
-0.268517
3.36835
-0.373286
2.60904
-0.698427
2.42967
-1.37106
3.17479
-1.80758
3.69868
-1.9974
3.36445
-2.12518
2.86377
-2.22423
2.37619
-2.29927
1.95876
1.58511
-2.32938
-0.00307694
0.371352
-0.00958273
0.917142
-0.0183314
1.32771
-0.0295322
1.65677
-0.0438868
1.97283
-0.0619516
2.29182
-0.0847539
2.63283
-0.114613
2.99826
-0.155899
3.37994
-0.213919
3.75779
-0.284837
3.43926
-0.438488
2.76269
-0.868579
2.85976
-1.50127
3.80748
-1.81787
4.01528
-1.97257
3.51915
-2.06383
2.95503
-2.14224
2.45461
-2.19271
2.00924
1.52835
-2.13595
-0.00331394
0.374666
-0.0102781
0.924106
-0.0196052
1.33704
-0.0314149
1.66858
-0.046279
1.9877
-0.0648961
2.31044
-0.0885112
2.65644
-0.119529
3.02927
-0.163385
3.4238
-0.228304
3.82271
-0.324414
3.53538
-0.525486
2.96376
-1.0187
3.35297
-1.55365
4.34243
-1.79239
4.25402
-1.9299
3.65667
-2.00906
3.03419
-2.01647
2.46201
-1.93372
1.92649
1.45067
-1.85604
-0.00337171
0.378038
-0.0107817
0.931516
-0.0206528
1.34691
-0.0329234
1.68085
-0.0481887
2.00296
-0.0670589
2.32931
-0.0909845
2.68037
-0.122701
3.06099
-0.167056
3.46815
-0.227822
3.88348
-0.32941
3.63696
-0.569637
3.20399
-1.10185
3.88518
-1.50969
4.75027
-1.66653
4.41086
-1.74367
3.73381
-1.77342
3.06393
-1.64138
2.32997
-1.12401
1.40912
0.32666
-0.00324347
0.381281
-0.0108219
0.939095
-0.0211954
1.35728
-0.0344291
1.69409
-0.0509417
2.01948
-0.0711855
2.34955
-0.0969771
2.70616
-0.131631
3.09564
-0.180222
3.51674
-0.247445
3.9507
-0.369903
3.75942
-0.66926
3.50335
-1.24559
4.46151
-1.57329
5.07797
-1.68386
4.52143
-1.71374
3.76369
-1.60967
2.95987
-1.25463
1.97494
-0.479397
0.633883
-0.152737
-0.00297531
0.384257
-0.0109397
0.947059
-0.0219957
1.36834
-0.0357907
1.70788
-0.0530358
2.03672
-0.0745597
2.37108
-0.102337
2.73394
-0.139898
3.13321
-0.192595
3.56944
-0.267109
4.02522
-0.416408
3.90872
-0.788197
3.87514
-1.35881
5.03213
-1.59205
5.31121
-1.65864
4.58802
-1.62864
3.73369
-1.36806
2.69929
-0.645843
1.25272
-0.0171835
0.00522267
-0.16992
-0.00249628
0.386753
-0.0103947
0.954958
-0.0217948
1.37974
-0.0363838
1.72247
-0.0546863
2.05502
-0.0775498
2.39394
-0.107166
2.76355
-0.147316
3.17336
-0.203343
3.62547
-0.295263
4.11714
-0.479662
4.09312
-0.908635
4.30411
-1.42964
5.55313
-1.59019
5.47175
-1.62745
4.62529
-1.48368
3.58992
-0.983946
2.19956
-0.172467
0.441239
0.0370804
-0.204324
-0.13284
-0.00178722
0.38854
-0.00951084
0.962681
-0.0213313
1.39156
-0.036363
1.7375
-0.0552706
2.07393
-0.0792335
2.4179
-0.11065
2.79497
-0.153681
3.21639
-0.212562
3.68435
-0.314199
4.21877
-0.524872
4.30379
-1.0223
4.80154
-1.46128
5.99211
-1.56726
5.57774
-1.5461
4.60413
-1.26092
3.30473
-0.510457
1.4491
0.00879285
-0.0780104
0.0269697
-0.222501
-0.10587
-0.000598072
0.389138
-0.00756807
0.969651
-0.019252
1.40324
-0.0348406
1.75309
-0.0546453
2.09374
-0.0797342
2.44299
-0.112681
2.82792
-0.158118
3.26182
-0.220431
3.74666
-0.330076
4.32842
-0.571514
4.54523
-1.11583
5.34586
-1.43723
6.31351
-1.49151
5.63202
-1.4061
4.51871
-0.985428
2.88406
-0.166485
0.630155
0.0212714
-0.265767
0.0202164
-0.221446
-0.0856536
0.00111069
0.388027
-0.00469782
0.97546
-0.0163491
1.41489
-0.0320042
1.76875
-0.052037
2.11377
-0.0778412
2.4688
-0.112049
2.86212
-0.159325
3.3091
-0.224226
3.81157
-0.343423
4.44761
-0.621638
4.82345
-1.16562
5.88984
-1.39022
6.53811
-1.41598
5.65778
-1.21085
4.31358
-0.593692
2.2669
-0.00985216
0.0463151
0.00999436
-0.285613
0.00503861
-0.21649
-0.080615
0.00324544
0.384782
-0.000329594
0.979035
-0.0108637
1.42543
-0.0264618
1.78434
-0.0468986
2.1342
-0.0733941
2.49529
-0.108385
2.89711
-0.1557
3.35641
-0.223754
3.87962
-0.350669
4.57453
-0.660275
5.13305
-1.16895
6.39851
-1.31691
6.68607
-1.29203
5.63291
-0.972757
3.99431
-0.294973
1.58911
-0.0368336
-0.211824
-0.0155165
-0.30693
-0.00766256
-0.224344
-0.0882776
0.00661574
0.378166
0.00572982
0.979921
-0.00346124
1.43462
-0.0182789
1.79916
-0.0381777
2.1541
-0.0646888
2.5218
-0.0999915
2.93242
-0.147556
3.40398
-0.216128
3.94819
-0.349055
4.70746
-0.681599
5.4656
-1.12258
6.83949
-1.20651
6.77
-1.14764
5.57403
-0.797543
3.64422
-0.0746844
0.866253
0.00560129
-0.29211
0.0173797
-0.318709
0.00753763
-0.214502
-0.0807399
0.0109241
0.367242
0.0144712
0.976374
0.00829567
1.4408
-0.00532587
1.81278
-0.024701
2.17348
-0.0510935
2.54819
-0.0865309
2.96785
-0.13259
3.45004
-0.202198
4.0178
-0.336807
4.84207
-0.670545
5.79933
-1.02802
7.19696
-1.07039
6.81237
-0.948642
5.45229
-0.534054
3.22963
0.0829119
0.249287
0.109457
-0.318654
0.0908283
-0.300081
0.0405289
-0.164203
-0.040211
0.0171385
0.350104
0.0263518
0.96716
0.0237245
1.44342
0.0125375
1.82397
-0.00506259
2.19108
-0.0302395
2.57337
-0.0649466
3.00256
-0.110737
3.49583
-0.176928
4.08399
-0.297933
4.96307
-0.610877
6.11228
-0.887205
7.47329
-0.933752
6.85891
-0.788383
5.30692
-0.311189
2.75244
0.0588849
-0.120786
0.095213
-0.354982
0.0936995
-0.298567
0.0473186
-0.117822
0.0071076
0.0247154
0.325388
0.0424089
0.949467
0.0453857
1.44045
0.0374432
1.83191
0.0224554
2.20607
-0.000631664
2.59646
-0.0340163
3.03595
-0.0789264
3.54074
-0.141133
4.14619
-0.24337
5.06531
-0.499377
6.36828
-0.705126
7.67904
-0.76448
6.91827
-0.671324
5.21376
-0.273941
2.35506
-0.178834
-0.215893
-0.10053
-0.433287
-0.0185408
-0.380556
0.0268504
-0.163213
0.033958
0.035198
0.29019
0.0633475
0.921317
0.0732724
1.43052
0.0700448
1.83514
0.0593719
2.21674
0.0404437
2.61539
0.0118119
3.06458
-0.0319825
3.58453
-0.092015
4.20623
-0.17222
5.14551
-0.339747
6.53581
-0.473496
7.81279
-0.560672
7.00544
-0.530322
5.18341
-0.25753
2.08226
-0.395537
-0.0778865
-0.32693
-0.501894
-0.200653
-0.506833
-0.0345896
-0.329276
-0.000631691
0.0471999
0.24299
0.0900066
0.878511
0.109563
1.41096
0.112981
1.83172
0.108323
2.2214
0.0949513
2.62876
0.0737267
3.0858
0.0370705
3.62119
-0.0211094
4.26441
-0.0894045
5.21381
-0.160122
6.60653
-0.210625
7.86329
-0.270022
7.06484
-0.257415
5.1708
-0.231132
2.05598
-0.520803
0.211785
-0.537784
-0.484913
-0.392818
-0.651799
-0.164235
-0.557859
-0.164867
0.0605045
0.182486
0.120512
0.818504
0.155076
1.3764
0.168668
1.81813
0.171374
2.21869
0.165326
2.63481
0.154226
3.0969
0.131414
3.644
0.0884219
4.3074
0.0399429
5.26229
0.0735968
6.57287
0.127851
7.80904
0.159562
7.03313
0.0900025
5.24036
-0.0876337
2.23362
-0.358355
0.482506
-0.477932
-0.365336
-0.407075
-0.722656
-0.224808
-0.740126
-0.389675
0.0643826
0.118103
0.153911
0.728975
0.211032
1.31928
0.239455
1.78971
0.251868
2.20628
0.254604
2.63207
0.254363
3.09714
0.251964
3.6464
0.237041
4.32232
0.223849
5.27548
0.370492
6.42623
0.55394
7.62559
0.691401
6.89567
0.637761
5.294
0.160166
2.71121
-0.0363977
0.67907
-0.171978
-0.229756
-0.232209
-0.662424
-0.157217
-0.815118
-0.546891
0.0565556
0.0615478
0.185906
0.599624
0.280112
1.22507
0.328595
1.74122
0.350763
2.18411
0.363128
2.6197
0.371158
3.08911
0.391004
3.62655
0.419942
4.29338
0.462382
5.23304
0.740513
6.1481
1.10674
7.25937
1.35154
6.65087
1.36678
5.27876
0.783834
3.29416
0.330516
1.13239
0.0490908
0.0516687
-0.100687
-0.512646
-0.115682
-0.800123
-0.662574
0.043511
0.0180367
0.225912
0.417223
0.352518
1.09847
0.427047
1.66669
0.468736
2.14242
0.497045
2.5914
0.516215
3.06994
0.549279
3.59349
0.615543
4.22712
0.744229
5.10435
1.14409
5.74824
1.67216
6.7313
2.02158
6.30145
2.20994
5.09039
1.94079
3.56331
1.23326
1.83992
0.676795
0.608137
0.277419
-0.11327
0.0369609
-0.559666
-0.625613
0.0287532
-0.0107165
0.236676
0.2093
0.433609
0.901534
0.547364
1.55294
0.608304
2.08148
0.649906
2.54979
0.684151
3.0357
0.728761
3.54888
0.82145
4.13443
1.00792
4.91788
1.47428
5.28188
2.19883
6.00675
2.53977
5.96051
2.74284
4.88732
2.58043
3.72572
1.99219
2.42816
1.33745
1.26288
0.727907
0.49627
0.278088
-0.109847
-0.347525
0.02627
-0.0369865
0.181088
0.0544821
0.486232
0.59639
0.677319
1.36185
0.771587
1.98721
0.824942
2.49644
0.871864
2.98878
0.924895
3.49585
1.03226
4.02706
1.21531
4.73483
1.60544
4.89176
2.48682
5.12536
2.72466
5.72267
2.88835
4.72363
2.83751
3.77656
2.3958
2.86988
1.65378
2.00489
0.937568
1.21248
0.367491
0.46023
0.0199666
0.0117406
-0.048727
0.0993755
-0.0331528
0.422408
0.273357
0.678285
1.10598
0.799969
1.86553
0.837298
2.45911
0.85438
2.9717
0.856072
3.49416
0.876035
4.0071
0.936129
4.67473
1.04856
4.77933
1.3835
4.79042
1.63743
5.46874
1.59956
4.76151
1.49089
3.88522
1.262
3.09877
0.961091
2.3058
0.656132
1.51744
0.296849
0.819513
0.316816
0.00257533
-0.0513024
0.0457714
-0.0763488
0.232616
0.086513
0.480795
0.857797
0.611967
1.73436
0.66365
2.40743
0.691605
2.94374
0.70239
3.48337
0.703433
4.00606
0.726888
4.65128
0.756907
4.74931
0.945405
4.60193
1.22289
5.19126
1.20435
4.78004
1.10759
3.98199
0.966172
3.24019
0.763769
2.5082
0.518926
1.76228
0.231552
1.10689
0.548368
0.0179215
-0.0692239
0.0614745
-0.119902
0.138316
0.00967163
0.318881
0.677232
0.441698
1.61154
0.49864
2.35048
0.524308
2.91807
0.539054
3.46863
0.546581
3.99853
0.561261
4.6366
0.575697
4.73487
0.661761
4.51586
0.808175
5.04484
0.802199
4.78602
0.720197
4.06399
0.614055
3.34633
0.478719
2.64354
0.320276
1.92073
0.139208
1.28796
0.687576
0.034663
-0.103887
0.0770421
-0.162281
0.0964353
-0.00972154
0.171885
0.601783
0.258954
1.52447
0.319408
2.29003
0.354545
2.88294
0.377559
3.44561
0.39474
3.98135
0.41155
4.61979
0.417777
4.72865
0.442092
4.49155
0.521044
4.96589
0.521796
4.78527
0.464502
4.12128
0.38243
3.4284
0.280476
2.74549
0.172127
2.02908
0.0636323
1.39645
0.751208
0.0330296
-0.136916
0.058438
-0.187689
0.0298751
0.0188414
0.0239257
0.607732
0.0701131
1.47829
0.131471
2.22867
0.18552
2.82889
0.220521
3.41061
0.242494
3.95938
0.264019
4.59826
0.277727
4.71494
0.278379
4.49089
0.336055
4.90821
0.342146
4.77918
0.301982
4.16145
0.239581
3.49081
0.163723
2.82135
0.0783461
2.11445
0.000845051