/*--------------------------------*- C++ -*----------------------------------*\
  =========                 |
  \\      /  F ield         | OpenFOAM: The Open Source CFD Toolbox
   \\    /   O peration     | Website:  https://openfoam.org
    \\  /    A nd           | Version:  6
     \\/     M anipulation  |
\*---------------------------------------------------------------------------*/
FoamFile
{
    version     2.0;
    format      ascii;
    class       volScalarField;
    location    "107.3";
    object      p;
}
// * * * * * * * * * * * * * * * * * * * * * * * * * * * * * * * * * * * * * //

dimensions      [0 2 -2 0 0 0 0];

internalField   nonuniform List<scalar> 
8800
(
0.991825
0.942512
0.904549
0.876484
0.856329
0.841751
0.831166
0.823643
0.818782
0.816745
0.81815
0.822522
0.829339
0.838781
0.85153
0.86886
0.892744
0.925845
0.968785
1.0213
0.826312
0.832658
0.841811
0.845363
0.84276
0.836679
0.829749
0.823523
0.818743
0.815903
0.815708
0.81837
0.82304
0.82919
0.836305
0.843351
0.848238
0.84812
0.84145
0.832556
0.799811
0.806049
0.810553
0.81443
0.817386
0.818346
0.817272
0.815171
0.813218
0.812415
0.813488
0.815977
0.818891
0.821182
0.82172
0.819943
0.816587
0.812581
0.807805
0.80409
0.795486
0.798254
0.800865
0.80303
0.804777
0.806358
0.807478
0.807855
0.807773
0.807913
0.808765
0.809949
0.810724
0.8106
0.809645
0.808306
0.806649
0.804356
0.801951
0.800385
0.790397
0.791824
0.793669
0.795759
0.797483
0.798792
0.799911
0.800919
0.801766
0.802553
0.80332
0.803829
0.803894
0.803563
0.80292
0.801825
0.800185
0.798303
0.796956
0.796153
0.785364
0.786268
0.787521
0.789159
0.790867
0.792419
0.793728
0.794885
0.795996
0.797074
0.797928
0.798379
0.798439
0.798112
0.797341
0.796178
0.794838
0.793587
0.792773
0.792249
0.780401
0.781057
0.782026
0.783357
0.784823
0.786363
0.78788
0.789286
0.790605
0.791885
0.79292
0.79349
0.793571
0.793186
0.792446
0.791537
0.790572
0.789686
0.789115
0.78873
0.775503
0.776009
0.776803
0.77796
0.779283
0.78073
0.782277
0.78387
0.785452
0.786999
0.788258
0.788962
0.789121
0.788865
0.788354
0.787708
0.787006
0.786366
0.785948
0.785648
0.770615
0.771017
0.771687
0.772727
0.773985
0.775386
0.776939
0.778643
0.780458
0.782316
0.78386
0.784785
0.785162
0.785156
0.784903
0.784492
0.784006
0.783567
0.783262
0.783017
0.765651
0.765979
0.766563
0.767529
0.768749
0.770149
0.771751
0.773574
0.775612
0.777802
0.779717
0.780985
0.781681
0.781968
0.781976
0.781812
0.781537
0.781266
0.781046
0.780839
0.760521
0.760792
0.761318
0.762243
0.763456
0.764896
0.766592
0.768581
0.770883
0.773463
0.775842
0.77755
0.778632
0.779252
0.779548
0.779636
0.779576
0.779458
0.779308
0.779128
0.755127
0.755355
0.755845
0.75676
0.758007
0.759531
0.761366
0.763581
0.766222
0.769285
0.77223
0.774464
0.775998
0.777002
0.777624
0.777972
0.778142
0.778168
0.778075
0.777914
0.749373
0.749566
0.750039
0.750975
0.752297
0.753951
0.755983
0.758495
0.761567
0.765227
0.768857
0.771718
0.773783
0.775231
0.776226
0.776885
0.777285
0.777444
0.777399
0.77725
0.743145
0.743311
0.743784
0.744768
0.746208
0.748045
0.750344
0.753239
0.756849
0.761241
0.765698
0.769312
0.772007
0.773973
0.775397
0.776402
0.777054
0.777349
0.777346
0.777203
0.736313
0.736456
0.736944
0.738007
0.739609
0.74169
0.744336
0.747715
0.751992
0.757276
0.762734
0.767246
0.77069
0.773267
0.775183
0.776586
0.777524
0.77796
0.777996
0.777854
0.728725
0.728846
0.729362
0.730532
0.732348
0.734746
0.737831
0.741816
0.746914
0.753283
0.759944
0.765527
0.769855
0.773158
0.775662
0.777527
0.778786
0.779368
0.779437
0.779293
0.72018
0.720283
0.720833
0.722147
0.724239
0.727037
0.730674
0.735412
0.741519
0.749207
0.757309
0.764167
0.769539
0.773693
0.776904
0.779312
0.780931
0.781666
0.781766
0.781615
0.710387
0.71049
0.71111
0.712601
0.71505
0.718352
0.722679
0.728353
0.735703
0.744989
0.754813
0.763178
0.769781
0.774938
0.778978
0.782023
0.784048
0.784942
0.785067
0.784905
0.699055
0.699135
0.699844
0.701589
0.704483
0.708424
0.713622
0.720464
0.729344
0.740569
0.752445
0.762576
0.770621
0.776957
0.781952
0.785744
0.788217
0.789268
0.78941
0.789234
0.685745
0.685812
0.686632
0.688693
0.692154
0.696917
0.703225
0.711539
0.722315
0.73589
0.750196
0.762386
0.77209
0.77979
0.785901
0.790535
0.793483
0.794679
0.794827
0.794633
0.669848
0.669907
0.670881
0.673366
0.677576
0.68341
0.691155
0.701348
0.714488
0.730908
0.748075
0.762632
0.774223
0.783478
0.790845
0.796411
0.799842
0.801153
0.80129
0.801076
0.650515
0.650569
0.65177
0.654854
0.660084
0.667365
0.677019
0.689652
0.705761
0.725617
0.746106
0.763341
0.777049
0.788034
0.796776
0.803343
0.807214
0.808584
0.808689
0.808455
0.62649
0.62655
0.628108
0.632094
0.638796
0.648109
0.660384
0.67624
0.696091
0.720063
0.744349
0.764555
0.780575
0.793446
0.803658
0.811215
0.815416
0.816761
0.816811
0.816562
0.595811
0.595903
0.598082
0.603537
0.612551
0.624869
0.640858
0.66101
0.685545
0.714372
0.742911
0.766329
0.784813
0.799647
0.811396
0.819817
0.824152
0.825362
0.825337
0.82508
0.555152
0.555386
0.558854
0.567027
0.579964
0.596968
0.618274
0.644088
0.674352
0.708756
0.741946
0.768747
0.78976
0.806599
0.819815
0.828833
0.833015
0.833974
0.833866
0.833613
0.498165
0.499362
0.506318
0.520186
0.539996
0.564274
0.592964
0.625936
0.662929
0.70351
0.741625
0.771901
0.795424
0.81418
0.82866
0.837854
0.841529
0.842159
0.841982
0.841745
0.415645
0.423763
0.439829
0.464165
0.494271
0.528293
0.565963
0.607109
0.651501
0.698741
0.742103
0.776107
0.802354
0.823129
0.838507
0.847397
0.850349
0.850658
0.850447
0.850256
0.327495
0.345371
0.37149
0.407079
0.448051
0.491922
0.538531
0.587892
0.639888
0.694227
0.743482
0.78184
0.811358
0.834312
0.850292
0.858104
0.860034
0.860073
0.859902
0.859787
0.2517
0.273586
0.308094
0.353305
0.403883
0.457033
0.512334
0.569736
0.6291
0.690151
0.74481
0.787041
0.819376
0.844019
0.859892
0.866371
0.867567
0.867521
0.867395
0.867316
0.18924
0.213576
0.253847
0.305958
0.364026
0.424891
0.487817
0.552542
0.618729
0.685998
0.745611
0.791334
0.826078
0.851917
0.867462
0.87301
0.873849
0.873779
0.873677
0.873612
0.13719
0.163025
0.207473
0.264928
0.328956
0.396119
0.46548
0.536594
0.6089
0.681839
0.745979
0.794877
0.831796
0.858655
0.873827
0.878651
0.879272
0.879188
0.8791
0.87904
0.0929672
0.119688
0.167223
0.22899
0.297998
0.370499
0.445381
0.522082
0.599846
0.677921
0.746187
0.797959
0.83683
0.864526
0.87928
0.883566
0.88405
0.883952
0.883868
0.883809
0.0544899
0.0817844
0.131719
0.197054
0.270307
0.347447
0.42721
0.508916
0.591633
0.674398
0.74642
0.800768
0.841311
0.869634
0.883978
0.887866
0.888257
0.888141
0.888053
0.887991
0.0202445
0.0479691
0.0998664
0.168239
0.245173
0.326396
0.410548
0.496834
0.584143
0.67128
0.746742
0.803358
0.845291
0.874028
0.887972
0.891566
0.891896
0.891766
0.891672
0.891602
-0.0108303
0.0172653
0.0708158
0.141843
0.222028
0.306889
0.395022
0.485543
0.577191
0.668487
0.747178
0.805811
0.848861
0.877793
0.891303
0.894669
0.89497
0.894847
0.894753
0.894674
-0.0395858
-0.011117
0.0439085
0.117334
0.200416
0.288553
0.380324
0.4748
0.570589
0.665937
0.747762
0.808245
0.852164
0.881058
0.894075
0.897247
0.897556
0.897473
0.897398
0.897312
-0.0664577
-0.0376625
0.0187043
0.0942831
0.179979
0.271092
0.366215
0.464403
0.564188
0.663574
0.748553
0.810808
0.8554
0.88404
0.896491
0.899479
0.899826
0.899819
0.899785
0.899697
-0.0919783
-0.0627811
-0.00517803
0.0723711
0.16044
0.254268
0.352499
0.45419
0.55785
0.661326
0.749613
0.813674
0.858802
0.887007
0.898818
0.901616
0.902014
0.902108
0.902135
0.902053
-0.116328
-0.0867323
-0.0279726
0.0513724
0.141594
0.23791
0.339021
0.444023
0.551451
0.659109
0.750981
0.817022
0.862629
0.890231
0.901328
0.903913
0.90436
0.904558
0.904652
0.904584
-0.139705
-0.1097
-0.0498631
0.0311308
0.123309
0.221894
0.325667
0.433784
0.544872
0.656803
0.752637
0.821009
0.867128
0.893952
0.904223
0.906553
0.907039
0.907323
0.907475
0.907423
-0.162257
-0.131796
-0.0709568
0.0115493
0.105484
0.206137
0.312358
0.423391
0.538005
0.654269
0.754494
0.82575
0.872574
0.898426
0.907605
0.909594
0.910122
0.91047
0.910647
0.910602
-0.184101
-0.153147
-0.0913081
-0.00743347
0.0880758
0.190586
0.299047
0.412781
0.530756
0.651355
0.756396
0.831279
0.879275
0.903961
0.911558
0.912914
0.91349
0.913954
0.914153
0.914089
-0.205152
-0.173733
-0.110947
-0.0258642
0.071052
0.175233
0.285706
0.401926
0.523061
0.647934
0.758135
0.83751
0.88751
0.911092
0.916406
0.916401
0.916825
0.917672
0.918157
0.91808
-0.225434
-0.19358
-0.129913
-0.0437542
0.0544108
0.160073
0.27235
0.390808
0.514882
0.643876
0.75948
0.844232
0.897435
0.920564
0.923129
0.920611
0.920155
0.921717
0.923314
0.923579
-0.24504
-0.21269
-0.148228
-0.0611131
0.0381684
0.145136
0.259004
0.379449
0.506199
0.639089
0.760174
0.851124
0.90896
0.933006
0.933295
0.927574
0.925161
0.9274
0.93119
0.932973
-0.263861
-0.231068
-0.165871
-0.0779107
0.0223428
0.130461
0.245712
0.367888
0.497031
0.633524
0.759972
0.857753
0.921689
0.94847
0.948076
0.939751
0.934516
0.935063
0.93934
0.94181
-0.282
-0.248756
-0.182868
-0.0942021
0.00687644
0.115988
0.232402
0.356046
0.487274
0.627058
0.758631
0.863725
0.935219
0.966599
0.967548
0.958179
0.949519
0.942646
0.935397
0.939531
-0.299415
-0.26582
-0.199373
-0.110189
-0.00852802
0.101396
0.218675
0.343467
0.476437
0.619145
0.755619
0.868467
0.949444
0.98743
0.99127
0.982314
0.968797
0.953276
0.929951
0.934313
-0.316002
-0.282268
-0.215245
-0.125699
-0.0236294
0.0869597
0.204694
0.330418
0.464719
0.60985
0.750619
0.870666
0.962579
1.00891
1.01492
1.00468
0.986622
0.953548
0.898622
0.876444
-0.331671
-0.29915
-0.230082
-0.140302
-0.0376236
0.0731666
0.190736
0.317162
0.452374
0.599282
0.743489
0.869314
0.972391
1.02851
1.03145
1.01511
0.983643
0.923476
0.861396
0.824179
-0.373446
-0.315849
-0.243595
-0.154984
-0.0512912
0.0589978
0.176945
0.303552
0.439147
0.586984
0.733541
0.8632
0.97499
1.03946
1.03791
0.998761
0.931002
0.854912
0.783051
0.743327
-0.34634
-0.327267
-0.264086
-0.174837
-0.0725493
0.0376701
0.155172
0.281597
0.417105
0.565075
0.712652
0.844221
0.951589
1.02351
0.98579
0.852136
0.747032
0.674067
0.604614
0.623735
-0.375988
-0.343758
-0.279682
-0.190828
-0.0888771
0.0212898
0.139171
0.265222
0.400176
0.547223
0.693389
0.822423
0.918137
0.959298
0.883198
0.722274
0.599151
0.516113
0.428667
0.465482
-0.398541
-0.364026
-0.298246
-0.209322
-0.107392
0.0028548
0.120775
0.246261
0.380206
0.525422
0.668397
0.791549
0.875124
0.877291
0.746617
0.574841
0.433672
0.331717
0.231639
0.254619
-0.420255
-0.384793
-0.317722
-0.228172
-0.126146
-0.015954
0.10155
0.226236
0.358834
0.501556
0.639838
0.753188
0.818535
0.786184
0.606056
0.416136
0.247156
0.10663
-0.0224017
-0.0190914
-0.441538
-0.405792
-0.337899
-0.247805
-0.145651
-0.0356503
0.0812459
0.204911
0.33575
0.475321
0.607484
0.71023
0.75365
0.668516
0.466969
0.259582
0.0667081
-0.0914462
-0.297411
-0.378348
-0.463081
-0.427504
-0.359184
-0.268742
-0.166467
-0.0566559
0.0596476
0.182176
0.310998
0.446898
0.571944
0.664832
0.678462
0.542455
0.338973
0.121986
-0.0746606
-0.237648
-0.360231
-0.472155
-0.48594
-0.450403
-0.381925
-0.291365
-0.18913
-0.0796451
0.0359213
0.157062
0.283393
0.414813
0.531963
0.610605
0.594617
0.422338
0.218549
0.00821474
-0.171511
-0.270049
-0.295788
-0.308721
-0.510266
-0.474786
-0.406251
-0.315758
-0.213786
-0.104845
0.00968004
0.129033
0.252284
0.378244
0.486469
0.545611
0.507415
0.306712
0.105477
-0.0842586
-0.220266
-0.258692
-0.266967
-0.267328
-0.536353
-0.500785
-0.432205
-0.341913
-0.240387
-0.132273
-0.0191191
0.0980062
0.217566
0.337169
0.435681
0.47659
0.401174
0.200279
0.00608006
-0.158814
-0.235011
-0.249049
-0.250014
-0.249887
-0.564204
-0.528434
-0.459814
-0.369835
-0.268963
-0.161939
-0.0505069
0.0639403
0.179233
0.291692
0.37945
0.402545
0.288331
0.103184
-0.0797502
-0.21033
-0.239419
-0.239995
-0.240501
-0.240094
-0.593575
-0.557585
-0.488994
-0.399459
-0.299445
-0.193809
-0.084481
0.0268361
0.137334
0.241938
0.318802
0.321046
0.188935
0.0148757
-0.14663
-0.222138
-0.236795
-0.234699
-0.234372
-0.233967
-0.623921
-0.587892
-0.51949
-0.430568
-0.331661
-0.227742
-0.120908
-0.0132001
0.0921024
0.188456
0.253971
0.23936
0.0983933
-0.0621316
-0.191331
-0.230525
-0.229845
-0.23024
-0.229968
-0.229643
-0.654799
-0.618833
-0.550825
-0.462754
-0.365269
-0.263426
-0.159512
-0.0558927
0.0438484
0.13225
0.184067
0.162644
0.0178107
-0.122468
-0.217096
-0.225527
-0.227004
-0.227323
-0.227236
-0.227045
-0.685229
-0.64955
-0.582287
-0.495398
-0.399727
-0.300385
-0.199826
-0.100739
-0.00698675
0.0742093
0.114645
0.0856853
-0.050256
-0.164455
-0.221681
-0.231785
-0.226431
-0.225394
-0.225025
-0.224854
-0.713609
-0.678785
-0.612851
-0.527624
-0.434262
-0.337915
-0.241174
-0.146983
-0.0595918
0.0148218
0.0504119
0.00734304
-0.105049
-0.196405
-0.219502
-0.22294
-0.223669
-0.223196
-0.222998
-0.222873
-0.738668
-0.70505
-0.641139
-0.55824
-0.46782
-0.375072
-0.282666
-0.19368
-0.112683
-0.0453452
-0.0120879
-0.0597949
-0.146375
-0.21489
-0.236012
-0.226379
-0.22295
-0.221867
-0.221554
-0.221399
-0.757827
-0.726267
-0.665415
-0.585745
-0.499095
-0.410672
-0.323184
-0.239747
-0.164936
-0.104463
-0.0740539
-0.112248
-0.173772
-0.218304
-0.223831
-0.223388
-0.221865
-0.221275
-0.221058
-0.220885
-0.769106
-0.740386
-0.68364
-0.608421
-0.526573
-0.443336
-0.361405
-0.283914
-0.215229
-0.159909
-0.130657
-0.156017
-0.190246
-0.216585
-0.216427
-0.219964
-0.221433
-0.22156
-0.221507
-0.221415
-0.769857
-0.745075
-0.693762
-0.624447
-0.548642
-0.471604
-0.39591
-0.324686
-0.262329
-0.211015
-0.177919
-0.195391
-0.204047
-0.218973
-0.221336
-0.221673
-0.222302
-0.222541
-0.222625
-0.222628
-0.757702
-0.73768
-0.693664
-0.632112
-0.563855
-0.494114
-0.425374
-0.360556
-0.304451
-0.258951
-0.21355
-0.231741
-0.218288
-0.22606
-0.227534
-0.225579
-0.224961
-0.225196
-0.225452
-0.225483
-0.730659
-0.716071
-0.681583
-0.630238
-0.571184
-0.509895
-0.448773
-0.390443
-0.339811
-0.301881
-0.253844
-0.247984
-0.238445
-0.24047
-0.23479
-0.233226
-0.231851
-0.232009
-0.232356
-0.232403
-0.692208
-0.682926
-0.658809
-0.619156
-0.570694
-0.518707
-0.465553
-0.413756
-0.367901
-0.335497
-0.303916
-0.276186
-0.249489
-0.254048
-0.260055
-0.252082
-0.246636
-0.245392
-0.245728
-0.245729
-0.649366
-0.644069
-0.630243
-0.601976
-0.564494
-0.521416
-0.475844
-0.430129
-0.388154
-0.357046
-0.32899
-0.302037
-0.269513
-0.246787
-0.22789
-0.233692
-0.255193
-0.267972
-0.27165
-0.27186
-0.611802
-0.608557
-0.601936
-0.58396
-0.555417
-0.519851
-0.480635
-0.439558
-0.399569
-0.366812
-0.340878
-0.323356
-0.31188
-0.319407
-0.342268
-0.374904
-0.379927
-0.350504
-0.334329
-0.336554
-0.584738
-0.582815
-0.579468
-0.56884
-0.547079
-0.517068
-0.481893
-0.443002
-0.402803
-0.366392
-0.338538
-0.330877
-0.364741
-0.430116
-0.502753
-0.547084
-0.55474
-0.520311
-0.473085
-0.457183
-0.564902
-0.564225
-0.563104
-0.557853
-0.541946
-0.515562
-0.481598
-0.442451
-0.399385
-0.356237
-0.325409
-0.300184
-0.2936
-0.320412
-0.374922
-0.388177
-0.380145
-0.358397
-0.328354
-0.312343
-0.553295
-0.553074
-0.552468
-0.550072
-0.539288
-0.51506
-0.48074
-0.439461
-0.391741
-0.338934
-0.294649
-0.233214
-0.160389
-0.101788
-0.0793842
-0.0669232
-0.0323112
0.00709396
0.042213
0.0595588
-0.545253
-0.545109
-0.544708
-0.544039
-0.537474
-0.515691
-0.480353
-0.435596
-0.382095
-0.317577
-0.25128
-0.166203
-0.0287999
0.139531
0.296695
0.423145
0.515436
0.577482
0.616594
0.632819
-0.539992
-0.539948
-0.53983
-0.539668
-0.535785
-0.517489
-0.481188
-0.432109
-0.372677
-0.297522
-0.212478
-0.116795
0.0677078
0.32988
0.608033
0.854522
1.02821
1.12177
1.15773
1.16819
-0.535725
-0.535716
-0.535636
-0.535519
-0.534118
-0.519755
-0.483359
-0.43057
-0.365511
-0.282919
-0.186561
-0.0828954
0.113734
0.405731
0.724798
1.01734
1.23791
1.35463
1.39481
1.40472
-0.532163
-0.53216
-0.532038
-0.53177
-0.531555
-0.52161
-0.486879
-0.432005
-0.362781
-0.27634
-0.175318
-0.0705881
0.108838
0.384678
0.686646
0.964575
1.17874
1.29719
1.34303
1.35549
-0.529524
-0.529553
-0.529557
-0.529569
-0.529993
-0.523047
-0.491628
-0.436187
-0.365272
-0.278375
-0.179288
-0.0816278
0.067743
0.312817
0.572128
0.804113
0.98909
1.0991
1.14419
1.15603
-0.526774
-0.526917
-0.52726
-0.527887
-0.528412
-0.524699
-0.496665
-0.442728
-0.372631
-0.288126
-0.196109
-0.109636
0.00371472
0.207215
0.424473
0.607673
0.754941
0.84524
0.881793
0.890616
-0.523768
-0.523964
-0.524237
-0.524583
-0.524975
-0.523562
-0.500298
-0.450229
-0.383858
-0.304443
-0.220336
-0.14603
-0.0616828
0.0966579
0.268792
0.408699
0.518703
0.586579
0.612373
0.617525
-0.521686
-0.521773
-0.521611
-0.520937
-0.520137
-0.51915
-0.501671
-0.45824
-0.397932
-0.323693
-0.248725
-0.18535
-0.124086
-0.00376214
0.127004
0.229709
0.307141
0.353671
0.370986
0.373377
-0.522155
-0.522015
-0.521233
-0.519102
-0.515824
-0.513898
-0.503105
-0.467832
-0.412802
-0.344179
-0.278186
-0.224421
-0.177784
-0.0910225
0.00544053
0.0785697
0.132258
0.162172
0.172153
0.173312
-0.526759
-0.526587
-0.525905
-0.52413
-0.520891
-0.518426
-0.511958
-0.481364
-0.42729
-0.36394
-0.306977
-0.259906
-0.221282
-0.156967
-0.0889181
-0.0403198
-0.00668333
0.0118059
0.0175903
0.0184736
-0.533864
-0.53423
-0.535572
-0.539222
-0.544504
-0.54639
-0.536984
-0.499213
-0.44099
-0.383936
-0.33461
-0.290859
-0.260735
-0.212851
-0.161412
-0.127138
-0.105451
-0.0942308
-0.0902937
-0.0899007
-0.537603
-0.538733
-0.542952
-0.555114
-0.574128
-0.582166
-0.565555
-0.512867
-0.453499
-0.40408
-0.356623
-0.317302
-0.291941
-0.255168
-0.215487
-0.188463
-0.170595
-0.161196
-0.157802
-0.157535
-0.536286
-0.537327
-0.541313
-0.552455
-0.573328
-0.587112
-0.561118
-0.510029
-0.462859
-0.419597
-0.373234
-0.33843
-0.319254
-0.28582
-0.249676
-0.225136
-0.208066
-0.198371
-0.195121
-0.195234
-0.538052
-0.538588
-0.539413
-0.533398
-0.515175
-0.502119
-0.501648
-0.486259
-0.46471
-0.426243
-0.383049
-0.354472
-0.338552
-0.308312
-0.273872
-0.24859
-0.229799
-0.218999
-0.215874
-0.216319
-0.546949
-0.546758
-0.543788
-0.519987
-0.466728
-0.42629
-0.439419
-0.464751
-0.462752
-0.427353
-0.387921
-0.364808
-0.349651
-0.319189
-0.28667
-0.262086
-0.243299
-0.232758
-0.229561
-0.230149
-0.565636
-0.563405
-0.559052
-0.540268
-0.500139
-0.464292
-0.470512
-0.494781
-0.479499
-0.430903
-0.390067
-0.368285
-0.352019
-0.320907
-0.289163
-0.266005
-0.249277
-0.240578
-0.237815
-0.23838
-0.622514
-0.622463
-0.638626
-0.662221
-0.668273
-0.644954
-0.61612
-0.574247
-0.508941
-0.434596
-0.389576
-0.363512
-0.341526
-0.312572
-0.284319
-0.262927
-0.248015
-0.240287
-0.23776
-0.238234
-0.729595
-0.740358
-0.774161
-0.812921
-0.826812
-0.805894
-0.752293
-0.655768
-0.533153
-0.434776
-0.382652
-0.346302
-0.321157
-0.293126
-0.266304
-0.247058
-0.234675
-0.228241
-0.226002
-0.226351
-0.808221
-0.822071
-0.85096
-0.878049
-0.889712
-0.869553
-0.803031
-0.670893
-0.525128
-0.421505
-0.357899
-0.315596
-0.292257
-0.264427
-0.238055
-0.219675
-0.207433
-0.201131
-0.199067
-0.199523
-0.793464
-0.802968
-0.822393
-0.842926
-0.853998
-0.837177
-0.766678
-0.61678
-0.476814
-0.380025
-0.310549
-0.274261
-0.253278
-0.22521
-0.199727
-0.181443
-0.16892
-0.162122
-0.160261
-0.160895
-0.68106
-0.689577
-0.705954
-0.724838
-0.737131
-0.72253
-0.651408
-0.517061
-0.401054
-0.30828
-0.24752
-0.222161
-0.203525
-0.177204
-0.15386
-0.136341
-0.123331
-0.116482
-0.115116
-0.116001
-0.495344
-0.505878
-0.525043
-0.547925
-0.563483
-0.547563
-0.475665
-0.377009
-0.290764
-0.217026
-0.178797
-0.15955
-0.145326
-0.124994
-0.105561
-0.0896198
-0.0774801
-0.0715111
-0.0710243
-0.0721402
-0.251303
-0.26306
-0.287458
-0.317307
-0.33368
-0.31689
-0.26515
-0.206435
-0.154474
-0.120066
-0.102085
-0.0884772
-0.0841177
-0.0702157
-0.0573845
-0.0466724
-0.0376663
-0.0336916
-0.0341554
-0.0353452
0.0111416
-0.00728966
-0.0428497
-0.0640685
-0.0703177
-0.0681859
-0.0603527
-0.0479355
-0.035713
-0.0279929
-0.0237963
-0.0183239
-0.0174924
-0.0160691
-0.0120784
-0.0123986
-0.011834
-0.0116507
-0.00974061
-0.00888275
0.103437
0.285301
0.451001
0.590118
0.699202
0.783021
0.851438
0.906853
0.919903
0.917345
0.377517
0.493131
0.601048
0.69343
0.770118
0.832608
0.881531
0.914573
0.932377
0.949516
0.562681
0.639187
0.714698
0.780534
0.836223
0.88224
0.918592
0.946606
0.967754
0.987087
0.700024
0.754556
0.809255
0.858219
0.900411
0.936368
0.966696
0.992249
1.01198
1.03089
0.811852
0.853042
0.893767
0.931976
0.966196
0.996549
1.02318
1.04588
1.06356
1.08167
0.905493
0.939878
0.973665
1.00611
1.03611
1.06336
1.08752
1.10791
1.12342
1.14092
0.991612
1.02277
1.05415
1.08456
1.11289
1.13871
1.16139
1.18002
1.19374
1.21074
1.07716
1.10926
1.14115
1.1719
1.20028
1.22573
1.24757
1.26488
1.27711
1.29361
1.17072
1.20696
1.24144
1.27361
1.30251
1.32762
1.34854
1.36467
1.37617
1.39227
1.2834
1.32411
1.36089
1.39353
1.42179
1.44561
1.4651
1.48027
1.49208
1.50812
1.42479
1.46558
1.5007
1.53009
1.55515
1.57666
1.59508
1.61051
1.62357
1.63949
1.59599
1.62789
1.65483
1.67715
1.69719
1.71585
1.73355
1.75029
1.76517
1.78087
1.78199
1.79916
1.81623
1.83289
1.84897
1.86368
1.87757
1.89202
1.90724
1.92454
1.96535
1.97524
1.9884
1.99937
2.00877
2.01842
2.02901
2.03916
2.04844
2.07411
2.18312
2.17741
2.16446
2.1502
2.14389
2.14958
2.16772
2.19624
2.23
2.26633
2.48595
2.35
2.27047
2.22791
2.21057
2.21457
2.24198
2.29984
2.40749
2.5859
0.895517
0.889215
0.881489
0.87038
0.856817
0.84418
0.833801
0.825816
0.820136
0.816858
0.816575
0.819474
0.82476
0.832157
0.841735
0.853585
0.867161
0.880101
0.889097
0.896641
0.804567
0.810488
0.818565
0.824705
0.827783
0.827285
0.824219
0.820252
0.816704
0.814477
0.814416
0.816741
0.820553
0.825042
0.829175
0.831443
0.830386
0.825762
0.818714
0.810885
0.797786
0.800159
0.803432
0.806214
0.808677
0.810882
0.812085
0.811971
0.811079
0.810336
0.810633
0.812129
0.813977
0.815256
0.815218
0.813779
0.811641
0.809294
0.806323
0.80331
0.792954
0.794043
0.795966
0.798314
0.800201
0.80162
0.802865
0.803896
0.804549
0.805001
0.805651
0.80649
0.807034
0.806974
0.806391
0.805503
0.804197
0.802246
0.800152
0.798679
0.787873
0.788507
0.789642
0.791414
0.793276
0.794893
0.796177
0.797286
0.798331
0.799317
0.800216
0.80085
0.801079
0.800943
0.800462
0.79953
0.798134
0.796548
0.795226
0.794428
0.782876
0.783314
0.78411
0.78543
0.786974
0.788568
0.790085
0.791436
0.792665
0.793857
0.794944
0.795682
0.795972
0.795823
0.795227
0.79428
0.793167
0.792053
0.791168
0.790638
0.77795
0.778276
0.778896
0.779985
0.781308
0.782744
0.78427
0.78581
0.787291
0.788717
0.790026
0.790935
0.791297
0.79116
0.790647
0.78993
0.789135
0.788317
0.787677
0.787289
0.773067
0.77332
0.773821
0.774755
0.775961
0.777313
0.778792
0.780398
0.782084
0.783794
0.785384
0.786502
0.787011
0.787046
0.786769
0.786306
0.785737
0.785156
0.7847
0.784404
0.768153
0.768353
0.768772
0.769599
0.770734
0.772048
0.773525
0.775191
0.77704
0.779027
0.780951
0.782376
0.78316
0.783471
0.783462
0.783247
0.782901
0.782524
0.782212
0.78198
0.763117
0.763278
0.763639
0.764397
0.765493
0.766799
0.768321
0.770091
0.772125
0.774406
0.776729
0.77857
0.779728
0.780372
0.780652
0.780695
0.780585
0.780397
0.780205
0.78002
0.757868
0.757997
0.758317
0.759035
0.760122
0.761466
0.763073
0.764995
0.767273
0.769917
0.772724
0.775078
0.776687
0.777717
0.778328
0.778653
0.778779
0.778779
0.778692
0.778543
0.752307
0.75241
0.752704
0.753407
0.754523
0.755948
0.757687
0.759819
0.762414
0.765515
0.768917
0.771887
0.774027
0.775506
0.776496
0.777131
0.777524
0.77771
0.777713
0.777591
0.746331
0.746411
0.74669
0.747403
0.748583
0.750133
0.752062
0.754473
0.757475
0.761144
0.765272
0.768982
0.771754
0.773759
0.775184
0.776193
0.776867
0.777238
0.777325
0.777223
0.739818
0.739879
0.740152
0.740899
0.742179
0.743903
0.746086
0.748862
0.752374
0.756742
0.761752
0.766353
0.769878
0.772505
0.774434
0.775859
0.776856
0.777432
0.777601
0.777514
0.73263
0.732667
0.732945
0.733748
0.735168
0.737121
0.739635
0.742872
0.747019
0.752245
0.758322
0.763991
0.768412
0.771776
0.774304
0.776208
0.777579
0.778377
0.778625
0.77855
0.724592
0.72461
0.724891
0.725773
0.727377
0.729624
0.732557
0.736374
0.741308
0.747582
0.754948
0.761894
0.767377
0.771608
0.774848
0.77733
0.779126
0.780164
0.78049
0.780422
0.715447
0.715454
0.715762
0.71675
0.718592
0.721212
0.724673
0.729212
0.735118
0.742673
0.751592
0.760058
0.766797
0.772051
0.776128
0.7793
0.781586
0.782886
0.78329
0.783224
0.704932
0.704913
0.705261
0.706399
0.708541
0.711635
0.715761
0.721201
0.728313
0.737433
0.74822
0.758485
0.766702
0.77316
0.778225
0.782192
0.785045
0.786626
0.787103
0.787034
0.692659
0.69262
0.69302
0.694348
0.696872
0.700573
0.705543
0.712121
0.720732
0.731769
0.744798
0.75718
0.76712
0.774976
0.7812
0.786082
0.789572
0.791445
0.791983
0.791905
0.678117
0.678055
0.678536
0.680118
0.683133
0.687621
0.693679
0.701709
0.712204
0.725593
0.741305
0.756162
0.768077
0.777534
0.785099
0.79102
0.795202
0.797357
0.797937
0.797843
0.660582
0.660498
0.661109
0.663048
0.666721
0.672253
0.679746
0.689664
0.702553
0.718838
0.737737
0.755452
0.769606
0.780873
0.789919
0.797003
0.801912
0.804311
0.804901
0.804781
0.639017
0.638916
0.639738
0.642201
0.6468
0.653781
0.663231
0.675664
0.691629
0.711483
0.734131
0.755086
0.771736
0.784994
0.795662
0.803998
0.809599
0.812159
0.812713
0.812562
0.611848
0.611749
0.612927
0.616201
0.622219
0.631318
0.643555
0.659419
0.679365
0.703582
0.730577
0.755132
0.774491
0.78989
0.802285
0.81189
0.818057
0.82064
0.821104
0.820918
0.576521
0.57648
0.578305
0.582991
0.591392
0.603845
0.620201
0.640795
0.665848
0.695305
0.727231
0.75569
0.777906
0.795537
0.809699
0.82048
0.826962
0.82938
0.829702
0.829484
0.528501
0.528699
0.531964
0.539633
0.552497
0.57049
0.592991
0.619989
0.651401
0.68695
0.724303
0.756894
0.782032
0.801883
0.817772
0.829486
0.83588
0.837912
0.838061
0.837827
0.459285
0.460802
0.468784
0.483366
0.504501
0.531346
0.562533
0.597687
0.636597
0.678921
0.722023
0.75884
0.786901
0.808855
0.826216
0.838403
0.844235
0.845702
0.845695
0.845475
0.376555
0.37948
0.395064
0.420341
0.452847
0.490107
0.530656
0.574357
0.621126
0.670717
0.72025
0.762057
0.793762
0.818395
0.837213
0.84925
0.854224
0.855201
0.855144
0.855014
0.291614
0.299229
0.322693
0.358643
0.402104
0.449569
0.499468
0.551736
0.606363
0.663164
0.71905
0.765752
0.800958
0.828216
0.84834
0.859685
0.863284
0.86371
0.863621
0.863547
0.221849
0.231678
0.260115
0.303614
0.355637
0.411707
0.470001
0.530263
0.592332
0.655932
0.717704
0.768832
0.807134
0.836437
0.857142
0.867585
0.870366
0.870613
0.870538
0.870491
0.164476
0.175077
0.20731
0.256387
0.314859
0.377765
0.443058
0.510282
0.57904
0.648867
0.716036
0.771206
0.812286
0.843334
0.864391
0.874078
0.876312
0.87646
0.876398
0.876366
0.116254
0.127234
0.162089
0.215495
0.2792
0.347741
0.418897
0.492094
0.566745
0.642176
0.714269
0.773116
0.816718
0.849331
0.870611
0.879619
0.88148
0.881568
0.881511
0.881487
0.0747637
0.0859118
0.122712
0.179577
0.247631
0.320984
0.397222
0.47566
0.555565
0.636059
0.712635
0.774821
0.820678
0.854613
0.875969
0.884423
0.88603
0.886072
0.886011
0.885987
0.0382881
0.0494917
0.0878069
0.147529
0.219276
0.296799
0.377533
0.460688
0.545389
0.630545
0.711242
0.776432
0.824247
0.859259
0.880578
0.888568
0.89
0.890006
0.889934
0.889905
0.00556546
0.0167826
0.0562918
0.118469
0.193426
0.274616
0.359369
0.44683
0.535985
0.625533
0.710088
0.778002
0.827487
0.863305
0.884481
0.892068
0.893383
0.893371
0.893295
0.89326
-0.024439
-0.0131925
0.0273678
0.0917182
0.169528
0.25398
0.342357
0.433779
0.527122
0.620877
0.709146
0.779602
0.830516
0.866877
0.887759
0.894969
0.896208
0.896208
0.89615
0.896115
-0.0523123
-0.0410279
0.000464863
0.0667692
0.147129
0.23452
0.3262
0.42129
0.518598
0.616452
0.708404
0.781329
0.833491
0.870149
0.890583
0.897408
0.898598
0.898648
0.898638
0.898614
-0.0785518
-0.0672195
-0.0248597
0.0432236
0.125888
0.215944
0.310657
0.409163
0.510254
0.612148
0.70786
0.783302
0.83661
0.873358
0.893198
0.899614
0.900767
0.900899
0.900964
0.900968
-0.103563
-0.0920955
-0.0489291
0.020797
0.105555
0.19803
0.295537
0.397242
0.501947
0.607856
0.707501
0.785638
0.840093
0.87677
0.895887
0.90186
0.902971
0.903197
0.903353
0.903393
-0.127496
-0.115876
-0.0719435
-0.000716487
0.0859457
0.18063
0.280702
0.385394
0.493555
0.603448
0.707264
0.788442
0.844161
0.880645
0.898898
0.904381
0.905434
0.905745
0.905986
0.906067
-0.150567
-0.138743
-0.0940793
-0.0214448
0.0669428
0.163629
0.266053
0.373519
0.484971
0.598808
0.707037
0.791751
0.849031
0.885248
0.902433
0.907307
0.908286
0.908669
0.908967
0.909076
-0.172794
-0.160784
-0.115422
-0.0414684
0.0484723
0.146961
0.25153
0.361556
0.47611
0.593807
0.706667
0.795525
0.854911
0.890893
0.906662
0.910647
0.911501
0.911978
0.912304
0.912414
-0.194303
-0.182062
-0.135987
-0.0608308
0.030486
0.130588
0.237096
0.349468
0.466915
0.588336
0.705979
0.79963
0.861941
0.897973
0.911893
0.914361
0.914831
0.915484
0.915974
0.916109
-0.214975
-0.202588
-0.155814
-0.0795729
0.0129698
0.114518
0.222743
0.337237
0.457351
0.582319
0.704786
0.803851
0.87013
0.906981
0.918823
0.918834
0.918137
0.918958
0.92017
0.920682
-0.234979
-0.222371
-0.174919
-0.0977202
-0.00409367
0.098737
0.208501
0.324868
0.447407
0.575705
0.702914
0.8079
0.879317
0.918272
0.928584
0.925497
0.922431
0.922947
0.925634
0.927455
-0.254209
-0.241377
-0.193328
-0.115263
-0.0206634
0.0832844
0.194401
0.312418
0.437102
0.568438
0.700214
0.811441
0.889148
0.931857
0.942079
0.936408
0.930324
0.929539
0.933646
0.938148
-0.272753
-0.259703
-0.211017
-0.132173
-0.0367368
0.0681909
0.180489
0.299916
0.426475
0.560545
0.696574
0.814094
0.899087
0.947231
0.959305
0.952721
0.944035
0.93974
0.938189
0.933985
-0.290541
-0.277335
-0.22808
-0.14863
-0.0525409
0.0531795
0.166446
0.286986
0.415128
0.551609
0.691617
0.815513
0.909044
0.964594
0.980492
0.974907
0.964468
0.953068
0.940677
0.941391
-0.307571
-0.294372
-0.244549
-0.164592
-0.0680824
0.0382676
0.152277
0.273578
0.402982
0.541425
0.68499
0.814896
0.917799
0.982856
1.00363
0.999892
0.986536
0.972006
0.93502
0.898272
-0.32367
-0.310686
-0.260416
-0.179939
-0.0833819
0.0234302
0.137954
0.259792
0.390048
0.529933
0.676413
0.811495
0.923425
0.999976
1.02593
1.02014
1.00213
0.968125
0.913652
0.861762
-0.341535