/*--------------------------------*- C++ -*----------------------------------*\
  =========                 |
  \\      /  F ield         | OpenFOAM: The Open Source CFD Toolbox
   \\    /   O peration     | Website:  https://openfoam.org
    \\  /    A nd           | Version:  6
     \\/     M anipulation  |
\*---------------------------------------------------------------------------*/
FoamFile
{
    version     2.0;
    format      ascii;
    class       volVectorField;
    location    "27.7";
    object      U;
}
// * * * * * * * * * * * * * * * * * * * * * * * * * * * * * * * * * * * * * //

dimensions      [0 1 -1 0 0 0 0];

internalField   nonuniform List<vector> 
8800
(
(0.98719 -0.0766655 0)
(1.0019 -0.0551885 0)
(0.999752 -0.0285452 0)
(1.00004 -0.0151375 0)
(1.00005 -0.00853327 0)
(1.00003 -0.00503056 0)
(1.00002 -0.00299433 0)
(1.00001 -0.00170921 0)
(1.00001 -0.000824788 0)
(1.00005 -0.000128946 0)
(1 0.000573431 0)
(1.00001 0.0013381 0)
(1.00002 0.00238052 0)
(1.00003 0.00396969 0)
(1.00004 0.0066051 0)
(1.00006 0.011347 0)
(0.999976 0.0207924 0)
(0.999177 0.0386525 0)
(1.00709 0.0724497 0)
(0.771217 0.0366596 0)
(0.363048 -0.0160189 0)
(1.04329 -0.0768269 0)
(1.08461 -0.0704671 0)
(1.04523 -0.0535705 0)
(1.02326 -0.0389188 0)
(1.0119 -0.0262315 0)
(1.00628 -0.0168729 0)
(1.00348 -0.0103755 0)
(1.00209 -0.00577082 0)
(1.00142 -0.00217668 0)
(1.00129 0.00111726 0)
(1.00167 0.00447293 0)
(1.00263 0.00840245 0)
(1.00459 0.0137664 0)
(1.00857 0.0215075 0)
(1.01659 0.0325041 0)
(1.03258 0.0464466 0)
(1.06275 0.0615873 0)
(1.0919 0.0760351 0)
(0.838768 0.0565362 0)
(0.216788 -0.00243111 0)
(1.07586 -0.0501633 0)
(1.09987 -0.0483553 0)
(1.06458 -0.0405184 0)
(1.03988 -0.0336706 0)
(1.02371 -0.0261766 0)
(1.01396 -0.0186442 0)
(1.00843 -0.0118816 0)
(1.00551 -0.0060627 0)
(1.00431 -0.000718629 0)
(1.00468 0.00447472 0)
(1.00661 0.00988429 0)
(1.01061 0.0160166 0)
(1.01794 0.0230821 0)
(1.03056 0.0305766 0)
(1.0507 0.0376381 0)
(1.08048 0.0443539 0)
(1.10643 0.0512076 0)
(0.94281 0.0415477 0)
(0.216345 0.00245122 0)
(0.175092 -0.000816672 0)
(1.01761 -0.0355057 0)
(1.10518 -0.0414189 0)
(1.07821 -0.0361032 0)
(1.05329 -0.0301584 0)
(1.03592 -0.0245887 0)
(1.02372 -0.0189537 0)
(1.01569 -0.0130054 0)
(1.01094 -0.00691941 0)
(1.00883 -0.000694401 0)
(1.00945 0.00548785 0)
(1.01271 0.0114639 0)
(1.01887 0.0173157 0)
(1.02879 0.0229162 0)
(1.04332 0.0282668 0)
(1.06395 0.0338207 0)
(1.09385 0.03988 0)
(1.0938 0.0417239 0)
(0.827833 0.0228053 0)
(0.17435 0.000839608 0)
(0.153876 -0.000609935 0)
(0.956022 -0.0254623 0)
(1.10332 -0.0351531 0)
(1.08748 -0.0327224 0)
(1.0614 -0.0281332 0)
(1.04374 -0.0231579 0)
(1.03129 -0.0179699 0)
(1.02249 -0.0125507 0)
(1.01674 -0.00676016 0)
(1.01402 -0.000420987 0)
(1.01477 0.0059228 0)
(1.01881 0.0117687 0)
(1.02587 0.0170911 0)
(1.03622 0.0221213 0)
(1.05085 0.0269638 0)
(1.07215 0.0315345 0)
(1.10046 0.0355077 0)
(1.06879 0.0336753 0)
(0.740817 0.0141612 0)
(0.152762 0.0006361 0)
(0.139507 -0.000465207 0)
(0.899132 -0.019058 0)
(1.09563 -0.0300622 0)
(1.09549 -0.029139 0)
(1.06881 -0.0253777 0)
(1.0503 -0.0213272 0)
(1.03742 -0.0167933 0)
(1.02838 -0.011777 0)
(1.0224 -0.00621349 0)
(1.01944 -1.67055e-05 0)
(1.02017 0.00619966 0)
(1.02434 0.0117928 0)
(1.03152 0.0167288 0)
(1.04207 0.021158 0)
(1.0573 0.0251309 0)
(1.07962 0.028703 0)
(1.10294 0.0315021 0)
(1.03733 0.0276263 0)
(0.675105 0.0100044 0)
(0.137941 0.000495493 0)
(0.12899 -0.000357829 0)
(0.849631 -0.0146267 0)
(1.08315 -0.0258473 0)
(1.10108 -0.0262285 0)
(1.07554 -0.0230643 0)
(1.05641 -0.0195177 0)
(1.04303 -0.0154189 0)
(1.03365 -0.0106793 0)
(1.02737 -0.00538177 0)
(1.02419 0.000499316 0)
(1.02489 0.00637667 0)
(1.02914 0.0116028 0)
(1.03647 0.0161946 0)
(1.04736 0.0201961 0)
(1.06311 0.0236108 0)
(1.08592 0.0265999 0)
(1.10236 0.0284058 0)
(1.00329 0.0228842 0)
(0.624468 0.00756061 0)
(0.126877 0.000393398 0)
(0.121024 -0.000275077 0)
(0.807827 -0.0113892 0)
(1.06782 -0.0220669 0)
(1.10424 -0.0233142 0)
(1.08141 -0.0205336 0)
(1.06201 -0.0172976 0)
(1.04832 -0.013676 0)
(1.03855 -0.00942637 0)
(1.03202 -0.00450826 0)
(1.02868 0.00111245 0)
(1.02923 0.00672441 0)
(1.03345 0.0115327 0)
(1.04096 0.0155518 0)
(1.05212 0.0189019 0)
(1.06807 0.0218115 0)
(1.09109 0.0245186 0)
(1.09894 0.0255831 0)
(0.969443 0.0190702 0)
(0.584458 0.00592944 0)
(0.118246 0.00031761 0)
(0.11493 -0.000208103 0)
(0.773029 -0.00888077 0)
(1.05131 -0.0186692 0)
(1.1066 -0.0206464 0)
(1.08703 -0.018178 0)
(1.06705 -0.0151035 0)
(1.05311 -0.0117638 0)
(1.04318 -0.00786562 0)
(1.03642 -0.00330638 0)
(1.03283 0.00188924 0)
(1.03321 0.00699277 0)
(1.03742 0.0113356 0)
(1.04493 0.0148497 0)
(1.0561 0.0177585 0)
(1.0724 0.0203387 0)
(1.0954 0.0227832 0)
(1.09326 0.0231153 0)
(0.937193 0.0159457 0)
(0.552241 0.00474467 0)
(0.111344 0.000259441 0)
(0.110304 -0.000154705 0)
(0.744468 -0.0068606 0)
(1.0344 -0.0154813 0)
(1.10764 -0.0180169 0)
(1.09213 -0.0160792 0)
(1.07191 -0.0132358 0)
(1.05773 -0.00998363 0)
(1.04768 -0.00621828 0)
(1.04073 -0.0019716 0)
(1.0369 0.0028057 0)
(1.03708 0.00744299 0)
(1.04114 0.0112437 0)
(1.04853 0.0143397 0)
(1.05969 0.0169562 0)
(1.07625 0.0192592 0)
(1.09825 0.0212274 0)
(1.08525 0.0207537 0)
(0.907308 0.0133597 0)
(0.525967 0.00385486 0)
(0.105733 0.000217189 0)
(0.106873 -0.000107854 0)
(0.72157 -0.00515826 0)
(1.01847 -0.0124957 0)
(1.10782 -0.0151759 0)
(1.09683 -0.0135147 0)
(1.07653 -0.0109085 0)
(1.06215 -0.00792632 0)
(1.05186 -0.00440964 0)
(1.04471 -0.000472008 0)
(1.04063 0.00390967 0)
(1.04055 0.00811401 0)
(1.04436 0.0114469 0)
(1.05167 0.0140531 0)
(1.06289 0.0161987 0)
(1.07952 0.0180098 0)
(1.09977 0.0195131 0)
(1.07586 0.0184732 0)
(0.88037 0.0111952 0)
(0.504419 0.00315768 0)
(0.101094 0.000183947 0)
(0.104479 -6.5096e-05 0)
(0.703779 -0.00363881 0)
(1.00407 -0.00962075 0)
(1.1074 -0.0123064 0)
(1.10116 -0.0108233 0)
(1.08059 -0.00830378 0)
(1.06577 -0.00562046 0)
(1.05518 -0.00246286 0)
(1.04782 0.00119777 0)
(1.04352 0.00522887 0)
(1.04305 0.0089443 0)
(1.04653 0.0117813 0)
(1.05367 0.0137682 0)
(1.06497 0.0152365 0)
(1.08197 0.0166832 0)
(1.10036 0.0179088 0)
(1.06555 0.0163578 0)
(0.856368 0.0093549 0)
(0.486672 0.00260071 0)
(0.097214 0.000160175 0)
(0.103017 -2.69585e-05 0)
(0.69088 -0.00221818 0)
(0.991839 -0.00676303 0)
(1.10654 -0.00931275 0)
(1.10515 -0.00822779 0)
(1.08464 -0.00600387 0)
(1.06967 -0.00333131 0)
(1.05901 -0.00019064 0)
(1.05129 0.00323752 0)
(1.04648 0.00687924 0)
(1.04568 0.0101136 0)
(1.04892 0.0124159 0)
(1.05577 0.0140076 0)
(1.06681 0.0152019 0)
(1.0839 0.0160356 0)
(1.1 0.0165192 0)
(1.05455 0.01429 0)
(0.835421 0.00772377 0)
(0.472188 0.00214435 0)
(0.0939145 0.000143728 0)
(0.102474 1.26389e-05 0)
(0.682631 -0.000837162 0)
(0.982121 -0.00390349 0)
(1.10511 -0.00609651 0)
(1.10831 -0.00530795 0)
(1.08839 -0.0032867 0)
(1.07322 -0.000713849 0)
(1.0623 0.00223671 0)
(1.05443 0.00546073 0)
(1.04931 0.00887349 0)
(1.04788 0.0117286 0)
(1.05047 0.0134788 0)
(1.0569 0.0143809 0)
(1.06784 0.0148669 0)
(1.08469 0.0152358 0)
(1.09803 0.0151663 0)
(1.04306 0.0123513 0)
(0.817406 0.00631587 0)
(0.460511 0.00176387 0)
(0.0911006 0.000128038 0)
(0.102891 6.7602e-05 0)
(0.678833 0.000378241 0)
(0.97538 -0.00119533 0)
(1.10395 -0.00274189 0)
(1.11117 -0.00189908 0)
(1.09181 1.64165e-05 0)
(1.07646 0.00243996 0)
(1.06524 0.00526979 0)
(1.05688 0.00829085 0)
(1.05115 0.0113374 0)
(1.04906 0.0136694 0)
(1.05113 0.0147596 0)
(1.05723 0.0150446 0)
(1.06785 0.0149662 0)
(1.08437 0.0146906 0)
(1.09509 0.013992 0)
(1.03162 0.0107978 0)
(0.802071 0.00530452 0)
(0.451076 0.00152064 0)
(0.0887413 0.000114129 0)
(0.10421 0.000100522 0)
(0.678956 0.00131185 0)
(0.971696 0.00099183 0)
(1.10353 0.000100116 0)
(1.11413 0.000969836 0)
(1.09535 0.00288531 0)
(1.07991 0.00546542 0)
(1.06859 0.0084168 0)
(1.05996 0.0115047 0)
(1.05361 0.0143566 0)
(1.05064 0.016231 0)
(1.05181 0.0168983 0)
(1.05708 0.0167121 0)
(1.06724 0.0160015 0)
(1.08336 0.0152825 0)
(1.09099 0.0139625 0)
(1.02011 0.0102115 0)
(0.788527 0.00503933 0)
(0.44263 0.001542 0)
(0.0865588 0.000118735 0)
(0.10616 0.000132473 0)
(0.681764 0.00200673 0)
(0.97082 0.00284609 0)
(1.1038 0.00260875 0)
(1.11711 0.00359767 0)
(1.0989 0.00561524 0)
(1.08333 0.00848455 0)
(1.07163 0.0117577 0)
(1.06233 0.0151102 0)
(1.05504 0.0180618 0)
(1.05113 0.0198015 0)
(1.05144 0.0200751 0)
(1.05605 0.0193346 0)
(1.06559 0.0181634 0)
(1.08117 0.016793 0)
(1.08563 0.0147235 0)
(1.00834 0.0105016 0)
(0.775668 0.00541476 0)
(0.433856 0.00176148 0)
(0.0841975 0.00013811 0)
(0.108773 0.000170538 0)
(0.687334 0.00276042 0)
(0.972709 0.00449852 0)
(1.10515 0.00530392 0)
(1.12041 0.00660243 0)
(1.10296 0.00893499 0)
(1.08744 0.0122343 0)
(1.07542 0.0159209 0)
(1.06543 0.0196031 0)
(1.05707 0.0226747 0)
(1.0518 0.0242075 0)
(1.05089 0.0239542 0)
(1.05448 0.0226095 0)
(1.06332 0.0208139 0)
(1.07791 0.0187957 0)
(1.07909 0.0161068 0)
(0.996184 0.011497 0)
(0.762378 0.00625025 0)
(0.423818 0.00208901 0)
(0.0814055 0.000166495 0)
(0.112161 0.000219192 0)
(0.695441 0.00362602 0)
(0.977472 0.00629202 0)
(1.10858 0.00825447 0)
(1.12465 0.0104899 0)
(1.10774 0.0135803 0)
(1.09203 0.0174411 0)
(1.07941 0.0215663 0)
(1.06843 0.0254379 0)
(1.05872 0.0284087 0)
(1.05182 0.0294281 0)
(1.04954 0.0285104 0)
(1.05205 0.0264623 0)
(1.05991 0.0239128 0)
(1.07359 0.0212434 0)
(1.07167 0.0180637 0)
(0.983605 0.0132468 0)
(0.747437 0.00738483 0)
(0.411983 0.00248772 0)
(0.0780627 0.000201558 0)
(0.116551 0.000286412 0)
(0.706359 0.00481585 0)
(0.985212 0.00844202 0)
(1.1147 0.0114211 0)
(1.13086 0.0147856 0)
(1.11369 0.0189655 0)
(1.09739 0.0237153 0)
(1.08386 0.028429 0)
(1.07154 0.0326273 0)
(1.06007 0.0354708 0)
(1.05127 0.0358352 0)
(1.04744 0.0340014 0)
(1.04874 0.0310396 0)
(1.05575 0.0279597 0)
(1.06839 0.0248244 0)
(1.06367 0.0213408 0)
(0.969523 0.0157505 0)
(0.729872 0.00866352 0)
(0.398108 0.00292088 0)
(0.0740803 0.000239699 0)
(0.122308 0.000381021 0)
(0.720944 0.0064607 0)
(0.995498 0.0113063 0)
(1.12309 0.014934 0)
(1.13908 0.0191064 0)
(1.12127 0.0244004 0)
(1.10384 0.0302565 0)
(1.08893 0.0359187 0)
(1.07493 0.0409234 0)
(1.06122 0.0441946 0)
(1.05016 0.0444858 0)
(1.04443 0.0421669 0)
(1.04437 0.0384403 0)
(1.05078 0.0343698 0)
(1.06259 0.0305394 0)
(1.05404 0.0261062 0)
(0.951864 0.0186849 0)
(0.709316 0.0100458 0)
(0.382073 0.00342178 0)
(0.0694013 0.000281974 0)
(0.129913 0.000516685 0)
(0.740376 0.00878545 0)
(1.00864 0.0152993 0)
(1.13293 0.0195285 0)
(1.14874 0.0240894 0)
(1.13054 0.0303668 0)
(1.11176 0.0373819 0)
(1.09524 0.0445216 0)
(1.07909 0.050828 0)
(1.06268 0.0549749 0)
(1.04896 0.0555661 0)
(1.04102 0.0530738 0)
(1.03915 0.0489397 0)
(1.04421 0.0440876 0)
(1.05439 0.0388461 0)
(1.03984 0.031657 0)
(0.929579 0.0216311 0)
(0.685895 0.0116503 0)
(0.363561 0.00401772 0)
(0.0639313 0.000329398 0)
(0.140217 0.00073219 0)
(0.766526 0.0121865 0)
(1.02631 0.0210875 0)
(1.14413 0.0265373 0)
(1.15955 0.0315798 0)
(1.1412 0.0386664 0)
(1.12164 0.0471242 0)
(1.10318 0.0559143 0)
(1.08421 0.063472 0)
(1.0645 0.0682348 0)
(1.04766 0.0686673 0)
(1.03719 0.0655404 0)
(1.03306 0.0605159 0)
(1.03588 0.054442 0)
(1.04197 0.0468909 0)
(1.01976 0.0368526 0)
(0.903551 0.0248456 0)
(0.659441 0.0136673 0)
(0.341982 0.00473565 0)
(0.0575809 0.000381021 0)
(0.154505 0.00107722 0)
(0.801603 0.0172118 0)
(1.051 0.0292353 0)
(1.15831 0.0368167 0)
(1.1717 0.0432413 0)
(1.15396 0.0519318 0)
(1.13344 0.0620265 0)
(1.11232 0.071984 0)
(1.08976 0.0800346 0)
(1.06607 0.0844021 0)
(1.0456 0.0835887 0)
(1.03219 0.0788122 0)
(1.02534 0.0719649 0)
(1.02464 0.0638563 0)
(1.02493 0.0539843 0)
(0.995757 0.0420233 0)
(0.875072 0.0288814 0)
(0.629259 0.0162225 0)
(0.316665 0.00556845 0)
(0.0502563 0.000433618 0)
(0.174942 0.00168753 0)
(0.848687 0.0250698 0)
(1.08563 0.0411776 0)
(1.17827 0.0521066 0)
(1.18742 0.0616434 0)
(1.16911 0.0724385 0)
(1.14648 0.0837595 0)
(1.1217 0.0939488 0)
(1.09474 0.101247 0)
(1.06642 0.103814 0)
(1.04186 0.100437 0)
(1.02504 0.0929521 0)
(1.01502 0.0835423 0)
(1.01014 0.0730121 0)
(1.00482 0.0613722 0)
(0.969798 0.0484513 0)
(0.843817 0.034197 0)
(0.594081 0.0193877 0)
(0.287094 0.00651427 0)
(0.0419751 0.000482271 0)
(0.204868 0.00304627 0)
(0.913454 0.0385114 0)
(1.13333 0.0605916 0)
(1.20598 0.0752329 0)
(1.20805 0.0888477 0)
(1.1862 0.101513 0)
(1.15962 0.113122 0)
(1.13007 0.122248 0)
(1.09803 0.127387 0)
(1.0646 0.126767 0)
(1.03561 0.119691 0)
(1.01515 0.108808 0)
(1.00171 0.0965214 0)
(0.992874 0.0837196 0)
(0.982889 0.0707715 0)
(0.942179 0.0571028 0)
(0.808245 0.0410266 0)
(0.55275 0.0231792 0)
(0.253445 0.00758627 0)
(0.0329924 0.000521153 0)
(0.246118 0.00933744 1.31722e-20)
(0.999271 0.065399 1.12284e-20)
(1.19119 0.093767 -3.87449e-21)
(1.24017 0.110774 0)
(1.23153 0.127579 -9.35274e-35)
(1.20351 0.140424 1.35413e-21)
(1.17135 0.150778 -2.37176e-21)
(1.13618 0.157535 0)
(1.09858 0.159458 4.72535e-35)
(1.0596 0.154839 -2.80268e-21)
(1.02569 0.14354 0)
(1.00112 0.12908 -3.26869e-21)
(0.983837 0.113987 -9.60253e-21)
(0.971115 0.0993202 -4.52348e-21)
(0.956953 0.0855523 -1.35688e-21)
(0.90965 0.0712888 -8.05287e-22)
(0.763695 0.0520698 0)
(0.501381 0.0294163 5.66552e-22)
(0.215864 0.0103344 6.71589e-22)
(0.0246855 0.00102132 1.2227e-20)
(0.273465 0.0249366 1.05745e-20)
(1.06984 0.108151 1.03066e-22)
(1.23922 0.141554 1.07858e-21)
(1.27242 0.160202 0)
(1.25325 0.176226 -4.89151e-21)
(1.21861 0.187736 -5.4627e-21)
(1.18037 0.196196 -2.42823e-21)
(1.13914 0.200573 -8.43651e-21)
(1.09545 0.199444 0)
(1.05014 0.191144 1.19722e-20)
(1.01011 0.175979 1.17674e-20)
(0.980198 0.15833 3.47983e-21)
(0.958105 0.140844 1.25704e-20)
(0.940856 0.12445 1.75393e-20)
(0.921115 0.109079 0)
(0.867081 0.0929955 2.47613e-20)
(0.711038 0.069633 3.568e-20)
(0.449824 0.0411279 3.97663e-20)
(0.185176 0.0160261 -4.57009e-20)
(0.0187139 0.00164131 -8.67315e-22)
(0.273254 0.0410977 0)
(1.11404 0.163846 2.05934e-21)
(1.27335 0.200758 0)
(1.29758 0.219518 -7.01286e-21)
(1.27049 0.232412 0)
(1.22989 0.240788 -1.09961e-20)
(1.18582 0.246042 5.02397e-21)
(1.13875 0.247081 -1.72302e-20)
(1.08916 0.242416 -3.16697e-22)
(1.03785 0.230232 6.25238e-21)
(0.992187 0.211481 2.58775e-20)
(0.95751 0.191155 -6.248e-23)
(0.931393 0.171965 -9.14046e-21)
(0.910585 0.154487 -1.6575e-20)
(0.887542 0.138393 1.96348e-20)
(0.831988 0.120287 -3.48685e-20)
(0.680948 0.0923214 -4.6404e-21)
(0.434419 0.0578463 0)
(0.187791 0.0248 6.94026e-24)
(0.0212062 0.00292824 0)
(0.266062 0.0549478 3.27341e-20)
(1.13699 0.22303 -1.50248e-20)
(1.29515 0.265005 -1.04058e-20)
(1.31416 0.283511 3.46034e-21)
(1.28163 0.292757 -5.72531e-21)
(1.23638 0.297344 2.32122e-20)
(1.1874 0.298793 1.05751e-20)
(1.13526 0.295976 0)
(1.08044 0.287402 -3.18984e-20)
(1.02365 0.271275 0)
(0.972978 0.249042 -1.36617e-20)
(0.934242 0.226278 -1.6671e-20)
(0.904919 0.20564 -9.96622e-21)
(0.881543 0.187244 -1.20459e-20)
(0.85675 0.170228 0)
(0.802868 0.150682 0)
(0.664425 0.119532 -3.04178e-20)
(0.437524 0.0794086 6.02706e-21)
(0.201369 0.0367142 -3.54139e-21)
(0.0264854 0.00511744 -4.19283e-21)
(0.258436 0.0673387 -1.71191e-20)
(1.1463 0.282016 0)
(1.3074 0.330358 2.33498e-20)
(1.32315 0.348694 1.02247e-20)
(1.28674 0.354446 1.29015e-20)
(1.23797 0.355234 0)
(1.18512 0.352798 1.05825e-20)
(1.12877 0.346046 1.9278e-20)
(1.06946 0.333498 1.64936e-20)
(1.00798 0.313356 2.94504e-20)
(0.952988 0.287699 0)
(0.910886 0.262613 -3.59763e-20)
(0.879036 0.24048 -2.15396e-20)
(0.853759 0.22133 -1.26957e-20)
(0.828026 0.203679 7.76601e-20)
(0.777261 0.183191 9.29439e-21)
(0.652421 0.149229 4.39999e-20)
(0.444446 0.102767 -2.09436e-19)
(0.215372 0.0505923 1.24377e-19)
(0.0316979 0.00778537 -1.51834e-19)
(0.25157 0.0785352 -1.32013e-20)
(1.1472 0.339006 3.24181e-21)
(1.31275 0.395169 -3.02051e-21)
(1.32612 0.413339 -1.19739e-20)
(1.28683 0.415809 -1.18366e-20)
(1.2353 0.412974 3.44694e-22)
(1.17936 0.406799 -1.144e-20)
(1.11954 0.396238 2.01003e-20)
(1.05645 0.379803 -3.54867e-20)
(0.990964 0.355711 0)
(0.932382 0.326625 -1.63864e-20)
(0.887565 0.299151 -3.14854e-22)
(0.853759 0.275508 -2.34888e-20)
(0.827129 0.255489 0)
(0.801077 0.237393 -1.67866e-20)
(0.753481 0.215875 -4.00521e-20)
(0.640543 0.17984 1.07984e-19)
(0.447876 0.126932 -1.06779e-19)
(0.225 0.0647961 1.52034e-19)
(0.0356326 0.0105698 -1.60014e-19)
(0.246072 0.0890062 -1.05702e-22)
(1.14299 0.393375 -2.59612e-21)
(1.313 0.458428 -1.08574e-20)
(1.32445 0.47637 5.52991e-21)
(1.28294 0.475882 -6.08384e-21)
(1.22924 0.469657 0)
(1.17077 0.459971 -1.10241e-20)
(1.10803 0.445805 -2.11401e-20)
(1.0417 0.425637 -1.85426e-20)
(0.972751 0.397678 0)
(0.911127 0.365156 -1.70547e-20)
(0.864139 0.335207 -2.08698e-20)
(0.828885 0.309926 2.53963e-20)
(0.801403 0.288833 -1.53455e-20)
(0.775394 0.270106 -7.29173e-20)
(0.730725 0.247602 4.36804e-20)
(0.627017 0.209451 1.32219e-20)
(0.445673 0.149904 0)
(0.227771 0.0776378 -1.46261e-19)
(0.0374863 0.0129581 -5.42829e-21)
(0.241931 0.0990423 -1.23633e-21)
(1.13578 0.444994 2.2187e-21)
(1.30938 0.519133 5.54135e-21)
(1.31924 0.537131 1.86225e-20)
(1.276 0.534033 -2.37604e-20)
(1.22056 0.524739 2.42353e-20)
(1.15998 0.51182 2.36715e-20)
(1.09475 0.494274 -3.37882e-20)
(1.02557 0.470567 1.11543e-20)
(0.953541 0.438841 -7.23046e-20)
(0.889185 0.402859 -1.9125e-20)
(0.840414 0.37023 0)
(0.804127 0.343097 2.74431e-20)
(0.776214 0.320716 3.27158e-20)
(0.750572 0.301041 3.91074e-20)
(0.708374 0.277353 -4.71998e-20)
(0.611288 0.236539 -1.40384e-20)
(0.437984 0.169964 1.66033e-20)
(0.225324 0.0879166 0)
(0.0375177 0.0147262 -1.17225e-20)
(0.238951 0.108741 8.53197e-21)
(1.12709 0.493916 -7.12904e-21)
(1.30304 0.577091 -5.55742e-21)
(1.31141 0.595301 1.21966e-20)
(1.26676 0.589883 -1.14922e-20)
(1.20991 0.577835 -8.03815e-22)
(1.14755 0.561998 -2.56859e-20)
(1.08015 0.541355 -1.21776e-20)
(1.00842 0.514316 -3.21081e-20)
(0.933552 0.478968 4.35389e-23)
(0.866731 0.439471 -5.99667e-20)
(0.816327 0.404023 4.98273e-20)
(0.779276 0.374645 -2.9957e-20)
(0.751179 0.35064 3.58241e-20)
(0.725995 0.329684 0)
(0.685715 0.304409 -2.5441e-20)
(0.593304 0.260384 -1.97636e-22)
(0.425564 0.186591 -7.18621e-20)
(0.218337 0.0954277 -1.06355e-20)
(0.0361543 0.0158064 0)
(0.237001 0.118284 0)
(1.11772 0.540379 -6.90405e-21)
(1.29474 0.63223 -9.5813e-21)
(1.30168 0.650718 -1.20745e-20)
(1.25587 0.643233 -1.3519e-20)
(1.19786 0.628745 0)
(1.13397 0.610298 -1.21688e-20)
(1.06466 0.586846 -2.41628e-22)
(0.990611 0.556737 6.86751e-20)
(0.913074 0.517926 -9.96988e-21)
(0.843872 0.474934 -4.319e-20)
(0.791983 0.436441 2.6005e-20)
(0.754223 0.404631 -4.02268e-22)
(0.726025 0.378666 3.80781e-20)
(0.70128 0.356056 2.33851e-20)
(0.662448 0.32875 -5.48761e-20)
(0.57301 0.280704 6.53907e-20)
(0.409182 0.199693 1.94192e-20)
(0.207627 0.100278 8.05056e-20)
(0.0336134 0.0161613 -2.17947e-19)
(0.235931 0.127788 2.9215e-22)
(1.10825 0.584531 -2.02075e-21)
(1.28513 0.684573 2.64053e-21)
(1.29064 0.703318 1.12294e-20)
(1.24384 0.693982 0)
(1.18483 0.677345 -1.21888e-20)
(1.11964 0.656588 4.02415e-20)
(1.04862 0.630623 2.6818e-20)
(0.97243 0.59773 0)
(0.892325 0.555682 -1.42521e-19)
(0.820747 0.509216 1.16354e-19)
(0.767309 0.467551 0)
(0.728774 0.43299 3.4796e-20)
(0.700481 0.404762 -4.01134e-22)
(0.676117 0.380156 -7.45818e-20)
(0.638216 0.350343 2.92641e-20)
(0.550562 0.297562 0)
(0.389663 0.209114 1.04547e-19)
(0.194149 0.10271 0)
(0.0303572 0.0159081 -1.02852e-19)
(0.235559 0.137259 3.87132e-22)
(1.09899 0.626519 -4.97232e-22)
(1.27463 0.734139 3.16669e-21)
(1.27873 0.753108 0)
(1.23107 0.742119 -1.28834e-20)
(1.17122 0.72359 0)
(1.10489 0.700794 -4.05309e-20)
(1.03234 0.672611 -1.28287e-20)
(0.954132 0.63724 1.22392e-20)
(0.871507 0.592215 -7.04147e-20)
(0.797395 0.54238 1.20627e-20)
(0.742195 0.4974 0)
(0.702863 0.45987 -7.42852e-20)
(0.674405 0.42907 4.11994e-22)
(0.65031 0.402133 0)
(0.612825 0.369322 4.70062e-22)
(0.525873 0.311089 9.48259e-20)
(0.367244 0.214927 -9.03007e-20)
(0.178542 0.102693 2.67529e-20)
(0.026612 0.0150754 0)
(0.235546 0.146584 0)
(1.09012 0.666418 7.73714e-22)
(1.26364 0.781015 -1.46535e-21)
(1.26631 0.800144 -4.57422e-22)
(1.2179 0.787669 -5.48677e-21)
(1.15733 0.767483 -2.72689e-20)
(1.09 0.7429 1.4929e-20)
(1.01605 0.712781 -1.47742e-20)
(0.935936 0.675237 5.41112e-20)
(0.85076 0.627535 -1.12271e-19)
(0.773958 0.574499 -6.66911e-22)
(0.71684 0.526172 -3.28014e-20)
(0.676445 0.485402 1.20278e-19)
(0.647718 0.451751 -4.87192e-22)
(0.623753 0.422166 -5.77218e-20)
(0.58619 0.385812 -1.03401e-19)
(0.498898 0.321419 0)
(0.342333 0.217347 0)
(0.161235 0.100219 2.88816e-20)
(0.0225654 0.0137318 -1.71287e-20)
(0.235999 0.155865 2.17903e-21)
(1.08176 0.704122 -3.25322e-21)
(1.25238 0.825292 1.47339e-21)
(1.25363 0.844489 0)
(1.20458 0.83068 -3.20559e-22)
(1.1434 0.809046 -2.63709e-20)
(1.07519 0.782912 3.6982e-20)
(0.99997 0.751124 5.91242e-20)
(0.918026 0.71172 7.05261e-20)
(0.830302 0.661693 -9.17774e-20)
(0.750669 0.605699 -9.9475e-20)
(0.691266 0.554014 8.76696e-20)
(0.649518 0.509801 0)
(0.620338 0.472997 -2.62089e-20)
(0.596367 0.44038 -6.24595e-20)
(0.558266 0.399843 -7.42512e-20)
(0.469782 0.328367 -8.85912e-20)
(0.315186 0.216265 2.63106e-20)
(0.142464 0.0952716 -1.55364e-20)
(0.0182306 0.0118756 7.13603e-23)
(0.236638 0.164898 0)
(1.07391 0.740133 0)
(1.24103 0.867047 5.39856e-22)
(1.24091 0.886227 0)
(1.1913 0.871234 1.5622e-20)
(1.1296 0.848334 1.90702e-20)
(1.06065 0.820854 0)
(0.98427 0.787654 7.19023e-21)
(0.9006 0.746699 1.1789e-19)
(0.810339 0.69472 -2.10627e-19)
(0.727641 0.636085 0)
(0.665568 0.581123 -5.62843e-20)
(0.62208 0.53329 -5.95167e-22)
(0.592198 0.492973 -4.86938e-22)
(0.568059 0.456834 6.67414e-20)
(0.528997 0.411331 -8.32549e-23)
(0.438639 0.331862 -1.90796e-19)
(0.28584 0.211513 5.66787e-20)
(0.122669 0.0880261 1.68204e-20)
(0.0138671 0.00964931 0)
(0.237268 0.173746 -1.30034e-20)
(1.06635 0.774417 -4.60234e-21)
(1.22971 0.906363 -1.91592e-21)
(1.22831 0.92546 -1.04934e-20)
(1.17823 0.909396 2.44363e-20)
(1.1161 0.885401 0)
(1.0465 0.856771 2.29796e-20)
(0.969093 0.822396 -1.5817e-20)
(0.883801 0.78019 7.73393e-22)
(0.79101 0.726638 1.541e-20)
(0.705038 0.665742 1.28515e-19)
(0.639921 0.607713 -1.97663e-20)
(0.594177 0.556135 -7.39761e-20)
(0.563183 0.511877 -3.05082e-20)
(0.53867 0.47149 3.6337e-20)
(0.498339 0.42003 -5.63628e-23)
(0.405817 0.331624 5.15393e-20)
(0.25501 0.20313 -1.22016e-19)
(0.102632 0.0788822 1.44927e-19)
(0.0096508 0.00719264 2.13856e-20)
(0.237638 0.182299 5.54227e-21)
(1.05912 0.80705 -3.01775e-21)
(1.21854 0.943348 1.2599e-21)
(1.21593 0.962304 -3.06928e-21)
(1.16546 0.94527 -3.8485e-21)
(1.10298 0.920313 -3.42661e-20)
(1.03286 0.890706 7.10568e-21)
(0.95454 0.855366 -6.61893e-20)
(0.86774 0.812189 -1.30192e-19)
(0.77245 0.757454 -1.25527e-19)
(0.683071 0.694746 0)
(0.614475 0.633951 -8.62996e-20)
(0.565881 0.578669 1.0636e-19)
(0.533134 0.529974 0)
(0.507888 0.484287 -7.77796e-20)
(0.466127 0.425477 4.67261e-20)
(0.371593 0.327163 -5.53951e-20)
(0.223807 0.191212 -6.58265e-20)
(0.0833052 0.0683688 -1.169e-19)
(0.0058364 0.00470132 -9.23048e-20)
(0.238312 0.19065 -6.87673e-21)
(1.05205 0.83801 3.24608e-21)
(1.20759 0.978068 6.29983e-21)
(1.20386 0.996841 -2.23749e-21)
(1.15309 0.978939 8.87469e-21)
(1.09034 0.95315 -1.97646e-20)
(1.01979 0.922706 2.33292e-20)
(0.940681 0.886604 -6.84424e-20)
(0.852491 0.842718 -7.70888e-20)
(0.754796 0.787188 1.31322e-19)
(0.661889 0.723145 2.81594e-19)
(0.58943 0.659995 0)
(0.537309 0.601193 0)
(0.501888 0.547699 -3.51198e-20)
(0.475159 0.495252 0)
(0.431862 0.426853 1.00734e-19)
(0.336384 0.317385 1.19499e-19)
(0.193767 0.175479 0)
(0.0660741 0.0570334 0)
(0.00265855 0.00238568 9.93786e-20)
(0.238587 0.19847 8.4979e-21)
(1.04517 0.867292 6.53127e-21)
(1.19691 1.01064 4.90934e-21)
(1.19215 1.0292 -5.96348e-22)
(1.14115 1.0105 7.92154e-21)
(1.07822 0.983979 2.21277e-20)
(1.00735 0.95283 -3.22644e-20)
(0.927572 0.916138 7.58432e-23)
(0.838131 0.87178 -1.00242e-21)
(0.738146 0.815827 -1.18868e-21)
(0.641664 0.750959 1.44905e-19)
(0.564996 0.68594 0)
(0.508696 0.623982 1.07144e-19)
(0.469382 0.56563 7.47782e-20)
(0.439695 0.504806 1.81597e-19)
(0.394293 0.423258 5.41824e-20)
(0.300189 0.299938 -6.46597e-20)
(0.167938 0.153961 -3.80775e-20)
(0.0551821 0.0446686 0)
(0.00108627 0.00051107 1.06959e-19)
(0.239177 0.20626 -2.06059e-20)
(1.03847 0.895025 0)
(1.18652 1.04111 7.28006e-21)
(1.18084 1.05944 -1.59473e-21)
(1.12971 1.04004 -6.03529e-21)
(1.06665 1.01288 -2.6767e-20)
(0.995578 0.981131 6.43183e-20)
(0.915243 0.944002 -5.54321e-21)
(0.824691 0.899385 0)
(0.722568 0.843329 -1.45038e-19)
(0.622562 0.778182 -3.14678e-19)
(0.541415 0.711842 1.27006e-20)
(0.480358 0.647233 1.47008e-19)
(0.435749 0.584424 0)
(0.400682 0.514037 1.22248e-19)
(0.351015 0.414737 0)
(0.260084 0.271345 0)
(0.148704 0.116817 -4.14024e-20)
(0.0712549 0.0184615 0)
(0.0241581 0.00585493 2.87064e-20)
(0.239294 0.213424 -2.41761e-20)
(1.03193 0.921461 0)
(1.17641 1.0697 1.33719e-20)
(1.16989 1.08782 0)
(1.11871 1.06782 2.13134e-21)
(1.05557 1.04014 0)
(0.984398 1.00792 3.4751e-21)
(0.903602 0.970535 9.44789e-21)
(0.812057 0.9259 9.64235e-21)
(0.707912 0.87008 -1.5937e-19)
(0.604456 0.805259 9.50195e-21)
(0.518527 0.738267 1.01755e-19)
(0.452088 0.671519 1.43223e-19)
(0.400549 0.605029 1.92595e-20)
(0.356741 0.525001 9.55081e-20)
(0.298115 0.403792 0)
(0.205224 0.232974 1.36986e-19)
(0.107849 0.0571124 -8.0813e-20)
(0.0366226 0.0590809 9.43259e-20)
(-0.0367329 0.438074 -1.11963e-19)
(0.239321 0.220359 2.07068e-20)
(1.02534 0.946476 2.95418e-20)
(1.16651 1.09671 0)
(1.15918 1.11475 1.08583e-21)
(1.108 1.0944 -3.43083e-21)
(1.04475 1.06643 3.9697e-20)
(0.973521 1.03398 2.32488e-20)
(0.892266 0.996676 0)
(0.799733 0.952424 6.47466e-20)
(0.693546 0.897394 -8.40676e-21)
(0.586486 0.833686 0)
(0.495228 0.767013 0)
(0.422573 0.698661 1.27542e-19)
(0.362378 0.629158 -5.91942e-20)
(0.305583 0.541107 -9.60331e-20)
(0.231856 0.396377 0)
(0.114939 0.217477 6.95785e-20)
(0.013982 0.455571 -8.14626e-20)
(0.0378478 1.88499 -4.61151e-20)
(0.0658009 2.80224 -5.60847e-20)
(0.239011 0.226693 -1.64027e-20)
(1.01878 0.970249 -3.94857e-20)
(1.15683 1.12214 8.85948e-21)
(1.14872 1.14009 4.8518e-21)
(1.09763 1.11958 0)
(1.03425 1.09147 2.51781e-20)
(0.963137 1.059 3.30816e-20)
(0.88141 1.02199 -4.64725e-21)
(0.787977 0.978437 9.58902e-21)
(0.679831 0.92465 1.51846e-19)
(0.569237 0.86273 1.58462e-19)
(0.472505 0.797665 1.12971e-19)
(0.392964 0.728211 1.2753e-19)
(0.323347 0.655363 -1.37646e-19)
(0.25399 0.564663 -1.43965e-19)
(0.152238 0.428271 0)
(0.0548794 0.856589 0)
(0.102642 2.55203 3.8716e-20)
(0.105664 3.19341 0)
(0.106191 3.38256 1.02064e-19)
(0.241454 0.232556 0)
(1.01245 0.993084 0)
(1.1471 1.14586 0)
(1.13831 1.16366 1.92468e-21)
(1.08735 1.14315 -1.95159e-21)
(1.02387 1.11513 1.54066e-20)
(0.95317 1.08289 2.1739e-20)
(0.870964 1.04636 -4.58126e-21)
(0.776724 1.00377 8.15781e-20)
(0.666761 0.951686 -2.08541e-21)
(0.552792 0.892163 3.12569e-19)
(0.450776 0.830187 -1.29222e-20)
(0.363689 0.760607 1.54169e-20)
(0.285593 0.681025 1.97806e-20)
(0.197445 0.594193 1.38382e-22)
(0.115371 0.997547 3.27015e-22)
(0.145239 2.71077 -1.98055e-19)
(0.15426 3.29139 -7.60992e-20)
(0.141261 3.42437 4.11058e-20)
(0.127061 3.4458 -4.65551e-20)
(0.16332 0.177181 1.06618e-20)
(1.00164 1.0178 0)
(1.13727 1.16811 -2.07626e-20)
(1.12834 1.18577 -1.6326e-20)
(1.07758 1.16559 2.73418e-21)
(1.01423 1.13783 -1.49528e-20)
(0.943408 1.10566 -2.3119e-20)
(0.860964 1.06981 5.36748e-20)
(0.766107 1.02841 -6.75104e-20)
(0.654636 0.978463 0)
(0.537578 0.921871 1.53983e-19)
(0.430563 0.864242 -9.18679e-20)
(0.335364 0.79864 0)
(0.24971 0.711801 1.89186e-20)
(0.163364 0.860791 4.5296e-20)
(0.159922 2.4869 -5.30676e-20)
(0.217186 3.32686 6.11584e-20)
(0.195628 3.44117 3.35271e-20)
(0.161622 3.46068 3.90666e-20)
(0.139499 3.46941 6.30699e-20)
(0.2762 0.270603 -2.01631e-20)
(0.984377 1.02763 0)
(1.11944 1.19338 2.41354e-20)
(1.11453 1.21877 2.13981e-20)
(1.06204 1.19901 -7.8368e-21)
(0.998321 1.17177 9.65336e-21)
(0.926558 1.14094 2.53503e-20)
(0.843549 1.10633 4.13363e-21)
(0.747461 1.06713 6.5119e-20)
(0.633452 1.02123 1.32218e-19)
(0.511611 0.970789 8.74775e-21)
(0.397375 0.921593 8.12508e-20)
(0.284771 0.868755 1.44105e-20)
(0.222341 1.02009 -1.80477e-20)
(0.231022 2.34943 -4.18666e-20)
(0.285793 3.33521 4.2632e-20)
(0.270459 3.47451 -4.7403e-20)
(0.233696 3.49297 -2.77888e-20)
(0.197047 3.51696 -2.60218e-20)
(0.148705 3.50968 -3.83267e-21)
(0.266117 0.269317 0)
(0.981604 1.05014 8.06179e-21)
(1.1114 1.21659 -5.30495e-21)
(1.10469 1.24178 -2.9044e-21)
(1.05214 1.22197 -7.47309e-21)
(0.988566 1.19497 -8.03375e-21)
(0.916543 1.16438 -1.45152e-20)
(0.833459 1.13062 3.76618e-21)
(0.737064 1.09292 -6.82815e-20)
(0.622144 1.04992 -2.993e-21)
(0.498131 1.00424 -2.78072e-19)
(0.380392 0.960865 1.1513e-20)
(0.274136 0.942188 -1.36619e-20)
(0.259425 1.53307 -1.66917e-20)
(0.324043 3.1131 3.68525e-21)
(0.34321 3.47781 4.96824e-22)
(0.299356 3.5302 7.21239e-20)
(0.262802 3.54983 3.74673e-20)
(0.214474 3.56959 -1.36114e-20)
(0.16054 3.56404 -1.97586e-20)
(0.251678 0.266875 2.16556e-20)
(0.97783 1.07514 5.57332e-20)
(1.1029 1.24178 -1.53348e-20)
(1.09447 1.26634 -1.09793e-20)
(1.0419 1.24637 0)
(0.978478 1.21938 -4.07555e-21)
(0.906451 1.18905 -1.78166e-20)
(0.82356 1.15608 3.37797e-21)
(0.727174 1.11994 -7.51818e-21)
(0.611864 1.08001 -1.20653e-19)
(0.486458 1.03953 -1.2868e-19)
(0.367338 1.00345 -9.54651e-20)
(0.281073 1.0794 -1.02226e-19)
(0.32435 2.22578 1.05247e-19)
(0.406756 3.39539 9.15565e-20)
(0.384403 3.54128 0)
(0.332087 3.57756 0)
(0.293724 3.61156 -1.06153e-20)
(0.242535 3.66029 0)
(0.170367 3.63824 -1.84519e-20)
(0.241271 0.268276 -3.34095e-20)
(0.972017 1.10091 -4.85895e-20)
(1.09304 1.26818 0)
(1.0831 1.29178 1.28962e-21)
(1.03056 1.27142 -1.19677e-20)
(0.967388 1.24432 -5.08352e-22)
(0.895678 1.21425 -9.51654e-21)
(0.813213 1.18196 2.33184e-21)
(0.717099 1.14732 -4.97597e-20)
(0.601824 1.11041 6.17918e-21)
(0.475787 1.07531 0)
(0.358253 1.04997 0)
(0.311459 1.33268 -9.3438e-20)
(0.403665 2.89712 3.83186e-20)
(0.477087 3.50703 4.99364e-20)
(0.424147 3.58 0)
(0.380072 3.63383 -7.34416e-21)
(0.333016 3.68498 -1.33267e-21)
(0.281522 3.65354 -1.54697e-20)
(0.183135 3.63061 6.82338e-22)