/*--------------------------------*- C++ -*----------------------------------*\
| =========                 |                                                 |
| \\      /  F ield         | OpenFOAM: The Open Source CFD Toolbox           |
|  \\    /   O peration     | Version:  2106                                  |
|   \\  /    A nd           | Website:  www.openfoam.com                      |
|    \\/     M anipulation  |                                                 |
\*---------------------------------------------------------------------------*/
FoamFile
{
    version     2.0;
    format      ascii;
    arch        "LSB;label=32;scalar=64";
    class       volScalarField;
    location    "5";
    object      T;
}
// * * * * * * * * * * * * * * * * * * * * * * * * * * * * * * * * * * * * * //

dimensions      [0 0 0 1 0 0 0];

internalField   nonuniform List<scalar> 
1000
(
0
0
0
0
0
0
0
0
0
0
0
0
0
0
0
0
0
0
0
0
0
0
0
0
0
0
0
0
0
0
0
0
0
0
0
0
0
0
0
0
0
0
0
0
0
0
0
0
0
0
0
0
0
0
0
0
0
0
0
0
0
0
0
0
0
0
0
0
0
0
0
0
0
0
0
0
0
0
0
0
0
0
0
0
0
0
0
0
0
0
0
0
0
0
0
0
0
0
0
0
0
0
0
0
0
0
0
0
0
0
0
0
0
0
0
0
0
0
0
0
0
0
0
0
0
0
0
0
0
0
0
0
0
0
0
0
0
0
0
0
0
0
0
0
0
0
0
0
0
0
0
0
0
0
0
0
0
0
0
0
0
0
0
0
0
0
0
0
0
0
0
0
0
0
0
0
0
0
0
0
0
0
0
0
0
0
0
0
0
0
0
0
0
0
0
0
0
0
0
0
0
0
0
0
0
0
0
0
0
0
0
0
0
0
0
0
0
0
0
0
0
0
0
0
0
0
0
0
0
0
0
0
0
0
0
0
0
0
0
0
0
0
0
0
0
0
0
0
0
0
0
0
0
0
0
0
0
0
0
0
0
0
0
0
0
0
0
0
0
0
0
0
0
0
0
0
0
0
0
0
0
0
0
0
0
0
0
0
0
0
0
0
0
0
0
0
0
0
0
0
0
0
0
0
0
0
0
0
0
0
0
0
0
0
0
0
0
0
0
0
0
0
0
0
0
0
0
0
0
0
0
0
0
0
0
0
0
0
0
0
0
0
0
0
0
0
0
0
0
0
0
0
0
0
0
0
0
0
0
0
0
0
0
0
0
0
0
0
0
0
4.94066e-324
9.88131e-324
1.4822e-323
1.97626e-323
2.47033e-323
2.96439e-323
3.45846e-323
3.95253e-323
4.44659e-323
4.94066e-323
5.43472e-323
5.92879e-323
6.42285e-323
6.91692e-323
7.41098e-323
7.90505e-323
8.39912e-323
8.89318e-323
9.38725e-323
9.88131e-323
1.03754e-322
1.08694e-322
4.18968e-321
8.5274e-318
1.75184e-314
3.54243e-311
7.04851e-308
1.37956e-304
2.65515e-301
5.02327e-298
9.33852e-295
1.7053e-291
3.05763e-288
5.38088e-285
9.29013e-282
1.57289e-278
2.61025e-275
4.2439e-272
6.75659e-269
1.05279e-265
1.60459e-262
2.39082e-259
3.48037e-256
4.94677e-253
6.8603e-250
9.27646e-247
1.22212e-243
1.56746e-240
1.95554e-237
2.37104e-234
2.79128e-231
3.18734e-228
3.52655e-225
3.77635e-222
3.90903e-219
3.90635e-216
3.76331e-213
3.48987e-210
3.11013e-207
2.65894e-204
2.17653e-201
1.70229e-198
1.26916e-195
8.99737e-193
6.04813e-190
3.84317e-187
2.3005e-184
1.29224e-181
6.7821e-179
3.30931e-176
1.49285e-173
6.18563e-171
2.33656e-168
7.97601e-166
2.43514e-163
6.5689e-161
1.54315e-158
3.10365e-156
5.24086e-154
7.27623e-152
8.15209e-150
7.30607e-148
5.28393e-146
3.14198e-144
1.56861e-142
6.70469e-141
2.49567e-139
8.20778e-138
2.41432e-136
6.41769e-135
1.55521e-133
3.46168e-132
7.12347e-131
1.36286e-129
2.43616e-128
4.0865e-127
6.45745e-126
9.64571e-125
1.3662e-123
1.83996e-122
2.36222e-121
2.89763e-120
3.40324e-119
3.83445e-118
4.15188e-117
4.32739e-116
4.34816e-115
4.21784e-114
3.95502e-113
3.5893e-112
3.15622e-111
2.69206e-110
2.22944e-109
1.79436e-108
1.40479e-107
1.07069e-106
7.95076e-106
5.75669e-105
4.06689e-104
2.80524e-103
1.89049e-102
1.24548e-101
8.02625e-101
5.06219e-100
3.1264e-99
1.89169e-98
1.12192e-97
6.52508e-97
3.72314e-96
2.08505e-95
1.14653e-94
6.19281e-94
3.28688e-93
1.71487e-92
8.79799e-92
4.44001e-91
2.20482e-90
1.07768e-89
5.18631e-89
2.45816e-88
1.1478e-87
5.28137e-87
2.39531e-86
1.07109e-85
4.72325e-85
2.05455e-84
8.81758e-84
3.73455e-83
1.56127e-82
6.44408e-82
2.62649e-81
1.05732e-80
4.20477e-80
1.6522e-79
6.41573e-79
2.46247e-78
9.34359e-78
3.50547e-77
1.30059e-76
4.77274e-76
1.73258e-75
6.22279e-75
2.2116e-74
7.77897e-74
2.70827e-73
9.33418e-73
3.18518e-72
1.07627e-71
3.60161e-71
1.19375e-70
3.91941e-70
1.2749e-69
4.10894e-69
1.31229e-68
4.15361e-68
1.30306e-67
4.05224e-67
1.24928e-66
3.81864e-66
1.15739e-65
3.47872e-65
1.03698e-64
3.06598e-64
8.9921e-64
2.61628e-63
7.55225e-63
2.1631e-62
6.14784e-62
1.734e-61
4.85395e-61
1.34864e-60
3.71947e-60
1.01833e-59
2.76792e-59
7.46973e-59
2.0016e-58
5.32599e-58
1.40737e-57
3.6934e-57
9.62697e-57
2.49245e-56
6.41008e-56
1.63769e-55
4.15678e-55
1.04826e-54
2.6266e-54
6.53971e-54
1.61804e-53
3.97841e-53
9.72183e-53
2.36118e-52
5.7e-52
1.36777e-51
3.26259e-51
7.73663e-51
1.8239e-50
4.27499e-50
9.96265e-50
2.30857e-49
5.31936e-49
1.21884e-48
2.77733e-48
6.29392e-48
1.41856e-47
3.18001e-47
7.09057e-47
1.57264e-46
3.46966e-46
7.61513e-46
1.66272e-45
3.61183e-45
7.8059e-45
1.67851e-44
3.59127e-44
7.64561e-44
1.6197e-43
3.41452e-43
7.16337e-43
1.49559e-42
3.10766e-42
6.42678e-42
1.32285e-41
2.71019e-41
5.52685e-41
1.12191e-40
2.26703e-40
4.56025e-40
9.13207e-40
1.82059e-39
3.61354e-39
7.14075e-39
1.40495e-38
2.75231e-38
5.36867e-38
1.04276e-37
2.01678e-37
3.88426e-37
7.44978e-37
1.42291e-36
2.70661e-36
5.12739e-36
9.67398e-36
1.81787e-35
3.40238e-35
6.34273e-35
1.17776e-34
2.17837e-34
4.01344e-34
7.36584e-34
1.34667e-33
2.45268e-33
4.45016e-33
8.04407e-33
1.44861e-32
2.59906e-32
4.64597e-32
8.27457e-32
1.46836e-31
2.59627e-31
4.5741e-31
8.02991e-31
1.40467e-30
2.44854e-30
4.25324e-30
7.36241e-30
1.27004e-29
2.18336e-29
3.74066e-29
6.387e-29
1.08688e-28
1.84336e-28
3.11597e-28
5.24976e-28
8.81568e-28
1.47555e-27
2.46172e-27
4.09374e-27
6.78593e-27
1.12127e-26
1.84687e-26
3.03244e-26
4.96349e-26
8.09896e-26
1.31742e-25
2.13641e-25
3.45395e-25
5.56705e-25
8.94582e-25
1.43321e-24
2.28928e-24
3.64585e-24
5.78916e-24
9.16548e-24
1.44686e-23
2.27738e-23
3.57429e-23
5.59367e-23
8.72897e-23
1.3583e-22
2.10767e-22
3.26129e-22
5.03227e-22
7.74339e-22
1.18823e-21
1.81834e-21
2.775e-21
4.2235e-21
6.41074e-21
9.70457e-21
1.46516e-20
2.20616e-20
3.31316e-20
4.96255e-20
7.41365e-20
1.10466e-19
1.64173e-19
2.43365e-19
3.59833e-19
5.30686e-19
7.80682e-19
1.14556e-18
1.67675e-18
2.44816e-18
3.56559e-18
5.18027e-18
7.5077e-18
1.08543e-17
1.56544e-17
2.2523e-17
3.23272e-17
4.62884e-17
6.61213e-17
9.42285e-17
1.33967e-16
1.90019e-16
2.68895e-16
3.79629e-16
5.34728e-16
7.51464e-16
1.05364e-15
1.47395e-15
2.05728e-15
2.86501e-15
3.98092e-15
5.51915e-15
7.63478e-15
1.05381e-14
1.45135e-14
1.99448e-14
2.73492e-14
3.74212e-14
5.10921e-14
6.96079e-14
9.46314e-14
1.28377e-13
1.7379e-13
2.34771e-13
3.16486e-13
4.25755e-13
5.71563e-13
7.65721e-13
1.02373e-12
1.36587e-12
1.81865e-12
2.41663e-12
3.20475e-12
4.24136e-12
5.60208e-12
7.38463e-12
9.71512e-12
1.27559e-11
1.67156e-11
2.18618e-11
2.85368e-11
3.71778e-11
4.83421e-11
6.27385e-11
8.1267e-11
1.05068e-10
1.35582e-10
1.7463e-10
2.24502e-10
2.88079e-10
3.68975e-10
4.71714e-10
6.0195e-10
7.66738e-10
9.74858e-10
1.23722e-09
1.56736e-09
1.98201e-09
2.50188e-09
3.15248e-09
3.96522e-09
4.97867e-09
6.24016e-09
7.80758e-09
9.75169e-09
1.21587e-08
1.51337e-08
1.88043e-08
2.3325e-08
2.88833e-08
3.57053e-08
4.40641e-08
5.42881e-08
6.67724e-08
8.19905e-08
1.0051e-07
1.23008e-07
1.50295e-07
1.83334e-07
2.2327e-07
2.71464e-07
3.29527e-07
3.99364e-07
4.83225e-07
5.83762e-07
7.04095e-07
8.47888e-07
1.01944e-06
1.22377e-06
1.46676e-06
1.75527e-06
2.09727e-06
2.50204e-06
2.98034e-06
3.54465e-06
4.20938e-06
4.99119e-06
5.90927e-06
6.98571e-06
8.24586e-06
9.71883e-06
1.14379e-05
1.34412e-05
1.57721e-05
1.84801e-05
2.16214e-05
2.526e-05
2.94682e-05
3.4328e-05
3.9932e-05
4.63845e-05
5.3803e-05
6.23198e-05
7.2083e-05
8.32588e-05
9.60329e-05
0.000110613
0.00012723
0.000146142
0.000167635
0.000192026
0.000219666
0.000250945
0.000286291
0.000326177
0.000371123
0.000421701
0.000478538
0.000542318
0.000613793
0.000693779
0.000783169
0.000882931
0.000994117
0.00111787
0.00125542
0.0014081
0.00157735
0.00176472
0.00197187
0.00220059
0.00245278
0.00273049
0.0030359
0.00337134
0.00373927
0.00414233
0.00458328
0.00506508
0.00559083
0.00616381
0.00678746
0.00746539
0.0082014
0.00899946
0.0098637
0.0107984
0.0118082
0.0128976
0.0140714
0.0153347
0.0166926
0.0181503
0.0197134
0.0213874
0.0231778
0.0250907
0.0271317
0.029307
0.0316225
0.0340844
0.0366987
0.0394716
0.0424093
0.0455178
0.0488032
0.0522715
0.0559286
0.0597803
0.0638323
0.0680899
0.0725585
0.0772432
0.0821487
0.0872795
0.09264
0.098234
0.104065
0.110136
0.116451
0.123011
0.129818
0.136874
0.14418
0.151736
0.159542
0.167597
0.175901
0.184452
0.193247
0.202284
0.211558
0.221067
0.230805
0.240768
0.250948
0.261341
0.271939
0.282735
0.293721
0.304887
0.316226
0.327728
0.339382
0.351178
0.363106
0.375154
0.387311
0.399565
0.411903
0.424314
0.436784
0.449302
0.461853
0.474425
0.487004
0.499578
0.512133
0.524656
0.537134
0.549553
0.561901
0.574165
0.586331
0.598388
0.610324
0.622126
0.633782
0.645281
0.656613
0.667765
0.678728
0.689491
0.700044
0.710379
0.720485
0.730354
0.739978
0.749349
0.758459
0.7673
0.775866
0.784151
0.792147
0.799849
0.807252
0.81435
0.821138
0.827611
0.833765
0.839597
0.845101
0.850274
0.855113
0.859615
0.863777
0.867595
0.871068
0.874192
0.876966
0.879387
0.881454
0.883165
0.884518
0.885512
0.886146
0.886418
)
;

boundaryField
{
    sides
    {
        type            zeroGradient;
    }
    empty
    {
        type            empty;
    }
}


// ************************************************************************* //
