/*--------------------------------*- C++ -*----------------------------------*\
  =========                 |
  \\      /  F ield         | OpenFOAM: The Open Source CFD Toolbox
   \\    /   O peration     | Website:  https://openfoam.org
    \\  /    A nd           | Version:  6
     \\/     M anipulation  |
\*---------------------------------------------------------------------------*/
FoamFile
{
    version     2.0;
    format      ascii;
    class       volVectorField;
    location    "78";
    object      U;
}
// * * * * * * * * * * * * * * * * * * * * * * * * * * * * * * * * * * * * * //

dimensions      [0 1 -1 0 0 0 0];

internalField   nonuniform List<vector> 
8800
(
(0.987184 -0.0766657 0)
(1.00189 -0.0551909 0)
(0.999723 -0.028549 0)
(1.00003 -0.0151439 0)
(1.0001 -0.00854486 0)
(1.00012 -0.00504644 0)
(1.00008 -0.00300092 0)
(1.00003 -0.00170069 0)
(0.999996 -0.000794527 0)
(1.00006 -7.872e-05 0)
(0.999966 0.000652756 0)
(0.999983 0.00142137 0)
(1.00004 0.00243778 0)
(1.00006 0.00400354 0)
(1.00004 0.00663519 0)
(1.00003 0.0113736 0)
(0.999925 0.0208163 0)
(0.999161 0.0386715 0)
(1.0071 0.0724576 0)
(0.771214 0.0366615 0)
(0.363071 -0.0160172 0)
(1.04331 -0.0768157 0)
(1.08459 -0.0704467 0)
(1.04519 -0.0535422 0)
(1.02329 -0.0388939 0)
(1.01202 -0.026216 0)
(1.00643 -0.0168542 0)
(1.00359 -0.0103219 0)
(1.00215 -0.00566092 0)
(1.00144 -0.00200093 0)
(1.00129 0.00132313 0)
(1.00165 0.004709 0)
(1.00266 0.00864089 0)
(1.00467 0.0139657 0)
(1.0086 0.0216714 0)
(1.01655 0.0326398 0)
(1.03249 0.0465523 0)
(1.06266 0.0616686 0)
(1.09187 0.0761024 0)
(0.838668 0.0565627 0)
(0.216851 -0.00242958 0)
(1.0759 -0.0501339 0)
(1.09988 -0.0483076 0)
(1.06464 -0.0404593 0)
(1.04004 -0.0335996 0)
(1.02392 -0.0260758 0)
(1.01412 -0.0184902 0)
(1.00856 -0.0116669 0)
(1.00558 -0.0057946 0)
(1.00431 -0.000373065 0)
(1.00464 0.00487618 0)
(1.00658 0.0102711 0)
(1.01061 0.0163541 0)
(1.01794 0.0233681 0)
(1.03052 0.0308319 0)
(1.05061 0.0378597 0)
(1.08034 0.0445414 0)
(1.10626 0.051354 0)
(0.942513 0.0416218 0)
(0.216138 0.00246218 0)
(0.175182 -0.000816201 0)
(1.01771 -0.0354807 0)
(1.10521 -0.0413732 0)
(1.07827 -0.0360548 0)
(1.05347 -0.030117 0)
(1.03621 -0.0245371 0)
(1.02401 -0.0188039 0)
(1.01588 -0.0127183 0)
(1.01101 -0.00652405 0)
(1.0088 -0.000183599 0)
(1.00935 0.00607512 0)
(1.01262 0.012077 0)
(1.01887 0.0178994 0)
(1.02876 0.0234612 0)
(1.04318 0.0287601 0)
(1.06371 0.0342399 0)
(1.09355 0.0402211 0)
(1.09339 0.0419785 0)
(0.8271 0.0229215 0)
(0.173979 0.000853796 0)
(0.153988 -0.000610007 0)
(0.956218 -0.0254516 0)
(1.10347 -0.0351161 0)
(1.08769 -0.032635 0)
(1.06173 -0.0279767 0)
(1.04412 -0.0229464 0)
(1.03165 -0.0176925 0)
(1.0228 -0.012153 0)
(1.01697 -0.00620759 0)
(1.0141 0.000269959 0)
(1.01476 0.00673579 0)
(1.01874 0.0126218 0)
(1.02579 0.0179005 0)
(1.03608 0.0228015 0)
(1.05063 0.0275573 0)
(1.07186 0.0320828 0)
(1.10005 0.0360114 0)
(1.06804 0.0340603 0)
(0.739436 0.0143263 0)
(0.152174 0.000652682 0)
(0.139627 -0.000466106 0)
(0.899354 -0.0190655 0)
(1.09582 -0.0300581 0)
(1.09576 -0.0291592 0)
(1.06927 -0.0254196 0)
(1.05084 -0.021271 0)
(1.0379 -0.016488 0)
(1.02878 -0.0111901 0)
(1.02265 -0.00543424 0)
(1.01949 0.000904178 0)
(1.02008 0.00722207 0)
(1.02418 0.0128582 0)
(1.03136 0.0178029 0)
(1.04186 0.0222487 0)
(1.05696 0.0262102 0)
(1.07916 0.0296646 0)
(1.10223 0.0322813 0)
(1.03588 0.0281627 0)
(0.672789 0.0102293 0)
(0.137064 0.000515321 0)
(0.129102 -0.000360532 0)
(0.849821 -0.0146978 0)
(1.08347 -0.0259146 0)
(1.10147 -0.0261938 0)
(1.07614 -0.0228965 0)
(1.05718 -0.0192401 0)
(1.04378 -0.014981 0)
(1.0343 -0.0100423 0)
(1.02793 -0.00449344 0)
(1.02457 0.00166835 0)
(1.02501 0.00777445 0)
(1.02906 0.0131348 0)
(1.03634 0.0176632 0)
(1.04711 0.0215005 0)
(1.06262 0.0247968 0)
(1.08525 0.0277289 0)
(1.1013 0.0294713 0)
(1.00087 0.023665 0)
(0.620841 0.00787178 0)
(0.125625 0.000418425 0)
(0.12108 -0.000279636 0)
(0.807761 -0.0115335 0)
(1.06825 -0.0222909 0)
(1.10503 -0.0235373 0)
(1.08242 -0.0206493 0)
(1.06304 -0.0172042 0)
(1.04937 -0.0132484 0)
(1.03961 -0.00864286 0)
(1.03294 -0.00336183 0)
(1.02932 0.00258484 0)
(1.02957 0.00844511 0)
(1.03356 0.0134589 0)
(1.04091 0.0175121 0)
(1.05177 0.0208381 0)
(1.06749 0.0237217 0)
(1.09045 0.0263506 0)
(1.09745 0.0271914 0)
(0.965462 0.0201467 0)
(0.579033 0.00634546 0)
(0.116494 0.000348483 0)
(0.114875 -0.000216157 0)
(0.7724 -0.00916338 0)
(1.05157 -0.0190962 0)
(1.10745 -0.0210733 0)
(1.08832 -0.0185509 0)
(1.06855 -0.0152456 0)
(1.05464 -0.011447 0)
(1.04468 -0.00704654 0)
(1.03775 -0.00200013 0)
(1.03385 0.00369835 0)
(1.03386 0.00926016 0)
(1.03772 0.013896 0)
(1.045 0.0175225 0)
(1.05584 0.0204574 0)
(1.07175 0.0230157 0)
(1.09436 0.0252956 0)
(1.09075 0.0253158 0)
(0.930945 0.0174431 0)
(0.544343 0.00530812 0)
(0.108939 0.000298469 0)
(0.110053 -0.000164957 0)
(0.7428 -0.00732011 0)
(1.03449 -0.016259 0)
(1.10895 -0.0187447 0)
(1.09394 -0.0165226 0)
(1.07389 -0.0133042 0)
(1.05971 -0.00958968 0)
(1.04955 -0.00530385 0)
(1.04239 -0.000424559 0)
(1.03818 0.00503855 0)
(1.03788 0.0102908 0)
(1.0415 0.0145671 0)
(1.04863 0.0178156 0)
(1.05942 0.0204008 0)
(1.07552 0.0226657 0)
(1.09697 0.0245614 0)
(1.08156 0.0237991 0)
(0.897869 0.0154046 0)
(0.514709 0.00459073 0)
(0.102479 0.000263703 0)
(0.106332 -0.000122264 0)
(0.718147 -0.00582942 0)
(1.01785 -0.0137071 0)
(1.10964 -0.0164874 0)
(1.09948 -0.0145308 0)
(1.07916 -0.0113168 0)
(1.06468 -0.00762418 0)
(1.05429 -0.00339273 0)
(1.04687 0.00137841 0)
(1.04232 0.00664591 0)
(1.04163 0.0116084 0)
(1.04493 0.015548 0)
(1.05185 0.0184352 0)
(1.06256 0.020684 0)
(1.07884 0.0226811 0)
(1.09822 0.0241604 0)
(1.07026 0.0226449 0)
(0.86633 0.0139167 0)
(0.488666 0.00410368 0)
(0.0967675 0.000241209 0)
(0.103526 -8.51126e-05 0)
(0.697803 -0.00457509 0)
(1.00226 -0.0113732 0)
(1.10968 -0.0142652 0)
(1.10487 -0.0124878 0)
(1.08445 -0.00922956 0)
(1.06965 -0.00550076 0)
(1.05899 -0.00126187 0)
(1.05125 0.00346173 0)
(1.04627 0.0085856 0)
(1.0451 0.0132938 0)
(1.04801 0.016916 0)
(1.05469 0.0194473 0)
(1.0653 0.0213613 0)
(1.0817 0.0230926 0)
(1.09841 0.0241938 0)
(1.05711 0.021863 0)
(0.836148 0.0128913 0)
(0.465113 0.00379134 0)
(0.091544 0.00022851 0)
(0.101515 -5.07972e-05 0)
(0.681302 -0.00346962 0)
(0.988182 -0.00918566 0)
(1.1093 -0.01199 0)
(1.11011 -0.0103135 0)
(1.08984 -0.00698474 0)
(1.07469 -0.00315634 0)
(1.0637 0.00115704 0)
(1.05556 0.00589305 0)
(1.05006 0.0109275 0)
(1.04832 0.0154147 0)
(1.05077 0.0187268 0)
(1.05715 0.0208986 0)
(1.06762 0.0224798 0)
(1.08405 0.0239275 0)
(1.09761 0.0246106 0)
(1.04221 0.0214664 0)
(0.80696 0.0122587 0)
(0.443171 0.0036169 0)
(0.0866003 0.000223698 0)
(0.100241 -1.70379e-05 0)
(0.66835 -0.00244386 0)
(0.975986 -0.00707022 0)
(1.10881 -0.00960284 0)
(1.11533 -0.00794195 0)
(1.09541 -0.00449672 0)
(1.07988 -0.000504158 0)
(1.06849 0.00395049 0)
(1.05987 0.00876523 0)
(1.05374 0.0137563 0)
(1.05131 0.0180463 0)
(1.0532 0.0210656 0)
(1.05922 0.0228707 0)
(1.06952 0.0241045 0)
(1.08593 0.0252648 0)
(1.09557 0.0254577 0)
(1.02563 0.0214548 0)
(0.778311 0.011965 0)
(0.422126 0.00355475 0)
(0.0817711 0.000225273 0)
(0.0996927 1.90797e-05 0)
(0.658804 -0.00144371 0)
(0.96599 -0.00495361 0)
(1.10855 -0.00704298 0)
(1.12068 -0.00530516 0)
(1.10124 -0.00168948 0)
(1.08529 0.00253592 0)
(1.07345 0.00720709 0)
(1.06424 0.0121726 0)
(1.05734 0.0171839 0)
(1.05407 0.0213101 0)
(1.0553 0.0240351 0)
(1.06089 0.0254687 0)
(1.07098 0.0263404 0)
(1.08727 0.0271741 0)
(1.09218 0.0267956 0)
(1.00727 0.0218599 0)
(0.749692 0.0119861 0)
(0.401377 0.00359095 0)
(0.0769191 0.000232612 0)
(0.0998894 5.07567e-05 0)
(0.652653 -0.000416849 0)
(0.958501 -0.0027592 0)
(1.10887 -0.00423851 0)
(1.12631 -0.00231353 0)
(1.10745 0.00154725 0)
(1.09104 0.00608849 0)
(1.07864 0.0110548 0)
(1.06872 0.0162452 0)
(1.0609 0.0213339 0)
(1.05662 0.0253197 0)
(1.05704 0.0277477 0)
(1.06213 0.0288052 0)
(1.07196 0.0292869 0)
(1.08779 0.0297427 0)
(1.08713 0.0286756 0)
(0.986949 0.0227273 0)
(0.720522 0.0123087 0)
(0.380364 0.00371785 0)
(0.0719192 0.000245036 0)
(0.100907 0.000100682 0)
(0.650016 0.000676874 0)
(0.953835 -0.000408957 0)
(1.11013 -0.00111332 0)
(1.13245 0.00113097 0)
(1.11416 0.00533222 0)
(1.09722 0.0102771 0)
(1.08416 0.0156306 0)
(1.07337 0.0211296 0)
(1.06443 0.0263503 0)
(1.05896 0.0302177 0)
(1.05843 0.0323392 0)
(1.06291 0.0330102 0)
(1.07241 0.0330751 0)
(1.08739 0.0331066 0)
(1.08017 0.0311932 0)
(0.964319 0.0240853 0)
(0.69016 0.0129203 0)
(0.358564 0.00392577 0)
(0.0666614 0.000261617 0)
(0.102895 0.000155787 0)
(0.651188 0.00182496 0)
(0.952347 0.00217249 0)
(1.1128 0.002437 0)
(1.13927 0.00513393 0)
(1.12149 0.00979471 0)
(1.10397 0.0152532 0)
(1.09011 0.0211017 0)
(1.07827 0.0270014 0)
(1.06799 0.0324216 0)
(1.06107 0.0361886 0)
(1.05942 0.037953 0)
(1.06317 0.0382288 0)
(1.07227 0.0378455 0)
(1.08576 0.0373626 0)
(1.07102 0.0344413 0)
(0.938917 0.0259775 0)
(0.65792 0.0138161 0)
(0.33549 0.00420714 0)
(0.0610525 0.000281434 0)
(0.105943 0.000219742 0)
(0.656665 0.00328793 0)
(0.954479 0.00510639 0)
(1.11733 0.00656343 0)
(1.14705 0.00986303 0)
(1.12965 0.0151403 0)
(1.11144 0.0212417 0)
(1.09661 0.0277013 0)
(1.08348 0.0340935 0)
(1.07156 0.039753 0)
(1.06295 0.0433982 0)
(1.05999 0.0447864 0)
(1.06287 0.0446316 0)
(1.07149 0.0437501 0)
(1.08286 0.042736 0)
(1.05922 0.0385296 0)
(0.910117 0.0284448 0)
(0.62305 0.0149829 0)
(0.31068 0.0045498 0)
(0.0550177 0.000303037 0)
(0.110342 0.000304882 0)
(0.666829 0.00499867 0)
(0.96074 0.00858955 0)
(1.12424 0.0114124 0)
(1.15608 0.0155094 0)
(1.13886 0.0215893 0)
(1.1198 0.0284822 0)
(1.10377 0.0356886 0)
(1.08905 0.042666 0)
(1.07516 0.0486012 0)
(1.06455 0.0520947 0)
(1.06005 0.0530443 0)
(1.06193 0.0524125 0)
(1.06997 0.0509696 0)
(1.07868 0.0493264 0)
(1.04423 0.0435664 0)
(0.877128 0.0315009 0)
(0.584755 0.016389 0)
(0.283727 0.00493303 0)
(0.0485118 0.000324202 0)
(0.116437 0.000419033 0)
(0.682512 0.00713924 0)
(0.971804 0.0127996 0)
(1.13409 0.0172197 0)
(1.16672 0.0223362 0)
(1.14937 0.029465 0)
(1.12925 0.0373303 0)
(1.1117 0.0454216 0)
(1.09502 0.0530595 0)
(1.07875 0.0592605 0)
(1.06579 0.0625146 0)
(1.05945 0.0629094 0)
(1.06029 0.061768 0)
(1.06774 0.0597008 0)
(1.07295 0.0572481 0)
(1.02527 0.049636 0)
(0.838981 0.0351249 0)
(0.54223 0.0179717 0)
(0.254331 0.00532427 0)
(0.0415352 0.000341978 0)
(0.124757 0.000578779 0)
(0.704633 0.00993409 0)
(0.988528 0.0180404 0)
(1.14756 0.0243305 0)
(1.17947 0.0307501 0)
(1.16152 0.0392471 0)
(1.14 0.048284 0)
(1.1205 0.0573861 0)
(1.10137 0.0656993 0)
(1.08224 0.0720572 0)
(1.06658 0.0749046 0)
(1.05817 0.0746117 0)
(1.05788 0.0728625 0)
(1.06465 0.07008 0)
(1.06514 0.0666282 0)
(1.00137 0.0567667 0)
(0.794542 0.0392267 0)
(0.494745 0.0196144 0)
(0.222377 0.00567446 0)
(0.0341522 0.000352433 0)
(0.136038 0.000808688 0)
(0.734516 0.0137755 0)
(1.01207 0.024784 0)
(1.16544 0.0332891 0)
(1.19497 0.0413339 0)
(1.17568 0.0515813 0)
(1.15223 0.0619931 0)
(1.13017 0.0721774 0)
(1.10798 0.0810764 0)
(1.08547 0.0873758 0)
(1.06676 0.0895484 0)
(1.05614 0.0883711 0)
(1.05467 0.0859584 0)
(1.06029 0.0822723 0)
(1.05452 0.0776031 0)
(0.971206 0.0649057 0)
(0.74256 0.0435935 0)
(0.44178 0.0211327 0)
(0.188045 0.00591778 0)
(0.0265104 0.000351222 0)
(0.151564 0.00117188 0)
(0.774165 0.0192825 0)
(1.04409 0.0338168 0)
(1.18866 0.0450401 0)
(1.21404 0.0553385 0)
(1.19219 0.0675357 0)
(1.166 0.0794431 0)
(1.14058 0.0905972 0)
(1.11461 0.0997684 0)
(1.08818 0.105558 0)
(1.06611 0.106635 0)
(1.05316 0.104321 0)
(1.05053 0.101142 0)
(1.05446 0.096687 0)
(1.04013 0.0901775 0)
(0.933102 0.0737953 0)
(0.681837 0.0478565 0)
(0.383283 0.0222626 0)
(0.151946 0.00597604 0)
(0.018856 0.000334028 0)
(0.173543 0.00179958 0)
(0.826825 0.0276002 0)
(1.08732 0.0466955 0)
(1.21838 0.0614652 0)
(1.2372 0.074646 0)
(1.21114 0.0887775 0)
(1.18104 0.101995 0)
(1.15126 0.113625 0)
(1.12077 0.122391 0)
(1.08996 0.126948 0)
(1.06436 0.126351 0)
(1.04909 0.122555 0)
(1.04531 0.118405 0)
(1.04714 0.112982 0)
(1.02054 0.10419 0)
(0.884978 0.0829192 0)
(0.611589 0.0514529 0)
(0.320082 0.0226895 0)
(0.115268 0.00577486 0)
(0.0115371 0.000297169 0)
(0.205375 0.00318063 0)
(0.898278 0.041383 0)
(1.14515 0.0672512 0)
(1.25496 0.0861299 0)
(1.26422 0.102148 0)
(1.23189 0.11767 0)
(1.1965 0.13125 0)
(1.16138 0.142216 0)
(1.12578 0.149447 0)
(1.09032 0.151773 0)
(1.06119 0.148762 0)
(1.04373 0.143082 0)
(1.0389 0.137774 0)
(1.03764 0.131243 0)
(0.993734 0.119152 0)
(0.824442 0.0913734 0)
(0.532278 0.0536638 0)
(0.254635 0.0221858 0)
(0.0800152 0.00528699 0)
(0.00504535 0.000236811 0)
(0.248803 0.00946983 8.59523e-21)
(0.99244 0.0686727 7.38858e-21)
(1.21519 0.102138 -2.58949e-21)
(1.29532 0.122767 0)
(1.29217 0.141523 -6.69954e-35)
(1.25221 0.15659 9.82191e-22)
(1.21078 0.168722 -1.78732e-21)
(1.16988 0.177576 0)
(1.12886 0.182191 3.7207e-35)
(1.08852 0.181489 -2.25671e-21)
(1.0557 0.175628 0)
(1.03604 0.167994 -2.7083e-21)
(1.03062 0.161864 -8.01305e-21)
(1.02437 0.15478 -3.8003e-21)
(0.95475 0.137362 -1.14689e-21)
(0.744543 0.0999592 -6.81902e-22)
(0.438958 0.0544695 0)
(0.186039 0.0210654 4.77463e-22)
(0.0463748 0.00470762 5.6545e-22)
(-0.000648593 0.000138229 1.03327e-20)
(0.278939 0.0248864 5.91655e-21)
(1.07049 0.11182 1.1362e-22)
(1.27294 0.151848 6.72696e-22)
(1.33173 0.172424 0)
(1.31678 0.191341 -3.33328e-21)
(1.26977 0.204298 -3.81296e-21)
(1.22241 0.214174 -1.78587e-21)
(1.17571 0.220628 -6.41767e-21)
(1.12917 0.222634 0)
(1.08369 0.219048 9.55028e-21)
(1.04692 0.210517 9.51537e-21)
(1.02488 0.201087 2.83294e-21)
(1.01693 0.193399 1.03965e-20)
(0.999565 0.183829 1.46922e-20)
(0.891644 0.157609 0)
(0.634215 0.10787 2.07461e-20)
(0.329407 0.0544222 2.97667e-20)
(0.115546 0.0190706 3.31235e-20)
(0.0134737 0.00296979 -3.79947e-20)
(-0.00608412 -0.000458831 -7.2477e-22)
(0.28047 0.0420309 0)
(1.12039 0.167599 9.2891e-22)
(1.31233 0.212632 0)
(1.36024 0.232889 -4.09869e-21)
(1.33625 0.248959 0)
(1.2833 0.258008 -7.36331e-21)
(1.23039 0.26414 3.61316e-21)
(1.17822 0.267022 -1.27896e-20)
(1.12648 0.265513 -3.23147e-22)
(1.07624 0.258336 4.90361e-21)
(1.03592 0.246655 2.08773e-20)
(1.0118 0.235112 -3.36828e-23)
(1.00104 0.225621 -7.53834e-21)
(0.972052 0.212379 -1.37616e-20)
(0.832821 0.176524 1.63253e-20)
(0.551253 0.114267 -2.89112e-20)
(0.261534 0.0539869 -3.81227e-21)
(0.0759834 0.0168894 0)
(-0.00457491 0.000640623 -3.71891e-24)
(-0.00909067 -0.00123918 0)
(0.273823 0.0564124 9.7916e-21)
(1.14763 0.227062 -5.10342e-21)
(1.33693 0.277992 -4.35862e-21)
(1.37928 0.298638 1.8651e-21)
(1.34907 0.31087 -3.15204e-21)
(1.29172 0.315335 1.53053e-20)
(1.23428 0.316991 7.47688e-21)
(1.17742 0.315593 0)
(1.12108 0.309911 -2.42944e-20)
(1.06659 0.298577 0)
(1.02312 0.283297 -1.08853e-20)
(0.997161 0.269282 -1.35417e-20)
(0.983697 0.257481 -8.17479e-21)
(0.944575 0.239496 -9.96015e-21)
(0.78376 0.19413 0)
(0.494477 0.121084 0)
(0.221139 0.055045 -2.47201e-20)
(0.0515527 0.0149007 4.88293e-21)
(-0.0174765 -0.00222185 -2.87429e-21)
(-0.0117306 -0.00222844 -3.40514e-21)
(0.265798 0.0690096 -1.96667e-21)
(1.15971 0.286389 0)
(1.35062 0.344301 7.85821e-21)
(1.38985 0.365768 4.98188e-21)
(1.35535 0.374144 7.41439e-21)
(1.2948 0.374014 0)
(1.23385 0.371057 7.18634e-21)
(1.17319 0.365144 1.39992e-20)
(1.11297 0.354971 1.23455e-20)
(1.05477 0.339134 2.29658e-20)
(1.00847 0.319904 0)
(0.980808 0.303069 -2.90735e-20)
(0.964799 0.288564 -1.75623e-20)
(0.91764 0.265429 -1.03977e-20)
(0.744428 0.211088 6.37954e-20)
(0.457375 0.128724 7.57917e-21)
(0.197559 0.056932 3.56842e-20)
(0.0360883 0.012752 -1.68763e-19)
(-0.0274309 -0.00564017 9.99619e-20)
(-0.0142757 -0.00343632 -1.22018e-19)
(0.257961 0.0802697 1.51345e-21)
(1.16205 0.343638 2.76396e-22)
(1.35635 0.409671 -5.95987e-22)
(1.39363 0.432338 -4.2596e-21)
(1.35606 0.43706 -5.78963e-21)
(1.29313 0.432496 3.61887e-22)
(1.22944 0.425046 -7.78543e-21)
(1.16569 0.414652 1.43529e-20)
(1.10218 0.399942 -2.65057e-20)
(1.0407 0.379451 0)
(0.991807 0.356082 -1.31207e-20)
(0.962486 0.336106 -3.10488e-22)
(0.944158 0.318565 -1.91901e-20)
(0.891308 0.290109 0)
(0.713014 0.227678 -1.37841e-20)
(0.433662 0.137356 -3.26956e-20)
(0.18443 0.0595544 8.7043e-20)
(0.0269868 0.010768 -8.57327e-20)
(-0.0346899 -0.00930879 1.21906e-19)
(-0.0165981 -0.00480847 -1.28275e-19)
(0.251176 0.0905902 -1.09316e-22)
(1.15823 0.398107 6.48214e-22)
(1.35631 0.473067 -3.43946e-22)
(1.39209 0.497196 1.33045e-21)
(1.35227 0.498605 -2.8322e-21)
(1.28753 0.489857 0)
(1.22165 0.478133 -7.05198e-21)
(1.15531 0.463419 -1.4961e-20)
(1.08896 0.44426 -1.37121e-20)
(1.02454 0.419144 0)
(0.973228 0.391533 -1.35225e-20)
(0.942247 0.368268 -1.68469e-20)
(0.921769 0.347508 2.07731e-20)
(0.864928 0.313995 -1.26206e-20)
(0.687127 0.244286 -5.99625e-20)
(0.418443 0.146896 3.554e-20)
(0.178397 0.0632336 1.05349e-20)
(0.0233627 0.00935626 0)
(-0.0387802 -0.0127133 -1.17528e-19)
(-0.0183801 -0.00620356 -4.3654e-21)
(0.245616 0.100314 9.18092e-22)
(1.15057 0.449622 -1.28432e-21)
(1.35199 0.533933 -1.06689e-22)
(1.38645 0.559656 5.25705e-21)
(1.34493 0.558137 -9.71803e-21)
(1.27882 0.545534 1.33216e-20)
(1.21116 0.52982 1.51899e-20)
(1.14261 0.511017 -2.38758e-20)
(1.07374 0.487584 8.58416e-21)
(1.00663 0.457956 -5.62353e-20)
(0.952975 0.426125 -1.53485e-20)
(0.920303 0.399487 0)
(0.897852 0.375463 2.25351e-20)
(0.838343 0.337032 2.70385e-20)
(0.664327 0.261087 3.23022e-20)
(0.407527 0.157421 -3.85799e-20)
(0.176654 0.0678183 -1.1418e-20)
(0.0237618 0.00902242 1.34091e-20)
(-0.039598 -0.0152352 0)
(-0.0193141 -0.00741789 -9.47145e-21)
(0.241192 0.109535 -1.46887e-20)
(1.14081 0.498257 7.93457e-21)
(1.3447 0.592128 4.79063e-22)
(1.37775 0.619369 2.64573e-21)
(1.33487 0.615264 -3.92845e-21)
(1.26773 0.599148 -8.36611e-22)
(1.19859 0.579789 -1.66752e-20)
(1.12812 0.557196 -8.65836e-21)
(1.05697 0.529717 -2.38451e-20)
(0.987312 0.49574 6.47394e-23)
(0.931386 0.459787 -4.79801e-20)
(0.896997 0.429778 4.07577e-20)
(0.872632 0.402527 -2.48008e-20)
(0.811329 0.359428 2.9817e-20)
(0.642724 0.277852 0)
(0.398159 0.168591 -2.10025e-20)
(0.17641 0.0733823 6.9667e-23)
(0.0265766 0.00995238 -5.85592e-20)
(-0.0379027 -0.0167049 -8.62474e-21)
(-0.0193839 -0.00831808 0)
(0.23784 0.11851 0)
(1.12997 0.544248 9.22232e-21)
(1.33533 0.647918 3.41137e-21)
(1.36679 0.676173 -1.84944e-21)
(1.32281 0.669775 -5.56098e-21)
(1.25486 0.650498 0)
(1.18449 0.627846 -7.30997e-21)
(1.11234 0.601788 -2.12914e-22)
(1.03907 0.570554 5.11534e-20)
(0.966957 0.532422 -7.70387e-21)
(0.908783 0.492478 -3.47021e-20)
(0.872644 0.459147 2.11747e-20)
(0.846433 0.428711 -4.45103e-22)
(0.783877 0.381138 3.1807e-20)
(0.62126 0.294187 1.94313e-20)
(0.388481 0.179938 -4.53302e-20)
(0.176203 0.0794885 5.3641e-20)
(0.0303836 0.0118639 1.59155e-20)
(-0.0345532 -0.0171543 6.57927e-20)
(-0.0187821 -0.00887857 -1.7797e-19)
(0.235469 0.127381 -5.02696e-21)
(1.1188 0.587776 6.61043e-21)
(1.32448 0.700801 -4.35705e-21)
(1.35425 0.73002 3.08194e-22)
(1.30932 0.721572 0)
(1.24074 0.699468 -5.51345e-21)
(1.16933 0.673878 2.4899e-20)
(1.09567 0.644694 1.89195e-20)
(1.02042 0.610019 0)
(0.945912 0.567983 -1.11512e-19)
(0.885456 0.524169 9.41571e-20)
(0.84755 0.487583 0)
(0.81952 0.453989 2.91088e-20)
(0.755882 0.402078 -4.33667e-22)
(0.599039 0.309827 -6.26407e-20)
(0.377446 0.190955 2.44834e-20)
(0.17483 0.085671 0)
(0.0339916 0.01444 8.6103e-20)
(-0.0304013 -0.0167377 0)
(-0.0176804 -0.00910909 -8.4451e-20)
(0.233959 0.136182 6.05943e-21)
(1.10776 0.629063 8.7198e-21)
(1.31261 0.750841 -4.28723e-21)
(1.34064 0.780931 0)
(1.29488 0.770649 -3.86368e-21)
(1.22581 0.746032 0)
(1.15351 0.71783 -2.41436e-20)
(1.07847 0.685861 -8.59606e-21)
(1.00135 0.648077 8.97185e-21)
(0.924459 0.602427 -5.52517e-20)
(0.861649 0.554876 9.716e-21)
(0.821957 0.515063 0)
(0.792176 0.478297 -6.23489e-20)
(0.727467 0.422013 4.06223e-22)
(0.575809 0.324387 0)
(0.364696 0.201086 1.3679e-22)
(0.171448 0.0914964 7.88622e-20)
(0.0364387 0.0172285 -7.45583e-20)
(-0.0263884 -0.0158055 2.20699e-20)
(-0.0163553 -0.00907947 0)
(0.232963 0.144853 0)
(1.09703 0.668292 1.05957e-20)
(1.30016 0.798148 6.49665e-21)
(1.32638 0.828979 -5.22966e-22)
(1.27988 0.817039 -5.89117e-22)
(1.21042 0.790197 -1.24422e-20)
(1.13735 0.759696 9.20658e-21)
(1.06106 0.725265 -1.03525e-20)
(0.982125 0.684713 4.0352e-20)
(0.902823 0.635763 -8.86293e-20)
(0.837573 0.584636 -8.83028e-22)
(0.796027 0.541577 -2.72603e-20)
(0.764521 0.501496 1.01451e-19)
(0.698732 0.440677 -5.05044e-22)
(0.551321 0.337603 -4.89387e-20)
(0.350097 0.209662 -8.66983e-20)
(0.166097 0.096425 0)
(0.0372948 0.0196788 0)
(-0.023089 -0.0147864 2.38708e-20)
(-0.0150348 -0.00892153 -1.41831e-20)
(0.232617 0.153567 8.60276e-21)
(1.08685 0.705314 -2.41465e-20)
(1.28743 0.84282 -6.97868e-21)
(1.3118 0.874249 0)
(1.26462 0.860805 -3.09138e-22)
(1.19486 0.831999 -1.05913e-20)
(1.12113 0.79949 2.1736e-20)
(1.04368 0.762907 4.03054e-20)
(0.962991 0.719938 5.24289e-20)
(0.881249 0.66803 -7.25233e-20)
(0.813406 0.613505 -8.16252e-20)
(0.769892 0.567152 7.30898e-20)
(0.736666 0.523474 0)
(0.669755 0.457742 -2.23672e-20)
(0.525922 0.348997 -5.29268e-20)
(0.333904 0.216456 -6.2482e-20)
(0.158915 0.0999944 -7.37522e-20)
(0.0366422 0.0213559 2.18358e-20)
(-0.0206473 -0.0139647 -1.28713e-20)
(-0.0138452 -0.00872659 6.90407e-23)
(0.232489 0.162113 0)
(1.0774 0.740548 0)
(1.27465 0.884963 5.1208e-22)
(1.29712 0.916846 0)
(1.24936 0.902037 -8.06429e-22)
(1.17936 0.871502 6.50926e-21)
(1.10506 0.837245 0)
(1.02654 0.798808 4.70102e-21)
(0.944165 0.753763 8.75748e-20)
(0.85994 0.699267 -1.67232e-19)
(0.789307 0.641569 0)
(0.743617 0.591817 -4.72723e-20)
(0.70859 0.544111 -5.92371e-22)
(0.640529 0.47287 -4.22239e-22)
(0.499922 0.358075 5.68895e-20)
(0.316525 0.221022 2.08257e-23)
(0.150262 0.101923 -1.59125e-19)
(0.0347554 0.0221163 4.702e-20)
(-0.0190145 -0.0134535 1.39519e-20)
(-0.0128137 -0.0085251 0)
(0.232609 0.170469 -3.47819e-20)
(1.06843 0.774124 -1.64426e-20)
(1.26189 0.924648 -2.09972e-20)
(1.28254 0.956879 1.95118e-20)
(1.23427 0.940811 -4.53242e-21)
(1.16411 0.90877 0)
(1.08932 0.873008 1.28498e-20)
(1.00982 0.832997 -1.0608e-20)
(0.925819 0.786212 8.00926e-22)
(0.839067 0.72951 1.24026e-20)
(0.765422 0.668919 1.06379e-19)
(0.71725 0.615671 -1.66116e-20)
(0.680204 0.563373 -6.30121e-20)
(0.610944 0.485774 -2.61713e-20)
(0.473556 0.364393 3.08384e-20)
(0.298246 0.223003 4.71283e-23)
(0.140856 0.102044 4.291e-20)
(0.032081 0.0219492 -1.0131e-19)
(-0.0179911 -0.0132525 1.20209e-19)
(-0.0119425 -0.0083471 1.77468e-20)
(0.232665 0.178571 1.32553e-20)
(1.05994 0.806118 -9.29137e-21)
(1.24933 0.962 1.3022e-21)
(1.26821 0.994475 1.28211e-20)
(1.2195 0.977236 2.35414e-21)
(1.14923 0.943878 -1.07762e-20)
(1.07405 0.906831 3.47537e-21)
(0.993659 0.865496 -4.41747e-20)
(0.908096 0.817288 -9.68318e-20)
(0.818792 0.758782 -1.00146e-19)
(0.741904 0.695645 0)
(0.690823 0.638868 -7.33882e-20)
(0.651363 0.581325 9.11514e-20)
(0.580773 0.49617 0)
(0.44688 0.367428 -6.62311e-20)
(0.279968 0.221911 3.92658e-20)
(0.131537 0.100132 -4.62211e-20)
(0.0294033 0.0210558 -5.45913e-20)
(-0.017307 -0.0131836 -9.69236e-20)
(-0.0112543 -0.00820135 -7.65522e-20)
(0.233103 0.186556 -1.50656e-20)
(1.0518 0.836525 9.95498e-21)
(1.23704 0.997086 2.24461e-20)
(1.25422 1.02971 1.8956e-20)
(1.20516 1.01141 -4.14252e-21)
(1.13484 0.976913 -4.94613e-21)
(1.05935 0.938766 1.18572e-20)
(0.978153 0.89635 -4.52542e-20)
(0.891102 0.847014 -5.75278e-20)
(0.79926 0.787111 1.0521e-19)
(0.718884 0.72183 2.35262e-19)
(0.664389 0.661594 0)
(0.621909 0.59814 0)
(0.5496 0.503917 -3.0204e-20)
(0.419648 0.366506 0)
(0.262392 0.216594 8.44202e-20)
(0.124334 0.095253 9.94248e-20)
(0.0290143 0.0191173 0)
(-0.0159675 -0.0132098 0)
(-0.0108979 -0.00820888 8.23741e-20)
(0.233246 0.194094 1.71965e-20)
(1.04401 0.865346 1.36034e-20)
(1.22509 1.03002 1.63594e-20)
(1.24067 1.06272 -1.85079e-20)
(1.19133 1.04344 -5.8943e-21)
(1.12101 1.00795 3.76713e-21)
(1.04529 0.968872 -1.61625e-20)
(0.963383 0.925586 -1.63521e-22)
(0.874936 0.875398 -1.05136e-21)
(0.780582 0.814499 -8.29473e-22)
(0.69652 0.747545 1.21562e-19)
(0.638033 0.68403 0)
(0.591717 0.614101 9.30515e-20)
(0.516895 0.509143 6.47921e-20)
(0.391031 0.36111 1.55122e-19)
(0.245217 0.205101 4.56029e-20)
(0.121386 0.0836992 -5.35316e-20)
(0.0367133 0.0116745 -3.15366e-20)
(-0.00684111 -0.015213 0)
(-0.00932715 -0.0081229 8.86486e-20)
(0.23379 0.20167 -3.90459e-20)
(1.03656 0.892707 0)
(1.21349 1.06086 1.94106e-20)
(1.22757 1.09358 -1.58059e-20)
(1.17806 1.07342 8.57558e-21)
(1.10778 1.03708 -1.65022e-21)
(1.03192 0.997203 3.03566e-20)
(0.9494 0.95324 -3.74386e-21)
(0.859653 0.902447 0)
(0.762858 0.840919 -1.16701e-19)
(0.674968 0.772837 -2.65409e-19)
(0.611877 0.706353 1.09462e-20)
(0.560766 0.629553 1.29269e-19)
(0.482201 0.512357 0)
(0.359557 0.351486 1.05092e-19)
(0.225696 0.185472 0)
(0.12066 0.0570197 0)
(0.0598554 -0.0201048 -3.40967e-20)
(0.0401852 -0.0324727 0)
(0.0236695 0.0029127 2.37953e-20)
(0.233928 0.208698 -4.37515e-20)
(1.02939 0.918857 0)
(1.20221 1.0898 3.25202e-20)
(1.21488 1.12254 0)
(1.16532 1.10163 -5.40499e-21)
(1.0951 1.06458 0)
(1.01918 1.02407 1.29358e-21)
(0.936107 0.979643 6.26733e-21)
(0.845131 0.928521 7.29613e-21)
(0.745914 0.866744 -1.28411e-19)
(0.65403 0.798158 7.96856e-21)
(0.585604 0.729233 8.86823e-20)
(0.528508 0.645317 1.26618e-19)
(0.44443 0.5143 1.70412e-20)
(0.323006 0.339046 8.27323e-20)
(0.19783 0.158271 0)
(0.107655 0.0106883 1.12887e-19)
(0.0625479 -0.0541218 -6.62942e-20)
(0.02897 0.0487502 7.75126e-20)
(-0.0385418 0.457954 -9.20966e-20)
(0.234041 0.215574 3.63328e-20)
(1.02229 0.943656 5.47502e-20)
(1.19119 1.11717 0)
(1.20247 1.15004 1.02534e-21)
(1.15291 1.12864 1.63463e-20)
(1.08269 1.09114 -4.8836e-21)
(1.00675 1.05027 9.88926e-21)
(0.923082 1.00573 0)
(0.830823 0.95471 4.78883e-20)
(0.729049 0.893272 -6.65265e-21)
(0.632757 0.824999 0)
(0.557844 0.75433 0)
(0.492732 0.662636 1.13959e-19)
(0.400798 0.5153 -5.27815e-20)
(0.277968 0.325479 -8.42596e-20)
(0.156698 0.126326 0)
(0.0631103 0.0342998 5.74727e-20)
(0.0048838 0.459934 -6.67115e-20)
(0.0299551 1.93281 -3.74785e-20)
(0.0563841 2.82762 -4.59777e-20)
(0.233837 0.221917 -2.74465e-20)
(1.01531 0.967279 -7.0562e-20)
(1.18044 1.14297 1.9466e-20)
(1.19033 1.17596 1.57786e-20)
(1.14089 1.15427 0)
(1.07064 1.11649 -5.6589e-21)
(0.994852 1.07549 1.24427e-20)
(0.910529 1.03108 -2.9935e-21)
(0.817025 0.980505 7.20529e-21)
(0.71267 0.919911 1.22625e-19)
(0.611796 0.852733 1.35396e-19)
(0.529586 0.781525 1.00347e-19)
(0.454197 0.68182 1.15318e-19)
(0.352415 0.514705 -1.24944e-19)
(0.230105 0.314681 -1.27956e-19)
(0.104888 0.183889 0)
(0.0374869 0.894778 0)
(0.0845279 2.58625 3.19501e-20)
(0.0875282 3.21421 0)
(0.0891064 3.39008 8.33162e-20)
(0.236435 0.227865 0)
(1.00876 0.990115 0)
(1.16965 1.16706 0)
(1.17827 1.20016 4.81831e-21)
(1.12893 1.17825 1.51275e-20)
(1.05878 1.14049 -6.82467e-21)
(0.983405 1.09963 7.602e-21)
(0.898378 1.05556 -2.89596e-21)
(0.803671 1.00573 5.95423e-20)
(0.69677 0.946497 -1.72366e-21)
(0.591242 0.881153 2.68354e-19)
(0.501202 0.810902 -1.16548e-20)
(0.412783 0.703814 1.40708e-20)
(0.301083 0.510851 1.81866e-20)
(0.17143 0.332648 -6.20412e-22)
(0.0868857 1.0194 3.49551e-22)
(0.120872 2.76822 -1.70393e-19)
(0.125484 3.30184 -6.42727e-20)
(0.116632 3.42347 3.39544e-20)
(0.10668 3.44315 -3.83564e-20)
(0.159814 0.173611 1.68445e-20)
(0.998034 1.01491 0)
(1.15864 1.18964 -4.01512e-20)
(1.16671 1.22308 -4.34032e-20)
(1.11746 1.20108 3.62238e-20)
(1.04778 1.16361 8.18729e-21)
(0.972217 1.12271 -7.30006e-21)
(0.886662 1.07922 3.0737e-20)
(0.790839 1.03046 -4.87292e-20)
(0.681572 0.973148 0)
(0.571393 0.910327 1.32531e-19)
(0.473225 0.842258 -8.23732e-20)
(0.371694 0.733253 0)
(0.241343 0.508307 1.76977e-20)
(0.124892 0.742507 4.19109e-20)
(0.135536 2.57397 -4.73561e-20)
(0.182808 3.32806 5.37498e-20)
(0.166078 3.43314 2.89313e-20)
(0.138189 3.45196 3.28636e-20)
(0.119339 3.46072 5.23262e-20)
(0.271093 0.265643 -3.24938e-20)
(0.980538 1.02508 0)
(1.14034 1.21559 4.34784e-20)
(1.15187 1.25429 4.80253e-20)
(1.09981 1.23477 -4.0997e-20)
(1.02953 1.19766 -1.31585e-20)
(0.952771 1.15831 3.85599e-21)
(0.866612 1.11611 2.44485e-21)
(0.76926 1.06962 4.58899e-20)
(0.656818 1.01647 1.05986e-19)
(0.540397 0.959942 7.42584e-21)
(0.429817 0.895079 7.35549e-20)
(0.294012 0.76418 1.33766e-20)
(0.20157 0.906834 -1.70653e-20)
(0.20757 2.45211 -3.83514e-20)
(0.258682 3.33168 3.77262e-20)
(0.241573 3.45782 -4.13419e-20)
(0.207631 3.47673 -2.38095e-20)
(0.174343 3.50128 -2.14766e-20)
(0.129392 3.49644 -3.12647e-21)
(0.261302 0.264546 0)
(0.977632 1.04798 1.26759e-20)
(1.13152 1.23926 -8.96688e-21)
(1.14069 1.27796 -5.73762e-21)
(1.08857 1.25815 -2.84434e-20)
(1.01827 1.22123 1.37857e-20)
(0.941169 1.18209 -8.30699e-22)
(0.854718 1.14075 2.14601e-21)
(0.756651 1.09579 -4.75074e-20)
(0.642549 1.04565 -2.75406e-21)
(0.522554 0.994038 -2.3969e-19)
(0.405067 0.93164 1.05534e-20)
(0.275133 0.837586 -1.26772e-20)
(0.237073 1.53959 -1.56996e-20)
(0.300354 3.14396 3.67238e-21)
(0.312927 3.45941 2.08312e-22)
(0.2717 3.50644 6.11475e-20)
(0.23799 3.53004 3.08952e-20)
(0.192373 3.55018 -9.80876e-21)
(0.142571 3.54694 -1.54619e-20)
(0.247368 0.262609 3.24845e-20)
(0.97381 1.07343 8.59985e-20)
(1.12235 1.26503 -2.56048e-20)
(1.12913 1.30326 -2.15868e-20)
(1.07686 1.283 0)
(1.00662 1.24611 2.56592e-20)
(0.929469 1.20725 1.90662e-21)
(0.842982 1.16672 1.82238e-21)
(0.744516 1.12341 -5.33873e-21)
(0.629303 1.07658 -9.52203e-20)
(0.506694 1.03051 -1.10378e-19)
(0.383161 0.969552 -8.6291e-20)
(0.278047 0.984839 -9.53467e-20)
(0.30303 2.31547 9.84896e-20)
(0.3814 3.38736 8.31755e-20)
(0.352504 3.51548 0)
(0.304767 3.55261 0)
(0.268254 3.58642 -7.71631e-21)
(0.224632 3.63148 0)
(0.155204 3.61646 -1.1858e-20)
(0.237585 0.264573 -4.85089e-20)
(0.968069 1.09975 -7.29062e-20)
(1.11181 1.29204 0)
(1.11632 1.32939 1.24711e-21)
(1.06391 1.30851 -3.09984e-20)
(0.993904 1.27157 4.20645e-20)
(0.917017 1.23303 3.04062e-21)
(0.830725 1.19324 7.79737e-22)
(0.732121 1.15156 -3.25661e-20)
(0.616242 1.10808 4.67159e-21)
(0.492001 1.06766 0)
(0.363528 1.01154 0)
(0.300312 1.28111 -8.64124e-20)
(0.382747 2.97592 3.51983e-20)
(0.446601 3.48594 4.4721e-20)