/*--------------------------------*- C++ -*----------------------------------*\
  =========                 |
  \\      /  F ield         | OpenFOAM: The Open Source CFD Toolbox
   \\    /   O peration     | Website:  https://openfoam.org
    \\  /    A nd           | Version:  6
     \\/     M anipulation  |
\*---------------------------------------------------------------------------*/
FoamFile
{
    version     2.0;
    format      ascii;
    class       volVectorField;
    location    "81.7";
    object      U;
}
// * * * * * * * * * * * * * * * * * * * * * * * * * * * * * * * * * * * * * //

dimensions      [0 1 -1 0 0 0 0];

internalField   nonuniform List<vector> 
8800
(
(0.987184 -0.0766655 0)
(1.00189 -0.0551905 0)
(0.999724 -0.0285485 0)
(1.00003 -0.0151432 0)
(1.0001 -0.00854377 0)
(1.00012 -0.00504509 0)
(1.00008 -0.00299941 0)
(1.00003 -0.00169925 0)
(0.999995 -0.000793368 0)
(1.00006 -7.81375e-05 0)
(0.999963 0.000653505 0)
(0.999985 0.0014227 0)
(1.00004 0.00243769 0)
(1.00006 0.00400348 0)
(1.00005 0.00663546 0)
(1.00003 0.0113739 0)
(0.999931 0.0208165 0)
(0.999164 0.0386715 0)
(1.0071 0.0724576 0)
(0.771214 0.0366615 0)
(0.363074 -0.016017 0)
(1.04331 -0.0768145 0)
(1.0846 -0.0704447 0)
(1.04519 -0.0535395 0)
(1.02329 -0.0388904 0)
(1.01202 -0.0262117 0)
(1.00643 -0.0168493 0)
(1.00359 -0.0103165 0)
(1.00215 -0.00565505 0)
(1.00144 -0.00199465 0)
(1.00129 0.00132782 0)
(1.00165 0.00471412 0)
(1.00266 0.00864616 0)
(1.00467 0.0139694 0)
(1.0086 0.0216755 0)
(1.01656 0.0326431 0)
(1.03249 0.0465551 0)
(1.06266 0.0616709 0)
(1.09187 0.0761033 0)
(0.838667 0.0565631 0)
(0.216856 -0.00242934 0)
(1.07591 -0.050131 0)
(1.09988 -0.0483035 0)
(1.06465 -0.040454 0)
(1.04004 -0.0335929 0)
(1.02392 -0.0260677 0)
(1.01412 -0.0184808 0)
(1.00856 -0.0116564 0)
(1.00558 -0.00578308 0)
(1.00431 -0.00036062 0)
(1.00464 0.00488837 0)
(1.00658 0.0102823 0)
(1.01062 0.0163617 0)
(1.01794 0.0233756 0)
(1.03052 0.0308389 0)
(1.05061 0.0378654 0)
(1.08035 0.0445463 0)
(1.10626 0.0513577 0)
(0.942509 0.0416237 0)
(0.216132 0.00246237 0)
(0.175191 -0.00081593 0)
(1.01772 -0.0354767 0)
(1.10521 -0.0413667 0)
(1.07827 -0.0360467 0)
(1.05348 -0.0301071 0)
(1.03621 -0.0245253 0)
(1.02401 -0.0187902 0)
(1.01588 -0.0127026 0)
(1.01101 -0.00650666 0)
(1.00879 -0.000164782 0)
(1.00935 0.00609469 0)
(1.01262 0.0120956 0)
(1.01888 0.0179125 0)
(1.02876 0.0234735 0)
(1.04318 0.0287711 0)
(1.0637 0.0342486 0)
(1.09355 0.0402287 0)
(1.09339 0.0419841 0)
(0.827086 0.022924 0)
(0.173971 0.000854059 0)
(0.154001 -0.0006097 0)
(0.956243 -0.0254463 0)
(1.10349 -0.0351068 0)
(1.0877 -0.0326232 0)
(1.06174 -0.0279628 0)
(1.04413 -0.0229302 0)
(1.03166 -0.0176736 0)
(1.0228 -0.0121311 0)
(1.01697 -0.00618364 0)
(1.0141 0.000294809 0)
(1.01475 0.00676126 0)
(1.01874 0.0126469 0)
(1.0258 0.0179183 0)
(1.03608 0.0228186 0)
(1.05062 0.0275728 0)
(1.07186 0.0320953 0)
(1.10005 0.0360224 0)
(1.06803 0.0340683 0)
(0.739408 0.0143296 0)
(0.152161 0.00065299 0)
(0.139645 -0.000465761 0)
(0.899396 -0.0190587 0)
(1.09584 -0.0300457 0)
(1.09578 -0.0291432 0)
(1.06928 -0.025401 0)
(1.05085 -0.0212494 0)
(1.03791 -0.0164628 0)
(1.02879 -0.0111609 0)
(1.02265 -0.00540186 0)
(1.01949 0.000937758 0)
(1.02008 0.00725579 0)
(1.02418 0.0128916 0)
(1.03136 0.0178272 0)
(1.04185 0.0222718 0)
(1.05696 0.0262314 0)
(1.07915 0.0296821 0)
(1.10223 0.0322968 0)
(1.03586 0.0281736 0)
(0.672741 0.0102336 0)
(0.137044 0.000515684 0)
(0.129127 -0.000360138 0)
(0.849885 -0.0146894 0)
(1.0835 -0.0258986 0)
(1.10149 -0.026173 0)
(1.07616 -0.0228724 0)
(1.0572 -0.0192124 0)
(1.0438 -0.0149484 0)
(1.03432 -0.0100045 0)
(1.02793 -0.00445103 0)
(1.02457 0.001714 0)
(1.025 0.00782133 0)
(1.02906 0.0131795 0)
(1.03634 0.0176956 0)
(1.04709 0.0215322 0)
(1.0626 0.0248256 0)
(1.08523 0.0277532 0)
(1.10128 0.0294922 0)
(1.00083 0.0236791 0)
(0.620769 0.00787719 0)
(0.125598 0.000418855 0)
(0.121113 -0.000279178 0)
(0.807853 -0.0115232 0)
(1.0683 -0.0222708 0)
(1.10506 -0.0235108 0)
(1.08245 -0.0206186 0)
(1.06307 -0.0171688 0)
(1.04939 -0.0132068 0)
(1.03962 -0.00859478 0)
(1.03295 -0.00330796 0)
(1.02932 0.0026428 0)
(1.02956 0.00850461 0)
(1.03356 0.0135165 0)
(1.0409 0.0175537 0)
(1.05175 0.0208794 0)
(1.06747 0.0237594 0)
(1.09043 0.026383 0)
(1.09743 0.0272189 0)
(0.965389 0.0201647 0)
(0.57893 0.00635221 0)
(0.116457 0.000348998 0)
(0.114917 -0.000215618 0)
(0.772527 -0.00915077 0)
(1.05165 -0.0190713 0)
(1.1075 -0.02104 0)
(1.08836 -0.0185123 0)
(1.06859 -0.0152012 0)
(1.05467 -0.0113949 0)
(1.0447 -0.00698627 0)
(1.03777 -0.00193294 0)
(1.03385 0.0037697 0)
(1.03385 0.00933307 0)
(1.03772 0.0139691 0)
(1.04498 0.0175775 0)
(1.05581 0.0205122 0)
(1.07172 0.0230652 0)
(1.09433 0.0253389 0)
(1.0907 0.0253516 0)
(0.930831 0.0174661 0)
(0.544199 0.00531658 0)
(0.108891 0.000299107 0)
(0.110107 -0.000164328 0)
(0.74297 -0.00730496 0)
(1.0346 -0.0162287 0)
(1.10901 -0.0187035 0)
(1.09399 -0.0164745 0)
(1.07394 -0.0132486 0)
(1.05975 -0.00952418 0)
(1.04958 -0.00522798 0)
(1.04241 -0.000339617 0)
(1.03819 0.00512953 0)
(1.03787 0.010384 0)
(1.0415 0.0146596 0)
(1.04861 0.0178856 0)
(1.05938 0.0204714 0)
(1.07548 0.02273 0)
(1.09692 0.0246184 0)
(1.08149 0.0238468 0)
(0.897701 0.0154345 0)
(0.514515 0.00460142 0)
(0.102416 0.000264497 0)
(0.106399 -0.000121517 0)
(0.718368 -0.00581134 0)
(1.018 -0.0136708 0)
(1.10973 -0.0164371 0)
(1.09955 -0.0144715 0)
(1.07923 -0.0112486 0)
(1.06474 -0.00754421 0)
(1.05434 -0.00329971 0)
(1.0469 0.00148373 0)
(1.04233 0.0067606 0)
(1.04161 0.0117281 0)
(1.04492 0.0156671 0)
(1.05182 0.0185269 0)
(1.06251 0.0207771 0)
(1.07878 0.0227638 0)
(1.09814 0.0242349 0)
(1.07015 0.022706 0)
(0.866094 0.0139543 0)
(0.488411 0.00411679 0)
(0.0966877 0.000242155 0)
(0.103608 -8.41976e-05 0)
(0.698088 -0.00455349 0)
(1.00247 -0.0113297 0)
(1.1098 -0.0142036 0)
(1.10496 -0.0124153 0)
(1.08454 -0.00914655 0)
(1.06973 -0.00540319 0)
(1.05905 -0.00114863 0)
(1.05129 0.00358942 0)
(1.04628 0.00872494 0)
(1.04508 0.0134404 0)
(1.04801 0.0170643 0)
(1.05466 0.0195654 0)
(1.06523 0.0214814 0)
(1.08162 0.0231997 0)
(1.0983 0.0242992 0)
(1.05694 0.0219422 0)
(0.835822 0.0129391 0)
(0.464778 0.00380772 0)
(0.0914425 0.000229693 0)
(0.101617 -4.9658e-05 0)
(0.681665 -0.00344405 0)
(0.988466 -0.00913348 0)
(1.10945 -0.0119146 0)
(1.11022 -0.0102245 0)
(1.08994 -0.00688238 0)
(1.07479 -0.00303654 0)
(1.06378 0.00129566 0)
(1.05562 0.00605038 0)
(1.05008 0.0110992 0)
(1.04831 0.0155945 0)
(1.05076 0.0189104 0)
(1.0571 0.0210499 0)
(1.06754 0.0226334 0)
(1.08395 0.0240668 0)
(1.09749 0.0247362 0)
(1.04197 0.021566 0)
(0.806519 0.0123173 0)
(0.442739 0.00363671 0)
(0.0864728 0.000225059 0)
(0.100366 -1.56363e-05 0)
(0.668809 -0.00241353 0)
(0.976356 -0.00700695 0)
(1.10902 -0.00951192 0)
(1.11548 -0.00783568 0)
(1.09554 -0.0043743 0)
(1.08 -0.000360564 0)
(1.0686 0.0041174 0)
(1.05994 0.00895592 0)
(1.05377 0.0139687 0)
(1.0513 0.0182729 0)
(1.05319 0.0212956 0)
(1.05916 0.0230635 0)
(1.06942 0.0243021 0)
(1.08581 0.0254472 0)
(1.09542 0.0256167 0)
(1.02528 0.0215782 0)
(0.777726 0.0120378 0)
(0.421575 0.00357857 0)
(0.0816126 0.000226876 0)
(0.0998456 2.06399e-05 0)
(0.659375 -0.0014066 0)
(0.966459 -0.00487718 0)
(1.10882 -0.00693588 0)
(1.12086 -0.00517933 0)
(1.10141 -0.00154175 0)
(1.08544 0.00271062 0)
(1.07358 0.00741004 0)
(1.06433 0.0124038 0)
(1.05739 0.0174409 0)
(1.05407 0.021586 0)
(1.05528 0.0243184 0)
(1.06082 0.0257146 0)
(1.07086 0.0265902 0)
(1.08713 0.0274059 0)
(1.09197 0.0269985 0)
(1.0068 0.022019 0)
(0.748923 0.0120766 0)
(0.400678 0.00362019 0)
(0.0767233 0.000234513 0)
(0.100072 5.25691e-05 0)
(0.653348 -0.000367657 0)
(0.959081 -0.00266857 0)
(1.10921 -0.00411504 0)
(1.12654 -0.00216604 0)
(1.10765 0.00172288 0)
(1.09123 0.00629623 0)
(1.0788 0.0112978 0)
(1.06884 0.0165247 0)
(1.06097 0.0216448 0)
(1.05663 0.0256541 0)
(1.05703 0.0280953 0)
(1.06205 0.0291161 0)
(1.07182 0.0296033 0)
(1.08763 0.0300432 0)
(1.08684 0.0289326 0)
(0.986297 0.0229217 0)
(0.719521 0.0124182 0)
(0.379486 0.00375199 0)
(0.0716796 0.000247162 0)
(0.101127 0.000104503 0)
(0.650855 0.000747374 0)
(0.954543 -0.000303405 0)
(1.11056 -0.00097105 0)
(1.13272 0.00130345 0)
(1.1144 0.00553804 0)
(1.09746 0.0105218 0)
(1.08437 0.0159187 0)
(1.07353 0.0214631 0)
(1.06453 0.0267287 0)
(1.05897 0.0306308 0)
(1.05842 0.0327688 0)
(1.06282 0.0334015 0)
(1.07225 0.0334749 0)
(1.08717 0.0334892 0)
(1.07979 0.0315143 0)
(0.963438 0.0243271 0)
(0.68887 0.0130528 0)
(0.357471 0.00396572 0)
(0.0663718 0.000263947 0)
(0.103158 0.000158132 0)
(0.652173 0.00187602 0)
(0.953204 0.00230041 0)
(1.11333 0.0025997 0)
(1.13962 0.00533367 0)
(1.1218 0.0100381 0)
(1.10427 0.015544 0)
(1.09037 0.0214451 0)
(1.07848 0.0274008 0)
(1.06811 0.0328752 0)
(1.0611 0.0366865 0)
(1.05942 0.0384788 0)
(1.06308 0.0387174 0)
(1.07209 0.0383457 0)
(1.0855 0.0378458 0)
(1.07049 0.0348427 0)
(0.937738 0.026274 0)
(0.656269 0.0139736 0)
(0.334142 0.00425255 0)
(0.0607068 0.000283867 0)
(0.106257 0.000222326 0)
(0.657833 0.00334765 0)
(0.955479 0.00523017 0)
(1.11798 0.00674624 0)
(1.14747 0.0100912 0)
(1.13003 0.0154225 0)
(1.1118 0.0215809 0)
(1.09693 0.0281052 0)
(1.08374 0.0345674 0)
(1.07173 0.0402954 0)
(1.063 0.0440002 0)
(1.06001 0.0454291 0)
(1.06278 0.0452385 0)
(1.07128 0.0443727 0)
(1.08256 0.0433251 0)
(1.05851 0.0390292 0)
(0.90855 0.0288058 0)
(0.620955 0.015167 0)
(0.309035 0.00459987 0)
(0.0546117 0.000305427 0)
(0.110713 0.000308299 0)
(0.668208 0.00506926 0)
(0.961927 0.0087285 0)
(1.12504 0.0116196 0)
(1.15661 0.0157704 0)
(1.13932 0.021915 0)
(1.12025 0.0288772 0)
(1.10417 0.0361625 0)
(1.08938 0.0432269 0)
(1.07538 0.0492498 0)
(1.06463 0.0528196 0)
(1.06009 0.0538267 0)
(1.06185 0.0531603 0)
(1.06975 0.0517403 0)
(1.07833 0.0500234 0)
(1.04326 0.04418 0)
(0.875057 0.03193 0)
(0.582119 0.0165964 0)
(0.281746 0.00498496 0)
(0.0480447 0.000326241 0)
(0.116879 0.00042235 0)
(0.6841 0.00721888 0)
(0.973203 0.0129544 0)
(1.13505 0.0174515 0)
(1.16736 0.0226323 0)
(1.14993 0.0298424 0)
(1.1298 0.0377915 0)
(1.1122 0.0459792 0)
(1.09544 0.053722 0)
(1.07904 0.0600295 0)
(1.06593 0.0633779 0)
(1.05951 0.0638536 0)
(1.06024 0.0626813 0)
(1.06752 0.0606497 0)
(1.0725 0.0581288 0)
(1.02396 0.0503772 0)
(0.836261 0.0356243 0)
(0.538952 0.0181946 0)
(0.251992 0.00537345 0)
(0.0410127 0.000343216 0)
(0.125282 0.000583659 0)
(0.706464 0.0100275 0)
(0.990161 0.0182121 0)
(1.14871 0.0245887 0)
(1.18025 0.0310805 0)
(1.16221 0.0396759 0)
(1.14067 0.0488147 0)
(1.12112 0.0580346 0)
(1.10189 0.0664765 0)
(1.08262 0.0729677 0)
(1.06678 0.0759328 0)
(1.05828 0.0757394 0)
(1.05786 0.0739864 0)
(1.0644 0.0712383 0)
(1.06457 0.0676747 0)
(0.999557 0.0576528 0)
(0.790988 0.0397793 0)
(0.490722 0.0198354 0)
(0.219678 0.00571354 0)
(0.033588 0.000352382 0)
(0.136662 0.000814104 0)
(0.736624 0.0138833 0)
(1.01397 0.0249732 0)
(1.16678 0.0335766 0)
(1.19592 0.041703 0)
(1.17652 0.0520701 0)
(1.15305 0.0626044 0)
(1.13094 0.0729299 0)
(1.10863 0.0819865 0)
(1.08596 0.0884486 0)
(1.06703 0.0907641 0)
(1.0563 0.0897103 0)
(1.05472 0.0873258 0)
(1.06003 0.0837013 0)
(1.05376 0.0788658 0)
(0.968715 0.0659131 0)
(0.737963 0.0441717 0)
(0.436941 0.0213218 0)
(0.185033 0.00593628 0)
(0.0259313 0.000349197 0)
(0.152319 0.00118022 0)
(0.776601 0.0194092 0)
(1.04628 0.0340283 0)
(1.19023 0.0453619 0)
(1.2152 0.0557857 0)
(1.19322 0.0680997 0)
(1.167 0.0801549 0)
(1.14151 0.0914772 0)
(1.11541 0.100832 0)
(1.08879 0.106815 0)
(1.06648 0.108066 0)
(1.05341 0.105904 0)
(1.05069 0.102793 0)
(1.05419 0.0983804 0)
(1.03906 0.0916754 0)
(0.929675 0.0749014 0)
(0.675963 0.0483967 0)
(0.377617 0.022378 0)
(0.148729 0.00596276 0)
(0.0183011 0.000329623 0)
(0.174466 0.00181155 0)
(0.829631 0.0277546 0)
(1.08987 0.0469388 0)
(1.22019 0.0618247 0)
(1.23859 0.0751506 0)
(1.2124 0.0894251 0)
(1.18226 0.102817 0)
(1.15239 0.114644 0)
(1.12175 0.123627 0)
(1.09072 0.128418 0)
(1.06485 0.128027 0)
(1.04943 0.124414 0)
(1.0456 0.120387 0)
(1.04684 0.114979 0)
(1.01898 0.105907 0)
(0.880271 0.0840603 0)
(0.604218 0.0518579 0)
(0.313687 0.0226782 0)
(0.112027 0.00572003 0)
(0.0110548 0.000290276 0)
(0.206518 0.0032027 0)
(0.901512 0.0415965 0)
(1.14804 0.0675501 0)
(1.25701 0.0865234 0)
(1.26589 0.102735 0)
(1.23341 0.118425 0)
(1.19797 0.132206 0)
(1.16275 0.143397 0)
(1.12698 0.150882 0)
(1.09127 0.153478 0)
(1.06183 0.150715 0)
(1.04418 0.145252 0)
(1.03933 0.140123 0)
(1.03727 0.133572 0)
(0.991347 0.121047 0)
(0.818012 0.0924163 0)
(0.523289 0.0537989 0)
(0.247771 0.0219966 0)
(0.0769894 0.00518557 0)
(0.00468408 0.000228051 0)
(0.250247 0.00952649 9.03227e-21)
(0.996135 0.069008 7.75646e-21)
(1.2184 0.102555 -2.71362e-21)
(1.29766 0.123234 0)
(1.29413 0.14224 -6.96947e-35)
(1.25403 0.157488 1.02044e-21)
(1.21254 0.169841 -1.84889e-21)
(1.17151 0.178949 0)
(1.13032 0.183849 3.83322e-35)
(1.0897 0.183463 -2.31975e-21)
(1.05655 0.177907 0)
(1.03667 0.170549 -2.77872e-21)
(1.03133 0.164698 -8.21831e-21)
(1.02376 0.157521 -3.89678e-21)
(0.950961 0.139316 -1.17531e-21)
(0.735689 0.100623 -6.9857e-22)
(0.428248 0.0541279 0)
(0.179089 0.0206296 4.88973e-22)
(0.0438041 0.00453651 5.79077e-22)
(-0.000853041 0.000124097 1.05844e-20)
(0.280629 0.0250206 6.31996e-21)
(1.07461 0.112356 1.14651e-22)
(1.27641 0.152429 7.09519e-22)
(1.33441 0.17305 0)
(1.31903 0.192205 -3.47969e-21)
(1.27189 0.205357 -3.97075e-21)
(1.22446 0.215474 -1.85022e-21)
(1.17765 0.22221 -6.62346e-21)
(1.13093 0.224549 0)
(1.08519 0.221359 9.81356e-21)
(1.04808 0.213231 9.76697e-21)
(1.02579 0.204161 2.90505e-21)
(1.01778 0.196864 1.06543e-20)
(0.998291 0.186938 1.50508e-20)
(0.885112 0.159431 0)
(0.621582 0.107774 2.12355e-20)
(0.317087 0.0533668 3.04621e-20)
(0.108931 0.0182984 3.38957e-20)
(0.0116814 0.00272616 -3.88794e-20)
(-0.00604822 -0.000463763 -7.41726e-22)
(0.282234 0.042304 0)
(1.12489 0.168377 1.01827e-21)
(1.31608 0.213406 0)
(1.36324 0.233708 -4.34516e-21)
(1.33878 0.249973 0)
(1.28572 0.259216 -7.68985e-21)
(1.23275 0.265598 3.74658e-21)
(1.18047 0.268791 -1.32162e-20)
(1.12857 0.267654 -3.24612e-22)
(1.0781 0.260952 5.03872e-21)
(1.03747 0.249783 2.14039e-20)
(1.01311 0.238728 -3.12616e-23)
(1.00209 0.229639 -7.71969e-21)
(0.969837 0.215925 -1.40817e-20)
(0.823134 0.177882 1.67004e-20)
(0.534933 0.113179 -2.95668e-20)
(0.247916 0.0521825 -3.89641e-21)
(0.0695079 0.0158008 0)
(-0.00574037 0.000369501 -3.73461e-24)
(-0.00881768 -0.00121257 0)
(0.275591 0.0567907 1.14755e-20)
(1.15245 0.2281 -5.84079e-21)
(1.34096 0.278984 -4.81903e-21)
(1.38254 0.299645 1.99337e-21)
(1.35188 0.312025 -3.35709e-21)
(1.29441 0.31668 1.59845e-20)
(1.23692 0.318591 7.75218e-21)
(1.17999 0.317513 0)
(1.12353 0.312242 -2.49999e-20)
(1.06887 0.301447 0)
(1.02516 0.286808 -1.11534e-20)
(0.99897 0.27344 -1.38598e-20)
(0.984989 0.262143 -8.3627e-21)
(0.94128 0.243473 -1.01835e-20)
(0.770743 0.195028 0)
(0.474539 0.119026 0)
(0.205477 0.0525699 -2.52422e-20)
(0.0444789 0.0135639 4.98395e-21)
(-0.0182374 -0.00243077 -2.93562e-21)
(-0.0111485 -0.00212786 -3.47774e-21)
(0.26753 0.0694658 -3.00312e-21)
(1.16478 0.287682 0)
(1.35488 0.345508 8.96927e-21)
(1.39334 0.366948 5.37744e-21)
(1.35839 0.375423 7.84732e-21)
(1.29775 0.375473 0)
(1.23678 0.372769 7.46873e-21)
(1.17608 0.367176 1.44602e-20)
(1.11579 0.357437 1.27093e-20)
(1.0575 0.34219 2.35394e-20)
(1.01107 0.323722 0)
(0.983301 0.307674 -2.97198e-20)
(0.966557 0.293674 -1.79395e-20)
(0.913572 0.269599 -1.06159e-20)
(0.728383 0.211415 6.50933e-20)
(0.433993 0.125701 7.72634e-21)
(0.179415 0.0537401 3.63853e-20)
(0.0275897 0.0110733 -1.7205e-19)
(-0.0284353 -0.00584212 1.01904e-19)
(-0.0134986 -0.003255 -1.24389e-19)
(0.259617 0.0807868 5.61625e-22)
(1.16726 0.345168 4.75101e-22)
(1.3608 0.411072 -7.59721e-22)
(1.3973 0.433652 -4.80316e-21)
(1.3593 0.438439 -6.23618e-21)
(1.2963 0.43404 3.60951e-22)
(1.23262 0.426831 -8.08207e-21)
(1.16887 0.416749 1.48245e-20)
(1.10537 0.402467 -2.72575e-20)
(1.04392 0.38261 0)
(0.995067 0.360068 -1.34174e-20)
(0.965784 0.341046 -3.07238e-22)
(0.946536 0.324022 -1.95785e-20)
(0.88683 0.294344 0)
(0.694662 0.227179 -1.40463e-20)
(0.407419 0.133145 -3.32907e-20)
(0.163572 0.0553677 8.8588e-20)
(0.0161045 0.00845754 -8.72434e-20)
(-0.0369009 -0.00972625 1.24034e-19)
(-0.0158698 -0.0045902 -1.3051e-19)
(0.252724 0.0911464 -1.10522e-22)
(1.16351 0.399839 4.44464e-22)
(1.36089 0.474635 -1.02646e-21)
(1.3959 0.498626 1.61393e-21)
(1.35567 0.500059 -3.06497e-21)
(1.29089 0.491455 0)
(1.22504 0.479949 -7.35956e-21)
(1.15876 0.465527 -1.54529e-20)
(1.0925 0.446785 -1.41038e-20)
(1.02824 0.422292 0)
(0.977147 0.395571 -1.38118e-20)
(0.946416 0.373297 -1.71774e-20)
(0.925027 0.353043 2.11608e-20)
(0.86084 0.317656 -1.28505e-20)
(0.667252 0.242566 -6.09556e-20)
(0.390031 0.141123 3.6095e-20)
(0.154501 0.0575496 1.06906e-20)
(0.00929644 0.00591002 0)
(-0.0430756 -0.0137585 -1.19334e-19)
(-0.0180238 -0.00606068 -4.42944e-21)
(0.247033 0.100889 7.88117e-22)
(1.15584 0.451516 -1.07098e-21)
(1.35665 0.53564 2.54556e-22)
(1.39038 0.561181 6.15674e-21)
(1.34847 0.559641 -1.06953e-20)
(1.28234 0.547155 1.41222e-20)
(1.21473 0.531632 1.58347e-20)
(1.14628 0.513092 -2.46514e-20)
(1.07758 0.490049 8.78927e-21)
(1.01074 0.461009 -5.75151e-20)
(0.957523 0.430056 -1.56509e-20)
(0.925338 0.404412 0)
(0.901985 0.380712 2.29239e-20)
(0.83474 0.339906 2.74734e-20)
(0.644024 0.257715 3.27953e-20)
(0.378032 0.149744 -3.90936e-20)
(0.15046 0.0602828 -1.15636e-20)
(0.00674675 0.00396503 1.35924e-20)
(-0.0464155 -0.0173866 0)
(-0.0196445 -0.00750791 -9.59066e-21)
(0.242461 0.110105 -1.33315e-20)
(1.14598 0.500269 7.03875e-21)
(1.34938 0.593962 9.77468e-23)
(1.38175 0.620965 3.27732e-21)
(1.33851 0.616797 -4.44327e-21)
(1.27136 0.600771 -8.39121e-22)
(1.20231 0.581572 -1.73582e-20)
(1.13198 0.559203 -8.93181e-21)
(1.06106 0.532066 -2.4495e-20)
(0.9918 0.498626 6.23752e-23)
(0.93648 0.463477 -4.89061e-20)
(0.902787 0.434391 4.1451e-20)
(0.877582 0.407177 -2.51845e-20)
(0.808351 0.361149 3.02361e-20)
(0.622729 0.27277 0)
(0.368527 0.158866 -2.12424e-20)
(0.148969 0.0637986 6.48975e-23)
(0.00730402 0.00307745 -5.9213e-20)
(-0.0469615 -0.0200844 -8.72721e-21)
(-0.0204447 -0.00873052 0)
(0.238952 0.119056 0)
(1.13497 0.546339 8.26399e-21)
(1.33997 0.649828 2.60661e-21)
(1.37083 0.677822 -2.51932e-21)
(1.32651 0.671322 -6.11329e-21)
(1.25858 0.652106 0)
(1.18832 0.629578 -7.67089e-21)
(1.11634 0.603701 -2.14552e-22)
(1.04336 0.572743 5.25249e-20)
(0.971757 0.535081 -7.88102e-21)
(0.914331 0.49583 -3.53542e-20)
(0.87905 0.463294 2.15413e-20)
(0.852014 0.432617 -4.39259e-22)
(0.78146 0.381605 3.22523e-20)
(0.602112 0.287376 1.96331e-20)
(0.359528 0.168274 -4.58134e-20)
(0.148307 0.067975 5.41924e-20)
(0.00970642 0.0032539 1.60746e-20)
(-0.0453297 -0.0217691 6.6465e-20)
(-0.0204767 -0.00963233 -1.79781e-19)
(0.236418 0.12789 -4.72201e-21)
(1.12359 0.589905 6.10491e-21)
(1.32906 0.702764 -3.93678e-21)
(1.35829 0.731709 1.01917e-21)
(1.31306 0.723123 0)
(1.2445 0.70105 -5.98811e-21)
(1.17322 0.675546 2.60585e-20)
(1.09976 0.646495 1.95385e-20)
(1.02486 0.612024 0)
(0.95093 0.570362 -1.13962e-19)
(0.891351 0.527127 9.5879e-20)
(0.854416 0.491178 0)
(0.825614 0.457081 2.95235e-20)
(0.754071 0.401196 -4.23355e-22)
(0.581017 0.30145 -6.33297e-20)
(0.349727 0.177567 2.47431e-20)
(0.147365 0.0724954 0)
(0.0128418 0.00430631 8.69173e-20)
(-0.0422074 -0.0224603 0)
(-0.0198627 -0.0101905 -8.52584e-20)
(0.234749 0.136634 5.73312e-21)
(1.1123 0.631196 8.18401e-21)
(1.31709 0.752836 -3.8343e-21)
(1.34466 0.782649 0)
(1.29862 0.772195 -4.48997e-21)
(1.22959 0.747579 0)
(1.15743 0.719426 -2.53826e-20)
(1.08262 0.687533 -8.92681e-21)
(1.00587 0.649885 9.23353e-21)
(0.929624 0.604499 -5.64642e-20)
(0.867796 0.557406 9.90256e-21)
(0.82915 0.518076 0)
(0.798582 0.480535 -6.32528e-20)
(0.726109 0.419827 3.91179e-22)
(0.559069 0.314579 0)
(0.338623 0.186241 1.13506e-22)
(0.145129 0.0769458 7.95913e-20)
(0.0156461 0.005935 -7.52439e-20)
(-0.0384817 -0.0223348 2.22751e-20)
(-0.0188137 -0.0104114 0)
(0.233598 0.14524 0)
(1.1013 0.6704 1.00221e-20)
(1.30451 0.800158 6.01608e-21)
(1.33035 0.830717 -5.25475e-22)
(1.28361 0.818577 -9.21204e-22)
(1.21419 0.791704 -1.3542e-20)
(1.14128 0.761214 9.65286e-21)
(1.06522 0.726805 -1.07103e-20)
(0.986693 0.686317 4.14793e-20)
(0.908088 0.637528 -9.06049e-20)
(0.843874 0.586723 -8.93474e-22)
(0.803441 0.543994 -2.77021e-20)
(0.771143 0.502887 1.02911e-19)
(0.697785 0.43729 -4.95423e-22)
(0.536193 0.326478 -4.94792e-20)
(0.325784 0.193813 -8.75301e-20)
(0.141294 0.0809486 0)
(0.017494 0.0076754 0)
(-0.0348983 -0.0217762 2.4094e-20)
(-0.0175764 -0.0104081 -1.43142e-20)
(0.233106 0.153883 8.22688e-21)
(1.09083 0.707404 -2.29069e-20)
(1.29165 0.844833 -6.45967e-21)
(1.3157 0.876 0)
(1.26831 0.86233 -3.08456e-22)
(1.19861 0.833464 -1.17735e-20)
(1.12503 0.800928 2.29349e-20)
(1.04783 0.764317 4.18461e-20)
(0.967569 0.72134 5.39553e-20)
(0.886543 0.669485 -7.42024e-20)
(0.819789 0.615152 -8.31689e-20)
(0.777422 0.56895 7.42954e-20)
(0.743388 0.52402 0)
(0.669134 0.453256 -2.26497e-20)
(0.512075 0.33682 -5.3497e-20)
(0.311512 0.19983 -6.3097e-20)
(0.135876 0.0839983 -7.44375e-20)
(0.0181528 0.0090877 2.20412e-20)
(-0.0318228 -0.0211065 -1.2992e-20)
(-0.0163341 -0.0102809 7.09074e-23)
(0.23285 0.162367 0)
(1.0811 0.742557 0)
(1.27872 0.886966 5.10382e-22)
(1.30093 0.918603 0)
(1.25299 0.903546 3.51123e-22)
(1.18306 0.872924 7.46565e-21)
(1.10892 0.838602 0)
(1.03066 0.800091 4.90934e-21)
(0.94871 0.754971 9.02383e-20)
(0.86521 0.700417 -1.71141e-19)
(0.795704 0.642777 0)
(0.751186 0.593 -4.80827e-20)
(0.715351 0.543832 -5.83061e-22)
(0.640217 0.467383 -4.04645e-22)
(0.487395 0.345094 5.75578e-20)
(0.296072 0.203995 3.12999e-23)
(0.129165 0.0857938 -1.60639e-19)
(0.0177791 0.00992872 4.74647e-20)
(-0.0293375 -0.0205073 1.40864e-20)
(-0.0151628 -0.0100808 0)
(0.232807 0.170647 -3.34773e-20)
(1.07185 0.776046 -1.57256e-20)
(1.2658 0.926632 -1.97932e-20)
(1.28626 0.958636 1.75004e-20)
(1.23784 0.9423 -2.44513e-21)
(1.16775 0.91015 0)
(1.09312 0.874288 1.36976e-20)
(1.01388 0.834158 -1.10622e-20)
(0.930301 0.787236 8.01876e-22)
(0.844284 0.730379 1.26875e-20)
(0.771772 0.669694 1.0852e-19)
(0.724788 0.616246 -1.69085e-20)
(0.686954 0.562274 -6.39786e-20)
(0.610949 0.479345 -2.65115e-20)
(0.462306 0.350776 3.11786e-20)
(0.279975 0.205844 5.46715e-23)
(0.121793 0.0861339 4.33254e-20)
(0.0167318 0.0101388 -1.02299e-19)
(-0.0274023 -0.0200557 1.21389e-19)
(-0.0141278 -0.00987089 1.79189e-20)
(0.232782 0.178673 1.27841e-20)
(1.0631 0.807945 -8.90154e-21)
(1.25309 0.96396 1.30563e-21)
(1.27182 0.996225 1.17314e-20)
(1.223 0.978706 1.90591e-21)
(1.1528 0.945217 -1.26349e-20)
(1.07778 0.908039 3.77786e-21)
(0.997639 0.866545 -4.61421e-20)
(0.912496 0.818141 -9.99975e-20)
(0.823917 0.759389 -1.02635e-19)
(0.748151 0.696008 0)
(0.698264 0.638843 -7.4712e-20)
(0.658053 0.579382 9.2574e-20)
(0.581108 0.488814 0)
(0.43698 0.353277 -6.69936e-20)
(0.263809 0.204816 3.96717e-20)
(0.114743 0.0847934 -4.66831e-20)
(0.0157491 0.00990663 -5.51221e-20)
(-0.0258702 -0.0196353 -9.79006e-20)
(-0.0133041 -0.00969017 -7.73166e-20)
(0.2331 0.186582 -1.4558e-20)
(1.05471 0.838248 9.53815e-21)
(1.24063 0.999016 2.13958e-20)
(1.25774 1.03145 1.74939e-20)
(1.20858 1.01286 -3.16983e-21)
(1.13834 0.978212 -6.16175e-21)
(1.063 0.939907 1.28409e-20)
(0.982046 0.897298 -4.7392e-20)
(0.895402 0.847712 -5.9481e-20)
(0.804258 0.787476 1.07976e-19)
(0.724984 0.721808 2.40297e-19)
(0.671667 0.660983 0)
(0.62848 0.595313 0)
(0.550286 0.495592 -3.06008e-20)
(0.411189 0.351834 0)
(0.248522 0.199727 8.52909e-20)
(0.109931 0.0806616 1.00418e-19)
(0.0171048 0.00887994 0)
(-0.0238851 -0.0192868 0)
(-0.0129403 -0.00972135 8.32202e-20)
(0.233152 0.194046 1.66469e-20)
(1.04669 0.866962 1.31504e-20)
(1.22853 1.03192 1.56043e-20)
(1.24408 1.06443 -1.72366e-20)
(1.19466 1.04487 -4.84224e-21)
(1.12442 1.00921 5.29872e-21)
(1.04885 0.969952 -1.75887e-20)
(0.96718 0.926443 -1.85119e-22)
(0.87912 0.875957 -1.05421e-21)
(0.785434 0.814647 -7.92232e-22)
(0.702432 0.747175 1.24235e-19)
(0.645081 0.68285 0)
(0.598095 0.610349 9.46021e-20)
(0.517907 0.499759 6.57131e-20)
(0.384091 0.345826 1.5697e-19)
(0.233891 0.188373 4.60909e-20)
(0.109916 0.0698532 -5.40765e-20)
(0.0271447 0.00189488 -3.18676e-20)
(-0.013676 -0.0211854 0)
(-0.0114493 -0.00976195 8.95974e-20)
(0.233622 0.201548 -3.78554e-20)
(1.03901 0.894209 0)
(1.21677 1.06272 1.85904e-20)
(1.23087 1.09528 -1.47723e-20)
(1.18131 1.07484 7.43198e-21)
(1.11111 1.0383 -3.77542e-21)
(1.03539 0.99823 3.34571e-20)
(0.953093 0.954014 -3.88235e-21)
(0.863712 0.902883 0)
(0.767546 0.840877 -1.20029e-19)
(0.680654 0.772155 -2.71577e-19)
(0.618629 0.70463 1.11743e-20)
(0.566855 0.624848 1.31574e-19)
(0.483453 0.501817 0)
(0.354099 0.335415 1.06399e-19)
(0.216994 0.168485 0)
(0.112408 0.0428301 0)
(0.0536781 -0.0308215 -3.4452e-20)
(0.0367522 -0.0386491 0)
(0.0225934 0.00176365 2.4061e-20)
(0.233693 0.208508 -4.24634e-20)
(1.03164 0.920253 0)
(1.20535 1.09162 3.12175e-20)
(1.21808 1.12421 0)
(1.16848 1.10302 -4.80127e-21)
(1.09834 1.06578 0)
(1.02256 1.02505 1.4933e-21)
(0.939692 0.980345 6.59643e-21)
(0.849058 0.928849 7.56146e-21)
(0.75042 0.866534 -1.3223e-19)
(0.659456 0.7972 8.17e-21)
(0.591991 0.727001 9.05337e-20)
(0.53419 0.639646 1.28938e-19)
(0.445789 0.50251 1.73221e-20)
(0.318854 0.32197 8.38119e-20)
(0.191444 0.140535 0)
(0.102055 -0.00476074 1.14032e-19)
(0.0597643 -0.0635632 -6.69649e-20)
(0.0278661 0.0459755 7.83286e-20)
(-0.0386506 0.458763 -9.30627e-20)
(0.233747 0.215318 3.52904e-20)
(1.02435 0.944946 5.30572e-20)
(1.19419 1.11895 0)
(1.20556 1.15169 1.01765e-21)
(1.15598 1.13002 1.47515e-20)
(1.08583 1.09231 -9.73046e-22)
(1.01003 1.0512 1.11573e-20)
(0.926555 1.00637 0)
(0.834608 0.954941 4.98113e-20)
(0.733353 0.89291 -6.8713e-21)
(0.637878 0.823786 0)
(0.563773 0.751606 0)
(0.497835 0.655934 1.16172e-19)
(0.402042 0.502128 -5.36519e-20)
(0.274873 0.307162 -8.54518e-20)
(0.152004 0.107361 0)
(0.0605787 0.0210416 5.80751e-20)
(0.00445205 0.458217 -6.73785e-20)
(0.029561 1.9353 -3.78658e-20)
(0.0559236 2.82891 -4.64569e-20)
(0.233499 0.221601 -2.66896e-20)
(1.01719 0.968463 -6.84379e-20)
(1.18331 1.14471 1.8717e-20)
(1.19332 1.17759 1.49537e-20)
(1.14387 1.15562 0)
(1.0737 1.11764 -2.90959e-21)
(0.998031 1.07638 1.44442e-20)
(0.913883 1.03166 -3.17478e-21)
(0.82066 0.98065 7.49642e-21)
(0.71676 0.919419 1.26531e-19)
(0.616578 0.851296 1.3895e-19)
(0.534979 0.778366 1.0273e-19)
(0.458536 0.674098 1.17694e-19)
(0.353227 0.500117 -1.27198e-19)
(0.227616 0.295037 -1.29919e-19)
(0.102161 0.166167 0)
(0.0368218 0.899084 0)
(0.0835387 2.58832 3.23241e-20)
(0.0866078 3.2153 0)
(0.0882867 3.39051 8.43277e-20)
(0.236061 0.227504 0)
(1.01049 0.991198 0)
(1.17239 1.16876 0)
(1.18117 1.20176 4.60056e-21)
(1.13182 1.1796 1.36923e-20)
(1.06174 1.14161 -4.78149e-21)
(0.986484 1.10049 9.00258e-21)
(0.901611 1.05609 -3.08574e-21)
(0.807149 1.0058 6.22423e-20)
(0.700633 0.945896 -1.68416e-21)
(0.595653 0.879527 2.75845e-19)
(0.50598 0.807381 -1.19345e-20)
(0.41617 0.695159 1.43906e-20)
(0.301046 0.494898 1.85304e-20)
(0.169311 0.312941 -6.5894e-22)
(0.0852922 1.02194 3.50219e-22)
(0.119483 2.7706 -1.72756e-19)
(0.124064 3.30217 -6.51351e-20)
(0.115495 3.42343 3.44337e-20)
(0.10576 3.44305 -3.89367e-20)
(0.159389 0.173207 1.6407e-20)
(0.999578 1.0159 0)
(1.16124 1.19131 -3.87317e-20)
(1.16952 1.22466 -4.1307e-20)
(1.12026 1.20241 3.3376e-20)
(1.05065 1.16471 6.04526e-21)
(0.975184 1.12353 -8.90808e-21)
(0.88977 1.0797 3.33398e-20)
(0.794155 1.03047 -5.11004e-20)
(0.685199 0.972459 0)
(0.575412 0.908551 1.3649e-19)
(0.477316 0.838456 -8.45131e-20)
(0.374196 0.724695 0)
(0.240549 0.491332 1.80836e-20)
(0.122747 0.73467 4.26976e-20)
(0.134102 2.57764 -4.81674e-20)
(0.181059 3.32781 5.46484e-20)
(0.164677 3.4326 2.94406e-20)
(0.137172 3.45144 3.34089e-20)
(0.118515 3.46025 5.33013e-20)
(0.270631 0.265124 -3.16154e-20)
(0.981822 1.02588 0)
(1.14274 1.21716 4.20264e-20)
(1.15453 1.25585 4.58909e-20)
(1.10249 1.23607 -3.81153e-20)
(1.03228 1.19873 -1.09766e-20)
(0.955607 1.1591 6.10292e-21)
(0.869568 1.11655 2.64654e-21)
(0.772379 1.06957 4.84542e-20)
(0.660148 1.0157 1.10073e-19)
(0.543914 0.958043 7.67291e-21)
(0.432835 0.890546 7.5693e-20)
(0.294658 0.75354 1.37353e-20)
(0.200278 0.896116 -1.74709e-20)
(0.206339 2.45742 -3.91712e-20)
(0.257435 3.33095 3.85977e-20)
(0.240337 3.45665 -4.23315e-20)
(0.206587 3.4757 -2.43598e-20)
(0.173512 3.50031 -2.21159e-20)
(0.128695 3.49569 -3.20945e-21)
(0.260774 0.263987 0)
(0.978787 1.04869 1.23379e-20)
(1.13381 1.24079 -8.6923e-21)
(1.14325 1.27949 -5.51276e-21)
(1.09116 1.25943 -2.65868e-20)
(1.02092 1.22228 1.16849e-20)
(0.943902 1.18286 -2.29336e-21)
(0.857549 1.14117 2.34401e-21)
(0.75961 1.09571 -5.03602e-20)
(0.645646 1.04484 -2.72428e-21)
(0.525692 0.992092 -2.47791e-19)
(0.407344 0.926885 1.08662e-20)
(0.274932 0.827035 -1.30394e-20)
(0.235855 1.53667 -1.61017e-20)
(0.299363 3.14432 3.66795e-21)
(0.311714 3.4579 1.83947e-22)
(0.270688 3.50491 6.31739e-20)
(0.237122 3.52877 3.20633e-20)
(0.19167 3.54901 -1.04766e-20)
(0.142036 3.54597 -1.6079e-20)
(0.246808 0.261998 3.16831e-20)
(0.97483 1.07404 8.37462e-20)
(1.12453 1.26651 -2.48092e-20)
(1.13159 1.30477 -2.07179e-20)
(1.07935 1.28426 0)
(1.00918 1.24714 2.27454e-20)
(0.932097 1.208 -2.24559e-22)
(0.845687 1.16712 2.01631e-21)
(0.747314 1.12331 -5.65433e-21)
(0.632173 1.07576 -9.95582e-20)
(0.509475 1.02857 -1.14439e-19)
(0.384795 0.964568 -8.90446e-20)
(0.277454 0.97585 -9.82677e-20)
(0.302054 2.31821 1.01349e-19)
(0.380619 3.38597 8.57615e-20)
(0.351432 3.5135 0)
(0.303917 3.55097 0)
(0.267531 3.58491 -8.3065e-21)
(0.224189 3.62991 0)
(0.154924 3.61522 -1.30241e-20)
(0.237 0.263915 -4.73625e-20)
(0.968949 1.10026 -7.10677e-20)
(1.11386 1.29346 0)
(1.11867 1.33087 1.23802e-21)
(1.0663 1.30976 -2.92907e-20)
(0.996361 1.27258 3.78495e-20)
(0.919536 1.23375 1.65655e-21)
(0.833299 1.19363 9.65144e-22)
(0.734754 1.15146 -3.50216e-20)
(0.618891 1.10727 4.91891e-21)
(0.494444 1.06575 0)
(0.364518 1.00618 0)
(0.299582 1.27473 -8.93009e-20)
(0.382138 2.97754 3.6391e-20)
(0.44586 3.48395 4.6458e-20)