/*--------------------------------*- C++ -*----------------------------------*\
  =========                 |
  \\      /  F ield         | OpenFOAM: The Open Source CFD Toolbox
   \\    /   O peration     | Website:  https://openfoam.org
    \\  /    A nd           | Version:  6
     \\/     M anipulation  |
\*---------------------------------------------------------------------------*/
FoamFile
{
    version     2.0;
    format      ascii;
    class       volVectorField;
    location    "58";
    object      U;
}
// * * * * * * * * * * * * * * * * * * * * * * * * * * * * * * * * * * * * * //

dimensions      [0 1 -1 0 0 0 0];

internalField   nonuniform List<vector> 
8800
(
(0.987184 -0.0766669 0)
(1.00189 -0.0551934 0)
(0.99972 -0.0285529 0)
(1.00002 -0.0151502 0)
(1.00007 -0.00855311 0)
(1.00008 -0.00505564 0)
(1.00005 -0.00301037 0)
(1.00002 -0.00170994 0)
(0.999999 -0.000804362 0)
(1.00006 -8.80535e-05 0)
(0.999987 0.000640971 0)
(0.999994 0.00140487 0)
(1.00002 0.00242764 0)
(1.00004 0.00400041 0)
(1.00004 0.00663192 0)
(1.00001 0.0113705 0)
(0.999893 0.020814 0)
(0.999148 0.038671 0)
(1.0071 0.072457 0)
(0.771213 0.0366611 0)
(0.363056 -0.0160186 0)
(1.0433 -0.0768238 0)
(1.08459 -0.0704602 0)
(1.04518 -0.0535611 0)
(1.02326 -0.0389183 0)
(1.01198 -0.0262464 0)
(1.00639 -0.0168905 0)
(1.00358 -0.0103619 0)
(1.00214 -0.00570366 0)
(1.00145 -0.00204776 0)
(1.00131 0.00127495 0)
(1.00168 0.00465775 0)
(1.00265 0.00859361 0)
(1.00465 0.0139357 0)
(1.00859 0.0216443 0)
(1.01655 0.0326146 0)
(1.03246 0.0465315 0)
(1.06263 0.0616516 0)
(1.09187 0.0760945 0)
(0.838679 0.056559 0)
(0.216816 -0.00243123 0)
(1.07587 -0.0501537 0)
(1.09986 -0.0483374 0)
(1.06461 -0.0404971 0)
(1.03998 -0.0336473 0)
(1.02386 -0.0261362 0)
(1.01408 -0.0185605 0)
(1.00854 -0.0117444 0)
(1.00558 -0.00587894 0)
(1.00433 -0.000462136 0)
(1.00468 0.00478646 0)
(1.0066 0.0101779 0)
(1.0106 0.0162783 0)
(1.01793 0.0233123 0)
(1.03053 0.0307805 0)
(1.05061 0.0378163 0)
(1.08032 0.0445046 0)
(1.10625 0.0513263 0)
(0.942552 0.0416077 0)
(0.216177 0.00246061 0)
(0.175122 -0.000818104 0)
(1.01762 -0.0355088 0)
(1.10516 -0.0414187 0)
(1.07821 -0.0361115 0)
(1.05339 -0.0301873 0)
(1.03614 -0.0246256 0)
(1.02395 -0.0189098 0)
(1.01585 -0.0128367 0)
(1.011 -0.0066509 0)
(1.00881 -0.000317733 0)
(1.0094 0.00593883 0)
(1.01266 0.0119409 0)
(1.01887 0.0177865 0)
(1.02877 0.0233702 0)
(1.04321 0.0286754 0)
(1.06373 0.0341684 0)
(1.09354 0.0401619 0)
(1.09342 0.041935 0)
(0.827213 0.0229022 0)
(0.174045 0.000851707 0)
(0.153898 -0.000612172 0)
(0.956049 -0.025489 0)
(1.10338 -0.0351807 0)
(1.0876 -0.0327173 0)
(1.06163 -0.0280786 0)
(1.04402 -0.0230729 0)
(1.03158 -0.0178405 0)
(1.02275 -0.012318 0)
(1.01695 -0.00638757 0)
(1.01412 8.04928e-05 0)
(1.01481 0.00654695 0)
(1.01879 0.0124352 0)
(1.02581 0.0177425 0)
(1.03612 0.0226732 0)
(1.05068 0.0274375 0)
(1.07191 0.0319798 0)
(1.10007 0.0359255 0)
(1.06812 0.0339987 0)
(0.739654 0.0143007 0)
(0.152275 0.00065024 0)
(0.1395 -0.000468605 0)
(0.899064 -0.0191135 0)
(1.09566 -0.030145 0)
(1.09564 -0.0292707 0)
(1.06913 -0.0255551 0)
(1.05071 -0.0214338 0)
(1.0378 -0.0166781 0)
(1.02871 -0.0114067 0)
(1.02261 -0.00567291 0)
(1.01951 0.00064935 0)
(1.02015 0.00696238 0)
(1.02425 0.0126049 0)
(1.03139 0.0175862 0)
(1.04192 0.022065 0)
(1.05706 0.0260401 0)
(1.07925 0.0295208 0)
(1.1023 0.0321608 0)
(1.03607 0.0280798 0)
(0.673147 0.0101964 0)
(0.137209 0.000512481 0)
(0.12893 -0.00036339 0)
(0.849374 -0.0147568 0)
(1.08321 -0.0260264 0)
(1.10129 -0.0263426 0)
(1.07596 -0.023078 0)
(1.057 -0.0194578 0)
(1.04364 -0.0152332 0)
(1.0342 -0.0103249 0)
(1.02787 -0.00480353 0)
(1.02457 0.00133948 0)
(1.02508 0.00744373 0)
(1.02914 0.0128103 0)
(1.03639 0.0173834 0)
(1.04721 0.0212609 0)
(1.06275 0.0245738 0)
(1.08539 0.0275377 0)
(1.10143 0.0293092 0)
(1.00121 0.0235567 0)
(0.621381 0.0078303 0)
(0.125827 0.000415064 0)
(0.120854 -0.000282928 0)
(0.807117 -0.0116049 0)
(1.06786 -0.02243 0)
(1.10477 -0.0237259 0)
(1.08218 -0.0208777 0)
(1.06281 -0.0174713 0)
(1.04917 -0.0135557 0)
(1.03945 -0.00899702 0)
(1.03285 -0.00375782 0)
(1.02931 0.00216467 0)
(1.02966 0.00802156 0)
(1.03367 0.0130409 0)
(1.04099 0.0171446 0)
(1.05192 0.0205157 0)
(1.06767 0.0234199 0)
(1.09064 0.0260901 0)
(1.09768 0.0269752 0)
(0.966019 0.0200072 0)
(0.579806 0.0062934 0)
(0.116765 0.000344419 0)
(0.114586 -0.000219998 0)
(0.771514 -0.00924919 0)
(1.05099 -0.0192679 0)
(1.10711 -0.0213113 0)
(1.08802 -0.0188363 0)
(1.06826 -0.01558 0)
(1.05438 -0.0118357 0)
(1.04447 -0.00748789 0)
(1.03762 -0.00249114 0)
(1.03382 0.00316711 0)
(1.03395 0.00871305 0)
(1.03784 0.0133571 0)
(1.04511 0.0170543 0)
(1.05605 0.0200411 0)
(1.07201 0.0226238 0)
(1.09464 0.0249588 0)
(1.09112 0.025036 0)
(0.931796 0.017265 0)
(0.545413 0.0052431 0)
(0.109297 0.000293565 0)
(0.109688 -0.000169394 0)
(0.741623 -0.00742166 0)
(1.03368 -0.0164657 0)
(1.10848 -0.019038 0)
(1.09355 -0.0168795 0)
(1.07351 -0.0137218 0)
(1.05937 -0.0100687 0)
(1.04927 -0.00585176 0)
(1.0422 -0.00104182 0)
(1.03812 0.00437412 0)
(1.03797 0.00961045 0)
(1.04165 0.013891 0)
(1.04878 0.0172157 0)
(1.0597 0.0198582 0)
(1.07584 0.0221559 0)
(1.09735 0.0241234 0)
(1.08213 0.0234358 0)
(0.899114 0.0151773 0)
(0.516156 0.00450956 0)
(0.102944 0.000257741 0)
(0.105879 -0.000127405 0)
(0.716624 -0.00594903 0)
(1.01675 -0.0139546 0)
(1.10902 -0.016841 0)
(1.09899 -0.014955 0)
(1.07868 -0.0118054 0)
(1.06424 -0.0081951 0)
(1.05393 -0.00405379 0)
(1.04662 0.000633026 0)
(1.04223 0.00582757 0)
(1.04173 0.01075 0)
(1.04509 0.0146912 0)
(1.05204 0.0176773 0)
(1.06294 0.0199786 0)
(1.07926 0.0220119 0)
(1.09874 0.0236001 0)
(1.07112 0.0221746 0)
(0.868093 0.0136288 0)
(0.490589 0.00400259 0)
(0.0973653 0.000233958 0)
(0.102968 -9.10697e-05 0)
(0.695874 -0.00471488 0)
(1.0008 -0.0116647 0)
(1.10886 -0.014693 0)
(1.10425 -0.0130148 0)
(1.08384 -0.00984644 0)
(1.06909 -0.00621481 0)
(1.05852 -0.00207778 0)
(1.05091 0.00253859 0)
(1.04613 0.00757471 0)
(1.0452 0.0122374 0)
(1.04821 0.015849 0)
(1.05493 0.0184952 0)
(1.06576 0.0204721 0)
(1.08221 0.0222437 0)
(1.09916 0.0234037 0)
(1.05834 0.021256 0)
(0.838575 0.0125262 0)
(0.467627 0.00366645 0)
(0.0923025 0.00021979 0)
(0.100838 -5.76637e-05 0)
(0.678902 -0.00363191 0)
(0.98629 -0.00952516 0)
(1.10821 -0.0124894 0)
(1.10931 -0.0109246 0)
(1.08907 -0.00769543 0)
(1.07398 -0.00399094 0)
(1.06309 0.000175902 0)
(1.05512 0.00477025 0)
(1.04987 0.00968883 0)
(1.04842 0.0141092 0)
(1.05099 0.0174009 0)
(1.05745 0.0196994 0)
(1.0682 0.0213193 0)
(1.08469 0.0228258 0)
(1.09857 0.0235928 0)
(1.044 0.0207032 0)
(0.810253 0.0118042 0)
(0.446429 0.0034644 0)
(0.0875571 0.000213383 0)
(0.0994242 -2.5019e-05 0)
(0.665406 -0.00263121 0)
(0.973575 -0.00746401 0)
(1.10741 -0.0101958 0)
(1.11434 -0.00867335 0)
(1.09445 -0.00535238 0)
(1.07897 -0.00151211 0)
(1.06771 0.00277645 0)
(1.05929 0.007415 0)
(1.05346 0.0122422 0)
(1.05138 0.0164234 0)
(1.05344 0.0193989 0)
(1.05957 0.0213707 0)
(1.07021 0.0226449 0)
(1.08672 0.0238763 0)
(1.09678 0.0241876 0)
(1.02815 0.020489 0)
(0.782711 0.0113982 0)
(0.42631 0.00336866 0)
(0.0829662 0.000213097 0)
(0.0987125 9.18946e-06 0)
(0.655233 -0.0016562 0)
(0.962962 -0.0054023 0)
(1.10674 -0.00772742 0)
(1.1194 -0.00616721 0)
(1.10005 -0.00271316 0)
(1.08417 0.00132892 0)
(1.07246 0.00578974 0)
(1.06347 0.0105311 0)
(1.05692 0.0153428 0)
(1.05408 0.0193368 0)
(1.05553 0.0219931 0)
(1.06129 0.023587 0)
(1.07178 0.0244663 0)
(1.08819 0.0253981 0)
(1.09369 0.0252088 0)
(1.01079 0.0206452 0)
(0.755509 0.0112852 0)
(0.406706 0.00336635 0)
(0.0784005 0.000218462 0)
(0.0987237 4.24222e-05 0)
(0.648358 -0.000661586 0)
(0.954763 -0.00327295 0)
(1.10658 -0.00502375 0)
(1.1247 -0.00328884 0)
(1.10597 0.000389851 0)
(1.08962 0.0046967 0)
(1.07738 0.00939017 0)
(1.06773 0.0142941 0)
(1.06033 0.019107 0)
(1.05657 0.0228909 0)
(1.05725 0.0252084 0)
(1.06253 0.0264141 0)
(1.07288 0.0268878 0)
(1.08892 0.0274576 0)
(1.08913 0.0266863 0)
(0.991773 0.021202 0)
(0.728135 0.0114454 0)
(0.387098 0.00344885 0)
(0.0737389 0.000228863 0)
(0.0994952 8.1617e-05 0)
(0.64486 0.000369668 0)
(0.949283 -0.000997647 0)
(1.10728 -0.00201215 0)
(1.13045 -1.03168e-05 0)
(1.11232 0.00395774 0)
(1.09546 0.00862566 0)
(1.08257 0.0136634 0)
(1.07209 0.0188096 0)
(1.06364 0.0236795 0)
(1.05878 0.0272712 0)
(1.05859 0.0292216 0)
(1.06331 0.0300066 0)
(1.07345 0.0300536 0)
(1.08878 0.0301966 0)
(1.08291 0.0286837 0)
(0.970875 0.022183 0)
(0.700046 0.0118689 0)
(0.367008 0.00360923 0)
(0.0688742 0.000243704 0)
(0.101236 0.000142296 0)
(0.645135 0.00152735 0)
(0.946897 0.00150824 0)
(1.10924 0.00143767 0)
(1.13678 0.00385654 0)
(1.11923 0.0082242 0)
(1.1018 0.0133348 0)
(1.08813 0.018779 0)
(1.07664 0.0242357 0)
(1.06693 0.0292197 0)
(1.06073 0.0326384 0)
(1.05949 0.0341732 0)
(1.06354 0.0344853 0)
(1.07342 0.0340556 0)
(1.0875 0.0337071 0)
(1.07472 0.0312911 0)
(0.947753 0.0236255 0)
(0.670653 0.0125536 0)
(0.345979 0.00384323 0)
(0.0637095 0.000262493 0)
(0.103994 0.000202632 0)
(0.649516 0.00293048 0)
(0.948043 0.00438772 0)
(1.11299 0.00544318 0)
(1.14399 0.00843963 0)
(1.12687 0.0133666 0)
(1.10873 0.0190402 0)
(1.09411 0.0250019 0)
(1.08139 0.030845 0)
(1.07012 0.035927 0)
(1.06234 0.0390938 0)
(1.05986 0.0401492 0)
(1.06314 0.0399785 0)
(1.0727 0.03901 0)
(1.08493 0.0381096 0)
(1.06427 0.0346039 0)
(0.921938 0.0255732 0)
(0.639323 0.0134991 0)
(0.323571 0.00414562 0)
(0.0581582 0.000284456 0)
(0.108053 0.000284282 0)
(0.658563 0.00460212 0)
(0.953191 0.00777461 0)
(1.119 0.0101726 0)
(1.15235 0.0139119 0)
(1.13544 0.0195431 0)
(1.11646 0.025933 0)
(1.10066 0.0325545 0)
(1.0864 0.0388575 0)
(1.07324 0.0440774 0)
(1.06358 0.0469652 0)
(1.05968 0.0474361 0)
(1.06201 0.0466711 0)
(1.07122 0.0450826 0)
(1.08111 0.0435714 0)
(1.05111 0.0387145 0)
(0.892834 0.0280525 0)
(0.605367 0.0146936 0)
(0.299359 0.00450566 0)
(0.0521498 0.000308132 0)
(0.113755 0.000394911 0)
(0.673023 0.00669412 0)
(0.963078 0.0119051 0)
(1.12784 0.0158787 0)
(1.16215 0.020593 0)
(1.14518 0.0271624 0)
(1.12516 0.0344189 0)
(1.10786 0.041798 0)
(1.09168 0.0486184 0)
(1.07625 0.0539365 0)
(1.06437 0.0564146 0)
(1.05881 0.0562062 0)
(1.06007 0.0547468 0)
(1.06881 0.0524975 0)
(1.07579 0.0502178 0)
(1.03468 0.0437271 0)
(0.859718 0.0310845 0)
(0.568065 0.0161154 0)
(0.272965 0.00490727 0)
(0.0456414 0.000331765 0)
(0.121614 0.000549928 0)
(0.693857 0.00943061 0)
(0.978546 0.0170675 0)
(1.14021 0.0228807 0)
(1.17393 0.0288601 0)
(1.15642 0.0366866 0)
(1.13499 0.0449843 0)
(1.11577 0.0532228 0)
(1.09721 0.0605527 0)
(1.07901 0.0658207 0)
(1.06456 0.0676694 0)
(1.05709 0.0665865 0)
(1.05722 0.0643558 0)
(1.06545 0.0613179 0)
(1.06865 0.0581667 0)
(1.01427 0.0496999 0)
(0.821736 0.0346505 0)
(0.526704 0.0177104 0)
(0.244102 0.00532139 0)
(0.0386294 0.000352339 0)
(0.132359 0.000773315 0)
(0.722354 0.0131949 0)
(1.00073 0.0237257 0)
(1.15687 0.0317166 0)
(1.18828 0.039262 0)
(1.16948 0.0486859 0)
(1.14612 0.0582359 0)
(1.12438 0.0674157 0)
(1.10281 0.0751459 0)
(1.08132 0.08013 0)
(1.06394 0.0810476 0)
(1.05437 0.0788347 0)
(1.05327 0.0756246 0)
(1.06086 0.0716681 0)
(1.05909 0.067431 0)
(0.988981 0.0566537 0)
(0.777939 0.0386735 0)
(0.480643 0.0193843 0)
(0.212643 0.00570512 0)
(0.0311715 0.000366084 0)
(0.14725 0.00112702 0)
(0.760518 0.0186127 0)
(1.03129 0.032668 0)
(1.17875 0.0433401 0)
(1.20592 0.0529081 0)
(1.1847 0.0642775 0)
(1.15863 0.0751842 0)
(1.13356 0.0851696 0)
(1.10825 0.0929827 0)
(1.08293 0.0972275 0)
(1.06231 0.0967894 0)
(1.05052 0.0931626 0)
(1.04814 0.0887776 0)
(1.05462 0.0838741 0)
(1.04646 0.078151 0)
(0.957681 0.0645187 0)
(0.727363 0.0429899 0)
(0.429472 0.0209868 0)
(0.178741 0.00599914 0)
(0.0234083 0.000368459 0)
(0.168446 0.00173702 0)
(0.811546 0.0268083 0)
(1.07278 0.0454062 0)
(1.20701 0.0595684 0)
(1.22756 0.0719592 0)
(1.20216 0.0851383 0)
(1.17221 0.0971861 0)
(1.14282 0.107467 0)
(1.11307 0.114676 0)
(1.08342 0.117408 0)
(1.05935 0.114981 0)
(1.04529 0.109579 0)
(1.04164 0.103838 0)
(1.04669 0.097948 0)
(1.02983 0.090239 0)
(0.91896 0.0730281 0)
(0.669232 0.0473049 0)
(0.373309 0.0223045 0)
(0.143006 0.00612813 0)
(0.0155899 0.000353913 0)
(0.199249 0.00307401 0)
(0.881101 0.0403545 0)
(1.12886 0.0657007 0)
(1.2421 0.0839808 0)
(1.25291 0.099058 0)
(1.2212 0.113497 0)
(1.18602 0.125778 0)
(1.15136 0.135253 0)
(1.11651 0.140743 0)
(1.08222 0.140999 0)
(1.05465 0.135816 0)
(1.03843 0.128131 0)
(1.03364 0.120778 0)
(1.03675 0.113706 0)
(1.00797 0.103498 0)
(0.871194 0.0816962 0)
(0.603396 0.0511364 0)
(0.313501 0.0231257 0)
(0.106952 0.00603497 0)
(0.00817476 0.000314372 0)
(0.241307 0.00918906 1.221e-20)
(0.973163 0.067121 1.04085e-20)
(1.19716 0.100036 -3.59709e-21)
(1.28077 0.120333 0)
(1.27906 0.13782 -8.80675e-35)
(1.23969 0.15174 1.27885e-21)
(1.19851 0.16251 -2.2579e-21)
(1.15806 0.169765 0)
(1.11779 0.172466 4.53747e-35)
(1.07857 0.169419 -2.70037e-21)
(1.04723 0.160973 0)
(1.02863 0.150809 -3.16649e-21)
(1.02269 0.141879 -9.31672e-21)
(1.02341 0.1341 -4.39787e-21)
(0.977489 0.120606 -1.31984e-21)
(0.809123 0.0922068 -7.83298e-22)
(0.524497 0.0550318 0)
(0.248375 0.0238079 5.4875e-22)
(0.0708442 0.00602601 6.49984e-22)
(0.00122272 0.000265687 1.1867e-20)
(0.270493 0.0241599 9.55111e-21)
(1.04936 0.109381 1.08078e-22)
(1.25352 0.148965 9.86978e-22)
(1.3153 0.169216 0)
(1.30193 0.186997 -4.55775e-21)
(1.25545 0.198772 -5.11646e-21)
(1.20832 0.207215 -2.29839e-21)
(1.162 0.21196 -8.03437e-21)
(1.11603 0.211867 0)
(1.07135 0.205596 1.14928e-20)
(1.03562 0.193956 1.13195e-20)
(1.01421 0.181286 3.34687e-21)
(1.00611 0.170328 1.21279e-20)
(0.999573 0.159799 1.69793e-20)
(0.930495 0.141121 0)
(0.726548 0.104372 2.38897e-20)
(0.432654 0.0597259 3.43016e-20)
(0.180497 0.0242899 3.8183e-20)
(0.0354911 0.00501182 -4.38097e-20)
(-0.00557739 -0.000372534 -8.34691e-22)
(0.271962 0.0407452 0)
(1.09782 0.164084 1.79279e-21)
(1.29158 0.208815 0)
(1.34214 0.228821 -6.32994e-21)
(1.31976 0.243961 0)
(1.2673 0.251862 -1.02128e-20)
(1.21454 0.256573 4.73297e-21)
(1.1626 0.25774 -1.63239e-20)
(1.11115 0.254033 -3.17284e-22)
(1.0613 0.243956 5.97524e-21)
(1.02142 0.228734 2.48285e-20)
(0.997219 0.21337 -5.0485e-23)
(0.986655 0.200279 -8.79839e-21)
(0.973191 0.18682 -1.59579e-20)
(0.888183 0.162602 1.88791e-20)
(0.66856 0.11703 -3.34519e-20)
(0.380991 0.0645701 -4.42181e-21)
(0.147828 0.0248336 0)
(0.0195268 0.00361361 -2.24855e-24)
(-0.00880387 -0.00118883 0)
(0.265657 0.0547267 2.72855e-20)
(1.12407 0.222468 -1.26337e-20)
(1.31508 0.273203 -8.91794e-21)
(1.35983 0.293749 3.07789e-21)
(1.33117 0.305267 -5.1179e-21)
(1.27419 0.308663 2.15007e-20)
(1.21682 0.308973 9.92589e-21)
(1.16004 0.305907 0)
(1.10373 0.298046 -3.03244e-20)
(1.0491 0.283724 0)
(1.00524 0.264627 -1.30698e-20)
(0.978329 0.246419 -1.59888e-20)
(0.965363 0.231121 -9.57118e-21)
(0.946436 0.214433 -1.15754e-20)
(0.852973 0.184922 0)
(0.631475 0.131666 0)
(0.355522 0.0722756 -2.88029e-20)
(0.135029 0.0272346 5.70037e-21)
(0.0132758 0.00267618 -3.34686e-21)
(-0.0105546 -0.00203859 -3.96427e-21)
(0.258192 0.0670638 -1.33981e-20)
(1.13571 0.280823 0)
(1.32798 0.338627 1.94254e-20)
(1.36936 0.360146 8.95224e-21)
(1.33628 0.368008 1.16437e-20)
(1.27601 0.366922 0)
(1.21502 0.362749 9.86251e-21)
(1.15422 0.355291 1.81808e-20)
(1.09365 0.34305 1.56344e-20)
(1.03472 0.324281 2.80968e-20)
(0.987201 0.301273 0)
(0.957639 0.28016 -3.4486e-20)
(0.942236 0.262505 -2.06794e-20)
(0.919332 0.242891 -1.22108e-20)
(0.823173 0.20844 7.45617e-20)
(0.607798 0.148507 8.87987e-21)
(0.345288 0.0828121 4.17977e-20)
(0.13491 0.0315509 -1.97949e-19)
(0.0139353 0.00281481 1.17312e-19)
(-0.010919 -0.00270021 -1.43197e-19)
(0.251092 0.0781813 -9.51083e-21)
(1.13811 0.337275 2.48842e-21)
(1.33327 0.403249 -2.39302e-21)
(1.37237 0.4261 -1.00252e-20)
(1.33605 0.430496 -1.03952e-20)
(1.27329 0.425127 3.6337e-22)
(1.20943 0.416632 -1.06714e-20)
(1.14534 0.404876 1.89163e-20)
(1.08117 0.388275 -3.36488e-20)
(1.01845 0.365099 0)
(0.967565 0.338161 -1.5686e-20)
(0.935352 0.313942 -3.25025e-22)
(0.917627 0.293966 -2.25959e-20)
(0.891851 0.271641 0)
(0.79659 0.232728 -1.61555e-20)
(0.591231 0.167333 -3.84304e-20)
(0.343459 0.0956737 1.02592e-19)
(0.140925 0.0379966 -1.01102e-19)
(0.0194227 0.00451574 1.43834e-19)
(-0.00987518 -0.00295819 -1.5136e-19)
(0.245165 0.0884849 -1.0458e-22)
(1.13482 0.391174 -1.75618e-21)
(1.33308 0.466059 -8.11567e-21)
(1.37029 0.490472 4.44908e-21)
(1.33155 0.491735 -5.31943e-21)
(1.26691 0.48235 0)
(1.20075 0.469769 -1.01803e-20)
(1.1339 0.453916 -1.98851e-20)
(1.06658 0.433127 -1.75684e-20)
(1.00044 0.405648 0)
(0.946388 0.374698 -1.6349e-20)
(0.911753 0.347525 -2.00773e-20)
(0.891884 0.325373 2.45055e-20)
(0.863879 0.300464 -1.48174e-20)
(0.77132 0.25758 -7.05534e-20)
(0.577241 0.187474 4.19874e-20)
(0.344513 0.109812 1.25029e-20)
(0.149434 0.0461023 0)
(0.0272769 0.00767936 -1.39172e-19)
(-0.00797186 -0.00280178 -5.17116e-21)
(0.240537 0.0983055 -6.84679e-22)
(1.12812 0.442364 1.30651e-21)
(1.32892 0.526501 4.06382e-21)
(1.36435 0.552563 1.52851e-20)
(1.32373 0.551062 -2.04337e-20)
(1.25766 0.537999 2.18243e-20)
(1.18962 0.521629 2.19183e-20)
(1.12038 0.501933 -3.18147e-20)
(1.05029 0.477183 1.06553e-20)
(0.981038 0.445517 -6.91915e-20)
(0.924067 0.410739 -1.83927e-20)
(0.88722 0.380899 0)
(0.865336 0.356579 2.65746e-20)
(0.835534 0.329215 3.17863e-20)
(0.745979 0.28256 3.80024e-20)
(0.563139 0.208224 -4.56258e-20)
(0.34448 0.124842 -1.35274e-20)
(0.157312 0.0555887 1.5895e-20)
(0.0355069 0.0119141 0)
(-0.00567421 -0.00228544 -1.12318e-20)
(0.237083 0.107744 2.55735e-21)
(1.11965 0.490902 -3.21667e-21)
(1.32209 0.584585 -3.99318e-21)
(1.35555 0.612009 9.82758e-21)
(1.3134 0.608064 -9.68937e-21)
(1.24623 0.591667 -8.24712e-22)
(1.17662 0.57186 -2.38774e-20)
(1.10535 0.548627 -1.14937e-20)
(1.03278 0.520167 -3.05166e-20)
(0.960629 0.48452 6.24425e-23)
(0.900973 0.446225 -5.78009e-20)
(0.862036 0.413711 4.82656e-20)
(0.838277 0.38715 -2.91633e-20)
(0.807013 0.35733 3.49853e-20)
(0.719739 0.307315 0)
(0.547582 0.228821 -2.47779e-20)
(0.341636 0.140062 1.44795e-23)
(0.162796 0.0654475 -6.93536e-20)
(0.0425341 0.0166146 -1.02224e-20)
(-0.0034206 -0.0015595 0)
(0.234698 0.117019 0)
(1.11035 0.537 -2.68787e-21)
(1.31333 0.640228 -6.20227e-21)
(1.3447 0.668628 -9.5467e-21)
(1.30124 0.662506 -1.17013e-20)
(1.2332 0.643122 0)
(1.16232 0.620232 -1.11805e-20)
(1.08925 0.593801 -2.17027e-22)
(1.0144 0.561915 6.54281e-20)
(0.939553 0.522573 -9.56068e-21)
(0.877364 0.480893 -4.17045e-20)
(0.836427 0.445505 2.51793e-20)
(0.810959 0.41664 -4.47054e-22)
(0.7784 0.384523 3.72524e-20)
(0.692946 0.330877 2.28793e-20)
(0.530207 0.248069 -5.34778e-20)
(0.335436 0.154485 6.34101e-20)
(0.164626 0.0747145 1.88018e-20)
(0.0471863 0.0210321 7.77909e-20)
(-0.00159626 -0.000816874 -2.10426e-19)
(0.233292 0.126263 -1.07319e-21)
(1.10086 0.580839 2.24193e-22)
(1.30324 0.693087 8.16289e-22)
(1.33244 0.722361 8.54995e-21)
(1.28781 0.714275 0)
(1.21909 0.692229 -1.07531e-20)
(1.14712 0.666611 3.72569e-20)
(1.07247 0.637329 2.53825e-20)
(0.995513 0.602332 0)
(0.918095 0.559581 -1.37213e-19)
(0.853408 0.514492 1.12755e-19)
(0.810547 0.476119 0)
(0.783614 0.44511 3.40567e-20)
(0.74973 0.410558 -4.49041e-22)
(0.665456 0.352938 -7.32645e-20)
(0.51054 0.265474 2.87086e-20)
(0.326018 0.16721 0)
(0.162615 0.0825071 1.01437e-19)
(0.0489494 0.0245084 0)
(-0.000417725 -0.000238463 -9.95622e-20)
(0.232685 0.135509 1.83988e-21)
(1.09157 0.622587 1.88307e-21)
(1.29225 0.743191 1.23e-21)
(1.31925 0.773218 0)
(1.27357 0.76335 -1.0878e-20)
(1.20429 0.738949 0)
(1.1314 0.710931 -3.73571e-20)
(1.05533 0.679132 -1.2056e-20)
(0.976407 0.641366 1.16742e-20)
(0.896484 0.595464 -6.78919e-20)
(0.829243 0.546947 1.16912e-20)
(0.784546 0.505739 0)
(0.756266 0.472602 -7.2781e-20)
(0.720921 0.435135 4.42815e-22)
(0.637319 0.373102 0)
(0.488862 0.28048 2.86883e-22)
(0.313378 0.177471 9.25006e-20)
(0.157309 0.0881202 -8.7589e-20)
(0.0481189 0.0265745 2.59288e-20)
(9.26728e-05 5.98478e-05 0)
(0.232535 0.144658 0)
(1.08267 0.662308 3.3004e-21)
(1.28076 0.790632 5.94707e-22)
(1.30552 0.821265 -5.05206e-22)
(1.25889 0.809761 -4.3579e-21)
(1.18916 0.783283 -2.42922e-20)
(1.11549 0.753175 1.38754e-20)
(1.03812 0.719173 -1.40152e-20)
(0.957328 0.678967 5.18323e-20)
(0.874908 0.63018 -1.08632e-19)
(0.805036 0.578375 -7.90093e-22)
(0.758508 0.53453 -3.20426e-20)
(0.728849 0.498927 1.18038e-19)
(0.691929 0.457864 -5.21514e-22)
(0.608556 0.390859 -5.6816e-20)
(0.465292 0.292674 -1.01238e-19)
(0.29802 0.184966 0)
(0.149015 0.0913313 0)
(0.0452712 0.0271952 2.79565e-20)
(4.86936e-05 5.89752e-05 -1.66023e-20)
(0.232939 0.153811 3.81161e-21)
(1.07431 0.699946 -8.61958e-21)
(1.26903 0.8355 -6.98587e-22)
(1.29153 0.866584 0)
(1.24403 0.853566 -3.16308e-22)
(1.17396 0.825264 -2.32204e-20)
(1.09961 0.793352 3.41913e-20)
(1.02106 0.757438 5.59289e-20)
(0.938487 0.715117 6.76517e-20)
(0.853558 0.663733 -8.89753e-20)
(0.780957 0.608945 -9.70343e-20)
(0.732463 0.562498 8.57456e-20)
(0.701258 0.523797 0)
(0.662685 0.478555 -2.58268e-20)
(0.579116 0.405983 -6.13982e-20)
(0.440027 0.301929 -7.27084e-20)
(0.280338 0.189488 -8.6104e-20)
(0.138167 0.0920674 2.54971e-20)
(0.0407078 0.0265347 -1.50473e-20)
(-0.000328134 -0.00015687 5.86915e-23)
(0.233655 0.162776 0)
(1.06656 0.735972 0)
(1.25724 0.877884 5.27211e-22)
(1.2775 0.909274 0)
(1.22924 0.894851 1.19774e-20)
(1.1589 0.864954 1.65879e-20)
(1.08397 0.831484 0)
(1.00434 0.793933 6.77569e-21)
(0.920068 0.749813 1.13331e-19)
(0.83261 0.696163 -2.04608e-19)
(0.75715 0.638771 0)
(0.70643 0.589542 -5.52086e-20)
(0.673449 0.547105 -6.1499e-22)
(0.633145 0.497202 -4.83056e-22)
(0.549067 0.418349 6.56852e-20)
(0.41362 0.308095 -3.47419e-23)
(0.260681 0.190946 -1.85323e-19)
(0.125401 0.0903761 5.48143e-20)
(0.0349627 0.0246262 1.62564e-20)
(-0.000930298 -0.000545971 0)
(0.234435 0.171612 -1.84924e-20)
(1.05917 0.770348 -7.62455e-21)
(1.24548 0.917841 -6.76474e-21)
(1.26359 0.949412 -3.27021e-21)
(1.21467 0.933691 1.81112e-20)
(1.14414 0.902415 0)
(1.06871 0.867614 2.12435e-20)
(0.988103 0.828677 -1.49966e-20)
(0.902217 0.783066 7.90347e-22)
(0.812231 0.727531 1.50279e-20)
(0.733745 0.667898 1.25928e-19)
(0.68044 0.615626 -1.94084e-20)
(0.645396 0.569022 -7.28112e-20)
(0.60315 0.513806 -3.00624e-20)
(0.518409 0.427621 3.56349e-20)
(0.386586 0.310914 3.11897e-24)
(0.239764 0.189223 4.98871e-20)
(0.111608 0.0864041 -1.17886e-19)
(0.0288117 0.0217915 1.39823e-19)
(-0.00162178 -0.00104956 2.06515e-20)
(0.23501 0.180224 7.48301e-21)
(1.05216 0.803162 -4.61512e-21)
(1.23388 0.955483 1.29172e-21)
(1.24995 0.987114 7.2516e-22)
(1.20046 0.970197 -2.47563e-21)
(1.12979 0.937719 -2.97821e-20)
(1.05397 0.901786 6.46849e-21)
(0.972473 0.861689 -6.28224e-20)
(0.885059 0.814876 -1.25678e-19)
(0.792564 0.757868 -1.22425e-19)
(0.710871 0.696323 0)
(0.654554 0.640877 -8.50749e-20)
(0.617041 0.589904 1.04906e-19)
(0.572392 0.528265 0)
(0.487063 0.433353 -7.63415e-20)
(0.359354 0.309993 4.54412e-20)
(0.218793 0.18413 -5.36148e-20)
(0.0981086 0.0805353 -6.33965e-20)
(0.0229678 0.0184507 -1.12581e-19)
(-0.00227522 -0.00157842 -8.88864e-20)
(0.235932 0.188696 -8.93471e-21)
(1.04539 0.834395 4.95296e-21)
(1.22252 0.990869 1.03752e-20)
(1.23666 1.02246 2.82742e-21)
(1.18669 1.00446 6.09409e-21)
(1.11595 0.97095 -1.70087e-20)
(1.03982 0.934047 2.13859e-20)
(0.957537 0.89301 -6.50198e-20)
(0.868682 0.845268 -7.46373e-20)
(0.773732 0.787198 1.28534e-19)
(0.688638 0.724046 2.77247e-19)
(0.628868 0.665549 0)
(0.588307 0.610129 0)
(0.540448 0.5405 -3.46283e-20)
(0.454702 0.435176 0)
(0.33207 0.3045 9.76751e-20)
(0.199046 0.174929 1.15247e-19)
(0.0868852 0.0728171 0)
(0.0186605 0.0150305 0)
(-0.0027721 -0.00204801 9.5484e-20)
(0.236497 0.196698 1.06823e-20)
(1.03886 0.864031 8.32338e-21)
(1.21146 1.02411 7.79106e-21)
(1.22379 1.05559 -4.83458e-21)
(1.17343 1.0366 4.99221e-21)
(1.10268 1.00218 1.87292e-20)
(1.02632 0.964457 -2.96216e-20)
(0.943356 0.922669 -4.71117e-23)
(0.853166 0.87425 -1.03156e-21)
(0.755832 0.815513 -1.00549e-21)
(0.667185 0.751092 1.42982e-19)
(0.603504 0.689921 0)
(0.559142 0.629996 1.06265e-19)
(0.506913 0.550631 7.39644e-20)
(0.420627 0.433104 1.77958e-19)
(0.304136 0.293121 5.25951e-20)
(0.181834 0.159159 -6.20101e-20)
(0.0821156 0.0605424 -3.65208e-20)
(0.0211576 0.0103815 0)
(-0.00179358 -0.00215699 1.02564e-19)
(0.237398 0.204715 -2.52397e-20)
(1.03256 0.892223 0)
(1.20069 1.05525 1.03264e-20)
(1.21137 1.08658 -4.92494e-21)
(1.16074 1.06669 -2.96309e-21)
(1.09001 1.03149 -2.21195e-20)
(1.01351 0.993067 5.88727e-20)
(0.929969 0.950703 -5.23114e-21)
(0.838556 0.901836 0)
(0.738941 0.842771 -1.42637e-19)
(0.646653 0.777503 -3.11643e-19)
(0.578613 0.714236 1.26247e-20)
(0.529586 0.649675 1.46687e-19)
(0.471578 0.559114 0)
(0.38378 0.427892 1.20071e-19)
(0.273203 0.274857 0)
(0.165376 0.131296 0)
(0.0890237 0.0292308 -3.94596e-20)
(0.0548183 -0.00955199 0)
(0.0270709 0.00672401 2.7484e-20)
(0.23785 0.212148 -2.91072e-20)
(1.02643 0.919155 0)
(1.19022 1.0845 1.81879e-20)
(1.19934 1.11567 0)
(1.14857 1.09501 5.57108e-22)
(1.07789 1.05917 0)
(1.00134 1.02019 3.11717e-21)
(0.917281 0.977451 9.04544e-21)
(0.824731 0.928394 9.40892e-21)
(0.722885 0.869344 -1.57094e-19)
(0.626865 0.803773 9.42296e-21)
(0.553927 0.739188 1.01551e-19)
(0.499187 0.669738 1.43303e-19)
(0.433637 0.566746 1.92479e-20)
(0.342396 0.421325 9.40802e-20)
(0.234487 0.250807 0)
(0.138615 0.0876998 1.30469e-19)
(0.0768223 -0.0142754 -7.67136e-20)
(0.0325974 0.0581037 8.97096e-20)
(-0.0382499 0.454563 -1.06577e-19)
(0.238239 0.219413 2.46509e-20)
(1.02029 0.944721 3.59499e-20)
(1.17997 1.11218 0)
(1.18757 1.14331 1.0724e-21)
(1.13672 1.12214 7.32733e-22)
(1.06604 1.08591 3.1572e-20)
(0.989483 1.04663 2.11657e-20)
(0.904882 1.00386 0)
(0.81116 0.955034 6.30653e-20)
(0.706983 0.896544 -8.27795e-21)
(0.606912 0.831462 0)
(0.528163 0.76652 0)
(0.466006 0.691513 1.28347e-19)
(0.3908 0.574249 -5.93475e-20)
(0.293427 0.41552 -9.52025e-20)
(0.183948 0.224393 0)
(0.0787516 0.0975427 6.61896e-20)
(0.0069386 0.465795 -7.71617e-20)
(0.0317787 1.92291 -4.36515e-20)
(0.0584842 2.82273 -5.32857e-20)
(0.238237 0.226099 -1.92143e-20)
(1.01416 0.969093 -4.74049e-20)
(1.16996 1.13828 1.15202e-20)
(1.17606 1.16937 7.42549e-21)
(1.12527 1.14789 0)
(1.05456 1.11144 1.95924e-20)
(0.978154 1.07208 2.9891e-20)
(0.892963 1.02951 -4.45269e-21)
(0.798122 0.981237 9.38909e-21)
(0.691618 0.923751 1.50273e-19)
(0.587417 0.859957 1.58379e-19)
(0.502269 0.79589 1.14072e-19)
(0.4309 0.714776 1.29191e-19)
(0.344724 0.580916 -1.39374e-19)
(0.243325 0.414003 -1.43705e-19)
(0.120234 0.27135 0)
(0.041463 0.875316 0)
(0.0892512 2.57781 3.70007e-20)
(0.0917702 3.20995 0)
(0.0928481 3.3887 9.72427e-20)
(0.241018 0.232302 0)
(1.00831 0.992637 0)
(1.15989 1.16265 0)
(1.1646 1.19369 2.6234e-21)
(1.11389 1.172 1.54917e-21)
(1.04325 1.1356 1.14282e-20)
(0.967277 1.09645 1.9586e-20)
(0.881457 1.05427 -4.38943e-21)
(0.785554 1.00683 7.9685e-20)
(0.676783 0.950804 -1.90286e-21)
(0.568474 0.889091 3.138e-19)
(0.476603 0.827191 -1.31376e-20)
(0.393858 0.740106 1.57319e-20)
(0.297735 0.585109 2.01669e-20)
(0.182774 0.432268 -4.14246e-22)
(0.0949385 1.01164 3.46133e-22)
(0.127437 2.75841 -1.938e-19)
(0.132196 3.30089 -7.37647e-20)
(0.122033 3.42426 3.96792e-20)
(0.111002 3.44419 -4.50453e-20)
(0.163634 0.177454 1.22522e-20)
(0.998453 1.01807 0)
(1.14963 1.18554 -2.56031e-20)
(1.15356 1.21664 -2.27398e-20)
(1.10303 1.19497 9.68056e-21)
(1.03278 1.15887 -1.0813e-20)
(0.95671 1.11967 -2.07639e-20)
(0.87042 1.07815 5.09916e-20)
(0.773533 1.03188 -6.59981e-20)
(0.662688 0.977818 0)
(0.550362 0.918952 1.55217e-19)
(0.45171 0.859979 -9.34522e-20)
(0.355967 0.770495 0)
(0.243513 0.5915 1.94859e-20)
(0.135832 0.788412 4.65498e-20)
(0.141792 2.55926 -5.33171e-20)
(0.190575 3.33015 6.09775e-20)
(0.172422 3.4363 3.33073e-20)
(0.142832 3.45485 3.82948e-20)
(0.123208 3.46332 6.20128e-20)
(0.276531 0.271403 -2.33295e-20)
(0.982209 1.02938 0)
(1.13211 1.21203 2.90443e-20)
(1.13949 1.24885 2.76794e-20)
(1.08603 1.22889 -1.47529e-20)
(1.01523 1.19319 5.56518e-21)
(0.937989 1.15552 2.2115e-20)
(0.851164 1.11535 3.95356e-21)
(0.752894 1.07138 6.37498e-20)
(0.639174 1.0214 1.31858e-19)
(0.521542 0.969292 8.82629e-21)
(0.411922 0.915465 8.33867e-20)
(0.28802 0.811154 1.48829e-20)
(0.206669 0.962448 -1.87707e-20)
(0.212425 2.43215 -4.28356e-20)
(0.263203 3.33625 4.33886e-20)
(0.246215 3.46378 -4.82205e-20)
(0.211728 3.48183 -2.8028e-20)
(0.177754 3.50579 -2.65112e-20)
(0.132684 3.49999 -3.84742e-21)
(0.267088 0.270531 0)
(0.979914 1.05283 9.26726e-21)
(1.12387 1.23602 -6.24596e-21)
(1.12887 1.27268 -3.59388e-21)
(1.07526 1.25242 -1.18739e-20)
(1.0045 1.21692 -4.11628e-21)
(0.926953 1.17949 -1.24688e-20)
(0.839903 1.14021 3.59726e-21)
(0.741054 1.09777 -6.69111e-20)
(0.625934 1.05069 -2.885e-21)
(0.505403 1.00378 -2.82376e-19)
(0.38999 0.952343 1.18903e-20)
(0.2757 0.88527 -1.41469e-20)
(0.241279 1.56029 -1.74082e-20)
(0.302833 3.14499 3.65497e-21)
(0.316636 3.46702 3.28824e-22)
(0.274854 3.51364 7.48743e-20)
(0.240749 3.53574 3.91401e-20)
(0.194949 3.55508 -1.48034e-20)
(0.145023 3.55099 -2.03995e-20)
(0.253136 0.268764 2.45118e-20)
(0.976747 1.07893 6.3696e-20)
(1.11528 1.26212 -1.79764e-20)
(1.11787 1.29811 -1.35244e-20)
(1.06407 1.27743 0)
(0.993406 1.24195 1.36864e-21)
(0.915827 1.20482 -1.48272e-20)
(0.828804 1.16637 3.21738e-21)
(0.729684 1.12555 -7.40627e-21)
(0.613694 1.08163 -1.20914e-19)
(0.491144 1.04039 -1.31102e-19)
(0.371295 0.990904 -9.83395e-20)
(0.27496 1.02823 -1.06787e-19)
(0.30511 2.31066 1.10163e-19)
(0.382073 3.39515 9.60274e-20)
(0.354959 3.52469 0)
(0.306702 3.55991 0)
(0.269958 3.59258 -1.18615e-20)
(0.225632 3.63737 0)
(0.156394 3.62112 -2.07334e-20)
(0.243301 0.270904 -3.74642e-20)
(0.971648 1.10598 -5.50666e-20)
(1.10534 1.28953 0)
(1.10566 1.32444 1.30374e-21)
(1.05168 1.30313 -1.60818e-20)
(0.981266 1.26758 7.37537e-21)
(0.90397 1.23077 -7.60282e-21)
(0.817198 1.19307 2.1399e-21)
(0.71806 1.15382 -4.86727e-20)
(0.601628 1.11309 6.165e-21)
(0.477927 1.07745 0)
(0.354222 1.03387 0)
(0.299187 1.31523 -9.78137e-20)
(0.382064 2.97439 4.03444e-20)
(0.446375 3.49566 5.33059e-20)
(0.39372 3.55948 0)