/*--------------------------------*- C++ -*----------------------------------*\
  =========                 |
  \\      /  F ield         | OpenFOAM: The Open Source CFD Toolbox
   \\    /   O peration     | Website:  https://openfoam.org
    \\  /    A nd           | Version:  6
     \\/     M anipulation  |
\*---------------------------------------------------------------------------*/
FoamFile
{
    version     2.0;
    format      ascii;
    class       volVectorField;
    location    "113";
    object      U;
}
// * * * * * * * * * * * * * * * * * * * * * * * * * * * * * * * * * * * * * //

dimensions      [0 1 -1 0 0 0 0];

internalField   nonuniform List<vector> 
8800
(
(0.987183 -0.0766652 0)
(1.00189 -0.0551903 0)
(0.99972 -0.0285484 0)
(1.00003 -0.0151441 0)
(1.0001 -0.0085468 0)
(1.00013 -0.00505012 0)
(1.00008 -0.00300401 0)
(1.00002 -0.00170176 0)
(0.99999 -0.000794026 0)
(1.00006 -7.44009e-05 0)
(0.999967 0.000660276 0)
(1.00003 0.00142438 0)
(1.00007 0.0024242 0)
(1.00007 0.00399673 0)
(1.00006 0.00663183 0)
(1.00006 0.0113717 0)
(0.999966 0.0208157 0)
(0.999178 0.0386703 0)
(1.0071 0.0724575 0)
(0.771215 0.0366618 0)
(0.363083 -0.016016 0)
(1.04332 -0.0768093 0)
(1.08459 -0.0704361 0)
(1.04519 -0.0535293 0)
(1.0233 -0.0388801 0)
(1.01204 -0.0262018 0)
(1.00644 -0.0168371 0)
(1.0036 -0.0102986 0)
(1.00215 -0.00563148 0)
(1.00143 -0.00196629 0)
(1.00128 0.00136034 0)
(1.00169 0.00475047 0)
(1.00271 0.00865991 0)
(1.00468 0.0139806 0)
(1.00861 0.0216897 0)
(1.01658 0.0326556 0)
(1.03252 0.0465663 0)
(1.06269 0.061682 0)
(1.09186 0.0761076 0)
(0.838662 0.0565654 0)
(0.216884 -0.00242821 0)
(1.07593 -0.050117 0)
(1.09989 -0.0482831 0)
(1.06466 -0.0404308 0)
(1.04006 -0.033568 0)
(1.02394 -0.0260396 0)
(1.01414 -0.0184443 0)
(1.00857 -0.0116096 0)
(1.00558 -0.00572774 0)
(1.0043 -0.000299475 0)
(1.00465 0.00495658 0)
(1.00664 0.0103404 0)
(1.01064 0.0163907 0)
(1.01794 0.023411 0)
(1.03053 0.0308717 0)
(1.05063 0.0378926 0)
(1.08038 0.0445711 0)
(1.10627 0.0513774 0)
(0.942485 0.0416343 0)
(0.216103 0.00246345 0)
(0.175238 -0.000814522 0)
(1.01778 -0.0354553 0)
(1.10524 -0.0413334 0)
(1.0783 -0.036008 0)
(1.05352 -0.0300649 0)
(1.03625 -0.0244767 0)
(1.02404 -0.0187288 0)
(1.0159 -0.0126266 0)
(1.01102 -0.00641854 0)
(1.00879 -6.77198e-05 0)
(1.00936 0.00620071 0)
(1.01269 0.0121879 0)
(1.01889 0.0179692 0)
(1.02875 0.0235357 0)
(1.04317 0.0288269 0)
(1.0637 0.0342951 0)
(1.09356 0.0402697 0)
(1.09338 0.0420158 0)
(0.827004 0.0229385 0)
(0.173921 0.000855585 0)
(0.154073 -0.000608107 0)
(0.956371 -0.0254175 0)
(1.10355 -0.0350584 0)
(1.08775 -0.0325657 0)
(1.06181 -0.0279 0)
(1.04419 -0.0228574 0)
(1.03171 -0.0175829 0)
(1.02284 -0.0120207 0)
(1.01699 -0.00605713 0)
(1.0141 0.000434139 0)
(1.01476 0.00691254 0)
(1.01881 0.01278 0)
(1.0258 0.0180077 0)
(1.03604 0.022913 0)
(1.05059 0.0276569 0)
(1.07183 0.0321659 0)
(1.10004 0.0360833 0)
(1.06796 0.0341138 0)
(0.739243 0.0143488 0)
(0.152084 0.000654801 0)
(0.139748 -0.000463934 0)
(0.899621 -0.0190216 0)
(1.09595 -0.02998 0)
(1.09586 -0.0290636 0)
(1.06938 -0.0253132 0)
(1.05094 -0.0211477 0)
(1.03799 -0.0163376 0)
(1.02884 -0.0110105 0)
(1.02268 -0.00523028 0)
(1.01949 0.00112598 0)
(1.02009 0.00745846 0)
(1.02425 0.0130717 0)
(1.03134 0.0179555 0)
(1.04179 0.0224053 0)
(1.05689 0.0263502 0)
(1.07909 0.0297828 0)
(1.10218 0.032384 0)
(1.03571 0.0282355 0)
(0.672466 0.0102584 0)
(0.136932 0.00051783 0)
(0.129266 -0.000358007 0)
(0.850239 -0.0146429 0)
(1.08369 -0.0258128 0)
(1.10161 -0.0260666 0)
(1.0763 -0.0227543 0)
(1.05732 -0.0190757 0)
(1.04391 -0.0147814 0)
(1.0344 -0.00980541 0)
(1.02798 -0.00422531 0)
(1.02458 0.0019606 0)
(1.02501 0.00808584 0)
(1.02912 0.0134172 0)
(1.0363 0.0178747 0)
(1.047 0.0217156 0)
(1.0625 0.024989 0)
(1.08514 0.0278933 0)
(1.10118 0.0296124 0)
(1.00056 0.0237606 0)
(0.620351 0.00790862 0)
(0.125443 0.000421432 0)
(0.121298 -0.000276668 0)
(0.808373 -0.0114658 0)
(1.0686 -0.0221617 0)
(1.10525 -0.0233722 0)
(1.08263 -0.0204636 0)
(1.06324 -0.0169895 0)
(1.04954 -0.0129893 0)
(1.03974 -0.00833738 0)
(1.03302 -0.00301596 0)
(1.02934 0.00296224 0)
(1.02957 0.00884642 0)
(1.03363 0.0138237 0)
(1.04083 0.0177927 0)
(1.05162 0.0211227 0)
(1.06732 0.0239773 0)
(1.09029 0.0265725 0)
(1.09724 0.02738 0)
(0.964944 0.0202702 0)
(0.57833 0.00639173 0)
(0.116249 0.000352125 0)
(0.115156 -0.000212645 0)
(0.773254 -0.00908084 0)
(1.0521 -0.018935 0)
(1.10776 -0.020862 0)
(1.0886 -0.0183131 0)
(1.06882 -0.0149708 0)
(1.05487 -0.0111173 0)
(1.04486 -0.00665943 0)
(1.03787 -0.00156294 0)
(1.03388 0.00417545 0)
(1.03386 0.00976865 0)
(1.03778 0.0143635 0)
(1.04488 0.0178947 0)
(1.05563 0.0208335 0)
(1.07152 0.0233538 0)
(1.09413 0.0255914 0)
(1.0904 0.0255633 0)
(0.930155 0.0176013 0)
(0.543372 0.00536589 0)
(0.108617 0.000302888 0)
(0.110411 -0.000160788 0)
(0.743953 -0.00722031 0)
(1.03525 -0.0160605 0)
(1.10937 -0.0184788 0)
(1.09431 -0.0162221 0)
(1.07424 -0.0129562 0)
(1.06001 -0.00917366 0)
(1.04979 -0.00481744 0)
(1.04255 0.00012485 0)
(1.03824 0.00563804 0)
(1.03788 0.0109284 0)
(1.04155 0.0151559 0)
(1.04846 0.0182965 0)
(1.05914 0.020887 0)
(1.07521 0.0231062 0)
(1.09664 0.0249498 0)
(1.08102 0.0241216 0)
(0.89672 0.0156053 0)
(0.513403 0.00466234 0)
(0.102061 0.000269051 0)
(0.106782 -0.000117292 0)
(0.719663 -0.00570952 0)
(1.01891 -0.0134654 0)
(1.11022 -0.0161576 0)
(1.09994 -0.014155 0)
(1.07961 -0.0108823 0)
(1.06508 -0.00710749 0)
(1.05462 -0.0027897 0)
(1.04709 0.00206156 0)
(1.0424 0.00739573 0)
(1.04163 0.012411 0)
(1.04497 0.0162938 0)
(1.05163 0.0190597 0)
(1.06221 0.0213129 0)
(1.07844 0.0232523 0)
(1.09773 0.024663 0)
(1.06945 0.0230564 0)
(0.86472 0.0141677 0)
(0.486945 0.00419138 0)
(0.0962347 0.000247612 0)
(0.104085 -7.91456e-05 0)
(0.699759 -0.00443149 0)
(1.0037 -0.0110804 0)
(1.11046 -0.0138611 0)
(1.10546 -0.0120258 0)
(1.08501 -0.00869302 0)
(1.07016 -0.00486302 0)
(1.05941 -0.000519006 0)
(1.05154 0.00430285 0)
(1.04638 0.00951231 0)
(1.04511 0.0142896 0)
(1.04804 0.0178451 0)
(1.0544 0.0202419 0)
(1.06485 0.0221644 0)
(1.08119 0.0238254 0)
(1.09772 0.0248902 0)
(1.05592 0.0223882 0)
(0.833942 0.0132072 0)
(0.462873 0.00389929 0)
(0.09087 0.000236221 0)
(0.102205 -4.36063e-05 0)
(0.683786 -0.00329807 0)
(0.990084 -0.00883291 0)
(1.11034 -0.0114997 0)
(1.11086 -0.00974886 0)
(1.09054 -0.00632401 0)
(1.07533 -0.00237366 0)
(1.06424 0.00206693 0)
(1.05594 0.00692617 0)
(1.05023 0.0120672 0)
(1.04834 0.0166429 0)
(1.05079 0.0198844 0)
(1.05678 0.0219116 0)
(1.06706 0.023501 0)
(1.0834 0.0248636 0)
(1.09679 0.0254525 0)
(1.04052 0.0221263 0)
(0.803993 0.0126478 0)
(0.440288 0.00374755 0)
(0.0857556 0.00023272 0)
(0.101086 -8.34206e-06 0)
(0.671461 -0.00223846 0)
(0.978445 -0.0066465 0)
(1.11018 -0.00901556 0)
(1.11627 -0.00726202 0)
(1.09628 -0.00369656 0)
(1.08069 0.000443448 0)
(1.06918 0.00505463 0)
(1.06037 0.0100232 0)
(1.05397 0.0151552 0)
(1.05135 0.0195645 0)
(1.05322 0.0225023 0)
(1.05878 0.0241623 0)
(1.06885 0.0254104 0)
(1.08516 0.026474 0)
(1.09449 0.0265252 0)
(1.02327 0.0222801 0)
(0.774383 0.0124457 0)
(0.418456 0.00371227 0)
(0.0807233 0.000235846 0)
(0.100721 2.867e-05 0)
(0.66265 -0.00119575 0)
(0.96911 -0.00444657 0)
(1.11032 -0.00634687 0)
(1.12186 -0.00449068 0)
(1.10233 -0.000720743 0)
(1.08631 0.0036846 0)
(1.07431 0.00854555 0)
(1.06488 0.0137015 0)
(1.05766 0.0188891 0)
(1.05415 0.0231686 0)
(1.05532 0.025815 0)
(1.06038 0.0271089 0)
(1.07018 0.0279933 0)
(1.08635 0.0287166 0)
(1.09072 0.0281302 0)
(1.00403 0.0228964 0)
(0.744547 0.0125774 0)
(0.396741 0.00378022 0)
(0.0756294 0.000244859 0)
(0.101136 6.3367e-05 0)
(0.657354 -0.000112486 0)
(0.962394 -0.00215608 0)
(1.11113 -0.00342567 0)
(1.12779 -0.00134869 0)
(1.10879 0.00270612 0)
(1.0923 0.00746209 0)
(1.07973 0.0126609 0)
(1.06954 0.018089 0)
(1.06134 0.0234011 0)
(1.05675 0.0275873 0)
(1.0571 0.0299603 0)
(1.06156 0.0308758 0)
(1.07103 0.0313752 0)
(1.08666 0.0317167 0)
(1.08515 0.0303617 0)
(0.982547 0.024015 0)
(0.713851 0.0130275 0)
(0.374558 0.003941 0)
(0.0703473 0.000258798 0)
(0.102401 0.000120357 0)
(0.655739 0.00106315 0)
(0.95863 0.00030428 0)
(1.11299 -0.000171797 0)
(1.13427 0.00226543 0)
(1.11581 0.00670533 0)
(1.09879 0.0119111 0)
(1.08553 0.0175492 0)
(1.07443 0.0233436 0)
(1.06503 0.028852 0)
(1.05917 0.0329789 0)
(1.05853 0.0350892 0)
(1.06228 0.0356022 0)
(1.07133 0.0356937 0)
(1.08594 0.0356142 0)
(1.0775 0.0333077 0)
(0.958397 0.0256747 0)
(0.681584 0.0137844 0)
(0.351357 0.00418415 0)
(0.0647678 0.000276558 0)
(0.104653 0.000170712 0)
(0.657863 0.00221629 0)
(0.958189 0.00302974 0)
(1.11638 0.0035255 0)
(1.14154 0.00647086 0)
(1.12352 0.0114222 0)
(1.10591 0.0171952 0)
(1.09183 0.023389 0)
(1.07961 0.0296528 0)
(1.06879 0.0354298 0)
(1.0614 0.0395216 0)
(1.05961 0.0413469 0)
(1.0625 0.0414509 0)
(1.07105 0.0411108 0)
(1.08398 0.0404804 0)
(1.06741 0.0370747 0)
(0.931015 0.0279203 0)
(0.646983 0.0148365 0)
(0.326633 0.0044978 0)
(0.0588034 0.000296792 0)
(0.108049 0.000236022 0)
(0.664488 0.00370406 0)
(0.961388 0.00600676 0)
(1.12177 0.00779532 0)
(1.14984 0.0114008 0)
(1.13214 0.0170412 0)
(1.11383 0.023521 0)
(1.09874 0.0304044 0)
(1.08518 0.0372474 0)
(1.07262 0.0433594 0)
(1.06343 0.0474236 0)
(1.06031 0.0489689 0)
(1.06217 0.0486148 0)
(1.07012 0.0478055 0)
(1.08077 0.0465324 0)
(1.05436 0.0417859 0)
(0.899646 0.0307827 0)
(0.609223 0.016158 0)
(0.299929 0.00486336 0)
(0.0523937 0.000317473 0)
(0.112858 0.000324896 0)
(0.676024 0.00547315 0)
(0.96881 0.00953247 0)
(1.12966 0.0128092 0)
(1.15952 0.0172757 0)
(1.14191 0.0238056 0)
(1.12274 0.0311572 0)
(1.10641 0.0388797 0)
(1.0912 0.0464116 0)
(1.07656 0.0529063 0)
(1.06523 0.0569217 0)
(1.06052 0.0581667 0)
(1.06127 0.0572999 0)
(1.06849 0.0559804 0)
(1.07619 0.0539493 0)
(1.03764 0.0475438 0)
(0.863338 0.0342576 0)
(0.567443 0.0176942 0)
(0.270875 0.00525025 0)
(0.0455198 0.000335701 0)
(0.119449 0.000443201 0)
(0.693252 0.00768387 0)
(0.981318 0.0138398 0)
(1.14064 0.0187998 0)
(1.171 0.0243705 0)
(1.15311 0.0320427 0)
(1.13286 0.0404611 0)
(1.11498 0.0491805 0)
(1.09772 0.0574949 0)
(1.08057 0.0643779 0)
(1.06675 0.0682758 0)
(1.06013 0.069115 0)
(1.05973 0.0677166 0)
(1.06624 0.0658336 0)
(1.06989 0.0629162 0)
(1.01632 0.0544066 0)
(0.82093 0.03828 0)
(0.520815 0.0193412 0)
(0.239272 0.00561162 0)
(0.0382244 0.000347685 0)
(0.128355 0.000608402 0)
(0.717182 0.0105695 0)
(0.999775 0.0192139 0)
(1.15537 0.0261197 0)
(1.18472 0.033064 0)
(1.1661 0.0422167 0)
(1.14444 0.0519252 0)
(1.12455 0.061792 0)
(1.10473 0.0709291 0)
(1.08458 0.078127 0)
(1.06788 0.0817591 0)
(1.05913 0.0820703 0)
(1.05752 0.0800585 0)
(1.063 0.0775301 0)
(1.06124 0.0734306 0)
(0.989136 0.0623693 0)
(0.771077 0.0426713 0)
(0.468667 0.0209228 0)
(0.205196 0.00588209 0)
(0.0306317 0.000348993 0)
(0.140401 0.000851043 0)
(0.749208 0.014524 0)
(1.02527 0.0261138 0)
(1.17466 0.0353191 0)
(1.20138 0.0440003 0)
(1.1813 0.0550198 0)
(1.15767 0.0662482 0)
(1.13515 0.0773536 0)
(1.11215 0.0872382 0)
(1.08844 0.0945354 0)
(1.0685 0.0976414 0)
(1.05745 0.0972485 0)
(1.05466 0.0945839 0)
(1.05844 0.0913352 0)
(1.04929 0.0856845 0)
(0.954423 0.0712479 0)
(0.712345 0.0470825 0)
(0.410703 0.0221755 0)
(0.169133 0.0059809 0)
(0.0229641 0.000335282 0)
(0.156916 0.00123075 0)
(0.791352 0.0201973 0)
(1.05946 0.0353334 0)
(1.19948 0.0473806 0)
(1.22186 0.0585619 0)
(1.19908 0.0715358 0)
(1.17265 0.0844357 0)
(1.14666 0.0966902 0)
(1.11973 0.107025 0)
(1.0919 0.11399 0)
(1.06838 0.116159 0)
(1.05494 0.11482 0)
(1.05108 0.111398 0)
(1.05252 0.107408 0)
(1.03273 0.0995872 0)
(0.91004 0.080604 0)
(0.643459 0.050943 0)
(0.347351 0.0227578 0)
(0.132108 0.00582692 0)
(0.0155419 0.000303547 0)
(0.180186 0.00189095 0)
(0.846872 0.0287749 0)
(1.10527 0.0484902 0)
(1.23089 0.0641375 0)
(1.24662 0.0783651 0)
(1.21955 0.0934633 0)
(1.18912 0.107869 0)
(1.15864 0.120794 0)
(1.127 0.130919 0)
(1.09456 0.136844 0)
(1.06727 0.137489 0)
(1.0514 0.13487 0)
(1.04657 0.13056 0)
(1.04489 0.125566 0)
(1.00958 0.114779 0)
(0.853379 0.0896342 0)
(0.563865 0.0534512 0)
(0.280247 0.0223153 0)
(0.0957568 0.00536476 0)
(0.00876086 0.000252569 0)
(0.213754 0.00335428 0)
(0.921679 0.0430587 0)
(1.16568 0.0695341 0)
(1.26923 0.0890935 0)
(1.27554 0.1066 0)
(1.24212 0.123276 0)
(1.20626 0.138229 0)
(1.17026 0.15068 0)
(1.13331 0.159469 0)
(1.09596 0.163344 0)
(1.06484 0.161724 0)
(1.04665 0.157408 0)
(1.04098 0.152073 0)
(1.0346 0.145789 0)
(0.976929 0.130519 0)
(0.781617 0.0970303 0)
(0.474906 0.053707 0)
(0.212915 0.020676 0)
(0.0623737 0.00460556 0)
(0.00308929 0.00018268 0)
(0.259574 0.00990042 1.63637e-20)
(1.0195 0.0713494 1.3911e-20)
(1.23815 0.105384 -4.78175e-21)
(1.31179 0.12642 0)
(1.3056 0.147095 -1.14055e-34)
(1.26449 0.163419 1.64767e-21)
(1.22244 0.177076 -2.85381e-21)
(1.18047 0.187593 0)
(1.1379 0.19397 5.63695e-35)
(1.09541 0.195054 -3.31909e-21)
(1.06032 0.190794 0)
(1.04007 0.184899 -3.86358e-21)
(1.03439 0.179285 -1.13517e-20)
(1.01905 0.171631 -5.35678e-21)
(0.928117 0.148466 -1.60247e-21)
(0.686122 0.102571 -9.49043e-22)
(0.372179 0.0513329 0)
(0.145251 0.0181252 6.62842e-22)
(0.0320916 0.00366196 7.84996e-22)
(-0.00158022 6.10591e-05 1.4373e-20)
(0.291886 0.0258409 1.33067e-20)
(1.10108 0.116158 1.2147e-22)
(1.29796 0.156427 1.33453e-21)
(1.35082 0.17762 0)
(1.33235 0.198199 -5.9477e-21)
(1.2842 0.21254 -6.61908e-21)
(1.23611 0.224111 -2.9163e-21)
(1.18825 0.232464 -1.00185e-20)
(1.14005 0.236562 0)
(1.09226 0.235192 1.40592e-20)
(1.05296 0.228676 1.37805e-20)
(1.02982 0.221199 4.05158e-21)
(1.02123 0.215024 1.46551e-20)
(0.988418 0.202467 2.05071e-20)
(0.84603 0.166381 0)
(0.552702 0.104785 2.86867e-20)
(0.256244 0.0467404 4.10992e-20)
(0.0792039 0.0143258 4.57207e-20)
(0.00462338 0.00163709 -5.24403e-20)
(-0.005556 -0.000459149 -1.0011e-21)
(0.294361 0.044211 0)
(1.15433 0.173944 2.61019e-21)
(1.33973 0.218831 0)
(1.38177 0.239998 -8.62442e-21)
(1.35397 0.257241 0)
(1.29989 0.267714 -1.32863e-20)
(1.2462 0.275663 6.0016e-21)
(1.19282 0.280661 -2.03969e-20)
(1.13936 0.281563 -3.3619e-22)
(1.08673 0.277077 7.27871e-21)
(1.04371 0.267949 2.9945e-20)
(1.01809 0.258732 -2.18362e-23)
(1.00537 0.250801 -1.05657e-20)
(0.952587 0.232064 -1.90486e-20)
(0.76521 0.180762 2.24917e-20)
(0.448938 0.103683 -3.9735e-20)
(0.184683 0.0418745 -5.21856e-21)
(0.0429543 0.0106696 0)
(-0.00920372 -0.000611739 -3.08958e-24)
(-0.00732493 -0.00103919 0)
(0.288235 0.0595597 4.23591e-20)
(1.18469 0.23565 -1.92704e-20)
(1.36684 0.286123 -1.30977e-20)
(1.40292 0.307501 4.25843e-21)
(1.36884 0.320576 -6.9991e-21)
(1.3104 0.326483 2.78325e-20)
(1.25218 0.330046 1.25141e-20)
(1.19415 0.33094 0)
(1.13615 0.327986 -3.70484e-20)
(1.07931 0.319854 0)
(1.03307 0.307803 -1.56545e-20)
(1.00522 0.296617 -1.90676e-20)
(0.987637 0.286104 -1.13867e-20)
(0.91497 0.259445 -1.37082e-20)
(0.692898 0.192336 0)
(0.373399 0.102521 0)
(0.138489 0.0382641 -3.3659e-20)
(0.0204134 0.0072824 6.63576e-21)
(-0.017707 -0.00296972 -3.91959e-21)
(-0.00838222 -0.00164283 -4.64241e-21)
(0.280431 0.0729344 -2.24875e-20)
(1.19945 0.297306 0)
(1.38282 0.354418 2.93513e-20)
(1.41538 0.376178 1.25306e-20)
(1.37702 0.385177 1.55996e-20)
(1.31547 0.386479 0)
(1.25384 0.385496 1.24771e-20)
(1.19212 0.382018 2.25086e-20)
(1.1304 0.374876 1.90643e-20)
(1.07002 0.362784 3.35604e-20)
(1.02105 0.347602 0)
(0.991164 0.334265 -4.07247e-20)
(0.968265 0.32045 -2.43249e-20)
(0.87705 0.284823 -1.43373e-20)
(0.630351 0.202148 8.67725e-20)
(0.318278 0.101832 1.02441e-20)
(0.107029 0.0352705 4.82569e-20)
(0.00481755 0.00388818 -2.28052e-19)
(-0.0237798 -0.00545477 1.35073e-19)
(-0.00915942 -0.00226224 -1.64889e-19)
(0.27252 0.0848917 -1.7698e-20)
(1.20397 0.356826 4.22276e-21)
(1.39051 0.421678 -3.82738e-21)
(1.42084 0.444105 -1.48482e-20)
(1.37947 0.449255 -1.44017e-20)
(1.31565 0.446088 3.53184e-22)
(1.25143 0.440649 -1.3401e-20)
(1.18684 0.432803 2.32796e-20)
(1.12212 0.421387 -4.06784e-20)
(1.05883 0.405214 0)
(1.00757 0.386802 -1.85463e-20)
(0.975853 0.371204 -3.04058e-22)
(0.947487 0.3536 -2.63673e-20)
(0.839817 0.308289 0)
(0.576937 0.210585 -1.86417e-20)
(0.276951 0.101543 -4.39634e-20)
(0.0839483 0.032498 1.16689e-19)
(-0.00689893 0.000383625 -1.14901e-19)
(-0.0284315 -0.00803013 1.63328e-19)
(-0.00974818 -0.00288343 -1.71865e-19)
(0.265388 0.0957684 -1.20481e-22)
(1.20171 0.413394 -3.48996e-21)
(1.39206 0.486789 -1.40063e-20)
(1.42076 0.510141 6.92809e-21)
(1.37723 0.511767 -7.37987e-21)
(1.31176 0.504356 0)
(1.24554 0.494641 -1.2966e-20)
(1.17864 0.48254 -2.43921e-20)
(1.1115 0.466893 -2.11979e-20)
(1.04581 0.446624 0)
(0.992695 0.424946 -1.91082e-20)
(0.959371 0.407008 -2.32827e-20)
(0.925662 0.385282 2.83201e-20)
(0.80385 0.329809 -1.70451e-20)
(0.531271 0.217963 -8.019e-20)
(0.244669 0.101504 4.72592e-20)
(0.065789 0.0297558 1.39321e-20)
(-0.0164129 -0.00325804 0)
(-0.0322173 -0.0106606 -1.55932e-19)
(-0.0101839 -0.0034897 -5.77538e-21)
(0.259251 0.105911 -1.76894e-21)
(1.19498 0.466773 3.09462e-21)
(1.38898 0.549171 7.15823e-21)
(1.41637 0.573613 2.30993e-20)
(1.37126 0.572068 -2.89815e-20)
(1.30458 0.560715 2.89329e-20)
(1.23679 0.546964 2.76985e-20)
(1.16803 0.530777 -3.88613e-20)
(1.09886 0.510995 1.25601e-20)
(1.0312 0.486653 -8.11348e-20)
(0.97659 0.461692 -2.12986e-20)
(0.941911 0.441369 0)
(0.903143 0.415289 3.04477e-20)
(0.769336 0.349443 3.61757e-20)
(0.491828 0.224473 4.29506e-20)
(0.218303 0.101561 -5.07334e-20)
(0.0505029 0.0269287 -1.49555e-20)
(-0.0247716 -0.00704993 1.76442e-20)
(-0.0355874 -0.0133629 0)
(-0.0105272 -0.0040793 -1.23894e-20)
(0.254046 0.115373 1.36676e-20)
(1.18554 0.516972 -1.06228e-20)
(1.38259 0.608847 -7.22083e-21)
(1.40866 0.634178 1.5251e-20)
(1.36237 0.629781 -1.4142e-20)
(1.29482 0.6148 -8.65811e-22)
(1.2258 0.597309 -2.99585e-20)
(1.15549 0.577258 -1.39615e-20)
(1.0846 0.553464 -3.64513e-20)
(1.01526 0.525084 2.13293e-23)
(0.959491 0.496816 -6.64864e-20)
(0.923719 0.474035 5.50464e-20)
(0.88027 0.443435 -3.30227e-20)
(0.736375 0.367177 3.92686e-20)
(0.457316 0.230186 0)
(0.195936 0.101629 -2.72273e-20)
(0.0368309 0.0239521 2.34314e-23)
(-0.0327349 -0.0110662 -7.58072e-20)
(-0.0389845 -0.0162193 -1.12148e-20)
(-0.0108488 -0.00466724 0)
(0.249765 0.124427 0)
(1.17447 0.564213 -1.05763e-20)
(1.3737 0.665657 -1.29391e-20)
(1.39847 0.691675 -1.52555e-20)
(1.35126 0.68471 -1.64837e-20)
(1.28308 0.666427 0)
(1.21307 0.645498 -1.43547e-20)
(1.14145 0.621833 -2.53062e-22)
(1.06907 0.594196 7.78107e-20)
(0.998277 0.561811 -1.11723e-20)
(0.941587 0.530166 -4.77754e-20)
(0.904974 0.504821 2.86742e-20)
(0.857286 0.46957 -3.91944e-22)
(0.705104 0.382986 4.16907e-20)
(0.426838 0.235122 2.49432e-20)
(0.17641 0.101575 -5.83524e-20)
(0.0241697 0.0207036 6.87722e-20)
(-0.0407888 -0.0154729 2.03213e-20)
(-0.0428024 -0.019392 8.42269e-20)
(-0.0112746 -0.00530497 -2.27969e-19)
(0.246351 0.133243 1.36898e-21)
(1.16259 0.60867 -3.88436e-21)
(1.36301 0.719357 4.26421e-21)
(1.38645 0.746076 1.45496e-20)
(1.33852 0.736781 0)
(1.26987 0.715504 -1.48464e-20)
(1.19906 0.691447 4.74103e-20)
(1.12631 0.664439 3.08667e-20)
(1.05257 0.633147 0)
(0.980446 0.596801 -1.59231e-19)
(0.923009 0.561659 1.2836e-19)
(0.885802 0.533573 0)
(0.834393 0.493512 3.80148e-20)
(0.675556 0.396846 -2.95211e-22)
(0.399815 0.23922 -7.98189e-20)
(0.15912 0.101211 3.12437e-20)
(0.0122658 0.0170193 0)
(-0.0490488 -0.0203987 1.08897e-19)
(-0.0472346 -0.0230385 0)
(-0.0119159 -0.00606239 -1.06901e-19)
(0.243736 0.14183 -7.61841e-22)
(1.15045 0.650579 -2.42625e-21)
(1.35103 0.77002 4.95709e-21)
(1.37314 0.797413 0)
(1.32461 0.78601 -1.62119e-20)
(1.25563 0.762029 0)
(1.18415 0.735132 -4.81496e-20)
(1.11038 0.70506 -1.49594e-20)
(1.03537 0.670336 1.39886e-20)
(0.961947 0.63009 -7.8705e-20)
(0.903831 0.591282 1.33515e-20)
(0.866254 0.560185 0)
(0.811721 0.515114 -8.08709e-20)
(0.647774 0.408652 2.14156e-22)
(0.375901 0.242387 0)
(0.143798 0.100299 2.70062e-23)
(0.00117528 0.0127128 9.87043e-20)
(-0.0573417 -0.025932 -9.32971e-20)
(-0.0522253 -0.027238 2.76235e-20)
(-0.012823 -0.00698857 0)
(0.241597 0.150168 0)
(1.13832 0.690147 -1.29366e-21)
(1.33822 0.817777 -3.31996e-21)
(1.35898 0.845773 -5.36436e-22)
(1.30996 0.832453 -7.16184e-21)
(1.24073 0.806039 -3.37397e-20)
(1.16867 0.776584 1.77596e-20)
(1.09397 0.743724 -1.71547e-20)
(1.01771 0.705812 6.17711e-20)
(0.942928 0.661762 -1.25997e-19)
(0.884086 0.619081 -7.57229e-22)
(0.84631 0.584583 -3.58747e-20)
(0.789281 0.534213 1.30475e-19)
(0.6218 0.418354 -3.15924e-22)
(0.354856 0.244515 -6.10313e-20)
(0.130298 0.0986086 -1.0766e-19)
(-0.00880535 0.00778379 0)
(-0.0652291 -0.0320145 0)
(-0.0574622 -0.0319446 2.95836e-20)
(-0.0139605 -0.00809931 -1.75318e-20)
(0.240115 0.158453 8.27872e-22)
(1.12639 0.727476 1.31928e-21)
(1.32493 0.86275 3.53985e-21)
(1.34432 0.891254 0)
(1.29488 0.876193 -3.13491e-22)
(1.22547 0.847599 -3.33508e-20)
(1.15291 0.815856 4.4594e-20)
(1.07733 0.780482 6.94084e-20)
(0.999817 0.739654 8.10644e-20)
(0.923541 0.691945 -1.03659e-19)
(0.863792 0.645173 -1.10295e-19)
(0.825873 0.606748 9.59655e-20)
(0.767038 0.550672 0)
(0.597616 0.425836 -2.78866e-20)
(0.336496 0.245514 -6.53897e-20)
(0.118585 0.0961437 -7.68525e-20)
(-0.0175002 0.00240063 -9.05661e-20)
(-0.0723238 -0.0384236 2.67657e-20)
(-0.0624965 -0.0369679 -1.58441e-20)
(-0.0152059 -0.00935392 1.079e-23)
(0.238885 0.16652 0)
(1.11514 0.762502 0)
(1.31142 0.905059 5.12627e-22)
(1.3294 0.933971 0)
(1.27963 0.91734 2.17436e-20)
(1.21009 0.886798 2.47824e-20)
(1.13709 0.853017 0)
(1.06067 0.815399 8.59584e-21)
(0.981881 0.771942 1.36729e-19)
(0.90394 0.720786 -2.38738e-19)
(0.842967 0.66975 0)
(0.80479 0.626733 -6.18959e-20)
(0.744801 0.564314 -4.6041e-22)
(0.575161 0.430928 -2.35234e-22)
(0.320781 0.245325 6.99437e-20)
(0.108819 0.0933224 -1.42169e-24)
(-0.024986 -0.00252377 -1.94009e-19)
(-0.0789355 -0.044324 5.73173e-20)
(-0.0674237 -0.0419686 1.69859e-20)
(-0.016462 -0.0106771 0)
(0.237918 0.174329 -8.09002e-21)
(1.10432 0.795755 -1.86792e-21)
(1.29781 0.944802 3.06954e-21)
(1.31447 0.974043 -2.00004e-20)
(1.26442 0.955985 3.57572e-20)
(1.19481 0.923726 0)
(1.12141 0.888146 2.86311e-20)
(1.04419 0.848552 -1.89792e-20)
(0.964084 0.802762 7.98558e-22)
(0.884284 0.74844 1.75113e-20)
(0.821646 0.693062 1.44271e-19)
(0.782873 0.644713 -2.18679e-20)
(0.722282 0.575021 -8.02679e-20)
(0.55433 0.433301 -3.21027e-20)
(0.30807 0.243658 3.75056e-20)
(0.101951 0.0909772 -1.28882e-24)
(-0.0309847 -0.00478957 5.19476e-20)
(-0.0868976 -0.0480371 -1.22809e-19)
(-0.0746345 -0.0470371 1.45588e-19)
(-0.0183236 -0.0123455 2.15319e-20)
(0.236998 0.181886 3.7239e-21)
(1.09397 0.827284 -1.46435e-21)
(1.28431 0.982125 1.33777e-21)
(1.29968 1.01161 -8.36752e-21)
(1.24942 0.992256 -6.26162e-21)
(1.17977 0.958475 -4.57921e-20)
(1.10605 0.921324 9.0997e-21)
(1.02804 0.880003 -8.01313e-20)
(0.946597 0.832179 -1.53687e-19)
(0.864727 0.775027 -1.44303e-19)
(0.799905 0.715389 0)
(0.759927 0.660994 -9.59748e-20)
(0.699004 0.582767 1.15563e-19)
(0.534695 0.432285 0)
(0.299069 0.239408 -8.03119e-20)
(0.100902 0.0884147 4.71213e-20)
(-0.0315378 -0.00388581 -5.56205e-20)
(-0.0959321 -0.0500102 -6.58054e-20)
(-0.0879919 -0.0540522 -1.1695e-19)
(-0.0227356 -0.0155436 -9.23384e-20)
(0.236439 0.189274 -4.85267e-21)
(1.08397 0.857123 1.58578e-21)
(1.27102 1.01712 1.75568e-21)
(1.28517 1.04677 -9.38359e-21)
(1.23476 1.02626 1.43649e-20)
(1.1651 0.991147 -2.75453e-20)
(1.0911 0.95262 2.99848e-20)
(1.01236 0.909829 -8.39211e-20)
(0.929553 0.86027 -9.2057e-20)
(0.84543 0.800666 1.53169e-19)
(0.777847 0.737005 3.21184e-19)
(0.735801 0.676027 0)
(0.674324 0.587737 0)
(0.515363 0.427173 -3.69381e-20)
(0.293651 0.230776 0)
(0.107716 0.0817475 1.01059e-19)
(-0.0197839 -0.00805161 1.19094e-19)
(-0.0946275 -0.0578418 0)
(-0.102045 -0.0662735 0)
(-0.0311479 -0.0217198 9.91563e-20)
(0.235769 0.19624 6.23861e-21)
(1.07437 0.885303 4.64822e-21)
(1.25805 1.0499 1.57139e-21)
(1.27104 1.07967 5.85011e-21)
(1.22052 1.05811 1.39724e-20)
(1.15091 1.02183 3.20516e-20)
(1.07669 0.982113 -4.21632e-20)
(0.997264 0.938083 -3.1281e-22)
(0.913086 0.887086 -1.06171e-21)
(0.826546 0.82544 -5.17557e-22)
(0.755626 0.758155 1.66579e-19)
(0.71043 0.690325 0)
(0.647555 0.590464 1.1813e-19)
(0.494519 0.417656 7.97282e-20)
(0.288928 0.215118 1.86532e-19)
(0.120833 0.0623595 5.44186e-20)
(0.00677904 -0.0313215 -6.39803e-20)
(-0.0628751 -0.0830602 -3.79436e-20)
(-0.0851902 -0.0818341 0)
(-0.0357171 -0.0278528 1.06971e-19)
(0.235458 0.203226 -1.55641e-20)
(1.06516 0.911936 0)
(1.24541 1.08055 3.52621e-21)
(1.25731 1.11041 3.81398e-21)
(1.2068 1.08792 -1.27875e-20)
(1.13725 1.05062 -4.06691e-20)
(1.06288 1.00987 8.63151e-20)
(0.98282 0.964816 -6.39766e-21)
(0.897294 0.912668 0)
(0.808227 0.849393 -1.72966e-19)
(0.733436 0.779031 -3.67409e-19)
(0.683867 0.704437 1.46494e-20)
(0.618166 0.591786 1.6548e-19)
(0.4703 0.404456 0)
(0.280555 0.191413 1.26677e-19)
(0.131064 0.0269459 0)
(0.0357296 -0.0841239 0)
(-0.00562346 -0.139323 -4.0829e-20)
(0.00166685 -0.107045 0)
(0.0141905 -0.00953884 2.88409e-20)
(0.234918 0.209681 -1.85696e-20)
(1.05632 0.93736 0)
(1.23311 1.10928 7.37289e-21)
(1.24397 1.13924 0)
(1.19355 1.11595 5.77409e-21)
(1.12408 1.0778 0)
(1.04963 1.03619 4.88793e-21)
(0.968955 0.990363 1.20214e-20)
(0.882078 0.937377 1.1834e-20)
(0.79033 0.87291 -1.92328e-19)
(0.711102 0.800151 1.12804e-20)
(0.655767 0.719297 1.18243e-19)
(0.585337 0.592912 1.62785e-19)
(0.440632 0.388635 2.13862e-20)
(0.264224 0.161789 1.00229e-19)
(0.128335 -0.0209867 0)
(0.0481786 -0.158487 1.34414e-19)
(0.028737 -0.160307 -7.90247e-20)
(0.0171716 0.0207834 9.31122e-20)
(-0.0388407 0.467611 -1.10602e-19)
(0.234441 0.215979 1.60831e-20)
(1.04763 0.961417 2.19966e-20)
(1.22107 1.13641 0)
(1.23088 1.16659 9.76722e-22)
(1.1806 1.1428 -1.30795e-20)
(1.11112 1.10406 6.6014e-20)
(1.03662 1.06187 3.24923e-20)
(0.955251 1.01564 0)
(0.866897 0.962272 8.07245e-20)
(0.772166 0.897237 -1.03094e-20)
(0.68766 0.8229 0)
(0.624605 0.736371 0)
(0.546279 0.594673 1.4808e-19)
(0.401755 0.370271 -6.61533e-20)
(0.236132 0.128011 -1.03149e-19)
(0.110885 -0.0782917 0)
(0.0383664 -0.11424 6.84518e-20)
(-0.000647398 0.440078 -7.94816e-20)
(0.0255944 1.95965 -4.50517e-20)
(0.0509417 2.84121 -5.51714e-20)
(0.233725 0.221793 -1.29485e-20)
(1.03917 0.98429 -2.97924e-20)
(1.20933 1.16195 5.23081e-21)
(1.21806 1.19235 3.7567e-22)
(1.16802 1.16826 0)
(1.09849 1.12912 4.39111e-20)
(1.02407 1.08661 4.7872e-20)
(0.941926 1.04024 -6.11551e-21)
(0.85207 0.986879 1.21019e-20)
(0.754187 0.92187 1.87062e-19)
(0.663831 0.846904 1.92407e-19)
(0.591421 0.756206 1.37499e-19)
(0.50142 0.598666 1.51624e-19)
(0.352986 0.350149 -1.59098e-19)
(0.199869 0.0971491 -1.58526e-19)
(0.0743689 -0.0104593 0)
(0.0293224 0.945106 0)
(0.0730536 2.61126 3.874e-20)
(0.0763701 3.22749 0)
(0.0790929 3.39444 1.01948e-19)
(0.235912 0.227343 0)
(1.03132 1.0064 0)
(1.19757 1.18577 0)
(1.20531 1.21637 7.61904e-22)
(1.15546 1.19209 -1.10147e-20)
(1.08601 1.15285 2.96506e-20)
(1.01192 1.11031 3.22386e-20)
(0.92892 1.06404 -6.14255e-21)
(0.837546 1.01103 1.04934e-19)
(0.736411 0.946662 -1.29811e-21)
(0.639775 0.872065 3.87343e-19)
(0.556676 0.779261 -1.59642e-20)
(0.45083 0.607059 1.89541e-20)
(0.293943 0.328581 2.3377e-20)
(0.146837 0.100914 -1.0826e-21)
(0.0679802 1.06292 3.19099e-22)
(0.10349 2.79753 -2.09347e-19)
(0.10787 3.30629 -7.89633e-20)
(0.102464 3.42306 4.23949e-20)
(0.0950941 3.44178 -4.85049e-20)
(0.157854 0.171958 8.58414e-21)
(1.01884 1.03045 0)
(1.18554 1.2081 -1.3538e-20)
(1.1931 1.23912 -4.71654e-21)
(1.14338 1.21478 -1.5365e-20)
(1.07435 1.17573 -2.9958e-20)
(0.999959 1.13299 -3.53929e-20)
(0.916269 1.08708 7.51572e-20)
(0.823418 1.03481 -8.83633e-20)
(0.719109 0.971752 0)
(0.615907 0.898536 1.9496e-19)
(0.521074 0.805753 -1.15445e-19)
(0.400536 0.636787 0)
(0.22502 0.313259 2.34922e-20)
(0.100929 0.669599 5.38635e-20)
(0.116606 2.61907 -6.00078e-20)
(0.160606 3.32654 6.80364e-20)
(0.148028 3.42758 3.71828e-20)
(0.124745 3.44631 4.20128e-20)
(0.108053 3.45532 6.88477e-20)
(0.270055 0.264041 -1.59238e-20)
(0.999033 1.03895 0)
(1.16543 1.23328 1.65942e-20)
(1.17743 1.27031 9.09303e-21)
(1.12483 1.24819 1.07652e-20)
(1.05524 1.20939 2.52555e-20)
(0.979608 1.1681 4.27312e-20)
(0.895116 1.12324 5.84703e-21)
(0.800305 1.07286 8.82865e-20)
(0.691816 1.01336 1.71932e-19)
(0.5799 0.944866 1.13264e-20)
(0.46542 0.847179 1.06317e-19)
(0.304768 0.64501 1.88149e-20)
(0.183896 0.790631 -2.31734e-20)
(0.190673 2.51987 -5.088e-20)
(0.241814 3.32298 5.13121e-20)
(0.225013 3.445 -5.69239e-20)
(0.193237 3.46544 -3.26259e-20)
(0.162327 3.49071 -3.17734e-20)
(0.11897 3.48803 -4.4966e-21)
(0.259615 0.262523 0)
(0.994931 1.0611 6.39324e-21)
(1.15572 1.25657 -3.89151e-21)
(1.16549 1.29378 -1.6375e-21)
(1.11293 1.2714 4.66349e-21)
(1.04329 1.23272 -2.31156e-20)
(0.967214 1.19153 -2.59757e-20)
(0.882232 1.1474 5.46813e-21)
(0.786312 1.09836 -9.44214e-20)
(0.675285 1.04159 -2.41631e-21)
(0.557842 0.977465 -3.66251e-19)
(0.431934 0.880089 1.53162e-20)
(0.270798 0.717513 -1.81616e-20)
(0.219063 1.5145 -2.1803e-20)
(0.286007 3.14845 3.54845e-21)
(0.296375 3.44226 -1.08765e-22)
(0.25787 3.48928 9.30617e-20)
(0.225899 3.51623 4.93919e-20)
(0.18153 3.53776 -2.04069e-20)
(0.13356 3.53632 -2.54385e-20)
(0.245116 0.259947 1.76684e-20)
(0.989837 1.08575 4.44085e-20)
(1.14557 1.28193 -1.10771e-20)
(1.15314 1.31888 -5.89604e-21)
(1.10052 1.29609 0)
(1.03092 1.25738 -2.51592e-20)
(0.954681 1.21638 -3.45883e-20)
(0.869465 1.17296 5.06074e-21)
(0.772754 1.12547 -1.04841e-20)
(0.659774 1.07191 -1.64405e-19)
(0.537888 1.01306 -1.73616e-19)
(0.402192 0.91493 -1.28415e-19)
(0.26934 0.886561 -1.39546e-19)
(0.288981 2.35141 1.41857e-19)
(0.370172 3.37101 1.22853e-19)
(0.337969 3.49265 0)
(0.293025 3.53433 0)
(0.257731 3.5701 -1.70206e-20)
(0.217424 3.6146 0)
(0.149392 3.60341 -3.03574e-20)
(0.234839 0.261328 -2.75705e-20)
(0.982762 1.11113 -3.92232e-20)
(1.13398 1.30851 0)
(1.13949 1.34479 1.18069e-21)
(1.08681 1.32145 -7.7491e-22)
(1.01741 1.28263 -3.11499e-20)
(0.941342 1.24188 -2.05177e-20)
(0.856124 1.19915 3.89367e-21)
(0.758888 1.15323 -7.26417e-20)
(0.644449 1.10308 8.63436e-21)
(0.519239 1.04978 0)
(0.372981 0.95178 0)
(0.291378 1.21637 -1.30195e-19)