/*--------------------------------*- C++ -*----------------------------------*\
  =========                 |
  \\      /  F ield         | OpenFOAM: The Open Source CFD Toolbox
   \\    /   O peration     | Website:  https://openfoam.org
    \\  /    A nd           | Version:  6
     \\/     M anipulation  |
\*---------------------------------------------------------------------------*/
FoamFile
{
    version     2.0;
    format      ascii;
    class       volVectorField;
    location    "60.3";
    object      U;
}
// * * * * * * * * * * * * * * * * * * * * * * * * * * * * * * * * * * * * * //

dimensions      [0 1 -1 0 0 0 0];

internalField   nonuniform List<vector> 
8800
(
(0.987184 -0.0766667 0)
(1.00189 -0.0551928 0)
(0.999723 -0.0285522 0)
(1.00002 -0.0151488 0)
(1.00007 -0.00855122 0)
(1.00008 -0.00505468 0)
(1.00006 -0.00301028 0)
(1.00002 -0.00170956 0)
(0.999999 -0.000802753 0)
(1.00006 -8.63601e-05 0)
(0.999986 0.000643451 0)
(0.999994 0.00140847 0)
(1.00002 0.00243053 0)
(1.00004 0.00400216 0)
(1.00004 0.00663216 0)
(1.00001 0.01137 0)
(0.999895 0.0208138 0)
(0.999149 0.0386709 0)
(1.0071 0.072457 0)
(0.771213 0.0366611 0)
(0.363058 -0.0160184 0)
(1.0433 -0.0768224 0)
(1.08459 -0.070458 0)
(1.04518 -0.0535573 0)
(1.02326 -0.0389131 0)
(1.01199 -0.0262418 0)
(1.0064 -0.0168871 0)
(1.00358 -0.010359 0)
(1.00215 -0.0056999 0)
(1.00145 -0.00204199 0)
(1.00131 0.00128163 0)
(1.00168 0.00466508 0)
(1.00266 0.00860051 0)
(1.00465 0.0139411 0)
(1.00859 0.0216489 0)
(1.01655 0.0326186 0)
(1.03246 0.0465344 0)
(1.06263 0.0616538 0)
(1.09187 0.0760956 0)
(0.838678 0.0565596 0)
(0.21682 -0.00243098 0)
(1.07587 -0.0501507 0)
(1.09986 -0.0483322 0)
(1.06461 -0.0404902 0)
(1.03999 -0.03364 0)
(1.02388 -0.0261285 0)
(1.01409 -0.0185527 0)
(1.00854 -0.0117356 0)
(1.00558 -0.00586747 0)
(1.00433 -0.000449084 0)
(1.00467 0.00479949 0)
(1.0066 0.0101933 0)
(1.0106 0.0162912 0)
(1.01793 0.0233196 0)
(1.03053 0.0307859 0)
(1.05061 0.0378208 0)
(1.08032 0.0445093 0)
(1.10625 0.0513303 0)
(0.942546 0.0416098 0)
(0.216171 0.00246087 0)
(0.17513 -0.000817913 0)
(1.01763 -0.0355055 0)
(1.10516 -0.0414135 0)
(1.07822 -0.0361055 0)
(1.05341 -0.0301808 0)
(1.03615 -0.0246174 0)
(1.02396 -0.018898 0)
(1.01586 -0.012822 0)
(1.011 -0.00663584 0)
(1.00881 -0.000299954 0)
(1.00939 0.0059594 0)
(1.01265 0.0119617 0)
(1.01887 0.0178055 0)
(1.02877 0.0233871 0)
(1.04321 0.0286899 0)
(1.06372 0.03418 0)
(1.09354 0.0401707 0)
(1.09341 0.0419413 0)
(0.827196 0.0229049 0)
(0.174035 0.000852009 0)
(0.15391 -0.000611916 0)
(0.956069 -0.0254845 0)
(1.10339 -0.0351731 0)
(1.08762 -0.0327077 0)
(1.06165 -0.0280659 0)
(1.04405 -0.0230545 0)
(1.03159 -0.0178175 0)
(1.02275 -0.0122936 0)
(1.01695 -0.00636188 0)
(1.01412 0.000106243 0)
(1.0148 0.00657089 0)
(1.01878 0.0124597 0)
(1.0258 0.0177629 0)
(1.03611 0.0226871 0)
(1.05067 0.0274529 0)
(1.07191 0.0319954 0)
(1.10006 0.0359384 0)
(1.06811 0.0340079 0)
(0.739621 0.0143045 0)
(0.152261 0.000650614 0)
(0.139516 -0.000468249 0)
(0.899101 -0.0191069 0)
(1.09568 -0.0301337 0)
(1.09566 -0.0292577 0)
(1.06916 -0.0255402 0)
(1.05073 -0.0214166 0)
(1.03781 -0.0166573 0)
(1.02872 -0.0113789 0)
(1.02262 -0.00563962 0)
(1.0195 0.000686156 0)
(1.02014 0.00700197 0)
(1.02424 0.0126434 0)
(1.03138 0.017621 0)
(1.04191 0.0220948 0)
(1.05704 0.026067 0)
(1.07924 0.0295436 0)
(1.10229 0.032179 0)
(1.03604 0.028092 0)
(0.673094 0.0102012 0)
(0.137188 0.000512903 0)
(0.128952 -0.000363014 0)
(0.849431 -0.0147491 0)
(1.08324 -0.0260115 0)
(1.10132 -0.0263222 0)
(1.07599 -0.0230522 0)
(1.05704 -0.0194237 0)
(1.04366 -0.0151918 0)
(1.03421 -0.0102834 0)
(1.02788 -0.00476167 0)
(1.02458 0.00138448 0)
(1.02507 0.00748865 0)
(1.02912 0.0128548 0)
(1.03638 0.017424 0)
(1.0472 0.0212946 0)
(1.06273 0.0246048 0)
(1.08536 0.027565 0)
(1.1014 0.0293327 0)
(1.00116 0.0235728 0)
(0.621301 0.00783648 0)
(0.125797 0.000415564 0)
(0.120884 -0.000282524 0)
(0.8072 -0.0115959 0)
(1.06791 -0.0224128 0)
(1.10481 -0.023702 0)
(1.08223 -0.0208468 0)
(1.06285 -0.0174359 0)
(1.0492 -0.0135181 0)
(1.03948 -0.00894874 0)
(1.03286 -0.00369881 0)
(1.02932 0.00222428 0)
(1.02964 0.00807611 0)
(1.03365 0.0130956 0)
(1.04097 0.0171971 0)
(1.0519 0.0205596 0)
(1.06765 0.0234642 0)
(1.09062 0.0261338 0)
(1.09764 0.0270095 0)
(0.965936 0.0200288 0)
(0.579693 0.0063014 0)
(0.116725 0.000345061 0)
(0.114623 -0.000219493 0)
(0.771628 -0.00923815 0)
(1.05107 -0.0192456 0)
(1.10716 -0.021281 0)
(1.08806 -0.0188021 0)
(1.0683 -0.0155394 0)
(1.05442 -0.0117846 0)
(1.0445 -0.00743091 0)
(1.03764 -0.00243011 0)
(1.03383 0.00324136 0)
(1.03394 0.00879976 0)
(1.03782 0.0134439 0)
(1.04509 0.0171311 0)
(1.05602 0.0201073 0)
(1.07196 0.0226856 0)
(1.0946 0.0250136 0)
(1.09106 0.0250783 0)
(0.931671 0.0172918 0)
(0.545256 0.00525291 0)
(0.109245 0.000294303 0)
(0.109736 -0.000168833 0)
(0.741774 -0.00740921 0)
(1.03379 -0.0164404 0)
(1.10855 -0.0189989 0)
(1.09361 -0.0168252 0)
(1.07357 -0.0136527 0)
(1.05942 -0.00999422 0)
(1.04931 -0.00577008 0)
(1.04224 -0.000946945 0)
(1.03814 0.00447012 0)
(1.03797 0.00969961 0)
(1.04162 0.0139802 0)
(1.04875 0.0172999 0)
(1.05967 0.0199266 0)
(1.0758 0.0222219 0)
(1.0973 0.0241894 0)
(1.08205 0.0234888 0)
(0.898932 0.0152112 0)
(0.515944 0.00452156 0)
(0.102876 0.000258589 0)
(0.105937 -0.000126771 0)
(0.716819 -0.00593461 0)
(1.01689 -0.0139241 0)
(1.10911 -0.0167995 0)
(1.09906 -0.0149096 0)
(1.07875 -0.011757 0)
(1.06431 -0.00813347 0)
(1.05399 -0.00397189 0)
(1.04666 0.000729025 0)
(1.04224 0.00594286 0)
(1.04171 0.010883 0)
(1.04507 0.0148246 0)
(1.05201 0.0178025 0)
(1.06288 0.0200954 0)
(1.07919 0.0221216 0)
(1.09866 0.0236835 0)
(1.07098 0.0222444 0)
(0.867831 0.0136713 0)
(0.490305 0.0040177 0)
(0.0972773 0.000235055 0)
(0.10304 -9.03304e-05 0)
(0.696119 -0.00469848 0)
(1.00099 -0.0116294 0)
(1.10897 -0.0146355 0)
(1.10433 -0.0129366 0)
(1.08393 -0.00974728 0)
(1.06918 -0.00610125 0)
(1.05859 -0.00196142 0)
(1.05096 0.00266635 0)
(1.04616 0.00771711 0)
(1.04519 0.0123867 0)
(1.04818 0.0159985 0)
(1.0549 0.0186306 0)
(1.06571 0.020581 0)
(1.08214 0.022359 0)
(1.09905 0.0235198 0)
(1.05816 0.0213478 0)
(0.838216 0.0125825 0)
(0.467253 0.00368566 0)
(0.092191 0.000221104 0)
(0.100923 -5.68508e-05 0)
(0.679202 -0.00361361 0)
(0.986534 -0.00948657 0)
(1.10837 -0.012433 0)
(1.10943 -0.0108519 0)
(1.08919 -0.0076082 0)
(1.07408 -0.0038864 0)
(1.06318 0.000312317 0)
(1.05519 0.00493108 0)
(1.0499 0.00985645 0)
(1.04841 0.0142772 0)
(1.05096 0.0175788 0)
(1.05741 0.0198888 0)
(1.06812 0.0215074 0)
(1.0846 0.0230018 0)
(1.09844 0.0237459 0)
(1.04374 0.0208206 0)
(0.809761 0.0118735 0)
(0.445942 0.00348762 0)
(0.0874153 0.000214936 0)
(0.0995266 -2.39997e-05 0)
(0.665769 -0.00260978 0)
(0.973878 -0.00741714 0)
(1.10759 -0.0101221 0)
(1.11447 -0.00858735 0)
(1.09459 -0.00525552 0)
(1.07911 -0.00139135 0)
(1.06784 0.00291882 0)
(1.05938 0.00758424 0)
(1.05351 0.0124538 0)
(1.05137 0.0166714 0)
(1.05339 0.0196548 0)
(1.05953 0.0216063 0)
(1.07012 0.0228567 0)
(1.08659 0.024089 0)
(1.09659 0.0243787 0)
(1.02778 0.0206357 0)
(0.782053 0.011486 0)
(0.425682 0.0033974 0)
(0.0827891 0.000214932 0)
(0.0988343 1.0282e-05 0)
(0.655665 -0.0016335 0)
(0.963342 -0.00535396 0)
(1.10699 -0.00764634 0)
(1.11958 -0.00604445 0)
(1.10022 -0.00255242 0)
(1.08433 0.00151196 0)
(1.0726 0.00599435 0)
(1.0636 0.010768 0)
(1.05701 0.0156026 0)
(1.0541 0.0196076 0)
(1.05549 0.022277 0)
(1.06122 0.0238667 0)
(1.07168 0.024731 0)
(1.08807 0.0256646 0)
(1.09345 0.0254609 0)
(1.01027 0.0208358 0)
(0.754631 0.0113947 0)
(0.4059 0.00340135 0)
(0.0781796 0.000220629 0)
(0.0988665 4.35997e-05 0)
(0.648865 -0.000636151 0)
(0.955215 -0.00321938 0)
(1.10689 -0.00494211 0)
(1.12494 -0.00319117 0)
(1.10619 0.000507396 0)
(1.08983 0.00485453 0)
(1.07757 0.00960439 0)
(1.06787 0.014558 0)
(1.06041 0.0194177 0)
(1.05658 0.0232378 0)
(1.05723 0.0255759 0)
(1.06249 0.0267841 0)
(1.07277 0.0272522 0)
(1.08877 0.0278145 0)
(1.08885 0.0269939 0)
(0.991052 0.0214377 0)
(0.72698 0.0115794 0)
(0.386073 0.00349044 0)
(0.0734661 0.000231277 0)
(0.0996616 8.33191e-05 0)
(0.645448 0.000397713 0)
(0.949826 -0.000938915 0)
(1.10764 -0.00190666 0)
(1.13072 0.000133202 0)
(1.11259 0.00413251 0)
(1.09573 0.00883472 0)
(1.08282 0.0139071 0)
(1.0723 0.0191054 0)
(1.06378 0.0240431 0)
(1.05884 0.0276916 0)
(1.05857 0.0296732 0)
(1.06327 0.0304639 0)
(1.07333 0.0305007 0)
(1.08858 0.0306431 0)
(1.08251 0.0290714 0)
(0.969896 0.0224777 0)
(0.69854 0.0120329 0)
(0.365717 0.00365822 0)
(0.0685416 0.000246376 0)
(0.10143 0.000143696 0)
(0.645808 0.00155414 0)
(0.947535 0.00156635 0)
(1.10971 0.0015425 0)
(1.13715 0.00401286 0)
(1.11957 0.00843585 0)
(1.10211 0.0135965 0)
(1.08842 0.0190996 0)
(1.0769 0.0246212 0)
(1.06711 0.0296526 0)
(1.06081 0.0331033 0)
(1.05947 0.034679 0)
(1.06351 0.0350387 0)
(1.07329 0.0346072 0)
(1.08727 0.0342553 0)
(1.07419 0.031779 0)
(0.946426 0.0239939 0)
(0.668703 0.0127522 0)
(0.344368 0.00390023 0)
(0.0633088 0.000265356 0)
(0.104218 0.000204546 0)
(0.650298 0.00296628 0)
(0.948776 0.004448 0)
(1.11354 0.00555596 0)
(1.14443 0.00858039 0)
(1.12729 0.0135437 0)
(1.10914 0.0192878 0)
(1.0945 0.0253381 0)
(1.08172 0.0312679 0)
(1.07037 0.0364623 0)
(1.06247 0.0397345 0)
(1.0599 0.0408312 0)
(1.06313 0.0406765 0)
(1.07259 0.0397091 0)
(1.08465 0.0388286 0)
(1.06355 0.0352122 0)
(0.92016 0.0260202 0)
(0.636819 0.0137327 0)
(0.321582 0.00420884 0)
(0.0576834 0.000287204 0)
(0.108312 0.000286485 0)
(0.659441 0.00463773 0)
(0.954061 0.00785517 0)
(1.11965 0.0103075 0)
(1.15286 0.0140987 0)
(1.13594 0.0197921 0)
(1.11697 0.0262482 0)
(1.10113 0.032942 0)
(1.08681 0.0393481 0)
(1.07357 0.0446857 0)
(1.06378 0.0476798 0)
(1.05978 0.0482486 0)
(1.06205 0.0475349 0)
(1.0711 0.0459788 0)
(1.08079 0.0444563 0)
(1.05013 0.0394733 0)
(0.890461 0.0285974 0)
(0.602178 0.014964 0)
(0.296933 0.00457402 0)
(0.0515973 0.000310655 0)
(0.114052 0.00039779 0)
(0.674014 0.00673289 0)
(0.964063 0.0119864 0)
(1.12864 0.0160085 0)
(1.16281 0.0207886 0)
(1.1458 0.0274504 0)
(1.12576 0.0347899 0)
(1.10843 0.0422687 0)
(1.0922 0.049206 0)
(1.07666 0.0546354 0)
(1.06465 0.0572191 0)
(1.05896 0.0571064 0)
(1.06019 0.0557816 0)
(1.06875 0.053559 0)
(1.07543 0.0513023 0)
(1.03334 0.0446467 0)
(0.856578 0.0317212 0)
(0.564051 0.0164121 0)
(0.270058 0.00497419 0)
(0.0450143 0.00033329 0)
(0.121953 0.000552791 0)
(0.69495 0.00947477 0)
(0.979632 0.0171554 0)
(1.14112 0.0230101 0)
(1.17473 0.0290287 0)
(1.15717 0.0369365 0)
(1.13573 0.0453528 0)
(1.11648 0.0537336 0)
(1.09785 0.0612111 0)
(1.07955 0.0666596 0)
(1.06495 0.0686759 0)
(1.05732 0.0676986 0)
(1.05741 0.0655836 0)
(1.06549 0.0625944 0)
(1.06825 0.0594545 0)
(1.01244 0.0507971 0)
(0.817615 0.0353761 0)
(0.521718 0.0180199 0)
(0.240693 0.00537987 0)
(0.037942 0.000352327 0)
(0.132748 0.000777569 0)
(0.723552 0.0132436 0)
(1.00194 0.0238221 0)
(1.1579 0.0318685 0)
(1.1892 0.0394734 0)
(1.17039 0.0490037 0)
(1.14704 0.0586711 0)
(1.12526 0.0679819 0)
(1.10361 0.0758856 0)
(1.08201 0.0810802 0)
(1.06447 0.0822198 0)
(1.05474 0.080185 0)
(1.05363 0.0771286 0)
(1.06099 0.0732323 0)
(1.05858 0.0690305 0)
(0.98647 0.0579464 0)
(0.772571 0.0394685 0)
(0.474549 0.0196788 0)
(0.208752 0.00574451 0)
(0.0304507 0.000363844 0)
(0.14769 0.001131 0)
(0.761812 0.0186686 0)
(1.03263 0.0327683 0)
(1.17997 0.0434982 0)
(1.20705 0.0531782 0)
(1.18578 0.0646754 0)
(1.15969 0.0756997 0)
(1.13459 0.0858338 0)
(1.10922 0.0938264 0)
(1.08378 0.0982759 0)
(1.063 0.0980681 0)
(1.05106 0.094664 0)
(1.04865 0.0905203 0)
(1.05488 0.085744 0)
(1.04577 0.0799944 0)
(0.954202 0.0659758 0)
(0.720451 0.043793 0)
(0.422181 0.02122 0)
(0.174453 0.00600427 0)
(0.0226968 0.000363077 0)
(0.16894 0.00174258 0)
(0.812931 0.0268755 0)
(1.07425 0.0455191 0)
(1.20842 0.0597254 0)
(1.22892 0.0721992 0)
(1.20343 0.0854988 0)
(1.17346 0.0977109 0)
(1.14404 0.108186 0)
(1.11421 0.11561 0)
(1.08446 0.118622 0)
(1.06023 0.116468 0)
(1.04604 0.111299 0)
(1.0424 0.105854 0)
(1.04715 0.100121 0)
(1.02883 0.0923568 0)
(0.914169 0.074607 0)
(0.660468 0.0480349 0)
(0.364822 0.0224195 0)
(0.138489 0.00608612 0)
(0.0149473 0.000344993 0)
(0.199819 0.00308276 0)
(0.882607 0.0404398 0)
(1.13047 0.0658491 0)
(1.24364 0.0841819 0)
(1.25444 0.0993369 0)
(1.22271 0.113916 0)
(1.18751 0.126379 0)
(1.1528 0.136044 0)
(1.1179 0.141765 0)
(1.08352 0.142302 0)
(1.0558 0.137455 0)
(1.03946 0.130112 0)
(1.03469 0.123094 0)
(1.03745 0.116199 0)
(1.00644 0.105879 0)
(0.86462 0.0832849 0)
(0.592556 0.0516748 0)
(0.303962 0.023066 0)
(0.102425 0.00594029 0)
(0.00766127 0.000302493 0)
(0.241977 0.00921213 6.64073e-21)
(0.974832 0.0672403 5.74296e-21)
(1.19896 0.100237 -2.03397e-21)
(1.28253 0.120607 0)
(1.28082 0.138226 -5.48803e-35)
(1.24143 0.152287 8.10448e-22)
(1.20022 0.163199 -1.51091e-21)
(1.15973 0.170642 0)
(1.11939 0.173582 3.21467e-35)
(1.08008 0.170834 -1.97369e-21)
(1.04867 0.162759 0)
(1.03002 0.152984 -2.39095e-21)
(1.02421 0.144479 -7.08617e-21)
(1.02441 0.137053 -3.36331e-21)
(0.974961 0.123147 -1.01788e-21)
(0.800108 0.0935668 -6.06046e-22)
(0.511428 0.0551801 0)
(0.237991 0.0235274 4.25207e-22)
(0.0664172 0.0058626 5.03629e-22)
(0.000845616 0.000247208 9.18373e-21)
(0.271208 0.024227 4.11985e-21)
(1.05115 0.109552 1.08628e-22)
(1.25551 0.149222 5.08523e-22)
(1.31731 0.169552 0)
(1.3039 0.187446 -2.67983e-21)
(1.25737 0.199359 -3.10818e-21)
(1.21021 0.207959 -1.49815e-21)
(1.16388 0.212901 -5.49785e-21)
(1.11789 0.213053 0)
(1.07322 0.207124 8.37585e-21)
(1.03749 0.195875 8.39463e-21)
(1.01611 0.183634 2.51368e-21)
(1.00815 0.173157 9.25392e-21)
(1.00072 0.162962 1.30931e-20)
(0.926222 0.143457 0)
(0.713952 0.105059 1.85592e-20)
(0.416796 0.059135 2.6668e-20)
(0.169384 0.0235882 2.96898e-20)
(0.0309111 0.00467795 -3.40653e-20)
(-0.00593355 -0.000402588 -6.48739e-22)
(0.272644 0.0408429 0)
(1.09967 0.164328 5.32782e-22)
(1.29369 0.209148 0)
(1.34433 0.229193 -3.00367e-21)
(1.32192 0.244406 0)
(1.26941 0.25244 -5.90893e-21)
(1.21667 0.257316 3.01802e-21)
(1.16474 0.258671 -1.08875e-20)
(1.1133 0.255218 -3.17684e-22)
(1.06348 0.245468 4.30442e-21)
(1.02368 0.230653 1.8558e-20)
(0.999672 0.215756 -4.86782e-23)
(0.989317 0.203107 -6.74491e-21)
(0.974481 0.189776 -1.23802e-20)
(0.882339 0.164324 1.47003e-20)
(0.653151 0.116728 -2.60874e-20)
(0.363039 0.0630312 -3.4557e-21)
(0.135419 0.0235253 0)
(0.0141425 0.00298355 -2.31078e-24)
(-0.00935942 -0.00126124 0)
(0.266265 0.054843 2.3324e-21)
(1.12592 0.222775 -1.83916e-21)
(1.31722 0.273608 -2.32037e-21)
(1.36211 0.294167 1.29623e-21)
(1.33348 0.30574 -2.24258e-21)
(1.27648 0.309272 1.22835e-20)
(1.2191 0.309745 6.25146e-21)
(1.16233 0.306861 0)
(1.10605 0.299222 -2.11603e-20)
(1.05154 0.285213 0)
(1.0079 0.266572 -9.709e-21)
(0.981264 0.248817 -1.21628e-20)
(0.968464 0.233874 -7.36903e-21)
(0.947692 0.217109 -9.01791e-21)
(0.846127 0.185767 0)
(0.61437 0.130155 0)
(0.33617 0.0696379 -2.25838e-20)
(0.120967 0.0250727 4.47402e-21)
(0.00662866 0.00157152 -2.62126e-21)
(-0.0113935 -0.0021915 -3.10508e-21)
(0.258704 0.0671862 2.62516e-21)
(1.1375 0.281176 0)
(1.33011 0.339099 2.94252e-21)
(1.37169 0.360645 3.2282e-21)
(1.33869 0.368572 5.49068e-21)
(1.27843 0.367609 0)
(1.21745 0.363555 5.92671e-21)
(1.15669 0.356237 1.19456e-20)
(1.09622 0.344188 1.0726e-20)
(1.03747 0.325731 2.0425e-20)
(0.990212 0.303023 0)
(0.96101 0.282234 -2.62829e-20)
(0.945854 0.264922 -1.59563e-20)
(0.920716 0.244893 -9.47039e-21)
(0.815685 0.208482 5.85249e-20)
(0.589814 0.145738 6.99306e-21)
(0.324791 0.0789119 3.29036e-20)
(0.119103 0.0283478 -1.55843e-19)
(0.00576439 0.001036 9.23556e-20)
(-0.0121693 -0.00299503 -1.12726e-19)
(0.251495 0.078294 5.73796e-21)
(1.13982 0.337646 -6.0355e-22)
(1.33538 0.40377 1.29051e-22)
(1.37474 0.426679 -1.85012e-21)
(1.33854 0.431146 -3.80457e-21)
(1.27581 0.425861 3.63683e-22)
(1.21197 0.417434 -6.45864e-21)
(1.14792 0.405779 1.22389e-20)
(1.08386 0.38934 -2.31393e-20)
(1.02135 0.366375 0)
(0.970764 0.339643 -1.18323e-20)
(0.939076 0.315884 -3.23765e-22)
(0.921573 0.296149 -1.75372e-20)
(0.893393 0.273179 0)
(0.789033 0.232038 -1.27186e-20)
(0.573273 0.163368 -3.03477e-20)
(0.322483 0.0905193 8.11172e-20)
(0.123837 0.0336025 -7.99253e-20)
(0.00980854 0.00190955 1.13706e-19)
(-0.0115896 -0.00345037 -1.19654e-19)
(0.245447 0.0885725 -1.048e-22)
(1.13638 0.391527 1.55365e-21)
(1.33518 0.466597 2.68304e-21)
(1.3727 0.491097 7.33625e-23)
(1.33409 0.492425 -1.79293e-21)
(1.26946 0.483084 0)
(1.20333 0.470537 -5.67101e-21)
(1.13655 0.45475 -1.27397e-20)
(1.06939 0.43408 -1.19442e-20)
(1.00348 0.406729 0)
(0.949846 0.37616 -1.22214e-20)
(0.915726 0.349398 -1.53742e-20)
(0.896001 0.327264 1.9088e-20)
(0.865565 0.301465 -1.16682e-20)
(0.764124 0.255995 -5.58184e-20)
(0.559837 0.182391 3.33165e-20)
(0.32334 0.103549 9.9347e-21)
(0.131543 0.0405632 0)
(0.0165849 0.00422613 -1.10473e-19)
(-0.0100729 -0.003506 -4.10892e-21)
(0.240689 0.0983534 1.49859e-21)
(1.1295 0.442665 -2.2358e-21)
(1.33097 0.52703 -1.712e-21)
(1.36679 0.553202 1.24531e-21)
(1.32629 0.55175 -5.34239e-21)
(1.26022 0.538696 9.72359e-21)
(1.19223 0.522338 1.22696e-20)
(1.1231 0.50269 -2.03465e-20)
(1.05317 0.478014 7.64611e-21)
(0.984191 0.4465 -5.03802e-20)
(0.927702 0.412106 -1.39752e-20)
(0.891335 0.382368 0)
(0.869596 0.357937 2.07782e-20)
(0.837455 0.329571 2.50558e-20)
(0.739398 0.28006 3.01234e-20)
(0.54661 0.202073 -3.63446e-20)
(0.324039 0.117381 -1.07892e-20)
(0.139237 0.0488884 1.26552e-20)
(0.0242362 0.00766942 0)
(-0.00804934 -0.00319596 -8.95923e-21)
(0.237104 0.107738 -2.07872e-20)
(1.12081 0.491131 1.19459e-20)
(1.32403 0.585025 2.18286e-21)
(1.35799 0.612638 -1.82385e-22)
(1.31597 0.608722 -1.61681e-21)
(1.2488 0.592312 -8.25002e-22)
(1.17925 0.572509 -1.35583e-20)
(1.10809 0.54931 -7.40446e-21)
(1.03568 0.520888 -2.08598e-20)
(0.963877 0.485418 6.32841e-23)
(0.904682 0.447233 -4.3626e-20)
(0.866227 0.414652 3.74975e-20)
(0.842679 0.388096 -2.29634e-20)
(0.809013 0.357171 2.77824e-20)
(0.713938 0.30392 0)
(0.532065 0.221711 -1.98212e-20)
(0.322156 0.131543 2.63905e-23)
(0.145181 0.0578148 -5.54983e-20)
(0.0312726 0.0117535 -8.16932e-21)
(-0.00589542 -0.00262647 0)
(0.234588 0.116954 0)
(1.11126 0.537134 1.35223e-20)
(1.31515 0.640634 7.0153e-21)
(1.34711 0.669233 1.15816e-21)
(1.3038 0.66313 -3.06871e-21)
(1.23576 0.643723 0)
(1.16494 0.620832 -5.6609e-21)
(1.09199 0.594406 -2.15004e-22)
(1.01733 0.562539 4.47743e-20)
(0.942843 0.523302 -6.87041e-21)
(0.881056 0.481492 -3.15957e-20)
(0.840678 0.446259 1.9421e-20)
(0.815449 0.417545 -4.48148e-22)
(0.780358 0.383961 2.95581e-20)
(0.687487 0.326956 1.83626e-20)
(0.515684 0.240308 -4.28622e-20)
(0.317029 0.145192 5.08865e-20)
(0.14794 0.0664185 1.51003e-20)
(0.0364156 0.0158132 6.24335e-20)
(-0.00401013 -0.00196791 -1.6885e-19)
(0.233061 0.126125 -6.41144e-21)
(1.10152 0.580864 8.89041e-21)
(1.30492 0.693446 -6.2496e-21)
(1.33476 0.722936 -2.89754e-21)
(1.29034 0.714873 0)
(1.22163 0.692802 -3.35062e-21)
(1.14973 0.667168 1.95558e-20)
(1.07519 0.637852 1.60323e-20)
(0.998444 0.602842 0)
(0.921365 0.56007 -9.98169e-20)
(0.857087 0.514886 8.57418e-20)
(0.814859 0.477014 0)
(0.78801 0.44588 2.69707e-20)
(0.751609 0.409525 -4.48875e-22)
(0.660414 0.34845 -5.88132e-20)
(0.497034 0.257179 2.30494e-20)
(0.308759 0.157362 0)
(0.147001 0.0738835 8.1652e-20)
(0.0390276 0.0191771 0)
(-0.00264552 -0.00140043 -8.0119e-20)
(0.232341 0.135298 7.54597e-21)
(1.09198 0.622492 1.11492e-20)
(1.29376 0.743496 -6.3272e-21)
(1.32147 0.77376 0)
(1.27605 0.763937 -1.01135e-21)
(1.20681 0.739506 0)
(1.13398 0.711442 -1.84248e-20)
(1.05803 0.679564 -7.05569e-21)
(0.979315 0.641743 7.73855e-21)
(0.899715 0.595717 -4.94326e-20)
(0.832962 0.547368 8.80254e-21)
(0.788876 0.506644 0)
(0.760509 0.472907 -5.7631e-20)
(0.722759 0.433615 4.40894e-22)
(0.632586 0.368095 0)
(0.476359 0.27182 2.69151e-22)
(0.297332 0.167299 7.4629e-20)
(0.142887 0.0793858 -7.0666e-20)
(0.039099 0.0213414 2.09187e-20)
(-0.00189419 -0.00105329 0)
(0.23209 0.144371 0)
(1.08284 0.662108 1.32063e-20)
(1.28211 0.79088 8.67048e-21)
(1.30762 0.821772 -5.07879e-22)
(1.2613 0.810344 9.20176e-22)
(1.19163 0.783828 -7.37956e-21)
(1.11802 0.753633 7.13223e-21)
(1.04076 0.719506 -8.67091e-21)
(0.960203 0.679205 3.50028e-20)
(0.878106 0.630267 -7.90459e-20)
(0.808805 0.578839 -7.99229e-22)
(0.762808 0.535069 -2.50067e-20)
(0.733009 0.498673 9.37426e-20)
(0.693808 0.456088 -5.20877e-22)
(0.604146 0.385581 -4.58099e-20)
(0.453827 0.283848 -8.1793e-20)
(0.283149 0.174658 0)
(0.135897 0.0826969 0)
(0.0372018 0.0221684 2.26033e-20)
(-0.00167396 -0.000976673 -1.3428e-20)
(0.232407 0.153455 1.03273e-20)
(1.07426 0.699608 -2.97946e-20)
(1.27022 0.835684 -9.32877e-21)
(1.29351 0.867051 0)
(1.24636 0.854147 -3.13914e-22)
(1.17637 0.825793 -5.14406e-21)
(1.10208 0.793747 1.61637e-20)
(1.02365 0.75767 3.3071e-20)
(0.94131 0.715222 4.51633e-20)
(0.856732 0.66373 -6.43732e-20)
(0.784743 0.609282 -7.39347e-20)
(0.736717 0.562438 6.69364e-20)
(0.705481 0.523265 0)
(0.664639 0.476703 -2.07983e-20)
(0.575038 0.400523 -4.96174e-20)
(0.429368 0.292927 -5.88507e-20)
(0.266637 0.179122 -6.97376e-20)
(0.126416 0.0836807 2.06586e-20)
(0.0336817 0.0218092 -1.21805e-20)
(-0.00180945 -0.00110378 5.91041e-23)
(0.233021 0.162356 0)
(1.06632 0.7355 0)
(1.25829 0.878002 5.22098e-22)
(1.27936 0.909697 0)
(1.23147 0.89543 -6.09924e-21)
(1.16123 0.865458 2.09896e-21)
(1.08636 0.83181 0)
(1.00686 0.79407 3.72336e-21)
(0.922828 0.749798 7.48791e-20)
(0.835762 0.696109 -1.48236e-19)
(0.760896 0.638778 0)
(0.710651 0.588995 -4.31484e-20)
(0.677786 0.54664 -6.13698e-22)
(0.63512 0.495204 -4.7839e-22)
(0.545354 0.412616 5.30997e-20)
(0.403767 0.29886 -2.93675e-23)
(0.248253 0.180622 -1.50309e-19)
(0.115082 0.0823872 4.44621e-20)
(0.0289521 0.0203018 1.31902e-20)
(-0.0021752 -0.00139069 0)
(0.233732 0.171118 -4.07938e-20)
(1.05876 0.769744 -1.97228e-20)
(1.2464 0.917894 -2.64725e-20)
(1.26534 0.949813 2.86691e-20)
(1.21681 0.934261 -1.409e-20)
(1.14638 0.902882 0)
(1.07103 0.867865 8.89643e-21)
(0.990561 0.82873 -8.46996e-21)
(0.904909 0.782952 7.90092e-22)
(0.815347 0.727415 1.10116e-20)
(0.737403 0.66748 9.57619e-20)
(0.684647 0.614926 -1.51109e-20)
(0.649788 0.568735 -5.79568e-20)
(0.605097 0.511426 -2.43074e-20)
(0.515087 0.421618 2.8892e-20)
(0.377485 0.301493 7.94875e-24)
(0.228616 0.179071 4.05194e-20)
(0.102727 0.0789642 -9.57331e-20)
(0.0237749 0.0179307 1.13575e-19)
(-0.00264642 -0.00178219 1.6767e-20)
(0.234248 0.179655 1.5426e-20)
(1.0516 0.802426 -1.10757e-20)
(1.23469 0.955472 1.28912e-21)
(1.25159 0.98749 1.77877e-20)
(1.2025 0.970748 4.40518e-21)
(1.13194 0.938137 -2.18696e-21)
(1.0562 0.901964 2.06907e-21)
(0.97486 0.861669 -3.49141e-20)
(0.887684 0.814682 -8.17456e-20)
(0.795619 0.757649 -8.80756e-20)
(0.714421 0.69554 0)
(0.658749 0.640329 -6.67062e-20)
(0.621378 0.589591 8.374e-20)
(0.574331 0.525335 0)
(0.484172 0.427179 -6.19261e-20)
(0.351016 0.300392 3.69537e-20)
(0.208985 0.174311 -4.35963e-20)
(0.090643 0.0737712 -5.15468e-20)
(0.0188292 0.0150872 -9.1528e-20)
(-0.0031107 -0.00220367 -7.2269e-20)
(0.235115 0.188054 -1.74134e-20)
(1.04468 0.833527 1.18629e-20)
(1.22322 0.990796 2.72377e-20)
(1.2382 1.02281 2.56229e-20)
(1.18864 1.00499 -8.60219e-21)
(1.118 0.971312 6.72756e-22)
(1.04196 0.934157 7.2779e-21)
(0.95985 0.892927 -3.51958e-20)
(0.871237 0.845005 -4.82274e-20)
(0.776706 0.786835 9.18443e-20)
(0.692086 0.723061 2.10475e-19)
(0.633025 0.665257 0)
(0.5925 0.60943 0)
(0.542473 0.537052 -2.80417e-20)
(0.452238 0.428855 0)
(0.324541 0.294685 7.95005e-20)
(0.19068 0.165586 9.38034e-20)
(0.0808239 0.0668158 0)
(0.0153407 0.0121682 0)
(-0.0034586 -0.00258088 7.77083e-20)
(0.235631 0.195988 1.97436e-20)
(1.03803 0.863035 1.56906e-20)
(1.21206 1.02398 1.98042e-20)
(1.22524 1.05591 -2.43086e-20)
(1.17529 1.03708 -1.07189e-20)
(1.10464 1.00248 -3.30774e-21)
(1.02838 0.964504 -9.52211e-21)
(0.945595 0.922532 -6.18268e-23)
(0.855651 0.873924 -1.03114e-21)
(0.758711 0.814981 -9.87911e-22)
(0.670546 0.750086 1.08448e-19)
(0.607583 0.689764 0)
(0.563167 0.628626 8.51082e-20)
(0.509116 0.546847 5.98951e-20)
(0.418526 0.42647 1.44962e-19)
(0.297538 0.283071 4.28796e-20)
(0.175056 0.150346 -5.05291e-20)
(0.0775441 0.055235 -2.97394e-20)
(0.0187408 0.00798682 0)
(-0.00233001 -0.00260015 8.35445e-20)
(0.23649 0.203938 -4.45679e-20)
(1.03161 0.891101 0)
(1.20121 1.05506 2.31556e-20)
(1.21272 1.08687 -2.05222e-20)
(1.16251 1.06714 1.38191e-20)
(1.09188 1.03173 8.15801e-21)
(1.0155 0.993059 1.59338e-20)
(0.932135 0.950517 -3.08755e-21)
(0.840969 0.901447 0)
(0.741721 0.842071 -1.00721e-19)
(0.649942 0.776606 -2.35357e-19)
(0.582573 0.713955 9.82238e-21)
(0.533472 0.647567 1.17645e-19)
(0.473976 0.555169 0)
(0.381957 0.420621 9.80318e-20)
(0.267675 0.264547 0)
(0.160299 0.122855 0)
(0.0862016 0.0242441 -3.21968e-20)
(0.0535886 -0.0113959 0)
(0.0269629 0.00651677 2.23981e-20)
(0.236903 0.211308 -4.97294e-20)
(1.02538 0.917911 0)
(1.19065 1.08425 3.84717e-20)
(1.20061 1.11593 0)
(1.15025 1.09542 -8.17147e-21)
(1.07967 1.05936 0)
(1.00325 1.02013 3.67105e-22)
(0.919376 0.977219 4.72148e-21)
(0.827072 0.92794 6.03675e-21)
(0.725568 0.868496 -1.10128e-19)
(0.630087 0.803038 6.99476e-21)
(0.557733 0.738502 7.95805e-20)
(0.502978 0.667055 1.14982e-19)
(0.436152 0.562663 1.56051e-20)
(0.340789 0.413045 7.70126e-20)
(0.23012 0.240196 0)
(0.135089 0.0793544 1.06743e-19)
(0.0747695 -0.017555 -6.27136e-20)
(0.0325454 0.0575894 7.31857e-20)
(-0.038163 0.454788 -8.69612e-20)
(0.237258 0.218513 4.11733e-20)
(1.01914 0.943358 6.25508e-20)
(1.18032 1.11186 0)
(1.18876 1.14354 1.05939e-21)
(1.13832 1.1225 2.365e-20)
(1.06774 1.08604 -2.29115e-20)
(0.991324 1.04653 4.00052e-21)
(0.906905 1.00359 0)
(0.813426 0.954509 3.87954e-20)
(0.709572 0.895578 -5.61147e-21)
(0.610062 0.830872 0)
(0.53179 0.765188 0)
(0.469719 0.688556 1.0298e-19)
(0.393251 0.569795 -4.83508e-20)
(0.292013 0.405865 -7.80789e-20)
(0.180862 0.213316 0)
(0.0770587 0.0910196 5.43206e-20)
(0.00682546 0.465312 -6.31733e-20)
(0.0317567 1.9234 -3.53894e-20)
(0.0584599 2.82306 -4.3416e-20)
(0.237231 0.225144 -3.09609e-20)
(1.01293 0.967613 -8.03468e-20)
(1.17022 1.1379 2.28839e-20)
(1.17717 1.16956 1.95415e-20)
(1.12679 1.14819 0)
(1.05618 1.1115 -1.83268e-20)
(0.979926 1.07194 3.16141e-21)
(0.894915 1.02918 -2.14484e-21)
(0.800312 0.980636 5.82999e-21)
(0.694121 0.92271 1.04012e-19)
(0.590482 0.859408 1.18311e-19)
(0.505713 0.79385 8.88344e-20)
(0.434509 0.711937 1.03651e-19)
(0.346837 0.57559 -1.13645e-19)
(0.242112 0.402865 -1.17966e-19)
(0.118686 0.261853 0)
(0.0412358 0.876764 0)
(0.0890212 2.57829 2.99973e-20)
(0.0916127 3.21035 0)
(0.0927363 3.38892 7.79831e-20)
(0.239988 0.231307 0)
(1.00701 0.991046 0)
(1.16007 1.16221 0)
(1.16562 1.19385 5.8103e-21)
(1.11532 1.17225 2.17016e-20)
(1.0448 1.13561 -1.62287e-20)
(0.968983 1.09626 1.11373e-21)
(0.88334 1.05389 -2.009e-21)
(0.787668 1.00615 4.68346e-20)
(0.679204 0.949728 -1.88472e-21)
(0.571434 0.888425 2.32538e-19)
(0.479879 0.824607 -1.03063e-20)
(0.397262 0.737618 1.25216e-20)
(0.299238 0.578321 1.64766e-20)
(0.181822 0.421025 -4.35145e-22)
(0.0943671 1.01168 3.49194e-22)
(0.127037 2.7591 -1.58284e-19)
(0.131823 3.30104 -5.98272e-20)
(0.121779 3.42428 3.14747e-20)
(0.110863 3.44422 -3.53663e-20)
(0.162819 0.176632 1.88775e-20)
(0.99707 1.01638 0)
(1.14972 1.18504 -4.66581e-20)
(1.15452 1.2168 -5.29004e-20)
(1.10437 1.19517 4.92592e-20)
(1.03427 1.15884 1.80413e-20)
(0.958348 1.11945 1.40393e-22)
(0.872233 1.07771 1.86227e-20)
(0.775569 1.03113 -3.75988e-20)
(0.665029 0.976742 0)
(0.553185 0.917998 1.137e-19)
(0.454833 0.857246 -7.21286e-20)
(0.359021 0.768225 0)
(0.244112 0.582573 1.58173e-20)
(0.134998 0.782556 3.7989e-20)
(0.141466 2.56033 -4.32641e-20)
(0.190094 3.32997 4.92069e-20)
(0.172096 3.43609 2.63594e-20)
(0.14268 3.45468 3.00939e-20)
(0.123139 3.46318 4.7388e-20)
(0.275354 0.270172 -3.65311e-20)
(0.980703 1.02755 0)
(1.13217 1.21145 5.01027e-20)
(1.14043 1.24868 5.77516e-20)
(1.08729 1.229 -5.4169e-20)
(1.01663 1.19308 -2.31715e-20)
(0.939534 1.15524 -6.51271e-21)
(0.852869 1.11482 1.50621e-21)
(0.75481 1.07051 3.38957e-20)
(0.641408 1.02035 8.67042e-20)
(0.524202 0.967775 6.255e-21)
(0.414706 0.913074 6.33939e-20)
(0.290407 0.807956 1.16638e-20)
(0.206916 0.955898 -1.50864e-20)
(0.21235 2.43384 -3.42718e-20)
(0.263094 3.33584 3.34001e-20)
(0.246069 3.46331 -3.64375e-20)
(0.21163 3.48145 -2.10752e-20)
(0.177722 3.50546 -1.83494e-20)
(0.132678 3.49973 -2.71753e-21)
(0.265865 0.269261 0)
(0.978348 1.05091 1.42304e-20)
(1.12386 1.23538 -1.02209e-20)
(1.12973 1.27247 -6.76144e-21)
(1.07648 1.25248 -3.69153e-20)
(1.00583 1.21676 2.34216e-20)
(0.928432 1.17917 5.90928e-21)
(0.841536 1.13961 1.22612e-21)
(0.742886 1.09683 -3.41878e-20)
(0.628082 1.04966 -2.86843e-21)
(0.507911 1.00189 -2.01342e-19)
(0.392529 0.950626 9.06867e-21)
(0.27724 0.881463 -1.09563e-20)
(0.241531 1.55747 -1.37325e-20)
(0.303047 3.14492 3.66804e-21)
(0.316628 3.46643 3.20702e-22)
(0.27483 3.51309 5.12658e-20)
(0.240733 3.53531 2.52332e-20)
(0.194965 3.55469 -6.65184e-21)
(0.145058 3.55064 -1.24913e-20)
(0.251931 0.267473 3.61924e-20)
(0.975113 1.0769 9.6344e-20)
(1.1152 1.26141 -2.92283e-20)
(1.11865 1.29786 -2.55385e-20)
(1.06522 1.27742 0)
(0.994672 1.24175 3.89968e-20)
(0.917239 1.20445 1.17118e-20)
(0.830364 1.1657 9.23058e-22)
(0.731429 1.12455 -3.86555e-21)
(0.615739 1.08059 -7.48832e-20)
(0.493475 1.03826 -9.12178e-20)
(0.373797 0.990031 -7.32341e-20)
(0.276202 1.02422 -8.13767e-20)
(0.305475 2.31107 8.46125e-20)
(0.382465 3.39458 7.05521e-20)
(0.355075 3.52402 0)
(0.306776 3.55943 0)
(0.270008 3.59216 -4.91809e-21)
(0.225646 3.63698 0)
(0.156387 3.62067 -6.40271e-21)
(0.242118 0.269585 -5.38173e-20)
(0.969952 1.10384 -8.13547e-20)
(1.10519 1.28873 0)
(1.10636 1.32413 1.28553e-21)
(1.05276 1.30305 -3.87734e-20)
(0.982464 1.26733 6.13364e-20)
(0.905313 1.23035 9.39808e-21)
(0.818685 1.19233 -7.60658e-23)
(0.719719 1.15277 -2.11469e-20)
(0.603562 1.112 3.51555e-21)
(0.480053 1.07529 0)
(0.356249 1.03331 0)
(0.300181 1.31181 -7.25657e-20)
(0.38261 2.97487 2.94374e-20)
(0.446836 3.495 3.63139e-20)
(0.394027 3.55883 0)
(0.351911 3.61456 1.08805e-21)