/*--------------------------------*- C++ -*----------------------------------*\
  =========                 |
  \\      /  F ield         | OpenFOAM: The Open Source CFD Toolbox
   \\    /   O peration     | Website:  https://openfoam.org
    \\  /    A nd           | Version:  6
     \\/     M anipulation  |
\*---------------------------------------------------------------------------*/
FoamFile
{
    version     2.0;
    format      ascii;
    class       volVectorField;
    location    "30";
    object      U;
}
// * * * * * * * * * * * * * * * * * * * * * * * * * * * * * * * * * * * * * //

dimensions      [0 1 -1 0 0 0 0];

internalField   nonuniform List<vector> 
8800
(
(0.987188 -0.0766663 0)
(1.0019 -0.0551902 0)
(0.999756 -0.0285487 0)
(1.00004 -0.0151386 0)
(1.00004 -0.00852747 0)
(1.00001 -0.00501771 0)
(0.999993 -0.00298182 0)
(0.999985 -0.00171173 0)
(0.999981 -0.000835675 0)
(1.00005 -0.000128548 0)
(0.999987 0.00059558 0)
(0.999993 0.00135886 0)
(0.999999 0.00237934 0)
(1.00001 0.00395793 0)
(1.00003 0.00659756 0)
(1.00006 0.0113467 0)
(0.999978 0.0207989 0)
(0.999177 0.038658 0)
(1.00709 0.0724513 0)
(0.771215 0.0366598 0)
(0.363046 -0.0160196 0)
(1.04329 -0.076829 0)
(1.08461 -0.0704724 0)
(1.04521 -0.0535761 0)
(1.02325 -0.0389358 0)
(1.0119 -0.0262666 0)
(1.0063 -0.0169263 0)
(1.0035 -0.0104206 0)
(1.00209 -0.00578381 0)
(1.00143 -0.00215591 0)
(1.00131 0.0011051 0)
(1.00169 0.00448478 0)
(1.00267 0.0084492 0)
(1.00464 0.0138272 0)
(1.00858 0.0215618 0)
(1.01658 0.0325405 0)
(1.03255 0.0464657 0)
(1.06274 0.0615995 0)
(1.0919 0.0760451 0)
(0.838758 0.0565407 0)
(0.216779 -0.00243126 0)
(1.07587 -0.0501627 0)
(1.09989 -0.0483534 0)
(1.06462 -0.0405036 0)
(1.03992 -0.0336374 0)
(1.02373 -0.0261183 0)
(1.01394 -0.0185943 0)
(1.00843 -0.011863 0)
(1.00554 -0.00605084 0)
(1.00433 -0.000692077 0)
(1.00471 0.00451556 0)
(1.00664 0.00990175 0)
(1.0106 0.0160127 0)
(1.01792 0.0230609 0)
(1.03058 0.030558 0)
(1.05072 0.0376315 0)
(1.08049 0.0443644 0)
(1.10642 0.0512206 0)
(0.942778 0.0415554 0)
(0.216317 0.00245246 0)
(0.17507 -0.000818335 0)
(1.01756 -0.0355206 0)
(1.10514 -0.0414453 0)
(1.07816 -0.0361597 0)
(1.05325 -0.0302587 0)
(1.03594 -0.0247221 0)
(1.02375 -0.0190497 0)
(1.01568 -0.0130204 0)
(1.01086 -0.00690426 0)
(1.00873 -0.000658524 0)
(1.00936 0.00552444 0)
(1.01266 0.011511 0)
(1.01888 0.0174129 0)
(1.02879 0.0230765 0)
(1.04328 0.0284269 0)
(1.06386 0.0339403 0)
(1.09375 0.0399518 0)
(1.09371 0.0417684 0)
(0.82771 0.0228268 0)
(0.174293 0.000842629 0)
(0.153835 -0.000611805 0)
(0.955961 -0.0254953 0)
(1.10334 -0.0351906 0)
(1.08751 -0.032708 0)
(1.06143 -0.0280381 0)
(1.04376 -0.0230471 0)
(1.03132 -0.0179461 0)
(1.02253 -0.012612 0)
(1.01682 -0.00679349 0)
(1.01412 -0.000387529 0)
(1.01487 0.00604445 0)
(1.01885 0.011912 0)
(1.02586 0.0171892 0)
(1.03619 0.022106 0)
(1.05082 0.0269102 0)
(1.07212 0.0315299 0)
(1.10041 0.0355724 0)
(1.06868 0.0337512 0)
(0.74059 0.0141936 0)
(0.15267 0.000639308 0)
(0.139434 -0.00046752 0)
(0.898947 -0.0190956 0)
(1.09555 -0.0301403 0)
(1.09552 -0.0293119 0)
(1.06888 -0.0256523 0)
(1.05036 -0.0215712 0)
(1.03745 -0.0168852 0)
(1.02842 -0.0117185 0)
(1.02239 -0.00611657 0)
(1.01939 6.03474e-05 0)
(1.02013 0.00623742 0)
(1.02433 0.0118113 0)
(1.03149 0.0168313 0)
(1.04205 0.0214239 0)
(1.05731 0.0255003 0)
(1.07959 0.0290099 0)
(1.1028 0.0316776 0)
(1.03704 0.0277143 0)
(0.674708 0.010045 0)
(0.137795 0.000499102 0)
(0.128879 -0.000361387 0)
(0.849314 -0.0147079 0)
(1.08302 -0.0259539 0)
(1.10097 -0.0262613 0)
(1.0755 -0.0230195 0)
(1.05655 -0.0194975 0)
(1.04322 -0.0154659 0)
(1.03378 -0.0107678 0)
(1.0275 -0.00543054 0)
(1.02436 0.000567784 0)
(1.02498 0.00656842 0)
(1.02918 0.0118541 0)
(1.03655 0.0163953 0)
(1.04745 0.0202963 0)
(1.06306 0.0236413 0)
(1.0857 0.0266602 0)
(1.1021 0.0285511 0)
(1.00287 0.0230434 0)
(0.623808 0.00762587 0)
(0.126666 0.000398655 0)
(0.120845 -0.000278931 0)
(0.807238 -0.0114955 0)
(1.06771 -0.0222832 0)
(1.10446 -0.0235908 0)
(1.08163 -0.0207558 0)
(1.06209 -0.0174577 0)
(1.04845 -0.0137996 0)
(1.03878 -0.00946087 0)
(1.03226 -0.00442745 0)
(1.02885 0.00122468 0)
(1.02939 0.00682651 0)
(1.0336 0.0117153 0)
(1.04103 0.0158165 0)
(1.05206 0.019221 0)
(1.06807 0.0221778 0)
(1.09123 0.0249418 0)
(1.09884 0.0259561 0)
(0.968699 0.0192936 0)
(0.583427 0.00601514 0)
(0.117935 0.000323582 0)
(0.114659 -0.000213828 0)
(0.772037 -0.0090449 0)
(1.05081 -0.0189344 0)
(1.10647 -0.021014 0)
(1.08713 -0.0186856 0)
(1.0673 -0.0155989 0)
(1.0534 -0.0120704 0)
(1.04347 -0.0079872 0)
(1.03668 -0.00332893 0)
(1.03303 0.00198343 0)
(1.03341 0.00723846 0)
(1.03759 0.0116422 0)
(1.04509 0.0152468 0)
(1.05624 0.0183098 0)
(1.07245 0.0209926 0)
(1.09522 0.023362 0)
(1.09273 0.0235604 0)
(0.935955 0.016261 0)
(0.550677 0.00486808 0)
(0.110904 0.000267503 0)
(0.109912 -0.000160223 0)
(0.742918 -0.00709417 0)
(1.03383 -0.0159054 0)
(1.10766 -0.018378 0)
(1.09229 -0.0162421 0)
(1.07222 -0.0133355 0)
(1.05811 -0.0101245 0)
(1.04803 -0.0063604 0)
(1.04107 -0.00202859 0)
(1.03726 0.00292215 0)
(1.03739 0.00775702 0)
(1.04138 0.0117256 0)
(1.04876 0.0148316 0)
(1.05992 0.017391 0)
(1.07634 0.0196614 0)
(1.09818 0.021757 0)
(1.08472 0.0213636 0)
(0.905492 0.0138095 0)
(0.52367 0.0040116 0)
(0.105124 0.000225175 0)
(0.10632 -0.000115875 0)
(0.719147 -0.00546762 0)
(1.01742 -0.0130915 0)
(1.10808 -0.0159111 0)
(1.09739 -0.0141621 0)
(1.07689 -0.0113613 0)
(1.06244 -0.00823776 0)
(1.05221 -0.00459708 0)
(1.04507 -0.000489291 0)
(1.04097 0.00404902 0)
(1.04086 0.00837041 0)
(1.04464 0.0118618 0)
(1.05184 0.0146016 0)
(1.06297 0.0168132 0)
(1.07974 0.0187845 0)
(1.09998 0.0204795 0)
(1.07509 0.0194039 0)
(0.87752 0.0118041 0)
(0.50111 0.00336767 0)
(0.100273 0.000195589 0)
(0.103704 -7.63215e-05 0)
(0.700212 -0.00404841 0)
(1.00231 -0.0104066 0)
(1.10752 -0.0133038 0)
(1.10193 -0.0119079 0)
(1.08136 -0.00928384 0)
(1.06659 -0.00620543 0)
(1.05607 -0.00267513 0)
(1.04869 0.00121425 0)
(1.04428 0.00543232 0)
(1.04383 0.00935543 0)
(1.04728 0.0123839 0)
(1.05435 0.0146761 0)
(1.06559 0.0165681 0)
(1.08255 0.0181277 0)
(1.10055 0.0192841 0)
(1.06411 0.0175376 0)
(0.852167 0.0101347 0)
(0.482059 0.00286158 0)
(0.0961071 0.000173547 0)
(0.101988 -3.81871e-05 0)
(0.685773 -0.0027184 0)
(0.989167 -0.00773745 0)
(1.10648 -0.0104099 0)
(1.10595 -0.00914068 0)
(1.08566 -0.00659622 0)
(1.07064 -0.00367665 0)
(1.05974 -0.000413813 0)
(1.0519 0.00317881 0)
(1.04708 0.00708903 0)
(1.04619 0.0105866 0)
(1.04944 0.0130629 0)
(1.05642 0.0146966 0)
(1.06761 0.0159357 0)
(1.08447 0.0171515 0)
(1.10014 0.0179794 0)
(1.05244 0.0157524 0)
(0.829453 0.00870215 0)
(0.465914 0.00245494 0)
(0.0924901 0.000157992 0)
(0.101107 -8.54171e-07 0)
(0.675673 -0.00148878 0)
(0.978503 -0.00516176 0)
(1.10556 -0.00747959 0)
(1.10997 -0.00631234 0)
(1.08988 -0.00392422 0)
(1.07455 -0.00114502 0)
(1.06357 0.00208398 0)
(1.05558 0.00560363 0)
(1.05033 0.00915529 0)
(1.04889 0.0121048 0)
(1.05151 0.0140896 0)
(1.05801 0.0153333 0)
(1.06897 0.0160871 0)
(1.08602 0.0166877 0)
(1.09885 0.0169297 0)
(1.04045 0.0141908 0)
(0.809303 0.00752525 0)
(0.452179 0.00214813 0)
(0.0892701 0.000149264 0)
(0.101069 2.97134e-05 0)
(0.669832 -0.00021449 0)
(0.970442 -0.00249426 0)
(1.10449 -0.00440342 0)
(1.11343 -0.00351438 0)
(1.09373 -0.00127468 0)
(1.07811 0.00158898 0)
(1.06674 0.00481217 0)
(1.05822 0.00820712 0)
(1.05231 0.0116241 0)
(1.05025 0.0143129 0)
(1.05242 0.0157775 0)
(1.05859 0.0163842 0)
(1.06947 0.0166551 0)
(1.08625 0.0166293 0)
(1.09621 0.0162474 0)
(1.02789 0.0128101 0)
(0.791383 0.00652919 0)
(0.440408 0.00190584 0)
(0.0863263 0.000142965 0)
(0.101964 9.56613e-05 0)
(0.668259 0.00101049 0)
(0.965407 0.000148974 0)
(1.10371 -0.00103422 0)
(1.11661 -9.09986e-05 0)
(1.09773 0.00211639 0)
(1.08199 0.00500793 0)
(1.07033 0.00824695 0)
(1.06136 0.011564 0)
(1.0548 0.0147142 0)
(1.05186 0.0169178 0)
(1.05324 0.0177426 0)
(1.05883 0.0177575 0)
(1.06923 0.0173665 0)
(1.08563 0.0168328 0)
(1.09206 0.0156516 0)
(1.01518 0.0117608 0)
(0.775505 0.00588908 0)
(0.430161 0.00177858 0)
(0.0836455 0.000137721 0)
(0.103765 0.000128102 0)
(0.670175 0.00194484 0)
(0.963731 0.0024583 0)
(1.10406 0.00216001 0)
(1.12006 0.00338531 0)
(1.10179 0.00579053 0)
(1.0858 0.00884834 0)
(1.07372 0.012176 0)
(1.06418 0.0155326 0)
(1.05679 0.0185116 0)
(1.05279 0.020258 0)
(1.0532 0.020539 0)
(1.05808 0.0198585 0)
(1.06806 0.018789 0)
(1.08395 0.017719 0)
(1.08683 0.0159179 0)
(1.00235 0.0115655 0)
(0.760805 0.00587964 0)
(0.420367 0.00186614 0)
(0.0810023 0.000146897 0)
(0.106394 0.000172242 0)
(0.675547 0.00286184 0)
(0.965186 0.00454033 0)
(1.10581 0.00512668 0)
(1.12402 0.00674389 0)
(1.1062 0.00950654 0)
(1.08987 0.0129764 0)
(1.07728 0.0166674 0)
(1.06691 0.0202764 0)
(1.05834 0.0231758 0)
(1.05314 0.0245285 0)
(1.0525 0.0242643 0)
(1.05651 0.0230276 0)
(1.06594 0.0213695 0)
(1.08118 0.0196463 0)
(1.08044 0.0171804 0)
(0.989089 0.0122937 0)
(0.746177 0.00647139 0)
(0.409882 0.00214619 0)
(0.0780992 0.000170557 0)
(0.109874 0.000222847 0)
(0.684051 0.00383212 0)
(0.969506 0.00660751 0)
(1.10908 0.00820664 0)
(1.12873 0.010169 0)
(1.11129 0.0133856 0)
(1.09469 0.0174168 0)
(1.08147 0.0217161 0)
(1.07012 0.0258043 0)
(1.06013 0.0289535 0)
(1.05334 0.0301333 0)
(1.05135 0.029362 0)
(1.05431 0.0274159 0)
(1.063 0.0251559 0)
(1.07723 0.022689 0)
(1.07269 0.0193784 0)
(0.974918 0.0138105 0)
(0.730502 0.00753639 0)
(0.397798 0.0025487 0)
(0.0746852 0.000203498 0)
(0.114391 0.000292638 0)
(0.695913 0.00505522 0)
(0.977146 0.0090732 0)
(1.11413 0.0118794 0)
(1.13421 0.0145702 0)
(1.11717 0.0185005 0)
(1.10023 0.0232618 0)
(1.08612 0.0282512 0)
(1.07342 0.0328135 0)
(1.06166 0.0361152 0)
(1.05294 0.0369786 0)
(1.04935 0.0355315 0)
(1.05114 0.032808 0)
(1.05892 0.029646 0)
(1.07187 0.0263328 0)
(1.06334 0.0221539 0)
(0.959506 0.0159828 0)
(0.712771 0.00892979 0)
(0.383524 0.00302811 0)
(0.0706099 0.00024229 0)
(0.120293 0.000389751 0)
(0.711691 0.00669908 0)
(0.98877 0.0121742 0)
(1.12219 0.0164516 0)
(1.14149 0.0204376 0)
(1.12441 0.0255516 0)
(1.10681 0.0312429 0)
(1.09153 0.036945 0)
(1.07706 0.0418785 0)
(1.06311 0.0449639 0)
(1.05206 0.044998 0)
(1.04662 0.0425037 0)
(1.04688 0.0388352 0)
(1.05356 0.0348238 0)
(1.06506 0.0306565 0)
(1.05266 0.0258011 0)
(0.942397 0.0188473 0)
(0.692062 0.0105187 0)
(0.366751 0.00354801 0)
(0.0658075 0.000283103 0)
(0.128117 0.000532119 0)
(0.732367 0.00900652 0)
(1.00472 0.0162043 0)
(1.13383 0.0219822 0)
(1.15152 0.0276047 0)
(1.13342 0.0341727 0)
(1.11459 0.0411412 0)
(1.09746 0.0476845 0)
(1.08065 0.0530085 0)
(1.06391 0.0558519 0)
(1.05013 0.0549569 0)
(1.04259 0.0511684 0)
(1.0415 0.046132 0)
(1.0472 0.0412623 0)
(1.05712 0.0365932 0)
(1.04058 0.0309709 0)
(0.921923 0.0224864 0)
(0.667508 0.0123084 0)
(0.347201 0.00414988 0)
(0.060226 0.000329448 0)
(0.138599 0.000741305 0)
(0.759303 0.0123064 0)
(1.02538 0.0216368 0)
(1.14915 0.0287641 0)
(1.16452 0.0358776 0)
(1.1448 0.0441391 0)
(1.1238 0.0525567 0)
(1.10416 0.0602612 0)
(1.08444 0.0663043 0)
(1.06433 0.0692447 0)
(1.04742 0.0678348 0)
(1.03742 0.0631543 0)
(1.03458 0.05706 0)
(1.03948 0.0509114 0)
(1.04795 0.0453554 0)
(1.0252 0.0377045 0)
(0.896343 0.0264885 0)
(0.638845 0.0143497 0)
(0.324507 0.00483314 0)
(0.0537767 0.000377608 0)
(0.152963 0.00107845 0)
(0.794559 0.017294 0)
(1.05194 0.0294581 0)
(1.16786 0.0382165 0)
(1.18041 0.046758 0)
(1.15841 0.0565193 0)
(1.13472 0.0664113 0)
(1.11198 0.075553 0)
(1.08864 0.0824807 0)
(1.06459 0.0855791 0)
(1.04419 0.0836784 0)
(1.03144 0.0781944 0)
(1.02643 0.0711752 0)
(1.02981 0.063771 0)
(1.03555 0.0558158 0)
(1.00359 0.0450414 0)
(0.865284 0.0308361 0)
(0.605892 0.0167919 0)
(0.298198 0.00561997 0)
(0.0464028 0.000426791 0)
(0.173367 0.00168095 0)
(0.841561 0.0251039 0)
(1.08737 0.0412168 0)
(1.19049 0.0524429 0)
(1.19876 0.0626212 0)
(1.17408 0.0738964 0)
(1.14739 0.0853112 0)
(1.12076 0.0954848 0)
(1.09303 0.1027 0)
(1.06448 0.105225 0)
(1.04021 0.102052 0)
(1.02447 0.0951096 0)
(1.01684 0.0865621 0)
(1.01723 0.077224 0)
(1.01733 0.0662809 0)
(0.975713 0.0523595 0)
(0.829745 0.035921 0)
(0.568134 0.0197338 0)
(0.267881 0.00648043 0)
(0.0381389 0.000469076 0)
(0.203123 0.0030265 0)
(0.906106 0.038517 0)
(1.13483 0.0606511 0)
(1.21787 0.0750198 0)
(1.21956 0.0876102 0)
(1.19158 0.100189 0)
(1.161 0.112205 0)
(1.12952 0.122016 0)
(1.0967 0.127977 0)
(1.06317 0.128393 0)
(1.03471 0.122552 0)
(1.01565 0.113012 0)
(1.00489 0.102002 0)
(1.00084 0.0900532 0)
(0.993961 0.0764931 0)
(0.943584 0.0605738 0)
(0.78997 0.0422536 0)
(0.524854 0.0232568 0)
(0.233819 0.00743145 0)
(0.0292878 0.000499341 0)
(0.244145 0.00926771 3.09106e-20)
(0.991906 0.0653576 2.60865e-20)
(1.19254 0.0940892 -8.85344e-21)
(1.24951 0.110307 0)
(1.24164 0.125891 -1.99469e-34)
(1.20904 0.13818 2.85018e-21)
(1.17364 0.148886 -4.76025e-21)
(1.1367 0.156544 0)
(1.0983 0.159656 8.96156e-35)
(1.05933 0.156531 -5.13126e-21)
(1.02612 0.146852 0)
(1.00304 0.133846 -5.7586e-21)
(0.988222 0.119807 -1.67692e-20)
(0.978692 0.10529 -7.85117e-21)
(0.964849 0.0903233 -2.32865e-21)
(0.905838 0.0737571 -1.37552e-21)
(0.741381 0.0525129 0)
(0.47178 0.0289242 9.63267e-22)
(0.196391 0.00982458 1.14149e-21)
(0.0210848 0.000913975 2.08551e-20)
(0.271538 0.0247671 2.78503e-20)
(1.06256 0.107838 1.03175e-22)
(1.23996 0.142051 2.60004e-21)
(1.27959 0.159709 0)
(1.26173 0.175089 -1.08742e-20)
(1.22404 0.185896 -1.18653e-20)
(1.18348 0.194535 -4.98367e-21)
(1.14085 0.199642 -1.65405e-20)
(1.09647 0.199663 0)
(1.0512 0.192679 2.19418e-20)
(1.01193 0.178831 2.11269e-20)
(0.983305 0.162103 6.14475e-21)
(0.962931 0.145087 2.17753e-20)
(0.947126 0.128458 3.00059e-20)
(0.925475 0.112033 0)
(0.858685 0.0941316 4.18333e-20)
(0.685681 0.0686196 6.00901e-20)
(0.41888 0.0392748 6.69101e-20)
(0.165277 0.014514 -7.68112e-20)
(0.0150028 0.00134081 -1.46252e-21)
(0.27163 0.0408278 0)
(1.10681 0.163204 6.05427e-21)
(1.2731 0.201273 0)
(1.30313 0.219568 -1.75738e-20)
(1.27763 0.232091 0)
(1.23511 0.239825 -2.46945e-20)
(1.18944 0.245076 1.04919e-20)
(1.14133 0.246603 -3.45709e-20)
(1.09121 0.242743 -3.16954e-22)
(1.03989 0.23157 1.1586e-20)
(0.994827 0.213624 4.59066e-20)
(0.96114 0.19375 -6.30035e-23)
(0.936105 0.174596 -1.57063e-20)
(0.915915 0.156827 -2.80042e-20)
(0.890354 0.13976 3.29783e-20)
(0.82321 0.119885 -5.83462e-20)
(0.65457 0.0896041 -7.70855e-21)
(0.402471 0.0539242 0)
(0.165902 0.0219206 5.13794e-24)
(0.0166604 0.00229084 0)
(0.264688 0.0546546 1.11789e-19)
(1.13019 0.222187 -4.92191e-20)
(1.29428 0.265479 -3.13106e-20)
(1.31858 0.284002 9.11134e-21)
(1.28771 0.293153 -1.48452e-20)
(1.24132 0.297205 5.25252e-20)
(1.19128 0.298527 2.22755e-20)
(1.13834 0.295987 0)
(1.08309 0.287918 -6.11134e-20)
(1.02631 0.272393 0)
(0.976045 0.250612 -2.4379e-20)
(0.93798 0.227996 -2.88773e-20)
(0.909366 0.207219 -1.69928e-20)
(0.886232 0.188476 -2.01996e-20)
(0.858877 0.170647 0)
(0.794623 0.148974 0)
(0.638808 0.114896 -5.01171e-20)
(0.405832 0.0734527 9.90405e-21)
(0.178502 0.0323584 -5.83891e-21)
(0.0213579 0.00409921 -6.91379e-21)
(0.257285 0.0670222 -6.78238e-20)
(1.14007 0.280985 0)
(1.3062 0.330744 7.55206e-20)
(1.3268 0.349501 2.83616e-20)
(1.29206 0.355366 3.24252e-20)
(1.2426 0.355746 0)
(1.18904 0.353131 2.3097e-20)
(1.13212 0.346461 3.913e-20)
(1.07244 0.33418 3.2123e-20)
(1.01091 0.314351 5.38862e-20)
(0.956237 0.288865 0)
(0.914574 0.263705 -6.2111e-20)
(0.883161 0.24134 -3.65845e-20)
(0.857951 0.221767 -2.14288e-20)
(0.829823 0.203201 1.28647e-19)
(0.769398 0.180315 1.52767e-20)
(0.628289 0.143148 7.21495e-20)
(0.413371 0.0953088 -3.42174e-19)
(0.19258 0.0449707 2.03096e-19)
(0.0263905 0.00645946 -2.47932e-19)
(0.25061 0.0782199 -6.14226e-20)
(1.14154 0.337827 1.30202e-20)
(1.31128 0.395155 -1.09971e-20)
(1.32927 0.414335 -3.78402e-20)
(1.29157 0.417103 -3.27165e-20)
(1.23965 0.413949 3.4744e-22)
(1.18322 0.407579 -2.48313e-20)
(1.12297 0.396979 4.13411e-20)
(1.05958 0.380626 -6.89387e-20)
(0.993983 0.356644 0)
(0.935591 0.327521 -2.86619e-20)
(0.89109 0.299883 -3.18164e-22)
(0.857538 0.275946 -3.95963e-20)
(0.830827 0.25543 0)
(0.802476 0.236144 -2.77025e-20)
(0.746139 0.212187 -6.56755e-20)
(0.61822 0.172256 1.758e-19)
(0.418983 0.117888 -1.73501e-19)
(0.203479 0.0581389 2.46923e-19)
(0.0304831 0.00900283 -2.59863e-19)
(0.245262 0.0886943 -1.04997e-22)
(1.13786 0.392072 -1.30556e-20)
(1.31158 0.458364 -4.49938e-20)
(1.32728 0.477515 1.9365e-20)
(1.28729 0.47744 -1.72547e-20)
(1.23334 0.470979 0)
(1.1745 0.461087 -2.53458e-20)
(1.11143 0.446802 -4.38647e-20)
(1.04484 0.426595 -3.64394e-20)
(0.975774 0.398594 0)
(0.914201 0.36593 -3.01974e-20)
(0.867389 0.335698 -3.58467e-20)
(0.832273 0.310098 4.26432e-20)
(0.804602 0.288542 -2.53531e-20)
(0.776392 0.268621 -1.19694e-19)
(0.723557 0.243341 7.11199e-20)
(0.606335 0.201079 2.12833e-20)
(0.419058 0.140034 0)
(0.208375 0.0705533 -2.3667e-19)
(0.0328845 0.0113425 -8.77447e-21)
(0.241239 0.0987445 -8.13619e-21)
(1.13112 0.443614 1.34102e-20)
(1.30805 0.519062 2.37944e-20)
(1.32186 0.538407 6.30358e-20)
(1.28003 0.535803 -7.15493e-20)
(1.22442 0.526318 6.26154e-20)
(1.16356 0.513183 5.43219e-20)
(1.09805 0.49548 -7.02631e-20)
(1.02864 0.471641 2.07365e-20)
(0.956483 0.439782 -1.32209e-19)
(0.89214 0.403576 -3.31933e-20)
(0.843392 0.370679 0)
(0.807132 0.34316 4.59061e-20)
(0.778914 0.32031 5.41505e-20)
(0.751108 0.299452 6.41496e-20)
(0.701318 0.272808 -7.65843e-20)
(0.591936 0.227773 -2.26869e-20)
(0.413424 0.15972 2.68125e-20)
(0.207486 0.0807053 0)
(0.0334337 0.0131097 -1.88835e-20)
(0.238362 0.10846 8.23021e-20)
(1.12286 0.492498 -5.50335e-20)
(1.30185 0.577031 -2.50761e-20)
(1.31389 0.596698 4.38647e-20)
(1.27056 0.591834 -3.70501e-20)
(1.21358 0.579624 -8.08555e-22)
(1.15098 0.563567 -5.84843e-20)
(1.08333 0.542728 -2.51885e-20)
(1.01139 0.515501 -6.28504e-20)
(0.936394 0.479941 4.59034e-23)
(0.869521 0.440203 -1.05146e-19)
(0.819105 0.404447 8.41501e-20)
(0.781959 0.37481 -4.97268e-20)
(0.753494 0.350367 5.87757e-20)
(0.726184 0.328217 0)
(0.678733 0.299836 -4.1172e-20)
(0.575039 0.251418 -1.82023e-22)
(0.402731 0.176096 -1.15603e-19)
(0.202094 0.088228 -1.71085e-20)
(0.0325639 0.0142237 0)
(0.236513 0.118027 0)
(1.11388 0.53896 -5.81205e-20)
(1.2937 0.632212 -5.13523e-20)
(1.30407 0.652236 -4.59461e-20)
(1.25946 0.645338 -4.0874e-20)
(1.20132 0.630706 0)
(1.13724 0.612034 -2.97055e-20)
(1.0677 0.588359 -2.40896e-22)
(0.993455 0.558022 1.34464e-19)
(0.915785 0.518957 -1.85447e-20)
(0.846501 0.47568 -7.54245e-20)
(0.794548 0.436935 4.43676e-20)
(0.756667 0.404854 -4.06259e-22)
(0.728053 0.378512 6.26365e-20)
(0.701205 0.354748 3.7732e-20)
(0.655479 0.324205 -8.85486e-20)
(0.555507 0.271651 1.05027e-19)
(0.387688 0.189004 3.11194e-20)
(0.192646 0.0929623 1.28984e-19)
(0.0304 0.0146081 -3.49244e-19)
(0.235539 0.127566 1.71736e-20)
(1.10476 0.58314 -2.94131e-20)
(1.28424 0.684622 2.49772e-20)
(1.29296 0.704967 4.74679e-20)
(1.24726 0.696235 0)
(1.18814 0.679459 -3.56814e-20)
(1.12275 0.65847 9.65433e-20)
(1.05152 0.632259 5.66069e-20)
(0.975134 0.599106 0)
(0.894894 0.556765 -2.61837e-19)
(0.823225 0.509998 2.02598e-19)
(0.769702 0.468094 0)
(0.731064 0.433339 5.74367e-20)
(0.702334 0.404809 -4.04373e-22)
(0.675885 0.379049 -1.20646e-19)
(0.631284 0.345848 4.72808e-20)
(0.533617 0.288363 0)
(0.369166 0.198206 1.67185e-19)
(0.180124 0.0953026 0)
(0.0274535 0.0143876 -1.64329e-19)
(0.235264 0.13708 -1.76673e-20)
(1.09583 0.625189 -2.98031e-20)
(1.27389 0.734277 2.70613e-20)
(1.281 0.75489 0)
(1.23434 0.744515 -4.41849e-20)
(1.17437 0.72585 0)
(1.10784 0.702813 -1.0076e-19)
(1.03508 0.674364 -2.87575e-20)
(0.956684 0.638698 2.47925e-20)
(0.87392 0.593338 -1.29343e-19)
(0.799762 0.543189 2.12904e-20)
(0.744517 0.498008 0)
(0.70503 0.460327 -1.2274e-19)
(0.676168 0.429291 4.14424e-22)
(0.649983 0.401193 0)
(0.605931 0.364815 4.61453e-22)
(0.509344 0.301627 1.51562e-19)
(0.347488 0.203689 -1.43887e-19)
(0.165286 0.0951611 4.26134e-20)
(0.0239727 0.013587 0)
(0.235347 0.146455 0)
(1.08728 0.665146 -3.05783e-20)
(1.26305 0.781265 -2.70167e-20)
(1.26853 0.802066 -4.60222e-22)
(1.22103 0.790204 -2.22226e-20)
(1.16033 0.769878 -8.10568e-20)
(1.0928 0.745047 3.64102e-20)
(1.01864 0.714643 -3.18239e-20)
(0.938332 0.67677 1.07841e-19)
(0.853032 0.628696 -2.06856e-19)
(0.7762 0.575318 -6.81504e-22)
(0.719048 0.526791 -5.53116e-20)
(0.678585 0.485942 1.98037e-19)
(0.649468 0.452133 -4.88836e-22)
(0.623397 0.421321 -9.28714e-20)
(0.57932 0.381151 -1.65262e-19)
(0.482884 0.311525 0)
(0.323229 0.205676 0)
(0.148705 0.0925695 4.58447e-20)
(0.0201728 0.0122868 -2.71794e-20)
(0.23592 0.155784 -1.8466e-20)
(1.07921 0.702972 6.38067e-20)
(1.25192 0.825671 2.87941e-20)
(1.25581 0.846557 0)
(1.20759 0.833355 -3.22473e-22)
(1.14626 0.811574 -8.38917e-20)
(1.07784 0.785184 9.44328e-20)
(1.0024 0.753092 1.32072e-19)
(0.92027 0.713325 1.42387e-19)
(0.832414 0.662879 -1.70514e-19)
(0.752759 0.606509 -1.73454e-19)
(0.693412 0.554615 1.47893e-19)
(0.651673 0.510391 0)
(0.622148 0.473456 -4.23036e-20)
(0.596038 0.439537 -1.00054e-19)
(0.551402 0.394919 -1.18365e-19)
(0.453978 0.317943 -1.40505e-19)
(0.296752 0.204168 4.1639e-20)
(0.130699 0.0875753 -2.4613e-20)
(0.0161019 0.0105039 6.92856e-23)
(0.236676 0.164886 0)
(1.07165 0.739116 0)
(1.24069 0.86757 5.443e-22)
(1.24304 0.888446 0)
(1.19419 0.874048 7.30519e-20)
(1.13233 0.850991 6.52097e-20)
(1.06315 0.823249 0)
(0.986546 0.789725 1.69383e-20)
(0.902678 0.748374 2.40905e-19)
(0.812278 0.695923 -3.91191e-19)
(0.729602 0.636869 0)
(0.667668 0.581687 -9.49618e-20)
(0.624287 0.533844 -5.95488e-22)
(0.594126 0.493418 -4.8594e-22)
(0.567826 0.45588 1.06966e-19)
(0.52218 0.406008 -8.12395e-23)
(0.423081 0.320795 -3.01864e-19)
(0.268089 0.199001 8.94552e-20)
(0.111839 0.0804425 2.65266e-20)
(0.0120433 0.00840095 0)
(0.237415 0.173814 5.77765e-20)
(1.06436 0.773554 3.37666e-20)
(1.22948 0.907034 6.05845e-20)
(1.23039 0.927828 -1.11896e-19)
(1.18101 0.912346 1.26842e-19)
(1.1187 0.888186 0)
(1.04886 0.859287 6.24148e-20)
(0.97121 0.824569 -3.66876e-20)
(0.885707 0.781937 7.7963e-22)
(0.792787 0.727862 2.82915e-20)
(0.706866 0.66648 2.25357e-19)
(0.64195 0.608183 -3.35597e-20)
(0.596443 0.556576 -1.21619e-19)
(0.565272 0.512198 -4.8936e-20)
(0.538591 0.470308 5.78437e-20)
(0.491604 0.414161 -5.16091e-23)
(0.390588 0.319824 8.12225e-20)
(0.238195 0.190305 -1.9215e-19)
(0.0929027 0.0715926 2.2798e-19)
(0.00815015 0.00610409 3.368e-20)
(0.237892 0.18246 -1.96902e-20)
(1.05738 0.806356 1.74913e-20)
(1.21843 0.944175 1.26571e-21)
(1.21798 0.964823 -5.7298e-20)
(1.16814 0.948355 -2.57405e-20)
(1.10546 0.923226 -1.22269e-19)
(1.03508 0.893342 2.11565e-20)
(0.956499 0.857643 -1.55498e-19)
(0.869476 0.814009 -2.71026e-19)
(0.774058 0.758699 -2.35765e-19)
(0.684741 0.695423 0)
(0.616432 0.634287 -1.45357e-19)
(0.568188 0.578899 1.74323e-19)
(0.535415 0.530052 0)
(0.508024 0.482704 -1.23799e-19)
(0.459564 0.418865 7.36956e-20)
(0.356875 0.314543 -8.71536e-20)
(0.208203 0.178247 -1.03307e-19)
(0.0748384 0.0615684 -1.83487e-19)
(0.00466242 0.00380224 -1.44862e-19)
(0.238674 0.190911 2.00827e-20)
(1.05056 0.837498 -1.86897e-20)
(1.20758 0.979055 -4.72738e-20)
(1.20587 0.999509 -7.47115e-20)
(1.15566 0.982157 5.5684e-20)
(1.0927 0.956189 -7.62275e-20)
(1.02188 0.925463 6.84274e-20)
(0.942488 0.888986 -1.63967e-19)
(0.854052 0.84461 -1.61859e-19)
(0.756217 0.788449 2.49274e-19)
(0.663396 0.723756 4.96458e-19)
(0.591277 0.660163 0)
(0.539644 0.601132 0)
(0.504365 0.547379 -5.62182e-20)
(0.475562 0.493013 0)
(0.425614 0.419233 1.58422e-19)
(0.3225 0.303914 1.87392e-19)
(0.179764 0.162668 0)
(0.0590119 0.05095 0)
(0.00179004 0.00168843 1.55571e-19)
(0.239056 0.198836 -2.03431e-20)
(1.04392 0.866971 -1.69098e-20)
(1.197 1.01179 -3.32764e-20)
(1.19412 1.03201 6.13938e-20)
(1.14363 1.01385 5.8004e-20)
(1.08047 0.987146 9.25463e-20)
(1.00931 0.955707 -9.65815e-20)
(0.929227 0.918625 6.95173e-23)
(0.839513 0.873744 -1.01203e-21)
(0.739369 0.817103 -1.17662e-21)
(0.642988 0.751502 2.56142e-19)
(0.566697 0.685908 0)
(0.511009 0.623574 1.75284e-19)
(0.472021 0.564733 1.19948e-19)
(0.44037 0.501579 2.86968e-19)
(0.388546 0.414267 8.50566e-20)
(0.287676 0.285638 -1.00933e-19)
(0.156104 0.141642 -5.95039e-20)
(0.0496895 0.0394262 0)
(0.000498068 1.29048e-05 1.67059e-19)
(0.239749 0.206737 4.09795e-20)
(1.03745 0.894914 0)
(1.1867 1.04242 -3.35494e-20)
(1.18278 1.06241 4.81033e-20)
(1.1321 1.04352 -5.95952e-20)
(1.0688 1.01618 -1.23577e-19)
(0.997415 0.984128 2.01856e-19)
(0.91675 0.946596 -1.23758e-20)
(0.825894 0.901422 0)
(0.723587 0.844623 -2.80087e-19)
(0.623672 0.778653 -5.60813e-19)
(0.542918 0.711592 2.17508e-20)
(0.482579 0.646437 2.40833e-19)
(0.438458 0.582766 0)
(0.401563 0.509415 1.92754e-19)
(0.345932 0.403866 0)
(0.249707 0.256049 0)
(0.14007 0.104857 -6.42922e-20)
(0.0680872 0.0137893 0)
(0.0242613 0.00575115 4.47756e-20)
(0.239967 0.214013 4.15885e-20)
(1.03112 0.921556 0)
(1.17667 1.07117 -5.12118e-20)
(1.1718 1.09093 0)
(1.12103 1.07143 3.00156e-20)
(1.05762 1.04356 0)
(0.986114 1.01103 1.22865e-20)
(0.904961 0.973237 2.33407e-20)
(0.81308 0.928013 2.0498e-20)
(0.708717 0.871396 -3.10842e-19)
(0.60532 0.80566 1.73433e-20)
(0.519779 0.737793 1.72834e-19)
(0.454115 0.670296 2.34843e-19)
(0.403161 0.602397 3.1027e-20)
(0.357688 0.518543 1.50225e-19)
(0.293715 0.390346 0)
(0.197859 0.216024 2.11761e-19)
(0.103384 0.0460277 -1.24828e-19)
(0.035356 0.0580175 1.46357e-19)
(-0.037326 0.441372 -1.73755e-19)
(0.240094 0.221069 -3.20187e-20)
(1.02473 0.946784 -5.52696e-20)
(1.16685 1.09835 0)
(1.16105 1.118 1.10019e-21)
(1.11024 1.09813 -7.66726e-20)
(1.0467 1.06998 2.14144e-19)
(0.975117 1.03722 7.83007e-20)
(0.893476 0.999492 0)
(0.800567 0.95462 1.42894e-19)
(0.694115 0.898735 -1.70083e-20)
(0.58706 0.834012 0)
(0.496154 0.766304 0)
(0.424269 0.696975 2.09844e-19)
(0.364593 0.62523 -9.47902e-20)
(0.306336 0.532192 -1.51146e-19)
(0.228142 0.379414 0)
(0.110887 0.202221 1.06979e-19)
(0.012217 0.457697 -1.25417e-19)
(0.0363993 1.89336 -7.20831e-20)
(0.0642127 2.80661 -8.71652e-20)
(0.239863 0.227521 2.11109e-20)
(1.01835 0.970774 6.56246e-20)
(1.15724 1.12394 -2.73742e-20)
(1.15056 1.14349 -3.38297e-20)
(1.09981 1.12344 0)
(1.03611 1.09515 1.46664e-19)
(0.964614 1.06237 1.18873e-19)
(0.882468 1.02493 -1.20738e-20)
(0.788614 0.980721 2.10665e-20)
(0.680151 0.926022 3.01281e-19)
(0.569496 0.862989 2.88232e-19)
(0.473029 0.796741 1.95041e-19)
(0.394164 0.726072 2.10667e-19)
(0.324819 0.649826 -2.21414e-19)
(0.254319 0.552704 -2.2715e-19)
(0.14869 0.411477 0)
(0.0523582 0.859899 0)
(0.0999422 2.55808 6.08523e-20)
(0.102792 3.19673 0)
(0.103434 3.38369 1.63031e-19)
(0.242389 0.233486 0)
(1.0122 0.993839 0)
(1.14758 1.14782 0)
(1.14011 1.16721 -8.25325e-21)
(1.08945 1.14714 -6.64543e-20)
(1.02564 1.11894 1.04114e-19)
(0.95453 1.08639 8.10746e-20)
(0.871868 1.04942 -1.22472e-20)
(0.777157 1.00615 1.87526e-19)
(0.666814 0.953093 -2.07844e-21)
(0.552718 0.892376 5.76181e-19)
(0.450824 0.829094 -2.21546e-20)
(0.364148 0.758013 2.59044e-20)
(0.286039 0.673764 3.18401e-20)
(0.196587 0.579476 3.14365e-23)
(0.112011 1.00111 3.25802e-22)
(0.141808 2.72016 -3.11646e-19)
(0.150069 3.29316 -1.20523e-19)
(0.137591 3.42434 6.72123e-20)
(0.123866 3.44542 -7.74244e-20)
(0.164214 0.178073 -1.05297e-20)
(1.00166 1.01877 0)
(1.13781 1.17024 4.6713e-20)
(1.13007 1.18946 8.0031e-20)
(1.07962 1.16971 -1.24047e-19)
(1.01592 1.14178 -1.07526e-19)
(0.94465 1.1093 -9.02745e-20)
(0.861707 1.07299 1.57921e-19)
(0.766319 1.0309 -1.59153e-19)
(0.654384 0.979947 0)
(0.537111 0.922097 2.88867e-19)
(0.430077 0.863085 -1.61385e-19)
(0.33485 0.795605 0)
(0.248108 0.703174 3.09737e-20)
(0.16007 0.857391 7.33139e-20)
(0.156245 2.5009 -8.56769e-20)
(0.212354 3.32789 9.91514e-20)
(0.191178 3.44041 5.59067e-20)
(0.157865 3.45959 6.53362e-20)
(0.136205 3.46821 1.09962e-19)
(0.277403 0.271951 2.21039e-20)
(0.984748 1.02903 0)
(1.12014 1.19579 -4.3234e-20)
(1.11613 1.22266 -7.48975e-20)
(1.064 1.20335 1.18555e-19)
(0.99987 1.17593 1.01976e-19)
(0.927623 1.1448 1.17476e-19)
(0.844061 1.10973 1.20278e-20)
(0.747377 1.06983 1.61602e-19)
(0.632792 1.02286 2.78518e-19)
(0.510579 0.971053 1.71032e-20)
(0.395987 0.920389 1.46624e-19)
(0.282885 0.864484 2.50016e-20)
(0.219365 1.02137 -3.01952e-20)
(0.227455 2.36463 -6.9883e-20)
(0.281147 3.33612 7.51247e-20)
(0.265441 3.47279 -8.56873e-20)
(0.22906 3.49109 -5.02987e-20)
(0.192906 3.51497 -5.24756e-20)
(0.145397 3.50775 -7.47438e-21)
(0.267469 0.270781 0)
(0.982127 1.05179 -7.82739e-21)
(1.11215 1.21919 7.41868e-21)
(1.10632 1.24585 7.24042e-21)
(1.05404 1.22647 7.28886e-20)
(0.99003 1.19929 -9.6531e-20)
(0.917493 1.16841 -7.3704e-20)
(0.833813 1.13419 1.14196e-20)
(0.736764 1.09578 -1.74111e-19)
(0.621179 1.05169 -3.00254e-21)
(0.496721 1.00458 -5.41907e-19)
(0.378415 0.959664 2.07629e-20)
(0.272365 0.938328 -2.41681e-20)
(0.25604 1.54628 -2.87913e-20)
(0.319319 3.12056 3.66285e-21)
(0.337351 3.47664 4.83186e-22)
(0.293871 3.52741 1.49e-19)
(0.257879 3.54733 8.27425e-20)
(0.210117 3.5667 -4.02198e-20)
(0.157199 3.56128 -4.54909e-20)
(0.253113 0.268477 -1.57856e-20)
(0.978535 1.07707 -4.88752e-20)
(1.10373 1.2446 2.0722e-20)
(1.09611 1.27058 2.75381e-20)
(1.04374 1.25104 0)
(0.979856 1.22388 -1.25116e-19)
(0.907285 1.19327 -1.03333e-19)
(0.823752 1.15983 1.07879e-20)
(0.726651 1.12299 -1.89807e-20)
(0.610582 1.08196 -2.70046e-19)
(0.484697 1.03996 -2.58629e-19)
(0.364964 1.00224 -1.77713e-19)
(0.278812 1.07807 -1.85689e-19)
(0.320065 2.24711 1.89282e-19)
(0.400578 3.39683 1.74955e-19)
(0.377611 3.53875 0)
(0.325983 3.57471 0)
(0.288097 3.60783 -3.33098e-20)
(0.238658 3.65537 0)
(0.166998 3.63438 -6.52942e-20)
(0.24279 0.270031 1.90867e-20)
(0.972921 1.10317 3.57264e-20)
(1.09396 1.27123 0)
(1.08474 1.29621 1.31417e-21)
(1.03232 1.27628 6.09315e-20)
(0.968676 1.24902 -1.74186e-19)
(0.896388 1.21866 -6.43403e-20)
(0.813231 1.18592 9.48597e-21)
(0.716335 1.15056 -1.38877e-19)
(0.600192 1.11254 1.4774e-20)
(0.473668 1.07584 0)
(0.355744 1.04886 0)
(0.308751 1.33709 -1.76171e-19)
(0.398165 2.91693 7.40832e-20)
(0.469023 3.5063 1.05579e-19)
(0.416605 3.57669 0)
(0.372951 3.63046 -4.60956e-20)
(0.327299 3.67966 4.42626e-20)