/*--------------------------------*- C++ -*----------------------------------*\
  =========                 |
  \\      /  F ield         | OpenFOAM: The Open Source CFD Toolbox
   \\    /   O peration     | Website:  https://openfoam.org
    \\  /    A nd           | Version:  6
     \\/     M anipulation  |
\*---------------------------------------------------------------------------*/
FoamFile
{
    version     2.0;
    format      ascii;
    class       surfaceScalarField;
    location    "101.1";
    object      phi;
}
// * * * * * * * * * * * * * * * * * * * * * * * * * * * * * * * * * * * * * //

dimensions      [0 3 -1 0 0 0 0];

internalField   nonuniform List<scalar> 
17370
(
-0.0899999
0.0898488
0.289162
-0.0714621
0.053752
0.364486
-0.0381188
0.0276895
0.426597
-0.0196377
0.0146047
0.504285
-0.010763
0.00827284
0.601892
-0.0062734
0.004897
0.720434
-0.00373296
0.00289213
0.863747
-0.00215026
0.0015908
1.03601
-0.00107389
0.000661209
1.24292
-0.000253743
-0.000144592
1.49159
0.000524547
-0.00093449
1.4916
0.00133124
-0.00181542
1.24317
0.0023374
-0.0030405
1.03634
0.00385495
-0.00500054
0.864052
0.00636743
-0.00836088
0.721051
0.0108465
-0.0146829
0.603051
0.0197098
-0.027754
0.507483
0.0381754
-0.0537998
0.431792
0.0715014
-0.0898754
0.365149
0.0900163
0.198995
-0.128138
0.0882303
0.039908
-0.364601
0.353383
-0.0746678
0.0858858
-0.446477
0.454323
-0.084381
0.0765353
-0.521192
0.529905
-0.068437
0.0597243
-0.612791
0.621571
-0.0515343
0.0427535
-0.726896
0.734168
-0.0352914
0.0280202
-0.867477
0.872595
-0.0224173
0.0172988
-1.03848
1.04193
-0.0134861
0.0100332
-1.2446
1.24704
-0.00741977
0.00498402
-1.49262
1.49461
-0.0030325
0.00104716
-1.49251
1.49423
0.000624331
-0.00234711
-1.24397
1.24586
0.0042563
-0.00614144
-1.03751
1.04003
0.0084895
-0.0110061
-0.866098
0.869825
0.0143518
-0.0180795
-0.724388
0.729931
0.0231201
-0.0286626
-0.608696
0.616108
0.0358756
-0.043288
-0.514895
0.523038
0.0520167
-0.0601596
-0.439855
0.447912
0.0688208
-0.0768781
-0.375293
0.376736
0.084672
-0.086115
-0.257328
0.222473
0.074823
-0.0399675
-0.0685259
0.0587025
0.00982336
-0.0517956
0.0583735
-0.374134
0.367556
-0.0574534
0.0536978
-0.4536
0.457356
-0.0486049
0.0446495
-0.527954
0.531909
-0.0408062
0.0371639
-0.621571
0.625214
-0.0330579
0.0289775
-0.735357
0.739438
-0.0244013
0.020236
-0.874349
0.878514
-0.0158834
0.0121834
-1.0435
1.0472
-0.00843967
0.00526186
-1.24857
1.25175
-0.00192943
-0.00114753
-1.49666
1.49974
0.00419784
-0.00746586
-1.4972
1.50047
0.010544
-0.0141381
-1.25006
1.25366
0.0176797
-0.021858
-1.04592
1.05009
0.0258796
-0.0303164
-0.877751
0.882187
0.0342836
-0.038277
-0.739891
0.743884
0.0418233
-0.0455678
-0.626765
0.630509
0.0494384
-0.0544504
-0.534803
0.539815
0.0581157
-0.0589229
-0.457467
0.458274
0.0522104
-0.0319992
-0.335739
0.315528
0.00989068
-0.068336
0.0584453
-0.0529552
0.0489635
0.00399166
-0.0331354
0.0436689
-0.358132
0.347599
-0.0473576
0.0467235
-0.4593
0.459934
-0.0436616
0.0403036
-0.535817
0.539175
-0.0365251
0.0332154
-0.628546
0.631856
-0.0297706
0.0267315
-0.742668
0.745707
-0.0234637
0.0203481
-0.882039
0.885155
-0.016808
0.0134199
-1.05079
1.05418
-0.00961777
0.00607206
-1.25518
1.25873
-0.00209614
-0.00170623
-1.50325
1.50705
0.00547576
-0.00935151
-1.50413
1.508
0.0127556
-0.0163514
-1.2574
1.261
0.0195212
-0.0228182
-1.0539
1.0572
0.0257287
-0.028793
-0.885666
0.88873
0.0316646
-0.0349421
-0.747136
0.750413
0.0381102
-0.0417452
-0.634286
0.637921
0.0449805
-0.0479019
-0.544117
0.547039
0.0483869
-0.044488
-0.45655
0.452651
0.0337026
-0.0162358
-0.296147
0.27868
0.00407591
-0.0526213
0.0485454
-0.0458905
0.0434002
0.00249034
-0.02277
0.0331301
-0.336925
0.326565
-0.0389349
0.0399409
-0.459628
0.458622
-0.0387409
0.0364469
-0.541903
0.544197
-0.0337715
0.0311674
-0.634916
0.63752
-0.0280944
0.0251849
-0.748762
0.751671
-0.0219077
0.0189018
-0.888117
0.891123
-0.0155833
0.0124721
-1.05732
1.06043
-0.00893411
0.00551571
-1.2622
1.26562
-0.00154409
-0.00234614
-1.51094
1.51483
0.00619211
-0.0100295
-1.51189
1.51572
0.0132601
-0.0165276
-1.26444
1.2677
0.0193537
-0.0223537
-1.06029
1.06329
0.0250872
-0.0280905
-0.891766
0.89477
0.0307716
-0.0336146
-0.753608
0.756451
0.0360241
-0.0385052
-0.640976
0.643457
0.0406334
-0.0416138
-0.54883
0.549811
0.0403767
-0.0342328
-0.447353
0.441209
0.0235005
-0.0102571
-0.263438
0.250195
0.0025947
-0.0453762
0.0427815
-0.0413313
0.0395707
0.00176055
-0.0166987
0.0259233
-0.316736
0.307511
-0.0325033
0.0346255
-0.457038
0.454916
-0.0341904
0.0325091
-0.546185
0.547867
-0.0303176
0.0282118
-0.639838
0.641944
-0.0257674
0.0233561
-0.754328
0.75674
-0.0204808
0.0176752
-0.89403
0.896836
-0.0144207
0.0113353
-1.06349
1.06658
-0.00782856
0.00448954
-1.26895
1.27228
-0.000645016
-0.00309639
-1.51862
1.52236
0.006781
-0.0104535
-1.51944
1.52312
0.0135522
-0.0167141
-1.27095
1.27411
0.0194368
-0.0222848
-1.06631
1.06916
0.02474
-0.0272606
-0.897562
0.900082
0.0293753
-0.0315223
-0.758885
0.761032
0.0333787
-0.0353193
-0.645597
0.647538
0.0367592
-0.0368957
-0.55031
0.550447
0.0344179
-0.0273399
-0.434513
0.427435
0.0176123
-0.00743437
-0.238632
0.228454
0.00188821
-0.0405946
0.0387064
-0.0380563
0.0367353
0.00132103
-0.0127246
0.0206339
-0.298951
0.291042
-0.0273466
0.030242
-0.45238
0.449485
-0.0304251
0.0292882
-0.549313
0.55045
-0.0272809
0.0253497
-0.643996
0.645927
-0.0231316
0.0209753
-0.758995
0.761151
-0.018437
0.015931
-0.899426
0.901932
-0.0129633
0.010061
-1.06953
1.07243
-0.00667526
0.00341466
-1.27556
1.27882
0.000349527
-0.00398995
-1.52602
1.52966
0.00755923
-0.0111071
-1.5267
1.53025
0.0140664
-0.0170211
-1.27724
1.28019
0.0194709
-0.0219312
-1.07188
1.07434
0.023998
-0.0260891
-0.902342
0.904433
0.0278701
-0.0297104
-0.762996
0.764836
0.031326
-0.0330273
-0.64934
0.651042
0.0338121
-0.0332101
-0.550211
0.549609
0.0298046
-0.0224081
-0.420137
0.41274
0.0138509
-0.00577759
-0.219427
0.211354
0.00147646
-0.0370483
0.0355718
-0.0355839
0.0345698
0.00101416
-0.00991213
0.0165792
-0.283781
0.277114
-0.0230104
0.0263443
-0.446354
0.44302
-0.0270939
0.0263711
-0.551378
0.552101
-0.0245917
0.0227881
-0.647843
0.649647
-0.0206936
0.0186514
-0.763245
0.765287
-0.0162481
0.01389
-0.904291
0.906649
-0.0111167
0.00840037
-1.07517
1.07789
-0.00521008
0.00209834
-1.28196
1.28508
0.00153603
-0.00506538
-1.53322
1.53675
0.00850642
-0.0118719
-1.53368
1.53704
0.0146106
-0.0172687
-1.28305
1.28571
0.0194277
-0.0215761
-1.0767
1.07885
0.0233913
-0.02524
-0.906376
0.908225
0.0268163
-0.0284419
-0.766559
0.768185
0.0298538
-0.0312076
-0.6526
0.653954
0.0314936
-0.0301485
-0.548641
0.547296
0.0261101
-0.0187766
-0.405344
0.398011
0.011294
-0.00468387
-0.204078
0.197468
0.00120331
-0.0342458
0.0330425
-0.0336826
0.0328973
0.000785272
-0.00782023
0.0134019
-0.271022
0.26544
-0.0193309
0.0228463
-0.43959
0.436075
-0.0240595
0.0235765
-0.552745
0.553228
-0.0220567
0.0203569
-0.651456
0.653156
-0.01835
0.0163858
-0.767283
0.769247
-0.0140656
0.0117868
-0.908897
0.911175
-0.0091081
0.00649446
-1.08047
1.08309
-0.00343776
0.000462931
-1.28807
1.29104
0.0030061
-0.00636604
-1.54016
1.54352
0.00961747
-0.0127566
-1.54025
1.54339
0.015275
-0.0176814
-1.2883
1.29071
0.0196141
-0.021529
-1.08097
1.08288
0.0231415
-0.0247793
-0.909947
0.911585
0.0261705
-0.0275999
-0.769701
0.77113
0.0288093
-0.0297725
-0.655112
0.656075
0.0296794
-0.0276533
-0.545597
0.543571
0.0231953
-0.0161069
-0.390789
0.3837
0.00951076
-0.00393225
-0.19142
0.185842
0.00101528
-0.0319432
0.0309279
-0.0322116
0.0316048
0.000606819
-0.00619858
0.01085
-0.260355
0.255703
-0.01617
0.019668
-0.432574
0.429076
-0.0211884
0.0209219
-0.553649
0.553915
-0.0196246
0.0179783
-0.654886
0.656533
-0.0160191
0.0140957
-0.771179
0.773102
-0.0118241
0.00959424
-0.913347
0.915577
-0.00697346
0.00442081
-1.08559
1.08814
-0.00144515
-0.00143244
-1.29391
1.29679
0.00475871
-0.00794876
-1.54675
1.54994
0.0110063
-0.0139304
-1.54637
1.54929
0.0162525
-0.0184371
-1.29308
1.29526
0.0201621
-0.0218543
-1.08478
1.08648
0.0232716
-0.0247073
-0.913093
0.914529
0.0259272
-0.0271769
-0.772457
0.773706
0.0282422
-0.0287819
-0.656834
0.657374
0.0282902
-0.025682
-0.541245
0.538637
0.020953
-0.0141677
-0.376766
0.36998
0.00826275
-0.00341348
-0.180662
0.175813
0.000886246
-0.0299849
0.0290987
-0.0310802
0.030619
0.000461209
-0.00488552
0.00873112
-0.251485
0.247639
-0.0133963
0.0167266
-0.425678
0.422347
-0.0184121
0.0183244
-0.554149
0.554236
-0.0172092
0.0155907
-0.658241
0.65986
-0.0136436
0.0117243
-0.775005
0.776924
-0.00945898
0.00724171
-0.917705
0.919922
-0.00464556
0.00212704
-1.09059
1.09311
0.000795438
-0.00360376
-1.29957
1.30238
0.00682222
-0.00987484
-1.55301
1.55606
0.0127663
-0.015496
-1.55206
1.55479
0.0176305
-0.0195945
-1.29743
1.29939
0.0211111
-0.0225834
-1.08817
1.08964
0.023815
-0.0250651
-0.915836
0.917086
0.0261313
-0.027218
-0.774856
0.775943
0.0280714
-0.0282401
-0.657713
0.657882
0.0273187
-0.0242027
-0.535768
0.532652
0.0192918
-0.0127934
-0.363351
0.356853
0.00740423
-0.00306335
-0.171246
0.166905
0.000800801
-0.0282621
0.0274613
-0.0302286
0.0298917
0.000336968
-0.00377748
0.00691118
-0.244178
0.241044
-0.0109079
0.0139584
-0.419182
0.416131
-0.0156799
0.0157317
-0.554323
0.554271
-0.0146862
0.0131285
-0.661534
0.663092
-0.0111632
0.00921345
-0.778832
0.780782
-0.0069135
0.00467116
-0.922042
0.924284
-0.00205929
-0.000459533
-1.09553
1.09805
0.00336287
-0.00613124
-1.3051
1.30787
0.00927399
-0.0122184
-1.55901
1.56195
0.0149675
-0.0175183
-1.55735
1.5599
0.0194715
-0.0212173
-1.30135
1.30309
0.0225277
-0.0237846
-1.09114
1.0924
0.0248363
-0.0259075
-0.918204
0.919276
0.0268276
-0.0277542
-0.776919
0.777845
0.0283449
-0.0282098
-0.657898
0.657762
0.0268077
-0.023214
-0.529298
0.525704
0.0181547
-0.011879
-0.350485
0.344209
0.00684912
-0.00284405
-0.162757
0.158752
0.000749575
-0.0266925
0.0259429
-0.0296187
0.0293937
0.000225012
-0.00279793
0.00528485
-0.238262
0.235775
-0.00861092
0.0112968
-0.413296
0.41061
-0.0129379
0.0130533
-0.554269
0.554154
-0.0120371
0.0105073
-0.664733
0.666262
-0.00849784
0.006486
-0.782725
0.784736
-0.0041131
0.00180847
-0.926433
0.928737
0.000862009
-0.00342081
-1.10048
1.10303
0.00634748
-0.00911181
-1.31056
1.31332
0.0122132
-0.0150756
-1.56479
1.56766
0.0177023
-0.0200892
-1.56229
1.56467
0.0218701
-0.0234024
-1.30485
1.30639
0.0245062
-0.025545
-1.09371
1.09474
0.0264113
-0.0272928
-0.920207
0.921089
0.0280519
-0.0288103
-0.778601
0.779359
0.0291152
-0.0286307
-0.657495
0.657011
0.02676
-0.0227081
-0.521903
0.517852
0.0174938
-0.0113485
-0.338023
0.331878
0.00653756
-0.00272846
-0.154867
0.151058
0.000725365
-0.0252114
0.0244861
-0.0292298
0.0291121
0.000117623
-0.00188252
0.00375815
-0.23362
0.231744
-0.00640595
0.00865484
-0.408182
0.405933
-0.0101059
0.0102045
-0.554148
0.55405
-0.00918097
0.00763727
-0.667913
0.669457
-0.0055522
0.00344478
-0.786743
0.788851
-0.000959144
-0.00144556
-0.930948
0.933353
0.00421748
-0.00685608
-1.10551
1.10815
0.00984933
-0.0126467
-1.31602
1.31882
0.0157422
-0.0185487
-1.57042
1.57323
0.0210714
-0.0233066
-1.56688
1.56912
0.0249209
-0.0262395
-1.30795
1.30927
0.0271368
-0.0279532
-1.09585
1.09667
0.0286252
-0.0293082
-0.921825
0.922508
0.0299104
-0.0305196
-0.779936
0.780545
0.0304586
-0.0295568
-0.656351
0.65545
0.0271923
-0.0226719
-0.513601
0.509081
0.0172646
-0.0111433
-0.325774
0.319653
0.00642632
-0.00269736
-0.14731
0.143581
0.000723171
-0.0237677
0.0230445
-0.0290561
0.029047
9.16789e-06
-0.000981882
0.0022573
-0.230193
0.228917
-0.00420969
0.00595571
-0.403981
0.402235
-0.00711237
0.00711107
-0.554129
0.554131
-0.00603057
0.00443069
-0.671161
0.672761
-0.00222697
-1.30225e-05
-0.790953
0.793193
0.00265516
-0.00520177
-0.935665
0.938212
0.00812224
-0.0108839
-1.11071
1.11348
0.0139901
-0.0168603
-1.32155
1.32442
0.0199891
-0.0227694
-1.57594
1.57872
0.0252081
-0.0273024
-1.57116
1.57325
0.0287532
-0.0298627
-1.31064
1.31175
0.0305531
-0.0311448
-1.09756
1.09815
0.0316158
-0.032086
-0.923039
0.923509
0.0325001
-0.0328354
-0.780881
0.781217
0.03247
-0.031068
-0.654365
0.652963
0.0281675
-0.0231319
-0.504351
0.499315
0.0174592
-0.0112385
-0.313516
0.307295
0.00649476
-0.00274129
-0.139861
0.136108
0.00074049
-0.0223187
0.0215782
-0.0291005
0.0292047
-0.00010429
-4.52078e-05
0.000712308
-0.227966
0.227299
-0.0019387
0.00311511
-0.400823
0.399647
-0.00387536
0.0036883
-0.55439
0.554577
-0.00249064
0.000774588
-0.674572
0.676288
0.00158843
-0.00400589
-0.795428
0.797845
0.00685573
-0.00959203
-0.940667
0.943403
0.0127141
-0.0156467
-1.11617
1.1191
0.0189162
-0.0219018
-1.32725
1.33023
0.025104
-0.0278875
-1.58142
1.5842
0.0302626
-0.032226
-1.57514
1.5771
0.0335173
-0.0344168
-1.31291
1.3138
0.0348949
-0.0352499
-1.09882
1.09918
0.0355104
-0.0357596
-0.923818
0.924067
0.0359638
-0.0359545
-0.781249
0.78124
0.0352376
-0.0332505
-0.651359
0.649372
0.0297433
-0.0241115
-0.494045
0.488413
0.018073
-0.0116162
-0.300996
0.294539
0.00672717
-0.00285221
-0.132316
0.128441
0.000774859
-0.0208265
0.0200517
-0.0293806
0.0296218
-0.000241158
0.000925676
-0.000932239
-0.226973
0.22698
0.00049285
3.77611e-05
-0.398844
0.398313
-0.000297806
-0.000168071
-0.555118
0.555584
0.00155395
-0.00344773
-0.678267
0.680161
0.00603118
-0.00867876
-0.800255
0.802902
0.0117952
-0.0147763
-0.946052
0.949033
0.0181607
-0.0213191
-1.12198
1.12514
0.0248084
-0.0279554
-1.33318
1.33633
0.0312726
-0.0340851
-1.5869
1.58971
0.0364079
-0.0382489
-1.57884
1.58068
0.0393889
-0.0400753
-1.31473
1.31541
0.0403264
-0.040424
-1.0996
1.0997
0.0404546
-0.0404666
-0.924132
0.924144
0.0404796
-0.0400181
-0.780921
0.780459
0.0388647
-0.0361924
-0.647175
0.644503
0.0319799
-0.025635
-0.482502
0.476157
0.0191037
-0.0122611
-0.287932
0.281089
0.00710923
-0.00302215
-0.124481
0.120394
0.000823623
-0.0192583
0.0184347
-0.0299334
0.0303214
-0.000387987
0.00203112
-0.00266691
-0.227303
0.227939
0.00310271
-0.00334341
-0.398188
0.398429
0.00373983
-0.0045922
-0.556543
0.557395
0.0062329
-0.00837628
-0.682377
0.684521
0.0112563
-0.0142017
-0.805539
0.808484
0.0176563
-0.0209467
-0.951933
0.955223
0.0246636
-0.0281087
-1.12826
1.1317
0.0318797
-0.035237
-1.33945
1.3428
0.0387117
-0.0415779
-1.59244
1.59531
0.0438535
-0.0455595
-1.58224
1.58395
0.0465352
-0.0470136
-1.31609
1.31657
0.0470312
-0.0468544
-1.09985
1.09968
0.0466399
-0.0464027
-0.923931
0.923694
0.0461769
-0.045202
-0.779713
0.778738
0.0435054
-0.0400068
-0.641613
0.638115
0.0349482
-0.0277292
-0.46947
0.462251
0.0205495
-0.0131582
-0.274019
0.266628
0.00762589
-0.00324226
-0.11618
0.111797
0.000883742
-0.0175866
0.0167028
-0.0307896
0.031355
-0.000565346
0.00331387
-0.00476186
-0.229014
0.230462
0.0061213
-0.00717958
-0.399068
0.400126
0.00833245
-0.00969752
-0.558894
0.560259
0.011731
-0.0142078
-0.687044
0.689521
0.0174736
-0.020795
-0.811413
0.814734
0.024672
-0.028348
-0.958443
0.962119
0.0324775
-0.0362771
-1.13512
1.13892
0.0403945
-0.0440099
-1.34614
1.34976
0.0476787
-0.0506162
-1.59809
1.60103
0.0528476
-0.0544071
-1.58534
1.5869
0.0552049
-0.0554585
-1.31697
1.31722
0.0552259
-0.0547556
-1.09954
1.09907
0.0542837
-0.0537665
-0.923183
0.922665
0.0531463
-0.0516859
-0.777568
0.776108
0.0492834
-0.0447883
-0.634382
0.629887
0.0387036
-0.0304054
-0.454608
0.44631
0.0223944
-0.0142805
-0.258927
0.250813
0.00825358
-0.00349924
-0.107248
0.102494
0.0009507
-0.0157907
0.01484
-0.0320152
0.032814
-0.000798779
0.00488444
-0.00724616
-0.232363
0.234725
0.00968191
-0.0116725
-0.401682
0.403672
0.0137158
-0.0157221
-0.562415
0.564421
0.0182858
-0.0211943
-0.692442
0.695351
0.0249621
-0.0287494
-0.818041
0.821828
0.0331475
-0.0372969
-0.96574
0.969889
0.0419292
-0.046156
-1.14271
1.14694
0.0506848
-0.0546003
-1.35336
1.35728
0.0584878
-0.0614971
-1.60388
1.60689
0.0636668
-0.0650541
-1.58811
1.5895
0.0656417
-0.0656345
-1.31728
1.31727
0.0651399
-0.0643502
-1.09862
1.09783
0.0636054
-0.0628204
-0.921832
0.921047
0.0616936
-0.0596368
-0.7745
0.772443
0.0563691
-0.0506351
-0.625104
0.61937
0.0432807
-0.0336434
-0.437481
0.427844
0.0245911
-0.0155765
-0.242303
0.233289
0.00895217
-0.00377194
-0.0975449
0.0923647
0.00101767
-0.01386
0.0128423
-0.0337068
0.0348096
-0.00110279
0.00685559
-0.0103191
-0.237567
0.241031
0.0140308
-0.0171101
-0.406334
0.409413
0.0201712
-0.0229424
-0.567402
0.570173
0.0261906
-0.0296624
-0.698794
0.702266
0.0340761
-0.0384506
-0.825609
0.829984
0.0434909
-0.0482135
-0.974002
0.978725
0.053444
-0.0581672
-1.15116
1.15589
0.0631591
-0.067396
-1.36118
1.36541
0.071495
-0.0745448
-1.60978
1.61283
0.0766091
-0.0777799
-1.59049
1.59166
0.0781231
-0.0778146
-1.31692
1.31661
0.0770327
-0.0758884
-1.09703
1.09588
0.0748632
-0.0737803
-0.919899
0.918816
0.0720876
-0.0692688
-0.770292
0.767473
0.0648894
-0.0575787
-0.613276
0.605965
0.0486384
-0.0373503
-0.417551
0.406263
0.0270314
-0.0169512
-0.223798
0.213718
0.00965511
-0.00402794
-0.0869748
0.0813477
0.00107482
-0.0117987
0.0107239
-0.0359973
0.0375182
-0.00152093
0.00944711
-0.014281
-0.244982
0.249816
0.0195064
-0.02384
-0.41338
0.417713
0.0280761
-0.0317674
-0.574182
0.577873
0.0358834
-0.0401063
-0.706378
0.710601
0.0453371
-0.0504456
-0.83436
0.839468
0.056269
-0.0616719
-0.983435
0.988837
0.0675894
-0.0728581
-1.16062
1.16588
0.0783281
-0.0828638
-1.3696
1.37414
0.0871127
-0.0901179
-1.61571
1.61871
0.0919851
-0.0928473
-1.59234
1.5932
0.0928864
-0.0922755
-1.31582
1.31521
0.091123
-0.0896121
-1.09471
1.0932
0.0883024
-0.0867377
-0.917235
0.91567
0.0845305
-0.0806665
-0.764544
0.76068
0.0748612
-0.0655416
-0.598197
0.588878
0.0546205
-0.0413243
-0.394179
0.380883
0.0295183
-0.0182512
-0.203099
0.191832
0.010263
-0.00422222
-0.0755204
0.0694796
0.00110942
-0.00963235
0.00852293
-0.039095
0.041221
-0.00212594
0.0130188
-0.0196063
-0.25511
0.261698
0.0266536
-0.0324494
-0.423307
0.429103
0.0380561
-0.0428701
-0.583143
0.587957
0.0480611
-0.0532396
-0.715582
0.72076
0.0595373
-0.0655553
-0.844582
0.8506
0.0723011
-0.0784667
-0.994245
1.00041
0.085113
-0.0909175
-1.17113
1.17694
0.0968028
-0.101539
-1.37857
1.38331
0.105793
-0.1086
-1.62146
1.62427
0.110118
-0.11053
-1.59348
1.59389
0.110176
-0.109172
-1.31392
1.31292
0.107634
-0.105735
-1.09168
1.08978
0.104128
-0.102014
-0.913472
0.911358
0.0991713
-0.0938924
-0.756658
0.751379
0.0861834
-0.0742697
-0.578962
0.567048
0.060885
-0.0452035
-0.366658
0.350976
0.031737
-0.0192549
-0.180009
0.167527
0.0106435
-0.00429933
-0.0632843
0.0569401
0.00110689
-0.00741259
0.0063057
-0.0433389
0.0463978
-0.0030589
0.0182071
-0.0270927
-0.268702
0.277588
0.0363697
-0.0439271
-0.4368
0.444357
0.0511725
-0.0573319
-0.594793
0.600952
0.0639448
-0.070452
-0.726833
0.73334
0.0780057
-0.0850375
-0.856594
0.863626
0.0927662
-0.0996892
-1.00657
1.01349
0.106984
-0.113188
-1.18265
1.18885
0.119283
-0.123996
-1.38781
1.39252
0.127987
-0.130346
-1.62669
1.62905
0.131295
-0.131071
-1.59359
1.59336
0.130181
-0.128665
-1.31104
1.30952
0.126743
-0.124429
-1.08783
1.08552
0.122388
-0.119756
-0.908439
0.905807
0.115911
-0.108703
-0.745826
0.738619
0.0984603
-0.0832245
-0.554363
0.539127
0.0668311
-0.0484295
-0.334277
0.315876
0.0332478
-0.0196856
-0.154553
0.140991
0.0106461
-0.00420242
-0.0505331
0.0440894
0.00105379
-0.0052191
0.00416531
-0.0493213
0.053956
-0.00463476
0.0262415
-0.038227
-0.286942
0.298928
0.050379
-0.0602913
-0.454958
0.464871
0.0695853
-0.0773693
-0.609705
0.617489
0.0857182
-0.0937628
-0.740639
0.748683
0.102679
-0.110704
-0.870606
0.878631
0.119275
-0.126732
-1.02031
1.02776
0.134347
-0.140603
-1.19479
1.20104
0.146492
-0.150797
-1.3968
1.40111
0.154114
-0.155676
-1.63083
1.63239
0.15576
-0.154654
-1.59228
1.59118
0.153067
-0.150937
-1.30694
1.30481
0.148579
-0.14577
-1.08306
1.08025
0.143277
-0.139926
-0.901998
0.898647
0.134595
-0.12459
-0.730864
0.720859
0.110915
-0.0914817
-0.522888
0.503455
0.0715461
-0.0502614
-0.296499
0.275215
0.0335354
-0.0192646
-0.127137
0.112866
0.0101392
-0.00388847
-0.0377244
0.0314737
0.000940007
-0.00315381
0.0022138
-0.0581683
0.0660778
-0.0079095
0.0403119
-0.0568708
-0.312032
0.32859
0.0730716
-0.0861101
-0.479384
0.492422
0.0975406
-0.106902
-0.628404
0.637765
0.11697
-0.126436
-0.757226
0.766692
0.136432
-0.144982
-0.88637
0.89492
0.153758
-0.161116
-1.03483
1.04219
0.168369
-0.174049
-1.20671
1.21239
0.179097
-0.182414
-1.40467
1.40799
0.184501
-0.184797
-1.63313
1.63343
0.183633
-0.18136
-1.58906
1.58679
0.178877
-0.176012
-1.30136
1.2985
0.173128
-0.169751
-1.07717
1.07379
0.166652
-0.162131
-0.893505
0.888983
0.154519
-0.140434
-0.709877
0.695793
0.122086
-0.0975871
-0.482691
0.458192
0.0738875
-0.0499925
-0.253279
0.229384
0.0322335
-0.0178735
-0.0987131
0.0843531
0.00909346
-0.00335377
-0.0254849
0.0197452
0.00076109
-0.00132631
0.000565225
-0.0734199
0.0778899
-0.00446995
0.0309511
-0.0454818
-0.348004
0.362535
0.0600452
-0.0720683
-0.511369
0.523392
0.0830753
-0.0935833
-0.650729
0.661237
0.105608
-0.116678
-0.775475
0.786545
0.129053
-0.140145
-0.902471
0.913563
0.152109
-0.162907
-1.04867
1.05947
0.174446
-0.184603
-1.21706
1.22722
0.195102
-0.203923
-1.41023
1.41906
0.212463
-0.218913
-1.63263
1.63908
0.223305
-0.226346
-1.58331
1.58635
0.228072
-0.229366
-1.29399
1.29529
0.230138
-0.229636
-1.06972
1.06922
0.228144
-0.222789
-0.88152
0.876165
0.210734
-0.187686
-0.680104
0.657056
0.157979
-0.120699
-0.432211
0.39493
0.0873906
-0.0560904
-0.205551
0.17425
0.0345506
-0.0182876
-0.070855
0.054592
0.00885184
-0.0030464
-0.0144956
0.00869015
0.000612299
0.000208597
-0.000820896
-0.0856967
0.0838152
0.00188156
0.00874303
-0.0183559
-0.380004
0.389617
0.0295612
-0.0383911
-0.54036
0.54919
0.04743
-0.0563123
-0.674504
0.683386
0.0673016
-0.0776477
-0.797046
0.807392
0.0888266
-0.0991032
-0.924084
0.934361
0.110179
-0.119845
-1.07004
1.0797
0.130395
-0.139348
-1.23724
1.2462
0.148636
-0.156267
-1.42769
1.43532
0.163358
-0.168673
-1.64504
1.65035
0.172121
-0.174307
-1.58885
1.59103
0.175105
-0.175572
-1.2949
1.29537
0.175736
-0.174904
-1.06688
1.06605
0.172105
-0.164387
-0.865321
0.857603
0.150386
-0.127432
-0.629597
0.606643
0.101476
-0.0724294
-0.355378
0.326331
0.049408
-0.0300468
-0.144216
0.124854
0.0176876
-0.00895854
-0.0396771
0.030948
0.0041252
-0.00133331
-0.00320642
0.000414534
0.000223883
0.00161598
-0.00183986
-0.0874512
0.0844764
0.00297478
-0.000558108
-0.00512837
-0.402021
0.407707
0.0126878
-0.0193365
-0.562186
0.568835
0.0262106
-0.0338808
-0.694845
0.702516
0.043477
-0.0524975
-0.816654
0.825674
0.0624665
-0.0714862
-0.943827
0.952847
0.0809887
-0.089704
-1.08924
1.09796
0.09904
-0.107107
-1.25479
1.26286
0.115088
-0.121569
-1.44243
1.44891
0.127769
-0.13216
-1.65527
1.65966
0.134778
-0.136227
-1.59276
1.59421
0.136472
-0.136489
-1.29456
1.29457
0.135924
-0.134589
-1.06225
1.06092
0.130987
-0.122062
-0.845622
0.836697
0.107938
-0.0869619
-0.580437
0.559461
0.065729
-0.0443925
-0.295547
0.274211
0.0293148
-0.0175463
-0.105898
0.0941292
0.0102847
-0.0052486
-0.022446
0.0174099
0.00244919
-0.000806794
0.00255028
-0.00419268
0.000143503
0.00226377
-0.00240727
-0.0862627
0.0833816
0.0028811
-0.00469312
0.00172293
-0.416961
0.419931
0.0032867
-0.00840004
-0.578737
0.58385
0.0142589
-0.0207212
-0.711645
0.718107
0.0289771
-0.0367458
-0.833901
0.841669
0.0453029
-0.053082
-0.961294
0.969073
0.0616873
-0.06917
-1.10623
1.11371
0.0773981
-0.0840754
-1.27054
1.27722
0.0910708
-0.0967126
-1.45524
1.46088
0.101878
-0.105231
-1.66382
1.66717
0.107343
-0.108418
-1.59526
1.59633
0.108355
-0.107602
-1.29357
1.29282
0.106588
-0.104702
-1.05632
1.05443
0.100561
-0.0917162
-0.823836
0.814991
0.0784676
-0.0607827
-0.535934
0.518249
0.0444527
-0.0295371
-0.251882
0.236966
0.01954
-0.0119485
-0.0817758
0.0741843
0.00720313
-0.00382
-0.0119418
0.00855863
0.00186706
-0.000652928
0.00613098
-0.00734512
0.000129466
0.00268203
-0.00281149
-0.0847317
0.0821168
0.00261496
-0.00628916
0.0050388
-0.427108
0.428358
-0.00124366
-0.00262892
-0.592081
0.595953
0.00734928
-0.0131571
-0.725794
0.731602
0.020089
-0.0268974
-0.848611
0.85542
0.0343082
-0.04107
-0.976363
0.983125
0.0484717
-0.0551057
-1.12104
1.12768
0.0621203
-0.0681618
-1.28374
1.28978
0.0741911
-0.0789971
-1.46617
1.47097
0.0833009
-0.0859495
-1.67047
1.67312
0.087491
-0.0879091
-1.59681
1.59723
0.0875286
-0.0865683
-1.29149
1.29053
0.0851623
-0.0826395
-1.04954
1.04702
0.0784548
-0.0700954
-0.802373
0.794014
0.0586346
-0.044245
-0.498459
0.48407
0.032016
-0.0214882
-0.220753
0.210225
0.0145295
-0.00925014
-0.0657398
0.0604605
0.00583974
-0.00325112
-0.00460417
0.00201555
0.00167271
-0.000617024
0.00884882
-0.00990451
0.000137929
0.00302869
-0.00316662
-0.0831874
0.0808859
0.00230149
-0.00658263
0.00597284
-0.434108
0.434718
-0.00366239
0.000511922
-0.602418
0.605569
0.00400038
-0.0089392
-0.737763
0.742702
0.0148563
-0.0207216
-0.861315
0.86718
0.0272421
-0.0332231
-0.989485
0.995466
0.0398971
-0.0456538
-1.13398
1.13974
0.0518504
-0.0571636
-1.29548
1.30079
0.0623549
-0.0664146
-1.47546
1.47952
0.0699071
-0.0722577
-1.6757
1.67805
0.0732021
-0.0733168
-1.59724
1.59735
0.0726009
-0.0713092
-1.28903
1.28773
0.0698118
-0.0668046
-1.0422
1.03919
0.0625521
-0.0550806
-0.78216
0.774688
0.0453554
-0.0338787
-0.467756
0.456279
0.024709
-0.0170633
-0.198321
0.190675
0.0120772
-0.00811916
-0.0542158
0.0502578
0.00537775
-0.00314951
0.001149
-0.00337724
0.00169212
-0.000660871
0.0111931
-0.0122243
0.000158615
0.00334593
-0.00350454
-0.0818676
0.0800017
0.00186585
-0.00604551
0.00592848
-0.439196
0.439313
-0.00407668
0.00172189
-0.611338
0.613692
0.0023921
-0.00680548
-0.748046
0.752459
0.0123088
-0.0172981
-0.872557
0.877546
0.0229397
-0.0281511
-1.00136
1.00657
0.0343102
-0.0393935
-1.14547
1.15055
0.044747
-0.0495233
-1.30585
1.31062
0.0544372
-0.0578801
-1.48351
1.48696
0.0608561
-0.0625334
-1.67995
1.68163
0.0632833
-0.0627155
-1.59722
1.59665
0.0618673
-0.0604563
-1.28599
1.28458
0.0585743
-0.0555539
-1.03453
1.03151
0.0513309
-0.0444844
-0.763726
0.756879
0.0365305
-0.0273656
-0.442809
0.433644
0.0204092
-0.0148347
-0.181712
0.176138
0.0110394
-0.00785474
-0.0453452
0.0421605
0.00548336
-0.00337554
0.00616404
-0.00827186
0.00189505
-0.000776683
0.0134691
-0.0145874
0.000201025
0.003675
-0.00387603
-0.0809628
0.0794429
0.00151983
-0.00523376
0.00540688
-0.443009
0.442836
-0.00380737
0.0016641
-0.61894
0.621083
0.00211069
-0.00600952
-0.757122
0.761021
0.0106467
-0.0153248
-0.882414
0.887092
0.0204025
-0.025579
-1.01151
1.01669
0.0307466
-0.0353854
-1.15566
1.1603
0.0405481
-0.0447323
-1.31517
1.31935
0.0486983
-0.0520758
-1.49018
1.49356
0.0546032
-0.0559116
-1.68327
1.68458
0.0561198
-0.055414
-1.59619
1.59548
0.0542713
-0.0525377
-1.28257
1.28083
0.0504826
-0.0472519
-1.02702
1.02379
0.0431277
-0.0371478
-0.747062
0.741082
0.0302708
-0.02308
-0.422595
0.415404
0.0178576
-0.0136205
-0.169255
0.165018
0.0106497
-0.0080088
-0.0380665
0.0354257
0.00583988
-0.00376811
0.0108884
-0.0129602
0.00221116
-0.000947937
0.0158944
-0.0171576
0.000262357
0.00407059
-0.00433295
-0.0805386
0.0792163
0.00132234
-0.00413979
0.00419134
-0.446152
0.4461
-0.00291183
0.000888917
-0.625711
0.627734
0.00250261
-0.00617979
-0.765374
0.769052
0.0105033
-0.0146302
-0.891498
0.895625
0.0196642
-0.0238406
-1.02119
1.02537
0.0287505
-0.0329675
-1.16501
1.16923
0.0376923
-0.0417257
-1.32339
1.32743
0.0455424
-0.0481978
-1.49654
1.4992
0.0504217
-0.0514182
-1.68564
1.68663
0.0515209
-0.0503075
-1.59448
1.59326
0.0488912
-0.0468161
-1.27892
1.27685
0.0445252
-0.0410135
-1.01926
1.01574
0.0370125
-0.0314581
-0.732145
0.726591
0.0256752
-0.019923
-0.406371
0.400619
0.0158818
-0.0127238
-0.159597
0.156439
0.0103465
-0.00809164
-0.0318872
0.0296323
0.00611775
-0.0041092
0.0154579
-0.0174664
0.0024981
-0.00112926
0.0185372
-0.019906
0.000326834
0.00456153
-0.00488837
-0.0803497
0.0793594
0.000990296
-0.00311832
0.00277747
-0.449129
0.44947
-0.00176193
-0.00023381
-0.631524
0.63352
0.0032024
-0.00665948
-0.772871
0.776328
0.0106867
-0.0148251
-0.899558
0.903696
0.0190674
-0.0232532
-1.02969
1.03387
0.0279164
-0.0316897
-1.1738
1.17757
0.0362194
-0.0398849
-1.33113
1.33479
0.0433241
-0.0460489
-1.50211
1.50483
0.0481317
-0.0486947
-1.68745
1.68802
0.0482296
-0.046892
-1.592
1.59066
0.0452735
-0.0427663
-1.27433
1.27182
0.040042
-0.0364593
-1.01127
1.00769
0.0320142
-0.0269657
-0.718345
0.713297
0.0219728
-0.0172363
-0.393215
0.388479
0.014114
-0.0115858
-0.152009
0.149481
0.00966247
-0.007752
-0.0265837
0.0246733
0.00602293
-0.00417966
0.0197951
-0.0216384
0.00263465
-0.00124344
0.0213248
-0.022716
0.000381423
0.00514627
-0.00552769
-0.0805446
0.0797309
0.00081372
-0.00223335
0.00199587
-0.452125
0.452363
-0.000528519
-0.00123657
-0.63723
0.638995
0.00430976
-0.00755973
-0.779664
0.782914
0.0113265
-0.0149458
-0.907445
0.911065
0.0191885
-0.0229093
-1.03799
1.04171
0.0273359
-0.0313673
-1.18172
1.18575
0.0352596
-0.0389736
-1.33838
1.34209
0.0424609
-0.0448309
-1.50727
1.50964
0.0466841
-0.0473451
-1.68856
1.68922
0.0465459
-0.0449649
-1.58888
1.5873
0.0427626
-0.0398989
-1.26902
1.26616
0.0369047
-0.0328223
-1.00292
0.998841
0.0283422
-0.0233425
-0.705575
0.700576
0.018838
-0.014734
-0.382037
0.377933
0.012089
-0.0100268
-0.145835
0.143773
0.00842128
-0.00686273
-0.0220727
0.0205142
0.00544466
-0.00389006
0.0236804
-0.025235
0.00252335
-0.00123973
0.0240569
-0.0253405
0.000399376
0.00579576
-0.00619514
-0.0810295
0.0803912
0.000638318
-0.00120644
0.000833658
-0.455135
0.455508
0.000426608
-0.00244576
-0.642382
0.644402
0.00539786
-0.00842827
-0.786049
0.78908
0.0121973
-0.0155785
-0.914617
0.917998
0.0195497
-0.0232785
-1.04586
1.04959
0.0274562
-0.0312805
-1.18954
1.19337
0.0351767
-0.0386682
-1.3456
1.34909
0.042
-0.0447485
-1.51213
1.51487
0.0464961
-0.0467993
-1.68955
1.68985
0.0459356
-0.0438006
-1.58526
1.58312
0.0413684
-0.0382198
-1.26287
1.25972
0.0345666
-0.0300592
-0.993824
0.989316
0.0253089
-0.0201511
-0.693301
0.688143
0.015966
-0.0122224
-0.372361
0.368617
0.00991492
-0.00809227
-0.14061
0.138787
0.00678094
-0.00556059
-0.0183201
0.0170997
0.0044841
-0.00329047
0.026913
-0.0281066
0.00219567
-0.0011277
0.0264804
-0.0275484
0.000392848
0.00643845
-0.00683129
-0.0817505
0.0812362
0.000514301
-0.000359952
-9.79452e-05
-0.458212
0.45867
0.00139394
-0.00341944