/*--------------------------------*- C++ -*----------------------------------*\
  =========                 |
  \\      /  F ield         | OpenFOAM: The Open Source CFD Toolbox
   \\    /   O peration     | Website:  https://openfoam.org
    \\  /    A nd           | Version:  6
     \\/     M anipulation  |
\*---------------------------------------------------------------------------*/
FoamFile
{
    version     2.0;
    format      ascii;
    class       surfaceScalarField;
    location    "74";
    object      phi;
}
// * * * * * * * * * * * * * * * * * * * * * * * * * * * * * * * * * * * * * //

dimensions      [0 3 -1 0 0 0 0];

internalField   nonuniform List<scalar> 
1300
(
3.75095
5.62643
-3.33192
3.75095
-7.76382
5.62643
-4.27467
4.27467
-0.379731
0.379731
1.87649
1.87446
-2.42859
2.42859
-1.76774
1.76774
-2.52296
2.52296
-5.24809
5.24809
-5.06972
5.06972
4.69931
-4.69931
-6.33846
6.33846
-0.959856
0.959856
-3.5761
3.5761
3.17245
-3.17245
-1.88306
1.88306
0.0645793
-0.0645793
-0.554081
4.30503
3.19687
3.19687
-1.98319
1.98319
-4.87486
4.87486
6.22254
-6.22254
5.24719
-5.24719
-1.91527
-2.49932
1.79926
-11.4865
-5.96456
-5.96456
-8.44099
8.44099
-2.81456
2.81187
2.94728
-2.94728
-1.72509
1.72509
-4.29162
0.0169513
-4.29162
4.24494
0.0297257
4.24494
-0.490035
0.110304
-0.490035
3.95146
-3.95146
0.287202
0.0925283
0.287202
3.06731
-3.06731
-1.87686
3.75335
1.8741
-1.8721
6.17713
-1.87886
3.75332
-6.07938
6.07938
-2.67525
0.246653
-2.67525
2.19721
0.231389
2.19721
-6.89021
6.89021
-1.7967
0.0289667
-1.7967
1.76609
0.00164981
1.76609
2.88846
-2.88846
-2.6286
0.105641
-2.6286
2.38642
0.136544
2.38642
0.353363
5.27307
-5.97979
8.79166
-5.27307
0.0249732
5.2103
0.0377921
5.2103
-5.10526
0.0355368
-5.10526
5.01284
0.0568832
5.01284
4.78823
-0.0889237
4.78823
-4.81878
0.119474
-4.81878
-3.36079
-4.07483
-6.49765
0.159188
-6.49765
-1.02598
0.066122
-1.02598
0.85774
0.102116
0.85774
-3.7242
3.7242
-3.933
0.356896
-3.933
3.12742
0.0450286
3.12742
1.86812
1.88283
5.61907
-5.61907
2.44663
-1.81979
-0.0632678
-1.81979
-1.9605
-3.28669
1.9605
-0.07744
-0.152889
0.217468
-0.152889
3.15712
0.0397486
3.15712
2.23771
0.14871
-2.23771
0.254511
3.30164
-3.30164
1.31914
0.66405
1.31914
-5.55833
5.55833
4.96165
0.0511837
-4.96165
0.0867977
6.15709
0.0654496
6.15709
-6.20778
-0.0147551
-6.20778
2.48658
-4.9859
-2.65569
6.15199
0.186474
-6.15199
0.18743
2.91887
0.0284083
2.91887
-2.91895
2.91895
-2.98425
0.0369697
-2.98425
-2.14733
0.422238
-2.14733
1.41107
0.314021
1.41107
-4.20734
-0.0842728
-4.20734
-4.09082
0.157821
4.09082
0.15412
1.11879
-1.11879
-0.603713
0.113678
-0.603713
-4.05608
-0.151263
4.05608
-0.104622
-3.89109
-0.0603648
-3.89109
-3.02193
0.0376772
3.02193
0.0453778
3.11212
0.0450071
-3.11212
0.0448111
-1.87099
3.75382
-1.87996
3.75406
-5.69611
-0.383268
-5.69611
6.36073
-0.281344
6.36073
3.10065
0.475449
-3.10065
0.425407
2.01326
0.18395
2.01326
-6.86349
-0.0267167
-6.86349
6.89617
-0.00596657
6.89617
1.88095
0.132302
-1.88095
0.0842513
1.77923
-0.013145
1.77923
2.91619
-0.0277233
2.91619
-2.88206
-0.00640736
-2.88206
2.79047
-2.79047
2.71672
0.0737484
-2.71672
0.0881172
-11.124
11.1092
-0.0363358
-11.0876
5.17397
5.17397
4.24191
0.546326
4.24191
-5.01452
0.195738
-5.01452
2.66624
-5.32193
3.10441
-6.4652
4.67407
-16.1606
4.29313
-8.36796
6.74593
-6.74593
6.62849
0.117439
-6.62849
0.130843
-1.13791
0.11193
-1.13791
-3.12715
-0.597055
-3.12715
4.36689
-0.642692
4.36689
-3.02763
3.02763
-3.07637
0.0487386
3.07637
0.0510505
1.78979
-0.0105557
-1.78979
-0.0300037
0.198506
0.0886959
-0.198506
0.0456177
3.52421
-0.222569
3.52421
-3.09728
-0.204358
-3.09728
-1.23267
0.0947596
1.23267
0.0864761
-5.80773
0.249399
-5.80773
-11.1817
0.0940434
-11.1439
-6.11374
-6.11374
2.32725
11.1189
-2.89728
0.0152263
2.89728
0.0215906
2.97509
0.0525437
-2.97509
0.0561399
-2.8575
0.0670335
2.8575
0.061446
-2.51494
0.367616
-2.51494
-1.02649
1.02649
-1.17414
0.147644
1.17414
0.23693
1.41911
-0.300321
1.41911
0.7385
0.11924
-0.7385
0.134787
-3.8367
-0.0543992
-3.8367
6.5979
-0.237175
6.5979
-2.96797
-0.129311
2.96797
-0.0517837
-0.0349669
11.1442
-5.139
0.033742
5.139
-11.2096
11.2434
-3.22013
0.705187
3.22013
1.02178
5.2836
0.274733
-5.2836
0.269072
6.83643
0.059743
-6.83643
0.0904988
-2.63631
-0.490834
-2.63631
-5.09562
-0.600491
5.09562
-0.728729
-11.482
-0.20314
11.6852
-11.4251
6.01087
0.146219
-6.01087
11.3896
-0.996186
-0.122607
0.996186
0.0303081
1.75848
-0.33937
1.75848
3.74157
-0.217364
-3.74157
-0.095123
-6.75461
-0.108883
6.75461
-0.156707
-2.18717
-0.449144
2.18717
-0.428686
-4.26739
4.30714
1.90974
-2.33208
-2.65382
-5.61877
1.85526
1.89857
4.30188
-10.156
-6.00461
-9.96857
7.21432
-6.94525
-9.32574
9.23682
7.93345
-7.99382
-5.77741
5.82846
6.48469
-6.43931
1.87945
1.8739
8.06536
-7.8187
-15.6705
15.2872
7.59236
-7.5634
15.825
-15.8517
-17.8651
17.9248
-5.69901
5.80465
-6.74302
6.73662
-6.98004
6.92825
-2.79909
-3.66611
13.123
-12.9638
8.59273
-8.656
-8.67461
9.03151
3.38462
0.922521
3.42962
-1.88179
3.76124
-1.87153
3.78127
2.75564
-5.55473
2.56628
-5.2201
4.37592
4.21682
-4.29848
-1.32029
-5.92875
5.95716
-5.80885
5.87029
9.17708
-9.16013
-1.88499
3.75888
-1.86907
3.76764
-3.423
-2.35441
3.37797
0.92391
8.0711
5.05188
-8.25757
-1.711
-8.02739
7.81003
-8.21762
8.01327
-0.436576
5.8386
-5.40202
4.43828
-1.65272
7.49131
5.56161
5.75734
5.86064
-5.58591
1.08461
-6.48663
-6.39983
-2.26944
2.38312
2.16048
-2.06795
6.14561
1.78784
6.04098
-5.80749
-2.18632
-5.86189
3.8198
2.00866
3.86854
4.08216
2.40254
4.11983
3.0296
-3.03674
0.00714638
-3.05928
6.08888
0.722139
-5.41369
-4.48978
4.9927
3.07265
5.22409
-5.59359
-2.22511
-5.16818
-9.56295
-6.10751
-10.1634
10.0862
5.20096
9.80488
-11.9557
11.799
4.85688
2.73548
4.85853
-4.97565
-2.58775
-4.8914
11.6846
-2.6544
-9.03019
-10.3301
-7.53501
10.336
5.48893
10.9724
6.9524
11.0629
4.42688
7.25771
-9.91581
2.3808
-3.86397
-1.83503
-3.77586
3.66182
2.14283
3.79836
-4.21889
-2.52414
-4.20366
-4.29531
-2.68473
4.32303
2.41359
-4.41731
-3.80031
4.54663
2.38163
4.05466
-10.0593
4.3133
-7.97941
-9.20297
-3.76082
-9.07212
3.55417
2.60218
-6.15635
-2.00056
8.54096
-4.32414
7.22067
-5.19519
-3.46081
-5.2252
-6.96374
-1.71087
-6.80592
-8.92801
8.43717
-9.20891
8.56622
12.514
-5.6363
-6.87771
-3.96702
-2.4723
3.9222
-0.49258
-3.71003
3.71718
0.0512113
3.83248
4.755
4.26242
-3.88207
-1.92678
-3.82593
3.82139
2.0489
3.88842
6.84771
2.32938
6.87743
-6.61259
-2.54754
-6.69687
9.10064
-8.6784
2.79893
-2.70417
5.37721
2.63606
-5.15464
-2.87275
6.24158
-3.21493
-3.02666
-12.3468
10.7952
1.55164
-4.85548
-0.417199
-0.481779
-5.5693
-3.75644
5.44983
0.307516
11.1027
7.34623
-5.51449
5.76389
6.17066
6.22185
-0.177986
5.88944
-5.18426
5.27
-2.72262
-2.54737
5.4776
-5.62886
-1.21927
-5.54933
4.33006
0.412126
1.49912
-1.28165
-1.77626
-0.493178
-1.64148
1.19222
0.968264
1.28091
0.954088
1.42903
-2.92098
0.528617
2.39237
-1.9669
-1.53934
-3.81277
-1.15494
4.96772
5.73231
2.07771
-5.63719
-0.224701
2.56007
-2.45795
-0.831264
-2.98151
2.23313
-3.06439
-3.46848
-1.94288
5.41136
-3.36859
-0.457337
3.31604
0.552494
-3.82818
-2.10057
3.79121
0.328623
-3.129
6.19028
-3.06128
-5.05578
2.52895
3.55993
4.53761
-4.78996
2.44922
2.34074
-1.23002
4.25806
0.966037
4.44201
-7.0633
4.83819
5.73719
3.29432
-6.21264
1.04446
-6.01884
8.54977
-7.3973
-1.15246
4.09517
4.45459
7.01523
5.49878
-5.70448
12.7197
-1.1646
-6.2327
7.18345
-3.88913
4.86501
-8.75413
-10.3638
4.13109
-9.20617
11.0731
-1.86692
-3.60441
-8.35127
12.8106
-1.21644
-11.5941
8.58844
-4.35004
-4.40344
8.75348
-7.00444
6.99119
-1.99006
-5.00113
-10.1488
-5.70287
10.2577
1.54127
-9.95105
12.3318
-2.69334
4.16154
0.696994
4.14839
3.36297
-5.48167
2.1187
3.64147
-5.63153
2.05532
-7.53699
-6.75271
12.0956
-5.34291
-10.5135
-9.543
-0.970534
2.54894
9.7829
-9.50135
7.43476
2.06658
3.29802
0.590404
-3.37177
-0.404091
0.233615
4.51328
-4.74689
4.03198
4.18069
3.22153
1.29175
3.84944
2.10771
-3.87103
-0.332624
-4.16864
1.48391
-1.75506
-3.69406
5.17797
-4.06162
0.367562
-2.74495
-3.49331
6.23826
-4.57998
3.03593
3.15435
5.08483
-4.91503
1.42172
-2.39059
-2.52444
2.6399
-4.39496
2.00082
3.17715
4.38244
0.582132
5.90685
6.18877
-8.50903
0.529622
11.2406
-9.52965
2.47795
8.58497
-9.91271
0.369715
-8.70241
0.9794
-5.30354
-5.17695
5.21998
-6.93085
-3.53415
6.24957
0.627865
-6.40369
-0.402231
-6.06673
-2.86127
-6.51588
-3.04507
-6.16384
-8.74954
-1.67628
-7.07327
6.7609
-6.70801
-3.45543
7.43674
1.12947
-7.47983
7.35722
-7.53843
7.19906
0.0949667
3.62221
4.35739
1.88509
-2.39218
4.27728
-5.07291
7.40229
-8.74532
3.6724
4.23857
-6.78611
-4.50675
5.0586
4.04204
5.37262
8.91963
-10.3701
1.45052
-10.6453
11.9861
-1.34082
-16.4239
5.77862
-7.50429
2.41051
0.388412
2.52244
0.551251
2.48816
-3.03941
-2.15291
-2.06644
-2.44404
-3.49659
5.94062
1.06703
-3.47559
2.40855
-3.57428
4.64132
-0.0742049
-3.40138
5.17719
-2.68903
5.5656
-3.64849
1.91711
3.55256
5.84542
-2.29286
4.4214
-1.78534
1.94794
-4.2408
-1.54865
-2.95411
5.09694
-3.28415
3.65172
-0.350052
4.00177
-4.05024
0.835316
-0.828715
3.35197
3.60648
4.33092
-3.03918
2.93653
-4.72188
-1.30427
-4.13974
-0.962589
-0.182682
-3.78314
3.96582
6.00215
-6.18484
-5.28064
9.52257
-4.24193
7.70199
-5.43826
-2.26373
-4.29065
-4.38775
3.92304
1.96641
9.66839
0.179601
-5.61786
-5.00466
-3.98287
3.08792
2.18208
-1.73561
3.28724
2.21739
-0.718269
0.391435
0.889478
1.76186
-1.37043
0.346555
1.41531
-0.935096
1.69736
0.862713
-1.8166
0.175121
-1.30747
3.5406
1.0849
-2.05316
0.682733
0.888981
-3.61161
5.09025
-2.73246
-2.35779
5.97923
1.14445
-3.87691
4.40488
-3.99275
2.44609
-3.60103
-1.43082
-5.42357
-3.63573
-2.48724
4.8958
-3.45338
5.53109
1.42732
-5.30639
6.73371
-3.62929
1.6864
-3.05975
3.92247
-1.01203
-2.04772
2.8775
2.53386
-3.13703
0.155518
-0.259523
2.41878
-2.6783
-0.645616
-2.61251
-4.5761
4.90472
-2.10372
4.55294
2.17356
-1.91772
6.47066
1.80759
-3.7253
-3.24819
-3.70553
-1.38457
3.15304
-0.58304
-4.30836
-5.58417
4.17606
0.265951
-7.06332
7.92839
-0.865068
-3.99067
-0.847513
4.94269
-6.09894
0.467413
-4.04362
3.88477
4.8508
5.11676
-11.3608
-0.233347
-6.15983
1.10504
-7.26487
5.55964
-3.50893
7.64002
-10.3403
6.88483
-9.21078
6.48755
-0.777321
6.2509
-4.1322
2.7793
-8.48216
-6.94089
5.57545
-2.83997
6.27245
-3.22017
9.49262
-5.91351
5.3701
4.12252
-1.0604
-4.1648
-5.34313
4.28273
0.0269647
4.17536
4.9872
-2.87949
4.65457
2.26452
-4.65512
-2.13043
-6.4884
1.83328
-3.33404
-1.92258
3.75586
3.16225
3.75265
1.23142
-3.34856
7.24418
-8.21471
-1.90127
-3.27568
5.31639
-1.03365
3.44797
-6.72365
-1.85558
4.7451
-0.725451
-4.01965
0.891192
-4.42535
1.67217
-6.09752
5.25868
-5.66092
2.2547
-9.75899
-5.22514
-5.19483
-2.27935
-5.25908
-7.57645
5.2971
-1.79783
5.5594
-8.51371
7.78825
-3.47241
8.76951
-5.46217
-1.05371
5.89086
1.3082
10.0777
0.163067
-4.66981
-1.94128
3.73266
-1.79138
1.14663
-3.62008
0.112586
2.48972
3.48951
-6.81978
0.0336686
-4.63614
-3.90981
7.95184
5.61277
11.6149
1.24478
9.13787
-1.18603
10.3827
4.18659
4.42352
-3.0069
4.45742
0.958921
4.63132
-0.895985
2.8131
1.62646
1.69258
0.765373
2.29188
1.3146
3.1272
0.087784
-1.97865
4.63318
-8.61606
-0.984677
-8.06973
1.16709
5.42909
-4.262
2.87148
-0.689398
1.0801
-0.181898
-1.18943
1.37132
-2.72927
-1.90769
-0.492387
-1.65953
2.34226
1.88107
-1.84987
-0.879397
0.330683
-3.96641
3.27035
-3.11483
-0.580976
6.15274
-2.88981
0.21151
-1.20341
-2.401
-2.89418
2.71906
6.17432
0.296333
3.11304
5.20105
3.10049
0.221001
3.81822
-5.68514
-3.71877
-5.91848
-0.358849
4.58384
1.76111
8.02179
5.88363
4.84998
-1.87367
-10.0884
6.50621
-2.04879
5.16539
-1.14574
-4.95178
5.07371
2.32858
-5.70158
0.0406597
-4.91112
-6.9599
-0.479833
8.26809
-9.59787
8.54417
5.68289
1.39037
-4.43729
-0.757534
4.28965
0.133872
10.5165
-0.911491
-7.0534
7.96489
-4.5176
3.53292
0.675404
2.61184
2.04673
1.35733
-5.69607
-9.95807
-2.06821
-1.54339
-4.426
0.541719
-2.42279
6.07064
-2.53772
3.80692
5.42716
6.50726
-2.04746
-4.13737
6.2894
-2.48248
4.02478
)
;

boundaryField
{
    wall-4
    {
        type            calculated;
        value           uniform 0;
    }
    velocity-inlet-5
    {
        type            calculated;
        value           uniform -3.75095;
    }
    velocity-inlet-6
    {
        type            calculated;
        value           uniform -5.62643;
    }
    pressure-outlet-7
    {
        type            calculated;
        value           nonuniform List<scalar> 8(3.33192 7.76382 4.41459 9.68728 7.43561 5.14227 5.77066 8.9672);
    }
    wall-8
    {
        type            calculated;
        value           uniform 0;
    }
    frontAndBackPlanes
    {
        type            empty;
        value           nonuniform 0();
    }
}


// ************************************************************************* //
