/*--------------------------------*- C++ -*----------------------------------*\
  =========                 |
  \\      /  F ield         | OpenFOAM: The Open Source CFD Toolbox
   \\    /   O peration     | Website:  https://openfoam.org
    \\  /    A nd           | Version:  6
     \\/     M anipulation  |
\*---------------------------------------------------------------------------*/
FoamFile
{
    version     2.0;
    format      ascii;
    class       volVectorField;
    location    "74";
    object      U;
}
// * * * * * * * * * * * * * * * * * * * * * * * * * * * * * * * * * * * * * //

dimensions      [0 1 -1 0 0 0 0];

internalField   nonuniform List<vector> 
918
(
(0.985049 -0.000715414 0)
(0.00536359 2.96623 0)
(-0.00268568 0.880056 0)
(0.979575 0.00196168 0)
(-0.013937 2.0659 3.27163e-20)
(-0.00710502 2.94857 -2.56882e-18)
(0.818849 1.12088 4.46528e-19)
(0.113996 0.0727694 -1.4038e-20)
(0.999922 -0.000244272 0)
(0.0901443 0.664244 0)
(0.00865684 0.38142 0)
(0.733812 -0.00245726 0)
(0.0101744 2.93167 0)
(0.00349904 2.79445 0)
(-0.00223109 3.17949 8.27319e-19)
(-0.0136472 1.9281 2.07772e-20)
(0.294911 0.0405115 9.80896e-19)
(0.233017 1.10857 3.52945e-19)
(0.96434 0.00674403 0)
(-0.000342619 0.390457 0)
(0.02679 0.0147155 -6.52739e-19)
(1.00183 -0.00455948 0)
(0.999851 -0.00892609 0)
(0.975168 -0.00605166 0)
(0.592782 0.0240536 0)
(0.0208537 2.64461 0)
(-0.0122925 2.91189 9.39417e-19)
(-0.0057537 0.933014 0)
(-0.0316609 1.1697 0)
(-0.00372473 0.902588 0)
(-0.0227738 2.5908 0)
(-0.00493729 2.1164 -2.6132e-20)
(-0.00996508 1.90117 0)
(-0.022113 2.98761 -9.25791e-23)
(-0.0164821 3.00549 1.99577e-18)
(0.00230048 3.00058 0)
(0.871966 -0.00975859 0)
(0.375354 0.914482 1.64026e-19)
(0.817677 1.13942 -5.59181e-19)
(0.950071 1.00569 5.69459e-19)
(0.680421 1.22223 -1.02283e-19)
(0.693867 1.18279 5.83294e-19)
(0.143437 0.129637 1.36938e-20)
(0.146189 0.078292 0)
(1.1659 0.532267 0)
(0.115043 0.107467 6.19168e-20)
(0.0900882 0.0583006 -6.4254e-20)
(0.920562 -0.00704839 0)
(1.00027 5.74286e-05 0)
(0.999907 0.000320948 0)
(1.0037 -0.00728 0)
(1.00088 -0.000947294 0)
(1.00011 -5.48149e-06 0)
(0.0919436 1.84635 -7.3454e-19)
(0.0320068 0.852959 0)
(0.127929 0.753007 0)
(0.0174477 0.795504 0)
(0.0529984 0.581414 0)
(0.00428441 2.0314 0)
(-0.00790945 0.709374 0)
(0.00504866 0.397607 0)
(-0.0108415 0.707277 0)
(0.0171719 0.376802 0)
(0.843705 -0.0156127 0)
(0.838518 0.0322276 0)
(0.761019 -0.00375009 0)
(0.800808 0.0307175 0)
(0.701165 0.0163592 0)
(0.0139109 3.00023 9.53257e-19)
(0.0111168 3.00601 0)
(0.00619717 3.00384 0)
(0.0118874 2.99716 1.08194e-23)
(0.00821778 2.95879 -1.41677e-18)
(0.0122338 2.983 0)
(0.00908094 2.90477 0)
(0.0209675 2.93184 2.19644e-24)
(0.00411509 2.82396 0)
(0.0252762 2.91887 0)
(-0.00118261 2.74475 0)
(0.30568 3.57435 0)
(-0.122224 3.65718 0)
(0.149289 3.27014 -7.69967e-19)
(0.00341096 3.00749 0)
(-0.0302269 1.98987 0)
(-0.0071261 2.17959 -2.04921e-20)
(-0.00945556 1.93995 2.08142e-20)
(0.347796 0.139195 -3.40531e-19)
(0.317031 0.011644 -3.31384e-19)
(0.303117 0.153843 -1.0186e-18)
(0.26053 0.0606961 -6.61979e-19)
(0.264194 1.02287 0)
(0.332055 1.23958 -3.65483e-19)
(0.413429 1.15058 6.03164e-19)
(0.98772 0.00815747 0)
(0.943237 0.0057833 0)
(1.00028 0.000672133 0)
(1.00254 0.00906657 0)
(1.00311 0.00899179 -2.62561e-18)
(0.992135 0.00941954 1.98403e-18)
(-0.0208608 0.732625 0)
(0.00174982 0.396675 0)
(-0.0518352 1.01838 0)
(-0.0317235 0.788027 0)
(-0.0107652 0.391462 0)
(-0.0517418 0.101519 2.02687e-19)
(0.045718 0.0551926 0)
(0.993626 -0.00769224 0)
(0.954052 -0.00648425 0)
(0.741909 0.0257617 0)
(0.673083 0.0279745 0)
(0.662461 0.0184776 0)
(0.980166 -0.0027518 0)
(0.585519 0.0624039 0)
(0.448248 -0.0177457 1.49446e-18)
(-0.0410463 2.85994 7.36881e-19)
(0.0338078 2.9141 0)
(0.0426672 2.8926 0)
(0.00315344 2.70191 0)
(-0.00881171 2.98661 8.98295e-19)
(-0.0141892 2.89473 0)
(-0.0109327 2.99191 -2.76729e-18)
(-0.0116329 2.92971 9.41775e-19)
(-0.0455632 1.34595 0)
(-0.0157901 1.37443 0)
(-0.00777328 2.14129 7.59988e-22)
(-0.0077882 2.10055 0)
(-0.0172121 1.91216 0)
(0.938909 -0.00519271 0)
(0.857329 -0.0111541 0)
(0.863231 0.00462523 0)
(0.949691 -0.00613383 0)
(0.883698 -0.00809388 0)
(0.498819 1.11438 -2.08305e-19)
(0.54609 1.18417 0)
(0.337359 0.849185 3.18527e-20)
(0.281834 0.713735 0)
(0.918677 1.03545 -1.6092e-19)
(1.04154 0.845985 3.24128e-19)
(0.391948 1.31811 0)
(0.542986 1.27344 0)
(0.596956 1.2003 0)
(0.104003 0.181796 -2.97709e-19)
(0.170367 0.144323 0)
(0.170117 0.093381 1.83866e-19)
(1.00472 0.900008 0)
(1.08069 0.748444 0)
(1.11025 0.68369 -2.60331e-19)
(1.14683 0.594704 0)
(1.20287 0.391385 4.72247e-20)
(0.957519 -0.00709286 0)
(0.962737 -0.0081074 0)
(0.90093 -0.00737301 0)
(0.983932 -0.00812192 0)
(0.974433 -0.00803038 0)
(0.936552 -0.00656928 0)
(1.0002 0.00250603 0)
(1.00077 0.00124005 0)
(1 0.00076149 0)
(0.0437714 2.08842 4.09837e-19)
(0.144195 1.79036 0)
(0.0188163 2.20423 6.1723e-19)
(0.0518452 1.89493 -5.14351e-19)
(0.167345 1.08435 -2.89637e-19)
(0.0495023 0.938362 0)
(0.121796 0.938697 0)
(0.00735457 0.75844 0)
(0.0282814 0.506038 0)
(-0.00321936 2.25854 -3.88813e-22)
(0.0197348 2.03683 0)
(-0.00503515 2.25916 -7.93126e-21)
(0.00252176 2.04317 3.09878e-21)
(-0.0025572 0.731713 0)
(-0.0072954 0.714548 0)
(0.0105062 0.442256 0)
(-0.0163036 0.707982 0)
(0.00589934 0.380414 0)
(0.939576 0.0138711 0)
(0.856507 -0.0115645 0)
(0.928717 0.00489629 0)
(0.846305 -0.0127791 0)
(0.810626 -0.00109954 0)
(0.898436 0.0218177 0)
(0.87276 0.0269908 0)
(0.785211 -0.00255466 0)
(0.0102692 3.06787 -8.85758e-21)
(0.0149832 3.05893 0)
(0.0124524 2.97024 0)
(0.00767399 2.87668 0)
(0.895198 3.96803 0)
(1.18917 3.36426 9.3691e-19)
(0.0810165 3.08994 0)
(-0.0174323 2.91754 0)
(-0.0162812 1.40088 0)
(-0.035692 1.69743 0)
(-0.024491 1.53297 0)
(-0.0331902 2.55128 -1.44087e-20)
(-0.0180306 2.24647 0)
(-0.0226618 2.39125 0)
(-0.000771261 1.96889 1.16347e-22)
(-0.0050733 2.25303 -2.636e-20)
(-0.00611985 2.21703 -2.13607e-20)
(-0.00580453 1.95307 0)
(0.38967 0.117193 5.23035e-19)
(0.358097 0.00226735 -5.13173e-19)
(0.23213 1.59107 0)
(0.288097 0.767415 -3.22456e-19)
(0.178411 1.68855 -1.06086e-18)
(0.244073 1.22805 1.06183e-18)
(0.901663 0.00583115 0)
(0.967029 0.0106978 0)
(0.974887 0.00986189 0)
(0.922978 0.00585825 0)
(-0.0191278 0.717286 0)
(-0.0227749 0.72421 0)
(0.000770946 0.387687 0)
(0.0887319 0.095873 5.69517e-19)
(0.0739382 0.0762741 -6.725e-19)
(0.0520423 0.0487028 0)
(1.1076 0.0906055 2.375e-20)
(1.0913 0.0426704 0)
(1.01914 0.0437791 0)
(0.914129 -0.0014286 0)
(0.439845 0.098045 0)
(0.499308 0.074834 -2.39018e-18)
(0.397797 0.000170527 8.95455e-19)
(0.0107345 2.97731 7.82443e-19)
(-0.0323868 2.86154 4.70669e-20)
(0.00863871 3.05311 -1.87118e-20)
(0.0157933 3.04343 7.02186e-19)
(-0.0118105 2.99995 3.10013e-20)
(-0.0123439 2.95225 -1.25199e-22)
(-0.0150435 3.01327 -5.79782e-19)
(0.0143567 3.02663 4.0739e-19)
(0.00763137 3.03476 -6.61075e-19)
(0.934776 0.0021577 0)
(0.939549 -0.00110032 0)
(0.848213 -0.0111808 0)
(0.956275 0.0119044 0)
(0.942259 0.0135598 0)
(0.881635 0.00522722 0)
(0.915512 0.0184283 0)
(0.924971 0.015622 0)
(0.837437 0.00112232 0)
(0.671456 1.41255 1.77249e-20)
(0.6894 1.52294 0)
(0.118655 0.291871 6.74407e-20)
(0.213493 0.654361 5.33005e-19)
(0.24037 0.69316 -3.12826e-19)
(0.214751 0.49558 6.20895e-19)
(0.340616 0.833018 1.57566e-18)
(0.135588 0.237325 3.78389e-19)
(0.257734 0.168982 7.02041e-19)
(0.211174 0.164063 1.8111e-19)
(0.218781 0.083479 3.44841e-19)
(1.19423 0.446998 9.71989e-20)
(1.21929 0.246182 9.4846e-20)
(0.00884798 2.24582 2.39046e-19)
(0.0395254 1.95795 0)
(0.973146 0.0331068 0)
(0.946947 0.019287 0)
(0.871379 -0.0151391 0)
(0.0125937 3.07397 0)
(0.0167145 2.94401 1.23821e-18)
(0.0139287 2.95665 0)
(0.0058866 2.84989 -1.22858e-18)
(0.00949765 3.09048 3.02177e-19)
(0.0113061 3.0838 0)
(0.70907 1.81882 -1.7109e-19)
(1.2335 2.62339 5.78414e-19)
(0.693735 1.9968 -1.39547e-18)
(0.0220497 2.97572 -6.79928e-19)
(0.0403111 2.99766 0)
(-0.0385248 2.87796 0)
(-0.00625026 2.23809 -1.28039e-20)
(-0.00473363 2.25833 5.12037e-20)
(-0.000480157 2.00465 -6.95699e-21)
(0.268172 1.40375 1.02415e-18)
(0.287499 0.571017 -7.03276e-19)
(0.0731334 2.00439 7.4629e-19)
(0.120939 1.87556 -9.03026e-19)
(0.207892 1.53914 1.05472e-19)
(0.00664742 3.11927 -1.74174e-18)
(0.0174167 3.11941 1.88127e-18)
(-0.00507732 2.98025 8.40978e-19)
(-0.000483355 2.97501 -8.07861e-19)
(-0.0178163 2.878 -8.56558e-19)
(0.0126525 3.099 -2.24332e-18)
(0.00514678 3.10766 2.2203e-18)
(0.26775 0.699585 0)
(0.218889 0.660123 -1.13704e-18)
(0.0745642 0.21264 5.00329e-19)
(0.346994 0.953132 1.11928e-18)
(0.200008 0.281818 -1.72382e-18)
(1.19833 0.17624 4.68128e-20)
(1.21599 0.305539 0)
(1.19382 0.121407 1.04701e-20)
(-0.000788561 2.26632 -1.18286e-21)
(0.00400433 2.25075 0)
(0.0318525 1.99419 0)
(0.313362 1.31913 -3.67443e-19)
(0.354245 1.17932 -7.97384e-19)
(0.233453 0.393031 1.4264e-18)
(1.00644 -0.00968041 0)
(1.00774 -0.00778256 4.82572e-19)
(-0.0400618 1.32834 0)
(-0.0485716 1.333 0)
(1.00244 0.00327259 1.34023e-21)
(1.0032 0.00781434 9.90728e-19)
(-0.0242899 2.53765 1.82574e-20)
(-0.0273612 2.58011 0)
(0.0406188 3.17249 4.81322e-19)
(0.373742 3.54023 0)
(1.1585 0.693278 -4.93419e-20)
(1.01179 0.0106442 -2.83871e-21)
(1.02087 -0.00899822 0)
(1.00158 0.000285978 1.57543e-22)
(0.118683 1.37492 0)
(0.143524 2.58602 0)
(0.0225661 1.32769 0)
(-0.000340623 2.6339 -4.64287e-21)
(-0.0219488 2.58147 -1.00275e-20)
(0.996621 0.0321674 2.27723e-21)
(1.06307 0.00592291 0)
(1.10023 0.0285922 0)
(-0.033994 1.74479 0)
(-0.0190784 2.58102 0)
(-0.0143214 1.31979 0)
(0.30886 1.48993 -1.73379e-19)
(1.01152 -0.00905393 0)
(1.00971 -0.0129838 0)
(1.00227 0.000939268 6.18062e-19)
(1.00548 -0.00490993 -7.28563e-19)
(1.00113 -0.000860818 0)
(-0.0225022 1.46719 0)
(-0.0112665 1.38844 0)
(-0.0174493 1.42864 0)
(-0.0171133 1.30655 0)
(-0.0292501 1.29679 0)
(-0.0229689 1.276 0)
(1.03568 -0.00429439 0)
(1.01883 0.0153066 -9.6698e-22)
(0.812024 1.3114 2.82622e-19)
(1.00244 0.000388276 -6.17637e-19)
(1.00338 0.00444938 7.37273e-19)
(1.00126 0.00209518 0)
(1.01108 0.00963432 6.15213e-19)
(1.00684 0.00745288 -7.48822e-19)
(1.00713 0.0111169 0)
(-0.0240872 2.6085 0)
(-0.0274252 2.588 -3.07291e-20)
(-0.0242395 2.60194 2.16185e-20)
(1.24234 0.273466 5.1668e-19)
(1.1638 0.0891996 0)
(0.0440267 3.09153 -9.59544e-19)
(0.0517878 2.87402 -6.8015e-20)
(0.103561 3.20186 1.28405e-18)
(0.121963 3.21366 -2.73446e-19)
(0.141577 3.25694 0)
(0.0225122 3.13768 2.63858e-19)
(0.0610573 3.1622 9.55864e-19)
(0.061612 3.17879 -4.93598e-19)
(0.0266821 3.12971 0)
(0.560227 0.291153 0)
(0.505634 0.307522 0)
(1.14085 0.72467 1.09166e-19)
(1.10596 0.860844 -9.03655e-20)
(1.19837 0.610889 0)
(1.2255 0.544846 0)
(1.01569 0.0120266 -1.14283e-18)
(1.01468 0.0127522 1.43691e-18)
(1.02575 -0.00872439 0)
(1.02409 -0.0102913 0)
(1.00678 0.00323035 0)
(1.01089 0.00421337 0)
(1.00422 0.0022157 0)
(1.00936 0.00635076 0)
(1.00684 0.00504349 0)
(1.00439 0.00526503 0)
(0.108491 1.37449 0)
(0.0958178 1.33424 0)
(0.14085 1.42033 0)
(0.148023 1.40424 0)
(0.151122 2.60801 0)
(0.188506 2.67471 -4.08281e-19)
(0.109121 2.66982 0)
(0.0807484 2.66905 1.6441e-19)
(0.027048 2.67489 -1.60363e-19)
(0.0159477 1.32777 0)
(0.0224099 1.25576 0)
(0.0275091 1.34112 0)
(0.0415762 1.2781 0)
(-0.00192697 1.99626 3.7564e-20)
(-0.0216761 2.60971 -3.95024e-20)
(-0.00657385 2.67611 -3.11251e-20)
(-0.0189746 2.68829 0)
(-0.0238802 2.61574 3.15536e-20)
(-0.0225292 2.61117 3.8881e-20)
(0.00512943 1.99307 -2.86453e-20)
(-0.0102156 2.40142 5.29948e-20)
(-0.0149615 2.42597 3.52835e-20)
(1.0116 0.0401465 1.16248e-18)
(1.00363 0.0196636 -1.44463e-18)
(1.00345 0.0467776 -1.18318e-18)
(0.975542 0.0373075 1.48914e-18)
(1.06472 0.00925115 0)
(1.04993 -0.006427 0)
(1.09275 0.0377317 0)
(1.0759 0.0150412 0)
(1.07464 0.000573169 0)
(1.14155 0.0797505 0)
(1.11582 0.0463385 0)
(1.11906 0.0375695 0)
(-0.0296999 2.43287 3.51774e-21)
(-0.0203421 2.02249 0)
(-0.0207989 2.22049 0)
(-0.021233 2.60183 -1.90327e-20)
(-0.0180164 2.61275 6.07645e-22)
(-0.001877 1.58871 -5.50212e-20)
(-0.0113834 1.51101 5.62103e-20)
(-0.0221039 1.40188 0)
(-0.026214 1.40761 0)
(-0.0330652 1.39871 0)
(-0.0107424 1.32177 0)
(-0.000711821 1.24426 0)
(0.385605 1.51432 2.89239e-19)
(0.434276 1.51841 1.53933e-19)
(0.592883 2.46634 -2.47662e-19)
(0.385401 2.5549 7.17318e-19)
(0.350058 2.05084 6.82205e-20)
(1.02071 -0.00799991 0)
(1.0158 -0.00935637 0)
(1.01485 -0.0132123 0)
(1.00773 -0.000554627 0)
(1.00485 -0.000678136 0)
(1.008 -0.00447059 0)
(1.00955 -0.00343526 0)
(1.01465 -0.00427979 0)
(1.01958 0.0162957 1.1217e-18)
(1.01713 0.0147983 -1.42062e-18)
(1.01996 0.0186902 -1.13091e-18)
(1.01746 0.0169173 1.41692e-18)
(0.768451 1.35824 0)
(0.707164 1.39379 2.48287e-19)
(0.87591 1.23927 1.03427e-19)
(0.913072 1.19871 -1.37268e-19)
(1.16454 2.61174 2.69943e-19)
(0.752977 0.131075 5.82488e-19)
(1.17218 0.108195 0)
(1.21472 0.202195 -4.19402e-19)
(1.19581 0.154469 -1.74604e-20)
(1.01337 0.167508 0)
(0.0766273 3.01818 3.43015e-19)
(0.0824956 2.9029 -1.12966e-18)
(0.0242054 2.35955 7.1525e-19)
(0.1507 -0.255674 -3.22758e-19)
(0.341979 3.44422 -2.51905e-19)
(0.193052 3.33928 0)
(0.223556 3.39558 3.28137e-19)
(0.22171 3.07618 -1.19645e-18)
(0.254265 3.19476 0)
(0.00580538 3.1228 4.98226e-20)
(0.0165289 3.13136 -5.74024e-19)
(0.0154016 3.12716 8.4485e-19)
(0.0327874 3.14032 0)
(0.0309398 3.14965 0)
(1.25744 2.5755 0)
(0.536687 0.788254 -5.21821e-19)
(1.02608 1.0344 -1.51894e-20)
(0.99181 1.08723 0)
(0.860718 0.969909 -1.04655e-19)
(1.08467 0.910056 2.65947e-20)
(0.325345 0.304629 -8.00265e-19)
(0.646509 0.32305 -2.2252e-20)
(0.530098 0.218142 3.89389e-19)
(0.538617 0.322415 2.80683e-20)
(0.420041 0.272256 -1.12279e-18)
(0.60269 0.323492 0)
(0.693011 0.430767 6.48806e-19)
(0.695804 0.436726 0)
(0.572666 0.329959 0)
(0.479628 0.25344 0)
(0.800467 0.655879 3.89507e-19)
(1.25367 0.307319 -4.19977e-19)
(1.24672 0.439143 0)
(1.24689 0.394693 0)
(0.684261 0.187057 5.9483e-19)
(0.84837 0.559922 -3.66886e-19)
(0.769292 0.523744 6.55721e-19)
(0.965868 0.454497 -6.60411e-19)
(1.01836 0.0146951 7.61493e-19)
(1.01703 0.0136465 -7.67404e-19)
(1.01595 0.0141504 0)
(1.03708 -0.00451011 0)
(1.03047 -0.00769091 -7.1989e-19)
(1.02868 -0.010573 7.1241e-19)
(1.02473 0.0110345 0)
(1.02269 0.015144 0)
(1.0127 0.00472732 0)
(1.01456 0.00910568 0)
(1.0164 0.00424995 0)
(1.01556 0.00293388 0)
(0.0782179 1.36281 0)
(0.0808686 1.30487 0)
(0.152329 1.42253 5.17688e-20)
(0.276691 1.48616 8.42715e-20)
(0.175842 1.45771 1.8941e-19)
(0.212682 1.45614 -3.06386e-19)
(0.161591 1.4327 0)
(0.141379 1.5854 -8.5225e-20)
(0.138594 1.58128 0)
(0.349342 2.0045 -9.93116e-20)
(0.318199 2.34178 5.55982e-19)
(0.197132 1.46564 7.4267e-20)
(0.275303 1.39983 2.52431e-20)
(0.206505 1.39908 -2.05938e-20)
(0.289496 1.33825 -8.42432e-20)
(0.258635 1.57777 0)
(0.265174 1.62554 9.36427e-20)
(0.0227769 2.25324 -1.25736e-20)
(0.0377502 2.66814 0)
(0.0632931 2.40426 9.05835e-20)
(0.0580979 2.42899 0)
(0.0666768 2.68721 -1.82551e-19)
(0.0418263 2.70256 0)
(0.0236851 1.45995 6.07667e-20)
(0.032982 1.51747 0)
(0.0319763 1.4187 0)
(0.0194585 1.42887 -6.95931e-20)
(0.00292214 2.66106 2.70127e-21)
(0.026752 2.69081 1.84025e-19)
(0.0105825 2.73266 9.43006e-22)
(0.0012574 1.84784 -2.24249e-20)
(-0.00535679 1.70109 -1.70083e-20)
(0.00955927 1.31129 0)
(0.0176256 1.22449 0)
(0.0405142 1.59519 -1.08572e-20)
(0.0423208 1.4754 -5.54544e-20)
(0.027573 1.55485 5.86811e-20)
(0.0519901 1.61877 0)
(-0.0303747 2.27099 1.19385e-19)
(-0.0337619 2.54929 -5.05596e-20)
(-0.0200014 2.44917 8.59977e-21)
(-0.00648331 1.86332 2.71705e-20)
(-0.0278425 2.50421 1.19508e-20)
(-0.023008 2.4461 -2.86192e-20)
(1.01784 0.0221604 -7.6795e-19)
(1.01423 0.0287668 7.7277e-19)
(1.0121 0.0172426 0)
(1.01138 0.0707754 1.05542e-18)
(0.990405 0.061598 -1.21272e-18)
(0.949153 0.0566114 1.35842e-18)
(1.01356 0.116344 -1.43555e-19)
(1.04401 -0.00464799 0)
(1.05223 -0.000396027 6.89532e-19)
(1.0403 -0.00817421 -6.89256e-19)
(1.07242 0.0437324 -4.08589e-20)
(1.06504 0.0290531 3.52977e-19)
(1.06425 0.0658283 0)
(1.05434 0.0549249 -1.27154e-19)
(1.03226 0.0444339 0)
(1.02526 0.039897 0)
(1.02762 0.0138022 0)
(1.02399 0.016289 0)
(1.04059 0.0337114 2.61433e-19)
(1.03983 0.02911 -5.78722e-19)
(1.05319 0.0389412 -2.76473e-19)
(1.04824 0.0388559 -3.05222e-19)
(1.07781 0.0704944 5.83205e-19)
(1.10193 0.056506 0)
(1.10869 0.0951162 0)
(-0.0280004 2.27747 7.07217e-20)
(-0.0302954 2.02834 3.65048e-21)
(-0.0254659 2.03824 0)
(-0.0297273 2.44555 -7.04125e-20)
(-0.0275632 2.40429 -7.02176e-21)
(-0.034109 2.47291 9.07034e-21)
(-0.0215397 2.62331 -3.31285e-20)
(-0.0264182 2.56558 1.75392e-21)
(-0.0250158 2.51912 -1.11799e-20)
(-0.0171107 2.61643 2.16686e-20)
(-0.0212415 2.61866 -2.49908e-20)
(-0.0107888 1.50981 -5.44942e-22)
(-0.00546648 1.63633 -5.44014e-20)
(0.376776 1.44983 -1.23845e-19)
(0.371751 1.38063 1.51492e-20)
(0.648743 1.44164 -2.40237e-19)
(0.524707 1.51138 -1.49689e-19)
(0.578438 1.47009 0)
(0.60745 2.4237 2.16058e-19)
(0.666967 2.43318 3.37368e-19)
(0.415455 2.51737 9.50666e-20)
(0.400553 2.54196 -5.86113e-19)
(0.501997 2.48058 5.58219e-19)
(0.553119 2.47723 0)
(0.484863 2.52763 -5.51454e-19)
(0.252489 2.59802 1.11668e-18)
(0.366742 2.56595 -7.04753e-20)
(0.282191 2.65897 -1.5793e-18)
(0.970954 2.3906 7.12002e-19)
(0.848921 2.39147 0)
(1.01144 0.00139392 2.506e-20)
(1.01538 -0.00516963 -2.04699e-20)
(1.01777 -0.00391072 -3.74182e-19)
(1.01563 -0.00103272 3.72882e-19)
(1.01313 0.00185063 0)
(0.637276 1.30357 0)
(0.680375 1.18882 0)
(0.795169 1.11948 0)
(0.668033 1.14621 0)
(1.19541 2.62717 5.14321e-20)
(1.0883 2.37935 0)
(0.817876 2.16713 3.52077e-21)
(0.821699 2.43129 0)
(0.916414 2.5217 -4.30546e-19)
(0.947921 2.47107 2.87447e-19)
(0.782723 0.167779 0)
(0.724128 0.149793 1.57723e-19)
(0.901346 0.159962 9.22546e-19)
(0.815792 0.142569 -3.44957e-19)
(0.755521 0.0914076 -1.06268e-18)
(1.08869 0.246766 -8.37074e-19)
(0.986777 0.317014 -1.01416e-20)
(0.931616 0.352206 8.0797e-19)
(1.01494 0.26063 6.89987e-19)
(0.93134 0.207609 -1.21448e-18)
(0.88944 0.221614 1.52078e-19)
(0.928055 0.317445 -3.17032e-19)
(0.905461 0.225026 0)
(1.00112 0.210496 5.94276e-19)
(1.05561 0.219454 0)
(1.05257 0.229345 0)
(1.12598 0.125081 2.66443e-19)
(1.06515 0.19516 -1.06577e-20)
(1.08026 0.248627 -1.5267e-19)
(1.11349 0.211639 0)
(1.0232 0.0490749 5.90307e-19)
(1.03732 0.0631184 7.36782e-19)
(1.03285 0.0466998 -5.8648e-19)
(1.04162 0.0693165 -4.93947e-19)
(1.01438 0.0748276 -7.47818e-19)
(0.985915 0.171191 0)
(0.988991 0.108447 0)
(0.961744 0.0736676 -4.82873e-19)
(0.899307 0.100674 1.91305e-19)
(1.03892 0.117044 6.83161e-19)
(1.07617 0.137009 -7.80233e-19)
(1.07005 0.181154 7.0158e-19)
(1.03513 0.157493 0)
(1.08646 0.123581 0)
(1.05717 0.112703 -3.20167e-19)
(1.04265 0.109159 -5.55247e-19)
(0.587913 1.08377 1.16761e-19)
(0.611583 1.40009 -1.94689e-20)
(1.14491 2.71768 -2.44288e-19)
(1.19753 3.10217 2.41025e-21)
(1.25326 2.72767 -1.20238e-19)
(1.29285 2.69837 1.77597e-20)
(1.2683 2.32191 -3.81235e-20)
(1.18519 3.00762 -7.22364e-20)
(1.20473 2.96463 2.20905e-19)
(1.17923 3.25559 -1.22683e-19)
(1.39672 2.96993 1.53373e-19)
(1.40812 2.90563 0)
(0.574794 0.814548 -4.76264e-20)
(0.206695 1.21059 4.70398e-19)
(0.522245 0.338981 5.16787e-19)
(0.408407 0.103567 5.86369e-19)
(0.473672 0.299132 6.35947e-19)
(0.548319 0.414176 -1.03653e-18)
(0.556538 0.398888 8.53291e-19)
(0.469192 0.297813 -3.1911e-19)
(0.331654 0.239907 7.23038e-19)
(0.718531 0.255687 -3.43057e-19)
(0.669769 0.28643 0)
(0.60013 0.196474 7.50632e-21)
(0.739291 0.509053 3.5411e-19)
(0.70967 0.481486 -1.28331e-18)
(0.633411 0.433724 1.41243e-20)
(0.620955 0.413763 0)
(0.721251 0.716374 3.69347e-19)
(0.837847 0.799453 4.06934e-19)
(0.77535 0.84937 -4.74219e-19)
(0.905443 0.821241 -1.50323e-19)
(0.940223 0.864711 -3.47619e-20)
(0.947753 0.87204 3.56557e-20)
(0.883906 0.67962 -6.62003e-19)
(0.956241 0.725935 1.39755e-19)
(1.01052 0.729097 0)
(1.00918 0.7048 -1.78479e-19)
(1.03142 0.341155 2.09001e-19)
(1.15903 0.341624 2.52811e-19)
(1.07529 0.284127 3.42254e-19)
(1.00004 0.388415 -4.18055e-19)
(1.0575 0.489108 0)
(1.13919 0.429504 0)
(0.901614 0.427379 1.38207e-22)
(0.846422 0.322142 0)
(0.893575 0.312261 3.87015e-19)
(0.915728 0.350744 3.27922e-21)
(0.987802 0.499008 1.84461e-18)
(0.920279 0.55762 4.75383e-19)
(0.943199 0.516864 -5.02857e-19)
(0.861122 0.493636 5.3622e-19)
(0.82641 0.469221 3.41997e-19)
(0.802354 0.447392 -3.35279e-19)
(1.02819 -0.000364575 6.183e-19)
(1.02045 0.00059476 0)
(1.01909 0.00141062 4.03528e-19)
(1.02267 -0.000685722 -9.13473e-19)
(1.02256 0.00461234 4.45006e-19)
(1.02002 0.0116687 -9.31439e-19)
(1.02075 0.0114859 0)
(1.01967 0.0122492 -1.93939e-19)
(1.01657 0.00782062 4.86112e-19)
(1.01667 0.0109355 -2.43931e-19)
(1.01726 0.0106411 1.78464e-19)
(0.0389605 1.33695 0)
(0.0394865 1.39618 0)
(0.0569304 1.34074 0)
(0.0603227 1.27821 0)
(0.0894463 1.40263 -6.36506e-20)
(0.091857 1.37683 1.44049e-20)
(0.0826754 1.57288 3.83665e-21)
(0.102888 1.40916 -3.86674e-20)
(0.044505 1.4881 4.92505e-20)
(0.0496571 1.48304 -3.88528e-20)
(0.0765612 1.39776 -2.61332e-20)
(0.0642313 1.40125 7.37668e-20)
(0.0578624 1.38161 1.22929e-20)
(0.0472496 1.39994 8.26684e-21)
(0.101969 2.37174 -9.91718e-20)
(0.0945747 2.42061 0)
(0.144213 2.01501 1.01521e-19)
(0.129648 1.70051 3.32727e-20)
(0.222285 2.0063 -8.48837e-20)
(0.189662 2.43828 0)
(0.240442 2.37976 -6.6807e-19)
(0.325505 2.35164 4.42963e-19)
(0.247625 1.98029 -2.17226e-19)
(0.135988 2.14515 1.5456e-19)
(0.111712 2.26052 0)
(0.0153451 1.85466 -2.8722e-20)
(-0.0053031 2.37513 -8.59792e-21)
(0.00342938 2.13123 0)
(0.00532759 2.43743 -1.70468e-20)
(0.0226998 2.27396 2.53863e-20)
(0.0106586 1.43653 -1.21368e-20)
(0.00631235 1.41607 2.00796e-19)
(0.00433472 1.42482 -6.58311e-20)
(0.0181089 1.434 -5.65552e-20)
(0.0207465 1.46319 0)
(0.00215496 1.40636 0)
(-0.00463852 1.30656 -7.36806e-20)
(-0.00289922 1.39428 2.12378e-20)
(0.00251257 1.39421 0)
(0.0035097 1.29808 -5.64397e-20)
(0.010554 1.21349 1.12954e-19)
(1.04249 0.0151047 0)
(1.04898 0.0105845 -6.44757e-20)
(1.03911 0.0244997 -4.6619e-19)
(1.04937 0.0234218 0)
(1.05473 0.0227085 0)
(1.0363 0.0131279 -6.77087e-21)
(1.03011 0.0135415 7.51592e-19)
(1.03206 0.0174834 9.11163e-19)
(1.02562 0.021186 0)
(1.02197 0.0217908 0)
(1.03556 0.0260845 4.65412e-19)
(1.02576 0.028205 0)
(1.02342 0.028331 0)
(-0.0204511 2.03109 0)
(-0.0101283 1.6641 -2.39044e-21)
(-0.00814739 1.76905 -3.26931e-20)
(-0.00632115 1.40069 0)
(-0.00978823 1.56754 -3.12254e-20)
(-0.0157039 1.47757 1.88972e-20)
(-0.0111048 1.41436 0)
(0.403834 1.62469 0)
(0.365831 1.31865 -2.3416e-20)
(0.275582 1.34537 0)
(0.435465 1.31703 -4.38346e-20)
(0.472869 1.47672 0)
(0.457571 1.41774 4.32116e-20)
(1.04061 2.67087 -1.51286e-20)
(0.985406 2.40957 -8.94461e-19)
(0.948064 2.21039 1.00332e-18)
(0.865487 2.38354 2.41292e-19)
(0.852931 2.48762 0)
(0.9219 2.48215 0)
(0.95473 2.38368 0)
(0.930703 2.37458 -9.34323e-19)
(0.6917 2.45146 -3.73458e-19)
(0.800539 2.43548 -9.67377e-20)
(0.807866 2.41333 7.29003e-20)
(0.704467 2.40431 0)
(0.809763 2.39788 0)
(0.770359 2.41447 -3.65789e-19)
(0.765805 2.46617 0)
(0.631529 1.0673 0)
(0.515616 0.85752 -5.53015e-19)
(0.522061 0.929769 -3.20925e-20)
(0.501884 1.07022 0)
(0.488962 0.97823 8.46824e-19)
(0.80345 0.886678 -1.31056e-19)
(0.806542 1.02166 0)
(0.787565 1.00453 1.79302e-19)
(0.676531 1.02097 0)
(0.668563 0.924432 0)
(1.16337 2.75437 -2.16477e-19)
(1.13852 2.81256 -8.73077e-20)
(0.922856 2.33471 7.13559e-20)
(0.899604 2.31583 -7.47734e-20)
(1.13309 2.73232 0)
(1.08515 2.7001 8.98065e-20)
(1.10112 2.49573 -2.94366e-19)
(1.00302 2.25568 -2.83179e-20)
(0.49722 1.32909 0)
(0.517162 1.07718 -1.02849e-19)
(0.594739 1.18263 0)
(0.847345 0.231467 0)
(0.753778 0.178706 0)
(0.660184 0.140912 0)
(0.855417 0.229434 -6.1007e-19)
(0.744655 0.22424 3.58185e-19)
(0.911577 0.0882494 -3.9138e-19)
(0.929219 0.140087 0)
(0.901254 0.147449 1.72381e-19)
(0.8406 0.108971 6.89336e-19)
(0.798597 0.0778583 -4.33029e-19)
(1.09595 3.34683 -6.72817e-19)
(1.16402 3.27031 0)
(1.114 3.43163 -1.57047e-18)
(0.655834 3.57768 1.30739e-18)
(1.02443 3.07595 1.21145e-19)
(0.533487 0.779201 5.65025e-19)
(0.512398 0.747111 0)
(0.348636 0.351752 -1.42888e-19)
(0.490093 0.626953 8.4919e-19)
(0.554851 0.339781 -1.86224e-19)
(0.520851 0.452141 2.22347e-19)
(0.690185 0.524206 4.56457e-19)
(0.737874 0.560827 0)
(0.667721 0.562371 0)
(0.652734 0.530481 0)
(1.01827 0.614321 8.74308e-20)
(0.972431 0.596427 -4.60539e-19)
(0.982981 0.608997 3.51199e-19)
(1.04656 0.551034 -3.39698e-19)
(1.09161 0.52027 0)
(1.09417 0.60305 -8.9026e-20)
(0.887052 0.423425 -7.63019e-19)
(0.874837 0.409694 -9.81868e-19)
(0.798338 0.409859 6.01183e-19)
(0.813853 0.379258 -6.23844e-19)
(0.855758 0.335629 -4.90873e-19)
(0.800286 0.338326 6.01022e-19)
(1.02658 0.00673238 -4.65644e-19)
(1.0262 0.00685417 9.38254e-19)
(1.02998 0.00097091 5.99139e-19)
(1.03418 0.0016027 -7.19386e-19)
(1.03399 0.0119799 0)
(1.02973 0.012078 -1.17669e-18)
(0.0828591 1.6488 9.85584e-21)
(0.0661636 1.60713 0)
(0.108421 1.70435 3.95634e-20)
(0.113625 1.67679 -3.48923e-20)
(0.0761688 1.57071 -7.07221e-21)
(0.0644692 1.57496 0)
(0.00673655 1.70229 0)
(-0.00935049 1.51762 1.65109e-20)
(-0.00787809 1.45904 -1.48465e-20)
(-0.0127755 1.56532 2.93746e-21)
(-0.00197732 1.89546 2.48185e-20)
(-0.014479 1.94953 -9.66831e-21)
(0.493823 1.36035 -2.55654e-19)
(0.496397 1.35521 2.79674e-19)
(0.449903 1.30941 -8.43502e-21)
(0.428511 1.2911 7.3488e-21)
(0.629401 1.31127 0)
(0.556082 1.40496 1.18487e-19)
(0.557161 1.4082 -1.15346e-19)
(0.485506 1.29729 8.13745e-21)
(0.526612 1.25056 0)
(0.591045 1.21648 0)
(0.665371 2.41503 5.49868e-19)
(0.660795 2.44541 1.26407e-18)
(0.716243 2.46041 -8.69544e-19)
(0.614696 2.43264 -1.98747e-19)
(0.557533 2.5254 2.70812e-19)
(0.498317 2.49213 -6.97448e-19)
(0.993198 2.3883 -5.65235e-19)
(1.02516 2.40586 0)
(0.952095 2.19403 -6.18143e-19)
(1.05603 2.68121 0)
(1.05494 2.66235 0)
(0.600664 2.288 8.62386e-21)
(1.11846 3.06852 7.7636e-20)
(0.995751 2.96555 -1.25653e-19)
(0.320262 0.791536 0)
(0.318208 0.669862 -3.01856e-19)
(0.525547 0.606003 -3.05001e-19)
(0.362931 2.12995 0)
(0.402705 2.74394 -8.5285e-20)
(0.412168 2.47806 0)
(0.730109 0.683935 -7.86518e-19)
(0.797398 0.69322 1.09471e-18)
(0.801215 0.659326 -1.04184e-18)
(0.703301 0.640809 -9.96734e-20)
(0.761308 0.59969 -4.11214e-19)
(0.970231 2.75168 -5.87994e-20)
(1.01388 2.75853 -2.05981e-19)
(0.551082 2.20409 4.35426e-19)
(0.603786 1.7332 -3.45176e-19)
(0.702952 1.85185 -4.90279e-19)
(0.976914 2.39213 -1.37232e-19)
(0.977081 2.34507 3.60785e-19)
(0.645579 1.76128 3.31089e-20)
(0.452001 1.29509 1.72624e-19)
)
;

boundaryField
{
    wall-4
    {
        type            noSlip;
    }
    velocity-inlet-5
    {
        type            fixedValue;
        value           uniform (1 0 0);
    }
    velocity-inlet-6
    {
        type            fixedValue;
        value           uniform (0 3 0);
    }
    pressure-outlet-7
    {
        type            zeroGradient;
    }
    wall-8
    {
        type            noSlip;
    }
    frontAndBackPlanes
    {
        type            empty;
    }
}


// ************************************************************************* //
