/*--------------------------------*- C++ -*----------------------------------*\
| =========                 |                                                 |
| \\      /  F ield         | OpenFOAM: The Open Source CFD Toolbox           |
|  \\    /   O peration     | Version:  2106                                  |
|   \\  /    A nd           | Website:  www.openfoam.com                      |
|    \\/     M anipulation  |                                                 |
\*---------------------------------------------------------------------------*/
FoamFile
{
    version     2.0;
    format      ascii;
    arch        "LSB;label=32;scalar=64";
    class       volScalarField;
    location    "2";
    object      T;
}
// * * * * * * * * * * * * * * * * * * * * * * * * * * * * * * * * * * * * * //

dimensions      [0 0 0 1 0 0 0];

internalField   nonuniform List<scalar> 
1000
(
0
0
0
0
0
0
0
0
0
0
0
0
0
0
0
0
0
0
0
0
0
0
0
0
0
0
0
0
0
0
0
0
0
0
0
0
0
0
0
0
0
0
0
0
0
0
0
0
0
0
0
0
0
0
0
0
0
0
0
0
0
0
0
0
0
0
0
0
0
0
0
0
0
0
0
0
0
0
0
0
0
0
0
0
0
0
0
0
0
0
0
0
0
0
0
0
0
0
0
0
0
0
0
0
0
0
0
0
0
0
0
0
0
0
0
0
0
0
0
0
0
0
0
0
0
0
0
0
0
0
0
0
0
0
0
0
0
0
0
0
0
0
0
0
0
0
0
0
0
0
0
0
0
0
0
0
0
0
0
0
0
0
0
0
0
0
0
0
0
0
0
0
0
0
0
0
0
0
0
0
0
0
0
0
0
0
0
0
0
0
0
0
0
0
0
0
0
0
0
0
0
0
0
0
0
0
0
0
0
0
0
0
0
0
0
0
0
0
0
0
0
0
0
0
0
0
0
0
0
0
0
0
0
0
0
0
0
0
0
0
0
0
0
0
0
0
0
0
0
0
0
0
0
0
0
0
0
0
0
0
0
0
0
0
0
0
0
0
0
0
0
0
0
0
0
0
0
0
0
0
0
0
0
0
0
0
0
0
0
0
9.88131e-324
4.79244e-322
4.29936e-320
3.8494e-318
3.43447e-316
3.05348e-314
2.70511e-312
2.3879e-310
2.10026e-308
1.84053e-306
1.60697e-304
1.39783e-302
1.21135e-300
1.04577e-298
8.99366e-297
7.70473e-295
6.57478e-293
5.58846e-291
4.73122e-289
3.9894e-287
3.35026e-285
2.802e-283
2.33378e-281
1.93568e-279
1.59872e-277
1.31479e-275
1.07663e-273
8.77783e-272
7.12518e-270
5.75802e-268
4.63232e-266
3.70982e-264
2.95743e-262
2.34672e-260
1.85342e-258
1.4569e-256
1.13974e-254
8.87317e-253
6.87428e-251
5.2994e-249
4.06494e-247
3.10231e-245
2.35556e-243
1.77934e-241
1.33705e-239
9.99405e-238
7.43036e-236
5.49447e-234
4.04076e-232
2.95524e-230
2.14925e-228
1.55424e-226
1.11751e-224
7.98843e-223
5.67696e-221
4.01036e-219
2.81599e-217
1.9653e-215
1.36314e-213
9.39575e-212
6.43532e-210
4.37945e-208
2.96104e-206
1.98887e-204
1.32699e-202
8.7941e-201
5.78812e-199
3.78326e-197
2.45547e-195
1.58236e-193
1.01235e-191
6.42938e-190
4.05299e-188
2.53574e-186
1.57438e-184
9.69933e-183
5.92861e-181
3.59494e-179
2.16226e-177
1.28988e-175
7.63066e-174
4.47599e-172
2.60301e-170
1.5006e-168
8.57421e-167
4.85517e-165
2.72417e-163
1.51432e-161
8.33856e-160
4.54763e-158
2.45602e-156
1.31329e-154
6.95176e-153
3.6422e-151
1.88837e-149
9.68701e-148
4.91571e-146
2.46714e-144
1.22441e-142
6.00755e-141
2.91348e-139
1.3963e-137
6.61145e-136
3.09222e-134
1.42822e-132
6.51272e-131
2.93134e-129
1.30194e-127
5.70457e-126
2.46512e-124
1.0503e-122
4.41084e-121
1.82527e-119
7.44034e-118
2.9866e-116
1.18014e-114
4.5889e-113
1.75527e-111
6.60202e-110
2.44083e-108
8.86647e-107
3.16325e-105
1.10789e-103
3.80755e-102
1.28344e-100
4.24105e-99
1.37317e-97
4.35406e-96
1.3513e-94
4.10248e-93
1.21766e-91
3.53119e-90
9.99903e-89
2.7628e-87
7.44382e-86
1.95429e-84
4.99582e-83
1.24255e-81
3.00449e-80
7.05691e-79
1.6087e-77
3.55611e-76
7.61581e-75
1.57869e-73
3.16447e-72
6.12783e-71
1.1452e-69
2.06344e-68
3.58093e-67
5.97937e-66
9.59705e-65
1.47916e-63
2.18713e-62
3.09972e-61
4.20715e-60
5.46429e-59
6.7867e-58
8.05575e-57
9.13416e-56
9.88999e-55
1.02234e-53
1.00887e-52
9.50486e-52
8.55109e-51
7.34876e-50
6.03573e-49
4.74051e-48
3.56288e-47
2.56447e-46
1.76922e-45
1.17098e-44
7.44247e-44
4.54681e-43
2.67273e-42
1.51321e-41
8.26005e-41
4.35148e-40
2.2146e-39
1.08989e-38
5.1917e-38
2.39599e-37
1.07226e-36
4.65733e-36
1.96502e-35
8.06024e-35
3.2168e-34
1.25006e-33
4.73357e-33
1.74786e-32
6.29775e-32
2.2157e-31
7.61656e-31
2.55974e-30
8.4155e-30
2.70804e-29
8.53411e-29
2.63524e-28
7.97734e-28
2.36856e-27
6.90088e-27
1.97384e-26
5.54497e-26
1.53055e-25
4.1527e-25
1.10795e-24
2.90791e-24
7.51052e-24
1.90959e-23
4.78122e-23
1.17926e-22
2.86607e-22
6.86608e-22
1.62181e-21
3.77824e-21
8.68351e-21
1.9694e-20
4.40881e-20
9.74464e-20
2.12703e-19
4.58616e-19
9.76993e-19
2.05683e-18
4.2802e-18
8.80606e-18
1.79159e-17
3.60514e-17
7.17655e-17
1.41352e-16
2.75525e-16
5.31581e-16
1.01532e-15
1.92015e-15
3.59613e-15
6.67077e-15
1.22581e-14
2.23175e-14
4.02628e-14
7.19884e-14
1.2758e-13
2.24143e-13
3.90434e-13
6.74382e-13
1.1552e-12
1.9627e-12
3.30789e-12
5.53096e-12
9.17594e-12
1.51061e-11
2.46805e-11
4.00224e-11
6.44237e-11
1.0295e-10
1.63339e-10
2.57324e-10
4.02568e-10
6.25472e-10
9.65223e-10
1.47958e-09
2.25309e-09
3.40869e-09
5.12391e-09
7.65346e-09
1.13604e-08
1.67587e-08
2.45719e-08
3.58111e-08
5.18815e-08
7.47233e-08
1.06999e-07
1.52341e-07
2.15673e-07
3.03634e-07
4.25116e-07
5.91966e-07
8.19877e-07
1.12951e-06
1.54793e-06
2.11036e-06
2.86243e-06
3.8629e-06
5.187e-06
6.93058e-06
9.21509e-06
1.21936e-05
1.60578e-05
2.10471e-05
2.74583e-05
3.56574e-05
4.60942e-05
5.93179e-05
7.5996e-05
9.69354e-05
0.000123107
0.000155674
0.000196019
0.000245785
0.000306905
0.000381652
0.000472678
0.000583064
0.000716376
0.000876715
0.00106878
0.00129792
0.00157022
0.00189252
0.00227251
0.0027188
0.00324095
0.00384953
0.00455619
0.00537369
0.00631592
0.00739794
0.00863602
0.0100476
0.0116512
0.0134666
0.0155145
0.0178169
0.0203964
0.0232766
0.0264816
0.0300363
0.0339658
0.0382952
0.0430498
0.0482546
0.053934
0.0601115
0.0668098
0.0740503
0.0818525
0.0902343
0.0992114
0.108797
0.119002
0.129835
0.141299
0.153396
0.166125
0.179481
0.193453
0.208029
0.223193
0.238925
0.255201
0.271994
0.289272
0.307003
0.32515
0.343673
0.36253
0.381677
0.401068
0.420657
0.440393
0.460229
0.480115
0.5
0.519836
0.539575
0.559168
0.57857
0.597737
0.616626
0.635197
0.653412
0.671238
0.68864
0.705591
0.722065
0.738038
0.753491
0.768408
0.782774
0.79658
0.809819
0.822486
0.834579
0.846099
0.857051
0.867441
0.877275
0.886564
0.89532
0.903555
0.911285
0.918525
0.925292
0.931601
0.937473
0.942923
0.947971
0.952634
0.956931
0.960879
0.964494
0.967793
0.970791
0.973503
0.975943
0.978121
0.98005
0.981738
0.983193
0.984422
0.98543
0.98622
0.986792
0.987147
0.987282
0.987193
0.986874
0.986317
0.985512
0.984448
0.983112
0.981489
0.979562
0.977315
0.974728
0.971781
0.968453
0.964723
0.960568
0.955966
0.950895
0.945332
0.939256
0.932646
0.925482
0.917746
0.909422
0.900494
0.890951
0.880783
0.869983
0.858546
0.846471
0.833762
0.820424
0.806467
0.791903
0.776749
0.761026
0.744758
0.727972
0.710699
0.692972
0.67483
0.65631
0.637456
0.618311
0.598922
0.579335
0.5596
0.539765
0.519881
0.499996
0.480161
0.460423
0.44083
0.421428
0.402262
0.383373
0.364802
0.346587
0.328762
0.311359
0.294408
0.277934
0.261961
0.246508
0.231591
0.217224
0.203418
0.190179
0.177512
0.165417
0.153895
0.142942
0.13255
0.122713
0.11342
0.104659
0.0964172
0.088679
0.0814287
0.0746492
0.0683226
0.0624305
0.0569539
0.0518734
0.0471697
0.0428232
0.0388146
0.0351246
0.0317345
0.0286257
0.0257802
0.0231806
0.0208101
0.0186525
0.0166922
0.0149144
0.0133051
0.0118509
0.0105392
0.00935809
0.00829653
0.00734406
0.00649095
0.00572817
0.00504733
0.00444065
0.00390099
0.00342175
0.00299688
0.00262084
0.00228857
0.00199547
0.00173733
0.00151036
0.00131112
0.00113651
0.000983716
0.000850234
0.000733805
0.000632412
0.000544251
0.000467714
0.000401371
0.000343953
0.000294335
0.000251524
0.00021464
0.000182911
0.000155658
0.000132283
0.000112265
9.51469e-05
8.05295e-05
6.80659e-05
5.74541e-05
4.8432e-05
4.07723e-05
3.42785e-05
2.87811e-05
2.41336e-05
2.02101e-05
1.69025e-05
1.41179e-05
1.17769e-05
9.81141e-06
8.16355e-06
6.78382e-06
5.63015e-06
4.66679e-06
3.86342e-06
3.19436e-06
2.63788e-06
2.17565e-06
1.79221e-06
1.47454e-06
1.2117e-06
9.94496e-07
8.15245e-07
6.67498e-07
5.45873e-07
4.45877e-07
3.63767e-07
2.96427e-07
2.41269e-07
1.96145e-07
1.59275e-07
1.29185e-07
1.04659e-07
8.46915e-08
6.84553e-08
5.52687e-08
4.45717e-08
3.59044e-08
2.88901e-08
2.32201e-08
1.86421e-08
1.49501e-08
1.19761e-08
9.58315e-09
7.65995e-09
6.11604e-09
4.87803e-09
3.88642e-09
3.09306e-09
2.45902e-09
1.95287e-09
1.54926e-09
1.22777e-09
9.71967e-10
7.68658e-10
6.07243e-10
4.79227e-10
3.77808e-10
2.97547e-10
2.34096e-10
1.83989e-10
1.4446e-10
1.13309e-10
8.87865e-11
6.95014e-11
5.43509e-11
4.24609e-11
3.31392e-11
2.58386e-11
2.01265e-11
1.56619e-11
1.21759e-11
9.45662e-12
7.33758e-12
5.68792e-12
4.40494e-12
3.4081e-12
2.63436e-12
2.03436e-12
1.56955e-12
1.2098e-12
9.31642e-13
7.16774e-13
5.50954e-13
4.23106e-13
3.24628e-13
2.48843e-13
1.90578e-13
1.45824e-13
1.11479e-13
8.51465e-14
6.49762e-14
4.954e-14
3.77376e-14
2.87216e-14
2.18405e-14
1.65935e-14
1.25961e-14
9.55334e-15
7.23938e-15
5.48118e-15
4.14644e-15
3.13405e-15
2.36684e-15
1.78593e-15
1.34646e-15
1.01428e-15
7.63416e-16
5.7412e-16
4.31404e-16
3.23898e-16
2.42982e-16
1.82132e-16
1.36409e-16
1.02082e-16
7.63312e-17
5.70303e-17
4.25757e-17
3.17592e-17
2.36719e-17
1.763e-17
1.31198e-17
9.75579e-18
7.24865e-18
5.38161e-18
3.99237e-18
2.95946e-18
2.1921e-18
1.62246e-18
1.19993e-18
8.86759e-19
6.54826e-19
4.83191e-19
3.56274e-19
2.62497e-19
1.93259e-19
1.42177e-19
1.0452e-19
7.67801e-20
5.63609e-20
4.13418e-20
3.03028e-20
2.21953e-20
1.62451e-20
1.18815e-20
8.6838e-21
6.34214e-21
4.62862e-21
3.37566e-21
2.46013e-21
1.79164e-21
1.30388e-21
9.48246e-22
6.8913e-22
5.00472e-22
3.63209e-22
2.63411e-22
1.90903e-22
1.3826e-22
1.00065e-22
7.23719e-23
5.23077e-23
3.77806e-23
2.72699e-23
1.97093e-23
)
;

boundaryField
{
    sides
    {
        type            zeroGradient;
    }
    empty
    {
        type            empty;
    }
}


// ************************************************************************* //
