/*--------------------------------*- C++ -*----------------------------------*\
  =========                 |
  \\      /  F ield         | OpenFOAM: The Open Source CFD Toolbox
   \\    /   O peration     | Website:  https://openfoam.org
    \\  /    A nd           | Version:  6
     \\/     M anipulation  |
\*---------------------------------------------------------------------------*/
FoamFile
{
    version     2.0;
    format      ascii;
    class       volScalarField;
    location    "44.3";
    object      p;
}
// * * * * * * * * * * * * * * * * * * * * * * * * * * * * * * * * * * * * * //

dimensions      [0 2 -2 0 0 0 0];

internalField   nonuniform List<scalar> 
8800
(
0.863869
0.81455
0.776578
0.748498
0.728319
0.713704
0.703068
0.695479
0.690526
0.688365
0.689633
0.693888
0.700617
0.709993
0.722695
0.739991
0.763852
0.79694
0.839871
0.892383
0.698377
0.704719
0.713861
0.717399
0.714776
0.708668
0.701698
0.695411
0.690547
0.687593
0.687258
0.689786
0.694349
0.700418
0.707477
0.714483
0.719341
0.719204
0.712519
0.703614
0.671924
0.678155
0.682646
0.686502
0.68943
0.690351
0.689223
0.687044
0.684985
0.684045
0.684963
0.687319
0.690132
0.692349
0.69283
0.691013
0.687626
0.683598
0.678808
0.675091
0.667674
0.670436
0.67303
0.67517
0.676884
0.67842
0.679478
0.679767
0.679566
0.679549
0.680229
0.681266
0.681926
0.681713
0.680691
0.679302
0.677607
0.675287
0.672865
0.671298
0.662685
0.664107
0.665933
0.667993
0.669678
0.670933
0.671978
0.672884
0.673591
0.674194
0.674764
0.675106
0.675035
0.674598
0.673875
0.672719
0.671031
0.669114
0.66775
0.666947
0.657781
0.658682
0.659914
0.661517
0.663179
0.664667
0.665891
0.666928
0.667875
0.668739
0.669359
0.669607
0.669505
0.669049
0.66818
0.66694
0.665538
0.664243
0.663409
0.662886
0.652983
0.653637
0.654583
0.655873
0.657283
0.658749
0.660163
0.661429
0.662556
0.663579
0.664334
0.66466
0.664542
0.663998
0.663135
0.662129
0.661086
0.660146
0.659553
0.65917
0.64829
0.648793
0.649563
0.650674
0.651932
0.653292
0.654721
0.656151
0.657511
0.658763
0.659681
0.660077
0.659986
0.659529
0.658861
0.658091
0.657286
0.656581
0.656139
0.655842
0.643654
0.644055
0.644698
0.645686
0.646869
0.64817
0.649584
0.651098
0.652654
0.654155
0.655288
0.655838
0.655902
0.655644
0.65519
0.65462
0.654006
0.653483
0.65315
0.652911
0.638997
0.639324
0.639879
0.640788
0.64192
0.643203
0.644646
0.646247
0.647975
0.649737
0.651156
0.651966
0.652274
0.652243
0.651995
0.651626
0.651189
0.650817
0.650567
0.650368
0.63424
0.63451
0.635005
0.635866
0.636981
0.638284
0.639788
0.641509
0.643437
0.645501
0.647282
0.648434
0.649045
0.649275
0.649252
0.64908
0.648815
0.648573
0.648389
0.648219
0.629302
0.62953
0.629986
0.630827
0.63196
0.633323
0.63493
0.636823
0.639013
0.641453
0.643678
0.645244
0.646205
0.646731
0.646956
0.646988
0.646893
0.646767
0.646636
0.646488
0.624098
0.624291
0.624727
0.625582
0.626775
0.628246
0.630018
0.632157
0.634704
0.63763
0.640391
0.642433
0.643791
0.644642
0.645134
0.645372
0.64545
0.645432
0.645348
0.645216
0.61854
0.618705
0.619139
0.620036
0.621333
0.622964
0.624969
0.627439
0.630435
0.633956
0.637377
0.64
0.64182
0.643038
0.64383
0.644313
0.644562
0.644642
0.644596
0.644475
0.612521
0.612663
0.61311
0.614079
0.615522
0.617368
0.619674
0.62256
0.626128
0.630398
0.634617
0.637924
0.6403
0.64196
0.643096
0.643843
0.644279
0.644464
0.644455
0.644341
0.605919
0.606036
0.606509
0.607576
0.609212
0.611342
0.614029
0.617432
0.621686
0.626853
0.632057
0.636224
0.639279
0.641465
0.643005
0.644054
0.644707
0.645001
0.645027
0.644919
0.598568
0.598661
0.599176
0.600374
0.602262
0.604758
0.607949
0.612027
0.617168
0.623458
0.629854
0.635023
0.63887
0.641662
0.643674
0.645075
0.645968
0.646378
0.646439
0.646331
0.590253
0.590349
0.590912
0.592276
0.594493
0.597455
0.601277
0.606203
0.612455
0.620136
0.62797
0.634347
0.639118
0.642635
0.645223
0.647031
0.648192
0.648726
0.648821
0.648713
0.58067
0.580745
0.581388
0.582982
0.585625
0.58918
0.5938
0.599782
0.607405
0.616798
0.62637
0.634187
0.640088
0.644477
0.647743
0.650049
0.651524
0.652199
0.652331
0.652218
0.569491
0.569549
0.570295
0.572186
0.575357
0.579672
0.585316
0.592646
0.601968
0.613436
0.625145
0.634706
0.641926
0.647342
0.651401
0.654295
0.656134
0.656962
0.657127
0.657006
0.556173
0.556221
0.557109
0.559398
0.563274
0.5686
0.575599
0.584697
0.596242
0.610326
0.62452
0.636046
0.644787
0.651383
0.656357
0.659929
0.662176
0.663168
0.663364
0.663231
0.539941
0.539982
0.541078
0.543925
0.548758
0.555439
0.56422
0.575572
0.589826
0.607032
0.624251
0.638153
0.648681
0.656666
0.662731
0.667097
0.669806
0.670968
0.671186
0.671035
0.519664
0.51971
0.521133
0.524815
0.531039
0.53965
0.550916
0.565321
0.58312
0.604162
0.624821
0.641316
0.653809
0.663356
0.670628
0.675902
0.67911
0.680433
0.680656
0.680481
0.49354
0.493618
0.495626
0.500687
0.509082
0.520562
0.535338
0.553795
0.575985
0.601557
0.626154
0.645576
0.660241
0.671491
0.680094
0.68634
0.690045
0.691495
0.691702
0.691496
0.458506
0.458714
0.461927
0.469549
0.481637
0.497534
0.517339
0.541156
0.568759
0.599584
0.628515
0.651051
0.668009
0.681042
0.691088
0.698309
0.702442
0.703949
0.704108
0.703868
0.408777
0.409855
0.416301
0.429247
0.447824
0.470588
0.497374
0.527967
0.561949
0.598613
0.632156
0.657908
0.677189
0.692035
0.703482
0.711603
0.716006
0.717463
0.717544
0.71727
0.335912
0.343254
0.358118
0.380836
0.409114
0.441075
0.476367
0.514737
0.555804
0.598875
0.637469
0.666777
0.688688
0.705599
0.71864
0.727583
0.73224
0.733684
0.733738
0.733496
0.258152
0.274175
0.298366
0.331617
0.370154
0.411505
0.455413
0.501821
0.550458
0.600734
0.645444
0.67931
0.704669
0.72426
0.739234
0.749235
0.754093
0.755459
0.755545
0.755427
0.191603
0.211237
0.243243
0.285524
0.333149
0.38333
0.435623
0.489928
0.545983
0.603225
0.653746
0.69189
0.72042
0.742482
0.759167
0.76993
0.774825
0.77622
0.776361
0.776315
0.137158
0.159015
0.19638
0.245173
0.2999
0.357487
0.417204
0.478782
0.54181
0.605664
0.661642
0.703767
0.735202
0.759365
0.777578
0.789295
0.794848
0.79629
0.796443
0.796441
0.0918731
0.115061
0.156301
0.210198
0.270642
0.334341
0.400392
0.468407
0.537795
0.607803
0.668901
0.714694
0.748759
0.774875
0.794519
0.807302
0.813394
0.815008
0.815253
0.815284
0.0531366
0.0771488
0.121271
0.179307
0.244569
0.313494
0.385033
0.458743
0.533903
0.609581
0.675455
0.724606
0.76107
0.78898
0.809869
0.82335
0.829921
0.831834
0.832167
0.832217
0.0189693
0.0435599
0.0899542
0.151424
0.220797
0.294273
0.370688
0.449526
0.52997
0.61089
0.681168
0.733447
0.772043
0.801455
0.823236
0.837292
0.844261
0.846501
0.846907
0.846949
-0.0120639
0.013017
0.0612948
0.125689
0.198622
0.276087
0.356877
0.440406
0.525732
0.611577
0.685993
0.74119
0.781716
0.812299
0.834688
0.849088
0.856366
0.858835
0.859315
0.859349
-0.0409265
-0.0153768
0.034505
0.10146
0.17751
0.258504
0.343241
0.431076
0.52097
0.611504
0.689933
0.747928
0.790244
0.821794
0.844604
0.859238
0.866732
0.869376
0.86988
0.869893
-0.0683807
-0.0423043
0.00905184
0.0782804
0.157068
0.24121
0.32952
0.421322
0.515521
0.61057
0.692988
0.753767
0.797798
0.830217
0.85341
0.868241
0.875863
0.878576
0.879067
0.879039
-0.0947544
-0.0681925
-0.015477
0.0557952
0.13703
0.224
0.315557
0.411019
0.509279
0.60874
0.695166
0.758779
0.804522
0.837801
0.861358
0.876345
0.884002
0.886712
0.887225
0.88719
-0.120454
-0.0933116
-0.0393388
0.03379
0.117222
0.20674
0.301256
0.400095
0.502186
0.605967
0.696465
0.763027
0.810557
0.84476
0.868717
0.88383
0.891485
0.89414
0.894598
0.894528
-0.145575
-0.117843
-0.0626775
0.0121412
0.0975483
0.189367
0.286572
0.388524
0.494223
0.602216
0.69687
0.766552
0.816031
0.85127
0.875682
0.890904
0.898492
0.901042
0.901409
0.901283
-0.170207
-0.141874
-0.0855785
-0.00920441
0.0779853
0.171872
0.271507
0.376309
0.485386
0.597462
0.696333
0.76936
0.821018
0.857449
0.88235
0.897613
0.905011
0.907374
0.907633
0.907463
-0.194415
-0.165453
-0.108051
-0.0302521
0.0585301
0.154276
0.2561
0.363489
0.475695
0.591677
0.694787
0.7714
0.825569
0.863415
0.888827
0.904013
0.911091
0.913177
0.913323
0.913124
-0.218217
-0.188553
-0.130076
-0.050979
0.0392321
0.136628
0.240409
0.350121
0.465187
0.584836
0.692155
0.772589
0.829682
0.869297
0.895293
0.91021
0.916744
0.918458
0.918485
0.918267
-0.241438
-0.211117
-0.151615
-0.0713524
0.0201405
0.119006
0.224503
0.336287
0.45392
0.576955
0.68836
0.772814
0.833281
0.875201
0.902016
0.916444
0.922064
0.923224
0.923116
0.922898
-0.264029
-0.233088
-0.17263
-0.0913113
0.00132373
0.101477
0.208481
0.322067
0.441976
0.568056
0.683353
0.771943
0.836215
0.881128
0.909345
0.923228
0.927359
0.927534
0.927216
0.927039
-0.286036
-0.254418
-0.19308
-0.110807
-0.017147
0.0841304
0.192437
0.30757
0.429445
0.5582
0.677082
0.769843
0.838246
0.886867
0.917527
0.93146
0.933628
0.931838
0.930831
0.930865
-0.307288
-0.275069
-0.212899
-0.129763
-0.0352063
0.0670542
0.176471
0.292905
0.416445
0.547485
0.669532
0.766368
0.839099
0.891941
0.926323
0.942027
0.943087
0.938435
0.934696
0.932938
-0.327872
-0.295039
-0.232087
-0.148209
-0.052889
0.0502031
0.160526
0.278007
0.402894
0.535839
0.660547
0.761251
0.838482
0.895731
0.934778
0.954751
0.957773
0.951819
0.940894
0.939944
-0.347699
-0.314398
-0.25078
-0.166342
-0.0705006
0.0332253
0.14417
0.262367
0.388218
0.522595
0.649429
0.75367
0.835796
0.897342
0.940733
0.966362
0.972656
0.963336
0.945219
0.940968
-0.366623
-0.333112
-0.268805
-0.183948
-0.087783
0.0164313
0.12762
0.246316
0.372726
0.50802
0.636288
0.743106
0.830403
0.895619
0.939634
0.96501
0.975148
0.952985
0.894285
0.868339
-0.384527
-0.352012
-0.285746
-0.200492
-0.104039
0.000313924
0.11115
0.230128
0.356699
0.492295
0.621216
0.729082
0.821469
0.889942
0.926944
0.94625
0.940863
0.893444
0.832213
0.794496
-0.429074
-0.370266
-0.301473
-0.21658
-0.120063
-0.0160499
0.094891
0.213686
0.339941
0.475095
0.603851
0.711162
0.805528
0.87882
0.902075
0.897664
0.858819
0.798855
0.731961
0.695141
-0.404379
-0.385858
-0.325244
-0.240449
-0.144387
-0.0405746
0.0696623
0.187801
0.313049
0.446543
0.573344
0.678046
0.763545
0.842321
0.83285
0.734361
0.650411
0.591885
0.530488
0.559758
-0.436486
-0.404414
-0.342911
-0.258653
-0.162665
-0.0591672
0.0512337
0.168719
0.292924
0.424564
0.548582
0.64962
0.725337
0.768864
0.72482
0.593959
0.491172
0.421792
0.342251
0.390187
-0.461582
-0.42705
-0.363686
-0.279228
-0.183287
-0.0798341
0.030497
0.147206
0.270049
0.399253
0.519433
0.614544
0.679218
0.686431
0.588157
0.439984
0.316452
0.228091
0.135058
0.168521
-0.486094
-0.450442
-0.385637
-0.300472
-0.204362
-0.100982
0.00890544
0.12469
0.245956
0.372354
0.487794
0.576044
0.624123
0.600062
0.449989
0.279219
0.124221
-0.00570217
-0.127373
-0.113029
-0.510366
-0.47427
-0.408509
-0.322717
-0.22636
-0.123119
-0.0138148
0.100914
0.220334
0.343558
0.453578
0.534615
0.563068
0.496871
0.314475
0.123059
-0.0594597
-0.209486
-0.41234
-0.491291
-0.535077
-0.499001
-0.432652
-0.346379
-0.249762
-0.146613
-0.0378189
0.0758341
0.193301
0.313124
0.417408
0.489315
0.494586
0.37734
0.19114
-0.0127146
-0.200181
-0.358531
-0.480115
-0.598569
-0.561312
-0.525122
-0.458434
-0.37187
-0.275133
-0.172165
-0.0639689
0.04844
0.163621
0.27951
0.377604
0.437687
0.417092
0.263521
0.0757661
-0.122135
-0.293048
-0.387248
-0.412806
-0.426385
-0.589213
-0.552925
-0.485991
-0.3993
-0.302628
-0.200005
-0.0926485
0.0182105
0.130665
0.241888
0.333303
0.376886
0.338187
0.154311
-0.031742
-0.209383
-0.337937
-0.374472
-0.3832
-0.383543
-0.619062
-0.582535
-0.51536
-0.428649
-0.332193
-0.230145
-0.123887
-0.0149177
0.0943529
0.200187
0.28395
0.312164
0.24351
0.0543111
-0.125608
-0.279827
-0.351127
-0.364907
-0.365776
-0.365579
-0.650872
-0.613987
-0.546554
-0.459913
-0.363843
-0.262578
-0.157698
-0.0509738
0.0546827
0.154481
0.229283
0.243187
0.13722
-0.0368066
-0.206224
-0.327577
-0.354822
-0.355791
-0.356313
-0.355783
-0.684383
-0.647108
-0.579464
-0.493005
-0.397487
-0.297248
-0.194059
-0.0899493
0.0116968
0.104883
0.17032
0.165537
0.041119
-0.122254
-0.269834
-0.336354
-0.351594
-0.351114
-0.351346
-0.350958
-0.719021
-0.681542
-0.61382
-0.527687
-0.432928
-0.333988
-0.232818
-0.131735
-0.0344085
0.051764
0.107146
0.0862347
-0.0491587
-0.199834
-0.313614
-0.346678
-0.346658
-0.347301
-0.347307
-0.347232
-0.754346
-0.716754
-0.649129
-0.563526
-0.469795
-0.372457
-0.27368
-0.176058
-0.0833951
-0.00397117
0.0383536
0.0103162
-0.133089
-0.263295
-0.344018
-0.34932
-0.34813
-0.3454
-0.344325
-0.344079
-0.7894
-0.751849
-0.68463
-0.599858
-0.507514
-0.412146
-0.316154
-0.222417
-0.134904
-0.0614408
-0.0306974
-0.0683641
-0.208994
-0.317489
-0.359287
-0.365421
-0.355837
-0.350636
-0.347451
-0.345873
-0.822271
-0.785514
-0.71927
-0.63576
-0.545266
-0.452319
-0.359511
-0.270061
-0.188172
-0.120273
-0.0957254
-0.152469
-0.277512
-0.374015
-0.387337
-0.377982
-0.368354
-0.361012
-0.357321
-0.355579
-0.851926
-0.816241
-0.751623
-0.669994
-0.581934
-0.491996
-0.402796
-0.318
-0.241946
-0.17992
-0.159287
-0.227912
-0.336791
-0.424719
-0.439545
-0.408661
-0.385878
-0.374119
-0.370511
-0.368884
-0.875635
-0.841904
-0.779911
-0.700999
-0.616121
-0.529912
-0.444867
-0.364965
-0.29489
-0.238521
-0.220906
-0.286396
-0.379871
-0.454473
-0.450332
-0.438329
-0.421425
-0.415841
-0.413397
-0.411338
-0.891257
-0.860323
-0.802014
-0.72696
-0.646225
-0.564511
-0.484388
-0.409501
-0.345504
-0.294002
-0.274203
-0.328774
-0.391339
-0.474552
-0.492363
-0.497284
-0.5136
-0.514568
-0.508213
-0.503838
-0.896085
-0.869073
-0.815773
-0.745933
-0.67053
-0.594156
-0.519732
-0.450114
-0.392011
-0.34628
-0.318017
-0.359695
-0.37603
-0.394159
-0.47822
-0.569455
-0.614395
-0.616399
-0.608572
-0.606751
-0.887975
-0.865784
-0.819057
-0.756065
-0.687356
-0.617418
-0.549062
-0.485401
-0.432396
-0.395183
-0.353783
-0.408848
-0.382563
-0.323738
-0.428979
-0.581897
-0.636462
-0.64461
-0.649887
-0.652145
-0.863888
-0.847339
-0.809834
-0.756052
-0.695419
-0.633048
-0.571116
-0.513668
-0.465056
-0.436324
-0.418039
-0.518733
-0.557123
-0.471616
-0.540441
-0.67415
-0.727645
-0.721892
-0.723253
-0.723211
-0.827001
-0.816252
-0.788828
-0.745891
-0.694647
-0.640116
-0.585237
-0.532978
-0.489449
-0.465915
-0.481992
-0.661105
-0.940188
-1.18634
-1.25283
-1.28089
-1.1301
-0.947748
-0.864193
-0.865034
-0.783766
-0.777681
-0.760764
-0.728473
-0.686638
-0.639465
-0.590271
-0.542277
-0.502458
-0.480962
-0.501987
-0.716177
-1.07831
-1.52826
-1.73792
-1.79813
-1.68538
-1.46376
-1.27537
-1.19295
-0.743784
-0.740311
-0.731707
-0.70903
-0.674587
-0.63265
-0.586842
-0.540677
-0.498814
-0.473474
-0.498104
-0.573581
-0.727616
-0.936785
-0.968095
-0.946534
-0.914776
-0.84956
-0.773708
-0.720595
-0.713743
-0.711739
-0.707453
-0.692165
-0.662817
-0.622846
-0.577771
-0.526801
-0.475015
-0.43269
-0.403101
-0.372264
-0.191485
-0.0445618
0.0506165
0.0734778
0.168446
0.232026
0.271305
0.295587
-0.690155
-0.689371
-0.688159
-0.679735
-0.654702
-0.614556
-0.563885
-0.506683
-0.440511
-0.366651
-0.288075
-0.163222
0.0324607
0.258217
0.509448
0.747357
0.93255
1.03705
1.12535
1.16101
-0.675749
-0.675332
-0.674973
-0.670886
-0.650296
-0.608889
-0.551136
-0.482577
-0.400262
-0.299661
-0.195675
-0.0145034
0.237294
0.596414
1.00366
1.3476
1.58367
1.76187
1.86654
1.90263
-0.666127
-0.665727
-0.665025
-0.663802
-0.648795
-0.607644
-0.543612
-0.461291
-0.369796
-0.253658
-0.130699
-0.00208411
0.324996
0.687197
1.11103
1.51947
1.84267
2.04784
2.14453
2.17416
-0.663373
-0.661549
-0.65813
-0.657657
-0.651609
-0.613642
-0.54263
-0.450159
-0.344914
-0.236063
-0.103719
0.00842506
0.210849
0.581215
0.994402
1.37896
1.66851
1.84533
1.92826
1.95092
-0.682081
-0.678785
-0.675359
-0.677146
-0.674885
-0.631732
-0.544396
-0.442051
-0.329255
-0.217301
-0.0931444
0.0281767
0.172523
0.473257
0.813774
1.10782
1.32933
1.46386
1.52222
1.53742
-0.724955
-0.725726
-0.734191
-0.740477
-0.727919
-0.656961
-0.542069
-0.426028
-0.315635
-0.198835
-0.0916865
0.0184313
0.115289
0.291406
0.565781
0.797861
0.968464
1.06452
1.10391
1.11298
-0.747664
-0.757745
-0.775321
-0.781827
-0.750333
-0.649068
-0.51736
-0.398664
-0.292512
-0.187707
-0.0931024
-0.00808746
0.0685737
0.191467
0.372552
0.527164
0.646601
0.715394
0.743259
0.749099
-0.662429
-0.674745
-0.691726
-0.69538
-0.658331
-0.560951
-0.451429
-0.352026
-0.25918
-0.176442
-0.100967
-0.0378785
0.000940813
0.0742209
0.213122
0.325463
0.404227
0.444996
0.461814
0.46318
-0.454361
-0.463371
-0.475807
-0.480228
-0.457604
-0.404989
-0.344517
-0.279927
-0.218054
-0.15869
-0.111141
-0.0641725
-0.0414525
0.00279221
0.0850783
0.160679
0.214296
0.244074
0.25446
0.25519
-0.218154
-0.222701
-0.231237
-0.241315
-0.245024
-0.239093
-0.224222
-0.199893
-0.170394
-0.133552
-0.112838
-0.0961535
-0.0921429
-0.0580498
0.0118755
0.0600895
0.0886185
0.101573
0.105768
0.105083
-0.0477086
-0.0500522
-0.0574119
-0.0729521
-0.0943063
-0.114793
-0.127197
-0.130715
-0.124091
-0.110659
-0.104501
-0.114135
-0.126039
-0.101925
-0.0521384
-0.0208517
-0.00160541
0.00622527
0.00836023
0.00776291
0.0376807
0.0361142
0.0295531
0.0133289
-0.0121697
-0.0397572
-0.0630305
-0.0782059
-0.0853713
-0.0848484
-0.0884775
-0.104701
-0.120808
-0.0936063
-0.0627081
-0.0479373
-0.0427619
-0.043233
-0.0443619
-0.0448112
0.0663317
0.0651257
0.059953
0.0468059
0.0254554
0.000699546
-0.0227173
-0.0414923
-0.0532715
-0.0588109
-0.064267
-0.0740494
-0.0822807
-0.0621429
-0.0484322
-0.0448526
-0.0487922
-0.0525948
-0.0541397
-0.0544434
0.0680884
0.067262
0.0636533
0.0543094
0.0386315
0.0192809
-6.36928e-05
-0.0169304
-0.0286902
-0.0337106
-0.0333695
-0.0304677
-0.0241057
-0.00935499
-0.0114616
-0.0196156
-0.0277441
-0.0320957
-0.0332661
-0.0335751
0.0593076
0.0588166
0.0565082
0.0503315
0.0395647
0.0257933
0.0110186
-0.00193755
-0.0109387
-0.0123653
-0.00279715
0.0144747
0.0370807
0.0450917
0.0353474
0.0210356
0.0116675
0.00754984
0.00642696
0.005861
0.047084
0.0468194
0.0454393
0.041554
0.0345679
0.025212
0.014952
0.00573375
-2.75029e-05
0.00165248
0.0185603
0.0461415
0.0780161
0.0794885
0.066149
0.053705
0.0494693
0.049117
0.0480954
0.046866
0.0343631
0.0342288
0.0334472
0.0311797
0.0268389
0.0207878
0.0138239
0.00769227
0.00374296
0.00699873
0.0251686
0.0546474
0.0862471
0.0829098
0.0697256
0.0649703
0.0656261
0.0685967
0.0696296
0.0682498
0.0225784
0.022478
0.0220271
0.0207718
0.0181905
0.014393
0.00959117
0.00510082
0.00178902
0.00378414
0.0168536
0.0385644
0.0599082
0.0533247
0.0475759
0.0501534
0.0573218
0.0628101
0.0635495
0.0618666
0.0125348
0.012433
0.0121375
0.0114277
0.00992007
0.00741986
0.00387713
-0.000113995
-0.00442654
-0.00646433
-0.00442563
0.00294449
0.00921404
0.00280961
0.0030603
0.0120802
0.0217639
0.0269106
0.0275566
0.0263076
0.00476057
0.00464435
0.0044005
0.00395672
0.00297738
0.00116041
-0.00179465
-0.00612145
-0.012307
-0.0204453
-0.0314942
-0.0447257
-0.0608105
-0.067285
-0.0564601
-0.0400924
-0.0277583
-0.0227845
-0.0221798
-0.0229745
-0.000635414
-0.000767965
-0.00101286
-0.00140242
-0.0021752
-0.00378726
-0.00645459
-0.0112644
-0.0190025
-0.0326215
-0.0563832
-0.0922566
-0.124991
-0.130955
-0.109053
-0.0876926
-0.0765032
-0.0731615
-0.0725302
-0.0726383
-0.00373051
-0.00387087
-0.00413119
-0.00454628
-0.00524279
-0.00668817
-0.00917484
-0.013943
-0.0224435
-0.0393489
-0.0692956
-0.113514
-0.153836
-0.151763
-0.129092
-0.112068
-0.106182
-0.104846
-0.103859
-0.103427
-0.00481106
-0.0049403
-0.00519319
-0.00559539
-0.00625615
-0.0075231
-0.00990617
-0.0142652
-0.0219236
-0.0382519
-0.0656687
-0.103513
-0.131878
-0.124271
-0.110668
-0.104326
-0.104546
-0.10559
-0.104911
-0.104572
-0.00437344
-0.00449447
-0.00471563
-0.00503796
-0.00555634
-0.00648432
-0.00842913
-0.0117917
-0.0179364
-0.0299846
-0.0497096
-0.0718347
-0.0841072
-0.0783841
-0.0749779
-0.0775963
-0.0808583
-0.082231
-0.0818816
-0.081786
-0.00282599
-0.00291694
-0.00304916
-0.00326125
-0.00352816
-0.00414272
-0.00527317
-0.00710744
-0.0111008
-0.017832
-0.0274453
-0.0341615
-0.0348843
-0.0313188
-0.0356272
-0.0419347
-0.0454104
-0.0458523
-0.0455636
-0.0457576
-0.000437152
-0.000470431
-0.000479387
-0.00051617
-0.000727531
-0.000854415
-0.000894211
-0.00104952
-0.0014509
-0.00263115
-0.00415647
-0.00277997
-0.000259754
-0.00115094
-0.00593852
-0.00825793
-0.00867553
-0.00868123
-0.00928278
-0.00918567
0.02158
0.211385
0.386152
0.534934
0.655476
0.752045
0.833094
0.89888
0.915684
0.911752
0.315767
0.438341
0.553471
0.654065
0.739348
0.810213
0.866182
0.903978
0.924117
0.940596
0.515762
0.597705
0.678936
0.750571
0.811968
0.862982
0.903117
0.933591
0.956397
0.975635
0.663548
0.72127
0.780299
0.833429
0.879297
0.91824
0.950823
0.97807
0.998554
1.01747
0.780825
0.824917
0.869222
0.910245
0.946714
0.978886
1.00697
1.03073
1.0488
1.06685
0.880983
0.916829
0.952024
0.986082
1.01746
1.04582
1.07084
1.09181
1.10767
1.12515
0.969403
1.00179
1.03419
1.06547
1.0946
1.12109
1.1443
1.1633
1.17727
1.1943
1.05673
1.08944
1.12198
1.15326
1.1821
1.20796
1.23015
1.24773
1.26016
1.2767
1.15132
1.18776
1.22258
1.2551
1.28433
1.30974
1.33091
1.34724
1.35889
1.37504
1.26445
1.30499
1.34208
1.37512
1.40367
1.4277
1.44736
1.46266
1.47458
1.49066
1.4058
1.44696
1.48225
1.5119
1.53714
1.55878
1.5773
1.5928
1.60593
1.62188
1.57744
1.60998
1.63684
1.65915
1.67925
1.69798
1.71573
1.73251
1.74743
1.76316
1.76386
1.78116
1.79829
1.81497
1.83107
1.84581
1.85972
1.8742
1.88945
1.90674
1.94724
1.95724
1.97045
1.98144
1.99085
2.00051
2.01112
2.02131
2.0306
2.05627
2.16518
2.15948
2.14654
2.13228
2.12598
2.1317
2.14984
2.17837
2.21213
2.24846
2.468
2.33203
2.25254
2.21003
2.19271
2.19669
2.22412
2.28199
2.38965
2.56806
0.767566
0.761261
0.753527
0.742404
0.728822
0.716158
0.705739
0.697695
0.691934
0.688546
0.688125
0.690894
0.696075
0.703394
0.712917
0.724728
0.738278
0.751199
0.760183
0.76772
0.676652
0.682569
0.690637
0.696761
0.699818
0.69929
0.696181
0.692152
0.688516
0.686172
0.685968
0.688153
0.691853
0.696259
0.700332
0.702558
0.70147
0.696823
0.689762
0.681925
0.669933
0.672305
0.675567
0.67833
0.680766
0.682936
0.684089
0.683905
0.682918
0.682045
0.682183
0.683524
0.685249
0.686435
0.686327
0.684836
0.68266
0.680285
0.677294
0.674272
0.665188
0.666276
0.668187
0.670513
0.672369
0.673746
0.674934
0.675885
0.676428
0.676732
0.6772
0.677863
0.678266
0.678098
0.67743
0.676478
0.675125
0.673138
0.671019
0.669538
0.660222
0.660856
0.661979
0.663723
0.665547
0.667115
0.668331
0.669346
0.670261
0.671072
0.671759
0.672189
0.672253
0.671987
0.671404
0.670393
0.668938
0.667307
0.665955
0.66515
0.655372
0.655811
0.656594
0.657884
0.659384
0.660918
0.662354
0.663595
0.664672
0.665659
0.666495
0.666987
0.667076
0.666768
0.666048
0.665003
0.663813
0.662642
0.661721
0.661184
0.650629
0.650957
0.651564
0.652618
0.65389
0.655256
0.656688
0.658098
0.659402
0.66059
0.6616
0.662209
0.662322
0.661986
0.661316
0.660474
0.65958
0.658692
0.658009
0.657614
0.645973
0.646228
0.646716
0.647611
0.648759
0.65003
0.6514
0.652855
0.654335
0.655764
0.656995
0.657747
0.657946
0.657731
0.657256
0.656633
0.655939
0.655265
0.654758
0.654456
0.641337
0.64154
0.641945
0.642731
0.643798
0.645019
0.646371
0.647864
0.649473
0.65113
0.652624
0.653599
0.653997
0.653993
0.653731
0.653311
0.652806
0.652312
0.651939
0.651701
0.63664
0.636803
0.63715
0.637862
0.638882
0.640079
0.641453
0.643016
0.64476
0.646637
0.648437
0.649742
0.650435
0.650693
0.650657
0.650442
0.650124
0.64979
0.649528
0.649338
0.631802
0.631935
0.63224
0.632907
0.633908
0.635127
0.636557
0.638231
0.64016
0.642323
0.644506
0.646203
0.647246
0.647804
0.648025
0.648026
0.647894
0.647709
0.647539
0.647385
0.626741
0.626848
0.627124
0.627772
0.62879
0.630071
0.631606
0.633443
0.635625
0.638147
0.640797
0.642981
0.644435
0.645336
0.64584
0.64607
0.646124
0.646086
0.645995
0.645871
0.621372
0.621457
0.621718
0.622371
0.623441
0.62483
0.626528
0.628608
0.631134
0.634129
0.637362
0.640116
0.642041
0.643322
0.644134
0.644622
0.644877
0.644972
0.644951
0.64485
0.615601
0.615666
0.61592
0.616601
0.617761
0.619304
0.621224
0.62362
0.626583
0.630164
0.634114
0.637567
0.640057
0.641789
0.642957
0.643731
0.644203
0.644442
0.644486
0.644402
0.609304
0.60935
0.609604
0.610335
0.611622
0.613371
0.615581
0.618374
0.621876
0.626175
0.631003
0.635302
0.638485
0.640764
0.642357
0.643451
0.644174
0.644566
0.644675
0.644609
0.602347
0.602372
0.602632
0.603436
0.604892
0.60691
0.609498
0.612799
0.61698
0.622168
0.628068
0.633403
0.637412
0.64034
0.642422
0.6439
0.644909
0.645465
0.645642
0.64559
0.594553
0.594568
0.59483
0.595727
0.597403
0.599768
0.60284
0.606801
0.611856
0.618162
0.625372
0.631951
0.636931
0.640606
0.64327
0.645197
0.646529
0.647267
0.647513
0.647473
0.585618
0.585606
0.585918
0.586956
0.588925
0.591731
0.595411
0.60019
0.606337
0.614048
0.622872
0.630914
0.637053
0.641628
0.644989
0.64746
0.649166
0.650109
0.650429
0.650401
0.57528
0.575244
0.575602
0.576817
0.579142
0.58251
0.586971
0.592791
0.600272
0.609663
0.620443
0.630307
0.637855
0.643511
0.647712
0.650828
0.652978
0.654158
0.654557
0.654536
0.56309
0.563031
0.563463
0.564915
0.567698
0.571799
0.577279
0.584455
0.593698
0.605258
0.618424
0.630391
0.639537
0.646436
0.651612
0.655465
0.658127
0.659568
0.660049
0.660031
0.548384
0.548302
0.54885
0.550636
0.554042
0.559128
0.565958
0.574899
0.586357
0.600574
0.616618
0.631092
0.642133
0.65048
0.656795
0.661517
0.664771
0.6665
0.667061
0.667042
0.53023
0.530129
0.530868
0.533139
0.537415
0.54386
0.552527
0.563823
0.578152
0.595665
0.615148
0.632536
0.645736
0.655738
0.663381
0.669112
0.673038
0.675078
0.67571
0.67568
0.507198
0.507096
0.508166
0.511203
0.516804
0.525275
0.536593
0.551145
0.569245
0.590871
0.614369
0.634995
0.650559
0.662395
0.671469
0.678324
0.682974
0.685316
0.685997
0.685941
0.476939
0.476884
0.478556
0.482923
0.490767
0.502393
0.517607
0.536619
0.559522
0.586056
0.614164
0.638422
0.656586
0.670398
0.681041
0.68911
0.694484
0.697081
0.69777
0.697677
0.435294
0.435442
0.438434
0.445604
0.457662
0.474517
0.495536
0.520622
0.54956
0.581868
0.615073
0.643152
0.663995
0.679831
0.692098
0.701378
0.707365
0.710086
0.710726
0.710589
0.374575
0.375882
0.383188
0.396797
0.416601
0.44178
0.47099
0.503773
0.539797
0.578522
0.617163
0.649204
0.672769
0.690601
0.704407
0.714793
0.721229
0.723874
0.724362
0.724188
0.301555
0.304154
0.318389
0.341933
0.372371
0.407446
0.445593
0.486604
0.530293
0.576187
0.621259
0.658323
0.685566
0.706253
0.722162
0.733824
0.740785
0.743533
0.744082
0.74403
0.226678
0.233567
0.254949
0.28841
0.329198
0.373932
0.421022
0.470353
0.521814
0.575011
0.626699
0.668993
0.700028
0.723665
0.74188
0.754958
0.762339
0.764911
0.76533
0.765373
0.165738
0.174444
0.200499
0.241021
0.289874
0.342785
0.397948
0.455085
0.513987
0.574196
0.632178
0.679383
0.713944
0.740221
0.760421
0.774707
0.782302
0.784989
0.785742
0.785871
0.11574
0.125152
0.154712
0.200493
0.255476
0.314945
0.376909
0.440926
0.506611
0.573368
0.637268
0.689047
0.726855
0.755492
0.777431
0.792916
0.80135
0.804607
0.805501
0.805658
0.0736713
0.0833931
0.115367
0.165253
0.225264
0.290199
0.357917
0.427913
0.499662
0.572422
0.641852
0.69788
0.738636
0.76945
0.793032
0.809661
0.818898
0.822547
0.823572
0.823725
0.0370991
0.0469721
0.0807736
0.13396
0.198167
0.26779
0.34053
0.415814
0.493034
0.571297
0.645835
0.705809
0.749241
0.782009
0.806971
0.824454
0.834296
0.838328
0.839463
0.839619
0.00440779
0.0143548
0.0496102
0.105537
0.173309
0.246989
0.32417
0.404222
0.48645
0.569806
0.649096
0.712732
0.758644
0.793066
0.819056
0.837106
0.8475
0.851869
0.853053
0.853198
-0.0255933
-0.0155844
0.020841
0.0791462
0.150012
0.227239
0.308372
0.39276
0.47961
0.567745
0.651566
0.718679
0.766908
0.802754
0.82949
0.847921
0.85857
0.863186
0.864487
0.864639
-0.0538005
-0.0437178
-0.00620062
0.0542054
0.127778
0.208128
0.292799
0.381141
0.472286
0.564959
0.65317
0.723715
0.774174
0.81132
0.838661
0.857381
0.868242
0.873008
0.874342
0.874478
-0.0807601
-0.070549
-0.0320342
0.0302574
0.106233
0.189363
0.277227
0.36918
0.464327
0.561337
0.653881
0.727886
0.780563
0.818955
0.846859
0.865862
0.876839
0.88165
0.882965
0.883044
-0.106861
-0.0964687
-0.0570101
0.00700622
0.0851309
0.170755
0.26151
0.356769
0.455647
0.556818
0.653682
0.731227
0.786179
0.825845
0.854336
0.873586
0.884645
0.889431
0.890714
0.890769
-0.132361
-0.121708
-0.0813419
-0.0157381
0.064327
0.152188
0.245565
0.343853
0.446201
0.551368
0.652545
0.733752
0.791122
0.832163
0.861319
0.880828
0.891929
0.896648
0.897849
0.897877
-0.157316
-0.14639
-0.105152
-0.0380784
0.0437448
0.133626
0.229366
0.330417
0.435986
0.544958
0.650428
0.73546
0.795454
0.838035
0.86795
0.887721
0.898794
0.903353
0.904431
0.904398
-0.181816
-0.170603
-0.128514
-0.0600438
0.0233666
0.115058
0.212928
0.316481
0.425018
0.537592
0.647286
0.736299
0.799193
0.84356
0.874336
0.894317
0.905244
0.909562
0.910462
0.910365
-0.205848
-0.194345
-0.151398
-0.0816308
0.00321002
0.0965207
0.196299
0.302099
0.413338
0.529267
0.643067
0.736185
0.802314
0.848821
0.880623
0.900739
0.911322
0.915246
0.915943
0.915797
-0.229444
-0.217585
-0.173771
-0.10281
-0.0166877
0.0780655
0.179538
0.287343
0.40101
0.520008
0.637726
0.735024
0.80473
0.853858
0.886999
0.907188
0.917141
0.920454
0.920892
0.920703
-0.252357
-0.240259
-0.195594
-0.123544
-0.036265
0.0597776
0.162723
0.272292
0.388111
0.509873
0.631235
0.732719
0.806313
0.858628
0.893671
0.91404
0.922968
0.925256
0.925303
0.925084
-0.274731
-0.262292
-0.216819
-0.143787
-0.0554758
0.0417059
0.145953
0.257037
0.374734
0.498941
0.623598
0.729173
0.806889
0.862944
0.90073
0.921859
0.929504
0.930019
0.929229
0.928968
-0.296373
-0.283635
-0.237416
-0.163479
-0.0742287
0.0239418
0.129316
0.241702
0.360987
0.487283
0.614849
0.724296
0.806266
0.866479
0.907955
0.931153
0.938156
0.936197
0.93329
0.932501
-0.317371
-0.304305
-0.257318
-0.182553
-0.0924792
0.00655831
0.112903
0.226372
0.346981
0.475036
0.605063
0.717993
0.804252
0.868816
0.914631
0.941663
0.950328
0.947192
0.940542
0.930874
-0.337606
-0.324291
-0.276615
-0.201176
-0.110457
-0.0107454
0.0963584
0.210616
0.332237
0.461664
0.593684
0.709639
0.800327
0.869504
0.919815
0.952097
0.965644
0.963633
0.952962
0.949933
-0.357027
-0.343671
-0.295301
-0.219279
-0.128134
-0.0279424
0.079717
0.19442
0.316727
0.447051
0.580551
0.698806
0.793835
0.86775