/*--------------------------------*- C++ -*----------------------------------*\
| =========                 |                                                 |
| \\      /  F ield         | OpenFOAM: The Open Source CFD Toolbox           |
|  \\    /   O peration     | Version:  2106                                  |
|   \\  /    A nd           | Website:  www.openfoam.com                      |
|    \\/     M anipulation  |                                                 |
\*---------------------------------------------------------------------------*/
FoamFile
{
    version     2.0;
    format      ascii;
    arch        "LSB;label=32;scalar=64";
    class       volScalarField;
    location    "5";
    object      T;
}
// * * * * * * * * * * * * * * * * * * * * * * * * * * * * * * * * * * * * * //

dimensions      [0 0 0 1 0 0 0];

internalField   nonuniform List<scalar> 
1000
(
3.01472e-136
3.03023e-136
3.07636e-136
3.18249e-136
3.40573e-136
3.85709e-136
4.75215e-136
6.50937e-136
9.94058e-136
1.66199e-135
2.95979e-135
5.4783e-135
1.03612e-134
1.98214e-134
3.81375e-134
7.35785e-134
1.42116e-133
2.74582e-133
5.30461e-133
1.02446e-132
1.97764e-132
3.81578e-132
7.35857e-132
1.4183e-131
2.73216e-131
5.26022e-131
1.01219e-130
1.94659e-130
3.7415e-130
7.18743e-130
1.37993e-129
2.64789e-129
5.07804e-129
9.73302e-129
1.86446e-128
3.56957e-128
6.83016e-128
1.30617e-127
2.49645e-127
4.76869e-127
9.10392e-127
1.73704e-126
3.3124e-126
6.31289e-126
1.20244e-125
2.28903e-125
4.35502e-125
8.28092e-125
1.57368e-124
2.98885e-124
5.67338e-124
1.07629e-123
2.04062e-123
3.86674e-123
7.32276e-123
1.38597e-122
2.62167e-122
4.9562e-122
9.3641e-122
1.76819e-121
3.33687e-121
6.29351e-121
1.18629e-120
2.23479e-120
4.2075e-120
7.9169e-120
1.48878e-119
2.798e-119
5.25543e-119
9.86533e-119
1.85079e-118
3.4701e-118
6.50234e-118
1.21769e-117
2.27901e-117
4.26281e-117
7.96864e-117
1.48872e-116
2.77958e-116
5.18662e-116
9.67226e-116
1.80264e-115
3.3576e-115
6.25007e-115
1.16273e-114
2.16176e-114
4.01673e-114
7.45888e-114
1.38424e-113
2.56733e-113
4.75869e-113
8.8151e-113
1.63193e-112
3.01931e-112
5.58275e-112
1.03162e-111
1.90514e-111
3.51612e-111
6.48534e-111
1.19545e-110
2.20224e-110
4.05439e-110
7.45962e-110
1.37163e-109
2.52051e-109
4.6288e-109
8.49526e-109
1.55816e-108
2.85613e-108
5.23202e-108
9.5783e-108
1.7524e-107
3.2041e-107
5.85469e-107
1.06912e-106
1.95109e-106
3.55837e-106
6.48559e-106
1.18133e-105
2.1504e-105
3.91191e-105
7.11183e-105
1.2921e-104
2.34604e-104
4.25691e-104
7.71926e-104
1.39887e-103
2.53339e-103
4.58507e-103
8.29296e-103
1.49897e-102
2.70767e-102
4.88785e-102
8.81775e-102
1.58971e-101
2.86413e-101
5.15688e-101
9.27893e-101
1.6685e-100
2.99826e-100
5.38431e-100
9.66285e-100
1.73299e-99
3.106e-99
5.56317e-99
9.95764e-99
1.78117e-98
3.18395e-98
5.68775e-98
1.01538e-97
1.81145e-97
3.22953e-97
5.75389e-97
1.02446e-96
1.82281e-96
3.24113e-96
5.75919e-96
1.02267e-95
1.81477e-95
3.21821e-95
5.70317e-95
1.01001e-94
1.78749e-94
3.16133e-94
5.58731e-94
9.86829e-94
1.74176e-93
3.07213e-93
5.41498e-93
9.53805e-93
1.67891e-92
2.95324e-92
5.1913e-92
9.11918e-92
1.60081e-91
2.80819e-91
4.92284e-91
8.62398e-91
1.50974e-90
2.64118e-90
4.61736e-90
8.06663e-90
1.40828e-89
2.45691e-89
4.28338e-89
7.46251e-89
1.29922e-88
2.26036e-88
3.92981e-88
6.82753e-88
1.18537e-87
2.05656e-87
3.56554e-87
6.1774e-87
1.0695e-86
1.85036e-86
3.19907e-86
5.52697e-86
9.54214e-86
1.64626e-85
2.83822e-85
4.88975e-85
8.41822e-85
1.44826e-84
2.48982e-84
4.2774e-84
7.34318e-84
1.25974e-83
2.15957e-83
3.69952e-83
6.33307e-83
1.08336e-82
1.85192e-82
3.16345e-82
5.39993e-82
9.21096e-82
1.57004e-81
2.67426e-81
4.55181e-81
7.742e-81
1.31586e-80
2.23487e-80
3.79298e-80
6.43274e-80
1.09018e-79
1.84622e-79
3.12431e-79
5.28337e-79
8.92794e-79
1.50757e-78
2.54381e-78
4.2892e-78
7.22689e-78
1.21677e-77
2.04715e-77
3.44169e-77
5.78197e-77
9.70647e-77
1.62827e-76
2.72945e-76
4.57196e-76
7.65263e-76
1.27996e-75
2.13927e-75
3.57282e-75
5.96261e-75
9.94351e-75
1.657e-74
2.75918e-74
4.59111e-74
7.63364e-74
1.2683e-73
2.10567e-73
3.49328e-73
5.791e-73
9.59288e-73
1.58789e-72
2.62642e-72
4.34095e-72
7.16935e-72
1.18317e-71
1.95115e-71
3.21519e-71
5.29414e-71
8.71077e-71
1.43216e-70
2.35287e-70
3.86256e-70
6.33614e-70
1.03859e-69
1.70113e-69
2.7842e-69
4.55338e-69
7.4411e-69
1.21509e-68
1.98268e-68
3.23269e-68
5.26677e-68
8.5742e-68
1.3948e-67
2.26723e-67
3.68256e-67
5.97682e-67
9.693e-67
1.57077e-66
2.54351e-66
4.11549e-66
6.65388e-66
1.07497e-65
1.73532e-65
2.79917e-65
4.51174e-65
7.26648e-65
1.16941e-64
1.88051e-64
3.02167e-64
4.85158e-64
7.78362e-64
1.24779e-63
1.99879e-63
3.19929e-63
5.11685e-63
8.17738e-63
1.30583e-62
2.08363e-62
3.32212e-62
5.29264e-62
8.42537e-62
1.34019e-61
2.13012e-61
3.38299e-61
5.36855e-61
8.51282e-61
1.3488e-60
2.13542e-60
3.37812e-60
5.33982e-60
8.43405e-60
1.33108e-59
2.09908e-59
3.30758e-59
5.20775e-59
8.19307e-59
1.28795e-58
2.02307e-58
3.17524e-58
4.97964e-58
7.80326e-58
1.22183e-57
1.9116e-57
2.98842e-57
4.66811e-57
7.28609e-57
1.13632e-56
1.77078e-56
2.75728e-56
4.28994e-56
6.66922e-56
1.03598e-55
1.60799e-55
2.49382e-55
3.86457e-55
5.98398e-55
9.2583e-55
1.43128e-54
2.2109e-54
3.41245e-54
5.26278e-54
8.1099e-54
1.24872e-53
1.92118e-53
2.95339e-53
4.53654e-53
6.96272e-53
1.06778e-52
1.6362e-52
2.5052e-52
3.83262e-52
5.85867e-52
8.94854e-52
1.3657e-51
2.0826e-51
3.17325e-51
4.83118e-51
7.34937e-51
1.11711e-50
1.69664e-50
2.57472e-50
3.90409e-50
5.91504e-50
8.95451e-50
1.35448e-49
2.04717e-49
3.09157e-49
4.66502e-49
7.03353e-49
1.0596e-48
1.59497e-48
2.3989e-48
3.60511e-48
5.41341e-48
8.1221e-48
1.21762e-47
1.8239e-47
2.72984e-47
4.08241e-47
6.10018e-47
9.1078e-47
1.35872e-46
2.0253e-46
3.01645e-46
4.48897e-46
6.67485e-46
9.91701e-46
1.47219e-45
2.1837e-45
3.23642e-45
4.79271e-45
7.09155e-45
1.04844e-44
1.54879e-44
2.28604e-44
3.37147e-44
4.96818e-44
7.31508e-44
1.07618e-43
1.58195e-43
2.32351e-43
3.40987e-43
5.00006e-43
7.32581e-43
1.07245e-42
1.56872e-42
2.29273e-42
3.34814e-42
4.88536e-42
7.1225e-42
1.03755e-41
1.51019e-41
2.19631e-41
3.19152e-41
4.63388e-41
6.72255e-41
9.74463e-41
1.41136e-40
2.04246e-40
2.95332e-40
4.26686e-40
6.15955e-40
8.88446e-40
1.28043e-39
1.84383e-39
2.65294e-39
3.81396e-39
5.47856e-39
7.86318e-39
1.12764e-38
1.6158e-38
2.31336e-38
3.30934e-38
4.73021e-38
6.75555e-38
9.64013e-38
1.3745e-37
1.95817e-37
2.78739e-37
3.96447e-37
5.63396e-37
7.99989e-37
1.135e-36
1.60897e-36
2.27899e-36
3.22537e-36
4.56096e-36
6.44429e-36
9.09778e-36
1.28333e-35
1.80875e-35
2.54721e-35
3.58418e-35
5.03915e-35
7.07891e-35
9.93613e-35
1.39351e-34
1.95273e-34
2.73413e-34
3.82504e-34
5.34681e-34
7.46785e-34
1.04217e-33
1.45319e-33
2.02465e-33
2.8185e-33
3.92038e-33
5.44854e-33
7.56615e-33
1.04981e-32
1.45543e-32
2.0161e-32
2.79046e-32
3.85907e-32
5.3325e-32
7.36245e-32
1.01568e-31
1.40002e-31
1.9282e-31
2.65347e-31
3.64855e-31
5.01266e-31
6.88113e-31
9.43832e-31
1.29352e-30
1.77131e-30
2.42359e-30
3.31335e-30
4.52605e-30
6.17753e-30
8.42471e-30
1.14799e-29
1.56303e-29
2.12637e-29
2.89038e-29
3.92568e-29
5.32747e-29
7.22388e-29
9.78735e-29
1.32497e-28
1.79221e-28
2.42225e-28
3.2711e-28
4.41381e-28
5.95085e-28
8.0166e-28
1.07906e-27
1.45128e-27
1.95029e-27
2.61875e-27
3.51346e-27
4.71003e-27
6.30896e-27
8.44382e-27
1.12919e-26
1.50884e-26
2.01449e-26
2.68741e-26
3.58221e-26
4.77106e-26
6.34933e-26
8.44283e-26
1.12175e-25
1.4892e-25
1.97542e-25
2.61826e-25
3.46749e-25
4.58847e-25
6.06692e-25
8.01528e-25
1.05808e-24
1.39562e-24
1.83936e-24
2.42224e-24
3.18725e-24
4.1905e-24
5.50512e-24
7.22633e-24
9.47808e-24
1.24215e-23
1.62659e-23
2.12831e-23
2.78256e-23
3.635e-23
4.74479e-23
6.18844e-23
8.0649e-23
1.05019e-22
1.36645e-22
1.77652e-22
2.3078e-22
2.99559e-22
3.88526e-22
5.03514e-22
6.52015e-22
8.43642e-22
1.09072e-21
1.40904e-21
1.81882e-21
2.3459e-21
3.02334e-21
3.89331e-21
5.00965e-21
6.44099e-21
8.27474e-21
1.06222e-20
1.36247e-20
1.74623e-20
2.23631e-20
2.86167e-20
3.65903e-20
4.67488e-20
5.96807e-20
7.613e-20
9.7037e-20
1.23588e-19
1.57282e-19
2.00004e-19
2.54131e-19
3.22655e-19
4.09335e-19
5.18897e-19
6.57271e-19
8.31895e-19
1.05209e-18
1.32955e-18
1.67886e-18
2.11829e-18
2.67068e-18
3.3645e-18
4.23529e-18
5.32732e-18
6.69574e-18
8.40915e-18
1.05529e-17
1.32329e-17
1.65807e-17
2.07594e-17
2.59713e-17
3.24668e-17
4.05555e-17
5.06206e-17
6.31353e-17
7.86835e-17
9.79856e-17
1.2193e-16
1.51608e-16
1.88368e-16
2.33861e-16
2.9012e-16
3.59639e-16
4.45478e-16
5.51385e-16
6.81952e-16
8.42798e-16
1.04079e-15
1.28432e-15
1.58364e-15
1.95124e-15
2.40235e-15
2.95553e-15
3.63335e-15
4.46325e-15
5.47858e-15
6.71984e-15
8.23614e-15
1.0087e-14
1.23446e-14
1.50961e-14
1.84472e-14
2.25252e-14
2.74843e-14
3.35101e-14
4.08267e-14
4.97037e-14
6.0466e-14
7.3504e-14
8.92871e-14
1.08379e-13
1.31456e-13
1.59328e-13
1.92968e-13
2.33539e-13
2.8243e-13
3.41306e-13
4.12152e-13
4.97338e-13
5.99691e-13
7.22579e-13
8.70011e-13
1.04676e-12
1.2585e-12
1.51196e-12
1.81514e-12
2.17754e-12
2.61039e-12
3.12702e-12
3.74317e-12
4.47748e-12
5.35197e-12
6.39263e-12
7.63013e-12
9.10062e-12
1.08467e-11
1.29185e-11
1.53749e-11
1.82853e-11
2.1731e-11
2.58076e-11
3.0627e-11
3.63204e-11
4.30415e-11
5.09699e-11
6.03159e-11
7.13248e-11
8.42832e-11
9.95253e-11
1.17441e-10
1.38483e-10
1.6318e-10
1.92146e-10
2.26094e-10
2.65853e-10
3.12384e-10
3.66801e-10
4.30395e-10
5.04662e-10
5.9133e-10
6.92399e-10
8.10176e-10
9.47326e-10
1.10692e-09
1.29251e-09
1.50817e-09
1.75858e-09
2.04916e-09
2.3861e-09
2.77653e-09
3.22861e-09
3.75172e-09
4.35658e-09
5.05549e-09
5.86251e-09
6.79369e-09
7.8674e-09
9.10457e-09
1.05291e-08
1.21683e-08
1.4053e-08
1.62187e-08
1.87054e-08
2.15588e-08
2.48307e-08
2.85798e-08
3.28728e-08
3.77851e-08
4.34024e-08
4.98213e-08
5.71511e-08
6.55154e-08
7.50536e-08
8.59231e-08
9.83011e-08
1.12388e-07
1.28407e-07
1.46613e-07
1.67288e-07
1.90754e-07
2.17366e-07
2.47529e-07
2.81691e-07
3.20357e-07
3.64091e-07
4.13524e-07
4.69361e-07
5.32389e-07
6.03487e-07
6.83634e-07
7.7392e-07
8.75562e-07
9.89909e-07
1.11846e-06
1.2629e-06
1.42506e-06
1.60701e-06
1.81102e-06
2.03963e-06
2.29561e-06
2.58206e-06
2.9024e-06
3.2604e-06
3.66023e-06
4.10646e-06
4.60417e-06
5.15893e-06
5.77687e-06
6.46473e-06
7.22993e-06
8.0806e-06
9.02568e-06
1.0075e-05
1.12392e-05
1.253e-05
1.39605e-05
1.55445e-05
1.72974e-05
1.9236e-05
2.13787e-05
2.37453e-05
2.63575e-05
2.9239e-05
3.24155e-05
3.5915e-05
3.97679e-05
4.40071e-05
4.86683e-05
5.37903e-05
5.94151e-05
6.55882e-05
7.23585e-05
7.97793e-05
8.79079e-05
9.6806e-05
0.000106541
0.000117183
0.000128812
0.000141509
0.000155365
0.000170475
0.000186943
0.00020488
0.000224405
0.000245644
0.000268735
0.000293822
0.000321061
0.000350619
0.000382673
0.000417413
0.000455039
0.000495768
0.000539827
0.000587459
0.000638923
0.000694493
0.000754459
0.00081913
0.000888832
0.000963911
0.00104473
0.00113168
0.00122517
0.00132562
0.00143349
0.00154926
0.00167343
0.00180653
0.00194912
0.00210178
0.00226512
0.00243979
0.00262647
0.00282584
0.00303866
0.00326569
0.00350774
0.00376565
0.0040403
0.00433259
0.00464347
0.00497394
0.00532502
0.00569776
0.00609329
0.00651274
0.0069573
0.00742819
0.00792669
0.0084541
0.00901177
0.00960109
0.0102235
0.0108805
0.0115735
0.0123042
0.0130741
0.0138849
0.0147382
0.0156358
0.0165794
0.0175708
0.0186118
0.0197043
0.0208501
0.0220512
0.0233095
0.0246271
0.0260058
0.0274477
0.0289549
0.0305293
0.0321732
0.0338885
0.0356774
0.0375419
0.0394842
0.0415063
0.0436104
0.0457984
0.0480726
0.050435
0.0528876
0.0554324
0.0580714
0.0608065
0.0636398
0.066573
0.069608
0.0727465
0.0759904
0.0793411
0.0828005
0.0863699
0.0900509
0.0938448
0.0977529
0.101776
0.105916
0.110174
0.11455
0.119045
0.12366
0.128396
0.133252
0.13823
0.143329
0.14855
0.153892
0.159356
0.16494
0.170645
0.17647
0.182413
0.188475
0.194653
0.200947
0.207356
0.213877
0.220508
0.227249
0.234097
0.241049
0.248104
0.255258
0.262509
0.269854
0.277291
0.284815
0.292423
0.300112
0.307879
0.315719
0.323628
0.331603
0.339638
0.347731
0.355875
0.364067
0.372301
0.380573
0.388878
0.39721
0.405564
0.413936
0.422319
0.430707
0.439097
0.447481
0.455854
0.46421
0.472543
0.480848
0.489118
0.497348
0.505531
0.513661
0.521733
0.52974
0.537676
0.545536
0.553313
0.561
0.568593
0.576085
0.583471
0.590744
0.597898
0.604929
0.61183
0.618596
0.62522
0.631699
0.638027
0.644197
0.650207
0.656049
0.66172
0.667215
0.672529
0.677658
0.682597
0.687342
0.69189
0.696237
0.700378
0.704311
0.708031
0.711537
0.714825
0.717892
0.720735
0.723353
0.725744
0.727905
0.729837
0.731539
0.733012
0.734259
0.735288
0.736108
0.736732
0.737173
0.737427
)
;

boundaryField
{
    sides
    {
        type            zeroGradient;
    }
    empty
    {
        type            empty;
    }
}


// ************************************************************************* //
