/*--------------------------------*- C++ -*----------------------------------*\
  =========                 |
  \\      /  F ield         | OpenFOAM: The Open Source CFD Toolbox
   \\    /   O peration     | Website:  https://openfoam.org
    \\  /    A nd           | Version:  6
     \\/     M anipulation  |
\*---------------------------------------------------------------------------*/
FoamFile
{
    version     2.0;
    format      ascii;
    class       volVectorField;
    location    "21";
    object      U;
}
// * * * * * * * * * * * * * * * * * * * * * * * * * * * * * * * * * * * * * //

dimensions      [0 1 -1 0 0 0 0];

internalField   nonuniform List<vector> 
918
(
(0.984986 -0.000754536 0)
(0.00530836 2.96627 0)
(-0.0174652 1.57152 0)
(0.979607 0.00189722 0)
(-0.00376989 1.55438 6.66261e-21)
(-0.00705443 2.94854 -1.9746e-18)
(0.843285 1.17246 7.40488e-19)
(0.427524 0.166264 -8.18242e-21)
(0.999915 -0.000291444 0)
(0.0836617 0.739407 0)
(-0.0486953 0.986772 0)
(0.761592 -0.0100397 0)
(0.0101997 2.93147 0)
(0.00333914 2.79383 0)
(-0.000358821 3.20413 1.15174e-18)
(-0.00236017 1.44073 6.88684e-21)
(0.529405 0.0620285 5.14493e-19)
(0.221331 1.14411 6.62029e-19)
(0.965039 0.0068473 0)
(-0.000508928 1.28142 0)
(0.160038 0.248058 -4.34407e-19)
(1.00207 -0.00448756 0)
(0.999966 -0.00887525 0)
(0.975241 -0.00626502 0)
(0.676262 -0.0317574 0)
(0.0240242 2.63973 0)
(-0.0125264 2.91207 6.78554e-19)
(-0.0282792 1.59284 0)
(-0.0339312 1.73291 0)
(-0.0291106 1.58515 0)
(-0.00714666 1.84956 0)
(0.000979443 1.57888 -5.26964e-21)
(-0.00171461 1.45422 0)
(-0.0222224 2.98758 -6.94258e-23)
(-0.016538 3.00551 1.53498e-18)
(0.00229939 3.00064 0)
(0.872733 -0.00698003 0)
(0.363945 0.909076 -5.86918e-20)
(0.847512 1.18265 -1.09144e-18)
(0.984486 1.03052 9.98487e-19)
(0.709462 1.26832 -1.70942e-19)
(0.717812 1.2503 9.66351e-19)
(0.466289 0.263516 7.98308e-21)
(0.460727 0.150397 0)
(1.17341 0.525446 0)
(0.426969 0.279971 3.72088e-20)
(0.387461 0.18751 -3.86125e-20)
(0.920632 -0.00595852 0)
(1.00033 5.03609e-05 0)
(0.999911 0.000314876 0)
(1.0035 -0.00752671 0)
(1.00093 -0.00112667 0)
(1.00013 -6.05248e-05 0)
(0.0574784 1.82089 -2.82736e-19)
(0.0456928 0.894148 0)
(0.118122 0.840367 0)
(0.034481 0.829314 0)
(0.0345989 0.669762 0)
(-0.00196152 1.54229 0)
(-0.0638528 1.04201 0)
(-0.0438054 0.847816 0)
(-0.0474234 1.18165 0)
(-0.0334789 1.09869 0)
(0.845114 -0.0047384 0)
(0.863617 0.0142651 0)
(0.778439 -0.00328299 0)
(0.854626 0.0198243 0)
(0.742027 -0.0135439 0)
(0.0139947 3.00017 7.24256e-19)
(0.0112554 3.00576 0)
(0.006405 3.00397 0)
(0.0119311 2.99699 8.09718e-24)
(0.00834186 2.9587 -1.07642e-18)
(0.0122547 2.98294 0)
(0.00892467 2.90473 0)
(0.0217573 2.93133 1.48531e-24)
(0.00385607 2.8235 0)
(0.0265818 2.91806 0)
(-0.00195048 2.74383 0)
(0.312349 3.60668 0)
(-0.123221 3.69074 0)
(0.154116 3.29488 -1.07198e-18)
(0.0082787 3.02366 0)
(-0.0239388 1.82526 0)
(0.00644987 1.61809 -6.79327e-21)
(-0.00252401 1.44835 1.15836e-20)
(0.59014 0.136701 -1.76754e-19)
(0.538594 0.0250262 -1.67829e-19)
(0.575019 0.167145 -5.30651e-19)
(0.528664 0.094714 -3.58106e-19)
(0.250375 0.924006 0)
(0.308545 1.28769 -6.58636e-19)
(0.378724 1.27281 1.08554e-18)
(0.988381 0.00818787 0)
(0.944168 0.00634053 0)
(1.00029 0.000714276 0)
(1.00251 0.00913933 0)
(1.00311 0.00905174 -8.94755e-19)
(0.99209 0.0094924 6.7637e-19)
(-0.0140662 1.45003 0)
(-0.00839634 1.26652 0)
(-0.0350763 1.59789 0)
(-0.0222916 1.49471 0)
(-0.0050809 1.31987 0)
(0.212372 0.256622 1.34212e-19)
(0.252477 0.231533 0)
(0.993686 -0.00734055 0)
(0.954011 -0.00641814 0)
(0.822361 0.0267044 0)
(0.787014 0.0369045 0)
(0.71504 -0.0223781 0)
(0.999304 0.0010744 0)
(0.735616 0.047861 0)
(0.590561 -0.0277441 6.56794e-19)
(-0.0398513 2.86371 3.9895e-19)
(0.0349353 2.91317 0)
(0.0441022 2.89007 0)
(0.00334746 2.69922 0)
(-0.00877174 2.98639 6.34131e-19)
(-0.0145414 2.89502 0)
(-0.0109855 2.99196 -1.98403e-18)
(-0.0116917 2.92989 6.79942e-19)
(-0.0304493 1.81541 0)
(-0.0251683 1.81301 0)
(0.00199331 1.59932 3.10866e-22)
(0.00363401 1.57386 0)
(-0.00449568 1.45228 0)
(0.936674 -0.00325473 0)
(0.857343 -0.00784428 0)
(0.868111 0.0092413 0)
(0.948513 -0.00438415 0)
(0.883154 -0.00641494 0)
(0.490147 1.11149 6.0913e-20)
(0.53987 1.18691 0)
(0.320548 0.835819 1.02576e-21)
(0.264805 0.703032 0)
(0.944761 1.06529 -2.92047e-19)
(1.06267 0.858513 5.91796e-19)
(0.479584 1.3619 0)
(0.559363 1.34252 0)
(0.585994 1.25956 0)
(0.0917369 0.131753 -1.07612e-19)
(0.494047 0.244196 0)
(0.474908 0.149157 1.02435e-19)
(1.02341 0.914427 0)
(1.08978 0.752617 0)
(1.12031 0.6871 -5.17564e-19)
(1.15201 0.592744 0)
(1.20756 0.385808 4.80028e-20)
(0.956002 -0.0066836 0)
(0.962657 -0.00778082 0)
(0.899177 -0.00691509 0)
(0.984025 -0.00762799 0)
(0.974431 -0.00744111 0)
(0.936388 -0.00590699 0)
(1.00023 0.00249182 0)
(1.00086 0.00130428 0)
(0.999974 0.000777676 0)
(0.0150373 2.04401 1.63531e-19)
(0.166447 1.74131 0)
(-0.0431198 2.08086 1.99985e-19)
(-0.0154098 1.85937 -1.13863e-19)
(0.126908 1.14169 -5.49101e-19)
(0.0708253 1.00765 0)
(0.182343 0.972403 0)
(0.00535234 0.794165 0)
(-0.0116737 0.662377 0)
(-0.00925692 1.76767 2.33707e-21)
(-0.0460344 1.635 0)
(0.0469457 1.70863 1.26867e-19)
(0.00308342 1.47008 -2.23466e-19)
(-0.0257956 0.812332 0)
(-0.0498301 0.911285 0)
(-0.0297883 0.733071 0)
(-0.0361236 1.2937 0)
(-0.0228228 1.1741 0)
(0.934795 0.0162156 0)
(0.866635 -0.000773228 0)
(0.920766 0.00719154 0)
(0.843114 -0.00706901 0)
(0.819355 0.00419649 0)
(0.9067 0.0150054 0)
(0.886333 0.0159435 0)
(0.7941 0.000925502 0)
(0.0104669 3.06764 -6.35931e-21)
(0.0145455 3.05945 0)
(0.0124848 2.97038 0)
(0.00759423 2.87662 0)
(0.902563 4.00707 0)
(1.19868 3.39692 1.03088e-18)
(0.0847466 3.10442 0)
(-0.0143753 2.9254 0)
(-0.0306013 1.80319 0)
(-0.0327424 1.81917 0)
(-0.0281392 1.80878 0)
(-0.0110994 1.83849 4.46965e-21)
(-0.0249701 1.83601 0)
(-0.0181926 1.83195 0)
(0.0102873 1.47243 -2.10149e-20)
(0.0227891 1.66233 -4.85771e-20)
(0.0100181 1.63553 -1.16811e-20)
(-0.000597192 1.45895 0)
(0.606297 0.108205 2.60781e-19)
(0.537303 0.00144681 -2.54245e-19)
(0.247761 1.52986 0)
(0.291687 0.656612 -2.11737e-19)
(0.189124 1.62118 -7.12548e-19)
(0.266674 1.15942 7.12733e-19)
(0.90432 0.00784044 0)
(0.967826 0.0108429 0)
(0.975589 0.0099955 0)
(0.924528 0.00738813 0)
(-0.0301088 1.37728 0)
(-0.0214462 1.4272 0)
(-0.0172597 1.22671 0)
(0.372151 0.290441 3.42265e-19)
(0.321 0.26892 -4.17403e-19)
(0.334323 0.213564 0)
(1.12344 0.088934 -8.4656e-21)
(1.11044 0.0423796 0)
(1.03283 0.042662 0)
(0.935774 0.00911797 0)
(0.625764 0.0823769 0)
(0.674006 0.0614892 -1.06525e-18)
(0.548689 -0.0123059 4.14192e-19)
(0.0116013 2.97844 4.83505e-19)
(-0.0319935 2.86358 4.76348e-20)
(0.00858718 3.05304 -1.36807e-20)
(0.0153791 3.04362 5.21421e-19)
(-0.0118158 3.00004 2.2664e-20)
(-0.0122767 2.9524 -9.2099e-23)
(-0.0150344 3.01335 -4.35181e-19)
(0.0139772 3.0269 3.04836e-19)
(0.00744294 3.03445 -4.88302e-19)
(0.92797 0.0025304 0)
(0.934367 -0.000197953 0)
(0.847729 -0.00644556 0)
(0.957501 0.0110425 0)
(0.944225 0.0128898 0)
(0.885015 0.0088461 0)
(0.922742 0.0143119 0)
(0.929327 0.0123997 0)
(0.846326 0.006264 0)
(0.668548 1.4202 3.20402e-19)
(0.689677 1.53393 0)
(0.179213 0.363443 1.94537e-20)
(0.152352 0.543364 1.53474e-19)
(0.229256 0.655296 -8.39721e-20)
(0.194657 0.546431 1.51336e-19)
(0.295145 0.699898 6.37507e-19)
(0.113107 0.171178 2.03867e-19)
(0.554471 0.211868 3.8683e-19)
(0.524781 0.236727 9.44047e-20)
(0.500268 0.130624 1.93142e-19)
(1.19827 0.442318 3.3793e-19)
(1.22551 0.240771 3.55272e-19)
(-0.0657801 2.05873 3.828e-20)
(-0.00868109 1.84527 0)
(0.981384 0.0333522 0)
(0.947277 0.0221508 0)
(0.890607 -0.000694288 0)
(0.0121879 3.07469 0)
(0.0171506 2.94407 8.67326e-19)
(0.014069 2.95682 0)
(0.00578571 2.84968 -8.60534e-19)
(0.00924176 3.09137 2.07879e-19)
(0.0116128 3.08293 0)
(0.711359 1.83475 -2.55725e-19)
(1.24276 2.6485 8.50131e-19)
(0.697241 2.01533 -1.67467e-18)
(0.0232873 2.9788 -3.68643e-19)
(0.0427958 3.00456 0)
(-0.0373702 2.88237 0)
(0.0688941 1.67689 1.98226e-20)
(0.0428167 1.6938 1.47595e-19)
(0.0346916 1.46512 -1.73458e-22)
(0.263883 1.31999 6.86933e-19)
(0.254601 0.444413 -4.73459e-19)
(0.076725 1.94887 4.34588e-19)
(0.125215 1.8057 -5.68962e-19)
(0.228886 1.49416 1.00132e-19)
(0.00864691 3.11928 -1.09459e-18)
(0.0151253 3.12054 1.20833e-18)
(-0.00488394 2.98005 5.68088e-19)
(-0.00045389 2.97529 -5.174e-19)
(-0.0181812 2.87836 -5.78615e-19)
(0.0126799 3.0985 -1.52134e-18)
(0.00446957 3.1067 1.54533e-18)
(0.194372 0.581186 0)
(0.146596 0.545484 -3.17264e-19)
(0.0777382 0.17852 1.41996e-19)
(0.316436 0.806033 6.17483e-19)
(0.174175 0.212985 -9.40485e-19)
(1.21123 0.171287 -7.89075e-20)
(1.22314 0.299193 0)
(1.20832 0.115773 1.43648e-19)
(-0.0392064 1.89853 2.33489e-21)
(-0.0270408 1.99699 0)
(-0.0322119 1.76546 0)
(0.306412 1.2264 -2.38981e-19)
(0.325239 1.03339 -5.0848e-19)
(0.210015 0.317383 8.71146e-19)
(1.00641 -0.0101806 0)
(1.00764 -0.00767966 1.63082e-19)
(-0.0323666 1.79905 0)
(-0.0396254 1.80747 0)
(1.00252 0.00357372 1.5464e-21)
(1.00319 0.00779211 3.36483e-19)
(-0.0125497 1.84588 -5.86492e-21)
(-0.00840154 1.84836 0)
(0.0466056 3.17848 1.91071e-19)
(0.384726 3.5681 0)
(1.08724 0.683829 7.68889e-20)
(1.01243 0.0112033 -2.41757e-21)
(1.02107 -0.00941225 0)
(1.00168 4.36985e-05 4.54791e-23)
(0.156261 1.25722 0)
(0.203598 2.60726 0)
(-0.229477 1.23747 0)
(-0.218939 2.5505 -1.80038e-19)
(-0.163103 2.2005 1.82246e-20)
(1.00851 0.0188142 3.5573e-21)
(1.0467 0.00573379 0)
(1.0771 0.02887 0)
(-0.0353228 1.82172 0)
(-0.0338237 1.90757 0)
(-0.0544322 1.75039 0)
(0.270914 1.45862 -4.48737e-19)
(1.01111 -0.00854876 0)
(1.00996 -0.0140486 0)
(1.00227 0.000365587 2.06139e-19)
(1.006 -0.00544276 -2.45831e-19)
(1.00125 -0.00101112 0)
(-0.0447493 1.80816 0)
(-0.0356479 1.79492 0)
(-0.0367635 1.8029 0)
(-0.0464639 1.75614 0)
(-0.0345149 1.77599 0)
(-0.0379721 1.77355 0)
(1.03103 -0.010426 0)
(1.01918 0.0115364 -1.04965e-21)
(0.759925 1.3096 5.56012e-19)
(1.00282 0.000263103 -2.07833e-19)
(1.0038 0.00495723 2.49845e-19)
(1.00115 0.00193521 0)
(1.01194 0.00976804 2.01568e-19)
(1.00712 0.00789832 -2.53094e-19)
(1.00768 0.011862 0)
(-0.0307182 1.9035 0)
(-0.0186357 1.8728 -1.42469e-21)
(-0.0171629 1.87491 3.00765e-21)
(1.19648 0.268178 -1.66677e-19)
(1.13002 0.0928167 0)
(0.052048 3.09001 -5.70882e-19)
(0.052898 2.86758 -4.31596e-20)
(0.111682 3.20339 7.27928e-19)
(0.127807 3.21658 -7.79311e-20)
(0.153192 3.2697 0)
(0.023681 3.13864 1.41737e-19)
(0.0662069 3.16278 5.65648e-19)
(0.0663504 3.18169 -2.68502e-19)
(0.0283963 3.12838 0)
(0.656127 0.331701 0)
(0.614329 0.374769 0)
(1.07884 0.710284 -2.83536e-19)
(1.04034 0.856661 4.2937e-19)
(1.13481 0.602169 0)
(1.16062 0.534747 0)
(1.01545 0.0120335 -3.69766e-19)
(1.01432 0.0126138 4.62254e-19)
(1.0253 -0.00941545 0)
(1.0239 -0.0107703 0)
(1.0069 0.00272169 0)
(1.01007 0.00346362 0)
(1.00427 0.00175055 0)
(1.00974 0.0067902 0)
(1.00769 0.00473123 0)
(1.00468 0.00516643 0)
(0.145631 1.26903 0)
(0.107336 1.13062 0)
(0.199601 1.35408 0)
(0.141787 1.36321 0)
(0.155195 2.58611 0)
(0.21339 2.63404 -1.97792e-19)
(0.110117 2.67067 0)
(0.0865361 2.64948 -1.87614e-20)
(-0.0888821 2.71275 1.98589e-19)
(-0.184993 1.30735 0)
(-0.181943 1.34345 0)
(-0.208039 1.22657 0)
(-0.157111 1.07996 0)
(-0.39112 2.22766 2.4663e-19)
(-0.221392 2.33557 -9.55957e-20)
(-0.208254 2.53186 -1.74392e-19)
(-0.174153 2.4314 0)
(-0.148777 2.18888 -3.85356e-20)
(-0.0894453 2.11615 3.78145e-20)
(-0.422915 2.19426 -2.32165e-19)
(-0.314241 2.26564 1.26265e-19)
(-0.295794 2.39281 2.33199e-19)
(1.01842 0.0273782 3.6343e-19)
(1.01414 0.015956 -4.45876e-19)
(1.00943 0.0291398 -3.84604e-19)
(0.99284 0.0197525 4.91782e-19)
(1.04714 0.00718392 0)
(1.03421 -0.0103414 0)
(1.07063 0.0399172 0)
(1.0544 0.015769 0)
(1.05419 0.00922891 0)
(1.1095 0.0762159 0)
(1.08504 0.0494283 0)
(1.09426 0.0424791 0)
(-0.0286161 1.85105 -1.29541e-21)
(-0.0436208 1.83703 0)
(-0.0308048 1.83867 0)
(-0.0452935 1.94027 3.28489e-21)
(-0.0373066 1.95438 1.85855e-22)
(-0.0773548 1.81269 7.29798e-21)
(-0.0545703 1.80884 -7.41099e-21)
(-0.0653979 1.77272 0)
(-0.0513024 1.79036 0)
(-0.0486591 1.79233 0)
(-0.0734215 1.72578 0)
(-0.0555385 1.67886 0)
(0.379974 1.48677 8.52972e-19)
(0.378399 1.49837 3.30381e-19)
(0.592884 2.44319 -1.57659e-19)
(0.397292 2.52972 4.12594e-19)
(0.343583 2.10044 -5.07723e-20)
(1.02051 -0.00826748 0)
(1.01483 -0.0094979 0)
(1.01472 -0.0140462 0)
(1.00774 -0.00102454 0)
(1.00448 -0.00114503 0)
(1.00714 -0.00450659 0)
(1.01051 -0.00330845 0)
(1.0133 -0.00486324 0)
(1.02053 0.0140038 3.51812e-19)
(1.01591 0.0121572 -4.47016e-19)
(1.02142 0.0159912 -3.53063e-19)
(1.01667 0.014123 4.40682e-19)
(0.731377 1.34742 0)
(0.655774 1.39434 6.30215e-19)
(0.836477 1.21902 3.75832e-19)
(0.858156 1.20398 -4.98646e-19)
(1.155 2.62625 -5.88251e-19)
(0.830327 0.118678 2.62975e-19)
(1.13574 0.10235 0)
(1.17125 0.186415 1.35615e-19)
(1.15627 0.162429 6.22429e-21)
(0.987046 0.125688 0)
(0.100266 3.03305 -1.10835e-19)
(0.0974675 2.90589 -6.47743e-19)
(0.0471686 2.35733 4.30656e-19)
(0.150768 0.0433082 -2.04894e-19)
(0.35094 3.46803 -4.95971e-19)
(0.201289 3.35471 0)
(0.231867 3.41905 6.46059e-19)
(0.238139 3.09127 -1.56803e-19)
(0.273236 3.21227 0)
(0.00700792 3.12227 3.03441e-20)
(0.018807 3.13106 -3.67567e-19)
(0.0168693 3.12688 5.41009e-19)
(0.0352826 3.13981 0)
(0.033275 3.15071 0)
(1.25923 2.59691 0)
(0.498174 0.840731 -2.09972e-19)
(0.968449 1.04245 -2.17653e-19)
(0.951078 1.06529 0)
(0.797825 0.94356 6.51979e-20)
(1.03145 0.893976 3.0117e-20)
(0.449158 0.43225 -5.0395e-19)
(0.704125 0.332911 -2.38285e-20)
(0.688873 0.291313 2.01644e-19)
(0.626211 0.395752 1.60156e-20)
(0.562891 0.389412 -6.61886e-19)
(0.670365 0.35435 0)
(0.702335 0.421661 3.29555e-19)
(0.698778 0.421656 0)
(0.651145 0.380613 0)
(0.626015 0.344499 0)
(0.746359 0.605839 9.5852e-20)
(1.19918 0.285797 1.31459e-19)
(1.17659 0.423595 0)
(1.19607 0.389753 0)
(0.772145 0.200548 3.0467e-19)
(0.811363 0.527133 -1.60853e-19)
(0.742828 0.491372 2.60842e-19)
(0.909403 0.419797 -2.27871e-19)
(1.01834 0.0131342 2.40419e-19)
(1.01679 0.0132018 -2.46794e-19)
(1.01536 0.0134509 0)
(1.03238 -0.00912016 0)
(1.02925 -0.00935305 -2.17542e-19)
(1.02727 -0.0116481 2.15118e-19)
(1.02669 0.00678362 0)
(1.02534 0.0132611 0)
(1.01233 0.0042509 0)
(1.01418 0.00911425 0)
(1.01579 0.00359825 0)
(1.01464 0.00207952 0)
(0.126927 1.09217 0)
(0.0245385 0.982705 0)
(0.255495 1.40769 4.45655e-19)
(0.250836 1.46561 2.65685e-19)
(0.191266 1.4575 6.11671e-19)
(0.199362 1.44616 -9.8168e-19)
(0.201632 1.43407 0)
(0.213022 1.59688 2.33015e-19)
(0.242044 1.60522 0)
(0.328668 2.05537 7.38745e-20)
(0.324689 2.36636 2.35693e-19)
(0.192903 1.4754 -2.11918e-19)
(0.249932 1.40795 2.09363e-19)
(0.204919 1.40876 -1.68558e-19)
(0.261747 1.33666 3.61488e-19)
(0.222249 1.581 0)
(0.251508 1.64157 -2.39174e-19)
(-0.022016 2.50726 1.9313e-19)
(-0.0593762 2.73906 0)
(0.104242 2.49332 -2.8949e-19)
(0.0363366 2.57909 0)
(0.0673669 2.70497 1.99116e-20)
(-0.0108937 2.73884 0)
(-0.374849 1.54496 3.65722e-19)
(-0.411367 1.6881 0)
(-0.252154 1.34086 0)
(-0.297094 1.33888 -4.12338e-19)
(-0.221964 2.6286 -6.89442e-20)
(-0.168325 2.7236 -2.66225e-19)
(-0.182097 2.68887 -1.74055e-21)
(-0.395254 2.02076 -3.41897e-20)
(-0.435219 1.97228 -8.3109e-20)
(-0.15764 1.42888 0)
(-0.116634 1.47084 0)
(-0.193766 1.83143 -7.04626e-19)
(-0.190048 1.40783 -6.84545e-19)
(-0.252781 1.64149 8.67979e-19)
(0.0814988 1.81444 0)
(-0.0911625 1.88338 -1.9533e-20)
(-0.0768166 1.92371 5.60544e-21)
(-0.0942281 1.94585 -9.86611e-22)
(-0.330751 1.91813 3.99115e-20)
(-0.157801 2.05738 1.93855e-21)
(-0.19057 2.10697 2.54667e-20)
(1.02048 0.0185294 -2.40228e-19)
(1.01897 0.022363 2.37612e-19)
(1.01306 0.0179012 0)
(1.00445 0.0482579 3.47582e-19)
(0.993563 0.0310415 -4.15526e-19)
(0.96777 0.0312062 4.78625e-19)
(1.00473 0.0851148 -4.45942e-20)
(1.03611 -0.00993083 0)
(1.03735 -0.00635523 1.90487e-19)
(1.02972 -0.0164708 -1.92183e-19)
(1.05729 0.0432144 -1.00907e-20)
(1.05404 0.0312145 9.17928e-20)
(1.05574 0.0577972 0)
(1.04671 0.049027 -3.52195e-20)
(1.03603 0.0325202 0)
(1.03132 0.0238371 0)
(1.03014 0.0100529 0)
(1.02767 0.0121192 0)
(1.04539 0.0291311 7.3211e-20)
(1.04616 0.0198286 -1.68187e-19)
(1.04799 0.0314478 -7.22687e-20)
(1.04665 0.0317651 -8.56263e-20)
(1.06033 0.0603765 1.42717e-19)
(1.07765 0.0533931 0)
(1.07451 0.0949371 0)
(-0.084616 1.87841 -6.67627e-21)
(-0.0552273 1.84118 -1.21992e-21)
(-0.0670011 1.8499 0)
(-0.0553253 1.88201 6.68093e-21)
(-0.0351795 1.85648 2.4089e-21)
(-0.0413737 1.86888 -1.21098e-21)
(-0.0750255 2.08754 -4.20865e-20)
(-0.0997218 1.98268 -3.18657e-22)
(-0.119376 2.01663 -1.13636e-21)
(-0.0494145 2.0063 9.3248e-21)
(-0.0512518 2.02533 -9.7274e-21)
(-0.101482 1.78731 -2.40303e-22)
(-0.100276 1.81629 1.00181e-20)
(0.403667 1.40583 -4.42277e-19)
(0.367375 1.3675 -4.55287e-19)
(0.623183 1.43401 -6.07267e-19)
(0.508382 1.49814 -3.28376e-19)
(0.529833 1.47519 0)
(0.597011 2.4193 1.18214e-19)
(0.679987 2.39367 2.20354e-19)
(0.413876 2.50436 7.361e-20)
(0.402004 2.55635 -1.83581e-19)
(0.501735 2.51739 2.3465e-19)
(0.543826 2.45727 0)
(0.487043 2.4986 -3.32721e-19)
(0.258613 2.55855 5.85823e-19)
(0.362091 2.53922 -6.59323e-20)
(0.285661 2.61666 -8.99119e-19)
(0.935703 2.38482 1.82601e-19)
(0.833194 2.37864 0)
(1.01059 0.00103151 8.05184e-21)
(1.01615 -0.00571154 -6.75964e-21)
(1.01749 -0.00456227 -1.19875e-19)
(1.01515 -0.00106317 1.19619e-19)
(1.01245 0.00122463 0)
(0.611138 1.27485 0)
(0.631151 1.16911 0)
(0.743681 1.0858 0)
(0.6162 1.12941 0)
(1.18632 2.64591 4.64183e-20)
(1.07413 2.37952 0)
(0.824989 2.23948 -2.16615e-21)
(0.833103 2.48879 0)
(0.919309 2.56875 2.91989e-20)
(0.94941 2.51765 -1.96347e-20)
(0.844484 0.13777 0)
(0.808145 0.156034 7.66482e-20)
(0.927743 0.130938 3.77937e-19)
(0.862569 0.103447 -1.55597e-19)
(0.845223 0.0700862 -4.62546e-19)
(1.03427 0.21315 -1.67408e-19)
(0.941638 0.265883 -8.01231e-21)
(0.912219 0.303 3.20919e-19)
(0.979823 0.208955 2.29537e-19)
(0.928058 0.16956 -4.66137e-19)
(0.892364 0.179619 6.29476e-20)
(0.921801 0.289511 -1.08605e-19)
(0.896993 0.192885 0)
(0.972895 0.159486 2.18221e-19)
(1.01306 0.17613 0)
(1.00834 0.186877 0)
(1.09143 0.112444 5.25527e-20)
(1.02263 0.160269 -1.00904e-20)
(1.02762 0.22084 -3.59618e-20)
(1.07933 0.196557 0)
(1.02272 0.0318269 1.80996e-19)
(1.03856 0.0531064 2.09899e-19)
(1.03513 0.034343 -1.7946e-19)
(1.03373 0.0557523 -1.41908e-19)
(1.01729 0.0565344 -2.44716e-19)
(0.972066 0.12958 0)
(0.977959 0.0777865 0)
(0.966489 0.0449818 -1.73249e-19)
(0.935119 0.0620262 7.52716e-20)
(1.02391 0.0862689 1.98749e-19)
(1.04301 0.115294 -1.75421e-19)
(1.03513 0.148967 1.6789e-19)
(1.01291 0.120984 0)
(1.05462 0.101275 0)
(1.03692 0.0905961 -7.58846e-20)
(1.03288 0.0829905 -1.57629e-19)
(0.572072 1.10763 -1.2736e-19)
(0.614156 1.47709 2.23114e-19)
(1.1395 2.75636 1.05234e-19)
(1.19613 3.13085 -7.44136e-20)
(1.24777 2.75051 5.90415e-19)
(1.2932 2.72236 -3.04767e-19)
(1.26603 2.33594 -3.45119e-20)
(1.1826 3.03612 2.32733e-19)
(1.19918 2.99219 -2.55189e-19)
(1.17956 3.28379 -2.53368e-19)
(1.40059 2.99785 3.12e-19)
(1.41341 2.9368 0)
(0.526782 0.863494 -8.49391e-21)
(0.259132 1.25001 2.75395e-19)
(0.490921 0.530901 3.23091e-19)
(0.354262 0.306739 3.79478e-19)
(0.571784 0.418926 3.6921e-19)
(0.567373 0.495762 -5.86407e-19)
(0.569412 0.500741 4.88522e-19)
(0.536069 0.457624 -1.94929e-19)
(0.498688 0.395522 4.44895e-19)
(0.784119 0.24153 -1.69608e-19)
(0.738875 0.305926 0)
(0.72768 0.247706 1.16974e-20)
(0.728534 0.502961 1.73635e-19)
(0.68606 0.475421 -6.40765e-19)
(0.653018 0.478449 2.32311e-20)
(0.653572 0.448406 0)
(0.658216 0.732996 1.1828e-19)
(0.752049 0.7683 5.86676e-20)
(0.686708 0.816992 -7.47057e-20)
(0.825092 0.784144 -5.89237e-21)
(0.876127 0.834154 1.84637e-20)
(0.882417 0.842425 -1.89405e-20)
(0.81486 0.642879 -1.62742e-19)
(0.885532 0.692443 5.48224e-21)
(0.944582 0.703236 0)
(0.937347 0.682201 1.07157e-20)
(0.978043 0.304325 5.14084e-20)
(1.10491 0.295536 -4.01052e-20)
(1.01642 0.251352 6.79651e-20)
(0.947967 0.348404 -1.17142e-19)
(0.981702 0.440689 0)
(1.0623 0.396284 0)
(0.870607 0.384489 1.04966e-20)
(0.823671 0.292897 0)
(0.852615 0.274874 1.7904e-19)
(0.867895 0.308447 8.36347e-21)
(0.909234 0.435081 6.21759e-19)
(0.851286 0.503009 1.49639e-19)
(0.859238 0.452141 -2.19577e-19)
(0.800173 0.440118 2.32812e-19)
(0.794566 0.43347 1.60226e-19)
(0.765826 0.404187 -1.57518e-19)
(1.02777 -0.0024151 1.89794e-19)
(1.01973 -0.000530498 0)
(1.01832 0.000335302 1.267e-19)
(1.02296 -0.000931975 -2.84189e-19)
(1.02115 0.00267343 1.38199e-19)
(1.02075 0.00988608 -2.92054e-19)
(1.02188 0.00962361 0)
(1.02033 0.0116984 -6.13003e-20)
(1.01639 0.00761653 1.54234e-19)
(1.01686 0.010412 -7.7793e-20)
(1.01783 0.00953623 5.67111e-20)
(-0.145621 1.10234 0)
(-0.198879 1.27189 0)
(-0.0484351 1.04557 0)
(-0.0782531 0.974556 0)
(0.229531 1.33935 -1.02065e-18)
(0.221475 1.276 3.29965e-19)
(0.263134 1.55924 2.24129e-19)
(0.280167 1.34699 -2.36747e-19)
(-0.0376697 1.48058 8.33955e-19)
(0.0353861 1.47067 -6.16783e-19)
(0.216604 1.27162 2.89741e-21)
(0.126802 1.20423 6.69482e-19)
(0.0228655 1.15734 9.50337e-20)
(-0.0778676 1.20772 9.49111e-20)
(0.133441 2.45116 2.99278e-19)
(0.120763 2.47716 0)
(0.194421 2.10206 -4.13904e-20)
(0.239345 1.77535 -1.23158e-19)
(0.216817 2.0486 2.71188e-20)
(0.225967 2.43745 0)
(0.227307 2.42444 -1.46136e-19)
(0.313723 2.4067 1.09987e-19)
(0.255515 2.0103 8.24165e-20)
(0.160016 2.18503 9.03232e-21)
(0.117162 2.30566 0)
(-0.206803 2.28419 7.3743e-19)
(-0.289604 2.56856 5.29101e-19)
(-0.314321 2.44905 0)
(-0.149096 2.63465 -2.23242e-20)
(-0.0776429 2.54656 -3.55065e-19)
(-0.342442 1.49631 -2.75001e-20)
(-0.257668 1.5373 4.09097e-19)
(-0.28628 1.60845 -9.35461e-20)
(-0.381753 1.58966 -1.59784e-19)
(-0.387767 1.5376 0)
(-0.251738 1.60425 0)
(-0.100204 1.64959 -1.38589e-20)
(-0.165745 1.67386 5.5997e-21)
(-0.210117 1.62883 0)
(-0.129083 1.54658 -1.63041e-20)
(-0.0728283 1.58753 2.5205e-20)
(1.03581 0.00279148 0)
(1.03745 0.000893702 -1.76558e-20)
(1.04718 0.015366 -1.31573e-19)
(1.04976 0.0154365 0)
(1.04579 0.0128843 0)
(1.04208 0.00254769 -6.50205e-21)
(1.03563 0.00328691 2.22648e-19)
(1.03845 0.00949966 2.66735e-19)
(1.03012 0.0162997 0)
(1.02871 0.0189222 0)
(1.04146 0.0200021 1.3445e-19)
(1.033 0.0205972 0)
(1.02963 0.0202221 0)
(-0.170988 1.89404 0)
(-0.124681 1.81732 2.28202e-21)
(-0.139348 1.87417 5.40223e-21)
(-0.140167 1.70371 0)
(-0.159474 1.7899 -1.57384e-21)
(-0.124258 1.77128 -3.5032e-21)
(-0.116762 1.74207 0)
(0.417218 1.69588 0)
(0.34056 1.29704 7.43245e-19)
(0.263829 1.35921 0)
(0.42392 1.27219 -9.42736e-19)
(0.486595 1.43673 0)
(0.440251 1.37802 4.33486e-19)
(1.02906 2.70401 -3.48981e-21)
(0.956087 2.40876 -2.30407e-19)
(0.894467 2.16079 2.65453e-19)
(0.845824 2.37254 1.02329e-19)
(0.85244 2.52452 0)
(0.915732 2.51948 0)
(0.919308 2.37908 0)
(0.897776 2.35812 -3.79901e-19)
(0.70083 2.51513 3.13849e-20)
(0.809367 2.49813 -7.11493e-21)
(0.819414 2.47262 5.43878e-21)
(0.691932 2.38305 0)
(0.797713 2.37709 0)
(0.759928 2.38953 -2.15491e-19)
(0.778591 2.50515 0)
(0.565863 1.06081 0)
(0.496549 0.903379 -2.24556e-20)
(0.497007 0.96416 3.42738e-22)
(0.479564 1.08787 0)
(0.470547 1.00822 4.01434e-20)
(0.72687 0.864882 1.82969e-20)
(0.750119 0.998243 0)
(0.725051 0.975372 -7.55233e-20)
(0.611068 1.01676 0)
(0.602921 0.933987 0)
(1.15517 2.7839 7.94211e-20)
(1.13007 2.84547 1.41056e-19)
(0.920363 2.38475 -3.22822e-19)
(0.89489 2.3585 4.82864e-20)
(1.12235 2.75854 0)
(1.07449 2.72792 -5.8195e-20)
(1.08637 2.50578 -4.60192e-20)
(0.981617 2.23911 -2.76295e-20)
(0.49412 1.36965 0)
(0.498083 1.08567 1.12067e-19)
(0.555488 1.16293 0)
(0.862124 0.203602 0)
(0.821672 0.173443 0)
(0.77185 0.164016 0)
(0.861086 0.210472 -2.80536e-19)
(0.807566 0.207091 1.76714e-19)
(0.940602 0.0550791 -1.55507e-19)
(0.949697 0.103318 0)
(0.91973 0.111026 7.10466e-20)
(0.886894 0.0697129 2.91566e-19)
(0.879385 0.0523568 -1.78408e-19)
(1.10285 3.37719 -9.5745e-19)
(1.16664 3.29908 0)
(1.12447 3.46399 -2.0604e-18)
(0.663307 3.61023 1.74272e-18)
(1.03425 3.09268 4.53821e-19)
(0.506971 0.852867 1.68552e-19)
(0.496317 0.819399 0)
(0.397244 0.56184 -7.58955e-20)
(0.446332 0.696155 3.41453e-19)
(0.515412 0.539143 -1.04038e-19)
(0.515225 0.553206 1.18046e-19)
(0.677983 0.538103 2.32328e-19)
(0.696299 0.553833 0)
(0.633394 0.630444 0)
(0.600032 0.567281 0)
(0.946089 0.598227 -6.0646e-20)
(0.893051 0.539207 -1.43e-19)
(0.916809 0.576143 3.34004e-20)
(0.961933 0.499457 -1.00539e-19)
(1.00699 0.473365 0)
(1.02362 0.585805 6.91056e-21)
(0.822796 0.396918 -3.5711e-19)
(0.819128 0.388425 -4.2336e-19)
(0.781549 0.385949 2.80337e-19)
(0.777892 0.355322 -3.21119e-19)
(0.818764 0.311874 -2.3716e-19)
(0.782233 0.314345 2.91698e-19)
(1.02622 0.00274634 -1.41334e-19)
(1.02645 0.0019969 2.86713e-19)
(1.02913 -0.00247174 1.79623e-19)
(1.03048 -0.00329107 -2.15995e-19)
(1.03281 -0.000862256 0)
(1.03172 -0.000447488 -3.50372e-19)
(0.152979 1.83068 -1.37462e-19)
(0.125463 1.78396 0)
(0.226426 1.80129 -6.8438e-19)
(0.230264 1.78235 6.08729e-19)
(0.242889 1.65706 -4.10664e-19)
(0.286114 1.66355 0)
(-0.312168 1.9156 0)
(-0.279203 1.73733 6.4937e-21)
(-0.221493 1.73498 -5.88815e-21)
(-0.18779 1.79291 4.23641e-21)
(-0.205259 1.913 -2.78635e-21)
(-0.241883 1.9223 -1.55328e-21)
(0.491935 1.37588 4.58832e-19)
(0.49922 1.38219 -4.9288e-19)
(0.430224 1.27697 4.93762e-19)
(0.425733 1.30094 -2.84319e-20)
(0.603631 1.29219 0)
(0.539703 1.36374 5.6914e-19)
(0.545693 1.38764 -5.50488e-19)
(0.458503 1.25134 -4.71071e-19)
(0.502061 1.21899 0)
(0.566061 1.20079 0)
(0.674749 2.47624 -4.64113e-20)
(0.669632 2.48094 5.15755e-19)
(0.728047 2.50128 -3.52698e-19)
(0.635647 2.47786 -1.11511e-19)
(0.55247 2.58412 7.71944e-20)
(0.49452 2.53821 -2.48366e-19)
(0.967845 2.3763 -1.44853e-19)
(1.00996 2.40505 0)
(0.910372 2.14869 -1.81327e-19)
(1.04326 2.70776 0)
(1.04239 2.69183 0)
(0.624699 2.33727 3.74585e-19)
(1.1188 3.08331 4.55374e-19)
(1.00726 2.9961 -5.44845e-19)
(0.351871 0.925125 0)
(0.37928 0.847184 -1.22789e-19)
(0.549332 0.760215 -4.18543e-20)
(0.401976 2.19295 0)
(0.421219 2.76104 -3.18352e-19)
(0.43276 2.50746 0)
(0.659891 0.681505 -2.48753e-19)
(0.711087 0.65872 3.46865e-19)
(0.727674 0.629596 -3.45909e-19)
(0.661997 0.651985 -3.76593e-20)
(0.713756 0.59423 -1.59562e-19)
(0.975912 2.7844 -3.44906e-19)
(1.01298 2.78609 2.78635e-19)
(0.584035 2.28291 -1.94977e-19)
(0.618027 1.77846 8.72348e-20)
(0.708188 1.9081 6.60145e-20)
(0.977368 2.43474 -8.79238e-20)
(0.973414 2.39893 -1.24942e-19)
(0.66868 1.85616 -3.07685e-21)
(0.462252 1.35097 -7.09564e-20)
)
;

boundaryField
{
    wall-4
    {
        type            noSlip;
    }
    velocity-inlet-5
    {
        type            fixedValue;
        value           uniform (1 0 0);
    }
    velocity-inlet-6
    {
        type            fixedValue;
        value           uniform (0 3 0);
    }
    pressure-outlet-7
    {
        type            zeroGradient;
    }
    wall-8
    {
        type            noSlip;
    }
    frontAndBackPlanes
    {
        type            empty;
    }
}


// ************************************************************************* //
