/*--------------------------------*- C++ -*----------------------------------*\
  =========                 |
  \\      /  F ield         | OpenFOAM: The Open Source CFD Toolbox
   \\    /   O peration     | Website:  https://openfoam.org
    \\  /    A nd           | Version:  6
     \\/     M anipulation  |
\*---------------------------------------------------------------------------*/
FoamFile
{
    version     2.0;
    format      ascii;
    class       volVectorField;
    location    "10.9";
    object      U;
}
// * * * * * * * * * * * * * * * * * * * * * * * * * * * * * * * * * * * * * //

dimensions      [0 1 -1 0 0 0 0];

internalField   nonuniform List<vector> 
8800
(
(0.987186 -0.0766368 0)
(1.0019 -0.0551491 0)
(0.999829 -0.0284561 0)
(1.00004 -0.0149042 0)
(0.999896 -0.00826819 0)
(0.999896 -0.00492345 0)
(0.999941 -0.00300471 0)
(0.999985 -0.00175075 0)
(1.00001 -0.000851592 0)
(1.00004 -0.000135447 0)
(1.00002 0.000563079 0)
(1 0.00135596 0)
(0.999968 0.00239834 0)
(0.999947 0.00391775 0)
(0.999866 0.00639173 0)
(0.999967 0.0110579 0)
(1.00005 0.0206132 0)
(0.999202 0.038598 0)
(1.00704 0.0724432 0)
(0.771227 0.0366544 0)
(0.36349 -0.015951 0)
(1.04358 -0.0764976 0)
(1.08422 -0.0698658 0)
(1.04462 -0.0531061 0)
(1.02305 -0.0387256 0)
(1.01186 -0.0261313 0)
(1.00594 -0.0164142 0)
(1.00328 -0.00977374 0)
(1.00206 -0.00523881 0)
(1.00148 -0.00190008 0)
(1.00135 0.000869239 0)
(1.0017 0.00385561 0)
(1.00251 0.00763784 0)
(1.00431 0.0130352 0)
(1.00835 0.0211083 0)
(1.01654 0.0322662 0)
(1.0322 0.0460217 0)
(1.06207 0.0608746 0)
(1.0918 0.0754709 0)
(0.839233 0.0562911 0)
(0.218125 -0.00232408 0)
(1.07712 -0.049575 0)
(1.10077 -0.0472839 0)
(1.06468 -0.0388467 0)
(1.03933 -0.0318796 0)
(1.02333 -0.0245397 0)
(1.01355 -0.0174325 0)
(1.00787 -0.0112407 0)
(1.00501 -0.00589499 0)
(1.00409 -0.00079566 0)
(1.00428 0.00415376 0)
(1.00604 0.00923228 0)
(1.01015 0.0148394 0)
(1.01762 0.0214295 0)
(1.03008 0.0285597 0)
(1.05042 0.0357269 0)
(1.08118 0.0428079 0)
(1.10761 0.0502372 0)
(0.944727 0.0410647 0)
(0.217839 0.00233572 0)
(0.17816 -0.000622265 0)
(1.02089 -0.0331031 0)
(1.1056 -0.0383958 0)
(1.07835 -0.0336112 0)
(1.05312 -0.027927 0)
(1.0353 -0.0227977 0)
(1.02283 -0.0176682 0)
(1.01488 -0.0121774 0)
(1.01033 -0.00653535 0)
(1.00843 -0.000837435 0)
(1.00896 0.00480521 0)
(1.01199 0.0103069 0)
(1.01807 0.0158369 0)
(1.02806 0.0209476 0)
(1.04312 0.025871 0)
(1.06408 0.0312086 0)
(1.09418 0.0367848 0)
(1.0953 0.0385764 0)
(0.834171 0.0211869 0)
(0.177701 0.000634943 0)
(0.159219 -0.000400899 0)
(0.965634 -0.0225366 0)
(1.10474 -0.0305076 0)
(1.08635 -0.0278287 0)
(1.06051 -0.0240652 0)
(1.04301 -0.0199609 0)
(1.03104 -0.0155723 0)
(1.02257 -0.0110334 0)
(1.01698 -0.0061426 0)
(1.01425 -0.000610519 0)
(1.01506 0.00510402 0)
(1.01908 0.0101136 0)
(1.0259 0.0145713 0)
(1.0359 0.0188038 0)
(1.05024 0.0228646 0)
(1.07139 0.0265926 0)
(1.10065 0.0301674 0)
(1.0742 0.0294573 0)
(0.755282 0.0121185 0)
(0.158537 0.000416047 0)
(0.148706 -0.000166012 0)
(0.919419 -0.0119554 0)
(1.09854 -0.0204215 0)
(1.09271 -0.020362 0)
(1.06493 -0.0181555 0)
(1.04579 -0.0160387 0)
(1.03283 -0.0133471 0)
(1.02437 -0.00972032 0)
(1.01917 -0.00534635 0)
(1.01693 -0.000263322 0)
(1.01735 0.00491475 0)
(1.02083 0.00945928 0)
(1.02741 0.0132243 0)
(1.03775 0.0160908 0)
(1.05335 0.0180239 0)
(1.07665 0.0201372 0)
(1.10272 0.021541 0)
(1.04855 0.0183049 0)
(0.704585 0.00544253 0)
(0.147766 0.000184824 0)
(0.145328 3.82655e-06 0)
(0.89042 -0.00507843 0)
(1.08729 -0.0118482 0)
(1.09387 -0.0136452 0)
(1.06819 -0.013775 0)
(1.0501 -0.0127471 0)
(1.03808 -0.0109881 0)
(1.02986 -0.00829016 0)
(1.02449 -0.00457113 0)
(1.02193 9.71059e-05 0)
(1.02242 0.00484729 0)
(1.02597 0.00882612 0)
(1.03238 0.0117012 0)
(1.04208 0.0135737 0)
(1.05669 0.0149061 0)
(1.07878 0.0147735 0)
(1.09933 0.0140468 0)
(1.02529 0.00961313 0)
(0.680107 0.00198658 0)
(0.144052 1.79977e-05 0)
(0.144593 2.73963e-05 0)
(0.872569 -0.002703 0)
(1.07444 -0.00869697 0)
(1.09018 -0.0123615 0)
(1.06749 -0.0134691 0)
(1.05105 -0.0132754 0)
(1.0399 -0.0115003 0)
(1.03246 -0.00855499 0)
(1.02761 -0.00449645 0)
(1.02516 0.000474279 0)
(1.02548 0.00547583 0)
(1.02854 0.00972198 0)
(1.0342 0.0128281 0)
(1.04308 0.0148134 0)
(1.05634 0.0151994 0)
(1.07641 0.0145856 0)
(1.09151 0.0120261 0)
(1.00614 0.00635126 0)
(0.667452 0.00100396 0)
(0.142914 -1.56949e-06 0)
(0.144501 1.9515e-05 0)
(0.85966 -0.00157841 0)
(1.05891 -0.00701219 0)
(1.08314 -0.0123765 0)
(1.06653 -0.0145776 0)
(1.05282 -0.0144765 0)
(1.04322 -0.0125745 0)
(1.03656 -0.00926486 0)
(1.03194 -0.00471022 0)
(1.02933 0.000869648 0)
(1.02956 0.00654769 0)
(1.03241 0.0112087 0)
(1.03742 0.0145935 0)
(1.045 0.0165923 0)
(1.05591 0.0169082 0)
(1.07267 0.0157928 0)
(1.07923 0.0113733 0)
(0.988094 0.00471815 0)
(0.659394 0.000669992 0)
(0.142332 1.29539e-05 0)
(0.144511 1.70732e-05 0)
(0.850931 -0.000746866 0)
(1.0434 -0.004648 0)
(1.07284 -0.0100302 0)
(1.0646 -0.0134783 0)
(1.05406 -0.0137321 0)
(1.04671 -0.0119585 0)
(1.04099 -0.0086442 0)
(1.03673 -0.00411274 0)
(1.03421 0.0015322 0)
(1.03416 0.00730922 0)
(1.03645 0.0118694 0)
(1.0406 0.015027 0)
(1.04644 0.0167345 0)
(1.05521 0.0168648 0)
(1.06536 0.0141852 0)
(1.06404 0.00896926 0)
(0.972883 0.00320831 0)
(0.653963 0.000491418 0)
(0.141727 2.18272e-05 0)
(0.144781 2.95705e-05 0)
(0.846525 -4.7575e-05 0)
(1.03257 -0.0020597 0)
(1.0637 -0.00559195 0)
(1.06053 -0.00827877 0)
(1.05475 -0.00917584 0)
(1.04937 -0.00830898 0)
(1.04463 -0.00591839 0)
(1.04077 -0.00221162 0)
(1.03827 0.00257547 0)
(1.03789 0.00733778 0)
(1.03959 0.0108904 0)
(1.04279 0.0130199 0)
(1.04709 0.0136481 0)
(1.05222 0.0127106 0)
(1.05724 0.00987821 0)
(1.05135 0.00573287 0)
(0.96273 0.00194152 0)
(0.650591 0.000345423 0)
(0.141228 2.07464e-05 0)
(0.145306 4.11999e-05 0)
(0.845214 0.000374602 0)
(1.02705 -0.000384084 0)
(1.05809 -0.00213159 0)
(1.05768 -0.00369907 0)
(1.05454 -0.00439211 0)
(1.05103 -0.00398075 0)
(1.04745 -0.00240283 0)
(1.04416 0.000280428 0)
(1.0417 0.0038369 0)
(1.0409 0.00724227 0)
(1.04177 0.00955144 0)
(1.04376 0.0104546 0)
(1.04629 0.0101466 0)
(1.04894 0.0087369 0)
(1.05098 0.00642979 0)
(1.04308 0.00363612 0)
(0.956742 0.00135699 0)
(0.648317 0.00033293 0)
(0.140767 2.65268e-05 0)
(0.145999 4.67371e-05 0)
(0.845549 0.000599821 0)
(1.02503 0.000609334 0)
(1.0555 4.03389e-05 0)
(1.05621 -0.000541935 0)
(1.05442 -0.000733039 0)
(1.05207 -0.000316901 0)
(1.04934 0.000848521 0)
(1.0465 0.00277691 0)
(1.04399 0.00526831 0)
(1.04267 0.00746579 0)
(1.04276 0.00860605 0)
(1.04359 0.00863996 0)
(1.04477 0.00784231 0)
(1.04592 0.00639581 0)
(1.04649 0.00458127 0)
(1.03792 0.0026997 0)
(0.952923 0.00121355 0)
(0.646319 0.000387332 0)
(0.140213 3.55728e-05 0)
(0.146852 5.67732e-05 0)
(0.847057 0.000841254 0)
(1.02504 0.00128034 0)
(1.05497 0.0014163 0)
(1.05605 0.0015445 0)
(1.05486 0.0018748 0)
(1.0531 0.00254036 0)
(1.05085 0.00364105 0)
(1.04823 0.005175 0)
(1.04557 0.00694224 0)
(1.04369 0.00826157 0)
(1.04284 0.00865745 0)
(1.04279 0.00805759 0)
(1.04301 0.00690505 0)
(1.04328 0.0054703 0)
(1.04315 0.00394131 0)
(1.03433 0.00249469 0)
(0.949921 0.00131222 0)
(0.644165 0.000482434 0)
(0.139498 4.71786e-05 0)
(0.147916 7.11453e-05 0)
(0.849376 0.00109844 0)
(1.0263 0.00187516 0)
(1.05576 0.00248933 0)
(1.05691 0.00313686 0)
(1.05591 0.00393694 0)
(1.05437 0.00494928 0)
(1.05225 0.0061994 0)
(1.0496 0.00762024 0)
(1.04659 0.00896336 0)
(1.04403 0.00963398 0)
(1.04242 0.00931641 0)
(1.04152 0.00836026 0)
(1.04105 0.00699102 0)
(1.04078 0.00548891 0)
(1.04027 0.0040261 0)
(1.0313 0.00269692 0)
(0.947003 0.00155009 0)
(0.641609 0.000607307 0)
(0.138577 6.09239e-05 0)
(0.14926 8.96994e-05 0)
(0.852538 0.00141299 0)
(1.02851 0.00251606 0)
(1.05752 0.00353278 0)
(1.05861 0.00462556 0)
(1.0576 0.00587331 0)
(1.05601 0.00728823 0)
(1.05377 0.00882276 0)
(1.05082 0.0103236 0)
(1.04726 0.0114587 0)
(1.04389 0.0116702 0)
(1.04148 0.0108743 0)
(1.03987 0.00948594 0)
(1.03883 0.00783073 0)
(1.03816 0.00614757 0)
(1.0374 0.00457481 0)
(1.02826 0.00316553 0)
(0.943763 0.00189892 0)
(0.638466 0.00076496 0)
(0.137403 7.74944e-05 0)
(0.150971 0.00011476 0)
(0.856677 0.00181663 0)
(1.03163 0.00329262 0)
(1.06016 0.00471527 0)
(1.06111 0.00624898 0)
(1.05994 0.00796505 0)
(1.05813 0.00984809 0)
(1.05553 0.011779 0)
(1.05204 0.0135033 0)
(1.04768 0.0145797 0)
(1.04335 0.0144386 0)
(1.04005 0.0131803 0)
(1.03775 0.0113392 0)
(1.0362 0.00930538 0)
(1.03518 0.00731636 0)
(1.03419 0.00549216 0)
(1.02484 0.00386172 0)
(0.939913 0.0023615 0)
(0.634546 0.000962752 0)
(0.13592 9.78578e-05 0)
(0.153173 0.000149127 0)
(0.86204 0.0023476 0)
(1.03579 0.00427883 0)
(1.06375 0.00614484 0)
(1.06451 0.00815343 0)
(1.06306 0.0104038 0)
(1.06082 0.0128578 0)
(1.05764 0.0153113 0)
(1.05335 0.0173862 0)
(1.04791 0.0185092 0)
(1.04241 0.0180584 0)
(1.0381 0.0163044 0)
(1.03506 0.0139267 0)
(1.03298 0.0113996 0)
(1.03161 0.00897912 0)
(1.0304 0.00677611 0)
(1.02078 0.00480021 0)
(0.935179 0.00295774 0)
(0.629623 0.00121196 0)
(0.134056 0.000123449 0)
(0.156032 0.000196376 0)
(0.869003 0.00305181 0)
(1.04128 0.00554308 0)
(1.06859 0.00789989 0)
(1.06904 0.0104562 0)
(1.06717 0.0133877 0)
(1.06429 0.0165781 0)
(1.06023 0.0196828 0)
(1.05484 0.0222319 0)
(1.048 0.0234726 0)
(1.04103 0.0226988 0)
(1.03555 0.02036 0)
(1.03165 0.0173256 0)
(1.02898 0.014171 0)
(1.02723 0.0111894 0)
(1.02577 0.00848368 0)
(1.01579 0.0060359 0)
(0.929253 0.0037258 0)
(0.623409 0.0015295 0)
(0.131716 0.000156445 0)
(0.159782 0.00026004 0)
(0.8781 0.0039776 0)
(1.04857 0.00716011 0)
(1.0751 0.0100904 0)
(1.07506 0.0133315 0)
(1.07259 0.0172069 0)
(1.06881 0.0213658 0)
(1.06354 0.0252583 0)
(1.05665 0.0283781 0)
(1.04799 0.029762 0)
(1.0392 0.028593 0)
(1.03228 0.0255291 0)
(1.02736 0.0216763 0)
(1.024 0.0177329 0)
(1.02178 0.0140486 0)
(1.02001 0.0107166 0)
(1.00957 0.00766537 0)
(0.921773 0.00472934 0)
(0.615534 0.00193863 0)
(0.128783 0.000199521 0)
(0.164768 0.000347083 0)
(0.890028 0.00521412 0)
(1.05814 0.0093056 0)
(1.08369 0.0129786 0)
(1.08297 0.0171387 0)
(1.07957 0.0221832 0)
(1.07462 0.0275038 0)
(1.06786 0.0324583 0)
(1.05896 0.0362413 0)
(1.04793 0.0377333 0)
(1.03686 0.0360256 0)
(1.02819 0.0320404 0)
(1.02203 0.0271599 0)
(1.01779 0.0222266 0)
(1.01499 0.0176697 0)
(1.01282 0.0135813 0)
(1.0018 0.00979932 0)
(0.91237 0.00605232 0)
(0.605585 0.00246328 0)
(0.12512 0.000253908 0)
(0.171526 0.000477225 0)
(0.905663 0.00701246 0)
(1.07042 0.0123529 0)
(1.09473 0.0170219 0)
(1.09317 0.0225001 0)
(1.08858 0.0289918 0)
(1.08209 0.0357194 0)
(1.07325 0.0418175 0)
(1.06178 0.0462703 0)
(1.04775 0.0477587 0)
(1.03388 0.0452913 0)
(1.02308 0.0401295 0)
(1.01541 0.0339663 0)
(1.01011 0.0277934 0)
(1.00655 0.0221383 0)
(1.00385 0.0171232 0)
(0.992128 0.0124806 0)
(0.900716 0.00775284 0)
(0.593206 0.0031217 0)
(0.120582 0.000316586 0)
(0.18088 0.000687732 0)
(0.926265 0.0098341 0)
(1.08633 0.0167752 0)
(1.10897 0.0227499 0)
(1.1061 0.0299128 0)
(1.09988 0.0382416 0)
(1.09115 0.0465624 0)
(1.07952 0.0538711 0)
(1.06477 0.0589534 0)
(1.04713 0.0602305 0)
(1.02994 0.056702 0)
(1.01665 0.050063 0)
(1.00718 0.042337 0)
(1.00059 0.0346438 0)
(0.996109 0.0276037 0)
(0.992729 0.0214102 0)
(0.980156 0.0157099 0)
(0.886408 0.00982014 0)
(0.57802 0.00394062 0)
(0.114976 0.000395805 0)
(0.194102 0.0010439 0)
(0.953815 0.0143312 0)
(1.10736 0.0233978 0)
(1.12756 0.0313032 0)
(1.12255 0.0406982 0)
(1.11369 0.0511528 0)
(1.10172 0.0611798 0)
(1.08634 0.0696167 0)
(1.06751 0.0750186 0)
(1.04561 0.0756494 0)
(1.02464 0.0706414 0)
(1.00852 0.062203 0)
(0.996959 0.0526503 0)
(0.988835 0.0431842 0)
(0.983226 0.0344828 0)
(0.979006 0.0268311 0)
(0.96535 0.0198167 0)
(0.868686 0.012518 0)
(0.559258 0.0050222 0)
(0.108116 0.00049324 0)
(0.21344 0.0017032 0)
(0.991408 0.0216145 0)
(1.13538 0.0336296 0)
(1.15187 0.0442669 0)
(1.1434 0.056543 0)
(1.13054 0.0694017 0)
(1.11399 0.0810528 0)
(1.09367 0.0901581 0)
(1.06978 0.0952169 0)
(1.04292 0.094513 0)
(1.01772 0.0874676 0)
(0.998443 0.0768821 0)
(0.984505 0.0652836 0)
(0.97452 0.053872 0)
(0.967449 0.04333 0)
(0.962053 0.0339834 0)
(0.946907 0.0254028 0)
(0.84647 0.016246 0)
(0.536104 0.00652272 0)
(0.099688 0.000633429 0)
(0.242446 0.00320008 0)
(1.04485 0.0350527 0)
(1.17256 0.051304 0)
(1.1829 0.0655409 0)
(1.1687 0.0808128 0)
(1.14993 0.0954813 0)
(1.12726 0.10776 0)
(1.10085 0.116431 0)
(1.07113 0.120112 0)
(1.03877 0.117158 0)
(1.00904 0.107424 0)
(0.986361 0.0943404 0)
(0.969769 0.0805432 0)
(0.957576 0.0671256 0)
(0.948603 0.0547154 0)
(0.941448 0.043568 0)
(0.924037 0.0333653 0)
(0.818364 0.0217431 0)
(0.507443 0.00864097 0)
(0.0898868 0.000785852 0)
(0.283408 0.0104155 -1.41702e-21)
(1.11533 0.0628935 -9.28393e-22)
(1.21831 0.0831088 1.8229e-22)
(1.21796 0.101146 0)
(1.19566 0.117506 -7.4277e-36)
(1.16936 0.13189 1.37207e-22)
(1.13959 0.142979 -4.20484e-22)
(1.10648 0.149768 0)
(1.07046 0.150996 1.25194e-35)
(1.03217 0.145103 -8.87919e-22)
(0.997433 0.132369 0)
(0.970841 0.116756 -1.21792e-21)
(0.951008 0.100888 -3.69899e-21)
(0.93592 0.0857212 -1.78264e-21)
(0.924207 0.0718679 -5.57284e-22)
(0.914191 0.0594758 -3.37031e-22)
(0.893527 0.0482588 0)
(0.781856 0.0338586 2.43527e-22)
(0.471167 0.0168053 2.902e-22)
(0.0801629 0.00279355 5.21739e-21)
(0.307502 0.0278049 -3.7577e-21)
(1.17203 0.109215 1.04636e-22)
(1.26027 0.132586 -1.62475e-22)
(1.24997 0.150283 0)
(1.21982 0.164878 -1.48726e-23)
(1.18615 0.177431 -2.40298e-22)
(1.14939 0.18665 -3.39008e-22)
(1.10959 0.1913 -1.78612e-21)
(1.06697 0.190104 0)
(1.02201 0.181549 3.75678e-21)
(0.981096 0.166341 4.04677e-21)
(0.949292 0.148884 1.27848e-21)
(0.924896 0.131732 4.97252e-21)
(0.905608 0.115687 7.27371e-21)
(0.889847 0.101184 0)
(0.875732 0.0886866 1.07766e-20)
(0.849984 0.0774794 1.58265e-20)
(0.740957 0.0598149 1.78029e-20)
(0.447546 0.0370018 -2.07391e-20)
(0.0781436 0.00687 -3.84399e-22)
(0.300742 0.0454237 0)
(1.20462 0.168852 -1.22446e-21)
(1.29199 0.194835 0)
(1.27503 0.209348 1.58965e-21)
(1.23869 0.220224 0)
(1.19871 0.229255 1.93295e-22)
(1.15575 0.235131 5.45132e-22)
(1.10983 0.236681 -2.98598e-21)
(1.06116 0.232429 -3.087e-22)
(1.01015 0.220871 1.84595e-21)
(0.963721 0.203209 9.29654e-21)
(0.92737 0.184274 -5.21769e-23)
(0.899185 0.166538 -3.70856e-21)
(0.876588 0.150629 -7.12183e-21)
(0.857901 0.136903 8.63189e-21)
(0.84127 0.125414 -1.55057e-20)
(0.815463 0.115361 -2.12532e-21)
(0.719102 0.0963974 0)
(0.451023 0.0627086 6.3275e-23)
(0.0857837 0.0124923 0)
(0.288815 0.0599302 -3.27802e-20)
(1.21887 0.231693 1.31182e-20)
(1.31184 0.261576 6.66094e-21)
(1.29131 0.273023 -1.14103e-21)
(1.25062 0.279867 1.70484e-21)
(1.20595 0.284777 -7.73381e-22)
(1.15806 0.286731 9.6385e-22)
(1.10711 0.284554 0)
(1.05334 0.276823 -7.74241e-21)
(0.997086 0.261968 0)
(0.946042 0.241742 -4.75459e-21)
(0.906277 0.221342 -6.52068e-21)
(0.875599 0.203132 -4.12172e-21)
(0.851208 0.187412 -5.26667e-21)
(0.831344 0.174217 0)
(0.814181 0.163531 0)
(0.790139 0.153975 -1.4151e-20)
(0.703775 0.133829 2.83763e-21)
(0.451672 0.0881492 -1.67251e-21)
(0.0891371 0.0179232 -1.98098e-21)
(0.277793 0.0728096 2.47237e-20)
(1.22123 0.293934 0)
(1.3222 0.329017 -1.90744e-20)
(1.29965 0.337788 -4.52851e-21)
(1.25608 0.340735 -3.03091e-21)
(1.20819 0.341499 0)
(1.15657 0.339547 2.9252e-22)
(1.1016 0.333522 2.89619e-21)
(1.04361 0.322136 3.54697e-21)
(0.983134 0.3038 9.08806e-21)
(0.928466 0.280795 0)
(0.886112 0.258698 -1.41183e-20)
(0.853785 0.239595 -8.93092e-21)
(0.828422 0.223543 -5.36279e-21)
(0.808039 0.210381 3.48058e-20)
(0.790836 0.199924 4.25836e-21)
(0.768506 0.190411 2.03995e-20)
(0.688729 0.167957 -9.90356e-20)
(0.446523 0.11063 5.93388e-20)
(0.0892406 0.0225804 -7.25266e-20)
(0.268654 0.0843334 2.6445e-20)
(1.21638 0.353602 -4.73902e-21)
(1.32553 0.395016 3.44048e-21)
(1.30184 0.401583 9.00071e-21)
(1.25623 0.400858 5.1568e-21)
(1.20584 0.397867 3.24631e-22)
(1.15145 0.392145 -4.06308e-22)
(1.09335 0.382433 2.522e-21)
(1.03192 0.367375 -7.68665e-21)
(0.967782 0.345526 0)
(0.909983 0.31952 -6.11961e-21)
(0.865609 0.295304 -2.95603e-22)
(0.832167 0.274823 -9.93617e-21)
(0.806307 0.257935 0)
(0.785899 0.244264 -7.56965e-21)
(0.769089 0.233431 -1.83688e-20)
(0.748083 0.22326 5.07775e-20)
(0.672345 0.198056 -5.0905e-20)
(0.437631 0.130053 7.28621e-20)
(0.0877053 0.0265288 -7.68018e-20)
(0.26147 0.0950159 -1.20658e-22)
(1.20719 0.41004 5.8975e-21)
(1.32362 0.458572 1.67551e-20)
(1.29935 0.46337 -5.6597e-21)
(1.25234 0.459331 3.00927e-21)
(1.20009 0.452949 0)
(1.1435 0.443732 7.56702e-22)
(1.08276 0.430533 -2.30342e-21)
(1.01841 0.411979 -3.65341e-21)
(0.951216 0.386571 0)
(0.890854 0.357366 -6.02211e-21)
(0.844875 0.330699 -8.25685e-21)
(0.810626 0.308437 1.08313e-20)
(0.784554 0.290256 -6.87477e-21)
(0.764304 0.275615 -3.32165e-20)
(0.747933 0.263985 2.03669e-20)
(0.727877 0.252832 6.43405e-21)
(0.654804 0.224699 0)
(0.426582 0.146996 -7.05505e-20)
(0.0852771 0.0298442 -2.62251e-21)
(0.255962 0.105191 4.39557e-21)
(1.19552 0.463149 -6.83783e-21)
(1.31785 0.519008 -9.18208e-21)
(1.29334 0.522499 -1.73195e-20)
(1.24535 0.515601 1.50792e-20)
(1.19174 0.506206 -7.17204e-21)
(1.13337 0.493852 -1.60932e-21)
(1.07054 0.477406 -3.49232e-21)
(1.00379 0.455566 3.12489e-21)
(0.933888 0.426654 -2.20483e-20)
(0.871103 0.394128 -7.27962e-21)
(0.823622 0.364735 0)
(0.788692 0.340327 1.18193e-20)
(0.762491 0.320465 1.4539e-20)
(0.742477 0.304512 1.78315e-20)
(0.72656 0.291773 -2.21938e-20)
(0.707261 0.279398 -6.68834e-21)
(0.636255 0.248307 7.98018e-21)
(0.413995 0.161622 0)
(0.0822332 0.0325426 -5.71867e-21)
(0.251757 0.114941 -5.13734e-20)
(1.18267 0.513087 3.1611e-20)
(1.30926 0.576236 1.01313e-20)
(1.28472 0.5787 -1.33933e-20)
(1.23604 0.569312 9.23972e-21)
(1.18144 0.557244 -7.69937e-22)
(1.12175 0.542077 1.44059e-21)
(1.05715 0.522755 -1.34466e-21)
(0.988218 0.49785 -6.4181e-21)
(0.915812 0.465619 2.73663e-23)
(0.8507 0.429714 -2.18641e-20)
(0.801745 0.397371 2.07996e-20)
(0.766142 0.370488 -1.32002e-20)
(0.739843 0.348617 1.63333e-20)
(0.720086 0.331039 0)
(0.704628 0.316951 -1.20558e-20)
(0.685997 0.303137 -2.68276e-22)
(0.616723 0.268983 -3.48601e-20)
(0.400071 0.174042 -5.19092e-21)
(0.0786512 0.0345635 0)
(0.24862 0.124443 0)
(1.16936 0.560082 3.42269e-20)
(1.29868 0.630218 2.39101e-20)
(1.27424 0.631851 1.52595e-20)
(1.22511 0.620273 8.74652e-21)
(1.16974 0.605835 0)
(1.10896 0.588203 2.28672e-21)
(1.0429 0.566324 -2.57088e-22)
(0.971988 0.538729 1.35645e-20)
(0.897238 0.503423 -2.75789e-21)
(0.8298 0.464167 -1.59808e-20)
(0.779239 0.428711 1.04832e-20)
(0.742864 0.399062 -3.9687e-22)
(0.716401 0.374844 1.72585e-20)
(0.696883 0.355355 1.118e-20)
(0.681906 0.339688 -2.62492e-20)
(0.663869 0.324223 3.18053e-20)
(0.596006 0.286771 9.55548e-21)
(0.384731 0.184125 3.98326e-20)
(0.0744516 0.0358359 -1.07812e-19)
(0.246373 0.133773 -1.32867e-20)
(1.15611 0.6043 1.99193e-20)
(1.28676 0.68096 -1.5172e-20)
(1.26243 0.68191 -1.79397e-20)
(1.21298 0.668399 0)
(1.1571 0.651864 6.99911e-21)
(1.09548 0.632104 -6.32813e-21)
(1.02819 0.608032 1.93336e-21)
(0.955517 0.578104 0)
(0.878338 0.540045 -4.19249e-20)
(0.808498 0.497608 4.34881e-20)
(0.756155 0.458914 0)
(0.718801 0.426256 1.56403e-20)
(0.692044 0.399369 -4.06155e-22)
(0.672731 0.377647 -3.55458e-20)
(0.658199 0.360097 1.39765e-20)
(0.640712 0.342796 0)
(0.574058 0.301745 5.17891e-20)
(0.367911 0.191875 0)
(0.0696972 0.0364627 -5.14293e-20)
(0.244787 0.142923 1.48355e-20)
(1.1432 0.645898 2.29148e-20)
(1.27397 0.728507 -1.58692e-20)
(1.24978 0.728891 0)
(1.20016 0.713689 1.25235e-20)
(1.14393 0.695348 0)
(1.08171 0.673745 9.22841e-21)
(1.01335 0.647812 4.35482e-22)
(0.939038 0.615911 1.70534e-21)
(0.859383 0.575527 -2.06885e-20)
(0.786962 0.530146 4.26507e-21)
(0.73258 0.488218 0)
(0.693953 0.452323 -3.33863e-20)
(0.66664 0.422425 4.22671e-22)
(0.647423 0.398173 0)
(0.63331 0.378374 4.90222e-22)
(0.616392 0.358913 4.69656e-20)
(0.550752 0.313951 -4.5463e-20)
(0.349538 0.197194 1.35184e-20)
(0.0643423 0.0363097 0)
(0.243478 0.151771 0)
(1.13074 0.685002 2.5704e-20)
(1.2607 0.772963 1.87936e-20)
(1.23663 0.772851 -4.23645e-22)
(1.18696 0.756174 8.01701e-21)
(1.13053 0.736284 1.67787e-20)
(1.06785 0.713127 -2.88174e-21)
(0.998648 0.685664 -5.04521e-22)
(0.922811 0.652157 8.90462e-21)
(0.840785 0.609818 -3.2308e-20)
(0.765469 0.561838 -6.45395e-22)
(0.708648 0.516816 -1.37987e-20)
(0.668265 0.477533 5.47785e-20)
(0.640015 0.444328 -5.1342e-22)
(0.620715 0.416999 -2.81748e-20)
(0.607249 0.394693 -5.13573e-20)
(0.590924 0.37265 0)
(0.525912 0.323404 0)
(0.329429 0.199966 1.49011e-20)
(0.0583828 0.0353206 -8.81388e-21)
(0.242581 0.160449 1.85395e-20)
(1.11885 0.721447 -5.6274e-20)
(1.24722 0.814459 -2.01315e-20)
(1.22327 0.813891 0)
(1.17365 0.795936 -3.02718e-22)
(1.11715 0.774733 2.06298e-20)
(1.05417 0.750266 -1.05704e-20)
(0.984263 0.721568 -1.85678e-21)
(0.907084 0.686851 1.00012e-20)
(0.822743 0.642987 -2.51322e-20)
(0.744207 0.592905 -3.68925e-20)
(0.684432 0.544938 3.68523e-20)
(0.641742 0.502172 0)
(0.612168 0.465347 -1.27404e-20)
(0.592681 0.434411 -3.09818e-20)
(0.579711 0.409279 -3.73545e-20)
(0.563712 0.384176 -4.54005e-20)
(0.49888 0.330007 1.36531e-20)
(0.307268 0.199827 -8.04912e-21)
(0.0517861 0.0334494 1.10301e-22)
(0.241659 0.168744 0)
(1.10755 0.755808 0)
(1.23375 0.853157 4.89329e-22)
(1.2099 0.852157 0)
(1.16043 0.833096 -3.05908e-20)
(1.10397 0.810774 -1.85495e-20)
(1.04082 0.78521 0)
(0.970358 0.755539 -9.44756e-22)
(0.891977 0.719985 1.41334e-20)
(0.805312 0.675139 -5.76567e-20)
(0.723382 0.623434 0)
(0.660076 0.572773 -2.36618e-20)
(0.614765 0.526468 -6.24771e-22)
(0.583502 0.485749 -5.15482e-22)
(0.563261 0.451122 3.32532e-20)
(0.550127 0.422147 -6.53839e-23)
(0.534157 0.393449 -9.90027e-20)
(0.469357 0.333626 2.99069e-20)
(0.282835 0.196578 8.92926e-21)
(0.0445448 0.0306484 0)
(0.240713 0.176594 -6.85979e-20)
(1.09655 0.788066 -3.4667e-20)
(1.22039 0.889206 -5.08848e-20)
(1.19667 0.887784 6.98443e-20)
(1.14743 0.86775 -5.77866e-20)
(1.09114 0.844477 0)
(1.02795 0.818012 -9.67031e-21)
(0.957072 0.787606 1.65142e-21)
(0.877597 0.751566 7.46074e-22)
(0.788714 0.706227 4.48536e-21)
(0.703297 0.653329 4.64719e-20)
(0.636124 0.600472 -8.12323e-21)
(0.587776 0.550844 -3.40097e-20)
(0.554108 0.506172 -1.52268e-20)
(0.532171 0.467104 1.85416e-20)
(0.518741 0.433837 -5.34113e-23)
(0.502564 0.400352 2.73088e-20)
(0.437172 0.333667 -6.50712e-20)
(0.255616 0.189603 7.81046e-20)
(0.0366635 0.0268472 1.14544e-20)
(0.239551 0.184006 2.52447e-20)
(1.08592 0.818324 -1.89787e-20)
(1.20726 0.922744 1.16516e-21)
(1.1837 0.920915 3.96857e-20)
(1.13476 0.900028 1.36295e-20)
(1.07873 0.87593 3.74703e-20)
(1.01564 0.848744 -4.46812e-21)
(0.944503 0.817835 8.60665e-21)
(0.864122 0.781587 -1.11432e-20)
(0.773144 0.736209 -3.19514e-20)
(0.684241 0.682768 0)
(0.612752 0.628402 -3.6482e-20)
(0.560078 0.5762 4.94321e-20)
(0.522857 0.527183 0)
(0.498795 0.482699 -3.97952e-20)
(0.484367 0.444341 2.47197e-20)
(0.46815 0.405679 -2.96295e-20)
(0.401702 0.330573 -3.59279e-20)
(0.225104 0.178706 -6.39042e-20)
(0.0281662 0.0220131 -5.05594e-20)
(0.238527 0.19104 -2.78077e-20)
(1.0755 0.846605 2.03224e-20)
(1.19444 0.953906 4.78369e-20)
(1.17107 0.951671 5.474e-20)
(1.1225 0.930036 -2.85673e-20)
(1.06682 0.905227 2.61761e-20)
(1.00396 0.877472 -1.38981e-20)
(0.932732 0.846301 1.15802e-20)
(0.851635 0.810114 -5.33482e-21)
(0.75866 0.765148 3.10385e-20)
(0.666068 0.711937 9.92424e-20)
(0.589838 0.656615 0)
(0.531818 0.602099 0)
(0.489784 0.548862 -1.76371e-20)
(0.462865 0.499542 0)
(0.446804 0.453807 5.39876e-20)
(0.430413 0.407354 6.50863e-20)
(0.362966 0.32251 0)
(0.192368 0.163481 0)
(0.0196318 0.0164071 5.54271e-20)
(0.237203 0.197441 3.0742e-20)
(1.06531 0.8731 2.45198e-20)
(1.18196 0.982833 3.4443e-20)
(1.15884 0.980203 -4.90887e-20)
(1.11068 0.957889 -3.20223e-20)
(1.05544 0.932454 -3.50179e-20)
(0.992936 0.904251 2.08413e-20)
(0.921801 0.872974 1.44118e-22)
(0.840185 0.83714 -9.61732e-22)
(0.745351 0.792991 -1.24997e-21)
(0.64906 0.740487 5.04231e-20)
(0.568128 0.685061 0)
(0.504415 0.628687 4.99949e-20)
(0.455923 0.572151 3.72262e-20)
(0.42445 0.517155 9.50122e-20)
(0.4047 0.463642 2.91461e-20)
(0.387157 0.405734 -3.62571e-20)
(0.3204 0.307094 -2.15087e-20)
(0.159897 0.143019 0)
(0.0125572 0.0106367 6.06868e-20)
(0.236058 0.203661 -6.78001e-20)
(1.05532 0.897898 0)
(1.16987 1.00966 3.86166e-20)
(1.14703 1.00662 -4.03481e-20)
(1.09935 0.983694 3.64797e-20)
(1.04462 0.957706 5.15462e-20)
(0.982591 0.929145 -4.90976e-20)
(0.911672 0.897908 1.70866e-22)
(0.829715 0.862624 0)
(0.733342 0.819666 -3.00043e-20)
(0.633578 0.768434 -1.05293e-19)
(0.547679 0.713461 5.02577e-21)
(0.477974 0.65652 6.79983e-20)
(0.422257 0.597966 0)
(0.383596 0.539254 6.39817e-20)
(0.357026 0.475214 0)
(0.334091 0.399712 0)
(0.270896 0.276444 -2.41498e-20)
(0.138977 0.107749 0)
(0.0247205 0.00922816 1.64622e-20)
(0.234559 0.209211 -7.41988e-20)
(1.04551 0.921053 0)
(1.15813 1.03461 6.27533e-20)
(1.13559 1.03117 0)
(1.08845 1.0077 -1.99099e-20)
(1.03429 0.981253 0)
(0.972825 0.952446 -3.74802e-21)
(0.902249 0.921413 -2.22044e-21)
(0.8201 0.886903 4.2747e-22)
(0.722415 0.845536 -3.02532e-20)
(0.619442 0.796219 2.82093e-21)
(0.528569 0.742569 4.14519e-20)
(0.452794 0.685631 6.59111e-20)
(0.389208 0.626726 9.36357e-21)
(0.340132 0.565441 4.98828e-20)
(0.301899 0.49424 0)
(0.261213 0.394897 7.9213e-20)
(0.195761 0.221786 -4.77625e-20)
(0.0702868 0.100522 5.59104e-20)
(-0.0296692 0.393703 -6.64643e-20)
(0.233044 0.214466 6.05977e-20)
(1.03576 0.94268 9.35971e-20)
(1.14665 1.05798 0)
(1.1244 1.05423 9.39964e-22)
(1.07782 1.03041 5.42391e-20)
(1.02421 1.0037 -1.00828e-19)
(0.963408 0.974842 -2.2051e-20)
(0.893267 0.944335 0)
(0.811057 0.911015 -1.50743e-21)
(0.712134 0.87186 -1.07908e-21)
(0.605967 0.825437 0)
(0.5099 0.774257 0)
(0.427229 0.718186 5.77844e-20)
(0.355478 0.660535 -2.90788e-20)
(0.293109 0.602674 -4.94302e-20)
(0.238612 0.527711 0)
(0.150698 0.398842 4.04622e-20)
(0.0464284 0.484908 -4.88241e-20)
(0.0512525 1.7274 -2.70605e-20)
(0.0857449 2.7254 -3.27889e-20)
(0.231259 0.21909 -4.45266e-20)
(1.02615 0.962957 -1.18361e-19)
(1.13543 1.07979 3.63215e-20)
(1.11348 1.0757 3.45917e-20)
(1.06751 1.05167 0)
(1.01445 1.02481 -7.24914e-20)
(0.954475 0.996068 -3.73285e-20)
(0.884829 0.966273 1.58364e-21)
(0.802741 0.934468 -1.55567e-22)
(0.702834 0.897942 2.43479e-20)
(0.593555 0.855207 4.77424e-20)
(0.492457 0.80758 4.29545e-20)
(0.402904 0.753462 5.66946e-20)
(0.323355 0.697443 -6.61444e-20)
(0.249575 0.648472 -7.26598e-20)
(0.174057 0.582859 0)
(0.085567 0.843415 0)
(0.135671 2.43321 2.12916e-20)
(0.145388 3.14998 0)
(0.14406 3.36488 5.39076e-20)
(0.232356 0.223464 0)
(1.01679 0.982098 0)
(1.12421 1.09995 0)
(1.10264 1.09541 9.67071e-21)
(1.0573 1.07132 4.87199e-20)
(1.0048 1.04446 -5.56648e-20)
(0.945941 1.01603 -2.69074e-20)
(0.876862 0.987096 1.84484e-21)
(0.795081 0.957029 -8.19405e-21)
(0.694449 0.923602 -2.08475e-21)
(0.582443 0.88538 8.73971e-20)
(0.476298 0.842403 -5.02782e-21)
(0.380006 0.791893 6.42756e-21)
(0.294413 0.734212 9.3943e-21)
(0.216689 0.702703 5.20841e-22)
(0.145597 0.948777 3.15037e-22)
(0.185345 2.55361 -1.01829e-19)
(0.209993 3.26372 -3.90508e-20)
(0.191388 3.422 1.92734e-20)
(0.171933 3.44897 -2.03163e-20)
(0.152735 0.167368 2.63134e-20)
(1.00126 1.00298 0)
(1.11303 1.11865 -7.14265e-20)
(1.0923 1.11375 -9.00418e-20)
(1.04755 1.0898 1.01558e-19)
(0.995812 1.06305 5.91091e-20)
(0.937598 1.03475 3.1841e-20)
(0.869378 1.00685 -3.32244e-20)
(0.788179 0.978826 1.0074e-20)
(0.687261 0.948921 0)
(0.573105 0.915672 3.86213e-20)
(0.462741 0.877916 -3.24746e-20)
(0.359546 0.834215 0)
(0.269874 0.777274 8.48936e-21)
(0.204502 0.886417 2.05996e-20)
(0.188604 2.18417 -2.45595e-20)
(0.278493 3.29783 2.80619e-20)
(0.25686 3.445 1.37956e-20)
(0.215397 3.47196 1.61308e-20)
(0.18739 3.48335 2.09367e-20)
(0.264167 0.256644 -5.12218e-20)
(0.978273 1.00589 0)
(1.09264 1.13749 7.39309e-20)
(1.0779 1.14096 9.40813e-20)
(1.03244 1.11665 -1.05684e-19)
(0.981602 1.09033 -6.36581e-20)
(0.924416 1.06341 -4.95541e-20)
(0.857528 1.03724 -2.46097e-21)
(0.777149 1.01288 -1.64028e-20)
(0.675532 0.989375 7.57561e-21)
(0.557785 0.966208 1.61041e-21)
(0.438857 0.938577 2.5418e-20)
(0.326212 0.910892 5.33192e-21)
(0.250421 1.00401 -7.43952e-21)
(0.285703 2.11385 -1.72382e-20)
(0.35614 3.29577 1.29266e-20)
(0.347103 3.48627 -1.16199e-20)
(0.302748 3.51366 -6.77403e-21)
(0.259394 3.54324 1.30282e-22)
(0.198677 3.53362 -3.19327e-22)
(0.251998 0.253516 0)
(0.972791 1.02409 1.96012e-20)
(1.08296 1.15645 -1.46252e-20)
(1.06716 1.15933 -1.04703e-20)
(1.02255 1.13494 -6.93256e-20)
(0.972661 1.1087 6.21049e-20)
(0.916312 1.08203 3.34671e-20)
(0.850675 1.057 -2.61547e-21)
(0.771545 1.03522 2.10483e-20)
(0.670636 1.01638 -2.92362e-21)
(0.552186 1.00007 -5.24933e-20)
(0.43004 0.980941 3.61615e-21)
(0.320825 0.974042 -4.68714e-21)
(0.299275 1.38441 -6.149e-21)
(0.3978 2.94988 4.02112e-21)
(0.440376 3.47513 4.41277e-22)
(0.385533 3.55848 -4.70019e-21)
(0.341617 3.58457 -9.24753e-21)
(0.279546 3.60824 1.57503e-20)
(0.213865 3.59924 6.89693e-21)
(0.235907 0.248897 4.8608e-20)
(0.965829 1.04424 1.31072e-19)
(1.07241 1.17669 -4.15421e-20)
(1.05593 1.17876 -3.9645e-20)
(1.01224 1.15405 0)
(0.963354 1.12765 9.09824e-20)
(0.908208 1.10119 5.11764e-20)
(0.844255 1.07733 -2.78398e-21)
(0.766971 1.05829 2.16232e-21)
(0.667176 1.0443 6.24584e-21)
(0.548243 1.03476 -1.79336e-20)
(0.425279 1.02551 -2.51839e-20)
(0.334351 1.07025 -3.13967e-20)
(0.384815 1.93184 3.26078e-20)
(0.502432 3.33387 1.53584e-20)
(0.503011 3.55765 0)
(0.435729 3.613 0)
(0.383523 3.66597 1.52036e-20)
(0.302391 3.72823 0)
(0.224409 3.69068 3.44149e-20)
(0.223878 0.247928 -7.06006e-20)
(0.956457 1.06465 -1.08633e-19)
(1.06028 1.19757 0)
(1.04344 1.19852 1.01972e-21)
(1.00075 1.17322 -6.72808e-20)
(0.953085 1.14648 1.35135e-19)
(0.899579 1.1202 3.45084e-20)
(0.837747 1.09748 -3.5355e-21)
(0.762657 1.08101 2.50991e-20)
(0.664457 1.07163 -1.09396e-21)
(0.544689 1.06925 0)
(0.421916 1.07226 0)
(0.370461 1.23064 -2.35582e-20)
(0.492748 2.54896 7.00292e-21)
(0.601536 3.49162 -2.5907e-21)
(0.558267 3.61246 0)
(0.507529 3.67792 3.90729e-20)
(0.431176 3.76406 -6.00934e-20)