/*--------------------------------*- C++ -*----------------------------------*\
  =========                 |
  \\      /  F ield         | OpenFOAM: The Open Source CFD Toolbox
   \\    /   O peration     | Website:  https://openfoam.org
    \\  /    A nd           | Version:  6
     \\/     M anipulation  |
\*---------------------------------------------------------------------------*/
FoamFile
{
    version     2.0;
    format      ascii;
    class       surfaceScalarField;
    location    "36.4";
    object      phi;
}
// * * * * * * * * * * * * * * * * * * * * * * * * * * * * * * * * * * * * * //

dimensions      [0 3 -1 0 0 0 0];

internalField   nonuniform List<scalar> 
17370
(
-0.0900014
0.0898503
0.289162
-0.0714638
0.0537535
0.364486
-0.0381198
0.02769
0.426598
-0.0196361
0.0146004
0.504287
-0.0107549
0.00826148
0.601896
-0.00626036
0.00488655
0.720431
-0.00373116
0.00290172
0.863736
-0.0021729
0.00162338
1.036
-0.00111462
0.000706856
1.24291
-0.000302368
-8.84097e-05
1.49158
0.000463708
-0.000864776
1.49159
0.00125848
-0.00175128
1.24318
0.00228848
-0.0030076
1.03636
0.0038313
-0.00498148
0.864057
0.00634972
-0.00834339
0.721051
0.0108297
-0.014668
0.603053
0.0196978
-0.0277451
0.507487
0.0381689
-0.0537945
0.431794
0.0714967
-0.0898719
0.365151
0.0900137
0.198997
-0.12813
0.0882148
0.0399149
-0.364592
0.353364
-0.0746867
0.0859144
-0.446473
0.454311
-0.0844167
0.0765789
-0.521184
0.529894
-0.0684839
0.0597745
-0.612779
0.621561
-0.0515857
0.0428039
-0.726884
0.734152
-0.0353408
0.0280721
-0.867469
0.872564
-0.0224797
0.017385
-1.03847
1.04189
-0.0135999
0.0101786
-1.2446
1.24701
-0.00758895
0.00517182
-1.49263
1.4946
-0.00323201
0.00126075
-1.4925
1.49422
0.000421449
-0.00214343
-1.24398
1.24587
0.00404953
-0.00593368
-1.03751
1.04005
0.00829067
-0.0108265
-0.866102
0.869842
0.0141925
-0.0179329
-0.724396
0.729949
0.0229845
-0.0285382
-0.608704
0.616127
0.0357635
-0.0431865
-0.514903
0.523055
0.0519257
-0.0600782
-0.439861
0.447927
0.0687503
-0.0768161
-0.375302
0.376754
0.084622
-0.0860744
-0.257341
0.222502
0.0747958
-0.0399576
-0.0684987
0.0586673
0.00983138
-0.0518478
0.0584444
-0.374107
0.36751
-0.0575391
0.0537958
-0.453581
0.457325
-0.0487125
0.0447666
-0.52793
0.531875
-0.0409337
0.0373027
-0.621543
0.625174
-0.0332124
0.0291531
-0.735326
0.739385
-0.0246066
0.0204689
-0.87431
0.878448
-0.0161433
0.012461
-1.04345
1.04714
-0.00873948
0.00558289
-1.24854
1.2517
-0.00228118
-0.000773038
-1.49665
1.4997
0.00380109
-0.00704825
-1.49722
1.50046
0.0101267
-0.0137482
-1.25008
1.2537
0.0173358
-0.0215613
-1.04594
1.05016
0.0256173
-0.0300836
-0.877783
0.882249
0.0340722
-0.0380842
-0.73993
0.743942
0.0416432
-0.0453993
-0.626805
0.630562
0.049281
-0.054304
-0.534837
0.53986
0.057986
-0.0588141
-0.4575
0.458328
0.05213
-0.0319571
-0.335793
0.31562
0.00987806
-0.0683745
0.0584964
-0.0529093
0.0489078
0.00400157
-0.0332062
0.0437708
-0.358058
0.347493
-0.0474838
0.0468658
-0.459248
0.459866
-0.0438169
0.0404685
-0.535758
0.539106
-0.0366995
0.0334002
-0.628476
0.631775
-0.0299743
0.0269648
-0.742597
0.745607
-0.0237437
0.0206769
-0.881968
0.885034
-0.0171917
0.0138493
-1.05071
1.05406
-0.0100928
0.00657844
-1.25511
1.25863
-0.00262785
-0.0011615
-1.5032
1.50699
0.00492309
-0.00878584
-1.50414
1.508
0.0121858
-0.0157958
-1.25746
1.26107
0.0189971
-0.0223332
-1.05397
1.05731
0.0252764
-0.0283753
-0.885753
0.888852
0.0312801
-0.0345936
-0.747218
0.750532
0.0377911
-0.041452
-0.634362
0.638023
0.044709
-0.0476569
-0.544184
0.547132
0.0481718
-0.0443156
-0.456637
0.452781
0.0335826
-0.0161779
-0.296293
0.278888
0.00405879
-0.0526889
0.0486301
-0.0458217
0.0433193
0.00250235
-0.022858
0.0332648
-0.336776
0.326369
-0.0391127
0.0401482
-0.459532
0.458497
-0.0389741
0.0366976
-0.541811
0.544087
-0.0340408
0.0314596
-0.634806
0.637387
-0.0284229
0.0255593
-0.748638
0.751502
-0.0223426
0.0193901
-0.887971
0.890923
-0.0161232
0.013053
-1.05716
1.06023
-0.00955798
0.00618429
-1.26205
1.26543
-0.0022649
-0.00157659
-1.51085
1.51469
0.00538395
-0.0091995
-1.51189
1.51571
0.012435
-0.0157434
-1.26451
1.26782
0.0186293
-0.0216932
-1.06041
1.06348
0.0244739
-0.0275234
-0.891918
0.894968
0.0302461
-0.0331327
-0.753764
0.75665
0.0355775
-0.0380895
-0.641125
0.643637
0.0402427
-0.0412606
-0.548968
0.549986
0.0400662
-0.0339902
-0.447543
0.441467
0.0233383
-0.010181
-0.263723
0.250566
0.0025726
-0.0454833
0.0429107
-0.041235
0.0394609
0.00177411
-0.0167996
0.0260812
-0.316482
0.307201
-0.032717
0.0348795
-0.456863
0.454701
-0.0344794
0.0328281
-0.546027
0.547678
-0.0306683
0.0285964
-0.639649
0.641721
-0.0262006
0.0238494
-0.754125
0.756476
-0.0210548
0.0183246
-0.89381
0.89654
-0.0151509
0.0121385
-1.06325
1.06626
-0.00870772
0.00542989
-1.26871
1.27199
-0.00163558
-0.002076
-1.51845
1.52216
0.00574232
-0.00940594
-1.51944
1.5231
0.0125058
-0.0156982
-1.27109
1.27428
0.0184713
-0.0213795
-1.06653
1.06944
0.0238832
-0.0264552
-0.897811
0.900383
0.0286221
-0.0308269
-0.759118
0.761323
0.0327273
-0.0347025
-0.645812
0.647787
0.0361788
-0.0363692
-0.550533
0.550724
0.0339665
-0.0270021
-0.434867
0.427902
0.0173943
-0.00733381
-0.239109
0.229049
0.00185928
-0.0407521
0.0388929
-0.0379292
0.0365918
0.00133735
-0.0128434
0.0208247
-0.29857
0.290588
-0.0276158
0.0305684
-0.452108
0.449155
-0.0307926
0.0296855
-0.549081
0.550188
-0.027698
0.0257976
-0.643723
0.645623
-0.0236374
0.0215597
-0.758678
0.760756
-0.0191277
0.0167252
-0.899058
0.90146
-0.0138675
0.0110598
-1.06913
1.07194
-0.00777207
0.00459473
-1.2752
1.27838
-0.000907851
-0.00267254
-1.52579
1.52937
0.00619889
-0.0097231
-1.52671
1.53024
0.0126776
-0.0156697
-1.27742
1.28041
0.0181779
-0.0206987
-1.07216
1.07468
0.0228077
-0.0249457
-0.902681
0.904819
0.0267818
-0.0286984
-0.763338
0.765255
0.0303865
-0.0321564
-0.649656
0.651426
0.0330134
-0.032496
-0.550578
0.550061
0.0292033
-0.0219671
-0.42075
0.413513
0.0135706
-0.00565002
-0.220161
0.21224
0.00144051
-0.0372707
0.0358302
-0.0354212
0.0343891
0.00103202
-0.0100401
0.0167859
-0.283246
0.276501
-0.0233096
0.0267244
-0.445937
0.442522
-0.0275543
0.0269034
-0.551038
0.551689
-0.0252023
0.0234736
-0.647462
0.649191
-0.0214695
0.0195146
-0.762788
0.764743
-0.0172085
0.0149358
-0.903759
0.906032
-0.0122589
0.00963893
-1.0746
1.07722
-0.00656361
0.00356398
-1.28143
1.28443
-4.68155e-05
-0.0033871
-1.53286
1.53629
0.00675273
-0.0100646
-1.53366
1.53698
0.0127896
-0.0154946
-1.2833
1.286
0.0177406
-0.019996
-1.0771
1.07935
0.0218982
-0.023834
-0.906845
0.908781
0.025485
-0.0271859
-0.767029
0.76873
0.0286511
-0.0300551
-0.653035
0.654439
0.0303966
-0.0291661
-0.549198
0.547967
0.025291
-0.0181889
-0.406319
0.399216
0.0109259
-0.004518
-0.205148
0.19874
0.00115689
-0.0345495
0.0333926
-0.0334818
0.032677
0.000804776
-0.00795529
0.0136213
-0.270321
0.264655
-0.0196534
0.0232566
-0.438997
0.435394
-0.0245453
0.0241187
-0.552244
0.552671
-0.0226555
0.0210213
-0.650906
0.65254
-0.01912
0.0172861
-0.766653
0.768487
-0.0151359
0.0130196
-0.908175
0.910292
-0.010519
0.00806367
-1.07968
1.08213
-0.00517221
0.00233247
-1.28731
1.29015
0.00100589
-0.00426797
-1.53964
1.5429
0.007443
-0.0105217
-1.54019
1.54327
0.0130155
-0.0154444
-1.2886
1.29103
0.0174356
-0.0194096
-1.08149
1.08346
0.0210616
-0.0227486
-0.910573
0.91226
0.0242076
-0.0257382
-0.770304
0.771835
0.0270562
-0.0281525
-0.655677
0.656773
0.0281687
-0.0263267
-0.546444
0.544602
0.0221101
-0.0153397
-0.392279
0.385508
0.00903488
-0.00372012
-0.192932
0.187617
0.000956717
-0.0323512
0.0313945
-0.0319698
0.0313418
0.000627966
-0.00633485
0.0110716
-0.259478
0.254741
-0.0165067
0.0201221
-0.431777
0.428162
-0.0217685
0.0216076
-0.553002
0.553163
-0.020422
0.0188763
-0.654183
0.655729
-0.0170498
0.0152629
-0.770305
0.772092
-0.0131523
0.0110746
-0.91231
0.914388
-0.0086305
0.00624767
-1.08447
1.08686
-0.00347316
0.000789304
-1.29286
1.29554
0.00231729
-0.00531231
-1.54599
1.54898
0.00820541
-0.0110038
-1.54621
1.54901
0.0132732
-0.0154952
-1.2934
1.29562
0.0173235
-0.0191373
-1.08537
1.08719
0.0206492
-0.0221712
-0.913847
0.915369
0.0234662
-0.0248127
-0.773248
0.774594
0.0259667
-0.0266491
-0.657647
0.658329
0.0263029
-0.0239347
-0.54253
0.540162
0.0195311
-0.0131718
-0.378962
0.372603
0.0076499
-0.00314271
-0.18275
0.178243
0.000812197
-0.030525
0.0297128
-0.0307946
0.030312
0.000482678
-0.00501225
0.00893475
-0.250436
0.246513
-0.0137077
0.0171531
-0.424633
0.421188
-0.0189739
0.0190147
-0.553243
0.553202
-0.0180497
0.0165805
-0.657285
0.658754
-0.0148204
0.0130881
-0.773869
0.775601
-0.0110381
0.00902298
-0.916369
0.918384
-0.00666405
0.00438052
-1.0891
1.09139
-0.00173113
-0.000825286
-1.2981
1.30065
0.00378364
-0.00662381
-1.55187
1.55471
0.00933608
-0.0119071
-1.5517
1.55427
0.0139443
-0.0159032
-1.29775
1.29971
0.0174915
-0.0190626
-1.08892
1.09049
0.0203713
-0.0216908
-0.916816
0.918136
0.022822
-0.0240008
-0.77583
0.777009
0.0249707
-0.0252996
-0.658801
0.65913
0.0245895
-0.0218386
-0.537622
0.534871
0.0173995
-0.0114885
-0.366489
0.360578
0.00660968
-0.00271557
-0.174078
0.170183
0.000706405
-0.0289657
0.0282593
-0.0298986
0.0295381
0.000360523
-0.0038993
0.00710349
-0.242975
0.23977
-0.011209
0.0143876
-0.417897
0.414719
-0.0162625
0.0164507
-0.553145
0.552957
-0.015553
0.0141479
-0.660264
0.661669
-0.0123981
0.0106903
-0.777312
0.77902
-0.00869286
0.00674499
-0.920253
0.922201
-0.00446573
0.00225556
-1.09353
1.09574
0.000309015
-0.00276688
-1.3031
1.30555
0.00557031
-0.00820684
-1.55742
1.56005
0.0106905
-0.0130291
-1.55674
1.55908
0.0148673
-0.0166129
-1.3016
1.30335
0.017997
-0.0193218
-1.09196
1.09329
0.0204006
-0.0214958
-0.919335
0.92043
0.0224496
-0.0234514
-0.77808
0.779082
0.0242036
-0.0242936
-0.659348
0.659438
0.0232348
-0.0201681
-0.531997
0.528931
0.015741
-0.0102307
-0.354898
0.349387
0.00585533
-0.00241518
-0.166551
0.163111
0.000635453
-0.0276039
0.0269684
-0.0292404
0.0289909
0.000249483
-0.0028995
0.00543537
-0.236924
0.234388
-0.00885116
0.0116716
-0.411745
0.408924
-0.0135159
0.0138454
-0.552764
0.552434
-0.0130747
0.0117835
-0.663102
0.664393
-0.0100599
0.00833083
-0.780721
0.78245
-0.00628732
0.00429842
-0.924041
0.92603
-0.00200016
-0.000195202
-1.09782
1.10002
0.00269637
-0.00505761
-1.30789
1.31025
0.0077094
-0.0101689
-1.56255
1.56501
0.0124365
-0.0145174
-1.56129
1.56338
0.0161044
-0.017574
-1.30501
1.30648
0.0187384
-0.0198588
-1.09454
1.09566
0.0207716
-0.0216899
-0.92146
0.922379
0.0224841
-0.0232842
-0.779986
0.780786
0.0237453
-0.0235462
-0.659344
0.659145
0.0221247
-0.0187758
-0.525757
0.522408
0.0144012
-0.00925804
-0.344099
0.338956
0.00528951
-0.00219581
-0.15988
0.156786
0.000585415
-0.0263747
0.0257893
-0.0288036
0.0286623
0.000141271
-0.0019526
0.00384885
-0.232196
0.2303
-0.00655464
0.00891855
-0.406375
0.404011
-0.0105728
0.0109119
-0.552184
0.551845
-0.0101917
0.00895986
-0.665736
0.666968
-0.00724784
0.0055006
-0.784142
0.785889
-0.00343152
0.0014332
-0.927886
0.929884
0.000851796
-0.00300791
-1.10208
1.10424
0.00544404
-0.00772406
-1.31248
1.31476
0.0102661
-0.0125883
-1.56735
1.56967
0.0146801
-0.0165167
-1.56533
1.56717
0.0178654
-0.0190679
-1.30788
1.30908
0.0199757
-0.0208201
-1.09673
1.09757
0.0214969
-0.0221594
-0.923221
0.923883
0.0227165
-0.0232892
-0.781422
0.781995
0.0234388
-0.0229472
-0.658717
0.658226
0.0211772
-0.0176244
-0.518997
0.515444
0.0133394
-0.00852107
-0.334025
0.329206
0.00487677
-0.00204418
-0.153862
0.151029
0.000554295
-0.0252385
0.0246842
-0.0285805
0.0285525
2.79176e-05
-0.00100241
0.0022603
-0.228746
0.227488
-0.00422876
0.00606861
-0.401964
0.400124
-0.00742592
0.00767496
-0.551672
0.551423
-0.0069198
0.00566559
-0.668317
0.669571
-0.00389929
0.00211828
-0.787589
0.78937
-4.09778e-05
-0.00194723
-0.931707
0.933696
0.0042215
-0.00637278
-1.10624
1.10839
0.00878922
-0.0110118
-1.31692
1.31914
0.0134175
-0.0155396
-1.57184
1.57396
0.0173708
-0.0189281
-1.56886
1.57042
0.0200014
-0.0208838
-1.31018
1.31106
0.0215006
-0.0220282
-1.09829
1.09882
0.0224212
-0.0228033
-0.924447
0.924829
0.023153
-0.0235273
-0.782467
0.782841
0.023391
-0.0225769
-0.65743
0.656616
0.0205132
-0.0167788
-0.511886
0.508152
0.0125631
-0.00800107
-0.324589
0.320027
0.00460203
-0.0019538
-0.14834
0.145691
0.000539745
-0.0241617
0.023622
-0.0285794
0.0286631
-8.36996e-05
-1.18183e-05
0.000627317
-0.226572
0.225956
-0.00183665
0.00310395
-0.39863
0.397363
-0.00411147
0.00425645
-0.551392
0.551247
-0.003496
0.0022363
-0.670964
0.672224
-0.000434206
-0.0014159
-0.79109
0.79294
0.00359323
-0.0056796
-0.935534
0.93762
0.00804818
-0.0102553
-1.11042
1.11263
0.0126959
-0.014899
-1.32125
1.32345
0.0172247
-0.0191974
-1.57593
1.5779
0.0208255
-0.0221134
-1.57182
1.5731
0.0229205
-0.0234962
-1.31187
1.31245
0.0238281
-0.0240454
-1.09925
1.09946
0.0241515
-0.0242335
-0.9251
0.925182
0.0243227
-0.0243176
-0.782947
0.782942
0.0239176
-0.0226816
-0.65547
0.654234
0.0202224
-0.016248
-0.504417
0.500443
0.0120628
-0.00769023
-0.315647
0.311275
0.00446051
-0.00192356
-0.143155
0.140618
0.000542853
-0.0231074
0.0225646
-0.0288129
0.0290374
-0.000224496
0.00100043
-0.00109524
-0.225715
0.22581
0.000725122
-0.000138722
-0.396503
0.395916
-0.000367411
0.000292173
-0.551403
0.551479
0.000527584
-0.00182006
-0.673623
0.674915
0.00368803
-0.00565595
-0.794725
0.796693
0.00799397
-0.0102206
-0.939578
0.941805
0.0127119
-0.0149938
-1.11471
1.11699
0.0174626
-0.0196479
-1.32553
1.32771
0.0218918
-0.0237084
-1.57974
1.58155
0.0250936
-0.0260447
-1.57422
1.57517
0.0264972
-0.0266858
-1.31289
1.31308
0.0266847
-0.026558
-1.09956
1.09944
0.0263703
-0.0261285
-0.925132
0.92489
0.0258871
-0.0255114
-0.782599
0.782224
0.0247422
-0.0229355
-0.652681
0.650874
0.0201192
-0.0159657
-0.496538
0.492385
0.0118073
-0.00756004
-0.307082
0.302834
0.00442855
-0.00193969
-0.138172
0.135683
0.000558041
-0.0220442
0.0214861
-0.0293288
0.0296869
-0.000358122
0.00211589
-0.00291913
-0.226214
0.227017
0.00345842
-0.00364865
-0.395785
0.395975
0.00379034
-0.00424433
-0.552018
0.552472
0.00527682
-0.00674559
-0.67645
0.677919
0.00878479
-0.0108882
-0.798577
0.80068
0.0133535
-0.015685
-0.94385
0.946181
0.0182934
-0.0206743
-1.11914
1.12152
0.0232311
-0.0254337
-1.32977
1.33197
0.0276076
-0.0292558
-1.58319
1.58483
0.0303734
-0.0309832
-1.57591
1.57652
0.0311167
-0.0308935
-1.31313
1.31291
0.030485
-0.0299056
-1.09911
1.09853
0.029316
-0.0286661
-0.924425
0.923775
0.0280775
-0.0272738
-0.781435
0.780632
0.0260375
-0.0237291
-0.648896
0.646587
0.0205428
-0.0161378
-0.488325
0.48392
0.0119056
-0.00766562
-0.298735
0.294495
0.00453451
-0.00201158
-0.133259
0.130736
0.000586578
-0.0209481
0.0203616
-0.0301393
0.0306814
-0.000542126
0.00337388
-0.00493061
-0.228217
0.229774
0.00637708
-0.00738845
-0.396588
0.397599
0.0082589
-0.00915664
-0.553485
0.554383
0.0104695
-0.0121507
-0.679674
0.681355
0.0144248
-0.0167497
-0.802702
0.805027
0.0194672
-0.0220313
-0.948348
0.950912
0.0248834
-0.0274622
-1.12378
1.12636
0.0301761
-0.0324551
-1.33406
1.33634
0.0345959
-0.0360883
-1.58631
1.5878
0.0369363
-0.0371496
-1.57689
1.5771
0.0368976
-0.0362356
-1.31248
1.31182
0.0353958
-0.0343428
-1.09769
1.09664
0.0333247
-0.0322065
-0.922825
0.921707
0.0312494
-0.0299238
-0.779359
0.778033
0.0282067
-0.0253177
-0.644165
0.641276
0.0216547
-0.0168874
-0.47959
0.474822
0.0124723
-0.00809702
-0.290363
0.285987
0.00483344
-0.00216027
-0.128239
0.125566
0.000632469
-0.0197917
0.0191592
-0.0313216
0.0320831
-0.000761444
0.00482514
-0.007232
-0.231782
0.234189
0.0096954
-0.0115883
-0.399045
0.400938
0.0132722
-0.0146895
-0.555927
0.557344
0.0163799
-0.0183393
-0.683371
0.68533
0.0209335
-0.0235847
-0.807294
0.809945
0.0266863
-0.0295997
-0.953351
0.956265
0.0328108
-0.0356709
-1.12884
1.1317
0.0386231
-0.0410233
-1.33851
1.34091
0.0431756
-0.0445354
-1.58911
1.59047
0.0451036
-0.0449139
-1.57706
1.57687
0.0441974
-0.0430318
-1.31088
1.30972
0.041734
-0.0401744
-1.09527
1.09371
0.038696
-0.0370866
-0.920217
0.918608
0.0356578
-0.0337278
-0.776231
0.774301
0.0314138
-0.0278558
-0.63828
0.634722
0.0236673
-0.0184521
-0.47015
0.464934
0.0137067
-0.00898249
-0.281658
0.276934
0.00539711
-0.00241561
-0.122861
0.119879
0.000703717
-0.0185383
0.0178345
-0.0329376
0.0339712
-0.00103357
0.0065383
-0.00990435
-0.237052
0.240418
0.0135073
-0.0163997
-0.403403
0.406296
0.0190388
-0.0211423
-0.559585
0.561689
0.0234028
-0.0258111
-0.687722
0.690131
0.0289095
-0.0320333
-0.812557
0.81568
0.0356502
-0.0390043
-0.959066
0.96242
0.0426462
-0.0458308
-1.13446
1.13764
0.0490438
-0.0515742
-1.34319
1.34572
0.0537174
-0.0548735
-1.59162
1.59278
0.0550845
-0.0543741
-1.57636
1.57565
0.0531235
-0.051338
-1.30818
1.3064
0.049501
-0.0473939
-1.09174
1.08964
0.0454508
-0.0433376
-0.916536
0.914423
0.0413778
-0.0388182
-0.771912
0.769353
0.0358906
-0.0316536
-0.631129
0.626892
0.0268668
-0.0210285
-0.459815
0.453977
0.0157177
-0.0103657
-0.272163
0.266811
0.00624351
-0.00278793
-0.1168
0.113344
0.00080641
-0.0171324
0.016326
-0.0350823
0.0364862
-0.00140383
0.00877586
-0.0133114
-0.244222
0.248758
0.0182235
-0.0222312
-0.40993
0.413938
0.0259514
-0.0289296
-0.564888
0.567866
0.0320379
-0.0351651
-0.693159
0.696286
0.0390236
-0.042807
-0.8188
0.822583
0.0470853
-0.050979
-0.965678
0.969571
0.0551229
-0.0586633
-1.14072
1.14426
0.0621153
-0.0646954
-1.34805
1.35063
0.0666607
-0.0674354
-1.59361
1.59438
0.0670883
-0.0657109
-1.57453
1.57316
0.0638347
-0.0613498
-1.30419
1.30171
0.0588803
-0.0561112
-1.087
1.08424
0.05363
-0.0510243
-0.911757
0.909151
0.0485745
-0.0454398
-0.766337
0.763203
0.041887
-0.0368744
-0.622648
0.617635
0.0313081
-0.0245683
-0.448206
0.441466
0.0184136
-0.0121578
-0.261335
0.255079
0.00731001
-0.00324735
-0.109747
0.105684
0.000931697
-0.0155175
0.0145858
-0.0379358
0.0398785
-0.00194276
0.0119205
-0.0179815
-0.253687
0.259748
0.024465
-0.0297331
-0.41896
0.424228
0.0346241
-0.0385845
-0.572252
0.576213
0.0426901
-0.0467354
-0.700187
0.704232
0.0515778
-0.0561775
-0.826378
0.830978
0.0612724
-0.0658143
-0.973389
0.977931
0.0705434
-0.0744679
-1.14768
1.1516
0.0781479
-0.080726
-1.35297
1.35554
0.0824355
-0.0827276
-1.59473
1.59503
0.0817184
-0.0795246
-1.57127
1.56908
0.0768797
-0.0735766
-1.29873
1.29543
0.070402
-0.0669364
-1.08089
1.07743
0.0638822
-0.0606763
-0.905827
0.902621
0.0576274
-0.0538482
-0.759581
0.755802
0.0495312
-0.043503
-0.612547
0.606519
0.0368837
-0.0289253
-0.434752
0.426794
0.0216468
-0.0142339
-0.248651
0.241238
0.00850859
-0.00375052
-0.101464
0.0967058
0.00106662
-0.0136534
0.0125868
-0.0418086
0.0445935
-0.00278491
0.0166138
-0.0247369
-0.266135
0.274258
0.0331857
-0.039969
-0.43107
0.437853
0.0462246
-0.0513138
-0.581988
0.587077
0.0565923
-0.0617535
-0.709129
0.71429
0.0676952
-0.0732135
-0.835571
0.841089
0.0792005
-0.0844232
-0.982391
0.987614
0.0897221
-0.0939758
-1.15536
1.15961
0.0977769
-0.100238
-1.3578
1.36026
0.101567
-0.101267
-1.59482
1.59452
0.0995115
-0.0964282
-1.56631
1.56323
0.0929531
-0.0887343
-1.29154
1.28733
0.0847329
-0.0803801
-1.07327
1.06891
0.0765633
-0.0725863
-0.898533
0.894557
0.0687682
-0.0640576
-0.751327
0.746617
0.0586874
-0.0513418
-0.600254
0.592908
0.0434224
-0.0339537
-0.418855
0.409386
0.0252724
-0.0164679
-0.233661
0.224856
0.00974832
-0.00424835
-0.0918155
0.0863155
0.00119305
-0.0115332
0.0103402
-0.0472641
0.0514995
-0.00423543
0.024069
-0.0350609
-0.282748
0.29374
0.0461245
-0.0550078
-0.44728
0.456164
0.0630061
-0.0694765
-0.594494
0.600964
0.076247
-0.0827094
-0.720259
0.726721
0.089884
-0.0962967
-0.846544
0.852957
0.103027
-0.108722
-0.99266
0.998355
0.114295
-0.118556
-1.16354
1.1678
0.122085
-0.124052
-1.36222
1.36419
0.124551
-0.123255
-1.59354
1.59224
0.120361
-0.116059
-1.55942
1.55512
0.111541
-0.106274
-1.28245
1.27718
0.101382
-0.0960866
-1.06376
1.05847
0.0914175
-0.0864489
-0.889411
0.884443
0.0817193
-0.0758654
-0.740916
0.735062
0.069246
-0.0603781
-0.585224
0.576356
0.0509003
-0.0395582
-0.399905
0.388562
0.0291686
-0.0187678
-0.215971
0.20557
0.0109635
-0.00470215
-0.080761
0.0744997
0.00129502
-0.00918347
0.00788845
-0.0553873
0.0626643
-0.00727702
0.0373806
-0.0527388
-0.305734
0.321092
0.0675949
-0.0793179
-0.46917
0.480893
0.0892657
-0.097245
-0.610333
0.618312
0.105714
-0.113485
-0.73378
0.741551
0.121604
-0.128465
-0.859049
0.86591
0.135362
-0.140925
-1.00361
1.00917
0.146062
-0.149632
-1.17139
1.17496
0.152137
-0.15287
-1.36526
1.36599
0.151777
-0.148759
-1.58987
1.58685
0.14408
-0.137997
-1.54978
1.54369
0.131995
-0.125295
-1.27104
1.26434
0.11928
-0.112968
-1.05228
1.04597
0.107503
-0.101714
-0.878202
0.872413
0.0962272
-0.0893863
-0.728053
0.721212
0.0815556
-0.0708065
-0.567013
0.556264
0.0591927
-0.0454937
-0.377013
0.363314
0.0332077
-0.0211229
-0.195303
0.183218
0.012159
-0.00510648
-0.0683738
0.0613212
0.00136018
-0.00666424
0.00530406
-0.0695216
0.0734716
-0.00395002
0.0280038
-0.0413437
-0.339076
0.352416
0.0546759
-0.0653723
-0.498011
0.508708
0.0750658
-0.0843218
-0.62968
0.638936
0.0948831
-0.104296
-0.748888
0.7583
0.114724
-0.123949
-0.87187
0.881095
0.133663
-0.142122
-1.01378
1.02224
0.150706
-0.157751
-1.17737
1.18442
0.164282
-0.168863
-1.36541
1.36999
0.171918
-0.172413
-1.58242
1.58291
0.170257
-0.16591
-1.53633
1.53198
0.160526
-0.153656
-1.2566
1.24973
0.14715
-0.139605
-1.03863
1.03108
0.133188
-0.126435
-0.865237
0.858483
0.119919
-0.110967
-0.712864
0.703911
0.0992574
-0.0836195
-0.544466
0.528828
0.0676085
-0.0495976
-0.349245
0.331234
0.0345107
-0.0206659
-0.171513
0.157668
0.0110991
-0.00427437
-0.054912
0.0480872
0.000972424
-0.00407176
0.00309933
-0.0807666
0.0785935
0.00217311
0.00640836
-0.0146925
-0.368531
0.376815
0.0246689
-0.0324882
-0.5239
0.531719
0.0404689
-0.0484686
-0.650767
0.658767
0.058223
-0.0671917
-0.767422
0.77639
0.0766906
-0.0852578
-0.889828
0.898395
0.0941993
-0.101628
-1.03039
1.03782
0.109351
-0.115346
-1.19122
1.19721
0.120864
-0.124476
-1.37421
1.37782
0.126373
-0.126062
-1.58256
1.58224
0.123335
-0.118594
-1.52696
1.52222
0.112743
-0.105401
-1.24248
1.23513
0.0982747
-0.0900825
-1.02296
1.01477
0.0822342
-0.0730441
-0.849098
0.839908
0.0640687
-0.0538806
-0.689689
0.679501
0.0436089
-0.0318401
-0.510424
0.498655
0.0217861
-0.013002
-0.3127
0.303916
0.00723673
-0.00319885
-0.144264
0.140227
0.0010323
-4.0442e-05
-0.0415869
0.0405951
-0.000170119
-0.00181308
0.0019832
-0.0817233
0.0787687
0.00295465
-0.00232439
-0.00208363
-0.388123
0.392531
0.00839602
-0.014183
-0.543207
0.548994
0.020354
-0.027254
-0.668902
0.675802
0.0357168
-0.0435119
-0.784492
0.792287
0.0519624
-0.0594152
-0.90621
0.913663
0.0669609
-0.0736321
-1.04506
1.05173
0.0804316
-0.0858672
-1.20282
1.20826
0.0905611
-0.0935811
-1.38093
1.38395
0.0953527
-0.0949591
-1.58155
1.58116
0.0923126
-0.0877858
-1.51726
1.51273
0.0822075
-0.0752262
-1.22792
1.22094
0.0677662
-0.0589251
-1.0058
0.996962
0.0499219
-0.039176
-0.82885
0.818104
0.0291875
-0.0187133
-0.665001
0.654527
0.0100101
-0.00194085
-0.484818
0.476749
-0.00298007
0.0055044
-0.29381
0.291286
-0.00595331
0.00506279
-0.134676
0.135566
-0.00363829
0.00191336
-0.0389015
0.0406264
-0.000691471
-0.00155981
0.00225128
-0.08028
0.0774085
0.00287154
-0.00588974
0.00397995
-0.400699
0.402609
-0.000172676
-0.00408168
-0.557676
0.56193
0.00929622
-0.0150125
-0.683794
0.68951
0.0221815
-0.0288381
-0.799489
0.806145
0.0360366
-0.0424313
-0.920593
0.926988
0.049341
-0.0551212
-1.05801
1.06379
0.0612617
-0.0658149
-1.2134
1.21795
0.0701563
-0.0729958
-1.38693
1.38977
0.074548
-0.0738912
-1.5806
1.57994
0.0714107
-0.0670353
-1.50784
1.50346
0.0614861
-0.0540904
-1.21364
1.20625
0.0465143
-0.0374604
-0.987371
0.978317
0.0281783
-0.0177314
-0.806282
0.795835
0.00810333
0.00108142
-0.641383
0.632198
-0.00776144
0.012485
-0.466803
0.46208
-0.0141822
0.0134153
-0.285653
0.28642
-0.0114183
0.0083422
-0.134888
0.137964
-0.0055456
0.00267331
-0.0414235
0.0442958
-0.000859408
-0.00232752
0.00318692
-0.0786198
0.0761411
0.00247871
-0.00683514
0.00644281
-0.40885
0.409242
-0.00376196
0.000737147
-0.569074
0.572099
0.00333722
-0.00837958
-0.696106
0.701148
0.0142742
-0.0200532
-0.812119
0.817898
0.0262714
-0.031882
-0.932975
0.938586
0.0379482
-0.0432715
-1.06951
1.07484
0.048715
-0.0531512
-1.22248
1.22692
0.057168
-0.0597843
-1.39239
1.395
0.0611375
-0.0603239
-1.57919
1.57838
0.0577024
-0.053012
-1.49836
1.49367
0.0473995
-0.0401281
-1.19865
1.19138
0.0326609
-0.0237856
-0.968737
0.959862
0.0152664
-0.00592425
-0.784818
0.775475
-0.00211594
0.00950778
-0.621631
0.614239
-0.0143077
0.0172604
-0.454723
0.45177
-0.0178607
0.0159372
-0.283208
0.285131
-0.0129228
0.00928253
-0.139173
0.142813
-0.00603169
0.00281925
-0.0461433
0.0493558
-0.0008779
-0.00357336
0.00445126
-0.0771712
0.0751014
0.00206985
-0.00648224
0.0064866
-0.414247
0.414243
-0.0051142
0.00275335
-0.577618
0.579979
0.00109979
-0.00528404
-0.706268
0.710452
0.0102214
-0.0151647
-0.822898
0.827842
0.0206891
-0.0257788
-0.943903
0.948993
0.0314789
-0.0363271
-1.07997
1.08481
0.0414484
-0.0456494
-1.23117
1.23537
0.0493976
-0.0517998
-1.39742
1.39982
0.0529143
-0.0522815
-1.57744
1.57681
0.0495
-0.044918
-1.48844
1.48386
0.039395
-0.0324129
-1.18387
1.17688
0.0256569
-0.0175038
-0.95093
0.942777
0.00998972
-0.00211666
-0.766038
0.758165
-0.0045805
0.0107047
-0.605796
0.599671
-0.0147075
0.0170337
-0.446256
0.44393
-0.0170772
0.0151421
-0.283207
0.285142
-0.0123614
0.00881451
-0.144519
0.148066
-0.00564117
0.00266233
-0.0512975
0.0542763
-0.000835246
-0.004864
0.00569925
-0.076158
0.0745934
0.00156465
-0.00532543
0.00552483
-0.418216
0.418016
-0.00438018
0.00272231
-0.584938
0.586596
0.000776793
-0.00446455
-0.71482
0.718507
0.00905872
-0.013265
-0.832415
0.836621
0.0181358
-0.0227245
-0.954105
0.958694
0.0282491
-0.0327884
-1.08976
1.0943
0.0375128
-0.0416081
-1.23946
1.24356
0.045563
-0.0478299
-1.40226
1.40453
0.0489717
-0.0482235
-1.57575
1.575
0.0457899
-0.0411675
-1.479
1.47438
0.0361433
-0.0298709
-1.1698
1.16353
0.023692
-0.0167101
-0.934847
0.927865
0.0102243
-0.00344338
-0.750147
0.743366
-0.00187614
0.00700045
-0.592696
0.587572
-0.0104404
0.0123706
-0.439076
0.437146
-0.0127254
0.0115441
-0.283764
0.284945
-0.00941503
0.0066624
-0.149374
0.152127
-0.00424244
0.00201628
-0.0557547
0.0579808
-0.000647135
-0.00600834
0.00665547
-0.0757344
0.0745507
0.0011837
-0.00400331
0.00419305
-0.421447
0.421257
-0.00301479
0.00136952
-0.591222
0.592868
0.00181725
-0.00505384
-0.722332
0.725569
0.00892426
-0.0129673
-0.840818
0.844861
0.0174941
-0.0222689
-0.963138
0.967913
0.0271297
-0.0315353
-1.09898
1.10339
0.0364292
-0.0403149
-1.24756
1.25145
0.043796
-0.0464362
-1.4067
1.40934
0.0477037
-0.0471927
-1.57427
1.57376
0.0449066
-0.0409079
-1.46993
1.46593
0.036345
-0.0306627
-1.15702
1.15134
0.0252241
-0.0190749
-0.920918
0.914769
0.0134468
-0.00772312
-0.736664
0.73094
0.00282755
0.00163645
-0.581625
0.577161
-0.00468607
0.00674106
-0.432881
0.430826
-0.00739292
0.00676084
-0.283323
0.283955
-0.00556302
0.00387706
-0.152466
0.154152
-0.00246221
0.00118691
-0.0586842
0.0599595
-0.000406763
-0.0067824
0.00718917
-0.0759119
0.0749456
0.000966381
-0.00253237
0.00235896
-0.424541
0.424714
-0.00126204
-0.000502256
-0.597029
0.598793
0.00341239
-0.00655004
-0.729246
0.732384
0.0102677
-0.0139341
-0.848751
0.852418
0.0186054
-0.0226232
-0.972153
0.976171
0.0274783
-0.0317264
-1.10798
1.11223
0.0365036
-0.0405564
-1.25532
1.25937
0.0442892
-0.0466784
-1.41173
1.41412
0.0482321
-0.0480757
-1.57314
1.57298
0.0464205
-0.0427746
-1.46181
1.45816
0.0387391
-0.0336343
-1.1458
1.14069
0.0288001
-0.0232495
-0.908501
0.90295
0.0183358
-0.0131277
-0.724969
0.719761
0.00873029
-0.00455697
-0.571914
0.567741
0.00147571
0.000626587
-0.426742
0.42464
-0.00172055
0.00185897
-0.281745
0.281606
-0.00172558
0.00123986
-0.153497
0.153983
-0.000841702
0.000491359
-0.0598173
0.0601676
-0.000208371
-0.00712702
0.00733539
-0.0764267
0.0757748
0.000651932
-0.00127044
0.000558658
-0.427954
0.428666
0.000457595
-0.00243333
-0.602252
0.604228
0.00511542
-0.00819699
-0.735708
0.73879
0.0117984
-0.0156302
-0.856011
0.859843
0.0197256
-0.0239237
-0.980432
0.98463
0.0287456
-0.0327764
-1.11691
1.12094
0.037624
-0.0416026
-1.26323
1.26721
0.0453451
-0.0482189
-1.41691
1.41978
0.0502143
-0.0503238
-1.57284
1.57295
0.0489046
-0.0459964
-1.45468
1.45177
0.0425529
-0.0379018
-1.13548
1.13083
0.0334281
-0.0285654
-0.897362
0.892499
0.0237565
-0.0191248
-0.714288
0.709656
0.015052
-0.0110032
-0.563108
0.559059
0.00804365
-0.00551964
-0.420482
0.417958
0.00393363
-0.0027725
-0.278911
0.27775
0.00193879
-0.00114884
-0.152371
0.151582
0.000476979
-1.11304e-05
-0.0592112
0.0587453
-0.000110895
-0.00699208
0.00710298
-0.077364
0.0768753
0.00048871
-0.000244628
-0.000478957
-0.431762
0.432486
0.00214505
-0.00404653
-0.607735
0.609636
0.00699886
-0.0100351
-0.741812
0.744848
0.0135546
-0.0170413
-0.863416
0.866903
0.0212964
-0.0251997
-0.98886
0.992764
0.029966
-0.0344137
-1.12543
1.12988
0.0388744
-0.0431405
-1.27123
1.2755
0.0472622
-0.0501939
-1.42254
1.42547
0.0525311
-0.0533928
-1.57326
1.57412
0.0524227
-0.0501427
-1.44871
1.44643
0.0469338
-0.042773
-1.1262
1.12204
0.0387554
-0.0341229
-0.887238
0.882606
0.0297429
-0.0252862
-0.704493
0.700036
0.0213655
-0.0172773
-0.554448
0.55036
0.0140513
-0.0111694
-0.413844
0.410962
0.00882642
-0.00676588
-0.274331
0.272271
0.00495515
-0.00311565
-0.149043
0.147204
0.00166663
-0.000548927
-0.0570862
0.0559685
4.69509e-05
-0.00656162
0.00651467
-0.0785805
0.078268
0.000312541
0.00082713
-0.00179018
-0.435833
0.436796
0.00340073
-0.00565962
-0.612997
0.615256
0.00864298
-0.0116085
-0.747835
0.750801
0.0152843
-0.0186789
-0.870432
0.873827
0.0228157
-0.0268504
-0.997168
1.0012
0.031519
-0.0359118
-1.13418
1.13858
0.0405585
-0.044821
-1.27968
1.28394
0.0490894
-0.0527327
-1.42867
1.43232
0.0554875
-0.0566375
-1.57491
1.57606
0.0563453
-0.0543913
-1.44403
1.44207
0.0517329
-0.0480994
-1.11779
1.11415
0.0441517
-0.0397507
-0.877669
0.873267
0.0355653
-0.0310972
-0.695162
0.690694
0.0272918
-0.02308
-0.545993
0.541781
0.0196559
-0.0161569
-0.406569
0.40307
0.0132581
-0.0103086
-0.268106
0.265157
0.00753086
-0.004793
-0.143755
0.141017
0.00266528
-0.000997018
-0.0537511
0.0520828
0.000178781
-0.00589777
0.00571899
-0.0800162