/*--------------------------------*- C++ -*----------------------------------*\
  =========                 |
  \\      /  F ield         | OpenFOAM: The Open Source CFD Toolbox
   \\    /   O peration     | Website:  https://openfoam.org
    \\  /    A nd           | Version:  6
     \\/     M anipulation  |
\*---------------------------------------------------------------------------*/
FoamFile
{
    version     2.0;
    format      ascii;
    class       volScalarField;
    location    "6";
    object      p;
}
// * * * * * * * * * * * * * * * * * * * * * * * * * * * * * * * * * * * * * //

dimensions      [0 2 -2 0 0 0 0];

internalField   nonuniform List<scalar> 
8800
(
0.476069
0.426975
0.389307
0.361625
0.34183
0.327762
0.317833
0.310917
0.306516
0.304651
0.3055
0.308972
0.314829
0.323288
0.335205
0.351966
0.375369
0.408079
0.450692
0.503079
0.309861
0.316548
0.326361
0.330983
0.329356
0.324232
0.317931
0.31207
0.307428
0.304381
0.303825
0.306195
0.310344
0.31585
0.322201
0.328264
0.331988
0.330773
0.323102
0.31368
0.282022
0.288736
0.294384
0.299167
0.303017
0.304966
0.304763
0.303186
0.301396
0.300432
0.301065
0.302905
0.305011
0.306231
0.305528
0.302639
0.298232
0.293143
0.287186
0.283463
0.28056
0.283379
0.287112
0.290156
0.292217
0.293557
0.294389
0.29477
0.294807
0.294905
0.295159
0.295544
0.295695
0.29534
0.294425
0.292834
0.290381
0.286883
0.283505
0.282227
0.282168
0.283022
0.284823
0.28685
0.288708
0.290245
0.291468
0.292167
0.292498
0.292721
0.293022
0.293248
0.293078
0.292353
0.291092
0.289621
0.287715
0.285759
0.284408
0.284106
0.280631
0.280863
0.281417
0.282116
0.282966
0.283882
0.284863
0.285711
0.286363
0.286842
0.287164
0.287204
0.286889
0.286253
0.285488
0.284733
0.284065
0.283446
0.283086
0.282996
0.278101
0.278264
0.278693
0.279305
0.279997
0.280732
0.281451
0.282143
0.282785
0.283347
0.283737
0.283853
0.283724
0.283402
0.282932
0.282365
0.281818
0.281338
0.281072
0.281015
0.2748
0.274864
0.275042
0.275331
0.275717
0.276215
0.276815
0.277484
0.278174
0.278841
0.27934
0.279565
0.279552
0.279385
0.279153
0.278916
0.278707
0.278541
0.278457
0.278433
0.271013
0.271059
0.271185
0.271393
0.271686
0.272077
0.272575
0.273183
0.27389
0.274658
0.275312
0.275712
0.275894
0.275932
0.275886
0.275803
0.275711
0.275632
0.275587
0.275571
0.26691
0.266937
0.267029
0.267187
0.267428
0.267775
0.268254
0.268881
0.269662
0.270573
0.27142
0.272014
0.272372
0.272564
0.272653
0.272684
0.272684
0.272672
0.272662
0.272653
0.262513
0.262539
0.262618
0.262761
0.26299
0.263336
0.263834
0.264521
0.265421
0.266529
0.267621
0.268445
0.26899
0.269341
0.269553
0.269674
0.269738
0.269768
0.269778
0.269773
0.257822
0.257844
0.257929
0.258082
0.25833
0.258712
0.259278
0.260079
0.261159
0.26253
0.263923
0.265009
0.26578
0.266289
0.266617
0.26682
0.266938
0.267002
0.267027
0.267024
0.252822
0.252846
0.252939
0.253114
0.253403
0.253854
0.254531
0.255502
0.256833
0.25855
0.260328
0.261748
0.262757
0.263446
0.263898
0.264183
0.264354
0.26445
0.26449
0.264487
0.247445
0.247471
0.247584
0.247796
0.248148
0.248702
0.249537
0.250744
0.252409
0.254575
0.256837
0.258656
0.259963
0.260861
0.261455
0.261834
0.262064
0.262193
0.262248
0.262246
0.241602
0.241634
0.241775
0.24204
0.242481
0.243176
0.244226
0.245747
0.247851
0.250594
0.253466
0.255783
0.257454
0.258605
0.259369
0.259857
0.260155
0.260323
0.260395
0.260393
0.235174
0.235215
0.235394
0.235731
0.236292
0.237176
0.238511
0.240443
0.243116
0.246598
0.250242
0.253181
0.255301
0.256763
0.257734
0.258355
0.258734
0.258948
0.25904
0.259039
0.227996
0.228049
0.22828
0.228714
0.229435
0.230569
0.232279
0.234749
0.238156
0.242582
0.247201
0.250917
0.253595
0.255441
0.256667
0.257451
0.25793
0.258201
0.258317
0.258315
0.219849
0.219919
0.22022
0.220784
0.221718
0.223185
0.225388
0.22856
0.232914
0.238544
0.244391
0.249079
0.252449
0.254771
0.256311
0.257297
0.257899
0.25824
0.258385
0.258382
0.210438
0.210531
0.210927
0.211668
0.21289
0.214802
0.217659
0.221749
0.227328
0.23449
0.241879
0.247775
0.252005
0.254914
0.256845
0.258079
0.258834
0.259261
0.259442
0.259438
0.199357
0.199485
0.200012
0.200997
0.202614
0.205129
0.208861
0.214163
0.221327
0.230435
0.23975
0.24714
0.252428
0.256064
0.258478
0.260023
0.260967
0.261501
0.261728
0.261722
0.186049
0.186229
0.186941
0.18827
0.190443
0.193793
0.198717
0.205628
0.214848
0.226413
0.23811
0.247331
0.253918
0.258451
0.261466
0.263399
0.264581
0.265249
0.265532
0.265524
0.169716
0.169973
0.170957
0.172795
0.175781
0.180324
0.186897
0.195971
0.207854
0.222494
0.237095
0.24853
0.256697
0.262336
0.266104
0.268529
0.270015
0.270852
0.271205
0.271196
0.149142
0.14951
0.150925
0.15358
0.157824
0.164133
0.173048
0.185048
0.200364
0.218792
0.236865
0.250927
0.260995
0.267999
0.272723
0.275791
0.277678
0.278736
0.279178
0.279168
0.122348
0.122893
0.125092
0.129183
0.135488
0.144512
0.15682
0.17279
0.19247
0.215463
0.237579
0.254683
0.266999
0.275684
0.281649
0.2856
0.28807
0.28946
0.290031
0.290014
0.0859429
0.086912
0.0907826
0.097648
0.107496
0.12082
0.13805
0.1593
0.184369
0.212687
0.239357
0.259876
0.274784
0.285508
0.293098
0.298326
0.301751
0.303761
0.304601
0.304572
0.0332485
0.036043
0.0443245
0.056946
0.0730837
0.093136
0.117195
0.1451
0.176489
0.210726
0.2423
0.266487
0.284252
0.297349
0.306994
0.314027
0.319051
0.32231
0.323883
0.32389
-0.0465989
-0.0334991
-0.0144171
0.00842816
0.0341495
0.0631436
0.095442
0.130906
0.169217
0.209839
0.246721
0.274987
0.296082
0.312116
0.324514
0.334251
0.342004
0.347995
0.352008
0.353032
-0.130006
-0.104233
-0.0732316
-0.0398806
-0.00450048
0.0333358
0.0737515
0.116758
0.162198
0.209747
0.252816
0.286125
0.311433
0.331199
0.34702
0.360005
0.370828
0.38051
0.388103
0.389734
-0.194093
-0.164093
-0.125266
-0.0838256
-0.0401297
0.00563628
0.0535468
0.103574
0.155666
0.209639
0.25827
0.295788
0.324283
0.346523
0.364261
0.378658
0.390494
0.400271
0.407107
0.408754
-0.242261
-0.210123
-0.166941
-0.120154
-0.0707427
-0.0189408
0.0350391
0.0910403
0.148929
0.20853
0.261939
0.302895
0.333703
0.357403
0.375959
0.390713
0.402624
0.412363
0.419249
0.420989
-0.279122
-0.246199
-0.2002
-0.149831
-0.0964029
-0.0401724
0.018509
0.0793872
0.142244
0.206848
0.264553
0.308491
0.341185
0.366011
0.385175
0.400197
0.412137
0.421719
0.428433
0.430184
-0.308593
-0.275452
-0.227722
-0.174755
-0.118245
-0.0585961
0.00382268
0.0686656
0.135681
0.204637
0.266241
0.312971
0.347465
0.373359
0.393094
0.408355
0.420341
0.429845
0.436446
0.438197
-0.333176
-0.299927
-0.251031
-0.196234
-0.137445
-0.0751197
-0.00975967
0.0582771
0.128798
0.201677
0.267065
0.316673
0.353091
0.380171
0.400571
0.416158
0.42825
0.437716
0.444222
0.445977
-0.3546
-0.321085
-0.271329
-0.215116
-0.154585
-0.0902343
-0.0225771
0.0480147
0.121464
0.197903
0.267088
0.319841
0.35847
0.386979
0.408227
0.424255
0.43654
0.446022
0.452469
0.454231
-0.373817
-0.339972
-0.289428
-0.232073
-0.170159
-0.104241
-0.0348575
0.037664
0.113465
0.193126
0.266248
0.322564
0.363864
0.394164
0.41651
0.433153
0.445726
0.455291
0.4617
0.46345
-0.391415
-0.357141
-0.305829
-0.247522
-0.184532
-0.117439
-0.0468187
0.0270526
0.104623
0.187143
0.264395
0.324848
0.369425
0.402003
0.42579
0.443263
0.456249
0.465976
0.472378
0.474149
-0.407471
-0.37281
-0.320837
-0.261713
-0.197866
-0.129935
-0.0585454
0.0160951
0.0947904
0.179737
0.261299
0.326598
0.375216
0.4107
0.436361
0.454946
0.468519
0.478495
0.484916
0.48675
-0.422387
-0.38725
-0.334624
-0.274813
-0.210287
-0.1418
-0.070061
0.00475285
0.0838633
0.170668
0.256681
0.327613
0.381222
0.420389
0.448486
0.468525
0.482886
0.493211
0.499708
0.501593
-0.436191
-0.400592
-0.347307
-0.286891
-0.22185
-0.153047
-0.0813345
-0.00692495
0.0717997
0.159719
0.250198
0.327642
0.387344
0.431151
0.462353
0.484288
0.49968
0.510481
0.517107
0.518971
-0.448985
-0.412888
-0.358979
-0.298005
-0.232558
-0.163651
-0.0923058
-0.0188667
0.0586091
0.1467
0.241486
0.326353
0.393407
0.442986
0.478117
0.502471
0.519199
0.530623
0.537419
0.539233
-0.460881
-0.424278
-0.369683
-0.308205
-0.24243
-0.173558
-0.102887
-0.0309417
0.0443931
0.131473
0.230167
0.323344
0.399158
0.455789
0.495816
0.523216
0.541679
0.553953
0.560984
0.562621
-0.471943
-0.43471
-0.379475
-0.317508
-0.25146
-0.18274
-0.112957
-0.0430126
0.0292796
0.113979
0.215881
0.318206
0.404265
0.469312
0.515386
0.546599
0.567236
0.580565
0.587883
0.589261
-0.482109
-0.444259
-0.388397
-0.32595
-0.259649
-0.191151
-0.122424
-0.0548697
0.0134348
0.0942253
0.198273
0.310512
0.408321
0.48328
0.536474
0.572325
0.595574
0.610123
0.617707
0.618818
-0.491485
-0.453016
-0.3965
-0.333573
-0.267025
-0.198762
-0.131195
-0.0663535
-0.00288761
0.072256
0.177063
0.29983
0.411063
0.497131
0.558388
0.600139
0.626892
0.642835
0.650351
0.650792
-0.50024
-0.461033
-0.403851
-0.340425
-0.273606
-0.205577
-0.139185
-0.0772926
-0.0194181
0.0481904
0.151903
0.285746
0.412119
0.510423
0.580539
0.629217
0.661305
0.678987
0.684737
0.683673
-0.508293
-0.468383
-0.410498
-0.346544
-0.279441
-0.211594
-0.14635
-0.0875044
-0.0358939
0.0222876
0.122333
0.267986
0.411364
0.5233
0.602838
0.658609
0.697883
0.720604
0.722262
0.714526
-0.515866
-0.475131
-0.416493
-0.351992
-0.284612
-0.216872
-0.152706
-0.0969845
-0.0522609
-0.00564786
0.0873582
0.245554
0.408801
0.536191
0.623788
0.685704
0.732161
0.766541
0.772467
0.760778
-0.52297
-0.481384
-0.421863
-0.356918
-0.289279
-0.221559
-0.158417
-0.105922
-0.0689198
-0.0370445
0.0440239
0.215032
0.404281
0.54818
0.639957
0.703227
0.751365
0.781147
0.78582
0.760864
-0.529529
-0.48702
-0.426474
-0.361362
-0.293379
-0.225566
-0.163384
-0.114012
-0.0853054
-0.0713644
-0.00874179
0.174295
0.397781
0.560753
0.644868
0.695215
0.730405
0.730862
0.666565
0.622836
-0.535446
-0.491268
-0.430067
-0.365005
-0.296519
-0.228664
-0.167495
-0.121013
-0.10093
-0.10827
-0.0727575
0.12288
0.390082
0.570286
0.640198
0.655757
0.66599
0.615675
0.531885
0.477169
-0.576966
-0.492895
-0.433539
-0.368268
-0.29939
-0.2315
-0.170504
-0.126279
-0.1149
-0.147905
-0.151415
0.0505279
0.367022
0.581213
0.62809
0.598696
0.547663
0.464951
0.366476
0.312502
-0.513521
-0.494919
-0.439307
-0.372766
-0.303237
-0.234574
-0.174377
-0.133868
-0.135501
-0.212253
-0.311727
-0.12252
0.299859
0.553834
0.562481
0.393158
0.234428
0.134427
0.040684
0.095083
-0.538474
-0.500921
-0.443636
-0.376648
-0.306459
-0.237026
-0.176079
-0.136884
-0.14647
-0.255894
-0.447846
-0.322162
0.166975
0.44888
0.38914
0.146378
-0.0415821
-0.164457
-0.28531
-0.178752
-0.553043
-0.510571
-0.449879
-0.381727
-0.310306
-0.239653
-0.177454
-0.138574
-0.154226
-0.297285
-0.623308
-0.627138
-0.125574
0.222358
0.106248
-0.172351
-0.375025
-0.521403
-0.68999
-0.541906
-0.565654
-0.519802
-0.456447
-0.386503
-0.31348
-0.241358
-0.177763
-0.13865
-0.159037
-0.338255
-0.853491
-1.11093
-0.537046
-0.147975
-0.280932
-0.546793
-0.789772
-0.98538
-1.19758
-1.08111
-0.57636
-0.528335
-0.462929
-0.391133
-0.316342
-0.242403
-0.177051
-0.136473
-0.159332
-0.369745
-1.09291
-1.75145
-1.08206
-0.583289
-0.708759
-0.93162
-1.22208
-1.51494
-1.86115
-1.91672
-0.585747
-0.536685
-0.469617
-0.396011
-0.319285
-0.243194
-0.175488
-0.132085
-0.154441
-0.384819
-1.30113
-2.31545
-1.57428
-1.02273
-1.09279
-1.27248
-1.56436
-1.89669
-2.19643
-2.6536
-0.595263
-0.545264
-0.47675
-0.401365
-0.322512
-0.244006
-0.173143
-0.125676
-0.143505
-0.382774
-1.43145
-2.6597
-1.918
-1.43206
-1.44244
-1.56242
-1.71431
-1.94753
-2.07251
-2.10281
-0.605309
-0.554434
-0.484498
-0.407289
-0.326179
-0.244898
-0.170205
-0.117219
-0.125585
-0.354232
-1.41532
-2.69745
-2.02756
-1.68565
-1.748
-1.84133
-1.75753
-1.7941
-1.90953
-1.93671
-0.616511
-0.56457
-0.493109
-0.413946
-0.330451
-0.246015
-0.167041
-0.106739
-0.101066
-0.289022
-1.21761
-2.36275
-1.84962
-1.77712
-1.99685
-2.2661
-1.97826
-1.79104
-1.96103
-2.06413
-0.629516
-0.576109
-0.502916
-0.421662
-0.335558
-0.247811
-0.163881
-0.0952377
-0.0711714
-0.198279
-0.861449
-1.65993
-1.41094
-1.64041
-2.22543
-3.07039
-3.08347
-2.91936
-2.72575
-2.68124
-0.644502
-0.589442
-0.514299
-0.43075
-0.341914
-0.250563
-0.161358
-0.0836778
-0.0384101
-0.0938357
-0.449815
-0.849904
-0.862664
-1.33296
-2.25523
-3.85706
-4.57852
-4.26215
-3.74166
-3.45822
-0.66174
-0.604883
-0.527593
-0.441584
-0.349829
-0.254739
-0.160183
-0.0727794
-0.00626177
0.00638512
-0.0920585
-0.172722
-0.333135
-0.782635
-1.81496
-3.24469
-4.09445
-3.7596
-3.20901
-2.93873
-0.681603
-0.62283
-0.543097
-0.454435
-0.35961
-0.260653
-0.160646
-0.0643124
0.0221378
0.0902848
0.145681
0.224163
0.137037
-0.117914
-0.587745
-1.12043
-1.45875
-1.40917
-1.23067
-1.1487
-0.704275
-0.643405
-0.560985
-0.469416
-0.371382
-0.268648
-0.163425
-0.0582525
0.0452321
0.15247
0.281096
0.418614
0.440353
0.39082
0.268831
0.169374
0.166865
0.221055
0.247696
0.253628
-0.729577
-0.666482
-0.581158
-0.486487
-0.385132
-0.278464
-0.168163
-0.0552382
0.0619281
0.194962
0.354757
0.512017
0.602982
0.653492
0.690153
0.735908
0.796675
0.845531
0.866434
0.868701
-0.756422
-0.691389
-0.603053
-0.505083
-0.400318
-0.289924
-0.1748
-0.0548479
0.0730726
0.222171
0.394095
0.556876
0.680253
0.775838
0.85676
0.930266
0.99608
1.04295
1.06573
1.06988
-0.784027
-0.716908
-0.625653
-0.524425
-0.416204
-0.302062
-0.182422
-0.0566095
0.0795327
0.237871
0.413686
0.575371
0.706152
0.811398
0.89779
0.969497
1.0275
1.07017
1.09467
1.10047
-0.810027
-0.741319
-0.647357
-0.542908
-0.431452
-0.313826
-0.190262
-0.059576
0.0825634
0.245828
0.421112
0.577976
0.70616
0.808878
0.890784
0.955834
1.00704
1.04587
1.06999
1.07636
-0.830897
-0.761892
-0.665907
-0.55865
-0.444341
-0.323805
-0.197101
-0.0629216
0.0828644
0.248425
0.420298
0.570565
0.692405
0.789433
0.865957
0.926135
0.973362
1.00976
1.03256
1.03916
-0.844225
-0.775699
-0.678351
-0.568984
-0.452683
-0.330229
-0.201679
-0.0656826
0.0812975
0.246309
0.413085
0.555584
0.670278
0.761381
0.833299
0.890023
0.934878
0.969728
0.991832
0.998593
-0.845503
-0.778315
-0.681136
-0.570858
-0.453923
-0.331187
-0.202616
-0.0669391
0.078809
0.240044
0.399754
0.534048
0.641484
0.726983
0.794871
0.848791
0.891794
0.925361
0.947101
0.953964
-0.828831
-0.764632
-0.669733
-0.560532
-0.445209
-0.324612
-0.198571
-0.0660022
0.0755492
0.230187
0.380772
0.505978
0.605868
0.685771
0.7498
0.801117
0.842394
0.874624
0.896197
0.903488
-0.786127
-0.727513
-0.638657
-0.533732
-0.423396
-0.308359
-0.188238
-0.0621403
0.0718846
0.216876
0.356152
0.470841
0.562209
0.635763
0.69542
0.743845
0.783085
0.814283
0.835623
0.84323
-0.713005
-0.664775
-0.582376
-0.486305
-0.385728
-0.280506
-0.170361
-0.0545676
0.0683332
0.200399
0.32585
0.428021
0.508971
0.574206
0.627608
0.671715
0.707722
0.736502
0.756918
0.764466
-0.60246
-0.566354
-0.496086
-0.41543
-0.330295
-0.239678
-0.143874
-0.0422288
0.0659852
0.181815
0.290614
0.377809
0.44576
0.499521
0.54271
0.578217
0.607847
0.631656
0.647655
0.652774
-0.43592
-0.418007
-0.373806
-0.318519
-0.256042
-0.186382
-0.109669
-0.0253517
0.0666753
0.16653
0.260483
0.33511
0.392192
0.436328
0.470565
0.496767
0.516371
0.531802
0.543859
0.548016
-0.266269
-0.259913
-0.239686
-0.210427
-0.172336
-0.125784
-0.0697157
-0.004398
0.0703083
0.153836
0.233501
0.296636
0.344104
0.37931
0.404962
0.42354
0.437025
0.445863
0.450893
0.452036
-0.137164
-0.13522
-0.127556
-0.114209
-0.0944373
-0.0663354
-0.0287407
0.0191843
0.0774046
0.145158
0.21098
0.263
0.301361
0.329128
0.348837
0.362103
0.370329
0.3751
0.377517
0.377936
-0.0522505
-0.0528868
-0.0518843
-0.0465649
-0.0359295
-0.0186725
0.00646836
0.040858
0.0851274
0.138836
0.192258
0.234599
0.265409
0.286977
0.301368
0.310609
0.316266
0.319304
0.320401
0.320449
-0.00257997
-0.00334864
-0.00396984
-0.00221274
0.00348228
0.0144907
0.0320857
0.0573289
0.0910207
0.133077
0.175582
0.209326
0.233662
0.250558
0.261859
0.268968
0.272979
0.274897
0.275519
0.275552
0.0264052
0.0260864
0.0259745
0.0272967
0.0310553
0.038375
0.050641
0.06915
0.0947805
0.127606
0.161301
0.188173
0.207491
0.220723
0.22931
0.234566
0.237555
0.239034
0.239562
0.239613
0.0454167
0.0453056
0.0453783
0.0464505
0.0492654
0.0546804
0.0637153
0.0774872
0.0969532
0.122402
0.148857
0.170008
0.185133
0.195425
0.202112
0.206219
0.20854
0.209675
0.210086
0.210128
0.0577293
0.0577179
0.0579135
0.0588335
0.060988
0.065038
0.07182
0.082258
0.0971687
0.116894
0.137596
0.154212
0.166098
0.174173
0.179389
0.182573
0.184371
0.185259
0.185587
0.18562
0.0655024
0.0655333
0.0657752
0.0665708
0.0682893
0.0714175
0.0765897
0.0845507
0.0960049
0.111296
0.127455
0.140458
0.149752
0.156051
0.160115
0.162597
0.163999
0.16469
0.164944
0.164969
0.0699706
0.0700099
0.0702376
0.0708941
0.0722519
0.0746803
0.0786661
0.0847905
0.0936238
0.105478
0.118068
0.128224
0.135486
0.140406
0.143577
0.14551
0.1466
0.147135
0.147331
0.147348
0.0719318
0.0719695
0.0721656
0.0726964
0.0737669
0.0756574
0.0787408
0.08347
0.0902997
0.0994962
0.109298
0.117217
0.122882
0.126718
0.129187
0.13069
0.131536
0.131949
0.132098
0.13211
0.0719619
0.0719943
0.072155
0.0725768
0.0734161
0.0748881
0.0772795
0.0809407
0.0862305
0.0933676
0.100992
0.107161
0.111574
0.114561
0.116483
0.117651
0.118306
0.118624
0.118737
0.118744
0.0704954
0.0705219
0.0706505
0.0709824
0.0716382
0.0727834
0.0746391
0.0774772
0.081578
0.087118
0.0930457
0.0978462
0.101281
0.103604
0.105098
0.106004
0.10651
0.106754
0.10684
0.106845
0.0678675
0.0678887
0.0679902
0.0682498
0.0687607
0.0696508
0.0710911
0.0732922
0.0764725
0.0807723
0.0853779
0.0891096
0.0917798
0.0935853
0.0947447
0.0954469
0.0958381
0.0960254
0.0960902
0.0960936
0.0643385
0.0643551
0.0644344
0.0646365
0.0650337
0.0657247
0.0668421
0.0685487
0.0710148
0.0743506
0.0779263
0.0808245
0.0828979
0.0842991
0.0851979
0.0857412
0.0860431
0.0861868
0.086236
0.0862382
0.06011
0.0601229
0.0601844
0.0603412
0.0606491
0.0611847
0.0620504
0.0633727
0.0652836
0.0678693
0.0706421
0.0728899
0.0744975
0.0755833
0.076279
0.0766989
0.0769316
0.0770415
0.0770785
0.0770798
0.055339
0.0553488
0.0553962
0.0555173
0.0557552
0.0561693
0.0568389
0.0578617
0.05934
0.0613409
0.0634875
0.0652274
0.0664713
0.0673109
0.0678485
0.0681724
0.0683511
0.068435
0.0684629
0.0684636
0.050148
0.0501554
0.0501916
0.0502845
0.0504677
0.0507869
0.0513031
0.0520919
0.0532325
0.0547769
0.0564339
0.0577769
0.0587368
0.0593843
0.059798
0.0600467
0.0601834
0.0602471
0.060268
0.0602683
0.0446328
0.0446383
0.0446655
0.0447362
0.0448762
0.0451206
0.0455166
0.0461222
0.0469982
0.0481849
0.0494582
0.0504901
0.0512272
0.0517237
0.0520406
0.0522308
0.0523349
0.0523828
0.0523982
0.0523983
0.0388678
0.0388716
0.0388916
0.0389448
0.0390508
0.0392366
0.039538
0.0399994
0.0406673
0.0415723
0.0425436
0.0433302
0.0438914
0.044269
0.0445097
0.0446537
0.0447323
0.0447682
0.0447794
0.0447792
0.0329114
0.0329139
0.0329284
0.0329678
0.033047
0.0331861
0.0334123
0.0337591
0.0342615
0.0349429
0.0356742
0.0362663
0.0366886
0.0369723
0.0371526
0.0372599
0.0373178
0.037344
0.0373514
0.0373511
0.0268106
0.026812
0.026822
0.0268502
0.0269076
0.0270092
0.027175
0.0274298
0.0277994
0.0283011
0.0288399
0.029276
0.0295866
0.0297949
0.0299265
0.0300044
0.030046
0.0300641
0.0300686
0.0300683
0.0206022
0.0206028
0.0206088
0.0206275
0.0206668
0.0207376
0.020854
0.0210336
0.0212948
0.0216495
0.0220302
0.022338
0.0225568
0.0227031
0.0227957
0.0228501
0.0228787
0.0228906
0.0228934
0.0228931
0.0143162
0.0143161
0.0143189
0.0143301
0.0143549
0.0144002
0.0144753
0.0145917
0.0147614
0.0149923
0.0152404
0.0154408
0.015583
0.0156778
0.0157371
0.0157713
0.0157887
0.0157953
0.0157962
0.0157958
0.00797583
0.00797567
0.00797639
0.00798143
0.00799389
0.0080175
0.00805709
0.00811866
0.00820846
0.00833088
0.00846443
0.00857015
0.00864521
0.00869484
0.00872565
0.00874313
0.00875135
0.00875369
0.00875342
0.00875338
0.00159729
0.00159591
0.00159343
0.00159269
0.00159405
0.0015976
0.00160403
0.00161442
0.00163003
0.00165211
0.00168004
0.00170585
0.0017244
0.00173707
0.00174527
0.00175015
0.00175261
0.00175304
0.00175135
0.00174874
-0.80277
-0.469582
-0.173966
0.0633782
0.2542
0.409767
0.545654
0.661337
0.707711
0.687136
-0.282954
-0.0799316
0.0985495
0.252835
0.383604
0.493821
0.583197
0.644771
0.673777
0.678674
0.0460029
0.168569
0.284629
0.386661
0.475176
0.549788
0.607379
0.648
0.671956
0.684078
0.255828
0.333236
0.41084
0.482388
0.546388
0.59942
0.640458
0.671452
0.690898
0.704794
0.397817
0.453986
0.513706
0.567902
0.614037
0.651645
0.682606
0.708243
0.723804
0.739196
0.509682
0.552806
0.597544
0.638615
0.674247
0.706935
0.736499
0.758726
0.771718
0.78761
0.603686
0.640276
0.678389
0.715033
0.749026
0.778762
0.802809
0.820943
0.834494
0.850933
0.696818
0.732342
0.768095
0.802523
0.833495
0.860675
0.883681
0.901627
0.913543
0.929647
0.792176
0.831961
0.870165
0.904138
0.934967
0.961223
0.982367
0.997966
1.00993
1.02614
0.909753
0.951598
0.989103
1.02326
1.05235
1.07657
1.09652
1.11246
1.12448
1.14057
1.05117
1.09327
1.12953
1.15948
1.1854
1.2073
1.22612
1.24152
1.25476
1.27114
1.22422
1.25654
1.28402
1.30693
1.3271
1.34614
1.36387
1.38103
1.39611
1.41194
1.41145
1.42894
1.44615
1.46262
1.47873
1.49361
1.50786
1.52233
1.53804
1.55512
1.59481
1.60496
1.61821
1.62942
1.63888
1.64861
1.65922
1.66952
1.67869
1.7043
1.81145
1.8063
1.79373
1.7798
1.77389
1.7796
1.79781
1.82634
1.86011
1.89637
2.11716
1.98008
1.90036
1.85748
1.83995
1.84421
1.87155
1.92952
2.03741
2.21592
0.379488
0.373324
0.365928
0.355348
0.342322
0.330322
0.320622
0.313287
0.308072
0.304974
0.304454
0.306716
0.311169
0.317623
0.326243
0.337236
0.350121
0.362394
0.370925
0.378191
0.287338
0.293566
0.302799
0.310291
0.314599
0.31526
0.313018
0.309371
0.305755
0.303103
0.302625
0.304788
0.308305
0.312264
0.315524
0.316572
0.314111
0.308157
0.299659
0.291033
0.280645
0.282814
0.286958
0.290609
0.293683
0.29613
0.297622
0.29803
0.297711
0.297365
0.297447
0.297989
0.298751
0.29904
0.298312
0.296413
0.293683
0.290415
0.286363
0.282946
0.281427
0.2821
0.284637
0.287746
0.290109
0.291848
0.292864
0.293496
0.293749
0.293826
0.294019
0.294411
0.294646
0.294462
0.293814
0.292593
0.290702
0.287968
0.284954
0.28336
0.281777
0.281916
0.282489
0.283488
0.284655
0.286108
0.287557
0.288674
0.28941
0.289856
0.290206
0.290407
0.29028
0.289683
0.288611
0.287287
0.286071
0.285059
0.284266
0.283949
0.279404
0.279477
0.27986
0.280523
0.281213
0.281959
0.28265
0.283347
0.284006
0.284564
0.28499
0.285246
0.285201
0.284929
0.284535
0.283933
0.283366
0.282745
0.282232
0.282044
0.276553
0.276588
0.276759
0.277104
0.277577
0.278176
0.278863
0.279585
0.280293
0.28096
0.281519
0.2818
0.281811
0.281599
0.281242
0.280825
0.280437
0.280109
0.279892
0.279816
0.272944
0.272963
0.27306
0.273257
0.273537
0.273907
0.274377
0.27495
0.275608
0.276311
0.27697
0.277426
0.277623
0.277639
0.277554
0.277422
0.27728
0.277147
0.277054
0.277018
0.269
0.269011
0.269079
0.269221
0.269439
0.269752
0.270178
0.270729
0.271409
0.272204
0.273022
0.27365
0.274021
0.2742
0.27426
0.274252
0.274216
0.274172
0.274137
0.27412
0.264748
0.264756
0.264806
0.26492
0.265106
0.265388
0.265795
0.266358
0.2671
0.268022
0.269037
0.269888
0.270462
0.270813
0.271019
0.27113
0.271183
0.271204
0.271209
0.271206
0.260204
0.260208
0.260262
0.260373
0.260559
0.260852
0.26129
0.261917
0.262774
0.263884
0.265157
0.266279
0.267063
0.267601
0.267943
0.268153
0.268276
0.268343
0.268375
0.268381
0.255365
0.255367
0.255422
0.255545
0.255754
0.256088
0.256594
0.257334
0.258366
0.259733
0.261338
0.262786
0.263845
0.264571
0.265054
0.265363
0.265552
0.265661
0.265715
0.265728
0.250186
0.250187
0.250251
0.250395
0.250644
0.251044
0.251658
0.252562
0.253838
0.255547
0.257578
0.259435
0.260805
0.261762
0.262405
0.262822
0.26308
0.263232
0.26331
0.263329
0.244588
0.244589
0.244668
0.244845
0.245152
0.245648
0.246413
0.247544
0.249145
0.2513
0.253874
0.25624
0.257994
0.259228
0.260061
0.260603
0.260941
0.261141
0.261244
0.261271
0.23847
0.238471
0.23857
0.238793
0.239182
0.239809
0.240776
0.242207
0.244236
0.246966
0.250233
0.253238
0.255469
0.25704
0.258103
0.258796
0.259229
0.259486
0.259619
0.259653
0.231691
0.231692
0.231819
0.232105
0.232602
0.233404
0.234639
0.236465
0.239048
0.242521
0.246667
0.250474
0.253298
0.255287
0.256633
0.25751
0.25806
0.258385
0.258554
0.258598
0.224061
0.224063
0.224228
0.224598
0.22524
0.226274
0.227863
0.230205
0.23351
0.237934
0.243195
0.248011
0.251574
0.254081
0.255775
0.25688
0.257572
0.257982
0.258195
0.25825
0.215326
0.21533
0.215547
0.216031
0.216868
0.218212
0.220271
0.223291
0.227532
0.233177
0.23985
0.245927
0.250409
0.253557
0.255684
0.25707
0.257938
0.258453
0.258719
0.258787
0.205143
0.205149
0.205438
0.20608
0.207185
0.208947
0.211633
0.215551
0.221012
0.228223
0.236676
0.244324
0.249943
0.253884
0.256545
0.25828
0.259366
0.260011
0.260344
0.260429
0.19303
0.193041
0.193436
0.194303
0.19578
0.198119
0.201657
0.206775
0.213835
0.223051
0.233736
0.243325
0.250343
0.255259
0.258581
0.260749
0.262109
0.262917
0.263335
0.26344
0.178301
0.178323
0.178881
0.180081
0.182093
0.185244
0.189965
0.19671
0.205878
0.217657
0.231116
0.243075
0.251797
0.257911
0.262052
0.264763
0.266469
0.267488
0.268018
0.26815
0.159948
0.159995
0.160825
0.16254
0.165341
0.169678
0.176088
0.185079
0.197038
0.212069
0.228923
0.243733
0.254507
0.262085
0.267249
0.270651
0.272809
0.274114
0.274801
0.274971
0.136442
0.136564
0.137874
0.140414
0.144446
0.150612
0.159522
0.171653
0.18729
0.206383
0.227304
0.245462
0.258664
0.268019
0.27447
0.278777
0.281549
0.283257
0.284182
0.284417
0.105235
0.105556
0.107784
0.111782
0.117989
0.127191
0.139899
0.156406
0.176799
0.200822
0.226458
0.248427
0.26442
0.275896
0.283972
0.289501
0.293153
0.295463
0.296757
0.297105
0.0615272
0.062356
0.0667031
0.0738926
0.0843894
0.0987749
0.117174
0.139611
0.165936
0.195713
0.226604
0.252737
0.271821
0.285743
0.29583
0.30302
0.30802
0.311357
0.313335
0.313853
-0.00311475
-0.000462041
0.00969452
0.024291
0.0429298
0.0655312
0.0918729
0.121839
0.155153
0.191327
0.227812
0.258297
0.280644
0.297243
0.309673
0.319006
0.325974
0.331151
0.334545
0.335206
-0.0823722
-0.0761774
-0.0565138
-0.0302064
-0.00108572
0.0308646
0.0657852
0.103655
0.144313
0.187434
0.23036
0.266263
0.292997
0.313429
0.329378
0.342049
0.352268
0.360654
0.365804
0.368107
-0.160723
-0.147538
-0.117985
-0.0817159
-0.0430378
-0.00206448
0.0410883
0.0865435
0.134296
0.184194
0.233511
0.274772
0.305661
0.329507
0.3484
0.363669
0.376166
0.386393
0.393927
0.397778
-0.216704
-0.202447
-0.167972
-0.125458
-0.0798182
-0.0318829
0.0182504
0.0704432
0.12462
0.180656
0.235628
0.28136
0.315427
0.341535
0.361959
0.378155
0.39109
0.401449
0.408894
0.412518
-0.259354
-0.244707
-0.20701
-0.160387
-0.110199
-0.0572699
-0.00191192
0.0556279
0.115167
0.176539
0.23653
0.28618
0.322824
0.350539
0.371896
0.388587
0.401742
0.412137
0.419637
0.423267
-0.292491
-0.277981
-0.238516
-0.18908
-0.135618
-0.0789871
-0.0195792
0.0422926
0.10633
0.172323
0.236771
0.289917
0.328845
0.357966
0.380125
0.397212
0.410516
0.42091
0.428407
0.432024
-0.319601
-0.305242
-0.264661
-0.213299
-0.157387
-0.0978988
-0.0352958
0.0299972
0.0977086
0.167654
0.236165
0.292699
0.333919
0.364484
0.387477
0.405002
0.418493
0.428936
0.436484
0.440102
-0.3427
-0.328409
-0.286931
-0.234209
-0.176529
-0.114889
-0.0498179
0.0182271
0.088971
0.162368
0.234732
0.294748
0.338465
0.370676
0.394665
0.412735
0.426498
0.437034
0.444652
0.44826
-0.363059
-0.34874
-0.30666
-0.252728
-0.193614
-0.130307
-0.0633453
0.00679926
0.0799469
0.156304
0.23239
0.296131
0.342731
0.376927
0.402168
0.420969
0.435113
0.445822
0.4535
0.457141
-0.381554
-0.367137
-0.324366
-0.26944
-0.209185
-0.144569
-0.0761937
-0.00451072
0.0704371
0.149268
0.228965
0.29682
0.346843
0.383509
0.41036
0.430127
0.444797
0.455756
0.463538
0.467186
-0.398499
-0.383896
-0.340517
-0.284691
-0.22351
-0.157904
-0.0885196
-0.0158304
0.0602958
0.14105
0.224245
0.296691
0.350825
0.390601
0.419531
0.440574
0.455962
0.467277
0.475234
0.4789
-0.414077
-0.399321
-0.355262
-0.298687
-0.236756
-0.170416
-0.100396
-0.0272059
0.0494547
0.131478
0.217955
0.295527
0.354633
0.398298
0.429913
0.452622
0.46897
0.480775
0.488939
0.49262
-0.428558
-0.413585
-0.368833
-0.311579
-0.249013
-0.18216
-0.111841
-0.0386419
0.0378841
0.120408
0.209813
0.293041
0.358113
0.406638
0.441663
0.466539
0.484141
0.496605
0.505047
0.508774
-0.441964
-0.426766
-0.381314
-0.323459
-0.260347
-0.19314
-0.122809
-0.0500718
0.0256081
0.107751
0.199514
0.288884
0.361031
0.415565
0.454898
0.482538
0.501764
0.515096
0.523902
0.527692
-0.454459
-0.438967
-0.39281
-0.334349
-0.270791
-0.203358
-0.133243
-0.0613906
0.0127307
0.0934641
0.186792
0.282663
0.363096
0.424943
0.469658
0.50081
0.522092
0.536528
0.545804
0.549688
-0.465962
-0.450277
-0.403376
-0.344332
-0.280347
-0.21279
-0.143078
-0.0724644
-0.000620282
0.077568
0.171385
0.273964
0.363954
0.434559
0.485875
0.521421
0.545264
0.56103
0.570884
0.574837
-0.476651
-0.460634
-0.413012
-0.353424
-0.289044
-0.221416
-0.15224
-0.083167
-0.0142289
0.0601516
0.153079
0.262371
0.363185
0.444108
0.503328
0.544197
0.571289
0.588763
0.599345
0.603281
-0.486437
-0.470161
-0.421819
-0.361662
-0.296902
-0.229224
-0.160664
-0.0933575
-0.0279124
0.0414142
0.131702
0.247474
0.360447
0.453159
0.521427
0.568689
0.599926
0.619528
0.630887
0.634671
-0.495561
-0.478977
-0.429832
-0.369119
-0.303963
-0.236231
-0.168311
-0.1029
-0.041439
0.0215726
0.107161
0.228813
0.35529
0.461424
0.539623
0.594173
0.63074
0.653277
0.66477
0.667654
-0.503966
-0.487063
-0.437135
-0.375835
-0.310256
-0.242457
-0.175135
-0.111686
-0.0545704
0.000879535
0.0793878
0.205992
0.347609
0.468641
0.557268
0.620126
0.663566
0.691238
0.702324
0.701033
-0.511833
-0.494567
-0.443779
-0.381849
-0.315839
-0.247937
-0.181141
-0.119627
-0.0671014
-0.0203365
0.0484126
0.178434
0.337336
0.474705
0.575039
0.645067
0.695693
0.731779
0.747897
0.735809
-0.519168
-0.501517
-0.449836
-0.387235
-0.320857
-0.252806
-0.186469
-0.126903
-0.079305
-0.0428378
0.0122006
0.143328
0.322768
0.480522
0.592209
0.667069
0.722362
0.766125
0.790296
0.792822
-0.526047
-0.508137
-0.455211
-0.392024
-0.325391
-0.257105
-0.191116
-0.133436
-0.090966
-0.0664224
-0.0300697
0.0985167
0.302111
0.485823
0.606022
0.676417
0.726839
0.761371
0.757285
0.70385