/*--------------------------------*- C++ -*----------------------------------*\
  =========                 |
  \\      /  F ield         | OpenFOAM: The Open Source CFD Toolbox
   \\    /   O peration     | Website:  https://openfoam.org
    \\  /    A nd           | Version:  6
     \\/     M anipulation  |
\*---------------------------------------------------------------------------*/
FoamFile
{
    version     2.0;
    format      ascii;
    class       volScalarField;
    location    "25";
    object      p;
}
// * * * * * * * * * * * * * * * * * * * * * * * * * * * * * * * * * * * * * //

dimensions      [0 2 -2 0 0 0 0];

internalField   nonuniform List<scalar> 
8800
(
0.449194
0.399881
0.361913
0.333832
0.313647
0.299021
0.288367
0.280757
0.275781
0.27356
0.27473
0.278874
0.285509
0.294817
0.307474
0.32474
0.348579
0.38165
0.424561
0.477085
0.283679
0.290023
0.299167
0.302703
0.300082
0.293977
0.287007
0.280714
0.275822
0.272821
0.272402
0.274812
0.279274
0.285261
0.29225
0.299202
0.304022
0.30386
0.297161
0.288249
0.257256
0.263493
0.267991
0.271854
0.274785
0.275709
0.274579
0.27238
0.27028
0.26926
0.270073
0.272314
0.275029
0.27716
0.277569
0.2757
0.272272
0.268209
0.263396
0.259672
0.253005
0.255771
0.258381
0.260541
0.262274
0.263823
0.264889
0.265166
0.26489
0.264761
0.265331
0.266279
0.266828
0.266501
0.265386
0.263919
0.26216
0.259788
0.257339
0.25577
0.248024
0.24945
0.251296
0.253379
0.255084
0.256351
0.257394
0.25827
0.258916
0.259411
0.259847
0.260045
0.259849
0.259296
0.258468
0.257221
0.255455
0.253475
0.252076
0.251274
0.243145
0.244048
0.245312
0.246958
0.248655
0.250162
0.251374
0.252394
0.253312
0.254065
0.254514
0.254567
0.254277
0.253686
0.252692
0.251331
0.249818
0.248433
0.247558
0.24704
0.238398
0.239053
0.240043
0.2414
0.242877
0.244401
0.245857
0.247122
0.248205
0.249126
0.249667
0.249748
0.24941
0.248652
0.247588
0.246402
0.245201
0.244141
0.243498
0.243124
0.233806
0.234304
0.235137
0.236355
0.237726
0.239199
0.240736
0.24224
0.243574
0.244684
0.245367
0.24547
0.245051
0.244263
0.2433
0.24227
0.241243
0.24037
0.23987
0.23959
0.229359
0.229745
0.23047
0.231609
0.232943
0.234362
0.235866
0.237417
0.238923
0.24024
0.241099
0.241315
0.241024
0.240415
0.239627
0.238734
0.237822
0.237084
0.236688
0.236474
0.225023
0.225318
0.225948
0.227004
0.228275
0.229637
0.231087
0.232654
0.234316
0.235905
0.236964
0.237352
0.237282
0.236929
0.236362
0.235646
0.23488
0.234274
0.23397
0.233809
0.220788
0.221013
0.221588
0.222634
0.223931
0.225384
0.226992
0.22868
0.230399
0.232144
0.233563
0.234368
0.234584
0.234348
0.23385
0.233224
0.23254
0.232019
0.231784
0.231665
0.216649
0.216805
0.217334
0.218372
0.219683
0.221137
0.22277
0.224645
0.226748
0.228905
0.230669
0.23167
0.232082
0.23211
0.231865
0.231396
0.230823
0.230391
0.230224
0.230146
0.212701
0.212797
0.213246
0.214191
0.215429
0.216859
0.21851
0.220416
0.222617
0.225122
0.227393
0.228978
0.229919
0.230353
0.230418
0.230225
0.229885
0.229615
0.229527
0.229479
0.208795
0.208855
0.209231
0.210083
0.211282
0.212763
0.21457
0.216792
0.219443
0.222478
0.225324
0.227387
0.228662
0.229413
0.229781
0.229885
0.229813
0.229734
0.229714
0.229678
0.204527
0.204578
0.204889
0.205642
0.206776
0.208258
0.210157
0.212579
0.215635
0.219311
0.222912
0.225664
0.227605
0.22887
0.229688
0.230165
0.230408
0.23053
0.230566
0.23053
0.199505
0.199557
0.199864
0.200603
0.201785
0.203408
0.205579
0.208438
0.212094
0.216582
0.221093
0.224656
0.227201
0.228996
0.230238
0.231059
0.23158
0.231857
0.231928
0.231887
0.193484
0.193539
0.193903
0.194705
0.196032
0.197899
0.200452
0.203867
0.208331
0.213889
0.21952
0.224026
0.227327
0.229693
0.231377
0.232554
0.233333
0.233728
0.233824
0.233776
0.186207
0.186264
0.186703
0.187671
0.189237
0.191488
0.194593
0.198796
0.204291
0.211164
0.21819
0.223852
0.228032
0.231048
0.233216
0.234757
0.235771
0.236265
0.236387
0.236335
0.17742
0.177479
0.17802
0.179236
0.181212
0.184028
0.187911
0.19316
0.200022
0.208572
0.217291
0.224303
0.229453
0.233212
0.235948
0.237899
0.239122
0.239711
0.23987
0.239813
0.16684
0.166895
0.167554
0.169113
0.171643
0.175226
0.180156
0.186763
0.195343
0.205977
0.216763
0.22542
0.231813
0.236457
0.239832
0.24217
0.243646
0.244357
0.244562
0.244499
0.154082
0.154139
0.154969
0.156943
0.160195
0.164815
0.171105
0.179484
0.190259
0.203478
0.216767
0.22738
0.235207
0.240903
0.245016
0.247852
0.249631
0.250513
0.250766
0.250691
0.138474
0.138546
0.139607
0.142145
0.146358
0.152341
0.160441
0.171136
0.184705
0.201107
0.217388
0.230301
0.239822
0.246754
0.251732
0.255178
0.257347
0.258438
0.25874
0.258645
0.118833
0.118937
0.120367
0.123747
0.129316
0.137202
0.147797
0.161563
0.178695
0.198989
0.218799
0.234367
0.24582
0.254166
0.26017
0.264344
0.266991
0.268313
0.268665
0.268545
0.0933935
0.0935717
0.0956437
0.100425
0.108084
0.118743
0.132848
0.150718
0.172349
0.197308
0.221178
0.239735
0.253358
0.263309
0.270505
0.275554
0.278777
0.280365
0.280762
0.280608
0.0590923
0.0594634
0.0628473
0.0702096
0.0814331
0.0964255
0.11553
0.1388
0.165948
0.196319
0.224718
0.246546
0.262541
0.274277
0.282849
0.288937
0.292838
0.294721
0.295153
0.294954
0.0100494
0.0114096
0.0182729
0.0310449
0.048526
0.0702196
0.096227
0.126288
0.159922
0.196329
0.22959
0.254867
0.273368
0.287033
0.297149
0.304472
0.309203
0.311434
0.311887
0.311625
-0.062357
-0.0542605
-0.0385809
-0.0161014
0.0108151
0.0414855
0.0758916
0.113773
0.154631
0.19767
0.236284
0.265434
0.286838
0.302843
0.314976
0.323986
0.329949
0.33287
0.333545
0.333375
-0.139199
-0.122104
-0.096707
-0.0638991
-0.0271812
0.0126081
0.0555331
0.101467
0.150021
0.200511
0.245593
0.279743
0.305083
0.3243
0.339191
0.350632
0.35836
0.362278
0.363402
0.363406
-0.204083
-0.183305
-0.150076
-0.108643
-0.0632552
-0.0149252
0.0362447
0.0900308
0.146031
0.203628
0.254731
0.293391
0.322158
0.344151
0.361218
0.374344
0.383573
0.388285
0.389296
0.389403
-0.256544
-0.233552
-0.195225
-0.147705
-0.0955909
-0.0401655
0.0182139
0.0791317
0.142054
0.206248
0.262809
0.3054
0.336972
0.361004
0.379649
0.393963
0.404254
0.409421
0.410647
0.410868
-0.299883
-0.275701
-0.233748
-0.181495
-0.12404
-0.0628097
0.00165356
0.0688033
0.137928
0.208108
0.26955
0.315476
0.349296
0.374871
0.394611
0.409736
0.420463
0.426132
0.427715
0.427971
-0.336971
-0.312061
-0.267472
-0.211408
-0.14946
-0.0833144
-0.0136166
0.0590013
0.133667
0.209231
0.275043
0.323875
0.359516
0.386246
0.406693
0.422291
0.433249
0.439223
0.441019
0.441261
-0.369786
-0.344397
-0.297725
-0.238496
-0.172755
-0.102349
-0.028016
0.0495006
0.129201
0.209715
0.279568
0.331025
0.368241
0.395858
0.416747
0.432517
0.443537
0.449578
0.451468
0.451666
-0.399753
-0.373957
-0.325567
-0.263622
-0.194592
-0.12046
-0.041982
0.0400103
0.124378
0.209592
0.283291
0.337281
0.375972
0.404355
0.425576
0.44144
0.452458
0.458534
0.460504
0.460686
-0.427771
-0.401591
-0.351705
-0.287397
-0.215496
-0.138053
-0.0558354
0.0302585
0.119016
0.208749
0.286272
0.342769
0.382936
0.412126
0.433734
0.449732
0.460744
0.46674
0.468761
0.468977
-0.45454
-0.427934
-0.376681
-0.310234
-0.235789
-0.155394
-0.0698049
0.0200598
0.112949
0.207065
0.288422
0.347562
0.38938
0.419531
0.441627
0.457827
0.46887
0.474778
0.476747
0.476963
-0.48033
-0.453297
-0.400796
-0.332449
-0.255729
-0.172679
-0.0840356
0.00929757
0.106073
0.204462
0.289781
0.351827
0.395506
0.426774
0.449502
0.466012
0.477147
0.482988
0.484831
0.48498
-0.505489
-0.477926
-0.424294
-0.354226
-0.27546
-0.190022
-0.0986059
-0.00208859
0.098346
0.200939
0.290363
0.35552
0.401314
0.433922
0.457449
0.474384
0.485656
0.491433
0.493124
0.493185
-0.530076
-0.501991
-0.447285
-0.375647
-0.295052
-0.207472
-0.113552
-0.0141116
0.0897548
0.196431
0.29001
0.35856
0.406786
0.440994
0.465496
0.482954
0.494383
0.500068
0.501614
0.501565
-0.55416
-0.525528
-0.469813
-0.396753
-0.314527
-0.225032
-0.128861
-0.0267731
0.0802639
0.190825
0.288624
0.360862
0.411869
0.447969
0.473632
0.491701
0.503275
0.508811
0.510176
0.51003
-0.577784
-0.548593
-0.49188
-0.417546
-0.333873
-0.242665
-0.144496
-0.0400428
0.069871
0.184104
0.286123
0.362266
0.416444
0.454804
0.48185
0.500596
0.512275
0.517557
0.518696
0.518466
-0.60096
-0.571139
-0.513484
-0.437994
-0.353027
-0.260322
-0.160399
-0.0538604
0.0586333
0.176267
0.282388
0.362603
0.42034
0.461429
0.490172
0.509634
0.521274
0.526172
0.527041
0.526736
-0.623515
-0.593112
-0.534567
-0.458051
-0.37194
-0.277922
-0.176485
-0.0681262
0.0466335
0.167327
0.277341
0.361693
0.423328
0.467714
0.498668
0.518944
0.530254
0.534482
0.535004
0.534638
-0.645408
-0.614454
-0.555084
-0.477649
-0.390536
-0.295385
-0.192647
-0.0827483
0.0339568
0.157322
0.270938
0.359371
0.425122
0.473401
0.507393
0.528905
0.539483
0.542418
0.542385
0.541997
-0.666676
-0.635122
-0.574997
-0.49674
-0.408742
-0.312621
-0.208789
-0.0976165
0.0207079
0.146341
0.263153
0.355504
0.425416
0.478038
0.51617
0.540106
0.549991
0.550488
0.549062
0.548735
-0.687165
-0.65508
-0.594248
-0.515252
-0.426493
-0.329543
-0.224809
-0.112612
0.00702049
0.134508
0.254006
0.349985
0.423916
0.480983
0.524291
0.552729
0.563786
0.561544
0.556261
0.55358
-0.706951
-0.674337
-0.612838
-0.533213
-0.44382
-0.346194
-0.240764
-0.127795
-0.00718096
0.121752
0.243358
0.342565
0.420319
0.481474
0.530388
0.565613
0.581674
0.580865
0.568819
0.564383
-0.725956
-0.692957
-0.630906
-0.550815
-0.461018
-0.362921
-0.257077
-0.143675
-0.0224795
0.107384
0.230477
0.332354
0.413922
0.478303
0.531646
0.574145
0.596012
0.5926
0.578987
0.568265
-0.744056
-0.710903
-0.648293
-0.567845
-0.477852
-0.379419
-0.273525
-0.159911
-0.0385417
0.0917133
0.215566
0.318992
0.404361
0.470624
0.52326
0.565859
0.59048
0.574931
0.51362
0.484334
-0.761135
-0.728888
-0.664576
-0.583784
-0.493687
-0.395215
-0.289848
-0.176237
-0.0550858
0.0749341
0.198759
0.302185
0.390976
0.458771
0.501864
0.534805
0.542303
0.499083
0.434093
0.393992
-0.804417
-0.746269
-0.679677
-0.599289
-0.509249
-0.411173
-0.305927
-0.192764
-0.0722953
0.0567591
0.179736
0.281737
0.370775
0.444105
0.463401
0.469817
0.442795
0.387327
0.317873
0.279461
-0.778963
-0.760785
-0.702123
-0.62253
-0.532631
-0.435
-0.330633
-0.218534
-0.0996147
0.0270384
0.147061
0.245481
0.325751
0.399762
0.399157
0.303188
0.216282
0.156684
0.092983
0.129209
-0.809922
-0.778549
-0.719198
-0.639822
-0.550181
-0.453014
-0.34871
-0.237513
-0.11999
0.00434081
0.121016
0.215451
0.286815
0.326639
0.28409
0.150514
0.0421829
-0.030697
-0.114998
-0.0583831
-0.833832
-0.800092
-0.738935
-0.659346
-0.569877
-0.472883
-0.368873
-0.258715
-0.142895
-0.0214095
0.0909859
0.179848
0.239806
0.245269
0.142511
-0.0179684
-0.150774
-0.244565
-0.34588
-0.302755
-0.856942
-0.822156
-0.759657
-0.679471
-0.589928
-0.49312
-0.389743
-0.28077
-0.166854
-0.0485554
0.0587448
0.141006
0.184691
0.155037
-0.00562509
-0.193702
-0.363335
-0.507293
-0.640765
-0.610972
-0.879626
-0.844505
-0.781183
-0.700473
-0.61078
-0.514222
-0.411602
-0.303939
-0.19218
-0.0774213
0.0241518
0.0987497
0.122786
0.0522584
-0.151854
-0.366046
-0.571092
-0.742056
-0.969737
-1.05681
-0.902549
-0.867573
-0.803799
-0.722703
-0.63285
-0.5365
-0.434571
-0.328235
-0.218728
-0.107692
-0.0121223
0.0534854
0.0565743
-0.0707611
-0.285876
-0.517439
-0.734285
-0.91623
-1.05907
-1.21436
-0.926667
-0.891773
-0.827804
-0.746508
-0.656619
-0.560572
-0.45943
-0.354586
-0.247668
-0.140839
-0.0517731
0.0027439
-0.0225393
-0.193149
-0.411497
-0.640675
-0.838776
-0.952882
-0.984107
-0.999685
-0.952138
-0.91734
-0.853285
-0.771946
-0.682186
-0.586601
-0.486484
-0.383426
-0.279547
-0.177605
-0.0954615
-0.0552655
-0.10769
-0.311763
-0.527314
-0.735981
-0.89051
-0.937179
-0.949105
-0.949565
-0.979214
-0.944367
-0.880241
-0.798954
-0.709452
-0.614533
-0.515695
-0.414741
-0.314357
-0.218038
-0.143332
-0.119991
-0.199103
-0.424307
-0.632828
-0.816808
-0.909259
-0.928175
-0.92927
-0.929152
-1.00781
-0.972844
-0.908635
-0.827464
-0.73836
-0.644278
-0.546992
-0.448471
-0.35199
-0.262034
-0.195677
-0.188383
-0.309488
-0.52908
-0.73016
-0.877581
-0.917236
-0.917997
-0.919408
-0.919168
-1.03765
-1.00255
-0.938292
-0.857325
-0.768745
-0.675679
-0.580226
-0.484519
-0.392267
-0.309371
-0.252151
-0.265089
-0.421735
-0.628948
-0.80955
-0.907426
-0.917052
-0.915436
-0.914454
-0.913997
-1.0681
-1.03308
-0.968895
-0.888233
-0.800325
-0.708464
-0.615062
-0.522679
-0.434816
-0.359646
-0.311582
-0.346465
-0.5313
-0.724955
-0.87289
-0.922552
-0.923813
-0.916676
-0.912303
-0.910431
-1.09865
-1.06384
-0.999935
-0.9197
-0.832647
-0.742189
-0.650982
-0.562484
-0.479226
-0.411843
-0.374638
-0.425275
-0.640934
-0.830024
-0.9223
-0.943627
-0.936171
-0.917341
-0.909508
-0.908547
-1.12821
-1.09398
-1.03065
-0.951038
-0.865045
-0.776245
-0.687297
-0.60299
-0.525193
-0.464351
-0.442754
-0.50171
-0.733736
-0.959269
-1.00303
-0.977298
-0.985541
-0.986401
-0.973054
-0.965914
-1.15589
-1.12243
-1.06006
-0.981342
-0.896627
-0.80975
-0.723197
-0.642652
-0.572212
-0.515994
-0.510227
-0.58835
-0.794342
-1.08013
-1.2146
-1.17529
-1.15995
-1.16408
-1.14783
-1.13484
-1.17993
-1.14782
-1.08691
-1.00946
-0.926257
-0.841504
-0.757701
-0.679809
-0.618111
-0.567043
-0.568048
-0.695919
-0.853365
-1.06238
-1.24445
-1.26182
-1.33237
-1.34321
-1.32774
-1.32051
-1.19856
-1.16841
-1.10971
-1.034
-0.952622
-0.870008
-0.789328
-0.713542
-0.657746
-0.618777
-0.615923
-0.792532
-0.958745
-0.904488
-0.81405
-1.06089
-1.32884
-1.37148
-1.36962
-1.37024
-1.21025
-1.18265
-1.12682
-1.05347
-0.974253
-0.8937
-0.815869
-0.743169
-0.68663
-0.666565
-0.66116
-0.857654
-1.13667
-1.10908
-1.10777
-1.31986
-1.43998
-1.42125
-1.40092
-1.40908
-1.21278
-1.18872
-1.13676
-1.06634
-0.989571
-0.911174
-0.835087
-0.765733
-0.707797
-0.687941
-0.712216
-0.942095
-1.44516
-1.92351
-2.26735
-2.47333
-2.36812
-2.05745
-1.78635
-1.75052
-1.20544
-1.18523
-1.13806
-1.07133
-0.997291
-0.92094
-0.846013
-0.776695
-0.719933
-0.691103
-0.729194
-0.992613
-1.62201
-2.44837
-2.88015
-3.06628
-2.99531
-2.77555
-2.49932
-2.34107
-1.18592
-1.17017
-1.12956
-1.06778
-0.99666
-0.922252
-0.846905
-0.776799
-0.713037
-0.683177
-0.672752
-0.891966
-1.30515
-1.94828
-2.40518
-2.53025
-2.49206
-2.33521
-2.14744
-2.02159
-1.15639
-1.14523
-1.11182
-1.05611
-0.987983
-0.914926
-0.83815
-0.764034
-0.690231
-0.628336
-0.595286
-0.568258
-0.736446
-0.899297
-1.01084
-0.879633
-0.573681
-0.296268
-0.107153
-0.023408
-1.12003
-1.11315
-1.08774
-1.03831
-0.973275
-0.899892
-0.822622
-0.737116
-0.659166
-0.549492
-0.460287
-0.282255
-0.0476775
0.360869
0.886696
1.39062
1.81179
2.06993
2.18233
2.21552
-1.08153
-1.0777
-1.06067
-1.0181
-0.955333
-0.881658
-0.799743
-0.712839
-0.610248
-0.502295
-0.355005
-0.208632
0.132855
0.706635
1.38881
2.00955
2.44721
2.70773
2.82879
2.86369
-1.04587
-1.04363
-1.03403
-0.999195
-0.938455
-0.862789
-0.778805
-0.686752
-0.586443
-0.467563
-0.335157
-0.215423
-0.0376339
0.394204
0.906693
1.36856
1.71676
1.92003
2.01318
2.0402
-1.01441
-1.01379
-1.01006
-0.982754
-0.922929
-0.844631
-0.759744
-0.669061
-0.57119
-0.461386
-0.351826
-0.254694
-0.169169
0.0906761
0.478907
0.819419
1.0614
1.2014
1.2692
1.29156
-0.987082
-0.989084
-0.988175
-0.961958
-0.899586
-0.820276
-0.737811
-0.653067
-0.562385
-0.464562
-0.375345
-0.302506
-0.256039
-0.104554
0.17607
0.420538
0.586394
0.677378
0.717394
0.727448
-0.926005
-0.929604
-0.929473
-0.905624
-0.849412
-0.779579
-0.707284
-0.63342
-0.555247
-0.46893
-0.394178
-0.342055
-0.306212
-0.21095
-0.0282018
0.129502
0.233535
0.293393
0.321343
0.328035
-0.814896
-0.817319
-0.816637
-0.800874
-0.764475
-0.717407
-0.664796
-0.607643
-0.543212
-0.472185
-0.407331
-0.367242
-0.339289
-0.275384
-0.151208
-0.0521724
0.0105014
0.0479413
0.0643519
0.0665541
-0.696115
-0.696524
-0.695843
-0.689812
-0.674765
-0.651073
-0.619411
-0.580032
-0.529779
-0.471617
-0.415519
-0.377978
-0.341907
-0.305501
-0.229713
-0.167127
-0.126017
-0.100437
-0.0904617
-0.0899804
-0.613465
-0.613312
-0.613548
-0.613466
-0.609546
-0.599781
-0.582683
-0.556426
-0.518458
-0.468296
-0.423371
-0.392075
-0.351332
-0.319775
-0.272165
-0.234226
-0.20611
-0.188871
-0.18185
-0.182487
-0.571021
-0.570862
-0.57128
-0.572592
-0.572276
-0.568071
-0.558168
-0.539826
-0.510034
-0.465448
-0.427583
-0.40505
-0.370385
-0.350902
-0.313771
-0.286208
-0.2623
-0.248587
-0.242756
-0.24374
-0.557004
-0.556673
-0.55662
-0.557399
-0.557378
-0.55464
-0.547441
-0.532774
-0.506368
-0.463838
-0.430636
-0.415181
-0.400371
-0.391926
-0.359742
-0.330977
-0.307282
-0.293205
-0.288421
-0.289521
-0.564122
-0.563483
-0.562821
-0.562617
-0.561676
-0.558467
-0.551397
-0.537524
-0.510301
-0.46725
-0.43187
-0.414799
-0.407029
-0.401852
-0.375578
-0.350757
-0.329047
-0.318114
-0.312778
-0.314237
-0.589814
-0.588943
-0.587951
-0.587063
-0.585281
-0.581429
-0.574317
-0.560943
-0.532045
-0.48393
-0.443542
-0.409926
-0.389508
-0.386219
-0.370599
-0.350699
-0.337313
-0.329199
-0.32704
-0.327372
-0.631856
-0.631009
-0.629999
-0.629061
-0.627589
-0.625046
-0.620794
-0.611918
-0.587449
-0.538947
-0.494409
-0.430693
-0.387735
-0.383938
-0.370151
-0.346151
-0.322335
-0.308634
-0.302623
-0.304702
-0.686786
-0.686116
-0.685739
-0.685866
-0.686822
-0.68944
-0.694586
-0.701215
-0.699946
-0.677418
-0.628403
-0.527567
-0.448341
-0.4273
-0.403226
-0.354282
-0.312375
-0.282617
-0.278666
-0.282065
-0.748277
-0.748239
-0.749226
-0.751936
-0.75825
-0.77127
-0.795459
-0.836063
-0.890287
-0.93551
-0.88014
-0.722627
-0.591439
-0.542059
-0.478929
-0.394192
-0.325467
-0.292555
-0.289435
-0.290625
-0.805149
-0.806171
-0.809272
-0.81607
-0.830518
-0.858914
-0.912045
-1.00793
-1.15654
-1.31463
-1.25931
-1.0084
-0.818746
-0.725361
-0.603077
-0.470179
-0.362295
-0.32031
-0.327909
-0.332792
-0.841674
-0.843961
-0.849395
-0.860813
-0.884319
-0.929761
-1.01579
-1.17771
-1.44509
-1.73261
-1.67497
-1.33063
-1.07129
-0.934591
-0.774015
-0.618188
-0.518985
-0.490338
-0.492501
-0.498572
-0.841303
-0.844455
-0.8516
-0.866526
-0.896769
-0.954891
-1.06565
-1.2774
-1.63965
-2.01347
-1.96925
-1.58121
-1.29971
-1.15197
-0.997162
-0.881257
-0.813652
-0.797017
-0.791756
-0.793636
-0.793462
-0.796943
-0.804392
-0.820044
-0.851881
-0.913024
-1.02986
-1.25526
-1.64058
-2.02164
-2.00315
-1.66011
-1.42581
-1.30183
-1.22347
-1.18264
-1.13988
-1.11367
-1.09966
-1.09642
-0.699412
-0.702375
-0.708677
-0.722074
-0.749791
-0.803284
-0.905722
-1.10342
-1.44301
-1.758
-1.73737
-1.52104
-1.37954
-1.33353
-1.37067
-1.3819
-1.34195
-1.30606
-1.28487
-1.27732
-0.573047
-0.574955
-0.579016
-0.588165
-0.607879
-0.64655
-0.721074
-0.865994
-1.12361
-1.37144
-1.3664
-1.2571
-1.20521
-1.20727
-1.31433
-1.36499
-1.31887
-1.2828
-1.26191
-1.25361
-0.43508
-0.435804
-0.43746
-0.441956
-0.452758
-0.474857
-0.518227
-0.604062
-0.767399
-0.957453
-0.992536
-0.946188
-0.879676
-0.90881
-1.03824
-1.09855
-1.07495
-1.05472
-1.04319
-1.03779
-0.305444
-0.305221
-0.305051
-0.305865
-0.309382
-0.317696
-0.33495
-0.370244
-0.443062
-0.552357
-0.577124
-0.536596
-0.499469
-0.560998
-0.682589
-0.733242
-0.736246
-0.734844
-0.734155
-0.732995
-0.197559
-0.196822
-0.195684
-0.194461
-0.193598
-0.193276
-0.193941
-0.196504
-0.202381
-0.2155
-0.213773
-0.200496
-0.228247
-0.317256
-0.397249
-0.431982
-0.443118
-0.449636
-0.453938
-0.455066
-0.116566
-0.115709
-0.114387
-0.112643
-0.110208
-0.106382
-0.100166
-0.089705
-0.0714603
-0.0396612
-0.014487
-0.0284875
-0.0987811
-0.167253
-0.213093
-0.230779
-0.242415
-0.24936
-0.25409
-0.255677
-0.0609487
-0.0602304
-0.0591953
-0.0578721
-0.0557357
-0.0518651
-0.0451761
-0.0339584
-0.0158198
0.00979527
0.0250431
0.00707964
-0.0382721
-0.0787447
-0.104028
-0.116607
-0.12298
-0.127077
-0.130127
-0.131242
-0.0254704
-0.0249938
-0.0244189
-0.0239254
-0.0228656
-0.0205051
-0.0162072
-0.0090922
0.00175743
0.0152209
0.0211879
0.0100087
-0.0123493
-0.0320687
-0.0444184
-0.0503234
-0.0529069
-0.0546396
-0.0561409
-0.0567355
-0.00377455
-0.00367627
-0.00338511
-0.00306832
-0.00275269
-0.00242792
-0.00185879
-0.000848731
0.000752614
0.00295437
0.00488922
0.00390729
0.000338306
-0.00382967
-0.00652313
-0.00801671
-0.00848429
-0.0086248
-0.00892694
-0.00931755
-0.464724
-0.255493
-0.0600984
0.104021
0.238301
0.347278
0.439843
0.515239
0.536392
0.532586
-0.137405
-0.00129355
0.12625
0.237764
0.3328
0.412361
0.475644
0.518921
0.542136
0.558282
0.0858132
0.175602
0.264709
0.343697
0.411622
0.468245
0.512935
0.546702
0.571333
0.590468
0.246842
0.309954
0.374135
0.432058
0.482199
0.524713
0.56009
0.58925
0.611176
0.630159
0.372188
0.419951
0.467892
0.512074
0.551302
0.585749
0.615612
0.640693
0.659707
0.677883
0.478177
0.516033
0.55364
0.58981
0.622955
0.652789
0.678999
0.700886
0.717351
0.734931
0.570093
0.603862
0.637698
0.670328
0.700624
0.728068
0.752061
0.771671
0.786056
0.803168
0.659657
0.69323
0.726711
0.758836
0.78842
0.814897
0.837597
0.855575
0.86829
0.884913
0.755688
0.792685
0.828078
0.861098
0.890789
0.916602
0.938112
0.954713
0.966542
0.982772
0.869685
0.910557
0.948004
0.981343
1.01018
1.03448
1.05438
1.06986
1.0819
1.09805
1.0115
1.05286
1.08843
1.1183
1.14373
1.16554
1.18421
1.19982
1.21302
1.22904
1.18358
1.21624
1.24325
1.26573
1.28596
1.3048
1.32262
1.33945
1.35442
1.37025
1.37029
1.38764
1.40487
1.42164
1.43781
1.4526
1.46654
1.48104
1.49632
1.51376
1.55366
1.56363
1.57684
1.58783
1.59725
1.60694
1.61759
1.62783
1.6372
1.6626
1.77123
1.76548
1.75248
1.73822
1.73196
1.7377
1.75582
1.78434
1.81814
1.85445
2.07445
1.9386
1.85917
1.81672
1.79935
1.80335
1.83088
1.88881
1.99646
2.17468
0.352852
0.346552
0.338816
0.327695
0.31412
0.30146
0.291039
0.282982
0.277199
0.273776
0.273275
0.275922
0.280996
0.288236
0.297696
0.309457
0.322966
0.335859
0.344828
0.352354
0.261973
0.267899
0.275967
0.282091
0.28515
0.284626
0.28152
0.277486
0.273829
0.271425
0.271128
0.273206
0.276801
0.281114
0.285113
0.287279
0.28615
0.281475
0.274391
0.26654
0.255266
0.257638
0.260907
0.263682
0.266131
0.268309
0.269471
0.269283
0.268244
0.267291
0.267328
0.268556
0.270194
0.271285
0.271083
0.269521
0.267288
0.264865
0.261839
0.258804
0.250519
0.251606
0.253529
0.255876
0.257752
0.259148
0.260347
0.261294
0.261804
0.262024
0.262371
0.262913
0.263189
0.262897
0.262124
0.26108
0.259649
0.257597
0.255431
0.253935
0.245566
0.246198
0.247336
0.249114
0.250973
0.252568
0.253789
0.254786
0.25566
0.25638
0.256927
0.257208
0.257119
0.256718
0.25602
0.254899
0.253341
0.251618
0.250205
0.249386
0.240757
0.241192
0.241994
0.243328
0.244878
0.246451
0.247908
0.249137
0.2502
0.25114
0.251833
0.252092
0.251949
0.251463
0.250586
0.249396
0.24807
0.246782
0.245786
0.245236
0.236076
0.236395
0.23703
0.238163
0.239531
0.240995
0.242518
0.243999
0.245301
0.246404
0.247233
0.247595
0.24745
0.246832
0.245891
0.244812
0.243709
0.242642
0.241854
0.241448
0.231573
0.231813
0.232333
0.233333
0.234613
0.236013
0.237506
0.23905
0.240549
0.241884
0.242906
0.243365
0.243229
0.242663
0.241848
0.240919
0.239951
0.239045
0.238411
0.2381
0.227175
0.227353
0.227788
0.228703
0.229933
0.231282
0.232698
0.234211
0.235813
0.237374
0.238617
0.239231
0.239234
0.238871
0.238288
0.237549
0.236709
0.235923
0.235404
0.235169
0.2229
0.223029
0.223393
0.224227
0.225405
0.226739
0.228193
0.22974
0.231365
0.23305
0.234549
0.235461
0.235796
0.235697
0.235278
0.234673
0.233984
0.233332
0.232923
0.232747
0.218703
0.218788
0.219104
0.219928
0.221149
0.22255
0.224113
0.225857
0.227734
0.229661
0.231473
0.232747
0.23332
0.23335
0.233044
0.232545
0.231926
0.231333
0.230993
0.23087
0.214652
0.214694
0.214952
0.21571
0.216876
0.218233
0.219738
0.221457
0.223476
0.225754
0.227991
0.229634
0.230569
0.231027
0.231104
0.230884
0.230479
0.230046
0.229813
0.229742
0.21076
0.210772
0.210981
0.211645
0.212731
0.214073
0.215666
0.217563
0.219785
0.222351
0.225072
0.227327
0.22878
0.2296
0.229962
0.230029
0.229879
0.229659
0.229552
0.229518
0.206736
0.206739
0.20691
0.207479
0.208476
0.209793
0.211428
0.213506
0.216099
0.219232
0.22261
0.225435
0.227389
0.228641
0.22938
0.229804
0.230014
0.230067
0.230091
0.230077
0.202124
0.202123
0.202284
0.202793
0.203734
0.205064
0.206813
0.209109
0.212055
0.21574
0.219907
0.223605
0.226283
0.228153
0.22942
0.230261
0.230772
0.231071
0.231199
0.231196
0.196642
0.196636
0.196816
0.197352
0.198362
0.199836
0.201847
0.204567
0.208145
0.212676
0.217848
0.222475
0.225891
0.228334
0.230068
0.23128
0.232105
0.232611
0.232812
0.232814
0.190024
0.190012
0.190229
0.190864
0.192007
0.19371
0.196098
0.199355
0.203703
0.209259
0.215686
0.221509
0.225861
0.22904
0.231308
0.232936
0.234082
0.234763
0.235019
0.235026
0.182016
0.181994
0.182256
0.183043
0.184453
0.186547
0.189496
0.193555
0.19895
0.205865
0.213846
0.221085
0.226517
0.230483
0.233309
0.235371
0.236842
0.237684
0.237999
0.238018
0.172367
0.17233
0.172652
0.173651
0.175439
0.178087
0.181809
0.186904
0.193657
0.202276
0.212185
0.221155
0.227863
0.232768
0.236342
0.238923
0.240665
0.241663
0.24205
0.242082
0.160741
0.160685
0.161089
0.162341
0.164639
0.168039
0.172807
0.179262
0.187771
0.198527
0.210801
0.221845
0.230108
0.236149
0.240516
0.24366
0.245758
0.246964
0.247454
0.2475
0.146634
0.146563
0.147096
0.148702
0.151646
0.156027
0.162166
0.170419
0.18117
0.194609
0.209765
0.223283
0.233367
0.240747
0.246086
0.249882
0.252429
0.253902
0.254505
0.25456
0.129124
0.129046
0.129792
0.131901
0.135684
0.141458
0.149423
0.160069
0.173744
0.190551
0.209187
0.225617
0.237821
0.246751
0.253209
0.257797
0.260894
0.262699
0.263424
0.263481
0.106765
0.106699
0.107816
0.110729
0.115804
0.123494
0.134089
0.148007
0.165497
0.186474
0.209237
0.229016
0.243622
0.254311
0.26206
0.267586
0.271351
0.273548
0.274409
0.274464
0.077204
0.077203
0.0789995
0.0832924
0.0905692
0.101335
0.115782
0.134186
0.156567
0.182598
0.210126
0.233655
0.250923
0.263573
0.272793
0.279428
0.283986
0.286628
0.287632
0.287676
0.0362771
0.0365126
0.0397892
0.0469922
0.0583793
0.0742296
0.0943934
0.118842
0.147314
0.179254
0.212093
0.23968
0.259803
0.274579
0.28544
0.293366
0.298874
0.302023
0.303152
0.303174
-0.0237279
-0.0222331
-0.0143847
-0.000692332
0.0183899
0.0423603
0.070554
0.102666
0.13831
0.17683
0.215341
0.247152
0.270222
0.287212
0.29984
0.309186
0.315786
0.319529
0.320792
0.320791
-0.0961919
-0.0931569
-0.077949
-0.0541066
-0.0246258
0.00886662
0.0458318
0.0861594
0.129551
0.175434
0.220689
0.257932
0.285109
0.305376
0.320716
0.332316
0.340648
0.345428
0.346944
0.34711
-0.170032
-0.162294
-0.13961
-0.105987
-0.0666414
-0.0238726
0.0218361
0.0704238
0.121638
0.17496
0.22707
0.26987
0.301217
0.324845
0.343005
0.357089
0.36726
0.372719
0.374896
0.375438
-0.228901
-0.219648
-0.192204
-0.151775
-0.104833
-0.0542535
-0.000701615
0.0555532
0.114141
0.17452
0.233028
0.280838
0.315796
0.342143
0.362437
0.378083
0.389449
0.396037
0.399018
0.399726
-0.276955
-0.267033
-0.236189
-0.190837
-0.138179
-0.0814023
-0.0213126
0.0416198
0.106851
0.173675
0.238015
0.290245
0.328211
0.356655
0.378471
0.395333
0.407715
0.415116
0.418441
0.419212
-0.317204
-0.307072
-0.274012
-0.224799
-0.167474
-0.105567
-0.0400075
0.0286633
0.0997582
0.172378
0.241945
0.298051
0.338514
0.368604
0.391506
0.409121
0.422079
0.43005
0.433619
0.434436
-0.352284
-0.342064
-0.307321
-0.255018
-0.193848
-0.127581
-0.057268
0.0164595
0.092791
0.170649
0.244973
0.304558
0.347178
0.378572
0.402241
0.420278
0.433498
0.441738
0.445401
0.446239
-0.383768
-0.373525
-0.337475
-0.282591
-0.218146
-0.14812
-0.0736194
0.00464242
0.085759
0.168461
0.247269
0.310103
0.3547
0.387223
0.411455
0.42971
0.443003
0.451309
0.454942
0.455796
-0.412826
-0.402547
-0.365431
-0.308329
-0.241048
-0.167732
-0.0895016
-0.00711516
0.078416
0.165714
0.248831
0.314884
0.361408
0.394997
0.419762
0.438237
0.451605
0.459947
0.463602
0.464307
-0.440285
-0.429949
-0.391856
-0.332791
-0.262999
-0.186776
-0.105208
-0.019072
0.0705643
0.162245
0.249606
0.318879
0.367409
0.402174
0.427574
0.446339
0.45979
0.46812
0.471759
0.472379
-0.466617
-0.456196
-0.41719
-0.356354
-0.284329
-0.20551
-0.120939
-0.0313909
0.0620606
0.157927
0.249496
0.322146
0.372912
0.409045
0.435211
0.454368
0.467984
0.4763
0.479879
0.480477
-0.492162
-0.481581
-0.441714
-0.379286
-0.305269
-0.224117
-0.136831
-0.0441688
0.0528273
0.152696
0.248519
0.324788
0.378
0.4157
0.44281
0.462497
0.476366
0.484709
0.488165
0.488726
-0.517127
-0.506318
-0.465636
-0.401739
-0.32592
-0.242682
-0.152948
-0.0574483
0.0428342
0.146545
0.24663
0.326672
0.382626
0.422162
0.450425
0.47078
0.484968
0.493346
0.496666
0.497154
-0.541551
-0.530493
-0.489035
-0.423777
-0.346343
-0.261237
-0.169308
-0.0712352
0.0320759
0.139409
0.243675
0.3277
0.386731
0.428421
0.458057
0.479216
0.493768
0.50215
0.505304
0.505683
-0.565503
-0.554165
-0.511938
-0.445419
-0.366552
-0.27978
-0.185887
-0.0855111
0.0205479
0.131242
0.239593
0.327775
0.390204
0.434408
0.465689
0.487785
0.502727
0.511076
0.514004
0.514243
-0.588935
-0.577333
-0.534339
-0.466669
-0.386516
-0.29826
-0.202633
-0.100226
0.00828624
0.122063
0.234343
0.326734
0.392883
0.440031
0.473305
0.49649
0.51178
0.51996
0.522593
0.522689
-0.611881
-0.599958
-0.556201
-0.487485
-0.406185
-0.316625
-0.219485
-0.115297
-0.00462592
0.111922
0.227866
0.324445
0.394559
0.445128
0.48089
0.505395
0.520928
0.528701
0.530904
0.530847
-0.634114
-0.621978
-0.577474
-0.507813
-0.425495
-0.334787
-0.236352
-0.130629
-0.0180936
0.100878
0.220145
0.320793
0.395013
0.449446
0.488383
0.514699
0.530358
0.537256
0.538755
0.538525
-0.655768
-0.643329
-0.598109
-0.527608
-0.444394
-0.352688
-0.253132
-0.146129
-0.0320207
0.0890262
0.211207
0.315682
0.394014
0.452629
0.495545
0.524659
0.540704
0.545985
0.54606
0.54554
-0.676659
-0.663953
-0.618084
-0.546812
-0.462792
-0.370235
-0.269733
-0.16167
-0.0462876
0.076462
0.201115
0.309051
0.391371
0.454237
0.501819
0.535247
0.55309
0.556551
0.553541
0.551838
-0.696873
-0.683878
-0.637339
-0.565364
-0.480646
-0.387357
-0.286066
-0.177159
-0.0607698
0.0633414
0.189977
0.300859
0.386937
0.453818
0.506253
0.545532
0.567987
0.572391
0.5658
0.554548
-0.716292
-0.703097
-0.65596
-0.58343
-0.498177
-0.404348
-0.302485
-0.193027
-0.0759548
0.0491007
0.177198
0.290415
0.380094
0.450709
0.507492
0.553456
0.583463
0.592314
0.585323
0.579158
-0.734874
-0.721676
-0.673951
-0.600938
-0.515354
-0.421186
-0.318948