/*--------------------------------*- C++ -*----------------------------------*\
  =========                 |
  \\      /  F ield         | OpenFOAM: The Open Source CFD Toolbox
   \\    /   O peration     | Website:  https://openfoam.org
    \\  /    A nd           | Version:  6
     \\/     M anipulation  |
\*---------------------------------------------------------------------------*/
FoamFile
{
    version     2.0;
    format      ascii;
    class       surfaceScalarField;
    location    "99.9";
    object      phi;
}
// * * * * * * * * * * * * * * * * * * * * * * * * * * * * * * * * * * * * * //

dimensions      [0 3 -1 0 0 0 0];

internalField   nonuniform List<scalar> 
17370
(
-0.0899999
0.0898488
0.289162
-0.0714621
0.053752
0.364486
-0.0381187
0.0276895
0.426597
-0.0196376
0.0146046
0.504285
-0.0107628
0.00827255
0.601892
-0.00627306
0.00489663
0.720434
-0.0037326
0.0028918
0.863747
-0.00214998
0.00159056
1.03601
-0.00107368
0.00066101
1.24292
-0.000253609
-0.000144551
1.49159
0.000524459
-0.000934329
1.4916
0.00133119
-0.00181569
1.24317
0.00233785
-0.0030409
1.03634
0.00385525
-0.00500074
0.864052
0.00636757
-0.00836098
0.721051
0.0108466
-0.0146829
0.603051
0.0197098
-0.0277541
0.507483
0.0381754
-0.0537998
0.431792
0.0715014
-0.0898754
0.365149
0.0900163
0.198995
-0.128138
0.0882302
0.0399081
-0.364601
0.353383
-0.074668
0.085886
-0.446477
0.454323
-0.0843813
0.0765356
-0.521192
0.529905
-0.0684373
0.0597247
-0.612791
0.621571
-0.0515346
0.0427538
-0.726896
0.734168
-0.0352916
0.0280204
-0.867477
0.872595
-0.0224176
0.0172992
-1.03848
1.04193
-0.0134867
0.0100339
-1.2446
1.24704
-0.00742065
0.00498506
-1.49262
1.49461
-0.00303372
0.00104862
-1.49251
1.49423
0.000623007
-0.00234578
-1.24397
1.24586
0.00425473
-0.00614004
-1.03751
1.04003
0.00848875
-0.0110058
-0.866098
0.869825
0.0143515
-0.018079
-0.724388
0.729931
0.0231195
-0.0286621
-0.608696
0.616109
0.0358751
-0.0432875
-0.514895
0.523038
0.0520163
-0.0601592
-0.439855
0.447912
0.0688204
-0.0768777
-0.375294
0.376737
0.0846718
-0.0861148
-0.257328
0.222473
0.0748228
-0.0399675
-0.0685256
0.0587022
0.00982344
-0.0517961
0.0583742
-0.374134
0.367556
-0.0574541
0.0536986
-0.4536
0.457355
-0.0486058
0.0446504
-0.527953
0.531909
-0.0408071
0.0371648
-0.621571
0.625213
-0.0330588
0.0289785
-0.735357
0.739437
-0.0244024
0.0202373
-0.874349
0.878514
-0.015885
0.0121853
-1.0435
1.0472
-0.0084417
0.00526408
-1.24857
1.25175
-0.00193192
-0.00114468
-1.49666
1.49974
0.00419473
-0.00746266
-1.4972
1.50047
0.0105411
-0.0141361
-1.25006
1.25366
0.0176783
-0.0218566
-1.04592
1.05009
0.0258781
-0.0303149
-0.877751
0.882188
0.0342822
-0.0382757
-0.739891
0.743885
0.0418222
-0.0455668
-0.626765
0.63051
0.0494375
-0.0544496
-0.534803
0.539815
0.0581149
-0.0589222
-0.457467
0.458275
0.0522099
-0.0319989
-0.335739
0.315528
0.00989061
-0.0683363
0.0584457
-0.0529547
0.048963
0.00399176
-0.0331362
0.0436699
-0.358132
0.347598
-0.0473588
0.0467249
-0.4593
0.459933
-0.043663
0.0403051
-0.535817
0.539175
-0.0365267
0.033217
-0.628546
0.631855
-0.0297723
0.0267333
-0.742667
0.745706
-0.0234658
0.0203506
-0.882039
0.885154
-0.0168107
0.0134229
-1.05079
1.05418
-0.00962102
0.00607546
-1.25518
1.25873
-0.00209973
-0.00170233
-1.50325
1.50705
0.00547151
-0.00934712
-1.50413
1.508
0.0127517
-0.0163485
-1.2574
1.261
0.019519
-0.022816
-1.0539
1.0572
0.0257264
-0.0287907
-0.885667
0.888731
0.0316624
-0.0349399
-0.747136
0.750414
0.0381083
-0.0417434
-0.634287
0.637922
0.0449788
-0.0479004
-0.544118
0.547039
0.0483855
-0.0444869
-0.456551
0.452652
0.0337017
-0.0162354
-0.296148
0.278682
0.00407579
-0.0526218
0.048546
-0.0458899
0.0433994
0.00249047
-0.0227709
0.0331314
-0.336924
0.326563
-0.0389367
0.0399428
-0.459627
0.458621
-0.0387431
0.0364492
-0.541902
0.544196
-0.0337738
0.0311699
-0.634915
0.637519
-0.0280971
0.0251878
-0.748761
0.75167
-0.021911
0.0189055
-0.888116
0.891121
-0.0155875
0.0124767
-1.05732
1.06043
-0.00893906
0.00552101
-1.2622
1.26561
-0.0015497
-0.00234024
-1.51094
1.51483
0.00618587
-0.0100231
-1.51189
1.51572
0.0132541
-0.0165229
-1.26444
1.26771
0.0193497
-0.0223496
-1.06029
1.06329
0.025083
-0.0280865
-0.891768
0.894771
0.0307678
-0.0336112
-0.753609
0.756452
0.0360209
-0.0385023
-0.640977
0.643459
0.0406306
-0.0416113
-0.548831
0.549812
0.0403745
-0.0342311
-0.447354
0.441211
0.0234993
-0.0102566
-0.26344
0.250198
0.00259454
-0.0453769
0.0427824
-0.0413303
0.0395696
0.00176071
-0.0166999
0.0259251
-0.316733
0.307508
-0.0325057
0.0346283
-0.457037
0.454914
-0.0341934
0.0325123
-0.546184
0.547865
-0.0303209
0.0282152
-0.639836
0.641942
-0.0257711
0.0233602
-0.754327
0.756738
-0.0204854
0.0176803
-0.894029
0.896834
-0.0144263
0.0113414
-1.06349
1.06657
-0.00783517
0.00449655
-1.26894
1.27228
-0.000652457
-0.00308852
-1.51862
1.52236
0.00677274
-0.0104452
-1.51945
1.52312
0.0135448
-0.0167085
-1.27095
1.27411
0.019432
-0.0222799
-1.06631
1.06916
0.0247348
-0.0272554
-0.897564
0.900084
0.0293704
-0.0315176
-0.758887
0.761034
0.0333743
-0.0353151
-0.645599
0.64754
0.0367553
-0.0368922
-0.550312
0.550449
0.0344149
-0.0273376
-0.434516
0.427438
0.0176108
-0.0074337
-0.238635
0.228458
0.00188801
-0.0405957
0.0387077
-0.038055
0.0367338
0.00132122
-0.0127261
0.0206361
-0.298947
0.291037
-0.0273497
0.0302457
-0.452378
0.449482
-0.0304291
0.0292925
-0.549311
0.550448
-0.0272854
0.0253544
-0.643993
0.645924
-0.0231367
0.0209809
-0.758992
0.761148
-0.0184433
0.015938
-0.899423
0.901929
-0.0129709
0.0100692
-1.06953
1.07243
-0.00668395
0.00342371
-1.27555
1.27881
0.000340121
-0.00398012
-1.52601
1.52965
0.00754882
-0.0110962
-1.5267
1.53025
0.014056
-0.0170123
-1.27724
1.2802
0.019463
-0.0219232
-1.07189
1.07435
0.0239899
-0.0260814
-0.902345
0.904436
0.0278628
-0.0297038
-0.762999
0.764839
0.0313199
-0.0330216
-0.649343
0.651045
0.0338069
-0.0332054
-0.550214
0.549612
0.0298007
-0.0224052
-0.420141
0.412746
0.0138492
-0.00577678
-0.219432
0.21136
0.00147623
-0.0370498
0.0355735
-0.0355821
0.0345677
0.00101438
-0.00991389
0.016582
-0.283775
0.277107
-0.0230143
0.0263491
-0.44635
0.443015
-0.0270992
0.0263768
-0.551375
0.552098
-0.0245976
0.0227943
-0.64784
0.649643
-0.0207003
0.0186587
-0.763241
0.765283
-0.0162562
0.0138989
-0.904287
0.906645
-0.0111265
0.00841101
-1.07517
1.07788
-0.0052216
0.00211058
-1.28196
1.28507
0.00152312
-0.00505188
-1.53322
1.53674
0.00849238
-0.0118578
-1.53368
1.53704
0.0145975
-0.017258
-1.28306
1.28572
0.0194182
-0.0215663
-1.07671
1.07886
0.0233814
-0.0252304
-0.90638
0.908229
0.0268072
-0.0284333
-0.766563
0.768189
0.0298457
-0.0312
-0.652603
0.653958
0.0314866
-0.0301424
-0.548645
0.547301
0.0261051
-0.0187731
-0.405351
0.398019
0.0112917
-0.00468286
-0.204085
0.197477
0.00120303
-0.0342478
0.0330448
-0.0336802
0.0328947
0.000785541
-0.00782237
0.0134053
-0.271013
0.26543
-0.0193358
0.0228523
-0.439584
0.436067
-0.0240663
0.0235838
-0.55274
0.553223
-0.0220644
0.0203649
-0.651452
0.653151
-0.0183587
0.0163953
-0.767278
0.769242
-0.0140762
0.0117984
-0.908891
0.911169
-0.00912071
0.00650797
-1.08047
1.08308
-0.0034522
0.000478197
-1.28806
1.29104
0.00298996
-0.0063491
-1.54016
1.54352
0.0095997
-0.0127384
-1.54026
1.54339
0.0152576
-0.0176665
-1.2883
1.29071
0.0196006
-0.0215153
-1.08097
1.08289
0.023128
-0.0247663
-0.909952
0.911591
0.0261582
-0.0275885
-0.769706
0.771136
0.0287986
-0.0297625
-0.655116
0.65608
0.0296702
-0.0276454
-0.545603
0.543579
0.0231889
-0.0161024
-0.390798
0.383712
0.00950798
-0.003931
-0.19143
0.185853
0.00101492
-0.0319458
0.0309309
-0.0322087
0.0316016
0.000607143
-0.00620116
0.0108542
-0.260343
0.25569
-0.016176
0.0196754
-0.432565
0.429065
-0.0211969
0.020931
-0.553643
0.553909
-0.0196343
0.0179885
-0.654881
0.656526
-0.0160302
0.0141077
-0.771172
0.773095
-0.0118374
0.00960869
-0.91334
0.915569
-0.0069892
0.0044377
-1.08558
1.08814
-0.00146322
-0.0014134
-1.29391
1.29678
0.00473872
-0.00792793
-1.54675
1.54994
0.0109847
-0.0139084
-1.54637
1.5493
0.0162316
-0.0184193
-1.29308
1.29527
0.0201458
-0.0218376
-1.08479
1.08648
0.0232548
-0.0246911
-0.9131
0.914537
0.0259117
-0.0271622
-0.772463
0.773714
0.0282283
-0.028769
-0.656841
0.657381
0.0282784
-0.0256718
-0.541254
0.538647
0.0209449
-0.0141621
-0.37678
0.369997
0.00825931
-0.00341195
-0.180675
0.175828
0.000885816
-0.0299884
0.0291025
-0.0310765
0.0306149
0.000461601
-0.00488862
0.00873615
-0.25147
0.247622
-0.0134036
0.0167357
-0.425665
0.422333
-0.0184227
0.0183359
-0.55414
0.554227
-0.0172214
0.0156035
-0.658234
0.659852
-0.0136574
0.0117394
-0.774996
0.776914
-0.00947563
0.00725981
-0.917696
0.919911
-0.00466525
0.00214813
-1.09058
1.0931
0.000772898
-0.00357997
-1.29956
1.30237
0.00679708
-0.0098484
-1.55301
1.55606
0.0127386
-0.0154677
-1.55206
1.55479
0.0176035
-0.0195708
-1.29743
1.2994
0.021089
-0.0225608
-1.08818
1.08965
0.0237925
-0.0250435
-0.915845
0.917096
0.0261108
-0.0271987
-0.774865
0.775953
0.0280533
-0.0282235
-0.657722
0.657892
0.0273035
-0.0241898
-0.53578
0.532667
0.0192815
-0.0127863
-0.363371
0.356875
0.00739995
-0.00306145
-0.171263
0.166925
0.000800269
-0.0282665
0.0274662
-0.030224
0.0298866
0.000337438
-0.00378119
0.00691721
-0.244159
0.241023
-0.0109166
0.0139695
-0.419165
0.416112
-0.0156929
0.0157459
-0.554312
0.554259
-0.0147013
0.0131444
-0.661525
0.663082
-0.0111805
0.00923228
-0.778821
0.780769
-0.00693424
0.00469368
-0.92203
0.924271
-0.00208375
-0.000433342
-1.09552
1.09803
0.00333482
-0.00610158
-1.30509
1.30786
0.0092427
-0.0121856
-1.559
1.56195
0.0149335
-0.0174838
-1.55736
1.55991
0.0194394
-0.0211892
-1.30135
1.3031
0.022501
-0.0237572
-1.09115
1.09241
0.0248087
-0.0258806
-0.918216
0.919288
0.0268016
-0.0277291
-0.77693
0.777857
0.028321
-0.0281875
-0.657909
0.657776
0.0267879
-0.0231976
-0.529316
0.525726
0.0181418
-0.0118703
-0.350511
0.34424
0.00684387
-0.00284173
-0.162779
0.158777
0.000748933
-0.026698
0.0259491
-0.029613
0.0293875
0.000225573
-0.00280235
0.00529205
-0.238237
0.235748
-0.00862144
0.0113102
-0.413273
0.410585
-0.0129536
0.0130705
-0.554254
0.554138
-0.0120555
0.0105268
-0.664721
0.666249
-0.0085191
0.00650913
-0.782711
0.784721
-0.00413844
0.00183586
-0.926418
0.92872
0.000832359
-0.0033891
-1.10046
1.10302
0.00631356
-0.00907592
-1.31054
1.31331
0.0121751
-0.0150354
-1.56479
1.56765
0.01766
-0.0200459
-1.56229
1.56468
0.0218298
-0.0233665
-1.30486
1.3064
0.0244712
-0.0255089
-1.09372
1.09476
0.0263753
-0.0272583
-0.920222
0.921105
0.0280189
-0.0287784
-0.778615
0.779374
0.0290848
-0.0286031
-0.65751
0.657029
0.0267352
-0.0226877
-0.521929
0.517881
0.017478
-0.0113378
-0.338059
0.331919
0.00653118
-0.00272567
-0.154896
0.15109
0.000724601
-0.0252184
0.0244938
-0.0292228
0.0291045
0.000118299
-0.0018878
0.00376674
-0.233589
0.23171
-0.00641853
0.00867081
-0.408153
0.405901
-0.0101247
0.0102252
-0.554129
0.554029
-0.00920306
0.00766092
-0.667898
0.66944
-0.00557804
0.00347298
-0.786726
0.788831
-0.00099017
-0.0014119
-0.930929
0.933331
0.00418092
-0.00681695
-1.10549
1.10813
0.00980746
-0.0126025
-1.316
1.3188
0.0156955
-0.0184999
-1.57041
1.57322
0.0210204
-0.0232547
-1.56688
1.56912
0.0248721
-0.0261954
-1.30796
1.30928
0.0270933
-0.027908
-1.09587
1.09668
0.0285799
-0.0292643
-0.921843
0.922527
0.0298678
-0.0304786
-0.779952
0.780563
0.03042
-0.0295217
-0.656371
0.655473
0.0271612
-0.0226464
-0.513636
0.509121
0.017245
-0.0111303
-0.325821
0.319706
0.00641858
-0.00269401
-0.147347
0.143622
0.000722261
-0.0237763
0.023054
-0.0290477
0.0290382
9.52075e-06
-0.000988246
0.00226765
-0.230155
0.228876
-0.00422474
0.00597476
-0.403944
0.402194
-0.00713485
0.00713585
-0.554104
0.554103
-0.00605729
0.00445949
-0.671142
0.67274
-0.00225853
2.13731e-05
-0.790932
0.793169
0.00261752
-0.00516112
-0.935641
0.938185
0.00807819
-0.0108366
-1.11069
1.11345
0.0139392
-0.0168063
-1.32153
1.3244
0.0199318
-0.022709
-1.57593
1.57871
0.0251449
-0.0272377
-1.57116
1.57325
0.0286922
-0.0298068
-1.31065
1.31176
0.0304976
-0.0310874
-1.09758
1.09817
0.0315584
-0.0320304
-0.92306
0.923532
0.0324464
-0.0327843
-0.780901
0.781239
0.0324217
-0.031024
-0.654392
0.652994
0.0281287
-0.0231003
-0.504398
0.49937
0.0174352
-0.0112227
-0.313577
0.307365
0.00648544
-0.00273731
-0.139907
0.136159
0.000739424
-0.0223292
0.0215898
-0.0290896
0.0291936
-0.000103987
-5.18984e-05
0.000723828
-0.227921
0.227249
-0.00195611
0.00313736
-0.400777
0.399596
-0.00390168
0.0037174
-0.554358
0.554542
-0.00252217
0.000808693
-0.674547
0.676261
0.00155097
-0.00396509
-0.795402
0.797816
0.00681105
-0.00954368
-0.940637
0.94337
0.0126616
-0.0155905
-1.11614
1.11907
0.0188559
-0.0218376
-1.32722
1.3302
0.0250356
-0.027815
-1.5814
1.58418
0.0301863
-0.0321474
-1.57514
1.5771
0.0334417
-0.0343465
-1.31292
1.31382
0.0348247
-0.0351773
-1.09885
1.0992
0.0354377
-0.0356887
-0.923843
0.924094
0.035895
-0.0358892
-0.781273
0.781267
0.0351767
-0.0331951
-0.651394
0.649413
0.0296947
-0.0240724
-0.494108
0.488485
0.0180437
-0.0115971
-0.301075
0.294628
0.00671607
-0.00284754
-0.132373
0.128504
0.000773628
-0.0208394
0.0200658
-0.0293684
0.0296083
-0.000239877
0.000916551
-0.000917741
-0.226917
0.226918
0.000471403
6.45065e-05
-0.398786
0.398251
-0.000328906
-0.000133558
-0.555077
0.55554
0.00151679
-0.00340724
-0.678237
0.680127
0.00598628
-0.00862946
-0.800223
0.802866
0.011741
-0.0147173
-0.946015
0.948991
0.0180966
-0.02125
-1.12194
1.1251
0.0247339
-0.0278762
-1.33314
1.33629
0.0311885
-0.0339965
-1.58688
1.58968
0.0363146
-0.0381523
-1.57884
1.58067
0.0392959
-0.0399876
-1.31474
1.31543
0.0402389
-0.040334
-1.09963
1.09972
0.0403644
-0.0403783
-0.924161
0.924175
0.0403933
-0.039937
-0.780951
0.780495
0.0387887
-0.0361234
-0.647222
0.644557
0.0319198
-0.0255873
-0.482586
0.476253
0.0190683
-0.0122385
-0.288033
0.281203
0.00709627
-0.0030168
-0.124552
0.120472
0.000822247
-0.0192738
0.0184515
-0.0299187
0.0303052
-0.000386552
0.00201886
-0.00264903
-0.227237
0.227867
0.00307726
-0.00331191
-0.398118
0.398352
0.00370339
-0.00455231
-0.556491
0.55734
0.00618938
-0.00832838
-0.68234
0.684479
0.0112029
-0.0141434
-0.805499
0.808439
0.0175927
-0.020878
-0.951887
0.955172
0.0245889
-0.0280282
-1.12821
1.13165
0.0317926
-0.0351438
-1.3394
1.34275
0.0386115
-0.0414712
-1.59241
1.59527
0.0437408
-0.0454415
-1.58224
1.58394
0.0464173
-0.0469018
-1.3161
1.31659
0.0469219
-0.0467427
-1.09988
1.0997
0.0465278
-0.0462929
-0.923963
0.923728
0.0460704
-0.0451008
-0.77975
0.778781
0.0434107
-0.0399214
-0.641676
0.638187
0.0348747
-0.0276717
-0.469582
0.462379
0.0205076
-0.0131319
-0.274148
0.266772
0.00761117
-0.00323634
-0.116267
0.111892
0.000882273
-0.017605
0.0167227
-0.0307715
0.0313359
-0.000564416
0.00330453
-0.00474331
-0.228935
0.230374
0.00609475
-0.00714503
-0.398982
0.400033
0.00829192
-0.00965242
-0.558831
0.560191
0.0116808
-0.0141523
-0.686998
0.689469
0.0174116
-0.0207269
-0.811364
0.814679
0.0245968
-0.0282661
-0.958387
0.962056
0.032388
-0.0361806
-1.13506
1.13885
0.0402902
-0.0438985
-1.34609
1.34969
0.0475596
-0.0504897
-1.59805
1.60098
0.0527137
-0.0542661
-1.58534
1.58689
0.0550618
-0.0553207
-1.31698
1.31724
0.0550911
-0.0546172
-1.09957
1.0991
0.0541442
-0.0536301
-0.923219
0.922705
0.0530147
-0.0515608
-0.777613
0.776159
0.0491664
-0.0446838
-0.634466
0.629983
0.0386149
-0.0303374
-0.454755
0.446478
0.0223458
-0.0142509
-0.259089
0.250994
0.00823745
-0.00349299
-0.107354
0.102609
0.000949221
-0.0158122
0.014863
-0.0319938
0.0327909
-0.000797081
0.00487169
-0.00722627
-0.232267
0.234621
0.00965358
-0.0116362
-0.40158
0.403563
0.0136711
-0.0156707
-0.562339
0.564338
0.0182273
-0.0211288
-0.692385
0.695287
0.0248885
-0.0286684
-0.81798
0.82176
0.0330581
-0.0371996
-0.96567
0.969812
0.0418227
-0.0460406
-1.14263
1.14685
0.0505595
-0.054466
-1.35329
1.3572
0.0583438
-0.0613442
-1.60382
1.60682
0.0635046
-0.0648833
-1.5881
1.58948
0.0654686
-0.0654688
-1.31729
1.31729
0.0649763
-0.0641821
-1.09865
1.09786
0.0634352
-0.0626519
-0.921872
0.921089
0.0615314
-0.0594827
-0.774554
0.772506
0.0562259
-0.050509
-0.625216
0.619499
0.0431757
-0.033565
-0.437674
0.428064
0.0245367
-0.0155446
-0.242506
0.233514
0.00893551
-0.00376585
-0.0976707
0.092501
0.00101634
-0.0138845
0.0128681
-0.0336809
0.0347817
-0.00110075
0.00684103
-0.0102964
-0.237454
0.240909
0.0139989
-0.0170696
-0.406213
0.409284
0.0201209
-0.0228841
-0.56731
0.570073
0.0261234
-0.0295876
-0.698724
0.702188
0.0339916
-0.0383575
-0.825535
0.829901
0.0433881
-0.0481013
-0.973917
0.97863
0.0533208
-0.0580335
-1.15107
1.15578
0.0630134
-0.0672388
-1.36108
1.36531
0.0713251
-0.0743631
-1.60971
1.61275
0.0764163
-0.0775755
-1.59046
1.59162
0.0779129
-0.0776116
-1.31693
1.31663
0.0768326
-0.0756831
-1.09706
1.09591
0.0746549
-0.0735745
-0.919939
0.918859
0.0718886
-0.0690822
-0.770358
0.767551
0.0647172
-0.0574301
-0.613427
0.60614
0.0485178
-0.0372634
-0.417803
0.406548
0.0269736
-0.0169192
-0.224048
0.213994
0.00963948
-0.00402276
-0.0871221
0.0815054
0.00107388
-0.0118259
0.010752
-0.035966
0.0374845
-0.00151848
0.00943025
-0.0142549
-0.244848
0.249673
0.0194701
-0.0237944
-0.413237
0.417562
0.0280194
-0.0317013
-0.574073
0.577755
0.0358064
-0.0400189
-0.706292
0.710505
0.0452386
-0.0503364
-0.834269
0.839367
0.0561473
-0.061538
-0.983329
0.98872
0.0674417
-0.0726975
-1.1605
1.16576
0.0781532
-0.0826763
-1.36949
1.37401
0.0869117
-0.0899041
-1.61562
1.61861
0.0917579
-0.0926054
-1.59231
1.59315
0.0926356
-0.0920309
-1.31583
1.31522
0.0908833
-0.0893639
-1.09475
1.09323
0.0880485
-0.0864882
-0.917278
0.915717
0.0842889
-0.0804409
-0.764628
0.76078
0.0746568
-0.0653706
-0.598403
0.589117
0.054487
-0.0412333
-0.394506
0.381252
0.0294615
-0.0182226
-0.203404
0.192165
0.0102507
-0.00421894
-0.0756885
0.0696568
0.00110911
-0.0096613
0.00855219
-0.0390574
0.0411801
-0.00212275
0.0129983
-0.0195755
-0.254954
0.261531
0.0266113
-0.032397
-0.423141
0.428927
0.0379926
-0.0427952
-0.583015
0.587817
0.0479718
-0.0531373
-0.715477
0.720642
0.0594212
-0.0654264
-0.844469
0.850475
0.0721575
-0.0783091
-0.994115
1.00027
0.0849392
-0.0907284
-1.17099
1.17678
0.0965965
-0.101317
-1.37843
1.38315
0.105554
-0.108344
-1.62135
1.62414
0.109846
-0.110242
-1.59342
1.59382
0.109877
-0.108875
-1.31392
1.31291
0.107343
-0.105439
-1.09171
1.0898
0.103826
-0.101715
-0.913521
0.91141
0.0988838
-0.0936287
-0.756769
0.751514
0.085951
-0.0740842
-0.579243
0.567377
0.0607484
-0.0451183
-0.367077
0.351447
0.0316897
-0.0192357
-0.180372
0.167918
0.0106379
-0.00429936
-0.0634696
0.0571311
0.00110758
-0.00744188
0.0063343
-0.0432932
0.0463475
-0.00305437
0.0181813
-0.0270554
-0.268521
0.277395
0.0363207
-0.0438656
-0.436607
0.444152
0.0510973
-0.0572438
-0.594643
0.600789
0.0638419
-0.0703328
-0.726705
0.733196
0.0778716
-0.0848888
-0.856455
0.863473
0.0925999
-0.0995056
-1.00641
1.01332
0.106781
-0.112967
-1.18248
1.18866
0.11904
-0.123734
-1.38764
1.39233
0.127706
-0.130047
-1.62654
1.62888
0.130978
-0.130735
-1.59351
1.59327
0.129831
-0.128309
-1.31103
1.30951
0.126397
-0.124079
-1.08785
1.08554
0.12203
-0.119398
-0.908493
0.905861
0.115574
-0.108404
-0.745979
0.738809
0.0982081
-0.0830379
-0.554749
0.539579
0.066707
-0.0483647
-0.334808
0.316466
0.0332213
-0.0196825
-0.154971
0.141432
0.0106508
-0.004207
-0.0507277
0.0442839
0.00105573
-0.00524659
0.00419086
-0.0492651
0.0538927
-0.00462759
0.0262054
-0.0381777
-0.286731
0.298703
0.0503178
-0.0602172
-0.454734
0.464633
0.0694975
-0.0772668
-0.609532
0.617301
0.085596
-0.0936228
-0.740482
0.748509
0.102519
-0.110525
-0.870436
0.878442
0.119074
-0.12651
-1.02011
1.02755
0.134102
-0.140337
-1.19457
1.20081
0.146204
-0.15049
-1.39659
1.40087
0.153785
-0.155327
-1.63065
1.63219
0.155391
-0.154263
-1.59219
1.59106
0.152657
-0.15052
-1.30691
1.30478
0.14817
-0.145359
-1.08307
1.08026
0.142856
-0.13951
-0.902058
0.898713
0.134212
-0.124266
-0.731086
0.721141
0.110661
-0.0913183
-0.523419
0.504076
0.0714588
-0.050237
-0.297157
0.275935
0.0335431
-0.0192843
-0.1276
0.113341
0.010157
-0.00389828
-0.0379159
0.0316572
0.000943238
-0.00317696
0.00223372
-0.0580975
0.0659937
-0.00789622
0.0402571
-0.0568
-0.311785
0.328328
0.0729891
-0.0860181
-0.479124
0.492153
0.097436
-0.106776
-0.628203
0.637543
0.116818
-0.126262
-0.757036
0.76648
0.136236
-0.144765
-0.886161
0.89469
0.153516
-0.160852
-1.0346
1.04193
0.168078
-0.173734
-1.20646
1.21211
0.178755
-0.182047
-1.40442
1.40771
0.184108
-0.184381
-1.63291
1.63319
0.183198
-0.180904
-1.58894
1.58665
0.178401
-0.175526
-1.30132
1.29844
0.172652
-0.169273
-1.07717
1.07379
0.166164
-0.161658
-0.893587
0.889081
0.1541
-0.140111
-0.710215
0.696226
0.121866
-0.0974826
-0.483413
0.45903
0.0738683
-0.0500297
-0.254067
0.230228
0.0322871
-0.0179205
-0.0991954
0.0848287
0.00912527
-0.00336864
-0.0256573
0.0199007
0.000765338
-0.00134259
0.000577254
-0.0733237
0.0777834
-0.0044597
0.0308981
-0.0454125
-0.347714
0.362229
0.0599625
-0.0719769
-0.511076
0.523091
0.0829672
-0.0934524
-0.650492
0.660977
0.105445
-0.116492
-0.775245
0.786292
0.128841
-0.139905
-0.902218
0.913282
0.151835
-0.1626
-1.04839
1.05915
0.174099
-0.184217
-1.21676
1.22687
0.194671
-0.203448
-1.40993
1.41871
0.211937
-0.218338
-1.63237
1.63877
0.22268
-0.225665
-1.58315
1.58614
0.22734
-0.228592
-1.29394
1.29519
0.229359
-0.228845
-1.06971
1.06919
0.227341
-0.222039
-0.88165
0.876349
0.210097
-0.187229
-0.680629
0.657761
0.157714
-0.120625
-0.433177
0.396088
0.0874346
-0.0561906
-0.206446
0.175202
0.0346514
-0.0183625
-0.0713174
0.0550284
0.00889803
-0.00306652
-0.0146329
0.00880141
0.00061773
0.000201043
-0.000818773
-0.0855781
0.0836923
0.00188584
0.00870377
-0.0182966
-0.379672
0.389265
0.0294859
-0.0383049
-0.540038
0.548857
0.047327
-0.056183
-0.674224
0.68308
0.0671416
-0.0774614
-0.796769
0.807089
0.0886103
-0.0988567
-0.923772
0.934018
0.109897
-0.119526
-1.06968
1.07931
0.130033
-0.138943
-1.23686
1.24577
0.148181
-0.15576
-1.42729
1.43487
0.162792
-0.168048
-1.64467
1.64992
0.171437
-0.17356
-1.5886
1.59073
0.174298
-0.174697
-1.29478
1.29518
0.174824
-0.173992
-1.06682
1.06599
0.171233
-0.163608
-0.865568
0.857943
0.149767
-0.127029
-0.630513
0.607775
0.101275
-0.0724011
-0.356741
0.327867
0.0494721
-0.0301423
-0.1452
0.12587
0.0177768
-0.00902366
-0.0400784
0.0313253
0.00416585
-0.00135158
-0.00328806
0.000473789
0.000229087
0.00162
-0.00184908
-0.0873178
0.0843429
0.00297496
-0.000590778
-0.00507479
-0.401648
0.407313
0.0126183
-0.0192515
-0.561829
0.568462
0.0261012
-0.0337466
-0.69452
0.702165
0.0433142
-0.0523094
-0.816325
0.82532
0.0622487
-0.0712382
-0.943452
0.952441
0.0807038
-0.0893815
-1.08881
1.09749
0.0986718
-0.106692
-1.25432
1.26234
0.114617
-0.121041
-1.44193
1.44835
0.127174
-0.131496
-1.65478
1.6591
0.134046
-0.135425
-1.5924
1.59378
0.135605
-0.135555
-1.29435
1.2943
0.134945
-0.133597
-1.06218
1.06084
0.130042
-0.12125
-0.846056
0.837264
0.107324
-0.0865935
-0.581811
0.561081
0.0655628
-0.0443729
-0.297264
0.276074
0.0293607
-0.017616
-0.106924
0.0951797
0.0103508
-0.00529795
-0.0227959
0.017743
0.00248007
-0.000820658
0.00251355
-0.00417296
0.000147327
0.00227831
-0.00242563
-0.0861222
0.0832395
0.00288277
-0.00472082
0.00176969
-0.416544
0.419495
0.00322338
-0.00831982
-0.578339
0.583436
0.014152
-0.0205908
-0.711274
0.717713
0.0288209
-0.0365651
-0.833521
0.841265
0.0450928
-0.0528422
-0.960857
0.968606
0.0614105
-0.0688551
-1.10573
1.11317
0.0770359
-0.0836646
-1.26997
1.2766
0.0905997
-0.096179
-1.45462
1.4602
0.101267
-0.104543
-1.66318
1.66646
0.106576
-0.107574
-1.59476
1.59576
0.107445
-0.106624
-1.29327
1.29245
0.105565
-0.103669
-1.05624
1.05435
0.0995934
-0.0909037
-0.824553
0.815863
0.0778758
-0.0604463
-0.537812
0.520382
0.0443087
-0.0295289
-0.253895
0.239115
0.0195971
-0.012032
-0.0828433
0.0752782
0.00728538
-0.00388358
-0.0122477
0.00884594
0.00190724
-0.000670939
0.006135
-0.0073713
0.000134417
0.00270554
-0.00283995
-0.0845841
0.0819689
0.00261524
-0.00631015
0.00507789
-0.42665
0.427883
-0.00129862
-0.00255714
-0.591643
0.595498
0.00725208
-0.0130379
-0.725381
0.731167
0.019946
-0.026731
-0.848181
0.854966
0.0341136
-0.0408461
-0.975864
0.982597
0.048211
-0.0548063
-1.12046
1.12705
0.0617723
-0.067763
-1.28307
1.28906
0.0737282
-0.0784664
-1.46541
1.47015
0.0826852
-0.0852465
-1.66967
1.67223
0.0866982
-0.0870222
-1.59615
1.59648
0.0865619
-0.0855227
-1.29108
1.29004
0.0840617
-0.0815276
-1.04949
1.04696
0.0774214
-0.0692572
-0.803391
0.795227
0.0580409
-0.0439184
-0.500856
0.486734
0.0318828
-0.0214955
-0.223042
0.212655
0.0146105
-0.00936593
-0.0668567
0.0616122
0.00595453
-0.00334136
-0.00486188
0.00224871
0.00173196
-0.000644097
0.00890562
-0.00999348
0.000145482
0.00306409
-0.00320957
-0.0830351
0.0807346
0.0023005
-0.00659676
0.00600301
-0.433614
0.434207
-0.00370724
0.000572516
-0.601943
0.605078
0.00391626
-0.00883546
-0.73731
0.742229
0.0147309
-0.0205744
-0.860838
0.866681
0.0270678
-0.0330203
-0.988926
0.994879
0.0396581
-0.0453767
-1.13332
1.13904
0.0515251
-0.0567868
-1.2947
1.29997
0.0619121
-0.0659018
-1.47457
1.47856
0.0693041
-0.0715564
-1.67472
1.67697
0.0723969
-0.0724017
-1.59639
1.59639
0.0715915
-0.0702106
-1.28847
1.28708
0.0686561
-0.0656372
-1.04217
1.03915
0.0614619
-0.0542009
-0.783553
0.776291
0.0447313
-0.0335333
-0.470697
0.459499
0.0245663
-0.0170779
-0.200901
0.193413
0.0121837
-0.0082735
-0.0554007
0.0514905
0.00553442
-0.00327713
0.000951715
-0.003209
0.00177884
-0.000702341
0.0113243
-0.0124008
0.000170796
0.00339917
-0.00356996
-0.0817132
0.0798495
0.00186377
-0.00605232
0.00594825
-0.438669
0.438773
-0.00410971
0.00176906
-0.610828
0.613169
0.00232414
-0.00671984
-0.747556
0.751952
0.0122036
-0.0171729
-0.872035
0.877005
0.0227893
-0.0279741
-1.00074
1.00593
0.0340992
-0.0391466
-1.14472
1.14977
0.0444542
-0.0491809
-1.30496
1.30969
0.0540297
-0.0574014
-1.48248
1.48585
0.0602823
-0.0618523
-1.67877
1.68034
0.0624838
-0.061789
-1.59614
1.59544
0.0608287
-0.0593058
-1.28525
1.28373
0.057348
-0.0543029
-1.03452
1.03148
0.050148
-0.0435107
-0.765522
0.758885
0.0358234
-0.0269479
-0.446316
0.43744
0.0202094
-0.0148164
-0.184621
0.179228
0.0111335
-0.00801617
-0.0466281
0.0435107
0.00566018
-0.00352948
0.00603277
-0.00816348
0.00200543
-0.000832943
0.0137004
-0.0148729
0.000218836
0.00375582
-0.00397466
-0.0808091
0.0792924
0.00151673
-0.00523285
0.00541547
-0.442456
0.442274
-0.00382764
0.00169658
-0.6184
0.620531
0.0020602
-0.00594351
-0.7566
0.760484
0.0105639
-0.015224
-0.881852
0.886513
0.0202793
-0.025432
-1.01084
1.01599
0.0305695
-0.0351759
-1.15485
1.15945
0.0402962
-0.044434
-1.31419
1.31832
0.048338
-0.0516446
-1.489
1.49231
0.0540742
-0.0552696
-1.68185
1.68305
0.0553486
-0.0544967
-1.59484
1.59399
0.05322
-0.0513484
-1.2816
1.27973
0.0491973
-0.045922
-1.02699
1.02372
0.0418439
-0.0360528
-0.749257
0.743466
0.0294313
-0.0225259
-0.426681
0.419775
0.0175276
-0.013486
-0.17254
0.168499
0.0106479
-0.00810327
-0.039491
0.0369463
0.00597987
-0.00390865
0.0108046
-0.0128758
0.00232161
-0.00100973
0.0162379
-0.0175497
0.000283898
0.0041891
-0.00447299
-0.0803881
0.0790699
0.00131818
-0.00413147
0.00418902
-0.44558
0.445522
-0.0029188
0.000906576
-0.625146
0.627158
0.00247058
-0.00613439
-0.764824
0.768488
0.0104437
-0.0145555
-0.890901
0.895012
0.0195701
-0.0237265
-1.02047
1.02463
0.0286108
-0.0327998
-1.16414
1.16833
0.0374871
-0.0414781
-1.32232
1.32631
0.0452366
-0.0478245
-1.49521
1.4978
0.0499534
-0.0508367
-1.68399
1.68487
0.0508032
-0.0494281
-1.59282
1.59145
0.0478588
-0.0456218
-1.27767
1.27544
0.0432073
-0.0396145
-1.01916
1.01556
0.0356244
-0.0302238
-0.7347
0.7293
0.0246664
-0.0191741
-0.411019
0.405526
0.015344
-0.0123837
-0.163283
0.160323
0.0101546
-0.0080265
-0.0335141
0.0313861
0.00613708
-0.00417467
0.0153632
-0.0173256
0.00257058
-0.00117953
0.0189719
-0.0203629
0.000347172
0.00472175
-0.00506893
-0.0802048
0.0792193
0.000985529
-0.00310321
0.00276494
-0.448545
0.448883
-0.00175538
-0.000231515
-0.63094
0.632927
0.00318842
-0.00663435
-0.772297
0.775743
0.0106506
-0.0147766
-0.898931
0.903057
0.0190036
-0.023173
-1.02893
1.0331
0.027815
-0.0315651
-1.17286
1.17661
0.0360627
-0.0396914
-1.32997
1.3336
0.043079
-0.045743
-1.50065
1.50331
0.0477384
-0.0481938
-1.68558
1.68603
0.047593
-0.0460867
-1.59001
1.5885
0.0443029
-0.0416145
-1.27275
1.27006
0.0387417
-0.035045
-1.01102
1.00733
0.0305731
-0.0256249
-0.721186
0.716238
0.0208105
-0.0162852
-0.398359
0.393834
0.0133425
-0.0109935
-0.156093
0.153744
0.00922524
-0.00746779
-0.0284797
0.0267222
0.00586683
-0.00412528
0.0195954
-0.0213369
0.00263356
-0.00126263
0.0217891
-0.02316
0.000394188
0.00534119
-0.00573538
-0.0804073
0.0795988
0.000808534
-0.00221251
0.00197392
-0.451536
0.451774
-0.000510608
-0.00124846
-0.636631
0.63839
0.00431227
-0.00755377
-0.779071
0.782313
0.0113127
-0.0149229
-0.906794
0.910404
0.0191537
-0.0228621
-1.0372
1.04091
0.027272
-0.0312845
-1.18074
1.18476
0.0351512
-0.0388353
-1.33715
1.34083
0.0422802
-0.0445993
-1.50568
1.508
0.0463769
-0.0469406
-1.68647
1.68704
0.0460157
-0.0442713
-1.58655
1.58481
0.0419021
-0.0388476
-1.26707
1.26401
0.0356917
-0.0314736
-1.00246
0.998241
0.0269312
-0.0219768
-0.7086
0.703645
0.0175894
-0.013637
-0.387564
0.383612
0.0111285
-0.0092185
-0.150282
0.148372
0.00775989
-0.00637614
-0.0242903
0.0229065
0.00511531
-0.00370735
0.0232676
-0.0246756
0.00243732
-0.00121859
0.0244623
-0.025681
0.000400523
0.00600626
-0.00640679
-0.0809015
0.0802687
0.000632794
-0.00118134
0.000804858
-0.454547
0.454923
0.000454438
-0.00246979
-0.641775
0.64379
0.00541519
-0.00843982
-0.785442
0.788467
0.0122037
-0.0155786
-0.913948
0.917323
0.0195414
-0.0232612
-1.04505
1.04877
0.0274269
-0.0312372
-1.18853
1.19234
0.0351144
-0.0385837
-1.34431
1.34778
0.0418841
-0.0445933
-1.51044
1.51315
0.0462801
-0.0465023
-1.68726
1.68749
0.0455306
-0.0432511
-1.5826
1.58032
0.0406629
-0.0373298
-1.26053
1.2572
0.0335157
-0.0288645
-0.993106
0.988455
0.0240248
-0.0188687
-0.696407
0.691251
0.0147386
-0.0110839
-0.378147
0.374492
0.00886916
-0.007163
-0.145365
0.143659
0.00598627
-0.00493943
-0.0208781
0.0198313
0.00402764
-0.00300536
0.0262059
-0.0272282
0.00203761
-0.00106859
0.0267407
-0.0277097
0.00038226
0.00663936
-0.00702162
-0.0816326
0.0811242
0.000508409
-0.000331816
-0.000132116
-0.457631
0.458095