/*--------------------------------*- C++ -*----------------------------------*\
  =========                 |
  \\      /  F ield         | OpenFOAM: The Open Source CFD Toolbox
   \\    /   O peration     | Website:  https://openfoam.org
    \\  /    A nd           | Version:  6
     \\/     M anipulation  |
\*---------------------------------------------------------------------------*/
FoamFile
{
    version     2.0;
    format      ascii;
    class       surfaceScalarField;
    location    "58";
    object      phi;
}
// * * * * * * * * * * * * * * * * * * * * * * * * * * * * * * * * * * * * * //

dimensions      [0 3 -1 0 0 0 0];

internalField   nonuniform List<scalar> 
4262
(
0.106784
0.471204
0.0924982
0.707872
0.0647303
0.860071
0.0422999
1.02119
0.0262833
1.21453
0.0161981
1.4483
0.00991079
1.73215
0.00569015
2.07526
0.00243722
2.4885
-0.000471976
2.9852
-0.00330902
2.98513
-0.0064376
2.48837
-0.010554
2.07515
-0.0167377
1.73205
-0.0266724
1.44815
-0.0425312
1.21438
-0.0648174
1.02105
-0.092486
0.859972
-0.106833
0.707933
0.471155
0.11481
0.356394
0.140016
0.682666
0.125393
0.874694
0.101853
1.04473
0.0736523
1.24273
0.0476124
1.47434
0.0271966
1.75257
0.0132428
2.08921
0.00476504
2.49697
-0.000975174
2.99094
-0.00660275
2.99076
-0.0153576
2.49713
-0.0291262
2.08892
-0.0492522
1.75217
-0.0751405
1.47404
-0.10331
1.24254
-0.126852
1.04459
-0.140789
0.873908
-0.115207
0.682352
0.355948
0.0916931
0.264701
0.126287
0.648072
0.124802
0.876179
0.110906
1.05863
0.0964154
1.25722
0.0765328
1.49423
0.0544078
1.77469
0.0328371
2.11078
0.0136629
2.51615
-0.00237792
3.00698
-0.0184417
3.00682
-0.0369015
2.51559
-0.0580788
2.1101
-0.0798134
1.77391
-0.0991507
1.49338
-0.112846
1.25624
-0.125912
1.05766
-0.127578
0.875574
-0.0923037
0.647077
0.263644
0.0628312
0.20187
0.104005
0.606898
0.106772
0.873412
0.0971983
1.0682
0.0860728
1.26835
0.0753963
1.5049
0.0605801
1.78951
0.0415999
2.12976
0.020247
2.5375
-0.00316792
3.0304
-0.0264285
3.03008
-0.0473544
2.53651
-0.0655185
2.12826
-0.0794823
1.78787
-0.0894843
1.50338
-0.100255
1.26701
-0.109552
1.06695
-0.106018
0.87204
-0.0637142
0.604774
0.19993
0.0370349
0.164835
0.0793854
0.564548
0.0897418
0.863055
0.0829608
1.07498
0.0717124
1.2796
0.0626705
1.51395
0.0524956
1.79968
0.0386017
2.14366
0.019684
2.55642
-0.00461109
3.05469
-0.0283729
3.05384
-0.0463833
2.55452
-0.0594433
2.14132
-0.0687919
1.79722
-0.0769633
1.51155
-0.0873861
1.27743
-0.0932122
1.07278
-0.0815742
0.860402
-0.0378108
0.56101
0.162119
0.0195512
0.145284
0.0566802
0.527419
0.0717459
0.84799
0.0692147
1.07752
0.0601307
1.28868
0.0500594
1.52402
0.0404682
1.80927
0.0292507
2.15487
0.0143708
2.5713
-0.00564329
3.07471
-0.0254458
3.07365
-0.0394206
2.5685
-0.0494221
2.15132
-0.057793
1.80559
-0.0668096
1.52057
-0.0747761
1.2854
-0.0761354
1.07414
-0.0593965
0.843663
-0.0204153
0.522029
0.141704
0.0107358
0.134548
0.0420397
0.496115
0.0575777
0.832452
0.0572423
1.07785
0.0502632
1.29566
0.040133
1.53415
0.0302549
1.81915
0.0200166
2.16511
0.00779558
2.58352
-0.00757742
3.09008
-0.0221519
3.08822
-0.0331465
2.57949
-0.0420529
2.16023
-0.0503637
1.8139
-0.059103
1.52931
-0.0645755
1.29087
-0.0633191
1.07288
-0.0455579
0.825901
-0.0118193
0.488291
0.129885
0.00665495
0.127893
0.0329224
0.469848
0.048669
0.816705
0.0495268
1.07699
0.0437711
1.30142
0.0345333
1.54339
0.024367
1.82932
0.0139008
2.17558
0.00288822
2.59453
-0.00922712
3.10219
-0.021054
3.10005
-0.030829
2.58927
-0.0393232
2.16872
-0.0474198
1.822
-0.0548422
1.53673
-0.0587546
1.29479
-0.0556824
1.06981
-0.0371076
0.807327
-0.00792408
0.459107
0.121961
0.00475326
0.12314
0.0266133
0.447988
0.0422567
0.801061
0.0440004
1.07525
0.0388876
1.30653
0.0306943
1.55158
0.0208282
1.83918
0.0100382
2.18637
-0.000948559
2.60552
-0.0119344
3.11318
-0.0218415
3.10995
-0.0308737
2.5983
-0.0396353
2.17749
-0.0474077
1.82977
-0.0534143
1.54274
-0.0561245
1.2975
-0.051345
1.06503
-0.0319378
0.787919
-0.00639295
0.433562
0.115568
0.00379801
0.119342
0.0217731
0.430013
0.0368966
0.785938
0.0396068
1.07254
0.0350746
1.31106
0.0273172
1.55934
0.0179743
1.84853
0.00754938
2.19679
-0.00334009
2.61641
-0.0145181
3.12436
-0.0250911
3.12053
-0.0340252
2.60723
-0.0414138
2.18487
-0.0477281
1.83609
-0.0525409
1.54755
-0.0539016
1.29886
-0.0477885
1.05892
-0.0281203
0.768251
-0.00574418
0.411186
0.109823
0.00304763
0.116294
0.0175017
0.415559
0.031307
0.772133
0.034199
1.06965
0.0301621
1.3151
0.023279
1.56622
0.0148829
1.85692
0.00495016
2.20673
-0.00634567
2.6277
-0.0181765
3.13619
-0.0284977
3.13085
-0.0370692
2.61581
-0.0440735
2.19188
-0.0493912
1.8414
-0.0532212
1.55138
-0.0534611
1.2991
-0.0457054
1.05116
-0.0256546
0.7482
-0.00555452
0.391086
0.104269
0.00248727
0.113807
0.0142283
0.403818
0.0270898
0.759271
0.0303591
1.06638
0.0263988
1.31906
0.0192164
1.5734
0.0106058
1.86553
0.000853365
2.21648
-0.0102608
2.63882
-0.0225855
3.14851
-0.0338779
3.14214
-0.0417376
2.62366
-0.0472497
2.19739
-0.0513674
1.84552
-0.0539937
1.55401
-0.0533132
1.29842
-0.0441586
1.04201
-0.0239089
0.727951
-0.00547888
0.372656
0.0987901
0.00180467
0.112002
0.0108039
0.394818
0.0217467
0.748328
0.0244525
1.06367
0.0204611
1.32305
0.0136948
1.58017
0.00545127
1.87378
-0.00427571
2.2262
-0.0153999
2.64994
-0.0276761
3.16079
-0.0381365
3.1526
-0.0452295
2.63076
-0.0503337
2.2025
-0.0540363
1.84922
-0.0555415
1.55551
-0.0538516
1.29673
-0.043264
1.03142
-0.0226925
0.707379
-0.00540753
0.355371
0.0933825
0.000842908
0.111159
0.00722816
0.388433
0.0164197
0.739137
0.0186862
1.06141
0.014383
1.32735
0.00702985
1.58752
-0.00177501
1.88258
-0.011641
2.23607
-0.0225567
2.66086
-0.0345009
3.17273
-0.0444039
3.1625
-0.0506175
2.63697
-0.0541476
2.20603
-0.0565672
1.85164
-0.0572089
1.55615
-0.0545757
1.29409
-0.0427289
1.01957
-0.021851
0.686501
-0.00534413
0.338864
0.0880384
0.000155694
0.111004
0.00426429
0.384324
0.0112088
0.732192
0.0123444
1.06027
0.00750862
1.33219
5.26331e-05
1.59498
-0.00878235
1.89142
-0.0188754
2.24616
-0.0301578
2.67214
-0.0416507
3.18423
-0.0506377
3.17149
-0.0560127
2.64235
-0.0591406
2.20915
-0.0609879
1.85349
-0.0607789
1.55595
-0.0565559
1.28987
-0.0430855
1.0061
-0.0215388
0.664955
-0.00534346
0.322669
0.082695
-0.000943988
0.111948
0.000194202
0.383186
0.00485794
0.727529
0.00508983
1.06004
-0.000438297
1.33772
-0.00907615
1.60361
-0.0191576
1.9015
-0.0299261
2.25693
-0.0409867
2.6832
-0.0517225
3.19496
-0.0596698
3.17944
-0.0636379
2.64631
-0.0653948
2.21091
-0.06611
1.85421
-0.0651642
1.555
-0.0594933
1.2842
-0.0442204
0.990831
-0.0217761
0.64251
-0.00549485
0.306388
0.0772001
-0.00189389
0.113841
-0.00303145
0.384324
-0.0015271
0.726024
-0.00331837
1.06183
-0.00987907
1.34428
-0.0189502
1.61269
-0.0292467
1.9118
-0.040309
2.26799
-0.0517925
2.69468
-0.0629946
3.20617
-0.0701945
3.18664
-0.073751
2.64987
-0.0748643
2.21202
-0.0744824
1.85382
-0.0715943
1.55211
-0.0637708
1.27638
-0.0462907
0.973351
-0.0225515
0.618771
-0.00576748
0.289604
0.0714326
-0.00316609
0.117008
-0.00664597
0.387804
-0.0084886
0.727867
-0.0119346
1.06528
-0.0195862
1.35193
-0.0302176
1.62332
-0.042132
1.92371
-0.0546594
2.28052
-0.0669519
2.70698
-0.0773519
3.21657
-0.083048
3.19233
-0.0847585
2.65158
-0.0841802
2.21145
-0.0827903
1.85243
-0.0791309
1.54845
-0.0693682
1.26661
-0.0493181
0.953301
-0.0238791
0.593332
-0.00616072
0.271885
0.0652719
-0.00450462
0.121512
-0.0110384
0.394337
-0.0162574
0.733086
-0.0226732
1.07169
-0.0318193
1.36108
-0.0434157
1.63491
-0.0560998
1.93639
-0.0696994
2.29412
-0.0833484
2.72063
-0.0954114
3.22863
-0.101714
3.19864
-0.102274
2.65214
-0.0998605
2.20903
-0.0958084
1.84838
-0.0893936
1.54204
-0.0767365
1.25396
-0.0536244
0.930188
-0.0258198
0.565528
-0.00667294
0.252738
0.058599
-0.00585571
0.127368
-0.0157489
0.404231
-0.0250225
0.74236
-0.0340718
1.08074
-0.04503
1.37203
-0.0587622
1.64865
-0.0741163
1.95175
-0.0904841
2.31049
-0.106197
2.73634
-0.117236
3.23967
-0.119995
3.2014
-0.118313
2.65046
-0.114535
2.20525
-0.109505
1.84335
-0.101635
1.53417
-0.085849
1.23817
-0.0589178
0.903257
-0.0281628
0.534772
-0.00723988
0.231815
0.0513591
-0.00829154
0.135659
-0.0229667
0.418906
-0.0376505
0.757043
-0.0502827
1.09337
-0.0633456
1.3851
-0.0790923
1.66439
-0.0966948
1.96935
-0.115037
2.32883
-0.131492
2.75279
-0.142406
3.25058
-0.145035
3.20402
-0.141379
2.6468
-0.135175
2.19905
-0.127372
1.83555
-0.116139
1.52293
-0.0964556
1.21849
-0.0651094
0.871911
-0.03075
0.500413
-0.00778932
0.208855
0.0435698
-0.010696
0.146355
-0.0299814
0.438191
-0.0507504
0.777812
-0.0686562
1.11128
-0.0855319
1.40197
-0.104792
1.68365
-0.125916
1.99047
-0.147234
2.35015
-0.165389
2.77095
-0.175468
3.26066
-0.173536
3.20209
-0.165888
2.63916
-0.156845
2.19001
-0.14666
1.82537
-0.132775
1.50905
-0.108474
1.19418
-0.0717363
0.835173
-0.033356
0.462033
-0.00828127
0.18378
0.0352885
-0.015301
0.161656
-0.042042
0.464932
-0.0696582
0.805428
-0.0926269
1.13425
-0.113711
1.42306
-0.137692
1.70763
-0.162916
2.0157
-0.186364
2.3736
-0.203369
2.78795
-0.209289
3.26658
-0.204315
3.19712
-0.194528
2.62937
-0.182809
2.17829
-0.169725
1.81228
-0.151529
1.49085
-0.122041
1.1647
-0.079236
0.792368
-0.0359463
0.418743
-0.00866785
0.156502
0.0266206
-0.019205
0.180861
-0.0545158
0.500243
-0.0916051
0.842518
-0.122804
1.16545
-0.151092
1.45134
-0.182368
1.73891
-0.212043
2.04537
-0.236312
2.39787
-0.250633
2.80227
-0.251713
3.26766
-0.240775
3.18618
-0.225686
2.61428
-0.210512
2.16311
-0.194444
1.79621
-0.172455
1.46886
-0.136031
1.12827
-0.0856204
0.741957
-0.0377257
0.370848
-0.00865414
0.12743
0.0179665
-0.0315825
0.212444
-0.0794897
0.54815
-0.128187
0.891214
-0.16706
1.20432
-0.201014
1.4853
-0.238266
1.77616
-0.269686
2.07679
-0.291642
2.41982
-0.300511
2.81114
-0.294931
3.26208
-0.278299
3.16955
-0.260059
2.59604
-0.242488
2.14554
-0.223218
1.77694
-0.194896
1.44054
-0.150679
1.08406
-0.0926325
0.68391
-0.0393797
0.317596
-0.00846362
0.0965139
0.00950289
-0.0448637
0.257308
-0.117294
0.620581
-0.181925
0.955845
-0.228697
1.25109
-0.270586
1.52719
-0.311301
1.81688
-0.339006
2.1045
-0.354587
2.4354
-0.357731
2.81429
-0.347118
3.25147
-0.325897
3.14833
-0.301323
2.57147
-0.275808
2.12003
-0.248792
1.74993
-0.213783
1.40553
-0.160967
1.03124
-0.0945198
0.617463
-0.0382873
0.261363
-0.0082023
0.0664289
0.00130058
-0.032084
0.289392
-0.0964701
0.684967
-0.156092
1.01547
-0.205068
1.30007
-0.256978
1.5791
-0.300634
1.86053
-0.339748
2.14361
-0.372407
2.46806
-0.395784
2.83767
-0.406524
3.26221
-0.39907
3.14087
-0.380079
2.55248
-0.35611
2.09606
-0.323389
1.71721
-0.270796
1.35294
-0.193031
0.953475
-0.10523
0.529663
-0.0403008
0.196434
-0.00915895
0.0352871
-0.00785836
-0.0136354
0.303027
-0.0478719
0.719203
-0.0874679
1.05506
-0.128451
1.34105
-0.168776
1.61942
-0.200098
1.89186
-0.230552
2.17406
-0.258282
2.49579
-0.278523
2.85791
-0.283522
3.26721
-0.272775
3.13013
-0.256649
2.53635
-0.233446
2.07286
-0.201286
1.68505
-0.157132
1.30879
-0.100003
0.896346
-0.0453153
0.474975
-0.0160642
0.167183
-0.00391934
0.0231422
-0.0117777
-0.0031048
0.306132
-0.0237475
0.739846
-0.0510917
1.08241
-0.0789975
1.36896
-0.105725
1.64615
-0.132841
1.91897
-0.160233
2.20146
-0.184946
2.52051
-0.201338
2.8743
-0.204672
3.27054
-0.195563
3.12102
-0.174631
2.51542
-0.147954
2.04618
-0.11697
1.65406
-0.078122
1.26994
-0.0378885
0.856113
-0.0107638
0.44785
-0.00308715
0.159506
-0.00112434
0.0211794
-0.012902
0.000575799
0.305556
-0.0142872
0.754709
-0.0342086
1.10233
-0.0546268
1.38938
-0.0743423
1.66586
-0.0956055
1.94024
-0.117273
2.22312
-0.13637
2.5396
-0.149222
2.88715
-0.150502
3.27182
-0.136703
3.10722
-0.115226
2.49394
-0.0887403
2.01969
-0.056324
1.62165
-0.0258878
1.2395
-0.00143345
0.831659
0.00839315
0.438023
0.00579032
0.162109
0.00136271
0.025607
-0.0115393
0.00309058
0.302465
-0.00643366
0.764233
-0.0230987
1.11899
-0.0410062
1.40728
-0.0579338
1.68279
-0.0749231
1.95722
-0.0919445
2.24015
-0.106916
2.55458
-0.116511
2.89675
-0.115525
3.27083
-0.102362
3.09406
-0.0798359
2.47141
-0.0527627
1.99262
-0.0261324
1.59502
0.00129612
1.21207
0.0199809
0.812974
0.0212426
0.436762
0.0119092
0.171443
0.00316094
0.0343553
-0.00837839
0.00417942
0.298286
-0.00228696
0.7707
-0.0168561
1.13356
-0.0335769
1.424
-0.0497155
1.69893
-0.0645936
1.9721
-0.0785573
2.25411
-0.0904518
2.56647
-0.0971455
2.90344
-0.0950198
3.26871
-0.0811701
3.08021
-0.0598474
2.45009
-0.035757
1.96853
-0.00846169
1.56772
0.0140231
1.18959
0.0257452
0.801252
0.024246
0.438261
0.013542
0.182147
0.0037491
0.0441482
-0.00462929
0.00380857
0.294477
-0.000286147
0.774794
-0.0125966
1.14587
-0.0280618
1.43947
-0.0438905
1.71476
-0.0587301
1.98694
-0.0722334
2.26761
-0.0829007
2.57714
-0.0879375
2.90848
-0.0842219
3.26499
-0.069563
3.06555
-0.0484792
2.42901
-0.0244593
1.94451
-0.00205889
1.54532
0.0181836
1.16935
0.028517
0.790918
0.024819
0.441959
0.0139347
0.193031
0.00405559
0.0540273
-0.0005737
0.00239588
0.292082
-0.00127413
0.778464
-0.011848
1.15645
-0.0257559
1.45338
-0.0410256
1.73003
-0.0559235
2.00184
-0.0694703
2.28116
-0.0799901
2.58766
-0.0851552
2.91364
-0.0814096
3.26124
-0.0672393
3.05138
-0.0482844
2.41005
-0.0261662
1.92239
-0.00227324
1.52143
0.0157153
1.15136
0.024172
0.782462
0.02188
0.444251
0.0124057
0.202505
0.00369915
0.0627339
0.00312545
0.00103817
0.291043
-0.00267416
0.782177
-0.0121542
1.16593
-0.0246838
1.46591
-0.0388857
1.74423
-0.0538286
2.01678
-0.0685671
2.2959
-0.0808572
2.59995
-0.0872936
2.92008
-0.0827217
3.25667
-0.0667265
3.03538
-0.0467401
2.39006
-0.0260211
1.90167
-0.00824857
1.50365
0.00850467
1.1346
0.0181542
0.772812
0.0164917
0.445914
0.00950637
0.20949
0.00293336
0.0693069
0.0060588
-0.000759941
0.291803
-0.00511963
0.786536
-0.0138093
1.17462
-0.0251993
1.4773
-0.0385782
1.75761
-0.053314
2.03152
-0.0687165
2.3113
-0.0824607
2.61369
-0.0905941
2.92821
-0.0881439
3.25422
-0.0738317
3.02107
-0.0550506
2.37128
-0.0366535
1.88328
-0.0163969
1.4834
-0.00129422
1.1195
0.00777531
0.763743
0.00923852
0.44445
0.00571716
0.213012
0.00198919
0.0730349
0.00804799
-0.0020612
0.293865
-0.00691282
0.791388
-0.0153445
1.18305
-0.0261289
1.48808
-0.0387811
1.77026
-0.0531561
2.04589
-0.0690626
2.32721
-0.0845966
2.62923
-0.0959849
2.9396
-0.0961616
3.2544
-0.0804984
3.00541
-0.0601468
2.35093
-0.0416396
1.86477
-0.0272005
1.46896
-0.0119529
1.10425
-0.000606502
0.752396
0.00254298
0.441301
0.00208222
0.213473
0.000959796
0.0741573
0.00900779
-0.00333063
0.297195
-0.00893157
0.796989
-0.0172194
1.19134
-0.0275433
1.49841
-0.0398024
1.78252
-0.0537917
2.05988
-0.0695385
2.34295
-0.0859331
2.64562
-0.100158
2.95383
-0.104563
3.2588
-0.0928403
2.99368
-0.0738623
2.33195
-0.0552507
1.84616
-0.0363868
1.45009
-0.0216148
1.08948
-0.0102997
0.741081
-0.00384562
0.434847
-0.00124417
0.210871
-3.15862e-05
0.0729447
0.0089762
-0.00402631
0.301221
-0.0101993
0.803162
-0.0186501
1.19979
-0.028901
1.50866
-0.040847
1.79447
-0.0543657
2.0734
-0.069847
2.35843
-0.0869755
2.66275
-0.104259
2.97111
-0.114013
3.26856
-0.105301
2.98497
-0.0845165
2.31117
-0.0613534
1.82299
-0.0451776
1.43392
-0.028963
1.07327
-0.0159338
0.728052
-0.00859558
0.427509
-0.00341302
0.205689
-0.000657489
0.0701892
0.00831871
-0.00466883
0.30589
-0.0116278
0.810121
-0.0201465
1.20831
-0.030157
1.51867
-0.0418554
1.80617
-0.055025
2.08657
-0.0700902
2.3735
-0.087181
2.67984
-0.105886
2.98981
-0.120687
3.28336
-0.118743
2.98303
-0.101368
2.29379
-0.0769886
1.79861
-0.0515414
1.40847
-0.0341443
1.05587
-0.021153
0.715061
-0.0110631
0.417419
-0.00450331
0.199129
-0.000937925
0.0666238
0.00738079
-0.00500194
0.310892
-0.0123612
0.81748
-0.0210669
1.21701
-0.0311199
1.52872
-0.0426353
1.81768
-0.055411
2.09935
-0.0701039
2.38819
-0.0873195
2.69706
-0.107279
3.00977
-0.126011
3.30209
-0.128922
2.98594
-0.112979
2.27785
-0.0854264
1.77106
-0.0581679
1.38121
-0.0353758
1.03308
-0.0204816
0.700166
-0.0113863
0.408323
-0.00403835
0.191781
-0.000715625
0.0633011
0.00666516
-0.00529681
0.316189
-0.0132019
0.825385
-0.0219401
1.22575
-0.0317617
1.53854
-0.0429919
1.82891
-0.0554379
2.11179
-0.0699306
2.40269
-0.0871627
2.71429
-0.107143
3.02975
-0.127516
3.32246
-0.136588
2.99501
-0.127285
2.26855
-0.103351
1.74713
-0.0666648
1.34453
-0.0354579
1.00187
-0.0174046
0.682113
-0.00688948
0.397808
-0.00158172
0.186473
2.03566e-05
0.061699
0.00668552
-0.00533134
0.32152
-0.0133544
0.833408
-0.0222266
1.23462
-0.032073
1.54839
-0.043036
1.83987
-0.0551174
2.12387
-0.0696448
2.41721
-0.0872666
2.73191
-0.107595
3.05008
-0.128672
3.34354
-0.140933
3.00727
-0.135157
2.26277
-0.111337
1.72331
-0.0769373
1.31013
-0.036181
0.961115
-0.00657335
0.652505
0.00463296
0.386602
0.00603828
0.185068
0.0025116
0.0652256
0.00919712
-0.00538266
0.326903
-0.013652
0.841678
-0.0224746
1.24344
-0.0320568
1.55797
-0.042499
1.85032
-0.0542858
2.13566
-0.069174
2.4321
-0.0872657
2.75
-0.107284
3.0701
-0.127932
3.36419
-0.143005
3.02235
-0.143951
2.26372
-0.127197
1.70655
-0.0882084
1.27114
-0.0411129
0.914019
0.00319582
0.608197
0.0278186
0.361979
0.0265744
0.186312
0.010899
0.0809011
0.0200961
-0.00521265
0.332116
-0.0133769
0.849842
-0.0221999
1.25227
-0.0317835
1.56755
-0.0416774
1.86021
-0.053249
2.14723
-0.0686649
2.44752
-0.0874385
2.76878
-0.107572
3.09023
-0.128079
3.3847
-0.143702
3.03797
-0.147157
2.26717
-0.131175
1.69057
-0.0982647
1.23823
-0.0457409
0.861495
0.0120787
0.550377
0.0630404
0.311017
0.0811377
0.168215
0.0537238
0.108315
0.0738199
-0.00509684
0.337213
-0.0128852
0.85763
-0.020969
1.26035
-0.0299534
1.57654
-0.0411382
1.8714
-0.0550744
2.16117
-0.07221
2.46465
-0.0919244
2.78849
-0.112657
3.11097
-0.132549
3.40459
-0.146961
3.05238
-0.150546
2.27076
-0.140291
1.68032
-0.1054
1.20334
-0.0538037
0.809899
0.0191791
0.477394
0.0971086
0.233088
0.151546
0.113778
0.146369
0.113492
0.220189
-0.00494762
0.34216
-0.0123353
0.865018
-0.0202745
1.26829
-0.029571
1.58583
-0.0415641
1.88339
-0.0566722
2.17628
-0.075149
2.48313
-0.0964764
2.80982
-0.119873
3.13436
-0.143632
3.42835
-0.161934
3.07068
-0.168834
2.27766
-0.156968
1.66845
-0.12725
1.17362
-0.0656443
0.748293
-0.00439789
0.416148
-0.0545309
0.283221
-0.384557
0.443804
-1.00599
0.734922
0.928468
-1.71427
-0.0048395
0.347
-0.0123198
0.872498
-0.0202971
1.27627
-0.0294059
1.59494
-0.0406061
1.89459
-0.0551694
2.19084
-0.0741313
2.50209
-0.0966319
2.83232
-0.121368
3.1591
-0.148009
3.45499
-0.172556
3.09523
-0.186983
2.29208
-0.18869
1.67016
-0.16191
1.14684
-0.129658
0.716041
-0.249256
0.535746
-0.764919
0.798885
-1.51868
1.19757
-2.1061
1.32233
1.20576
-2.38339
-0.00453867
0.351538
-0.0117293
0.879689
-0.0196265
1.28416
-0.0285725
1.60389
-0.0396475
1.90566
-0.0544575
2.20565
-0.0740038
2.52164
-0.0974296
2.85574
-0.124066
3.18574
-0.154374
3.48529
-0.183742
3.1246
-0.205458
2.3138
-0.209656
1.67436
-0.202046
1.13923
-0.320519
0.834514
-0.847861
1.06309
-1.62721
1.57823
-2.14848
1.71884
-2.36809
1.54194
1.30873
-2.47106
-0.00402928
0.355568
-0.0114291
0.887089
-0.0190767
1.29181
-0.0274272
1.61224
-0.0382156
1.91645
-0.0533088
2.22074
-0.0734401
2.54177
-0.0976332
2.87994
-0.125895
3.214
-0.160245
3.51964
-0.197154
3.16151
-0.22986
2.34651
-0.251295
1.69579
-0.339382
1.22732
-0.729846
1.22498
-1.50363
1.83687
-2.05766
2.13227
-2.28239
1.94357
-2.38777
1.64731
1.37545
-2.45449
-0.00316642
0.358734
-0.00923069
0.893153
-0.0163412
1.29892
-0.0252878
1.62119
-0.0374404
1.92861
-0.0532643
2.23657
-0.0733415
2.56185
-0.0978528
2.90445
-0.128316
3.24446
-0.167372
3.5587
-0.210923
3.20506
-0.251039
2.38662
-0.294916
1.73967
-0.525716
1.45812
-1.20283
1.9021
-1.86679
2.50083
-2.15459
2.42007
-2.289
2.07798
-2.36645
1.72477
1.43284
-2.42384
-0.00277363
0.361508
-0.00771648
0.898096
-0.0147137
1.30592
-0.0246871
1.63116
-0.0380294
1.94195
-0.0546071
2.25315
-0.0748782
2.58212
-0.100062
2.92963
-0.132739
3.27714
-0.176609
3.60257
-0.227791
3.25624
-0.276753
2.43559
-0.401971
1.86488
-0.824849
1.88099
-1.57302
2.65026
-1.99882
2.92663
-2.17358
2.59483
-2.26466
2.16906
-2.33497
1.79508
1.49179
-2.39392
-0.0026632
0.364171
-0.00791483
0.903347
-0.0155225
1.31353
-0.0262376
1.64187
-0.0402734
1.95598
-0.0575651
2.27044
-0.078693
2.60324
-0.105197
2.95614
-0.140479
3.31242
-0.189636
3.65173
-0.247671
3.31428
-0.318387
2.5063
-0.532421
2.07892
-1.14292
2.49149
-1.75549
3.26284
-1.99349
3.16462
-2.12501
2.72635
-2.225
2.26905
-2.30806
1.87814
1.55022
-2.36649
-0.00296878
0.36714
-0.00922051
0.909599
-0.0174298
1.32174
-0.0282182
1.65266
-0.0423396
1.9701
-0.0600883
2.28819
-0.082198
2.62535
-0.110215
2.98415
-0.147854
3.35006
-0.201604
3.70548
-0.264871
3.37754
-0.367237
2.60867
-0.696034
2.40772
-1.37872
3.17418
-1.80936
3.69348
-1.99822
3.35347
-2.12442
2.85255
-2.22285
2.36748
-2.29665
1.95195
1.5797
-2.32613
-0.0032385
0.370378
-0.00980971
0.91617
-0.0187531
1.33068
-0.0302908
1.6642
-0.0449821
1.9848
-0.0632918
2.3065
-0.086236
2.6483
-0.115666
3.01358
-0.156038
3.39043
-0.213951
3.76339
-0.283621
3.44721
-0.434024
2.75907
-0.869215
2.84291
-1.50659
3.81155
-1.81909
4.00598
-1.97214
3.50652
-2.06157
2.94199
-2.13886
2.44477
-2.18743
2.00052
1.5227
-2.13043
-0.00361137
0.373989
-0.0110058
0.923565
-0.0205139
1.34019
-0.0323325
1.67602
-0.0472635
1.99973
-0.0660127
2.32524
-0.089867
2.67215
-0.120754
3.04447
-0.163541
3.43322
-0.22732
3.82717
-0.322159
3.54205
-0.52286
2.95977
-1.02687
3.34692
-1.55903
4.34371
-1.79271
4.23967
-1.92759
3.6414
-2.00625
3.02064
-2.01154
2.45006
-1.92585
1.91483
1.43855
-1.8417
-0.00357897
0.377568
-0.0110436
0.931029
-0.0211656
1.35031
-0.033901
1.68875
-0.0496612
2.01549
-0.0688962
2.34448
-0.0929672
2.69622
-0.124208
3.07571
-0.167756
3.47677
-0.22896
3.88837
-0.330647
3.64374
-0.568342
3.19747
-1.10927
3.88785
-1.51294
4.74737
-1.66724
4.39397
-1.74247
3.71663
-1.76974
3.04792
-1.63601
2.31632
-1.11669
1.39552
0.321858
-0.00359149
0.38116
-0.0117657
0.939203
-0.0223751
1.36092
-0.0355803
1.70196
-0.0521794
2.03209
-0.0728125
2.36511
-0.0989345
2.72235
-0.133281
3.11006
-0.181243
3.52473
-0.248254
3.95538
-0.369374
3.76486
-0.672718
3.50081
-1.25592
4.47105
-1.57666
5.06812
-1.68436
4.50166
-1.71294
3.74522
-1.60664
2.94161
-1.2463
1.95598
-0.473302
0.622516
-0.151444
-0.00330012
0.38446
-0.0112169
0.94712
-0.0225642
1.37227
-0.0370056
1.7164
-0.0549801
2.05006
-0.0770915
2.38722
-0.105178
2.75043
-0.142347
3.14723
-0.194251
3.57663
-0.26891
4.03004
-0.420669
3.91662
-0.797196
3.87734
-1.36693
5.04078
-1.59486
5.29605
-1.66155
4.56835
-1.62943
3.7131
-1.36461
2.67679
-0.638587
1.22996
-0.0168085
0.000737141
-0.168253
-0.00268944
0.387149
-0.0115101
0.955941
-0.023296
1.38405
-0.0378682
1.73097
-0.0562385
2.06843
-0.0795562
2.41054
-0.109849
2.78073
-0.150249
3.18763
-0.205706
3.63209
-0.297102
4.12144
-0.481858
4.10137
-0.920313
4.31579
-1.44063
5.5611
-1.59682
5.45224
-1.63061
4.60213
-1.47926
3.56176
-0.973538
2.17107
-0.16597
0.422395
0.0386874
-0.20392
-0.129566
-0.00208614
0.389236
-0.00973971
0.963595
-0.0218978
1.39621
-0.0377537
1.74683
-0.0576288
2.08831
-0.082444
2.43536
-0.114589
2.81287
-0.157818
3.23086
-0.216094
3.69037
-0.316549
4.22189
-0.528514
4.31334
-1.0395
4.82678
-1.47133
5.99293
-1.57187
5.55277
-1.54741
4.57768
-1.26207
3.27642
-0.500498
1.40949
0.00717214
-0.0852744
0.0252575
-0.222006
-0.104308
-0.0011206
0.390356
-0.00896552
0.971439
-0.0210386
1.40828
-0.0365416
1.76233
-0.0562976
2.10806
-0.0819496
2.46101
-0.116109
2.84703
-0.162839
3.27759
-0.225714
3.75324
-0.335756
4.33194
-0.579766
4.55735
-1.13385
5.38087
-1.44893
6.30801
-1.50298
5.60682
-1.41066
4.48536
-0.972331
2.83809
-0.154201
0.591364
0.0190863
-0.258562
0.0177193
-0.220638
-0.0865888
0.00105942
0.389297
-0.00485417
0.977353
-0.0168346
1.42026
-0.0333812
1.77888
-0.0545546
2.12924
-0.0814632
2.48792
-0.116947
2.88251
-0.165677
3.32631
-0.231682
3.81925
-0.350921
4.45117
-0.632716
4.83914
-1.18691
5.93507
-1.40744
6.52854
-1.4305
5.62988
-1.21144
4.2663
-0.574268
2.20091
-0.00799781
0.0250933
0.0124086
-0.278968
0.00591026
-0.21414
-0.0806786
0.0026034
0.386693
-0.00190706
0.981864
-0.0128482
1.43121
-0.0282343
1.79427
-0.0483436
2.14934
-0.0752409
2.51481
-0.111834
2.91911
-0.162248
3.37673
-0.234274
3.89127
-0.36533
4.58223
-0.678848
5.15266
-1.1874
6.44362
-1.33491
6.67604
-1.30895
5.60392
-0.986294
3.94364
-0.283159
1.49778
-0.0224636
-0.235603
-0.00437553
-0.297057
-0.00300199
-0.215514
-0.0836806
0.00671964
0.379974
0.00583378
0.982749
-0.00361499
1.44065
-0.0194034
1.81005
-0.0405383
2.17048
-0.0681391
2.54242
-0.104898
2.95587
-0.155349
3.42718
-0.229483
3.96541
-0.368946
4.72169
-0.707174
5.49089
-1.14327
6.87972
-1.21287
6.74564
-1.15143
5.54248
-0.790961
3.58317
-0.0578406
0.764658
0.0171355
-0.310579
0.0230646
-0.302986
0.00914762
-0.201597
-0.0745329
0.0103326
0.369641
0.0129209
0.980161
0.00622642
1.44735
-0.00706223
1.82334
-0.0257612
2.18918
-0.0520165
2.56867
-0.0884171
2.99227
-0.137993
3.47676
-0.216232
4.04364
-0.364889
4.87035
-0.706742
5.83274
-1.04934
7.22232
-1.09214
6.78845
-0.967058
5.4174
-0.52157
3.13769
0.0724861
0.170602
0.079507
-0.317599
0.0627641
-0.286243
0.0242664
-0.163099
-0.0502665
0.0175567
0.352084
0.0270825
0.970635
0.0243397
1.45009
0.0120241
1.83566
-0.00706604
2.20827
-0.0332048
2.59481
-0.068342
3.0274
-0.115561
3.52398
-0.188715
4.1168
-0.324324
5.00596
-0.661723
6.17014
-0.924081
7.48467
-0.95034
6.81471
-0.777924
5.24498
-0.292467
2.65223
0.0470506
-0.168916
0.0759728
-0.346522
0.0634229
-0.273693
0.0237005
-0.123377
-0.026566
0.0246466
0.327438
0.0417091
0.953573
0.0442288
1.44757
0.0364601
1.84343
0.0219912
2.22274
-0.00082549
2.61763
-0.0337514
3.06033
-0.0795956
3.56982
-0.147685
4.18489
-0.269422
5.1277
-0.574003
6.47472
-0.761854
7.67252
-0.779815
6.83267
-0.62826
5.09342
-0.201439
2.22541
-0.0868093
-0.283545
-0.019846
-0.413485
0.0254298
-0.318969
0.0168521
-0.114799
-0.00971388
0.036599
0.290839
0.0658097
0.924362
0.0760547
1.43733
0.0717368
1.84774
0.0590129
2.23546
0.0379518
2.63869
0.00854642
3.08973
-0.0330007
3.61137
-0.0936065
4.24549
-0.192021
5.22611
-0.421417
6.70412
-0.558699
7.80981
-0.592269
6.86624
-0.472439
4.97359
-0.130786
1.88376
-0.131063
-0.283269
-0.0828363
-0.461712
-0.0219354
-0.37987
0.0182059
-0.15494
0.00849202
0.0487092
0.24213
0.0919627
0.881108
0.111535
1.41775
0.115358
1.84392
0.110844
2.23998
0.096263
2.65327
0.0726742
3.11332
0.0349613
3.64908
-0.021817
4.30227
-0.108127
5.31242
-0.224014
6.82
-0.307266
7.89306
-0.343549
6.90252
-0.299279
4.92932
-0.144232
1.72871
-0.26597
-0.16153
-0.227989
-0.499693
-0.137734
-0.470125
-0.0115529
-0.281121
-0.00306084
0.0640378
0.178092
0.126492
0.818654
0.1627
1.38155
0.176348
1.83027
0.177106
2.23922
0.16732
2.66305
0.150393
3.13025
0.122101
3.67737
0.0802623
4.34411
0.0372173
5.35547
0.0218759
6.83534
0.00689867
7.90803
-0.041935
6.95136
-0.0820456
4.96943
-0.155435
1.8021
-0.414728
0.0977625
-0.405878
-0.508542
-0.288556
-0.587447
-0.10183
-0.467848
-0.10489
0.0662864
0.111805
0.160367
0.724574
0.220554
1.32136
0.25097
1.79986
0.263514
2.22667
0.263799
2.66277
0.255847
3.1382
0.240298
3.69292
0.214168
4.37024
0.201304
5.36833
0.289184
6.74746
0.36354
7.83368
0.400226
6.91467
0.295153
5.07451
0.00224601
2.095
-0.300035
0.400043
-0.417833
-0.390743
-0.338152
-0.667128
-0.175801
-0.630199
-0.280691
0.0573868
0.0544186
0.196639
0.585322
0.297873
1.22013
0.348973
1.74876
0.370123
2.20552
0.379373
2.65352
0.379289
3.13829
0.383624
3.68859
0.376682
4.37718
0.371171
5.37384
0.58603
6.53261
0.803954
7.61575
0.915906
6.80272
0.812011
5.1784
0.251928
2.65509
-0.00205711
0.654028
-0.163676
-0.229125
-0.223665
-0.607139
-0.154248
-0.699616
-0.43494
0.0425986
0.0118201
0.241839
0.386081
0.375732
1.08623
0.454013
1.67048
0.49899
2.16055
0.525401
2.62711
0.537914
3.12577
0.556027
3.67047
0.582965
4.35024
0.638743
5.31806
0.956121
6.21523
1.33858
7.23329
1.58082
6.56048
1.55073
5.20849
0.908892
3.29693
0.395805
1.16712
0.107543
0.0591364
-0.0891852
-0.41041
-0.122403
-0.666398
-0.557343
0.0261193
-0.0142992
0.241468
0.170733
0.464228
0.863473
0.594892
1.53981
0.661114
2.09432
0.70035
2.58787
0.728473
3.09765
0.753895
3.64505
0.817008
4.28713
0.945359
5.18971
1.36367
5.79692
1.91578
6.68118
2.21943
6.25684
2.34054
5.08737
2.05031
3.58716
1.31217
1.90526
0.704598
0.666708
0.269232
0.0249556
0.0506085
-0.447774
-0.506734
0.0235292
-0.0378284
0.167436
0.0268263
0.522795
0.508114
0.740049
1.32256
0.84875
1.98562
0.906624
2.53
0.953387
3.05089
0.987143
3.61129
1.07605
4.19823
1.24384
5.02192
1.67384
5.36691
2.45108
5.90394
2.73109
5.97683
2.90945
4.90901
2.69246
3.80416
2.00273
2.59498
1.25154
1.4179
0.681455
0.595036
0.254017
-0.0203365
-0.252717
0.00198098
-0.0398093
0.0726988
-0.0438916
0.415184
0.165628
0.746904
0.990837
0.912043
1.82048
0.965194
2.47685
0.978861
3.03722
0.976249
3.61391
0.992307
4.18217
1.05945
4.95477
1.27782
5.14854
1.79956
5.3822
1.82376
5.95263
1.88442
4.84834
1.78308
3.9055
1.4464
2.93166
0.937686
1.92662
0.50751
1.02521
0.191694
0.295479
-0.0610227
0.000915323
-0.0407247
0.0394142
-0.0823904
0.198811
0.00623185
0.559937
0.629711
0.773137
1.60728
0.852713
2.39727
0.871022
3.01891
0.872696
3.61223
0.85265
4.20222
0.887234
4.92019
0.979683
5.0561
1.26706
5.09482
1.56284
5.65685
1.56002
4.85116
1.50047
3.96505
1.31477
3.11736
0.982309
2.25908
0.612846
1.39467
0.242611
0.665715
0.181588
-0.00472341
-0.0360013
0.00857733
-0.0956912
0.0761958
-0.0613867
0.390467
0.31544
0.623555
1.3742
0.730542
2.29029
0.75313
2.99632
0.750222
3.61514
0.722956
4.22949
0.72782
4.91533
0.769993
5.01392
0.988372
4.87645
1.23687
5.40835
1.21949
4.86855
1.15342
4.03111
1.01986
3.25093
0.798288
2.48065
0.514293
1.67867
0.218313
0.961695
0.3999
-0.00810435
-0.0278969
0.00189869
-0.105694
0.0430435
-0.102532
0.242896
0.115587
0.475166
1.14193
0.57678
2.18867
0.599843
2.97326
0.605656
3.60933
0.591362
4.24378
0.587838
4.91885
0.603415
4.99834
0.724623
4.75524
0.886326
5.24665
0.869711
4.88516
0.802688
4.09814
0.698098
3.35552
0.547062
2.63169
0.353513
1.87222
0.151687
1.16352
0.551587
0.00540552
-0.0333024
0.0431487
-0.143437
0.091142
-0.150525
0.169701
0.0370275
0.350685
0.960943
0.435088
2.10427
0.458715
2.94963
0.466114
3.60193
0.462437
4.24746
0.460516
4.92077
0.458732
5.00013
0.505937
4.70803
0.591938
5.16065
0.596259