/*--------------------------------*- C++ -*----------------------------------*\
  =========                 |
  \\      /  F ield         | OpenFOAM: The Open Source CFD Toolbox
   \\    /   O peration     | Website:  https://openfoam.org
    \\  /    A nd           | Version:  6
     \\/     M anipulation  |
\*---------------------------------------------------------------------------*/
FoamFile
{
    version     2.0;
    format      ascii;
    class       surfaceScalarField;
    location    "77";
    object      phi;
}
// * * * * * * * * * * * * * * * * * * * * * * * * * * * * * * * * * * * * * //

dimensions      [0 3 -1 0 0 0 0];

internalField   nonuniform List<scalar> 
17370
(
-0.0900004
0.0898496
0.289162
-0.0714632
0.0537533
0.364485
-0.0381202
0.0276911
0.426597
-0.0196394
0.0146063
0.504285
-0.0107644
0.00827401
0.601893
-0.00627432
0.00489787
0.720434
-0.00373409
0.00289369
0.863747
-0.00215237
0.00159334
1.03601
-0.00107677
0.000664328
1.24292
-0.000256954
-0.000137038
1.49158
0.000516231
-0.000926805
1.4916
0.00132543
-0.00181557
1.24318
0.00234381
-0.00304957
1.03634
0.00386263
-0.00500578
0.86405
0.0063712
-0.0083637
0.72105
0.0108486
-0.014684
0.60305
0.0197106
-0.0277547
0.507483
0.0381764
-0.0538007
0.431792
0.071502
-0.0898756
0.365149
0.0900161
0.198995
-0.128136
0.0882261
0.03991
-0.364598
0.353378
-0.074673
0.0858935
-0.446476
0.45432
-0.0843906
0.0765466
-0.52119
0.529902
-0.0684494
0.0597381
-0.612789
0.621568
-0.0515491
0.0427694
-0.726894
0.734164
-0.0353083
0.0280384
-0.867475
0.872591
-0.022437
0.017321
-1.03847
1.04192
-0.0135108
0.0100608
-1.2446
1.24703
-0.00744975
0.0050163
-1.49262
1.4946
-0.00306771
0.00108784
-1.4925
1.49423
0.00058882
-0.00231403
-1.24398
1.24586
0.00421809
-0.00610323
-1.03751
1.04004
0.00845977
-0.0109879
-0.866101
0.869827
0.0143391
-0.0180652
-0.724391
0.729934
0.0231034
-0.0286461
-0.608698
0.616111
0.0358606
-0.0432743
-0.514897
0.52304
0.0520037
-0.0601472
-0.439856
0.447914
0.0688097
-0.076868
-0.375295
0.376739
0.0846654
-0.0861092
-0.25733
0.222477
0.0748195
-0.0399666
-0.0685191
0.0586935
0.0098256
-0.0518098
0.0583924
-0.374127
0.367545
-0.0574759
0.053723
-0.453595
0.457348
-0.0486323
0.0446791
-0.527948
0.531901
-0.0408383
0.0371983
-0.621564
0.625204
-0.0330953
0.0290183
-0.73535
0.739427
-0.0244465
0.0202859
-0.874342
0.878502
-0.0159385
0.0122432
-1.04349
1.04719
-0.00850401
0.00532934
-1.24856
1.25174
-0.00199889
-0.00107591
-1.49666
1.49973
0.00412464
-0.0073919
-1.4972
1.50047
0.0104729
-0.0140788
-1.25007
1.25367
0.0176344
-0.0218197
-1.04592
1.05011
0.0258408
-0.0302768
-0.877761
0.882197
0.0342457
-0.0382423
-0.739899
0.743896
0.0417919
-0.0455387
-0.626773
0.630519
0.049411
-0.0544244
-0.534809
0.539823
0.058093
-0.0589038
-0.457473
0.458284
0.0521971
-0.0319924
-0.335749
0.315544
0.0098887
-0.068344
0.0584553
-0.0529434
0.0489488
0.00399454
-0.0331554
0.0436976
-0.358113
0.347571
-0.0473932
0.0467638
-0.459287
0.459917
-0.0437058
0.040351
-0.535804
0.539159
-0.0365762
0.0332701
-0.628531
0.631837
-0.0298298
0.0267959
-0.742651
0.745685
-0.023535
0.0204264
-0.882022
0.885131
-0.0168941
0.0135127
-1.05078
1.05416
-0.00971699
0.00617608
-1.25517
1.25871
-0.00220454
-0.00159418
-1.50324
1.50704
0.00536028
-0.00923513
-1.50414
1.50801
0.0126447
-0.0162575
-1.25741
1.26103
0.0194457
-0.0227519
-1.05392
1.05722
0.0256624
-0.0287269
-0.885687
0.888751
0.0316017
-0.0348843
-0.747154
0.750436
0.0380576
-0.0416966
-0.634303
0.637942
0.0449348
-0.0478599
-0.544131
0.547056
0.0483495
-0.0444576
-0.456568
0.452676
0.0336812
-0.0162257
-0.296175
0.278719
0.00407302
-0.0526344
0.0485614
-0.0458722
0.0433783
0.00249391
-0.0227959
0.0331691
-0.336886
0.326513
-0.0389854
0.0399987
-0.459603
0.45859
-0.0388051
0.0365156
-0.54188
0.544169
-0.033845
0.0312461
-0.634889
0.637488
-0.0281796
0.0252775
-0.748732
0.751634
-0.0220099
0.0190136
-0.888086
0.891083
-0.0157057
0.0126036
-1.05729
1.06039
-0.00907456
0.00566313
-1.26217
1.26558
-0.00169767
-0.00218769
-1.51093
1.51481
0.00602933
-0.00986522
-1.5119
1.51574
0.0131018
-0.0163901
-1.26446
1.26775
0.0192389
-0.0222503
-1.06033
1.06334
0.0249851
-0.0279907
-0.891802
0.894808
0.0306772
-0.0335279
-0.75364
0.75649
0.035945
-0.0384323
-0.641005
0.643493
0.0405644
-0.0415513
-0.548857
0.549844
0.0403219
-0.0341901
-0.44739
0.441258
0.0234721
-0.0102439
-0.263492
0.250264
0.00259092
-0.0453965
0.0428056
-0.041305
0.0395401
0.00176491
-0.0167313
0.0259737
-0.316667
0.307424
-0.0325708
0.0347045
-0.456995
0.454861
-0.0342782
0.0326035
-0.546149
0.547823
-0.0304182
0.0283189
-0.639795
0.641894
-0.025883
0.0234815
-0.754281
0.756682
-0.0206187
0.0178258
-0.893981
0.896774
-0.0145853
0.0115121
-1.06344
1.06652
-0.00801724
0.00468742
-1.26891
1.27224
-0.000850895
-0.00288438
-1.5186
1.52234
0.00656388
-0.0102347
-1.51947
1.52314
0.0133413
-0.0165295
-1.27098
1.27417
0.01928
-0.0221412
-1.06636
1.06923
0.0245977
-0.0271213
-0.897619
0.900142
0.029243
-0.0313997
-0.758936
0.761092
0.033266
-0.0352153
-0.645642
0.647591
0.0366618
-0.0368073
-0.550356
0.550501
0.0343419
-0.0272828
-0.434581
0.427522
0.0175756
-0.00741752
-0.238721
0.228563
0.00188341
-0.0406241
0.0387407
-0.0380203
0.036694
0.00132631
-0.0127646
0.020697
-0.298842
0.29091
-0.0274334
0.0303456
-0.452308
0.449396
-0.0305413
0.0294143
-0.549258
0.550385
-0.0274143
0.0254914
-0.643933
0.645856
-0.0232845
0.0211412
-0.758925
0.761068
-0.0186194
0.0161296
-0.899353
0.901842
-0.0131796
0.0102927
-1.06946
1.07235
-0.00692222
0.00367357
-1.2755
1.27875
8.03936e-05
-0.00371345
-1.52599
1.52963
0.00727664
-0.0108219
-1.52673
1.53028
0.0137895
-0.0167752
-1.27729
1.28028
0.0192575
-0.0217328
-1.07196
1.07443
0.0238016
-0.0258983
-0.902424
0.904521
0.0276889
-0.0295419
-0.76307
0.764923
0.0311705
-0.0328843
-0.649405
0.651119
0.0336791
-0.0330903
-0.550284
0.549695
0.0297036
-0.0223344
-0.420251
0.412882
0.0138044
-0.0057564
-0.21956
0.211512
0.00147046
-0.037089
0.0356186
-0.0355362
0.0345157
0.00102052
-0.00996085
0.0166569
-0.283621
0.276925
-0.0231194
0.0264766
-0.446241
0.442884
-0.0272442
0.0265338
-0.551296
0.552006
-0.0247651
0.0229717
-0.647755
0.649549
-0.0208914
0.0188653
-0.763146
0.765172
-0.0164826
0.0141447
-0.904187
0.906525
-0.0113938
0.00869727
-1.07507
1.07776
-0.00552696
0.00243126
-1.28188
1.28498
0.00118877
-0.00470743
-1.53318
1.5367
0.00813983
-0.0115021
-1.53372
1.53708
0.014252
-0.0169494
-1.28313
1.28582
0.0191474
-0.0213122
-1.07681
1.07898
0.0231301
-0.0249869
-0.906491
0.908348
0.0265754
-0.0282159
-0.766663
0.768304
0.0296437
-0.0310166
-0.652689
0.654062
0.0313153
-0.0299895
-0.548751
0.547425
0.0259782
-0.0186824
-0.405523
0.398227
0.0112351
-0.00465726
-0.204268
0.19769
0.0011958
-0.0343006
0.0331048
-0.0336207
0.0328278
0.000792933
-0.00787915
0.0134965
-0.270798
0.265181
-0.0194655
0.0230121
-0.439422
0.435876
-0.02425
0.0237833
-0.552628
0.553094
-0.0222774
0.0205906
-0.651338
0.653025
-0.0186017
0.0166581
-0.76715
0.769093
-0.014364
0.0121105
-0.908754
0.911008
-0.0094593
0.00686966
-1.08033
1.08292
-0.00383738
0.000882708
-1.28795
1.29091
0.00256738
-0.00591263
-1.54011
1.54346
0.00915198
-0.0122856
-1.54031
1.54344
0.0148164
-0.0172701
-1.2884
1.29085
0.0192492
-0.0211816
-1.08111
1.08304
0.0227966
-0.0244447
-0.910101
0.911749
0.0258512
-0.0272997
-0.769841
0.77129
0.0285307
-0.0295218
-0.655234
0.656225
0.0294445
-0.0274456
-0.545763
0.543764
0.0230256
-0.0159875
-0.391054
0.384016
0.00943678
-0.00389899
-0.191681
0.186143
0.00100591
-0.0320152
0.0310092
-0.032133
0.031517
0.00061603
-0.00626949
0.0109644
-0.260053
0.255358
-0.0163342
0.0198727
-0.432334
0.428795
-0.0214264
0.0211814
-0.553488
0.553733
-0.0199034
0.0182726
-0.65473
0.656361
-0.016336
0.0144382
-0.771002
0.7729
-0.0121986
0.00999946
-0.913157
0.915356
-0.0074125
0.00488991
-1.0854
1.08793
-0.00194517
-0.000907157
-1.29376
1.29661
0.00420996
-0.00738182
-1.54668
1.54985
0.0104243
-0.0133402
-1.54643
1.54935
0.0156752
-0.0179152
-1.29321
1.29545
0.0196934
-0.0214042
-1.08497
1.08668
0.0228248
-0.0242748
-0.913293
0.914743
0.0255141
-0.0267854
-0.772641
0.773912
0.02787
-0.0284353
-0.657008
0.657573
0.0279822
-0.025412
-0.54149
0.53892
0.0207356
-0.0140169
-0.377145
0.370426
0.00817011
-0.00337211
-0.181012
0.176214
0.000874637
-0.030078
0.0292034
-0.0309815
0.0305092
0.000472266
-0.00497042
0.00886841
-0.251089
0.247191
-0.0135948
0.0169762
-0.425345
0.421963
-0.0187052
0.0186453
-0.553929
0.553989
-0.0175547
0.0159553
-0.658041
0.659641
-0.014036
0.0121484
-0.774776
0.776664
-0.00992256
0.00774336
-0.917456
0.919635
-0.00518914
0.00270769
-1.09034
1.09282
0.000176447
-0.00295257
-1.29936
1.30214
0.00613953
-0.00916658
-1.55291
1.55594
0.0120365
-0.0147536
-1.55213
1.55485
0.0169024
-0.0189322
-1.29759
1.29962
0.0205092
-0.0219985
-1.08842
1.08991
0.023233
-0.0245017
-0.916092
0.917361
0.0255923
-0.0267053
-0.775093
0.776206
0.0275891
-0.0277934
-0.657953
0.658157
0.0269113
-0.0238564
-0.536112
0.533057
0.0190182
-0.0126063
-0.363876
0.357464
0.00729028
-0.00301283
-0.171707
0.167429
0.000786713
-0.0283809
0.0275942
-0.030106
0.0297557
0.000350276
-0.00387893
0.00707539
-0.243669
0.240472
-0.0111464
0.0142609
-0.418733
0.415618
-0.0160383
0.0161266
-0.554028
0.55394
-0.0151105
0.0135788
-0.661279
0.662811
-0.0116488
0.00973854
-0.77854
0.78045
-0.00748715
0.00529092
-0.921721
0.923917
-0.0027298
0.000256721
-1.0952
1.09768
0.002598
-0.00532493
-1.30482
1.30755
0.00842724
-0.0113392
-1.55887
1.56178
0.014061
-0.0165948
-1.55744
1.55997
0.0185651
-0.0203901
-1.30155
1.30337
0.0217704
-0.0230434
-1.09145
1.09272
0.0240973
-0.0251901
-0.918525
0.919618
0.0261351
-0.0270815
-0.777218
0.778165
0.0277024
-0.0276095
-0.65822
0.658127
0.0262782
-0.0227736
-0.529784
0.526279
0.0178106
-0.0116455
-0.351199
0.345034
0.00670767
-0.00278166
-0.163355
0.159429
0.000732262
-0.0268427
0.0261104
-0.0294678
0.0292267
0.00024105
-0.00291896
0.00548073
-0.237616
0.235054
-0.00889647
0.0116605
-0.412703
0.409939
-0.0133709
0.013532
-0.553877
0.553716
-0.012552
0.0110554
-0.664406
0.665903
-0.00908994
0.00712584
-0.782355
0.784319
-0.00481103
0.00256193
-0.926024
0.928273
4.63703e-05
-0.00254849
-1.10006
1.10256
0.00541474
-0.00812699
-1.3102
1.31291
0.011176
-0.0139943
-1.5646
1.56742
0.0165822
-0.0189426
-1.56237
1.56473
0.0207399
-0.0223628
-1.30509
1.30672
0.0235428
-0.0245932
-1.09408
1.09513
0.0254622
-0.026376
-0.920601
0.921515
0.0271727
-0.0279582
-0.77898
0.779765
0.0282933
-0.0278922
-0.657889
0.657488
0.0260973
-0.022158
-0.522581
0.518641
0.0170673
-0.0110617
-0.338979
0.332973
0.00636518
-0.00265312
-0.155636
0.151923
0.000704679
-0.0253997
0.0246951
-0.0290453
0.0289083
0.000137002
-0.00202725
0.00399208
-0.232814
0.230849
-0.00674741
0.00909068
-0.407415
0.405072
-0.0106256
0.0107798
-0.553633
0.553479
-0.00980063
0.00829915
-0.6675
0.669001
-0.00626961
0.00422177
-0.786281
0.788329
-0.00180812
-0.0005283
-0.930432
0.932768
0.0032244
-0.00579387
-1.10498
1.10755
0.00871248
-0.0114445
-1.31555
1.31828
0.0144739
-0.0172249
-1.57015
1.5729
0.0196982
-0.0218974
-1.56696
1.56916
0.0235289
-0.0249525
-1.30823
1.30966
0.0259281
-0.0267466
-1.09631
1.09713
0.0274174
-0.0281318
-0.922306
0.923021
0.0287691
-0.0294092
-0.780389
0.781029
0.0294198
-0.0286111
-0.656893
0.656084
0.0263548
-0.0219844
-0.514531
0.51016
0.0167365
-0.0107915
-0.327034
0.321089
0.0062166
-0.00260655
-0.148288
0.144678
0.000698489
-0.0240015
0.023303
-0.0288318
0.0288
3.17245e-05
-0.00115687
0.00253834
-0.229198
0.227816
-0.00461767
0.00647456
-0.403005
0.401148
-0.00772908
0.0077944
-0.553461
0.553395
-0.00676975
0.00522638
-0.670639
0.672182
-0.00309301
0.000926439
-0.790377
0.792543
0.00162922
-0.00409407
-0.935016
0.937481
0.0069223
-0.00959812
-1.11004
1.11272
0.0126105
-0.0153981
-1.32095
1.32374
0.0184423
-0.0211505
-1.57558
1.57828
0.0235237
-0.0255681
-1.57122
1.57327
0.027034
-0.0282543
-1.31096
1.31218
0.0290231
-0.0296074
-1.09811
1.09869
0.0300766
-0.0305854
-0.923613
0.924122
0.0310496
-0.0314524
-0.781426
0.781828
0.0311692
-0.0298805
-0.655082
0.653794
0.0271165
-0.0222749
-0.505615
0.500773
0.0168063
-0.0108077
-0.31516
0.309162
0.00624025
-0.00263224
-0.141095
0.137487
0.000711183
-0.0226067
0.0218955
-0.0288301
0.0289064
-7.63691e-05
-0.000264142
0.00105243
-0.22675
0.225962
-0.00242334
0.00372598
-0.3996
0.398297
-0.00459727
0.00448822
-0.553533
0.553642
-0.00335884
0.00171348
-0.673913
0.675558
0.000562279
-0.00289055
-0.794714
0.797042
0.00563529
-0.00827131
-0.939857
0.942493
0.0112798
-0.0141069
-1.11532
1.11815
0.0172605
-0.020142
-1.32647
1.32935
0.0232342
-0.0259207
-1.58092
1.58361
0.0282062
-0.0300987
-1.57517
1.57706
0.0313957
-0.0324077
-1.31326
1.31428
0.0329667
-0.0333097
-1.09946
1.0998
0.033564
-0.0338513
-0.924499
0.924786
0.0341139
-0.0342045
-0.781909
0.782
0.0336014
-0.0317572
-0.652314
0.65047
0.0284302
-0.0230524
-0.495746
0.490368
0.0172749
-0.0110961
-0.303123
0.296944
0.00642353
-0.00272397
-0.133861
0.130162
0.000740963
-0.0211783
0.0204373
-0.0290567
0.0292599
-0.000203158
0.000683881
-0.00053196
-0.225497
0.225345
-8.23374e-05
0.00075557
-0.397327
0.396654
-0.00113815
0.000765449
-0.554035
0.554407
0.000535851
-0.00233919
-0.677447
0.67925
0.00480891
-0.00734571
-0.799374
0.801911
0.0103347
-0.0131949
-0.945044
0.947904
0.0164418
-0.0194707
-1.12092
1.12395
0.0228162
-0.025834
-1.33219
1.3352
0.0290157
-0.0317097
-1.58623
1.58892
0.0339216
-0.0356615
-1.5788
1.58054
0.0367846
-0.0375753
-1.31512
1.31591
0.0379117
-0.0379978
-1.10032
1.10041
0.0380216
-0.0380755
-0.924921
0.924975
0.0381455
-0.0378274
-0.781739
0.781421
0.0368136
-0.034325
-0.648444
0.645956
0.0303498
-0.0243354
-0.484773
0.478759
0.0181362
-0.01164
-0.290662
0.284165
0.00675199
-0.002874
-0.126401
0.122523
0.00078531
-0.0196833
0.018898
-0.0295424
0.029893
-0.00035053
0.00174006
-0.0022246
-0.225534
0.226018
0.00246135
-0.00252074
-0.396337
0.396397
0.00276766
-0.00351547
-0.55518
0.555927
0.00505563
-0.00708365
-0.681357
0.683385
0.00982309
-0.0126343
-0.804451
0.807262
0.0159361
-0.0190801
-0.950683
0.953827
0.0226279
-0.0259124
-1.12692
1.13021
0.0295041
-0.0326985
-1.33818
1.34138
0.0359989
-0.0387109
-1.59155
1.59426
0.0408454
-0.0424207
-1.5821
1.58368
0.0433522
-0.0439172
-1.31648
1.31705
0.0440254
-0.0438311
-1.10066
1.10046
0.0436012
-0.043405
-0.924831
0.924634
0.0432524
-0.0424385
-0.780732
0.779918
0.0409263
-0.0376812
-0.643298
0.640053
0.0329418
-0.0261537
-0.472484
0.465696
0.0193944
-0.0124308
-0.277497
0.270534
0.0072156
-0.00307619
-0.118544
0.114405
0.000842076
-0.0180936
0.0172515
-0.0303156
0.0308441
-0.000528528
0.00303085
-0.00429187
-0.226918
0.228179
0.00541061
-0.00627324
-0.396825
0.397687
0.00725583
-0.00848667
-0.557211
0.558442
0.0103802
-0.0127112
-0.685786
0.688117
0.0158049
-0.0189635
-0.810075
0.813234
0.0226546
-0.0261518
-0.956897
0.960394
0.0300749
-0.0336781
-1.13345
1.13706
0.0375744
-0.0409859
-1.34454
1.34795
0.0444338
-0.047173
-1.5969
1.59964
0.0492204
-0.0506093
-1.58506
1.58645
0.051324
-0.0516514
-1.31734
1.31766
0.0515101
-0.0510114
-1.10041
1.09991
0.0505109
-0.0500478
-0.924179
0.923716
0.0495445
-0.0482642
-0.778801
0.77752
0.0460858
-0.0419279
-0.636631
0.632474
0.0362677
-0.0285272
-0.458584
0.450844
0.021044
-0.0134513
-0.263325
0.255732
0.00779795
-0.00332086
-0.110128
0.105651
0.000907851
-0.0163859
0.015478
-0.0314504
0.0322044
-0.00075392
0.00455458
-0.00670484
-0.22987
0.23202
0.00891432
-0.0106946
-0.39901
0.400791
0.0125189
-0.0143487
-0.560374
0.562204
0.0167295
-0.019458
-0.690893
0.693621
0.0230122
-0.0266032
-0.816393
0.819984
0.0307772
-0.0347103
-0.963831
0.967764
0.0390914
-0.0430778
-1.14064
1.14462
0.0473356
-0.0510023
-1.35133
1.355
0.0546207
-0.0573876
-1.6023
1.60507
0.0593297
-0.0604943
-1.58762
1.58878
0.0609497
-0.0610022
-1.3176
1.31765
0.0605849
-0.0597528
-1.09953
1.0987
0.0589576
-0.0582122
-0.92291
0.922165
0.0572752
-0.0554354
-0.775976
0.774136
0.0524433
-0.0471615
-0.628124
0.622842
0.0403727
-0.031455
-0.4427
0.433782
0.0230587
-0.0146676
-0.247816
0.239425
0.00847101
-0.00359257
-0.101003
0.0961248
0.00097746
-0.0145443
0.0135669
-0.033032
0.0340815
-0.00104941
0.00647479
-0.00970286
-0.234627
0.237855
0.0131697
-0.0160211
-0.403162
0.406013
0.0188309
-0.0213934
-0.564948
0.567511
0.0244144
-0.0276783
-0.696885
0.700148
0.031834
-0.0359716
-0.823585
0.827722
0.0407407
-0.0451994
-0.97165
0.976109
0.0501222
-0.0545511
-1.14859
1.15302
0.0592106
-0.0631397
-1.35863
1.36255
0.0669021
-0.0696458
-1.60772
1.61046
0.0714225
-0.0723056
-1.5897
1.59058
0.0724435
-0.0721703
-1.31714
1.31687
0.0714644
-0.0702662
-1.09794
1.09674
0.0691478
-0.0681042
-0.921003
0.91996
0.0665998
-0.0640927
-0.77207
0.769563
0.0601112
-0.0534375
-0.617344
0.610671
0.0452545
-0.0348868
-0.424366
0.413998
0.0253691
-0.0160138
-0.230636
0.221281
0.00918641
-0.00386671
-0.0910549
0.0857352
0.00104314
-0.0125648
0.0115217
-0.035191
0.0366483
-0.0014572
0.00897914
-0.0135749
-0.241524
0.24612
0.0185377
-0.0226262
-0.409652
0.41374
0.0265776
-0.0300239
-0.57127
0.574717
0.033867
-0.0378286
-0.704055
0.708017
0.0427564
-0.0475794
-0.831872
0.836695
0.0530715
-0.0581522
-0.980538
0.985619
0.063696
-0.068608
-1.15743
1.16234
0.0736746
-0.0778367
-1.36641
1.37057
0.0816776
-0.0843129
-1.61304
1.61568
0.0858292
-0.0863353
-1.59116
1.59166
0.0860978
-0.085419
-1.31591
1.31523
0.0843659
-0.0827866
-1.09556
1.09398
0.0813489
-0.0798515
-0.918407
0.916909
0.0778508
-0.0744157
-0.766786
0.763351
0.069175
-0.0607482
-0.603716
0.59529
0.0508345
-0.0386973
-0.403027
0.39089
0.0278421
-0.0173797
-0.211465
0.201002
0.00986932
-0.00410771
-0.0802208
0.0744592
0.0010943
-0.01046
0.00936566
-0.0381263
0.0401659
-0.00203962
0.0124757
-0.0187941
-0.251086
0.257405
0.0255535
-0.0310833
-0.418969
0.424499
0.0363804
-0.0409051
-0.579726
0.58425
0.045777
-0.0506416
-0.712746
0.71761
0.0565596
-0.0622253
-0.841527
0.847192
0.0685698
-0.0743487
-0.990685
0.996464
0.0805469
-0.0859234
-1.16721
1.17259
0.0913259
-0.095616
-1.3746
1.37889
0.0993828
-0.101747
-1.61806
1.62042
0.102845
-0.10283
-1.59177
1.59175
0.102131
-0.100933
-1.31375
1.31255
0.0994898
-0.097518
-1.09235
1.09038
0.0957285
-0.0936664
-0.914754
0.912692
0.0910957
-0.0864707
-0.759589
0.754964
0.0796028
-0.0689509
-0.586494
0.575842
0.0568947
-0.042637
-0.378052
0.363794
0.0302486
-0.0185948
-0.190047
0.178393
0.0104126
-0.00426818
-0.0685278
0.0623834
0.00111772
-0.00826456
0.00714684
-0.042166
0.0451083
-0.00294229
0.017543
-0.0261296
-0.264037
0.272624
0.0351048
-0.0423663
-0.43179
0.439051
0.0492781
-0.0551087
-0.59081
0.596641
0.0613349
-0.067409
-0.723392
0.729466
0.0745418
-0.0811726
-0.852836
0.859467
0.0884271
-0.0948858
-1.00221
1.00867
0.101643
-0.107337
-1.17784
1.18353
0.112856
-0.117036
-1.38291
1.38709
0.120444
-0.122274
-1.62239
1.62422
0.122725
-0.121998
-1.59123
1.59051
0.120691
-0.118886
-1.31048
1.30868
0.117021
-0.114632
-1.08821
1.08582
0.112433
-0.109758
-0.909826
0.907152
0.106395
-0.100152
-0.749863
0.74362
0.0911581
-0.0776955
-0.564693
0.55123
0.0630247
-0.0463014
-0.348777
0.332053
0.0322502
-0.0194294
-0.166277
0.153456
0.0106821
-0.00429302
-0.056134
0.0497449
0.00109899
-0.00603988
0.00494089
-0.0478901
0.0523528
-0.00446278
0.0253751
-0.0370336
-0.281553
0.293211
0.0488814
-0.0584665
-0.449159
0.458744
0.0674275
-0.0748381
-0.605121
0.612531
0.0826837
-0.0902707
-0.736421
0.744008
0.0986654
-0.106193
-0.86601
0.873537
0.114189
-0.121096
-1.01499
1.02189
0.12808
-0.13374
-1.18892
1.19458
0.138958
-0.142642
-1.39079
1.39447
0.145276
-0.14622
-1.62546
1.6264
0.145723
-0.144027
-1.58914
1.58744
0.141931
-0.139409
-1.30589
1.30337
0.137029
-0.134194
-1.08303
1.08019
0.131479
-0.128179
-0.903512
0.900212
0.123607
-0.115124
-0.736673
0.72819
0.103313
-0.0863333
-0.537078
0.520099
0.0685618
-0.0491186
-0.314612
0.295169
0.0334159
-0.0196226
-0.140318
0.126525
0.0105384
-0.0041295
-0.0433658
0.0369569
0.00102426
-0.00387286
0.0028486
-0.056389
0.0639884
-0.00759947
0.0390272
-0.0552018
-0.305799
0.321973
0.071109
-0.0839069
-0.472725
0.485523
0.0950381
-0.103885
-0.623132
0.631979
0.113306
-0.122234
-0.752154
0.761081
0.131639
-0.139622
-0.880758
0.888741
0.14774
-0.154467
-1.02838
1.03511
0.160997
-0.165997
-1.19961
1.20461
0.170279
-0.172886
-1.39738
1.39998
0.174184
-0.17376
-1.62649
1.62607
0.171923
-0.168971
-1.58495
1.582
0.165885
-0.162487
-1.29974
1.29634
0.159502
-0.156166
-1.07666
1.07333
0.152897
-0.148613
-0.895473
0.891189
0.142279
-0.130628
-0.718617
0.706965
0.11503
-0.0937289
-0.502099
0.480798
0.0725864
-0.0504645
-0.275254
0.253132
0.0333744
-0.019014
-0.112762
0.0984013
0.00991343
-0.00375338
-0.0307327
0.0245727
0.000879703
-0.00186828
0.000988582
-0.0710458
0.0752895
-0.00424374
0.0297586
-0.0439082
-0.340758
0.354908
0.0581394
-0.0699504
-0.503906
0.515717
0.0805701
-0.0905453
-0.644554
0.654529
0.101779
-0.11224
-0.769406
0.779866
0.12392
-0.134298
-0.895683
0.906061
0.14539
-0.155308
-1.04092
1.05084
0.165786
-0.174877
-1.20856
1.21765
0.184089
-0.19162
-1.40146
1.40899
0.19862
-0.203548
-1.62451
1.62944
0.206408
-0.207824
-1.57805
1.57946
0.208031
-0.207736
-1.2917
1.2914
0.207548
-0.206702
-1.06876
1.06791
0.205119
-0.200563
-0.884634
0.880079
0.19121
-0.172946
-0.693614
0.675351
0.148476
-0.116675
-0.45836
0.426559
0.0870563
-0.0578949
-0.231041
0.201879
0.0368076
-0.0201308
-0.0847652
0.0680884
0.0100465
-0.00358407
-0.0188794
0.012417
0.000758686
-9.59757e-05
-0.00066271
-0.0828163
0.0808706
0.00194563
0.00794683
-0.0171195
-0.371801
0.380973
0.0279456
-0.0365173
-0.532196
0.540768
0.0451922
-0.0534861
-0.667287
0.675581
0.0637191
-0.0734025
-0.789776
0.79946
0.083832
-0.0933595
-0.915797
0.925325
0.103526
-0.11227
-1.06047
1.06921
0.121692
-0.129497
-1.22653
1.23433
0.137375
-0.143563
-1.41621
1.42239
0.148881
-0.152388
-1.63367
1.63717
0.153974
-0.154205
-1.58041
1.58064
0.153199
-0.151634
-1.2902
1.28864
0.150261
-0.14864
-1.06456
1.06294
0.146194
-0.140285
-0.870953
0.865044
0.129993
-0.112832
-0.653098
0.635936
0.0926055
-0.0688876
-0.392902
0.369184
0.0489543
-0.0312991
-0.173426
0.155771
0.0193576
-0.0103887
-0.0525124
0.0435436
0.00509241
-0.00178679
-0.00615204
0.00284641
0.000355349
0.00164755
-0.0020029
-0.0842947
0.0813511
0.0029436
-0.00113869
-0.00411502
-0.392905
0.398158
0.0113105
-0.0176073
-0.553256
0.559552
0.0240264
-0.0311785
-0.686516
0.693668
0.0400653
-0.0484579
-0.808154
0.816547
0.0577085
-0.0659973
-0.933999
0.942288
0.0745943
-0.0823699
-1.07777
1.08555
0.0905388
-0.0973954
-1.24169
1.24855
0.103863
-0.108759
-1.42792
1.43282
0.112968
-0.115277
-1.64005
1.64236
0.115713
-0.114858
-1.58034
1.57949
0.113029
-0.110759
-1.28656
1.28429
0.108306
-0.105704
-1.05853
1.05593
0.102465
-0.0962782
-0.855186
0.849
0.086721
-0.0721667
-0.61592
0.601365
0.0568207
-0.0405098
-0.344002
0.327692
0.0282744
-0.0182262
-0.137986
0.127938
0.0115839
-0.0065479
-0.0346172
0.0295812
0.00340516
-0.00129572
0.000714591
-0.00282403
0.000293728
0.00258453
-0.00287826
-0.0830161
0.0801458
0.00287038
-0.00510197
0.00249508
-0.406939
0.409546
0.00216764
-0.00691818
-0.568936
0.573686
0.0122998
-0.018278
-0.702305
0.708283
0.0258866
-0.0330666
-0.824215
0.831395
0.0409395
-0.0480189
-0.949971
0.95705
0.0557473
-0.062314
-1.09285
1.09941
0.0693833
-0.0748413
-1.25495
1.26041
0.0802775
-0.084252
-1.43744
1.44141
0.0872728
-0.0883193
-1.64421
1.64526
0.0879521
-0.0863463
-1.57806
1.57646
0.0838693
-0.0805216
-1.28147
1.27812
0.0773526
-0.0738124
-1.05095
1.04741
0.0697224
-0.0638948
-0.838669
0.832841
0.0555387
-0.044418
-0.584373
0.573252
0.0338463
-0.0238919
-0.310502
0.300548
0.0170298
-0.0116163
-0.11726
0.111847
0.00793527
-0.00494546
-0.0239727
0.0209829
0.00282694
-0.00120436
0.00540763
-0.0070302
0.000317793
0.00337712
-0.00369492
-0.0814144
0.0788473
0.00256704
-0.00649616
0.005554
-0.416305
0.417247
-0.0020752
-0.0014468
-0.581453
0.584975
0.00571326
-0.0110911
-0.715529
0.720906
0.0174591
-0.0237323
-0.8378
0.844073
0.0305099
-0.0366194
-0.963618
0.969727
0.0431997
-0.0489643
-1.1058
1.11156
0.0548689
-0.0597193
-1.26566
1.27051
0.064204
-0.067327
-1.44493
1.44805
0.0694139
-0.0696025
-1.64604
1.64623
0.0684234
-0.0658293
-1.57404
1.57145
0.0626855
-0.0587495
-1.27441
1.27047
0.0548673
-0.0503112
-1.04203
1.03748
0.0457446
-0.0401617
-0.822814
0.817231
0.033384
-0.025215
-0.559921
0.551752
0.0184581
-0.0129503
-0.289306
0.283798
0.0095493
-0.00710859
-0.105563
0.103122
0.00536725
-0.00372148
-0.0173536
0.0157078
0.00235194
-0.00110756
0.00904128
-0.0102857
0.000331252
0.00415689
-0.00448814
-0.079868
0.0776448
0.00222323
-0.00659469
0.00622447
-0.42265
0.423021
-0.00417607
0.00134126
-0.59106
0.593895
0.00277458
-0.00735111
-0.726665
0.731242
0.0127756
-0.0181693
-0.849486
0.85488
0.0241274
-0.029525
-0.975429
0.980827
0.0354556
-0.0404207
-1.11699
1.12196
0.0455925
-0.0497908
-1.27499
1.27919
0.0535135
-0.0559412
-1.45079
1.45322
0.057236
-0.0570776
-1.64619
1.64603
0.0551668
-0.0520208
-1.56822
1.56508
0.0482475
-0.0436227
-1.26602
1.26139
0.0393347
-0.0339738
-1.03163
1.02627
0.0289105
-0.0235344
-0.807942
0.802566
0.0178921
-0.011906
-0.541667
0.535681
0.00778666
-0.00515475
-0.27675
0.274118
0.00409524
-0.0035036
-0.0994997
0.098908
0.00301172
-0.00241426
-0.0134797
0.0128823
0.00171105
-0.000905734
0.0117717
-0.012577
0.000303627
0.00489174
-0.00519536
-0.0786152
0.0768499
0.00176529
-0.00587053
0.00590461
-0.427242
0.427208
-0.00426169
0.00216787
-0.599363
0.601456
0.00163645
-0.00574972
-0.736232
0.740346
0.0108227
-0.015412
-0.859838
0.864427
0.0205763
-0.0252896
-0.986138
0.990851
0.0308044
-0.0351989
-1.1269
1.13129
0.0396521
-0.0434326
-1.28313
1.28691
0.0470094
-0.0489432
-1.45554
1.45748
0.0498373
-0.0490821
-1.64532
1.64456
0.0469762
-0.0430626
-1.56151
1.55759
0.039002
-0.0340351
-1.25629
1.25132
0.029146
-0.023504
-1.02007
1.01442
0.018042
-0.0124277
-0.793678
0.788064
0.00773077
-0.00309005
-0.527639
0.522998
0.000513113
0.000318019
-0.269516
0.268685
-0.000196183
-0.00027931
-0.0972063
0.0976818
0.000666509
-0.000918936
-0.0118628
0.0121152
0.000860805
-0.000560935
0.0134601
-0.01376
0.000227589
0.00548824
-0.00571582
-0.0778369
0.0764329
0.00140395
-0.00488647
0.00512015
-0.430737
0.430504
-0.00367516
0.00172992
-0.606476
0.608422
0.00182459
-0.00548643
-0.744719
0.748381
0.0097691
-0.0141188
-0.86895
0.8733
0.0188094
-0.0235731
-0.99531
1.00007
0.0282188
-0.032289
-1.13573
1.1398
0.0366965
-0.040043
-1.29048
1.29383
0.0428705
-0.0449232
-1.45921
1.46126
0.0455874
-0.0446608
-1.64372
1.64279
0.0421828
-0.0382405
-1.55368
1.54974
0.0339219
-0.0286146
-1.24574
1.24044
0.0234911
-0.0175073
-1.00795
1.00197
0.011842
-0.00630617
-0.77981
0.774274
0.00176545
0.00196763
-0.516179
0.512446
-0.0037397
0.00394727
-0.26547
0.265262
-0.00328616
0.00221728
-0.0971435
0.0982124
-0.0013036
0.000457096
-0.0120125
0.0128591
5.06096e-06
-0.000174635
0.0140146
-0.0138451
0.000118544
0.00585474
-0.00597328
-0.0775857
0.0763967
0.00118903
-0.00364357
0.00367648
-0.433738
0.433705
-0.00248555
0.000608065
-0.61289
0.614768
0.00265786
-0.00615539
-0.752509
0.756006
0.0101963
-0.0140735
-0.877436
0.881313
0.0188066
-0.0226764
-1.00419
1.00806
0.0271846
-0.0309649
-1.14398
1.14776
0.0351028
-0.0384728
-1.29707
1.30044
0.0413748
-0.0429571
-1.46296
1.46454
0.0436249
-0.0427024
-1.64164
1.64072
0.0404312
-0.036297
-1.5455
1.54137
0.0319465
-0.0265254
-1.235
1.22958
0.0213206
-0.0151513
-0.995253
0.989084
0.0094988
-0.003707
-0.766412
0.76062
-0.000589636
0.00400007
-0.506296
0.502886
-0.00569481
0.00572026
-0.262744
0.262718
-0.00496825
0.00373442
-0.098151
0.0993848
-0.00261227
0.00144613
-0.0133452
0.0145114
-0.00066792
0.000153357
0.0136081
-0.0130935
1.12747e-05
0.00596625
-0.00597753
-0.0776185
0.0767625
0.000855988
-0.00250521
0.0020774
-0.436735
0.437163
-0.00108308
-0.000844087
-0.618485
0.620412
0.00375153
-0.00707842
-0.759672
0.762999
0.0108994
-0.0148583
-0.885052
0.889011
0.0188974
-0.0228663
-1.0121
1.01607
0.0272487
-0.0307208
-1.15192
1.15539
0.0348341
-0.0380276
-1.30354
1.30673
0.040804
-0.0427251
-1.46645
1.46837
0.0436165
-0.0426747
-1.63971
1.63877
0.0402854
-0.0364933
-1.53726
1.53347
0.0323509
-0.0269364
-1.22387
1.21845
0.0216642
-0.0157376
-0.982481
0.976554
0.00974095
-0.00399825
-0.75307
0.747327
-0.000340999
0.00369853
-0.497122
0.493765
-0.00538626
0.00587649
-0.260342
0.259852
-0.00541693
0.00442778
-0.0995153
0.100504
-0.0033229
0.00208061
-0.0152496
0.0164919
-0.00113953
0.000410867
0.0125597
-0.011831
-7.57664e-05
0.00586523
-0.00578946
-0.0780672
0.077386
0.000681251
-0.00152898
0.00114131
-0.439894
0.440282
0.000358896
-0.0021231
-0.624098
0.625862
0.00517986
-0.00834979
-0.766252
0.769421
0.0119874
-0.015502
-0.892632
0.896146
0.0196205
-0.0232179
-1.02
1.0236
0.02748
-0.0313288
-1.15928
1.16313
0.0349811
-0.0384053
-1.30991
1.31334
0.0414774
-0.0433356
-1.4701
1.47196
0.0443952
-0.044001
-1.63795
1.63756
0.041807
-0.0383585
-1.52942
1.52597
0.0341944
-0.0290224
-1.21296
1.20779
0.0240062
-0.0180842
-0.969974
0.964052
0.0123588
-0.00652625
-0.740043
0.73421
0.00194549
0.00176529
-0.487865
0.484154
-0.00377034
0.00466492
-0.257441
0.256546
-0.00476098
0.00417318
-0.100415
0.101003
-0.0033226
0.00223911
-0.0172309
0.0183144
-0.00133105
0.000551087
0.0111467
-0.0103667
-0.000136805
0.00560282
-0.00546601
-0.0788189
0.0783176
0.000501336
-0.000443976
-0.000125731
-0.44319
0.443759
0.00148194
-0.00354573
-0.629274
0.631338
0.00652124
-0.00951829
-0.772532
0.775529
0.0132266
-0.0165665
-0.899632
0.902972
0.0204896
-0.024172
-1.02764
1.03133
0.0282921
-0.032051
-1.16679
1.17055
0.0358587
-0.0392368
-1.31663
1.32
0.0423951
-0.0449008
-1.47404
1.47655
0.0462515
-0.0459798
-1.637
1.63673
0.0442756
-0.0409452
-1.52231
1.51898
0.0371792
-0.0324242
-1.20248
1.19773
0.0273786
-0.0216254
-0.957699
0.951946
0.0160357
-0.0100701
-0.727213
0.721247
0.00533195
-0.00119524
-0.478483
0.474346
-0.00121961
0.00272089
-0.253691
0.252189
-0.00326791
0.00317385
-0.100464
0.100558
-0.00273966
0.0019806
-0.018837
0.0195961
-0.00125122
0.000559372
0.00970434
-0.00901249
-0.000149338
0.00524973
-0.00510039
-0.0798164
0.0794432
0.000373292
0.000433059