/*--------------------------------*- C++ -*----------------------------------*\
  =========                 |
  \\      /  F ield         | OpenFOAM: The Open Source CFD Toolbox
   \\    /   O peration     | Website:  https://openfoam.org
    \\  /    A nd           | Version:  6
     \\/     M anipulation  |
\*---------------------------------------------------------------------------*/
FoamFile
{
    version     2.0;
    format      ascii;
    class       volVectorField;
    location    "77";
    object      U;
}
// * * * * * * * * * * * * * * * * * * * * * * * * * * * * * * * * * * * * * //

dimensions      [0 1 -1 0 0 0 0];

internalField   nonuniform List<vector> 
8800
(
(0.987184 -0.0766658 0)
(1.00189 -0.055191 0)
(0.999723 -0.0285491 0)
(1.00003 -0.0151442 0)
(1.0001 -0.00854524 0)
(1.00012 -0.00504696 0)
(1.00007 -0.00300149 0)
(1.00003 -0.00170118 0)
(0.999996 -0.000794979 0)
(1.00006 -7.91373e-05 0)
(0.999967 0.000652014 0)
(0.999983 0.00142068 0)
(1.00004 0.00243767 0)
(1.00006 0.00400357 0)
(1.00004 0.00663513 0)
(1.00003 0.0113736 0)
(0.999923 0.0208162 0)
(0.99916 0.0386715 0)
(1.0071 0.0724576 0)
(0.771214 0.0366614 0)
(0.363071 -0.0160172 0)
(1.04331 -0.076816 0)
(1.08459 -0.0704472 0)
(1.04519 -0.0535429 0)
(1.02329 -0.0388948 0)
(1.01202 -0.0262171 0)
(1.00643 -0.0168557 0)
(1.00359 -0.0103237 0)
(1.00215 -0.00566275 0)
(1.00144 -0.00200274 0)
(1.00129 0.00132126 0)
(1.00166 0.00470698 0)
(1.00266 0.00863962 0)
(1.00467 0.0139655 0)
(1.0086 0.0216707 0)
(1.01655 0.0326391 0)
(1.03248 0.0465517 0)
(1.06266 0.061668 0)
(1.09187 0.0761022 0)
(0.838668 0.0565625 0)
(0.216849 -0.00242965 0)
(1.0759 -0.0501347 0)
(1.09988 -0.0483088 0)
(1.06464 -0.0404609 0)
(1.04004 -0.0336016 0)
(1.02392 -0.0260782 0)
(1.01412 -0.0184929 0)
(1.00856 -0.0116698 0)
(1.00558 -0.00579778 0)
(1.00431 -0.000376018 0)
(1.00464 0.0048737 0)
(1.00658 0.0102675 0)
(1.01061 0.0163504 0)
(1.01794 0.023365 0)
(1.03052 0.0308295 0)
(1.05061 0.0378581 0)
(1.08034 0.04454 0)
(1.10626 0.051353 0)
(0.942514 0.0416213 0)
(0.216139 0.00246212 0)
(0.17518 -0.000816282 0)
(1.0177 -0.0354819 0)
(1.1052 -0.0413751 0)
(1.07826 -0.0360573 0)
(1.05347 -0.03012 0)
(1.03621 -0.0245407 0)
(1.024 -0.018808 0)
(1.01588 -0.012723 0)
(1.01101 -0.00652907 0)
(1.0088 -0.000188703 0)
(1.00936 0.00607023 0)
(1.01262 0.0120729 0)
(1.01887 0.017897 0)
(1.02876 0.0234584 0)
(1.04318 0.028757 0)
(1.06371 0.0342373 0)
(1.09355 0.0402189 0)
(1.09339 0.0419768 0)
(0.827105 0.0229207 0)
(0.173982 0.000853716 0)
(0.153984 -0.000610093 0)
(0.956211 -0.0254532 0)
(1.10347 -0.0351188 0)
(1.08768 -0.0326384 0)
(1.06173 -0.0279809 0)
(1.04412 -0.0229514 0)
(1.03165 -0.0176983 0)
(1.02279 -0.0121593 0)
(1.01697 -0.00621484 0)
(1.0141 0.00026189 0)
(1.01476 0.00672751 0)
(1.01874 0.0126138 0)
(1.02579 0.0178939 0)
(1.03608 0.0227959 0)
(1.05063 0.0275525 0)
(1.07186 0.0320789 0)
(1.10005 0.0360082 0)
(1.06804 0.034058 0)
(0.739444 0.0143253 0)
(0.152178 0.000652593 0)
(0.139622 -0.000466206 0)
(0.899342 -0.0190675 0)
(1.09581 -0.0300616 0)
(1.09576 -0.0291637 0)
(1.06926 -0.0254249 0)
(1.05083 -0.0212771 0)
(1.0379 -0.0164951 0)
(1.02878 -0.0111984 0)
(1.02265 -0.00544335 0)
(1.01949 0.00089408 0)
(1.02009 0.00721099 0)
(1.02418 0.0128484 0)
(1.03136 0.0177957 0)
(1.04186 0.0222415 0)
(1.05697 0.0262036 0)
(1.07916 0.0296592 0)
(1.10224 0.0322768 0)
(1.03589 0.0281596 0)
(0.672802 0.0102281 0)
(0.137069 0.000515216 0)
(0.129095 -0.000360649 0)
(0.849802 -0.0147003 0)
(1.08346 -0.0259192 0)
(1.10146 -0.0261999 0)
(1.07613 -0.0229037 0)
(1.05717 -0.0192485 0)
(1.04378 -0.0149908 0)
(1.0343 -0.0100534 0)
(1.02792 -0.00450556 0)
(1.02457 0.00165643 0)
(1.02501 0.00776322 0)
(1.02906 0.0131226 0)
(1.03634 0.0176539 0)
(1.04711 0.0214916 0)
(1.06262 0.0247886 0)
(1.08525 0.0277222 0)
(1.1013 0.0294654 0)
(1.00088 0.023661 0)
(0.620861 0.00787024 0)
(0.125633 0.000418303 0)
(0.121071 -0.000279769 0)
(0.807734 -0.0115365 0)
(1.06823 -0.0222967 0)
(1.10502 -0.023545 0)
(1.08241 -0.0206583 0)
(1.06303 -0.0172143 0)
(1.04936 -0.0132599 0)
(1.0396 -0.00865645 0)
(1.03293 -0.00337709 0)
(1.02932 0.00256869 0)
(1.02957 0.00842864 0)
(1.03357 0.0134426 0)
(1.04091 0.0174986 0)
(1.05177 0.0208254 0)
(1.06749 0.0237103 0)
(1.09046 0.0263408 0)
(1.09746 0.0271832 0)
(0.965483 0.0201414 0)
(0.579063 0.00634349 0)
(0.116504 0.00034833 0)
(0.114863 -0.000216309 0)
(0.772363 -0.00916696 0)
(1.05154 -0.0191034 0)
(1.10744 -0.021083 0)
(1.08831 -0.0185621 0)
(1.06854 -0.0152587 0)
(1.05463 -0.0114627 0)
(1.04467 -0.00706453 0)
(1.03775 -0.00202016 0)
(1.03385 0.00367629 0)
(1.03386 0.00923753 0)
(1.03772 0.0138751 0)
(1.045 0.0175075 0)
(1.05585 0.020442 0)
(1.07176 0.0230013 0)
(1.09437 0.0252834 0)
(1.09076 0.0253056 0)
(0.930977 0.0174364 0)
(0.544384 0.00530569 0)
(0.108953 0.000298288 0)
(0.110038 -0.000165137 0)
(0.742752 -0.00732443 0)
(1.03446 -0.0162677 0)
(1.10893 -0.0187567 0)
(1.09392 -0.0165368 0)
(1.07387 -0.0133205 0)
(1.05969 -0.00960794 0)
(1.04954 -0.00532488 0)
(1.04238 -0.000448767 0)
(1.03818 0.00501251 0)
(1.03789 0.0102636 0)
(1.0415 0.0145394 0)
(1.04863 0.0177942 0)
(1.05943 0.0203805 0)
(1.07553 0.0226472 0)
(1.09698 0.0245445 0)
(1.08158 0.0237856 0)
(0.897916 0.0153961 0)
(0.514765 0.00458769 0)
(0.102497 0.000263481 0)
(0.106314 -0.000122475 0)
(0.718084 -0.00583459 0)
(1.0178 -0.0137176 0)
(1.10961 -0.0165019 0)
(1.09946 -0.0145473 0)
(1.07914 -0.0113355 0)
(1.06467 -0.00764667 0)
(1.05428 -0.00341901 0)
(1.04686 0.00135018 0)
(1.04231 0.00661569 0)
(1.04163 0.0115769 0)
(1.04493 0.0155157 0)
(1.05186 0.018409 0)
(1.06258 0.0206567 0)
(1.07885 0.0226567 0)
(1.09824 0.0241398 0)
(1.0703 0.0226271 0)
(0.866397 0.0139058 0)
(0.48874 0.00409987 0)
(0.0967904 0.00024093 0)
(0.103502 -8.53596e-05 0)
(0.697722 -0.00458119 0)
(1.0022 -0.0113856 0)
(1.10965 -0.0142831 0)
(1.10485 -0.0125097 0)
(1.08443 -0.00925532 0)
(1.06963 -0.00553063 0)
(1.05897 -0.00129575 0)
(1.05123 0.00342253 0)
(1.04626 0.00854395 0)
(1.0451 0.0132525 0)
(1.04802 0.0168745 0)
(1.0547 0.0194154 0)
(1.06532 0.0213298 0)
(1.08171 0.0230626 0)
(1.09844 0.0241636 0)
(1.05715 0.0218408 0)
(0.836241 0.0128779 0)
(0.465208 0.00378677 0)
(0.0915731 0.000228191 0)
(0.101487 -5.10902e-05 0)
(0.681201 -0.00347676 0)
(0.988104 -0.00920021 0)
(1.10925 -0.0120106 0)
(1.11008 -0.0103377 0)
(1.08981 -0.00701179 0)
(1.07466 -0.00318758 0)
(1.06368 0.0011196 0)
(1.05554 0.00585011 0)
(1.05006 0.0108773 0)
(1.04832 0.0153585 0)
(1.05077 0.0186713 0)
(1.05716 0.0208536 0)
(1.06765 0.0224327 0)
(1.08407 0.0238879 0)
(1.09764 0.0245744 0)
(1.04228 0.0214388 0)
(0.807085 0.0122419 0)
(0.443294 0.00361125 0)
(0.0866368 0.000223308 0)
(0.100207 -1.74164e-05 0)
(0.668223 -0.00245227 0)
(0.975883 -0.00708764 0)
(1.10875 -0.00962861 0)
(1.1153 -0.00797272 0)
(1.09537 -0.00453286 0)
(1.07984 -0.000547784 0)
(1.06846 0.0039008 0)
(1.05985 0.00871008 0)
(1.05373 0.0136983 0)
(1.05131 0.0179869 0)
(1.05321 0.0210028 0)
(1.05923 0.0228186 0)
(1.06955 0.0240511 0)
(1.08596 0.0252149 0)
(1.09562 0.0254123 0)
(1.02572 0.0214182 0)
(0.778478 0.0119438 0)
(0.422284 0.00354777 0)
(0.0818164 0.000224801 0)
(0.0996498 1.86221e-05 0)
(0.658644 -0.00145393 0)
(0.965858 -0.00497474 0)
(1.10848 -0.00707329 0)
(1.12063 -0.00534191 0)
(1.1012 -0.00173275 0)
(1.08525 0.00248679 0)
(1.07341 0.00714964 0)
(1.06421 0.0121053 0)
(1.05733 0.0171096 0)
(1.05407 0.0212317 0)
(1.0553 0.023954 0)
(1.06091 0.025397 0)
(1.07101 0.0262676 0)
(1.0873 0.0271076 0)
(1.09224 0.0267371 0)
(1.00741 0.021815 0)
(0.749912 0.0119603 0)
(0.401577 0.00358266 0)
(0.0769753 0.000232074 0)
(0.0998378 5.02141e-05 0)
(0.652457 -0.000430758 0)
(0.958336 -0.0027851 0)
(1.10877 -0.00427376 0)
(1.12625 -0.00235349 0)
(1.1074 0.00150165 0)
(1.09099 0.00603272 0)
(1.07859 0.0109882 0)
(1.06868 0.0161684 0)
(1.06088 0.0212431 0)
(1.05662 0.0252184 0)
(1.05705 0.0276453 0)
(1.06215 0.0287156 0)
(1.072 0.0291946 0)
(1.08784 0.0296551 0)
(1.08721 0.0286021 0)
(0.987135 0.0226717 0)
(0.720808 0.0122773 0)
(0.380615 0.00370804 0)
(0.0719878 0.000244429 0)
(0.100844 9.9574e-05 0)
(0.64978 0.000655911 0)
(0.953633 -0.000438471 0)
(1.11001 -0.00115441 0)
(1.13237 0.00107888 0)
(1.11408 0.00526797 0)
(1.09716 0.0102014 0)
(1.0841 0.0155441 0)
(1.07332 0.0210316 0)
(1.06441 0.0262456 0)
(1.05896 0.0301073 0)
(1.05843 0.0322194 0)
(1.06293 0.0328993 0)
(1.07246 0.032964 0)
(1.08745 0.0329988 0)
(1.08028 0.0311016 0)
(0.96457 0.0240157 0)
(0.69053 0.0128822 0)
(0.358878 0.00391426 0)
(0.0667444 0.000260949 0)
(0.10282 0.000155123 0)
(0.65091 0.00181073 0)
(0.952106 0.00213662 0)
(1.11264 0.00239227 0)
(1.13917 0.00508002 0)
(1.12141 0.00972967 0)
(1.10389 0.0151758 0)
(1.09004 0.0210075 0)
(1.07821 0.0268898 0)
(1.06795 0.0322913 0)
(1.06107 0.0360439 0)
(1.05942 0.0378026 0)
(1.0632 0.0380881 0)
(1.07233 0.0377007 0)
(1.08584 0.0372259 0)
(1.07116 0.0343257 0)
(0.939253 0.0258919 0)
(0.658393 0.0137705 0)
(0.335877 0.00419397 0)
(0.0611516 0.000280727 0)
(0.105854 0.000219002 0)
(0.656336 0.00327117 0)
(0.954195 0.00507137 0)
(1.11715 0.00651098 0)
(1.14693 0.0097989 0)
(1.12955 0.0150624 0)
(1.11134 0.021146 0)
(1.09651 0.0275877 0)
(1.0834 0.0339595 0)
(1.07151 0.0395971 0)
(1.06293 0.0432251 0)
(1.05998 0.0446027 0)
(1.06289 0.0444565 0)
(1.07155 0.0435691 0)
(1.08295 0.0425637 0)
(1.05943 0.0383848 0)
(0.910565 0.0283406 0)
(0.623652 0.0149296 0)
(0.311154 0.00453525 0)
(0.0551344 0.000302331 0)
(0.110237 0.000303944 0)
(0.666442 0.00497921 0)
(0.960403 0.00855078 0)
(1.12401 0.011354 0)
(1.15593 0.0154327 0)
(1.13872 0.0214905 0)
(1.11968 0.0283643 0)
(1.10365 0.0355488 0)
(1.08895 0.0425032 0)
(1.0751 0.0484192 0)
(1.06452 0.0518938 0)
(1.06004 0.0528245 0)
(1.06195 0.0521988 0)
(1.07003 0.0507506 0)
(1.07878 0.0491296 0)
(1.0445 0.0433928 0)
(0.877721 0.0313775 0)
(0.585512 0.0163293 0)
(0.284298 0.00491804 0)
(0.0486464 0.000323622 0)
(0.116313 0.000418046 0)
(0.682066 0.00711658 0)
(0.97141 0.0127556 0)
(1.13382 0.0171558 0)
(1.16653 0.0222581 0)
(1.14921 0.0293675 0)
(1.1291 0.0372089 0)
(1.11156 0.0452708 0)
(1.0949 0.052876 0)
(1.07867 0.0590383 0)
(1.06575 0.0622615 0)
(1.05943 0.0626379 0)
(1.06031 0.0615044 0)
(1.0678 0.0594307 0)
(1.07306 0.0570213 0)
(1.02565 0.0494194 0)
(0.83976 0.0349812 0)
(0.543173 0.0179069 0)
(0.255006 0.00530992 0)
(0.041686 0.000341609 0)
(0.12461 0.000577367 0)
(0.704118 0.00990817 0)
(0.988068 0.0179918 0)
(1.14724 0.0242569 0)
(1.17925 0.0306558 0)
(1.16132 0.0391248 0)
(1.13981 0.0481326 0)
(1.12032 0.0572026 0)
(1.10121 0.0654788 0)
(1.08213 0.0718013 0)
(1.06652 0.0746161 0)
(1.05814 0.0742893 0)
(1.05789 0.072535 0)
(1.06472 0.0697489 0)
(1.06529 0.0663325 0)
(1.00188 0.0565147 0)
(0.795559 0.0390666 0)
(0.495903 0.0195502 0)
(0.223156 0.00566307 0)
(0.0343151 0.000352466 0)
(0.135863 0.000807211 0)
(0.733925 0.0137456 0)
(1.01154 0.0247318 0)
(1.16506 0.0332089 0)
(1.1947 0.041227 0)
(1.17543 0.051437 0)
(1.15199 0.0618144 0)
(1.12996 0.0719591 0)
(1.10779 0.0808166 0)
(1.08534 0.0870712 0)
(1.06667 0.0892028 0)
(1.05609 0.0879898 0)
(1.05465 0.0855616 0)
(1.06036 0.0818729 0)
(1.05473 0.0772363 0)
(0.971911 0.064614 0)
(0.743878 0.0434246 0)
(0.443176 0.0210764 0)
(0.188917 0.00591196 0)
(0.0266781 0.000351784 0)
(0.151354 0.0011696 0)
(0.773486 0.0192478 0)
(1.04348 0.0337587 0)
(1.18822 0.0449539 0)
(1.21371 0.0552219 0)
(1.19189 0.0673887 0)
(1.16571 0.0792533 0)
(1.14031 0.0903582 0)
(1.11437 0.0994736 0)
(1.088 0.1052 0)
(1.066 0.106225 0)
(1.05309 0.103869 0)
(1.05048 0.100661 0)
(1.05453 0.0962027 0)
(1.04042 0.0897424 0)
(0.934076 0.0734715 0)
(0.683526 0.0476963 0)
(0.384923 0.0222268 0)
(0.152881 0.00597919 0)
(0.0190174 0.000335261 0)
(0.173287 0.00179624 0)
(0.826044 0.027557 0)
(1.08661 0.0466271 0)
(1.21788 0.0613644 0)
(1.23681 0.0745064 0)
(1.21078 0.0885989 0)
(1.18069 0.101767 0)
(1.15093 0.113341 0)
(1.12048 0.122041 0)
(1.08973 0.126537 0)
(1.06421 0.125877 0)
(1.04898 0.122026 0)
(1.04522 0.117831 0)
(1.04721 0.112404 0)
(1.02098 0.103689 0)
(0.886322 0.0825834 0)
(0.613714 0.0513301 0)
(0.32194 0.0226899 0)
(0.116214 0.00579017 0)
(0.0116781 0.000299153 0)
(0.205058 0.00317463 0)
(0.897381 0.041325 0)
(1.14435 0.0671689 0)
(1.25439 0.0860175 0)
(1.26375 0.101977 0)
(1.23146 0.117451 0)
(1.19608 0.130976 0)
(1.16099 0.141881 0)
(1.12543 0.149045 0)
(1.09004 0.151292 0)
(1.06099 0.148211 0)
(1.04359 0.142468 0)
(1.03876 0.137098 0)
(1.03774 0.130572 0)
(0.994403 0.118601 0)
(0.826279 0.091064 0)
(0.534874 0.0536178 0)
(0.256639 0.0222382 0)
(0.0809032 0.00531636 0)
(0.00515169 0.000239407 0)
(0.248405 0.00945437 9.3543e-21)
(0.991419 0.0685827 8.02414e-21)
(1.21429 0.102026 -2.80226e-21)
(1.29466 0.122642 0)
(1.29162 0.141332 -7.15006e-35)
(1.2517 0.156348 1.04575e-21)
(1.21029 0.168417 -1.88856e-21)
(1.16941 0.1772 0)
(1.12844 0.181731 3.89928e-35)
(1.08818 0.180933 -2.35455e-21)
(1.05545 0.174979 0)
(1.03585 0.167269 -2.81206e-21)
(1.0304 0.161051 -8.31089e-21)
(1.02453 0.153991 -3.93816e-21)
(0.955813 0.136787 -1.18707e-21)
(0.747077 0.0997529 -7.0549e-22)
(0.442061 0.0545591 0)
(0.18808 0.0211906 4.93918e-22)
(0.047133 0.00475801 5.84944e-22)
(-0.000588321 0.000142456 1.069e-20)
(0.278477 0.0248491 6.66128e-21)
(1.06935 0.111675 1.13335e-22)
(1.27198 0.151691 7.38042e-22)
(1.33099 0.172259 0)
(1.31615 0.191115 -3.5894e-21)
(1.26917 0.204019 -4.08663e-21)
(1.22183 0.213826 -1.89465e-21)
(1.17515 0.220196 -6.76202e-21)
(1.12866 0.222109 0)
(1.08325 0.218408 9.97113e-21)
(1.04657 0.209759 9.90925e-21)
(1.0246 0.200211 2.94498e-21)
(1.01667 0.192417 1.07809e-20)
(0.999888 0.182925 1.52097e-20)
(0.89348 0.157053 0)
(0.637846 0.10787 2.1456e-20)
(0.333009 0.0547141 3.07839e-20)
(0.117517 0.0192937 3.42554e-20)
(0.0140132 0.00304199 -3.92933e-20)
(-0.00609474 -0.000457303 -7.49572e-22)
(0.27999 0.0419567 0)
(1.11915 0.167388 1.10251e-21)
(1.31129 0.212421 0)
(1.35942 0.232666 -4.55483e-21)
(1.33554 0.248682 0)
(1.28262 0.257675 -7.95205e-21)
(1.22973 0.263737 3.8471e-21)
(1.17758 0.266535 -1.35303e-20)
(1.12588 0.264921 -3.22752e-22)
(1.07569 0.257609 5.13036e-21)
(1.03546 0.245779 2.17237e-20)
(1.01139 0.234085 -3.43858e-23)
(1.0007 0.224456 -7.81337e-21)
(0.972634 0.211303 -1.42391e-20)
(0.835532 0.176082 1.68822e-20)
(0.555965 0.114527 -2.98933e-20)
(0.265579 0.0544845 -3.94134e-21)
(0.077962 0.0172007 0)
(-0.00420109 0.000720646 -3.69116e-24)
(-0.00917438 -0.00124738 0)
(0.273345 0.0563105 1.32476e-20)
(1.1463 0.226782 -6.5965e-21)
(1.33582 0.277721 -5.26907e-21)
(1.37837 0.298361 2.11017e-21)
(1.34829 0.310548 -3.548e-21)
(1.29096 0.314962 1.65705e-20)
(1.23353 0.316552 7.98034e-21)
(1.17669 0.315072 0)
(1.12038 0.309276 -2.55457e-20)
(1.06593 0.297797 0)
(1.02251 0.282327 -1.13419e-20)
(0.996596 0.268127 -1.40583e-20)
(0.983261 0.256192 -8.47092e-21)
(0.945382 0.238335 -1.03023e-20)
(0.787355 0.193827 0)
(0.500225 0.121612 0)
(0.225835 0.0557242 -2.55546e-20)
(0.0538007 0.0152818 5.04784e-21)
(-0.0171434 -0.00215465 -2.97149e-21)
(-0.0118905 -0.00225676 -3.52026e-21)
(0.265333 0.0688876 -4.19581e-21)
(1.15833 0.286043 0)
(1.34944 0.343975 1.01414e-20)
(1.38888 0.365449 5.77289e-21)
(1.3545 0.373797 8.26325e-21)
(1.29398 0.373621 0)
(1.23304 0.3706 7.72825e-21)
(1.17238 0.364602 1.48548e-20)
(1.11217 0.354313 1.30186e-20)
(1.05397 0.338309 2.40165e-20)
(1.00769 0.318874 0)
(0.980034 0.301804 -3.0189e-20)
(0.964212 0.287122 -1.82031e-20)
(0.918628 0.264177 -1.07701e-20)
(0.748812 0.210892 6.59642e-20)
(0.464062 0.129534 7.83518e-21)
(0.202981 0.0578337 3.68884e-20)
(0.0388387 0.013264 -1.74463e-19)
(-0.0269218 -0.00554678 1.0334e-19)
(-0.0144606 -0.00348039 -1.26142e-19)
(0.25752 0.0801324 -6.16036e-22)
(1.16064 0.343231 7.06858e-22)
(1.35512 0.409297 -9.46782e-22)
(1.39261 0.431988 -5.39389e-21)
(1.35516 0.436697 -6.70248e-21)
(1.29224 0.432091 3.62127e-22)
(1.22856 0.424576 -8.36674e-21)
(1.16479 0.414096 1.52741e-20)
(1.10128 0.399268 -2.79531e-20)
(1.03977 0.378609 0)
(0.990848 0.355015 -1.36464e-20)
(0.961482 0.334782 -3.11416e-22)
(0.943336 0.317085 -1.98802e-20)
(0.892205 0.288991 0)
(0.717953 0.227777 -1.42522e-20)
(0.441088 0.138531 -3.38011e-20)
(0.190615 0.0607989 8.99865e-20)
(0.0305142 0.0115087 -8.86335e-20)
(-0.0337022 -0.00910188 1.26033e-19)
(-0.0167164 -0.00484647 -1.32621e-19)
(0.250767 0.0904435 -1.08997e-22)
(1.15681 0.397647 1.85232e-22)
(1.35506 0.47265 -1.85036e-21)
(1.39103 0.496818 1.93929e-21)
(1.35132 0.498227 -3.32222e-21)
(1.28659 0.489441 0)
(1.2207 0.477654 -7.67654e-21)
(1.15434 0.462858 -1.59497e-20)
(1.08797 0.443589 -1.44891e-20)
(1.0235 0.418316 0)
(0.972093 0.39047 -1.4092e-20)
(0.941002 0.366947 -1.74956e-20)
(0.920721 0.346069 2.15189e-20)
(0.865726 0.313034 -1.30528e-20)
(0.692343 0.24481 -6.20032e-20)
(0.426344 0.148565 3.67458e-20)
(0.185413 0.0649417 1.08925e-20)
(0.0277744 0.010472 0)
(-0.0371269 -0.0122747 -1.21517e-19)
(-0.0183499 -0.00620159 -4.51361e-21)
(0.245244 0.100163 6.11615e-22)
(1.14917 0.449119 -7.87553e-22)
(1.35073 0.533478 7.00064e-22)
(1.38537 0.559253 7.21397e-21)
(1.34395 0.557742 -1.18198e-20)
(1.27785 0.545105 1.50034e-20)
(1.21016 0.529337 1.65297e-20)
(1.14158 0.510467 -2.5466e-20)
(1.07266 0.486938 9.00084e-21)
(1.00547 0.457165 -5.88403e-20)
(0.951683 0.425116 -1.59596e-20)
(0.918852 0.398236 0)
(0.896592 0.374149 2.33389e-20)
(0.839032 0.336329 2.79758e-20)
(0.669563 0.262063 3.3402e-20)
(0.415594 0.159642 -3.98884e-20)
(0.18413 0.0700706 -1.18047e-20)
(0.0289078 0.0106224 1.38639e-20)
(-0.0372827 -0.0144797 0)
(-0.0190791 -0.00733706 -9.7926e-21)
(0.240861 0.109386 -1.1402e-20)
(1.13944 0.497724 5.80335e-21)
(1.34344 0.59164 -3.85393e-22)
(1.37666 0.618943 4.04389e-21)
(1.33387 0.614854 -5.05493e-21)
(1.26673 0.598712 -8.35887e-22)
(1.19756 0.579313 -1.81103e-20)
(1.12706 0.55667 -9.22621e-21)
(1.05584 0.529111 -2.51847e-20)
(0.986061 0.494999 6.52373e-23)
(0.929963 0.458863 -4.99513e-20)
(0.895363 0.42863 4.22572e-20)
(0.871174 0.401382 -2.56677e-20)
(0.811873 0.359039 3.08302e-20)
(0.647843 0.279273 0)
(0.406156 0.171357 -2.17091e-20)
(0.184102 0.0761898 7.0013e-23)
(0.032221 0.0120468 -6.0534e-20)
(-0.0350361 -0.015603 -8.91628e-21)
(-0.0189608 -0.00814767 0)
(0.237552 0.118369 0)
(1.12864 0.543697 6.9427e-21)
(1.33408 0.647409 1.55785e-21)
(1.3657 0.675729 -3.34661e-21)
(1.32179 0.669355 -6.76575e-21)
(1.25384 0.650062 0)
(1.18344 0.627385 -8.07891e-21)
(1.11124 0.60129 -2.12518e-22)
(1.03789 0.569992 5.40238e-20)
(0.965636 0.531746 -8.07792e-21)
(0.907258 0.491645 -3.61097e-20)
(0.870875 0.458122 2.19774e-20)
(0.844825 0.427756 -4.46249e-22)
(0.784272 0.381101 3.289e-20)
(0.626123 0.296046 2.0079e-20)
(0.396218 0.183204 -4.68492e-20)
(0.183944 0.082782 5.54413e-20)
(0.0362946 0.014402 1.64467e-20)
(-0.0313114 -0.0157333 6.79931e-20)
(-0.0182081 -0.00861817 -1.83925e-19)
(0.235225 0.127251 -4.2727e-21)
(1.11753 0.587217 5.38903e-21)
(1.32324 0.700279 -3.36266e-21)
(1.35315 0.729563 1.912e-21)
(1.3083 0.721149 0)
(1.23971 0.699041 -6.54754e-21)
(1.16827 0.673437 2.73664e-20)
(1.09455 0.644229 2.02208e-20)
(1.01921 0.609504 0)
(0.944548 0.567386 -1.16715e-19)
(0.883852 0.523433 9.79234e-20)
(0.845683 0.486704 0)
(0.817824 0.453263 3.01046e-20)
(0.756168 0.402396 -4.35943e-22)
(0.6036 0.312107 -6.47049e-20)
(0.384801 0.194667 2.52937e-20)
(0.182321 0.089396 0)
(0.0399175 0.0173651 8.89506e-20)
(-0.0269797 -0.0150429 0)
(-0.0170014 -0.00876845 -8.72461e-20)
(0.233759 0.136067 5.25239e-21)
(1.10656 0.628507 7.41129e-21)
(1.3114 0.75031 -3.22421e-21)
(1.33954 0.780466 0)
(1.29386 0.770228 -5.24452e-21)
(1.22478 0.745618 0)
(1.15244 0.717412 -2.67843e-20)
(1.07734 0.685429 -9.29252e-21)
(1.00012 0.647613 9.51932e-21)
(0.923059 0.60191 -5.78197e-20)
(0.859993 0.554251 1.01183e-20)
(0.820021 0.514341 0)
(0.790412 0.477796 -6.44737e-20)
(0.727653 0.422655 4.09584e-22)
(0.580044 0.327033 0)
(0.37159 0.205126 1.4344e-22)
(0.17858 0.0955465 8.14355e-20)
(0.0421769 0.0204165 -7.69945e-20)
(-0.0229767 -0.0139359 2.27906e-20)
(-0.0156327 -0.00868491 0)
(0.232805 0.144757 0)
(1.0959 0.667747 9.19544e-21)
(1.29898 0.797614 5.35828e-21)
(1.3253 0.82851 -5.22273e-22)
(1.27886 0.816624 -1.32876e-21)
(1.20939 0.789798 -1.4806e-20)
(1.13628 0.759301 1.01467e-20)
(1.05992 0.724865 -1.10962e-20)
(0.980886 0.684303 4.26919e-20)
(0.901405 0.635327 -9.27395e-20)
(0.835887 0.584129 -8.79387e-22)
(0.794053 0.54102 -2.82422e-20)
(0.762729 0.501207 1.04855e-19)
(0.698844 0.441622 -5.06975e-22)
(0.555109 0.340586 -5.05051e-20)
(0.356505 0.213964 -8.949e-20)
(0.172783 0.100692 0)
(0.0426977 0.0230168 0)
(-0.0198169 -0.0128288 2.464e-20)
(-0.0143155 -0.00849834 -1.4639e-20)
(0.232498 0.153492 7.67954e-21)
(1.08581 0.704777 -2.11529e-20)
(1.28629 0.842288 -5.76239e-21)
(1.31073 0.873778 0)
(1.26362 0.860398 -3.09285e-22)
(1.19384 0.831615 -1.31187e-20)
(1.12007 0.799116 2.42502e-20)
(1.04255 0.762539 4.34865e-20)
(0.961755 0.719581 5.5553e-20)
(0.879831 0.667674 -7.59346e-20)
(0.811709 0.613119 -8.48308e-20)
(0.767902 0.566745 7.57093e-20)
(0.734864 0.523382 0)
(0.669813 0.458946 -2.30753e-20)
(0.529419 0.352219 -5.46047e-20)
(0.339806 0.220932 -6.44657e-20)
(0.165104 0.104369 -7.61007e-20)
(0.0416591 0.0247288 2.25297e-20)
(-0.017597 -0.012001 -1.32828e-20)
(-0.0131604 -0.00829697 6.84126e-23)
(0.232406 0.162054 0)
(1.07644 0.740035 0)
(1.27355 0.884435 5.12423e-22)
(1.29607 0.916376 0)
(1.24836 0.901638 1.72831e-21)
(1.17835 0.871129 8.53548e-21)
(1.10401 0.836889 0)
(1.02542 0.798473 5.1257e-21)
(0.942944 0.753458 9.29083e-20)
(0.85853 0.698984 -1.75037e-19)
(0.787615 0.641299 0)
(0.741627 0.591548 -4.89435e-20)
(0.706794 0.544215 -5.94426e-22)
(0.640523 0.474319 -4.26528e-22)
(0.50312 0.361493 5.86686e-20)
(0.321923 0.225597 1.78658e-23)
(0.155916 0.10631 -1.64137e-19)
(0.03933 0.0254378 4.85004e-20)
(-0.0162356 -0.0115414 1.43905e-20)
(-0.0121801 -0.00810404 0)
(0.232569 0.170429 -3.16153e-20)
(1.06755 0.773636 -1.47299e-20)
(1.26084 0.924126 -1.82159e-20)
(1.28152 0.956412 1.50205e-20)
(1.23329 0.940417 -1.68017e-23)
(1.16311 0.908408 0)
(1.08829 0.87267 1.45697e-20)
(1.00873 0.832693 -1.15147e-20)
(0.924616 0.785954 8.00483e-22)
(0.837675 0.729296 1.29573e-20)
(0.76375 0.668752 1.10539e-19)
(0.715276 0.615545 -1.72055e-20)
(0.678423 0.563681 -6.50758e-20)
(0.610872 0.487456 -2.69771e-20)
(0.47644 0.36798 3.17944e-20)
(0.303069 0.227614 4.49519e-23)
(0.145934 0.106358 4.42477e-20)
(0.0361718 0.0251495 -1.0448e-19)
(-0.0154897 -0.011429 1.23955e-19)
(-0.0113619 -0.0079409 1.83013e-20)
(0.232646 0.178554 1.21278e-20)
(1.05913 0.805658 -8.37693e-21)
(1.24833 0.961486 1.30116e-21)
(1.26722 0.99401 1.04212e-20)
(1.21855 0.976848 1.38857e-21)
(1.14826 0.943524 -1.46326e-20)
(1.07304 0.906509 4.08866e-21)
(0.992586 0.86522 -4.80484e-20)
(0.906917 0.817072 -1.02906e-19)
(0.817431 0.758635 -1.04882e-19)
(0.740262 0.69557 0)
(0.68888 0.638889 -7.5914e-20)
(0.649608 0.581847 9.40816e-20)
(0.580632 0.498084 0)
(0.449435 0.371168 -6.82671e-20)
(0.284254 0.226498 4.04716e-20)
(0.136022 0.104282 -4.76471e-20)
(0.0330236 0.0240534 -5.628e-20)
(-0.0150617 -0.0114769 -9.99217e-20)
(-0.0107208 -0.0078122 -7.89166e-20)
(0.233115 0.186557 -1.38612e-20)
(1.05106 0.836094 8.9769e-21)
(1.23609 0.996581 2.0064e-20)
(1.25327 1.02925 1.57489e-20)
(1.20423 1.01102 -2.08186e-21)
(1.13389 0.976565 -7.41576e-21)
(1.05836 0.938458 1.38219e-20)
(0.977105 0.8961 -4.93893e-20)
(0.889952 0.846835 -6.11706e-20)
(0.797935 0.787024 1.10247e-19)
(0.717281 0.721841 2.4441e-19)
(0.662493 0.661767 0)
(0.62019 0.598882 0)
(0.549386 0.506084 -3.11244e-20)
(0.42185 0.370386 0)
(0.266087 0.221123 8.70004e-20)
(0.128175 0.0991785 1.02472e-19)
(0.0321553 0.0218584 0)
(-0.0139302 -0.0116232 0)
(-0.0103786 -0.00782218 8.4896e-20)
(0.233281 0.194115 1.59092e-20)
(1.04334 0.864943 1.25586e-20)
(1.22419 1.02953 1.46626e-20)
(1.23975 1.06226 -1.5768e-20)
(1.19042 1.04306 -3.69144e-21)
(1.12008 1.00761 6.84474e-21)
(1.04432 0.968578 -1.89589e-20)
(0.962362 0.92536 -1.57841e-22)
(0.873818 0.875252 -1.05034e-21)
(0.779297 0.814466 -8.3914e-22)
(0.694968 0.747639 1.26278e-19)
(0.636197 0.684351 0)
(0.590052 0.615072 9.59524e-20)
(0.516616 0.511591 6.67423e-20)
(0.392859 0.365149 1.59756e-19)
(0.248258 0.209593 4.69771e-20)
(0.124465 0.0874335 -5.51598e-20)
(0.0392317 0.0142534 -3.24963e-20)
(-0.00509209 -0.0136788 0)
(-0.00880079 -0.00771357 9.13366e-20)
(0.233844 0.20171 -3.62998e-20)
(1.03594 0.892335 0)
(1.21262 1.06037 1.75981e-20)
(1.22668 1.09313 -1.36117e-20)
(1.17718 1.07304 6.22273e-21)
(1.10688 1.03674 -5.8786e-21)
(1.03098 0.996923 3.6326e-20)
(0.948407 0.953034 -4.04312e-21)
(0.858568 0.902331 0)
(0.761616 0.840935 -1.22425e-19)
(0.673474 0.77301 -2.75775e-19)
(0.610115 0.70681 1.13261e-20)
(0.55918 0.630762 1.33213e-19)
(0.481872 0.515114 0)
(0.361017 0.355737 1.0817e-19)
(0.22806 0.190023 0)
(0.12289 0.0608057 0)
(0.0614945 -0.0173233 -3.51238e-20)
(0.0411296 -0.0309618 0)
(0.0239369 0.00319952 2.45116e-20)
(0.233999 0.208756 -4.08218e-20)
(1.02883 0.918514 0)
(1.20139 1.08932 2.96534e-20)
(1.21402 1.12209 0)
(1.16446 1.10125 -4.18138e-21)
(1.09422 1.06425 0)
(1.01827 1.0238 1.67614e-21)
(0.935144 0.979454 6.86396e-21)
(0.844082 0.928431 7.75837e-21)
(0.74472 0.866803 -1.34808e-19)
(0.652603 0.798407 8.29768e-21)
(0.583937 0.72981 9.16469e-20)
(0.527029 0.646777 1.30448e-19)
(0.444082 0.517389 1.75372e-20)
(0.324138 0.343571 8.51012e-20)
(0.199586 0.163003 0)
(0.109189 0.0147646 1.16243e-19)
(0.0632954 -0.051687 -6.8273e-20)
(0.0292512 0.0494453 7.98473e-20)
(-0.0385115 0.457759 -9.4869e-20)
(0.234127 0.21565 3.39855e-20)
(1.02178 0.943342 5.09779e-20)
(1.1904 1.1167 0)
(1.20164 1.1496 1.02706e-21)
(1.15208 1.12827 1.3133e-20)
(1.08183 1.09081 2.7214e-21)
(1.00587 1.05001 1.22732e-20)
(0.922151 1.00556 0)
(0.829813 0.954644 5.12156e-20)
(0.727907 0.893369 -7.01587e-21)
(0.631409 0.825319 0)
(0.556295 0.755022 0)
(0.491406 0.66437 1.17361e-19)
(0.400488 0.518754 -5.42739e-20)
(0.278833 0.330339 -8.66129e-20)
(0.157991 0.13137 0)
(0.0638283 0.037771 5.91448e-20)
(0.00501806 0.460336 -6.86904e-20)
(0.0300883 1.93216 -3.86493e-20)
(0.0565383 2.82733 -4.73713e-20)
(0.233933 0.222007 -2.57785e-20)
(1.01484 0.966992 -6.58904e-20)
(1.17969 1.14251 1.78606e-20)
(1.18953 1.17552 1.40733e-20)
(1.14009 1.15389 0)
(1.06982 1.11617 -3.67304e-22)
(0.993996 1.07524 1.61536e-20)
(0.909629 1.03092 -3.31126e-21)
(0.816055 0.980461 7.69138e-21)
(0.711585 0.920039 1.28898e-19)
(0.610536 0.853114 1.40775e-19)
(0.52818 0.782318 1.03698e-19)
(0.453072 0.683828 1.18713e-19)
(0.352225 0.518535 -1.28393e-19)
(0.230817 0.319899 -1.31456e-19)
(0.105675 0.188542 0)
(0.0377055 0.89358 0)
(0.0848365 2.5857 3.29306e-20)
(0.0878226 3.21397 0)
(0.0893723 3.39003 8.60102e-20)
(0.23654 0.227967 0)
(1.00833 0.989855 0)
(1.16894 1.16661 0)
(1.1775 1.19973 4.36933e-21)
(1.12815 1.17788 1.23039e-20)
(1.05798 1.14017 -2.96711e-21)
(0.982578 1.0994 1.01651e-20)
(0.897513 1.05541 -3.22341e-21)
(0.802744 1.0057 6.40316e-20)
(0.695746 0.946652 -1.73357e-21)
(0.590079 0.88158 2.79206e-19)
(0.499958 0.811789 -1.2028e-20)
(0.411906 0.706067 1.44931e-20)
(0.301118 0.51505 1.8677e-20)
(0.172042 0.337854 -6.09534e-22)
(0.0873456 1.0187 3.49776e-22)
(0.121287 2.76759 -1.75274e-19)
(0.125921 3.3018 -6.61997e-20)
(0.116999 3.42354 3.50913e-20)
(0.106989 3.44325 -3.96937e-20)
(0.159927 0.17372 1.59032e-20)
(0.997654 1.01467 0)
(1.15796 1.1892 -3.7177e-20)
(1.16596 1.22265 -3.9158e-20)
(1.11671 1.20071 3.06751e-20)
(1.04701 1.1633 4.16298e-21)
(0.971421 1.12248 -1.0199e-20)
(0.88583 1.07908 3.51936e-20)
(0.789955 1.03045 -5.26063e-20)
(0.680612 0.973327 0)
(0.570334 0.910786 1.3805e-19)
(0.472165 0.843227 -8.51782e-20)
(0.371051 0.735482 0)
(0.241579 0.512786 1.81767e-20)
(0.125494 0.744596 4.30473e-20)
(0.135942 2.57299 -4.87097e-20)
(0.183313 3.32816 5.5344e-20)
(0.166508 3.43333 2.98753e-20)
(0.138529 3.45214 3.39881e-20)
(0.119638 3.4609 5.43279e-20)
(0.271223 0.265788 -3.06177e-20)
(0.980225 1.0249 0)
(1.13972 1.21517 4.05015e-20)
(1.15117 1.25386 4.37912e-20)
(1.09909 1.23441 -3.54711e-20)
(1.02879 1.19736 -9.15168e-21)
(0.952011 1.15809 7.82454e-21)
(0.865818 1.11599 2.78083e-21)
(0.768425 1.06963 4.99555e-20)
(0.655927 1.01667 1.12061e-19)
(0.539454 0.960419 7.76757e-21)
(0.429015 0.896259 7.61545e-20)
(0.293851 0.766963 1.37922e-20)
(0.201931 0.909677 -1.7542e-20)
(0.207901 2.45075 -3.94795e-20)
(0.259022 3.3319 3.90563e-20)
(0.241928 3.45816 -4.29165e-20)
(0.207958 3.47703 -2.47452e-20)
(0.174635 3.50155 -2.25765e-20)
(0.129673 3.49667 -3.27994e-21)
(0.26145 0.264702 0)
(0.977353 1.04782 1.19718e-20)
(1.13092 1.23886 -8.40428e-21)
(1.14001 1.27754 -5.29107e-21)
(1.08787 1.25779 -2.49333e-20)
(1.01756 1.22094 9.94601e-21)
(0.940439 1.18188 -3.37739e-21)
(0.853955 1.14064 2.4713e-21)
(0.755857 1.09581 -5.19582e-20)
(0.641719 1.04585 -2.76093e-21)
(0.521706 0.99452 -2.50383e-19)
(0.404459 0.932875 1.09178e-20)
(0.27519 0.84036 -1.30874e-20)
(0.237388 1.54042 -1.61738e-20)
(0.300596 3.14391 3.67283e-21)
(0.313244 3.45983 2.1493e-22)
(0.271986 3.50686 6.42893e-20)
(0.238249 3.53037 3.27509e-20)
(0.192625 3.55047 -1.09035e-20)
(0.142811 3.54719 -1.65283e-20)
(0.247523 0.262777 3.0825e-20)
(0.973567 1.07329 8.13654e-20)
(1.12178 1.26464 -2.40133e-20)
(1.12847 1.30284 -1.98943e-20)
(1.07619 1.28264 0)
(1.00594 1.24582 2.04106e-20)
(0.928769 1.20705 -1.77149e-21)
(0.842252 1.16662 2.13699e-21)
(0.743761 1.12344 -5.81875e-21)
(0.628532 1.07678 -1.01386e-19)
(0.50594 1.03099 -1.15627e-19)
(0.382714 0.970839 -8.95402e-20)
(0.278201 0.987251 -9.85947e-20)
(0.303262 2.31487 1.01765e-19)
(0.38157 3.38775 8.64863e-20)
(0.352769 3.516 0)
(0.304992 3.55304 0)
(0.268463 3.58679 -8.64152e-21)
(0.22478 3.63184 0)
(0.155354 3.61673 -1.37859e-20)
(0.237745 0.264752 -4.61845e-20)
(0.967862 1.09964 -6.91738e-20)
(1.11127 1.29166 0)
(1.11569 1.32898 1.24901e-21)
(1.06326 1.30816 -2.78148e-20)
(0.993248 1.27129 3.45359e-20)
(0.916349 1.23283 6.8484e-22)
(0.830028 1.19314 1.08489e-21)
(0.731406 1.1516 -3.63063e-20)
(0.61553 1.10828 5.02774e-21)
(0.491342 1.06814 0)
(0.363252 1.01293 0)
(0.300502 1.28284 -8.96345e-20)
(0.382864 2.97559 3.65963e-20)
(0.446748 3.48647 4.69198e-20)