/*--------------------------------*- C++ -*----------------------------------*\
  =========                 |
  \\      /  F ield         | OpenFOAM: The Open Source CFD Toolbox
   \\    /   O peration     | Website:  https://openfoam.org
    \\  /    A nd           | Version:  6
     \\/     M anipulation  |
\*---------------------------------------------------------------------------*/
FoamFile
{
    version     2.0;
    format      ascii;
    class       surfaceScalarField;
    location    "41";
    object      phi;
}
// * * * * * * * * * * * * * * * * * * * * * * * * * * * * * * * * * * * * * //

dimensions      [0 3 -1 0 0 0 0];

internalField   nonuniform List<scalar> 
17370
(
-0.0900002
0.0898532
0.289158
-0.0714603
0.053755
0.364481
-0.0381224
0.0276965
0.426594
-0.0196467
0.0146134
0.504285
-0.0107686
0.00827463
0.601896
-0.00627249
0.00489728
0.720433
-0.00373941
0.0029064
0.86374
-0.00217256
0.00161795
1.036
-0.00110386
0.000693046
1.24291
-0.000286754
-0.000101832
1.49158
0.000477674
-0.00088255
1.4916
0.00127737
-0.00176813
1.24318
0.00230234
-0.00301885
1.03635
0.00384251
-0.00499539
0.864059
0.006367
-0.00836338
0.721054
0.01085
-0.0146859
0.603051
0.0197117
-0.0277542
0.507482
0.0381741
-0.0537985
0.431793
0.0714954
-0.0898762
0.365156
0.0900132
0.198998
-0.128128
0.0882061
0.0399216
-0.364586
0.353396
-0.0746948
0.0858849
-0.446475
0.454313
-0.0843926
0.0765543
-0.521183
0.529892
-0.068465
0.0597556
-0.612779
0.621558
-0.0515679
0.0427891
-0.726887
0.73415
-0.0353307
0.0280678
-0.867473
0.872568
-0.0224791
0.0173836
-1.03847
1.0419
-0.0135927
0.0101607
-1.2446
1.24702
-0.00756186
0.00513964
-1.49263
1.4946
-0.00320036
0.00123172
-1.4925
1.49422
0.000452823
-0.00217524
-1.24398
1.24587
0.00407997
-0.0059631
-1.03751
1.04005
0.00832004
-0.0108555
-0.866105
0.869844
0.0142207
-0.0179601
-0.724396
0.729948
0.0230106
-0.0285624
-0.608704
0.616121
0.035784
-0.0432015
-0.514902
0.52305
0.0519344
-0.0600823
-0.43986
0.447917
0.0687507
-0.076808
-0.375306
0.376749
0.0846131
-0.0860564
-0.257336
0.222492
0.0748121
-0.0399679
-0.0684975
0.0586696
0.00982786
-0.0518502
0.058447
-0.37411
0.367514
-0.05754
0.053793
-0.453584
0.457331
-0.0487045
0.0447519
-0.52793
0.531883
-0.0409111
0.0372738
-0.621543
0.62518
-0.0331783
0.0291159
-0.735327
0.73939
-0.0245668
0.0204281
-0.874315
0.878454
-0.0161041
0.0124268
-1.04346
1.04714
-0.00870908
0.00555247
-1.24855
1.2517
-0.00224044
-0.000825615
-1.49665
1.49972
0.00386912
-0.00712645
-1.49721
1.50047
0.0102037
-0.013813
-1.25008
1.25369
0.0173832
-0.0215925
-1.04594
1.05015
0.0256368
-0.0300961
-0.877779
0.882238
0.0340846
-0.0381016
-0.73992
0.743937
0.041666
-0.0454271
-0.626797
0.630558
0.0493116
-0.0543355
-0.534831
0.539854
0.0580171
-0.0588414
-0.457498
0.458323
0.0521515
-0.0319612
-0.335793
0.315603
0.00987745
-0.0683659
0.0584884
-0.0529129
0.0489108
0.00400211
-0.0332051
0.0437688
-0.358062
0.347499
-0.0474824
0.0468655
-0.459255
0.459872
-0.0438185
0.0404726
-0.53577
0.539116
-0.0367079
0.0334128
-0.62849
0.631785
-0.0299888
0.026975
-0.742604
0.745618
-0.0237405
0.0206556
-0.881968
0.885053
-0.0171483
0.0137892
-1.05072
1.05408
-0.0100195
0.00650148
-1.25512
1.25864
-0.00255382
-0.00122805
-1.50322
1.507
0.00498218
-0.00884633
-1.50414
1.508
0.0122536
-0.0158725
-1.25745
1.26107
0.0190796
-0.022418
-1.05396
1.0573
0.0253604
-0.0284574
-0.88574
0.888837
0.0313591
-0.0346678
-0.747209
0.750517
0.0378587
-0.0415116
-0.63436
0.638013
0.0447613
-0.0477017
-0.544179
0.54712
0.0482098
-0.0443449
-0.456625
0.45276
0.033603
-0.0161883
-0.296268
0.278853
0.00406217
-0.0526784
0.0486163
-0.0458258
0.0433225
0.00250328
-0.022861
0.0332674
-0.336785
0.326378
-0.0391135
0.0401465
-0.45954
0.458507
-0.0389699
0.0366921
-0.541819
0.544096
-0.0340348
0.0314517
-0.634815
0.637398
-0.0284095
0.0255366
-0.74865
0.751523
-0.022307
0.0193448
-0.88799
0.890953
-0.0160715
0.0129985
-1.05719
1.06026
-0.00950067
0.00611673
-1.26208
1.26546
-0.00218014
-0.00168191
-1.51087
1.51473
0.00550703
-0.00933497
-1.5119
1.51573
0.0125707
-0.0158693
-1.26452
1.26782
0.0187416
-0.0217901
-1.06041
1.06346
0.0245592
-0.0275992
-0.891904
0.894944
0.0303176
-0.0332021
-0.753739
0.756623
0.0356451
-0.0381547
-0.641101
0.643611
0.0403062
-0.0413199
-0.548947
0.54996
0.0401208
-0.0340347
-0.447512
0.441426
0.0233691
-0.010196
-0.263675
0.250502
0.00257709
-0.0454655
0.0428884
-0.0412393
0.0394635
0.0017758
-0.0168091
0.026095
-0.316494
0.307208
-0.0327359
0.0349017
-0.456882
0.454716
-0.0345033
0.0328517
-0.546052
0.547704
-0.0306912
0.0286187
-0.639678
0.641751
-0.0262189
0.0238562
-0.754145
0.756508
-0.021039
0.0182847
-0.893823
0.896578
-0.0150851
0.0120488
-1.06328
1.06631
-0.00859461
0.00530107
-1.26876
1.27205
-0.00149786
-0.00221129
-1.5185
1.52221
0.00587384
-0.00953722
-1.51947
1.52313
0.0126418
-0.0158423
-1.27109
1.27429
0.0186234
-0.0215368
-1.0665
1.06941
0.0240401
-0.0266057
-0.897775
0.900341
0.0287632
-0.0309581
-0.759092
0.761287
0.0328542
-0.0348294
-0.645791
0.647766
0.0363019
-0.0364814
-0.550508
0.550687
0.0340623
-0.0270732
-0.434811
0.427822
0.0174403
-0.00735526
-0.239026
0.228941
0.00186562
-0.0407251
0.0388595
-0.0379323
0.0365934
0.00133889
-0.0128546
0.0208398
-0.298577
0.290592
-0.0276335
0.0305894
-0.452124
0.449168
-0.0308219
0.0297258
-0.549107
0.550203
-0.0277535
0.0258618
-0.643756
0.645648
-0.0236983
0.0216026
-0.758719
0.760814
-0.0191394
0.0167047
-0.899114
0.901549
-0.013816
0.0109851
-1.0692
1.07203
-0.0076727
0.00447319
-1.27527
1.27847
-0.000760712
-0.00284433
-1.52585
1.52945
0.00639137
-0.0099273
-1.52674
1.53028
0.0128899
-0.0158858
-1.27743
1.28043
0.0183994
-0.0209282
-1.07215
1.07468
0.0230422
-0.0251784
-0.902655
0.904791
0.0270055
-0.028906
-0.763297
0.765197
0.030578
-0.0323323
-0.649612
0.651366
0.0331728
-0.0326367
-0.550521
0.549985
0.0293223
-0.0220557
-0.420642
0.413375
0.0136276
-0.00567579
-0.220027
0.212075
0.00144757
-0.0372306
0.0357831
-0.0354228
0.0343878
0.00103496
-0.0100632
0.0168215
-0.283246
0.276488
-0.0233567
0.0267751
-0.445961
0.442543
-0.0275991
0.0269337
-0.551074
0.551739
-0.0252103
0.0234619
-0.647509
0.649258
-0.0214395
0.0194715
-0.762849
0.764817
-0.0171546
0.0148753
-0.903837
0.906116
-0.0121883
0.00955319
-1.07469
1.07733
-0.00645346
0.00342344
-1.28154
1.28457
0.000130332
-0.0035989
-1.53297
1.53644
0.0069955
-0.0103333
-1.53373
1.53707
0.0130729
-0.0157833
-1.28331
1.28602
0.0180266
-0.0202671
-1.07707
1.07931
0.0221475
-0.0240563
-0.906804
0.908712
0.0256871
-0.0273793
-0.766979
0.768672
0.0288531
-0.0302729
-0.652978
0.654398
0.0306166
-0.0293752
-0.54911
0.547869
0.0254681
-0.0183166
-0.406145
0.398994
0.011006
-0.00455384
-0.204945
0.198493
0.00116673
-0.0344936
0.0333269
-0.0334786
0.0326697
0.000808969
-0.0079916
0.0136784
-0.270297
0.26461
-0.0197319
0.023353
-0.439015
0.435394
-0.0246629
0.0242543
-0.552309
0.552717
-0.0228085
0.0211789
-0.650992
0.652622
-0.0192599
0.0173868
-0.766737
0.76861
-0.0151758
0.0130009
-0.908277
0.910452
-0.0104402
0.00793567
-1.07982
1.08232
-0.00499876
0.00212766
-1.28747
1.29034
0.00123816
-0.00452077
-1.5398
1.54308
0.00771364
-0.0108114
-1.54029
1.54339
0.0133231
-0.0157836
-1.28863
1.29109
0.0178076
-0.0198165
-1.08146
1.08347
0.0214938
-0.0231923
-0.91052
0.912218
0.0246435
-0.0261516
-0.770252
0.77176
0.0274443
-0.0285096
-0.655618
0.656684
0.0284997
-0.0266167
-0.546313
0.54443
0.0223499
-0.0155119
-0.391996
0.385158
0.00914243
-0.00376758
-0.192631
0.187256
0.00096946
-0.0322731
0.0313036
-0.0319594
0.0313256
0.000633803
-0.00639057
0.0111612
-0.259412
0.254642
-0.0166287
0.0202588
-0.431776
0.428146
-0.0219048
0.0217323
-0.553054
0.553227
-0.0205286
0.0189616
-0.654269
0.655836
-0.0171066
0.0152927
-0.770443
0.772257
-0.0131542
0.0110526
-0.912501
0.914603
-0.00858104
0.00616879
-1.0847
1.08711
-0.00334956
0.000610832
-1.29309
1.29583
0.0025702
-0.00564105
-1.54622
1.54929
0.00860436
-0.0114631
-1.54637
1.54923
0.0137668
-0.016006
-1.29347
1.29571
0.0178349
-0.0196362
-1.08539
1.0872
0.0211259
-0.0226246
-0.913826
0.915325
0.023908
-0.0252504
-0.773174
0.774517
0.0264105
-0.0270878
-0.657538
0.658215
0.0267244
-0.0243206
-0.542309
0.539905
0.0198546
-0.0134026
-0.378525
0.372073
0.00779267
-0.00320513
-0.182317
0.177729
0.000828829
-0.0304183
0.0295894
-0.0307732
0.0302822
0.000491012
-0.00509493
0.00907068
-0.2503
0.246324
-0.0139007
0.0173865
-0.424605
0.421119
-0.0192316
0.0192727
-0.553345
0.553304
-0.018291
0.0167856
-0.657438
0.658943
-0.0149747
0.01319
-0.774037
0.775822
-0.0110824
0.00901735
-0.91659
0.918655
-0.00660091
0.00425779
-1.0894
1.09174
-0.00153606
-0.0010891
-1.29845
1.30107
0.00411575
-0.00700822
-1.55223
1.55512
0.00976996
-0.0124033
-1.55197
1.5546
0.0144997
-0.016516
-1.29788
1.29989
0.0181466
-0.0197424
-1.08893
1.09053
0.0210586
-0.0223809
-0.916759
0.918081
0.0235117
-0.0246872
-0.77576
0.776936
0.0256549
-0.025975
-0.658684
0.659004
0.0252445
-0.0224159
-0.537309
0.534481
0.0178658
-0.0118116
-0.365842
0.359788
0.00680621
-0.00280054
-0.173469
0.169463
0.000728988
-0.0288236
0.0280946
-0.0298601
0.02949
0.000370095
-0.00400456
0.00727839
-0.242728
0.239454
-0.0114561
0.0146825
-0.417791
0.414565
-0.016588
0.0167897
-0.553248
0.553046
-0.0158937
0.0144713
-0.660476
0.661898
-0.0126731
0.0108989
-0.777572
0.779346
-0.00881536
0.00678754
-0.920589
0.922617
-0.00442449
0.00214066
-1.09395
1.09624
0.00050367
-0.00303948
-1.30358
1.30612
0.00594259
-0.00868789
-1.5579
1.56065
0.0112747
-0.0137006
-1.55713
1.55955
0.0155955
-0.0173855
-1.30183
1.30362
0.0188116
-0.0201869
-1.09204
1.09342
0.0213069
-0.0224313
-0.91933
0.920454
0.0233981
-0.0243991
-0.778031
0.779032
0.0251283
-0.0251821
-0.659191
0.659245
0.0240736
-0.0208988
-0.531501
0.528326
0.0163287
-0.0106349
-0.353944
0.34825
0.00609782
-0.00251731
-0.165704
0.162124
0.000661413
-0.0274135
0.0267521
-0.0291809
0.0289189
0.000261956
-0.00304329
0.00567911
-0.236526
0.23389
-0.00920078
0.0120865
-0.411542
0.408656
-0.0139519
0.0142607
-0.552869
0.552561
-0.0134402
0.0120872
-0.663368
0.664721
-0.0102875
0.00848931
-0.78109
0.782889
-0.00637574
0.00432725
-0.924527
0.926575
-0.00195713
-0.000314091
-1.0984
1.10067
0.00291571
-0.00537926
-1.30854
1.31101
0.00815692
-0.0107404
-1.56326
1.56584
0.0131308
-0.015328
-1.56186
1.56405
0.0170099
-0.018567
-1.30534
1.3069
0.0197872
-0.0209531
-1.09472
1.09589
0.0218963
-0.0228431
-0.921518
0.922465
0.0236573
-0.0244726
-0.779954
0.780769
0.0249397
-0.0247272
-0.659134
0.658921
0.0232398
-0.0197489
-0.525026
0.521535
0.0151787
-0.00978561
-0.342748
0.337354
0.00560199
-0.00232583
-0.158731
0.155455
0.000618045
-0.0261282
0.0255101
-0.0287144
0.0285564
0.000158009
-0.00213975
0.0041671
-0.231583
0.229556
-0.00701704
0.00948127
-0.40602
0.403555
-0.0111886
0.0115219
-0.552333
0.551999
-0.0107468
0.00943542
-0.666144
0.667455
-0.00762117
0.0057832
-0.784651
0.786489
-0.00361833
0.00152831
-0.928505
0.930595
0.000871263
-0.00314629
-1.10283
1.1051
0.00572204
-0.00813477
-1.31336
1.31577
0.0108201
-0.0132731
-1.56831
1.57076
0.0154891
-0.0174612
-1.56612
1.5681
0.0189227
-0.0202353
-1.30837
1.30969
0.021238
-0.0221723
-1.09699
1.09792
0.0229134
-0.0236386
-0.923348
0.924074
0.0242568
-0.0248791
-0.781503
0.782125
0.0250389
-0.0245215
-0.658486
0.657968
0.0226649
-0.0189015
-0.517956
0.514192
0.0143422
-0.00919091
-0.332134
0.326983
0.00526875
-0.00220486
-0.152323
0.149259
0.000593667
-0.0249213
0.0243277
-0.0284547
0.0284027
5.20196e-05
-0.00124353
0.00266893
-0.227847
0.226422
-0.004827
0.00680211
-0.401382
0.399407
-0.00824274
0.00850891
-0.551822
0.551556
-0.00771831
0.00639783
-0.66888
0.6702
-0.00452543
0.00262494
-0.788288
0.790188
-0.000395784
-0.00174324
-0.932549
0.934688
0.0041868
-0.00649012
-1.10726
1.10956
0.00907475
-0.0114608
-1.31808
1.32046
0.0140586
-0.0163665
-1.57308
1.57539
0.0183836
-0.020117
-1.56993
1.57167
0.0213436
-0.0223877
-1.31091
1.31195
0.0231365
-0.0237858
-1.09876
1.09941
0.0242695
-0.0247467
-0.924735
0.925212
0.0251819
-0.0256268
-0.782642
0.783087
0.0255013
-0.0246321
-0.657163
0.656294
0.022408
-0.0183803
-0.510372
0.506344
0.0138105
-0.00882642
-0.321985
0.317001
0.00507921
-0.0021466
-0.146306
0.143374
0.000586421
-0.0237582
0.0231718
-0.0284062
0.0284612
-5.49541e-05
-0.000325685
0.00113488
-0.225312
0.224503
-0.00256401
0.00398186
-0.397758
0.39634
-0.00506152
0.00519308
-0.551512
0.55138
-0.00435623
0.00299654
-0.671676
0.673036
-0.00105673
-0.000932242
-0.792048
0.794037
0.0032717
-0.00551226
-0.93669
0.938931
0.00806179
-0.0104436
-1.11174
1.11413
0.0130782
-0.0154604
-1.32274
1.32512
0.0179912
-0.0201613
-1.57756
1.57973
0.021987
-0.023466
-1.57325
1.57473
0.0244425
-0.0252013
-1.3129
1.31366
0.0256896
-0.0260578
-1.09999
1.10036
0.0262787
-0.0264777
-0.92563
0.925829
0.0266841
-0.0268273
-0.78327
0.783413
0.026439
-0.0251236
-0.655104
0.653789
0.0224921
-0.0181746
-0.502287
0.497969
0.013557
-0.00866768
-0.31215
0.307261
0.00501855
-0.00214549
-0.140523
0.13765
0.000595291
-0.0226039
0.0220086
-0.028584
0.0287675
-0.000183532
0.000634976
-0.000492751
-0.224005
0.223863
-0.000146896
0.000924272
-0.395281
0.394504
-0.00153236
0.00143953
-0.551548
0.551641
-0.00049871
-0.000944615
-0.674595
0.676039
0.0029854
-0.00510621
-0.795989
0.79811
0.00761024
-0.00999727
-0.941041
0.943428
0.0126832
-0.015161
-1.11639
1.11886
0.0178656
-0.0202707
-1.32739
1.3298
0.0227644
-0.0248276
-1.58176
1.58383
0.0264531
-0.0276654
-1.57605
1.57726
0.0283589
-0.0287698
-1.31429
1.31471
0.0289373
-0.0289719
-1.10063
1.10067
0.0289082
-0.0288112
-0.925955
0.925858
0.0287531
-0.0285419
-0.783194
0.782983
0.0278323
-0.0259807
-0.652195
0.650344
0.0229293
-0.0183102
-0.493655
0.489036
0.0135993
-0.00871949
-0.302481
0.297601
0.0050862
-0.00219995
-0.134832
0.131946
0.000619249
-0.0214282
0.0208089
-0.0290224
0.0293489
-0.000326531
0.00173258
-0.00224442
-0.224039
0.224551
0.0024769
-0.00244192
-0.394125
0.39409
0.00245546
-0.00290991
-0.552161
0.552615
0.00405103
-0.00566117
-0.677745
0.679355
0.00789012
-0.0101917
-0.80019
0.802492
0.0128901
-0.0154427
-0.945666
0.948218
0.0182973
-0.0209082
-1.12121
1.12382
0.0237205
-0.026171
-1.33209
1.33454
0.0286236
-0.0305437
-1.58574
1.58766
0.0319346
-0.0328105
-1.57826
1.57914
0.0331783
-0.0332036
-1.31497
1.31499
0.0330176
-0.0326698
-1.10056
1.10021
0.0322688
-0.0318209
-0.925629
0.925181
0.0314674
-0.0308355
-0.782343
0.781711
0.0297105
-0.0272965
-0.648301
0.645887
0.0237893
-0.0188163
-0.484447
0.479474
0.013941
-0.0089774
-0.292809
0.287845
0.00527876
-0.0023089
-0.129091
0.126121
0.00065827
-0.0202012
0.019543
-0.029751
0.0302495
-0.000498491
0.00298223
-0.00428104
-0.225468
0.226767
0.00543849
-0.00624356
-0.394469
0.395274
0.0069932
-0.00788424
-0.55361
0.554501
0.00930851
-0.011142
-0.681294
0.683127
0.0136239
-0.0161657
-0.804749
0.80729
0.0191336
-0.0219257
-0.950625
0.953417
0.0250277
-0.0278361
-1.12632
1.12913
0.0308117
-0.0333382
-1.33686
1.33939
0.0357722
-0.0375448
-1.58939
1.59116
0.0386821
-0.0391951
-1.57978
1.58029
0.0391936
-0.0388035
-1.31483
1.31444
0.0382113
-0.0374244
-1.09964
1.09886
0.0366322
-0.0357683
-0.924521
0.923657
0.0350509
-0.0339018
-0.780573
0.779424
0.0322778
-0.0292358
-0.643352
0.64031
0.0251924
-0.0197728
-0.47454
0.46912
0.0146359
-0.0094715
-0.28294
0.277775
0.00561008
-0.00247603
-0.123156
0.120022
0.000712719
-0.018893
0.0181803
-0.0308362
0.0315599
-0.000723684
0.0045119
-0.00670464
-0.22851
0.230703
0.00891739
-0.0106218
-0.396496
0.398201
0.0122165
-0.0136637
-0.556082
0.557529
0.0154818
-0.0176111
-0.685343
0.687472
0.0204326
-0.0233072
-0.809792
0.812666
0.0266564
-0.029788
-0.956083
0.959215
0.0332282
-0.0362934
-1.13183
1.13489
0.0394738
-0.0420988
-1.34179
1.34441
0.0445186
-0.0461409
-1.59275
1.59437
0.0469787
-0.0470681
-1.58054
1.58062
0.0466093
-0.0457259
-1.31378
1.3129
0.0446732
-0.0433942
-1.09778
1.0965
0.0421702
-0.0408418
-0.922495
0.921167
0.0396396
-0.0379185
-0.777746
0.776025
0.0356596
-0.0318836
-0.637166
0.63339
0.0272218
-0.0212523
-0.463752
0.457783
0.0157327
-0.010225
-0.272633
0.267126
0.00608689
-0.00269893
-0.116863
0.113475
0.000779505
-0.0174741
0.0166946
-0.0323705
0.0333852
-0.0010147
0.0064073
-0.00966884
-0.233365
0.236627
0.0131241
-0.0158826
-0.400492
0.403251
0.01844
-0.0205716
-0.559845
0.561976
0.0229483
-0.025519
-0.690084
0.692655
0.0288309
-0.0321532
-0.815508
0.818831
0.0359834
-0.0395282
-0.962228
0.965772
0.0433757
-0.0467484
-1.13785
1.14123
0.050166
-0.052883
-1.34689
1.34961
0.0552336
-0.0566105
-1.59574
1.59711
0.0570505
-0.0566199
-1.58037
1.57994
0.0556503
-0.0541821
-1.31166
1.31019
0.0526124
-0.0507729
-1.09485
1.09301
0.049058
-0.0471955
-0.919441
0.917578
0.0454547
-0.0430935
-0.773762
0.771401
0.0401166
-0.0355077
-0.629542
0.624933
0.0301102
-0.0234265
-0.451863
0.445179
0.0173516
-0.0113099
-0.26159
0.255548
0.00674565
-0.00298873
-0.110025
0.106268
0.000859875
-0.0159203
0.0150604
-0.0344773
0.0358829
-0.00140562
0.00883378
-0.0133869
-0.240341
0.244894
0.0182743
-0.0222172
-0.406772
0.410715
0.0258693
-0.0288383
-0.565239
0.568208
0.0319798
-0.0351866
-0.695833
0.69904
0.0391816
-0.0430922
-0.822118
0.826029
0.0475222
-0.051567
-0.969199
0.973244
0.0558943
-0.0596157
-1.14449
1.14821
0.0632853
-0.0660798
-1.35215
1.35494
0.0683061
-0.0693533
-1.59818
1.59923
0.0692982
-0.0682354
-1.57911
1.57804
0.0666464
-0.0644748
-1.30825
1.30608
0.0622939
-0.059836
-1.09068
1.08822
0.0575794
-0.0551572
-0.915225
0.912802
0.0528083
-0.0497647
-0.768487
0.765443
0.0459839
-0.0403913
-0.620271
0.614678
0.0340881
-0.0264726
-0.438532
0.430917
0.019617
-0.012793
-0.249413
0.242589
0.00761639
-0.00335486
-0.102404
0.0981422
0.000955777
-0.0142041
0.0132484
-0.0373381
0.039301
-0.00196289
0.0121261
-0.0183006
-0.24985
0.256024
0.0248785
-0.0301812
-0.415737
0.42104
0.0351023
-0.0390857
-0.572632
0.576615
0.0431925
-0.0472441
-0.702979
0.707031
0.0521522
-0.0568276
-0.829911
0.834587
0.0620163
-0.0666666
-0.9772
0.981851
0.0715414
-0.0756197
-1.15181
1.15588
0.0794871
-0.0822599
-1.35749
1.36027
0.0842181
-0.0847736
-1.59987
1.60043
0.0840596
-0.0821907
-1.57648
1.57462
0.0798412
-0.0768618
-1.30337
1.30039
0.073984
-0.0708087
-1.0851
1.08193
0.067968
-0.0649604
-0.909757
0.906749
0.061956
-0.0581308
-0.76182
0.757995
0.0534203
-0.0466746
-0.609045
0.602299
0.0392699
-0.0304555
-0.423328
0.414514
0.0225405
-0.0146498
-0.235603
0.227712
0.00867016
-0.00378113
-0.0937352
0.0888462
0.00106251
-0.0122963
0.0112338
-0.0412565
0.0440806
-0.00282417
0.0169224
-0.0252288
-0.262554
0.27086
0.0338782
-0.0408071
-0.427991
0.43492
0.0472345
-0.0524616
-0.582456
0.587683
0.0578273
-0.0630056
-0.711941
0.717119
0.0690292
-0.0746006
-0.839217
0.844788
0.0806345
-0.0859041
-0.986411
0.99168
0.0912592
-0.0955703
-1.15976
1.16407
0.0994493
-0.101996
-1.36268
1.36523
0.103443
-0.103289
-1.60046
1.6003
0.101694
-0.0988119
-1.57215
1.56927
0.0955535
-0.0916157
-1.2968
1.29286
0.0879242
-0.0839554
-1.07799
1.07402
0.0804737
-0.0767999
-0.90285
0.899176
0.0731193
-0.0683551
-0.753446
0.748681
0.0625747
-0.0544644
-0.595492
0.587382
0.0456936
-0.0353266
-0.405705
0.395338
0.0260198
-0.0167704
-0.21962
0.210371
0.00982445
-0.00422694
-0.083805
0.0782075
0.00116808
-0.0101815
0.00901342
-0.0467832
0.051065
-0.00428178
0.0244211
-0.0356446
-0.279551
0.290775
0.046993
-0.0561197
-0.444563
0.45369
0.0644329
-0.0711609
-0.595296
0.602024
0.078127
-0.0847465
-0.723174
0.729794
0.0920038
-0.0984555
-0.850277
0.856729
0.105201
-0.110875
-0.996761
1.00243
0.116394
-0.120599
-1.16801
1.17222
0.124067
-0.125985
-1.3672
1.36911
0.126461
-0.12518
-1.5994
1.59812
0.122358
-0.118201
-1.56564
1.56149
0.113853
-0.10882
-1.28825
1.28321
0.104223
-0.099374
-1.06919
1.06434
0.0952099
-0.090789
-0.894308
0.889887
0.086368
-0.0804905
-0.743014
0.737137
0.0734288
-0.063641
-0.579096
0.569309
0.0531539
-0.0408315
-0.38494
0.372617
0.029805
-0.0189553
-0.200969
0.190119
0.010941
-0.00462368
-0.072516
0.0661987
0.00125003
-0.00787185
0.00662182
-0.0549781
0.0623011
-0.00732298
0.037727
-0.0533262
-0.302962
0.318561
0.0685123
-0.0805725
-0.467007
0.479067
0.0908818
-0.0990588
-0.611679
0.619856
0.107672
-0.115637
-0.737012
0.744978
0.123875
-0.130758
-0.862884
0.869766
0.137603
-0.143076
-1.00765
1.01312
0.148102
-0.151583
-1.17573
1.17921
0.154009
-0.154715
-1.37014
1.37084
0.153652
-0.150747
-1.59578
1.59288
0.146298
-0.140537
-1.55637
1.55061
0.134867
-0.128564
-1.27739
1.27109
0.122949
-0.11714
-1.05855
1.05275
0.112197
-0.106934
-0.884079
0.878816
0.101685
-0.0944815
-0.730118
0.722914
0.0857771
-0.0738062
-0.55905
0.547079
0.0611534
-0.0465274
-0.360175
0.345549
0.0335813
-0.0210295
-0.179326
0.166774
0.0119179
-0.0049215
-0.059973
0.0529766
0.00128413
-0.00542516
0.00414103
-0.0691505
0.0731783
-0.00402779
0.0285151
-0.0420889
-0.336755
0.350329
0.05565
-0.0666543
-0.496559
0.507563
0.076535
-0.0858202
-0.631426
0.640712
0.0963281
-0.105801
-0.752387
0.761859
0.116241
-0.125416
-0.875692
0.884867
0.135048
-0.143452
-1.01765
1.02605
0.15202
-0.159092
-1.18158
1.18865
0.165718
-0.170462
-1.37031
1.37505
0.173808
-0.174725
-1.58866
1.58958
0.173134
-0.169515
-1.54366
1.54004
0.164889
-0.15892
-1.26383
1.25786
0.153263
-0.146605
-1.04587
1.03921
0.140836
-0.13439
-0.87185
0.865403
0.127613
-0.117581
-0.714007
0.703975
0.104992
-0.0882666
-0.534326
0.5176
0.0712027
-0.051956
-0.330614
0.311367
0.0358534
-0.0212662
-0.154623
0.140036
0.0113613
-0.00437512
-0.0465825
0.0395962
0.00100657
-0.00294016
0.00193359
-0.080497
0.0784636
0.00203337
0.00708398
-0.0156888
-0.366652
0.375256
0.0259012
-0.0338449
-0.523117
0.53106
0.0417991
-0.0496224
-0.652539
0.660362
0.0591867
-0.0680221
-0.770888
0.779723
0.0773875
-0.0858504
-0.893486
0.901949
0.0947237
-0.102142
-1.03418
1.04159
0.109893
-0.11593
-1.19551
1.20155
0.121525
-0.125215
-1.37945
1.38314
0.127191
-0.126897
-1.5896
1.58931
0.124101
-0.119247
-1.53556
1.53071
0.113311
-0.105955
-1.25126
1.2439
0.0989116
-0.0908924
-1.03149
1.02347
0.083372
-0.0749658
-0.855524
0.847118
0.0672503
-0.0585146
-0.689864
0.681128
0.0489203
-0.0373386
-0.498869
0.487287
0.0267258
-0.0167865
-0.291795
0.281856
0.00995878
-0.00499305
-0.12602
0.121054
0.00217829
-0.000613832
-0.0329338
0.0313694
2.94867e-05
-0.000650834
0.000621348
-0.0817215
0.0788466
0.00287487
-0.00157877
-0.00322678
-0.386773
0.391579
0.00987522
-0.0157415
-0.542773
0.54864
0.0217516
-0.0284538
-0.670455
0.677158
0.0367284
-0.0443752
-0.787611
0.795258
0.052703
-0.0600955
-0.909651
0.917043
0.0676368
-0.0743308
-1.04887
1.05556
0.0811359
-0.0865307
-1.20718
1.21258
0.0910843
-0.0938252
-1.38617
1.38891
0.0950492
-0.0938314
-1.5882
1.58699
0.0900917
-0.0842799
-1.52498
1.51917
0.0775974
-0.0696807
-1.23607
1.22816
0.0618595
-0.0534379
-1.01459
1.00617
0.045761
-0.0374424
-0.837406
0.829088
0.0301466
-0.0222452
-0.668382
0.660481
0.0146156
-0.00650983
-0.473724
0.465619
0.00101202
0.00228352
-0.270931
0.267635
-0.00338374
0.00318154
-0.115041
0.115243
-0.00235952
0.00124525
-0.0292242
0.0303385
-0.000453285
-0.000112952
0.000566236
-0.0804611
0.0777043
0.00275673
-0.00511744
0.00277062
-0.40004
0.402387
0.00146963
-0.00590098
-0.55755
0.561981
0.0110598
-0.0167051
-0.685156
0.690801
0.0238166
-0.0304176
-0.802272
0.808873
0.0375928
-0.0440067
-0.923938
0.930352
0.0509545
-0.0567321
-1.06186
1.06764
0.0627901
-0.0671566
-1.2176
1.22197
0.0711035
-0.0733541
-1.39143
1.39368
0.0739509
-0.0721065
-1.5853
1.58345
0.0682991
-0.0626205
-1.51278
1.5071
0.0561922
-0.0483175
-1.22005
1.21218
0.0409074
-0.0328478
-0.997353
0.989293
0.0251711
-0.0168883
-0.819626
0.811344
0.00908541
-0.00136708
-0.648687
0.640969
-0.00491369
0.00993463
-0.455665
0.450644
-0.0118728
0.0113532
-0.261655
0.262174
-0.00971217
0.00702859
-0.114262
0.116945
-0.00462389
0.00219894
-0.0306955
0.0331205
-0.000699454
-0.00051273
0.00121218
-0.0790013
0.0766054
0.00239598
-0.0061561
0.00529525
-0.408965
0.409826
-0.00209595
-0.0012576
-0.56947
0.572824
0.00548194
-0.0106533
-0.697561
0.702733
0.0166871
-0.0225628
-0.814808
0.820684
0.0288807
-0.0345687
-0.936381
0.942069
0.0406645
-0.0459293
-1.07333
1.0786
0.0511883
-0.0553113
-1.22624
1.23036
0.0587846
-0.0607319
-1.39561
1.39756
0.0611861
-0.0594904
-1.58158
1.57988
0.0561355
-0.0509978
-1.50107
1.49593
0.0453557
-0.0384727
-1.2046
1.19772
0.0316964
-0.023812
-0.98089
0.973005
0.0161588
-0.00744289
-0.801644
0.792928
-0.000491306
0.00814845
-0.630163
0.622506
-0.0133378
0.0165457
-0.442899
0.439691
-0.0169954
0.0148613
-0.259106
0.26124
-0.0119985
0.0085387
-0.1182
0.12166
-0.00547643
0.00254058
-0.0347827
0.0377185
-0.000784985
-0.0015497
0.00233468
-0.0777117
0.0756867
0.002025
-0.00599214
0.00556256
-0.415175
0.415605
-0.00362839
0.000821727
-0.57881
0.581617
0.00337659
-0.00789138
-0.708218
0.712733
0.0131778
-0.018372
-0.825818
0.831012
0.0240966
-0.0292885
-0.947469
0.952661
0.0349828
-0.0397074
-1.08363
1.08836
0.0445559
-0.04838
-1.23425
1.23807
0.0515927
-0.0534494
-1.39933
1.40119
0.0539935
-0.0530189
-1.57832
1.57735
0.0502249
-0.0459995
-1.49074
1.48652
0.0410417
-0.0347986
-1.19094
1.1847
0.0286635
-0.0209099
-0.964898
0.957145
0.0133106
-0.00481896
-0.783322
0.77483
-0.00275478
0.00978073
-0.612846
0.60582
-0.0143055
0.0169354
-0.4336
0.430971
-0.0168678
0.0146471
-0.259581
0.261802
-0.0118283
0.00835595
-0.123623
0.127095
-0.00528174
0.00246278
-0.0396769
0.0424959
-0.000760234
-0.00276929
0.00352952
-0.0767897
0.0752277
0.00156204
-0.00509579
0.00496185
-0.419876
0.42001
-0.00330538
0.00112455
-0.587121
0.589302
0.00286016
-0.00704052
-0.717635
0.721816
0.0121454
-0.0167148
-0.835866
0.840436
0.0218449
-0.0265349
-0.957865
0.962555
0.0320132
-0.0363803
-1.09314
1.0975
0.0407906
-0.0445156
-1.24176
1.24548
0.0480323
-0.0499503
-1.40315
1.40507
0.0508816
-0.0502202
-1.57618
1.57552
0.048192
-0.0442297
-1.48228
1.47832
0.0398328
-0.0340924
-1.17837
1.17263
0.0280828
-0.020779
-0.94928
0.941976
0.013463
-0.0053263
-0.76562
0.757483
-0.00133657
0.00763198
-0.597285
0.59099
-0.0115643
0.0135469
-0.425843
0.42386
-0.0137136
0.0121925
-0.260693
0.262214
-0.009866
0.00694786
-0.128813
0.131732
-0.00438377
0.00205397
-0.0441373
0.0464671
-0.000642283
-0.00387785
0.00452013
-0.0763783
0.0751667
0.00121162
-0.0040221
0.00400416
-0.42367
0.423688
-0.00242502
0.00033745
-0.59446
0.596547
0.00345699
-0.00728581
-0.726249
0.730078
0.0117487
-0.0162099
-0.845005
0.849466
0.0210169
-0.02588
-0.967079
0.971942
0.0306611
-0.0348722
-1.10199
1.1062
0.039458
-0.0430288
-1.24912
1.25269
0.0462032
-0.0486784
-1.40698
1.40946
0.0499832
-0.0497772
-1.57503
1.57483
0.0479964
-0.0445734
-1.47457
1.47115
0.0404067
-0.0348728
-1.16651
1.16097
0.0291822
-0.0222727
-0.934435
0.927525
0.015553
-0.00839561
-0.749176
0.742018
0.00224084
0.00323923
-0.583564
0.578084
-0.00669849
0.00870677
-0.419393
0.417385
-0.0091734
0.00820091
-0.261019
0.261991
-0.00670011
0.00472164
-0.132608
0.134587
-0.00301524
0.00144064
-0.047524
0.0490986
-0.000475449
-0.00473906
0.0052145
-0.0764991
0.0754859
0.00101322
-0.00275693
0.00249802
-0.427092
0.427351
-0.0010858
-0.00103858
-0.601255
0.603379
0.00451913
-0.00824042
-0.734377
0.738098
0.012557
-0.0166471
-0.853767
0.857857
0.0215913
-0.025676
-0.976243
0.980327
0.0304363
-0.0344977
-1.11058
1.11464
0.039011
-0.042829
-1.25627
1.26009
0.0463831
-0.0487421
-1.41176
1.41412
0.0504613
-0.0506447
-1.57457
1.57476
0.0494024
-0.0461126
-1.46754
1.46425
0.0422005
-0.0369353
-1.15544
1.15018
0.0316405
-0.0252442
-0.920397
0.914001
0.0193273
-0.0129424
-0.734615
0.72823
0.00759737
-0.00271096
-0.571757
0.56687
-0.000627586
0.00263793
-0.412987
0.410976
-0.00353524
0.00341749
-0.260228
0.260346
-0.00294271
0.00205868
-0.134548
0.135432
-0.00130535
0.000660482
-0.0493568
0.0500017
-0.000234147
-0.00527166
0.00550581
-0.0768999
0.0761934
0.000706509
-0.00163198
0.000917651
-0.430592
0.431307
0.000285444
-0.00252401
-0.607302
0.60954
0.00569156
-0.00929532
-0.742006
0.74561
0.0134439
-0.0176632
-0.86184
0.86606
0.021994
-0.0262395
-0.984628
0.988873
0.0309692
-0.0348422
-1.11913
1.12301
0.0394899
-0.0433195
-1.26374
1.26757
0.0469903
-0.0499175
-1.41692
1.41984
0.0521183
-0.0525092
-1.57496
1.57535
0.0513539
-0.0485856
-1.46103
1.45826
0.0450749
-0.0401076
-1.14472
1.13975
0.0351224
-0.0294919
-0.907562
0.901932
0.0238609
-0.0183302
-0.721622
0.716091
0.0135527
-0.00895136
-0.561442
0.556841
0.00573985
-0.00323008
-0.406546
0.404036
0.00179956
-0.000927142
-0.258029
0.257156
0.000474443
-0.00019319
-0.134341
0.134059
-4.07983e-05
0.000155147
-0.049544
0.0494297
-0.000118431
-0.00536133
0.00547977
-0.0777003
0.0771515
0.000548768
-0.000676729
2.97609e-05
-0.434309
0.434956
0.00171123
-0.0037788
-0.6134
0.615468
0.00711181
-0.0105771
-0.749131
0.752596
0.0145572
-0.0183681
-0.869973
0.873783
0.0228147
-0.0267482
-0.993123
0.997057
0.0314365
-0.0357668
-1.12734
1.13167
0.0400985
-0.0442939
-1.27148
1.27567
0.048424
-0.0514545
-1.42269
1.42572
0.0539868
-0.0550458
-1.57591
1.57697
0.0542046
-0.0519122
-1.45528
1.45299
0.0485318
-0.0440129
-1.13478
1.13026
0.0395257
-0.0342685
-0.895939
0.890682
0.0292709
-0.024153
-0.710068
0.70495
0.0197095
-0.0151957
-0.551602
0.547088
0.0117541
-0.00885852
-0.3997
0.396804
0.00667705
-0.00491845
-0.254126
0.252368
0.00348003
-0.00210185
-0.132082
0.130704
0.00105481
-0.000283776
-0.0482392
0.0474682
-1.80446e-05
-0.00510406
0.0051221
-0.0787725
0.0783986
0.000373896
0.000380131
-0.00121281
-0.438151
0.438984
0.00280813
-0.00514889
-0.619065
0.621406
0.00839704
-0.0116854
-0.755976
0.759264
0.0157212
-0.0193668
-0.877583
0.881229
0.0236454
-0.027698
-1.00147
1.00552
0.0323092
-0.0366288
-1.13587
1.14019
0.0412139
-0.0454693
-1.27981
1.28407
0.0498017
-0.0535627
-1.42904
1.4328
0.0564806
-0.057748
-1.57793
1.5792
0.0574822
-0.0554223
-1.45053
1.44847
0.0525555
-0.0485846
-1.12566
1.12169
0.0442506
-0.0393804
-0.885177
0.880307
0.0347552
-0.0298263
-0.699453
0.694524
0.0256537
-0.0211328
-0.542246
0.537725
0.0175411
-0.014015
-0.392245
0.388719
0.0112297
-0.00854727
-0.248523
0.24584
0.0061146
-0.0037981
-0.127808
0.125491
0.00205258
-0.000733008
-0.0456995
0.0443799
0.0001118
-0.00464267
0.00453087
-0.0800694
0.0798194