/*--------------------------------*- C++ -*----------------------------------*\
  =========                 |
  \\      /  F ield         | OpenFOAM: The Open Source CFD Toolbox
   \\    /   O peration     | Website:  https://openfoam.org
    \\  /    A nd           | Version:  6
     \\/     M anipulation  |
\*---------------------------------------------------------------------------*/
FoamFile
{
    version     2.0;
    format      ascii;
    class       volVectorField;
    location    "87.1";
    object      U;
}
// * * * * * * * * * * * * * * * * * * * * * * * * * * * * * * * * * * * * * //

dimensions      [0 1 -1 0 0 0 0];

internalField   nonuniform List<vector> 
8800
(
(0.987184 -0.0766653 0)
(1.00189 -0.0551901 0)
(0.999724 -0.028548 0)
(1.00003 -0.0151424 0)
(1.0001 -0.0085428 0)
(1.00012 -0.0050441 0)
(1.00008 -0.00299841 0)
(1.00002 -0.00169821 0)
(0.999993 -0.000792306 0)
(1.00006 -7.71866e-05 0)
(0.999959 0.000654861 0)
(0.99999 0.00142381 0)
(1.00005 0.00243594 0)
(1.00006 0.00400262 0)
(1.00005 0.00663521 0)
(1.00004 0.0113738 0)
(0.99994 0.0208165 0)
(0.999167 0.0386712 0)
(1.0071 0.0724576 0)
(0.771214 0.0366616 0)
(0.363076 -0.0160167 0)
(1.04332 -0.0768131 0)
(1.0846 -0.0704424 0)
(1.0452 -0.0535364 0)
(1.02329 -0.0388865 0)
(1.01203 -0.0262072 0)
(1.00643 -0.0168442 0)
(1.00359 -0.0103105 0)
(1.00215 -0.00564804 0)
(1.00144 -0.00198669 0)
(1.00129 0.00133521 0)
(1.00165 0.00472241 0)
(1.00267 0.00865206 0)
(1.00467 0.0139725 0)
(1.0086 0.0216794 0)
(1.01656 0.0326461 0)
(1.0325 0.0465578 0)
(1.06267 0.0616735 0)
(1.09187 0.0761041 0)
(0.838666 0.0565636 0)
(0.216863 -0.00242904 0)
(1.07591 -0.0501274 0)
(1.09989 -0.0482982 0)
(1.06465 -0.0404473 0)
(1.04004 -0.0335849 0)
(1.02392 -0.0260585 0)
(1.01413 -0.0184699 0)
(1.00856 -0.0116434 0)
(1.00558 -0.00576871 0)
(1.00431 -0.00034541 0)
(1.00463 0.00490341 0)
(1.00659 0.0102969 0)
(1.01062 0.0163691 0)
(1.01794 0.0233835 0)
(1.03052 0.0308464 0)
(1.05062 0.0378715 0)
(1.08036 0.044552 0)
(1.10626 0.0513621 0)
(0.942504 0.0416261 0)
(0.216126 0.00246259 0)
(0.175202 -0.000815581 0)
(1.01773 -0.0354715 0)
(1.10522 -0.0413583 0)
(1.07828 -0.0360363 0)
(1.05348 -0.030095 0)
(1.03622 -0.0245113 0)
(1.02402 -0.0187736 0)
(1.01589 -0.012683 0)
(1.01101 -0.00648478 0)
(1.00879 -0.000141615 0)
(1.00934 0.0061181 0)
(1.01263 0.0121182 0)
(1.01888 0.0179258 0)
(1.02876 0.0234872 0)
(1.04318 0.0287835 0)
(1.0637 0.0342588 0)
(1.09356 0.0402379 0)
(1.09339 0.0419912 0)
(0.827068 0.0229273 0)
(0.173959 0.000854394 0)
(0.154018 -0.000609314 0)
(0.956274 -0.0254394 0)
(1.1035 -0.0350949 0)
(1.08771 -0.0326084 0)
(1.06176 -0.0279459 0)
(1.04414 -0.0229105 0)
(1.03167 -0.0176499 0)
(1.02281 -0.0121031 0)
(1.01697 -0.00615236 0)
(1.0141 0.00032817 0)
(1.01475 0.00679541 0)
(1.01875 0.0126799 0)
(1.0258 0.017939 0)
(1.03607 0.0228392 0)
(1.05062 0.0275914 0)
(1.07185 0.0321107 0)
(1.10005 0.0360358 0)
(1.06801 0.0340785 0)
(0.739371 0.0143339 0)
(0.152143 0.000653384 0)
(0.139669 -0.000465322 0)
(0.899449 -0.0190498 0)
(1.09587 -0.0300297 0)
(1.0958 -0.0291234 0)
(1.06931 -0.0253782 0)
(1.05087 -0.0212229 0)
(1.03793 -0.0164312 0)
(1.0288 -0.0111239 0)
(1.02266 -0.00536004 0)
(1.01949 0.000982808 0)
(1.02007 0.00730198 0)
(1.02419 0.0129357 0)
(1.03136 0.0178554 0)
(1.04183 0.0223005 0)
(1.05694 0.0262572 0)
(1.07913 0.029704 0)
(1.10222 0.032316 0)
(1.03583 0.0281874 0)
(0.672679 0.0102392 0)
(0.137018 0.000516154 0)
(0.129159 -0.000359625 0)
(0.849967 -0.0146783 0)
(1.08355 -0.025878 0)
(1.10152 -0.0261471 0)
(1.07619 -0.0228427 0)
(1.05722 -0.0191778 0)
(1.04382 -0.014907 0)
(1.03433 -0.00995583 0)
(1.02794 -0.00439687 0)
(1.02457 0.00177162 0)
(1.02499 0.00788082 0)
(1.02906 0.0132383 0)
(1.03633 0.0177367 0)
(1.04707 0.0215734 0)
(1.06258 0.024862 0)
(1.08521 0.0277843 0)
(1.10126 0.029519 0)
(1.00077 0.0236973 0)
(0.620674 0.00788427 0)
(0.125562 0.000419429 0)
(0.121156 -0.000278568 0)
(0.807973 -0.0115095 0)
(1.06837 -0.0222449 0)
(1.1051 -0.0234774 0)
(1.08249 -0.02058 0)
(1.0631 -0.0171239 0)
(1.04942 -0.0131535 0)
(1.03965 -0.00853249 0)
(1.03296 -0.00323768 0)
(1.02932 0.00271773 0)
(1.02955 0.00858134 0)
(1.03357 0.0135918 0)
(1.04089 0.0176074 0)
(1.05172 0.0209333 0)
(1.06744 0.0238073 0)
(1.0904 0.0264251 0)
(1.09739 0.0272551 0)
(0.96529 0.0201887 0)
(0.578793 0.00636121 0)
(0.116409 0.000349709 0)
(0.114973 -0.000214888 0)
(0.772694 -0.00913416 0)
(1.05175 -0.0190391 0)
(1.10756 -0.0209973 0)
(1.08841 -0.0184629 0)
(1.06864 -0.0151445 0)
(1.05472 -0.011328 0)
(1.04474 -0.00690802 0)
(1.03779 -0.00184473 0)
(1.03386 0.00386571 0)
(1.03384 0.0094337 0)
(1.03772 0.014068 0)
(1.04497 0.0176516 0)
(1.05576 0.0205867 0)
(1.07168 0.0231309 0)
(1.09428 0.0253964 0)
(1.09064 0.0254 0)
(0.930678 0.0174972 0)
(0.544009 0.00532797 0)
(0.108827 0.000299979 0)
(0.110177 -0.000163452 0)
(0.743197 -0.0072849 0)
(1.03476 -0.0161892 0)
(1.1091 -0.0186495 0)
(1.09407 -0.016412 0)
(1.07401 -0.013177 0)
(1.05981 -0.00943958 0)
(1.04963 -0.00512995 0)
(1.04245 -0.000229235 0)
(1.0382 0.00524871 0)
(1.03786 0.0105074 0)
(1.0415 0.0147812 0)
(1.04858 0.0179789 0)
(1.05932 0.020566 0)
(1.07542 0.0228154 0)
(1.09686 0.0246942 0)
(1.08139 0.02391 0)
(0.897478 0.015474 0)
(0.514259 0.00461555 0)
(0.102334 0.000265549 0)
(0.106488 -0.000120471 0)
(0.718668 -0.00578739 0)
(1.01822 -0.0136228 0)
(1.10984 -0.0163699 0)
(1.09964 -0.0143935 0)
(1.07932 -0.0111597 0)
(1.06482 -0.00744011 0)
(1.0544 -0.00317901 0)
(1.04695 0.00161997 0)
(1.04234 0.00690874 0)
(1.0416 0.0118841 0)
(1.04492 0.0158237 0)
(1.05178 0.0186531 0)
(1.06244 0.0209019 0)
(1.0787 0.0228778 0)
(1.09805 0.0243331 0)
(1.07 0.0227872 0)
(0.86578 0.0140035 0)
(0.488073 0.00413402 0)
(0.0965825 0.000243426 0)
(0.103718 -8.29479e-05 0)
(0.698476 -0.00452501 0)
(1.00276 -0.0112712 0)
(1.10996 -0.0141212 0)
(1.10508 -0.0123207 0)
(1.08465 -0.00903813 0)
(1.06983 -0.00527454 0)
(1.05913 -0.000999211 0)
(1.05134 0.00375797 0)
(1.0463 0.00890985 0)
(1.04507 0.0136346 0)
(1.048 0.017255 0)
(1.0546 0.0197194 0)
(1.06514 0.0216386 0)
(1.08152 0.0233453 0)
(1.09817 0.0244378 0)
(1.05671 0.022046 0)
(0.835392 0.0130016 0)
(0.464338 0.00382908 0)
(0.0913095 0.000231219 0)
(0.101753 -4.81729e-05 0)
(0.682159 -0.0034101 0)
(0.988848 -0.00906277 0)
(1.10966 -0.011815 0)
(1.11037 -0.0101092 0)
(1.09008 -0.00674811 0)
(1.07491 -0.0028786 0)
(1.06389 0.00147811 0)
(1.05569 0.00625717 0)
(1.05011 0.0113256 0)
(1.0483 0.0158351 0)
(1.05076 0.0191531 0)
(1.05703 0.0212501 0)
(1.06743 0.0228343 0)
(1.08382 0.024251 0)
(1.09734 0.0249053 0)
(1.04164 0.0216959 0)
(0.80594 0.012394 0)
(0.442172 0.00366249 0)
(0.0863059 0.000226839 0)
(0.100533 -1.38701e-05 0)
(0.669426 -0.00237257 0)
(0.976845 -0.00692192 0)
(1.10929 -0.00939388 0)
(1.11566 -0.00769881 0)
(1.09571 -0.0042147 0)
(1.08016 -0.000172216 0)
(1.06873 0.00433716 0)
(1.06004 0.00920553 0)
(1.05382 0.0142455 0)
(1.05129 0.01857 0)
(1.05318 0.0215944 0)
(1.05907 0.0233165 0)
(1.06928 0.0245611 0)
(1.08566 0.0256851 0)
(1.09521 0.0258305 0)
(1.02483 0.0217404 0)
(0.776958 0.0121326 0)
(0.420854 0.00360973 0)
(0.0814052 0.000228966 0)
(0.10005 2.26862e-05 0)
(0.660134 -0.0013562 0)
(0.967076 -0.00477583 0)
(1.10917 -0.00679583 0)
(1.12109 -0.00501396 0)
(1.10162 -0.00134626 0)
(1.08564 0.00294195 0)
(1.07375 0.00767852 0)
(1.06446 0.0127103 0)
(1.05745 0.0177802 0)
(1.05406 0.0219498 0)
(1.05528 0.0246891 0)
(1.06072 0.0260348 0)
(1.0707 0.0269156 0)
(1.08695 0.0277086 0)
(1.0917 0.0272531 0)
(1.00617 0.022222 0)
(0.747915 0.0121931 0)
(0.399765 0.00365758 0)
(0.0764675 0.000236943 0)
(0.100315 5.49366e-05 0)
(0.654271 -0.000304171 0)
(0.959849 -0.00254887 0)
(1.10965 -0.00395227 0)
(1.12684 -0.00197122 0)
(1.10792 0.00195454 0)
(1.09148 0.00656868 0)
(1.07902 0.0116163 0)
(1.069 0.0168902 0)
(1.06105 0.0220552 0)
(1.05663 0.0261026 0)
(1.05703 0.0285562 0)
(1.06194 0.0295245 0)
(1.07163 0.0300177 0)
(1.0874 0.030431 0)
(1.08646 0.0292623 0)
(0.985438 0.0231772 0)
(0.71821 0.0125609 0)
(0.378339 0.00379673 0)
(0.071367 0.000249946 0)
(0.101421 0.000109041 0)
(0.651978 0.000829653 0)
(0.955485 -0.00016167 0)
(1.11112 -0.000782144 0)
(1.13309 0.00153062 0)
(1.11473 0.0058096 0)
(1.09777 0.0108459 0)
(1.08464 0.0162998 0)
(1.07374 0.021903 0)
(1.06465 0.0272245 0)
(1.05899 0.0311738 0)
(1.05842 0.0333333 0)
(1.06271 0.0339122 0)
(1.07203 0.0339957 0)
(1.08688 0.0339882 0)
(1.07927 0.031931 0)
(0.962278 0.0246421 0)
(0.687181 0.0132255 0)
(0.356045 0.00401774 0)
(0.0659939 0.000267023 0)
(0.103509 0.000161639 0)
(0.653491 0.00194726 0)
(0.954346 0.00247214 0)
(1.11403 0.0028163 0)
(1.14007 0.00560108 0)
(1.1222 0.0103643 0)
(1.10465 0.0159326 0)
(1.09071 0.0219017 0)
(1.07874 0.0279294 0)
(1.06827 0.0334706 0)
(1.06115 0.0373391 0)
(1.05944 0.0391681 0)
(1.06296 0.0393531 0)
(1.07184 0.0389925 0)
(1.08514 0.0384766 0)
(1.06979 0.0353636 0)
(0.936186 0.0266622 0)
(0.654112 0.0141782 0)
(0.332384 0.00431149 0)
(0.0602564 0.000287053 0)
(0.106678 0.00022567 0)
(0.659397 0.00342895 0)
(0.956808 0.00539608 0)
(1.11885 0.00698839 0)
(1.14803 0.0103925 0)
(1.13052 0.0157947 0)
(1.11228 0.0220277 0)
(1.09736 0.0286386 0)
(1.08408 0.0351924 0)
(1.07194 0.0410132 0)
(1.06308 0.0447969 0)
(1.06006 0.0462722 0)
(1.06265 0.0460292 0)
(1.07101 0.0451798 0)
(1.08215 0.0440868 0)
(1.05756 0.0396795 0)
(0.90649 0.0292716 0)
(0.618222 0.0154035 0)
(0.306894 0.00466388 0)
(0.054084 0.000308474 0)
(0.111212 0.000312828 0)
(0.670056 0.00516464 0)
(0.963503 0.00891438 0)
(1.1261 0.011897 0)
(1.15729 0.0161191 0)
(1.13992 0.022352 0)
(1.12083 0.0294069 0)
(1.1047 0.0367955 0)
(1.08981 0.0439718 0)
(1.07566 0.0501032 0)
(1.06475 0.0537663 0)
(1.06016 0.0548477 0)
(1.06173 0.0541337 0)
(1.06945 0.0527412 0)
(1.07784 0.0509542 0)
(1.04197 0.0449785 0)
(0.87234 0.0324833 0)
(0.578689 0.0168625 0)
(0.279179 0.00505096 0)
(0.0474398 0.000328783 0)
(0.117474 0.000426811 0)
(0.686221 0.00732767 0)
(0.975067 0.0131624 0)
(1.13634 0.0177633 0)
(1.16821 0.0230324 0)
(1.15068 0.0303523 0)
(1.13052 0.0384111 0)
(1.11286 0.0467241 0)
(1.09598 0.0546029 0)
(1.0794 0.0610456 0)
(1.0661 0.0645146 0)
(1.05962 0.0650892 0)
(1.06014 0.0638663 0)
(1.06721 0.0618783 0)
(1.0719 0.0592646 0)
(1.0222 0.051337 0)
(0.832699 0.0362627 0)
(0.534694 0.0184774 0)
(0.248967 0.005435 0)
(0.0403382 0.000344696 0)
(0.125981 0.000588998 0)
(0.70891 0.0101567 0)
(0.992348 0.0184442 0)
(1.15023 0.0249384 0)
(1.18129 0.031527 0)
(1.16312 0.0402509 0)
(1.14156 0.0495233 0)
(1.12193 0.0588978 0)
(1.10257 0.0675112 0)
(1.08309 0.0741786 0)
(1.06702 0.0772967 0)
(1.05843 0.077227 0)
(1.05782 0.0754258 0)
(1.06407 0.0727376 0)
(1.06381 0.0690477 0)
(0.997165 0.0587843 0)
(0.786352 0.0404881 0)
(0.485515 0.0201129 0)
(0.216204 0.00576107 0)
(0.0328639 0.00035209 0)
(0.137508 0.000822798 0)
(0.739466 0.0140262 0)
(1.01651 0.0252289 0)
(1.16858 0.03397 0)
(1.19718 0.0422103 0)
(1.17764 0.0527407 0)
(1.15414 0.0634383 0)
(1.13194 0.0739476 0)
(1.10948 0.0832023 0)
(1.08656 0.0898635 0)
(1.06737 0.0923634 0)
(1.05652 0.0914769 0)
(1.05476 0.0890631 0)
(1.05967 0.0855321 0)
(1.05274 0.0805078 0)
(0.96543 0.0672154 0)
(0.731977 0.0449006 0)
(0.430698 0.021555 0)
(0.181173 0.00595692 0)
(0.0251917 0.000346484 0)
(0.15335 0.0011913 0)
(0.779912 0.0195841 0)
(1.04924 0.0343185 0)
(1.19234 0.0458038 0)
(1.21675 0.0564036 0)
(1.19459 0.0688734 0)
(1.16833 0.081125 0)
(1.14273 0.0926683 0)
(1.11645 0.102263 0)
(1.08955 0.108494 0)
(1.06693 0.109962 0)
(1.05372 0.107997 0)
(1.05086 0.10487 0)
(1.05381 0.100568 0)
(1.03762 0.0936066 0)
(0.925158 0.0763151 0)
(0.668328 0.049067 0)
(0.370339 0.0225103 0)
(0.144631 0.00594201 0)
(0.0175961 0.000323944 0)
(0.175732 0.00182839 0)
(0.833466 0.0279713 0)
(1.09333 0.0472762 0)
(1.22262 0.062323 0)
(1.24045 0.0758469 0)
(1.21406 0.0903102 0)
(1.18387 0.103938 0)
(1.15388 0.116027 0)
(1.12303 0.125296 0)
(1.09168 0.13038 0)
(1.06545 0.130245 0)
(1.04984 0.126872 0)
(1.04592 0.122879 0)
(1.04642 0.117561 0)
(1.01686 0.108109 0)
(0.87407 0.0854835 0)
(0.594667 0.052335 0)
(0.305528 0.0226422 0)
(0.107931 0.005646 0)
(0.0104468 0.000281516 0)
(0.208101 0.00323421 0)
(0.905959 0.0419014 0)
(1.15198 0.0679739 0)
(1.25977 0.0870727 0)
(1.2681 0.103565 0)
(1.23543 0.119481 0)
(1.19991 0.133532 0)
(1.16454 0.145023 0)
(1.12853 0.152829 0)
(1.09246 0.155759 0)
(1.06261 0.153296 0)
(1.04473 0.148113 0)
(1.03982 0.143115 0)
(1.03672 0.136576 0)
(0.988107 0.123443 0)
(0.809572 0.0936824 0)
(0.511703 0.0539103 0)
(0.239092 0.0217319 0)
(0.0732045 0.00505383 0)
(0.00423394 0.000217073 0)
(0.25226 0.00960601 8.83292e-21)
(1.00124 0.0694876 7.59177e-21)
(1.22279 0.103147 -2.6596e-21)
(1.30083 0.123893 0)
(1.29676 0.143264 -6.86329e-35)
(1.25645 0.15876 1.00567e-21)
(1.21486 0.171412 -1.82615e-21)
(1.17365 0.180852 0)
(1.13218 0.186126 3.7977e-35)
(1.09117 0.186143 -2.30198e-21)
(1.05755 0.180939 0)
(1.03744 0.173924 -2.76383e-21)
(1.03217 0.168365 -8.17872e-21)
(1.02282 0.161041 -3.88003e-21)
(0.945842 0.141722 -1.17071e-21)
(0.724117 0.101356 -6.95835e-22)
(0.414549 0.0536182 0)
(0.1704 0.020062 4.86941e-22)
(0.0406261 0.00432234 5.76661e-22)
(-0.00110351 0.000106816 1.05421e-20)
(0.283009 0.0252044 6.09504e-21)
(1.08034 0.113127 1.1611e-22)
(1.28117 0.153257 6.91443e-22)
(1.33806 0.17395 0)
(1.32207 0.193435 -3.41133e-21)
(1.27472 0.206851 -3.8993e-21)
(1.22719 0.217299 -1.82375e-21)
(1.18019 0.224418 -6.54243e-21)
(1.13319 0.2272 0)
(1.08704 0.224508 9.72883e-21)
(1.04944 0.216864 9.69389e-21)
(1.02682 0.208208 2.88509e-21)
(1.01874 0.201358 1.05968e-20)
(0.996337 0.19087 1.49849e-20)
(0.876316 0.161538 0)
(0.605206 0.107448 2.1141e-20)
(0.301655 0.0519215 3.03208e-20)
(0.100879 0.0173149 3.37367e-20)
(0.00953656 0.00242807 -3.86961e-20)
(-0.00600377 -0.000469511 -7.38279e-22)
(0.284745 0.042695 0)
(1.13119 0.1695 9.60385e-22)
(1.32125 0.214514 0)
(1.36734 0.234911 -4.20674e-21)
(1.34222 0.251431 0)
(1.28897 0.260944 -7.52132e-21)
(1.23589 0.267681 3.68401e-21)
(1.18344 0.271297 -1.30236e-20)
(1.13127 0.270667 -3.26901e-22)
(1.08041 0.26457 4.9857e-21)
(1.03928 0.254036 2.12335e-20)
(1.01454 0.243532 -2.84132e-23)
(1.00315 0.234902 -7.67618e-21)
(0.96643 0.220255 -1.4012e-20)
(0.810026 0.179309 1.66189e-20)
(0.513975 0.111421 -2.94166e-20)
(0.231236 0.049755 -3.87464e-21)
(0.0619053 0.0144286 0)
(-0.00704631 4.83201e-05 -3.62105e-24)
(-0.00850967 -0.00118129 0)
(0.278143 0.0573407 1.02104e-20)
(1.15925 0.229605 -5.30592e-21)
(1.34655 0.280417 -4.50551e-21)
(1.38702 0.301159 1.91413e-21)
(1.35569 0.313714 -3.22645e-21)
(1.29806 0.318639 1.55961e-20)
(1.24048 0.320911 7.60387e-21)
(1.18339 0.320284 0)
(1.12671 0.315572 -2.46598e-20)
(1.0717 0.305496 0)
(1.02753 0.291651 -1.10445e-20)
(1.00095 0.279019 -1.37547e-20)
(0.986174 0.268179 -8.30928e-21)
(0.936102 0.248295 -1.01287e-20)
(0.753054 0.195558 0)
(0.449136 0.115802 0)
(0.186786 0.0491382 -2.50836e-20)
(0.0368029 0.0118286 4.95093e-21)
(-0.0186322 -0.00266654 -2.9176e-21)
(-0.0104346 -0.00200745 -3.45627e-21)
(0.27006 0.0701364 -2.12673e-21)
(1.17197 0.289569 0)
(1.36085 0.347266 8.13003e-21)
(1.39815 0.368712 5.09936e-21)
(1.36254 0.377313 7.55913e-21)
(1.30177 0.377623 0)
(1.24073 0.375277 7.29215e-21)
(1.17992 0.370147 1.42005e-20)
(1.11948 0.361011 1.25072e-20)
(1.06093 0.346585 2.32356e-20)
(1.01415 0.329104 0)
(0.985992 0.31403 -2.94525e-20)
(0.967996 0.300557 -1.77967e-20)
(0.906744 0.274693 -1.05343e-20)
(0.706104 0.210977 6.46509e-20)
(0.4041 0.121051 7.66839e-21)
(0.157999 0.0493556 3.61174e-20)
(0.0189699 0.00902881 -1.70744e-19)
(-0.0283346 -0.00591191 1.01126e-19)
(-0.0123588 -0.00299514 -1.2344e-19)
(0.262069 0.0815565 1.44651e-21)
(1.17474 0.34741 3.03894e-22)
(1.36707 0.413125 -6.22094e-22)
(1.4024 0.435607 -4.37522e-21)
(1.36376 0.440484 -5.90269e-21)
(1.30064 0.436328 3.59353e-22)
(1.23693 0.42947 -7.88478e-21)
(1.17313 0.419852 1.45142e-20)
(1.10958 0.406212 -2.67857e-20)
(1.04801 0.387256 0)
(0.998976 0.365896 -1.32818e-20)
(0.969446 0.348065 -3.03761e-22)
(0.948556 0.331627 -1.94075e-20)
(0.878658 0.299633 0)
(0.668251 0.225714 -1.39354e-20)
(0.37318 0.126996 -3.3001e-20)
(0.138764 0.049975 8.77757e-20)
(0.00544525 0.00590389 -8.64323e-20)
(-0.0370753 -0.00972741 1.22868e-19)
(-0.0144053 -0.00417706 -1.29283e-19)
(0.255049 0.0919855 -1.12337e-22)
(1.17114 0.402397 6.41283e-22)
(1.36737 0.476941 -4.09868e-22)
(1.40123 0.500726 1.3738e-21)
(1.36039 0.502218 -2.8767e-21)
(1.29552 0.493832 0)
(1.22969 0.482666 -7.13304e-21)
(1.16343 0.468701 -1.51008e-20)
(1.09722 0.450604 -1.38348e-20)
(1.03302 0.427075 0)
(0.981988 0.401654 -1.36225e-20)
(0.951237 0.380826 -1.69683e-20)
(0.927915 0.361114 2.0942e-20)
(0.851878 0.322857 -1.2736e-20)
(0.637821 0.239749 -6.03132e-20)
(0.352006 0.133377 3.56969e-20)
(0.125996 0.0506743 1.05592e-20)
(-0.00480662 0.00244528 0)
(-0.0449435 -0.0140576 -1.17935e-19)
(-0.016606 -0.005575 -4.37459e-21)
(0.249196 0.101769 9.24602e-22)
(1.1635 0.454338 -1.28922e-21)
(1.36328 0.538158 -8.15884e-23)
(1.39589 0.563407 5.36747e-21)
(1.3534 0.56188 -9.85944e-21)
(1.28721 0.549586 1.3476e-20)
(1.21967 0.534377 1.53272e-20)
(1.15132 0.516271 -2.40623e-20)
(1.08277 0.493846 8.63857e-21)
(1.0162 0.465773 -5.65719e-20)
(0.963319 0.436202 -1.54392e-20)
(0.931432 0.412132 0)
(0.90605 0.388889 2.26471e-20)
(0.826059 0.344428 2.7133e-20)
(0.612706 0.253213 3.23986e-20)
(0.337279 0.139835 -3.855e-20)
(0.117755 0.0513708 -1.13927e-20)
(-0.0117054 -0.00112546 1.34068e-20)
(-0.0511816 -0.0185981 0)
(-0.0187287 -0.00712526 -9.44566e-21)
(0.244432 0.110992 -1.48463e-20)
(1.15356 0.503295 8.00115e-21)
(1.35608 0.596685 4.67077e-22)
(1.38738 0.623311 2.69762e-21)
(1.3436 0.61909 -3.98298e-21)
(1.27644 0.603225 -8.43222e-22)
(1.20749 0.584302 -1.68018e-20)
(1.13733 0.562318 -8.71568e-21)
(1.06668 0.535758 -2.39934e-20)
(0.99787 0.503228 5.72638e-23)
(0.943218 0.469479 -4.81339e-20)
(0.910163 0.441958 4.08676e-20)
(0.882972 0.415005 -2.48302e-20)
(0.800637 0.364457 2.97941e-20)
(0.590931 0.266047 0)
(0.326281 0.146402 -2.08798e-20)
(0.112982 0.0523271 5.0859e-23)
(-0.0152166 -0.00425931 -5.81933e-20)
(-0.0551563 -0.022835 -8.58604e-21)
(-0.0204389 -0.00867373 0)
(0.240713 0.119922 0)
(1.14238 0.549508 9.29671e-21)
(1.34667 0.652679 3.41594e-21)
(1.37654 0.680262 -1.88893e-21)
(1.33172 0.673646 -5.62144e-21)
(1.2638 0.654554 0)
(1.19369 0.632257 -7.3654e-21)
(1.12194 0.606697 -2.1865e-22)
(1.04934 0.576249 5.14108e-20)
(0.978377 0.53942 -7.73381e-21)
(0.921906 0.501481 -3.4785e-20)
(0.887602 0.470427 2.12148e-20)
(0.858692 0.43964 -4.2739e-22)
(0.774752 0.383268 3.17474e-20)
(0.570835 0.278257 1.92669e-20)
(0.317098 0.152937 -4.49704e-20)
(0.110504 0.0536546 5.31738e-20)
(-0.0160124 -0.00661173 1.57628e-20)
(-0.0567368 -0.0263044 6.52095e-20)
(-0.0214983 -0.0100447 -1.76395e-19)
(0.237955 0.128713 -5.08033e-21)
(1.13075 0.593157 6.66984e-21)
(1.3357 0.705706 -4.38693e-21)
(1.36403 0.73422 3.32549e-22)
(1.31834 0.72546 0)
(1.24983 0.703469 -5.56318e-21)
(1.17873 0.678141 2.50719e-20)
(1.10555 0.649336 1.90252e-20)
(1.03112 0.615282 0)
(0.958004 0.574351 -1.11862e-19)
(0.899633 0.532275 9.42848e-20)
(0.863971 0.497636 0)
(0.833382 0.462978 2.9048e-20)
(0.748444 0.40094 -4.00792e-22)
(0.551244 0.289767 -6.21251e-20)
(0.308287 0.159446 2.42663e-20)
(0.108925 0.0554539 0)
(-0.0148861 -0.00802551 8.51389e-20)
(-0.0561564 -0.0288224 0)
(-0.0218336 -0.0111227 -8.35263e-20)
(0.236061 0.137387 6.11771e-21)
(1.11915 0.634479 8.79844e-21)
(1.32362 0.755837 -4.31161e-21)
(1.35039 0.785212 0)
(1.30394 0.774529 -3.91178e-21)
(1.23497 0.74995 0)
(1.16302 0.721912 -2.43211e-20)
(1.08854 0.690196 -8.65035e-21)
(1.01234 0.65286 9.01701e-21)
(0.937037 0.608062 -5.54234e-20)
(0.876635 0.561945 9.73369e-21)
(0.839488 0.523682 0)
(0.807236 0.485112 -6.22274e-20)
(0.721611 0.417471 3.62554e-22)
(0.531183 0.300535 0)
(0.298949 0.1657 8.48755e-23)
(0.107297 0.0575314 7.78947e-20)
(-0.0127873 -0.00855414 -7.36572e-20)
(-0.0539541 -0.03031 2.18103e-20)
(-0.0215317 -0.0118463 0)
(0.234688 0.145906 0)
(1.10781 0.673669 1.06815e-20)
(1.31091 0.803192 6.53464e-21)
(1.33604 0.833316 -5.28558e-22)
(1.28892 0.820894 -6.07269e-22)
(1.21959 0.794012 -1.25775e-20)
(1.1469 0.763578 9.27837e-21)
(1.07121 0.729274 -1.0418e-20)
(0.993294 0.688992 4.05577e-20)
(0.915732 0.640619 -8.89586e-20)
(0.853124 0.590581 -8.99972e-22)
(0.814359 0.548638 -2.72593e-20)
(0.780437 0.506048 1.0125e-19)
(0.694241 0.432881 -4.7515e-22)
(0.510417 0.310267 -4.8525e-20)
(0.28861 0.171278 -8.57002e-20)
(0.105075 0.0596893 0)
(-0.0104869 -0.00839794 0)
(-0.0508957 -0.0309073 2.35906e-20)
(-0.0207457 -0.0122286 -1.40134e-20)
(0.233983 0.154449 8.66652e-21)
(1.09694 0.710664 -2.43044e-20)
(1.29787 0.847877 -7.00834e-21)
(1.32131 0.87862 0)
(1.2736 0.864621 -3.08005e-22)
(1.20399 0.8357 -1.07465e-20)
(1.13066 0.803164 2.19372e-20)
(1.05384 0.766585 4.06054e-20)
(0.974233 0.723706 5.27439e-20)
(0.894329 0.672092 -7.28732e-20)
(0.829302 0.618287 -8.18553e-20)
(0.788726 0.572582 7.31373e-20)
(0.75312 0.52575 0)
(0.666507 0.446947 -2.22626e-20)
(0.488955 0.318752 -5.2455e-20)
(0.277006 0.175858 -6.18045e-20)
(0.101835 0.0615391 -7.28707e-20)
(-0.00856478 -0.00790996 2.15824e-20)
(-0.0476 -0.0309148 -1.27205e-20)
(-0.0197021 -0.0123577 7.19747e-23)
(0.233526 0.162828 0)
(1.08681 0.745718 0)
(1.28474 0.890002 5.08779e-22)
(1.30645 0.921234 0)
(1.25823 0.905804 -7.09801e-22)
(1.1884 0.875085 6.65035e-21)
(1.11451 0.840711 0)
(1.03665 0.802161 4.7464e-21)
(0.955381 0.757028 8.82277e-20)
(0.873049 0.702546 -1.68167e-19)
(0.805346 0.645182 0)
(0.762712 0.595594 -4.7388e-20)
(0.72536 0.544129 -5.65466e-22)
(0.638382 0.459337 -3.74759e-22)
(0.466551 0.325564 5.65269e-20)
(0.264529 0.179077 4.5027e-23)
(0.0976856 0.0627718 -1.57333e-19)
(-0.00719766 -0.00738461 4.64947e-20)
(-0.0444191 -0.0305842 1.38011e-20)
(-0.0185452 -0.0122979 0)
(0.233296 0.170996 -3.49686e-20)
(1.07719 0.779095 -1.65195e-20)
(1.27163 0.929647 -2.10348e-20)
(1.29165 0.961266 1.94272e-20)
(1.243 0.944522 -4.3107e-21)
(1.17302 0.912235 0)
(1.09865 0.876274 1.30432e-20)
(1.01982 0.836036 -1.07238e-20)
(0.936924 0.788994 8.0278e-22)
(0.85209 0.732042 1.24835e-20)
(0.781431 0.671385 1.06971e-19)
(0.736382 0.617795 -1.6673e-20)
(0.697106 0.561131 -6.30557e-20)
(0.609901 0.469677 -2.60925e-20)
(0.443791 0.330126 3.06009e-20)
(0.25158 0.180557 6.435e-23)
(0.0931204 0.0631716 4.2457e-20)
(-0.00628905 -0.00694129 -1.00251e-19)
(-0.0415754 -0.0300837 1.1899e-19)
(-0.0174254 -0.0121496 1.75603e-20)
(0.233106 0.178928 1.33106e-20)
(1.06807 0.810863 -9.31809e-21)
(1.25869 0.966941 1.31097e-21)
(1.27709 0.998831 1.27463e-20)
(1.22806 0.980889 2.30311e-21)
(1.15799 0.947229 -1.11231e-20)
(1.08323 0.909908 3.54475e-21)
(1.00349 0.868242 -4.47263e-20)
(0.919029 0.819619 -9.78546e-20)
(0.831628 0.760615 -1.00966e-19)
(0.757723 0.697012 0)
(0.709792 0.639349 -7.3782e-20)
(0.668247 0.576773 9.13227e-20)
(0.580843 0.477561 0)
(0.420861 0.331718 -6.58105e-20)
(0.23895 0.179603 3.89195e-20)
(0.0891617 0.0624444 -4.5767e-20)
(-0.00521858 -0.00644491 -5.40649e-20)
(-0.0392796 -0.0294306 -9.60061e-20)
(-0.0165591 -0.0120276 -7.5816e-20)
(0.233228 0.186729 -1.51169e-20)
(1.05931 0.841024 9.98396e-21)
(1.24602 1.00196 2.24412e-20)
(1.26287 1.03402 1.88443e-20)
(1.21354 1.015 -4.00015e-21)
(1.14343 0.980157 -5.22119e-21)
(1.06834 0.941667 1.211e-20)
(0.987792 0.898825 -4.59239e-20)
(0.901812 0.848933 -5.82595e-20)
(0.811823 0.788299 1.06344e-19)
(0.734378 0.722167 2.37298e-19)
(0.683002 0.660461 0)
(0.638585 0.591193 0)
(0.550776 0.48273 -3.0134e-20)
(0.397614 0.32946 0)
(0.227356 0.174782 8.36922e-20)
(0.0881627 0.0594592 9.84468e-20)
(-0.00152365 -0.00637759 0)
(-0.0368315 -0.028877 0)
(-0.016407 -0.0122533 8.16483e-20)
(0.233166 0.194082 1.72342e-20)
(1.05095 0.869592 1.36201e-20)
(1.2337 1.03481 1.63412e-20)
(1.24907 1.06698 -1.83665e-20)
(1.19952 1.04698 -5.71658e-21)
(1.12941 1.0111 4.14553e-21)
(1.05408 0.971613 -1.6578e-20)
(0.9728 0.927815 -2.15325e-22)
(0.885382 0.876945 -1.05795e-21)
(0.792806 0.815104 -7.35785e-22)
(0.71157 0.746939 1.22787e-19)
(0.656098 0.681336 0)
(0.607965 0.604678 9.35531e-20)
(0.519083 0.485193 6.48377e-20)
(0.373139 0.32252 1.54458e-19)
(0.216833 0.163516 4.52734e-20)
(0.0926113 0.0494338 -5.30745e-20)
(0.0121831 -0.0132141 -3.1293e-20)
(-0.0250577 -0.0309862 0)
(-0.015191 -0.0126289 8.80272e-20)
(0.233504 0.201478 -3.90952e-20)
(1.04294 0.896678 0)
(1.22173 1.06556 1.9363e-20)
(1.23572 1.09779 -1.566e-20)
(1.18604 1.07691 8.34368e-21)
(1.11598 1.04013 -2.21512e-21)
(1.0405 0.999799 3.13647e-20)
(0.958576 0.955249 -3.75684e-21)
(0.869807 0.903665 0)
(0.77469 0.841007 -1.18406e-19)
(0.689471 0.77138 -2.68774e-19)
(0.629211 0.702186 1.10732e-20)
(0.57632 0.617612 1.30417e-19)
(0.485153 0.485435 0)
(0.345646 0.310892 1.0485e-19)
(0.204091 0.143029 0)
(0.100076 0.0212396 0)
(0.0439459 -0.0478681 -3.38459e-20)
(0.0303713 -0.0488287 0)
(0.0205737 -0.00031948 2.36625e-20)
(0.233468 0.20834 -4.37659e-20)
(1.03527 0.922571 0)
(1.2101 1.09441 3.24341e-20)
(1.22278 1.12669 0)
(1.1731 1.10506 -5.26518e-21)
(1.10309 1.06755 0)
(1.02754 1.02653 1.36051e-21)
(0.945028 0.981455 6.40879e-21)
(0.854968 0.929447 7.42745e-21)
(0.757306 0.866373 -1.30543e-19)
(0.667886 0.795938 8.08858e-21)
(0.602016 0.723699 8.98365e-20)
(0.543051 0.630846 1.27929e-19)
(0.447766 0.484215 1.71651e-20)
(0.312542 0.295906 8.27313e-20)
(0.182103 0.113671 0)
(0.0937697 -0.0287687 1.12032e-19)
(0.0554081 -0.0789443 -6.57804e-20)
(0.0260503 0.0411141 7.69697e-20)
(-0.038799 0.459954 -9.14435e-20)
(0.233429 0.215049 3.63219e-20)
(1.02769 0.947112 5.46891e-20)
(1.19873 1.12168 0)
(1.21012 1.15413 1.00738e-21)
(1.16047 1.13203 1.59592e-20)
(1.09046 1.09404 -3.67715e-21)
(1.01488 1.05261 1.03567e-20)
(0.931731 1.00737 0)
(0.840316 0.955371 4.8865e-20)
(0.739947 0.892486 -6.77806e-21)
(0.645847 0.822072 0)
(0.573091 0.747492 0)
(0.505809 0.645506 1.15485e-19)
(0.403914 0.481778 -5.32201e-20)
(0.270235 0.279259 -8.45483e-20)
(0.145215 0.07839 0)
(0.056634 0.000143874 5.7127e-20)
(0.0037054 0.455434 -6.61956e-20)
(0.0288673 1.93933 -3.7155e-20)
(0.0551079 2.83082 -4.56357e-20)
(0.233114 0.221242 -2.74038e-20)
(1.02028 0.970479 -7.04277e-20)
(1.18765 1.14738 1.93764e-20)
(1.19774 1.17999 1.56195e-20)
(1.14824 1.15761 0)
(1.0782 1.11933 -4.75797e-21)
(1.00274 1.07772 1.32314e-20)
(0.918893 1.03255 -3.0822e-21)
(0.826151 0.980932 7.37062e-21)
(0.723035 0.918765 1.2508e-19)
(0.624025 0.849188 1.37954e-19)
(0.543459 0.773544 1.0233e-19)
(0.46533 0.662111 1.17235e-19)
(0.354461 0.477716 -1.26533e-19)
(0.223918 0.265243 -1.28843e-19)
(0.0977436 0.138664 0)
(0.0356731 0.906042 0)
(0.0818445 2.59166 3.17971e-20)
(0.0849909 3.2169 0)
(0.086844 3.39097 8.28616e-20)
(0.235618 0.227076 0)
(1.01336 0.99307 0)
(1.17655 1.17138 0)
(1.18544 1.20413 4.77525e-21)
(1.13606 1.18155 1.47142e-20)
(1.06611 1.14326 -6.083e-21)
(0.991047 1.10176 8.18645e-21)
(0.906447 1.05689 -2.99399e-21)
(0.812411 1.00595 6.10969e-20)
(0.706565 0.945047 -1.62381e-21)
(0.602525 0.87709 2.74253e-19)
(0.513503 0.801972 -1.1909e-20)
(0.421512 0.681814 1.43669e-20)
(0.300944 0.47059 1.84694e-20)
(0.166052 0.28282 -7.2335e-22)
(0.0826937 1.02647 3.48793e-22)
(0.117168 2.77436 -1.70791e-19)
(0.121661 3.30246 -6.42658e-20)
(0.113528 3.42315 3.38832e-20)
(0.104137 3.44266 -3.83113e-20)
(0.158829 0.172684 1.67983e-20)
(1.00216 1.01764 0)
(1.16521 1.19387 -3.99183e-20)
(1.17366 1.22699 -4.29147e-20)
(1.12438 1.20434 3.53524e-20)
(1.05488 1.16632 7.39049e-21)
(0.979587 1.12476 -8.01375e-21)
(0.894425 1.08042 3.21177e-20)
(0.799177 1.03051 -5.0161e-20)
(0.690773 0.971448 0)
(0.581669 0.905855 1.35873e-19)
(0.483772 0.832601 -8.43675e-20)
(0.378157 0.711569 0)
(0.23925 0.465733 1.80895e-20)
(0.119413 0.72322 4.2553e-20)
(0.131787 2.5833 -4.78287e-20)
(0.178241 3.32725 5.41736e-20)
(0.162339 3.43156 2.9128e-20)
(0.135391 3.45045 3.29549e-20)
(0.117 3.45933 5.24998e-20)
(0.27007 0.264471 -3.23851e-20)
(0.984016 1.02732 0)
(1.1464 1.21958 4.31768e-20)
(1.15848 1.25815 4.74449e-20)
(1.10642 1.23795 -4.00298e-20)
(1.03633 1.20028 -1.22573e-20)
(0.959823 1.16026 4.93465e-21)
(0.874002 1.11719 2.56106e-21)
(0.777114 1.06949 4.75674e-20)
(0.665291 1.01454 1.09055e-19)
(0.549445 0.955135 7.63714e-21)
(0.437576 0.883562 7.57546e-20)
(0.295936 0.737721 1.37691e-20)
(0.198327 0.880101 -1.75065e-20)
(0.204544 2.46518 -3.90778e-20)
(0.255603 3.32964 3.83563e-20)
(0.238427 3.45472 -4.19883e-20)
(0.204867 3.474 -2.4106e-20)
(0.172036 3.49878 -2.17995e-20)
(0.127331 3.49442 -3.15765e-21)
(0.260116 0.263271 0)
(0.980786 1.05001 1.26174e-20)
(1.1373 1.24313 -8.90974e-21)
(1.14705 1.28175 -5.67696e-21)
(1.09497 1.26129 -2.7772e-20)
(1.02484 1.22379 1.29002e-20)
(0.947968 1.18397 -1.56895e-21)
(0.861802 1.14175 2.26466e-21)
(0.764107 1.09556 -4.94469e-20)
(0.650433 1.04359 -2.67936e-21)
(0.530643 0.989092 -2.47136e-19)
(0.41095 0.9196 1.08919e-20)
(0.27487 0.811263 -1.3083e-20)
(0.234207 1.53209 -1.61363e-20)
(0.298098 3.14452 3.66577e-21)
(0.310027 3.4555 1.45583e-22)
(0.269182 3.50252 6.25316e-20)
(0.235776 3.52686 3.16397e-20)
(0.190389 3.54731 -1.01849e-20)
(0.140884 3.54449 -1.5764e-20)
(0.246086 0.261199 3.23375e-20)
(0.976623 1.07522 8.55518e-20)
(1.12785 1.26877 -2.5402e-20)
(1.13525 1.30699 -2.13206e-20)
(1.08303 1.28609 0)
(1.01296 1.24862 2.43558e-20)
(0.936007 1.20907 7.98557e-22)
(0.849755 1.16765 1.94261e-21)
(0.751573 1.12311 -5.56564e-21)
(0.636612 1.07448 -9.87655e-20)
(0.513869 1.02555 -1.1422e-19)
(0.387405 0.956998 -8.92212e-20)
(0.276855 0.962293 -9.86734e-20)
(0.300942 2.32158 1.01674e-19)
(0.379801 3.38369 8.56905e-20)
(0.350053 3.51049 0)
(0.302757 3.54854 0)
(0.266432 3.5828 -8.09466e-21)
(0.22341 3.6278 0)
(0.154171 3.61355 -1.24908e-20)
(0.236228 0.26304 -4.82518e-20)
(0.970531 1.10127 -7.24949e-20)
(1.117 1.29564 0)
(1.12217 1.33304 1.22553e-21)
(1.06983 1.31156 -3.03375e-20)
(0.999995 1.27403 4.01165e-20)
(0.923284 1.23479 2.28846e-21)
(0.837177 1.19413 8.90577e-22)
(0.738771 1.15123 -3.43287e-20)
(0.622986 1.10599 4.86934e-21)
(0.498286 1.06275 0)
(0.366044 0.998032 0)
(0.298857 1.26488 -8.96728e-20)
(0.381699 2.97934 3.64824e-20)
(0.445195 3.48089 4.64219e-20)