/*--------------------------------*- C++ -*----------------------------------*\
  =========                 |
  \\      /  F ield         | OpenFOAM: The Open Source CFD Toolbox
   \\    /   O peration     | Website:  https://openfoam.org
    \\  /    A nd           | Version:  6
     \\/     M anipulation  |
\*---------------------------------------------------------------------------*/
FoamFile
{
    version     2.0;
    format      ascii;
    class       volVectorField;
    location    "2.8";
    object      U;
}
// * * * * * * * * * * * * * * * * * * * * * * * * * * * * * * * * * * * * * //

dimensions      [0 1 -1 0 0 0 0];

internalField   nonuniform List<vector> 
8800
(
(0.984628 -0.0781548 0)
(1.00781 -0.0586096 0)
(1.00137 -0.0303119 0)
(0.999813 -0.0152129 0)
(1.0003 -0.00714297 0)
(1.00055 -0.0033197 0)
(1.00018 -0.00202861 0)
(1 -0.00125766 0)
(0.999887 -0.000629756 0)
(0.999834 -0.000121767 0)
(0.999846 0.000346211 0)
(0.999926 0.000956889 0)
(1.00007 0.00165369 0)
(1.00033 0.00260377 0)
(1.00065 0.00462467 0)
(0.999978 0.0105213 0)
(1.00022 0.0216513 0)
(1.00346 0.0416215 0)
(1.01109 0.0755011 0)
(0.76822 0.0370723 0)
(0.395657 -0.0114203 0)
(1.04257 -0.0597505 0)
(1.07319 -0.0513562 0)
(1.03645 -0.0451774 0)
(1.01424 -0.0351535 0)
(1.0026 -0.0256767 0)
(0.996953 -0.0178993 0)
(0.994737 -0.0117772 0)
(0.994028 -0.00688108 0)
(0.993904 -0.00272608 0)
(0.993894 0.00118934 0)
(0.993835 0.00517531 0)
(0.994184 0.00958843 0)
(0.995499 0.0149746 0)
(0.999113 0.0218232 0)
(1.00757 0.030408 0)
(1.02307 0.0405317 0)
(1.05475 0.0489657 0)
(1.07879 0.0537315 0)
(0.85622 0.0403131 0)
(0.299158 -0.00123561 0)
(1.0706 -0.0206856 0)
(1.0698 -0.0256094 0)
(1.05087 -0.0268466 0)
(1.03696 -0.025548 0)
(1.02751 -0.0222503 0)
(1.02108 -0.0175382 0)
(1.01698 -0.0122091 0)
(1.01464 -0.00668155 0)
(1.01362 -0.000865672 0)
(1.01392 0.00496641 0)
(1.0155 0.010473 0)
(1.01858 0.0157636 0)
(1.02372 0.0206985 0)
(1.03153 0.0246424 0)
(1.04286 0.0268525 0)
(1.05963 0.026963 0)
(1.07739 0.0237488 0)
(1.00032 0.0174097 0)
(0.298961 0.00125002 0)
(0.290192 0.000613885 0)
(1.02944 -0.00514673 0)
(1.04385 -0.0123842 0)
(1.03616 -0.0172736 0)
(1.02817 -0.0186216 0)
(1.02175 -0.0170987 0)
(1.01645 -0.0141975 0)
(1.01201 -0.0104278 0)
(1.00902 -0.00585756 0)
(1.00756 -0.000535442 0)
(1.00793 0.00489243 0)
(1.01003 0.00966375 0)
(1.01363 0.0136015 0)
(1.01852 0.0167161 0)
(1.02429 0.0188114 0)
(1.03148 0.0191201 0)
(1.03961 0.0156154 0)
(1.04402 0.00925699 0)
(0.955727 0.00186494 0)
(0.289825 -0.000604251 0)
(0.291942 -0.000101032 0)
(1.01957 -0.00229529 0)
(1.03686 -0.00523967 0)
(1.03489 -0.0080412 0)
(1.03161 -0.0100915 0)
(1.02754 -0.0109307 0)
(1.0234 -0.0102244 0)
(1.01975 -0.00801783 0)
(1.017 -0.00460602 0)
(1.0155 -0.000241341 0)
(1.0158 0.00437009 0)
(1.01774 0.00805405 0)
(1.02081 0.0106534 0)
(1.02463 0.0118692 0)
(1.02875 0.0115312 0)
(1.03246 0.00978324 0)
(1.03522 0.00712993 0)
(1.03423 0.00400802 0)
(0.948107 0.00120184 0)
(0.291435 0.000110154 0)
(0.290582 -1.17176e-05 0)
(1.01299 -0.0011247 0)
(1.03003 -0.00256674 0)
(1.02919 -0.0040668 0)
(1.02755 -0.00531184 0)
(1.02535 -0.00600373 0)
(1.02281 -0.00587099 0)
(1.02024 -0.00475836 0)
(1.01804 -0.00263593 0)
(1.01678 0.000363862 0)
(1.01692 0.00338765 0)
(1.01833 0.00576031 0)
(1.02049 0.00708195 0)
(1.02291 0.00738484 0)
(1.02519 0.00678071 0)
(1.02706 0.00549709 0)
(1.02836 0.0038446 0)
(1.02672 0.0021155 0)
(0.942213 0.00067169 0)
(0.289848 2.57109e-05 0)
(0.290154 -1.18762e-05 0)
(1.01038 -0.000553623 0)
(1.02745 -0.00122887 0)
(1.02719 -0.00195884 0)
(1.02635 -0.00262422 0)
(1.02513 -0.00306546 0)
(1.02356 -0.00308218 0)
(1.0218 -0.00248639 0)
(1.02017 -0.00117676 0)
(1.01907 0.000797807 0)
(1.01903 0.00286528 0)
(1.01993 0.00425302 0)
(1.02128 0.004838 0)
(1.0227 0.00472809 0)
(1.02394 0.00411025 0)
(1.02486 0.00320375 0)
(1.02543 0.00220181 0)
(1.02342 0.00123647 0)
(0.939439 0.000432182 0)
(0.289168 2.94147e-05 0)
(0.289931 -2.80189e-07 0)
(1.00907 -0.000231336 0)
(1.02611 -0.000537644 0)
(1.02605 -0.000873192 0)
(1.02556 -0.00117916 0)
(1.02482 -0.00137057 0)
(1.0238 -0.00132621 0)
(1.02259 -0.000912708 0)
(1.02134 -3.59471e-05 0)
(1.02037 0.00128111 0)
(1.02013 0.00259871 0)
(1.02057 0.00338366 0)
(1.02131 0.00357909 0)
(1.02208 0.00332608 0)
(1.02273 0.00279078 0)
(1.02319 0.00212767 0)
(1.02347 0.00144867 0)
(1.02132 0.000821239 0)
(0.937625 0.000296753 0)
(0.288632 2.24292e-05 0)
(0.289913 4.79891e-06 0)
(1.00856 -2.92086e-05 0)
(1.02558 -0.000117803 0)
(1.02562 -0.000210662 0)
(1.0253 -0.000275713 0)
(1.0248 -0.000267155 0)
(1.02409 -0.000117075 0)
(1.02318 0.00025452 0)
(1.02217 0.00090471 0)
(1.02126 0.0018009 0)
(1.02081 0.00261074 0)
(1.02085 0.00300338 0)
(1.02115 0.00295186 0)
(1.02149 0.00262424 0)
(1.02178 0.00214177 0)
(1.022 0.00160884 0)
(1.02211 0.00109233 0)
(1.01989 0.000627298 0)
(0.936345 0.000236847 0)
(0.288217 2.07844e-05 0)
(0.290031 1.47232e-05 0)
(1.00856 0.00010107 0)
(1.02556 0.000165686 0)
(1.02565 0.000246908 0)
(1.02541 0.000361759 0)
(1.02502 0.000535519 0)
(1.02445 0.000803608 0)
(1.0237 0.00120445 0)
(1.02278 0.00175465 0)
(1.02184 0.00239706 0)
(1.02117 0.00286975 0)
(1.02088 0.00298923 0)
(1.02083 0.00276863 0)
(1.02088 0.00236924 0)
(1.02094 0.00189147 0)
(1.021 0.00140601 0)
(1.02102 0.000954567 0)
(1.01876 0.000555929 0)
(0.935293 0.000218537 0)
(0.287839 2.15876e-05 0)
(0.290271 2.01389e-05 0)
(1.00893 0.000232377 0)
(1.02592 0.000412224 0)
(1.02602 0.000626281 0)
(1.02581 0.000887893 0)
(1.02546 0.00120931 0)
(1.02494 0.00160395 0)
(1.02422 0.00207866 0)
(1.02329 0.00261244 0)
(1.02223 0.00311656 0)
(1.0213 0.00336416 0)
(1.02072 0.00324759 0)
(1.02038 0.002904 0)
(1.0202 0.00242389 0)
(1.02011 0.00190575 0)
(1.02005 0.00140689 0)
(1.02001 0.000955975 0)
(1.01771 0.000562957 0)
(0.934294 0.000228115 0)
(0.287449 2.44354e-05 0)
(0.290633 2.7701e-05 0)
(1.00962 0.000347958 0)
(1.02659 0.000640073 0)
(1.02669 0.00098386 0)
(1.02648 0.00138915 0)
(1.02612 0.00186169 0)
(1.02558 0.0023999 0)
(1.02481 0.00298583 0)
(1.02377 0.00356453 0)
(1.0225 0.00401039 0)
(1.02127 0.0041063 0)
(1.02038 0.00382845 0)
(1.0198 0.00332213 0)
(1.01942 0.00272501 0)
(1.01919 0.00212175 0)
(1.01904 0.00155973 0)
(1.01894 0.00106081 0)
(1.01662 0.000629753 0)
(0.933228 0.000260402 0)
(0.287009 2.93249e-05 0)
(0.291127 3.64674e-05 0)
(1.01065 0.000477266 0)
(1.02759 0.000887809 0)
(1.02768 0.00136894 0)
(1.02743 0.00193031 0)
(1.02703 0.00257205 0)
(1.02641 0.00328112 0)
(1.02551 0.00401747 0)
(1.02428 0.00469246 0)
(1.0227 0.00513654 0)
(1.02111 0.00511803 0)
(1.01988 0.00467198 0)
(1.01904 0.00399717 0)
(1.01847 0.003248 0)
(1.01811 0.00251507 0)
(1.01788 0.00184451 0)
(1.01773 0.00125496 0)
(1.01538 0.000748147 0)
(0.931994 0.000312608 0)
(0.286482 3.60965e-05 0)
(0.29178 4.75576e-05 0)
(1.01204 0.000631623 0)
(1.02896 0.00117931 0)
(1.02901 0.00182057 0)
(1.02871 0.00256485 0)
(1.02823 0.00340875 0)
(1.02748 0.00432775 0)
(1.02638 0.00526038 0)
(1.02486 0.00608063 0)
(1.02287 0.00656639 0)
(1.02083 0.00645142 0)
(1.01921 0.005824 0)
(1.01806 0.00494483 0)
(1.01729 0.00399782 0)
(1.01678 0.00308652 0)
(1.01647 0.00226074 0)
(1.01627 0.0015386 0)
(1.01388 0.000919477 0)
(0.930499 0.000386395 0)
(0.285834 4.5218e-05 0)
(0.292632 6.16639e-05 0)
(1.01387 0.000823165 0)
(1.03075 0.00153896 0)
(1.03076 0.00237597 0)
(1.03039 0.00334529 0)
(1.02979 0.00443923 0)
(1.02885 0.00562188 0)
(1.02747 0.00680679 0)
(1.02555 0.00782462 0)
(1.02303 0.00838831 0)
(1.02041 0.0081788 0)
(1.01831 0.00733864 0)
(1.01682 0.00620429 0)
(1.0158 0.00500215 0)
(1.01514 0.00385553 0)
(1.01472 0.00282182 0)
(1.01446 0.00192027 0)
(1.01204 0.00114877 0)
(0.928644 0.000483932 0)
(0.285024 5.68946e-05 0)
(0.293737 7.99457e-05 0)
(1.01626 0.00106674 0)
(1.03309 0.00199405 0)
(1.03304 0.00307785 0)
(1.03257 0.00433053 0)
(1.03179 0.00574032 0)
(1.0306 0.0072568 0)
(1.02885 0.00876387 0)
(1.0264 0.010039 0)
(1.02319 0.0107131 0)
(1.01984 0.0103964 0)
(1.01715 0.00929381 0)
(1.01523 0.00783708 0)
(1.01392 0.00630788 0)
(1.01306 0.00485699 0)
(1.01253 0.00355277 0)
(1.0122 0.00241744 0)
(1.00972 0.00144656 0)
(0.926316 0.000609779 0)
(0.284004 7.17243e-05 0)
(0.295171 0.000103941 0)
(1.01934 0.00138097 0)
(1.0361 0.00257935 0)
(1.03598 0.00397861 0)
(1.03537 0.00559346 0)
(1.03437 0.0074061 0)
(1.03284 0.00934799 0)
(1.03059 0.0112647 0)
(1.02746 0.0128665 0)
(1.02336 0.0136813 0)
(1.01908 0.0132299 0)
(1.01565 0.0117947 0)
(1.0132 0.00992757 0)
(1.01153 0.00798073 0)
(1.01044 0.00614025 0)
(1.00976 0.00448931 0)
(1.00934 0.003054 0)
(1.00681 0.00182715 0)
(0.923378 0.00077002 0)
(0.282718 9.04993e-05 0)
(0.297038 0.000135689 0)
(1.02333 0.00179115 0)
(1.04 0.00334035 0)
(1.03977 0.00514704 0)
(1.03897 0.00722876 0)
(1.03768 0.00955862 0)
(1.0357 0.0120434 0)
(1.0328 0.0144784 0)
(1.02877 0.0164877 0)
(1.02353 0.0174703 0)
(1.01807 0.016838 0)
(1.01372 0.0149752 0)
(1.01061 0.0125847 0)
(1.00849 0.0101069 0)
(1.00711 0.00777126 0)
(1.00625 0.00567951 0)
(1.00572 0.00386241 0)
(1.00312 0.00230998 0)
(0.919664 0.000972773 0)
(0.281096 0.000114106 0)
(0.299478 0.000178472 0)
(1.02849 0.00233215 0)
(1.04505 0.00434009 0)
(1.04467 0.00667758 0)
(1.04362 0.00936476 0)
(1.04193 0.0123613 0)
(1.03934 0.0155389 0)
(1.03558 0.0186258 0)
(1.03039 0.0211343 0)
(1.02368 0.0223033 0)
(1.01675 0.0214193 0)
(1.01123 0.0190034 0)
(1.00731 0.0159466 0)
(1.00464 0.0127955 0)
(1.00289 0.00983333 0)
(1.0018 0.00718375 0)
(1.00115 0.00488366 0)
(0.998448 0.00291921 0)
(0.914968 0.00122789 0)
(0.279051 0.00014357 0)
(0.302694 0.000237048 0)
(1.03521 0.00305581 0)
(1.0516 0.00566987 0)
(1.05101 0.00870428 0)
(1.04962 0.0121826 0)
(1.04738 0.0160412 0)
(1.04398 0.0201015 0)
(1.03907 0.0239995 0)
(1.03237 0.0271043 0)
(1.02379 0.0284602 0)
(1.015 0.0272187 0)
(1.00805 0.0240861 0)
(1.00311 0.0201841 0)
(0.999752 0.0161843 0)
(0.997556 0.0124329 0)
(0.996183 0.0090806 0)
(0.995356 0.0061716 0)
(0.992543 0.00368733 0)
(0.909032 0.00154892 0)
(0.276478 0.000180531 0)
(0.306977 0.000319552 0)
(1.04398 0.00404144 0)
(1.06014 0.00746729 0)
(1.05926 0.0114282 0)
(1.05738 0.0159468 0)
(1.05438 0.0209227 0)
(1.04986 0.0261011 0)
(1.04342 0.0309912 0)
(1.03474 0.0347801 0)
(1.02379 0.0362851 0)
(1.0127 0.0345303 0)
(1.00398 0.0304728 0)
(0.997786 0.0255066 0)
(0.993568 0.020445 0)
(0.990806 0.0157056 0)
(0.989076 0.0114714 0)
(0.988037 0.00779586 0)
(0.985077 0.00465604 0)
(0.901534 0.00195319 0)
(0.273241 0.000226926 0)
(0.312778 0.000440057 0)
(1.05554 0.0054218 0)
(1.07135 0.00995757 0)
(1.07003 0.0151659 0)
(1.06744 0.0210639 0)
(1.06334 0.0274874 0)
(1.05727 0.0340646 0)
(1.04875 0.0401295 0)
(1.0375 0.0446475 0)
(1.02356 0.0461915 0)
(1.00965 0.0436981 0)
(0.998776 0.0384584 0)
(0.991053 0.0321714 0)
(0.98577 0.0257971 0)
(0.982293 0.0198305 0)
(0.980106 0.014494 0)
(0.978791 0.00985502 0)
(0.975642 0.00588623 0)
(0.892061 0.00246683 0)
(0.269167 0.000286089 0)
(0.320839 0.00062698 0)
(1.07089 0.00745857 0)
(1.08617 0.0135569 0)
(1.08418 0.0204637 0)
(1.08048 0.0281948 0)
(1.07475 0.0364786 0)
(1.06644 0.044756 0)
(1.0551 0.0521253 0)
(1.04051 0.0573081 0)
(1.02289 0.0586554 0)
(1.0056 0.0551064 0)
(0.992167 0.0483812 0)
(0.982591 0.040492 0)
(0.975981 0.0325289 0)
(0.971586 0.0250612 0)
(0.968797 0.018357 0)
(0.967117 0.0125071 0)
(0.963717 0.00748255 0)
(0.880078 0.00313675 0)
(0.264015 0.000364175 0)
(0.332581 0.000952655 0)
(1.09152 0.0107927 0)
(1.106 0.0191366 0)
(1.10287 0.0283302 0)
(1.09732 0.0384647 0)
(1.089 0.0490682 0)
(1.07742 0.0592727 0)
(1.06223 0.0679002 0)
(1.04342 0.0734665 0)
(1.02139 0.0741865 0)
(1.00018 0.0691526 0)
(0.983802 0.0606085 0)
(0.972033 0.0508467 0)
(0.96378 0.0410339 0)
(0.958181 0.0317892 0)
(0.954562 0.0234258 0)
(0.952369 0.01607 0)
(0.948633 0.00968877 0)
(0.864871 0.00409382 0)
(0.257409 0.000477586 0)
(0.351006 0.00165125 0)
(1.12021 0.0170446 0)
(1.13342 0.0284783 0)
(1.12787 0.0406064 0)
(1.11888 0.0537751 0)
(1.10631 0.0670364 0)
(1.08992 0.0790843 0)
(1.06961 0.0885405 0)
(1.04561 0.0938539 0)
(1.01849 0.0932644 0)
(0.992961 0.0862017 0)
(0.973321 0.0755065 0)
(0.959051 0.0636747 0)
(0.948795 0.0518558 0)
(0.94159 0.0406644 0)
(0.936739 0.0304217 0)
(0.933696 0.0212957 0)
(0.929413 0.0131987 0)
(0.84546 0.00581169 0)
(0.248688 0.00068893 0)
(0.380189 0.00355768 0)
(1.16243 0.0305292 0)
(1.17234 0.0452254 0)
(1.16115 0.0609447 0)
(1.14582 0.0774957 0)
(1.12662 0.0930314 0)
(1.10356 0.106023 0)
(1.07678 0.115205 0)
(1.04668 0.119155 0)
(1.01394 0.116287 0)
(0.983836 0.10656 0)
(0.960757 0.0934321 0)
(0.943739 0.0794815 0)
(0.931096 0.065729 0)
(0.921737 0.0527216 0)
(0.914912 0.0407175 0)
(0.910126 0.0299181 0)
(0.904403 0.0198348 0)
(0.820211 0.00942218 0)
(0.237455 0.00116495 0)
(0.424357 0.0139559 1.16242e-20)
(1.22115 0.0607299 1.01794e-20)
(1.2209 0.0781657 -3.55979e-21)
(1.20023 0.0970484 0)
(1.17604 0.115056 -8.65572e-35)
(1.14844 0.130494 1.25111e-21)
(1.11742 0.142302 -2.17409e-21)
(1.08325 0.149488 0)
(1.04637 0.150797 4.28498e-35)
(1.00745 0.144786 -2.51094e-21)
(0.972273 0.131989 0)
(0.945262 0.116419 -2.89748e-21)
(0.924907 0.100604 -8.49352e-21)
(0.909153 0.0853987 -4.0004e-21)
(0.896655 0.0712769 -1.19667e-21)
(0.886512 0.0585487 -7.11563e-22)
(0.878075 0.0474229 0)
(0.868818 0.0379636 5.05189e-22)
(0.785772 0.0257046 6.01389e-22)
(0.225358 0.00727168 1.10094e-20)
(0.442894 0.039323 8.79286e-21)
(1.27572 0.117423 1.00674e-22)
(1.26586 0.133641 9.84707e-22)
(1.23576 0.1496 0)
(1.20268 0.165012 -4.50772e-21)
(1.16687 0.178075 -5.03071e-21)
(1.12826 0.18757 -2.22161e-21)
(1.08692 0.192303 -7.64967e-21)
(1.04312 0.190925 0)
(0.997332 0.181994 1.06471e-20)
(0.955917 0.166631 1.0392e-20)
(0.923749 0.14934 3.04442e-21)
(0.898973 0.132594 1.09622e-20)
(0.879173 0.117147 1.53296e-20)
(0.862798 0.103346 0)
(0.848814 0.0915606 2.17136e-20)
(0.836519 0.0819429 3.14489e-20)
(0.823838 0.0756554 3.51838e-20)
(0.745492 0.0615317 -4.08056e-20)
(0.218854 0.0198747 -7.45107e-22)
(0.43464 0.0656635 0)
(1.31133 0.191687 1.81976e-21)
(1.29809 0.202727 0)
(1.26163 0.21347 -6.48305e-21)
(1.22208 0.223997 0)
(1.17972 0.232747 -1.01584e-20)
(1.13463 0.238318 4.60224e-21)
(1.08693 0.239315 -1.56489e-20)
(1.03697 0.23433 -2.36589e-22)
(0.985248 0.221926 5.52935e-21)
(0.938751 0.203796 2.24959e-20)
(0.902678 0.184925 3.66948e-24)
(0.874848 0.167716 -7.87325e-21)
(0.852629 0.152645 -1.41579e-20)
(0.834417 0.139856 1.68413e-20)
(0.819203 0.129422 -2.98503e-20)
(0.806249 0.121421 -3.97236e-21)
(0.793346 0.116371 0)
(0.720662 0.10101 1.86132e-22)
(0.216802 0.0316407 0)
(0.429585 0.0895206 2.66721e-20)
(1.32973 0.266371 -1.33048e-20)
(1.31576 0.27521 -9.61988e-21)
(1.27668 0.281168 3.23515e-21)
(1.23345 0.286904 -5.39744e-21)
(1.18671 0.290956 2.15743e-20)
(1.13669 0.292112 9.70001e-21)
(1.08378 0.288888 0)
(1.02854 0.279816 -2.84118e-20)
(0.971685 0.263459 0)
(0.920966 0.242202 -1.17502e-20)
(0.88199 0.221501 -1.41623e-20)
(0.85228 0.203486 -8.40992e-21)
(0.828898 0.188274 -1.01226e-20)
(0.810082 0.175724 0)
(0.794654 0.165686 0)
(0.781781 0.157992 -2.55425e-20)
(0.769119 0.153032 5.04952e-21)
(0.699229 0.135286 -3.02749e-21)
(0.212654 0.0423484 -3.56454e-21)
(0.428005 0.112209 -1.44523e-20)
(1.33929 0.338779 0)
(1.32469 0.345938 2.26227e-20)
(1.28369 0.348233 9.87417e-21)
(1.23793 0.350007 1.22987e-20)
(1.18796 0.350013 0)
(1.13412 0.347002 9.85069e-21)
(1.07695 0.339554 1.75239e-20)
(1.01725 0.326155 1.4746e-20)
(0.956102 0.305461 2.54243e-20)
(0.902097 0.280623 0)
(0.861145 0.25764 -2.99603e-20)
(0.830368 0.23834 -1.77097e-20)
(0.806492 0.222506 -1.03282e-20)
(0.787536 0.209683 6.30072e-20)
(0.772207 0.19948 7.4885e-21)
(0.759549 0.191721 3.57807e-20)
(0.747231 0.186348 -1.7151e-19)
(0.679929 0.166282 1.02683e-19)
(0.208816 0.0521787 -1.25556e-19)
(0.426689 0.133684 -1.14885e-20)
(1.34355 0.407783 3.18574e-21)
(1.32786 0.414243 -3.12137e-21)
(1.28542 0.413753 -1.2057e-20)
(1.23764 0.412293 -1.1677e-20)
(1.18505 0.408747 3.37677e-22)
(1.12799 0.401906 -1.06896e-20)
(1.06713 0.39038 1.84528e-20)
(1.00353 0.372558 -3.16705e-20)
(0.938692 0.347204 0)
(0.882082 0.318294 -1.37203e-20)
(0.839838 0.29254 -8.87981e-23)
(0.808594 0.271536 -1.89098e-20)
(0.784674 0.25467 0)
(0.765903 0.241232 -1.33399e-20)
(0.750882 0.230574 -3.15454e-20)
(0.738589 0.222446 8.51705e-20)
(0.72667 0.21651 -8.48788e-20)
(0.661673 0.194203 1.21481e-19)
(0.205066 0.061193 -1.28134e-19)
(0.425913 0.154355 -3.11825e-22)
(1.34416 0.473852 -2.88021e-21)
(1.32714 0.479869 -1.184e-20)
(1.28336 0.477209 5.82481e-21)
(1.23383 0.473079 -6.22695e-21)
(1.17893 0.466478 0)
(1.11901 0.456205 -1.06083e-20)
(1.05479 0.440769 -1.96171e-20)
(0.987602 0.418523 -1.66856e-20)
(0.919447 0.388192 0)
(0.860748 0.354702 -1.41128e-20)
(0.817794 0.325681 -1.66992e-20)
(0.786591 0.302594 1.99361e-20)
(0.763015 0.284401 -1.20324e-20)
(0.744708 0.27008 -5.57331e-20)
(0.730168 0.258884 3.32727e-20)
(0.718321 0.250215 1.00475e-20)
(0.706872 0.243686 0)
(0.644097 0.219238 -1.13008e-19)
(0.201599 0.0695206 -4.15691e-21)
(0.425651 0.17446 -1.24737e-21)
(1.34227 0.537176 2.76698e-21)
(1.32376 0.542908 6.37759e-21)
(1.27873 0.538468 2.036e-20)
(1.22751 0.53214 -2.53206e-20)
(1.17046 0.522911 2.45541e-20)
(1.1078 0.509578 2.32147e-20)
(1.04037 0.490445 -3.1656e-20)
(0.969755 0.46377 9.68415e-21)
(0.89844 0.428144 -6.15414e-20)
(0.837988 0.389491 -1.53672e-20)
(0.794845 0.356719 0)
(0.764152 0.331187 2.09162e-20)
(0.741329 0.311479 2.44447e-20)
(0.72374 0.296223 2.91731e-20)
(0.709837 0.284309 -3.46565e-20)
(0.698576 0.275144 -1.02086e-20)
(0.687636 0.268027 1.23645e-20)
(0.627052 0.241622 0)
(0.198634 0.0773501 -8.7176e-21)
(0.425781 0.193951 1.04776e-20)
(1.33883 0.597818 -9.91789e-21)
(1.31865 0.60341 -7.04277e-21)
(1.27232 0.597533 1.41439e-20)
(1.21947 0.589361 -1.28575e-20)
(1.16027 0.577912 -5.70753e-22)
(1.09498 0.561815 -2.5561e-20)
(1.02436 0.539259 -1.14796e-20)
(0.950224 0.508192 -2.91088e-20)
(0.875698 0.466923 7.06196e-23)
(0.813675 0.422477 -4.79798e-20)
(0.770804 0.385336 3.76012e-20)
(0.741202 0.357031 -2.18156e-20)
(0.719597 0.335665 2.56101e-20)
(0.703039 0.319439 0)
(0.689972 0.306946 -1.77275e-20)
(0.679332 0.29738 -4.1173e-22)
(0.668979 0.289706 -5.04793e-20)
(0.61073 0.261756 -7.64806e-21)
(0.196239 0.084802 0)
(0.426302 0.212893 0)
(1.33429 0.655909 -1.15183e-20)
(1.31239 0.661467 -1.35049e-20)
(1.26476 0.654407 -1.47184e-20)
(1.21028 0.644751 -1.50465e-20)
(1.14895 0.631368 0)
(1.08096 0.61285 -1.26641e-20)
(1.00714 0.587168 3.29e-23)
(0.929276 0.551811 6.28405e-20)
(0.851241 0.504609 -8.66424e-21)
(0.787679 0.453563 -3.41482e-20)
(0.745537 0.411304 1.97396e-20)
(0.717689 0.379878 1.4914e-22)
(0.697867 0.356774 2.63734e-20)
(0.682785 0.339697 1.58357e-20)
(0.670772 0.326742 -3.73178e-20)
(0.660935 0.316892 4.39187e-20)
(0.651172 0.308945 1.29107e-20)
(0.595272 0.279703 5.46113e-20)
(0.194594 0.0920044 -1.48498e-19)
(0.427339 0.231628 1.4339e-21)
(1.32917 0.711655 -4.93278e-21)
(1.30551 0.717192 5.45516e-21)
(1.25651 0.709197 1.50455e-20)
(1.20038 0.698274 0)
(1.1369 0.683316 -1.40263e-20)
(1.06624 0.662689 4.26985e-20)
(0.989028 0.634191 2.65589e-20)
(0.907184 0.594734 0)
(0.82519 0.541316 -1.22672e-19)
(0.759738 0.482784 9.03867e-20)
(0.718766 0.434416 0)
(0.693562 0.399287 2.34278e-20)
(0.676369 0.374476 3.0302e-22)
(0.663278 0.356738 -4.76373e-20)
(0.652649 0.343724 1.89892e-20)
(0.643675 0.333894 0)
(0.63458 0.325898 6.63708e-20)
(0.581145 0.295982 0)
(0.194124 0.0992964 -6.64141e-20)
(0.428808 0.250149 -1.31229e-21)
(1.32378 0.765121 -3.93028e-21)
(1.2983 0.770649 6.32046e-21)
(1.24792 0.761893 0)
(1.19006 0.749954 -1.63733e-20)
(1.12452 0.733633 0)
(1.05114 0.711268 -4.44714e-20)
(0.970462 0.680298 -1.33798e-20)
(0.884294 0.637092 1.18888e-20)
(0.797559 0.577388 -6.09263e-20)
(0.729626 0.510277 9.64219e-21)
(0.690194 0.454316 0)
(0.668791 0.414743 -4.78549e-20)
(0.655357 0.38825 -3.59263e-22)
(0.64505 0.37038 0)
(0.636153 0.357791 1.3216e-22)
(0.628233 0.348495 5.63407e-20)
(0.619779 0.340883 -5.41155e-20)
(0.568941 0.310928 1.61013e-20)
(0.194897 0.106936 0)
(0.430271 0.267922 0)
(1.31832 0.816391 -3.44209e-21)
(1.29102 0.821904 -5.42109e-21)
(1.23928 0.812506 -5.04913e-22)
(1.17972 0.799722 -7.67347e-21)
(1.11204 0.782357 -3.38389e-20)
(1.03599 0.758567 1.67072e-20)
(0.951694 0.725566 -1.53552e-20)
(0.86083 0.679061 5.25656e-20)
(0.76854 0.613137 -9.91328e-20)
(0.697056 0.536283 1.47272e-22)
(0.659256 0.470872 -2.24534e-20)
(0.643124 0.425689 7.34911e-20)
(0.635142 0.39751 5.98379e-22)
(0.628738 0.380164 -3.19206e-20)
(0.622144 0.368885 -5.77929e-20)
(0.61538 0.360867 0)
(0.607498 0.354292 0)
(0.559425 0.325194 1.6442e-20)
(0.19734 0.115254 -9.47714e-21)
(0.432508 0.285665 -3.68537e-22)
(1.31284 0.86562 7.30947e-21)
(1.2838 0.87108 6.11176e-21)
(1.2307 0.861066 0)
(1.16951 0.847582 -1.46696e-22)
(1.09978 0.829369 -3.48598e-20)
(1.02108 0.804477 4.33065e-20)
(0.933156 0.76996 6.41307e-20)
(0.837253 0.720748 7.08034e-20)
(0.738289 0.648988 -8.37006e-20)
(0.661577 0.561319 -7.72698e-20)
(0.62518 0.483882 5.92022e-20)
(0.616185 0.431092 0)
(0.616231 0.401199 -1.32709e-20)
(0.615402 0.385598 -3.21954e-20)
(0.61172 0.376917 -3.78809e-20)
(0.60618 0.371273 -4.52852e-20)
(0.598696 0.36658 1.32408e-20)
(0.553458 0.339409 -8.21901e-21)
(0.201787 0.124642 -3.35527e-22)
(0.43447 0.303024 0)
(1.30732 0.912829 0)
(1.27666 0.918226 3.17773e-22)
(1.22231 0.907688 0)
(1.15962 0.893556 2.57224e-20)
(1.08797 0.874661 2.70442e-20)
(1.00668 0.84897 0)
(0.915135 0.813441 8.30374e-21)
(0.813886 0.762299 1.23014e-19)
(0.707117 0.685458 -1.94477e-19)
(0.622979 0.586154 0)
(0.586824 0.493241 -3.70071e-20)
(0.587298 0.429632 6.39005e-22)
(0.599217 0.39786 3.20555e-22)
(0.606508 0.385893 3.03252e-20)
(0.606334 0.381693 -5.08681e-22)
(0.601729 0.380189 -8.93665e-20)
(0.594056 0.378568 2.69451e-20)
(0.551905 0.354569 7.88175e-21)
(0.208342 0.135361 0)
(0.436234 0.319945 -3.47693e-21)
(1.30185 0.958032 2.46739e-21)
(1.26962 0.963251 1.0896e-20)
(1.21412 0.952266 -3.09366e-20)
(1.15007 0.937649 4.46265e-20)
(1.0767 0.918187 0)
(0.993056 0.892012 2.97578e-20)
(0.897977 0.855879 -1.85407e-20)
(0.791145 0.803648 4.35452e-22)
(0.675462 0.722877 1.41287e-20)
(0.581073 0.611808 1.03719e-19)
(0.542602 0.499293 -1.34008e-20)
(0.554974 0.419371 -3.90131e-20)
(0.585082 0.385026 -1.07696e-20)
(0.60452 0.380275 1.46801e-20)
(0.608382 0.384784 -7.91302e-22)
(0.603905 0.389464 2.18049e-20)
(0.595682 0.391644 -5.3253e-20)
(0.555124 0.371654 6.34235e-20)
(0.21645 0.147387 9.72899e-21)
(0.437587 0.336249 1.93427e-21)
(1.29642 1.00135 1.18631e-21)
(1.26276 1.00624 1.18522e-21)
(1.20613 0.994761 -1.51077e-20)
(1.14084 0.979746 -8.56159e-21)
(1.06594 0.959952 -5.19345e-20)
(0.98031 0.933566 9.82821e-21)
(0.881989 0.897265 -7.98247e-20)
(0.769579 0.844719 -1.4493e-19)
(0.643953 0.761571 -1.2283e-19)
(0.535867 0.639514 0)
(0.490564 0.502949 -5.43625e-20)
(0.516753 0.397848 4.9631e-20)
(0.57521 0.35849 0)
(0.614603 0.367916 -2.70349e-20)
(0.622977 0.388116 1.53614e-20)
(0.615123 0.402807 -2.03578e-20)
(0.601088 0.409839 -2.65435e-20)
(0.559592 0.393435 -4.85323e-20)
(0.222934 0.159342 -3.88531e-20)
(0.439228 0.352344 -2.64795e-21)
(1.29109 1.04262 -1.27895e-21)
(1.25614 1.04716 -6.03137e-21)
(1.19848 1.03522 -1.8864e-20)
(1.13205 1.01976 1.94461e-20)
(1.05581 0.999749 -3.26697e-20)
(0.968442 0.973402 3.26041e-20)
(0.867272 0.93759 -8.56131e-20)
(0.749649 0.885561 -8.90427e-20)
(0.613431 0.801769 1.35819e-19)
(0.487881 0.670745 2.40199e-19)
(0.428572 0.506218 0)
(0.468039 0.361934 0)
(0.571029 0.310379 -9.54115e-21)
(0.645978 0.346004 0)
(0.658672 0.39682 2.91818e-20)
(0.634808 0.43024 3.92984e-20)
(0.605572 0.4387 0)
(0.561167 0.419797 0)
(0.222135 0.169719 4.13796e-20)
(0.440285 0.367456 3.97997e-21)
(1.28575 1.08199 1.53237e-21)
(1.24967 1.08604 -4.14732e-21)
(1.19117 1.07366 1.46854e-20)
(1.12381 1.05781 1.99548e-20)
(1.04636 1.03755 3.93449e-20)
(0.957344 1.01144 -4.68338e-20)
(0.85381 0.976445 -9.78435e-22)
(0.731569 0.926092 -7.01785e-22)
(0.5849 0.843529 1.58249e-21)
(0.438275 0.706922 1.27275e-19)
(0.354625 0.512588 0)
(0.400697 0.308538 3.60586e-20)
(0.572838 0.225456 1.01599e-20)
(0.716481 0.308898 9.09925e-21)
(0.732674 0.414173 7.94966e-21)
(0.674553 0.479146 -2.07216e-20)
(0.622374 0.488395 -1.53944e-20)
(0.557553 0.451403 0)
(0.204094 0.168571 4.70483e-20)
(0.441776 0.382639 -1.06515e-20)
(1.28046 1.11945 0)
(1.24332 1.12288 -2.92819e-21)
(1.18412 1.10999 1.12177e-20)
(1.11603 1.09381 -1.99065e-20)
(1.03766 1.07348 -5.17919e-20)
(0.94733 1.04764 9.86827e-20)
(0.841565 1.01371 -5.96978e-21)
(0.715305 0.965801 0)
(0.558996 0.886958 -1.622e-19)
(0.389179 0.749203 -2.95564e-19)
(0.268119 0.527529 9.36068e-21)
(0.30228 0.235792 3.22995e-20)
(0.577347 0.0720206 0)
(0.853278 0.237529 -2.94889e-20)
(0.862214 0.464484 0)
(0.71338 0.573463 0)
(0.583119 0.575571 -1.83788e-20)
(0.490951 0.475222 0)
(0.157732 0.136729 1.39396e-20)
(0.442612 0.396794 -1.31426e-20)
(1.27506 1.15517 0)
(1.23707 1.1578 -2.95971e-21)
(1.17736 1.14441 0)
(1.10868 1.12795 9.73156e-21)
(1.02955 1.10763 0)
(0.938482 1.08233 5.83397e-21)
(0.830792 1.04977 1.29532e-20)
(0.700879 1.00488 1.20118e-20)
(0.535828 0.932215 -1.85091e-19)
(0.342492 0.799408 9.81107e-21)
(0.16925 0.558567 7.04359e-20)
(0.151711 0.144625 2.34167e-20)
(0.522997 -0.224934 -7.27449e-21)
(1.0223 0.0794372 -7.76063e-20)
(1.0688 0.524394 0)
(0.799839 0.723702 4.20109e-20)
(0.557251 0.731576 -3.65897e-20)
(0.259338 0.521652 5.40058e-20)
(-0.0527512 0.785548 -7.03092e-20)
(0.443581 0.41087 1.19806e-20)
(1.26945 1.18941 9.96085e-21)
(1.23076 1.19103 0)
(1.17085 1.17734 8.1558e-22)
(1.10171 1.16087 -2.38563e-20)
(1.0219 1.14082 8.8779e-20)
(0.930186 1.11632 3.85368e-20)
(0.821292 1.08579 0)
(0.688051 1.04498 8.4288e-20)
(0.514756 0.980774 -1.03183e-20)
(0.297791 0.862448 0)
(0.0584967 0.619536 0)
(-0.0995894 0.0764049 1.36457e-20)
(0.176952 -0.252237 7.78421e-20)
(1.00734 0.376629 1.79291e-19)
(1.20136 1.00494 0)
(0.802452 1.29395 1.54114e-20)
(0.307158 1.21065 -4.01249e-20)
(0.178856 2.32498 -2.74425e-20)
(0.154353 2.98832 -2.73541e-20)
(0.444529 0.424268 -1.02135e-20)
(1.2633 1.22218 -1.45399e-20)
(1.22444 1.22234 -8.73375e-22)
(1.16461 1.20856 -5.92824e-21)
(1.09507 1.19229 0)
(1.01479 1.17264 6.04624e-20)
(0.922733 1.1492 5.82925e-20)
(0.812912 1.12096 -6.83821e-21)
(0.677851 1.08519 1.27984e-20)
(0.497424 1.03172 1.87191e-19)
(0.258964 0.93651 1.73393e-19)
(-0.0488743 0.728986 9.95578e-20)
(-0.452015 0.276388 1.00384e-20)
(-0.52144 0.375825 2.66551e-19)
(0.539605 1.50593 3.56909e-19)
(0.930047 1.91268 0)
(0.546958 2.06968 0)
(0.324196 2.9065 -8.70097e-22)
(0.253308 3.24921 0)
(0.199082 3.2937 1.38626e-20)
(0.447677 0.438547 0)
(1.2557 1.25311 0)
(1.21827 1.25144 0)
(1.15847 1.23789 -9.49461e-22)
(1.0885 1.22192 -2.08651e-20)
(1.00787 1.2029 4.25044e-20)
(0.916196 1.18088 3.98571e-20)
(0.805656 1.15515 -6.9804e-21)
(0.669598 1.12474 1.13733e-19)
(0.48565 1.08457 5.40477e-22)
(0.231457 1.02049 3.65749e-19)
(-0.12949 0.894862 -1.03868e-20)
(-0.686693 0.669094 6.85297e-21)
(-1.12461 1.24002 -4.40023e-20)
(-0.139932 2.45377 -5.61348e-21)
(0.243002 2.94154 -1.19335e-20)
(0.205363 3.33783 1.5365e-19)
(0.207299 3.46834 3.639e-20)
(0.160372 3.41438 -5.60918e-21)
(0.134228 3.37346 7.30187e-21)
(0.313802 0.354061 7.36321e-21)
(1.24724 1.28156 0)
(1.21275 1.27865 -1.95484e-21)
(1.15269 1.26577 1.15716e-20)
(1.08254 1.25031 -3.53446e-20)
(1.00183 1.23195 -4.35644e-20)
(0.91066 1.21036 -4.44795e-20)
(0.800587 1.18729 8.83219e-20)
(0.664587 1.16204 -9.73401e-20)
(0.480983 1.13514 0)
(0.226739 1.10774 1.91157e-19)
(-0.131701 1.08443 -9.57463e-20)
(-0.653763 1.10321 0)
(-1.30576 1.81929 -1.18994e-20)
(-0.677688 3.07224 -7.16136e-20)
(-0.240251 3.48357 5.69426e-20)
(-0.0315268 3.54858 -5.21698e-20)
(0.0597593 3.48851 -2.40422e-20)
(0.0767027 3.43598 -2.01152e-20)
(0.0914018 3.39894 -3.06426e-20)
(0.524094 0.532311 -9.14397e-21)
(1.23219 1.3017 0)
(1.20351 1.31922 4.96951e-21)
(1.14225 1.30737 -7.24642e-21)
(1.07154 1.29274 3.12356e-20)
(0.990228 1.2756 3.97462e-20)
(0.897583 1.25669 5.65665e-20)
(0.787381 1.2373 6.91759e-21)
(0.651148 1.22036 1.00425e-19)
(0.467616 1.21398 1.84444e-19)
(0.21477 1.23932 1.16176e-20)
(-0.132838 1.3342 9.62756e-20)
(-0.595121 1.63075 1.28069e-20)
(-0.897688 2.36608 -4.15438e-21)
(-0.549821 3.06326 2.35176e-20)
(-0.275567 3.29158 -3.22483e-20)
(-0.0941077 3.34973 3.90587e-20)
(-0.000820173 3.36792 2.27809e-20)
(0.0377907 3.37957 2.76378e-20)
(0.0455064 3.39209 3.19741e-21)
(0.5236 0.535653 0)
(1.23149 1.32964 4.10304e-21)
(1.19787 1.34721 -1.74645e-21)
(1.13629 1.33612 1.02839e-22)
(1.0653 1.32182 1.7885e-20)
(0.984224 1.3055 -3.71424e-20)
(0.891663 1.28729 -3.52347e-20)
(0.781996 1.26985 6.57192e-21)
(0.648852 1.2589 -1.08642e-19)
(0.470992 1.26632 -1.62827e-21)
(0.235006 1.31998 -3.7411e-19)
(-0.0612935 1.46997 1.31847e-20)
(-0.397543 1.80569 -1.3742e-20)
(-0.563224 2.37943 -4.28721e-21)
(-0.353898 2.89919 -7.59401e-21)
(-0.141875 3.1198 -4.12669e-21)
(-0.0146552 3.23404 -7.22636e-20)
(0.0494776 3.29614 -4.69601e-20)
(0.0657225 3.3472 3.46764e-20)
(0.0525174 3.37524 2.85909e-20)
(0.503568 0.529342 1.422e-20)
(1.23046 1.36266 2.93636e-20)
(1.19281 1.37833 -5.04332e-21)
(1.13016 1.36701 6.21369e-22)
(1.05904 1.35303 0)
(0.978086 1.3367 -4.49473e-20)
(0.885897 1.31889 -4.84232e-20)
(0.778126 1.30411 6.19201e-21)
(0.648474 1.29852 -1.20584e-20)
(0.480439 1.31755 -1.8151e-19)
(0.267462 1.39243 -1.80055e-19)
(0.0259696 1.57016 -1.1931e-19)
(-0.1989 1.89836 -1.05139e-19)
(-0.275762 2.3526 6.36282e-20)
(-0.131474 2.76524 1.25345e-21)
(0.00632819 2.98312 0)
(0.0942582 3.14954 0)
(0.143366 3.27607 3.05225e-20)
(0.133705 3.34315 0)
(0.0768243 3.38007 6.32992e-20)
(0.482898 0.525248 -2.43661e-20)
(1.22739 1.39877 -2.82328e-20)
(1.18672 1.41187 0)
(1.12304 1.39967 1.30712e-21)
(1.05164 1.38517 1.13378e-20)
(0.971086 1.36831 -6.00086e-20)
(0.87971 1.35137 -2.96602e-20)
(0.775127 1.33914 5.05485e-21)
(0.649183 1.33686 -8.63808e-20)
(0.489257 1.36021 9.78999e-21)
(0.299005 1.45171 0)
(0.112992 1.64501 0)
(-0.0190907 1.95332 -1.00614e-19)
(-0.0316719 2.32421 2.69151e-20)
(0.078092 2.66595 9.59745e-21)
(0.184311 2.9186 0)