/*--------------------------------*- C++ -*----------------------------------*\
  =========                 |
  \\      /  F ield         | OpenFOAM: The Open Source CFD Toolbox
   \\    /   O peration     | Website:  https://openfoam.org
    \\  /    A nd           | Version:  6
     \\/     M anipulation  |
\*---------------------------------------------------------------------------*/
FoamFile
{
    version     2.0;
    format      ascii;
    class       volVectorField;
    location    "21";
    object      U;
}
// * * * * * * * * * * * * * * * * * * * * * * * * * * * * * * * * * * * * * //

dimensions      [0 1 -1 0 0 0 0];

internalField   nonuniform List<vector> 
8800
(
(0.987188 -0.0766636 0)
(1.0019 -0.0551859 0)
(0.999757 -0.0285428 0)
(1.00005 -0.0151391 0)
(1.00007 -0.00853937 0)
(1.00004 -0.00502345 0)
(1.00002 -0.00296237 0)
(1.00002 -0.00166941 0)
(1.00002 -0.000806649 0)
(1.00004 -0.000133358 0)
(1.00001 0.000551566 0)
(1.00002 0.00129224 0)
(1.00002 0.00232329 0)
(1.00003 0.00394225 0)
(1.00006 0.00660084 0)
(1.00007 0.0113448 0)
(0.999981 0.0207864 0)
(0.999177 0.038648 0)
(1.00708 0.0724473 0)
(0.771217 0.0366586 0)
(0.363087 -0.0160144 0)
(1.04332 -0.0768023 0)
(1.08461 -0.0704227 0)
(1.04523 -0.0535055 0)
(1.02326 -0.0388256 0)
(1.01184 -0.0261323 0)
(1.00627 -0.0168205 0)
(1.0035 -0.0103802 0)
(1.00206 -0.00581816 0)
(1.00136 -0.00222381 0)
(1.00123 0.00108719 0)
(1.00163 0.004463 0)
(1.00263 0.00838149 0)
(1.00462 0.0136815 0)
(1.00852 0.0213703 0)
(1.01657 0.0323696 0)
(1.0326 0.0463361 0)
(1.06275 0.0615066 0)
(1.09192 0.0759803 0)
(0.83884 0.0565142 0)
(0.216881 -0.00242464 0)
(1.07592 -0.0501037 0)
(1.0999 -0.0482942 0)
(1.06461 -0.0405081 0)
(1.03991 -0.0336963 0)
(1.02368 -0.0261376 0)
(1.01378 -0.0185345 0)
(1.00828 -0.0117719 0)
(1.00548 -0.00597588 0)
(1.00434 -0.000757295 0)
(1.00468 0.00427451 0)
(1.0065 0.00963676 0)
(1.01042 0.0157948 0)
(1.01783 0.0229123 0)
(1.0306 0.0305172 0)
(1.05076 0.0375888 0)
(1.08056 0.0442588 0)
(1.10651 0.0510948 0)
(0.942998 0.0414832 0)
(0.216497 0.00244182 0)
(0.175299 -0.000805453 0)
(1.01788 -0.0353854 0)
(1.10523 -0.0412023 0)
(1.07815 -0.0357787 0)
(1.05324 -0.0297877 0)
(1.03592 -0.0243081 0)
(1.02378 -0.0187759 0)
(1.01572 -0.0129419 0)
(1.01094 -0.00695931 0)
(1.00885 -0.000773083 0)
(1.00945 0.00538627 0)
(1.01274 0.0113064 0)
(1.01893 0.0170459 0)
(1.02885 0.0225564 0)
(1.04335 0.0277977 0)
(1.06395 0.0333498 0)
(1.09391 0.0395264 0)
(1.09406 0.0414952 0)
(0.828433 0.0226975 0)
(0.17466 0.000824873 0)
(0.154241 -0.000595646 0)
(0.956657 -0.0252351 0)
(1.10358 -0.0348517 0)
(1.08771 -0.0324451 0)
(1.06144 -0.0278392 0)
(1.04359 -0.0228265 0)
(1.03114 -0.0177008 0)
(1.02239 -0.0124096 0)
(1.0167 -0.00672817 0)
(1.01403 -0.000530082 0)
(1.01475 0.00565866 0)
(1.01873 0.0114226 0)
(1.02578 0.016669 0)
(1.0361 0.0216107 0)
(1.05086 0.0264714 0)
(1.07244 0.0311139 0)
(1.10086 0.0350865 0)
(1.0694 0.0332909 0)
(0.742068 0.0139777 0)
(0.153284 0.000617502 0)
(0.140109 -0.000447257 0)
(0.900493 -0.018681 0)
(1.09585 -0.0294511 0)
(1.09528 -0.0285357 0)
(1.06874 -0.0249574 0)
(1.0503 -0.020989 0)
(1.03737 -0.0164185 0)
(1.02832 -0.011406 0)
(1.02229 -0.00608496 0)
(1.01926 -0.000165517 0)
(1.02002 0.00582143 0)
(1.02427 0.0111661 0)
(1.0315 0.0160259 0)
(1.04217 0.0205246 0)
(1.05745 0.0245133 0)
(1.07965 0.0279532 0)
(1.10314 0.0306686 0)
(1.0385 0.026978 0)
(0.677438 0.00972736 0)
(0.13877 0.000472586 0)
(0.129958 -0.000332576 0)
(0.852371 -0.0140701 0)
(1.08406 -0.0248997 0)
(1.10106 -0.0250087 0)
(1.07522 -0.0217324 0)
(1.05602 -0.0184002 0)
(1.04259 -0.014692 0)
(1.03308 -0.0103187 0)
(1.02679 -0.00530116 0)
(1.02367 0.000318205 0)
(1.02434 0.00595875 0)
(1.02859 0.0110009 0)
(1.03606 0.0153191 0)
(1.04716 0.0189339 0)
(1.06297 0.0220316 0)
(1.08601 0.0250007 0)
(1.10312 0.0270589 0)
(1.0058 0.0219424 0)
(0.628489 0.00716415 0)
(0.128155 0.000362399 0)
(0.122458 -0.000243858 0)
(0.812495 -0.0104904 0)
(1.0694 -0.0206339 0)
(1.10428 -0.0218661 0)
(1.08092 -0.0192611 0)
(1.06097 -0.0161679 0)
(1.04707 -0.0127436 0)
(1.03738 -0.00881515 0)
(1.03095 -0.00425122 0)
(1.02771 0.000895072 0)
(1.02826 0.00599325 0)
(1.03244 0.0104982 0)
(1.03993 0.0142349 0)
(1.05121 0.0173901 0)
(1.06761 0.020153 0)
(1.0912 0.0227279 0)
(1.10009 0.0237317 0)
(0.973674 0.0176117 0)
(0.590869 0.00533207 0)
(0.120093 0.000279722 0)
(0.117131 -0.000166039 0)
(0.781058 -0.00754333 0)
(1.05402 -0.0162922 0)
(1.10601 -0.0180565 0)
(1.0859 -0.0160671 0)
(1.06602 -0.0134442 0)
(1.05217 -0.0104085 0)
(1.04225 -0.00699955 0)
(1.03538 -0.00307681 0)
(1.03176 0.00159056 0)
(1.03226 0.00631222 0)
(1.03665 0.0100878 0)
(1.0443 0.0131169 0)
(1.05553 0.0157059 0)
(1.07176 0.0179157 0)
(1.09483 0.0198249 0)
(1.0947 0.0200587 0)
(0.944429 0.013731 0)
(0.562445 0.00391587 0)
(0.114077 0.000210322 0)
(0.113398 -0.000111374 0)
(0.757161 -0.00514443 0)
(1.03942 -0.0123509 0)
(1.10686 -0.0144428 0)
(1.09008 -0.0127809 0)
(1.06984 -0.0105482 0)
(1.05561 -0.00808807 0)
(1.04571 -0.00509714 0)
(1.03915 -0.00156633 0)
(1.03567 0.00247603 0)
(1.0358 0.00639562 0)
(1.03962 0.00959787 0)
(1.04686 0.0120633 0)
(1.05808 0.0138925 0)
(1.0747 0.0154628 0)
(1.09714 0.0169776 0)
(1.08786 0.016642 0)
(0.919084 0.0104755 0)
(0.541142 0.00282142 0)
(0.109498 0.000165982 0)
(0.111232 -3.92035e-05 0)
(0.740583 -0.00272483 0)
(1.02637 -0.00811767 0)
(1.10664 -0.0104806 0)
(1.09348 -0.00957996 0)
(1.07291 -0.00787741 0)
(1.05847 -0.0058511 0)
(1.04837 -0.00331393 0)
(1.04145 -0.000174411 0)
(1.03766 0.00348929 0)
(1.0376 0.00694147 0)
(1.04138 0.00959165 0)
(1.04857 0.0114071 0)
(1.05981 0.0127196 0)
(1.07668 0.0136582 0)
(1.09798 0.0142214 0)
(1.07985 0.0129562 0)
(0.898081 0.0071742 0)
(0.526439 0.00174844 0)
(0.106289 0.000106808 0)
(0.110636 1.88214e-05 0)
(0.730816 -0.000953731 0)
(1.01533 -0.00453658 0)
(1.10491 -0.00708043 0)
(1.09556 -0.00699004 0)
(1.0758 -0.0057888 0)
(1.0618 -0.00402957 0)
(1.052 -0.00156294 0)
(1.04526 0.0013711 0)
(1.0413 0.00472612 0)
(1.0409 0.00781223 0)
(1.04411 0.00996963 0)
(1.05069 0.0114649 0)
(1.0612 0.012221 0)
(1.07725 0.0124497 0)
(1.0965 0.0120587 0)
(1.07063 0.00988046 0)
(0.881597 0.00472365 0)
(0.517239 0.00107774 0)
(0.104402 6.28959e-05 0)
(0.111019 5.2011e-05 0)
(0.72604 -7.03603e-05 0)
(1.00716 -0.00208667 0)
(1.10241 -0.00405191 0)
(1.0967 -0.0040341 0)
(1.07765 -0.00309456 0)
(1.06388 -0.00173258 0)
(1.05413 0.000380481 0)
(1.04722 0.00309634 0)
(1.04305 0.00622536 0)
(1.04218 0.0090279 0)
(1.0449 0.0106707 0)
(1.05111 0.01133 0)
(1.06116 0.0112812 0)
(1.0768 0.0110612 0)
(1.09374 0.0103897 0)
(1.06126 0.00789627 0)
(0.869101 0.00366595 0)
(0.510843 0.000909202 0)
(0.103174 5.25738e-05 0)
(0.111831 6.27353e-05 0)
(0.723876 0.000270975 0)
(1.0023 -0.000879103 0)
(1.10095 -0.00193005 0)
(1.09787 -0.00156983 0)
(1.07968 -0.0005026 0)
(1.06629 0.000934697 0)
(1.05686 0.00293008 0)
(1.05002 0.00537524 0)
(1.04558 0.00807415 0)
(1.04405 0.0102788 0)
(1.04603 0.0113579 0)
(1.05129 0.0116834 0)
(1.06057 0.0113879 0)
(1.0757 0.0106888 0)
(1.09063 0.00963035 0)
(1.05303 0.00733513 0)
(0.858918 0.00370701 0)
(0.504884 0.00101728 0)
(0.101974 6.5243e-05 0)
(0.112848 7.38886e-05 0)
(0.722775 0.000537258 0)
(0.999281 -0.00043354 0)
(1.10071 -0.00110897 0)
(1.09991 -0.000249299 0)
(1.08192 0.00108487 0)
(1.06854 0.00278863 0)
(1.05913 0.00499663 0)
(1.05221 0.00763336 0)
(1.04734 0.0103148 0)
(1.04513 0.012291 0)
(1.04632 0.0131115 0)
(1.05105 0.0129398 0)
(1.0596 0.01235 0)
(1.07399 0.0116498 0)
(1.08758 0.0105646 0)
(1.04553 0.00822556 0)
(0.84864 0.00421646 0)
(0.498258 0.00120179 0)
(0.100485 8.81397e-05 0)
(0.114062 8.90258e-05 0)
(0.722553 0.00103007 0)
(0.996087 0.000171589 0)
(1.10054 -0.00100513 0)
(1.10222 -0.00057896 0)
(1.08482 0.000864831 0)
(1.07146 0.00314844 0)
(1.06202 0.00613585 0)
(1.05488 0.00952851 0)
(1.04936 0.0129582 0)
(1.04635 0.015492 0)
(1.04663 0.0166544 0)
(1.05032 0.0167054 0)
(1.05847 0.01614 0)
(1.07225 0.0149367 0)
(1.0839 0.0133845 0)
(1.03601 0.00957281 0)
(0.836942 0.00457676 0)
(0.490968 0.00135467 0)
(0.0986325 0.000110379 0)
(0.11571 0.000116001 0)
(0.723905 0.00169579 0)
(0.992534 0.00152253 0)
(1.09858 -0.000494706 0)
(1.10362 -0.000625361 0)
(1.08815 0.000447189 0)
(1.07527 0.00314687 0)
(1.06595 0.0071493 0)
(1.05844 0.0117093 0)
(1.05213 0.0162851 0)
(1.04813 0.019767 0)
(1.04741 0.0215857 0)
(1.0501 0.022088 0)
(1.05676 0.021385 0)
(1.06938 0.0197593 0)
(1.07668 0.0163078 0)
(1.02267 0.0103629 0)
(0.824376 0.00474316 0)
(0.483298 0.00151017 0)
(0.0964522 0.000132533 0)
(0.118043 0.000154339 0)
(0.727923 0.00254496 0)
(0.990441 0.00365116 0)
(1.09431 0.00194288 0)
(1.10424 0.000760524 0)
(1.09137 0.00175371 0)
(1.08005 0.00508084 0)
(1.07099 0.00989767 0)
(1.06289 0.0153077 0)
(1.05553 0.0205925 0)
(1.05031 0.0244684 0)
(1.0484 0.0262837 0)
(1.04969 0.0264898 0)
(1.05453 0.0253736 0)
(1.0639 0.0226348 0)
(1.06522 0.0173395 0)
(1.00725 0.010457 0)
(0.812051 0.00498027 0)
(0.475196 0.00171415 0)
(0.0939537 0.000155164 0)
(0.121267 0.000211081 0)
(0.735622 0.0036868 0)
(0.991976 0.00606141 0)
(1.09109 0.0059283 0)
(1.10401 0.005025 0)
(1.09507 0.00637958 0)
(1.08564 0.0101628 0)
(1.07669 0.0152878 0)
(1.06783 0.020904 0)
(1.05911 0.0261171 0)
(1.05228 0.0294714 0)
(1.04882 0.0304069 0)
(1.04841 0.0295348 0)
(1.05104 0.0274156 0)
(1.05573 0.023314 0)
(1.05195 0.0172941 0)
(0.992449 0.0106572 0)
(0.800164 0.0055414 0)
(0.466206 0.0020115 0)
(0.0910561 0.000182946 0)
(0.125642 0.000283436 0)
(0.747074 0.00490567 0)
(0.997663 0.00870174 0)
(1.09177 0.0104727 0)
(1.10517 0.0113964 0)
(1.0994 0.0137894 0)
(1.09135 0.0179021 0)
(1.08244 0.0230728 0)
(1.0726 0.0284633 0)
(1.06218 0.033031 0)
(1.05337 0.0352269 0)
(1.04792 0.0347418 0)
(1.04558 0.0322998 0)
(1.04548 0.0286038 0)
(1.04644 0.0236414 0)
(1.03923 0.0177087 0)
(0.979055 0.0116553 0)
(0.78783 0.00654435 0)
(0.45565 0.00243699 0)
(0.0876187 0.000220711 0)
(0.131401 0.000382534 0)
(0.762539 0.00650755 0)
(1.00796 0.0118179 0)
(1.09708 0.0154262 0)
(1.10963 0.0181891 0)
(1.105 0.0221423 0)
(1.09745 0.0271389 0)
(1.08807 0.0326362 0)
(1.0769 0.0378454 0)
(1.06436 0.0415777 0)
(1.05313 0.0422653 0)
(1.0454 0.0399831 0)
(1.04083 0.0359755 0)
(1.03835 0.0308693 0)
(1.03675 0.0253125 0)
(1.02742 0.019476 0)
(0.966173 0.0136017 0)
(0.77387 0.00795953 0)
(0.44282 0.00299912 0)
(0.0834471 0.000269446 0)
(0.139031 0.000522372 0)
(0.782684 0.00870832 0)
(1.02298 0.0157308 0)
(1.10668 0.0209808 0)
(1.11765 0.0256564 0)
(1.11267 0.0313848 0)
(1.10452 0.0377085 0)
(1.0939 0.0439658 0)
(1.08075 0.0492266 0)
(1.06552 0.052135 0)
(1.05139 0.0512461 0)
(1.04115 0.0471704 0)
(1.03437 0.0414601 0)
(1.02987 0.0351293 0)
(1.02646 0.0288493 0)
(1.01563 0.0227287 0)
(0.952431 0.0164572 0)
(0.757185 0.00983993 0)
(0.427101 0.0036995 0)
(0.0783904 0.00032917 0)
(0.149313 0.000732117 0)
(0.808727 0.0118475 0)
(1.04296 0.0209158 0)
(1.12061 0.0279133 0)
(1.12934 0.0346701 0)
(1.12298 0.0424172 0)
(1.11317 0.0503649 0)
(1.10029 0.0576211 0)
(1.08429 0.0630493 0)
(1.06568 0.0651219 0)
(1.04819 0.0625662 0)
(1.0352 0.0566155 0)
(1.02615 0.0491831 0)
(1.01985 0.0414988 0)
(1.01502 0.0342309 0)
(1.00277 0.0273792 0)
(0.93659 0.0201916 0)
(0.737167 0.0121536 0)
(0.40808 0.00448553 0)
(0.0723283 0.000386713 0)
(0.163492 0.00107828 0)
(0.84273 0.0166433 0)
(1.06926 0.0283285 0)
(1.13942 0.037366 0)
(1.14504 0.0465905 0)
(1.1362 0.0565789 0)
(1.1235 0.0662807 0)
(1.10721 0.0745169 0)
(1.08741 0.0799744 0)
(1.06471 0.0809774 0)
(1.04343 0.0765034 0)
(1.02745 0.0684927 0)
(1.01609 0.0592146 0)
(1.00803 0.0499687 0)
(1.00182 0.0414182 0)
(0.987913 0.0334502 0)
(0.917587 0.0249082 0)
(0.712771 0.0149988 0)
(0.385046 0.00546887 0)
(0.0651361 0.000459564 0)
(0.183774 0.00169767 0)
(0.887959 0.0242629 0)
(1.10382 0.0395132 0)
(1.16402 0.0509846 0)
(1.16517 0.0634176 0)
(1.15231 0.0757912 0)
(1.13525 0.0870452 0)
(1.11432 0.0958483 0)
(1.08976 0.100779 0)
(1.0623 0.100145 0)
(1.03687 0.0933071 0)
(1.01772 0.0829572 0)
(1.00397 0.0716363 0)
(0.994065 0.0606188 0)
(0.986331 0.0505422 0)
(0.970254 0.0411576 0)
(0.894357 0.0308097 0)
(0.682918 0.0185491 0)
(0.35735 0.00665641 0)
(0.0567089 0.000535166 0)
(0.21351 0.00308467 0)
(0.950132 0.0375964 0)
(1.1489 0.0582159 0)
(1.19567 0.0725848 0)
(1.18966 0.0883511 0)
(1.17075 0.102581 0)
(1.14773 0.114461 0)
(1.12094 0.122757 0)
(1.0908 0.12612 0)
(1.05806 0.122967 0)
(1.02825 0.113163 0)
(1.00583 0.10014 0)
(0.989597 0.0865845 0)
(0.97771 0.0736473 0)
(0.968163 0.0618876 0)
(0.949224 0.0509045 0)
(0.865788 0.0382589 0)
(0.646499 0.0229799 0)
(0.325087 0.00815418 0)
(0.047337 0.00060631 0)
(0.254706 0.00956534 -2.01856e-21)
(1.03297 0.0649005 -1.48273e-21)
(1.20242 0.0908565 3.80706e-22)
(1.23212 0.108273 0)
(1.21593 0.125384 -3.08029e-36)
(1.18944 0.139421 7.64814e-23)
(1.15936 0.15015 -3.28952e-22)
(1.12597 0.156553 0)
(1.08969 0.157353 1.09778e-35)
(1.05119 0.151008 -8.07659e-22)
(1.0165 0.137899 0)
(0.990346 0.1221 -1.13463e-21)
(0.971166 0.106309 -3.45954e-21)
(0.956785 0.0915618 -1.67086e-21)
(0.944763 0.0783512 -5.2416e-22)
(0.922001 0.0661127 -3.17068e-22)
(0.828953 0.0508254 0)
(0.60021 0.0309765 2.27589e-22)
(0.287317 0.0122316 2.70361e-22)
(0.0386273 0.00144031 4.85518e-21)
(0.28128 0.0255792 -4.24958e-21)
(1.10088 0.108816 1.03352e-22)
(1.24773 0.13869 -2.22174e-22)
(1.26481 0.157441 0)
(1.2394 0.173003 2.19168e-22)
(1.20559 0.185268 7.83859e-24)
(1.16854 0.194094 -2.42964e-22)
(1.12838 0.198378 -1.49888e-21)
(1.08551 0.196694 0)
(1.04045 0.187442 3.42786e-21)
(0.999721 0.171372 3.74424e-21)
(0.968524 0.153173 1.19492e-21)
(0.9451 0.135513 4.67962e-21)
(0.926985 0.119162 6.85866e-21)
(0.911063 0.104589 0)
(0.882246 0.0907091 1.01608e-20)
(0.782745 0.0725893 1.48499e-20)
(0.552929 0.0474319 1.66407e-20)
(0.259044 0.0218563 -1.92372e-20)
(0.0335837 0.00286216 -3.59973e-22)
(0.279441 0.0420865 0)
(1.14156 0.165602 -1.36208e-21)
(1.28058 0.198292 0)
(1.29017 0.21658 2.00942e-21)
(1.25781 0.228543 0)
(1.21763 0.237411 7.11203e-22)
(1.17429 0.242997 3.46971e-22)
(1.12791 0.244105 -2.38583e-21)
(1.07882 0.239259 -3.14315e-22)
(1.0276 0.226739 1.6796e-21)
(0.981367 0.207752 8.69707e-21)
(0.94561 0.187439 -6.00495e-23)
(0.918394 0.168453 -3.51031e-21)
(0.896979 0.151327 -6.7789e-21)
(0.878103 0.136143 8.20823e-21)
(0.847357 0.121607 -1.47589e-20)
(0.753264 0.100837 -2.02116e-21)
(0.539444 0.0708466 0)
(0.266315 0.035499 1.67338e-23)
(0.0385967 0.00541577 0)
(0.271023 0.0560005 -3.50788e-20)
(1.16141 0.225705 1.42671e-20)
(1.30168 0.263243 7.47062e-21)
(1.30681 0.280378 -1.366e-21)
(1.26965 0.288427 2.06371e-21)
(1.22464 0.293356 -1.84848e-21)
(1.17618 0.295124 5.61604e-22)
(1.12458 0.292481 0)
(1.07012 0.283999 -6.85057e-21)
(1.01337 0.267943 0)
(0.962257 0.246005 -4.46145e-21)
(0.922681 0.223755 -6.19205e-21)
(0.892394 0.203643 -3.93505e-21)
(0.86851 0.186033 -5.05137e-21)
(0.847753 0.17063 0)
(0.817175 0.155584 0)
(0.732879 0.133227 -1.35867e-20)
(0.539789 0.0982164 2.72093e-21)
(0.280873 0.052181 -1.58589e-21)
(0.0450822 0.00883024 -1.87657e-21)
(0.262506 0.0684862 2.63259e-20)
(1.16812 0.285464 0)
(1.31357 0.329639 -2.12143e-20)
(1.31577 0.345382 -5.26096e-21)
(1.27523 0.349756 -3.77946e-21)
(1.22667 0.350765 0)
(1.17426 0.348646 -1.29263e-22)
(1.11836 0.34218 2.26917e-21)
(1.05942 0.329912 3.08934e-21)
(0.99803 0.310157 8.46072e-21)
(0.942801 0.285143 0)
(0.900177 0.260917 -1.35089e-20)
(0.867635 0.239699 -8.60057e-21)
(0.842052 0.221565 -5.18012e-21)
(0.820271 0.206122 3.3799e-20)
(0.7908 0.190962 4.14804e-21)
(0.714569 0.168005 1.98323e-20)
(0.539818 0.127157 -9.57836e-20)
(0.290884 0.0701798 5.71105e-20)
(0.0499924 0.0124342 -6.97357e-20)
(0.254996 0.079692 2.8079e-20)
(1.16683 0.343047 -5.11751e-21)
(1.31833 0.395115 3.78606e-21)
(1.31867 0.409716 1.00981e-20)
(1.27562 0.410744 5.99267e-21)
(1.22434 0.408067 3.37389e-22)
(1.16886 0.402215 2.85139e-23)
(1.10949 0.392027 1.88887e-21)
(1.04678 0.376021 -6.77397e-21)
(0.981529 0.35253 0)
(0.92289 0.324335 -5.83244e-21)
(0.877914 0.297916 -3.0669e-22)
(0.843812 0.275418 -9.617e-21)
(0.817227 0.256616 0)
(0.795016 0.240928 -7.379e-21)
(0.766967 0.225617 -1.79565e-20)
(0.697529 0.2016 4.96156e-20)
(0.535262 0.155059 -4.94788e-20)
(0.293433 0.0865299 7.05617e-20)
(0.0521321 0.0156119 -7.43394e-20)
(0.249011 0.0901497 -1.0849e-22)
(1.16075 0.397836 6.33582e-21)
(1.31787 0.458449 1.82667e-20)
(1.31695 0.472403 -6.26995e-21)
(1.27203 0.470393 3.45646e-21)
(1.21864 0.464307 0)
(1.16063 0.45498 1.2371e-21)
(1.09836 0.441257 -1.64781e-21)
(1.03247 0.421618 -3.17646e-21)
(0.963829 0.394414 0)
(0.902368 0.362898 -5.74147e-21)
(0.85546 0.334047 -7.96492e-21)
(0.820237 0.309948 1.05233e-20)
(0.793127 0.290118 -6.71037e-21)
(0.770982 0.273755 -3.25163e-20)
(0.744444 0.257901 1.99793e-20)
(0.680118 0.232204 6.28641e-21)
(0.525933 0.179459 0)
(0.290379 0.100074 -6.85733e-20)
(0.0519975 0.0180747 -2.55006e-21)
(0.244455 0.100141 4.66143e-21)
(1.15192 0.449681 -7.33242e-21)
(1.31362 0.519123 -1.00224e-20)
(1.31171 0.532762 -1.9264e-20)
(1.26536 0.528075 1.7044e-20)
(1.21028 0.518936 -8.58502e-21)
(1.1502 0.506414 -2.58835e-21)
(1.08547 0.489375 -2.48573e-21)
(1.0168 0.466278 2.91169e-21)
(0.945124 0.435428 -2.07556e-20)
(0.881027 0.400501 -7.00453e-21)
(0.832515 0.36897 0)
(0.796574 0.342835 1.15102e-20)
(0.769324 0.32157 1.42034e-20)
(0.747498 0.304135 1.74658e-20)
(0.722218 0.287314 -2.17951e-20)
(0.661353 0.259357 -6.56533e-21)
(0.512552 0.200424 7.80122e-21)
(0.282912 0.110899 0)
(0.0505484 0.0199016 -5.5559e-21)
(0.241091 0.109765 -5.44705e-20)
(1.14175 0.498691 3.37528e-20)
(1.30664 0.576942 1.10757e-20)
(1.30386 0.590469 -1.48146e-20)
(1.25638 0.583428 1.0325e-20)
(1.19997 0.571564 -7.93459e-22)
(1.13816 0.556171 2.43457e-21)
(1.07131 0.536092 -1.00477e-21)
(1.00011 0.509763 -5.68437e-21)
(0.925688 0.475334 3.70161e-23)
(0.8592 0.436951 -2.1024e-20)
(0.809226 0.40252 2.021e-20)
(0.77265 0.37404 -1.28818e-20)
(0.745341 0.350982 1.59861e-20)
(0.723866 0.332148 0)
(0.699612 0.3139 -1.18352e-20)
(0.641107 0.283186 -2.35814e-22)
(0.496032 0.21802 -3.41145e-20)
(0.272146 0.119087 -5.05846e-21)
(0.0480021 0.0210022 0)
(0.238741 0.119204 0)
(1.13103 0.545099 3.67531e-20)
(1.29775 0.631846 2.60069e-20)
(1.29415 0.645376 1.68133e-20)
(1.24577 0.636248 9.85198e-21)
(1.18823 0.621985 0)
(1.12496 0.604031 2.85669e-21)
(1.05628 0.581206 -2.47248e-22)
(0.982813 0.551912 1.20899e-20)
(0.905818 0.514117 -2.58584e-21)
(0.837011 0.472214 -1.53951e-20)
(0.785434 0.434605 1.01621e-20)
(0.748125 0.403489 -3.9668e-22)
(0.720819 0.378295 1.68618e-20)
(0.699714 0.357707 1.09749e-20)
(0.676282 0.337727 -2.57618e-20)
(0.619189 0.303755 3.11665e-20)
(0.47683 0.232205 9.33112e-21)
(0.258796 0.124867 3.87545e-20)
(0.0446162 0.0214564 -1.04873e-19)
(0.237275 0.128551 -1.4106e-20)
(1.12027 0.589064 2.13237e-20)
(1.28757 0.683849 -1.63816e-20)
(1.28313 0.697422 -1.96709e-20)
(1.23399 0.686446 0)
(1.17555 0.670073 7.90362e-21)
(1.11104 0.64986 -8.04396e-21)
(1.04073 0.624595 1.2121e-21)
(0.965185 0.592616 0)
(0.885616 0.551659 -3.97006e-20)
(0.814353 0.506315 4.19698e-20)
(0.761198 0.465442 0)
(0.723083 0.431415 1.52478e-20)
(0.695667 0.403723 -3.98657e-22)
(0.674902 0.381064 -3.47787e-20)
(0.652013 0.358952 1.36908e-20)
(0.595575 0.321258 0)
(0.455322 0.243073 5.05558e-20)
(0.243352 0.128323 0)
(0.0406824 0.0212998 -4.99465e-20)
(0.236498 0.137824 1.57761e-20)
(1.10979 0.630744 2.44737e-20)
(1.27653 0.732989 -1.71784e-20)
(1.27126 0.746633 0)
(1.22151 0.734012 1.38595e-20)
(1.1623 0.715792 0)
(1.09671 0.69359 1.11146e-20)
(1.02494 0.666182 8.54206e-22)
(0.947401 0.631817 1.43633e-21)
(0.865277 0.588009 -1.96234e-20)
(0.79146 0.539322 4.10416e-21)
(0.736527 0.495099 0)
(0.697488 0.457996 -3.24739e-20)
(0.669774 0.427541 4.12076e-22)
(0.649235 0.402434 0)
(0.626621 0.377789 4.87287e-22)
(0.57017 0.335784 4.58843e-20)
(0.431522 0.250617 -4.4193e-20)
(0.226055 0.129363 1.31148e-20)
(0.0362408 0.0205029 0)
(0.23606 0.146904 0)
(1.0997 0.67029 2.74722e-20)
(1.26499 0.779373 2.02822e-20)
(1.25889 0.793058 -4.47586e-22)
(1.20862 0.778973 8.79666e-21)
(1.14875 0.759142 1.87795e-20)
(1.08224 0.735202 -3.50752e-21)
(1.00912 0.705934 -1.10736e-22)
(0.929732 0.669507 7.84226e-21)
(0.845101 0.623178 -3.06983e-20)
(0.768523 0.571383 -6.48029e-22)
(0.711426 0.523795 -1.33812e-20)
(0.671192 0.48326 5.32101e-20)
(0.643072 0.449767 -4.91787e-22)
(0.622634 0.421974 -2.74131e-20)
(0.600034 0.394373 -5.00632e-20)
(0.542996 0.347442 0)
(0.405557 0.254963 0)
(0.20708 0.127882 1.43359e-20)
(0.0314727 0.0191082 -8.50546e-21)
(0.236093 0.155947 1.97565e-20)
(1.09013 0.707512 -6.0322e-20)
(1.25321 0.823087 -2.17723e-20)
(1.24627 0.836772 0)
(1.19556 0.821387 -3.1759e-22)
(1.13515 0.800153 2.28617e-20)
(1.06786 0.77471 -1.23134e-20)
(0.993545 0.743858 -3.60108e-21)
(0.912414 0.705696 8.62313e-21)
(0.825238 0.657196 -2.3848e-20)
(0.745681 0.602594 -3.56325e-20)
(0.686085 0.551671 3.57163e-20)
(0.644194 0.507611 0)
(0.615435 0.470718 -1.23467e-20)
(0.594993 0.439874 -3.00766e-20)
(0.572138 0.408836 -3.62715e-20)
(0.513886 0.356262 -4.39955e-20)
(0.377395 0.256 1.31707e-20)
(0.186425 0.123695 -7.75592e-21)
(0.0263617 0.0171133 8.29643e-23)
(0.236183 0.16473 0)
(1.08118 0.742914 0)
(1.24138 0.864235 5.31246e-22)
(1.23361 0.877867 0)
(1.18256 0.86134 -3.33968e-20)
(1.12171 0.838881 -2.04131e-20)
(1.05375 0.812141 0)
(0.978368 0.779961 -1.19007e-21)
(0.89559 0.740376 1.18746e-20)
(0.805865 0.690109 -5.48033e-20)
(0.723137 0.633067 0)
(0.660641 0.579003 -2.29157e-20)
(0.616661 0.531226 -6.01591e-22)
(0.586838 0.490658 -4.9438e-22)
(0.566213 0.456349 3.21391e-20)
(0.542875 0.421266 -8.20764e-23)
(0.482873 0.362112 -9.55394e-20)
(0.346867 0.253473 2.86562e-20)
(0.164212 0.11679 8.53027e-21)
(0.0209771 0.0145254 0)
(0.236339 0.173213 -7.32328e-20)
(1.07257 0.776524 -3.72254e-20)
(1.2296 0.902904 -5.50469e-20)
(1.22107 0.916445 7.58416e-20)
(1.16975 0.898893 -6.29607e-20)
(1.10854 0.875376 0)
(1.04003 0.847531 -1.08729e-20)
(0.963714 0.814258 2.13877e-21)
(0.879388 0.773558 7.62141e-22)
(0.78717 0.721929 4.28813e-21)
(0.701087 0.6629 4.48892e-20)
(0.635241 0.605918 -7.86331e-21)
(0.588598 0.554485 -3.29184e-20)
(0.557216 0.509854 -1.46692e-20)
(0.536162 0.471471 1.78664e-20)
(0.512088 0.431487 -6.33406e-23)
(0.449936 0.364758 2.61658e-20)
(0.313977 0.247079 -6.21486e-20)
(0.140784 0.107188 7.41644e-20)
(0.0156041 0.0115289 1.08998e-20)
(0.236326 0.181379 2.69922e-20)
(1.06431 0.808413 -2.04409e-20)
(1.21799 0.939205 1.24328e-21)
(1.20874 0.952623 4.30788e-20)
(1.15723 0.934153 1.48205e-20)
(1.09577 0.909706 4.10599e-20)
(1.02682 0.880928 -4.94521e-21)
(0.949681 0.846772 1.06608e-20)
(0.863951 0.805246 -8.73909e-21)
(0.769298 0.752663 -3.03284e-20)
(0.679724 0.692115 0)
(0.61013 0.632666 -3.53272e-20)
(0.560147 0.577676 4.78013e-20)
(0.52645 0.528683 0)
(0.504502 0.485387 -3.82768e-20)
(0.479494 0.439279 2.36541e-20)
(0.415056 0.363628 -2.8281e-20)
(0.279685 0.236692 -3.39623e-20)
(0.11725 0.0954381 -6.03042e-20)
(0.010498 0.00830495 -4.76476e-20)
(0.2365 0.189293 -2.97871e-20)
(1.05626 0.838573 2.18819e-20)
(1.20663 0.973222 5.17912e-20)
(1.19673 0.98649 5.94169e-20)
(1.14509 0.967207 -3.10634e-20)
(1.08345 0.941954 2.85611e-20)
(1.01417 0.912382 -1.53692e-20)
(0.936355 0.877549 1.37703e-20)
(0.849343 0.835451 -3.95104e-21)
(0.752362 0.782311 2.94025e-20)
(0.659219 0.720765 9.59074e-20)
(0.585524 0.659319 0)
(0.531556 0.601138 0)
(0.494527 0.547678 -1.69877e-20)
(0.470794 0.498398 0)
(0.44446 0.444037 5.14778e-20)
(0.378148 0.357584 6.17181e-20)
(0.244987 0.221651 0)
(0.0949463 0.0818615 0)
(0.00605531 0.00515288 5.17824e-20)
(0.236386 0.196677 3.29778e-20)
(1.04845 0.867012 2.6411e-20)
(1.19557 1.00507 3.73251e-20)
(1.18508 1.01817 -5.33054e-20)
(1.13338 0.998154 -3.47966e-20)
(1.07165 0.97219 -3.81235e-20)
(1.00215 0.941953 2.29369e-20)
(0.923779 0.906611 9.99624e-23)
(0.835632 0.864174 -9.85439e-22)
(0.736462 0.810849 -1.21928e-21)
(0.639759 0.748847 4.87363e-20)
(0.561672 0.685946 0)
(0.503087 0.625133 4.83845e-20)
(0.461532 0.567456 3.59167e-20)
(0.434407 0.511169 9.12451e-20)
(0.405622 0.44537 2.78142e-20)
(0.338459 0.34431 -3.39604e-20)
(0.212071 0.19967 -1.99725e-20)
(0.0779544 0.0664045 0)
(0.00328606 0.00241348 5.62013e-20)
(0.236495 0.203984 -7.28576e-20)
(1.04084 0.893833 0)
(1.18482 1.03483 4.19097e-20)
(1.17383 1.04775 -4.38388e-20)
(1.12215 1.02708 3.96254e-20)
(1.06038 1.0005 5.60308e-20)
(0.990785 0.969696 -5.37158e-20)
(0.911978 0.933993 3.31979e-22)
(0.822845 0.891424 0)
(0.721662 0.838231 -2.82594e-20)
(0.62149 0.776316 -1.01732e-19)
(0.538819 0.712601 4.87374e-21)
(0.475171 0.649755 6.5969e-20)
(0.427789 0.588679 0)
(0.3948 0.524973 6.16953e-20)
(0.360752 0.443965 0)
(0.292297 0.320991 0)
(0.181594 0.162016 -2.21732e-20)
(0.0842168 0.0375255 0)
(0.0234443 0.00609754 1.51614e-20)
(0.236207 0.210665 -7.9899e-20)
(1.03344 0.919358 0)
(1.17438 1.06268 6.81247e-20)
(1.16295 1.07546 0)
(1.11136 1.05424 -2.16291e-20)
(1.04961 1.02715 0)
(0.98 0.995914 -4.07952e-21)
(0.900858 0.960025 -2.52003e-21)
(0.810874 0.917563 2.66449e-22)
(0.707817 0.86484 -2.83459e-20)
(0.604293 0.803612 2.71512e-21)
(0.516848 0.7398 4.02536e-20)
(0.447642 0.675544 6.40271e-20)
(0.393078 0.612328 9.09555e-21)
(0.350895 0.541909 4.84004e-20)
(0.306547 0.442977 0)
(0.228737 0.290198 7.3968e-20)
(0.126769 0.0995202 -4.39004e-20)
(0.0419401 0.0645357 5.07441e-20)
(-0.0349326 0.424652 -6.01838e-20)
(0.23587 0.217089 6.53258e-20)
(1.02603 0.943433 1.0133e-19)
(1.16417 1.08896 0)
(1.15231 1.10172 1.05605e-21)
(1.10084 1.0802 5.8947e-20)
(1.03907 1.05282 -1.09431e-19)
(0.969517 1.02138 -2.39866e-20)
(0.890059 0.985631 0)
(0.799249 0.94367 -2.72831e-21)
(0.694329 0.891973 -9.68009e-22)
(0.587349 0.832215 0)
(0.494727 0.769354 0)
(0.419285 0.704324 5.62862e-20)
(0.356296 0.640425 -2.83855e-20)
(0.300442 0.565763 -4.83997e-20)
(0.239479 0.449311 0)
(0.127875 0.272056 3.79972e-20)
(0.0218933 0.450595 -4.46308e-20)
(0.0430986 1.84778 -2.44421e-20)
(0.0718489 2.78318 -2.99961e-20)
(0.23519 0.222926 -4.81054e-20)
(1.01869 0.96624 -1.28384e-19)
(1.15419 1.11365 3.95461e-20)
(1.14193 1.12639 3.76766e-20)
(1.09066 1.10476 0)
(1.02886 1.07724 -7.86516e-20)
(0.959519 1.0458 -4.05029e-20)
(0.879742 1.01039 1.75015e-21)
(0.788212 0.96923 -3.26875e-22)
(0.681551 0.919006 2.25213e-20)
(0.571241 0.861373 4.60217e-20)
(0.473419 0.800807 4.17776e-20)
(0.391309 0.735573 5.54227e-20)
(0.319833 0.671338 -6.48864e-20)
(0.249738 0.598979 -7.1801e-20)
(0.160356 0.48227 0)
(0.0643642 0.843525 0)
(0.112888 2.52414 1.99473e-20)
(0.117046 3.17949 0)
(0.117209 3.37766 5.02883e-20)
(0.237264 0.228387 0)
(1.01168 0.988076 0)
(1.14418 1.13662 0)
(1.13162 1.14929 1.05498e-20)
(1.08056 1.12771 5.29764e-20)
(1.01875 1.10027 -6.03777e-20)
(0.949927 1.06906 -2.91488e-20)
(0.869834 1.03416 2.02164e-21)
(0.777697 0.994072 -9.90798e-21)
(0.669477 0.945772 -2.10333e-21)
(0.556058 0.890883 8.40379e-20)
(0.453307 0.833996 -4.90408e-21)
(0.364212 0.769771 6.3019e-21)
(0.28553 0.701851 9.27138e-21)
(0.199116 0.640236 4.52788e-22)
(0.12511 0.975059 3.28083e-22)
(0.157811 2.66984 -1.00251e-19)
(0.170833 3.28274 -3.8e-20)
(0.155942 3.42383 1.86682e-20)
(0.139982 3.4469 -1.99191e-20)
(0.159563 0.173405 2.85366e-20)
(0.999754 1.01181 0)
(1.13407 1.15812 -7.79071e-20)
(1.12182 1.17078 -9.81194e-20)
(1.07096 1.14954 1.10582e-19)
(1.00937 1.12232 6.41188e-20)
(0.940539 1.0912 3.44636e-20)
(0.860356 1.05701 -3.60215e-20)
(0.767816 1.0182 1.16147e-20)
(0.658391 0.972214 0)
(0.542254 0.92059 3.69912e-20)
(0.435038 0.868314 -3.15014e-20)
(0.338736 0.809335 0)
(0.254462 0.737266 8.40722e-21)
(0.174693 0.866734 2.06354e-20)
(0.172759 2.41602 -2.46136e-20)
(0.235999 3.32002 2.8105e-20)
(0.213472 3.44285 1.40108e-20)
(0.177089 3.46418 1.62522e-20)
(0.153177 3.47362 2.2073e-20)
(0.270781 0.264605 -5.58568e-20)
(0.981084 1.01988 0)
(1.1156 1.1822 8.10204e-20)
(1.10833 1.2029 1.02949e-19)
(1.05568 1.18191 -1.15257e-19)
(0.993946 1.15523 -6.91259e-20)
(0.924424 1.12543 -5.35648e-20)
(0.843943 1.09253 -2.66226e-21)
(0.750514 1.05604 -1.81645e-20)
(0.639007 1.01434 5.56665e-21)
(0.518686 0.969427 1.50242e-21)
(0.404435 0.92602 2.44447e-20)
(0.293269 0.881986 5.19094e-21)
(0.230106 1.01146 -7.44137e-21)
(0.245403 2.27671 -1.74701e-20)
(0.30509 3.32682 1.4091e-20)
(0.291706 3.47899 -1.35928e-20)
(0.253382 3.49903 -7.91698e-21)
(0.214912 3.5244 -2.3689e-21)
(0.162895 3.51684 -5.94231e-22)
(0.260082 0.2628 0)
(0.977639 1.04131 2.14416e-20)
(1.1073 1.20456 -1.6036e-20)
(1.09839 1.22512 -1.14814e-20)
(1.04596 1.20415 -7.5722e-20)
(0.984483 1.17769 6.74617e-20)
(0.91484 1.14813 3.61637e-20)
(0.834474 1.1161 -2.82044e-21)
(0.740987 1.08118 2.30549e-20)
(0.628909 1.04252 -2.97371e-21)
(0.506859 1.00265 -4.91741e-20)
(0.389606 0.965651 3.47119e-21)
(0.283008 0.951746 -4.51897e-21)
(0.270007 1.47189 -6.14445e-21)
(0.34422 3.07312 3.78985e-21)
(0.369501 3.47835 5.03692e-22)
(0.322866 3.53908 3.2277e-21)
(0.284523 3.55917 -3.39034e-21)
(0.23381 3.58043 1.08671e-20)
(0.175377 3.57454 3.54239e-21)
(0.245318 0.259818 5.3132e-20)
(0.973075 1.06503 1.43744e-19)
(1.09846 1.22878 -4.57155e-20)
(1.08811 1.24884 -4.35354e-20)
(1.03591 1.22772 0)
(0.974683 1.20127 9.90498e-20)
(0.905188 1.17197 5.53508e-20)
(0.82521 1.14072 -2.99606e-21)
(0.732004 1.10742 2.37817e-21)
(0.619897 1.07197 8.62068e-21)
(0.496977 1.03752 -1.59827e-20)
(0.378994 1.00831 -2.39809e-20)
(0.290637 1.07617 -2.9733e-20)
(0.340602 2.12336 3.20821e-20)
(0.432994 3.38316 1.8137e-20)
(0.415887 3.5488 0)
(0.359757 3.58672 0)
(0.319244 3.62566 1.03211e-20)
(0.259548 3.67993 0)
(0.185773 3.65388 2.49951e-20)
(0.234593 0.260609 -7.7438e-20)
(0.966408 1.08935 -1.19417e-19)
(1.08824 1.25409 0)
(1.07671 1.27338 1.23336e-21)
(1.02476 1.25187 -7.37626e-20)
(0.963899 1.2253 1.47349e-19)
(0.894883 1.19624 3.73568e-20)
(0.815534 1.16567 -3.80622e-21)
(0.722902 1.13391 2.70679e-20)
(0.611199 1.1016 -1.24987e-21)
(0.488151 1.07275 0)
(0.372151 1.05401 0)
(0.322313 1.29545 -2.16817e-20)
(0.427816 2.79626 7.07936e-21)
(0.510884 3.50626 5.56185e-22)
(0.459467 3.59127 0)
(0.413681 3.64479 2.90596e-20)
(0.359341 3.70574 -4.50833e-20)
(0.306664 3.68108 -4.1895e-20)