/*--------------------------------*- C++ -*----------------------------------*\
  =========                 |
  \\      /  F ield         | OpenFOAM: The Open Source CFD Toolbox
   \\    /   O peration     | Website:  https://openfoam.org
    \\  /    A nd           | Version:  6
     \\/     M anipulation  |
\*---------------------------------------------------------------------------*/
FoamFile
{
    version     2.0;
    format      ascii;
    class       surfaceScalarField;
    location    "2.3";
    object      phi;
}
// * * * * * * * * * * * * * * * * * * * * * * * * * * * * * * * * * * * * * //

dimensions      [0 3 -1 0 0 0 0];

internalField   nonuniform List<scalar> 
17370
(
-0.089014
0.0922599
0.285765
-0.075533
0.0587929
0.363516
-0.0429748
0.0320096
0.427133
-0.0224119
0.0160222
0.505641
-0.010621
0.00726826
0.602755
-0.00457097
0.00315339
0.720475
-0.0020715
0.00162766
0.86335
-0.00114361
0.000959365
1.03563
-0.00066319
0.000496029
1.24267
-0.000231427
3.52879e-05
1.49139
0.000162275
-0.000430102
1.49146
0.000601599
-0.00090161
1.24299
0.00109101
-0.00156629
1.03611
0.00202687
-0.00309149
0.863971
0.00450759
-0.00723307
0.721783
0.0105956
-0.0160065
0.604625
0.0224002
-0.0320098
0.509049
0.0429826
-0.0588014
0.431987
0.0755395
-0.0922626
0.363499
0.0890204
0.19999
-0.137935
0.110845
0.0270893
-0.36365
0.357156
-0.0442945
0.0507878
-0.443168
0.44404
-0.0515296
0.0506574
-0.519211
0.522472
-0.0485823
0.0453209
-0.611793
0.61677
-0.0411367
0.0361598
-0.726231
0.731081
-0.0313632
0.0265128
-0.867205
0.871129
-0.0222613
0.0183366
-1.03859
1.04168
-0.0150485
0.0119636
-1.24495
1.24753
-0.00929768
0.006712
-1.49322
1.49561
-0.00439582
0.00200623
-1.49307
1.49536
0.000293413
-0.00258505
-1.24437
1.24665
0.00495164
-0.00723755
-1.03769
1.04033
0.00977914
-0.0124196
-0.866037
0.869283
0.0154588
-0.0187047
-0.723861
0.728077
0.0226059
-0.026822
-0.608082
0.61284
0.0316203
-0.0363779
-0.513683
0.517841
0.0413109
-0.0454695
-0.437619
0.439674
0.0486971
-0.0507516
-0.371335
0.370578
0.0516018
-0.0508448
-0.262122
0.244893
0.0443334
-0.0271049
-0.0991197
0.0943598
0.00475995
-0.0188735
0.0230926
-0.368135
0.363916
-0.0262633
0.0282375
-0.439125
0.437151
-0.0292985
0.0296023
-0.518655
0.518352
-0.0286353
0.027215
-0.614559
0.615979
-0.025128
0.0229515
-0.731054
0.73323
-0.0202147
0.0175964
-0.87239
0.875009
-0.014549
0.0117544
-1.04322
1.04601
-0.00860382
0.00572518
-1.24939
1.25227
-0.00242073
-0.00072286
-1.49818
1.50132
0.00384952
-0.00710371
-1.49846
1.50172
0.00991397
-0.0129774
-1.25039
1.25345
0.0156734
-0.0186248
-1.04472
1.04767
0.021144
-0.0237727
-0.874326
0.876954
0.0258538
-0.0278396
-0.733612
0.735598
0.0291643
-0.0300131
-0.617647
0.618496
0.0296295
-0.0285026
-0.522371
0.521244
0.0264864
-0.0232688
-0.442225
0.439008
0.0190041
-0.0125251
-0.35179
0.345311
0.00479157
-0.099069
0.0942775
-0.0942325
0.0948017
-0.00056918
-0.00242086
0.00529307
-0.359092
0.356219
-0.00866955
0.0114513
-0.434053
0.431271
-0.0139493
0.0155979
-0.517265
0.515616
-0.016667
0.016935
-0.616557
0.616289
-0.0166031
0.0158539
-0.734848
0.735597
-0.0146428
0.0132165
-0.877221
0.878647
-0.0113433
0.0093804
-1.04851
1.05048
-0.00699283
0.0046211
-1.25499
1.25736
-0.00181932
-0.000941885
-1.50438
1.50714
0.00368005
-0.00641328
-1.50482
1.50756
0.00869474
-0.0109582
-1.25623
1.25849
0.0128008
-0.0145404
-1.05019
1.05193
0.0158491
-0.0169444
-0.879016
0.880111
0.0175904
-0.0178027
-0.736797
0.737009
0.0174139
-0.0162009
-0.618329
0.617116
0.014439
-0.011822
-0.519045
0.516428
0.00894344
-0.00548565
-0.434475
0.431017
0.00254478
-0.000133941
-0.340157
0.337746
-0.000557454
-0.0941233
0.0946807
-0.0946718
0.0943894
0.000282396
-0.00174945
0.00284678
-0.354597
0.353499
-0.00415442
0.00536285
-0.429517
0.428309
-0.00662491
0.00767658
-0.514164
0.513112
-0.00864293
0.00930843
-0.615424
0.614758
-0.00971737
0.00978748
-0.735623
0.735553
-0.00949533
0.00889532
-0.87961
0.88021
-0.00787485
0.00664753
-1.05215
1.05338
-0.00500139
0.00327117
-1.25953
1.26126
-0.00111874
-0.00107009
-1.50973
1.51192
0.0032491
-0.00533945
-1.51009
1.51218
0.0069534
-0.00844963
-1.26049
1.26199
0.0095365
-0.0103951
-1.05324
1.0541
0.0108486
-0.010984
-0.880499
0.880635
0.0107746
-0.0102184
-0.736356
0.7358
0.00942417
-0.00833163
-0.615688
0.614596
0.00717254
-0.00580365
-0.514537
0.513168
0.00450596
-0.00310263
-0.428959
0.427555
0.00192112
-0.000894305
-0.336359
0.335332
0.000311819
-0.0945274
0.0942156
-0.0942451
0.0941499
9.51439e-05
-0.000838603
0.00136023
-0.352738
0.352216
-0.00199504
0.00259881
-0.427439
0.426835
-0.00325395
0.00382022
-0.512335
0.511768
-0.0043786
0.00480253
-0.614226
0.613802
-0.00513403
0.00528328
-0.735429
0.73528
-0.00524614
0.00500683
-0.880592
0.880831
-0.00449879
0.00380518
-1.0543
1.05499
-0.00279085
0.00164721
-1.2627
1.26384
-0.000190472
-0.00129092
-1.51369
1.51517
0.00273241
-0.00408777
-1.51386
1.51521
0.00510273
-0.00595129
-1.26314
1.26399
0.00648172
-0.00680377
-1.05465
1.05497
0.006871
-0.00672127
-0.880603
0.880453
0.0064056
-0.00589905
-0.735268
0.734762
0.0053229
-0.00460648
-0.613719
0.613002
0.00390513
-0.00311161
-0.512116
0.511322
0.0023923
-0.00164428
-0.426531
0.425783
0.00102946
-0.000472278
-0.334573
0.334015
0.000128931
-0.094039
0.0939101
-0.0940714
0.0940176
5.38243e-05
-0.00040763
0.000655657
-0.351858
0.35161
-0.000956271
0.00124447
-0.42642
0.426132
-0.0015646
0.0018507
-0.511362
0.511076
-0.00214305
0.00237442
-0.61348
0.613248
-0.00256684
0.00266502
-0.735146
0.735048
-0.00266173
0.0025361
-0.880992
0.881118
-0.00224155
0.00181718
-1.05552
1.05595
-0.00117361
0.00043034
-1.26476
1.2655
0.000543804
-0.00154491
-1.51639
1.51739
0.0025138
-0.00337772
-1.5163
1.51717
0.00396865
-0.0044085
-1.2646
1.26504
0.00463055
-0.00469479
-1.05514
1.0552
0.00460852
-0.00438327
-0.880247
0.880022
0.00408349
-0.00368038
-0.734304
0.733901
0.00326736
-0.00278887
-0.61242
0.611942
0.00234489
-0.00186456
-0.510717
0.510237
0.00144167
-0.00100571
-0.425225
0.424789
0.000644193
-0.000310159
-0.333594
0.33326
9.6053e-05
-0.0937938
0.0936977
-0.0939849
0.0939684
1.65224e-05
-0.000154677
0.000259254
-0.351443
0.351339
-0.000387337
0.000510037
-0.425937
0.425814
-0.000645812
0.000765684
-0.510883
0.510763
-0.000885177
0.000974617
-0.613094
0.613005
-0.00103891
0.00105402
-0.734991
0.734976
-0.00100674
0.000890701
-0.881232
0.881348
-0.000667629
0.000365971
-1.0563
1.0566
7.98044e-05
-0.000588543
-1.26611
1.26662
0.00124474
-0.00190197
-1.51821
1.51886
0.00251248
-0.00302821
-1.51784
1.51836
0.00334945
-0.00354653
-1.26535
1.26555
0.0036019
-0.00354237
-1.0552
1.05514
0.00339807
-0.00316481
-0.879791
0.879558
0.00290232
-0.00257979
-0.733544
0.733221
0.00226798
-0.00192068
-0.611539
0.611192
0.00160754
-0.00127589
-0.509843
0.509511
0.000988269
-0.000693831
-0.424436
0.424142
0.000449268
-0.000220136
-0.332987
0.332758
6.94794e-05
-0.093618
0.0935486
-0.0939647
0.0939724
-7.63973e-06
5.26255e-06
9.93603e-06
-0.351283
0.351268
-3.07758e-05
4.88775e-05
-0.425748
0.42573
-6.51289e-05
7.39668e-05
-0.510703
0.510694
-7.30314e-05
5.76765e-05
-0.612971
0.612986
-1.84451e-05
-4.49789e-05
-0.735001
0.735064
0.000153701
-0.000297181
-0.881475
0.881618
0.000511965
-0.000766328
-1.05687
1.05712
0.00111207
-0.00148395
-1.26705
1.26742
0.0019393
-0.00237003
-1.5194
1.51983
0.00274206
-0.00302307
-1.51874
1.51903
0.00316719
-0.00320359
-1.26565
1.26569
0.0031475
-0.00300849
-1.05503
1.05489
0.00282717
-0.00258634
-0.879322
0.879081
0.0023416
-0.00205923
-0.732923
0.732641
0.00179747
-0.00151445
-0.610883
0.6106
0.00126453
-0.00100376
-0.509222
0.508962
0.000779922
-0.000551978
-0.423887
0.423659
0.000362142
-0.000181401
-0.332558
0.332378
5.88001e-05
-0.0934857
0.0934269
-0.0939906
0.094018
-2.7385e-05
0.000121858
-0.000169169
-0.351286
0.351333
0.000226819
-0.000285167
-0.425754
0.425813
0.000357023
-0.000431595
-0.51073
0.510805
0.000525408
-0.000624763
-0.613046
0.613145
0.000752014
-0.000888598
-0.735165
0.735301
0.00106483
-0.0012536
-0.881783
0.881971
0.00149428
-0.00174563
-1.05737
1.05762
0.00205349
-0.00235585
-1.26776
1.26806
0.00269378
-0.0029805
-1.52018
1.52046
0.00319219
-0.00330579
-1.51922
1.51933
0.00330726
-0.0032392
-1.26568
1.26561
0.00310565
-0.00290363
-1.05472
1.05452
0.00268471
-0.00242158
-0.878831
0.878568
0.00217071
-0.00189333
-0.732365
0.732088
0.00164401
-0.00138025
-0.610332
0.610068
0.00115103
-0.00091456
-0.508718
0.508481
0.000713084
-0.00050867
-0.423447
0.423243
0.000337781
-0.000172462
-0.332208
0.332043
5.7104e-05
-0.0933698
0.0933127
-0.0940539
0.0940992
-4.53275e-05
0.000232935
-0.000335251
-0.351409
0.351512
0.000456172
-0.000576901
-0.425902
0.426022
0.000721876
-0.000867023
-0.510915
0.51106
0.00104154
-0.00121645
-0.613282
0.613457
0.00142641
-0.00163607
-0.735474
0.735684
0.00188634
-0.00213359
-0.882188
0.882435
0.0024236
-0.00270196
-1.05789
1.05816
0.00301421
-0.0032933
-1.26834
1.26862
0.0035716
-0.00377127
-1.5207
1.5209
0.00387699
-0.00387611
-1.51938
1.51938
0.00378753
-0.00360883
-1.26548
1.2653
0.00339654
-0.00312622
-1.05429
1.05402
0.00285796
-0.00255291
-0.878287
0.877982
0.00227284
-0.00197149
-0.731802
0.7315
0.00170588
-0.00142894
-0.609801
0.609524
0.00119078
-0.00094692
-0.508244
0.508001
0.000740241
-0.000531092
-0.423039
0.42283
0.000355805
-0.000184149
-0.331876
0.331705
6.18658e-05
-0.093254
0.0931921
-0.0941536
0.0942175
-6.39509e-05
0.000338515
-0.000493472
-0.35164
0.351795
0.00067772
-0.00086095
-0.426174
0.426357
0.00107939
-0.0012959
-0.51124
0.511457
0.00155279
-0.00180591
-0.61367
0.613924
0.00210358
-0.00239353
-0.735932
0.736222
0.00272947
-0.00304989
-0.882717
0.883037
0.00341056
-0.00374048
-1.05847
1.0588
0.00408956
-0.00437928
-1.2689
1.26919
0.00463823
-0.00478812
-1.52107
1.52122
0.00481865
-0.00472272
-1.51933
1.51923
0.00454361
-0.0042729
-1.26508
1.26481
0.0039801
-0.00362903
-1.05371
1.05336
0.00329491
-0.00292576
-0.877648
0.877278
0.00259395
-0.00224247
-0.731177
0.730826
0.00193627
-0.00161982
-0.60923
0.608914
0.00134945
-0.00107391
-0.507744
0.507468
0.000841095
-0.000605852
-0.42261
0.422375
0.000408249
-0.000213153
-0.331523
0.331328
7.22689e-05
-0.0931257
0.0930534
-0.0942919
0.0943775
-8.56411e-05
0.000458964
-0.00067193
-0.351978
0.352191
0.000925394
-0.00117708
-0.426574
0.426825
0.00147632
-0.00177187
-0.511711
0.512007
0.00212085
-0.00246261
-0.614219
0.614561
0.00286121
-0.00324548
-0.736557
0.736941
0.00368496
-0.00409744
-0.883401
0.883814
0.00455235
-0.00495788
-1.05916
1.05957
0.00537256
-0.00570035
-1.2695
1.26983
0.00596977
-0.00609399
-1.52136
1.52148
0.00606641
-0.00588402
-1.51909
1.51891
0.0056147
-0.00524148
-1.26449
1.26411
0.00485517
-0.00440465
-1.05296
1.05251
0.0039842
-0.00352637
-0.876868
0.87641
0.00311937
-0.00269172
-0.730439
0.730012
0.00232151
-0.00194063
-0.608568
0.608188
0.00161633
-0.00128665
-0.507168
0.506839
0.00100859
-0.000727885
-0.422119
0.421839
0.000491901
-0.000257936
-0.331116
0.330882
8.78315e-05
-0.092974
0.0928862
-0.0944758
0.0945881
-0.000112343
0.000604304
-0.000885935
-0.352437
0.352718
0.00122119
-0.00155391
-0.427116
0.427448
0.00194905
-0.00233868
-0.512347
0.512737
0.00279776
-0.003246
-0.614953
0.615401
0.00376685
-0.0042665
-0.73738
0.73788
0.00483435
-0.00536303
-0.884281
0.884809
0.00594003
-0.00644741
-1.06002
1.06053
0.00695635
-0.00734717
-1.27018
1.27057
0.00765071
-0.00776514
-1.5216
1.52171
0.00768622
-0.00741447
-1.51869
1.51841
0.0070448
-0.00655045
-1.26368
1.26319
0.0060495
-0.00547325
-1.052
1.05142
0.0049409
-0.00436555
-0.875898
0.875322
0.00385693
-0.00332485
-0.729536
0.729003
0.00286577
-0.00239467
-0.607765
0.607294
0.00199432
-0.00158786
-0.506474
0.506067
0.00124541
-0.000899833
-0.421528
0.421182
0.000609088
-0.000320142
-0.330622
0.330333
0.000109275
-0.0927884
0.0926791
-0.0947163
0.0948623
-0.000145996
0.000785685
-0.00115235
-0.35304
0.353407
0.00158878
-0.0020217
-0.427828
0.428261
0.00253549
-0.00304168
-0.513181
0.513688
0.00363738
-0.00421809
-0.615912
0.616493
0.00489148
-0.00553575
-0.738448
0.739092
0.00626542
-0.00694169
-0.885407
0.886084
0.00767546
-0.00831553
-1.0611
1.06174
0.0089504
-0.00942923
-1.271
1.27148
0.00978777
-0.00990237
-1.52183
1.52194
0.00977075
-0.00939657
-1.51809
1.51772
0.00890668
-0.00826334
-1.26262
1.26198
0.00761845
-0.00688231
-1.05077
1.05003
0.0062059
-0.0054779
-0.874676
0.873948
0.0048363
-0.00416678
-0.728407
0.727738
0.00359008
-0.00299917
-0.606767
0.606176
0.00249744
-0.00198853
-0.505613
0.505104
0.00155997
-0.00112762
-0.420796
0.420364
0.00076374
-0.000401724
-0.33001
0.329648
0.000137168
-0.0925568
0.0924197
-0.0950285
0.0952178
-0.000189295
0.00101698
-0.00149126
-0.353824
0.354298
0.00205574
-0.00261555
-0.428754
0.429314
0.00327961
-0.00393336
-0.514263
0.514917
0.00470206
-0.00545062
-0.617152
0.617901
0.00631734
-0.00714504
-0.739822
0.74065
0.00808019
-0.00894432
-0.886848
0.887712
0.00987809
-0.0106883
-1.06246
1.06327
0.0114857
-0.0120797
-1.27202
1.27261
0.0125128
-0.0126328
-1.52206
1.52218
0.0124393
-0.0119394
-1.51729
1.51679
0.0112998
-0.0104689
-1.26125
1.26042
0.0096418
-0.00870191
-1.0492
1.04826
0.00784123
-0.00691717
-0.873128
0.872204
0.00610439
-0.00525737
-0.726985
0.726138
0.00452866
-0.00378248
-0.605512
0.604766
0.00314937
-0.00250746
-0.504533
0.503891
0.00196706
-0.00142194
-0.419879
0.419334
0.000963171
-0.000506672
-0.329242
0.328785
0.000172993
-0.0922657
0.0920927
-0.0954334
0.0956791
-0.0002457
0.00131585
-0.00192842
-0.354837
0.35545
0.00265726
-0.00337979
-0.42995
0.430672
0.00423648
-0.00507942
-0.515659
0.516502
0.00606977
-0.00703311
-0.61875
0.619713
0.00814709
-0.00920913
-0.741588
0.74265
0.0104065
-0.0115099
-0.888689
0.889792
0.0126981
-0.0137242
-1.06418
1.0652
0.0147273
-0.0154665
-1.27327
1.27401
0.0159929
-0.0161185
-1.5223
1.52243
0.0158456
-0.0151857
-1.51621
1.51555
0.0143554
-0.0132859
-1.25947
1.2584
0.0122265
-0.0110269
-1.0472
1.046
0.00993112
-0.00875673
-0.871162
0.869988
0.0077252
-0.00665132
-0.725184
0.724111
0.00572817
-0.0047835
-0.603927
0.602982
0.00398235
-0.0031703
-0.503169
0.502357
0.00248683
-0.00179745
-0.418721
0.418032
0.00121732
-0.000640082
-0.328272
0.327695
0.000218339
-0.0918984
0.09168
-0.0959593
0.0962793
-0.000320014
0.00170599
-0.00249787
-0.356146
0.356938
0.00343978
-0.00437311
-0.431493
0.432426
0.00547907
-0.00656647
-0.517459
0.518547
0.00784284
-0.00908301
-0.620806
0.622047
0.0105149
-0.0118774
-0.743852
0.745215
0.0134099
-0.0148178
-0.891039
0.892447
0.0163279
-0.0176255
-1.06636
1.06766
0.0188847
-0.0198022
-1.27484
1.27575
0.020439
-0.0205639
-1.52255
1.52268
0.0201832
-0.0193146
-1.51479
1.51393
0.018239
-0.0168642
-1.25719
1.25582
0.0155089
-0.013979
-1.04465
1.04312
0.0125844
-0.0110922
-0.868664
0.867172
0.00978291
-0.008421
-0.722901
0.721539
0.00725089
-0.00605406
-0.601919
0.600722
0.00503936
-0.00401116
-0.501443
0.500415
0.00314591
-0.00227336
-0.417256
0.416383
0.00153917
-0.000808869
-0.327046
0.326315
0.000275647
-0.0914347
0.091159
-0.0966452
0.0970644
-0.000419192
0.00222065
-0.00324722
-0.357839
0.358865
0.00446772
-0.00567626
-0.433488
0.434696
0.00710731
-0.00851301
-0.519782
0.521188
0.0101609
-0.0117594
-0.623454
0.625053
0.0136014
-0.0153499
-0.746758
0.748507
0.0173105
-0.0191047
-0.894036
0.895831
0.0210199
-0.022655
-1.06911
1.07075
0.0242279
-0.0253577
-1.27677
1.2779
0.0261171
-0.0262244
-1.5228
1.5229
0.0256931
-0.0245493
-1.51293
1.51179
0.0231568
-0.0213914
-1.25426
1.25249
0.0196595
-0.0177104
-1.04139
1.03944
0.0159375
-0.0140431
-0.86549
0.863596
0.0123826
-0.0106565
-0.720006
0.71828
0.0091743
-0.00765874
-0.599375
0.59786
0.00637415
-0.00507268
-0.499258
0.497957
0.00397761
-0.00287342
-0.415402
0.414298
0.00194451
-0.00102094
-0.325494
0.324571
0.000347364
-0.0908495
0.0905021
-0.0975457
0.0980995
-0.000553833
0.00290888
-0.00424601
-0.360036
0.361373
0.00583456
-0.00740604
-0.436074
0.437645
0.00926478
-0.0110881
-0.522788
0.524612
0.0132218
-0.0152872
-0.626869
0.628934
0.0176605
-0.0199056
-0.750488
0.752733
0.0224122
-0.0246942
-0.897855
0.900137
0.0271139
-0.0291623
-1.07258
1.07463
0.0311096
-0.0324823
-1.27915
1.28052
0.0333646
-0.0334205
-1.52299
1.52305
0.0326748
-0.0311659
-1.51047
1.50896
0.0293637
-0.0270999
-1.25049
1.24823
0.0248908
-0.0224126
-1.03724
1.03476
0.0201629
-0.0177619
-0.861462
0.859061
0.0156592
-0.0134745
-0.716338
0.714153
0.0115992
-0.00968203
-0.596155
0.594238
0.00805729
-0.0064113
-0.496493
0.494847
0.00502638
-0.00362992
-0.413056
0.411659
0.00245525
-0.00128788
-0.323532
0.322365
0.000437498
-0.0901122
0.0896747
-0.098739
0.0994801
-0.000741056
0.00384645
-0.00560035
-0.362903
0.364657
0.00768182
-0.00973803
-0.439441
0.441497
0.0121661
-0.0145429
-0.526692
0.529069
0.017317
-0.0199934
-0.631285
0.633961
0.0230566
-0.02594
-0.755277
0.758161
0.0291395
-0.0320308
-0.902707
0.905598
0.0350679
-0.0376088
-1.07691
1.07945
0.0399849
-0.0416165
-1.28203
1.28366
0.0425978
-0.0425402
-1.52306
1.523
0.0414869
-0.0394935
-1.50723
1.50524
0.0371642
-0.0342691
-1.24567
1.24277
0.0314601
-0.0283193
-1.03197
1.02883
0.0254733
-0.022439
-0.856361
0.853327
0.0197826
-0.0170232
-0.711697
0.708938
0.0146543
-0.0122323
-0.592082
0.58966
0.0101793
-0.00809921
-0.492996
0.490916
0.0063488
-0.00458361
-0.410089
0.408324
0.00309877
-0.0016238
-0.321053
0.319578
0.000550697
-0.0891839
0.0886332
-0.100344
0.101354
-0.00100998
0.00515864
-0.00748428
-0.366672
0.368998
0.0102389
-0.0129535
-0.443856
0.446571
0.01615
-0.0192691
-0.531789
0.534908
0.022895
-0.0263761
-0.637012
0.640493
0.0303358
-0.0340354
-0.761428
0.765127
0.0381035
-0.0417394
-0.908845
0.912481
0.0455075
-0.0486072
-1.08227
1.08537
0.0514388
-0.05331
-1.28541
1.28729
0.0543203
-0.0540421
-1.52285
1.52257
0.0525474
-0.0499145
-1.50294
1.50031
0.0469142
-0.0432302
-1.23951
1.23582
0.039678
-0.035719
-1.0253
1.02134
0.0321363
-0.0283178
-0.849921
0.846102
0.0249738
-0.021498
-0.705839
0.702363
0.0185119
-0.0154567
-0.58694
0.583884
0.0128653
-0.0102379
-0.488579
0.485951
0.00802561
-0.00579364
-0.40634
0.404108
0.00391556
-0.00205025
-0.31792
0.316054
0.000694401
-0.088015
0.0873206
-0.102549
0.103966
-0.00141771
0.00708268
-0.0102219
-0.371684
0.374823
0.0139228
-0.017552
-0.449704
0.453333
0.0218043
-0.0259317
-0.538497
0.542624
0.0306991
-0.0352409
-0.644471
0.649013
0.0403578
-0.0450834
-0.769313
0.774039
0.0502077
-0.0547132
-0.916538
0.921044
0.0592909
-0.0629661
-1.08876
1.09243
0.0662104
-0.0682311
-1.28925
1.29127
0.0691212
-0.0684481
-1.52212
1.52145
0.0663243
-0.0628564
-1.49729
1.49382
0.0590169
-0.0543676
-1.23168
1.22703
0.0499162
-0.0449699
-1.01691
1.01196
0.0404967
-0.035725
-0.841829
0.837057
0.0315393
-0.0271796
-0.698467
0.694108
0.0234263
-0.0195782
-0.580454
0.576606
0.0163083
-0.0129876
-0.482997
0.479677
0.0101871
-0.00735767
-0.401598
0.398768
0.00497356
-0.00260401
-0.313956
0.311586
0.0008817
-0.0865388
0.0856571
-0.105682
0.107797
-0.00211503
0.0101976
-0.0145628
-0.378458
0.382824
0.0196358
-0.0245555
-0.457569
0.462488
0.0302676
-0.0357656
-0.54742
0.552918
0.0420508
-0.0479645
-0.65422
0.660134
0.0545254
-0.0604754
-0.77936
0.78531
0.0667911
-0.072212
-0.926009
0.931429
0.0775634
-0.081711
-1.09637
1.10051
0.0851872
-0.0871452
-1.29329
1.29525
0.0876433
-0.0863077
-1.52048
1.51915
0.0833015
-0.0787629
-1.48985
1.48531
0.0739
-0.0681067
-1.22183
1.21604
0.0626056
-0.0565134
-1.00646
1.00037
0.0510048
-0.0451164
-0.831743
0.825855
0.0399334
-0.0345118
-0.689232
0.683811
0.029823
-0.024994
-0.572283
0.567454
0.0208727
-0.0166697
-0.475935
0.471732
0.0131097
-0.00949619
-0.395583
0.391969
0.00643512
-0.00337706
-0.308921
0.305863
0.00114626
-0.0846575
0.0835112
-0.110347
0.114012
-0.00366457
0.0162741
-0.0225447
-0.387898
0.394168
0.0295662
-0.0362472
-0.468438
0.475119
0.0438908
-0.0511629
-0.559457
0.566729
0.0593453
-0.0668928
-0.666924
0.674472
0.0750731
-0.0822937
-0.79191
0.79913
0.0897228
-0.0958864
-0.937248
0.943412
0.101727
-0.106024
-1.10478
1.10908
0.109327
-0.110831
-1.29704
1.29854
0.110506
-0.10813
-1.51734
1.51497
0.103918
-0.0980424
-1.48014
1.47426
0.0919709
-0.0848786
-1.20961
1.20251
0.0782169
-0.0708742
-0.993658
0.986315
0.0642427
-0.0571401
-0.819351
0.812248
0.050863
-0.0442577
-0.677771
0.671165
0.0385052
-0.0325365
-0.562007
0.556039
0.0274009
-0.0221122
-0.466949
0.46166
0.0175793
-0.0129168
-0.387877
0.383215
0.00888423
-0.00472433
-0.302467
0.298307
0.00162633
-0.0822142
0.0805879
-0.117847
0.125842
-0.00799502
0.0306915
-0.03954
-0.401933
0.410781
0.048651
-0.0572937
-0.483945
0.492588
0.0671456
-0.0763895
-0.57562
0.584864
0.0865615
-0.0956591
-0.682968
0.692066
0.105181
-0.113277
-0.806788
0.814885
0.121267
-0.127585
-0.949667
0.955985
0.133244
-0.137046
-1.11316
1.11696
0.139506
-0.139946
-1.29956
1.3
0.138213
-0.134309
-1.51186
1.50795
0.128511
-0.121027
-1.46759
1.4601
0.113576
-0.105094
-1.19472
1.18624
0.0972358
-0.0886517
-0.978327
0.969743
0.0809338
-0.0726852
-0.804498
0.796249
0.065391
-0.0576896
-0.663847
0.656146
0.0509507
-0.0439224
-0.549233
0.542205
0.0378257
-0.0314648
-0.455453
0.449092
0.0259121
-0.0199968
-0.377741
0.371826
0.014386
-0.00784441
-0.293946
0.287404
0.00268716
-0.078925
0.0762378
-0.134447
0.13663
-0.00218265
0.0174631
-0.0260747
-0.423964
0.432575
0.0357904
-0.0454588
-0.505085
0.514753
0.0566734
-0.0677034
-0.595588
0.606618
0.0795102
-0.0899716
-0.70131
0.711771
0.101506
-0.111672
-0.822581
0.832747
0.122174
-0.131146
-0.961658
0.97063
0.140007
-0.147068
-1.11992
1.12698
0.153274
-0.157296
-1.29945
1.30347
0.159314
-0.158532
-1.50295
1.50217
0.154831
-0.148614
-1.45162
1.44541
0.141391
-0.132225
-1.17698
1.16781
0.123271
-0.112526
-0.960525
0.94978
0.102582
-0.0915189
-0.787389
0.776326
0.0814828
-0.0706564
-0.6477
0.636873
0.0607884
-0.0505789
-0.534107
0.523897
0.0419453
-0.0327352
-0.44129
0.43208
0.0248838
-0.0167478
-0.364481
0.356345
0.00941326
-0.00307233
-0.281193
0.274853
-0.000235491
-0.0734586
0.0736941
-0.144826
0.139405
0.00542107
-0.00239142
-0.00383207
-0.445621
0.451844
0.0126005
-0.0210888
-0.526477
0.534965
0.0312917
-0.0406861
-0.61735
0.626744
0.0511776
-0.0607033
-0.722235
0.73176
0.0708588
-0.0800331
-0.84256
0.851735
0.0895566
-0.0974429
-0.979472
0.987359
0.105456
-0.111527
-1.13408
1.14015
0.116849
-0.12001
-1.30746
1.31062
0.121047
-0.119561
-1.5009
1.49941
0.115359
-0.108908
-1.43876
1.43231
0.101507
-0.0925028
-1.15856
1.14956
0.0839374
-0.0742541
-0.939235
0.929551
0.0652794
-0.0553729
-0.765347
0.755441
0.0465506
-0.0374544
-0.625648
0.616552
0.0297
-0.0217282
-0.512822
0.50485
0.0151068
-0.00880121
-0.420798
0.414492
0.00392177
0.000589129
-0.345237
0.340726
-0.00342477
0.00438251
-0.264873
0.263916
-0.00322659
-0.0694639
0.0726905
-0.143172
0.139669
0.00350307
-0.00357958
-0.000344956
-0.461828
0.465752
0.00622178
-0.0126769
-0.544328
0.550783
0.0204929
-0.0280985
-0.635942
0.643548
0.0367145
-0.0446775
-0.740747
0.74871
0.0534619
-0.0613129
-0.860249
0.8681
0.0693167
-0.0763077
-0.995096
1.00209
0.0832648
-0.088651
-1.14592
1.15131
0.0930136
-0.0954131
-1.31334
1.31574
0.0960692
-0.0942759
-1.49756
1.49577
0.0900401
-0.0838821
-1.42568
1.41952
0.0771069
-0.06924
-1.14096
1.13309
0.0616177
-0.0533972
-0.920215
0.911994
0.0459663
-0.0379596
-0.746573
0.738566
0.0311743
-0.0242188
-0.608109
0.601154
0.0184946
-0.0125903
-0.496879
0.490975
0.00801128
-0.00383577
-0.406915
0.402739
0.000776093
0.00175262
-0.333398
0.330869
-0.00324459
0.0034978
-0.256659
0.256406
-0.00223757
-0.0691695
0.0714071
-0.143393
0.140803
0.0025897
-0.00319122
0.000437651
-0.473745
0.476499
0.00406695
-0.00944804
-0.557846
0.563227
0.0160979
-0.02234
-0.650704
0.656947
0.0295948
-0.0363539
-0.756325
0.763084
0.0437984
-0.0505189
-0.875485
0.882206
0.057783
-0.0637983
-1.0087
1.01472
0.0700104
-0.0744391
-1.15641
1.16084
0.0783091
-0.08038
-1.31808
1.32015
0.0806958
-0.078614
-1.4938
1.49172
0.0746782
-0.0690921
-1.4132
1.40761
0.0630218
-0.0557985
-1.12545
1.11822
0.0492003
-0.0422124
-0.904018
0.89703
0.0358542
-0.0293936
-0.731167
0.724706
0.0236226
-0.0179304
-0.594362
0.58867
0.0132005
-0.00859226
-0.485025
0.480417
0.0050239
-0.00167902
-0.396933
0.393588
-0.000787475
0.00248435
-0.325088
0.323391
-0.00359336
0.00349105
-0.250516
0.250618
-0.00204358
-0.0683062
0.0703498
-0.144888
0.142784
0.00210486
-0.00261152
0.000412217
-0.483416
0.485616
0.00392582
-0.00856056
-0.569306
0.573941
0.0141439
-0.0198554
-0.663166
0.668878
0.0261087
-0.0321962
-0.769522
0.77561
0.0388318
-0.0448607
-0.888624
0.894652
0.0513209
-0.0568769
-1.02069
1.02624
0.0623801
-0.0666384
-1.16523
1.16949
0.0701397
-0.0719613
-1.322
1.32382
0.0721067
-0.0700097
-1.4896
1.4875
0.0662211
-0.0607737
-1.4016
1.39615
0.0551301
-0.0486436
-1.1112
1.10472
0.042695
-0.0363253
-0.890075
0.883705
0.0307633
-0.0250201
-0.718306
0.712562
0.0201074
-0.0151543
-0.583079
0.578126
0.011113
-0.00718302
-0.475442
0.471512
0.00397441
-0.00107159
-0.388941
0.386038
-0.000828399
0.00241991
-0.318627
0.317035
-0.00341818
0.00310128
-0.245602
0.245919
-0.0018536
-0.0676434
0.069497
-0.146667
0.14481
0.00185738
-0.00210525
-0.000322428
-0.491881
0.494309
0.00406565
-0.00849512
-0.578968
0.583397
0.0140293
-0.0191834
-0.67423
0.679384
0.0249205
-0.0305355
-0.781298
0.786913
0.0367635
-0.0424433
-0.900497
0.906176
0.0486504
-0.0538199
-1.03165
1.03682
0.0590719
-0.0631467
-1.17357
1.17764
0.0664288
-0.0681006
-1.32545
1.32712
0.0680966
-0.0662402
-1.48531
1.48345
0.0623916
-0.0571511
-1.39031
1.38507
0.0516516
-0.0453836
-1.0981
1.09183
0.0399117
-0.0337977
-0.877321
0.871207
0.0285507
-0.0233125
-0.706842
0.701604
0.0188082
-0.0142784
-0.573287
0.568757
0.0105548
-0.00678651
-0.467219
0.463451
0.00401396
-0.0013667
-0.382047
0.3794
-0.000641082
0.00209857
-0.312846
0.311388
-0.00292014
0.0028149
-0.241444
0.241549
-0.00164816
-0.0670734
0.0687216
-0.148613
0.147189
0.00142428
-0.00116089
-0.0012831
-0.499809
0.502253
0.00521164
-0.00925157
-0.588324
0.592364
0.0146089
-0.0195909
-0.684525
0.689506
0.0253995
-0.0306578
-0.792482
0.797741
0.0365736
-0.042007
-0.912011
0.917444
0.0482583
-0.0533075
-1.04216
1.0472
0.0583595
-0.0624748
-1.18162
1.18573
0.0660831
-0.0677027
-1.3288
1.33042
0.0677373
-0.0657091
-1.4811
1.47907
0.061996
-0.0563868
-1.37944
1.37383
0.0509367
-0.0447789
-1.0853
1.07914
0.0392123
-0.0333594
-0.865058
0.859205
0.0282143
-0.0229744
-0.696106
0.690866
0.0188356
-0.0144184
-0.564113
0.559696
0.010744
-0.00727129
-0.459478
0.456005
0.00447106
-0.00175418
-0.375852
0.373135
-0.00012965
0.00158779
-0.307764
0.306305
-0.0024152
0.00248299
-0.237652
0.237584
-0.00153604
-0.0665689
0.0681049
-0.150922
0.149788
0.00113355
-0.00029062
-0.0021999
-0.507345
0.509835
0.00637664
-0.010553
-0.597295
0.601471
0.0157976
-0.0206358
-0.694529
0.699367
0.0261287
-0.0315537
-0.803251
0.808676
0.03746
-0.0433268
-0.922899
0.928765
0.0492421
-0.0544422
-1.05249
1.05769
0.0599116
-0.0640421
-1.18982
1.19395
0.0674204
-0.0695198
-1.33194
1.33403
0.0696652
-0.0676288
-1.47686
1.47482
0.0636139
-0.0579176
-1.36802
1.36232
0.0521794
-0.0457006
-1.07238
1.0659
0.0399826
-0.0339534
-0.853032
0.847003
0.0287553
-0.0236355
-0.685548
0.680428
0.0192356
-0.0149334
-0.555119
0.550816
0.0114155
-0.00785282
-0.452221
0.448658
0.00499409
-0.00249925
-0.369727
0.367232
0.000538575
0.00108011
-0.302888
0.301269
-0.0020538
0.00222476
-0.234101
0.23393
-0.00146886
-0.0662669
0.0677357
-0.153622
0.152616
0.00100601
0.000835729
-0.00360804
-0.514823
0.517596
0.00774293
-0.0120475
-0.606236
0.610541
0.0171741
-0.0221532
-0.704547
0.709526
0.0277854
-0.0331364
-0.814194
0.819545
0.0394963
-0.0449612
-0.934317
0.939782
0.0512209
-0.0565596
-1.06319
1.06852
0.0622693
-0.066875
-1.19817
1.20278
0.0707707
-0.072795
-1.33588
1.3379
0.0731957
-0.0711871
-1.4724
1.4704
0.0671532
-0.0608968
-1.35599
1.34973
0.0546941
-0.04767
-1.05901
1.05199
0.0415419
-0.0350955
-0.840456
0.83401
0.0297311
-0.0243119
-0.674926
0.669507
0.019828
-0.0154311
-0.546282
0.541885
0.0118003
-0.00843074
-0.444897
0.441527
0.00552814
-0.00299478
-0.363778
0.361245
0.000912898
0.000726378
-0.298079
0.29644
-0.00171921
0.00212803
-0.230603
0.230194
-0.00137221
-0.0661414
0.0675136
-0.156335
0.155746
0.000588526
0.0017535
-0.00503386
-0.522493
0.525773
0.00907791
-0.013516
-0.614891
0.619329
0.0185143
-0.023608
-0.71461
0.719703
0.0293736
-0.0351292
-0.825049
0.830805
0.0412591
-0.0471882
-0.945644
0.951573
0.0537604
-0.0592699
-1.07445
1.07996
0.0654477
-0.0703411
-1.20733
1.21222
0.0746135
-0.0773237
-1.34028
1.34299
0.0781726
-0.0761361
-1.46809
1.46605
0.0716547
-0.0650039
-1.34294
1.33629
0.0582214
-0.0503278
-1.04418
1.03629
0.0434328
-0.0365216
-0.827025
0.820113
0.0304197
-0.024829
-0.663638
0.658047
0.0201743
-0.01559
-0.537429
0.532845
0.0120598
-0.00860024
-0.43764
0.43418
0.00580648
-0.00311978
-0.358125
0.355438
0.00115821
0.000519426
-0.293451
0.291773
-0.00169935
0.00214863
-0.227258
0.226809
-0.00142639
-0.0661547
0.0675811
-0.15938
0.158961
0.000418662
0.00252889
-0.00573227
-0.530346
0.533549
0.0104138
-0.0146644
-0.623986
0.628236
0.019968
-0.0251515
-0.72469
0.729873
0.031046
-0.036694
-0.836503
0.842151
0.0432475
-0.0491905
-0.957729
0.963672
0.0560884
-0.0623394
-1.08609
1.09234
0.0686047
-0.0742095
-1.21734
1.22294
0.0792695
-0.0823604
-1.34564
1.34874
0.083705
-0.0821893
-1.46388
1.46237
0.0774539
-0.0702186
-1.3287
1.32146
0.0623333
-0.0533591
-1.02755
1.01858
0.0455567
-0.0375927
-0.812235
0.804271
0.0309684
-0.0247957
-0.651719
0.645546
0.0198621
-0.0150969
-0.52808
0.523315
0.0114285
-0.00808425
-0.430488
0.427144
0.00525926
-0.00273349
-0.35246
0.349935
0.000815088
0.000821356
-0.28897
0.287333
-0.00188185
0.00228796
-0.224233
0.223827
-0.00150888
-0.0665783
0.0680872
-0.162591
0.162408
0.000183522
0.00345703
-0.00681499
-0.538276
0.541634
0.0113245
-0.0158401
-0.632952
0.637468
0.0211996
-0.0264049
-0.734965
0.74017
0.0326042
-0.0383458
-0.848023
0.853765
0.0450429
-0.0513879
-0.970281
0.976626
0.0585353
-0.0651212
-1.09868
1.10527
0.0720277
-0.0780789
-1.22867
1.23472
0.0838322
-0.0880527
-1.35219
1.35641
0.090153
-0.0888772
-1.46051
1.45924
0.0842435
-0.076124
-1.31324
1.30512
0.0672454
-0.0568896
-1.00843
0.99807