/*--------------------------------*- C++ -*----------------------------------*\
  =========                 |
  \\      /  F ield         | OpenFOAM: The Open Source CFD Toolbox
   \\    /   O peration     | Website:  https://openfoam.org
    \\  /    A nd           | Version:  6
     \\/     M anipulation  |
\*---------------------------------------------------------------------------*/
FoamFile
{
    version     2.0;
    format      ascii;
    class       surfaceScalarField;
    location    "76.2";
    object      phi;
}
// * * * * * * * * * * * * * * * * * * * * * * * * * * * * * * * * * * * * * //

dimensions      [0 3 -1 0 0 0 0];

internalField   nonuniform List<scalar> 
17370
(
-0.0900005
0.0898496
0.289162
-0.0714633
0.0537534
0.364485
-0.0381204
0.0276913
0.426597
-0.0196396
0.0146066
0.504285
-0.0107647
0.0082744
0.601892
-0.00627477
0.00489835
0.720434
-0.00373459
0.00289418
0.863747
-0.00215283
0.00159377
1.03601
-0.00107717
0.000664711
1.24292
-0.000257264
-0.000136611
1.49158
0.000515826
-0.000926348
1.4916
0.00132492
-0.00181508
1.24318
0.00234339
-0.00304924
1.03634
0.00386237
-0.00500559
0.86405
0.00637105
-0.00836359
0.72105
0.0108485
-0.0146839
0.60305
0.0197105
-0.0277546
0.507483
0.0381764
-0.0538007
0.431792
0.071502
-0.0898756
0.365149
0.0900161
0.198995
-0.128136
0.0882259
0.0399101
-0.364598
0.353378
-0.0746733
0.0858939
-0.446476
0.45432
-0.0843911
0.0765471
-0.52119
0.529901
-0.0684501
0.0597388
-0.612789
0.621568
-0.05155
0.0427704
-0.726894
0.734164
-0.0353094
0.0280397
-0.867475
0.872591
-0.0224385
0.0173226
-1.03847
1.04192
-0.0135126
0.0100626
-1.2446
1.24703
-0.00745157
0.00501816
-1.49262
1.4946
-0.00306969
0.00109011
-1.4925
1.49423
0.000586666
-0.00231174
-1.24398
1.24586
0.00421569
-0.00610101
-1.03751
1.04004
0.0084581
-0.0109869
-0.866101
0.869827
0.0143389
-0.018065
-0.724391
0.729934
0.023103
-0.0286455
-0.608698
0.616112
0.0358599
-0.0432737
-0.514897
0.523041
0.0520031
-0.0601466
-0.439856
0.447914
0.0688092
-0.0768675
-0.375296
0.376739
0.084665
-0.086109
-0.25733
0.222478
0.0748193
-0.0399666
-0.0685188
0.0586931
0.00982571
-0.0518104
0.0583932
-0.374127
0.367544
-0.0574769
0.0537242
-0.453595
0.457347
-0.0486336
0.0446806
-0.527947
0.5319
-0.04084
0.0372002
-0.621564
0.625204
-0.0330974
0.0290205
-0.735349
0.739426
-0.0244489
0.0202884
-0.874341
0.878502
-0.0159413
0.0122462
-1.04349
1.04719
-0.00850709
0.00533247
-1.24856
1.25174
-0.00200203
-0.00107276
-1.49666
1.49973
0.00412138
-0.00738846
-1.4972
1.50047
0.0104693
-0.0140752
-1.25007
1.25367
0.017631
-0.0218167
-1.04592
1.05011
0.025838
-0.0302743
-0.877761
0.882197
0.0342435
-0.0382404
-0.739899
0.743896
0.0417902
-0.0455372
-0.626773
0.63052
0.0494097
-0.0544232
-0.53481
0.539823
0.058092
-0.058903
-0.457473
0.458284
0.0521965
-0.0319921
-0.33575
0.315545
0.00988861
-0.0683443
0.0584557
-0.0529428
0.0489482
0.00399468
-0.0331564
0.0436989
-0.358113
0.34757
-0.0473949
0.0467657
-0.459287
0.459916
-0.0437081
0.0403535
-0.535804
0.539158
-0.036579
0.0332731
-0.62853
0.631836
-0.0298332
0.0267996
-0.74265
0.745684
-0.023539
0.0204307
-0.882021
0.88513
-0.0168986
0.0135173
-1.05078
1.05416
-0.00972175
0.00618088
-1.25517
1.25871
-0.00220922
-0.00158975
-1.50324
1.50704
0.00535608
-0.00923093
-1.50414
1.50801
0.0126403
-0.016253
-1.25742
1.26103
0.0194417
-0.0227485
-1.05392
1.05722
0.0256592
-0.0287237
-0.885688
0.888752
0.0315985
-0.0348814
-0.747154
0.750437
0.0380549
-0.0416942
-0.634304
0.637943
0.0449325
-0.0478578
-0.544132
0.547057
0.0483477
-0.0444561
-0.456568
0.452677
0.0336802
-0.0162252
-0.296176
0.278721
0.00407287
-0.052635
0.0485621
-0.0458714
0.0433774
0.00249408
-0.0227971
0.0331709
-0.336884
0.32651
-0.0389877
0.0400014
-0.459602
0.458589
-0.0388082
0.036519
-0.541879
0.544168
-0.0338488
0.0312501
-0.634888
0.637486
-0.028184
0.0252821
-0.748731
0.751632
-0.0220148
0.0190187
-0.888085
0.891081
-0.0157112
0.0126095
-1.05729
1.06039
-0.00908092
0.00566986
-1.26217
1.26558
-0.00170468
-0.0021806
-1.51093
1.51481
0.00602238
-0.0098586
-1.5119
1.51574
0.0130957
-0.0163845
-1.26446
1.26775
0.0192339
-0.0222459
-1.06033
1.06334
0.0249807
-0.0279862
-0.891804
0.89481
0.0306727
-0.0335237
-0.753641
0.756492
0.0359412
-0.0384288
-0.641006
0.643494
0.0405612
-0.0415484
-0.548858
0.549846
0.0403194
-0.0341881
-0.447391
0.44126
0.0234708
-0.0102434
-0.263495
0.250267
0.00259075
-0.0453974
0.0428067
-0.0413039
0.0395387
0.00176511
-0.0167327
0.025976
-0.316664
0.307421
-0.0325739
0.0347082
-0.456993
0.454858
-0.0342823
0.032608
-0.546147
0.547821
-0.0304231
0.0283242
-0.639793
0.641892
-0.0258888
0.0234878
-0.754279
0.75668
-0.0206257
0.0178334
-0.893979
0.896771
-0.0145934
0.0115206
-1.06344
1.06651
-0.00802616
0.00469677
-1.26891
1.27224
-0.000860798
-0.002874
-1.5186
1.52234
0.00655313
-0.0102239
-1.51947
1.52314
0.0133307
-0.0165195
-1.27099
1.27418
0.0192707
-0.0221328
-1.06637
1.06923
0.0245896
-0.0271137
-0.897621
0.900145
0.029236
-0.0313934
-0.758938
0.761095
0.0332604
-0.0352103
-0.645644
0.647594
0.0366573
-0.0368033
-0.550358
0.550504
0.0343385
-0.0272803
-0.434584
0.427526
0.0175739
-0.00741678
-0.238724
0.228567
0.0018832
-0.0406254
0.0387422
-0.0380188
0.0366922
0.00132655
-0.0127664
0.0206998
-0.298837
0.290904
-0.0274373
0.0303503
-0.452305
0.449392
-0.0305467
0.0294203
-0.549255
0.550382
-0.0274209
0.0254985
-0.64393
0.645852
-0.0232921
0.0211492
-0.758922
0.761065
-0.0186279
0.0161386
-0.899349
0.901839
-0.0131894
0.0103032
-1.06946
1.07234
-0.00693353
0.00368543
-1.2755
1.27874
6.81819e-05
-0.00370105
-1.52599
1.52962
0.00726417
-0.0108096
-1.52673
1.53028
0.0137776
-0.0167643
-1.27729
1.28028
0.0192483
-0.0217251
-1.07196
1.07444
0.0237943
-0.0258908
-0.902428
0.904525
0.0276816
-0.0295349
-0.763074
0.764927
0.0311639
-0.032878
-0.649408
0.651122
0.0336731
-0.033085
-0.550287
0.549699
0.0296991
-0.0223311
-0.420256
0.412888
0.0138023
-0.00575547
-0.219566
0.211519
0.00147021
-0.0370908
0.0356206
-0.0355341
0.0345133
0.00102081
-0.00996303
0.0166604
-0.283614
0.276917
-0.0231243
0.0264827
-0.446236
0.442878
-0.0272512
0.0265415
-0.551292
0.552002
-0.0247732
0.0229804
-0.647752
0.649545
-0.0209006
0.0188752
-0.763142
0.765167
-0.0164935
0.0141566
-0.904183
0.90652
-0.0114066
0.00871065
-1.07506
1.07776
-0.00554067
0.00244514
-1.28188
1.28497
0.00117474
-0.00469329
-1.53318
1.5367
0.00812558
-0.0114875
-1.53372
1.53708
0.0142369
-0.0169341
-1.28313
1.28583
0.019133
-0.0212989
-1.07682
1.07898
0.023117
-0.024974
-0.906496
0.908353
0.0265632
-0.0282048
-0.766668
0.768309
0.0296338
-0.0310078
-0.652693
0.654067
0.0313072
-0.0299824
-0.548756
0.547431
0.0259725
-0.0186783
-0.405531
0.398236
0.0112326
-0.00465611
-0.204276
0.1977
0.00119548
-0.034303
0.0331075
-0.0336181
0.0328248
0.000793268
-0.00788174
0.0135007
-0.270789
0.26517
-0.0194715
0.0230195
-0.439415
0.435867
-0.0242588
0.023793
-0.552623
0.553089
-0.0222879
0.0206019
-0.651333
0.653019
-0.018614
0.0166713
-0.767144
0.769086
-0.0143783
0.0121257
-0.908748
0.911
-0.00947558
0.00688716
-1.08033
1.08292
-0.00385636
0.000902781
-1.28795
1.2909
0.00254678
-0.00589218
-1.54011
1.54345
0.00913201
-0.0122661
-1.54031
1.54344
0.0147977
-0.0172529
-1.28841
1.29086
0.0192341
-0.0211683
-1.08112
1.08305
0.0227838
-0.0244321
-0.910108
0.911756
0.0258387
-0.0272875
-0.769848
0.771297
0.028519
-0.029511
-0.65524
0.656231
0.0294342
-0.0274365
-0.545771
0.543773
0.0230182
-0.0159822
-0.391065
0.384029
0.00943354
-0.00389755
-0.191693
0.186157
0.00100551
-0.0320183
0.0310128
-0.0321296
0.0315132
0.000616424
-0.00627257
0.0109694
-0.26004
0.255343
-0.0163415
0.0198817
-0.432323
0.428783
-0.0214369
0.0211929
-0.553481
0.553725
-0.0199159
0.0182857
-0.654724
0.656354
-0.0163499
0.0144529
-0.770995
0.772892
-0.0122145
0.0100166
-0.913149
0.915347
-0.00743125
0.00491003
-1.08539
1.08792
-0.00196663
-0.000884346
-1.29375
1.2966
0.00418523
-0.00735507
-1.54668
1.54985
0.0103958
-0.013311
-1.54644
1.54935
0.0156463
-0.0178879
-1.29321
1.29545
0.0196687
-0.0213815
-1.08498
1.08669
0.0228026
-0.0242535
-0.913302
0.914753
0.0254941
-0.026767
-0.772649
0.773921
0.0278532
-0.0284204
-0.657015
0.657582
0.0279684
-0.0254002
-0.5415
0.538932
0.0207261
-0.0140103
-0.377161
0.370446
0.00816607
-0.0033703
-0.181027
0.176232
0.000874133
-0.0300821
0.029208
-0.0309772
0.0305045
0.000472742
-0.00497413
0.00887447
-0.251072
0.247171
-0.0136036
0.0169874
-0.42533
0.421946
-0.0187185
0.01866
-0.55392
0.553979
-0.0175708
0.0159724
-0.658033
0.659631
-0.0140545
0.0121685
-0.774766
0.776652
-0.00994471
0.00776721
-0.917445
0.919622
-0.00521446
0.00273415
-1.09033
1.09281
0.000148766
-0.00292393
-1.29935
1.30213
0.00611038
-0.0091376
-1.55291
1.55593
0.012008
-0.0147255
-1.55214
1.55485
0.0168745
-0.0189061
-1.2976
1.29963
0.0204865
-0.0219784
-1.08843
1.08992
0.0232125
-0.0244804
-0.916104
0.917372
0.025571
-0.0266842
-0.775104
0.776217
0.0275686
-0.0277737
-0.657964
0.658169
0.0268941
-0.0238413
-0.536128
0.533075
0.0190062
-0.012598
-0.363899
0.357491
0.00728524
-0.0030106
-0.171727
0.167452
0.000786096
-0.0283861
0.0276
-0.0301007
0.0297499
0.000350829
-0.00388329
0.00708248
-0.243647
0.240447
-0.0111567
0.0142739
-0.418713
0.415596
-0.0160538
0.0161441
-0.554015
0.553925
-0.0151297
0.0135997
-0.661268
0.662798
-0.0116712
0.0097622
-0.778526
0.780435
-0.00751212
0.00531736
-0.921707
0.923902
-0.00275848
0.000287841
-1.09519
1.09766
0.00256437
-0.00528955
-1.30481
1.30754
0.00839047
-0.0113013
-1.55886
1.56177
0.0140221
-0.0165547
-1.55744
1.55997
0.0185235
-0.0203484
-1.30156
1.30338
0.0217312
-0.0230067
-1.09146
1.09274
0.0240618
-0.0251564
-0.918538
0.919633
0.0261032
-0.0270512
-0.777231
0.778179
0.0276738
-0.0275827
-0.658234
0.658143
0.0262548
-0.0227543
-0.529805
0.526305
0.0177955
-0.0116353
-0.351231
0.345071
0.0067015
-0.00277895
-0.163381
0.159459
0.000731518
-0.0268493
0.0261178
-0.0294613
0.0292196
0.000241707
-0.00292409
0.00548907
-0.237589
0.235024
-0.00890863
0.0116761
-0.412678
0.40991
-0.0133896
0.0135528
-0.55386
0.553697
-0.0125743
0.0110788
-0.664392
0.665888
-0.00911478
0.00715276
-0.782339
0.784301
-0.00484104
0.00259502
-0.926006
0.928252
1.02706e-05
-0.00251009
-1.10004
1.10254
0.00537384
-0.00808338
-1.31018
1.31289
0.011129
-0.0139446
-1.56459
1.56741
0.0165309
-0.0188916
-1.56237
1.56473
0.0206907
-0.0223176
-1.3051
1.30673
0.0235031
-0.0245559
-1.0941
1.09515
0.0254241
-0.0263377
-0.92062
0.921533
0.0271355
-0.0279216
-0.778997
0.779783
0.0282577
-0.0278609
-0.657906
0.657509
0.0260688
-0.0221341
-0.522611
0.518676
0.0170487
-0.0110491
-0.339021
0.333022
0.0063576
-0.00264982
-0.15567
0.151962
0.000703787
-0.0254081
0.0247043
-0.0290374
0.0288996
0.000137793
-0.00203319
0.00400168
-0.232779
0.230811
-0.00676145
0.00910881
-0.407382
0.405035
-0.0106479
0.0108054
-0.553611
0.553454
-0.00982939
0.00833073
-0.667482
0.668981
-0.00630431
0.00425932
-0.786261
0.788306
-0.00184851
-0.000485539
-0.930408
0.932743
0.00317883
-0.00574529
-1.10496
1.10752
0.00866055
-0.0113902
-1.31553
1.31826
0.0144182
-0.0171684
-1.57014
1.57289
0.0196408
-0.0218385
-1.56696
1.56916
0.023468
-0.0248927
-1.30825
1.30967
0.0258725
-0.0266942
-1.09633
1.09715
0.0273657
-0.0280821
-0.922327
0.923043
0.0287215
-0.0293624
-0.780408
0.781049
0.0293751
-0.0285688
-0.656918
0.656111
0.026317
-0.0219534
-0.514571
0.510208
0.0167126
-0.0107756
-0.32709
0.321153
0.00620708
-0.00260242
-0.148331
0.144726
0.000697361
-0.0240118
0.0233145
-0.0288222
0.0287895
3.26972e-05
-0.001164
0.0025498
-0.229155
0.227769
-0.00463449
0.00649625
-0.402964
0.401102
-0.0077552
0.00782335
-0.553432
0.553364
-0.00680074
0.00525909
-0.670615
0.672157
-0.00312758
0.000963136
-0.790351
0.792516
0.0015893
-0.00405029
-0.934988
0.937449
0.00687373
-0.00954532
-1.11001
1.11268
0.0125534
-0.0153371
-1.32092
1.32371
0.0183765
-0.0210802
-1.57556
1.57826
0.02345
-0.0254922
-1.57122
1.57327
0.0269576
-0.0281799
-1.31097
1.3122
0.0289529
-0.0295384
-1.09813
1.09872
0.0300068
-0.0305171
-0.923639
0.924149
0.0309842
-0.0313907
-0.781449
0.781855
0.0311113
-0.0298279
-0.655113
0.65383
0.02707
-0.0222369
-0.505671
0.500838
0.0167773
-0.0107886
-0.315233
0.309245
0.00622893
-0.00262739
-0.14115
0.137549
0.000709883
-0.0226195
0.0219096
-0.0288187
0.0288937
-7.50577e-05
-0.000273812
0.00106729
-0.226698
0.225905
-0.00244437
0.00375285
-0.399548
0.398239
-0.00462985
0.00452487
-0.553497
0.553602
-0.00339881
0.0017565
-0.673885
0.675527
0.000515302
-0.00283904
-0.794683
0.797007
0.00557846
-0.00821002
-0.939821
0.942453
0.0112141
-0.0140371
-1.11528
1.11811
0.0171856
-0.0200622
-1.32643
1.32931
0.02315
-0.0258337
-1.58089
1.58358
0.0281169
-0.0300075
-1.57516
1.57705
0.0313033
-0.0323178
-1.31328
1.31429
0.0328814
-0.0332267
-1.09949
1.09983
0.0334811
-0.0337699
-0.924528
0.924817
0.0340345
-0.034128
-0.781939
0.782032
0.0335291
-0.0316911
-0.652356
0.650518
0.0283718
-0.0230051
-0.495821
0.490454
0.0172392
-0.0110728
-0.303217
0.297051
0.00640991
-0.00271822
-0.13393
0.130238
0.000739454
-0.021194
0.0204545
-0.0290431
0.0292444
-0.000201316
0.000672908
-0.000513962
-0.225434
0.225275
-0.000107019
0.000785865
-0.397262
0.396583
-0.0011735
0.000805081
-0.553987
0.554356
0.000491563
-0.00229023
-0.67741
0.679209
0.00475466
-0.00728695
-0.799334
0.801866
0.0102712
-0.0131266
-0.944999
0.947855
0.0163674
-0.0193902
-1.12087
1.12389
0.0227295
-0.025742
-1.33214
1.33515
0.0289181
-0.031607
-1.5862
1.58889
0.0338144
-0.0355505
-1.57879
1.58053
0.0366706
-0.0374618
-1.31513
1.31593
0.0378023
-0.0378902
-1.10035
1.10044
0.0379141
-0.0379698
-0.924955
0.925011
0.0380421
-0.0377301
-0.781774
0.781462
0.036722
-0.0342416
-0.648499
0.646019
0.0302768
-0.0242771
-0.484874
0.478874
0.0180926
-0.011612
-0.290783
0.284302
0.00673584
-0.0028673
-0.126487
0.122619
0.000783589
-0.0197023
0.0189187
-0.0295259
0.0298749
-0.000348914
0.001728
-0.00220642
-0.225459
0.225937
0.00243489
-0.0024861
-0.39626
0.396311
0.00272611
-0.00346985
-0.555121
0.555865
0.00500715
-0.00703173
-0.681312
0.683336
0.00976683
-0.0125729
-0.804404
0.80721
0.0158676
-0.0190043
-0.950628
0.953765
0.022544
-0.0258214
-1.12686
1.13014
0.0294048
-0.0325907
-1.33813
1.34131
0.0358812
-0.0385843
-1.5915
1.59421
0.0407112
-0.0422806
-1.5821
1.58366
0.0432099
-0.0437763
-1.3165
1.31707
0.0438885
-0.0436952
-1.10069
1.1005
0.0434639
-0.0432683
-0.92487
0.924674
0.0431185
-0.0423124
-0.780776
0.77997
0.0408091
-0.037576
-0.643371
0.640138
0.032851
-0.0260822
-0.472617
0.465848
0.0193418
-0.0123975
-0.277652
0.270708
0.00719674
-0.00306852
-0.11865
0.114522
0.000840144
-0.0181163
0.0172762
-0.0302957
0.0308226
-0.000526915
0.00301916
-0.00427285
-0.22683
0.228084
0.00538155
-0.00623611
-0.39673
0.397585
0.00721036
-0.00843375
-0.557139
0.558363
0.0103194
-0.012643
-0.685732
0.688055
0.0157279
-0.0188785
-0.810017
0.813167
0.0225613
-0.0260513
-0.956828
0.960318
0.0299662
-0.0335612
-1.13338
1.13698
0.037448
-0.0408515
-1.34446
1.34787
0.0442921
-0.0470261
-1.59684
1.59957
0.0490688
-0.0504512
-1.58504
1.58642
0.0511586
-0.0514824
-1.31735
1.31768
0.0513433
-0.0508467
-1.10044
1.09995
0.0503454
-0.0498832
-0.924221
0.923758
0.0493836
-0.0481103
-0.778854
0.777581
0.045942
-0.041799
-0.636731
0.632588
0.0361575
-0.0284418
-0.458761
0.451045
0.0209823
-0.0134131
-0.263522
0.255953
0.00777688
-0.00331256
-0.110257
0.105793
0.000905842
-0.0164128
0.0155069
-0.0314271
0.032179
-0.000751913
0.00454043
-0.00668252
-0.229766
0.231908
0.00888218
-0.0106536
-0.398898
0.40067
0.0124692
-0.0142924
-0.560286
0.562109
0.0166663
-0.0193878
-0.690823
0.693545
0.0229333
-0.0265165
-0.816319
0.819902
0.0306812
-0.0346043
-0.963747
0.96767
0.0389733
-0.0429482
-1.14054
1.14452
0.0471936
-0.0508485
-1.35124
1.3549
0.0544527
-0.0572058
-1.60223
1.60498
0.059136
-0.0602915
-1.58759
1.58875
0.0607409
-0.0607916
-1.31761
1.31766
0.0603783
-0.0595485
-1.09957
1.09874
0.0587517
-0.0580056
-0.922957
0.92221
0.0570753
-0.0552452
-0.776038
0.774208
0.0522656
-0.0470042
-0.628256
0.622994
0.0402404
-0.0313548
-0.442932
0.434046
0.022988
-0.0146253
-0.248064
0.239701
0.00844846
-0.0035841
-0.10116
0.0962955
0.000975549
-0.0145755
0.0135999
-0.0330042
0.0340513
-0.00104715
0.00645898
-0.00967659
-0.234506
0.237723
0.0131328
-0.0159744
-0.403029
0.405871
0.018774
-0.0213285
-0.564844
0.567399
0.0243416
-0.0275981
-0.696802
0.700059
0.0317445
-0.0358725
-0.823496
0.827624
0.0406295
-0.0450763
-0.971545
0.975992
0.0499855
-0.0544011
-1.14847
1.15289
0.0590445
-0.0629579
-1.35851
1.36242
0.0667032
-0.0694323
-1.60762
1.61035
0.0711958
-0.0720668
-1.58966
1.59053
0.0721947
-0.071914
-1.31715
1.31687
0.0712091
-0.0700123
-1.09797
1.09678
0.0688887
-0.0678442
-0.921051
0.920006
0.0663538
-0.0638599
-0.772142
0.769648
0.0598948
-0.0532486
-0.617523
0.610876
0.045099
-0.0347725
-0.424669
0.414343
0.0252911
-0.0159693
-0.230945
0.221623
0.00916385
-0.00385883
-0.0912408
0.0859358
0.00104156
-0.0126
0.0115584
-0.0351581
0.0366123
-0.00145424
0.00896028
-0.0135461
-0.241382
0.245968
0.0184977
-0.0225759
-0.409497
0.413575
0.0265153
-0.0299502
-0.571146
0.574581
0.0337801
-0.0377289
-0.703956
0.707905
0.0426417
-0.0474516
-0.831764
0.836573
0.0529298
-0.0579976
-0.98041
0.985477
0.0635261
-0.0684233
-1.15729
1.16218
0.0734736
-0.0776215
-1.36626
1.37041
0.0814472
-0.0840681
-1.61291
1.61554
0.0855696
-0.0860584
-1.59109
1.59158
0.0858041
-0.0851101
-1.3159
1.31521
0.0840555
-0.0824789
-1.09559
1.09401
0.0810382
-0.0795403
-0.918453
0.916955
0.0775461
-0.0741303
-0.76688
0.763464
0.0689142
-0.0605268
-0.603957
0.59557
0.0506581
-0.0385731
-0.403422
0.391337
0.0277615
-0.0173368
-0.211844
0.201419
0.00984943
-0.00410168
-0.0804367
0.074689
0.00109341
-0.0104983
0.00940486
-0.0380869
0.0401233
-0.00203642
0.0124534
-0.0187613
-0.250923
0.257231
0.0255096
-0.0310293
-0.41879
0.42431
0.0363147
-0.0408292
-0.579579
0.584093
0.0456896
-0.0505422
-0.712621
0.717473
0.0564447
-0.0620954
-0.841392
0.847043
0.0684221
-0.0741832
-0.990528
0.996289
0.0803604
-0.0857171
-1.16703
1.17239
0.0910965
-0.0953635
-1.37442
1.37868
0.0991034
-0.101442
-1.6179
1.62024
0.10252
-0.102487
-1.59168
1.59164
0.101775
-0.100563
-1.31373
1.31252
0.0991175
-0.0971468
-1.09236
1.09039
0.0953524
-0.093292
-0.914802
0.912741
0.0907298
-0.0861298
-0.759712
0.755112
0.0792977
-0.0687009
-0.586823
0.576226
0.0567041
-0.0425113
-0.378562
0.364369
0.0301734
-0.0185597
-0.190506
0.178892
0.0103991
-0.00426561
-0.0687713
0.0626378
0.00111795
-0.00830449
0.00718655
-0.0421192
0.0450568
-0.00293762
0.0175168
-0.0260914
-0.263849
0.272424
0.0350543
-0.042304
-0.431585
0.438834
0.0492034
-0.055022
-0.590643
0.596462
0.0612345
-0.0672928
-0.723243
0.729302
0.0744093
-0.0810235
-0.852673
0.859287
0.0882579
-0.0946966
-1.00202
1.00845
0.101431
-0.107102
-1.17762
1.18329
0.112594
-0.116748
-1.38268
1.38683
0.120128
-0.121934
-1.62217
1.62398
0.12236
-0.121608
-1.59111
1.59035
0.120277
-0.11845
-1.31044
1.30862
0.116573
-0.114182
-1.08821
1.08582
0.11198
-0.109302
-0.909877
0.907199
0.105955
-0.0997531
-0.750029
0.743827
0.0908129
-0.0774281
-0.565144
0.551759
0.0628351
-0.04619
-0.349429
0.332784
0.0321936
-0.0194108
-0.166818
0.154035
0.01068
-0.0042958
-0.0563978
0.0500136
0.00110076
-0.00607901
0.00497825
-0.0478333
0.0522896
-0.00445627
0.0253423
-0.0369881
-0.281337
0.292983
0.0488235
-0.0583959
-0.448923
0.458495
0.0673427
-0.0747368
-0.604929
0.612324
0.0825603
-0.090127
-0.736242
0.743809
0.0984988
-0.106005
-0.865811
0.873318
0.113978
-0.120862
-1.01475
1.02164
0.127819
-0.133453
-1.18865
1.19429
0.138644
-0.142302
-1.39051
1.39417
0.144907
-0.145821
-1.62519
1.62611
0.145295
-0.14357
-1.58896
1.58724
0.141449
-0.138899
-1.30582
1.30327
0.136501
-0.133661
-1.08301
1.08017
0.13094
-0.127636
-0.903565
0.900261
0.123093
-0.114672
-0.736912
0.728492
0.102942
-0.0860718
-0.537698
0.520828
0.0683997
-0.0490456
-0.315434
0.296079
0.033396
-0.019631
-0.140936
0.127171
0.010553
-0.00413938
-0.0436366
0.037223
0.00102794
-0.00390795
0.00288001
-0.0563195
0.0639078
-0.00758837
0.0389811
-0.0551415
-0.305552
0.321713
0.0710374
-0.0838255
-0.472457
0.485245
0.0949455
-0.103774
-0.62291
0.631738
0.113171
-0.122077
-0.751936
0.760842
0.131458
-0.139418
-0.880517
0.888477
0.147508
-0.154208
-1.0281
1.0348
0.160708
-0.165677
-1.1993
1.20427
0.169923
-0.172493
-1.39704
1.39961
0.17375
-0.173287
-1.62617
1.6257
0.171416
-0.168432
-1.58472
1.58174
0.165318
-0.161889
-1.29963
1.2962
0.158882
-0.155541
-1.07661
1.07327
0.152267
-0.147987
-0.895535
0.891255
0.141699
-0.130146
-0.718976
0.707423
0.114668
-0.0935125
-0.50295
0.481795
0.0724918
-0.0504613
-0.276263
0.254233
0.0334118
-0.01906
-0.113434
0.0990821
0.00994907
-0.00377161
-0.0309909
0.0248134
0.000885336
-0.00189565
0.00101032
-0.070955
0.0751912
-0.00423625
0.0297183
-0.0438544
-0.340476
0.354612
0.0580731
-0.0698764
-0.503608
0.515412
0.0804834
-0.0904415
-0.644299
0.654257
0.101649
-0.112087
-0.76915
0.779588
0.12374
-0.13409
-0.895393
0.905743
0.145146
-0.155028
-1.04059
1.05047
0.16546
-0.174504
-1.20818
1.21722
0.183659
-0.191134
-1.40105
1.40852
0.198064
-0.202918
-1.62411
1.62896
0.205699
-0.207032
-1.57775
1.57908
0.207163
-0.206783
-1.29154
1.29116
0.206532
-0.205648
-1.06867
1.06779
0.204047
-0.199504
-0.88473
0.880187
0.19025
-0.172186
-0.694169
0.676105
0.147947
-0.116402
-0.459517
0.427972
0.086972
-0.0579364
-0.232234
0.203198
0.0368905
-0.0202088
-0.0854494
0.0687677
0.0101008
-0.00360982
-0.0191019
0.012611
0.000765971
-0.000112319
-0.000653653
-0.0827081
0.0807618
0.00194636
0.00792366
-0.0170816
-0.371485
0.380643
0.0278936
-0.0364556
-0.531874
0.540436
0.0451169
-0.0533897
-0.666996
0.675269
0.063595
-0.0732532
-0.789476
0.799134
0.0836536
-0.0931519
-0.915448
0.924946
0.103283
-0.11199
-1.06006
1.06876
0.121368
-0.129126
-1.22606
1.23381
0.136946
-0.14307
-1.41568
1.4218
0.148307
-0.15173
-1.6331
1.63652
0.153226
-0.153359
-1.57994
1.58008
0.152262
-0.150595
-1.2899
1.28823
0.149133
-0.147434
-1.06438
1.06268
0.144962
-0.139101
-0.871116
0.865255
0.12894
-0.112016
-0.654063
0.637139
0.0920486
-0.0685936
-0.394592
0.371137
0.0488336
-0.0312923
-0.174851
0.15731
0.0193984
-0.0104401
-0.0531798
0.0442215
0.00513329
-0.00180804
-0.00631279
0.00298754
0.000362001
0.00164803
-0.00201003
-0.0841797
0.0812388
0.0029409
-0.00115092
-0.00408999
-0.392559
0.3978
0.0112729
-0.0175564
-0.552906
0.55919
0.0239595
-0.0310929
-0.686183
0.693316
0.0399521
-0.0483204
-0.807807
0.816175
0.0575442
-0.0658065
-0.933591
0.941854
0.074371
-0.0821127
-1.07728
1.08503
0.0902389
-0.0970496
-1.24112
1.24793
0.103457
-0.108288
-1.42726
1.43209
0.112411
-0.114627
-1.63931
1.64152
0.114959
-0.113986
-1.57967
1.5787
0.112049
-0.109656
-1.28606
1.28366
0.107091
-0.104378
-1.05823
1.05552
0.101084
-0.0949706
-0.855443
0.849329
0.0855649
-0.0712595
-0.617367
0.603061
0.0561709
-0.0401143
-0.346227
0.330171
0.0280519
-0.0181365
-0.139626
0.12971
0.0115673
-0.00657056
-0.0352992
0.0303025
0.00343591
-0.00131753
0.00059743
-0.00271581
0.000302277
0.00260115
-0.00290342
-0.0829013
0.0800335
0.00286776
-0.00510569
0.00250773
-0.406566
0.409164
0.00214467
-0.00688303
-0.568557
0.573295
0.0122515
-0.0182147
-0.701932
0.707895
0.0257994
-0.0329584
-0.823824
0.830983
0.0408079
-0.0478638
-0.94951
0.956566
0.0555625
-0.0620977
-1.09229
1.09883
0.0691256
-0.0745388
-1.25429
1.2597
0.0799166
-0.0838279
-1.43664
1.44055
0.0867635
-0.0877113
-1.64327
1.64422
0.087233
-0.0855023
-1.57714
1.57541
0.0829057
-0.0794256
-1.28073
1.27725
0.0761392
-0.0724772
-1.05049
1.04683
0.0683031
-0.0625119
-0.839035
0.833244
0.0542818
-0.0433772
-0.586295
0.575391
0.033026
-0.0232953
-0.313229
0.303499
0.0166062
-0.0113482
-0.119161
0.113903
0.00777694
-0.00487246
-0.0247386
0.0218341
0.00280137
-0.0012027
0.00530567
-0.00690434
0.000320397
0.00341243
-0.00373283
-0.0813012
0.0787379
0.00256321
-0.00649198
0.0055554
-0.415912
0.416848
-0.00208464
-0.00142788
-0.58105
0.584563
0.00568547
-0.0110518
-0.715126
0.720492
0.0174006
-0.0236563
-0.837372
0.843627
0.0304134
-0.0365013
-0.96311
0.969198
0.0430541
-0.048789
-1.10518
1.11091
0.0546552
-0.0594643
-1.26491
1.26972
0.0638952
-0.0669579
-1.44401
1.44707
0.0689636
-0.06906
-1.6449
1.645
0.0677729
-0.0650517
-1.57287
1.57014
0.0617838
-0.0577006
-1.2734
1.26932
0.0536761
-0.0489691
-1.04135
1.03664
0.0442938
-0.0387052
-0.823267
0.817679
0.0320224
-0.0240232
-0.56226
0.554261
0.0174527
-0.01216
-0.292482
0.28719
0.00894358
-0.00668006
-0.107767
0.105504
0.0050778
-0.00355547
-0.018293
0.0167707
0.00226816
-0.00107958
0.00888904
-0.0100776
0.000326634
0.00419788
-0.00452451
-0.0797589
0.0775404
0.00221857
-0.00658365
0.00621658
-0.422244
0.422611
-0.00417329
0.00134582
-0.590639
0.593467
0.00276381
-0.00733145
-0.72624
0.730808
0.0127403
-0.0181196
-0.849027
0.854406
0.0240603
-0.0294396
-0.974878
0.980257
0.0353468
-0.0402867
-1.11632
1.12126
0.0454265
-0.0495904
-1.27416
1.27832
0.0532676
-0.0556439
-1.44975
1.45213
0.0568688
-0.056629
-1.64486
1.64462
0.0546202
-0.0513552
-1.56679
1.56353
0.047465
-0.0427077
-1.26472
1.25996
0.0383035
-0.032828
-1.0307
1.02522
0.0276724
-0.0222312
-0.808363
0.802921
0.0166236
-0.0107355
-0.544337
0.538449
0.00674944
-0.00428753
-0.280288
0.277826
0.00338925
-0.00296462
-0.10202
0.101595
0.00261708
-0.002158
-0.0146796
0.0142205
0.00156248
-0.000843949
0.0114921
-0.0122106
0.000288302
0.00491884
-0.00520714
-0.0785124
0.0767522
0.00176012
-0.00585326
0.00588747
-0.426828
0.426793
-0.00424783
0.00215945
-0.598928
0.601016
0.00164053
-0.00574656
-0.735789
0.739895
0.0108064
-0.0153844
-0.859354
0.863932
0.0205352
-0.0252346
-0.985551
0.990251
0.0307317
-0.0351078
-1.12617
1.13055
0.0395378
-0.043293
-1.28223
1.28598
0.0468355
-0.0487302
-1.4544
1.4563
0.0495685
-0.0487456
-1.64383
1.64301
0.0465597
-0.0425507
-1.55984
1.55583
0.0383947
-0.0333174
-1.25474
1.24966
0.0283277
-0.0225833
-1.01893
1.01318
0.017038
-0.0113598
-0.79404
0.788362
0.00667343
-0.00208987
-0.530484
0.5259
-0.000419714
0.00114493
-0.273311
0.272585
-0.000908134
0.000302623
-0.100056
0.100661
0.00021237
-0.000608726
-0.0133526
0.013749
0.000673664
-0.000476756
0.0129964
-0.0131933
0.0002028
0.00548171
-0.00568451
-0.077742
0.0763435
0.0013985
-0.00486345
0.00509396
-0.430321
0.430091
-0.00365033
0.00170888
-0.606032
0.607974
0.00184272
-0.00549874
-0.744262
0.747918
0.00977102
-0.0141122
-0.868446
0.872787
0.0187937
-0.0235484
-0.994698
0.999452
0.0281833
-0.0322422
-1.13497
1.13903
0.0366348
-0.0399644
-1.28953
1.29286
0.0427682
-0.044793
-1.45799
1.46001
0.0454166
-0.04444
-1.6421
1.64113
0.0419044
-0.0378936
-1.55183
1.54782
0.0335044
-0.0281139
-1.24398
1.23859
0.0229141
-0.0168544
-1.00663
1.00057
0.0111294
-0.00553144
-0.780127
0.774529
0.000996083
0.00271105
-0.5191
0.515393
-0.00446566
0.00462571
-0.269416
0.269256
-0.00388752
0.00271845
-0.100229
0.101398
-0.00170621
0.000745388
-0.0137843
0.0147451
-0.000182591
-8.50593e-05
0.013348
-0.0130804
9.01132e-05
0.00580014
-0.00589026
-0.0775002
0.076317
0.0011832
-0.0036159
0.00364287
-0.433327
0.4333
-0.00245084
0.000575353
-0.61244
0.614316
0.0026896
-0.0061831
-0.75204
0.755534
0.0102166
-0.0140886
-0.876917
0.880789
0.0188166
-0.0226821
-1.00356
1.00743
0.0271849
-0.0309594
-1.1432
1.14697
0.0350889
-0.0384488
-1.29609
1.29945
0.0413362
-0.0429014
-1.46169
1.46326
0.0435445
-0.0425932
-1.63994
1.63898
0.0402857
-0.0361053
-1.54353
1.53935
0.0317081
-0.0262343
-1.23309
1.22762
0.0209838
-0.014772
-0.993808
0.987596
0.00908394
-0.00324227
-0.766699
0.760857
-0.00105992
0.00446534
-0.509224
0.505819
-0.00616847
0.00619236
-0.266753
0.266729
-0.0054048
0.00410942
-0.101402
0.102698
-0.00292332
0.00167515
-0.0153339
0.0165821
-0.000819324
0.000228086
0.012763
-0.0121718
-1.27253e-05
0.00586308
-0.00585036
-0.0775437
0.0766931
0.000850533
-0.00247468
0.00203874
-0.436334
0.43677
-0.00104127
-0.000887376
-0.618034
0.619962
0.0037959
-0.00712091
-0.759196
0.762521
0.0109375
-0.0148939
-0.884525
0.888482
0.0189317
-0.0228994
-1.01146
1.01543
0.0272803
-0.0307508
-1.15113
1.1546
0.0348611
-0.0380509
-1.30254
1.30573
0.0408217
-0.0427355
-1.46515
1.46707
0.043617
-0.0426641
-1.63796
1.637
0.0402575
-0.0364406
-1.5352
1.53139
0.0322753
-0.0268393
-1.22186
1.21643
0.0215523
-0.0156178
-0.980974
0.975039
0.00962091
-0.00386287
-0.753341
0.747583
-0.000521823
0.00390518
-0.50004
0.496657
-0.00561022
0.00613218
-0.26433
0.263808
-0.00568524
0.00468352
-0.102858
0.103859
-0.00354372
0.0022491
-0.0173819
0.0186765
-0.00125502
0.000471113
0.0115816
-0.0107976
-9.6592e-05
0.00572184
-0.00562525
-0.0780038
0.0773276
0.000676239
-0.0014968
0.00109943
-0.43951
0.439907
0.000406455
-0.00217445
-0.62365
0.625418
0.0052342
-0.00840458
-0.765774
0.768944
0.0120409
-0.0155556
-0.892102
0.895617
0.0196752
-0.023274
-1.01936
1.02296
0.0275377
-0.0313877
-1.15849
1.16234
0.0350414
-0.0384669
-1.30891
1.31234
0.0415415
-0.0434025
-1.46879
1.47066
0.0444661
-0.0440743
-1.63617
1.63578
0.0418797
-0.0384305
-1.52732
1.52387
0.0342673
-0.0290974
-1.21093
1.20576
0.0240875
-0.0181775
-0.968466
0.962556
0.0124662
-0.00663813
-0.740325
0.734497
0.00202915
0.00171319
-0.490731
0.486989
-0.0037587
0.00469667
-0.261356
0.260418
-0.00482588
0.00425428
-0.103754
0.104326
-0.00340711
0.00231546
-0.0194365
0.0205281
-0.00138927
0.000585138
0.0100843
-0.0092802
-0.000149803
0.00542844
-0.00527863
-0.0787665
0.0782702
0.000496306
-0.000411492
-0.000169131
-0.442824
0.443405
0.00153303
-0.00360231
-0.628836
0.630905
0.00658257
-0.00958218
-0.772056
0.775055
0.0132917
-0.0166338
-0.899105
0.902447
0.0205598
-0.024245
-1.02701
1.0307
0.0283688
-0.0321317
-1.166
1.16976
0.0359447
-0.0393292
-1.31563
1.31901
0.042497
-0.0450137
-1.47274
1.47526
0.0463794
-0.0461221
-1.63524
1.63498
0.0444331
-0.0411224
-1.52022
1.51691
0.0373749
-0.0326393
-1.20047
1.19573
0.0276143
-0.021888
-0.956228
0.950502
0.0163247
-0.0103771
-0.727534
0.721586
0.0056209
-0.00142661
-0.4813
0.477106
-0.00103441
0.00259084
-0.257493
0.255937
-0.00318422
0.00313039
-0.103744
0.103798
-0.00272491
0.00198548
-0.0210353
0.0217747
-0.00126388
0.000572205
0.00861731
-0.00792563
-0.000156176
0.00506002
-0.00490384
-0.0797748
0.0794065
0.000368299