/*--------------------------------*- C++ -*----------------------------------*\
  =========                 |
  \\      /  F ield         | OpenFOAM: The Open Source CFD Toolbox
   \\    /   O peration     | Website:  https://openfoam.org
    \\  /    A nd           | Version:  6
     \\/     M anipulation  |
\*---------------------------------------------------------------------------*/
FoamFile
{
    version     2.0;
    format      ascii;
    class       volVectorField;
    location    "76.3";
    object      U;
}
// * * * * * * * * * * * * * * * * * * * * * * * * * * * * * * * * * * * * * //

dimensions      [0 1 -1 0 0 0 0];

internalField   nonuniform List<vector> 
8800
(
(0.987184 -0.0766658 0)
(1.00189 -0.0551911 0)
(0.999723 -0.0285493 0)
(1.00003 -0.0151444 0)
(1.0001 -0.00854551 0)
(1.00012 -0.00504732 0)
(1.00007 -0.00300187 0)
(1.00003 -0.00170151 0)
(0.999996 -0.000795277 0)
(1.00006 -7.9392e-05 0)
(0.999968 0.000651679 0)
(0.999983 0.00142029 0)
(1.00004 0.00243738 0)
(1.00006 0.00400341 0)
(1.00004 0.00663503 0)
(1.00003 0.0113735 0)
(0.999921 0.0208162 0)
(0.99916 0.0386715 0)
(1.0071 0.0724576 0)
(0.771213 0.0366614 0)
(0.36307 -0.0160173 0)
(1.04331 -0.0768163 0)
(1.08459 -0.0704476 0)
(1.04519 -0.0535434 0)
(1.02329 -0.0388955 0)
(1.01202 -0.0262181 0)
(1.00643 -0.0168569 0)
(1.00359 -0.010325 0)
(1.00215 -0.00566411 0)
(1.00144 -0.0020042 0)
(1.0013 0.00131959 0)
(1.00166 0.00470522 0)
(1.00265 0.00863866 0)
(1.00467 0.0139654 0)
(1.0086 0.0216703 0)
(1.01655 0.0326386 0)
(1.03248 0.0465512 0)
(1.06265 0.0616675 0)
(1.09187 0.076102 0)
(0.838669 0.0565625 0)
(0.216848 -0.0024297 0)
(1.0759 -0.0501353 0)
(1.09988 -0.0483097 0)
(1.06464 -0.040462 0)
(1.04003 -0.033603 0)
(1.02392 -0.0260799 0)
(1.01412 -0.0184948 0)
(1.00856 -0.011672 0)
(1.00558 -0.00580009 0)
(1.00432 -0.000378332 0)
(1.00465 0.0048713 0)
(1.00658 0.0102648 0)
(1.01061 0.016348 0)
(1.01794 0.023363 0)
(1.03052 0.030828 0)
(1.05061 0.0378569 0)
(1.08034 0.044539 0)
(1.10625 0.0513522 0)
(0.942515 0.0416209 0)
(0.21614 0.00246208 0)
(0.175178 -0.000816341 0)
(1.0177 -0.0354827 0)
(1.1052 -0.0413765 0)
(1.07826 -0.0360591 0)
(1.05347 -0.0301222 0)
(1.03621 -0.0245433 0)
(1.024 -0.0188112 0)
(1.01588 -0.0127265 0)
(1.01101 -0.00653268 0)
(1.0088 -0.00019211 0)
(1.00936 0.00606719 0)
(1.01262 0.0120695 0)
(1.01887 0.0178943 0)
(1.02876 0.023456 0)
(1.04318 0.0287547 0)
(1.06371 0.0342354 0)
(1.09354 0.0402172 0)
(1.0934 0.0419755 0)
(0.827108 0.0229202 0)
(0.173984 0.000853656 0)
(0.153982 -0.000610156 0)
(0.956206 -0.0254542 0)
(1.10347 -0.0351207 0)
(1.08768 -0.0326408 0)
(1.06173 -0.0279838 0)
(1.04412 -0.0229548 0)
(1.03165 -0.0177021 0)
(1.02279 -0.0121636 0)
(1.01697 -0.00621978 0)
(1.0141 0.000256535 0)
(1.01476 0.00672235 0)
(1.01874 0.0126093 0)
(1.02579 0.0178903 0)
(1.03608 0.0227925 0)
(1.05063 0.0275492 0)
(1.07187 0.0320762 0)
(1.10005 0.0360059 0)
(1.06804 0.0340563 0)
(0.73945 0.0143246 0)
(0.152181 0.000652528 0)
(0.139618 -0.000466277 0)
(0.899333 -0.0190689 0)
(1.09581 -0.0300642 0)
(1.09576 -0.029167 0)
(1.06926 -0.0254287 0)
(1.05083 -0.0212816 0)
(1.0379 -0.0165007 0)
(1.02878 -0.0112047 0)
(1.02265 -0.00545017 0)
(1.0195 0.000886456 0)
(1.02009 0.00720275 0)
(1.02418 0.0128405 0)
(1.03136 0.0177891 0)
(1.04186 0.0222355 0)
(1.05697 0.0261985 0)
(1.07916 0.0296553 0)
(1.10224 0.0322735 0)
(1.03589 0.0281574 0)
(0.672812 0.0102272 0)
(0.137073 0.000515141 0)
(0.12909 -0.000360732 0)
(0.849789 -0.014702 0)
(1.08345 -0.0259225 0)
(1.10145 -0.0262042 0)
(1.07613 -0.0229088 0)
(1.05716 -0.0192544 0)
(1.04377 -0.0149974 0)
(1.0343 -0.010061 0)
(1.02792 -0.00451433 0)
(1.02457 0.00164724 0)
(1.02501 0.00775393 0)
(1.02906 0.0131139 0)
(1.03634 0.0176479 0)
(1.04712 0.021486 0)
(1.06262 0.0247831 0)
(1.08526 0.0277175 0)
(1.1013 0.029461 0)
(1.00089 0.023658 0)
(0.620876 0.00786912 0)
(0.125639 0.000418214 0)
(0.121064 -0.000279867 0)
(0.807715 -0.0115386 0)
(1.06822 -0.0223009 0)
(1.10501 -0.0235505 0)
(1.0824 -0.0206647 0)
(1.06302 -0.0172215 0)
(1.04935 -0.0132685 0)
(1.0396 -0.0086664 0)
(1.03293 -0.00338749 0)
(1.02932 0.00255811 0)
(1.02958 0.00841784 0)
(1.03357 0.0134309 0)
(1.04091 0.0174883 0)
(1.05178 0.0208154 0)
(1.0675 0.0237014 0)
(1.09046 0.0263338 0)
(1.09747 0.0271774 0)
(0.965498 0.0201377 0)
(0.579084 0.0063421 0)
(0.116512 0.000348224 0)
(0.114855 -0.000216419 0)
(0.772337 -0.00916951 0)
(1.05153 -0.0191085 0)
(1.10743 -0.0210899 0)
(1.0883 -0.0185704 0)
(1.06853 -0.0152684 0)
(1.05462 -0.0114739 0)
(1.04466 -0.00707732 0)
(1.03775 -0.00203504 0)
(1.03385 0.00366068 0)
(1.03386 0.00922268 0)
(1.03772 0.0138613 0)
(1.045 0.0174974 0)
(1.05585 0.0204323 0)
(1.07177 0.0229919 0)
(1.09438 0.0252747 0)
(1.09077 0.0252982 0)
(0.931 0.0174316 0)
(0.544413 0.00530394 0)
(0.108963 0.000298157 0)
(0.110027 -0.000165265 0)
(0.742717 -0.00732749 0)
(1.03443 -0.0162739 0)
(1.10892 -0.0187651 0)
(1.09391 -0.0165466 0)
(1.07386 -0.0133313 0)
(1.05969 -0.00962038 0)
(1.04953 -0.00533962 0)
(1.04238 -0.000465459 0)
(1.03818 0.00499312 0)
(1.03789 0.0102417 0)
(1.04151 0.0145178 0)
(1.04864 0.0177769 0)
(1.05944 0.0203637 0)
(1.07554 0.0226326 0)
(1.09699 0.0245325 0)
(1.0816 0.0237758 0)
(0.89795 0.0153901 0)
(0.514804 0.00458551 0)
(0.10251 0.00026332 0)
(0.1063 -0.000122627 0)
(0.718039 -0.00583829 0)
(1.01777 -0.0137252 0)
(1.1096 -0.0165125 0)
(1.09944 -0.0145598 0)
(1.07913 -0.01135 0)
(1.06466 -0.00766414 0)
(1.05427 -0.00343861 0)
(1.04686 0.00132893 0)
(1.04231 0.00659381 0)
(1.04163 0.0115557 0)
(1.04493 0.0154948 0)
(1.05186 0.0183938 0)
(1.06259 0.0206403 0)
(1.07886 0.0226406 0)
(1.09825 0.024125 0)
(1.07032 0.0226147 0)
(0.866446 0.0138982 0)
(0.488792 0.00409717 0)
(0.0968067 0.000240736 0)
(0.103486 -8.55339e-05 0)
(0.697665 -0.00458553 0)
(1.00216 -0.0113944 0)
(1.10962 -0.0142956 0)
(1.10483 -0.012525 0)
(1.08441 -0.00927294 0)
(1.06962 -0.00555015 0)
(1.05896 -0.00131848 0)
(1.05122 0.00339619 0)
(1.04626 0.00851573 0)
(1.0451 0.0132229 0)
(1.04802 0.0168422 0)
(1.05471 0.0193877 0)
(1.06533 0.0213033 0)
(1.08173 0.0230396 0)
(1.09846 0.0241418 0)
(1.05719 0.0218246 0)
(0.836307 0.0128683 0)
(0.465277 0.00378349 0)
(0.0915938 0.000227959 0)
(0.101466 -5.12968e-05 0)
(0.681129 -0.00348187 0)
(0.988048 -0.00921069 0)
(1.10922 -0.0120257 0)
(1.11006 -0.010355 0)
(1.08979 -0.00703111 0)
(1.07464 -0.00321133 0)
(1.06366 0.00109148 0)
(1.05553 0.00581841 0)
(1.05005 0.0108407 0)
(1.04832 0.0153193 0)
(1.05078 0.0186347 0)
(1.05717 0.0208261 0)
(1.06766 0.0224025 0)
(1.08409 0.0238603 0)
(1.09766 0.0245484 0)
(1.04233 0.0214193 0)
(0.807175 0.01223 0)
(0.443382 0.00360724 0)
(0.0866628 0.000223037 0)
(0.100182 -1.76697e-05 0)
(0.668133 -0.00245816 0)
(0.97581 -0.00709982 0)
(1.10871 -0.00964683 0)
(1.11527 -0.00799558 0)
(1.09534 -0.00456037 0)
(1.07982 -0.000579504 0)
(1.06844 0.00386509 0)
(1.05983 0.00866965 0)
(1.05373 0.013656 0)
(1.05131 0.0179434 0)
(1.05321 0.020956 0)
(1.05925 0.0227795 0)
(1.06957 0.0240119 0)
(1.08598 0.0251798 0)
(1.09565 0.0253799 0)
(1.02579 0.0213918 0)
(0.778597 0.0119287 0)
(0.422397 0.00354276 0)
(0.0818489 0.000224461 0)
(0.0996194 1.83102e-05 0)
(0.658532 -0.00146099 0)
(0.965765 -0.0049895 0)
(1.10842 -0.00709423 0)
(1.12059 -0.005366 0)
(1.10116 -0.00175975 0)
(1.08522 0.00245519 0)
(1.07338 0.00711113 0)
(1.06419 0.0120606 0)
(1.05732 0.0170582 0)
(1.05408 0.0211751 0)
(1.05531 0.0238958 0)
(1.06092 0.025346 0)
(1.07104 0.0262139 0)
(1.08733 0.0270594 0)
(1.09228 0.0266953 0)
(1.00751 0.0217831 0)
(0.750069 0.011942 0)
(0.40172 0.00357675 0)
(0.0770154 0.000231691 0)
(0.0998011 4.9798e-05 0)
(0.652317 -0.000440619 0)
(0.958219 -0.00280357 0)
(1.10871 -0.0042999 0)
(1.12621 -0.0023846 0)
(1.10736 0.00146469 0)
(1.09095 0.00598801 0)
(1.07856 0.0109372 0)
(1.06865 0.01611 0)
(1.06086 0.021178 0)
(1.05662 0.0251498 0)
(1.05706 0.0275747 0)
(1.06216 0.028653 0)
(1.07203 0.0291316 0)
(1.08788 0.0295946 0)
(1.08726 0.0285498 0)
(0.987267 0.0226317 0)
(0.721012 0.0122547 0)
(0.380795 0.00370101 0)
(0.0720369 0.000243996 0)
(0.1008 9.87909e-05 0)
(0.649613 0.000640882 0)
(0.953489 -0.000459169 0)
(1.10993 -0.00118265 0)
(1.13231 0.00104335 0)
(1.11403 0.00522462 0)
(1.09711 0.0101511 0)
(1.08406 0.0154851 0)
(1.07329 0.0209636 0)
(1.06439 0.0261699 0)
(1.05896 0.0300249 0)
(1.05843 0.0321317 0)
(1.06295 0.0328188 0)
(1.07249 0.0328824 0)
(1.08749 0.0329213 0)
(1.08036 0.0310359 0)
(0.964749 0.0239658 0)
(0.690794 0.0128549 0)
(0.359102 0.00390601 0)
(0.0668038 0.000260472 0)
(0.102768 0.000154636 0)
(0.650713 0.00180048 0)
(0.951934 0.00211073 0)
(1.11254 0.00235983 0)
(1.1391 0.00504234 0)
(1.12135 0.0096855 0)
(1.10383 0.0151214 0)
(1.08999 0.0209414 0)
(1.07817 0.0268115 0)
(1.06792 0.0321987 0)
(1.06106 0.0359395 0)
(1.05942 0.0376946 0)
(1.06321 0.0379865 0)
(1.07236 0.0375959 0)
(1.08589 0.0371255 0)
(1.07127 0.0342419 0)
(0.939493 0.0258304 0)
(0.658731 0.0137377 0)
(0.336154 0.00418448 0)
(0.0612226 0.000280211 0)
(0.105791 0.000218491 0)
(0.656102 0.00325953 0)
(0.953993 0.00504688 0)
(1.11701 0.00647359 0)
(1.14685 0.00975027 0)
(1.12947 0.0150008 0)
(1.11127 0.0210725 0)
(1.09645 0.0275024 0)
(1.08335 0.0338603 0)
(1.07148 0.0394877 0)
(1.06292 0.0431081 0)
(1.05998 0.044475 0)
(1.0629 0.0443325 0)
(1.07159 0.0434429 0)
(1.08301 0.0424434 0)
(1.05957 0.0382821 0)
(0.910886 0.0282661 0)
(0.624082 0.0148915 0)
(0.311493 0.00452485 0)
(0.0552181 0.000301831 0)
(0.110163 0.000303274 0)
(0.666167 0.00496535 0)
(0.960164 0.00852318 0)
(1.12385 0.0113138 0)
(1.15582 0.0153824 0)
(1.13863 0.0214272 0)
(1.11959 0.0282875 0)
(1.10357 0.0354543 0)
(1.08889 0.0423909 0)
(1.07505 0.0482866 0)
(1.0645 0.0517435 0)
(1.06003 0.0526649 0)
(1.06196 0.052046 0)
(1.07008 0.0505933 0)
(1.07886 0.0489818 0)
(1.0447 0.0432671 0)
(0.878145 0.0312888 0)
(0.586054 0.0162863 0)
(0.284706 0.00490726 0)
(0.0487427 0.000323204 0)
(0.116225 0.000417327 0)
(0.681749 0.00710044 0)
(0.97113 0.0127241 0)
(1.13363 0.0171093 0)
(1.1664 0.022201 0)
(1.14909 0.0292966 0)
(1.12898 0.0371205 0)
(1.11145 0.0451627 0)
(1.09481 0.0527442 0)
(1.0786 0.0588813 0)
(1.06572 0.0620843 0)
(1.05942 0.0624461 0)
(1.06032 0.0613145 0)
(1.06785 0.059236 0)
(1.07314 0.0568617 0)
(1.02592 0.0492657 0)
(0.840317 0.0348783 0)
(0.543849 0.0178605 0)
(0.255489 0.00529964 0)
(0.0417941 0.00034135 0)
(0.124505 0.000576378 0)
(0.703753 0.00989002 0)
(0.987741 0.0179577 0)
(1.14701 0.0242048 0)
(1.1791 0.0305861 0)
(1.16118 0.0390323 0)
(1.13967 0.0480202 0)
(1.12019 0.0570682 0)
(1.1011 0.0653207 0)
(1.08205 0.0716212 0)
(1.06648 0.0744138 0)
(1.05812 0.0740606 0)
(1.05789 0.0723018 0)
(1.06476 0.0695141 0)
(1.0654 0.0661147 0)
(1.00225 0.0563333 0)
(0.796286 0.0389513 0)
(0.496733 0.0195039 0)
(0.223715 0.00565479 0)
(0.0344319 0.000352483 0)
(0.13574 0.000806174 0)
(0.733508 0.0137246 0)
(1.01116 0.0246952 0)
(1.16479 0.0331543 0)
(1.1945 0.0411573 0)
(1.17526 0.0513436 0)
(1.15183 0.0616956 0)
(1.1298 0.0718098 0)
(1.10766 0.0806339 0)
(1.08524 0.0868489 0)
(1.06662 0.0889482 0)
(1.05605 0.0877151 0)
(1.05463 0.0852781 0)
(1.06041 0.0815875 0)
(1.05488 0.0769719 0)
(0.972413 0.064404 0)
(0.744821 0.0433033 0)
(0.444177 0.0210357 0)
(0.189542 0.0059077 0)
(0.0267983 0.000352188 0)
(0.151206 0.00116796 0)
(0.773006 0.019223 0)
(1.04305 0.0337167 0)
(1.18791 0.0448913 0)
(1.21347 0.0551377 0)
(1.19168 0.0672834 0)
(1.1655 0.0791181 0)
(1.14012 0.0901891 0)
(1.1142 0.0992647 0)
(1.08787 0.104951 0)
(1.06592 0.105938 0)
(1.05304 0.103546 0)
(1.05044 0.100315 0)
(1.05458 0.0958532 0)
(1.04063 0.0894298 0)
(0.934771 0.0732386 0)
(0.684734 0.0475805 0)
(0.386101 0.0222006 0)
(0.153552 0.00598132 0)
(0.0191333 0.000336145 0)
(0.173106 0.00179389 0)
(0.825492 0.0275268 0)
(1.08611 0.0465793 0)
(1.21752 0.0612919 0)
(1.23653 0.0744024 0)
(1.21053 0.0884646 0)
(1.18044 0.101598 0)
(1.1507 0.113134 0)
(1.12027 0.121792 0)
(1.08957 0.126246 0)
(1.0641 0.125541 0)
(1.04891 0.121651 0)
(1.04516 0.117421 0)
(1.04726 0.111991 0)
(1.02129 0.10333 0)
(0.887281 0.0823411 0)
(0.615236 0.0512402 0)
(0.323276 0.0226894 0)
(0.116895 0.005801 0)
(0.0117796 0.000300571 0)
(0.204836 0.00317045 0)
(0.896748 0.0412846 0)
(1.14378 0.0671121 0)
(1.25398 0.0859418 0)
(1.26342 0.101865 0)
(1.23116 0.117304 0)
(1.19578 0.130789 0)
(1.16071 0.141649 0)
(1.12519 0.14876 0)
(1.08984 0.150945 0)
(1.06085 0.147813 0)
(1.04348 0.14203 0)
(1.03866 0.136614 0)
(1.0378 0.130092 0)
(0.994877 0.118204 0)
(0.827591 0.0908398 0)
(0.536736 0.0535828 0)
(0.258082 0.0222753 0)
(0.0815439 0.00533745 0)
(0.0052282 0.000241292 0)
(0.248126 0.00944348 9.74653e-21)
(0.9907 0.0685195 8.35246e-21)
(1.21367 0.101947 -2.91213e-21)
(1.2942 0.122556 0)
(1.29123 0.141202 -7.3824e-35)
(1.25133 0.156183 1.07852e-21)
(1.20994 0.168207 -1.94073e-21)
(1.16908 0.176937 0)
(1.12814 0.181409 3.99115e-35)
(1.08793 0.180545 -2.40483e-21)
(1.05527 0.174524 0)
(1.03571 0.166752 -2.86521e-21)
(1.03024 0.160467 -8.46332e-21)
(1.02463 0.153425 -4.00865e-21)
(0.956565 0.136372 -1.2076e-21)
(0.748888 0.099601 -7.17541e-22)
(0.444288 0.054621 0)
(0.189552 0.0212803 5.0233e-22)
(0.0476811 0.00479443 5.9491e-22)
(-0.000545139 0.000145528 1.08726e-20)
(0.278153 0.0248229 7.04719e-21)
(1.06855 0.111573 1.13137e-22)
(1.2713 0.151579 7.71841e-22)
(1.33047 0.172138 0)
(1.31571 0.19095 -3.72179e-21)
(1.26875 0.203815 -4.22804e-21)
(1.22141 0.213574 -1.95078e-21)
(1.17476 0.219887 -6.93965e-21)
(1.1283 0.221735 0)
(1.08293 0.217952 1.01877e-20)
(1.04631 0.20922 1.01118e-20)
(1.02439 0.199588 3.00257e-21)
(1.01647 0.191717 1.09781e-20)
(1.00011 0.182277 1.54745e-20)
(0.894782 0.156649 0)
(0.640445 0.107863 2.18193e-20)
(0.335602 0.0549195 3.13048e-20)
(0.118949 0.0194538 3.48351e-20)
(0.0144062 0.00309429 -3.99585e-20)
(-0.00610299 -0.000456208 -7.62271e-22)
(0.279654 0.0419049 0)
(1.11828 0.167242 1.19267e-21)
(1.31056 0.212273 0)
(1.35883 0.232507 -4.79121e-21)
(1.33503 0.248483 0)
(1.28214 0.257438 -8.2568e-21)
(1.22925 0.263453 3.96805e-21)
(1.17713 0.266195 -1.39131e-20)
(1.12544 0.264506 -3.22482e-22)
(1.0753 0.257101 5.24737e-21)
(1.03511 0.24516 2.21596e-20)
(1.01109 0.233355 -3.48853e-23)
(1.00044 0.223629 -7.95458e-21)
(0.973032 0.210523 -1.44841e-20)
(0.837452 0.175752 1.71677e-20)
(0.559343 0.114699 -3.03972e-20)
(0.268511 0.0548337 -4.00766e-21)
(0.079413 0.0174221 0)
(-0.00392004 0.000778248 -3.66454e-24)
(-0.00923581 -0.00125346 0)
(0.273011 0.0562398 1.50464e-20)
(1.14538 0.226588 -7.37323e-21)
(1.33503 0.277534 -5.74224e-21)
(1.37773 0.29817 2.23735e-21)
(1.34773 0.310329 -3.75357e-21)
(1.29043 0.314709 1.72263e-20)
(1.233 0.316252 8.24114e-21)
(1.17617 0.314713 0)
(1.11987 0.308836 -2.61931e-20)
(1.06545 0.297252 0)
(1.02206 0.281648 -1.15777e-20)
(0.996182 0.267316 -1.43246e-20)
(0.982938 0.255275 -8.62338e-21)
(0.945917 0.237502 -1.04782e-20)
(0.78988 0.193592 0)
(0.504338 0.121972 0)
(0.229247 0.0562011 -2.59848e-20)
(0.0554714 0.0155535 5.13299e-21)
(-0.0168679 -0.00210416 -3.02156e-21)
(-0.012001 -0.00227661 -3.57956e-21)
(0.265011 0.0688031 -5.35808e-21)
(1.15737 0.285802 0)
(1.34861 0.343751 1.13297e-20)
(1.38819 0.365233 6.18412e-21)
(1.3539 0.373564 8.70419e-21)
(1.29339 0.373356 0)
(1.23246 0.370285 8.0095e-21)
(1.1718 0.364224 1.52982e-20)
(1.11159 0.353853 1.33675e-20)
(1.0534 0.33773 2.45611e-20)
(1.00712 0.318153 0)
(0.97946 0.300912 -3.0766e-20)
(0.96375 0.286103 -1.85344e-20)
(0.919306 0.263279 -1.09627e-20)
(0.751889 0.210736 6.70862e-20)
(0.46883 0.130103 7.96793e-21)
(0.206913 0.0584766 3.75123e-20)
(0.0408951 0.0136386 -1.77418e-19)
(-0.0264891 -0.00546934 1.05091e-19)
(-0.0145784 -0.00350903 -1.2828e-19)
(0.257215 0.0800376 -1.72778e-21)
(1.15965 0.342948 9.3134e-22)
(1.35427 0.409038 -1.12962e-21)
(1.39189 0.431747 -5.98452e-21)
(1.35452 0.436448 -7.17741e-21)
(1.29162 0.431811 3.6229e-22)
(1.22793 0.424248 -8.66869e-21)
(1.16416 0.413707 1.57525e-20)
(1.10063 0.398798 -2.87046e-20)
(1.03911 0.378026 0)
(0.990156 0.354271 -1.39186e-20)
(0.960752 0.333863 -3.12091e-22)
(0.942728 0.316059 -2.0238e-20)
(0.892757 0.288219 0)
(0.721383 0.227863 -1.44953e-20)
(0.446358 0.139371 -3.43765e-20)
(0.195085 0.0617054 9.1521e-20)
(0.0331398 0.0120614 -9.01446e-20)
(-0.0329054 -0.00893102 1.28183e-19)
(-0.016776 -0.00486679 -1.34887e-19)
(0.250486 0.0903425 -1.08776e-22)
(1.15582 0.397328 -5.65606e-23)
(1.35418 0.472358 -2.63631e-21)
(1.39029 0.496554 2.25664e-21)
(1.35065 0.49796 -3.57742e-21)
(1.28593 0.489145 0)
(1.22003 0.477317 -8.00137e-21)
(1.15366 0.46247 -1.64637e-20)
(1.08726 0.443128 -1.48929e-20)
(1.02275 0.417747 0)
(0.971277 0.38974 -1.4388e-20)
(0.940105 0.366043 -1.78329e-20)
(0.919951 0.345086 2.19067e-20)
(0.866215 0.312374 -1.32776e-20)
(0.69594 0.245187 -6.30686e-20)
(0.43191 0.149765 3.73773e-20)
(0.190439 0.0661831 1.10802e-20)
(0.0310081 0.0113037 0)
(-0.0358534 -0.0119251 -1.23609e-19)
(-0.0182951 -0.0061895 -4.59136e-21)
(0.244989 0.10006 4.51369e-22)
(1.14819 0.448771 -5.27934e-22)
(1.34985 0.533161 1.1211e-21)
(1.38462 0.558969 8.23429e-21)
(1.34326 0.557461 -1.29152e-20)
(1.27716 0.544801 1.58791e-20)
(1.20946 0.529002 1.7227e-20)
(1.14086 0.510091 -2.62933e-20)
(1.07191 0.486498 9.21755e-21)
(1.00465 0.456621 -6.01954e-20)
(0.950764 0.42443 -1.62775e-20)
(0.917814 0.397382 0)
(0.895669 0.37325 2.37577e-20)
(0.839439 0.335852 2.8465e-20)
(0.67316 0.26276 3.39773e-20)
(0.42125 0.161228 -4.05762e-20)
(0.189447 0.0716987 -1.20081e-20)
(0.0326326 0.0117976 1.41029e-20)
(-0.0355452 -0.0139061 0)
(-0.0188804 -0.00726693 -9.96181e-21)
(0.240636 0.109285 -9.68225e-21)
(1.13848 0.497357 4.68882e-21)
(1.34255 0.591301 -8.36716e-22)
(1.37589 0.618644 4.77325e-21)
(1.33317 0.614565 -5.64232e-21)
(1.26602 0.598409 -8.35407e-22)
(1.19683 0.578988 -1.88574e-20)
(1.12631 0.556311 -9.52172e-21)
(1.05504 0.528696 -2.58816e-20)
(0.985176 0.494492 6.55332e-23)
(0.928956 0.458233 -5.0978e-20)
(0.894204 0.427845 4.30391e-20)
(0.870126 0.400603 -2.61203e-20)
(0.812202 0.358788 3.13603e-20)
(0.651346 0.280282 0)
(0.41174 0.173323 -2.20812e-20)
(0.189545 0.0782039 7.00466e-23)
(0.0362684 0.0135671 -6.15754e-20)
(-0.0329374 -0.0147875 -9.06993e-21)
(-0.0186358 -0.00801477 0)
(0.237357 0.118273 0)
(1.12772 0.543319 5.75064e-21)
(1.3332 0.647058 5.89666e-22)
(1.36492 0.67542 -4.12783e-21)
(1.32108 0.669064 -7.39386e-21)
(1.25312 0.649766 0)
(1.1827 0.627073 -8.4794e-21)
(1.11047 0.60095 -2.12282e-22)
(1.03706 0.569607 5.55178e-20)
(0.964708 0.531287 -8.27264e-21)
(0.906183 0.491075 -3.68431e-20)
(0.869627 0.457428 2.23959e-20)
(0.843677 0.42712 -4.4695e-22)
(0.784488 0.381103 3.34563e-20)
(0.62945 0.297357 2.04203e-20)
(0.401602 0.185515 -4.76498e-20)
(0.189391 0.0851269 5.63922e-20)
(0.0404989 0.0162262 1.67272e-20)
(-0.0289714 -0.014699 6.91545e-20)
(-0.0177818 -0.0084238 -1.87069e-19)
(0.235063 0.127165 -3.87785e-21)
(1.11666 0.586837 4.75006e-21)
(1.32238 0.69992 -2.84284e-21)
(1.35237 0.729249 2.749e-21)
(1.30758 0.720862 0)
(1.23899 0.698755 -7.08651e-21)
(1.16752 0.67314 2.86513e-20)
(1.09376 0.643911 2.0898e-20)
(1.01835 0.609152 0)
(0.943589 0.566984 -1.19423e-19)
(0.882724 0.522935 9.98854e-20)
(0.844372 0.486119 0)
(0.816623 0.452786 3.06246e-20)
(0.756317 0.402635 -4.37443e-22)
(0.60671 0.313703 -6.57898e-20)
(0.389907 0.197282 2.57201e-20)
(0.187574 0.0920389 0)
(0.0441068 0.0194516 9.04537e-20)
(-0.0245381 -0.0138261 0)
(-0.0165096 -0.00852087 -8.87214e-20)
(0.233628 0.135993 4.82997e-21)
(1.10573 0.628129 6.7266e-21)
(1.31055 0.749947 -2.66868e-21)
(1.33877 0.780149 0)
(1.29314 0.769946 -5.96445e-21)
(1.22405 0.745342 0)
(1.15168 0.717129 -2.81594e-20)
(1.07655 0.685133 -9.65497e-21)
(0.999254 0.647299 9.80414e-21)
(0.922074 0.601563 -5.91562e-20)
(0.858833 0.553836 1.03278e-20)
(0.818665 0.513867 0)
(0.789167 0.477469 -6.5582e-20)
(0.727741 0.423117 4.11801e-22)
(0.582917 0.328884 0)
(0.376371 0.207958 1.48119e-22)
(0.183571 0.0984045 8.27923e-20)
(0.0462147 0.0226767 -7.82799e-20)
(-0.0205606 -0.0126062 2.31708e-20)
(-0.0151176 -0.00840303 0)
(0.232704 0.144696 0)
(1.09514 0.667377 8.46286e-21)
(1.29816 0.79725 4.76327e-21)
(1.32453 0.828191 -5.2177e-22)
(1.27815 0.816347 -1.71452e-21)
(1.20866 0.789531 -1.6037e-20)
(1.13553 0.759031 1.06359e-20)
(1.05913 0.724592 -1.1483e-20)
(0.980016 0.684028 4.39088e-20)
(0.90041 0.635034 -9.48765e-20)
(0.834709 0.583798 -8.76815e-22)
(0.792676 0.540651 -2.87536e-20)
(0.761472 0.501018 1.06629e-19)
(0.698889 0.442283 -5.08253e-22)
(0.557705 0.342655 -5.1326e-20)
(0.360945 0.216973 -9.09594e-20)
(0.177454 0.103694 0)
(0.0464895 0.0253706 0)
(-0.0175127 -0.0114459 2.5046e-20)
(-0.0138093 -0.00819996 -1.48793e-20)
(0.232425 0.153445 7.19659e-21)
(1.0851 0.704413 -1.95875e-20)
(1.28551 0.841925 -5.12696e-21)
(1.30998 0.87346 0)
(1.26291 0.860125 -3.09415e-22)
(1.19312 0.831353 -1.44346e-20)
(1.11932 0.798859 2.55581e-20)
(1.04176 0.762291 4.51404e-20)
(0.96089 0.719343 5.71765e-20)
(0.878839 0.667435 -7.77065e-20)
(0.810526 0.612868 -8.64967e-20)
(0.766515 0.566469 7.70722e-20)
(0.733603 0.523326 0)
(0.66982 0.459784 -2.3445e-20)
(0.531811 0.354453 -5.54845e-20)
(0.343897 0.224057 -6.55086e-20)
(0.169423 0.107441 -7.73376e-20)
(0.0451702 0.0271007 2.28953e-20)
(-0.0154637 -0.0106225 -1.34997e-20)
(-0.0126826 -0.00799669 6.79836e-23)
(0.232356 0.162019 0)
(1.07579 0.739689 0)
(1.2728 0.884076 5.1273e-22)
(1.29535 0.916058 0)
(1.24767 0.901367 3.04908e-21)
(1.17764 0.870873 9.58989e-21)
(1.10328 0.836645 0)
(1.02464 0.798249 5.34637e-21)
(0.94209 0.753255 9.56774e-20)
(0.857544 0.698795 -1.79089e-19)
(0.786437 0.64112 0)
(0.740243 0.591368 -4.98114e-20)
(0.705542 0.544296 -5.9581e-22)
(0.640489 0.475322 -4.29442e-22)
(0.505304 0.363861 5.9599e-20)
(0.32566 0.228789 1.58525e-23)
(0.159859 0.109384 -1.66774e-19)
(0.0425229 0.0277686 4.92794e-20)
(-0.0142997 -0.010205 1.46215e-20)
(-0.0117411 -0.00781184 0)
(0.232548 0.170407 -2.99601e-20)
(1.06695 0.773308 -1.38349e-20)
(1.26013 0.923772 -1.67641e-20)
(1.28082 0.956094 1.26788e-20)
(1.23261 0.940147 2.33485e-21)
(1.16242 0.908156 0)
(1.08757 0.872438 1.54631e-20)
(1.00796 0.83249 -1.19853e-20)
(0.923774 0.785782 8.00198e-22)
(0.836705 0.729157 1.32448e-20)
(0.762586 0.668639 1.12696e-19)
(0.713905 0.615466 -1.75135e-20)
(0.677181 0.563902 -6.61483e-20)
(0.610799 0.488614 -2.73971e-20)
(0.478414 0.37047 3.22953e-20)
(0.306418 0.230833 4.34379e-23)
(0.149467 0.109376 4.49509e-20)
(0.039018 0.0273876 -1.0615e-19)
(-0.0137567 -0.0101608 1.25911e-19)
(-0.0109626 -0.00766093 1.85931e-20)
(0.232644 0.178547 1.15387e-20)
(1.05859 0.805349 -7.89945e-21)
(1.24765 0.961137 1.3005e-21)
(1.26654 0.993694 9.17062e-21)
(1.21788 0.976578 8.85844e-22)
(1.14758 0.943276 -1.66376e-20)
(1.07233 0.906289 4.40722e-21)
(0.991835 0.865037 -5.00582e-20)
(0.906092 0.816928 -1.06054e-19)
(0.816482 0.758543 -1.07335e-19)
(0.739117 0.69552 0)
(0.687529 0.638918 -7.72218e-20)
(0.648383 0.582209 9.56025e-20)
(0.580516 0.499405 0)
(0.451187 0.373762 -6.93323e-20)
(0.287228 0.229698 4.11046e-20)
(0.139143 0.107185 -4.83965e-20)
(0.0355369 0.0261451 -5.71665e-20)
(-0.0135142 -0.0102959 -1.01498e-19)
(-0.0103566 -0.00754607 -8.01594e-20)
(0.233132 0.186565 -1.32323e-20)
(1.05056 0.835805 8.46618e-21)
(1.23544 0.996238 1.88217e-20)
(1.25262 1.02894 1.40781e-20)
(1.20358 1.01076 -1.00972e-21)
(1.13323 0.976322 -8.69855e-21)
(1.05767 0.938251 1.48418e-20)
(0.976372 0.895935 -5.15332e-20)
(0.889148 0.846718 -6.30564e-20)
(0.797009 0.786975 1.12853e-19)
(0.716164 0.721854 2.4914e-19)
(0.661172 0.661899 0)
(0.618989 0.599392 0)
(0.549223 0.507582 -3.1604e-20)
(0.423363 0.373074 0)
(0.268653 0.224283 8.83549e-20)
(0.130847 0.101924 1.04073e-19)
(0.0343266 0.0237644 0)
(-0.0125333 -0.0105304 0)
(-0.010027 -0.0075599 8.62207e-20)
(0.233314 0.194137 1.52374e-20)
(1.04288 0.864676 1.20135e-20)
(1.22357 1.02919 1.3778e-20)
(1.23911 1.06195 -1.43417e-20)
(1.18979 1.04279 -2.54591e-21)
(1.11944 1.00737 8.44253e-21)
(1.04365 0.968382 -2.04093e-20)
(0.961649 0.92521 -1.53872e-22)
(0.873036 0.875158 -1.04968e-21)
(0.778398 0.814454 -8.45805e-22)
(0.693885 0.747715 1.28714e-19)
(0.634916 0.684578 0)
(0.588889 0.615739 9.74529e-20)
(0.516409 0.513286 6.77555e-20)
(0.394117 0.367951 1.62176e-19)
(0.250374 0.212728 4.76977e-20)
(0.126609 0.0900413 -5.60152e-20)
(0.0409722 0.0160416 -3.30001e-20)
(-0.00389816 -0.0126289 0)
(-0.00844669 -0.00743794 9.27472e-20)
(0.23389 0.201747 -3.48675e-20)
(1.03553 0.89209 0)
(1.21203 1.06004 1.6654e-20)
(1.22607 1.09282 -1.24704e-20)
(1.17657 1.07278 5.00018e-21)
(1.10625 1.03651 -8.07281e-21)
(1.03033 0.996737 3.94196e-20)
(0.947714 0.952897 -4.19895e-21)
(0.85781 0.902258 0)
(0.760748 0.840956 -1.25378e-19)
(0.672431 0.773145 -2.81116e-19)
(0.608887 0.707123 1.15217e-20)
(0.558072 0.631598 1.35246e-19)
(0.481631 0.517022 0)
(0.362023 0.35869 1.09776e-19)
(0.229707 0.193195 0)
(0.124443 0.0634388 0)
(0.0626259 -0.0154061 -3.56632e-20)
(0.0417702 -0.0299344 0)
(0.0241152 0.00339179 2.48871e-20)
(0.234057 0.208805 -3.92946e-20)
(1.02845 0.91829 0)
(1.20082 1.089 2.81604e-20)
(1.21343 1.12179 0)
(1.16387 1.10099 -3.54602e-21)
(1.09361 1.06402 0)
(1.01764 1.02363 1.87435e-21)
(0.934471 0.97933 7.17241e-21)
(0.843348 0.928378 7.99696e-21)
(0.743883 0.866853 -1.38104e-19)
(0.651606 0.798594 8.46708e-21)
(0.582773 0.730203 9.31708e-20)
(0.525996 0.64779 1.32419e-19)
(0.443829 0.519528 1.77932e-20)
(0.324918 0.346717 8.63343e-20)
(0.200811 0.166296 0)
(0.110258 0.0175877 1.18007e-19)
(0.0638095 -0.0500178 -6.93129e-20)
(0.0294383 0.0499157 8.1073e-20)
(-0.0384947 0.457627 -9.63245e-20)
(0.234196 0.215711 3.27624e-20)
(1.02144 0.943139 4.90127e-20)
(1.18986 1.11639 0)
(1.20107 1.1493 1.02837e-21)
(1.1515 1.128 1.1465e-20)
(1.08124 1.09059 6.66368e-21)
(1.00525 1.04984 1.35074e-20)
(0.9215 1.00545 0)
(0.829106 0.95461 5.29324e-20)
(0.727107 0.893444 -7.20296e-21)
(0.630464 0.825553 0)
(0.555213 0.755496 0)
(0.490477 0.665575 1.19107e-19)
(0.40026 0.521147 -5.50434e-20)
(0.279427 0.333717 -8.78336e-20)
(0.15889 0.134876 0)
(0.0643233 0.0401698 6.00222e-20)
(0.00510401 0.460619 -6.97304e-20)
(0.0301726 1.93173 -3.92647e-20)
(0.0566368 2.82713 -4.81032e-20)
(0.234011 0.22208 -2.491e-20)
(1.01453 0.96681 -6.34581e-20)
(1.17917 1.1422 1.70253e-20)
(1.18898 1.17522 1.31873e-20)
(1.13953 1.15363 0)
(1.06925 1.11596 2.37441e-21)
(0.993402 1.07508 1.80733e-20)
(0.909001 1.03082 -3.47527e-21)
(0.815376 0.980443 7.94179e-21)
(0.710823 0.920137 1.32125e-19)
(0.60965 0.853383 1.43534e-19)
(0.527194 0.782873 1.0541e-19)
(0.45228 0.685218 1.20449e-19)
(0.352081 0.521193 -1.30161e-19)
(0.231303 0.323528 -1.33265e-19)
(0.106213 0.191768 0)
(0.0378481 0.892778 0)
(0.0850371 2.58534 3.34443e-20)
(0.088013 3.2138 0)
(0.0895445 3.38999 8.74223e-20)
(0.236624 0.228048 0)
(1.00804 0.989692 0)
(1.16844 1.16631 0)
(1.17697 1.19943 4.1361e-21)
(1.12761 1.17762 1.08398e-20)
(1.05743 1.13997 -9.70281e-22)
(0.982003 1.09925 1.14903e-20)
(0.896907 1.05532 -3.39229e-21)
(0.802094 1.0057 6.63437e-20)
(0.695026 0.94677 -1.74039e-21)
(0.589258 0.881876 2.8476e-19)
(0.499083 0.812415 -1.22181e-20)
(0.411287 0.707626 1.47081e-20)
(0.30113 0.517969 1.89276e-20)
(0.172455 0.341475 -6.02208e-22)
(0.0876514 1.01825 3.49864e-22)
(0.121558 2.76716 -1.77811e-19)
(0.126207 3.30177 -6.72043e-20)
(0.117237 3.42359 3.56853e-20)
(0.107189 3.4433 -4.03918e-20)
(0.160015 0.173804 1.54136e-20)
(0.997405 1.01453 0)
(1.15749 1.1889 -3.56312e-20)
(1.16544 1.22236 -3.69544e-20)
(1.11619 1.20046 2.77994e-20)
(1.04647 1.1631 2.08036e-21)
(0.970867 1.12233 -1.16966e-20)
(0.885249 1.079 3.74908e-20)
(0.789336 1.03046 -5.46013e-20)
(0.679936 0.973461 0)
(0.569584 0.911102 1.4087e-19)
(0.471415 0.843912 -8.66057e-20)
(0.370593 0.737023 0)
(0.241731 0.515907 1.84196e-20)
(0.125901 0.746078 4.36288e-20)
(0.136209 2.57233 -4.94073e-20)
(0.183645 3.32823 5.61679e-20)
(0.166787 3.43346 3.03642e-20)
(0.138747 3.45226 3.45729e-20)
(0.119829 3.46101 5.5369e-20)
(0.271326 0.265903 -2.96421e-20)
(0.980025 1.02479 0)
(1.13928 1.2149 3.89557e-20)
(1.15067 1.25357 4.15956e-20)
(1.09859 1.23416 -3.26094e-20)
(1.02828 1.19717 -7.0806e-21)
(0.951482 1.15795 9.87243e-21)
(0.865265 1.11592 2.95378e-21)
(0.767843 1.06965 5.20441e-20)
(0.655301 1.01682 1.15174e-19)
(0.53879 0.960755 7.9421e-21)
(0.428429 0.897083 7.74719e-20)
(0.293723 0.768898 1.4002e-20)
(0.202176 0.911681 -1.77829e-20)
(0.208119 2.44983 -4.00554e-20)
(0.259243 3.33206 3.97393e-20)
(0.242158 3.45839 -4.3727e-20)
(0.208168 3.47723 -2.52283e-20)
(0.174818 3.50173 -2.31451e-20)
(0.129848 3.49681 -3.3595e-21)
(0.261567 0.264824 0)
(0.977177 1.04773 1.1606e-20)
(1.13051 1.23859 -8.11219e-21)
(1.13953 1.27725 -5.05951e-21)
(1.08739 1.25755 -2.31168e-20)
(1.01706 1.22075 7.96183e-21)
(0.939928 1.18175 -4.6905e-21)
(0.853425 1.14058 2.63862e-21)
(0.755303 1.09584 -5.42428e-20)
(0.641133 1.04601 -2.76575e-21)
(0.521101 0.994869 -2.55832e-19)
(0.403999 0.933729 1.1102e-20)
(0.275214 0.842291 -1.32941e-20)
(0.237604 1.54102 -1.64135e-20)
(0.300751 3.14388 3.67314e-21)
(0.313448 3.46011 2.19467e-22)
(0.272168 3.50714 6.59057e-20)
(0.238411 3.53059 3.37071e-20)
(0.19278 3.55067 -1.1469e-20)
(0.142957 3.54735 -1.708e-20)
(0.247644 0.262907 2.99634e-20)
(0.973417 1.07322 7.896e-20)
(1.12139 1.26438 -2.31879e-20)
(1.12802 1.30256 -1.90174e-20)
(1.07572 1.28241 0)
(1.00546 1.24564 1.77007e-20)
(0.928278 1.20691 -3.6669e-21)
(0.841743 1.16656 2.29869e-21)
(0.743237 1.12347 -6.06484e-21)
(0.627987 1.07694 -1.04539e-19)
(0.505388 1.03135 -1.18299e-19)
(0.382374 0.971725 -9.11843e-20)
(0.278291 0.988942 -1.00229e-19)
(0.303417 2.31448 1.03416e-19)
(0.381671 3.38802 8.81701e-20)
(0.352936 3.51636 0)
(0.305131 3.55332 0)
(0.268591 3.58704 -9.11851e-21)
(0.224869 3.63208 0)
(0.155441 3.61692 -1.47826e-20)
(0.23787 0.264891 -4.49788e-20)
(0.967739 1.0996 -6.72372e-20)
(1.1109 1.29141 0)
(1.11525 1.32871 1.25051e-21)
(1.06282 1.30793 -2.61686e-20)
(0.992791 1.27111 3.06507e-20)
(0.91588 1.2327 -5.28098e-22)
(0.829541 1.19309 1.24178e-21)
(0.73091 1.15163 -3.82231e-20)
(0.615026 1.10843 5.20989e-21)
(0.490844 1.0685 0)
(0.363035 1.01389 0)
(0.300616 1.2841 -9.12557e-20)
(0.382933 2.97539 3.73028e-20)
(0.446826 3.48684 4.80378e-20)
(0.393409 3.55079 0)