/*--------------------------------*- C++ -*----------------------------------*\
  =========                 |
  \\      /  F ield         | OpenFOAM: The Open Source CFD Toolbox
   \\    /   O peration     | Website:  https://openfoam.org
    \\  /    A nd           | Version:  6
     \\/     M anipulation  |
\*---------------------------------------------------------------------------*/
FoamFile
{
    version     2.0;
    format      ascii;
    class       volScalarField;
    location    "90.6";
    object      p;
}
// * * * * * * * * * * * * * * * * * * * * * * * * * * * * * * * * * * * * * //

dimensions      [0 2 -2 0 0 0 0];

internalField   nonuniform List<scalar> 
8800
(
0.847063
0.797748
0.759784
0.731717
0.711558
0.696975
0.686383
0.67885
0.673976
0.671921
0.673307
0.677664
0.684468
0.693901
0.706644
0.723969
0.74785
0.78095
0.823888
0.876403
0.681552
0.687898
0.697049
0.700599
0.697993
0.691908
0.684972
0.678737
0.673945
0.671089
0.670874
0.673518
0.678174
0.684313
0.691421
0.698461
0.703344
0.703223
0.696551
0.687655
0.655059
0.661295
0.665797
0.669671
0.672623
0.673577
0.672495
0.670383
0.668415
0.667592
0.668644
0.671114
0.674015
0.676297
0.676826
0.675045
0.671684
0.667676
0.662898
0.659182
0.650745
0.653511
0.65612
0.658281
0.660023
0.661597
0.662708
0.663072
0.662973
0.663092
0.66392
0.665083
0.665842
0.665706
0.664743
0.663397
0.661735
0.659438
0.657031
0.655465
0.64567
0.647096
0.648939
0.651024
0.652742
0.654042
0.65515
0.656144
0.656972
0.657733
0.658472
0.658958
0.659004
0.658659
0.658005
0.656902
0.655256
0.653369
0.65202
0.651217
0.640656
0.64156
0.64281
0.644442
0.646142
0.647684
0.648981
0.650121
0.651208
0.652257
0.653078
0.653501
0.653538
0.653194
0.65241
0.651237
0.649889
0.648632
0.647816
0.647291
0.635717
0.636373
0.637338
0.638662
0.640119
0.641648
0.643149
0.644535
0.645827
0.647071
0.648067
0.648603
0.648657
0.64825
0.647494
0.646572
0.645598
0.644705
0.644131
0.643746
0.630849
0.631355
0.632145
0.633294
0.634606
0.636038
0.637568
0.639136
0.640685
0.64219
0.643401
0.644064
0.64419
0.643908
0.643376
0.642714
0.642
0.641352
0.640931
0.640631
0.625997
0.626399
0.627064
0.628095
0.62934
0.630725
0.632256
0.63393
0.635707
0.637513
0.639
0.639876
0.640211
0.640173
0.639895
0.639463
0.638961
0.638512
0.638203
0.637959
0.621077
0.621405
0.621984
0.62294
0.624144
0.625524
0.6271
0.628888
0.630879
0.633008
0.634855
0.636062
0.636707
0.636953
0.636929
0.63674
0.636445
0.636161
0.635938
0.635732
0.615999
0.616271
0.616791
0.617705
0.618899
0.620316
0.621981
0.623929
0.626175
0.628681
0.630977
0.632611
0.63363
0.6342
0.634456
0.634512
0.634428
0.634294
0.63414
0.633961
0.61067
0.610898
0.611381
0.612283
0.613509
0.615006
0.616804
0.61897
0.621545
0.624519
0.627364
0.629507
0.630964
0.631907
0.632478
0.632788
0.632925
0.632933
0.632836
0.632676
0.604991
0.605186
0.605651
0.606572
0.60787
0.609491
0.611481
0.613936
0.616929
0.620483
0.623993
0.626744
0.628714
0.630087
0.631018
0.631624
0.631986
0.632125
0.632075
0.631927
0.598855
0.599022
0.599487
0.600455
0.601866
0.603666
0.605916
0.608743
0.612261
0.616527
0.62084
0.62432
0.626899
0.628771
0.630116
0.631058
0.631661
0.631931
0.631923
0.631782
0.592132
0.592277
0.592757
0.5938
0.59537
0.59741
0.599999
0.603299
0.607467
0.612603
0.617888
0.622239
0.625541
0.628003
0.62982
0.631143
0.632022
0.632428
0.632458
0.632319
0.584675
0.584796
0.585305
0.586455
0.588235
0.590585
0.593605
0.597499
0.60247
0.608665
0.615119
0.620509
0.624666
0.627825
0.630207
0.631973
0.633159
0.633707
0.633772
0.633631
0.576292
0.576396
0.57694
0.578229
0.580279
0.583023
0.586586
0.591219
0.597179
0.604661
0.612519
0.619146
0.624312
0.628291
0.631352
0.633636
0.635167
0.635864
0.635959
0.635812
0.566696
0.566801
0.567413
0.568875
0.571276
0.574518
0.578761
0.584314
0.591493
0.600539
0.610076
0.618165
0.624523
0.629468
0.633325
0.636217
0.638139
0.638992
0.639113
0.638957
0.555594
0.555676
0.556373
0.558089
0.560935
0.56481
0.569913
0.576617
0.585299
0.596243
0.607783
0.61759
0.625343
0.631424
0.636198
0.639806
0.642162
0.643171
0.643312
0.643142
0.542572
0.542643
0.543449
0.545477
0.548887
0.553576
0.559776
0.567931
0.578476
0.591724
0.60564
0.617451
0.626812
0.634212
0.640056
0.644476
0.647295
0.648452
0.648602
0.648415
0.527037
0.527098
0.528056
0.530504
0.534658
0.54041
0.548031
0.558039
0.57091
0.586949
0.603661
0.617782
0.628975
0.637878
0.644937
0.650258
0.653555
0.654836
0.65498
0.654774
0.508156
0.508212
0.509393
0.512435
0.517605
0.524793
0.534301
0.546715
0.562507
0.581918
0.60188
0.618616
0.631868
0.64245
0.650843
0.657142
0.660888
0.662245
0.662365
0.662139
0.484711
0.484773
0.486307
0.490241
0.496872
0.506075
0.518174
0.533765
0.553238
0.576689
0.600368
0.620001
0.635513
0.647926
0.657756
0.66504
0.669147
0.670506
0.670577
0.670334
0.454794
0.454887
0.457032
0.462417
0.471338
0.483516
0.499281
0.519105
0.543182
0.571393
0.599237
0.622008
0.639919
0.654262
0.665599
0.673771
0.67807
0.67933
0.679332
0.679077
0.415167
0.415397
0.418809
0.426872
0.439667
0.456472
0.477481
0.50288
0.532584
0.566255
0.598642
0.62472
0.645103
0.661402
0.674211
0.683048
0.687282
0.688326
0.688246
0.687991
0.359661
0.360827
0.367648
0.381303
0.400879
0.424851
0.453131
0.48557
0.521875
0.561584
0.598761
0.628222
0.651067
0.669253
0.683351
0.692485
0.696317
0.697056
0.696901
0.696656
0.279344
0.287233
0.302946
0.326876
0.356597
0.390165
0.427284
0.467758
0.51132
0.557531
0.599799
0.632869
0.65837
0.67857
0.693656
0.702678
0.7059
0.706328
0.70613
0.705926
0.193779
0.211062
0.236589
0.271554
0.311968
0.355251
0.401191
0.449767
0.50082
0.553997
0.602012
0.639283
0.667955
0.690344
0.706271
0.714495
0.716784
0.716922
0.716754
0.716628
0.120334
0.141482
0.175197
0.219614
0.269496
0.321927
0.376441
0.432953
0.491275
0.551048
0.604322
0.645304
0.67667
0.700772
0.716852
0.724008
0.725599
0.725637
0.725507
0.725415
0.0600469
0.083547
0.122881
0.174077
0.23134
0.291396
0.353453
0.417213
0.482284
0.548191
0.606268
0.650548
0.68414
0.709463
0.725483
0.731934
0.733194
0.733197
0.733088
0.733006
0.0100021
0.0349114
0.0783062
0.134768
0.197926
0.264231
0.33268
0.402801
0.473971
0.545501
0.607995
0.655239
0.690773
0.717077
0.732982
0.7389
0.739978
0.739973
0.73988
0.739799
-0.0324182
-0.00668521
0.039705
0.10043
0.168535
0.240161
0.314129
0.389854
0.466528
0.543231
0.609802
0.659743
0.696959
0.724011
0.739712
0.745236
0.74623
0.746247
0.746176
0.746091
-0.06929
-0.0430257
0.00569582
0.0699518
0.14229
0.218561
0.297437
0.378228
0.45996
0.5415
0.611903
0.664332
0.703023
0.730602
0.746044
0.751279
0.752244
0.75231
0.752275
0.752191
-0.102138
-0.0754677
-0.0248364
0.0424334
0.118452
0.198826
0.282135
0.367601
0.454089
0.540251
0.614352
0.669156
0.709199
0.737209
0.75241
0.757414
0.75837
0.758501
0.758521
0.758445
-0.132026
-0.104996
-0.0527493
0.0171565
0.0964303
0.180466
0.267812
0.357626
0.448659
0.539322
0.6171
0.674276
0.715672
0.744137
0.759171
0.764019
0.764988
0.765171
0.765244
0.765181
-0.1598
-0.1324
-0.0787124
-0.00641862
0.0757547
0.163085
0.254127
0.348013
0.443407
0.538538
0.620042
0.679702
0.722539
0.751573
0.766572
0.771336
0.772277
0.772481
0.772591
0.772546
-0.185895
-0.158153
-0.10315
-0.0287208
0.0560591
0.146376
0.240816
0.338522
0.438119
0.53772
0.623097
0.685384
0.729801
0.759524
0.774585
0.779307
0.780193
0.780376
0.780493
0.780461
-0.210821
-0.182659
-0.126439
-0.0500669
0.0370679
0.130101
0.227676
0.328962
0.432617
0.536696
0.626133
0.691231
0.737338
0.767829
0.783016
0.7877
0.788503
0.788632
0.788731
0.788713
-0.234747
-0.206162
-0.1488
-0.0706686
0.0185898
0.114095
0.214554
0.319191
0.42674
0.53531
0.629013
0.697159
0.745054
0.776307
0.791605
0.796189
0.796892
0.796942
0.797005
0.797006
-0.257854
-0.228822
-0.170398
-0.0906645
0.000510506
0.0982517
0.201349
0.3091
0.420362
0.533397
0.631587
0.703082
0.752883
0.784817
0.800077
0.804484
0.805051
0.805014
0.805034
0.805034
-0.280271
-0.25076
-0.191329
-0.110134
-0.0172502
0.0825088
0.188004
0.298627
0.41339
0.530815
0.6337
0.708918
0.760843
0.793307
0.808248
0.812329
0.812728
0.812618
0.8126
0.812597
-0.302093
-0.272053
-0.211633
-0.129116
-0.0347122
0.0668392
0.174498
0.287737
0.405766
0.527438
0.63519
0.714572
0.768988
0.801943
0.816188
0.819623
0.819786
0.819627
0.81959
0.819577
-0.323224
-0.292683
-0.231318
-0.147639
-0.0518869
0.0512596
0.160837
0.27644
0.397465
0.523188
0.635889
0.719921
0.777401
0.811012
0.824176
0.826451
0.826148
0.825984
0.826
0.825987
-0.343666
-0.312646
-0.250406
-0.165694
-0.0687554
0.0357898
0.147064
0.264755
0.388497
0.517998
0.635644
0.724789
0.786084
0.820902
0.832867
0.833296
0.831947
0.831716
0.832027
0.832132
-0.363494
-0.331937
-0.268904
-0.183274
-0.0852829
0.0204809
0.133231
0.252739
0.378893
0.511848
0.634298
0.728955
0.794907
0.831882
0.843186
0.84142
0.838024
0.837232
0.838198
0.839024
-0.382589
-0.350545
-0.286777
-0.200335
-0.101435
0.00539353
0.119407
0.240468
0.368722
0.504762
0.631725
0.732151
0.803574
0.843853
0.855818
0.852641
0.846754
0.843803
0.84385
0.844382
-0.401045
-0.368501
-0.304044
-0.216923
-0.117257
-0.00952054
0.105534
0.227877
0.357904
0.496666
0.62775
0.734099
0.811835
0.856489
0.870758
0.868117
0.860557
0.852693
0.844127
0.846345
-0.418799
-0.385871
-0.320846
-0.233234
-0.133042
-0.02458
0.0912151
0.21451
0.345941
0.486995
0.621813
0.734174
0.819483
0.869625
0.887229
0.887037
0.877774
0.863293
0.841961
0.843367
-0.435737
-0.402639
-0.337035
-0.249089
-0.148538
-0.0394983
0.0766307
0.200656
0.33307
0.475896
0.613779
0.731385
0.825247
0.881723
0.901158
0.901507
0.890731
0.860419
0.803836
0.780113
-0.451759
-0.419794
-0.35222
-0.264059
-0.162948
-0.0537893
0.0620613
0.186588
0.319567
0.463517
0.603621
0.724964
0.827562
0.891099
0.906958
0.901771
0.877932
0.82091
0.758315
0.720493
-0.493649
-0.436686
-0.366099
-0.27909
-0.17704
-0.0684474
0.0476545
0.172173
0.3052
0.449455
0.5908
0.714029
0.822438
0.89265
0.900357
0.87431
0.814963
0.74314
0.672097
0.632897
-0.467723
-0.449109
-0.387173
-0.299494
-0.198929
-0.0905033
0.0250102
0.149082
0.281571
0.425114
0.566152
0.68917
0.790887
0.868622
0.841509
0.719373
0.620414
0.551684
0.484388
0.507042
-0.497642
-0.465922
-0.403114
-0.315898
-0.2157
-0.10739
0.00838556
0.131917
0.26358
0.405712
0.544649
0.664581
0.755043
0.798585
0.734771
0.583948
0.466996
0.388109
0.302882
0.343584
-0.520596
-0.486562
-0.422067
-0.334808
-0.234657
-0.126332
-0.0106191
0.112202
0.242635
0.382585
0.517886
0.631857
0.710223
0.715554
0.596568
0.43235
0.296531
0.198781
0.100613
0.12755
-0.542804
-0.507792
-0.441995
-0.354115
-0.253896
-0.145681
-0.0304622
0.0914401
0.220347
0.35758
0.487973
0.592801
0.653653
0.625138
0.455455
0.271226
0.106148
-0.0316257
-0.158699
-0.150619
-0.564664
-0.529329
-0.462686
-0.374259
-0.273932
-0.165949
-0.0513967
0.069393
0.196414
0.330381
0.45477
0.550064
0.589644
0.51172
0.316152
0.1132
-0.0773862
-0.234084
-0.440346
-0.52029
-0.586864
-0.551647
-0.484538
-0.395749
-0.295308
-0.187539
-0.0736191
0.0459753
0.170906
0.301195
0.418851
0.504639
0.516117
0.386972
0.188603
-0.0252095
-0.220218
-0.383198
-0.507158
-0.622548
-0.610469
-0.575226
-0.507906
-0.418967
-0.318561
-0.211128
-0.0979674
0.0202083
0.142627
0.268529
0.378704
0.451239
0.433561
0.268355
0.0689893
-0.138522
-0.31684
-0.415311
-0.441394
-0.454664
-0.635614
-0.60036
-0.532917
-0.444002
-0.343837
-0.236942
-0.124823
-0.00843205
0.110942
0.231571
0.333816
0.387124
0.349384
0.15417
-0.0428598
-0.230051
-0.364932
-0.403352
-0.412002
-0.412336
-0.662583
-0.627176
-0.559614
-0.470843
-0.371088
-0.264994
-0.154221
-0.0400164
0.0757645
0.190318
0.283713
0.319311
0.247438
0.0494267
-0.140897
-0.303588
-0.379444
-0.393583
-0.394622
-0.394485
-0.691383
-0.655706
-0.588022
-0.499493
-0.400338
-0.295286
-0.186183
-0.0745769
0.0371006
0.144889
0.228053
0.247731
0.136545
-0.0460028
-0.225345
-0.354222
-0.383703
-0.38439
-0.385015
-0.384614
-0.721764
-0.685796
-0.618047
-0.529881
-0.431511
-0.327777
-0.220697
-0.112104
-0.00499916
0.0954018
0.168173
0.168147
0.0385622
-0.133279
-0.291425
-0.365591
-0.380679
-0.379087
-0.378924
-0.378583
-0.753174
-0.717096
-0.64943
-0.561782
-0.464427
-0.362317
-0.257622
-0.152486
-0.050316
0.0423005
0.10449
0.088006
-0.0511214
-0.210016
-0.336102
-0.374621
-0.374277
-0.374615
-0.374453
-0.374199
-0.78517
-0.749077
-0.681686
-0.59478
-0.498736
-0.398585
-0.296675
-0.195444
-0.0985574
-0.0134388
0.0358207
0.0125169
-0.131533
-0.271402
-0.363527
-0.371463
-0.372327
-0.372157
-0.371891
-0.371662
-0.816782
-0.780867
-0.714092
-0.628242
-0.533885
-0.4361
-0.337387
-0.240483
-0.149293
-0.0709525
-0.0327399
-0.0628495
-0.199372
-0.315815
-0.372446
-0.381121
-0.37394
-0.37186
-0.371118
-0.370732
-0.846278
-0.811189
-0.745608
-0.661279
-0.569091
-0.47415
-0.379079
-0.286857
-0.201731
-0.129783
-0.0961347
-0.14024
-0.253158
-0.349045
-0.373672
-0.374311
-0.373555
-0.372456
-0.371837
-0.371474
-0.872489
-0.838531
-0.774834
-0.692687
-0.603286
-0.511783
-0.42086
-0.333631
-0.254621
-0.189378
-0.157861
-0.206663
-0.292286
-0.360466
-0.385587
-0.375159
-0.372555
-0.371895
-0.371664
-0.371555
-0.892751
-0.860793
-0.800011
-0.720937
-0.635149
-0.547805
-0.461616
-0.379722
-0.306655
-0.247973
-0.219338
-0.258363
-0.317929
-0.352646
-0.362005
-0.368287
-0.369715
-0.370387
-0.370784
-0.370882
-0.905018
-0.875863
-0.819064
-0.74428
-0.663144
-0.580821
-0.500019
-0.423871
-0.356705
-0.303035
-0.275556
-0.303928
-0.340516
-0.358906
-0.362149
-0.369374
-0.372301
-0.373014
-0.373255
-0.373273
-0.906594
-0.88136
-0.829891
-0.760865
-0.685631
-0.609358
-0.534635
-0.464574
-0.403574
-0.353852
-0.32275
-0.347029
-0.371561
-0.390309
-0.386286
-0.381559
-0.37978
-0.378834
-0.378385
-0.378221
-0.895142
-0.87469
-0.830358
-0.768945
-0.701126
-0.632036
-0.564123
-0.50031
-0.445466
-0.401346
-0.358511
-0.385643
-0.387825
-0.419124
-0.404778
-0.389559
-0.383534
-0.381395
-0.38051
-0.380193
-0.868377
-0.853416
-0.818596
-0.767288
-0.708581
-0.647847
-0.587453
-0.530012
-0.480409
-0.443627
-0.39671
-0.391015
-0.377956
-0.38094
-0.375765
-0.375352
-0.375348
-0.375645
-0.375818
-0.375828
-0.829747
-0.820206
-0.795774
-0.756155
-0.708015
-0.656534
-0.604087
-0.553067
-0.507979
-0.476652
-0.444314
-0.406534
-0.3582
-0.347185
-0.365433
-0.370697
-0.370661
-0.372498
-0.374416
-0.374926
-0.786297
-0.780862
-0.766825
-0.73864
-0.701508
-0.658999
-0.61412
-0.569214
-0.52805
-0.49714
-0.468256
-0.432721
-0.389527
-0.357527
-0.349363
-0.362711
-0.385099
-0.398955
-0.403432
-0.404003
-0.747923
-0.74461
-0.737942
-0.720068
-0.691968
-0.657065
-0.61863
-0.578461
-0.539358
-0.507381
-0.480278
-0.463829
-0.459952
-0.469644
-0.479874
-0.507564
-0.511949
-0.495412
-0.485137
-0.488133
-0.720283
-0.718316
-0.714913
-0.704382
-0.683093
-0.653811
-0.619558
-0.581661
-0.542657
-0.507276
-0.480217
-0.475839
-0.527924
-0.630409
-0.730214
-0.774915
-0.772912
-0.729508
-0.671471
-0.652117
-0.700014
-0.699315
-0.69816
-0.692973
-0.67746
-0.651827
-0.61887
-0.580874
-0.539013
-0.497023
-0.468007
-0.446306
-0.457964
-0.506024
-0.586207
-0.613928
-0.586737
-0.548161
-0.503382
-0.480948
-0.688224
-0.687992
-0.687376
-0.684955
-0.674445
-0.650985
-0.61755
-0.577681
-0.531437
-0.48087
-0.437578
-0.381949
-0.313696
-0.241588
-0.19958
-0.156244
-0.103153
-0.0646927
-0.0357431
-0.0211213
-0.680109
-0.67996
-0.679551
-0.678847
-0.672436
-0.651304
-0.617087
-0.573809
-0.522484
-0.460224
-0.396256
-0.315511
-0.174321
0.0238772
0.220763
0.385818
0.4671
0.503353
0.511741
0.514219
-0.674842
-0.674796
-0.674668
-0.674514
-0.670688
-0.653022
-0.617735
-0.570635
-0.51323
-0.440128
-0.358232
-0.261875
-0.0795391
0.172383
0.422773
0.633226
0.774741
0.84835
0.881327
0.893658
-0.670575
-0.670603
-0.670602
-0.670584
-0.669274
-0.655225
-0.619896
-0.569227
-0.50616
-0.425655
-0.331079
-0.228649
-0.0356422
0.239616
0.535268
0.797008
0.986963
1.09697
1.15241
1.17261
-0.666725
-0.66683
-0.6669
-0.666887
-0.666737
-0.656662
-0.623263
-0.570847
-0.503955
-0.418897
-0.318636
-0.2146
-0.0297289
0.248696
0.556466
0.843731
1.07356
1.21135
1.27084
1.28725
-0.663845
-0.663855
-0.663629
-0.663088
-0.663083
-0.656346
-0.627738
-0.576271
-0.507363
-0.420576
-0.322252
-0.223767
-0.069865
0.187544
0.465591
0.718055
0.929259
1.0603
1.11252
1.12454
-0.662893
-0.662786
-0.662308
-0.661144
-0.659425
-0.656885
-0.634952
-0.586001
-0.516096
-0.430748
-0.339419
-0.251282
-0.132992
0.0790038
0.310098
0.508423
0.667539
0.764105
0.801294
0.808823
-0.665503
-0.665729
-0.666083
-0.666453
-0.666064
-0.665925
-0.648863
-0.599807
-0.528407
-0.448365
-0.365126
-0.286605
-0.196932
-0.0339026
0.140879
0.281764
0.390721
0.452849
0.475224
0.479241
-0.669839
-0.670996
-0.674469
-0.68252
-0.693147
-0.695652
-0.672278
-0.613499
-0.543627
-0.472421
-0.395968
-0.327319
-0.263212
-0.146625
-0.0182287
0.079414
0.149095
0.186591
0.199897
0.20235
-0.67414
-0.675614
-0.680638
-0.693689
-0.713471
-0.719265
-0.687412
-0.621172
-0.562049
-0.49965
-0.42675
-0.36777
-0.318242
-0.233207
-0.142708
-0.0774891
-0.0350829
-0.0121383
-0.00294486
-0.000670941
-0.688017
-0.689006
-0.691243
-0.689868
-0.68172
-0.680339
-0.65302
-0.616842
-0.582432
-0.524004
-0.456445
-0.407015
-0.370314
-0.303708
-0.232668
-0.183042
-0.150473
-0.132765
-0.125748
-0.124258
-0.710499
-0.710672
-0.709589
-0.684243
-0.622549
-0.572518
-0.588818
-0.612393
-0.600394
-0.543089
-0.483221
-0.442217
-0.412061
-0.358815
-0.299654
-0.256138
-0.225065
-0.206448
-0.199957
-0.199547
-0.736365
-0.734592
-0.73013
-0.704653
-0.645378
-0.595645
-0.609714
-0.648475
-0.626122
-0.561912
-0.506803
-0.471749
-0.445387
-0.396605
-0.344008
-0.304803
-0.274975
-0.25756
-0.252123
-0.252143
-0.79284
-0.791601
-0.807998
-0.834325
-0.845394
-0.820741
-0.793794
-0.753955
-0.675594
-0.585274
-0.527872
-0.492969
-0.46706
-0.42405
-0.376308
-0.340421
-0.313574
-0.298537
-0.293793
-0.294236
-0.919756
-0.932785
-0.977617
-1.03528
-1.06245
-1.04695
-0.987261
-0.876504
-0.729207
-0.609032
-0.544593
-0.499543
-0.473496
-0.435248
-0.394038
-0.363499
-0.341353
-0.329382
-0.32552
-0.326023
-1.03835
-1.05718
-1.09934
-1.14117
-1.16441
-1.14863
-1.07751
-0.923127
-0.742186
-0.618778
-0.541557
-0.489968
-0.465885
-0.430667
-0.394476
-0.370446
-0.354653
-0.346485
-0.34369
-0.344135
-1.04647
-1.06148
-1.08963
-1.11983
-1.13961
-1.12722
-1.05176
-0.874361
-0.708158
-0.596372
-0.509404
-0.466905
-0.443274
-0.410101
-0.381759
-0.363902
-0.352185
-0.346018
-0.343924
-0.344356
-0.925817
-0.937391
-0.959988
-0.986314
-1.00576
-0.996319
-0.924404
-0.770998
-0.641601
-0.535046
-0.461692
-0.429759
-0.405482
-0.377353
-0.355363
-0.341397
-0.332336
-0.327785
-0.326305
-0.32678
-0.698843
-0.711255
-0.735399
-0.765822
-0.790563
-0.787666
-0.725139
-0.627548
-0.535283
-0.450955
-0.40833
-0.375865
-0.357825
-0.338169
-0.320045
-0.307723
-0.299776
-0.295468
-0.294172
-0.294783
-0.41275
-0.4239
-0.447006
-0.479659
-0.510448
-0.520316
-0.494689
-0.452404
-0.403225
-0.367592
-0.338917
-0.315431
-0.308378
-0.291154
-0.275274
-0.26564
-0.258474
-0.254542
-0.253618
-0.254361
-0.146791
-0.154408
-0.172512
-0.202483
-0.239265
-0.270528
-0.287966
-0.293155
-0.286788
-0.277078
-0.262088
-0.257572
-0.25429
-0.23952
-0.227213
-0.219009
-0.212872
-0.209878
-0.209412
-0.210135
0.0248976
0.0199903
0.00646645
-0.0195767
-0.0582305
-0.105073
-0.148166
-0.17662
-0.189656
-0.193712
-0.195674
-0.19587
-0.1965
-0.185737
-0.176486
-0.169623
-0.164677
-0.162724
-0.162636
-0.163292
0.0909551
0.0874667
0.0771107
0.0555593
0.0215334
-0.0192083
-0.0609644
-0.0941665
-0.114873
-0.125967
-0.131778
-0.134227
-0.138114
-0.130385
-0.12291
-0.117371
-0.113911
-0.113043
-0.113323
-0.11392
0.0803493
0.0779363
0.0709797
0.0567768
0.0341853
0.0057885
-0.0212197
-0.0419422
-0.0561052
-0.0634165
-0.0701824
-0.0740639
-0.0763832
-0.0712135
-0.0672148
-0.0641461
-0.0617192
-0.0610921
-0.0616677
-0.0623425
0.0237927
0.0234405
0.0228216
0.019694
0.0139983
0.00690907
3.29472e-05
-0.00624978
-0.00977904
-0.0116388
-0.0133361
-0.0145487
-0.0135039
-0.0142231
-0.0144335
-0.015236
-0.0158609
-0.0159047
-0.0143926
-0.0137701
-0.0233242
0.1625
0.332605
0.476019
0.589739
0.678376
0.751367
0.810501
0.824926
0.82181
0.25966
0.378437
0.489477
0.585217
0.665234
0.730847
0.782353
0.817149
0.835829
0.852672
0.450946
0.52982
0.607681
0.675804
0.733646
0.781502
0.819228
0.848137
0.86997
0.88924
0.592464
0.648521
0.704882
0.755373
0.79891
0.835963
0.867128
0.893338
0.913329
0.932234
0.706869
0.749075
0.790943
0.830151
0.865214
0.896264
0.923463
0.946569
0.964365
0.982446
0.802249
0.837283
0.871772
0.904858
0.935392
0.963083
0.987582
1.0082
1.02383
1.04132
0.889457
0.92102
0.952836
0.983633
1.0123
1.03838
1.06128
1.08005
1.09386
1.11087
0.975683
1.00802
1.04017
1.07115
1.09973
1.12534
1.14733
1.16474
1.17704
1.19355
1.06965
1.10599
1.14062
1.17294
1.20197
1.2272
1.24821
1.26441
1.27597
1.29209
1.18254
1.22325
1.26014
1.29291
1.32127
1.34517
1.36472
1.37994
1.39179
1.40785
1.32399
1.36489
1.40007
1.42954
1.45466
1.47622
1.49468
1.51013
1.52322
1.53916
1.49534
1.52738
1.55432
1.57666
1.59672
1.61541
1.63313
1.64988
1.66478
1.6805
1.68145
1.69865
1.71574
1.73242
1.74851
1.76324
1.77713
1.7916
1.80683
1.82412
1.86483
1.87475
1.88792
1.8989
1.9083
1.91796
1.92856
1.93872
1.94801
1.97367
2.08264
2.07694
2.06399
2.04973
2.04343
2.04913
2.06727
2.09579
2.12955
2.16588
2.38546
2.24952
2.17
2.12746
2.11013
2.11411
2.14154
2.1994
2.30706
2.48547
0.750754
0.744453
0.736725
0.725614
0.712048
0.699408
0.689023
0.681029
0.675338
0.672044
0.671742
0.674623
0.679895
0.687281
0.696852
0.708697
0.722269
0.735206
0.7442
0.751744
0.65981
0.665731
0.673806
0.679943
0.683018
0.682516
0.679443
0.675468
0.671908
0.669664
0.669582
0.671888
0.675685
0.680163
0.684288
0.686551
0.68549
0.680862
0.673813
0.665982
0.653038
0.655411
0.658682
0.661461
0.66392
0.666121
0.667316
0.667191
0.666286
0.665525
0.665799
0.667274
0.669105
0.670371
0.670324
0.668878
0.666735
0.664385
0.661411
0.658396
0.648219
0.649308
0.651229
0.653574
0.655456
0.656868
0.658105
0.659124
0.659762
0.660193
0.660818
0.661632
0.662156
0.662082
0.661488
0.660591
0.659279
0.657323
0.655226
0.653751
0.643155
0.643789
0.644922
0.646689
0.648545
0.650156
0.65143
0.652525
0.653552
0.654513
0.655383
0.655987
0.656194
0.65604
0.655545
0.654603
0.653199
0.651607
0.650281
0.649482
0.638179
0.638617
0.639411
0.640726
0.642264
0.643848
0.645354
0.646688
0.647896
0.649058
0.650111
0.650814
0.651076
0.650906
0.650293
0.649334
0.64821
0.647089
0.646199
0.645668
0.63328
0.633606
0.634224
0.635307
0.636622
0.638047
0.639559
0.641079
0.642534
0.643926
0.645192
0.646061
0.646389
0.646226
0.645692
0.644958
0.644151
0.643324
0.642679
0.64229
0.62843
0.628683
0.629182
0.630109
0.631305
0.632644
0.634106
0.635688
0.637343
0.639012
0.640552
0.64162
0.642088
0.64209
0.641788
0.641304
0.640719
0.640127
0.639664
0.639368
0.623555
0.623756
0.624173
0.624992
0.626115
0.627413
0.62887
0.630509
0.63232
0.634258
0.636122
0.637486
0.63822
0.638491
0.638449
0.638208
0.637842
0.63745
0.637131
0.636899
0.618568
0.618729
0.619088
0.619837
0.620919
0.622207
0.623704
0.625441
0.627431
0.629654
0.631903
0.63367
0.634767
0.635361
0.635601
0.635612
0.635476
0.63527
0.63507
0.634884
0.613376
0.613506
0.613824
0.614531
0.615603
0.616925
0.618504
0.620386
0.622612
0.625185
0.627905
0.630169
0.631703
0.632671
0.633232
0.633517
0.633611
0.633589
0.633491
0.633342
0.607885
0.607989
0.60828
0.608972
0.610069
0.61147
0.613175
0.615261
0.617794
0.620811
0.624108
0.626969
0.629017
0.630421
0.631347
0.631932
0.632283
0.632442
0.632434
0.632312
0.601992
0.602074
0.60235
0.603051
0.604209
0.605731
0.607619
0.609978
0.612906
0.616476
0.620478
0.624057
0.626717
0.628627
0.629975
0.630919
0.631542
0.631881
0.631955
0.631853
0.59558
0.595642
0.595912
0.596645
0.597901
0.599592
0.60173
0.604443
0.60787
0.612121
0.61698
0.621422
0.624812
0.627324
0.629156
0.6305
0.631435
0.63197
0.632124
0.632038
0.588508
0.588551
0.588824
0.589612
0.591006
0.592921
0.595383
0.598549
0.602596
0.607684
0.613582
0.619062
0.623319
0.626541
0.628949
0.630752
0.632046
0.632795
0.633026
0.632952
0.580622
0.580639
0.580915
0.58178
0.583355
0.585561
0.588435
0.592169
0.596987
0.603099
0.610254
0.616974
0.622259
0.626319
0.629411
0.631767
0.633468
0.634448
0.634757
0.63469
0.571652
0.571664
0.571966
0.572934
0.574743
0.577315
0.580709
0.585153
0.590925
0.598292
0.606962
0.61516
0.621663
0.626708
0.630605
0.633623
0.635792
0.637025
0.637411
0.637347
0.561337
0.561322
0.561667
0.562788
0.564899
0.567941
0.571991
0.577323
0.58428
0.593181
0.603678
0.613627
0.621562
0.627769
0.632615
0.636397
0.63911
0.640617
0.641075
0.641011
0.549325
0.549289
0.549684
0.550992
0.553483
0.557128
0.562013
0.568468
0.576901
0.587682
0.600373
0.612387
0.621992
0.629553
0.635512
0.640173
0.643502
0.645294
0.645817
0.645745
0.535105
0.535047
0.535523
0.537084
0.540061
0.544485
0.550447
0.558337
0.568624
0.581716
0.597032
0.611464
0.622989
0.632101
0.639351
0.645014
0.649014
0.65109
0.651661
0.651574
0.517971
0.517891
0.518495
0.520413
0.524044
0.529504
0.536888
0.546642
0.559287
0.575225
0.593663
0.610885
0.624593
0.635459
0.644146
0.650935
0.655648
0.657978
0.658568
0.658459
0.496919
0.496823
0.497633
0.500069
0.504621
0.51152
0.520842
0.533077
0.548753
0.568198
0.590311
0.610698
0.626842
0.639647
0.649905
0.657918
0.663328
0.665843
0.666412
0.666274
0.470415
0.470319
0.471481
0.474724
0.480678
0.489674
0.501753
0.517375
0.536969
0.560699
0.587074
0.610982
0.629766
0.64466
0.656608
0.665875
0.67188
0.67446
0.674958
0.674785
0.435977
0.435935
0.437726
0.442361
0.450674
0.46299
0.479137
0.499421
0.52404
0.552911
0.584112
0.611841
0.633411
0.650485
0.664166
0.674627
0.681015
0.683489
0.683861
0.683654
0.389195
0.38938
0.39257
0.400141
0.412859
0.430637
0.452843
0.479434
0.510305
0.545147
0.581646
0.613403
0.637831
0.657082
0.672464
0.683914
0.690326
0.692479
0.692686
0.692457
0.321818
0.323271
0.331049
0.345405
0.366259
0.39275
0.423508
0.458121
0.496351
0.537822
0.579919
0.615772
0.643037
0.664373
0.68122
0.693248
0.699248
0.700879
0.700922
0.7007
0.241377
0.244212
0.259365
0.284177
0.316189
0.35296
0.392949
0.435985
0.481952
0.530556
0.578932
0.619625
0.650414
0.674374
0.692779
0.704912
0.710216
0.711399
0.711383
0.71125
0.158979
0.166367
0.189144
0.224394
0.267184
0.314005
0.363215
0.414702
0.468419
0.524121
0.578713
0.624147
0.658323
0.684811
0.70466
0.716408
0.720532
0.721146
0.72108
0.721002
0.0915501
0.101009
0.128623
0.171255
0.222477
0.277792
0.33529
0.394674
0.455743
0.518154
0.578507
0.628199
0.665281
0.69376
0.714337
0.725475
0.728894
0.729338
0.729281
0.729228
0.0362499
0.0464567
0.077753
0.125848
0.183422
0.245499
0.30993
0.376217
0.443928
0.512508
0.578167
0.631719
0.671364
0.701447
0.722518
0.733194
0.736168
0.736514
0.73647
0.73643
-0.0100608
0.000486849
0.0343034
0.0866458
0.1494
0.217075
0.287341
0.359588
0.433195
0.50739
0.57793
0.635018
0.676939
0.70839
0.729788
0.740029
0.742719
0.743033
0.743008
0.742979
-0.0498402
-0.0391509
-0.00346159
0.0522759
0.119349
0.191824
0.267176
0.34469
0.423608
0.502957
0.578041
0.638398
0.682361
0.714928
0.736466
0.746323
0.748843
0.749166
0.749179
0.749168
-0.0848043
-0.0740762
-0.0369286
0.021618
0.0923687
0.169018
0.248889
0.331175
0.414997
0.499176
0.578585
0.642031
0.687872
0.721378
0.742946
0.752473
0.754875
0.755228
0.755305
0.755325
-0.11623
-0.105495
-0.0671882
-0.00622552
0.0677263
0.148056
0.231981
0.318648
0.407067
0.495878
0.579488
0.645969
0.693622
0.728018
0.749626
0.758888
0.761191
0.761588
0.761743
0.761808
-0.145145
-0.134382
-0.0950551
-0.0319491
0.0448545
0.12846
0.216046
0.306758
0.399522
0.492836
0.580621
0.650187
0.699702
0.735046
0.756779
0.765882
0.768145
0.768566
0.768767
0.768871
-0.172133
-0.161329
-0.121087
-0.0560525
0.0232952
0.109842
0.200764
0.295225
0.392111
0.489826
0.581854
0.654621
0.706135
0.742559
0.764559
0.773585
0.775789
0.776196
0.776409
0.776543
-0.197685
-0.18682
-0.145719
-0.0789332
0.00270261
0.09191
0.185883
0.283823
0.384632
0.486667
0.58304
0.659197
0.712848
0.75044
0.772807
0.781836
0.783988
0.784333
0.784523
0.784662
-0.222186
-0.21117
-0.169263
-0.100865
-0.0171642
0.0744462
0.171217
0.272388
0.376911
0.483196
0.584024
0.663798
0.719747
0.758581
0.781344
0.790367
0.792437
0.792692
0.792831
0.79295
-0.245773
-0.234581
-0.191904
-0.122039
-0.0364728
0.0573169
0.156635
0.260794
0.36882
0.479245
0.584644
0.668316
0.726755
0.766833
0.789943
0.798874
0.800816
0.800964
0.801031
0.801125
-0.26864
-0.257221
-0.213805
-0.142564
-0.0553215
0.0404263
0.142056
0.248959
0.360266
0.474691
0.58474
0.672626
0.733834
0.775171
0.798408
0.807088
0.808834
0.808869
0.808865
0.808932
-0.290793
-0.279164
-0.235035
-0.162508
-0.0737626
0.0237325
0.127447
0.236844
0.351189
0.469426
0.584157
0.67659
0.740961
0.783642
0.806747
0.814875
0.816291
0.816221
0.816166
0.816206
-0.312324
-0.300456
-0.255593
-0.181894
-0.0918237
0.00722085
0.112796
0.224446
0.341566
0.463382
0.582751
0.680058
0.748111
0.792437
0.81518
0.822287
0.823121
0.822911
0.822854
0.822886
-0.333122
-0.321076
-0.275495
-0.200742
-0.109498
-0.00907792
0.0981238
0.211779
0.331405
0.456533
0.580398
0.682856
0.755219
0.801754
0.82416
0.829721
0.82939
0.828903
0.828966
0.829087
-0.353317
-0.341025
-0.294746
-0.219061
-0.126785
-0.0251573
0.0834866
0.198883
0.320736
0.448885
0.577003
0.684789
0.762121
0.811716
0.834303
0.838061
0.835763
0.83439
0.834703
0.835292
-0.372783
-0.360259
-0.313357
-0.236826
-0.143627
-0.0409579
0.0689386
0.185842
0.309621
0.440444
0.572508
0.685651
0.76857
0.822225
0.846082
0.848646
0.843954
0.840617
0.84074
0.842322
-0.391629
-0.378844
-0.331289
-0.253999
-0.160008
-0.0564322
0.0545459
0.172713
0.298136
0.431296
0.566896
0.685215
0.774236
0.832886
0.859348
0.862355
0.85623
0.85005
0.845689
0.839318
-0.409754
-0.396779
-0.348635
-0.270749
-0.176149
-0.071853
0.03999
0.159119
0.285875
0.421008
0.559762
0.683078
0.778959
0.843789
0.874091
0.879512
0.873721
0.864025
0.851356
0.851171
-0.427131
-0.414148
-0.36541
-0.28703
-0.192049
-0.087193
0.0252886
0.145025
0.272783
0.409415
0.550841
0.678599
0.78177
0.854057
0.888478
0.89673
0.89124
0.880378
0.844447
0.806695
-0.443577
-0.430811
-0.381582
-0.302723
-0.207715
-0.102467
0.0104267
0.130546