/*--------------------------------*- C++ -*----------------------------------*\
  =========                 |
  \\      /  F ield         | OpenFOAM: The Open Source CFD Toolbox
   \\    /   O peration     | Website:  https://openfoam.org
    \\  /    A nd           | Version:  6
     \\/     M anipulation  |
\*---------------------------------------------------------------------------*/
FoamFile
{
    version     2.0;
    format      ascii;
    class       volScalarField;
    location    "73.4";
    object      p;
}
// * * * * * * * * * * * * * * * * * * * * * * * * * * * * * * * * * * * * * //

dimensions      [0 2 -2 0 0 0 0];

internalField   nonuniform List<scalar> 
8800
(
0.805022
0.755707
0.71774
0.68967
0.669506
0.654915
0.644312
0.636764
0.631869
0.629786
0.631142
0.635474
0.642259
0.651676
0.66441
0.681728
0.705604
0.738701
0.781638
0.834152
0.639517
0.645862
0.655011
0.658558
0.655947
0.649855
0.64291
0.636661
0.63185
0.628969
0.628723
0.631338
0.635971
0.642093
0.649189
0.65622
0.661098
0.660972
0.654298
0.645399
0.613035
0.61927
0.623769
0.627638
0.630583
0.631528
0.630433
0.628303
0.626312
0.625459
0.626476
0.628919
0.631798
0.634063
0.634581
0.632791
0.629424
0.625411
0.62063
0.616914
0.608738
0.611503
0.614108
0.616263
0.617997
0.619561
0.620658
0.621002
0.620876
0.62096
0.62175
0.622882
0.623616
0.623461
0.622483
0.621127
0.619457
0.617155
0.614744
0.613178
0.603687
0.605112
0.606949
0.609028
0.610736
0.612024
0.613115
0.614086
0.614883
0.615604
0.616299
0.616748
0.616764
0.616397
0.615726
0.61461
0.612954
0.61106
0.609707
0.608904
0.598702
0.599605
0.60085
0.602474
0.604163
0.60569
0.606967
0.608079
0.60913
0.610131
0.610901
0.611279
0.611282
0.61091
0.610106
0.608917
0.607556
0.60629
0.60547
0.604946
0.593801
0.594457
0.595416
0.59673
0.598173
0.599684
0.601161
0.602515
0.603763
0.60495
0.605885
0.606368
0.606379
0.605939
0.605157
0.604215
0.603224
0.602321
0.601742
0.601358
0.588981
0.589486
0.590269
0.591406
0.592702
0.594113
0.595613
0.597143
0.59864
0.600077
0.601215
0.601813
0.601886
0.601562
0.600999
0.600312
0.599577
0.598916
0.59849
0.59819
0.584186
0.584587
0.585245
0.586263
0.587488
0.588846
0.590343
0.591972
0.593687
0.595412
0.596809
0.597605
0.597876
0.597786
0.597467
0.597004
0.596477
0.596011
0.595698
0.595454
0.579336
0.579663
0.580234
0.581174
0.582354
0.583704
0.585239
0.586973
0.58889
0.590922
0.592659
0.593769
0.594334
0.594516
0.594441
0.59421
0.593883
0.593582
0.593353
0.593149
0.574342
0.574613
0.575125
0.57602
0.577187
0.578567
0.580184
0.582067
0.584226
0.586615
0.588779
0.590294
0.591214
0.591704
0.591896
0.591902
0.591778
0.59162
0.591459
0.591282
0.569113
0.569341
0.569815
0.570696
0.57189
0.573344
0.575086
0.577175
0.579645
0.582479
0.585164
0.587163
0.588498
0.589342
0.589833
0.590082
0.590167
0.590146
0.590041
0.589883
0.563555
0.56375
0.564206
0.565103
0.566364
0.567936
0.569859
0.572223
0.575092
0.578478
0.581795
0.58437
0.586191
0.587441
0.588271
0.588791
0.589096
0.589201
0.589144
0.588999
0.557564
0.557732
0.558187
0.559128
0.560496
0.562239
0.564412
0.567133
0.570505
0.574571
0.578652
0.581918
0.584313
0.586033
0.587252
0.588095
0.58862
0.588849
0.588832
0.588695
0.551015
0.551162
0.551631
0.552645
0.554167
0.556141
0.558641
0.561819
0.565815
0.570713
0.575721
0.579813
0.58289
0.585163
0.586826
0.588019
0.588803
0.589162
0.589183
0.589049
0.543767
0.54389
0.544389
0.545506
0.547232
0.549509
0.552428
0.55618
0.560951
0.566866
0.57299
0.578067
0.58195
0.584877
0.587065
0.588669
0.589738
0.590232
0.590286
0.590151
0.535626
0.535737
0.536277
0.537529
0.539519
0.542181
0.545629
0.550099
0.555827
0.562982
0.570447
0.576698
0.581533
0.585229
0.588047
0.59013
0.591521
0.592155
0.592241
0.592102
0.52635
0.526453
0.527049
0.528478
0.530813
0.533965
0.538079
0.543445
0.550353
0.559015
0.56809
0.575734
0.581691
0.58629
0.589851
0.592495
0.594249
0.595033
0.595146
0.594999
0.515623
0.515711
0.516395
0.518064
0.520837
0.524612
0.529568
0.536058
0.544427
0.554924
0.565921
0.575202
0.582477
0.588142
0.592554
0.59586
0.598022
0.598958
0.599094
0.598934
0.503059
0.503133
0.503922
0.505903
0.509238
0.513815
0.519851
0.527761
0.537946
0.550674
0.563956
0.575148
0.583946
0.590847
0.596254
0.600317
0.602918
0.604003
0.604154
0.603979
0.488087
0.488155
0.489089
0.491485
0.495558
0.501189
0.508625
0.518354
0.53081
0.546248
0.562224
0.57562
0.586154
0.594468
0.601016
0.60592
0.608983
0.610202
0.610355
0.610162
0.469909
0.469969
0.47112
0.474105
0.47919
0.486242
0.49554
0.50763
0.522942
0.541658
0.560771
0.576672
0.58916
0.599058
0.606859
0.612691
0.616206
0.617525
0.617664
0.617451
0.447339
0.447404
0.448903
0.452769
0.459309
0.468359
0.480211
0.495421
0.514332
0.536979
0.559686
0.578368
0.593003
0.604641
0.613798
0.620586
0.624496
0.625857
0.625961
0.625728
0.418557
0.418653
0.420755
0.426048
0.434847
0.446845
0.462306
0.481672
0.505088
0.532367
0.559101
0.580794
0.597717
0.611188
0.621782
0.629476
0.633654
0.63497
0.635017
0.634768
0.380444
0.38067
0.384008
0.391935
0.404546
0.421094
0.441715
0.466557
0.495483
0.528077
0.559193
0.584052
0.603333
0.618658
0.630696
0.639128
0.643365
0.644528
0.644498
0.64424
0.327045
0.328163
0.334808
0.348197
0.367476
0.391067
0.418829
0.450576
0.48596
0.524431
0.560158
0.588237
0.60986
0.626981
0.64031
0.649195
0.653198
0.654108
0.653997
0.65374
0.249753
0.257334
0.27259
0.296007
0.325246
0.358262
0.394708
0.434347
0.476847
0.521666
0.562306
0.593799
0.617945
0.636968
0.651397
0.660413
0.664008
0.664649
0.664485
0.664262
0.167575
0.184127
0.208899
0.243094
0.282818
0.325406
0.370564
0.418224
0.468156
0.519888
0.566188
0.60173
0.628832
0.649972
0.665412
0.674063
0.676922
0.677272
0.677128
0.676983
0.0971449
0.117379
0.150094
0.19356
0.242605
0.29421
0.347848
0.403397
0.460588
0.518928
0.570491
0.609665
0.639285
0.662037
0.67787
0.685784
0.688036
0.688294
0.688202
0.688093
0.0394938
0.0619855
0.100158
0.150269
0.206611
0.265772
0.326905
0.389696
0.453696
0.518279
0.574758
0.61727
0.649076
0.673045
0.689054
0.696538
0.698552
0.698807
0.698767
0.698682
-0.00825689
0.0155727
0.0576955
0.112995
0.175173
0.240558
0.30809
0.377294
0.447518
0.517956
0.579113
0.624799
0.658671
0.683854
0.700172
0.707461
0.709312
0.70958
0.709585
0.709521
-0.0487429
-0.0241234
0.0209103
0.0804298
0.147531
0.218234
0.291318
0.366218
0.442126
0.518053
0.583707
0.632486
0.668447
0.694871
0.711622
0.718884
0.720762
0.721025
0.72106
0.721012
-0.0840195
-0.0588812
-0.0115741
0.0514461
0.122764
0.198117
0.27615
0.356224
0.437394
0.518495
0.58851
0.640359
0.678401
0.706127
0.723474
0.731019
0.732931
0.733193
0.733234
0.733199
-0.115602
-0.0900477
-0.0408718
0.0251341
0.100117
0.179573
0.262075
0.34691
0.433022
0.519103
0.593348
0.648242
0.68838
0.717506
0.735607
0.743488
0.745496
0.745746
0.745773
0.745753
-0.144531
-0.118595
-0.0678259
0.000780311
0.0789939
0.1621
0.248652
0.337902
0.428719
0.519625
0.598018
0.655925
0.698168
0.728684
0.747579
0.755798
0.757941
0.758178
0.758188
0.758175
-0.171628
-0.145286
-0.0930918
-0.0221415
0.058935
0.145314
0.235559
0.328913
0.424186
0.519775
0.602322
0.663218
0.707539
0.739416
0.759039
0.767614
0.769888
0.770135
0.770107
0.770091
-0.197304
-0.170573
-0.117067
-0.044031
0.0396054
0.128932
0.222548
0.319699
0.419203
0.5194
0.606102
0.670014
0.716367
0.74953
0.769797
0.778659
0.781016
0.781243
0.78118
0.781153
-0.222023
-0.194822
-0.140102
-0.0651743
0.0207608
0.112743
0.209433
0.310115
0.413642
0.518349
0.609247
0.676238
0.724608
0.75894
0.779732
0.78873
0.791114
0.791314
0.791213
0.791173
-0.245932
-0.218255
-0.16239
-0.0857559
0.00223811
0.0966186
0.196112
0.300065
0.407386
0.516489
0.611675
0.681862
0.732277
0.767658
0.788764
0.797783
0.800124
0.800282
0.80015
0.800095
-0.269178
-0.24099
-0.184067
-0.105882
-0.016042
0.0804931
0.182527
0.28947
0.400353
0.513744
0.6133
0.686888
0.739437
0.775782
0.797006
0.805864
0.808087
0.808198
0.808038
0.807971
-0.291865
-0.263155
-0.205195
-0.125603
-0.0341273
0.0643371
0.168656
0.278323
0.392516
0.510041
0.614042
0.6913
0.746214
0.783502
0.804617
0.813085
0.815093
0.815131
0.814953
0.814877
-0.314067
-0.284762
-0.225796
-0.144935
-0.052009
0.0481564
0.154518
0.266641
0.383871
0.505311
0.613817
0.695069
0.752713
0.791039
0.811825
0.819618
0.821249
0.821184
0.820994
0.820913
-0.335654
-0.305784
-0.245859
-0.163875
-0.0696696
0.0319992
0.140155
0.25447
0.374441
0.499548
0.612534
0.698117
0.758998
0.798691
0.819011
0.825725
0.826681
0.826441
0.826259
0.826187
-0.356616
-0.326201
-0.265387
-0.182396
-0.0870664
0.0159105
0.125639
0.241863
0.364283
0.492749
0.610114
0.700321
0.76504
0.806704
0.826727
0.831965
0.831692
0.831024
0.830883
0.830882
-0.377006
-0.345992
-0.284366
-0.200474
-0.104149
-3.91694e-05
0.111045
0.22891
0.353469
0.484942
0.606471
0.701534
0.770687
0.815143
0.83559
0.839397
0.837169
0.835326
0.835073
0.835435
-0.396685
-0.365131
-0.302744
-0.218053
-0.120869
-0.0157733
0.0964622
0.21571
0.342097
0.476201
0.601546
0.701571
0.775679
0.823756
0.84586
0.849344
0.845201
0.840918
0.838826
0.838091
-0.415745
-0.383633
-0.320533
-0.235169
-0.137265
-0.0313323
0.0818382
0.202203
0.330097
0.466462
0.595181
0.700175
0.779779
0.832103
0.857153
0.862402
0.858125
0.850636
0.841409
0.842347
-0.434109
-0.401563
-0.337868
-0.252017
-0.153628
-0.0470401
0.0667664
0.187918
0.316943
0.455122
0.586754
0.696632
0.782624
0.839729
0.868203
0.876947
0.873104
0.860942
0.841784
0.840872
-0.451646
-0.418891
-0.354589
-0.268413
-0.169696
-0.0625999
0.0514449
0.173167
0.302909
0.44239
0.576255
0.690165
0.783252
0.845371
0.87498
0.88436
0.881511
0.854629
0.79725
0.772683
-0.468242
-0.436524
-0.370304
-0.283921
-0.184687
-0.07753
0.036155
0.158223
0.288273
0.42843
0.563724
0.680121
0.78046
0.847892
0.872464
0.876677
0.860008
0.806743
0.744506
0.706692
-0.510721
-0.453766
-0.38472
-0.299453
-0.199351
-0.0928004
0.0210403
0.142963
0.272825
0.412872
0.548718
0.665788
0.770254
0.843444
0.857636
0.840569
0.789175
0.721786
0.652078
0.613727
-0.485723
-0.467475
-0.406672
-0.320682
-0.222069
-0.115752
-0.00259123
0.118706
0.247723
0.386514
0.52128
0.636866
0.733441
0.814247
0.794387
0.681304
0.587804
0.522884
0.457686
0.483213
-0.516236
-0.484798
-0.423144
-0.337652
-0.239412
-0.133246
-0.0199041
0.100745
0.228766
0.365851
0.498148
0.610398
0.69578
0.741538
0.686099
0.542729
0.430939
0.35559
0.27238
0.316232
-0.539852
-0.506029
-0.442662
-0.357124
-0.258938
-0.15279
-0.0395705
0.0802854
0.206951
0.341664
0.470149
0.57643
0.650279
0.657715
0.547176
0.388856
0.257425
0.163161
0.0667104
0.0967116
-0.562811
-0.527953
-0.463232
-0.377046
-0.278792
-0.172773
-0.0600815
0.0587994
0.183855
0.315741
0.439296
0.537045
0.594178
0.567888
0.406104
0.226545
0.0648049
-0.0704708
-0.195779
-0.184319
-0.585488
-0.550253
-0.484635
-0.397867
-0.299491
-0.193706
-0.0816944
0.0360442
0.159174
0.287763
0.405465
0.494707
0.530815
0.45799
0.267189
0.0679937
-0.120436
-0.275447
-0.481418
-0.560727
-0.608571
-0.573396
-0.507252
-0.420074
-0.321558
-0.215972
-0.104587
0.0119552
0.133002
0.257973
0.369282
0.449031
0.458627
0.334597
0.140401
-0.0705085
-0.263831
-0.426324
-0.550497
-0.668208
-0.633132
-0.597866
-0.53144
-0.444054
-0.345532
-0.240253
-0.129604
-0.0144556
0.10413
0.22487
0.329306
0.395914
0.37765
0.217461
0.0217319
-0.183115
-0.359708
-0.457671
-0.483942
-0.49738
-0.659297
-0.623956
-0.55733
-0.469896
-0.37156
-0.266774
-0.157124
-0.0437065
0.071935
0.187653
0.284753
0.333313
0.295466
0.104734
-0.0889579
-0.273608
-0.407007
-0.445206
-0.454122
-0.454459
-0.687344
-0.651789
-0.584962
-0.49759
-0.399594
-0.295547
-0.187175
-0.0758606
0.0363392
0.146287
0.234982
0.266914
0.197007
0.00173532
-0.185741
-0.346391
-0.421351
-0.435448
-0.436493
-0.43636
-0.717284
-0.681398
-0.614355
-0.527134
-0.429653
-0.326566
-0.219775
-0.110944
-0.0026534
0.100877
0.179862
0.196886
0.0884053
-0.0914995
-0.268858
-0.39683
-0.425922
-0.426334
-0.42677
-0.426301
-0.74886
-0.712615
-0.64541
-0.55845
-0.461655
-0.359784
-0.254902
-0.14894
-0.0449995
0.0515592
0.120673
0.11852
-0.00773348
-0.176922
-0.33397
-0.407891
-0.422673
-0.420826
-0.42057
-0.420152
-0.781511
-0.745091
-0.67786
-0.591304
-0.49541
-0.395043
-0.29241
-0.189732
-0.0904838
-0.00125536
0.0578387
0.0394102
-0.0964454
-0.251288
-0.37562
-0.414836
-0.414732
-0.415673
-0.415764
-0.41553
-0.81479
-0.778289
-0.711213
-0.625274
-0.530559
-0.432014
-0.33201
-0.233045
-0.138814
-0.0566706
-0.00996215
-0.0352986
-0.177418
-0.309947
-0.397989
-0.408303
-0.411178
-0.412183
-0.412278
-0.41225
-0.847732
-0.811319
-0.744726
-0.659711
-0.566539
-0.470208
-0.373229
-0.278385
-0.189578
-0.113869
-0.0778251
-0.110372
-0.247702
-0.356267
-0.403763
-0.416513
-0.412412
-0.410574
-0.41005
-0.409947
-0.878487
-0.842879
-0.777348
-0.693709
-0.602553
-0.508901
-0.415386
-0.325003
-0.242019
-0.172399
-0.140878
-0.188712
-0.307142
-0.400572
-0.421046
-0.420144
-0.415137
-0.411337
-0.410231
-0.409784
-0.905967
-0.871439
-0.807657
-0.726046
-0.637519
-0.54713
-0.457583
-0.371973
-0.294884
-0.231782
-0.202559
-0.257042
-0.353503
-0.431617
-0.451251
-0.435652
-0.425769
-0.421568
-0.419481
-0.418377
-0.92743
-0.894868
-0.833867
-0.755167
-0.670091
-0.583687
-0.498684
-0.418228
-0.346828
-0.29022
-0.263977
-0.309794
-0.382544
-0.435876
-0.43746
-0.439078
-0.440699
-0.438836
-0.436284
-0.435411
-0.940763
-0.910995
-0.853865
-0.779294
-0.698705
-0.617159
-0.537343
-0.46248
-0.396742
-0.344929
-0.319998
-0.35176
-0.394961
-0.430286
-0.4289
-0.433992
-0.436406
-0.436304
-0.436165
-0.436498
-0.943225
-0.917386
-0.8655
-0.79654
-0.72169
-0.646037
-0.572125
-0.503158
-0.443433
-0.395064
-0.365975
-0.388866
-0.399955
-0.421602
-0.425784
-0.428113
-0.429548
-0.429982
-0.43041
-0.430486
-0.932517
-0.911509
-0.86662
-0.805114
-0.737539
-0.668895
-0.601672
-0.538709
-0.485051
-0.44182
-0.39956
-0.423343
-0.407955
-0.405629
-0.415715
-0.423558
-0.427326
-0.428811
-0.42925
-0.429323
-0.906067
-0.890633
-0.855262
-0.80374
-0.745176
-0.684724
-0.624866
-0.568127
-0.519535
-0.483816
-0.438032
-0.440766
-0.441816
-0.446977
-0.449746
-0.440681
-0.432529
-0.431743
-0.432328
-0.432445
-0.867308
-0.857439
-0.832493
-0.792646
-0.744533
-0.693311
-0.641112
-0.590776
-0.546466
-0.516313
-0.48706
-0.46921
-0.462198
-0.491283
-0.494788
-0.466406
-0.448747
-0.443497
-0.442903
-0.442552
-0.823325
-0.817713
-0.80329
-0.774898
-0.737746
-0.695402
-0.650753
-0.606091
-0.56561
-0.536006
-0.508577
-0.482364
-0.449
-0.422806
-0.396293
-0.408328
-0.440799
-0.455222
-0.45629
-0.455608
-0.784249
-0.780854
-0.774013
-0.755926
-0.727814
-0.692966
-0.654695
-0.614451
-0.575505
-0.542891
-0.516336
-0.492559
-0.45806
-0.415628
-0.406193
-0.456064
-0.488286
-0.496141
-0.492959
-0.49791
-0.756215
-0.754202
-0.750693
-0.739958
-0.718541
-0.689243
-0.654823
-0.61693
-0.577349
-0.541324
-0.513339
-0.504333
-0.54513
-0.652565
-0.774017
-0.874545
-0.904754
-0.865092
-0.795948
-0.770501
-0.735757
-0.735055
-0.733876
-0.728516
-0.71264
-0.6868
-0.653773
-0.615077
-0.572891
-0.530389
-0.500363
-0.490628
-0.547811
-0.679625
-0.845877
-0.883822
-0.853314
-0.795161
-0.731782
-0.701648
-0.723862
-0.723624
-0.723004
-0.720439
-0.709511
-0.685627
-0.652035
-0.61174
-0.564913
-0.512111
-0.469767
-0.418339
-0.393898
-0.382352
-0.423418
-0.437816
-0.368333
-0.278765
-0.205709
-0.172744
-0.715805
-0.715642
-0.71518
-0.71425
-0.707437
-0.685794
-0.651287
-0.607683
-0.55358
-0.490153
-0.422541
-0.333144
-0.189424
0.00753211
0.212501
0.3884
0.540446
0.636324
0.697139
0.720437
-0.710873
-0.710764
-0.710453
-0.71013
-0.706075
-0.688041
-0.652716
-0.603449
-0.543957
-0.46785
-0.377541
-0.274363
-0.0649417
0.261401
0.62205
0.973039
1.22453
1.34341
1.39029
1.39922
-0.707956
-0.707858
-0.707532
-0.707052
-0.70606
-0.693092
-0.656983
-0.60183
-0.536371
-0.450942
-0.352789
-0.235704
-0.0223272
0.328582
0.706734
1.05764
1.32083
1.44108
1.46605
1.46517
-0.706624
-0.706997
-0.707845
-0.708894
-0.710053
-0.702016
-0.663646
-0.603361
-0.53137
-0.446449
-0.343028
-0.235334
-0.0463528
0.237635
0.52996
0.797745
0.985713
1.06886
1.09867
1.10702
-0.702492
-0.704288
-0.709064
-0.717842
-0.726483
-0.715153
-0.66847
-0.605529
-0.537706
-0.452029
-0.349696
-0.255188
-0.10661
0.127455
0.355764
0.5394
0.661546
0.728701
0.766472
0.781796
-0.698355
-0.700392
-0.704944
-0.713135
-0.721334
-0.70509
-0.659717
-0.612094
-0.552517
-0.463793
-0.366302
-0.286359
-0.17028
0.0218015
0.212756
0.369878
0.489913
0.565731
0.602757
0.613907
-0.720606
-0.721863
-0.718003
-0.690825
-0.649397
-0.636149
-0.637092
-0.626013
-0.571765
-0.480163
-0.391865
-0.320183
-0.23871
-0.0723777
0.0995824
0.239972
0.347097
0.417086
0.446288
0.453489
-0.761046
-0.759697
-0.749404
-0.706611
-0.643079
-0.616671
-0.657449
-0.658355
-0.596452
-0.498216
-0.416122
-0.349804
-0.283152
-0.154138
-0.012325
0.103733
0.194794
0.253053
0.276152
0.280244
-0.82503
-0.823753
-0.837065
-0.853032
-0.852838
-0.827341
-0.8135
-0.745971
-0.631805
-0.520414
-0.438061
-0.376221
-0.321926
-0.217877
-0.0953192
-0.00662319
0.0625952
0.103767
0.118983
0.120812
-0.965964
-0.982336
-1.03423
-1.096
-1.12117
-1.09332
-1.0078
-0.850084
-0.673989
-0.545754
-0.455702
-0.388694
-0.350043
-0.2679
-0.171216
-0.102095
-0.0466066
-0.0166481
-0.00496175
-0.00418336
-1.09401
-1.11803
-1.16629
-1.21074
-1.23082
-1.20223
-1.10016
-0.885826
-0.690403
-0.559719
-0.453891
-0.39591
-0.359251
-0.299507
-0.226125
-0.171754
-0.132022
-0.110964
-0.103333
-0.103837
-1.08262
-1.10012
-1.1332
-1.16612
-1.1826
-1.157
-1.03626
-0.821036
-0.660574
-0.534148
-0.439589
-0.391605
-0.359411
-0.313774
-0.264407
-0.227032
-0.198898
-0.183522
-0.178731
-0.179989
-0.895192
-0.913316
-0.946159
-0.982905
-1.00542
-0.979184
-0.860674
-0.705638
-0.579011
-0.468433
-0.414223
-0.367948
-0.347092
-0.319805
-0.288904
-0.267412
-0.253525
-0.247427
-0.245994
-0.247211
-0.572412
-0.58875
-0.621032
-0.661866
-0.692603
-0.683535
-0.61877
-0.539485
-0.456073
-0.402735
-0.365955
-0.33681
-0.3271
-0.312967
-0.303707
-0.300285
-0.300212
-0.30335
-0.304012
-0.304583
-0.229388
-0.239757
-0.262788
-0.297999
-0.334926
-0.355656
-0.360391
-0.355003
-0.341828
-0.328519
-0.309803
-0.300602
-0.300245
-0.296305
-0.302398
-0.313381
-0.325551
-0.333181
-0.335001
-0.334854
0.00925723
0.00374306
-0.0116032
-0.0412
-0.0857556
-0.13778
-0.184556
-0.219601
-0.242425
-0.254867
-0.262438
-0.261482
-0.265494
-0.274457
-0.289325
-0.304218
-0.318369
-0.325569
-0.327351
-0.327517
0.115876
0.112616
0.101579
0.0767775
0.0354796
-0.0198474
-0.0788207
-0.129963
-0.16935
-0.20113
-0.222358
-0.233283
-0.24329
-0.254803
-0.268482
-0.281533
-0.293145
-0.29815
-0.298838
-0.298888
0.137197
0.134891
0.126678
0.107627
0.0742348
0.0289078
-0.0217017
-0.074135
-0.120252
-0.157427
-0.192099
-0.221457
-0.239526
-0.238739
-0.2425
-0.248397
-0.253187
-0.254616
-0.254435
-0.254633
0.122207
0.120659
0.114878
0.101261
0.0770899
0.042324
0.00110042
-0.0424334
-0.0833086
-0.12322
-0.164697
-0.206208
-0.228555
-0.216806
-0.208656
-0.207395
-0.205802
-0.204082
-0.203543
-0.203876
0.0966787
0.0957583
0.0919599
0.0827939
0.0661692
0.0418057
0.0110221
-0.0237971
-0.0590878
-0.0938875
-0.130061
-0.165711
-0.181125
-0.16888
-0.161561
-0.159654
-0.156811
-0.155591
-0.156125
-0.156849
0.0704411
0.0700012
0.0677057
0.0618538
0.0508695
0.0341271
0.0124698
-0.0123581
-0.03846
-0.0641716
-0.0874055
-0.105301
-0.110483
-0.110112
-0.112884
-0.116803
-0.119065
-0.120925
-0.122042
-0.12257
0.0464161
0.0462864
0.0450944
0.0416711
0.0349572
0.0244565
0.0103658
-0.0058981
-0.0230331
-0.0377947
-0.0466235
-0.0437062
-0.0391416
-0.0513725
-0.0664653
-0.0789492
-0.0873276
-0.0921084
-0.0935785
-0.09365
0.0248871
0.024914
0.0244525
0.0228136
0.0193859
0.0138871
0.00631061
-0.00231341
-0.0113485
-0.0171756
-0.0165192
-0.00234516
0.00838527
-0.0116409
-0.0297829
-0.0431444
-0.0522464
-0.0571259
-0.0582966
-0.058034
0.00444791
0.00454058
0.00460307
0.00485144
0.0046526
0.0038216
0.00251119
0.000896144
-0.000950689
-0.00292855
-0.00242918
0.000431983
0.00642474
0.00314418
-0.00350958
-0.00724946
-0.00998032
-0.0115443
-0.0121126
-0.0118137
-0.053413
0.135092
0.30818
0.454647
0.571886
0.664367
0.741241
0.803686
0.819505
0.816007
0.235899
0.356933
0.47034
0.568703
0.651407
0.719625
0.773341
0.809671
0.829144
0.8458
0.431932
0.512602
0.592381
0.662361
0.721946
0.771355
0.810259
0.839934
0.862293
0.881544
0.577025
0.63424
0.691895
0.743619
0.788235
0.826177
0.858047
0.884799
0.904995
0.923891
0.693615
0.736612
0.779282
0.819256
0.855012
0.886612
0.914261
0.937707
0.955604
0.973649
0.790252
0.825826
0.860871
0.894443
0.925402
0.95345
0.978215
0.999002
1.01474
1.03221
0.878337
0.910218
0.942395
0.973499
1.00241
1.0287
1.05176
1.07065
1.08453
1.10155
0.965141
0.997647
1.03
1.06114
1.08986
1.1156
1.13769
1.15519
1.16755
1.18407
1.05943
1.09581
1.13053
1.16294
1.19208
1.2174
1.2385
1.25477
1.26637
1.28251
1.17243
1.213
1.25001
1.28293
1.31139
1.33537
1.35498
1.37024
1.38213
1.3982
1.31381
1.35483
1.39006
1.41964
1.44483
1.46643
1.48493
1.5004
1.51351
1.52946
1.4853
1.51764
1.54453
1.56684
1.58692
1.60564
1.62337
1.64014
1.65505
1.67077
1.67159
1.68885
1.70596
1.72264
1.73873
1.75346
1.76736
1.78184
1.79708
1.81437
1.85497
1.86493
1.87813
1.88911
1.89852
1.90818
1.91878
1.92896
1.93825
1.96391
2.07286
2.06715
2.05421
2.03995
2.03364
2.03936
2.0575
2.08602
2.11978
2.15611
2.37567
2.23971
2.16021
2.11769
2.10036
2.10434
2.13177
2.18964
2.2973
2.4757
0.708716
0.702413
0.694684
0.68357
0.67
0.657353
0.646959
0.638952
0.633242
0.629923
0.62959
0.632444
0.637693
0.645064
0.654622
0.666459
0.680026
0.692958
0.70195
0.709492
0.61778
0.6237
0.631773
0.637906
0.640977
0.640467
0.637384
0.633395
0.629815
0.627544
0.627431
0.629707
0.63348
0.637941
0.642054
0.644307
0.643239
0.638607
0.631555
0.623723
0.611023
0.613395
0.616663
0.619438
0.62189
0.624083
0.625266
0.625126
0.624199
0.623409
0.623649
0.62509
0.626894
0.62814
0.628078
0.626622
0.624471
0.622115
0.619136
0.61612
0.606223
0.607311
0.609229
0.611569
0.613444
0.614847
0.61607
0.617071
0.617684
0.618083
0.618667
0.619442
0.619936
0.619839
0.619226
0.618316
0.616994
0.615032
0.612929
0.611453
0.601186
0.601819
0.602949
0.60471
0.606557
0.608156
0.609414
0.610488
0.611486
0.612409
0.613231
0.613791
0.613961
0.61378
0.613263
0.612304
0.610888
0.609287
0.607955
0.607155
0.596243
0.596682
0.597472
0.59878
0.600306
0.601876
0.603363
0.604672
0.605845
0.606962
0.607959
0.608609
0.608827
0.608624
0.607984
0.607004
0.605866
0.604732
0.603836
0.603303
0.591386
0.591713
0.592327
0.593401
0.594703
0.596111
0.597601
0.59909
0.600504
0.601842
0.603042
0.603845
0.604121
0.603916
0.603349
0.60259
0.601763
0.600922
0.600268
0.599878
0.586588
0.586842
0.587337
0.588254
0.589434
0.590753
0.592188
0.593734
0.59534
0.596944
0.598404
0.599394
0.599796
0.599747
0.599403
0.598888
0.598278
0.597668
0.597195
0.596897
0.581777
0.581978
0.582391
0.583199
0.584303
0.585577
0.587002
0.588598
0.590351
0.592211
0.593978
0.595246
0.5959
0.596107
0.596014
0.595732
0.595336
0.594922
0.59459
0.594357
0.576866
0.577028
0.577383
0.578119
0.579179
0.580438
0.581898
0.583583
0.585504
0.587634
0.589767
0.591417
0.592415
0.59293
0.593106
0.593066
0.59289
0.592656
0.592442
0.592255
0.571766
0.571897
0.572211
0.572904
0.57395
0.575239
0.576772
0.578594
0.580737
0.5832
0.585779
0.587901
0.589313
0.590184
0.590665
0.590886
0.590931
0.590873
0.590759
0.590608
0.566386
0.566492
0.566778
0.567453
0.568521
0.569883
0.571536
0.57355
0.575985
0.57887
0.581998
0.584687
0.586587
0.58787
0.588697
0.589203
0.589486
0.589603
0.589577
0.589454
0.560626
0.56071
0.560981
0.561663
0.562788
0.564265
0.566092
0.568367
0.57118
0.574592
0.578392
0.581762
0.584241
0.586003
0.587226
0.588066
0.588612
0.588897
0.58895
0.588848
0.554374
0.554438
0.554702
0.555414
0.556634
0.558273
0.56034
0.562957
0.566248
0.570313
0.57493
0.579121
0.582291
0.584618
0.586296
0.587514
0.588347
0.588818
0.588948
0.588861
0.547494
0.54754
0.547806
0.54857
0.549923
0.551781
0.554163
0.557216
0.561107
0.565976
0.571588
0.576764
0.580754
0.58375
0.585965
0.587609
0.588778
0.589448
0.589653
0.589579
0.539834
0.539855
0.540123
0.540966
0.542496
0.544638
0.547421
0.551027
0.555663
0.56152
0.568336
0.574693
0.579656
0.583438
0.586292
0.588447
0.589995
0.590882
0.591161
0.591096
0.531147
0.531163
0.531452
0.532392
0.534154
0.536658
0.53995
0.544247
0.54981
0.556878
0.56515
0.572917
0.579031
0.58374
0.587345
0.590113
0.592095
0.593219
0.593572
0.593512
0.521166
0.521157
0.52149
0.52258
0.524644
0.527609
0.531544
0.53671
0.543425
0.551978
0.562007
0.571448
0.578922
0.584723
0.589212
0.59269
0.595174
0.596558
0.596984
0.596925
0.509568
0.509536
0.509921
0.511201
0.513637
0.517196
0.521953
0.528219
0.536374
0.546752
0.558896
0.570314
0.579372
0.586449
0.591973
0.59627
0.599329
0.600986
0.60148
0.601416
0.495851
0.495797
0.496261
0.497794
0.500716
0.505045
0.510865
0.51854
0.528509
0.541135
0.555817
0.56955
0.580433
0.588973
0.595701
0.60094
0.604628
0.606563
0.607112
0.607038
0.479344
0.479268
0.479859
0.481744
0.485316
0.490672
0.497897
0.507407
0.519685
0.535085
0.55279
0.569204
0.582163
0.59236
0.600445
0.60673
0.611102
0.6133
0.613884
0.613792
0.459069
0.458977
0.459772
0.462172
0.46666
0.473444
0.482585
0.494537
0.509784
0.528604
0.549873
0.569335
0.584616
0.596653
0.606216
0.613662
0.618722
0.621136
0.621721
0.621603
0.433566
0.433473
0.43461
0.437805
0.443679
0.452548
0.464412
0.479693
0.498781
0.521783
0.547185
0.57004
0.587845
0.601869
0.613031
0.621682
0.62737
0.629908
0.63045
0.630299
0.400442
0.400399
0.40215
0.406722
0.414917
0.427052
0.442924
0.462791
0.486808
0.51483
0.544912
0.571443
0.591911
0.608011
0.620822
0.630662
0.636815
0.639335
0.639781
0.639595
0.355446
0.355613
0.358706
0.366147
0.378683
0.39619
0.418018
0.444082
0.474228
0.508081
0.543295
0.57369
0.596884
0.615052
0.6295
0.640376
0.646705
0.64901
0.649313
0.649098
0.290633
0.292003
0.299519
0.313571
0.334074
0.360127
0.390354
0.424287
0.461641
0.501966
0.542601
0.576904
0.602777
0.622931
0.63879
0.650372
0.656515
0.658383
0.658519
0.658299
0.213306
0.216001
0.230605
0.254815
0.286219
0.322393
0.361712
0.403953
0.448941
0.496302
0.543103
0.582086
0.611288
0.633922
0.651368
0.663329
0.669058
0.670587
0.670665
0.670533
0.134198
0.141286
0.16321
0.197579
0.239554
0.28561
0.334024
0.384629
0.43732
0.491751
0.544744
0.588384
0.620822
0.64579
0.664692
0.676669
0.68152
0.682522
0.682535
0.682459
0.0696589
0.0786656
0.105279
0.146835
0.197126
0.25157
0.308184
0.366632
0.426672
0.487855
0.546668
0.594587
0.629858
0.656679
0.676392
0.688038
0.692353
0.693213
0.693274
0.693247
0.0168128
0.0265442
0.0567275
0.103626
0.160176
0.221327
0.284841
0.350192
0.416929
0.484417
0.548723
0.600668
0.638569
0.667056
0.68744
0.698956
0.703016
0.703811
0.703917
0.703933
-0.0273723
-0.0173295
0.0152874
0.0663549
0.128036
0.194762
0.264115
0.335472
0.408216
0.48153
0.551049
0.606851
0.647302
0.677446
0.698636
0.710207
0.714045
0.714884
0.715047
0.715104
-0.0653777
-0.0552045
-0.0207722
0.0336318
0.0996098
0.171126
0.245583
0.322274
0.400478
0.479204
0.553679
0.613264
0.656249
0.68808
0.710126
0.721892
0.725833
0.72672
0.726903
0.726996
-0.0989002
-0.0886874
-0.0528342
0.00433211
0.0739727
0.149653
0.22865
0.310182
0.39343
0.477249
0.556489
0.619787
0.665295
0.698848
0.721901
0.734153
0.7383
0.739208
0.73937
0.73946
-0.129213
-0.118978
-0.0819761
-0.0224369
0.0503845
0.129731
0.212789
0.298748
0.386709
0.475419
0.559291
0.626219
0.674253
0.70955
0.733684
0.746512
0.750888
0.751816
0.751942
0.752015
-0.157297
-0.147021
-0.109005
-0.0473587
0.0282829
0.110878
0.19759
0.287618
0.380017
0.473412
0.561831
0.63236
0.682914
0.719939
0.745154
0.758518
0.763136
0.764084
0.764175
0.764227
-0.183727
-0.173396
-0.134449
-0.0709072
0.00723042
0.0927309
0.182758
0.276528
0.373072
0.470978
0.563905
0.638062
0.691087
0.729796
0.75602
0.769869
0.774743
0.7757
0.775732
0.77575
-0.208973
-0.198539
-0.158716
-0.0934543
-0.0130839
0.0750264
0.168057
0.265263
0.3657
0.467968
0.56538
0.643205
0.69873
0.739038
0.766168
0.780385
0.785373
0.786332
0.786323
0.786307
-0.233364
-0.222745
-0.182093
-0.115249
-0.0328727
0.057576
0.153332
0.253702
0.357792
0.464245
0.566128
0.647715
0.705789
0.747644
0.77552
0.789958
0.794953
0.795876
0.795827
0.795781
-0.257016
-0.246181
-0.204735
-0.136451
-0.0522728
0.0402813
0.138502
0.241765
0.349245
0.459695
0.566046
0.651558
0.712296
0.755665
0.784093
0.798569
0.803474
0.804325
0.804243
0.804173
-0.280088
-0.268987
-0.226777
-0.157139
-0.0713504
0.0230834
0.123521
0.229408
0.340013
0.454271
0.565054
0.65467
0.718296
0.763235
0.792076
0.806357
0.811024
0.811767
0.811642
0.811554
-0.302551
-0.291231
-0.248254
-0.177354
-0.0901301
0.00597173
0.10839
0.216637
0.330101
0.447921
0.563062
0.656991
0.723842
0.77053
0.799649
0.813465
0.817719
0.818287
0.81812
0.818018
-0.32451
-0.312901
-0.269149
-0.197096
-0.108611
-0.0110385
0.0931339
0.203492
0.319532
0.440632
0.560006
0.658441
0.728937
0.777736
0.807126
0.820159
0.823697
0.823981
0.823768
0.823663
-0.345784
-0.33398
-0.289462
-0.216367
-0.126759
-0.0278891
0.077804
0.19002
0.30835
0.432439
0.555835
0.658913
0.733526
0.785002
0.814911
0.826892
0.829234
0.828956
0.828674
0.828607
-0.366528
-0.354426
-0.309179
-0.235155
-0.144554
-0.0445526
0.0624784
0.176288
0.296627
0.423396
0.550516
0.658288
0.737475
0.792334
0.823403
0.83443
0.83503
0.833548
0.832991
0.833073
-0.386566
-0.374207
-0.328288
-0.253418
-0.161929
-0.0609541
0.0472314
0.162408
0.284456
0.413551
0.544051
0.656437
0.740592
0.799549
0.832761
0.843689
0.842553
0.838944
0.837226
0.837352
-0.406011
-0.393354
-0.346739
-0.271105
-0.178852
-0.077032
0.0321451
0.148453
0.271935
0.403022
0.536478
0.653212
0.742638
0.806269
0.842605
0.855035
0.853616
0.847908
0.8423
0.834301
-0.424748
-0.411864
-0.364622
-0.288382
-0.195546
-0.0930618
0.0168927
0.134031
0.258635
0.391342
0.527331
0.648108
0.74331
0.812364
0.852527
0.868182
0.868806
0.861706
0.850238
0.849422
-0.44274
-0.429816
-0.381939
-0.305196
-0.211998
-0.109008
0.00149996
0.119119
0.244516
0.378369
0.5164
0.640583
0.741787
0.817037
0.860675
0.87933
0.881707
0.875968
0.841475
0.803282
-0.45977
-0.447069
-0.398632
-0.32143
-0.228207
-0.124879
-0.0140368
0.103846