/*--------------------------------*- C++ -*----------------------------------*\
  =========                 |
  \\      /  F ield         | OpenFOAM: The Open Source CFD Toolbox
   \\    /   O peration     | Website:  https://openfoam.org
    \\  /    A nd           | Version:  6
     \\/     M anipulation  |
\*---------------------------------------------------------------------------*/
FoamFile
{
    version     2.0;
    format      ascii;
    class       volVectorField;
    location    "53";
    object      U;
}
// * * * * * * * * * * * * * * * * * * * * * * * * * * * * * * * * * * * * * //

dimensions      [0 1 -1 0 0 0 0];

internalField   nonuniform List<vector> 
8800
(
(0.987184 -0.0766675 0)
(1.00189 -0.0551949 0)
(0.999718 -0.0285551 0)
(1.00001 -0.0151528 0)
(1.00006 -0.00855588 0)
(1.00007 -0.00505865 0)
(1.00005 -0.00301417 0)
(1.00001 -0.00171335 0)
(0.999997 -0.000807198 0)
(1.00006 -9.17697e-05 0)
(0.999987 0.000635725 0)
(0.999995 0.00139734 0)
(1.00001 0.00241928 0)
(1.00003 0.00399547 0)
(1.00003 0.00663065 0)
(1.00001 0.01137 0)
(0.999887 0.0208134 0)
(0.999144 0.0386709 0)
(1.00709 0.0724568 0)
(0.771212 0.0366609 0)
(0.36305 -0.0160191 0)
(1.0433 -0.0768267 0)
(1.08458 -0.0704653 0)
(1.04517 -0.0535684 0)
(1.02325 -0.0389281 0)
(1.01197 -0.0262576 0)
(1.00638 -0.0169027 0)
(1.00357 -0.0103743 0)
(1.00214 -0.00571712 0)
(1.00145 -0.00206351 0)
(1.00131 0.00125856 0)
(1.00168 0.00463957 0)
(1.00265 0.00857606 0)
(1.00464 0.0139219 0)
(1.00858 0.0216341 0)
(1.01655 0.0326087 0)
(1.03246 0.0465267 0)
(1.06262 0.0616469 0)
(1.09187 0.076092 0)
(0.838683 0.0565579 0)
(0.216804 -0.00243187 0)
(1.07585 -0.0501606 0)
(1.09984 -0.0483472 0)
(1.0646 -0.0405104 0)
(1.03997 -0.0336626 0)
(1.02384 -0.0261515 0)
(1.01407 -0.0185784 0)
(1.00853 -0.0117663 0)
(1.00558 -0.00590518 0)
(1.00433 -0.000492542 0)
(1.00468 0.00475251 0)
(1.0066 0.0101428 0)
(1.0106 0.0162467 0)
(1.01793 0.023287 0)
(1.03053 0.0307624 0)
(1.05062 0.0378029 0)
(1.08032 0.0444933 0)
(1.10625 0.0513175 0)
(0.942565 0.0416031 0)
(0.21619 0.00246011 0)
(0.175103 -0.000818731 0)
(1.01759 -0.0355182 0)
(1.10514 -0.0414349 0)
(1.07819 -0.0361342 0)
(1.05336 -0.0302141 0)
(1.0361 -0.0246539 0)
(1.02393 -0.0189405 0)
(1.01584 -0.0128711 0)
(1.011 -0.00669205 0)
(1.00881 -0.000363533 0)
(1.0094 0.00589155 0)
(1.01266 0.0118922 0)
(1.01887 0.0177455 0)
(1.02877 0.0233397 0)
(1.04322 0.0286508 0)
(1.06374 0.0341492 0)
(1.09355 0.0401443 0)
(1.09343 0.0419205 0)
(0.827252 0.0228955 0)
(0.174067 0.000850964 0)
(0.153869 -0.000612824 0)
(0.955991 -0.0255006 0)
(1.10335 -0.0352022 0)
(1.08757 -0.0327458 0)
(1.06158 -0.0281095 0)
(1.04397 -0.0231022 0)
(1.03154 -0.0178723 0)
(1.02273 -0.0123612 0)
(1.01693 -0.00644263 0)
(1.01412 1.665e-05 0)
(1.01482 0.00647873 0)
(1.0188 0.0123643 0)
(1.02581 0.0176765 0)
(1.03612 0.0226167 0)
(1.0507 0.0273917 0)
(1.07194 0.0319437 0)
(1.10009 0.0358968 0)
(1.06816 0.0339775 0)
(0.739732 0.0142917 0)
(0.152311 0.000649355 0)
(0.13946 -0.000469263 0)
(0.898974 -0.0191275 0)
(1.09561 -0.0301728 0)
(1.0956 -0.0293083 0)
(1.06907 -0.0255983 0)
(1.05064 -0.0214853 0)
(1.03775 -0.0167396 0)
(1.02868 -0.0114731 0)
(1.0226 -0.00574528 0)
(1.0195 0.00056683 0)
(1.02016 0.00687416 0)
(1.02427 0.0125155 0)
(1.0314 0.0175095 0)
(1.04194 0.0220065 0)
(1.05709 0.0259855 0)
(1.07929 0.0294722 0)
(1.10234 0.0321203 0)
(1.03615 0.0280499 0)
(0.673277 0.0101844 0)
(0.137261 0.000511394 0)
(0.128877 -0.000364079 0)
(0.849243 -0.0147731 0)
(1.08314 -0.0260579 0)
(1.10122 -0.0263833 0)
(1.07587 -0.0231262 0)
(1.05692 -0.0195144 0)
(1.04358 -0.0152997 0)
(1.03416 -0.0104106 0)
(1.02784 -0.00490686 0)
(1.02457 0.00123047 0)
(1.0251 0.00733709 0)
(1.02917 0.0127007 0)
(1.03642 0.0172777 0)
(1.04724 0.0211721 0)
(1.0628 0.0244923 0)
(1.08544 0.0274651 0)
(1.10149 0.0292514 0)
(1.00134 0.0235167 0)
(0.621578 0.00781491 0)
(0.125899 0.000413789 0)
(0.120787 -0.000283771 0)
(0.806935 -0.0116246 0)
(1.06775 -0.022469 0)
(1.10468 -0.023776 0)
(1.08208 -0.0209366 0)
(1.06271 -0.0175466 0)
(1.04909 -0.0136531 0)
(1.03939 -0.00910698 0)
(1.03281 -0.00387703 0)
(1.02931 0.00202756 0)
(1.02968 0.00786998 0)
(1.03371 0.0128889 0)
(1.04102 0.0170072 0)
(1.05196 0.020397 0)
(1.06775 0.0233081 0)
(1.09073 0.025993 0)
(1.09777 0.0268948 0)
(0.966229 0.0199552 0)
(0.580089 0.00627378 0)
(0.116862 0.000342875 0)
(0.114501 -0.00022101 0)
(0.771267 -0.00927183 0)
(1.05083 -0.0193125 0)
(1.10698 -0.0213758 0)
(1.08788 -0.0189252 0)
(1.06812 -0.0156937 0)
(1.05428 -0.0119644 0)
(1.04439 -0.00763465 0)
(1.03757 -0.00265932 0)
(1.0338 0.00299144 0)
(1.03397 0.00854202 0)
(1.0379 0.0131857 0)
(1.04516 0.0168943 0)
(1.05611 0.0199116 0)
(1.07209 0.0224947 0)
(1.09474 0.0248273 0)
(1.09126 0.0249288 0)
(0.932111 0.017197 0)
(0.545805 0.00521842 0)
(0.109426 0.000291692 0)
(0.109584 -0.000170577 0)
(0.7413 -0.00744753 0)
(1.03345 -0.0165187 0)
(1.10831 -0.0191109 0)
(1.09338 -0.0169652 0)
(1.07336 -0.0138219 0)
(1.05923 -0.0101965 0)
(1.04916 -0.0060134 0)
(1.04213 -0.00122865 0)
(1.03809 0.00415907 0)
(1.03799 0.00937342 0)
(1.0417 0.0136473 0)
(1.04883 0.0169763 0)
(1.05978 0.0196383 0)
(1.07597 0.0219502 0)
(1.09749 0.0239392 0)
(1.08235 0.0232961 0)
(0.899573 0.0150909 0)
(0.516688 0.00447864 0)
(0.103113 0.000255495 0)
(0.105752 -0.000128737 0)
(0.716212 -0.00597712 0)
(1.01643 -0.0140144 0)
(1.10881 -0.0169392 0)
(1.0988 -0.0150901 0)
(1.07849 -0.0119765 0)
(1.06407 -0.00838925 0)
(1.05379 -0.00426408 0)
(1.04652 0.00039201 0)
(1.04218 0.00555516 0)
(1.04174 0.0104611 0)
(1.04518 0.0143967 0)
(1.05213 0.0174084 0)
(1.06303 0.0197565 0)
(1.0794 0.0217858 0)
(1.09893 0.0233616 0)
(1.07143 0.0219989 0)
(0.868739 0.0135181 0)
(0.491297 0.003964 0)
(0.0975826 0.000231289 0)
(0.102816 -9.2544e-05 0)
(0.695364 -0.00474538 0)
(1.00039 -0.0117305 0)
(1.10857 -0.0147922 0)
(1.104 -0.0131433 0)
(1.08361 -0.010004 0)
(1.06889 -0.00640817 0)
(1.05834 -0.00232652 0)
(1.05077 0.00223946 0)
(1.04606 0.00724167 0)
(1.04521 0.0118875 0)
(1.04829 0.0154824 0)
(1.05504 0.0181234 0)
(1.0659 0.0201275 0)
(1.08239 0.0219099 0)
(1.09941 0.0230934 0)
(1.05881 0.0210229 0)
(0.83948 0.0123852 0)
(0.468566 0.00361778 0)
(0.0925817 0.000216439 0)
(0.100656 -5.93815e-05 0)
(0.678284 -0.003666 0)
(0.985771 -0.00960125 0)
(1.10787 -0.0126128 0)
(1.10903 -0.0110832 0)
(1.08879 -0.0078918 0)
(1.0737 -0.00423262 0)
(1.06286 -0.000108246 0)
(1.05495 0.00443039 0)
(1.04978 0.00927723 0)
(1.04842 0.0136423 0)
(1.05108 0.0169188 0)
(1.05756 0.01924 0)
(1.06835 0.0209091 0)
(1.08492 0.0224149 0)
(1.09892 0.0232215 0)
(1.04467 0.0204072 0)
(0.81149 0.0116244 0)
(0.447659 0.00340429 0)
(0.0879111 0.00020946 0)
(0.0992089 -2.68833e-05 0)
(0.664673 -0.00266742 0)
(0.972927 -0.00754261 0)
(1.10695 -0.0103289 0)
(1.11397 -0.00887245 0)
(1.09409 -0.00561658 0)
(1.07864 -0.00182267 0)
(1.06742 0.00240992 0)
(1.05904 0.00697898 0)
(1.0533 0.0117465 0)
(1.05134 0.0158881 0)
(1.05351 0.0188337 0)
(1.0597 0.0208065 0)
(1.0704 0.0221213 0)
(1.08696 0.0233477 0)
(1.09722 0.023696 0)
(1.02909 0.0201029 0)
(0.784382 0.0111718 0)
(0.427906 0.00329454 0)
(0.0834122 0.000208379 0)
(0.0984616 7.04865e-06 0)
(0.654382 -0.00169438 0)
(0.962192 -0.00548693 0)
(1.10618 -0.00786624 0)
(1.11895 -0.00634718 0)
(1.0996 -0.00294202 0)
(1.08374 0.00102053 0)
(1.07207 0.00538357 0)
(1.06316 0.0100303 0)
(1.05673 0.0147467 0)
(1.05403 0.0186627 0)
(1.05559 0.0212802 0)
(1.06138 0.0228558 0)
(1.07198 0.0237628 0)
(1.08848 0.0246999 0)
(1.09427 0.0245762 0)
(1.0121 0.020162 0)
(0.757738 0.011003 0)
(0.408758 0.00327665 0)
(0.0789574 0.000213083 0)
(0.0984331 4.01278e-05 0)
(0.647386 -0.000701111 0)
(0.953846 -0.00335952 0)
(1.1059 -0.00518578 0)
(1.12417 -0.00353184 0)
(1.10542 7.18657e-05 0)
(1.08908 0.00430226 0)
(1.07688 0.00891317 0)
(1.06731 0.0137081 0)
(1.06003 0.0183922 0)
(1.05645 0.0220633 0)
(1.05729 0.024311 0)
(1.06263 0.0255111 0)
(1.0731 0.0260126 0)
(1.08927 0.0265774 0)
(1.08986 0.0258984 0)
(0.993584 0.0205905 0)
(0.731083 0.0110957 0)
(0.389717 0.00334086 0)
(0.0744273 0.000222711 0)
(0.0991626 7.87709e-05 0)
(0.643772 0.000329955 0)
(0.948217 -0.00107878 0)
(1.10642 -0.00216924 0)
(1.12974 -0.00025809 0)
(1.11164 0.00360749 0)
(1.09481 0.00816945 0)
(1.08197 0.0130823 0)
(1.07157 0.0180854 0)
(1.06327 0.0228223 0)
(1.05862 0.0263104 0)
(1.0586 0.0281629 0)
(1.0634 0.0288938 0)
(1.07368 0.0289494 0)
(1.08916 0.0290801 0)
(1.08387 0.0276829 0)
(0.973352 0.0214143 0)
(0.703911 0.0114402 0)
(0.37032 0.00348156 0)
(0.0697155 0.000236894 0)
(0.100858 0.000139672 0)
(0.643939 0.00149123 0)
(0.945687 0.00143179 0)
(1.10823 0.00127115 0)
(1.13591 0.00360886 0)
(1.11838 0.00787953 0)
(1.10096 0.0128552 0)
(1.08734 0.0181347 0)
(1.07597 0.0234147 0)
(1.06643 0.0281943 0)
(1.06046 0.0314315 0)
(1.05941 0.0328486 0)
(1.06358 0.0330897 0)
(1.07362 0.0326524 0)
(1.08797 0.0322835 0)
(1.07601 0.0300325 0)
(0.951111 0.0226727 0)
(0.675676 0.012037 0)
(0.350127 0.00369593 0)
(0.064725 0.000255295 0)
(0.103565 0.000199221 0)
(0.648183 0.00288514 0)
(0.946674 0.00431932 0)
(1.11178 0.00526224 0)
(1.14293 0.00814076 0)
(1.12582 0.0129298 0)
(1.1077 0.0184558 0)
(1.09314 0.0242513 0)
(1.08052 0.0298798 0)
(1.06943 0.0347276 0)
(1.06192 0.0376884 0)
(1.05969 0.0385672 0)
(1.06307 0.0382588 0)
(1.07285 0.0372662 0)
(1.08551 0.0363271 0)
(1.06601 0.0330353 0)
(0.926445 0.0244054 0)
(0.645787 0.0128889 0)
(0.328704 0.00398097 0)
(0.0593647 0.000277367 0)
(0.10757 0.000280728 0)
(0.657142 0.00456315 0)
(0.951614 0.00768531 0)
(1.11755 0.0100011 0)
(1.15101 0.013609 0)
(1.13415 0.0190697 0)
(1.11521 0.0252813 0)
(1.09946 0.0316887 0)
(1.08531 0.0377354 0)
(1.07238 0.0426694 0)
(1.063 0.0452838 0)
(1.05936 0.0455532 0)
(1.0618 0.0445839 0)
(1.07126 0.0429552 0)
(1.08173 0.0413722 0)
(1.05346 0.0367791 0)
(0.898851 0.0266496 0)
(0.613603 0.0139927 0)
(0.305624 0.00432986 0)
(0.0535556 0.000301991 0)
(0.113216 0.000389769 0)
(0.671474 0.00665196 0)
(0.961357 0.0118114 0)
(1.12617 0.0157057 0)
(1.16054 0.0203081 0)
(1.14362 0.0267014 0)
(1.12362 0.0337229 0)
(1.10638 0.0408278 0)
(1.09035 0.0473484 0)
(1.07514 0.0523084 0)
(1.06358 0.0544348 0)
(1.05832 0.0539744 0)
(1.05968 0.0522264 0)
(1.06873 0.0498582 0)
(1.07645 0.047515 0)
(1.03789 0.0413785 0)
(0.867678 0.0294354 0)
(0.578443 0.0153397 0)
(0.280485 0.00473148 0)
(0.0472377 0.000327683 0)
(0.121003 0.000543843 0)
(0.692199 0.00938182 0)
(0.976673 0.0169615 0)
(1.13829 0.0226851 0)
(1.17202 0.0285237 0)
(1.15451 0.0361224 0)
(1.1331 0.0441657 0)
(1.11396 0.0521149 0)
(1.09554 0.0590938 0)
(1.07758 0.0639582 0)
(1.06346 0.065392 0)
(1.05631 0.0639592 0)
(1.05654 0.0613403 0)
(1.06512 0.058124 0)
(1.06938 0.0548599 0)
(1.01866 0.0468868 0)
(0.832186 0.0327669 0)
(0.539604 0.0168966 0)
(0.252942 0.00516336 0)
(0.0403856 0.000351758 0)
(0.131686 0.000767376 0)
(0.720642 0.0131414 0)
(0.998712 0.0236155 0)
(1.15461 0.0315175 0)
(1.18596 0.0388963 0)
(1.16719 0.0480342 0)
(1.14388 0.0573115 0)
(1.12222 0.0661634 0)
(1.10077 0.0734977 0)
(1.07951 0.0780103 0)
(1.06247 0.078431 0)
(1.05323 0.0757737 0)
(1.05219 0.0721115 0)
(1.06017 0.0679054 0)
(1.06 0.0634879 0)
(0.995002 0.0533769 0)
(0.791518 0.0366206 0)
(0.49641 0.0186011 0)
(0.222769 0.00559181 0)
(0.0330254 0.000370998 0)
(0.146524 0.00112056 0)
(0.758772 0.0185468 0)
(1.02913 0.0325417 0)
(1.17616 0.0431407 0)
(1.20315 0.052543 0)
(1.18199 0.0636317 0)
(1.15598 0.0742076 0)
(1.13099 0.0837992 0)
(1.10587 0.0911632 0)
(1.0808 0.0948461 0)
(1.06047 0.0938079 0)
(1.04894 0.0896529 0)
(1.04654 0.0847013 0)
(1.05348 0.0793641 0)
(1.04764 0.0736007 0)
(0.965942 0.0608362 0)
(0.744771 0.0408968 0)
(0.448336 0.0203337 0)
(0.189972 0.00595952 0)
(0.0252611 0.000380223 0)
(0.167656 0.0017289 0)
(0.809764 0.0267229 0)
(1.07044 0.0452421 0)
(1.20408 0.059312 0)
(1.22437 0.0714974 0)
(1.19897 0.0843699 0)
(1.16909 0.0960634 0)
(1.13979 0.10594 0)
(1.11015 0.112667 0)
(1.0807 0.11482 0)
(1.05692 0.111724 0)
(1.04312 0.10564 0)
(1.03943 0.0991841 0)
(1.04494 0.0927573 0)
(1.03158 0.0850834 0)
(0.930246 0.069089 0)
(0.69114 0.0453785 0)
(0.395261 0.0219113 0)
(0.154994 0.0061851 0)
(0.0173229 0.000372061 0)
(0.198372 0.00306307 0)
(0.879227 0.0402455 0)
(1.12622 0.0654691 0)
(1.23871 0.0836127 0)
(1.24921 0.0984492 0)
(1.21751 0.112572 0)
(1.1824 0.124517 0)
(1.14784 0.133591 0)
(1.11313 0.138572 0)
(1.07902 0.138163 0)
(1.05166 0.132219 0)
(1.03556 0.123784 0)
(1.03061 0.115604 0)
(1.03431 0.107979 0)
(1.01078 0.0978939 0)
(0.886492 0.0778314 0)
(0.630218 0.0496987 0)
(0.338137 0.0231476 0)
(0.119222 0.0062028 0)
(0.00969095 0.000336234 0)
(0.240332 0.00915993 1.05247e-20)
(0.971105 0.0669729 8.99533e-21)
(1.19414 0.099709 -3.12279e-21)
(1.27685 0.119812 0)
(1.27487 0.137112 -7.79014e-35)
(1.23556 0.150695 1.13509e-21)
(1.19448 0.161107 -2.02763e-21)
(1.15412 0.167943 0)
(1.11394 0.17013 4.1248e-35)
(1.07482 0.166419 -2.47267e-21)
(1.04359 0.157175 0)
(1.02499 0.146129 -2.9201e-21)
(1.01864 0.136221 -8.60514e-21)
(1.02017 0.12761 -4.06622e-21)
(0.982322 0.114949 -1.22305e-21)
(0.82984 0.0891649 -7.26569e-22)
(0.556424 0.054731 0)
(0.275004 0.0244784 5.09503e-22)
(0.0831237 0.00641617 6.03523e-22)
(0.00259126 0.000314787 1.10073e-20)
(0.269466 0.0240717 7.93403e-21)
(1.04715 0.10916 1.06938e-22)
(1.25014 0.1485 8.4345e-22)
(1.31099 0.168553 0)
(1.29729 0.186167 -3.99162e-21)
(1.25086 0.197623 -4.50914e-21)
(1.20377 0.205722 -2.05445e-21)
(1.15748 0.21007 -7.25859e-21)
(1.11151 0.209455 0)
(1.06681 0.202476 1.0529e-20)
(1.03102 0.189998 1.04113e-20)
(1.00935 0.176417 3.08887e-21)
(1.00075 0.164417 1.12302e-20)
(0.995869 0.153215 1.57549e-20)
(0.938893 0.136379 0)
(0.754921 0.103191 2.22278e-20)
(0.470568 0.0613671 3.19371e-20)
(0.208612 0.0261305 3.55581e-20)
(0.0480907 0.00595266 -4.08033e-20)
(-0.00415304 -0.000252894 -7.76729e-22)
(0.270992 0.040616 0)
(1.09554 0.163792 1.42348e-21)
(1.28795 0.208185 0)
(1.33754 0.228028 -5.34485e-21)
(1.31476 0.242994 0)
(1.26232 0.250601 -8.92597e-21)
(1.20963 0.25499 4.21552e-21)
(1.15772 0.255777 -1.46781e-20)
(1.10623 0.251603 -3.16044e-22)
(1.05623 0.2409 5.46574e-21)
(1.01602 0.224844 2.29051e-20)
(0.991276 0.20852 -5.39135e-23)
(0.98011 0.194507 -8.16416e-21)
(0.96936 0.180793 -1.48602e-20)
(0.899655 0.159173 1.76027e-20)
(0.702609 0.118052 -3.12174e-20)
(0.422999 0.0684208 -4.13405e-21)
(0.178513 0.0281979 0)
(0.0338311 0.00535632 -1.8754e-24)
(-0.00695111 -0.000938497 0)
(0.264822 0.0545819 2.00462e-20)
(1.12183 0.222142 -9.49885e-21)
(1.31135 0.27246 -6.99626e-21)
(1.35502 0.292811 2.55478e-21)
(1.32589 0.304142 -4.27518e-21)
(1.26892 0.307281 1.87651e-20)
(1.21158 0.307333 8.82857e-21)
(1.15476 0.303958 0)
(1.0983 0.295692 -2.75663e-20)
(1.04337 0.280761 0)
(0.998984 0.260836 -1.20536e-20)
(0.971351 0.241733 -1.48268e-20)
(0.957866 0.225735 -8.90172e-21)
(0.942504 0.209388 -1.0802e-20)
(0.866414 0.183107 0)
(0.668631 0.135201 0)
(0.400329 0.0784657 -2.69949e-20)
(0.169616 0.0326002 5.34719e-21)
(0.0306756 0.00561494 -3.13523e-21)
(-0.00801385 -0.00157024 -3.71379e-21)
(0.257542 0.066928 -8.79325e-21)
(1.13361 0.280506 0)
(1.32426 0.33782 1.46686e-20)
(1.36439 0.359098 7.28878e-21)
(1.33077 0.36677 9.84298e-21)
(1.27049 0.365482 0)
(1.20951 0.361126 8.69918e-21)
(1.14866 0.353437 1.63226e-20)
(1.08791 0.340844 1.4169e-20)
(1.02854 0.321538 2.58005e-20)
(0.98034 0.297888 0)
(0.949852 0.276028 -3.20232e-20)
(0.933863 0.257802 -1.9264e-20)
(0.914933 0.238781 -1.13884e-20)
(0.837498 0.208222 6.9849e-20)
(0.646071 0.154611 8.33816e-21)
(0.392166 0.0917949 3.92685e-20)
(0.172976 0.0393778 -1.86056e-19)
(0.0349263 0.00743146 1.10292e-19)
(-0.00731857 -0.00184464 -1.34625e-19)
(0.250663 0.0780834 -5.15703e-21)
(1.13627 0.337026 1.60314e-21)
(1.32962 0.402433 -1.67118e-21)
(1.3673 0.424989 -7.67257e-21)
(1.3304 0.429192 -8.48493e-21)
(1.26764 0.423677 3.62127e-22)
(1.20379 0.415073 -9.42885e-21)
(1.1396 0.403164 1.69398e-20)
(1.07515 0.386296 -3.05246e-20)
(1.01189 0.362721 0)
(0.960196 0.335288 -1.45319e-20)
(0.926923 0.31043 -3.25328e-22)
(0.908438 0.289837 -2.10873e-20)
(0.886962 0.268681 0)
(0.810518 0.234341 -1.51544e-20)
(0.628764 0.176041 -3.6117e-20)
(0.39094 0.107319 9.66371e-20)
(0.181323 0.048609 -9.52189e-20)
(0.0434367 0.0111111 1.35493e-19)
(-0.00520509 -0.00160994 -1.42583e-19)
(0.244974 0.0884513 -1.04413e-22)
(1.13334 0.391041 -8.15138e-22)
(1.3296 0.465271 -5.03819e-21)
(1.36521 0.489323 3.1969e-21)
(1.32583 0.490391 -4.30015e-21)
(1.26119 0.480923 0)
(1.19501 0.46831 -8.85854e-21)
(1.128 0.45237 -1.77747e-20)
(1.06037 0.431408 -1.59007e-20)
(0.993655 0.403657 0)
(0.938706 0.372248 -1.51182e-20)
(0.902824 0.344381 -1.8674e-20)
(0.882234 0.321896 2.28934e-20)
(0.858697 0.298844 -1.38927e-20)
(0.783763 0.26119 -6.62683e-20)
(0.61313 0.198586 3.95412e-20)
(0.391034 0.124111 1.18142e-20)
(0.191035 0.0593557 0)
(0.0532239 0.016203 -1.31268e-19)
(-0.0024982 -0.000954962 -4.87821e-21)
(0.240586 0.0983599 -6.50507e-23)
(1.12706 0.442391 3.01511e-22)
(1.32567 0.525772 2.42044e-21)
(1.35933 0.5514 1.1262e-20)
(1.318 0.549696 -1.60839e-20)
(1.25193 0.536612 1.83056e-20)
(1.18385 0.520275 1.90877e-20)
(1.11444 0.500554 -2.84257e-20)
(1.04401 0.47572 9.75852e-21)
(0.974125 0.443885 -6.35811e-20)
(0.916118 0.40863 -1.70733e-20)
(0.877983 0.378215 0)
(0.855564 0.35409 2.48407e-20)
(0.830209 0.328897 2.97755e-20)
(0.756823 0.288141 3.56824e-20)
(0.59685 0.221702 -4.29889e-20)
(0.38902 0.141752 -1.27591e-20)
(0.198457 0.0712834 1.49977e-20)
(0.062038 0.0220867 0)
(0.000252274 1.49147e-06 -1.06005e-20)
(0.237362 0.107905 -4.06374e-21)
(1.11904 0.491121 1.08279e-21)
(1.31915 0.584092 -2.235e-21)
(1.35066 0.610854 6.96053e-21)
(1.30773 0.606684 -7.3663e-21)
(1.24054 0.590318 -8.21641e-22)
(1.17089 0.570596 -2.08409e-20)
(1.09942 0.547412 -1.02824e-20)
(1.02647 0.518954 -2.76463e-20)
(0.95363 0.483214 5.92925e-23)
(0.892857 0.444533 -5.35424e-20)
(0.852702 0.411817 4.50251e-20)
(0.828486 0.385712 -2.72915e-20)
(0.801446 0.358146 3.28209e-20)
(0.7296 0.314373 0)
(0.578959 0.243882 -2.3338e-20)
(0.383747 0.159054 -1.55451e-23)
(0.202247 0.0829832 -6.54414e-20)
(0.0683421 0.0279165 -9.64799e-21)
(0.00251262 0.00101232 0)
(0.235201 0.117297 0)
(1.11019 0.53744 1.9121e-21)
(1.31067 0.639811 -2.44213e-21)
(1.33999 0.667495 -6.4798e-21)
(1.29568 0.661112 -9.20515e-21)
(1.22761 0.641805 0)
(1.15666 0.619048 -9.56041e-21)
(1.08338 0.592746 -2.20536e-22)
(1.00814 0.560968 5.92645e-20)
(0.932537 0.52159 -8.75364e-21)
(0.869219 0.479784 -3.86557e-20)
(0.827127 0.444473 2.34405e-20)
(0.801128 0.415871 -4.40546e-22)
(0.772732 0.386016 3.49059e-20)
(0.701999 0.339092 2.15488e-20)
(0.559112 0.264192 -5.03844e-20)
(0.375083 0.174923 5.98082e-20)
(0.201643 0.0934148 1.77365e-20)
(0.0713538 0.0328837 7.34103e-20)
(0.00401066 0.00186788 -1.9858e-19)
(0.233999 0.126673 -2.59443e-21)
(1.10115 0.581526 2.68873e-21)
(1.30088 0.69277 -1.19612e-21)
(1.32794 0.721269 5.26393e-21)
(1.28241 0.712869 0)
(1.21362 0.690939 -8.59511e-21)
(1.14157 0.66551 3.20273e-20)
(1.06671 0.636443 2.25907e-20)
(0.989345 0.601659 0)
(0.911125 0.558965 -1.25909e-19)
(0.845339 0.514002 1.04524e-19)
(0.8013 0.475629 0)
(0.773712 0.444435 3.18744e-20)
(0.74416 0.412513 -4.42675e-22)
(0.673816 0.361926 -6.88681e-20)
(0.537346 0.282223 2.70057e-20)
(0.363208 0.188691 0)
(0.197161 0.101732 9.56835e-20)
(0.0710405 0.0363881 0)
(0.00470165 0.00242424 -9.39363e-20)
(0.233575 0.136053 3.47159e-21)
(1.09227 0.623535 4.52715e-21)
(1.29017 0.742987 -9.25336e-22)
(1.31497 0.772187 0)
(1.26835 0.76194 -8.00843e-21)
(1.19899 0.737689 0)
(1.12601 0.709924 -3.17575e-20)
(1.04972 0.678431 -1.05643e-20)
(0.970352 0.640963 1.04896e-20)
(0.889622 0.59525 -6.22895e-20)
(0.821306 0.546964 1.08076e-20)
(0.775304 0.505323 0)
(0.746404 0.471847 -6.80649e-20)
(0.71561 0.437745 4.41214e-22)
(0.644822 0.382623 0)
(0.513669 0.297884 3.2173e-22)
(0.348131 0.199618 8.71841e-20)
(0.189033 0.107438 -8.26269e-20)
(0.0680709 0.0381061 2.44591e-20)
(0.00460711 0.00258548 0)
(0.233579 0.145325 0)
(1.08378 0.663487 6.13838e-21)
(1.27896 0.790552 2.90659e-21)
(1.30146 0.820308 -5.00072e-22)
(1.25387 0.808353 -2.82775e-21)
(1.18405 0.78206 -1.93018e-20)
(1.11027 0.752278 1.18645e-20)
(1.03268 0.71867 -1.24057e-20)
(0.951418 0.678832 4.67332e-20)
(0.868196 0.630365 -9.95517e-20)
(0.797203 0.578685 -7.58621e-22)
(0.749236 0.533958 -2.98526e-20)
(0.719169 0.498456 1.10412e-19)
(0.686779 0.461387 -5.16444e-22)
(0.615038 0.400666 -5.33908e-20)
(0.488176 0.310668 -9.53395e-20)
(0.330277 0.207534 0)
(0.177701 0.11037 0)
(0.0629257 0.038279 2.63745e-20)
(0.00403412 0.00244985 -1.56603e-20)
(0.23415 0.154598 5.69167e-21)
(1.07579 0.701406 -1.47097e-20)
(1.26749 0.835547 -3.17752e-21)
(1.2877 0.865684 0)
(1.23922 0.85217 -3.18552e-22)
(1.16905 0.824091 -1.78702e-20)
(1.09459 0.792579 2.88047e-20)
(1.01581 0.757138 4.90316e-20)
(0.932747 0.715249 6.07972e-20)
(0.847007 0.664284 -8.13694e-20)
(0.773174 0.609365 -8.98191e-20)
(0.723173 0.561938 7.98517e-20)
(0.691835 0.524211 0)
(0.657398 0.48284 -2.42325e-20)
(0.584597 0.415754 -5.773e-20)
(0.461499 0.320506 -6.84569e-20)
(0.310011 0.212257 -8.11908e-20)
(0.163657 0.110487 2.40498e-20)
(0.0558648 0.0368117 -1.41963e-20)
(0.00309328 0.00202925 5.49996e-23)
(0.234992 0.163683 0)
(1.06837 0.737696 0)
(1.25594 0.878054 5.31441e-22)
(1.27389 0.908406 0)
(1.22464 0.893477 6.67996e-21)
(1.15419 0.863845 1.22819e-20)
(1.07916 0.830849 0)
(0.999288 0.793831 5.85091e-21)
(0.914515 0.750201 1.01522e-19)
(0.82622 0.697027 -1.87076e-19)
(0.749394 0.63926 0)
(0.697175 0.589459 -5.1376e-20)
(0.664181 0.548755 -6.12688e-22)
(0.627317 0.501674 -4.86521e-22)
(0.553725 0.427949 6.16982e-20)
(0.433973 0.327403 -4.8646e-23)
(0.2876 0.213624 -1.7472e-19)
(0.14756 0.107762 5.17043e-20)
(0.0477524 0.0339031 1.53338e-20)
(0.00194673 0.00140093 0)
(0.235864 0.172641 -2.49898e-20)
(1.06127 0.772331 -1.11324e-20)
(1.2444 0.918129 -1.24812e-20)
(1.26022 0.948571 6.04197e-21)
(1.21029 0.932349 8.62226e-21)
(1.13965 0.901383 0)
(1.06413 0.867122 1.75059e-20)
(0.983264 0.828763 -1.30026e-20)
(0.896865 0.783696 7.85487e-22)
(0.806001 0.728652 1.37656e-20)
(0.726033 0.668568 1.16339e-19)
(0.671282 0.616523 -1.80357e-20)
(0.636039 0.571767 -6.80492e-20)
(0.596514 0.517792 -2.82064e-20)
(0.522606 0.437324 3.35104e-20)
(0.405884 0.331071 -1.11342e-23)
(0.263927 0.211474 4.70417e-20)
(0.130508 0.102467 -1.11187e-19)
(0.0393428 0.0299524 1.31883e-19)
(0.000753465 0.000644176 1.94783e-20)
(0.236514 0.181368 9.80872e-21)
(1.05452 0.805395 -6.49853e-21)
(1.23302 0.955886 1.29211e-21)
(1.24681 0.986301 5.72984e-21)
(1.1963 0.968896 -4.43548e-22)
(1.12553 0.936774 -2.15128e-20)
(1.0496 0.901438 5.13765e-21)
(0.967848 0.861949 -5.42592e-20)
(0.87992 0.815732 -1.12006e-19)
(0.786493 0.759202 -1.11598e-19)
(0.703261 0.69739 0)
(0.645532 0.643035 -7.91166e-20)
(0.607337 0.593163 9.80506e-20)
(0.564947 0.531378 0)
(0.491147 0.443724 -7.17531e-20)
(0.377449 0.330927 4.28008e-20)
(0.240061 0.205605 -5.05421e-20)
(0.113845 0.0950389 -5.97949e-20)
(0.0314322 0.0254441 -1.06185e-19)
(-0.000342157 -0.000132406 -8.38336e-20)
(0.237499 0.189946 -1.14293e-20)
(1.04798 0.836864 6.9674e-21)
(1.22186 0.991382 1.53145e-20)
(1.23375 1.02168 9.52762e-21)
(1.18275 1.00321 1.72683e-21)
(1.11191 0.970098 -1.16709e-20)
(1.03567 0.933838 1.70952e-20)
(0.953125 0.89343 -5.58189e-20)
(0.863763 0.84633 -6.63491e-20)
(0.767834 0.788723 1.16836e-19)
(0.681216 0.725739 2.55654e-19)
(0.619991 0.668913 0)
(0.578087 0.613135 0)
(0.532448 0.542842 -3.24893e-20)
(0.458874 0.446835 0)
(0.348665 0.326034 9.20294e-20)
(0.217247 0.195332 1.08667e-19)
(0.0995423 0.0856052 0)
(0.0252403 0.0208571 0)
(-0.00121631 -0.00083177 9.0052e-20)
(0.238114 0.198042 1.33632e-20)
(1.04165 0.866724 1.04998e-20)
(1.21099 1.02473 1.13193e-20)
(1.2211 1.05485 -1.05969e-20)
(1.1697 1.0354 3.03037e-22)
(1.09885 1.00142 1.20527e-20)
(1.02238 0.964376 -2.34715e-20)
(0.939156 0.923233 -1.88706e-23)
(0.848472 0.875499 -1.02393e-21)
(0.75013 0.817232 -1.04599e-21)
(0.660037 0.753575 1.3173e-19)
(0.594768 0.694131 0)
(0.548401 0.632078 9.92453e-20)
(0.498779 0.552771 6.93158e-20)
(0.42489 0.446567 1.67299e-19)
(0.318848 0.315091 4.95397e-20)
(0.196735 0.178329 -5.84902e-20)
(0.0916485 0.0717344 -3.44413e-20)
(0.0257742 0.0151155 0)
(-0.000651145 -0.00119133 9.67199e-20)
(0.239054 0.206147 -3.09908e-20)
(1.03552 0.895125 0)
(1.20041 1.05597 1.41186e-20)
(1.20888 1.08588 -9.56353e-21)
(1.15721 1.06555 2.07661e-21)
(1.08639 1.03083 -1.29178e-20)
(1.00979 0.993104 4.56609e-20)
(0.925979 0.951395 -4.58939e-21)
(0.834086 0.903249 0)
(0.733464 0.844699 -1.29074e-19)
(0.639851 0.780826 -2.8649e-19)
(0.570018 0.718749 1.16888e-20)
(0.518482 0.650449 1.36819e-19)
(0.463763 0.561895 0)
(0.388001 0.443523 1.12861e-19)
(0.285681 0.297189 0)
(0.176796 0.14942 0)
(0.0951706 0.0395012 -3.72393e-20)
(0.0571002 -0.00591875 0)
(0.0272903 0.00712973 2.59158e-20)
(0.239534 0.213656 -3.52722e-20)
(1.02955 0.922255 0)
(1.19011 1.08532 2.41985e-20)
(1.19706 1.11501 0)
(1.14524 1.09393 -2.07683e-21)
(1.07447 1.05861 0)
(0.997815 1.02034 2.27026e-21)
(0.913499 0.978259 7.68505e-21)
(0.82049 0.929956 8.32941e-21)
(0.717668 0.871505 -1.41792e-19)
(0.620474 0.807886 8.6193e-21)
(0.545505 0.743413 9.41152e-20)
(0.487992 0.66911 1.33582e-19)
(0.426551 0.571083 1.79929e-20)
(0.3464 0.439385 8.84259e-20)
(0.244494 0.273516 0)
(0.146703 0.105312 1.23228e-19)
(0.0810342 -0.00706813 -7.24963e-20)
(0.0329625 0.058873 8.46687e-20)
(-0.0381548 0.454042 -1.0058e-19)
(0.239941 0.220988 2.96081e-20)
(1.02353 0.948008 4.3894e-20)
(1.18003 1.11309 0)
(1.1855 1.14269 1.08084e-21)
(1.13359 1.12113 7.66226e-21)
(1.06282 1.08544 1.48931e-20)
(0.986156 1.04688 1.58471e-20)
(0.901312 1.00478 0)
(0.807157 0.956734 5.52945e-20)
(0.70207 0.898975 -7.40958e-21)
(0.600984 0.836213 0)
(0.519984 0.76986 0)
(0.455135 0.689684 1.19463e-19)
(0.38488 0.581165 -5.55026e-20)
(0.297079 0.436258 -8.94115e-20)
(0.191249 0.247819 0)
(0.0829593 0.111094 6.25649e-20)
(0.00766673 0.466384 -7.29317e-20)
(0.0322406 1.92166 -4.11392e-20)
(0.0589301 2.82221 -5.02733e-20)
(0.23995 0.227727 -2.27607e-20)
(1.01752 0.972557 -5.72829e-20)
(1.17017 1.13928 1.49118e-20)
(1.17419 1.16877 1.10635e-20)
(1.12234 1.14693 0)
(1.05154 1.11104 7.9464e-21)
(0.97502 1.07241 2.15764e-20)
(0.889607 1.03053 -3.71998e-21)
(0.794364 0.983064 8.23707e-21)
(0.687051 0.926477 1.35033e-19)
(0.581979 0.86505 1.44815e-19)
(0.494439 0.797878 1.05228e-19)
(0.420883 0.712279 1.20042e-19)
(0.340347 0.591198 -1.30084e-19)
(0.24659 0.437343 -1.34816e-19)
(0.124392 0.291301 0)
(0.0426092 0.871695 0)
(0.0903447 2.5767 3.4832e-20)
(0.0926811 3.20934 0)
(0.093607 3.38865 9.12877e-20)
(0.242743 0.233965 0)
(1.01175 0.99626 0)
(1.16026 1.16374 0)
(1.16293 1.1931 3.58126e-21)
(1.11117 1.1711 7.69229e-21)
(1.04042 1.13529 2.88461e-21)
(0.964333 1.09685 1.38184e-20)
(0.878315 1.05538 -3.6304e-21)
(0.782047 1.00877 6.90558e-20)
(0.672596 0.95383 -1.94244e-21)
(0.563526 0.894134 2.85993e-19)
(0.469282 0.827611 -1.21223e-20)
(0.385291 0.737678 1.4561e-20)
(0.295177 0.599132 1.88084e-20)
(0.185641 0.455469 -3.59097e-22)
(0.0970069 1.01134 3.45634e-22)
(0.128888 2.75718 -1.82124e-19)
(0.133596 3.30104 -6.92802e-20)
(0.123153 3.42467 3.70872e-20)
(0.111864 3.44461 -4.19713e-20)
(0.164822 0.178694 1.42704e-20)
(1.00197 1.02182 0)
(1.15017 1.18675 -3.19609e-20)
(1.15207 1.216 -3.17964e-20)
(1.10055 1.19415 2.1797e-20)
(1.03012 1.15863 -1.88758e-21)
(0.953971 1.12012 -1.42087e-20)
(0.867516 1.07932 4.06619e-20)
(0.770316 1.0339 -5.67732e-20)
(0.658905 0.981125 0)
(0.545882 0.923493 1.40893e-19)
(0.445096 0.858911 -8.58474e-20)
(0.34877 0.769074 0)
(0.243268 0.609489 1.80897e-20)
(0.138639 0.800719 4.34196e-20)
(0.143113 2.55769 -4.98036e-20)
(0.192086 3.33112 5.69454e-20)
(0.173635 3.43728 3.09674e-20)
(0.143684 3.45567 3.56191e-20)
(0.12392 3.46404 5.7255e-20)
(0.278497 0.273401 -2.73327e-20)
(0.985869 1.0333 0)
(1.13265 1.21327 3.5427e-20)
(1.13788 1.249 3.68324e-20)
(1.08373 1.22819 -2.68742e-20)
(1.01279 1.19308 -3.37817e-21)
(0.935494 1.15606 1.30886e-20)
(0.848523 1.11662 3.1661e-21)
(0.749974 1.07352 5.39759e-20)
(0.635842 1.025 1.16692e-19)
(0.517337 0.972268 7.93872e-21)
(0.40552 0.911541 7.61098e-20)
(0.283692 0.815659 1.36629e-20)
(0.207385 0.974983 -1.73409e-20)
(0.21326 2.43078 -3.96554e-20)
(0.263687 3.33795 3.98336e-20)
(0.246687 3.46542 -4.41009e-20)
(0.212182 3.48314 -2.56489e-20)
(0.178143 3.50688 -2.37628e-20)
(0.133211 3.50082 -3.47387e-21)
(0.269068 0.272548 0)
(0.983636 1.05685 1.07802e-20)
(1.12452 1.23732 -7.45386e-21)
(1.12744 1.27285 -4.5585e-21)
(1.07309 1.25178 -1.95968e-20)
(1.00223 1.21687 4.46539e-21)
(0.924643 1.18009 -6.65136e-21)
(0.837473 1.14156 2.83157e-21)
(0.738388 1.1 -5.61525e-20)
(0.622963 1.05441 -2.90724e-21)
(0.501454 1.0054 -2.54008e-19)
(0.384172 0.947557 1.08403e-20)
(0.273275 0.891054 -1.29327e-20)
(0.241725 1.56747 -1.59872e-20)
(0.302613 3.14683 3.64146e-21)
(0.316609 3.46917 3.59058e-22)
(0.274815 3.51537 6.66735e-20)
(0.24071 3.53708 3.43742e-20)
(0.194991 3.55612 -1.2081e-20)
(0.145276 3.55181 -1.77685e-20)
(0.255021 0.270731 2.81012e-20)
(0.98053 1.08307 7.36826e-20)
(1.11604 1.2635 -2.14123e-20)
(1.11661 1.2983 -1.7202e-20)
(1.06205 1.27687 0)
(0.991331 1.24197 1.31429e-20)
(0.913703 1.20547 -6.40808e-21)
(0.826585 1.16778 2.47415e-21)
(0.727271 1.12785 -6.23297e-21)
(0.611045 1.08534 -1.05293e-19)
(0.487395 1.04042 -1.1709e-19)
(0.365393 0.985813 -8.91243e-20)
(0.273786 1.03552 -9.70492e-20)
(0.304778 2.31417 1.00291e-19)
(0.381025 3.39776 8.65466e-20)
(0.354426 3.52686 0)
(0.306214 3.5616 0)
(0.269462 3.59383 -9.51393e-21)
(0.225224 3.63833 0)
(0.156302 3.62194 -1.59941e-20)
(0.245078 0.272826 -4.25277e-20)
(0.975477 1.11023 -6.31482e-20)
(1.10622 1.29101 0)
(1.1046 1.32467 1.31192e-21)
(1.04984 1.30265 -2.31076e-20)
(0.979383 1.26766 2.42996e-20)
(0.902039 1.23146 -2.19011e-21)
(0.815196 1.19454 1.42631e-21)
(0.715905 1.15619 -3.95734e-20)
(0.599277 1.11664 5.27132e-21)
(0.474334 1.0759 0)
(0.350173 1.03011 0)
(0.298843 1.32362 -8.81939e-20)
(0.380767 2.97776 3.62068e-20)
(0.444748 3.49827 4.70337e-20)
(0.392532 3.5616 0)