/*--------------------------------*- C++ -*----------------------------------*\
  =========                 |
  \\      /  F ield         | OpenFOAM: The Open Source CFD Toolbox
   \\    /   O peration     | Website:  https://openfoam.org
    \\  /    A nd           | Version:  6
     \\/     M anipulation  |
\*---------------------------------------------------------------------------*/
FoamFile
{
    version     2.0;
    format      ascii;
    class       volScalarField;
    location    "0.002";
    object      mag(U);
}
// * * * * * * * * * * * * * * * * * * * * * * * * * * * * * * * * * * * * * //

dimensions      [0 1 -1 0 0 0 0];

internalField   nonuniform List<scalar> 
1000
(
1.75048e-13
5.3973e-13
2.1881e-13
8.75238e-14
2.1881e-13
3.20921e-13
1.45873e-13
1.31286e-13
4.95968e-13
2.77159e-13
2.1881e-13
1.02111e-13
1.02111e-13
5.55043e-27
2.62571e-13
1.89635e-13
5.83492e-14
1.75048e-13
1.31286e-13
3.06333e-13
4.37619e-14
1.75048e-13
4.37619e-14
1.45873e-14
8.75238e-14
1.31286e-13
7.29365e-14
3.7927e-13
3.06333e-13
1.16698e-13
8.02302e-13
9.04413e-13
5.3973e-13
9.48175e-13
3.20921e-13
1.75048e-13
1.16698e-13
3.7927e-13
1.45873e-14
1.45873e-13
1.16698e-13
1.45873e-13
2.04222e-13
7.29365e-14
5.83492e-14
4.37619e-14
1.45873e-13
2.33397e-13
1.89635e-13
2.33397e-13
4.37619e-13
1.75048e-13
2.62571e-13
1.16698e-13
1.31286e-13
1.6046e-13
2.91746e-14
3.50095e-13
1.6046e-13
6.71016e-13
6.71016e-13
7.0019e-13
2.33397e-13
7.14778e-13
7.29365e-13
8.75238e-13
6.85603e-13
5.3973e-13
9.62762e-13
1.42956e-12
8.89825e-13
3.64683e-13
5.10556e-13
8.31476e-13
4.66794e-13
2.91746e-14
4.08444e-13
5.83492e-14
4.66794e-13
4.95968e-13
5.83492e-13
3.20921e-13
3.20921e-13
2.91746e-14
5.98079e-13
1.2691e-12
6.41841e-13
6.85603e-13
4.52206e-13
9.48175e-13
4.81381e-13
2.91746e-13
5.25143e-13
5.3973e-13
4.52206e-13
1.31286e-13
3.7927e-13
4.08444e-13
1.31286e-13
7.29365e-14
1.45873e-14
2.62571e-13
3.50095e-13
3.7927e-13
2.33397e-13
1.89635e-13
1.6046e-13
1.31286e-13
1.16698e-13
1.6046e-13
1.45873e-14
1.45873e-14
2.62571e-13
8.75238e-14
2.62571e-13
4.37619e-14
4.37619e-14
2.91746e-14
4.52206e-13
7.29365e-14
4.23032e-13
4.81381e-13
5.98079e-13
5.68905e-13
8.16889e-13
8.16889e-13
1.1524e-12
9.77349e-13
8.60651e-13
1.00652e-12
9.48175e-13
5.54317e-13
6.41841e-13
9.19e-13
2.77159e-13
3.50095e-13
1.31286e-13
1.45873e-14
1.45873e-13
3.20921e-13
3.93857e-13
6.27254e-13
6.41841e-13
2.04222e-13
2.33397e-13
1.75048e-13
2.62571e-13
1.89635e-13
8.75238e-14
2.77159e-13
2.91746e-13
2.33397e-13
5.68905e-13
6.56429e-13
4.52206e-13
5.54317e-13
3.06333e-13
3.20921e-13
3.7927e-13
1.02111e-13
2.33397e-13
1.6046e-13
1.02111e-13
8.75238e-14
2.04222e-13
3.06333e-13
5.83492e-14
1.31286e-13
2.62571e-13
7.29365e-14
8.75238e-14
3.06333e-13
3.64683e-13
5.83492e-14
4.08444e-13
5.83492e-14
2.47984e-13
2.33397e-13
2.91746e-14
4.37619e-14
1.89635e-13
2.91746e-14
8.75238e-14
4.08444e-13
4.81381e-13
3.7927e-13
4.81381e-13
8.16889e-13
1.0357e-12
8.46063e-13
9.91936e-13
4.66794e-13
5.68905e-13
3.35508e-13
3.20921e-13
2.04222e-13
4.95968e-13
2.33397e-13
1.6046e-13
6.56429e-13
4.37619e-14
4.08444e-13
2.33397e-13
1.02111e-13
1.16698e-13
4.08444e-13
1.45873e-13
4.37619e-14
3.35508e-13
6.56429e-13
3.06333e-13
7.29365e-14
7.29365e-14
1.16698e-13
1.75048e-13
2.62571e-13
2.33397e-13
7.29365e-14
5.83492e-14
2.91746e-13
1.89635e-13
7.29365e-14
1.45873e-14
2.47984e-13
1.75048e-13
1.45873e-13
1.6046e-13
1.16698e-13
5.3973e-13
2.33397e-13
3.64683e-13
8.75238e-14
2.62571e-13
4.37619e-14
5.3973e-13
3.50095e-13
5.25143e-13
3.35508e-13
2.1881e-13
2.1881e-13
1.89635e-13
2.91746e-14
2.77159e-13
5.83492e-14
5.83492e-14
1.75048e-13
3.06333e-13
4.37619e-14
5.83492e-14
4.66794e-13
1.45873e-13
3.64683e-13
2.77159e-13
1.75048e-13
6.41841e-13
3.20921e-13
2.33397e-13
1.02111e-13
4.08444e-13
2.77159e-13
1.31286e-13
5.3973e-13
2.62571e-13
3.50095e-13
3.06333e-13
3.50095e-13
5.98079e-13
8.46063e-13
7.14778e-13
4.37619e-13
3.93857e-13
5.25143e-13
5.83492e-14
2.91746e-13
5.98079e-13
4.37619e-14
2.04222e-13
1.31286e-13
2.77159e-13
1.6046e-13
7.29365e-14
2.04222e-13
4.95968e-13
1.02111e-13
4.23032e-13
6.12667e-13
9.77349e-13
8.89825e-13
9.77349e-13
9.04413e-13
8.75238e-13
1.02111e-12
8.75238e-13
8.60651e-13
8.16889e-13
8.02302e-13
8.16889e-13
8.46063e-13
1.05029e-12
1.00652e-12
1.16698e-12
6.41841e-13
6.12667e-13
1.09405e-12
6.27254e-13
6.56429e-13
1.18157e-12
4.81381e-13
6.85603e-13
7.5854e-13
7.43952e-13
8.89825e-13
7.5854e-13
1.00652e-12
1.06487e-12
1.06487e-12
1.22533e-12
9.19e-13
6.71016e-13
6.27254e-13
5.98079e-13
5.54317e-13
6.85603e-13
4.23032e-13
7.73127e-13
9.77349e-13
8.16889e-13
9.04413e-13
1.23992e-12
7.29365e-13
8.46063e-13
1.28368e-12
7.43952e-13
1.00652e-12
1.23992e-12
7.43952e-13
9.33587e-13
1.00652e-12
1.2691e-12
1.10863e-12
1.2691e-12
1.0357e-12
9.04413e-13
7.5854e-13
8.75238e-13
1.12322e-12
7.0019e-13
2.91746e-13
6.85603e-13
6.71016e-13
7.43952e-13
7.0019e-13
8.89825e-13
1.12322e-12
8.31476e-13
5.98079e-13
5.10556e-13
6.41841e-13
6.41841e-13
3.06333e-13
4.66794e-13
6.12667e-13
2.91746e-13
3.7927e-13
2.91746e-13
5.3973e-13
5.3973e-13
5.54317e-13
4.52206e-13
1.02111e-13
1.02111e-13
2.62571e-13
7.5854e-13
2.11516e-12
5.52859e-12
1.29827e-11
3.12022e-11
7.49495e-11
1.7884e-10
4.21981e-10
9.86889e-10
2.28441e-09
5.23125e-09
1.18484e-08
2.65345e-08
5.87485e-08
1.28566e-07
2.78035e-07
5.94059e-07
1.25377e-06
2.61312e-06
5.3772e-06
1.09219e-05
2.18914e-05
4.3288e-05
8.44233e-05
0.000162343
0.000307716
0.000574755
0.00105752
0.00191615
0.00341784
0.0059993
0.010359
0.0175888
0.0293553
0.0481391
0.0775346
0.122605
0.190271
0.289691
0.432573
0.633341
0.909065
1.27909
1.76431
2.38614
3.16526
4.12022
5.26623
6.61414
8.16993
9.93454
11.9042
14.0713
16.4247
18.9515
21.6372
24.4671
27.4264
30.5012
33.6784
36.9462
40.2941
43.7126
47.1936
50.73
54.3156
57.9452
61.6142
65.3185
69.0549
72.8202
76.6116
80.4268
84.2635
88.1197
91.9935
95.8831
99.7868
103.703
107.631
111.568
115.514
119.467
123.427
127.391
131.36
135.332
139.306
143.282
147.258
151.235
155.21
159.184
163.154
167.125
171.086
175.048
179
182.948
186.889
190.818
194.741
198.652
202.55
206.435
210.305
214.156
217.988
221.799
225.584
229.341
233.067
236.758
240.407
244.011
247.564
251.058
254.486
257.839
261.107
264.28
267.345
270.29
273.101
275.763
278.261
280.581
282.708
284.632
286.343
287.835
289.108
290.167
291.022
291.689
292.189
292.547
292.788
292.938
293.024
293.064
293.076
293.076
293.068
293.052
293.037
293.027
293.022
293.022
293.024
293.032
293.044
293.056
293.07
293.082
293.094
293.104
293.112
293.119
293.124
293.128
293.129
293.129
293.128
293.127
293.127
293.127
293.127
293.127
293.127
293.127
293.126
293.126
293.12
293.121
293.134
293.147
293.159
293.199
293.18
293.107
293.074
293.048
293.028
293.017
293.016
293.024
293.038
293.054
293.069
293.082
293.091
293.096
293.1
293.102
293.102
293.102
293.1
293.099
293.096
293.094
293.091
293.087
293.084
293.083
293.083
293.081
293.078
293.075
293.073
293.071
293.069
293.067
293.065
293.062
293.059
293.055
293.051
293.046
293.04
293.035
293.031
293.028
293.024
293.02
293.007
292.986
292.949
292.898
292.793
292.7
292.416
292.112
291.067
289.084
284.392
272.898
246.759
193.694
118.529
52.2502
16.9851
4.46222
1.01649
0.215181
0.0444375
0.00912174
0.00187031
0.000383424
7.86044e-05
1.61147e-05
3.30377e-06
6.77338e-07
1.38871e-07
2.84726e-08
5.83776e-09
1.19695e-09
2.45913e-10
5.08368e-11
1.04299e-11
1.838e-12
3.50096e-13
2.04222e-13
1.16699e-13
2.1881e-13
1.02111e-13
1.31286e-13
1.16699e-13
1.60461e-13
1.75048e-13
2.91746e-13
1.45873e-14
6.61643e-28
7.29366e-14
2.33397e-13
2.91746e-14
1.60461e-13
1.45873e-14
1.31286e-13
4.3762e-14
2.77679e-28
2.62572e-13
4.3762e-14
5.83493e-14
4.3762e-13
3.64683e-13
3.06334e-13
1.45873e-14
2.1881e-13
4.3762e-14
4.3762e-14
2.47984e-13
3.64683e-13
4.66794e-13
4.95969e-13
7.14779e-13
5.9808e-13
4.52207e-13
3.20921e-13
1.16699e-12
5.68906e-13
6.12667e-13
6.41842e-13
3.20921e-13
2.47984e-13
3.93858e-13
1.18157e-12
6.27255e-13
6.56429e-13
9.77351e-13
4.66794e-13
3.50096e-13
2.77159e-13
4.23032e-13
3.7927e-13
1.16699e-13
3.50096e-13
4.3762e-13
2.1881e-13
1.89635e-13
3.50096e-13
5.54318e-13
5.39731e-13
6.12667e-13
1.02111e-12
7.29366e-13
7.14779e-13
9.48176e-13
7.29366e-13
1.06487e-12
8.60652e-13
7.43953e-13
5.83493e-13
2.91746e-13
3.50096e-13
8.75239e-13
5.10556e-13
1.75048e-13
1.89635e-13
9.19001e-13
4.23032e-13
1.00653e-12
4.3762e-13
8.75239e-13
8.02303e-13
9.91938e-13
1.09405e-12
1.10864e-12
9.91938e-13
9.33589e-13
1.07946e-12
9.91938e-13
1.06487e-12
1.1524e-12
1.12322e-12
7.73128e-13
1.29827e-12
1.05029e-12
9.48176e-13
7.58541e-13
8.75239e-13
7.73128e-13
1.89635e-13
6.41842e-13
6.85604e-13
4.23032e-13
4.23032e-13
4.3762e-14
2.1881e-13
5.83493e-14
8.75239e-14
1.02111e-13
5.83493e-14
1.45873e-14
1.45873e-14
3.20921e-13
2.33397e-13
2.1881e-13
5.10556e-13
2.1881e-13
7.29366e-14
3.06334e-13
8.75239e-14
8.75239e-14
2.47984e-13
2.1881e-13
3.06334e-13
7.58541e-13
7.29366e-14
6.41842e-13
1.31286e-13
7.29366e-14
1.45873e-13
1.89635e-13
8.75239e-14
2.33397e-13
1.31286e-13
1.45873e-13
2.04222e-13
4.3762e-14
8.01483e-28
3.35508e-13
2.33397e-13
8.75239e-14
1.31286e-13
1.31286e-13
5.83493e-14
1.60461e-13
4.3762e-14
2.39333e-27
8.75239e-14
5.54318e-13
1.89635e-13
1.31286e-13
2.47984e-13
2.04222e-13
8.75239e-14
5.83493e-14
3.34477e-28
1.75048e-13
2.04222e-13
1.16699e-13
4.3762e-14
1.89635e-13
7.29366e-14
2.62572e-13
2.33397e-13
2.91746e-14
2.33397e-13
1.16699e-13
1.02111e-13
1.45873e-13
2.62572e-13
4.81382e-13
2.91746e-14
3.06334e-13
3.64683e-13
1.89635e-13
2.91746e-14
7.29366e-14
1.75048e-13
1.3316e-27
2.03842e-27
2.62572e-13
2.91746e-13
2.1881e-13
7.29366e-14
2.77159e-13
1.45873e-14
1.31286e-13
2.91746e-14
4.08445e-13
1.60461e-13
2.47984e-13
7.29366e-14
1.45873e-14
3.7927e-13
3.50096e-13
1.02111e-13
4.52207e-13
1.45873e-14
2.91746e-14
1.45873e-13
1.45873e-14
2.91746e-14
2.1881e-13
7.29366e-14
4.23032e-13
1.31286e-13
5.25144e-13
3.7927e-13
2.91746e-14
2.33397e-13
2.91746e-14
1.31286e-13
5.83493e-14
2.77159e-13
1.58403e-27
1.89635e-13
2.91746e-14
1.31286e-13
5.39731e-13
4.23032e-13
1.16699e-13
1.45873e-13
1.31286e-13
3.64683e-13
2.91746e-13
3.50096e-13
4.08445e-13
4.85938e-27
1.45873e-14
4.08445e-13
3.93858e-13
5.83493e-14
3.21855e-28
1.02111e-13
1.45873e-14
1.02111e-13
7.29366e-14
2.91746e-14
1.75048e-13
1.60461e-13
1.02111e-13
2.91746e-13
3.06334e-13
1.75048e-13
1.02111e-13
8.75239e-14
1.60461e-13
7.14779e-13
8.02303e-13
3.35508e-13
2.62572e-13
1.45873e-13
1.02111e-13
8.75239e-14
8.75239e-14
1.02111e-13
2.33397e-13
8.75239e-14
1.02111e-13
4.3762e-14
2.47984e-13
1.75048e-13
2.47984e-13
2.47984e-13
3.50096e-13
1.16699e-13
2.77159e-13
3.64683e-13
5.54318e-13
3.50096e-13
7.29366e-14
1.16699e-13
3.93858e-13
4.52207e-13
3.93858e-13
3.7927e-13
8.75239e-14
1.60461e-13
2.02058e-27
5.83493e-14
1.45873e-14
1.31286e-13
1.75048e-13
8.75239e-14
1.45873e-13
2.91746e-13
4.95969e-13
2.47984e-13
2.77159e-13
3.50096e-13
2.77159e-13
7.29366e-14
7.29366e-14
4.3762e-14
2.77159e-13
4.3762e-14
3.20921e-13
1.45873e-13
2.91746e-14
3.35508e-13
3.35508e-13
1.45873e-13
5.83493e-14
3.35508e-13
5.83493e-14
1.75048e-13
2.1881e-13
2.77159e-13
3.06334e-13
7.29366e-14
2.91746e-13
1.31286e-13
7.29366e-14
1.45873e-14
2.1881e-13
2.91746e-13
1.45873e-13
4.66794e-13
3.7927e-13
5.83493e-14
1.45873e-14
1.45873e-14
1.75048e-13
2.91746e-13
1.02111e-13
2.77159e-13
3.93858e-13
5.39731e-13
5.54318e-13
8.89827e-13
5.39731e-13
4.81382e-13
2.91746e-13
6.27255e-13
1.60461e-13
3.06334e-13
4.3762e-14
2.62572e-13
3.35508e-13
1.89635e-13
1.16699e-13
1.60461e-13
1.16699e-13
1.75048e-13
1.75048e-13
2.47984e-13
3.64683e-13
5.83493e-14
4.3762e-14
1.16699e-13
7.29366e-14
4.3762e-14
1.02111e-13
8.75239e-14
5.10556e-13
7.29366e-14
1.16699e-13
2.33397e-13
1.75048e-13
1.02111e-13
1.02111e-13
3.7927e-13
6.71017e-13
6.27255e-13
1.18219e-27
)
;

boundaryField
{
    sides
    {
        type            calculated;
        value           nonuniform List<scalar> 2(1.18219e-27 1.75048e-13);
    }
    empty
    {
        type            empty;
    }
}


// ************************************************************************* //
