/*--------------------------------*- C++ -*----------------------------------*\
  =========                 |
  \\      /  F ield         | OpenFOAM: The Open Source CFD Toolbox
   \\    /   O peration     | Website:  https://openfoam.org
    \\  /    A nd           | Version:  6
     \\/     M anipulation  |
\*---------------------------------------------------------------------------*/
FoamFile
{
    version     2.0;
    format      ascii;
    class       volScalarField;
    location    "0.006";
    object      mag(U);
}
// * * * * * * * * * * * * * * * * * * * * * * * * * * * * * * * * * * * * * //

dimensions      [0 1 -1 0 0 0 0];

internalField   nonuniform List<scalar> 
1000
(
2.91746e-13
4.37619e-13
3.50095e-13
1.6046e-13
4.66794e-13
7.29365e-14
3.20921e-13
5.25143e-13
1.02111e-13
5.98079e-13
5.3973e-13
4.52206e-13
3.35508e-13
1.02111e-13
1.31286e-13
1.45873e-13
1.16698e-13
1.02111e-13
3.50095e-13
7.43952e-13
8.46063e-13
7.73127e-13
5.98079e-13
6.56429e-13
4.95968e-13
7.14778e-13
4.95968e-13
9.77349e-13
7.87714e-13
3.50095e-13
5.98079e-13
1.45873e-14
2.77159e-13
1.75048e-13
5.83492e-13
6.12667e-13
5.68905e-13
1.02111e-13
3.50095e-13
5.68905e-13
2.91746e-13
1.02111e-13
4.95968e-13
4.23032e-13
3.06333e-13
3.35508e-13
1.75048e-13
3.50095e-13
1.6046e-13
2.33397e-13
2.33397e-13
1.02111e-13
5.83492e-14
1.45873e-13
2.91746e-14
4.37619e-14
5.83492e-14
1.16698e-13
5.68905e-13
1.45873e-13
7.43952e-13
3.35508e-13
5.10556e-13
5.83492e-14
4.08444e-13
5.3973e-13
3.36118e-26
1.45873e-13
1.6046e-13
1.89635e-13
2.91746e-14
4.95968e-13
1.02111e-13
2.47984e-13
3.35508e-13
8.60651e-13
1.10863e-12
1.31286e-12
1.45873e-14
3.35508e-13
7.29365e-13
2.33397e-13
1.45873e-13
8.60651e-13
4.23032e-13
1.45873e-14
1.02111e-13
2.1881e-13
5.68905e-13
1.45873e-13
2.62571e-13
4.37619e-14
1.16698e-13
8.75238e-14
4.81381e-13
3.93857e-13
4.66794e-13
4.95968e-13
1.89635e-13
1.31286e-13
4.66794e-13
3.20921e-13
4.08444e-13
7.5854e-13
6.71016e-13
1.2691e-12
8.02302e-13
1.31286e-12
9.62762e-13
1.0357e-12
1.42956e-12
1.47332e-12
1.53167e-12
1.61919e-12
9.91936e-13
1.02111e-12
1.31286e-12
2.02763e-12
2.08598e-12
1.19616e-12
1.47332e-12
1.23992e-12
1.35662e-12
1.54625e-12
1.32744e-12
9.48175e-13
8.46063e-13
1.00652e-12
5.10556e-13
2.04222e-13
1.00652e-12
8.89825e-13
1.21075e-12
1.05029e-12
7.14778e-13
8.89825e-13
7.0019e-13
6.56429e-13
1.05029e-12
1.45873e-12
1.40038e-12
1.1524e-12
1.94011e-12
1.94011e-12
2.02763e-12
1.88176e-12
2.15892e-12
1.88176e-12
1.75048e-12
2.31938e-12
1.42956e-12
1.18157e-12
1.51708e-12
1.98387e-12
1.18157e-12
1.38579e-12
1.02111e-12
1.38579e-12
1.7213e-12
1.1524e-12
1.61919e-12
1.16698e-12
1.22533e-12
1.45873e-12
1.94011e-12
1.6046e-12
1.54625e-12
8.60651e-13
1.42956e-12
1.09405e-12
5.98079e-13
1.79424e-12
7.5854e-13
1.07946e-12
1.09405e-12
1.00652e-12
8.02302e-13
1.18157e-12
9.48175e-13
1.05029e-12
1.21075e-12
1.54625e-12
1.61919e-12
1.28368e-12
1.76506e-12
2.20268e-12
1.61919e-12
1.25451e-12
1.23992e-12
8.02302e-13
1.0357e-12
1.09405e-12
8.31476e-13
1.31286e-13
8.60651e-13
2.24644e-12
5.95162e-12
1.21512e-11
2.30771e-11
4.23469e-11
7.79837e-11
1.40096e-10
2.51047e-10
4.43264e-10
7.79691e-10
1.36296e-09
2.36873e-09
4.09431e-09
7.03616e-09
1.20234e-08
2.04283e-08
3.45113e-08
5.79694e-08
9.68095e-08
1.60731e-07
2.65292e-07
4.35283e-07
7.09935e-07
1.15092e-06
1.8545e-06
2.96989e-06
4.72679e-06
7.47615e-06
1.17504e-05
1.83512e-05
2.84767e-05
4.3904e-05
6.72481e-05
0.000102327
0.000154672
0.000232229
0.000346317
0.000512931
0.00075447
0.00110203
0.0015984
0.0023019
0.00329129
0.00467191
0.00658326
0.00920819
0.0127839
0.0176147
0.0240869
0.0326852
0.0440102
0.0587979
0.0779381
0.102493
0.133711
0.173045
0.222152
0.282901
0.357361
0.447786
0.556589
0.686304
0.839543
1.01894
1.22708
1.46648
1.73945
2.04813
2.39434
2.77963
3.20517
3.67181
4.17998
4.7298
5.32103
5.95311
6.6252
7.33623
8.08491
8.86982
9.68938
10.542
11.4259
12.3394
13.2808
14.2484
15.2406
16.2559
17.2926
18.3495
19.425
20.518
21.6273
22.7517
23.8902
25.0419
26.2058
27.3812
28.5674
29.7635
30.9691
32.1834
33.406
34.6364
35.8741
37.1186
38.3696
39.6268
40.8898
42.1582
43.4318
44.7103
45.9935
47.2811
48.5729
49.8687
51.1683
52.4715
53.7781
55.088
56.401
57.7169
59.0356
60.3569
61.6808
63.0072
64.3358
65.6666
66.9994
68.3343
69.671
71.0095
72.3497
73.6915
75.0349
76.3797
77.726
79.0735
80.4223
81.7723
83.1235
84.4757
85.829
87.1832
88.5384
89.8945
91.2514
92.6091
93.9676
95.3268
96.6868
98.0473
99.4085
100.77
102.133
103.495
104.859
106.223
107.587
108.952
110.317
111.682
113.048
114.415
115.781
117.148
118.515
119.882
121.25
122.618
123.986
125.354
126.722
128.091
129.46
130.828
132.197
133.566
134.936
136.305
137.674
139.043
140.413
141.782
143.151
144.521
145.89
147.26
148.629
149.998
151.367
152.736
154.105
155.474
156.843
158.212
159.58
160.949
162.317
163.685
165.053
166.421
167.788
169.156
170.522
171.89
173.256
174.622
175.988
177.354
178.719
180.084
181.449
182.813
184.177
185.541
186.904
188.266
189.629
190.99
192.351
193.712
195.072
196.432
197.791
199.149
200.506
201.863
203.22
204.575
205.93
207.283
208.636
209.988
211.339
212.689
214.038
215.386
216.733
218.078
219.423
220.765
222.107
223.447
224.785
226.122
227.457
228.79
230.121
231.451
232.778
234.102
235.425
236.744
238.062
239.376
240.687
241.995
243.3
244.6
245.898
247.191
248.479
249.763
251.042
252.316
253.585
254.847
256.103
257.352
258.594
259.828
261.054
262.271
263.478
264.675
265.862
267.036
268.199
269.348
270.482
271.602
272.705
273.791
274.858
275.906
276.932
277.936
278.916
279.871
280.8
281.7
282.57
283.409
284.216
284.988
285.725
286.426
287.089
287.713
288.299
288.844
289.35
289.816
290.243
290.631
290.981
291.295
291.573
291.819
292.035
292.221
292.381
292.518
292.633
292.729
292.809
292.875
292.929
292.972
293.007
293.035
293.058
293.076
293.09
293.102
293.111
293.119
293.125
293.131
293.135
293.139
293.142
293.145
293.148
293.15
293.151
293.153
293.154
293.155
293.156
293.157
293.157
293.158
293.158
293.159
293.159
293.159
293.16
293.16
293.16
293.16
293.16
293.16
293.16
293.161
293.161
293.161
293.161
293.161
293.161
293.161
293.161
293.161
293.161
293.161
293.161
293.161
293.162
293.162
293.162
293.162
293.162
293.162
293.162
293.162
293.162
293.162
293.162
293.162
293.163
293.163
293.163
293.163
293.163
293.163
293.163
293.163
293.163
293.163
293.163
293.163
293.163
293.163
293.163
293.163
293.163
293.163
293.164
293.164
293.164
293.164
293.164
293.164
293.164
293.164
293.164
293.164
293.164
293.164
293.164
293.164
293.164
293.164
293.164
293.164
293.164
293.164
293.164
293.164
293.165
293.165
293.165
293.165
293.165
293.165
293.165
293.165
293.165
293.165
293.165
293.164
293.164
293.164
293.164
293.164
293.163
293.163
293.163
293.163
293.163
293.163
293.163
293.163
293.163
293.163
293.163
293.163
293.163
293.163
293.163
293.163
293.163
293.163
293.163
293.163
293.163
293.163
293.163
293.163
293.163
293.163
293.163
293.163
293.163
293.162
293.162
293.161
293.16
293.158
293.156
293.153
293.149
293.145
293.141
293.137
293.134
293.131
293.129
293.129
293.129
293.131
293.134
293.137
293.14
293.144
293.147
293.15
293.152
293.155
293.156
293.158
293.159
293.159
293.16
293.16
293.16
293.161
293.161
293.161
293.161
293.16
293.16
293.16
293.16
293.16
293.16
293.159
293.159
293.159
293.159
293.159
293.158
293.158
293.159
293.159
293.159
293.159
293.159
293.159
293.159
293.159
293.158
293.158
293.158
293.157
293.157
293.157
293.157
293.156
293.156
293.156
293.156
293.156
293.157
293.157
293.157
293.157
293.157
293.157
293.156
293.156
293.156
293.155
293.155
293.154
293.154
293.154
293.153
293.153
293.153
293.153
293.154
293.154
293.154
293.154
293.154
293.154
293.154
293.154
293.153
293.153
293.152
293.151
293.151
293.15
293.15
293.149
293.149
293.149
293.15
293.15
293.15
293.151
293.151
293.151
293.151
293.15
293.15
293.149
293.148
293.147
293.146
293.145
293.145
293.144
293.144
293.144
293.144
293.144
293.145
293.145
293.146
293.146
293.146
293.145
293.145
293.144
293.143
293.142
293.14
293.139
293.137
293.136
293.135
293.135
293.136
293.137
293.138
293.138
293.138
293.138
293.137
293.137
293.136
293.135
293.134
293.133
293.131
293.127
293.12
293.111
293.1
293.089
293.071
293.046
292.993
292.924
292.707
292.504
291.844
290.896
288.305
282.023
267.802
234.585
173.611
97.1751
38.943
11.8031
2.95569
0.654513
0.13704
0.0282084
0.00578412
0.00118521
0.000242834
4.97532e-05
1.01937e-05
2.08855e-06
4.27917e-07
8.76755e-08
1.7964e-08
3.68149e-09
7.55069e-10
1.55618e-10
3.34633e-11
7.62917e-12
2.74242e-12
1.61919e-12
1.63378e-12
1.69213e-12
1.41497e-12
1.41497e-12
1.09405e-12
1.40038e-12
1.0357e-12
1.1524e-12
1.02111e-12
2.91746e-14
9.91938e-13
5.83493e-13
4.66794e-13
1.31286e-13
5.83493e-14
4.52207e-13
4.23032e-13
6.27255e-13
2.04222e-13
2.04222e-13
4.3762e-14
1.31286e-13
1.60461e-13
1.75048e-13
2.62572e-13
7.58541e-13
3.35508e-13
1.07946e-12
6.71017e-13
5.25144e-13
7.14779e-13
3.20921e-13
1.0357e-12
1.69213e-12
1.02111e-12
7.00191e-13
6.85604e-13
9.77351e-13
6.12667e-13
6.27255e-13
3.7927e-13
5.25144e-13
3.93858e-13
8.31477e-13
3.93858e-13
5.83493e-14
4.95969e-13
2.91746e-13
4.81382e-13
5.39731e-13
3.06334e-13
5.83493e-13
3.50096e-13
3.06334e-13
8.75239e-13
6.71017e-13
3.06334e-13
7.29366e-14
1.45873e-13
1.75048e-13
1.31286e-13
8.89827e-13
1.45873e-14
5.83493e-13
9.77351e-13
5.83493e-13
1.05029e-12
4.3762e-13
2.04222e-13
8.02303e-13
5.39731e-13
4.52207e-13
1.60461e-13
3.7927e-13
5.54318e-13
1.45873e-13
8.1689e-13
7.00191e-13
2.91746e-13
9.62763e-13
3.64683e-13
2.47984e-13
4.52207e-13
4.3762e-13
1.31286e-13
1.16699e-13
4.08445e-13
2.91746e-14
2.62572e-13
5.68906e-13
4.81382e-13
3.06334e-13
7.29366e-14
3.20921e-13
2.47984e-13
6.27255e-13
1.31286e-13
6.56429e-13
4.23032e-13
1.75048e-13
3.20921e-13
2.33397e-13
6.27255e-13
2.62572e-13
1.60461e-13
3.93858e-13
2.47984e-13
1.02111e-13
7.29366e-14
3.06334e-13
4.08445e-13
2.77159e-13
3.20921e-13
3.93858e-13
1.89635e-13
7.00191e-13
9.91938e-13
1.2691e-12
2.04222e-13
2.91746e-13
4.66794e-13
1.89635e-13
5.83493e-14
1.75048e-13
3.35508e-13
2.04222e-13
8.46065e-13
3.20921e-13
8.1689e-13
2.04222e-13
3.7927e-13
1.60461e-13
1.16699e-13
1.75048e-13
6.56429e-13
1.02111e-13
3.35508e-13
4.81382e-13
7.73128e-13
2.91746e-14
7.29366e-14
2.27562e-12
2.93205e-12
3.13627e-12
1.16699e-13
)
;

boundaryField
{
    sides
    {
        type            calculated;
        value           nonuniform List<scalar> 2(1.16699e-13 2.91746e-13);
    }
    empty
    {
        type            empty;
    }
}


// ************************************************************************* //
