/*--------------------------------*- C++ -*----------------------------------*\
  =========                 |
  \\      /  F ield         | OpenFOAM: The Open Source CFD Toolbox
   \\    /   O peration     | Website:  https://openfoam.org
    \\  /    A nd           | Version:  6
     \\/     M anipulation  |
\*---------------------------------------------------------------------------*/
FoamFile
{
    version     2.0;
    format      ascii;
    class       volScalarField;
    location    "10.5";
    object      p;
}
// * * * * * * * * * * * * * * * * * * * * * * * * * * * * * * * * * * * * * //

dimensions      [0 2 -2 0 0 0 0];

internalField   nonuniform List<scalar> 
8800
(
0.464369
0.415106
0.37721
0.349232
0.329182
0.314751
0.304362
0.297033
0.292301
0.290211
0.291209
0.29501
0.301274
0.310219
0.322589
0.339657
0.363353
0.396316
0.439155
0.491628
0.298745
0.305156
0.31446
0.318171
0.315776
0.309918
0.303243
0.297188
0.292464
0.289554
0.289096
0.291311
0.295518
0.301197
0.307841
0.314465
0.319011
0.318627
0.311746
0.30269
0.271771
0.278155
0.282959
0.287266
0.290678
0.292053
0.291222
0.289234
0.287196
0.28605
0.286818
0.28895
0.291381
0.293169
0.293153
0.29073
0.286801
0.28231
0.27725
0.273478
0.267252
0.270115
0.273078
0.275608
0.27765
0.279461
0.280864
0.281454
0.281445
0.281421
0.281812
0.28237
0.282505
0.281741
0.280247
0.278449
0.276297
0.273516
0.270767
0.269206
0.261919
0.263443
0.26596
0.268791
0.271044
0.272591
0.273734
0.274744
0.275568
0.276184
0.276392
0.276223
0.27572
0.274951
0.273861
0.272122
0.26963
0.266827
0.264946
0.264208
0.2584
0.259149
0.2612
0.263708
0.266113
0.268423
0.270312
0.271594
0.27244
0.273
0.273367
0.273335
0.272772
0.271543
0.269648
0.267463
0.26511
0.262759
0.261423
0.261166
0.257523
0.25788
0.258865
0.260154
0.261561
0.262908
0.264237
0.265625
0.266838
0.267733
0.268071
0.267839
0.267143
0.26623
0.26521
0.263974
0.26277
0.261656
0.261043
0.260914
0.256087
0.256286
0.256858
0.257685
0.258615
0.259746
0.261034
0.26224
0.263341
0.264253
0.264765
0.264765
0.264359
0.263613
0.262764
0.262063
0.261331
0.260704
0.260374
0.260304
0.253697
0.2538
0.254135
0.254688
0.255369
0.256066
0.257095
0.258224
0.259373
0.26042
0.261082
0.261249
0.261056
0.260684
0.260315
0.259895
0.259501
0.259167
0.25901
0.258975
0.250684
0.250737
0.250982
0.251417
0.251919
0.252783
0.253543
0.254501
0.255597
0.256736
0.257634
0.258118
0.258286
0.258277
0.25803
0.257847
0.257615
0.257399
0.257317
0.257302
0.247436
0.247469
0.247653
0.248016
0.248507
0.249141
0.249943
0.250945
0.252139
0.253472
0.25464
0.255406
0.255826
0.256014
0.256046
0.255981
0.255868
0.255772
0.255743
0.255734
0.243847
0.243873
0.244014
0.244304
0.244735
0.245331
0.246134
0.247191
0.248528
0.250116
0.251628
0.252733
0.253452
0.25389
0.254128
0.254238
0.25427
0.254276
0.254284
0.254277
0.239839
0.239869
0.24
0.24027
0.240693
0.241315
0.242196
0.2434
0.244975
0.246921
0.248858
0.250347
0.251365
0.252044
0.25247
0.252725
0.252869
0.252947
0.252981
0.252975
0.235355
0.235381
0.235528
0.235817
0.236281
0.236981
0.237999
0.239424
0.241332
0.243745
0.246203
0.248134
0.249531
0.250473
0.251095
0.251491
0.251732
0.251869
0.251924
0.251918
0.230336
0.230365
0.230537
0.230874
0.23142
0.232255
0.233483
0.235223
0.237581
0.240601
0.24372
0.246222
0.248018
0.24926
0.25009
0.250629
0.250965
0.251157
0.251233
0.251226
0.224664
0.2247
0.224911
0.225324
0.225996
0.227026
0.228548
0.230715
0.233666
0.237464
0.241408
0.244582
0.246878
0.248474
0.249547
0.250247
0.250687
0.250938
0.251037
0.251029
0.218183
0.218228
0.218495
0.219016
0.219863
0.221162
0.22308
0.225811
0.229532
0.234323
0.239299
0.243305
0.246206
0.248226
0.249587
0.250477
0.251036
0.251356
0.251481
0.251471
0.21068
0.210739
0.211081
0.211749
0.212833
0.214493
0.216937
0.220407
0.225122
0.231173
0.23744
0.242472
0.246114
0.248649
0.250357
0.251474
0.252176
0.252578
0.252734
0.252722
0.201859
0.201937
0.202383
0.203251
0.20466
0.206807
0.209944
0.214378
0.220373
0.228022
0.235897
0.242194
0.24674
0.249902
0.252034
0.253426
0.2543
0.254798
0.254992
0.254977
0.191309
0.191412
0.191999
0.193147
0.195013
0.197813
0.201872
0.207571
0.215219
0.224886
0.234755
0.242601
0.24825
0.252177
0.254826
0.256556
0.257638
0.258252
0.25849
0.258472
0.178462
0.178602
0.179385
0.180923
0.183402
0.187089
0.192421
0.199814
0.209591
0.221797
0.234119
0.243847
0.250835
0.255694
0.258978
0.261128
0.26247
0.263225
0.263516
0.263492
0.162531
0.162727
0.163792
0.1659
0.169262
0.174213
0.181256
0.190891
0.203433
0.218814
0.234117
0.246104
0.254703
0.260697
0.264765
0.267444
0.269126
0.270068
0.270426
0.270386
0.142333
0.142613
0.144116
0.147104
0.15177
0.158534
0.168012
0.18069
0.19678
0.216059
0.234908
0.249558
0.260074
0.267442
0.272485
0.27584
0.277967
0.279155
0.279593
0.279542
0.115955
0.11638
0.118661
0.12314
0.129894
0.139467
0.152453
0.169211
0.189778
0.21373
0.236687
0.254395
0.267146
0.276173
0.282438
0.286674
0.289411
0.290961
0.291533
0.291462
0.0801009
0.0808805
0.0847617
0.0920342
0.10242
0.116419
0.134435
0.15659
0.182676
0.212063
0.239627
0.260739
0.276031
0.287028
0.294838
0.30027
0.303893
0.305983
0.306759
0.306663
0.0285113
0.0307393
0.0387337
0.0517201
0.0684873
0.0892879
0.114256
0.143244
0.175836
0.211292
0.243824
0.268583
0.286654
0.29991
0.309629
0.31671
0.321699
0.324797
0.326
0.325869
-0.0486188
-0.0378655
-0.0197164
0.0034648
0.0297691
0.0595953
0.093006
0.129813
0.169605
0.211687
0.249654
0.278507
0.299843
0.315908
0.328188
0.337743
0.345091
0.350238
0.352747
0.353088
-0.129633
-0.107874
-0.0787693
-0.0451248
-0.00901773
0.029881
0.0717367
0.116478
0.163834
0.213257
0.257677
0.291668
0.317238
0.336999
0.352665
0.365327
0.375767
0.384529
0.389135
0.389728
-0.194905
-0.169289
-0.132153
-0.0901744
-0.0456143
0.00164656
0.0515188
0.103912
0.158528
0.21487
0.265169
0.303587
0.332517
0.354959
0.372793
0.387256
0.398996
0.40827
0.412975
0.413676
-0.246385
-0.218576
-0.17671
-0.128983
-0.0779624
-0.0239586
0.0327544
0.0919248
0.15314
0.215789
0.271224
0.313157
0.344417
0.368356
0.387069
0.401967
0.413965
0.423265
0.428151
0.428949
-0.287933
-0.259262
-0.214127
-0.162105
-0.106221
-0.0469419
0.0154815
0.0805187
0.147584
0.215844
0.275793
0.320693
0.353732
0.37867
0.397897
0.412987
0.424944
0.434056
0.438954
0.439785
-0.323056
-0.29405
-0.24654
-0.191119
-0.131249
-0.0675184
-0.000322698
0.0698002
0.142114
0.215577
0.279715
0.327259
0.361814
0.387551
0.407106
0.422232
0.434076
0.442979
0.447859
0.448714
-0.353883
-0.324722
-0.275471
-0.217326
-0.154163
-0.0866132
-0.0151828
0.059535
0.136656
0.214908
0.282955
0.333018
0.369027
0.395521
0.415411
0.430618
0.442401
0.451174
0.455974
0.456833
-0.381865
-0.352569
-0.301936
-0.241506
-0.175554
-0.104738
-0.0295863
0.0492209
0.130768
0.213637
0.285618
0.338285
0.375833
0.40317
0.423461
0.438804
0.450573
0.459244
0.463961
0.464826
-0.407862
-0.378409
-0.326605
-0.264244
-0.195931
-0.122309
-0.0438853
0.0386806
0.124426
0.211829
0.287807
0.343243
0.382497
0.410812
0.431609
0.447161
0.458964
0.467554
0.47217
0.47305
-0.432535
-0.402851
-0.350031
-0.286006
-0.215639
-0.139537
-0.0581767
0.0278197
0.117514
0.209345
0.289472
0.347933
0.389148
0.418642
0.440085
0.455939
0.467828
0.476361
0.480867
0.481756
-0.456136
-0.42622
-0.372509
-0.307051
-0.234892
-0.156619
-0.0726472
0.0164589
0.109876
0.206088
0.290535
0.352334
0.395827
0.426756
0.449034
0.465315
0.47736
0.485881
0.490268
0.49112
-0.479012
-0.44875
-0.394269
-0.327581
-0.253878
-0.173712
-0.0874145
0.00454124
0.101445
0.201956
0.290872
0.356344
0.402483
0.435173
0.458522
0.475396
0.487713
0.49627
0.500528
0.5013
-0.501214
-0.470612
-0.415416
-0.347664
-0.272627
-0.190809
-0.102468
-0.00796229
0.0921728
0.196835
0.290337
0.359799
0.409003
0.443835
0.468557
0.486228
0.498945
0.507608
0.511754
0.51238
-0.522812
-0.491851
-0.43601
-0.367335
-0.291154
-0.207921
-0.117807
-0.0210425
0.0820429
0.190652
0.28876
0.362487
0.415192
0.452632
0.479088
0.497802
0.511062
0.519909
0.523981
0.524433
-0.543839
-0.512539
-0.456075
-0.386593
-0.309453
-0.225011
-0.133383
-0.0346497
0.0710725
0.183372
0.28598
0.364176
0.420795
0.461349
0.489992
0.510083
0.524091
0.533194
0.537183
0.537438
-0.564322
-0.532601
-0.475568
-0.405403
-0.327449
-0.242015
-0.149115
-0.0487151
0.0593202
0.174978
0.281908
0.364628
0.425453
0.469627
0.501051
0.522936
0.537915
0.54734
0.551185
0.551243
-0.584093
-0.552001
-0.494448
-0.42371
-0.345091
-0.258846
-0.164929
-0.063133
0.0468656
0.1655
0.276441
0.363567
0.428746
0.477038
0.51198
0.536256
0.552452
0.562149
0.565739
0.565557
-0.603117
-0.570695
-0.512665
-0.441458
-0.362302
-0.275433
-0.180717
-0.0778178
0.033818
0.154994
0.269532
0.360825
0.430377
0.483133
0.522329
0.549981
0.567871
0.577582
0.58054
0.580043
-0.621436
-0.588658
-0.530181
-0.458602
-0.379017
-0.291682
-0.196379
-0.0926505
0.0202835
0.143551
0.261224
0.356284
0.429963
0.487223
0.531322
0.563808
0.584711
0.594066
0.595077
0.594059
-0.638901
-0.605833
-0.546972
-0.475074
-0.395174
-0.307513
-0.211814
-0.107509
0.00640391
0.131308
0.251563
0.349867
0.427206
0.488543
0.537788
0.576614
0.603485
0.614345
0.610865
0.606081
-0.655597
-0.622239
-0.563037
-0.490893
-0.410805
-0.322973
-0.227081
-0.122453
-0.00788826
0.118203
0.240405
0.34143
0.421916
0.486358
0.540201
0.586101
0.622143
0.641456
0.636552
0.62671
-0.671471
-0.637943
-0.578489
-0.506228
-0.426174
-0.338375
-0.242574
-0.137982
-0.0231678
0.103573
0.227012
0.330043
0.41329
0.479431
0.535261
0.586624
0.629832
0.651821
0.646441
0.628243
-0.686436
-0.652901
-0.593162
-0.520903
-0.441075
-0.353441
-0.258069
-0.153753
-0.0390935
0.0877957
0.211637
0.315602
0.401107
0.46775
0.519032
0.568471
0.606096
0.612084
0.554055
0.515804
-0.700391
-0.66746
-0.606612
-0.534434
-0.454976
-0.367755
-0.273333
-0.169517
-0.0553952
0.0710975
0.194439
0.298179
0.384768
0.452446
0.492126
0.522992
0.543263
0.507432
0.437474
0.391759
-0.740252
-0.680221
-0.618865
-0.54745
-0.468533
-0.382079
-0.288287
-0.185398
-0.0722972
0.0531398
0.175043
0.277482
0.362562
0.434408
0.453635
0.453057
0.43006
0.370277
0.289646
0.246009
-0.709312
-0.691948
-0.63705
-0.567152
-0.488529
-0.403159
-0.310939
-0.209706
-0.0986284
0.024265
0.142134
0.24088
0.318769
0.381013
0.386129
0.268089
0.159911
0.0872342
0.0117921
0.0575795
-0.736638
-0.706403
-0.651158
-0.581243
-0.503406
-0.418948
-0.327365
-0.227535
-0.11831
0.00229069
0.116493
0.210316
0.281215
0.312883
0.255913
0.0899702
-0.0514861
-0.149335
-0.252907
-0.172141
-0.756427
-0.723818
-0.667051
-0.597138
-0.519871
-0.436085
-0.345401
-0.247252
-0.140234
-0.0222843
0.0882859
0.1747
0.236151
0.234203
0.102659
-0.115837
-0.291406
-0.419503
-0.568473
-0.473788
-0.774729
-0.741156
-0.683359
-0.613236
-0.536311
-0.45326
-0.363876
-0.267557
-0.162652
-0.0474792
0.0587911
0.136573
0.182585
0.13844
-0.0744915
-0.337784
-0.569081
-0.760424
-0.948221
-0.887735
-0.791897
-0.758196
-0.699932
-0.62967
-0.553086
-0.470901
-0.383028
-0.288615
-0.186026
-0.0741097
0.0262712
0.095222
0.122559
0.0232074
-0.254676
-0.560939
-0.855663
-1.10835
-1.41934
-1.52367
-0.808594
-0.775261
-0.71691
-0.646687
-0.570502
-0.489223
-0.402805
-0.31045
-0.210468
-0.102946
-0.0084804
0.0506949
0.0543795
-0.102307
-0.424666
-0.762066
-1.09342
-1.37017
-1.59784
-1.88704
-0.825445
-0.792578
-0.734411
-0.664436
-0.588807
-0.508603
-0.423887
-0.333986
-0.237011
-0.133859
-0.044031
0.00236566
-0.0236962
-0.253553
-0.586337
-0.929513
-1.24777
-1.43739
-1.4923
-1.52081
-0.842688
-0.810222
-0.752364
-0.682785
-0.607887
-0.529003
-0.446377
-0.35954
-0.265901
-0.167368
-0.0815234
-0.0510959
-0.12156
-0.404597
-0.739968
-1.05643
-1.32476
-1.43383
-1.44906
-1.44854
-0.860464
-0.828175
-0.770604
-0.701487
-0.627482
-0.550176
-0.470118
-0.386607
-0.297501
-0.202914
-0.123239
-0.108358
-0.22623
-0.552195
-0.88844
-1.16499
-1.37335
-1.4226
-1.42156
-1.41849
-0.878408
-0.846257
-0.788897
-0.72027
-0.647318
-0.57187
-0.494829
-0.415423
-0.332538
-0.241818
-0.167634
-0.170579
-0.348807
-0.702766
-1.03627
-1.25666
-1.3406
-1.39642
-1.41728
-1.42104
-0.896186
-0.864038
-0.806849
-0.73873
-0.66695
-0.593696
-0.520082
-0.446298
-0.370409
-0.283896
-0.209009
-0.232646
-0.47224
-0.872226
-1.20059
-1.37061
-1.38186
-1.43908
-1.47875
-1.48708
-0.912915
-0.880905
-0.823869
-0.756273
-0.685789
-0.615005
-0.545549
-0.478514
-0.410013
-0.328096
-0.251341
-0.287163
-0.603361
-1.08466
-1.44642
-1.64333
-1.58279
-1.60431
-1.63229
-1.64059
-0.92805
-0.896108
-0.83919
-0.772127
-0.703054
-0.634997
-0.570637
-0.511578
-0.452907
-0.375765
-0.292082
-0.332728
-0.732225
-1.31503
-1.74977
-1.95587
-1.87842
-1.84585
-1.85138
-1.85976
-0.940663
-0.908697
-0.851859
-0.785335
-0.717733
-0.652699
-0.59404
-0.544772
-0.50292
-0.434833
-0.346431
-0.405313
-0.862507
-1.49806
-2.0167
-2.2413
-2.24366
-2.17886
-2.15064
-2.15443
-0.949524
-0.917482
-0.860792
-0.794773
-0.728643
-0.666753
-0.614479
-0.578068
-0.562551
-0.523278
-0.456135
-0.553016
-0.979013
-1.66146
-2.29995
-2.66924
-2.7748
-2.68863
-2.55619
-2.5125
-0.953231
-0.921214
-0.864662
-0.799187
-0.734424
-0.675644
-0.630408
-0.610926
-0.634119
-0.672332
-0.691149
-0.813685
-1.1083
-1.70792
-2.42902
-2.91555
-3.08863
-3.00202
-2.81444
-2.7058
-0.95064
-0.918567
-0.862224
-0.797297
-0.73363
-0.677574
-0.639431
-0.63948
-0.719954
-0.913827
-1.14517
-1.1782
-1.16655
-1.47854
-1.95315
-2.52002
-2.66017
-2.50192
-2.24378
-2.11259
-0.94076
-0.90847
-0.852365
-0.787885
-0.72488
-0.67057
-0.63824
-0.657872
-0.812245
-1.25588
-1.75838
-1.56672
-1.07636
-0.986632
-0.877687
-0.919562
-0.864828
-0.655235
-0.415994
-0.309756
-0.922446
-0.889979
-0.834134
-0.769973
-0.706994
-0.652803
-0.622675
-0.654498
-0.869523
-1.58148
-2.40324
-1.7407
-0.835475
-0.0633404
0.568832
0.988249
1.25588
1.45633
1.57074
1.60997
-0.894872
-0.862509
-0.806996
-0.743036
-0.679301
-0.623115
-0.589363
-0.616229
-0.831223
-1.62923
-2.43246
-1.47321
-0.418365
0.596102
1.32467
1.82178
2.11337
2.23118
2.27739
2.28597
-0.857845
-0.825846
-0.770872
-0.707078
-0.642124
-0.58202
-0.538515
-0.540295
-0.673863
-1.18235
-1.54748
-0.752544
0.135018
0.90314
1.41604
1.73497
1.92397
2.02318
2.07039
2.08165
-0.810904
-0.779672
-0.726042
-0.662818
-0.596777
-0.532109
-0.476115
-0.44349
-0.46808
-0.600616
-0.561862
-0.02865
0.546625
0.98958
1.28797
1.48151
1.60487
1.68217
1.72266
1.72786
-0.752257
-0.723318
-0.672778
-0.611087
-0.544913
-0.477007
-0.41028
-0.348865
-0.295587
-0.228416
-0.0388606
0.298468
0.652586
0.914219
1.09837
1.22718
1.31783
1.37998
1.41229
1.4205
-0.682596
-0.656778
-0.610751
-0.552122
-0.487842
-0.419348
-0.346796
-0.268969
-0.179068
-0.0509574
0.146422
0.383179
0.604132
0.774805
0.901375
0.994822
1.06374
1.11211
1.1395
1.14819
-0.598729
-0.58112
-0.539486
-0.485285
-0.425479
-0.360022
-0.28746
-0.205069
-0.105582
0.0285946
0.198048
0.368055
0.513348
0.626677
0.712371
0.777115
0.826529
0.862536
0.883306
0.889356
-0.488606
-0.479812
-0.449747
-0.406132
-0.355821
-0.298666
-0.233214
-0.156795
-0.0637681
0.0567756
0.197597
0.32902
0.43702
0.520339
0.582451
0.627757
0.660403
0.684179
0.698983
0.702943
-0.374988
-0.370877
-0.350768
-0.319171
-0.281106
-0.235657
-0.181344
-0.115752
-0.0346153
0.0685891
0.183979
0.287098
0.369512
0.431708
0.476845
0.508631
0.52998
0.543698
0.550916
0.552395
-0.264816
-0.263057
-0.251344
-0.231421
-0.205482
-0.172442
-0.130803
-0.077728
-0.0106071
0.0749171
0.168021
0.248785
0.311597
0.358007
0.39059
0.41259
0.426811
0.43525
0.43928
0.43984
-0.166226
-0.166095
-0.160799
-0.150322
-0.134836
-0.113163
-0.08317
-0.0429434
0.0102817
0.0789844
0.153292
0.216598
0.264674
0.299169
0.322907
0.338351
0.347628
0.352549
0.354572
0.354645
-0.0876621
-0.08844
-0.0879283
-0.084606
-0.0769281
-0.0634274
-0.0426889
-0.0130422
0.0280224
0.0819914
0.140335
0.189332
0.225987
0.251893
0.26907
0.279656
0.28575
0.288752
0.289795
0.289715
-0.0323809
-0.0334016
-0.0351371
-0.0357123
-0.0330201
-0.0255843
-0.0116927
0.00998864
0.041062
0.0828798
0.12822
0.166017
0.193786
0.212896
0.225366
0.232998
0.237116
0.238929
0.239478
0.239358
0.002704
0.00183192
-0.000175058
-0.00168891
-0.00112783
0.00288146
0.0117793
0.0271952
0.0504929
0.0825196
0.117381
0.146215
0.167245
0.181655
0.190818
0.196121
0.198826
0.199889
0.200132
0.200006
0.0237636
0.0231817
0.0216402
0.0202771
0.0203774
0.0229302
0.0290084
0.0399393
0.0571303
0.0814115
0.10812
0.130154
0.145991
0.156533
0.163092
0.16684
0.168628
0.169189
0.169248
0.169139
0.0362993
0.0359376
0.0349697
0.0340496
0.0340554
0.0357776
0.0401802
0.0482929
0.0611495
0.0794488
0.0996308
0.116193
0.128013
0.135911
0.14078
0.143446
0.144631
0.14493
0.144919
0.144832
0.0440258
0.0438006
0.0432056
0.0426529
0.0427407
0.0440063
0.0471531
0.0530702
0.0626593
0.0764816
0.0917976
0.10435
0.113278
0.119127
0.122649
0.124544
0.125352
0.125516
0.125484
0.125413
0.0485905
0.0484447
0.0480512
0.0476961
0.0478155
0.0488153
0.0512118
0.0556437
0.0628052
0.0731899
0.0847249
0.0941416
0.100775
0.105107
0.107696
0.10906
0.109611
0.109694
0.109652
0.109594
0.0507578
0.0506597
0.0503845
0.0501383
0.0502447
0.0509982
0.052787
0.0561081
0.0614892
0.0693006
0.077981
0.0850566
0.0900332
0.0932525
0.0951509
0.0961305
0.0965061
0.0965408
0.0964976
0.0964506
0.051085
0.0510175
0.0508305
0.0506703
0.0507766
0.0513671
0.0527267
0.0552225
0.0592599
0.0651332
0.0716617
0.0769629
0.08067
0.0830493
0.0844388
0.0851411
0.0853944
0.0853992
0.0853575
0.0853194
0.0500544
0.0500055
0.0498774
0.0497748
0.0498726
0.0503317
0.0513656
0.0532499
0.0562869
0.0606976
0.0655961
0.0695643
0.0723273
0.0740894
0.0751079
0.0756124
0.075783
0.0757725
0.0757343
0.0757032
0.0480262
0.0479895
0.0478999
0.0478347
0.047921
0.048278
0.0490643
0.0504854
0.0527686
0.0560807
0.0597546
0.0627221
0.0647765
0.0660786
0.0668237
0.0671851
0.0672989
0.0672804
0.0672461
0.0672208
0.0452564
0.0452282
0.0451629
0.0451189
0.04519
0.0454646
0.0460611
0.0471324
0.0488478
0.0513322
0.0540823
0.0562948
0.0578208
0.0587823
0.0593264
0.0595844
0.0596587
0.0596364
0.0596063
0.059586
0.0419256
0.0419035
0.041854
0.0418219
0.0418768
0.042085
0.0425344
0.0433392
0.0446256
0.0464858
0.0485403
0.0501857
0.0513174
0.0520257
0.0524218
0.0526046
0.0526512
0.0526276
0.0526015
0.0525852
0.0381689
0.0381514
0.0381127
0.0380872
0.0381273
0.0382825
0.0386185
0.0392204
0.0401815
0.0415701
0.0430999
0.044321
0.0451577
0.0456772
0.0459639
0.0460922
0.0461197
0.0460964
0.0460741
0.0460611
0.0340888
0.0340748
0.0340439
0.0340223
0.0340497
0.0341633
0.0344119
0.0348588
0.0355732
0.036605
0.0377397
0.0386424
0.0392578
0.0396363
0.039842
0.0399304
0.0399449
0.0399229
0.039904
0.0398935
0.0297633
0.029752
0.0297269
0.029708
0.0297253
0.0298066
0.0299881
0.0303166
0.0308433
0.0316044
0.03244
0.0331034
0.0335523
0.0338255
0.033971
0.0340305
0.0340359
0.0340155
0.0339995
0.0339913
0.0252535
0.0252444
0.0252236
0.0252066
0.0252159
0.0252721
0.0254019
0.0256398
0.0260232
0.0265779
0.0271866
0.0276682
0.0279914
0.0281861
0.0282874
0.0283259
0.0283253
0.0283067
0.0282932
0.0282867
0.0206069
0.0205995
0.0205822
0.0205665
0.0205694
0.0206061
0.0206961
0.0208643
0.0211377
0.0215346
0.0219693
0.0223119
0.0225401
0.0226754
0.0227436
0.0227667
0.0227621
0.0227454
0.0227339
0.0227288
0.0158577
0.0158517
0.0158373
0.015823
0.0158214
0.0158434
0.0159028
0.0160169
0.0162045
0.0164784
0.0167773
0.0170124
0.0171678
0.0172581
0.0173013
0.0173131
0.0173059
0.017291
0.0172814
0.0172775
0.011034
0.0110294
0.0110177
0.0110048
0.0110003
0.0110114
0.0110472
0.0111188
0.011238
0.0114132
0.0116044
0.0117538
0.0118514
0.0119068
0.0119315
0.0119356
0.0119272
0.0119143
0.0119066
0.0119037
0.006157
0.00615397
0.00614478
0.00613428
0.00612913
0.00613269
0.00615004
0.0061869
0.00624941
0.00634221
0.00644341
0.0065221
0.00657285
0.00660094
0.00661215
0.00661181
0.0066041
0.00659374
0.00658798
0.00658627
0.00123763
0.00123698
0.00123471
0.00123054
0.00122793
0.00122767
0.00122967
0.00123472
0.00124408
0.00125882
0.00127833
0.00129653
0.00130892
0.00131634
0.00131997
0.00132102
0.00131961
0.00131615
0.00131242
0.00131109
-0.69277
-0.420984
-0.172282
0.0321047
0.198951
0.336238
0.455625
0.55482
0.589962
0.584832
-0.270268
-0.0974397
0.0606857
0.19896
0.317563
0.417838
0.499002
0.556003
0.586973
0.602396
0.0116347
0.121686
0.230855
0.327791
0.411522
0.481781
0.53751
0.579287
0.60846
0.627546
0.205811
0.28271
0.360272
0.429784
0.490293
0.541584
0.58388
0.617832
0.642784
0.661884
0.353892
0.409207
0.46591
0.518082
0.563999
0.603929
0.638023
0.666333
0.687182
0.705537
0.473245
0.516019
0.559399
0.600672
0.637935
0.671269
0.700322
0.724185
0.741883
0.759607
0.574255
0.611322
0.648246
0.68387
0.716971
0.746537
0.772194
0.79313
0.808426
0.825696
0.668891
0.70444
0.740112
0.77406
0.805198
0.833152
0.857024
0.875829
0.889151
0.905928
0.768266
0.806334
0.843034
0.877298
0.908034
0.934688
0.956903
0.974095
0.986339
1.00268
0.884248
0.925744
0.963982
0.998014
1.02756
1.0525
1.07288
1.0887
1.10096
1.11718
1.02726
1.06904
1.10508
1.13546
1.16119
1.18334
1.20232
1.21817
1.23157
1.24762
1.20015
1.23311
1.26026
1.28298
1.30348
1.32244
1.34041
1.35745
1.37257
1.38831
1.38749
1.40493
1.42214
1.43897
1.45529
1.47025
1.48429
1.49883
1.51412
1.53151
1.57068
1.58113
1.59437
1.60535
1.61482
1.62463
1.63547
1.64579
1.65512
1.68079
1.7882
1.78304
1.7705
1.75633
1.75012
1.7559
1.77405
1.80263
1.83649
1.87284
2.09237
1.95562
1.87625
1.834
1.81677
1.82083
1.84834
1.90622
2.01391
2.19235
0.367986
0.361718
0.354089
0.343137
0.329738
0.317244
0.307019
0.299203
0.293653
0.290413
0.289899
0.292271
0.297014
0.303919
0.313082
0.324626
0.337926
0.350624
0.359429
0.366891
0.276873
0.282841
0.291018
0.297349
0.300704
0.300551
0.297847
0.294157
0.290695
0.288297
0.287927
0.289899
0.293254
0.29718
0.300732
0.302433
0.300942
0.295975
0.288724
0.28078
0.269531
0.271917
0.275576
0.27888
0.281807
0.284496
0.286069
0.286082
0.285113
0.284116
0.284038
0.285211
0.286669
0.287536
0.286931
0.284825
0.28205
0.279099
0.275513
0.272288
0.264635
0.265703
0.267864
0.270576
0.272796
0.274351
0.275603
0.276798
0.277735
0.278356
0.278727
0.27876
0.27846
0.27769
0.276703
0.275515
0.273748
0.271268
0.268746
0.26713
0.259684
0.260148
0.261887
0.264776
0.267568
0.269917
0.271711
0.272921
0.273748
0.274339
0.274765
0.274954
0.274764
0.274143
0.272918
0.271004
0.268553
0.265719
0.263304
0.262343
0.257885
0.258047
0.258991
0.260722
0.262599
0.26446
0.266332
0.268009
0.269345
0.270291
0.270853
0.270916
0.270419
0.269374
0.267914
0.266302
0.264548
0.262814
0.261426
0.260989
0.256933
0.25703
0.257511
0.258418
0.259443
0.260652
0.261793
0.262983
0.264142
0.265163
0.265839
0.266001
0.2657
0.265087
0.264342
0.263359
0.262501
0.261637
0.260967
0.260738
0.255005
0.255054
0.255325
0.25589
0.256623
0.257519
0.258635
0.25988
0.261085
0.262178
0.262992
0.263294
0.26312
0.262611
0.261925
0.261303
0.260721
0.260204
0.259851
0.259736
0.25223
0.25225
0.252414
0.252819
0.253377
0.253952
0.2547
0.255652
0.256723
0.25783
0.258788
0.25935
0.259501
0.259388
0.259182
0.259038
0.25872
0.258399
0.258201
0.25815
0.249095
0.2491
0.249216
0.24954
0.250024
0.25065
0.251396
0.252293
0.253358
0.254558
0.255725
0.256555
0.256993
0.257169
0.257156
0.25697
0.256824
0.256633
0.256528
0.256507
0.245687
0.245691
0.245776
0.246015
0.246401
0.246923
0.247614
0.248515
0.249653
0.251015
0.252452
0.253605
0.254342
0.25477
0.254994
0.255072
0.255068
0.255023
0.255
0.254996
0.241897
0.241899
0.241978
0.242182
0.242527
0.243033
0.243746
0.244719
0.246
0.247608
0.249398
0.250928
0.252002
0.252694
0.253126
0.253375
0.253506
0.253567
0.253601
0.253607
0.23766
0.237658
0.23774
0.237946
0.238296
0.238833
0.239621
0.240734
0.242245
0.244196
0.246439
0.248441
0.249853
0.250857
0.251509
0.251924
0.252177
0.252324
0.2524
0.252415
0.23292
0.232918
0.233008
0.233239
0.233638
0.234257
0.235182
0.23651
0.238345
0.240755
0.243577
0.246127
0.248018
0.249328
0.250219
0.250801
0.251169
0.251391
0.251504
0.251527
0.227593
0.227589
0.227699
0.227977
0.228456
0.229206
0.230334
0.231967
0.234241
0.237253
0.240811
0.244059
0.246469
0.248169
0.249329
0.250096
0.250587
0.250885
0.251036
0.251068
0.221542
0.221536
0.221675
0.222022
0.222619
0.223556
0.224964
0.22701
0.229864
0.233654
0.23814
0.242246
0.2453
0.247463
0.248943
0.249925
0.250556
0.25094
0.251134
0.251174
0.21458
0.214572
0.214751
0.215195
0.215955
0.217143
0.218929
0.221521
0.225133
0.229922
0.235582
0.240755
0.244597
0.247321
0.249186
0.250425
0.251223
0.25171
0.251954
0.252005
0.206455
0.206445
0.206679
0.207254
0.208234
0.209757
0.212043
0.215356
0.219955
0.226023
0.233161
0.239658
0.244471
0.247879
0.250212
0.251763
0.252765
0.253377
0.253684
0.253746
0.196823
0.196812
0.197122
0.197878
0.199151
0.201116
0.204075
0.208343
0.214225
0.221928
0.23092
0.239054
0.245056
0.249299
0.252203
0.254137
0.255389
0.256158
0.256543
0.256618
0.185209
0.185199
0.185621
0.186625
0.1883
0.190891
0.194774
0.200299
0.207836
0.21762
0.228925
0.239066
0.246516
0.251776
0.255377
0.257778
0.259339
0.260306
0.26079
0.260882
0.170933
0.170927
0.171518
0.172883
0.175127
0.178587
0.183702
0.190935
0.200679
0.213114
0.227273
0.239847
0.249043
0.255535
0.259986
0.262959
0.2649
0.266111
0.266723
0.26684
0.152987
0.152993
0.153858
0.155772
0.158867
0.163599
0.170506
0.180071
0.192684
0.208461
0.226095
0.241568
0.252842
0.260816
0.266309
0.269992
0.272402
0.273912
0.274678
0.274829
0.129858
0.12991
0.131236
0.134013
0.138446
0.145125
0.154619
0.167407
0.183806
0.203753
0.225535
0.244393
0.258099
0.267845
0.274622
0.279216
0.282247
0.284158
0.285144
0.28534
0.0991003
0.0992872
0.101435
0.105721
0.112434
0.122219
0.135578
0.152864
0.174163
0.199175
0.225771
0.24847
0.264951
0.27678
0.285142
0.29093
0.294828
0.297327
0.298613
0.298864
0.0562085
0.0567521
0.0607676
0.0682638
0.0792632
0.0942445
0.113395
0.136756
0.164145
0.19507
0.227033
0.253927
0.273464
0.287663
0.297936
0.305284
0.310421
0.313871
0.315669
0.315996
-0.00709598
-0.00487619
0.00455188
0.0191189
0.0381851
0.0614632
0.0887
0.119749
0.154314
0.191822
0.229508
0.260782
0.283527
0.300293
0.312752
0.322039
0.328894
0.333758
0.336504
0.336898
-0.0836484
-0.0791738
-0.061178
-0.0353763
-0.00578143
0.0269807
0.0629866
0.10225
0.14452
0.189325
0.233726
0.270553
0.297701
0.318223
0.334057
0.34644
0.356336
0.363737
0.367345
0.368844
-0.160824
-0.150203
-0.123364
-0.0875732
-0.0483754
-0.00646314
0.0381853
0.0855187
0.135428
0.187522
0.238667
0.281027
0.312438
0.336488
0.355388
0.370564
0.38286
0.392502
0.398584
0.401001
-0.219078
-0.207383
-0.175605
-0.133205
-0.0867361
-0.0372406
0.0149443
0.0696843
0.126709
0.185595
0.242919
0.290068
0.324815
0.351262
0.371887
0.388226
0.401287
0.411424
0.417861
0.420386
-0.26581
-0.253571
-0.218493
-0.171543
-0.119753
-0.0644869
-0.00620984
0.0548243
0.118138
0.183145
0.245912
0.297038
0.33431
0.362295
0.383792
0.400587
0.413839
0.424096
0.430604
0.433097
-0.304133
-0.291939
-0.254887
-0.204464
-0.148499
-0.0886528
-0.0253138
0.0410416
0.109855
0.180334
0.248083
0.302816
0.342238
0.371443
0.393569
0.410617
0.423878
0.434033
0.440466
0.442859
-0.337262
-0.325182
-0.28672
-0.233548
-0.174199
-0.110486
-0.0428505
0.0281736
0.101936
0.17747
0.24983
0.30785
0.349215
0.379485
0.402117
0.419337
0.432596
0.442685
0.449094
0.451426
-0.36678
-0.35484
-0.315342
-0.259998
-0.197863
-0.130863
-0.0594683
0.0157451
0.0939897
0.174173
0.250924
0.312207
0.355538
0.38691
0.410097
0.427549
0.440859
0.450909
0.457305
0.459554
-0.393864
-0.382014
-0.34168
-0.28449
-0.220013
-0.150213
-0.0755731
0.00331317
0.0856801
0.170347
0.251483
0.316131
0.361556
0.394145
0.417984
0.435732
0.449139
0.459178
0.465577
0.467746
-0.419296
-0.407485
-0.366403
-0.307641
-0.241171
-0.168965
-0.0914592
-0.00921299
0.0769908
0.165958
0.251484
0.319661
0.3674
0.401402
0.426034
0.444182
0.457751
0.467809
0.474181
0.476255
-0.443498
-0.431701
-0.389946
-0.329833
-0.261624
-0.187292
-0.10725
-0.0219938
0.0677455
0.160832
0.250817
0.322775
0.373121
0.408798
0.434419
0.453097
0.466904
0.477032
0.483377
0.485384
-0.466806
-0.454947
-0.412579
-0.351302
-0.281606
-0.205434
-0.123149
-0.0351908
0.0578386
0.154886
0.249368
0.325387
0.378689
0.416365
0.443227
0.462608
0.476763
0.487007
0.493335
0.495286
-0.489439
-0.477426
-0.434503
-0.372201
-0.30122
-0.223461
-0.139204
-0.0488133
0.047216
0.14804
0.247006
0.327347
0.383996
0.424053
0.452474
0.472779
0.487421
0.49787
0.504179
0.506089
-0.511431
-0.499247
-0.455787
-0.392597
-0.3205
-0.241366
-0.155406
-0.0628762
0.0358704
0.140231
0.24362
0.328485
0.388862
0.431726
0.46208
0.483595
0.498929
0.509686
0.51601
0.517859
-0.532866
-0.520467
-0.476518
-0.412514
-0.339468
-0.259164
-0.171737
-0.0773533
0.0238221
0.131442
0.239116
0.328603
0.393039
0.439167
0.471911
0.494994
0.511263
0.522482
0.528871
0.530588
-0.553665
-0.541086
-0.496653
-0.431937
-0.35809
-0.276795
-0.188139
-0.0921704
0.0111145
0.121683
0.233394
0.327482
0.396235
0.44612
0.481795
0.506881
0.524315
0.536097
0.542583
0.544147
-0.573872
-0.561052
-0.516153
-0.45082
-0.376301
-0.294197
-0.204532
-0.107248
-0.00216936
0.110982
0.22642
0.324949
0.398162
0.452254
0.491464
0.519118
0.538096
0.55057
0.557107
0.558429
-0.593281
-0.580335
-0.534987
-0.469112
-0.394045
-0.311281
-0.220831
-0.12249
-0.015927
0.0994302
0.218203
0.320919
0.398518
0.457031
0.500384
0.531422
0.552501
0.565693
0.572046
0.573023
-0.612021
-0.59891
-0.553091
-0.486772
-0.411269
-0.327997
-0.236935
-0.137798
-0.0300404
0.0871463
0.208769
0.315283
0.396985
0.459838
0.507833
0.543363
0.567737
0.58186
0.587285
0.587492
-0.629931
-0.616667
-0.570454
-0.503762
-0.42789
-0.344251
-0.252756
-0.153039
-0.0443949
0.0742269
0.198202
0.307978
0.393449
0.460324
0.513057
0.554097
0.583754
0.600316
0.603529
0.601113
-0.647084
-0.633664
-0.587033
-0.520021
-0.443869
-0.35998
-0.268205
-0.168131
-0.0588693
0.0608426
0.18663
0.299075
0.38779
0.458133
0.515058
0.561999
0.599176
0.622492
0.626302
0.613937
-0.663377
-0.64988
-0.602929
-0.535688
-0.459403
-0.375458
-0.283621
-0.183491
-0.0739496
0.0464366
0.173444
0.287913
0.37942
0.452503
0.512188
0.564284
0.609916
0.643247
0.651794
0.648842
-0.678823
-0.665395
-0.618107
-0.550691
-0.474471
-0.390663
-0.298959
-0.199107
-0.0896324
0.0309408
0.158522
0.274242
0.367776
0.443067
0.502281
0.555211