/*--------------------------------*- C++ -*----------------------------------*\
  =========                 |
  \\      /  F ield         | OpenFOAM: The Open Source CFD Toolbox
   \\    /   O peration     | Website:  https://openfoam.org
    \\  /    A nd           | Version:  6
     \\/     M anipulation  |
\*---------------------------------------------------------------------------*/
FoamFile
{
    version     2.0;
    format      ascii;
    class       volScalarField;
    location    "27";
    object      p;
}
// * * * * * * * * * * * * * * * * * * * * * * * * * * * * * * * * * * * * * //

dimensions      [0 2 -2 0 0 0 0];

internalField   nonuniform List<scalar> 
8800
(
0.658859
0.60954
0.571567
0.543484
0.5233
0.508675
0.498021
0.490409
0.485427
0.483214
0.484391
0.488556
0.49521
0.504529
0.517193
0.534463
0.558305
0.591379
0.634301
0.686809
0.493369
0.499711
0.508853
0.512391
0.509766
0.503653
0.496674
0.490371
0.485477
0.482484
0.482075
0.484499
0.488974
0.49498
0.501987
0.508954
0.513783
0.513624
0.506927
0.498014
0.466922
0.473156
0.47765
0.48151
0.484442
0.485365
0.484232
0.482037
0.479934
0.478914
0.479741
0.482011
0.484738
0.486879
0.4873
0.485435
0.482014
0.477958
0.47315
0.469429
0.462685
0.465449
0.468048
0.470194
0.471912
0.47345
0.474508
0.474772
0.474502
0.474396
0.474972
0.475923
0.476502
0.476198
0.475101
0.473656
0.471917
0.469564
0.467122
0.465554
0.457714
0.459139
0.460978
0.463054
0.46475
0.466007
0.467042
0.467926
0.468581
0.469087
0.469539
0.469756
0.469568
0.469033
0.468228
0.466999
0.465248
0.463279
0.461888
0.461086
0.452838
0.453741
0.454992
0.456618
0.4583
0.459796
0.461005
0.462011
0.462898
0.463648
0.464127
0.464228
0.463989
0.463421
0.462448
0.46111
0.459624
0.458263
0.457398
0.456878
0.448094
0.448747
0.44972
0.451052
0.452499
0.453992
0.455415
0.456667
0.45777
0.458706
0.459268
0.459368
0.459052
0.458347
0.457333
0.456192
0.455031
0.454002
0.453373
0.452997
0.44349
0.443991
0.444804
0.445984
0.447318
0.44875
0.450248
0.451712
0.453015
0.454125
0.454837
0.455003
0.454657
0.453936
0.453037
0.452063
0.451091
0.450259
0.449772
0.449485
0.438994
0.439385
0.44008
0.441162
0.442439
0.443823
0.445306
0.446849
0.448361
0.449712
0.450595
0.450839
0.450591
0.450033
0.449303
0.44848
0.447646
0.446966
0.446586
0.446365
0.434566
0.434873
0.435487
0.436514
0.437761
0.439108
0.440562
0.442135
0.443794
0.44537
0.446491
0.446948
0.446921
0.446599
0.446074
0.445406
0.444689
0.444126
0.443829
0.443656
0.43018
0.43042
0.430969
0.431948
0.433179
0.434568
0.43611
0.437771
0.439534
0.441358
0.442789
0.443592
0.443863
0.443729
0.443337
0.442811
0.442229
0.441777
0.441551
0.441417
0.425801
0.425986
0.426502
0.427501
0.42879
0.430267
0.431952
0.433859
0.435935
0.43808
0.439916
0.441031
0.441498
0.441521
0.441282
0.44086
0.440357
0.439976
0.439806
0.439705
0.421394
0.42152
0.421992
0.422972
0.424267
0.425759
0.427463
0.429454
0.431803
0.434411
0.436701
0.438229
0.439134
0.439575
0.43963
0.439434
0.439083
0.438809
0.438705
0.438635
0.417017
0.417093
0.417524
0.418483
0.419809
0.4214
0.423302
0.425567
0.428219
0.431286
0.434204
0.436362
0.437709
0.438456
0.438802
0.438814
0.438649
0.438506
0.438465
0.438421
0.412552
0.412609
0.412985
0.413878
0.415187
0.41684
0.418893
0.421485
0.424692
0.428476
0.432107
0.434834
0.436692
0.437889
0.438589
0.438971
0.439113
0.439159
0.439175
0.439138
0.407533
0.407581
0.407935
0.408775
0.410087
0.411837
0.414121
0.417063
0.420788
0.42535
0.429939
0.433551
0.436134
0.437919
0.439144
0.439911
0.440352
0.440581
0.440645
0.440604
0.401635
0.401682
0.402043
0.402935
0.404387
0.406385
0.409061
0.412604
0.41718
0.42282
0.42851
0.433047
0.436356
0.438724
0.440403
0.441546
0.442286
0.442671
0.442772
0.442724
0.394552
0.3946
0.395033
0.396026
0.397696
0.40004
0.403224
0.407482
0.413045
0.419995
0.427097
0.432831
0.437078
0.440153
0.442375
0.443934
0.444963
0.44549
0.445619
0.445563
0.385953
0.386008
0.386532
0.387752
0.389774
0.392645
0.396571
0.401867
0.408771
0.417389
0.426197
0.433317
0.438581
0.442438
0.445243
0.44724
0.44855
0.449188
0.449347
0.449282
0.375459
0.375523
0.376191
0.377725
0.380258
0.383849
0.388779
0.395407
0.404039
0.414753
0.425644
0.434391
0.440908
0.445677
0.449138
0.451632
0.453237
0.454001
0.454195
0.454121
0.36257
0.36264
0.363482
0.365464
0.368726
0.373332
0.379632
0.388043
0.398886
0.412202
0.425601
0.436324
0.444261
0.450036
0.454356
0.457372
0.459293
0.460197
0.460434
0.460348
0.346618
0.346689
0.347768
0.350376
0.354679
0.3607
0.368866
0.379627
0.393279
0.40979
0.426185
0.439197
0.448811
0.455865
0.461046
0.46468
0.466962
0.468057
0.468345
0.468243
0.326678
0.326777
0.328222
0.331685
0.337422
0.345435
0.356139
0.370007
0.387233
0.407626
0.42753
0.443191
0.454755
0.463252
0.469458
0.473813
0.476534
0.47785
0.478185
0.478058
0.301002
0.301159
0.303222
0.308087
0.315979
0.326878
0.341164
0.35916
0.380875
0.405897
0.429829
0.448467
0.46221
0.472334
0.479733
0.484932
0.488198
0.489762
0.490135
0.489975
0.266604
0.266937
0.270286
0.277719
0.289209
0.304498
0.323826
0.347236
0.374458
0.404861
0.433289
0.455182
0.471298
0.483207
0.491962
0.498168
0.502077
0.503906
0.5043
0.504095
0.217712
0.219011
0.225766
0.238523
0.256256
0.278243
0.304479
0.334697
0.368409
0.404832
0.438099
0.463423
0.482026
0.495831
0.506085
0.51347
0.518134
0.520247
0.52064
0.520376
0.145631
0.153541
0.168994
0.191426
0.218567
0.249487
0.284127
0.32216
0.363096
0.406149
0.444758
0.473931
0.495395
0.511482
0.523663
0.532624
0.538387
0.541078
0.541645
0.541459
0.0690902
0.0858754
0.110941
0.143683
0.180578
0.220603
0.263752
0.30985
0.358484
0.409005
0.454086
0.488235
0.513568
0.532764
0.547608
0.558828
0.566163
0.56961
0.570538
0.570529
0.00424698
0.0247166
0.0575793
0.0989393
0.144508
0.193069
0.244449
0.29842
0.354548
0.412192
0.463307
0.501952
0.530692
0.552617
0.56957
0.58244
0.591126
0.595295
0.596109
0.596183
-0.0482901
-0.0256158
0.012362
0.0598458
0.11215
0.167824
0.226441
0.287558
0.350634
0.414931
0.471534
0.514129
0.545673
0.56966
0.588182
0.60226
0.61199
0.616593
0.617592
0.617772
-0.0917663
-0.0678655
-0.0262368
0.0259934
0.0836778
0.145167
0.209902
0.277293
0.346609
0.416936
0.478476
0.524462
0.558304
0.583875
0.603568
0.618474
0.628833
0.633899
0.635213
0.635428
-0.128999
-0.104358
-0.0600447
-0.00394479
0.0582395
0.124681
0.194675
0.267564
0.342465
0.418222
0.484188
0.533133
0.568867
0.595666
0.616144
0.631609
0.642191
0.647641
0.649192
0.649414
-0.161955
-0.1368
-0.0903835
-0.0310947
0.0349324
0.105666
0.180322
0.258148
0.338115
0.418862
0.488892
0.540511
0.57787
0.605614
0.6266
0.642328
0.653041
0.658651
0.660294
0.660458
-0.192042
-0.166455
-0.118284
-0.0562507
0.0130842
0.0875809
0.166415
0.248738
0.333404
0.418863
0.492772
0.546915
0.58577
0.614312
0.635659
0.651507
0.66226
0.667913
0.669645
0.669797
-0.220168
-0.194171
-0.144478
-0.0800469
-0.00780158
0.0700277
0.152624
0.239077
0.328152
0.418141
0.49586
0.552533
0.592858
0.622205
0.643933
0.659925
0.670677
0.676303
0.678095
0.678251
-0.24704
-0.220591
-0.169504
-0.102913
-0.0281002
0.0527139
0.138718
0.22897
0.322196
0.416578
0.498124
0.557405
0.599338
0.629612
0.651814
0.667991
0.678766
0.684298
0.686058
0.686233
-0.272931
-0.246033
-0.19367
-0.125149
-0.0480295
0.0354666
0.124553
0.218299
0.315434
0.414095
0.499552
0.561666
0.605429
0.636783
0.659581
0.67604
0.686887
0.69235
0.69399
0.694101
-0.298195
-0.270748
-0.217217
-0.146949
-0.0677559
0.0181531
0.110042
0.207003
0.30781
0.410655
0.500178
0.565366
0.611168
0.643806
0.667358
0.684203
0.695163
0.700549
0.70204
0.702065
-0.322896
-0.2949
-0.24027
-0.168407
-0.0873565
0.00072665
0.0951519
0.195061
0.299311
0.406238
0.499899
0.568398
0.616551
0.65071
0.675177
0.692496
0.703567
0.708842
0.710189
0.710113
-0.347103
-0.318546
-0.262871
-0.189554
-0.10684
-0.0168121
0.0798899
0.182477
0.289923
0.400748
0.498577
0.570685
0.621533
0.657495
0.683042
0.7009
0.712055
0.71715
0.718316
0.718152
-0.370863
-0.341718
-0.285014
-0.210394
-0.126206
-0.0344383
0.0642963
0.169285
0.279638
0.394136
0.49615
0.572108
0.626022
0.664134
0.690957
0.709393
0.72057
0.72538
0.726326
0.726089
-0.394188
-0.364384
-0.306706
-0.230903
-0.145394
-0.0520942
0.0484331
0.155539
0.268503
0.386409
0.49252
0.572486
0.629872
0.670588
0.69897
0.717982
0.729011
0.733402
0.734093
0.733791
-0.416904
-0.38649
-0.327891
-0.251032
-0.164347
-0.0697005
0.0323743
0.141336
0.256598
0.377595
0.487591
0.571659
0.632863
0.676757
0.707179
0.726813
0.737375
0.741069
0.741439
0.741089
-0.438966
-0.407976
-0.34852
-0.270712
-0.182996
-0.0871856
0.0162278
0.126769
0.244018
0.367719
0.481326
0.569459
0.634732
0.682414
0.715686
0.736291
0.745929
0.748322
0.748189
0.747833
-0.460417
-0.428799
-0.368556
-0.289897
-0.201267
-0.104454
9.29528e-05
0.11195
0.230861
0.356865
0.473697
0.565755
0.635175
0.687138
0.724378
0.74707
0.75572
0.755672
0.754258
0.753999
-0.481097
-0.448922
-0.387939
-0.308513
-0.219092
-0.121416
-0.0159298
0.0969961
0.217258
0.34516
0.464718
0.560434
0.633905
0.690306
0.732604
0.759457
0.76884
0.765929
0.760835
0.758328
-0.501088
-0.46835
-0.406671
-0.326587
-0.236504
-0.138119
-0.0318969
0.0818433
0.203134
0.332531
0.454246
0.553241
0.630611
0.69117
0.739034
0.772419
0.786335
0.784406
0.772346
0.768486
-0.520304
-0.487154
-0.424888
-0.344312
-0.253799
-0.154909
-0.0482339
0.065985
0.187908
0.318292
0.441553
0.543294
0.624589
0.688561
0.740885
0.781437
0.800887
0.796298
0.781543
0.772049
-0.538613
-0.505296
-0.442423
-0.361475
-0.270741
-0.171481
-0.0647182
0.0497604
0.17191
0.302747
0.426828
0.530214
0.615427
0.681574
0.733316
0.773735
0.796569
0.779743
0.718899
0.690333
-0.555911
-0.523503
-0.458857
-0.377558
-0.286688
-0.187358
-0.0810885
0.0334359
0.155421
0.28609
0.410204
0.513674
0.602468
0.67031
0.713157
0.743942
0.749855
0.706284
0.642365
0.60262
-0.599651
-0.540814
-0.47415
-0.393218
-0.302382
-0.203421
-0.0972213
0.0169015
0.13826
0.26803
0.391367
0.493453
0.582636
0.6558
0.676675
0.681373
0.652829
0.597013
0.528659
0.490851
-0.574137
-0.555957
-0.496953
-0.416659
-0.325996
-0.227424
-0.122076
-0.00894763
0.110944
0.238405
0.358909
0.457454
0.537748
0.611966
0.610212
0.515042
0.429776
0.371363
0.3084
0.3423
-0.605462
-0.573888
-0.514157
-0.434139
-0.343688
-0.24555
-0.140209
-0.0279353
0.0906223
0.215821
0.333059
0.427603
0.498717
0.538214
0.495976
0.364532
0.258632
0.187552
0.105064
0.158792
-0.629704
-0.595692
-0.534148
-0.453913
-0.363582
-0.265585
-0.160487
-0.0492007
0.0677194
0.190123
0.303144
0.392084
0.451511
0.456564
0.355579
0.199032
0.0693735
-0.0222302
-0.121001
-0.0809448
-0.653203
-0.618104
-0.555184
-0.474316
-0.383871
-0.286025
-0.181516
-0.0713608
0.0437196
0.162995
0.270977
0.353399
0.396568
0.367318
0.209843
0.0266351
-0.138887
-0.278566
-0.407888
-0.382102
-0.676321
-0.640844
-0.577055
-0.495623
-0.404991
-0.307356
-0.203558
-0.0946568
0.0183358
0.134151
0.236425
0.311298
0.334273
0.265205
0.0663014
-0.141994
-0.341398
-0.506641
-0.727903
-0.810807
-0.699721
-0.664346
-0.600061
-0.518203
-0.42737
-0.329898
-0.226738
-0.119105
-0.00829027
0.103878
0.200109
0.265828
0.268068
0.142728
-0.0650753
-0.289717
-0.49946
-0.675964
-0.813354
-0.958642
-0.724395
-0.689047
-0.624519
-0.542419
-0.451507
-0.354287
-0.251855
-0.145654
-0.0373436
0.0706903
0.16044
0.215459
0.189403
0.0224732
-0.188255
-0.410002
-0.601153
-0.710107
-0.739973
-0.755128
-0.750496
-0.715194
-0.650529
-0.56834
-0.477515
-0.380704
-0.279225
-0.174748
-0.0693906
0.0338499
0.116725
0.156822
0.105177
-0.0939898
-0.30172
-0.503651
-0.651887
-0.69583
-0.706862
-0.707286
-0.778289
-0.742889
-0.678097
-0.595914
-0.505305
-0.409111
-0.308822
-0.20638
-0.104448
-0.00666304
0.06871
0.0917312
0.0135951
-0.204039
-0.404141
-0.580562
-0.669177
-0.687443
-0.688003
-0.687738
-0.807714
-0.772135
-0.707201
-0.62509
-0.534835
-0.439437
-0.340594
-0.240489
-0.142432
-0.0507228
0.0159614
0.0231318
-0.0980239
-0.307128
-0.497535
-0.637812
-0.674387
-0.67629
-0.67831
-0.678131
-0.838499
-0.802726
-0.737684
-0.655732
-0.565953
-0.471545
-0.374438
-0.276963
-0.183167
-0.0981845
-0.0410482
-0.054511
-0.209062
-0.407273
-0.577476
-0.661159
-0.673668
-0.674367
-0.674729
-0.67459
-0.870029
-0.834271
-0.769242
-0.687554
-0.598402
-0.505168
-0.410096
-0.315589
-0.226224
-0.14886
-0.100729
-0.135655
-0.316842
-0.505121
-0.641915
-0.682597
-0.683382
-0.677218
-0.673754
-0.67284
-0.901831
-0.866199
-0.801373
-0.720086
-0.631758
-0.539866
-0.447104
-0.356026
-0.271014
-0.201927
-0.163487
-0.217308
-0.422978
-0.615734
-0.705984
-0.702676
-0.694837
-0.681022
-0.671458
-0.669214
-0.932779
-0.897642
-0.833321
-0.752646
-0.665394
-0.575067
-0.484716
-0.397675
-0.317023
-0.255397
-0.230131
-0.291221
-0.513089
-0.743388
-0.821827
-0.778283
-0.74802
-0.731032
-0.715523
-0.70724
-0.961862
-0.927482
-0.864098
-0.784335
-0.698435
-0.610007
-0.521967
-0.439365
-0.363955
-0.306973
-0.295797
-0.364188
-0.566378
-0.829723
-0.999481
-0.940903
-0.836673
-0.80267
-0.791117
-0.785617
-0.987438
-0.954355
-0.892432
-0.813988
-0.729736
-0.643621
-0.557924
-0.479184
-0.410959
-0.355651
-0.35537
-0.439381
-0.569366
-0.758618
-0.87251
-0.926141
-0.961602
-0.959682
-0.945063
-0.937636
-1.00755
-0.976448
-0.916786
-0.8402
-0.757954
-0.6744
-0.591692
-0.515111
-0.454903
-0.403975
-0.403381
-0.517846
-0.568016
-0.485656
-0.599897
-0.855626
-1.08991
-1.10108
-1.08193
-1.07668
-1.0206
-0.992103
-0.935428
-0.861441
-0.781624
-0.700592
-0.621616
-0.5465
-0.490328
-0.4543
-0.435678
-0.603366
-0.708154
-0.433397
-0.416906
-0.807508
-1.086
-1.09311
-1.10122
-1.10603
-1.02424
-0.999377
-0.946751
-0.87607
-0.799185
-0.720735
-0.644815
-0.573359
-0.515103
-0.492924
-0.475787
-0.718333
-1.13117
-1.38263
-1.60924
-1.81925
-1.6805
-1.3959
-1.26173
-1.2694
-1.01755
-0.99672
-0.949165
-0.882684
-0.809156
-0.733591
-0.659437
-0.591246
-0.533697
-0.503729
-0.530024
-0.843334
-1.57301
-2.44893
-2.81506
-2.91005
-2.72681
-2.36291
-2.03846
-1.93116
-0.998024
-0.981901
-0.941342
-0.880414
-0.810719
-0.737758
-0.665106
-0.596527
-0.538195
-0.506514
-0.530684
-0.822617
-1.45863
-2.31495
-2.72802
-2.74707
-2.60602
-2.41081
-2.20844
-2.06171
-0.968001
-0.956732
-0.923822
-0.869576
-0.803795
-0.733226
-0.660169
-0.59043
-0.523082
-0.48711
-0.459628
-0.581874
-0.857752
-1.15182
-1.38397
-1.38811
-1.23851
-1.03426
-0.879297
-0.781055
-0.931053
-0.924223
-0.89969
-0.852301
-0.790025
-0.720923
-0.64617
-0.570477
-0.495827
-0.410145
-0.365385
-0.248717
-0.140635
0.115605
0.432173
0.806294
1.14343
1.3402
1.44604
1.48917
-0.892476
-0.888733
-0.872652
-0.832235
-0.772973
-0.702877
-0.627055
-0.541034
-0.455088
-0.347739
-0.229734
-0.0891907
0.286542
0.849009
1.49956
2.0737
2.49187
2.74616
2.85508
2.88372
-0.857093
-0.855051
-0.845807
-0.813096
-0.756585
-0.685263
-0.603777
-0.516471
-0.41354
-0.304293
-0.170243
-0.0481493
0.223061
0.755736
1.31267
1.83019
2.21754
2.45032
2.55783
2.58712
-0.823205
-0.82217
-0.818869
-0.796089
-0.743085
-0.668763
-0.585586
-0.494391
-0.397325
-0.283972
-0.164794
-0.0468919
0.0854849
0.431806
0.898198
1.28725
1.57251
1.74916
1.83273
1.86119
-0.801403
-0.801373
-0.801065
-0.782057
-0.727481
-0.650492
-0.566643
-0.478851
-0.384972
-0.281767
-0.179295
-0.0767974
0.00645341
0.192162
0.510727
0.807979
1.02291
1.14854
1.20376
1.21863
-0.773772
-0.776946
-0.778797
-0.758687
-0.700132
-0.621777
-0.541219
-0.460438
-0.376308
-0.284576
-0.19854
-0.120904
-0.0506768
0.0617033
0.272194
0.46857
0.606927
0.68611
0.721485
0.730305
-0.697283
-0.701798
-0.703763
-0.685397
-0.635363
-0.570666
-0.50358
-0.435608
-0.365698
-0.289236
-0.219795
-0.165761
-0.116805
-0.0486796
0.0873898
0.21396
0.302184
0.354998
0.377617
0.380403
-0.569696
-0.57227
-0.573235
-0.563294
-0.535434
-0.497574
-0.453526
-0.405324
-0.350232
-0.291836
-0.240238
-0.208343
-0.184204
-0.145276
-0.0482161
0.037369
0.09546
0.128308
0.140247
0.141189
-0.447018
-0.447585
-0.448345
-0.447015
-0.44005
-0.425987
-0.403692
-0.373699
-0.334459
-0.290231
-0.25611
-0.242368
-0.23321
-0.21196
-0.142685
-0.0820306
-0.0417127
-0.0197011
-0.0116566
-0.0119884
-0.368614
-0.36872
-0.370016
-0.372993
-0.375364
-0.373272
-0.363879
-0.346219
-0.319364
-0.286332
-0.264469
-0.26154
-0.261667
-0.242051
-0.186983
-0.145748
-0.121082
-0.108399
-0.104326
-0.104651
-0.330603
-0.330847
-0.332311
-0.335747
-0.339478
-0.340778
-0.337166
-0.326184
-0.306156
-0.278028
-0.261021
-0.254206
-0.24691
-0.232805
-0.189802
-0.165507
-0.149826
-0.142033
-0.139435
-0.140407
-0.316338
-0.316573
-0.317656
-0.320299
-0.323169
-0.324367
-0.321966
-0.313146
-0.296059
-0.269954
-0.248017
-0.235637
-0.216637
-0.199205
-0.1759
-0.164776
-0.156268
-0.151181
-0.148524
-0.149127
-0.316158
-0.316096
-0.31642
-0.317813
-0.319335
-0.319378
-0.316234
-0.3073
-0.289151
-0.261455
-0.235532
-0.217118
-0.191356
-0.170486
-0.158551
-0.15056
-0.142276
-0.13705
-0.134899
-0.136203
-0.328313
-0.327905
-0.327492
-0.327621
-0.327545
-0.32581
-0.320772
-0.30968
-0.288314
-0.257944
-0.228796
-0.207792
-0.185936
-0.165568
-0.154066
-0.143615
-0.133722
-0.122121
-0.11693
-0.119066
-0.353456
-0.352677
-0.351737
-0.350822
-0.349151
-0.345316
-0.337655
-0.323279
-0.295756
-0.257489
-0.228716
-0.206194
-0.184273
-0.171921
-0.163803
-0.148701
-0.134303
-0.128082
-0.126134
-0.1272
-0.392126
-0.391241
-0.389844
-0.388117
-0.385253
-0.379938
-0.370479
-0.353428
-0.319908
-0.271651
-0.240901
-0.212264
-0.185799
-0.192552
-0.178696
-0.155954
-0.134849
-0.125041
-0.122345
-0.124747
-0.444874
-0.443774
-0.442273
-0.440322
-0.437354
-0.432517
-0.424375
-0.40896
-0.375302
-0.320532
-0.281178
-0.234102
-0.219903
-0.222682
-0.195545
-0.162226
-0.141942
-0.126942
-0.125612
-0.125714
-0.511423
-0.510383
-0.509265
-0.508103
-0.507034
-0.50633
-0.505748
-0.501992
-0.48255
-0.440926
-0.385276
-0.295563
-0.251774
-0.243244
-0.204682
-0.149904
-0.112712
-0.0981803
-0.0977508
-0.0986912
-0.588443
-0.587908
-0.58802
-0.589242
-0.593101
-0.60198
-0.618763
-0.6442
-0.667951
-0.674697
-0.588824
-0.432764
-0.339084
-0.306135
-0.233875
-0.155132
-0.0907949
-0.0662976
-0.0721975
-0.0721414
-0.666922
-0.667431
-0.669716
-0.67515
-0.687376
-0.712035
-0.758041
-0.837182
-0.94641
-1.04482
-0.927721
-0.671828
-0.488339
-0.407406
-0.28401
-0.159696
-0.0790777
-0.0570867
-0.0639484
-0.0684884
-0.731067
-0.733
-0.738047
-0.748909
-0.771721
-0.816256
-0.900247
-1.05461
-1.29283
-1.50669
-1.35462
-0.983109
-0.716875
-0.576169
-0.403927
-0.257234
-0.179234
-0.176688
-0.18123
-0.185565
-0.761147
-0.764472
-0.771992
-0.787739
-0.820075
-0.882477
-1.00139
-1.22587
-1.58599
-1.88483
-1.69144
-1.24849
-0.961861
-0.758454
-0.549547
-0.441464
-0.401889
-0.392975
-0.390871
-0.392359
-0.740819
-0.744687
-0.75326
-0.771491
-0.808442
-0.879424
-1.01525
-1.27505
-1.6886
-2.02816
-1.838
-1.41589
-1.14738
-0.9468
-0.720283
-0.606643
-0.603462
-0.608309
-0.611807
-0.615156
-0.664942
-0.668653
-0.676629
-0.693538
-0.72824
-0.794977
-0.922759
-1.16736
-1.54681
-1.84476
-1.7222
-1.4014
-1.2645
-1.16233
-0.985637
-0.891961
-0.874346
-0.872052
-0.873606
-0.877165
-0.543804
-0.546521
-0.552351
-0.565167
-0.592148
-0.64443
-0.744398
-0.935779
-1.2299
-1.42196
-1.35105
-1.2325
-1.24389
-1.4707
-1.5353
-1.34793
-1.2398
-1.18774
-1.1641
-1.15782
-0.398807
-0.400216
-0.403358
-0.41103
-0.42818
-0.462187
-0.527724
-0.654755
-0.8645
-0.999381
-0.965018
-0.928938
-1.09246
-1.50837
-1.80048
-1.59185
-1.4012
-1.30456
-1.25818
-1.24128
-0.253467
-0.253738
-0.254731
-0.258056
-0.266543
-0.284123
-0.3187
-0.387675
-0.518474
-0.639534
-0.634009
-0.633934
-0.688264
-0.912988
-1.17733
-1.13054
-1.04005
-0.990401
-0.966291
-0.955978
-0.125291
-0.124938
-0.124996
-0.125989
-0.12881
-0.134952
-0.147452
-0.172835
-0.226617
-0.306135
-0.306713
-0.26018
-0.258863
-0.343663
-0.479622
-0.505801
-0.498924
-0.495395
-0.494871
-0.494048
-0.0212282
-0.0209844
-0.0199287
-0.0188214
-0.0182882
-0.0185068
-0.0192341
-0.0206103
-0.0229447
-0.0229179
-0.0583612
-0.0779887
-0.0803601
-0.0446003
-0.0616809
-0.0696456
-0.074564
-0.0795155
-0.0820446
-0.0845673
-0.237956
-0.0330215
0.157898
0.318794
0.450324
0.556992
0.647447
0.720931
0.741198
0.737212
0.0825313
0.215809
0.340745
0.449984
0.543012
0.620817
0.682595
0.724646
0.747144
0.763317
0.301223
0.389437
0.476731
0.554082
0.620588
0.675997
0.719682
0.752691
0.7769
0.796037
0.459769
0.52157
0.584395
0.641193
0.690398
0.732134
0.766891
0.795614
0.81719
0.83615
0.582728
0.629638
0.676931
0.720459
0.759089
0.793042
0.822514
0.847289
0.866076
0.884216
0.687478
0.724895
0.762016
0.797763
0.830528
0.860032
0.885973
0.907648
0.923973
0.941527
0.778721
0.812188
0.845694
0.878022
0.908058
0.935283
0.959097
0.978569
0.992867
1.00996
0.867801
0.901175
0.934431
0.966345
0.995753
1.0221
1.04469
1.06258
1.07525
1.09184
0.963484
1.0003
1.03557
1.06849
1.09809
1.12382
1.14527
1.16181
1.17361
1.18981
1.07724
1.11799
1.15537
1.1887
1.21749
1.24174
1.26159
1.27703
1.28905
1.30516
1.21895
1.26032
1.2958
1.32562
1.35102
1.37279
1.39143
1.40702
1.42021
1.43619
1.39092
1.42364
1.45057
1.47298
1.49317
1.51198
1.5298
1.54663
1.56159
1.57733
1.57755
1.5949
1.6121
1.62884
1.64499
1.65978
1.67372
1.68824
1.70351
1.72082
1.76102
1.77106
1.78431
1.79532
1.80474
1.81443
1.82508
1.83529
1.84461
1.87028
1.97907
1.97338
1.96043
1.94616
1.93989
1.94564
1.9638
1.99233
2.02611
2.06244
2.28184
2.14587
2.06641
2.02398
2.00669
2.01064
2.0381
2.09597
2.20364
2.38204
0.562554
0.556249
0.548514
0.537391
0.523807
0.511139
0.50071
0.492649
0.486864
0.483436
0.482939
0.485612
0.490705
0.497958
0.507434
0.519208
0.53273
0.545632
0.554603
0.562134
0.471645
0.477563
0.485632
0.491756
0.494812
0.494284
0.49117
0.48713
0.48346
0.481059
0.480775
0.48286
0.486481
0.490819
0.494833
0.497014
0.495893
0.491223
0.484141
0.476293
0.464935
0.467307
0.470572
0.47334
0.475782
0.477955
0.479112
0.478918
0.477894
0.476962
0.47701
0.478251
0.479883
0.480985
0.480803
0.479252
0.477031
0.474619
0.471601
0.468568
0.460204
0.461292
0.463209
0.465547
0.467416
0.468802
0.469993
0.470937
0.471439
0.471645
0.472006
0.472575
0.472888
0.472616
0.47186
0.470834
0.469419
0.467381
0.465227
0.463735
0.455263
0.455896
0.457027
0.458787
0.460627
0.462204
0.463415
0.464404
0.465273
0.466016
0.466581
0.466868
0.466799
0.466425
0.465749
0.464654
0.463124
0.461429
0.460034
0.459217
0.450445
0.45088
0.451676
0.452998
0.454532
0.456092
0.457538
0.45876
0.459817
0.460735
0.461434
0.461748
0.461649
0.461189
0.460342
0.459178
0.45788
0.456613
0.455633
0.455086
0.445781
0.446104
0.446728
0.447827
0.449155
0.450574
0.452052
0.453483
0.454759
0.455871
0.456726
0.45711
0.457007
0.456462
0.45559
0.454575
0.453528
0.452511
0.451754
0.451349
0.44123
0.441475
0.441985
0.442951
0.444182
0.445542
0.446994
0.448519
0.450014
0.451362
0.452407
0.452897
0.452802
0.452278
0.451523
0.450659
0.449755
0.448906
0.448302
0.447993
0.436777
0.436964
0.43739
0.438263
0.439449
0.440769
0.442182
0.44369
0.445265
0.446797
0.44806
0.448744
0.448827
0.448521
0.447969
0.447272
0.446498
0.44578
0.445296
0.445057
0.432372
0.432512
0.432872
0.433673
0.43481
0.436104
0.437512
0.439045
0.440721
0.442472
0.444007
0.44493
0.445258
0.445191
0.444851
0.444326
0.443705
0.443115
0.442735
0.442553
0.427993
0.428094
0.428408
0.429181
0.430335
0.43169
0.433229
0.434944
0.436766
0.438676
0.440522
0.441868
0.44255
0.442678
0.442445
0.442018
0.441496
0.440997
0.440695
0.440558
0.423594
0.423659
0.423934
0.424692
0.425868
0.427263
0.428835
0.430656
0.432793
0.435155
0.437443
0.439103
0.440005
0.440413
0.440465
0.440247
0.439857
0.439452
0.439225
0.439132
0.419202
0.419232
0.419465
0.420184
0.421349
0.422768
0.42441
0.42634
0.42859
0.431206
0.43399
0.436288
0.437797
0.43866
0.439043
0.439075
0.438889
0.438636
0.438504
0.438456
0.414829
0.414826
0.415022
0.415696
0.416852
0.418334
0.420128
0.42234
0.425048
0.428257
0.431691
0.434572
0.436513
0.437731
0.438398
0.438745
0.438822
0.438767
0.438739
0.438718
0.410139
0.410142
0.410315
0.410923
0.412012
0.413493
0.415379
0.417797
0.420859
0.424656
0.428901
0.432614
0.435296
0.437128
0.438315
0.439066
0.439524
0.439742
0.439836
0.439833
0.40472
0.404708
0.404885
0.405484
0.406608
0.408206
0.410346
0.413187
0.416859
0.421468
0.426707
0.4314
0.434848
0.437305
0.439039
0.440228
0.440995
0.441448
0.441637
0.44164
0.398264
0.398245
0.398455
0.399106
0.40035
0.402173
0.404671
0.408036
0.412475
0.418127
0.424631
0.430505
0.434904
0.438102
0.440393
0.442026
0.443149
0.443828
0.444099
0.444109
0.390469
0.390445
0.390699
0.391488
0.392932
0.395091
0.398106
0.402208
0.407657
0.41462
0.422682
0.43002
0.435541
0.439594
0.442529
0.444656
0.446142
0.447031
0.447368
0.447381
0.380966
0.380931
0.381257
0.382237
0.384029
0.386709
0.390461
0.395581
0.402371
0.411052
0.421044
0.430108
0.436923
0.441934
0.445603
0.448268
0.450136
0.451216
0.451619
0.451639
0.369326
0.369278
0.369697
0.37096
0.373231
0.376623
0.381384
0.38786
0.396401
0.407224
0.419598
0.430754
0.439122
0.445276
0.449775
0.453047
0.455338
0.456636
0.45712
0.457151
0.354959
0.354893
0.355442
0.357082
0.360049
0.364456
0.370613
0.3789
0.38972
0.403257
0.418529
0.432161
0.442344
0.449819
0.455301
0.459312
0.462034
0.463559
0.464147
0.464188
0.337111
0.33703
0.337778
0.339928
0.343846
0.349677
0.357756
0.368482
0.38225
0.399154
0.417897
0.434429
0.446729
0.455776
0.462407
0.467198
0.470452
0.472286
0.472994
0.473039
0.314458
0.314383
0.315485
0.318442
0.323696
0.331591
0.342362
0.356407
0.373987
0.395047
0.41789
0.437752
0.452456
0.463283
0.471223
0.476951
0.480828
0.48303
0.483864
0.483905
0.284733
0.28472
0.286481
0.290808
0.29827
0.309309
0.323993
0.342561
0.365048
0.391142
0.418713
0.442298
0.459661
0.472461
0.481874
0.488686
0.493325
0.49595
0.496909
0.496935
0.243838
0.244052
0.247256
0.254444
0.265982
0.282126
0.30256
0.327204
0.355785
0.387766
0.420618
0.448238
0.468447
0.483362
0.494391
0.502452
0.507993
0.511081
0.512141
0.512138
0.184048
0.185494
0.193215
0.206853
0.226001
0.250239
0.278691
0.311006
0.346761
0.385317
0.423827
0.455652
0.478784
0.495879
0.508619
0.518046
0.524607
0.528186
0.529319
0.529281
0.111874
0.11483
0.129784
0.153473
0.183009
0.216737
0.253945
0.294464
0.337986
0.383916
0.429168
0.466411
0.493605
0.513898
0.529249
0.54076
0.548875
0.553409
0.554786
0.55488
0.0382973
0.0458354
0.0681924
0.10162
0.141022
0.184009
0.229951
0.278726
0.33007
0.383474
0.435603
0.478391
0.509723
0.533311
0.551399
0.565331
0.575171
0.580134
0.581982
0.582419
-0.0206159
-0.0115151
0.0155571
0.0557922
0.102812
0.153612
0.207399
0.263875
0.322625
0.383098
0.441663
0.489485
0.524415
0.550717
0.570908
0.586369
0.597314
0.603366
0.605978
0.606564
-0.0687773
-0.0589982
-0.0285167
0.0166701
0.0694355
0.126462
0.1868
0.249969
0.315405
0.382374
0.446801
0.499081
0.537069
0.56549
0.587257
0.603947
0.615923
0.622792
0.62574
0.626395
-0.109166
-0.0991608
-0.0664155
-0.0173477
0.040104
0.102268
0.168119
0.237064
0.308393
0.38121
0.450924
0.50713
0.547666
0.577806
0.600726
0.618264
0.630927
0.638402
0.64159
0.642278
-0.144389
-0.134277
-0.0998417
-0.0476512
0.0137036
0.0802728
0.150898
0.224921
0.301527
0.379616
0.454136
0.51387
0.556611
0.588121
0.611876
0.629926
0.642933
0.650732
0.654068
0.654783
-0.176004
-0.165855
-0.130074
-0.0752816
-0.010631
0.0597264
0.134577
0.213178
0.294591
0.377559
0.456575
0.519603
0.56435
0.597019
0.621389
0.639708
0.652848
0.660783
0.664113
0.664853
-0.205173
-0.194979
-0.158104
-0.101059
-0.0335371
0.0401432
0.118746
0.20149
0.287352
0.374929
0.458273
0.524498
0.571199
0.604951
0.629866
0.648413
0.661632
0.669648
0.672972
0.673604
-0.232731
-0.222472
-0.184596
-0.125562
-0.0554975
0.0211174
0.103086
0.189611
0.279602
0.371574
0.459163
0.528611
0.577291
0.612201
0.63773
0.656561
0.669873
0.677871
0.681203
0.681727
-0.259167
-0.248807
-0.209993
-0.149163
-0.0768425
0.0023988
0.0874039
0.177371
0.2712
0.367374
0.459167
0.53195
0.5828
0.61904
0.645313
0.664513
0.67797
0.685941
0.689215
0.689722
-0.284814
-0.274285
-0.234584
-0.17213
-0.0977842
-0.0161826
0.0715616
0.16467
0.26207
0.362256
0.458263
0.534604
0.587872
0.625621
0.652794
0.672486
0.686166
0.694143
0.697295
0.697768
-0.309889
-0.299118
-0.258572
-0.194626
-0.118454
-0.0347388
0.0554863
0.151465
0.252171
0.356201
0.456446
0.536525
0.592451
0.63197
0.660231
0.680547
0.694513
0.702491
0.705502
0.7059
-0.334431
-0.323401
-0.282058
-0.216719
-0.138901
-0.0532858
0.0391656
0.137742
0.2415
0.349169
0.453595
0.537585
0.596498
0.638083
0.667646
0.688702
0.702974
0.710915
0.713749
0.714043
-0.358503
-0.347196
-0.30505
-0.238419
-0.159137
-0.0718271
0.0226146
0.123528
0.230066
0.34112
0.449607
0.537693
0.599931
0.643927
0.675035
0.696939
0.71152
0.719374
0.721973
0.722134
-0.382075
-0.37049
-0.327547
-0.259737
-0.179141
-0.0903215
0.00589014
0.108873
0.217896
0.33205
0.444458
0.53672
0.602588
0.649422
0.682402
0.705274
0.720093
0.727707
0.73
0.730034
-0.40518
-0.393256
-0.34952
-0.280635
-0.198863
-0.108707
-0.010945
0.0938533
0.205068
0.322015
0.438104
0.53452
0.60429
0.654435
0.689763
0.713794
0.728705
0.735835
0.737701
0.737599
-0.427577
-0.415431
-0.370916
-0.301055
-0.218233
-0.126899
-0.0278104
0.0785603
0.191678
0.311084
0.430514
0.530987
0.604817
0.658742
0.697095
0.722725
0.737554
0.74372
0.744906
0.744656
-0.449409
-0.436943
-0.391684
-0.320953
-0.237206
-0.144844
-0.0445983
0.0630918
0.177825
0.299346
0.421715
0.526025
0.603953
0.662002
0.704206
0.732379
0.747292
0.751725
0.751554
0.751061
-0.470486
-0.457742
-0.411802
-0.34027
-0.255689
-0.162445
-0.0612166
0.0475749
0.163626
0.28689
0.411769
0.519566
0.601497
0.663791
0.710578
0.742817
0.75912
0.761511
0.758362
0.756816
-0.490898
-0.47785
-0.431207
-0.358944
-0.273636
-0.17963
-0.0775768
0.0320985
0.149201
0.273873
0.400779
0.511563
0.597299
0.663657
0.715281
0.753193
0.773686
0.776596
0.769784
0.758788
-0.510532
-0.497261
-0.449991
-0.37714
-0.291272
-0.196697
-0.0940341
0.0162334
0.134066
0.259736
0.388154
0.501334
0.590743
0.660961
0.716999
0.761509
0.78925
0.796183
0.78813
0.782468
-0.529328
-0.516049
-0.468151
-0.394787
-0.308566
-0.213622
-0.110546
-2.79751e-05
0.118206
0.244384
0.373766
0.488516
0.581258
0.655004
0.713305
0.761732
0.793587
0.805355
0.774755
0.733719
-0.547098
-0.534062
-0.485651
-0.411761
-0.325498
-0.230423
-0.127092
-0.0165459