/*--------------------------------*- C++ -*----------------------------------*\
  =========                 |
  \\      /  F ield         | OpenFOAM: The Open Source CFD Toolbox
   \\    /   O peration     | Website:  https://openfoam.org
    \\  /    A nd           | Version:  6
     \\/     M anipulation  |
\*---------------------------------------------------------------------------*/
FoamFile
{
    version     2.0;
    format      ascii;
    class       surfaceScalarField;
    location    "74.7";
    object      phi;
}
// * * * * * * * * * * * * * * * * * * * * * * * * * * * * * * * * * * * * * //

dimensions      [0 3 -1 0 0 0 0];

internalField   nonuniform List<scalar> 
17370
(
-0.0900005
0.0898497
0.289162
-0.0714634
0.0537537
0.364485
-0.0381207
0.0276916
0.426597
-0.01964
0.0146071
0.504285
-0.0107653
0.00827509
0.601892
-0.00627554
0.00489919
0.720434
-0.00373547
0.0028951
0.863747
-0.00215374
0.00159464
1.03601
-0.00107794
0.00066535
1.24292
-0.000257645
-0.000136149
1.49158
0.000515634
-0.000926153
1.4916
0.0013246
-0.00181469
1.24318
0.00234308
-0.00304908
1.03634
0.00386228
-0.0050055
0.86405
0.00637092
-0.00836342
0.72105
0.0108483
-0.0146837
0.60305
0.0197103
-0.0277545
0.507483
0.0381763
-0.0538007
0.431792
0.071502
-0.0898755
0.365149
0.090016
0.198995
-0.128136
0.0882255
0.0399103
-0.364598
0.353377
-0.0746738
0.0858946
-0.446476
0.45432
-0.0843921
0.0765483
-0.52119
0.529901
-0.0684514
0.0597404
-0.612788
0.621568
-0.0515518
0.0427725
-0.726894
0.734164
-0.0353118
0.0280424
-0.867475
0.872591
-0.0224415
0.0173257
-1.03847
1.04192
-0.0135158
0.0100658
-1.2446
1.24703
-0.00745481
0.00502155
-1.49262
1.4946
-0.00307338
0.00109435
-1.4925
1.49423
0.00058274
-0.00230763
-1.24398
1.24586
0.00421139
-0.00609666
-1.03751
1.04004
0.00845387
-0.0109831
-0.866101
0.869828
0.0143357
-0.0180622
-0.724391
0.729934
0.0231005
-0.0286433
-0.608698
0.616112
0.0358581
-0.0432721
-0.514897
0.523041
0.0520016
-0.0601453
-0.439856
0.447915
0.0688081
-0.0768665
-0.375296
0.37674
0.0846643
-0.0861084
-0.257331
0.222478
0.074819
-0.0399665
-0.0685183
0.0586924
0.00982592
-0.0518117
0.0583949
-0.374127
0.367543
-0.0574789
0.0537265
-0.453594
0.457347
-0.0486362
0.0446835
-0.527947
0.5319
-0.0408433
0.0372039
-0.621564
0.625203
-0.0331016
0.0290252
-0.735349
0.739425
-0.0244541
0.0202941
-0.874341
0.878501
-0.0159473
0.0122524
-1.04349
1.04718
-0.00851358
0.00533913
-1.24856
1.25174
-0.00200893
-0.00106549
-1.49666
1.49973
0.00411363
-0.00738053
-1.4972
1.50047
0.010462
-0.0140694
-1.25007
1.25368
0.0176272
-0.0218144
-1.04592
1.05011
0.0258359
-0.0302717
-0.877762
0.882198
0.0342406
-0.0382375
-0.7399
0.743897
0.0417874
-0.0455346
-0.626774
0.630521
0.0494072
-0.0544209
-0.53481
0.539824
0.05809
-0.0589013
-0.457474
0.458285
0.0521953
-0.0319915
-0.33575
0.315547
0.00988844
-0.068345
0.0584565
-0.0529419
0.0489469
0.00399495
-0.0331581
0.0437015
-0.358111
0.347568
-0.0473981
0.0467694
-0.459286
0.459915
-0.0437122
0.0403581
-0.535803
0.539157
-0.0365841
0.0332788
-0.628529
0.631834
-0.0298395
0.0268063
-0.742649
0.745682
-0.0235462
0.0204383
-0.88202
0.885128
-0.0169066
0.0135257
-1.05077
1.05416
-0.00973064
0.00619005
-1.25517
1.25871
-0.00221844
-0.00158067
-1.50324
1.50704
0.00534716
-0.00922171
-1.50414
1.50801
0.0126304
-0.0162425
-1.25742
1.26103
0.0194315
-0.0227394
-1.05392
1.05723
0.025651
-0.0287163
-0.885689
0.888754
0.0315918
-0.0348755
-0.747156
0.750439
0.0380497
-0.0416894
-0.634305
0.637945
0.0449282
-0.047854
-0.544133
0.547059
0.0483444
-0.0444534
-0.45657
0.452679
0.0336783
-0.0162243
-0.296179
0.278725
0.00407261
-0.0526361
0.0485635
-0.0458699
0.0433755
0.0024944
-0.0227994
0.0331743
-0.336881
0.326506
-0.0389923
0.0400066
-0.4596
0.458586
-0.0388142
0.0365255
-0.541877
0.544165
-0.0338559
0.0312579
-0.634886
0.637484
-0.0281925
0.0252912
-0.748728
0.751629
-0.0220247
0.0190295
-0.888082
0.891078
-0.0157227
0.0126216
-1.05729
1.06039
-0.00909332
0.00568243
-1.26217
1.26558
-0.00171727
-0.00216826
-1.51093
1.51481
0.00601044
-0.009847
-1.5119
1.51574
0.0130843
-0.0163738
-1.26446
1.26775
0.0192243
-0.0222373
-1.06033
1.06334
0.0249719
-0.0279769
-0.891807
0.894812
0.0306636
-0.0335154
-0.753644
0.756495
0.0359336
-0.0384219
-0.641009
0.643497
0.0405548
-0.0415427
-0.548861
0.549848
0.0403145
-0.0341844
-0.447394
0.441264
0.0234683
-0.0102422
-0.263499
0.250273
0.00259042
-0.0453991
0.0428087
-0.0413017
0.0395362
0.0017655
-0.0167355
0.0259803
-0.316658
0.307413
-0.0325798
0.0347152
-0.456989
0.454854
-0.0342904
0.0326169
-0.546144
0.547818
-0.030433
0.0283349
-0.63979
0.641888
-0.0259005
0.0235004
-0.754275
0.756675
-0.0206392
0.0178475
-0.893975
0.896766
-0.0146085
0.0115366
-1.06344
1.06651
-0.00804341
0.00471504
-1.2689
1.27223
-0.000879652
-0.00285526
-1.5186
1.52234
0.00653482
-0.0102061
-1.51947
1.52314
0.0133131
-0.0165023
-1.27099
1.27418
0.0192549
-0.0221189
-1.06637
1.06923
0.0245767
-0.0271013
-0.897626
0.90015
0.0292241
-0.0313826
-0.758942
0.761101
0.0332506
-0.0352011
-0.645648
0.647599
0.0366487
-0.0367955
-0.550362
0.550509
0.0343319
-0.0272754
-0.43459
0.427533
0.0175708
-0.00741534
-0.238732
0.228576
0.0018828
-0.0406279
0.0387451
-0.0380158
0.0366888
0.00132701
-0.0127698
0.0207053
-0.298828
0.290893
-0.0274448
0.0303593
-0.452299
0.449384
-0.0305569
0.0294317
-0.549251
0.550376
-0.0274331
0.0255116
-0.643925
0.645846
-0.0233063
0.0211644
-0.758916
0.761058
-0.0186444
0.0161564
-0.899343
0.901831
-0.0132087
0.0103237
-1.06945
1.07233
-0.00695511
0.00370806
-1.27549
1.27874
4.40697e-05
-0.0036753
-1.52599
1.52962
0.00723718
-0.0107826
-1.52673
1.53028
0.0137518
-0.0167406
-1.2773
1.28029
0.0192268
-0.0217055
-1.07197
1.07445
0.0237752
-0.0258723
-0.902435
0.904532
0.027664
-0.0295187
-0.76308
0.764934
0.0311493
-0.0328648
-0.649413
0.651129
0.033661
-0.0330743
-0.550293
0.549706
0.0296903
-0.0223247
-0.420265
0.4129
0.0137983
-0.00575366
-0.219577
0.211533
0.0014697
-0.0370943
0.0356246
-0.0355302
0.0345088
0.00102137
-0.00996722
0.0166671
-0.283601
0.276901
-0.0231338
0.0264943
-0.446227
0.442867
-0.0272647
0.0265563
-0.551285
0.551994
-0.0247894
0.0229977
-0.647744
0.649536
-0.0209195
0.0188957
-0.763134
0.765157
-0.0165157
0.0141803
-0.904173
0.906509
-0.0114319
0.00873724
-1.07505
1.07775
-0.0055687
0.00247417
-1.28187
1.28497
0.00114529
-0.00466392
-1.53318
1.5367
0.00809646
-0.0114584
-1.53372
1.53709
0.0142078
-0.0169067
-1.28314
1.28584
0.0191092
-0.0212784
-1.07682
1.07899
0.0230969
-0.0249534
-0.906506
0.908363
0.026543
-0.028186
-0.766677
0.76832
0.0296164
-0.0309918
-0.652701
0.654076
0.0312921
-0.029969
-0.548765
0.547442
0.0259613
-0.0186704
-0.405546
0.398255
0.0112276
-0.00465391
-0.204293
0.197719
0.00119487
-0.0343077
0.0331128
-0.033613
0.032819
0.000793927
-0.00788677
0.0135088
-0.27077
0.265148
-0.0194831
0.023034
-0.439401
0.435851
-0.0242756
0.0238114
-0.552613
0.553077
-0.0223079
0.0206231
-0.651323
0.653008
-0.0186364
0.0166949
-0.767132
0.769074
-0.0144034
0.0121526
-0.908736
0.910986
-0.00950499
0.00691886
-1.08032
1.0829
-0.00389003
0.000937669
-1.28794
1.29089
0.00251103
-0.00585584
-1.5401
1.54345
0.00909521
-0.0122287
-1.54031
1.54345
0.0147593
-0.0172143
-1.28842
1.29087
0.0191978
-0.0211353
-1.08113
1.08307
0.0227523
-0.0244017
-0.910121
0.91177
0.0258099
-0.0272607
-0.769859
0.77131
0.0284944
-0.0294888
-0.65525
0.656244
0.0294135
-0.0274185
-0.545784
0.543789
0.0230037
-0.0159721
-0.391088
0.384056
0.00942728
-0.00389474
-0.191715
0.186182
0.00100472
-0.0320245
0.0310197
-0.0321231
0.0315059
0.000617189
-0.00627852
0.0109791
-0.260015
0.255315
-0.0163555
0.0198994
-0.432303
0.42876
-0.0214578
0.0212157
-0.553467
0.553709
-0.0199406
0.0183118
-0.654711
0.65634
-0.016378
0.0144834
-0.77098
0.772875
-0.0122481
0.0100531
-0.913132
0.915327
-0.00747043
0.00495125
-1.08538
1.0879
-0.0020101
-0.00083866
-1.29374
1.29658
0.00413737
-0.00730605
-1.54667
1.54984
0.0103465
-0.0132622
-1.54644
1.54936
0.0155992
-0.0178445
-1.29322
1.29547
0.0196303
-0.0213462
-1.085
1.08671
0.0227674
-0.0242181
-0.91332
0.914771
0.0254596
-0.0267341
-0.772665
0.77394
0.0278224
-0.0283926
-0.65703
0.6576
0.0279425
-0.0253777
-0.541521
0.538956
0.020708
-0.0139977
-0.377194
0.370483
0.0081583
-0.00336686
-0.181057
0.176266
0.000873183
-0.0300901
0.0292169
-0.0309691
0.0304954
0.000473643
-0.0049812
0.00888599
-0.251039
0.247134
-0.0136204
0.0170087
-0.425303
0.421914
-0.0187438
0.0186885
-0.553902
0.553957
-0.0176022
0.0160063
-0.658016
0.659612
-0.014091
0.0122074
-0.774746
0.77663
-0.00998579
0.00781042
-0.917423
0.919599
-0.00526073
0.00278406
-1.09031
1.09279
9.45223e-05
-0.00286622
-1.29933
1.30211
0.00604973
-0.0090749
-1.5529
1.55592
0.0119438
-0.0146606
-1.55214
1.55486
0.0168099
-0.0188443
-1.29761
1.29964
0.020431
-0.0219285
-1.08844
1.08994
0.0231643
-0.0244337
-0.916125
0.917394
0.025526
-0.0266409
-0.775123
0.776238
0.0275273
-0.0277347
-0.657984
0.658191
0.0268603
-0.0238119
-0.536157
0.533109
0.0189828
-0.012582
-0.363944
0.357543
0.00727546
-0.00300626
-0.171766
0.167497
0.000784888
-0.0283963
0.0276114
-0.0300906
0.0297387
0.000351896
-0.00389169
0.00709618
-0.243605
0.2404
-0.0111767
0.0142993
-0.418676
0.415554
-0.0160838
0.0161772
-0.553991
0.553898
-0.0151652
0.013637
-0.661246
0.662775
-0.0117107
0.00980447
-0.778502
0.780408
-0.00755848
0.0053681
-0.92168
0.923871
-0.00281379
0.000346419
-1.09516
1.09763
0.00250302
-0.00522556
-1.30479
1.30751
0.00832294
-0.0112301
-1.55885
1.56176
0.013948
-0.0164793
-1.55744
1.55998
0.0184477
-0.0202757
-1.30157
1.3034
0.0216647
-0.0229446
-1.09149
1.09277
0.0239989
-0.0250935
-0.918567
0.919662
0.026043
-0.0269939
-0.777256
0.778207
0.0276198
-0.0275319
-0.658261
0.658174
0.0262103
-0.0227172
-0.529846
0.526353
0.0177665
-0.0116156
-0.351292
0.345141
0.00668956
-0.0027737
-0.163432
0.159517
0.00073008
-0.0268621
0.0261321
-0.0294488
0.0292059
0.000242967
-0.00293397
0.00550513
-0.237536
0.234964
-0.00893201
0.0117061
-0.412629
0.409855
-0.0134262
0.0135944
-0.553828
0.55366
-0.0126207
0.0111292
-0.664366
0.665857
-0.00917011
0.0072129
-0.782308
0.784265
-0.00490629
0.00266448
-0.925971
0.928212
-6.36546e-05
-0.00243162
-1.10001
1.1025
0.00529012
-0.00799589
-1.31015
1.31285
0.0110399
-0.0138562
-1.56457
1.56739
0.0164435
-0.0188033
-1.56238
1.56474
0.0206003
-0.0222286
-1.30513
1.30675
0.0234216
-0.0244812
-1.09413
1.09519
0.0253508
-0.0262658
-0.920652
0.921567
0.0270647
-0.0278503
-0.779029
0.779815
0.0281876
-0.0277973
-0.65794
0.657549
0.026012
-0.022087
-0.522668
0.518743
0.0170121
-0.0110244
-0.339103
0.333115
0.0063428
-0.00264337
-0.155735
0.152036
0.000702035
-0.0254242
0.0247222
-0.0290222
0.028883
0.000139241
-0.00204451
0.00402007
-0.232713
0.230738
-0.0067883
0.00914329
-0.407319
0.404964
-0.0106895
0.0108522
-0.553568
0.553406
-0.00988036
0.00838508
-0.667446
0.668941
-0.00636214
0.00432072
-0.786221
0.788262
-0.00191476
-0.000413565
-0.930365
0.932694
0.00309933
-0.00565866
-1.10491
1.10747
0.00856647
-0.0112891
-1.31549
1.31821
0.0143086
-0.0170511
-1.57012
1.57286
0.0195177
-0.0217137
-1.56697
1.56916
0.0233446
-0.0247746
-1.30827
1.3097
0.025764
-0.02659
-1.09636
1.09719
0.0272607
-0.0279796
-0.922367
0.923086
0.0286249
-0.0292698
-0.780446
0.781091
0.0292877
-0.0284885
-0.656962
0.656163
0.0262452
-0.0218942
-0.514651
0.5103
0.016667
-0.0107451
-0.327198
0.321276
0.00618892
-0.00259456
-0.148415
0.144821
0.000695226
-0.0240319
0.0233367
-0.0288038
0.0287694
3.44173e-05
-0.00117717
0.00257121
-0.229074
0.22768
-0.00466621
0.00653773
-0.402884
0.401012
-0.00780627
0.00788116
-0.553377
0.553302
-0.00686374
0.00532639
-0.670572
0.672109
-0.00320008
0.00104212
-0.790304
0.792462
0.00150188
-0.00395527
-0.934932
0.937386
0.00677145
-0.009437
-1.10995
1.11262
0.0124382
-0.0152154
-1.32087
1.32365
0.018248
-0.0209461
-1.57552
1.57822
0.0233114
-0.0253498
-1.57123
1.57326
0.0268124
-0.0280398
-1.311
1.31223
0.0288228
-0.0294139
-1.09817
1.09876
0.0298817
-0.0303941
-0.923687
0.9242
0.0308647
-0.0312751
-0.781496
0.781907
0.0310011
-0.0297273
-0.655173
0.6539
0.0269806
-0.0221637
-0.505779
0.500962
0.0167215
-0.0107517
-0.315374
0.309405
0.00620717
-0.00261808
-0.141256
0.137667
0.000707397
-0.0226443
0.0219369
-0.0287968
0.0288694
-7.26398e-05
-0.000291295
0.00109432
-0.226599
0.225796
-0.0024829
0.00380226
-0.399448
0.398128
-0.00468986
0.00459305
-0.553426
0.553522
-0.0034749
0.0018404
-0.673829
0.675464
0.000422947
-0.00273938
-0.794621
0.796938
0.00547134
-0.00809579
-0.939751
0.942376
0.0110907
-0.0139041
-1.11521
1.11803
0.0170423
-0.0199114
-1.32637
1.32924
0.0229934
-0.0256733
-1.58085
1.58353
0.0279532
-0.0298392
-1.57516
1.57705
0.0311303
-0.0321432
-1.31331
1.31433
0.032713
-0.0330626
-1.09954
1.09989
0.0333173
-0.0336095
-0.924584
0.924877
0.0338797
-0.0339804
-0.781992
0.782093
0.0333892
-0.0315624
-0.652437
0.65061
0.0282583
-0.0229133
-0.495966
0.490621
0.0171697
-0.0110274
-0.3034
0.297257
0.00638339
-0.00270703
-0.134063
0.130387
0.000736515
-0.0212243
0.0204878
-0.0290171
0.0292148
-0.000197637
0.000651298
-0.000478816
-0.225316
0.225143
-0.000154993
0.000844937
-0.397139
0.396449
-0.00124253
0.000880865
-0.553898
0.554259
0.00041072
-0.00220496
-0.677339
0.679133
0.00466309
-0.00718769
-0.799259
0.801784
0.010161
-0.0130049
-0.944914
0.947758
0.0162326
-0.0192436
-1.12078
1.12379
0.0225692
-0.0255673
-1.33206
1.33505
0.028726
-0.0313993
-1.58614
1.58881
0.0335944
-0.0353232
-1.57879
1.58051
0.0364412
-0.037239
-1.31516
1.31596
0.0375891
-0.0376793
-1.10041
1.1005
0.0377013
-0.0377586
-0.925022
0.925079
0.0378354
-0.0375362
-0.781841
0.781542
0.0365417
-0.0340787
-0.648605
0.646142
0.0301349
-0.0241637
-0.485068
0.479096
0.018008
-0.0115574
-0.291018
0.284567
0.00670439
-0.00285423
-0.126653
0.122803
0.000780206
-0.019739
0.0189588
-0.0294943
0.0298402
-0.000345892
0.00170552
-0.00217254
-0.225316
0.225783
0.0023853
-0.00242074
-0.39611
0.396145
0.00264635
-0.003379
-0.555011
0.555743
0.0049055
-0.00691899
-0.681228
0.683242
0.00964118
-0.0124348
-0.804312
0.807106
0.0157161
-0.0188413
-0.95052
0.953646
0.0223685
-0.0256338
-1.12675
1.13001
0.0292031
-0.0323764
-1.33801
1.34119
0.0356548
-0.0383484
-1.59142
1.59411
0.0404662
-0.042025
-1.58207
1.58363
0.0429457
-0.0435089
-1.31653
1.3171
0.0436271
-0.0434384
-1.10075
1.10056
0.043207
-0.0430141
-0.924943
0.92475
0.0428696
-0.0420756
-0.780861
0.780068
0.0405861
-0.0373741
-0.643515
0.640303
0.0326762
-0.0259442
-0.472875
0.466143
0.0192402
-0.0123332
-0.277953
0.271046
0.00716037
-0.00305375
-0.118856
0.114749
0.000836431
-0.0181604
0.017324
-0.0302578
0.0307817
-0.000523896
0.00299702
-0.0042367
-0.226662
0.227902
0.0053266
-0.0061664
-0.39655
0.397389
0.00712609
-0.00833803
-0.556999
0.558211
0.0102119
-0.0125231
-0.685624
0.687935
0.0155935
-0.0187309
-0.809901
0.813039
0.0223987
-0.0258732
-0.956697
0.960171
0.029769
-0.0333457
-1.13324
1.13681
0.037213
-0.0405996
-1.34432
1.34771
0.044022
-0.0467393
-1.59673
1.59945
0.0487677
-0.0501373
-1.58501
1.58638
0.0508342
-0.0511546
-1.31738
1.3177
0.051021
-0.0505276
-1.10051
1.10002
0.0500244
-0.0495637
-0.924302
0.923841
0.0490717
-0.047813
-0.778955
0.777696
0.0456643
-0.0415499
-0.63692
0.632806
0.0359444
-0.0282766
-0.459102
0.451434
0.0208628
-0.0133393
-0.263903
0.256379
0.00773614
-0.00329655
-0.110509
0.106069
0.000901997
-0.0164648
0.0155628
-0.0313825
0.0321304
-0.00074789
0.00451266
-0.00663882
-0.229568
0.231694
0.00881929
-0.0105731
-0.398684
0.400438
0.0123713
-0.0141817
-0.560119
0.56193
0.0165441
-0.0192549
-0.690692
0.693403
0.0227864
-0.0263548
-0.816179
0.819748
0.0305001
-0.0344039
-0.963583
0.967487
0.038751
-0.042705
-1.14036
1.14432
0.046925
-0.0505539
-1.35106
1.35469
0.0541285
-0.0568557
-1.60208
1.60481
0.0587646
-0.0599031
-1.58753
1.58867
0.0603393
-0.0603832
-1.31763
1.31767
0.0599755
-0.05915
-1.09963
1.09881
0.0583483
-0.0575989
-0.923046
0.922296
0.0566799
-0.0548695
-0.776157
0.774347
0.0519188
-0.0466982
-0.628509
0.623288
0.0399835
-0.03116
-0.44338
0.434556
0.0228505
-0.0145429
-0.248544
0.240236
0.0084045
-0.00356756
-0.101463
0.0966262
0.000971806
-0.0146357
0.0136639
-0.0329509
0.0339938
-0.00104293
0.00642946
-0.00962782
-0.234275
0.237473
0.0130641
-0.0158874
-0.402776
0.405599
0.0186668
-0.0212025
-0.564644
0.56718
0.0241944
-0.0274305
-0.696646
0.699882
0.031553
-0.0356596
-0.823325
0.827432
0.040394
-0.0448201
-0.971343
0.975769
0.0497049
-0.0540966
-1.14825
1.15264
0.0587132
-0.0626034
-1.35828
1.36217
0.0663249
-0.0690324
-1.60743
1.61013
0.0707737
-0.0716204
-1.58957
1.59041
0.0717244
-0.071425
-1.31716
1.31687
0.0707194
-0.069527
-1.09803
1.09684
0.0683966
-0.0673479
-0.92114
0.920091
0.0658747
-0.0634057
-0.772285
0.769817
0.0594741
-0.0528817
-0.617865
0.611272
0.0447971
-0.0345504
-0.425256
0.415009
0.0251395
-0.0158825
-0.231542
0.222285
0.00911985
-0.00384343
-0.0916012
0.0863247
0.00103846
-0.012668
0.0116295
-0.0350953
0.0365439
-0.00144861
0.00892454
-0.0134915
-0.241113
0.24568
0.0184219
-0.0224809
-0.409202
0.413261
0.0264
-0.0298178
-0.570906
0.574324
0.0336281
-0.0375569
-0.703758
0.707687
0.0424456
-0.0472326
-0.831551
0.836338
0.0526833
-0.0577231
-0.980164
0.985203
0.0632185
-0.068084
-1.15701
1.16188
0.0730983
-0.0772113
-1.36598
1.3701
0.0809957
-0.0835776
-1.61267
1.61525
0.0850459
-0.085506
-1.59096
1.59142
0.0852299
-0.0845148
-1.31589
1.31518
0.0834595
-0.0818862
-1.09564
1.09406
0.0804386
-0.0789419
-0.918537
0.91704
0.0769598
-0.0735776
-0.767061
0.763678
0.0684083
-0.0600966
-0.604421
0.596109
0.0503149
-0.0383311
-0.404186
0.392202
0.0276042
-0.017253
-0.21258
0.202228
0.00981046
-0.00408982
-0.0808556
0.075135
0.00109166
-0.0105725
0.00948088
-0.0380121
0.0400424
-0.00203026
0.0124109
-0.0186983
-0.250612
0.256899
0.0254245
-0.0309238
-0.418449
0.423949
0.0361864
-0.0406809
-0.579302
0.583797
0.0455206
-0.050352
-0.712384
0.717216
0.0562264
-0.0618491
-0.841135
0.846757
0.0681425
-0.073871
-0.990224
0.995952
0.0800102
-0.0853296
-1.16669
1.17201
0.0906645
-0.0948886
-1.37406
1.37828
0.0985817
-0.100878
-1.61757
1.61987
0.101915
-0.101842
-1.59149
1.59142
0.101095
-0.0998483
-1.31369
1.31245
0.0983933
-0.0964235
-1.09239
1.09042
0.094618
-0.0925593
-0.914891
0.912832
0.0900148
-0.0854652
-0.759945
0.755395
0.0787031
-0.0682134
-0.587455
0.576966
0.0563322
-0.0422657
-0.379549
0.365482
0.030026
-0.0184904
-0.191396
0.17986
0.0103725
-0.00426038
-0.0692442
0.0631321
0.00111833
-0.00838201
0.00726368
-0.0420301
0.0449588
-0.0029287
0.017467
-0.026019
-0.263492
0.272044
0.0349588
-0.0421858
-0.431193
0.43842
0.0490594
-0.0548509
-0.590323
0.596114
0.0610308
-0.067053
-0.72296
0.728982
0.074133
-0.0807136
-0.85236
0.85894
0.0879098
-0.0943115
-1.00164
1.00805
0.101002
-0.10663
-1.1772
1.18283
0.112074
-0.116184
-1.38224
1.38635
0.119515
-0.121275
-1.62177
1.62353
0.121656
-0.120854
-1.59085
1.59005
0.119482
-0.117612
-1.31035
1.30848
0.115711
-0.113315
-1.0882
1.08581
0.111105
-0.108418
-0.909973
0.907286
0.105103
-0.0989771
-0.750347
0.744221
0.0901411
-0.0769067
-0.566012
0.552778
0.0624646
-0.0459714
-0.350693
0.334199
0.0320818
-0.0193734
-0.16787
0.155162
0.0106754
-0.00430101
-0.0569111
0.0505367
0.00110417
-0.00615515
0.00505098
-0.0477258
0.0521701
-0.00444422
0.0252812
-0.0369034
-0.280929
0.292552
0.0487162
-0.0582661
-0.448474
0.458024
0.067189
-0.0745557
-0.604558
0.611924
0.082342
-0.0898735
-0.735891
0.743423
0.0982036
-0.10567
-0.865428
0.872895
0.113595
-0.120434
-1.0143
1.02114
0.127339
-0.132924
-1.18815
1.19373
0.138058
-0.141659
-1.38998
1.39358
0.144197
-0.145047
-1.62468
1.62553
0.144464
-0.142685
-1.58862
1.58684
0.140517
-0.137917
-1.30567
1.30307
0.135483
-0.132634
-1.08295
1.0801
0.129901
-0.126589
-0.90366
0.900348
0.122097
-0.113796
-0.737368
0.729067
0.102222
-0.0855605
-0.538894
0.522233
0.0680804
-0.0488995
-0.317025
0.297845
0.0333541
-0.0196457
-0.142138
0.12843
0.0105804
-0.00415835
-0.0441644
0.0377424
0.00103505
-0.00397633
0.00294128
-0.0561882
0.0637556
-0.00756737
0.0388936
-0.055027
-0.305087
0.32122
0.0709008
-0.0836699
-0.471951
0.48472
0.094771
-0.103567
-0.622489
0.631285
0.112924
-0.121794
-0.751521
0.760391
0.131131
-0.139046
-0.880053
0.887968
0.147082
-0.153731
-1.02756
1.0342
0.160169
-0.165077
-1.19869
1.2036
0.169251
-0.171754
-1.39638
1.39889
0.172937
-0.172401
-1.62552
1.62499
0.170456
-0.167401
-1.58427
1.58122
0.164225
-0.160733
-1.29941
1.29592
0.157682
-0.154327
-1.0765
1.07314
0.151044
-0.146769
-0.895645
0.89137
0.140569
-0.129205
-0.71966
0.708296
0.113956
-0.0930825
-0.504592
0.483718
0.0722979
-0.0504476
-0.27822
0.25637
0.03348
-0.019147
-0.114744
0.100411
0.0100174
-0.00380676
-0.0314953
0.0252847
0.000896248
-0.00194901
0.00105276
-0.0707835
0.075006
-0.00422242
0.0296434
-0.0437537
-0.339942
0.354052
0.0579475
-0.0697339
-0.503044
0.514831
0.0803121
-0.0902322
-0.643817
0.653737
0.101384
-0.111776
-0.768664
0.779056
0.123375
-0.13367
-0.894838
0.905134
0.144661
-0.154475
-1.03994
1.04975
0.164824
-0.173783
-1.20745
1.21641
0.182835
-0.190202
-1.40026
1.40762
0.196995
-0.201708
-1.62331
1.62802
0.204343
-0.205521
-1.57716
1.57834
0.205509
-0.204964
-1.29122
1.29068
0.204575
-0.203604
-1.0685
1.06752
0.201968
-0.197444
-0.8849
0.880376
0.188378
-0.170695
-0.695227
0.677544
0.1469
-0.115851
-0.461749
0.4307
0.0867917
-0.058007
-0.234553
0.205769
0.0370463
-0.0203591
-0.0867879
0.0701007
0.0102065
-0.00366051
-0.0195383
0.0129923
0.00078048
-0.000144342
-0.000636138
-0.0825045
0.0805575
0.00194698
0.0078835
-0.0170155
-0.370888
0.38002
0.0278021
-0.0363448
-0.53126
0.539803
0.0449783
-0.0532095
-0.666436
0.674667
0.0633606
-0.07297
-0.788899
0.798509
0.0833155
-0.0927597
-0.914782
0.924226
0.102825
-0.111465
-1.05927
1.06791
0.12076
-0.12843
-1.22515
1.23282
0.136137
-0.142139
-1.41466
1.42066
0.147223
-0.150482
-1.632
1.63526
0.1518
-0.151737
-1.57903
1.57896
0.150461
-0.148591
-1.28928
1.28741
0.146956
-0.145114
-1.064
1.06216
0.142584
-0.136806
-0.871397
0.865619
0.126884
-0.11041
-0.655903
0.639429
0.090936
-0.06799
-0.397857
0.374911
0.0485708
-0.0312587
-0.177631
0.160319
0.0194648
-0.0105337
-0.0544955
0.0455644
0.00521045
-0.00184922
-0.00663145
0.00327023
0.000375226
0.00164915
-0.00202438
-0.0839645
0.081029
0.00293549
-0.00117146
-0.0040471
-0.391908
0.397127
0.0112085
-0.0174701
-0.552242
0.558504
0.0238475
-0.03095
-0.685542
0.692644
0.0397624
-0.0480879
-0.807141
0.815467
0.0572621
-0.0654738
-0.932816
0.941027
0.0739755
-0.0816516
-1.07636
1.08404
0.0896937
-0.0964147
-1.24003
1.24676
0.102708
-0.107417
-1.42599
1.4307
0.111378
-0.113412
-1.63786
1.6399
0.113546
-0.112351
-1.57834
1.57714
0.110203
-0.107579
-1.28505
1.28243
0.104804
-0.101876
-1.05762
1.05469
0.0984536
-0.0924498
-0.855891
0.849887
0.0833063
-0.0694547
-0.620113
0.606261
0.054851
-0.0392812
-0.350527
0.334958
0.0275575
-0.0179072
-0.142847
0.133196
0.0114915
-0.00658566
-0.0366586
0.0317527
0.00347907
-0.00135336
0.000356897
-0.0024826
0.00031748
0.00263408
-0.00295156
-0.0826872
0.0798244
0.00286274
-0.00511202
0.00253041
-0.405868
0.408449
0.00210376
-0.00682211
-0.567844
0.572563
0.0121703
-0.0181093
-0.701228
0.707167
0.0256533
-0.0327747
-0.823081
0.830203
0.0405793
-0.0475883
-0.948633
0.955642
0.0552273
-0.061699
-1.09124
1.09771
0.0686455
-0.0739729
-1.25302
1.25834
0.0792404
-0.0830306
-1.43512
1.43891
0.0858047
-0.086569
-1.64146
1.64222
0.0858812
-0.0839132
-1.57535
1.57339
0.0810878
-0.0773412
-1.27927
1.27552
0.0738048
-0.0698727
-1.04955
1.04562
0.0655233
-0.0598212
-0.839659
0.833957
0.0518101
-0.0413054
-0.58991
0.579405
0.0313622
-0.0220542
-0.318483
0.309175
0.0156975
-0.0107482
-0.122899
0.117949
0.00740271
-0.00468008
-0.0262905
0.0235679
0.0027188
-0.00118344
0.00507103
-0.00660639
0.000320225
0.00347715
-0.00379738
-0.0810904
0.0785345
0.00255593
-0.00648361
0.00555788
-0.415176
0.416102
-0.00210314
-0.00139103
-0.580296
0.58379
0.00563167
-0.0109759
-0.714371
0.719715
0.0172881
-0.0235106
-0.836561
0.842783
0.0302284
-0.0362759
-0.962138
0.968186
0.0427775
-0.0484581
-1.104
1.10968
0.0542554
-0.0589904
-1.26347
1.2682
0.063323
-0.0662753
-1.44224
1.44519
0.0681334
-0.0680602
-1.64271
1.64264
0.0665712
-0.0636097
-1.57059
1.56763
0.0601095
-0.0557606
-1.2714
1.26705
0.0514949
-0.0465491
-1.03994
1.035
0.0417013
-0.0360208
-0.824004
0.818324
0.0294845
-0.0217676
-0.566657
0.55894
0.0155254
-0.0106166
-0.298593
0.293684
0.00773668
-0.00580022
-0.112098
0.110161
0.00446005
-0.00318769
-0.0202067
0.0189343
0.00207196
-0.00100692
0.00852836
-0.0095934
0.000311074
0.00426554
-0.00457661
-0.0795562
0.0773467
0.00220951
-0.0065609
0.00619956
-0.421483
0.421844
-0.00416718
0.00135578
-0.589848
0.59266
0.00273893
-0.00728665
-0.72544
0.729987
0.0126635
-0.0180154
-0.848156
0.853508
0.0239251
-0.0292733
-0.973828
0.979176
0.0351411
-0.0400394
-1.11503
1.11993
0.0451255
-0.0492298
-1.27257
1.27668
0.0528267
-0.0551119
-1.44777
1.45005
0.0562096
-0.0558188
-1.64233
1.64194
0.0536329
-0.0501552
-1.56403
1.56055
0.0460559
-0.0410582
-1.2622
1.25721
0.0364356
-0.0307385
-1.02887
1.02318
0.0254026
-0.0198485
-0.808997
0.803443
0.0142996
-0.00858044
-0.549282
0.543563
0.00482218
-0.00265805
-0.287033
0.284869
0.00204608
-0.00192206
-0.106946
0.106822
0.00182738
-0.0016411
-0.017103
0.0169167
0.001259
-0.000713682
0.0108623
-0.0114076
0.000253964
0.00495117
-0.00520513
-0.078322
0.0765722
0.00174984
-0.00581705
0.00584996
-0.426053
0.42602
-0.00421632
0.00213947
-0.598108
0.600184
0.00164955
-0.00573924
-0.73495
0.739039
0.0107729
-0.01533
-0.858434
0.862991
0.0204584
-0.0251358
-0.984441
0.989119
0.0306046
-0.0349512
-1.1248
1.12915
0.039342
-0.0430523
-1.28053
1.28424
0.0465329
-0.0483565
-1.45224
1.45407
0.0490924
-0.0481487
-1.64101
1.64006
0.0458249
-0.041651
-1.55667
1.5525
0.0373253
-0.032049
-1.25176
1.24648
0.0268758
-0.0209433
-1.0167
1.01077
0.015248
-0.00944694
-0.794586
0.788785
0.00478061
-0.000302679
-0.535716
0.531238
-0.00209933
0.00264849
-0.280497
0.279948
-0.0022102
0.00138059
-0.10558
0.10641
-0.000628472
-3.0223e-05
-0.0163256
0.0169843
0.000320625
-0.000318411
0.0120064
-0.0120086
0.000155285
0.00544036
-0.00559565
-0.077568
0.0761802
0.00138777
-0.00481639
0.00503851
-0.429546
0.429324
-0.00359543
0.00166019
-0.605193
0.607128
0.00188572
-0.0055307
-0.743391
0.747036
0.00978449
-0.0141114
-0.86749
0.871817
0.0187783
-0.0235179
-0.993546
0.998286
0.0281343
-0.0321729
-1.13355
1.13759
0.036537
-0.0398341
-1.28775
1.29104
0.0425939
-0.0445675
-1.45569
1.45767
0.0451204
-0.0440605
-1.63905
1.63799
0.0414242
-0.0372906
-1.54835
1.54421
0.0327774
-0.0272437
-1.24063
1.2351
0.0219165
-0.0157332
-1.00408
0.997897
0.00991275
-0.00420602
-0.780595
0.774889
-0.00031337
0.00398863
-0.524463
0.520788
-0.00572657
0.00582063
-0.276851
0.276757
-0.00495201
0.00361149
-0.106155
0.107495
-0.00242918
0.0012633
-0.0172646
0.0184305
-0.000520681
7.79431e-05
0.0119793
-0.0115366
3.86664e-05
0.00566678
-0.00570544
-0.0773447
0.0761726
0.001172
-0.00356149
0.00357491
-0.432566
0.432552
-0.00237787
0.000503497
-0.611594
0.613468
0.00276204
-0.00625046
-0.75115
0.754639
0.0102728
-0.0141368
-0.875938
0.879802
0.0188559
-0.0227125
-1.00238
1.00624
0.0272031
-0.0309646
-1.14174
1.1455
0.0350765
-0.0384172
-1.29425
1.29759
0.0412792
-0.0428157
-1.4593
1.46084
0.0434204
-0.042422
-1.63673
1.63573
0.040049
-0.0357867
-1.5398
1.53554
0.0313134
-0.0257585
-1.22948
1.22393
0.0204396
-0.0141671
-0.991054
0.984781
0.00842857
-0.00249435
-0.767126
0.761192
-0.0018481
0.00522909
-0.514577
0.511196
-0.00695334
0.00699271
-0.274269
0.27423
-0.00615961
0.00476553
-0.107606
0.109
-0.00347215
0.00208117
-0.0191922
0.0205831
-0.00108823
0.000361727
0.0110789
-0.0103523
-5.59642e-05
0.00564261
-0.00558665
-0.0774087
0.0765684
0.000840321
-0.00241672
0.00196402
-0.435597
0.43605
-0.00095809
-0.000976494
-0.617191
0.619126
0.00389058
-0.0072157
-0.758299
0.761624
0.0110274
-0.0149803
-0.883535
0.887487
0.0190143
-0.0229777
-1.01027
1.01423
0.0273531
-0.0308186
-1.14964
1.15311
0.034922
-0.0381062
-1.30066
1.30385
0.0408704
-0.0427757
-1.46271
1.46462
0.0436449
-0.0426737
-1.63466
1.63369
0.0402399
-0.0363925
-1.53134
1.52749
0.0322007
-0.0267382
-1.21812
1.21266
0.021434
-0.0154899
-0.978138
0.972194
0.00949322
-0.00371271
-0.753751
0.74797
-0.000741868
0.00418943
-0.505377
0.50193
-0.00593328
0.00651766
-0.271779
0.271195
-0.00610387
0.00509111
-0.109192
0.110204
-0.00390165
0.00252671
-0.0214833
0.0228583
-0.00144795
0.000573528
0.00966551
-0.00879109
-0.000132573
0.00542968
-0.00529711
-0.0778902
0.0772232
0.000667034
-0.00143707
0.00102111
-0.438804
0.43922
0.000496905
-0.00227436
-0.622821
0.624599
0.00534292
-0.00851739
-0.764879
0.768053
0.0121539
-0.0156694
-0.891108
0.894624
0.0197892
-0.0233886
-1.01816
1.02176
0.0276535
-0.0315053
-1.157
1.16085
0.0351628
-0.0385935
-1.30703
1.31046
0.0416762
-0.0435474
-1.46635
1.46822
0.0446218
-0.0442367
-1.63286
1.63247
0.0420509
-0.0386146
-1.52342
1.51998
0.0344616
-0.0293009
-1.20716
1.202
0.0243063
-0.0184254
-0.965639
0.959758
0.0127458
-0.00693116
-0.74077
0.734955
0.00227128
0.00154765
-0.495975
0.492156
-0.00367388
0.00468869
-0.268636
0.267621
-0.00488438
0.00435287
-0.110054
0.110586
-0.00352312
0.00242774
-0.0236411
0.0247365
-0.00147975
0.000640415
0.00803606
-0.00719673
-0.000171532
0.00508542
-0.00491389
-0.0786733
0.0781862
0.000487102
-0.000351613
-0.000249119
-0.442155
0.442756
0.00162765
-0.00370827
-0.628026
0.630107
0.00669925
-0.00970555
-0.771171
0.774177
0.0134187
-0.0167648
-0.898115
0.901461
0.0206948
-0.0243846
-1.02581
1.0295
0.0285154
-0.0322869
-1.16451
1.16828
0.0361132
-0.0395128
-1.31376
1.31716
0.042701
-0.0452401
-1.47032
1.47286
0.0466344
-0.0464081
-1.63195
1.63172
0.0447583
-0.0414886
-1.51636
1.51309
0.0377728
-0.0330726
-1.19673
1.19203
0.0280874
-0.0224166
-0.953481
0.94781
0.0169101
-0.0110026
-0.728063
0.722155
0.00623219
-0.00194338
-0.486423
0.482134
-0.000623467
0.00229314
-0.264567
0.262898
-0.00297978
0.00300545
-0.109912
0.109886
-0.00266011
0.00196725
-0.0252018
0.0258946
-0.00127022
0.000586986
0.00654264
-0.00585941
-0.000165876
0.00469433
-0.00452846
-0.0797014
0.0793423
0.000359109
0.000523825
-0.00124877