/*--------------------------------*- C++ -*----------------------------------*\
  =========                 |
  \\      /  F ield         | OpenFOAM: The Open Source CFD Toolbox
   \\    /   O peration     | Website:  https://openfoam.org
    \\  /    A nd           | Version:  6
     \\/     M anipulation  |
\*---------------------------------------------------------------------------*/
FoamFile
{
    version     2.0;
    format      ascii;
    class       surfaceScalarField;
    location    "11.3";
    object      phi;
}
// * * * * * * * * * * * * * * * * * * * * * * * * * * * * * * * * * * * * * //

dimensions      [0 3 -1 0 0 0 0];

internalField   nonuniform List<scalar> 
17370
(
-0.0899826
0.0898152
0.289178
-0.0714094
0.0536674
0.364518
-0.0379803
0.0274702
0.426678
-0.0193321
0.0142554
0.504328
-0.0104212
0.00799237
0.601831
-0.0060961
0.00479339
0.72036
-0.00367855
0.00287158
0.863713
-0.0021499
0.00160425
1.036
-0.0010952
0.000691292
1.24291
-0.000305585
-4.81411e-05
1.49154
0.000387671
-0.000786027
1.49159
0.00119096
-0.00169672
1.2432
0.00223779
-0.00295295
1.03635
0.00375231
-0.00485705
0.864011
0.00615178
-0.00804032
0.720946
0.0104633
-0.0142917
0.603043
0.0193649
-0.0275001
0.507574
0.0380074
-0.0536902
0.431851
0.0714275
-0.0898271
0.365175
0.0899897
0.199021
-0.128186
0.0883839
0.0398026
-0.36464
0.353522
-0.0743982
0.0855162
-0.446442
0.454261
-0.0839363
0.076118
-0.52124
0.529769
-0.0681567
0.0596287
-0.612834
0.621615
-0.0515473
0.042767
-0.726887
0.734257
-0.0352082
0.0278376
-0.867349
0.87253
-0.0221239
0.0169425
-1.0384
1.0418
-0.0131093
0.00971256
-1.24461
1.24689
-0.0071902
0.0049092
-1.49276
1.49455
-0.00310928
0.0013201
-1.49248
1.49407
0.000236338
-0.00183121
-1.24402
1.24579
0.00359538
-0.00536935
-1.03745
1.03994
0.00761643
-0.0101011
-0.86597
0.869769
0.0134545
-0.0172537
-0.724292
0.729983
0.0224045
-0.0280959
-0.608733
0.616273
0.035445
-0.0429856
-0.514982
0.523039
0.0517403
-0.059797
-0.439871
0.447813
0.0682977
-0.0762393
-0.375279
0.376837
0.0840415
-0.0855989
-0.2574
0.22277
0.0744545
-0.039824
-0.0688309
0.0591149
0.00971596
-0.0511654
0.0575436
-0.37437
0.367992
-0.0563149
0.052229
-0.453556
0.457642
-0.0468521
0.0427374
-0.527876
0.53199
-0.0388408
0.0352073
-0.621546
0.62518
-0.0311734
0.0272363
-0.735292
0.739229
-0.0229183
0.0190448
-0.874137
0.87801
-0.0151096
0.0117695
-1.0432
1.04654
-0.00843543
0.00555834
-1.24824
1.25112
-0.00249313
-0.000485417
-1.49638
1.49936
0.00342065
-0.00644584
-1.49691
1.49993
0.00928696
-0.0125751
-1.2498
1.25308
0.0158666
-0.0197413
-1.04574
1.04962
0.0235488
-0.0277959
-0.877723
0.881971
0.0316738
-0.0356571
-0.739998
0.743981
0.0392609
-0.0431132
-0.626839
0.630691
0.0471861
-0.0525231
-0.53481
0.540147
0.0565644
-0.0577444
-0.457705
0.458885
0.0513174
-0.0315116
-0.336318
0.316512
0.00974098
-0.0687598
0.0590188
-0.0535407
0.0498561
0.00368465
-0.0310278
0.0409081
-0.358857
0.348977
-0.0444285
0.0439216
-0.459686
0.460193
-0.0410953
0.0378628
-0.535992
0.539224
-0.0341497
0.0310153
-0.628536
0.631671
-0.0278207
0.0249945
-0.742269
0.745095
-0.0219737
0.0191255
-0.881271
0.884119
-0.0158939
0.0128181
-1.04983
1.0529
-0.00937421
0.0061849
-1.25425
1.25744
-0.00266322
-0.000650005
-1.50261
1.50593
0.00395416
-0.00744862
-1.50331
1.5068
0.0105811
-0.0139504
-1.25647
1.25984
0.0169496
-0.020091
-1.05316
1.0563
0.0228691
-0.0258159
-0.885246
0.888193
0.0285628
-0.0316737
-0.747281
0.750392
0.0347292
-0.0383765
-0.634591
0.638238
0.0415545
-0.0443197
-0.544665
0.547431
0.0447695
-0.041176
-0.457359
0.453765
0.0312127
-0.0149797
-0.297822
0.281589
0.00371209
-0.0534189
0.0497069
-0.0471172
0.0449457
0.00217145
-0.0201494
0.0293332
-0.339299
0.330115
-0.034278
0.0349875
-0.459883
0.459173
-0.033841
0.0319557
-0.541506
0.543392
-0.0298108
0.027622
-0.634306
0.636495
-0.0250037
0.0225583
-0.747854
0.7503
-0.0197391
0.0171897
-0.886864
0.889414
-0.014344
0.0116941
-1.05574
1.05839
-0.00866135
0.00576486
-1.26051
1.26341
-0.00236818
-0.000970107
-1.50925
1.51258
0.00428427
-0.00761052
-1.51025
1.51358
0.0104135
-0.0133242
-1.26301
1.26592
0.0158508
-0.0185548
-1.05922
1.06192
0.0209791
-0.0236693
-0.891146
0.893836
0.0260123
-0.0285286
-0.753278
0.755794
0.0306103
-0.0326473
-0.641014
0.643051
0.0344612
-0.0355293
-0.549049
0.550117
0.0347395
-0.02968
-0.4492
0.44414
0.0203765
-0.00879027
-0.267832
0.256245
0.00220712
-0.0469336
0.0447265
-0.0432828
0.0421755
0.00110731
-0.0110259
0.0179463
-0.321816
0.314896
-0.0232287
0.0251388
-0.457943
0.456033
-0.0250814
0.0240017
-0.545021
0.5461
-0.022556
0.0211747
-0.638142
0.639524
-0.0197764
0.0184337
-0.752318
0.753661
-0.0167631
0.0149205
-0.891671
0.893514
-0.0126449
0.0103666
-1.06086
1.06314
-0.00768258
0.00503533
-1.26616
1.26881
-0.0018927
-0.00125283
-1.51585
1.519
0.00435683
-0.00739964
-1.51676
1.5198
0.00994228
-0.0124972
-1.26864
1.2712
0.0146394
-0.0167585
-1.0644
1.06652
0.0184353
-0.0199036
-0.896047
0.897516
0.0210832
-0.0223457
-0.757664
0.758926
0.023631
-0.0249655
-0.644659
0.645993
0.0259271
-0.0258422
-0.550705
0.55062
0.023794
-0.018352
-0.438729
0.433287
0.0112911
-0.00449647
-0.246973
0.240179
0.00115106
-0.0430266
0.0418755
-0.0415757
0.0412992
0.000276462
-0.00445326
0.00850916
-0.309539
0.305483
-0.0127284
0.0151328
-0.453723
0.451319
-0.0161327
0.0162359
-0.546549
0.546446
-0.0159442
0.0155864
-0.640526
0.640883
-0.014866
0.0140143
-0.754615
0.755467
-0.0129052
0.0117415
-0.894846
0.896009
-0.0102014
0.00851396
-1.06505
1.06674
-0.00633188
0.00404801
-1.27127
1.27355
-0.00125524
-0.00152462
-1.52198
1.52476
0.00427803
-0.00696926
-1.52268
1.52537
0.00910643
-0.0110892
-1.27342
1.27541
0.0125797
-0.0139023
-1.06808
1.0694
0.014887
-0.0158256
-0.898525
0.899463
0.0165479
-0.0170468
-0.759921
0.76042
0.0172274
-0.0173509
-0.646814
0.646938
0.0171117
-0.0159614
-0.549917
0.548767
0.013406
-0.00900693
-0.428282
0.423882
0.00478466
-0.00161206
-0.235543
0.232371
0.000330293
-0.0412272
0.0408969
-0.041171
0.0411171
5.39399e-05
-0.0021411
0.00478163
-0.302295
0.299655
-0.00829045
0.010984
-0.448833
0.44614
-0.0128913
0.0139295
-0.545856
0.544817
-0.014466
0.0146257
-0.640826
0.640666
-0.014509
0.0139403
-0.756129
0.756698
-0.0129527
0.0117438
-0.897242
0.898451
-0.0100743
0.00825681
-1.06847
1.07029
-0.00595865
0.00360553
-1.27581
1.27816
-0.000778877
-0.00199364
-1.52744
1.53021
0.00472597
-0.00742724
-1.52799
1.53069
0.00960778
-0.0116788
-1.27741
1.27948
0.0132729
-0.0146809
-1.07081
1.07222
0.0156418
-0.0163227
-0.900333
0.901014
0.0165608
-0.0164699
-0.760417
0.760326
0.016122
-0.0153999
-0.646526
0.645804
0.0141695
-0.0120473
-0.54716
0.545038
0.00914415
-0.00539666
-0.419923
0.416175
0.0025452
-0.000749037
-0.230052
0.228256
0.000118817
-0.0407091
0.0405903
-0.0411041
0.0410995
4.60255e-06
-0.00122773
0.0031855
-0.297387
0.29543
-0.0064431
0.00966046
-0.443158
0.439941
-0.0126288
0.0145785
-0.543346
0.541397
-0.0156056
0.0159656
-0.640439
0.640079
-0.0157915
0.0152217
-0.757232
0.757802
-0.014187
0.0128502
-0.899658
0.900994
-0.0109864
0.00894022
-1.07219
1.07423
-0.00634654
0.00368372
-1.28067
1.28333
-0.000486956
-0.00266124
-1.53316
1.53631
0.00574855
-0.00876746
-1.53354
1.53656
0.011195
-0.0134814
-1.28163
1.28392
0.0152145
-0.0167213
-1.07362
1.07512
0.0177313
-0.0184483
-0.901677
0.902394
0.0187376
-0.0184793
-0.760206
0.759948
0.0178778
-0.016525
-0.644816
0.643463
0.0142815
-0.011003
-0.542345
0.539067
0.00750391
-0.00394476
-0.41251
0.40895
0.00172682
-0.000501698
-0.2268
0.225575
8.51281e-05
-0.0405052
0.04042
-0.041095
0.0411015
-6.55384e-06
-0.000629665
0.00191081
-0.293792
0.292511
-0.00444705
0.00746132
-0.436689
0.433675
-0.0108367
0.0134263
-0.539034
0.536444
-0.0153828
0.0161019
-0.639655
0.638936
-0.0161638
0.0157582
-0.758283
0.758689
-0.0146606
0.0131887
-0.902446
0.903918
-0.0111374
0.00892496
-1.07642
1.07863
-0.00615215
0.00333209
-1.28612
1.28894
8.4261e-05
-0.0034943
-1.53965
1.54306
0.00683635
-0.0100364
-1.53972
1.54292
0.0125504
-0.0148898
-1.28629
1.28863
0.0166541
-0.0181823
-1.07671
1.07824
0.019134
-0.0196246
-0.903048
0.903538
0.0196274
-0.0193147
-0.759677
0.759365
0.0181333
-0.0157679
-0.64158
0.639215
0.0128264
-0.00907645
-0.535385
0.531635
0.00573072
-0.0028405
-0.405643
0.402753
0.00124812
-0.00040725
-0.224543
0.223702
9.32406e-05
-0.040325
0.0402318
-0.0411304
0.0411835
-5.31653e-05
-2.40657e-05
0.000610417
-0.2916
0.291014
-0.00203856
0.00400033
-0.43113
0.429168
-0.00648952
0.00859988
-0.533954
0.531844
-0.0104347
0.0115827
-0.637772
0.636624
-0.0120904
0.0119204
-0.759097
0.759267
-0.0112136
0.010124
-0.905276
0.906365
-0.00848427
0.00661871
-1.08073
1.08259
-0.0041954
0.00167057
-1.29167
1.29419
0.00140829
-0.00445238
-1.54637
1.54941
0.00738877
-0.0101543
-1.54598
1.54875
0.0122593
-0.0141482
-1.29081
1.2927
0.015489
-0.0165162
-1.07959
1.08062
0.0170572
-0.0172166
-0.903983
0.904142
0.016823
-0.0156263
-0.758537
0.75734
0.0139658
-0.0115744
-0.636663
0.634271
0.00900238
-0.00604261
-0.528164
0.525204
0.00366866
-0.00179657
-0.400373
0.398501
0.000816022
-0.000289276
-0.223038
0.222511
7.33473e-05
-0.0401493
0.040076
-0.0412563
0.0413445
-8.82006e-05
0.000331498
-0.000229248
-0.290694
0.290591
-0.000342605
0.00128741
-0.42776
0.426816
-0.00262033
0.0038552
-0.530172
0.528937
-0.00501894
0.00579713
-0.635645
0.634867
-0.00627384
0.00634687
-0.759258
0.759185
-0.00602196
0.00536583
-0.90721
0.907866
-0.00425726
0.00291066
-1.08419
1.08554
-0.00108762
-0.000855755
-1.29644
1.29838
0.00323726
-0.00556313
-1.55211
1.55444
0.00775376
-0.00974052
-1.55114
1.55313
0.0111901
-0.0123282
-1.29421
1.29535
0.0129659
-0.0132884
-1.08128
1.0816
0.0132128
-0.012748
-0.903928
0.903463
0.0119745
-0.010755
-0.756092
0.754872
0.00935107
-0.00754082
-0.632167
0.630356
0.00575268
-0.00384678
-0.522803
0.520897
0.00239674
-0.00127258
-0.397056
0.395932
0.0006506
-0.000264366
-0.222074
0.221688
7.43407e-05
-0.0400049
0.0399306
-0.0414451
0.0415585
-0.000113445
0.000599739
-0.000735369
-0.290622
0.290758
0.000691287
-0.000407061
-0.426245
0.425961
-0.000100843
0.000612616
-0.528096
0.527584
-0.00111561
0.00145592
-0.634307
0.633967
-0.00164744
0.00162894
-0.759132
0.75915
-0.00136755
0.00089351
-0.908399
0.908873
-0.000101717
-0.000865562
-1.08667
1.08764
0.0021821
-0.00358505
-1.30004
1.30144
0.00528861
-0.00690691
-1.55639
1.55801
0.00836211
-0.00956658
-1.5547
1.5559
0.0102941
-0.0107565
-1.29615
1.29661
0.0109018
-0.010725
-1.08164
1.08147
0.0103013
-0.00959215
-0.902844
0.902134
0.00875023
-0.00765877
-0.753709
0.752618
0.00654459
-0.00524419
-0.628823
0.627523
0.00405081
-0.00283543
-0.519388
0.518173
0.00191286
-0.0011538
-0.39503
0.394271
0.000668312
-0.000302109
-0.221323
0.220957
9.11799e-05
-0.0398493
0.0397582
-0.0416846
0.0418229
-0.000138388
0.000796932
-0.00112998
-0.291003
0.291336
0.00137242
-0.00147399
-0.425896
0.425997
0.00147753
-0.00144943
-0.527341
0.527313
0.00144007
-0.00148793
-0.633832
0.63388
0.00162998
-0.00186276
-0.75927
0.759502
0.002253
-0.00274829
-0.909339
0.909835
0.0034561
-0.00425209
-1.0885
1.08929
0.00527769
-0.00632282
-1.30264
1.30368
0.00753548
-0.00862314
-1.55934
1.56043
0.00950785
-0.0101335
-1.55681
1.55744
0.0103989
-0.0103643
-1.29677
1.29674
0.0100863
-0.00956551
-1.0811
1.08058
0.00893844
-0.00811572
-0.901363
0.900541
0.00727806
-0.00630082
-0.751593
0.750616
0.00538215
-0.00437871
-0.626399
0.625395
0.00349755
-0.00260993
-0.517159
0.516271
0.00190717
-0.00126616
-0.393593
0.392952
0.00078964
-0.000376923
-0.220573
0.22016
0.000117986
-0.0396546
0.0395366
-0.0419795
0.0421534
-0.00017392
0.00103627
-0.00151756
-0.291741
0.292223
0.00198752
-0.00234438
-0.426231
0.426588
0.00267562
-0.00296985
-0.527456
0.527751
0.00331478
-0.00367091
-0.634089
0.634446
0.004119
-0.00459252
-0.759855
0.760329
0.00519217
-0.00582032
-0.910387
0.911015
0.00659904
-0.00738515
-1.09007
1.09085
0.00830966
-0.0091756
-1.30462
1.30549
0.0100893
-0.0108077
-1.56131
1.56203
0.0112728
-0.0114265
-1.5578
1.55796
0.0112852
-0.0109225
-1.29655
1.29619
0.0103835
-0.00964587
-1.07995
1.07921
0.00887128
-0.00795851
-0.899674
0.898761
0.00709563
-0.00614519
-0.749664
0.748713
0.00529249
-0.00439294
-0.624465
0.623565
0.0036167
-0.00282669
-0.515454
0.514664
0.00216755
-0.00151157
-0.392316
0.39166
0.000974925
-0.000476393
-0.219709
0.219211
0.000151524
-0.0394028
0.0392513
-0.0423521
0.0425716
-0.000219489
0.00132862
-0.0019737
-0.292782
0.293427
0.002649
-0.00322003
-0.427045
0.427616
0.0038135
-0.00436331
-0.528172
0.528722
0.00499895
-0.00562196
-0.63494
0.635563
0.00635656
-0.00707972
-0.76093
0.761653
0.00792934
-0.00875431
-0.911736
0.912561
0.00970073
-0.0105849
-1.09168
1.09256
0.0115427
-0.0123609
-1.30631
1.30713
0.0131242
-0.0136078
-1.56262
1.5631
0.0137755
-0.0135939
-1.55794
1.55775
0.0131628
-0.0124688
-1.29564
1.29495
0.0116913
-0.0107307
-1.07836
1.0774
0.0097975
-0.00875069
-0.897788
0.896741
0.00779768
-0.00677825
-0.74774
0.746721
0.0058834
-0.00495283
-0.622666
0.621736
0.00415252
-0.00332678
-0.513872
0.513046
0.00261161
-0.00186229
-0.390967
0.390218
0.00121874
-0.000601446
-0.218657
0.21804
0.000192619
-0.0390809
0.0388882
-0.0428244
0.043105
-0.000280515
0.00170539
-0.00254804
-0.294163
0.295006
0.00345403
-0.00424665
-0.428279
0.429072
0.00509252
-0.00588272
-0.529389
0.530179
0.00679285
-0.0076757
-0.636329
0.637212
0.00870243
-0.00969582
-0.762517
0.763511
0.0108364
-0.0119124
-0.913501
0.914577
0.0131026
-0.0141664
-1.09352
1.09458
0.0152563
-0.0161213
-1.30796
1.30882
0.0168375
-0.0171757
-1.5635
1.56384
0.0171148
-0.0166424
-1.55742
1.55695
0.0159315
-0.0149378
-1.29411
1.29311
0.0139042
-0.0126894
-1.07632
1.0751
0.0115495
-0.010302
-0.895598
0.89435
0.00918768
-0.00801158
-0.745632
0.744456
0.00698831
-0.00592889
-0.620757
0.619697
0.0050164
-0.00406562
-0.512176
0.511225
0.00322533
-0.00232238
-0.389402
0.388499
0.00152949
-0.00075805
-0.217352
0.216581
0.00024364
-0.0386736
0.0384299
-0.0434281
0.0437922
-0.000364056
0.00220416
-0.00329713
-0.295958
0.297051
0.00448156
-0.00552419
-0.429964
0.431007
0.0066352
-0.0076728
-0.531115
0.532153
0.00886888
-0.0100333
-0.638276
0.63944
0.01139
-0.012701
-0.764672
0.765983
0.0141964
-0.0155901
-0.915782
0.917175
0.0171047
-0.0184255
-1.09573
1.09705
0.0197319
-0.0207173
-1.30972
1.3107
0.0214592
-0.0217049
-1.56412
1.56436
0.0214474
-0.0206912
-1.55633
1.55558
0.0196891
-0.018362
-1.29195
1.29063
0.0170276
-0.0154982
-1.07373
1.0722
0.0140885
-0.0125662
-0.892961
0.891439
0.0112195
-0.0098067
-0.743164
0.741751
0.00858057
-0.00731028
-0.618554
0.617284
0.00621189
-0.00505904
-0.510205
0.509052
0.00403028
-0.00291316
-0.387506
0.386388
0.00192409
-0.000955945
-0.215722
0.214754
0.000308382
-0.0381625
0.0378542
-0.0442076
0.0446838
-0.000476147
0.00286127
-0.00427221
-0.298281
0.299692
0.00579346
-0.00711975
-0.432192
0.433518
0.00852863
-0.00984295
-0.533425
0.534739
0.0113699
-0.0128851
-0.640855
0.642371
0.0146711
-0.0164026
-0.767482
0.769213
0.0183641
-0.0201593
-0.918697
0.920492
0.0220631
-0.0236987
-1.09846
1.10009
0.0252918
-0.0264551
-1.31172
1.31289
0.0272693
-0.0274437
-1.56455
1.56472
0.0269851
-0.0259136
-1.55466
1.55358
0.0245746
-0.0228526
-1.2891
1.28738
0.021151
-0.0192272
-1.07046
1.06854
0.017473
-0.0155949
-0.889715
0.887836
0.0139436
-0.012217
-0.740167
0.73844
0.0107183
-0.00916001
-0.615898
0.61434
0.00780346
-0.00636756
-0.507821
0.506385
0.00507832
-0.00367325
-0.385165
0.38376
0.00242918
-0.00120945
-0.213683
0.212463
0.000392356
-0.0375255
0.0371331
-0.0452254
0.0458493
-0.000623869
0.00372131
-0.00553892
-0.301293
0.303111
0.00747934
-0.00915031
-0.435096
0.436767
0.010905
-0.0125542
-0.536451
0.5381
0.0144988
-0.0164647
-0.644199
0.646165
0.0188176
-0.0210928
-0.771081
0.773356
0.0236437
-0.02595
-0.922381
0.924687
0.0283676
-0.0304008
-1.10183
1.10387
0.0323473
-0.0337284
-1.31407
1.31545
0.0346297
-0.0347175
-1.5648
1.56489
0.0340151
-0.032559
-1.5523
1.55085
0.0308064
-0.0285966
-1.2854
1.28319
0.0264386
-0.0240203
-1.06634
1.06392
0.0218315
-0.0195041
-0.885673
0.883345
0.0174696
-0.0153505
-0.73646
0.73434
0.0135115
-0.0115913
-0.612625
0.610705
0.00990371
-0.00809451
-0.504882
0.503073
0.00645515
-0.00466218
-0.382257
0.380464
0.00308187
-0.00153608
-0.211136
0.20959
0.000501375
-0.0367349
0.0362335
-0.0465698
0.0473957
-0.00082585
0.00487797
-0.00724116
-0.305212
0.307575
0.00974496
-0.0118789
-0.438857
0.440991
0.0140989
-0.016196
-0.540373
0.54247
0.0186966
-0.0212436
-0.648508
0.651055
0.024304
-0.0272392
-0.775688
0.778624
0.0304992
-0.0334292
-0.927035
0.929965
0.0364833
-0.0390254
-1.10597
1.10851
0.0413841
-0.0429946
-1.31682
1.31843
0.0439575
-0.0439004
-1.56484
1.56478
0.0428694
-0.0409206
-1.54912
1.54717
0.0386468
-0.0358251
-1.28066
1.27784
0.0330957
-0.0300566
-1.06115
1.05811
0.0273206
-0.0244276
-0.880624
0.877731
0.0219137
-0.0193111
-0.731842
0.729239
0.0170595
-0.0147059
-0.608549
0.606195
0.0126188
-0.0103474
-0.501223
0.498952
0.00825889
-0.00595422
-0.378632
0.376327
0.0039167
-0.00194409
-0.207959
0.205986
0.000634663
-0.035755
0.0351203
-0.0483615
0.0494961
-0.00113463
0.00658027
-0.0097255
-0.310325
0.31347
0.0130022
-0.0157467
-0.443732
0.446476
0.0185729
-0.0212768
-0.545441
0.548145
0.024549
-0.0278875
-0.654034
0.657372
0.0318371
-0.0355826
-0.781573
0.785318
0.0397036
-0.0433492
-0.932877
0.936522
0.0470942
-0.050143
-1.11105
1.1141
0.052905
-0.0547143
-1.32
1.32181
0.0556707
-0.0553674
-1.56453
1.56423
0.0538821
-0.0512957
-1.54488
1.54229
0.0483647
-0.0447806
-1.27462
1.27104
0.0413417
-0.03753
-1.05463
1.05082
0.034108
-0.0305005
-0.874326
0.870719
0.0273785
-0.0241657
-0.72609
0.722877
0.0214026
-0.0185257
-0.60346
0.600583
0.0159645
-0.0131464
-0.49664
0.493822
0.010512
-0.00756416
-0.374093
0.371145
0.00497115
-0.00244639
-0.203996
0.201471
0.000792157
-0.0345373
0.0337451
-0.0507866
0.0524254
-0.00163879
0.0092561
-0.0135233
-0.317073
0.32134
0.0178064
-0.0213175
-0.450133
0.453644
0.0249234
-0.0284313
-0.552054
0.555562
0.0327144
-0.0370511
-0.661155
0.665492
0.0421135
-0.0468197
-0.789044
0.79375
0.0519029
-0.0563325
-0.940142
0.944571
0.0608083
-0.0643776
-1.11713
1.1207
0.0675104
-0.0694386
-1.32349
1.32542
0.0702527
-0.0695448
-1.56362
1.56291
0.067435
-0.0640317
-1.53926
1.53586
0.0602878
-0.0557775
-1.26698
1.26247
0.0514814
-0.046735
-1.04649
1.04175
0.0424767
-0.0379851
-0.866501
0.862009
0.034098
-0.0301083
-0.71895
0.714961
0.0266923
-0.0231556
-0.597125
0.593589
0.0200105
-0.0165385
-0.490892
0.48742
0.0132532
-0.00953486
-0.368377
0.364659
0.0062546
-0.00308165
-0.199022
0.195849
0.000991271
-0.0330259
0.0320346
-0.0541726
0.056647
-0.00247439
0.0135367
-0.0194176
-0.326135
0.332016
0.0250539
-0.0296124
-0.45859
0.463149
0.0343342
-0.0389962
-0.560683
0.565345
0.044659
-0.0502617
-0.670338
0.675941
0.0566339
-0.0624157
-0.798486
0.804268
0.0685311
-0.0737472
-0.948993
0.954209
0.0788798
-0.0828331
-1.12415
1.12811
0.0861222
-0.0879385
-1.32707
1.32889
0.0883332
-0.0869636
-1.56174
1.56037
0.0839916
-0.0795546
-1.53188
1.52744
0.0748302
-0.0692299
-1.25739
1.25179
0.0639401
-0.0581161
-1.03642
1.03059
0.0528914
-0.0473677
-0.856833
0.851309
0.0425749
-0.0376491
-0.710118
0.705192
0.0334322
-0.0290787
-0.589258
0.584904
0.025216
-0.0209447
-0.483687
0.479415
0.0168598
-0.012187
-0.361154
0.356481
0.00798266
-0.0038945
-0.192805
0.188716
0.0012386
-0.0311508
0.0299122
-0.0591339
0.0630924
-0.00395847
0.0206253
-0.0288578
-0.33866
0.346893
0.0363504
-0.0423248
-0.469967
0.475942
0.0485627
-0.0547859
-0.572032
0.578255
0.0622419
-0.0693709
-0.682091
0.68922
0.0772096
-0.0841051
-0.810089
0.816985
0.0911802
-0.0970089
-0.959338
0.965167
0.102513
-0.106532
-1.13179
1.13581
0.109585
-0.110919
-1.33025
1.33159
0.110488
-0.108098
-1.55834
1.55595
0.103955
-0.0982248
-1.52227
1.51654
0.0923352
-0.0854849
-1.24552
1.23867
0.0790833
-0.0720703
-1.0241
1.01709
0.0657874
-0.0591334
-0.845024
0.83837
0.0533427
-0.0473626
-0.699271
0.693291
0.042225
-0.0369231
-0.579515
0.574213
0.032215
-0.0269428
-0.474656
0.469383
0.0218044
-0.0158122
-0.352023
0.346031
0.0103548
-0.00502972
-0.184919
0.179594
0.0015803
-0.0288172
0.0272369
-0.0668274
0.0740617
-0.00723431
0.0343712
-0.0464164
-0.356815
0.368861
0.0565511
-0.064215
-0.485455
0.493119
0.0722702
-0.0803091
-0.58685
0.594889
0.0896103
-0.0980769
-0.696698
0.705164
0.106969
-0.114467
-0.823683
0.831181
0.121862
-0.127688
-0.970618
0.976443
0.132902
-0.136385
-1.13926
1.14274
0.138603
-0.138913
-1.33218
1.33249
0.137139
-0.133287
-1.55266
1.54881
0.127619
-0.120321
-1.50991
1.50261
0.113078
-0.104844
-1.23104
1.22281
0.0972401
-0.0889754
-1.00935
1.00109
0.0815963
-0.0737877
-0.830891
0.823082
0.0669744
-0.0599035
-0.686188
0.679117
0.0538032
-0.0475102
-0.56757
0.561277
0.0419177
-0.035531
-0.463312
0.456925
0.0290151
-0.0211748
-0.340232
0.332392
0.0138194
-0.00655119
-0.174728
0.16746
0.00194438
-0.0258832
0.0239388
-0.0811317
0.0843537
-0.00322199
0.0232197
-0.0334541
-0.383924
0.394158
0.0428304
-0.0506334
-0.506126
0.513929
0.0597323
-0.0694913
-0.60485
0.614609
0.0803079
-0.0899515
-0.713245
0.722889
0.10067
-0.110127
-0.837981
0.847438
0.119945
-0.128352
-0.981418
0.989826
0.136704
-0.143383
-1.14519
1.15187
0.149318
-0.153182
-1.33164
1.33551
0.155204
-0.154507
-1.54376
1.54306
0.150954
-0.144933
-1.49426
1.48824
0.137862
-0.128874
-1.21374
1.20475
0.120061
-0.109468
-0.99209
0.981497
0.0997174
-0.0889557
-0.814455
0.803694
0.079286
-0.0689735
-0.670916
0.660604
0.0596601
-0.0501385
-0.553357
0.543835
0.0418526
-0.0323271
-0.4492
0.439675
0.0234451
-0.0142629
-0.324628
0.315446
0.00731034
-0.00232591
-0.160851
0.155866
0.000159181
-0.0221092
0.0219501
-0.0919001
0.0881939
0.00370611
0.00032303
-0.00598925
-0.407484
0.41315
0.0134069
-0.020208
-0.526116
0.532917
0.0289088
-0.0374049
-0.624596
0.633092
0.047121
-0.0559898
-0.732482
0.741351
0.065468
-0.0740584
-0.856482
0.865073
0.0830028
-0.0903989
-0.99802
1.00542
0.097966
-0.103696
-1.15851
1.16424
0.108768
-0.111813
-1.33922
1.34227
0.112836
-0.111452
-1.54168
1.5403
0.107393
-0.101073
-1.48156
1.47524
0.0937157
-0.0846611
-1.19541
1.18636
0.0759408
-0.0659709
-0.970785
0.960815
0.0566289
-0.0462566
-0.792344
0.781972
0.0369488
-0.0273707
-0.64872
0.639142
0.0191485
-0.0106954
-0.531849
0.523396
0.00345701
0.00318966
-0.427867
0.421221
-0.00747901
0.00943208
-0.304857
0.302904
-0.00874035
0.00571784
-0.149127
0.152149
-0.00240553
-0.0203175
0.022723
-0.0905524
0.0867978
0.00375467
-0.0071641
0.00475889
-0.422772
0.425178
-0.000251448
-0.00525033
-0.542933
0.548435
0.0123642
-0.0196079
-0.641834
0.649077
0.0278339
-0.0353819
-0.749702
0.75725
0.0436631
-0.0510478
-0.872991
0.880375
0.058568
-0.0651752
-1.01267
1.01928
0.0717904
-0.0769574
-1.16967
1.17483
0.0811819
-0.0835841
-1.34487
1.34727
0.084404
-0.0828929
-1.53851
1.537
0.0789787
-0.0731181
-1.46869
1.46283
0.0665138
-0.0587013
-1.17763
1.16982
0.0509592
-0.0424812
-0.951054
0.942576
0.0346708
-0.0261664
-0.77231
0.763806
0.0188734
-0.0114253
-0.629394
0.621946
0.00530894
0.000847155
-0.513619
0.507463
-0.00556464
0.00944215
-0.412451
0.408574
-0.0112897
0.0107533
-0.296768
0.297305
-0.00828178
0.00484666
-0.151191
0.154626
-0.00188814
-0.0228916
0.0247798
-0.0877789
0.0842348
0.00354407
-0.00973324
0.00922077
-0.432223
0.432736
-0.00648355
0.00202583
-0.556086
0.560544
0.00413599
-0.0101631
-0.656101
0.662128
0.0171549
-0.0235927
-0.764529
0.770967
0.0306271
-0.036936
-0.887348
0.893657
0.0437416
-0.0493604
-1.0255
1.03112
0.0552296
-0.0594481
-1.17971
1.18393
0.0632614
-0.0654689
-1.34966
1.35187
0.0661538
-0.0646152
-1.5354
1.53386
0.0613355
-0.0564309
-1.45692
1.45201
0.0508814
-0.0440939
-1.16235
1.15557
0.0377765
-0.0309822
-0.934504
0.92771
0.0246794
-0.0181862
-0.756048
0.749555
0.012336
-0.00659965
-0.614389
0.608652
0.00192689
0.00237086
-0.500321
0.496023
-0.00540986
0.0077043
-0.402095
0.3998
-0.00855589
0.00732134
-0.292793
0.294028
-0.005413
0.00307214
-0.153888
0.156229
-0.00121279
-0.0246312
0.025844
-0.0851347
0.0822516
0.0028831
-0.00972231
0.010366
-0.438205
0.437561
-0.00826894
0.00471207
-0.566965
0.570522
0.000300855
-0.00568315
-0.668142
0.673525
0.011541
-0.0171764
-0.777024
0.78266
0.0232391
-0.0287028
-0.899632
0.905095
0.0345489
-0.0396072
-1.03666
1.04172
0.0446849
-0.0487001
-1.1881
1.19212
0.0521739
-0.054236
-1.3539
1.35596
0.0549774
-0.0537262
-1.53243
1.53118
0.0509821
-0.0466935
-1.44687
1.44258
0.0420221
-0.0364608
-1.14921
1.14365
0.0312202
-0.02549
-0.921145
0.915415
0.0203994
-0.0150914
-0.743308
0.738
0.0105339
-0.0060079
-0.602966
0.59844
0.00245082
0.000739478
-0.490628
0.487438
-0.00309332
0.00471945
-0.395026
0.3934
-0.0051488
0.00450921
-0.290267
0.290907
-0.00344955
0.00192458
-0.154604
0.156129
-0.000856949
-0.0252656
0.0261226
-0.0830996
0.0807574
0.00234221
-0.00874758
0.00956159
-0.442074
0.44126
-0.00845013
0.0053511
-0.575447
0.578546
-0.000653082
-0.00389385
-0.678378
0.682925
0.00891448
-0.0138112
-0.787776
0.792673
0.0192082
-0.0241057
-0.910337
0.915235
0.0294971
-0.033998
-1.04659
1.0511
0.0386602
-0.0423937
-1.19594
1.19968
0.0456241
-0.0476117
-1.35788
1.35987
0.0484474
-0.0478446
-1.53005
1.52945
0.0455243
-0.0419859
-1.43817
1.43463
0.0379241
-0.03307
-1.13822
1.13337
0.0287175
-0.023645
-0.909878
0.904805
0.0192163
-0.014757
-0.732896
0.728437
0.0108752
-0.00701466
-0.59399
0.59013
0.00393235
-0.000997991
-0.483204
0.480269
-0.000859691
0.00230092
-0.389431
0.38799
-0.00310752
0.00291722
-0.287313
0.287503
-0.00233024
0.0014183
-0.153871
0.154783
-0.000670076
-0.0252893
0.0259593
-0.0817
0.0799118
0.00178811
-0.00726402
0.00820656
-0.44488
0.443938
-0.00716332
0.00465005
-0.582945
0.585459
-0.000423111
-0.00363606
-0.687256
0.691316
0.00837966
-0.0125996
-0.79738
0.8016
0.0173473
-0.021721
-0.920192
0.924566
0.0268936
-0.0310427
-1.05571
1.05986
0.0352856
-0.0389411
-1.20334
1.20699
0.0424626
-0.0444734
-1.36199
1.364
0.0455842
-0.0451846
-1.52859
1.52819
0.0435215
-0.0401912
-1.43102
1.42769
0.0367055
-0.0324725
-1.1285
1.12427
0.0284248
-0.0239966
-0.899905
0.895477
0.0199292
-0.0156868
-0.723845
0.719603
0.012345
-0.00870217
-0.58611
0.582467
0.00571168
-0.00307534
-0.476571
0.473935
0.00110903
0.000567331
-0.384523
0.382847
-0.00146382
0.00163966
-0.284166
0.28399
-0.001457
0.00099286
-0.15236
0.152825
-0.000528764
-0.025014
0.0255427
-0.080951
0.0795623
0.00138868
-0.00578094
0.00671542
-0.447072
0.446137
-0.00560573
0.00319747
-0.589481
0.591889
0.000600231
-0.00419824
-0.695206
0.698804
0.00826482
-0.0123374
-0.805929
0.810002
0.0167424
-0.0212739
-0.928837
0.933369
0.0257835
-0.0297982
-1.06418
1.06819
0.0342278
-0.0377186
-1.21063
1.21413
0.0408776
-0.0433905
-1.36602
1.36854
0.0448008
-0.0447996
-1.52791
1.52791
0.0434104
-0.0407093
-1.42458
1.42188
0.0375531
-0.0336091
-1.11975
1.11581
0.0298727
-0.0256574
-0.890933
0.886718
0.0218
-0.0178821
-0.715404
0.711486
0.0143654
-0.0108797
-0.578628
0.575142
0.00802615
-0.00517762
-0.470511
0.467662
0.00302144
-0.00141789
-0.379468
0.377864
0.000263231
0.000372293
-0.280644
0.280009
-0.000662496
0.000610135
-0.15035
0.150402
-0.000417167
-0.0245438
0.024961
-0.0808108
0.0796409
0.00116987
-0.00423317
0.00483539
-0.449129
0.448527
-0.00386762
0.00154094
-0.595421
0.597748
0.00183761
-0.00527957
-0.702555
0.705997
0.0091761
-0.0128727
-0.81401
0.817707
0.0173992
-0.0211851
-0.937413
0.941199
0.025675
-0.0295446
-1.07242
1.07629
0.0339108
-0.0376458
-1.21769
1.22142
0.0411638
-0.0435528
-1.37094
1.37332
0.045389
-0.0458296
-1.52791
1.52835
0.0450741
-0.0426435
-1.41903
1.4166
0.0398051
-0.0360723
-1.11189
1.10815
0.0325006
-0.0283215
-0.882226
0.878047
0.0246024
-0.0205835
-0.707281
0.703262
0.0170618
-0.0134578
-0.571383
0.567779
0.0103915
-0.00759402
-0.464233
0.461435
0.00520202
-0.0033047
-0.3743
0.372403
0.00180061
-0.000831334
-0.276672
0.275702
0.000169589
0.000291169
-0.147768
0.147308
-0.000310359
-0.0238675
0.0241779
-0.0809631
0.0801148
0.000848363
-0.00294568
0.00299592
-0.451404
0.451354
-0.00217276
-8.97011e-05
-0.600596
0.602859
0.00305812
-0.00634333
-0.709365
0.71265
0.0100573
-0.0138664
-0.821375
0.825184
0.0178059
-0.021746
-0.94523
0.94917
0.0262046
-0.0298912
-1.08061
1.0843
0.0343765
-0.0381242
-1.22504
1.22879
0.0417768
-0.044754
-1.37623
1.37921
0.0471377
-0.0479175
-1.52894
1.52972
0.0474019
-0.045586
-1.4143
1.41248
0.0431467
-0.0395537
-1.10421
1.10061
0.0359729
-0.0319891
-0.873682
0.869698
0.0279033
-0.0239433
-0.698896
0.694936
0.0203256
-0.0165044
-0.564067
0.560246
0.0134176
-0.0102859
-0.457742
0.454611
0.0077435
-0.00535147
-0.369003
0.366611
0.00363465
-0.00221792
-0.272242
0.270825
0.00100394
-9.19749e-05
-0.144629
0.143717
-0.000218947
-0.0229612
0.0231801
-0.0815063
0.080806
0.000700321
-0.00192551
0.00194113
-0.453938
0.453923
-0.000557141
-0.00137711
-0.605777
0.607711
0.00441668
-0.00753815
-0.71564
0.718762
0.011079
-0.0144908
-0.828758
0.83217
0.0185315
-0.0221574
-0.953141
0.956767
0.0265617
-0.0306724
-1.08845
1.09256
0.0348342
-0.038934
-1.23263
1.23673
0.0430546
-0.0462118
-1.38218
1.38534
0.0490793
-0.050694
-1.53085
1.53246
0.0506514
-0.0493908
-1.41056
1.4093
0.0470497
-0.0437146
-1.09697
1.09363
0.0403038
-0.0361882
-0.865208
0.861093
0.0321633
-0.0279726
-0.690363
0.686172
0.0241853
-0.020077
-0.556134
0.552025
0.0166584
-0.0133504
-0.450867
0.447559
0.0103924
-0.00766878
-0.363059
0.360335
0.00552506
-0.00360159
-0.26714
0.265217
0.00199139
-0.000587697
-0.140897
0.139493
-6.88069e-05
-0.021883
0.0219518
-0.0822916
0.0817435
0.000548124
-0.000871182
0.000631663
-0.456636
0.456876
0.000598699
-0.00266576
-0.610482
0.612549
0.00555502
-0.00848174
-0.721616
0.724542
0.012064
-0.0153079
-0.835615
0.838859
0.0191751
-0.0228941
-0.960869
0.964588
0.0271914
-0.0312639
-1.09655
1.10062
0.0356501
-0.0398008
-1.24079
1.24495
0.0441557
-0.0481068
-1.38884
1.3928
0.0515211
-0.0535468
-1.53416
1.53619
0.0542562
-0.0533495
-1.40806
1.40715
0.0515148
-0.0485756
-1.0902
1.08726
0.0450754
-0.0409555
-0.856592
0.852472
0.0368626
-0.0323494
-0.681476
0.676962
0.0284337
-0.0240175
-0.547834
0.543417
0.0203427
-0.0165409
-0.443489
0.439687
0.0133673
-0.0102649
-0.356492
0.35339
0.00755349