/*--------------------------------*- C++ -*----------------------------------*\
| =========                 |                                                 |
| \\      /  F ield         | OpenFOAM: The Open Source CFD Toolbox           |
|  \\    /   O peration     | Version:  2106                                  |
|   \\  /    A nd           | Website:  www.openfoam.com                      |
|    \\/     M anipulation  |                                                 |
\*---------------------------------------------------------------------------*/
FoamFile
{
    version     2.0;
    format      ascii;
    arch        "LSB;label=32;scalar=64";
    class       volScalarField;
    location    "5";
    object      T;
}
// * * * * * * * * * * * * * * * * * * * * * * * * * * * * * * * * * * * * * //

dimensions      [0 0 0 1 0 0 0];

internalField   nonuniform List<scalar> 
1000
(
0.974676
0.975265
0.974094
0.974659
0.972299
0.972816
0.969228
0.969676
0.964806
0.965163
0.958942
0.959189
0.951536
0.951658
0.942486
0.942467
0.931685
0.931517
0.919034
0.918711
0.904444
0.903968
0.887843
0.887219
0.86918
0.868419
0.848429
0.847551
0.825598
0.824626
0.800726
0.799689
0.773889
0.772821
0.745201
0.744137
0.714811
0.713789
0.682903
0.681961
0.649693
0.648867
0.615424
0.614745
0.58036
0.579856
0.544782
0.544472
0.508979
0.508876
0.473241
0.47335
0.437855
0.438172
0.403094
0.403607
0.369215
0.369904
0.336451
0.337289
0.305007
0.305964
0.275058
0.2761
0.246746
0.247835
0.220179
0.221279
0.19543
0.196508
0.172541
0.173564
0.151522
0.152464
0.132356
0.133195
0.115
0.11572
0.0993896
0.0999809
0.0854441
0.0859027
0.0730681
0.0733955
0.0621567
0.0623591
0.0525982
0.0526859
0.0442781
0.044264
0.037081
0.0369802
0.0308936
0.0307222
0.0256065
0.0253808
0.0211157
0.0208512
0.0173237
0.017035
0.0141405
0.0138404
0.0114837
0.0111831
0.00927889
0.00898668
0.00745952
0.00718251
0.00596661
0.00570969
0.00474838
0.0045147
0.00375981
0.00355098
0.002962
0.0027784
0.00232169
0.00216267
0.00181059
0.0016748
0.00140485
0.00129043
0.00108452
0.000989313
0.000832985
0.000754712
0.000636554
0.00057293
0.000483986
0.00043283
0.00036613
0.000325423
0.00027558
0.000243508
0.000206386
0.000181355
0.000153795
0.000134436
0.000114038
9.91925e-05
8.4141e-05
7.28513e-05
6.17785e-05
5.32598e-05
4.51393e-05
3.87593e-05
3.28228e-05
2.80785e-05
2.3753e-05
2.0249e-05
1.71081e-05
1.45368e-05
1.22643e-05
1.03892e-05
8.75112e-06
7.39173e-06
6.21555e-06
5.23566e-06
4.39449e-06
3.69202e-06
3.09292e-06
2.59199e-06
2.16708e-06
1.81171e-06
1.51164e-06
1.26078e-06
1.04978e-06
8.73557e-07
7.25842e-07
6.02642e-07
4.99684e-07
4.13954e-07
3.42508e-07
2.83126e-07
2.33766e-07
1.92821e-07
1.5887e-07
1.30764e-07
1.07513e-07
8.83059e-08
7.24528e-08
5.93845e-08
4.86222e-08
3.97693e-08
3.24946e-08
2.65233e-08
2.1627e-08
1.76166e-08
1.43352e-08
1.16532e-08
9.4633e-09
7.6772e-09
6.22193e-09
5.03745e-09
4.07439e-09
3.29215e-09
2.65745e-09
2.14299e-09
1.72642e-09
1.38945e-09
1.11716e-09
8.97344e-10
7.20081e-10
5.7727e-10
4.62337e-10
3.69925e-10
2.95703e-10
2.36142e-10
1.88402e-10
1.50165e-10
1.19579e-10
9.51281e-11
7.561e-11
6.00348e-11
4.76285e-11
3.77452e-11
2.98904e-11
2.36423e-11
1.8689e-11
1.47536e-11
1.16424e-11
9.17249e-12
7.22641e-12
5.68146e-12
4.46937e-12
3.50601e-12
2.75452e-12
2.15543e-12
1.69187e-12
1.32007e-12
1.03579e-12
8.05313e-13
6.32207e-13
4.89285e-13
3.84843e-13
2.95989e-13
2.33765e-13
1.78208e-13
1.4181e-13
1.06716e-13
8.60239e-14
6.34977e-14
5.22804e-14
3.74839e-14
3.19207e-14
2.19021e-14
1.96563e-14
1.26227e-14
1.227e-14
7.13716e-15
7.81168e-15
3.9272e-15
5.10399e-15
2.07711e-15
3.43886e-15
1.03665e-15
2.39221e-15
4.76324e-16
1.71109e-15
1.99552e-16
1.24535e-15
8.94311e-17
9.06364e-16
7.66621e-17
6.42114e-16
1.20256e-16
4.22368e-16
1.9598e-16
2.29772e-16
2.89465e-16
5.4568e-17
3.92096e-16
-1.08532e-16
4.98597e-16
-2.62195e-16
6.05593e-16
-4.07552e-16
7.1079e-16
-5.44849e-16
8.12495e-16
-6.73826e-16
9.09354e-16
-7.93952e-16
1.00021e-15
-9.0457e-16
1.08405e-15
-1.00499e-15
1.15995e-15
-1.09456e-15
1.22709e-15
-1.17269e-15
1.28477e-15
-1.23891e-15
1.3324e-15
-1.29287e-15
1.36951e-15
-1.33434e-15
1.39576e-15
-1.36325e-15
1.41097e-15
-1.37965e-15
1.41507e-15
-1.3837e-15
1.4081e-15
-1.37569e-15
1.39025e-15
-1.356e-15
1.3618e-15
-1.32512e-15
1.3231e-15
-1.28358e-15
1.27462e-15
-1.23199e-15
1.21689e-15
-1.17104e-15
1.15048e-15
-1.10143e-15
1.07605e-15
-1.02394e-15
9.94312e-16
-9.39387e-16
9.06035e-16
-8.48621e-16
8.12046e-16
-7.52545e-16
7.13228e-16
-6.52107e-16
6.10523e-16
-5.48297e-16
5.04927e-16
-4.42146e-16
3.97482e-16
-3.34727e-16
2.89272e-16
-2.27146e-16
1.81413e-16
-1.20534e-16
7.50438e-17
-1.60386e-17
-2.86886e-17
8.51901e-17
-1.28642e-16
1.82014e-16
-2.23692e-16
2.73324e-16
-3.12753e-16
3.58055e-16
-3.94789e-16
4.35202e-16
-4.68839e-16
5.03842e-16
-5.34026e-16
5.63143e-16
-5.89581e-16
6.12383e-16
-6.34855e-16
6.50963e-16
-6.69331e-16
6.78416e-16
-6.92635e-16
6.94417e-16
-7.04543e-16
6.98791e-16
-7.04979e-16
6.91514e-16
-6.94018e-16
6.72713e-16
-6.71875e-16
6.42665e-16
-6.38903e-16
6.01788e-16
-5.95576e-16
5.50635e-16
-5.42483e-16
4.89885e-16
-4.80313e-16
4.20327e-16
-4.09844e-16
3.42856e-16
-3.31933e-16
2.58455e-16
-2.4751e-16
1.68188e-16
-1.57568e-16
7.31922e-17
-6.31564e-17
-2.53365e-17
3.46168e-17
-1.26149e-16
1.34595e-16
-2.27957e-16
2.35573e-16
-3.2944e-16
3.36308e-16
-4.29264e-16
4.35521e-16
-5.26095e-16
5.31915e-16
-6.18617e-16
6.24184e-16
-7.05553e-16
7.11038e-16
-7.85688e-16
7.91217e-16
-8.5789e-16
8.63526e-16
-9.21132e-16
9.26856e-16
-9.74518e-16
9.80215e-16
-1.0173e-15
1.02276e-15
-1.04891e-15
1.05381e-15
-1.06894e-15
1.07291e-15
-1.0772e-15
1.0798e-15
-1.07369e-15
1.07447e-15
-1.05865e-15
1.05714e-15
-1.03249e-15
1.02831e-15
-9.95853e-16
9.88689e-16
-9.49566e-16
9.39245e-16
-8.94643e-16
8.81141e-16
-8.3226e-16
8.15727e-16
-7.63734e-16
7.44502e-16
-6.90492e-16
6.69071e-16
-6.14042e-16
5.91105e-16
-5.35939e-16
5.12298e-16
-4.57747e-16
4.34315e-16
-3.80999e-16
3.58756e-16
-3.07168e-16
2.87113e-16
-2.37623e-16
2.20736e-16
-1.73602e-16
1.60801e-16
-1.1618e-16
1.08291e-16
-6.62489e-17
6.39777e-17
-2.44952e-17
2.84107e-17
8.61e-18
1.91364e-18
3.28181e-17
-1.54155e-17
4.8104e-17
-2.36996e-17
5.46604e-17
-2.32735e-17
5.28873e-17
-1.46723e-17
4.33761e-17
1.38456e-18
2.6889e-17
2.40114e-17
4.33481e-18
5.21781e-17
-2.326e-17
8.47353e-17
-5.47819e-17
1.20442e-16
-8.90634e-17
1.57999e-16
-1.24918e-16
1.96079e-16
-1.61173e-16
2.33365e-16
-1.96703e-16
2.68587e-16
-2.30465e-16
3.00555e-16
-2.61518e-16
3.28191e-16
-2.89054e-16
3.50563e-16
-3.1241e-16
3.66906e-16
-3.31085e-16
3.76638e-16
-3.44741e-16
3.79372e-16
-3.53205e-16
3.7492e-16
-3.56458e-16
3.63282e-16
-3.54622e-16
3.44634e-16
-3.47936e-16
3.19305e-16
-3.36731e-16
2.87749e-16
-3.21399e-16
2.50514e-16
-3.0236e-16
2.08207e-16
-2.80028e-16
1.61461e-16
-2.54783e-16
1.10903e-16
-2.26946e-16
5.71333e-17
-1.96762e-16
7.11126e-19
-1.64394e-16
-5.78528e-17
-1.29925e-16
-1.18089e-16
-9.33789e-17
-1.79553e-16
-5.47393e-17
-2.41803e-16
-1.39871e-17
-3.04374e-16
2.8866e-17
-3.66746e-16
7.37415e-17
-4.28327e-16
1.20465e-16
-4.8843e-16
1.68749e-16
-5.46279e-16
2.18182e-16
-6.01016e-16
2.6824e-16
-6.51724e-16
3.18308e-16
-6.97469e-16
3.67713e-16
-7.37346e-16
4.15765e-16
-7.70523e-16
4.618e-16
-7.96296e-16
5.05222e-16
-8.14122e-16
5.45532e-16
-8.23653e-16
5.82352e-16
-8.24748e-16
6.15426e-16
-8.17465e-16
6.44613e-16
-8.02053e-16
6.6987e-16
-7.78917e-16
6.91215e-16
-7.48585e-16
7.08703e-16
-7.11673e-16
7.2239e-16
-6.68852e-16
7.32314e-16
-6.20823e-16
7.3848e-16
-5.68303e-16
7.40859e-16
-5.12024e-16
7.39402e-16
-4.52734e-16
7.34056e-16
-3.91213e-16
7.24798e-16
-3.28281e-16
7.11657e-16
-2.64818e-16
6.94741e-16
-2.01758e-16
6.74258e-16
-1.40093e-16
6.50523e-16
-8.0852e-17
6.23957e-16
-2.508e-17
5.95075e-16
2.61975e-17
5.64467e-16
7.20108e-17
5.32771e-16
1.11484e-16
5.00648e-16
1.43872e-16
4.6875e-16
1.68586e-16
4.37702e-16
1.85216e-16
4.08077e-16
1.93539e-16
3.80388e-16
1.93522e-16
3.55072e-16
1.85315e-16
3.3249e-16
1.69237e-16
3.12919e-16
1.45765e-16
2.96547e-16
1.15518e-16
2.83464e-16
7.92511e-17
2.73653e-16
3.78461e-17
2.6697e-16
-7.68979e-18
2.63134e-16
-5.62262e-17
2.61714e-16
-1.06514e-16
2.6212e-16
-1.57193e-16
2.63611e-16
-2.06816e-16
2.65309e-16
-2.53872e-16
2.66228e-16
-2.96838e-16
2.65327e-16
-3.34227e-16
2.61555e-16
-3.6465e-16
2.53924e-16
-3.8689e-16
2.41572e-16
-3.99961e-16
2.23828e-16
-4.03173e-16
2.00269e-16
-3.96182e-16
1.70768e-16
-3.79031e-16
1.35529e-16
-3.5217e-16
9.50956e-17
-3.16457e-16
5.03555e-17
-2.73142e-16
2.50763e-18
-2.23821e-16
-4.69857e-17
-1.70368e-16
-9.64735e-17
-1.14842e-16
-1.44213e-16
-5.93698e-17
-1.88487e-16
-6.01876e-18
-2.27722e-16
4.33394e-17
-2.6062e-16
8.71535e-17
-2.86255e-16
1.24294e-16
-3.04151e-16
1.54115e-16
-3.14316e-16
1.7647e-16
-3.17215e-16
1.91672e-16
-3.13705e-16
2.0041e-16
-3.04924e-16
2.03624e-16
-2.92157e-16
2.02378e-16
-2.76697e-16
1.97726e-16
-2.5973e-16
1.90616e-16
-2.42255e-16
1.81831e-16
-2.25051e-16
1.7198e-16
-2.08694e-16
1.61536e-16
-1.93609e-16
1.50899e-16
-1.80157e-16
1.40481e-16
-1.68717e-16
1.30788e-16
-1.59765e-16
1.22478e-16
-1.5393e-16
1.16401e-16
-1.52014e-16
1.13594e-16
-1.5498e-16
1.15249e-16
-1.63907e-16
1.22645e-16
-1.7992e-16
1.37066e-16
-2.04102e-16
1.59704e-16
-2.37402e-16
1.91561e-16
-2.80553e-16
2.33371e-16
-3.34002e-16
2.85539e-16
-3.97873e-16
3.48116e-16
-4.71956e-16
4.20795e-16
-5.55718e-16
5.02939e-16
-6.48335e-16
5.93613e-16
-7.48729e-16
6.91623e-16
-8.55597e-16
7.95541e-16
-9.67421e-16
9.03715e-16
-1.08246e-15
1.01425e-15
-1.1987e-15
1.12493e-15
-1.31375e-15
1.23314e-15
-1.42471e-15
1.3356e-15
-1.52783e-15
1.42802e-15
-1.61802e-15
1.50442e-15
-1.68798e-15
1.55601e-15
-1.72672e-15
1.56925e-15
-1.71714e-15
1.52276e-15
-1.63191e-15
1.38206e-15
-1.4269e-15
1.09106e-15
-1.0302e-15
5.58117e-16
-3.24328e-16
-3.66729e-16
8.82712e-16
-1.92868e-15
2.90451e-15
-4.52802e-15
6.25221e-15
-8.81658e-15
1.17569e-14
-1.58527e-14
2.07654e-14
-2.73489e-14
3.54536e-14
-4.60667e-14
5.93229e-14
-7.64418e-14
9.79871e-14
-1.25572e-13
1.60411e-13
-2.04769e-13
2.60854e-13
-3.3199e-13
4.21905e-13
-5.35624e-13
6.79204e-13
-8.60368e-13
1.08875e-12
-1.37631e-12
1.73817e-12
-2.19289e-12
2.76402e-12
-3.48031e-12
4.37819e-12
-5.50209e-12
6.90809e-12
-8.6646e-12
1.08575e-11
-1.35917e-11
1.69983e-11
-2.12372e-11
2.65076e-11
-3.30527e-11
4.11736e-11
-5.12381e-11
6.36997e-11
-7.9112e-11
9.81552e-11
-1.21659e-10
1.50638e-10
-1.86331e-10
2.30246e-10
-2.84219e-10
3.50484e-10
-4.31753e-10
5.31317e-10
-6.5316e-10
8.02112e-10
-9.83992e-10
1.20587e-09
-1.47618e-09
1.80524e-09
-2.20519e-09
2.69109e-09
-3.28018e-09
3.99459e-09
-4.85823e-09
5.90411e-09
-7.16415e-09
8.68904e-09
-1.0518e-08
1.27328e-08
-1.5373e-08
1.85787e-08
-2.23662e-08
2.69938e-08
-3.23881e-08
3.90576e-08
-4.66727e-08
5.62849e-08
-6.69158e-08
8.0799e-08
-9.54222e-08
1.15575e-07
-1.35284e-07
1.6479e-07
-1.90584e-07
2.34324e-07
-2.66599e-07
3.32506e-07
-3.69961e-07
4.71206e-07
-5.08684e-07
6.675e-07
-6.91893e-07
9.46166e-07
-9.28987e-07
1.3435e-06
-1.22778e-06
1.91308e-06
-1.59096e-06
2.73455e-06
-2.00973e-06
3.92675e-06
-2.45324e-06
5.6673e-06
-2.85142e-06
8.22135e-06
-3.06831e-06
1.19833e-05
-2.86171e-06
1.75363e-05
-1.82372e-06
2.5736e-05
7.04714e-07
3.78262e-05
5.7537e-06
5.5596e-05
1.4889e-05
8.15889e-05
3.04327e-05
0.000119377
5.57536e-05
0.000173912
9.56392e-05
0.000251967
0.000156764
0.000362682
0.000248265
0.000518215
0.00038243
0.000734518
0.000575504
0.00103222
0.000848612
0.00143759
0.00122877
0.00198367
0.00174999
0.0027113
0.00245438
0.00367028
0.00339327
0.00492042
0.0046282
0.00653242
0.00623183
0.00858854
0.00828846
0.011183
0.0108944
0.0144219
0.0141575
0.0184226
0.0181969
0.0233126
0.0231413
0.0292279
0.0291271
0.0363101
0.036296
0.0447037
0.0447913
0.0545522
0.0547546
0.0659934
0.0663208
0.0791554
0.0796139
0.0941507
0.094742
0.111072
0.111792
0.129987
0.130826
0.150934
0.151876
0.173918
0.174941
0.198908
0.199985
0.225835
0.226936
0.254592
0.255681
0.285035
0.286076
0.316982
0.31794
0.350222
0.351061
0.384514
0.385202
0.419594
0.420106
0.455184
0.455501
0.490996
0.491105
0.52674
0.526637
0.56213
0.56182
0.596893
0.596389
0.630773
0.630094
0.663537
0.66271
0.694978
0.694036
0.724922
0.7239
0.753227
0.752163
0.779782
0.778714
0.804514
0.803477
0.827377
0.826405
0.848358
0.84748
0.86747
0.866709
0.884748
0.884123
0.900248
0.899771
0.914038
0.913715
0.926197
0.926029
0.936811
0.936792
0.945964
0.946085
0.953738
0.953986
0.960208
0.960565
0.965436
0.965885
0.969473
0.969991
0.972352
0.972917
0.974088
0.974676
)
;

boundaryField
{
    sides
    {
        type            zeroGradient;
    }
    empty
    {
        type            empty;
    }
}


// ************************************************************************* //
