/*--------------------------------*- C++ -*----------------------------------*\
  =========                 |
  \\      /  F ield         | OpenFOAM: The Open Source CFD Toolbox
   \\    /   O peration     | Website:  https://openfoam.org
    \\  /    A nd           | Version:  6
     \\/     M anipulation  |
\*---------------------------------------------------------------------------*/
FoamFile
{
    version     2.0;
    format      ascii;
    class       volScalarField;
    location    "62.5";
    object      p;
}
// * * * * * * * * * * * * * * * * * * * * * * * * * * * * * * * * * * * * * //

dimensions      [0 2 -2 0 0 0 0];

internalField   nonuniform List<scalar> 
8800
(
0.872664
0.823347
0.785379
0.757305
0.737137
0.72254
0.711927
0.704366
0.699453
0.697346
0.698676
0.702986
0.709755
0.719159
0.731883
0.749196
0.773068
0.806162
0.849098
0.901611
0.707164
0.713507
0.722655
0.726199
0.723585
0.717487
0.710533
0.704273
0.699445
0.696541
0.696269
0.698859
0.703472
0.709579
0.716665
0.723688
0.72856
0.728432
0.721754
0.712853
0.680691
0.686925
0.691421
0.695286
0.698226
0.699163
0.698057
0.695912
0.6939
0.69302
0.694008
0.696426
0.699285
0.701536
0.702044
0.700247
0.696875
0.692857
0.688073
0.684357
0.676409
0.679173
0.681774
0.683924
0.685652
0.687207
0.688291
0.688618
0.688469
0.688523
0.68928
0.690383
0.691096
0.690924
0.689934
0.688569
0.686892
0.684585
0.682171
0.680605
0.671377
0.672801
0.674635
0.676707
0.678408
0.679685
0.680761
0.681712
0.682482
0.683168
0.683825
0.684242
0.684233
0.683845
0.68316
0.682033
0.680368
0.678467
0.677111
0.676309
0.666418
0.66732
0.668561
0.670177
0.671857
0.673371
0.67463
0.675719
0.676739
0.677699
0.678423
0.678763
0.678735
0.67834
0.677517
0.676314
0.674942
0.673669
0.672845
0.672321
0.66155
0.662205
0.663159
0.664465
0.665896
0.667391
0.668848
0.670174
0.671384
0.672522
0.673403
0.67384
0.673814
0.673344
0.67254
0.67158
0.670575
0.669662
0.66908
0.668696
0.656769
0.657273
0.658051
0.659178
0.66046
0.661853
0.66333
0.664827
0.666279
0.667658
0.66873
0.669272
0.669298
0.668938
0.668346
0.667637
0.666884
0.666211
0.665781
0.665482
0.652023
0.652424
0.653076
0.654082
0.655291
0.656628
0.658096
0.659685
0.661348
0.663004
0.664323
0.665048
0.665262
0.665126
0.664771
0.66428
0.66373
0.66325
0.662931
0.662689
0.647232
0.647559
0.648124
0.64905
0.650212
0.651536
0.653037
0.654725
0.656581
0.658529
0.660171
0.661195
0.661688
0.661813
0.661693
0.661426
0.66107
0.660751
0.660516
0.660313
0.64231
0.642582
0.643086
0.643966
0.645111
0.646462
0.648038
0.649867
0.651952
0.654241
0.65629
0.657699
0.658532
0.65895
0.659085
0.659043
0.658883
0.658706
0.658539
0.658363
0.637168
0.637397
0.637863
0.638726
0.639895
0.641314
0.643009
0.645033
0.647414
0.650127
0.652674
0.654545
0.655773
0.656529
0.656948
0.657143
0.65718
0.657131
0.657019
0.656864
0.631714
0.63191
0.632357
0.633234
0.634466
0.635999
0.637867
0.640155
0.642919
0.64616
0.64931
0.651731
0.65342
0.654561
0.6553
0.655746
0.655993
0.656068
0.656003
0.655861
0.625848
0.626017
0.626463
0.627382
0.628717
0.630414
0.632523
0.635156
0.638404
0.642299
0.64618
0.649258
0.651492
0.653074
0.65418
0.654927
0.655384
0.655576
0.655551
0.655417
0.61945
0.619597
0.620056
0.621046
0.622531
0.624454
0.626883
0.629959
0.633813
0.63851
0.643277
0.64714
0.650017
0.65212
0.653641
0.654717
0.655413
0.655729
0.655741
0.655611
0.612382
0.612505
0.612993
0.614086
0.615771
0.61799
0.620828
0.624464
0.62907
0.634751
0.640589
0.645389
0.649028
0.651745
0.653755
0.655211
0.656174
0.656616
0.656662
0.656533
0.604456
0.604559
0.605093
0.606322
0.608269
0.610868
0.614225
0.618562
0.624097
0.630975
0.638106
0.644028
0.648568
0.652007
0.654605
0.656504
0.657763
0.658339
0.658417
0.658284
0.595444
0.595548
0.596131
0.597533
0.599818
0.6029
0.606912
0.612127
0.618814
0.627155
0.635836
0.64309
0.648695
0.652982
0.656272
0.658688
0.660286
0.661004
0.661111
0.660972
0.585035
0.585124
0.585799
0.587436
0.590156
0.593854
0.598697
0.605017
0.613135
0.623261
0.633799
0.642623
0.649476
0.654762
0.658842
0.661872
0.663849
0.664715
0.664847
0.664698
0.572852
0.572929
0.573705
0.575656
0.578937
0.583432
0.589342
0.597065
0.60697
0.619278
0.632027
0.64268
0.650978
0.657426
0.662431
0.666161
0.668553
0.669567
0.669719
0.669556
0.558347
0.558416
0.559338
0.561701
0.565718
0.571261
0.57856
0.588076
0.600213
0.615175
0.630542
0.643316
0.653272
0.661046
0.667121
0.671636
0.67447
0.675625
0.675787
0.675607
0.540742
0.540804
0.541941
0.544889
0.549913
0.556868
0.566014
0.577866
0.592815
0.610993
0.629421
0.644616
0.656436
0.665709
0.672956
0.67835
0.681631
0.682905
0.683062
0.682863
0.518883
0.518949
0.520428
0.524251
0.530724
0.539667
0.551345
0.566284
0.584788
0.606833
0.628775
0.646665
0.660539
0.671461
0.679993
0.6863
0.689998
0.691346
0.691482
0.691262
0.490994
0.491089
0.493163
0.498399
0.507111
0.518984
0.534241
0.553301
0.576265
0.602877
0.62876
0.649569
0.665643
0.678308
0.688209
0.695415
0.699437
0.700791
0.700882
0.700642
0.45403
0.454249
0.457535
0.465375
0.47786
0.494237
0.514604
0.53908
0.56749
0.599353
0.629545
0.653441
0.671795
0.686253
0.697531
0.705514
0.709698
0.710961
0.710985
0.710729
0.402165
0.403248
0.409774
0.422991
0.442064
0.465404
0.492835
0.524147
0.558949
0.596628
0.631378
0.658421
0.679043
0.695208
0.707764
0.716311
0.720405
0.721474
0.721419
0.721153
0.326965
0.334343
0.349305
0.372378
0.401294
0.433957
0.469985
0.509126
0.55101
0.595014
0.634656
0.665066
0.688144
0.706176
0.719893
0.728742
0.732596
0.733451
0.733344
0.733109
0.246994
0.263114
0.287412
0.321108
0.360377
0.40253
0.44722
0.494366
0.543703
0.594683
0.640106
0.674689
0.700775
0.721007
0.735958
0.744801
0.748136
0.74873
0.748647
0.748502
0.178493
0.198191
0.230291
0.273149
0.321647
0.372726
0.425838
0.480855
0.537505
0.595243
0.646117
0.684567
0.713411
0.735513
0.751263
0.759826
0.762693
0.763179
0.76315
0.763059
0.122436
0.144351
0.181822
0.231247
0.286977
0.345562
0.406155
0.468447
0.531989
0.596132
0.652179
0.694246
0.725609
0.74937
0.765888
0.774537
0.777267
0.777738
0.777738
0.777676
0.0759824
0.0992171
0.140584
0.195151
0.256679
0.321463
0.388442
0.457157
0.526985
0.597146
0.658152
0.703709
0.737479
0.762908
0.780338
0.789287
0.792155
0.7926
0.792619
0.79258
0.0365123
0.0605423
0.104789
0.163538
0.229951
0.300021
0.372536
0.446978
0.52258
0.598363
0.664078
0.713007
0.749151
0.776217
0.794675
0.804143
0.807188
0.807663
0.807697
0.807678
0.00199915
0.0265657
0.0730691
0.135285
0.205882
0.280579
0.358036
0.437656
0.518554
0.59961
0.66981
0.721995
0.760464
0.789135
0.808612
0.818684
0.821988
0.82252
0.82257
0.822562
-0.0290488
-0.00403631
0.0443325
0.109506
0.183732
0.262497
0.344388
0.428746
0.514593
0.600694
0.6752
0.730513
0.771184
0.801425
0.821866
0.832477
0.836084
0.836714
0.836767
0.836764
-0.0576422
-0.0322162
0.017747
0.0854961
0.162905
0.245273
0.331179
0.419926
0.510455
0.601364
0.680064
0.738375
0.781158
0.812826
0.83418
0.845316
0.849179
0.849923
0.849958
0.849948
-0.084583
-0.0587068
-0.00730783
0.0627523
0.142975
0.228569
0.318121
0.410922
0.505854
0.601413
0.684235
0.745516
0.790312
0.823342
0.845459
0.85699
0.86106
0.861862
0.861881
0.861857
-0.11026
-0.0839471
-0.0312191
0.0408998
0.123634
0.212123
0.304981
0.401522
0.500626
0.600722
0.68764
0.751888
0.798658
0.832917
0.855677
0.867468
0.871649
0.872475
0.872467
0.872421
-0.1351
-0.108267
-0.05431
0.0196715
0.104656
0.195744
0.291617
0.391618
0.494664
0.599169
0.690216
0.757494
0.806244
0.841644
0.864897
0.876816
0.880995
0.881815
0.881776
0.881709
-0.159235
-0.131875
-0.0767555
-0.00109107
0.085906
0.179338
0.277953
0.381137
0.487879
0.596679
0.691916
0.762358
0.813165
0.84966
0.873261
0.885146
0.889268
0.890046
0.889988
0.8899
-0.182786
-0.154874
-0.0986673
-0.0214718
0.0673282
0.162859
0.263946
0.370039
0.480233
0.593191
0.692685
0.766504
0.819522
0.857125
0.880954
0.892659
0.896609
0.897306
0.897219
0.897114
-0.205849
-0.177365
-0.12009
-0.041505
0.0488909
0.146297
0.249602
0.358337
0.471724
0.588658
0.692464
0.769929
0.825434
0.864228
0.888146
0.899476
0.903133
0.903707
0.903579
0.903458
-0.228476
-0.199342
-0.141036
-0.0611903
0.0306215
0.129679
0.234962
0.346065
0.462366
0.58305
0.691192
0.772592
0.830983
0.871174
0.895059
0.90576
0.908933
0.909316
0.909151
0.909025
-0.250519
-0.22077
-0.161483
-0.0805129
0.0125503
0.113064
0.220081
0.333288
0.452207
0.576377
0.688794
0.77441
0.83618
0.878182
0.902041
0.911775
0.91415
0.914227
0.914024
0.913904
-0.271951
-0.241613
-0.181414
-0.0994344
-0.0052718
0.09651
0.205043
0.320076
0.44132
0.568653
0.685209
0.775263
0.840948
0.885395
0.909553
0.91807
0.919106
0.918547
0.918274
0.91821
-0.292826
-0.261841
-0.200804
-0.117923
-0.0227851
0.080097
0.189934
0.30653
0.429788
0.559929
0.680373
0.775018
0.845102
0.892756
0.918037
0.925598
0.9247
0.922677
0.922016
0.922209
-0.312989
-0.281426
-0.219599
-0.135912
-0.0399314
0.0639086
0.17485
0.292754
0.417722
0.550293
0.674248
0.773513
0.848373
0.899909
0.927524
0.935446
0.932982
0.928405
0.925478
0.924232
-0.332533
-0.30037
-0.237803
-0.153435
-0.0567449
0.0479057
0.15974
0.278693
0.405052
0.53968
0.666676
0.77049
0.850508
0.906338
0.937396
0.947884
0.946124
0.939104
0.929447
0.929652
-0.351373
-0.318742
-0.255552
-0.170687
-0.0735198
0.0317567
0.144188
0.26386
0.391233
0.527464
0.657
0.765184
0.851049
0.911416
0.94606
0.960751
0.960511
0.949636
0.931296
0.929057
-0.369371
-0.336503
-0.272675
-0.187478
-0.0899922
0.0157634
0.128402
0.248578
0.376555
0.513879
0.645264
0.756919
0.84917
0.913957
0.949392
0.964485
0.966538
0.941621
0.883676
0.858531
-0.386406
-0.354508
-0.288772
-0.203355
-0.105398
0.00040629
0.112662
0.233121
0.361297
0.499097
0.631533
0.745098
0.843829
0.913054
0.942656
0.952539
0.940047
0.888946
0.826932
0.789097
-0.429571
-0.372016
-0.303594
-0.219173
-0.120488
-0.0152662
0.0971056
0.217366
0.345258
0.482767
0.615412
0.729088
0.831148
0.905632
0.923644
0.91157
0.864779
0.799986
0.73111
0.693253
-0.404746
-0.386562
-0.32619
-0.241154
-0.143775
-0.0387988
0.0728577
0.192432
0.319356
0.455385
0.586539
0.698109
0.791723
0.873386
0.857751
0.749971
0.659786
0.597117
0.533209
0.560319
-0.435826
-0.404283
-0.343073
-0.258527
-0.16149
-0.0566933
0.0551139
0.174007
0.299873
0.434085
0.562595
0.670587
0.75363
0.79937
0.748697
0.609836
0.501207
0.427987
0.345992
0.391685
-0.459988
-0.425992
-0.363005
-0.278375
-0.181405
-0.0766389
0.0350349
0.153114
0.277587
0.409364
0.534032
0.636057
0.707361
0.71529
0.609687
0.454998
0.326287
0.234142
0.138792
0.170462
-0.483542
-0.448452
-0.384052
-0.298742
-0.201689
-0.0970466
0.0141056
0.131203
0.254055
0.382986
0.502784
0.5968
0.651
0.62625
0.469013
0.292394
0.132777
-0.000833821
-0.124958
-0.111776
-0.506843
-0.471328
-0.405985
-0.32006
-0.222854
-0.118426
-0.00793561
0.108029
0.228967
0.354625
0.468717
0.55464
0.588145
0.518555
0.330726
0.133971
-0.0529633
-0.206737
-0.412212
-0.49105
-0.530577
-0.495082
-0.429165
-0.342789
-0.245406
-0.141148
-0.031257
0.0835372
0.202429
0.324536
0.432502
0.509004
0.517298
0.396091
0.204729
-0.00411393
-0.196198
-0.3582
-0.482242
-0.600964
-0.555826
-0.520203
-0.453953
-0.367319
-0.269889
-0.1659
-0.0567076
0.0567344
0.173228
0.29122
0.392611
0.456429
0.437512
0.279907
0.0869674
-0.115927
-0.291336
-0.38892
-0.415233
-0.428699
-0.582717
-0.546983
-0.480484
-0.393747
-0.296453
-0.192911
-0.0846664
0.0271046
0.140738
0.253873
0.348193
0.394597
0.356548
0.168419
-0.0225963
-0.205283
-0.33784
-0.375946
-0.38489
-0.385179
-0.611532
-0.57555
-0.508798
-0.422062
-0.325052
-0.22219
-0.115162
-0.00541359
0.104884
0.212448
0.298676
0.329038
0.259911
0.066687
-0.118211
-0.276895
-0.351408
-0.365561
-0.366631
-0.366492
-0.642284
-0.605938
-0.538912
-0.452263
-0.355704
-0.253732
-0.148209
-0.0408449
0.0656737
0.167047
0.2439
0.259829
0.152624
-0.025298
-0.200285
-0.326159
-0.355192
-0.355773
-0.356213
-0.355774
-0.674714
-0.637973
-0.570724
-0.484268
-0.388323
-0.287489
-0.183784
-0.079176
0.0231589
0.117792
0.185084
0.182211
0.0574088
-0.109977
-0.264841
-0.336768
-0.351826
-0.349779
-0.349435
-0.348979
-0.708257
-0.671308
-0.603968
-0.517843
-0.422719
-0.323301
-0.221739
-0.120292
-0.0224467
0.0650648
0.122638
0.10377
-0.0306176
-0.184183
-0.306385
-0.344108
-0.343983
-0.344988
-0.344938
-0.344589
-0.742466
-0.705404
-0.638149
-0.552561
-0.458531
-0.36084
-0.26179
-0.163915
-0.0708802
0.00977488
0.0551691
0.0297778
-0.110962
-0.242237
-0.328631
-0.337857
-0.340741
-0.341816
-0.341806
-0.341693
-0.776377
-0.739359
-0.672511
-0.587768
-0.495192
-0.399616
-0.30347
-0.20956
-0.121743
-0.0472264
-0.0123967
-0.0447241
-0.180682
-0.287986
-0.333653
-0.344974
-0.34098
-0.339264
-0.338669
-0.338565
-0.808074
-0.771858
-0.706
-0.62255
-0.531899
-0.438907
-0.346107
-0.256496
-0.174279
-0.10558
-0.0750325
-0.12222
-0.24005
-0.332994
-0.352598
-0.349246
-0.342089
-0.336312
-0.334573
-0.334103
-0.836507
-0.801363
-0.737181
-0.655675
-0.567564
-0.477744
-0.38882
-0.303811
-0.227299
-0.164681
-0.136403
-0.188517
-0.285685
-0.365498
-0.386864
-0.366473
-0.347607
-0.338129
-0.335092
-0.333829
-0.858889
-0.825719
-0.764252
-0.685579
-0.600834
-0.514903
-0.430488
-0.350463
-0.279589
-0.222641
-0.198075
-0.238404
-0.310382
-0.369576
-0.373447
-0.374258
-0.373594
-0.368803
-0.363891
-0.361269
-0.873068
-0.84272
-0.785077
-0.710452
-0.630132
-0.548963
-0.469724
-0.395284
-0.329991
-0.277136
-0.253784
-0.280756
-0.309679
-0.3521
-0.357624
-0.382199
-0.400528
-0.400866
-0.396992
-0.395964
-0.876269
-0.849892
-0.797469
-0.728379
-0.653738
-0.578441
-0.504986
-0.436827
-0.377135
-0.328532
-0.299014
-0.323981
-0.305173
-0.305131
-0.331737
-0.364209
-0.38033
-0.386233
-0.389168
-0.390771
-0.866192
-0.844712
-0.79924
-0.737535
-0.670087
-0.601857
-0.53498
-0.47318
-0.419786
-0.378017
-0.334358
-0.373779
-0.357554
-0.293581
-0.344915
-0.380093
-0.394179
-0.402106
-0.40596
-0.407068
-0.840082
-0.824281
-0.788373
-0.736585
-0.678097
-0.617978
-0.558744
-0.502778
-0.456651
-0.422129
-0.385065
-0.431916
-0.522442
-0.552008
-0.552998
-0.506567
-0.471871
-0.459908
-0.456105
-0.455214
-0.801357
-0.791262
-0.765848
-0.725687
-0.677585
-0.626528
-0.575183
-0.525554
-0.484223
-0.458741
-0.445538
-0.498449
-0.641992
-0.827877
-0.72762
-0.567138
-0.499135
-0.466717
-0.455586
-0.452522
-0.757105
-0.75141
-0.736618
-0.707859
-0.670456
-0.628336
-0.583903
-0.540903
-0.501965
-0.479839
-0.461903
-0.46671
-0.409913
-0.363154
-0.258706
-0.258097
-0.311457
-0.338773
-0.340579
-0.337428
-0.717494
-0.714101
-0.707053
-0.688459
-0.65994
-0.624785
-0.586674
-0.54664
-0.510001
-0.479786
-0.460059
-0.392377
-0.224028
-0.100535
-0.134704
-0.249336
-0.322488
-0.296387
-0.275606
-0.282014
-0.688626
-0.686651
-0.682986
-0.671741
-0.649688
-0.619613
-0.584567
-0.546327
-0.506738
-0.471268
-0.461473
-0.401012
-0.363159
-0.325124
-0.362473
-0.511641
-0.621684
-0.647608
-0.614384
-0.604463
-0.666925
-0.666181
-0.664903
-0.659227
-0.642651
-0.615632
-0.581107
-0.54137
-0.496728
-0.459248
-0.424886
-0.414696
-0.409859
-0.579105
-0.745225
-0.843869
-0.956192
-0.969137
-0.919107
-0.878711
-0.654218
-0.653967
-0.653331
-0.650609
-0.638786
-0.613253
-0.577048
-0.532792
-0.484584
-0.426202
-0.37588
-0.334842
-0.418489
-0.585319
-0.868634
-1.01201
-0.955583
-0.739918
-0.556106
-0.476178
-0.645616
-0.645392
-0.644817
-0.643909
-0.636745
-0.612944
-0.573645
-0.524894
-0.465107
-0.387937
-0.307867
-0.177739
-0.0662236
-0.0125075
0.0747279
0.165636
0.376942
0.62578
0.783783
0.841562
-0.641268
-0.641072
-0.640624
-0.640399
-0.636615
-0.615463
-0.572692
-0.516252
-0.445476
-0.36034
-0.243613
-0.097732
0.111222
0.396202
0.787628
1.19193
1.52651
1.75628
1.85899
1.88778
-0.638016
-0.638892
-0.641043
-0.643622
-0.642309
-0.620195
-0.573237
-0.512631
-0.438689
-0.335457
-0.215955
-0.0850476
0.149089
0.508654
0.98149
1.4013
1.7299
1.91722
1.99074
2.00667
-0.631526
-0.633012
-0.635468
-0.63836
-0.637802
-0.616445
-0.574669
-0.520687
-0.439505
-0.328194
-0.21059
-0.0869894
0.0868013
0.428308
0.827849
1.17848
1.43561
1.57106
1.6209
1.63132
-0.643896
-0.643573
-0.634643
-0.61259
-0.59469
-0.594239
-0.583168
-0.5384
-0.449797
-0.336136
-0.221617
-0.113434
0.0122441
0.275956
0.575408
0.834461
1.02109
1.11367
1.14797
1.15296
-0.689944
-0.686352
-0.670282
-0.636984
-0.610884
-0.617976
-0.625769
-0.567536
-0.462828
-0.349981
-0.240011
-0.1477
-0.0538032
0.132797
0.347591
0.523521
0.643852
0.701644
0.72223
0.725919
-0.779225
-0.780901
-0.796614
-0.818871
-0.817124
-0.800489
-0.740933
-0.613969
-0.478804
-0.361847
-0.259412
-0.185368
-0.10952
0.0232967
0.155921
0.260007
0.329805
0.360558
0.371062
0.372354
-0.915869
-0.934039
-0.980887
-1.02164
-1.02547
-0.982638
-0.854813
-0.658029
-0.494658
-0.371363
-0.275809
-0.213567
-0.165657
-0.0689801
0.0149408
0.0571541
0.0766471
0.084685
0.0892266
0.0911968
-0.980202
-1.00208
-1.03866
-1.06832
-1.07021
-1.02095
-0.858444
-0.647345
-0.490549
-0.365564
-0.279741
-0.23681
-0.194877
-0.133584
-0.0840073
-0.0727779
-0.0806659
-0.0806297
-0.0709575
-0.0657089
-0.869158
-0.888762
-0.921887
-0.952654
-0.958038
-0.899577
-0.734672
-0.572253
-0.439921
-0.332057
-0.276818
-0.236986
-0.221695
-0.157059
-0.118795
-0.0936995
-0.0903594
-0.0832704
-0.0782
-0.076115
-0.577297
-0.59631
-0.631064
-0.669144
-0.685014
-0.639212
-0.540581
-0.441556
-0.342301
-0.283829
-0.241606
-0.223771
-0.214382
-0.158101
-0.109332
-0.0774348
-0.0553139
-0.0418585
-0.0368723
-0.0362871
-0.219902
-0.23157
-0.255926
-0.289716
-0.315561
-0.317315
-0.305444
-0.276125
-0.24583
-0.213434
-0.189453
-0.17929
-0.165003
-0.11279
-0.0686946
-0.0438637
-0.0181757
-0.00468538
-0.000147068
-0.00119921
0.044977
0.0393441
0.0235443
-0.00580658
-0.047195
-0.0894128
-0.120342
-0.143569
-0.151322
-0.141026
-0.130101
-0.110356
-0.091469
-0.0635137
-0.0362578
-0.0175569
-0.00128187
0.00770891
0.00989426
0.00919775
0.167481
0.164546
0.153633
0.128515
0.0873193
0.035486
-0.0147589
-0.053431
-0.0766104
-0.0828117
-0.0730018
-0.0476487
-0.0238293
-0.0179131
-0.00960184
-0.00192721
0.00802606
0.0140898
0.0157254
0.014559
0.192723
0.190887
0.183271
0.164422
0.131824
0.0894725
0.0441009
0.00331455
-0.0260192
-0.0360873
-0.0290415
-0.00271162
0.0153202
0.0146692
0.0119327
0.0126544
0.0153719
0.0170362
0.0164953
0.0148891
0.175651
0.174508
0.169455
0.156667
0.13376
0.102325
0.0666619
0.0324762
0.00566596
-0.00654092
-0.000249604
0.0209474
0.0327771
0.0229401
0.014001
0.00890224
0.00690472
0.00392036
0.00166577
0.000468686
0.14565
0.144977
0.141742
0.133385
0.118038
0.0960723
0.0694439
0.0422746
0.0189408
0.00702593
0.0109669
0.0265701
0.0337229
0.0179679
0.00347436
-0.0048463
-0.0103294
-0.0154026
-0.0181025
-0.0187886
0.114212
0.113929
0.111925
0.106556
0.0963923
0.0812163
0.0618461
0.0407785
0.0206874
0.00713594
0.0054189
0.0149206
0.0163879
-0.000100807
-0.0133796
-0.0212104
-0.0267968
-0.0320548
-0.0342426
-0.0347569
0.0858568
0.0856143
0.0843305
0.0808533
0.0740472
0.0634779
0.0492188
0.032467
0.0142454
-0.00323309
-0.0159975
-0.0197428
-0.0237908
-0.040536
-0.0468888
-0.0471989
-0.0478365
-0.0490548
-0.0501754
-0.0508757
0.0614176
0.0613052
0.0604653
0.058204
0.0536131
0.0461358
0.0353852
0.0214546
0.00384922
-0.0189665
-0.0487209
-0.0805289
-0.101333
-0.100074
-0.090037
-0.0800941
-0.0756482
-0.0740606
-0.0737599
-0.0741948
0.0411206
0.0410483
0.0405131
0.0391173
0.0361333
0.0309507
0.0229596
0.0115094
-0.00526699
-0.0319748
-0.0774876
-0.139789
-0.17472
-0.153118
-0.124255
-0.107497
-0.101515
-0.0998126
-0.0985948
-0.098347
0.0248122
0.0247607
0.0244488
0.0236709
0.0218951
0.0185711
0.0131274
0.00486362
-0.00928222
-0.0351232
-0.0836153
-0.153528
-0.18208
-0.150276
-0.122031
-0.110557
-0.10782
-0.106817
-0.105268
-0.10448
0.0120676
0.0120609
0.0119449
0.0116081
0.0107796
0.00910914
0.00605512
0.000807535
-0.00785682
-0.0250347
-0.0594145
-0.110604
-0.120134
-0.0966628
-0.080283
-0.0790926
-0.0808771
-0.0815381
-0.0801385
-0.079101
0.00198375
0.00201683
0.00196665
0.00199421
0.00216939
0.00212902
0.00174284
0.000968377
-0.000276758
-0.00280828
-0.00852615
-0.018666
-0.0249006
-0.0215299
-0.0243992
-0.0234457
-0.0223567
-0.0212508
-0.0197228
-0.018659
0.0210755
0.210776
0.385204
0.533143
0.652138
0.746617
0.825506
0.889637
0.906104
0.902419
0.313359
0.435487
0.550004
0.649641
0.733719
0.803264
0.858146
0.895267
0.915117
0.931686
0.51173
0.593208
0.673881
0.744762
0.805321
0.85556
0.895082
0.925187
0.947784
0.96702
0.658424
0.716071
0.774536
0.826928
0.872122
0.910583
0.942815
0.969816
0.990162
1.00906
0.77596
0.819279
0.86259
0.903099
0.939187
0.971074
0.998963
1.02257
1.04055
1.0586
0.873641
0.909501
0.944663
0.978513
1.00972
1.03794
1.06284
1.08373
1.09953
1.11701
0.962056
0.994193
1.02652
1.05773
1.08679
1.11319
1.13633
1.15528
1.16921
1.18623
1.04914
1.08178
1.11425
1.14548
1.17427
1.20008
1.22223
1.23977
1.25216
1.26869
1.14362
1.18008
1.21485
1.24733
1.27651
1.30188
1.32301
1.3393
1.35093
1.36707
1.25672
1.29734
1.33437
1.36733
1.39583
1.41983
1.43947
1.45474
1.46665
1.48273
1.39807
1.43918
1.47447
1.50407
1.52928
1.5509
1.56941
1.58489
1.59801
1.61396
1.56967
1.60209
1.62897
1.65129
1.67138
1.6901
1.70785
1.72462
1.73953
1.75526
1.75602
1.77329
1.79041
1.8071
1.82319
1.83793
1.85183
1.86631
1.88156
1.89885
1.93941
1.94938
1.96258
1.97357
1.98297
1.99263
2.00324
2.01342
2.02272
2.04838
2.15731
2.1516
2.13866
2.12441
2.11811
2.12382
2.14196
2.17049
2.20425
2.24058
2.46012
2.32417
2.24467
2.20215
2.18482
2.1888
2.21623
2.2741
2.38177
2.56017
0.77636
0.770056
0.762325
0.751209
0.737635
0.724983
0.71458
0.706562
0.700836
0.697496
0.697137
0.699965
0.705195
0.712551
0.7221
0.733929
0.747491
0.76042
0.76941
0.776951
0.685431
0.69135
0.699421
0.705552
0.708617
0.708102
0.70501
0.701008
0.697411
0.695118
0.694978
0.697227
0.700979
0.705425
0.709526
0.711771
0.710698
0.706061
0.699007
0.691174
0.678685
0.681058
0.684324
0.687094
0.689542
0.691727
0.6929
0.692747
0.691801
0.690986
0.691196
0.692607
0.694388
0.695617
0.695542
0.694075
0.691917
0.689556
0.686574
0.683556
0.673903
0.674991
0.676907
0.679242
0.68111
0.682504
0.683717
0.684702
0.685293
0.685663
0.686213
0.686955
0.687421
0.687304
0.686676
0.685754
0.684424
0.682454
0.680347
0.67887
0.668888
0.669522
0.670649
0.672404
0.674244
0.675833
0.677077
0.678132
0.679105
0.679994
0.680776
0.681297
0.681435
0.68123
0.680694
0.679721
0.678294
0.676685
0.675347
0.674545
0.663975
0.664414
0.665201
0.666502
0.66802
0.669578
0.671048
0.672335
0.673478
0.674555
0.675504
0.676107
0.676288
0.676055
0.675392
0.674394
0.673241
0.672098
0.671195
0.670661
0.659153
0.659481
0.660092
0.661159
0.66245
0.663843
0.665313
0.666777
0.668156
0.669446
0.670589
0.671335
0.671565
0.671323
0.670727
0.669945
0.669101
0.668247
0.667585
0.667194
0.6544
0.654654
0.655147
0.656055
0.657222
0.658524
0.659936
0.661451
0.663016
0.664564
0.665955
0.666875
0.66722
0.667125
0.666745
0.666201
0.66557
0.664943
0.664461
0.664162
0.649642
0.649845
0.650254
0.651052
0.652142
0.653396
0.654794
0.656353
0.658058
0.659851
0.661536
0.662719
0.663301
0.663451
0.663312
0.662994
0.66257
0.662135
0.661793
0.661558
0.644797
0.64496
0.645311
0.646037
0.64708
0.648315
0.649743
0.651385
0.653248
0.655299
0.657332
0.658878
0.659789
0.660233
0.660352
0.660265
0.660054
0.659794
0.659568
0.65938
0.639776
0.639908
0.640218
0.640899
0.641925
0.643186
0.644683
0.646454
0.648528
0.650896
0.653354
0.655351
0.656657
0.65744
0.657849
0.658012
0.658013
0.657921
0.657793
0.657642
0.63449
0.634597
0.63488
0.635542
0.636587
0.637917
0.639526
0.64148
0.643834
0.646605
0.649587
0.652125
0.653896
0.655072
0.65581
0.656243
0.656465
0.656544
0.656502
0.656378
0.628844
0.62893
0.629196
0.629864
0.630964
0.632404
0.634182
0.636386
0.639102
0.642379
0.646004
0.649193
0.651514
0.653143
0.654255
0.655004
0.655473
0.655711
0.655746
0.655643
0.622728
0.622794
0.623055
0.623751
0.624942
0.626539
0.62855
0.631086
0.634266
0.638174
0.642585
0.646555
0.649529
0.651692
0.653231
0.654333
0.655073
0.655485
0.655593
0.655506
0.616011
0.616059
0.616322
0.61707
0.618391
0.620204
0.622521
0.625484
0.629245
0.633931
0.639298
0.64421
0.647961
0.650755
0.652795
0.654294
0.655347
0.655947
0.656126
0.656053
0.60854
0.608569
0.608841
0.609662
0.611158
0.613249
0.615962
0.619464
0.623953
0.629596
0.636124
0.642166
0.646841
0.650376
0.653011
0.654985
0.656392
0.657192
0.657443
0.657379
0.600106
0.600124
0.6004
0.601323
0.603049
0.605498
0.608711
0.61289
0.618281
0.625101
0.633035
0.640431
0.646202
0.650613
0.653952
0.656492
0.658301
0.659323
0.659647
0.65959
0.590413
0.590406
0.590734
0.591801
0.593824
0.59673
0.600577
0.605612
0.612132
0.620399
0.630034
0.63904
0.646106
0.651544
0.655708
0.658907
0.661182
0.662448
0.662844
0.66279
0.579163
0.579134
0.579512
0.58077
0.583166
0.58666
0.59132
0.597439
0.605376
0.61543
0.62712
0.638029
0.646604
0.653246
0.658376
0.662333
0.665142
0.666669
0.667135
0.66708
0.565866
0.565816
0.566271
0.56778
0.570662
0.574926
0.58064
0.588154
0.597879
0.610138
0.624301
0.637443
0.647764
0.655789
0.662043
0.666875
0.670275
0.672073
0.6726
0.672538
0.549877
0.549804
0.550384
0.552243
0.555774
0.561059
0.568168
0.577497
0.589497
0.604482
0.621601
0.63734
0.649651
0.65925
0.666778
0.672594
0.67664
0.678705
0.679279
0.679203
0.530241
0.53015
0.530931
0.533301
0.537746
0.544452
0.553464
0.565212
0.580145
0.598494
0.619105
0.637812
0.652357
0.663704
0.672622
0.67954
0.684251
0.686554
0.68715
0.687053
0.505533
0.505441
0.506557
0.509716
0.515536
0.524318
0.536031
0.551079
0.569817
0.592299
0.616969
0.638976
0.655953
0.669195
0.679632
0.687693
0.693047
0.695521
0.696101
0.695974
0.473423
0.473377
0.475097
0.479618
0.487736
0.499752
0.515443
0.535034
0.558647
0.58609
0.615365
0.640966
0.660523
0.675757
0.687767
0.696982
0.702858
0.70539
0.705906
0.705745
0.429752
0.429906
0.432936
0.440282
0.452691
0.470019
0.491601
0.517325
0.547002
0.580211
0.614559
0.643949
0.666154
0.683393
0.696957
0.707224
0.713397
0.715812
0.716212
0.716017
0.366754
0.368074
0.375423
0.389263
0.409526
0.435293
0.465178
0.498688
0.535506
0.575127
0.614849
0.648096
0.672904
0.692059
0.70699
0.718034
0.72419
0.726265
0.726504
0.726295
0.291541
0.294133
0.308402
0.332215
0.36321
0.398999
0.437904
0.479674
0.524119
0.570798
0.61672
0.654693
0.682846
0.704455
0.721038
0.732675
0.738651
0.740494
0.740694
0.740585
0.214555
0.221449
0.242867
0.276672
0.318117
0.363684
0.411609
0.461702
0.513841
0.56765
0.6199
0.662716
0.694264
0.718353
0.736633
0.748676
0.754096
0.755462
0.755592
0.755554
0.151796
0.16054
0.186575
0.227459
0.277141
0.331015
0.387078
0.444999
0.504536
0.565223
0.623496
0.670826
0.7055
0.73177
0.751232
0.763478
0.768673
0.769924
0.770078
0.770096
0.100397
0.109854
0.139405
0.185563
0.24145
0.301989
0.364936
0.42977
0.496043
0.563133
0.627122
0.678785
0.71639
0.744727
0.765484
0.778207
0.783301
0.784575
0.784812
0.784866
0.0573734
0.0671376
0.0990919
0.149377
0.210358
0.276439
0.345198
0.41603
0.488358
0.561393
0.630799
0.686617
0.727081
0.757421
0.779478
0.792785
0.798146
0.799631
0.799894
0.79997
0.0202628
0.0301634
0.0639214
0.117511
0.182751
0.253588
0.327434
0.403609
0.481443
0.55998
0.634471
0.694274
0.737533
0.769851
0.793269
0.807342
0.813147
0.814737
0.815006
0.815082
-0.0126057
-0.00265201
0.0325287
0.0888582
0.157727
0.2327
0.311063
0.392058
0.47493
0.55861
0.63797
0.701596
0.747531
0.781781
0.806474
0.821382
0.82762
0.829364
0.829643
0.829702
-0.042485
-0.0324891
0.00385227
0.0625421
0.134555
0.21315
0.295532
0.380922
0.468496
0.557069
0.641117
0.708408
0.756918
0.792959
0.818893
0.834526
0.841244
0.843123
0.8434
0.843439
-0.070316
-0.0602588
-0.0228857
0.037898
0.112686
0.194481
0.280475
0.369899
0.461866
0.555091
0.643666
0.714571
0.765548
0.80331
0.83036
0.846645
0.853743
0.855738
0.856002
0.856013
-0.0966583
-0.0865331
-0.0481963
0.0144735
0.0917143
0.176366
0.26562
0.358729
0.454787
0.552469
0.645503
0.719996
0.773399
0.812782
0.840834
0.857599
0.864947
0.867031
0.867284
0.867263
-0.121973
-0.111705
-0.0724643
-0.00808068
0.0713489
0.158559
0.250757
0.347238
0.44713
0.549088
0.646531
0.724634
0.780483
0.821416
0.850321
0.867467
0.874905
0.876993
0.877238
0.877188
-0.14654
-0.136055
-0.0959523
-0.0299931
0.0514008
0.140897
0.235766
0.335342
0.438796
0.544845
0.646663
0.728469
0.786841
0.829313
0.858959
0.876309
0.883719
0.885765
0.885982
0.885915
-0.170462
-0.159733
-0.1188
-0.0513996
0.0317598
0.123311
0.220584
0.32298
0.429726
0.539666
0.645835
0.731489
0.79254
0.8366
0.866896
0.884293
0.89158
0.893529
0.893697
0.893601
-0.193854
-0.182856
-0.141119
-0.0723587
0.0123772
0.105761
0.205188
0.310133
0.419912
0.533526
0.643981
0.733666
0.797644
0.84343
0.87433
0.891606
0.898616
0.900402
0.900509
0.90039
-0.216717
-0.205466
-0.162924
-0.0928968
-0.00675465
0.0882528
0.189602
0.296834
0.40937
0.526405
0.64105
0.734943
0.802193
0.849967
0.88145
0.898393
0.904944
0.906477
0.906495
0.906354
-0.239125
-0.227551
-0.184192
-0.113005
-0.0256172
0.0708196
0.173868
0.283136
0.398143
0.518315
0.637
0.735246
0.806163
0.856348
0.888531
0.904914
0.910691
0.911812
0.911725
0.911574
-0.260865
-0.249069
-0.204905
-0.132668
-0.044168
0.0535295
0.158048
0.269104
0.386299
0.509306
0.631798
0.734483
0.809475
0.862641
0.895894
0.911595
0.916174
0.916559
0.916284
0.916144
-0.28209
-0.26997
-0.225037
-0.15186
-0.0623802
0.03642
0.142233
0.254816
0.37392
0.499449
0.625433
0.732548
0.811985
0.868772
0.903802
0.919103
0.922076
0.921058
0.920272
0.920185
-0.302617
-0.290214
-0.244569
-0.170533
-0.0801734
0.0195759
0.126505
0.240393
0.361111
0.488809
0.617927
0.729336
0.813506
0.874492
0.912241
0.928143
0.929775
0.926552
0.92421
0.92382
-0.322549
-0.309826
-0.263445
-0.188631
-0.0975103
0.00306588
0.110951
0.225915
0.347977
0.477517
0.609336
0.724726
0.813822
0.879402
0.920684
0.938807
0.940848
0.935962
0.929907
0.921093
-0.341768
-0.328798
-0.281754
-0.206317
-0.114614
-0.0133918
0.0952365
0.210979
0.334072
0.465076
0.599152
0.718157
0.812544
0.883249
0.928498
0.950428
0.9555
0.950245
0.939315
0.937936
-0.360234
-0.347207
-0.299489
-0.223534
-0.131467
-0.0297612
0.0793908
0.195567
0.319364
0.45136
0.587193
0.709131
0.808916
0.885245
0.933738
0.958825
0.966294
0.963788
0.929835
0.891203
-0.377713
-0.364915
-0.316582
-0.240165
-0.148059