/*--------------------------------*- C++ -*----------------------------------*\
  =========                 |
  \\      /  F ield         | OpenFOAM: The Open Source CFD Toolbox
   \\    /   O peration     | Website:  https://openfoam.org
    \\  /    A nd           | Version:  6
     \\/     M anipulation  |
\*---------------------------------------------------------------------------*/
FoamFile
{
    version     2.0;
    format      ascii;
    class       volScalarField;
    location    "8.5";
    object      p;
}
// * * * * * * * * * * * * * * * * * * * * * * * * * * * * * * * * * * * * * //

dimensions      [0 2 -2 0 0 0 0];

internalField   nonuniform List<scalar> 
8800
(
0.43404
0.384827
0.347023
0.31914
0.299175
0.284815
0.274531
0.267318
0.262697
0.260697
0.261632
0.265319
0.271457
0.280281
0.292549
0.309546
0.333142
0.366004
0.408773
0.461214
0.268169
0.274594
0.283892
0.28772
0.285487
0.279866
0.273424
0.267611
0.263055
0.260178
0.259704
0.261912
0.265995
0.271448
0.277846
0.284205
0.28857
0.288021
0.281089
0.272041
0.241084
0.247647
0.252861
0.257464
0.261161
0.262761
0.262049
0.259972
0.257838
0.256621
0.257416
0.259607
0.262133
0.263912
0.263674
0.260984
0.256795
0.25194
0.246523
0.242708
0.236193
0.2391
0.242287
0.245
0.247108
0.248803
0.250133
0.250957
0.251263
0.251495
0.251736
0.251965
0.251789
0.250953
0.249613
0.24784
0.245512
0.242495
0.239561
0.238031
0.232342
0.233757
0.236818
0.240082
0.242577
0.244402
0.245707
0.246544
0.247075
0.247461
0.247777
0.2479
0.24763
0.246809
0.245416
0.243418
0.240618
0.237288
0.235052
0.234522
0.232278
0.232783
0.234037
0.235596
0.237363
0.239242
0.240928
0.242257
0.243195
0.24382
0.24412
0.243976
0.243319
0.242165
0.240589
0.238863
0.237313
0.235916
0.235072
0.234891
0.23105
0.231314
0.232003
0.232922
0.233918
0.234776
0.235805
0.236851
0.237819
0.23856
0.238926
0.238848
0.23842
0.237789
0.237148
0.236404
0.235578
0.234803
0.234367
0.234272
0.228821
0.228943
0.22935
0.229977
0.230696
0.231702
0.232737
0.23375
0.234704
0.235549
0.236038
0.236085
0.235808
0.235282
0.234656
0.234048
0.233544
0.233085
0.232868
0.23283
0.225924
0.225985
0.22622
0.226625
0.227115
0.227717
0.228439
0.229295
0.230229
0.231139
0.23181
0.232113
0.232132
0.232
0.23178
0.231527
0.231267
0.231044
0.230951
0.230933
0.222667
0.222709
0.222873
0.223172
0.223584
0.224125
0.224809
0.225638
0.226605
0.227655
0.228539
0.229078
0.229333
0.229395
0.229342
0.229236
0.229111
0.229006
0.228963
0.228951
0.219034
0.219063
0.219181
0.219406
0.219743
0.22022
0.220871
0.221724
0.222788
0.224028
0.225178
0.225988
0.226486
0.226766
0.226905
0.22696
0.226967
0.226958
0.226955
0.226947
0.215027
0.215054
0.215159
0.215365
0.215689
0.216171
0.216859
0.2178
0.219029
0.220536
0.222018
0.223139
0.223888
0.224376
0.224675
0.22485
0.224946
0.224995
0.225016
0.22501
0.210627
0.210651
0.210767
0.210983
0.211333
0.211867
0.212649
0.213749
0.215224
0.217086
0.218974
0.220444
0.221498
0.2222
0.222658
0.222944
0.223116
0.223213
0.223252
0.223248
0.205804
0.205831
0.205962
0.206213
0.206621
0.207252
0.208188
0.209521
0.211335
0.213664
0.216068
0.21799
0.21936
0.220302
0.220925
0.221325
0.221571
0.22171
0.221767
0.221764
0.200475
0.200506
0.200666
0.200971
0.20147
0.202245
0.203399
0.205054
0.207321
0.210251
0.213301
0.215752
0.21752
0.218742
0.219557
0.220083
0.220409
0.220595
0.220671
0.220667
0.194519
0.194558
0.194758
0.195141
0.195768
0.19674
0.198191
0.200274
0.203132
0.206834
0.210695
0.213805
0.216053
0.217611
0.218653
0.219327
0.219746
0.219986
0.220083
0.220079
0.187773
0.187823
0.188079
0.188567
0.189366
0.190604
0.192449
0.195093
0.198717
0.203404
0.208284
0.212211
0.215049
0.217016
0.218334
0.219186
0.219717
0.22002
0.220144
0.220138
0.180016
0.180081
0.180412
0.181042
0.182071
0.183662
0.186027
0.189406
0.194018
0.199958
0.206117
0.211059
0.214624
0.217093
0.218747
0.219818
0.220484
0.220864
0.221019
0.221011
0.17095
0.171036
0.171468
0.172289
0.173628
0.175693
0.178746
0.183084
0.18897
0.196501
0.204261
0.210458
0.214918
0.218005
0.220071
0.221409
0.222241
0.222716
0.222908
0.222898
0.160167
0.160285
0.160854
0.161937
0.163704
0.166409
0.170381
0.175979
0.18351
0.193054
0.202804
0.210546
0.216104
0.219947
0.222521
0.224187
0.225222
0.225811
0.22605
0.226037
0.147094
0.147256
0.148019
0.14948
0.15185
0.155442
0.160653
0.167922
0.177578
0.189659
0.201862
0.211487
0.21838
0.22315
0.226349
0.228422
0.229707
0.230435
0.230728
0.230713
0.130904
0.131126
0.132176
0.134205
0.137458
0.142295
0.149213
0.158722
0.171131
0.186382
0.201569
0.21346
0.221969
0.227871
0.231846
0.234433
0.236035
0.236935
0.237295
0.237274
0.110384
0.110702
0.112197
0.115104
0.119661
0.126315
0.135663
0.148201
0.16416
0.18332
0.202074
0.216647
0.227088
0.234375
0.239327
0.242581
0.244612
0.24575
0.246196
0.246163
0.0836446
0.0841241
0.0863941
0.0907763
0.0974039
0.106827
0.119671
0.136307
0.156771
0.18064
0.203544
0.221216
0.233928
0.242902
0.249098
0.253249
0.255896
0.257398
0.257978
0.257925
0.0473241
0.0481922
0.0521061
0.0592755
0.0694914
0.0833363
0.101224
0.123269
0.149268
0.178611
0.206176
0.227308
0.242614
0.253604
0.261387
0.266773
0.270349
0.272438
0.273264
0.273194
-0.00511483
-0.00265849
0.00554868
0.0184816
0.0351353
0.0558314
0.0806796
0.109556
0.142077
0.177525
0.210113
0.234951
0.253095
0.266406
0.276162
0.283256
0.288284
0.291472
0.292844
0.292766
-0.0837236
-0.0721295
-0.0535354
-0.0303673
-0.00413318
0.0255898
0.0589103
0.095651
0.13542
0.17755
0.21564
0.244643
0.266126
0.282332
0.294753
0.30443
0.311984
0.317516
0.320613
0.321179
-0.166203
-0.14308
-0.113046
-0.0794273
-0.0434446
-0.00464559
0.0371049
0.0817832
0.129144
0.178667
0.223274
0.257488
0.283274
0.303249
0.319118
0.332017
0.342694
0.352041
0.357857
0.358771
-0.231898
-0.204785
-0.166764
-0.124834
-0.0803418
-0.0332099
0.0164982
0.0687675
0.123377
0.179877
0.230463
0.269147
0.298286
0.320886
0.338834
0.35337
0.365238
0.374846
0.380497
0.381493
-0.283105
-0.253859
-0.211252
-0.16374
-0.112958
-0.0592728
-0.0027752
0.056248
0.117468
0.180317
0.236095
0.278366
0.309873
0.333959
0.35274
0.367649
0.379663
0.389274
0.394969
0.396063
-0.324223
-0.294161
-0.248431
-0.196722
-0.141261
-0.082405
-0.0204046
0.0443715
0.11143
0.180034
0.240545
0.285941
0.319321
0.344468
0.363796
0.378912
0.3909
0.40026
0.405929
0.407061
-0.358786
-0.328405
-0.280497
-0.22557
-0.166377
-0.103261
-0.036592
0.0332414
0.10561
0.179542
0.244418
0.292636
0.32768
0.35373
0.373469
0.38869
0.400612
0.409827
0.415408
0.416555
-0.388949
-0.358479
-0.308999
-0.251548
-0.189272
-0.122574
-0.0518325
0.0224742
0.0996538
0.178562
0.247667
0.298683
0.335387
0.362347
0.382525
0.397901
0.409812
0.418919
0.424404
0.425546
-0.416181
-0.385596
-0.334889
-0.275433
-0.210662
-0.140965
-0.066721
0.0116084
0.0933002
0.177091
0.250474
0.304416
0.342897
0.370863
0.391555
0.40714
0.419085
0.428115
0.43351
0.434658
-0.441372
-0.410644
-0.358964
-0.297875
-0.231017
-0.158764
-0.0814337
0.000545602
0.0864962
0.175084
0.252886
0.309982
0.350452
0.37959
0.400913
0.416787
0.428814
0.437788
0.443079
0.444234
-0.465262
-0.434286
-0.381763
-0.319294
-0.250673
-0.176218
-0.0961842
-0.0109084
0.0790511
0.172415
0.254865
0.315431
0.358191
0.388728
0.410837
0.427096
0.439254
0.448214
0.45341
0.454584
-0.488093
-0.456862
-0.403626
-0.340016
-0.269912
-0.193577
-0.111175
-0.0229023
0.070857
0.168977
0.256327
0.320741
0.366155
0.398382
0.421481
0.438259
0.450628
0.459615
0.464716
0.46586
-0.51021
-0.478611
-0.424762
-0.360182
-0.288827
-0.210898
-0.12645
-0.035502
0.0618192
0.164643
0.257129
0.325812
0.3743
0.408575
0.432926
0.450395
0.463079
0.472136
0.477146
0.478229
-0.531664
-0.499731
-0.445292
-0.379878
-0.307482
-0.228222
-0.142032
-0.0487331
0.0518783
0.159322
0.257129
0.330469
0.382505
0.419242
0.445169
0.463556
0.4767
0.485897
0.490829
0.491786
-0.552461
-0.520219
-0.465221
-0.399118
-0.325867
-0.245532
-0.15791
-0.0625867
0.041012
0.15293
0.256156
0.3345
0.390541
0.430233
0.458141
0.477738
0.491547
0.501007
0.505876
0.506639
-0.57263
-0.540051
-0.484535
-0.417864
-0.343946
-0.262769
-0.174018
-0.077011
0.0292422
0.145411
0.254084
0.337657
0.398126
0.441312
0.471711
0.492872
0.507543
0.517352
0.522219
0.522793
-0.592189
-0.559219
-0.503204
-0.436076
-0.361645
-0.279864
-0.190275
-0.0919435
0.0166152
0.136736
0.250782
0.339666
0.404894
0.452131
0.485623
0.508851
0.52467
0.534971
0.53982
0.540173
-0.610943
-0.577641
-0.52117
-0.453681
-0.378897
-0.296722
-0.206596
-0.107279
0.00319105
0.126957
0.246159
0.340316
0.410436
0.462163
0.499474
0.525453
0.542827
0.553717
0.558433
0.558487
-0.628812
-0.595215
-0.53836
-0.47061
-0.395616
-0.313262
-0.222865
-0.12293
-0.0109194
0.116093
0.24023
0.339443
0.414325
0.470734
0.512578
0.542325
0.561953
0.573353
0.577659
0.577333
-0.645852
-0.611927
-0.554745
-0.486823
-0.411736
-0.329388
-0.238988
-0.138772
-0.0256258
0.104235
0.233006
0.336889
0.41615
0.477021
0.523966
0.558985
0.582572
0.594574
0.597106
0.596032
-0.661943
-0.627756
-0.57028
-0.502248
-0.427196
-0.345018
-0.254856
-0.1547
-0.0407963
0.0915141
0.224521
0.332711
0.415699
0.480505
0.532672
0.574191
0.604537
0.619814
0.61836
0.612935
-0.67719
-0.642721
-0.584977
-0.51691
-0.442028
-0.360193
-0.270527
-0.170784
-0.0565402
0.0778385
0.214691
0.326775
0.412896
0.480613
0.537089
0.585393
0.625235
0.651057
0.650827
0.640475
-0.691555
-0.656881
-0.598919
-0.530977
-0.45648
-0.375217
-0.286399
-0.187539
-0.0734927
0.0624955
0.202821
0.318392
0.406968
0.476043
0.533653
0.586631
0.633186
0.662483
0.661119
0.641178
-0.704959
-0.670147
-0.611937
-0.544323
-0.47034
-0.389826
-0.302247
-0.204602
-0.0913146
0.0457692
0.189187
0.307705
0.397687
0.466042
0.517747
0.567875
0.606979
0.616054
0.558513
0.518074
-0.717294
-0.682454
-0.623726
-0.556493
-0.483141
-0.403667
-0.317841
-0.221833
-0.110001
0.0275962
0.173917
0.294892
0.385279
0.451531
0.490699
0.520937
0.540756
0.503568
0.430767
0.383136
-0.756597
-0.692145
-0.63471
-0.56791
-0.495527
-0.417393
-0.333155
-0.239495
-0.129972
0.00740751
0.156409
0.279366
0.367407
0.434035
0.452573
0.447269
0.420714
0.357994
0.273184
0.227667
-0.719928
-0.703119
-0.650022
-0.584642
-0.513471
-0.437084
-0.355983
-0.266418
-0.160559
-0.0229714
0.130117
0.252269
0.330553
0.378485
0.375773
0.25052
0.13454
0.0572315
-0.0234553
0.0268431
-0.746078
-0.715413
-0.661869
-0.597041
-0.526687
-0.4518
-0.372556
-0.286013
-0.183893
-0.0482547
0.109209
0.231443
0.299616
0.312864
0.240035
0.0624922
-0.0908855
-0.194843
-0.308006
-0.21829
-0.764044
-0.730547
-0.675454
-0.610709
-0.540977
-0.46752
-0.390573
-0.307928
-0.210683
-0.0782009
0.0812949
0.206239
0.260698
0.235069
0.0863795
-0.153806
-0.346489
-0.486296
-0.641103
-0.546915
-0.780199
-0.745337
-0.689116
-0.624094
-0.554921
-0.482943
-0.408768
-0.330554
-0.239288
-0.111525
0.0529115
0.182935
0.216054
0.143738
-0.0946884
-0.386945
-0.64286
-0.856833
-1.06504
-0.992722
-0.79483
-0.759454
-0.702588
-0.637443
-0.568877
-0.498499
-0.427438
-0.354335
-0.270301
-0.147207
0.0280203
0.165068
0.170186
0.0412745
-0.276059
-0.62547
-0.95382
-1.24449
-1.59036
-1.69189
-0.8085
-0.773175
-0.716047
-0.650931
-0.58297
-0.514283
-0.446564
-0.379506
-0.303967
-0.188804
-0.00225289
0.140031
0.124218
-0.0671098
-0.445385
-0.840853
-1.22185
-1.53968
-1.80481
-2.14841
-0.821817
-0.786649
-0.729476
-0.664477
-0.59723
-0.530383
-0.466433
-0.406339
-0.342314
-0.239186
-0.0432436
0.110068
0.0738857
-0.204265
-0.605434
-1.02427
-1.40701
-1.63064
-1.69316
-1.7272
-0.834974
-0.799834
-0.742632
-0.677828
-0.611418
-0.546562
-0.486915
-0.43508
-0.386709
-0.300631
-0.0999287
0.081118
-0.00018181
-0.355426
-0.753823
-1.16254
-1.51772
-1.63596
-1.65532
-1.65678
-0.847941
-0.812578
-0.755288
-0.69067
-0.625106
-0.562396
-0.507503
-0.465689
-0.436704
-0.37665
-0.178355
0.0118594
-0.104711
-0.526248
-0.900794
-1.26957
-1.62301
-1.684
-1.6457
-1.62933
-0.860447
-0.824683
-0.767137
-0.702618
-0.637811
-0.57726
-0.527448
-0.497311
-0.492934
-0.478781
-0.310456
-0.133374
-0.274422
-0.73133
-1.07344
-1.31859
-1.62794
-1.62828
-1.605
-1.59192
-0.872089
-0.835703
-0.777773
-0.713182
-0.648939
-0.590332
-0.54574
-0.528429
-0.557229
-0.625784
-0.548308
-0.40823
-0.541518
-0.985619
-1.2636
-1.29261
-1.28356
-1.44379
-1.55484
-1.58384
-0.882247
-0.845188
-0.786711
-0.721802
-0.657784
-0.600664
-0.560836
-0.557041
-0.627779
-0.827919
-0.941997
-0.845943
-0.889708
-1.31008
-1.55746
-1.49872
-1.48403
-1.61628
-1.73707
-1.78458
-0.890627
-0.852674
-0.793416
-0.727886
-0.663547
-0.607141
-0.570862
-0.579681
-0.69555
-1.06926
-1.50782
-1.42255
-1.31406
-1.74548
-2.2393
-2.46877
-2.51342
-2.4266
-2.35031
-2.33775
-0.896849
-0.857733
-0.797415
-0.730829
-0.665493
-0.608539
-0.573711
-0.591284
-0.746108
-1.30255
-2.14486
-1.9565
-1.72711
-2.1191
-2.99407
-3.53463
-3.6211
-3.3934
-3.13387
-3.01282
-0.900511
-0.860015
-0.798298
-0.730195
-0.662981
-0.603928
-0.567276
-0.586249
-0.759737
-1.44984
-2.55216
-2.18796
-1.76932
-2.05641
-3.00327
-3.9621
-4.00868
-3.51333
-3.07953
-2.90605
-0.901269
-0.859321
-0.795858
-0.725726
-0.655733
-0.592781
-0.550284
-0.560026
-0.717204
-1.38717
-2.4622
-1.84714
-1.25681
-1.24407
-1.66797
-2.27438
-2.21582
-1.76167
-1.43247
-1.31281
-0.899195
-0.855644
-0.790149
-0.717513
-0.643887
-0.575292
-0.523074
-0.512501
-0.61453
-1.07902
-1.78098
-1.04609
-0.28889
0.153416
0.301418
0.308179
0.390179
0.513673
0.5774
0.596351
-0.894587
-0.849286
-0.781421
-0.705875
-0.628067
-0.552685
-0.487891
-0.449701
-0.474845
-0.653907
-0.792003
-0.16943
0.469727
0.874451
1.14058
1.32466
1.43247
1.48325
1.49722
1.49647
-0.886776
-0.839925
-0.76982
-0.691282
-0.609032
-0.526503
-0.448431
-0.381893
-0.335344
-0.29746
-0.111803
0.345796
0.797652
1.12308
1.33694
1.48328
1.57368
1.62368
1.6461
1.6497
-0.874107
-0.827126
-0.755149
-0.673698
-0.5874
-0.498332
-0.408375
-0.318163
-0.221234
-0.0798087
0.189393
0.543764
0.857606
1.10094
1.2678
1.38131
1.45812
1.50866
1.53635
1.54251
-0.856163
-0.809426
-0.736231
-0.652441
-0.562996
-0.468839
-0.369927
-0.26338
-0.137991
0.0409995
0.301645
0.582738
0.819436
1.00259
1.1349
1.22929
1.29716
1.34514
1.37188
1.37858
-0.827803
-0.782299
-0.710242
-0.625648
-0.534532
-0.437615
-0.333601
-0.218338
-0.0809433
0.10361
0.335766
0.561919
0.748275
0.892822
1.00129
1.08209
1.14243
1.18637
1.21113
1.21787
-0.783353
-0.741767
-0.673685
-0.589997
-0.499782
-0.403219
-0.298515
-0.181539
-0.0435594
0.13167
0.332484
0.516299
0.66579
0.782796
0.87303
0.942435
0.99586
1.03513
1.0585
1.06592
-0.719764
-0.684816
-0.620921
-0.541622
-0.455775
-0.363556
-0.262922
-0.150411
-0.0197265
0.138744
0.308513
0.457955
0.57767
0.671882
0.74578
0.804022
0.849589
0.883781
0.906123
0.913243
-0.62796
-0.603809
-0.547383
-0.476651
-0.39988
-0.316367
-0.224519
-0.121967
-0.00453695
0.133139
0.274578
0.393133
0.486252
0.558758
0.615354
0.659995
0.695864
0.723836
0.741089
0.74591
-0.495404
-0.483274
-0.444251
-0.390233
-0.329089
-0.260312
-0.182813
-0.0947507
0.00656862
0.12411
0.242733
0.340796
0.416542
0.474222
0.517883
0.550837
0.575273
0.593719
0.606371
0.610166
-0.352649
-0.3477
-0.324891
-0.290584
-0.2484
-0.197593
-0.137601
-0.0662613
0.0176734
0.116026
0.214498
0.294981
0.356102
0.401685
0.434878
0.458447
0.474788
0.485761
0.491979
0.493208
-0.224579
-0.222301
-0.211042
-0.192557
-0.167106
-0.133785
-0.0906058
-0.0364877
0.0301506
0.109944
0.190383
0.25575
0.304594
0.33981
0.36452
0.381471
0.392579
0.399029
0.40226
0.402802
-0.12289
-0.122988
-0.119286
-0.110934
-0.0971073
-0.0765201
-0.0472525
-0.00772519
0.0435203
0.106883
0.171472
0.223652
0.262091
0.289461
0.308195
0.320165
0.32738
0.331381
0.333014
0.333107
-0.0515363
-0.0524859
-0.0532444
-0.0512771
-0.0447443
-0.0321985
-0.0124557
0.0161466
0.0548539
0.104226
0.155338
0.19671
0.226855
0.247686
0.261402
0.270106
0.275203
0.277718
0.27859
0.278552
-0.0072001
-0.00811266
-0.0097996
-0.0101119
-0.00743666
-0.00018614
0.0131328
0.0338907
0.063172
0.10136
0.141266
0.173488
0.196796
0.212906
0.223485
0.229892
0.233352
0.234917
0.235382
0.235332
0.0188965
0.0183235
0.0171462
0.0167805
0.0184283
0.0231122
0.0321475
0.0469942
0.068881
0.0982358
0.129351
0.154565
0.172705
0.184967
0.19275
0.197385
0.19987
0.200925
0.201201
0.201159
0.0350387
0.0347229
0.0340701
0.0339134
0.0351249
0.0385631
0.0452367
0.0562461
0.0726737
0.0950822
0.119063
0.138471
0.152333
0.161682
0.167637
0.171142
0.172961
0.173695
0.173879
0.173845
0.0454974
0.0453249
0.0449641
0.0449666
0.0459161
0.0484318
0.0533298
0.0615625
0.0740116
0.091153
0.10962
0.124612
0.135325
0.142506
0.147014
0.149636
0.150988
0.151528
0.151663
0.151635
0.0519553
0.0518631
0.0516782
0.0517802
0.052591
0.0545651
0.0582929
0.0645012
0.0739353
0.0870407
0.101233
0.112748
0.120938
0.126402
0.129825
0.131809
0.132819
0.133212
0.133307
0.133283
0.0554849
0.0554325
0.0553439
0.0554834
0.0561532
0.0576917
0.0605524
0.0652939
0.0724905
0.0825098
0.0933915
0.102228
0.10851
0.112692
0.115301
0.116802
0.11756
0.117848
0.117915
0.117893
0.0568562
0.0568256
0.0567937
0.0569476
0.0575061
0.0587201
0.0609285
0.0645586
0.070061
0.0777336
0.086079
0.0928532
0.0976595
0.10085
0.102834
0.10397
0.104538
0.104749
0.104794
0.104775
0.0566226
0.0566031
0.0565966
0.0567402
0.0571948
0.0581495
0.0598603
0.062651
0.0668668
0.0727426
0.0791365
0.084324
0.0879996
0.0904348
0.0919441
0.0928042
0.0932297
0.0933836
0.0934132
0.093397
0.0551618
0.0551483
0.0551516
0.0552747
0.0556382
0.0563846
0.0577079
0.0598542
0.0630873
0.0675895
0.0724872
0.0764576
0.0792665
0.0811231
0.08227
0.0829199
0.0832377
0.0833488
0.0833675
0.0833539
0.0527534
0.0527435
0.0527493
0.0528495
0.0531354
0.0537155
0.0547373
0.0563873
0.0588665
0.0623151
0.0660649
0.0691013
0.0712459
0.07266
0.0735306
0.074021
0.0742578
0.0743374
0.0743486
0.0743371
0.0496111
0.0496034
0.0496088
0.0496877
0.0499098
0.0503578
0.051144
0.0524103
0.0543096
0.0569491
0.0598184
0.062139
0.0637742
0.0648495
0.0655091
0.0658783
0.0660541
0.0661108
0.066117
0.0661075
0.0459014
0.0458952
0.0458991
0.0459598
0.0461304
0.0464743
0.0470769
0.0480461
0.0494979
0.0515132
0.0537088
0.0554809
0.0567243
0.0575399
0.0580383
0.0583156
0.0584458
0.0584857
0.0584885
0.0584806
0.0417542
0.0417491
0.0417514
0.0417971
0.0419269
0.0421891
0.0426488
0.043388
0.0444937
0.0460212
0.0477123
0.04906
0.0499983
0.0506146
0.0509898
0.051197
0.0512927
0.0513204
0.0513211
0.0513146
0.0372707
0.0372664
0.0372671
0.0373008
0.0373984
0.0375967
0.0379451
0.0385059
0.0393455
0.0405104
0.0417856
0.0428055
0.0435173
0.0439818
0.044263
0.0444168
0.0444865
0.044505
0.0445042
0.044499
0.0325301
0.0325263
0.0325258
0.0325496
0.0326216
0.0327696
0.0330311
0.0334533
0.0340864
0.0349662
0.0359212
0.0366883
0.0372235
0.0375711
0.0377805
0.0378941
0.0379442
0.0379561
0.0379544
0.0379502
0.0275945
0.0275912
0.0275893
0.0276051
0.0276569
0.0277655
0.027959
0.0282726
0.0287441
0.0293993
0.0301087
0.0306782
0.0310748
0.0313313
0.0314847
0.0315668
0.0316019
0.0316089
0.0316065
0.0316031
0.0225116
0.0225086
0.0225057
0.0225155
0.0225514
0.022629
0.0227686
0.0229963
0.0233395
0.0238171
0.0243327
0.0247465
0.0250345
0.02522
0.0253297
0.025387
0.0254101
0.0254131
0.0254102
0.0254074
0.0173187
0.0173159
0.0173122
0.017317
0.0173402
0.0173928
0.0174893
0.0176478
0.0178879
0.0182225
0.0185835
0.0188724
0.019073
0.0192013
0.0192762
0.0193144
0.0193284
0.0193284
0.0193252
0.019323
0.012046
0.0120437
0.0120394
0.0120403
0.0120534
0.0120857
0.0121469
0.0122486
0.0124034
0.0126198
0.0128532
0.0130396
0.0131684
0.0132502
0.0132973
0.0133203
0.0133274
0.0133255
0.0133222
0.0133205
0.0067163
0.0067145
0.00671054
0.00670946
0.00671506
0.00673126
0.00676292
0.00681628
0.00689812
0.00701299
0.00713682
0.00723588
0.00730393
0.00734668
0.00737061
0.00738132
0.0073833
0.00738037
0.00737746
0.00737632
0.00134852
0.00134828
0.0013467
0.00134283
0.00134166
0.00134357
0.00134837
0.00135689
0.0013703
0.00138993
0.00141491
0.00143819
0.00145491
0.00146598
0.00147267
0.00147614
0.00147689
0.00147416
0.00147087
0.00147011
-0.77781
-0.484926
-0.214484
0.000685482
0.178272
0.324848
0.452488
0.559579
0.599709
0.591406
-0.321788
-0.136304
0.0323464
0.178519
0.303804
0.409922
0.496488
0.557626
0.589959
0.603827
-0.0208715
0.0955175
0.210577
0.312755
0.40085
0.474961
0.533617
0.577059
0.60648
0.624963
0.182915
0.26329
0.344764
0.417327
0.480705
0.534256
0.577999
0.61293
0.637971
0.65682
0.335625
0.392882
0.45222
0.506666
0.554363
0.595792
0.631283
0.659922
0.680663
0.698815
0.457284
0.5017
0.54752
0.590329
0.628741
0.662843
0.692224
0.716384
0.734153
0.751704
0.562304
0.59991
0.63734
0.673731
0.707575
0.737848
0.763789
0.784751
0.799907
0.817078
0.657754
0.694018
0.730112
0.764682
0.796028
0.823945
0.847991
0.866839
0.880206
0.896906
0.757925
0.796424
0.83318
0.867577
0.898738
0.925604
0.947765
0.964959
0.97711
0.99346
0.874392
0.916359
0.954814
0.988728
1.01807
1.04298
1.06343
1.0793
1.09162
1.10784
1.01751
1.05952
1.09566
1.12607
1.15185
1.17399
1.19293
1.20865
1.22211
1.23831
1.19075
1.22328
1.25056
1.27339
1.2939
1.31288
1.33093
1.34796
1.36316
1.37908
1.378
1.39539
1.41256
1.42934
1.44569
1.46068
1.47472
1.48941
1.50474
1.52197
1.5613
1.57163
1.58481
1.59584
1.60536
1.61523
1.62606
1.63637
1.64571
1.67129
1.77839
1.77336
1.76092
1.74695
1.74084
1.74657
1.76473
1.79324
1.82698
1.86332
2.0837
1.94657
1.86705
1.8245
1.80709
1.81127
1.83868
1.89662
2.00443
2.18287
0.337627
0.331402
0.323842
0.312925
0.299598
0.287215
0.277181
0.269534
0.264097
0.260927
0.260426
0.262731
0.267369
0.274116
0.283087
0.294456
0.307673
0.320318
0.329075
0.336464
0.246015
0.252033
0.260478
0.267221
0.270931
0.27109
0.268471
0.264789
0.261335
0.258885
0.258468
0.260509
0.263853
0.26777
0.27127
0.27278
0.27093
0.265574
0.257939
0.249836
0.238871
0.241279
0.244985
0.248303
0.251265
0.253972
0.255714
0.256011
0.255304
0.254532
0.25452
0.255464
0.256679
0.257244
0.256396
0.254205
0.251396
0.248401
0.244828
0.241524
0.233684
0.234633
0.237304
0.240752
0.243422
0.2452
0.246423
0.247429
0.248224
0.248751
0.249093
0.249178
0.248951
0.248356
0.247515
0.246203
0.244094
0.241002
0.237743
0.235978
0.232191
0.232474
0.23402
0.236525
0.238996
0.241245
0.243188
0.244582
0.245399
0.245903
0.246291
0.246563
0.24644
0.24568
0.244182
0.242252
0.240015
0.237556
0.235418
0.234632
0.231878
0.232012
0.232564
0.23351
0.234598
0.235878
0.237162
0.238417
0.239584
0.240485
0.241024
0.241056
0.240632
0.239878
0.238979
0.237833
0.236771
0.235852
0.235104
0.234813
0.230025
0.230086
0.230462
0.231209
0.232108
0.233008
0.233979
0.235044
0.236015
0.236886
0.237503
0.23772
0.237528
0.237037
0.236381
0.235811
0.235063
0.23433
0.233801
0.233634
0.227433
0.227455
0.227626
0.228021
0.228524
0.229186
0.230052
0.230936
0.231906
0.232839
0.233595
0.233958
0.233958
0.233739
0.233351
0.232833
0.232534
0.232197
0.231978
0.23192
0.224339
0.224352
0.224468
0.224751
0.225158
0.225668
0.226298
0.227052
0.227934
0.228899
0.229801
0.230406
0.230679
0.230733
0.230649
0.230488
0.230296
0.230102
0.229982
0.229951
0.220898
0.220904
0.220984
0.22118
0.221489
0.221918
0.222498
0.223249
0.224178
0.225261
0.226373
0.227225
0.227733
0.22799
0.228088
0.228095
0.228056
0.228
0.227965
0.227953
0.217078
0.217084
0.217145
0.217306
0.217571
0.217965
0.218526
0.219297
0.220308
0.221565
0.222944
0.2241
0.224888
0.225377
0.225672
0.225835
0.225916
0.225951
0.225966
0.225968
0.212878
0.21288
0.212947
0.213103
0.213368
0.213778
0.214386
0.21525
0.216423
0.217935
0.219663
0.221188
0.222249
0.222994
0.223468
0.223766
0.223944
0.224044
0.224095
0.224106
0.208272
0.208273
0.208345
0.20852
0.208817
0.209285
0.209989
0.211008
0.212421
0.21428
0.216455
0.218412
0.219854
0.220845
0.221511
0.221942
0.222211
0.22237
0.222452
0.22247
0.20321
0.203209
0.203295
0.203502
0.203857
0.204419
0.205273
0.206519
0.208263
0.210583
0.213329
0.215835
0.217688
0.218988
0.219869
0.220446
0.220811
0.221029
0.221141
0.221167
0.197585
0.197583
0.19769
0.197946
0.198386
0.199085
0.200147
0.201703
0.203889
0.206809
0.21028
0.213462
0.215824
0.217492
0.218626
0.219372
0.219845
0.22013
0.220276
0.22031
0.191259
0.191257
0.191393
0.191717
0.192275
0.193159
0.194503
0.19647
0.199235
0.202927
0.207318
0.211343
0.214333
0.216447
0.217886
0.218834
0.219436
0.219799
0.219985
0.220029
0.184042
0.184039
0.184215
0.184632
0.185348
0.18648
0.188198
0.190707
0.194223
0.198908
0.204461
0.209539
0.213305
0.215966
0.217777
0.21897
0.219729
0.220187
0.220422
0.220476
0.175674
0.175671
0.175902
0.176445
0.177375
0.178838
0.18105
0.184271
0.188765
0.194719
0.201739
0.20813
0.212855
0.216187
0.218455
0.219949
0.2209
0.221474
0.221768
0.221834
0.165801
0.165798
0.166105
0.166824
0.168044
0.169951
0.172825
0.176986
0.182752
0.190332
0.199198
0.207217
0.213121
0.217279
0.220107
0.221971
0.223159
0.223879
0.224246
0.224328
0.153935
0.153933
0.154353
0.15532
0.156936
0.159447
0.163215
0.168632
0.176062
0.185723
0.196899
0.206922
0.214271
0.219439
0.222955
0.225276
0.226761
0.227665
0.228126
0.228227
0.1394
0.139407
0.139998
0.14132
0.143488
0.146841
0.151848
0.158962
0.168579
0.180892
0.19493
0.207394
0.216494
0.222894
0.227257
0.230145
0.232003
0.233145
0.233732
0.233857
0.121201
0.121231
0.122099
0.12395
0.126935
0.131535
0.13831
0.147739
0.160231
0.175894
0.193423
0.208808
0.220002
0.227895
0.233302
0.236901
0.23923
0.240679
0.241436
0.241598
0.097774
0.0978604
0.0992071
0.101908
0.106202
0.112728
0.122088
0.13475
0.151023
0.170857
0.192554
0.211352
0.225005
0.234689
0.241391
0.2459
0.248843
0.250691
0.251672
0.251893
0.0665648
0.0668053
0.0690305
0.0732457
0.0798313
0.0894947
0.102733
0.119883
0.141055
0.16597
0.192507
0.215184
0.231651
0.243453
0.251767
0.257481
0.261291
0.263716
0.265021
0.265322
0.0230222
0.023671
0.0278467
0.0352978
0.0461774
0.0610443
0.0800641
0.103311
0.130615
0.161492
0.193453
0.220386
0.239968
0.2542
0.264485
0.271819
0.276924
0.280348
0.282248
0.28265
-0.0412159
-0.0388051
-0.0290777
-0.0144339
0.00454535
0.0276976
0.0548303
0.0858056
0.120322
0.157829
0.195581
0.226967
0.249829
0.266702
0.279255
0.288622
0.295562
0.3006
0.303631
0.304099
-0.119262
-0.114184
-0.0955028
-0.0694266
-0.0398422
-0.00715737
0.0287468
0.0678847
0.110091
0.154919
0.19944
0.236442
0.263772
0.284479
0.300501
0.313095
0.323181
0.331102
0.335303
0.337131
-0.197624
-0.186119
-0.158252
-0.12217
-0.0829786
-0.04115
0.00337154
0.0506245
0.100494
0.152645
0.203982
0.246607
0.278261
0.302519
0.321609
0.336956
0.349455
0.359481
0.366294
0.369268
-0.255913
-0.243351
-0.21051
-0.167912
-0.121518
-0.0721765
-0.0202172
0.0343326
0.0912727
0.150255
0.207841
0.255292
0.290286
0.316907
0.337633
0.35402
0.367092
0.377412
0.384347
0.387348
-0.302246
-0.289223
-0.253213
-0.206149
-0.154621
-0.0997549
-0.0417779
0.0189878
0.0821915
0.147301
0.210437
0.262029
0.299662
0.32788
0.349505
0.366348
0.379603
0.389977
0.396978
0.399875
-0.340128
-0.327195
-0.289182
-0.23876
-0.183259
-0.12397
-0.0611668
0.00479312
0.0734672
0.144174
0.21249
0.267858
0.307768
0.337296
0.35961
0.376751
0.390056
0.400349
0.407278
0.410119
-0.372631
-0.359872
-0.320512
-0.267577
-0.208948
-0.145986
-0.0790395
-0.0084846
0.0651155
0.140937
0.214051
0.272964
0.315029
0.34578
0.368717
0.386121
0.39949
0.409754
0.416683
0.419479
-0.401449
-0.388841
-0.348505
-0.293602
-0.232449
-0.166454
-0.0959708
-0.0214375
0.0566034
0.137234
0.215061
0.277572
0.321859
0.353897
0.377521
0.39524
0.408716
0.418971
0.425905
0.428637
-0.427738
-0.415218
-0.37414
-0.317646
-0.254473
-0.185976
-0.112472
-0.0343598
0.0477969
0.133063
0.215611
0.281866
0.328552
0.362028
0.386448
0.404561
0.418193
0.428471
0.435423
0.438092
-0.452367
-0.439868
-0.398132
-0.340325
-0.275428
-0.204793
-0.128677
-0.0473996
0.0385554
0.12828
0.215631
0.285883
0.33525
0.370393
0.395771
0.414387
0.428242
0.438579
0.445505
0.448105
-0.475798
-0.463286
-0.420939
-0.362041
-0.29571
-0.223251
-0.144862
-0.0607707
0.0286946
0.122763
0.215027
0.289608
0.342004
0.37911
0.405665
0.424926
0.439086
0.449527
0.456465
0.459008
-0.498346
-0.485729
-0.442831
-0.383025
-0.315501
-0.241503
-0.161153
-0.0745633
0.0181245
0.116395
0.213692
0.292946
0.348776
0.388211
0.416219
0.43631
0.450896
0.461505
0.468457
0.47094
-0.52024
-0.507466
-0.464036
-0.403417
-0.334879
-0.259596
-0.177591
-0.0888208
0.00679133
0.109081
0.211491
0.295746
0.355455
0.39764
0.427453
0.448615
0.463773
0.474643
0.481621
0.484056
-0.541465
-0.528514
-0.484633
-0.423282
-0.353902
-0.27755
-0.194175
-0.103556
-0.00532151
0.100748
0.20829
0.297836
0.361852
0.407272
0.439302
0.461852
0.477772
0.488999
0.496049
0.498469
-0.562079
-0.548917
-0.504581
-0.442598
-0.372536
-0.295342
-0.210866
-0.118721
-0.0182093
0.0913912
0.203962
0.299002
0.367719
0.41688
0.451618
0.475934
0.492902
0.504646
0.511828
0.514152
-0.581986
-0.568659
-0.523865
-0.461345
-0.390737
-0.312897
-0.227591
-0.134248
-0.0318206
0.0809943
0.198452
0.299044
0.372758
0.426103
0.464115
0.490707
0.509098
0.521596
0.528999
0.53118
-0.601236
-0.587716
-0.542444
-0.479466
-0.408439
-0.330148
-0.24427
-0.150054
-0.0460657
0.0695847
0.191734
0.297823
0.376629
0.434503
0.476394
0.50594
0.526138
0.539542
0.547198
0.549225
-0.619563
-0.605934
-0.560224
-0.496886
-0.425568
-0.346994
-0.26081
-0.166034
-0.0608745
0.0572554
0.183792
0.295208
0.37898
0.441575
0.487936
0.521267
0.544013
0.558601
0.566377
0.568076
-0.637087
-0.623326
-0.577172
-0.51356
-0.442065
-0.363379
-0.2771
-0.182092
-0.0761189
0.0440864
0.17466
0.291101
0.379581
0.446838
0.498021
0.536054
0.562661
0.578915
0.586254
0.58716
-0.653664
-0.639779
-0.593263
-0.529441
-0.457851
-0.37921
-0.29305
-0.198096
-0.0916944
0.0301752
0.164417
0.285555
0.378243
0.449785
0.505658
0.549229
0.581741
0.601662
0.607672
0.605656
-0.669406
-0.65539
-0.608476
-0.544477
-0.47289
-0.394424
-0.308574
-0.213955
-0.107489
0.0156707
0.15315
0.27861
0.375036
0.449752
0.509675
0.559189
0.599275
0.627425
0.636141
0.624383
-0.684218
-0.670132
-0.622886
-0.558795
-0.487373
-0.40928
-0.324007
-0.230106
-0.124062
-8.86313e-05
0.140252
0.269739
0.369452
0.446518
0.508827
0.56318
0.611158
0.650289
0.665395
0.665439
-0.698131
-0.684103
-0.636421
-0.572347
-0.501284
-0.423755
-0.339291
-0.246541
-0.141432
-0.0172097
0.125621
0.258696
0.36108
0.439384
0.500335
0.554435
0.603923
0.642475