/*--------------------------------*- C++ -*----------------------------------*\
  =========                 |
  \\      /  F ield         | OpenFOAM: The Open Source CFD Toolbox
   \\    /   O peration     | Website:  https://openfoam.org
    \\  /    A nd           | Version:  6
     \\/     M anipulation  |
\*---------------------------------------------------------------------------*/
FoamFile
{
    version     2.0;
    format      ascii;
    class       surfaceScalarField;
    location    "62";
    object      phi;
}
// * * * * * * * * * * * * * * * * * * * * * * * * * * * * * * * * * * * * * //

dimensions      [0 3 -1 0 0 0 0];

internalField   nonuniform List<scalar> 
17370
(
-0.090001
0.0898506
0.289161
-0.0714647
0.0537553
0.364485
-0.0381226
0.027694
0.426597
-0.0196427
0.0146102
0.504284
-0.0107691
0.00827991
0.601891
-0.0062819
0.00490694
0.720432
-0.00374431
0.00290434
0.863746
-0.00216284
0.00160327
1.03601
-0.00108589
0.000672647
1.24292
-0.00026392
-0.000128771
1.49158
0.000508173
-0.000917338
1.4916
0.00131453
-0.0018049
1.24318
0.0023358
-0.00304559
1.03635
0.00386083
-0.00500412
0.86405
0.00636875
-0.00836039
0.721049
0.0108449
-0.0146804
0.60305
0.0197075
-0.0277526
0.507484
0.0381752
-0.0538
0.431793
0.0715014
-0.0898751
0.365149
0.0900156
0.198995
-0.128134
0.0882219
0.039912
-0.364596
0.353373
-0.0746783
0.0859013
-0.446475
0.454317
-0.0844006
0.0765584
-0.521189
0.529898
-0.0684627
0.0597533
-0.612787
0.621564
-0.0515665
0.0427899
-0.726893
0.734159
-0.0353322
0.0280666
-0.867474
0.872586
-0.0224689
0.0173561
-1.03847
1.04192
-0.0135479
0.0100992
-1.2446
1.24703
-0.00748885
0.00505623
-1.49262
1.4946
-0.00310926
0.00113227
-1.4925
1.49423
0.000547286
-0.00227308
-1.24398
1.24586
0.00417644
-0.00606089
-1.03751
1.04004
0.00841917
-0.0109527
-0.866103
0.869833
0.0143117
-0.0180418
-0.724394
0.729936
0.0230807
-0.0286232
-0.6087
0.616115
0.0358382
-0.0432533
-0.514899
0.523044
0.0519845
-0.0601301
-0.439857
0.447917
0.0687954
-0.0768557
-0.375297
0.376743
0.0846568
-0.0861024
-0.257333
0.222483
0.0748151
-0.0399652
-0.0685128
0.0586848
0.00982804
-0.0518244
0.0584116
-0.374121
0.367534
-0.0574991
0.0537494
-0.45359
0.45734
-0.0486619
0.0447124
-0.527942
0.531891
-0.0408766
0.0372419
-0.621559
0.625194
-0.0331451
0.0290733
-0.735343
0.739415
-0.0245065
0.0203495
-0.874334
0.878491
-0.0160055
0.012313
-1.04348
1.04718
-0.00857689
0.00540438
-1.24856
1.25173
-0.00207555
-0.000998781
-1.49666
1.49973
0.00404756
-0.00731406
-1.49721
1.50047
0.0103951
-0.0140046
-1.25007
1.25368
0.0175687
-0.0217656
-1.04593
1.05013
0.0257938
-0.0302328
-0.877769
0.882208
0.0342031
-0.038202
-0.739908
0.743906
0.0417543
-0.045504
-0.62678
0.63053
0.0493792
-0.0543955
-0.534815
0.539832
0.0580682
-0.0588835
-0.457479
0.458294
0.0521827
-0.031985
-0.335759
0.315562
0.00988653
-0.0683516
0.058465
-0.0529322
0.0489347
0.00399753
-0.0331755
0.0437266
-0.358096
0.347545
-0.0474297
0.0468057
-0.459276
0.4599
-0.043753
0.0404033
-0.535792
0.539142
-0.036635
0.0333356
-0.628517
0.631817
-0.029903
0.0268757
-0.742636
0.745663
-0.0236214
0.0205182
-0.882005
0.885109
-0.0169912
0.0136141
-1.05076
1.05414
-0.00982292
0.00628558
-1.25516
1.2587
-0.00231747
-0.00147923
-1.50324
1.50704
0.00524459
-0.00911906
-1.50414
1.50801
0.0125295
-0.0161468
-1.25743
1.26105
0.0193448
-0.0226645
-1.05393
1.05725
0.0255832
-0.0286521
-0.885707
0.888776
0.0315304
-0.0348181
-0.747172
0.750459
0.0379967
-0.041641
-0.634319
0.637963
0.0448837
-0.0478142
-0.544145
0.547075
0.0483098
-0.0444259
-0.456584
0.452701
0.0336592
-0.0162152
-0.296202
0.278758
0.00406995
-0.0526473
0.0485773
-0.045855
0.0433574
0.00249756
-0.0228217
0.033208
-0.336849
0.326462
-0.0390364
0.0400581
-0.45958
0.458559
-0.0388729
0.0365904
-0.541859
0.544141
-0.0339287
0.0313387
-0.634865
0.637455
-0.0282823
0.025389
-0.748704
0.751597
-0.0221301
0.019141
-0.888056
0.891045
-0.0158405
0.0127451
-1.05726
1.06036
-0.0092228
0.00581671
-1.26215
1.26556
-0.00185534
-0.00202828
-1.51092
1.5148
0.00587029
-0.00970706
-1.51191
1.51575
0.0129454
-0.0162399
-1.26448
1.26778
0.0191018
-0.0221309
-1.06035
1.06338
0.0248759
-0.0278863
-0.891837
0.894847
0.0305766
-0.0334335
-0.753671
0.756528
0.0358578
-0.038352
-0.641034
0.643528
0.0404897
-0.0414849
-0.548883
0.549878
0.0402645
-0.0341459
-0.447425
0.441307
0.0234429
-0.0102304
-0.263545
0.250333
0.002587
-0.0454165
0.0428295
-0.0412803
0.0395109
0.00176935
-0.0167632
0.0260233
-0.316602
0.307342
-0.032638
0.0347844
-0.456954
0.454807
-0.0343693
0.0327039
-0.546115
0.54778
-0.0305294
0.0284405
-0.639755
0.641844
-0.0260162
0.023625
-0.754236
0.756627
-0.0207734
0.0179906
-0.893933
0.896715
-0.0147615
0.0116986
-1.0634
1.06646
-0.00821431
0.00489278
-1.26887
1.27219
-0.00106287
-0.00266875
-1.51859
1.52232
0.00634719
-0.0100189
-1.51948
1.52315
0.0131279
-0.016324
-1.27102
1.27422
0.0190903
-0.0219733
-1.06641
1.06929
0.0244427
-0.0269735
-0.897673
0.900204
0.0291015
-0.0312677
-0.758986
0.761152
0.0331442
-0.0351029
-0.645686
0.647645
0.0365579
-0.0367147
-0.5504
0.550557
0.0342634
-0.0272245
-0.434648
0.427609
0.0175381
-0.00740035
-0.238808
0.22867
0.00187853
-0.0406531
0.0387746
-0.0379865
0.0366549
0.00133163
-0.0128037
0.0207586
-0.29874
0.290785
-0.027519
0.0304494
-0.45224
0.44931
-0.0306606
0.0295471
-0.549206
0.55032
-0.02756
0.0256502
-0.643875
0.645785
-0.0234586
0.0213294
-0.758858
0.760988
-0.0188229
0.0163464
-0.89928
0.901756
-0.01341
0.0105349
-1.06939
1.07226
-0.00717696
0.00393879
-1.27544
1.27868
-0.000193566
-0.00343471
-1.52596
1.52959
0.00699637
-0.0105427
-1.52675
1.5303
0.0135135
-0.0165089
-1.27735
1.28034
0.0190108
-0.0215123
-1.07203
1.07453
0.0235957
-0.0257005
-0.902504
0.904609
0.0274994
-0.0293653
-0.763144
0.765009
0.0310078
-0.0327343
-0.649469
0.651195
0.0335403
-0.0329674
-0.550354
0.549781
0.029601
-0.0222599
-0.420363
0.413022
0.0137575
-0.00573512
-0.219692
0.211669
0.00146448
-0.0371294
0.0356649
-0.0354915
0.0344647
0.00102684
-0.0100078
0.016732
-0.283472
0.276747
-0.0232255
0.0266073
-0.446136
0.442754
-0.0273964
0.0267025
-0.551218
0.551912
-0.0249503
0.0231722
-0.647673
0.649451
-0.0211089
0.0190987
-0.763051
0.765061
-0.0167338
0.0144127
-0.904084
0.906405
-0.0116809
0.00900221
-1.07497
1.07764
-0.00585015
0.0027686
-1.2818
1.28488
0.000840567
-0.00435375
-1.53314
1.53666
0.00778466
-0.0111481
-1.53375
1.53711
0.0139011
-0.0166092
-1.28321
1.28591
0.0188309
-0.0210275
-1.07691
1.0791
0.0228614
-0.024726
-0.906603
0.908467
0.0263235
-0.0279796
-0.766764
0.76842
0.0294252
-0.0308172
-0.652775
0.654167
0.0311299
-0.0298271
-0.548858
0.547555
0.0258449
-0.0185876
-0.405699
0.398441
0.011176
-0.0046306
-0.204456
0.197911
0.00118831
-0.0343549
0.0331666
-0.0335631
0.0327626
0.000800438
-0.00793539
0.0135871
-0.27059
0.264938
-0.0195956
0.0231745
-0.439266
0.435687
-0.0244408
0.0239945
-0.552519
0.552965
-0.0225081
0.0208386
-0.651227
0.652896
-0.01887
0.0169467
-0.767021
0.768944
-0.0146765
0.0124453
-0.908612
0.910843
-0.00981765
0.00724853
-1.08019
1.08276
-0.00423723
0.00130029
-1.28783
1.29077
0.00213308
-0.00546696
-1.54005
1.54339
0.00870019
-0.0118328
-1.54035
1.54348
0.014367
-0.0168333
-1.2885
1.29097
0.0188412
-0.020811
-1.08124
1.08321
0.0224436
-0.0241002
-0.910252
0.911908
0.025518
-0.0269868
-0.769978
0.771447
0.0282421
-0.0292604
-0.655354
0.656373
0.0292003
-0.0272334
-0.545925
0.543958
0.0228536
-0.0158667
-0.391316
0.384329
0.00936211
-0.00386549
-0.191941
0.186444
0.000996511
-0.0320868
0.0310903
-0.0320599
0.031435
0.000624848
-0.0063361
0.0110722
-0.259774
0.255038
-0.0164906
0.0200702
-0.43211
0.42853
-0.0216615
0.0214439
-0.553337
0.553554
-0.0201935
0.0185844
-0.654583
0.656192
-0.0166735
0.0148004
-0.77083
0.772703
-0.0125886
0.0104156
-0.912967
0.91514
-0.00785826
0.00536354
-1.08521
1.08771
-0.00244837
-0.000380321
-1.29359
1.29642
0.00366335
-0.00682415
-1.5466
1.54976
0.0098618
-0.0127774
-1.54648
1.5494
0.0151153
-0.0173687
-1.29334
1.2956
0.0191812
-0.0209355
-1.08514
1.0869
0.0223753
-0.0238348
-0.913488
0.914947
0.0250871
-0.0263811
-0.772818
0.774112
0.0274916
-0.0280926
-0.657173
0.657774
0.0276627
-0.0251367
-0.541727
0.539201
0.0205149
-0.013864
-0.377521
0.37087
0.00807632
-0.00333036
-0.181362
0.176616
0.000863029
-0.030171
0.029308
-0.0308902
0.0304075
0.000482624
-0.00504905
0.00899619
-0.250724
0.246777
-0.0137815
0.0172138
-0.425035
0.421603
-0.0189892
0.0189622
-0.553723
0.55375
-0.0179034
0.0163272
-0.65785
0.659426
-0.0144358
0.0125766
-0.774552
0.776411
-0.0103854
0.00824056
-0.917208
0.919353
-0.00572559
0.00327985
-1.09009
1.09253
-0.000433343
-0.00231085
-1.29914
1.30189
0.00546644
-0.00847015
-1.5528
1.5558
0.0113249
-0.0140353
-1.55218
1.55489
0.0161855
-0.0182326
-1.29775
1.2998
0.0198541
-0.0213959
-1.08863
1.09017
0.0226487
-0.023925
-0.916344
0.91762
0.0250317
-0.0261741
-0.775321
0.776463
0.0270926
-0.0273302
-0.658186
0.658423
0.0265034
-0.023505
-0.536456
0.533458
0.018739
-0.0124146
-0.364402
0.358078
0.00717357
-0.00296125
-0.172169
0.167957
0.000772478
-0.0285002
0.0277278
-0.0299932
0.0296308
0.000362367
-0.00397112
0.00722554
-0.243202
0.239948
-0.0113667
0.0145435
-0.418318
0.415141
-0.0163803
0.016513
-0.553753
0.55362
-0.0155372
0.0140385
-0.661036
0.662535
-0.0121458
0.0102725
-0.778253
0.780127
-0.00806405
0.00590812
-0.9214
0.923556
-0.00339192
0.000960749
-1.09488
1.09731
0.00184772
-0.00453412
-1.30453
1.30722
0.00759738
-0.0104812
-1.5587
1.56158
0.013184
-0.0157069
-1.55748
1.56001
0.017675
-0.0195177
-1.30175
1.30359
0.0209524
-0.0222906
-1.09171
1.09305
0.0233665
-0.0244659
-0.918837
0.919937
0.0254226
-0.0263893
-0.777508
0.778474
0.0270506
-0.0269961
-0.658532
0.658478
0.0257392
-0.0223232
-0.530265
0.526849
0.0174582
-0.0114064
-0.351916
0.345864
0.00656311
-0.00271821
-0.163958
0.160114
0.000714877
-0.026994
0.0262791
-0.0293297
0.0290746
0.000255057
-0.00302639
0.00565584
-0.237031
0.234401
-0.00915353
0.0119911
-0.412158
0.409321
-0.0137727
0.0139874
-0.553509
0.553295
-0.0130556
0.0115983
-0.664091
0.665548
-0.00967629
0.00775531
-0.78199
0.783911
-0.00549286
0.00329627
-0.925616
0.927813
-0.000749483
-0.00169493
-1.09964
1.10208
0.00449957
-0.00715973
-1.30982
1.31248
0.0101596
-0.0129422
-1.56437
1.56715
0.0155059
-0.0178512
-1.56241
1.56475
0.0196407
-0.0212756
-1.30533
1.30696
0.0225148
-0.0236327
-1.09441
1.09552
0.0245183
-0.0254413
-0.920985
0.921908
0.0262595
-0.027065
-0.77934
0.780145
0.0274413
-0.027111
-0.658281
0.65795
0.02541
-0.0215909
-0.523252
0.519433
0.0166276
-0.0107654
-0.339944
0.334082
0.00618725
-0.00257566
-0.156416
0.152804
0.000683657
-0.0255905
0.0249068
-0.0288777
0.0287245
0.000153194
-0.00215185
0.00419504
-0.232089
0.230045
-0.00704577
0.0094769
-0.406717
0.404286
-0.0110995
0.0113197
-0.553155
0.552935
-0.0103976
0.00894243
-0.6671
0.668556
-0.00696349
0.00496896
-0.785824
0.787818
-0.00262114
0.000349589
-0.929912
0.932183
0.00227276
-0.00477348
-1.10443
1.10693
0.00761637
-0.0102801
-1.31505
1.31771
0.0132391
-0.0159338
-1.56983
1.57253
0.0183651
-0.0205383
-1.56698
1.56915
0.0221564
-0.0235959
-1.3085
1.30994
0.0246466
-0.025546
-1.09669
1.09759
0.0262304
-0.0269536
-0.922769
0.923493
0.027616
-0.0282755
-0.78083
0.781489
0.0283401
-0.0276354
-0.657403
0.656698
0.0254911
-0.0212741
-0.51546
0.511243
0.0161895
-0.0104263
-0.328314
0.322551
0.00599907
-0.00251276
-0.149286
0.1458
0.000673305
-0.0242396
0.0235663
-0.0286292
0.0285794
4.98226e-05
-0.00129818
0.00276933
-0.22831
0.226839
-0.00495829
0.00691846
-0.402123
0.400163
-0.00827928
0.00842739
-0.552842
0.552694
-0.00747693
0.00599609
-0.670132
0.671613
-0.00392884
0.00182883
-0.789804
0.791904
0.000647097
-0.00303389
-0.934363
0.93675
0.00577165
-0.00836153
-1.10935
1.11194
0.0112789
-0.0139827
-1.3203
1.32301
0.0169433
-0.0195856
-1.57513
1.57778
0.0219077
-0.0239143
-1.57119
1.5732
0.0253547
-0.0265825
-1.31126
1.31249
0.0274259
-0.0280844
-1.09856
1.09922
0.0285591
-0.0290751
-0.924163
0.924679
0.0295731
-0.0300188
-0.781945
0.78239
0.0298026
-0.0286526
-0.65576
0.65461
0.0260297
-0.0213867
-0.506883
0.50224
0.016128
-0.0103594
-0.316839
0.31107
0.0059756
-0.00251936
-0.142362
0.138906
0.000681237
-0.0229013
0.0222201
-0.0285872
0.0286474
-6.01617e-05
-0.000417493
0.00131117
-0.225678
0.224784
-0.00281251
0.0042376
-0.398506
0.39708
-0.00523224
0.00521609
-0.552742
0.552758
-0.0041677
0.00259209
-0.673267
0.674843
-0.000392553
-0.00185544
-0.794
0.796248
0.00449997
-0.00703531
-0.93904
0.941575
0.0099267
-0.0126436
-1.11445
1.11716
0.0156754
-0.0184475
-1.32564
1.32841
0.0214247
-0.0240144
-1.58033
1.58292
0.0262199
-0.0280511
-1.57507
1.57691
0.0293069
-0.0303192
-1.31357
1.31459
0.0309527
-0.0313704
-1.09997
1.10039
0.0316231
-0.0319137
-0.925139
0.92543
0.0322219
-0.0323949
-0.782527
0.7827
0.031897
-0.0302066
-0.653239
0.651548
0.0270649
-0.021946
-0.49746
0.492341
0.0164374
-0.0105485
-0.305305
0.299416
0.0061039
-0.00258951
-0.135457
0.131943
0.000705882
-0.0215398
0.0208339
-0.0287652
0.028942
-0.000176761
0.000509487
-0.00023144
-0.224215
0.223937
-0.000533432
0.00134728
-0.395991
0.395177
-0.00187164
0.00160744
-0.553042
0.553306
-0.000403009
-0.00131648
-0.676645
0.678364
0.00368888
-0.00612699
-0.798492
0.80093
0.00899602
-0.0117384
-0.944021
0.946763
0.0148486
-0.0177456
-1.11981
1.12271
0.02094
-0.0238162
-1.33112
1.334
0.0268454
-0.0294083
-1.58542
1.58798
0.0315096
-0.0331595
-1.5786
1.58025
0.0342164
-0.034989
-1.31543
1.3162
0.035396
-0.0355556
-1.1009
1.10106
0.0355736
-0.0356243
-0.925649
0.9257
0.0357363
-0.0355437
-0.782489
0.782296
0.0346661
-0.0323709
-0.649679
0.647383
0.0286393
-0.0229638
-0.487072
0.481397
0.0171098
-0.0109782
-0.293478
0.287347
0.00637091
-0.00271632
-0.128397
0.124743
0.000744966
-0.0201228
0.0193778
-0.0291998
0.0295204
-0.000320521
0.0015218
-0.00188654
-0.224011
0.224376
0.00196258
-0.00186419
-0.394718
0.39462
0.00194603
-0.00256934
-0.553934
0.554557
0.00399688
-0.00591668
-0.680357
0.682277
0.00852954
-0.0112147
-0.803362
0.806047
0.0143667
-0.0173637
-0.949418
0.952415
0.0207402
-0.02386
-1.12554
1.12866
0.0272653
-0.0302886
-1.33681
1.33984
0.0334072
-0.0359635
-1.59046
1.59302
0.0379655
-0.0394237
-1.58174
1.5832
0.0402635
-0.0407605
-1.31677
1.31727
0.0409082
-0.0407829
-1.10127
1.10115
0.0405402
-0.0403279
-0.925644
0.925431
0.0402314
-0.0395702
-0.781663
0.781001
0.0382306
-0.0352377
-0.644941
0.641948
0.0308217
-0.0244764
-0.475548
0.469202
0.0181568
-0.0116466
-0.281109
0.274599
0.00677206
-0.00289677
-0.12102
0.117145
0.000797452
-0.018622
0.0178245
-0.0299122
0.0304064
-0.000494245
0.00279002
-0.00390219
-0.225134
0.226247
0.0048391
-0.00553646
-0.394888
0.395585
0.0063468
-0.00743778
-0.555677
0.556768
0.00919799
-0.0114026
-0.684549
0.686753
0.0143478
-0.0173551
-0.808729
0.811736
0.0208631
-0.0241784
-0.955326
0.958641
0.0278883
-0.0312861
-1.13172
1.13512
0.0349482
-0.0381398
-1.3428
1.34599
0.0413453
-0.0438688
-1.59547
1.59799
0.0457284
-0.0469523
-1.58447
1.5857
0.0475321
-0.0477664
-1.31753
1.31776
0.047652
-0.0472144
-1.10104
1.1006
0.0466841
-0.0461881
-0.925056
0.92456
0.045755
-0.0446477
-0.779915
0.778808
0.0427112
-0.0388937
-0.638825
0.635007
0.0336653
-0.0265016
-0.462644
0.45548
0.0195753
-0.0125417
-0.267922
0.260888
0.00729566
-0.00312388
-0.113167
0.108995
0.000860855
-0.0170115
0.0161506
-0.0309759
0.0316882
-0.000712288
0.00427376
-0.00626398
-0.227784
0.229774
0.00827785
-0.00987595
-0.396721
0.39832
0.0115091
-0.0131787
-0.55852
0.560189
0.0153986
-0.0179728
-0.68938
0.691955
0.0213376
-0.0247463
-0.81474
0.818149
0.028703
-0.0324225
-0.961888
0.965607
0.0365526
-0.0402935
-1.13847
1.14221
0.0442649
-0.047658
-1.34913
1.35252
0.0509706
-0.0534615
-1.60041
1.6029
0.0551561
-0.0560969
-1.58672
1.58766
0.0563625
-0.0562688
-1.31766
1.31757
0.0558445
-0.05506
-1.10011
1.09933
0.0542145
-0.0533921
-0.923825
0.923002
0.0525497
-0.0509202
-0.777292
0.775663
0.04825
-0.0434403
-0.631063
0.626253
0.0372313
-0.0290611
-0.448052
0.439882
0.0213622
-0.0136483
-0.253622
0.245908
0.00792637
-0.00338812
-0.104689
0.100151
0.00093165
-0.0152713
0.0143397
-0.0324727
0.0334749
-0.00100224
0.00616284
-0.00920973
-0.232215
0.235262
0.0124658
-0.0151242
-0.400485
0.403143
0.0177311
-0.0201182
-0.562725
0.565112
0.0229487
-0.026022
-0.695033
0.698106
0.0299449
-0.0338541
-0.821562
0.825472
0.038357
-0.0425554
-0.969267
0.973465
0.0471712
-0.0513004
-1.14591
1.15004
0.0556142
-0.059217
-1.35584
1.35945
0.062615
-0.0650235
-1.60525
1.60766
0.066491
-0.0670813
-1.58837
1.58896
0.0669741
-0.0664748
-1.31701
1.31651
0.0656973
-0.0645163
-1.09842
1.09724
0.0633132
-0.0621662
-0.921875
0.920728
0.060788
-0.0585437
-0.773628
0.771384
0.0549805
-0.0489503
-0.621309
0.615279
0.0415415
-0.0321352
-0.431389
0.421982
0.023479
-0.0149258
-0.237899
0.229346
0.00863253
-0.0036726
-0.0954542
0.0904942
0.0010043
-0.0133891
0.0123848
-0.0345347
0.0359344
-0.00139972
0.00861988
-0.0130206
-0.238752
0.243153
0.0177598
-0.0216458
-0.406555
0.410441
0.0253832
-0.0286405
-0.568644
0.571902
0.0322693
-0.0360109
-0.701796
0.705538
0.0406639
-0.0452156
-0.829396
0.833948
0.050387
-0.0551515
-0.977614
0.982378
0.0603235
-0.064874
-1.15412
1.15867
0.0695208
-0.0732786
-1.36294
1.36669
0.0766577
-0.0788616
-1.60984
1.61205
0.0799786
-0.0801092
-1.58925
1.58938
0.0795635
-0.0785552
-1.31544
1.31443
0.0773771
-0.075772
-1.09584
1.09424
0.0742087
-0.0726339
-0.919165
0.91759
0.0707147
-0.0676645
-0.7687
0.76565
0.0629839
-0.0554506
-0.609098
0.601565
0.0465737
-0.0356626
-0.412191
0.40128
0.0258503
-0.0163055
-0.220442
0.210897
0.0093644
-0.00395192
-0.085363
0.0799505
0.00107065
-0.0113649
0.0102943
-0.0373543
0.0393256
-0.00197135
0.0120552
-0.0181639
-0.247922
0.254031
0.0246943
-0.0300163
-0.415416
0.420738
0.0350846
-0.0393951
-0.576667
0.580977
0.0440257
-0.0486287
-0.710017
0.71462
0.0542066
-0.0595443
-0.838511
0.843848
0.0655104
-0.0709203
-0.987108
0.992518
0.0766834
-0.0816322
-1.16315
1.1681
0.0865317
-0.0903344
-1.37027
1.37407
0.0935428
-0.0953796
-1.61395
1.61578
0.0959791
-0.0954818
-1.58911
1.58862
0.0943726
-0.092744
-1.31279
1.31117
0.0910722
-0.0890211
-1.09227
1.09022
0.0870603
-0.0849164
-0.915451
0.913307
0.0824677
-0.0783644
-0.76207
0.757966
0.072295
-0.0628983
-0.593843
0.584446
0.0522265
-0.0395061
-0.389928
0.377208
0.0283374
-0.0176751
-0.200967
0.190304
0.0100461
-0.00418993
-0.0743741
0.068518
0.00111979
-0.00921605
0.00809626
-0.0412559
0.0441102
-0.00285427
0.0170527
-0.0254156
-0.260443
0.268806
0.0341585
-0.0412007
-0.427745
0.434788
0.0478848
-0.0534822
-0.587266
0.592864
0.0593962
-0.0651194
-0.720099
0.725822
0.0718612
-0.0781173
-0.849175
0.855431
0.0849346
-0.0909634
-0.997872
1.0039
0.0972121
-0.102407
-1.17289
1.17808
0.107345
-0.110962
-1.37757
1.38119
0.113718
-0.114919
-1.61717
1.61837
0.114761
-0.113429
-1.58762
1.58628
0.111595
-0.109245
-1.30884
1.30649
0.106996
-0.104434
-1.08761
1.08505
0.10205
-0.099214
-0.910421
0.907586
0.0960744
-0.0906222
-0.753209
0.747756
0.0828077
-0.0711096
-0.574781
0.563083
0.0582645
-0.0434149
-0.364022
0.349172
0.0307146
-0.0188677
-0.179269
0.167422
0.0105721
-0.00433958
-0.0625371
0.0563046
0.00113828
-0.00698219
0.0058439
-0.0468089
0.0511537
-0.00434479
0.024783
-0.0362059
-0.277491
0.288914
0.0478155
-0.0571688
-0.444568
0.453921
0.0658892
-0.0730428
-0.601062
0.608216
0.0805274
-0.0877388
-0.732462
0.739674
0.0956845
-0.102772
-0.861584
0.868672
0.110251
-0.116652
-1.00976
1.01616
0.123047
-0.128133
-1.18293
1.18802
0.13268
-0.135705
-1.38428
1.3873
0.137563
-0.13775
-1.61891
1.6191
0.136512
-0.134078
-1.58431
1.58188
0.131333
-0.128109
-1.30335
1.30013
0.125185
-0.12205
-1.08172
1.07858
0.119155
-0.115607
-0.903897
0.900349
0.111486
-0.104255
-0.741455
0.734224
0.0942012
-0.0796743
-0.55097
0.536443
0.0642607
-0.0470042
-0.333905
0.316649
0.0326688
-0.0196715
-0.155311
0.142314
0.0108156
-0.00434643
-0.0500342
0.043565
0.00111023
-0.00472854
0.00361831
-0.0550845
0.0624882
-0.00740375
0.0382136
-0.0541268
-0.301207
0.31712
0.069796
-0.0823752
-0.467567
0.480147
0.0932783
-0.101814
-0.618518
0.627054
0.110827
-0.119329
-0.74747
0.755972
0.128224
-0.135714
-0.875445
0.882935
0.143258
-0.149428
-1.02212
1.02829
0.155305
-0.15966
-1.19245
1.1968
0.163178
-0.165031
-1.38949
1.39134
0.165437
-0.164125
-1.61836
1.61705
0.161398
-0.157537
-1.57862
1.57476
0.15364
-0.149348
-1.29601
1.29172
0.145658
-0.141919
-1.07441
1.07067
0.138381
-0.133986
-0.895685
0.89129
0.128444
-0.118792
-0.725798
0.716146
0.105804
-0.0878054
-0.52122
0.503221
0.0695232
-0.0497869
-0.299143
0.279406
0.0338834
-0.0199279
-0.12934
0.115385
0.0106953
-0.00417681
-0.0372187
0.0307002
0.00101622
-0.00254465
0.00152843
-0.0693716
0.0734965
-0.0041249
0.029104
-0.0430151
-0.335543
0.349454
0.0569998
-0.0686283
-0.498171
0.509799
0.0789675
-0.0886067
-0.639249
0.648888
0.0993305
-0.109314
-0.76393
0.773913
0.120425
-0.130232
-0.889387
0.899194
0.140626
-0.149826
-1.03353
1.04273
0.15941
-0.167573
-1.20007
1.20823
0.175624
-0.181934
-1.39201
1.39832
0.187382
-0.190662
-1.61453
1.61781
0.191758
-0.191258
-1.56986
1.56936
0.189679
-0.18732
-1.28642
1.28406
0.185273
-0.182773
-1.06542
1.06292
0.180339
-0.175978
-0.885052
0.880691
0.168184
-0.153775
-0.704764
0.690355
0.134208
-0.108239
-0.484387
0.458417
0.0832099
-0.0574347
-0.259638
0.233863
0.0378215
-0.0214929
-0.102062
0.0857335
0.0111307
-0.00415727
-0.024638
0.0176646
0.000939586
-0.000503348
-0.000436238
-0.0808563
0.0789234
0.00193294
0.00764189
-0.0165891
-0.366029
0.374976
0.0271761
-0.0355606
-0.525984
0.534369
0.043964
-0.0518961
-0.661251
0.669183
0.0616585
-0.0708802
-0.78337
0.792591
0.0807597
-0.0897311
-0.908341
0.917313
0.0992168
-0.107261
-1.05161
1.05966
0.115808
-0.122692
-1.21614
1.22303
0.129393
-0.134308
-1.40423
1.40914
0.137966
-0.139658
-1.62019
1.62188
0.139242
-0.137248
-1.56817
1.56617
0.134149
-0.130169
-1.281
1.27702
0.12653
-0.122558
-1.05824
1.05427
0.118614
-0.113109
-0.87158
0.866075
0.10481
-0.0919575
-0.672182
0.65933
0.0768419
-0.0587966
-0.430955
0.41291
0.0430412
-0.0285369
-0.208517
0.194013
0.0183029
-0.0102529
-0.0704008
0.0623508
0.00527545
-0.00197546
-0.0109191
0.00761907
0.000440857
0.0016208
-0.00206166
-0.0822628
0.0793852
0.0028776
-0.00123737
-0.00383772
-0.386669
0.391744
0.0108348
-0.0169244
-0.54658
0.552669
0.0231003
-0.0299584
-0.679736
0.686594
0.0384154
-0.0463925
-0.800883
0.80886
0.0551473
-0.0629292
-0.925434
0.933216
0.0708979
-0.0780155
-1.0675
1.07461
0.0853523
-0.0913238
-1.22943
1.2354
0.0966536
-0.100314
-1.41334
1.417
0.102885
-0.103348
-1.62281
1.62328
0.10169
-0.0984388
-1.56347
1.56022
0.0943267
-0.089456
-1.27263
1.26776
0.0845722
-0.0793655
-1.04835
1.04314
0.0743051
-0.0680695
-0.856273
0.850037
0.0605498
-0.0500609
-0.64347
0.632981
0.0392479
-0.0277259
-0.393405
0.381882
0.0190918
-0.012159
-0.179146
0.172213
0.00775142
-0.00454045
-0.0542725
0.0510615
0.0024726
-0.00101569
-0.00412496
0.00266805
0.000254547
0.00274337
-0.00299792
-0.081028
0.0782297
0.00279835
-0.00503517
0.0025357
-0.400325
0.402824
0.00197042
-0.00653203
-0.561823
0.566385
0.0117128
-0.0174471
-0.694908
0.700642
0.0246796
-0.031499
-0.816168
0.822987
0.0389419
-0.0455816
-0.940401
0.94704
0.0527611
-0.0587536
-1.08126
1.08726
0.0650869
-0.0697583
-1.24092
1.24559
0.0741645
-0.0770032
-1.42036
1.42319
0.0784968
-0.0777975
-1.62321
1.62251
0.0754236
-0.0714948
-1.5563
1.55238
0.0667734
-0.0608501
-1.2624
1.25648
0.0552776
-0.0491948
-1.03641
1.03033
0.0432248
-0.0367758
-0.839962
0.833513
0.0298669
-0.0218239
-0.619596
0.611553
0.0147155
-0.00865724
-0.369364
0.363306
0.00512246
-0.00298383
-0.164371
0.162232
0.00186125
-0.00125979
-0.0470555
0.0464541
0.000785045
-0.000394804
-0.000743687
0.000353446
0.000111724
0.00348198
-0.0035937
-0.0795036
0.0770297
0.00247392
-0.00627392
0.00537084
-0.409441
0.410345
-0.00200808
-0.00136112
-0.573976
0.577346
0.00547621
-0.0106507
-0.707626
0.7128
0.0167098
-0.0226875
-0.829088
0.835065
0.0291146
-0.0348654
-0.953188
0.958938
0.0409966
-0.046285
-1.09308
1.09837
0.0515786
-0.0557673
-1.25007
1.25426
0.0593815
-0.0615327
-1.42559
1.42774
0.0623087
-0.0610025
-1.62155
1.62024
0.0580863
-0.0534383
-1.54767
1.54302
0.048283
-0.0420328
-1.25031
1.24406
0.0360206
-0.0292633
-1.0231
1.01634
0.0229936
-0.0163245
-0.823922
0.817253
0.010443
-0.0042753
-0.60109
0.594923
-9.89929e-05
0.00264584
-0.355262
0.352715
-0.00328697
0.00287597
-0.158321
0.158732
-0.00208311
0.00117579
-0.0451121
0.0460194
-0.000570244
0.000144482
0.000423525
2.23709e-06
-1.53041e-05
0.00389652
-0.00388122
-0.0780817
0.0759662
0.00211544
-0.00623333
0.00584191
-0.41567
0.416062
-0.00384606
0.0011209
-0.583317
0.586043
0.00288607
-0.00730475
-0.71836
0.722779
0.0124881
-0.0176528
-0.840235
0.8454
0.0233402
-0.0284623
-0.964305
0.969427
0.0340473
-0.0386491
-1.10335
1.10796
0.0433538
-0.0470446
-1.25813
1.26182
0.0500965
-0.0517707
-1.42956
1.43123
0.0520365
-0.0506772
-1.61876
1.6174
0.047359
-0.0425298
-1.53782
1.533
0.0371072
-0.0306136
-1.23749
1.231
0.0246295
-0.017528
-1.00887
1.00177
0.0110674
-0.00454102
-0.808384
0.801857
-0.000756486
0.00557883
-0.58641
0.581587
-0.00842992
0.00929608
-0.347358
0.346492
-0.00831069
0.00659863
-0.157465
0.159177
-0.00490417
0.00304787
-0.0463722
0.0482285
-0.00168263
0.000631971
-0.000204466
0.00125513
-0.000145884
0.00395187
-0.00380599
-0.0769932
0.0753422
0.00165099
-0.00539468
0.00534194
-0.420273
0.420326
-0.00370148
0.001666
-0.591451
0.593487
0.0020754
-0.00607809
-0.727626
0.731628
0.0109761
-0.0154046
-0.850173
0.854602
0.0203791
-0.0249012
-0.974489
0.979011
0.0301734
-0.0343175
-1.11256
1.11671
0.0384485
-0.0418732
-1.26529
1.26872
0.0449733
-0.0463781
-1.43287
1.43427
0.0465397
-0.0449107
-1.61557
1.61394
0.0417649
-0.0366483
-1.52789
1.52277
0.0314173
-0.0251217
-1.22427
1.21798
0.0190475
-0.0122255
-0.994336
0.987514
0.00584061
0.0007214
-0.793504
0.786942
-0.00547589
0.00963987
-0.574127
0.569963
-0.0119378
0.0121103
-0.342626
0.342454
-0.0107465
0.00864961
-0.159197
0.161294
-0.00654869
0.00421699
-0.049562
0.0518937
-0.00242622
0.000986446
-0.0021151
0.00355487
-0.000249895
0.00368912
-0.00343922
-0.0764079
0.0751183
0.00128952
-0.004324
0.0044079
-0.423909
0.423825
-0.00290922
0.000980344
-0.598501
0.60043
0.00255519
-0.00615284
-0.735915
0.739512
0.0103293
-0.0145762
-0.858997
0.863244
0.0191486
-0.023789
-0.983306
0.987947
0.0282902
-0.032209
-1.12093
1.12485
0.036419
-0.0395543
-1.27199
1.27512
0.0421037
-0.0438346
-1.43555
1.43728
0.044054
-0.0425996
-1.61232
1.61087
0.039501
-0.0348348
-1.51784
1.51317
0.0298216
-0.023732
-1.21135
1.20527
0.0179259
-0.0113109
-0.980303
0.973687
0.00518186
0.00100833
-0.779248
0.773058
-0.00593771
0.0096568
-0.5631
0.559381
-0.0116964
0.0121812
-0.339359
0.338874
-0.0111423
0.00905533
-0.161707
0.163794
-0.00698875
0.00461905
-0.0534932
0.0558629
-0.00273939
0.00116647
-0.0047225
0.00629542
-0.000314422
0.00321638
-0.00290195
-0.0763647
0.0752911
0.00107355
-0.00302611
0.00286854
-0.427164
0.427322
-0.0015755
-0.000337707
-0.604954
0.606868
0.00361615
-0.00709358
-0.743601
0.747079
0.0110888
-0.0149185
-0.867307
0.871137
0.0195898
-0.0234071
-0.991973
0.99579
0.0278512
-0.0315707
-1.12891
1.13263
0.0356296
-0.0389164
-1.27821
1.28149
0.0417103
-0.0431699
-1.43874
1.4402
0.0436576
-0.0425294
-1.60931
1.60819
0.0400126
-0.0355677
-1.50838
1.50394
0.0308854
-0.0251084
-1.19927
1.1935
0.0196509
-0.0133392
-0.966707
0.960396
0.00763599
-0.0015589
-0.765795
0.759717
-0.00331231
0.00706675
-0.552926
0.549171
-0.00918764
0.00991706
-0.335948
0.335218
-0.00951508
0.00803645
-0.163837
0.165315
-0.00638858
0.00434338
-0.0573589
0.0594041
-0.00264935
0.00117908
-0.00748858
0.00895885
-0.000338458
0.00263119
-0.00229273
-0.0766199
0.075867
0.000752937
-0.00186625
0.00122568
-0.430504
0.431145
-0.000109604
-0.00191893
-0.610668
0.612697
0.0048786
-0.00822631
-0.750751
0.754099
0.012052
-0.0160043
-0.874851
0.878804
0.02004
-0.0240078
-0.999797
1.00376
0.0283966
-0.0318874
-1.13676
1.14025
0.0360215
-0.0392448
-1.28456
1.28778
0.042063
-0.0440249
-1.44205
1.44401
0.0449705
-0.0440937
-1.60708
1.60621
0.0417511
-0.0379563
-1.49966
1.49586
0.0337786
-0.0283721
-1.18763
1.18222
0.0232164
-0.0175424
-0.953954
0.94828
0.0118442
-0.00620224
-0.752814
0.747172
0.00141077
0.0026879
-0.54311
0.539011
-0.0049709
0.00621961
-0.331958
0.330709
-0.00642218
0.0058082
-0.165005
0.165618
-0.00477219
0.00336935
-0.0604214
0.0618243
-0.00213503
0.000990001
-0.00993368
0.0110787
-0.000297995
0.00203616
-0.00173816
-0.077297
0.0767071
0.000589887
-0.000882419
0.000274614
-0.434075
0.434682
0.001385
-0.00327635
-0.616476
0.618368
0.00641426
-0.00963949
-0.757396
0.760621
0.0133235
-0.0168719
-0.882441
0.885989
0.0210278
-0.0246732
-1.00771
1.01136
0.0290009
-0.032926
-1.14418
1.1481
0.0366898
-0.0402339
-1.29104
1.29458
0.0434691
-0.0455137
-1.44585
1.44789
0.0468225
-0.0466921
-1.60553
1.6054
0.0447582
-0.0415592
-1.49193
1.48873
0.0376301
-0.0327763
-1.17693
1.17207
0.0281433
-0.02274
-0.942184
0.936781
0.0175099
-0.0120162
-0.740586
0.735092
0.00724295
-0.00274385
-0.533027
0.528527
-0.000106714
0.00192544
-0.32706
0.325241
-0.00286704
0.00300948
-0.164682
0.16454
-0.00269056
0.00203163
-0.0621714
0.0628303
-0.00136467
0.00067626
-0.0116822
0.0123706
-0.000219971
0.00154147
-0.0013215
-0.0782616
0.0778519
0.000409742
0.000194512
-0.000996885
-0.437813
0.438616
0.00253506
-0.00474001
-0.621902
0.624107
0.00781733
-0.0108952
-0.763803
0.766881
0.0146782
-0.0180811
-0.889524
0.892927
0.0220782
-0.0258442
-1.01547
1.01924
0.0300794
-0.0339682
-1.15187
1.15575
0.0379542
-0.0415287
-1.29803
1.3016
0.0449507
-0.047747
-1.45021
1.45301
0.0494916
-0.0496404
-1.6052
1.60534
0.0483745
-0.0455288
-1.48543
1.48258
0.0422218
-0.0379991
-1.16724
1.16302
0.0334979
-0.0283978
-0.931092
0.925992
0.0234167
-0.0179352
-0.728845
0.723363
0.0132154
-0.00834585
-0.522833
0.517964
0.00497558
-0.00232247
-0.321133
0.31848
0.000745361
0.000190946
-0.162776
0.16184
-0.00063965
0.000704866
-0.0624665
0.0624013
-0.000580843
0.000343595
-0.0125217
0.0127589
-0.000130426
0.0012138
-0.00108337
-0.0794651
0.0791825
0.000282516