/*--------------------------------*- C++ -*----------------------------------*\
  =========                 |
  \\      /  F ield         | OpenFOAM: The Open Source CFD Toolbox
   \\    /   O peration     | Website:  https://openfoam.org
    \\  /    A nd           | Version:  6
     \\/     M anipulation  |
\*---------------------------------------------------------------------------*/
FoamFile
{
    version     2.0;
    format      ascii;
    class       surfaceScalarField;
    location    "70";
    object      phi;
}
// * * * * * * * * * * * * * * * * * * * * * * * * * * * * * * * * * * * * * //

dimensions      [0 3 -1 0 0 0 0];

internalField   nonuniform List<scalar> 
4262
(
0.106792
0.471197
0.0925313
0.707846
0.0647773
0.860057
0.0423333
1.02121
0.0262798
1.21457
0.0161725
1.44833
0.00987819
1.73216
0.00566804
2.07525
0.00246173
2.48845
-0.000358635
2.98511
-0.00309413
2.98503
-0.006308
2.48846
-0.0105641
2.07529
-0.0168179
1.73212
-0.0267686
1.44817
-0.0425942
1.21434
-0.0648414
1.02101
-0.0924822
0.859944
-0.10683
0.707934
0.471158
0.114772
0.356425
0.139925
0.682693
0.125261
0.874721
0.101723
1.04475
0.0735049
1.24279
0.0473196
1.47451
0.0266818
1.7528
0.0126742
2.08925
0.00448222
2.49664
-0.00141685
2.99101
-0.00716322
2.99077
-0.0153508
2.49664
-0.0288872
2.08883
-0.0490686
1.7523
-0.0750772
1.47418
-0.103361
1.24263
-0.12699
1.04464
-0.140779
0.873732
-0.115214
0.682369
0.355944
0.0917091
0.264716
0.126305
0.648096
0.124836
0.87619
0.110915
1.05867
0.0964775
1.25723
0.0767167
1.49427
0.0546662
1.77485
0.0329556
2.11096
0.013445
2.51615
-0.00221432
3.00667
-0.0179251
3.00648
-0.0369196
2.51564
-0.0584493
2.11036
-0.0802733
1.77412
-0.099521
1.49343
-0.113031
1.25614
-0.125931
1.05754
-0.127758
0.875559
-0.0923972
0.647008
0.263547
0.0627955
0.201921
0.103935
0.606957
0.106654
0.87347
0.0970755
1.06825
0.0859349
1.26837
0.0753062
1.5049
0.06058
1.78957
0.0416585
2.12989
0.0200497
2.53776
-0.00385668
3.03058
-0.0275138
3.03014
-0.0483528
2.53648
-0.0661661
2.12817
-0.0797552
1.78771
-0.0894944
1.50317
-0.100263
1.2669
-0.109658
1.06693
-0.106124
0.872026
-0.0637528
0.604637
0.199795
0.0370256
0.164895
0.07937
0.564613
0.089688
0.863152
0.0828994
1.07503
0.071664
1.2796
0.0627623
1.5138
0.0527971
1.79954
0.0389903
2.14369
0.0200351
2.55672
-0.00448728
3.0551
-0.0285537
3.05421
-0.0467863
2.55471
-0.059946
2.14133
-0.0693152
1.79708
-0.077507
1.51136
-0.0878949
1.27729
-0.0935547
1.07259
-0.0817734
0.860244
-0.0378643
0.560728
0.16193
0.0194883
0.145407
0.0565101
0.527591
0.0715321
0.84813
0.0689449
1.07762
0.0597785
1.28877
0.0495263
1.52406
0.0398253
1.80924
0.0285925
2.15493
0.0136104
2.5717
-0.00670758
3.07542
-0.0265905
3.07409
-0.0404442
2.56856
-0.0501161
2.151
-0.0580939
1.80506
-0.0669661
1.52023
-0.0748989
1.28523
-0.0762382
1.07393
-0.0594472
0.843453
-0.0204326
0.521713
0.141498
0.0107088
0.134698
0.041959
0.496341
0.057463
0.832626
0.0571387
1.07795
0.0502024
1.2957
0.0401572
1.5341
0.0303535
1.81904
0.0200924
2.16519
0.0077561
2.58403
-0.00771429
3.09089
-0.0225949
3.08897
-0.033773
2.57974
-0.0427988
2.16003
-0.0512307
1.81349
-0.0598703
1.52887
-0.0651619
1.29052
-0.0636663
1.07244
-0.0457374
0.825525
-0.011857
0.487833
0.129641
0.00657866
0.128119
0.0326942
0.470225
0.0482755
0.817045
0.0489965
1.07722
0.0431605
1.30154
0.0337577
1.5435
0.0232189
1.82958
0.0123951
2.17601
0.00134854
2.59508
-0.0104619
3.1027
-0.02166
3.10017
-0.0312248
2.58931
-0.0397591
2.16856
-0.0479122
1.82164
-0.0553438
1.5363
-0.0592098
1.29438
-0.0561579
1.06939
-0.0374217
0.806788
-0.00802937
0.45844
0.121611
0.00467794
0.123441
0.0263754
0.448528
0.0419045
0.801516
0.0435347
1.07559
0.0382094
1.30687
0.0297991
1.55191
0.0199318
1.83945
0.00925271
2.18669
-0.00157002
2.6059
-0.0124907
3.11362
-0.0226504
3.11033
-0.0316636
2.59832
-0.0402234
2.17712
-0.0479415
1.82936
-0.0539339
1.54229
-0.0566093
1.29706
-0.0517583
1.06453
-0.0321632
0.787193
-0.00644832
0.432726
0.115163
0.0036886
0.119753
0.0214015
0.430815
0.0362131
0.786704
0.0387008
1.07311
0.0340666
1.3115
0.0262207
1.55976
0.0166676
1.849
0.00596724
2.19739
-0.00522583
2.6171
-0.0162275
3.12462
-0.0260483
3.12015
-0.0347364
2.60701
-0.0422848
2.18467
-0.0486462
1.83572
-0.0534773
1.54712
-0.0547172
1.2983
-0.0484129
1.05823
-0.0284713
0.767252
-0.00583703
0.410091
0.109326
0.00296805
0.116785
0.0172771
0.416506
0.030949
0.773032
0.0337033
1.07035
0.029419
1.31578
0.0222392
1.56694
0.0136267
1.85761
0.00369221
2.20732
-0.00744255
2.62823
-0.0195066
3.13669
-0.0305402
3.13118
-0.0389576
2.61543
-0.0455057
2.19122
-0.0506171
1.84083
-0.0543009
1.55081
-0.0543953
1.29839
-0.0464192
1.05025
-0.0260567
0.746889
-0.0056641
0.389699
0.103662
0.00239015
0.114394
0.0138318
0.405064
0.0263443
0.76052
0.0293472
1.06735
0.0252801
1.31985
0.0180752
1.57414
0.00926331
1.86643
-0.000954195
2.21754
-0.0125845
2.63986
-0.0249178
3.14902
-0.0355531
3.14182
-0.0433332
2.62321
-0.0489681
2.19685
-0.0529786
1.84485
-0.0553861
1.55322
-0.0545809
1.29759
-0.0450981
1.04077
-0.0244162
0.726207
-0.00562574
0.370908
0.0980361
0.00167935
0.112715
0.0103784
0.396365
0.021001
0.749897
0.0234767
1.06487
0.019273
1.32405
0.0122422
1.58118
0.00380108
1.87487
-0.00596404
2.22731
-0.0169896
2.65089
-0.0296291
3.16166
-0.040868
3.15306
-0.0480261
2.63036
-0.0526346
2.20146
-0.0559788
1.84819
-0.0573823
1.55462
-0.055375
1.29558
-0.0444368
1.02983
-0.0233459
0.705116
-0.0055965
0.353159
0.0924396
0.000742523
0.111973
0.0069074
0.3902
0.0157444
0.74106
0.0175996
1.06302
0.0129414
1.32871
0.00530396
1.58881
-0.00375427
1.88393
-0.0139245
2.23748
-0.0254765
2.66244
-0.0378256
3.17401
-0.0473661
3.1626
-0.0532738
2.63627
-0.0569248
2.20511
-0.0594523
1.85072
-0.0600103
1.55518
-0.0570115
1.29258
-0.0445241
1.01735
-0.0228145
0.683407
-0.00559556
0.33594
0.086844
3.59645e-05
0.111937
0.00378809
0.386448
0.0103988
0.73445
0.0113417
1.06208
0.00624372
1.33381
-0.00169174
1.59675
-0.0110653
1.8933
-0.0215311
2.24794
-0.0328457
2.67375
-0.0447556
3.18592
-0.0542357
3.17208
-0.0600211
2.64206
-0.063202
2.2083
-0.0648495
1.85236
-0.0643505
1.55468
-0.0597768
1.28801
-0.0454996
1.00307
-0.0228541
0.660761
-0.00570708
0.318793
0.0811369
-0.00100705
0.112944
-5.5376e-05
0.385497
0.00414422
0.73025
0.00382735
1.06239
-0.00210664
1.33974
-0.0110025
1.60564
-0.0214379
1.90373
-0.0328128
2.25932
-0.044731
2.68567
-0.0562324
3.19742
-0.0644831
3.18033
-0.0685895
2.64616
-0.0703892
2.21009
-0.0711038
1.85308
-0.0697158
1.55329
-0.0633851
1.28168
-0.0470385
0.986722
-0.023236
0.636959
-0.00585084
0.301408
0.0752861
-0.00206437
0.115008
-0.00347079
0.386903
-0.00252867
0.729308
-0.00455796
1.06442
-0.0112614
1.34645
-0.020651
1.61503
-0.0315165
1.9146
-0.0433725
2.27117
-0.0557701
2.69807
-0.0676241
3.20927
-0.0758469
3.18855
-0.0796267
2.64994
-0.0808673
2.21134
-0.0803691
1.85258
-0.0772508
1.55017
-0.0687473
1.27317
-0.0498854
0.96786
-0.0243531
0.611427
-0.00619298
0.283248
0.0690931
-0.0032883
0.118296
-0.00709288
0.390708
-0.00936441
0.731579
-0.0133706
1.06843
-0.0215414
1.35462
-0.0326801
1.62617
-0.045191
1.92711
-0.0585595
2.28454
-0.0717875
2.7113
-0.0833013
3.22079
-0.0901852
3.19544
-0.0925766
2.65234
-0.0920459
2.2108
-0.0901756
1.85071
-0.0858493
1.54585
-0.075045
1.26237
-0.0533436
0.946159
-0.0257871
0.58387
-0.00655126
0.264012
0.0625419
-0.00481493
0.123111
-0.0118215
0.397714
-0.0175873
0.737345
-0.0247138
1.07555
-0.034383
1.36429
-0.0465872
1.63838
-0.0600654
1.94059
-0.0745666
2.29904
-0.0893229
2.72605
-0.10272
3.23418
-0.109371
3.20209
-0.110227
2.65319
-0.108289
2.20887
-0.104572
1.84699
-0.0979267
1.5392
-0.0841002
1.24854
-0.0586688
0.920728
-0.0280575
0.553259
-0.00709885
0.243053
0.055443
-0.00610745
0.129219
-0.0164332
0.40804
-0.0262436
0.747156
-0.0360406
1.08535
-0.0480023
1.37625
-0.0627547
1.65313
-0.0788624
1.9567
-0.0959078
2.31609
-0.112324
2.74247
-0.124315
3.24617
-0.128691
3.20646
-0.128414
2.65291
-0.125083
2.20554
-0.119941
1.84185
-0.111692
1.53095
-0.0943423
1.23119
-0.064501
0.890886
-0.0304983
0.519256
-0.0076294
0.220184
0.0478136
-0.00862966
0.137848
-0.0241366
0.423547
-0.0398151
0.762834
-0.0532077
1.09874
-0.0668962
1.38994
-0.0834606
1.66969
-0.102119
1.97535
-0.12174
2.33571
-0.140001
2.76073
-0.153235
3.25941
-0.157072
3.2103
-0.153546
2.64939
-0.147942
2.19993
-0.140484
1.83439
-0.128612
1.51908
-0.106832
1.20941
-0.0717443
0.855799
-0.0332791
0.480791
-0.00813348
0.195039
0.0396801
-0.0110182
0.148867
-0.0307298
0.443259
-0.0519866
0.784091
-0.0707003
1.11746
-0.0886482
1.40789
-0.108898
1.68994
-0.131125
1.99758
-0.154044
2.35863
-0.174004
2.78069
-0.185699
3.2711
-0.18576
3.21036
-0.180408
2.64404
-0.172287
2.19181
-0.162236
1.82434
-0.147654
1.5045
-0.120612
1.18237
-0.0789826
0.814169
-0.0357098
0.437518
-0.00845214
0.167781
0.031228
-0.0154393
0.164306
-0.0425982
0.470417
-0.0707004
0.812193
-0.0944244
1.14118
-0.116734
1.4302
-0.142455
1.71566
-0.169893
2.02502
-0.195759
2.3845
-0.215251
2.80018
-0.22374
3.27959
-0.220798
3.20742
-0.211939
2.63518
-0.20143
2.1813
-0.189222
1.81213
-0.169878
1.48516
-0.136381
1.14887
-0.0872052
0.764994
-0.037998
0.388311
-0.00862943
0.138412
0.0225986
-0.0195682
0.183874
-0.0555922
0.506441
-0.0933614
0.849962
-0.125149
1.17297
-0.154208
1.45925
-0.18668
1.74814
-0.218033
2.05637
-0.244571
2.41103
-0.261684
2.8173
-0.265673
3.28358
-0.257528
3.19927
-0.245371
2.62302
-0.232238
2.16817
-0.216737
1.79663
-0.193337
1.46176
-0.151857
1.10739
-0.0933806
0.706517
-0.0387755
0.333706
-0.00827478
0.107912
0.0143238
-0.0318887
0.215763
-0.0797705
0.554323
-0.128877
0.899068
-0.168903
1.213
-0.204483
1.49484
-0.244043
1.7877
-0.278429
2.09076
-0.304009
2.43661
-0.31643
2.82972
-0.313172
3.28032
-0.298561
3.18466
-0.282415
2.60687
-0.267111
2.15287
-0.249249
1.77877
-0.218732
1.43124
-0.167352
1.05601
-0.0992647
0.63843
-0.0390058
0.273447
-0.0078111
0.076717
0.00651269
-0.0453657
0.261128
-0.11861
0.627567
-0.183992
0.964451
-0.231289
1.26029
-0.273841
1.53739
-0.31715
1.831
-0.347884
2.12149
-0.366194
2.45492
-0.371855
2.83538
-0.365066
3.27354
-0.348229
3.16782
-0.326923
2.58557
-0.303687
2.12963
-0.276836
1.75192
-0.238229
1.39263
-0.176642
0.994426
-0.0984236
0.560211
-0.036265
0.211288
-0.00732025
0.0477722
-0.00080757
-0.0324669
0.293595
-0.0974891
0.692589
-0.157531
1.02449
-0.207467
1.31023
-0.261141
1.59106
-0.308383
1.87825
-0.35194
2.16505
-0.389706
2.49269
-0.418861
2.86453
-0.43415
3.28882
-0.429251
3.16293
-0.414181
2.5705
-0.395269
2.11072
-0.365957
1.72261
-0.309221
1.3359
-0.216414
0.901619
-0.110665
0.454462
-0.0398523
0.140476
-0.00863484
0.0165547
-0.00944241
-0.0136607
0.307256
-0.0483026
0.727231
-0.0889005
1.06509
-0.131154
1.35248
-0.173828
1.63373
-0.205443
1.90986
-0.237035
2.19664
-0.266643
2.5223
-0.289298
2.88719
-0.300141
3.29967
-0.300896
3.16368
-0.294415
2.56402
-0.277926
2.09423
-0.246962
1.69164
-0.195375
1.28431
-0.123759
0.830004
-0.0559501
0.386653
-0.021102
0.105628
-0.00497199
0.000424699
-0.0144144
-0.00326264
0.310519
-0.0238435
0.747812
-0.0512734
1.09252
-0.0804293
1.38164
-0.108717
1.66202
-0.136358
1.9375
-0.163775
2.22406
-0.189904
2.54843
-0.211354
2.90864
-0.222115
3.31043
-0.217449
3.15901
-0.201752
2.54832
-0.181838
2.07431
-0.154216
1.66402
-0.111808
1.2419
-0.0611086
0.779304
-0.0243443
0.349889
-0.0111011
0.0923845
-0.00322709
-0.00744926
-0.0176415
0.00108847
0.30943
-0.013681
0.762582
-0.0339649
1.1128
-0.0543773
1.40205
-0.0738987
1.68154
-0.0956266
1.95923
-0.11856
2.24699
-0.139617
2.56948
-0.154871
2.92389
-0.160305
3.31586
-0.154769
3.15348
-0.140933
2.53448
-0.117457
2.05084
-0.0845304
1.63109
-0.049614
1.20698
-0.0184261
0.748116
-0.00488206
0.336345
-0.0032897
0.0907922
-0.00163595
-0.00910303
-0.0192774
0.00373462
0.305696
-0.00505439
0.771371
-0.0215828
1.12933
-0.0400005
1.42047
-0.0575383
1.69908
-0.075121
1.97681
-0.092696
2.26457
-0.108615
2.5854
-0.120347
2.93563
-0.124382
3.3199
-0.114618
3.14372
-0.0933924
2.51326
-0.0685044
2.02595
-0.0429716
1.60556
-0.0139344
1.17795
0.00792302
0.726259
0.0101904
0.334077
0.00454627
0.0964363
0.000575075
-0.00513182
-0.0187024
0.00465707
0.301039
-0.00140573
0.777433
-0.0156133
1.14354
-0.0319201
1.43678
-0.0478252
1.71499
-0.0632054
1.99219
-0.0781318
2.2795
-0.0907749
2.59804
-0.0978401
2.94269
-0.096262
3.31832
-0.0851996
3.13265
-0.0679286
2.49599
-0.0443878
2.00241
-0.0150892
1.57626
0.0093326
1.15352
0.0205602
0.715031
0.0176756
0.336962
0.00869737
0.105415
0.00198067
0.00158486
-0.0167217
0.00463071
0.296408
0.00142266
0.780642
-0.0105537
1.15552
-0.0263437
1.45257
-0.0425878
1.73123
-0.0576138
2.00722
-0.0708484
2.29273
-0.0809614
2.60816
-0.0859716
2.9477
-0.083363
3.31571
-0.0697517
3.11904
-0.0480245
2.47426
-0.0244931
1.97888
-0.00281301
1.55458
0.0172254
1.13349
0.0268223
0.705434
0.0213793
0.342405
0.0109712
0.115823
0.00286332
0.00969278
-0.0138584
0.0028233
0.293585
-0.00025854
0.783723
-0.0104175
1.16568
-0.0238461
1.46599
-0.0385677
1.74595
-0.0531573
2.02181
-0.0666451
2.30622
-0.0769025
2.61841
-0.0810357
2.95183
-0.0756557
3.31033
-0.0612626
3.10465
-0.0449461
2.45794
-0.0237598
1.95769
0.00169916
1.52912
0.020217
1.11497
0.0265462
0.699105
0.0212672
0.347684
0.0112793
0.125811
0.00313584
0.0178362
-0.0107225
0.00179146
0.291793
-0.000909832
0.786425
-0.00991838
1.17468
-0.0223726
1.47845
-0.036525
1.7601
-0.0511507
2.03644
-0.0650953
2.32016
-0.0760833
2.6294
-0.0809725
2.95672
-0.0757293
3.30509
-0.0604795
3.0894
-0.0407302
2.43819
-0.0188144
1.93578
-0.000856149
1.51117
0.0158095
1.0983
0.0235241
0.69139
0.0190883
0.35212
0.010333
0.134566
0.00299662
0.0251726
-0.00772591
-8.80262e-05
0.291881
-0.0037937
0.79013
-0.0120236
1.18291
-0.0228832
1.48931
-0.0355556
1.77278
-0.0495839
2.05046
-0.0642992
2.33488
-0.0772297
2.64233
-0.0839712
2.96346
-0.0791735
3.30029
-0.0641184
3.07434
-0.0471039
2.42118
-0.0283104
1.91698
-0.00622268
1.48908
0.0100274
1.08205
0.016519
0.684899
0.014537
0.354102
0.00824346
0.140859
0.00250587
0.0309102
-0.00522004
-0.00131799
0.293199
-0.00519115
0.794003
-0.0129959
1.19072
-0.0234709
1.49978
-0.0358031
1.78511
-0.0496363
2.0643
-0.0646102
2.34985
-0.0788286
2.65655
-0.0883575
2.97299
-0.0869512
3.29888
-0.0714555
3.05885
-0.0498129
2.39954
-0.0297899
1.89696
-0.014312
1.4736
0.00102378
1.06672
0.0103182
0.675604
0.010178
0.354242
0.00609886
0.144939
0.00197464
0.0350344
-0.0032454
-0.00270085
0.2959
-0.00765083
0.798953
-0.0154218
1.19849
-0.0251998
1.50956
-0.0367436
1.79665
-0.0499258
2.07748
-0.0647835
2.36471
-0.0802387
2.67201
-0.0932033
2.98596
-0.0956658
3.30135
-0.0815071
3.04469
-0.0616799
2.37971
-0.0428449
1.87813
-0.0219509
1.45271
-0.00651878
1.05128
0.00229559
0.66679
0.00529031
0.351247
0.00397996
0.146249
0.00150026
0.0375141
-0.00174514
-0.00349451
0.299394
-0.00877273
0.804232
-0.0165837
1.2063
-0.0264136
1.51939
-0.0379
1.80814
-0.0507669
2.09035
-0.0652413
2.37918
-0.081168
2.68793
-0.0973073
3.0021
-0.105392
3.30943
-0.0945296
3.03383
-0.0709446
2.35612
-0.0461066
1.85329
-0.0295983
1.4362
-0.014345
1.03603
-0.00319752
0.655643
0.000827231
0.347223
0.00169605
0.14538
0.000901367
0.0383088
-0.000843776
-0.0042796
0.303674
-0.0106325
0.810585
-0.0186215
1.21429
-0.0280931
1.52886
-0.0390841
1.81913
-0.0513841
2.10265
-0.0654253
2.39322
-0.0816757
2.70418
-0.100041
3.02046
-0.11316
3.32255
-0.107801
3.02847
-0.0878724
2.3362
-0.0617362
1.82715
-0.0355472
1.41001
-0.01869
1.01917
-0.00863895
0.645592
-0.00250703
0.341091
-7.21478e-06
0.14288
0.000356969
0.0379446
-0.000486807
-0.00467138
0.308345
-0.0113151
0.817228
-0.0194201
1.22239
-0.0289625
1.5384
-0.039895
1.83006
-0.0519329
2.11468
-0.0656646
2.40696
-0.0819732
2.72049
-0.101339
3.03983
-0.118912
3.34012
-0.119244
3.0288
-0.0988614
2.31581
-0.0680432
1.79633
-0.0411791
1.38315
-0.0203619
0.998357
-0.00765938
0.632889
-0.00182805
0.335259
9.1896e-06
0.141043
0.000262827
0.0376909
-0.000223979
-0.0050568
0.313402
-0.0124667
0.824638
-0.0206945
1.23062
-0.0299687
1.54768
-0.0405009
1.84059
-0.0521112
2.12629
-0.0656778
2.42052
-0.0821991
2.73701
-0.101852
3.05948
-0.121511
3.35978
-0.127106
3.0344
-0.113583
2.30229
-0.0863044
1.76905
-0.0478478
1.34469
-0.0186643
0.969173
-0.00512204
0.619347
0.00201989
0.328117
0.00236951
0.140693
0.000876138
0.0391843
0.00065216
-0.00508466
0.318487
-0.0125395
0.832093
-0.0208678
1.23895
-0.0302023
1.55701
-0.0405992
1.85099
-0.0519653
2.13766
-0.0656283
2.43419
-0.0824313
2.75382
-0.102096
3.07915
-0.122629
3.38032
-0.132649
3.04442
-0.121507
2.29115
-0.0928345
1.74038
-0.0563421
1.3082
-0.0177764
0.930608
0.0067413
0.594829
0.0130141
0.321845
0.00961713
0.14409
0.00326883
0.0455326
0.00392099
-0.00517019
0.323657
-0.0130206
0.839943
-0.0213935
1.24732
-0.0305221
1.56614
-0.0404353
1.86091
-0.0514147
2.14864
-0.0653777
2.44815
-0.0827286
2.77117
-0.102375
3.09879
-0.122514
3.40045
-0.134807
3.05671
-0.131549
2.28789
-0.109943
1.71878
-0.0666362
1.26489
-0.0190288
0.883
0.019879
0.555921
0.036317
0.305407
0.0302172
0.15019
0.0118764
0.0638734
0.0157974
-0.00498593
0.328643
-0.0126777
0.847635
-0.021035
1.25568
-0.0302111
1.57532
-0.039763
1.87046
-0.0505243
2.1594
-0.0650039
2.46263
-0.0830111
2.78917
-0.102618
3.1184
-0.122395
3.42023
-0.136254
3.07057
-0.135248
2.28688
-0.11378
1.69731
-0.076016
1.22713
-0.0211026
0.828087
0.0349945
0.499824
0.0769331
0.263468
0.0878971
0.139226
0.055504
0.0962666
0.0713013
-0.00490207
0.333545
-0.0123343
0.855067
-0.0200204
1.26337
-0.0285644
1.58386
-0.0392343
1.88113
-0.0527626
2.17293
-0.0694778
2.47934
-0.0887124
2.80841
-0.108768
3.13845
-0.127118
3.43858
-0.137921
3.08137
-0.138148
2.28711
-0.123645
1.6828
-0.0834166
1.1869
-0.0271419
0.771812
0.044583
0.428099
0.116218
0.191833
0.162367
0.0930772
0.150827
0.107807
0.222128
-0.00475156
0.338297
-0.011748
0.862064
-0.0192605
1.27088
-0.0280941
1.5927
-0.0396031
1.89264
-0.0544008
2.18773
-0.0726072
2.49755
-0.0933882
2.82919
-0.115662
3.16073
-0.137479
3.4604
-0.15315
3.09704
-0.155218
2.28918
-0.13813
1.66572
-0.103497
1.15227
-0.0357488
0.704064
0.0270939
0.365256
-0.0332999
0.252227
-0.380035
0.439812
-1.00917
0.736942
0.929629
-1.71667
-0.00466671
0.342963
-0.0118594
0.869256
-0.0195137
1.27853
-0.0282651
1.60145
-0.0390635
1.90343
-0.0531189
2.20178
-0.0715597
2.51599
-0.0935094
2.85114
-0.117427
3.18465
-0.142135
3.48511
-0.162715
3.11762
-0.174004
2.30047
-0.17127
1.66298
-0.135556
1.11655
-0.0979021
0.66641
-0.226912
0.494266
-0.767034
0.792349
-1.52811
1.20089
-2.11268
1.32151
1.20459
-2.38764
-0.00435481
0.347318
-0.0112433
0.876145
-0.0188144
1.28611
-0.0274125
1.61005
-0.0381096
1.91413
-0.0524155
2.21609
-0.0714492
2.53502
-0.0943506
2.87404
-0.119944
3.21024
-0.148039
3.5132
-0.175096
3.14468
-0.192306
2.31768
-0.189459
1.66014
-0.175084
1.10218
-0.296532
0.787857
-0.849825
1.04756
-1.63849
1.58101
-2.15399
1.71639
-2.37186
1.53938
1.30699
-2.47426
-0.00386511
0.351183
-0.0110511
0.883331
-0.0184616
1.29352
-0.0265293
1.61811
-0.0369628
1.92456
-0.0514783
2.2306
-0.0710631
2.55461
-0.0948415
2.89782
-0.122187
3.23758
-0.15411
3.54512
-0.18679
3.17736
-0.216532
2.34742
-0.232117
1.67572
-0.316188
1.18625
-0.722675
1.19434
-1.51208
1.83696
-2.06187
2.13081
-2.28557
1.94009
-2.39066
1.64447
1.37313
-2.45679
-0.00303877
0.354222
-0.00884387
0.889136
-0.0156409
1.30031
-0.0242231
1.6267
-0.0360099
1.93635
-0.0514586
2.24605
-0.0712016
2.57435
-0.0952812
2.9219
-0.124548
3.26685
-0.160899
3.58148
-0.202234
3.21869
-0.238248
2.38343
-0.276059
1.71353
-0.512558
1.42275
-1.20832
1.89011
-1.87248
2.50112
-2.15679
2.41512
-2.29022
2.07351
-2.36721
1.72147
1.43042
-2.42451
-0.00270138
0.356923
-0.00744129
0.893876
-0.0141299
1.307
-0.0237297
1.6363
-0.0366972
1.94932
-0.0530086
2.26236
-0.0730606
2.5944
-0.097755
2.94659
-0.129273
3.29837
-0.170562
3.62276
-0.217707
3.26584
-0.264652
2.43038
-0.39075
1.83963
-0.820146
1.85214
-1.57713
2.64709
-1.99935
2.92335
-2.17376
2.58952
-2.26463
2.16438
-2.33497
1.7918
1.48932
-2.39386
-0.002596
0.359519
-0.00757853
0.898858
-0.0148079
1.31423
-0.0251052
1.64659
-0.0387734
1.96299
-0.0558254
2.27942
-0.0767776
2.61536
-0.102816
2.97263
-0.136857
3.33241
-0.183497
3.6694
-0.238006
3.32035
-0.300411
2.49278
-0.517571
2.05679
-1.14268
2.47725
-1.75799
3.2624
-1.9932
3.15856
-2.12441
2.72073
-2.22446
2.26443
-2.30764
1.87498
1.54761
-2.36593
-0.00293107
0.36245
-0.00898825
0.904916
-0.0168999
1.32214
-0.0273337
1.65703
-0.0411078
1.97676
-0.0585422
2.29685
-0.0803734
2.63719
-0.107904
3.00016
-0.144432
3.36894
-0.196249
3.72122
-0.256077
3.38018
-0.357213
2.59392
-0.690325
2.3899
-1.38066
3.16758
-1.80839
3.69013
-1.99704
3.34721
-2.12276
2.84646
-2.22133
2.363
-2.29477
1.94843
1.57694
-2.3241
-0.00319545
0.365646
-0.00949778
0.911218
-0.0180605
1.33071
-0.0291862
1.66815
-0.0435282
1.9911
-0.0615565
2.31488
-0.0842687
2.6599
-0.113285
3.02918
-0.152612
3.40827
-0.208711
3.77732
-0.276771
3.44824
-0.428553
2.7457
-0.866916
2.82827
-1.50665
3.80731
-1.8171
4.00058
-1.96973
3.49985
-2.05896
2.93568
-2.13624
2.44028
-2.18423
1.99642
1.51988
-2.12718
-0.00361488
0.369261
-0.0108487
0.918452
-0.0200776
1.33993
-0.0315697
1.67964
-0.0461775
2.00571
-0.0645699
2.33327
-0.0880609
2.68339
-0.118488
3.05961
-0.160314
3.45009
-0.222416
3.83942
-0.315449
3.54127
-0.516665
2.94692
-1.02582
3.33742
-1.55836
4.33985
-1.79065
4.23287
-1.92495
3.63415
-2.00356
3.01429
-2.0082
2.44492
-1.92148
1.90971
1.43317
-1.83477
-0.00357448
0.372835
-0.0107824
0.92566
-0.0205081
1.34966
-0.0328142
1.69195
-0.0482342
2.02113
-0.0672252
2.35226
-0.0910903
2.70726
-0.121957
3.09047
-0.164643
3.49278
-0.224531
3.89931
-0.325536
3.64227
-0.564173
3.18555
-1.1092
3.88245
-1.51114
4.74179
-1.66457
4.3863
-1.73962
3.7092
-1.76666
3.04132
-1.63252
2.31078
-1.11311
1.39029
0.320066
-0.00365395
0.376489
-0.0117048
0.933711
-0.0220472
1.36
-0.0349379
1.70484
-0.0512186
2.03741
-0.0715492
2.37259
-0.0973387
2.73305
-0.131069
3.1242
-0.178001
3.53971
-0.243624
3.96493
-0.364352
3.763
-0.668926
3.49013
-1.25441
4.46792
-1.5741
5.06149
-1.68158
4.49378
-1.71009
3.73771
-1.60348
2.93472
-1.24242
1.94972
-0.470963
0.618836
-0.150896
-0.00333854
0.379828
-0.0110086
0.941381
-0.0219282
1.37092
-0.0358986
1.71881
-0.0535166
2.05503
-0.075411
2.39449
-0.103314
2.76095
-0.140096
3.16098
-0.191227
3.59084
-0.264921
4.03863
-0.416752
3.91483
-0.795446
3.86882
-1.36573
5.03821
-1.59211
5.28786
-1.65821
4.55988
-1.62628
3.70578
-1.36167
2.67011
-0.635597
1.22364
-0.0166522
-0.000108621
-0.167548
-0.00276959
0.382597
-0.011525
0.950136
-0.023093
1.38249
-0.0374157
1.73313
-0.0555136
2.07313
-0.078507
2.41748
-0.108415
2.79086
-0.148154
3.20072
-0.202517
3.6452
-0.292449
4.12856
-0.477623
4.10001
-0.918226
4.30943
-1.43738
5.55736
-1.59308
5.44356
-1.62752
4.59432
-1.47622
3.55449
-0.969622
2.16351
-0.164331
0.418352
0.0386976
-0.203138
-0.128851
-0.00215797
0.384755
-0.00956107
0.957539
-0.0212886
1.39422
-0.0366501
1.7485
-0.0561599
2.09264
-0.0807978
2.44212
-0.112819
2.82288
-0.155724
3.24363
-0.213274
3.70275
-0.313137
4.22842
-0.524784
4.31165
-1.03809
4.82273
-1.46925
5.98852
-1.56924
5.54355
-1.54413
4.56921
-1.25807
3.26843
-0.497767
1.40321
0.00640125
-0.0858159
0.0242761
-0.221012
-0.104575
-0.00118177
0.385937
-0.00905283
0.96541
-0.0209635
1.40613
-0.0363001
1.76383
-0.0558545
2.11219
-0.081225
2.46749
-0.115044
2.8567
-0.161097
3.28968
-0.222714
3.76437
-0.331729
4.33744
-0.576353
4.55628
-1.13155
5.37794
-1.44474
6.30171
-1.49891
5.59772
-1.40603
4.47633
-0.967326
2.82972
-0.152215
0.588096
0.0195053
-0.257537
0.017346
-0.218853
-0.0872287
0.000938399
0.384999
-0.00476381
0.971112
-0.0162635
1.41763
-0.0322517
1.77982
-0.053042
2.13298
-0.0798693
2.49432
-0.115397
2.89222
-0.164038
3.33832
-0.229402
3.82974
-0.348349
4.45638
-0.62985
4.83778
-1.18333
5.93142
-1.40348
6.52186
-1.4269
5.62114
-1.20613
4.25556
-0.569522
2.19312
-0.00351059
0.0220847
0.0169833
-0.278031
0.00811864
-0.209988
-0.0791101
0.00244244
0.382556
-0.00206523
0.97562
-0.0128267
1.42839
-0.0281167
1.79511
-0.0481061
2.15297
-0.0748137
2.52102
-0.111283
2.92869
-0.161304
3.38834
-0.23221
3.90064
-0.362283
4.58646
-0.67605
5.15155
-1.1842
6.43957
-1.33151
6.66917
-1.30528
5.59491
-0.983114
3.93339
-0.279185
1.48919
-0.0131384
-0.243962
0.00258294
-0.293752
0.000284606
-0.20769
-0.0788255
0.0066093
0.375947
0.00588355
0.976346
-0.0030188
1.43729
-0.018154
1.81025
-0.0388427
2.17366
-0.0664584
2.54864
-0.103527
2.96576
-0.154457
3.43927
-0.228633
3.97482
-0.368131
4.72595
-0.704064
5.48748
-1.13859
6.87409
-1.2101
6.74068
-1.15107
5.53588
-0.793226
3.57554
-0.0590431
0.755006
0.0179211
-0.320926
0.0242743
-0.300105
0.0101903
-0.193606
-0.0686352
0.0102125
0.365734
0.0128412
0.973717
0.00634542
1.44379
-0.00683575
1.82343
-0.0253998
2.19222
-0.0514763
2.57472
-0.0880549
3.00234
-0.137916
3.48913
-0.216632
4.05353
-0.364794
4.87412
-0.70437
5.82705
-1.04635
7.21607
-1.09005
6.78438
-0.968326
5.41415
-0.520825
3.12804
0.0667804
0.167401
0.0656339
-0.319779
0.0514997
-0.285971
0.0192068
-0.161313
-0.0494284
0.0174644
0.34827
0.0272084
0.963973
0.0251107
1.44588
0.0135649
1.83497
-0.00494978
2.21074
-0.0310437
2.60081
-0.0665382
3.03784
-0.114866
3.53746
-0.190076
4.12874
-0.327797
5.01184
-0.662094
6.16135
-0.920312
7.47429
-0.946045
6.81012
-0.78093
5.24904
-0.302111
2.64922
0.0243439
-0.159054
0.052623
-0.348058
0.0434668
-0.276815
0.0146345
-0.132481
-0.0347939
0.0246418
0.323628
0.0418947
0.94672
0.0447346
1.44305
0.0371835
1.84252
0.0230227
2.2249
0.000689541
2.62314
-0.0321896
3.07071
-0.0786446
3.58392
-0.148394
4.19849
-0.272413
5.13586
-0.578998
6.46794
-0.761412
7.6567
-0.770917
6.81962
-0.608504
5.08663
-0.189188
2.2299
-0.0832333
-0.265008
-0.0285789
-0.402713
0.00814718
-0.313541
0.00653402
-0.130868
-0.0282599
0.0366201
0.287008
0.0661861
0.917154
0.0772183
1.43201
0.0737673
1.84597
0.0616735
2.23699
0.0408726
2.64394
0.0119873
3.0996
-0.0295588
3.62546
-0.0925365
4.26147
-0.197849
5.24117
-0.435064
6.70515
-0.562136
7.78378
-0.579127
6.83661
-0.445524
4.95302
-0.106512
1.89089
-0.0994842
-0.272036
-0.0575618
-0.444635
-0.0119608
-0.359142
0.00980099
-0.152629
-0.0184589
0.0489448
0.238063
0.0926146
0.873485
0.112732
1.4119
0.117073
1.84163
0.1132
2.24087
0.0997789
2.65736
0.0771369
3.12224
0.0408315
3.66177
-0.0165752
4.31888
-0.11139
5.33598
-0.236084
6.82985
-0.322049
7.86974
-0.339775
6.85434
-0.261336
4.87459
-0.0865553
1.71611
-0.138216
-0.220375
-0.108692
-0.47416
-0.0523378
-0.415496
0.0110243
-0.215992
-0.00743464
0.0641642
0.173899
0.127271
0.810378
0.164707
1.37446
0.179452
1.82689
0.180749
2.23957
0.170944
2.66717
0.154257
3.13893
0.127734
3.68829
0.0893995
4.35721
0.0442903
5.38109
0.0105718
6.86356
-0.0144962
7.89481
-0.0521962
6.89204
-0.0924419
4.91483
-0.112881
1.73655
-0.278239
-0.0550172
-0.248149
-0.50425
-0.159171
-0.504474
-0.0252877
-0.349875
-0.0327223
0.0659267
0.107972
0.161221
0.715084
0.222941
1.31274
0.254975
1.79485
0.268696
2.22585
0.270235
2.66563
0.261846
3.14732
0.245663
3.70447
0.220805
4.38207
0.213102
5.3888
0.285085
6.79158
0.315565
7.86433
0.324359
6.88324
0.186708
5.05248
-0.0722921
1.99555
-0.377164
0.249855
-0.408507
-0.472908
-0.308893
-0.604087
-0.133293
-0.525475
-0.166015
0.0564526
0.0515199
0.197921
0.573615
0.300965
1.20969
0.352651
1.74317
0.374981
2.20352
0.384472
2.65614
0.383663
3.14813
0.384872
3.70326
0.372587
4.39436
0.35799
5.40339
0.562461
6.58711
0.742032
7.68476
0.811972
6.8133
0.702949
5.16151
0.16161
2.53689
-0.172083
0.583547
-0.323498
-0.321493
-0.309861
-0.617724
-0.191546
-0.64379
-0.357561
0.0421289
0.009391
0.242378
0.373367
0.379731
1.07234
0.462486
1.66041
0.509098
2.15691
0.536783
2.62845
0.549963
3.13495
0.56327
3.68996
0.579311
4.37832
0.619864
5.36284
0.905035
6.30194
1.26939
7.3204
1.46177
6.62093
1.41361
5.20966
0.750405
3.2001
0.270604
1.06335
-0.0372577
-0.0136309
-0.189323
-0.465658
-0.156134
-0.67698
-0.513695
0.0255673
-0.0161763
0.238514
0.16042
0.470218
0.840637
0.603508
1.52712
0.671695
2.08872
0.710251
2.5899
0.739357
3.10584
0.762734
3.66658
0.81572
4.32533
0.924796
5.25376
1.3143
5.91244
1.84444
6.79026
2.1381
6.32727
2.22358
5.12417
1.85524
3.56844
1.1158
1.80278
0.530968
0.571204
0.138763
-0.0734527
-0.00981826
-0.528399
-0.523513
0.0214986
-0.0376749
0.161947
0.0199719
0.522652
0.479932
0.752335
1.29744
0.866138
1.97492
0.927706
2.52833
0.974616
3.05893
1.00975
3.63145
1.08377
4.25131
1.24123
5.0963
1.65945
5.49421
2.33946
6.11026
2.69216
5.97456
2.84646
4.96988
2.60217
3.81273
1.89193
2.51303
1.18404
1.27909
0.627461
0.483126
0.210341
-0.11128
-0.313172
0.00225814
-0.039933
0.0710248
-0.0487948
0.403802
0.147154
0.751166
0.950078
0.933662
1.79242
0.994383
2.46761
1.00818
3.04513
1.0061
3.63352
1.02332
4.2341
1.07898
5.04064
1.30113
5.27207
1.86907
5.54232
1.83452
6.00911
1.90742
4.89698
1.79287
3.92727
1.41245
2.89345
0.897926
1.79362
0.500554
0.880498
0.194232
0.195043
-0.11894
0.000507008
-0.04044
0.0308905
-0.0791784
0.181315
-0.00327048
0.574173
0.55722
0.79833
1.56826
0.891827
2.37411
0.914814
3.02215
0.917033
3.6313
0.898689
4.25244
0.929488
5.00984
1.03731
5.16425
1.33314
5.24649
1.57641
5.76584
1.59511
4.87828
1.54247
3.97991
1.34476
3.09117
0.968183
2.17019
0.576263
1.27242
0.226288
0.545017
0.107349
-0.00568108
-0.034759
-0.00296254
-0.0818969
0.0535233
-0.0597563
0.375811
0.234932
0.643173
1.3009
0.766512
2.25077
0.805468
2.98319
0.813175
3.6236
0.790948
4.27467
0.787714
5.01307
0.830941
5.12102
1.06476
5.01266
1.28053
5.55007
1.2688
4.89002
1.21128
4.03742
1.06749
3.23497
0.813389
2.42429
0.500691
1.58512
0.202382
0.843326
0.309731
-0.00561037
-0.0291486
-0.00454174
-0.0829655
0.0325697
-0.0968677
0.208902
0.0586002
0.497029
1.01278
0.64862
2.09918
0.689368
2.94244
0.690658
3.62231
0.665365
4.29997
0.645925
5.03251
0.659425
5.10752
0.806896
4.86519
0.98808
5.36889
0.961534
4.91656
0.893649
4.1053
0.780643
3.34797
0.610588
2.59434
0.392773
1.80293
0.166176
1.06992
0.475907
-0.0059463
-0.0232023
0.000966082
-0.0898779
0.0296575
-0.125559
0.118558
-0.0302998
0.382167
0.749165
0.532925
1.94843
0.577308
2.89806
0.569255
3.63036
0.542593
4.32663
0.52365
5.05146
0.517524
5.11365
0.584645
4.79807
0.691761