/*--------------------------------*- C++ -*----------------------------------*\
  =========                 |
  \\      /  F ield         | OpenFOAM: The Open Source CFD Toolbox
   \\    /   O peration     | Website:  https://openfoam.org
    \\  /    A nd           | Version:  6
     \\/     M anipulation  |
\*---------------------------------------------------------------------------*/
FoamFile
{
    version     2.0;
    format      ascii;
    class       surfaceScalarField;
    location    "39";
    object      phi;
}
// * * * * * * * * * * * * * * * * * * * * * * * * * * * * * * * * * * * * * //

dimensions      [0 3 -1 0 0 0 0];

internalField   nonuniform List<scalar> 
4262
(
0.106802
0.471186
0.0925428
0.707845
0.0648199
0.860026
0.0424387
1.02114
0.0264479
1.21451
0.0164154
1.44825
0.0102069
1.73207
0.00597901
2.07526
0.00271536
2.48851
-0.000309696
2.98532
-0.00328307
2.98527
-0.00654592
2.48851
-0.0107274
2.07522
-0.0168869
1.73202
-0.0268817
1.44821
-0.0427387
1.21437
-0.0649827
1.02101
-0.0925905
0.859911
-0.106864
0.70786
0.471124
0.114791
0.356395
0.139974
0.682662
0.125296
0.874703
0.101716
1.04473
0.0736653
1.24256
0.0481506
1.47377
0.0282764
1.75195
0.0144423
2.0891
0.00542834
2.49752
-0.00114393
2.99189
-0.00750433
2.99163
-0.0164388
2.49744
-0.029982
2.08876
-0.0495966
1.75164
-0.0748417
1.47346
-0.102783
1.24231
-0.126309
1.04453
-0.140546
0.874148
-0.115102
0.682415
0.356022
0.0916764
0.264719
0.126253
0.648086
0.124747
0.876209
0.110788
1.05868
0.0961197
1.25723
0.0759994
1.49389
0.0537784
1.77417
0.0326645
2.11021
0.0141057
2.51608
-0.00144438
3.00744
-0.0172853
3.00747
-0.0356389
2.51579
-0.0565723
2.10969
-0.078468
1.77353
-0.0981911
1.49318
-0.112411
1.25653
-0.12583
1.05795
-0.127353
0.875671
-0.0921878
0.64725
0.263834
0.0628484
0.201871
0.104049
0.606885
0.106852
0.873407
0.0972572
1.06828
0.0859354
1.26855
0.0747522
1.50507
0.0596676
1.78925
0.0408793
2.129
0.0199557
2.537
-0.00286895
3.03026
-0.0253912
3.02999
-0.045797
2.5362
-0.0639205
2.12782
-0.0782544
1.78787
-0.0888438
1.50377
-0.0996905
1.26738
-0.108961
1.06722
-0.105563
0.872274
-0.063501
0.605188
0.200333
0.0370516
0.164819
0.0793985
0.564538
0.0897648
0.86304
0.0830058
1.07504
0.0716498
1.2799
0.0620979
1.51462
0.0513798
1.79997
0.0373345
2.14305
0.0192385
2.5551
-0.00345639
3.05296
-0.0257943
3.05233
-0.0431693
2.55358
-0.0565813
2.14123
-0.0668447
1.79813
-0.0758132
1.51274
-0.0865826
1.27815
-0.0925649
1.07321
-0.0811906
0.8609
-0.0376713
0.561669
0.162662
0.0195657
0.145253
0.0566899
0.527414
0.0717381
0.847992
0.0692205
1.07755
0.0602415
1.28888
0.0503273
1.52454
0.0404993
1.8098
0.028974
2.15457
0.0144211
2.56965
-0.0048545
3.07223
-0.0237963
3.07127
-0.037561
2.56734
-0.0483146
2.15198
-0.0569809
1.8068
-0.0657546
1.52151
-0.0737116
1.28611
-0.0752467
1.07474
-0.0588651
0.844518
-0.0202736
0.523077
0.142388
0.010867
0.134386
0.0423547
0.495927
0.0580456
0.832301
0.0578953
1.07771
0.0513423
1.29544
0.0418432
1.53404
0.0322742
1.81937
0.0218193
2.16503
0.0094374
2.58203
-0.0060918
3.08776
-0.021121
3.0863
-0.0325486
2.57877
-0.0416305
2.16107
-0.0497605
1.81493
-0.0582786
1.53003
-0.0637728
1.2916
-0.0626024
1.07357
-0.045098
0.827014
-0.0117146
0.489694
0.130674
0.00676305
0.127623
0.0331598
0.46953
0.0490893
0.816371
0.0501445
1.07665
0.0446052
1.30098
0.0357286
1.54291
0.0259119
1.82918
0.0154234
2.17551
0.00417821
2.59328
-0.00752755
3.09947
-0.0187459
3.09752
-0.0289041
2.58893
-0.0377881
2.16995
-0.0458356
1.82297
-0.0533391
1.53754
-0.0573071
1.29557
-0.0545425
1.07081
-0.0364531
0.808924
-0.00778413
0.461025
0.12289
0.00477785
0.122846
0.0266971
0.447611
0.0424478
0.800621
0.0443175
1.07478
0.0393487
1.30594
0.031524
1.55074
0.0224612
1.83825
0.0123516
2.18562
0.00154379
2.60409
-0.0094619
3.11048
-0.0199591
3.10801
-0.0293137
2.59828
-0.0374692
2.1781
-0.0445846
1.83009
-0.0505469
1.5435
-0.0536776
1.2987
-0.0495588
1.06669
-0.0308622
0.790228
-0.00606258
0.436225
0.116827
0.0038621
0.118983
0.0219609
0.429512
0.03718
0.785402
0.0401012
1.07186
0.0359255
1.31012
0.0286431
1.55802
0.0201617
1.84673
0.0106316
2.19515
-0.000352987
2.61507
-0.0120419
3.12216
-0.0227179
3.11869
-0.0317408
2.6073
-0.0389612
2.18533
-0.0453587
1.83649
-0.0502592
1.5484
-0.0518106
1.30025
-0.046004
1.06088
-0.0270779
0.771302
-0.00546369
0.414611
0.111363
0.00320739
0.115776
0.0179838
0.414735
0.0322717
0.771114
0.0355804
1.06855
0.031886
1.31381
0.0253085
1.5646
0.0172911
1.85475
0.00810983
2.20434
-0.00279187
2.62597
-0.0147165
3.13409
-0.025623
3.1296
-0.0342349
2.61592
-0.0406647
2.19175
-0.0458679
1.84169
-0.0497678
1.5523
-0.0502521
1.30074
-0.0432351
1.05386
-0.0242575
0.752324
-0.00518293
0.395536
0.10618
0.00253785
0.113238
0.0142344
0.403039
0.0270932
0.758255
0.0307014
1.06494
0.0272587
1.31726
0.0205476
1.57131
0.0123041
1.86299
0.00335274
2.21329
-0.00676624
2.63609
-0.0183507
3.14567
-0.0288546
3.1401
-0.0360618
2.62312
-0.0417948
2.19749
-0.0464958
1.84639
-0.0494841
1.55529
-0.0490755
1.30033
-0.0406324
1.04542
-0.0218469
0.733539
-0.00492165
0.378611
0.101259
0.00153851
0.1117
0.0100075
0.39457
0.0209037
0.747359
0.0239279
1.06192
0.0205243
1.32066
0.0145197
1.57731
0.00710508
1.8704
-0.00163163
2.22202
-0.01123
2.64569
-0.0222873
3.15673
-0.0321435
3.14996
-0.0385752
2.62955
-0.0432261
2.20214
-0.0467855
1.84995
-0.0482276
1.55673
-0.0471348
1.29923
-0.0379046
1.03619
-0.0195593
0.715193
-0.00452258
0.363574
0.0967361
0.000563857
0.111136
0.00635861
0.388775
0.0151232
0.738594
0.0174516
1.05959
0.0137243
1.32439
0.00735743
1.58368
-0.000175008
1.87794
-0.00871075
2.23056
-0.017727
2.65471
-0.0279878
3.16699
-0.036441
3.15841
-0.0413811
2.63449
-0.0447213
2.20548
-0.046802
1.85203
-0.0477826
1.55771
-0.045689
1.29714
-0.0356379
1.02614
-0.0178332
0.697389
-0.00429071
0.350032
0.0924454
-0.000173303
0.111309
0.00257791
0.386024
0.0085712
0.732601
0.00977614
1.05838
0.00565132
1.32851
-0.000818402
1.59015
-0.00835423
1.88547
-0.016802
2.23901
-0.0255665
2.66347
-0.0346604
3.17609
-0.0413246
3.16507
-0.044917
2.63809
-0.0471022
2.20766
-0.0483519
1.85328
-0.048202
1.55756
-0.0447969
1.29374
-0.0341373
1.01548
-0.0167894
0.680041
-0.00422383
0.337466
0.0882216
-0.0009617
0.112271
-0.000733424
0.385796
0.00319506
0.728672
0.00337266
1.05821
-0.00157273
1.33346
-0.00893388
1.59751
-0.0172871
1.89382
-0.0261116
2.24783
-0.0346274
2.67199
-0.0425339
3.18399
-0.0478494
3.17039
-0.0503295
2.64057
-0.0513924
2.20873
-0.0518085
1.8537
-0.0507397
1.55649
-0.0463216
1.28932
-0.0340732
1.00323
-0.0165339
0.662501
-0.00437204
0.325304
0.0838495
-0.00209771
0.114369
-0.00396645
0.387664
-0.00366902
0.728375
-0.00506766
1.05961
-0.010188
1.33858
-0.0177421
1.60506
-0.0265885
1.90267
-0.0358737
2.25712
-0.0453401
2.68145
-0.0532341
3.19189
-0.0574705
3.17463
-0.0588533
2.64195
-0.0582826
2.20816
-0.0568094
1.85222
-0.0536739
1.55336
-0.0472939
1.28294
-0.033948
0.989884
-0.0164369
0.64499
-0.00450486
0.313372
0.0793447
-0.00330964
0.117678
-0.00777037
0.392125
-0.010474
0.731079
-0.0133893
1.06252
-0.0193985
1.34459
-0.0278125
1.61348
-0.0372676
1.91213
-0.0473195
2.26717
-0.0576279
2.69176
-0.0656086
3.19987
-0.069316
3.17833
-0.0692169
2.64185
-0.0666952
2.20563
-0.0633794
1.84891
-0.0586415
1.54862
-0.0501346
1.27443
-0.0349399
0.97469
-0.0168551
0.626905
-0.00468939
0.301207
0.0746553
-0.00500058
0.122679
-0.0131132
0.400238
-0.0196534
0.737619
-0.0256721
1.06854
-0.032558
1.35147
-0.0414244
1.62234
-0.0517711
1.92247
-0.0628373
2.27823
-0.0738337
2.70276
-0.0817973
3.20783
-0.083815
3.18035
-0.0813189
2.63935
-0.0764005
2.20072
-0.0706498
1.84316
-0.0636048
1.54157
-0.0530466
1.26387
-0.0365569
0.9582
-0.0179053
0.608254
-0.00509447
0.288396
0.0695608
-0.00642139
0.1291
-0.018224
0.41204
-0.0292023
0.748597
-0.0379742
1.07731
-0.047208
1.36071
-0.0585185
1.63366
-0.070599
1.93455
-0.0829327
2.29057
-0.0939541
2.71378
-0.100288
3.21416
-0.0996253
3.17969
-0.0948968
2.63463
-0.0880106
2.19383
-0.0802743
1.83542
-0.071186
1.53248
-0.0583433
1.25103
-0.0395751
0.939432
-0.0196179
0.588297
-0.00561248
0.27439
0.0639483
-0.00896476
0.138065
-0.0258313
0.428907
-0.0423018
0.765068
-0.0547203
1.08973
-0.0657064
1.37169
-0.0782727
1.64622
-0.0923964
1.94868
-0.107011
2.30518
-0.119308
2.72608
-0.125248
3.2201
-0.122135
3.17657
-0.113429
2.62592
-0.102763
2.18316
-0.0919171
1.82458
-0.0803704
1.52094
-0.065006
1.23567
-0.0440293
0.918455
-0.0222471
0.566515
-0.00635847
0.258502
0.0575899
-0.011121
0.149186
-0.0317404
0.449526
-0.052989
0.786316
-0.0697795
1.10652
-0.0847363
1.38665
-0.101789
1.66327
-0.119581
1.96647
-0.136761
2.32236
-0.149341
2.73866
-0.15296
3.22372
-0.145851
3.16947
-0.134074
2.61414
-0.121044
2.17013
-0.107832
1.81136
-0.0934471
1.50655
-0.0746479
1.21687
-0.0502443
0.894051
-0.0254664
0.541737
-0.00711257
0.240148
0.0504773
-0.0155302
0.164716
-0.0430559
0.477052
-0.0703357
0.813596
-0.0922961
1.12848
-0.11166
1.40601
-0.132599
1.68421
-0.154086
1.98796
-0.173358
2.34163
-0.185942
2.75124
-0.187699
3.22548
-0.177584
3.15935
-0.161969
2.59853
-0.144767
2.15293
-0.127504
1.7941
-0.109484
1.48853
-0.087108
1.19449
-0.0588576
0.865801
-0.0299003
0.51278
-0.00818319
0.218431
0.0422941
-0.0193714
0.184088
-0.0551393
0.51282
-0.0912571
0.849714
-0.120024
1.15725
-0.145628
1.43162
-0.173609
1.71219
-0.199291
2.01364
-0.218983
2.36133
-0.228357
2.76062
-0.224326
3.22145
-0.20829
3.14331
-0.188485
2.57872
-0.168635
2.13308
-0.149298
1.77476
-0.128226
1.46746
-0.101363
1.16763
-0.0677513
0.832189
-0.033681
0.478709
-0.008865
0.193615
0.0334291
-0.0319525
0.21604
-0.079043
0.55991
-0.125092
0.895763
-0.162369
1.19453
-0.196337
1.46558
-0.229861
1.74572
-0.256471
2.04025
-0.273257
2.37811
-0.277768
2.76513
-0.268725
3.21241
-0.24832
3.12291
-0.224418
2.55482
-0.20041
2.10907
-0.176275
1.75063
-0.150247
1.44143
-0.11807
1.13545
-0.0782174
0.792336
-0.038232
0.438724
-0.00955157
0.164934
0.0238775
-0.045337
0.261377
-0.116427
0.631
-0.178039
0.957376
-0.223257
1.23974
-0.266123
1.50845
-0.300908
1.7805
-0.323155
2.06249
-0.333685
2.38864
-0.332131
2.76357
-0.316928
3.1972
-0.29052
3.0965
-0.260955
2.52526
-0.231528
2.07964
-0.203278
1.72238
-0.172733
1.41089
-0.133997
1.09672
-0.0869597
0.745299
-0.0403548
0.392119
-0.00926564
0.133845
0.0146119
-0.0319255
0.293303
-0.0948821
0.693956
-0.153503
1.016
-0.203509
1.28975
-0.25163
1.55657
-0.288524
1.8174
-0.321969
2.09594
-0.35022
2.41689
-0.369182
2.78253
-0.372854
3.20088
-0.357541
3.08119
-0.331866
2.49958
-0.30053
2.04831
-0.262672
1.68452
-0.215426
1.36364
-0.157006
1.0383
-0.0918661
0.680159
-0.0370921
0.337345
-0.00819371
0.104947
0.00641819
-0.0125121
0.305815
-0.0446426
0.726087
-0.0821745
1.05353
-0.119749
1.32732
-0.156571
1.59339
-0.191413
1.85224
-0.223445
2.12797
-0.250057
2.44351
-0.267445
2.79992
-0.268475
3.20191
-0.251618
3.06433
-0.223841
2.47181
-0.18896
2.01343
-0.150174
1.64573
-0.110007
1.32347
-0.0670494
0.995338
-0.0286126
0.641723
-0.00731273
0.316045
-0.00114673
0.0987808
0.00527146
-0.00181837
0.307633
-0.0210124
0.745281
-0.0473938
1.07991
-0.0741954
1.35413
-0.100213
1.61941
-0.128094
1.88012
-0.156337
2.15621
-0.180644
2.46781
-0.19643
2.81571
-0.197848
3.20332
-0.181604
3.04809
-0.154121
2.44432
-0.121179
1.98049
-0.085113
1.60967
-0.0453315
1.28369
-0.0110905
0.961097
0.00815929
0.622473
0.0104576
0.313747
0.00398263
0.105256
0.00925409
0.000712153
0.306921
-0.0129644
0.758957
-0.0317979
1.09874
-0.0518627
1.37419
-0.0716418
1.63919
-0.0930154
1.9015
-0.115623
2.17882
-0.136485
2.48868
-0.150777
2.83
-0.152519
3.20507
-0.137377
3.03294
-0.110451
2.4174
-0.0787581
1.94879
-0.0456248
1.57654
-0.0158218
1.25389
0.00775459
0.937521
0.0186
0.611627
0.0153016
0.317045
0.00529161
0.115266
0.0145457
0.00374226
0.303179
-0.00530411
0.768004
-0.0219114
1.11535
-0.0399177
1.3922
-0.0572385
1.65651
-0.0749085
1.91917
-0.0932541
2.19717
-0.109921
2.50534
-0.12107
2.84115
-0.12155
3.20555
-0.108113
3.01951
-0.0850573
2.39434
-0.0586672
1.9224
-0.0300122
1.54788
-0.00139103
1.22527
0.0186102
0.91752
0.0242
0.606038
0.016834
0.324411
0.00553033
0.126569
0.020076
0.00441023
0.298768
-0.00131036
0.773724
-0.0159989
1.13004
-0.0332202
1.40942
-0.0498901
1.67318
-0.0657277
1.935
-0.0813981
2.21284
-0.0955985
2.51954
-0.105852
2.8514
-0.107056
3.20675
-0.0939895
3.00644
-0.0725061
2.37286
-0.0471736
1.89707
-0.0202882
1.52099
0.00243323
1.20255
0.0183828
0.90157
0.0223088
0.602112
0.0147085
0.332011
0.00470636
0.136572
0.0247824
0.00364091
0.295127
-9.04279e-05
0.777456
-0.0121966
1.14214
-0.0278308
1.42505
-0.0442593
1.68961
-0.0603897
1.95113
-0.0760113
2.22846
-0.0897594
2.53329
-0.0986849
2.86033
-0.098451
3.20652
-0.0855807
2.99357
-0.0665686
2.35385
-0.0438845
1.87439
-0.0205479
1.49766
0.00113774
1.18086
0.0147812
0.887927
0.0171904
0.599702
0.0110068
0.338195
0.0033328
0.144246
0.0281152
0.00223271
0.292895
-0.0012868
0.780975
-0.0118349
1.15269
-0.0258188
1.43904
-0.0413107
1.7051
-0.0575151
1.96734
-0.0737122
2.24466
-0.0879814
2.54756
-0.0972444
2.86959
-0.0970711
3.20634
-0.0831464
2.97965
-0.0644175
2.33512
-0.0437967
1.85376
-0.0219384
1.4758
-0.00472479
1.16365
0.0069066
0.876295
0.0106123
0.595997
0.00681242
0.341995
0.00226129
0.148797
0.0303765
0.000643774
0.292251
-0.00302879
0.784648
-0.0122384
1.1619
-0.0247174
1.45152
-0.0393935
1.71978
-0.0558144
1.98376
-0.0729863
2.26183
-0.0886435
2.56322
-0.0990576
2.88001
-0.098322
3.20561
-0.0860045
2.96733
-0.0694046
2.31852
-0.0488013
1.83316
-0.0303939
1.45739
-0.0135686
1.14682
-0.00322092
0.865948
0.000435683
0.59234
0.000342126
0.342088
0.000397331
0.148741
0.0307738
-0.00102244
0.293273
-0.00530406
0.788929
-0.013962
1.17056
-0.0255831
1.46314
-0.0394599
1.73365
-0.055504
1.9998
-0.0732041
2.27953
-0.0899763
2.57999
-0.101856
2.89189
-0.102345
3.20609
-0.0903541
2.95534
-0.0742226
2.30239
-0.0569723
1.81591
-0.0383304
1.43875
-0.0245657
1.13306
-0.0131802
0.854562
-0.00627375
0.585434
-0.00385534
0.33967
-0.00110004
0.145986
0.0296738
-0.00245767
0.295731
-0.00732632
0.793798
-0.0155938
1.17883
-0.0265072
1.47405
-0.0398257
1.74697
-0.0556026
2.01558
-0.0734458
2.29737
-0.0912671
2.59781
-0.105285
2.9059
-0.108734
3.20954
-0.098867
2.94547
-0.082282
2.2858
-0.0630312
1.79666
-0.0477736
1.42349
-0.0328566
1.11814
-0.0216568
0.843362
-0.013952
0.577729
-0.00703578
0.332754
-0.0020689
0.141019
0.0276049
-0.00354297
0.299274
-0.00915126
0.799406
-0.0175238
1.1872
-0.0282667
1.48479
-0.0411825
1.75989
-0.0563912
2.03079
-0.0738855
2.31487
-0.0923751
2.6163
-0.108838
2.92237
-0.117114
3.21782
-0.110011
2.93837
-0.0926713
2.26846
-0.0735056
1.77749
-0.0558209
1.40581
-0.0417267
1.10405
-0.0290441
0.83068
-0.0182132
0.566898
-0.00953842
0.324079
-0.00283372
0.134315
0.0247712
-0.0042636
0.303538
-0.010597
0.80574
-0.0190215
1.19563
-0.0295044
1.49528
-0.0421366
1.77252
-0.0569713
2.04562
-0.0740494
2.33194
-0.0925369
2.63479
-0.110399
2.94023
-0.122214
3.22963
-0.1198
2.93595
-0.102633
2.25129
-0.0802437
1.75511
-0.063003
1.38857
-0.0473262
1.08837
-0.0346833
0.818037
-0.0229133
0.555128
-0.0109889
0.312155
-0.00302365
0.126349
0.0217475
-0.00479178
0.308329
-0.0117781
0.812726
-0.020441
1.20429
-0.0309402
1.50578
-0.0433178
1.7849
-0.0576068
2.05991
-0.0740774
2.34841
-0.0926343
2.65335
-0.112636
2.96023
-0.13002
3.24702
-0.132999
2.93893
-0.116967
2.23526
-0.0934258
1.73156
-0.0690066
1.36415
-0.05267
1.07203
-0.0379787
0.803345
-0.0237899
0.540939
-0.0114663
0.299831
-0.00284102
0.117724
0.0189065
-0.00514893
0.313478
-0.0126536
0.820231
-0.0213485
1.21298
-0.0316243
1.51605
-0.04376
1.79703
-0.0577365
2.07389
-0.0738063
2.36448
-0.0920885
2.67163
-0.112049
2.98019
-0.130427
3.2654
-0.137834
2.94634
-0.127709
2.22514
-0.10389
1.70774
-0.0773645
1.33762
-0.0539561
1.04863
-0.0393072
0.788696
-0.026364
0.527996
-0.0119197
0.285387
-0.00253831
0.108343
0.0163682
-0.00532351
0.318802
-0.0131855
0.828093
-0.022027
1.22182
-0.0322849
1.52631
-0.0441512
1.8089
-0.0576263
2.08736
-0.0733414
2.3802
-0.0918026
2.69009
-0.112965
3.00135
-0.134976
3.28741
-0.147406
2.95877
-0.13991
2.21764
-0.120001
1.68784
-0.0882075
1.30583
-0.0577167
1.01813
-0.0355171
0.766497
-0.0204636
0.512942
-0.00921168
0.274135
-0.00178204
0.100913
0.0145861
-0.00539411
0.324196
-0.01348
0.836179
-0.0222806
1.23063
-0.0322408
1.53627
-0.0437191
1.82038
-0.0569339
2.10058
-0.0726922
2.39596
-0.0911618
2.70856
-0.111648
3.02184
-0.132322
3.30808
-0.146203
2.97265
-0.145773
2.21721
-0.129993
1.67206
-0.101564
1.2774
-0.0621951
0.978765
-0.0286663
0.732968
-0.0118644
0.49614
-0.00105635
0.263327
0.000882164
0.0989745
0.0154683
-0.00534042
0.329536
-0.0134981
0.844336
-0.0223345
1.23946
-0.0321484
1.54608
-0.0430969
1.83133
-0.0559773
2.11346
-0.0719346
2.41191
-0.0907924
2.72742
-0.111931
3.04298
-0.135126
3.33128
-0.151737
2.98926
-0.153992
2.21947
-0.143468
1.66153
-0.114389
1.24832
-0.0735866
0.937963
-0.0234446
0.682826
0.0117634
0.460932
0.0203754
0.254715
0.00920345
0.110146
0.0246718
-0.00521095
0.334747
-0.0133807
0.852506
-0.0220774
1.24816
-0.0315101
1.55552
-0.0417084
1.84153
-0.0546114
2.12636
-0.0710512
2.42835
-0.0900351
2.7464
-0.110554
3.0635
-0.132219
3.35294
-0.148504
3.00554
-0.155737
2.2267
-0.148162
1.65396
-0.126327
1.22649
-0.0825995
0.894235
-0.0265492
0.626776
0.0381874
0.396196
0.07026
0.222642
0.0500598
0.130347
0.0747315
-0.00501093
0.339758
-0.0126485
0.860144
-0.0207368
1.25625
-0.0300044
1.56478
-0.041498
1.85302
-0.0555536
2.14042
-0.0727612
2.44556
-0.0927851
2.76642
-0.114745
3.08546
-0.13836
3.37656
-0.156219
3.0234
-0.162123
2.23261
-0.157289
1.64912
-0.133569
1.20277
-0.0953945
0.856061
-0.0254016
0.556783
0.0633189
0.307475
0.133997
0.151964
0.139542
0.124802
0.214274
-0.00490396
0.344662
-0.0122534
0.867493
-0.0200819
1.26407
-0.0294801
1.57418
-0.0416341
1.86517
-0.056666
2.15545
-0.0750679
2.46396
-0.0968019
2.78816
-0.12117
3.10983
-0.146893
3.40228
-0.167832
3.04434
-0.180675
2.24545
-0.178646
1.64709
-0.160631
1.18475
-0.113576
0.809006
-0.0585762
0.501783
-0.090589
0.339488
-0.389851
0.451225
-0.995748
0.730699
0.925597
-1.70707
-0.00474725
0.349409
-0.012041
0.874787
-0.0199301
1.27196
-0.0291447
1.5834
-0.0405181
1.87655
-0.0553988
2.17033
-0.0744435
2.48301
-0.097003
2.81072
-0.1231
3.13592
-0.154146
3.43333
-0.182299
3.0725
-0.19953
2.26268
-0.209168
1.65673
-0.200266
1.17585
-0.182199
0.790939
-0.287347
0.606931
-0.758434
0.810576
-1.49795
1.19074
-2.09133
1.32409
1.20847
-2.37421
-0.0045038
0.353913
-0.0116237
0.881907
-0.0192971
1.27964
-0.0280521
1.59215
-0.039213
1.88771
-0.0544865
2.1856
-0.0740886
2.50261
-0.0974308
2.83406
-0.125264
3.16376
-0.158295
3.46636
-0.19005
3.10425
-0.218141
2.29077
-0.236474
1.67506
-0.243343
1.18272
-0.359215
0.90681
-0.842361
1.09008
-1.60464
1.57286
-2.137
1.72309
-2.35978
1.54687
1.3127
-2.464
-0.00394286
0.357856
-0.0111449
0.889109
-0.0186276
1.28712
-0.0268506
1.60037
-0.037852
1.89871
-0.0535289
2.20128
-0.0735167
2.5226
-0.0974245
2.85797
-0.127207
3.19354
-0.165765
3.50491
-0.206059
3.14455
-0.242271
2.32698
-0.27497
1.70776
-0.37242
1.28017
-0.741092
1.27548
-1.48697
1.83596
-2.04862
2.1345
-2.27602
1.9505
-2.38251
1.65336
1.3797
-2.44951
-0.00306373
0.36092
-0.00905948
0.895104
-0.0160253
1.29409
-0.0248561
1.6092
-0.037035
1.91089
-0.0529828
2.21723
-0.0727812
2.5424
-0.097318
2.8825
-0.129284
3.2255
-0.170777
3.54641
-0.216754
3.19052
-0.266823
2.37705
-0.32766
1.7686
-0.547077
1.49959
-1.19026
1.91867
-1.85338
2.49908
-2.1487
2.42982
-2.28552
2.08732
-2.36397
1.73181
1.43798
-2.42226
-0.00256808
0.363488
-0.00727227
0.899809
-0.0142993
1.30111
-0.0245523
1.61946
-0.0379675
1.9243
-0.0541244
2.23338
-0.0739819
2.56225
-0.0995569
2.90808
-0.133653
3.2596
-0.180412
3.59317
-0.233892
3.244
-0.28674
2.4299
-0.415192
1.89705
-0.828746
1.91314
-1.56222
2.65214
-1.99541
2.93227
-2.17163
2.60604
-2.26352
2.17921
-2.33397
1.80226
1.49715
-2.39314
-0.00245029
0.365938
-0.00762748
0.904986
-0.0151788
1.30866
-0.0258732
1.63015
-0.039795
1.93822
-0.0566927
2.25028
-0.0774462
2.58301
-0.104413
2.93505
-0.141088
3.29627
-0.191677
3.64375
-0.25141
3.30374
-0.330303
2.50879
-0.546059
2.11281
-1.13598
2.50306
-1.74554
3.26169
-1.99082
3.17755
-2.12378
2.739
-2.22422
2.27965
-2.30743
1.88548
1.55653
-2.36681
-0.00264286
0.368581
-0.0086036
0.910946
-0.0168152
1.31688
-0.0277773
1.64111
-0.0419174
1.95236
-0.0593688
2.26773
-0.0810742
2.60471
-0.109359
2.96333
-0.148132
3.33505
-0.203454
3.69908
-0.2691
3.36938
-0.37445
2.61414
-0.697619
2.43598
-1.36758
3.17302
-1.80618
3.70029
-1.99658
3.36796
-2.12496
2.86737
-2.22436
2.37906
-2.29994
1.96105
1.58695
-2.33036
-0.00298673
0.371568
-0.00945447
0.917414
-0.018234
1.32566
-0.0295257
1.65241
-0.0439755
1.96681
-0.0620257
2.28578
-0.0846601
2.62735
-0.114429
2.9931
-0.155995
3.37661
-0.214324
3.75741
-0.285959
3.44102
-0.438877
2.76706
-0.866439
2.86354
-1.4987
3.80528
-1.81681
4.01841
-1.97214
3.52328
-2.06408
2.95932
-2.14312
2.4581
-2.19432
2.01225
1.53028
-2.13764
-0.00321815
0.374786
-0.0101592
0.924355
-0.0196076
1.3351
-0.0315596
1.66436
-0.0464601
1.98172
-0.0649621
2.30429
-0.0883709
2.65076
-0.119288
3.02402
-0.163075
3.4204
-0.227813
3.82214
-0.32399
3.5372
-0.524884
2.96795
-1.01474
3.3534
-1.55083
4.34137
-1.79125
4.25882
-1.92997
3.662
-2.0096
3.03895
-2.01782
2.46632
-1.93613
1.93056
1.45485
-1.86071
-0.00325984
0.378046
-0.0105988
0.931694
-0.0204714
1.34498
-0.0328178
1.6767
-0.0481736
1.99707
-0.0670114
2.32312
-0.0907508
2.6745
-0.122352
3.05562
-0.166895
3.46494
-0.227728
3.88298
-0.329657
3.63912
-0.569496
3.20779
-1.09796
3.88186
-1.50749
4.7509
-1.66569
4.41701
-1.74361
3.73992
-1.77441
3.06974
-1.64303
2.33494
-1.1265
1.41404
0.328351
-0.00313511
0.381181
-0.0106525
0.939212
-0.0211575
1.35548
-0.0345565
1.6901
-0.0510874
2.0136
-0.0711418
2.34318
-0.0966771
2.70003
-0.131181
3.09012
-0.179612
3.51338
-0.246887
3.95025
-0.368959
3.7612
-0.666022
3.50486
-1.2408
4.45664
-1.57121
5.08131
-1.68256
4.52836
-1.71341
3.77077
-1.61037
2.9667
-1.25727
1.98185
-0.481369
0.638133
-0.153018
-0.00284012
0.384021
-0.0106994
0.947071
-0.0217169
1.3665
-0.0355575
1.70394
-0.0528878
2.03093
-0.0743586
2.36465
-0.101895
2.72757
-0.139225
3.12745
-0.19197
3.56612
-0.265869
4.02415
-0.414817
3.91014
-0.784688
3.87473
-1.35442
5.02638
-1.58939
5.31628
-1.65685
4.59583
-1.62762
3.74153
-1.36866
2.70775
-0.648885
1.26207
-0.0174902
0.00673813
-0.170508
-0.00237562
0.386397
-0.0101514
0.954847
-0.0216896
1.37804
-0.0364632
1.71872
-0.0547871
2.04926
-0.0774407
2.3873
-0.106655
2.75678
-0.146394
3.16719
-0.202139
3.62186
-0.294638
4.11665
-0.478454
4.09396
-0.902481
4.29875
-1.42431
5.54821
-1.58693
5.47889
-1.62471
4.63361
-1.48412
3.60094
-0.988106
2.21174
-0.175388
0.449348
0.0361918
-0.204842
-0.134317
-0.00161903
0.388016
-0.00920582
0.962434
-0.0209498
1.38978
-0.0359857
1.73375
-0.0549659
2.06824
-0.0788684
2.4112
-0.109996
2.78791
-0.152544
3.20974
-0.210959
3.68028
-0.311238
4.21693
-0.521518
4.30424
-1.01478
4.79201
-1.45627
5.9897
-1.56288
5.58551
-1.54372
4.61445
-1.25977
3.31699
-0.514638
1.46661
0.00888716
-0.0741769
0.0267804
-0.222735
-0.107536
-0.000374059
0.38839
-0.00719418
0.969254
-0.0190343
1.40162
-0.0348388
1.74956
-0.0546855
2.08808
-0.0795545
2.43607
-0.112003
2.82036
-0.156693
3.25443
-0.218076
3.74166
-0.328054
4.32691
-0.568806
4.54499
-1.10781
5.33102
-1.43119
6.31307
-1.48559
5.63992
-1.40284
4.53169
-0.989706
2.90386
-0.171038
0.64794
0.0231531
-0.268368
0.0213857
-0.220968
-0.0861506
0.00124627
0.387143
-0.00433873
0.974839
-0.0158606
1.41314
-0.0314737
1.76517
-0.0515649
2.10817
-0.0773252
2.46183
-0.111255
2.85429
-0.157816
3.30099
-0.221334
3.80518
-0.337592
4.44316
-0.613548
4.82095
-1.15643
5.8739
-1.38276
6.5394
-1.40898
5.66614
-1.20841
4.33112
-0.601072
2.29652
-0.00673422
0.0536027
0.014396
-0.289498
0.00761615
-0.214188
-0.0785344
0.00349752
0.383646
0.000182472
0.978154
-0.0104598
1.42379
-0.0262869
1.781
-0.0468021
2.12869
-0.0731218
2.48815
-0.107654
2.88882
-0.154093
3.34743
-0.220284
3.87137
-0.345036
4.56792
-0.651835
5.12775
-1.16169
6.38375
-1.30792
6.68564
-1.28547
5.6437
-0.968327
4.01397
-0.296651
1.62485
-0.0334397
-0.209608
-0.0121395
-0.310799
-0.00594664
-0.220381
-0.0844811
0.00675285
0.376893
0.00610227
0.978804
-0.00288131
1.43277
-0.0175775
1.79569
-0.0374851
2.1486
-0.0640077
2.51468
-0.0992417
2.92405
-0.146064
3.39425
-0.212257
3.93757
-0.339782
4.69544
-0.666756
5.45472
-1.1103
6.82729
-1.2044
6.77973
-1.14532
5.58462
-0.801423
3.67008
-0.0820008
0.905425
-0.00158711
-0.290022
0.0142751
-0.326661
0.00639863
-0.212504
-0.0780825
0.0112222
0.365671
0.0150891
0.974937
0.00890215
1.43896
-0.00488054
1.80948
-0.0242805
2.168
-0.0505045
2.5409
-0.0857219
2.95927
-0.131621
3.44015
-0.199407
4.00535
-0.327676
4.82371
-0.651857
5.7789
-1.01356
7.18899
-1.06369
6.82986
-0.95016
5.47109
-0.540654
3.26057
0.0869478
0.277823
0.112325
-0.315399
0.0897563
-0.304092
0.0448474
-0.167595
-0.0332351
0.0172084
0.348463
0.0266717
0.965474
0.0242979
1.44133
0.0133426
1.82043
-0.00410443
2.18544
-0.0291622
2.56596
-0.0640687
2.99418
-0.109815
3.4859
-0.174705
4.07024
-0.290326
4.93933
-0.585981
6.07456
-0.86457
7.46758
-0.921899
6.88719
-0.79687
5.34607
-0.33169
2.79539
0.0282467
-0.0821139
0.0729079
-0.36006
0.0822983
-0.313482
0.052906
-0.138203
0.0196709
0.0249061
0.323556
0.0429052
0.947475
0.0459023
1.43833
0.0378977
1.82844
0.0231052
2.20024
0.000569638
2.58849
-0.0322336
3.02698
-0.0779274
3.53159
-0.140627
4.13294
-0.237173
5.03588
-0.470306
6.30769
-0.67607
7.67334
-0.748908
6.96003
-0.687702
5.28486
-0.314744
2.42243
-0.248428
-0.148431
-0.166496
-0.441993
-0.0637943
-0.416184
0.00787651
-0.209874
0.0275474
0.0349496
0.288607
0.0631827
0.919242
0.0733138
1.4282
0.0703465
1.8314
0.0600241
2.21056
0.0418688
2.60665
0.0142578
3.05459
-0.0288085
3.57466
-0.0900594
4.19419
-0.167861
5.11368
-0.314233
6.45406
-0.437655
7.79677
-0.529751
7.05213
-0.522914
5.27802
-0.303328
2.20285
-0.466693
0.0149341
-0.416571
-0.492114
-0.277131
-0.555623
-0.0837083
-0.403297
-0.0561609
0.0468436
0.241763
0.0896864
0.876399
0.109198
1.40869
0.112495
1.82811
0.10815
2.2149
0.0957821
2.61902
0.0766596
3.07372
0.0421952
3.60912
-0.0155822
4.25197
-0.0837782
5.18187
-0.131353
6.50164
-0.160066
7.82548
-0.207206
7.09927
-0.212966
5.28378
-0.242662
2.23254
-0.536897
0.309169
-0.579418
-0.449593
-0.439265
-0.695776
-0.20348
-0.639082
-0.259641
0.0593045
0.182459
0.119003
0.8167
0.153567
1.37413
0.167194
1.81448
0.170173
2.21193
0.165222
2.62397
0.156742
3.0822
0.13849
3.62737
0.0996994
4.29076
0.0534888
5.22808
0.0984558
6.45667
0.191128
7.73281
0.271239
7.01916
0.232846
5.32217
-0.0119087
2.4773
-0.293676
0.590936
-0.401612
-0.341657
-0.37333
-0.724058
-0.216125
-0.796286
-0.475766
0.0635476
0.118911
0.152037
0.728211
0.208338
1.31783
0.236183
1.78664
0.248591
2.19952
0.251892
2.62067
0.253758
3.08033
0.256905
3.62423
0.253477
4.29419
0.24664
5.23492
0.417256
6.28606
0.642163
7.5079
0.803707
6.85761
0.784312
5.34157
0.305651
2.95596
0.0581252
0.838461
-0.110314
-0.173218
-0.213967
-0.620405
-0.146872
-0.863381
-0.622638
0.0556864
0.0632249
0.182384
0.601513
0.274851
1.22536
0.322259
1.73923
0.344454
2.17732
0.358312
2.60681
0.369536
3.06911
0.392645
3.60112
0.433033
4.2538
0.498518
5.16944
0.797358
5.98722
1.20667
7.09859
1.49266
6.57161
1.57097
5.26326
1.09346
3.43347
0.570414
1.36151
0.183063
0.214133
-0.00510907
-0.432233
-0.0686299
-0.79986
-0.691268
0.0433917
0.0198332
0.220807
0.424098
0.345832
1.10033
0.420254
1.66481
0.460494
2.13708
0.48791
2.57939
0.508155
3.04886
0.543998
3.56527
0.617721
4.18008
0.770169
5.01699
1.18585
5.57154
1.76035
6.52409
2.11478
6.21719
2.33947
5.03856
2.13014
3.6428
1.4501
2.04156
0.866678
0.797551
0.423468
0.0109775
0.0903491
-0.466742
-0.600919
0.0293251
-0.00949192
0.233048
0.220375
0.422283
0.911098
0.530388
1.5567
0.589732
2.07774
0.631727
2.5374
0.667369
3.01322
0.720348
3.5123
0.822189
4.07823
1.00388
4.83529
1.45442
5.121
2.23716
5.74136
2.56438
5.88997
2.77288
4.83006
2.67898
3.73669
2.17485
2.54569
1.51555
1.45685
0.834742
0.691782
0.332184
0.035816
-0.268735
0.0269911
-0.0364831
0.184168
0.0631982
0.473395
0.621871
0.65528
1.37482
0.743772
1.98925
0.795656
2.48551
0.841906
2.96697
0.898062
3.45614
0.997171
3.97913
1.16809
4.66437
1.50391
4.78518
2.34822
4.89704
2.67001
5.56818
2.77274
4.72733
2.72108
3.78836
2.31704
2.94973
1.64146
2.13243
0.979434
1.35381
0.403031
0.612219
0.134296
0.0150368
-0.0515198
0.105811
-0.0275763
0.415893
0.311789
0.649257
1.14145
0.758797
1.87971
0.793672
2.45064
0.811147
2.94949
0.81376
3.45353
0.836914
3.95597
0.893212
4.60807
0.978557
4.69984
1.2497
4.62589
1.5041
5.31379
1.46963
4.7618
1.34488
3.91311
1.14031
3.1543
0.879953
2.39278
0.611755
1.62201
0.285088
0.938886
0.419384
0.00787142
-0.0593912
0.0537653
-0.0734701
0.238654
0.1269
0.448496
0.931609
0.565866
1.76234
0.615397
2.40111
0.643736
2.92115
0.652583
3.44468
0.661127
3.94743
0.682076
4.58713
0.702868
4.67904
0.842499
4.48626
1.07991
5.07638
1.05753
4.78418
0.954643
4.01599
0.83169
3.27725
0.666542
2.55793
0.458773
1.82978
0.205521
1.19214
0.624905
0.0251748
-0.084566
0.0687045
-0.117
0.13471
0.0608944
0.276222
0.790097
0.381318
1.65724
0.439251
2.34317
0.469078
2.89133
0.483434
3.43032
0.494561
3.9363
0.517031
4.56465
0.52004
4.67603
0.574971
4.43133
0.688987
4.96236
0.694398
4.77877
0.618638
4.09176
0.52268
3.37321
0.40271
2.6779
0.267173
1.96532
0.111541
1.34777
0.736446
0.0298704
-0.114436
0.0616102
-0.14874
0.057914
0.0645905
0.113019
0.734992
0.187779
1.58248
0.251816
2.27914
0.297907
2.84524
0.323296
3.40493
0.336992
3.92261
0.364151
4.5375
0.38015
4.66004
0.379294
4.43219
0.442924
4.89873
0.452657
4.76904
0.411911
4.1325
0.335021
3.4501
0.236127
2.77679
0.131065
2.07038
0.0366601
1.44217
0.773106
0.0205335
-0.13497
0.0237616
-0.151968
-0.0208184
0.10917
-0.0265891
0.740763
0.0177142
1.53818
0.0802916
2.21656
0.140957
2.78457
0.181218
3.36467
0.199238
3.90458
0.213145
4.52359
0.238136
4.63505
0.229478
4.44085
0.282108
4.8461
0.293257
4.75789
0.259784
4.16598
0.204632
3.50525
0.137524
2.8439
0.0575275
2.15037
-0.0153728
1.51507
0.757733
0.00172111
-0.136691