/*--------------------------------*- C++ -*----------------------------------*\
  =========                 |
  \\      /  F ield         | OpenFOAM: The Open Source CFD Toolbox
   \\    /   O peration     | Website:  https://openfoam.org
    \\  /    A nd           | Version:  6
     \\/     M anipulation  |
\*---------------------------------------------------------------------------*/
FoamFile
{
    version     2.0;
    format      ascii;
    class       volVectorField;
    location    "1";
    object      U;
}
// * * * * * * * * * * * * * * * * * * * * * * * * * * * * * * * * * * * * * //

dimensions      [0 1 -1 0 0 0 0];

internalField   nonuniform List<vector> 
5250
(
(3 4.89831e-10 0)
(3 3.72952e-09 0)
(2.99999 1.15809e-08 0)
(2.99998 3.45594e-08 0)
(2.99996 8.22362e-08 0)
(2.99991 2.15613e-07 0)
(2.99976 4.85562e-07 0)
(2.99947 1.24456e-06 0)
(2.99861 2.75459e-06 0)
(2.99696 7.18421e-06 0)
(2.99168 1.53886e-05 0)
(2.98236 4.36905e-05 0)
(2.94905 8.85235e-05 0)
(2.87703 0.000278092 0)
(2.66534 0.000620704 0)
(1.96772 0.00194427 0)
(0.461799 0.00542172 0)
(-0.436089 0.0133233 0)
(0.044289 0.0219988 0)
(0.410663 0.031644 0)
(0.495485 0.0389494 0)
(0.386216 0.0443666 0)
(0.225213 0.0482131 0)
(0.130358 0.0544138 0)
(0.0968277 0.0556527 0)
(3 1.51452e-09 0)
(3 1.16325e-08 0)
(2.99999 3.59716e-08 0)
(2.99998 1.07659e-07 0)
(2.99996 2.55545e-07 0)
(2.99991 6.721e-07 0)
(2.99976 1.51135e-06 0)
(2.99947 3.88856e-06 0)
(2.99861 8.58712e-06 0)
(2.99697 2.259e-05 0)
(2.99172 4.79861e-05 0)
(2.98242 0.000139301 0)
(2.94924 0.000279284 0)
(2.8775 0.000898548 0)
(2.66661 0.00202789 0)
(1.97186 0.0064414 0)
(0.469633 0.0181778 0)
(-0.429438 0.0421977 0)
(0.0557072 0.0642358 0)
(0.420657 0.0860038 0)
(0.498682 0.0992373 0)
(0.387798 0.106095 0)
(0.230844 0.107298 0)
(0.138236 0.112383 0)
(0.10107 0.110958 0)
(3 2.63518e-09 0)
(3 2.03377e-08 0)
(2.99999 6.27523e-08 0)
(2.99998 1.88246e-07 0)
(2.99996 4.46355e-07 0)
(2.99991 1.17754e-06 0)
(2.99976 2.64711e-06 0)
(2.99947 6.83884e-06 0)
(2.99862 1.50914e-05 0)
(2.99699 4.00195e-05 0)
(2.99178 8.46048e-05 0)
(2.98255 0.000250048 0)
(2.94967 0.000498219 0)
(2.87857 0.00163288 0)
(2.66959 0.00372651 0)
(1.98202 0.0119535 0)
(0.489938 0.0339939 0)
(-0.408521 0.0757575 0)
(0.072884 0.109064 0)
(0.432217 0.142145 0)
(0.501452 0.16401 0)
(0.387077 0.176803 0)
(0.233198 0.180944 0)
(0.141497 0.18844 0)
(0.100559 0.187853 0)
(3 3.85355e-09 0)
(3 2.97585e-08 0)
(2.99999 9.18015e-08 0)
(2.99998 2.75629e-07 0)
(2.99996 6.53568e-07 0)
(2.99991 1.72686e-06 0)
(2.99976 3.88265e-06 0)
(2.99948 1.00535e-05 0)
(2.99864 2.21948e-05 0)
(2.99703 5.90473e-05 0)
(2.99189 0.000124796 0)
(2.98277 0.000370905 0)
(2.95036 0.000738529 0)
(2.88034 0.00243357 0)
(2.67456 0.00558639 0)
(1.99913 0.0179387 0)
(0.523859 0.0508922 0)
(-0.374377 0.110526 0)
(0.0954615 0.153407 0)
(0.446446 0.195857 0)
(0.506527 0.227031 0)
(0.388787 0.247935 0)
(0.23733 0.258911 0)
(0.144751 0.272061 0)
(0.0981397 0.277309 0)
(3 5.15988e-09 0)
(3 3.98553e-08 0)
(2.99999 1.2294e-07 0)
(2.99998 3.69238e-07 0)
(2.99996 8.75218e-07 0)
(2.99991 2.31429e-06 0)
(2.99977 5.19671e-06 0)
(2.99949 1.34747e-05 0)
(2.99867 2.97439e-05 0)
(2.99708 7.91088e-05 0)
(2.99204 0.000167474 0)
(2.98307 0.000496446 0)
(2.95133 0.000991409 0)
(2.88283 0.00325309 0)
(2.68158 0.00750102 0)
(2.02309 0.0239707 0)
(0.571048 0.0676078 0)
(-0.327766 0.145594 0)
(0.122979 0.198421 0)
(0.4629 0.249017 0)
(0.513926 0.288994 0)
(0.393989 0.318376 0)
(0.245387 0.33794 0)
(0.152145 0.358102 0)
(0.098807 0.372287 0)
(3 6.53997e-09 0)
(3 5.04726e-08 0)
(2.99999 1.55738e-07 0)
(2.99998 4.6735e-07 0)
(2.99996 1.10736e-06 0)
(2.99991 2.92469e-06 0)
(2.99977 6.55564e-06 0)
(2.9995 1.69798e-05 0)
(2.9987 3.74139e-05 0)
(2.99715 9.93752e-05 0)
(2.99224 0.000209596 0)
(2.98346 0.000623316 0)
(2.95258 0.00123452 0)
(2.88606 0.00407188 0)
(2.69062 0.00937436 0)
(2.05366 0.0297695 0)
(0.631749 0.0838604 0)
(-0.268453 0.181179 0)
(0.155481 0.245042 0)
(0.481732 0.302737 0)
(0.524309 0.351521 0)
(0.40382 0.389878 0)
(0.258807 0.419536 0)
(0.163793 0.448662 0)
(0.101973 0.473023 0)
(3 8.07385e-09 0)
(3 6.24692e-08 0)
(2.99999 1.92624e-07 0)
(2.99999 5.78973e-07 0)
(2.99996 1.37215e-06 0)
(2.99991 3.62947e-06 0)
(2.99978 8.14685e-06 0)
(2.99951 2.11061e-05 0)
(2.99873 4.66626e-05 0)
(2.99722 0.000122752 0)
(2.99247 0.000265674 0)
(2.98393 0.0007473 0)
(2.95411 0.00159124 0)
(2.88997 0.00467444 0)
(2.70156 0.011819 0)
(2.09038 0.0333847 0)
(0.708249 0.0998929 0)
(-0.195097 0.217588 0)
(0.193691 0.293229 0)
(0.502696 0.357215 0)
(0.538335 0.415071 0)
(0.419646 0.463272 0)
(0.279549 0.505233 0)
(0.182425 0.546113 0)
(0.109656 0.584638 0)
(3 9.92986e-09 0)
(3 7.71854e-08 0)
(2.99999 2.37696e-07 0)
(2.99999 7.14904e-07 0)
(2.99996 1.69453e-06 0)
(2.99992 4.47485e-06 0)
(2.99979 1.00521e-05 0)
(2.99953 2.59035e-05 0)
(2.99878 5.7245e-05 0)
(2.99733 0.000148625 0)
(2.99275 0.000326081 0)
(2.98457 0.000878683 0)
(2.95576 0.00196585 0)
(2.895 0.00518601 0)
(2.71311 0.0144487 0)
(2.13023 0.034661 0)
(0.804817 0.115233 0)
(-0.106106 0.255221 0)
(0.238167 0.342585 0)
(0.526367 0.412628 0)
(0.557107 0.479507 0)
(0.443559 0.538062 0)
(0.310984 0.596678 0)
(0.211481 0.65366 0)
(0.124421 0.716439 0)
(3 1.3034e-08 0)
(3 9.92847e-08 0)
(2.99999 3.07345e-07 0)
(2.99999 9.15756e-07 0)
(2.99996 2.18068e-06 0)
(2.99992 5.71433e-06 0)
(2.9998 1.29275e-05 0)
(2.99955 3.30016e-05 0)
(2.99884 7.37305e-05 0)
(2.99745 0.000186844 0)
(2.99308 0.000420058 0)
(2.98531 0.00106345 0)
(2.95761 0.00240694 0)
(2.90085 0.00608629 0)
(2.72482 0.0161891 0)
(2.17394 0.0381079 0)
(0.924093 0.125169 0)
(0.00117613 0.292915 0)
(0.29043 0.394431 0)
(0.554055 0.468524 0)
(0.581292 0.543355 0)
(0.47864 0.612902 0)
(0.357941 0.693308 0)
(0.260184 0.773509 0)
(0.155326 0.885184 0)
(3 -1.43623e-08 0)
(3 1.79457e-07 0)
(2.99999 1.18175e-07 0)
(2.99999 1.4686e-06 0)
(2.99997 1.02292e-06 0)
(2.99993 9.0464e-06 0)
(2.99981 6.26213e-06 0)
(2.99958 5.37313e-05 0)
(2.99891 3.41772e-05 0)
(2.99762 0.000333738 0)
(2.99348 9.97274e-05 0)
(2.98624 0.00235402 0)
(2.95984 -0.000590472 0)
(2.90709 0.0150234 0)
(2.73767 0.00276239 0)
(2.22702 0.0647146 0)
(1.04546 0.125258 0)
(0.128221 0.330078 0)
(0.35156 0.451151 0)
(0.584776 0.522777 0)
(0.611854 0.602557 0)
(0.528288 0.685421 0)
(0.427471 0.787981 0)
(0.347346 0.912071 0)
(0.221075 1.14382 0)
(3 -1.23113e-08 0)
(3 1.74016e-07 0)
(3 1.35185e-07 0)
(2.99999 1.44229e-06 0)
(2.99997 1.15676e-06 0)
(2.99993 8.96606e-06 0)
(2.99984 7.18565e-06 0)
(2.99958 5.36453e-05 0)
(2.99907 3.95992e-05 0)
(2.9975 0.000336226 0)
(2.99475 0.000127224 0)
(2.98476 0.00236135 0)
(2.96755 -0.000397808 0)
(2.90507 0.0147033 0)
(2.75079 0.00282 0)
(2.32687 0.0640826 0)
(1.09439 0.136271 0)
(0.246054 0.365393 0)
(0.405721 0.507989 0)
(0.60721 0.571295 0)
(0.646973 0.651448 0)
(0.591604 0.746195 0)
(0.532959 0.865603 0)
(0.532058 1.02209 0)
(0.566573 1.28577 0)
(3 4.46098e-08 0)
(3 5.18573e-08 0)
(3 5.98223e-07 0)
(2.99999 6.69956e-07 0)
(2.99997 4.05631e-06 0)
(2.99993 4.26996e-06 0)
(2.99985 2.37187e-05 0)
(2.99961 2.30059e-05 0)
(2.99914 0.000136259 0)
(2.99769 0.000105244 0)
(2.99517 0.000861997 0)
(2.98587 0.000243801 0)
(2.97005 0.00617346 0)
(2.91225 0.000994519 0)
(2.77161 0.0383021 0)
(2.38526 0.0422178 0)
(1.23073 0.189538 0)
(0.393419 0.416474 0)
(0.465098 0.55884 0)
(0.624293 0.611092 0)
(0.683786 0.68827 0)
(0.663657 0.790423 0)
(0.650314 0.91538 0)
(0.70884 1.06901 0)
(0.850513 1.2684 0)
(3 4.35382e-08 0)
(3 6.61587e-08 0)
(3 6.08387e-07 0)
(2.99999 7.78824e-07 0)
(2.99997 4.09387e-06 0)
(2.99994 4.77962e-06 0)
(2.99985 2.34688e-05 0)
(2.99967 2.499e-05 0)
(2.99914 0.000132956 0)
(2.99811 0.000116857 0)
(2.99487 0.000832047 0)
(2.9891 0.000406589 0)
(2.96828 0.00593117 0)
(2.92914 0.00231079 0)
(2.79324 0.0369723 0)
(2.41373 0.0490748 0)
(1.48702 0.199491 0)
(0.572737 0.475505 0)
(0.534214 0.592459 0)
(0.64291 0.644678 0)
(0.723046 0.715417 0)
(0.735363 0.817754 0)
(0.757219 0.935947 0)
(0.845637 1.06648 0)
(1.01426 1.19213 0)
(3 1.97379e-08 0)
(3 1.51834e-07 0)
(3 4.70384e-07 0)
(2.99999 1.40782e-06 0)
(2.99998 3.32969e-06 0)
(2.99995 8.75678e-06 0)
(2.99987 1.9572e-05 0)
(2.9997 5.05769e-05 0)
(2.99922 0.00011169 0)
(2.99827 0.000293374 0)
(2.99541 0.000640145 0)
(2.99011 0.00177131 0)
(2.9719 0.00378419 0)
(2.93771 0.0111568 0)
(2.81961 0.0260702 0)
(2.49173 0.0788982 0)
(1.70449 0.206412 0)
(0.751303 0.542467 0)
(0.599876 0.61808 0)
(0.674253 0.672887 0)
(0.762404 0.732581 0)
(0.80232 0.827961 0)
(0.84686 0.935276 0)
(0.944928 1.0406 0)
(1.11011 1.12057 0)
(3 2.22072e-08 0)
(3 1.70606e-07 0)
(3 5.27827e-07 0)
(2.99999 1.58266e-06 0)
(2.99998 3.75914e-06 0)
(2.99996 9.92505e-06 0)
(2.99989 2.23877e-05 0)
(2.99975 5.78153e-05 0)
(2.99934 0.000128816 0)
(2.99855 0.00033429 0)
(2.9961 0.000737025 0)
(2.99173 0.00199371 0)
(2.97598 0.00417608 0)
(2.94811 0.0125851 0)
(2.84676 0.0273593 0)
(2.57772 0.088472 0)
(1.91238 0.220496 0)
(0.92671 0.610011 0)
(0.65771 0.647404 0)
(0.711318 0.690653 0)
(0.803018 0.739792 0)
(0.865779 0.825445 0)
(0.923114 0.921048 0)
(1.02058 1.00707 0)
(1.17265 1.06374 0)
(3 2.11341e-08 0)
(3 1.6317e-07 0)
(3 5.0326e-07 0)
(2.99999 1.51274e-06 0)
(2.99998 3.59103e-06 0)
(2.99996 9.51032e-06 0)
(2.99991 2.14485e-05 0)
(2.99979 5.55206e-05 0)
(2.99945 0.000123509 0)
(2.99878 0.000322485 0)
(2.99679 0.000699114 0)
(2.99299 0.00196652 0)
(2.98059 0.00386432 0)
(2.95754 0.0130756 0)
(2.87815 0.0250852 0)
(2.67271 0.0928435 0)
(2.14737 0.22421 0)
(1.13246 0.651026 0)
(0.736679 0.685754 0)
(0.768703 0.717652 0)
(0.857021 0.751889 0)
(0.932393 0.821209 0)
(0.993634 0.902896 0)
(1.08377 0.974457 0)
(1.21885 1.0179 0)
(3 1.90354e-08 0)
(3 1.48303e-07 0)
(3 4.55886e-07 0)
(3 1.37861e-06 0)
(2.99999 3.2764e-06 0)
(2.99997 8.73911e-06 0)
(2.99992 1.97924e-05 0)
(2.99983 5.14961e-05 0)
(2.99956 0.000115259 0)
(2.99903 0.000299324 0)
(2.99747 0.000665346 0)
(2.99438 0.00176516 0)
(2.98512 0.00380806 0)
(2.96616 0.0110322 0)
(2.90899 0.0232479 0)
(2.76473 0.0746038 0)
(2.38809 0.182813 0)
(1.39569 0.558106 0)
(0.8788 0.690364 0)
(0.858811 0.749886 0)
(0.924039 0.780133 0)
(1.00289 0.825105 0)
(1.06324 0.889576 0)
(1.14214 0.948486 0)
(1.25877 0.98302 0)
(3 1.64892e-08 0)
(3 1.28615e-07 0)
(3 3.95148e-07 0)
(3 1.19458e-06 0)
(2.99999 2.8392e-06 0)
(2.99998 7.56272e-06 0)
(2.99994 1.71244e-05 0)
(2.99987 4.44202e-05 0)
(2.99966 9.93774e-05 0)
(2.99924 0.000256508 0)
(2.99801 0.000571048 0)
(2.99562 0.00147319 0)
(2.98824 0.00332576 0)
(2.974 0.00837453 0)
(2.92853 0.0204598 0)
(2.81786 0.0516717 0)
(2.51862 0.133632 0)
(1.63572 0.389419 0)
(0.996784 0.702177 0)
(0.92815 0.784119 0)
(0.971654 0.822663 0)
(1.05401 0.844371 0)
(1.12291 0.886364 0)
(1.19427 0.930756 0)
(1.29406 0.957378 0)
(3 1.41334e-08 0)
(3 1.09966e-07 0)
(3 3.38113e-07 0)
(3 1.0197e-06 0)
(2.99999 2.42523e-06 0)
(2.99998 6.43767e-06 0)
(2.99996 1.45795e-05 0)
(2.9999 3.76448e-05 0)
(2.99974 8.41155e-05 0)
(2.99942 0.000216129 0)
(2.99848 0.000479443 0)
(2.99668 0.001241 0)
(2.99083 0.00273659 0)
(2.9806 0.00723786 0)
(2.94354 0.0163547 0)
(2.86335 0.0447068 0)
(2.62677 0.112283 0)
(1.89747 0.331663 0)
(1.18091 0.740813 0)
(0.990263 0.81506 0)
(1.00874 0.858367 0)
(1.08397 0.868771 0)
(1.16404 0.887643 0)
(1.23566 0.917474 0)
(1.32412 0.937686 0)
(3 1.17065e-08 0)
(3 9.10954e-08 0)
(3 2.79925e-07 0)
(3 8.44865e-07 0)
(2.99999 2.01003e-06 0)
(2.99999 5.34767e-06 0)
(2.99997 1.21186e-05 0)
(2.99993 3.13998e-05 0)
(2.99981 7.01429e-05 0)
(2.99957 0.000181221 0)
(2.99887 0.000401081 0)
(2.9975 0.00105505 0)
(2.99321 0.00226777 0)
(2.98544 0.00646336 0)
(2.95858 0.0131987 0)
(2.90102 0.041094 0)
(2.73239 0.096262 0)
(2.20616 0.291949 0)
(1.43242 0.735273 0)
(1.09791 0.834984 0)
(1.07387 0.877779 0)
(1.12204 0.889368 0)
(1.20186 0.891403 0)
(1.27549 0.906721 0)
(1.3544 0.921201 0)
(3 8.84333e-09 0)
(3 6.94128e-08 0)
(3 2.12474e-07 0)
(3 6.46045e-07 0)
(3 1.53538e-06 0)
(2.99999 4.13063e-06 0)
(2.99998 9.37262e-06 0)
(2.99995 2.4617e-05 0)
(2.99986 5.5236e-05 0)
(2.9997 0.000144492 0)
(2.99921 0.00032244 0)
(2.99823 0.00084828 0)
(2.99531 0.0018722 0)
(2.98977 0.00509637 0)
(2.9716 0.0110092 0)
(2.93552 0.0311419 0)
(2.82043 0.0759667 0)
(2.49071 0.216238 0)
(1.7827 0.584809 0)
(1.24987 0.836268 0)
(1.16033 0.888154 0)
(1.17382 0.909659 0)
(1.23901 0.904621 0)
(1.31356 0.905211 0)
(1.38643 0.910728 0)
(3 6.32872e-09 0)
(3 4.99417e-08 0)
(3 1.52618e-07 0)
(3 4.65367e-07 0)
(3 1.10619e-06 0)
(2.99999 2.98309e-06 0)
(2.99998 6.77656e-06 0)
(2.99996 1.78161e-05 0)
(2.99991 4.00695e-05 0)
(2.99979 0.000104623 0)
(2.99945 0.000234206 0)
(2.99879 0.000611323 0)
(2.99674 0.00135887 0)
(2.99309 0.00362021 0)
(2.97987 0.00781755 0)
(2.9568 0.0223632 0)
(2.87297 0.0493989 0)
(2.65593 0.15262 0)
(2.11459 0.398895 0)
(1.41346 0.858237 0)
(1.22836 0.917597 0)
(1.22318 0.939113 0)
(1.27288 0.931324 0)
(1.34708 0.916542 0)
(1.41812 0.911388 0)
(3 4.54485e-09 0)
(3 3.59243e-08 0)
(3 1.09771e-07 0)
(3 3.34843e-07 0)
(3 7.96816e-07 0)
(3 2.14649e-06 0)
(2.99999 4.88077e-06 0)
(2.99998 1.27936e-05 0)
(2.99994 2.87592e-05 0)
(2.99986 7.48323e-05 0)
(2.99963 0.000167093 0)
(2.99917 0.00043657 0)
(2.99782 0.000957539 0)
(2.99517 0.00261629 0)
(2.98699 0.00539457 0)
(2.97068 0.0165435 0)
(2.9202 0.0337189 0)
(2.79285 0.110933 0)
(2.4546 0.276874 0)
(1.6972 0.750001 0)
(1.34448 0.910311 0)
(1.2928 0.950044 0)
(1.31341 0.95581 0)
(1.3776 0.935999 0)
(1.44916 0.920969 0)
(3 2.46595e-09 0)
(3 2.73419e-08 0)
(3 7.20057e-08 0)
(3 2.50687e-07 0)
(3 5.29553e-07 0)
(3 1.60907e-06 0)
(2.99999 3.27186e-06 0)
(2.99998 9.6453e-06 0)
(2.99996 1.9444e-05 0)
(2.99991 5.68165e-05 0)
(2.99975 0.000113815 0)
(2.99945 0.000332574 0)
(2.99855 0.000659461 0)
(2.99679 0.0019548 0)
(2.99138 0.00378836 0)
(2.98069 0.0117437 0)
(2.94749 0.022685 0)
(2.86818 0.0735581 0)
(2.64899 0.16625 0)
(2.0136 0.516941 0)
(1.49007 0.890467 0)
(1.36353 0.958196 0)
(1.35955 0.979241 0)
(1.40674 0.964423 0)
(1.47634 0.935792 0)
(3 1.65015e-09 0)
(3 1.79977e-08 0)
(3 4.77341e-08 0)
(3 1.65787e-07 0)
(3 3.52408e-07 0)
(3 1.06988e-06 0)
(3 2.18931e-06 0)
(2.99999 6.45133e-06 0)
(2.99998 1.30944e-05 0)
(2.99994 3.82237e-05 0)
(2.99986 7.71751e-05 0)
(2.99963 0.000224905 0)
(2.99917 0.00045053 0)
(2.99778 0.00132547 0)
(2.9951 0.00261446 0)
(2.98656 0.00792925 0)
(2.96984 0.0157206 0)
(2.91626 0.0483068 0)
(2.78344 0.112756 0)
(2.40365 0.33464 0)
(1.73511 0.810147 0)
(1.4595 0.955899 0)
(1.41794 0.990918 0)
(1.43702 0.990805 0)
(1.49619 0.960072 0)
(3 2.06886e-09 0)
(3 8.7557e-09 0)
(3 3.80668e-08 0)
(3 8.69875e-08 0)
(3 2.73981e-07 0)
(3 5.71166e-07 0)
(3 1.69211e-06 0)
(2.99999 3.46742e-06 0)
(2.99998 1.01138e-05 0)
(2.99996 2.06226e-05 0)
(2.99991 5.98503e-05 0)
(2.99976 0.000121469 0)
(2.99947 0.000353377 0)
(2.9986 0.000710433 0)
(2.99688 0.00210767 0)
(2.99161 0.00415174 0)
(2.98094 0.0128957 0)
(2.94864 0.0255798 0)
(2.87101 0.0819178 0)
(2.6535 0.194915 0)
(2.05494 0.590862 0)
(1.60493 0.93033 0)
(1.48886 0.994117 0)
(1.48018 1.00849 0)
(1.51739 0.989995 0)
(3 1.30533e-09 0)
(3 5.65044e-09 0)
(3 2.42908e-08 0)
(3 5.60037e-08 0)
(3 1.75095e-07 0)
(3 3.68028e-07 0)
(3 1.08434e-06 0)
(3 2.24121e-06 0)
(2.99999 6.51031e-06 0)
(2.99998 1.34026e-05 0)
(2.99994 3.87279e-05 0)
(2.99987 7.94239e-05 0)
(2.99966 0.000229362 0)
(2.99924 0.000467557 0)
(2.99797 0.00136077 0)
(2.99551 0.00275327 0)
(2.98775 0.00815636 0)
(2.9724 0.0168631 0)
(2.9241 0.0500611 0)
(2.80435 0.119045 0)
(2.45839 0.352811 0)
(1.84856 0.818623 0)
(1.58202 0.976469 0)
(1.53607 1.01145 0)
(1.54737 1.01309 0)
(3 4.3795e-10 0)
(3 4.51916e-09 0)
(3 1.23014e-08 0)
(3 4.17441e-08 0)
(3 9.05454e-08 0)
(3 2.6935e-07 0)
(3 5.61365e-07 0)
(3 1.62656e-06 0)
(2.99999 3.3641e-06 0)
(2.99999 9.68236e-06 0)
(2.99997 1.99668e-05 0)
(2.99992 5.73096e-05 0)
(2.99979 0.000117715 0)
(2.99954 0.000338438 0)
(2.99878 0.000689205 0)
(2.99727 0.00201162 0)
(2.9927 0.00404204 0)
(2.98331 0.0121765 0)
(2.95525 0.0249408 0)
(2.88805 0.0765095 0)
(2.69857 0.186804 0)
(2.17275 0.557416 0)
(1.73562 0.925232 0)
(1.6097 1.00301 0)
(1.59231 1.023 0)
(3 3.33917e-10 0)
(3 2.64438e-09 0)
(3 8.07508e-09 0)
(3 2.47164e-08 0)
(3 5.86602e-08 0)
(3 1.59087e-07 0)
(3 3.60728e-07 0)
(3 9.57716e-07 0)
(3 2.15415e-06 0)
(2.99999 5.70638e-06 0)
(2.99998 1.28239e-05 0)
(2.99995 3.39834e-05 0)
(2.99989 7.6325e-05 0)
(2.99971 0.000202379 0)
(2.99936 0.000453768 0)
(2.9983 0.00120565 0)
(2.99619 0.0027111 0)
(2.98986 0.00718452 0)
(2.97653 0.0168273 0)
(2.93756 0.0437938 0)
(2.84147 0.114365 0)
(2.56254 0.312826 0)
(1.99333 0.77575 0)
(1.71211 0.967943 0)
(1.653 1.0177 0)
(3 2.59768e-10 0)
(3 1.37732e-09 0)
(3 5.2034e-09 0)
(3 1.32897e-08 0)
(3 3.73308e-08 0)
(3 8.56286e-08 0)
(3 2.28232e-07 0)
(3 5.12701e-07 0)
(3 1.35745e-06 0)
(3 3.04053e-06 0)
(2.99999 8.0655e-06 0)
(2.99998 1.80765e-05 0)
(2.99993 4.80348e-05 0)
(2.99985 0.000107655 0)
(2.99962 0.000286418 0)
(2.99915 0.000641017 0)
(2.99768 0.00170661 0)
(2.99508 0.00386186 0)
(2.98552 0.0101548 0)
(2.96874 0.024161 0)
(2.9084 0.0623093 0)
(2.75869 0.169342 0)
(2.35905 0.448318 0)
(1.8752 0.89336 0)
(1.72596 1.00366 0)
(3 9.68055e-11 0)
(3 9.53021e-10 0)
(3 2.6409e-09 0)
(3 8.7668e-09 0)
(3 1.92141e-08 0)
(3 5.56759e-08 0)
(3 1.16819e-07 0)
(3 3.29668e-07 0)
(3 6.85931e-07 0)
(3 1.9298e-06 0)
(2.99999 4.01166e-06 0)
(2.99998 1.13083e-05 0)
(2.99997 2.35141e-05 0)
(2.99991 6.65194e-05 0)
(2.99981 0.000138006 0)
(2.99949 0.000394806 0)
(2.99887 0.000806873 0)
(2.99689 0.00241434 0)
(2.99338 0.00468946 0)
(2.98065 0.0153154 0)
(2.95707 0.0302053 0)
(2.87669 0.0990469 0)
(2.65779 0.25563 0)
(2.19348 0.668413 0)
(1.84679 0.963654 0)
(3 8.92534e-11 0)
(3 4.76026e-10 0)
(3 1.788e-09 0)
(3 4.57187e-09 0)
(3 1.27208e-08 0)
(3 2.91581e-08 0)
(3 7.66232e-08 0)
(3 1.71725e-07 0)
(3 4.46365e-07 0)
(3 9.95743e-07 0)
(3 2.58732e-06 0)
(2.99999 5.76538e-06 0)
(2.99998 1.50247e-05 0)
(2.99995 3.34586e-05 0)
(2.99989 8.77197e-05 0)
(2.99971 0.000194868 0)
(2.99936 0.000519137 0)
(2.99831 0.00113807 0)
(2.99626 0.00317742 0)
(2.98994 0.00670078 0)
(2.97726 0.020146 0)
(2.93851 0.0438927 0)
(2.83885 0.134455 0)
(2.56611 0.359897 0)
(2.07718 0.805051 0)
(3 5.85668e-11 0)
(3 2.73756e-10 0)
(3 1.11366e-09 0)
(3 2.6575e-09 0)
(3 7.86001e-09 0)
(3 1.694e-08 0)
(3 4.71107e-08 0)
(3 9.94887e-08 0)
(3 2.73338e-07 0)
(3 5.75124e-07 0)
(3 1.57843e-06 0)
(3 3.32013e-06 0)
(2.99999 9.1287e-06 0)
(2.99997 1.91948e-05 0)
(2.99994 5.29555e-05 0)
(2.99985 0.000111149 0)
(2.99966 0.00030857 0)
(2.99911 0.000644009 0)
(2.99802 0.00181362 0)
(2.99472 0.0037554 0)
(2.98808 0.0108548 0)
(2.96795 0.0228195 0)
(2.92103 0.0673961 0)
(2.78621 0.166394 0)
(2.41065 0.482603 0)
(3 3.03201e-11 0)
(3 1.64261e-10 0)
(3 6.11894e-10 0)
(3 1.56662e-09 0)
(3 4.32482e-09 0)
(3 9.91081e-09 0)
(3 2.58108e-08 0)
(3 5.7794e-08 0)
(3 1.48713e-07 0)
(3 3.31345e-07 0)
(3 8.51186e-07 0)
(3 1.89433e-06 0)
(2.99999 4.87192e-06 0)
(2.99999 1.08344e-05 0)
(2.99997 2.79492e-05 0)
(2.99992 6.20901e-05 0)
(2.9998 0.000161167 0)
(2.99957 0.000357244 0)
(2.99886 0.000939338 0)
(2.99745 0.00207965 0)
(2.99321 0.00557684 0)
(2.98438 0.0125742 0)
(2.95856 0.0341748 0)
(2.89697 0.0847232 0)
(2.71733 0.238994 0)
(3 1.26154e-11 0)
(3 9.88101e-11 0)
(3 3.02852e-10 0)
(3 9.14614e-10 0)
(3 2.16551e-09 0)
(3 5.74289e-09 0)
(3 1.29283e-08 0)
(3 3.33578e-08 0)
(3 7.42548e-08 0)
(3 1.90636e-07 0)
(3 4.23285e-07 0)
(3 1.08746e-06 0)
(3 2.41301e-06 0)
(2.99999 6.21871e-06 0)
(2.99998 1.37965e-05 0)
(2.99996 3.57587e-05 0)
(2.99991 7.93356e-05 0)
(2.99975 0.000207655 0)
(2.99946 0.000460657 0)
(2.99858 0.00122308 0)
(2.99682 0.00273487 0)
(2.99166 0.00731245 0)
(2.9808 0.0170258 0)
(2.94977 0.0450168 0)
(2.87327 0.115789 0)
(3 9.62882e-12 0)
(3 4.50212e-11 0)
(3 1.82125e-10 0)
(3 4.37124e-10 0)
(3 1.28129e-09 0)
(3 2.77349e-09 0)
(3 7.62072e-09 0)
(3 1.61403e-08 0)
(3 4.37196e-08 0)
(3 9.21774e-08 0)
(3 2.49147e-07 0)
(3 5.25092e-07 0)
(3 1.42099e-06 0)
(3 2.99676e-06 0)
(2.99999 8.13099e-06 0)
(2.99998 1.71607e-05 0)
(2.99995 4.6746e-05 0)
(2.99988 9.86791e-05 0)
(2.9997 0.000270533 0)
(2.99934 0.000570625 0)
(2.99828 0.00157832 0)
(2.99628 0.00335497 0)
(2.98987 0.00931257 0)
(2.97777 0.0204967 0)
(2.9392 0.0564731 0)
(3 3.60822e-12 0)
(3 2.83288e-11 0)
(3 8.6751e-11 0)
(3 2.62122e-10 0)
(3 6.20914e-10 0)
(3 1.64611e-09 0)
(3 3.70818e-09 0)
(3 9.54934e-09 0)
(3 2.12619e-08 0)
(3 5.43905e-08 0)
(3 1.20741e-07 0)
(3 3.08588e-07 0)
(3 6.84473e-07 0)
(3 1.75087e-06 0)
(3 3.8823e-06 0)
(2.99999 9.94717e-06 0)
(2.99997 2.20453e-05 0)
(2.99994 5.66241e-05 0)
(2.99985 0.000125352 0)
(2.99967 0.000323768 0)
(2.99914 0.000712997 0)
(2.99811 0.00187655 0)
(2.99505 0.00406538 0)
(2.98885 0.0111305 0)
(2.97068 0.0244813 0)
(3 1.76953e-12 0)
(3 1.59049e-11 0)
(3 4.56723e-11 0)
(3 1.45294e-10 0)
(3 3.2755e-10 0)
(3 9.08435e-10 0)
(3 1.95582e-09 0)
(3 5.25505e-09 0)
(3 1.11969e-08 0)
(3 2.98192e-08 0)
(3 6.33616e-08 0)
(3 1.68237e-07 0)
(3 3.57133e-07 0)
(3 9.47399e-07 0)
(3 2.00982e-06 0)
(2.99999 5.33453e-06 0)
(2.99999 1.13068e-05 0)
(2.99997 3.00813e-05 0)
(2.99992 6.36799e-05 0)
(2.99983 0.000170286 0)
(2.99958 0.000359652 0)
(2.99907 0.000972279 0)
(2.99756 0.00204516 0)
(2.99481 0.00563734 0)
(2.98546 0.0120505 0)
(3 1.01046e-12 0)
(3 7.89841e-12 0)
(3 2.41747e-11 0)
(3 7.28585e-11 0)
(3 1.72682e-10 0)
(3 4.56787e-10 0)
(3 1.0302e-09 0)
(3 2.64424e-09 0)
(3 5.89339e-09 0)
(3 1.49956e-08 0)
(3 3.33017e-08 0)
(3 8.4457e-08 0)
(3 1.87267e-07 0)
(3 4.74253e-07 0)
(3 1.05059e-06 0)
(3 2.65983e-06 0)
(2.99999 5.88816e-06 0)
(2.99998 1.49184e-05 0)
(2.99997 3.2997e-05 0)
(2.99991 8.37769e-05 0)
(2.99981 0.000185014 0)
(2.99951 0.000472938 0)
(2.99893 0.00103621 0)
(2.9972 0.0027312 0)
(2.99391 0.00579465 0)
(3 6.45014e-13 0)
(3 3.43294e-12 0)
(3 1.28558e-11 0)
(3 3.28471e-11 0)
(3 9.09262e-11 0)
(3 2.08337e-10 0)
(3 5.42028e-10 0)
(3 1.21249e-09 0)
(3 3.1024e-09 0)
(3 6.89481e-09 0)
(3 1.75359e-08 0)
(3 3.88751e-08 0)
(3 9.85827e-08 0)
(3 2.1824e-07 0)
(3 5.52595e-07 0)
(3 1.22207e-06 0)
(3 3.09338e-06 0)
(2.99999 6.83497e-06 0)
(2.99998 1.73213e-05 0)
(2.99996 3.82435e-05 0)
(2.9999 9.72374e-05 0)
(2.99978 0.000214595 0)
(2.99944 0.000549728 0)
(2.99877 0.00120988 0)
(2.99684 0.00316468 0)
(3 2.32503e-13 0)
(3 1.84405e-12 0)
(3 5.62385e-12 0)
(3 1.70806e-11 0)
(3 4.04638e-11 0)
(3 1.07825e-10 0)
(3 2.43219e-10 0)
(3 6.28074e-10 0)
(3 1.39975e-09 0)
(3 3.57875e-09 0)
(3 7.94435e-09 0)
(3 2.0223e-08 0)
(3 4.48077e-08 0)
(3 1.13799e-07 0)
(3 2.51847e-07 0)
(3 6.38882e-07 0)
(3 1.41279e-06 0)
(3 3.58292e-06 0)
(2.99999 7.91784e-06 0)
(2.99998 2.00942e-05 0)
(2.99996 4.43749e-05 0)
(2.99989 0.000112875 0)
(2.99976 0.000249049 0)
(2.99938 0.00063687 0)
(2.99863 0.00140466 0)
(3 1.44372e-13 0)
(3 7.62149e-13 0)
(3 2.8696e-12 0)
(3 7.31964e-12 0)
(3 2.04111e-11 0)
(3 4.67983e-11 0)
(3 1.2269e-10 0)
(3 2.74793e-10 0)
(3 7.08195e-10 0)
(3 1.57597e-09 0)
(3 4.03472e-09 0)
(3 8.9563e-09 0)
(3 2.2846e-08 0)
(3 5.06447e-08 0)
(3 1.28865e-07 0)
(3 2.85397e-07 0)
(3 7.24835e-07 0)
(3 1.60402e-06 0)
(3 4.06813e-06 0)
(2.99999 8.99396e-06 0)
(2.99998 2.27937e-05 0)
(2.99995 5.03245e-05 0)
(2.99988 0.000127622 0)
(2.99973 0.000281268 0)
(2.99933 0.000715403 0)
(3 4.41263e-14 0)
(3 3.98938e-13 0)
(3 1.14971e-12 0)
(3 3.67701e-12 0)
(3 8.3576e-12 0)
(3 2.33683e-11 0)
(3 5.07793e-11 0)
(3 1.37436e-10 0)
(3 2.95478e-10 0)
(3 7.91168e-10 0)
(3 1.69558e-09 0)
(3 4.51534e-09 0)
(3 9.66539e-09 0)
(3 2.56328e-08 0)
(3 5.4837e-08 0)
(3 1.44878e-07 0)
(3 3.09816e-07 0)
(3 8.15584e-07 0)
(3 1.74313e-06 0)
(3 4.57417e-06 0)
(2.99999 9.76569e-06 0)
(2.99998 2.55696e-05 0)
(2.99995 5.44912e-05 0)
(2.99987 0.000142663 0)
(2.99971 0.000303144 0)
(3 2.92468e-14 0)
(3 1.53078e-13 0)
(3 5.78353e-13 0)
(3 1.47248e-12 0)
(3 4.13446e-12 0)
(3 9.48201e-12 0)
(3 2.50663e-11 0)
(3 5.62134e-11 0)
(3 1.46166e-10 0)
(3 3.25857e-10 0)
(3 8.4162e-10 0)
(3 1.87242e-09 0)
(3 4.81444e-09 0)
(3 1.0699e-08 0)
(3 2.73973e-08 0)
(3 6.08212e-08 0)
(3 1.55121e-07 0)
(3 3.43954e-07 0)
(3 8.73861e-07 0)
(3 1.93479e-06 0)
(3 4.89883e-06 0)
(2.99999 1.08259e-05 0)
(2.99998 2.73441e-05 0)
(2.99994 6.02884e-05 0)
(2.99987 0.00015225 0)
(3 1.32362e-14 0)
(3 6.81466e-14 0)
(3 2.58578e-13 0)
(3 6.59165e-13 0)
(3 1.85141e-12 0)
(3 4.25434e-12 0)
(3 1.12511e-11 0)
(3 2.52807e-11 0)
(3 6.57997e-11 0)
(3 1.47009e-10 0)
(3 3.80198e-10 0)
(3 8.47837e-10 0)
(3 2.1829e-09 0)
(3 4.86271e-09 0)
(3 1.24647e-08 0)
(3 2.77376e-08 0)
(3 7.07712e-08 0)
(3 1.5728e-07 0)
(3 3.99432e-07 0)
(3 8.86239e-07 0)
(3 2.2412e-06 0)
(3 4.96285e-06 0)
(2.99999 1.251e-05 0)
(2.99997 2.76367e-05 0)
(2.99994 6.95609e-05 0)
(3 5.72411e-15 0)
(3 2.87059e-14 0)
(3 1.13584e-13 0)
(3 2.80048e-13 0)
(3 8.14063e-13 0)
(3 1.81052e-12 0)
(3 4.95344e-12 0)
(3 1.07802e-11 0)
(3 2.90192e-11 0)
(3 6.28266e-11 0)
(3 1.68072e-10 0)
(3 3.63344e-10 0)
(3 9.67831e-10 0)
(3 2.09096e-09 0)
(3 5.5445e-09 0)
(3 1.19712e-08 0)
(3 3.15815e-08 0)
(3 6.81273e-08 0)
(3 1.78769e-07 0)
(3 3.85155e-07 0)
(3 1.00572e-06 0)
(3 2.16334e-06 0)
(3 5.62824e-06 0)
(2.99999 1.20837e-05 0)
(2.99998 3.13823e-05 0)
(3 2.10971e-15 0)
(3 1.21616e-14 0)
(3 4.66591e-14 0)
(3 1.1656e-13 0)
(3 3.38741e-13 0)
(3 7.54491e-13 0)
(3 2.06517e-12 0)
(3 4.4986e-12 0)
(3 1.21107e-11 0)
(3 2.62384e-11 0)
(3 7.02308e-11 0)
(3 1.51949e-10 0)
(3 4.05288e-10 0)
(3 8.76515e-10 0)
(3 2.32913e-09 0)
(3 5.03546e-09 0)
(3 1.33191e-08 0)
(3 2.8777e-08 0)
(3 7.57175e-08 0)
(3 1.6342e-07 0)
(3 4.27731e-07 0)
(3 9.21808e-07 0)
(3 2.40202e-06 0)
(3 5.16748e-06 0)
(2.99999 1.34262e-05 0)
(3 6.52169e-16 0)
(3 5.73792e-15 0)
(3 1.66427e-14 0)
(3 5.18235e-14 0)
(3 1.22301e-13 0)
(3 3.31068e-13 0)
(3 7.48211e-13 0)
(3 1.96625e-12 0)
(3 4.39024e-12 0)
(3 1.14487e-11 0)
(3 2.54827e-11 0)
(3 6.62592e-11 0)
(3 1.47346e-10 0)
(3 3.82345e-10 0)
(3 8.49945e-10 0)
(3 2.19973e-09 0)
(3 4.88856e-09 0)
(3 1.26044e-08 0)
(3 2.79959e-08 0)
(3 7.18428e-08 0)
(3 1.59405e-07 0)
(3 4.07029e-07 0)
(3 9.01724e-07 0)
(3 2.29229e-06 0)
(3 5.06887e-06 0)
(3 4.11942e-16 0)
(3 1.97656e-15 0)
(3 6.9178e-15 0)
(3 2.03584e-14 0)
(3 4.70218e-14 0)
(3 1.31301e-13 0)
(3 2.85271e-13 0)
(3 7.74494e-13 0)
(3 1.66559e-12 0)
(3 4.49671e-12 0)
(3 9.64884e-12 0)
(3 2.59884e-11 0)
(3 5.5736e-11 0)
(3 1.49871e-10 0)
(3 3.21448e-10 0)
(3 8.62693e-10 0)
(3 1.85076e-09 0)
(3 4.9528e-09 0)
(3 1.0626e-08 0)
(3 2.83222e-08 0)
(3 6.07424e-08 0)
(3 1.61119e-07 0)
(3 3.45231e-07 0)
(3 9.11292e-07 0)
(3 1.94978e-06 0)
(3 7.37337e-17 0)
(3 4.98761e-16 0)
(3 1.76003e-15 0)
(3 5.37543e-15 0)
(3 1.14539e-14 0)
(3 3.58414e-14 0)
(3 6.93587e-14 0)
(3 2.09782e-13 0)
(3 4.03487e-13 0)
(3 1.21378e-12 0)
(3 2.33392e-12 0)
(3 7.00326e-12 0)
(3 1.34725e-11 0)
(3 4.03396e-11 0)
(3 7.76726e-11 0)
(3 2.32097e-10 0)
(3 4.47333e-10 0)
(3 1.33289e-09 0)
(3 2.57146e-09 0)
(3 7.63026e-09 0)
(3 1.47331e-08 0)
(3 4.34822e-08 0)
(3 8.39982e-08 0)
(3 2.4644e-07 0)
(3 4.76014e-07 0)
(1.1445 1.23294 0)
(1.59476 1.10722 0)
(1.86251 0.934357 0)
(1.97576 0.70816 0)
(1.98205 0.467191 0)
(1.94865 0.231089 0)
(1.87168 0.0439078 0)
(1.79467 -0.0286791 0)
(1.75714 -0.026388 0)
(1.75886 -0.00148404 0)
(1.77219 0.0179395 0)
(1.78508 0.0280911 0)
(1.80031 0.0297179 0)
(1.81359 0.0246082 0)
(1.82413 0.0166562 0)
(1.8344 0.00965513 0)
(1.84548 0.00506399 0)
(1.85751 0.00214086 0)
(1.87041 0.000347974 0)
(1.88403 -0.000796261 0)
(1.89818 -0.0015655 0)
(1.91273 -0.00207207 0)
(1.92757 -0.00240316 0)
(1.94255 -0.00259764 0)
(1.95762 -0.00267393 0)
(1.97273 -0.00269122 0)
(1.9878 -0.0027091 0)
(2.00293 -0.00267508 0)
(2.01827 -0.002683 0)
(2.03357 -0.00282338 0)
(2.04884 -0.00293775 0)
(2.06434 -0.00301672 0)
(2.08012 -0.00309736 0)
(2.09618 -0.00320194 0)
(2.11251 -0.00333132 0)
(2.12906 -0.003436 0)
(2.1459 -0.00351588 0)
(2.16308 -0.00358916 0)
(2.18051 -0.00367087 0)
(2.19812 -0.00374041 0)
(2.21587 -0.00377937 0)
(2.2337 -0.00377066 0)
(2.2515 -0.00372876 0)
(2.26916 -0.00365778 0)
(2.28657 -0.00356302 0)
(2.30364 -0.00346076 0)
(2.3203 -0.00337161 0)
(2.33648 -0.00329451 0)
(2.35206 -0.00320443 0)
(2.36697 -0.00308543 0)
(2.38112 -0.00294688 0)
(2.39446 -0.00278649 0)
(2.407 -0.00257956 0)
(2.41879 -0.00235308 0)
(2.42974 -0.00210714 0)
(2.43986 -0.00181012 0)
(2.4493 -0.00149788 0)
(2.45808 -0.00116954 0)
(2.46607 -0.000792905 0)
(2.47332 -0.00037486 0)
(2.48003 6.09396e-05 0)
(2.48624 0.000461874 0)
(2.49188 0.000814558 0)
(2.49696 0.00115483 0)
(2.50147 0.00152039 0)
(2.50542 0.00190437 0)
(2.50891 0.00222848 0)
(2.512 0.00246814 0)
(2.51466 0.00272331 0)
(2.51689 0.00299343 0)
(2.51874 0.00323324 0)
(2.52021 0.0034385 0)
(2.52141 0.00360502 0)
(2.52248 0.00374655 0)
(2.52339 0.0038668 0)
(2.52405 0.00393369 0)
(2.52441 0.00382465 0)
(2.52406 0.00347142 0)
(2.52295 0.00318045 0)
(2.52171 0.00306821 0)
(2.52049 0.0031974 0)
(2.51909 0.00322906 0)
(2.51756 0.00311867 0)
(2.51592 0.00291513 0)
(2.51425 0.00266577 0)
(2.51263 0.0023261 0)
(2.51136 0.00203462 0)
(2.51056 0.00149309 0)
(2.5096 0.000836078 0)
(2.50956 0.000647473 0)
(2.51044 -8.85738e-05 0)
(2.51218 -0.000384825 0)
(2.51461 -0.000907662 0)
(2.518 -0.0014035 0)
(2.52216 -0.00191489 0)
(2.52732 -0.00239714 0)
(2.53309 -0.00275549 0)
(2.53927 -0.00309175 0)
(2.54479 -0.00313752 0)
(2.5516 -0.00283765 0)
(1.28767 1.14436 0)
(1.63881 0.904848 0)
(1.85415 0.60952 0)
(1.95068 0.30571 0)
(1.98283 0.0654076 0)
(2.01029 -0.110935 0)
(2.05335 -0.209701 0)
(2.08537 -0.224179 0)
(2.09852 -0.189193 0)
(2.10605 -0.142825 0)
(2.1077 -0.103197 0)
(2.10887 -0.0738928 0)
(2.11321 -0.0572396 0)
(2.11993 -0.0506841 0)
(2.12746 -0.0477496 0)
(2.13686 -0.0461857 0)
(2.14702 -0.0455731 0)
(2.15681 -0.0449648 0)
(2.16635 -0.0437407 0)
(2.17583 -0.0420552 0)
(2.18544 -0.0401256 0)
(2.19532 -0.0381212 0)
(2.20553 -0.0361858 0)
(2.2161 -0.0343508 0)
(2.22701 -0.032618 0)
(2.23821 -0.0310188 0)
(2.24968 -0.0295565 0)
(2.26146 -0.0281793 0)
(2.27347 -0.0269696 0)
(2.28563 -0.0259882 0)
(2.29792 -0.0250908 0)
(2.31038 -0.024273 0)
(2.32298 -0.0235382 0)
(2.33571 -0.0228799 0)
(2.34859 -0.0223432 0)
(2.36157 -0.0218799 0)
(2.37465 -0.0213965 0)
(2.38785 -0.0209402 0)
(2.40116 -0.0205565 0)
(2.41455 -0.0201693 0)
(2.42803 -0.0197566 0)