/*--------------------------------*- C++ -*----------------------------------*\
  =========                 |
  \\      /  F ield         | OpenFOAM: The Open Source CFD Toolbox
   \\    /   O peration     | Website:  https://openfoam.org
    \\  /    A nd           | Version:  6
     \\/     M anipulation  |
\*---------------------------------------------------------------------------*/
FoamFile
{
    version     2.0;
    format      ascii;
    class       volVectorField;
    location    "19.6";
    object      U;
}
// * * * * * * * * * * * * * * * * * * * * * * * * * * * * * * * * * * * * * //

dimensions      [0 1 -1 0 0 0 0];

internalField   nonuniform List<vector> 
8800
(
(0.987184 -0.0766638 0)
(1.00189 -0.0551873 0)
(0.999761 -0.0285455 0)
(1.00005 -0.0151271 0)
(1.00004 -0.00851546 0)
(1.00004 -0.00504168 0)
(1.00004 -0.00301166 0)
(1.00004 -0.00170249 0)
(1.00004 -0.000810072 0)
(1.00004 -0.000124765 0)
(1.00004 0.000543315 0)
(1.00004 0.00130912 0)
(1.00004 0.00237294 0)
(1.00004 0.00398197 0)
(1.00003 0.00659012 0)
(1.00006 0.0113236 0)
(0.999985 0.0207852 0)
(0.999173 0.0386501 0)
(1.00707 0.0724472 0)
(0.771214 0.0366579 0)
(0.363105 -0.016013 0)
(1.04333 -0.0767947 0)
(1.08462 -0.0704224 0)
(1.04523 -0.0535325 0)
(1.0233 -0.038935 0)
(1.01196 -0.0262327 0)
(1.00626 -0.0167982 0)
(1.00351 -0.0102597 0)
(1.00214 -0.0056822 0)
(1.00145 -0.00216726 0)
(1.00132 0.0010573 0)
(1.00172 0.00432385 0)
(1.00267 0.00820056 0)
(1.00459 0.0135887 0)
(1.00859 0.0214092 0)
(1.01666 0.0324729 0)
(1.0326 0.0463937 0)
(1.06277 0.061507 0)
(1.09193 0.07597 0)
(0.838866 0.0565105 0)
(0.216935 -0.00241913 0)
(1.07597 -0.0500411 0)
(1.09988 -0.0481708 0)
(1.06455 -0.040251 0)
(1.03983 -0.0333709 0)
(1.02365 -0.0259429 0)
(1.01386 -0.0184791 0)
(1.00824 -0.0118154 0)
(1.00531 -0.00608166 0)
(1.00417 -0.000782753 0)
(1.00449 0.00434129 0)
(1.0064 0.00971548 0)
(1.01045 0.0157629 0)
(1.01789 0.0227598 0)
(1.03051 0.0302019 0)
(1.0507 0.0372545 0)
(1.08051 0.0440656 0)
(1.10654 0.0509936 0)
(0.943116 0.0414432 0)
(0.216566 0.00243543 0)
(0.175388 -0.000802525 0)
(1.01794 -0.0353492 0)
(1.10537 -0.0412403 0)
(1.07838 -0.0359536 0)
(1.05325 -0.0299985 0)
(1.03574 -0.0243686 0)
(1.02348 -0.0187452 0)
(1.01552 -0.0128861 0)
(1.01091 -0.00685093 0)
(1.00891 -0.00076275 0)
(1.00949 0.00523021 0)
(1.01259 0.0111495 0)
(1.01867 0.0169652 0)
(1.02859 0.0225282 0)
(1.04325 0.0279438 0)
(1.0641 0.0335617 0)
(1.09413 0.039607 0)
(1.09415 0.0414677 0)
(0.828599 0.0226632 0)
(0.174771 0.000821416 0)
(0.154417 -0.000587267 0)
(0.956981 -0.0251151 0)
(1.10344 -0.0345854 0)
(1.08736 -0.0321178 0)
(1.06146 -0.0275937 0)
(1.04385 -0.0226779 0)
(1.03142 -0.0175402 0)
(1.02258 -0.012265 0)
(1.01676 -0.00671697 0)
(1.01399 -0.000559809 0)
(1.01477 0.00565635 0)
(1.01889 0.0112984 0)
(1.02604 0.0164459 0)
(1.03642 0.021408 0)
(1.0511 0.026223 0)
(1.07227 0.0307587 0)
(1.10061 0.0347404 0)
(1.06955 0.0330826 0)
(0.7426 0.0138984 0)
(0.153496 0.000608175 0)
(0.140408 -0.000438229 0)
(0.901216 -0.0185058 0)
(1.09629 -0.029187 0)
(1.09556 -0.0281114 0)
(1.0686 -0.0243452 0)
(1.05001 -0.0204864 0)
(1.03713 -0.01624 0)
(1.02808 -0.0114096 0)
(1.02213 -0.00610641 0)
(1.01921 -0.000198932 0)
(1.01993 0.00577348 0)
(1.0241 0.0111491 0)
(1.03129 0.0159393 0)
(1.04194 0.0201545 0)
(1.0572 0.0238838 0)
(1.07976 0.0273878 0)
(1.10357 0.0303143 0)
(1.03911 0.0267226 0)
(0.678427 0.00960751 0)
(0.139118 0.000462524 0)
(0.13038 -0.000324361 0)
(0.853541 -0.0138296 0)
(1.08432 -0.0245698 0)
(1.1011 -0.0248854 0)
(1.07528 -0.0218674 0)
(1.05583 -0.0184647 0)
(1.04231 -0.0145406 0)
(1.03292 -0.0100845 0)
(1.02666 -0.00511477 0)
(1.0235 0.000311993 0)
(1.0242 0.0057023 0)
(1.02845 0.0106171 0)
(1.03586 0.0149537 0)
(1.0469 0.0187575 0)
(1.06295 0.0220457 0)
(1.08613 0.0249362 0)
(1.10324 0.0267298 0)
(1.00662 0.0215889 0)
(0.630088 0.00700642 0)
(0.128646 0.000353078 0)
(0.123162 -0.000223804 0)
(0.814775 -0.00999263 0)
(1.06992 -0.0197506 0)
(1.10383 -0.0208188 0)
(1.08042 -0.0183383 0)
(1.06071 -0.0154703 0)
(1.04681 -0.0122558 0)
(1.03697 -0.00859091 0)
(1.03046 -0.00426329 0)
(1.02725 0.000841887 0)
(1.02775 0.00600663 0)
(1.03196 0.0103307 0)
(1.03959 0.0138252 0)
(1.05101 0.0167357 0)
(1.06732 0.0193096 0)
(1.09068 0.0216552 0)
(1.10008 0.0226746 0)
(0.975335 0.0168526 0)
(0.593706 0.00503492 0)
(0.120887 0.000258465 0)
(0.118132 -0.00015697 0)
(0.784826 -0.00703598 0)
(1.05537 -0.0153826 0)
(1.1059 -0.0170076 0)
(1.08549 -0.0149697 0)
(1.06563 -0.0124454 0)
(1.05181 -0.00968246 0)
(1.04199 -0.00649619 0)
(1.0353 -0.00279527 0)
(1.03179 0.00157203 0)
(1.03225 0.00593169 0)
(1.03648 0.0095082 0)
(1.04401 0.0123259 0)
(1.05518 0.0146457 0)
(1.07138 0.0166328 0)
(1.09452 0.0185754 0)
(1.09523 0.0189121 0)
(0.947465 0.0129244 0)
(0.566791 0.00361598 0)
(0.115193 0.000199596 0)
(0.114823 -8.26585e-05 0)
(0.762983 -0.00421388 0)
(1.04147 -0.0108445 0)
(1.10646 -0.0130129 0)
(1.08918 -0.0118101 0)
(1.06865 -0.0100347 0)
(1.05442 -0.00781199 0)
(1.04464 -0.00498341 0)
(1.03815 -0.00152523 0)
(1.03471 0.00242549 0)
(1.03485 0.00623188 0)
(1.03859 0.00936285 0)
(1.04573 0.0117221 0)
(1.05696 0.0134397 0)
(1.07379 0.0146676 0)
(1.09653 0.0156378 0)
(1.08857 0.0149673 0)
(0.923746 0.00908537 0)
(0.547787 0.00229347 0)
(0.111071 0.000135263 0)
(0.113432 -2.96229e-06 0)
(0.749204 -0.00179191 0)
(1.029 -0.00643922 0)
(1.10515 -0.00903749 0)
(1.09139 -0.00879101 0)
(1.07155 -0.0074929 0)
(1.05768 -0.00565481 0)
(1.04785 -0.00320816 0)
(1.04109 -0.000204042 0)
(1.0373 0.00338746 0)
(1.03727 0.00685324 0)
(1.04098 0.00943422 0)
(1.04803 0.0111765 0)
(1.05883 0.0122765 0)
(1.07487 0.0128771 0)
(1.09599 0.012795 0)
(1.08015 0.0110713 0)
(0.904829 0.0056587 0)
(0.536116 0.00124744 0)
(0.108677 6.77273e-05 0)
(0.113424 3.81563e-05 0)
(0.741905 -0.000519376 0)
(1.01914 -0.00330416 0)
(1.10273 -0.00552105 0)
(1.09276 -0.00553194 0)
(1.0736 -0.00467757 0)
(1.06016 -0.00342185 0)
(1.05077 -0.00135736 0)
(1.04432 0.00134178 0)
(1.04059 0.00457764 0)
(1.04008 0.00762632 0)
(1.04307 0.00961551 0)
(1.04927 0.0106646 0)
(1.05937 0.0109035 0)
(1.07501 0.0108109 0)
(1.09393 0.0104024 0)
(1.07118 0.00825894 0)
(0.890845 0.00384615 0)
(0.529033 0.000849447 0)
(0.107427 4.03518e-05 0)
(0.114011 5.27377e-05 0)
(0.738078 -0.000113863 0)
(1.01274 -0.00185612 0)
(1.10094 -0.00324903 0)
(1.09366 -0.00311395 0)
(1.07508 -0.00210706 0)
(1.06185 -0.000885039 0)
(1.05268 0.000884755 0)
(1.04616 0.00325866 0)
(1.04222 0.00605521 0)
(1.04128 0.00854901 0)
(1.04375 0.00998091 0)
(1.04947 0.0106378 0)
(1.05898 0.0105782 0)
(1.07418 0.0100604 0)
(1.09129 0.00918788 0)
(1.06324 0.00714546 0)
(0.880178 0.00353042 0)
(0.523277 0.000877021 0)
(0.106434 4.73003e-05 0)
(0.11473 5.47174e-05 0)
(0.73545 0.000117785 0)
(1.00828 -0.00142278 0)
(1.10019 -0.0025746 0)
(1.09527 -0.00205782 0)
(1.07711 -0.00100826 0)
(1.06411 0.000477362 0)
(1.05518 0.00248581 0)
(1.04883 0.00503111 0)
(1.04463 0.00781308 0)
(1.04311 0.0100728 0)
(1.04482 0.0112957 0)
(1.04979 0.0115291 0)
(1.05843 0.0112696 0)
(1.0728 0.0107834 0)
(1.08865 0.00984908 0)
(1.05611 0.00775298 0)
(0.869979 0.00388538 0)
(0.517182 0.00102615 0)
(0.105227 6.88657e-05 0)
(0.115602 6.68693e-05 0)
(0.733422 0.000469634 0)
(1.00331 -0.00102892 0)
(1.09908 -0.00300268 0)
(1.09684 -0.00298492 0)
(1.07953 -0.00186602 0)
(1.06661 0.000133767 0)
(1.05777 0.00290694 0)
(1.05131 0.00627846 0)
(1.04662 0.00987518 0)
(1.04447 0.012793 0)
(1.04543 0.014454 0)
(1.04946 0.0151013 0)
(1.0577 0.0149668 0)
(1.07137 0.0141314 0)
(1.0853 0.0126687 0)
(1.0469 0.00903027 0)
(0.858515 0.00415297 0)
(0.510578 0.00115399 0)
(0.10369 9.17098e-05 0)
(0.116773 8.66045e-05 0)
(0.733223 0.00115287 0)
(0.997678 0.000195645 0)
(1.09542 -0.00256632 0)
(1.09727 -0.00338535 0)
(1.08227 -0.00273041 0)
(1.07024 -0.000451095 0)
(1.06173 0.00332736 0)
(1.05508 0.00780097 0)
(1.04977 0.0124848 0)
(1.04678 0.0163555 0)
(1.04686 0.0186618 0)
(1.04999 0.0197403 0)
(1.05666 0.0196262 0)
(1.06893 0.0183904 0)
(1.07831 0.0152544 0)
(1.03385 0.00952119 0)
(0.846491 0.00412487 0)
(0.503879 0.00124218 0)
(0.101882 0.000108564 0)
(0.11847 0.000115796 0)
(0.735173 0.00183904 0)
(0.993439 0.00207778 0)
(1.08955 -0.000285526 0)
(1.09701 -0.00226937 0)
(1.08479 -0.00164924 0)
(1.07458 0.00108293 0)
(1.06654 0.00550823 0)
(1.05952 0.0106299 0)
(1.0534 0.0158802 0)
(1.0494 0.0200445 0)
(1.04841 0.0223772 0)
(1.05029 0.0231404 0)
(1.05509 0.0225254 0)
(1.0642 0.0204169 0)
(1.06754 0.0155789 0)
(1.01913 0.00913393 0)
(0.835303 0.00410608 0)
(0.497162 0.00136396 0)
(0.0998499 0.000124115 0)
(0.120905 0.000158561 0)
(0.74024 0.00272352 0)
(0.993037 0.00431516 0)
(1.08495 0.00343318 0)
(1.09549 0.00208458 0)
(1.08757 0.00272585 0)
(1.07937 0.0057797 0)
(1.07163 0.0101825 0)
(1.06413 0.015257 0)
(1.057 0.0202703 0)
(1.05171 0.0238427 0)
(1.04941 0.0252607 0)
(1.04971 0.0249724 0)
(1.05262 0.0235216 0)
(1.05712 0.020071 0)
(1.0555 0.0147652 0)
(1.00561 0.0088387 0)
(0.825125 0.00442078 0)
(0.489968 0.00159177 0)
(0.0975279 0.000146722 0)
(0.124238 0.000215125 0)
(0.748779 0.00371 0)
(0.996413 0.00643562 0)
(1.08423 0.00743635 0)
(1.09566 0.00779795 0)
(1.09074 0.00939239 0)
(1.08397 0.0125762 0)
(1.0765 0.0168252 0)
(1.0684 0.0215312 0)
(1.06 0.0258141 0)
(1.05309 0.0282378 0)
(1.04909 0.0282981 0)
(1.04767 0.026602 0)
(1.04799 0.0236586 0)
(1.04921 0.0195269 0)
(1.0444 0.0144903 0)
(0.994003 0.0093285 0)
(0.815133 0.00514184 0)
(0.48166 0.00192129 0)
(0.094782 0.000176996 0)
(0.128587 0.000279765 0)
(0.760394 0.0048165 0)
(1.00375 0.00875231 0)
(1.08767 0.0113438 0)
(1.09874 0.0133014 0)
(1.095 0.0162759 0)
(1.08888 0.0201877 0)
(1.08128 0.0246975 0)
(1.07227 0.0291872 0)
(1.06221 0.0326644 0)
(1.05331 0.0337197 0)
(1.04729 0.0322099 0)
(1.04388 0.0291401 0)
(1.04212 0.0249983 0)
(1.04111 0.020406 0)
(1.03444 0.0155616 0)
(0.983372 0.010724 0)
(0.804134 0.00624629 0)
(0.471586 0.00237608 0)
(0.0914376 0.000218106 0)
(0.134287 0.00037751 0)
(0.775604 0.00636468 0)
(1.01489 0.0116092 0)
(1.09466 0.0156053 0)
(1.10477 0.019152 0)
(1.10102 0.0235905 0)
(1.09469 0.0286287 0)
(1.08629 0.0337711 0)
(1.0758 0.0382986 0)
(1.06359 0.0411205 0)
(1.05224 0.0408644 0)
(1.04405 0.037833 0)
(1.03867 0.0333059 0)
(1.03515 0.0281618 0)
(1.0326 0.0230005 0)
(1.02472 0.0179721 0)
(0.972351 0.0128994 0)
(0.791132 0.0077044 0)
(0.459181 0.00294122 0)
(0.0873347 0.000268055 0)
(0.14184 0.000520289 0)
(0.795355 0.00854347 0)
(1.02989 0.0154126 0)
(1.10518 0.0207979 0)
(1.11375 0.0259268 0)
(1.10914 0.0319846 0)
(1.10171 0.0384178 0)
(1.09173 0.0444819 0)
(1.07908 0.0493021 0)
(1.06414 0.0515743 0)
(1.04994 0.050016 0)
(1.03936 0.0454443 0)
(1.03201 0.0394634 0)
(1.02694 0.0331774 0)
(1.02318 0.0271996 0)
(1.01425 0.0215877 0)
(0.959844 0.0158353 0)
(0.775249 0.0095739 0)
(0.443862 0.00363892 0)
(0.0823291 0.000329449 0)
(0.152014 0.000730255 0)
(0.820864 0.0116676 0)
(1.04951 0.0205318 0)
(1.11955 0.0274827 0)
(1.12599 0.0344451 0)
(1.11971 0.0423852 0)
(1.11029 0.0504418 0)
(1.09785 0.0576446 0)
(1.08222 0.0628245 0)
(1.06384 0.0644732 0)
(1.04633 0.0614631 0)
(1.0331 0.0551987 0)
(1.02373 0.0476386 0)
(1.01715 0.0399952 0)
(1.01226 0.0329122 0)
(1.00219 0.0263739 0)
(0.944932 0.0195791 0)
(0.756007 0.0118848 0)
(0.425247 0.00444174 0)
(0.0763111 0.00039002 0)
(0.166091 0.00107443 0)
(0.854129 0.0164062 0)
(1.075 0.0278116 0)
(1.13838 0.0366339 0)
(1.142 0.0460032 0)
(1.13317 0.0561456 0)
(1.12071 0.0659561 0)
(1.10469 0.0742116 0)
(1.08514 0.079538 0)
(1.06258 0.0802734 0)
(1.0413 0.0755014 0)
(1.02516 0.0672898 0)
(1.01363 0.0579316 0)
(1.00544 0.0486898 0)
(0.999326 0.0402183 0)
(0.987828 0.0324458 0)
(0.926787 0.0242549 0)
(0.732536 0.0147286 0)
(0.402699 0.00543592 0)
(0.0691394 0.000465175 0)
(0.186282 0.00170029 0)
(0.898543 0.0240074 0)
(1.10869 0.0389057 0)
(1.16297 0.0501228 0)
(1.16234 0.0626307 0)
(1.14947 0.0751162 0)
(1.13257 0.0864513 0)
(1.1118 0.0952846 0)
(1.08741 0.100173 0)
(1.06003 0.0993953 0)
(1.03459 0.0923769 0)
(1.01534 0.0818946 0)
(1.00147 0.0705017 0)
(0.991497 0.0594429 0)
(0.983939 0.0493509 0)
(0.970541 0.0400753 0)
(0.904472 0.0301424 0)
(0.70371 0.0183211 0)
(0.375479 0.00667081 0)
(0.0606925 0.000547466 0)
(0.215921 0.00309307 0)
(0.95979 0.037373 0)
(1.15269 0.0575313 0)
(1.19459 0.0718233 0)
(1.18691 0.08747 0)
(1.168 0.10178 0)
(1.14508 0.1137 0)
(1.11842 0.122034 0)
(1.08838 0.125404 0)
(1.05571 0.122191 0)
(1.02588 0.112286 0)
(1.00337 0.0991768 0)
(0.987052 0.0855499 0)
(0.975104 0.0725446 0)
(0.965787 0.0607248 0)
(0.949797 0.049839 0)
(0.876945 0.0376677 0)
(0.668388 0.0229003 0)
(0.343572 0.0082843 0)
(0.0512465 0.000628128 0)
(0.257095 0.00963487 -2.23071e-21)
(1.04191 0.0647646 -1.65596e-21)
(1.20504 0.0900885 4.37492e-22)
(1.23082 0.107532 0)
(1.21327 0.124419 -1.88831e-36)
(1.18678 0.138519 5.95769e-23)
(1.15679 0.149309 -3.01279e-22)
(1.12349 0.155746 0)
(1.08727 0.156565 1.04754e-35)
(1.04879 0.150226 -7.79566e-22)
(1.01407 0.137084 0)
(0.98783 0.121241 -1.10427e-21)
(0.968542 0.105388 -3.37207e-21)
(0.954068 0.0905567 -1.63025e-21)
(0.942275 0.0772566 -5.12371e-22)
(0.92282 0.0650584 -3.10232e-22)
(0.841455 0.0505441 0)
(0.623297 0.0313292 2.23081e-22)
(0.305894 0.0127295 2.65116e-22)
(0.0424429 0.00155828 4.75764e-21)
(0.28347 0.0257576 -4.46411e-21)
(1.10881 0.108915 1.03426e-22)
(1.24956 0.137962 -2.39531e-22)
(1.2633 0.156659 0)
(1.23684 0.17195 2.87307e-22)
(1.20302 0.184291 8.10898e-23)
(1.16602 0.193183 -2.13297e-22)
(1.12596 0.197512 -1.40262e-21)
(1.08316 0.195863 0)
(1.03808 0.18665 3.30648e-21)
(0.997282 0.170644 3.6296e-21)
(0.965975 0.152475 1.16208e-21)
(0.942419 0.134827 4.56666e-21)
(0.924169 0.118446 6.70777e-21)
(0.908589 0.103888 0)
(0.883422 0.0902787 9.96107e-21)
(0.796364 0.0732034 1.45774e-20)
(0.577029 0.0489601 1.63468e-20)
(0.278293 0.0233743 -1.89173e-20)
(0.0377035 0.0032117 -3.53526e-22)
(0.281145 0.0423527 0)
(1.14843 0.165956 -1.40952e-21)
(1.28212 0.19769 0)
(1.28853 0.215725 2.12805e-21)
(1.25533 0.227462 0)
(1.21515 0.23638 8.68516e-22)
(1.17181 0.242026 2.82922e-22)
(1.12549 0.243197 -2.17938e-21)
(1.07651 0.238404 -3.13595e-22)
(1.02532 0.225974 1.61385e-21)
(0.978976 0.207092 8.44765e-21)
(0.943101 0.186921 -5.93229e-23)
(0.915731 0.168036 -3.42904e-21)
(0.894166 0.151007 -6.63815e-21)
(0.875593 0.135932 8.04726e-21)
(0.848447 0.12191 -1.44771e-20)
(0.766757 0.102602 -1.986e-21)
(0.563551 0.0738075 0)
(0.28621 0.0382568 1.99406e-23)
(0.0432502 0.00609417 0)
(0.272371 0.0562939 -3.60511e-20)
(1.16743 0.226332 1.4674e-20)
(1.30326 0.263134 7.70785e-21)
(1.30512 0.279513 -1.42947e-21)
(1.2672 0.287366 2.16667e-21)
(1.22224 0.292273 -2.18907e-21)
(1.17383 0.294071 4.22338e-22)
(1.12225 0.291502 0)
(1.06782 0.283127 -6.48966e-21)
(1.01116 0.267192 0)
(0.96 0.245424 -4.32523e-21)
(0.920322 0.223363 -6.03671e-21)
(0.889923 0.203455 -3.84573e-21)
(0.865927 0.186045 -4.94869e-21)
(0.845521 0.170959 0)
(0.818306 0.156678 0)
(0.744363 0.136511 -1.33562e-20)
(0.562514 0.102608 2.67646e-21)
(0.300307 0.056133 -1.56145e-21)
(0.0498518 0.00979365 -1.84763e-21)
(0.263617 0.0688035 2.69333e-20)
(1.17354 0.286306 0)
(1.31491 0.329471 -2.17918e-20)
(1.31402 0.344449 -5.46261e-21)
(1.27279 0.348625 -4.00134e-21)
(1.22428 0.349622 0)
(1.17195 0.347533 -2.7858e-22)
(1.11614 0.341122 2.02693e-21)
(1.05723 0.328969 2.89444e-21)
(0.995903 0.309379 8.14552e-21)
(0.94073 0.284606 0)
(0.898042 0.260605 -1.31658e-20)
(0.86547 0.239644 -8.40099e-21)
(0.839879 0.221791 -5.06276e-21)
(0.818475 0.206725 3.31137e-20)
(0.79205 0.192529 4.06696e-21)
(0.725275 0.171957 1.94633e-20)
(0.560506 0.132781 -9.41397e-20)
(0.308458 0.0749291 5.61504e-20)
(0.0543883 0.0135658 -6.85905e-20)
(0.255929 0.080008 2.86441e-20)
(1.17174 0.34404 -5.22825e-21)
(1.31947 0.394926 3.87236e-21)
(1.31683 0.408761 1.03795e-20)
(1.2732 0.409497 6.22579e-21)
(1.22201 0.406823 3.35642e-22)
(1.16663 0.401007 1.90314e-22)
(1.10736 0.3909 1.6255e-21)
(1.04477 0.374999 -6.34857e-21)
(0.979559 0.351715 0)
(0.921009 0.323772 -5.67115e-21)
(0.876081 0.297641 -3.05165e-22)
(0.842007 0.2754 -9.39763e-21)
(0.815466 0.256877 0)
(0.793672 0.241574 -7.22767e-21)
(0.768434 0.227306 -1.75971e-20)
(0.707614 0.205789 4.86875e-20)
(0.554121 0.161101 -4.85995e-20)
(0.309469 0.0915259 6.93378e-20)
(0.0559686 0.0167879 -7.30589e-20)
(0.249798 0.0904571 -1.09284e-22)
(1.16523 0.398935 6.45063e-21)
(1.31884 0.458331 1.86339e-20)
(1.31506 0.471323 -6.41874e-21)
(1.26963 0.469025 3.58127e-21)
(1.21633 0.462955 0)
(1.15845 0.453669 1.40817e-21)
(1.09632 0.440028 -1.36339e-21)
(1.03058 0.420523 -2.94733e-21)
(0.962085 0.393535 0)
(0.900663 0.362294 -5.56439e-21)
(0.853821 0.333756 -7.75991e-21)
(0.818642 0.309888 1.0284e-20)
(0.791623 0.290282 -6.56984e-21)
(0.769946 0.274281 -3.1848e-20)
(0.746023 0.259449 1.95854e-20)
(0.689546 0.236229 6.17759e-21)
(0.543351 0.185721 0)
(0.305177 0.105285 -6.73775e-20)
(0.0554605 0.01929 -2.50536e-21)
(0.245107 0.100427 4.73884e-21)
(1.15602 0.450839 -7.4526e-21)
(1.3144 0.518976 -1.02149e-20)
(1.30975 0.531561 -1.97412e-20)
(1.26295 0.526575 1.75724e-20)
(1.20802 0.51744 -9.02854e-21)
(1.1481 0.504975 -2.96058e-21)
(1.08354 0.488035 -2.02399e-21)
(1.01502 0.465103 2.78417e-21)
(0.943503 0.43444 -1.9952e-20)
(0.879529 0.399815 -6.81216e-21)
(0.831135 0.368547 0)
(0.795262 0.342672 1.12502e-20)
(0.768118 0.321606 1.3898e-20)
(0.746736 0.304491 1.71054e-20)
(0.723915 0.288688 -2.13692e-20)
(0.670385 0.263344 -6.4412e-21)
(0.529001 0.206957 7.65962e-21)
(0.296796 0.116343 0)
(0.0537482 0.0211727 -5.4599e-21)
(0.241614 0.110017 -5.52739e-20)
(1.1455 0.499863 3.42645e-20)
(1.30727 0.576732 1.12778e-20)
(1.30188 0.589118 -1.51531e-20)
(1.25402 0.581763 1.0605e-20)
(1.19776 0.569913 -7.90648e-22)
(1.13612 0.5546 2.83841e-21)
(1.06948 0.53463 -8.37863e-22)
(0.998454 0.50848 -5.28174e-21)
(0.9242 0.474315 3.52338e-23)
(0.857943 0.436212 -2.03969e-20)
(0.808117 0.401997 1.97271e-20)
(0.771643 0.373747 -1.26007e-20)
(0.744423 0.350885 1.56566e-20)
(0.723351 0.332297 0)
(0.701364 0.315097 -1.16073e-20)
(0.649759 0.287186 -2.42262e-22)
(0.511825 0.224863 -3.35029e-20)
(0.285449 0.124871 -4.97058e-21)
(0.051036 0.022333 0)
(0.239128 0.119411 0)
(1.13443 0.546231 3.72798e-20)
(1.29823 0.631531 2.64327e-20)
(1.29214 0.643843 1.71721e-20)
(1.24341 0.634407 1.01577e-20)
(1.18607 0.620167 0)
(1.12301 0.602308 3.06849e-21)
(1.05456 0.57962 -2.48737e-22)
(0.981311 0.550521 1.12131e-20)
(0.904521 0.512984 -2.46858e-21)
(0.835832 0.471393 -1.49458e-20)
(0.78444 0.434088 9.90475e-21)
(0.747322 0.403196 -3.9678e-22)
(0.720085 0.378148 1.65121e-20)
(0.699347 0.357769 1.07673e-20)
(0.678039 0.338817 -2.52766e-20)
(0.627611 0.307843 3.06081e-20)
(0.4922 0.239398 9.1709e-21)
(0.271712 0.131009 3.81061e-20)
(0.0475231 0.0228537 -1.03119e-19)
(0.237524 0.128698 -1.428e-20)
(1.12332 0.590126 2.16011e-20)
(1.28788 0.683416 -1.66024e-20)
(1.2811 0.695717 -2.00492e-20)
(1.23167 0.68442 0)
(1.17345 0.668085 8.17247e-21)
(1.10917 0.647981 -8.73872e-21)
(1.03913 0.622867 8.21745e-22)
(0.963824 0.5911 0)
(0.884443 0.55047 -3.80459e-20)
(0.813317 0.505406 4.07572e-20)
(0.760276 0.464787 0)
(0.722313 0.430956 1.49285e-20)
(0.695049 0.403391 -3.99697e-22)
(0.674622 0.380908 -3.41266e-20)
(0.65383 0.359894 1.34339e-20)
(0.603935 0.325449 0)
(0.470474 0.250701 4.97055e-20)
(0.25601 0.134833 0)
(0.0434816 0.0227566 -4.91406e-20)
(0.236608 0.137895 1.59568e-20)
(1.11249 0.631699 2.47656e-20)
(1.27668 0.732413 -1.74132e-20)
(1.26922 0.744731 0)
(1.21922 0.731792 1.42039e-20)
(1.16024 0.713628 0)
(1.09493 0.691538 1.18518e-20)
(1.02342 0.664297 1.05866e-21)
(0.946163 0.630183 1.26735e-21)
(0.864279 0.586708 -1.88002e-20)
(0.790612 0.538387 3.97382e-21)
(0.735735 0.494428 0)
(0.696723 0.457363 -3.17988e-20)
(0.669169 0.426946 4.13685e-22)
(0.648999 0.402071 0)
(0.628511 0.378639 4.89842e-22)
(0.578586 0.340213 4.51091e-20)
(0.446595 0.258765 -4.34956e-20)
(0.238494 0.13626 1.29114e-20)
(0.0389207 0.0220072 0)
(0.236028 0.146888 0)
(1.10205 0.671107 2.77757e-20)
(1.26498 0.778626 2.05261e-20)
(1.25682 0.790953 -4.45141e-22)
(1.20636 0.776558 8.97394e-21)
(1.14675 0.756794 1.94026e-20)
(1.08054 0.73297 -3.77597e-21)
(1.00772 0.703892 1.15089e-22)
(0.928644 0.66775 7.10556e-21)
(0.844261 0.6218 -2.93551e-20)
(0.767807 0.570399 -6.44562e-22)
(0.710782 0.52306 -1.3065e-20)
(0.670526 0.48266 5.21389e-20)
(0.642451 0.449161 -4.94937e-22)
(0.622392 0.421496 -2.69398e-20)
(0.601979 0.395211 -4.9231e-20)
(0.551508 0.352222 0)
(0.420616 0.263704 0)
(0.21929 0.135171 1.4134e-20)
(0.0340239 0.0206417 -8.38399e-21)
(0.235919 0.155835 1.99502e-20)
(1.09213 0.708201 -6.09463e-20)
(1.25304 0.822153 -2.20284e-20)
(1.24419 0.834457 0)
(1.19335 0.818779 -3.16249e-22)
(1.13322 0.797616 2.35189e-20)
(1.06625 0.772297 -1.30239e-20)
(0.992268 0.741654 -4.5602e-21)
(0.911479 0.703814 7.62942e-21)
(0.824555 0.655742 -2.27176e-20)
(0.745122 0.601603 -3.457e-20)
(0.685509 0.550959 3.487e-20)
(0.64361 0.506941 0)
(0.614822 0.470061 -1.21353e-20)
(0.594711 0.439361 -2.95837e-20)
(0.574145 0.40979 -3.56999e-20)
(0.522614 0.361504 -4.33512e-20)
(0.39242 0.26537 1.29898e-20)
(0.198306 0.131291 -7.64876e-21)
(0.0287381 0.0186391 8.67852e-23)
(0.235866 0.164519 0)
(1.08286 0.743405 0)
(1.24105 0.863097 5.27409e-22)
(1.23152 0.875344 0)
(1.18037 0.858533 -3.39939e-20)
(1.11983 0.836146 -2.09323e-20)
(1.05222 0.80954 0)
(0.977218 0.777595 -1.31688e-21)
(0.894795 0.738363 1.01567e-20)
(0.805357 0.688574 -5.21867e-20)
(0.722751 0.632066 0)
(0.660161 0.578279 -2.23689e-20)
(0.616025 0.530641 -6.05533e-22)
(0.586148 0.490014 -4.98209e-22)
(0.565834 0.455812 3.16295e-20)
(0.544908 0.422343 -8.06108e-23)
(0.49181 0.367915 -9.42245e-20)
(0.36185 0.263497 2.82979e-20)
(0.175704 0.124634 8.42762e-21)
(0.0231238 0.0159912 0)
(0.23586 0.172889 -7.38598e-20)
(1.07394 0.776804 -3.75626e-20)
(1.22912 0.901553 -5.5596e-20)
(1.21896 0.913712 7.67955e-20)
(1.16759 0.895884 -6.40073e-20)
(1.10672 0.872438 0)
(1.0386 0.84474 -1.136e-20)
(0.962685 0.811726 2.41545e-21)
(0.87876 0.771412 7.59177e-22)
(0.78686 0.720335 4.09881e-21)
(0.700873 0.661885 4.34669e-20)
(0.634895 0.605309 -7.66616e-21)
(0.587999 0.553999 -3.22719e-20)
(0.556406 0.50933 -1.44408e-20)
(0.535586 0.471043 1.76067e-20)
(0.514082 0.432899 -6.32744e-23)
(0.458994 0.37126 2.58466e-20)
(0.328733 0.257769 -6.14223e-20)
(0.1516 0.1151 7.33566e-20)
(0.0174767 0.0128859 1.07759e-20)
(0.235726 0.180916 2.72029e-20)
(1.06539 0.808467 -2.06124e-20)
(1.21737 0.937638 1.23665e-21)
(1.20663 0.949681 4.35703e-20)
(1.1551 0.930939 1.50357e-20)
(1.094 0.906562 4.20461e-20)
(1.02548 0.877944 -5.1132e-21)
(0.948788 0.844071 1.18494e-20)
(0.863493 0.80296 -6.73366e-21)
(0.76919 0.750997 -2.86953e-20)
(0.679709 0.691125 0)
(0.609922 0.632128 -3.44806e-20)
(0.559591 0.577401 4.68854e-20)
(0.525531 0.528389 0)
(0.50371 0.485218 -3.77304e-20)
(0.481375 0.441151 2.33638e-20)
(0.424132 0.371005 -2.7956e-20)
(0.293955 0.248022 -3.36267e-20)
(0.127108 0.103206 -5.97143e-20)
(0.0120179 0.0094777 -4.71887e-20)
(0.23576 0.188694 -3.00024e-20)
(1.05706 0.83839 2.20655e-20)
(1.20588 0.971437 5.22247e-20)
(1.1946 0.983338 6.00599e-20)
(1.14298 0.963784 -3.15278e-20)
(1.08174 0.938602 2.91837e-20)
(1.01293 0.909202 -1.5915e-20)
(0.935597 0.874671 1.50447e-20)
(0.849063 0.833023 -2.72799e-21)
(0.752475 0.780574 2.76195e-20)
(0.659437 0.719786 9.26662e-20)
(0.5855 0.658946 0)
(0.531045 0.601128 0)
(0.493479 0.547723 -1.67286e-20)
(0.469724 0.49868 0)
(0.446145 0.446693 5.08945e-20)
(0.387024 0.366012 6.10955e-20)
(0.258356 0.233448 0)
(0.103543 0.0891921 0)
(0.00719683 0.00608488 5.13574e-20)
(0.235515 0.195945 3.31946e-20)
(1.04897 0.866583 2.65839e-20)
(1.19469 1.00306 3.76274e-20)
(1.18293 1.01481 -5.38321e-20)
(1.1313 0.994518 -3.52821e-20)
(1.06999 0.968629 -3.88851e-20)
(1.001 0.938574 2.37156e-20)
(0.923155 0.90355 1.07447e-22)
(0.835531 0.8616 -9.80476e-22)
(0.736803 0.809034 -1.23239e-21)
(0.640226 0.747894 4.70366e-20)
(0.561869 0.685763 0)
(0.502718 0.625407 4.74514e-20)
(0.460415 0.567979 3.53481e-20)
(0.433086 0.512239 9.00611e-20)
(0.407015 0.449189 2.75053e-20)
(0.346741 0.353996 -3.3697e-20)
(0.223878 0.211699 -1.98297e-20)
(0.0849119 0.072994 0)
(0.00405753 0.00307746 5.58165e-20)
(0.235474 0.203111 -7.33025e-20)
(1.04111 0.893147 0)
(1.18383 1.0326 4.22113e-20)
(1.17166 1.04417 -4.42484e-20)
(1.12008 1.02323 4.01248e-20)
(1.05878 0.996729 5.70536e-20)
(0.989712 0.966116 -5.53638e-20)
(0.911483 0.930744 4.2174e-22)
(0.822927 0.888702 0)
(0.722242 0.836329 -2.61619e-20)
(0.622239 0.775399 -9.78806e-20)
(0.539298 0.712578 4.73562e-21)
(0.474978 0.650408 6.46407e-20)
(0.426707 0.589787 0)
(0.393351 0.527144 6.08835e-20)
(0.36184 0.449541 0)
(0.299417 0.332384 0)
(0.190725 0.174226 -2.20681e-20)
(0.0883588 0.0433805 0)
(0.023327 0.00625678 1.50715e-20)
(0.235074 0.209642 -8.03289e-20)
(1.03347 0.918409 0)
(1.17328 1.06023 6.85857e-20)
(1.16077 1.07166 0)
(1.10931 1.05018 -2.18798e-20)
(1.04805 1.02318 0)
(0.979009 0.992131 -4.1809e-21)
(0.900492 0.956585 -2.70954e-21)
(0.811138 0.914686 1.04251e-22)
(0.708645 0.862839 -2.59633e-20)
(0.605356 0.802705 2.59017e-21)
(0.517658 0.739983 3.91612e-20)
(0.447735 0.676562 6.27088e-20)
(0.39222 0.614141 8.93453e-21)
(0.349568 0.545561 4.77441e-20)
(0.307478 0.451135 0)
(0.234087 0.303945 7.3556e-20)
(0.132996 0.111097 -4.37288e-20)
(0.044043 0.0668456 5.0565e-20)
(-0.0344482 0.420796 -5.99768e-20)
(0.234619 0.215916 6.56533e-20)
(1.02583 0.942213 1.01867e-19)
(1.16297 1.08627 0)
(1.15012 1.0977 1.04336e-21)
(1.0988 1.07592 5.95852e-20)
(1.03757 1.04863 -1.1121e-19)
(0.968607 1.01739 -2.46348e-20)
(0.889817 0.981989 0)
(0.799699 0.940623 -3.88387e-21)
(0.695422 0.889853 -8.33385e-22)
(0.588766 0.831299 0)
(0.495938 0.769732 0)
(0.419761 0.705711 5.50592e-20)
(0.356017 0.643087 -2.78884e-20)
(0.299578 0.571395 -4.76849e-20)
(0.240498 0.461301 0)
(0.130215 0.286602 3.78078e-20)
(0.0239254 0.452208 -4.45192e-20)
(0.0440951 1.83383 -2.43542e-20)
(0.0735031 2.77647 -2.98681e-20)
(0.233827 0.221607 -4.83144e-20)
(1.01827 0.964741 -1.29004e-19)
(1.15291 1.11073 3.97821e-20)
(1.13973 1.12215 3.79574e-20)
(1.08864 1.10026 0)
(1.0274 1.07284 -7.98703e-20)
(0.958684 1.04159 -4.14939e-20)
(0.87962 1.00653 1.85099e-21)
(0.788846 0.965995 -5.00645e-22)
(0.682913 0.916743 2.01191e-20)
(0.573028 0.860426 4.38752e-20)
(0.475115 0.801302 4.0422e-20)
(0.392231 0.737278 5.4133e-20)
(0.320687 0.674836 -6.36387e-20)
(0.249364 0.607048 -7.06419e-20)
(0.161746 0.4954 0)
(0.0667487 0.840534 0)
(0.115534 2.5143 1.98246e-20)
(0.120352 3.17605 0)
(0.120413 3.37603 4.98764e-20)
(0.235798 0.226949 0)
(1.01106 0.986289 0)
(1.14281 1.13347 0)
(1.12943 1.14482 1.06171e-20)
(1.07857 1.123 5.35233e-20)
(1.01733 1.09565 -6.12402e-20)
(0.949167 1.06464 -2.98277e-20)
(0.869831 1.0301 2.12528e-21)
(0.778514 0.990632 -1.14856e-20)
(0.671106 0.94334 -2.11896e-21)
(0.558236 0.889852 7.95563e-20)
(0.455544 0.834576 -4.74942e-21)
(0.365626 0.771801 6.12876e-21)
(0.287774 0.706307 9.08307e-21)
(0.201991 0.650981 5.06958e-22)
(0.12805 0.962777 3.28581e-22)
(0.161752 2.65708 -9.9008e-20)
(0.175905 3.27998 -3.75586e-20)
(0.160389 3.42356 1.83945e-20)
(0.143915 3.44713 -1.95491e-20)
(0.158234 0.172105 2.86338e-20)
(0.998828 1.00974 0)
(1.13263 1.15473 -7.8312e-20)
(1.11964 1.1661 -9.87839e-20)
(1.06898 1.14462 1.11586e-19)
(1.008 1.11749 6.50078e-20)
(0.93985 1.08656 3.52231e-20)
(0.860468 1.05273 -3.73748e-20)
(0.768809 1.01454 1.29782e-20)
(0.660282 0.969589 0)
(0.544804 0.919414 3.46352e-20)
(0.437865 0.868875 -3.03012e-20)
(0.341021 0.811807 0)
(0.257193 0.742558 8.20479e-21)
(0.179766 0.867176 2.01382e-20)
(0.176538 2.38811 -2.41458e-20)
(0.242078 3.31759 2.75727e-20)
(0.219137 3.44328 1.36719e-20)
(0.181895 3.46521 1.58777e-20)
(0.157415 3.47487 2.12873e-20)
(0.268992 0.262641 -5.60505e-20)
(0.979761 1.01729 0)
(1.11397 1.17844 8.13471e-20)
(1.10618 1.19793 1.03524e-19)
(1.05373 1.17665 -1.16191e-19)
(0.992657 1.15005 -6.99548e-20)
(0.923886 1.12044 -5.45518e-20)
(0.844274 1.08789 -2.76689e-21)
(0.751825 1.05201 -1.95959e-20)
(0.641373 1.01139 3.1239e-21)
(0.522081 0.967978 1.35495e-21)
(0.408542 0.926424 2.32607e-20)
(0.298589 0.885189 5.00422e-21)
(0.232428 1.00861 -7.22739e-21)
(0.250203 2.25482 -1.70452e-20)
(0.311916 3.32403 1.34937e-20)
(0.298612 3.4802 -1.2829e-20)
(0.259605 3.50109 -7.46788e-21)
(0.220419 3.52702 -1.70769e-21)
(0.167319 3.51908 -5.10765e-22)
(0.258119 0.260674 0)
(0.976122 1.03841 2.15009e-20)
(1.10558 1.20055 -1.60905e-20)
(1.09621 1.2199 -1.15344e-20)
(1.04403 1.19865 -7.62803e-20)
(0.983241 1.17227 6.82425e-20)
(0.914386 1.14289 3.67813e-20)
(0.834941 1.11121 -2.92077e-21)
(0.742516 1.07689 2.46256e-20)
(0.631626 1.03935 -2.98405e-21)
(0.510825 1.00101 -4.43566e-20)
(0.394483 0.965965 3.30446e-21)
(0.288183 0.952587 -4.33875e-21)
(0.273083 1.4558 -5.94428e-21)
(0.350357 3.06001 3.84231e-21)
(0.378556 3.47868 5.10303e-22)
(0.330243 3.54244 1.24133e-21)
(0.291564 3.5624 -4.6719e-21)
(0.23964 3.58395 1.18086e-20)
(0.180032 3.57789 4.2969e-21)
(0.243259 0.257534 5.32445e-20)
(0.971334 1.06177 1.44078e-19)
(1.09662 1.22446 -4.58501e-20)
(1.08589 1.24334 -4.37277e-20)
(1.034 1.22196 0)
(0.973482 1.19557 1.00033e-19)
(0.904819 1.16644 5.62095e-20)
(0.825813 1.13555 -3.09159e-21)
(0.733751 1.10283 2.55268e-21)
(0.622959 1.06848 1.11699e-20)
(0.501419 1.03558 -1.35625e-20)
(0.384352 1.00847 -2.24429e-20)
(0.296765 1.07408 -2.83251e-20)
(0.345646 2.09351 3.07014e-20)
(0.441186 3.37938 1.64769e-20)
(0.425921 3.55093 0)
(0.36862 3.59085 0)
(0.326926 3.63059 1.11425e-20)
(0.265097 3.68614 0)
(0.190582 3.65902 2.67756e-20)
(0.232443 0.258141 -7.75398e-20)
(0.964426 1.08567 -1.19627e-19)
(1.08629 1.24944 0)
(1.07446 1.26759 1.21073e-21)
(1.02287 1.24581 -7.41973e-20)
(0.962741 1.2193 1.48685e-19)
(0.894597 1.1904 3.78842e-20)
(0.816274 1.16019 -3.88834e-21)
(0.724862 1.12898 2.83587e-20)
(0.614624 1.09773 -1.39106e-21)
(0.493123 1.07045 0)
(0.378255 1.05374 0)
(0.328411 1.28589 -2.02824e-20)
(0.435723 2.76577 6.42494e-21)
(0.52166 3.50639 -7.00624e-22)
(0.470283 3.59519 0)
(0.42438 3.64965 3.08348e-20)
(0.367686 3.713 -4.74701e-20)
(0.314548 3.68996 -4.35497e-20)