/*--------------------------------*- C++ -*----------------------------------*\
  =========                 |
  \\      /  F ield         | OpenFOAM: The Open Source CFD Toolbox
   \\    /   O peration     | Website:  https://openfoam.org
    \\  /    A nd           | Version:  6
     \\/     M anipulation  |
\*---------------------------------------------------------------------------*/
FoamFile
{
    version     2.0;
    format      ascii;
    class       volScalarField;
    location    "15.6";
    object      p;
}
// * * * * * * * * * * * * * * * * * * * * * * * * * * * * * * * * * * * * * //

dimensions      [0 2 -2 0 0 0 0];

internalField   nonuniform List<scalar> 
8800
(
0.431477
0.382175
0.344228
0.316177
0.296032
0.281451
0.270852
0.263315
0.258421
0.256251
0.257313
0.2613
0.267785
0.276982
0.289555
0.306754
0.330541
0.363573
0.406465
0.45896
0.265935
0.272292
0.281465
0.285043
0.282482
0.276444
0.269558
0.263378
0.258558
0.255583
0.255124
0.257437
0.261769
0.267593
0.274436
0.281282
0.286016
0.285787
0.279044
0.270097
0.23935
0.245623
0.25021
0.254183
0.257247
0.258322
0.257326
0.255166
0.253038
0.251976
0.252722
0.254913
0.25754
0.259525
0.259739
0.257695
0.254124
0.249937
0.245047
0.241312
0.234975
0.237772
0.240468
0.24274
0.244605
0.2463
0.247463
0.247858
0.247672
0.247503
0.248015
0.248814
0.249154
0.248668
0.247378
0.245728
0.243818
0.241325
0.238795
0.237221
0.229818
0.231269
0.233291
0.23559
0.237466
0.238835
0.239962
0.240924
0.24167
0.242201
0.242511
0.242499
0.242121
0.241398
0.240424
0.238993
0.23699
0.234771
0.233244
0.232457
0.224915
0.225825
0.227276
0.229176
0.231137
0.232864
0.234263
0.235423
0.236426
0.237233
0.237536
0.237361
0.236843
0.235986
0.234721
0.233054
0.231226
0.229574
0.228567
0.228079
0.220367
0.221013
0.222325
0.224159
0.226088
0.228096
0.230003
0.231515
0.232601
0.233364
0.233858
0.233857
0.233245
0.232008
0.230353
0.228638
0.226908
0.225369
0.224538
0.224221
0.216445
0.21683
0.217954
0.219573
0.221206
0.222739
0.224241
0.225827
0.227322
0.228496
0.228979
0.228761
0.228047
0.227129
0.226069
0.22477
0.223312
0.221979
0.221345
0.22119
0.213938
0.214141
0.214968
0.216301
0.217743
0.219219
0.220712
0.222091
0.223382
0.224537
0.225273
0.225446
0.225161
0.224472
0.223525
0.222457
0.2213
0.220314
0.219914
0.219849
0.212146
0.212273
0.212722
0.213524
0.214517
0.215669
0.216947
0.218402
0.219903
0.221289
0.222222
0.222525
0.222372
0.221957
0.221417
0.220809
0.220217
0.219764
0.219574
0.219527
0.209741
0.209837
0.210092
0.210521
0.211215
0.212082
0.213129
0.214399
0.215853
0.21739
0.218639
0.219364
0.219671
0.219741
0.21952
0.219412
0.219267
0.219137
0.219048
0.219004
0.206438
0.206513
0.206757
0.207194
0.207721
0.208534
0.209701
0.211127
0.212803
0.214643
0.216237
0.217261
0.217799
0.218002
0.218175
0.218199
0.218194
0.218137
0.218087
0.218055
0.202527
0.202571
0.20281
0.203282
0.203939
0.204705
0.205876
0.207382
0.20925
0.211435
0.213481
0.214964
0.215923
0.216532
0.216902
0.217093
0.217137
0.217115
0.217107
0.21709
0.198239
0.198265
0.19849
0.198991
0.199735
0.200737
0.202053
0.203781
0.205976
0.208631
0.211229
0.213209
0.214553
0.215469
0.216056
0.216353
0.216457
0.216495
0.216526
0.216516
0.193602
0.193633
0.193856
0.194388
0.195206
0.196356
0.197865
0.199887
0.202523
0.205791
0.209086
0.211672
0.213531
0.21473
0.215536
0.216043
0.2163
0.216438
0.216503
0.216494
0.188409
0.18844
0.18869
0.189253
0.190161
0.191461
0.193263
0.195716
0.198951
0.203015
0.207164
0.210481
0.21286
0.214526
0.215625
0.216325
0.216744
0.216981
0.217074
0.217062
0.182398
0.182433
0.182739
0.183377
0.184421
0.185956
0.188142
0.191161
0.195177
0.200256
0.205474
0.209636
0.212713
0.21485
0.2163
0.217247
0.217839
0.218173
0.218295
0.218279
0.175301
0.175341
0.175711
0.176518
0.17777
0.179643
0.182357
0.186119
0.191139
0.197506
0.204052
0.209328
0.213173
0.215879
0.217723
0.218946
0.219722
0.220159
0.220311
0.220289
0.166841
0.166899
0.167367
0.168347
0.169953
0.172321
0.175723
0.180451
0.186771
0.194768
0.202974
0.209563
0.214356
0.217727
0.220041
0.221583
0.222563
0.223109
0.2233
0.223271
0.156642
0.156722
0.157323
0.158581
0.160629
0.163665
0.167998
0.174016
0.182014
0.192059
0.202295
0.210465
0.216397
0.220576
0.223449
0.225372
0.226598
0.227277
0.227511
0.227473
0.144145
0.144251
0.14504
0.146699
0.149382
0.153323
0.158943
0.16667
0.176814
0.189416
0.202128
0.212203
0.219499
0.224638
0.228178
0.230556
0.232075
0.232911
0.233199
0.233151
0.128562
0.128701
0.129768
0.132019
0.135617
0.140849
0.148221
0.158204
0.171118
0.186902
0.202599
0.214936
0.223852
0.230141
0.234488
0.237423
0.239305
0.240328
0.240676
0.240616
0.108763
0.108969
0.11046
0.113599
0.118535
0.125619
0.135433
0.148467
0.16494
0.184623
0.203853
0.218834
0.229652
0.237316
0.242647
0.246275
0.248622
0.249901
0.25032
0.250238
0.0829242
0.083244
0.0854576
0.0900602
0.0971231
0.107013
0.120338
0.137465
0.15842
0.182765
0.206072
0.224066
0.237076
0.246365
0.252902
0.257413
0.260357
0.261969
0.262486
0.262377
0.0478706
0.0484578
0.0521568
0.0595078
0.0702078
0.0845088
0.102859
0.125372
0.15183
0.181584
0.209446
0.230771
0.246242
0.257419
0.265428
0.271083
0.274845
0.276912
0.27755
0.2774
-0.00237202
-0.000578599
0.00695123
0.0199163
0.0369479
0.0580261
0.0833055
0.112627
0.145564
0.181346
0.214109
0.238987
0.257121
0.270422
0.280199
0.287328
0.292267
0.295075
0.295924
0.295713
-0.0770324
-0.0676502
-0.0506217
-0.0276029
-0.00108856
0.028984
0.0626875
0.099826
0.139952
0.182332
0.220477
0.249357
0.270624
0.286559
0.298688
0.308044
0.314904
0.319175
0.320699
0.320718
-0.15583
-0.136454
-0.108955
-0.075547
-0.0392787
-0.0001351
0.042044
0.0871613
0.134885
0.184619
0.229199
0.26318
0.28859
0.308093
0.323396
0.335604
0.345291
0.352132
0.354823
0.355013
-0.220653
-0.19759
-0.16209
-0.120254
-0.0754297
-0.0278428
0.0224509
0.0752784
0.130323
0.187023
0.237511
0.275938
0.304783
0.327055
0.344682
0.358811
0.369995
0.377883
0.380615
0.381015
-0.272388
-0.247061
-0.206645
-0.158945
-0.107582
-0.0530949
0.00419006
0.0639238
0.125667
0.188738
0.244452
0.286571
0.317961
0.342022
0.36086
0.375865
0.387641
0.395862
0.399026
0.399498
-0.314569
-0.288222
-0.244421
-0.19224
-0.135758
-0.0757364
-0.012605
0.053157
0.120839
0.189611
0.249885
0.294975
0.328197
0.353348
0.372814
0.388148
0.400063
0.408255
0.411602
0.412057
-0.350465
-0.323576
-0.277326
-0.221522
-0.160808
-0.0961369
-0.02803
0.0429435
0.115921
0.189799
0.25416
0.301892
0.336665
0.362658
0.3825
0.397886
0.409699
0.417793
0.421245
0.421717
-0.382105
-0.354926
-0.306765
-0.24801
-0.183759
-0.11509
-0.0425572
0.0330879
0.110914
0.18959
0.257834
0.308004
0.344143
0.370815
0.390906
0.4063
0.418018
0.425987
0.429457
0.42993
-0.410943
-0.383536
-0.33381
-0.272555
-0.205224
-0.133034
-0.0565823
0.023318
0.105633
0.18884
0.26076
0.31332
0.35085
0.378255
0.398677
0.414156
0.425833
0.433652
0.437122
0.437613
-0.437859
-0.410229
-0.35915
-0.295699
-0.225726
-0.150458
-0.0705
0.0132885
0.0997645
0.187308
0.263009
0.318128
0.357198
0.385464
0.406306
0.421938
0.433614
0.441336
0.444729
0.445261
-0.463515
-0.435583
-0.383315
-0.317901
-0.245604
-0.167596
-0.0844997
0.00282522
0.0932535
0.185097
0.264677
0.322536
0.363346
0.392641
0.414035
0.429923
0.441661
0.449305
0.452598
0.453122
-0.488165
-0.459949
-0.406582
-0.33943
-0.265053
-0.184601
-0.0986822
-0.00809179
0.0860679
0.182102
0.265647
0.326511
0.369339
0.399896
0.42202
0.438279
0.450158
0.457762
0.460924
0.461394
-0.512136
-0.483516
-0.429177
-0.360487
-0.284256
-0.201619
-0.11313
-0.0195604
0.078054
0.178159
0.265826
0.329985
0.375142
0.407243
0.430316
0.447099
0.459203
0.466807
0.469822
0.470193
-0.535465
-0.506445
-0.451199
-0.381137
-0.303263
-0.218677
-0.127912
-0.0316531
0.0691812
0.173229
0.265097
0.33284
0.380696
0.414656
0.438921
0.456404
0.468835
0.476473
0.479352
0.479575
-0.558226
-0.528794
-0.472713
-0.401411
-0.322086
-0.235796
-0.143014
-0.0443391
0.0594512
0.167229
0.263306
0.334906
0.385867
0.422068
0.4478
0.466161
0.479013
0.48669
0.489431
0.489508
-0.580457
-0.550596
-0.493709
-0.42131
-0.340723
-0.25293
-0.158372
-0.0575655
0.0488648
0.160115
0.260321
0.335949
0.390402
0.429305
0.45687
0.476332
0.48971
0.497428
0.499985
0.499911
-0.602172
-0.571828
-0.514173
-0.440798
-0.359102
-0.270015
-0.173928
-0.0712847
0.0374777
0.151876
0.256036
0.335775
0.394035
0.436151
0.466028
0.486858
0.500807
0.508485
0.51077
0.510555
-0.623206
-0.592421
-0.534051
-0.459831
-0.377175
-0.286983
-0.189609
-0.0853986
0.0253629
0.142537
0.250365
0.334171
0.396476
0.442331
0.475173
0.497769
0.512286
0.51972
0.52161
0.521238
-0.64352
-0.612326
-0.553309
-0.478352
-0.394878
-0.30376
-0.205308
-0.099809
0.0126185
0.132159
0.243269
0.330952
0.39737
0.447404
0.48406
0.509222
0.524361
0.530997
0.532148
0.531619
-0.663164
-0.631513
-0.571917
-0.496317
-0.412138
-0.320252
-0.220928
-0.114403
-0.000642198
0.120834
0.234747
0.325999
0.396356
0.450763
0.492146
0.521345
0.537879
0.5428
0.542058
0.541316
-0.681995
-0.649957
-0.589825
-0.51366
-0.428896
-0.336378
-0.236372
-0.129058
-0.0142845
0.108697
0.224854
0.319236
0.393189
0.451705
0.498411
0.533603
0.554154
0.558026
0.552736
0.549034
-0.700094
-0.667673
-0.607041
-0.530411
-0.445184
-0.352186
-0.251694
-0.14384
-0.0283748
0.0956819
0.21347
0.310439
0.387579
0.449424
0.501244
0.544091
0.572473
0.581287
0.571546
0.563935
-0.717402
-0.684723
-0.623705
-0.54675
-0.461285
-0.368002
-0.267297
-0.159236
-0.0434742
0.0811018
0.19987
0.298691
0.378757
0.442618
0.497448
0.547478
0.583061
0.59201
0.58239
0.566815
-0.733814
-0.701094
-0.639666
-0.562477
-0.476984
-0.383538
-0.282962
-0.174914
-0.0592447
0.0652867
0.184302
0.28379
0.366451
0.430976
0.482582
0.532753
0.566693
0.56274
0.501717
0.467043
-0.749238
-0.717461
-0.654475
-0.577101
-0.491699
-0.398349
-0.298445
-0.190621
-0.0754148
0.048451
0.166901
0.265617
0.350059
0.415647
0.455952
0.490057
0.506971
0.468577
0.401286
0.357988
-0.790199
-0.732742
-0.668128
-0.591374
-0.506118
-0.41326
-0.313638
-0.206458
-0.0921477
0.0303647
0.14737
0.244101
0.327323
0.398044
0.413548
0.418586
0.396752
0.340917
0.266543
0.225676
-0.763011
-0.745365
-0.688337
-0.612873
-0.527566
-0.435375
-0.336843
-0.230974
-0.118504
0.00110393
0.114234
0.206715
0.281276
0.34744
0.350082
0.24401
0.147757
0.0837321
0.0139974
0.0538052
-0.791818
-0.761432
-0.703846
-0.628353
-0.543623
-0.452043
-0.353722
-0.248917
-0.138065
-0.021065
0.0881738
0.176344
0.241952
0.275685
0.22597
0.0772583
-0.0461582
-0.12725
-0.220584
-0.156335
-0.813472
-0.780833
-0.721651
-0.645996
-0.56161
-0.470325
-0.372462
-0.268828
-0.159938
-0.0459907
0.0584624
0.140641
0.195464
0.195429
0.0777653
-0.110125
-0.264661
-0.370796
-0.484967
-0.434938
-0.834022
-0.800492
-0.740191
-0.66412
-0.579794
-0.488816
-0.391731
-0.289419
-0.18268
-0.0720357
0.0269523
0.102041
0.141946
0.10009
-0.0844796
-0.307064
-0.509114
-0.680021
-0.829237
-0.782413
-0.853851
-0.820183
-0.759292
-0.682882
-0.598567
-0.50798
-0.411769
-0.310932
-0.206499
-0.0995275
-0.00657823
0.0606346
0.0808345
-0.00505589
-0.247895
-0.503632
-0.751455
-0.964061
-1.23281
-1.32557
-0.873638
-0.840294
-0.779196
-0.7026
-0.618301
-0.528081
-0.432681
-0.333351
-0.231216
-0.12821
-0.0414875
0.0169892
0.016427
-0.129956
-0.399383
-0.679683
-0.9477
-1.17211
-1.35351
-1.57235
-0.894148
-0.861168
-0.800142
-0.723552
-0.639397
-0.549625
-0.455154
-0.357447
-0.257924
-0.15942
-0.0794494
-0.0310933
-0.0613216
-0.266325
-0.541531
-0.826005
-1.07486
-1.22374
-1.26518
-1.2854
-0.915602
-0.882992
-0.822164
-0.745741
-0.66189
-0.572701
-0.479403
-0.383514
-0.287178
-0.193652
-0.121116
-0.084601
-0.149556
-0.397532
-0.675847
-0.937975
-1.13937
-1.20708
-1.22388
-1.22502
-0.938228
-0.905822
-0.845218
-0.769058
-0.685629
-0.59721
-0.505283
-0.411495
-0.318931
-0.230657
-0.16621
-0.145617
-0.241795
-0.522274
-0.79965
-1.03781
-1.18023
-1.20031
-1.20219
-1.20172
-0.961794
-0.929613
-0.869228
-0.793384
-0.7105
-0.623007
-0.532596
-0.441317
-0.352779
-0.270295
-0.214135
-0.210894
-0.34073
-0.636227
-0.914121
-1.12421
-1.18835
-1.19501
-1.19305
-1.19164
-0.986069
-0.954082
-0.893993
-0.818522
-0.736284
-0.649861
-0.561136
-0.472663
-0.388316
-0.31254
-0.264313
-0.281067
-0.449839
-0.735046
-1.01813
-1.20044
-1.2048
-1.19619
-1.19014
-1.18704
-1.01033
-0.978806
-0.919164
-0.844147
-0.762624
-0.677434
-0.59056
-0.504909
-0.425332
-0.356864
-0.315651
-0.359405
-0.559381
-0.815392
-1.07978
-1.26489
-1.24833
-1.20462
-1.18423
-1.17912
-1.03401
-1.00324
-0.944226
-0.869771
-0.789017
-0.705207
-0.620281
-0.537478
-0.46296
-0.402623
-0.366838
-0.44572
-0.681387
-0.87287
-1.04049
-1.1777
-1.25038
-1.24214
-1.2271
-1.22098
-1.05677
-1.02671
-0.968509
-0.894689
-0.81486
-0.732399
-0.649523
-0.569905
-0.499335
-0.448856
-0.416598
-0.527194
-0.839723
-0.990067
-0.895096
-0.989941
-1.30693
-1.56204
-1.57213
-1.53514
-1.07724
-1.04827
-0.991171
-0.918074
-0.839297
-0.758056
-0.677412
-0.600893
-0.532904
-0.492195
-0.467371
-0.594843
-1.04749
-1.33551
-1.15385
-1.18253
-1.58645
-1.85466
-1.83816
-1.82703
-1.09422
-1.0668
-1.0111
-0.938962
-0.86108
-0.781314
-0.702621
-0.628298
-0.563777
-0.526736
-0.51816
-0.652319
-1.27141
-2.02795
-2.50151
-2.75879
-2.75996
-2.3769
-2.05982
-2.04011
-1.10653
-1.08102
-1.02711
-0.95605
-0.879038
-0.80081
-0.723496
-0.651039
-0.589496
-0.550062
-0.56497
-0.716393
-1.42159
-2.55242
-3.5988
-3.96945
-3.898
-3.50528
-3.01598
-2.80607
-1.11264
-1.08949
-1.03789
-0.967798
-0.891899
-0.814855
-0.738947
-0.667697
-0.605559
-0.563215
-0.577574
-0.738982
-1.34027
-2.26713
-3.26697
-3.53317
-3.49325
-3.31017
-3.05313
-2.88021
-1.11185
-1.09134
-1.04187
-0.972842
-0.897865
-0.822151
-0.747984
-0.677627
-0.612419
-0.556658
-0.573551
-0.5792
-0.96064
-1.30615
-1.73891
-2.02796
-1.93914
-1.70305
-1.4693
-1.33918
-1.10069
-1.08301
-1.0366
-0.969131
-0.895373
-0.821736
-0.749787
-0.68023
-0.610186
-0.537517
-0.482471
-0.416312
-0.330699
-0.274065
-0.0416811
0.267352
0.60423
0.897198
1.10737
1.19577
-1.07779
-1.06301
-1.01997
-0.954563
-0.883001
-0.812343
-0.74395
-0.676299
-0.604182
-0.508133
-0.395535
-0.27316
0.0399732
0.577382
1.20309
1.82289
2.31906
2.63447
2.79699
2.84798
-1.04092
-1.02891
-0.989377
-0.927199
-0.859677
-0.794016
-0.73198
-0.672939
-0.605369
-0.490581
-0.349293
-0.143747
0.143463
0.662402
1.32238
1.94141
2.39813
2.66334
2.78773
2.82083
-0.986391
-0.976902
-0.942334
-0.886543
-0.825564
-0.768077
-0.717447
-0.675498
-0.627829
-0.520906
-0.365413
-0.155181
0.131095
0.492231
0.986023
1.45301
1.78739
1.99758
2.09908
2.13142
-0.914498
-0.906798
-0.879607
-0.833301
-0.782644
-0.737037
-0.702613
-0.686937
-0.692872
-0.686178
-0.636106
-0.410055
-0.0562894
0.196763
0.578579
0.913338
1.18074
1.34831
1.4373
1.46449
-0.832288
-0.826352
-0.806099
-0.771772
-0.734249
-0.703352
-0.689734
-0.714945
-0.824548
-1.08732
-1.33161
-1.09024
-0.553936
-0.224814
0.112672
0.398358
0.616403
0.749101
0.810114
0.820537
-0.736214
-0.733459
-0.721656
-0.700638
-0.678014
-0.662863
-0.66939
-0.732109
-0.947856
-1.48482
-2.09623
-1.81273
-1.10461
-0.672578
-0.288686
0.0202782
0.234446
0.354478
0.410937
0.425154
-0.638037
-0.637412
-0.63094
-0.619307
-0.607937
-0.604244
-0.622469
-0.700979
-0.952412
-1.59774
-2.27694
-1.97249
-1.31853
-0.844524
-0.454464
-0.173668
-0.00990953
0.0671122
0.097971
0.10201
-0.535972
-0.536057
-0.532282
-0.525365
-0.519794
-0.520569
-0.539075
-0.605656
-0.80868
-1.31965
-1.82756
-1.64354
-1.16756
-0.738663
-0.423808
-0.236767
-0.152821
-0.117793
-0.104012
-0.101497
-0.427738
-0.428216
-0.425718
-0.421117
-0.417171
-0.416908
-0.426984
-0.464703
-0.577963
-0.855809
-1.10009
-0.951119
-0.665009
-0.406002
-0.251697
-0.188731
-0.168994
-0.163877
-0.161959
-0.16118
-0.318066
-0.318627
-0.317375
-0.314427
-0.311043
-0.308289
-0.308637
-0.318686
-0.354975
-0.441726
-0.49079
-0.408149
-0.245763
-0.151009
-0.109837
-0.109045
-0.117107
-0.124506
-0.127687
-0.128303
-0.217024
-0.217604
-0.217588
-0.216335
-0.213712
-0.20943
-0.203545
-0.196854
-0.19111
-0.183467
-0.143179
-0.0959273
-0.0367572
-0.022367
-0.02668
-0.040257
-0.0532507
-0.062088
-0.0661379
-0.0672809
-0.132659
-0.133198
-0.134059
-0.134217
-0.132774
-0.128668
-0.120801
-0.107805
-0.0875919
-0.0556521
-0.0104342
0.0187524
0.0384788
0.0357247
0.0232683
0.00975353
-0.00135798
-0.0086014
-0.0120981
-0.0132575
-0.0684696
-0.0689361
-0.070173
-0.0711304
-0.0705919
-0.0674486
-0.0603347
-0.0474706
-0.0264849
0.00500075
0.040089
0.0595949
0.0650253
0.0600558
0.0501432
0.0400992
0.0319315
0.0266507
0.0240258
0.0230662
-0.0229639
-0.0233301
-0.0246029
-0.0259448
-0.0260749
-0.0239572
-0.0184381
-0.00797432
0.00915432
0.0338045
0.0584117
0.0712258
0.0732779
0.0692465
0.0624094
0.0553807
0.04959
0.045791
0.0438899
0.0431703
0.00731685
0.00704224
0.00591381
0.00449628
0.00388824
0.00504147
0.00891355
0.0166017
0.029186
0.0468147
0.0635093
0.0720316
0.0732102
0.0703135
0.0657187
0.0608997
0.0567653
0.0539853
0.0526168
0.0521007
0.0261924
0.025993
0.0250796
0.0237923
0.0229912
0.0233901
0.0257561
0.0309841
0.0397724
0.051908
0.0630116
0.068552
0.0693227
0.0674226
0.0642934
0.060883
0.0578624
0.0557787
0.054782
0.0544195
0.0370561
0.0369079
0.0362188
0.0351457
0.0343443
0.0343561
0.0356972
0.0389525
0.0446766
0.0527294
0.0600962
0.0637958
0.0642961
0.0628912
0.0606217
0.0581334
0.055863
0.0542654
0.0535277
0.0532735
0.042619
0.0424991
0.0419781
0.0410981
0.0403499
0.0401116
0.0408047
0.0428387
0.0465196
0.0517148
0.0564244
0.0586757
0.0588224
0.0577347
0.0560502
0.0541812
0.0524495
0.0512212
0.0506727
0.0504933
0.0447554
0.0446524
0.0442335
0.0434888
0.0427873
0.0423878
0.0425736
0.0436515
0.045868
0.0491198
0.0520629
0.0534191
0.0533928
0.0525109
0.0512111
0.049791
0.0484718
0.0475379
0.0471334
0.047005
0.0446142
0.0445249
0.044175
0.0435386
0.0428944
0.0424327
0.0423526
0.0428487
0.0440782
0.0460038
0.0477578
0.0484636
0.0482517
0.0474851
0.0464553
0.0453536
0.0443379
0.0436263
0.0433262
0.0432329
0.042923
0.0428467
0.042548
0.0419956
0.0414036
0.0409095
0.0406518
0.0407712
0.0413742
0.0424201
0.0433552
0.04363
0.0433254
0.0426654
0.0418408
0.0409829
0.0402028
0.0396621
0.0394378
0.0393689
0.0401676
0.0401047
0.0398548
0.0393825
0.0388537
0.03837
0.0380248
0.0379093
0.0380997
0.0385805
0.039003
0.0390089
0.0386483
0.03807
0.0374001
0.0367251
0.0361213
0.0357067
0.0355368
0.0354854
0.0366923
0.036642
0.0364395
0.0360449
0.0355869
0.0351401
0.0347684
0.0345335
0.0344842
0.0346085
0.0346967
0.0345336
0.0341549
0.0336521
0.0331047
0.0325697
0.0320984
0.0317779
0.0316485
0.0316102
0.0327416
0.0327016
0.0325415
0.0322213
0.0318365
0.0314425
0.0310807
0.0307916
0.0306085
0.0305258
0.0304229
0.0301744
0.0298057
0.0293718
0.0289238
0.0284977
0.0281281
0.0278798
0.0277814
0.0277528
0.0284931
0.0284613
0.0283373
0.0280848
0.0277723
0.0274399
0.0271133
0.0268189
0.0265781
0.0263879
0.0261852
0.0259039
0.0255626
0.0251936
0.0248289
0.0244902
0.0242009
0.0240093
0.0239345
0.0239131
0.0240726
0.0240474
0.0239522
0.0237573
0.0235104
0.0232394
0.0229596
0.0226878
0.0224378
0.0222081
0.0219698
0.0216935
0.021393
0.0210863
0.0207938
0.0205277
0.0203037
0.0201571
0.0201002
0.0200841
0.0195603
0.0195408
0.0194687
0.0193209
0.0191305
0.0189167
0.0186884
0.0184559
0.0182278
0.0180028
0.0177714
0.0175252
0.0172739
0.0170276
0.0167983
0.0165934
0.0164227
0.0163118
0.016269
0.016257
0.0149995
0.0149849
0.0149314
0.0148218
0.0146793
0.0145175
0.0143417
0.0141578
0.0139708
0.0137798
0.0135839
0.0133842
0.013188
0.0130005
0.0128283
0.0126753
0.0125487
0.0124665
0.012435
0.0124262
0.0104095
0.010399
0.0103612
0.0102837
0.0101836
0.0100707
0.00994817
0.00981854
0.00968475
0.00954605
0.00940364
0.00926147
0.00912452
0.00899493
0.00887599
0.00876965
0.00868061
0.00862249
0.00860017
0.00859382
0.0057981
0.00579123
0.00576777
0.0057203
0.0056615
0.00559781
0.00552965
0.00545771
0.0053829
0.00530576
0.00522626
0.00514718
0.00507147
0.00499987
0.00493359
0.00487285
0.00481967
0.00478387
0.00476994
0.00476539
0.0011742
0.00117515
0.00118023
0.00117624
0.00116363
0.0011484
0.00113169
0.00111381
0.00109455
0.00107305
0.00105091
0.00102948
0.00100953
0.000990962
0.000973963
0.000958229
0.000944118
0.000934729
0.000935973
0.000939523
-0.61934
-0.380159
-0.154217
0.0300198
0.182095
0.306679
0.413942
0.502294
0.531088
0.527116
-0.24224
-0.0871088
0.0568072
0.18246
0.29014
0.38101
0.454029
0.504797
0.532412
0.548311
0.01166
0.112049
0.211944
0.300668
0.377291
0.441406
0.492173
0.530371
0.557585
0.576737
0.189898
0.260528
0.332229
0.396674
0.452541
0.499863
0.538997
0.570845
0.594541
0.613615
0.328174
0.379869
0.432784
0.481393
0.524299
0.561762
0.594006
0.620898
0.640891
0.659212
0.441735
0.482377
0.523075
0.561968
0.597391
0.629117
0.656844
0.67987
0.69705
0.714726
0.538858
0.574474
0.609876
0.64406
0.675787
0.704457
0.72944
0.74978
0.76466
0.78187
0.631064
0.665697
0.70035
0.733529
0.764036
0.791293
0.814607
0.833056
0.846124
0.862827
0.728808
0.766525
0.802714
0.836461
0.866726
0.892979
0.914882
0.931799
0.943818
0.960089
0.844098
0.885712
0.923512
0.957105
0.986231
1.01081
1.03093
1.04661
1.05878
1.07494
0.987076
1.0284
1.06414
1.09412
1.11974
1.14173
1.16057
1.17631
1.18959
1.2056
1.15926
1.19147
1.21881
1.2415
1.26186
1.28084
1.29876
1.31568
1.33071
1.34648
1.34584
1.36318
1.3805
1.3974
1.41367
1.42853
1.44256
1.45713
1.47244
1.4898
1.52958
1.53955
1.55281
1.56386
1.57333
1.5831
1.59382
1.6041
1.61345
1.63915
1.74763
1.74196
1.72902
1.71477
1.70854
1.71435
1.73253
1.76109
1.7949
1.83125
2.05039
1.91444
1.83504
1.79269
1.77542
1.77938
1.80687
1.86474
1.9724
2.15082
0.335146
0.328852
0.321144
0.310059
0.296521
0.283909
0.273559
0.265571
0.259847
0.256466
0.255942
0.258464
0.263408
0.270521
0.279864
0.291534
0.304983
0.317826
0.326751
0.334259
0.244164
0.250095
0.258206
0.264398
0.267538
0.267108
0.264086
0.26014
0.256548
0.254179
0.253842
0.25581
0.25927
0.26344
0.267308
0.269351
0.268107
0.263338
0.256187
0.248303
0.237284
0.239662
0.243005
0.245884
0.24847
0.250809
0.252147
0.2521
0.251143
0.250129
0.250094
0.251299
0.252826
0.253721
0.253302
0.251531
0.249116
0.246552
0.243416
0.240335
0.232401
0.233486
0.235503
0.238014
0.240055
0.24159
0.242894
0.243891
0.244447
0.244707
0.244997
0.245415
0.245529
0.245121
0.244206
0.242985
0.241365
0.239111
0.236788
0.235244
0.227324
0.227933
0.229174
0.231139
0.233187
0.234916
0.236214
0.23735
0.2384
0.239294
0.239828
0.239825
0.239437
0.23878
0.237907
0.236632
0.234858
0.232906
0.231311
0.230456
0.222599
0.222995
0.223953
0.225649
0.22761
0.229612
0.231485
0.232959
0.23404
0.234862
0.235454
0.235672
0.235447
0.234703
0.233384
0.231681
0.229879
0.228138
0.226838
0.226246
0.218266
0.218498
0.219283
0.220843
0.222628
0.224394
0.22619
0.227962
0.229533
0.230729
0.231478
0.231636
0.231119
0.230083
0.228748
0.2273
0.225754
0.224173
0.223033
0.222629
0.215017
0.215113
0.215691
0.217023
0.218581
0.220104
0.221525
0.222904
0.22428
0.225576
0.226502
0.22677
0.226535
0.225964
0.225151
0.22407
0.222795
0.221475
0.220572
0.220346
0.213048
0.213093
0.21344
0.214332
0.215524
0.216815
0.218279
0.219779
0.221234
0.222581
0.223652
0.22418
0.224136
0.223639
0.22286
0.222034
0.221148
0.220301
0.219791
0.21967
0.211067
0.211108
0.211308
0.211766
0.212458
0.21332
0.214312
0.215515
0.216915
0.218403
0.219722
0.220523
0.220801
0.220805
0.220609
0.220231
0.219913
0.219614
0.219423
0.219348
0.208186
0.208216
0.208368
0.208693
0.209158
0.209926
0.210897
0.212149
0.213608
0.215236
0.216832
0.217991
0.218606
0.218804
0.218846
0.218853
0.218782
0.218714
0.218632
0.218581
0.204537
0.204549
0.204686
0.205035
0.205566
0.206211
0.207187
0.208471
0.210088
0.211989
0.213956
0.215506
0.216474
0.217053
0.217367
0.217546
0.217638
0.217618
0.217578
0.217557
0.200423
0.200419
0.200538
0.20092
0.201546
0.20229
0.203306
0.204746
0.206559
0.208777
0.211211
0.21327
0.214688
0.215614
0.216247
0.216576
0.216724
0.216743
0.21675
0.216752
0.19597
0.195964
0.196065
0.196444
0.197089
0.198016
0.199302
0.200879
0.203001
0.205683
0.208712
0.211365
0.213269
0.214566
0.215406
0.215968
0.216238
0.216361
0.216432
0.216449
0.191099
0.191086
0.191211
0.191602
0.192298
0.193308
0.194715
0.196638
0.1992
0.202486
0.20627
0.209673
0.212197
0.213942
0.215106
0.215861
0.216314
0.216571
0.216705
0.21673
0.185538
0.185524
0.185674
0.186105
0.186862
0.188015
0.189684
0.192015
0.195163
0.199241
0.203987
0.208299
0.211418
0.213733
0.215302
0.216337
0.216999
0.217399
0.217594
0.217625
0.17903
0.179014
0.179198
0.179717
0.180602
0.181983
0.184011
0.186878
0.190787
0.195883
0.201834
0.207245
0.211296
0.214167
0.216163
0.217507
0.21839
0.218933
0.219189
0.21923
0.171297
0.171275
0.171505
0.172137
0.173259
0.174986
0.1775
0.181089
0.185997
0.19239
0.19985
0.206636
0.211703
0.215315
0.217815
0.219512
0.220638
0.221331
0.221654
0.221708
0.162004
0.161974
0.162278
0.163102
0.164524
0.166714
0.169926
0.174482
0.18068
0.188723
0.198069
0.206531
0.212818
0.217306
0.220422
0.222537
0.223945
0.224819
0.225224
0.225288
0.150702
0.150666
0.151076
0.152162
0.15401
0.156842
0.16099
0.166821
0.174698
0.184849
0.196535
0.207034
0.214797
0.220336
0.224186
0.226804
0.228549
0.229634
0.230136
0.230214
0.136747
0.136709
0.137283
0.138738
0.141178
0.144904
0.150313
0.157857
0.167952
0.180775
0.195337
0.208285
0.217811
0.224605
0.229338
0.232566
0.234723
0.236069
0.236693
0.236785
0.119182
0.11915
0.119974
0.121971
0.125284
0.130299
0.137501
0.147402
0.160389
0.176563
0.194605
0.210452
0.222053
0.230334
0.236125
0.240097
0.242763
0.24443
0.245207
0.245318
0.0965112
0.096504
0.0977468
0.100612
0.105295
0.112267
0.122082
0.135223
0.151992
0.17233
0.194505
0.213708
0.227709
0.237737
0.2448
0.249688
0.252996
0.255074
0.256039
0.256175
0.0664005
0.0664899
0.0685048
0.0728482
0.0798058
0.0898871
0.10358
0.121215
0.142881
0.16827
0.195222
0.218209
0.234921
0.246969
0.255561
0.261598
0.265744
0.268368
0.269576
0.269739
0.024541
0.0249204
0.0286207
0.036067
0.0472408
0.0624913
0.0819563
0.105662
0.133415
0.164697
0.196969
0.224076
0.243752
0.258068
0.268465
0.27595
0.281233
0.284633
0.286171
0.28636
-0.0369878
-0.0351598
-0.0264364
-0.0121995
0.00686859
0.0303477
0.0578726
0.0892493
0.124159
0.161998
0.199945
0.231351
0.254128
0.270873
0.283294
0.292537
0.299288
0.30377
0.305849
0.306114
-0.111374
-0.107703
-0.0909649
-0.0659941
-0.0364314
-0.00343878
0.0328449
0.0724238
0.115042
0.160183
0.204828
0.241731
0.268802
0.289149
0.304707
0.316759
0.326188
0.332418
0.335008
0.335802
-0.186802
-0.177614
-0.15271
-0.117818
-0.0785196
-0.0363585
0.00860578
0.0563458
0.106656
0.159118
0.210532
0.252974
0.284302
0.308143
0.326756
0.341511
0.353218
0.361318
0.365622
0.367072
-0.245028
-0.234671
-0.204872
-0.163255
-0.116587
-0.0667589
-0.0141117
0.0411198
0.0986386
0.157963
0.215586
0.26287
0.297669
0.324121
0.344717
0.361031
0.373895
0.383118
0.388222
0.389865
-0.292183
-0.281178
-0.248067
-0.201703
-0.149573
-0.0937741
-0.0348456
0.0268206
0.0907705
0.1563
0.219477
0.270885
0.308343
0.336508
0.358194
0.375177
0.388525
0.398226
0.40362
0.405305
-0.331221
-0.320145
-0.28497
-0.234952
-0.178422
-0.117759
-0.0536064
0.0135686
0.0831077
0.154177
0.222274
0.277194
0.3168
0.346224
0.368611
0.385938
0.399375
0.409075
0.414415
0.416106
-0.365136
-0.354077
-0.317371
-0.264434
-0.204284
-0.139536
-0.0709006
0.00110095
0.0756374
0.151713
0.224375
0.28259
0.324134
0.354619
0.377494
0.394953
0.408344
0.418002
0.423324
0.424948
-0.395477
-0.384485
-0.346618
-0.291311
-0.228127
-0.159859
-0.0872321
-0.0109192
0.068211
0.14897
0.22596
0.287255
0.330603
0.362064
0.385396
0.403012
0.416404
0.426036
0.431362
0.432848
-0.423433
-0.412474
-0.3737
-0.316358
-0.250511
-0.179181
-0.103055
-0.0228507
0.0605013
0.145655
0.22677
0.291195
0.336462
0.369017
0.392911
0.410761
0.424207
0.433808
0.43911
0.4405
-0.449815
-0.438848
-0.399235
-0.340088
-0.271944
-0.19794
-0.118702
-0.0349807
0.0522422
0.141609
0.226926
0.294635
0.341993
0.375791
0.400368
0.418547
0.432108
0.441702
0.446983
0.448281
-0.475028
-0.464051
-0.423665
-0.362889
-0.292724
-0.216321
-0.134303
-0.0474071
0.0434333
0.136866
0.226385
0.297537
0.347227
0.382495
0.40794
0.426586
0.44036
0.449989
0.455219
0.456459
-0.499408
-0.488355
-0.447254
-0.385024
-0.313057
-0.234518
-0.150004
-0.0601925
0.0340083
0.131282
0.224988
0.299838
0.352172
0.389197
0.415723
0.434995
0.449087
0.458803
0.463948
0.465151
-0.52315
-0.511932
-0.47014
-0.406634
-0.333062
-0.252628
-0.165868
-0.0734383
0.0238256
0.12476
0.222661
0.301427
0.356743
0.395864
0.423729
0.443801
0.458328
0.468203
0.473265
0.474423
-0.546281
-0.534879
-0.492447
-0.427777
-0.352773
-0.270657
-0.181927
-0.0871626
0.0129013
0.117273
0.219288
0.302141
0.360763
0.402354
0.431896
0.453006
0.468107
0.478201
0.483192
0.484235
-0.568895
-0.55726
-0.514212
-0.44847
-0.372209
-0.288623
-0.198153
-0.101313
0.0012701
0.108797
0.214774
0.301821
0.364076
0.408535
0.440134
0.462547
0.478381
0.488744
0.493648
0.494546
-0.590912
-0.579068
-0.535418
-0.468706
-0.391337
-0.306462
-0.214473
-0.115834
-0.0110456
0.0993275
0.209044
0.300289
0.366465
0.414254
0.448351
0.472379
0.48909
0.499739
0.504527
0.505228
-0.612354
-0.60027
-0.556018
-0.48844
-0.410105
-0.324118
-0.230833
-0.130652
-0.0239605
0.0889159
0.202053
0.297381
0.367621
0.419186
0.456354
0.482451
0.500189
0.511028
0.515543
0.516019
-0.633041
-0.6208
-0.575967
-0.507626
-0.428454
-0.341514
-0.247153
-0.145674
-0.0373835
0.077636
0.193805
0.292975
0.367276
0.422925
0.463846
0.492742
0.511801
0.522592
0.526517
0.526675
-0.653085
-0.640621
-0.595228
-0.52623
-0.446341
-0.358594
-0.263325
-0.160802
-0.0512072
0.065591
0.184329
0.286995
0.365212
0.425039
0.470351
0.50315
0.524339
0.534737
0.537222
0.536799
-0.672343
-0.659664
-0.61379
-0.544198
-0.463679
-0.375269
-0.279264
-0.175911
-0.0653054
0.0528809
0.173714
0.279394
0.361224
0.425052
0.475085
0.51313
0.538375
0.549018
0.548399
0.546001
-0.690876
-0.677997
-0.631599
-0.561477
-0.480431
-0.391473
-0.294885
-0.190913
-0.0795544
0.0396627
0.162091
0.270178
0.355222
0.422523
0.47699
0.521281
0.553345
0.568017
0.565395
0.553159
-0.708591
-0.695587
-0.648747
-0.57823
-0.496805
-0.40749
-0.310526
-0.206221
-0.0944294
0.0253893
0.148855
0.258647
0.346527
0.416717
0.474447
0.525019
0.566079