0.490941 	0.004371 	3.00033 	-3.07111e-20
0.561075 	0.004371 	3.00033 	-3.07111e-20
0.63121 	0.004371 	3.00033 	-3.07111e-20
0.701344 	0.004371 	3.00033 	-3.07111e-20
0.771478 	0.004371 	3.00033 	-3.07111e-20
0.841613 	0.004371 	3.00033 	-3.07111e-20
0.911747 	0.0144633 	3.00801 	-7.08114e-20
0.981881 	0.0144633 	3.00801 	-7.08114e-20
1.05202 	0.0144633 	3.00801 	-7.08114e-20
1.12215 	0.0144633 	3.00801 	-7.08114e-20
1.19228 	0.0144633 	3.00801 	-7.08114e-20
1.26242 	0.0144633 	3.00801 	-7.08114e-20
1.33255 	0.0193286 	3.0233 	7.07628e-20
1.40269 	0.0193286 	3.0233 	7.07628e-20
1.47282 	0.0193286 	3.0233 	7.07628e-20
1.54296 	0.0193286 	3.0233 	7.07628e-20
1.61309 	0.0193286 	3.0233 	7.07628e-20
1.68323 	0.0193286 	3.0233 	7.07628e-20
1.75336 	0.024687 	3.04251 	3.39313e-20
1.82349 	0.024687 	3.04251 	3.39313e-20
1.89363 	0.024687 	3.04251 	3.39313e-20
1.96376 	0.024687 	3.04251 	3.39313e-20
2.0339 	0.024687 	3.04251 	3.39313e-20
2.10403 	0.024687 	3.04251 	3.39313e-20
2.17417 	0.0242404 	3.06667 	0
2.2443 	0.0242404 	3.06667 	0
2.31443 	0.0242404 	3.06667 	0
2.38457 	0.0242404 	3.06667 	0
2.4547 	0.0242404 	3.06667 	0
2.52484 	0.0242404 	3.06667 	0
2.59497 	0.0255907 	3.09073 	-1.54867e-19
2.66511 	0.0255907 	3.09073 	-1.54867e-19
2.73524 	0.0255907 	3.09073 	-1.54867e-19
2.80538 	0.0255907 	3.09073 	-1.54867e-19
2.87551 	0.0255907 	3.09073 	-1.54867e-19
2.94564 	0.0255907 	3.09073 	-1.54867e-19
3.01578 	0.0233255 	3.11626 	1.23291e-19
3.08591 	0.0233255 	3.11626 	1.23291e-19
3.15605 	0.0233255 	3.11626 	1.23291e-19
3.22618 	0.0233255 	3.11626 	1.23291e-19
3.29632 	0.0233255 	3.11626 	1.23291e-19
3.36645 	0.0233255 	3.11626 	1.23291e-19
3.43659 	0.0248908 	3.13926 	-2.26565e-19
3.50672 	0.0248908 	3.13926 	-2.26565e-19
3.57685 	0.0248908 	3.13926 	-2.26565e-19
3.64699 	0.0248908 	3.13926 	-2.26565e-19
3.71712 	0.0248908 	3.13926 	-2.26565e-19
3.78726 	0.0140653 	3.13809 	-2.51582e-19
3.85739 	0.0119247 	3.16278 	4.63784e-19
3.92753 	0.0119247 	3.16278 	4.63784e-19
3.99766 	0.0119247 	3.16278 	4.63784e-19
4.06779 	0.0119247 	3.16278 	4.63784e-19
4.13793 	0.0119247 	3.16278 	4.63784e-19
4.20806 	0.0119247 	3.16278 	4.63784e-19
4.2782 	0.0142328 	3.18383 	-2.65722e-19
4.34833 	0.0142328 	3.18383 	-2.65722e-19
4.41847 	0.0142328 	3.18383 	-2.65722e-19
4.4886 	0.0142328 	3.18383 	-2.65722e-19
4.55874 	0.0142328 	3.18383 	-2.65722e-19
4.62887 	0.0142328 	3.18383 	-2.65722e-19
4.699 	0.0142328 	3.18383 	-2.65722e-19
4.76914 	0.0118567 	3.20713 	-1.95217e-19
4.83927 	0.0118567 	3.20713 	-1.95217e-19
4.90941 	0.0118567 	3.20713 	-1.95217e-19
4.97954 	0.0118567 	3.20713 	-1.95217e-19
5.04968 	0.0118567 	3.20713 	-1.95217e-19
5.11981 	0.0118567 	3.20713 	-1.95217e-19
5.18994 	0.013919 	3.22666 	1.71392e-19
5.26008 	0.013919 	3.22666 	1.71392e-19
5.33021 	0.013919 	3.22666 	1.71392e-19
5.40035 	0.013919 	3.22666 	1.71392e-19
5.47048 	0.013919 	3.22666 	1.71392e-19
5.54062 	0.013919 	3.22666 	1.71392e-19
5.61075 	0.0112315 	3.24848 	-3.33264e-19
5.68089 	0.0112315 	3.24848 	-3.33264e-19
5.75102 	0.0112315 	3.24848 	-3.33264e-19
5.82115 	0.0112315 	3.24848 	-3.33264e-19
5.89129 	0.0112315 	3.24848 	-3.33264e-19
5.96142 	0.0112315 	3.24848 	-3.33264e-19
6.03156 	0.0134662 	3.26584 	3.55714e-19
6.10169 	0.0134662 	3.26584 	3.55714e-19
6.17183 	0.0134662 	3.26584 	3.55714e-19
6.24196 	0.0134662 	3.26584 	3.55714e-19
6.3121 	0.0134662 	3.26584 	3.55714e-19
6.38223 	0.0134662 	3.26584 	3.55714e-19
6.45236 	0.0109654 	3.28537 	2.06806e-20
6.5225 	0.0109654 	3.28537 	2.06806e-20
6.59263 	0.0109654 	3.28537 	2.06806e-20
6.66277 	0.0109654 	3.28537 	2.06806e-20
6.7329 	0.0109654 	3.28537 	2.06806e-20
6.80304 	0.0109654 	3.28537 	2.06806e-20
6.87317 	0.0137678 	3.29991 	-1.9787e-20
6.9433 	0.0137678 	3.29991 	-1.9787e-20
7.01344 	0.0137678 	3.29991 	-1.9787e-20
7.08357 	0.0137678 	3.29991 	-1.9787e-20
7.15371 	0.0137678 	3.29991 	-1.9787e-20
7.22384 	0.0137678 	3.29991 	-1.9787e-20
7.29398 	0.0116125 	3.31692 	0
7.36411 	0.0116125 	3.31692 	0
7.43425 	0.0116125 	3.31692 	0
7.50438 	0.0116125 	3.31692 	0
7.57451 	0.0116125 	3.31692 	0
7.64465 	0.0116125 	3.31692 	0
7.71478 	0.0116125 	3.31692 	0
7.78492 	0.0150272 	3.32872 	0
7.85505 	0.0150272 	3.32872 	0
7.92519 	0.0150272 	3.32872 	0
7.99532 	0.0150272 	3.32872 	0
8.06545 	0.0150272 	3.32872 	0
8.13559 	0.0150272 	3.32872 	0
8.20572 	0.0132049 	3.3436 	0
8.27586 	0.0132049 	3.3436 	0
8.34599 	0.0132049 	3.3436 	0
8.41613 	0.0132049 	3.3436 	0
8.48626 	0.0132049 	3.3436 	0
8.5564 	0.0132049 	3.3436 	0
8.62653 	0.017365 	3.35316 	2.14848e-22
8.69666 	0.017365 	3.35316 	2.14848e-22
8.7668 	0.017365 	3.35316 	2.14848e-22
8.83693 	0.017365 	3.35316 	2.14848e-22
8.90707 	0.017365 	3.35316 	2.14848e-22
8.9772 	0.017365 	3.35316 	2.14848e-22
9.04734 	0.0160472 	3.36651 	-2.40879e-19
9.11747 	0.0160472 	3.36651 	-2.40879e-19
9.18761 	0.0160472 	3.36651 	-2.40879e-19
9.25774 	0.0120057 	3.36907 	-2.54228e-20
9.32787 	0.0120057 	3.36907 	-2.54228e-20
9.39801 	0.0120057 	3.36907 	-2.54228e-20
9.46814 	0.0120057 	3.36907 	-2.54228e-20
9.53828 	0.0182441 	3.37779 	-2.49542e-19
9.60841 	0.0182441 	3.37779 	-2.49542e-19
9.67855 	0.0182441 	3.37779 	-2.49542e-19
9.74868 	0.0182441 	3.37779 	-2.49542e-19
9.81881 	0.0182441 	3.37779 	-2.49542e-19
9.88895 	0.0182441 	3.37779 	-2.49542e-19
9.95908 	0.0179024 	3.38983 	-1.48889e-20
10.0292 	0.0179024 	3.38983 	-1.48889e-20
10.0994 	0.0179024 	3.38983 	-1.48889e-20
10.1695 	0.0179024 	3.38983 	-1.48889e-20
10.2396 	0.0179024 	3.38983 	-1.48889e-20
10.3098 	0.0179024 	3.38983 	-1.48889e-20
10.3799 	0.0259957 	3.39746 	2.23428e-19
10.45 	0.0259957 	3.39746 	2.23428e-19
10.5202 	0.0259957 	3.39746 	2.23428e-19
10.5903 	0.0259957 	3.39746 	2.23428e-19
10.6604 	0.0259957 	3.39746 	2.23428e-19
10.7306 	0.0259957 	3.39746 	2.23428e-19
10.8007 	0.0273606 	3.40907 	-2.37251e-19
10.8708 	0.0273606 	3.40907 	-2.37251e-19
10.941 	0.0273606 	3.40907 	-2.37251e-19
11.0111 	0.0273606 	3.40907 	-2.37251e-19
11.0812 	0.0273606 	3.40907 	-2.37251e-19
11.1514 	0.0273606 	3.40907 	-2.37251e-19
11.2215 	0.0273606 	3.40907 	-2.37251e-19
11.2916 	0.0384661 	3.41597 	-4.13755e-19
11.3618 	0.0384661 	3.41597 	-4.13755e-19
11.4319 	0.0384661 	3.41597 	-4.13755e-19
11.502 	0.0384661 	3.41597 	-4.13755e-19
11.5722 	0.0384661 	3.41597 	-4.13755e-19
11.6423 	0.0384661 	3.41597 	-4.13755e-19
11.7124 	0.0427781 	3.42766 	4.00425e-19
11.7826 	0.0427781 	3.42766 	4.00425e-19
11.8527 	0.0427781 	3.42766 	4.00425e-19
11.9228 	0.0427781 	3.42766 	4.00425e-19
11.993 	0.0427781 	3.42766 	4.00425e-19
12.0631 	0.0427781 	3.42766 	4.00425e-19
12.1332 	0.0587111 	3.43447 	0
12.2034 	0.0587111 	3.43447 	0
12.2735 	0.0587111 	3.43447 	0
12.3437 	0.0587111 	3.43447 	0
12.4138 	0.0587111 	3.43447 	0
12.4839 	0.0587111 	3.43447 	0
12.5541 	0.0587111 	3.43447 	0
12.6242 	0.0670992 	3.44688 	-1.12273e-20
12.6943 	0.0670992 	3.44688 	-1.12273e-20
12.7645 	0.0670992 	3.44688 	-1.12273e-20
12.8346 	0.0670992 	3.44688 	-1.12273e-20
12.9047 	0.0670992 	3.44688 	-1.12273e-20
12.9749 	0.0670992 	3.44688 	-1.12273e-20
13.045 	0.089991 	3.45447 	1.13072e-20
13.1151 	0.089991 	3.45447 	1.13072e-20
13.1853 	0.089991 	3.45447 	1.13072e-20
13.2554 	0.089991 	3.45447 	1.13072e-20
13.3255 	0.089991 	3.45447 	1.13072e-20
13.3957 	0.089991 	3.45447 	1.13072e-20
13.4658 	0.089991 	3.45447 	1.13072e-20
13.5359 	0.103306 	3.46805 	0
13.6061 	0.103306 	3.46805 	0
13.6762 	0.103306 	3.46805 	0
13.7463 	0.103306 	3.46805 	0
13.8165 	0.103306 	3.46805 	0
13.8866 	0.103306 	3.46805 	0
13.9567 	0.147807 	3.47986 	7.98664e-22
14.0269 	0.147807 	3.47986 	7.98664e-22
14.097 	0.147807 	3.47986 	7.98664e-22
14.1671 	0.147807 	3.47986 	7.98664e-22
14.2373 	0.147807 	3.47986 	7.98664e-22
14.3074 	0.147807 	3.47986 	7.98664e-22
14.3776 	0.146186 	3.48367 	1.1809e-19
14.4477 	0.148946 	3.51025 	-1.69175e-20
14.5178 	0.148946 	3.51025 	-1.69175e-20
14.588 	0.148946 	3.51025 	-1.69175e-20
14.6581 	0.162035 	3.50325 	0
14.7282 	0.162035 	3.50325 	0
14.7984 	0.176661 	3.52662 	-1.73613e-19
14.8685 	0.199554 	3.51658 	-1.7536e-19
14.9386 	0.199554 	3.51658 	-1.7536e-19
15.0088 	0.199554 	3.51658 	-1.7536e-19
15.0789 	0.199554 	3.51658 	-1.7536e-19
15.149 	0.216346 	3.50579 	1.72949e-19
15.2192 	0.23352 	3.53978 	1.47444e-19
15.2893 	0.23352 	3.53978 	1.47444e-19
15.3594 	0.23352 	3.53978 	1.47444e-19
15.4296 	0.253969 	3.51907 	-5.00733e-19
15.4997 	0.253969 	3.51907 	-5.00733e-19
15.5698 	0.269547 	3.54748 	2.61935e-19
15.64 	0.269547 	3.54748 	2.61935e-19
15.7101 	0.269547 	3.54748 	2.61935e-19
15.7802 	0.287334 	3.53933 	-4.37503e-19
15.8504 	0.287334 	3.53933 	-4.37503e-19
15.9205 	0.30674 	3.55529 	-1.22925e-19
15.9906 	0.30674 	3.55529 	-1.22925e-19
16.0608 	0.30674 	3.55529 	-1.22925e-19
16.1309 	0.331473 	3.53532 	0
16.201 	0.331473 	3.53532 	0
16.2712 	0.344843 	3.56764 	0
16.3413 	0.344843 	3.56764 	0
16.4114 	0.344843 	3.56764 	0
16.4816 	0.344843 	3.56764 	0
16.5517 	0.361129 	3.54488 	-1.72532e-19
16.6219 	0.395785 	3.56421 	5.47633e-20
16.692 	0.395785 	3.56421 	5.47633e-20
16.7621 	0.395785 	3.56421 	5.47633e-20
16.8323 	0.395785 	3.56421 	5.47633e-20
16.9024 	0.395785 	3.56421 	5.47633e-20
16.9725 	0.435807 	3.55687 	0
17.0427 	0.435807 	3.55687 	0
17.1128 	0.435807 	3.55687 	0
17.1829 	0.435807 	3.55687 	0
17.2531 	0.463443 	3.57606 	0
17.3232 	0.463443 	3.57606 	0
17.3933 	0.463443 	3.57606 	0
17.4635 	0.48805 	3.5574 	1.60136e-19
17.5336 	0.48805 	3.5574 	1.60136e-19
17.6037 	0.507931 	3.56567 	0
17.6739 	0.507931 	3.56567 	0
17.744 	0.507931 	3.56567 	0
17.8141 	0.507931 	3.56567 	0
17.8843 	0.507931 	3.56567 	0
17.9544 	0.564515 	3.55502 	1.32518e-19
18.0245 	0.564515 	3.55502 	1.32518e-19
18.0947 	0.564515 	3.55502 	1.32518e-19
18.1648 	0.564515 	3.55502 	1.32518e-19
18.2349 	0.579184 	3.56527 	-1.97301e-19
18.3051 	0.579184 	3.56527 	-1.97301e-19
18.3752 	0.579184 	3.56527 	-1.97301e-19
18.4453 	0.579184 	3.56527 	-1.97301e-19
18.5155 	0.579184 	3.56527 	-1.97301e-19
18.5856 	0.621339 	3.54725 	-2.85391e-19
18.6557 	0.621339 	3.54725 	-2.85391e-19
18.7259 	0.621339 	3.54725 	-2.85391e-19
18.796 	0.621339 	3.54725 	-2.85391e-19
18.8662 	0.638658 	3.5587 	2.30262e-19
18.9363 	0.638658 	3.5587 	2.30262e-19
19.0064 	0.638658 	3.5587 	2.30262e-19
19.0766 	0.638658 	3.5587 	2.30262e-19
19.1467 	0.638658 	3.5587 	2.30262e-19
19.2168 	0.663825 	3.57551 	3.2644e-20
19.287 	0.663041 	3.5324 	1.64066e-19
19.3571 	0.663041 	3.5324 	1.64066e-19
19.4272 	0.663041 	3.5324 	1.64066e-19
19.4974 	0.663041 	3.5324 	1.64066e-19
19.5675 	0.684173 	3.54678 	2.45434e-20
19.6376 	0.684173 	3.54678 	2.45434e-20
19.7078 	0.684173 	3.54678 	2.45434e-20
19.7779 	0.684173 	3.54678 	2.45434e-20
19.848 	0.684173 	3.54678 	2.45434e-20
19.9182 	0.712407 	3.56494 	-6.73755e-20
19.9883 	0.712407 	3.56494 	-6.73755e-20
20.0584 	0.688164 	3.49721 	0
20.1286 	0.688164 	3.49721 	0
20.1987 	0.688164 	3.49721 	0
20.2688 	0.713453 	3.52332 	4.88251e-20
20.339 	0.713453 	3.52332 	4.88251e-20
20.4091 	0.713453 	3.52332 	4.88251e-20
20.4792 	0.713453 	3.52332 	4.88251e-20
20.5494 	0.713453 	3.52332 	4.88251e-20
20.6195 	0.745954 	3.54792 	-2.81332e-20
20.6896 	0.745954 	3.54792 	-2.81332e-20
20.7598 	0.745954 	3.54792 	-2.81332e-20
20.8299 	0.745954 	3.54792 	-2.81332e-20
20.9 	0.694903 	3.39283 	2.85697e-19
20.9702 	0.723838 	3.45154 	1.04262e-19
21.0403 	0.723838 	3.45154 	1.04262e-19
21.1105 	0.723838 	3.45154 	1.04262e-19
21.1806 	0.723838 	3.45154 	1.04262e-19
21.2507 	0.723838 	3.45154 	1.04262e-19
21.3209 	0.759364 	3.49854 	-7.46883e-20
21.391 	0.759364 	3.49854 	-7.46883e-20
21.4611 	0.759364 	3.49854 	-7.46883e-20
21.5313 	0.759364 	3.49854 	-7.46883e-20
21.6014 	0.759364 	3.49854 	-7.46883e-20
21.6715 	0.759364 	3.49854 	-7.46883e-20
21.7417 	0.782461 	3.5244 	4.50962e-21
21.8118 	0.782461 	3.5244 	4.50962e-21
21.8819 	0.782461 	3.5244 	4.50962e-21
21.9521 	0.714588 	3.25687 	3.69859e-20
22.0222 	0.714588 	3.25687 	3.69859e-20
22.0923 	0.751638 	3.349 	8.84484e-20
22.1625 	0.751638 	3.349 	8.84484e-20
22.2326 	0.751638 	3.349 	8.84484e-20
22.3027 	0.751638 	3.349 	8.84484e-20
22.3729 	0.751638 	3.349 	8.84484e-20
22.443 	0.751638 	3.349 	8.84484e-20
22.5131 	0.780218 	3.4169 	-3.71664e-20
22.5833 	0.780218 	3.4169 	-3.71664e-20
22.6534 	0.780218 	3.4169 	-3.71664e-20
22.7235 	0.780218 	3.4169 	-3.71664e-20
22.7937 	0.780218 	3.4169 	-3.71664e-20
22.8638 	0.812669 	3.46897 	-3.7782e-20
22.9339 	0.812669 	3.46897 	-3.7782e-20
23.0041 	0.812669 	3.46897 	-3.7782e-20
23.0742 	0.705148 	2.92626 	6.93946e-20
23.1443 	0.705148 	2.92626 	6.93946e-20
23.2145 	0.705148 	2.92626 	6.93946e-20
23.2846 	0.745381 	3.08868 	-4.40878e-22
23.3548 	0.745381 	3.08868 	-4.40878e-22
23.4249 	0.745381 	3.08868 	-4.40878e-22
23.495 	0.745381 	3.08868 	-4.40878e-22
23.5652 	0.745381 	3.08868 	-4.40878e-22
23.6353 	0.745381 	3.08868 	-4.40878e-22
23.7054 	0.777848 	3.19805 	-7.28442e-22
23.7756 	0.777848 	3.19805 	-7.28442e-22
23.8457 	0.777848 	3.19805 	-7.28442e-22
23.9158 	0.777848 	3.19805 	-7.28442e-22
23.986 	0.777848 	3.19805 	-7.28442e-22
24.0561 	0.777848 	3.19805 	-7.28442e-22
24.1262 	0.809391 	3.29301 	0
24.1964 	0.809391 	3.29301 	0
24.2665 	0.809391 	3.29301 	0
24.3366 	0.809391 	3.29301 	0
24.4068 	0.809391 	3.29301 	0
24.4769 	0.661722 	2.4857 	-9.0534e-21
24.547 	0.661722 	2.4857 	-9.0534e-21
24.6172 	0.684024 	2.58516 	-8.00837e-20
24.6873 	0.684024 	2.58516 	-8.00837e-20
24.7574 	0.684024 	2.58516 	-8.00837e-20
24.8276 	0.684024 	2.58516 	-8.00837e-20
24.8977 	0.684024 	2.58516 	-8.00837e-20
24.9678 	0.684024 	2.58516 	-8.00837e-20
25.038 	0.729181 	2.76902 	2.43711e-20
25.1081 	0.729181 	2.76902 	2.43711e-20
25.1782 	0.729181 	2.76902 	2.43711e-20
25.2484 	0.729181 	2.76902 	2.43711e-20
25.3185 	0.729181 	2.76902 	2.43711e-20
25.3886 	0.729181 	2.76902 	2.43711e-20
25.4588 	0.750635 	2.85227 	0
25.5289 	0.750635 	2.85227 	0
25.5991 	0.750635 	2.85227 	0
25.6692 	0.750635 	2.85227 	0
25.7393 	0.750635 	2.85227 	0
25.8095 	0.750635 	2.85227 	0
25.8796 	0.750635 	2.85227 	0
25.9497 	0.79157 	2.99796 	-1.07793e-19
26.0199 	0.79157 	2.99796 	-1.07793e-19
26.09 	0.616595 	2.12369 	-8.39637e-20
26.1601 	0.616595 	2.12369 	-8.39637e-20
26.2303 	0.616595 	2.12369 	-8.39637e-20
26.3004 	0.616595 	2.12369 	-8.39637e-20
26.3705 	0.616595 	2.12369 	-8.39637e-20
26.4407 	0.628902 	2.17409 	2.16754e-19
26.5108 	0.628902 	2.17409 	2.16754e-19
26.5809 	0.628902 	2.17409 	2.16754e-19
26.6511 	0.628902 	2.17409 	2.16754e-19
26.7212 	0.628902 	2.17409 	2.16754e-19
26.7913 	0.628902 	2.17409 	2.16754e-19
26.8615 	0.628902 	2.17409 	2.16754e-19
26.9316 	0.657707 	2.28862 	-1.44604e-19
27.0017 	0.657707 	2.28862 	-1.44604e-19
27.0719 	0.657707 	2.28862 	-1.44604e-19
27.142 	0.657707 	2.28862 	-1.44604e-19
27.2121 	0.657707 	2.28862 	-1.44604e-19
27.2823 	0.657707 	2.28862 	-1.44604e-19
27.3524 	0.667652 	2.33433 	-5.50925e-20
27.4225 	0.667652 	2.33433 	-5.50925e-20
27.4927 	0.667652 	2.33433 	-5.50925e-20
27.5628 	0.667652 	2.33433 	-5.50925e-20
27.6329 	0.667652 	2.33433 	-5.50925e-20
27.7031 	0.667652 	2.33433 	-5.50925e-20
27.7732 	0.667652 	2.33433 	-5.50925e-20
27.8434 	0.667652 	2.33433 	-5.50925e-20
27.9135 	0.693617 	2.43737 	-6.38137e-20
27.9836 	0.693617 	2.43737 	-6.38137e-20
28.0538 	0.693617 	2.43737 	-6.38137e-20
28.1239 	0.693617 	2.43737 	-6.38137e-20
28.194 	0.693617 	2.43737 	-6.38137e-20
28.2642 	0.693617 	2.43737 	-6.38137e-20
28.3343 	0.552171 	1.84611 	7.13e-20
28.4044 	0.551116 	1.86634 	-1.25543e-19
28.4746 	0.551116 	1.86634 	-1.25543e-19
28.5447 	0.551116 	1.86634 	-1.25543e-19
28.6148 	0.551116 	1.86634 	-1.25543e-19
28.685 	0.551116 	1.86634 	-1.25543e-19
28.7551 	0.551116 	1.86634 	-1.25543e-19
28.8252 	0.551116 	1.86634 	-1.25543e-19
28.8954 	0.551116 	1.86634 	-1.25543e-19
28.9655 	0.559178 	1.91128 	-1.45421e-19
29.0356 	0.559178 	1.91128 	-1.45421e-19
29.1058 	0.559178 	1.91128 	-1.45421e-19
29.1759 	0.559178 	1.91128 	-1.45421e-19
29.246 	0.559178 	1.91128 	-1.45421e-19
29.3162 	0.559178 	1.91128 	-1.45421e-19
29.3863 	0.559178 	1.91128 	-1.45421e-19
29.4564 	0.553567 	1.9241 	1.34912e-19
29.5266 	0.553567 	1.9241 	1.34912e-19
29.5967 	0.553567 	1.9241 	1.34912e-19
29.6668 	0.553567 	1.9241 	1.34912e-19
29.737 	0.553567 	1.9241 	1.34912e-19
29.8071 	0.553567 	1.9241 	1.34912e-19
29.8773 	0.553567 	1.9241 	1.34912e-19
29.9474 	0.553567 	1.9241 	1.34912e-19
30.0175 	0.554875 	1.95648 	-1.49988e-19
30.0877 	0.554875 	1.95648 	-1.49988e-19
30.1578 	0.554875 	1.95648 	-1.49988e-19
30.2279 	0.554875 	1.95648 	-1.49988e-19
30.2981 	0.554875 	1.95648 	-1.49988e-19
30.3682 	0.554875 	1.95648 	-1.49988e-19
30.4383 	0.554875 	1.95648 	-1.49988e-19
30.5085 	0.554875 	1.95648 	-1.49988e-19
30.5786 	0.544647 	1.96054 	2.82863e-19
30.6487 	0.544647 	1.96054 	2.82863e-19
30.7189 	0.544647 	1.96054 	2.82863e-19
30.789 	0.544647 	1.96054 	2.82863e-19
30.8591 	0.544647 	1.96054 	2.82863e-19
30.9293 	0.544647 	1.96054 	2.82863e-19
30.9994 	0.544647 	1.96054 	2.82863e-19
31.0695 	0.544647 	1.96054 	2.82863e-19
31.1397 	0.539025 	1.98173 	-1.43597e-19
31.2098 	0.539025 	1.98173 	-1.43597e-19
31.2799 	0.539025 	1.98173 	-1.43597e-19
31.3501 	0.539025 	1.98173 	-1.43597e-19
31.4202 	0.539025 	1.98173 	-1.43597e-19
31.4903 	0.539025 	1.98173 	-1.43597e-19
31.5605 	0.494913 	1.75644 	2.48052e-19
31.6306 	0.494913 	1.75644 	2.48052e-19
31.7007 	0.490187 	1.76226 	-7.88986e-20
31.7709 	0.490187 	1.76226 	-7.88986e-20
31.841 	0.490187 	1.76226 	-7.88986e-20
31.9111 	0.490187 	1.76226 	-7.88986e-20
31.9813 	0.490187 	1.76226 	-7.88986e-20
32.0514 	0.490187 	1.76226 	-7.88986e-20
32.1216 	0.490187 	1.76226 	-7.88986e-20
32.1917 	0.490187 	1.76226 	-7.88986e-20
32.2618 	0.490187 	1.76226 	-7.88986e-20
32.332 	0.487202 	1.77535 	0
32.4021 	0.487202 	1.77535 	0
32.4722 	0.487202 	1.77535 	0
32.5424 	0.487202 	1.77535 	0
32.6125 	0.487202 	1.77535 	0
32.6826 	0.487202 	1.77535 	0
32.7528 	0.487202 	1.77535 	0
32.8229 	0.487202 	1.77535 	0
32.893 	0.487202 	1.77535 	0
32.9632 	0.486191 	1.77894 	0
33.0333 	0.486191 	1.77894 	0
33.1034 	0.486191 	1.77894 	0
33.1736 	0.486191 	1.77894 	0
33.2437 	0.486191 	1.77894 	0
33.3138 	0.486191 	1.77894 	0
33.384 	0.486191 	1.77894 	0
33.4541 	0.486191 	1.77894 	0
33.5242 	0.486191 	1.77894 	0
33.5944 	0.486469 	1.78263 	4.04617e-20
33.6645 	0.486469 	1.78263 	4.04617e-20
33.7346 	0.486469 	1.78263 	4.04617e-20
33.8048 	0.486469 	1.78263 	4.04617e-20
33.8749 	0.486469 	1.78263 	4.04617e-20
33.945 	0.486469 	1.78263 	4.04617e-20
34.0152 	0.486469 	1.78263 	4.04617e-20
34.0853 	0.486469 	1.78263 	4.04617e-20
34.1554 	0.486469 	1.78263 	4.04617e-20
34.2256 	0.487058 	1.77868 	-3.71716e-20
34.2957 	0.487058 	1.77868 	-3.71716e-20
34.3659 	0.487058 	1.77868 	-3.71716e-20
34.436 	0.487058 	1.77868 	-3.71716e-20
34.5061 	0.487058 	1.77868 	-3.71716e-20
34.5763 	0.487058 	1.77868 	-3.71716e-20
34.6464 	0.487058 	1.77868 	-3.71716e-20
34.7165 	0.487058 	1.77868 	-3.71716e-20
34.7867 	0.487058 	1.77868 	-3.71716e-20
34.8568 	0.487058 	1.77868 	-3.71716e-20
34.9269 	0.491043 	1.76958 	7.70896e-20
34.9971 	0.491043 	1.76958 	7.70896e-20
35.0672 	0.491043 	1.76958 	7.70896e-20
35.1373 	0.491043 	1.76958 	7.70896e-20
35.2075 	0.491043 	1.76958 	7.70896e-20
35.2776 	0.491043 	1.76958 	7.70896e-20
35.3477 	0.491043 	1.76958 	7.70896e-20
35.4179 	0.491043 	1.76958 	7.70896e-20
35.488 	0.491043 	1.76958 	7.70896e-20
35.5581 	0.491043 	1.76958 	7.70896e-20
35.6283 	0.490335 	1.75573 	-1.83526e-20
35.6984 	0.490335 	1.75573 	-1.83526e-20
35.7685 	0.490335 	1.75573 	-1.83526e-20
35.8387 	0.490335 	1.75573 	-1.83526e-20
35.9088 	0.490335 	1.75573 	-1.83526e-20
35.9789 	0.490335 	1.75573 	-1.83526e-20
36.0491 	0.490335 	1.75573 	-1.83526e-20
36.1192 	0.490335 	1.75573 	-1.83526e-20
36.1893 	0.490335 	1.75573 	-1.83526e-20
36.2595 	0.490335 	1.75573 	-1.83526e-20
36.3296 	0.483303 	1.74197 	1.76707e-20
36.3997 	0.483303 	1.74197 	1.76707e-20
36.4699 	0.483303 	1.74197 	1.76707e-20
36.54 	0.483303 	1.74197 	1.76707e-20
36.6102 	0.483303 	1.74197 	1.76707e-20
36.6803 	0.483303 	1.74197 	1.76707e-20
36.7504 	0.483303 	1.74197 	1.76707e-20
36.8206 	0.483303 	1.74197 	1.76707e-20
36.8907 	0.483303 	1.74197 	1.76707e-20
36.9608 	0.483303 	1.74197 	1.76707e-20
37.031 	0.483303 	1.74197 	1.76707e-20
37.1011 	0.470799 	1.72989 	0
37.1712 	0.470799 	1.72989 	0
37.2414 	0.470799 	1.72989 	0
37.3115 	0.470799 	1.72989 	0
37.3816 	0.470799 	1.72989 	0
37.4518 	0.470799 	1.72989 	0
37.5219 	0.470799 	1.72989 	0
37.592 	0.470799 	1.72989 	0
37.6622 	0.455572 	1.72007 	0
37.7323 	0.455572 	1.72007 	0
37.8024 	0.455572 	1.72007 	0
37.8726 	0.455572 	1.72007 	0
37.9427 	0.455572 	1.72007 	0
38.0128 	0.455572 	1.72007 	0
38.083 	0.455572 	1.72007 	0
38.1531 	0.455572 	1.72007 	0
38.2232 	0.455572 	1.72007 	0
38.2934 	0.439487 	1.70988 	0
38.3635 	0.439487 	1.70988 	0
38.4336 	0.439487 	1.70988 	0
38.5038 	0.439487 	1.70988 	0
38.5739 	0.439487 	1.70988 	0
38.644 	0.439487 	1.70988 	0
38.7142 	0.439487 	1.70988 	0
38.7843 	0.439487 	1.70988 	0
38.8545 	0.439487 	1.70988 	0
38.9246 	0.422231 	1.69744 	0
38.9947 	0.422231 	1.69744 	0
39.0649 	0.422231 	1.69744 	0
39.135 	0.422231 	1.69744 	0
39.2051 	0.422231 	1.69744 	0
39.2753 	0.422231 	1.69744 	0
39.3454 	0.422231 	1.69744 	0
39.4155 	0.422231 	1.69744 	0
39.4857 	0.422231 	1.69744 	0
39.5558 	0.402777 	1.68409 	0
39.6259 	0.402777 	1.68409 	0
39.6961 	0.402777 	1.68409 	0
39.7662 	0.402777 	1.68409 	0
39.8363 	0.402777 	1.68409 	0
39.9065 	0.402777 	1.68409 	0
39.9766 	0.402777 	1.68409 	0
40.0467 	0.402777 	1.68409 	0
40.1169 	0.378705 	1.67267 	0
40.187 	0.378705 	1.67267 	0
40.2571 	0.378705 	1.67267 	0
40.3273 	0.378705 	1.67267 	0
40.3974 	0.378705 	1.67267 	0
40.4675 	0.378705 	1.67267 	0
40.5377 	0.378705 	1.67267 	0
40.6078 	0.378705 	1.67267 	0
40.6779 	0.378705 	1.67267 	0
40.7481 	0.351184 	1.66581 	0
40.8182 	0.351184 	1.66581 	0
40.8883 	0.351184 	1.66581 	0
40.9585 	0.351184 	1.66581 	0
41.0286 	0.351184 	1.66581 	0
41.0988 	0.351184 	1.66581 	0
41.1689 	0.351184 	1.66581 	0
41.239 	0.351184 	1.66581 	0
41.3092 	0.351184 	1.66581 	0
41.3793 	0.322096 	1.66191 	0
41.4494 	0.322096 	1.66191 	0
41.5196 	0.322096 	1.66191 	0
41.5897 	0.322096 	1.66191 	0
41.6598 	0.322096 	1.66191 	0
41.73 	0.322096 	1.66191 	0
41.8001 	0.322096 	1.66191 	0
41.8702 	0.322096 	1.66191 	0
41.9404 	0.322096 	1.66191 	0
42.0105 	0.292347 	1.65888 	0
42.0806 	0.292347 	1.65888 	0
42.1508 	0.292347 	1.65888 	0
42.2209 	0.292347 	1.65888 	0
42.291 	0.292347 	1.65888 	0
42.3612 	0.292347 	1.65888 	0
42.4313 	0.292347 	1.65888 	0
42.5014 	0.292347 	1.65888 	0
42.5716 	0.292347 	1.65888 	0
42.6417 	0.262746 	1.65792 	0
42.7118 	0.262746 	1.65792 	0
42.782 	0.262746 	1.65792 	0
42.8521 	0.262746 	1.65792 	0
42.9222 	0.262746 	1.65792 	0
42.9924 	0.262746 	1.65792 	0
43.0625 	0.262746 	1.65792 	0
43.1327 	0.262746 	1.65792 	0
43.2028 	0.23389 	1.65973 	0
43.2729 	0.23389 	1.65973 	0
43.3431 	0.23389 	1.65973 	0
43.4132 	0.23389 	1.65973 	0
43.4833 	0.23389 	1.65973 	0
43.5535 	0.23389 	1.65973 	0
43.6236 	0.23389 	1.65973 	0
43.6937 	0.23389 	1.65973 	0
43.7639 	0.23389 	1.65973 	0
43.834 	0.205288 	1.66338 	0
43.9041 	0.205288 	1.66338 	0
43.9743 	0.205288 	1.66338 	0
44.0444 	0.205288 	1.66338 	0
44.1145 	0.205288 	1.66338 	0
44.1847 	0.205288 	1.66338 	0
44.2548 	0.205288 	1.66338 	0
44.3249 	0.205288 	1.66338 	0
44.3951 	0.205288 	1.66338 	0
44.4652 	0.176537 	1.66729 	0
44.5353 	0.176537 	1.66729 	0
44.6055 	0.176537 	1.66729 	0
44.6756 	0.176537 	1.66729 	0
44.7457 	0.176537 	1.66729 	0
44.8159 	0.176537 	1.66729 	0
44.886 	0.176537 	1.66729 	0
44.9561 	0.176537 	1.66729 	0
45.0263 	0.176537 	1.66729 	0
45.0964 	0.148166 	1.67136 	0
45.1665 	0.148166 	1.67136 	0
45.2367 	0.148166 	1.67136 	0
45.3068 	0.148166 	1.67136 	0
45.377 	0.148166 	1.67136 	0
45.4471 	0.148166 	1.67136 	0
45.5172 	0.148166 	1.67136 	0
45.5874 	0.148166 	1.67136 	0
45.6575 	0.12079 	1.67566 	0
45.7276 	0.12079 	1.67566 	0
45.7978 	0.12079 	1.67566 	0
45.8679 	0.12079 	1.67566 	0
45.938 	0.12079 	1.67566 	0
46.0082 	0.12079 	1.67566 	0
46.0783 	0.12079 	1.67566 	0
46.1484 	0.12079 	1.67566 	0
46.2186 	0.12079 	1.67566 	0
46.2887 	0.094507 	1.67932 	0
46.3588 	0.094507 	1.67932 	0
46.429 	0.094507 	1.67932 	0
46.4991 	0.094507 	1.67932 	0
46.5692 	0.094507 	1.67932 	0
46.6394 	0.094507 	1.67932 	0
46.7095 	0.094507 	1.67932 	0
46.7796 	0.0884002 	1.64688 	0
46.8498 	0.0884002 	1.64688 	0
46.9199 	0.0646332 	1.64857 	0
46.99 	0.0646332 	1.64857 	0
47.0602 	0.0646332 	1.64857 	0
47.1303 	0.0646332 	1.64857 	0
47.2004 	0.0646332 	1.64857 	0
47.2706 	0.0646332 	1.64857 	0
47.3407 	0.0646332 	1.64857 	0
47.4108 	0.0646332 	1.64857 	0
47.481 	0.0646332 	1.64857 	0
47.5511 	0.0431194 	1.64906 	0
47.6213 	0.0431194 	1.64906 	0
47.6914 	0.0431194 	1.64906 	0
47.7615 	0.0431194 	1.64906 	0
47.8317 	0.0431194 	1.64906 	0
47.9018 	0.0431194 	1.64906 	0
47.9719 	0.0431194 	1.64906 	0
48.0421 	0.0431194 	1.64906 	0
48.1122 	0.0431194 	1.64906 	0
48.1823 	0.0239984 	1.64708 	0
48.2525 	0.0239984 	1.64708 	0
48.3226 	0.0239984 	1.64708 	0
48.3927 	0.0239984 	1.64708 	0
48.4629 	0.0239984 	1.64708 	0
48.533 	0.0239984 	1.64708 	0
48.6031 	0.0239984 	1.64708 	0
48.6733 	0.0239984 	1.64708 	0
48.7434 	0.00702043 	1.64164 	0
48.8135 	0.00702043 	1.64164 	0
48.8837 	0.00702043 	1.64164 	0
48.9538 	0.00702043 	1.64164 	0
49.0239 	0.00702043 	1.64164 	0
49.0941 	0.00702043 	1.64164 	0
49.1642 	0.00702043 	1.64164 	0
49.2343 	0.00702043 	1.64164 	0
49.3045 	0.00702043 	1.64164 	0
49.3746 	-0.0084031 	1.63236 	0
49.4447 	-0.0084031 	1.63236 	0
49.5149 	-0.0084031 	1.63236 	0
49.585 	-0.0084031 	1.63236 	0
49.6551 	-0.0084031 	1.63236 	0
49.7253 	-0.0084031 	1.63236 	0
49.7954 	-0.0084031 	1.63236 	0
49.8656 	-0.0084031 	1.63236 	0
49.9357 	-0.0084031 	1.63236 	0
50.0058 	-0.0214132 	1.61927 	0
50.076 	-0.0214132 	1.61927 	0
50.1461 	-0.0214132 	1.61927 	0
50.2162 	-0.0214132 	1.61927 	0
50.2864 	-0.0214132 	1.61927 	0
50.3565 	-0.0214132 	1.61927 	0
50.4266 	-0.0214132 	1.61927 	0
50.4968 	-0.0214132 	1.61927 	0
50.5669 	-0.0214132 	1.61927 	0
50.637 	-0.0323152 	1.60281 	0
50.7072 	-0.0323152 	1.60281 	0
50.7773 	-0.0323152 	1.60281 	0
50.8474 	-0.0323152 	1.60281 	0
50.9176 	-0.0323152 	1.60281 	0
50.9877 	-0.0323152 	1.60281 	0
51.0578 	-0.0323152 	1.60281 	0
51.128 	-0.0323152 	1.60281 	0
51.1981 	-0.0323152 	1.60281 	0
51.2682 	-0.0408453 	1.58422 	0
51.3384 	-0.0408453 	1.58422 	0
51.4085 	-0.0408453 	1.58422 	0
51.4786 	-0.0408453 	1.58422 	0
51.5488 	-0.0408453 	1.58422 	0
51.6189 	-0.0408453 	1.58422 	0
51.689 	-0.0408453 	1.58422 	0
51.7592 	-0.0408453 	1.58422 	0
51.8293 	-0.0473125 	1.56416 	0
51.8994 	-0.0473125 	1.56416 	0
51.9696 	-0.0473125 	1.56416 	0
52.0397 	-0.0473125 	1.56416 	0
52.1099 	-0.0473125 	1.56416 	0
52.18 	-0.0473125 	1.56416 	0
52.2501 	-0.0473125 	1.56416 	0
52.3203 	-0.0473125 	1.56416 	0
52.3904 	-0.0473125 	1.56416 	0
52.4605 	-0.0512207 	1.54373 	0
52.5307 	-0.0512207 	1.54373 	0
52.6008 	-0.0512207 	1.54373 	0
52.6709 	-0.0512207 	1.54373 	0
52.7411 	-0.0512207 	1.54373 	0
52.8112 	-0.0512207 	1.54373 	0
52.8813 	-0.0512207 	1.54373 	0
52.9515 	-0.0512207 	1.54373 	0
53.0216 	-0.0512207 	1.54373 	0
53.0917 	-0.0532866 	1.52354 	0
53.1619 	-0.0532866 	1.52354 	0
53.232 	-0.0532866 	1.52354 	0
53.3021 	-0.0532866 	1.52354 	0
53.3723 	-0.0532866 	1.52354 	0
53.4424 	-0.0532866 	1.52354 	0
53.5125 	-0.0532866 	1.52354 	0
53.5827 	-0.0532866 	1.52354 	0
53.6528 	-0.0532866 	1.52354 	0
53.7229 	-0.0536739 	1.50407 	0
53.7931 	-0.0536739 	1.50407 	0
53.8632 	-0.0536739 	1.50407 	0
53.9333 	-0.0536739 	1.50407 	0
54.0035 	-0.0536739 	1.50407 	0
54.0736 	-0.0536739 	1.50407 	0
54.1437 	-0.0536739 	1.50407 	0
54.2139 	-0.0536739 	1.50407 	0
54.284 	-0.0533746 	1.48499 	0
54.3542 	-0.0533746 	1.48499 	0
54.4243 	-0.0533746 	1.48499 	0
54.4944 	-0.0533746 	1.48499 	0
54.5646 	-0.0533746 	1.48499 	0
54.6347 	-0.0533746 	1.48499 	0
54.7048 	-0.0533746 	1.48499 	0
54.775 	-0.0533746 	1.48499 	0
54.8451 	-0.0533746 	1.48499 	0
54.9152 	-0.0529646 	1.46687 	0
54.9854 	-0.0529646 	1.46687 	0
55.0555 	-0.0529646 	1.46687 	0
55.1256 	-0.0529646 	1.46687 	0
55.1958 	-0.0529646 	1.46687 	0
55.2659 	-0.0529646 	1.46687 	0
55.336 	-0.0529646 	1.46687 	0
55.4062 	-0.0529646 	1.46687 	0
55.4763 	-0.0529646 	1.46687 	0
55.5464 	-0.0530837 	1.4499 	0
55.6166 	-0.0530837 	1.4499 	0
55.6867 	-0.0530837 	1.4499 	0
55.7568 	-0.0530837 	1.4499 	0
55.827 	-0.0530837 	1.4499 	0
55.8971 	-0.0530837 	1.4499 	0
55.9672 	-0.0530837 	1.4499 	0
56.0374 	-0.0530837 	1.4499 	0
56.1075 	-0.0530837 	1.4499 	0
56.1776 	-0.0538331 	1.43545 	0
56.2478 	-0.0538331 	1.43545 	0
56.3179 	-0.0538331 	1.43545 	0
56.3881 	-0.0538331 	1.43545 	0
56.4582 	-0.0538331 	1.43545 	0
56.5283 	-0.0538331 	1.43545 	0
56.5985 	-0.0538331 	1.43545 	0
56.6686 	-0.0538331 	1.43545 	0
56.7387 	-0.0538331 	1.43545 	0
56.8089 	-0.055301 	1.42286 	0
56.879 	-0.055301 	1.42286 	0
56.9491 	-0.055301 	1.42286 	0
57.0193 	-0.055301 	1.42286 	0
57.0894 	-0.055301 	1.42286 	0
57.1595 	-0.055301 	1.42286 	0
57.2297 	-0.055301 	1.42286 	0
57.2998 	-0.055301 	1.42286 	0
57.3699 	-0.0574965 	1.41219 	0
57.4401 	-0.0574965 	1.41219 	0
57.5102 	-0.0574965 	1.41219 	0
57.5803 	-0.0574965 	1.41219 	0
57.6505 	-0.0574965 	1.41219 	0
57.7206 	-0.0574965 	1.41219 	0
57.7907 	-0.0574965 	1.41219 	0
57.8609 	-0.0574965 	1.41219 	0
57.931 	-0.0574965 	1.41219 	0
58.0011 	-0.060282 	1.4044 	0
58.0713 	-0.060282 	1.4044 	0
58.1414 	-0.060282 	1.4044 	0
58.2115 	-0.060282 	1.4044 	0
58.2817 	-0.060282 	1.4044 	0
58.3518 	-0.060282 	1.4044 	0
58.4219 	-0.060282 	1.4044 	0
58.4921 	-0.060282 	1.4044 	0
58.5622 	-0.060282 	1.4044 	0
58.6324 	-0.0634544 	1.40021 	0
58.7025 	-0.0634544 	1.40021 	0
58.7726 	-0.0634544 	1.40021 	0
58.8428 	-0.0634544 	1.40021 	0
58.9129 	-0.0634544 	1.40021 	0
58.983 	-0.0634544 	1.40021 	0
59.0532 	-0.0634544 	1.40021 	0
59.1233 	-0.0634544 	1.40021 	0
59.1934 	-0.0634544 	1.40021 	0
59.2636 	-0.0665377 	1.39896 	0