/*--------------------------------*- C++ -*----------------------------------*\
  =========                 |
  \\      /  F ield         | OpenFOAM: The Open Source CFD Toolbox
   \\    /   O peration     | Website:  https://openfoam.org
    \\  /    A nd           | Version:  6
     \\/     M anipulation  |
\*---------------------------------------------------------------------------*/
FoamFile
{
    version     2.0;
    format      ascii;
    class       surfaceScalarField;
    location    "68";
    object      phi;
}
// * * * * * * * * * * * * * * * * * * * * * * * * * * * * * * * * * * * * * //

dimensions      [0 3 -1 0 0 0 0];

internalField   nonuniform List<scalar> 
1300
(
3.75095
5.62643
-3.33574
3.75095
-7.761
5.62643
-4.26845
4.26845
-0.416539
0.416539
1.87649
1.87447
-2.42409
2.42409
-1.8211
1.8211
-2.5298
2.5298
-5.24804
5.24804
-5.07002
5.07002
4.70197
-4.70197
-6.33264
6.33264
-0.965314
0.965314
-3.57218
3.57218
3.17251
-3.17251
-1.9164
1.9164
0.0235856
-0.0235856
-0.554085
4.30504
3.19687
3.19687
-1.99012
1.99012
-4.87428
4.87428
6.22256
-6.22256
5.25354
-5.25354
-1.91779
-2.49079
1.80195
-11.5031
-5.95906
-5.95906
-8.44099
8.44099
-2.81456
2.81187
2.94715
-2.94715
-1.72677
1.72677
-4.28384
0.0153893
-4.28384
4.23978
0.0286641
4.23978
-0.509898
0.0933589
-0.509898
3.94091
-3.94091
0.327801
0.0887377
0.327801
3.06726
-3.06726
-1.87686
3.75334
1.8741
-1.87209
6.17713
-1.87886
3.75333
-6.07433
6.07433
-2.67331
0.24922
-2.67331
2.19748
0.226609
2.19748
-6.88855
6.88855
-1.86186
0.0407601
-1.86186
1.83087
-0.00977032
1.83087
2.88784
-2.88784
-2.62674
0.0969371
-2.62674
2.39218
0.137619
2.39218
0.353379
5.27305
-5.97981
8.79168
-5.27305
0.0250073
5.21023
0.0378161
5.21023
-5.10529
0.0352696
-5.10529
5.01244
0.0575842
5.01244
4.79158
-0.0896087
4.79158
-4.8209
0.118931
-4.8209
-3.36106
-4.07595
-6.49259
0.159945
-6.49259
-1.034
0.0686872
-1.034
0.857734
0.10758
0.857734
-3.72746
3.72746
-3.92856
0.356381
-3.92856
3.12748
0.0450243
3.12748
1.86812
1.88283
5.61908
-5.61908
2.44657
-1.85744
-0.0589544
-1.85744
-1.9869
-3.26664
1.9869
-0.0705043
-0.194542
0.218127
-0.194542
3.15711
0.0397591
3.15711
2.21759
0.174589
-2.21759
0.227474
3.29925
-3.29925
1.32206
0.668057
1.32206
-5.5584
5.5584
4.9614
0.0510406
-4.9614
0.0871151
6.15728
0.065279
6.15728
-6.20774
-0.0148228
-6.20774
2.48652
-4.97731
-2.64569
6.14587
0.186772
-6.14587
0.186816
2.91869
0.0284618
2.91869
-2.91965
2.91965
-2.98416
0.0370078
-2.98416
-2.14956
0.422798
-2.14956
1.41211
0.314654
1.41211
-4.19756
-0.0862746
-4.19756
-4.0871
0.158534
4.0871
0.152686
1.11617
-1.11617
-0.610548
0.100651
-0.610548
-4.04513
-0.152437
4.04513
-0.104219
-3.88279
-0.0581141
-3.88279
-3.02186
0.0377048
3.02186
0.045403
3.11209
0.0450178
-3.11209
0.0448277
-1.87099
3.75382
-1.87996
3.75406
-5.69581
-0.37852
-5.69581
6.35706
-0.282725
6.35706
3.0999
0.472283
-3.0999
0.426589
2.03312
0.164362
2.03312
-6.86137
-0.0271775
-6.86137
6.89406
-0.00551005
6.89406
1.92647
0.106649
-1.92647
0.0646069
1.83952
-0.00864938
1.83952
2.9154
-0.027559
2.9154
-2.88167
-0.00617357
-2.88167
2.79253
-2.79253
2.71668
0.0758488
-2.71668
0.0899476
-11.124
11.1092
-0.0362719
-11.0878
5.17396
5.17396
4.24553
0.546054
4.24553
-5.01578
0.194879
-5.01578
2.66386
-5.30955
3.09751
-6.45857
4.67854
-16.1816
4.29776
-8.37371
6.74262
-6.74262
6.62425
0.118377
-6.62425
0.131658
-1.13617
0.10217
-1.13617
-3.12392
-0.603543
-3.12392
4.3629
-0.63544
4.3629
-3.02772
3.02772
-3.07643
0.0487134
3.07643
0.051048
1.84227
-0.0027461
-1.84227
-0.0151718
0.242724
0.0850768
-0.242724
0.0481824
3.52045
-0.221207
3.52045
-3.09552
-0.203722
-3.09552
-1.22488
0.0887138
1.22488
0.0971753
-5.80758
0.249173
-5.80758
-11.1817
0.0939628
-11.1439
-6.11378
-6.11378
2.32721
11.1189
-2.89703
0.015358
2.89703
0.0216604
2.9753
0.0524155
-2.9753
0.0556584
-2.8591
0.0665637
2.8591
0.0605499
-2.51771
0.368145
-2.51771
-1.02623
1.02623
-1.17468
0.148451
1.17468
0.237431
1.4156
-0.29943
1.4156
0.740964
0.11677
-0.740964
0.130416
-3.82969
-0.0531057
-3.82969
6.59757
-0.240517
6.59757
-2.96668
-0.12884
2.96668
-0.051283
-0.0348891
11.1441
-5.13907
0.0337732
5.13907
-11.2094
11.2431
-3.22349
0.705779
3.22349
1.02204
5.28416
0.274244
-5.28416
0.268379
6.83386
0.0601973
-6.83386
0.091239
-2.63299
-0.490932
-2.63299
-5.10071
-0.595107
5.10071
-0.737801
-11.482
-0.203742
11.6857
-11.4244
6.01132
0.145966
-6.01132
11.3891
-0.994856
-0.121316
0.994856
0.031375
1.75481
-0.339212
1.75481
3.73616
-0.215712
-3.73616
-0.0935215
-6.75265
-0.108722
6.75265
-0.155075
-2.18348
-0.449511
2.18348
-0.428665
-4.26737
4.30713
1.90976
-2.3363
-2.64101
-5.60294
1.85524
1.89858
4.30181
-10.1686
-6.01304
-9.98175
7.21459
-6.94621
-9.3308
9.24119
7.92039
-7.9785
-5.77753
5.82858
6.48459
-6.43919
1.87941
1.87393
8.06227
-7.81305
-15.6789
15.3004
7.58696
-7.5462
15.8331
-15.8602
-17.8813
17.9415
-5.704
5.80093
-6.7424
6.73622
-6.97872
6.92744
-2.79818
-3.66039
13.1402
-12.9803
8.57995
-8.6389
-8.66609
9.02247
3.3846
0.922536
3.42962
-1.88182
3.76123
-1.87151
3.78127
2.74501
-5.54319
2.56454
-5.20555
4.36296
4.21699
-4.29246
-1.31048
-5.92851
5.95698
-5.80893
5.86948
9.16775
-9.15236
-1.88498
3.75891
-1.86908
3.76766
-3.42309
-2.35444
3.37807
0.923744
8.08184
5.05838
-8.26861
-1.71314
-8.02153
7.80582
-8.21422
8.0105
-0.437541
5.83861
-5.40106
4.43674
-1.65219
7.49079
5.5624
5.75728
5.86059
-5.58634
1.08563
-6.48669
-6.39957
-2.31479
2.41544
2.20364
-2.1149
6.13322
1.78717
6.029
-5.80078
-2.17772
-5.85389
3.81991
2.00867
3.86862
4.08205
2.40254
4.11975
3.02968
-3.03666
0.00697275
-3.05922
6.08891
0.722252
-5.41366
-4.48992
4.98908
3.07318
5.21569
-5.58822
-2.22483
-5.16163
-9.58238
-6.09652
-10.1775
10.0923
5.20805
9.8096
-11.9656
11.8105
4.87502
2.71195
4.86525
-4.95269
-2.59351
-4.88808
11.6818
-2.64795
-9.03383
-10.3377
-7.54363
10.3432
5.48985
10.9836
6.95791
11.0749
4.43206
7.24972
-9.92191
2.37828
-3.86662
-1.83738
-3.77667
3.65459
2.14634
3.79221
-4.21875
-2.52364
-4.20339
-4.29488
-2.68385
4.32243
2.41379
-4.41634
-3.79788
4.54518
2.38226
4.05713
-10.0702
4.31659
-7.97698
-9.21447
-3.76581
-9.08281
3.54054
2.60069
-6.14123
-2.00265
8.51868
-4.30169
7.2082
-5.20262
-3.43629
-5.21779
-6.95812
-1.70796
-6.79959
-8.9293
8.43837
-9.22466
8.58922
12.532
-5.64154
-6.89045
-3.96698
-2.47221
3.92216
-0.49254
-3.71005
3.71702
0.0511753
3.83244
4.75498
4.26244
-3.88193
-1.92701
-3.82627
3.82082
2.04867
3.88738
6.84191
2.32584
6.87057
-6.60296
-2.5494
-6.68923
9.10644
-8.68364
2.79486
-2.70615
5.37295
2.63755
-5.15174
-2.86979
6.23931
-3.20693
-3.03238
-12.3447
10.8008
1.54391
-4.8539
-0.417153
-0.440739
-5.57176
-3.75904
5.45283
0.304455
11.1052
7.34619
-5.51465
5.76382
6.17106
6.2221
-0.177478
5.89404
-5.18826
5.2729
-2.70304
-2.56987
5.4687
-5.62114
-1.22053
-5.53773
4.31721
0.407855
1.52671
-1.30859
-1.80169
-0.513103
-1.67127
1.2312
0.972443
1.31627
0.94237
1.47307
-2.92476
0.548475
2.37628
-1.98239
-1.56643
-3.79317
-1.15189
4.94506
5.72506
2.08076
-5.63154
-0.222349
2.57579
-2.46821
-0.815638
-2.97753
2.23072
-3.04636
-3.47701
-1.92975
5.40677
-3.36865
-0.457617
3.31624
0.552386
-3.82808
-2.10043
3.79108
0.328677
-3.12879
6.19023
-3.06144
-5.05579
2.52895
3.55996
4.53762
-4.79002
2.44912
2.3409
-1.23006
4.26113
0.954563
4.42549
-7.05666
4.83184
5.72979
3.29268
-6.20208
1.04044
-6.01622
8.56294
-7.41105
-1.15189
4.1112
4.45173
7.03754
5.49445
-5.67962
12.7172
-1.16315
-6.2479
7.17937
-3.88669
4.86827
-8.75496
-10.3627
4.11483
-9.20318
11.0677
-1.86448
-3.60971
-8.35587
12.8129
-1.21322
-11.5997
8.59638
-4.3227
-4.37919
8.70189
-6.97065
6.9727
-2.00211
-4.97058
-10.1522
-5.70801
10.261
1.54955
-9.93149
12.3098
-2.68177
4.16121
0.704037
4.15256
3.3536
-5.47823
2.12463
3.61706
-5.61917
2.06543
-7.54366
-6.75987
12.1012
-5.34134
-10.5257
-9.55359
-0.972091
2.55228
9.75748
-9.51019
7.44316
2.06703
3.29671
0.59067
-3.37256
-0.404114
0.237919
4.51136
-4.74928
4.03013
4.20472
3.21937
1.29199
3.84927
2.10771
-3.87093
-0.332467
-4.16825
1.4844
-1.75446
-3.69393
5.17833
-4.06192
0.36799
-2.74498
-3.49147
6.23645
-4.58235
3.03642
3.1538
5.08509
-4.91269
1.42122
-2.39056
-2.52214
2.6407
-4.39516
2.00023
3.1781
4.38249
0.584614
5.9072
6.19401
-8.50789
0.530915
11.2524
-9.53925
2.48054
8.59433
-9.9237
0.370105
-8.7127
0.97742
-5.27911
-5.16381
5.22032
-6.92828
-3.53464
6.24592
0.624649
-6.39861
-0.400983
-6.06691
-2.86239
-6.51642
-3.06345
-6.16121
-8.74307
-1.67362
-7.06945
6.76475
-6.68188
-3.49561
7.41968
1.16954
-7.48151
7.36019
-7.54029
7.20108
0.0948758
3.62215
4.35732
1.88511
-2.39209
4.2772
-5.07012
7.39596
-8.73411
3.66399
4.22711
-6.77651
-4.50701
5.06119
4.04525
5.37584
8.9261
-10.3822
1.45605
-10.6561
11.9947
-1.33853
-16.4376
5.78142
-7.51145
2.43218
0.362682
2.53435
0.552644
2.50371
-3.05635
-2.1535
-2.05633
-2.44157
-3.49535
5.93692
1.0676
-3.46965
2.40205
-3.57522
4.64281
-0.0668982
-3.40276
5.19493
-2.69122
5.55761
-3.64211
1.9155
3.54809
5.84433
-2.29624
4.42222
-1.78467
1.94292
-4.23916
-1.55243
-2.95244
5.09878
-3.28401
3.652
-0.349504
4.0015
-4.04379
0.836853
-0.824421
3.3803
3.60777
4.33432
-3.04232
2.93722
-4.72189
-1.30194
-4.13728
-0.959182
-0.186663
-3.7864
3.97307
6.00835
-6.19501
-5.28476
9.52841
-4.24365
7.70622
-5.44166
-2.26455
-4.29406
-4.38959
3.92591
1.96812
9.67434
0.179615
-5.62128
-5.00864
-3.98661
3.09625
2.17665
-1.75468
3.29859
2.19542
-0.668705
0.395561
0.920713
1.76779
-1.37223
0.339693
1.4281
-0.968895
1.7185
0.857284
-1.83527
0.164002
-1.28873
3.51945
1.08755
-2.06
0.687767
0.89403
-3.59707
5.07091
-2.72012
-2.35078
5.96494
1.1461
-3.86623
4.39163
-3.98377
2.43893
-3.59082
-1.4273
-5.41107
-3.6239
-2.48993
4.89199
-3.44699
5.52775
1.41497
-5.3054
6.72037
-3.63025
1.70049
-3.0629
3.92019
-1.01257
-2.05033
2.88299
2.52377
-3.12582
0.148292
-0.242827
2.42141
-2.66423
-0.624956
-2.60734
-4.57593
4.90461
-2.10381
4.55293
2.17339
-1.91749
6.47042
1.80778
-3.72527
-3.24801
-3.70563
-1.38437
3.15324
-0.602268
-4.28581
-5.57285
4.17916
0.246327
-7.06567
7.9257
-0.860032
-3.99249
-0.839351
4.95055
-6.09883
0.479663
-4.0334
3.8923
4.84686
5.09319
-11.3657
-0.233968
-6.15765
1.09985
-7.25751
5.55159
-3.56056
7.67538
-10.3261
6.83053
-9.1566
6.5235
-0.73401
6.25625
-4.13162
2.77758
-8.48559
-6.93604
5.53666
-2.82471
6.24069
-3.19541
9.43611
-5.87718
5.3298
4.1063
-1.04403
-4.17376
-5.30586
4.26183
0.0239424
4.1765
4.98702
-2.87931
4.65455
2.26425
-4.65481
-2.13091
-6.48765
1.83285
-3.33385
-1.92215
3.75499
3.16294
3.75361
1.23285
-3.3495
7.23619
-8.20828
-1.89485
-3.26896
5.2843
-1.02247
3.4311
-6.70006
-1.84802
4.75257
-0.730259
-4.02231
0.888969
-4.42361
1.67134
-6.09496
5.25694
-5.65792
2.25432
-9.76577
-5.22719
-5.19581
-2.27965
-5.26065
-7.58153
5.30189
-1.80011
5.56008
-8.52152
7.79126
-3.47315
8.77504
-5.46302
-1.05341
5.89168
1.3094
10.0844
0.157289
-4.6643
-1.93759
3.74063
-1.80304
1.15866
-3.62912
0.111518
2.48737
3.47757
-6.80458
0.0280684
-4.63623
-3.91082
7.95607
5.61759
11.6259
1.24379
9.14361
-1.18754
10.3874
4.1883
4.42573
-3.00911
4.46516
0.963962
4.62795
-0.899504
2.81501
1.63484
1.70353
0.764674
2.30389
1.30387
3.14075
0.0843952
-1.97193
4.63587
-8.62248
-0.985407
-8.07642
1.16477
5.42923
-4.26446
2.88488
-0.708223
1.08183
-0.158723
-1.23523
1.39395
-2.72859
-1.90393
-0.475836
-1.64718
2.33495
1.87227
-1.85911
-0.869476
0.332746
-3.95665
3.25807
-3.10978
-0.586004
6.13437
-2.89273
0.228501
-1.19224
-2.37884
-2.89194
2.72794
6.1742
0.296224
3.11276
5.20083
3.1004
0.221092
3.81691
-5.68139
-3.72675
-5.91536
-0.363773
4.58678
1.74888
8.0086
5.85518
4.8327
-1.86736
-10.0756
6.50988
-2.04472
5.17135
-1.14903
-4.94592
5.07251
2.32345
-5.69716
0.0392396
-4.90668
-6.9514
-0.48173
8.27299
-9.60271
8.5493
5.68691
1.38254
-4.43922
-0.756595
4.29077
0.134967
10.5224
-0.910565
-7.06606
7.97662
-4.51866
3.53325
0.679765
2.61883
2.07372
1.36549
-5.70056
-9.96502
-2.05686
-1.5402
-4.40765
0.537407
-2.40968
6.07476
-2.5415
3.8102
5.43512
6.51695
-2.04974
-4.14528
6.29339
-2.48319
4.03376
)
;

boundaryField
{
    wall-4
    {
        type            calculated;
        value           uniform 0;
    }
    velocity-inlet-5
    {
        type            calculated;
        value           uniform -3.75095;
    }
    velocity-inlet-6
    {
        type            calculated;
        value           uniform -5.62643;
    }
    pressure-outlet-7
    {
        type            calculated;
        value           nonuniform List<scalar> 8(3.33574 7.761 4.40859 9.70113 7.43701 5.13221 5.76137 8.9763);
    }
    wall-8
    {
        type            calculated;
        value           uniform 0;
    }
    frontAndBackPlanes
    {
        type            empty;
        value           nonuniform 0();
    }
}


// ************************************************************************* //
