/*--------------------------------*- C++ -*----------------------------------*\
  =========                 |
  \\      /  F ield         | OpenFOAM: The Open Source CFD Toolbox
   \\    /   O peration     | Website:  https://openfoam.org
    \\  /    A nd           | Version:  6
     \\/     M anipulation  |
\*---------------------------------------------------------------------------*/
FoamFile
{
    version     2.0;
    format      ascii;
    class       surfaceScalarField;
    location    "24.3";
    object      phi;
}
// * * * * * * * * * * * * * * * * * * * * * * * * * * * * * * * * * * * * * //

dimensions      [0 3 -1 0 0 0 0];

internalField   nonuniform List<scalar> 
17370
(
-0.0900007
0.0898492
0.289162
-0.0714625
0.0537523
0.364486
-0.03812
0.0276929
0.426595
-0.0196416
0.0146068
0.504287
-0.010761
0.00826713
0.601896
-0.00626395
0.0048845
0.720437
-0.00372096
0.00288687
0.863741
-0.00215832
0.00161174
1.036
-0.00110841
0.000706819
1.2429
-0.000313683
-6.61174e-05
1.49157
0.00042729
-0.000830006
1.49159
0.00123032
-0.00173026
1.24319
0.00227149
-0.00299205
1.03636
0.00381861
-0.00497374
0.864062
0.00634484
-0.00833898
0.721052
0.0108253
-0.0146633
0.603053
0.0196914
-0.0277356
0.507483
0.0381565
-0.0537823
0.431794
0.0714867
-0.0898653
0.365154
0.0900103
0.199001
-0.128133
0.0882213
0.0399116
-0.364595
0.35337
-0.0746792
0.0859045
-0.446476
0.454315
-0.0844045
0.076566
-0.521184
0.529903
-0.0684658
0.0597469
-0.612778
0.621566
-0.0515512
0.0427627
-0.726869
0.734149
-0.0352909
0.0280116
-0.867454
0.872533
-0.0224157
0.0173363
-1.03846
1.04185
-0.0135766
0.0101881
-1.2446
1.247
-0.00762435
0.00522738
-1.49265
1.49462
-0.00330221
0.00134037
-1.49249
1.49422
0.000331258
-0.00205955
-1.24399
1.24588
0.00397166
-0.00586254
-1.0375
1.04003
0.0082173
-0.0107408
-0.866093
0.869812
0.0140856
-0.0178039
-0.724385
0.729943
0.0228385
-0.0283955
-0.608704
0.616141
0.0356345
-0.043071
-0.514907
0.523073
0.0518236
-0.0599898
-0.439867
0.447944
0.0686782
-0.0767548
-0.375308
0.376773
0.0845649
-0.0860301
-0.257353
0.222533
0.0747643
-0.0399443
-0.0685073
0.0586851
0.0098222
-0.0517998
0.0583849
-0.374112
0.367526
-0.0574728
0.0537315
-0.453579
0.457321
-0.0486608
0.0447292
-0.527925
0.531856
-0.0409081
0.0372833
-0.62154
0.625165
-0.0331923
0.0291274
-0.735325
0.73939
-0.0245625
0.0204009
-0.874275
0.878437
-0.0160699
0.0124044
-1.04341
1.04708
-0.00873968
0.00564025
-1.24852
1.25162
-0.00240884
-0.000609131
-1.49662
1.49964
0.0035958
-0.00679454
-1.49721
1.50041
0.00984609
-0.0134493
-1.25006
1.25366
0.0170547
-0.021314
-1.04592
1.05017
0.0254064
-0.0298951
-0.8778
0.882289
0.0338929
-0.037915
-0.739961
0.743983
0.0414805
-0.0452392
-0.626823
0.630581
0.0491183
-0.0541396
-0.534854
0.539875
0.0578292
-0.0586787
-0.457522
0.458372
0.0520214
-0.0318969
-0.335839
0.315715
0.00985836
-0.0684052
0.0585469
-0.0529348
0.0489416
0.00399323
-0.0331423
0.0436838
-0.358089
0.347548
-0.0473782
0.0467402
-0.459258
0.459896
-0.0436599
0.0402728
-0.535753
0.53914
-0.0364658
0.0331499
-0.628462
0.631778
-0.0297311
0.026742
-0.74257
0.745559
-0.0235606
0.0205475
-0.881926
0.884939
-0.0171375
0.0138655
-1.05064
1.05391
-0.0101803
0.00671569
-1.25502
1.25848
-0.00281575
-0.000932916
-1.50312
1.50686
0.00466414
-0.00850509
-1.50404
1.50788
0.0118857
-0.0154667
-1.25739
1.26097
0.018635
-0.0219289
-1.05396
1.05726
0.024837
-0.0279063
-0.885781
0.888851
0.0307965
-0.0341118
-0.747267
0.750583
0.0373399
-0.0410597
-0.634406
0.638126
0.0443739
-0.0473725
-0.544231
0.547229
0.0479266
-0.0441168
-0.456714
0.452904
0.0334408
-0.0161077
-0.296436
0.279103
0.00403835
-0.0527566
0.0487182
-0.0458695
0.0433845
0.00248509
-0.0227317
0.0330861
-0.336867
0.326512
-0.0389065
0.0399501
-0.459557
0.458513
-0.0388085
0.0365832
-0.541825
0.544051
-0.033973
0.031405
-0.634794
0.637362
-0.0283523
0.0254594
-0.748575
0.751468
-0.0222173
0.0192641
-0.887865
0.890819
-0.0160178
0.0129851
-1.05701
1.06004
-0.00955382
0.00627242
-1.26186
1.26514
-0.00246759
-0.00125378
-1.51065
1.51437
0.00495144
-0.00868145
-1.51171
1.51544
0.0118695
-0.0151685
-1.26439
1.26769
0.0180626
-0.02115
-1.06037
1.06346
0.0239615
-0.0270557
-0.89194
0.895034
0.0298225
-0.0327433
-0.753836
0.756757
0.0351944
-0.0376834
-0.641229
0.643718
0.0398077
-0.0408231
-0.549072
0.550087
0.0396529
-0.0336535
-0.447715
0.441716
0.023107
-0.01007
-0.264033
0.250996
0.00253971
-0.0455967
0.043057
-0.04132
0.0395729
0.0017471
-0.0165908
0.025765
-0.316706
0.307532
-0.0323017
0.034394
-0.456908
0.454816
-0.0339345
0.0322391
-0.545967
0.547663
-0.0300571
0.0279958
-0.639593
0.641654
-0.0256521
0.0233812
-0.754059
0.75633
-0.020695
0.0180782
-0.893664
0.896281
-0.0150423
0.0121629
-1.063
1.06588
-0.00886198
0.00568504
-1.26836
1.27153
-0.00197649
-0.00166953
-1.51806
1.5217
0.00527906
-0.00888186
-1.51909
1.5227
0.0119214
-0.015043
-1.27088
1.27401
0.0177436
-0.0205777
-1.06647
1.0693
0.0230126
-0.0255026
-0.897887
0.900377
0.027599
-0.0297596
-0.759242
0.761403
0.0316694
-0.0337027
-0.645889
0.647922
0.0352621
-0.0355576
-0.550668
0.550964
0.0332768
-0.0264829
-0.435234
0.42844
0.0170539
-0.00717574
-0.239685
0.229807
0.00181381
-0.0409323
0.0391185
-0.0380697
0.0367659
0.00130388
-0.0125395
0.0203643
-0.29902
0.291195
-0.0270382
0.0299481
-0.452284
0.449374
-0.0301785
0.0290907
-0.549105
0.550193
-0.0271371
0.0252625
-0.643631
0.645506
-0.0231312
0.021096
-0.758428
0.760463
-0.0187354
0.0164204
-0.898697
0.901012
-0.0136701
0.0109686
-1.06867
1.07137
-0.00780274
0.00475541
-1.27466
1.27771
-0.00124574
-0.00214533
-1.52523
1.52862
0.00549647
-0.00888251
-1.5262
1.52958
0.0117581
-0.0146975
-1.27706
1.28
0.0171721
-0.0196641
-1.07195
1.07445
0.0217473
-0.0238626
-0.902598
0.904713
0.0256801
-0.0275848
-0.763411
0.765316
0.0292657
-0.0310271
-0.649844
0.651606
0.0319085
-0.0314425
-0.550903
0.550437
0.0282649
-0.0212468
-0.421462
0.414444
0.0131024
-0.00544063
-0.221123
0.213461
0.00138506
-0.0375429
0.0361578
-0.0356379
0.0346658
0.000972064
-0.00953701
0.0159952
-0.284071
0.277613
-0.0222527
0.02553
-0.446212
0.442935
-0.0263339
0.0257362
-0.550959
0.551557
-0.0241406
0.0225031
-0.647262
0.6489
-0.0205887
0.0187045
-0.762468
0.764352
-0.0164923
0.0143334
-0.903268
0.905427
-0.0118288
0.00939519
-1.07393
1.07637
-0.00655352
0.00377384
-1.28061
1.28339
-0.00049571
-0.00272655
-1.53191
1.53514
0.00588558
-0.00898442
-1.53284
1.53594
0.011531
-0.0140741
-1.28276
1.2853
0.0162145
-0.0183862
-1.07679
1.07896
0.0202458
-0.0221548
-0.906755
0.908664
0.0237741
-0.025419
-0.767108
0.768753
0.0268241
-0.0281748
-0.653148
0.654498
0.0285305
-0.0274135
-0.549598
0.548481
0.0237805
-0.0170782
-0.407537
0.400835
0.0102235
-0.00420498
-0.206689
0.20067
0.00107129
-0.034943
0.0338717
-0.0338214
0.0330907
0.000730651
-0.00725036
0.0124982
-0.271767
0.266519
-0.0181242
0.0214719
-0.439603
0.436256
-0.0226204
0.0221622
-0.552103
0.552561
-0.0207351
0.019184
-0.650492
0.652043
-0.0174244
0.0157745
-0.766126
0.767776
-0.0138851
0.0120318
-0.907447
0.909301
-0.00983507
0.0076547
-1.07865
1.08083
-0.00506984
0.00250981
-1.28603
1.28859
0.000509038
-0.00346356
-1.53824
1.54119
0.00634366
-0.00913108
-1.5389
1.54169
0.0113923
-0.0136023
-1.28767
1.28988
0.0154189
-0.0172167
-1.08094
1.08274
0.0187174
-0.0202332
-0.910364
0.911879
0.0215492
-0.0229534
-0.770247
0.771651
0.0241942
-0.0252811
-0.655723
0.656809
0.0254018
-0.0238167
-0.547133
0.545548
0.0199971
-0.0138121
-0.394373
0.388188
0.00808235
-0.00330887
-0.195307
0.190534
0.000852012
-0.0329214
0.0320694
-0.0324702
0.0319487
0.000521503
-0.00532591
0.00944256
-0.261852
0.257735
-0.0142737
0.0175331
-0.432923
0.429663
-0.0190358
0.0189081
-0.552874
0.553002
-0.0178362
0.0164579
-0.653539
0.654917
-0.0148565
0.0133439
-0.769388
0.7709
-0.0115833
0.00984723
-0.911079
0.912815
-0.00776286
0.00570985
-1.0829
1.08495
-0.00328961
0.000949523
-1.29099
1.29334
0.00175236
-0.00433461
-1.54393
1.54651
0.00682505
-0.00924232
-1.54432
1.54674
0.0111987
-0.0131333
-1.29196
1.29389
0.0147126
-0.0162573
-1.08439
1.08593
0.017518
-0.0187976
-0.913244
0.914523
0.0199132
-0.021099
-0.772953
0.774139
0.022114
-0.022745
-0.657712
0.658343
0.0224509
-0.0203974
-0.543725
0.541671
0.0165503
-0.0110365
-0.38233
0.376816
0.0063373
-0.00258388
-0.18631
0.182557
0.000669953
-0.0313204
0.0306504
-0.0315147
0.0311573
0.000357352
-0.00373216
0.00682594
-0.254137
0.251043
-0.010754
0.0136825
-0.426548
0.42362
-0.0153008
0.015431
-0.552994
0.552864
-0.0147158
0.0135887
-0.656174
0.657301
-0.0122067
0.0108318
-0.772382
0.773757
-0.00920508
0.00758298
-0.914518
0.916141
-0.00566442
0.00377137
-1.0869
1.08879
-0.00156138
-0.000584667
-1.29552
1.29767
0.0030763
-0.00547033
-1.54895
1.55135
0.00774375
-0.00986961
-1.54901
1.55114
0.0115473
-0.0131473
-1.2957
1.2973
0.0144302
-0.0156917
-1.08737
1.08863
0.0167372
-0.0177741
-0.915695
0.916732
0.0186331
-0.0194709
-0.775121
0.775959
0.0201177
-0.0202419
-0.658718
0.658842
0.0195397
-0.0171944
-0.53946
0.537115
0.0135263
-0.00876652
-0.371676
0.366916
0.00496932
-0.00203659
-0.179236
0.176303
0.000542485
-0.030058
0.0295155
-0.0308841
0.030695
0.000189065
-0.00215944
0.0042385
-0.248463
0.246384
-0.00717433
0.00959578
-0.420938
0.418517
-0.011124
0.0113775
-0.552669
0.552416
-0.0108034
0.00981691
-0.658369
0.659355
-0.00856889
0.00736532
-0.775122
0.776326
-0.00595577
0.00455806
-0.91764
0.919037
-0.00288863
0.00125672
-1.09046
1.09209
0.000660949
-0.00254703
-1.29963
1.30152
0.00473511
-0.00682882
-1.55361
1.5557
0.00876738
-0.010493
-1.55313
1.55485
0.011761
-0.0129109
-1.29871
1.29986
0.0137836
-0.014552
-1.08966
1.09043
0.0151658
-0.0158114
-0.917536
0.918182
0.0164035
-0.0170224
-0.776603
0.777222
0.017424
-0.0172898
-0.658825
0.658691
0.0163156
-0.0138817
-0.53475
0.532316
0.0105502
-0.00660212
-0.362585
0.358637
0.0036703
-0.00150992
-0.173783
0.171622
0.000416551
-0.0290483
0.0286317
-0.0306001
0.0305804
1.96564e-05
-0.000758325
0.00193139
-0.244788
0.243615
-0.00392353
0.00580261
-0.416385
0.414506
-0.00715912
0.00749075
-0.552135
0.551804
-0.00706584
0.00630201
-0.660269
0.661033
-0.00530133
0.00431454
-0.77749
0.778477
-0.00311229
0.00184919
-0.920321
0.921584
-0.000291822
-0.00125918
-1.09357
1.09512
0.00309029
-0.00482215
-1.30323
1.30497
0.006765
-0.00853099
-1.55755
1.55932
0.010119
-0.0115333
-1.55642
1.55783
0.0125493
-0.0133877
-1.30086
1.3017
0.013966
-0.0144403
-1.09107
1.09155
0.0147485
-0.0149909
-0.918606
0.918849
0.0151552
-0.0153336
-0.777556
0.777734
0.0153478
-0.0148595
-0.658398
0.65791
0.0135775
-0.0110551
-0.529902
0.527379
0.00804852
-0.00483004
-0.355107
0.351888
0.0026237
-0.00107652
-0.169823
0.168276
0.000301475
-0.0282933
0.0279919
-0.0306279
0.0307419
-0.000114055
0.000258194
0.000190084
-0.242848
0.242399
-0.00132542
0.00265224
-0.41291
0.411584
-0.00382015
0.00425974
-0.551397
0.550958
-0.00407268
0.00353322
-0.661699
0.662238
-0.00269068
0.00177908
-0.779536
0.780447
-0.000595394
-0.000668784
-0.922799
0.924063
0.00221434
-0.00374038
-1.09654
1.09807
0.00549397
-0.00715761
-1.30658
1.30824
0.00900782
-0.0106549
-1.56098
1.56262
0.0120839
-0.0132585
-1.55913
1.5603
0.0140266
-0.014618
-1.30249
1.30308
0.0149655
-0.0151933
-1.09193
1.09216
0.0152557
-0.0151917
-0.918919
0.918855
0.0150733
-0.0148545
-0.777565
0.777346
0.0143894
-0.0133847
-0.657126
0.656122
0.0117579
-0.0091673
-0.524884
0.522293
0.00647406
-0.0038372
-0.34904
0.346403
0.00209725
-0.000869929
-0.166961
0.165733
0.000242945
-0.0277465
0.0275036
-0.0308944
0.0310797
-0.000185346
0.000842218
-0.000890618
-0.242243
0.242292
0.00046945
0.000251534
-0.410586
0.409865
-0.00103543
0.00136481
-0.550545
0.550216
-0.00119288
0.000739804
-0.662774
0.663227
3.16461e-06
-0.000876399
-0.781449
0.782323
0.00206267
-0.00335015
-0.925259
0.926546
0.00493666
-0.006497
-1.09949
1.10105
0.0082884
-0.00995781
-1.30983
1.3115
0.011779
-0.0133712
-1.56418
1.56577
0.0146756
-0.0156556
-1.56137
1.56235
0.0161874
-0.0164625
-1.30356
1.30384
0.0164805
-0.0163085
-1.09223
1.09206
0.0160528
-0.0157278
-0.918629
0.918304
0.0153576
-0.0148238
-0.776843
0.776309
0.0140601
-0.0127719
-0.654964
0.653676
0.0109681
-0.00842817
-0.519801
0.517261
0.00601463
-0.00370961
-0.344034
0.341729
0.00211542
-0.000905288
-0.164585
0.163375
0.00025538
-0.0272827
0.0270273
-0.0312917
0.0315352
-0.000243523
0.00124636
-0.00161091
-0.242483
0.242847
0.00170413
-0.00155754
-0.409487
0.40934
0.00135618
-0.00139999
-0.550037
0.550081
0.00178682
-0.0023782
-0.663798
0.664389
0.00327919
-0.00427319
-0.783331
0.784325
0.00557576
-0.00692992
-0.927755
0.92911
0.00856096
-0.0101291
-1.1025
1.10407
0.0118931
-0.0135216
-1.31308
1.31471
0.0152546
-0.016701
-1.56727
1.56871
0.0177951
-0.0184756
-1.56321
1.56389
0.0187071
-0.0186618
-1.304
1.30396
0.018427
-0.0179823
-1.09172
1.09127
0.0174411
-0.0167264
-0.917706
0.916992
0.0160378
-0.0152521
-0.775563
0.774778
0.0142953
-0.0128852
-0.65232
0.65091
0.0110985
-0.00871735
-0.51491
0.512528
0.0064485
-0.00415259
-0.339556
0.33726
0.00244139
-0.00106757
-0.16215
0.160776
0.000305549
-0.0267783
0.0264727
-0.0318104
0.032115
-0.000304682
0.00166071
-0.00225962
-0.243314
0.243913
0.0026897
-0.0029347
-0.409472
0.409717
0.0032414
-0.0037541
-0.550403
0.550916
0.00464284
-0.00565749
-0.665289
0.666303
0.00688264
-0.00813659
-0.78553
0.786784
0.00966513
-0.0111897
-0.930375
0.9319
0.0129476
-0.0145865
-1.10551
1.10715
0.0164013
-0.0179966
-1.31621
1.3178
0.0195907
-0.020797
-1.56997
1.57117
0.0215715
-0.0218975
-1.5644
1.56472
0.0218219
-0.0214101
-1.30378
1.30337
0.0208579
-0.0201078
-1.09068
1.08993
0.0193234
-0.0184414
-0.916077
0.915195
0.0176118
-0.0166377
-0.773753
0.772779
0.0155909
-0.0141706
-0.649509
0.648089
0.0124012
-0.00994243
-0.510323
0.507865
0.00745907
-0.0048473
-0.33495
0.332338
0.00287348
-0.00127426
-0.159358
0.157759
0.000371497
-0.026171
0.0257996
-0.0324678
0.0328582
-0.000390466
0.00225319
-0.0031442
-0.244645
0.245536
0.00384057
-0.00425226
-0.410083
0.410495
0.00471029
-0.00538168
-0.551606
0.552278
0.00646015
-0.00772175
-0.667638
0.6689
0.00931235
-0.0109347
-0.788286
0.789908
0.0129194
-0.0148209
-0.933412
0.935313
0.0169421
-0.0189063
-1.10875
1.11071
0.0210386
-0.0228861
-1.31936
1.32121
0.0246766
-0.0259601
-1.5723
1.57358
0.0267268
-0.0269492
-1.56492
1.56514
0.0267164
-0.0260708
-1.30283
1.30219
0.0252026
-0.0240978
-1.08898
1.08787
0.0231039
-0.022033
-0.914196
0.913125
0.0210477
-0.0200355
-0.771656
0.770644
0.0188741
-0.0171299
-0.646614
0.644869
0.0148445
-0.0116871
-0.505315
0.502157
0.00863352
-0.0055743
-0.329635
0.326576
0.00332537
-0.00150076
-0.156125
0.1543
0.000448206
-0.0254316
0.0249834
-0.0333107
0.0338258
-0.000515135
0.00312826
-0.00449538
-0.246651
0.248018
0.00563076
-0.00623067
-0.410982
0.411582
0.00659275
-0.00709111
-0.553016
0.553514
0.00800371
-0.00921094
-0.670349
0.671557
0.0109414
-0.0128912
-0.791741
0.793691
0.0153156
-0.0177049
-0.937201
0.93959
0.0204821
-0.0230771
-1.11277
1.11536
0.0258995
-0.0283545
-1.32321
1.32566
0.0307609
-0.032537
-1.57499
1.57677
0.0336972
-0.0342299
-1.56545
1.56598
0.0341493
-0.0336574
-1.30161
1.30112
0.0328784
-0.0317801
-1.08669
1.08559
0.0305545
-0.0290532
-0.911664
0.910162
0.0276565
-0.025963
-0.769285
0.767591
0.0238851
-0.0209223
-0.642729
0.639767
0.0174865
-0.0133133
-0.498734
0.494561
0.00969008
-0.00627944
-0.3235
0.32009
0.00379763
-0.00174406
-0.152467
0.150413
0.000529578
-0.024548
0.0240184
-0.0344196
0.0351134
-0.0006938
0.00434025
-0.00639576
-0.249707
0.251763
0.00828059
-0.00936864
-0.412382
0.41347
0.00982071
-0.0100695
-0.554067
0.554315
0.0106568
-0.0117271
-0.672931
0.674001
0.01349
-0.0156166
-0.795707
0.797834
0.018528
-0.0215721
-0.942011
0.945055
0.0251593
-0.0285281
-1.11813
1.1215
0.0321853
-0.0353423
-1.32834
1.3315
0.038432
-0.0407384
-1.57875
1.58106
0.0422656
-0.0430236
-1.56664
1.56739
0.0430636
-0.0425478
-1.30063
1.30012
0.0416943
-0.0403708
-1.08432
1.083
0.0388635
-0.0369621
-0.908319
0.906418
0.0348548
-0.0319039
-0.765164
0.762213
0.0285642
-0.0241046
-0.636125
0.631666
0.019616
-0.014746
-0.490269
0.485399
0.0107927
-0.00712402
-0.316768
0.313099
0.00438265
-0.00203883
-0.148348
0.146005
0.000624824
-0.023506
0.0228812
-0.0359071
0.0368549
-0.000947734
0.00596108
-0.0089249
-0.254226
0.257189
0.011871
-0.0138491
-0.415008
0.416986
0.0149945
-0.0154752
-0.554949
0.555429
0.0160279
-0.0170998
-0.675263
0.676335
0.0190589
-0.0216406
-0.800018
0.8026
0.0252179
-0.0288799
-0.948106
0.951768
0.0331518
-0.037112
-1.12495
1.12891
0.0413432
-0.044923
-1.33474
1.33832
0.0483263
-0.0507394
-1.58338
1.58579
0.0521735
-0.0526473
-1.56803
1.5685
0.0523247
-0.0513332
-1.29941
1.29842
0.0499555
-0.048035
-1.08135
1.07943
0.0459366
-0.0431735
-0.903941
0.901178
0.040066
-0.0359345
-0.758402
0.75427
0.0315993
-0.0263617
-0.626803
0.621565
0.0214921
-0.016429
-0.480756
0.475693
0.0122897
-0.00828637
-0.309581
0.305577
0.00515921
-0.00240868
-0.143638
0.140888
0.000735964
-0.0222856
0.0215496
-0.0379149
0.039222
-0.00130711
0.00810482
-0.0121797
-0.26061
0.264685
0.0163884
-0.0195122
-0.41972
0.422844
0.0217983
-0.0232175
-0.556921
0.55834
0.0246472
-0.0264163
-0.677791
0.67956
0.029252
-0.0325399
-0.805266
0.808554
0.0367074
-0.0408173
-0.955309
0.959419
0.045491
-0.0497208
-1.13276
1.13698
0.0541203
-0.0577015
-1.34174
1.34532
0.0608896
-0.062862
-1.58792
1.58989
0.0636476
-0.0632842
-1.56856
1.56819
0.0621025
-0.0600828
-1.29692
1.2949
0.0577472
-0.0547749
-1.07694
1.07396
0.0516823
-0.0478457
-0.897633
0.893796
0.0438998
-0.0391116
-0.749486
0.744698
0.0343933
-0.0290211
-0.616259
0.610886
0.0241385
-0.0189642
-0.471008
0.465834
0.0144899
-0.00990588
-0.301708
0.297124
0.00619484
-0.00288184
-0.1381
0.134787
0.000871708
-0.0208475
0.0199758
-0.0406236
0.042459
-0.00183541
0.0111352
-0.0166502
-0.269227
0.274742
0.0223772
-0.026848
-0.427088
0.431558
0.0306271
-0.0334829
-0.561379
0.564235
0.0364629
-0.0396119
-0.682085
0.685234
0.0436463
-0.0477634
-0.811782
0.815899
0.0526072
-0.0571593
-0.963343
0.967895
0.0621285
-0.0664492
-1.14097
1.14529
0.0707246
-0.0739601
-1.34852
1.35176
0.0764794
-0.077541
-1.59129
1.59235
0.0772029
-0.0755181
-1.56713
1.56544
0.0731013
-0.0697492
-1.29219
1.28884
0.0662366
-0.062006
-1.07025
1.06602
0.0578618
-0.0530947
-0.889192
0.884425
0.0485574
-0.0434205
-0.739377
0.734241
0.0385807
-0.0331675
-0.605517
0.600104
0.0281445
-0.0225516
-0.460972
0.455379
0.0174305
-0.011971
-0.292664
0.287204
0.00746794
-0.00345077
-0.131435
0.127418
0.00103375
-0.019136
0.0181023
-0.044356
0.0470244
-0.00266845
0.0156679
-0.0231052
-0.280737
0.288174
0.0306567
-0.0366374
-0.437693
0.443673
0.0419785
-0.0463643
-0.569006
0.573391
0.0511863
-0.0559789
-0.689217
0.69401
0.0615791
-0.0668428
-0.820043
0.825307
0.0726338
-0.0777637
-0.972293
0.977423
0.0830524
-0.087372
-1.14927
1.15359
0.0913159
-0.0939478
-1.35445
1.35708
0.0954661
-0.0952941
-1.59263
1.59246
0.0935374
-0.0902771
-1.56288
1.55962
0.0864623
-0.0816618
-1.2847
1.2799
0.0769001
-0.0714186
-1.06103
1.05555
0.0663009
-0.0606893
-0.878895
0.873283
0.0556022
-0.0500864
-0.728469
0.722953
0.0450074
-0.0392861
-0.594525
0.588804
0.0337741
-0.0273406
-0.449968
0.443534
0.0212089
-0.0145319
-0.281842
0.275165
0.00900544
-0.00411602
-0.123378
0.118489
0.00121517
-0.0171177
0.0159025
-0.049669
0.0537972
-0.00412821
0.0230133
-0.0331569
-0.296229
0.306372
0.0430646
-0.0508885
-0.452229
0.460053
0.0579641
-0.0640558
-0.580136
0.586228
0.0709703
-0.0775379
-0.699565
0.706133
0.0847966
-0.0912328
-0.83057
0.837007
0.0979161
-0.103509
-0.982337
0.987929
0.108922
-0.113012
-1.15745
1.16154
0.116336
-0.11808
-1.359
1.36075
0.118277
-0.116597
-1.59133
1.58965
0.113203
-0.108217
-1.55537
1.55039
0.102918
-0.0966037
-1.27427
1.26795
0.0905779
-0.0838723
-1.04931
1.04261
0.0777961
-0.0713027
-0.866855
0.860362
0.0655693
-0.0594864
-0.716569
0.710486
0.053911
-0.0475167
-0.582606
0.576211
0.0411145
-0.0334026
-0.437122
0.42941
0.0258964
-0.0176606
-0.268613
0.260377
0.010846
-0.0048862
-0.113639
0.107679
0.00141407
-0.0147528
0.0133387
-0.0576377
0.0648411
-0.00720339
0.036363
-0.0507227
-0.317821
0.33218
0.0642171
-0.0741891
-0.471793
0.481765
0.0829272
-0.0907297
-0.595205
0.603008
0.099762
-0.107855
-0.713164
0.721257
0.116303
-0.123396
-0.843207
0.8503
0.1304
-0.135931
-0.99307
0.998601
0.140917
-0.144275
-1.16492
1.16827
0.146472
-0.14687
-1.36153
1.36192
0.145326
-0.14179
-1.58681
1.58328
0.136498
-0.129614
-1.54429
1.53741
0.122723
-0.114839
-1.26075
1.25287
0.107528
-0.0995861
-1.03513
1.02719
0.092521
-0.0850864
-0.852965
0.84553
0.0786026
-0.0717799
-0.703241
0.696419
0.0654944
-0.0580505
-0.56895
0.561507
0.0503457
-0.0408857
-0.421499
0.412039
0.031579
-0.0213997
-0.252265
0.242085
0.013002
-0.00575263
-0.101951
0.094702
0.00161052
-0.0120315
0.010421
-0.0717154
0.0754444
-0.00372906
0.0266561
-0.039171
-0.349469
0.361984
0.0510576
-0.060308
-0.496928
0.506178
0.0692976
-0.0787427
-0.614036
0.623482
0.0894959
-0.0990469
-0.728867
0.738418
0.109609
-0.118906
-0.856594
0.865891
0.128582
-0.136899
-1.00319
1.0115
0.145209
-0.151896
-1.17048
1.17717
0.157908
-0.161897
-1.36102
1.36501
0.164152
-0.163745
-1.57834
1.57793
0.16052
-0.154877
-1.52925
1.52361
0.148156
-0.139576
-1.24401
1.23543
0.131189
-0.121137
-1.01843
1.00837
0.112006
-0.102089
-0.83711
0.827193
0.0933279
-0.0840242
-0.688103
0.678799
0.0751712
-0.0649665
-0.552837
0.542632
0.0544328
-0.0416441
-0.402098
0.38931
0.0298939
-0.0182424
-0.231925
0.220274
0.0097541
-0.0036528
-0.0880176
0.0819163
0.000742845
-0.00903073
0.00828789
-0.0827805
0.0802467
0.00253382
0.00496895
-0.0125984
-0.377485
0.385114
0.0213462
-0.0285733
-0.519981
0.527208
0.0367027
-0.0448922
-0.634463
0.642652
0.0545708
-0.0634116
-0.747735
0.756576
0.0727893
-0.0812558
-0.874748
0.883214
0.0900587
-0.0973117
-1.01954
1.0268
0.10475
-0.110377
-1.18366
1.18929
0.11535
-0.118286
-1.36865
1.37159
0.119165
-0.117599
-1.57653
1.57496
0.113338
-0.106767
-1.51694
1.51037
0.0991467
-0.0898125
-1.22617
1.21683
0.0808658
-0.0707064
-0.997831
0.987671
0.0612478
-0.0508636
-0.815987
0.805602
0.0417184
-0.0325852
-0.666476
0.657343
0.024858
-0.0168287
-0.52939
0.52136
0.0097939
-0.00356428
-0.375746
0.369516
-0.000272441
0.00242875
-0.208217
0.20606
-0.00294301
0.00209419
-0.0751095
0.0759583
-0.000955855
-0.00674852
0.00770438
-0.0831986
0.0801444
0.00305419
-0.00320447
-0.000720829
-0.396107
0.400032
0.00615316
-0.0116339
-0.538197
0.543677
0.0183393
-0.025438
-0.651976
0.659074
0.0337383
-0.0413453
-0.76478
0.772387
0.0496259
-0.0569639
-0.891025
0.898362
0.0643729
-0.0708523
-1.03391
1.04039
0.0773083
-0.0822793
-1.19453
1.1995
0.0862533
-0.0883634
-1.3739
1.37601
0.088779
-0.0867362
-1.57273
1.57069
0.0821644
-0.0755173
-1.50318
1.49654
0.0680953
-0.0593237
-1.20742
1.19865
0.0506343
-0.0411032
-0.977195
0.967664
0.032299
-0.0227321
-0.795201
0.785634
0.0145265
-0.00626272
-0.646548
0.638285
-0.000417495
0.00672786
-0.510768
0.504457
-0.0107985
0.0128341
-0.360871
0.358835
-0.0124682
0.0102469
-0.201078
0.203299
-0.0073577
0.00395726
-0.0754698
0.0788702
-0.0014065
-0.00754579
0.00895229
-0.0815675
0.0786447
0.00292284
-0.00634776
0.0046741
-0.408014
0.409687
-0.00134994
-0.00287589
-0.552232
0.556458
0.00878307
-0.0147676
-0.666511
0.672496
0.0218898
-0.0284345
-0.779638
0.786183
0.0355164
-0.0418135
-0.905281
0.911578
0.0485685
-0.0541102
-1.0465
1.05204
0.0598304
-0.0638336
-1.20415
1.20815
0.0673217
-0.0691209
-1.37799
1.37979
0.0692133
-0.0669263
-1.56835
1.56606
0.0627252
-0.0566842
-1.48952
1.48348
0.0499788
-0.0418187
-1.18988
1.18172
0.034139
-0.0257656
-0.958095
0.949722
0.0179262
-0.00974246
-0.77618
0.767996
0.00238935
0.00475436
-0.628797
0.621653
-0.0103731
0.0149952
-0.496004
0.491382
-0.0174146
0.0176604
-0.353035
0.352789
-0.0156517
0.0117667
-0.20231
0.206195
-0.00815211
0.00410599
-0.0806594
0.0847055
-0.00136214
-0.00938233
0.0107445
-0.0798535
0.0773819
0.00247158
-0.00702051
0.00669361
-0.415882
0.416209
-0.00416559
0.000924645
-0.563722
0.566963
0.00393234
-0.00934067
-0.678857
0.684266
0.0153735
-0.0211787
-0.79228
0.798086
0.027375
-0.0329151
-0.917564
0.923104
0.0387998
-0.0438271
-1.05752
1.06255
0.0487842
-0.0526109
-1.2121
1.21593
0.0557508
-0.0573819
-1.38135
1.38299
0.0574651
-0.0553955
-1.56377
1.5617
0.0516425
-0.0460971
-1.47702
1.47147
0.0401652
-0.0331332
-1.17377
1.16674
0.0264797
-0.0191317
-0.941355
0.934007
0.0125056
-0.00549906
-0.759788
0.752782
-0.000543317
0.0064748
-0.613881
0.60795
-0.0109494
0.014491
-0.484588
0.481046
-0.0162935
0.0161383
-0.348858
0.349013
-0.0139675
0.0104122
-0.206262
0.209818
-0.00710877
0.00348156
-0.0865141
0.0901413
-0.00116633
-0.0111956
0.0123619
-0.0784375
0.0763786
0.00205891
-0.00658581
0.0065382
-0.421238
0.421285
-0.00504089
0.00225459
-0.572771
0.575557
0.00235067
-0.0069836
-0.689468
0.694101
0.0122269
-0.0173291
-0.803316
0.808418
0.022909
-0.0279434
-0.928426
0.93346
0.0334402
-0.0379676
-1.06739
1.07192
0.0425848
-0.0461841
-1.21958
1.22317
0.0491314
-0.0507114
-1.38447
1.38605
0.0508898
-0.0494642
-1.5597
1.55827
0.0461356
-0.0413976
-1.46572
1.46098
0.0361664
-0.0299879
-1.15978
1.1536
0.0244074
-0.0179686
-0.926793
0.920355
0.0122854
-0.00648419
-0.745929
0.740128
0.00147043
0.00338842
-0.601743
0.596884
-0.00702287
0.00997743
-0.47571
0.472755
-0.0112085
0.0110457
-0.34593
0.346093
-0.00959524
0.00689946
-0.209466
0.212162
-0.00453168
0.00224731
-0.0910891
0.0933734
-0.000776617
-0.0125936
0.0133702
-0.0774684
0.0758992
0.0015692
-0.00547494
0.0056018
-0.425281
0.425154
-0.00420516
0.00199725
-0.580846
0.583054
0.00218796
-0.00639177
-0.6988
0.703004
0.0114217
-0.015899
-0.813305
0.817782
0.0208926
-0.0254488
-0.938579
0.943135
0.0307685
-0.0349972
-1.07656
1.08079
0.0392472
-0.0428054
-1.22669
1.23024
0.0460962
-0.0477406
-1.38774
1.38939
0.0482599
-0.0470853
-1.55657
1.5554
0.044525
-0.0401645
-1.45619
1.45183
0.0357107
-0.0304089
-1.14745
1.14215
0.0254009
-0.0199555
-0.914129
0.908683
0.0149971
-0.00983761
-0.734246
0.729087
0.00575667
-0.00150676
-0.591642
0.587392
-0.00173377
0.00416187
-0.468351
0.465923
-0.00542693
0.0056703
-0.343296
0.343053
-0.00494381
0.00347643
-0.21108
0.212547
-0.00223717
0.00114464
-0.0933237
0.0944162
-0.000440043
-0.013268
0.0137081
-0.0770578
0.0758489
0.0012089
-0.0042616
0.00442948
-0.428594
0.428426
-0.00301952
0.000815571
-0.587964
0.590168
0.00304317
-0.00684704
-0.707286
0.711089
0.0112358
-0.0156036
-0.822348
0.826716
0.0202956
-0.0250533
-0.947601
0.952359
0.0297462
-0.0338799
-1.08519
1.08932
0.0383653
-0.0418171
-1.23376
1.23721
0.0448017
-0.0470113
-1.39103
1.39324
0.0479072
-0.0472352
-1.55436
1.55369
0.0450611
-0.0414746
-1.44772
1.44413
0.0375338
-0.0327619
-1.13663
1.13185
0.0283141
-0.0233728
-0.903177
0.898235
0.0189062
-0.0143985
-0.723989
0.719481
0.0104316
-0.006626
-0.582733
0.578927
0.00372326
-0.00119452
-0.462025
0.459496
-0.000306053
0.000831982
-0.340139
0.339613
-0.00102467
0.00088334
-0.210671
0.210812
-0.000723652
0.000494619
-0.0934899
0.0937189
-0.000283399
-0.0133366
0.01362
-0.0772047
0.0761968
0.00100792
-0.00291556
0.00283028
-0.431709
0.431794
-0.00158134
-0.000720625
-0.594537
0.596839
0.00427384
-0.0079722
-0.715254
0.718953
0.0122252
-0.0162473
-0.831006
0.835028
0.0211084
-0.0251503
-0.95664
0.960682
0.029878
-0.0339141
-1.09367
1.09771
0.0383753
-0.0421069
-1.24071
1.24444
0.045493
-0.0476224
-1.39529
1.39742
0.0489963
-0.048853
-1.55301
1.55286
0.0474133
-0.0442135
-1.44044
1.43725
0.0407379
-0.0363717
-1.12717
1.1228
0.0322851
-0.0276012
-0.893075
0.888391
0.0234835
-0.0190975
-0.714691
0.710305
0.0153261
-0.0115926
-0.574663
0.570929
0.00859733
-0.00614572
-0.455744
0.453293
0.00430372
-0.00316144
-0.336229
0.335087
0.00213425
-0.00124407
-0.208384
0.207493
0.000525963
4.02687e-05
-0.0919622
0.0913959
-0.000184124
-0.0129506
0.0131347
-0.0776387
0.0769346
0.000704175
-0.00175597
0.00121109
-0.435022
0.435567
-8.48522e-05
-0.00232602
-0.600423
0.602834
0.00557259
-0.00916733
-0.722749
0.726344
0.0132785
-0.0174552
-0.839022
0.843199
0.0217617
-0.0260041
-0.965004
0.969246
0.0307484
-0.0346345
-1.10222
1.1061
0.0392595
-0.0430261
-1.24804
1.25181
0.0465613
-0.049302
-1.40001
1.40275
0.0512603
-0.0514992
-1.5528
1.55304
0.0503441
-0.0478408
-1.4342
1.43169
0.0448413
-0.0407422
-1.11823
1.11413
0.0368077
-0.0325257
-0.883558
0.879276
0.0282151
-0.0240603
-0.705614
0.701459
0.0203265
-0.0164878
-0.56695
0.563111
0.0135065
-0.0106462
-0.449345
0.446484
0.00846369
-0.00651794
-0.331488
0.329543
0.00489205
-0.00313818
-0.204493
0.202739
0.00161424
-0.000434743
-0.0891701
0.0879906
-5.70909e-05
-0.0122527
0.0123097
-0.0784599
0.0779057
0.00055418
-0.000795632
0.000277974
-0.438584
0.439101
0.00142874
-0.0036517
-0.60642
0.608643
0.00706374
-0.0105434
-0.729792
0.733271
0.0145214
-0.0183342
-0.847145
0.850958
0.0227951
-0.0267673
-0.973553
0.977526
0.0315023
-0.0358584
-1.11048
1.11484
0.0401887
-0.0443313
-1.25567
1.25981
0.0483526
-0.0512559
-1.40543
1.40834
0.0536749
-0.0547296
-1.55352
1.55458
0.0540579
-0.0521715
-1.42905
1.42716
0.0493314
-0.0455572
-1.10998
1.10621
0.0418535
-0.0375328
-0.874462
0.870142
0.0334068
-0.0291775
-0.696732
0.692503
0.025399
-0.0213746
-0.558896
0.554872
0.0180871
-0.0149488
-0.44253
0.439392
0.0121516
-0.00955567
-0.325499
0.322903
0.00722058
-0.00473336
-0.199079
0.196592
0.00266071
-0.000960366
-0.0853931
0.0836927
0.000122402
-0.0113705
0.0112481
-0.0795337
0.0791453
0.000388426
0.000246297
-0.0009898
-0.44231
0.443054
0.00256396
-0.00503544
-0.612036
0.614507
0.00836601
-0.0116957
-0.736615
0.739945
0.0157639
-0.0194512
-0.854823
0.85851
0.0237852
-0.0279004
-0.982017
0.986132
0.0325745
-0.0369266
-1.11909
1.12344
0.04151
-0.0457246
-1.26392
1.26813
0.0499832
-0.05368
-1.41157
1.41526
0.0566056
-0.0580138
-1.5556
1.55701
0.0580609
-0.0564833
-1.42515
1.42357
0.0541335
-0.0507818
-1.10229
1.09894
0.0470311
-0.0427697
-0.865445
0.861184
0.038653
-0.0342133
-0.687814
0.683375
0.030405
-0.026163
-0.550735
0.546494
0.0226745
-0.0190078
-0.435163
0.431496
0.0158334
-0.0125655
-0.318351
0.315083
0.0094269
-0.00622379
-0.192302
0.189099
0.0036041
-0.00141574
-0.0806813
0.0784929