/*--------------------------------*- C++ -*----------------------------------*\
  =========                 |
  \\      /  F ield         | OpenFOAM: The Open Source CFD Toolbox
   \\    /   O peration     | Website:  https://openfoam.org
    \\  /    A nd           | Version:  6
     \\/     M anipulation  |
\*---------------------------------------------------------------------------*/
FoamFile
{
    version     2.0;
    format      ascii;
    class       surfaceScalarField;
    location    "86.6";
    object      phi;
}
// * * * * * * * * * * * * * * * * * * * * * * * * * * * * * * * * * * * * * //

dimensions      [0 3 -1 0 0 0 0];

internalField   nonuniform List<scalar> 
17370
(
-0.0900001
0.089849
0.289162
-0.0714624
0.0537523
0.364486
-0.038119
0.0276896
0.426597
-0.0196375
0.0146042
0.504285
-0.0107618
0.00827113
0.601893
-0.00627116
0.00489452
0.720434
-0.0037306
0.00289016
0.863747
-0.00214891
0.00159002
1.03601
-0.00107366
0.000661463
1.24292
-0.000254567
-0.000141487
1.49159
0.000520864
-0.000930941
1.4916
0.00132932
-0.00181804
1.24318
0.00234392
-0.00304796
1.03634
0.00386125
-0.00500533
0.864051
0.00637122
-0.00836387
0.72105
0.0108489
-0.0146845
0.60305
0.019711
-0.0277549
0.507483
0.0381763
-0.0538005
0.431792
0.0715019
-0.0898756
0.365149
0.0900162
0.198995
-0.128137
0.0882282
0.0399089
-0.3646
0.35338
-0.0746704
0.0858896
-0.446477
0.454322
-0.0843857
0.0765408
-0.521191
0.529903
-0.0684429
0.0597305
-0.612789
0.62157
-0.0515406
0.0427597
-0.726895
0.734166
-0.0352977
0.0280268
-0.867476
0.872593
-0.0224246
0.0173075
-1.03847
1.04193
-0.0134964
0.0100454
-1.2446
1.24703
-0.00743355
0.00499935
-1.49262
1.4946
-0.00304974
0.00106792
-1.49251
1.49423
0.000605338
-0.00232923
-1.24397
1.24586
0.00423473
-0.00612042
-1.03751
1.04003
0.00847531
-0.0109993
-0.8661
0.869826
0.0143472
-0.0180734
-0.72439
0.729932
0.0231128
-0.0286555
-0.608697
0.61611
0.035869
-0.0432819
-0.514896
0.523039
0.0520108
-0.0601538
-0.439855
0.447913
0.0688154
-0.076873
-0.375294
0.376738
0.0846686
-0.086112
-0.257329
0.222475
0.0748212
-0.0399671
-0.0685222
0.0586977
0.00982449
-0.0518028
0.0583832
-0.374131
0.36755
-0.0574647
0.0537103
-0.453597
0.457352
-0.0486181
0.0446633
-0.52795
0.531905
-0.0408207
0.0371791
-0.621568
0.625209
-0.0330743
0.0289956
-0.735353
0.739432
-0.0244218
0.0202594
-0.874345
0.878508
-0.01591
0.0122129
-1.04349
1.04719
-0.00847185
0.00529603
-1.24857
1.25174
-0.00196524
-0.00110969
-1.49666
1.49974
0.00415826
-0.00742562
-1.4972
1.50047
0.0105063
-0.0141095
-1.25007
1.25367
0.0176597
-0.0218406
-1.04592
1.0501
0.0258611
-0.0302973
-0.877756
0.882192
0.0342652
-0.0382599
-0.739895
0.74389
0.0418077
-0.0455533
-0.626769
0.630515
0.0494246
-0.0544371
-0.534806
0.539819
0.0581039
-0.0589129
-0.45747
0.458279
0.0522033
-0.0319956
-0.335744
0.315536
0.00988961
-0.0683402
0.0584506
-0.0529488
0.0489557
0.00399315
-0.0331459
0.0436838
-0.358122
0.347584
-0.0473759
0.046744
-0.459293
0.459925
-0.0436837
0.0403268
-0.53581
0.539167
-0.0365496
0.0332413
-0.628538
0.631846
-0.0297986
0.0267622
-0.742659
0.745695
-0.0234982
0.0203868
-0.88203
0.885142
-0.0168511
0.0134669
-1.05078
1.05417
-0.00966847
0.00612558
-1.25518
1.25872
-0.00215233
-0.00164755
-1.50325
1.50705
0.00541461
-0.00928929
-1.50413
1.50801
0.0126967
-0.0163034
-1.25741
1.26102
0.0194831
-0.0227832
-1.05391
1.05721
0.0256933
-0.0287584
-0.885676
0.888741
0.0316319
-0.0349119
-0.747145
0.750425
0.0380827
-0.0417198
-0.634295
0.637932
0.0449566
-0.0478799
-0.544125
0.547048
0.0483672
-0.0444718
-0.45656
0.452664
0.0336912
-0.0162304
-0.296162
0.278701
0.00407435
-0.0526283
0.0485539
-0.0458807
0.0433885
0.00249221
-0.0227837
0.0331505
-0.336904
0.326537
-0.0389612
0.0399706
-0.459615
0.458605
-0.0387735
0.0364814
-0.54189
0.544182
-0.0338078
0.0312059
-0.634902
0.637504
-0.028136
0.0252303
-0.748746
0.751652
-0.0219584
0.018958
-0.888101
0.891101
-0.0156456
0.0125396
-1.05731
1.06041
-0.00900668
0.00559235
-1.26218
1.2656
-0.00162463
-0.00226202
-1.51093
1.51482
0.00610471
-0.00994093
-1.51189
1.51573
0.0131763
-0.0164582
-1.26445
1.26773
0.0192965
-0.0222998
-1.06031
1.06331
0.0250329
-0.0280378
-0.891785
0.89479
0.0307218
-0.0335686
-0.753625
0.756472
0.035982
-0.0384664
-0.640992
0.643476
0.0405968
-0.0415805
-0.548845
0.549828
0.0403474
-0.0342099
-0.447372
0.441235
0.0234852
-0.01025
-0.263467
0.250232
0.00259263
-0.045387
0.0427944
-0.0413172
0.0395544
0.00176285
-0.0167159
0.0259498
-0.316699
0.307465
-0.0325385
0.0346664
-0.457015
0.454887
-0.0342355
0.0325572
-0.546166
0.547844
-0.0303683
0.0282655
-0.639815
0.641918
-0.0258253
0.0234193
-0.754303
0.756709
-0.020551
0.0177524
-0.894004
0.896803
-0.0145057
0.0114269
-1.06347
1.06654
-0.00792677
0.00459301
-1.26893
1.27226
-0.000753477
-0.00298353
-1.51861
1.52235
0.0066641
-0.0103348
-1.51946
1.52313
0.013439
-0.0166183
-1.27097
1.27415
0.0193552
-0.0222069
-1.06634
1.06919
0.024662
-0.0271851
-0.897591
0.900114
0.029304
-0.0314562
-0.758912
0.761064
0.0333178
-0.0352633
-0.645621
0.647566
0.0367069
-0.0368482
-0.550334
0.550476
0.034377
-0.0273091
-0.434549
0.427482
0.0175925
-0.00742525
-0.238679
0.228512
0.00188558
-0.0406103
0.0387247
-0.0380371
0.0367132
0.00132383
-0.0127458
0.0206672
-0.298893
0.290971
-0.0273921
0.0302961
-0.452342
0.449438
-0.0304853
0.0293533
-0.549283
0.550416
-0.0273492
0.0254218
-0.643962
0.645889
-0.0232092
0.0210598
-0.758958
0.761107
-0.0185305
0.0160333
-0.899387
0.901884
-0.0130753
0.0101815
-1.06949
1.07239
-0.00680413
0.00355026
-1.27553
1.27878
0.000207678
-0.0038428
-1.526
1.52964
0.00740713
-0.0109526
-1.52672
1.53026
0.0139185
-0.0168941
-1.27727
1.28024
0.0193601
-0.021824
-1.07193
1.07439
0.0238909
-0.0259858
-0.902385
0.90448
0.0277723
-0.0296195
-0.763035
0.764883
0.0312419
-0.0329499
-0.649375
0.651083
0.0337404
-0.0331454
-0.55025
0.549655
0.0297501
-0.0223683
-0.420197
0.412816
0.0138258
-0.00576613
-0.219498
0.211438
0.00147319
-0.0370699
0.0355967
-0.0355584
0.0345408
0.00101753
-0.00993791
0.0166203
-0.283695
0.277013
-0.0230678
0.0264139
-0.446294
0.442948
-0.0271726
0.0264559
-0.551334
0.552051
-0.0246813
0.0228824
-0.647796
0.649595
-0.0207951
0.0187616
-0.763193
0.765226
-0.0163698
0.0140229
-0.904236
0.906583
-0.0112618
0.00855604
-1.07512
1.07782
-0.00537649
0.00227359
-1.28192
1.28502
0.00135238
-0.00487466
-1.5332
1.53672
0.0083092
-0.0116717
-1.5337
1.53706
0.0144188
-0.0171028
-1.28309
1.28578
0.0192809
-0.0214326
-1.07676
1.07892
0.0232481
-0.0251019
-0.906437
0.908291
0.0266852
-0.0283194
-0.766615
0.768249
0.02974
-0.0311038
-0.652648
0.654011
0.0313972
-0.0300627
-0.548699
0.547365
0.026039
-0.0187259
-0.405439
0.398126
0.0112623
-0.00466953
-0.204179
0.197587
0.00119924
-0.0342749
0.0330757
-0.0336495
0.0328601
0.000789317
-0.0078514
0.0134519
-0.270902
0.265301
-0.019402
0.0229338
-0.4395
0.435969
-0.0241598
0.0236849
-0.552682
0.553157
-0.0221715
0.0204777
-0.651393
0.653087
-0.0184801
0.016527
-0.767212
0.769165
-0.014221
0.011956
-0.908821
0.911086
-0.0092922
0.0066916
-1.0804
1.083
-0.00364822
0.000684408
-1.28801
1.29097
0.00277393
-0.00612478
-1.54013
1.54349
0.0093678
-0.0125028
-1.54028
1.54342
0.0150311
-0.0174689
-1.28835
1.29079
0.0194242
-0.021342
-1.08105
1.08296
0.0229551
-0.0245991
-0.910028
0.911672
0.0259987
-0.0274385
-0.769775
0.771215
0.028659
-0.0296355
-0.655177
0.656154
0.029552
-0.0275412
-0.545685
0.543675
0.023104
-0.0160428
-0.39093
0.383868
0.00947108
-0.0039144
-0.191559
0.186002
0.00101023
-0.0319814
0.0309712
-0.0321695
0.0315578
0.000611678
-0.00623612
0.0109106
-0.260193
0.255518
-0.016257
0.0197765
-0.432445
0.428926
-0.021314
0.021058
-0.553562
0.553819
-0.0197696
0.0181306
-0.654803
0.656442
-0.0161832
0.0142737
-0.771085
0.772995
-0.0120199
0.00980693
-0.913246
0.915459
-0.00720457
0.00466798
-1.08549
1.08803
-0.00170865
-0.00115546
-1.29383
1.29669
0.00446851
-0.00764712
-1.54671
1.54989
0.0106937
-0.0136113
-1.54641
1.54932
0.0159437
-0.018165
-1.29314
1.29537
0.0199155
-0.0216097
-1.08489
1.08658
0.0230277
-0.0244723
-0.913199
0.914644
0.0257033
-0.0269656
-0.772554
0.773817
0.0280424
-0.0285969
-0.656927
0.657481
0.0281233
-0.0255371
-0.541374
0.538788
0.0208369
-0.0140874
-0.376967
0.370217
0.00821341
-0.00339144
-0.180848
0.176026
0.000880047
-0.0300344
0.0291543
-0.0310273
0.0305603
0.000467053
-0.00493063
0.0088042
-0.251272
0.247399
-0.0135021
0.0168596
-0.425499
0.422142
-0.0185676
0.0184935
-0.554031
0.554105
-0.01739
0.0157809
-0.658135
0.659744
-0.0138489
0.0119472
-0.774883
0.776785
-0.00970359
0.0075069
-0.917573
0.919769
-0.00493325
0.00243475
-1.09046
1.09296
0.000466747
-0.00325739
-1.29946
1.30225
0.00645856
-0.00949658
-1.55296
1.556
0.0123746
-0.0150962
-1.5521
1.55482
0.0172434
-0.0192518
-1.29751
1.29952
0.0207983
-0.0222714
-1.08831
1.08978
0.0235032
-0.0247633
-0.915972
0.917232
0.0258424
-0.0269438
-0.774982
0.776083
0.0278137
-0.0280019
-0.65784
0.658029
0.0271015
-0.0240181
-0.535951
0.532867
0.0191459
-0.0126936
-0.36363
0.357178
0.00734345
-0.00303639
-0.171491
0.167184
0.000793267
-0.0283252
0.027532
-0.0301629
0.0298189
0.000343988
-0.00383157
0.00699896
-0.243905
0.240737
-0.0110355
0.0141199
-0.418941
0.415857
-0.0158699
0.0159396
-0.554165
0.554095
-0.0149081
0.0133638
-0.661398
0.662942
-0.0114175
0.00948924
-0.778677
0.780605
-0.00721545
0.00499782
-0.921872
0.92409
-0.00241317
-8.12278e-05
-1.09536
1.09785
0.00295879
-0.00570503
-1.30495
1.3077
0.00882522
-0.0117497
-1.55894
1.56186
0.0144803
-0.0170191
-1.5574
1.55994
0.0189865
-0.0207843
-1.30145
1.30325
0.0221282
-0.023384
-1.09131
1.09257
0.0244359
-0.0255199
-0.918375
0.919459
0.0264547
-0.0273944
-0.777077
0.778017
0.0280031
-0.0278908
-0.658069
0.657957
0.0265261
-0.0229799
-0.529557
0.52601
0.0179719
-0.0117551
-0.350865
0.344648
0.00677407
-0.00281095
-0.163075
0.159112
0.000740387
-0.0267722
0.0260319
-0.0295377
0.0293042
0.000233453
-0.00286269
0.00538994
-0.237915
0.235388
-0.00876399
0.0114911
-0.412978
0.410251
-0.0131676
0.0133057
-0.554059
0.553921
-0.0123073
0.0107949
-0.664559
0.666071
-0.00880975
0.00682449
-0.782529
0.784514
-0.00448368
0.00220926
-0.926216
0.92849
0.000427949
-0.00295678
-1.10025
1.10278
0.00585161
-0.00858848
-1.31037
1.3131
0.0116621
-0.0145002
-1.56469
1.56753
0.0171038
-0.0194748
-1.56234
1.56471
0.0212721
-0.0228652
-1.30498
1.30657
0.0240053
-0.0250391
-1.09391
1.09495
0.0259051
-0.0268031
-0.920417
0.921315
0.0275814
-0.0283552
-0.778802
0.779576
0.0286797
-0.0282372
-0.657707
0.657265
0.0264077
-0.0224159
-0.522264
0.518272
0.0172674
-0.0111962
-0.338532
0.33246
0.00644605
-0.00268844
-0.155275
0.151518
0.000714356
-0.0253114
0.024597
-0.0291306
0.0290029
0.000127788
-0.00195998
0.00388356
-0.233187
0.231263
-0.00658854
0.00888687
-0.40777
0.405472
-0.0103808
0.0105077
-0.553872
0.553745
-0.00950697
0.00798611
-0.667693
0.669213
-0.00593189
0.00385701
-0.786497
0.788572
-0.00140998
-0.000958425
-0.930674
0.933042
0.00368982
-0.00629126
-1.10523
1.10783
0.00924444
-0.0120069
-1.31577
1.31853
0.0150668
-0.017842
-1.57028
1.57306
0.0203346
-0.0225481
-1.56693
1.56914
0.0241805
-0.0255684
-1.3081
1.30948
0.026501
-0.0273071
-1.0961
1.09691
0.027978
-0.0286787
-0.922081
0.922782
0.0293007
-0.0299321
-0.780174
0.780805
0.0299071
-0.0290551
-0.65664
0.655788
0.0267475
-0.0223067
-0.514096
0.509655
0.0169842
-0.0109567
-0.326444
0.320416
0.00631507
-0.00264917
-0.147829
0.144163
0.000710034
-0.0238916
0.0231816
-0.0289354
0.0289146
2.08078e-05
-0.00107501
0.00240717
-0.229657
0.228325
-0.00442714
0.00623151
-0.403456
0.401652
-0.00743873
0.00747148
-0.553771
0.553738
-0.00641941
0.00484925
-0.670883
0.672453
-0.00268363
0.000483418
-0.790647
0.792848
0.00211179
-0.00461411
-0.935321
0.937823
0.00748498
-0.0102011
-1.11036
1.11307
0.0132578
-0.0160844
-1.32124
1.32406
0.0191673
-0.0219069
-1.57575
1.57849
0.0243069
-0.0263728
-1.5712
1.57326
0.027843
-0.0290234
-1.31081
1.31199
0.0297483
-0.0303239
-1.09786
1.09844
0.0307932
-0.0312846
-0.923346
0.923837
0.031725
-0.0320974
-0.781172
0.781545
0.0317754
-0.030436
-0.654747
0.653407
0.027609
-0.0226773
-0.505023
0.500091
0.0171134
-0.0110107
-0.314389
0.308286
0.00636021
-0.00268365
-0.140516
0.136839
0.000724982
-0.0224712
0.0217462
-0.0289542
0.0290439
-8.9685e-05
-0.000159351
0.000891229
-0.227311
0.226579
-0.00219636
0.00344037
-0.400165
0.398921
-0.00425925
0.00411329
-0.553931
0.554077
-0.00295188
0.00127419
-0.674221
0.675899
0.00104019
-0.00340863
-0.795048
0.797417
0.0062017
-0.00888466
-0.940237
0.94292
0.0119466
-0.0148233
-1.11572
1.1186
0.0180313
-0.0209623
-1.32684
1.32977
0.0241077
-0.0268405
-1.58116
1.58389
0.0291663
-0.0310906
-1.57516
1.57708
0.0323967
-0.0333674
-1.31309
1.31407
0.0338794
-0.034217
-1.09917
1.09951
0.0344747
-0.0347457
-0.924181
0.924452
0.0349786
-0.035019
-0.781603
0.781644
0.0343644
-0.0324561
-0.651866
0.649958
0.0290459
-0.0235499
-0.494948
0.489452
0.0176504
-0.0113412
-0.302124
0.295815
0.00656677
-0.00278452
-0.133134
0.129352
0.000756966
-0.0210125
0.0202555
-0.0292055
0.0294279
-0.000222471
0.000799654
-0.000724292
-0.226176
0.226101
0.00018802
0.00041995
-0.398028
0.39742
-0.000745537
0.000329109
-0.554537
0.554953
0.00101386
-0.00285974
-0.677829
0.679675
0.00538151
-0.00796934
-0.799786
0.802374
0.0110178
-0.0139345
-0.945517
0.948434
0.0172456
-0.0203348
-1.12142
1.12451
0.0237477
-0.0268258
-1.33266
1.33574
0.0300696
-0.0328162
-1.58655
1.5893
0.0350758
-0.0368611
-1.57883
1.58061
0.038004
-0.0387621
-1.31493
1.31569
0.0390523
-0.0391311
-1.1
1.10008
0.0391579
-0.0391943
-0.924554
0.92459
0.0392382
-0.0388511
-0.781359
0.780972
0.0377719
-0.035201
-0.64785
0.645279
0.0311164
-0.024948
-0.483709
0.47754
0.018593
-0.0119338
-0.289379
0.28272
0.00692129
-0.00294433
-0.125497
0.12152
0.000803529
-0.0194827
0.0186792
-0.0297229
0.0300907
-0.000367806
0.00187101
-0.00242418
-0.226349
0.226902
0.00275045
-0.00289875
-0.397189
0.397337
0.00321794
-0.00401639
-0.555811
0.55661
0.0056044
-0.00768577
-0.681834
0.683915
0.0104897
-0.0133625
-0.804961
0.807834
0.0167347
-0.0199468
-0.95127
0.954482
0.023574
-0.0269344
-1.12755
1.13091
0.0306108
-0.0338821
-1.33878
1.34205
0.0372647
-0.0400484
-1.59198
1.59476
0.0422464
-0.0438807
-1.58218
1.58382
0.0448433
-0.0453852
-1.3163
1.31684
0.0454478
-0.0452479
-1.10029
1.10009
0.0450247
-0.0448117
-0.924412
0.924199
0.0446276
-0.0437336
-0.780258
0.779364
0.0421386
-0.038777
-0.642511
0.639149
0.0338889
-0.0268991
-0.471071
0.464081
0.0199421
-0.0127765
-0.275862
0.268696
0.00741098
-0.00315544
-0.11743
0.113174
0.000861984
-0.0178539
0.0169919
-0.0305331
0.0310796
-0.000546408
0.00316159
-0.00450308
-0.227883
0.229225
0.0057355
-0.00668295
-0.397854
0.398801
0.00774893
-0.0090456
-0.55799
0.559286
0.0110045
-0.0134019
-0.686374
0.688772
0.0165731
-0.0198063
-0.810702
0.813935
0.0235843
-0.027166
-0.957623
0.961205
0.0311867
-0.0348827
-1.13424
1.13794
0.0388841
-0.0423935
-1.3453
1.34881
0.045948
-0.0487819
-1.59748
1.60031
0.0509139
-0.0523792
-1.58521
1.58668
0.0531438
-0.0534566
-1.31717
1.31748
0.0532719
-0.052772
-1.10002
1.09952
0.0522856
-0.0518036
-0.923715
0.923232
0.0512465
-0.0498843
-0.778227
0.776865
0.047598
-0.0432803
-0.635582
0.631264
0.0374209
-0.0294187
-0.456719
0.448717
0.0216868
-0.0138474
-0.261254
0.253414
0.00801636
-0.00340671
-0.108767
0.104157
0.000928565
-0.0161037
0.0151752
-0.0317081
0.0324842
-0.000776118
0.00471097
-0.0069516
-0.231012
0.233253
0.00926812
-0.0111478
-0.400238
0.402118
0.0130746
-0.014987
-0.561319
0.563231
0.0174527
-0.0202621
-0.691617
0.694427
0.0239158
-0.0275982
-0.817165
0.820848
0.031877
-0.0359111
-0.964729
0.968763
0.0404097
-0.0445092
-1.14162
1.14571
0.0488949
-0.0526784
-1.3523
1.35608
0.0564218
-0.0593001
-1.60307
1.60594
0.0613448
-0.0626114
-1.58788
1.58914
0.0631433
-0.0632009
-1.31745
1.31751
0.0627474
-0.0619162
-1.09912
1.09829
0.0611429
-0.0603845
-0.92241
0.921651
0.0593563
-0.0574159
-0.775292
0.773351
0.0542984
-0.0488075
-0.626713
0.621222
0.0417547
-0.0324991
-0.44025
0.430995
0.0237929
-0.0151053
-0.245216
0.236528
0.00870392
-0.00367993
-0.0993647
0.0943407
0.000997196
-0.0142187
0.0132216
-0.0333404
0.0344134
-0.00107299
0.00664422
-0.00999096
-0.235961
0.239308
0.0135709
-0.0165254
-0.404619
0.407573
0.0194474
-0.0221037
-0.566086
0.568743
0.0252264
-0.0285869
-0.697775
0.701136
0.0328596
-0.0371064
-0.824534
0.828781
0.0420016
-0.0465839
-0.972755
0.977338
0.0516517
-0.0562197
-1.14981
1.15437
0.0610369
-0.0651136
-1.35984
1.36392
0.0690393
-0.071931
-1.60872
1.61161
0.0738428
-0.0748576
-1.59011
1.59112
0.0751009
-0.0748529
-1.31705
1.31681
0.0741163
-0.0729195
-1.09754
1.09634
0.0718445
-0.0707929
-0.920494
0.919442
0.0692031
-0.066553
-0.771247
0.768597
0.0623828
-0.0554109
-0.615446
0.608474
0.0468725
-0.036071
-0.421165
0.410363
0.0261729
-0.0164708
-0.227404
0.217702
0.00941688
-0.00394694
-0.0891152
0.0836452
0.00105922
-0.0121987
0.0111395
-0.0355563
0.0370438
-0.00148754
0.009197
-0.0139016
-0.243098
0.247803
0.018985
-0.0231854
-0.411357
0.415558
0.0272638
-0.0308194
-0.572616
0.576172
0.0347832
-0.0388616
-0.705138
0.709217
0.043928
-0.0488836
-0.833036
0.837991
0.0545306
-0.0597625
-0.981899
0.987131
0.0654822
-0.0705634
-1.15894
1.16402
0.075823
-0.0801654
-1.36794
1.37228
0.0842039
-0.0870167
-1.61434
1.61716
0.0886969
-0.0893657
-1.59177
1.59244
0.0892688
-0.0886843
-1.31589
1.3153
0.0876033
-0.0860193
-1.09521
1.09362
0.084634
-0.0831174
-0.917871
0.916355
0.081023
-0.0773936
-0.765754
0.762125
0.0718894
-0.0630457
-0.601144
0.5923
0.052659
-0.0399738
-0.398866
0.386181
0.0286645
-0.0178133
-0.207499
0.196647
0.0100686
-0.00416747
-0.077976
0.0720748
0.00110291
-0.0100621
0.00895921
-0.0385649
0.040643
-0.00207806
0.0127225
-0.0191608
-0.252912
0.25935
0.0260481
-0.031698
-0.420949
0.426599
0.0371391
-0.0417944
-0.581303
0.585958
0.0468089
-0.0518169
-0.714064
0.719072
0.0579122
-0.0637421
-0.842954
0.848784
0.070273
-0.0762315
-0.992356
0.998315
0.0826389
-0.0882166
-1.16907
1.17464
0.0938473
-0.0983492
-1.3765
1.381
0.10235
-0.104928
-1.61972
1.6223
0.106227
-0.106411
-1.59265
1.59283
0.105883
-0.104832
-1.31387
1.31282
0.10338
-0.101423
-1.09209
1.09014
0.099712
-0.0976323
-0.914184
0.912105
0.0949546
-0.0900238
-0.758246
0.753315
0.0827635
-0.0715224
-0.582984
0.571743
0.0588408
-0.0439059
-0.372684
0.357749
0.0309976
-0.0189374
-0.185269
0.173209
0.0105393
-0.00428988
-0.0660087
0.0597593
0.00111427
-0.00785182
0.00673755
-0.0426937
0.0456881
-0.00299435
0.0178382
-0.0265586
-0.266144
0.274864
0.0356691
-0.0430597
-0.434069
0.44146
0.0501159
-0.0560925
-0.592646
0.598623
0.0624923
-0.0687622
-0.724994
0.731264
0.0760898
-0.0829062
-0.854589
0.861405
0.0903805
-0.0970555
-1.00425
1.01093
0.104065
-0.110001
-1.18011
1.18605
0.115795
-0.120234
-1.38526
1.3897
0.123931
-0.126026
-1.6245
1.62659
0.126722
-0.126232
-1.59245
1.59196
0.12513
-0.123506
-1.31082
1.30919
0.121669
-0.119297
-1.08811
1.08574
0.117155
-0.114516
-0.909212
0.906572
0.110951
-0.104272
-0.748018
0.741339
0.0946987
-0.0804067
-0.55988
0.545588
0.0649204
-0.0473909
-0.341927
0.324398
0.0327852
-0.0195894
-0.160665
0.147469
0.0106856
-0.00425752
-0.0534222
0.0469942
0.00107914
-0.00563813
0.00455899
-0.0485302
0.0530675
-0.00453729
0.0257513
-0.037554
-0.283974
0.295777
0.0495388
-0.0592688
-0.451786
0.461516
0.0683728
-0.0759487
-0.607225
0.614801
0.0840171
-0.0918083
-0.738375
0.746166
0.10044
-0.108195
-0.868148
0.875903
0.116456
-0.123618
-1.01748
1.02464
0.130898
-0.136841
-1.19169
1.19763
0.142383
-0.146369
-1.39368
1.39767
0.149341
-0.150593
-1.62811
1.62937
0.150388
-0.148982
-1.59077
1.58936
0.147142
-0.144858
-1.30649
1.30421
0.142571
-0.139745
-1.08314
1.08032
0.137111
-0.133813
-0.902861
0.899562
0.128911
-0.119735
-0.73403
0.724854
0.107057
-0.0889238
-0.530465
0.512331
0.0701164
-0.0497725
-0.306022
0.285678
0.0335502
-0.019495
-0.13396
0.119905
0.0103685
-0.00402095
-0.0406064
0.0342588
0.000985046
-0.00351588
0.00253083
-0.0571789
0.0649105
-0.0077316
0.0395762
-0.0559174
-0.308584
0.324925
0.0719555
-0.0848631
-0.475724
0.488632
0.0961264
-0.105199
-0.625543
0.634616
0.114902
-0.124071
-0.754493
0.763662
0.133747
-0.14199
-0.88336
0.891603
0.150409
-0.157427
-1.0314
1.03841
0.164293
-0.169612
-1.20297
1.20829
0.174259
-0.177211
-1.40089
1.40384
0.178903
-0.178845
-1.62979
1.62974
0.177354
-0.174744
-1.58711
1.5845
0.171957
-0.168877
-1.30067
1.29759
0.166063
-0.162721
-1.07703
1.07369
0.159494
-0.155126
-0.894653
0.890285
0.14824
-0.135489
-0.714646
0.701895
0.118611
-0.0957883
-0.493036
0.470213
0.0733986
-0.0503773
-0.264765
0.241744
0.0329142
-0.018508
-0.105912
0.0915055
0.00953593
-0.00356509
-0.0281311
0.0221603
0.000822782
-0.00159344
0.000770661
-0.0720892
0.076425
-0.00433588
0.0302505
-0.0445613
-0.343975
0.358286
0.0589374
-0.070841
-0.507257
0.519161
0.0816261
-0.091828
-0.647367
0.657569
0.103404
-0.114137
-0.772193
0.782926
0.126131
-0.13683
-0.898819
0.909518
0.148315
-0.158634
-1.04454
1.05485
0.169598
-0.179185
-1.21258
1.22217
0.189006
-0.197156
-1.4057
1.41385
0.204907
-0.210592
-1.62858
1.63427
0.214221
-0.216447
-1.58084
1.58306
0.217399
-0.217905
-1.29304
1.29354
0.218311
-0.217748
-1.06938
1.06882
0.216256
-0.211472
-0.883345
0.878561
0.200958
-0.18048
-0.687492
0.667013
0.15354
-0.119082
-0.446099
0.411641
0.0875857
-0.0572599
-0.218751
0.188425
0.0358497
-0.0192962
-0.0778834
0.0613298
0.00948833
-0.00332741
-0.0166666
0.0105057
0.000687948
6.57094e-05
-0.000753657
-0.0840695
0.0821409
0.00192857
0.00825051
-0.0176018
-0.375418
0.384769
0.0285884
-0.0372686
-0.535845
0.544525
0.0460916
-0.0546278
-0.670549
0.679085
0.0651855
-0.0751585
-0.793092
0.803065
0.0859183
-0.0957771
-0.919601
0.92946
0.106348
-0.115505
-1.06491
1.07406
0.125439
-0.133769
-1.23158
1.23991
0.142302
-0.149171
-1.42174
1.42861
0.155345
-0.159745
-1.63935
1.64375
0.162269
-0.163491
-1.58486
1.58608
0.163393
-0.162869
-1.29287
1.29234
0.16239
-0.161433
-1.06593
1.06498
0.158988
-0.152339
-0.86868
0.862031
0.140437
-0.120591
-0.642444
0.622598
0.0976233
-0.0712464
-0.375136
0.348759
0.0496669
-0.0309998
-0.159038
0.14037
0.0187177
-0.00976408
-0.045982
0.0370283
0.00464379
-0.00156866
-0.00460252
0.00152739
0.000290539
0.00164434
-0.00193488
-0.0856457
0.0826792
0.00296649
-0.000942462
-0.00447931
-0.396892
0.402313
0.0118258
-0.0182699
-0.557217
0.563661
0.0248615
-0.0322172
-0.690254
0.697609
0.0414103
-0.050077
-0.811998
0.820665
0.0596405
-0.0682467
-0.93848
0.947086
0.077238
-0.0854254
-1.08306
1.09124
0.0941103
-0.101509
-1.24783
1.25522
0.108664
-0.114295
-1.43488
1.44051
0.119448
-0.122771
-1.64763
1.65096
0.124297
-0.124618
-1.58687
1.58719
0.123856
-0.122773
-1.29105
1.28996
0.121372
-0.119677
-1.06086
1.05917
0.116597
-0.109332
-0.851478
0.844213
0.0978727
-0.0804171
-0.599807
0.582352
0.0622433
-0.0433276
-0.320773
0.301857
0.0294824
-0.0183245
-0.121798
0.11064
0.0111731
-0.00598149
-0.0282095
0.0230179
0.0029333
-0.00103208
0.00174985
-0.00365107
0.000206537
0.00243174
-0.00263828
-0.0843848
0.0814966
0.00288822
-0.00499223
0.00225305
-0.411278
0.414017
0.00254707
-0.00744606
-0.573245
0.578144
0.0129963
-0.0191622
-0.706467
0.712633
0.0270557
-0.0344885
-0.828562
0.835995
0.0426495
-0.0500221
-0.955094
0.962467
0.0581191
-0.0650731
-1.09897
1.10592
0.0726372
-0.0786234
-1.26219
1.26818
0.0847467
-0.0894693
-1.44591
1.45064
0.0934744
-0.095612
-1.65392
1.65606
0.0964556
-0.0962049
-1.58705
1.5868
0.0949858
-0.0930208
-1.28825
1.28628
0.0910615
-0.0886514
-1.05459
1.05218
0.085026
-0.078277
-0.833026
0.826277
0.0680166
-0.0540506
-0.56248
0.548514
0.0407639
-0.0282557
-0.282029
0.26952
0.0196103
-0.0127904
-0.0988496
0.0920296
0.00827731
-0.004789
-0.017261
0.0137727
0.00253762
-0.000981598
0.00597141
-0.00752743
0.000227407
0.00301133
-0.00323874
-0.082788
0.0801871
0.00260096
-0.00648069
0.00543947
-0.420932
0.421973
-0.00184109
-0.00181755
-0.586087
0.589746
0.00623505
-0.0117779
-0.720066
0.725609
0.0183915
-0.0248863
-0.842609
0.849104
0.0319189
-0.0382899
-0.96933
0.975701
0.0452012
-0.0513192
-1.1127
1.11881
0.0576799
-0.0630259
-1.27397
1.27932
0.0681627
-0.0720096
-1.45493
1.45878
0.0750725
-0.0763764
-1.65801
1.65932
0.0764731
-0.0753445
-1.58585
1.58472
0.0735957
-0.0712139
-1.28395
1.28156
0.0687018
-0.0654876
-1.0474
1.04418
0.0617145
-0.0555839
-0.815504
0.809374
0.0472686
-0.0366908
-0.532514
0.521936
0.0275426
-0.0195669
-0.255793
0.247817
0.0141998
-0.00997558
-0.0843563
0.080132
0.00697973
-0.00438099
-0.00961017
0.00701144
0.00252276
-0.00105946
0.00948966
-0.010953
0.000278627
0.00359515
-0.00387378
-0.0812155
0.0789457
0.00226981
-0.0066685
0.0062318
-0.427497
0.427933
-0.00409572
0.0011441
-0.595965
0.598916
0.0030942
-0.00780165
-0.73153
0.736238
0.0134336
-0.0190152
-0.8547
0.860282
0.0251906
-0.030812
-0.981661
0.987283
0.0370286
-0.0423007
-1.1246
1.12987
0.0478741
-0.0525133
-1.28429
1.28893
0.056823
-0.0599141
-1.46225
1.46534
0.0621206
-0.0630296
-1.66043
1.66134
0.0623693
-0.0607036
-1.58304
1.58137
0.0583774
-0.0554034
-1.27869
1.27571
0.0526006
-0.0487144
-1.03928
1.0354
0.0446521
-0.0392166
-0.799495
0.794059
0.032544
-0.0247692
-0.509462
0.501687
0.0186663
-0.0137515
-0.238551
0.233637
0.0106838
-0.0081573
-0.0749734
0.0724469
0.00612471
-0.00416431
-0.00379032
0.00182991
0.00256543
-0.00116823
0.0127333
-0.0141305
0.000335163
0.00423387
-0.00456904
-0.0799069
0.0780872
0.0018197
-0.00602342
0.0060305
-0.432234
0.432226
-0.0043271
0.00214602
-0.604481
0.606662
0.00173768
-0.00595369
-0.741363
0.745579
0.0112039
-0.015944
-0.865389
0.87013
0.0212821
-0.026176
-0.992812
0.997705
0.0319257
-0.0365716
-1.1351
1.13975
0.0413547
-0.0455025
-1.2933
1.29745
0.049577
-0.0520779
-1.46832
1.47082
0.0537649
-0.0539562
-1.6617
1.66189
0.0529943
-0.0504614
-1.57931
1.57677
0.0477745
-0.0443984
-1.27225
1.26887
0.0409455
-0.0367367
-1.03034
1.02613
0.0323549
-0.0271515
-0.784931
0.779727
0.0219186
-0.0161038
-0.491938
0.486124
0.0120736
-0.00935871
-0.227455
0.224741
0.00772787
-0.0063616
-0.0689824
0.0676161
0.0051413
-0.00376624
0.000699909
-0.00207497
0.0024672
-0.00120617
0.0157605
-0.0170215
0.000379471
0.00493952
-0.00531899
-0.0790494
0.0775869
0.00146251
-0.00510754
0.00535341
-0.435795
0.435549
-0.00387373
0.00187185
-0.611749
0.613751
0.0017233
-0.00546052
-0.750052
0.753789
0.00988412
-0.01435
-0.874765
0.879231
0.0191715
-0.0240748
-1.00233
1.00724
0.0288956
-0.033156
-1.14443
1.14869
0.0378154
-0.0414405
-1.30136
1.30499
0.0446486
-0.0471498
-1.47309
1.47559
0.0484516
-0.0483002
-1.66197
1.66181
0.0467712
-0.0440016
-1.57421
1.57144
0.0408653
-0.0369362
-1.26481
1.26088
0.0330659
-0.0283359
-1.02081
1.01608
0.0236491
-0.0187904
-0.771443
0.766585
0.0140509
-0.00963499
-0.478413
0.473997
0.00703001
-0.0055432
-0.220519
0.219032
0.0048358
-0.00433515
-0.0652937
0.064793
0.00374811
-0.00295139
0.00388198
-0.0046787
0.00205943
-0.00107786
0.0183533
-0.0193349
0.000372312
0.00566235
-0.00603466
-0.0787028
0.0774497
0.00125311
-0.00392092
0.00399798
-0.438786
0.438709
-0.00280075
0.000889468
-0.618256
0.620167
0.00238341
-0.00593043
-0.757988
0.761535
0.010076
-0.0140333
-0.883447
0.887405
0.0188584
-0.022819
-1.01148
1.01544
0.0274456
-0.0313529
-1.15303
1.15694
0.0356606
-0.0392215
-1.30848
1.31205
0.0423863
-0.0442789
-1.4777
1.47959
0.0454046
-0.0450527
-1.66139
1.66103
0.0434904
-0.0402371
-1.56829
1.56504
0.0367908
-0.0324193
-1.2567
1.25232
0.0281562
-0.022909
-1.01033
1.00509
0.0179885
-0.0129343
-0.758696
0.753641
0.00868041
-0.00500908
-0.467605
0.463933
0.00303116
-0.00231746
-0.215922
0.215209
0.0021331
-0.00217051
-0.0633458
0.0633832
0.00209812
-0.00186313
0.0057547
-0.0059897
0.00142224
-0.000826847
0.0202326
-0.020828
0.00031131
0.00629352
-0.00660484
-0.0786225
0.077705
0.000917431
-0.00282157
0.00246348
-0.441706
0.442064
-0.00148693
-0.000438922
-0.623886
0.625812
0.00333159
-0.00668529
-0.765244
0.768597
0.0105756
-0.014584
-0.891193
0.895201
0.0186728
-0.0226931
-1.01956
1.02358
0.0271402
-0.0306785
-1.16121
1.16475
0.0348846
-0.038182
-1.3153
1.3186
0.0411043
-0.0432055
-1.48177
1.48387
0.044369
-0.0437751
-1.66052
1.65993
0.0418349
-0.0386191
-1.56171
1.55849
0.0350757
-0.030352
-1.2475
1.24277
0.0256841
-0.0203245
-0.99915
0.993791
0.014774
-0.0096369
-0.745909
0.740772
0.00554283
-0.00216911
-0.458338
0.454964
0.000487216
0.000111783
-0.212641
0.212042
-6.22588e-05
-0.000228919
-0.0625845
0.0628757
0.000523199
-0.0007414
0.00647592
-0.00625772
0.000732767
-0.000519524
0.021276
-0.0214893
0.000229212
0.00673973
-0.00696894
-0.0789479
0.0782086
0.000739237
-0.00187326
0.00157637
-0.444732
0.445029
-0.000117985
-0.00162004
-0.629482
0.63122
0.00464678
-0.00782247
-0.771866
0.775041
0.0114969
-0.01503
-0.898844
0.902378
0.0191655
-0.0227752
-1.02754
1.03115
0.0270532
-0.0309188
-1.16869
1.17255
0.0345904
-0.0380429
-1.32185
1.3253
0.0411578
-0.0430719
-1.48573
1.48764
0.0442274
-0.0439728
-1.65937
1.65912
0.0419769
-0.0388103
-1.55489
1.55173
0.0349425
-0.0301104
-1.23781
1.23298
0.0253703
-0.0196595
-0.987526
0.981815
0.0140721
-0.0085636
-0.733215
0.727706
0.00436463
-0.00100653
-0.449448
0.446089
-0.000780341
0.00149049
-0.209817
0.209107
-0.00154318
0.00117974
-0.0623655
0.0627289
-0.000721313
0.000221449
0.0063027
-0.00580283
6.85784e-05
-0.0001813
0.021523
-0.0214103
0.000116156
0.00698654
-0.00710269
-0.0795764
0.079016
0.000560403
-0.000802655
0.000340294
-0.44785
0.448313
0.000950179
-0.00297075
-0.634597
0.636618
0.00590332
-0.00888822
-0.778144
0.781129
0.0126062
-0.0159395
-0.905862
0.909195
0.0198494
-0.023514
-1.03521
1.03887
0.0276084
-0.0313392
-1.1762
1.17994
0.0351091
-0.0384484
-1.32859
1.33192
0.0415571
-0.0440149
-1.48973
1.49219
0.0453056
-0.0449832
-1.65862
1.6583
0.0432553
-0.0399344
-1.54823
1.5449
0.0361996
-0.0314762
-1.22785
1.22313
0.0264099
-0.0205647
-0.975455
0.96961
0.014861
-0.00894857
-0.720412
0.714499
0.00461991
-0.00101042
-0.440682
0.437072
-0.00091735
0.00196738
-0.206842
0.205792
-0.00221131
0.00196511
-0.0622565
0.0625027
-0.00151988
0.000910941
0.00559908
-0.00499014
-0.000447014
0.000101922
0.0211279
-0.0207828
2.45254e-05
0.0070262
-0.00705073
-0.0804501