/*--------------------------------*- C++ -*----------------------------------*\
  =========                 |
  \\      /  F ield         | OpenFOAM: The Open Source CFD Toolbox
   \\    /   O peration     | Website:  https://openfoam.org
    \\  /    A nd           | Version:  6
     \\/     M anipulation  |
\*---------------------------------------------------------------------------*/
FoamFile
{
    version     2.0;
    format      ascii;
    class       volVectorField;
    location    "48";
    object      U;
}
// * * * * * * * * * * * * * * * * * * * * * * * * * * * * * * * * * * * * * //

dimensions      [0 1 -1 0 0 0 0];

internalField   nonuniform List<vector> 
2200
(
(0.877608 -0.0201808 0)
(1.00469 -0.0399875 0)
(1.00279 -0.03428 0)
(1.00027 -0.0232056 0)
(0.999867 -0.0154923 0)
(1.00004 -0.0101402 0)
(1.00003 -0.00642656 0)
(1.00001 -0.00393028 0)
(0.999974 -0.00215396 0)
(1.00011 -0.000684336 0)
(0.99997 0.0009513 0)
(0.999948 0.00243475 0)
(0.999943 0.00415283 0)
(0.999981 0.00657066 0)
(1.00012 0.0103325 0)
(1.00001 0.0156374 0)
(1.00049 0.0232841 0)
(1.00302 0.0341893 0)
(1.00471 0.0400388 0)
(0.87764 0.0201939 0)
(0.700828 -0.0265887 0)
(0.99361 -0.0586163 0)
(1.02976 -0.0596751 0)
(1.02181 -0.0487927 0)
(1.01389 -0.0360399 0)
(1.00826 -0.0249582 0)
(1.00502 -0.0166943 0)
(1.00319 -0.0105771 0)
(1.00221 -0.00570686 0)
(1.00173 -0.00153046 0)
(1.00179 0.00246965 0)
(1.00217 0.00654357 0)
(1.00312 0.0113847 0)
(1.00497 0.0174899 0)
(1.00807 0.0255755 0)
(1.01352 0.0365538 0)
(1.02135 0.0493106 0)
(1.0293 0.0603104 0)
(0.993499 0.0587342 0)
(0.700556 0.0266251 0)
(0.530426 -0.0214162 0)
(0.966263 -0.0552774 0)
(1.05274 -0.0606245 0)
(1.04844 -0.0533462 0)
(1.03234 -0.0416563 0)
(1.0213 -0.0317548 0)
(1.01381 -0.0229261 0)
(1.0091 -0.0153572 0)
(1.0063 -0.00870809 0)
(1.00485 -0.00236679 0)
(1.00478 0.00396231 0)
(1.00608 0.0102748 0)
(1.00887 0.0167771 0)
(1.01354 0.0241799 0)
(1.02099 0.0328053 0)
(1.03218 0.0425612 0)
(1.04836 0.0539789 0)
(1.05268 0.0606122 0)
(0.965552 0.0556063 0)
(0.529418 0.0215397 0)
(0.393055 -0.013265 0)
(0.909782 -0.0453761 0)
(1.05578 -0.0513737 0)
(1.06645 -0.0472216 0)
(1.05112 -0.0389383 0)
(1.03571 -0.0311938 0)
(1.02468 -0.0240043 0)
(1.01704 -0.016933 0)
(1.01213 -0.00981705 0)
(1.00944 -0.0024856 0)
(1.00944 0.00493063 0)
(1.01193 0.0121284 0)
(1.01658 0.018999 0)
(1.02399 0.0258305 0)
(1.03489 0.0327866 0)
(1.05011 0.0402597 0)
(1.06516 0.0481505 0)
(1.05425 0.052167 0)
(0.907785 0.0458252 0)
(0.390635 0.0134268 0)
(0.309149 -0.0061841 0)
(0.846322 -0.0330351 0)
(1.04819 -0.0428404 0)
(1.0772 -0.0391517 0)
(1.06514 -0.0330757 0)
(1.04857 -0.0271232 0)
(1.03582 -0.0219429 0)
(1.02634 -0.0162393 0)
(1.0198 -0.00965756 0)
(1.01609 -0.00224774 0)
(1.01579 0.00536769 0)
(1.01915 0.0126892 0)
(1.02547 0.0190307 0)
(1.03473 0.0244184 0)
(1.04731 0.0292411 0)
(1.06393 0.0348372 0)
(1.07585 0.0404882 0)
(1.04612 0.0439023 0)
(0.842775 0.0335556 0)
(0.305486 0.0063471 0)
(0.265262 -0.00193514 0)
(0.788672 -0.0219427 0)
(1.03192 -0.0338188 0)
(1.08149 -0.032208 0)
(1.07512 -0.0276622 0)
(1.05876 -0.0226653 0)
(1.04551 -0.0186003 0)
(1.03518 -0.0140339 0)
(1.02759 -0.00839693 0)
(1.02322 -0.00150985 0)
(1.02303 0.00589863 0)
(1.02678 0.0125083 0)
(1.03376 0.0177798 0)
(1.04375 0.0219597 0)
(1.05681 0.025596 0)
(1.07282 0.030126 0)
(1.07858 0.0341083 0)
(1.02797 0.0351534 0)
(0.782863 0.022594 0)
(0.260365 0.00214864 0)
(0.240932 -0.000354788 0)
(0.738379 -0.0140418 0)
(1.01285 -0.0267578 0)
(1.08252 -0.0266189 0)
(1.08122 -0.0231841 0)
(1.0662 -0.0189117 0)
(1.05321 -0.0154309 0)
(1.04294 -0.0114631 0)
(1.03515 -0.00652747 0)
(1.03034 -0.000477427 0)
(1.02973 0.00605714 0)
(1.03373 0.0117785 0)
(1.04106 0.0162228 0)
(1.0508 0.0196494 0)
(1.06344 0.0226641 0)
(1.07815 0.0263077 0)
(1.07882 0.0289997 0)
(1.00716 0.0284408 0)
(0.729953 0.0148684 0)
(0.234587 0.000641632 0)
(0.226005 -5.19753e-05 0)
(0.695048 -0.00923219 0)
(0.991496 -0.0218455 0)
(1.08031 -0.0231003 0)
(1.08535 -0.0202128 0)
(1.07226 -0.0163184 0)
(1.05957 -0.0129532 0)
(1.04981 -0.00925719 0)
(1.04242 -0.0048592 0)
(1.03767 0.000526456 0)
(1.03705 0.00635817 0)
(1.0406 0.0114925 0)
(1.0468 0.0153603 0)
(1.05601 0.0183731 0)
(1.06835 0.0209222 0)
(1.08069 0.0240124 0)
(1.07433 0.0260911 0)
(0.982752 0.0238613 0)
(0.683134 0.010265 0)
(0.217828 0.000414595 0)
(0.216267 -7.46441e-05 0)
(0.659881 -0.0064352 0)
(0.971906 -0.0183618 0)
(1.07824 -0.0205382 0)
(1.08886 -0.0180049 0)
(1.07737 -0.0144236 0)
(1.06509 -0.0111684 0)
(1.05556 -0.00777915 0)
(1.04839 -0.00341676 0)
(1.04376 0.00174274 0)
(1.04285 0.00711083 0)
(1.04593 0.0117587 0)
(1.05206 0.0154055 0)
(1.06068 0.017937 0)
(1.07231 0.0204801 0)
(1.08284 0.0231711 0)
(1.07076 0.0245774 0)
(0.960091 0.0210525 0)
(0.643753 0.0078012 0)
(0.205823 0.000531178 0)
(0.208754 -0.00012911 0)
(0.630465 -0.00473409 0)
(0.952148 -0.0158142 0)
(1.07471 -0.0189499 0)
(1.09201 -0.016953 0)
(1.08219 -0.0132526 0)
(1.06983 -0.00959319 0)
(1.06006 -0.00603499 0)
(1.05269 -0.00199889 0)
(1.04789 0.00279529 0)
(1.04665 0.00796459 0)
(1.04922 0.012389 0)
(1.05487 0.0155723 0)
(1.06355 0.0180455 0)
(1.07529 0.0205732 0)
(1.08391 0.0230528 0)
(1.0634 0.0236916 0)
(0.935123 0.0189372 0)
(0.608904 0.00641217 0)
(0.195465 0.000668607 0)
(0.20285 -0.000100502 0)
(0.607275 -0.00350624 0)
(0.934743 -0.0131721 0)
(1.07205 -0.0166461 0)
(1.09531 -0.0150852 0)
(1.08653 -0.011986 0)
(1.0741 -0.00810808 0)
(1.0644 -0.00451082 0)
(1.057 -0.000485321 0)
(1.05226 0.00437096 0)
(1.0509 0.00949675 0)
(1.05326 0.0135231 0)
(1.05866 0.0164466 0)
(1.0668 0.0189383 0)
(1.07801 0.0214238 0)
(1.08463 0.0229391 0)
(1.05798 0.022661 0)
(0.912966 0.0172529 0)
(0.579749 0.00561717 0)
(0.186192 0.000766995 0)
(0.197938 2.92897e-06 0)
(0.588451 -0.00251634 0)
(0.91842 -0.0110408 0)
(1.06837 -0.0146696 0)
(1.09839 -0.0134062 0)
(1.0913 -0.010622 0)
(1.07869 -0.00708273 0)
(1.06875 -0.00302367 0)
(1.06083 0.00127921 0)
(1.05498 0.00593445 0)
(1.05287 0.0107186 0)
(1.05512 0.0147914 0)
(1.06051 0.0178073 0)
(1.06855 0.020205 0)
(1.07991 0.0221326 0)
(1.08444 0.0229812 0)
(1.04845 0.0220794 0)
(0.888076 0.0159288 0)
(0.552263 0.00514508 0)
(0.176841 0.000817808 0)
(0.19421 0.000150847 0)
(0.573432 -0.00159227 0)
(0.903933 -0.00877558 0)
(1.06563 -0.0123869 0)
(1.10171 -0.011041 0)
(1.0957 -0.00862592 0)
(1.08273 -0.00513104 0)
(1.07223 -0.000961357 0)
(1.06384 0.00372828 0)
(1.05779 0.00842392 0)
(1.05572 0.0125729 0)
(1.05773 0.0161191 0)
(1.06273 0.019298 0)
(1.07078 0.0216011 0)
(1.08162 0.0229128 0)
(1.08373 0.023089 0)
(1.04046 0.0215894 0)
(0.865908 0.0149446 0)
(0.528552 0.00490935 0)
(0.168173 0.000838869 0)
(0.191857 0.000307605 0)
(0.562498 -0.000605332 0)
(0.891758 -0.00666008 0)
(1.06237 -0.0101642 0)
(1.10464 -0.00868419 0)
(1.10032 -0.00560245 0)
(1.08703 -0.00229217 0)
(1.07601 0.00180455 0)
(1.06716 0.0064899 0)
(1.06055 0.0107468 0)
(1.05736 0.014474 0)
(1.05854 0.0180776 0)
(1.06336 0.0207753 0)
(1.07157 0.0225576 0)
(1.0821 0.0233036 0)
(1.08188 0.0233731 0)
(1.02862 0.0214342 0)
(0.840896 0.0142303 0)
(0.504728 0.00469281 0)
(0.159208 0.000841173 0)
(0.190948 0.000471792 0)
(0.554571 0.000173808 0)
(0.881644 -0.0042543 0)
(1.06097 -0.00712365 0)
(1.10847 -0.0052203 0)
(1.10525 -0.00218648 0)
(1.092 0.00124439 0)
(1.08045 0.00503461 0)
(1.07136 0.00938294 0)
(1.0647 0.0138306 0)
(1.06132 0.0177683 0)
(1.06172 0.0205617 0)
(1.06572 0.022804 0)
(1.07356 0.023947 0)
(1.0827 0.0243518 0)
(1.07969 0.0238913 0)
(1.01794 0.0213984 0)
(0.818167 0.0137469 0)
(0.483655 0.00460813 0)
(0.150923 0.000905258 0)
(0.191697 0.000507582 0)
(0.551039 0.00136802 0)
(0.875042 -0.00190266 0)
(1.05982 -0.00447836 0)
(1.11274 -0.00241726 0)
(1.11114 0.00153624 0)
(1.09764 0.00518385 0)
(1.08584 0.008729 0)
(1.07601 0.0128933 0)
(1.06753 0.0171788 0)
(1.06232 0.0208941 0)
(1.062 0.0238454 0)
(1.06582 0.0253184 0)
(1.07373 0.025658 0)
(1.08202 0.0255816 0)
(1.07552 0.024872 0)
(1.00378 0.0216299 0)
(0.792741 0.013396 0)
(0.461794 0.00467256 0)
(0.142172 0.000992255 0)
(0.194154 0.000667311 0)
(0.551623 0.0020577 0)
(0.870786 0.000319533 0)
(1.06083 -0.000905946 0)
(1.1177 0.00171977 0)
(1.1171 0.00555335 0)
(1.10384 0.0094113 0)
(1.09133 0.0130989 0)
(1.08039 0.0176948 0)
(1.07103 0.0222457 0)
(1.06612 0.0256946 0)
(1.06578 0.0278164 0)
(1.06854 0.029152 0)
(1.07531 0.0290508 0)
(1.08152 0.0280688 0)
(1.07087 0.0267614 0)
(0.989925 0.0225361 0)
(0.768842 0.0136057 0)
(0.441397 0.00507761 0)
(0.133654 0.00112146 0)
(0.198317 0.000993442 0)
(0.554635 0.00287598 0)
(0.871299 0.00314745 0)
(1.06285 0.00195176 0)
(1.12339 0.00471005 0)
(1.12418 0.00952501 0)
(1.1106 0.014151 0)
(1.09758 0.0184781 0)
(1.08597 0.0234163 0)
(1.07529 0.0276016 0)
(1.06765 0.0300319 0)
(1.06454 0.0322225 0)
(1.0665 0.0328409 0)
(1.07305 0.0319325 0)
(1.0789 0.0312198 0)
(1.06416 0.0289569 0)
(0.972187 0.0236765 0)
(0.741451 0.0142401 0)
(0.418721 0.00553612 0)
(0.12403 0.00123777 0)
(0.204948 0.00145088 0)
(0.562085 0.00422135 0)
(0.875393 0.00571745 0)
(1.06765 0.00631658 0)
(1.12984 0.00990151 0)
(1.13113 0.014668 0)
(1.11735 0.019716 0)
(1.10345 0.02452 0)
(1.09094 0.02988 0)
(1.0797 0.0345042 0)
(1.07127 0.0371979 0)
(1.06749 0.0388754 0)
(1.06803 0.0395965 0)
(1.07332 0.0377479 0)
(1.07559 0.0354406 0)
(1.05579 0.0319352 0)
(0.954125 0.0256258 0)
(0.714544 0.0153095 0)
(0.396155 0.00611607 0)
(0.114103 0.00139663 0)
(0.213294 0.00193347 0)
(0.573435 0.00568756 0)
(0.883675 0.00866519 0)
(1.07467 0.0106964 0)
(1.13754 0.0150208 0)
(1.13953 0.0207769 0)
(1.1246 0.0266252 0)
(1.10956 0.0320383 0)
(1.0954 0.0376774 0)
(1.08194 0.04254 0)
(1.07022 0.0452573 0)
(1.06353 0.0460653 0)
(1.06259 0.0446944 0)
(1.06778 0.042164 0)
(1.07062 0.0398292 0)
(1.0452 0.0353044 0)
(0.931316 0.0275705 0)
(0.68303 0.0164637 0)
(0.370279 0.00671205 0)
(0.102735 0.00155817 0)
(0.225961 0.00255569 0)
(0.592117 0.00821953 0)
(0.899007 0.0130854 0)
(1.08566 0.0168589 0)
(1.14724 0.0226638 0)
(1.1488 0.0290007 0)
(1.13281 0.0353977 0)
(1.11586 0.041372 0)
(1.09936 0.0473141 0)
(1.08363 0.0524391 0)
(1.07048 0.0552849 0)
(1.06391 0.0551653 0)
(1.06302 0.0535501 0)
(1.06638 0.0500141 0)
(1.06396 0.0455642 0)
(1.03213 0.0391118 0)
(0.907641 0.0302895 0)
(0.651455 0.0178603 0)
(0.344028 0.00744753 0)
(0.0910327 0.00173429 0)
(0.242204 0.00314178 0)
(0.616804 0.0101882 0)
(0.920653 0.0177992 0)
(1.10044 0.0240314 0)
(1.15886 0.0311486 0)
(1.16051 0.0393026 0)
(1.14271 0.0470309 0)
(1.12365 0.0540514 0)
(1.10394 0.060319 0)
(1.08409 0.0650103 0)
(1.06711 0.0668256 0)
(1.058 0.065494 0)
(1.05445 0.0617009 0)
(1.05724 0.0566758 0)
(1.05552 0.0512837 0)
(1.01597 0.0441039 0)
(0.877505 0.033085 0)
(0.613641 0.0195708 0)
(0.313389 0.00829363 0)
(0.0777587 0.00190099 0)
(0.264692 0.00437447 0)
(0.65109 0.014312 0)
(0.950294 0.0248438 0)
(1.1207 0.033549 0)
(1.17438 0.0422673 0)
(1.17448 0.0515932 0)
(1.15473 0.0604859 0)
(1.13334 0.0687303 0)
(1.11103 0.0755743 0)
(1.0886 0.0800863 0)
(1.06907 0.0810964 0)
(1.05697 0.0778622 0)
(1.05307 0.0730048 0)
(1.05329 0.0668944 0)
(1.04476 0.059361 0)
(0.99657 0.0491173 0)
(0.84627 0.0368937 0)
(0.575411 0.0218027 0)
(0.281853 0.00926355 0)
(0.0642135 0.00204135 0)
(0.296493 0.00548902 0)
(0.698124 0.0174047 0)
(0.990264 0.0321381 0)
(1.14677 0.0445471 0)
(1.19274 0.0552781 0)
(1.19111 0.0673448 0)
(1.16776 0.078298 0)
(1.14272 0.0880218 0)
(1.11593 0.0954392 0)
(1.08781 0.0990174 0)
(1.0632 0.0979556 0)
(1.04921 0.0926648 0)
(1.04245 0.0851349 0)
(1.04146 0.0765253 0)
(1.03139 0.067164 0)
(0.972959 0.0562299 0)
(0.806534 0.0409928 0)
(0.528292 0.0243659 0)
(0.243954 0.0100286 0)
(0.0489227 0.00208623 0)
(0.332238 0.00873275 0)
(0.755347 0.0258967 0)
(1.03812 0.0442802 0)
(1.17883 0.0603434 0)
(1.21574 0.0736948 0)
(1.20913 0.0886183 0)
(1.18092 0.101137 0)
(1.15114 0.111582 0)
(1.11997 0.118571 0)
(1.08856 0.1211 0)
(1.06195 0.118298 0)
(1.04418 0.11031 0)
(1.03645 0.100493 0)
(1.03318 0.0899971 0)
(1.01523 0.0785259 0)
(0.944783 0.0633744 0)
(0.764257 0.0465548 0)
(0.479681 0.027307 0)
(0.205594 0.0107748 0)
(0.0343836 0.00208239 0)
(0.410163 0.0136123 0)
(0.840794 0.0360879 0)
(1.10364 0.0620453 0)
(1.21895 0.0840002 0)
(1.24206 0.0998779 6.71267e-34)
(1.22879 0.117947 -3.00355e-34)
(1.19355 0.131791 0)
(1.15768 0.142476 0)
(1.12025 0.148431 0)
(1.08202 0.148065 0)
(1.04977 0.140283 0)
(1.03154 0.128056 0)
(1.02233 0.11542 0)
(1.01624 0.102677 0)
(0.994396 0.0886428 0)
(0.910344 0.0725575 0)
(0.70987 0.0512661 0)
(0.417733 0.0293419 0)
(0.157339 0.0104526 0)
(0.0176575 0.00191777 0)
(0.475895 0.0282184 5.16996e-20)
(0.940274 0.0563329 -3.90244e-20)
(1.17282 0.0913999 0)
(1.25938 0.118806 2.93258e-20)
(1.27057 0.136965 -2.37719e-20)
(1.24711 0.158071 3.16909e-34)
(1.20433 0.172088 0)
(1.1623 0.181672 1.68635e-20)
(1.11924 0.184677 -5.54747e-20)
(1.07696 0.179833 1.13263e-20)
(1.0438 0.168607 0)
(1.02161 0.153764 -2.87442e-20)
(1.00961 0.137781 -3.43498e-20)
(1.00073 0.122084 6.00187e-20)
(0.965709 0.105326 -4.7372e-20)
(0.859956 0.0818861 0)
(0.638959 0.0576315 -1.70334e-20)
(0.34258 0.030651 0)
(0.106905 0.0103435 -9.39241e-20)
(0.000775858 0.00127134 1.10702e-19)
(0.511694 0.0532476 -6.69713e-21)
(1.003 0.0942167 1.20444e-19)
(1.2222 0.133685 -8.37428e-21)
(1.29231 0.162975 -7.45036e-20)
(1.29476 0.184297 -5.00537e-20)
(1.26225 0.205685 8.13077e-20)
(1.21259 0.219009 0)
(1.16455 0.22689 0)
(1.1156 0.227266 8.85171e-20)
(1.06773 0.219778 0)
(1.02725 0.203538 1.04097e-19)
(1.00116 0.182907 3.08416e-20)
(0.986017 0.164358 3.77391e-22)
(0.968385 0.145877 -6.56033e-20)
(0.926432 0.123621 0)
(0.808956 0.099397 0)
(0.576277 0.067311 -2.7842e-19)
(0.28931 0.0368032 6.99307e-19)
(0.081782 0.0108058 -4.13712e-19)
(-0.00808948 -0.000168675 -4.87925e-19)
(0.523166 0.0771649 -7.44846e-20)
(1.0403 0.141184 2.77546e-20)
(1.25817 0.187451 1.42115e-20)
(1.31898 0.216892 1.29412e-19)
(1.31401 0.238226 1.36664e-20)
(1.27365 0.258594 -2.12585e-19)
(1.21752 0.270368 7.22587e-20)
(1.1636 0.275651 0)
(1.10909 0.272762 -1.87925e-19)
(1.05586 0.260421 1.66794e-19)
(1.01286 0.239295 -2.80926e-19)
(0.984208 0.217717 1.31576e-19)
(0.964795 0.196825 -8.4916e-20)
(0.947501 0.17462 1.91491e-19)
(0.898136 0.150169 0)
(0.772384 0.116049 -6.96894e-20)
(0.542072 0.0811615 0)
(0.278261 0.0420901 3.84879e-19)
(0.0805038 0.0134105 -9.10335e-19)
(-0.00837675 -0.000787633 5.70852e-19)
(0.522885 0.102395 2.19466e-19)
(1.06278 0.193528 -9.5676e-20)
(1.28194 0.246347 -1.89722e-20)
(1.33683 0.277193 0)
(1.32606 0.298093 -9.4666e-20)
(1.27934 0.316268 1.16657e-19)
(1.2175 0.325306 -7.81418e-20)
(1.1579 0.326927 0)
(1.09832 0.319606 1.33723e-19)
(1.04127 0.301928 -1.17271e-19)
(0.994353 0.277398 2.43627e-19)
(0.961371 0.251996 0)
(0.939097 0.228639 -1.80523e-19)
(0.915685 0.204587 1.01797e-19)
(0.866253 0.173629 2.55793e-19)
(0.744969 0.139903 -2.25131e-19)
(0.525885 0.0977673 3.57347e-19)
(0.27667 0.0536761 -7.92447e-19)
(0.0882026 0.018312 5.00359e-19)
(-0.00375389 -0.000559797 -6.25836e-19)
(0.512638 0.13028 -8.47767e-20)
(1.07224 0.244471 6.11059e-20)
(1.29551 0.306711 -6.20438e-20)
(1.34682 0.340047 1.20111e-19)
(1.33158 0.360094 -1.10887e-19)
(1.28002 0.375821 3.753e-20)
(1.214 0.381569 3.36194e-21)
(1.15102 0.378319 -1.52995e-19)
(1.0884 0.365452 -1.4102e-19)
(1.02848 0.342602 -2.52504e-19)
(0.976593 0.313753 -5.23976e-19)
(0.939937 0.286336 -1.60915e-19)
(0.91641 0.262164 2.30719e-21)
(0.893202 0.236462 -3.4816e-19)
(0.841645 0.20611 -5.71932e-21)
(0.720792 0.162275 3.27678e-19)
(0.514549 0.115112 -9.8789e-20)
(0.282045 0.0670113 -5.72841e-20)
(0.10156 0.0251378 0)
(0.00385469 0.000999899 1.33173e-18)
(0.497767 0.154673 0)
(1.07088 0.292914 -8.69331e-21)
(1.30033 0.365748 -1.21628e-20)
(1.34965 0.402803 -1.24384e-20)
(1.33119 0.422804 1.08347e-19)
(1.27617 0.435905 -8.6593e-20)
(1.20722 0.437867 8.58583e-20)
(1.1411 0.430112 2.51139e-19)
(1.07433 0.412897 -7.84904e-20)
(1.00848 0.386541 1.2526e-19)
(0.951837 0.353145 2.81722e-19)
(0.914703 0.322566 3.50507e-19)
(0.88832 0.297145 -2.10739e-19)
(0.860958 0.269182 3.76832e-19)
(0.811257 0.232175 -2.98388e-19)
(0.699762 0.191146 0)
(0.509357 0.137272 -7.50185e-19)
(0.292369 0.0828397 1.00965e-18)
(0.116847 0.0344925 7.53681e-20)
(0.0123937 0.00385134 -1.40782e-18)
(0.482873 0.177036 -6.54464e-21)
(1.06453 0.339832 3.25277e-20)
(1.29972 0.423496 8.88253e-20)
(1.34766 0.464077 -1.09097e-19)
(1.32666 0.483747 8.84246e-20)
(1.26898 0.494658 -8.49836e-20)
(1.19776 0.493382 1.71356e-19)
(1.12939 0.481165 -7.59351e-20)
(1.06083 0.459084 -3.16923e-19)
(0.994711 0.426982 1.79953e-22)
(0.938433 0.38984 -3.05747e-19)
(0.894323 0.357551 -3.76995e-19)
(0.863452 0.33057 2.32336e-19)
(0.838554 0.301109 -1.35529e-19)
(0.787983 0.266472 3.24034e-19)
(0.678234 0.214533 0)
(0.499393 0.158545 -4.6526e-19)
(0.297477 0.0983913 6.87099e-19)
(0.12835 0.0443394 1.30136e-18)
(0.0195262 0.00714888 -1.53083e-18)
(0.469516 0.197874 -1.17564e-20)
(1.05475 0.384446 -2.1893e-21)
(1.29461 0.478436 -6.48526e-20)
(1.3416 0.522709 1.12999e-19)
(1.31854 0.542751 1.15696e-20)
(1.25866 0.55178 -1.67361e-19)
(1.18596 0.547193 -9.91663e-20)
(1.11628 0.530623 -9.64905e-20)
(1.04583 0.50444 -1.78015e-19)
(0.974564 0.469106 2.8692e-19)
(0.909566 0.428661 3.09666e-19)
(0.86594 0.391881 5.98439e-19)
(0.837409 0.362462 0)
(0.807736 0.332026 6.22119e-21)
(0.759711 0.289688 -8.88344e-19)
(0.65945 0.243061 2.07457e-19)
(0.495127 0.180102 1.00526e-18)
(0.304305 0.115473 -2.9649e-19)
(0.138365 0.0551731 6.17436e-19)
(0.0252798 0.0106643 -5.15639e-20)
(0.458189 0.217295 7.98105e-21)
(1.04431 0.427639 2.42175e-20)
(1.28705 0.531863 -3.31861e-20)
(1.33291 0.579236 1.35066e-19)
(1.30795 0.598946 -1.87869e-19)
(1.24634 0.606084 1.67286e-19)
(1.17253 0.598662 1.02792e-19)
(1.10142 0.578352 2.88948e-19)
(1.02893 0.548128 3.58913e-19)
(0.956626 0.508966 -3.29678e-19)
(0.894599 0.465396 0)
(0.84764 0.426654 -2.25425e-19)
(0.813281 0.393644 2.58811e-19)
(0.787355 0.360347 3.25186e-19)
(0.73814 0.322415 -1.88011e-19)
(0.639885 0.263786 -4.58088e-19)
(0.483492 0.200975 -1.36677e-19)
(0.303732 0.13139 -1.61337e-21)
(0.142958 0.0644254 0)
(0.0287523 0.0135459 0)
(0.449306 0.236195 -5.35954e-20)
(1.03311 0.468599 0)
(1.27721 0.582218 -1.94629e-20)
(1.32199 0.632639 -5.13843e-21)
(1.29549 0.65256 2.11305e-19)
(1.23245 0.658052 -5.37948e-20)
(1.15776 0.647882 1.04621e-19)
(1.08576 0.624164 -1.95884e-19)
(1.01198 0.590643 2.72121e-19)
(0.936682 0.548317 -1.07029e-19)
(0.867627 0.500839 1.76909e-19)
(0.819263 0.458117 7.13792e-19)
(0.789844 0.423549 1.39979e-20)
(0.759056 0.388604 -3.38939e-19)
(0.710376 0.34269 6.26494e-19)
(0.619749 0.290694 4.12808e-21)
(0.47354 0.220002 1.46224e-19)
(0.299159 0.145121 -6.97498e-19)
(0.141715 0.0717165 7.18896e-19)
(0.0298179 0.0153014 -8.46988e-19)
(0.442835 0.25423 6.85075e-23)
(1.02244 0.508188 0)
(1.26634 0.630922 0)
(1.30977 0.683846 -9.90537e-21)
(1.28177 0.703246 -6.44396e-20)
(1.21753 0.706881 8.005e-20)
(1.1423 0.694263 -1.96405e-19)
(1.06959 0.667735 0)
(0.994263 0.631076 -4.00798e-19)
(0.917344 0.585697 4.76639e-19)
(0.850302 0.536433 5.02352e-19)
(0.801102 0.490941 -2.61861e-19)
(0.766702 0.45098 -3.15244e-19)
(0.73668 0.413113 7.38545e-19)
(0.68895 0.372668 -2.22491e-19)
(0.598461 0.307902 -2.65605e-19)
(0.456959 0.237803 -1.58935e-19)
(0.292133 0.155967 -7.51837e-19)
(0.137926 0.0759717 1.09751e-19)
(0.0293187 0.01612 9.13405e-19)
(0.437846 0.273077 -2.99351e-20)
(1.01182 0.545773 -3.51711e-20)
(1.2544 0.676642 2.28173e-20)
(1.29637 0.731885 1.6739e-22)
(1.26716 0.751266 -6.08088e-20)
(1.20195 0.753241 1.34406e-19)
(1.1263 0.738195 0)
(1.05307 0.709105 1.17652e-19)
(0.976426 0.670292 -9.27693e-20)
(0.896956 0.622429 7.94075e-19)
(0.82451 0.567856 -1.14497e-19)
(0.773534 0.5174 1.29842e-19)
(0.741506 0.476543 0)
(0.708023 0.438509 -3.99557e-19)
(0.660071 0.387777 4.83265e-19)
(0.57632 0.331224 0)
(0.443508 0.251936 -3.42652e-19)
(0.281143 0.165472 1.00712e-18)
(0.13157 0.0781472 1.18851e-19)
(0.0270861 0.0163086 -1.12372e-18)
(0.434129 0.291422 -7.89941e-20)
(1.00191 0.582022 9.92778e-20)
(1.2422 0.720647 0)
(1.28251 0.777818 -2.63142e-21)
(1.25203 0.796515 0)
(1.186 0.796587 -1.69564e-19)
(1.11029 0.779298 0)
(1.03675 0.748143 0)
(0.959082 0.707332 -1.21444e-19)
(0.877941 0.656823 -7.54521e-19)
(0.805667 0.600543 -9.27218e-19)
(0.753351 0.547864 1.51056e-19)
(0.716359 0.500187 5.43605e-19)
(0.684227 0.457625 4.39234e-19)
(0.637618 0.413659 -1.54999e-18)
(0.554461 0.342027 -6.22162e-19)
(0.422609 0.264549 3.64245e-19)
(0.26765 0.170621 0)
(0.123073 0.0786759 1.02129e-18)
(0.02397 0.0156896 -1.20991e-18)
(0.431543 0.308918 9.78864e-20)
(0.992444 0.616475 -1.18309e-19)
(1.22967 0.761902 0)
(1.26817 0.82075 -1.10538e-20)
(1.23668 0.839237 7.24799e-21)
(1.17009 0.837604 0)
(1.09442 0.818134 6.033e-20)
(1.02069 0.784948 8.04572e-20)
(0.941851 0.742976 -2.29263e-19)
(0.857632 0.691168 1.0021e-19)
(0.780031 0.63047 0)
(0.724967 0.571155 6.26916e-19)
(0.689308 0.522509 5.50599e-21)
(0.653681 0.479367 2.36811e-19)
(0.608404 0.421923 2.81267e-19)
(0.530608 0.360038 0)
(0.406335 0.27191 -5.95436e-19)
(0.252472 0.173785 1.16798e-18)
(0.113581 0.0776986 -1.23735e-18)
(0.0206456 0.0145154 2.60418e-18)
(0.429995 0.325458 0)
(0.98378 0.649478 0)
(1.21735 0.801479 -5.73213e-20)
(1.25396 0.86178 0)
(1.22138 0.879455 0)
(1.15432 0.875875 -1.47889e-19)
(1.07898 0.854344 6.19089e-20)
(1.00518 0.819668 1.76867e-20)
(0.925367 0.776583 -5.27068e-20)
(0.839598 0.723193 0)
(0.761171 0.66054 -1.40587e-19)
(0.703314 0.598432 -5.11101e-19)
(0.662274 0.542313 -6.137e-19)
(0.628586 0.492058 -2.46363e-19)
(0.585888 0.442486 3.0446e-19)
(0.508379 0.363374 -7.17638e-19)
(0.383003 0.27826 1.28051e-18)
(0.235429 0.172931 2.87267e-21)
(0.103452 0.0750725 -1.1868e-18)
(0.0176605 0.0130489 -1.75536e-19)
(0.429228 0.34112 0)
(0.975819 0.680944 -9.92261e-20)
(1.20515 0.838588 7.08483e-20)
(1.23969 0.900026 0)
(1.20627 0.917356 0)
(1.13897 0.912051 3.00055e-19)
(1.06399 0.888553 0)
(0.990224 0.852286 0)
(0.909373 0.808569 -5.00276e-19)
(0.82063 0.754819 1.37241e-19)
(0.736157 0.689312 -1.24695e-18)
(0.674693 0.62116 0)
(0.632535 0.562452 -6.67069e-19)
(0.595458 0.510179 1.02706e-20)
(0.55559 0.442308 -9.78178e-19)
(0.483218 0.374801 3.86108e-19)
(0.366622 0.277122 1.87861e-21)
(0.220999 0.170184 -1.35282e-18)
(0.0941952 0.0708029 6.38977e-19)
(0.0153791 0.011277 1.87785e-19)
(0.428967 0.35604 0)
(0.968434 0.710884 -1.4285e-19)
(1.1933 0.874093 7.63581e-20)
(1.22583 0.936575 8.31579e-20)
(1.19148 0.952994 -2.04181e-20)
(1.12405 0.945765 3.22501e-20)
(1.0497 0.920398 -3.96938e-20)
(0.976 0.883074 4.89554e-19)
(0.894197 0.838909 5.35156e-19)
(0.80384 0.784581 1.04375e-18)
(0.718352 0.718015 1.03614e-18)
(0.652698 0.647739 1.81697e-19)
(0.602766 0.581157 9.59077e-19)
(0.568408 0.517419 5.90833e-19)
(0.529664 0.456965 7.01579e-19)
(0.460482 0.367357 -4.22542e-19)
(0.345228 0.274737 -4.94315e-19)
(0.209795 0.161317 5.81028e-19)
(0.0923133 0.0645903 -3.43546e-19)
(0.0156891 0.00959407 6.06555e-19)
(0.429005 0.370311 2.06993e-19)
(0.961696 0.739521 2.23737e-19)
(1.18173 0.907398 4.61355e-20)
(1.21211 0.97055 1.66863e-20)
(1.17709 0.986509 3.12178e-20)
(1.1098 0.977616 -8.34343e-20)
(1.03607 0.950544 3.8836e-20)
(0.962493 0.911979 -2.10432e-20)
(0.879795 0.867501 -6.20457e-19)
(0.78711 0.813535 -1.13231e-18)
(0.69585 0.746035 7.17994e-20)
(0.6245 0.671473 0)
(0.57289 0.601838 0)
(0.530928 0.535012 -3.08406e-19)
(0.492196 0.447338 -1.14866e-18)
(0.430658 0.367733 9.09858e-19)
(0.333771 0.258463 5.39592e-19)
(0.210089 0.146092 0)
(0.103013 0.0564989 1.10162e-18)
(0.0252365 0.00949319 -6.52356e-19)
(0.429148 0.383949 -1.08726e-19)
(0.955212 0.766487 9.76415e-20)
(1.17051 0.939139 -1.11262e-19)
(1.19891 1.00301 -8.27903e-20)
(1.16321 1.01797 -5.13077e-21)
(1.09614 1.00724 -2.58809e-20)
(1.0233 0.978583 0)
(0.949799 0.939283 -6.14596e-19)
(0.866163 0.89474 7.72249e-20)
(0.771846 0.840851 0)
(0.679283 0.772937 0)
(0.604062 0.697853 1.15406e-19)
(0.542648 0.622858 1.54763e-19)
(0.500629 0.540608 -3.32609e-19)
(0.459408 0.459537 8.25205e-19)
(0.396393 0.341367 -9.91269e-19)
(0.312035 0.234315 -1.15273e-18)
(0.22714 0.117148 1.01951e-18)
(0.162991 0.0436328 -3.95346e-19)
(0.0895757 0.0243866 2.29661e-19)
(0.429263 0.396781 1.40252e-19)
(0.949263 0.792295 0)
(1.15961 0.968873 0)
(1.18594 1.03308 -2.12729e-20)
(1.14984 1.0475 1.72248e-20)
(1.08333 1.03523 -2.10041e-20)
(1.0113 1.00517 1.69044e-19)
(0.937877 0.964963 6.30311e-19)
(0.853217 0.920163 1.12371e-18)
(0.756722 0.866634 -8.47103e-20)
(0.659605 0.799531 1.74869e-19)
(0.578233 0.723641 -1.02932e-18)
(0.514422 0.646468 -1.02466e-18)
(0.459504 0.564596 -1.78142e-19)
(0.407975 0.446085 0)
(0.354807 0.337241 -6.17997e-21)
(0.287414 0.176078 6.32663e-19)
(0.226077 0.0420617 -1.08729e-18)
(0.174293 -0.064962 8.35045e-19)
(0.0740954 -0.0408969 7.11348e-19)
(0.429281 0.409235 -3.11071e-19)
(0.943036 0.816177 -1.40902e-19)
(1.14882 0.997044 8.51563e-21)
(1.17348 1.06198 5.26711e-20)
(1.13698 1.07546 0)
(1.07094 1.06157 -1.04258e-19)
(0.999795 1.03027 -2.4029e-19)
(0.926174 0.989671 -1.32897e-21)
(0.840197 0.94498 -5.88989e-19)
(0.742016 0.891885 -8.30321e-20)
(0.643988 0.825175 7.71193e-20)
(0.559441 0.750108 9.04093e-19)
(0.483481 0.672063 1.00034e-18)
(0.425271 0.573533 1.73115e-19)
(0.368789 0.471377 8.82056e-19)
(0.282717 0.297059 0)
(0.179064 0.163179 0)
(0.0293315 0.238481 7.20838e-19)
(-0.0416232 0.703726 -1.75529e-20)
(0.00301694 1.67257 -8.14187e-19)
(0.429222 0.421084 1.72653e-19)
(0.937437 0.839448 3.92886e-19)
(1.13835 1.02376 -5.35513e-19)
(1.16117 1.08901 2.56894e-19)
(1.12463 1.10223 -2.23151e-21)
(1.05943 1.08723 -5.95451e-20)
(0.988992 1.0551 0)
(0.915064 1.0141 -5.25496e-19)
(0.827721 0.969449 0)
(0.727379 0.916882 1.17291e-18)
(0.624804 0.851916 -9.35296e-20)
(0.532843 0.779333 1.04871e-19)
(0.454935 0.701638 1.14123e-18)
(0.380337 0.615039 -3.7405e-19)
(0.280135 0.464143 -4.49479e-19)
(0.198376 0.361973 0)
(0.0840558 0.557123 0)
(0.0238516 1.44733 0)
(0.0564734 2.50859 -4.18409e-19)
(0.0699495 2.92602 -2.52272e-19)
(0.428823 0.432321 0)
(0.931525 0.860778 0)
(1.12809 1.04907 1.96628e-19)
(1.14947 1.11505 -2.07073e-19)
(1.1129 1.12763 8.11666e-20)
(1.04843 1.11157 6.41194e-20)
(0.978732 1.07882 3.01041e-20)
(0.90418 1.03795 -2.34384e-20)
(0.815269 0.993825 8.27511e-20)
(0.713078 0.94215 -1.34621e-18)
(0.609262 0.878368 1.69861e-19)
(0.515142 0.807484 9.01169e-19)
(0.423605 0.734887 -1.13734e-18)
(0.339433 0.626437 -1.24458e-18)
(0.253048 0.535483 4.19757e-19)
(0.157675 0.720366 0)
(0.0862283 1.69095 5.83614e-19)
(0.0980633 2.72434 6.53292e-19)
(0.103195 3.08525 -7.37014e-19)
(0.0915278 3.20919 8.04126e-19)
(0.428219 0.443122 0)
(0.926331 0.881692 3.54543e-19)
(1.11827 1.07307 -4.89119e-20)
(1.13803 1.13922 2.98876e-19)
(1.10176 1.1518 -8.51976e-20)
(1.03835 1.13519 0)
(0.969134 1.1022 0)
(0.893928 1.06142 0)
(0.803527 1.01768 4.69034e-19)
(0.699316 0.966744 6.24988e-20)
(0.591517 0.90525 0)
(0.489845 0.839623 -8.96444e-19)
(0.399088 0.768077 0)
(0.293233 0.682086 8.85913e-19)
(0.204351 0.768345 -6.00424e-19)
(0.145062 1.56386 -4.79924e-19)
(0.140334 2.72218 -1.12695e-18)
(0.155499 3.12547 -6.06596e-19)
(0.133664 3.25196 -8.63157e-19)
(0.117504 3.28713 7.63228e-19)
(0.426664 0.452611 -1.25751e-19)
(0.920672 0.90039 1.70308e-20)
(1.10867 1.09568 -5.49115e-20)
(1.1273 1.1626 -2.28805e-19)
(1.09132 1.17472 0)
(1.0287 1.15753 0)
(0.959914 1.1245 0)
(0.883772 1.08434 3.61597e-20)
(0.791895 1.04158 -5.92671e-19)
(0.686173 0.991997 0)
(0.57765 0.932695 0)
(0.476821 0.869345 0)
(0.363346 0.799091 0)
(0.306489 0.79051 6.46356e-19)
(0.242663 1.26501 1.59949e-18)
(0.200477 2.50339 4.73824e-19)
(0.210062 3.09933 9.67434e-19)
(0.198273 3.27174 -7.44024e-19)
(0.161263 3.32478 2.66437e-19)
(0.142011 3.33573 0)
(0.424705 0.46119 1.30107e-19)
(0.914969 0.918706 -7.93653e-19)
(1.09915 1.11756 -2.14199e-19)
(1.1167 1.1849 -4.60219e-20)
(1.08135 1.19719 2.0404e-20)
(1.01969 1.17978 -5.64863e-20)
(0.951014 1.14691 -5.00109e-21)
(0.874094 1.10725 -4.04668e-19)
(0.781014 1.06533 0)
(0.673943 1.01697 -7.89948e-20)
(0.562423 0.959951 7.1858e-20)
(0.454191 0.901979 0)
(0.365427 0.85918 0)
(0.299957 1.03392 -8.11485e-19)
(0.237108 1.96761 1.03373e-19)
(0.230011 2.98959 -3.62903e-19)
(0.255541 3.27711 7.74268e-19)
(0.23592 3.35843 5.87205e-19)
(0.182397 3.37841 -8.8542e-19)
(0.163113 3.38745 4.45251e-19)
(0.421853 0.469238 2.57973e-19)
(0.907883 0.935773 7.76494e-19)
(1.08904 1.13969 2.55942e-19)
(1.10626 1.20844 0)
(1.07146 1.2202 0)
(1.01032 1.20215 4.4823e-20)
(0.941694 1.16931 7.80132e-20)
(0.863845 1.13055 3.61015e-19)
(0.769839 1.09004 2.33042e-20)
(0.662045 1.04355 1.01522e-18)
(0.551278 0.989461 -1.19249e-18)
(0.443154 0.933547 0)
(0.3671 0.944718 0)
(0.32218 1.39828 -5.49193e-19)
(0.289605 2.62704 -6.70981e-19)
(0.326198 3.20993 0)
(0.343801 3.34637 -8.64729e-19)
(0.270439 3.39719 -1.19503e-20)
(0.203444 3.42993 5.86322e-19)
(0.178945 3.44707 -2.49501e-19)
(0.418645 0.47796 -4.92302e-19)
(0.900886 0.955049 -3.73409e-19)
(1.07851 1.16315 0)
(1.09508 1.2325 0)
(1.06108 1.24446 0)
(1.00065 1.22589 0)
(0.931873 1.19295 -9.09702e-20)
(0.853539 1.15471 3.14298e-19)
(0.759092 1.11529 0)
(0.651229 1.07038 -9.24596e-19)
(0.53921 1.01818 2.13735e-18)
(0.43945 0.978367 8.6666e-20)
(0.379852 1.09182 1.12737e-19)
(0.347461 1.90235 8.88023e-19)
(0.341036 2.97793 -4.89279e-19)
(0.377914 3.31258 0)
(0.351917 3.41079 2.56107e-19)
(0.270717 3.48237 7.2992e-20)
(0.22123 3.52393 4.79021e-20)
(0.187112 3.51807 9.72866e-20)
(0.41477 0.487643 2.33962e-19)
(0.892416 0.97348 -3.83374e-19)
(1.06716 1.1871 0)
(1.08365 1.25825 -6.79469e-20)
(1.0501 1.26952 2.33334e-19)
(0.989902 1.24993 0)
(0.921142 1.21673 0)
(0.842278 1.17937 -5.43235e-19)
(0.747786 1.14155 -5.91749e-20)
(0.640236 1.0988 9.03552e-19)
(0.527176 1.04924 -1.01694e-18)
(0.446885 1.03044 5.80656e-19)
(0.401575 1.31914 0)
(0.385125 2.34379 -4.69435e-19)
(0.406021 3.19105 3.05672e-19)
(0.452568 3.40699 2.12087e-19)
(0.42577 3.48298 0)
(0.367543 3.53301 1.70105e-20)
(0.318132 3.5464 -2.18372e-19)
(0.23794 3.48389 -3.6864e-20)
(0.411014 0.498105 -4.6569e-19)
(0.884594 0.995378 5.50209e-19)
(1.05544 1.2127 3.84241e-19)