/*--------------------------------*- C++ -*----------------------------------*\
  =========                 |
  \\      /  F ield         | OpenFOAM: The Open Source CFD Toolbox
   \\    /   O peration     | Website:  https://openfoam.org
    \\  /    A nd           | Version:  6
     \\/     M anipulation  |
\*---------------------------------------------------------------------------*/
FoamFile
{
    version     2.0;
    format      ascii;
    class       volScalarField;
    location    "111.6";
    object      p;
}
// * * * * * * * * * * * * * * * * * * * * * * * * * * * * * * * * * * * * * //

dimensions      [0 2 -2 0 0 0 0];

internalField   nonuniform List<scalar> 
8800
(
1.09078
1.04147
1.0035
0.975439
0.955284
0.940707
0.930123
0.922603
0.917744
0.91571
0.917119
0.921493
0.928312
0.937757
0.950507
0.967837
0.991721
1.02482
1.06776
1.12028
0.925265
0.931611
0.940765
0.944317
0.941715
0.935634
0.928706
0.922481
0.917703
0.914866
0.914674
0.91734
0.922013
0.928164
0.935281
0.942328
0.947216
0.947098
0.940429
0.931534
0.898764
0.905001
0.909506
0.913383
0.91634
0.917301
0.916229
0.91413
0.91218
0.91138
0.912457
0.914949
0.917866
0.920159
0.920697
0.918922
0.915566
0.911561
0.906785
0.90307
0.894436
0.897204
0.899816
0.901981
0.903729
0.905312
0.906434
0.906812
0.906734
0.906878
0.907734
0.908922
0.9097
0.909578
0.908624
0.907287
0.90563
0.903338
0.900933
0.899368
0.889345
0.890771
0.892617
0.894708
0.896433
0.897743
0.898864
0.899875
0.900726
0.901517
0.902289
0.902803
0.902871
0.902543
0.901902
0.900808
0.899169
0.897288
0.895941
0.895139
0.884308
0.885212
0.886466
0.888105
0.889814
0.891368
0.89268
0.893839
0.894954
0.896038
0.896898
0.897354
0.897418
0.897094
0.896326
0.895165
0.893826
0.892576
0.891762
0.891238
0.87934
0.879997
0.880967
0.882299
0.883766
0.885309
0.886828
0.888238
0.889562
0.890848
0.89189
0.892466
0.892553
0.892171
0.891434
0.890527
0.889565
0.88868
0.888109
0.887724
0.874438
0.874944
0.875739
0.876897
0.878222
0.879671
0.881222
0.882819
0.884407
0.885962
0.887229
0.88794
0.888105
0.887854
0.887346
0.886703
0.886004
0.885366
0.884948
0.884648
0.869543
0.869945
0.870616
0.871658
0.872918
0.874322
0.875879
0.877588
0.879411
0.881278
0.882832
0.883766
0.88415
0.88415
0.883902
0.883494
0.883011
0.882574
0.882269
0.882024
0.864572
0.864899
0.865484
0.866453
0.867675
0.869079
0.870685
0.872515
0.87456
0.876762
0.878689
0.879968
0.880673
0.880967
0.880981
0.880821
0.88055
0.880281
0.880062
0.879856
0.859432
0.859703
0.86023
0.861158
0.862374
0.863818
0.865519
0.867516
0.869827
0.872421
0.874815
0.876536
0.877629
0.878258
0.878561
0.878655
0.8786
0.878484
0.878335
0.878155
0.854028
0.854255
0.854746
0.855664
0.856915
0.858444
0.860285
0.862509
0.865161
0.868239
0.871202
0.873452
0.874999
0.876015
0.876646
0.877002
0.877178
0.877207
0.877115
0.876953
0.84826
0.848453
0.848927
0.849866
0.851192
0.852852
0.854892
0.857414
0.860499
0.864178
0.867828
0.870709
0.872791
0.874253
0.875259
0.875927
0.876334
0.876498
0.876454
0.876304
0.842016
0.842182
0.842656
0.843644
0.845088
0.846932
0.84924
0.852146
0.855772
0.860185
0.864669
0.868305
0.871021
0.873004
0.874442
0.875459
0.87612
0.87642
0.876418
0.876274
0.835166
0.835309
0.835798
0.836864
0.838471
0.840561
0.843216
0.846609
0.850904
0.856214
0.861701
0.866241
0.86971
0.872309
0.874242
0.87566
0.876609
0.87705
0.877087
0.876944
0.827556
0.827676
0.828193
0.829367
0.831189
0.833595
0.836692
0.840692
0.845811
0.852211
0.858906
0.864524
0.868882
0.872209
0.874735
0.876619
0.877891
0.878479
0.87855
0.878405
0.818982
0.819085
0.819637
0.820954
0.823054
0.825861
0.829511
0.834267
0.840399
0.848121
0.856264
0.863162
0.86857
0.872755
0.875993
0.878424
0.880058
0.8808
0.880901
0.880749
0.809156
0.809257
0.809879
0.811376
0.813833
0.817145
0.821487
0.827181
0.834559
0.843886
0.853759
0.862169
0.868816
0.87401
0.878083
0.881155
0.883199
0.8841
0.884225
0.884062
0.797787
0.797865
0.798577
0.800327
0.803228
0.80718
0.812394
0.819259
0.828172
0.839443
0.851376
0.861561
0.869656
0.876036
0.881071
0.884895
0.887389
0.888447
0.888589
0.888412
0.784428
0.784495
0.785317
0.787383
0.790853
0.795627
0.801952
0.810293
0.821106
0.834734
0.849106
0.861359
0.871121
0.878873
0.885029
0.889701
0.892672
0.893874
0.894021
0.893826
0.76847
0.768528
0.769505
0.771996
0.776215
0.782062
0.789827
0.800051
0.813234
0.829716
0.846956
0.861586
0.873245
0.882558
0.889978
0.895586
0.89904
0.900355
0.90049
0.900275
0.749059
0.749113
0.750317
0.753408
0.758648
0.765945
0.775622
0.78829
0.804451
0.824379
0.844952
0.862268
0.876051
0.887104
0.895904
0.902517
0.906407
0.907778
0.907879
0.907645
0.724935
0.724995
0.726558
0.730552
0.737266
0.746597
0.758901
0.774799
0.794712
0.818768
0.84315
0.863446
0.879549
0.892491
0.902771
0.910371
0.914584
0.915924
0.915969
0.915719
0.694125
0.694217
0.696402
0.701869
0.710899
0.72324
0.739267
0.759473
0.784083
0.813007
0.841657
0.865175
0.883747
0.898659
0.910475
0.918933
0.923268
0.924466
0.924435
0.924178
0.653287
0.65352
0.656999
0.665192
0.678153
0.695193
0.716549
0.742433
0.77279
0.807309
0.840623
0.867535
0.888644
0.905567
0.918843
0.927883
0.932047
0.932988
0.932874
0.932623
0.596036
0.597239
0.604221
0.618128
0.637981
0.662313
0.691075
0.724139
0.761247
0.801968
0.840224
0.870621
0.894246
0.913086
0.927619
0.936806
0.940444
0.941052
0.940871
0.940637
0.513117
0.521277
0.537412
0.561825
0.592004
0.626109
0.663878
0.705143
0.749676
0.797081
0.840609
0.874745
0.901095
0.921946
0.937358
0.946206
0.949102
0.949389
0.949176
0.948987
0.424485
0.44248
0.468714
0.504426
0.545504
0.589486
0.63622
0.685723
0.737883
0.792411
0.841851
0.880362
0.90999
0.933003
0.948964
0.956679
0.958539
0.958561
0.95839
0.958279
0.348254
0.370286
0.404951
0.45032
0.501035
0.554326
0.609778
0.667346
0.726898
0.788161
0.843033
0.885427
0.91788
0.942569
0.958356
0.964691
0.965815
0.965757
0.965632
0.965555
0.285383
0.309887
0.350347
0.402642
0.460873
0.521901
0.585001
0.649914
0.716309
0.783819
0.843668
0.889583
0.924447
0.95031
0.965701
0.971066
0.971835
0.971755
0.971654
0.971593
0.232948
0.258972
0.303635
0.361292
0.4255
0.492843
0.562393
0.633713
0.706245
0.779446
0.843859
0.89299
0.930047
0.956885
0.97183
0.976435
0.976985
0.976893
0.976808
0.976752
0.188369
0.215295
0.263067
0.325051
0.39425
0.466939
0.542021
0.618935
0.696937
0.775291
0.843865
0.895922
0.934957
0.962596
0.977047
0.981074
0.981485
0.981385
0.981306
0.981253
0.149564
0.177077
0.227267
0.292831
0.36628
0.443614
0.52358
0.605499
0.688453
0.771506
0.843867
0.898549
0.939319
0.967556
0.981529
0.985125
0.985437
0.985321
0.985241
0.985188
0.115023
0.142976
0.195143
0.263752
0.340887
0.422304
0.506657
0.59315
0.680683
0.768098
0.843919
0.900931
0.943168
0.971835
0.985348
0.98862
0.988857
0.98872
0.988633
0.988575
0.0836857
0.112017
0.165848
0.237118
0.317505
0.402558
0.490885
0.581602
0.673449
0.764994
0.84403
0.903109
0.946551
0.975466
0.988522
0.991542
0.991724
0.991569
0.991472
0.991406
0.0547007
0.0834103
0.138727
0.2124
0.295683
0.384008
0.475964
0.570618
0.666572
0.762115
0.844233
0.905165
0.949546
0.978481
0.991056
0.993873
0.994029
0.993876
0.993776
0.9937
0.0276332
0.0566709
0.113338
0.189168
0.275065
0.366362
0.461658
0.560003
0.659912
0.759415
0.84459
0.907229
0.952291
0.980997
0.993023
0.995664
0.995828
0.995712
0.995626
0.995542
0.00194976
0.0313905
0.0893003
0.167105
0.255377
0.349385
0.447779
0.549602
0.653345
0.756843
0.845179
0.909472
0.954972
0.983193
0.994583
0.997057
0.997266
0.997224
0.997173
0.997087
-0.0225316
0.00730675
0.0663778
0.145986
0.236413
0.332908
0.434175
0.539287
0.646756
0.754339
0.846075
0.912105
0.957851
0.985316
0.995964
0.998268
0.998547
0.998605
0.998608
0.998526
-0.0460109
-0.0157666
0.0443861
0.125651
0.21804
0.316806
0.420731
0.528942
0.640033
0.751804
0.847302
0.91535
0.961234
0.987642
0.997397
0.999519
0.999889
1.00005
1.00011
1.00003
-0.0686378
-0.0379402
0.023218
0.106003
0.200155
0.300994
0.407368
0.518489
0.633077
0.749114
0.848822
0.919401
0.965498
0.990488
0.999053
1.00093
1.00144
1.0017
1.00177
1.0017
-0.0905338
-0.0593464
0.00281603
0.0869768
0.182713
0.285417
0.394037
0.507862
0.625798
0.746126
0.850517
0.924383
0.971074
0.994317
1.00108
1.00242
1.00312
1.00356
1.00368
1.00356
-0.111615
-0.0799678
-0.0168542
0.0685235
0.165677
0.270063
0.380707
0.497028
0.618131
0.742718
0.852196
0.930295
0.978396
0.999821
1.00391
1.0039
1.00459
1.00565
1.00619
1.00605
-0.131909
-0.0998332
-0.0358341
0.0506284
0.149042
0.254923
0.367388
0.485967
0.610031
0.73876
0.853638
0.936972
0.987772
1.00796
1.00881
1.00614
1.00609
1.0082
1.01019
1.01048
-0.151512
-0.118946
-0.0541486
0.0332789
0.132821
0.240023
0.3541
0.474691
0.60147
0.734153
0.854578
0.944106
0.999226
1.01966
1.0177
1.01168
1.00988
1.01308
1.01766
1.01967
-0.170317
-0.137315
-0.0717792
0.0165024
0.11703
0.2254
0.340881
0.463237
0.592459
0.72883
0.85476
0.951256
1.01239
1.0351
1.03196
1.02314
1.01863
1.02037
1.0256
1.02842
-0.188431
-0.154982
-0.0887552
0.000241386
0.101607
0.210988
0.327656
0.451517
0.582886
0.722659
0.853921
0.958004
1.02685
1.05393
1.05168
1.04142
1.0332
1.02692
1.02027
1.02496
-0.205811
-0.172019
-0.10523
-0.0157072
0.0862544
0.196466
0.314026
0.439077
0.57226
0.715097
0.851534
0.963785
1.04252
1.07626
1.07646
1.06605
1.05232
1.03689
1.01362
1.0189
-0.222358
-0.188433
-0.121065
-0.0311706
0.07121
0.182107
0.30015
0.426176
0.56077
0.706188
0.847233
0.967222
1.05752
1.09997
1.10197
1.08946
1.07075
1.03757
0.983293
0.961724
-0.237984
-0.205284
-0.135852
-0.0457209
0.0572795
0.168398
0.286301
0.413077
0.548666
0.696032
0.840841
0.967243
1.0694
1.12225
1.12088
1.10213
1.06946
1.00936
0.947827
0.911028
-0.279816
-0.221959
-0.149304
-0.0603508
0.0436797
0.154313
0.272625
0.399629
0.535686
0.684152
0.831636
0.962514
1.07434
1.13597
1.13123
1.08876
1.01955
0.943022
0.871379
0.831789
-0.252397
-0.23321
-0.169725
-0.0801227
0.0225257
0.133114
0.251018
0.377908
0.514003
0.662833
0.811804
0.945267
1.05378
1.12282
1.08172
0.945376
0.839011
0.765278
0.69555
0.713875
-0.282041
-0.249657
-0.185273
-0.0960513
0.00627238
0.116826
0.235139
0.3617
0.497321
0.645372
0.793189
0.92439
1.02146
1.0607
0.980852
0.817491
0.693006
0.609098
0.521277
0.557205
-0.304551
-0.26988
-0.203779
-0.114481
-0.0121681
0.0984837
0.216864
0.342902
0.477584
0.623927
0.76871
0.894271
0.979047
0.979931
0.845498
0.671652
0.529239
0.426333
0.325914
0.347921
-0.326201
-0.290584
-0.223188
-0.133257
-0.0308389
0.0797754
0.197764
0.323039
0.456432
0.600381
0.74054
0.856324
0.922429
0.888797
0.705517
0.514058
0.34415
0.203069
0.0736549
0.0756102
-0.347399
-0.311503
-0.243286
-0.152806
-0.0502499
0.0601873
0.177588
0.301874
0.433556
0.574424
0.708468
0.813403
0.857319
0.769911
0.566707
0.358213
0.164892
0.00653754
-0.199116
-0.280316
-0.368837
-0.33312
-0.264479
-0.173649
-0.0709647
0.0392936
0.156118
0.279292
0.408992
0.546223
0.673105
0.767964
0.781787
0.643684
0.438768
0.221049
0.0241725
-0.138596
-0.260595
-0.3714
-0.391568
-0.355906
-0.287116
-0.196169
-0.093521
0.01642
0.13252
0.254324
0.381555
0.51431
0.633249
0.713525
0.697717
0.523325
0.318313
0.107305
-0.0726011
-0.170945
-0.196538
-0.209371
-0.415748
-0.380159
-0.311325
-0.22045
-0.118063
-0.00866108
0.106405
0.22643
0.35059
0.477861
0.587612
0.648343
0.609687
0.407399
0.205034
0.0147264
-0.121428
-0.159768
-0.167912
-0.16829
-0.441674
-0.406012
-0.337146
-0.246481
-0.144544
-0.0359695
0.0777275
0.195526
0.315984
0.436849
0.536657
0.579068
0.502261
0.300579
0.105322
-0.0600653
-0.136191
-0.150195
-0.151121
-0.15099
-0.469348
-0.433501
-0.364612
-0.274271
-0.172994
-0.0655148
0.0464548
0.161565
0.277727
0.391365
0.480343
0.504329
0.388993
0.203161
0.0192376
-0.111717
-0.140594
-0.141173
-0.14167
-0.141257
-0.498527
-0.462475
-0.393635
-0.303753
-0.203347
-0.0972657
0.0125864
0.124544
0.235867
0.341539
0.419536
0.422293
0.289203
0.114623
-0.0477513
-0.123475
-0.138013
-0.135927
-0.135604
-0.135197
-0.528664
-0.492591
-0.423963
-0.334712
-0.235429
-0.131083
-0.023747
0.0845684
0.190638
0.287946
0.354391
0.340171
0.198297
0.0373658
-0.0924072
-0.131731
-0.13097
-0.13141
-0.131162
-0.130851
-0.559317
-0.523327
-0.455119
-0.366742
-0.268904
-0.166656
-0.0622698
0.0419131
0.142349
0.231595
0.284103
0.263115
0.117539
-0.0229755
-0.117806
-0.126348
-0.127922
-0.128253
-0.128195
-0.128027
-0.5895
-0.553825
-0.486392
-0.399225
-0.303228
-0.203512
-0.102517
-0.00291782
0.0914444
0.173369
0.214376
0.185491
0.049344
-0.064937
-0.122037
-0.1324
-0.127176
-0.126156
-0.125807
-0.125646
-0.617641
-0.582831
-0.516759
-0.431286
-0.33763
-0.240944
-0.14381
-0.0491644
0.0387486
0.113745
0.149812
0.106629
-0.0056584
-0.0969888
-0.120203
-0.123684
-0.124464
-0.12402
-0.123827
-0.123697
-0.642441
-0.608859
-0.544845
-0.461735
-0.371057
-0.278011
-0.185258
-0.0958795
-0.014445
0.0533243
0.0868836
0.039152
-0.0472228
-0.11568
-0.136599
-0.127257
-0.123986
-0.122922
-0.122591
-0.122431
-0.661338
-0.629834
-0.568916
-0.489075
-0.402205
-0.313527
-0.22574
-0.141971
-0.066806
-0.00601674
0.0245054
-0.0135941
-0.0748632
-0.119374
-0.124779
-0.124319
-0.122849
-0.122277
-0.122067
-0.121909
-0.672366
-0.643718
-0.58694
-0.511589
-0.429564
-0.346111
-0.263932
-0.186163
-0.117202
-0.0616336
-0.0323398
-0.0576602
-0.0916767
-0.117546
-0.117521
-0.120934
-0.122271
-0.122405
-0.122399
-0.122321
-0.672884
-0.648186
-0.596873
-0.527466
-0.451521
-0.374309
-0.29841
-0.226956
-0.164381
-0.112895
-0.0797427
-0.0973624
-0.106347
-0.12065
-0.122955
-0.123174
-0.123671
-0.123896
-0.123989
-0.123973
-0.660498
-0.640562
-0.596598
-0.534998
-0.466635
-0.396758
-0.327848
-0.26284
-0.206547
-0.160974
-0.11546
-0.134212
-0.12187
-0.130821
-0.131203
-0.128466
-0.127529
-0.127589
-0.127738
-0.127723
-0.633305
-0.618798
-0.584375
-0.533016
-0.473887
-0.412488
-0.351225
-0.292736
-0.24193
-0.20393
-0.155956
-0.150256
-0.140872
-0.144861
-0.13898
-0.13631
-0.134468
-0.13447
-0.134789
-0.134822
-0.594797
-0.585575
-0.561533
-0.521875
-0.473355
-0.421265
-0.367992
-0.316042
-0.270037
-0.237504
-0.205901
-0.177679
-0.149122
-0.151253
-0.157571
-0.151593
-0.148313
-0.14789
-0.148406
-0.148436
-0.551996
-0.546734
-0.532967
-0.504695
-0.46715
-0.423971
-0.378266
-0.332408
-0.290297
-0.259027
-0.230933
-0.203784
-0.170434
-0.146055
-0.127839
-0.136377
-0.159257
-0.172267
-0.175893
-0.176256
-0.514526
-0.511298
-0.504702
-0.486723
-0.458105
-0.42241
-0.383065
-0.34183
-0.301671
-0.268856
-0.243102
-0.226255
-0.218779
-0.232177
-0.258091
-0.291429
-0.295836
-0.262088
-0.243087
-0.244985
-0.487512
-0.485598
-0.482277
-0.471652
-0.449813
-0.419656
-0.384306
-0.34526
-0.304845
-0.268201
-0.240664
-0.233838
-0.270566
-0.338969
-0.41145
-0.452743
-0.458894
-0.424329
-0.377774
-0.361232
-0.467695
-0.467023
-0.465917
-0.460675
-0.444712
-0.418176
-0.383992
-0.34459
-0.301285
-0.257867
-0.227097
-0.202317
-0.193677
-0.217451
-0.270585
-0.283451
-0.271672
-0.246466
-0.215149
-0.198895
-0.456048
-0.455828
-0.455228
-0.452857
-0.442053
-0.417679
-0.383107
-0.341525
-0.293464
-0.24045
-0.195263
-0.133018
-0.0570392
0.0100496
0.0432155
0.0661869
0.102099
0.139593
0.171675
0.187594
-0.447939
-0.447794
-0.447395
-0.446748
-0.440194
-0.418287
-0.382681
-0.337578
-0.283765
-0.218636
-0.151499
-0.0645118
0.0758597
0.249946
0.414072
0.545644
0.636643
0.695286
0.729365
0.743525
-0.442585
-0.442543
-0.442432
-0.442288
-0.43845
-0.420063
-0.383438
-0.334027
-0.274238
-0.198474
-0.113115
-0.0166544
0.168369
0.428618
0.701469
0.941457
1.11063
1.20159
1.23911
1.25084
-0.43818
-0.438174
-0.438103
-0.43801
-0.436647
-0.422249
-0.385564
-0.332533
-0.267083
-0.184139
-0.0874109
0.01524
0.211577
0.502368
0.819351
1.10844
1.32651
1.44499
1.4888
1.50058
-0.434425
-0.434416
-0.43429
-0.434027
-0.433847
-0.423862
-0.388993
-0.333994
-0.264343
-0.177649
-0.0763759
0.0284435
0.207257
0.484115
0.788204
1.06926
1.28879
1.41186
1.45983
1.47221
-0.431605
-0.431609
-0.431555
-0.431493
-0.431865
-0.424891
-0.393615
-0.338005
-0.266657
-0.179338
-0.0803761
0.0174257
0.166119
0.411864
0.67256
0.906133
1.0944
1.20632
1.25076
1.26182
-0.428808
-0.428896
-0.429128
-0.429547
-0.429831
-0.426133
-0.398627
-0.344316
-0.27376
-0.189224
-0.0971989
-0.0109005
0.102368
0.304287
0.519632
0.701179
0.845544
0.933374
0.968427
0.976759
-0.425808
-0.42597
-0.42624
-0.426617
-0.427049
-0.425842
-0.402717
-0.351743
-0.28457
-0.205307
-0.121823
-0.0471758
0.0364193
0.192564
0.361179
0.49752
0.6036
0.667495
0.691794
0.69667
-0.422907
-0.423089
-0.423321
-0.423606
-0.424192
-0.423894
-0.404953
-0.359082
-0.29769
-0.224722
-0.150298
-0.0868531
-0.0264446
0.0901536
0.217387
0.316441
0.391005
0.43531
0.451647
0.453996
-0.420555
-0.420637
-0.42052
-0.420012
-0.419416
-0.419072
-0.404963
-0.366066
-0.311683
-0.245354
-0.179528
-0.126417
-0.0807128
0.00408055
0.0980608
0.168651
0.219116
0.248024
0.258137
0.259663
-0.420419
-0.420289
-0.419546
-0.417491
-0.414103
-0.412131
-0.404292
-0.37373
-0.325402
-0.264471
-0.208128
-0.163105
-0.127299
-0.0637865
0.00413907
0.0527576
0.0869747
0.105484
0.111775
0.112693
-0.424252
-0.424085
-0.423408
-0.421613
-0.418434
-0.415798
-0.410296
-0.384877
-0.337911
-0.282626
-0.234997
-0.195736
-0.167105
-0.11967
-0.0678864
-0.0320167
-0.00819636
0.00494562
0.00934639
0.00975907
-0.430381
-0.430662
-0.431751
-0.434865
-0.43946
-0.440861
-0.432701
-0.400475
-0.349411
-0.30025
-0.258405
-0.223301
-0.199185
-0.162211
-0.121661
-0.0935252
-0.0739403
-0.0631759
-0.0595606
-0.0595203
-0.433173
-0.434116
-0.437752
-0.448652
-0.46582
-0.47231
-0.457846
-0.412243
-0.36016
-0.316869
-0.27779
-0.244338
-0.226475
-0.194688
-0.15933
-0.134683
-0.117106
-0.107456
-0.104456
-0.104742
-0.430575
-0.431494
-0.43495
-0.444786
-0.463247
-0.475141
-0.453408
-0.409523
-0.366999
-0.329285
-0.28892
-0.260588
-0.245504
-0.218509
-0.187221
-0.16432
-0.147672
-0.138413
-0.135679
-0.136151
-0.429791
-0.430286
-0.430744
-0.424147
-0.406676
-0.396346
-0.39886
-0.387079
-0.366852
-0.33228
-0.294185
-0.270821
-0.258132
-0.230948
-0.202658
-0.182453
-0.167674
-0.159828
-0.157469
-0.158024
-0.435663
-0.435312
-0.431791
-0.408878
-0.361105
-0.328798
-0.344745
-0.367304
-0.363505
-0.329073
-0.294674
-0.273992
-0.261262
-0.235775
-0.209457
-0.191312
-0.178888
-0.172756
-0.170754
-0.171229
-0.452333
-0.450039
-0.446447
-0.431495
-0.400645
-0.374011
-0.381222
-0.396649
-0.375186
-0.329097
-0.291171
-0.270622
-0.254374
-0.229394
-0.206452
-0.190525
-0.17984
-0.174353
-0.172525
-0.1729
-0.507743
-0.508665
-0.524788
-0.549141
-0.555026
-0.533713
-0.505025
-0.460804
-0.396253
-0.327633
-0.285698
-0.259984
-0.239432
-0.214565
-0.193289
-0.178131
-0.167806
-0.162399
-0.1606
-0.160981
-0.601489
-0.611698
-0.642388
-0.674751
-0.684655
-0.662918
-0.611932
-0.518553
-0.40799
-0.320376
-0.273991
-0.24069
-0.217063
-0.194642
-0.173266
-0.156517
-0.144814
-0.138502
-0.136566
-0.137105
-0.656593
-0.668944
-0.693392
-0.715824
-0.724024
-0.702915
-0.639889
-0.517873
-0.390947
-0.302043
-0.247842
-0.21164
-0.191452
-0.169385
-0.146514
-0.128241
-0.114975
-0.107567
-0.105688
-0.106457
-0.621196
-0.629415
-0.647152
-0.665512
-0.674148
-0.655409
-0.587602
-0.454144
-0.338148
-0.258743
-0.203605
-0.175229
-0.16116
-0.138633
-0.115051
-0.0967327
-0.0833707
-0.0762259
-0.0748658
-0.0758634
-0.491574
-0.501711
-0.518955
-0.536686
-0.545837
-0.530114
-0.4616
-0.349349
-0.259075
-0.18972
-0.146726
-0.132377
-0.122808
-0.102373
-0.0821635
-0.0665868
-0.0550798
-0.049724
-0.0491161
-0.0500931
-0.290473
-0.302122
-0.321415
-0.343916
-0.356034
-0.337633
-0.276588
-0.207788
-0.152146
-0.106928
-0.0862488
-0.079448
-0.0758816
-0.0604216
-0.046755
-0.0363997
-0.0288576
-0.0259903
-0.0264112
-0.0273771
0.00961241
-0.00540775
-0.0480051
-0.0803255
-0.0867214
-0.0806723
-0.0675778
-0.0506522
-0.0373601
-0.0259273
-0.0217158
-0.0175669
-0.0166237
-0.0150331
-0.0105989
-0.0110141
-0.0108446
-0.0108613
-0.00882721
-0.007773
0.196958
0.377646
0.542019
0.679894
0.787765
0.870446
0.937908
0.992681
1.00567
1.00327
0.468606
0.583317
0.690368
0.781908
0.857813
0.919624
0.968038
1.00078
1.01849
1.03572
0.652181
0.728086
0.80303
0.868327
0.923535
0.969165
1.00524
1.0331
1.05414
1.0735
0.788619
0.842755
0.897054
0.945668
0.987566
1.02329
1.05346
1.07891
1.09855
1.11746
0.899857
0.940814
0.981261
1.01924
1.05328
1.08349
1.11001
1.13263
1.15026
1.16836
0.993106
1.02734
1.06097
1.09327
1.12315
1.15031
1.17439
1.19473
1.2102
1.22769
1.07899
1.11005
1.14133
1.17165
1.19991
1.22566
1.2483
1.26689
1.28058
1.29757
1.16438
1.19643
1.22826
1.25895
1.28729
1.31269
1.3345
1.35179
1.364
1.38049
1.25784
1.29406
1.3285
1.36064
1.38951
1.41459
1.43549
1.4516
1.46309
1.47919
1.37047
1.41117
1.44793
1.48055
1.50878
1.53259
1.55206
1.56722
1.57902
1.59505
1.51184
1.55261
1.58771
1.61709
1.64214
1.66364
1.68205
1.69746
1.71052
1.72644
1.68301
1.71489
1.74182
1.76414
1.78417
1.80283
1.82052
1.83725
1.85213
1.86783
1.86899
1.88616
1.90322
1.91988
1.93595
1.95066
1.96454
1.979
1.99421
2.01151
2.05235
2.06223
2.07539
2.08635
2.09576
2.1054
2.11599
2.12614
2.13542
2.16109
2.2701
2.2644
2.25144
2.23719
2.23088
2.23656
2.2547
2.28322
2.31698
2.3533
2.57294
2.43699
2.35746
2.31488
2.29755
2.30155
2.32896
2.38682
2.49447
2.67288
0.994471
0.988169
0.980443
0.969334
0.955772
0.943136
0.932758
0.924774
0.919097
0.915821
0.915542
0.918444
0.923733
0.931131
0.940711
0.952562
0.966139
0.979078
0.988075
0.99562
0.90352
0.909441
0.917518
0.923658
0.926737
0.92624
0.923175
0.91921
0.915664
0.91344
0.913382
0.915711
0.919526
0.924017
0.928151
0.930421
0.929365
0.924741
0.917693
0.909864
0.896738
0.899111
0.902384
0.905166
0.90763
0.909836
0.91104
0.910928
0.910039
0.909299
0.9096
0.9111
0.912951
0.914232
0.914196
0.912758
0.910621
0.908275
0.905304
0.902291
0.891903
0.892992
0.894915
0.897264
0.899152
0.900572
0.901819
0.902852
0.903508
0.903964
0.904618
0.905461
0.906008
0.905952
0.905371
0.904484
0.903179
0.901229
0.899136
0.897663
0.886819
0.887453
0.888589
0.890361
0.892224
0.893843
0.895129
0.89624
0.897289
0.898279
0.899183
0.899822
0.900055
0.899923
0.899444
0.898514
0.897119
0.895534
0.894213
0.893415
0.881818
0.882256
0.883052
0.884373
0.885919
0.887514
0.889034
0.890387
0.891621
0.892817
0.893911
0.894655
0.89495
0.894805
0.894212
0.893268
0.892156
0.891044
0.890159
0.88963
0.876887
0.877214
0.877834
0.878923
0.880248
0.881686
0.883215
0.884758
0.886244
0.887677
0.888992
0.889909
0.890278
0.890145
0.889636
0.888921
0.888129
0.887313
0.886674
0.886286
0.871999
0.872251
0.872753
0.873688
0.874896
0.87625
0.877733
0.879343
0.881034
0.882752
0.884351
0.885478
0.885994
0.886034
0.885763
0.885303
0.884737
0.884158
0.883703
0.883408
0.867077
0.867278
0.867697
0.868526
0.869662
0.870979
0.87246
0.874131
0.875987
0.877982
0.879917
0.881353
0.882146
0.882464
0.882461
0.88225
0.881908
0.881534
0.881223
0.880992
0.862034
0.862194
0.862556
0.863315
0.864414
0.865723
0.867249
0.869025
0.871067
0.873359
0.875694
0.877548
0.878718
0.87937
0.879658
0.879707
0.879601
0.879417
0.879226
0.879041
0.856774
0.856903
0.857224
0.857943
0.859034
0.860381
0.861993
0.863922
0.866209
0.868865
0.871688
0.874058
0.87568
0.876721
0.877342
0.877674
0.877806
0.877811
0.877725
0.877576
0.851201
0.851304
0.851598
0.852303
0.853422
0.854852
0.856598
0.858737
0.861343
0.864459
0.867879
0.870868
0.873024
0.874517
0.875518
0.876163
0.876563
0.876754
0.876759
0.876637
0.84521
0.845291
0.84557
0.846286
0.847469
0.849025
0.85096
0.853381
0.856395
0.860081
0.864231
0.867964
0.870756
0.872778
0.874217
0.875238
0.875921
0.876298
0.876387
0.876286
0.838681
0.838741
0.839015
0.839764
0.841049
0.842778
0.844969
0.847756
0.851282
0.855671
0.860707
0.865335
0.868884
0.871532
0.873479
0.874918
0.875927
0.87651
0.876681
0.876595
0.831472
0.831509
0.831787
0.832593
0.834018
0.835977
0.8385
0.84175
0.845914
0.851163
0.857271
0.862973
0.867423
0.870811
0.873361
0.875283
0.876668
0.877475
0.877726
0.877651
0.823408
0.823427
0.823709
0.824594
0.826202
0.828457
0.831401
0.835231
0.840184
0.846485
0.853888
0.860872
0.866389
0.870651
0.873918
0.876423
0.878236
0.879284
0.879614
0.879546
0.814234
0.814241
0.81455
0.815541
0.817388
0.820017
0.823489
0.828043
0.833973
0.841559
0.85052
0.859031
0.865811
0.871101
0.875211
0.878411
0.880717
0.882029
0.882436
0.88237
0.803684
0.803665
0.804014
0.805155
0.807302
0.810405
0.814543
0.820002
0.827139
0.836295
0.847132
0.857449
0.865714
0.872215
0.87732
0.88132
0.884197
0.885792
0.886272
0.886202
0.79137
0.79133
0.79173
0.793062
0.795591
0.799301
0.804285
0.810883
0.819524
0.830602
0.843688
0.856133
0.866126
0.874034
0.880305
0.885225
0.888744
0.890631
0.891171
0.891092
0.776774
0.776711
0.777193
0.778779
0.781799
0.786297
0.79237
0.800424
0.810952
0.82439
0.840165
0.855093
0.867074
0.87659
0.884209
0.890174
0.894387
0.896556
0.897137
0.897041
0.75917
0.759085
0.759696
0.76164
0.765319
0.770863
0.778374
0.788319
0.801246
0.817588
0.836561
0.854355
0.868585
0.879918
0.889025
0.896159
0.901101
0.903511
0.904099
0.903978
0.737518
0.737416
0.73824
0.740706
0.745313
0.752308
0.761779
0.774244
0.790256
0.810175
0.832909
0.853956
0.870687
0.88402
0.894755
0.903146
0.908777
0.911342
0.911892
0.911738
0.710235
0.710135
0.711315
0.714595
0.720623
0.729739
0.742003
0.757907
0.77791
0.802205
0.829299
0.853956
0.873405
0.888885
0.901352
0.911013
0.917202
0.919782
0.920238
0.92005
0.674754
0.674713
0.676544
0.681238
0.689655
0.702131
0.718523
0.739169
0.764293
0.793845
0.825883
0.854458
0.876772
0.89449
0.908727
0.919557
0.926047
0.928449
0.92876
0.928541
0.626516
0.626716
0.629994
0.637682
0.650572
0.668603
0.691156
0.718224
0.749727
0.785391
0.822876
0.855593
0.880839
0.900782
0.916745
0.928493
0.934872
0.936877
0.937014
0.936779
0.556968
0.558498
0.566519
0.581144
0.602331
0.629241
0.660506
0.695754
0.734781
0.777245
0.820505
0.857463
0.885639
0.907686
0.925117
0.937312
0.943102
0.944534
0.944518
0.944299
0.473821
0.476762
0.49243
0.517798
0.550398
0.58775
0.628403
0.672224
0.719134
0.768889
0.818604
0.860572
0.892401
0.917121
0.935984
0.947982
0.952883
0.953822
0.953757
0.953629
0.388406
0.396065
0.419666
0.455753
0.499345
0.546935
0.596967
0.64938
0.704171
0.76116
0.817251
0.864134
0.899484
0.926814
0.946953
0.958192
0.961687
0.96208
0.961988
0.961914
0.318202
0.328104
0.356707
0.400379
0.452562
0.508782
0.567233
0.627666
0.689921
0.753734
0.815734
0.867069
0.905515
0.934914
0.955575
0.965849
0.968509
0.968725
0.968647
0.968601
0.260435
0.271115
0.30354
0.352814
0.411469
0.474545
0.540015
0.607428
0.676394
0.746452
0.813881
0.86929
0.91054
0.941668
0.962625
0.972087
0.974188
0.974307
0.974243
0.974213
0.21184
0.222909
0.257979
0.311603
0.375505
0.44423
0.515574
0.588974
0.663846
0.739525
0.811904
0.871037
0.914852
0.947534
0.968643
0.977364
0.979077
0.979139
0.979083
0.979061
0.170007
0.181251
0.218285
0.275386
0.343647
0.41719
0.493624
0.572269
0.652399
0.733151
0.810036
0.872546
0.91867
0.952688
0.973815
0.981912
0.983358
0.983376
0.983318
0.9833
0.133218
0.144523
0.183088
0.243059
0.315021
0.392737
0.473668
0.55703
0.641951
0.727359
0.808374
0.873935
0.922088
0.957202
0.978261
0.98584
0.987093
0.987071
0.987004
0.986981
0.100215
0.111537
0.151307
0.213746
0.288922
0.370306
0.455253
0.542915
0.632275
0.722055
0.806916
0.875235
0.925134
0.961133
0.982024
0.989167
0.99028
0.990222
0.99014
0.990109
0.0699645
0.0813181
0.12215
0.18677
0.264799
0.349445
0.438011
0.529622
0.623148
0.717099
0.805634
0.876487
0.92788
0.96451
0.985123
0.991879
0.992891
0.992811
0.992721
0.992682
0.0418782
0.0532702
0.0950427
0.161625
0.242205
0.329786
0.42165
0.516914
0.614378
0.712375
0.804518
0.877782
0.930435
0.967418
0.987614
0.993995
0.99494
0.99487
0.994792
0.994749
0.0154583
0.0268993
0.069544
0.137912
0.220799
0.311044
0.405933
0.504597
0.605815
0.707789
0.803583
0.879239
0.932963
0.970019
0.989621
0.995614
0.99652
0.996502
0.996466
0.996431
-0.00970004
0.00187502
0.0453299
0.115347
0.200332
0.292996
0.390674
0.492521
0.597321
0.703248
0.80284
0.880999
0.935681
0.972536
0.991358
0.996931
0.997817
0.997886
0.99792
0.997906
-0.0337512
-0.0220248
0.0221986
0.0937226
0.180619
0.275494
0.375735
0.480557
0.588784
0.698637
0.802259
0.883212
0.938855
0.975245
0.993071
0.998176
0.999056
0.999231
0.999348
0.999364
-0.0569115
-0.0449839
-2.73416e-05
0.0729105
0.16154
0.258421
0.361015
0.468607
0.580103
0.693852
0.801761
0.885978
0.942785
0.978478
0.995005
0.999541
1.00044
1.00073
1.00091
1.00095
-0.0792011
-0.0670912
-0.0214347
0.0528285
0.143019
0.24171
0.346455
0.456608
0.571197
0.688769
0.801217
0.889324
0.94778
0.982661
0.997425
1.00108
1.00199
1.00246
1.00268
1.00271
-0.100754
-0.0884122
-0.0420441
0.0334294
0.125005
0.225319
0.332012
0.44452
0.562005
0.683288
0.800462
0.893174
0.954097
0.988359
1.00076
1.0028
1.00347
1.00426
1.00475
1.00483
-0.121445
-0.108963
-0.061896
0.0146692
0.10748
0.209253
0.317676
0.432321
0.552489
0.677329
0.799316
0.897342
0.961865
0.99622
1.0059
1.00524
1.00478
1.00596
1.00749
1.00808
-0.141454
-0.128755
-0.0810108
-0.00348052
0.0904248
0.193494
0.303472
0.420011
0.54263
0.670835
0.797604
0.901551
0.970995
1.00683
1.01427
1.0102
1.00737
1.00853
1.01195
1.01412
-0.160673
-0.147755
-0.0994162
-0.0210125
0.0738767
0.178077
0.289427
0.407641
0.532442
0.66374
0.795166
0.905458
0.981159
1.02034
1.02709
1.02007
1.01426
1.01447
1.0197
1.02487
-0.179197
-0.166065
-0.11709
-0.0379019
0.0578354
0.163031
0.275583
0.395233
0.521953
0.656059
0.791871
0.908658
0.991805
1.03626
1.0444
1.03608
1.02751
1.02418
1.02348
1.01977
-0.196954
-0.183671
-0.13413
-0.054329
0.0420721
0.148076
0.261617
0.382412
0.510766
0.647375
0.78734
0.910815
1.00284
1.05482
1.06648
1.05865
1.04784
1.03667
1.0246
1.02599
-0.213947
-0.200674
-0.150567
-0.0702538
0.0265783
0.133227
0.247535
0.369124
0.498796
0.637471
0.781202
0.911094
1.01301
1.07493
1.09134
1.08485
1.07039
1.05568
1.01879
0.982555
-0.230005
-0.216948
-0.166401
-0.0855544
0.0113309
0.118458
0.233304
0.355464
0.486049
0.626279
0.773153
0.908688
1.02028
1.09438
1.11624
1.10714
1.08711
1.0528
0.9988
0.947597
-0.247832
-0.231418
-0.181445
-0.0997663
-0.00339256
0.104004
0.21853
0.341451
0.472575
0.613838
0.762966
0.902893
1.02213
1.1112
1.13964
1.1241
1.07924
1.01679
0.946083
0.886824
-0.235906
-0.210728
-0.155911