/*--------------------------------*- C++ -*----------------------------------*\
  =========                 |
  \\      /  F ield         | OpenFOAM: The Open Source CFD Toolbox
   \\    /   O peration     | Website:  https://openfoam.org
    \\  /    A nd           | Version:  6
     \\/     M anipulation  |
\*---------------------------------------------------------------------------*/
FoamFile
{
    version     2.0;
    format      ascii;
    class       surfaceScalarField;
    location    "107.3";
    object      phi;
}
// * * * * * * * * * * * * * * * * * * * * * * * * * * * * * * * * * * * * * //

dimensions      [0 3 -1 0 0 0 0];

internalField   nonuniform List<scalar> 
17370
(
-0.0899999
0.0898488
0.289162
-0.0714621
0.0537522
0.364485
-0.038119
0.0276899
0.426597
-0.0196383
0.0146056
0.504284
-0.0107642
0.00827447
0.601892
-0.00627539
0.00489915
0.720434
-0.00373507
0.00289403
0.863748
-0.00215185
0.0015921
1.03601
-0.0010749
0.000661901
1.24292
-0.000253904
-0.000145282
1.49159
0.000525689
-0.000935933
1.4916
0.0013316
-0.00181374
1.24317
0.0023348
-0.00303827
1.03634
0.00385338
-0.00499953
0.864053
0.00636673
-0.0083604
0.721051
0.0108462
-0.0146826
0.603051
0.0197096
-0.0277539
0.507484
0.0381753
-0.0537997
0.431793
0.0715014
-0.0898754
0.36515
0.0900164
0.198994
-0.128139
0.088231
0.0399077
-0.364601
0.353384
-0.0746671
0.0858846
-0.446478
0.454323
-0.0843797
0.0765338
-0.521192
0.529905
-0.0684355
0.0597229
-0.612791
0.621572
-0.051533
0.0427524
-0.726897
0.734168
-0.0352906
0.0280196
-0.867477
0.872596
-0.0224165
0.0172976
-1.03848
1.04193
-0.0134843
0.0100306
-1.2446
1.24704
-0.00741652
0.00498016
-1.49262
1.49461
-0.0030279
0.00104109
-1.49251
1.49423
0.000630577
-0.00235416
-1.24397
1.24586
0.00426445
-0.00614811
-1.03751
1.04002
0.00849232
-0.011007
-0.866097
0.869825
0.0143533
-0.0180821
-0.724388
0.729931
0.0231231
-0.0286656
-0.608696
0.616108
0.0358784
-0.0432906
-0.514894
0.523037
0.0520191
-0.0601619
-0.439854
0.447912
0.0688229
-0.07688
-0.375293
0.376736
0.0846734
-0.0861161
-0.257328
0.222472
0.0748237
-0.0399678
-0.0685271
0.058704
0.00982303
-0.0517934
0.0583706
-0.374136
0.367558
-0.05745
0.0536941
-0.453601
0.457357
-0.0486012
0.0446458
-0.527955
0.53191
-0.0408026
0.0371604
-0.621573
0.625215
-0.0330543
0.0289734
-0.735358
0.739439
-0.0243963
0.0202299
-0.87435
0.878516
-0.0158762
0.0121753
-1.0435
1.0472
-0.00843061
0.00525212
-1.24857
1.25175
-0.00191903
-0.00115904
-1.49666
1.49974
0.00421072
-0.00747941
-1.4972
1.50047
0.0105557
-0.0141456
-1.25006
1.25365
0.0176852
-0.0218642
-1.04591
1.05009
0.0258866
-0.0303237
-0.877749
0.882186
0.0342906
-0.0382834
-0.73989
0.743882
0.0418293
-0.0455734
-0.626764
0.630508
0.0494435
-0.0544553
-0.534802
0.539814
0.0581199
-0.0589264
-0.457466
0.458273
0.052213
-0.0320006
-0.335737
0.315525
0.00989111
-0.0683347
0.0584436
-0.0529572
0.048966
0.00399122
-0.0331322
0.0436643
-0.358136
0.347604
-0.0473521
0.0467174
-0.459302
0.459937
-0.0436552
0.040297
-0.53582
0.539178
-0.0365185
0.0332087
-0.628549
0.631859
-0.0297634
0.0267235
-0.742671
0.745711
-0.0234543
0.0203373
-0.882042
0.885159
-0.0167955
0.013406
-1.0508
1.05419
-0.00960263
0.00605587
-1.25519
1.25873
-0.00207878
-0.00172496
-1.50325
1.50705
0.00549605
-0.00937237
-1.50413
1.508
0.0127741
-0.0163646
-1.2574
1.26099
0.019532
-0.0228299
-1.05389
1.05719
0.0257411
-0.0288054
-0.885662
0.888727
0.0316763
-0.0349529
-0.747133
0.750409
0.0381202
-0.0417545
-0.634284
0.637918
0.0449892
-0.0479098
-0.544115
0.547036
0.0483939
-0.0444936
-0.456548
0.452647
0.0337064
-0.0162377
-0.296142
0.278674
0.00407646
-0.0526191
0.0485426
-0.0458937
0.0434039
0.00248979
-0.0227658
0.0331237
-0.336932
0.326574
-0.0389269
0.0399318
-0.459632
0.458628
-0.0387311
0.0364369
-0.541907
0.544201
-0.0337612
0.0311569
-0.634921
0.637526
-0.0280831
0.0251723
-0.748767
0.751678
-0.0218932
0.0188854
-0.888122
0.89113
-0.0155648
0.0124518
-1.05733
1.06044
-0.00891196
0.00549209
-1.2622
1.26562
-0.0015188
-0.00237328
-1.51094
1.51483
0.00622117
-0.0100592
-1.51188
1.51572
0.0132866
-0.0165475
-1.26443
1.26769
0.0193706
-0.0223714
-1.06029
1.06329
0.0251056
-0.0281085
-0.89176
0.894763
0.0307886
-0.0336304
-0.753602
0.756444
0.0360388
-0.0385189
-0.640971
0.643452
0.0406463
-0.0416253
-0.548826
0.549805
0.0403868
-0.0342406
-0.447347
0.4412
0.0235056
-0.0102595
-0.263429
0.250183
0.0025954
-0.0453727
0.0427773
-0.0413359
0.039576
0.00175987
-0.0166934
0.0259149
-0.316748
0.307526
-0.0324922
0.0346129
-0.457046
0.454925
-0.0341766
0.0324948
-0.546192
0.547873
-0.0303029
0.0281965
-0.639846
0.641952
-0.0257509
0.023338
-0.754336
0.756749
-0.0204601
0.017652
-0.894039
0.896847
-0.0143948
0.0113071
-1.0635
1.06659
-0.0077982
0.00445736
-1.26895
1.27229
-0.000610967
-0.00313245
-1.51862
1.52236
0.00681932
-0.0104928
-1.51944
1.52311
0.0135883
-0.0167428
-1.27094
1.2741
0.0194621
-0.022311
-1.0663
1.06915
0.0247666
-0.0272862
-0.897552
0.900072
0.0293994
-0.0315446
-0.758877
0.761022
0.0333994
-0.0353386
-0.64559
0.647529
0.0367771
-0.0369118
-0.550302
0.550437
0.0344316
-0.0273501
-0.434502
0.42742
0.0176188
-0.0074374
-0.238617
0.228435
0.00188907
-0.0405896
0.0387005
-0.0380626
0.0367424
0.0013202
-0.012718
0.0206234
-0.29897
0.291065
-0.0273322
0.0302251
-0.452393
0.4495
-0.0304066
0.0292686
-0.549323
0.550461
-0.0272608
0.0253288
-0.644007
0.645939
-0.023109
0.0209505
-0.759007
0.761165
-0.018409
0.0159
-0.899438
0.901948
-0.0129288
0.0100236
-1.06954
1.07245
-0.00663488
0.00337181
-1.27557
1.27883
0.000394919
-0.00403781
-1.52602
1.52966
0.00760948
-0.011158
-1.52669
1.53024
0.0141128
-0.0170585
-1.27723
1.28018
0.0195043
-0.0219658
-1.07187
1.07433
0.0240331
-0.026123
-0.902328
0.904418
0.0279022
-0.0297404
-0.762983
0.764821
0.0313541
-0.0330538
-0.649329
0.651029
0.0338364
-0.0332317
-0.550199
0.549594
0.0298227
-0.0224212
-0.420117
0.412716
0.0138593
-0.00578138
-0.219404
0.211326
0.00147754
-0.0370412
0.0355637
-0.0355922
0.0345791
0.00101314
-0.009904
0.0165662
-0.283809
0.277147
-0.0229922
0.0263225
-0.446374
0.443043
-0.0270696
0.0263454
-0.551393
0.552117
-0.024565
0.0227602
-0.647858
0.649663
-0.0206634
0.0186182
-0.763261
0.765306
-0.016211
0.0138491
-0.904309
0.906671
-0.0110718
0.00835192
-1.07519
1.07791
-0.00515804
0.00204323
-1.28198
1.28509
0.00159444
-0.00512704
-1.53322
1.53675
0.00857117
-0.0119376
-1.53367
1.53704
0.0146708
-0.0173186
-1.28304
1.28569
0.0194734
-0.0216232
-1.07668
1.07883
0.0234387
-0.0252856
-0.906357
0.908204
0.0268595
-0.0284822
-0.766542
0.768164
0.0298916
-0.0312428
-0.652585
0.653936
0.0315262
-0.0301772
-0.548622
0.547273
0.0261336
-0.0187934
-0.405314
0.397973
0.0113044
-0.0046886
-0.204046
0.19743
0.00120466
-0.0342364
0.0330317
-0.0336933
0.0329093
0.000784044
-0.00781036
0.013386
-0.271061
0.265485
-0.0193083
0.0228187
-0.439619
0.436109
-0.0240283
0.0235434
-0.552765
0.55325
-0.0220221
0.0203206
-0.651476
0.653178
-0.0183108
0.0163428
-0.767305
0.769273
-0.0140178
0.0117344
-0.908921
0.911204
-0.00905066
0.00643265
-1.0805
1.08312
-0.00337146
0.000392818
-1.28809
1.29107
0.00308022
-0.00644407
-1.54017
1.54353
0.0096992
-0.0128391
-1.54024
1.54338
0.0153501
-0.0177443
-1.28829
1.29068
0.0196731
-0.0215901
-1.08094
1.08286
0.0232031
-0.0248387
-0.909921
0.911557
0.0262269
-0.0276529
-0.769677
0.771103
0.0288592
-0.0298189
-0.65509
0.65605
0.0297222
-0.0276906
-0.545569
0.543538
0.0232255
-0.016128
-0.390743
0.383645
0.0095238
-0.0039381
-0.191375
0.185789
0.00101693
-0.0319308
0.0309138
-0.0322254
0.03162
0.000605337
-0.00618666
0.0108306
-0.260407
0.255763
-0.0161423
0.0196336
-0.432616
0.429124
-0.0211491
0.0208798
-0.553677
0.553946
-0.0195803
0.0179319
-0.654913
0.656561
-0.0159689
0.0140407
-0.771208
0.773137
-0.0117631
0.00952761
-0.913379
0.915615
-0.00690074
0.00434277
-1.08562
1.08818
-0.00136158
-0.00152076
-1.29394
1.29682
0.00485201
-0.00804681
-1.54676
1.54996
0.011109
-0.014034
-1.54636
1.54928
0.0163468
-0.0185177
-1.29306
1.29523
0.0202392
-0.0219343
-1.08475
1.08644
0.0233519
-0.0247846
-0.913059
0.914492
0.0260008
-0.0272462
-0.772426
0.773671
0.0283079
-0.0288427
-0.656804
0.657339
0.028346
-0.0257298
-0.541204
0.538587
0.0209912
-0.0141941
-0.3767
0.369903
0.00827894
-0.00342071
-0.180601
0.175743
0.00088828
-0.0299689
0.0290806
-0.0310975
0.0306381
0.000459424
-0.00487119
0.00870778
-0.251554
0.247718
-0.0133626
0.0166843
-0.425736
0.422414
-0.0183633
0.0182719
-0.554187
0.554278
-0.0171536
0.0155322
-0.658275
0.659897
-0.0135801
0.011655
-0.775043
0.776968
-0.00938243
0.00715839
-0.917747
0.919971
-0.00455489
0.00202983
-1.09063
1.09316
0.00089952
-0.00371376
-1.29961
1.30242
0.00693842
-0.00999692
-1.55303
1.55609
0.012894
-0.0156245
-1.55205
1.55478
0.0177473
-0.0196957
-1.2974
1.29935
0.0212096
-0.0226859
-1.08813
1.0896
0.0239177
-0.0251642
-0.915793
0.917039
0.0262262
-0.0273084
-0.774817
0.775899
0.0281569
-0.0283197
-0.657672
0.657835
0.0273908
-0.0242637
-0.535708
0.532581
0.0193399
-0.0128262
-0.36326
0.356746
0.00742423
-0.00307222
-0.171166
0.166814
0.000803279
-0.0282417
0.0274384
-0.0302501
0.0299153
0.00033482
-0.0037603
0.00688314
-0.244268
0.241145
-0.0108671
0.0139071
-0.419261
0.416221
-0.0156201
0.0156669
-0.554374
0.554327
-0.0146175
0.0130557
-0.661578
0.663139
-0.0110841
0.0091272
-0.778881
0.780838
-0.0068185
0.00456802
-0.922096
0.924347
-0.00194723
-0.00057956
-1.09558
1.09811
0.00349135
-0.00626712
-1.30515
1.30792
0.00941777
-0.0123697
-1.55903
1.56198
0.0151262
-0.0176785
-1.55734
1.55989
0.0196179
-0.0213457
-1.30132
1.30304
0.0226541
-0.0239165
-1.09109
1.09235
0.024968
-0.0260343
-0.91815
0.919217
0.0269496
-0.0278719
-0.776868
0.77779
0.0284571
-0.0283141
-0.657844
0.657701
0.0269
-0.0232907
-0.529214
0.525605
0.0182145
-0.0119195
-0.350361
0.344066
0.00687361
-0.00285481
-0.162653
0.158635
0.000752552
-0.0266667
0.0259141
-0.0296451
0.0294227
0.000222422
-0.0027773
0.00525121
-0.238375
0.235901
-0.00856197
0.0112349
-0.4134
0.410727
-0.0128654
0.0129743
-0.554337
0.554228
-0.011953
0.0104177
-0.664788
0.666323
-0.00840025
0.00637954
-0.782787
0.784808
-0.00399601
0.0016815
-0.926502
0.928816
0.000999866
-0.00356853
-1.10055
1.10311
0.00650579
-0.00927941
-1.31062
1.31339
0.0123906
-0.0152622
-1.56483
1.5677
0.0178978
-0.0202869
-1.56227
1.56466
0.022052
-0.0235633
-1.30481
1.30633
0.0246656
-0.0257117
-1.09364
1.09468
0.0265776
-0.0274529
-0.920141
0.921016
0.028206
-0.0289596
-0.778537
0.779291
0.0292575
-0.02876
-0.657426
0.656929
0.0268755
-0.0228039
-0.521786
0.517715
0.017568
-0.0113982
-0.337857
0.331688
0.00656738
-0.00274145
-0.154734
0.150908
0.00072892
-0.0251791
0.0244502
-0.029262
0.0291476
0.000114459
-0.00185758
0.00371789
-0.233762
0.231902
-0.00634762
0.008581
-0.408317
0.406083
-0.0100189
0.0101092
-0.554238
0.554148
-0.00907887
0.0075281
-0.667983
0.669534
-0.00543288
0.00331474
-0.786821
0.78894
-0.00081648
-0.00159998
-0.931036
0.933452
0.004385
-0.00703566
-1.1056
1.10825
0.0100421
-0.0128512
-1.3161
1.31891
0.0159593
-0.0187777
-1.57047
1.57328
0.0213119
-0.023551
-1.56687
1.56911
0.0251474
-0.0264432
-1.30791
1.3092
0.0273401
-0.0281657
-1.09577
1.09659
0.0288373
-0.0295132
-0.921745
0.922421
0.030109
-0.0307111
-0.77986
0.780462
0.0306388
-0.0297212
-0.656258
0.655341
0.0273381
-0.0227915
-0.513441
0.508894
0.0173562
-0.0112042
-0.325555
0.319403
0.00646252
-0.00271298
-0.147141
0.143391
0.000727406
-0.0237276
0.0230002
-0.0290954
0.0290893
6.12462e-06
-0.000952242
0.00220964
-0.230369
0.229111
-0.0041405
0.00586802
-0.404153
0.402425
-0.00700879
0.00699708
-0.554245
0.554257
-0.00590804
0.0042989
-0.67125
0.672859
-0.00208268
-0.000170423
-0.791051
0.793304
0.0028279
-0.00538879
-0.935775
0.938336
0.0083252
-0.0111015
-1.11083
1.1136
0.0142236
-0.0171084
-1.32166
1.32454
0.0202529
-0.0230482
-1.576
1.5788
0.0255015
-0.0276018
-1.57115
1.57325
0.0290328
-0.0301189
-1.31059
1.31167
0.0308109
-0.0314136
-1.09747
1.09807
0.0318841
-0.0323461
-0.922942
0.923404
0.0327521
-0.0330753
-0.780789
0.781113
0.0326965
-0.0312743
-0.654242
0.65282
0.0283498
-0.0232801
-0.504132
0.499062
0.0175717
-0.0113125
-0.313231
0.306971
0.00653828
-0.00275984
-0.139648
0.13587
0.000745449
-0.0222694
0.021524
-0.0291488
0.0292575
-0.00010865
-1.18445e-05
0.000656802
-0.228181
0.227536
-0.00185601
0.00301023
-0.401038
0.399884
-0.0037522
0.00355313
-0.554538
0.554737
-0.00234493
0.000617066
-0.674684
0.676411
0.00176187
-0.00419544
-0.795548
0.797982
0.00706377
-0.00981731
-0.940804
0.943557
0.0129588
-0.0159096
-1.11632
1.11927
0.0191991
-0.0222027
-1.32738
1.33038
0.0254247
-0.0282272
-1.5815
1.5843
0.0306208
-0.0325937
-1.57513
1.57711
0.0338655
-0.0347397
-1.31285
1.31372
0.0352198
-0.035587
-1.09871
1.09908
0.0358474
-0.0360879
-0.923704
0.923945
0.0362832
-0.0362577
-0.781137
0.781112
0.0355217
-0.0335091
-0.651196
0.649183
0.0299702
-0.0242939
-0.49375
0.488073
0.01821
-0.011705
-0.300627
0.294122
0.00677878
-0.00287387
-0.132049
0.128144
0.000780539
-0.0207666
0.0199861
-0.0294377
0.0296848
-0.000247125
0.000968281
-0.00100043
-0.227235
0.227267
0.000592517
-8.57442e-05
-0.399112
0.398605
-0.000154952
-0.000326276
-0.555307
0.555788
0.00172424
-0.00363352
-0.678407
0.680316
0.00623735
-0.00890469
-0.800404
0.803071
0.0120432
-0.0150448
-0.946222
0.949224
0.0184526
-0.0216329
-1.12216
1.12534
0.0251468
-0.0283162
-1.33335
1.33652
0.0316584
-0.034495
-1.58701
1.58985
0.0368415
-0.0386964
-1.57884
1.58069
0.0398185
-0.040479
-1.31466
1.31532
0.0407327
-0.0408449
-1.09947
1.09959
0.0408756
-0.040878
-0.924001
0.924004
0.0408827
-0.0403978
-0.780782
0.780297
0.0392203
-0.0365146
-0.646958
0.644252
0.0322601
-0.0258574
-0.482108
0.475705
0.0192686
-0.0123662
-0.287459
0.280557
0.00716932
-0.00304685
-0.124151
0.120029
0.000829943
-0.0191863
0.0183563
-0.0300014
0.0303944
-0.00039301
0.00208578
-0.00275689
-0.227612
0.228283
0.00322824
-0.00349312
-0.398519
0.398784
0.0039091
-0.00477637
-0.556782
0.557649
0.00643337
-0.00859663
-0.682551
0.684714
0.0115013
-0.0144704
-0.805722
0.808691
0.0179516
-0.0212671
-0.952144
0.955459
0.0250125
-0.0284846
-1.12848
1.13196
0.0322856
-0.0356705
-1.33966
1.34304
0.0391753
-0.0420708
-1.59259
1.59549
0.0443767
-0.046105
-1.58226
1.58399
0.0470653
-0.0475176
-1.31603
1.31648
0.0475367
-0.0473764
-1.09971
1.09955
0.0471627
-0.0469134
-0.923782
0.923532
0.0466708
-0.0456719
-0.77954
0.778541
0.0439464
-0.0404051
-0.641323
0.637782
0.0352911
-0.0279972
-0.468948
0.461654
0.0207448
-0.0132802
-0.273418
0.265954
0.00769411
-0.00326956
-0.115775
0.111351
0.000890493
-0.0175012
0.0166107
-0.0308732
0.0314449
-0.000571667
0.00336185
-0.00484388
-0.229388
0.23087
0.00624066
-0.00733546
-0.399467
0.400561
0.00851855
-0.0099063
-0.559187
0.560574
0.0119642
-0.0144667
-0.687257
0.68976
0.0177628
-0.0211123
-0.811639
0.814988
0.0250205
-0.0287263
-0.958704
0.96241
0.0328905
-0.0367232
-1.1354
1.13923
0.0408779
-0.0445278
-1.34641
1.35006
0.0482349
-0.0512089
-1.59829
1.60126
0.0534774
-0.0550711
-1.58539
1.58698
0.0558685
-0.0560909
-1.31691
1.31714
0.0558495
-0.0553977
-1.09938
1.09893
0.0549299
-0.0543999
-0.923018
0.922488
0.053759
-0.0522683
-0.777362
0.775871
0.0498288
-0.045276
-0.633994
0.629441
0.0391173
-0.0307221
-0.453919
0.445524
0.0226201
-0.0144176
-0.258169
0.249966
0.00832795
-0.00352786
-0.106758
0.101958
0.00095742
-0.0156913
0.0147338
-0.0321154
0.0329211
-0.000805718
0.00494023
-0.00733627
-0.232812
0.235208
0.00981343
-0.0118431
-0.402158
0.404187
0.0139238
-0.0159594
-0.56277
0.564806
0.0185545
-0.0214952
-0.692705
0.695646
0.0252984
-0.0291198
-0.818318
0.822139
0.033556
-0.0377419
-0.966061
0.970247
0.0424166
-0.0466835
-1.14306
1.14732
0.0512576
-0.0552149
-1.3537
1.35766
0.059149
-0.0622029
-1.60413
1.60719
0.0644181
-0.0658499
-1.58819
1.58962
0.0664512
-0.0664064
-1.31723
1.31719
0.0659005
-0.0651343
-1.09846
1.09769
0.0643986
-0.063604
-0.921654
0.920859
0.062447
-0.0603532
-0.774252
0.772158
0.0570352
-0.0512218
-0.624581
0.618768
0.0437689
-0.0340071
-0.436578
0.426816
0.0248427
-0.0157233
-0.241357
0.232237
0.00902838
-0.0037996
-0.0969597
0.0917309
0.00102362
-0.0137468
0.0127231
-0.0338272
0.0349391
-0.0011119
0.00692251
-0.0104242
-0.238099
0.241601
0.0141786
-0.0172979
-0.406896
0.410015
0.0204039
-0.0232125
-0.567827
0.570636
0.0265025
-0.0300108
-0.699119
0.702628
0.0344696
-0.0388846
-0.82595
0.830366
0.043971
-0.0487381
-0.974398
0.979165
0.0540202
-0.0587924
-1.15159
1.15637
0.0638391
-0.0681262
-1.3616
1.36588
0.0722809
-0.075384
-1.61011
1.61321
0.0775035
-0.0787295
-1.59061
1.59183
0.0790974
-0.0787504
-1.31689
1.31654
0.0779561
-0.0768424
-1.09686
1.09575
0.0758322
-0.0747374
-0.919717
0.918622
0.0730129
-0.0701392
-0.76999
0.767116
0.0656907
-0.0582693
-0.61257
0.605149
0.0491978
-0.0377515
-0.416373
0.404926
0.0272973
-0.0170972
-0.22263
0.21243
0.00972576
-0.00405104
-0.0862907
0.080616
0.00107893
-0.0116738
0.0105948
-0.0361424
0.0376747
-0.00153226
0.00952581
-0.0144028
-0.245606
0.250483
0.0196756
-0.0240523
-0.414044
0.41842
0.0283401
-0.0320762
-0.574688
0.578424
0.0362411
-0.0405101
-0.706773
0.711042
0.0457931
-0.05095
-0.83478
0.839937
0.0568293
-0.0622863
-0.983921
0.989378
0.0682666
-0.0735947
-1.16115
1.16647
0.079131
-0.083728
-1.37013
1.37473
0.0880442
-0.091113
-1.61614
1.6192
0.0930455
-0.0939741
-1.59252
1.59345
0.0940474
-0.0933991
-1.31581
1.31516
0.0922304
-0.090761
-1.09455
1.09308
0.0894776
-0.087893
-0.917043
0.915458
0.0856502
-0.0817082
-0.764156
0.760214
0.0758034
-0.0663286
-0.597238
0.587763
0.0552339
-0.0417402
-0.392654
0.37916
0.0297759
-0.0183788
-0.201682
0.190285
0.0103168
-0.00423576
-0.0747421
0.068661
0.00111033
-0.00949997
0.00838963
-0.0392705
0.0414115
-0.00214104
0.0131149
-0.0197516
-0.25584
0.262477
0.0268519
-0.0326951
-0.424085
0.429928
0.0383523
-0.0432175
-0.583739
0.588604
0.048473
-0.053711
-0.716066
0.721304
0.06007
-0.0661459
-0.845099
0.851175
0.0729599
-0.0791915
-0.994843
1.00107
0.0859133
-0.0917887
-1.17179
1.17766
0.0977527
-0.10256
-1.37922
1.38403
0.106892
-0.109771
-1.62201
1.62488
0.111364
-0.111858
-1.59373
1.59422
0.111553
-0.110527
-1.31394
1.31291
0.108969
-0.107112
-1.09154
1.08968
0.105535
-0.103402
-0.913254
0.911121
0.100504
-0.0951125
-0.756147
0.750756
0.0872561
-0.0751234
-0.577649
0.565516
0.0615117
-0.0455904
-0.364701
0.34878
0.0319485
-0.0193382
-0.178325
0.165715
0.0106654
-0.00429739
-0.0624303
0.0560622
0.0011032
-0.00727986
0.00617666
-0.0435522
0.0466323
-0.00308002
0.0183281
-0.0272677
-0.269553
0.278493
0.0365994
-0.0442162
-0.4377
0.445317
0.0515264
-0.0577462
-0.595487
0.601707
0.0644295
-0.0710116
-0.727421
0.734003
0.0786352
-0.0857355
-0.857233
0.864333
0.093546
-0.100548
-1.0073
1.0143
0.107933
-0.114221
-1.18345
1.18974
0.120408
-0.125204
-1.38861
1.3934
0.129286
-0.131729
-1.62736
1.6298
0.132761
-0.132626
-1.59393
1.5938
0.1318
-0.130294
-1.3111
1.3096
0.128348
-0.126067
-1.08773
1.08545
0.124058
-0.121413
-0.908206
0.905561
0.117469
-0.110085
-0.745116
0.737732
0.0996196
-0.0840762
-0.552558
0.537015
0.0673936
-0.0487162
-0.331802
0.313124
0.0333588
-0.0196919
-0.152613
0.138946
0.0106196
-0.00417923
-0.0496412
0.0432008
0.00104435
-0.00509587
0.00405152
-0.0495837
0.054252
-0.00466828
0.0264093
-0.0384562
-0.287932
0.299979
0.0506618
-0.0606345
-0.456007
0.465979
0.0699928
-0.0778462
-0.610511
0.618364
0.0862868
-0.0944136
-0.741364
0.74949
0.103421
-0.111532
-0.871389
0.879501
0.120202
-0.127753
-1.0212
1.02875
0.135473
-0.141826
-1.19576
1.20211
0.147823
-0.152225
-1.39777
1.40217
0.155645
-0.157298
-1.63166
1.63331
0.157473
-0.156466
-1.59274
1.59173
0.154958
-0.152858
-1.30707
1.30497
0.150467
-0.147681
-1.08302
1.08023
0.145226
-0.141833
-0.901736
0.898343
0.136356
-0.126073
-0.729827
0.719544
0.11207
-0.0922134
-0.520409
0.500553
0.0719265
-0.0503529
-0.293438
0.271864
0.0334829
-0.0191625
-0.125001
0.11068
0.0100512
-0.00384085
-0.0368534
0.030643
0.000924554
-0.00305188
0.00212732
-0.0584993
0.066471
-0.00797176
0.0405684
-0.0572014
-0.313186
0.329819
0.0734549
-0.0865368
-0.480596
0.493678
0.098025
-0.107485
-0.629334
0.638794
0.117676
-0.127238
-0.758104
0.767665
0.137336
-0.145985
-0.887331
0.89598
0.154875
-0.162342
-1.03592
1.04339
0.169715
-0.175505
-1.20788
1.21367
0.180672
-0.184094
-1.40584
1.40926
0.186295
-0.186693
-1.63413
1.63453
0.185628
-0.183463
-1.58963
1.58747
0.181074
-0.178259
-1.30156
1.29875
0.175333
-0.171968
-1.07719
1.07382
0.168903
-0.164294
-0.893142
0.888533
0.15643
-0.141898
-0.708302
0.693771
0.123068
-0.0980302
-0.479317
0.45428
0.0739356
-0.0497877
-0.249623
0.225475
0.0319625
-0.0176431
-0.0965026
0.0821833
0.00893955
-0.00328241
-0.0247096
0.0190524
0.000740738
-0.00125717
0.000516427
-0.0738703
0.0783894
-0.00451909
0.0312043
-0.0458115
-0.349361
0.363969
0.0604372
-0.0725006
-0.512736
0.5248
0.0835869
-0.0942037
-0.651826
0.662443
0.10638
-0.117559
-0.776533
0.787712
0.130058
-0.141276
-0.903641
0.914859
0.153394
-0.164346
-1.04998
1.06093
0.176066
-0.1864
-1.21846
1.22879
0.197108
-0.20613
-1.41161
1.42064
0.2149
-0.22157
-1.63383
1.6405
0.22619
-0.229492
-1.584
1.5873
0.231457
-0.232939
-1.29427
1.29575
0.233736
-0.233269
-1.06979
1.06932
0.231808
-0.226193
-0.880921
0.875306
0.213601
-0.189703
-0.677645
0.653748
0.159102
-0.120932
-0.427707
0.389536
0.0870816
-0.0555517
-0.201417
0.169888
0.0340335
-0.0179117
-0.0687555
0.0526337
0.00862074
-0.00294605
-0.0138905
0.00821581
0.000585
0.000236794
-0.000821794
-0.0862539
0.0843939
0.00185992
0.00893346
-0.0186417
-0.381559
0.391267
0.0299219
-0.0388034
-0.541867
0.550748
0.0479215
-0.0569304
-0.675804
0.684813
0.0680658
-0.0785342
-0.79833
0.808798
0.0898501
-0.100264
-0.925525
0.935939
0.111506
-0.121336
-1.07166
1.08149
0.132082
-0.141229
-1.23901
1.24816
0.150748
-0.158605
-1.42949
1.43734
0.165964
-0.171535
-1.64669
1.65226
0.175243
-0.177715
-1.58995
1.59242
0.178801
-0.179577
-1.29546
1.29623
0.179897
-0.179057
-1.06716
1.06632
0.176117
-0.167902
-0.864164
0.855949
0.153134
-0.12916
-0.625298
0.601324
0.102265
-0.0724472
-0.349036
0.319218
0.049041
-0.0295663
-0.139726
0.120251
0.0172551
-0.00864988
-0.0378937
0.0292885
0.00393703
-0.00125041
-0.00287206
0.000185436
0.000201104
0.00158806
-0.00178917
-0.0880808
0.0851084
0.00297242
-0.000395814
-0.00539135
-0.403776
0.409563
0.0130252
-0.0197458
-0.563857
0.570578
0.0267364
-0.0345237
-0.696363
0.70415
0.0442521
-0.0533891
-0.818174
0.827311
0.0634942
-0.0726539
-0.945555
0.954715
0.082328
-0.0912175
-1.09121
1.1001
0.100764
-0.109043
-1.25696
1.26524
0.11728
-0.124016
-1.44471
1.45145
0.13052
-0.135211
-1.65747
1.66216
0.138128
-0.139887
-1.59437
1.59613
0.140418
-0.140752
-1.29547
1.29581
0.140397
-0.139083
-1.06258
1.06127
0.135177
-0.125598
-0.843531
0.833952
0.11054
-0.088435
-0.573986
0.551881
0.0662912
-0.0443186
-0.287632
0.26566
0.0289729
-0.0171403
-0.101269
0.0894369
0.00992406
-0.00498737
-0.0209358
0.0159991
0.00228715
-0.000733729
0.00266492
-0.00421834
0.000122897
0.00218683
-0.00230973
-0.0869293
0.0840585
0.00287075
-0.00455027
0.00148623
-0.418928
0.421992
0.00360209
-0.00879409
-0.580599
0.585791
0.0147816
-0.021356
-0.713369
0.719943
0.0297308
-0.0376145
-0.835662
0.843545
0.0463107
-0.0542322
-0.963313
0.971235
0.0630128
-0.0706742
-1.10856
1.11622
0.0791222
-0.0860238
-1.27315
1.28005
0.0932951
-0.0992166
-1.45806
1.46398
0.104719
-0.108411
-1.66665
1.67034
0.110864
-0.112283
-1.59746
1.59888
0.112522
-0.112089
-1.29492
1.29449
0.111315
-0.109517
-1.05657
1.05477
0.104948
-0.095265
-0.820525
0.810842
0.0809642
-0.0621028
-0.527161
0.508299
0.0449194
-0.0294339
-0.24268
0.227194
0.0191871
-0.0115121
-0.0770615
0.0693865
0.00680128
-0.00352156
-0.0106746
0.0073949
0.00168113
-0.000569763
0.00604335
-0.00715471
0.000106187
0.00255963
-0.00266582
-0.0854369
0.0828263
0.00261056
-0.00617452
0.00483247
-0.429274
0.430616
-0.000959272
-0.00299496
-0.594136
0.598091
0.00783967
-0.0137555
-0.727721
0.733637
0.0208006
-0.0277205
-0.850608
0.857528
0.0352671
-0.042169
-0.978676
0.985578
0.0497449
-0.0565591
-1.12374
1.13055
0.0637977
-0.0700719
-1.28681
1.29309
0.0763914
-0.081499
-1.46956
1.47467
0.0861764
-0.0892075
-1.67402
1.67705
0.0911391
-0.0919528
-1.5997
1.60051
0.0919021
-0.0912655
-1.29332
1.29268
0.0900742
-0.0876004
-1.04965
1.04718
0.0829853
-0.0736551
-0.797518
0.788188
0.0610576
-0.0454645
-0.487283
0.47169
0.0324038
-0.0213079
-0.210393
0.199297
0.0140758
-0.00869541
-0.0608832
0.0555028
0.00532437
-0.00286518
-0.00359014
0.00113095
0.00142738
-0.000507997
0.00852577
-0.00944516
0.000108466
0.00285475
-0.00296322
-0.0839211
0.0816182
0.00230291
-0.006498
0.00580477
-0.436463
0.437157
-0.00342026
0.000191955
-0.60466
0.607889
0.00443856
-0.00947659
-0.739885
0.744923
0.0154997
-0.021471
-0.863539
0.86951
0.0281215
-0.0342375
-0.992084
0.9982
0.041081
-0.0470152
-1.13705
1.14298
0.0534363
-0.0589861
-1.29903
1.30458
0.0644781
-0.0688583
-1.47949
1.48387
0.0727577
-0.075536
-1.68005
1.68283
0.0769244
-0.0774978
-1.60093
1.60151
0.0771624
-0.0762233
-1.2914
1.29046
0.074936
-0.0719296
-1.04209
1.03908
0.067235
-0.0586885
-0.77549
0.766944
0.0477463
-0.0350141
-0.454121
0.441389
0.0249866
-0.016723
-0.186792
0.178528
0.0114099
-0.00732314
-0.0491787
0.045092
0.00463522
-0.00258323
0.00184427
-0.00389626
0.00132502
-0.000493277
0.0105548
-0.0113865
0.000111955
0.00310549
-0.00321745
-0.0826174
0.080745
0.00187244
-0.00599408
0.00580736
-0.441718
0.441905
-0.00388714
0.00146078
-0.613751
0.616178
0.00276012
-0.00726419
-0.750349
0.754853
0.0128646
-0.0179512
-0.874997
0.880083
0.0237139
-0.0290522
-1.00423
1.00957
0.0353733
-0.0406276
-1.14889
1.15415
0.0462001
-0.0512123
-1.30988
1.3149
0.0564323
-0.0602072
-1.4882
1.49198
0.0636173
-0.0657662
-1.6852
1.68735
0.0670228
-0.0669909
-1.60187
1.60183
0.0665941
-0.0655954
-1.28901
1.28801
0.0639431
-0.0608988
-1.03418
1.03113
0.0562121
-0.0482748
-0.755007
0.747069
0.0390409
-0.0285584
-0.426622
0.416139
0.0206723
-0.0143757
-0.168889
0.162592
0.01018
-0.00681781
-0.0400617
0.0366995
0.00448545
-0.00259199
0.00644488
-0.00833834
0.00137004
-0.000526287
0.012378
-0.0132217
0.000126702
0.00332998
-0.00345669
-0.0817167
0.0801855
0.00153123
-0.00521731
0.00533616
-0.44567
0.445551
-0.00367451
0.0014685
-0.621507
0.623713
0.00239976
-0.00637843
-0.75959
0.763568
0.0110998
-0.0158659
-0.885052
0.889818
0.0210538
-0.0263482
-1.01464
1.01994
0.0316649
-0.036464
-1.15943
1.16423
0.0418357
-0.0462473
-1.31969
1.3241
0.0505131
-0.0542254
-1.49556
1.49927
0.0572044
-0.0590244
-1.6895
1.69132
0.0598026
-0.0597223
-1.60196
1.60188
0.0591273
-0.0579174
-1.28641
1.2852
0.0561798
-0.0529815
-1.02645
1.02325
0.0484261
-0.0413621
-0.736216
0.729152
0.0331775
-0.0246084
-0.403735
0.395166
0.0183693
-0.0133106
-0.15492
0.149861
0.00984779
-0.00693385
-0.0324204
0.0295065
0.00474242
-0.00285394
0.0106995
-0.012588
0.00156481
-0.000621395
0.0142091
-0.0151525
0.000158065
0.00356498
-0.00372305
-0.0812852
0.0799463
0.00133882
-0.00415726
0.00417049
-0.44892
0.448907
-0.00283869
0.000757953
-0.628411
0.630492
0.00270849
-0.00645365
-0.767988
0.771733
0.0108487
-0.0150523
-0.894314
0.898517
0.020185
-0.0244645
-1.02455
1.02883
0.0295084
-0.0338701
-1.16911
1.17347
0.0387863
-0.0430321
-1.32837
1.33262
0.0471339
-0.0501136
-1.50259
1.50557
0.0527909
-0.0543228
-1.69293
1.69447
0.0550493
-0.0545501
-1.60155
1.60106
0.05379
-0.0523749
-1.28385
1.28243
0.0505253
-0.0471643
-1.01863
1.01527
0.0428375
-0.0362885
-0.719192
0.712643
0.029248
-0.0221333
-0.384758
0.377643
0.0170531
-0.0130048
-0.143558
0.13951
0.010048
-0.00739635
-0.0256656
0.023014
0.00526274
-0.00330218
0.0149054
-0.016866
0.00187424
-0.000782674
0.0162076
-0.0172992
0.000206886
0.0038434
-0.00405028
-0.081077
0.0800667
0.00101025
-0.00316829
0.00280504
-0.451973
0.452337
-0.00175354
-0.000292886
-0.63433
0.636377
0.0033238
-0.00683827
-0.775609
0.779123
0.0109238
-0.0151279
-0.902528
0.906732
0.0194531
-0.0237279
-1.03326
1.03753
0.0285064
-0.0324045
-1.17818
1.18208
0.0371025
-0.0409573
-1.33653
1.34038
0.0446563
-0.0476855
-1.50882
1.51185
0.050204
-0.0512995
-1.69585
1.69695
0.0514859
-0.0509318
-1.60056
1.60001
0.0500647
-0.0483483
-1.28064
1.27892
0.0462043
-0.0429381
-1.01087
1.0076
0.0383345
-0.0324698
-0.703479
0.697614
0.0263631
-0.0203936
-0.368931
0.362962
0.0162928
-0.0128876
-0.134164
0.130758
0.0103133
-0.00785111
-0.0195143
0.0170522
0.00576422
-0.00374493
0.0191958
-0.0212151
0.00221254
-0.000964265
0.0184825
-0.0197308
0.000270227
0.0042029
-0.00447313
-0.0812433
0.080407
0.000836332
-0.00231124
0.00206932
-0.455015
0.455257
-0.000573711
-0.00122891
-0.640119
0.641922
0.00435375
-0.00764891
-0.782504
0.785799
0.0114602
-0.0151319
-0.910545
0.914217
0.0194429
-0.0232358
-1.04173
1.04553
0.0277568
-0.0318924
-1.18635
1.19049
0.0359235
-0.0397991
-1.34415
1.34803
0.043513
-0.0461531
-1.51459
1.51723
0.0484033
-0.0495678
-1.69804
1.6992
0.0494096
-0.0486411
-1.59906
1.59829
0.0472449
-0.0452694
-1.27697
1.27499
0.0429753
-0.0393788
-1.00311
0.999516
0.0349323
-0.0293641
-0.689165
0.683597
0.0239811
-0.0188801
-0.355414
0.350313
0.0154108
-0.0125322
-0.126219
0.12334
0.0102435
-0.00798646
-0.0138399
0.0115829
0.00601157
-0.00402694
0.0235053
-0.0254899
0.00245071
-0.0011093
0.0210112
-0.0223526
0.000325165
0.00466697
-0.00499214
-0.0816913
0.0810287
0.000662637
-0.00130597
0.000941112
-0.458039
0.458404
0.000333529
-0.00238005
-0.64533
0.647377
0.00537151
-0.00843487
-0.788969
0.792032
0.0122365
-0.0156576
-0.917821
0.921242
0.0196812
-0.0234658
-1.04975
1.05353
0.0277161
-0.0316211
-1.19437
1.19828
0.0356263
-0.0392458
-1.35169
1.3553
0.0427616
-0.0457383
-1.51998
1.52296
0.0478268
-0.0485727
-1.70003
1.70077
0.0482974
-0.0469412
-1.59708
1.59572
0.045323
-0.0431037
-1.27264
1.27042
0.0402212
-0.0363243
-0.994949
0.991052
0.0318013
-0.0263458
-0.675833
0.670377
0.0215788
-0.0171306
-0.343906
0.339458
0.0141792
-0.0116496
-0.119365
0.116835
0.00965493
-0.0076419
-0.00866449
0.00665146
0.00586998
-0.00403211
0.0276597
-0.0294976
0.00251859
-0.00118324
0.0236465
-0.0249818
0.000370162
0.0052153
-0.00558546
-0.0823696
0.081829
0.000540618
-0.000476138
3.75335e-05
-0.461103
0.461542
0.00126108