/*--------------------------------*- C++ -*----------------------------------*\
  =========                 |
  \\      /  F ield         | OpenFOAM: The Open Source CFD Toolbox
   \\    /   O peration     | Website:  https://openfoam.org
    \\  /    A nd           | Version:  6
     \\/     M anipulation  |
\*---------------------------------------------------------------------------*/
FoamFile
{
    version     2.0;
    format      ascii;
    class       surfaceScalarField;
    location    "41";
    object      phi;
}
// * * * * * * * * * * * * * * * * * * * * * * * * * * * * * * * * * * * * * //

dimensions      [0 3 -1 0 0 0 0];

internalField   nonuniform List<scalar> 
1300
(
3.75095
5.62643
-3.13903
3.75095
-7.58943
5.62643
-4.28928
4.28928
-0.836031
0.836031
1.87646
1.8745
-2.65655
2.65655
-2.06241
2.06241
-2.54988
2.54988
-5.24797
5.24797
-5.06983
5.06983
4.71732
-4.71732
-6.21728
6.21728
-1.16304
1.16304
-3.69145
3.69145
3.17302
-3.17302
-2.19198
2.19198
-0.224737
0.224737
-0.554097
4.30505
3.19686
3.19686
-1.99527
1.99527
-4.87356
4.87356
6.22262
-6.22262
5.05887
-5.05887
-1.91984
-2.2811
1.77844
-11.5357
-5.81099
-5.81099
-8.44101
8.44101
-2.81458
2.81185
2.94529
-2.94529
-1.73237
1.73237
-4.27432
-0.0149598
-4.27432
4.27224
0.0170343
4.27224
-0.921666
0.0856347
-0.921666
3.82384
-3.82384
0.71304
0.122991
0.71304
3.06687
-3.06687
-1.87687
3.75333
1.87408
-1.87204
6.17709
-1.87891
3.75341
-6.04454
6.04454
-2.85846
0.201914
-2.85846
2.46377
0.192773
2.46377
-6.84029
6.84029
-2.14975
0.0873428
-2.14975
2.02749
0.0349217
2.02749
2.87918
-2.87918
-2.64547
0.0955876
-2.64547
2.42052
0.129358
2.42052
0.353449
5.27298
-5.97988
8.79173
-5.27298
0.0250157
5.21021
0.0377517
5.21021
-5.10522
0.0353915
-5.10522
5.012
0.0578318
5.012
4.81188
-0.094564
4.81188
-4.83146
0.114138
-4.83146
-3.48314
-4.12176
-6.39245
0.175168
-6.39245
-1.16727
0.00422966
-1.16727
1.11692
0.0461171
1.11692
-3.66661
3.66661
-4.01351
0.322062
-4.01351
3.12793
0.0450975
3.12793
1.86811
1.88284
5.61907
-5.61907
2.44604
-2.08683
-0.105148
-2.08683
-2.22569
-2.83318
2.22569
-0.033709
-0.455229
0.230492
-0.455229
3.15698
0.0398766
3.15698
2.26294
0.157582
-2.26294
0.267671
3.26828
-3.26828
1.32511
0.670164
1.32511
-5.55916
5.55916
4.96086
0.0511371
-4.96086
0.0873015
6.15747
0.0651468
6.15747
-6.20774
-0.0148717
-6.20774
2.66362
-4.94473
-2.52136
6.01096
0.206327
-6.01096
0.19997
2.91573
0.0295616
2.91573
-2.92059
2.92059
-2.983
0.0377091
-2.983
-2.1597
0.427326
-2.1597
1.4124
0.319969
1.4124
-4.14367
-0.130647
-4.14367
-4.15227
0.13876
4.15227
0.119974
1.06922
-1.06922
-0.998813
0.0771469
-0.998813
-3.95072
-0.192949
3.95072
-0.126884
-3.77159
-0.052253
-3.77159
-3.02109
0.0380835
3.02109
0.045781
3.11187
0.0451142
-3.11187
0.044997
-1.87097
3.75381
-1.87999
3.75407
-5.66118
-0.383359
-5.66118
6.34184
-0.297306
6.34184
3.2447
0.446747
-3.2447
0.38624
2.32142
0.14235
2.32142
-6.82267
-0.0176153
-6.82267
6.83848
0.00180489
6.83848
2.22917
0.092253
-2.22917
0.0794208
2.01496
0.0125235
2.01496
2.9028
-0.0236138
2.9028
-2.87558
-0.00360301
-2.87558
2.79709
-2.79709
2.72614
0.0709485
-2.72614
0.0806714
-11.124
11.1091
-0.0362166
-11.0878
5.174
5.174
4.26704
0.544838
4.26704
-5.02057
0.189112
-5.02057
2.87951
-5.40087
3.14302
-6.62616
4.71564
-16.2513
4.29866
-8.42042
6.66885
-6.66885
6.54199
0.126863
-6.54199
0.149534
-1.21225
0.0449882
-1.21225
-3.07114
-0.595469
-3.07114
4.31667
-0.65006
4.31667
-3.0283
3.0283
-3.07691
0.0486104
3.07691
0.0510144
2.02468
-0.00971458
-2.02468
-0.0621543
0.574634
0.138407
-0.574634
0.119405
3.47696
-0.208674
3.47696
-3.07379
-0.194495
-3.07379
-1.26862
0.0563694
1.26862
0.056484
-5.80798
0.248815
-5.80798
-11.1817
0.0939016
-11.1439
-6.11384
-6.11384
2.32717
11.1189
-2.8928
0.0172182
2.8928
0.0229342
2.97595
0.0523517
-2.97595
0.0553571
-2.86103
0.0639406
2.86103
0.0595625
-2.53181
0.372108
-2.53181
-1.01422
1.01422
-1.17225
0.158027
1.17225
0.240157
1.35771
-0.288487
1.35771
1.06506
0.0518554
-1.06506
0.0662519
-3.74103
-0.0305599
-3.74103
6.5796
-0.237755
6.5796
-2.95071
-0.12308
2.95071
-0.0479107
-0.034888
11.144
-5.13911
0.0338888
5.13911
-11.2091
11.243
-3.24203
0.71022
3.24203
1.02502
5.28593
0.27323
-5.28593
0.265364
6.76779
0.0706979
-6.76779
0.0989371
-2.56701
-0.504134
-2.56701
-5.05917
-0.602005
5.05917
-0.742503
-11.4822
-0.203584
11.6857
-11.4243
6.01156
0.14591
-6.01156
11.3889
-0.96617
-0.103049
0.96617
0.0480505
1.69451
-0.336806
1.69451
3.67637
-0.19941
-3.67637
-0.0646594
-6.72197
-0.100707
6.72197
-0.142369
-2.12365
-0.44336
2.12365
-0.429133
-4.26721
4.30708
1.90988
-2.49018
-2.45455
-5.32336
1.85488
1.89893
4.30092
-10.1945
-6.05684
-9.99449
7.21317
-6.9478
-9.3643
9.26974
7.73747
-7.78973
-5.77822
5.82923
6.48393
-6.43815
1.87914
1.87418
7.98267
-7.78075
-15.7103
15.3269
7.55521
-7.46787
15.8809
-15.8986
-17.935
18.0057
-5.70528
5.80087
-6.73119
6.72759
-6.96263
6.91472
-2.93379
-3.69237
13.1952
-13.0201
8.38733
-8.49248
-8.62777
8.94983
3.3845
0.922586
3.42961
-1.88199
3.76113
-1.87142
3.7813
2.69702
-5.63081
2.70385
-5.1584
4.19023
4.19709
-4.15652
-1.16684
-5.92528
5.95484
-5.81376
5.87332
9.01551
-9.03047
-1.88502
3.7592
-1.86905
3.76798
-3.42353
-2.35468
3.37844
0.922486
8.09604
5.09918
-8.30237
-1.69212
-7.93466
7.73525
-8.18245
7.98795
-0.438574
5.837
-5.39843
4.43498
-1.65206
7.48906
5.56111
5.75022
5.86009
-5.58686
1.08771
-6.48614
-6.39884
-2.50525
2.5824
2.48576
-2.36277
6.00642
1.73105
5.87954
-5.70407
-2.08566
-5.73463
3.82048
2.00876
3.86909
4.08094
2.40299
4.11903
3.03008
-3.03612
0.00603896
-3.05886
6.08894
0.723083
-5.41355
-4.49106
5.00856
2.97411
5.20134
-5.57275
-2.20801
-5.18651
-9.58233
-6.12794
-10.1843
10.1197
5.20721
9.8224
-12.0034
11.861
4.83982
2.71539
4.87474
-4.95311
-2.51476
-4.87369
11.6778
-2.62727
-9.05057
-10.3675
-7.56743
10.3657
5.51521
11.0153
6.99038
11.1142
4.44556
7.23227
-9.96077
2.39334
-3.86476
-1.84052
-3.78409
3.66523
2.13563
3.79459
-4.2152
-2.51599
-4.19798
-4.29101
-2.67162
4.31463
2.41296
-4.4051
-3.77735
4.52818
2.38654
4.10077
-10.1576
4.31965
-8.01202
-9.2517
-3.76835
-9.10217
3.50682
2.59549
-6.10231
-2.12399
8.44922
-4.25213
7.28239
-5.13192
-3.36055
-5.19408
-6.90893
-1.71884
-6.77017
-8.95145
8.44732
-9.22789
8.57783
12.6423
-5.67742
-6.96487
-3.96677
-2.47138
3.92177
-0.49216
-3.71046
3.7165
0.0506705
3.83197
4.75456
4.2624
-3.88381
-1.92995
-3.82845
3.82608
2.04724
3.89002
6.77097
2.24453
6.78801
-6.4633
-2.56717
-6.59394
9.13861
-8.71128
2.87465
-2.81828
5.32745
2.6605
-5.11877
-2.81588
6.22404
-3.16791
-3.05613
-12.3588
10.8554
1.50334
-4.86969
-0.43471
-0.209974
-5.5877
-3.77661
5.47356
0.276661
11.1321
7.35546
-5.51478
5.76359
6.17097
6.22211
-0.176729
5.91978
-5.20956
5.34949
-2.55369
-2.79579
5.33515
-5.5281
-1.25879
-5.42636
4.16757
0.351436
1.7279
-1.49741
-1.9452
-0.560053
-1.87894
1.46557
1.02019
1.60398
0.91226
1.67014
-2.96749
0.606998
2.36049
-2.05523
-1.75577
-3.65459
-1.11326
4.76785
5.6148
2.12045
-5.55014
-0.184487
2.65841
-2.61229
-0.739369
-2.91522
2.1646
-2.90397
-3.56003
-1.85795
5.41797
-3.36954
-0.458915
3.31719
0.551902
-3.82707
-2.09821
3.78936
0.32967
-3.12712
6.19014
-3.06302
-5.05707
2.52898
3.55996
4.53774
-4.79092
2.44855
2.34237
-1.23096
4.28376
0.917575
4.42611
-6.99888
4.79088
5.71395
3.23588
-6.1607
0.974187
-6.02469
8.38892
-7.25282
-1.1361
3.90021
4.48871
7.08256
5.55973
-5.71542
12.798
-1.05027
-6.20255
7.07496
-3.83908
4.78078
-8.61986
-10.3405
4.13795
-9.23217
11.0436
-1.81145
-3.62313
-8.38029
12.8553
-1.20435
-11.6509
8.61805
-4.21823
-4.27844
8.49667
-6.8455
6.79319
-1.95685
-4.83634
-10.1701
-5.72846
10.2708
1.59026
-9.87545
12.2688
-2.64318
4.1637
0.71104
4.17623
3.2759
-5.42105
2.14515
3.5696
-5.52645
2.05497
-7.47603
-6.79965
12.1671
-5.36744
-10.568
-9.59942
-0.968576
2.5449
9.72389
-9.53528
7.46051
2.07476
3.30332
0.586695
-3.37427
-0.409818
0.247851
4.51854
-4.76639
4.04244
4.20002
3.2636
1.25494
3.84619
2.10865
-3.86913
-0.328858
-4.15986
1.48825
-1.7469
-3.68401
5.17226
-4.06319
0.379182
-2.74135
-3.49866
6.24001
-4.58187
3.03819
3.15195
5.08543
-4.91264
1.41398
-2.39462
-2.51802
2.64921
-4.39612
1.98396
3.1883
4.3705
0.593153
5.95144
6.21565
-8.54693
0.534909
11.3148
-9.62271
2.49672
8.61749
-9.95724
0.357814
-8.74436
0.968577
-5.22071
-5.13374
5.13384
-6.85268
-3.48602
6.21686
0.571146
-6.33683
-0.433336
-6.07331
-2.87815
-6.51667
-3.06011
-6.16778
-8.77553
-1.68407
-7.09146
6.76325
-6.70073
-3.4836
7.44324
1.13459
-7.47982
7.37678
-7.54303
7.20623
0.0943177
3.62218
4.35672
1.88534
-2.39122
4.27656
-5.06303
7.30756
-8.63684
3.57381
4.10281
-6.66998
-4.53403
5.07169
4.06692
5.39165
8.98133
-10.4865
1.50513
-10.7552
12.0857
-1.33048
-16.5585
5.80333
-7.57718
2.56421
0.310442
2.6092
0.613997
2.47174
-3.08574
-2.20429
-2.1478
-2.38231
-3.49122
5.87353
1.1303
-3.41124
2.28094
-3.56201
4.69231
0.0127719
-3.42401
5.21156
-2.73981
5.522
-3.54924
1.97276
3.48423
5.80632
-2.32209
4.42207
-1.76157
1.88504
-4.20713
-1.60618
-2.96102
5.09665
-3.27899
3.65817
-0.330263
3.98844
-4.07767
0.909755
-0.814071
3.38595
3.65362
4.31316
-3.05823
2.95009
-4.71166
-1.25704
-4.11851
-0.930207
-0.225389
-3.83669
4.06208
6.06701
-6.2924
-5.31224
9.57165
-4.25941
7.73163
-5.46358
-2.26805
-4.31241
-4.39887
3.9403
1.97947
9.7111
0.177687
-5.64126
-5.03187
-4.00685
3.20631
2.14318
-1.90038
3.40373
2.11036
-0.382455
0.498883
1.1051
1.86141
-1.36253
0.272911
1.5885
-1.2245
1.89811
0.760296
-1.94997
0.0710252
-1.27249
3.4371
1.088
-2.10819
0.745655
0.978045
-3.53174
4.87557
-2.61069
-2.26488
5.85361
1.15709
-3.76778
4.26927
-3.91784
2.4033
-3.51656
-1.36448
-5.28232
-3.55127
-2.5516
4.83254
-3.32194
5.44239
1.27251
-5.2579
6.53041
-3.59692
1.73897
-3.06929
3.82959
-1.09539
-1.9739
2.95218
2.46579
-3.07251
0.157285
-0.120323
2.38045
-2.50078
-0.523519
-2.57875
-4.57481
4.90448
-2.10474
4.55329
2.17183
-1.91603
6.46931
1.80931
-3.72534
-3.24775
-3.70667
-1.38297
3.15477
-0.580264
-4.29343
-5.41661
4.20118
0.224934
-6.8217
7.74557
-0.923869
-3.8476
-0.943279
4.84349
-5.99272
0.466272
-3.93774
3.80783
4.7254
4.95034
-11.4183
-0.232637
-6.2111
1.11179
-7.32289
5.6005
-3.5729
7.71085
-10.3597
6.87607
-9.22508
6.57475
-0.748135
6.24134
-4.09619
2.80922
-8.53769
-6.94743
5.45935
-2.74396
6.17039
-3.10953
9.27992
-5.75271
5.21439
4.06553
-1.0311
-4.16297
-5.21793
4.18682
-0.0035361
4.17269
4.98283
-2.87419
4.65398
2.25813
-4.65275
-2.13799
-6.49032
1.83757
-3.33837
-1.91906
3.75663
3.16637
3.75307
1.23861
-3.34325
7.24722
-8.2158
-1.87978
-3.25396
5.18721
-1.00039
3.39405
-6.64801
-1.82666
4.81631
-0.760191
-4.05612
0.861104
-4.34712
1.67051
-6.01763
5.18217
-5.61551
2.2458
-9.82297
-5.23403
-5.18598
-2.27678
-5.26625
-7.62537
5.34859
-1.82204
5.55474
-8.59984
7.83965
-3.48581
8.8344
-5.46251
-1.05415
5.89165
1.31458
10.149
0.102716
-4.63675
-1.92077
3.84154
-1.92077
1.28554
-3.73398
0.107564
2.46836
3.38526
-6.63592
-0.0340528
-4.6708
-3.9173
7.98422
5.65434
11.7214
1.23489
9.18449
-1.20026
10.4194
4.19139
4.43155
-3.0374
4.54254
1.02468
4.59849
-0.847809
2.82057
1.76139
1.76562
0.846672
2.29716
1.35646
3.20692
0.121173
-2.02663
4.65444
-8.6613
-0.986821
-8.11646
1.15328
5.4306
-4.27731
3.01693
-0.87375
1.09615
0.0024476
-1.56669
1.56424
-2.79335
-1.94915
-0.360643
-1.6203
2.36596
1.81679
-2.00532
-0.78803
0.302118
-3.85338
3.21444
-3.05716
-0.591366
5.93905
-2.80123
0.300457
-1.06227
-2.27829
-2.83835
2.76732
6.17481
0.294502
3.11179
5.19898
3.10077
0.226585
3.90441
-5.71586
-3.57162
-5.9485
-0.347999
4.49549
1.72898
7.99491
5.79451
4.79412
-1.85388
-10.0697
6.53413
-1.99159
5.20365
-1.14753
-4.8701
5.05255
2.25501
-5.6237
0.00819356
-4.86191
-6.8535
-0.493046
8.3327
-9.65593
8.60178
5.72363
1.36783
-4.44293
-0.74305
4.2849
0.146649
10.566
-0.905081
-7.17237
8.07745
-4.52551
3.53869
0.737497
2.66623
2.30174
1.42799
-5.74438
-10.0217
-1.92481
-1.60693
-4.18969
0.578168
-2.39496
6.10623
-2.56753
3.83817
5.50992
6.60608
-2.07309
-4.21931
6.3325
-2.49433
4.11175
)
;

boundaryField
{
    wall-4
    {
        type            calculated;
        value           uniform 0;
    }
    velocity-inlet-5
    {
        type            calculated;
        value           uniform -3.75095;
    }
    velocity-inlet-6
    {
        type            calculated;
        value           uniform -5.62643;
    }
    pressure-outlet-7
    {
        type            calculated;
        value           nonuniform List<scalar> 8(3.13903 7.58943 4.20094 9.75723 7.6049 5.18499 6.02253 9.0143);
    }
    wall-8
    {
        type            calculated;
        value           uniform 0;
    }
    frontAndBackPlanes
    {
        type            empty;
        value           nonuniform 0();
    }
}


// ************************************************************************* //
