/*--------------------------------*- C++ -*----------------------------------*\
  =========                 |
  \\      /  F ield         | OpenFOAM: The Open Source CFD Toolbox
   \\    /   O peration     | Website:  https://openfoam.org
    \\  /    A nd           | Version:  6
     \\/     M anipulation  |
\*---------------------------------------------------------------------------*/
FoamFile
{
    version     2.0;
    format      ascii;
    class       volVectorField;
    location    "41";
    object      U;
}
// * * * * * * * * * * * * * * * * * * * * * * * * * * * * * * * * * * * * * //

dimensions      [0 1 -1 0 0 0 0];

internalField   nonuniform List<vector> 
918
(
(0.985047 -0.000709942 0)
(0.00534097 2.96624 0)
(-0.00367828 0.826963 0)
(0.979574 0.00195714 0)
(-0.0170159 2.01929 2.61185e-20)
(-0.00708962 2.94856 -2.67685e-18)
(0.811491 1.13283 4.20093e-19)
(0.289482 0.107759 -1.55685e-20)
(0.99992 -0.000241964 0)
(0.0827049 0.740248 0)
(0.00841133 0.522906 0)
(0.73535 -0.0163977 0)
(0.0102121 2.93156 0)
(0.00344195 2.7945 0)
(-0.000648129 3.1909 8.16534e-19)
(-0.0127047 1.87843 -2.86535e-21)
(0.346525 0.0251629 1.02158e-18)
(0.237003 1.14354 3.34382e-19)
(0.964476 0.00669255 0)
(-0.0154458 0.553834 0)
(0.0802255 0.173256 -7.39389e-19)
(1.00184 -0.00455718 0)
(0.999853 -0.00893347 0)
(0.975157 -0.0060568 0)
(0.596744 -0.0369618 0)
(0.0226254 2.64415 0)
(-0.012385 2.912 9.867e-19)
(-0.0035634 0.898699 0)
(0.00348046 1.12144 0)
(-0.00552968 0.874995 0)
(-0.0256709 2.60731 0)
(-0.00593052 2.07542 -2.08425e-20)
(-0.0120608 1.84322 0)
(-0.0221411 2.98761 -9.67903e-23)
(-0.0164986 3.00549 2.08e-18)
(0.00230167 3.00059 0)
(0.871218 -0.00946495 0)
(0.375997 0.91924 1.71012e-19)
(0.812199 1.14356 -5.06123e-19)
(0.946051 0.996977 5.26421e-19)
(0.67829 1.22788 -9.64467e-20)
(0.689261 1.20193 5.56919e-19)
(0.317949 0.200938 1.51884e-20)
(0.298373 0.0913928 0)
(1.13127 0.507149 0)
(0.284036 0.198295 6.94023e-20)
(0.261047 0.121037 -7.20192e-20)
(0.920398 -0.00700515 0)
(1.00026 7.71331e-05 0)
(0.999909 0.0003154 0)
(1.00369 -0.0072971 0)
(1.0009 -0.000954897 0)
(1.00011 -1.61421e-05 0)
(0.0961409 1.83223 -7.86065e-19)
(0.0290327 0.915099 0)
(0.130749 0.809041 0)
(0.0177655 0.866546 0)
(0.0428406 0.683495 0)
(0.0135259 2.00853 0)
(0.0165199 0.755019 0)
(0.00934764 0.55769 0)
(0.00395718 0.742351 0)
(-0.000360545 0.508861 0)
(0.840394 -0.0153204 0)
(0.842435 0.032774 0)
(0.767334 -0.00627633 0)
(0.814815 0.0433444 0)
(0.699878 -0.0178858 0)
(0.0139428 3.00021 9.94776e-19)
(0.0111652 3.00597 0)
(0.00625037 3.00387 0)
(0.0119116 2.99712 1.13157e-23)
(0.00826599 2.95874 -1.47848e-18)
(0.0122389 2.98293 0)
(0.00902559 2.90469 0)
(0.0208781 2.93182 2.32659e-24)
(0.00417655 2.82396 0)
(0.0251932 2.91884 0)
(-0.000822343 2.74413 0)
(0.310061 3.59103 0)
(-0.122679 3.67438 0)
(0.152647 3.28198 -7.59957e-19)
(0.00610464 3.01476 0)
(-0.0212841 2.03362 0)
(-0.0080597 2.15521 2.82595e-21)
(0.00143054 1.90979 -5.50857e-21)
(0.429103 0.135495 -3.53189e-19)
(0.348709 -0.00193018 -3.41019e-19)
(0.405452 0.156772 -1.06389e-18)
(0.333596 0.0457195 -7.01264e-19)
(0.257118 0.995848 0)
(0.336369 1.27321 -3.50671e-19)
(0.413406 1.17767 5.78368e-19)
(0.987919 0.00808501 0)
(0.943421 0.005802 0)
(1.00029 0.000675207 0)
(1.00254 0.0090738 0)
(1.00314 0.0089447 -2.68259e-18)
(0.992125 0.00948907 2.02715e-18)
(-0.0368529 0.77534 0)
(-0.0197331 0.529397 0)
(-0.0170656 0.938968 0)
(-0.00546687 0.797717 0)
(-0.0191725 0.567854 0)
(0.103782 0.182827 2.28852e-19)
(0.154425 0.155083 0)
(0.993611 -0.00769904 0)
(0.953997 -0.00646224 0)
(0.761231 0.0499489 0)
(0.694144 0.0554239 0)
(0.660799 -0.022966 0)
(0.97041 -0.00505529 0)
(0.62547 0.0607716 0)
(0.452708 -0.0309209 1.49954e-18)
(-0.041113 2.86071 7.92641e-19)
(0.033722 2.91381 0)
(0.0423925 2.8921 0)
(0.00363376 2.70137 0)
(-0.00866688 2.9867 9.45768e-19)
(-0.0142103 2.89486 0)
(-0.010904 2.99185 -2.90872e-18)
(-0.0116919 2.92975 9.8918e-19)
(0.020667 1.33405 0)
(0.0409432 1.38273 0)
(-0.00742371 2.11967 3.44452e-22)
(-0.00794407 2.06506 0)
(-0.0207675 1.85467 0)
(0.938288 -0.00550761 0)
(0.856158 -0.0107708 0)
(0.863612 0.00584503 0)
(0.949248 -0.00637981 0)
(0.883199 -0.00792746 0)
(0.500665 1.12042 -2.16794e-19)
(0.548382 1.19157 0)
(0.33678 0.852007 3.28997e-20)
(0.280584 0.716785 0)
(0.906699 1.03432 -1.46796e-19)
(1.01824 0.834805 2.86935e-19)
(0.395826 1.33401 0)
(0.541231 1.28833 0)
(0.592431 1.22188 0)
(0.0952964 0.171796 -2.96212e-19)
(0.336172 0.198769 0)
(0.300162 0.0854447 1.99086e-19)
(0.981342 0.890833 0)
(1.04714 0.732736 0)
(1.07549 0.666052 -2.1689e-19)
(1.11246 0.575308 0)
(1.1672 0.376593 4.48276e-20)
(0.957237 -0.00724606 0)
(0.962588 -0.00819434 0)
(0.900622 -0.00731531 0)
(0.98389 -0.00815175 0)
(0.97435 -0.00808706 0)
(0.93645 -0.00653909 0)
(1.0002 0.0025029 0)
(1.00077 0.00124724 0)
(0.999999 0.000773231 0)
(0.0419699 2.07919 4.36399e-19)
(0.146526 1.77571 0)
(0.0150564 2.19828 6.6858e-19)
(0.0556174 1.88293 -5.6401e-19)
(0.174134 1.12369 -2.73816e-19)
(0.0536618 0.988664 0)
(0.12349 0.983537 0)
(0.00634905 0.822192 0)
(0.0302699 0.624076 0)
(-0.00752511 2.24779 -9.33503e-22)
(0.0243338 2.01852 0)
(-0.00864072 2.24997 -3.97326e-20)
(0.00924326 2.01771 6.75972e-20)
(0.00494213 0.79332 0)
(0.00855525 0.776227 0)
(0.0100622 0.590251 0)
(-0.0159558 0.744883 0)
(0.00139268 0.498323 0)
(0.937003 0.0133954 0)
(0.852065 -0.0118076 0)
(0.926773 0.00447721 0)
(0.844029 -0.0125324 0)
(0.812356 -0.000198348 0)
(0.90018 0.021556 0)
(0.874846 0.0272462 0)
(0.788653 -0.00313733 0)
(0.0104066 3.0676 -9.31065e-21)
(0.0147974 3.05925 0)
(0.0124425 2.9703 0)
(0.00761805 2.87664 0)
(0.901046 3.98948 0)
(1.19662 3.38324 9.44455e-19)
(0.0831405 3.09599 0)
(-0.0156534 2.92096 0)
(0.0218585 1.42469 0)
(-0.021857 1.75092 0)
(0.0130933 1.60198 0)
(-0.0336165 2.56373 -3.86092e-21)
(-0.025205 2.26022 0)
(-0.027696 2.40516 0)
(0.0118276 1.94544 6.84594e-23)
(-0.00821123 2.22534 1.08503e-21)
(-0.0124907 2.18391 5.53969e-21)
(0.0121801 1.92832 0)
(0.449015 0.112741 5.35149e-19)
(0.362805 -0.0129582 -5.25405e-19)
(0.230132 1.58174 0)
(0.28524 0.740683 -3.27033e-19)
(0.178911 1.67645 -1.08686e-18)
(0.242323 1.20293 1.08768e-18)
(0.90189 0.00617739 0)
(0.967229 0.0104803 0)
(0.975085 0.00972781 0)
(0.923164 0.00597219 0)
(-0.013053 0.736981 0)
(-0.0262775 0.746441 0)
(-0.0175672 0.510634 0)
(0.242823 0.197933 6.37892e-19)
(0.2034 0.182104 -7.58529e-19)
(0.209543 0.134899 0)
(1.09354 0.0861549 2.58291e-20)
(1.07781 0.0395404 0)
(1.01051 0.0420908 0)
(0.906596 -0.00328741 0)
(0.477697 0.0899197 0)
(0.536113 0.0659746 -2.40387e-18)
(0.392922 -0.0174174 9.0547e-19)
(0.0110832 2.9772 8.3267e-19)
(-0.0327017 2.86193 4.63182e-20)
(0.00848403 3.05294 -1.9625e-20)
(0.0157811 3.04347 7.34942e-19)
(-0.0118187 2.99995 3.2512e-20)
(-0.0123166 2.95232 -1.31198e-22)
(-0.0150624 3.01327 -6.0605e-19)
(0.0143243 3.02662 4.25924e-19)
(0.00758053 3.03475 -6.92065e-19)
(0.933494 0.00162945 0)
(0.938692 -0.00152954 0)
(0.846582 -0.0109134 0)
(0.95661 0.011478 0)
(0.942906 0.0127668 0)
(0.881905 0.00595509 0)
(0.917046 0.0172753 0)
(0.926021 0.0145446 0)
(0.838232 0.00292468 0)
(0.674956 1.4218 1.22873e-20)
(0.69357 1.53319 0)
(0.121633 0.306866 6.91541e-20)
(0.198409 0.63458 5.49626e-19)
(0.234235 0.687487 -3.21748e-19)
(0.21939 0.515738 6.37628e-19)
(0.328263 0.80272 1.56862e-18)
(0.124055 0.224059 3.77822e-19)
(0.381362 0.180453 7.4554e-19)
(0.365995 0.194881 1.93232e-19)
(0.315764 0.0641385 3.70357e-19)
(1.16132 0.430359 6.11759e-20)
(1.19063 0.239581 5.97938e-20)
(0.00423838 2.24243 2.63626e-19)
(0.0428719 1.94764 0)
(0.967305 0.0320351 0)
(0.942698 0.0187785 0)
(0.86545 -0.0160576 0)
(0.0123495 3.07416 0)
(0.0167383 2.94401 1.30559e-18)
(0.0139591 2.9567 0)
(0.00588272 2.84998 -1.29543e-18)
(0.00959295 3.09029 3.19347e-19)
(0.0114764 3.08385 0)
(0.714768 1.83141 -1.72069e-19)
(1.24115 2.63932 5.81854e-19)
(0.699715 2.01026 -1.40688e-18)
(0.0226043 2.97604 -7.30539e-19)
(0.0415153 2.99969 0)
(-0.0381912 2.87959 0)
(-0.00680745 2.22394 -1.23652e-20)
(-0.00825767 2.24339 -6.82154e-21)
(0.00825429 1.97442 -9.70004e-21)
(0.266819 1.38123 1.04368e-18)
(0.26839 0.529455 -7.15895e-19)
(0.0702786 1.99443 7.73733e-19)
(0.120849 1.86515 -9.27725e-19)
(0.207498 1.52372 1.01805e-19)
(0.00544175 3.1195 -1.9904e-18)
(0.0191026 3.11913 2.13825e-18)
(-0.00488232 2.98053 8.87947e-19)
(-0.000104988 2.97509 -8.56273e-19)
(-0.0179213 2.87844 -9.04393e-19)
(0.0127375 3.09923 -2.3764e-18)
(0.00523772 3.10762 2.32633e-18)
(0.248163 0.672789 0)
(0.203433 0.64004 -1.15883e-18)
(0.0675187 0.209855 5.09409e-19)
(0.338992 0.918648 1.12126e-18)
(0.189557 0.265928 -1.72634e-18)
(1.1789 0.170328 5.72863e-20)
(1.18983 0.294498 0)
(1.17499 0.118201 -3.02072e-21)
(-0.00660523 2.25885 -1.64665e-21)
(-0.00132274 2.24632 0)
(0.0344274 1.97951 0)
(0.310984 1.30418 -3.73104e-19)
(0.350014 1.14718 -8.05557e-19)
(0.219484 0.374875 1.43663e-18)
(1.00642 -0.00973006 0)
(1.00773 -0.00780908 4.93355e-19)
(0.0188155 1.30954 0)
(-0.00594275 1.27761 0)
(1.00245 0.00331119 1.38565e-21)
(1.00324 0.00790176 1.01245e-18)
(-0.0286906 2.54738 4.88877e-21)
(-0.0349016 2.58841 0)
(0.0427876 3.17366 5.28615e-19)
(0.379157 3.55316 0)
(1.13286 0.681356 -6.39066e-20)
(1.01197 0.0108256 -2.77719e-21)
(1.02078 -0.00909082 0)
(1.00159 0.000228411 1.44955e-22)
(0.107436 1.36289 0)
(0.144378 2.59177 0)
(0.019741 1.30282 0)
(-0.00149366 2.64056 3.41658e-20)
(-0.0243455 2.59182 1.82392e-20)
(0.999302 0.0261651 2.56718e-21)
(1.06145 0.00470704 0)
(1.09782 0.0261896 0)
(-0.0212653 1.77645 0)
(-0.0253241 2.59376 0)
(-0.0113603 1.28928 0)
(0.288988 1.48265 -1.55698e-19)
(1.01146 -0.00910748 0)
(1.00969 -0.0130102 0)
(1.00228 0.000910099 6.32225e-19)
(1.00549 -0.00494574 -7.44577e-19)
(1.00115 -0.000879075 0)
(-0.0038749 1.48569 0)
(0.0177431 1.3724 0)
(0.0188855 1.44693 0)
(-0.00824346 1.27654 0)
(0.000583158 1.24193 0)
(-0.00609581 1.22235 0)
(1.03524 -0.00471317 0)
(1.01953 0.0150734 -9.24001e-22)
(0.785352 1.3031 2.57507e-19)
(1.00236 0.000336597 -6.31208e-19)
(1.00339 0.00452456 7.53262e-19)
(1.00129 0.00210859 0)
(1.01134 0.0096539 6.28623e-19)
(1.00698 0.00758766 -7.65213e-19)
(1.00738 0.0112847 0)
(-0.0316983 2.62093 0)
(-0.03564 2.59869 -1.59417e-20)
(-0.0331139 2.61251 1.16015e-20)
(1.23229 0.264618 5.65145e-19)
(1.15939 0.0870414 0)
(0.046239 3.09064 -1.03385e-18)
(0.0511472 2.87115 -7.31594e-20)
(0.105545 3.20141 1.38478e-18)
(0.124093 3.21397 -3.04121e-19)
(0.146507 3.26157 0)
(0.0232407 3.13774 2.84962e-19)
(0.0624676 3.16211 1.02984e-18)
(0.063119 3.1791 -5.32645e-19)
(0.0271201 3.12938 0)
(0.634003 0.301237 0)
(0.590679 0.343463 0)
(1.11014 0.713787 1.5651e-19)
(1.07582 0.846929 -1.55651e-19)
(1.17172 0.597681 0)
(1.20249 0.52991 0)
(1.01585 0.0120629 -1.16804e-18)
(1.01479 0.0128289 1.46856e-18)
(1.02553 -0.00884936 0)
(1.02387 -0.0103705 0)
(1.00658 0.00285821 0)
(1.01098 0.00419762 0)
(1.00442 0.0021362 0)
(1.00946 0.00644959 0)
(1.00703 0.00507703 0)
(1.00457 0.0053412 0)
(0.0944627 1.35851 0)
(0.0773331 1.34244 0)
(0.13448 1.41015 0)
(0.130238 1.41154 0)
(0.152242 2.6147 0)
(0.19202 2.67996 -4.31466e-19)
(0.111263 2.6762 0)
(0.0848516 2.67837 1.84105e-19)
(0.0311419 2.68432 -1.88887e-19)
(0.024782 1.32219 0)
(0.0218497 1.25971 0)
(0.0213979 1.33083 0)
(0.0291184 1.27728 0)
(0.000522088 1.99281 -2.98735e-22)
(-0.0233373 2.62003 -2.41188e-21)
(-0.00876984 2.68406 1.66453e-20)
(-0.0204922 2.69675 0)
(-0.0268939 2.62728 -3.82316e-20)
(-0.0254002 2.62278 -4.21736e-21)
(0.00893335 1.99168 1.76862e-21)
(-0.0115999 2.41498 3.23622e-21)
(-0.014807 2.43527 -1.88691e-20)
(1.01006 0.0375308 1.18365e-18)
(1.0064 0.0170124 -1.47522e-18)
(1.00343 0.0432206 -1.21038e-18)
(0.977683 0.0298342 1.52372e-18)
(1.06324 0.00804882 0)
(1.04884 -0.00680406 0)
(1.09051 0.0354472 0)
(1.07411 0.013658 0)
(1.07297 -0.000592837 0)
(1.13786 0.0757104 0)
(1.11255 0.04306 0)
(1.11497 0.0356237 0)
(-0.0242159 2.44876 -5.71957e-22)
(-0.0300866 2.02175 0)
(-0.0217913 2.23364 0)
(-0.0260257 2.61439 -5.60905e-21)
(-0.0222694 2.62316 -7.05628e-23)
(-0.00046581 1.5733 -1.62266e-20)
(0.003772 1.51103 1.63597e-20)
(-0.00946801 1.38399 0)
(-0.00261598 1.39376 0)
(0.000953417 1.39041 0)
(-0.0146754 1.29513 0)
(-0.0028778 1.23778 0)
(0.375744 1.50397 2.55079e-19)
(0.420639 1.51149 1.4313e-19)
(0.602836 2.46261 -2.49612e-19)
(0.38742 2.56147 7.31516e-19)
(0.350814 2.06991 7.33859e-20)
(1.02056 -0.00811114 0)
(1.01571 -0.0094281 0)
(1.0148 -0.0132413 0)
(1.0076 -0.000706579 0)
(1.00492 -0.000684679 0)
(1.00798 -0.00457252 0)
(1.00949 -0.00361909 0)
(1.01454 -0.00444813 0)
(1.0203 0.0158991 1.14577e-18)
(1.01768 0.0148025 -1.45181e-18)
(1.02077 0.0180668 -1.15469e-18)
(1.01852 0.0164707 1.44522e-18)
(0.745802 1.3469 0)
(0.680929 1.38538 2.22032e-19)
(0.850817 1.22502 7.96048e-20)
(0.884775 1.19271 -1.05621e-19)
(1.16586 2.62292 2.9129e-19)
(0.788881 0.122447 5.89797e-19)
(1.16644 0.102284 0)
(1.20459 0.192148 -4.57478e-19)
(1.18536 0.15208 -1.89819e-20)
(1.012 0.15441 0)
(0.0862554 3.02424 3.69349e-19)
(0.0882891 2.90534 -1.23157e-18)
(0.0359591 2.36496 7.83072e-19)
(0.133734 -0.08452 -3.77358e-19)
(0.346918 3.45552 -2.41542e-19)
(0.196799 3.34596 0)
(0.227458 3.40576 3.14637e-19)
(0.22932 3.08268 -1.27525e-18)
(0.263165 3.20298 0)
(0.0059952 3.12283 5.31872e-20)
(0.0164582 3.13149 -6.122e-19)
(0.0153367 3.12725 9.01038e-19)
(0.0333864 3.14031 0)
(0.0316607 3.14974 0)
(1.26285 2.58978 0)
(0.52092 0.827929 -5.30676e-19)
(0.996084 1.02501 9.27532e-21)
(0.963667 1.07144 0)
(0.832059 0.961272 -1.17876e-19)
(1.05177 0.892694 2.76676e-20)
(0.405365 0.37613 -9.30636e-19)
(0.694285 0.31717 -2.49236e-20)
(0.648249 0.236049 4.18717e-19)
(0.609238 0.368483 3.09166e-20)
(0.522938 0.344236 -1.247e-18)
(0.659856 0.328062 0)
(0.698267 0.415228 7.24135e-19)
(0.704133 0.42162 0)
(0.642252 0.350404 0)
(0.591282 0.294618 0)
(0.767125 0.645432 4.13714e-19)
(1.23863 0.2928 -4.64747e-19)
(1.22541 0.428681 0)
(1.23405 0.379651 0)
(0.736078 0.178703 6.25492e-19)
(0.830721 0.539813 -3.93362e-19)
(0.749522 0.49205 6.97e-19)
(0.954493 0.428568 -7.3013e-19)
(1.0189 0.0144896 7.7827e-19)
(1.01735 0.0135834 -7.85659e-19)
(1.01615 0.0142293 0)
(1.03655 -0.00491079 0)
(1.03014 -0.00790615 -7.37578e-19)
(1.02829 -0.010767 7.30006e-19)
(1.0248 0.0104048 0)
(1.02296 0.0144043 0)
(1.01249 0.00448439 0)
(1.01453 0.00905965 0)
(1.01607 0.00397708 0)
(1.01534 0.00279898 0)
(0.0628556 1.35491 0)
(0.0619347 1.31902 0)
(0.141287 1.40964 4.65954e-20)
(0.265154 1.47736 7.17094e-20)
(0.159507 1.45141 1.59331e-19)
(0.188821 1.45697 -2.58359e-19)
(0.146342 1.41415 0)
(0.12555 1.57769 -1.23264e-19)
(0.125952 1.57108 0)
(0.347054 2.0287 -1.06815e-19)
(0.331935 2.3456 6.40112e-19)
(0.178939 1.45289 1.07461e-19)
(0.264717 1.37759 1.53799e-20)
(0.189391 1.38008 -1.25277e-20)
(0.279715 1.3133 -1.13058e-19)
(0.252351 1.57634 0)
(0.252624 1.62527 1.1718e-19)
(0.0292566 2.27625 -2.17295e-20)
(0.0378786 2.67834 0)
(0.0684136 2.41571 1.17613e-19)
(0.0622141 2.43536 0)
(0.0704466 2.69494 -2.04269e-19)
(0.0445819 2.71154 0)
(0.0272541 1.41794 2.01177e-20)
(0.0363506 1.47662 0)
(0.0324348 1.38093 0)
(0.025144 1.38209 -2.35771e-20)
(0.000329826 2.66794 -3.95638e-21)
(0.0256535 2.70277 2.17619e-19)
(0.00901598 2.73703 1.31257e-21)
(0.00115118 1.83821 5.86443e-21)
(-0.00554165 1.68275 -8.29608e-22)
(0.0198712 1.30775 0)
(0.0228277 1.24158 0)
(0.0410979 1.57418 1.43217e-20)
(0.036792 1.4502 -3.11813e-21)
(0.0344719 1.5204 1.50326e-22)
(0.0446447 1.60214 0)
(-0.0317874 2.28446 6.23222e-20)
(-0.03613 2.56422 -2.67106e-20)
(-0.0196542 2.46401 1.23483e-21)
(-0.0102234 1.85494 -7.10906e-21)
(-0.0313859 2.51472 -1.6749e-21)
(-0.0261205 2.45461 2.33844e-20)
(1.01867 0.0210021 -7.84039e-19)
(1.01474 0.0269401 7.86532e-19)
(1.01388 0.0167955 0)
(1.01246 0.0676529 1.0783e-18)
(0.992154 0.0546776 -1.24144e-18)
(0.953908 0.051094 1.38929e-18)
(1.01325 0.110809 -1.46995e-19)
(1.04323 -0.00512947 0)
(1.05117 -0.00110577 7.06534e-19)
(1.0397 -0.00838714 -7.06364e-19)
(1.07062 0.0410908 -4.1989e-20)
(1.06347 0.0276231 3.62215e-19)
(1.06395 0.0625424 0)
(1.05304 0.0516824 -1.30399e-19)
(1.03246 0.0427139 0)
(1.02578 0.0378705 0)
(1.02772 0.013027 0)
(1.02418 0.0156682 0)
(1.0402 0.0322803 2.67934e-19)
(1.03919 0.0273314 -5.92738e-19)
(1.0524 0.0362692 -2.83743e-19)
(1.04856 0.0360493 -3.12906e-19)
(1.07585 0.0668387 6.0135e-19)
(1.09906 0.0527312 0)
(1.10521 0.0918563 0)
(-0.0282621 2.29541 4.61772e-20)
(-0.0240434 2.03911 -8.27723e-22)
(-0.0247403 2.04545 0)
(-0.0344563 2.45822 -4.60494e-20)
(-0.0302684 2.41787 1.38098e-21)
(-0.0398779 2.4909 4.447e-21)
(-0.0243674 2.63475 4.11787e-21)
(-0.0303993 2.57717 -7.65917e-22)
(-0.0250971 2.53099 7.03346e-22)
(-0.0201768 2.62746 1.13825e-21)
(-0.023763 2.62968 -3.43167e-22)
(-0.016786 1.47968 -2.80481e-22)
(0.00231986 1.62109 -1.12534e-20)
(0.366444 1.43289 -1.05294e-19)
(0.363339 1.36082 3.51721e-20)
(0.631076 1.43152 -2.14847e-19)
(0.510042 1.50227 -1.38516e-19)
(0.557841 1.46521 0)
(0.603009 2.43719 2.12994e-19)
(0.666994 2.43155 3.40856e-19)
(0.418622 2.52387 8.90334e-20)
(0.397636 2.54979 -6.48347e-19)
(0.500731 2.49065 5.8702e-19)
(0.558945 2.4763 0)
(0.49132 2.53144 -5.58809e-19)
(0.259576 2.59928 1.17254e-18)
(0.367407 2.56615 -6.4826e-20)
(0.289213 2.66005 -1.63641e-18)
(0.964398 2.39604 7.14643e-19)
(0.847033 2.39442 0)
(1.01139 0.00119427 2.56514e-20)
(1.01523 -0.00534076 -2.09321e-20)
(1.01762 -0.00412972 -3.82729e-19)
(1.01544 -0.00119643 3.81421e-19)
(1.01296 0.00166643 0)
(0.620793 1.29404 0)
(0.656633 1.18134 0)
(0.767922 1.10511 0)
(0.643608 1.1413 0)
(1.19666 2.63944 5.00825e-20)
(1.08822 2.38722 0)
(0.82572 2.20159 3.54071e-21)
(0.825378 2.45526 0)
(0.918525 2.54357 -4.37796e-19)
(0.950418 2.49365 2.9254e-19)
(0.807784 0.147238 0)
(0.768583 0.133361 1.61502e-19)
(0.920126 0.149451 9.35353e-19)
(0.836733 0.127119 -3.51085e-19)
(0.796309 0.0867102 -1.07516e-18)
(1.0824 0.229383 -8.73991e-19)
(0.986617 0.291721 -7.7639e-21)
(0.925991 0.328727 8.4852e-19)
(1.0143 0.241492 7.10921e-19)
(0.935064 0.188981 -1.24087e-18)
(0.897614 0.200743 1.55269e-19)
(0.942808 0.29375 -3.25879e-19)
(0.910907 0.204129 0)
(0.999181 0.193613 6.07782e-19)
(1.05394 0.203055 0)
(1.0498 0.212298 0)
(1.12204 0.118618 2.76326e-19)
(1.06169 0.181443 -1.0565e-20)
(1.0757 0.232707 -1.57566e-19)
(1.11491 0.201496 0)
(1.02349 0.0467074 6.06879e-19)
(1.03918 0.0605109 7.54601e-19)
(1.0329 0.0446099 -6.01742e-19)
(1.0411 0.0657446 -5.06003e-19)
(1.01511 0.0716762 -7.63495e-19)
(0.99111 0.159258 0)
(0.992815 0.103445 0)
(0.962968 0.0643226 -4.93075e-19)
(0.911392 0.0947511 1.95122e-19)
(1.03714 0.110709 7.00621e-19)
(1.07359 0.129829 -8.09372e-19)
(1.06552 0.169667 7.26857e-19)
(1.03388 0.147397 0)
(1.08293 0.114603 0)
(1.05669 0.106315 -3.30283e-19)
(1.04419 0.103336 -5.70046e-19)
(0.587574 1.11035 1.15558e-19)
(0.625033 1.43896 -2.15749e-20)
(1.14737 2.73488 -2.45908e-19)
(1.2 3.11575 2.38229e-21)
(1.2557 2.74104 -1.36885e-19)
(1.29742 2.71275 2.24465e-20)
(1.27312 2.33443 -3.70249e-20)
(1.18781 3.02162 -7.32018e-20)
(1.20644 2.97845 2.2285e-19)
(1.1822 3.26981 -1.23636e-19)
(1.40199 2.98583 1.53007e-19)
(1.41408 2.9245 0)
(0.552833 0.850188 -4.79113e-20)
(0.235665 1.22593 4.92927e-19)
(0.497482 0.451802 5.93265e-19)
(0.372691 0.214296 6.80791e-19)
(0.545692 0.372295 7.04238e-19)
(0.558439 0.470674 -1.13189e-18)
(0.559214 0.468328 9.27446e-19)
(0.511394 0.397366 -3.58979e-19)
(0.44138 0.328548 8.1178e-19)
(0.756867 0.234321 -3.57992e-19)
(0.720512 0.273272 0)
(0.690486 0.198722 9.84254e-21)
(0.736059 0.509198 3.81517e-19)
(0.692419 0.478251 -1.38687e-18)
(0.650698 0.465834 2.24988e-20)
(0.644968 0.436841 0)
(0.690467 0.736044 3.81326e-19)
(0.808756 0.791899 4.30672e-19)
(0.736796 0.842517 -4.99984e-19)
(0.876165 0.811995 -1.60039e-19)
(0.910841 0.853611 -3.99727e-20)
(0.918562 0.860435 4.09862e-20)
(0.868214 0.673166 -6.89119e-19)
(0.93463 0.72293 1.48835e-19)
(0.984395 0.725169 0)
(0.983498 0.700936 -1.9487e-19)
(1.03153 0.312935 2.23793e-19)
(1.14935 0.315395 2.76131e-19)
(1.06627 0.269161 3.57942e-19)
(0.990558 0.358868 -4.39714e-19)
(1.03314 0.465546 0)
(1.12102 0.411453 0)
(0.891494 0.403245 7.67067e-21)
(0.843934 0.290549 0)
(0.874097 0.278202 4.03974e-19)
(0.908887 0.325943 9.89514e-21)
(0.961943 0.460795 2.0557e-18)
(0.886695 0.531662 5.2538e-19)
(0.910562 0.474078 -5.70056e-19)
(0.825166 0.451987 6.0441e-19)
(0.809566 0.432301 3.69251e-19)
(0.793658 0.402059 -3.62221e-19)
(1.02796 -0.000571963 6.32659e-19)
(1.02029 0.000333008 0)
(1.01892 0.00118029 4.12825e-19)
(1.02254 -0.000970949 -9.34567e-19)
(1.02244 0.00431119 4.55102e-19)
(1.02009 0.0112187 -9.52385e-19)
(1.02097 0.0109748 0)
(1.01996 0.0117517 -1.98355e-19)
(1.01643 0.00757817 4.97118e-19)
(1.01673 0.0106843 -2.49687e-19)
(1.0174 0.0102882 1.82811e-19)
(0.0286051 1.32158 0)
(0.0353536 1.34822 0)
(0.0443965 1.33246 0)
(0.0421272 1.29077 0)
(0.0769383 1.36062 3.96595e-20)
(0.0911106 1.33457 -3.62933e-20)
(0.0494192 1.54273 -1.66741e-20)
(0.106704 1.37573 -4.77679e-20)
(0.042524 1.45899 -1.71496e-21)
(0.0455881 1.45607 9.74747e-22)
(0.0680995 1.36343 -4.03543e-20)
(0.057743 1.36793 3.12349e-20)
(0.0479145 1.34619 5.10675e-21)
(0.0395311 1.3641 7.56599e-22)
(0.107253 2.38544 -1.29367e-19)
(0.098205 2.42992 0)
(0.151414 2.03448 1.08832e-19)
(0.114695 1.70656 4.76519e-20)
(0.22199 2.02471 -9.49762e-20)
(0.200519 2.43781 0)
(0.253147 2.38488 -6.27813e-19)
(0.30058 2.38333 4.46098e-19)
(0.255469 1.99675 -2.46605e-19)
(0.141054 2.16147 1.69469e-19)
(0.114553 2.2708 0)
(0.0222809 1.86329 -4.22189e-20)
(-0.00693033 2.40002 -7.2531e-20)
(0.004327 2.14807 0)
(0.00598267 2.46072 -1.48233e-20)
(0.024564 2.30532 3.0276e-20)
(0.0189962 1.40298 -4.89238e-21)
(0.0124084 1.38777 7.77163e-20)
(0.0124034 1.39098 -2.78546e-20)
(0.0200833 1.39014 -1.83657e-20)
(0.0249009 1.4217 0)
(0.0103544 1.37299 0)
(-0.00463468 1.2954 -2.94965e-20)
(0.00160259 1.36271 7.49247e-21)
(0.00883957 1.36612 0)
(0.0115158 1.29713 -2.60599e-20)
(0.00772777 1.22665 4.98395e-20)
(1.04193 0.0138631 0)
(1.04818 0.0094459 -6.61315e-20)
(1.039 0.022898 -4.77603e-19)
(1.04933 0.0217888 0)
(1.05387 0.0208579 0)
(1.03628 0.0118377 -6.71193e-21)
(1.0303 0.0121834 7.66339e-19)
(1.03193 0.0163959 9.31854e-19)
(1.02578 0.0202691 0)
(1.02248 0.0207061 0)
(1.03552 0.0245916 4.7645e-19)
(1.02608 0.0266982 0)
(1.02373 0.0270164 0)
(-0.0273698 2.03298 0)
(0.00317261 1.65267 -4.08349e-21)
(-0.00991002 1.76318 -2.30268e-20)
(-0.00704919 1.36859 0)
(-0.0175851 1.5532 -5.76666e-21)
(-0.00386236 1.45336 3.59738e-21)
(-0.00894927 1.37349 0)
(0.40399 1.66136 0)
(0.35562 1.29994 -4.81257e-20)
(0.277725 1.34419 0)
(0.421202 1.30586 -1.54195e-20)
(0.462896 1.46179 0)
(0.445695 1.40424 2.96853e-20)
(1.03956 2.68739 -1.53142e-20)
(0.979908 2.4174 -8.98038e-19)
(0.938307 2.20707 1.02256e-18)
(0.862365 2.38748 2.40252e-19)
(0.853787 2.5042 0)
(0.921306 2.50167 0)
(0.948173 2.38921 0)
(0.925276 2.37646 -9.31721e-19)
(0.694421 2.47522 -3.82595e-19)
(0.802814 2.45895 -9.88169e-20)
(0.811066 2.43724 7.46369e-20)
(0.703822 2.40566 0)
(0.808117 2.39927 0)
(0.770133 2.4144 -3.67155e-19)
(0.768646 2.48277 0)
(0.603493 1.07095 0)
(0.517865 0.895142 -5.46519e-19)
(0.521339 0.95986 -3.17904e-20)
(0.502854 1.09652 0)
(0.490023 1.00977 8.37883e-19)
(0.76832 0.876495 -1.40913e-19)
(0.778825 1.01422 0)
(0.756519 0.992861 1.98799e-19)
(0.643773 1.02215 0)
(0.638736 0.936836 0)
(1.16457 2.76879 -2.23299e-19)
(1.13984 2.82767 -9.10952e-20)
(0.92733 2.35763 7.57908e-20)
(0.903298 2.33606 -7.61815e-20)
(1.13351 2.74646 0)
(1.0853 2.71516 9.15869e-20)
(1.10082 2.50629 -3.01888e-19)
(1.00018 2.25878 -2.84541e-20)
(0.500263 1.35653 0)
(0.517662 1.09379 -1.01853e-19)
(0.578448 1.17717 0)
(0.858976 0.213811 0)
(0.786366 0.164752 0)
(0.728187 0.135726 0)
(0.860504 0.213009 -6.20198e-19)
(0.77408 0.207687 3.7305e-19)
(0.926242 0.0788378 -4.04336e-19)
(0.944103 0.128619 0)
(0.918537 0.138578 1.73859e-19)
(0.859014 0.0997289 6.97838e-19)
(0.823154 0.0683753 -4.36482e-19)
(1.10313 3.36351 -6.83331e-19)
(1.1681 3.28608 0)
(1.12276 3.44864 -1.58472e-18)
(0.662013 3.59392 1.32076e-18)
(1.03374 3.08991 1.2494e-19)
(0.523544 0.83006 5.67387e-19)
(0.510799 0.799634 0)
(0.381117 0.48174 -1.4986e-19)
(0.469725 0.672983 8.63619e-19)
(0.524468 0.458369 -2.0651e-19)
(0.513635 0.505749 2.35854e-19)
(0.69032 0.545761 4.91757e-19)
(0.718473 0.572901 0)
(0.647671 0.609424 0)
(0.619475 0.561504 0)
(0.992553 0.60813 1.01957e-19)
(0.942215 0.575403 -5.08216e-19)
(0.960818 0.600503 3.79044e-19)
(1.02292 0.526529 -3.81334e-19)
(1.06249 0.49784 0)
(1.06553 0.590347 -9.86282e-20)
(0.854362 0.392816 -8.29583e-19)
(0.850329 0.385421 -1.05506e-18)
(0.80395 0.383824 6.52068e-19)
(0.803475 0.34166 -6.72407e-19)
(0.845018 0.299997 -5.23659e-19)
(0.803706 0.299776 6.43614e-19)
(1.0265 0.00625229 -4.76426e-19)
(1.02616 0.00636082 9.60514e-19)
(1.02985 0.000497775 6.13353e-19)
(1.03382 0.00114938 -7.36599e-19)
(1.03362 0.0107282 0)
(1.0298 0.0109689 -1.19841e-18)
(0.0885953 1.66692 1.49219e-20)
(0.0498494 1.59256 0)
(0.102733 1.7149 1.01519e-19)
(0.11283 1.68491 -9.41452e-20)
(0.0315994 1.53233 3.13509e-20)
(0.0258253 1.51551 0)
(0.0054772 1.68805 0)
(-0.0055985 1.49433 3.5149e-21)
(-0.00269152 1.43273 -3.1652e-21)
(-0.0107629 1.54756 2.89253e-21)
(-0.00348985 1.89097 2.17745e-21)
(-0.0208079 1.94261 1.35574e-21)
(0.489847 1.37811 -2.68722e-19)
(0.493236 1.37443 2.93279e-19)
(0.436137 1.29806 -2.00051e-20)
(0.421439 1.29971 8.48857e-21)
(0.610892 1.30296 0)
(0.543539 1.39412 1.03612e-19)
(0.543919 1.39713 -1.00833e-19)
(0.467968 1.27712 1.91302e-20)
(0.508601 1.2397 0)
(0.575367 1.20886 0)
(0.668496 2.43731 5.63962e-19)
(0.662527 2.46138 1.30417e-18)
(0.719922 2.47635 -8.96171e-19)
(0.620329 2.44819 -2.03564e-19)
(0.553585 2.54605 2.79415e-19)
(0.494187 2.50651 -7.26173e-19)
(0.988779 2.39428 -5.76119e-19)
(1.02333 2.41325 0)
(0.944774 2.19164 -6.37079e-19)
(1.05545 2.69577 0)
(1.05467 2.67824 0)
(0.617598 2.31481 3.25667e-20)
(1.12418 3.08304 9.60197e-20)
(1.0069 2.98498 -1.52853e-19)
(0.33667 0.867057 0)
(0.355441 0.774604 -3.02617e-19)
(0.544778 0.70122 -3.06368e-19)
(0.384492 2.16205 0)
(0.411717 2.75164 -8.78891e-20)
(0.423332 2.4912 0)
(0.698787 0.700765 -8.13302e-19)
(0.761637 0.694921 1.14219e-18)
(0.769196 0.658371 -1.1404e-18)
(0.685443 0.659809 -1.04178e-19)
(0.741407 0.614708 -4.3407e-19)
(0.979832 2.76986 -7.2734e-20)
(1.01689 2.77232 -2.03867e-19)
(0.571301 2.24265 3.96607e-19)
(0.618273 1.75893 -3.20721e-19)
(0.71532 1.8774 -4.87965e-19)
(0.983481 2.41094 -1.36916e-19)
(0.981577 2.36728 3.59084e-19)
(0.662965 1.79918 3.26788e-20)
(0.469583 1.3252 1.72622e-19)
)
;

boundaryField
{
    wall-4
    {
        type            noSlip;
    }
    velocity-inlet-5
    {
        type            fixedValue;
        value           uniform (1 0 0);
    }
    velocity-inlet-6
    {
        type            fixedValue;
        value           uniform (0 3 0);
    }
    pressure-outlet-7
    {
        type            zeroGradient;
    }
    wall-8
    {
        type            noSlip;
    }
    frontAndBackPlanes
    {
        type            empty;
    }
}


// ************************************************************************* //
