/*--------------------------------*- C++ -*----------------------------------*\
  =========                 |
  \\      /  F ield         | OpenFOAM: The Open Source CFD Toolbox
   \\    /   O peration     | Website:  https://openfoam.org
    \\  /    A nd           | Version:  6
     \\/     M anipulation  |
\*---------------------------------------------------------------------------*/
FoamFile
{
    version     2.0;
    format      ascii;
    class       volVectorField;
    location    "60.4";
    object      U;
}
// * * * * * * * * * * * * * * * * * * * * * * * * * * * * * * * * * * * * * //

dimensions      [0 1 -1 0 0 0 0];

internalField   nonuniform List<vector> 
8800
(
(0.987184 -0.0766667 0)
(1.00189 -0.0551928 0)
(0.999723 -0.0285522 0)
(1.00002 -0.0151487 0)
(1.00007 -0.00855112 0)
(1.00009 -0.00505464 0)
(1.00006 -0.00301029 0)
(1.00002 -0.00170959 0)
(0.999999 -0.00080273 0)
(1.00006 -8.62989e-05 0)
(0.999986 0.00064354 0)
(0.999994 0.00140859 0)
(1.00002 0.00243061 0)
(1.00004 0.00400223 0)
(1.00004 0.0066322 0)
(1.00001 0.0113701 0)
(0.999896 0.0208138 0)
(0.999149 0.0386709 0)
(1.0071 0.072457 0)
(0.771213 0.0366611 0)
(0.363058 -0.0160184 0)
(1.0433 -0.0768224 0)
(1.08459 -0.0704579 0)
(1.04518 -0.0535571 0)
(1.02326 -0.0389129 0)
(1.01199 -0.0262417 0)
(1.0064 -0.016887 0)
(1.00358 -0.0103589 0)
(1.00215 -0.0056997 0)
(1.00145 -0.00204169 0)
(1.00131 0.00128194 0)
(1.00168 0.00466545 0)
(1.00266 0.00860097 0)
(1.00465 0.0139414 0)
(1.00859 0.021649 0)
(1.01655 0.0326187 0)
(1.03246 0.0465345 0)
(1.06263 0.0616539 0)
(1.09187 0.0760957 0)
(0.838678 0.0565596 0)
(0.21682 -0.00243098 0)
(1.07587 -0.0501506 0)
(1.09986 -0.0483321 0)
(1.06461 -0.0404901 0)
(1.04 -0.0336398 0)
(1.02388 -0.0261282 0)
(1.01409 -0.0185523 0)
(1.00854 -0.0117351 0)
(1.00558 -0.00586711 0)
(1.00433 -0.000448651 0)
(1.00467 0.00479999 0)
(1.0066 0.0101937 0)
(1.0106 0.0162915 0)
(1.01793 0.02332 0)
(1.03053 0.0307863 0)
(1.05061 0.0378211 0)
(1.08032 0.0445095 0)
(1.10625 0.0513304 0)
(0.942546 0.0416099 0)
(0.216171 0.00246088 0)
(0.175131 -0.000817903 0)
(1.01763 -0.0355054 0)
(1.10516 -0.0414133 0)
(1.07822 -0.0361052 0)
(1.05341 -0.0301804 0)
(1.03615 -0.0246169 0)
(1.02396 -0.0188975 0)
(1.01586 -0.0128213 0)
(1.011 -0.00663498 0)
(1.00881 -0.000299109 0)
(1.00939 0.00596014 0)
(1.01265 0.0119626 0)
(1.01887 0.0178064 0)
(1.02877 0.0233876 0)
(1.04321 0.0286904 0)
(1.06372 0.0341805 0)
(1.09354 0.0401711 0)
(1.09341 0.0419415 0)
(0.827195 0.022905 0)
(0.174035 0.000852022 0)
(0.15391 -0.000611902 0)
(0.95607 -0.0254842 0)
(1.10339 -0.0351727 0)
(1.08762 -0.0327073 0)
(1.06165 -0.0280655 0)
(1.04405 -0.0230539 0)
(1.03159 -0.0178166 0)
(1.02275 -0.0122926 0)
(1.01695 -0.00636096 0)
(1.01412 0.000107318 0)
(1.0148 0.00657225 0)
(1.01878 0.0124608 0)
(1.0258 0.0177637 0)
(1.03611 0.0226879 0)
(1.05067 0.0274537 0)
(1.07191 0.0319961 0)
(1.10006 0.035939 0)
(1.06811 0.0340083 0)
(0.73962 0.0143047 0)
(0.15226 0.00065063 0)
(0.139517 -0.000468235 0)
(0.899102 -0.0191067 0)
(1.09568 -0.0301332 0)
(1.09566 -0.029257 0)
(1.06916 -0.0255393 0)
(1.05073 -0.0214154 0)
(1.03782 -0.0166561 0)
(1.02872 -0.0113776 0)
(1.02262 -0.00563798 0)
(1.0195 0.000687681 0)
(1.02014 0.00700308 0)
(1.02424 0.0126447 0)
(1.03138 0.0176224 0)
(1.04191 0.0220958 0)
(1.05704 0.0260679 0)
(1.07924 0.0295444 0)
(1.10229 0.0321797 0)
(1.03604 0.0280925 0)
(0.673092 0.0102014 0)
(0.137187 0.00051292 0)
(0.128953 -0.000362999 0)
(0.849434 -0.0147488 0)
(1.08324 -0.0260108 0)
(1.10132 -0.0263215 0)
(1.07599 -0.0230514 0)
(1.05704 -0.019423 0)
(1.04366 -0.0151908 0)
(1.03422 -0.010282 0)
(1.02788 -0.00476011 0)
(1.02458 0.00138645 0)
(1.02507 0.00749111 0)
(1.02912 0.0128571 0)
(1.03638 0.017426 0)
(1.0472 0.0212964 0)
(1.06273 0.0246067 0)
(1.08536 0.0275666 0)
(1.1014 0.0293338 0)
(1.00116 0.0235735 0)
(0.621298 0.00783674 0)
(0.125796 0.000415586 0)
(0.120885 -0.000282505 0)
(0.807203 -0.0115955 0)
(1.06791 -0.022412 0)
(1.10481 -0.0237008 0)
(1.08223 -0.0208452 0)
(1.06285 -0.0174338 0)
(1.0492 -0.0135156 0)
(1.03948 -0.00894631 0)
(1.03286 -0.00369629 0)
(1.02932 0.00222673 0)
(1.02964 0.00807818 0)
(1.03365 0.0130976 0)
(1.04097 0.0171986 0)
(1.0519 0.0205605 0)
(1.06765 0.0234653 0)
(1.09062 0.0261352 0)
(1.09764 0.0270108 0)
(0.965933 0.0200296 0)
(0.579688 0.00630173 0)
(0.116724 0.000345087 0)
(0.114625 -0.000219472 0)
(0.771633 -0.00923768 0)
(1.05107 -0.0192447 0)
(1.10716 -0.0212798 0)
(1.08807 -0.0188006 0)
(1.0683 -0.0155379 0)
(1.05442 -0.0117831 0)
(1.04451 -0.00742863 0)
(1.03764 -0.0024271 0)
(1.03383 0.00324463 0)
(1.03394 0.00880318 0)
(1.03782 0.0134476 0)
(1.04509 0.0171353 0)
(1.05602 0.0201112 0)
(1.07196 0.0226887 0)
(1.09459 0.0250161 0)
(1.09106 0.0250802 0)
(0.931665 0.0172929 0)
(0.54525 0.00525331 0)
(0.109243 0.000294333 0)
(0.109738 -0.000168807 0)
(0.741781 -0.00740865 0)
(1.03379 -0.0164392 0)
(1.10855 -0.0189971 0)
(1.09361 -0.0168232 0)
(1.07357 -0.0136503 0)
(1.05942 -0.00999106 0)
(1.04931 -0.00576693 0)
(1.04224 -0.000943873 0)
(1.03814 0.00447411 0)
(1.03797 0.00970444 0)
(1.04162 0.0139845 0)
(1.04874 0.0173023 0)
(1.05967 0.0199285 0)
(1.0758 0.0222244 0)
(1.0973 0.0241918 0)
(1.08204 0.0234908 0)
(0.898925 0.0152125 0)
(0.515936 0.00452203 0)
(0.102873 0.000258621 0)
(0.10594 -0.000126745 0)
(0.716827 -0.00593399 0)
(1.0169 -0.0139228 0)
(1.10911 -0.0167976 0)
(1.09907 -0.0149067 0)
(1.07876 -0.0117533 0)
(1.06431 -0.00812971 0)
(1.05399 -0.00396754 0)
(1.04666 0.000734308 0)
(1.04224 0.00594773 0)
(1.04171 0.010887 0)
(1.04507 0.0148293 0)
(1.05201 0.0178083 0)
(1.06288 0.0201002 0)
(1.07919 0.0221258 0)
(1.09866 0.0236872 0)
(1.07098 0.0222477 0)
(0.867821 0.0136732 0)
(0.490293 0.00401838 0)
(0.0972736 0.000235107 0)
(0.103043 -9.0298e-05 0)
(0.696129 -0.00469775 0)
(1.001 -0.0116278 0)
(1.10897 -0.0146334 0)
(1.10434 -0.0129347 0)
(1.08393 -0.00974561 0)
(1.06918 -0.00609864 0)
(1.05859 -0.00195766 0)
(1.05096 0.00267066 0)
(1.04616 0.00772287 0)
(1.04519 0.0123939 0)
(1.04818 0.0160052 0)
(1.0549 0.0186366 0)
(1.0657 0.0205873 0)
(1.08213 0.0223648 0)
(1.09904 0.0235247 0)
(1.05815 0.0213513 0)
(0.838201 0.0125848 0)
(0.467237 0.00368642 0)
(0.0921863 0.000221153 0)
(0.100927 -5.68111e-05 0)
(0.679216 -0.00361277 0)
(0.986545 -0.00948476 0)
(1.10837 -0.0124298 0)
(1.10944 -0.0108472 0)
(1.08919 -0.00760198 0)
(1.07409 -0.00387964 0)
(1.06319 0.000318947 0)
(1.05519 0.00493835 0)
(1.0499 0.00986385 0)
(1.04841 0.0142843 0)
(1.05096 0.0175865 0)
(1.0574 0.0198958 0)
(1.06812 0.0215127 0)
(1.0846 0.0230079 0)
(1.09843 0.0237521 0)
(1.04373 0.0208256 0)
(0.809741 0.0118764 0)
(0.445922 0.00348862 0)
(0.0874094 0.000215004 0)
(0.0995311 -2.3961e-05 0)
(0.665785 -0.00260887 0)
(0.973891 -0.00741522 0)
(1.1076 -0.0101195 0)
(1.11447 -0.00858431 0)
(1.09459 -0.00525211 0)
(1.07912 -0.00138694 0)
(1.06784 0.00292536 0)
(1.05938 0.00759228 0)
(1.05351 0.0124627 0)
(1.05137 0.016681 0)
(1.05339 0.0196644 0)
(1.05953 0.0216167 0)
(1.07011 0.0228671 0)
(1.08659 0.0240987 0)
(1.09658 0.0243869 0)
(1.02776 0.0206418 0)
(0.782026 0.0114896 0)
(0.425656 0.00339858 0)
(0.0827817 0.000215007 0)
(0.0988396 1.03349e-05 0)
(0.655684 -0.00163242 0)
(0.963358 -0.00535161 0)
(1.107 -0.00764243 0)
(1.11959 -0.00603975 0)
(1.10023 -0.00254707 0)
(1.08434 0.00151848 0)
(1.07261 0.0060015 0)
(1.0636 0.0107765 0)
(1.05701 0.0156138 0)
(1.05411 0.0196213 0)
(1.05549 0.0222914 0)
(1.06122 0.0238787 0)
(1.07167 0.024742 0)
(1.08806 0.0256759 0)
(1.09344 0.025471 0)
(1.01024 0.0208435 0)
(0.754595 0.0113991 0)
(0.405866 0.00340278 0)
(0.0781704 0.000220716 0)
(0.0988728 4.36533e-05 0)
(0.648888 -0.000634981 0)
(0.955235 -0.00321697 0)
(1.1069 -0.00493809 0)
(1.12495 -0.00318484 0)
(1.1062 0.00051599 0)
(1.08984 0.00486412 0)
(1.07757 0.0096152 0)
(1.06788 0.0145705 0)
(1.06041 0.0194302 0)
(1.05658 0.0232497 0)
(1.05723 0.0255886 0)
(1.06249 0.0267986 0)
(1.07276 0.0272662 0)
(1.08877 0.0278283 0)
(1.08883 0.0270065 0)
(0.991023 0.0214476 0)
(0.726932 0.011585 0)
(0.386031 0.00349218 0)
(0.0734547 0.00023138 0)
(0.0996689 8.33893e-05 0)
(0.645474 0.000398948 0)
(0.949849 -0.000936309 0)
(1.10766 -0.00190269 0)
(1.13073 0.000137432 0)
(1.1126 0.00413709 0)
(1.09574 0.00884166 0)
(1.08283 0.0139173 0)
(1.07231 0.0191181 0)
(1.06379 0.0240586 0)
(1.05884 0.0277096 0)
(1.05857 0.0296921 0)
(1.06327 0.0304831 0)
(1.07333 0.0305203 0)
(1.08857 0.0306621 0)
(1.08249 0.0290875 0)
(0.969856 0.0224897 0)
(0.698477 0.0120397 0)
(0.365664 0.00366024 0)
(0.0685278 0.000246487 0)
(0.101438 0.000143764 0)
(0.645838 0.00155549 0)
(0.947563 0.0015693 0)
(1.10973 0.00154808 0)
(1.13716 0.00402058 0)
(1.11958 0.00844538 0)
(1.10213 0.0136075 0)
(1.08844 0.019112 0)
(1.07691 0.0246364 0)
(1.06711 0.0296718 0)
(1.06081 0.0331259 0)
(1.05947 0.0347029 0)
(1.06351 0.0350626 0)
(1.07329 0.0346309 0)
(1.08726 0.0342787 0)
(1.07417 0.0317991 0)
(0.946372 0.0240092 0)
(0.668622 0.0127604 0)
(0.344301 0.00390259 0)
(0.0632922 0.000265477 0)
(0.104228 0.000204628 0)
(0.650334 0.0029679 0)
(0.948809 0.00445082 0)
(1.11356 0.00556101 0)
(1.14445 0.00858802 0)
(1.1273 0.0135544 0)
(1.10916 0.0193011 0)
(1.09451 0.0253545 0)
(1.08173 0.0312875 0)
(1.07038 0.0364843 0)
(1.06248 0.0397584 0)
(1.05991 0.040858 0)
(1.06313 0.0407049 0)
(1.07259 0.0397373 0)
(1.08464 0.0388583 0)
(1.06352 0.0352375 0)
(0.920086 0.0260385 0)
(0.636716 0.0137423 0)
(0.3215 0.00421143 0)
(0.0576637 0.000287317 0)
(0.108323 0.000286583 0)
(0.659481 0.00463941 0)
(0.9541 0.00785888 0)
(1.11968 0.010313 0)
(1.15289 0.0141049 0)
(1.13596 0.0197998 0)
(1.11699 0.0262595 0)
(1.10115 0.0329579 0)
(1.08683 0.0393684 0)
(1.07358 0.0447115 0)
(1.06379 0.0477102 0)
(1.05978 0.0482818 0)
(1.06205 0.0475706 0)
(1.07109 0.0460158 0)
(1.08077 0.0444929 0)
(1.05009 0.0395046 0)
(0.890363 0.0286197 0)
(0.602046 0.0149751 0)
(0.296833 0.00457681 0)
(0.0515744 0.000310755 0)
(0.114065 0.000397925 0)
(0.674059 0.00673484 0)
(0.964107 0.0119905 0)
(1.12867 0.0160154 0)
(1.16284 0.0207981 0)
(1.14583 0.0274631 0)
(1.12578 0.0348056 0)
(1.10846 0.0422877 0)
(1.09222 0.0492304 0)
(1.07667 0.0546658 0)
(1.06466 0.0572548 0)
(1.05896 0.0571464 0)
(1.0602 0.0558257 0)
(1.06875 0.053604 0)
(1.07541 0.0513486 0)
(1.03328 0.044685 0)
(0.856447 0.0317475 0)
(0.563885 0.0164243 0)
(0.269938 0.00497696 0)
(0.0449883 0.000333357 0)
(0.121969 0.000552914 0)
(0.695 0.00947675 0)
(0.979682 0.0171594 0)
(1.14116 0.0230163 0)
(1.17476 0.0290385 0)
(1.1572 0.0369514 0)
(1.13576 0.0453717 0)
(1.11651 0.0537574 0)
(1.09788 0.0612407 0)
(1.07957 0.0666953 0)
(1.06496 0.0687181 0)
(1.05733 0.0677461 0)
(1.05742 0.0656356 0)
(1.06549 0.0626475 0)
(1.06823 0.0595059 0)
(1.01237 0.0508426 0)
(0.817444 0.035406 0)
(0.521512 0.0180326 0)
(0.240552 0.00538226 0)
(0.0379136 0.000352328 0)
(0.132766 0.000777756 0)
(0.723607 0.013246 0)
(1.00199 0.0238266 0)
(1.15795 0.0318746 0)
(1.18924 0.0394807 0)
(1.17043 0.0490148 0)
(1.14707 0.0586883 0)
(1.12529 0.0680062 0)
(1.10364 0.0759167 0)
(1.08204 0.08112 0)
(1.06449 0.0822685 0)
(1.05476 0.0802395 0)
(1.05364 0.0771903 0)
(1.06099 0.0732961 0)
(1.05856 0.069095 0)
(0.986365 0.0579994 0)
(0.772348 0.039501 0)
(0.474298 0.0196908 0)
(0.208592 0.00574606 0)
(0.0304209 0.000363745 0)
(0.14771 0.0011312 0)
(0.761873 0.0186714 0)
(1.03269 0.0327734 0)
(1.18002 0.0435058 0)
(1.2071 0.0531892 0)
(1.18582 0.0646908 0)
(1.15973 0.075721 0)
(1.13463 0.0858615 0)
(1.10926 0.0938628 0)
(1.08381 0.0983218 0)
(1.06303 0.0981239 0)
(1.05108 0.0947294 0)
(1.04867 0.0905949 0)
(1.05489 0.0858233 0)
(1.04574 0.0800709 0)
(0.954055 0.0660361 0)
(0.720164 0.043826 0)
(0.42188 0.0212294 0)
(0.174277 0.0060044 0)
(0.0226675 0.000362854 0)
(0.168963 0.00174284 0)
(0.812997 0.0268787 0)
(1.07431 0.0455245 0)
(1.20848 0.0597343 0)
(1.22897 0.0722145 0)
(1.20348 0.0855196 0)
(1.17351 0.0977363 0)
(1.1441 0.108218 0)
(1.11426 0.11565 0)
(1.0845 0.118673 0)
(1.06027 0.116531 0)
(1.04608 0.111373 0)
(1.04243 0.10594 0)
(1.04717 0.100213 0)
(1.02879 0.0924455 0)
(0.913967 0.0746723 0)
(0.660104 0.0480645 0)
(0.364472 0.0224238 0)
(0.138304 0.0060842 0)
(0.0149209 0.000344617 0)
(0.199845 0.00308316 0)
(0.882679 0.0404436 0)
(1.13054 0.0658551 0)
(1.24371 0.08419 0)
(1.2545 0.0993485 0)
(1.22278 0.113934 0)
(1.18757 0.126405 0)
(1.15286 0.136079 0)
(1.11796 0.14181 0)
(1.08357 0.14236 0)
(1.05585 0.137526 0)
(1.0395 0.130197 0)
(1.03473 0.123192 0)
(1.03747 0.116304 0)
(1.00637 0.105979 0)
(0.864342 0.0833506 0)
(0.592105 0.0516961 0)
(0.30357 0.0230627 0)
(0.102241 0.00593603 0)
(0.00764057 0.000301979 0)
(0.242008 0.00921324 6.54615e-21)
(0.974911 0.0672461 5.66375e-21)
(1.19904 0.100245 -2.00744e-21)
(1.2826 0.120617 0)
(1.28089 0.138239 -5.43182e-35)
(1.24151 0.152307 8.02517e-22)
(1.2003 0.163227 -1.49827e-21)
(1.1598 0.170679 0)
(1.11946 0.17363 3.19234e-35)
(1.08015 0.170895 -1.96144e-21)
(1.04872 0.162836 0)
(1.03007 0.153077 -2.37792e-21)
(1.02428 0.144592 -7.04875e-21)
(1.02445 0.137181 -3.34598e-21)
(0.974849 0.123255 -1.01282e-21)
(0.799725 0.0936237 -6.0308e-22)
(0.510883 0.0551856 0)
(0.237565 0.0235149 4.23138e-22)
(0.0662404 0.00585545 5.01177e-22)
(0.000831688 0.000246426 9.13885e-21)
(0.271242 0.0242301 4.02728e-21)
(1.05124 0.109561 1.08653e-22)
(1.2556 0.149235 5.00385e-22)
(1.3174 0.169568 0)
(1.30398 0.187467 -2.64792e-21)
(1.25745 0.199386 -3.07407e-21)
(1.21029 0.207992 -1.48459e-21)
(1.16396 0.212943 -5.45488e-21)
(1.11797 0.213105 0)
(1.0733 0.20719 8.32319e-21)
(1.03756 0.195959 8.34527e-21)
(1.01619 0.183739 2.49961e-21)
(1.00823 0.173281 9.20551e-21)
(1.00076 0.163099 1.30278e-20)
(0.926032 0.143558 0)
(0.713414 0.105089 1.84696e-20)
(0.416132 0.0591107 2.65395e-20)
(0.168928 0.0235593 2.95467e-20)
(0.0307296 0.00466458 -3.39011e-20)
(-0.0059452 -0.000403608 -6.45613e-22)
(0.272677 0.0408476 0)
(1.09976 0.16434 5.11239e-22)
(1.29378 0.209164 0)
(1.34442 0.229212 -2.94695e-21)
(1.32201 0.244431 0)
(1.2695 0.25247 -5.83566e-21)
(1.21675 0.25735 2.98887e-21)
(1.16483 0.258713 -1.07952e-20)
(1.1134 0.255271 -3.17708e-22)
(1.06357 0.245537 4.27608e-21)
(1.02377 0.230738 1.84519e-20)
(0.999775 0.215859 -4.86008e-23)
(0.989428 0.203232 -6.71023e-21)
(0.974527 0.189908 -1.23197e-20)
(0.882078 0.164403 1.46297e-20)
(0.652487 0.116718 -2.59627e-20)
(0.362281 0.0629686 -3.43929e-21)
(0.134905 0.0234725 0)
(0.0139265 0.00295887 -2.31266e-24)
(-0.00937908 -0.00126373 0)
(0.266294 0.0548486 1.90462e-21)
(1.12601 0.222789 -1.65419e-21)
(1.31732 0.273627 -2.20744e-21)
(1.36221 0.294188 1.26579e-21)
(1.33357 0.305763 -2.19342e-21)
(1.27658 0.3093 1.21263e-20)
(1.2192 0.309778 6.18885e-21)
(1.16242 0.306902 0)
(1.10615 0.299273 -2.10045e-20)
(1.05165 0.285277 0)
(1.00801 0.266654 -9.65195e-21)
(0.981388 0.248923 -1.20979e-20)
(0.968595 0.233995 -7.33172e-21)
(0.947742 0.217226 -8.97455e-21)
(0.84582 0.185805 0)
(0.61363 0.13009 0)
(0.335348 0.0695271 -2.24777e-20)
(0.120384 0.0249837 4.45306e-21)
(0.00635932 0.00152704 -2.60889e-21)
(-0.0114255 -0.0021973 -3.09043e-21)
(0.258728 0.0671921 2.90048e-21)
(1.13759 0.281193 0)
(1.33021 0.339119 2.65977e-21)
(1.37179 0.360665 3.13016e-21)
(1.33879 0.368594 5.38543e-21)
(1.27853 0.367635 0)
(1.21755 0.363588 5.85951e-21)
(1.1568 0.356277 1.18393e-20)
(1.09633 0.344238 1.06424e-20)
(1.03759 0.325794 2.02944e-20)
(0.990342 0.303107 0)
(0.961154 0.282335 -2.61435e-20)
(0.946005 0.265035 -1.5876e-20)
(0.920768 0.244988 -9.42382e-21)
(0.81535 0.208485 5.8251e-20)
(0.58903 0.145621 6.96074e-21)
(0.323918 0.0787466 3.27511e-20)
(0.118441 0.0282144 -1.5512e-19)
(0.00543015 0.000963744 9.19272e-20)
(-0.0122183 -0.00300652 -1.12203e-19)
(0.251514 0.0782995 6.00039e-21)
(1.1399 0.337664 -6.56709e-22)
(1.33548 0.403792 1.72398e-22)
(1.37484 0.426701 -1.70979e-21)
(1.33865 0.431168 -3.6916e-21)
(1.27592 0.425888 3.63687e-22)
(1.21208 0.417467 -6.38665e-21)
(1.14804 0.405818 1.21249e-20)
(1.08398 0.389387 -2.296e-20)
(1.02148 0.366435 0)
(0.970903 0.339713 -1.17667e-20)
(0.939235 0.315966 -3.23728e-22)
(0.921741 0.296243 -1.7451e-20)
(0.893451 0.273244 0)
(0.78869 0.232005 -1.26599e-20)
(0.572487 0.163195 -3.02091e-20)
(0.321584 0.0902987 8.07474e-20)
(0.123117 0.0334184 -7.95604e-20)
(0.00941086 0.00180185 1.13186e-19)
(-0.0116588 -0.00347019 -1.19108e-19)
(0.245461 0.088577 -1.04812e-22)
(1.13646 0.391545 1.61065e-21)
(1.33527 0.466621 2.86885e-21)
(1.3728 0.491121 -1.84826e-24)
(1.33419 0.492451 -1.73241e-21)
(1.26957 0.483114 0)
(1.20344 0.47057 -5.59383e-21)
(1.13666 0.454787 -1.26176e-20)
(1.06951 0.434123 -1.18482e-20)
(1.00362 0.40678 0)
(0.949994 0.376217 -1.21511e-20)
(0.915898 0.349475 -1.5294e-20)
(0.896182 0.327347 1.89956e-20)
(0.865634 0.30151 -1.16144e-20)
(0.763798 0.255919 -5.55659e-20)
(0.559071 0.18217 3.31673e-20)
(0.322426 0.103279 9.89016e-21)
(0.130785 0.0403296 0)
(0.0161391 0.00408264 -1.09978e-19)
(-0.0101589 -0.00353479 -4.09058e-21)
(0.240698 0.0983564 1.53622e-21)
(1.12957 0.442681 -2.29685e-21)
(1.33106 0.527054 -1.81141e-21)
(1.36689 0.553229 1.00396e-21)
(1.3264 0.551779 -5.08321e-21)
(1.26034 0.538727 9.51611e-21)
(1.19234 0.52237 1.21044e-20)
(1.12322 0.502724 -2.01504e-20)
(1.0533 0.478052 7.59477e-21)
(0.984327 0.446541 -5.00593e-20)
(0.927857 0.412163 -1.38999e-20)
(0.891514 0.382444 0)
(0.86978 0.35801 2.06795e-20)
(0.837527 0.329592 2.49411e-20)
(0.739086 0.279958 2.99887e-20)
(0.545881 0.201807 -3.61848e-20)
(0.323154 0.117063 -1.07419e-20)
(0.138466 0.0486055 1.25993e-20)
(0.0237617 0.00749189 0)
(-0.00814797 -0.00323365 -8.91997e-21)
(0.237107 0.107739 -2.11898e-20)
(1.12086 0.491144 1.22074e-20)
(1.32411 0.585046 2.2892e-21)
(1.3581 0.612666 -3.54551e-22)
(1.31608 0.608753 -1.47807e-21)
(1.24891 0.592343 -8.25056e-22)
(1.17937 0.572538 -1.33817e-20)
(1.1082 0.549339 -7.33456e-21)
(1.03581 0.52092 -2.06949e-20)
(0.964017 0.485454 6.33214e-23)
(0.904845 0.447287 -4.33845e-20)
(0.866411 0.414711 3.73141e-20)
(0.842865 0.388141 -2.28578e-20)
(0.809092 0.357164 2.76596e-20)
(0.71367 0.30377 0)
(0.531378 0.2214 -1.97361e-20)
(0.32131 0.131177 2.68717e-23)
(0.144426 0.0574899 -5.52594e-20)
(0.0307942 0.011548 -8.13388e-21)
(-0.00599986 -0.00267137 0)
(0.234585 0.116952 0)
(1.11131 0.537144 1.38018e-20)
(1.31523 0.640654 7.24302e-21)
(1.34721 0.669261 1.34234e-21)
(1.30391 0.66316 -2.92041e-21)
(1.23587 0.643751 0)
(1.16505 0.620857 -5.56632e-21)
(1.09211 0.594432 -2.14951e-22)
(1.01746 0.562565 4.44218e-20)
(0.942987 0.523334 -6.82455e-21)
(0.881222 0.481533 -3.14236e-20)
(0.840863 0.446291 1.9323e-20)
(0.815641 0.417573 -4.48233e-22)
(0.78044 0.383934 2.94274e-20)
(0.687238 0.32678 1.82852e-20)
(0.515041 0.239969 -4.268e-20)
(0.31623 0.144791 5.06711e-20)
(0.147221 0.066064 1.50366e-20)
(0.0359551 0.015591 6.21691e-20)
(-0.00411293 -0.00201684 -1.68134e-19)
(0.233052 0.12612 -6.50354e-21)
(1.10156 0.580868 9.0399e-21)
(1.305 0.693463 -6.37144e-21)
(1.33486 0.722962 -3.09455e-21)
(1.29045 0.714901 0)
(1.22174 0.692827 -3.22355e-21)
(1.14984 0.66719 1.92527e-20)
(1.07531 0.637873 1.58726e-20)
(0.998572 0.602864 0)
(0.92151 0.560098 -9.91802e-20)
(0.857252 0.514907 8.52828e-20)
(0.815046 0.477035 0)
(0.788204 0.445909 2.68506e-20)
(0.751688 0.409484 -4.48916e-22)
(0.66018 0.348254 -5.85672e-20)
(0.496435 0.256817 2.29529e-20)
(0.308008 0.156937 0)
(0.146329 0.0735132 8.13124e-20)
(0.038601 0.018949 0)
(-0.00274136 -0.00145036 -7.9785e-20)
(0.232327 0.135289 7.64441e-21)
(1.09201 0.622491 1.13091e-20)
(1.29384 0.743511 -6.45749e-21)
(1.32157 0.773785 0)
(1.27616 0.763961 -8.41843e-22)
(1.20692 0.739527 0)
(1.1341 0.711461 -1.81006e-20)
(1.05814 0.679582 -6.97021e-21)
(0.979443 0.64176 7.67142e-21)
(0.89986 0.595736 -4.91186e-20)
(0.833124 0.547375 8.75349e-21)
(0.789065 0.506673 0)
(0.760701 0.472935 -5.73748e-20)
(0.722834 0.433555 4.40843e-22)
(0.632366 0.367876 0)
(0.475802 0.271437 2.68396e-22)
(0.296633 0.166857 7.43235e-20)
(0.142264 0.0790096 -7.0376e-20)
(0.0387108 0.0211164 2.08329e-20)
(-0.00198063 -0.00110163 0)
(0.232071 0.144358 0)
(1.08285 0.662101 1.33772e-20)
(1.28217 0.790891 8.80975e-21)
(1.30771 0.821794 -5.07972e-22)
(1.2614 0.810366 1.01092e-21)
(1.19174 0.783846 -7.08958e-21)
(1.11813 0.75365 7.01688e-21)
(1.04088 0.71952 -8.57971e-21)
(0.960329 0.679217 3.47161e-20)
(0.878249 0.630274 -7.85436e-20)
(0.808967 0.578845 -7.99785e-22)
(0.762998 0.535105 -2.48877e-20)
(0.733193 0.498683 9.33325e-20)
(0.693881 0.456008 -5.20908e-22)
(0.603941 0.385342 -4.56235e-20)
(0.453314 0.283455 -8.14618e-20)
(0.282504 0.174211 0)
(0.13533 0.0823242 0)
(0.0368537 0.0219524 2.2512e-20)
(-0.00174908 -0.00102172 -1.33737e-20)
(0.232383 0.153439 1.04397e-20)
(1.07427 0.699593 -3.01597e-20)
(1.27028 0.835692 -9.47755e-21)
(1.2936 0.86707 0)
(1.24646 0.854167 -3.13863e-22)
(1.17647 0.825809 -4.83419e-21)
(1.10219 0.793761 1.58553e-20)
(1.02376 0.757681 3.26809e-20)
(0.941436 0.715228 4.47806e-20)
(0.856872 0.663727 -6.39561e-20)
(0.784907 0.609293 -7.35442e-20)
(0.736906 0.562465 6.66188e-20)
(0.705661 0.523249 0)
(0.664713 0.47661 -2.07135e-20)
(0.574848 0.400274 -4.94179e-20)
(0.428897 0.292529 -5.86154e-20)
(0.266044 0.178673 -6.94586e-20)
(0.125908 0.0833187 2.05761e-20)
(0.0333783 0.0216053 -1.21316e-20)
(-0.00187428 -0.00114518 5.91654e-23)
(0.232993 0.162337 0)
(1.06631 0.735479 0)
(1.25834 0.878006 5.21983e-22)
(1.27945 0.909713 0)
(1.23157 0.895448 -6.40976e-21)
(1.16133 0.865472 1.85066e-21)
(1.08647 0.831821 0)
(1.00698 0.794076 3.67128e-21)
(0.922952 0.749799 7.42254e-20)
(0.835901 0.6961 -1.47281e-19)
(0.761062 0.638791 0)
(0.710838 0.588997 -4.29455e-20)
(0.677967 0.546606 -6.13686e-22)
(0.635199 0.495106 -4.78227e-22)
(0.54518 0.412359 5.28875e-20)
(0.403333 0.298455 -2.91067e-23)
(0.247714 0.180176 -1.49713e-19)
(0.114635 0.0820424 4.42858e-20)
(0.0286917 0.0201151 1.3138e-20)
(-0.00223009 -0.00142784 0)
(0.233699 0.171095 -4.11781e-20)
(1.05874 0.769716 -1.99313e-20)
(1.24644 0.917894 -2.68121e-20)
(1.26542 0.949825 2.92185e-20)
(1.2169 0.934277 -1.46429e-20)
(1.14647 0.902895 0)
(1.07113 0.867874 8.68557e-21)
(0.990671 0.828731 -8.35878e-21)
(0.905031 0.782946 7.90166e-22)
(0.815485 0.727404 1.09438e-20)
(0.737569 0.667484 9.5254e-20)
(0.684833 0.6149 -1.50387e-20)
(0.649975 0.568698 -5.77073e-20)
(0.605179 0.511321 -2.42108e-20)
(0.514929 0.421349 2.87781e-20)
(0.377085 0.301081 8.19092e-24)
(0.228133 0.178633 4.03602e-20)
(0.102341 0.0786424 -9.53564e-20)
(0.0235557 0.0177634 1.13129e-19)
(-0.00269225 -0.00181482 1.6701e-20)
(0.234213 0.179629 1.55627e-20)
(1.05157 0.802391 -1.11869e-20)
(1.23472 0.955469 1.2891e-21)
(1.25166 0.9875 1.80811e-20)
(1.20259 0.970763 4.52333e-21)
(1.13203 0.938149 -1.71453e-21)
(1.0563 0.90197 1.9939e-21)
(0.974968 0.861665 -3.4439e-20)
(0.887803 0.81467 -8.10005e-20)
(0.795756 0.757636 -8.74955e-20)
(0.714585 0.695528 0)
(0.658934 0.640285 -6.63986e-20)
(0.621568 0.589559 8.33854e-20)
(0.574414 0.525214 0)
(0.484033 0.426897 -6.16833e-20)
(0.350652 0.299974 3.68101e-20)
(0.20856 0.173887 -4.34264e-20)
(0.0903169 0.0734781 -5.13456e-20)
(0.0186478 0.0149407 -9.11706e-20)
(-0.00314891 -0.00223208 -7.19869e-20)
(0.235077 0.188025 -1.75593e-20)
(1.04465 0.833486 1.19819e-20)
(1.22325 0.990789 2.7528e-20)
(1.23827 1.02282 2.60147e-20)
(1.18872 1.005 -8.85432e-21)
(1.1181 0.971323 9.75208e-22)
(1.04206 0.934159 7.03707e-21)
(0.959955 0.89292 -3.46885e-20)
(0.871353 0.844989 -4.77802e-20)
(0.776841 0.78682 9.12262e-20)
(0.692246 0.72303 2.09355e-19)
(0.63321 0.665212 0)
(0.59269 0.609401 0)
(0.542556 0.536906 -2.79313e-20)
(0.452119 0.428563 0)
(0.324215 0.294262 7.91931e-20)
(0.190317 0.165183 9.34401e-20)
(0.0805574 0.0665553 0)
(0.0151932 0.0120427 0)
(-0.00349108 -0.00260582 7.74069e-20)
(0.23559 0.195954 1.98994e-20)
(1.03799 0.862988 1.58172e-20)
(1.21209 1.02397 2.00109e-20)
(1.2253 1.05592 -2.46432e-20)
(1.17537 1.0371 -1.09883e-20)
(1.10473 1.00249 -3.68457e-21)
(1.02848 0.964503 -9.1793e-21)
(0.945697 0.922521 -6.24155e-23)
(0.855765 0.873904 -1.03125e-21)
(0.758844 0.814963 -9.87079e-22)
(0.670702 0.750039 1.0787e-19)
(0.607766 0.689728 0)
(0.563351 0.628586 8.47559e-20)
(0.509203 0.546674 5.96603e-20)
(0.418428 0.426168 1.44408e-19)
(0.297254 0.282641 4.27157e-20)
(0.174761 0.149967 -5.03347e-20)
(0.0773412 0.0550041 -2.96247e-20)
(0.0186308 0.00788042 0)
(-0.00235706 -0.00262206 8.32229e-20)
(0.236447 0.203901 -4.48999e-20)
(1.03157 0.891048 0)
(1.20123 1.05504 2.33762e-20)
(1.21278 1.08688 -2.079e-20)
(1.16259 1.06715 1.41067e-20)
(1.09197 1.03174 8.67562e-21)
(1.01559 0.993054 1.5202e-20)
(0.932234 0.950502 -3.05091e-21)
(0.841081 0.901425 0)
(0.741852 0.842048 -1.00017e-19)
(0.650093 0.776551 -2.34084e-19)
(0.582753 0.713931 9.77579e-21)
(0.533648 0.647504 1.17164e-19)
(0.474067 0.554974 0)
(0.381877 0.420301 9.7663e-20)
(0.267439 0.264107 0)
(0.160078 0.122492 0)
(0.0860737 0.024026 -3.2074e-20)
(0.0535307 -0.0114798 0)
(0.026953 0.00650411 2.23122e-20)
(0.236859 0.211268 -5.00835e-20)
(1.02534 0.917852 0)
(1.19067 1.08423 3.88203e-20)
(1.20066 1.11594 0)
(1.15033 1.09543 -8.321e-21)
(1.07976 1.05936 0)
(1.00334 1.02013 3.2022e-22)
(0.919473 0.977201 4.64819e-21)
(0.827181 0.927915 5.9799e-21)
(0.725695 0.868467 -1.0934e-19)
(0.630234 0.802982 6.95426e-21)
(0.557907 0.738483 7.92165e-20)
(0.503144 0.66696 1.14514e-19)
(0.436249 0.562454 1.55448e-20)
(0.340723 0.412691 7.6728e-20)
(0.229933 0.239742 0)
(0.134935 0.0789946 1.06342e-19)
(0.0746908 -0.0177063 -6.24773e-20)
(0.0325373 0.0575607 7.29065e-20)
(-0.0381629 0.454792 -8.66297e-20)
(0.237212 0.21847 4.14568e-20)
(1.01909 0.943293 6.30076e-20)
(1.18033 1.11184 0)
(1.18881 1.14354 1.0591e-21)
(1.13839 1.12251 2.40426e-20)
(1.06782 1.08604 -2.38422e-20)
(0.991408 1.04652 3.70823e-21)
(0.906999 1.00356 0)
(0.813532 0.954481 3.83861e-20)
(0.709695 0.895541 -5.56673e-21)
(0.610204 0.830822 0)
(0.531956 0.765164 0)
(0.469876 0.688429 1.02563e-19)
(0.393349 0.569572 -4.81695e-20)
(0.291958 0.405458 -7.77948e-20)
(0.18073 0.212844 0)
(0.0769834 0.0907366 5.41206e-20)
(0.00681807 0.465272 -6.29373e-20)
(0.0317556 1.9234 -3.52499e-20)
(0.0584601 2.82307 -4.32494e-20)
(0.237184 0.225099 -3.11622e-20)
(1.01287 0.967542 -8.09122e-20)
(1.17023 1.13788 2.3079e-20)
(1.17721 1.16956 1.97494e-20)
(1.12686 1.1482 0)
(1.05626 1.1115 -1.89743e-20)
(0.980007 1.07193 2.70646e-21)
(0.895006 1.02916 -2.10578e-21)
(0.800416 0.980606 5.77012e-21)
(0.69424 0.922666 1.03238e-19)
(0.590621 0.859367 1.17646e-19)
(0.50587 0.793808 8.84201e-20)
(0.434656 0.711788 1.03233e-19)
(0.346926 0.575344 -1.13224e-19)
(0.242065 0.402394 -1.17541e-19)
(0.118623 0.26144 0)
(0.0412281 0.876782 0)
(0.0890182 2.57829 2.98796e-20)
(0.0916124 3.21036 0)
(0.0927367 3.38892 7.76588e-20)
(0.239939 0.23126 0)
(1.00695 0.990969 0)
(1.16008 1.16219 0)
(1.16566 1.19385 5.86498e-21)
(1.11538 1.17226 2.20464e-20)
(1.04487 1.13561 -1.67007e-20)
(0.96906 1.09625 7.99481e-22)
(0.883428 1.05386 -1.96874e-21)
(0.787768 1.00612 4.62817e-20)
(0.67932 0.949679 -1.88391e-21)
(0.571567 0.888393 2.31194e-19)
(0.480028 0.82454 -1.02601e-20)
(0.397398 0.737464 1.24693e-20)
(0.299304 0.57803 1.64166e-20)
(0.181787 0.420539 -4.36111e-22)
(0.0943486 1.01163 3.49231e-22)
(0.127033 2.7591 -1.57694e-19)
(0.131821 3.30104 -5.95945e-20)
(0.121779 3.42428 3.13367e-20)
(0.110865 3.44422 -3.52036e-20)
(0.162781 0.176594 1.8991e-20)
(0.997005 1.0163 0)
(1.14972 1.18501 -4.7019e-20)
(1.15456 1.2168 -5.34183e-20)
(1.10443 1.19517 4.99362e-20)
(1.03433 1.15883 1.85337e-20)
(0.958422 1.11943 4.95815e-22)
(0.872317 1.07768 1.8075e-20)
(0.775665 1.03109 -3.71211e-20)
(0.66514 0.976688 0)
(0.553312 0.917968 1.13015e-19)
(0.454975 0.857156 -7.17805e-20)
(0.359139 0.768079 0)
(0.244139 0.582196 1.57582e-20)
(0.134967 0.782269 3.78495e-20)
(0.141464 2.56033 -4.30987e-20)
(0.190093 3.32996 4.90124e-20)
(0.172099 3.43609 2.62441e-20)
(0.142686 3.45467 2.99568e-20)
(0.123145 3.46319 4.71424e-20)
(0.275297 0.270112 -3.67576e-20)
(0.980633 1.02746 0)
(1.13217 1.21142 5.04637e-20)
(1.14047 1.24867 5.82668e-20)
(1.08735 1.229 -5.4843e-20)
(1.01669 1.19307 -2.36615e-20)
(0.939605 1.15522 -6.99914e-21)
(0.85295 1.11479 1.4649e-21)
(0.754904 1.07047 3.33944e-20)
(0.641517 1.02029 8.59525e-20)
(0.524329 0.967741 6.21256e-21)
(0.414827 0.912959 6.30697e-20)
(0.290502 0.807804 1.16121e-20)
(0.206924 0.955596 -1.50275e-20)
(0.212355 2.43384 -3.41331e-20)
(0.263108 3.33581 3.32363e-20)
(0.246085 3.46329 -3.62432e-20)
(0.211648 3.48145 -2.09599e-20)
(0.17774 3.50546 -1.82131e-20)
(0.132689 3.49973 -2.69856e-21)
(0.265806 0.2692 0)
(0.978274 1.05081 1.43154e-20)
(1.12385 1.23534 -1.0289e-20)
(1.12976 1.27245 -6.81572e-21)
(1.07653 1.25247 -3.73434e-20)
(1.00589 1.21675 2.38912e-20)
(0.928501 1.17914 6.22144e-21)
(0.841615 1.13958 1.18611e-21)
(0.742977 1.09679 -3.36388e-20)
(0.628188 1.0496 -2.86778e-21)
(0.508031 1.00185 -2.00011e-19)
(0.392645 0.950521 9.02321e-21)
(0.277303 0.88129 -1.09052e-20)
(0.241545 1.55728 -1.36738e-20)
(0.303072 3.14488 3.66836e-21)
(0.316655 3.4664 3.20025e-22)
(0.274859 3.51308 5.08752e-20)
(0.24076 3.5353 2.5002e-20)
(0.194992 3.55469 -6.51483e-21)
(0.14508 3.55064 -1.23585e-20)
(0.251872 0.267409 3.63922e-20)
(0.975036 1.0768 9.69031e-20)
(1.11519 1.26137 -2.94211e-20)
(1.11868 1.29784 -2.57442e-20)
(1.06527 1.27741 0)
(0.994729 1.24173 3.96382e-20)
(0.917304 1.20442 1.21625e-20)
(0.83044 1.16567 8.84368e-22)
(0.731517 1.1245 -3.80629e-21)
(0.615843 1.08053 -7.41191e-20)
(0.493588 1.03819 -9.05638e-20)
(0.373925 0.989957 -7.28285e-20)
(0.276258 1.02401 -8.09723e-20)
(0.305502 2.31098 8.42063e-20)
(0.382508 3.39454 7.01408e-20)
(0.355113 3.52399 0)
(0.306814 3.55941 0)
(0.27005 3.59215 -4.80197e-21)
(0.225689 3.63697 0)
(0.156426 3.62068 -6.16084e-21)
(0.24206 0.26952 -5.40967e-20)
(0.969872 1.10374 -8.18046e-20)
(1.10518 1.28869 0)
(1.10639 1.32411 1.28516e-21)
(1.0528 1.30304 -3.91613e-20)
(0.982518 1.26731 6.22561e-20)
(0.905376 1.23031 9.68664e-21)
(0.818758 1.19229 -1.13527e-22)
(0.719805 1.15272 -2.06858e-20)
(0.603663 1.11195 3.47148e-21)
(0.480163 1.07521 0)
(0.356369 1.03325 0)
(0.30024 1.3116 -7.21642e-20)
(0.38266 2.9748 2.92634e-20)
(0.446891 3.49496 3.60392e-20)
(0.394077 3.5588 0)
(0.351959 3.61454 1.28388e-21)