/*--------------------------------*- C++ -*----------------------------------*\
  =========                 |
  \\      /  F ield         | OpenFOAM: The Open Source CFD Toolbox
   \\    /   O peration     | Website:  https://openfoam.org
    \\  /    A nd           | Version:  6
     \\/     M anipulation  |
\*---------------------------------------------------------------------------*/
FoamFile
{
    version     2.0;
    format      ascii;
    class       volScalarField;
    location    "9";
    object      Ma;
}
// * * * * * * * * * * * * * * * * * * * * * * * * * * * * * * * * * * * * * //

dimensions      [0 0 0 0 0 0 0];

internalField   nonuniform List<scalar> 
5250
(
2.99999
2.99997
2.9999
2.99979
2.99935
2.99872
2.99623
2.99259
2.97895
2.95573
2.88508
2.72449
2.38003
1.61272
0.547089
0.0153651
0.138499
0.294834
0.339154
0.30534
0.236522
0.166378
0.119551
0.07943
0.0508651
2.99999
2.99997
2.9999
2.99979
2.99935
2.99873
2.99624
2.99261
2.97902
2.9559
2.88545
2.7255
2.3819
1.61624
0.552729
0.0250354
0.147746
0.301608
0.343319
0.308867
0.241745
0.175332
0.131947
0.0958508
0.0728673
2.99999
2.99997
2.9999
2.99979
2.99935
2.99874
2.99627
2.99267
2.97917
2.95626
2.88623
2.72779
2.38598
1.62455
0.566239
0.0428709
0.164764
0.311708
0.350122
0.31576
0.252236
0.193074
0.156384
0.127298
0.110273
2.99999
2.99997
2.9999
2.99979
2.99936
2.99875
2.99632
2.99276
2.97939
2.95684
2.88747
2.73159
2.39261
1.63828
0.588105
0.0678986
0.187232
0.323852
0.359703
0.327077
0.269506
0.219106
0.189881
0.167536
0.155618
2.99999
2.99997
2.9999
2.9998
2.99937
2.99878
2.99638
2.99289
2.97971
2.95766
2.88927
2.73692
2.40226
1.65775
0.617966
0.100078
0.213861
0.337581
0.37192
0.342541
0.292272
0.250693
0.228184
0.211957
0.204298
2.99999
2.99998
2.9999
2.9998
2.99939
2.99881
2.99646
2.99306
2.98019
2.95874
2.89184
2.74358
2.41612
1.68342
0.656718
0.140106
0.244075
0.353032
0.386629
0.361907
0.319785
0.286876
0.271221
0.260641
0.257228
2.99999
2.99998
2.99991
2.99981
2.99941
2.99884
2.99658
2.99329
2.98079
2.96009
2.89508
2.75179
2.4335
1.71497
0.703825
0.187431
0.277461
0.369835
0.40385
0.384898
0.351893
0.327479
0.319151
0.315643
0.318562
2.99999
2.99998
2.99991
2.99982
2.99943
2.99889
2.99671
2.99356
2.98153
2.96175
2.89905
2.76173
2.45454
1.75299
0.760228
0.242528
0.311986
0.387123
0.423224
0.411083
0.388034
0.372868
0.373101
0.3785
0.393607
3
2.99998
2.99992
2.99983
2.99946
2.99895
2.99688
2.9939
2.98243
2.96376
2.90379
2.77371
2.47959
1.79942
0.828769
0.30592
0.344973
0.40639
0.444134
0.439926
0.426812
0.422933
0.433035
0.454093
0.496455
3
2.99998
2.99992
2.99984
2.99951
2.99904
2.99718
2.99438
2.98412
2.96626
2.91126
2.78614
2.50918
1.85478
0.898787
0.375876
0.374687
0.430198
0.467788
0.47142
0.468019
0.475028
0.500029
0.54957
0.657021
3
2.99998
2.99995
2.99983
2.99965
2.99896
2.99793
2.99418
2.9876
2.9672
2.92065
2.8104
2.51413
1.96765
0.938171
0.438855
0.393167
0.444541
0.487549
0.501311
0.508991
0.528498
0.573209
0.662352
0.817532
3
2.99998
2.99995
2.99984
2.99969
2.99906
2.99814
2.99471
2.98886
2.97024
2.92863
2.82791
2.56036
2.0592
1.07264
0.530307
0.413092
0.45509
0.503023
0.529207
0.5481
0.579934
0.639051
0.744191
0.894222
3
2.99999
2.99995
2.99989
2.99965
2.99931
2.99799
2.99598
2.9887
2.97581
2.9364
2.84578
2.6424
2.12088
1.26991
0.633303
0.441301
0.473233
0.524512
0.558874
0.585755
0.625862
0.690607
0.788693
0.910558
3
2.99999
2.99995
2.9999
2.99969
2.9994
2.99819
2.99648
2.98973
2.97933
2.9434
2.87319
2.69515
2.26792
1.49144
0.742111
0.485438
0.511209
0.55927
0.594874
0.622602
0.66364
0.726631
0.812188
0.914632
3
2.99999
2.99996
2.99992
2.99974
2.99949
2.99848
2.99704
2.9914
2.98277
2.95248
2.89711
2.74413
2.4094
1.71305
0.847664
0.532526
0.561325
0.603432
0.637265
0.661645
0.697124
0.754072
0.826607
0.913834
3
3
2.99997
2.99993
2.99978
2.99957
2.99872
2.99751
2.99275
2.98554
2.9599
2.91297
2.78452
2.48671
1.87864
0.92866
0.572591
0.601424
0.640536
0.675486
0.697361
0.726453
0.774449
0.837271
0.911548
3
3
2.99998
2.99995
2.99982
2.99965
2.99894
2.99795
2.99401
2.98804
2.96713
2.92694
2.81992
2.55302
2.04335
1.076
0.662081
0.630811
0.666303
0.698538
0.723992
0.750284
0.789773
0.842781
0.906211
3
3
2.99998
2.99996
2.99985
2.99971
2.99913
2.99831
2.99506
2.99019
2.97269
2.9406
2.8508
2.63182
2.19778
1.29677
0.783183
0.656561
0.680119
0.710042
0.740964
0.767077
0.800083
0.844454
0.8965
3
3
2.99999
2.99997
2.99989
2.99977
2.99931
2.99866
2.99608
2.99226
2.97827
2.95365
2.88197
2.71241
2.3645
1.56702
0.932871
0.705756
0.706069
0.728461
0.757116
0.781214
0.808748
0.844301
0.883669
3.00001
3
2.99999
2.99998
2.99991
2.99982
2.99946
2.99896
2.99693
2.99401
2.9828
2.96493
2.9075
2.78698
2.50864
1.89667
1.09368
0.770891
0.745061
0.757168
0.777483
0.79598
0.817008
0.840936
0.868454
3.00001
3
2.99999
2.99998
2.99993
2.99986
2.99959
2.99919
2.99762
2.99537
2.98664
2.97301
2.92744
2.83299
2.61311
2.07358
1.27066
0.842285
0.771615
0.780128
0.794614
0.809889
0.821922
0.833567
0.8498
3.00001
3
3
2.99999
2.99995
2.9999
2.99968
2.99938
2.99817
2.99645
2.98971
2.97932
2.94412
2.87244
2.6993
2.26629
1.5266
0.958265
0.799239
0.795447
0.804873
0.816347
0.819783
0.822157
0.830442
3.00001
3.00001
3
2.99999
2.99996
2.99992
2.99976
2.99954
2.99863
2.99733
2.99226
2.98457
2.95746
2.9089
2.7715
2.48221
1.84147
1.10867
0.843228
0.813405
0.813601
0.815552
0.8125
0.808901
0.812832
3.00001
3.00001
3
3
2.99998
2.99995
2.99983
2.99966
2.99898
2.99801
2.99425
2.98848
2.96826
2.93106
2.82922
2.59113
2.09263
1.26051
0.889996
0.817577
0.809333
0.804304
0.799525
0.795052
0.797811
3.00001
3.00001
3
3
2.99999
2.99995
2.9999
2.99969
2.99938
2.9982
2.99644
2.9899
2.97919
2.94462
2.87121
2.69731
2.26993
1.52514
0.984153
0.817231
0.790168
0.784291
0.779545
0.778419
0.7851
3.00001
3.00001
3.00001
3
2.99999
2.99997
2.99993
2.99977
2.99954
2.99864
2.99732
2.99231
2.98447
2.95743
2.90786
2.7682
2.47732
1.81701
1.10795
0.82625
0.770867
0.764221
0.760552
0.763719
0.775932
3.00001
3.00001
3.00001
3
2.99999
2.99998
2.99993
2.99986
2.99958
2.99917
2.9976
2.99522
2.98654
2.97177
2.92566
2.82363
2.59624
2.03749
1.23576
0.821725
0.730351
0.729573
0.733872
0.747442
0.769547
3.00001
3.00001
3.00001
3
3
2.99999
2.99995
2.99989
2.99967
2.99936
2.99809
2.99625
2.98916
2.97789
2.9402
2.86269
2.67417
2.21646
1.42948
0.857133
0.676342
0.680543
0.698372
0.72741
0.761775
3.00001
3.00001
3.00001
3
3
2.99999
2.99997
2.9999
2.9998
2.9994
2.9988
2.99657
2.99295
2.98103
2.95687
2.89292
2.73353
2.40832
1.7159
0.913003
0.629345
0.633161
0.66454
0.708308
0.754621
3.00001
3.00001
3.00001
3.00001
3
3
2.99997
2.99994
2.9998
2.99959
2.99879
2.99758
2.993
2.98554
2.9606
2.90998
2.77841
2.46727
1.81797
0.915866
0.558302
0.559219
0.607598
0.669987
0.735479
3.00001
3.00001
3.00001
3.00001
3
2.99999
2.99998
2.99993
2.99986
2.99957
2.99915
2.99748
2.99497
2.98562
2.96946
2.91848
2.80346
2.54393
1.91641
1.02138
0.529638
0.475555
0.530851
0.612626
0.69966
3.00001
3.00001
3.00001
3.00001
3
3
2.99999
2.99994
2.99988
2.99962
2.99926
2.99776
2.99559
2.98718
2.97325
2.9277
2.82681
2.59732
2.01248
1.13437
0.530281
0.379192
0.442008
0.553928
0.660059
3.00001
3.00001
3.00001
3.00001
3
3
2.99999
2.99995
2.9999
2.99967
2.99936
2.99808
2.99617
2.98898
2.97661
2.93752
2.84821
2.64572
2.12033
1.27428
0.551239
0.30016
0.377175
0.52126
0.635377
3.00001
3.00001
3.00001
3.00001
3
3
2.99999
2.99997
2.99989
2.99978
2.99935
2.99868
2.99632
2.99195
2.97877
2.94788
2.87296
2.67351
2.28049
1.46049
0.588202
0.262044
0.35562
0.513781
0.620795
3.00001
3.00001
3.00001
3.00001
3
3
2.99999
2.99996
2.99992
2.99975
2.99949
2.9985
2.99697
2.99147
2.98157
2.95115
2.8813
2.71904
2.3126
1.55255
0.555313
0.195673
0.326445
0.491372
0.595204
3.00001
3.00001
3.00001
3.00001
3
3
2.99999
2.99997
2.9999
2.9998
2.9994
2.99881
2.99652
2.99295
2.98051
2.95659
2.88932
2.72409
2.38393
1.6262
0.606609
0.185052
0.317212
0.468842
0.569411
3.00001
3.00001
3.00001
3.00001
3
3
2.99999
2.99997
2.9999
2.9998
2.9994
2.99884
2.99652
2.99316
2.98032
2.95876
2.89163
2.74045
2.41072
1.67118
0.66546
0.198734
0.314872
0.448713
0.547273
3.00001
3.00001
3.00001
3.00001
3
3
2.99999
2.99997
2.99991
2.99982
2.99944
2.9989
2.99677
2.99351
2.98182
2.96042
2.89754
2.74792
2.42861
1.70486
0.703966
0.216448
0.312736
0.431994
0.527086
3.00001
3.00001
3.00001
3.00001
3.00001
3
2.99999
2.99997
2.99993
2.99979
2.99958
2.99876
2.99748
2.99294
2.98464
2.95959
2.90067
2.76594
2.41312
1.7379
0.700016
0.219062
0.300899
0.409959
0.50165
3.00001
3.00001
3.00001
3.00001
3.00001
3
2.99999
2.99998
2.99992
2.99984
2.99953
2.99904
2.99729
2.99415
2.98438
2.96229
2.90617
2.76059
2.45978
1.75283
0.760567
0.252937
0.301997
0.389685
0.477635
3.00001
3.00001
3.00001
3.00001
3.00001
3
3
2.99997
2.99994
2.99981
2.99962
2.99887
2.99769
2.99352
2.98572
2.96229
2.90663
2.77855
2.44205
1.78734
0.763459
0.26179
0.288983
0.36583
0.452918
3.00001
3.00001
3.00001
3.00001
3.00001
3
2.99999
2.99998
2.99993
2.99985
2.99956
2.9991
2.99744
2.99454
2.98533
2.96485
2.91221
2.77523
2.49148
1.79865
0.820245
0.287626
0.280492
0.342239
0.430391
3.00001
3.00001
3.00001
3.00001
3.00001
3
3
2.99998
2.99995
2.99982
2.99964
2.99892
2.99784
2.99371
2.98673
2.96396
2.91357
2.79181
2.47493
1.86039
0.819713
0.294246
0.250475
0.30647
0.410064
3.00001
3.00001
3.00001
3.00001
3.00001
3
3
2.99998
2.99995
2.99983
2.99965
2.99893
2.9979
2.99369
2.98728
2.96388
2.91963
2.7993
2.50123
1.9085
0.852777
0.315523
0.21177
0.271378
0.401422
3.00001
3.00001
3.00001
3.00001
3.00001
3
3
2.99998
2.99995
2.99984
2.99968
2.99902
2.99807
2.99417
2.98825
2.96633
2.92538
2.81116
2.53134
1.96108
0.923175
0.347935
0.165751
0.245354
0.406396
3.00001
3.00001
3.00001
3.00001
3.00001
3
3
2.99998
2.99996
2.99986
2.99972
2.99914
2.99829
2.99489
2.98952
2.97025
2.93176
2.82738
2.56622
2.02351
1.0365
0.383541
0.118269
0.226717
0.417394
3.00001
3.00001
3.00001
3.00001
3.00001
3
3
2.99999
2.99995
2.9999
2.99969
2.99937
2.99812
2.99621
2.98915
2.97632
2.93671
2.84224
2.63107
2.06965
1.18475
0.379403
0.0640343
0.188806
0.413175
3.00001
3.00001
3.00001
3.00001
3.00001
3
3
2.99999
2.99995
2.9999
2.99969
2.99939
2.99815
2.99638
2.98927
2.97804
2.93943
2.85888
2.66071
2.16399
1.30708
0.349548
0.0912649
0.164768
0.410782
3.00001
3.00001
3.00001
3.00001
3.00001
3
3
2.99999
2.99996
2.99991
2.99971
2.99942
2.99827
2.99658
2.99006
2.9793
2.94375
2.86651
2.68141
2.22061
1.38893
0.321279
0.125208
0.155178
0.408756
3.00001
3.00001
3.00001
3.00001
3.00001
3
3
2.99999
2.99997
2.99989
2.99977
2.9993
2.99863
2.99599
2.9918
2.97762
2.94831
2.87178
2.67365
2.28142
1.42122
0.351109
0.105074
0.164354
0.413219
0.948008
0.928597
0.478985
0.295449
0.149244
0.191259
0.258568
0.314213
0.357605
0.391592
0.413597
0.422659
0.421826
0.41737
0.412189
0.404444
0.393089
0.378769
0.362163
0.343687
0.32375
0.302564
0.280344
0.257431
0.233476
0.208629
0.182782
0.15659
0.130032
0.103708
0.0773643
0.0514037
0.0262316
0.012121
0.0355466
0.0578987
0.0800801
0.102351
0.124876
0.147049
0.167991
0.189243
0.21099
0.23279
0.253915
0.274717
0.294871
0.314853
0.334514
0.353818
0.372676
0.391483
0.409667
0.427919
0.445774
0.46334
0.480822
0.497903
0.514903
0.531656
0.548064
0.56462
0.580602
0.596792
0.612444
0.628251
0.643651
0.658982
0.674235
0.689014
0.703995
0.71837
0.73286
0.746976
0.760887
0.774671
0.788014
0.801314
0.814078
0.826818
0.838934
0.851053
0.862528
0.873873
0.884722
0.895186
0.905308
0.914805
0.924038
0.93243
0.940455
0.947533
0.953864
0.959109
0.963162
0.965767
0.967028
0.967725
0.96833
0.97239
0.962958
0.898272
0.650904
0.291512
0.198922
0.137525
0.0583076
0.0636562
0.103035
0.138879
0.16218
0.169765
0.162325
0.156893
0.152474
0.145836
0.134623
0.121992
0.106899
0.0901402
0.0717197
0.0529533
0.0349552
0.0250622
0.0351653
0.0549608
0.0743011
0.0954416
0.116355
0.13809
0.159718
0.181585
0.203123
0.224269
0.244501
0.264008
0.283459
0.302839
0.322222
0.341271
0.359715
0.377786
0.396622
0.415422
0.433811
0.451827
0.469303
0.486734
0.503829
0.520574
0.537324
0.55351
0.569857
0.585613
0.601383
0.616952
0.632173
0.647504
0.662323
0.67732
0.691808
0.706519
0.720773
0.735123
0.749295
0.763183
0.77725
0.790762
0.804554
0.817837
0.831214
0.84433
0.857249
0.870107
0.882581
0.895066
0.907063
0.91912
0.930582
0.942136
0.953075
0.963988
0.974403
0.984579
0.9944
1.00377
1.01289
1.02137
1.02963
1.03716
1.04426
1.05063
1.0562
1.06087
1.06438
1.06657
1.06748
1.06804
1.06838
1.07223
0.960106
0.936944
0.832635
0.669916
0.556663
0.470267
0.387511
0.318559
0.263708
0.222851
0.194073
0.178717
0.154663
0.145299
0.151633
0.157405
0.163039
0.171709
0.183052
0.196684
0.211713
0.228096
0.245655
0.263923
0.282423
0.300597
0.318725
0.336611
0.354809
0.372851
0.390825
0.408714
0.426388
0.443611
0.460333
0.476584
0.492562
0.508622
0.524469
0.540439
0.555291
0.570319
0.585677
0.601468
0.616894
0.631756
0.646603
0.660982
0.675458
0.689514
0.703574
0.717405
0.731048
0.7447
0.758034
0.771526
0.784605
0.797876
0.810718
0.823674
0.836405
0.848995
0.861729
0.87399
0.886673
0.898719
0.91121
0.923107
0.935319
0.947056
0.95899
0.970554
0.982203
0.993612
1.0049
1.01609
1.02696
1.03779
1.04819
1.05852
1.06846
1.0782
1.08765
1.09673
1.10561
1.11405
1.12224
1.13
1.13738
1.14436
1.15072
1.15657
1.16155
1.16571
1.16868
1.17028
1.17077
1.17106
1.17099
1.17442
0.973842
0.986541
0.946108
0.869416
0.794917
0.723781
0.661041
0.604476
0.560362
0.528
0.505307
0.488691
0.477699
0.469525
0.468431
0.46918
0.469281
0.470967
0.475546
0.482522
0.491497
0.502398
0.514687
0.527874
0.541414
0.554783
0.567892
0.580923
0.593697
0.606505
0.61908
0.631934
0.644282
0.656775
0.668621
0.680421
0.692061
0.703632
0.715575
0.727074
0.738393
0.74913
0.760518
0.772242
0.78416
0.79573
0.807119
0.818414
0.829568
0.840752
0.851794
0.862968
0.873927
0.88513
0.896009
0.907166
0.918038
0.929059
0.940021
0.950859
0.961922
0.97258
0.983664
0.99421
1.00522
1.01573
1.02661
1.03706
1.0478
1.05812
1.06868
1.07887
1.08917
1.09923
1.10922
1.11914
1.12884
1.13852
1.14793
1.15726
1.16638
1.17527
1.18402
1.19248
1.20073
1.20876
1.21643
1.2239
1.23082
1.23742
1.2433
1.24861
1.25302
1.25662
1.25901
1.26005
1.26013
1.26019
1.25965
1.26282
0.979575
1.01196
1.00617
0.970229
0.925946
0.880009
0.836656
0.80199
0.776215
0.760016
0.750081
0.742586
0.738415
0.735205
0.735703
0.738152
0.739654
0.739106
0.739572
0.741638
0.745413
0.750425
0.756349
0.762818
0.769407
0.776076
0.782548
0.789128
0.7956
0.802289
0.808944
0.815775
0.822629
0.829503
0.836436
0.843243
0.850341
0.857429
0.865023
0.872494
0.879883
0.88698
0.894555
0.902803
0.911433
0.920308
0.928932
0.937874
0.946458
0.955525
0.964234
0.973501
0.982459
0.991865
1.0011
1.01053
1.02001
1.0294
1.03909
1.04846
1.05828
1.06768
1.07754
1.08698
1.09682
1.10631
1.11612
1.12564
1.13535
1.14489
1.15445
1.16407
1.17353
1.18312
1.1924
1.20176
1.21083
1.21989
1.2287
1.2374
1.24591
1.25424
1.26235
1.27034
1.27793
1.28545
1.29241
1.29921
1.3054
1.31123
1.31639
1.32096
1.32468
1.32745
1.32905
1.32941
1.32908
1.3287
1.32747
1.33012
0.975498
1.01635
1.0284
1.01521
0.991407
0.964213
0.941755
0.925473
0.917929
0.915619
0.917805
0.920619
0.923039
0.924391
0.925665
0.928072
0.930003
0.929261
0.926913
0.925528
0.925163
0.925665
0.926918
0.928491
0.930192
0.932005
0.933897
0.935945
0.938126
0.940564
0.943239
0.946091
0.949283
0.952561
0.956263
0.959906
0.964061
0.968307
0.973136
0.978087
0.983037
0.987825
0.993038
0.998889
1.00549
1.01242
1.01951
1.0267
1.0339
1.04132
1.04877
1.05652
1.06433
1.07235
1.08055
1.08877
1.09735
1.10569
1.11452
1.12298
1.132
1.14061
1.14973
1.1585
1.16765
1.17652
1.18564
1.19458
1.20371
1.21281
1.22184
1.2309
1.23969
1.24865
1.25725
1.26603
1.27453
1.2831
1.2915
1.29983
1.30805
1.31612
1.32402
1.3317
1.33911
1.34617
1.35295
1.35919
1.36505
1.3703
1.3749
1.3788
1.38173
1.38369
1.38423
1.38378
1.38303
1.38202
1.37961
1.38141
0.964372
1.00461
1.02628
1.02775
1.01845
1.00712
1.00028
0.999116
1.00394
1.01237
1.02267
1.03233
1.04013
1.04513
1.04779
1.05019
1.0528
1.05375
1.05215
1.04916
1.04687
1.04529
1.04444
1.04396
1.04365
1.04343
1.04323
1.04298
1.04272
1.04255
1.04258
1.04277
1.04329
1.04423
1.04548
1.04709
1.04915
1.05152
1.05456
1.05796
1.06142
1.06503
1.06881
1.07351
1.07871
1.08492
1.09097
1.0976
1.10385
1.11059
1.11722
1.12423
1.13132
1.13856
1.14607
1.15354
1.16143
1.16913
1.1773
1.18521
1.19357
1.20173
1.21024
1.21863
1.22722
1.23581
1.2445
1.25335
1.26197
1.27083
1.27933
1.28813
1.29655
1.30521
1.31355
1.32198
1.3302
1.33833
1.34634
1.3542
1.36187
1.36941
1.37662
1.38371
1.39037
1.3968
1.4028
1.40838
1.41347
1.41797
1.42184
1.4249
1.42712
1.42814
1.42798
1.42733
1.42642
1.42481
1.42151
1.42282
0.946863
0.984879
1.00724
1.0177
1.02071
1.02222
1.02722
1.03716
1.05125
1.0675
1.08427
1.09941
1.11212
1.12122
1.12688
1.13022
1.13319
1.13535
1.1357
1.13344
1.13041
1.12774
1.12571
1.12414
1.12273
1.12137
1.11999
1.11859
1.11718
1.11586
1.11468
1.11375
1.11319
1.11296
1.11309
1.11362
1.1146
1.11588
1.11775
1.12007
1.12256
1.12521
1.12796
1.13144
1.13566
1.14082
1.14616
1.15186
1.15755
1.16351
1.16965
1.176
1.18268
1.18939
1.1965
1.20352
1.21099
1.21832
1.22609
1.23371
1.24169
1.24958
1.25774
1.26587
1.27419
1.28254
1.29086
1.2992
1.3075
1.31583
1.32413
1.33243
1.34069
1.34893
1.35711
1.36523
1.37328
1.38127
1.38909
1.39688
1.40436
1.41183
1.41886
1.42581
1.4323
1.43854
1.4443
1.44963
1.45433
1.45842
1.46167
1.46411
1.46535
1.46549
1.46471
1.46378
1.46221
1.45952
1.4545
1.45433
0.922564
0.956642
0.979988
0.996013
1.00756
1.02012
1.0347
1.05282
1.07341
1.09514
1.11629
1.13554
1.15192
1.16469
1.17351
1.17925
1.18306
1.18621
1.18845
1.18917
1.18772
1.18522
1.18266
1.18052
1.1785
1.17682
1.17519
1.1734
1.17144
1.1694
1.16743
1.16572
1.16435
1.16328
1.16261
1.16221
1.16228
1.16277
1.16374
1.16524
1.16704
1.16892
1.17083
1.17344
1.17682
1.18121
1.18578
1.19074
1.19581
1.20118
1.20677
1.21261
1.21877
1.2251
1.23175
1.23851
1.24555
1.2527
1.26006
1.26757
1.27522
1.28301
1.29093
1.29897
1.30701
1.31507
1.32312
1.33123
1.33927
1.34741
1.35546
1.36356
1.37161
1.37961
1.3876
1.39546
1.40331
1.41103
1.41863
1.4261
1.4334
1.44043
1.44732
1.45381
1.46006
1.46587
1.47126
1.47605
1.48031
1.48365
1.48638
1.48775
1.48828
1.48762
1.48677
1.48522
1.48262
1.47859
1.47279
1.47206
0.896762
0.924235
0.948117
0.968474
0.987916
1.00782
1.03017
1.05419
1.07915
1.10411
1.12791
1.14973
1.16862
1.18441
1.1964
1.20531
1.21181
1.21641
1.22021
1.22259
1.22392
1.22352
1.22146
1.21903
1.21685
1.21476
1.21277
1.21064
1.20856
1.20652
1.20464
1.2028
1.20114
1.19972
1.19851
1.19777
1.19739
1.19748
1.19803
1.19906
1.20039
1.20181
1.20336
1.20562
1.20867
1.21262
1.21685
1.22151
1.22644
1.23167
1.23716
1.2429
1.24888
1.25511
1.26153
1.26817
1.27497
1.28199
1.28915
1.29657
1.30408
1.31185
1.3196
1.32746
1.33529
1.34318
1.35109
1.35903
1.36702
1.37502
1.38306
1.39107
1.39907
1.40703
1.41487
1.42274
1.43034
1.43806
1.44536
1.45277
1.45972
1.46663
1.47306
1.47932
1.48502
1.49037
1.49505
1.49916
1.50238
1.50489
1.50622
1.50647
1.50591
1.50493
1.50344
1.50063
1.49642
1.49185
1.48591
1.48557
0.87059
0.893457
0.917507
0.94159
0.966344
0.992044
1.0187
1.04616
1.07369
1.10063
1.12626
1.14981
1.17077
1.18904
1.20401
1.2163
1.22558
1.23306
1.2388
1.24284
1.24589
1.24725
1.24778
1.24665
1.24447
1.24232
1.23994
1.23791
1.23584
1.23399
1.2321
1.23039
1.2288
1.22749
1.22641
1.22563
1.22523
1.2252
1.2256
1.22646
1.22751
1.22878
1.23023
1.23247
1.23525
1.2388
1.24269
1.24695
1.25164
1.25659
1.2619
1.26737
1.27316
1.27911
1.28536
1.29172
1.29834
1.30507
1.31206
1.31921
1.32661
1.33408
1.34164
1.34926
1.3569
1.36463
1.37236
1.38015
1.38795
1.39578
1.40362
1.41145
1.41926
1.42699
1.43472
1.44225
1.44981
1.45707
1.46434
1.47129
1.47813
1.4846
1.49086
1.49668
1.50214
1.50695
1.51126
1.51463
1.51736
1.51885
1.51934
1.51896
1.51819
1.51659
1.5139
1.5096
1.50459
1.49998
1.49464
1.49453
0.845403
0.86608
0.890921
0.918098
0.946517
0.975747
1.00519
1.03449
1.06323
1.09064
1.11676
1.14109
1.16358
1.18376
1.20149
1.2167
1.22926
1.23992
1.24816
1.25499
1.25977
1.26292
1.26459
1.26526
1.26495
1.26331
1.26113
1.25896
1.25687
1.2551
1.2535
1.25206
1.2508
1.24968
1.24871
1.24812
1.24787
1.24797
1.24854
1.24932
1.2504
1.25153
1.25321
1.25538
1.25821
1.26156
1.26527
1.26945
1.27396
1.2789
1.28407
1.28955
1.29523
1.3012
1.30738
1.31377
1.32031
1.32702
1.33393
1.34103
1.34831
1.35564
1.36312
1.37055
1.3781
1.38558
1.39319
1.40074
1.40842
1.41605
1.42373
1.43139
1.43898
1.4466
1.45402
1.46146
1.46864
1.47577
1.48259
1.48928
1.49557
1.50166
1.50728
1.51255
1.51716
1.5212
1.52439
1.52678
1.52808
1.52839
1.52805
1.52705
1.52536
1.52213
1.51791
1.51317
1.50822
1.50427
1.49999
1.50026
0.825471
0.845639
0.87126
0.900062
0.930314
0.960791
0.991238
1.02082
1.04985
1.0775
1.10423
1.12935
1.1531
1.17492
1.19493
1.21257
1.22802
1.24105
1.25192
1.26079
1.26756
1.27268
1.27592
1.27779
1.27863
1.27889
1.27793
1.27618
1.27432
1.27256
1.27107
1.2699
1.26902
1.26828
1.26778
1.26752
1.26753
1.26802
1.26866
1.26964
1.27064
1.27207
1.27394
1.27624
1.27904
1.28222
1.28585
1.28983
1.29423
1.29902
1.30408
1.30942
1.31493
1.32079
1.32679
1.33309
1.33946
1.34609
1.35279
1.35977
1.36678
1.37403
1.38126
1.38863
1.39596
1.40338
1.4108
1.41825
1.42577
1.43321
1.44076
1.44813
1.45563
1.46291
1.47025
1.47737
1.48442
1.49122
1.49785
1.50413
1.51014
1.51574
1.52094
1.52548
1.52944
1.5325
1.5348
1.5359
1.5362
1.53598
1.53492
1.53293
1.52939
1.52534
1.52048
1.51613
1.51194
1.50907
1.50608
1.50685
0.810371
0.83146
0.858117
0.887762
0.918477
0.949157
0.97918
1.00837
1.03672
1.0641
1.09065
1.11601
1.14039
1.16325
1.18467
1.20417
1.22172
1.23693
1.25017
1.26105
1.27028
1.27729
1.28272
1.28633
1.2886
1.28991
1.29066
1.29051
1.28943
1.28816
1.28696
1.28607
1.28546
1.28509
1.28498
1.28508
1.28565
1.28641
1.28735
1.2885
1.28983
1.29172
1.29378
1.2963
1.29909
1.30228
1.30584
1.3097
1.31406
1.31866
1.32374
1.32887
1.33445
1.34005
1.34612
1.35217
1.35858
1.36496
1.37162
1.37832
1.38523
1.39225
1.39935
1.40654
1.41374
1.42098
1.42823
1.43552
1.44278
1.45012
1.45735
1.46461
1.47176
1.47886
1.48584
1.49268
1.49935
1.50579
1.51193
1.51777
1.5232
1.52829
1.53264
1.53644
1.53929
1.5413
1.54222
1.54234
1.54208
1.54101
1.5382
1.53484
1.53019
1.5259
1.5214
1.51791
1.51495
1.51326
1.51147
1.51278
0.801388
0.824799
0.852691
0.882678
0.913041
0.943075
0.972173
1.0005
1.02785
1.05463
1.08061
1.10588
1.13023
1.1535
1.17548
1.19601
1.21475
1.23161
1.24656
1.25947
1.27054
1.27972
1.28714
1.2928
1.29698
1.29973
1.30162
1.30302
1.30377
1.30372
1.30317
1.3026
1.30227
1.30219
1.3024
1.30308
1.30404
1.30506
1.30645
1.30787
1.30967
1.31162
1.31392
1.31655
1.31946
1.32282
1.32632
1.33033
1.33443
1.33912
1.34382
1.34903
1.35421
1.35991
1.36562
1.37173
1.37788
1.38419
1.3906
1.39707
1.40377
1.41048
1.4174
1.42432
1.43135
1.43837
1.44544
1.45247
1.45955
1.46656
1.47356
1.4805
1.48733
1.4941
1.50069
1.50711
1.51333
1.51918
1.52481
1.52988
1.53476
1.5388
1.5423
1.54494
1.5466
1.54739
1.54741
1.54719
1.54569
1.54291
1.53879
1.53465
1.53013
1.52632
1.52292
1.52068
1.51906
1.51841
1.51769
1.51959
0.796609
0.822893
0.852067
0.882086
0.911663
0.940551
0.968433
0.995632
1.02203
1.04795
1.07323
1.09804
1.12211
1.14534
1.16755
1.1885
1.20805
1.22605
1.24226
1.25678
1.26944
1.28043
1.28975
1.29758
1.30395
1.30886
1.31268
1.31547
1.3177
1.31928
1.32018
1.32057
1.32073
1.32101
1.32151
1.32252
1.3235
1.32478
1.32625
1.32795
1.32982
1.33191
1.33434
1.33697
1.34003
1.34323
1.34691
1.35071
1.35502
1.35945
1.36435
1.36932
1.37465
1.3801
1.38582
1.39178
1.3978
1.40404
1.41018
1.41659
1.42292
1.4295
1.43604
1.44274
1.44945
1.45621
1.46299
1.46975
1.47653
1.48323
1.48993
1.49648
1.50298
1.50927
1.51542
1.52133
1.52694
1.53219
1.53711
1.54153
1.5454
1.54842
1.55075
1.55198
1.55255
1.55247
1.55202
1.55012
1.54663
1.54269
1.53822
1.53408
1.53034
1.52746
1.5255
1.52437
1.52407
1.52419
1.52409
1.52643
0.796255
0.825693
0.855957
0.885752
0.914328
0.94173
0.968199
0.994124
1.01944
1.04434
1.06873
1.09276
1.11616
1.13893
1.16083
1.18173
1.20154
1.22003
1.23718
1.25283
1.26701
1.2798
1.29104
1.30113
1.3096
1.31695
1.32297
1.32769
1.33153
1.33465
1.33701
1.33867
1.33985
1.3406
1.3413
1.34219
1.34316
1.34439
1.34591
1.34768
1.34962
1.35187
1.35434
1.3572
1.36029
1.36373
1.36744
1.37139
1.37566
1.38011
1.38491
1.38983
1.39509
1.4004
1.40606
1.41178
1.41774
1.42369
1.42981
1.43592
1.44217
1.44845
1.45482
1.46126
1.46767
1.47421
1.48061
1.48717
1.49351
1.49999
1.5062
1.5125
1.51844
1.52441
1.52989
1.53531
1.5401
1.54474
1.54879
1.55229
1.55498
1.55685
1.55777
1.5581
1.55786
1.55708
1.55445
1.551
1.54656
1.54235
1.53817
1.53477
1.53215
1.5305
1.52979
1.52978
1.53002
1.53087
1.53142
1.5339
0.796019
0.829331
0.86095
0.890644
0.918403
0.944835
0.970221
0.994897
1.019
1.04282
1.06626
1.08939
1.11207
1.13417
1.15558
1.17629
1.19605
1.21494
1.23275
1.24936
1.26485
1.27914
1.29218
1.30411
1.31466
1.3241
1.33201
1.33898
1.34461
1.34925
1.35324
1.35629
1.35855
1.36026
1.36172
1.36286
1.36413
1.36548
1.3671
1.36892
1.37096
1.37328
1.3758
1.37878
1.38185
1.38539
1.38893
1.39295
1.39697
1.40142
1.40595
1.41079
1.41585
1.42105
1.4266
1.43214
1.43796
1.44373
1.44967
1.45561
1.46162
1.46769
1.47384
1.47998
1.48624
1.49239
1.49869
1.50478
1.51098
1.51694
1.52293
1.52861
1.53426
1.53946
1.54454
1.54905
1.55324
1.55703
1.56004
1.56243
1.56374
1.56439
1.56443
1.56407
1.56265
1.55945
1.55571
1.55113
1.54692
1.54293
1.5397
1.53741
1.53599
1.53558
1.53576
1.53613
1.53693
1.53875
1.54012
1.54272
0.796462
0.83314
0.865588
0.894811
0.921693
0.947173
0.971559
0.995371
1.01858
1.04151
1.06402
1.0862
1.10801
1.12929
1.15017
1.1705
1.19031
1.20948
1.22787
1.24544
1.26213
1.27783
1.29255
1.30618
1.31861
1.32989
1.33998
1.34884
1.35649
1.36304
1.36845
1.3732
1.37689
1.37985
1.38203
1.3838
1.38537
1.38692
1.38856
1.39029
1.39233
1.3945
1.39709
1.39983
1.40297
1.40624
1.40982
1.41361
1.41762
1.42195
1.42639
1.43121
1.4361
1.44138
1.44667
1.45216
1.45769
1.46332
1.46902
1.47471
1.48051
1.48626
1.49215
1.49799
1.50392
1.50982
1.5157
1.52153
1.52728
1.5329
1.53841
1.54365
1.54876
1.55338
1.55775
1.56153
1.56503
1.56767
1.5697
1.57061
1.57098
1.57083
1.57024
1.56807
1.56445
1.56038
1.55589
1.55163
1.54787
1.54478
1.54271
1.54149
1.54119
1.54152
1.54195
1.54291
1.54444
1.5471
1.54883
1.55158
0.787818
0.829114
0.863228
0.892905
0.919857
0.94514
0.969264
0.992712
1.01548
1.03787
1.05977
1.08133
1.1025
1.12341
1.14403
1.16432
1.18431
1.20382
1.22282
1.24121
1.2589
1.27583
1.29198
1.30708
1.32137
1.33444
1.34644
1.35713
1.36661
1.37491
1.38207
1.38836
1.39356
1.39777
1.40113
1.40378
1.40598
1.40792
1.40977
1.41163
1.4136
1.41572
1.41808
1.42063
1.42353
1.42663
1.43006
1.43371
1.43763
1.4418
1.44618
1.4508
1.45562
1.46064
1.46584
1.4711
1.47652
1.48198
1.48754
1.49314
1.49877
1.50441
1.51006
1.51569
1.52132
1.52693
1.53242
1.53793
1.54317
1.54837
1.55323
1.5579
1.56219
1.56604
1.56951
1.57249
1.57481
1.57631
1.57694
1.57709
1.57679
1.5756
1.57278
1.56891
1.56462
1.56026
1.55608
1.55254
1.5497
1.54785
1.54686
1.54667
1.54706
1.54757
1.54849
1.55028
1.55245
1.55547
1.55733
1.5602
0.764657
0.811371
0.848007
0.879413
0.907822
0.934298
0.959332
0.98331
1.00641
1.02892
1.05088
1.0725
1.0938
1.1149
1.13575
1.15644
1.17687
1.19702
1.21679
1.23606
1.25478
1.27287
1.29016
1.30664
1.32218
1.33677
1.35037
1.36283
1.3742
1.38424
1.39303
1.40063
1.40723
1.41281
1.41744
1.42133
1.42448
1.42715
1.42935
1.43138
1.43324
1.43517
1.43722
1.4395
1.44208
1.4448
1.44801
1.45128
1.45506
1.45886
1.46311
1.46745
1.47207
1.47691
1.48187
1.48711
1.49236
1.49783
1.50326
1.50891
1.5145
1.52019
1.52582
1.53138
1.53695
1.54237
1.54776
1.55301
1.55801
1.56289
1.56729
1.57147
1.57497
1.57814
1.58067
1.58265
1.58354
1.58389
1.58369
1.58318
1.58115
1.57787
1.57375
1.56936
1.56504
1.56108
1.55769
1.5551
1.55341
1.55262
1.55266
1.55306
1.55362
1.55456
1.5561
1.55857
1.56095
1.5641
1.56605
1.569
0.731569
0.781473
0.82056
0.85428
0.885212
0.914
0.940925
0.9664
0.990665
1.01406
1.03681
1.0591
1.08105
1.10277
1.12421
1.14552
1.16659
1.18741
1.20793
1.22795
1.24749
1.26638
1.28458
1.30202
1.31861
1.33429
1.34902
1.3627
1.37524
1.3867
1.39697
1.40606
1.41425
1.42154
1.4276
1.43261
1.43664
1.43986
1.44245
1.44462
1.44652
1.44839
1.45017
1.45227
1.4544
1.45699
1.4597
1.46283
1.46616
1.4698
1.47377
1.47796
1.48251
1.48714
1.49212
1.49722
1.50259
1.50808
1.51363
1.51936
1.52506
1.53091
1.53665
1.54241
1.54804
1.55354
1.559
1.56419
1.56922
1.57394
1.57818
1.58193
1.58513
1.58764
1.58955
1.59032
1.59061
1.59042
1.58948
1.58683
1.58312
1.57881
1.57441
1.57014
1.56631
1.56311
1.56066
1.55915
1.55826
1.55859
1.55905
1.55972
1.56065
1.56233
1.56442
1.5673
1.56982
1.57313
1.57517
1.57826
0.704942
0.750757
0.787766
0.821597
0.853635
0.884214
0.91318
0.940695
0.966826
0.991766
1.01585
1.03931
1.0623
1.08495
1.10726
1.12937
1.15117
1.17271
1.19393
1.21461
1.23474
1.25424
1.2731
1.29123
1.30862
1.32522
1.3409
1.35571
1.36954
1.38229
1.39404
1.40464
1.41413
1.42267
1.43021
1.43652
1.4417
1.44589
1.44923
1.45183
1.454
1.45585
1.45767
1.45947
1.46149
1.4637
1.46622
1.469
1.4721
1.47551
1.47921
1.48333
1.48767
1.49234
1.49722
1.50235
1.50771
1.51322
1.51885
1.5246
1.53037
1.53627
1.54209
1.54793
1.55361
1.5592
1.56456
1.56979
1.57458
1.57912
1.58292
1.58627
1.58883
1.5907
1.59163
1.59201
1.59189
1.59048
1.58755
1.58371
1.57953
1.57527
1.57137
1.5678
1.56507
1.56283
1.56175
1.56104
1.56153
1.56224
1.56309
1.56414
1.56567
1.56811
1.57059
1.57375
1.57642
1.57992
1.58209
1.58531
0.680385
0.719689
0.753495
0.786543
0.818783
0.84956
0.878824
0.906662
0.933499
0.959566
0.984975
1.00978
1.03403
1.05779
1.0811
1.10401
1.12654
1.14869
1.17052
1.19177
1.21252
1.23267
1.25228
1.27127
1.2896
1.3072
1.32404
1.33999
1.35506
1.36918
1.38229
1.39438
1.4053
1.41505
1.42385
1.43148
1.4378
1.44302
1.44722
1.45065
1.45343
1.45577
1.45782
1.45983
1.46186
1.46406
1.46645
1.46913
1.47219
1.47558
1.47931
1.48337
1.4877
1.49231
1.49715
1.50223
1.50756
1.51309
1.51876
1.52456
1.5304
1.53632
1.54222
1.54802
1.55372
1.55915
1.56441
1.56933
1.57385
1.57785
1.58115
1.58385
1.58567
1.58689
1.58735
1.58707
1.58519
1.58226
1.5786
1.57481
1.57083
1.56726
1.56396
1.56159
1.55968
1.55874
1.55851
1.55903
1.55998
1.56107
1.56227
1.56396
1.56608
1.56905
1.57177
1.57522
1.57813