/*--------------------------------*- C++ -*----------------------------------*\
  =========                 |
  \\      /  F ield         | OpenFOAM: The Open Source CFD Toolbox
   \\    /   O peration     | Website:  https://openfoam.org
    \\  /    A nd           | Version:  6
     \\/     M anipulation  |
\*---------------------------------------------------------------------------*/
FoamFile
{
    version     2.0;
    format      ascii;
    class       volVectorField;
    location    "9";
    object      U;
}
// * * * * * * * * * * * * * * * * * * * * * * * * * * * * * * * * * * * * * //

dimensions      [0 1 -1 0 0 0 0];

internalField   nonuniform List<vector> 
5250
(
(3 2.34984e-09 0)
(2.99999 1.79622e-08 0)
(2.99997 5.56193e-08 0)
(2.99992 1.66668e-07 0)
(2.9998 3.94996e-07 0)
(2.99955 1.04522e-06 0)
(2.99882 2.34181e-06 0)
(2.99741 6.14877e-06 0)
(2.99301 1.33413e-05 0)
(2.98516 3.72406e-05 0)
(2.95735 7.85584e-05 0)
(2.9006 0.000228632 0)
(2.72384 0.0005647 0)
(2.17377 0.0014655 0)
(0.915502 0.0045672 0)
(-0.0223356 0.012509 0)
(0.22989 0.0200142 0)
(0.487967 0.0261961 0)
(0.559694 0.0295442 0)
(0.505228 0.0319722 0)
(0.391701 0.0330679 0)
(0.274957 0.0358729 0)
(0.195302 0.0407747 0)
(0.123819 0.047597 0)
(0.0642613 0.0556056 0)
(3 7.24052e-09 0)
(2.99999 5.57473e-08 0)
(2.99997 1.71925e-07 0)
(2.99992 5.1607e-07 0)
(2.9998 1.2187e-06 0)
(2.99955 3.23094e-06 0)
(2.99883 7.21127e-06 0)
(2.99742 1.90563e-05 0)
(2.99304 4.07785e-05 0)
(2.98522 0.000117046 0)
(2.95751 0.000240349 0)
(2.90102 0.000730435 0)
(2.72479 0.00178967 0)
(2.17717 0.0047074 0)
(0.924474 0.0149008 0)
(-0.0130637 0.0396168 0)
(0.238744 0.0597475 0)
(0.494323 0.0731164 0)
(0.561748 0.0787201 0)
(0.505393 0.0818656 0)
(0.393154 0.0822573 0)
(0.279056 0.0863511 0)
(0.199309 0.0933553 0)
(0.12443 0.100579 0)
(0.0623653 0.104496 0)
(3 1.2633e-08 0)
(2.99999 9.75432e-08 0)
(2.99997 3.00249e-07 0)
(2.99992 9.01826e-07 0)
(2.9998 2.1252e-06 0)
(2.99955 5.63986e-06 0)
(2.99883 1.25548e-05 0)
(2.99744 3.33671e-05 0)
(2.9931 7.04637e-05 0)
(2.98533 0.000208003 0)
(2.95785 0.000413976 0)
(2.90195 0.00131523 0)
(2.72691 0.00320115 0)
(2.18513 0.00849939 0)
(0.946002 0.0271211 0)
(0.0103191 0.0706986 0)
(0.254285 0.102869 0)
(0.501693 0.120693 0)
(0.563474 0.12953 0)
(0.505126 0.136001 0)
(0.394768 0.140196 0)
(0.284796 0.149162 0)
(0.205367 0.160632 0)
(0.126329 0.17069 0)
(0.0603768 0.173805 0)
(3 1.8867e-08 0)
(2.99999 1.4558e-07 0)
(2.99997 4.48247e-07 0)
(2.99992 1.34581e-06 0)
(2.9998 3.17223e-06 0)
(2.99956 8.41294e-06 0)
(2.99885 1.87291e-05 0)
(2.99747 4.97571e-05 0)
(2.99319 0.000104797 0)
(2.98551 0.000310959 0)
(2.9584 0.000608883 0)
(2.90345 0.00196512 0)
(2.73035 0.00474997 0)
(2.1982 0.0127879 0)
(0.980793 0.04015 0)
(0.0471567 0.102891 0)
(0.274899 0.146432 0)
(0.50931 0.165999 0)
(0.566257 0.178191 0)
(0.507341 0.189147 0)
(0.399979 0.19989 0)
(0.29439 0.214978 0)
(0.215049 0.231811 0)
(0.131235 0.246456 0)
(0.0598306 0.25243 0)
(3 2.63077e-08 0)
(2.99999 2.03231e-07 0)
(2.99997 6.25944e-07 0)
(2.99992 1.88097e-06 0)
(2.9998 4.44198e-06 0)
(2.99956 1.17837e-05 0)
(2.99887 2.63261e-05 0)
(2.99751 6.94968e-05 0)
(2.99331 0.000148897 0)
(2.98576 0.000427083 0)
(2.95919 0.000862375 0)
(2.90556 0.00266321 0)
(2.73528 0.00643765 0)
(2.21653 0.0179429 0)
(1.02804 0.0533581 0)
(0.0968547 0.135916 0)
(0.299952 0.19026 0)
(0.516333 0.210559 0)
(0.569955 0.225634 0)
(0.512508 0.240911 0)
(0.409233 0.258826 0)
(0.307579 0.280515 0)
(0.228215 0.30323 0)
(0.140279 0.323478 0)
(0.0622901 0.334101 0)
(3 3.46362e-08 0)
(2.99999 2.67628e-07 0)
(2.99997 8.24543e-07 0)
(2.99993 2.47747e-06 0)
(2.99981 5.8574e-06 0)
(2.99957 1.55228e-05 0)
(2.9989 3.47548e-05 0)
(2.99757 9.1155e-05 0)
(2.99348 0.000197848 0)
(2.98611 0.000550939 0)
(2.96022 0.00114488 0)
(2.90831 0.00339008 0)
(2.74214 0.00821222 0)
(2.24009 0.0233104 0)
(1.08748 0.0662873 0)
(0.160577 0.169284 0)
(0.32987 0.234766 0)
(0.524139 0.255009 0)
(0.57546 0.272644 0)
(0.521221 0.292147 0)
(0.423281 0.317385 0)
(0.325318 0.346654 0)
(0.245779 0.376886 0)
(0.153255 0.404758 0)
(0.067357 0.421774 0)
(3 4.40934e-08 0)
(2.99999 3.40147e-07 0)
(2.99997 1.04864e-06 0)
(2.99993 3.14437e-06 0)
(2.99982 7.43454e-06 0)
(2.99959 1.96292e-05 0)
(2.99893 4.39292e-05 0)
(2.99765 0.000114503 0)
(2.99369 0.000248923 0)
(2.98655 0.000684442 0)
(2.96149 0.00142966 0)
(2.91171 0.0041656 0)
(2.75063 0.0100602 0)
(2.26852 0.0284161 0)
(1.15852 0.0792868 0)
(0.23677 0.202862 0)
(0.364008 0.279703 0)
(0.531684 0.298797 0)
(0.582643 0.319084 0)
(0.533752 0.342947 0)
(0.44295 0.375932 0)
(0.349102 0.41405 0)
(0.269805 0.453926 0)
(0.172998 0.492707 0)
(0.0768571 0.521101 0)
(3 5.63976e-08 0)
(2.99999 4.34064e-07 0)
(2.99997 1.33876e-06 0)
(2.99993 3.99857e-06 0)
(2.99982 9.44235e-06 0)
(2.9996 2.47612e-05 0)
(2.99898 5.52697e-05 0)
(2.99774 0.000142726 0)
(2.99396 0.00030891 0)
(2.9871 0.000840551 0)
(2.96304 0.00174481 0)
(2.9158 0.00505664 0)
(2.76078 0.0120142 0)
(2.30207 0.0340784 0)
(1.24145 0.0937019 0)
(0.324235 0.239112 0)
(0.401334 0.322496 0)
(0.53861 0.341739 0)
(0.591726 0.364791 0)
(0.550375 0.393048 0)
(0.469036 0.433615 0)
(0.380819 0.482289 0)
(0.303008 0.535293 0)
(0.203403 0.589929 0)
(0.0943163 0.641186 0)
(3 8.04541e-08 0)
(2.99999 6.10761e-07 0)
(2.99997 1.89242e-06 0)
(2.99994 5.6149e-06 0)
(2.99983 1.3365e-05 0)
(2.99963 3.47518e-05 0)
(2.99903 7.84736e-05 0)
(2.99786 0.000197254 0)
(2.99427 0.000444763 0)
(2.98775 0.00109576 0)
(2.96492 0.00246148 0)
(2.92058 0.00619862 0)
(2.77288 0.0149002 0)
(2.34155 0.0404663 0)
(1.33972 0.107779 0)
(0.421399 0.281568 0)
(0.440352 0.357026 0)
(0.547279 0.382978 0)
(0.603229 0.408635 0)
(0.571081 0.44272 0)
(0.502098 0.489107 0)
(0.423117 0.550535 0)
(0.350003 0.618098 0)
(0.254653 0.698273 0)
(0.129335 0.797622 0)
(3 -2.13576e-08 0)
(2.99999 1.11415e-06 0)
(2.99997 1.51127e-06 0)
(2.99994 9.5359e-06 0)
(2.99985 1.152e-05 0)
(2.99966 5.96851e-05 0)
(2.99911 6.63283e-05 0)
(2.99805 0.000364558 0)
(2.9947 0.000289269 0)
(2.98879 0.00237295 0)
(2.9672 0.000504967 0)
(2.92657 0.0147942 0)
(2.78665 0.00386398 0)
(2.38887 0.0747911 0)
(1.44166 0.115516 0)
(0.5238 0.331234 0)
(0.477132 0.390506 0)
(0.564359 0.421279 0)
(0.619759 0.448075 0)
(0.596645 0.489025 0)
(0.542916 0.541078 0)
(0.477362 0.613234 0)
(0.417376 0.700244 0)
(0.345941 0.823108 0)
(0.199348 1.03655 0)
(3 -1.52747e-08 0)
(2.99999 1.0422e-06 0)
(2.99998 1.47002e-06 0)
(2.99994 8.97515e-06 0)
(2.99987 1.11914e-05 0)
(2.99967 5.63487e-05 0)
(2.99928 6.51652e-05 0)
(2.99805 0.000346599 0)
(2.99594 0.000294479 0)
(2.98795 0.00230631 0)
(2.97483 0.000662317 0)
(2.92422 0.014545 0)
(2.81014 0.00536642 0)
(2.47383 0.0730039 0)
(1.45982 0.138766 0)
(0.61181 0.383292 0)
(0.488 0.424683 0)
(0.571744 0.451273 0)
(0.635439 0.4774 0)
(0.626137 0.524986 0)
(0.588812 0.584291 0)
(0.545849 0.664579 0)
(0.517982 0.769915 0)
(0.527767 0.919297 0)
(0.52903 1.16113 0)
(3 2.06127e-07 0)
(2.99999 3.09264e-07 0)
(2.99998 2.8823e-06 0)
(2.99995 3.65643e-06 0)
(2.99989 1.98344e-05 0)
(2.9997 2.32588e-05 0)
(2.99935 0.000121023 0)
(2.99824 0.000119123 0)
(2.99633 0.000794938 0)
(2.98913 0.000443476 0)
(2.97737 0.00574088 0)
(2.93208 0.00243946 0)
(2.83122 0.0378992 0)
(2.53601 0.0428301 0)
(1.61128 0.204201 0)
(0.732361 0.458543 0)
(0.50007 0.459633 0)
(0.578428 0.470582 0)
(0.652484 0.496394 0)
(0.660547 0.550195 0)
(0.640262 0.617033 0)
(0.622164 0.70242 0)
(0.627824 0.813796 0)
(0.694 0.956188 0)
(0.794822 1.12837 0)
(3 1.88443e-07 0)
(2.99999 3.09803e-07 0)
(2.99998 2.68571e-06 0)
(2.99996 3.60613e-06 0)
(2.99989 1.85512e-05 0)
(2.99976 2.32367e-05 0)
(2.99936 0.000113269 0)
(2.99861 0.000126873 0)
(2.99621 0.000732082 0)
(2.99202 0.00060574 0)
(2.97655 0.00522831 0)
(2.94908 0.003947 0)
(2.84851 0.0349955 0)
(2.58586 0.0522988 0)
(1.89525 0.208624 0)
(0.863172 0.535383 0)
(0.518213 0.503458 0)
(0.595482 0.493788 0)
(0.681194 0.515228 0)
(0.70371 0.570301 0)
(0.695901 0.640755 0)
(0.697885 0.724855 0)
(0.726919 0.828448 0)
(0.810619 0.945966 0)
(0.936751 1.04828 0)
(3 8.25553e-08 0)
(2.99999 6.49597e-07 0)
(2.99998 1.99239e-06 0)
(2.99996 6.07206e-06 0)
(2.9999 1.43373e-05 0)
(2.99978 3.87573e-05 0)
(2.99944 8.67296e-05 0)
(2.99876 0.000235172 0)
(2.99674 0.000500455 0)
(2.99288 0.00151804 0)
(2.9803 0.00287909 0)
(2.95676 0.0104586 0)
(2.87643 0.0207071 0)
(2.66807 0.0765881 0)
(2.13361 0.191874 0)
(1.03631 0.560832 0)
(0.573167 0.547248 0)
(0.637536 0.534679 0)
(0.72732 0.543937 0)
(0.75869 0.591001 0)
(0.756812 0.657461 0)
(0.768309 0.734718 0)
(0.808791 0.822173 0)
(0.894139 0.913946 0)
(1.01819 0.981162 0)
(3 8.67636e-08 0)
(3 6.74179e-07 0)
(2.99999 2.0761e-06 0)
(2.99997 6.27745e-06 0)
(2.99992 1.49089e-05 0)
(2.99982 3.98343e-05 0)
(2.99953 8.99473e-05 0)
(2.99895 0.000235994 0)
(2.99728 0.000524595 0)
(2.99401 0.00140798 0)
(2.98392 0.00303228 0)
(2.96416 0.00882897 0)
(2.9012 0.0189346 0)
(2.74302 0.0600288 0)
(2.32941 0.148615 0)
(1.24284 0.456599 0)
(0.670096 0.545534 0)
(0.70166 0.575737 0)
(0.783215 0.579785 0)
(0.821325 0.614792 0)
(0.821592 0.67101 0)
(0.833848 0.736944 0)
(0.875886 0.8073 0)
(0.95551 0.877166 0)
(1.06992 0.924992 0)
(3 7.88426e-08 0)
(3 6.11021e-07 0)
(2.99999 1.88224e-06 0)
(2.99997 5.66853e-06 0)
(2.99993 1.34425e-05 0)
(2.99985 3.5676e-05 0)
(2.9996 8.03645e-05 0)
(2.99912 0.000208575 0)
(2.99771 0.000464557 0)
(2.99497 0.00120022 0)
(2.98642 0.00272794 0)
(2.97025 0.00685272 0)
(2.91685 0.0166344 0)
(2.78598 0.0426199 0)
(2.43323 0.110754 0)
(1.40824 0.319098 0)
(0.737789 0.561371 0)
(0.737933 0.623427 0)
(0.810817 0.632762 0)
(0.868144 0.647047 0)
(0.878215 0.686121 0)
(0.891559 0.73733 0)
(0.93136 0.791593 0)
(1.00302 0.842969 0)
(1.10471 0.877976 0)
(3 7.03933e-08 0)
(3 5.44725e-07 0)
(2.99999 1.67902e-06 0)
(2.99998 5.04849e-06 0)
(2.99994 1.1973e-05 0)
(2.99987 3.16918e-05 0)
(2.99967 7.13502e-05 0)
(2.99927 0.000184634 0)
(2.9981 0.00041023 0)
(2.9959 0.00106482 0)
(2.98859 0.0023707 0)
(2.9759 0.00622146 0)
(2.92964 0.0143059 0)
(2.82569 0.0387467 0)
(2.52557 0.0997695 0)
(1.60765 0.288268 0)
(0.866191 0.618807 0)
(0.764188 0.665415 0)
(0.820861 0.678439 0)
(0.886795 0.67504 0)
(0.916531 0.698004 0)
(0.936877 0.735449 0)
(0.975246 0.775761 0)
(1.03964 0.811823 0)
(1.12843 0.835594 0)
(3 6.2839e-08 0)
(3 4.85974e-07 0)
(2.99999 1.49844e-06 0)
(2.99998 4.50434e-06 0)
(2.99995 1.06862e-05 0)
(2.9999 2.8278e-05 0)
(2.99973 6.3659e-05 0)
(2.9994 0.000164898 0)
(2.99844 0.000365042 0)
(2.99661 0.00096561 0)
(2.99069 0.00205881 0)
(2.98031 0.00593904 0)
(2.94281 0.012353 0)
(2.86111 0.0385396 0)
(2.62076 0.090994 0)
(1.85999 0.283812 0)
(1.04507 0.668603 0)
(0.79673 0.689524 0)
(0.83227 0.696999 0)
(0.897978 0.68804 0)
(0.944085 0.700659 0)
(0.971796 0.727781 0)
(1.00901 0.756912 0)
(1.06681 0.78224 0)
(1.14354 0.795189 0)
(3 5.55735e-08 0)
(3 4.30519e-07 0)
(2.99999 1.32675e-06 0)
(2.99999 3.99588e-06 0)
(2.99996 9.47842e-06 0)
(2.99992 2.51684e-05 0)
(2.99979 5.66361e-05 0)
(2.99952 0.000147454 0)
(2.99877 0.000326762 0)
(2.99731 0.00086733 0)
(2.99271 0.00186216 0)
(2.98456 0.0053947 0)
(2.95579 0.0110546 0)
(2.89491 0.0350857 0)
(2.71475 0.0826806 0)
(2.14961 0.255613 0)
(1.2769 0.662094 0)
(0.876613 0.707233 0)
(0.872821 0.710482 0)
(0.921997 0.700136 0)
(0.972673 0.701473 0)
(1.00295 0.717405 0)
(1.0376 0.736931 0)
(1.08746 0.752549 0)
(1.15108 0.75474 0)
(3 4.6596e-08 0)
(3 3.60492e-07 0)
(3 1.1113e-06 0)
(2.99999 3.34173e-06 0)
(2.99997 7.92615e-06 0)
(2.99993 2.09879e-05 0)
(2.99983 4.7217e-05 0)
(2.99963 0.000122342 0)
(2.99904 0.000271286 0)
(2.99789 0.000711663 0)
(2.99445 0.00154055 0)
(2.98803 0.00431765 0)
(2.96683 0.00899882 0)
(2.92377 0.0267043 0)
(2.79131 0.065021 0)
(2.40261 0.186791 0)
(1.58207 0.518518 0)
(0.994428 0.702954 0)
(0.934653 0.721326 0)
(0.96017 0.717467 0)
(1.00468 0.707088 0)
(1.03446 0.710785 0)
(1.06395 0.719586 0)
(1.10284 0.721758 0)
(1.15283 0.71278 0)
(3 3.7896e-08 0)
(3 2.92896e-07 0)
(3 9.03375e-07 0)
(2.99999 2.71234e-06 0)
(2.99998 6.43714e-06 0)
(2.99995 1.69895e-05 0)
(2.99987 3.82852e-05 0)
(2.99971 9.85517e-05 0)
(2.99926 0.000219212 0)
(2.99837 0.000564884 0)
(2.99571 0.00124642 0)
(2.99081 0.00329325 0)
(2.97403 0.00713171 0)
(2.9433 0.0196392 0)
(2.83639 0.0464012 0)
(2.54747 0.132032 0)
(1.86102 0.355497 0)
(1.10278 0.725756 0)
(0.966139 0.743214 0)
(0.983037 0.739556 0)
(1.02491 0.718184 0)
(1.05909 0.708376 0)
(1.0832 0.703215 0)
(1.11137 0.690581 0)
(1.15024 0.670189 0)
(3 3.05729e-08 0)
(3 2.36257e-07 0)
(3 7.28837e-07 0)
(2.99999 2.18746e-06 0)
(2.99998 5.19306e-06 0)
(2.99996 1.36941e-05 0)
(2.9999 3.08736e-05 0)
(2.99978 7.93524e-05 0)
(2.99943 0.000176558 0)
(2.99875 0.000454549 0)
(2.99672 0.000998581 0)
(2.99295 0.00267701 0)
(2.98021 0.00555955 0)
(2.95728 0.0169512 0)
(2.8768 0.0346706 0)
(2.66904 0.116612 0)
(2.14382 0.290561 0)
(1.27305 0.752648 0)
(0.99229 0.777976 0)
(0.996711 0.760943 0)
(1.03376 0.731893 0)
(1.07208 0.704695 0)
(1.09305 0.682182 0)
(1.11315 0.657022 0)
(1.144 0.627441 0)
(3 2.46012e-08 0)
(3 1.89687e-07 0)
(3 5.85428e-07 0)
(2.99999 1.75487e-06 0)
(2.99999 4.16723e-06 0)
(2.99997 1.09758e-05 0)
(2.99992 2.47556e-05 0)
(2.99983 6.35373e-05 0)
(2.99957 0.000141441 0)
(2.99905 0.000363052 0)
(2.99756 0.000800248 0)
(2.99462 0.00212018 0)
(2.98576 0.0044578 0)
(2.968 0.013097 0)
(2.91384 0.0273959 0)
(2.77823 0.0869305 0)
(2.42455 0.214916 0)
(1.53266 0.629271 0)
(1.07702 0.76773 0)
(1.0286 0.761316 0)
(1.04799 0.735863 0)
(1.07841 0.694632 0)
(1.0972 0.656601 0)
(1.11313 0.621075 0)
(1.13868 0.585515 0)
(3 1.23758e-08 0)
(3 1.64996e-07 0)
(3 4.05562e-07 0)
(3 1.47736e-06 0)
(2.99999 2.92718e-06 0)
(2.99998 9.16176e-06 0)
(2.99994 1.73797e-05 0)
(2.99988 5.28755e-05 0)
(2.99968 9.88094e-05 0)
(2.9993 0.000301662 0)
(2.99818 0.000554998 0)
(2.99601 0.00174249 0)
(2.98927 0.00306301 0)
(2.97668 0.0104792 0)
(2.93521 0.01754 0)
(2.83697 0.064924 0)
(2.5685 0.129846 0)
(1.79108 0.426801 0)
(1.16203 0.755217 0)
(1.03824 0.760474 0)
(1.04758 0.726508 0)
(1.07187 0.678917 0)
(1.09318 0.63029 0)
(1.11022 0.5866 0)
(1.13505 0.54715 0)
(3 9.01063e-09 0)
(3 1.21629e-07 0)
(3 2.97666e-07 0)
(3 1.0902e-06 0)
(2.99999 2.15143e-06 0)
(2.99998 6.76257e-06 0)
(2.99996 1.27704e-05 0)
(2.9999 3.89987e-05 0)
(2.99978 7.24985e-05 0)
(2.99943 0.000222102 0)
(2.99876 0.000406718 0)
(2.99672 0.00127854 0)
(2.99299 0.00226358 0)
(2.9802 0.00768988 0)
(2.95708 0.0130135 0)
(2.87638 0.0469397 0)
(2.67268 0.102778 0)
(2.13129 0.314663 0)
(1.3059 0.755749 0)
(1.03123 0.772192 0)
(1.02726 0.711917 0)
(1.05493 0.655575 0)
(1.08028 0.599806 0)
(1.10333 0.551854 0)
(1.13239 0.511874 0)
(3 1.70127e-08 0)
(3 6.15514e-08 0)
(3 2.93678e-07 0)
(3 6.17379e-07 0)
(2.99999 2.04467e-06 0)
(2.99999 3.91711e-06 0)
(2.99997 1.20909e-05 0)
(2.99993 2.26413e-05 0)
(2.99983 6.91611e-05 0)
(2.99957 0.000127929 0)
(2.99906 0.000395475 0)
(2.99756 0.000711939 0)
(2.99461 0.00234661 0)
(2.98568 0.00378441 0)
(2.9677 0.0149229 0)
(2.91276 0.0225803 0)
(2.77582 0.0956335 0)
(2.41382 0.2004 0)
(1.5306 0.620504 0)
(1.06839 0.735165 0)
(1.01142 0.684922 0)
(1.03942 0.626592 0)
(1.06872 0.5678 0)
(1.09895 0.517626 0)
(1.13431 0.480295 0)
(3 1.24447e-08 0)
(3 4.41003e-08 0)
(3 2.1372e-07 0)
(3 4.42667e-07 0)
(3 1.48537e-06 0)
(2.99999 2.80171e-06 0)
(2.99998 8.76477e-06 0)
(2.99995 1.61331e-05 0)
(2.99987 5.00017e-05 0)
(2.99971 9.07931e-05 0)
(2.99924 0.000284448 0)
(2.99834 0.000507291 0)
(2.99555 0.00164138 0)
(2.99059 0.00280345 0)
(2.9729 0.00983384 0)
(2.94072 0.0161219 0)
(2.82761 0.0598978 0)
(2.52772 0.123359 0)
(1.80922 0.379813 0)
(1.08638 0.700907 0)
(0.962677 0.654235 0)
(1.00031 0.592751 0)
(1.0416 0.53313 0)
(1.08684 0.485633 0)
(1.13506 0.453554 0)
(3 3.07869e-09 0)
(3 4.73401e-08 0)
(3 1.11122e-07 0)
(3 4.21902e-07 0)
(3 8.03952e-07 0)
(2.99999 2.61089e-06 0)
(2.99998 4.76111e-06 0)
(2.99996 1.50193e-05 0)
(2.9999 2.69441e-05 0)
(2.99977 8.52538e-05 0)
(2.99941 0.00015052 0)
(2.99869 0.000489236 0)
(2.99653 0.000816861 0)
(2.9925 0.00297407 0)
(2.97887 0.00414618 0)
(2.95382 0.0191234 0)
(2.86635 0.0264618 0)
(2.64008 0.120502 0)
(2.06611 0.266015 0)
(1.14638 0.698498 0)
(0.879805 0.638744 0)
(0.936508 0.562879 0)
(1.00145 0.498814 0)
(1.06899 0.45548 0)
(1.13279 0.429481 0)
(3 3.86356e-09 0)
(3 2.96662e-08 0)
(3 9.16698e-08 0)
(3 2.73888e-07 0)
(3 6.50863e-07 0)
(2.99999 1.70525e-06 0)
(2.99999 3.84838e-06 0)
(2.99997 9.79623e-06 0)
(2.99993 2.18298e-05 0)
(2.99981 5.52649e-05 0)
(2.99958 0.000122467 0)
(2.9989 0.000311345 0)
(2.99762 0.000685219 0)
(2.99337 0.00178551 0)
(2.98615 0.00381753 0)
(2.95958 0.0107632 0)
(2.90546 0.0231618 0)
(2.73996 0.0701641 0)
(2.26864 0.186422 0)
(1.33488 0.516455 0)
(0.847195 0.568629 0)
(0.881379 0.522259 0)
(0.960186 0.470392 0)
(1.0487 0.42964 0)
(1.12831 0.408816 0)
(3 3.14039e-09 0)
(3 1.67616e-08 0)
(3 6.25837e-08 0)
(3 1.60446e-07 0)
(3 4.39652e-07 0)
(3 1.00572e-06 0)
(2.99999 2.58645e-06 0)
(2.99997 5.76457e-06 0)
(2.99993 1.45891e-05 0)
(2.99985 3.22287e-05 0)
(2.99962 8.13836e-05 0)
(2.99916 0.00017743 0)
(2.99775 0.000460117 0)
(2.99511 0.000951848 0)
(2.98633 0.00271419 0)
(2.96993 0.00547319 0)
(2.91433 0.0154095 0)
(2.77726 0.040126 0)
(2.40017 0.0928467 0)
(1.39671 0.297819 0)
(0.775702 0.484657 0)
(0.784697 0.470977 0)
(0.885648 0.436322 0)
(1.00044 0.401583 0)
(1.10473 0.389838 0)
(3 1.90234e-10 0)
(3 1.55978e-08 0)
(3 2.69472e-08 0)
(3 1.36453e-07 0)
(3 2.02776e-07 0)
(3 8.51665e-07 0)
(2.99999 1.22354e-06 0)
(2.99998 4.98396e-06 0)
(2.99995 7.04467e-06 0)
(2.99987 2.89031e-05 0)
(2.9997 4.00401e-05 0)
(2.99921 0.000168728 0)
(2.99827 0.000221403 0)
(2.99525 0.00102867 0)
(2.98991 0.00107502 0)
(2.97011 0.00678424 0)
(2.93395 0.00536199 0)
(2.80286 0.0406925 0)
(2.44419 0.059224 0)
(1.5846 0.216043 0)
(0.738228 0.459478 0)
(0.661226 0.421802 0)
(0.780419 0.381082 0)
(0.926878 0.359913 0)
(1.06117 0.363534 0)
(3 1.59453e-09 0)
(3 8.52414e-09 0)
(3 3.19837e-08 0)
(3 8.18817e-08 0)
(3 2.27565e-07 0)
(3 5.22096e-07 0)
(2.99999 1.37109e-06 0)
(2.99998 3.07441e-06 0)
(2.99995 7.99173e-06 0)
(2.99988 1.78137e-05 0)
(2.99974 4.63591e-05 0)
(2.99931 0.000103072 0)
(2.99847 0.000271258 0)
(2.99582 0.000593841 0)
(2.99112 0.00162961 0)
(2.9737 0.00346919 0)
(2.94246 0.0102314 0)
(2.82736 0.0228232 0)
(2.51305 0.0721413 0)
(1.74456 0.184296 0)
(0.731305 0.47612 0)
(0.509198 0.370757 0)
(0.661634 0.304423 0)
(0.850719 0.306111 0)
(1.01223 0.328746 0)
(3 2.4609e-09 0)
(3 5.25358e-09 0)
(3 3.70034e-08 0)
(3 5.79118e-08 0)
(3 2.58353e-07 0)
(3 3.84647e-07 0)
(2.99999 1.57232e-06 0)
(2.99998 2.3384e-06 0)
(2.99996 9.373e-06 0)
(2.9999 1.39471e-05 0)
(2.99977 5.60462e-05 0)
(2.9994 8.07222e-05 0)
(2.99868 0.000345522 0)
(2.99638 0.000413705 0)
(2.99232 0.00226019 0)
(2.97715 0.0017092 0)
(2.95033 0.0146931 0)
(2.8504 0.0116172 0)
(2.58763 0.0895907 0)
(1.90391 0.168622 0)
(0.754942 0.508918 0)
(0.371489 0.33582 0)
(0.572531 0.24895 0)
(0.808369 0.267909 0)
(0.981132 0.300434 0)
(3 9.6146e-10 0)
(3 5.28991e-09 0)
(3 1.97041e-08 0)
(3 5.05365e-08 0)
(3 1.40961e-07 0)
(3 3.24813e-07 0)
(2.99999 8.61232e-07 0)
(2.99999 1.9461e-06 0)
(2.99996 5.12335e-06 0)
(2.99992 1.15403e-05 0)
(2.99979 3.04141e-05 0)
(2.99955 6.84001e-05 0)
(2.99875 0.000180798 0)
(2.99741 0.000406057 0)
(2.99221 0.00110147 0)
(2.98383 0.00238691 0)
(2.95118 0.00718643 0)
(2.88202 0.0155503 0)
(2.67222 0.0518604 0)
(2.03991 0.13946 0)
(0.877826 0.412125 0)
(0.320819 0.298145 0)
(0.538515 0.24279 0)
(0.801411 0.258131 0)
(0.965376 0.280989 0)
(3 3.16736e-10 0)
(3 2.52247e-09 0)
(3 7.71079e-09 0)
(3 2.33727e-08 0)
(3 5.50329e-08 0)
(3 1.45424e-07 0)
(2.99999 3.22999e-07 0)
(2.99999 8.29096e-07 0)
(2.99997 1.79777e-06 0)
(2.99992 4.65105e-06 0)
(2.99982 9.84318e-06 0)
(2.99952 2.79727e-05 0)
(2.99896 4.97154e-05 0)
(2.99714 0.000202064 0)
(2.99397 0.000274674 0)
(2.98221 0.00147865 0)
(2.96135 0.00277309 0)
(2.8868 0.00989877 0)
(2.69835 0.0265933 0)
(2.18348 0.0740174 0)
(0.879098 0.232119 0)
(0.216518 0.245015 0)
(0.479044 0.255654 0)
(0.765822 0.26105 0)
(0.932052 0.267214 0)
(3 1.10258e-09 0)
(3 -1.2787e-09 0)
(3 1.07074e-08 0)
(3 -5.22226e-09 0)
(3 7.09243e-08 0)
(3 -2.53182e-08 0)
(2.99999 4.18268e-07 0)
(2.99999 -1.51762e-07 0)
(2.99997 2.41719e-06 0)
(2.99993 -9.85664e-07 0)
(2.99981 1.41715e-05 0)
(2.99958 -6.44983e-06 0)
(2.99889 8.8459e-05 0)
(2.9976 -5.23457e-05 0)
(2.99328 0.000658284 0)
(2.98592 -0.000590442 0)
(2.95821 0.00544706 0)
(2.90198 -0.00278143 0)
(2.72681 0.0309986 0)
(2.18976 0.0306283 0)
(0.991443 0.144702 0)
(0.211376 0.226263 0)
(0.456334 0.266045 0)
(0.730246 0.255825 0)
(0.896632 0.248018 0)
(3 2.59779e-10 0)
(3 2.00191e-09 0)
(3 6.19366e-09 0)
(3 1.85097e-08 0)
(3 4.38477e-08 0)
(3 1.14572e-07 0)
(2.99999 2.56874e-07 0)
(2.99999 6.53342e-07 0)
(2.99997 1.4458e-06 0)
(2.99993 3.67503e-06 0)
(2.99981 8.10276e-06 0)
(2.99959 2.08499e-05 0)
(2.99892 4.53748e-05 0)
(2.99762 0.00012388 0)
(2.99353 0.00024843 0)
(2.98619 0.000793968 0)
(2.96008 0.00155832 0)
(2.90727 0.00497813 0)
(2.7401 0.0126975 0)
(2.22868 0.0316219 0)
(1.09284 0.0998991 0)
(0.261264 0.205618 0)
(0.455673 0.258043 0)
(0.700175 0.244469 0)
(0.86634 0.229029 0)
(3 -3.61587e-10 0)
(3 5.26953e-09 0)
(3 4.16465e-09 0)
(3 4.33557e-08 0)
(3 3.35145e-08 0)
(3 2.63697e-07 0)
(2.99999 1.97004e-07 0)
(2.99999 1.5207e-06 0)
(2.99997 1.08921e-06 0)
(2.99993 8.75154e-06 0)
(2.99983 5.8425e-06 0)
(2.99961 5.07964e-05 0)
(2.99898 2.71675e-05 0)
(2.99777 0.000308882 0)
(2.99383 2.60375e-05 0)
(2.98701 0.00208286 0)
(2.96163 -0.00120361 0)
(2.91164 0.0122761 0)
(2.74834 -0.00351201 0)
(2.26252 0.0438712 0)
(1.15509 0.0648678 0)
(0.318897 0.171665 0)
(0.464603 0.23329 0)
(0.676494 0.232341 0)
(0.838699 0.216862 0)
(3 4.20625e-10 0)
(3 3.18415e-09 0)
(3 9.87777e-09 0)
(3 2.93535e-08 0)
(3 6.97805e-08 0)
(3 1.82533e-07 0)
(3 4.13247e-07 0)
(2.99999 1.05472e-06 0)
(2.99997 2.37981e-06 0)
(2.99993 6.02389e-06 0)
(2.99985 1.36752e-05 0)
(2.9996 3.32733e-05 0)
(2.99913 8.15495e-05 0)
(2.99762 0.00016212 0)
(2.995 0.000478193 0)
(2.98519 0.000748397 0)
(2.96802 0.00196635 0)
(2.90639 0.00410177 0)
(2.75268 0.00971738 0)
(2.32944 0.0216255 0)
(1.13167 0.0615994 0)
(0.332642 0.152297 0)
(0.451458 0.214309 0)
(0.64313 0.217989 0)
(0.801221 0.202179 0)
(3 4.30779e-10 0)
(3 2.36209e-09 0)
(3 8.66904e-09 0)
(3 2.23276e-08 0)
(3 5.97415e-08 0)
(3 1.36356e-07 0)
(3 3.40847e-07 0)
(2.99999 7.56614e-07 0)
(2.99997 1.85545e-06 0)
(2.99994 4.0825e-06 0)
(2.99985 9.91627e-06 0)
(2.99967 2.17717e-05 0)
(2.99909 5.21094e-05 0)
(2.9981 0.000114339 0)
(2.99432 0.000271706 0)
(2.98825 0.000578072 0)
(2.96437 0.00144761 0)
(2.91798 0.00313144 0)
(2.76151 0.00819922 0)
(2.30897 0.0218862 0)
(1.23999 0.0580646 0)
(0.395678 0.147472 0)
(0.46062 0.199605 0)
(0.614496 0.200902 0)
(0.767388 0.182491 0)
(3 2.87376e-10 0)
(3 2.12138e-09 0)
(3 6.66634e-09 0)
(3 1.92835e-08 0)
(3 4.56064e-08 0)
(3 1.1374e-07 0)
(3 2.51713e-07 0)
(2.99999 6.04279e-07 0)
(2.99998 1.30399e-06 0)
(2.99994 3.11445e-06 0)
(2.99986 6.6139e-06 0)
(2.99964 1.64293e-05 0)
(2.99921 3.25043e-05 0)
(2.9978 9.41704e-05 0)
(2.99538 0.000173284 0)
(2.98616 0.000562685 0)
(2.97012 0.00112538 0)
(2.91194 0.00330908 0)
(2.76779 0.00850725 0)
(2.36842 0.0200306 0)
(1.22233 0.0617404 0)
(0.407789 0.155774 0)
(0.441325 0.191277 0)
(0.578742 0.185636 0)
(0.732221 0.158463 0)
(3 2.80259e-10 0)
(3 1.48219e-09 0)
(3 5.50218e-09 0)
(3 1.41243e-08 0)
(3 3.77339e-08 0)
(3 8.53986e-08 0)
(3 2.12084e-07 0)
(2.99999 4.63135e-07 0)
(2.99998 1.12887e-06 0)
(2.99995 2.4205e-06 0)
(2.99986 5.93567e-06 0)
(2.99969 1.24317e-05 0)
(2.99915 3.29466e-05 0)
(2.99822 6.17357e-05 0)
(2.99471 0.000208814 0)
(2.98904 0.000362664 0)
(2.96665 0.00129875 0)
(2.92403 0.0029239 0)
(2.77515 0.00849472 0)
(2.3505 0.025643 0)
(1.32759 0.0640436 0)
(0.447227 0.175429 0)
(0.42726 0.191357 0)
(0.545027 0.166144 0)
(0.70082 0.127665 0)
(3 -4.2951e-10 0)
(3 2.95705e-09 0)
(3 -4.1673e-10 0)
(3 2.37086e-08 0)
(3 9.80009e-11 0)
(3 1.43658e-07 0)
(3 -7.80959e-09 0)
(2.99999 8.12693e-07 0)
(2.99998 -1.76895e-07 0)
(2.99994 4.46249e-06 0)
(2.99987 -2.19909e-06 0)
(2.99966 2.48534e-05 0)
(2.99925 -2.38667e-05 0)
(2.99795 0.000162119 0)
(2.99563 -0.00024863 0)
(2.98707 0.00128286 0)
(2.97222 -0.00183065 0)
(2.91798 0.00936097 0)
(2.78536 -0.00640766 0)
(2.41412 0.0426178 0)
(1.29914 0.0645863 0)
(0.448029 0.205893 0)
(0.373141 0.192078 0)
(0.494787 0.132702 0)
(0.673394 0.0888808 0)
(3 3.22345e-10 0)
(3 1.65035e-09 0)
(3 6.30201e-09 0)
(3 1.61251e-08 0)
(3 4.57951e-08 0)
(3 1.06572e-07 0)
(3 2.83771e-07 0)
(2.99999 6.45478e-07 0)
(2.99998 1.67075e-06 0)
(2.99994 3.73672e-06 0)
(2.99988 9.52375e-06 0)
(2.99967 2.08885e-05 0)
(2.99927 5.41954e-05 0)
(2.99803 0.000110377 0)
(2.99564 0.000342748 0)
(2.98776 0.000529512 0)
(2.97334 0.0023024 0)
(2.92197 0.00418743 0)
(2.79772 0.0143216 0)
(2.44601 0.0356851 0)
(1.33779 0.102992 0)
(0.4601 0.263223 0)
(0.303568 0.185274 0)
(0.446565 0.0828282 0)
(0.661711 0.0439905 0)
(3 3.87409e-10 0)
(3 2.07498e-09 0)
(3 7.9497e-09 0)
(3 2.03487e-08 0)
(3 5.9589e-08 0)
(3 1.39785e-07 0)
(3 3.89496e-07 0)
(2.99999 9.0191e-07 0)
(2.99998 2.45827e-06 0)
(2.99995 5.66465e-06 0)
(2.99989 1.51302e-05 0)
(2.9997 3.45418e-05 0)
(2.99933 9.04575e-05 0)
(2.99819 0.000205377 0)
(2.99598 0.000519294 0)
(2.98869 0.00121847 0)
(2.97529 0.00299045 0)
(2.9274 0.00659916 0)
(2.81264 0.0183902 0)
(2.48323 0.0429972 0)
(1.42502 0.133906 0)
(0.486493 0.329769 0)
(0.224644 0.165795 0)
(0.409226 0.0310885 0)
(0.668924 0.0050953 0)
(3 7.60062e-10 0)
(3 3.204e-10 0)
(3 9.52191e-09 0)
(3 6.9601e-09 0)
(3 6.80806e-08 0)
(3 5.78241e-08 0)
(3 4.40264e-07 0)
(2.99999 4.22485e-07 0)
(2.99998 2.80631e-06 0)
(2.99996 2.94322e-06 0)
(2.9999 1.78388e-05 0)
(2.99973 1.9638e-05 0)
(2.99941 0.000113339 0)
(2.99839 0.000121364 0)
(2.99649 0.000739385 0)
(2.9898 0.000599813 0)
(2.97787 0.00519801 0)
(2.93408 0.00226504 0)
(2.82993 0.0331658 0)
(2.52906 0.0330833 0)
(1.56058 0.167945 0)
(0.527068 0.383106 0)
(0.142734 0.139129 0)
(0.379124 0.00293061 0)
(0.687599 -0.0122325 0)
(3 5.79395e-10 0)
(3 -5.83576e-10 0)
(3 5.89251e-09 0)
(3 -1.87246e-09 0)
(3 4.08312e-08 0)
(3 -3.38932e-09 0)
(3 2.59275e-07 0)
(2.99999 1.89893e-08 0)
(2.99998 1.63553e-06 0)
(2.99996 3.45734e-07 0)
(2.9999 1.04576e-05 0)
(2.99978 3.63019e-06 0)
(2.99941 6.88147e-05 0)
(2.99871 3.02804e-05 0)
(2.99638 0.000486881 0)
(2.99237 0.000149728 0)
(2.97675 0.0038435 0)
(2.94907 0.000917709 0)
(2.84292 0.0267395 0)
(2.56143 0.0300395 0)
(1.79138 0.14732 0)
(0.52192 0.386217 0)
(-0.00407053 0.107554 0)
(0.316135 -0.00296923 0)
(0.683266 -0.0157185 0)
(3 6.81195e-11 0)
(3 5.75004e-10 0)
(3 1.71988e-09 0)
(3 5.52368e-09 0)
(3 1.31408e-08 0)
(3 3.78735e-08 0)
(3 8.68744e-08 0)
(2.99999 2.45966e-07 0)
(2.99998 5.58826e-07 0)
(2.99996 1.58515e-06 0)
(2.9999 3.57128e-06 0)
(2.99978 1.03257e-05 0)
(2.99943 2.29097e-05 0)
(2.99874 7.08675e-05 0)
(2.99659 0.000146819 0)
(2.9926 0.000543827 0)
(2.97868 0.00102675 0)
(2.95304 0.00431286 0)
(2.85995 0.00912448 0)
(2.61402 0.0370073 0)
(1.94574 0.0998799 0)
(0.510058 0.308678 0)
(-0.126001 0.0865831 0)
(0.276731 0.0165301 0)
(0.681952 -0.00455324 0)
(3 -3.52902e-10 0)
(3 1.75454e-09 0)
(3 -1.31884e-09 0)
(3 1.34513e-08 0)
(3 -6.21779e-09 0)
(3 8.34828e-08 0)
(3 -2.8834e-08 0)
(2.99999 5.06066e-07 0)
(2.99998 -1.23204e-07 0)
(2.99996 3.08868e-06 0)
(2.99991 -4.49343e-07 0)
(2.99979 1.91856e-05 0)
(2.99946 -1.36461e-06 0)
(2.99881 0.000123764 0)
(2.99678 -2.29816e-05 0)
(2.9931 0.00091299 0)
(2.97988 -0.000604876 0)
(2.95599 0.00686318 0)
(2.86974 -0.00366995 0)
(2.64623 0.0380535 0)
(2.03562 0.0431539 0)
(0.511488 0.175904 0)
(-0.196972 0.072454 0)
(0.260731 0.0303212 0)
(0.680242 0.00302553 0)
(3 -4.09137e-10 0)
(3 1.32189e-09 0)
(3 -2.64461e-09 0)
(3 9.37705e-09 0)
(3 -1.60485e-08 0)
(3 5.61501e-08 0)
(3 -9.25956e-08 0)
(2.99999 3.31351e-07 0)
(2.99999 -5.29699e-07 0)
(2.99996 1.97926e-06 0)
(2.99992 -3.03161e-06 0)
(2.99978 1.21401e-05 0)
(2.99952 -1.76804e-05 0)
(2.99872 7.96452e-05 0)
(2.99725 -0.000129812 0)
(2.99212 0.000647553 0)
(2.98351 -0.00133231 0)
(2.95079 0.00503747 0)
(2.88129 -0.00858691 0)
(2.67198 0.0212677 0)
(1.99963 -0.000551698 0)
(0.590281 0.0493972 0)
(-0.173874 0.033598 0)
(0.277888 0.0165172 0)
(0.689243 0.00214937 0)
(0.993102 1.09196 0)
(1.12692 0.923009 0)
(0.570087 0.567625 0)
(-0.421822 0.294485 0)
(-0.265805 0.0293737 0)
(-0.339853 0.0281954 0)
(-0.458917 0.0345301 0)
(-0.555587 0.0362585 0)
(-0.631476 0.0341752 0)
(-0.689763 0.0299757 0)
(-0.72774 0.0258271 0)
(-0.742767 0.0224167 0)
(-0.741173 0.0197442 0)
(-0.733059 0.0176862 0)
(-0.723892 0.0173638 0)
(-0.710254 0.0173631 0)
(-0.690523 0.0168731 0)
(-0.665759 0.0160608 0)
(-0.637014 0.0152035 0)
(-0.605121 0.0142768 0)
(-0.570532 0.0132269 0)
(-0.533729 0.0120015 0)
(-0.494933 0.0104666 0)
(-0.45491 0.00839429 0)
(-0.412881 0.00539213 0)
(-0.369193 0.00154354 0)
(-0.323525 -0.00235164 0)
(-0.277123 -0.00556571 0)
(-0.229985 -0.00829294 0)
(-0.183119 -0.0105247 0)
(-0.136154 -0.0126447 0)
(-0.089543 -0.0148537 0)
(-0.042835 -0.0175381 0)
(0.00339381 -0.0210917 0)
(0.0576676 -0.0243484 0)
(0.0988491 -0.0244142 0)
(0.138641 -0.0236519 0)
(0.178107 -0.0226351 0)
(0.217732 -0.0217403 0)
(0.256347 -0.0209859 0)
(0.292796 -0.0202299 0)
(0.329426 -0.0198869 0)
(0.366883 -0.0200051 0)
(0.404135 -0.0198459 0)
(0.440227 -0.0194972 0)
(0.475364 -0.0190299 0)
(0.509598 -0.0184061 0)
(0.543181 -0.0177742 0)
(0.57596 -0.017146 0)
(0.607996 -0.0165418 0)
(0.639394 -0.0159627 0)
(0.670153 -0.0154242 0)
(0.700245 -0.0148615 0)
(0.729803 -0.0143159 0)
(0.758724 -0.0137544 0)
(0.787133 -0.013192 0)
(0.81501 -0.0126361 0)
(0.842365 -0.0120716 0)
(0.869248 -0.0115141 0)
(0.895642 -0.0109552 0)
(0.92161 -0.0103981 0)
(0.947136 -0.00985178 0)
(0.972247 -0.00930334 0)
(0.996973 -0.00877101 0)
(1.02131 -0.00824241 0)
(1.04527 -0.00773043 0)
(1.06886 -0.00722993 0)
(1.09209 -0.00674874 0)
(1.11493 -0.00628968 0)
(1.13741 -0.00585238 0)
(1.15949 -0.00544601 0)
(1.18117 -0.00506582 0)
(1.20244 -0.00471955 0)
(1.22327 -0.00440551 0)
(1.24365 -0.00412552 0)
(1.26354 -0.00388053 0)
(1.28294 -0.00366659 0)
(1.30181 -0.00348431 0)