/*--------------------------------*- C++ -*----------------------------------*\
  =========                 |
  \\      /  F ield         | OpenFOAM: The Open Source CFD Toolbox
   \\    /   O peration     | Website:  https://openfoam.org
    \\  /    A nd           | Version:  6
     \\/     M anipulation  |
\*---------------------------------------------------------------------------*/
FoamFile
{
    version     2.0;
    format      ascii;
    class       volVectorField;
    location    "0.005";
    object      U;
}
// * * * * * * * * * * * * * * * * * * * * * * * * * * * * * * * * * * * * * //

dimensions      [0 1 -1 0 0 0 0];

internalField   nonuniform List<vector> 
1000
(
(3.06333e-13 0 0)
(5.10556e-13 0 0)
(-4.37619e-14 0 0)
(1.31286e-13 0 0)
(1.45873e-14 0 0)
(4.81381e-13 0 0)
(1.89635e-13 0 0)
(8.75238e-14 0 0)
(5.98079e-13 0 0)
(-3.20921e-13 0 0)
(-2.77159e-13 0 0)
(-2.62571e-13 0 0)
(-2.1881e-13 0 0)
(-7.29365e-14 0 0)
(-1.31286e-13 0 0)
(-3.50095e-13 0 0)
(-4.66794e-13 0 0)
(-4.23032e-13 0 0)
(-6.27254e-13 0 0)
(-5.83492e-14 0 0)
(1.6046e-13 0 0)
(-1.31286e-13 0 0)
(-1.6046e-13 0 0)
(1.02111e-13 0 0)
(1.6046e-13 0 0)
(4.37619e-13 0 0)
(3.64683e-13 0 0)
(1.00652e-12 0 0)
(7.29365e-13 0 0)
(-1.89635e-13 0 0)
(1.06487e-12 0 0)
(8.31476e-13 0 0)
(8.16889e-13 0 0)
(1.1524e-12 0 0)
(5.54317e-13 0 0)
(7.0019e-13 0 0)
(2.47984e-13 0 0)
(9.19e-13 0 0)
(4.37619e-14 0 0)
(-2.77159e-13 0 0)
(4.23032e-13 0 0)
(1.02111e-13 0 0)
(1.45873e-14 0 0)
(-1.16698e-13 0 0)
(-4.81381e-13 0 0)
(-3.64683e-13 0 0)
(-1.31286e-13 0 0)
(3.35508e-13 0 0)
(-3.64683e-13 0 0)
(-2.91746e-13 0 0)
(-5.83492e-14 0 0)
(-3.06333e-13 0 0)
(-1.45873e-14 0 0)
(-2.77159e-13 0 0)
(-1.6046e-13 0 0)
(4.37619e-14 0 0)
(3.7927e-13 0 0)
(1.75048e-13 0 0)
(7.5854e-13 0 0)
(1.02111e-13 0 0)
(9.19e-13 0 0)
(-5.83492e-14 0 0)
(6.71016e-13 0 0)
(4.37619e-14 0 0)
(3.7927e-13 0 0)
(2.33397e-13 0 0)
(-1.45873e-13 0 0)
(-2.91746e-14 0 0)
(-1.31286e-13 0 0)
(-6.12667e-13 0 0)
(-2.91746e-13 0 0)
(2.77159e-13 0 0)
(1.45873e-14 0 0)
(-6.12667e-13 0 0)
(4.37619e-14 0 0)
(2.33397e-13 0 0)
(3.20921e-13 0 0)
(6.12667e-13 0 0)
(-2.77159e-13 0 0)
(-2.62571e-13 0 0)
(8.75238e-14 0 0)
(-1.31286e-13 0 0)
(-4.66794e-13 0 0)
(2.1881e-13 0 0)
(-4.52206e-13 0 0)
(-9.91936e-13 0 0)
(-7.29365e-13 0 0)
(-1.89635e-13 0 0)
(7.29365e-14 0 0)
(-4.81381e-13 0 0)
(-1.31286e-13 0 0)
(2.91746e-14 0 0)
(-5.83492e-14 0 0)
(2.91746e-13 0 0)
(1.16698e-13 0 0)
(5.83492e-14 0 0)
(-1.76705e-28 0 0)
(-3.06333e-13 0 0)
(2.91746e-13 0 0)
(1.75048e-13 0 0)
(-1.45873e-14 0 0)
(1.45873e-13 0 0)
(-2.33397e-13 0 0)
(-6.12667e-13 0 0)
(-6.12667e-13 0 0)
(-1.06487e-12 0 0)
(-4.95968e-13 0 0)
(-9.91936e-13 0 0)
(-3.35508e-13 0 0)
(-1.16698e-13 0 0)
(-3.93857e-13 0 0)
(-4.37619e-13 0 0)
(-2.77159e-13 0 0)
(-1.02111e-13 0 0)
(1.89635e-13 0 0)
(3.93857e-13 0 0)
(3.35508e-13 0 0)
(5.83492e-14 0 0)
(4.37619e-14 0 0)
(9.62762e-13 0 0)
(4.08444e-13 0 0)
(1.13781e-12 0 0)
(7.43952e-13 0 0)
(3.64683e-13 0 0)
(3.20921e-13 0 0)
(1.75048e-13 0 0)
(5.83492e-14 0 0)
(-2.62571e-13 0 0)
(-4.37619e-14 0 0)
(4.37619e-14 0 0)
(-5.10556e-13 0 0)
(-3.64683e-13 0 0)
(-4.37619e-13 0 0)
(-7.0019e-13 0 0)
(-4.81381e-13 0 0)
(-8.46063e-13 0 0)
(-8.31476e-13 0 0)
(-8.75238e-13 0 0)
(-1.19616e-12 0 0)
(-1.59002e-12 0 0)
(-1.31286e-12 0 0)
(-9.48175e-13 0 0)
(-1.4879e-12 0 0)
(-1.6046e-12 0 0)
(-1.2691e-12 0 0)
(-9.33587e-13 0 0)
(-1.0357e-12 0 0)
(-9.77349e-13 0 0)
(-8.75238e-13 0 0)
(-1.53167e-12 0 0)
(-1.00652e-12 0 0)
(-8.16889e-13 0 0)
(-1.16698e-12 0 0)
(-1.42956e-12 0 0)
(-7.0019e-13 0 0)
(-9.77349e-13 0 0)
(-6.56429e-13 0 0)
(-5.25143e-13 0 0)
(-9.19e-13 0 0)
(-2.1881e-13 0 0)
(-6.56429e-13 0 0)
(-5.10556e-13 0 0)
(-5.25143e-13 0 0)
(-7.5854e-13 0 0)
(-7.43952e-13 0 0)
(-5.54317e-13 0 0)
(-1.02111e-13 0 0)
(3.06333e-13 0 0)
(-6.41841e-13 0 0)
(-3.50095e-13 0 0)
(-8.75238e-14 0 0)
(-1.19616e-12 0 0)
(-5.68905e-13 0 0)
(-9.62762e-13 0 0)
(-1.10863e-12 0 0)
(-9.48175e-13 0 0)
(-8.60651e-13 0 0)
(-1.45873e-12 0 0)
(-1.00652e-12 0 0)
(-1.10863e-12 0 0)
(-1.45873e-12 0 0)
(-1.47332e-12 0 0)
(-1.57543e-12 0 0)
(-1.41497e-12 0 0)
(-1.91094e-12 0 0)
(-1.86717e-12 0 0)
(-1.40038e-12 0 0)
(-1.35662e-12 0 0)
(-1.40038e-12 0 0)
(-1.22533e-12 0 0)
(-1.63378e-12 0 0)
(-1.4879e-12 0 0)
(-1.63378e-12 0 0)
(-1.12322e-12 0 0)
(-1.19616e-12 0 0)
(-1.51708e-12 0 0)
(-1.56084e-12 0 0)
(-1.34203e-12 0 0)
(-1.66295e-12 0 0)
(-2.20268e-12 0 0)
(-1.19616e-12 0 0)
(-1.99846e-12 0 0)
(-7.73127e-13 0 0)
(-1.41497e-12 0 0)
(-6.71016e-13 0 0)
(-1.07946e-12 0 0)
(-1.1524e-12 0 0)
(-7.87714e-13 0 0)
(-2.62571e-13 0 0)
(-1.6046e-13 0 0)
(-3.64683e-13 0 0)
(-6.12667e-13 0 0)
(-6.27254e-13 0 0)
(-8.02302e-13 0 0)
(-7.87714e-13 0 0)
(-1.66295e-12 0 0)
(-8.16889e-13 0 0)
(-1.45873e-12 0 0)
(-1.41497e-12 0 0)
(-1.05029e-12 0 0)
(-6.85603e-13 0 0)
(-1.37121e-12 0 0)
(-8.46063e-13 0 0)
(-9.04413e-13 0 0)
(-1.34203e-12 0 0)
(-1.16698e-12 0 0)
(-1.66295e-12 0 0)
(-1.7213e-12 0 0)
(-1.57543e-12 0 0)
(-1.82341e-12 0 0)
(-1.61919e-12 0 0)
(-1.61919e-12 0 0)
(-1.70671e-12 0 0)
(-2.04222e-12 0 0)
(-1.42956e-12 0 0)
(-1.18157e-12 0 0)
(-7.43952e-13 0 0)
(-1.16698e-13 0 0)
(7.14778e-13 0 0)
(3.93857e-12 0 0)
(9.05871e-12 0 0)
(1.94595e-11 0 0)
(3.89189e-11 0 0)
(7.49204e-11 0 0)
(1.41905e-10 0 0)
(2.65183e-10 0 0)
(4.89623e-10 0 0)
(8.98753e-10 0 0)
(1.63659e-09 0 0)
(2.95865e-09 0 0)
(5.31579e-09 0 0)
(9.48866e-09 0 0)
(1.68286e-08 0 0)
(2.96533e-08 0 0)
(5.19115e-08 0 0)
(9.02843e-08 0 0)
(1.55985e-07 0 0)
(2.677e-07 0 0)
(4.56335e-07 0 0)
(7.72617e-07 0 0)
(1.29915e-06 0 0)
(2.16939e-06 0 0)
(3.59727e-06 0 0)
(5.92287e-06 0 0)
(9.68246e-06 0 0)
(1.57145e-05 0 0)
(2.5319e-05 0 0)
(4.04938e-05 0 0)
(6.42826e-05 0 0)
(0.000101281 0 0)
(0.000158364 0 0)
(0.000245721 0 0)
(0.000378312 0 0)
(0.000577888 0 0)
(0.000875757 0 0)
(0.00131653 0 0)
(0.00196313 0 0)
(0.00290333 0 0)
(0.00425826 0 0)
(0.0061932 0 0)
(0.00893108 0 0)
(0.012769 0 0)
(0.0180981 0 0)
(0.0254266 0 0)
(0.0354065 0 0)
(0.0488627 0 0)
(0.066824 0 0)
(0.0905548 0 0)
(0.121585 0 0)
(0.161738 0 0)
(0.213147 0 0)
(0.278269 0 0)
(0.359878 0 0)
(0.461049 0 0)
(0.585123 0 0)
(0.735649 0 0)
(0.916315 0 0)
(1.13086 0 0)
(1.38298 0 0)
(1.6762 0 0)
(2.01383 0 0)
(2.39878 0 0)
(2.83356 0 0)
(3.32016 0 0)
(3.86003 0 0)
(4.45405 0 0)
(5.10255 0 0)
(5.80529 0 0)
(6.56157 0 0)
(7.37021 0 0)
(8.22968 0 0)
(9.13812 0 0)
(10.0934 0 0)
(11.0934 0 0)
(12.1355 0 0)
(13.2174 0 0)
(14.3367 0 0)
(15.4909 0 0)
(16.6776 0 0)
(17.8947 0 0)
(19.1398 0 0)
(20.4111 0 0)
(21.7065 0 0)
(23.0243 0 0)
(24.3627 0 0)
(25.7204 0 0)
(27.0958 0 0)
(28.4876 0 0)
(29.8947 0 0)
(31.316 0 0)
(32.7504 0 0)
(34.1971 0 0)
(35.6552 0 0)
(37.124 0 0)
(38.6028 0 0)
(40.0909 0 0)
(41.5877 0 0)
(43.0929 0 0)
(44.6057 0 0)
(46.1258 0 0)
(47.6528 0 0)
(49.1863 0 0)
(50.7259 0 0)
(52.2712 0 0)
(53.8221 0 0)
(55.378 0 0)
(56.9389 0 0)
(58.5043 0 0)
(60.0742 0 0)
(61.6481 0 0)
(63.226 0 0)
(64.8075 0 0)
(66.3926 0 0)
(67.981 0 0)
(69.5725 0 0)
(71.1669 0 0)
(72.7642 0 0)
(74.364 0 0)
(75.9664 0 0)
(77.5712 0 0)
(79.1782 0 0)
(80.7873 0 0)
(82.3983 0 0)
(84.0113 0 0)
(85.626 0 0)
(87.2424 0 0)
(88.8604 0 0)
(90.4799 0 0)
(92.1007 0 0)
(93.7229 0 0)
(95.3464 0 0)
(96.971 0 0)
(98.5967 0 0)
(100.223 0 0)
(101.851 0 0)
(103.48 0 0)
(105.109 0 0)
(106.74 0 0)
(108.371 0 0)
(110.003 0 0)
(111.635 0 0)
(113.268 0 0)
(114.902 0 0)
(116.536 0 0)
(118.171 0 0)
(119.806 0 0)
(121.441 0 0)
(123.077 0 0)
(124.713 0 0)
(126.35 0 0)
(127.987 0 0)
(129.624 0 0)
(131.261 0 0)
(132.899 0 0)
(134.537 0 0)
(136.174 0 0)
(137.812 0 0)
(139.45 0 0)
(141.088 0 0)
(142.727 0 0)
(144.365 0 0)
(146.003 0 0)
(147.641 0 0)
(149.279 0 0)
(150.917 0 0)
(152.555 0 0)
(154.192 0 0)
(155.83 0 0)
(157.467 0 0)
(159.104 0 0)
(160.741 0 0)
(162.378 0 0)
(164.014 0 0)
(165.65 0 0)
(167.286 0 0)
(168.921 0 0)
(170.557 0 0)
(172.191 0 0)
(173.825 0 0)
(175.459 0 0)
(177.092 0 0)
(178.725 0 0)
(180.357 0 0)
(181.988 0 0)
(183.619 0 0)
(185.249 0 0)
(186.879 0 0)
(188.508 0 0)
(190.136 0 0)
(191.763 0 0)
(193.389 0 0)
(195.015 0 0)
(196.639 0 0)
(198.262 0 0)
(199.885 0 0)
(201.506 0 0)
(203.126 0 0)
(204.745 0 0)
(206.362 0 0)
(207.978 0 0)
(209.593 0 0)
(211.206 0 0)
(212.817 0 0)
(214.427 0 0)
(216.035 0 0)
(217.641 0 0)
(219.244 0 0)
(220.846 0 0)
(222.445 0 0)
(224.042 0 0)
(225.636 0 0)
(227.228 0 0)
(228.816 0 0)
(230.401 0 0)
(231.983 0 0)
(233.562 0 0)
(235.136 0 0)
(236.707 0 0)
(238.273 0 0)
(239.834 0 0)
(241.391 0 0)
(242.942 0 0)
(244.488 0 0)
(246.028 0 0)
(247.561 0 0)
(249.087 0 0)
(250.606 0 0)
(252.117 0 0)
(253.619 0 0)
(255.111 0 0)
(256.594 0 0)
(258.066 0 0)
(259.527 0 0)
(260.974 0 0)
(262.409 0 0)
(263.829 0 0)
(265.233 0 0)
(266.621 0 0)
(267.991 0 0)
(269.341 0 0)
(270.67 0 0)
(271.976 0 0)
(273.258 0 0)
(274.514 0 0)
(275.742 0 0)
(276.94 0 0)
(278.106 0 0)
(279.238 0 0)
(280.334 0 0)
(281.391 0 0)
(282.408 0 0)
(283.381 0 0)
(284.31 0 0)
(285.192 0 0)
(286.026 0 0)
(286.809 0 0)
(287.542 0 0)
(288.221 0 0)
(288.848 0 0)
(289.422 0 0)
(289.944 0 0)
(290.414 0 0)
(290.833 0 0)
(291.205 0 0)
(291.53 0 0)
(291.812 0 0)
(292.054 0 0)
(292.259 0 0)
(292.431 0 0)
(292.573 0 0)
(292.69 0 0)
(292.785 0 0)
(292.86 0 0)
(292.92 0 0)
(292.967 0 0)
(293.004 0 0)
(293.033 0 0)
(293.055 0 0)
(293.072 0 0)
(293.086 0 0)
(293.097 0 0)
(293.106 0 0)
(293.113 0 0)
(293.12 0 0)
(293.125 0 0)
(293.13 0 0)
(293.134 0 0)
(293.138 0 0)
(293.141 0 0)
(293.144 0 0)
(293.146 0 0)
(293.149 0 0)
(293.15 0 0)
(293.152 0 0)
(293.153 0 0)
(293.154 0 0)
(293.155 0 0)
(293.156 0 0)
(293.156 0 0)
(293.157 0 0)
(293.157 0 0)
(293.157 0 0)
(293.157 0 0)
(293.158 0 0)
(293.158 0 0)
(293.158 0 0)
(293.158 0 0)
(293.158 0 0)
(293.158 0 0)
(293.158 0 0)
(293.158 0 0)
(293.158 0 0)
(293.158 0 0)
(293.158 0 0)
(293.158 0 0)
(293.158 0 0)
(293.158 0 0)
(293.159 0 0)
(293.159 0 0)
(293.159 0 0)
(293.159 0 0)
(293.159 0 0)
(293.159 0 0)
(293.159 0 0)
(293.159 0 0)
(293.159 0 0)
(293.159 0 0)
(293.16 0 0)
(293.16 0 0)
(293.16 0 0)
(293.16 0 0)
(293.16 0 0)
(293.16 0 0)
(293.16 0 0)
(293.16 0 0)
(293.16 0 0)
(293.16 0 0)
(293.16 0 0)
(293.16 0 0)
(293.16 0 0)
(293.16 0 0)
(293.161 0 0)
(293.161 0 0)
(293.161 0 0)
(293.161 0 0)
(293.161 0 0)
(293.161 0 0)
(293.161 0 0)
(293.161 0 0)
(293.161 0 0)
(293.161 0 0)
(293.161 0 0)
(293.161 0 0)
(293.161 0 0)
(293.161 0 0)
(293.161 0 0)
(293.161 0 0)
(293.161 0 0)
(293.161 0 0)
(293.161 0 0)
(293.161 0 0)
(293.161 0 0)
(293.161 0 0)
(293.161 0 0)
(293.161 0 0)
(293.161 0 0)
(293.161 0 0)
(293.161 0 0)
(293.161 0 0)
(293.161 0 0)
(293.161 0 0)
(293.161 0 0)
(293.161 0 0)
(293.161 0 0)
(293.162 0 0)
(293.162 0 0)
(293.162 0 0)
(293.162 0 0)
(293.162 0 0)
(293.162 0 0)
(293.163 0 0)
(293.162 0 0)
(293.162 0 0)
(293.162 0 0)
(293.161 0 0)
(293.161 0 0)
(293.16 0 0)
(293.159 0 0)
(293.159 0 0)
(293.159 0 0)
(293.16 0 0)
(293.161 0 0)
(293.159 0 0)
(293.158 0 0)
(293.157 0 0)
(293.155 0 0)
(293.152 0 0)
(293.149 0 0)
(293.144 0 0)
(293.139 0 0)
(293.133 0 0)
(293.128 0 0)
(293.123 0 0)
(293.12 0 0)
(293.118 0 0)
(293.118 0 0)
(293.119 0 0)
(293.122 0 0)
(293.126 0 0)
(293.131 0 0)
(293.135 0 0)
(293.14 0 0)
(293.143 0 0)
(293.147 0 0)
(293.149 0 0)
(293.151 0 0)
(293.153 0 0)
(293.153 0 0)
(293.154 0 0)
(293.154 0 0)
(293.155 0 0)
(293.155 0 0)
(293.155 0 0)
(293.155 0 0)
(293.155 0 0)
(293.155 0 0)
(293.155 0 0)
(293.155 0 0)
(293.155 0 0)
(293.155 0 0)
(293.155 0 0)
(293.155 0 0)
(293.154 0 0)
(293.154 0 0)
(293.154 0 0)
(293.153 0 0)
(293.153 0 0)
(293.152 0 0)
(293.152 0 0)
(293.152 0 0)
(293.152 0 0)
(293.152 0 0)
(293.152 0 0)
(293.153 0 0)
(293.153 0 0)
(293.153 0 0)
(293.153 0 0)
(293.153 0 0)
(293.153 0 0)
(293.152 0 0)
(293.152 0 0)
(293.151 0 0)
(293.151 0 0)
(293.15 0 0)
(293.149 0 0)
(293.149 0 0)
(293.148 0 0)
(293.148 0 0)
(293.148 0 0)
(293.148 0 0)
(293.148 0 0)
(293.148 0 0)
(293.149 0 0)
(293.149 0 0)
(293.149 0 0)
(293.149 0 0)
(293.149 0 0)
(293.149 0 0)
(293.148 0 0)
(293.147 0 0)
(293.147 0 0)
(293.146 0 0)
(293.145 0 0)
(293.144 0 0)
(293.143 0 0)
(293.143 0 0)
(293.142 0 0)
(293.142 0 0)
(293.142 0 0)
(293.142 0 0)
(293.143 0 0)
(293.143 0 0)
(293.143 0 0)
(293.144 0 0)
(293.144 0 0)
(293.143 0 0)
(293.143 0 0)
(293.142 0 0)
(293.141 0 0)
(293.14 0 0)
(293.139 0 0)
(293.137 0 0)
(293.136 0 0)
(293.135 0 0)
(293.134 0 0)
(293.133 0 0)
(293.133 0 0)
(293.134 0 0)
(293.134 0 0)
(293.134 0 0)
(293.135 0 0)
(293.135 0 0)
(293.135 0 0)
(293.135 0 0)
(293.135 0 0)
(293.134 0 0)
(293.133 0 0)
(293.132 0 0)
(293.13 0 0)
(293.127 0 0)
(293.125 0 0)
(293.123 0 0)
(293.121 0 0)
(293.12 0 0)
(293.12 0 0)
(293.121 0 0)
(293.122 0 0)
(293.121 0 0)
(293.12 0 0)
(293.117 0 0)
(293.114 0 0)
(293.109 0 0)
(293.103 0 0)
(293.09 0 0)
(293.07 0 0)
(293.027 0 0)
(292.97 0 0)
(292.839 0 0)
(292.717 0 0)
(292.319 0 0)
(291.836 0 0)
(290.382 0 0)
(287.462 0 0)
(280.488 0 0)
(263.331 0 0)
(225.703 0 0)
(159.86 0 0)
(84.3246 0 0)
(31.8897 0 0)
(9.28303 0 0)
(2.26146 0 0)
(0.493489 0 0)
(0.102812 0 0)
(0.0211378 0 0)
(0.00433342 0 0)
(0.000887953 0 0)
(0.000181937 0 0)
(3.72781e-05 0 0)
(7.63814e-06 0 0)
(1.56503e-06 0 0)
(3.20673e-07 0 0)
(6.57055e-08 0 0)
(1.34635e-08 0 0)
(2.7588e-09 0 0)
(5.65857e-10 0 0)
(1.16538e-10 0 0)
(2.44192e-11 0 0)
(5.65988e-12 0 0)
(1.63378e-12 0 0)
(1.16699e-12 0 0)
(1.60461e-13 0 0)
(2.77159e-13 0 0)
(1.31286e-13 0 0)
(3.06334e-13 0 0)
(4.08445e-13 0 0)
(-1.89635e-13 0 0)
(2.91746e-13 0 0)
(6.71017e-13 0 0)
(2.04222e-13 0 0)
(3.7927e-13 0 0)
(6.12667e-13 0 0)
(9.91938e-13 0 0)
(7.14779e-13 0 0)
(1.07946e-12 0 0)
(5.54318e-13 0 0)
(1.05029e-12 0 0)
(1.47332e-12 0 0)
(1.59002e-12 0 0)
(1.12322e-12 0 0)
(1.1524e-12 0 0)
(1.16699e-12 0 0)
(1.63378e-12 0 0)
(1.23992e-12 0 0)
(1.79424e-12 0 0)
(8.75239e-13 0 0)
(1.73589e-12 0 0)
(1.12322e-12 0 0)
(1.19616e-12 0 0)
(1.19616e-12 0 0)
(1.02111e-12 0 0)
(7.29366e-13 0 0)
(1.60461e-13 0 0)
(5.25144e-13 0 0)
(5.68906e-13 0 0)
(1.12322e-12 0 0)
(5.83493e-13 0 0)
(2.04222e-13 0 0)
(-1.45873e-14 0 0)
(-3.7927e-13 0 0)
(-8.60652e-13 0 0)
(1.45873e-14 0 0)
(-8.75239e-13 0 0)
(-3.93858e-13 0 0)
(-1.31286e-13 0 0)
(-1.31286e-13 0 0)
(1.45873e-14 0 0)
(-5.83493e-14 0 0)
(-4.23032e-13 0 0)
(-4.52207e-13 0 0)
(-3.35508e-13 0 0)
(-4.95969e-13 0 0)
(2.91746e-14 0 0)
(-2.62572e-13 0 0)
(-2.1881e-13 0 0)
(-2.91746e-14 0 0)
(2.47984e-13 0 0)
(5.68906e-13 0 0)
(2.47984e-13 0 0)
(4.52207e-13 0 0)
(3.35508e-13 0 0)
(9.04414e-13 0 0)
(7.58541e-13 0 0)
(5.54318e-13 0 0)
(6.56429e-13 0 0)
(-2.04222e-13 0 0)
(5.9808e-13 0 0)
(2.04222e-13 0 0)
(3.20921e-13 0 0)
(-4.3762e-14 0 0)
(5.83493e-14 0 0)
(2.33397e-13 0 0)
(5.54318e-13 0 0)
(5.83493e-13 0 0)
(3.35508e-13 0 0)
(-1.89635e-13 0 0)
(4.52207e-13 0 0)
(5.10556e-13 0 0)
(1.75048e-13 0 0)
(-1.16699e-13 0 0)
(7.29366e-14 0 0)
(3.7927e-13 0 0)
(7.29366e-14 0 0)
(5.54318e-13 0 0)
(4.81382e-13 0 0)
(6.12667e-13 0 0)
(8.75239e-13 0 0)
(3.7927e-13 0 0)
(7.87715e-13 0 0)
(9.77351e-13 0 0)
(5.25144e-13 0 0)
(-2.33397e-13 0 0)
(-2.62572e-13 0 0)
(2.04222e-13 0 0)
(2.04222e-13 0 0)
(2.62572e-13 0 0)
(3.20921e-13 0 0)
(8.1689e-13 0 0)
(5.10556e-13 0 0)
(1.23992e-12 0 0)
(7.14779e-13 0 0)
(3.50096e-13 0 0)
(7.29366e-13 0 0)
(6.27255e-13 0 0)
(1.13781e-12 0 0)
(8.75239e-13 0 0)
(7.43953e-13 0 0)
(-1.45873e-13 0 0)
(7.73128e-13 0 0)
(6.56429e-13 0 0)
(7.43953e-13 0 0)
(5.9808e-13 0 0)
(2.1881e-13 0 0)
(-5.83493e-14 0 0)
(2.77159e-13 0 0)
(2.1881e-13 0 0)
(1.00337e-26 0 0)
(5.9808e-13 0 0)
(-7.29366e-14 0 0)
(3.20921e-13 0 0)
(5.9808e-13 0 0)
(1.45873e-13 0 0)
(6.12667e-13 0 0)
(-4.3762e-14 0 0)
(2.91746e-14 0 0)
(4.52207e-13 0 0)
(5.25144e-13 0 0)
(2.33397e-13 0 0)
(5.83493e-14 0 0)
(-7.29366e-14 0 0)
(3.64683e-13 0 0)
(7.29366e-14 0 0)
(5.9808e-13 0 0)
(3.7927e-13 0 0)
(-3.64683e-13 0 0)
(5.54318e-13 0 0)
(3.64683e-13 0 0)
(3.35508e-13 0 0)
(2.04222e-13 0 0)
(-1.60461e-13 0 0)
(6.12667e-13 0 0)
(3.50096e-13 0 0)
(6.85604e-13 0 0)
(2.1881e-13 0 0)
(2.1881e-13 0 0)
(5.39731e-13 0 0)
(3.64683e-13 0 0)
(-1.02111e-13 0 0)
(1.45873e-13 0 0)
(-2.91746e-14 0 0)
(4.52207e-13 0 0)
(7.58541e-13 0 0)
(1.45873e-13 0 0)
(8.02303e-13 0 0)
(4.66794e-13 0 0)
(1.31286e-13 0 0)
(1.45873e-14 0 0)
(-1.75048e-13 0 0)
(2.91746e-14 0 0)
(-2.77159e-13 0 0)
(-5.25144e-13 0 0)
(-5.39731e-13 0 0)
(-3.93858e-13 0 0)
(-3.7927e-13 0 0)
(-3.64683e-13 0 0)
(-6.71017e-13 0 0)
(-3.7927e-13 0 0)
(-4.66794e-13 0 0)
(-6.27255e-13 0 0)
(-7.29366e-14 0 0)
(-5.83493e-13 0 0)
(2.33397e-13 0 0)
(6.71017e-13 0 0)
(8.1689e-13 0 0)
(1.16699e-13 0 0)
(1.45873e-14 0 0)
(2.62572e-13 0 0)
(-7.29366e-14 0 0)
(8.75239e-14 0 0)
(-5.83493e-14 0 0)
(4.08445e-13 0 0)
(2.91746e-14 0 0)
(1.10864e-12 0 0)
(4.81382e-13 0 0)
(8.89827e-13 0 0)
(5.25144e-13 0 0)
(8.1689e-13 0 0)
(2.04222e-13 0 0)
(7.73128e-13 0 0)
(6.71017e-13 0 0)
(1.02111e-12 0 0)
(1.60461e-13 0 0)
(-1.60461e-13 0 0)
(-1.75048e-13 0 0)
(1.16699e-12 0 0)
(3.7927e-13 0 0)
(2.91746e-13 0 0)
(-1.94011e-12 0 0)
(3.12169e-12 0 0)
(3.28215e-12 0 0)
(4.66794e-13 0 0)
)
;

boundaryField
{
    sides
    {
        type            zeroGradient;
    }
    empty
    {
        type            empty;
    }
}


// ************************************************************************* //
