/*--------------------------------*- C++ -*----------------------------------*\
  =========                 |
  \\      /  F ield         | OpenFOAM: The Open Source CFD Toolbox
   \\    /   O peration     | Website:  https://openfoam.org
    \\  /    A nd           | Version:  6
     \\/     M anipulation  |
\*---------------------------------------------------------------------------*/
FoamFile
{
    version     2.0;
    format      ascii;
    class       volScalarField;
    location    "18.5";
    object      p;
}
// * * * * * * * * * * * * * * * * * * * * * * * * * * * * * * * * * * * * * //

dimensions      [0 2 -2 0 0 0 0];

internalField   nonuniform List<scalar> 
8800
(
0.427249
0.377938
0.339978
0.311912
0.291749
0.277145
0.266525
0.258956
0.25401
0.251793
0.252911
0.256972
0.263524
0.272758
0.285365
0.302593
0.326401
0.35945
0.402356
0.454857
0.261733
0.268081
0.277239
0.280802
0.278206
0.272129
0.265197
0.258923
0.254045
0.25106
0.250622
0.252952
0.257346
0.263278
0.270202
0.277098
0.281878
0.281678
0.274949
0.266021
0.235232
0.241482
0.246004
0.249907
0.252894
0.253881
0.252807
0.25067
0.248588
0.247537
0.248312
0.250491
0.25311
0.255137
0.255461
0.253506
0.250016
0.245911
0.241071
0.237342
0.230899
0.233681
0.23635
0.238581
0.240394
0.242025
0.243167
0.243478
0.243192
0.243013
0.243544
0.244453
0.244923
0.244496
0.243263
0.241689
0.239835
0.237379
0.234879
0.23331
0.225862
0.227301
0.229209
0.231373
0.233149
0.234469
0.235534
0.23645
0.237166
0.237671
0.238033
0.238089
0.237763
0.237139
0.23623
0.23489
0.23302
0.230948
0.229495
0.228696
0.220921
0.221829
0.223183
0.224952
0.226771
0.228374
0.229684
0.230791
0.231762
0.232549
0.232896
0.23279
0.232363
0.231599
0.230468
0.228957
0.227288
0.225766
0.224825
0.224319
0.216196
0.216846
0.217982
0.219564
0.22128
0.223054
0.224726
0.226109
0.227195
0.22805
0.228535
0.228535
0.228031
0.227023
0.225652
0.224169
0.222694
0.221405
0.220673
0.220326
0.211867
0.212342
0.213331
0.214805
0.216398
0.218038
0.219733
0.221391
0.222833
0.223917
0.224508
0.224428
0.223754
0.222717
0.221514
0.22023
0.218896
0.217762
0.217177
0.216936
0.207858
0.208173
0.209034
0.210386
0.211864
0.213329
0.214757
0.216221
0.217696
0.219023
0.219736
0.219799
0.219439
0.218813
0.217949
0.216875
0.215712
0.214721
0.214269
0.214126
0.204651
0.20483
0.205559
0.20682
0.208247
0.209759
0.21138
0.212965
0.214478
0.215865
0.216868
0.217258
0.21709
0.216474
0.215643
0.214703
0.213672
0.212837
0.212519
0.212455
0.202212
0.202309
0.202768
0.203664
0.204753
0.205934
0.207219
0.208731
0.210402
0.212087
0.213362
0.213993
0.214157
0.214049
0.213704
0.213188
0.212601
0.212153
0.212001
0.211966
0.199665
0.199744
0.200018
0.200582
0.201376
0.202405
0.203668
0.20517
0.206896
0.208797
0.210467
0.211568
0.21215
0.212333
0.212322
0.212229
0.212064
0.211951
0.211895
0.211859
0.196333
0.196408
0.196636
0.197069
0.197756
0.198693
0.199969
0.201614
0.203637
0.20595
0.208062
0.209541
0.210479
0.210967
0.211268
0.211488
0.211621
0.21167
0.211652
0.211614
0.192135
0.192192
0.19244
0.192905
0.193552
0.194547
0.195935
0.197764
0.20008
0.202866
0.205553
0.207574
0.208916
0.209891
0.210559
0.210939
0.211202
0.2113
0.211307
0.211275
0.187229
0.187271
0.187545
0.188137
0.188981
0.190113
0.191771
0.193968
0.196779
0.200199
0.203582
0.206198
0.208049
0.20931
0.210169
0.210732
0.211038
0.211164
0.211206
0.211185
0.181725
0.181756
0.182058
0.182769
0.183845
0.185198
0.187166
0.189807
0.193212
0.197433
0.201703
0.205069
0.207506
0.209215
0.210346
0.211084
0.211469
0.211664
0.211745
0.211727
0.175603
0.175635
0.17595
0.176747
0.178019
0.179769
0.182158
0.185345
0.189531
0.194775
0.200129
0.204402
0.207518
0.209681
0.211195
0.212145
0.212702
0.213005
0.21312
0.213099
0.168612
0.168651
0.169057
0.169923
0.171397
0.173507
0.176412
0.180365
0.185575
0.192117
0.198814
0.204204
0.208094
0.210911
0.212813
0.214065
0.214837
0.215264
0.215413
0.215387
0.160317
0.160365
0.160837
0.161925
0.163668
0.166235
0.169839
0.174786
0.181307
0.189486
0.19785
0.204558
0.209491
0.212975
0.215376
0.216982
0.217999
0.218559
0.218745
0.21871
0.150246
0.150309
0.150914
0.152251
0.154448
0.157665
0.162218
0.168452
0.176648
0.186888
0.197302
0.205629
0.211734
0.216046
0.219036
0.221054
0.222344
0.223045
0.223274
0.223229
0.137883
0.137967
0.138757
0.140485
0.143302
0.147423
0.153238
0.161167
0.171529
0.18435
0.197266
0.207531
0.21501
0.220317
0.224006
0.226509
0.228112
0.228977
0.229257
0.229199
0.122456
0.122575
0.123629
0.125923
0.129642
0.135035
0.142588
0.152788
0.165931
0.181946
0.197863
0.210407
0.219519
0.225998
0.230519
0.233606
0.23559
0.236645
0.236981
0.236909
0.102791
0.102956
0.104422
0.107606
0.11269
0.119947
0.129956
0.143197
0.159886
0.179798
0.199253
0.21444
0.225453
0.233309
0.238826
0.242625
0.245085
0.246397
0.246797
0.2467
0.0771091
0.0773709
0.0795437
0.084198
0.0914198
0.101485
0.114997
0.132327
0.153504
0.178083
0.201609
0.219794
0.232982
0.242447
0.249162
0.253838
0.256887
0.258508
0.258988
0.258862
0.0423522
0.0428598
0.0464445
0.0538094
0.0646345
0.0790834
0.0976211
0.120356
0.147047
0.177036
0.205104
0.226595
0.24221
0.253529
0.261685
0.267472
0.271297
0.273323
0.27389
0.27372
-0.00744439
-0.0058094
0.00148967
0.0144097
0.031553
0.0527806
0.0782479
0.107779
0.14094
0.17695
0.209897
0.234901
0.253125
0.266505
0.276357
0.283537
0.288429
0.291063
0.291767
0.291529
-0.0811601
-0.0723011
-0.0557348
-0.0329011
-0.00628519
0.0239339
0.0578167
0.0951625
0.135521
0.178134
0.216446
0.245405
0.266691
0.282606
0.294711
0.30396
0.31054
0.314343
0.315517
0.315454
-0.159125
-0.140656
-0.113983
-0.0807606
-0.0443701
-0.00505513
0.0373293
0.0826918
0.130681
0.180676
0.225438
0.259473
0.284843
0.30424
0.319375
0.331375
0.34046
0.346273
0.348307
0.348403
-0.223948
-0.201809
-0.167094
-0.125349
-0.0803973
-0.0326157
0.0179268
0.0710366
0.126374
0.183373
0.234082
0.272608
0.301442
0.323627
0.341102
0.354952
0.365678
0.372525
0.374516
0.374777
-0.275916
-0.251523
-0.211826
-0.16419
-0.112602
-0.0578458
-0.000227524
0.0598849
0.122007
0.185447
0.241461
0.283757
0.31525
0.339354
0.358208
0.373127
0.384554
0.391878
0.394317
0.394713
-0.318455
-0.292979
-0.249803
-0.197587
-0.140793
-0.080405
-0.0168772
0.0492906
0.117448
0.186669
0.247348
0.292762
0.326226
0.351576
0.371204
0.386623
0.398343
0.405884
0.408566
0.408925
-0.354716
-0.328635
-0.282954
-0.22705
-0.165952
-0.100837
-0.0322351
0.0392482
0.11275
0.187188
0.252009
0.300093
0.335162
0.361421
0.381508
0.397071
0.408773
0.416251
0.419083
0.419443
-0.38672
-0.36028
-0.312672
-0.253707
-0.188967
-0.119753
-0.0466851
0.0295375
0.10791
0.187143
0.255887
0.306492
0.343003
0.36999
0.390351
0.405925
0.417542
0.42496
0.427865
0.428221
-0.415908
-0.389161
-0.33993
-0.2784
-0.21054
-0.137756
-0.0606893
0.019855
0.102785
0.1866
0.259109
0.312111
0.349997
0.377699
0.39837
0.414021
0.425598
0.432911
0.435845
0.436205
-0.443156
-0.416137
-0.365516
-0.301746
-0.231153
-0.155197
-0.0745413
0.00993595
0.097115
0.185308
0.261521
0.317053
0.356468
0.385027
0.406111
0.421907
0.43349
0.440685
0.443582
0.443996
-0.469147
-0.441791
-0.389913
-0.324131
-0.251124
-0.172372
-0.088507
-0.00042117
0.0907152
0.183191
0.263291
0.321552
0.362673
0.392242
0.413865
0.4299
0.441535
0.448654
0.451461
0.451868
-0.494148
-0.466442
-0.413432
-0.345866
-0.270727
-0.189462
-0.102698
-0.0113065
0.0835935
0.180303
0.264372
0.325583
0.368671
0.399462
0.421804
0.438211
0.449976
0.457049
0.45972
0.460057
-0.518489
-0.49035
-0.436302
-0.367124
-0.290067
-0.206546
-0.117164
-0.0227337
0.0756902
0.176475
0.264615
0.329083
0.374468
0.406746
0.429995
0.44691
0.458884
0.465939
0.468458
0.468699
-0.542221
-0.513638
-0.458616
-0.38799
-0.309231
-0.2237
-0.131966
-0.0347722
0.0668908
0.17162
0.263949
0.331946
0.37997
0.414051
0.438437
0.456012
0.468278
0.475335
0.477713
0.477817
-0.565406
-0.536359
-0.480439
-0.408515
-0.328237
-0.240924
-0.147103
-0.0474483
0.0572072
0.165701
0.262227
0.334027
0.385053
0.4213
0.447091
0.465488
0.478104
0.485133
0.487354
0.487328
-0.588079
-0.558567
-0.50177
-0.428675
-0.34706
-0.258178
-0.162526
-0.0606798
0.0466733
0.158662
0.259321
0.335131
0.389568
0.428396
0.455904
0.47529
0.488303
0.495256
0.497269
0.49712
-0.610255
-0.580214
-0.522583
-0.448441
-0.36565
-0.275408
-0.178158
-0.0744074
0.0353178
0.150486
0.255124
0.33504
0.393259
0.435178
0.464828
0.4854
0.498804
0.50559
0.507314
0.507046
-0.631776
-0.601243
-0.542834
-0.467774
-0.383954
-0.29253
-0.193924
-0.088549
0.0232172
0.141206
0.249554
0.333565
0.395814
0.441389
0.473808
0.495873
0.509546
0.515903
0.51723
0.516844
-0.652597
-0.621609
-0.562481
-0.486608
-0.401897
-0.309471
-0.209726
-0.103009
0.010478
0.130874
0.242565
0.330526
0.396927
0.446657
0.482711
0.506958
0.520781
0.5261
0.526729
0.526244
-0.672765
-0.641272
-0.581495
-0.5049
-0.419412
-0.326147
-0.225464
-0.117665
-0.00279445
0.119578
0.23415
0.325795
0.396253
0.450424
0.491122
0.518965
0.533444
0.536677
0.535569
0.534975
-0.692128
-0.660202
-0.599819
-0.522584
-0.43644
-0.342471
-0.241037
-0.132401
-0.0164662
0.107456
0.224354
0.319285
0.393515
0.451993
0.498112
0.531607
0.549135
0.550554
0.545079
0.541744
-0.710763
-0.678408
-0.617461
-0.539687
-0.453008
-0.358487
-0.256501
-0.147278
-0.0306076
0.0944396
0.213051
0.310755
0.388425
0.450555
0.502148
0.543231
0.567686
0.572744
0.561878
0.555323
-0.728609
-0.695952
-0.634555
-0.556393
-0.469404
-0.374529
-0.272267
-0.162788
-0.0457863
0.0798418
0.199504
0.299282
0.380224
0.444818
0.500142
0.548777
0.580077
0.583817
0.573397
0.559145
-0.745555
-0.712821
-0.650951
-0.572496
-0.48541
-0.390304
-0.288116
-0.178597
-0.0616654
0.0639858
0.183951
0.284613
0.368588
0.434299
0.48745
0.536843
0.568065
0.559398
0.497454
0.464597
-0.761504
-0.729732
-0.666208
-0.587502
-0.500424
-0.405357
-0.303798
-0.19445
-0.0779681
0.0470738
0.166529
0.266577
0.352848
0.419996
0.462009
0.498322
0.512104
0.471471
0.404248
0.361608
-0.803129
-0.745661
-0.680293
-0.602144
-0.515145
-0.42053
-0.319199
-0.210446
-0.0948594
0.0288516
0.14695
0.245066
0.330503
0.403251
0.419004
0.426677
0.403665
0.34788
0.275033
0.234843
-0.776679
-0.758891
-0.70122
-0.624157
-0.537112
-0.443074
-0.342775
-0.235275
-0.121534
-0.000737151
0.11365
0.207535
0.284481
0.353785
0.356946
0.254643
0.161285
0.0987608
0.030762
0.069139
-0.806133
-0.775468
-0.717173
-0.640135
-0.553567
-0.460075
-0.359917
-0.253453
-0.141311
-0.0231805
0.0874021
0.17683
0.24497
0.281435
0.234961
0.0916926
-0.0263308
-0.104642
-0.195426
-0.133917
-0.828485
-0.795532
-0.735558
-0.65832
-0.572022
-0.478762
-0.378984
-0.273685
-0.163423
-0.0484513
0.0574469
0.140799
0.197635
0.200123
0.0878521
-0.0906544
-0.237216
-0.338428
-0.450003
-0.40198
-0.849841
-0.815948
-0.754768
-0.677031
-0.59072
-0.497698
-0.398636
-0.29464
-0.186444
-0.0749692
0.0254629
0.101723
0.142718
0.105605
-0.0703752
-0.28111
-0.472248
-0.632972
-0.776559
-0.735884
-0.870582
-0.836478
-0.77461
-0.696444
-0.61006
-0.517345
-0.419118
-0.316533
-0.210643
-0.103028
-0.00867529
0.0596968
0.080633
0.000446331
-0.228451
-0.469696
-0.702245
-0.901472
-1.15471
-1.24688
-0.891375
-0.857523
-0.795343
-0.716891
-0.630433
-0.537986
-0.440534
-0.339352
-0.235856
-0.132293
-0.0442984
0.0150718
0.0145383
-0.12474
-0.374415
-0.637669
-0.887803
-1.0983
-1.26743
-1.4626
-0.913067
-0.879456
-0.81723
-0.738678
-0.652262
-0.560166
-0.463573
-0.363951
-0.26316
-0.164132
-0.0830663
-0.0339689
-0.0651721
-0.257247
-0.51151
-0.776565
-1.00769
-1.14461
-1.18333
-1.20144
-0.935846
-0.902482
-0.840327
-0.761829
-0.675602
-0.584003
-0.488457
-0.390704
-0.293008
-0.199104
-0.125592
-0.0889848
-0.153455
-0.384722
-0.637472
-0.882822
-1.0703
-1.12562
-1.14183
-1.14317
-0.95995
-0.92667
-0.864606
-0.78625
-0.70032
-0.609403
-0.515078
-0.419536
-0.32531
-0.237056
-0.172003
-0.15194
-0.246584
-0.507978
-0.751624
-0.973
-1.10328
-1.12173
-1.12106
-1.12068
-0.98521
-0.952004
-0.890008
-0.811847
-0.726329
-0.636226
-0.543309
-0.450261
-0.359932
-0.27771
-0.222341
-0.217338
-0.353804
-0.625394
-0.856598
-1.04093
-1.10454
-1.10969
-1.10904
-1.10802
-1.01139
-0.978233
-0.916349
-0.838444
-0.753436
-0.664259
-0.572964
-0.482558
-0.396753
-0.32054
-0.276324
-0.285695
-0.468429
-0.744253
-0.956111
-1.07754
-1.09235
-1.09971
-1.10212
-1.10177
-1.03783
-1.00494
-0.943322
-0.865731
-0.781331
-0.693197
-0.603659
-0.515977
-0.43533
-0.364996
-0.332256
-0.363673
-0.569755
-0.8663
-1.07474
-1.10166
-1.11369
-1.10293
-1.09523
-1.09434
-1.06394
-1.03159
-0.97043
-0.893255
-0.809539
-0.722579
-0.634829
-0.549923
-0.474702
-0.410864
-0.386945
-0.450899
-0.656439
-0.969625
-1.2657
-1.24814
-1.18152
-1.1388
-1.1131
-1.10374
-1.08916
-1.05747
-0.997008
-0.920385
-0.837442
-0.751713
-0.665829
-0.583505
-0.513354
-0.45786
-0.438264
-0.540148
-0.754509
-0.9939
-1.39424
-1.46927
-1.34551
-1.29626
-1.25861
-1.23674
-1.11243
-1.08168
-1.02224
-0.94632
-0.864273
-0.779679
-0.695754
-0.615697
-0.549077
-0.504897
-0.486322
-0.615804
-0.872661
-0.92518
-1.02328
-1.1266
-1.40334
-1.53879
-1.50392
-1.48544
-1.13237
-1.10308
-1.04509
-0.970139
-0.889023
-0.805562
-0.723121
-0.645517
-0.579804
-0.547539
-0.531172
-0.672457
-0.976659
-0.967045
-0.654245
-0.870991
-1.31917
-1.48295
-1.48831
-1.49665
-1.14774
-1.12042
-1.06443
-0.990723
-0.910569
-0.828249
-0.746469
-0.671079
-0.60491
-0.576551
-0.583514
-0.707533
-1.19551
-1.54187
-1.69302
-1.99607
-2.09687
-1.84075
-1.65185
-1.65592
-1.15752
-1.13261
-1.07913
-1.00693
-0.927816
-0.846172
-0.76508
-0.689483
-0.623665
-0.588461
-0.600537
-0.787943
-1.44604
-2.41075
-3.07641
-3.41848
-3.34203
-3.02315
-2.62608
-2.47819
-1.16005
-1.13821
-1.08815
-1.01774
-0.939502
-0.858355
-0.777408
-0.699711
-0.631645
-0.58714
-0.582478
-0.828261
-1.40922
-2.41123
-3.22028
-3.47643
-3.48779
-3.29008
-3.01513
-2.81375
-1.15493
-1.13676
-1.09057
-1.02233
-0.944806
-0.864039
-0.782184
-0.701413
-0.628969
-0.556799
-0.555965
-0.570251
-1.03487
-1.56135
-2.22608
-2.37215
-2.08761
-1.70278
-1.40838
-1.26316
-1.14106
-1.12661
-1.08552
-1.02004
-0.943445
-0.862587
-0.77914
-0.695558
-0.610262
-0.518316
-0.448796
-0.310469
-0.302409
-0.178837
0.140726
0.501616
0.926921
1.25794
1.43568
1.50391
-1.11894
-1.10844
-1.07283
-1.01047
-0.934641
-0.85384
-0.770099
-0.682685
-0.58586
-0.476431
-0.336201
-0.214768
0.139496
0.680849
1.36145
2.04003
2.52167
2.80494
2.93643
2.9755
-1.08883
-1.08207
-1.05217
-0.99332
-0.917956
-0.839393
-0.756847
-0.667676
-0.566954
-0.437486
-0.286715
-0.148618
0.066304
0.616128
1.27938
1.8594
2.27408
2.51448
2.62699
2.66302
-1.04882
-1.04529
-1.02085
-0.965347
-0.894382
-0.8189
-0.740424
-0.656542
-0.557732
-0.425987
-0.262911
-0.132241
-0.0186349
0.34456
0.834988
1.25563
1.56341
1.74866
1.84682
1.8825
-0.992749
-0.990486
-0.971694
-0.924086
-0.860335
-0.793177
-0.725697
-0.654725
-0.56618
-0.443473
-0.268785
-0.133671
-0.00247297
0.186805
0.478951
0.742581
0.947395
1.08664
1.15949
1.18262
-0.911091
-0.909368
-0.896358
-0.862628
-0.814742
-0.76375
-0.714
-0.663126
-0.59712
-0.480812
-0.319967
-0.180962
-0.0112117
0.106665
0.284954
0.455184
0.584153
0.673018
0.72323
0.740841
-0.826285
-0.824316
-0.816139
-0.796608
-0.767863
-0.73683
-0.7081
-0.68233
-0.65015
-0.572346
-0.443968
-0.315837
-0.129414
-0.0315559
0.0689487
0.197607
0.290554
0.355201
0.386138
0.392667
-0.764184
-0.762782
-0.758354
-0.749342
-0.736197
-0.723877
-0.718414
-0.72709
-0.75135
-0.772562
-0.725576
-0.579412
-0.350427
-0.250203
-0.169889
-0.0676802
0.0285195
0.0922793
0.126013
0.130871
-0.72474
-0.724649
-0.723812
-0.721635
-0.72026
-0.724924
-0.744868
-0.797663
-0.913199
-1.10186
-1.22981
-1.04874
-0.708379
-0.518851
-0.39745
-0.282445
-0.176052
-0.106748
-0.0738563
-0.0735333
-0.688951
-0.690301
-0.692113
-0.695104
-0.703058
-0.722612
-0.767261
-0.868741
-1.10183
-1.53183
-1.89844
-1.67619
-1.19084
-0.909248
-0.718274
-0.524112
-0.37842
-0.284782
-0.250367
-0.25261
-0.637936
-0.640189
-0.643979
-0.65078
-0.665162
-0.694836
-0.756482
-0.892525
-1.21209
-1.85136
-2.36283
-2.07462
-1.50474
-1.17341
-0.917278
-0.705525
-0.558115
-0.478941
-0.455369
-0.456232
-0.563693
-0.566213
-0.570753
-0.579061
-0.595115
-0.626646
-0.689921
-0.827073
-1.14978
-1.80294
-2.2926
-1.9914
-1.52772
-1.22168
-0.960692
-0.788194
-0.704423
-0.675114
-0.662706
-0.65924
-0.468282
-0.470391
-0.474387
-0.481481
-0.49486
-0.520265
-0.569861
-0.674583
-0.916017
-1.40289
-1.77251
-1.59389
-1.29452
-1.03101
-0.842946
-0.751415
-0.738632
-0.742583
-0.735641
-0.730296
-0.36227
-0.363594
-0.366264
-0.370728
-0.379039
-0.394295
-0.423176
-0.481967
-0.612053
-0.874672
-1.08527
-0.98397
-0.805637
-0.641849
-0.567333
-0.576578
-0.610495
-0.626441
-0.626965
-0.624372
-0.258932
-0.259476
-0.260758
-0.262738
-0.266199
-0.272094
-0.282619
-0.302972
-0.345138
-0.42427
-0.484913
-0.43534
-0.340589
-0.309595
-0.349522
-0.396256
-0.426835
-0.440234
-0.443596
-0.443761
-0.169048
-0.169054
-0.169396
-0.169765
-0.17009
-0.170065
-0.169425
-0.167964
-0.165105
-0.155225
-0.128185
-0.0895738
-0.0941445
-0.137569
-0.192626
-0.235628
-0.258687
-0.269805
-0.274278
-0.275342
-0.0981564
-0.0979024
-0.0978077
-0.097498
-0.0964407
-0.0938509
-0.0886892
-0.0792516
-0.0628778
-0.0359862
-0.00741105
0.00407244
-0.0171724
-0.0575277
-0.0966851
-0.12492
-0.140569
-0.148249
-0.152056
-0.153266
-0.0467272
-0.0464152
-0.046215
-0.0458207
-0.0445705
-0.0415595
-0.035762
-0.0257078
-0.00952322
0.0133331
0.0315452
0.0308845
0.0115484
-0.0164548
-0.0414318
-0.0587324
-0.0685823
-0.0736895
-0.0763471
-0.0772437
-0.0120911
-0.011828
-0.0116822
-0.011472
-0.0105687
-0.00818605
-0.00348022
0.00456816
0.0167865
0.0321624
0.0416453
0.0372135
0.0226807
0.00484616
-0.010508
-0.0212222
-0.0275574
-0.030925
-0.0326567
-0.0332417
0.00959409
0.0097743
0.00981932
0.00978357
0.0102198
0.0117358
0.0149041
0.0203439
0.0283653
0.0376128
0.0418391
0.0371511
0.0270576
0.0158098
0.00626657
-0.00056387
-0.00479563
-0.00708538
-0.00819071
-0.0085509
0.0220208
0.022123
0.0220756
0.0218512
0.0218903
0.0226542
0.0245332
0.0278603
0.0326362
0.0377092
0.0391287
0.0351083
0.0281976
0.0209587
0.0148561
0.010355
0.00743709
0.0058358
0.00509975
0.00487626
0.0281567
0.0282023
0.0280868
0.0277309
0.0274998
0.0277002
0.0286002
0.0303939
0.0329919
0.0354794
0.0354436
0.0321912
0.027441
0.0226681
0.0186431
0.015598
0.0135517
0.0124202
0.0119289
0.0117803
0.030143
0.0301533
0.0299998
0.0295872
0.0291979
0.0290415
0.0292968
0.0300597
0.0312303
0.0321864
0.0315043
0.0289463
0.0256143
0.0223689
0.0196324
0.0175211
0.0160631
0.0152538
0.0149185
0.0148198
0.029456
0.029447
0.0292845
0.0288743
0.0284227
0.0280776
0.0279586
0.028116
0.0284576
0.0285536
0.0275911
0.02556
0.0231632
0.020894
0.0189815
0.0174849
0.016431
0.0158461
0.0156137
0.0155471
0.0270943
0.0270771
0.0269239
0.0265469
0.0260939
0.0256706
0.0253534
0.0251664
0.0250417
0.0246993
0.0236895
0.0220882
0.0203359
0.0187148
0.0173516
0.0162757
0.0155085
0.0150831
0.0149198
0.0148744
0.0237065
0.0236878
0.0235556
0.0232294
0.0228159
0.0223901
0.0220017
0.0216617
0.0213193
0.0207935
0.0198499
0.018592
0.0172962
0.016122
0.0151381
0.0143576
0.0137964
0.0134853
0.0133695
0.013338
0.0197003
0.0196836
0.019577
0.0193092
0.0189544
0.0185706
0.0181875
0.0178102
0.0174036
0.0168526
0.0160426
0.0150758
0.0141242
0.0132755
0.0125663
0.0120008
0.011591
0.0113646
0.011283
0.0112613
0.015324
0.0153105
0.0152296
0.0150218
0.0147375
0.0144222
0.0140936
0.0137538
0.0133793
0.0128986
0.0122615
0.011552
0.0108749
0.0102769
0.00977643
0.00937365
0.00907917
0.00891757
0.00886163
0.00884687
0.0107299
0.0107197
0.0106621
0.0105121
0.0103041
0.0100732
0.0098298
0.00957376
0.00929013
0.0089373
0.00849483
0.0080215
0.00757806
0.00718741
0.0068571
0.00658619
0.00638481
0.00627496
0.00623814
0.00622814
0.00600944
0.00600237
0.00596701
0.00587376
0.00574839
0.00561458
0.00547516
0.00532859
0.00516667
0.00496976
0.00472911
0.0044762
0.0042417
0.00403422
0.00385563
0.0037036
0.00358579
0.00352149
0.00350027
0.00349323
0.00122918
0.00123257
0.00125052
0.00125859
0.00123774
0.00120412
0.00116596
0.00112603
0.00108202
0.00102896
0.000964836
0.000896672
0.000833649
0.000777709
0.000730409
0.000691752
0.000664339
0.000657382
0.00067117
0.000680594
-0.577705
-0.348596
-0.132246
0.0454437
0.191865
0.311545
0.414067
0.498123
0.524272
0.520323
-0.216934
-0.0679572
0.0707597
0.19188
0.295538
0.382794
0.452641
0.500866
0.526984
0.542959
0.0268186
0.123765
0.220411
0.306172
0.380046
0.441717
0.490443
0.527128
0.553467
0.572605
0.19944
0.267951
0.337534
0.399907
0.453822
0.499482
0.537324
0.568245
0.591347
0.610379
0.334645
0.385163
0.436088
0.483027
0.524598
0.561007
0.592441
0.618726
0.638375
0.656642
0.445512
0.485093
0.524468
0.562411
0.597093
0.628192
0.655424
0.678064
0.694999
0.712636
0.540107
0.575099
0.6102
0.643909
0.675196
0.703476
0.728133
0.748237
0.762955
0.780125
0.631574
0.665878
0.700188
0.733064
0.763293
0.790306
0.813426
0.831719
0.844663
0.86133
0.728806
0.76635
0.802313
0.835829
0.865908
0.892024
0.913776
0.930576
0.942535
0.958781
0.843738
0.885241
0.922921
0.956387
0.985384
1.00986
1.0299
1.0455
1.05762
1.07376
0.986525
1.02777
1.06343
1.09335
1.11887
1.1408
1.15957
1.17526
1.18852
1.20452
1.15856
1.19072
1.218
1.24066
1.26099
1.2799
1.2978
1.3147
1.32971
1.34547
1.34508
1.36239
1.37966
1.39654
1.41278
1.42763
1.44163
1.45619
1.47149
1.48883
1.52878
1.53873
1.55197
1.563
1.57246
1.58221
1.59292
1.60317
1.61252
1.63821
1.74677
1.7411
1.72815
1.71389
1.70766
1.71345
1.73162
1.76018
1.79398
1.83032
2.04953
1.91356
1.83415
1.79179
1.7745
1.77846
1.80595
1.86382
1.97149
2.1499
0.330937
0.324638
0.316914
0.305807
0.292242
0.279596
0.269192
0.26116
0.255416
0.252022
0.251498
0.254065
0.25905
0.266216
0.275627
0.287351
0.300834
0.313706
0.322656
0.330174
0.239975
0.245898
0.253996
0.260156
0.263259
0.262783
0.259733
0.255762
0.252116
0.249695
0.249367
0.251394
0.254941
0.259167
0.263069
0.265163
0.26397
0.259244
0.252118
0.244246
0.233203
0.235579
0.238876
0.241697
0.244203
0.246456
0.247695
0.247552
0.246524
0.245557
0.245553
0.246736
0.248303
0.249324
0.249021
0.247351
0.245031
0.24254
0.239466
0.236411
0.228388
0.229474
0.231438
0.233853
0.235801
0.237263
0.238514
0.239504
0.240089
0.240307
0.24061
0.241092
0.241246
0.240837
0.23998
0.238842
0.237316
0.235173
0.232936
0.231418
0.223365
0.223989
0.225181
0.22706
0.229027
0.230705
0.231984
0.23302
0.233925
0.234709
0.235226
0.235365
0.23515
0.234651
0.233851
0.232618
0.230929
0.229073
0.22756
0.22672
0.218523
0.218941
0.219804
0.221275
0.222983
0.22472
0.226326
0.22771
0.228866
0.229835
0.230491
0.23062
0.230321
0.22962
0.228528
0.227134
0.225604
0.224131
0.223011
0.222444
0.213986
0.214271
0.214991
0.216363
0.218013
0.219746
0.221554
0.223228
0.224592
0.225623
0.226367
0.226697
0.22643
0.22559
0.224315
0.222889
0.221459
0.220076
0.219097
0.218679
0.209807
0.209996
0.21057
0.211768
0.213243
0.21474
0.216217
0.217773
0.2194
0.220866
0.221843
0.22206
0.221651
0.220909
0.220031
0.218988
0.217793
0.216617
0.215817
0.215522
0.206125
0.206217
0.206681
0.207816
0.209259
0.210768
0.212312
0.213821
0.215235
0.216598
0.217729
0.218318
0.218373
0.217964
0.217195
0.216214
0.215114
0.214026
0.213337
0.213156
0.203382
0.203417
0.203732
0.20462
0.205848
0.207165
0.208599
0.210147
0.211819
0.213455
0.214832
0.215614
0.215754
0.215475
0.214936
0.21426
0.213454
0.212667
0.212221
0.212128
0.201006
0.201029
0.201215
0.201749
0.202584
0.203571
0.20471
0.206041
0.20757
0.209289
0.210963
0.212168
0.212816
0.213074
0.213046
0.212801
0.212483
0.212149
0.211981
0.21193
0.198113
0.198138
0.198284
0.198638
0.199236
0.200097
0.201227
0.202679
0.204428
0.206444
0.208501
0.210097
0.211064
0.211523
0.211714
0.21183
0.211854
0.21185
0.211824
0.211785
0.194329
0.194349
0.194494
0.194823
0.195369
0.196144
0.197242
0.198723
0.200651
0.203007
0.205544
0.207655
0.209078
0.210065
0.210616
0.211014
0.211312
0.211469
0.211497
0.21147
0.189764
0.189769
0.189916
0.190306
0.190911
0.191815
0.193085
0.194839
0.19712
0.19994
0.203091
0.205816
0.207743
0.209045
0.209956
0.210554
0.210964
0.211158
0.211215
0.211209
0.184561
0.184557
0.184698
0.185167
0.185959
0.187006
0.188539
0.19062
0.193357
0.196816
0.200743
0.20421
0.206734
0.208509
0.209733
0.210554
0.211039
0.211282
0.211388
0.211403
0.17877
0.178749
0.178898
0.179418
0.180299
0.181765
0.183625
0.186088
0.1894
0.193644
0.198526
0.202925
0.206185
0.208506
0.210096
0.21116
0.211789
0.212143
0.212316
0.212347
0.172265
0.172237
0.172433
0.172999
0.174097
0.175716
0.177957
0.181025
0.185123
0.190387
0.196486
0.202021
0.206134
0.209039
0.211111
0.2125
0.213371
0.213885
0.214133
0.214173
0.164669
0.164638
0.16487
0.165599
0.166833
0.168739
0.17149
0.175296
0.180397
0.186971
0.194598
0.201527
0.20667
0.210418
0.213002
0.214756
0.215907
0.216607
0.216931
0.216977
0.155526
0.155489
0.155788
0.156657
0.158215
0.160568
0.163979
0.168734
0.175136
0.183383
0.192915
0.201541
0.207968
0.212602
0.215838
0.21805
0.219524
0.220428
0.220834
0.22089
0.144383
0.144339
0.144746
0.145862
0.147809
0.150795
0.155117
0.16115
0.169251
0.179612
0.1915
0.202185
0.210131
0.21583
0.219828
0.222577
0.224422
0.225556
0.22606
0.226128
0.130552
0.1305
0.131059
0.132541
0.135092
0.138971
0.144566
0.152326
0.162629
0.175662
0.190437
0.203591
0.21331
0.220286
0.225187
0.228569
0.23085
0.232258
0.232883
0.232962
0.113103
0.113053
0.113855
0.115884
0.119305
0.124479
0.131867
0.141966
0.155166
0.171568
0.189838
0.205901
0.217703
0.226176
0.23215
0.236293
0.239101
0.240836
0.241606
0.241697
0.0906264
0.0906011
0.0918067
0.0946738
0.0994222
0.106542
0.116529
0.129875
0.146875
0.167449
0.189858
0.209277
0.223474
0.233692
0.240942
0.246011
0.249472
0.25161
0.252547
0.252655
0.0607317
0.0607884
0.0627196
0.0670477
0.0740764
0.0843183
0.098191
0.116029
0.137909
0.163527
0.190705
0.21389
0.230774
0.242986
0.251744
0.257948
0.262235
0.264886
0.266034
0.266155
0.0192161
0.0195369
0.0230728
0.0304466
0.0417033
0.057103
0.0767431
0.100639
0.128604
0.160117
0.192605
0.21988
0.239683
0.254112
0.264619
0.27222
0.277597
0.280931
0.282331
0.282457
-0.0416877
-0.0400031
-0.0315853
-0.0175504
0.00148948
0.0250943
0.052787
0.0843694
0.119508
0.15758
0.195735
0.22728
0.250133
0.266921
0.279372
0.288619
0.295322
0.299584
0.301363
0.30152
-0.115259
-0.111851
-0.0956878
-0.0711382
-0.0415885
-0.00849534
0.0279586
0.0677449
0.110599
0.155984
0.200845
0.237867
0.264959
0.285258
0.300707
0.31262
0.321723
0.32745
0.329607
0.330151
-0.190029
-0.181413
-0.157328
-0.122917
-0.0836189
-0.0412963
0.00386757
0.0518528
0.102446
0.155192
0.206842
0.249409
0.280748
0.304513
0.322983
0.337497
0.348793
0.35599
0.359518
0.360592
-0.248474
-0.238568
-0.209629
-0.168428
-0.121665
-0.0716255
-0.0187305
0.0367983
0.094648
0.154327
0.212261
0.25974
0.294617
0.321058
0.341589
0.357773
0.370307
0.378698
0.383023
0.384307
-0.295911
-0.285347
-0.253076
-0.207068
-0.15475
-0.0986512
-0.0393626
0.0226913
0.0870209
0.152972
0.216541
0.268245
0.30592
0.334246
0.356049
0.373111
0.386347
0.395477
0.400233
0.401547
-0.335321
-0.324636
-0.290235
-0.240492
-0.183673
-0.122645
-0.0580737
0.00955425
0.0795924
0.151131
0.219733
0.275071
0.314976
0.344649
0.36725
0.384754
0.398214
0.407542
0.412333
0.413712
-0.369592
-0.358886
-0.322931
-0.270212
-0.209693
-0.144479
-0.0753171
-0.0027937
0.0723054
0.14893
0.222089
0.280732
0.322639
0.353442
0.376603
0.394297
0.407755
0.417062
0.42182
0.423168
-0.400286
-0.389612
-0.35246
-0.297264
-0.233638
-0.164825
-0.0916366
-0.0147295
0.064988
0.146344
0.223885
0.2857
0.329454
0.36125
0.384861
0.402698
0.416152
0.425459
0.430224
0.431459
-0.428581
-0.417913
-0.379787
-0.322511
-0.256194
-0.184243
-0.107468
-0.0265855
0.0574123
0.143229
0.224979
0.289873
0.335517
0.368383
0.392549
0.410613
0.424115
0.433415
0.438187
0.439294
-0.455285
-0.44459
-0.405596
-0.346468
-0.277764
-0.203041
-0.123083
-0.0386283
0.0493235
0.139353
0.225243
0.293419
0.341155
0.375257
0.400092
0.418476
0.432088
0.441369
0.446095
0.447117
-0.480837
-0.470105
-0.430277
-0.369497
-0.2987
-0.221532
-0.13872
-0.0510141
0.0405852
0.13469
0.224801
0.29642
0.346451
0.381998
0.407665
0.426495
0.440308
0.449609
0.454286
0.455273
-0.505575
-0.49474
-0.454148
-0.391875
-0.319207
-0.239841
-0.154459
-0.0637988
0.0312066
0.129223
0.223524
0.298769
0.351375
0.38864
0.415372
0.434811
0.448937
0.458312
0.462889
0.46384
-0.529704
-0.518687
-0.477371
-0.41372
-0.339384
-0.258058
-0.170373
-0.0770266
0.0211115
0.1228
0.221272
0.300398
0.355915
0.395194
0.423242
0.443473
0.458021
0.46753
0.472002
0.472895
-0.553251
-0.542024
-0.500009
-0.435129
-0.359304
-0.276229
-0.186496
-0.09074
0.0102329
0.115378
0.217978
0.301166
0.359946
0.401605
0.431241
0.452456
0.467538
0.477207
0.481571
0.482345
-0.576297
-0.564815
-0.522137
-0.456113
-0.378961
-0.294338
-0.202797
-0.104918
-0.00137794
0.106972
0.213541
0.300901
0.36327
0.407735
0.439304
0.46172
0.477438
0.487273
0.49149
0.492119
-0.598764
-0.587057
-0.543719
-0.476653
-0.398319
-0.312342
-0.21922
-0.119474
-0.0136684
0.0975613
0.207889
0.299446
0.365678
0.413385
0.447332
0.471226
0.487674
0.49765
0.501675
0.502118
-0.620676
-0.608712
-0.564713
-0.496711
-0.417344
-0.330187
-0.235694
-0.134337
-0.0265778
0.08719
0.200979
0.296645
0.366938
0.418334
0.455215
0.480974
0.498224
0.508179
0.511848
0.512086
-0.641863
-0.629718
-0.58508
-0.516242
-0.435964
-0.347779
-0.252137
-0.149425
-0.0400136
0.0759391
0.192806
0.292372
0.366769
0.422237
0.462742
0.491026
0.50922
0.51881
0.521807
0.521778
-0.662421
-0.650033
-0.604777
-0.535203
-0.454133
-0.365069
-0.268453
-0.164636
-0.0538633
0.0639111
0.183397
0.286545
0.364942
0.424655
0.469497
0.501411
0.521184
0.529889
0.531384
0.530881
-0.682209
-0.669583
-0.623788
-0.553544
-0.47177
-0.381971
-0.284549
-0.17984
-0.0680079
0.0512009
0.172838
0.279112
0.361269
0.425121
0.474779
0.511765
0.534902
0.543029
0.541318
0.53914
-0.701275
-0.688429
-0.642055
-0.571206
-0.488832
-0.398412
-0.300338
-0.19495
-0.082323
0.0379704
0.161251
0.270061
0.355631
0.423187
0.477547
0.520834
0.550178
0.561202
0.556788
0.544849
-0.719528
-0.706536
-0.659665
-0.588353
-0.505531
-0.41468
-0.316164
-0.210384
-0.097285
0.0236615
0.14803
0.258689
0.347358
0.41813
0.476251
0.526236
0.564256
0.581752