/*--------------------------------*- C++ -*----------------------------------*\
  =========                 |
  \\      /  F ield         | OpenFOAM: The Open Source CFD Toolbox
   \\    /   O peration     | Website:  https://openfoam.org
    \\  /    A nd           | Version:  6
     \\/     M anipulation  |
\*---------------------------------------------------------------------------*/
FoamFile
{
    version     2.0;
    format      ascii;
    class       volVectorField;
    location    "68";
    object      U;
}
// * * * * * * * * * * * * * * * * * * * * * * * * * * * * * * * * * * * * * //

dimensions      [0 1 -1 0 0 0 0];

internalField   nonuniform List<vector> 
8800
(
(0.987184 -0.0766663 0)
(1.00189 -0.055192 0)
(0.999722 -0.0285507 0)
(1.00003 -0.0151465 0)
(1.00009 -0.00854889 0)
(1.00011 -0.00505227 0)
(1.00007 -0.00300727 0)
(1.00002 -0.00170635 0)
(0.999998 -0.000799402 0)
(1.00006 -8.25185e-05 0)
(0.999978 0.000647887 0)
(0.999988 0.00141539 0)
(1.00003 0.00243556 0)
(1.00005 0.00400377 0)
(1.00004 0.00663413 0)
(1.00002 0.0113721 0)
(0.999906 0.0208152 0)
(0.999154 0.0386714 0)
(1.0071 0.0724574 0)
(0.771213 0.0366613 0)
(0.363064 -0.0160178 0)
(1.04331 -0.0768193 0)
(1.08459 -0.0704526 0)
(1.04519 -0.0535504 0)
(1.02328 -0.038905 0)
(1.01202 -0.026231 0)
(1.00642 -0.0168725 0)
(1.00359 -0.0103418 0)
(1.00215 -0.00568169 0)
(1.00145 -0.00202266 0)
(1.0013 0.00130128 0)
(1.00167 0.00468604 0)
(1.00265 0.00862113 0)
(1.00466 0.0139554 0)
(1.00859 0.0216615 0)
(1.01655 0.0326303 0)
(1.03247 0.046544 0)
(1.06264 0.0616613 0)
(1.09187 0.0760995 0)
(0.838672 0.0565613 0)
(0.216835 -0.00243037 0)
(1.07589 -0.050143 0)
(1.09987 -0.0483209 0)
(1.06463 -0.0404764 0)
(1.04002 -0.0336218 0)
(1.02391 -0.0261036 0)
(1.01411 -0.0185224 0)
(1.00855 -0.0117023 0)
(1.00558 -0.00583243 0)
(1.00432 -0.000411981 0)
(1.00466 0.0048371 0)
(1.00658 0.0102311 0)
(1.0106 0.0163224 0)
(1.01794 0.023343 0)
(1.03052 0.0308093 0)
(1.05061 0.0378416 0)
(1.08033 0.0445261 0)
(1.10625 0.0513424 0)
(0.942528 0.0416158 0)
(0.216154 0.00246157 0)
(0.175155 -0.000817087 0)
(1.01767 -0.0354937 0)
(1.10518 -0.0413944 0)
(1.07825 -0.0360818 0)
(1.05345 -0.0301506 0)
(1.03619 -0.0245779 0)
(1.02399 -0.0188517 0)
(1.01587 -0.0127714 0)
(1.01101 -0.00658107 0)
(1.00881 -0.000242353 0)
(1.00937 0.00601703 0)
(1.01263 0.0120194 0)
(1.01886 0.0178537 0)
(1.02877 0.0234233 0)
(1.04319 0.0287247 0)
(1.06371 0.0342112 0)
(1.09354 0.0401967 0)
(1.0934 0.0419601 0)
(0.827147 0.0229132 0)
(0.174007 0.00085291 0)
(0.153947 -0.000611002 0)
(0.956139 -0.0254688 0)
(1.10343 -0.035146 0)
(1.08765 -0.0326733 0)
(1.0617 -0.0280232 0)
(1.04409 -0.0230016 0)
(1.03162 -0.0177563 0)
(1.02278 -0.0122247 0)
(1.01696 -0.0062862 0)
(1.01411 0.000187317 0)
(1.01478 0.00665343 0)
(1.01875 0.0125414 0)
(1.02579 0.0178333 0)
(1.0361 0.0227437 0)
(1.05065 0.0275047 0)
(1.07188 0.0320399 0)
(1.10006 0.035975 0)
(1.06807 0.034034 0)
(0.739529 0.0143153 0)
(0.152218 0.00065163 0)
(0.139569 -0.00046724 0)
(0.89922 -0.0190873 0)
(1.09575 -0.030098 0)
(1.09571 -0.029211 0)
(1.06922 -0.0254819 0)
(1.05079 -0.0213447 0)
(1.03786 -0.0165738 0)
(1.02875 -0.0112865 0)
(1.02263 -0.0055395 0)
(1.0195 0.000792825 0)
(1.02011 0.00710935 0)
(1.0242 0.0127487 0)
(1.03136 0.0177116 0)
(1.04188 0.0221674 0)
(1.057 0.0261362 0)
(1.0792 0.0296045 0)
(1.10226 0.0322298 0)
(1.03596 0.0281271 0)
(0.672943 0.0102151 0)
(0.137127 0.000514103 0)
(0.129023 -0.000361834 0)
(0.849615 -0.0147248 0)
(1.08335 -0.0259657 0)
(1.10139 -0.0262614 0)
(1.07607 -0.0229775 0)
(1.05711 -0.0193346 0)
(1.04372 -0.0150892 0)
(1.03426 -0.0101656 0)
(1.0279 -0.0046308 0)
(1.02457 0.00152298 0)
(1.02504 0.00762741 0)
(1.02908 0.0129921 0)
(1.03636 0.0175471 0)
(1.04716 0.0213963 0)
(1.06267 0.0246999 0)
(1.08531 0.0276485 0)
(1.10135 0.0294019 0)
(1.00102 0.0236187 0)
(0.621074 0.00785408 0)
(0.125713 0.000416998 0)
(0.120977 -0.000281153 0)
(0.807465 -0.0115665 0)
(1.06807 -0.0223553 0)
(1.10492 -0.0236237 0)
(1.08232 -0.0207517 0)
(1.06295 -0.0173225 0)
(1.04929 -0.0133858 0)
(1.03954 -0.00879966 0)
(1.0329 -0.00353398 0)
(1.02932 0.00240197 0)
(1.02961 0.00825802 0)
(1.03359 0.0132741 0)
(1.04093 0.0173561 0)
(1.05184 0.0206943 0)
(1.06756 0.0235895 0)
(1.09054 0.0262415 0)
(1.09755 0.0270992 0)
(0.965702 0.0200872 0)
(0.579367 0.00632325 0)
(0.116611 0.000346756 0)
(0.114743 -0.000217913 0)
(0.771993 -0.00920311 0)
(1.05131 -0.0191755 0)
(1.1073 -0.0211823 0)
(1.08819 -0.0186806 0)
(1.06843 -0.0153957 0)
(1.05453 -0.0116195 0)
(1.04459 -0.00724348 0)
(1.0377 -0.00222041 0)
(1.03384 0.00346542 0)
(1.0339 0.00902707 0)
(1.03776 0.0136677 0)
(1.04504 0.0173323 0)
(1.05593 0.0202793 0)
(1.07185 0.0228486 0)
(1.09448 0.0251535 0)
(1.0909 0.0251961 0)
(0.931311 0.0173669 0)
(0.544805 0.00528037 0)
(0.109094 0.000296376 0)
(0.109886 -0.000166998 0)
(0.742259 -0.00736759 0)
(1.03412 -0.0163553 0)
(1.10874 -0.0188787 0)
(1.09377 -0.0166806 0)
(1.07373 -0.0134843 0)
(1.05957 -0.00979725 0)
(1.04943 -0.00554338 0)
(1.04231 -0.000693188 0)
(1.03816 0.00474719 0)
(1.03793 0.00998866 0)
(1.04155 0.0142681 0)
(1.04868 0.0175624 0)
(1.05955 0.0201593 0)
(1.07565 0.0224429 0)
(1.09713 0.0243739 0)
(1.0818 0.0236438 0)
(0.898405 0.0153077 0)
(0.515333 0.00455615 0)
(0.10268 0.000261162 0)
(0.106124 -0.000124635 0)
(0.717445 -0.00588583 0)
(1.01735 -0.013823 0)
(1.10936 -0.0166519 0)
(1.09926 -0.0147271 0)
(1.07896 -0.0115427 0)
(1.0645 -0.00788662 0)
(1.05414 -0.00369231 0)
(1.04677 0.00104377 0)
(1.04228 0.00628499 0)
(1.04167 0.0112366 0)
(1.04498 0.015181 0)
(1.05193 0.0181303 0)
(1.06273 0.0203882 0)
(1.07901 0.0224032 0)
(1.09844 0.0239215 0)
(1.07062 0.0224446 0)
(0.867086 0.0137945 0)
(0.489492 0.00406088 0)
(0.097025 0.000238145 0)
(0.103269 -8.78459e-05 0)
(0.696912 -0.00464157 0)
(1.00159 -0.0115104 0)
(1.10931 -0.0144614 0)
(1.10459 -0.0127235 0)
(1.08419 -0.00950008 0)
(1.06942 -0.00581302 0)
(1.05879 -0.0016239 0)
(1.05111 0.00305137 0)
(1.04622 0.00813897 0)
(1.04515 0.0128261 0)
(1.04808 0.0164423 0)
(1.05479 0.0190469 0)
(1.06551 0.0209685 0)
(1.08191 0.0227303 0)
(1.09874 0.0238544 0)
(1.05763 0.0216081 0)
(0.837188 0.0127387 0)
(0.466188 0.00373917 0)
(0.0918699 0.000224845 0)
(0.101202 -5.39737e-05 0)
(0.680189 -0.00354788 0)
(0.987315 -0.00934765 0)
(1.10881 -0.0122246 0)
(1.10976 -0.010594 0)
(1.08951 -0.00730635 0)
(1.07439 -0.00353424 0)
(1.06344 0.00071877 0)
(1.05538 0.00539751 0)
(1.04998 0.01038 0)
(1.04836 0.0148361 0)
(1.05084 0.018143 0)
(1.05728 0.0204112 0)
(1.06789 0.0219905 0)
(1.08432 0.0234748 0)
(1.09802 0.0241758 0)
(1.04298 0.0211468 0)
(0.808367 0.0120673 0)
(0.44456 0.00355272 0)
(0.0870105 0.000219335 0)
(0.0998622 -2.06986e-05 0)
(0.666977 -0.00253456 0)
(0.974871 -0.007258 0)
(1.10817 -0.00988051 0)
(1.11489 -0.00828182 0)
(1.09499 -0.00489344 0)
(1.07949 -0.000967499 0)
(1.06817 0.00341356 0)
(1.05963 0.00815341 0)
(1.05363 0.0130885 0)
(1.05134 0.0173476 0)
(1.05328 0.0203446 0)
(1.05938 0.0222535 0)
(1.06983 0.0234753 0)
(1.08627 0.0246924 0)
(1.09605 0.0249357 0)
(1.02671 0.0210494 0)
(0.780188 0.0117283 0)
(0.423907 0.00347679 0)
(0.0822828 0.000220113 0)
(0.0992352 1.4073e-05 0)
(0.657124 -0.00154741 0)
(0.964579 -0.00517191 0)
(1.10773 -0.00736766 0)
(1.12012 -0.00569694 0)
(1.10073 -0.00214333 0)
(1.08481 0.00200073 0)
(1.07303 0.00657613 0)
(1.06392 0.0114446 0)
(1.05719 0.0163655 0)
(1.0541 0.0204302 0)
(1.05538 0.0231305 0)
(1.06106 0.0246808 0)
(1.07135 0.0255291 0)
(1.08767 0.0264301 0)
(1.09281 0.0261373 0)
(1.00878 0.0213525 0)
(0.752165 0.0116934 0)
(0.403636 0.00349707 0)
(0.0775513 0.000226582 0)
(0.0993379 4.64981e-05 0)
(0.6506 -0.000540662 0)
(0.956737 -0.00301754 0)
(1.10783 -0.00462187 0)
(1.12561 -0.00278081 0)
(1.10681 0.00099681 0)
(1.09043 0.00543546 0)
(1.07811 0.0102923 0)
(1.0683 0.0153664 0)
(1.06067 0.0203446 0)
(1.05662 0.0242511 0)
(1.05712 0.0266329 0)
(1.06233 0.0278052 0)
(1.07239 0.0282656 0)
(1.0883 0.0287898 0)
(1.088 0.0278434 0)
(0.989017 0.0220891 0)
(0.723749 0.011949 0)
(0.38321 0.00360539 0)
(0.0726942 0.000238139 0)
(0.100231 9.03247e-05 0)
(0.647506 0.000501389 0)
(0.951667 -0.000713791 0)
(1.10882 -0.00154874 0)
(1.13156 0.000594403 0)
(1.11336 0.00469074 0)
(1.09647 0.00951297 0)
(1.08349 0.0147258 0)
(1.07285 0.020077 0)
(1.06413 0.0251653 0)
(1.05892 0.0289301 0)
(1.05849 0.0309761 0)
(1.06312 0.031745 0)
(1.07291 0.0317828 0)
(1.08801 0.0318802 0)
(1.08137 0.0301445 0)
(0.967122 0.0232933 0)
(0.694334 0.0124842 0)
(0.362119 0.00379421 0)
(0.0676012 0.00025402 0)
(0.102096 0.000148574 0)
(0.648211 0.00166706 0)
(0.949741 0.00181656 0)
(1.11117 0.00194534 0)
(1.13819 0.00452904 0)
(1.12052 0.009067 0)
(1.10304 0.0143741 0)
(1.08927 0.0200489 0)
(1.0776 0.0257591 0)
(1.06756 0.0309856 0)
(1.06097 0.0345999 0)
(1.05944 0.0362846 0)
(1.06338 0.0366394 0)
(1.07284 0.036217 0)
(1.08656 0.0358197 0)
(1.07264 0.033125 0)
(0.942687 0.0249991 0)
(0.663278 0.0132937 0)
(0.339892 0.0040561 0)
(0.0621779 0.000273384 0)
(0.104998 0.000211595 0)
(0.65315 0.0031104 0)
(0.951392 0.00473693 0)
(1.11532 0.00600808 0)
(1.14571 0.00916368 0)
(1.12846 0.0142736 0)
(1.11029 0.0201913 0)
(1.09556 0.0264454 0)
(1.08262 0.0326083 0)
(1.071 0.0380425 0)
(1.06275 0.041509 0)
(1.05995 0.0427625 0)
(1.06306 0.0426599 0)
(1.07211 0.0417297 0)
(1.0838 0.0408009 0)
(1.06145 0.0368918 0)
(0.915152 0.0272547 0)
(0.629875 0.0143716 0)
(0.316071 0.00438298 0)
(0.0563444 0.000295144 0)
(0.109227 0.000294884 0)
(0.662716 0.00479285 0)
(0.957104 0.00817427 0)
(1.12179 0.0107952 0)
(1.15443 0.0147327 0)
(1.13738 0.0206101 0)
(1.11838 0.0272806 0)
(1.10245 0.0342278 0)
(1.08795 0.0409226 0)
(1.07441 0.0465679 0)
(1.06422 0.0498187 0)
(1.05994 0.0505836 0)
(1.06208 0.0499777 0)
(1.07063 0.0484623 0)
(1.0798 0.0469245 0)
(1.04726 0.0415532 0)
(0.883803 0.030077 0)
(0.593371 0.0156947 0)
(0.29024 0.00475818 0)
(0.0500439 0.000317441 0)
(0.11512 0.00040749 0)
(0.677754 0.00690297 0)
(0.967558 0.0123341 0)
(1.13117 0.0165329 0)
(1.16471 0.0214705 0)
(1.14757 0.0283565 0)
(1.12749 0.0359553 0)
(1.11007 0.043738 0)
(1.09363 0.051023 0)
(1.07775 0.0568461 0)
(1.06529 0.0597837 0)
(1.05925 0.0599328 0)
(1.06036 0.0587725 0)
(1.06839 0.0566146 0)
(1.07427 0.054374 0)
(1.02942 0.0471821 0)
(0.847778 0.0334645 0)
(0.552994 0.0172179 0)
(0.262063 0.00515579 0)
(0.0432577 0.000337696 0)
(0.123197 0.000564367 0)
(0.699184 0.00966496 0)
(0.983609 0.0175309 0)
(1.14409 0.0235735 0)
(1.17703 0.0297754 0)
(1.15932 0.03796 0)
(1.13785 0.0466797 0)
(1.11849 0.0554154 0)
(1.09963 0.0633112 0)
(1.08096 0.0692257 0)
(1.06585 0.0716789 0)
(1.05782 0.0710508 0)
(1.05781 0.0692019 0)
(1.06526 0.0663248 0)
(1.06683 0.0631116 0)
(1.00706 0.0538407 0)
(0.806055 0.0373593 0)
(0.50801 0.0188517 0)
(0.231346 0.0055357 0)
(0.0360217 0.000352434 0)
(0.134199 0.000792057 0)
(0.728302 0.0134632 0)
(1.00642 0.0242295 0)
(1.16137 0.0324667 0)
(1.19199 0.0402755 0)
(1.17299 0.0501467 0)
(1.1496 0.0601721 0)
(1.12771 0.069906 0)
(1.10583 0.0783034 0)
(1.08383 0.0840477 0)
(1.06574 0.0857199 0)
(1.05555 0.0841341 0)
(1.05432 0.0814798 0)
(1.0609 0.0777268 0)
(1.05678 0.0733523 0)
(0.97903 0.0615105 0)
(0.75751 0.0416091 0)
(0.457837 0.0204529 0)
(0.198134 0.00584166 0)
(0.0284451 0.000357522 0)
(0.149371 0.00114817 0)
(0.767082 0.0189228 0)
(1.03765 0.0332077 0)
(1.18396 0.0441341 0)
(1.21042 0.0540875 0)
(1.18892 0.0659272 0)
(1.16279 0.0773767 0)
(1.13756 0.0880024 0)
(1.11194 0.0965701 0)
(1.08607 0.101696 0)
(1.06472 0.102161 0)
(1.05228 0.0993163 0)
(1.04978 0.0957166 0)
(1.05504 0.0911711 0)
(1.04328 0.0851472 0)
(0.943912 0.0700006 0)
(0.701031 0.0459387 0)
(0.402251 0.0218022 0)
(0.16284 0.00600184 0)
(0.0207306 0.000348281 0)
(0.170901 0.00176627 0)
(0.818767 0.0271723 0)
(1.0799 0.046012 0)
(1.21298 0.0604498 0)
(1.23289 0.0732263 0)
(1.20719 0.0869142 0)
(1.17717 0.0996016 0)
(1.1476 0.110624 0)
(1.1175 0.118697 0)
(1.08731 0.122488 0)
(1.06249 0.121147 0)
(1.0478 0.116693 0)
(1.04411 0.111971 0)
(1.04764 0.106522 0)
(1.02517 0.0983729 0)
(0.899919 0.0789322 0)
(0.635819 0.049904 0)
(0.341744 0.0226286 0)
(0.1264 0.0059405 0)
(0.013189 0.000320291 0)
(0.202149 0.00312167 0)
(0.889102 0.0408142 0)
(1.13679 0.0664334 0)
(1.24883 0.0850243 0)
(1.2591 0.100523 0)
(1.22715 0.115534 0)
(1.19187 0.128511 0)
(1.15701 0.138787 0)
(1.12184 0.145227 0)
(1.08703 0.146634 0)
(1.05875 0.142734 0)
(1.04192 0.136271 0)
(1.03714 0.130188 0)
(1.03818 0.12368 0)
(1.00081 0.112658 0)
(0.844985 0.0875942 0)
(0.562046 0.0529091 0)
(0.278254 0.0227152 0)
(0.0905989 0.0056204 0)
(0.00630142 0.000267721 0)
(0.244791 0.00931541 8.16117e-21)
(0.982066 0.0677926 7.02019e-21)
(1.20594 0.101017 -2.4637e-21)
(1.28838 0.121494 0)
(1.2862 0.139596 -6.41499e-35)
(1.2466 0.154126 9.41612e-22)
(1.20532 0.165594 -1.72119e-21)
(1.16468 0.173681 0)
(1.12411 0.177402 3.59431e-35)
(1.08443 0.175643 -2.18426e-21)
(1.0525 0.168683 0)
(1.03346 0.160019 -2.62223e-21)
(1.02786 0.152765 -7.75755e-21)
(1.0253 0.145854 -3.67775e-21)
(0.965998 0.130483 -1.11029e-21)
(0.772958 0.0972042 -6.6039e-22)
(0.474706 0.0552171 0)
(0.21045 0.0224469 4.62786e-22)
(0.0555389 0.0053041 5.48099e-22)
(5.20315e-05 0.000190685 1.00081e-20)
(0.274334 0.0245032 5.55465e-21)
(1.05902 0.110418 1.10766e-22)
(1.26299 0.15029 6.37406e-22)
(1.32387 0.17074 0)
(1.30998 0.189037 -3.18978e-21)
(1.26327 0.201434 -3.65625e-21)
(1.21604 0.210607 -1.7196e-21)
(1.16959 0.216221 -6.20321e-21)
(1.12343 0.217216 0)
(1.07852 0.212375 9.26075e-21)
(1.04252 0.202435 9.23226e-21)
(1.02106 0.191618 2.75172e-21)
(1.01326 0.182557 1.00915e-20)
(1.00205 0.173118 1.42478e-20)
(0.91094 0.150896 0)
(0.675149 0.107111 2.01386e-20)
(0.371684 0.0572893 2.89128e-20)
(0.140028 0.0215376 3.21798e-20)
(0.0204866 0.00382251 -3.69165e-20)
(-0.00623646 -0.000441071 -7.03883e-22)
(0.275751 0.0413072 0)
(1.10801 0.165572 8.56364e-22)
(1.30165 0.210563 0)
(1.35151 0.230705 -3.87903e-21)
(1.32863 0.246259 0)
(1.27596 0.254758 -7.05876e-21)
(1.22317 0.260181 3.48317e-21)
(1.17118 0.262203 -1.23687e-20)
(1.11971 0.259593 -3.19713e-22)
(1.06988 0.25099 4.76516e-21)
(1.03011 0.237611 2.03127e-20)
(1.00635 0.224276 -4.18946e-23)
(0.996155 0.213188 -7.33113e-21)
(0.976106 0.20016 -1.33962e-20)
(0.861008 0.170424 1.5887e-20)
(0.604345 0.116066 -2.81575e-20)
(0.310625 0.0589092 -3.71995e-21)
(0.102117 0.0202171 0)
(0.00175923 0.00160715 -2.89831e-24)
(-0.00990812 -0.00132566 0)
(0.269193 0.0554373 8.57886e-21)
(1.13453 0.224382 -4.5559e-21)
(1.32556 0.275369 -3.9984e-21)
(1.36981 0.295988 1.75736e-21)
(1.34072 0.307832 -2.98323e-21)
(1.28361 0.311779 1.47062e-20)
(1.22623 0.312744 7.2265e-21)
(1.16948 0.310484 0)
(1.11328 0.303661 -2.36249e-20)
(1.05895 0.290788 0)
(1.01567 0.273565 -1.06215e-20)
(0.989716 0.257418 -1.32141e-20)
(0.977137 0.243867 -7.97679e-21)
(0.949444 0.226772 -9.72061e-21)
(0.820244 0.189438 0)
(0.55848 0.125726 0)
(0.278018 0.0622767 -2.42098e-20)
(0.0825134 0.0194248 4.78905e-21)
(-0.009485 -0.000981849 -2.81247e-21)
(-0.0127313 -0.00242112 -3.33187e-21)
(0.261371 0.0678576 -1.30273e-21)
(1.14617 0.283092 0)
(1.33871 0.341155 7.05901e-21)
(1.37979 0.362718 4.67832e-21)
(1.34638 0.370839 7.06728e-21)
(1.28603 0.370231 0)
(1.22508 0.366615 6.94943e-21)
(1.16441 0.359862 1.35905e-20)
(1.10412 0.348568 1.20227e-20)
(1.04577 0.331133 2.24553e-20)
(0.99922 0.309829 0)
(0.971084 0.290656 -2.84718e-20)
(0.956145 0.274418 -1.72126e-20)
(0.922625 0.253141 -1.0199e-20)
(0.787171 0.20906 6.26638e-20)
(0.529714 0.137361 7.46277e-21)
(0.261954 0.0674244 3.51101e-20)
(0.0740161 0.0195789 -1.66167e-19)
(-0.0152729 -0.00335628 9.8451e-20)
(-0.014716 -0.00357044 -1.20171e-19)
(0.253835 0.0789943 2.05921e-21)
(1.14833 0.339793 1.51401e-22)
(1.34408 0.406062 -4.89474e-22)
(1.38312 0.428951 -3.88042e-21)
(1.34657 0.43354 -5.46117e-21)
(1.28378 0.428551 3.63612e-22)
(1.22001 0.420502 -7.54539e-21)
(1.15613 0.409326 1.39678e-20)
(1.0924 0.393546 -2.58776e-20)
(1.03048 0.371516 0)
(0.980859 0.346063 -1.28533e-20)
(0.950501 0.3237 -3.19545e-22)
(0.933239 0.304727 -1.88594e-20)
(0.895672 0.279437 0)
(0.759527 0.22941 -1.35834e-20)
(0.511694 0.150737 -3.23076e-20)
(0.256272 0.0748318 8.61572e-20)
(0.0735262 0.0211309 -8.4877e-20)
(-0.0163512 -0.00497271 1.20705e-19)
(-0.0156769 -0.00460128 -1.27018e-19)
(0.247423 0.0892534 -1.06378e-22)
(1.14455 0.393815 7.6017e-22)
(1.34384 0.469065 6.59912e-23)
(1.38125 0.493527 1.1464e-21)
(1.34237 0.494913 -2.67077e-21)
(1.27772 0.485807 0)
(1.2117 0.473566 -6.81823e-21)
(1.14514 0.458162 -1.45756e-20)
(1.07838 0.438037 -1.33981e-20)
(1.01322 0.411509 0)
(0.960737 0.381931 -1.3292e-20)
(0.928199 0.356343 -1.659e-20)
(0.908779 0.334656 2.04791e-20)
(0.868467 0.305604 -1.24589e-20)
(0.734843 0.250513 -5.94084e-20)
(0.498916 0.165728 3.5325e-20)
(0.255794 0.0837069 1.04968e-20)
(0.0774851 0.0242758 0)
(-0.0137198 -0.00538181 -1.16933e-19)
(-0.0155478 -0.00532556 -4.34718e-21)
(0.242281 0.0989711 9.81286e-22)
(1.13718 0.445001 -1.39318e-21)
(1.33948 0.529616 -3.17544e-22)
(1.37541 0.555757 4.68428e-21)
(1.33475 0.554313 -9.07079e-21)
(1.26868 0.541431 1.27556e-20)
(1.20081 0.525298 1.47155e-20)
(1.13193 0.505934 -2.32843e-20)
(1.06248 0.481671 8.42438e-21)
(0.994378 0.450795 -5.52436e-20)
(0.939186 0.417182 -1.51165e-20)
(0.904553 0.388507 0)
(0.883033 0.364129 2.22618e-20)
(0.840764 0.331671 2.67609e-20)
(0.711473 0.271692 3.20531e-20)
(0.487881 0.181695 -3.8471e-20)
(0.256628 0.0938296 -1.13971e-20)
(0.0833146 0.0288705 1.33767e-20)
(-0.00885894 -0.00452521 0)
(-0.0145995 -0.00568397 -9.46181e-21)
(0.238308 0.10825 -1.52925e-20)
(1.12788 0.493428 8.36056e-21)
(1.33227 0.58757 6.95228e-22)
(1.36659 0.615288 2.25853e-21)
(1.3245 0.611351 -3.60025e-21)
(1.25735 0.595048 -8.30157e-22)
(1.18795 0.575377 -1.61772e-20)
(1.11708 0.552354 -8.45211e-21)
(1.04522 0.524214 -2.33467e-20)
(0.974356 0.489172 6.60366e-23)
(0.916584 0.451711 -4.72924e-20)
(0.879938 0.420019 4.02694e-20)
(0.856498 0.393033 -2.45508e-20)
(0.812734 0.357241 2.95915e-20)
(0.688147 0.292659 0)
(0.476352 0.197968 -2.0974e-20)
(0.257117 0.104454 5.68456e-23)
(0.0893309 0.0344545 -5.858e-20)
(-0.00307616 -0.00273854 -8.62377e-21)
(-0.0131607 -0.00572582 0)
(0.235412 0.117329 0)
(1.11766 0.53932 9.68329e-21)
(1.32309 0.643205 3.84716e-21)
(1.3556 0.671956 -1.44707e-21)
(1.31233 0.665814 -5.20179e-21)
(1.24434 0.646445 0)
(1.17368 0.623587 -7.05394e-21)
(1.10106 0.597226 -2.12437e-22)
(1.02699 0.56551 5.01054e-20)
(0.953481 0.526537 -7.56821e-21)
(0.893237 0.48538 -3.42183e-20)
(0.854643 0.450693 2.09109e-20)
(0.829396 0.421149 -4.51046e-22)
(0.784362 0.382133 3.15338e-20)
(0.664027 0.312994 1.94216e-20)
(0.463059 0.213898 -4.5315e-20)
(0.255106 0.11505 5.37156e-20)
(0.0938587 0.040467 1.59341e-20)
(0.00249741 -0.000301263 6.5873e-20)
(-0.0114654 -0.00548964 -1.78156e-19)
(0.233508 0.126339 -5.15519e-21)
(1.10722 0.582857 6.84233e-21)
(1.31252 0.695997 -4.56704e-21)
(1.34311 0.725707 -1.12597e-22)
(1.29882 0.717597 0)
(1.23018 0.695491 -5.19582e-21)
(1.15845 0.669795 2.4057e-20)
(1.08426 0.640437 1.84461e-20)
(1.00812 0.605451 0)
(0.932105 0.562841 -1.09598e-19)
(0.869408 0.518078 9.28346e-20)
(0.828938 0.480453 0)
(0.801981 0.448351 2.88236e-20)
(0.755656 0.406065 -4.48384e-22)
(0.638542 0.3323 -6.24097e-20)
(0.447926 0.228566 2.44274e-20)
(0.250372 0.124966 0)
(0.0960454 0.0462345 8.61952e-20)
(0.00689058 0.00221506 0)
(-0.00984464 -0.00512519 -8.45442e-20)
(0.232441 0.135323 6.19873e-21)
(1.09696 0.624239 8.95875e-21)
(1.301 0.745996 -4.52104e-21)
(1.32963 0.776554 0)
(1.28442 0.766681 -3.45727e-21)
(1.21526 0.742145 0)
(1.14262 0.713934 -2.32428e-20)
(1.06702 0.681919 -8.34435e-21)
(0.988953 0.644004 8.76517e-21)
(0.91047 0.598034 -5.42861e-20)
(0.845294 0.549794 9.56691e-21)
(0.802972 0.509261 0)
(0.7744 0.474532 -6.16635e-20)
(0.726757 0.428758 4.3192e-22)
(0.612061 0.350153 0)
(0.430542 0.241537 2.09996e-22)
(0.24272 0.133494 7.88566e-20)
(0.0953151 0.051053 -7.45896e-20)
(0.0095019 0.00430128 2.20847e-20)
(-0.00854005 -0.00476432 0)
(0.231865 0.144197 0)
(1.08706 0.663635 1.08555e-20)
(1.28896 0.793303 6.73966e-21)
(1.31556 0.824563 -5.14993e-22)
(1.26952 0.813093 -3.80393e-22)
(1.19995 0.786404 -1.16606e-20)
(1.12653 0.755989 8.86777e-21)
(1.04965 0.721639 -1.00669e-20)
(0.969743 0.681135 3.94333e-20)
(0.888784 0.632108 -8.69546e-20)
(0.821073 0.580553 -8.40839e-22)
(0.776882 0.537113 -2.68977e-20)
(0.746721 0.499501 1.00285e-19)
(0.697687 0.449866 -5.19142e-22)
(0.584833 0.366037 -4.86512e-20)
(0.411236 0.252319 -8.6539e-20)
(0.232582 0.140089 0)
(0.0922625 0.0543402 0)
(0.0104229 0.00558588 2.38665e-20)
(-0.00761088 -0.00452242 -1.41777e-20)
(0.231898 0.153103 8.77317e-21)
(1.07776 0.700792 -2.47393e-20)
(1.27669 0.838009 -7.25322e-21)
(1.30122 0.869816 0)
(1.25441 0.856886 -3.11634e-22)
(1.18452 0.828299 -9.7372e-21)
(1.11043 0.795969 2.08155e-20)
(1.03239 0.759592 3.90588e-20)
(0.950707 0.716839 5.11392e-20)
(0.867273 0.665084 -7.10314e-20)
(0.796906 0.610421 -8.02408e-20)
(0.750719 0.563986 7.20497e-20)
(0.718949 0.523155 0)
(0.668408 0.46915 -2.21524e-20)
(0.556938 0.379628 -5.26432e-20)
(0.390351 0.260589 -6.22968e-20)
(0.220174 0.144386 -7.36677e-20)
(0.0870612 0.0559339 2.18143e-20)
(0.00990558 0.00599172 -1.28631e-20)
(-0.0070256 -0.00442391 6.33099e-23)
(0.232175 0.161833 0)
(1.06914 0.736328 0)
(1.26437 0.880213 5.17461e-22)
(1.28682 0.912415 0)
(1.23933 0.898148 -1.58221e-21)
(1.16919 0.86789 5.80129e-21)
(1.09453 0.833901 0)
(1.01542 0.79579 4.52795e-21)
(0.932052 0.751119 8.52212e-20)
(0.846117 0.696988 -1.63641e-19)
(0.77293 0.639471 0)
(0.724532 0.589904 -4.65056e-20)
(0.691032 0.545449 -6.08623e-22)
(0.638878 0.486406 -4.59323e-22)
(0.528492 0.390596 5.64373e-20)
(0.367854 0.266033 -7.97848e-24)
(0.206075 0.146176 -1.58817e-19)
(0.0801941 0.0558018 4.695e-20)
(0.00833321 0.00561978 1.39278e-20)
(-0.00667944 -0.00442738 0)
(0.232653 0.170395 -3.54148e-20)
(1.06095 0.770208 -1.68059e-20)
(1.25209 0.919978 -2.16765e-20)
(1.27254 0.952465 2.07779e-20)
(1.22446 0.93695 -5.98198e-21)
(1.15414 0.905243 0)
(1.079 0.869833 1.21461e-20)
(0.998917 0.830257 -1.0213e-20)
(0.91393 0.78399 7.96143e-22)
(0.825482 0.727859 1.21271e-20)
(0.749274 0.667764 1.04247e-19)
(0.69836 0.614983 -1.63196e-20)
(0.662867 0.566437 -6.21043e-20)
(0.608935 0.501427 -2.58857e-20)
(0.499575 0.398558 3.06438e-20)
(0.344632 0.268356 2.55271e-23)
(0.190767 0.145361 4.28041e-20)
(0.0722725 0.0540044 -1.01104e-19)
(0.00611003 0.0045918 1.19939e-19)
(-0.00648317 -0.00450382 1.77077e-20)
(0.232975 0.178727 1.34958e-20)
(1.0532 0.802524 -9.50328e-21)
(1.24 0.957423 1.29365e-21)
(1.25852 0.990091 1.35366e-20)
(1.20993 0.973404 2.66859e-21)
(1.13949 0.940431 -9.32701e-21)
(1.06396 0.903816 3.22529e-21)
(0.983 0.863013 -4.24198e-20)
(0.896475 0.815451 -9.38209e-20)
(0.805513 0.757717 -9.76792e-20)
(0.726077 0.695367 0)
(0.672245 0.639412 -7.19939e-20)
(0.634318 0.586243 8.97419e-20)
(0.57832 0.514024 0)
(0.470165 0.403062 -6.5731e-20)
(0.321343 0.267117 3.90921e-20)
(0.175568 0.141777 -4.60685e-20)
(0.0645385 0.0508423 -5.44368e-20)
(0.00384502 0.00318882 -9.66616e-20)
(-0.00639168 -0.00463146 -7.63255e-20)
(0.233667 0.186931 -1.53379e-20)
(1.04575 0.833264 1.01813e-20)
(1.22817 0.992612 2.30806e-20)
(1.24486 1.02537 1.99278e-20)
(1.19584 1.00761 -4.856e-21)
(1.12534 0.973541 -3.95476e-21)
(1.04951 0.935898 1.10179e-20)
(0.967763 0.8941 -4.32884e-20)
(0.879785 0.845525 -5.55886e-20)
(0.78634 0.786584 1.02305e-19)
(0.703465 0.722354 2.2981e-19)
(0.646252 0.663399 0)
(0.605254 0.605059 0)
(0.546644 0.524164 -2.98606e-20)
(0.439928 0.403617 0)
(0.298294 0.26134 8.40596e-20)
(0.162025 0.134628 9.90868e-20)
(0.0590621 0.0462036 0)
(0.00273723 0.00169811 0)
(-0.00634916 -0.00478797 8.20789e-20)
(0.234029 0.194681 1.75067e-20)
(1.03861 0.862418 1.38685e-20)
(1.21666 1.02566 1.68287e-20)
(1.23162 1.05842 -1.93945e-20)
(1.18226 1.03966 -6.68769e-21)
(1.11176 1.00465 2.49165e-21)
(1.03571 0.96614 -1.4903e-20)
(0.953278 0.923546 -1.05666e-22)
(0.863945 0.874218 -1.04143e-21)
(0.768067 0.814459 -9.227e-22)
(0.681589 0.748797 1.18574e-19)
(0.620472 0.687113 0)
(0.575605 0.623148 9.13367e-20)
(0.513461 0.53207 6.38937e-20)
(0.408067 0.399951 1.53789e-19)
(0.275061 0.249512 4.53581e-20)
(0.151754 0.121 -5.33476e-20)
(0.0606441 0.0366643 -3.141e-20)
(0.00884791 -0.00125703 0)
(-0.00489075 -0.00464547 8.82585e-20)
(0.234759 0.202458 -3.97535e-20)
(1.03175 0.890129 0)
(1.20547 1.0566 1.99467e-20)
(1.21883 1.08933 -1.65545e-20)
(1.16925 1.06968 9.47201e-21)
(1.09878 1.03384 1.5128e-22)
(1.0226 0.994595 2.75335e-20)
(0.939586 0.951383 -3.64003e-21)
(0.849004 0.90154 0)
(0.750779 0.841312 -1.12975e-19)
(0.660596 0.774751 -2.58182e-19)
(0.595033 0.710689 1.06723e-20)
(0.545411 0.640812 1.26501e-19)
(0.478436 0.538269 0)
(0.373338 0.392497 1.04042e-19)
(0.249207 0.230333 0)
(0.142871 0.0942444 0)
(0.075376 0.00603096 -3.39735e-20)
(0.0484537 -0.0192282 0)
(0.0258767 0.00524425 2.36694e-20)
(0.235061 0.20967 -4.45521e-20)
(1.02513 0.916605 0)
(1.1946 1.08566 3.33824e-20)
(1.20644 1.11834 0)
(1.15677 1.09792 -5.89288e-21)
(1.08636 1.06141 0)
(1.01014 1.02157 1.11092e-21)
(0.926593 0.977949 5.93356e-21)
(0.834841 0.927854 7.00822e-21)
(0.734304 0.867516 -1.24019e-19)
(0.640298 0.800683 7.72765e-21)
(0.569648 0.734755 8.63752e-20)
(0.514196 0.658844 1.23747e-19)
(0.440609 0.543494 1.67108e-20)
(0.333809 0.382769 8.17721e-20)
(0.215543 0.204711 0)
(0.122916 0.0500909 1.12522e-19)
(0.0695217 -0.0318688 -6.60979e-20)
(0.0313178 0.0546325 7.72236e-20)
(-0.0383125 0.455987 -9.17577e-20)
(0.235318 0.216724 3.70007e-20)
(1.01853 0.941726 5.58503e-20)
(1.18395 1.11314 0)
(1.19432 1.14589 1.04543e-21)
(1.14462 1.12496 1.76494e-20)
(1.07421 1.08803 -8.33445e-21)
(0.997985 1.04788 8.69148e-21)
(0.913882 1.00419 0)
(0.820914 0.954262 4.57944e-20)
(0.717951 0.894381 -6.40056e-21)
(0.619765 0.828108 0)
(0.542998 0.760999 0)
(0.479901 0.678631 1.11067e-19)
(0.397419 0.548177 -5.17343e-20)
(0.286292 0.372558 -8.30421e-20)
(0.169818 0.175687 0)
(0.0704404 0.0672967 5.72368e-20)
(0.00597239 0.463395 -6.65355e-20)
(0.0310129 1.92678 -3.73809e-20)
(0.0576312 2.82465 -4.58207e-20)
(0.235219 0.223224 -2.79606e-20)
(1.01199 0.965663 -7.19914e-20)
(1.17356 1.13905 1.99958e-20)
(1.18247 1.17187 1.64135e-20)
(1.13286 1.15062 0)
(1.06243 1.11344 -8.12737e-21)
(0.986364 1.07319 1.05143e-20)
(0.901648 1.02967 -2.80188e-21)
(0.80751 0.980248 6.8749e-21)
(0.702116 0.921304 1.17951e-19)
(0.599625 0.85637 1.30847e-19)
(0.516061 0.789204 9.70866e-20)
(0.443325 0.700297 1.12057e-19)
(0.350209 0.55142 -1.21968e-19)
(0.237021 0.365554 -1.25723e-19)
(0.112552 0.228817 0)
(0.0395211 0.883725 0)
(0.0871778 2.58116 3.17599e-20)
(0.0899811 3.21171 0)
(0.0913071 3.38926 8.28156e-20)
(0.237908 0.229291 0)
(1.00582 0.988798 0)
(1.16313 1.16324 0)
(1.17068 1.19612 4.98654e-21)
(1.12115 1.17464 1.63555e-20)
(1.05083 1.1375 -8.71655e-21)
(0.975197 1.09743 6.22751e-21)
(0.889825 1.05426 -2.69172e-21)
(0.794565 1.00564 5.6478e-20)
(0.686789 0.948125 -1.81911e-21)
(0.579964 0.885245 2.58452e-19)
(0.489212 0.819439 -1.12579e-20)
(0.404363 0.724588 1.3613e-20)
(0.301013 0.551368 1.77107e-20)
(0.177359 0.383305 -5.17259e-22)
(0.091216 1.01378 3.48721e-22)
(0.124552 2.76235 -1.6822e-19)
(0.129288 3.30118 -6.35862e-20)
(0.119728 3.42383 3.36202e-20)
(0.109213 3.44368 -3.7924e-20)
(0.161203 0.174978 1.71607e-20)
(0.995568 1.01386 0)
(1.15248 1.18592 -4.12164e-20)
(1.15936 1.21909 -4.50844e-20)
(1.10994 1.1975 3.86988e-20)
(1.04009 1.16067 1.01854e-20)
(0.964315 1.12055 -5.68944e-21)
(0.878442 1.07801 2.79225e-20)
(0.782155 1.03051 -4.59954e-20)
(0.672188 0.974963 0)
(0.561064 0.914779 1.27159e-19)
(0.463001 0.851497 -7.93186e-20)
(0.364871 0.754447 0)
(0.243543 0.551989 1.71189e-20)
(0.130686 0.764062 4.08317e-20)
(0.139192 2.56505 -4.63728e-20)
(0.187299 3.32894 5.27325e-20)
(0.169768 3.43475 2.83869e-20)
(0.140949 3.45348 3.23653e-20)
(0.121661 3.46211 5.14291e-20)
(0.27288 0.26758 -3.31279e-20)
(0.978742 1.02459 0)
(1.13469 1.21214 4.46135e-20)
(1.145 1.25037 4.98083e-20)
(1.09262 1.23126 -4.35683e-20)
(1.02218 1.19481 -1.52619e-20)
(0.945223 1.15624 1.54816e-21)
(0.858794 1.11502 2.21947e-21)
(0.761074 1.0698 4.28474e-20)
(0.648129 1.01842 1.00779e-19)
(0.531315 0.96469 7.0899e-21)
(0.421502 0.90601 7.03716e-20)
(0.292871 0.791022 1.28254e-20)
(0.205052 0.934789 -1.64355e-20)
(0.210622 2.43982 -3.71844e-20)
(0.261651 3.33383 3.65912e-20)
(0.244575 3.46096 -4.01052e-20)
(0.210267 3.47947 -2.31668e-20)
(0.176543 3.50377 -2.07537e-20)
(0.131416 3.49841 -3.04002e-21)
(0.263264 0.266586 0)
(0.976164 1.04772 1.29345e-20)
(1.12616 1.23595 -9.18233e-21)
(1.13407 1.2741 -5.92491e-21)
(1.08163 1.25468 -3.01384e-20)
(1.01117 1.21843 1.58242e-20)
(0.933901 1.18009 6.98211e-22)
(0.847222 1.13974 1.92165e-21)
(0.748872 1.09606 -4.40731e-20)
(0.634434 1.04767 -2.82315e-21)
(0.514416 0.998873 -2.28294e-19)
(0.398402 0.943211 1.00771e-20)
(0.277036 0.86436 -1.21175e-20)
(0.240063 1.54835 -1.50737e-20)
(0.302459 3.14377 3.67679e-21)
(0.315638 3.4634 2.72163e-22)
(0.274011 3.51037 5.85939e-20)
(0.240013 3.53321 2.94679e-20)
(0.194187 3.55298 -9.04183e-21)
(0.14416 3.54928 -1.47824e-20)
(0.249368 0.264755 3.31115e-20)
(0.972692 1.07345 8.77659e-20)
(1.11729 1.26185 -2.62577e-20)
(1.12278 1.29946 -2.23362e-20)
(1.07017 1.27957 0)
(0.999792 1.24335 2.85405e-20)
(0.922487 1.2053 4.15605e-21)
(0.835811 1.16577 1.59998e-21)
(0.73714 1.12372 -4.94945e-21)
(0.621741 1.0786 -8.95189e-20)
(0.499421 1.03527 -1.04605e-19)
(0.378614 0.982291 -8.21284e-20)
(0.27751 1.00802 -9.0752e-20)
(0.305002 2.31064 9.39982e-20)
(0.382737 3.39125 7.93632e-20)
(0.354677 3.52052 0)
(0.306524 3.55671 0)
(0.26982 3.58999 -7.00301e-21)
(0.225642 3.63505 0)
(0.156092 3.61926 -1.05474e-20)
(0.239607 0.26682 -4.9447e-20)
(0.967303 1.10009 -7.43898e-20)
(1.10705 1.28901 0)
(1.11025 1.32566 1.26972e-21)
(1.05749 1.30513 -3.25891e-20)
(0.987351 1.26886 4.62779e-20)
(0.910332 1.23113 4.52492e-21)
(0.823884 1.19234 5.71595e-22)
(0.725149 1.15189 -2.95534e-20)
(0.609227 1.11006 4.35095e-21)
(0.485522 1.07231 0)
(0.36033 1.02529 0)
(0.300688 1.29833 -8.18518e-20)
(0.383342 2.9736 3.33613e-20)