/*--------------------------------*- C++ -*----------------------------------*\
  =========                 |
  \\      /  F ield         | OpenFOAM: The Open Source CFD Toolbox
   \\    /   O peration     | Website:  https://openfoam.org
    \\  /    A nd           | Version:  6
     \\/     M anipulation  |
\*---------------------------------------------------------------------------*/
FoamFile
{
    version     2.0;
    format      ascii;
    class       volScalarField;
    location    "4.9";
    object      p;
}
// * * * * * * * * * * * * * * * * * * * * * * * * * * * * * * * * * * * * * //

dimensions      [0 2 -2 0 0 0 0];

internalField   nonuniform List<scalar> 
8800
(
0.565723
0.516713
0.479143
0.451627
0.431992
0.418144
0.4085
0.401806
0.397549
0.395743
0.396547
0.39989
0.405555
0.413736
0.425389
0.441948
0.465219
0.497765
0.540271
0.592651
0.39879
0.405793
0.416387
0.421721
0.420633
0.41586
0.409669
0.403738
0.39898
0.39574
0.395117
0.397631
0.401928
0.407504
0.413836
0.419653
0.422899
0.421145
0.412532
0.40263
0.372859
0.379296
0.384634
0.389229
0.392737
0.394588
0.394488
0.393055
0.391431
0.390624
0.391147
0.392791
0.394734
0.395813
0.395044
0.392474
0.388307
0.383441
0.377718
0.374201
0.37495
0.377529
0.380832
0.38342
0.385327
0.386353
0.386462
0.386359
0.386074
0.385957
0.386284
0.386905
0.387415
0.387622
0.387361
0.385798
0.383721
0.380693
0.377638
0.376477
0.376009
0.376482
0.377539
0.378814
0.380242
0.381492
0.382547
0.383094
0.383301
0.383445
0.383758
0.384053
0.384014
0.383421
0.382439
0.381197
0.379926
0.378723
0.377964
0.377796
0.373035
0.37323
0.37366
0.374185
0.374729
0.375318
0.375901
0.37643
0.37685
0.377195
0.377517
0.377702
0.377632
0.377345
0.376932
0.376479
0.376023
0.375573
0.375282
0.375207
0.36976
0.369875
0.370135
0.370522
0.371009
0.371567
0.372139
0.372683
0.373188
0.373675
0.374049
0.374218
0.374189
0.373976
0.37364
0.373264
0.372918
0.372642
0.372483
0.372437
0.365708
0.365764
0.365892
0.36609
0.366362
0.366716
0.367152
0.367656
0.368201
0.368763
0.369244
0.369533
0.369625
0.369585
0.36948
0.369355
0.369235
0.369134
0.369073
0.369051
0.361368
0.361406
0.361499
0.361649
0.361868
0.36217
0.362567
0.363066
0.363664
0.364347
0.364965
0.365382
0.365611
0.365707
0.365722
0.365697
0.365656
0.365615
0.365587
0.365572
0.356775
0.356799
0.356871
0.356994
0.357184
0.357466
0.357861
0.358393
0.359075
0.359897
0.360695
0.361283
0.361659
0.361883
0.362006
0.362066
0.36209
0.362094
0.36209
0.362082
0.351942
0.351965
0.352031
0.352151
0.352344
0.352639
0.353072
0.353677
0.354485
0.355499
0.356521
0.357307
0.35785
0.358203
0.358423
0.358553
0.358624
0.358659
0.358671
0.358666
0.34686
0.34688
0.346953
0.347085
0.347302
0.347641
0.348146
0.348869
0.349855
0.351121
0.352425
0.353457
0.35419
0.354681
0.354999
0.355196
0.355312
0.355374
0.355398
0.355395
0.341499
0.341521
0.341604
0.341759
0.342017
0.342425
0.34304
0.34393
0.345158
0.346753
0.348417
0.349751
0.350704
0.351356
0.351783
0.352052
0.352213
0.352302
0.352339
0.352337
0.33579
0.335815
0.335916
0.336107
0.336426
0.336933
0.3377
0.338816
0.340362
0.342382
0.344499
0.346205
0.347432
0.348275
0.348831
0.349184
0.349396
0.349515
0.349566
0.349564
0.329648
0.329679
0.329806
0.330046
0.330449
0.331089
0.332061
0.333474
0.335436
0.338
0.340691
0.342863
0.344428
0.345505
0.346217
0.34667
0.346944
0.347097
0.347163
0.347162
0.322957
0.322996
0.323159
0.323465
0.323981
0.324798
0.326038
0.327841
0.33034
0.333602
0.337019
0.339775
0.34176
0.343127
0.344031
0.344606
0.344954
0.345149
0.345234
0.345232
0.315559
0.315609
0.315819
0.316215
0.31688
0.317932
0.319525
0.321835
0.325027
0.329181
0.333518
0.337006
0.339515
0.341241
0.342382
0.343108
0.343548
0.343795
0.343901
0.343899
0.307243
0.307309
0.307584
0.3081
0.308964
0.310328
0.312386
0.315358
0.319447
0.324738
0.330235
0.334639
0.337801
0.339973
0.341409
0.342322
0.342875
0.343186
0.343319
0.343316
0.297726
0.297815
0.298178
0.298858
0.299991
0.301773
0.304448
0.308289
0.313536
0.320277
0.327233
0.332779
0.336751
0.339477
0.341278
0.342424
0.343118
0.343507
0.343674
0.34367
0.286617
0.28674
0.287227
0.288134
0.289637
0.291987
0.295491
0.300479
0.307229
0.315813
0.324592
0.331551
0.336525
0.339936
0.342192
0.343628
0.344498
0.344985
0.345194
0.345188
0.27337
0.273545
0.27421
0.275441
0.277467
0.280608
0.285242
0.29176
0.300462
0.311376
0.322411
0.331104
0.337308
0.341569
0.344393
0.346193
0.347285
0.347898
0.34816
0.348152
0.257208
0.257462
0.25839
0.260102
0.262894
0.267169
0.273377
0.281957
0.293193
0.307025
0.320812
0.331605
0.33931
0.344623
0.348162
0.350429
0.351808
0.352582
0.352913
0.352903
0.236961
0.237339
0.238678
0.241155
0.245137
0.251103
0.259558
0.270938
0.285442
0.302866
0.319939
0.333225
0.342742
0.34936
0.353816
0.356698
0.358464
0.359453
0.359872
0.359862
0.210703
0.21127
0.213353
0.217196
0.22317
0.231772
0.243499
0.258678
0.277329
0.299065
0.319949
0.336116
0.347778
0.356013
0.361669
0.365407
0.367733
0.369039
0.369586
0.369575
0.174927
0.175925
0.179687
0.186272
0.195771
0.208586
0.225073
0.245309
0.269068
0.295803
0.320949
0.340334
0.354468
0.364677
0.371924
0.376918
0.380174
0.38208
0.382884
0.38287
0.122838
0.125788
0.134044
0.146411
0.16213
0.181518
0.20463
0.23125
0.260984
0.293241
0.322942
0.345765
0.362628
0.375148
0.384435
0.391256
0.396157
0.399382
0.400988
0.401031
0.0431962
0.0572173
0.0764881
0.0990278
0.124197
0.152369
0.183466
0.217272
0.253454
0.291556
0.326093
0.352685
0.372698
0.388062
0.400072
0.409608
0.417301
0.42337
0.427821
0.42916
-0.0399527
-0.0122824
0.0192555
0.0523431
0.0872284
0.124055
0.162908
0.203727
0.246343
0.290551
0.330509
0.361579
0.385415
0.404248
0.419497
0.432155
0.442826
0.452391
0.460667
0.462803
-0.102108
-0.0699574
-0.0305703
0.010675
0.0536516
0.0981552
0.1441
0.191345
0.239792
0.289398
0.333929
0.368495
0.395046
0.416029
0.432955
0.446832
0.458343
0.468002
0.475298
0.477367
-0.146516
-0.112189
-0.0687456
-0.0224243
0.0259653
0.0760915
0.127522
0.179956
0.233193
0.287219
0.335402
0.372601
0.400945
0.423065
0.440625
0.454753
0.466279
0.475845
0.483142
0.485289
-0.178881
-0.143805
-0.0978919
-0.0483322
0.00375335
0.0578704
0.113448
0.169937
0.226981
0.284538
0.335614
0.37482
0.404453
0.427346
0.445307
0.459594
0.471098
0.480504
0.487545
0.489665
-0.203812
-0.168436
-0.120946
-0.0690515
-0.0141775
0.0429885
0.101675
0.161189
0.221055
0.281241
0.334576
0.37545
0.406209
0.429785
0.448107
0.462525
0.474026
0.483329
0.490235
0.492356
-0.224082
-0.188296
-0.139581
-0.0859758
-0.0290256
0.0304599
0.0915216
0.153269
0.215144
0.277223
0.332367
0.3748
0.406722
0.431074
0.44985
0.464487
0.476051
0.485295
0.492077
0.494204
-0.241231
-0.204823
-0.155022
-0.0999698
-0.0413425
0.0199284
0.0827427
0.146032
0.209157
0.272409
0.328997
0.373026
0.406332
0.431705
0.45114
0.466141
0.477866
0.48713
0.493858
0.496004
-0.255871
-0.218905
-0.168089
-0.111773
-0.0517266
0.0109859
0.0750866
0.139311
0.202968
0.266653
0.32435
0.370141
0.405235
0.432032
0.452444
0.468039
0.480069
0.489441
0.496148
0.498304
-0.268793
-0.2311
-0.1793
-0.121819
-0.0605433
0.00335065
0.0683726
0.13302
0.196488
0.25981
0.318217
0.36604
0.403502
0.432317
0.454173
0.470682
0.483212
0.492814
0.499571
0.501756
-0.280182
-0.241828
-0.189035
-0.130465
-0.0680607
-0.00315494
0.0625062
0.127122
0.189687
0.251728
0.310299
0.360471
0.401088
0.432744
0.4567
0.474575
0.487895
0.497884
0.504758
0.506987
-0.29054
-0.251392
-0.197601
-0.137958
-0.0744832
-0.00867652
0.057433
0.121642
0.182605
0.242262
0.300227
0.353041
0.397824
0.433432
0.460387
0.480241
0.494734
0.505323
0.512425
0.514714
-0.299976
-0.260062
-0.205242
-0.144515
-0.0799725
-0.0133106
0.0531309
0.116637
0.175315
0.231348
0.287571
0.343229
0.393408
0.434419
0.465564
0.488235
0.504412
0.515885
0.523345
0.525719
-0.30873
-0.267991
-0.212129
-0.150313
-0.0846831
-0.0171411
0.0495919
0.112205
0.167993
0.218982
0.271873
0.330335
0.387362
0.435648
0.472577
0.499153
0.517671
0.530377
0.538353
0.540974
-0.317017
-0.275361
-0.218419
-0.155485
-0.0887389
-0.0202681
0.0468073
0.108443
0.160839
0.205281
0.252709
0.313519
0.379045
0.436969
0.4817
0.513585
0.535278
0.549654
0.558319
0.561098
-0.325059
-0.282321
-0.224271
-0.160165
-0.0922452
-0.0227778
0.0447445
0.105462
0.154105
0.190443
0.229701
0.291775
0.367582
0.438042
0.49313
0.532073
0.558013
0.574664
0.58432
0.587095
-0.332793
-0.288996
-0.229788
-0.164487
-0.095323
-0.0247415
0.0433604
0.10331
0.148071
0.174823
0.202546
0.26393
0.351936
0.438268
0.506836
0.554963
0.586404
0.605968
0.616755
0.619323
-0.340308
-0.295447
-0.235052
-0.168526
-0.0980775
-0.0262864
0.0426082
0.102026
0.142974
0.158873
0.171049
0.228583
0.330583
0.43726
0.522388
0.582066
0.620764
0.643855
0.655663
0.657842
-0.347816
-0.301739
-0.240159
-0.172381
-0.100586
-0.0275021
0.0423961
0.101647
0.139029
0.143118
0.134976
0.184762
0.302462
0.433856
0.5397
0.614251
0.662548
0.690145
0.701135
0.701293
-0.355194
-0.307954
-0.24514
-0.17609
-0.10296
-0.0284639
0.0426326
0.102098
0.136435
0.128133
0.0946322
0.130177
0.265098
0.42822
0.560344
0.651153
0.710715
0.746136
0.75418
0.745199
-0.362694
-0.314127
-0.250026
-0.179704
-0.105264
-0.0292794
0.0432427
0.103333
0.135281
0.114287
0.0492412
0.0608648
0.214579
0.420259
0.586163
0.69416
0.761638
0.809082
0.824013
0.811284
-0.370213
-0.320321
-0.254772
-0.18335
-0.107648
-0.0300433
0.0440968
0.105333
0.135655
0.101683
-0.00373243
-0.0335962
0.14084
0.407409
0.610509
0.729686
0.791171
0.828262
0.842173
0.809561
-0.377611
-0.326335
-0.259193
-0.187065
-0.110065
-0.030762
0.0451094
0.108038
0.137759
0.0915423
-0.0635677
-0.161286
0.0370429
0.371232
0.610807
0.736567
0.774668
0.770712
0.697841
0.645342
-0.384689
-0.33103
-0.263004
-0.190447
-0.112026
-0.0311427
0.0463374
0.111511
0.141867
0.0847283
-0.129797
-0.339861
-0.156133
0.292396
0.609759
0.720145
0.722641
0.648791
0.539664
0.470954
-0.435987
-0.333254
-0.267232
-0.193934
-0.114291
-0.0320175
0.047927
0.116092
0.149141
0.0839197
-0.19944
-0.62068
-0.504567
0.106079
0.531507
0.614225
0.541029
0.442875
0.329714
0.267869
-0.358253
-0.336979
-0.275038
-0.199586
-0.118423
-0.0335856
0.0492845
0.121555
0.158807
0.0908687
-0.287962
-1.20805
-1.3306
-0.43856
0.103633
0.0860071
0.0256333
-0.0237512
-0.108593
0.000109131
-0.389402
-0.345024
-0.280953
-0.205047
-0.122584
-0.0360041
0.0499897
0.126064
0.169768
0.109409
-0.316681
-1.61921
-2.15884
-1.00641
-0.376566
-0.362253
-0.37967
-0.407978
-0.490099
-0.340535
-0.408615
-0.358098
-0.29002
-0.212674
-0.128434
-0.0396513
0.049393
0.129683
0.180941
0.131714
-0.324378
-1.89971
-2.55723
-1.47897
-0.931157
-0.805733
-0.822244
-0.846346
-0.948774
-0.74503
-0.426457
-0.371718
-0.300353
-0.220714
-0.13444
-0.0433168
0.048488
0.133423
0.192733
0.159253
-0.286888
-1.8955
-2.58714
-1.69096
-1.28311
-1.19827
-1.26468
-1.33836
-1.46761
-1.30601
-0.443294
-0.385482
-0.311454
-0.229519
-0.141006
-0.0475947
0.0471249
0.13687
0.204468
0.191477
-0.185397
-1.59577
-2.26164
-1.66371
-1.45598
-1.50354
-1.65685
-1.84267
-2.10676
-2.126
-0.45962
-0.400034
-0.323755
-0.239606
-0.148764
-0.05305
0.0448821
0.138985
0.21511
0.22517
-0.0584132
-1.11169
-1.67974
-1.44201
-1.51832
-1.71099
-1.9281
-2.16557
-2.39589
-2.80197
-0.476773
-0.415806
-0.337618
-0.251271
-0.15823
-0.0600042
0.041043
0.139448
0.22458
0.257573
0.0791003
-0.58843
-1.07112
-1.15468
-1.46422
-1.87917
-2.13334
-2.1806
-2.25252
-2.30761
-0.495161
-0.433065
-0.353185
-0.264784
-0.169574
-0.0688181
0.0350906
0.138173
0.230965
0.287658
0.206929
-0.134542
-0.517363
-0.855027
-1.3775
-2.05028
-2.46996
-2.24092
-2.25632
-2.34897
-0.515511
-0.452295
-0.370684
-0.280348
-0.182858
-0.0797703
0.0271447
0.134043
0.234541
0.310767
0.305878
0.163607
-0.128591
-0.575436
-1.26009
-2.19102
-3.17487
-3.14007
-2.88854
-2.80552
-0.538544
-0.47392
-0.390502
-0.298065
-0.198503
-0.0928714
0.0166448
0.127075
0.233867
0.327013
0.371949
0.330049
0.119134
-0.309128
-1.07073
-2.18191
-3.55837
-3.84548
-3.44701
-3.16232
-0.564457
-0.49825
-0.412829
-0.318295
-0.216401
-0.108562
0.00347135
0.117438
0.229848
0.334873
0.409014
0.417776
0.280024
-0.0516137
-0.628606
-1.483
-2.31846
-2.57873
-2.35129
-2.15852
-0.593227
-0.525431
-0.437841
-0.34104
-0.236878
-0.126581
-0.0120049
0.104729
0.22169
0.336108
0.429308
0.467808
0.407168
0.229778
-0.0313715
-0.342719
-0.561561
-0.639722
-0.578792
-0.536298
-0.625066
-0.555433
-0.465475
-0.366176
-0.259596
-0.147074
-0.0300736
0.0898408
0.211098
0.332927
0.438804
0.502535
0.507095
0.4645
0.398363
0.340321
0.342437
0.394534
0.431593
0.439978
-0.65951
-0.587912
-0.49542
-0.393474
-0.284364
-0.169266
-0.049586
0.0732206
0.198313
0.326906
0.44352
0.52781
0.577219
0.605734
0.633092
0.67425
0.732009
0.789198
0.821833
0.828686
-0.695703
-0.622135
-0.526953
-0.422219
-0.310397
-0.192711
-0.0703232
0.0555722
0.184778
0.319817
0.445863
0.546104
0.623153
0.687869
0.749405
0.812161
0.873342
0.923794
0.952498
0.959159
-0.732337
-0.657011
-0.559181
-0.451659
-0.336987
-0.21643
-0.091198
0.0378841
0.171392
0.31169
0.446333
0.557922
0.649199
0.727338
0.796582
0.858207
0.911352
0.953511
0.979997
0.987146
-0.768194
-0.691019
-0.590632
-0.48025
-0.362765
-0.239406
-0.111353
0.0209772
0.158453
0.304213
0.445141
0.563371
0.660951
0.742715
0.811386
0.868578
0.915393
0.952402
0.977062
0.984255
-0.800956
-0.722274
-0.619538
-0.506445
-0.386264
-0.260338
-0.129623
0.00564486
0.146578
0.296718
0.441575
0.563087
0.662469
0.743989
0.810594
0.864639
0.908176
0.942745
0.965827
0.973166
-0.826709
-0.747855
-0.643484
-0.528023
-0.40568
-0.277695
-0.144937
-0.00752345
0.135822
0.288523
0.435187
0.55739
0.656178
0.736153
0.800706
0.852717
0.894552
0.927851
0.950254
0.957606
-0.842855
-0.764674
-0.659425
-0.542444
-0.418854
-0.289842
-0.15623
-0.0180073
0.126081
0.279267
0.425433
0.546261
0.643108
0.721008
0.783688
0.834112
0.874742
0.907078
0.929015
0.936465
-0.844951
-0.768408
-0.663742
-0.546538
-0.423253
-0.294955
-0.162351
-0.0253603
0.117276
0.268421
0.41171
0.529391
0.623259
0.698683
0.759459
0.808505
0.848195
0.879672
0.901443
0.909072
-0.827069
-0.753896
-0.651762
-0.536633
-0.41609
-0.291096
-0.16213
-0.0290434
0.109335
0.255522
0.393334
0.505973
0.595712
0.668034
0.726631
0.774183
0.81288
0.843571
0.865378
0.873407
-0.781746
-0.714787
-0.618245
-0.508662
-0.394438
-0.276337
-0.154452
-0.0285599
0.102339
0.240276
0.369693
0.474986
0.558881
0.626855
0.682444
0.727954
0.765177
0.795132
0.816917
0.825412
-0.701175
-0.644696
-0.557117
-0.458419
-0.355728
-0.248967
-0.138326
-0.0234672
0.0964096
0.222673
0.340495
0.435645
0.511118
0.572327
0.622842
0.66479
0.699233
0.727129
0.74819
0.756687
-0.582261
-0.538703
-0.464651
-0.383712
-0.298263
-0.207901
-0.112987
-0.0131074
0.0920601
0.203158
0.306218
0.388246
0.452125
0.502878
0.543991
0.578168
0.606697
0.62953
0.645477
0.651039
-0.40015
-0.379357
-0.335653
-0.282724
-0.221881
-0.154317
-0.0794903
0.002358
0.0911812
0.186732
0.275947
0.346594
0.400703
0.442625
0.47506
0.499677
0.518351
0.533377
0.545545
0.550071
-0.221843
-0.215395
-0.198142
-0.172372
-0.137932
-0.0941828
-0.0408498
0.0219467
0.0938077
0.173886
0.249782
0.309624
0.354489
0.387732
0.412157
0.43007
0.442906
0.451025
0.455537
0.456685
-0.0994051
-0.0978601
-0.0921359
-0.0808964
-0.0633411
-0.0374627
-0.00208331
0.0435581
0.0992961
0.164169
0.227099
0.276748
0.313339
0.339792
0.358303
0.370477
0.377918
0.382274
0.384419
0.384819
-0.0258742
-0.0265493
-0.0257852
-0.021011
-0.010941
0.00555027
0.0297571
0.062858
0.105449
0.15701
0.208096
0.248437
0.277698
0.298142
0.311877
0.320791
0.326206
0.329014
0.329979
0.330068
0.0152773
0.0149527
0.0153428
0.017939
0.0240304
0.0349947
0.0521836
0.0767102
0.109313
0.149871
0.190751
0.223157
0.246541
0.2628
0.273641
0.280439
0.284349
0.286337
0.287103
0.287225
0.0416758
0.0416732
0.0422335
0.0442718
0.0486329
0.0563558
0.0686903
0.0868852
0.111827
0.1436
0.176088
0.201935
0.22049
0.23321
0.241535
0.246723
0.249749
0.251318
0.251951
0.252062
0.0591353
0.0592179
0.0597581
0.0613504
0.0646225
0.070386
0.0796115
0.0933414
0.112457
0.137225
0.162854
0.183319
0.197981
0.208008
0.21457
0.218649
0.221016
0.222244
0.222746
0.222833
0.0705132
0.0706325
0.0711478
0.0724427
0.0749673
0.0793331
0.0863167
0.096788
0.111519
0.130822
0.150975
0.167126
0.178696
0.186588
0.191733
0.194925
0.19678
0.197748
0.198146
0.198214
0.0775746
0.0776862
0.0781231
0.0791562
0.0811223
0.0844839
0.0898376
0.0978784
0.10926
0.124297
0.1401
0.152804
0.161907
0.168112
0.172154
0.17466
0.176115
0.176874
0.177184
0.177236
0.0813583
0.0814532
0.0818089
0.0826245
0.0841549
0.0867537
0.0908833
0.0970914
0.105911
0.117625
0.129999
0.139972
0.147123
0.151996
0.155168
0.157133
0.158272
0.158865
0.159106
0.159145
0.0826321
0.0827096
0.082993
0.083633
0.084825
0.0868408
0.090038
0.0948466
0.101693
0.110821
0.120499
0.128315
0.133924
0.137745
0.140232
0.141771
0.142661
0.143123
0.14331
0.143339
0.0819694
0.0820314
0.082255
0.0827556
0.0836836
0.0852495
0.0877307
0.0914629
0.0967854
0.103899
0.111462
0.117581
0.121974
0.124967
0.126913
0.128117
0.128813
0.129172
0.129316
0.129338
0.0798087
0.0798576
0.080033
0.0804235
0.081146
0.0823632
0.084291
0.0871916
0.0913324
0.0968768
0.102783
0.107567
0.111003
0.113345
0.114867
0.115808
0.11635
0.11663
0.116741
0.116758
0.0764864
0.0765248
0.0766619
0.0769662
0.0775284
0.078475
0.0799739
0.0822294
0.0854515
0.0897719
0.0943806
0.0981178
0.100803
0.102633
0.103821
0.104555
0.104978
0.105195
0.105281
0.105293
0.0722627
0.0722927
0.0723994
0.0726361
0.0730734
0.0738094
0.0749747
0.0767288
0.0792361
0.0826011
0.0861946
0.0891103
0.0912059
0.0926337
0.093561
0.0941327
0.0944614
0.0946296
0.0946957
0.0947052
0.0673388
0.067362
0.0674449
0.0676288
0.0679685
0.0685403
0.0694456
0.0708087
0.0727583
0.0753767
0.0781752
0.0804472
0.0820802
0.0831923
0.0839142
0.0843592
0.0846148
0.084745
0.0847957
0.0848028
0.0618707
0.0618886
0.0619528
0.0620952
0.0623585
0.0628019
0.0635044
0.0645625
0.0660762
0.0681102
0.0702857
0.0720522
0.0733218
0.0741866
0.0747477
0.075093
0.0752908
0.0753913
0.0754302
0.0754355
0.0559807
0.0559944
0.0560438
0.0561537
0.0563572
0.0567002
0.0572436
0.0580624
0.0592346
0.0608106
0.0624968
0.0638665
0.0648511
0.0655214
0.0659557
0.0662226
0.0663753
0.0664526
0.0664823
0.0664862
0.0497636
0.049774
0.0498118
0.0498961
0.0500524
0.0503162
0.0507348
0.0513657
0.0522694
0.053485
0.054786
0.0558429
0.0566024
0.0571189
0.0574536
0.0576592
0.0577764
0.0578353
0.0578578
0.0578608
0.0432944
0.0433021
0.0433305
0.0433944
0.0435134
0.0437147
0.0440345
0.0445171
0.0452086
0.046139
0.0471352
0.0479442
0.0485251
0.0489202
0.0491759
0.0493328
0.0494221
0.0494668
0.0494836
0.0494859
0.0366324
0.0366379
0.0366586
0.0367063
0.0367957
0.0369472
0.0371882
0.0375522
0.0380743
0.0387773
0.0395303
0.040142
0.0405813
0.0408797
0.0410726
0.0411904
0.041257
0.0412901
0.0413023
0.0413038
0.0298245
0.029828
0.0298429
0.0298776
0.0299431
0.0300545
0.0302322
0.030501
0.0308866
0.0314061
0.0319628
0.0324147
0.0327389
0.0329586
0.0331
0.0331864
0.0332352
0.0332592
0.0332678
0.0332686
0.0229058
0.022908
0.0229184
0.0229426
0.0229886
0.0230672
0.0231928
0.0233829
0.023656
0.0240244
0.0244189
0.024739
0.0249683
0.0251238
0.0252239
0.0252845
0.0253183
0.0253346
0.02534
0.0253405
0.0159099
0.0159112
0.0159171
0.015932
0.0159611
0.0160116
0.0160928
0.0162164
0.0163943
0.0166344
0.0168918
0.017101
0.0172509
0.0173524
0.0174175
0.0174566
0.017478
0.0174877
0.0174906
0.0174909
0.00886074
0.00886117
0.00886367
0.00887086
0.00888585
0.00891237
0.00895539
0.00902109
0.00911582
0.0092437
0.00938058
0.00949214
0.00957149
0.00962478
0.00965883
0.00967921
0.00969018
0.00969503
0.00969645
0.00969673
0.00177252
0.00177143
0.00176993
0.00177008
0.00177207
0.00177615
0.00178313
0.00179411
0.00181036
0.00183282
0.00186359
0.00188882
0.00190826
0.0019221
0.00193128
0.0019369
0.00194006
0.00194127
0.00194054
0.00193862
-0.969117
-0.612186
-0.282496
-0.0102153
0.210713
0.395314
0.552751
0.687274
0.748497
0.721952
-0.372842
-0.149015
0.048584
0.222004
0.369819
0.495576
0.597629
0.667713
0.69871
0.701568
0.00240022
0.137316
0.263637
0.377097
0.475434
0.556386
0.618581
0.659253
0.683633
0.692539
0.238147
0.32519
0.408587
0.482925
0.546542
0.599433
0.640108
0.669038
0.688274
0.696542
0.394835
0.451163
0.506722
0.557427
0.603429
0.642524
0.672263
0.695507
0.706669
0.71444
0.507655
0.546475
0.590124
0.630649
0.666252
0.694468
0.716609
0.733492
0.740966
0.752959
0.593626
0.626931
0.660859
0.693221
0.720183
0.745679
0.769072
0.786879
0.795677
0.809937
0.665709
0.698194
0.731791
0.765245
0.797505
0.825567
0.847368
0.860566
0.869893
0.885479
0.750872
0.791683
0.831383
0.866886
0.896322
0.920237
0.939446
0.954679
0.96527
0.98016
0.86735
0.910439
0.948642
0.98115
1.01033
1.03479
1.05387
1.06775
1.07879
1.0948
1.00693
1.0487
1.08464
1.11536
1.14088
1.16164
1.17992
1.19569
1.2093
1.2252
1.17915
1.21218
1.23956
1.26175
1.28245
1.30157
1.31956
1.33584
1.35006
1.36607
1.3658
1.3832
1.4011
1.41797
1.43341
1.44826
1.46208
1.47696
1.49274
1.50986
1.55026
1.56021
1.57308
1.5839
1.59361
1.60336
1.61407
1.62399
1.63327
1.65885
1.76596
1.76106
1.74859
1.73475
1.72846
1.73421
1.75253
1.7812
1.81479
1.85102
2.07175
1.93456
1.85488
1.81207
1.79475
1.79891
1.8261
1.88402
1.99197
2.17054
0.468985
0.462955
0.455879
0.445835
0.433142
0.421394
0.411806
0.404532
0.399344
0.396188
0.395649
0.397945
0.402382
0.408783
0.417304
0.428147
0.440676
0.452572
0.460588
0.467647
0.376457
0.382663
0.392684
0.4002
0.404664
0.405603
0.403788
0.400355
0.396769
0.394151
0.393651
0.395781
0.39927
0.403091
0.406037
0.406636
0.404015
0.397958
0.38907
0.379932
0.373463
0.375471
0.379315
0.382729
0.385453
0.387265
0.388255
0.388423
0.387927
0.387471
0.387522
0.3881
0.388983
0.389475
0.38903
0.387769
0.385531
0.382537
0.378781
0.375568
0.376216
0.376742
0.378692
0.38109
0.383109
0.384362
0.385243
0.385505
0.385457
0.385329
0.38547
0.385949
0.386392
0.386525
0.386165
0.38529
0.383699
0.381511
0.379212
0.377955
0.37459
0.374661
0.374963
0.375526
0.376211
0.377176
0.378179
0.379009
0.379567
0.379905
0.380208
0.380465
0.38047
0.380087
0.379375
0.378428
0.377706
0.377152
0.376733
0.376581
0.371511
0.371581
0.371871
0.372346
0.372896
0.373464
0.374013
0.374524
0.37498
0.37539
0.37575
0.376059
0.376147
0.376037
0.375763
0.37537
0.374917
0.37446
0.374093
0.373936
0.367785
0.367813
0.367923
0.368134
0.368434
0.368832
0.369315
0.369846
0.370388
0.37092
0.371421
0.371736
0.371849
0.371774
0.371582
0.37135
0.371134
0.370957
0.370835
0.370784
0.363571
0.363589
0.363665
0.363807
0.364013
0.364293
0.364655
0.365105
0.365636
0.366234
0.366835
0.367293
0.367542
0.367633
0.367627
0.367569
0.367491
0.367415
0.367354
0.367324
0.359101
0.35911
0.359164
0.359269
0.359434
0.359675
0.360013
0.360464
0.361038
0.361733
0.362483
0.363096
0.363492
0.363713
0.363822
0.363863
0.363868
0.363856
0.36384
0.363828
0.354389
0.354397
0.354439
0.354531
0.354682
0.354915
0.355258
0.355741
0.356391
0.357219
0.358157
0.358971
0.359532
0.359899
0.360123
0.360252
0.360322
0.360354
0.360365
0.360364
0.349432
0.349435
0.349482
0.349577
0.349737
0.349991
0.350375
0.350931
0.351701
0.352714
0.353896
0.354953
0.355711
0.356232
0.35657
0.35678
0.356905
0.356974
0.357006
0.357012
0.344219
0.344222
0.344271
0.344377
0.344562
0.344858
0.345314
0.345984
0.346928
0.348188
0.349683
0.351044
0.352046
0.352736
0.353197
0.353492
0.353672
0.353775
0.353827
0.353839
0.338693
0.338695
0.338753
0.33888
0.339104
0.339466
0.340026
0.340857
0.342035
0.343621
0.345517
0.347257
0.348545
0.349446
0.350052
0.350443
0.350684
0.350824
0.350896
0.350915
0.33278
0.332781
0.332853
0.333012
0.333291
0.333745
0.334449
0.335495
0.336982
0.338991
0.341399
0.343615
0.34526
0.346417
0.347195
0.3477
0.348014
0.348197
0.348291
0.348316
0.32638
0.326382
0.326473
0.326674
0.327029
0.327606
0.328501
0.329831
0.331722
0.334276
0.337336
0.340153
0.342243
0.343714
0.344706
0.345349
0.34575
0.345984
0.346105
0.346137
0.319358
0.31936
0.319477
0.319736
0.320191
0.320932
0.322079
0.323781
0.326197
0.329451
0.33334
0.336913
0.339561
0.341422
0.342678
0.343493
0.343999
0.344297
0.34445
0.344491
0.311531
0.311534
0.311686
0.312023
0.312613
0.313571
0.31505
0.31724
0.320337
0.32449
0.329433
0.333957
0.3373
0.339648
0.34123
0.342257
0.342895
0.34327
0.343463
0.343514
0.302657
0.302661
0.302862
0.303304
0.304075
0.305323
0.307244
0.310074
0.314057
0.319365
0.325643
0.331358
0.335569
0.338521
0.340509
0.341798
0.3426
0.34307
0.343313
0.343377
0.292403
0.29241
0.292679
0.293266
0.294285
0.295927
0.298441
0.30212
0.307258
0.314049
0.322013
0.329214
0.3345
0.3382
0.340691
0.342307
0.343312
0.343902
0.344206
0.344285
0.28031
0.280323
0.28069
0.281485
0.282852
0.285037
0.288358
0.293175
0.29983
0.308523
0.318601
0.32764
0.334251
0.338874
0.341989
0.344013
0.345272
0.346012
0.346394
0.346492
0.265718
0.265743
0.266261
0.267367
0.269235
0.272193
0.276639
0.283004
0.291661
0.302785
0.31549
0.326775
0.335001
0.34076
0.344652
0.347188
0.348772
0.349705
0.350188
0.350312
0.247634
0.247685
0.248458
0.250051
0.252679
0.256775
0.262836
0.271343
0.282657
0.296866
0.312783
0.326766
0.336939
0.344092
0.348958
0.352151
0.354159
0.355354
0.355979
0.35614
0.224512
0.224636
0.225877
0.228278
0.232113
0.237976
0.24644
0.257958
0.272783
0.290846
0.310606
0.327754
0.340232
0.349084
0.355185
0.35925
0.361845
0.36342
0.364268
0.364493
0.193823
0.194165
0.196334
0.20017
0.206113
0.214911
0.22705
0.242791
0.262169
0.284908
0.309113
0.329856
0.344991
0.355881
0.363561
0.368822
0.372288
0.374464
0.37569
0.37604
0.150823
0.151735
0.156092
0.163027
0.173167
0.187036
0.204731
0.226197
0.25123
0.279391
0.308509
0.333157
0.351225
0.364476
0.374127
0.381043
0.385868
0.389093
0.391057
0.391624
0.0867968
0.0895816
0.0999688
0.114438
0.132722
0.154747
0.180204
0.208901
0.240533
0.274635
0.308898
0.337566
0.358701
0.374525
0.38648
0.395536
0.402369
0.407521
0.411053
0.411793
0.00774536
0.0147608
0.0349236
0.0613349
0.0900678
0.121317
0.155097
0.191336
0.229805
0.270214
0.310224
0.343754
0.368914
0.388344
0.403682
0.416004
0.426036
0.434392
0.439938
0.442477
-0.070002
-0.0555563
-0.0247254
0.0116126
0.0499357
0.0900432
0.131799
0.175171
0.220098
0.266462
0.31196
0.350084
0.378864
0.401341
0.419363
0.434088
0.446246
0.456296
0.463918
0.468119
-0.122909
-0.107382
-0.0718388
-0.0292312
0.0158726
0.0626818
0.110966
0.160453
0.210965
0.262409
0.312418
0.354092
0.385446
0.409787
0.429078
0.444555
0.457043
0.467141
0.474617
0.478546
-0.161394
-0.145471
-0.106766
-0.0604416
-0.0112136
0.0402137
0.0932467
0.147427
0.202389
0.257979
0.311674
0.356165
0.389383
0.414894
0.434861
0.450689
0.463315
0.473414
0.480931
0.484912
-0.18983
-0.173966
-0.133816
-0.0849614
-0.0326974
0.022058
0.0786432
0.136405
0.194784
0.25354
0.31006
0.356743
0.391426
0.417859
0.438347
0.454418
0.467119
0.477178
0.48469
0.488655
-0.21249
-0.19661
-0.155351
-0.104723
-0.0502425
0.00707823
0.0663892
0.126825
0.187713
0.248771
0.307441
0.355972
0.392002
0.419339
0.440371
0.456723
0.469534
0.479605
0.487157
0.491127
-0.231248
-0.215284
-0.172953
-0.120887
-0.064695
-0.00541957
0.0559492
0.118369
0.181011
0.243603
0.303832
0.354001
0.391452
0.419858
0.44159
0.458349
0.471369
0.481518
0.489109
0.493087
-0.247248
-0.231052
-0.187758
-0.134419
-0.0767634
-0.015903
0.0470385
0.110851
0.174538
0.237905
0.299122
0.350836
0.389951
0.419751
0.442479
0.45987
0.473246
0.483569
0.491247
0.495282
-0.261124
-0.244712
-0.200406
-0.145901
-0.0869805
-0.0247975
0.0393654
0.104083
0.168185
0.231569
0.293147
0.346361
0.387534
0.419244
0.443415
0.461763
0.475703
0.486323
0.494143
0.498235
-0.273413
-0.256694
-0.211384
-0.155777
-0.0956865
-0.0323577
0.0327645
0.0979902
0.161908
0.224489
0.285682
0.34034
0.384109
0.418459
0.444711
0.464477
0.479289
0.490385
0.498455
0.502657
-0.284377
-0.267337
-0.221025
-0.164365
-0.103174
-0.0387832
0.0271178
0.0925335
0.155716
0.216609
0.276482
0.332418
0.37947
0.417418
0.446635
0.468464
0.48457
0.496386
0.504806
0.509132
-0.294427
-0.276947
-0.229622
-0.171915
-0.109633
-0.0442491
0.0223414
0.0877259
0.149678
0.207947
0.265277
0.322112
0.373229
0.41605
0.449403
0.474182
0.492143
0.505019
0.513962
0.518491
-0.30359
-0.28577
-0.237403
-0.178607
-0.11524
-0.0488591
0.0183708
0.0835998
0.143916
0.198578
0.251849
0.308846
0.364853
0.414159
0.453201
0.482079
0.502657
0.517041
0.526737
0.53152
-0.312257
-0.293944
-0.244511
-0.184625
-0.120137
-0.0527245
0.0151619
0.0801831
0.138582
0.188677
0.236009
0.291953
0.353641
0.411389
0.458128
0.492623
0.516797
0.533274
0.544036
0.54911
-0.320427
-0.301669
-0.251126
-0.190118
-0.124465
-0.0559587
0.0126696
0.0775142
0.133838
0.178515
0.217699
0.270693
0.338676
0.407225
0.464212
0.506336
0.535315
0.554517
0.566635
0.572121
-0.328407
-0.309055
-0.257369
-0.195198
-0.128342
-0.0586755
0.0108159
0.075632
0.129848
0.168392
0.196984
0.244298
0.318838
0.400984
0.471359
0.523422
0.558655
0.581354
0.595159
0.601189
-0.336031
-0.316217
-0.263344
-0.199979
-0.131867
-0.0609607
0.00950644
0.0745179
0.126786
0.158673
0.174072
0.212068
0.292655
0.391778
0.479143
0.543894
0.587411
0.614662
0.630751
0.637249
-0.343592
-0.323218
-0.2691
-0.204551
-0.135155
-0.0629306
0.00867631
0.0741068
0.124758
0.149761
0.149296
0.173344
0.258533
0.378591
0.486944
0.567321
0.621815
0.655348
0.673249
0.679323
-0.351024
-0.330074
-0.274742
-0.208972
-0.138254
-0.0646823
0.0082234
0.0743698
0.12381
0.142066
0.123118
0.126336
0.215057
0.360044
0.495078
0.595021
0.661714
0.703942
0.723533
0.725104
-0.358549
-0.336978
-0.280296
-0.213268
-0.141254
-0.0662919
0.0080375
0.0752045
0.123959
0.13591
0.0963034
0.0707644
0.159546
0.335103
0.504551
0.627558
0.707243
0.759639
0.786864
0.776445
-0.366073
-0.343824
-0.285798
-0.217462
-0.144262
-0.0678591
0.00806849
0.0765551
0.125256
0.131393
0.0680335
0.00108917
0.0823446
0.299269
0.517654
0.664952
0.752061
0.80794
0.846424
0.852725
-0.373624
-0.350857
-0.291059
-0.221577
-0.14737
-0.0694578
0.00819243
0.0783095
0.127682
0.128964
0.039531
-0.0867606
-0.0273065
0.247516
0.515142
0.682422
0.765373
0.802307
0.801405
0.743309
-0.380777
-0.358238
-0.295633
-0.225776
-0.150616
-0.0712514
0.00826973
0.0803622
0.131173
0.129085
0.0124172
-0.197219
-0.181632