/*--------------------------------*- C++ -*----------------------------------*\
  =========                 |
  \\      /  F ield         | OpenFOAM: The Open Source CFD Toolbox
   \\    /   O peration     | Website:  https://openfoam.org
    \\  /    A nd           | Version:  6
     \\/     M anipulation  |
\*---------------------------------------------------------------------------*/
FoamFile
{
    version     2.0;
    format      ascii;
    class       surfaceScalarField;
    location    "111";
    object      phi;
}
// * * * * * * * * * * * * * * * * * * * * * * * * * * * * * * * * * * * * * //

dimensions      [0 3 -1 0 0 0 0];

internalField   nonuniform List<scalar> 
17370
(
-0.0899999
0.0898489
0.289162
-0.0714622
0.0537523
0.364485
-0.0381192
0.0276902
0.426597
-0.0196387
0.0146062
0.504284
-0.0107651
0.00827561
0.601892
-0.00627675
0.0049006
0.720434
-0.00373649
0.00289533
0.863748
-0.00215295
0.00159303
1.03601
-0.00107566
0.000662475
1.24292
-0.000254134
-0.000145451
1.49159
0.000526137
-0.000936672
1.4916
0.00133168
-0.00181265
1.24317
0.00233335
-0.00303721
1.03634
0.00385276
-0.00499923
0.864053
0.0063666
-0.00836038
0.721051
0.0108462
-0.0146827
0.603051
0.0197097
-0.027754
0.507484
0.0381753
-0.0537997
0.431793
0.0715014
-0.0898754
0.36515
0.0900164
0.198994
-0.128139
0.0882313
0.0399076
-0.364601
0.353384
-0.0746668
0.0858842
-0.446478
0.454324
-0.0843791
0.0765331
-0.521192
0.529905
-0.0684349
0.0597223
-0.612791
0.621572
-0.0515326
0.0427523
-0.726897
0.734168
-0.0352906
0.0280197
-0.867477
0.872597
-0.0224166
0.0172974
-1.03848
1.04193
-0.0134837
0.0100295
-1.2446
1.24704
-0.00741513
0.00497844
-1.49262
1.49461
-0.00302586
0.00103843
-1.49251
1.49423
0.000633311
-0.0023576
-1.24397
1.24585
0.00426844
-0.00615122
-1.03751
1.04002
0.00849334
-0.0110072
-0.866096
0.869825
0.0143542
-0.0180835
-0.724388
0.72993
0.0231247
-0.0286672
-0.608696
0.616108
0.0358799
-0.0432919
-0.514894
0.523037
0.0520204
-0.060163
-0.439854
0.447911
0.0688239
-0.0768809
-0.375293
0.376736
0.0846742
-0.0861167
-0.257327
0.222471
0.0748241
-0.0399679
-0.0685277
0.0587048
0.00982288
-0.0517924
0.0583692
-0.374136
0.367559
-0.0574484
0.0536924
-0.453601
0.457357
-0.0485995
0.0446442
-0.527955
0.531911
-0.0408012
0.0371591
-0.621573
0.625216
-0.033053
0.0289719
-0.735359
0.73944
-0.0243943
0.0202274
-0.874351
0.878518
-0.015873
0.0121715
-1.0435
1.0472
-0.00842626
0.00524729
-1.24857
1.25175
-0.00191359
-0.00116529
-1.49666
1.49974
0.00421777
-0.0074867
-1.4972
1.50047
0.0105617
-0.0141491
-1.25006
1.25365
0.0176878
-0.0218673
-1.04591
1.05009
0.0258902
-0.0303273
-0.877748
0.882185
0.0342941
-0.0382867
-0.739889
0.743882
0.0418323
-0.0455761
-0.626763
0.630507
0.0494461
-0.0544577
-0.534802
0.539813
0.058122
-0.0589282
-0.457466
0.458272
0.0522143
-0.0320012
-0.335736
0.315523
0.00989132
-0.068334
0.0584427
-0.0529583
0.0489673
0.00399101
-0.0331306
0.043662
-0.358137
0.347606
-0.0473494
0.0467145
-0.459303
0.459938
-0.0436521
0.040294
-0.535821
0.539179
-0.0365156
0.0332058
-0.62855
0.63186
-0.0297603
0.0267199
-0.742672
0.745712
-0.0234501
0.0203324
-0.882043
0.885161
-0.0167897
0.0133995
-1.0508
1.05419
-0.00959536
0.00604795
-1.25519
1.25874
-0.00207008
-0.00173455
-1.50325
1.50705
0.00550655
-0.009383
-1.50412
1.508
0.012783
-0.0163707
-1.2574
1.26099
0.0195371
-0.0228356
-1.05389
1.05719
0.0257473
-0.0288115
-0.885661
0.888725
0.0316821
-0.0349582
-0.747131
0.750407
0.0381252
-0.0417591
-0.634282
0.637916
0.0449935
-0.0479137
-0.544114
0.547034
0.0483974
-0.0444964
-0.456546
0.452645
0.0337084
-0.0162387
-0.29614
0.27867
0.00407674
-0.0526179
0.0485412
-0.0458953
0.0434058
0.00248952
-0.0227637
0.0331205
-0.336936
0.326579
-0.0389229
0.0399274
-0.459635
0.45863
-0.0387264
0.0364321
-0.541909
0.544203
-0.0337565
0.031152
-0.634924
0.637528
-0.0280779
0.0251664
-0.748769
0.751681
-0.0218864
0.0188776
-0.888125
0.891133
-0.0155559
0.0124419
-1.05733
1.06044
-0.00890118
0.00548051
-1.2622
1.26562
-0.00150632
-0.00238674
-1.51094
1.51483
0.0062356
-0.0100737
-1.51188
1.51572
0.0132989
-0.0165565
-1.26443
1.26769
0.0193788
-0.0223804
-1.06028
1.06328
0.025115
-0.0281177
-0.891757
0.89476
0.0307973
-0.0336384
-0.7536
0.756441
0.0360463
-0.0385259
-0.640969
0.643449
0.0406528
-0.0416312
-0.548824
0.549802
0.0403919
-0.0342445
-0.447343
0.441196
0.0235082
-0.0102608
-0.263424
0.250177
0.00259576
-0.0453709
0.0427752
-0.0413382
0.0395786
0.00175953
-0.0166907
0.0259107
-0.316754
0.307534
-0.0324867
0.0346066
-0.45705
0.45493
-0.0341699
0.0324879
-0.546195
0.547877
-0.0302959
0.0281894
-0.639849
0.641956
-0.0257432
0.0233293
-0.75434
0.756754
-0.0204502
0.0176409
-0.894043
0.896852
-0.0143823
0.0112934
-1.0635
1.06659
-0.0077833
0.00444145
-1.26895
1.2723
-0.000593862
-0.00315083
-1.51862
1.52237
0.00683886
-0.0105122
-1.51944
1.52311
0.0136046
-0.0167553
-1.27094
1.27409
0.0194738
-0.0223238
-1.0663
1.06915
0.0247799
-0.0272991
-0.897548
0.900067
0.0294116
-0.0315559
-0.758872
0.761017
0.03341
-0.0353485
-0.645586
0.647524
0.0367863
-0.0369201
-0.550299
0.550432
0.0344387
-0.0273554
-0.434496
0.427412
0.0176223
-0.00743897
-0.238609
0.228426
0.00188953
-0.040587
0.0386975
-0.0380658
0.036746
0.00131978
-0.0127146
0.0206181
-0.29898
0.291076
-0.027325
0.0302167
-0.452399
0.449508
-0.0303974
0.029259
-0.549328
0.550466
-0.0272511
0.0253187
-0.644012
0.645945
-0.0230981
0.0209384
-0.759013
0.761172
-0.0183954
0.0158847
-0.899445
0.901955
-0.0129119
0.0100052
-1.06955
1.07246
-0.00661496
0.00335061
-1.27557
1.27884
0.00041756
-0.00406197
-1.52602
1.52966
0.00763511
-0.0111833
-1.52669
1.53024
0.0141343
-0.0170755
-1.27723
1.28017
0.0195208
-0.0219837
-1.07186
1.07432
0.0240514
-0.0261408
-0.902321
0.90441
0.027919
-0.029756
-0.762977
0.764814
0.0313688
-0.0330676
-0.649324
0.651022
0.0338491
-0.033243
-0.550193
0.549587
0.0298322
-0.0224281
-0.420107
0.412703
0.0138636
-0.00578336
-0.219392
0.211312
0.00147811
-0.0370377
0.0355596
-0.0355965
0.0345838
0.00101264
-0.00989989
0.0165596
-0.283823
0.277164
-0.022983
0.0263115
-0.446383
0.443055
-0.0270575
0.0263327
-0.5514
0.552125
-0.024552
0.0227467
-0.647866
0.649671
-0.0206488
0.018602
-0.76327
0.765316
-0.0161928
0.013829
-0.904318
0.906681
-0.0110495
0.0083278
-1.0752
1.07792
-0.00513204
0.00201561
-1.28199
1.2851
0.0016238
-0.00515815
-1.53322
1.53676
0.00860398
-0.0119699
-1.53367
1.53703
0.0146985
-0.0173412
-1.28304
1.28568
0.0194957
-0.0216473
-1.07667
1.07883
0.0234631
-0.0253092
-0.906348
0.908194
0.0268819
-0.0285032
-0.766533
0.768154
0.0299116
-0.0312615
-0.652577
0.653927
0.0315434
-0.0301922
-0.548613
0.547262
0.026146
-0.0188021
-0.405298
0.397954
0.0113099
-0.00469108
-0.204029
0.19741
0.00120537
-0.0342316
0.0330262
-0.0336988
0.0329154
0.000783432
-0.00780536
0.0133779
-0.271081
0.265508
-0.0192968
0.0228047
-0.439634
0.436126
-0.0240127
0.0235269
-0.552775
0.553261
-0.0220051
0.0203028
-0.651487
0.653189
-0.0182915
0.0163216
-0.767317
0.769286
-0.0139941
0.0117084
-0.908933
0.911218
-0.00902203
0.00640177
-1.08051
1.08313
-0.00333825
0.0003576
-1.2881
1.29108
0.00311761
-0.00648368
-1.54017
1.54354
0.00974085
-0.0128802
-1.54024
1.54338
0.0153857
-0.0177741
-1.28828
1.29067
0.0197028
-0.0216218
-1.08093
1.08284
0.0232351
-0.0248695
-0.909908
0.911543
0.0262564
-0.0276809
-0.769665
0.77109
0.0288859
-0.0298437
-0.655079
0.656037
0.0297449
-0.0277101
-0.545555
0.54352
0.0232413
-0.016139
-0.39072
0.383617
0.00953059
-0.00394115
-0.191352
0.185762
0.00101779
-0.0319245
0.0309067
-0.0322324
0.0316278
0.000604599
-0.00618062
0.0108208
-0.260434
0.255794
-0.0161282
0.0196162
-0.432637
0.429149
-0.0211294
0.0208589
-0.553691
0.553962
-0.0195585
0.0179091
-0.654926
0.656576
-0.0159441
0.0140135
-0.771223
0.773154
-0.0117329
0.00949452
-0.913396
0.915634
-0.00686453
0.00430381
-1.08564
1.0882
-0.0013197
-0.00156519
-1.29395
1.29684
0.00489925
-0.00809691
-1.54677
1.54997
0.0111616
-0.0140861
-1.54636
1.54928
0.0163924
-0.0185564
-1.29305
1.29521
0.0202778
-0.0219754
-1.08473
1.08643
0.0233931
-0.0248242
-0.913042
0.914474
0.0260388
-0.0272827
-0.77241
0.773654
0.0283431
-0.0288751
-0.65679
0.657322
0.0283752
-0.0257547
-0.541183
0.538562
0.021011
-0.0142078
-0.376666
0.369863
0.0082873
-0.00342442
-0.18057
0.175707
0.000889318
-0.0299607
0.0290714
-0.0311063
0.0306477
0.000458535
-0.00486391
0.00869592
-0.25159
0.247758
-0.0133455
0.0166631
-0.425766
0.422448
-0.0183389
0.0182457
-0.554206
0.554299
-0.017126
0.0155033
-0.658292
0.659915
-0.0135487
0.0116206
-0.775062
0.776991
-0.00934434
0.00711685
-0.917768
0.919995
-0.00450956
0.00198112
-1.09065
1.09318
0.000951841
-0.00376929
-1.29962
1.30244
0.0069975
-0.0100595
-1.55304
1.5561
0.0129598
-0.0156901
-1.55204
1.55477
0.0178053
-0.0197454
-1.29739
1.29933
0.0212593
-0.0227388
-1.0881
1.08958
0.0239706
-0.0252148
-0.915771
0.917016
0.0262749
-0.0273555
-0.774796
0.775877
0.0282021
-0.0283617
-0.657652
0.657812
0.0274281
-0.024295
-0.535678
0.532545
0.0193646
-0.0128431
-0.363213
0.356691
0.00743448
-0.00307674
-0.171125
0.166768
0.000804533
-0.0282312
0.0274267
-0.030261
0.0299273
0.000333733
-0.00375153
0.00686886
-0.244314
0.241197
-0.0108465
0.0138812
-0.419301
0.416266
-0.0155901
0.0156345
-0.5544
0.554356
-0.0145833
0.0130196
-0.661599
0.663163
-0.0110448
0.00908424
-0.778906
0.780866
-0.00677107
0.00451643
-0.922124
0.924378
-0.00189108
-0.000639807
-1.09561
1.09814
0.00355601
-0.00633573
-1.30517
1.30795
0.00949075
-0.012447
-1.55904
1.562
0.0152075
-0.0177596
-1.55733
1.55989
0.0196901
-0.0214085
-1.3013
1.30302
0.0227174
-0.0239839
-1.09106
1.09232
0.0250352
-0.0260988
-0.918124
0.919187
0.0270117
-0.027932
-0.776842
0.777763
0.028515
-0.0283669
-0.657817
0.657669
0.0269473
-0.0233302
-0.529171
0.525554
0.0182453
-0.0119403
-0.350297
0.343992
0.00688617
-0.00286032
-0.1626
0.158574
0.000754067
-0.0266535
0.0258994
-0.0296585
0.0294375
0.00022107
-0.00276671
0.00523408
-0.238434
0.235966
-0.00853722
0.0112037
-0.413453
0.410787
-0.0128288
0.0129345
-0.554372
0.554266
-0.0119108
0.010373
-0.664816
0.666354
-0.00835156
0.0063264
-0.782818
0.784843
-0.0039375
0.00161799
-0.926536
0.928856
0.00106889
-0.00364252
-1.10058
1.10316
0.00658516
-0.00936362
-1.31065
1.31343
0.0124803
-0.0153574
-1.56484
1.56772
0.0179982
-0.0203876
-1.56227
1.56465
0.022142
-0.0236425
-1.3048
1.3063
0.0247465
-0.0257975
-1.0936
1.09465
0.0266631
-0.027535
-0.920108
0.92098
0.0282851
-0.0290359
-0.778506
0.779257
0.0293297
-0.0288267
-0.657391
0.656888
0.0269352
-0.0228534
-0.521726
0.517645
0.0176063
-0.0114239
-0.337772
0.331589
0.00658277
-0.00274813
-0.154665
0.150831
0.000730747
-0.0251626
0.0244318
-0.0292784
0.0291657
0.000112787
-0.00184487
0.00369739
-0.233835
0.231983
-0.00631786
0.00854328
-0.408386
0.40616
-0.00997456
0.0100608
-0.554283
0.554197
-0.00902759
0.00747354
-0.668018
0.669572
-0.00537335
0.00324974
-0.786861
0.788984
-0.000744976
-0.00167753
-0.93108
0.933502
0.00446927
-0.00712608
-1.10565
1.1083
0.0101392
-0.0129544
-1.31614
1.31895
0.0160693
-0.0188946
-1.57049
1.57331
0.0214355
-0.0236754
-1.56686
1.5691
0.0252592
-0.0265438
-1.30788
1.30917
0.0274435
-0.0282751
-1.09573
1.09656
0.0289461
-0.0296183
-0.921705
0.922377
0.0302109
-0.0308095
-0.779822
0.780421
0.0307315
-0.0298057
-0.656212
0.655286
0.0274131
-0.022853
-0.513358
0.508798
0.0174034
-0.0112355
-0.325443
0.319275
0.00648106
-0.00272095
-0.147054
0.143294
0.00072955
-0.0237072
0.0229776
-0.0291154
0.0291112
4.19873e-06
-0.000936805
0.00218489
-0.230459
0.229211
-0.00410456
0.00582276
-0.404241
0.402522
-0.00695601
0.00693966
-0.554304
0.554321
-0.0058468
0.00423315
-0.671294
0.672908
-0.00201057
-0.000249294
-0.791099
0.793359
0.00291459
-0.00548272
-0.93583
0.938398
0.00842722
-0.011211
-1.11089
1.11367
0.0143415
-0.0172338
-1.32171
1.3246
0.0203868
-0.0231907
-1.57603
1.57884
0.0256525
-0.0277551
-1.57114
1.57325
0.0291733
-0.0302467
-1.31056
1.31163
0.0309425
-0.0315519
-1.09742
1.09803
0.0320222
-0.0324798
-0.922895
0.923352
0.0328814
-0.0331986
-0.780743
0.781061
0.032813
-0.0313805
-0.65418
0.652748
0.0284437
-0.0233564
-0.50402
0.498932
0.0176297
-0.0113505
-0.313083
0.306804
0.00656059
-0.00276931
-0.139538
0.135747
0.000747963
-0.0222443
0.0214964
-0.029173
0.0292843
-0.000111252
6.14352e-06
0.000627403
-0.228291
0.227658
-0.00181312
0.00295677
-0.401148
0.400005
-0.00369036
0.00348568
-0.554614
0.554819
-0.00227222
0.000538249
-0.67474
0.676474
0.00184879
-0.00429049
-0.795609
0.79805
0.00716811
-0.00993026
-0.940873
0.943635
0.0130815
-0.0160414
-1.11639
1.11935
0.0193411
-0.0223541
-1.32744
1.33046
0.0255867
-0.0283998
-1.58154
1.58435
0.0308042
-0.0327813
-1.57513
1.57711
0.0340404
-0.0349014
-1.31282
1.31368
0.0353854
-0.0357606
-1.09866
1.09903
0.0360211
-0.0362566
-0.923648
0.923884
0.0364473
-0.0364137
-0.781082
0.781048
0.0356682
-0.0336424
-0.651113
0.649087
0.0300872
-0.024388
-0.493598
0.487899
0.0182806
-0.0117507
-0.300437
0.293907
0.00680522
-0.00288491
-0.131912
0.127992
0.000783417
-0.0207361
0.0199527
-0.0294667
0.029717
-0.000250272
0.000991586
-0.00103648
-0.227369
0.227414
0.000644131
-0.000148775
-0.399249
0.398754
-8.28259e-05
-0.00040585
-0.555403
0.555892
0.00181005
-0.00372728
-0.678477
0.680394
0.00634114
-0.0090183
-0.800478
0.803155
0.0121679
-0.0151798
-0.946308
0.94932
0.0185995
-0.0217909
-1.12225
1.12545
0.0253173
-0.0284983
-1.33343
1.33661
0.0318537
-0.0347034
-1.58707
1.58992
0.0370631
-0.0389247
-1.57884
1.58071
0.0400344
-0.0406812
-1.31463
1.31528
0.0409394
-0.0410607
-1.09941
1.09953
0.0410913
-0.0410884
-0.923937
0.923934
0.0410894
-0.0405931
-0.780713
0.780216
0.0394033
-0.0366805
-0.646847
0.644125
0.0324044
-0.0259719
-0.481906
0.475473
0.0193533
-0.0124201
-0.287215
0.280282
0.00719998
-0.00305939
-0.123981
0.119841
0.000833125
-0.0191496
0.0183165
-0.0300364
0.0304313
-0.000394867
0.00211023
-0.0028018
-0.227769
0.22846
0.00329072
-0.00356764
-0.398689
0.398966
0.00399358
-0.00486853
-0.556904
0.557779
0.00653404
-0.00870731
-0.682638
0.684811
0.0116243
-0.0146052
-0.805814
0.808795
0.0180995
-0.0214274
-0.952249
0.955577
0.0251872
-0.0286728
-1.1286
1.13208
0.0324891
-0.0358881
-1.33977
1.34316
0.0394093
-0.0423211
-1.59267
1.59558
0.0446435
-0.0463819
-1.58227
1.58401
0.04733
-0.0477687
-1.316
1.31644
0.0477932
-0.0476441
-1.09964
1.09949
0.0474309
-0.0471745
-0.92371
0.923453
0.0469232
-0.0459121
-0.779455
0.778444
0.0441724
-0.0406097
-0.641176
0.637613
0.0354673
-0.0281347
-0.468679
0.461346
0.0208448
-0.0133424
-0.273108
0.265606
0.00772872
-0.0032833
-0.115567
0.111122
0.000893854
-0.0174579
0.016564
-0.0309149
0.03149
-0.000575093
0.00338766
-0.0048854
-0.229582
0.23108
0.00630231
-0.00741423
-0.39967
0.400782
0.00861307
-0.0100124
-0.559335
0.560734
0.0120822
-0.0145969
-0.687364
0.689879
0.0179078
-0.0212712
-0.811751
0.815115
0.0251951
-0.028916
-0.958834
0.962555
0.0330976
-0.0369469
-1.13554
1.13939
0.0411204
-0.0447875
-1.34655
1.35021
0.048514
-0.0515076
-1.59839
1.60138
0.0537969
-0.0554066
-1.58541
1.58702
0.0561941
-0.056403
-1.31689
1.3171
0.0561673
-0.0557285
-1.09931
1.09887
0.0552616
-0.0547241
-0.922939
0.922401
0.0540719
-0.0525657
-0.77726
0.775753
0.050108
-0.0455261
-0.633796
0.629214
0.0393295
-0.0308842
-0.453564
0.445119
0.0227353
-0.0144872
-0.257778
0.24953
0.00836547
-0.00354217
-0.106506
0.101683
0.000960733
-0.015641
0.0146802
-0.0321664
0.0329757
-0.000809321
0.00496827
-0.00738139
-0.233042
0.235455
0.00987977
-0.0119313
-0.402402
0.404453
0.0140296
-0.016079
-0.56295
0.565
0.0186897
-0.0216464
-0.692836
0.695793
0.0254672
-0.0293058
-0.818456
0.822294
0.0337611
-0.0379653
-0.966221
0.970426
0.0426612
-0.0469484
-1.14323
1.14752
0.0515454
-0.0555242
-1.35387
1.35785
0.0594822
-0.0625595
-1.60426
1.60734
0.0647994
-0.0662548
-1.58823
1.58969
0.0668581
-0.0667946
-1.31722
1.31715
0.0662902
-0.0655379
-1.09838
1.09762
0.0648047
-0.0640043
-0.921569
0.920769
0.0628312
-0.0607185
-0.774129
0.772016
0.0573758
-0.0515221
-0.624315
0.618461
0.0440186
-0.0341926
-0.436112
0.426286
0.0249705
-0.0157972
-0.240869
0.231696
0.00906644
-0.00381321
-0.0966603
0.0914071
0.00102648
-0.0136898
0.0126633
-0.0338884
0.0350046
-0.00111617
0.00695528
-0.0104762
-0.238371
0.241892
0.0142522
-0.0173916
-0.407184
0.410323
0.0205201
-0.0233473
-0.568043
0.57087
0.026657
-0.0301846
-0.699281
0.702809
0.0346656
-0.0391009
-0.826121
0.830556
0.0442104
-0.0489998
-0.974595
0.979385
0.0543079
-0.0591047
-1.15181
1.15661
0.0641791
-0.0684921
-1.36181
1.36612
0.0726761
-0.0758074
-1.61028
1.61341
0.0779566
-0.0792118
-1.59067
1.59193
0.0795911
-0.0792245
-1.31688
1.31651
0.0784278
-0.0773309
-1.09678
1.09569
0.0763259
-0.0752238
-0.919631
0.918529
0.0734845
-0.070583
-0.769842
0.76694
0.0660995
-0.0586215
-0.61221
0.604732
0.0494825
-0.0379547
-0.415766
0.404238
0.0274309
-0.0171697
-0.22203
0.211768
0.00976031
-0.00406203
-0.0859419
0.0802436
0.00108077
-0.0116112
0.0105305
-0.0362159
0.0377537
-0.00153782
0.0095651
-0.0144638
-0.245926
0.250824
0.0197604
-0.0241587
-0.414383
0.418782
0.0284721
-0.0322308
-0.574943
0.578702
0.0364204
-0.0407109
-0.706972
0.711263
0.0460213
-0.0512027
-0.83499
0.840171
0.05711
-0.0625941
-0.984164
0.989648
0.0686056
-0.0739633
-1.16141
1.16677
0.0795328
-0.0841603
-1.37039
1.37502
0.0885111
-0.0916138
-1.61635
1.61945
0.0935819
-0.0945465
-1.59261
1.59358
0.0946364
-0.0939672
-1.31581
1.31514
0.0927976
-0.0913484
-1.09448
1.09303
0.0900728
-0.0884795
-0.916952
0.915359
0.0862206
-0.0822386
-0.763967
0.759985
0.0762821
-0.0667274
-0.596747
0.587192
0.0555434
-0.041948
-0.391868
0.378273
0.0299028
-0.0184402
-0.200954
0.189491
0.0103417
-0.00424145
-0.0743469
0.0682466
0.00111043
-0.00943429
0.00832386
-0.0393592
0.0415077
-0.00214853
0.0131633
-0.0198246
-0.256214
0.262875
0.0269514
-0.0328191
-0.424481
0.430349
0.0385012
-0.043392
-0.58404
0.588931
0.0486797
-0.0539475
-0.716308
0.721576
0.0603368
-0.0664415
-0.845357
0.851462
0.0732894
-0.0795539
-0.995142
1.00141
0.0863133
-0.092224
-1.17211
1.17802
0.0982273
-0.103071
-1.37954
1.38439
0.107443
-0.110361
-1.62228
1.6252
0.111995
-0.112533
-1.59386
1.5944
0.112248
-0.111203
-1.31396
1.31292
0.109642
-0.107811
-1.09147
1.08964
0.106245
-0.104104
-0.913153
0.911012
0.101177
-0.0957295
-0.755892
0.750445
0.0877973
-0.0755514
-0.576976
0.56473
0.0618228
-0.045779
-0.363694
0.34765
0.0320485
-0.0193747
-0.177464
0.16479
0.0106728
-0.00429464
-0.0619996
0.0556214
0.0011008
-0.00721483
0.00611403
-0.0436602
0.0467508
-0.00309054
0.0183888
-0.0273553
-0.269988
0.278955
0.036714
-0.0443601
-0.43816
0.445806
0.0517035
-0.0579534
-0.595837
0.602087
0.064672
-0.0712913
-0.727714
0.734333
0.0789497
-0.0860839
-0.857551
0.864685
0.0939351
-0.100977
-1.00767
1.01471
0.108406
-0.114736
-1.18385
1.19018
0.120968
-0.125806
-1.38901
1.39384
0.129934
-0.13242
-1.6277
1.63019
0.133498
-0.133415
-1.59411
1.59403
0.132622
-0.131119
-1.31115
1.30964
0.129164
-0.126898
-1.08769
1.08542
0.124902
-0.122248
-0.908101
0.905447
0.118254
-0.110778
-0.744759
0.737284
0.100199
-0.0844965
-0.551632
0.53593
0.0676657
-0.0488483
-0.330531
0.311714
0.0334037
-0.0196868
-0.151627
0.13791
0.0106009
-0.00416514
-0.0491955
0.0427597
0.00103888
-0.00503678
0.0039979
-0.0497166
0.0544019
-0.00468528
0.0264946
-0.0385721
-0.288438
0.300515
0.0508041
-0.060807
-0.456541
0.466544
0.0701976
-0.0780858
-0.610915
0.618804
0.0865725
-0.0947403
-0.741725
0.749892
0.103793
-0.111948
-0.871779
0.879933
0.120667
-0.128264
-1.02165
1.02925
0.136036
-0.142438
-1.19624
1.20264
0.148487
-0.152936
-1.39825
1.4027
0.156406
-0.158107
-1.63208
1.63378
0.158332
-0.157381
-1.59297
1.59202
0.155915
-0.153828
-1.30715
1.30506
0.151422
-0.148645
-1.08301
1.08023
0.146206
-0.142792
-0.901615
0.898201
0.137237
-0.12681
-0.7293
0.718873
0.112638
-0.0925638
-0.519136
0.499062
0.0720979
-0.0503799
-0.29187
0.270152
0.0334411
-0.0191008
-0.123921
0.109581
0.0100008
-0.00381424
-0.0364241
0.0302376
0.000916041
-0.00300484
0.0020888
-0.0586671
0.0666708
-0.00800366
0.0406996
-0.0573697
-0.313777
0.330447
0.0736487
-0.0867515
-0.481213
0.494316
0.0982681
-0.107778
-0.6298
0.63931
0.118033
-0.127642
-0.758542
0.768151
0.137792
-0.146489
-0.88781
0.896507
0.155436
-0.162955
-1.03646
1.04398
0.170388
-0.176232
-1.20847
1.21431
0.181457
-0.184932
-1.40642
1.40989
0.187189
-0.187637
-1.63464
1.63508
0.186624
-0.184519
-1.58992
1.58782
0.182183
-0.179393
-1.30168
1.29889
0.176441
-0.173077
-1.07721
1.07385
0.170023
-0.165361
-0.892972
0.888309
0.157363
-0.14261
-0.707494
0.692742
0.123532
-0.0982208
-0.477583
0.452272
0.0739281
-0.0496588
-0.24776
0.223491
0.0318076
-0.0175161
-0.095397
0.0811056
0.00885614
-0.00324417
-0.0243353
0.0187234
0.000729894
-0.00122782
0.000497927
-0.0740992
0.0786437
-0.00454448
0.0313347
-0.0459805
-0.350056
0.364701
0.0606367
-0.0727192
-0.513431
0.525513
0.083845
-0.0945176
-0.652377
0.663049
0.106771
-0.118004
-0.77706
0.788293
0.130564
-0.141845
-0.904222
0.915504
0.15404
-0.165067
-1.05063
1.06166
0.176876
-0.187297
-1.21915
1.22957
0.198106
-0.207225
-1.4123
1.42142
0.216106
-0.222885
-1.63442
1.6412
0.227621
-0.231062
-1.58435
1.58779
0.233157
-0.234732
-1.29443
1.296
0.235533
-0.235077
-1.06984
1.06939
0.233619
-0.227855
-0.880635
0.874871
0.214989
-0.190655
-0.676382
0.652048
0.159594
-0.120974
-0.425395
0.386776
0.0868597
-0.0552318
-0.199326
0.167698
0.0337403
-0.0177034
-0.067721
0.0516841
0.00849434
-0.00289185
-0.0136088
0.00800635
0.000570467
0.000244657
-0.000815124
-0.0865377
0.0846894
0.00184833
0.00903288
-0.01879
-0.382354
0.392111
0.0301078
-0.0390147
-0.542631
0.551538
0.0481723
-0.0572466
-0.676457
0.685532
0.0684564
-0.078986
-0.79897
0.809499
0.0903703
-0.100853
-0.926241
0.936723
0.112176
-0.122088
-1.07247
1.08238
0.13293
-0.142172
-1.23988
1.24912
0.151802
-0.159768
-1.43037
1.43834
0.167253
-0.172949
-1.64751
1.6532
0.176783
-0.179395
-1.5905
1.59312
0.180628
-0.181566
-1.29575
1.29669
0.181959
-0.181089
-1.06732
1.06645
0.178079
-0.169598
-0.863582
0.8551
0.154428
-0.129934
-0.623079
0.598585
0.102566
-0.0723698
-0.3458
0.315603
0.0487914
-0.0292828
-0.137492
0.117984
0.0170116
-0.00848093
-0.0370464
0.0285157
0.00383599
-0.00120642
-0.00273948
0.000109916
0.000189134
0.00156538
-0.00175451
-0.0884029
0.0854325
0.00297046
-0.000308725
-0.00553093
-0.404675
0.410514
0.0132022
-0.0199593
-0.564705
0.571462
0.0270104
-0.0348588
-0.697126
0.704974
0.0446543
-0.0538495
-0.818932
0.828127
0.0640228
-0.0732523
-0.946415
0.955644
0.0830115
-0.0919869
-1.09218
1.10116
0.101637
-0.110018
-1.25803
1.26641
0.118377
-0.125235
-1.44583
1.45268
0.131883
-0.136712
-1.65854
1.66337
0.13977
-0.141678
-1.59516
1.59706
0.142346
-0.142831
-1.29595
1.29644
0.142567
-0.141257
-1.06275
1.06144
0.137207
-0.127263
-0.842454
0.83251
0.111715
-0.0890368
-0.570657
0.547979
0.066446
-0.0441803
-0.283631
0.261365
0.0287241
-0.016884
-0.0990099
0.0871698
0.00970816
-0.00483597
-0.020252
0.0153798
0.00219489
-0.000692799
0.00267724
-0.00417933
0.000111455
0.00213849
-0.00224994
-0.087272
0.0844077
0.00286424
-0.00447102
0.00135584
-0.419937
0.423052
0.00377161
-0.00900382
-0.581546
0.586778
0.0150596
-0.0216931
-0.714237
0.720871
0.030128
-0.0380694
-0.836542
0.844484
0.0468354
-0.0548282
-0.964319
0.972311
0.0636959
-0.0714457
-1.10971
1.11746
0.0800015
-0.0870119
-1.27443
1.28144
0.0944148
-0.100468
-1.45943
1.46548
0.10613
-0.109978
-1.66801
1.67186
0.112585
-0.114166
-1.59851
1.6001
0.114548
-0.114265
-1.29558
1.2953
0.113581
-0.111757
-1.05671
1.05489
0.106962
-0.0968556
-0.818776
0.80867
0.0820271
-0.0625825
-0.522648
0.503204
0.0449919
-0.0292556
-0.238085
0.222349
0.0189171
-0.0112312
-0.07482
0.0671341
0.00656087
-0.00335041
-0.0101433
0.0069328
0.00157565
-0.000522609
0.00594239
-0.00699543
9.28574e-05
0.00248681
-0.00257967
-0.0858018
0.0831952
0.00260659
-0.00610703
0.00471507
-0.430391
0.431783
-0.000800675
-0.00319585
-0.595185
0.599181
0.00810691
-0.01408
-0.728693
0.734666
0.0211829
-0.0281592
-0.851608
0.858585
0.0357745
-0.0427473
-0.979828
0.986801
0.0504106
-0.0573148
-1.12507
1.13198
0.0646643
-0.0710525
-1.28832
1.29471
0.077512
-0.0827624
-1.47121
1.47646
0.0876127
-0.0908183
-1.67571
1.67891
0.0929232
-0.0939112
-1.60106
1.60205
0.0940101
-0.0935192
-1.29419
1.2937
0.0924301
-0.0899652
-1.04968
1.04722
0.085058
-0.0752033
-0.794959
0.785104
0.062039
-0.045863
-0.481571
0.465395
0.0324257
-0.0210976
-0.205298
0.19397
0.0137729
-0.00838117
-0.0586376
0.0532459
0.00505379
-0.00267271
-0.00321873
0.000837654
0.00130824
-0.000455429
0.00829713
-0.00914994
9.39161e-05
0.00275394
-0.00284785
-0.0843043
0.0820027
0.00230156
-0.00644345
0.00570331
-0.437684
0.438424
-0.0032785
8.71481e-06
-0.605808
0.609077
0.0046855
-0.00977638
-0.740959
0.74605
0.0158541
-0.0218798
-0.864656
0.870682
0.0285974
-0.0347829
-0.993382
0.999567
0.0417131
-0.0477371
-1.13857
1.14459
0.0542705
-0.0599376
-1.30078
1.30644
0.0655761
-0.0701088
-1.48143
1.48596
0.0741975
-0.0771709
-1.68211
1.68508
0.078757
-0.0795261
-1.60264
1.60341
0.0793493
-0.0785522
-1.29248
1.29168
0.077343
-0.0743304
-1.04194
1.03893
0.0693072
-0.060191
-0.772018
0.762901
0.0486413
-0.0353201
-0.44722
0.433899
0.0249219
-0.0164207
-0.181226
0.172725
0.011004
-0.00690541
-0.0469289
0.0428303
0.00427585
-0.00232786
0.00203116
-0.00397915
0.00116799
-0.000425021
0.0101791
-0.0109221
9.37245e-05
0.00297547
-0.0030692
-0.0830131
0.0811396
0.00187356
-0.00595454
0.00572671
-0.443032
0.44326
-0.00376815
0.00130265
-0.614992
0.617457
0.00297676
-0.0075297
-0.751519
0.756072
0.0131814
-0.0183193
-0.876226
0.881363
0.0241459
-0.0295508
-1.00567
1.01108
0.0359563
-0.0412986
-1.15059
1.15594
0.0469824
-0.0521129
-1.31187
1.317
0.0574844
-0.0614198
-1.49046
1.4944
0.0650344
-0.0673997
-1.68767
1.69003
0.0688819
-0.0690804
-1.60397
1.60417
0.0688705
-0.0680376
-1.29034
1.28951
0.0664619
-0.0633684
-1.03379
1.0307
0.0583652
-0.0497885
-0.75049
0.741913
0.039888
-0.0287756
-0.418517
0.407405
0.020488
-0.0139149
-0.162828
0.156255
0.00959553
-0.00621992
-0.0378061
0.0344305
0.00396356
-0.00221526
0.00638483
-0.00813313
0.00113433
-0.000422003
0.0118008
-0.0125131
9.84044e-05
0.00316188
-0.00326029
-0.0821193
0.0805845
0.00153482
-0.00519431
0.00527877
-0.447066
0.446981
-0.0035805
0.00133911
-0.622833
0.625074
0.00258141
-0.00660363
-0.76085
0.764872
0.0113707
-0.0161845
-0.886386
0.8912
0.021432
-0.0267897
-1.01622
1.02157
0.0321856
-0.0370692
-1.16131
1.1662
0.0425494
-0.0470772
-1.32191
1.32644
0.0514947
-0.0553736
-1.49815
1.50203
0.0585703
-0.0606284
-1.69242
1.69448
0.0616639
-0.0618566
-1.60454
1.60473
0.0614845
-0.0604581
-1.28804
1.28701
0.0587857
-0.0554913
-1.02579
1.0225
0.0506239
-0.0428955
-0.730453
0.722725
0.0340141
-0.0247665
-0.394344
0.385096
0.018074
-0.0126879
-0.148279
0.142893
0.00907149
-0.00613392
-0.0301544
0.0272168
0.00403464
-0.00232682
0.0103081
-0.012016
0.00122243
-0.000462979
0.0133368
-0.0140962
0.000112335
0.00333593
-0.00344827
-0.081689
0.080344
0.00134504
-0.00415089
0.00413731
-0.450383
0.450396
-0.00277271
0.00065752
-0.629813
0.631928
0.00285148
-0.00663429
-0.769329
0.773112
0.0110697
-0.0153163
-0.895745
0.899991
0.0205037
-0.0248401
-1.02625
1.03059
0.0299573
-0.0343977
-1.17116
1.1756
0.0394166
-0.0437745
-1.33083
1.33519
0.048025
-0.0511717
-1.50553
1.50867
0.0540763
-0.0558654
-1.69635
1.69814
0.0568814
-0.0566991
-1.60471
1.60452
0.0562073
-0.0550227
-1.28585
1.28466
0.053273
-0.049835
-1.0177
1.01426
0.0451851
-0.0379728
-0.712112
0.7049
0.0302071
-0.0223737
-0.373988
0.366155
0.0167883
-0.0123559
-0.136233
0.1318
0.00920732
-0.00649968
-0.0233653
0.0206577
0.00444032
-0.00266136
0.0141229
-0.0159019
0.00144278
-0.000572473
0.0149397
-0.01581
0.000142037
0.00351809
-0.00366013
-0.0814762
0.0804576
0.00101865
-0.00317885
0.00279681
-0.453489
0.453871
-0.00172114
-0.000357709
-0.635796
0.637875
0.00342522
-0.00697263
-0.777021
0.780569
0.0110928
-0.015335
-0.904046
0.908288
0.019708
-0.0240337
-1.03507
1.0394
0.0288779
-0.0328467
-1.18039
1.18436
0.0376392
-0.0415986
-1.33921
1.34317
0.0454386
-0.0486305
-1.5121
1.51529
0.0513776
-0.0527426
-1.6998
1.70117
0.0532458
-0.0530548
-1.60437
1.60418
0.0525123
-0.0510988
-1.28311
1.2817
0.0491218
-0.0458372
-1.00973
1.00644
0.0409506
-0.0344545
-0.695085
0.688589
0.0276282
-0.0209279
-0.356708
0.350008
0.0162929
-0.01247
-0.126053
0.12223
0.00965848
-0.00707612
-0.0171013
0.014519
0.00499876
-0.00310766
0.0180451
-0.0199362
0.00175708
-0.000726802
0.0167638
-0.0177941
0.000191933
0.00374698
-0.00393891
-0.0816331
0.0807866
0.000846559
-0.00233667
0.00208567
-0.456569
0.45682
-0.00056895
-0.00125978
-0.641639
0.643468
0.00441609
-0.0077381
-0.783978
0.7873
0.0115778
-0.0152816
-0.91214
0.915843
0.0196338
-0.02347
-1.04365
1.04749
0.0280477
-0.0322458
-1.1887
1.1929
0.0363597
-0.0403299
-1.34705
1.35102
0.0441734
-0.0469652
-1.51819
1.52098
0.0494352
-0.0508722
-1.70254
1.70398
0.0510473
-0.0506829
-1.60363
1.60326
0.0496678
-0.0480797
-1.28009
1.2785
0.0460382
-0.0425126
-1.0019
0.998378
0.0378587
-0.031739
-0.679534
0.673414
0.0256961
-0.019912
-0.341743
0.335959
0.0159324
-0.0126273
-0.117263
0.113958
0.0100611
-0.00759098
-0.0111719
0.00870173
0.00551922
-0.0035517
0.0221221
-0.0240896
0.00207463
-0.000892379
0.0188773
-0.0200596
0.000246556
0.00406277
-0.00430932
-0.0820667
0.0813929
0.000673803
-0.00134334
0.00097586
-0.459614
0.459982
0.000313056
-0.00238075
-0.646891
0.648959
0.00539735
-0.00848103
-0.790493
0.793577
0.0123058
-0.015753
-0.919479
0.922926
0.0198104
-0.023631
-1.05175
1.05557
0.0279281
-0.031885
-1.19685
1.2008
0.0359603
-0.0396609
-1.35477
1.35847
0.0432905
-0.0464039
-1.52388
1.527
0.048694
-0.0496991
-1.70508
1.70609
0.0497579
-0.0488261
-1.60248
1.60155
0.0476342
-0.0458746
-1.27658
1.27482
0.0433295
-0.0396075
-0.993872
0.99015
0.034983
-0.0291031
-0.665137
0.659257
0.023789
-0.0187677
-0.328907
0.323886
0.0153669
-0.0124278
-0.109555
0.106616
0.0101078
-0.0077868
-0.00555417
0.0032332
0.00580037
-0.0038399
0.0262847
-0.0282452
0.00230795
-0.00103159
0.0212406
-0.0225169
0.000304736
0.00447403
-0.00477877
-0.0827272
0.0821742
0.000552973
-0.000523386
8.82865e-05
-0.462686
0.463121
0.00121842