/*--------------------------------*- C++ -*----------------------------------*\
  =========                 |
  \\      /  F ield         | OpenFOAM: The Open Source CFD Toolbox
   \\    /   O peration     | Website:  https://openfoam.org
    \\  /    A nd           | Version:  6
     \\/     M anipulation  |
\*---------------------------------------------------------------------------*/
FoamFile
{
    version     2.0;
    format      ascii;
    class       volScalarField;
    location    "116.8";
    object      p;
}
// * * * * * * * * * * * * * * * * * * * * * * * * * * * * * * * * * * * * * //

dimensions      [0 2 -2 0 0 0 0];

internalField   nonuniform List<scalar> 
8800
(
1.2233
1.17399
1.13602
1.10796
1.08781
1.07323
1.06265
1.05513
1.05027
1.04824
1.04965
1.05403
1.06085
1.0703
1.08305
1.10038
1.12427
1.15737
1.20031
1.25282
1.05779
1.06413
1.07329
1.07684
1.07424
1.06816
1.06123
1.05501
1.05023
1.0474
1.04721
1.04988
1.05455
1.06071
1.06782
1.07487
1.07976
1.07964
1.07297
1.06408
1.03128
1.03752
1.04203
1.0459
1.04886
1.04982
1.04875
1.04665
1.04471
1.04391
1.04499
1.04749
1.05041
1.0527
1.05324
1.05147
1.04811
1.04411
1.03933
1.03562
1.02695
1.02972
1.03233
1.0345
1.03625
1.03783
1.03896
1.03934
1.03926
1.03941
1.04027
1.04146
1.04224
1.04212
1.04117
1.03983
1.03818
1.03589
1.03348
1.03192
1.02186
1.02329
1.02513
1.02722
1.02895
1.03026
1.03138
1.0324
1.03325
1.03405
1.03483
1.03534
1.03541
1.03509
1.03445
1.03336
1.03172
1.02984
1.02849
1.02769
1.01682
1.01772
1.01898
1.02062
1.02233
1.02388
1.0252
1.02636
1.02748
1.02857
1.02943
1.0299
1.02996
1.02964
1.02888
1.02772
1.02638
1.02513
1.02432
1.02379
1.01185
1.0125
1.01347
1.01481
1.01628
1.01782
1.01934
1.02076
1.02209
1.02338
1.02443
1.02501
1.0251
1.02472
1.02399
1.02308
1.02212
1.02124
1.02067
1.02028
1.00694
1.00745
1.00824
1.0094
1.01073
1.01218
1.01373
1.01534
1.01693
1.01849
1.01977
1.02048
1.02066
1.02041
1.01991
1.01927
1.01857
1.01793
1.01752
1.01721
1.00204
1.00244
1.00311
1.00416
1.00542
1.00683
1.00839
1.0101
1.01193
1.01381
1.01537
1.01631
1.0167
1.01671
1.01647
1.01606
1.01558
1.01515
1.01484
1.0146
0.99706
0.997387
0.997973
0.998944
1.00017
1.00158
1.00319
1.00502
1.00708
1.00929
1.01123
1.01252
1.01323
1.01353
1.01355
1.0134
1.01313
1.01286
1.01264
1.01244
0.991911
0.992182
0.99271
0.99364
0.994859
0.996308
0.998014
1.00002
1.00234
1.00494
1.00735
1.00909
1.01019
1.01083
1.01114
1.01124
1.01119
1.01108
1.01093
1.01075
0.986497
0.986724
0.987216
0.988136
0.989391
0.990925
0.992772
0.995004
0.997668
1.00076
1.00374
1.00601
1.00757
1.00859
1.00923
1.0096
1.00978
1.00981
1.00972
1.00956
0.980716
0.98091
0.981384
0.982326
0.983657
0.985322
0.987369
0.9899
0.992999
0.996695
1.00037
1.00327
1.00536
1.00684
1.00786
1.00853
1.00895
1.00912
1.00907
1.00892
0.974458
0.974624
0.975098
0.976089
0.977538
0.979388
0.981704
0.984622
0.988263
0.992697
0.997204
1.00086
1.0036
1.0056
1.00705
1.00808
1.00875
1.00905
1.00905
1.00891
0.96759
0.967733
0.968223
0.969292
0.970905
0.973001
0.975666
0.979071
0.983384
0.988717
0.994233
0.998801
1.00229
1.00491
1.00686
1.0083
1.00926
1.0097
1.00974
1.0096
0.959959
0.960079
0.960597
0.961774
0.963602
0.966016
0.969123
0.973138
0.978277
0.984705
0.991433
0.997083
1.00147
1.00482
1.00737
1.00927
1.01056
1.01115
1.01122
1.01108
0.951358
0.951461
0.952014
0.953336
0.955442
0.958258
0.96192
0.966692
0.972847
0.980602
0.988783
0.995719
1.00116
1.00538
1.00864
1.01109
1.01274
1.01349
1.01359
1.01344
0.941501
0.941602
0.942224
0.943727
0.946192
0.949514
0.953869
0.959581
0.966985
0.976349
0.986266
0.994721
1.00141
1.00664
1.01074
1.01384
1.0159
1.01681
1.01694
1.01677
0.930097
0.930175
0.930889
0.932643
0.935551
0.939513
0.944741
0.951627
0.960569
0.971883
0.983867
0.994103
1.00225
1.00867
1.01374
1.0176
1.02011
1.02118
1.02132
1.02114
0.916693
0.916759
0.917584
0.919655
0.923132
0.927917
0.934258
0.942621
0.953468
0.967144
0.981576
0.993887
1.0037
1.0115
1.01771
1.02242
1.02541
1.02662
1.02676
1.02656
0.900679
0.900736
0.901716
0.904213
0.908439
0.914298
0.92208
0.93233
0.945553
0.962089
0.979396
0.994092
1.00581
1.01518
1.02265
1.0283
1.03178
1.0331
1.03323
1.03301
0.881197
0.881251
0.882457
0.885555
0.890804
0.898113
0.907811
0.92051
0.936715
0.956706
0.977354
0.994744
1.0086
1.01971
1.02857
1.03522
1.03913
1.0405
1.0406
1.04036
0.856982
0.857041
0.858607
0.862609
0.869333
0.878679
0.891008
0.906944
0.92691
0.951039
0.975507
0.995882
1.01206
1.02507
1.03541
1.04305
1.04727
1.04861
1.04864
1.04839
0.82605
0.826141
0.828332
0.83381
0.842853
0.855214
0.871273
0.891527
0.916201
0.94521
0.973956
0.99756
1.01621
1.03119
1.04307
1.05156
1.05589
1.05708
1.05704
1.05678
0.785044
0.785277
0.788765
0.796977
0.80996
0.82703
0.848431
0.874377
0.904813
0.939432
0.972853
0.99986
1.02105
1.03805
1.05138
1.06043
1.06457
1.06549
1.06537
1.06512
0.727545
0.728753
0.73576
0.749706
0.769597
0.793979
0.822806
0.855951
0.893159
0.933999
0.972374
1.00287
1.02659
1.0455
1.06007
1.06924
1.07284
1.07342
1.07324
1.07301
0.644245
0.652448
0.66865
0.693139
0.723385
0.757568
0.795428
0.836798
0.881454
0.929002
0.972667
1.00691
1.03334
1.05426
1.06969
1.07848
1.08132
1.08158
1.08137
1.08118
0.555152
0.573264
0.599614
0.635446
0.676626
0.720713
0.767563
0.817195
0.869498
0.924186
0.973778
1.0124
1.04212
1.06517
1.08109
1.0887
1.09049
1.09049
1.09032
1.09021
0.478506
0.500684
0.535505
0.581032
0.63188
0.685306
0.740899
0.79862
0.858336
0.91978
0.974816
1.01734
1.04987
1.07457
1.09025
1.09643
1.09749
1.09742
1.09729
1.09722
0.415246
0.439918
0.480568
0.533046
0.591436
0.652623
0.715889
0.780977
0.847559
0.91527
0.975307
1.02135
1.0563
1.08214
1.09735
1.10252
1.10322
1.10313
1.10303
1.10298
0.362444
0.388661
0.43354
0.491401
0.555787
0.623305
0.693041
0.764554
0.837292
0.910717
0.975348
1.02464
1.06176
1.08854
1.10322
1.1076
1.10808
1.10799
1.1079
1.10785
0.317528
0.344663
0.392675
0.454879
0.524269
0.597147
0.672425
0.749547
0.827769
0.90637
0.975195
1.02745
1.06656
1.09407
1.10818
1.11194
1.11229
1.11219
1.11212
1.11207
0.278411
0.306148
0.356597
0.422394
0.496044
0.573574
0.653743
0.735877
0.81906
0.902377
0.975023
1.02996
1.07082
1.09888
1.11241
1.11572
1.11596
1.11585
1.11578
1.11574
0.243585
0.271773
0.324217
0.393069
0.470411
0.552028
0.636587
0.723294
0.811055
0.898743
0.974879
1.03221
1.0746
1.10305
1.11604
1.11899
1.11915
1.11902
1.11895
1.11891
0.211992
0.240567
0.294688
0.366211
0.446807
0.532061
0.620593
0.711518
0.803581
0.895387
0.974766
1.03424
1.07793
1.10661
1.1191
1.12176
1.12185
1.1217
1.12162
1.12157
0.18278
0.211741
0.267362
0.341292
0.424784
0.513308
0.605465
0.700315
0.796466
0.892238
0.974691
1.03607
1.08082
1.10959
1.12156
1.124
1.12403
1.12385
1.12376
1.1237
0.155516
0.184809
0.24179
0.317883
0.403991
0.495483
0.590973
0.689498
0.789572
0.889254
0.97471
1.03782
1.08335
1.11197
1.12342
1.12566
1.12566
1.12547
1.12537
1.1253
0.129665
0.159364
0.217595
0.295669
0.384153
0.478354
0.576931
0.678917
0.782786
0.886391
0.974905
1.03961
1.08562
1.11384
1.1247
1.12678
1.12677
1.1266
1.1265
1.12642
0.105045
0.135143
0.194541
0.274424
0.365066
0.461752
0.563193
0.668447
0.776003
0.883607
0.975368
1.04165
1.08783
1.11531
1.12549
1.12743
1.12747
1.12735
1.12726
1.12718
0.0814537
0.111957
0.172443
0.253989
0.346597
0.445554
0.549646
0.657982
0.769122
0.880822
0.976157
1.04418
1.09026
1.11657
1.12594
1.12778
1.12791
1.12784
1.12777
1.12768
0.0587398
0.089696
0.151192
0.234264
0.328641
0.429674
0.536214
0.647445
0.762048
0.877932
0.977278
1.04747
1.09331
1.11793
1.12614
1.1279
1.12822
1.12821
1.12813
1.12802
0.0367787
0.0682227
0.130729
0.215184
0.311151
0.414055
0.522845
0.636774
0.754701
0.874808
0.978657
1.05173
1.09755
1.11989
1.12622
1.1276
1.12825
1.12849
1.12844
1.12825
0.015653
0.0475542
0.111017
0.196697
0.29409
0.398684
0.509506
0.625935
0.747016
0.871339
0.980142
1.05707
1.10356
1.12331
1.12665
1.12677
1.12759
1.12872
1.12922
1.12899
-0.00466716
0.0276577
0.092011
0.178785
0.277448
0.383549
0.496203
0.614901
0.738951
0.867402
0.981532
1.06342
1.11186
1.12944
1.12906
1.12646
1.12675
1.12934
1.13165
1.13193
-0.0242814
0.00852904
0.0736852
0.161433
0.261237
0.368672
0.482953
0.603684
0.730472
0.862898
0.982575
1.07051
1.12269
1.13957
1.13583
1.12985
1.12872
1.13285
1.13808
1.14025
-0.043084
-0.00984272
0.0560554
0.144667
0.245468
0.354085
0.46979
0.592311
0.72158
0.857754
0.98301
1.07793
1.13579
1.15416
1.14864
1.13979
1.13624
1.13922
1.1452
1.14822
-0.061185
-0.0275027
0.0390905
0.128426
0.230077
0.339721
0.456634
0.580692
0.712159
0.851827
0.982573
1.08526
1.15076
1.17294
1.16768
1.15709
1.1497
1.14423
1.13829
1.14364
-0.0785444
-0.044523
0.0226349
0.112507
0.214766
0.325257
0.443087
0.568372
0.701719
0.844574
0.980741
1.09195
1.16758
1.19618
1.19263
1.18133
1.16791
1.15296
1.13024
1.13653
-0.0950631
-0.0609154
0.00682757
0.0970824
0.199769
0.310964
0.429303
0.555605
0.690438
0.836022
0.97711
1.09658
1.18431
1.22178
1.21935
1.20523
1.18611
1.15347
1.10017
1.07945
-0.110658
-0.0777468
-0.00791607
0.0825845
0.18589
0.297328
0.415553
0.542651
0.678562
0.826263
0.971467
1.098
1.19832
1.24663
1.24032
1.21958
1.18624
1.12673
1.06613
1.03
-0.152587
-0.094404
-0.0213203
0.0680283
0.17234
0.283321
0.401983
0.529357
0.665822
0.814806
0.963049
1.09477
1.20597
1.26336
1.2547
1.20902
1.1391
1.06264
0.991538
0.952323
-0.124811
-0.105496
-0.0416917
0.0482934
0.151283
0.262242
0.380534
0.507863
0.644494
0.794109
0.944358
1.0796
1.18872
1.25384
1.20883
1.06961
0.962419
0.888255
0.818498
0.836143
-0.154475
-0.121909
-0.0571922
0.0324137
0.135107
0.24604
0.364771
0.49182
0.628062
0.77707
0.926474
1.05988
1.15802
1.19433
1.1103
0.944418
0.818708
0.73411
0.646101
0.681221
-0.176958
-0.142099
-0.0756482
0.0140419
0.116736
0.227786
0.346616
0.473186
0.608569
0.756011
0.902624
1.03071
1.11652
1.11502
0.976571
0.800635
0.65706
0.553295
0.452666
0.473724
-0.198559
-0.162754
-0.0950005
-0.00467006
0.0981431
0.209175
0.32764
0.453488
0.587652
0.732815
0.87496
0.99337
1.06008
1.02438
0.837567
0.644503
0.473731
0.332221
0.202536
0.203029
-0.219686
-0.183605
-0.115029
-0.0241429
0.0788213
0.189692
0.307593
0.432488
0.564999
0.707168
0.84325
0.950613
0.994979
0.904602
0.699385
0.489695
0.295989
0.137567
-0.0675793
-0.149032
-0.24103
-0.205136
-0.136139
-0.0448986
0.0582034
0.168909
0.286253
0.410066
0.540637
0.679221
0.808124
0.905228
0.919184
0.778393
0.571726
0.353232
0.156176
-0.00624486
-0.127485
-0.236967
-0.263642
-0.227819
-0.15868
-0.0673215
0.0357509
0.14615
0.262786
0.385252
0.513385
0.647504
0.768445
0.850578
0.834918
0.657833
0.451361
0.239641
0.0595772
-0.0384569
-0.0638527
-0.0765763
-0.287683
-0.251949
-0.182776
-0.0914951
0.0113197
0.121189
0.236801
0.357504
0.482581
0.611193
0.722722
0.785168
0.74592
0.541638
0.337957
0.147039
0.0107171
-0.0275061
-0.0354647
-0.0358581
-0.313454
-0.277661
-0.208472
-0.117407
-0.0150422
0.0940031
0.208252
0.326733
0.448104
0.570261
0.671547
0.715609
0.637018
0.434393
0.238003
0.0720577
-0.00400972
-0.0179722
-0.0188365
-0.0186905
-0.340953
-0.304993
-0.235796
-0.145065
-0.0433664
0.0645818
0.177101
0.292888
0.409937
0.524773
0.615061
0.63998
0.523171
0.336559
0.151727
0.020448
-0.00823528
-0.00888631
-0.00941024
-0.00899769
-0.369938
-0.333792
-0.264663
-0.174406
-0.0735868
0.0329543
0.143346
0.255963
0.36813
0.47487
0.554024
0.557179
0.422785
0.247642
0.0846619
0.00900755
-0.0055725
-0.0036525
-0.00339866
-0.00301321
-0.399861
-0.363714
-0.294821
-0.205212
-0.105533
-0.000742441
0.107114
0.216058
0.322918
0.421164
0.488443
0.474431
0.331271
0.16976
0.039872
0.000665843
0.00134216
0.000811247
0.000997123
0.00127989
-0.43028
-0.394237
-0.325792
-0.237081
-0.138869
-0.0361992
0.0686799
0.17345
0.27461
0.364683
0.417661
0.396959
0.250165
0.108842
0.0140851
0.00577513
0.00415495
0.00382617
0.00387518
0.00403031
-0.460197
-0.424504
-0.356866
-0.269393
-0.173052
-0.072944
0.0285071
0.128644
0.22365
0.306307
0.347689
0.318584
0.18176
0.0663095
0.0091059
-0.000844235
0.00456643
0.00570975
0.00610302
0.00627671
-0.488078
-0.453261
-0.387021
-0.301277
-0.207312
-0.110273
-0.012726
0.0824005
0.170877
0.246507
0.282983
0.239293
0.12672
0.0342873
0.0104882
0.00767516
0.00716385
0.00771467
0.00797226
0.00812548
-0.512585
-0.479025
-0.414882
-0.331543
-0.240597
-0.147242
-0.0541285
0.0356686
0.11759
0.18589
0.219808
0.1718
0.0855613
0.0171275
-0.00432791
0.00484542
0.00800506
0.00906686
0.00941032
0.00956722
-0.531175
-0.49972
-0.438719
-0.358695
-0.271604
-0.182666
-0.0945783
-0.0104568
0.0651139
0.126357
0.157175
0.11904
0.0583092
0.0150407
0.00903546
0.00862021
0.00981059
0.0102142
0.0103417
0.0104697
-0.541899
-0.513323
-0.456504
-0.381022
-0.298824
-0.215166
-0.132745
-0.054697
0.0145783
0.0705271
0.100082
0.0745031
0.0406405
0.0160227
0.0154192
0.0116325
0.0100924
0.00985617
0.00979052
0.00985705
-0.542119
-0.517513
-0.466201
-0.396714
-0.320647
-0.243285
-0.167202
-0.0955445
-0.0327504
0.0189684
0.0521782
0.0339575
0.0231108
0.00937085
0.00754964
0.00758133
0.0072282
0.0070942
0.00705933
0.00710865
-0.529415
-0.50958
-0.46569
-0.404071
-0.335639
-0.265662
-0.196624
-0.131474
-0.0750557
-0.0294745
0.0158726
-0.00471803
0.00593367
-0.00568809
-0.00394795
0.000432896
0.00212958
0.00241555
0.00241841
0.00247679
-0.501993
-0.487586
-0.453262
-0.401936
-0.342784
-0.281327
-0.219984
-0.161395
-0.110542
-0.0726598
-0.0250799
-0.0201819
-0.010415
-0.0172616
-0.0109849
-0.00674096
-0.00419318
-0.00394005
-0.00424296
-0.00425513
-0.463365
-0.454222
-0.430298
-0.390694
-0.342176
-0.290057
-0.236724
-0.184708
-0.138671
-0.106267
-0.0749161
-0.0454465
-0.0138709
-0.0122893
-0.0194263
-0.0165786
-0.016404
-0.0173517
-0.0180859
-0.01813
-0.420574
-0.415358
-0.401695
-0.37348
-0.335944
-0.292735
-0.246976
-0.201051
-0.15887
-0.127646
-0.0997986
-0.0721381
-0.0370003
-0.00976757
0.00741357
-0.00558748
-0.0304539
-0.0436995
-0.0476229
-0.0482495
-0.383207
-0.38
-0.373456
-0.355538
-0.326917
-0.291173
-0.251762
-0.210433
-0.170198
-0.137386
-0.111729
-0.0968348
-0.0949836
-0.11702
-0.149022
-0.18357
-0.186296
-0.147482
-0.124042
-0.125245
-0.356259
-0.354355
-0.351078
-0.340515
-0.318667
-0.28845
-0.253003
-0.213847
-0.173343
-0.136514
-0.109062
-0.103534
-0.146914
-0.220303
-0.292624
-0.32803
-0.330632
-0.294628
-0.248242
-0.230946
-0.336504
-0.335837
-0.334753
-0.329558
-0.313619
-0.287018
-0.252705
-0.213172
-0.169634
-0.125908
-0.0951257
-0.0695031
-0.0568052
-0.0740151
-0.118843
-0.129026
-0.116392
-0.0928308
-0.0635893
-0.0485838
-0.324866
-0.324647
-0.324054
-0.321738
-0.310986
-0.286561
-0.251857
-0.210085
-0.161804
-0.108321
-0.0623621
0.000201068
0.0803728
0.155078
0.197346
0.226623
0.260092
0.294444
0.323699
0.338291
-0.31674
-0.316595
-0.3162
-0.315593
-0.3091
-0.287199
-0.251452
-0.206138
-0.151992
-0.0865466
-0.0186142
0.0687056
0.210526
0.387197
0.551861
0.681539
0.771888
0.830551
0.865708
0.880482
-0.311335
-0.311294
-0.311183
-0.311047
-0.307305
-0.28895
-0.252226
-0.202588
-0.142426
-0.0663716
0.0195555
0.116868
0.302379
0.562305
0.834312
1.07305
1.243
1.33725
1.37813
1.3914
-0.306859
-0.306852
-0.306783
-0.306699
-0.305387
-0.2911
-0.25432
-0.201024
-0.135511
-0.0520989
0.0448797
0.147868
0.344537
0.636777
0.956805
1.24952
1.4722
1.59465
1.64056
1.65266
-0.303002
-0.302989
-0.302864
-0.302616
-0.302517
-0.292629
-0.257669
-0.202605
-0.132912
-0.0459992
0.0554271
0.160018
0.33852
0.616744
0.922886
1.20637
1.42923
1.55483
1.60293
1.61476
-0.300039
-0.30003
-0.299964
-0.299908
-0.300306
-0.293465
-0.26219
-0.206728
-0.135437
-0.048323
0.0506526
0.148209
0.295144
0.539534
0.799671
1.0326
1.21953
1.32917
1.37221
1.38279
-0.297069
-0.297126
-0.297293
-0.297615
-0.297854
-0.294284
-0.267021
-0.213125
-0.14272
-0.0582552
0.033246
0.119472
0.231825
0.431333
0.642678
0.820137
0.961031
1.04606
1.07955
1.08753
-0.29397
-0.294063
-0.294197
-0.294346
-0.294532
-0.293356
-0.271007
-0.220554
-0.15346
-0.0745091
0.00790676
0.0818187
0.164217
0.317168
0.482293
0.614738
0.716689
0.778224
0.801943
0.806883
-0.290979
-0.291103
-0.291287
-0.291535
-0.291979
-0.291585
-0.273745
-0.227928
-0.166136
-0.0943383
-0.0214234
0.0411566
0.100487
0.214492
0.339254
0.436155
0.508698
0.551835
0.567986
0.57049
-0.287919
-0.288073
-0.288303
-0.28867
-0.289321
-0.289634
-0.27517
-0.234472
-0.179487
-0.115327
-0.0514371
0.000758388
0.0443103
0.127341
0.219929
0.289965
0.34103
0.370339
0.380542
0.38209
-0.285081
-0.285184
-0.285181
-0.284982
-0.284846
-0.285238
-0.274098
-0.240105
-0.192535
-0.135211
-0.0800022
-0.0368151
-0.00352754
0.0583001
0.126081
0.175347
0.21022
0.229938
0.236608
0.237401
-0.283798
-0.283734
-0.283198
-0.281554
-0.278819
-0.277562
-0.271755
-0.245771
-0.204432
-0.153152
-0.106327
-0.0703224
-0.0445498
0.00192454
0.0525258
0.0876187
0.111779
0.124882
0.129099
0.129325
-0.285299
-0.285165
-0.284592
-0.282969
-0.280199
-0.278343
-0.274413
-0.253255
-0.214691
-0.168627
-0.129684
-0.099181
-0.0777045
-0.0425906
-0.00462131
0.0214414
0.0392916
0.0489572
0.05196
0.0518813
-0.28839
-0.288553
-0.289278
-0.291446
-0.294603
-0.295066
-0.289187
-0.263996
-0.223575
-0.182793
-0.150592
-0.122334
-0.105019
-0.0765849
-0.0461446
-0.0259568
-0.0121197
-0.00479512
-0.0024986
-0.00275192
-0.288746
-0.28947
-0.292312
-0.300997
-0.314387
-0.318409
-0.307192
-0.272823
-0.231104
-0.197049
-0.166478
-0.140276
-0.12625
-0.103596
-0.0778467
-0.060054
-0.0475293
-0.0408702
-0.0389417
-0.0393582
-0.284263
-0.285025
-0.287867
-0.296367
-0.311786
-0.319905
-0.302917
-0.269284
-0.236771
-0.207617
-0.176535
-0.153267
-0.142152
-0.121188
-0.0984571
-0.0826851
-0.0713654
-0.0653388
-0.0635886
-0.0640759
-0.281096
-0.281491
-0.281602
-0.275729
-0.262163
-0.256324
-0.258433
-0.252303
-0.236911
-0.210787
-0.180912
-0.161784
-0.152408
-0.132735
-0.111578
-0.0967014
-0.0862166
-0.0807932
-0.0792378
-0.0797695
-0.284869
-0.28431
-0.280155
-0.258629
-0.217059
-0.192181
-0.212457
-0.235484
-0.234749
-0.20903
-0.181053
-0.165831
-0.155746
-0.136798
-0.117281
-0.103563
-0.0938673
-0.0889918
-0.087512
-0.0880253
-0.30182
-0.299494
-0.295866
-0.283063
-0.259287
-0.239657
-0.249492
-0.263051
-0.245772
-0.208087
-0.179575
-0.163891
-0.153225
-0.133831
-0.115448
-0.102634
-0.0938494
-0.0893688
-0.0880367
-0.0884975
-0.355269
-0.356791
-0.372884
-0.396946
-0.403922
-0.387173
-0.361564
-0.321121
-0.263622
-0.20729
-0.174969
-0.157187
-0.143386
-0.124799
-0.107553
-0.0947294
-0.0857474
-0.0811325
-0.0798189
-0.0803223
-0.436039
-0.446242
-0.475485
-0.505564
-0.514973
-0.496309
-0.450814
-0.365933
-0.270474
-0.200143
-0.165078
-0.143392
-0.127668
-0.110485
-0.0937932
-0.0806135
-0.0709802
-0.0659204
-0.0646625
-0.0652749
-0.471133
-0.482705
-0.505773
-0.526986
-0.534388
-0.51593
-0.461078
-0.354794
-0.251029
-0.181095
-0.143902
-0.119956
-0.107545
-0.0919845
-0.0751496
-0.0616551
-0.0520948
-0.0471872
-0.0462064
-0.0469712
-0.410253
-0.421231
-0.440059
-0.456815
-0.463752
-0.447729
-0.390603
-0.284637
-0.19915
-0.1436
-0.107842
-0.089835
-0.0828322
-0.0687279
-0.0535248
-0.0416694
-0.033212
-0.0290216
-0.0286148
-0.029516
-0.25571
-0.267224
-0.286727
-0.306614
-0.315368
-0.301553
-0.249813
-0.174805
-0.123097
-0.0850898
-0.0610223
-0.0540863
-0.052202
-0.0402764
-0.0298498
-0.022523
-0.0165568
-0.0139037
-0.0142621
-0.0152021
-0.00330626
-0.00926333
-0.0323036
-0.0631925
-0.0751196
-0.0733048
-0.0627199
-0.0444348
-0.0335927
-0.0222536
-0.0155131
-0.0123695
-0.0108802
-0.0100032
-0.0061983
-0.00692547
-0.00697229
-0.00719734
-0.00594906
-0.00505507
0.323228
0.502624
0.66552
0.802065
0.908701
0.990318
1.05703
1.11144
1.12461
1.12244
0.592392
0.706148
0.812286
0.902987
0.978162
1.0394
1.08746
1.12005
1.13777
1.15511
0.774425
0.849724
0.924107
0.988899
1.04369
1.08902
1.12491
1.15267
1.17366
1.19305
0.910035
0.963787
1.01771
1.06601
1.10766
1.14321
1.17327
1.19865
1.21822
1.23713
1.02073
1.06148
1.10168
1.13947
1.17335
1.20345
1.22989
1.25244
1.27003
1.28812
1.11366
1.14777
1.18125
1.21343
1.24321
1.27029
1.29431
1.3146
1.33005
1.34753
1.19934
1.23032
1.26152
1.29176
1.31996
1.34565
1.36825
1.38681
1.40048
1.41747
1.2846
1.3166
1.34838
1.37903
1.40732
1.43269
1.45447
1.47174
1.48393
1.50042
1.37799
1.41417
1.44859
1.48069
1.50954
1.5346
1.55547
1.57157
1.58304
1.59915
1.49057
1.53126
1.568
1.60059
1.62881
1.65259
1.67205
1.6872
1.699
1.71503
1.63191
1.67266
1.70775
1.73712
1.76216
1.78365
1.80205
1.81746
1.83051
1.84643
1.80306
1.83493
1.86185
1.88417
1.90419
1.92284
1.94053
1.95726
1.97213
1.98784
1.98903
2.00619
2.02324
2.0399
2.05597
2.07068
2.08455
2.09901
2.11422
2.13152
2.17238
2.18226
2.19541
2.20638
2.21578
2.22542
2.236
2.24616
2.25543
2.2811
2.39012
2.38442
2.37147
2.35721
2.3509
2.35658
2.37471
2.40323
2.43699
2.47332
2.69296
2.55701
2.47748
2.4349
2.41756
2.42156
2.44898
2.50683
2.61448
2.79289
1.12699
1.12069
1.11296
1.10186
1.08829
1.07566
1.06528
1.0573
1.05162
1.04835
1.04808
1.05098
1.05627
1.06367
1.07325
1.08511
1.09868
1.11162
1.12062
1.12816
1.03604
1.04196
1.05004
1.05618
1.05926
1.05876
1.0557
1.05173
1.04819
1.04597
1.04592
1.04825
1.05207
1.05656
1.06069
1.06297
1.06191
1.05729
1.05024
1.04241
1.02926
1.03163
1.0349
1.03769
1.04015
1.04236
1.04356
1.04345
1.04257
1.04183
1.04213
1.04364
1.04549
1.04677
1.04674
1.0453
1.04317
1.04082
1.03785
1.03484
1.02442
1.02551
1.02743
1.02978
1.03167
1.03309
1.03434
1.03537
1.03603
1.03649
1.03715
1.038
1.03855
1.0385
1.03792
1.03703
1.03573
1.03378
1.03169
1.03021
1.01933
1.01997
1.0211
1.02287
1.02474
1.02636
1.02765
1.02876
1.02981
1.03081
1.03172
1.03236
1.0326
1.03247
1.03199
1.03106
1.02967
1.02809
1.02677
1.02597
1.01433
1.01477
1.01556
1.01688
1.01843
1.02003
1.02155
1.02291
1.02414
1.02534
1.02644
1.02719
1.02749
1.02735
1.02676
1.02582
1.02471
1.0236
1.02272
1.02219
1.00939
1.00972
1.01034
1.01143
1.01276
1.0142
1.01573
1.01727
1.01876
1.0202
1.02153
1.02245
1.02282
1.0227
1.02219
1.02148
1.02069
1.01988
1.01924
1.01885
1.0045
1.00475
1.00525
1.00619
1.0074
1.00875
1.01024
1.01185
1.01355
1.01528
1.01688
1.01802
1.01854
1.01859
1.01832
1.01787
1.0173
1.01673
1.01627
1.01598
0.99957
0.99977
1.00019
1.00102
1.00216
1.00348
1.00496
1.00664
1.0085
1.0105
1.01245
1.0139
1.0147
1.01502
1.01503
1.01482
1.01448
1.01411
1.0138
1.01357
0.994518
0.994678
0.99504
0.995801
0.996902
0.998215
0.999745
1.00153
1.00358
1.00588
1.00823
1.01009
1.01127
1.01193
1.01223
1.01228
1.01218
1.012
1.01181
1.01163
0.989248
0.989377
0.989698
0.99042
0.991513
0.992864
0.994482
0.996417
0.998713
1.00138
1.00422
1.0066
1.00824
1.00929
1.00992
1.01026
1.0104
1.01041
1.01032
1.01017
0.983664
0.983767
0.984061
0.984769
0.985891
0.987325
0.989076
0.991223
0.99384
0.996969
1.00041
1.00341
1.00559
1.00709
1.00811
1.00876
1.00917
1.00936
1.00937
1.00925
0.97766
0.97774
0.97802
0.978738
0.979925
0.981485
0.983427
0.985857
0.988883
0.992585
0.996756
1.00051
1.00332
1.00536
1.00681
1.00785
1.00854
1.00892
1.00901
1.00891
0.971114
0.971174
0.971448
0.9722
0.973489
0.975223
0.977422
0.980219
0.983759
0.988167
0.993227
0.997882
1.00145
1.00412
1.00609
1.00754
1.00856
1.00915
1.00932
1.00924
0.963886
0.963923
0.964201
0.96501
0.966439
0.968404
0.970935
0.974197
0.978377
0.983648
0.989785
0.995518
0.999995
1.00341
1.00598
1.00792
1.00932
1.01013
1.01039
1.01031
0.955798
0.955816
0.9561
0.956988
0.9586
0.960862
0.963815
0.967658
0.97263
0.978957
0.986392
0.993413
0.998964
1.00326
1.00655
1.00907
1.01091
1.01196
1.0123
1.01223
0.946599
0.946604
0.946913
0.947906
0.949759
0.952395
0.955878
0.960447
0.966397
0.974012
0.983012
0.991566
0.998385
1.00371
1.00785
1.01108
1.01341
1.01473
1.01514
1.01507
0.936015
0.935995
0.936344
0.937488
0.939641
0.942751
0.946901
0.952376
0.959536
0.968726
0.979607
0.989974
0.998284
1.00483
1.00997
1.014
1.0169
1.01851
1.01899
1.01892
0.923661
0.92362
0.924021
0.925355
0.927889
0.931608
0.936604
0.943221
0.951887
0.963003
0.976141
0.988642
0.998687
1.00664
1.01296
1.01792
1.02147
1.02337
1.02391
1.02383
0.909015
0.908951
0.909435
0.911023
0.914048
0.918555
0.924642
0.932715
0.943274
0.956754
0.972588
0.987583
0.99962
1.00919
1.01686
1.02287
1.02712
1.0293
1.02988
1.02978
0.891348
0.891262
0.891875
0.893821
0.897506
0.90306
0.910586
0.920554
0.933516
0.949908
0.968946
0.986813
1.00111
1.01251
1.02167
1.02885
1.03383
1.03625
1.03683
1.03671
0.869616
0.869512
0.870338
0.872807
0.877421
0.884428
0.893917
0.906409
0.922462
0.942439
0.965249
0.986375
1.00318
1.01658
1.02738
1.03582
1.04148
1.04405
1.04459
1.04444
0.842227
0.842125
0.843309
0.846594
0.85263
0.861761
0.874046
0.889985
0.910038
0.934402
0.961582
0.986328
1.00586
1.02141
1.03394
1.04365
1.04986
1.05244
1.05288
1.05269
0.806603
0.806561
0.808398
0.8131
0.82153
0.834027
0.85045
0.871141
0.896328
0.925961
0.958097
0.986772
1.00917
1.02696
1.04127
1.05214
1.05863
1.06102
1.06132
1.0611
0.75816
0.758363
0.761655
0.769359
0.782272
0.800337
0.822937
0.850066
0.88165
0.917413
0.95501
0.987834
1.01317
1.0332
1.04922
1.06099
1.06735
1.06933
1.06945
1.06922
0.688299
0.689841
0.697901
0.712566
0.733803
0.760774
0.792109
0.827443
0.866572
0.909157
0.952549
0.989624
1.0179
1.04002
1.05751
1.0697
1.07544
1.07684
1.07681
1.07659
0.604753
0.60771
0.623463
0.648918
0.68161
0.71905
0.759798
0.803729
0.850763
0.900661
0.950527
0.992625
1.02455
1.04934
1.06823
1.08017
1.08499
1.08589
1.08582
1.08569
0.518885
0.526589
0.550326
0.586549
0.63027
0.67798
0.728135
0.780682
0.83562
0.892772
0.949029
0.996057
1.03151
1.05889
1.07902
1.09014
1.09352
1.09388
1.09379
1.09371
0.448262
0.458239
0.487008
0.530852
0.583194
0.639559
0.698161
0.758752
0.821178
0.885173
0.947363
0.998849
1.0374
1.06685
1.08744
1.09753
1.10006
1.10025
1.10017
1.10012
0.390122
0.400882
0.433501
0.482973
0.541809
0.605053
0.670694
0.738288
0.807443
0.877707
0.945347
1.00093
1.04229
1.07345
1.09427
1.10349
1.10546
1.10555
1.10548
1.10545
0.341174
0.352333
0.387622
0.441467
0.505566
0.574472
0.646004
0.7196
0.794678
0.870582
0.943199
1.00255
1.04649
1.07917
1.10007
1.10848
1.11005
1.11009
1.11003
1.11001
0.299016
0.310356
0.34763
0.40497
0.473441
0.547176
0.623806
0.702658
0.783005
0.863995
0.941146
1.00391
1.0502
1.0842
1.10502
1.11275
1.11404
1.11404
1.11399
1.11397
0.261927
0.273335
0.312157
0.372382
0.444563
0.522477
0.603611
0.687182
0.772324
0.857978
0.939281
1.00515
1.05352
1.08862
1.10929
1.11643
1.11752
1.11748
1.11742
1.11741
0.228652
0.240082
0.280122
0.342829
0.418231
0.499816
0.584967
0.672838
0.762413
0.852432
0.937595
1.00627
1.05648
1.09248
1.11293
1.11958
1.12051
1.12043
1.12036
1.12034
0.19816
0.209625
0.250739
0.31564
0.393897
0.478743
0.567512
0.659327
0.753056
0.847226
0.93605
1.0073
1.05911
1.0958
1.11597
1.12219
1.12299
1.12287
1.12278
1.12275
0.169862
0.181366
0.223432
0.290303
0.371115
0.458896
0.550957
0.646415
0.744063
0.842247
0.934636
1.0083
1.06145
1.09863
1.11839
1.12422
1.12493
1.12478
1.12467
1.12463
0.143259
0.154814
0.197759
0.266424
0.349546
0.43999
0.53507
0.633916
0.735293
0.837406
0.933372
1.00937
1.06363
1.10097
1.1202
1.12567
1.1263
1.12615
1.12604
1.12599
0.117947
0.129637
0.173397
0.243718
0.328942
0.421805
0.519668
0.621683
0.726616
0.832624
0.932281
1.01065
1.0658
1.10298
1.12149
1.12658
1.12718
1.12706
1.12697
1.12692
0.0937697
0.10561
0.150144
0.221978
0.309118
0.404194
0.504617
0.609592
0.717924
0.827801
0.931359
1.01231
1.06822
1.10484
1.12238
1.12708
1.12769
1.12764
1.12759
1.12754
0.0705094
0.0825498
0.12782
0.201075
0.289954
0.387038
0.489814
0.597551
0.709126
0.822843
0.930553
1.0145
1.07122
1.10687
1.12305
1.12731
1.128
1.12805
1.12801
1.12796
0.048144
0.0603644
0.106338
0.180925
0.271371
0.37027
0.475201
0.585495
0.700145
0.817638
0.929764
1.01731
1.0752
1.10952
1.12373
1.12724
1.1281
1.12836
1.12833
1.12825
0.026535
0.0389879
0.085674
0.161478
0.253317
0.353847
0.460732
0.573385
0.690922
0.812093
0.928851
1.02074
1.08054
1.1135
1.12491
1.12681
1.12759
1.12833
1.1287
1.12867
0.00581005
0.0183983
0.0657848
0.142688
0.235772
0.337771
0.446396
0.561194
0.681419
0.806133
0.92765
1.02466
1.08751
1.11967
1.12767
1.1267
1.12649
1.1279
1.12967
1.13028
-0.0142187
-0.00141619
0.0466484
0.124525
0.218713
0.322019
0.432212
0.548919
0.671611
0.799703
0.925991
1.02882
1.09617
1.12891
1.13386
1.12925
1.12675
1.12852
1.1326
1.13503
-0.0334417
-0.0204243
0.0282349
0.106992
0.202174
0.306625
0.418205
0.536607
0.661508
0.792729
0.923716
1.0329
1.10628
1.14163
1.1451
1.13723
1.13195
1.13323
1.13949
1.14512
-0.0519588
-0.0387296
0.0105645
0.0901128
0.186154
0.291613
0.404413
0.524275
0.65113
0.785216
0.920683
1.03649
1.11731
1.15747
1.16161
1.15205
1.14403
1.14188
1.14204
1.1388
-0.0696985
-0.0563224
-0.00646256
0.0737053
0.170422
0.276703
0.390511
0.511546
0.64008
0.776745
0.916518
1.03926
1.12918
1.17671
1.18375
1.17406
1.16347
1.15291
1.1414
1.14375
-0.0866666
-0.0733055
-0.0228795
0.0578094
0.154967
0.261906
0.376503
0.498363
0.628268
0.767096
0.910831
1.04037
1.14064
1.19833
1.2097
1.2006
1.18573
1.17126
1.13495
1.0995
-0.102696
-0.0895519
-0.038692
0.0425485
0.139766
0.247193
0.362353
0.484817
0.615693
0.756186
0.903291
1.03894
1.14956
1.22
1.23689
1.2244
1.20298
1.16884
1.11579
1.06554
-0.120495
-0.103987
-0.053718
0.028392
0.125089
0.232799
0.347664
0.470924
0.6024
0.744046
0.893652
1.03422
1.15323
1.23952
1.26333
1.2432
1.19751
1.13502
1.06489
1.00636
-0.108406
-0.083034
-0.0279407
0.058067
0.161998
0.273032
0.394029
0.521429
0.658005
0.807332
0.956576
1.08989
1.20174
1.2771
1.26661
1.17504
1.10598
1.03164
0.961255
0.916825
-0.121451
-0.113369
-0.0710262
0.005421
0.102338
0.209326
0.32481
0.448259
0.580076
0.722415
0.873726
1.01845
1.14265
1.23569
1.27123
1.21814
1.0893
0.99873
0.932047
0.856345
-0.1416
-0.130735
-0.0848005
-0.00689684
0.0906856
0.197256
0.311852
0.43462
0.566066
0.708066
0.859544
1.00529
1.12835
1.2086
1.21058
1.09071
0.944593
0.849123
0.776551
0.698231
-0.163676
-0.151656
-0.102562
-0.0236848
0.0738883
0.180767
0.29563
0.418477
0.549537
0.690916
0.840923
0.983886
1.09753
1.16136
1.11934
0.955747
0.801894
0.69225
0.605913
0.495613
-0.18512
-0.17311
-0.122397
-0.0423808
0.0552246
0.162279
0.277174
0.399701
0.530033
0.670114
0.817432
0.955025
1.05776
1.0953
1.00478
0.813181
0.63972
0.503698
0.393286
0.249861
-0.206242
-0.194326
-0.142634
-0.0616178
0.0363069
0.143393
0.257984
0.379821