/*--------------------------------*- C++ -*----------------------------------*\
  =========                 |
  \\      /  F ield         | OpenFOAM: The Open Source CFD Toolbox
   \\    /   O peration     | Website:  https://openfoam.org
    \\  /    A nd           | Version:  6
     \\/     M anipulation  |
\*---------------------------------------------------------------------------*/
FoamFile
{
    version     2.0;
    format      ascii;
    class       surfaceScalarField;
    location    "56.7";
    object      phi;
}
// * * * * * * * * * * * * * * * * * * * * * * * * * * * * * * * * * * * * * //

dimensions      [0 3 -1 0 0 0 0];

internalField   nonuniform List<scalar> 
17370
(
-0.0900014
0.0898514
0.289161
-0.0714659
0.0537569
0.364485
-0.0381248
0.0276967
0.426596
-0.0196464
0.0146148
0.504283
-0.010774
0.0082842
0.601892
-0.00628485
0.00490858
0.720434
-0.00374497
0.00290465
0.863747
-0.0021634
0.00160456
1.03601
-0.00108826
0.000675917
1.24292
-0.000267918
-0.000123977
1.49158
0.000502545
-0.000910484
1.4916
0.00130661
-0.00179661
1.24318
0.00232817
-0.00303954
1.03635
0.00385656
-0.00500166
0.864052
0.00636755
-0.00836006
0.72105
0.0108449
-0.0146804
0.60305
0.0197074
-0.0277524
0.507484
0.0381752
-0.0538
0.431793
0.0715013
-0.089875
0.365149
0.0900154
0.198995
-0.128133
0.0882199
0.039913
-0.364595
0.353371
-0.0746809
0.0859051
-0.446474
0.454315
-0.0844056
0.0765644
-0.521189
0.529896
-0.0684701
0.0597626
-0.612787
0.621563
-0.0515771
0.0428011
-0.726892
0.734158
-0.0353433
0.0280771
-0.867472
0.872585
-0.022479
0.0173661
-1.03847
1.04192
-0.0135583
0.0101107
-1.2446
1.24703
-0.00750204
0.00507172
-1.49262
1.4946
-0.00312668
0.00115134
-1.4925
1.49422
0.000528357
-0.00225329
-1.24398
1.24586
0.00415542
-0.00603856
-1.03751
1.04005
0.00839693
-0.0109323
-0.866102
0.869835
0.0142946
-0.0180276
-0.724394
0.729938
0.0230689
-0.0286134
-0.6087
0.616117
0.0358306
-0.0432469
-0.5149
0.523046
0.0519787
-0.0601246
-0.439858
0.447918
0.0687902
-0.0768507
-0.375298
0.376744
0.0846529
-0.0860991
-0.257334
0.222485
0.074813
-0.0399645
-0.0685102
0.0586812
0.00982897
-0.0518306
0.05842
-0.374118
0.367529
-0.0575097
0.0537618
-0.453588
0.457336
-0.0486761
0.0447279
-0.527939
0.531888
-0.0408929
0.0372585
-0.621555
0.62519
-0.0331619
0.0290908
-0.73534
0.739411
-0.0245253
0.0203699
-0.874331
0.878486
-0.0160281
0.0123375
-1.04348
1.04717
-0.00860365
0.00543341
-1.24855
1.25172
-0.00210744
-0.000965057
-1.49666
1.49973
0.00401259
-0.00727746
-1.49721
1.50047
0.0103577
-0.0139674
-1.25008
1.25369
0.0175335
-0.0217342
-1.04593
1.05013
0.0257661
-0.0302085
-0.877773
0.882216
0.034181
-0.0381819
-0.739911
0.743912
0.0417359
-0.0454876
-0.626783
0.630535
0.0493645
-0.0543823
-0.534818
0.539836
0.058057
-0.0588742
-0.457482
0.458299
0.0521759
-0.0319814
-0.335764
0.315569
0.00988542
-0.068355
0.0584695
-0.0529274
0.0489288
0.00399864
-0.0331834
0.0437382
-0.358088
0.347533
-0.0474446
0.046823
-0.459271
0.459892
-0.0437725
0.0404245
-0.535787
0.539135
-0.0366581
0.0333609
-0.628511
0.631808
-0.0299317
0.0269079
-0.742629
0.745653
-0.0236575
0.0205571
-0.881998
0.885098
-0.0170325
0.0136573
-1.05075
1.05413
-0.00986827
0.00633274
-1.25515
1.25869
-0.00236662
-0.00142919
-1.50324
1.50703
0.00519382
-0.009067
-1.50414
1.50802
0.0124767
-0.0160955
-1.25743
1.26105
0.0192981
-0.0226251
-1.05394
1.05726
0.0255497
-0.0286218
-0.885715
0.888787
0.0315009
-0.0347896
-0.74718
0.750469
0.0379696
-0.0416157
-0.634326
0.637972
0.0448602
-0.0477929
-0.544151
0.547083
0.048291
-0.0444109
-0.456592
0.452712
0.0336488
-0.0162102
-0.296215
0.278776
0.00406845
-0.0526531
0.0485846
-0.0458476
0.0433486
0.00249896
-0.0228319
0.0332234
-0.336833
0.326441
-0.0390563
0.0400808
-0.45957
0.458546
-0.0388977
0.0366167
-0.541849
0.54413
-0.0339573
0.0313702
-0.634853
0.63744
-0.0283177
0.0254282
-0.748692
0.751581
-0.0221739
0.0191895
-0.888043
0.891027
-0.0158945
0.0128037
-1.05725
1.06034
-0.00928578
0.00588301
-1.26214
1.26554
-0.00192494
-0.00195609
-1.51091
1.51479
0.00579653
-0.00963275
-1.51191
1.51575
0.012871
-0.0161668
-1.26449
1.26779
0.0190318
-0.0220666
-1.06037
1.0634
0.0248169
-0.0278316
-0.891853
0.894868
0.030525
-0.0333858
-0.753686
0.756547
0.0358136
-0.0383117
-0.641045
0.643544
0.0404532
-0.0414529
-0.548894
0.549894
0.0402372
-0.0341252
-0.447442
0.44133
0.0234292
-0.010224
-0.263569
0.250364
0.00258513
-0.0454256
0.0428405
-0.0412698
0.0394986
0.00177116
-0.0167763
0.0260435
-0.316574
0.307307
-0.0326652
0.0348164
-0.456936
0.454785
-0.0344053
0.0327433
-0.5461
0.547762
-0.0305735
0.0284903
-0.639739
0.641823
-0.026074
0.0236906
-0.754217
0.7566
-0.0208469
0.0180694
-0.89391
0.896687
-0.0148438
0.0117828
-1.06337
1.06643
-0.00830086
0.00498217
-1.26885
1.27217
-0.0011551
-0.00257485
-1.51857
1.5223
0.00625282
-0.00992483
-1.51949
1.52316
0.0130346
-0.016234
-1.27104
1.27424
0.0190063
-0.0218984
-1.06643
1.06932
0.0243749
-0.0269092
-0.897697
0.900231
0.0290383
-0.0312062
-0.75901
0.761178
0.0330857
-0.0350488
-0.645707
0.64767
0.0365082
-0.0366706
-0.55042
0.550582
0.0342259
-0.0271966
-0.434678
0.427649
0.0175202
-0.0073921
-0.238848
0.22872
0.00187614
-0.0406664
0.0387902
-0.0379723
0.0366385
0.00133383
-0.0128197
0.0207838
-0.298697
0.290733
-0.0275535
0.0304906
-0.452211
0.449274
-0.0307077
0.0295996
-0.549183
0.550292
-0.0276186
0.0257152
-0.643849
0.645752
-0.0235303
0.0214061
-0.758827
0.760952
-0.0189046
0.0164338
-0.899247
0.901717
-0.0135061
0.0106405
-1.06936
1.07222
-0.00729212
0.00406027
-1.27541
1.27864
-0.000318137
-0.00331027
-1.52595
1.52958
0.00687408
-0.0104227
-1.52676
1.53031
0.0133938
-0.0163904
-1.27737
1.28037
0.0188967
-0.0214074
-1.07206
1.07457
0.0234996
-0.0256102
-0.902539
0.90465
0.027412
-0.0292805
-0.763176
0.765045
0.0309264
-0.0326579
-0.649496
0.651228
0.0334701
-0.0329058
-0.550385
0.54982
0.02955
-0.0222232
-0.420414
0.413087
0.0137343
-0.00572459
-0.219752
0.211743
0.00146146
-0.0371479
0.0356864
-0.0354728
0.0344434
0.00102941
-0.0100268
0.0167622
-0.283409
0.276674
-0.0232684
0.02666
-0.446091
0.4427
-0.0274577
0.0267704
-0.551185
0.551873
-0.0250247
0.0232535
-0.647639
0.64941
-0.0211992
0.0191981
-0.76301
0.765012
-0.0168436
0.014531
-0.904035
0.906348
-0.0118065
0.00913265
-1.07491
1.07759
-0.00598597
0.00291116
-1.28175
1.28483
0.000688658
-0.00419292
-1.53312
1.53663
0.00761769
-0.0109788
-1.53376
1.53712
0.0137324
-0.0164448
-1.28324
1.28595
0.0186743
-0.0208826
-1.07695
1.07916
0.0227258
-0.0245967
-0.906651
0.908522
0.0261992
-0.027862
-0.766812
0.768474
0.0293152
-0.0307171
-0.652815
0.654217
0.0310382
-0.0297475
-0.548906
0.547616
0.0257799
-0.0185415
-0.40578
0.398541
0.0111473
-0.00461772
-0.204543
0.198014
0.00118471
-0.03438
0.0331953
-0.0335391
0.0327357
0.000803392
-0.00795739
0.0136224
-0.270504
0.264839
-0.0196463
0.0232385
-0.4392
0.435608
-0.0245181
0.0240833
-0.552472
0.552907
-0.0226098
0.0209525
-0.651179
0.652836
-0.0189964
0.0170824
-0.766961
0.768875
-0.0148201
0.012596
-0.908546
0.91077
-0.00997854
0.00742121
-1.08013
1.08268
-0.00442357
0.00149636
-1.28777
1.2907
0.001932
-0.0052665
-1.54002
1.54335
0.00850304
-0.0116379
-1.54036
1.54349
0.0141728
-0.0166427
-1.28855
1.29102
0.0186605
-0.0206482
-1.08129
1.08328
0.0222954
-0.023959
-0.910314
0.911978
0.0253776
-0.0268456
-0.77004
0.771508
0.0281029
-0.0291307
-0.655408
0.656436
0.0290811
-0.0271303
-0.545997
0.544046
0.0227701
-0.0158083
-0.391437
0.384476
0.00932606
-0.00384941
-0.192062
0.186585
0.000992052
-0.0321201
0.031128
-0.0320298
0.0314015
0.000628299
-0.00636168
0.0111136
-0.25966
0.254908
-0.016551
0.0201466
-0.432017
0.428421
-0.0217518
0.0215437
-0.553271
0.553479
-0.0203023
0.0187003
-0.654517
0.656119
-0.0167986
0.0149352
-0.770754
0.772617
-0.012737
0.0105787
-0.912881
0.915039
-0.0080384
0.00555794
-1.08512
1.0876
-0.00265712
-0.00015794
-1.29351
1.29633
0.00342372
-0.00656814
-1.54656
1.5497
0.00959334
-0.0125024
-1.54649
1.5494
0.0148393
-0.0170956
-1.29339
1.29565
0.018916
-0.0206851
-1.08521
1.08698
0.0221376
-0.0236068
-0.913573
0.915042
0.0248679
-0.0261743
-0.772898
0.774205
0.0272981
-0.0279199
-0.657246
0.657868
0.0275056
-0.0250044
-0.541834
0.539333
0.0204095
-0.0137907
-0.377698
0.371079
0.0080312
-0.00331025
-0.181526
0.176805
0.000857437
-0.0302146
0.0293571
-0.030853
0.0303664
0.000486619
-0.00507837
0.00904386
-0.250577
0.246612
-0.0138519
0.0173055
-0.424909
0.421455
-0.0191032
0.0190947
-0.553638
0.553647
-0.0180557
0.0164966
-0.657771
0.65933
-0.0146255
0.0127839
-0.774453
0.776294
-0.0106088
0.00847512
-0.91709
0.919224
-0.00597086
0.00353649
-1.08997
1.0924
-0.000705889
-0.00202258
-1.29904
1.30176
0.00516317
-0.00815743
-1.55272
1.55572
0.0110064
-0.0137136
-1.55219
1.5549
0.015865
-0.0179194
-1.29782
1.29987
0.0195573
-0.0211267
-1.08872
1.09028
0.0223997
-0.0236851
-0.916446
0.917731
0.024792
-0.0259348
-0.775426
0.776569
0.0268616
-0.0271157
-0.65829
0.658544
0.0263057
-0.0233355
-0.536613
0.533643
0.018604
-0.0123217
-0.36465
0.358367
0.0071169
-0.00293625
-0.172389
0.168208
0.000765628
-0.0285563
0.0277907
-0.0299479
0.029581
0.000366849
-0.00400428
0.00727958
-0.243018
0.239742
-0.0114466
0.0146465
-0.418148
0.414949
-0.0165058
0.0166564
-0.553632
0.553482
-0.0156985
0.0142152
-0.660923
0.662406
-0.0123386
0.0104801
-0.778121
0.77998
-0.00829034
0.00615569
-0.921254
0.923389
-0.0036675
0.00126301
-1.09472
1.09713
0.00151908
-0.00418561
-1.30439
1.30706
0.00723121
-0.0101022
-1.55861
1.56148
0.0127963
-0.0153131
-1.55748
1.56
0.0172746
-0.0191106
-1.30182
1.30366
0.0205474
-0.0219017
-1.09182
1.09318
0.0229906
-0.0240993
-0.91897
0.920078
0.0250656
-0.0260479
-0.777628
0.77861
0.02673
-0.0266919
-0.65867
0.658632
0.0254731
-0.0220992
-0.530489
0.527115
0.0172826
-0.0112871
-0.352257
0.346262
0.0064909
-0.00268649
-0.164247
0.160442
0.000706138
-0.0270657
0.0263595
-0.0292751
0.0290147
0.000260337
-0.00306454
0.00571794
-0.236803
0.234149
-0.00924625
0.0121135
-0.411942
0.409075
-0.0139259
0.0141643
-0.553357
0.553119
-0.0132534
0.0118121
-0.663954
0.665396
-0.00990974
0.00801128
-0.781827
0.783725
-0.00577614
0.00360367
-0.92542
0.927592
-0.00108116
-0.00134138
-1.09943
1.10185
0.00411953
-0.00675122
-1.30962
1.31226
0.00971635
-0.012467
-1.56424
1.56699
0.0150055
-0.0173364
-1.5624
1.56473
0.0191231
-0.0207653
-1.30541
1.30705
0.022023
-0.023174
-1.09452
1.09568
0.0240803
-0.025009
-0.921143
0.922072
0.0258272
-0.0266377
-0.779502
0.780313
0.027035
-0.0267376
-0.65846
0.658162
0.0250769
-0.0213126
-0.523568
0.519803
0.0164103
-0.0106189
-0.340405
0.334613
0.00609946
-0.00253778
-0.156791
0.153229
0.000673564
-0.0256813
0.0250077
-0.0288122
0.0286531
0.000159125
-0.00219422
0.00426376
-0.231812
0.229742
-0.0071477
0.00961112
-0.40644
0.403977
-0.0112701
0.0115241
-0.552952
0.552698
-0.0106383
0.00921574
-0.666922
0.668344
-0.00727012
0.00530361
-0.785612
0.787579
-0.00298354
0.000737535
-0.92967
0.931916
0.00185275
-0.00431982
-1.10417
1.10664
0.00712468
-0.00975715
-1.3148
1.31743
0.0126893
-0.015366
-1.56964
1.57232
0.0177838
-0.0199424
-1.56694
1.56909
0.0215456
-0.0229742
-1.3086
1.31002
0.0240334
-0.0249599
-1.09684
1.09777
0.0256626
-0.0263937
-0.922955
0.923687
0.027058
-0.0277194
-0.781011
0.781673
0.0278085
-0.0271425
-0.657637
0.656971
0.0250542
-0.0209145
-0.515894
0.511754
0.0159124
-0.0102413
-0.328929
0.323258
0.00588888
-0.00246539
-0.14977
0.146346
0.000660632
-0.0243533
0.0236927
-0.0285517
0.028495
5.66856e-05
-0.00134573
0.00284646
-0.22798
0.226479
-0.00507303
0.00706984
-0.401783
0.399786
-0.00846904
0.00864681
-0.55258
0.552402
-0.00772224
0.00626273
-0.669895
0.671354
-0.00422046
0.00215045
-0.789537
0.791607
0.000284008
-0.00262667
-0.934055
0.936398
0.0053132
-0.00785675
-1.10901
1.11156
0.0107243
-0.0133822
-1.31998
1.32264
0.0162905
-0.018886
-1.57489
1.57749
0.0211703
-0.0231494
-1.57113
1.57311
0.0245728
-0.0257894
-1.31135
1.31256
0.02664
-0.027326
-1.09872
1.09941
0.0278144
-0.0283309
-0.924382
0.924899
0.028833
-0.0292981
-0.782159
0.782625
0.0291155
-0.0280305
-0.656061
0.654976
0.025482
-0.0209388
-0.507483
0.50294
0.015785
-0.0101323
-0.317654
0.312002
0.00584174
-0.00246263
-0.142982
0.139602
0.000666372
-0.0230433
0.0223769
-0.0284959
0.0285482
-5.2338e-05
-0.000469915
0.00139569
-0.225288
0.224363
-0.00293761
0.00440519
-0.398091
0.396624
-0.00545096
0.00548164
-0.55242
0.552389
-0.00448071
0.00294536
-0.672984
0.674519
-0.000786794
-0.00142203
-0.793668
0.795877
0.00402432
-0.00652173
-0.938642
0.94114
0.00936878
-0.0120389
-1.11401
1.11668
0.0150109
-0.0177232
-1.32521
1.32792
0.0206358
-0.0231716
-1.57998
1.58252
0.0253307
-0.0271205
-1.57495
1.57674
0.0283484
-0.02934
-1.31366
1.31465
0.0299834
-0.0304333
-1.10015
1.1006
0.0306988
-0.0309869
-0.925385
0.925673
0.0312968
-0.0314867
-0.782793
0.782983
0.0310277
-0.029424
-0.653639
0.652035
0.026373
-0.021383
-0.498277
0.493287
0.0160105
-0.0102694
-0.306374
0.300633
0.00594137
-0.00252161
-0.136244
0.132824
0.000688384
-0.021715
0.0210266
-0.0286574
0.0288268
-0.000169402
0.000456927
-0.000143468
-0.223761
0.223447
-0.000664978
0.00152409
-0.395494
0.394635
-0.00210109
0.00188445
-0.552628
0.552845
-0.000731676
-0.000940472
-0.676272
0.677944
0.0032597
-0.00564864
-0.798075
0.800464
0.00846063
-0.0111454
-0.943538
0.946223
0.0141853
-0.017014
-1.11927
1.1221
0.0201328
-0.0229421
-1.33057
1.33338
0.025901
-0.0284041
-1.58496
1.58747
0.0304546
-0.0320604
-1.57839
1.58
0.0330806
-0.0338089
-1.31549
1.31621
0.0342009
-0.0343811
-1.10108
1.10126
0.034404
-0.0344415
-0.925925
0.925962
0.0345521
-0.0343994
-0.782788
0.782635
0.0335839
-0.0313853
-0.650223
0.648025
0.0277742
-0.0222681
-0.488175
0.482669
0.016588
-0.0106417
-0.29487
0.288924
0.00617776
-0.00263712
-0.129388
0.125847
0.000725042
-0.0203368
0.0196118
-0.0290763
0.0293871
-0.00031082
0.00145909
-0.00179074
-0.223491
0.223823
0.00181939
-0.00166969
-0.394135
0.393986
0.00168722
-0.00225948
-0.553431
0.554004
0.0036424
-0.00552211
-0.679895
0.681775
0.00808636
-0.0107166
-0.802842
0.805472
0.0137954
-0.0167168
-0.948804
0.951726
0.0200053
-0.0230419
-1.12485
1.12789
0.0263522
-0.0292829
-1.33611
1.33904
0.0322922
-0.0347437
-1.58986
1.59231
0.0366544
-0.0380408
-1.58143
1.58282
0.0388329
-0.039279
-1.31677
1.31722
0.0394112
-0.0393049
-1.10144
1.10134
0.0390584
-0.0388189
-0.925934
0.925695
0.0387171
-0.0381181
-0.782022
0.781423
0.0368611
-0.0339985
-0.645669
0.642807
0.0297429
-0.0236179
-0.477027
0.470902
0.0175209
-0.0112435
-0.282904
0.276627
0.00654473
-0.00280566
-0.122256
0.118517
0.000775215
-0.0188801
0.0181048
-0.0297691
0.0302515
-0.000482397
0.00271778
-0.00378709
-0.224538
0.225608
0.0046834
-0.00533214
-0.394207
0.394856
0.00606793
-0.00708744
-0.555071
0.55609
0.00877424
-0.010915
-0.683991
0.686131
0.0137863
-0.0167248
-0.80809
0.811028
0.0201541
-0.0233935
-0.954562
0.957801
0.0270131
-0.0303187
-1.13086
1.13417
0.0338688
-0.0369517
-1.3419
1.34498
0.0400368
-0.0424508
-1.59464
1.59706
0.044208
-0.0453345
-1.58401
1.58513
0.0458348
-0.0459762
-1.31747
1.31761
0.0458178
-0.0453853
-1.10118
1.10074
0.0448439
-0.0443072
-0.92534
0.924803
0.0438843
-0.0428394
-0.780358
0.779313
0.041011
-0.037356
-0.639809
0.636154
0.0323384
-0.025462
-0.464616
0.457739
0.0188179
-0.0120716
-0.270223
0.263477
0.00703646
-0.00302293
-0.114694
0.110681
0.000837137
-0.0173186
0.0164814
-0.0308109
0.0315107
-0.000699836
0.00419854
-0.00614734
-0.227111
0.22906
0.00810737
-0.00965038
-0.395937
0.39748
0.0112176
-0.0128227
-0.557778
0.559383
0.0149699
-0.0174731
-0.688678
0.691181
0.0207513
-0.0240724
-0.813949
0.817271
0.0279248
-0.0315398
-0.96096
0.964575
0.0355448
-0.0391634
-1.13741
1.14103
0.0429949
-0.0462567
-1.34799
1.35125
0.0494206
-0.0517713
-1.59934
1.60169
0.0533345
-0.0541545
-1.58605
1.58687
0.0543163
-0.0541117
-1.31746
1.31725
0.0536205
-0.0528232
-1.10019
1.09939
0.0519483
-0.051065
-0.924079
0.923196
0.0502351
-0.0486781
-0.777789
0.776232
0.0461438
-0.0415509
-0.632388
0.627795
0.0356228
-0.0278249
-0.450666
0.442868
0.0204806
-0.0131166
-0.256546
0.249182
0.0076423
-0.00328214
-0.106553
0.102193
0.000908309
-0.0156301
0.0147218
-0.0322853
0.0332715
-0.00098622
0.00607234
-0.00908074
-0.231463
0.234472
0.012275
-0.0148732
-0.399597
0.402195
0.0174139
-0.0197387
-0.561852
0.564177
0.0225021
-0.0255027
-0.694178
0.697179
0.0293348
-0.0331454
-0.820591
0.824402
0.037523
-0.0415936
-0.968116
0.972186
0.0460598
-0.0500451
-1.14459
1.14858
0.0541893
-0.0576222
-1.35443
1.35786
0.0608184
-0.0630337
-1.60387
1.60608
0.0643221
-0.06475
-1.58743
1.58786
0.064514
-0.0638703
-1.31665
1.31601
0.0629919
-0.0617759
-1.09838
1.09716
0.0605292
-0.0592981
-0.922048
0.920817
0.0579294
-0.0557645
-0.774186
0.772021
0.0523882
-0.0466598
-0.623095
0.617366
0.039628
-0.0307027
-0.43483
0.425904
0.0224867
-0.0143505
-0.241578
0.233442
0.00833874
-0.00356988
-0.0976929
0.092924
0.000984069
-0.0137983
0.0128142
-0.0343192
0.0357021
-0.00138283
0.00852649
-0.0128778
-0.237928
0.242279
0.0175548
-0.0213795
-0.405551
0.409376
0.0250445
-0.0282227
-0.567626
0.570804
0.031758
-0.0354036
-0.700771
0.704417
0.0399316
-0.0443598
-0.828219
0.832647
0.0493907
-0.0540203
-0.976203
0.980832
0.0590317
-0.0634196
-1.1525
1.15689
0.067871
-0.0714382
-1.36116
1.36473
0.0745978
-0.076591
-1.60806
1.61006
0.0774986
-0.077418
-1.58796
1.58788
0.0766956
-0.0754794
-1.31485
1.31364
0.0741513
-0.0724636
-1.09562
1.09393
0.0708116
-0.0691454
-0.919206
0.91754
0.0671964
-0.0642782
-0.769335
0.766417
0.0598576
-0.0527408
-0.611527
0.60441
0.0443659
-0.0340669
-0.416697
0.406398
0.0247886
-0.0157247
-0.225015
0.215951
0.00908813
-0.00386585
-0.0879999
0.0827776
0.00105753
-0.0118175
0.01076
-0.0371102
0.0390595
-0.00194926
0.0119554
-0.0180106
-0.247017
0.253072
0.0244768
-0.0297376
-0.414293
0.419553
0.0347345
-0.0389635
-0.575467
0.579696
0.0434917
-0.0479808
-0.708765
0.713254
0.0534109
-0.0586068
-0.837084
0.84228
0.0644114
-0.0696608
-0.985419
0.990669
0.0752288
-0.0799834
-1.16119
1.16594
0.0846549
-0.0882346
-1.36809
1.37167
0.0911783
-0.0927524
-1.61171
1.61328
0.0930924
-0.0923363
-1.58738
1.58663
0.0910002
-0.0891259
-1.31184
1.30996
0.0872603
-0.0850799
-1.09178
1.0896
0.083004
-0.0807314
-0.915354
0.913081
0.0782293
-0.074315
-0.76287
0.758956
0.0686018
-0.0597843
-0.597162
0.588345
0.0497771
-0.0378233
-0.395783
0.383829
0.0272843
-0.0171512
-0.206565
0.196431
0.00982839
-0.00413917
-0.077401
0.0717118
0.00111904
-0.00969654
0.0085775
-0.0409788
0.0438097
-0.00283085
0.0169284
-0.0252351
-0.259454
0.26776
0.0339152
-0.0408983
-0.426497
0.43348
0.047522
-0.053052
-0.585881
0.591411
0.0588588
-0.0644634
-0.718598
0.724202
0.0710505
-0.0771428
-0.847465
0.853557
0.0837603
-0.0895922
-0.995841
1.00167
0.0956129
-0.100587
-1.17052
1.17549
0.105261
-0.108612
-1.37492
1.37827
0.111042
-0.111917
-1.61437
1.61525
0.111434
-0.109779
-1.58534
1.58369
0.107664
-0.10501
-1.30743
1.30478
0.102499
-0.0997409
-1.08674
1.08398
0.0971966
-0.0942317
-0.910108
0.907143
0.0910695
-0.0858952
-0.754285
0.74911
0.0785757
-0.0676719
-0.579338
0.568434
0.0556979
-0.0417887
-0.371554
0.357645
0.0297994
-0.0184929
-0.185985
0.174678
0.0104681
-0.00434696
-0.0658977
0.0597765
0.00115579
-0.00746436
0.00630857
-0.046494
0.0508067
-0.00431266
0.0246305
-0.0359898
-0.276409
0.287768
0.0475254
-0.0568099
-0.443181
0.452466
0.0654498
-0.0725209
-0.59949
0.606561
0.0798784
-0.0869441
-0.730714
0.737779
0.094711
-0.10162
-0.859542
0.86645
0.10889
-0.115089
-1.00733
1.01353
0.121243
-0.126087
-1.18011
1.18496
0.130344
-0.133081
-1.38107
1.38381
0.134598
-0.134435
-1.61544
1.61527
0.132829
-0.130001
-1.58136
1.57853
0.126894
-0.123265
-1.30137
1.29774
0.119999
-0.116571
-1.08035
1.07692
0.113485
-0.109772
-0.903295
0.899582
0.105672
-0.0988604
-0.743004
0.736192
0.0895298
-0.076096
-0.557228
0.543795
0.0618031
-0.045658
-0.343462
0.327317
0.0320714
-0.0195582
-0.163155
0.150642
0.0108843
-0.00443322
-0.0536075
0.0471565
0.0011507
-0.0051752
0.0040245
-0.0547171
0.0620749
-0.00735782
0.0380256
-0.0538691
-0.300014
0.315858
0.0694533
-0.0819453
-0.466019
0.478511
0.0927471
-0.10118
-0.616708
0.625142
0.110052
-0.118388
-0.745416
0.753752
0.127081
-0.134382
-0.87305
0.880351
0.141712
-0.147671
-1.01928
1.02524
0.153292
-0.157391
-1.18914
1.19323
0.1606
-0.16214
-1.3857
1.38724
0.16216
-0.160446
-1.61415
1.61244
0.157298
-0.152989
-1.57485
1.57054
0.148681
-0.143914
-1.29326
1.28849
0.139777
-0.135608
-1.07238
1.06821
0.131842
-0.127293
-0.894736
0.890186
0.121865
-0.112891
-0.728162
0.719188
0.100964
-0.0844231
-0.529788
0.513248
0.0674929
-0.0489889
-0.311023
0.292519
0.0337914
-0.020173
-0.138181
0.124563
0.0109752
-0.00435078
-0.0408204
0.0341959
0.00107906
-0.0029121
0.00183304
-0.0689242
0.0730288
-0.00410461
0.0289824
-0.0428335
-0.334218
0.348069
0.0567392
-0.0682866
-0.49644
0.507987
0.0785311
-0.0880745
-0.637166
0.64671
0.0986726
-0.1085
-0.76154
0.771368
0.119401
-0.128995
-0.886624
0.896217
0.139127
-0.148058
-1.03026
1.03919
0.157309
-0.165123
-1.19623
1.20405
0.172723
-0.178547
-1.38757
1.39339
0.183359
-0.185945
-1.60947
1.61205
0.186279
-0.184933
-1.56514
1.56379
0.182538
-0.179217
-1.28276
1.27944
0.176234
-0.172712
-1.06259
1.05906
0.169567
-0.164963
-0.88377
0.879166
0.157514
-0.14436
-0.708496
0.695342
0.126646
-0.103098
-0.495963
0.472415
0.0801439
-0.056067
-0.273937
0.24986
0.0373556
-0.0214725
-0.111558
0.0956748
0.0112277
-0.00424361
-0.0280608
0.0210767
0.000973802
-0.000758768
-0.000215034
-0.0803537
0.0784367
0.00191701
0.00762239
-0.0165279
-0.364591
0.373497
0.0270513
-0.035369
-0.524097
0.532415
0.0436781
-0.0515358
-0.658927
0.666785
0.0611932
-0.0702722
-0.780667
0.789746
0.0799589
-0.0887296
-0.905155
0.913926
0.0979702
-0.105766
-1.0478
1.0556
0.114004
-0.120564
-1.2116
1.21816
0.126852
-0.131325
-1.3988
1.40327
0.134398
-0.135428
-1.61371
1.61474
0.134253
-0.131382
-1.56167
1.5588
0.127444
-0.122495
-1.27545
1.27051
0.11791
-0.112851
-1.05365
1.04859
0.10805
-0.102079
-0.869733
0.863762
0.0942998
-0.0827446
-0.678444
0.666889
0.0693278
-0.0533313
-0.447424
0.431428
0.0392193
-0.0260675
-0.226106
0.212954
0.0167205
-0.00933821
-0.0806602
0.0732779
0.00477142
-0.00177021
-0.0143599
0.0113587
0.000385785
0.00141837
-0.00180416
-0.0817684
0.0789176
0.00285086
-0.00119289
-0.00386226
-0.385154
0.39021
0.01081
-0.0168456
-0.544556
0.550591
0.0229588
-0.0297391
-0.677211
0.683992
0.0380965
-0.0459515
-0.797895
0.80575
0.0545471
-0.0621685
-0.921863
0.929485
0.0699437
-0.0768603
-1.0632
1.07012
0.0839398
-0.0896346
-1.22425
1.22994
0.094602
-0.0978599
-1.40702
1.41028
0.0998826
-0.0997235
-1.61497
1.61481
0.0973603
-0.0933011
-1.55518
1.55112
0.0884158
-0.0826587
-1.26517
1.25941
0.076936
-0.0708025
-1.04197
1.03583
0.0649847
-0.0582429
-0.854041
0.847299
0.0512026
-0.041725
-0.652162
0.642685
0.0321337
-0.0220354
-0.4138
0.403701
0.0146156
-0.00887799
-0.199205
0.193468
0.00539846
-0.00302451
-0.0657616
0.0633877
0.00158369
-0.00062542
-0.00813633
0.00717806
0.000139541
0.00244192
-0.00258146
-0.0805691
0.0778072
0.00276188
-0.00492692
0.00241991
-0.398774
0.401281
0.00205701
-0.00657618
-0.559703
0.564222
0.0117066
-0.0173757
-0.692215
0.697884
0.0245331
-0.0312583
-0.812936
0.819662
0.0385783
-0.0450933
-0.936525
0.94304
0.0521179
-0.0579476
-1.07657
1.0824
0.0640711
-0.0685192
-1.23519
1.23963
0.0726309
-0.0751396
-1.41324
1.41575
0.0761911
-0.075001
-1.61414
1.61295
0.0720791
-0.0675174
-1.54643
1.54187
0.0621803
-0.0555428
-1.25324
1.2466
0.0492837
-0.0424505
-1.02845
1.02162
0.0358723
-0.0289356
-0.83751
0.830573
0.0222785
-0.014889
-0.630258
0.622868
0.00852341
-0.00338159
-0.392489
0.387347
0.000710173
0.000507977
-0.186271
0.185052
-0.000824312
0.000551241
-0.0600418
0.0603148
-0.000334082
0.000112251
-0.0056862
0.00590803
-3.8446e-05
0.00300555
-0.00296711
-0.0790995
0.0766684
0.00243112
-0.00611163
0.00517287
-0.407906
0.408845
-0.00181667
-0.00153143
-0.571794
0.575142
0.00561553
-0.0107426
-0.704796
0.709923
0.0167527
-0.0226606
-0.825665
0.831573
0.0289973
-0.034658
-0.949077
0.954738
0.0406796
-0.0458534
-1.08808
1.09325
0.0510012
-0.0550311
-1.24391
1.24794
0.0584331
-0.0603486
-1.41784
1.41976
0.0608124
-0.0591475
-1.61154
1.60987
0.0558135
-0.0506777
-1.53656
1.53143
0.0450394
-0.0382351
-1.23978
1.23297
0.031725
-0.0244564
-1.01387
1.0066
0.0177845
-0.01075
-0.821212
0.814177
0.00479256
0.00110282
-0.612888
0.606993
-0.00519589
0.00734059
-0.379878
0.377733
-0.00747856
0.00638907
-0.181694
0.182784
-0.00490071
0.00316962
-0.0598109
0.0615419
-0.00184179
0.000736422
-0.00572185
0.00682722
-0.000192714
0.00315749
-0.00296478
-0.0777486
0.0756789
0.0020697
-0.00602943
0.00557626
-0.414202
0.414655
-0.00356232
0.000835642
-0.581123
0.58385
0.00316213
-0.0075593
-0.71544
0.719838
0.0127268
-0.0178509
-0.836673
0.841797
0.0234794
-0.0285417
-0.96003
0.965092
0.0340529
-0.0385784
-1.09814
1.10266
0.0431845
-0.0467682
-1.25166
1.25525
0.0496819
-0.0512081
-1.42137
1.42289
0.0512755
-0.0496703
-1.60806
1.60646
0.0460447
-0.0408531
-1.52577
1.52058
0.0351071
-0.0282659
-1.22592
1.21908
0.0219744
-0.0145889
-0.998828
0.991442
0.00790677
-0.00108999
-0.805395
0.798579
-0.00443898
0.00919519
-0.59866
0.593904
-0.0120906
0.0130109
-0.372534
0.371614
-0.0118062
0.00962955
-0.181844
0.184021
-0.00740672
0.00488572
-0.0626142
0.0651352
-0.00287464
0.00120515
-0.00765618
0.00932567
-0.000323573
0.0028812
-0.00255763
-0.0767419
0.075137
0.0016049
-0.00516044
0.00502505
-0.418919
0.419054
-0.00334645
0.00128785
-0.589292
0.591351
0.00246365
-0.00646868
-0.724671
0.728676
0.0113782
-0.0157891
-0.846525
0.850936
0.0207282
-0.0252134
-0.970103
0.974588
0.0304399
-0.0345415
-1.10721
1.11131
0.038621
-0.0419929
-1.25863
1.26201
0.0450295
-0.0463658
-1.42441
1.42574
0.0464193
-0.0446529
-1.60441
1.60265
0.0413475
-0.036058
-1.51517
1.50988
0.0306822
-0.0242558
-1.21211
1.20569
0.0180714
-0.0111174
-0.983867
0.976913
0.00459867
0.00218583
-0.790331
0.783547
-0.00723617
0.0114595
-0.586413
0.582189
-0.013959
0.0145014
-0.367642
0.3671
-0.0132992
0.0109585
-0.184116
0.186457
-0.00852502
0.00570063
-0.0669793
0.0698037
-0.00341576
0.00148004
-0.0106665
0.0126022
-0.000411214
0.00231705
-0.00190583
-0.0762448
0.0749997
0.00124514
-0.00407157
0.00405587
-0.422706
0.422722
-0.0024942
0.000534107
-0.596418
0.598378
0.00302255
-0.00663696
-0.732972
0.736586
0.0108468
-0.0150946
-0.855306
0.859554
0.0196552
-0.0242816
-0.97886
0.983486
0.0287723
-0.0326845
-1.1155
1.11941
0.0368886
-0.040022
-1.26524
1.26838
0.0425701
-0.0442929
-1.42697
1.42869
0.0444926
-0.043015
-1.60093
1.59946
0.0399069
-0.0352506
-1.50485
1.5002
0.030237
-0.024133
-1.19899
1.19289
0.0183102
-0.0116736
-0.969673
0.963036
0.0055279
0.000727605
-0.775996
0.769741
-0.00585176
0.00984338
-0.575171
0.571179
-0.0120913
0.0129964
-0.363784
0.362879
-0.0123016
0.0102795
-0.186551
0.188574
-0.00812548
0.00552342
-0.0716221
0.0742242
-0.00337669
0.0015044
-0.0140566
0.0159289
-0.000434882
0.00159905
-0.00116417
-0.0762938
0.0752581
0.0010357
-0.00277128
0.00250472
-0.426138
0.426404
-0.00113245
-0.000837101
-0.602978
0.604947
0.00412854
-0.00763433
-0.740702
0.744208
0.0116819
-0.0155313
-0.863612
0.867462
0.0202121
-0.0240418
-0.987513
0.991343
0.0285038
-0.0322474
-1.12348
1.12722
0.0363404
-0.0396663
-1.27148
1.2748
0.0425095
-0.0440198
-1.43016
1.43167
0.0445746
-0.043532
-1.59793
1.59688
0.0411085
-0.0367569
-1.49546
1.49111
0.0321354
-0.0263965
-1.18691
1.18117
0.0209747
-0.0147489
-0.956115
0.949889
0.00917071
-0.00320804
-0.762694
0.756732
-0.00171478
0.00582917
-0.564672
0.560557
-0.0082167
0.00927909
-0.359578
0.358515
-0.00925891
0.00803059
-0.188289
0.189517
-0.0065187
0.00453029
-0.0756518
0.0776402
-0.00282578
0.00130334
-0.0171713
0.0186937
-0.000393055
0.000867115
-0.00047406
-0.0766422
0.0759211
0.000721036
-0.00161299
0.000865899
-0.429672
0.430419
0.000325341
-0.00242949
-0.608812
0.610916
0.00541651
-0.00880522
-0.74792
0.751309
0.0126943
-0.0166777
-0.871189
0.875173
0.0207435
-0.0247432
-0.995373
0.999372
0.029176
-0.0327194
-1.13138
1.13493
0.0369216
-0.0402203
-1.27793
1.28123
0.043135
-0.0451966
-1.43359
1.43566
0.0462751
-0.0455484
-1.5959
1.59517
0.0433494
-0.0396645
-1.48693
1.48325
0.0355659
-0.0302524
-1.17535
1.17004
0.0252209
-0.0197521
-0.943626
0.938158
0.0142756
-0.00881044
-0.750119
0.744654
0.00401122
0.000404511
-0.55464
0.550224
-0.00300637
0.00460433
-0.354745
0.353147
-0.00515012
0.0048741
-0.188793
0.189069
-0.00409917
0.00295716
-0.0783592
0.0795012
-0.00192726
0.000930742
-0.019518
0.0205146
-0.000296611
0.000249937
4.66744e-05
-0.077406
0.0768484
0.000557563
-0.000633459
-7.17167e-05
-0.433453
0.434159
0.00181793
-0.00378637
-0.614752
0.616721
0.00696149
-0.0102374
-0.75465
0.757926
0.0139919
-0.0175831
-0.878837
0.882428
0.0217848
-0.0254817
-1.00336
1.00706
0.0298773
-0.0338765
-1.13892
1.14292
0.0377376
-0.0413817
-1.28457
1.28821
0.0447445
-0.0469278
-1.43761
1.4398
0.048414
-0.0484619
-1.59466
1.59471
0.0466914
-0.0436268
-1.47943
1.47637
0.0398184
-0.035138
-1.16488
1.1602
0.0307203
-0.0255994
-0.932341
0.92722
0.0206111
-0.0153026
-0.738359
0.73305
0.0105722
-0.00587922
-0.544374
0.539681
0.0026524
-0.000378304
-0.349052
0.346777
-0.000962852
0.00149877
-0.187615
0.187079
-0.00153038
0.0012378
-0.0794051
0.0796977
-0.000880356
0.000472312
-0.0208142
0.0212222
-0.000169366
-0.000169005
0.000338371
-0.0784548
0.0780769
0.000377926
0.000435046
-0.001336
-0.437398
0.438299
0.00296266
-0.00524249
-0.620319
0.622599
0.00836587
-0.0115027
-0.761155
0.764292
0.0153588
-0.0188131
-0.886004
0.889458
0.0228696
-0.0267007
-1.01123
1.01506
0.0310215
-0.0350015
-1.14677
1.15075
0.0391026
-0.0427953
-1.29177
1.29547
0.0463673
-0.0493242
-1.44227
1.44523
0.0512744
-0.051624
-1.59468
1.59503
0.0505436
-0.0478856
-1.47323
1.47058
0.0447695
-0.0407985
-1.15559
1.15162
0.0365618
-0.0317314
-0.921842
0.917011
0.0269416
-0.0216013
-0.727055
0.721714
0.0169261
-0.0119085
-0.534037
0.529019
0.00817662
-0.00505091
-0.342241
0.339115
0.00304766
-0.00164918
-0.184747
0.183348
0.000744715
-0.000198857
-0.0787881
0.0782422
-6.5452e-05
0.000145136
-0.0209973
0.0209176
-9.06798e-05
-0.00034082