/*--------------------------------*- C++ -*----------------------------------*\
  =========                 |
  \\      /  F ield         | OpenFOAM: The Open Source CFD Toolbox
   \\    /   O peration     | Website:  https://openfoam.org
    \\  /    A nd           | Version:  6
     \\/     M anipulation  |
\*---------------------------------------------------------------------------*/
FoamFile
{
    version     2.0;
    format      ascii;
    class       surfaceScalarField;
    location    "75.3";
    object      phi;
}
// * * * * * * * * * * * * * * * * * * * * * * * * * * * * * * * * * * * * * //

dimensions      [0 3 -1 0 0 0 0];

internalField   nonuniform List<scalar> 
17370
(
-0.0900005
0.0898497
0.289162
-0.0714634
0.0537536
0.364485
-0.0381205
0.0276915
0.426597
-0.0196398
0.0146069
0.504285
-0.0107651
0.00827482
0.601892
-0.00627523
0.00489886
0.720434
-0.00373512
0.00289472
0.863747
-0.00215336
0.00159427
1.03601
-0.00107762
0.000665097
1.24292
-0.000257511
-0.000136301
1.49158
0.000515653
-0.000926165
1.4916
0.00132466
-0.00181477
1.24318
0.0023431
-0.00304902
1.03634
0.0038622
-0.00500545
0.86405
0.00637093
-0.00836347
0.72105
0.0108484
-0.0146838
0.60305
0.0197103
-0.0277546
0.507483
0.0381763
-0.0538007
0.431792
0.071502
-0.0898755
0.365149
0.0900161
0.198995
-0.128136
0.0882257
0.0399102
-0.364598
0.353378
-0.0746736
0.0858943
-0.446476
0.45432
-0.0843917
0.0765478
-0.52119
0.529901
-0.0684508
0.0597397
-0.612788
0.621568
-0.0515511
0.0427716
-0.726894
0.734164
-0.0353109
0.0280413
-0.867475
0.872591
-0.0224403
0.0173245
-1.03847
1.04192
-0.0135145
0.0100645
-1.2446
1.24703
-0.00745354
0.00502022
-1.49262
1.4946
-0.00307194
0.00109271
-1.4925
1.49423
0.000584224
-0.00230916
-1.24398
1.24586
0.00421299
-0.00609833
-1.03751
1.04004
0.00845561
-0.0109848
-0.866101
0.869827
0.0143373
-0.0180637
-0.724391
0.729934
0.0231017
-0.0286443
-0.608698
0.616112
0.0358589
-0.0432728
-0.514897
0.523041
0.0520022
-0.0601459
-0.439856
0.447915
0.0688085
-0.0768669
-0.375296
0.37674
0.0846646
-0.0861086
-0.25733
0.222478
0.0748191
-0.0399665
-0.0685185
0.0586927
0.00982583
-0.0518112
0.0583942
-0.374127
0.367544
-0.0574781
0.0537256
-0.453594
0.457347
-0.0486352
0.0446823
-0.527947
0.5319
-0.0408419
0.0372024
-0.621564
0.625203
-0.0330998
0.0290232
-0.735349
0.739426
-0.0244519
0.0202917
-0.874341
0.878501
-0.0159448
0.0122498
-1.04349
1.04719
-0.0085109
0.00533636
-1.24856
1.25174
-0.00200604
-0.00106852
-1.49666
1.49973
0.00411683
-0.00738377
-1.4972
1.50047
0.0104649
-0.0140717
-1.25007
1.25368
0.0176286
-0.0218152
-1.04592
1.05011
0.0258366
-0.0302726
-0.877762
0.882198
0.0342416
-0.0382387
-0.7399
0.743897
0.0417886
-0.0455357
-0.626773
0.630521
0.0494082
-0.0544219
-0.53481
0.539824
0.0580908
-0.058902
-0.457474
0.458285
0.0521958
-0.0319917
-0.33575
0.315546
0.00988851
-0.0683447
0.0584562
-0.0529423
0.0489474
0.00399484
-0.0331574
0.0437004
-0.358112
0.347569
-0.0473968
0.046768
-0.459286
0.459915
-0.0437106
0.0403563
-0.535803
0.539157
-0.0365821
0.0332766
-0.628529
0.631835
-0.029837
0.0268037
-0.74265
0.745683
-0.0235434
0.0204354
-0.882021
0.885129
-0.0169034
0.0135224
-1.05078
1.05416
-0.00972708
0.00618634
-1.25517
1.25871
-0.00221463
-0.00158454
-1.50324
1.50704
0.00535107
-0.00922574
-1.50414
1.50801
0.0126345
-0.0162467
-1.25742
1.26103
0.0194355
-0.0227429
-1.05392
1.05723
0.0256542
-0.0287193
-0.885688
0.888753
0.0315945
-0.0348779
-0.747155
0.750438
0.0380518
-0.0416913
-0.634304
0.637944
0.0449299
-0.0478555
-0.544133
0.547058
0.0483457
-0.0444545
-0.456569
0.452678
0.0336791
-0.0162247
-0.296178
0.278723
0.00407271
-0.0526357
0.048563
-0.0458705
0.0433763
0.00249427
-0.0227985
0.0331729
-0.336882
0.326508
-0.0389904
0.0400045
-0.459601
0.458587
-0.0388118
0.0365229
-0.541877
0.544166
-0.033853
0.0312547
-0.634886
0.637485
-0.028189
0.0252874
-0.748729
0.751631
-0.0220205
0.0190249
-0.888084
0.891079
-0.0157179
0.0126166
-1.05729
1.06039
-0.00908821
0.00567729
-1.26217
1.26558
-0.00171219
-0.00217318
-1.51093
1.51481
0.0060152
-0.00985175
-1.5119
1.51574
0.0130892
-0.0163787
-1.26446
1.26775
0.0192289
-0.0222414
-1.06033
1.06334
0.0249759
-0.0279809
-0.891806
0.894811
0.0306674
-0.0335188
-0.753643
0.756494
0.0359367
-0.0384247
-0.641008
0.643496
0.0405574
-0.041545
-0.54886
0.549847
0.0403164
-0.0341859
-0.447393
0.441263
0.0234693
-0.0102427
-0.263497
0.250271
0.00259055
-0.0453985
0.0428079
-0.0413026
0.0395372
0.00176534
-0.0167344
0.0259786
-0.31666
0.307416
-0.0325774
0.0347124
-0.456991
0.454856
-0.0342871
0.0326133
-0.546145
0.547819
-0.030429
0.0283305
-0.639791
0.641889
-0.0258958
0.0234954
-0.754277
0.756677
-0.0206339
0.017842
-0.893976
0.896768
-0.0146026
0.0115303
-1.06344
1.06651
-0.00803655
0.00470779
-1.2689
1.27223
-0.000872239
-0.00286253
-1.5186
1.52234
0.0065418
-0.0102127
-1.51947
1.52314
0.0133195
-0.0165085
-1.27099
1.27418
0.0192605
-0.0221237
-1.06637
1.06923
0.0245813
-0.0271058
-0.897624
0.900148
0.0292286
-0.0313868
-0.75894
0.761099
0.0332545
-0.0352048
-0.645647
0.647597
0.0366522
-0.0367987
-0.55036
0.550507
0.0343346
-0.0272774
-0.434588
0.42753
0.0175721
-0.00741593
-0.238729
0.228573
0.00188296
-0.0406269
0.0387439
-0.038017
0.0366901
0.00132683
-0.0127684
0.0207031
-0.298832
0.290897
-0.0274418
0.0303557
-0.452301
0.449387
-0.0305528
0.0294271
-0.549253
0.550378
-0.0274282
0.0255063
-0.643927
0.645849
-0.0233005
0.0211581
-0.758918
0.761061
-0.0186375
0.0161489
-0.899346
0.901834
-0.0132006
0.0103153
-1.06945
1.07234
-0.00694636
0.00369893
-1.27549
1.27874
5.38042e-05
-0.00368568
-1.52599
1.52962
0.00724805
-0.0107935
-1.52673
1.53028
0.0137624
-0.0167505
-1.2773
1.28029
0.0192362
-0.0217142
-1.07197
1.07444
0.0237837
-0.0258804
-0.902432
0.904529
0.0276716
-0.0295256
-0.763077
0.764931
0.0311554
-0.0328703
-0.649411
0.651126
0.0336659
-0.0330786
-0.55029
0.549703
0.0296939
-0.0223273
-0.420262
0.412895
0.0137999
-0.00575439
-0.219573
0.211527
0.0014699
-0.0370929
0.035623
-0.0355318
0.0345106
0.00102115
-0.00996553
0.0166644
-0.283606
0.276908
-0.02313
0.0264896
-0.446231
0.442871
-0.0272593
0.0265503
-0.551288
0.551997
-0.0247828
0.0229906
-0.647747
0.64954
-0.0209117
0.0188873
-0.763137
0.765162
-0.0165068
0.0141709
-0.904177
0.906513
-0.0114218
0.00872648
-1.07506
1.07775
-0.0055571
0.00246197
-1.28187
1.28497
0.00115781
-0.00467651
-1.53318
1.5367
0.00810899
-0.0114708
-1.53372
1.53708
0.0142198
-0.0169176
-1.28314
1.28583
0.0191185
-0.0212862
-1.07682
1.07899
0.0231043
-0.024961
-0.906502
0.908359
0.0265506
-0.0281932
-0.766673
0.768316
0.0296232
-0.0309982
-0.652697
0.654072
0.0312982
-0.0299745
-0.548762
0.547438
0.0259659
-0.0186736
-0.40554
0.398247
0.0112296
-0.00465481
-0.204286
0.197711
0.00119512
-0.0343058
0.0331107
-0.033615
0.0328214
0.000793658
-0.00788473
0.0135056
-0.270778
0.265157
-0.0194784
0.0230281
-0.439407
0.435857
-0.0242688
0.023804
-0.552617
0.553082
-0.0222999
0.0206147
-0.651327
0.653012
-0.0186276
0.0166857
-0.767137
0.769079
-0.0143934
0.0121418
-0.90874
0.910992
-0.00949317
0.00690628
-1.08032
1.08291
-0.00387693
0.000924255
-1.28794
1.29089
0.00252487
-0.00587019
-1.54011
1.54345
0.00911008
-0.0122441
-1.54031
1.54344
0.0147753
-0.0172306
-1.28841
1.29087
0.0192133
-0.0211496
-1.08112
1.08306
0.0227661
-0.0244151
-0.910115
0.911764
0.0258225
-0.0272721
-0.769854
0.771304
0.0285046
-0.0294979
-0.655246
0.656239
0.0294219
-0.0274258
-0.545779
0.543783
0.0230095
-0.0159762
-0.391079
0.384045
0.0094298
-0.00389587
-0.191706
0.186172
0.00100504
-0.032022
0.0310169
-0.0321257
0.0315088
0.000616877
-0.00627611
0.0109751
-0.260025
0.255326
-0.0163498
0.0198922
-0.432311
0.428769
-0.0214492
0.0212063
-0.553473
0.553716
-0.0199303
0.0183008
-0.654716
0.656345
-0.0163661
0.0144704
-0.770986
0.772882
-0.0122338
0.0100378
-0.913139
0.915335
-0.00745416
0.00493414
-1.08538
1.0879
-0.00199197
-0.000857604
-1.29374
1.29659
0.00415671
-0.00732511
-1.54667
1.54984
0.010365
-0.0132801
-1.54644
1.54936
0.0156165
-0.0178605
-1.29322
1.29546
0.0196444
-0.0213589
-1.08499
1.0867
0.02278
-0.024231
-0.913313
0.914764
0.0254725
-0.0267468
-0.772658
0.773933
0.0278346
-0.0284037
-0.657024
0.657593
0.0279529
-0.0253868
-0.541513
0.538947
0.0207154
-0.0140028
-0.377181
0.370468
0.00816145
-0.00336825
-0.181045
0.176252
0.000873567
-0.0300869
0.0292133
-0.0309724
0.0304991
0.000473282
-0.00497836
0.00888136
-0.251052
0.247149
-0.0136136
0.0170002
-0.425314
0.421927
-0.0187337
0.0186772
-0.553909
0.553966
-0.0175898
0.0159929
-0.658023
0.65962
-0.0140768
0.0121924
-0.774754
0.776639
-0.00997011
0.00779388
-0.917432
0.919608
-0.00524277
0.00276444
-1.09032
1.0928
0.000116019
-0.00288931
-1.29934
1.30212
0.0060745
-0.00910121
-1.5529
1.55593
0.0119714
-0.0146889
-1.55214
1.55486
0.0168381
-0.0188715
-1.2976
1.29964
0.020456
-0.0219514
-1.08844
1.08993
0.0231864
-0.0244545
-0.916117
0.917385
0.0255456
-0.0266592
-0.775116
0.776229
0.0275444
-0.0277506
-0.657976
0.658182
0.0268741
-0.0238238
-0.536145
0.533095
0.0189923
-0.0125884
-0.363926
0.357522
0.00727941
-0.00300801
-0.17175
0.167479
0.000785376
-0.0283922
0.0276068
-0.0300947
0.0297432
0.000351463
-0.00388829
0.00709064
-0.243622
0.240419
-0.0111686
0.0142889
-0.418691
0.415571
-0.0160715
0.0161636
-0.554001
0.553909
-0.0151507
0.0136218
-0.661255
0.662784
-0.0116945
0.00978689
-0.778512
0.780419
-0.00753886
0.00534653
-0.921691
0.923884
-0.00279051
0.000322095
-1.09517
1.09764
0.00252829
-0.00525188
-1.3048
1.30752
0.00835064
-0.0112591
-1.55886
1.56176
0.0139778
-0.0165092
-1.55744
1.55997
0.018477
-0.0203029
-1.30157
1.30339
0.0216887
-0.0229666
-1.09148
1.09275
0.0240216
-0.025117
-0.918555
0.919651
0.0260661
-0.0270164
-0.777246
0.778196
0.0276414
-0.0275523
-0.65825
0.658161
0.0262282
-0.0227322
-0.52983
0.526334
0.0177782
-0.0116236
-0.351267
0.345112
0.0066944
-0.00277583
-0.163412
0.159493
0.000730663
-0.026857
0.0261263
-0.0294538
0.0292114
0.000242461
-0.00292999
0.00549865
-0.237557
0.234988
-0.00892259
0.0116941
-0.412648
0.409877
-0.0134115
0.0135776
-0.553841
0.553675
-0.0126018
0.0111084
-0.664377
0.66587
-0.00914718
0.00718822
-0.782321
0.78428
-0.00488
0.00263684
-0.925985
0.928228
-3.42556e-05
-0.00246306
-1.10002
1.10252
0.0053238
-0.00803091
-1.31016
1.31287
0.0110752
-0.0138909
-1.56458
1.56739
0.0164778
-0.0188384
-1.56238
1.56474
0.0206373
-0.0222663
-1.30512
1.30675
0.0234571
-0.0245139
-1.09411
1.09517
0.0253825
-0.0262964
-0.92064
0.921553
0.0270942
-0.0278795
-0.779017
0.779802
0.0282162
-0.0278237
-0.657926
0.657533
0.0260354
-0.0221062
-0.522645
0.518716
0.017027
-0.0110345
-0.33907
0.333077
0.00634883
-0.002646
-0.155709
0.152006
0.000702752
-0.0254177
0.0247149
-0.0290284
0.0288897
0.00013866
-0.00203993
0.00401262
-0.23274
0.230767
-0.00677741
0.0091293
-0.407345
0.404993
-0.0106727
0.0108336
-0.553586
0.553425
-0.0098604
0.00836422
-0.667461
0.668957
-0.00634028
0.00429749
-0.786237
0.788279
-0.00188929
-0.000441765
-0.930383
0.932714
0.00313081
-0.00569292
-1.10493
1.10749
0.00860363
-0.0113293
-1.3155
1.31823
0.0143529
-0.0170991
-1.57013
1.57287
0.0195683
-0.0217648
-1.56697
1.56916
0.0233944
-0.0248216
-1.30826
1.30969
0.0258067
-0.0266311
-1.09635
1.09717
0.0273025
-0.0280209
-0.92235
0.923069
0.0286642
-0.0293077
-0.78043
0.781073
0.0293234
-0.0285206
-0.656945
0.656142
0.026274
-0.0219179
-0.514619
0.510263
0.0166854
-0.0107574
-0.327154
0.321226
0.00619622
-0.00259771
-0.148381
0.144783
0.000696077
-0.0240238
0.0233277
-0.0288112
0.0287775
3.37451e-05
-0.00117192
0.00256265
-0.229107
0.227716
-0.0046535
0.00652104
-0.402916
0.401049
-0.0077855
0.00785728
-0.553399
0.553327
-0.00683718
0.00529753
-0.670589
0.672129
-0.0031685
0.0010075
-0.790323
0.792484
0.00153994
-0.00399607
-0.934955
0.937411
0.00681479
-0.00948268
-1.10998
1.11264
0.0124868
-0.0152664
-1.32089
1.32367
0.0183011
-0.0210005
-1.57554
1.57824
0.023367
-0.0254066
-1.57122
1.57326
0.0268706
-0.0280962
-1.31099
1.31222
0.0288752
-0.0294634
-1.09816
1.09874
0.029931
-0.0304425
-0.923668
0.924179
0.0309118
-0.031321
-0.781477
0.781886
0.0310452
-0.029768
-0.655149
0.653871
0.0270167
-0.0221933
-0.505735
0.500912
0.0167441
-0.0107667
-0.315317
0.30934
0.00621598
-0.00262185
-0.141213
0.137619
0.000708402
-0.0226343
0.0219259
-0.0288056
0.0288792
-7.35773e-05
-0.000284483
0.00108372
-0.226639
0.22584
-0.00246768
0.00378273
-0.399488
0.398173
-0.00466627
0.00456647
-0.553455
0.553554
-0.00344545
0.00180809
-0.673852
0.67549
0.000458177
-0.00277704
-0.794647
0.796965
0.00551168
-0.00813916
-0.939779
0.942407
0.0111382
-0.0139558
-1.11524
1.11806
0.0170982
-0.0199704
-1.32639
1.32927
0.0230553
-0.0257379
-1.58087
1.58355
0.0280199
-0.0299082
-1.57516
1.57705
0.0312011
-0.0322146
-1.3133
1.31431
0.0327819
-0.0331302
-1.09952
1.09986
0.0333853
-0.0336762
-0.924562
0.924852
0.0339438
-0.0340409
-0.781971
0.782068
0.0334462
-0.0316147
-0.652405
0.650573
0.0283044
-0.0229506
-0.495907
0.490553
0.0171979
-0.0110458
-0.303326
0.297174
0.00639417
-0.00271158
-0.134009
0.130327
0.000737712
-0.021212
0.0204743
-0.0290276
0.0292267
-0.000199165
0.000660156
-0.000493135
-0.225363
0.225196
-0.000135502
0.000820833
-0.397188
0.396503
-0.0012141
0.00084957
-0.553933
0.554298
0.000443937
-0.00223979
-0.677367
0.679163
0.00470038
-0.00722834
-0.799289
0.801817
0.0102065
-0.0130551
-0.944949
0.947798
0.0162879
-0.0193034
-1.12081
1.12383
0.0226345
-0.0256385
-1.33209
1.3351
0.0288042
-0.0314832
-1.58616
1.58884
0.0336829
-0.0354147
-1.57879
1.58052
0.0365335
-0.0373288
-1.31515
1.31595
0.0376751
-0.0377641
-1.10039
1.10048
0.0377868
-0.0378435
-0.924995
0.925052
0.0379187
-0.0376149
-0.781813
0.781509
0.0366149
-0.0341447
-0.648562
0.646092
0.0301924
-0.0242096
-0.484989
0.479006
0.0180423
-0.0115795
-0.290923
0.28446
0.00671714
-0.00285953
-0.126586
0.122728
0.000781582
-0.0197241
0.0189426
-0.0295071
0.0298541
-0.000347072
0.00171439
-0.00218591
-0.225374
0.225845
0.00240494
-0.00244664
-0.39617
0.396212
0.00267806
-0.00341556
-0.555055
0.555793
0.0049472
-0.00696584
-0.681262
0.683281
0.00969395
-0.0124928
-0.804349
0.807148
0.0157792
-0.0189086
-0.950564
0.953693
0.0224408
-0.0257111
-1.12679
1.13006
0.0292861
-0.0324641
-1.33806
1.34124
0.0357467
-0.0384433
-1.59145
1.59415
0.0405639
-0.0421267
-1.58208
1.58365
0.0430513
-0.0436165
-1.31652
1.31709
0.0437324
-0.0435415
-1.10073
1.10054
0.0433099
-0.0431156
-0.924913
0.924719
0.042969
-0.0421702
-0.780827
0.780028
0.0406756
-0.0374555
-0.643457
0.640237
0.0327468
-0.026
-0.472771
0.466024
0.0192813
-0.0123592
-0.277831
0.270909
0.00717506
-0.00305971
-0.118773
0.114657
0.000837924
-0.0181426
0.0173046
-0.0302731
0.0307982
-0.000525125
0.00300602
-0.00425138
-0.22673
0.227975
0.00534886
-0.0061946
-0.396622
0.397468
0.00715995
-0.00837582
-0.557056
0.558272
0.0102533
-0.0125686
-0.685668
0.687983
0.0156439
-0.018786
-0.809948
0.81309
0.02246
-0.0259413
-0.95675
0.960231
0.0298454
-0.0334297
-1.1333
1.13688
0.0373051
-0.0406993
-1.34438
1.34778
0.0441307
-0.0468569
-1.59678
1.5995
0.0488926
-0.0502677
-1.58502
1.5864
0.0509679
-0.0512884
-1.31737
1.31769
0.0511521
-0.0506577
-1.10048
1.09999
0.0501557
-0.0496945
-0.924269
0.923808
0.0491992
-0.0479342
-0.778914
0.777649
0.0457771
-0.041651
-0.636844
0.632718
0.0360308
-0.0283436
-0.458964
0.451276
0.0209113
-0.0133693
-0.263748
0.256206
0.00775266
-0.00330305
-0.110407
0.105957
0.000903555
-0.0164438
0.0155402
-0.0314005
0.03215
-0.000749532
0.0045239
-0.0066565
-0.229647
0.23178
0.00884469
-0.0106057
-0.39877
0.400531
0.0124113
-0.0142276
-0.560186
0.562002
0.0165954
-0.0193108
-0.690744
0.69346
0.0228486
-0.0264234
-0.816235
0.81981
0.0305766
-0.0344877
-0.96365
0.967561
0.038843
-0.0428051
-1.14044
1.1444
0.0470351
-0.050674
-1.35114
1.35478
0.0542591
-0.0569949
-1.60214
1.60488
0.0589111
-0.0600565
-1.58756
1.5887
0.0604992
-0.0605477
-1.31762
1.31767
0.0601387
-0.0593113
-1.0996
1.09878
0.0585116
-0.0577638
-0.92301
0.922262
0.0568403
-0.0550218
-0.776109
0.77429
0.0520593
-0.0468222
-0.628406
0.623169
0.0400876
-0.031239
-0.443199
0.43435
0.0229063
-0.0145764
-0.248349
0.240019
0.00842235
-0.00357428
-0.10134
0.0964922
0.000973328
-0.0146113
0.013638
-0.0329724
0.034017
-0.0010446
0.00644122
-0.00964721
-0.234368
0.237574
0.0130915
-0.015922
-0.402878
0.405709
0.0187093
-0.0212525
-0.564726
0.567269
0.0242532
-0.0274981
-0.69671
0.699954
0.0316307
-0.0357461
-0.823395
0.82751
0.0404895
-0.044924
-0.971424
0.975859
0.0498189
-0.0542203
-1.14834
1.15274
0.0588474
-0.0627466
-1.35837
1.36227
0.0664777
-0.0691944
-1.6075
1.61022
0.0709448
-0.0718012
-1.5896
1.59046
0.0719147
-0.0716224
-1.31716
1.31687
0.0709168
-0.0697224
-1.09801
1.09682
0.068594
-0.0675462
-0.921105
0.920057
0.0660674
-0.0635896
-0.772226
0.769748
0.0596445
-0.0530303
-0.617727
0.611112
0.0449195
-0.0346405
-0.425019
0.41474
0.025201
-0.0159177
-0.2313
0.222017
0.00913771
-0.00384968
-0.0914551
0.0861671
0.00103972
-0.0126404
0.0116007
-0.0351205
0.0365714
-0.00145088
0.00893893
-0.0135135
-0.241221
0.245795
0.0184525
-0.0225193
-0.40932
0.413387
0.0264462
-0.0298701
-0.571003
0.574427
0.0336871
-0.0376227
-0.703838
0.707774
0.04252
-0.0473158
-0.831637
0.836433
0.0527779
-0.0578295
-0.980263
0.985315
0.0633388
-0.0682176
-1.15712
1.162
0.0732475
-0.0773762
-1.3661
1.37022
0.0811791
-0.0837783
-1.61277
1.61537
0.0852608
-0.0857321
-1.59102
1.59149
0.0854635
-0.0847561
-1.3159
1.31519
0.0837008
-0.0821266
-1.09562
1.09404
0.0806823
-0.0791854
-0.918503
0.917006
0.0771979
-0.0738019
-0.766988
0.763592
0.0686136
-0.0602712
-0.604234
0.595891
0.0504542
-0.0384294
-0.403877
0.391852
0.0276681
-0.0172871
-0.212282
0.2019
0.00982632
-0.00409466
-0.0806858
0.0749541
0.00109238
-0.0105424
0.00945007
-0.0380422
0.0400749
-0.00203276
0.0124281
-0.0187238
-0.250737
0.257033
0.025459
-0.0309667
-0.418586
0.424094
0.036239
-0.0407423
-0.579413
0.583917
0.0455913
-0.050432
-0.712479
0.717319
0.0563183
-0.0619524
-0.841238
0.846872
0.0682588
-0.0739998
-0.990347
0.996088
0.0801536
-0.0854876
-1.16683
1.17217
0.0908396
-0.0950798
-1.37421
1.37845
0.0987897
-0.101101
-1.6177
1.62002
0.102154
-0.102098
-1.59157
1.59151
0.101367
-0.100137
-1.31371
1.31248
0.0986865
-0.0967169
-1.09238
1.09041
0.094916
-0.0928569
-0.914855
0.912796
0.0903052
-0.0857351
-0.759851
0.755281
0.0789446
-0.0684114
-0.5872
0.576667
0.0564833
-0.0423655
-0.379149
0.365032
0.030086
-0.0185187
-0.191035
0.179468
0.0103834
-0.00426254
-0.0690524
0.0629316
0.00111819
-0.00835058
0.00723239
-0.0420659
0.0449982
-0.00293227
0.0174869
-0.0260479
-0.263636
0.272197
0.0349969
-0.0422328
-0.431351
0.438587
0.0491166
-0.0549191
-0.590453
0.596255
0.0611126
-0.0671498
-0.723075
0.729113
0.0742451
-0.0808396
-0.852486
0.859081
0.0880514
-0.0944683
-1.00179
1.00821
0.101177
-0.106822
-1.17737
1.18302
0.112285
-0.116413
-1.38242
1.38654
0.119765
-0.121544
-1.62193
1.62371
0.121943
-0.121161
-1.59096
1.59017
0.119804
-0.117951
-1.31039
1.30854
0.116059
-0.113665
-1.08821
1.08581
0.111458
-0.108775
-0.909935
0.907252
0.105448
-0.0992918
-0.750218
0.744062
0.0904138
-0.0771185
-0.565661
0.552366
0.0626152
-0.0460603
-0.350181
0.333626
0.0321274
-0.0193887
-0.167443
0.154705
0.0106774
-0.00429892
-0.0567028
0.0503243
0.00110279
-0.00612424
0.00502145
-0.047769
0.052218
-0.00444904
0.0253057
-0.0369373
-0.281093
0.292725
0.0487593
-0.058318
-0.448654
0.458213
0.0672498
-0.0746264
-0.604708
0.612084
0.0824262
-0.0899707
-0.736034
0.743578
0.0983167
-0.105799
-0.865584
0.873066
0.113744
-0.120601
-1.01449
1.02134
0.127528
-0.133133
-1.18835
1.19396
0.138291
-0.141917
-1.39019
1.39382
0.144483
-0.145361
-1.62489
1.62577
0.144801
-0.143044
-1.58876
1.587
0.140895
-0.138315
-1.30573
1.30315
0.135895
-0.13305
-1.08297
1.08013
0.130321
-0.127013
-0.903623
0.900314
0.1225
-0.114151
-0.737185
0.728835
0.102514
-0.0857685
-0.538411
0.521665
0.0682105
-0.0489594
-0.316381
0.297129
0.0333715
-0.01964
-0.14165
0.127919
0.0105694
-0.00415068
-0.04395
0.0375313
0.00103217
-0.00394856
0.00291639
-0.0562409
0.0638167
-0.0075758
0.0389287
-0.055073
-0.305274
0.321418
0.0709559
-0.0837329
-0.472154
0.484931
0.094842
-0.103651
-0.622657
0.631466
0.113025
-0.12191
-0.751687
0.760572
0.131264
-0.139197
-0.88024
0.888173
0.147255
-0.153924
-1.02778
1.03444
0.160387
-0.16532
-1.19894
1.20387
0.169522
-0.17205
-1.39665
1.39918
0.173261
-0.172754
-1.62579
1.62528
0.170839
-0.167814
-1.58446
1.58143
0.164665
-0.1612
-1.2995
1.29604
0.158168
-0.154819
-1.07654
1.07319
0.15154
-0.147263
-0.895602
0.891325
0.141028
-0.129588
-0.719385
0.707945
0.114246
-0.0932584
-0.503928
0.48294
0.0723783
-0.0504544
-0.277427
0.255503
0.0334532
-0.0191121
-0.114212
0.0998711
0.00998986
-0.00379257
-0.0312903
0.025093
0.00089184
-0.00192733
0.0010355
-0.0708523
0.0750802
-0.00422789
0.0296731
-0.0437936
-0.340156
0.354277
0.0579974
-0.069791
-0.503271
0.515065
0.0803816
-0.0903178
-0.644011
0.653948
0.101493
-0.111905
-0.76886
0.779272
0.123525
-0.133843
-0.895062
0.905379
0.144859
-0.1547
-1.0402
1.05004
0.165082
-0.174075
-1.20774
1.21674
0.183169
-0.190579
-1.40057
1.40799
0.197429
-0.202199
-1.62363
1.6284
0.204893
-0.206132
-1.5774
1.57864
0.206176
-0.205698
-1.29136
1.29088
0.205366
-0.204432
-1.06857
1.06764
0.202811
-0.19828
-0.884834
0.880303
0.189138
-0.171302
-0.694801
0.676965
0.147328
-0.116078
-0.460846
0.429596
0.0868674
-0.05798
-0.233612
0.204725
0.036984
-0.0202984
-0.0862435
0.0695579
0.0101636
-0.00363984
-0.0193606
0.0128369
0.000774537
-0.000131294
-0.000643243
-0.082586
0.0806392
0.00194684
0.00789913
-0.0170412
-0.371127
0.38027
0.0278376
-0.0363876
-0.531507
0.540057
0.0450318
-0.0532791
-0.666663
0.67491
0.0634513
-0.0730799
-0.789133
0.798761
0.0834472
-0.0929132
-0.91505
0.924516
0.103005
-0.111673
-1.05959
1.06825
0.121
-0.128706
-1.22551
1.23322
0.136459
-0.14251
-1.41507
1.42112
0.147656
-0.150981
-1.63245
1.63577
0.152372
-0.15239
-1.5794
1.57942
0.151188
-0.1494
-1.28954
1.28775
0.147836
-0.14605
-1.06416
1.06237
0.143545
-0.137735
-0.871289
0.865478
0.127719
-0.111065
-0.655162
0.638508
0.091392
-0.0682401
-0.396535
0.373383
0.0486821
-0.0312757
-0.176501
0.159095
0.01944
-0.0104968
-0.0539587
0.0450156
0.00517956
-0.00183255
-0.00650112
0.00315411
0.000369815
0.00164869
-0.0020185
-0.0840505
0.0811129
0.00293766
-0.00116332
-0.0040641
-0.392168
0.397396
0.0112339
-0.0175036
-0.552508
0.558778
0.0238904
-0.0310043
-0.685799
0.692913
0.0398344
-0.0481765
-0.80741
0.815752
0.0573706
-0.0656029
-0.933128
0.941361
0.0741304
-0.0818335
-1.07673
1.08444
0.0899103
-0.0966678
-1.24047
1.24723
0.103007
-0.107765
-1.4265
1.43126
0.111791
-0.113899
-1.63845
1.64056
0.114112
-0.113006
-1.57888
1.57777
0.110942
-0.108411
-1.28547
1.28293
0.10572
-0.10288
-1.05788
1.05504
0.0995119
-0.0934679
-0.855718
0.849674
0.0842234
-0.0701927
-0.61901
0.604979
0.055395
-0.0396291
-0.348787
0.333021
0.0277678
-0.0180092
-0.141534
0.131776
0.0115295
-0.00658442
-0.0361017
0.0311566
0.00346443
-0.00134001
0.000456703
-0.00258112
0.00031159
0.00262067
-0.00293226
-0.0827727
0.079908
0.00286474
-0.00510946
0.0025212
-0.406147
0.408735
0.00212043
-0.00684679
-0.568129
0.572856
0.012203
-0.0181516
-0.70151
0.707458
0.0257118
-0.0328484
-0.82338
0.830516
0.0406712
-0.0476992
-0.948987
0.956015
0.0553623
-0.0618597
-1.09166
1.09816
0.0688387
-0.0742001
-1.25353
1.25889
0.0795116
-0.0833505
-1.43574
1.43957
0.0861891
-0.0870263
-1.64219
1.64303
0.0864226
-0.0845507
-1.57608
1.57421
0.0818177
-0.07818
-1.27987
1.27623
0.0747471
-0.0709272
-1.04994
1.04612
0.0666518
-0.0609153
-0.839417
0.833681
0.0528179
-0.0421539
-0.588462
0.577799
0.032048
-0.0225702
-0.31636
0.306882
0.0160793
-0.0110037
-0.121376
0.1163
0.00756474
-0.00476572
-0.0256508
0.0228518
0.00275723
-0.00119369
0.00517236
-0.00673591
0.000321107
0.0034517
-0.00377281
-0.0811746
0.0786157
0.00255889
-0.00648721
0.0055571
-0.415471
0.416401
-0.00209564
-0.00140638
-0.580598
0.5841
0.0056545
-0.0110082
-0.714673
0.720027
0.0173357
-0.0235718
-0.836887
0.843123
0.0303051
-0.0363683
-0.96253
0.968593
0.0428896
-0.0485911
-1.10447
1.11017
0.0544148
-0.0591786
-1.26405
1.26881
0.0635499
-0.0665455
-1.44295
1.44595
0.068462
-0.0684565
-1.6436
1.64359
0.0670483
-0.0641829
-1.57151
1.56865
0.0607753
-0.0565312
-1.27222
1.26797
0.0523586
-0.0475029
-1.04052
1.03567
0.0427196
-0.0370804
-0.823734
0.818095
0.0304929
-0.0226703
-0.564898
0.557075
0.0163011
-0.0112429
-0.296125
0.291067
0.00823039
-0.00616415
-0.110334
0.108268
0.00471785
-0.00334335
-0.0194171
0.0180426
0.00215645
-0.00103914
0.0086849
-0.00980221
0.000318389
0.00424003
-0.00455842
-0.0796371
0.0774238
0.00221323
-0.00657063
0.00620722
-0.421788
0.422151
-0.00417044
0.00135226
-0.590166
0.592984
0.00274903
-0.00730532
-0.725761
0.730318
0.0126954
-0.0180582
-0.848507
0.85387
0.0239798
-0.0293397
-0.97425
0.97961
0.0352224
-0.0401365
-1.11555
1.12046
0.0452433
-0.0493709
-1.27321
1.27734
0.0529994
-0.0553205
-1.44856
1.45088
0.0564689
-0.0561381
-1.64335
1.64302
0.0540215
-0.0506266
-1.56515
1.56175
0.0466092
-0.0417063
-1.26322
1.25832
0.0371712
-0.0315638
-1.02962
1.02401
0.026299
-0.0207928
-0.808763
0.803257
0.0152217
-0.00943641
-0.547315
0.54153
0.00558995
-0.00330927
-0.284319
0.282038
0.00258467
-0.00234131
-0.104945
0.104702
0.00214746
-0.0018516
-0.0161053
0.0158094
0.00138337
-0.000767506
0.0111316
-0.0117474
0.00026839
0.00494148
-0.00520987
-0.0783978
0.0766437
0.00175406
-0.00583225
0.00586612
-0.426362
0.426328
-0.00423044
0.00214914
-0.598437
0.600518
0.0016443
-0.00574055
-0.735288
0.739384
0.0107845
-0.0153498
-0.858804
0.863369
0.0204867
-0.0251726
-0.984886
0.989572
0.0306524
-0.0350106
-1.12535
1.12971
0.0394171
-0.0431456
-1.28121
1.28494
0.0466509
-0.048503
-1.45311
1.45496
0.0492794
-0.0483826
-1.64214
1.64125
0.0461124
-0.0420029
-1.55795
1.55384
0.0377441
-0.0325465
-1.25296
1.24776
0.0274458
-0.0215871
-1.01761
1.01175
0.0159503
-0.0101977
-0.794389
0.788636
0.0055224
-0.00100292
-0.533638
0.529119
-0.00143919
0.00205491
-0.277612
0.276996
-0.00169479
0.0009513
-0.103343
0.104086
-0.000293891
-0.00026133
-0.0151086
0.0156638
0.00046305
-0.000382617
0.0124211
-0.0125016
0.00017471
0.00546138
-0.00563609
-0.077637
0.0762449
0.0013921
-0.00483565
0.00506156
-0.429855
0.429629
-0.00361881
0.00168163
-0.605529
0.607467
0.00186603
-0.0055149
-0.743742
0.747391
0.0097755
-0.0141078
-0.867874
0.872206
0.0187805
-0.0235263
-0.994007
0.998753
0.0281506
-0.0321978
-1.13412
1.13817
0.0365739
-0.0398842
-1.28846
1.29177
0.0426616
-0.0446553
-1.45662
1.45861
0.0452351
-0.044207
-1.64027
1.63924
0.0416105
-0.0375256
-1.54975
1.54566
0.0330605
-0.0275816
-1.24198
1.2365
0.0223024
-0.016165
-1.00511
0.998976
0.0103803
-0.0047158
-0.780427
0.774762
0.000188282
0.0034963
-0.522337
0.518652
-0.00523829
0.00535519
-0.273872
0.273755
-0.00453648
0.00326192
-0.103763
0.105038
-0.00214523
0.00106009
-0.0158484
0.0169336
-0.000388125
1.3885e-05
0.0125452
-0.0121709
5.89122e-05
0.00572497
-0.00578388
-0.0774062
0.0762297
0.00117647
-0.00358332
0.0036024
-0.432868
0.432849
-0.00240782
0.000533608
-0.611932
0.613806
0.00273096
-0.00622068
-0.751508
0.754997
0.0102468
-0.0141139
-0.876331
0.880198
0.0188368
-0.0226975
-1.00286
1.00672
0.0271936
-0.0309609
-1.14232
1.14609
0.03508
-0.0384281
-1.29499
1.29834
0.0412996
-0.0428468
-1.46026
1.46181
0.0434656
-0.0424855
-1.63801
1.63703
0.0401383
-0.035907
-1.5413
1.53707
0.0314615
-0.0259359
-1.23093
1.2254
0.0206417
-0.0143911
-0.99216
0.98591
0.00867012
-0.00277162
-0.766973
0.761074
-0.00154591
0.0049392
-0.512457
0.509064
-0.00665436
0.00668502
-0.271263
0.271233
-0.00586671
0.00450955
-0.105109
0.106466
-0.00325737
0.00192207
-0.0176293
0.0189646
-0.000982876
0.000309178
0.0117677
-0.011094
-3.88981e-05
0.00573497
-0.00569607
-0.077462
0.0766176
0.00084436
-0.00243974
0.00199377
-0.43589
0.436336
-0.000991424
-0.0009404
-0.617527
0.619458
0.00385172
-0.00717625
-0.758658
0.761982
0.0109895
-0.0149438
-0.883931
0.887886
0.0189796
-0.0229451
-1.01075
1.01471
0.027323
-0.0307905
-1.15024
1.15371
0.0348964
-0.0380823
-1.30142
1.3046
0.0408484
-0.0427562
-1.46369
1.4656
0.0436298
-0.0426657
-1.63598
1.63502
0.0402412
-0.0364028
-1.53288
1.52905
0.0322192
-0.026766
-1.21961
1.21416
0.0214679
-0.0155274
-0.979274
0.973333
0.00953136
-0.00376076
-0.7536
0.747829
-0.000671815
0.00409315
-0.503264
0.499843
-0.00582092
0.00637871
-0.268804
0.268247
-0.00595007
0.00493975
-0.106648
0.107658
-0.00376762
0.00242196
-0.019827
0.0211726
-0.00137438
0.00053417
0.0104444
-0.00960422
-0.000118651
0.00555015
-0.0054315
-0.0779351
0.0772644
0.00067067
-0.00146076
0.00105212
-0.439084
0.439493
0.000461122
-0.00223472
-0.623151
0.624924
0.00529957
-0.00847219
-0.765235
0.768408
0.0121085
-0.0156237
-0.891507
0.895022
0.0197436
-0.0233428
-1.01864
1.02224
0.0276071
-0.0314578
-1.1576
1.16145
0.0351132
-0.0385412
-1.30778
1.31121
0.0416202
-0.0434868
-1.46732
1.46919
0.0445568
-0.0441683
-1.63418
1.63379
0.0419769
-0.0385339
-1.52497
1.52153
0.0343765
-0.0292119
-1.20866
1.20349
0.0242106
-0.0183168
-0.96677
0.960876
0.012623
-0.00680172
-0.740605
0.734784
0.0021615
0.00162649
-0.4939
0.490112
-0.00371966
0.00470275
-0.265732
0.264749
-0.00487035
0.00432108
-0.107528
0.108078
-0.00348272
0.00238711
-0.0219487
0.0230444
-0.00144627
0.00061962
0.00886392
-0.00803727
-0.000163263
0.00522508
-0.00506182
-0.07871
0.0782193
0.000490754
-0.000375481
-0.000217358
-0.442421
0.443013
0.00159026
-0.00366652
-0.628348
0.630424
0.0066534
-0.00965716
-0.771523
0.774527
0.013369
-0.0167136
-0.898512
0.901856
0.0206419
-0.0243296
-1.02629
1.02998
0.0284571
-0.0322246
-1.16511
1.16888
0.0360449
-0.039438
-1.3145
1.3179
0.0426179
-0.0451481
-1.47129
1.47382
0.046531
-0.0462912
-1.63326
1.63302
0.0446244
-0.0413389
-1.51789
1.51461
0.0376114
-0.0328968
-1.19822
1.1935
0.0278947
-0.0222003
-0.954578
0.948883
0.0166699
-0.0107464
-0.727863
0.721939
0.00598193
-0.00173003
-0.484395
0.480143
-0.000795307
0.00241978
-0.261747
0.260123
-0.00306891
0.00306212
-0.107442
0.107449
-0.00269179
0.00197883
-0.0235282
0.0242412
-0.00127046
0.000582533
0.00737818
-0.00669025
-0.000162486
0.00484222
-0.00467973
-0.0797303
0.0793675
0.00036278
0.000500169