/*--------------------------------*- C++ -*----------------------------------*\
  =========                 |
  \\      /  F ield         | OpenFOAM: The Open Source CFD Toolbox
   \\    /   O peration     | Website:  https://openfoam.org
    \\  /    A nd           | Version:  6
     \\/     M anipulation  |
\*---------------------------------------------------------------------------*/
FoamFile
{
    version     2.0;
    format      ascii;
    class       surfaceScalarField;
    location    "97";
    object      phi;
}
// * * * * * * * * * * * * * * * * * * * * * * * * * * * * * * * * * * * * * //

dimensions      [0 3 -1 0 0 0 0];

internalField   nonuniform List<scalar> 
17370
(
-0.09
0.0898488
0.289162
-0.0714621
0.053752
0.364486
-0.0381187
0.0276894
0.426597
-0.0196374
0.0146043
0.504285
-0.0107624
0.00827203
0.601892
-0.00627239
0.00489588
0.720434
-0.00373185
0.00289113
0.863747
-0.00214944
0.00159016
1.03601
-0.00107345
0.000660979
1.24292
-0.000253833
-0.000143883
1.49159
0.000523577
-0.000933405
1.4916
0.00133075
-0.00181627
1.24318
0.00233906
-0.00304208
1.03634
0.00385616
-0.00500139
0.864052
0.00636806
-0.00836136
0.721051
0.0108469
-0.0146831
0.603051
0.01971
-0.0277542
0.507483
0.0381755
-0.0537999
0.431792
0.0715015
-0.0898754
0.365149
0.0900163
0.198995
-0.128138
0.0882298
0.0399082
-0.364601
0.353382
-0.0746684
0.0858867
-0.446477
0.454323
-0.0843821
0.0765365
-0.521192
0.529904
-0.0684383
0.0597256
-0.61279
0.621571
-0.0515355
0.0427546
-0.726896
0.734167
-0.0352924
0.0280212
-0.867477
0.872595
-0.0224184
0.0173003
-1.03848
1.04193
-0.0134881
0.0100357
-1.2446
1.24704
-0.00742264
0.00498727
-1.49262
1.49461
-0.00303621
0.00105175
-1.49251
1.49423
0.000619982
-0.00234278
-1.24397
1.24586
0.00425098
-0.00613654
-1.03751
1.04003
0.0084867
-0.0110049
-0.866098
0.869825
0.0143505
-0.0180776
-0.724389
0.729931
0.0231179
-0.0286605
-0.608696
0.616109
0.0358737
-0.0432862
-0.514895
0.523038
0.052015
-0.060158
-0.439855
0.447912
0.0688194
-0.0768767
-0.375294
0.376737
0.0846711
-0.0861142
-0.257328
0.222473
0.0748225
-0.0399674
-0.068525
0.0587013
0.00982363
-0.0517973
0.0583758
-0.374134
0.367555
-0.057456
0.0537007
-0.453599
0.457355
-0.0486079
0.0446526
-0.527953
0.531908
-0.0408093
0.0371671
-0.62157
0.625213
-0.0330613
0.0289813
-0.735356
0.739436
-0.0244057
0.0202411
-0.874348
0.878513
-0.0158895
0.0121903
-1.0435
1.0472
-0.0084472
0.00526996
-1.24857
1.25174
-0.00193809
-0.00113811
-1.49666
1.49974
0.00418768
-0.00745538
-1.4972
1.50047
0.0105345
-0.0141313
-1.25006
1.25366
0.0176747
-0.0218531
-1.04592
1.0501
0.0258744
-0.0303112
-0.877752
0.882189
0.0342787
-0.0382724
-0.739892
0.743886
0.0418192
-0.0455641
-0.626766
0.630511
0.0494349
-0.0544471
-0.534804
0.539816
0.0581127
-0.0589204
-0.457468
0.458276
0.0522086
-0.0319983
-0.33574
0.31553
0.00989042
-0.068337
0.0584466
-0.0529536
0.0489616
0.00399202
-0.033138
0.0436725
-0.35813
0.347595
-0.047362
0.0467284
-0.459298
0.459932
-0.0436668
0.040309
-0.535816
0.539174
-0.0365307
0.0332212
-0.628544
0.631854
-0.0297768
0.0267383
-0.742666
0.745704
-0.0234715
0.020357
-0.882037
0.885151
-0.016818
0.013431
-1.05079
1.05418
-0.00962988
0.00608502
-1.25518
1.25873
-0.00211003
-0.00169133
-1.50325
1.50705
0.00545981
-0.00933528
-1.50413
1.508
0.012741
-0.0163403
-1.2574
1.261
0.0195125
-0.0228097
-1.0539
1.0572
0.0257198
-0.0287843
-0.885668
0.888733
0.0316564
-0.0349345
-0.747138
0.750416
0.0381033
-0.0417389
-0.634288
0.637924
0.0449746
-0.0478965
-0.544119
0.547041
0.0483821
-0.044484
-0.456553
0.452655
0.0336997
-0.0162345
-0.296151
0.278686
0.00407552
-0.052623
0.0485475
-0.0458881
0.0433973
0.00249079
-0.0227733
0.033135
-0.33692
0.326558
-0.0389413
0.0399481
-0.459625
0.458618
-0.0387488
0.0364552
-0.5419
0.544193
-0.03378
0.0311764
-0.634913
0.637516
-0.028104
0.0251954
-0.748758
0.751667
-0.0219195
0.0189151
-0.888113
0.891118
-0.0155981
0.0124882
-1.05732
1.06043
-0.00895139
0.00553399
-1.26219
1.26561
-0.00156344
-0.00232562
-1.51093
1.51482
0.00617034
-0.0100073
-1.51189
1.51572
0.0132395
-0.0165114
-1.26444
1.26771
0.0193402
-0.0223403
-1.0603
1.0633
0.0250735
-0.0280772
-0.891771
0.894775
0.030759
-0.033603
-0.753612
0.756456
0.0360135
-0.0384955
-0.64098
0.643462
0.0406243
-0.0416055
-0.548834
0.549815
0.0403694
-0.0342271
-0.447358
0.441215
0.0234966
-0.0102553
-0.263445
0.250204
0.00259417
-0.0453789
0.0427847
-0.0413278
0.0395667
0.0017611
-0.0167029
0.0259297
-0.316727
0.3075
-0.0325118
0.0346355
-0.457032
0.454909
-0.0342013
0.0325207
-0.54618
0.547861
-0.0303296
0.0282244
-0.639832
0.641938
-0.0257809
0.023371
-0.754322
0.756732
-0.0204974
0.0176936
-0.894024
0.896828
-0.014441
0.0113573
-1.06348
1.06657
-0.00785222
0.00451451
-1.26894
1.27228
-0.000671337
-0.00306868
-1.51862
1.52236
0.00675185
-0.0104238
-1.51945
1.52312
0.0135246
-0.016692
-1.27095
1.27412
0.0194178
-0.0222657
-1.06632
1.06917
0.0247205
-0.0272416
-0.897569
0.90009
0.0293574
-0.0315056
-0.758892
0.76104
0.0333632
-0.0353049
-0.645603
0.647545
0.0367458
-0.0368836
-0.550316
0.550454
0.0344074
-0.027332
-0.434522
0.427447
0.0176072
-0.00743202
-0.238644
0.228468
0.00188751
-0.0405985
0.038711
-0.0380515
0.0367298
0.0013217
-0.0127298
0.020642
-0.298937
0.291024
-0.0273576
0.0302551
-0.452371
0.449473
-0.0304396
0.0293037
-0.549306
0.550442
-0.027297
0.0253666
-0.643988
0.645918
-0.0231499
0.0209954
-0.758986
0.76114
-0.0184594
0.0159557
-0.899417
0.90192
-0.0129905
0.0100903
-1.06952
1.07242
-0.00670668
0.0034478
-1.27555
1.27881
0.000314651
-0.00395335
-1.52601
1.52965
0.00752083
-0.0110679
-1.5267
1.53025
0.0140298
-0.0169911
-1.27725
1.28021
0.0194445
-0.0219046
-1.07189
1.07435
0.0239709
-0.0260629
-0.902352
0.904444
0.0278453
-0.0296874
-0.763005
0.764848
0.0313045
-0.0330071
-0.649349
0.651052
0.0337935
-0.0331934
-0.550221
0.549621
0.0297906
-0.0223979
-0.420152
0.412759
0.0138445
-0.00577465
-0.219445
0.211375
0.00147561
-0.0370536
0.035578
-0.0355776
0.0345626
0.00101497
-0.00991842
0.0165893
-0.28376
0.277089
-0.0230244
0.0263613
-0.446339
0.443002
-0.0271129
0.0263914
-0.551367
0.552089
-0.024613
0.0228104
-0.647832
0.649634
-0.0207177
0.0186777
-0.763232
0.765272
-0.0162774
0.0139221
-0.904278
0.906633
-0.0111519
0.00843824
-1.07516
1.07787
-0.00525063
0.00214104
-1.28195
1.28506
0.00149127
-0.0050187
-1.53321
1.53674
0.00845769
-0.0118222
-1.53368
1.53705
0.0145638
-0.0172295
-1.28306
1.28573
0.0193926
-0.0215404
-1.07672
1.07887
0.0233554
-0.0252053
-0.906391
0.908241
0.0267834
-0.0284112
-0.766573
0.768201
0.029825
-0.0311807
-0.652612
0.653968
0.0314687
-0.0301267
-0.548655
0.547313
0.0260921
-0.0187639
-0.405368
0.398039
0.011286
-0.00468027
-0.204103
0.197498
0.00120229
-0.034253
0.0330507
-0.0336743
0.0328881
0.000786243
-0.00782786
0.0134142
-0.270992
0.265405
-0.0193483
0.0228677
-0.439568
0.436049
-0.0240838
0.0236026
-0.552729
0.55321
-0.0220841
0.0203856
-0.651441
0.653139
-0.0183811
0.0164197
-0.767266
0.769227
-0.0141031
0.0118279
-0.908878
0.911153
-0.00915294
0.00654262
-1.08046
1.08307
-0.00348927
0.00051716
-1.28805
1.29102
0.00294922
-0.00630675
-1.54015
1.54351
0.00955565
-0.0126934
-1.54026
1.5434
0.0152148
-0.01763
-1.28831
1.29073
0.0195675
-0.0214817
-1.08099
1.0829
0.0230942
-0.0247337
-0.909967
0.911606
0.0261272
-0.0275594
-0.769719
0.771151
0.0287712
-0.029737
-0.655128
0.656094
0.0296468
-0.0276252
-0.545619
0.543597
0.0231726
-0.0160911
-0.390823
0.383742
0.00950094
-0.00392783
-0.191455
0.185881
0.00101403
-0.0319526
0.0309386
-0.0322012
0.0315932
0.000607982
-0.00620778
0.0108649
-0.260314
0.255657
-0.0161914
0.0196945
-0.432542
0.429039
-0.0212189
0.0209547
-0.553627
0.553892
-0.0196594
0.0180148
-0.654866
0.65651
-0.0160586
0.0141387
-0.771156
0.773076
-0.0118717
0.00964604
-0.913322
0.915548
-0.0070299
0.00448133
-1.08557
1.08812
-0.00150991
-0.00136409
-1.29389
1.29677
0.00468674
-0.00787356
-1.54674
1.54993
0.0109281
-0.0138505
-1.54638
1.5493
0.0161763
-0.0183715
-1.29309
1.29529
0.0201023
-0.0217936
-1.08481
1.0865
0.0232109
-0.0246488
-0.913119
0.914557
0.0258715
-0.0271244
-0.772481
0.773733
0.0281926
-0.028736
-0.656857
0.6574
0.0282481
-0.0256458
-0.541276
0.538674
0.0209241
-0.0141478
-0.376815
0.370039
0.00825055
-0.00340803
-0.180708
0.175866
0.00088471
-0.0299971
0.0291124
-0.0310671
0.0306045
0.000462608
-0.00489656
0.00874905
-0.251432
0.247579
-0.0134222
0.0167591
-0.425633
0.422296
-0.0184498
0.0183653
-0.55412
0.554204
-0.0172528
0.0156365
-0.658215
0.659831
-0.0136932
0.0117784
-0.774975
0.77689
-0.0095185
0.00730636
-0.917672
0.919884
-0.00471581
0.00220224
-1.09056
1.09307
0.000715015
-0.00351885
-1.29954
1.30235
0.00673267
-0.00978101
-1.553
1.55605
0.0126684
-0.0153958
-1.55207
1.5548
0.0175346
-0.0195108
-1.29745
1.29942
0.0210338
-0.022505
-1.08821
1.08968
0.0237367
-0.0249897
-0.915869
0.917122
0.0260592
-0.0271498
-0.774887
0.775978
0.0280074
-0.028181
-0.657745
0.657918
0.0272647
-0.0241567
-0.535813
0.532705
0.0192554
-0.0127685
-0.36342
0.356933
0.00738909
-0.00305665
-0.171307
0.166974
0.000798931
-0.0282777
0.0274788
-0.0302123
0.0298737
0.000338652
-0.00379071
0.00693268
-0.24411
0.240968
-0.0109391
0.0139978
-0.419122
0.416063
-0.0157261
0.0157821
-0.554284
0.554228
-0.0147398
0.0131854
-0.661501
0.663055
-0.0112248
0.00928056
-0.778794
0.780738
-0.00698724
0.00475114
-0.922
0.924236
-0.0021461
-0.00036661
-1.09549
1.098
0.00326348
-0.00602627
-1.30506
1.30783
0.00916328
-0.0121025
-1.55899
1.56193
0.0148467
-0.0173948
-1.55737
1.55991
0.0193537
-0.0211136
-1.30137
1.30313
0.0224305
-0.0236853
-1.09119
1.09244
0.0247367
-0.0258111
-0.918246
0.919321
0.0267347
-0.0276648
-0.776958
0.777888
0.0282602
-0.0281307
-0.65794
0.65781
0.0267377
-0.0231558
-0.529362
0.52578
0.0181092
-0.0118482
-0.350579
0.344318
0.00683048
-0.00283583
-0.162836
0.158841
0.000747294
-0.0267122
0.0259649
-0.0295986
0.0293715
0.000227036
-0.00281371
0.00531052
-0.238175
0.235679
-0.00864835
0.0113443
-0.413217
0.410521
-0.0129939
0.0131147
-0.554217
0.554096
-0.0121027
0.0105771
-0.66469
0.666215
-0.00857379
0.00656866
-0.782676
0.784682
-0.00420378
0.00190663
-0.926379
0.928676
0.000755625
-0.00330697
-1.10042
1.10297
0.00622566
-0.00898302
-1.31051
1.31327
0.0120772
-0.014933
-1.56477
1.56763
0.0175533
-0.0199365
-1.5623
1.56468
0.0217252
-0.0232733
-1.30488
1.30643
0.024383
-0.0254187
-1.09376
1.09479
0.0262851
-0.0271711
-0.920259
0.921145
0.027935
-0.0286972
-0.77865
0.779412
0.0290073
-0.0285327
-0.657548
0.657074
0.0266723
-0.0226355
-0.521993
0.517956
0.0174376
-0.0113107
-0.338149
0.332022
0.00651487
-0.00271854
-0.154968
0.151172
0.000722638
-0.0252361
0.0245135
-0.0292051
0.0290851
0.000120051
-0.00190131
0.00378872
-0.233512
0.231625
-0.00645071
0.00871176
-0.40808
0.405819
-0.0101731
0.0102783
-0.55408
0.553975
-0.0092601
0.00772194
-0.667859
0.669397
-0.00564462
0.00354542
-0.786683
0.788782
-0.00106951
-0.00132612
-0.930881
0.933276
0.00408798
-0.00671746
-1.10544
1.10807
0.0097009
-0.0124896
-1.31596
1.31875
0.015576
-0.0183741
-1.57039
1.57319
0.0208885
-0.0231193
-1.56689
1.56912
0.024744
-0.0260803
-1.30799
1.30932
0.0269812
-0.0277925
-1.09591
1.09672
0.0284642
-0.0291521
-0.921888
0.922576
0.0297592
-0.030374
-0.779994
0.780609
0.0303218
-0.0294323
-0.656423
0.655533
0.027082
-0.0225814
-0.513724
0.509223
0.0171952
-0.0110972
-0.32594
0.319842
0.00639885
-0.00268548
-0.147439
0.143725
0.000719942
-0.0237983
0.0230783
-0.0290261
0.0290146
1.15933e-05
-0.00100454
0.00229394
-0.230059
0.22877
-0.00426312
0.00602344
-0.40385
0.40209
-0.00719221
0.00719894
-0.554041
0.554034
-0.00612531
0.0045328
-0.671093
0.672685
-0.00233882
0.000108953
-0.790878
0.793108
0.00252141
-0.00505705
-0.93558
0.938116
0.0079653
-0.0107157
-1.11063
1.11338
0.0138096
-0.016669
-1.32148
1.32434
0.0197863
-0.0225561
-1.5759
1.57867
0.0249845
-0.0270729
-1.57117
1.57326
0.0285357
-0.0296633
-1.31068
1.31181
0.0303558
-0.0309409
-1.09764
1.09822
0.0314118
-0.0318879
-0.923114
0.92359
0.0323086
-0.0326532
-0.780953
0.781298
0.0322982
-0.0309117
-0.654459
0.653073
0.0280295
-0.0230196
-0.504517
0.499508
0.0173738
-0.0111824
-0.313732
0.307541
0.00646164
-0.00272713
-0.140023
0.136289
0.000736694
-0.0223563
0.0216196
-0.0290635
0.0291649
-0.000101387
-7.15524e-05
0.000754928
-0.227803
0.22712
-0.00200141
0.00319462
-0.400659
0.399466
-0.00396924
0.00379208
-0.554276
0.554453
-0.00260336
0.000896782
-0.674485
0.676192
0.00145402
-0.00385931
-0.795334
0.79774
0.00669517
-0.00941839
-0.940561
0.943284
0.0125256
-0.0154445
-1.11606
1.11898
0.0186988
-0.0216707
-1.32715
1.33012
0.0248584
-0.0276284
-1.58135
1.58412
0.0299902
-0.0319451
-1.57514
1.5771
0.0332472
-0.0341653
-1.31295
1.31387
0.0346455
-0.0349931
-1.09891
1.09926
0.0352533
-0.0355089
-0.923907
0.924162
0.0357202
-0.0357234
-0.781336
0.781339
0.0350218
-0.0330542
-0.651484
0.649517
0.029571
-0.0239728
-0.494268
0.48867
0.0179688
-0.0115484
-0.301275
0.294855
0.00668772
-0.0028356
-0.132518
0.128666
0.000770477
-0.0208723
0.0201019
-0.0293372
0.0295737
-0.00023655
0.000893407
-0.000880662
-0.226774
0.226762
0.000416864
0.000132644
-0.398641
0.398091
-0.0004085
-4.49499e-05
-0.554973
0.555427
0.00142134
-0.00330336
-0.678159
0.680041
0.0058715
-0.00850411
-0.80014
0.802772
0.0116036
-0.0145686
-0.945921
0.948886
0.0179349
-0.0210762
-1.12185
1.12499
0.0245468
-0.0276766
-1.33305
1.33618
0.0309756
-0.0337716
-1.58682
1.58961
0.0360782
-0.037906
-1.57883
1.58066
0.0390535
-0.0397588
-1.31478
1.31548
0.0400138
-0.0401036
-1.0997
1.09979
0.0401335
-0.0401523
-0.924236
0.924254
0.0401726
-0.0397297
-0.781028
0.780586
0.0385946
-0.0359474
-0.647342
0.644694
0.0317667
-0.0254656
-0.482801
0.4765
0.018978
-0.0121807
-0.28829
0.281493
0.00706313
-0.0030031
-0.124732
0.120672
0.000818715
-0.0193135
0.0184947
-0.029881
0.0302641
-0.000383074
0.00198934
-0.00260524
-0.227066
0.227682
0.00301346
-0.003232
-0.397939
0.398157
0.00361035
-0.0044503
-0.55636
0.5572
0.0060781
-0.00820612
-0.682243
0.684371
0.0110669
-0.0139942
-0.805397
0.808324
0.0174286
-0.0206999
-0.95177
0.955041
0.0243949
-0.0278193
-1.12809
1.13151
0.0315671
-0.0349033
-1.33928
1.34262
0.038355
-0.0411999
-1.59233
1.59518
0.0434551
-0.045143
-1.58223
1.58392
0.046119
-0.0466174
-1.31614
1.31664
0.0466434
-0.0464576
-1.09996
1.09978
0.0462411
-0.0460107
-0.924048
0.923818
0.0457961
-0.0448405
-0.779847
0.778891
0.0431684
-0.0397034
-0.641835
0.63837
0.034687
-0.0275249
-0.469867
0.462704
0.0204003
-0.0130647
-0.274475
0.267139
0.00757341
-0.00322114
-0.116488
0.112136
0.000878476
-0.0176522
0.0167737
-0.0307253
0.0312873
-0.000562025
0.00327981
-0.0046955
-0.228735
0.23015
0.00602634
-0.00705653
-0.398764
0.399795
0.00818833
-0.00953696
-0.558669
0.560018
0.0115519
-0.0140091
-0.686879
0.689336
0.0172515
-0.0205512
-0.811238
0.814538
0.0244038
-0.0280567
-0.958242
0.961895
0.0321594
-0.0359336
-1.13491
1.13868
0.0400224
-0.0436116
-1.34594
1.34953
0.0472519
-0.0501629
-1.59794
1.60086
0.0523682
-0.0539038
-1.58531
1.58685
0.0546974
-0.0549696
-1.31702
1.31729
0.0547473
-0.054266
-1.09966
1.09918
0.0537906
-0.0532833
-0.923313
0.922805
0.0526788
-0.0512414
-0.777729
0.776292
0.0488678
-0.0444169
-0.634679
0.630228
0.0383882
-0.0301635
-0.455131
0.446906
0.0222214
-0.0141751
-0.259502
0.251456
0.00819605
-0.00347692
-0.107622
0.102903
0.000945403
-0.0158673
0.0149219
-0.0319393
0.0327317
-0.000792382
0.00483788
-0.0071742
-0.232021
0.234357
0.00958034
-0.0115427
-0.401322
0.403285
0.0135563
-0.0155391
-0.562144
0.564126
0.0180784
-0.0209622
-0.69224
0.695123
0.0247021
-0.0284635
-0.817826
0.821587
0.0328321
-0.0369531
-0.965492
0.969613
0.0415528
-0.0457485
-1.14244
1.14664
0.0502425
-0.0541259
-1.3531
1.35699
0.0579785
-0.0609557
-1.60368
1.60666
0.0630936
-0.0644499
-1.58806
1.58941
0.0650265
-0.0650433
-1.31732
1.31734
0.0645554
-0.0637507
-1.09874
1.09794
0.0629983
-0.06222
-0.921974
0.921196
0.0611165
-0.0590896
-0.774694
0.772667
0.0558601
-0.0501866
-0.625502
0.619829
0.042907
-0.0333641
-0.438167
0.428624
0.024397
-0.0154626
-0.243022
0.234088
0.00889252
-0.00375005
-0.0979919
0.0928495
0.00101287
-0.0139474
0.0129346
-0.0336146
0.0347104
-0.00109581
0.00680508
-0.0102398
-0.237165
0.240599
0.0139185
-0.0169664
-0.405906
0.408954
0.0199922
-0.0227345
-0.567076
0.569818
0.025951
-0.0293954
-0.698543
0.701987
0.033774
-0.0381169
-0.825345
0.829688
0.0431216
-0.0478098
-0.973696
0.978385
0.0530004
-0.0576858
-1.15083
1.15552
0.0626353
-0.0668332
-1.36085
1.36505
0.0708894
-0.0738992
-1.60952
1.61253
0.0759242
-0.0770553
-1.5904
1.59153
0.0773767
-0.0770912
-1.31695
1.31667
0.0763198
-0.0751579
-1.09715
1.09599
0.0741211
-0.0730474
-0.920044
0.91897
0.0713787
-0.0686019
-0.770528
0.767752
0.0642746
-0.0570481
-0.613813
0.606586
0.0482075
-0.0370396
-0.418445
0.407277
0.0268242
-0.0168363
-0.224686
0.214698
0.00959869
-0.00400907
-0.087499
0.0819094
0.0010713
-0.0118958
0.0108245
-0.0358866
0.0373989
-0.00151226
0.00938758
-0.0141888
-0.244509
0.249311
0.0193779
-0.0236786
-0.412875
0.417175
0.0278752
-0.0315327
-0.573794
0.577451
0.0356101
-0.0397967
-0.706073
0.710259
0.0449872
-0.050058
-0.834034
0.839105
0.0558379
-0.0611985
-0.983058
0.988419
0.0670672
-0.0722898
-1.1602
1.16543
0.0777081
-0.0821965
-1.3692
1.37369
0.0863941
-0.0893516
-1.61538
1.61834
0.0911714
-0.0919848
-1.59221
1.59302
0.0919939
-0.0914025
-1.31584
1.31525
0.0902684
-0.0887308
-1.09484
1.0933
0.0874014
-0.085852
-0.917389
0.91584
0.0836724
-0.0798657
-0.764842
0.761035
0.0741349
-0.0649335
-0.598928
0.589726
0.0541449
-0.0409994
-0.395338
0.382192
0.029315
-0.0181485
-0.204181
0.193014
0.0102184
-0.00421019
-0.0761195
0.0701112
0.00110822
-0.00973602
0.0086278
-0.0389617
0.041076
-0.00211432
0.012945
-0.0194952
-0.254558
0.261108
0.0265023
-0.0322624
-0.422717
0.428477
0.0378294
-0.0426031
-0.582686
0.58746
0.0477462
-0.0528804
-0.715208
0.720342
0.059129
-0.0651009
-0.844181
0.850153
0.0717935
-0.0779082
-0.993781
0.999896
0.084496
-0.0902455
-1.17063
1.17638
0.0960696
-0.10075
-1.37807
1.38275
0.104944
-0.107695
-1.62105
1.6238
0.109158
-0.10951
-1.59328
1.59363
0.109115
-0.10811
-1.31391
1.31291
0.106596
-0.10468
-1.09179
1.08987
0.103048
-0.100946
-0.913649
0.911546
0.0981455
-0.0929526
-0.75705
0.751857
0.0853543
-0.0736071
-0.57996
0.568213
0.0603959
-0.0448975
-0.368146
0.352647
0.0315661
-0.0191844
-0.181298
0.168916
0.0106224
-0.00429891
-0.0639454
0.0576219
0.0011092
-0.00751769
0.00640849
-0.0431768
0.0462196
-0.00304286
0.0181149
-0.0269593
-0.268059
0.276903
0.0361942
-0.0437072
-0.436115
0.443629
0.0509033
-0.0570172
-0.594259
0.600373
0.0635772
-0.0700253
-0.726379
0.732827
0.0775237
-0.0845025
-0.856099
0.863078
0.0921685
-0.0990304
-1.006
1.01286
0.106256
-0.112394
-1.18203
1.18817
0.118416
-0.123063
-1.38719
1.39184
0.126983
-0.129279
-1.62617
1.62846
0.130165
-0.129874
-1.59332
1.59303
0.128935
-0.127398
-1.31099
1.30945
0.125507
-0.123177
-1.08791
1.08558
0.121109
-0.118477
-0.908632
0.905999
0.114706
-0.107633
-0.74637
0.739297
0.0975568
-0.0825544
-0.555733
0.540731
0.0663836
-0.0481939
-0.336162
0.317973
0.0331494
-0.0196718
-0.156043
0.142566
0.0106613
-0.00421806
-0.0512289
0.0447857
0.00106052
-0.00531816
0.00425765
-0.0491218
0.0537311
-0.00460929
0.0261137
-0.0380524
-0.286194
0.298132
0.0501627
-0.0600294
-0.454162
0.464029
0.0692755
-0.0770074
-0.609087
0.616819
0.0852858
-0.0932669
-0.740079
0.74806
0.102112
-0.11007
-0.87
0.877958
0.118565
-0.125949
-1.01961
1.027
0.133482
-0.139661
-1.19403
1.20021
0.145467
-0.149696
-1.39605
1.40028
0.152932
-0.154422
-1.63019
1.63168
0.154437
-0.153255
-1.59194
1.59075
0.151605
-0.149449
-1.30684
1.30468
0.147118
-0.144306
-1.08309
1.08028
0.141777
-0.138444
-0.902214
0.89888
0.133224
-0.12343
-0.731656
0.721861
0.110003
-0.0908902
-0.52477
0.505658
0.0712279
-0.050168
-0.298838
0.277778
0.033558
-0.019332
-0.128789
0.114563
0.0102009
-0.00392287
-0.0384113
0.0321332
0.00095142
-0.00323783
0.00228642
-0.057917
0.06578
-0.00786302
0.04012
-0.0566228
-0.311158
0.327661
0.0727824
-0.0857876
-0.478463
0.491468
0.097175
-0.106462
-0.627691
0.636978
0.116436
-0.125826
-0.756549
0.76594
0.135744
-0.144218
-0.885626
0.8941
0.152905
-0.160179
-1.03399
1.04126
0.167338
-0.172932
-1.2058
1.21139
0.177885
-0.181116
-1.40376
1.407
0.183112
-0.183327
-1.63234
1.63256
0.182087
-0.179733
-1.58862
1.58626
0.177176
-0.174269
-1.30121
1.2983
0.17142
-0.16805
-1.07715
1.07378
0.164917
-0.160442
-0.893797
0.889323
0.153018
-0.139271
-0.711074
0.697327
0.12129
-0.0972012
-0.485256
0.461168
0.0738104
-0.0501179
-0.256085
0.232392
0.0324197
-0.0180384
-0.100439
0.0860575
0.00920571
-0.0034065
-0.0261063
0.0203071
0.000776251
-0.00138621
0.00060996
-0.0730796
0.0775137
-0.00443406
0.0307651
-0.0452384
-0.346979
0.361453
0.059754
-0.071746
-0.510332
0.522324
0.082694
-0.0931212
-0.649887
0.660315
0.105031
-0.116016
-0.774659
0.785644
0.128296
-0.13929
-0.901567
0.912561
0.151135
-0.161814
-1.04766
1.05833
0.173211
-0.183229
-1.21597
1.22599
0.193564
-0.202224
-1.40915
1.41781
0.21058
-0.216853
-1.63169
1.63796
0.221069
-0.223917
-1.58275
1.5856
0.225457
-0.226581
-1.29379
1.29491
0.227325
-0.226809
-1.06966
1.06914
0.22529
-0.220104
-0.881988
0.876802
0.208445
-0.186037
-0.681964
0.659555
0.157012
-0.120413
-0.435642
0.399043
0.0875177
-0.056426
-0.208745
0.177653
0.034896
-0.0185463
-0.0725161
0.0561664
0.00901183
-0.00311592
-0.0149941
0.00909814
0.000630823
0.000179647
-0.000810469
-0.0852778
0.0833817
0.00189612
0.0086067
-0.0181496
-0.378833
0.388376
0.0292984
-0.0380891
-0.539217
0.548008
0.0470683
-0.0558575
-0.67351
0.682299
0.0667376
-0.0769901
-0.796058
0.806311
0.0880635
-0.0982345
-0.922971
0.933142
0.109183
-0.118722
-1.06877
1.07831
0.129118
-0.137918
-1.23587
1.24467
0.147023
-0.154472
-1.42626
1.43371
0.161347
-0.166449
-1.64371
1.64882
0.169684
-0.171644
-1.58796
1.58992
0.172231
-0.172471
-1.29445
1.29469
0.172507
-0.171666
-1.06668
1.06584
0.16897
-0.161566
-0.866198
0.858794
0.148122
-0.125935
-0.632839
0.610651
0.100702
-0.0722821
-0.360224
0.331804
0.0495983
-0.0303622
-0.147742
0.128506
0.0179896
-0.00918191
-0.0411281
0.0323205
0.00426555
-0.00139671
-0.00350819
0.000639344
0.000242049
0.00162823
-0.00187028
-0.0869813
0.0840064
0.00297495
-0.000670551
-0.00494341
-0.400704
0.406318
0.0124474
-0.0190425
-0.560921
0.567516
0.0258327
-0.0334164
-0.693688
0.701271
0.0429123
-0.0518441
-0.815485
0.824417
0.0617094
-0.0706226
-0.942494
0.951407
0.0799938
-0.0885747
-1.08771
1.09629
0.097747
-0.105648
-1.25309
1.26099
0.113426
-0.119702
-1.44063
1.4469
0.125656
-0.129801
-1.65349
1.65764
0.132173
-0.13337
-1.59144
1.59264
0.13339
-0.133167
-1.29381
1.29358
0.13245
-0.131104
-1.06198
1.06064
0.127671
-0.119166
-0.84718
0.838676
0.105722
-0.0856102
-0.585305
0.565193
0.0650975
-0.04429
-0.301676
0.280868
0.0294544
-0.0177806
-0.109601
0.0979269
0.0105128
-0.00542129
-0.0237276
0.0186361
0.00255777
-0.000855495
0.00240242
-0.0041047
0.000156792
0.00231204
-0.00246883
-0.0857688
0.0828825
0.00288637
-0.0047876
0.00188347
-0.415492
0.418396
0.00306857
-0.00812356
-0.577332
0.582387
0.0138918
-0.0202731
-0.710332
0.716714
0.0284385
-0.0361204
-0.832553
0.840235
0.0445732
-0.0522455
-0.95974
0.967412
0.0607186
-0.068065
-1.10443
1.11177
0.0761237
-0.0826266
-1.2685
1.275
0.0894053
-0.0948224
-1.45301
1.45842
0.0997102
-0.102782
-1.66153
1.6646
0.104608
-0.10539
-1.59344
1.59422
0.105075
-0.10406
-1.29246
1.29144
0.102859
-0.100922
-1.05604
1.0541
0.0969982
-0.0887212
-0.826318
0.818041
0.0762616
-0.0594956
-0.542581
0.525815
0.0438692
-0.0294614
-0.259086
0.244678
0.0197171
-0.0122362
-0.0856478
0.078167
0.00749625
-0.00405147
-0.0130745
0.00962969
0.00201513
-0.000720025
0.00612917
-0.00742427
0.000148064
0.00276263
-0.0029107
-0.084214
0.0815988
0.00261516
-0.00635895
0.00517085
-0.425498
0.426686
-0.00143102
-0.00238294
-0.590536
0.59435
0.00701518
-0.0127467
-0.724334
0.730066
0.0195947
-0.0263203
-0.847087
0.853813
0.0336304
-0.0402882
-0.974589
0.981247
0.04756
-0.0540582
-1.11896
1.12546
0.060902
-0.0667638
-1.28134
1.2872
0.0725661
-0.0771329
-1.46346
1.46803
0.0811329
-0.083461
-1.66758
1.66991
0.0846714
-0.084747
-1.59439
1.59447
0.0840741
-0.082826
-1.28994
1.2887
0.0812163
-0.0786287
-1.04931
1.04673
0.0746836
-0.0670031
-0.805941
0.79826
0.0563991
-0.0429656
-0.50697
0.493536
0.031443
-0.0214435
-0.22899
0.218991
0.0147729
-0.00964182
-0.0698235
0.0646924
0.00624405
-0.00357814
-0.00557623
0.00291032
0.00189153
-0.000718949
0.00904041
-0.010213
0.000166931
0.00315454
-0.00332147
-0.0826546
0.0803575
0.00229709
-0.00662715
0.00607189
-0.43237
0.432925
-0.00381243
0.000717196
-0.600743
0.603838
0.00371321
-0.00858307
-0.736163
0.741033
0.0144237
-0.0202124
-0.859624
0.865413
0.0266386
-0.0325211
-0.987499
0.993382
0.0390701
-0.0446952
-1.13162
1.13725
0.0507239
-0.0558574
-1.29271
1.29784
0.0608167
-0.0646261
-1.47226
1.47607
0.0677936
-0.0697901
-1.67214
1.67414
0.0703558
-0.0700699
-1.59411
1.59382
0.0690043
-0.0673656
-1.28694
1.2853
0.0656334
-0.0625506
-1.042
1.03892
0.0585304
-0.0517663
-0.787023
0.780259
0.0429359
-0.0324552
-0.478211
0.46773
0.0240315
-0.0169806
-0.207652
0.200601
0.0123554
-0.00860343
-0.0585952
0.0548432
0.00589886
-0.00359132
0.000367119
-0.00267466
0.00200033
-0.000812229
0.0116533
-0.0128414
0.000204303
0.00354031
-0.00374461
-0.0813297
0.0794722
0.00185752
-0.00606317
0.00598908
-0.437348
0.437423
-0.00418265
0.00187717
-0.609544
0.61185
0.00216472
-0.00651646
-0.746318
0.75067
0.0119513
-0.0168716
-0.870712
0.875632
0.0224275
-0.0275484
-0.999173
1.00429
0.0335911
-0.0385506
-1.14284
1.1478
0.043744
-0.0483462
-1.30271
1.30731
0.0530307
-0.0562203
-1.4798
1.48299
0.058857
-0.060153
-1.67565
1.67695
0.0604768
-0.0594408
-1.59325
1.59222
0.0581751
-0.0563432
-1.28322
1.28139
0.0541696
-0.0510212
-1.03432
1.03117
0.0469777
-0.0408094
-0.76994
0.763772
0.0337623
-0.0256092
-0.455277
0.447124
0.0194363
-0.0145343
-0.192279
0.187377
0.0111745
-0.00827597
-0.0501495
0.0472509
0.00600463
-0.00386336
0.00556014
-0.00770142
0.00225952
-0.000969605
0.014272
-0.0155619
0.000264242
0.00397179
-0.00423604
-0.0804292
0.0789212
0.00150804
-0.00522395
0.00542727
-0.441076
0.440872
-0.00386669
0.00176528
-0.617044
0.619145
0.00194814
-0.00579399
-0.755282
0.759128
0.0103734
-0.0149906
-0.880431
0.885048
0.0199924
-0.0250875
-1.00914
1.01424
0.0301517
-0.0346785
-1.15278
1.15731
0.0396936
-0.0437154
-1.31168
1.3157
0.0474639
-0.0505938
-1.48595
1.48908
0.0527805
-0.0536912
-1.67817
1.67908
0.0534368
-0.0522002
-1.59124
1.59
0.0505695
-0.0483275
-1.27893
1.27669
0.0458935
-0.0424357
-1.02665
1.02319
0.0384016
-0.0330193
-0.754575
0.749192
0.0269914
-0.0207691
-0.437082
0.430859
0.0163272
-0.0127965
-0.181204
0.177673
0.0103295
-0.00808053
-0.043471
0.041222
0.00613161
-0.00413708
0.0103444
-0.0123389
0.00253021
-0.00113949
0.017045
-0.0184357
0.000332807
0.004499
-0.0048318
-0.080018
0.0787111
0.00130693
-0.00410432
0.00417362
-0.444157
0.444088
-0.00292399
0.00093674
-0.62373
0.625717
0.00240686
-0.00603943
-0.763437
0.76707
0.0103152
-0.0143912
-0.889394
0.89347
0.0193596
-0.0234676
-1.01866
1.02277
0.0282886
-0.0324089
-1.16191
1.16604
0.0370048
-0.0408926
-1.31958
1.32347
0.04451
-0.046935
-1.49181
1.49423
0.0488325
-0.0494344
-1.67972
1.68033
0.0490585
-0.0472726
-1.58842
1.58664
0.0453082
-0.0426419
-1.27424
1.27157
0.0398798
-0.0360289
-1.01851
1.01465
0.0319994
-0.026889
-0.740776
0.735665
0.0218222
-0.0169098
-0.422751
0.417839
0.0135729
-0.0111063
-0.172984
0.170517
0.00927602
-0.00751617
-0.0381124
0.0363525
0.00591342
-0.0041576
0.0147259
-0.0164817
0.00263781
-0.00125509
0.0199119
-0.0212946
0.000384683
0.00512265
-0.00550733
-0.0798509
0.0788778
0.000973048
-0.00305987
0.00272498
-0.447098
0.447433
-0.00172751
-0.000240651
-0.62948
0.631448
0.00317141
-0.00659145
-0.770855
0.774275
0.0105817
-0.0146786
-0.897353
0.90145
0.018869
-0.0229988
-1.02703
1.03116
0.0275891
-0.0312834
-1.17051
1.1742
0.0357055
-0.0392487
-1.32702
1.33057
0.0425166
-0.0450367
-1.49691
1.49943
0.0468218
-0.0470159
-1.68074
1.68094
0.0460868
-0.0441677
-1.58476
1.58285
0.0419683
-0.0388155
-1.26843
1.26528
0.0355534
-0.0315336
-1.00989
1.00587
0.0269252
-0.0221322
-0.72779
0.722997
0.0176702
-0.0135843
-0.411196
0.40711
0.0110346
-0.00910873
-0.166779
0.164853
0.00773805
-0.00641614
-0.0338555
0.0325336
0.00519488
-0.00378421
0.0185241
-0.0199348
0.0024969
-0.00124656
0.0226714
-0.0239217
0.000407299
0.0057994
-0.0062067
-0.0800741
0.0792789
0.000795263
-0.00215571
0.00191184
-0.450082
0.450326
-0.000455899
-0.0012913
-0.63514
0.636887
0.00433488
-0.00755709
-0.777586
0.780809
0.0112983
-0.0148871
-0.90516
0.908749
0.0190898
-0.0227689
-1.03522
1.0389
0.0271401
-0.0311096
-1.17828
1.18225
0.0349188
-0.0385358
-1.33404
1.33765
0.0418857
-0.0440881
-1.50167
1.50387
0.0456882
-0.046024
-1.68112
1.68145
0.0448063
-0.0426772
-1.58048
1.57835
0.0399063
-0.036386
-1.2618
1.25828
0.0328307
-0.0282566
-1.00072
0.996149
0.0234975
-0.0185831
-0.71549
0.710576
0.0143995
-0.0107473
-0.401191
0.397539
0.00851377
-0.00693701
-0.161822
0.160245
0.00584747
-0.00491296
-0.0305294
0.0295949
0.00406893
-0.00307462
0.021525
-0.0225193
0.00210045
-0.00110115
0.0250613
-0.0260606
0.000382734
0.00646443
-0.00684717
-0.0805923
0.0799736
0.000618756
-0.00111464
0.000726697
-0.453101
0.453489
0.000532492
-0.00254087
-0.640266
0.642274
0.00547213
-0.0084841
-0.783926
0.786938
0.0122373
-0.0155978
-0.912272
0.915633
0.0195414
-0.0232412
-1.04301
1.04671
0.027381
-0.0311623
-1.18598
1.18976
0.0349996
-0.0384214
-1.34107
1.34449
0.0416533
-0.0442755
-1.5062
1.50883
0.0458282
-0.0458713
-1.68146
1.68151
0.0446576
-0.0420518
-1.57577
1.57317
0.039109
-0.0353494
-1.25434
1.25058
0.031154
-0.0261463
-0.990693
0.985685
0.0210686
-0.015826
-0.70337
0.698127
0.0117735
-0.00826954
-0.392256
0.388752
0.00622846
-0.00477275
-0.157583
0.156128
0.0039087
-0.00327216
-0.0279667
0.0273302
0.0027644
-0.00218027
0.0236511
-0.0242352
0.0015573
-0.000873925
0.0268667
-0.0275501
0.000336955
0.00703404
-0.00737099
-0.0813499
0.0808563
0.000493525
-0.000258112
-0.000222789
-0.456207
0.456687
0.00152613
-0.00354877
-0.645369