/*--------------------------------*- C++ -*----------------------------------*\
| =========                 |                                                 |
| \\      /  F ield         | OpenFOAM: The Open Source CFD Toolbox           |
|  \\    /   O peration     | Version:  2106                                  |
|   \\  /    A nd           | Website:  www.openfoam.com                      |
|    \\/     M anipulation  |                                                 |
\*---------------------------------------------------------------------------*/
FoamFile
{
    version     2.0;
    format      ascii;
    arch        "LSB;label=32;scalar=64";
    class       volScalarField;
    location    "8";
    object      T;
}
// * * * * * * * * * * * * * * * * * * * * * * * * * * * * * * * * * * * * * //

dimensions      [0 0 0 1 0 0 0];

internalField   nonuniform List<scalar> 
10000
(
-1.0302e-53
-8.76017e-54
-1.03453e-53
-4.31533e-54
-1.08158e-53
-8.05653e-54
3.37825e-53
-1.40582e-52
2.95342e-52
-2.44078e-52
-1.1054e-51
5.88298e-51
-1.42532e-50
1.1019e-50
5.96676e-50
-2.82669e-49
5.43536e-49
1.38347e-49
-4.06688e-48
1.14566e-47
-7.0516e-48
-5.39243e-47
1.90799e-46
-1.5594e-46
-7.97872e-46
2.84752e-45
-1.59252e-45
-1.36447e-44
3.72288e-44
8.1426e-45
-2.3034e-43
3.47371e-43
7.46934e-43
-3.06205e-42
1.23496e-43
1.66029e-41
-2.02802e-41
-6.70285e-41
1.72728e-40
2.00097e-40
-1.04872e-39
-3.1963e-40
5.49064e-39
-1.00256e-39
-2.6779e-38
1.23748e-38
1.27106e-37
-7.02158e-38
-5.99926e-37
2.669e-37
2.81167e-36
-4.11583e-37
-1.27644e-35
-4.12251e-36
5.34654e-35
5.21252e-35
-1.89174e-34
-3.72693e-34
4.45752e-34
1.95543e-33
2.98174e-34
-7.37835e-33
-1.02144e-32
1.48887e-32
5.90229e-32
3.09168e-32
-1.6747e-31
-3.7895e-31
-4.4857e-32
1.23098e-30
2.37407e-30
3.29227e-31
-7.15087e-30
-1.52899e-29
-8.58431e-30
2.99032e-29
9.15172e-29
1.12063e-28
-2.35962e-29
-4.02293e-28
-9.24622e-28
-1.1316e-27
-1.3767e-28
3.21094e-27
9.92357e-27
2.03176e-26
3.3579e-26
4.76904e-26
5.98532e-26
6.73089e-26
6.82472e-26
6.24303e-26
5.12625e-26
3.72872e-26
2.3338e-26
1.16996e-26
3.58495e-27
-9.05359e-28
-2.65325e-27
-2.09628e-27
-8.76017e-54
-7.4547e-54
-8.79205e-54
-3.6929e-54
-9.19614e-54
-6.67896e-54
2.7569e-53
-1.14697e-52
2.3544e-52
-1.68549e-52
-1.00309e-51
4.99507e-51
-1.16219e-50
7.32754e-51
5.54858e-50
-2.447e-49
4.46075e-49
2.04906e-49
-3.6547e-48
9.82897e-48
-5.01038e-48
-4.94481e-47
1.66686e-46
-1.22876e-46
-7.3221e-46
2.50195e-45
-1.23069e-45
-1.23755e-44
3.26702e-44
9.2756e-45
-2.06512e-43
3.023e-43
6.83245e-43
-2.72455e-42
2.79894e-44
1.49022e-41
-1.78994e-41
-6.0443e-41
1.54416e-40
1.80669e-40
-9.41803e-40
-2.85001e-40
4.93979e-39
-9.55766e-40
-2.41047e-38
1.16138e-38
1.14437e-37
-6.65275e-38
-5.40657e-37
2.60657e-37
2.54107e-36
-4.82681e-37
-1.16012e-35
-3.17528e-36
4.90699e-35
4.49212e-35
-1.76686e-34
-3.31839e-34
4.35448e-34
1.78175e-33
1.38575e-34
-6.90675e-33
-8.99294e-33
1.48367e-32
5.45076e-32
2.41624e-32
-1.62604e-31
-3.47834e-31
-6.95417e-33
1.19855e-30
2.19523e-30
8.91013e-32
-7.08949e-30
-1.44909e-29
-7.17655e-30
3.05982e-29
8.93721e-29
1.06325e-28
-2.90907e-29
-3.9792e-28
-9.00027e-28
-1.08936e-27
-1.12546e-28
3.13653e-27
9.62026e-27
1.96343e-26
3.23897e-26
4.59478e-26
5.76257e-26
6.47815e-26
6.56824e-26
6.01e-26
4.93778e-26
3.59514e-26
2.25374e-26
1.13309e-26
3.50246e-27
-8.43099e-28
-2.54686e-27
-2.02561e-27
-1.03453e-53
-8.79203e-54
-1.03982e-53
-4.29551e-54
-1.09455e-53
-7.96704e-54
3.41061e-53
-1.43357e-52
3.06327e-52
-2.74942e-52
-1.04766e-51
5.85683e-51
-1.45591e-50
1.245e-50
5.61674e-50
-2.79159e-49
5.5412e-49
7.82344e-50
-3.9327e-48
1.14045e-47
-7.73239e-48
-5.15634e-47
1.88177e-46
-1.62982e-46
-7.63596e-46
2.80235e-45
-1.68339e-45
-1.31732e-44
3.67081e-44
6.56297e-45
-2.24251e-43
3.44613e-43
7.18203e-43
-2.99804e-42
1.77773e-43
1.61742e-41
-1.99708e-41
-6.51342e-41
1.68794e-40
1.94393e-40
-1.02223e-39
-3.13533e-40
5.34729e-39
-9.35134e-40
-2.60776e-38
1.16938e-38
1.23781e-37
-6.59018e-38
-5.83878e-37
2.44741e-37
2.73104e-36
-3.17428e-37
-1.23482e-35
-4.41081e-36
5.13574e-35
5.2209e-35
-1.79406e-34
-3.65228e-34
4.08715e-34
1.88533e-33
3.82314e-34
-6.97733e-33
-1.00524e-32
1.34484e-32
5.62422e-32
3.23505e-32
-1.54166e-31
-3.61457e-31
-6.3503e-32
1.13085e-30
2.24467e-30
4.20194e-31
-6.51131e-30
-1.42072e-29
-8.26695e-30
2.71824e-29
8.42209e-29
1.02978e-28
-2.42582e-29
-3.78833e-28
-8.67361e-28
-1.0585e-27
-1.19433e-28
3.03566e-27
9.3574e-27
1.91455e-26
3.16342e-26
4.4924e-26
5.63793e-26
6.34013e-26
6.42848e-26
5.88059e-26
4.82877e-26
3.51261e-26
2.19898e-26
1.103e-26
3.38795e-27
-8.4228e-28
-2.49093e-27
-1.97153e-27
-4.31533e-54
-3.6929e-54
-4.29552e-54
-1.95356e-54
-4.3116e-54
-3.19476e-54
1.04264e-53
-3.92732e-53
5.22077e-53
9.33489e-53
-8.25542e-52
2.60898e-51
-3.88628e-51
-5.18468e-51
4.96163e-50
-1.45286e-49
1.58959e-49
4.84988e-49
-2.7175e-48
5.36477e-48
1.77115e-48
-4.05827e-47
1.02958e-46
-1.85913e-47
-6.00397e-46
1.59361e-45
-5.90105e-47
-9.50738e-45
2.04777e-44
1.50534e-44
-1.47889e-43
1.76917e-43
5.46382e-43
-1.85202e-42
-3.42085e-43
1.0666e-41
-1.14406e-41
-4.44184e-41
1.07193e-40
1.33884e-40
-6.71335e-40
-1.98302e-40
3.55534e-39
-8.9906e-40
-1.73829e-38
1.03217e-38
8.25461e-38
-6.18251e-38
-3.91959e-37
2.73963e-37
1.87219e-36
-8.25065e-37
-8.82765e-36
1.29201e-39
3.93911e-35
2.38399e-35
-1.54888e-34
-2.24216e-34
4.60962e-34
1.38313e-33
-4.50143e-34
-6.14813e-33
-5.71761e-33
1.68602e-32
4.57901e-32
2.78424e-33
-1.68865e-31
-2.86769e-31
1.263e-31
1.25824e-30
1.90157e-30
-6.82526e-31
-7.85012e-30
-1.40058e-29
-4.22007e-30
3.57238e-29
9.38619e-29
1.06283e-28
-3.44062e-29
-4.0185e-28
-8.90043e-28
-1.05948e-27
-8.57523e-29
3.08595e-27
9.36045e-27
1.89989e-26
3.12302e-26
4.41981e-26
5.53493e-26
6.21768e-26
6.30376e-26
5.77135e-26
4.74758e-26
3.46353e-26
2.17784e-26
1.10055e-26
3.44972e-27
-7.69973e-28
-2.44542e-27
-1.96488e-27
-1.08158e-53
-9.19614e-54
-1.09456e-53
-4.3116e-54
-1.22817e-53
-6.52881e-54
3.31029e-53
-1.55861e-52
3.73639e-52
-4.99984e-52
-5.43594e-52
5.34244e-51
-1.61046e-50
2.24155e-50
2.82026e-50
-2.43045e-49
6.12897e-49
-3.64105e-49
-2.84699e-48
1.07755e-47
-1.26449e-47
-3.32654e-47
1.66783e-46
-2.15557e-46
-5.01459e-46
2.46566e-45
-2.40668e-45
-9.63555e-45
3.3235e-44
-6.05918e-45
-1.80817e-43
3.33697e-43
5.03481e-43
-2.58711e-42
6.73998e-43
1.32942e-41
-1.8589e-41
-5.20081e-41
1.4585e-40
1.52627e-40
-8.61455e-40
-2.51114e-40
4.47095e-39
-5.94311e-40
-2.18132e-38
7.61125e-39
1.03781e-37
-3.85384e-38
-4.88097e-37
9.72404e-38
2.24687e-36
3.50199e-37
-9.7866e-36
-6.72081e-36
3.78574e-35
5.51524e-35
-1.13736e-34
-3.25234e-34
1.45074e-34
1.43431e-33
1.04285e-33
-4.19824e-33
-9.20328e-33
2.94201e-33
3.68356e-32
4.38997e-32
-5.73717e-32
-2.3454e-31
-1.97093e-31
3.97955e-31
1.25453e-30
9.58419e-31
-1.92452e-30
-5.84103e-30
-4.16899e-30
1.04344e-29
3.24412e-29
2.81788e-29
-6.0974e-29
-2.74724e-28
-5.46552e-28
-6.07682e-28
4.9523e-29
2.08112e-27
6.05673e-27
1.21476e-26
1.98757e-26
2.80732e-26
3.51256e-26
3.94433e-26
3.99845e-26
3.66129e-26
3.01377e-26
2.20237e-26
1.3904e-26
7.09862e-27
2.31429e-27
-3.78703e-28
-1.47533e-27
-1.23301e-27
-8.05658e-54
-6.67904e-54
-7.9671e-54
-3.19482e-54
-6.52886e-54
-1.17949e-53
4.3075e-53
-1.32661e-52
2.00375e-52
1.53028e-52
-2.13944e-51
7.35633e-51
-1.27588e-50
-5.40754e-51
1.11592e-49
-3.59483e-49
4.63879e-49
9.10667e-49
-6.03378e-48
1.26097e-47
1.81408e-48
-8.59506e-47
2.23484e-46
-4.99787e-47
-1.24727e-45
3.28462e-45
-2.38391e-47
-1.93526e-44
3.99932e-44
3.35429e-44
-2.89792e-43
3.15056e-43
1.09922e-42
-3.41943e-42
-1.10233e-42
1.99023e-41
-1.85645e-41
-8.41473e-41
1.83795e-40
2.64043e-40
-1.16296e-39
-4.79574e-40
6.15737e-39
-9.94023e-40
-2.99419e-38
1.5644e-38
1.40982e-37
-9.93152e-38
-6.63606e-37
4.5709e-37
3.15462e-36
-1.46575e-36
-1.49277e-35
7.38388e-37
6.76136e-35
3.64835e-35
-2.73541e-34
-3.7264e-34
8.55336e-34
2.42111e-33
-1.02766e-33
-1.12729e-32
-9.90676e-33
3.23266e-32
8.59947e-32
4.34666e-33
-3.25228e-31
-5.7003e-31
1.93754e-31
2.44415e-30
4.06314e-30
-3.33857e-31
-1.45529e-29
-3.02548e-29
-2.00694e-29
4.88632e-29
1.72542e-28
2.60174e-28
1.32881e-28
-3.67044e-28
-1.1464e-27
-1.60046e-27
-4.9944e-28
3.80075e-27
1.2775e-26
2.69406e-26
4.52139e-26
6.47902e-26
8.17333e-26
9.21437e-26
9.34573e-26
8.53385e-26
6.9779e-26
5.03762e-26
3.1119e-26
1.51937e-26
4.25084e-27
-1.63897e-27
-3.76718e-27
-2.76443e-27
3.37825e-53
2.7569e-53
3.41062e-53
1.04264e-53
3.31028e-53
4.3075e-53
-2.06553e-52
7.57642e-52
-1.66041e-51
1.73172e-51
4.32448e-51
-2.81038e-50
7.60945e-50
-9.03715e-50
-1.78677e-49
1.1844e-48
-2.71979e-48
1.0662e-48
1.37938e-47
-4.68313e-47
4.65801e-47
1.59376e-46
-6.91468e-46
7.57014e-46
2.29451e-45
-9.58256e-45
7.2459e-45
4.01173e-44
-1.18323e-43
-9.62135e-45
6.73277e-43
-1.0314e-42
-2.10674e-42
8.50881e-42
1.39102e-43
-4.50163e-41
4.88492e-41
1.83423e-40
-4.15273e-40
-5.92371e-40
2.49726e-39
1.39915e-39
-1.29539e-38
-1.27963e-39
6.2518e-38
-8.84668e-39
-2.92041e-37
5.73131e-38
1.34323e-36
-9.29621e-38
-6.05801e-36
-1.42054e-36
2.60998e-35
1.86898e-35
-1.01815e-34
-1.4629e-34
3.20663e-34
8.76248e-34
-5.19066e-34
-4.09826e-33
-2.38692e-33
1.35366e-32
2.66219e-32
-1.65812e-32
-1.26562e-31
-1.3163e-31
2.60542e-31
9.33732e-31
7.35773e-31
-1.95197e-30
-6.44444e-30
-6.54513e-30
7.71599e-30
3.86275e-29
6.37816e-29
3.08345e-29
-1.15098e-28
-3.70188e-28
-6.14468e-28
-6.25378e-28
-2.12051e-28
5.5631e-28
1.15277e-27
5.96727e-28
-2.23542e-27
-8.05969e-27
-1.66394e-26
-2.6564e-26
-3.55481e-26
-4.11957e-26
-4.19018e-26
-3.74797e-26
-2.92118e-26
-1.93181e-26
-1.01129e-26
-3.23959e-27
7.06663e-28
2.09136e-27
1.88687e-27
6.18995e-28
-1.40582e-52
-1.14697e-52
-1.43357e-52
-3.92731e-53
-1.55861e-52
-1.32662e-52
7.57643e-52
-3.05812e-51
7.24477e-51
-9.45725e-51
-1.0802e-50
1.03412e-49
-3.13659e-49
4.58639e-49
4.17623e-49
-4.32122e-48
1.13805e-47
-8.56437e-48
-4.47679e-47
1.82394e-46
-2.35207e-46
-4.72668e-46
2.61695e-45
-3.6052e-45
-6.94119e-45
3.64353e-44
-3.71695e-44
-1.33305e-43
4.63652e-43
-8.54715e-44
-2.42705e-42
4.30952e-42
6.83198e-42
-3.25836e-41
4.94526e-42
1.66179e-40
-2.02759e-40
-6.63892e-40
1.61041e-39
2.13315e-39
-9.48606e-39
-5.20892e-39
4.8964e-38
7.08262e-39
-2.36883e-37
9.08212e-39
1.1105e-36
-3.32501e-38
-5.09377e-36
-8.32975e-37
2.25621e-35
1.21464e-35
-9.28826e-35
-1.03835e-34
3.28737e-34
6.76202e-34
-8.11038e-34
-3.49778e-33
-1.81357e-34
1.37191e-32
1.6555e-32
-3.25169e-32
-1.05894e-31
-2.6388e-32
3.51506e-31
6.4358e-31
-2.00912e-31
-2.60046e-30
-3.95959e-30
1.40741e-30
1.58319e-29
2.72033e-29
6.31576e-30
-7.04752e-29
-1.74266e-28
-1.89163e-28
5.07613e-29
6.26615e-28
1.36719e-27
1.80493e-27
1.40428e-27
5.38325e-29
-1.42643e-27
-1.16236e-27
3.21868e-27
1.34376e-26
2.93319e-26
4.82712e-26
6.57004e-26
7.67347e-26
7.80822e-26
6.93909e-26
5.33331e-26
3.44389e-26
1.72996e-26
5.00018e-27
-1.56743e-27
-3.41549e-27
-2.54659e-27
-2.77868e-28
2.95341e-52
2.35439e-52
3.06327e-52
5.22072e-53
3.73637e-52
2.00375e-52
-1.66041e-51
7.24476e-51
-1.85456e-50
2.85719e-50
8.86713e-51
-2.20047e-49
7.6235e-49
-1.33905e-48
-1.64398e-49
8.93212e-48
-2.78487e-47
3.18185e-47
7.41288e-47
-4.04671e-46
6.73046e-46
6.15476e-46
-5.4949e-45
9.66614e-45
9.40444e-45
-7.55743e-44
1.03319e-43
2.20313e-43
-9.79346e-43
4.91588e-43
4.52687e-42
-9.52584e-42
-1.07301e-41
6.4392e-41
-2.08766e-41
-3.11628e-40
4.15028e-40
1.22221e-39
-3.04853e-39
-4.05278e-39
1.74377e-38
1.16511e-38
-8.91483e-38
-3.18492e-38
4.30903e-37
1.18324e-37
-2.01411e-36
-7.89895e-37
9.07332e-36
6.41413e-36
-3.82154e-35
-4.765e-35
1.40208e-34
3.03736e-34
-3.69551e-34
-1.61608e-33
1.76038e-35
6.76173e-33
7.56425e-33
-1.83565e-32
-5.43074e-32
-2.24645e-33
2.09578e-31
3.33094e-31
-2.56354e-31
-1.68776e-30
-2.0627e-30
2.30058e-30
1.18143e-29
1.56029e-29
-8.30864e-30
-7.03861e-29
-1.27689e-28
-6.21789e-29
2.57251e-28
8.00529e-28
1.17032e-27
5.67727e-28
-1.84791e-27
-6.15655e-27
-1.07088e-26
-1.15518e-26
-2.82707e-27
2.16348e-26
6.58872e-26
1.29484e-25
2.0619e-25
2.84527e-25
3.50229e-25
3.89957e-25
3.95105e-25
3.6436e-25
3.0414e-25
2.26704e-25
1.46592e-25
7.66624e-26
2.50617e-26
-5.69262e-27
-1.93875e-26
-1.67779e-26
-2.44076e-52
-1.68547e-52
-2.74941e-52
9.33505e-53
-4.99982e-52
1.5303e-52
1.73172e-51
-9.45724e-51
2.85719e-50
-5.5804e-50
3.59911e-50
2.23738e-49
-1.07339e-48
2.47803e-48
-1.95307e-48
-8.73176e-48
4.02381e-47
-7.27939e-47
-2.16946e-47
4.89842e-46
-1.21691e-45
3.78436e-46
5.94348e-45
-1.62158e-44
3.67672e-45
8.05985e-44
-1.81567e-43
-8.6395e-44
1.10638e-42
-1.36811e-42
-3.59506e-42
1.19546e-41
2.80281e-42
-6.24984e-41
5.01284e-41
2.595e-40
-4.41909e-40
-9.67089e-40
2.62139e-39
3.64253e-39
-1.36457e-38
-1.57595e-38
6.7758e-38
8.30431e-38
-3.27913e-37
-5.02945e-37
1.51686e-36
3.18599e-36
-6.3208e-36
-1.96967e-35
2.04022e-35
1.1313e-34
-1.85366e-35
-5.73539e-34
-4.15568e-34
2.3556e-33
4.39576e-33
-6.08391e-33
-2.73317e-32
-7.1844e-33
1.11192e-31
1.89177e-31
-1.90645e-31
-1.09241e-30
-1.02368e-30
2.62734e-30
8.78229e-30
6.35548e-30
-2.07924e-29
-6.5536e-29
-6.20074e-29
9.68101e-29
4.26912e-28
6.49184e-28
1.35614e-28
-1.6943e-27
-4.472e-27
-6.00271e-27
-2.49835e-27
9.07821e-27
2.66555e-26
3.85416e-26
2.19437e-26
-5.26492e-26
-2.10831e-25
-4.60637e-25
-7.81948e-25
-1.12509e-24
-1.42141e-24
-1.60335e-24
-1.62657e-24
-1.48507e-24
-1.21304e-24
-8.72802e-25
-5.34098e-25
-2.53395e-25
-6.06777e-26
4.1874e-26
7.71536e-26
5.40882e-26
-1.1054e-51
-1.00309e-51
-1.04765e-51
-8.25542e-52
-5.43596e-52
-2.13944e-51
4.32448e-51
-1.08019e-50
8.86714e-51
3.59909e-50
-2.11857e-49
5.8136e-49
-7.65218e-49
-1.11606e-48
9.14988e-48
-2.44664e-47
2.26257e-47
8.39244e-47
-4.06679e-46
7.02653e-46
4.71586e-46
-5.60947e-45
1.22267e-44
1.90632e-45
-7.67183e-44
1.7033e-43
5.67233e-44
-1.09257e-42
1.92619e-42
2.32997e-42
-1.4968e-41
1.35659e-41
5.86555e-41
-1.6482e-40
-7.04482e-41
9.69613e-40
-8.74057e-40
-4.02219e-39
8.94445e-39
1.17762e-38
-5.65667e-38
-1.40914e-38
2.97185e-37
-1.12791e-37
-1.43435e-36
1.16549e-36
6.75817e-36
-7.20928e-36
-3.23799e-35
3.5323e-35
1.60212e-34
-1.36458e-34
-8.04691e-34
3.06162e-34
3.91262e-33
1.04828e-33
-1.70678e-32
-1.89855e-32
5.80595e-32
1.43519e-31
-8.77266e-32
-7.19525e-31
-5.90021e-31
2.12703e-30
5.62303e-30
5.74062e-31
-2.10211e-29
-3.97315e-29
4.7235e-30
1.5536e-28
2.98504e-28
8.39771e-29
-8.3581e-28
-2.1533e-27
-2.28188e-27
1.26648e-27
9.75696e-27
2.00575e-26
2.31289e-26
7.71558e-27
-2.93113e-26
-6.94004e-26
-6.39731e-26
5.93233e-26
3.71883e-25
9.07594e-25
1.6307e-24
2.42684e-24
3.12733e-24
3.56157e-24
3.6165e-24
3.27781e-24
2.63408e-24
1.84301e-24
1.07574e-24
4.63509e-25
6.72485e-26
-1.21513e-25
-1.65512e-25
-9.43511e-26
5.88298e-51
4.99506e-51
5.85683e-51
2.60898e-51
5.34243e-51
7.35633e-51
-2.81038e-50
1.03412e-49
-2.20047e-49
2.23738e-49
5.81361e-49
-3.68086e-48
9.87503e-48
-1.17419e-47
-2.22868e-47
1.49206e-46
-3.43938e-46
1.4739e-46
1.67726e-45
-5.76789e-45
5.92751e-45
1.87506e-44
-8.33777e-44
9.43227e-44
2.65322e-43
-1.13917e-42
9.06708e-43
4.62875e-42
-1.39636e-41
-4.82043e-43
7.77813e-41
-1.21889e-40
-2.37892e-40
9.8416e-40
-1.14701e-41
-5.15072e-39
5.6797e-39
2.08633e-38
-4.75472e-38
-6.73998e-38
2.84274e-37
1.62192e-37
-1.47182e-36
-1.81868e-37
7.10651e-36
-7.13056e-37
-3.32411e-35
4.51434e-36
1.5291e-34
1.91799e-36
-6.8696e-34
-2.33484e-34
2.92497e-33
2.49739e-33
-1.1104e-32
-1.82274e-32
3.26732e-32
1.04005e-31
-3.58273e-32
-4.60379e-31
-3.73652e-31
1.37676e-30
3.25763e-30
-8.16378e-31
-1.36767e-29
-1.83039e-29
2.07296e-29
1.03241e-28
1.13447e-28
-1.5045e-28
-6.96594e-28
-9.31839e-28
3.26495e-28
3.78698e-27
7.7156e-27
6.64811e-27
-6.82235e-27
-3.6168e-26
-7.36403e-26
-9.78715e-26
-8.24164e-26
-1.51879e-26
8.0622e-26
1.39549e-25
7.24927e-26
-1.91434e-25
-6.58566e-25
-1.24698e-24
-1.80377e-24
-2.16108e-24
-2.20493e-24
-1.92346e-24
-1.40983e-24
-8.20055e-25
-3.08652e-25
2.64503e-26
1.6607e-25
1.57292e-25
7.5401e-26
-2.97879e-26
-1.42532e-50
-1.16219e-50
-1.45591e-50
-3.88629e-51
-1.61046e-50
-1.27588e-50
7.60946e-50
-3.13659e-49
7.62352e-49
-1.07339e-48
-7.6522e-49
9.87504e-48
-3.17059e-47
5.08893e-47
2.32977e-47
-3.94815e-46
1.12733e-45
-1.08198e-45
-3.59816e-45
1.67938e-44
-2.47666e-44
-3.36563e-44
2.29133e-43
-3.56224e-43
-4.95716e-43
3.09985e-42
-3.62055e-42
-1.01761e-41
3.8757e-41
-1.17099e-41
-1.9078e-40
3.53049e-40
5.14542e-40
-2.5322e-39
3.63019e-40
1.2686e-38
-1.44809e-38
-5.14102e-38
1.13331e-37
1.77783e-37
-6.62861e-37
-5.44679e-37
3.41518e-36
1.61897e-36
-1.64981e-35
-6.03899e-36
7.66616e-35
3.5234e-35
-3.42437e-34
-2.56682e-34
1.43109e-33
1.80753e-33
-5.239e-33
-1.12358e-32
1.40754e-32
5.9242e-32
-4.48869e-33
-2.49659e-31
-2.54091e-31
7.10499e-31
1.91041e-30
-2.37744e-31
-7.78393e-30
-1.08092e-29
1.24121e-29
6.11625e-29
6.07505e-29
-1.12225e-28
-4.30849e-28
-4.52316e-28
5.75145e-28
2.76778e-27
4.1222e-27
1.49369e-28
-1.30668e-26
-3.1825e-26
-3.7564e-26
2.4987e-27
1.19065e-25
3.08658e-25
4.98041e-25
5.26933e-25
1.6914e-25
-8.02933e-25
-2.52735e-24
-4.96906e-24
-7.88027e-24
-1.08276e-23
-1.32847e-23
-1.47656e-23
-1.4958e-23
-1.38133e-23
-1.15624e-23
-8.65144e-24
-5.61674e-24
-2.94214e-24
-9.44572e-25
2.64075e-25
8.17145e-25
7.19918e-25
1.1019e-50
7.32755e-51
1.24501e-50
-5.18467e-51
2.24155e-50
-5.40746e-51
-9.03715e-50
4.58639e-49
-1.33905e-48
2.47803e-48
-1.11606e-48
-1.17419e-47
5.08893e-47
-1.09008e-46
6.12392e-47
4.65204e-46
-1.86492e-45
2.96438e-45
2.2652e-45
-2.37486e-44
5.12882e-44
2.80009e-45
-2.96071e-43
6.78216e-43
1.23062e-43
-3.94904e-42
7.15834e-42
7.68471e-42
-5.09973e-41
4.25826e-41
1.98564e-40
-4.90219e-40
-3.85947e-40
2.88877e-39
-1.01065e-39
-1.33413e-38
1.52357e-38
5.53569e-38
-1.03893e-37
-2.27584e-37
5.78744e-37
1.00831e-36
-2.96095e-36
-5.036e-36
1.435e-35
2.79169e-35
-6.49808e-35
-1.62748e-34
2.58958e-34
9.41107e-34
-7.56467e-34
-5.11955e-33
4.57819e-35
2.47238e-32
2.11037e-32
-9.63429e-32
-1.95585e-31
2.25796e-31
1.14293e-30
4.28762e-31
-4.40071e-30
-8.0111e-30
6.61866e-30
4.33643e-29
4.4061e-29
-9.70097e-29
-3.4476e-28
-2.697e-28
7.69185e-28
2.52353e-27
2.46151e-27
-3.56564e-27
-1.61889e-26
-2.45986e-26
-4.56065e-27
6.585e-26
1.70645e-25
2.21239e-25
6.53259e-26
-4.21327e-25
-1.16385e-24
-1.71073e-24
-1.17439e-24
1.59895e-24
7.61485e-24
1.71979e-23
2.9577e-23
4.28287e-23
5.42882e-23
6.13306e-23
6.22313e-23
5.67573e-23
4.62377e-23
3.30946e-23
2.00361e-23
9.25033e-24
1.89252e-24
-1.96366e-24
-3.22608e-24
-2.20572e-24
5.96674e-50
5.54857e-50
5.61673e-50
4.96163e-50
2.82026e-50
1.11591e-49
-1.78676e-49
4.1762e-49
-1.64395e-49
-1.95307e-48
9.14988e-48
-2.22868e-47
2.32976e-47
6.12393e-47
-3.68321e-46
8.73212e-46
-5.75637e-46
-3.59203e-45
1.46759e-44
-2.20831e-44
-2.43763e-44
1.98738e-43
-3.88835e-43
-1.52045e-43
2.60864e-42
-5.33375e-42
-2.53427e-42
3.53182e-41
-5.9822e-41
-7.46198e-41
4.69191e-40
-4.47433e-40
-1.76316e-39
5.29413e-39
1.27394e-39
-3.01609e-38
3.41892e-38
1.17334e-37
-3.18058e-37
-2.83552e-37
1.95151e-36
-1.70265e-37
-1.01041e-35
7.28935e-36
4.86126e-35
-5.75004e-35
-2.31602e-34
3.3464e-34
1.14016e-33
-1.62297e-33
-5.85925e-33
6.40088e-33
3.05606e-32
-1.60387e-32
-1.52819e-31
-2.96203e-32
6.75664e-31
7.30246e-31
-2.2851e-30
-5.66431e-30
3.18766e-30
2.80803e-29
2.49973e-29
-7.88354e-29
-2.22644e-28
-5.16308e-29
7.76369e-28
1.59841e-27
1.19612e-28
-5.60392e-27
-1.18936e-26
-5.70196e-27
2.78476e-26
8.16725e-26
1.00605e-25
-1.22314e-26
-3.2542e-25
-7.61684e-25
-1.02125e-24
-6.72519e-25
5.23574e-25
2.15113e-24
2.8118e-24
2.57019e-25
-7.86277e-24
-2.28235e-23
-4.37497e-23
-6.72603e-23
-8.81912e-23
-1.01246e-22
-1.02899e-22
-9.27139e-23
-7.34698e-23
-5.00683e-23
-2.77512e-23
-1.04266e-23
2.41697e-25
4.74662e-24
5.15638e-24
2.42898e-24
-2.82669e-49
-2.447e-49
-2.79159e-49
-1.45286e-49
-2.43045e-49
-3.59483e-49
1.18441e-48
-4.32122e-48
8.93214e-48
-8.73179e-48
-2.44664e-47
1.49206e-46
-3.94815e-46
4.65204e-46
8.73212e-46
-5.81724e-45
1.33741e-44
-5.99434e-45
-6.3202e-44
2.18352e-43
-2.28384e-43
-6.82868e-43
3.07848e-42
-3.54456e-42
-9.45284e-42
4.12036e-41
-3.36614e-41
-1.63166e-40
4.96703e-40
5.90275e-42
-2.71549e-39
4.27197e-39
8.19084e-39
-3.39242e-38
3.31116e-40
1.75983e-37
-1.90922e-37
-7.11557e-37
1.58837e-36
2.32556e-36
-9.4562e-36
-5.90008e-36
4.88522e-35
9.27912e-36
-2.35683e-34
3.8606e-36
1.10138e-33
-3.47623e-35
-5.04999e-33
-6.97894e-34
2.24994e-32
1.10296e-32
-9.41318e-32
-9.82763e-32
3.44525e-31
6.65214e-31
-9.20187e-31
-3.6008e-30
2.65826e-31
1.50076e-29
1.63494e-29
-3.95739e-29
-1.17647e-28
-1.34289e-29
4.33861e-28
7.4826e-28
-3.64847e-28
-3.43047e-27
-5.0849e-27
2.41891e-27
2.30173e-26
4.06148e-26
1.10161e-26
-1.11361e-25
-3.01292e-25
-3.82305e-25
-2.46397e-26
1.09694e-24
2.9974e-24
5.08231e-24
6.09295e-24
4.45434e-24
-1.05122e-24
-1.06167e-23
-2.31542e-23
-3.66479e-23
-4.89514e-23
-5.85649e-23
-6.49534e-23
-6.82636e-23
-6.87418e-23
-6.6291e-23
-6.05253e-23
-5.12603e-23
-3.90597e-23
-2.54302e-23
-1.24527e-23
-2.19168e-24
4.55515e-24
6.63846e-24
5.43535e-49
4.46074e-49
5.5412e-49
1.58959e-49
6.12896e-49
4.63879e-49
-2.71979e-48
1.13805e-47
-2.78487e-47
4.02381e-47
2.26257e-47
-3.43938e-46
1.12733e-45
-1.86492e-45
-5.75641e-46
1.33741e-44
-3.93027e-44
4.05047e-44
1.14415e-43
-5.64071e-43
8.66933e-43
1.00605e-42
-7.47207e-42
1.20185e-41
1.48727e-41
-9.88074e-41
1.18548e-40
3.12641e-40
-1.20623e-39
3.66444e-40
5.83073e-39
-1.05216e-38
-1.60793e-38
7.46214e-38
-3.19816e-39
-3.76028e-37
3.67399e-37
1.57524e-36
-2.96112e-36
-5.91315e-36
1.74999e-35
2.1395e-35
-9.07785e-35
-8.28626e-35
4.39246e-34
3.83615e-34
-2.01923e-33
-2.14079e-33
8.71171e-33
1.29862e-32
-3.35797e-32
-7.69639e-32
1.00929e-31
4.14643e-31
-1.06397e-31
-1.90245e-30
-1.41109e-30
6.62628e-30
1.35745e-29
-1.10352e-29
-7.05576e-29
-5.28098e-29
2.07122e-28
5.29401e-28
4.36789e-29
-1.97317e-27
-3.65117e-27
6.85503e-28
1.47838e-26
2.68072e-26
2.24164e-27
-8.92247e-26
-2.0288e-25
-1.55681e-25
3.11626e-25
1.24821e-24
2.05785e-24
1.26152e-24
-3.03977e-24
-1.17044e-23
-2.24119e-23
-2.79105e-23
-1.60699e-23
2.73017e-23
1.13155e-22
2.43169e-22
4.05653e-22
5.75749e-22
7.20752e-22
8.09201e-22
8.20595e-22
7.52012e-22
6.19026e-22
4.50607e-22
2.80024e-22
1.35341e-22
3.28051e-23
-2.43917e-23
-4.64331e-23
-3.53653e-23
1.38346e-49
2.04906e-49
7.82327e-50
4.84988e-49
-3.64104e-49
9.10663e-49
1.06621e-48
-8.56438e-48
3.18186e-47
-7.27938e-47
8.39242e-47
1.47391e-46
-1.08198e-45
2.96437e-45
-3.59202e-45
-5.99435e-45
4.05048e-44
-8.88837e-44
2.73231e-44
4.26577e-43
-1.29227e-42
9.56677e-43
4.62233e-42
-1.55986e-41
9.77294e-42
5.89536e-41
-1.59317e-40
-5.56273e-42
7.5456e-40
-1.06257e-39
-1.97074e-39
6.66618e-39
2.34885e-39
-2.84369e-38
-4.68399e-40
1.23824e-37
3.61914e-38
-7.16851e-37
-4.14231e-37
4.94126e-36
2.4498e-36
-3.36025e-35
-1.05048e-35
2.13047e-34
4.55318e-35
-1.26302e-33
-3.2622e-34
7.0539e-33
3.29511e-33
-3.68518e-32
-3.15487e-32
1.74582e-31
2.57494e-31
-6.95649e-31
-1.76564e-30
1.85044e-30
9.96018e-30
1.50895e-30
-4.33008e-29
-5.77106e-29
1.15511e-28
4.02347e-28
9.16521e-29
-1.51735e-27
-2.79188e-27
1.32839e-27
1.31659e-26
1.90731e-26
-1.25953e-26
-9.43246e-26
-1.48758e-25
1.15759e-26
5.27123e-25
1.14446e-24
9.5552e-25
-1.26672e-24
-5.82663e-24
-1.04573e-23
-9.77123e-24
2.40902e-24
2.73161e-23
5.41572e-23
5.61721e-23
-5.46711e-24
-1.68269e-22
-4.49321e-22
-8.28943e-22
-1.24657e-21
-1.61374e-21
-1.84136e-21
-1.87042e-21
-1.6933e-21
-1.356e-21
-9.40872e-22
-5.37821e-22
-2.16395e-22
-9.46498e-24
8.66852e-23
1.05758e-22
5.99888e-23
-4.06687e-48
-3.6547e-48
-3.93269e-48
-2.7175e-48
-2.84698e-48
-6.03378e-48
1.37938e-47
-4.47677e-47
7.41287e-47
-2.16945e-47
-4.0668e-46
1.67726e-45
-3.59815e-45
2.26518e-45
1.46759e-44
-6.32019e-44
1.14415e-43
2.73239e-44
-7.73726e-43
2.08791e-42
-1.25736e-42
-8.8991e-42
3.03754e-41
-2.39594e-41
-1.17214e-40
4.02876e-40
-2.13869e-40
-1.81039e-39
4.74695e-39
1.10226e-39
-2.78451e-38
4.03877e-38
8.63118e-38
-3.41689e-37
1.07905e-38
1.77882e-36
-2.13781e-36
-6.89901e-36
1.76853e-35
1.96149e-35
-1.04626e-34
-2.71096e-35
5.36536e-34
-1.26435e-34
-2.58102e-33
1.36081e-33
1.2195e-32
-7.63781e-33
-5.79365e-32
2.98647e-32
2.7637e-31
-5.45282e-32
-1.28758e-30
-3.95445e-31
5.545e-30
5.61226e-30
-1.99234e-29
-4.21212e-29
4.40398e-29
2.2644e-28
8.20989e-29
-8.32317e-28
-1.47209e-27
1.2018e-27
7.70215e-27
7.95108e-27
-1.58432e-26
-5.88982e-26
-5.34501e-26
1.0837e-25
4.16244e-25
5.18451e-25
-2.66707e-25
-2.35191e-24
-4.74641e-24
-4.22075e-24
3.88344e-24
2.24486e-23
4.8105e-23
6.86529e-23
6.58602e-23
2.44716e-23
-5.63284e-23
-1.56231e-22
-2.38251e-22
-2.64692e-22
-2.17431e-22
-1.10799e-22
1.16517e-23
9.66659e-23
1.06924e-22
3.92831e-23
-7.46072e-23
-1.84827e-22
-2.47256e-22
-2.42369e-22
-1.7976e-22
-9.01203e-23
-4.47362e-24
5.52081e-23
1.14566e-47
9.82896e-48
1.14045e-47
5.36476e-48
1.07755e-47
1.26098e-47
-4.68312e-47
1.82393e-46
-4.04671e-46
4.89842e-46
7.02653e-46
-5.76788e-45
1.67938e-44
-2.37485e-44
-2.20831e-44
2.18351e-43
-5.64071e-43
4.26576e-43
2.08791e-42
-8.44806e-42
1.08755e-41
2.03772e-41
-1.13179e-40
1.54508e-40
2.84701e-40
-1.47592e-39
1.45614e-39
5.24477e-39
-1.74953e-38
1.96755e-39
8.99379e-38
-1.459e-37
-2.6588e-37
1.09999e-36
5.77432e-38
-5.66129e-36
5.25753e-36
2.3701e-35
-4.44166e-35
-8.66019e-35
2.65896e-34
2.93027e-34
-1.3824e-33
-1.01422e-33
6.68747e-33
4.21456e-33
-3.08935e-32
-2.28621e-32
1.35959e-31
1.44233e-31
-5.5223e-31
-9.08682e-31
1.9091e-30
5.23832e-30
-4.31545e-30
-2.61074e-29
-5.87887e-30
1.04022e-28
1.38789e-28
-2.65732e-28
-9.03945e-28
-1.42372e-28
3.41704e-27
5.72368e-27
-4.28116e-27
-2.93079e-26
-3.4897e-26
4.69214e-26
2.19662e-25
2.63392e-25
-2.5432e-25
-1.48816e-24
-2.40526e-24
-3.50183e-25
7.40039e-24
1.93119e-23
2.43181e-23
6.49759e-25
-7.52582e-23
-2.07747e-22
-3.55129e-22
-4.11723e-22
-2.15345e-22
4.11251e-22
1.59245e-21
3.32891e-21
5.45496e-21
7.6488e-21
9.50131e-21
1.06256e-20
1.0771e-20
9.90045e-21
8.20253e-21
6.03295e-21
3.80797e-21
1.88896e-21
4.97201e-22
-3.07085e-22
-6.42534e-22
-5.18619e-22
-7.05158e-48
-5.01035e-48
-7.73237e-48
1.77117e-48
-1.26448e-47
1.81408e-48
4.658e-47
-2.35207e-46
6.73047e-46
-1.21691e-45
4.71588e-46
5.9275e-45
-2.47666e-44
5.12882e-44
-2.43764e-44
-2.28384e-43
8.66933e-43
-1.29227e-42
-1.25736e-42
1.08755e-41
-2.17933e-41
-5.35996e-42
1.32515e-40
-2.72817e-40
-1.21604e-40
1.68641e-39
-2.56626e-39
-4.14197e-39
1.98492e-38
-9.10186e-39
-8.6427e-38
1.52477e-37
2.56218e-37
-9.98454e-37
-4.19956e-37
5.23959e-36
-9.83556e-37
-2.60921e-35
1.47087e-35
1.32502e-34
-1.04276e-34
-6.98444e-34
6.06681e-34
3.78569e-33
-3.04601e-33
-2.07472e-32
1.22925e-32
1.12704e-31
-2.69025e-32
-5.90733e-31
-1.46749e-31
2.87011e-30
2.54736e-30
-1.20779e-29
-2.17672e-29
3.75264e-29
1.3644e-28
-2.81321e-29
-6.40277e-28
-6.48011e-28
1.92643e-27
5.37642e-27
-2.37842e-28
-2.23219e-26
-3.48392e-26
2.92394e-26
1.85709e-25
2.29509e-25
-2.5035e-25
-1.32533e-24
-1.8215e-24
7.38768e-25
7.7411e-24
1.48398e-23
9.2373e-24
-2.4235e-23
-8.495e-23
-1.34575e-22
-9.30266e-23
1.24066e-22
5.21963e-22
9.29142e-22
9.48731e-22
2.22249e-23
-2.37614e-21
-6.47079e-21
-1.19609e-20
-1.79708e-20
-2.32384e-20
-2.64991e-20
-2.69173e-20
-2.43832e-20
-1.95458e-20
-1.35733e-20
-7.74935e-21
-3.078e-21
-4.71319e-23
1.3765e-21
1.67174e-21
9.80581e-22
-5.39244e-47
-4.94482e-47
-5.15635e-47
-4.05828e-47
-3.32655e-47
-8.59507e-47
1.59376e-46
-4.72668e-46
6.15478e-46
3.78434e-46
-5.60948e-45
1.87507e-44
-3.36563e-44
2.80008e-45
1.98738e-43
-6.82869e-43
1.00605e-42
9.56683e-43
-8.89911e-42
2.03773e-41
-5.36005e-42
-1.03828e-40
3.02915e-40
-1.6976e-40
-1.30792e-39
3.99632e-39
-1.58265e-39
-1.88443e-38
4.70982e-38
1.2172e-38
-2.79798e-37
4.22976e-37
8.15056e-37
-3.54523e-36
7.95833e-37
1.78422e-35
-2.66753e-35
-6.35215e-35
2.07397e-34
1.35566e-34
-1.1951e-33
1.82549e-34
6.0352e-33
-4.11426e-33
-2.89007e-32
2.97555e-32
1.38211e-31
-1.60946e-31
-6.79051e-31
7.04662e-31
3.41817e-30
-2.24839e-30
-1.7035e-29
1.45195e-30
7.91809e-29
5.12302e-29
-3.12312e-28
-5.16329e-28
8.33655e-28
3.15661e-27
3.00634e-28
-1.28052e-26
-1.91932e-26
2.32668e-26
1.13454e-25
9.84227e-26
-2.64631e-25
-8.61798e-25
-6.79106e-25
1.7788e-24
6.15654e-24
7.15754e-24
-4.9562e-24
-3.54192e-23
-6.87557e-23
-5.76139e-23
6.42337e-23
3.34743e-22
6.99298e-22
9.74983e-22
8.92534e-22
2.2688e-22
-1.03818e-21
-2.61405e-21
-3.97e-21
-4.55916e-21
-4.10624e-21
-2.7914e-21
-1.2076e-21
-8.89227e-23
4.81247e-23
-8.39969e-22
-2.31484e-21
-3.68744e-21
-4.35527e-21
-4.06474e-21
-2.97223e-21
-1.5285e-21
-1.84878e-22
7.69648e-22
1.90798e-46
1.66686e-46
1.88177e-46
1.02958e-46
1.66783e-46
2.23484e-46
-6.91467e-46
2.61695e-45
-5.4949e-45
5.94348e-45
1.22267e-44
-8.33776e-44
2.29133e-43
-2.96071e-43
-3.88835e-43
3.07847e-42
-7.47207e-42
4.62231e-42
3.03754e-41
-1.13179e-40
1.32515e-40
3.02914e-40
-1.50905e-39
1.89347e-39
4.11429e-39
-1.93668e-38
1.72062e-38
7.17542e-38
-2.24276e-37
4.36089e-39
1.17923e-36
-1.80677e-36
-3.58756e-36
1.39788e-35
1.59709e-36
-7.25435e-35
6.37532e-35
3.04689e-34
-5.53862e-34
-1.11355e-33
3.33868e-33
3.75282e-33
-1.73932e-32
-1.28348e-32
8.42124e-32
5.22939e-32
-3.897e-31
-2.79712e-31
1.72276e-30
1.76399e-30
-7.06614e-30
-1.12095e-29
2.49381e-29
6.55255e-29
-5.99196e-29
-3.32951e-28
-4.91597e-29
1.36544e-27
1.69731e-27
-3.70389e-27
-1.1692e-26
-5.51465e-28
4.66412e-26
7.27128e-26
-6.93593e-26
-4.01925e-25
-4.37355e-25
7.3763e-25
3.07494e-24
3.3982e-24
-4.27022e-24
-2.16089e-23
-3.31803e-23
-8.10637e-25
1.13256e-22
2.83567e-22
3.45607e-22
-2.03099e-23
-1.15937e-21
-3.13746e-21
-5.35249e-21
-6.2729e-21
-3.54435e-21
5.41126e-21
2.24104e-20
4.74772e-20
7.82202e-20
1.09977e-19
1.36809e-19
1.531e-19
1.55208e-19
1.42596e-19
1.18004e-19
8.65972e-20
5.44155e-20
2.66963e-20
6.63939e-21
-4.89255e-21
-9.64258e-21
-7.69457e-21
-1.5594e-46
-1.22876e-46
-1.62982e-46
-1.85915e-47
-2.15557e-46
-4.99796e-47
7.57014e-46
-3.6052e-45
9.66616e-45
-1.62157e-44
1.90629e-45
9.43227e-44
-3.56224e-43
6.78216e-43
-1.52044e-43
-3.54456e-42
1.20186e-41
-1.55986e-41
-2.39595e-41
1.54508e-40
-2.72817e-40
-1.6976e-40
1.89347e-39
-3.35599e-39
-2.93922e-39
2.35482e-38
-2.88428e-38
-7.08696e-38
2.61555e-37
-3.0429e-38
-1.27171e-36
1.70799e-36
4.47675e-36
-1.28494e-35
-1.16924e-35
7.34738e-35
1.51979e-35
-3.88752e-34
8.05112e-35
2.04038e-33
-9.48838e-34
-1.08359e-32
6.38089e-33
5.81786e-32
-3.3203e-32
-3.13162e-31
1.25742e-31
1.66521e-30
-1.37324e-31