/*--------------------------------*- C++ -*----------------------------------*\
  =========                 |
  \\      /  F ield         | OpenFOAM: The Open Source CFD Toolbox
   \\    /   O peration     | Website:  https://openfoam.org
    \\  /    A nd           | Version:  6
     \\/     M anipulation  |
\*---------------------------------------------------------------------------*/
FoamFile
{
    version     2.0;
    format      ascii;
    class       surfaceScalarField;
    location    "14.7";
    object      phi;
}
// * * * * * * * * * * * * * * * * * * * * * * * * * * * * * * * * * * * * * //

dimensions      [0 3 -1 0 0 0 0];

internalField   nonuniform List<scalar> 
17370
(
-0.0899958
0.089843
0.289164
-0.0714569
0.0537515
0.364481
-0.0381182
0.0276766
0.42661
-0.0195971
0.0145408
0.504308
-0.0106851
0.00819268
0.601895
-0.00619247
0.00481785
0.720432
-0.00365848
0.0028301
0.863735
-0.00211796
0.00158988
1.03598
-0.00109884
0.000704071
1.2429
-0.000309744
-5.3604e-05
1.49155
0.000412053
-0.000809723
1.49159
0.00120615
-0.00169494
1.24318
0.00221784
-0.00292011
1.03634
0.00373872
-0.00488736
0.864055
0.00625195
-0.00824456
0.72105
0.0107339
-0.0145857
0.603066
0.0196376
-0.027711
0.507513
0.0381468
-0.0537746
0.431796
0.0714755
-0.0898554
0.365155
0.0900032
0.199008
-0.128165
0.0882989
0.039866
-0.364623
0.353454
-0.0745708
0.0857393
-0.446464
0.454345
-0.0841913
0.0763102
-0.521127
0.529837
-0.0681919
0.0594818
-0.612756
0.621531
-0.0513041
0.042529
-0.726913
0.734171
-0.0350661
0.0278078
-0.867472
0.872554
-0.0222024
0.0171196
-1.03847
1.04183
-0.0133635
0.0100024
-1.24462
1.24695
-0.00748069
0.00515183
-1.49269
1.49456
-0.0032885
0.0014216
-1.49242
1.49411
0.000256049
-0.00194133
-1.24401
1.24584
0.00377939
-0.00561579
-1.0375
1.03999
0.00791589
-0.0104069
-0.866074
0.869805
0.0137343
-0.0174656
-0.7244
0.729981
0.0225234
-0.0281048
-0.608719
0.616151
0.0353315
-0.0427628
-0.514864
0.52302
0.0515077
-0.0596629
-0.43983
0.447932
0.0683514
-0.0764536
-0.375315
0.376837
0.0843147
-0.0858365
-0.257395
0.22265
0.0746366
-0.0398911
-0.0686152
0.0588453
0.00976981
-0.0514705
0.0579821
-0.374217
0.367705
-0.0570265
0.0532253
-0.453687
0.457488
-0.0480569
0.0440034
-0.527994
0.532047
-0.0400478
0.0363153
-0.621465
0.625198
-0.032197
0.0282625
-0.735241
0.739175
-0.0239498
0.0200039
-0.874223
0.878169
-0.0158811
0.0123281
-1.04329
1.04684
-0.00875737
0.00571037
-1.24838
1.25143
-0.0024973
-0.000535848
-1.49652
1.49955
0.00355138
-0.00671975
-1.49708
1.50025
0.00971471
-0.0132204
-1.24992
1.25343
0.0167096
-0.020757
-1.04586
1.04991
0.0246287
-0.0288648
-0.87776
0.881996
0.0327424
-0.036814
-0.739859
0.743931
0.040503
-0.0444061
-0.62685
0.630753
0.0484136
-0.0535386
-0.534996
0.540121
0.0572973
-0.0582041
-0.457668
0.458575
0.0516377
-0.0316807
-0.336014
0.316057
0.00979735
-0.0685352
0.0587379
-0.0531861
0.0492893
0.00389676
-0.0325339
0.0428591
-0.358419
0.348093
-0.0464547
0.045867
-0.459355
0.459943
-0.0429464
0.0397267
-0.53588
0.5391
-0.0360206
0.032763
-0.628591
0.631849
-0.0293599
0.0262707
-0.742461
0.74555
-0.0229063
0.0197539
-0.881565
0.884717
-0.0162804
0.0130501
-1.05027
1.0535
-0.00951871
0.00628515
-1.25468
1.25792
-0.00270041
-0.000716574
-1.50287
1.50629
0.00411771
-0.00765063
-1.50373
1.50726
0.0108302
-0.0142849
-1.257
1.26046
0.0174286
-0.0208103
-1.05356
1.05695
0.0238851
-0.0271604
-0.885513
0.888788
0.0301644
-0.0334899
-0.747399
0.750725
0.036686
-0.0403311
-0.634592
0.638237
0.0434951
-0.0463534
-0.544368
0.547226
0.0468765
-0.0431913
-0.45695
0.453265
0.0327622
-0.0157603
-0.29707
0.280068
0.00393182
-0.053049
0.0491172
-0.0463229
0.0439796
0.00234337
-0.021566
0.031409
-0.337752
0.327909
-0.0368256
0.0375996
-0.459746
0.458972
-0.0362251
0.0339064
-0.54172
0.544038
-0.0313582
0.0289477
-0.634745
0.637156
-0.0261238
0.0234825
-0.748463
0.751104
-0.0205686
0.0179696
-0.887561
0.89016
-0.0150874
0.0123898
-1.05643
1.05913
-0.00925318
0.00617561
-1.26109
1.26417
-0.0025446
-0.00105137
-1.50985
1.51345
0.00461959
-0.00817421
-1.51085
1.5144
0.0111484
-0.0141478
-1.26369
1.26669
0.0167194
-0.0194673
-1.05993
1.06268
0.0219511
-0.0247444
-0.891832
0.894625
0.027278
-0.0299737
-0.753862
0.756558
0.0322786
-0.0347277
-0.641252
0.643702
0.036972
-0.0382499
-0.549168
0.550446
0.0373775
-0.0318248
-0.448385
0.442832
0.0218401
-0.0094792
-0.265466
0.253105
0.00238362
-0.0461139
0.0437303
-0.0420886
0.0405438
0.0015448
-0.0149182
0.0232821
-0.318738
0.310374
-0.0292842
0.0312615
-0.457546
0.455569
-0.0309364
0.0294374
-0.546007
0.547507
-0.0274232
0.0254646
-0.639285
0.641244
-0.0232775
0.021229
-0.753402
0.755451
-0.0187947
0.0163795
-0.892684
0.895099
-0.0135569
0.0108868
-1.06181
1.06448
-0.00787111
0.00503816
-1.26712
1.26996
-0.00179551
-0.0013166
-1.51682
1.51993
0.00440041
-0.00757022
-1.51777
1.52094
0.010301
-0.0131848
-1.26964
1.27253
0.0157067
-0.0183463
-1.06542
1.06806
0.0205909
-0.0228424
-0.897139
0.89939
0.0247542
-0.0268099
-0.758845
0.760901
0.0286482
-0.030527
-0.645886
0.647765
0.0319044
-0.0320928
-0.551134
0.551322
0.0299731
-0.0237883
-0.436822
0.430637
0.0152469
-0.00635305
-0.242614
0.23372
0.00159434
-0.0417933
0.040199
-0.0392801
0.0382655
0.00101465
-0.00978629
0.0161908
-0.302954
0.296549
-0.0217239
0.0241546
-0.453306
0.450875
-0.0244337
0.0236587
-0.548605
0.54938
-0.0223243
0.0210449
-0.642851
0.64413
-0.019523
0.0179691
-0.757258
0.758812
-0.0161002
0.0142359
-0.897263
0.899127
-0.0120124
0.00977177
-1.067
1.06924
-0.00709728
0.00444774
-1.27272
1.27537
-0.00133165
-0.00173664
-1.52299
1.52606
0.00476405
-0.0077588
-1.52403
1.52702
0.0102421
-0.0127039
-1.27524
1.2777
0.0147499
-0.0167657
-1.07043
1.07245
0.0184376
-0.020094
-0.901347
0.903004
0.0214735
-0.0227866
-0.762598
0.763911
0.0238877
-0.025052
-0.649253
0.650417
0.0256705
-0.0252123
-0.551166
0.550708
0.0225863
-0.0168087
-0.424588
0.418811
0.0101833
-0.00415358
-0.226291
0.220261
0.00107615
-0.038881
0.0378048
-0.0375132
0.0370309
0.000482272
-0.00511065
0.00932308
-0.291224
0.287012
-0.0139234
0.0166414
-0.448266
0.445548
-0.0176601
0.0176265
-0.549796
0.54983
-0.016874
0.0160085
-0.64518
0.646046
-0.0149687
0.0138609
-0.760155
0.761263
-0.0125058
0.0111076
-0.900738
0.902137
-0.00937371
0.00760293
-1.07121
1.07298
-0.00541932
0.00319759
-1.27782
1.28004
-0.000471464
-0.00228582
-1.52903
1.53179
0.00498373
-0.00755222
-1.52984
1.53241
0.00958337
-0.0115163
-1.27989
1.28182
0.0130268
-0.0144598
-1.07414
1.07557
0.0155802
-0.0166407
-0.904354
0.905414
0.0174155
-0.0181879
-0.764943
0.765715
0.0188238
-0.019353
-0.651278
0.651807
0.0191619
-0.0178879
-0.549855
0.548581
0.0149147
-0.010026
-0.413394
0.408506
0.00556729
-0.00214828
-0.215595
0.212176
0.000554761
-0.0369849
0.0364301
-0.0367775
0.0366842
9.32025e-05
-0.00203006
0.00437743
-0.283836
0.281489
-0.00753941
0.00986789
-0.44293
0.440602
-0.0111792
0.0115471
-0.549593
0.549225
-0.0113435
0.0109726
-0.646683
0.647054
-0.01049
0.00998076
-0.762023
0.762532
-0.00923951
0.00833718
-0.903287
0.90419
-0.0070691
0.0056446
-1.07459
1.07601
-0.00381252
0.00190084
-1.28208
1.284
0.000441079
-0.00278746
-1.53431
1.53665
0.00507474
-0.00723524
-1.53474
1.5369
0.00890121
-0.0104025
-1.28354
1.28504
0.0114881
-0.0123589
-1.07673
1.0776
0.0128842
-0.0132237
-0.906079
0.906419
0.0134771
-0.0136444
-0.766202
0.76637
0.0137685
-0.013672
-0.652021
0.651924
0.0130273
-0.0114037
-0.547036
0.545413
0.00876957
-0.00526214
-0.404304
0.400796
0.00261038
-0.000875781
-0.209756
0.208022
0.000185308
-0.0360969
0.0359116
-0.036677
0.0366972
-2.01416e-05
-0.000985415
0.00250963
-0.279682
0.278158
-0.00482703
0.00675818
-0.438559
0.436628
-0.00807703
0.00867321
-0.548765
0.548168
-0.00889629
0.00884765
-0.647218
0.647267
-0.00848427
0.00798623
-0.763003
0.763501
-0.00727042
0.00645203
-0.904966
0.905785
-0.00533337
0.00408606
-1.07728
1.07853
-0.00244808
0.000707903
-1.28578
1.28752
0.00141763
-0.00349935
-1.53885
1.54093
0.00550877
-0.00741108
-1.5389
1.5408
0.00885719
-0.010104
-1.28635
1.28759
0.0109674
-0.0116585
-1.07832
1.07902
0.0121289
-0.0124901
-0.906758
0.907119
0.0125502
-0.0123505
-0.766288
0.766089
0.0119312
-0.0113266
-0.651517
0.650912
0.0103968
-0.00868442
-0.543777
0.542065
0.00636739
-0.00361304
-0.397797
0.395042
0.00170469
-0.000530968
-0.206674
0.2055
9.19535e-05
-0.0358009
0.0357089
-0.0367197
0.0367403
-2.0673e-05
-0.00070356
0.00197886
-0.276775
0.275499
-0.00418934
0.0063748
-0.434627
0.432442
-0.00826032
0.00928336
-0.547418
0.546395
-0.00969477
0.00977617
-0.647251
0.64717
-0.00966159
0.0091774
-0.763973
0.764457
-0.00834367
0.00732049
-0.906701
0.907724
-0.00589785
0.00433086
-1.0799
1.08146
-0.00233212
0.000287508
-1.28936
1.2914
0.00214316
-0.00447873
-1.54305
1.54539
0.0067141
-0.00884974
-1.54275
1.54489
0.0104973
-0.0119864
-1.28893
1.29042
0.0130449
-0.0138778
-1.07974
1.08058
0.0143319
-0.0144995
-0.907278
0.907446
0.0144038
-0.0141133
-0.765878
0.765588
0.0136762
-0.0127445
-0.650245
0.649313
0.0112336
-0.00880489
-0.540106
0.537677
0.00610894
-0.00334554
-0.392327
0.389564
0.00159617
-0.000545491
-0.204398
0.203347
0.000119931
-0.0356068
0.0354869
-0.036764
0.0368005
-3.64788e-05
-0.000300324
0.0012284
-0.274368
0.27344
-0.00320988
0.00564736
-0.43006
0.427622
-0.00836817
0.0103116
-0.544893
0.542949
-0.0116051
0.0119542
-0.646945
0.646596
-0.0117849
0.0112458
-0.765054
0.765593
-0.0102281
0.00888233
-0.908907
0.910253
-0.00702138
0.00501991
-1.08325
1.08526
-0.00253681
4.22431e-05
-1.29369
1.29618
0.00291284
-0.00578241
-1.54801
1.55088
0.00853444
-0.0111249
-1.54727
1.54986
0.0131367
-0.0149522
-1.29208
1.29389
0.0162678
-0.01735
-1.08156
1.08264
0.0180033
-0.0183346
-0.907812
0.908143
0.0181723
-0.0176455
-0.765116
0.764589
0.0166615
-0.0146179
-0.647855
0.645811
0.012034
-0.00861915
-0.534689
0.531274
0.00556279
-0.00291996
-0.386798
0.384155
0.00141063
-0.000526285
-0.202368
0.201484
0.000137624
-0.0353541
0.0352165
-0.0368564
0.0369386
-8.2199e-05
0.00020771
0.00021727
-0.272747
0.272322
-0.00150727
0.00348044
-0.425331
0.423357
-0.00615459
0.00848142
-0.540697
0.53837
-0.0104822
0.0114103
-0.646085
0.645157
-0.0114895
0.0110541
-0.765996
0.766432
-0.00988704
0.00839658
-0.911709
0.9132
-0.00636132
0.00419168
-1.0874
1.08957
-0.00151303
-0.00116556
-1.29882
1.3015
0.00432923
-0.00739055
-1.55391
1.55697
0.0102835
-0.012966
-1.55256
1.55524
0.0149769
-0.0167689
-1.29578
1.29757
0.0180556
-0.0190514
-1.08373
1.08473
0.0195089
-0.0195078
-0.908295
0.908294
0.0192693
-0.0183035
-0.763959
0.762993
0.0164613
-0.0136327
-0.643265
0.640436
0.0105685
-0.00710254
-0.527696
0.52423
0.00440823
-0.00231849
-0.381755
0.379665
0.00117518
-0.000478292
-0.2007
0.200003
0.0001378
-0.0350789
0.0349411
-0.0370471
0.0371871
-0.000139976
0.0007214
-0.000777427
-0.272169
0.272225
0.000329807
0.000715358
-0.421828
0.420782
-0.00241666
0.00407919
-0.536297
0.534634
-0.00562231
0.00659498
-0.643989
0.643016
-0.00699006
0.00670965
-0.766893
0.767174
-0.00588584
0.00469861
-0.914586
0.915773
-0.00297434
0.00107082
-1.09164
1.09354
0.00133034
-0.00375718
-1.30409
1.30652
0.00660952
-0.00931112
-1.55991
1.56261
0.0118072
-0.0140173
-1.55776
1.55997
0.0156231
-0.0169427
-1.29917
1.30048
0.0177478
-0.0182233
-1.08552
1.086
0.0182998
-0.0179351
-0.908204
0.90784
0.0169681
-0.0152726
-0.761496
0.759801
0.0132569
-0.0106336
-0.637605
0.634981
0.00803616
-0.00534952
-0.521102
0.518416
0.003397
-0.0019183
-0.3779
0.376421
0.00106195
-0.000469127
-0.199373
0.19878
0.000142073
-0.0348037
0.0346617
-0.0373507
0.0375408
-0.000190119
0.00112066
-0.00155123
-0.272435
0.272865
0.00173318
-0.00152615
-0.420175
0.419968
0.000857242
-8.48253e-05
-0.533455
0.532683
-0.000683725
0.00115366
-0.642311
0.641841
-0.00130778
0.00108746
-0.76739
0.76761
-0.000452841
-0.000472511
-0.916792
0.917717
0.00184131
-0.00337723
-1.09523
1.09677
0.00532844
-0.00729295
-1.30871
1.31067
0.00956635
-0.0116391
-1.565
1.56707
0.013442
-0.0149137
-1.56182
1.56329
0.015774
-0.0163112
-1.30145
1.30199
0.0164499
-0.0162498
-1.0861
1.0859
0.0157214
-0.0147796
-0.907118
0.906176
0.0135839
-0.0119648
-0.758151
0.756532
0.0102383
-0.00817219
-0.632651
0.630585
0.00627202
-0.00438674
-0.516176
0.514291
0.00301087
-0.0018913
-0.375163
0.374043
0.00114126
-0.000534065
-0.198197
0.19759
0.000165894
-0.0345138
0.0343479
-0.0377572
0.0379986
-0.00024144
0.00148035
-0.00217014
-0.273411
0.274101
0.00280108
-0.00313985
-0.420051
0.42039
0.00324877
-0.00321009
-0.532354
0.532316
0.0031529
-0.00320974
-0.641718
0.641775
0.00347103
-0.00392856
-0.767951
0.768409
0.00468434
-0.00560113
-0.91858
0.919497
0.00683898
-0.00815851
-1.09813
1.09945
0.00977501
-0.0113431
-1.31239
1.31396
0.0130723
-0.0145454
-1.56882
1.57029
0.0156817
-0.0164152
-1.56441
1.56515
0.0166522
-0.0165172
-1.30215
1.30202
0.0161428
-0.0153772
-1.08532
1.08456
0.0144326
-0.0131908
-0.905045
0.903804
0.0119046
-0.0103667
-0.754955
0.753417
0.00888098
-0.00722544
-0.628776
0.62712
0.00576903
-0.00432435
-0.512696
0.511251
0.00320225
-0.00217111
-0.373003
0.371972
0.00137667
-0.000663978
-0.196946
0.196234
0.000209912
-0.0341703
0.0339604
-0.0382776
0.0385802
-0.00030257
0.00188544
-0.00281303
-0.274912
0.275839
0.00377016
-0.00449953
-0.42092
0.421649
0.00509846
-0.00555391
-0.53265
0.533106
0.00605894
-0.00661218
-0.642193
0.642746
0.00736551
-0.00820691
-0.769035
0.769877
0.00929229
-0.0104115
-0.920414
0.921534
0.0117482
-0.0130451
-1.10068
1.10198
0.0145243
-0.0158653
-1.31533
1.31667
0.0172166
-0.0182141
-1.57147
1.57247
0.0187911
-0.0188671
-1.56556
1.56563
0.0185449
-0.0179085
-1.30161
1.30097
0.0170516
-0.0159043
-1.08353
1.08238
0.014701
-0.0132806
-0.902431
0.901011
0.0119259
-0.0104115
-0.751892
0.750377
0.00902611
-0.0075364
-0.625615
0.624125
0.00623623
-0.00490561
-0.509949
0.508618
0.00379133
-0.00266406
-0.370931
0.369804
0.00172581
-0.000843906
-0.195461
0.194579
0.000269995
-0.0337409
0.0334709
-0.0389379
0.0393193
-0.000381361
0.00239081
-0.00358579
-0.27693
0.278125
0.00485049
-0.00588238
-0.422603
0.423635
0.00685282
-0.00769601
-0.533932
0.534775
0.00868299
-0.00970963
-0.643622
0.644648
0.0109708
-0.0122351
-0.770836
0.7721
0.0137264
-0.0151617
-0.922649
0.924084
0.0167795
-0.0182527
-1.10325
1.10473
0.0198034
-0.0210891
-1.31789
1.31918
0.0222353
-0.0229017
-1.57323
1.5739
0.0230514
-0.0226528
-1.56545
1.56505
0.0218813
-0.0207162
-1.30004
1.29887
0.0194542
-0.0179264
-1.08098
1.07946
0.0164588
-0.0148226
-0.899421
0.897784
0.013333
-0.0117272
-0.74879
0.747185
0.0102931
-0.00876438
-0.622688
0.621159
0.0074129
-0.00597714
-0.507358
0.505922
0.00470604
-0.00334138
-0.368639
0.367274
0.0021775
-0.00106935
-0.19363
0.192522
0.000343861
-0.0332009
0.032857
-0.0397813
0.0402672
-0.00048584
0.00304089
-0.0045675
-0.279551
0.281077
0.00621129
-0.0075939
-0.425001
0.426383
0.00895865
-0.0101786
-0.536064
0.537284
0.0116126
-0.0130893
-0.645923
0.6474
0.0148655
-0.016598
-0.773448
0.77518
0.018586
-0.0204404
-0.925516
0.92737
0.0224604
-0.0242274
-1.10615
1.10792
0.0259928
-0.0273451
-1.32037
1.32172
0.0284048
-0.0288333
-1.57438
1.57481
0.028618
-0.0277545
-1.56439
1.56353
0.0265467
-0.0249044
-1.29745
1.29581
0.0232231
-0.0212814
-1.07767
1.07573
0.0194845
-0.0175425
-0.895895
0.893953
0.0158208
-0.0140031
-0.745388
0.743571
0.0123987
-0.0106886
-0.619591
0.617881
0.00915247
-0.00746893
-0.504539
0.502855
0.00591138
-0.00420708
-0.365914
0.36421
0.00273021
-0.00133512
-0.191351
0.189956
0.000427744
-0.0325229
0.0320951
-0.0408671
0.0415101
-0.00064296
0.00395851
-0.00594055
-0.282927
0.284909
0.0080872
-0.00990008
-0.428173
0.429985
0.0117012
-0.013328
-0.539044
0.54067
0.0152399
-0.0171935
-0.649146
0.6511
0.0195539
-0.0218466
-0.776948
0.779241
0.0244468
-0.0268163
-0.929166
0.931536
0.0293239
-0.03145
-1.10963
1.11176
0.0334942
-0.0349817
-1.323
1.32448
0.0360282
-0.0362656
-1.57507
1.5753
0.0357039
-0.0343634
-1.5624
1.56106
0.0326759
-0.0304967
-1.29388
1.2917
0.0283371
-0.0258934
-1.07348
1.07104
0.0236692
-0.0213013
-0.891667
0.889299
0.0192311
-0.0170732
-0.741429
0.739271
0.0151824
-0.0131657
-0.616033
0.614016
0.0113285
-0.00927274
-0.501235
0.499179
0.00737383
-0.00527014
-0.362547
0.360443
0.00343573
-0.001673
-0.18851
0.186747
0.000533824
-0.0316796
0.0311458
-0.04228
0.0431552
-0.000875165
0.00527803
-0.00789548
-0.28728
0.289898
0.0107129
-0.0130711
-0.432303
0.434662
0.0154019
-0.0175141
-0.542991
0.545103
0.0200147
-0.022572
-0.653405
0.655962
0.0256375
-0.0285756
-0.781517
0.784456
0.0318404
-0.0347661
-0.933835
0.936761
0.0378252
-0.0403795
-1.11385
1.11641
0.0427846
-0.0444603
-1.3259
1.32758
0.045517
-0.0455537
-1.57534
1.57538
0.0446074
-0.0427254
-1.55941
1.55753
0.0404856
-0.0376744
-1.2892
1.28639
0.0349353
-0.0318701
-1.06824
1.06518
0.0291015
-0.0261728
-0.886507
0.883578
0.0236296
-0.0210012
-0.736665
0.734037
0.0187152
-0.0162879
-0.611759
0.609331
0.0140674
-0.011559
-0.497199
0.494691
0.00919671
-0.00656776
-0.358378
0.355749
0.00427266
-0.00207989
-0.18496
0.182767
0.000661825
-0.0306364
0.0299746
-0.0441516
0.0453629
-0.00121134
0.00718621
-0.0106984
-0.292926
0.296438
0.0144119
-0.0174744
-0.437656
0.440718
0.0204822
-0.0232321
-0.548121
0.550871
0.0265063
-0.0298215
-0.658934
0.662249
0.033732
-0.0374193
-0.787402
0.791089
0.0414687
-0.0450603
-0.93969
0.943281
0.0487694
-0.05181
-1.11895
1.12199
0.0545852
-0.0564179
-1.32915
1.33098
0.057412
-0.0571534
-1.57515
1.5749
0.055712
-0.0531644
-1.55526
1.55272
0.050258
-0.0466872
-1.28318
1.27961
0.0432501
-0.0394315
-1.0617
1.05788
0.0359962
-0.0323702
-0.880151
0.876525
0.0292299
-0.0259988
-0.730839
0.727608
0.0232029
-0.0202485
-0.606532
0.603577
0.0175414
-0.0144614
-0.492216
0.489137
0.0115117
-0.00822195
-0.353191
0.349901
0.00534605
-0.00259824
-0.180548
0.1778
0.000825271
-0.0293533
0.028528
-0.0466879
0.0483989
-0.00171098
0.00995571
-0.0146743
-0.300359
0.305077
0.019501
-0.0234163
-0.444652
0.448567
0.0272567
-0.0308313
-0.55481
0.558384
0.0351091
-0.039407
-0.666047
0.670345
0.0444126
-0.0490641
-0.794847
0.799499
0.054097
-0.0584878
-0.946917
0.951308
0.0629238
-0.0664576
-1.12501
1.12855
0.0695498
-0.0714453
-1.33266
1.33456
0.0722349
-0.0715168
-1.57429
1.57358
0.0694065
-0.0660134
-1.54969
1.5463
0.0622856
-0.057796
-1.27555
1.27106
0.0535217
-0.0488022
-1.05355
1.04883
0.0445699
-0.0401074
-0.872307
0.867844
0.0362463
-0.0322787
-0.723672
0.719705
0.0288541
-0.0252491
-0.600091
0.596486
0.0219412
-0.0181567
-0.48602
0.482236
0.0144925
-0.0103185
-0.346737
0.342563
0.00668533
-0.00323156
-0.175075
0.171621
0.00101863
-0.0277762
0.0267575
-0.0502038
0.0527517
-0.00254792
0.0143088
-0.0207392
-0.310299
0.316729
0.027039
-0.0320738
-0.453842
0.458877
0.0370344
-0.0417321
-0.563549
0.568246
0.0473604
-0.0529178
-0.675191
0.680748
0.0592406
-0.0649818
-0.80421
0.809951
0.071056
-0.0762189
-0.955693
0.960856
0.0812856
-0.0851778
-1.13198
1.13587
0.0884047
-0.0901676
-1.33619
1.33796
0.09051
-0.0890934
-1.57239
1.57097
0.0860842
-0.0816243
-1.54231
1.53785
0.0768977
-0.0713124
-1.26599
1.2604
0.0660509
-0.0602737
-1.04351
1.03774
0.0551068
-0.0496623
-0.862676
0.857232
0.04495
-0.0401041
-0.71487
0.710024
0.0359261
-0.0315389
-0.592146
0.587759
0.0274991
-0.0228353
-0.478306
0.473643
0.0182666
-0.0130184
-0.338606
0.333358
0.00838709
-0.00401032
-0.168277
0.163901
0.00124728
-0.0258444
0.0245972
-0.0552826
0.0593197
-0.00403705
0.0216038
-0.0305943
-0.323858
0.332848
0.0389389
-0.0454196
-0.466116
0.472596
0.0518492
-0.0580185
-0.575068
0.581238
0.0653636
-0.0724103
-0.686872
0.693919
0.0801764
-0.0869972
-0.815725
0.822546
0.0939819
-0.0997231
-0.965938
0.971679
0.105133
-0.109063
-1.13951
1.14343
0.112028
-0.113285
-1.33925
1.34051
0.112776
-0.110314
-1.56888
1.56642
0.10611
-0.100334
-1.53265
1.52688
0.0944249
-0.0875767
-1.25414
1.24729
0.0811972
-0.0742333
-1.03128
1.02432
0.0680212
-0.0614723
-0.850982
0.844433
0.0557903
-0.049932
-0.704145
0.698287
0.044885
-0.0395948
-0.582368
0.577078
0.0346851
-0.0289456
-0.468666
0.462926
0.0232156
-0.0165551
-0.328373
0.321712
0.0106333
-0.00504056
-0.159758
0.154165
0.00154276
-0.0234808
0.0219381
-0.0630862
0.0703121
-0.00722593
0.0351368
-0.048256
-0.343328
0.356447
0.0595057
-0.067689
-0.48268
0.490863
0.0757939
-0.0837353
-0.590064
0.598005
0.0929082
-0.101286
-0.701356
0.709733
0.110108
-0.117551
-0.829157
0.8366
0.124887
-0.130649
-0.977047
0.982809
0.135776
-0.139153
-1.14681
1.15018
0.141237
-0.141418
-1.34101
1.34119
0.139509
-0.135541
-1.56303
1.55906
0.129777
-0.122409
-1.52019
1.51282
0.115125
-0.106873
-1.23967
1.23142
0.0992806
-0.0910597
-1.01663
1.00841
0.0837524
-0.0760584
-0.837025
0.829331
0.0693702
-0.0624489
-0.69127
0.684349
0.0564727
-0.0502094
-0.570448
0.564185
0.0443423
-0.0372692
-0.45655
0.449477
0.0300332
-0.0215081
-0.315272
0.306747
0.013787
-0.00643393
-0.149002
0.141649
0.00187376
-0.020594
0.0187202
-0.0773092
0.0806964
-0.00338716
0.0245085
-0.0357235
-0.372536
0.383752
0.0458538
-0.0538432
-0.504382
0.512371
0.062714
-0.0723486
-0.608234
0.617869
0.0831239
-0.0927565
-0.717696
0.727329
0.10348
-0.112943
-0.843249
0.852712
0.122774
-0.131193
-0.987636
0.996054
0.139554
-0.146223
-1.15251
1.15918
0.152121
-0.155915
-1.34024
1.34403
0.157833
-0.157024
-1.55389
1.55308
0.153363
-0.147249
-1.50436
1.49825
0.140112
-0.131077
-1.2223
1.21327
0.12226
-0.111708
-0.999435
0.988883
0.102046
-0.091432
-0.820772
0.810158
0.081952
-0.0719145
-0.676235
0.666197
0.0628543
-0.0534726
-0.556198
0.546816
0.0449885
-0.0348117
-0.441482
0.431305
0.0251839
-0.0154505
-0.298178
0.288444
0.00810822
-0.00277831
-0.134965
0.129635
0.000374194
-0.0170784
0.0167042
-0.0881857
0.0849225
0.0032632
0.00210568
-0.00837657
-0.397815
0.404086
0.0161691
-0.0228031
-0.52509
0.531724
0.0312458
-0.0396819
-0.627993
0.636429
0.0494177
-0.0582965
-0.736855
0.745734
0.0677552
-0.0763167
-0.861714
0.870276
0.0852304
-0.0925908
-1.00419
1.01156
0.100125
-0.105836
-1.1657
1.17141
0.110874
-0.113853
-1.34763
1.3506
0.114757
-0.113206
-1.55154
1.54999
0.108947
-0.10239
-1.49139
1.48484
0.0948167
-0.0855318
-1.20379
1.19451
0.0766039
-0.066423
-0.97808
0.967899
0.056904
-0.046385
-0.798769
0.78825
0.0369973
-0.0274015
-0.654242
0.644647
0.0192061
-0.010822
-0.53473
0.526346
0.00368394
0.00267497
-0.419448
0.413089
-0.00642274
0.00794002
-0.277402
0.275885
-0.00725828
0.00468749
-0.122896
0.125466
-0.00195868
-0.0150902
0.0170489
-0.0874739
0.0840242
0.00344968
-0.00569895
0.00286665
-0.414024
0.416856
0.00187546
-0.00715436
-0.542192
0.547471
0.0141114
-0.0213593
-0.645211
0.652459
0.0296593
-0.0372552
-0.754057
0.761653
0.0455637
-0.0529563
-0.878192
0.885585
0.0604546
-0.0670281
-1.01878
1.02535
0.0736095
-0.0787205
-1.17677
1.18188
0.0828663
-0.0851784
-1.35304
1.35535
0.0858496
-0.0841238
-1.54796
1.54624
0.0799332
-0.0737321
-1.47796
1.47176
0.0667795
-0.0585697
-1.18543
1.17722
0.0504395
-0.0415144
-0.957781
0.948856
0.0332604
-0.024242
-0.778209
0.76919
0.016461
-0.0085034
-0.634434
0.626476
0.00194076
0.00461169
-0.516118
0.509565
-0.00952605
0.0130723
-0.404225
0.400678
-0.0141865
0.0124374
-0.270451
0.2722
-0.00926628
0.00523724
-0.125337
0.129366
-0.00192278
-0.0172273
0.0191501
-0.0851603
0.0818546
0.00330569
-0.00848636
0.00763501
-0.424101
0.424952
-0.00472559
0.000494603
-0.555526
0.559757
0.0055326
-0.0115811
-0.659548
0.665596
0.0186554
-0.0251533
-0.768942
0.77544
0.0322336
-0.0385659
-0.892564
0.898896
0.0453812
-0.0509989
-1.03158
1.03719
0.056835
-0.0609898
-1.18669
1.19085
0.0647187
-0.0668057
-1.35759
1.35968
0.0673056
-0.0655344
-1.54433
1.54256
0.0619595
-0.056702
-1.46543
1.46017
0.0507856
-0.0435524
-1.16929
1.16205
0.03679
-0.0294782
-0.940235
0.932923
0.0226712
-0.0156143
-0.760815
0.753759
0.00924707
-0.00298477
-0.618203
0.611941
-0.0020998
0.0067018
-0.501753
0.497151
-0.00983149
0.0118649
-0.394136
0.392102
-0.0119845
0.00963556
-0.268808
0.271157
-0.0069088
0.00373695
-0.130004
0.133176
-0.0013626
-0.0194493
0.0208119
-0.0828692
0.0801483
0.00272092
-0.0087582
0.00910352
-0.430572
0.430226
-0.00686842
0.00356271
-0.566561
0.569867
0.00132809
-0.00675578
-0.671687
0.677115
0.0127234
-0.0184629
-0.781534
0.787273
0.0246281
-0.0301757
-0.904904
0.910451
0.0361079
-0.0412094
-1.04277
1.04787
0.0462779
-0.0502551
-1.195
1.19898
0.0536322
-0.0555646
-1.36158
1.36351
0.0561232
-0.0546561
-1.54085
1.53938
0.0516356
-0.0469829
-1.4546
1.44995
0.0419393
-0.0359413
-1.1552
1.1492
0.0302826
-0.0240909
-0.925807
0.919616
0.0185779
-0.0128141
-0.746943
0.74118
0.00786482
-0.00296164
-0.605667
0.600763
-0.00085637
0.00418214
-0.491254
0.487929
-0.00647923
0.00774223
-0.387398
0.386135
-0.00747214
0.00586217
-0.268203
0.269813
-0.00415741
0.00219678
-0.132812
0.134772
-0.000868731
-0.0206695
0.0215382
-0.081048
0.0788011
0.00224684
-0.00803726
0.00854922
-0.434785
0.434273
-0.00730708
0.00447837
-0.575221
0.57805
0.000137429
-0.00477734
-0.682091
0.686731
0.00994557
-0.0149662
-0.792477
0.797498
0.0204856
-0.0254967
-0.915766
0.920777
0.0310048
-0.0355778
-1.05278
1.05735
0.0402998
-0.0440582
-1.20281
1.20657
0.0472353
-0.0491128
-1.36536
1.36724
0.0497477
-0.0488782
-1.53801
1.53714
0.0462555
-0.0423768
-1.4451
1.44122
0.0379976
-0.0328039
-1.14331
1.13812
0.0281494
-0.0227587
-0.913639
0.908248
0.0180505
-0.0133045
-0.735662
0.730916
0.00917836
-0.00508908
-0.595921
0.591831
0.00185773
0.00112299
-0.483366
0.480386
-0.00288423
0.00399868
-0.382288
0.381174
-0.00425937
0.00345448
-0.266802
0.267607
-0.00251795
0.00143475
-0.133435
0.134518
-0.000627214
-0.0210138
0.021641
-0.0797701
0.0780447
0.00172542
-0.00674553
0.00739799
-0.437869
0.437217
-0.00627985
0.00399751
-0.582909
0.585192
0.000201847
-0.00438593
-0.691204
0.695388
0.00931028
-0.0136888
-0.802323
0.806702
0.0186031
-0.0231168
-0.92586
0.930374
0.0284224
-0.0326808
-1.06202
1.06628
0.0370266
-0.0407225
-1.21024
1.21393
0.0442424
-0.0461856
-1.36929
1.37123
0.0471252
-0.0464755
-1.53607
1.53542
0.0445297
-0.0409098
-1.43727
1.43365
0.0371725
-0.0326772
-1.13292
1.12842
0.0284121
-0.0237556
-0.903042
0.898386
0.0194971
-0.0150629
-0.726043
0.721609
0.0115675
-0.00778687
-0.587538
0.583758
0.00472219
-0.00210312
-0.476443
0.473824
0.000256521
0.0011508
-0.377731
0.376324
-0.00169273
0.00162043
-0.264657
0.26473
-0.00134775
0.000890892
-0.132616
0.133073
-0.000467192
-0.0209084
0.0213756
-0.0790947
0.0777473
0.0013474
-0.00542743
0.00614374
-0.440337
0.439621
-0.00501122
0.00272437
-0.589633
0.59192
0.0011356
-0.00490605
-0.699445
0.703215
0.00918652
-0.0134456
-0.811194
0.815453
0.0180395
-0.0227292
-0.934795
0.939485
0.0273869
-0.031531
-1.0707
1.07484
0.0360811
-0.0396519
-1.21758
1.22115
0.0428593
-0.0453475
-1.37318
1.37567
0.0466401
-0.0464278
-1.53497
1.53475
0.0447688
-0.0417886
-1.43029
1.42731
0.0384134
-0.0342442
-1.12365
1.11948
0.0303243
-0.0259316
-0.893611
0.889218
0.0219311
-0.0178861
-0.7172
0.713155
0.014275
-0.010714
-0.579732
0.576171
0.00783333
-0.00502539
-0.470234
0.467426
0.00297104
-0.00154121
-0.372887
0.371457
0.000564747
6.56454e-05
-0.261607
0.260976
-0.000422885
0.000482498
-0.130858
0.130799
-0.000357166
-0.0205128
0.0208699
-0.0789942
0.0778604
0.00113374
-0.00398208
0.00443588
-0.442632
0.442178
-0.00344821
0.00113279
-0.595807
0.598122
0.00237421
-0.00601454
-0.707155
0.710795
0.0101486
-0.0140513
-0.819651
0.823554
0.0187968
-0.0227625
-0.943707
0.947673
0.0274329
-0.0314554
-1.0792
1.08323
0.0359502
-0.0397736
-1.22475
1.22858
0.0433398
-0.0457052
-1.37797
1.38034
0.0474458
-0.0477242
-1.53457
1.53484
0.0467421
-0.0440542
-1.42425
1.42157
0.0410105
-0.0370719
-1.11535
1.11141
0.0333461
-0.0290268
-0.884535
0.880215
0.0252019
-0.0210843
-0.708787
0.70467
0.0174981
-0.013848
-0.572278
0.568628
0.0107715
-0.00801149
-0.463861
0.461101
0.00568072
-0.00387127
-0.367787
0.365977
0.00243043
-0.00131135
-0.257725
0.256606
0.00047043
0.000149297
-0.128308
0.127688
-0.000262402
-0.0198683
0.0201307
-0.0791796
0.0783661
0.00081351
-0.0027452
0.00269053
-0.445129
0.445184
-0.00185706
-0.000510153
-0.601243
0.60361
0.00367285
-0.00716736
-0.714375
0.71787
0.0111369
-0.0151748
-0.82744
0.831478
0.0193533
-0.0234958
-0.951912
0.956055
0.0281608
-0.032012
-1.08772
1.09157
0.0366393
-0.0404719
-1.23227
1.2361
0.0441572
-0.0471177
-1.38317
1.38613
0.0494091
-0.0500334
-1.53523
1.53585
0.049319
-0.047266
-1.41902
1.41697
0.0446129
-0.0408223
-1.10726
1.10347
0.0371173
-0.0330325
-0.875667
0.871582
0.0288681
-0.0248265
-0.700176
0.696134
0.0211504
-0.0172926
-0.564814
0.560956
0.0141847
-0.0110537
-0.457291
0.45416
0.00852234
-0.00614573
-0.362407
0.36003
0.00440509
-0.00278312
-0.253141
0.251519
0.00134518
-0.000246985
-0.125075
0.123977
-0.000170537
-0.0189982
0.0191688
-0.0797544
0.0790892
0.000665164
-0.00174764
0.00165958
-0.447873
0.447961
-0.000229118
-0.00186695
-0.606755
0.608851
0.00513826
-0.00847618
-0.721109
0.724447
0.0122855
-0.0159469
-0.835297
0.838958
0.0202525
-0.024105
-0.960257
0.964109
0.028739
-0.0330348
-1.09591
1.10021
0.0373583
-0.0415499
-1.24004
1.24423
0.0457004
-0.0488143
-1.38905
1.39217
0.0515561
-0.0529986
-1.53675
1.5382
0.0527379
-0.0512381
-1.41476
1.41326
0.048673
-0.0451387
-1.0996
1.09607
0.0416177
-0.0374327
-0.866902
0.862717
0.0333525
-0.0290939
-0.691477
0.687218
0.025226
-0.0210676
-0.556786
0.552628
0.0176241
-0.0142878
-0.450338
0.447002
0.0113137
-0.00858235
-0.356254
0.353523
0.00638647
-0.00422168
-0.24772
0.245555
0.00235144
-0.000751573
-0.121165
0.119566
-9.8562e-06
-0.0179621
0.017972
-0.0805743
0.0800635
0.000510719
-0.000693989
0.000347983
-0.450791
0.451137
0.000960825
-0.00322199
-0.611861
0.614122
0.00637344
-0.00953893
-0.727578
0.730744
0.0134169
-0.0169352
-0.842673
0.846191
0.0210945
-0.0250698
-0.968471
0.972446
0.0296219
-0.033894
-1.10441
1.10868
0.0384509
-0.0426987
-1.2484
1.25265
0.0470776
-0.0509677
-1.39563
1.39952
0.0542046
-0.0559977
-1.53965
1.54145
0.0564463
-0.0552594
-1.41168
1.41049
0.0531809
-0.0500163
-1.09239
1.08923
0.0463684
-0.042166
-0.858025
0.853822
0.0380365
-0.0335069
-0.682462
0.677932
0.0295397
-0.025075
-0.548458
0.543993
0.0214077
-0.0176201
-0.442881
0.439094
0.0144428
-0.011309
-0.349396
0.346262
0.00850146
-0.00575169
-0.241422