/*--------------------------------*- C++ -*----------------------------------*\
  =========                 |
  \\      /  F ield         | OpenFOAM: The Open Source CFD Toolbox
   \\    /   O peration     | Website:  https://openfoam.org
    \\  /    A nd           | Version:  6
     \\/     M anipulation  |
\*---------------------------------------------------------------------------*/
FoamFile
{
    version     2.0;
    format      ascii;
    class       volScalarField;
    location    "4";
    object      Ma;
}
// * * * * * * * * * * * * * * * * * * * * * * * * * * * * * * * * * * * * * //

dimensions      [0 0 0 0 0 0 0];

internalField   nonuniform List<scalar> 
5250
(
2.99999
2.99998
2.99991
2.99981
2.99941
2.99885
2.9966
2.99334
2.98098
2.9605
2.89614
2.75473
2.44054
1.72881
0.723308
0.161377
0.203542
0.28013
0.320586
0.302184
0.244966
0.173109
0.121657
0.0801044
0.0529091
2.99999
2.99998
2.99991
2.99981
2.99941
2.99886
2.99662
2.99338
2.98107
2.96071
2.89663
2.75592
2.44305
1.73304
0.729543
0.168965
0.210673
0.285538
0.324414
0.305154
0.248947
0.180616
0.133224
0.0965052
0.0749115
2.99999
2.99998
2.99991
2.99981
2.99942
2.99887
2.99666
2.99345
2.98127
2.96115
2.89769
2.75855
2.44863
1.74295
0.744407
0.187148
0.225132
0.294845
0.331575
0.31204
0.258513
0.197295
0.157515
0.128501
0.112715
2.99999
2.99998
2.99991
2.99981
2.99943
2.99889
2.99672
2.99357
2.9816
2.96187
2.89942
2.76293
2.4578
1.75992
0.769
0.214786
0.244076
0.307731
0.341978
0.323338
0.274717
0.222509
0.191222
0.169451
0.158542
3
2.99998
2.99991
2.99982
2.99945
2.99892
2.9968
2.99374
2.98206
2.96291
2.90192
2.76931
2.47113
1.78535
0.80519
0.251109
0.265345
0.323815
0.355722
0.338809
0.296458
0.253634
0.229973
0.214481
0.207786
3
2.99998
2.99992
2.99983
2.99947
2.99896
2.99692
2.99397
2.98268
2.9643
2.90527
2.77792
2.48908
1.82026
0.85378
0.295559
0.288186
0.341459
0.372277
0.358366
0.323526
0.290021
0.273673
0.264077
0.261598
3
2.99998
2.99992
2.99984
2.99949
2.99901
2.99706
2.99426
2.98348
2.9661
2.90962
2.78907
2.51234
1.86571
0.917858
0.348105
0.311195
0.358861
0.390334
0.381148
0.355124
0.331324
0.322633
0.320222
0.324486
3
2.99998
2.99993
2.99985
2.99953
2.99908
2.99725
2.99464
2.98449
2.96836
2.91507
2.80316
2.54159
1.92413
0.999813
0.409812
0.332172
0.375595
0.41008
0.408459
0.391417
0.377585
0.378202
0.38535
0.402167
3
2.99998
2.99993
2.99986
2.99957
2.99916
2.9975
2.99512
2.98587
2.97119
2.92242
2.81893
2.58079
1.9936
1.09951
0.478437
0.347387
0.388772
0.430707
0.439388
0.43169
0.429215
0.440493
0.464446
0.510019
3
2.99999
2.99994
2.99988
2.99963
2.99927
2.99786
2.99575
2.98806
2.97452
2.93318
2.83809
2.6267
2.08025
1.21396
0.556581
0.361667
0.401855
0.454686
0.473313
0.47521
0.485307
0.512712
0.565982
0.680455
3
2.99999
2.99996
2.99988
2.99975
2.99925
2.99851
2.9958
2.99115
2.9765
2.9441
2.86451
2.65531
2.25098
1.36052
0.658569
0.396513
0.431444
0.488579
0.512965
0.522536
0.544486
0.592836
0.68872
0.856599
3
2.99999
2.99997
2.99989
2.99978
2.99934
2.9987
2.99621
2.99244
2.97906
2.95452
2.88506
2.71787
2.38016
1.63756
0.779524
0.455934
0.488932
0.541532
0.567343
0.578883
0.606368
0.667163
0.782266
0.955009
3
2.99999
2.99997
2.99992
2.99976
2.99953
2.99861
2.99726
2.99213
2.98395
2.95644
2.90232
2.76234
2.43124
1.76674
0.817754
0.468078
0.527897
0.585351
0.620944
0.636357
0.66828
0.73188
0.840548
0.988374
3
3
2.99997
2.99994
2.99979
2.99959
2.99877
2.9976
2.99301
2.98603
2.96141
2.91497
2.79222
2.49038
1.90582
0.910682
0.526749
0.568014
0.618602
0.659586
0.683472
0.718978
0.78367
0.878761
1.00406
3
3
2.99998
2.99995
2.99982
2.99965
2.99896
2.99797
2.9941
2.98814
2.9677
2.92683
2.82104
2.5516
2.04574
1.0639
0.625825
0.595464
0.641959
0.683757
0.717591
0.757326
0.820232
0.906411
1.01496
3
3
2.99998
2.99996
2.99985
2.99971
2.99912
2.99829
2.995
2.99007
2.97247
2.93969
2.84911
2.6254
2.18846
1.27186
0.750453
0.623058
0.655666
0.698914
0.74361
0.786407
0.845455
0.925226
1.02244
3
3
2.99999
2.99997
2.99988
2.99976
2.99929
2.99862
2.99597
2.99203
2.97776
2.95218
2.87879
2.70236
2.34732
1.53014
0.900135
0.674727
0.686274
0.721576
0.768387
0.814147
0.867496
0.939173
1.02644
3.00001
3
2.99999
2.99997
2.99991
2.99982
2.99944
2.99892
2.99682
2.99379
2.98234
2.96359
2.90519
2.77812
2.49708
1.8706
1.06812
0.753508
0.739089
0.760188
0.797414
0.841906
0.892236
0.953665
1.03076
3.00001
3
2.99999
2.99998
2.99993
2.99986
2.99956
2.99915
2.9975
2.99516
2.98604
2.97184
2.92447
2.82682
2.59964
2.04835
1.24131
0.831127
0.781832
0.798922
0.829538
0.870657
0.917242
0.971138
1.0369
3.00001
3
3
2.99999
2.99995
2.99989
2.99967
2.99935
2.9981
2.9963
2.98943
2.97841
2.94241
2.86568
2.6875
2.23451
1.48268
0.957682
0.822102
0.830673
0.858529
0.896665
0.939014
0.988551
1.04614
3.00001
3.00001
3
2.99999
2.99996
2.99992
2.99975
2.99951
2.99856
2.99721
2.99194
2.98397
2.95595
2.9053
2.76619
2.46015
1.82076
1.1168
0.882994
0.872463
0.890248
0.922552
0.961334
1.00496
1.05646
3.00001
3.00001
3
3
2.99997
2.99994
2.99982
2.99964
2.99894
2.99795
2.99407
2.98827
2.96753
2.93062
2.82818
2.59198
2.10454
1.27863
0.947751
0.906083
0.92049
0.947603
0.985163
1.0244
1.0694
3.00001
3.00001
3
3
2.99998
2.99996
2.99987
2.99974
2.99924
2.99852
2.99571
2.99153
2.97659
2.94985
2.87356
2.69201
2.3286
1.53918
1.07799
0.94823
0.948987
0.970108
1.00394
1.04299
1.08354
3.00001
3.00001
3
3
2.99999
2.99997
2.99991
2.99982
2.99947
2.99896
2.99698
2.99407
2.98335
2.96573
2.91111
2.79817
2.52983
1.9686
1.26409
1.0216
0.99261
1.00207
1.02898
1.06584
1.10261
3.00001
3.00001
3.00001
3
3
2.99998
2.99995
2.99985
2.9997
2.99912
2.99826
2.99505
2.99006
2.97292
2.94141
2.85472
2.65302
2.23179
1.45887
1.10017
1.02697
1.03153
1.05287
1.08584
1.12185
3.00001
3.00001
3.00001
3
3
2.99999
2.99997
2.9999
2.99979
2.99938
2.99879
2.99652
2.99314
2.9809
2.9601
2.89761
2.75822
2.46044
1.80532
1.25957
1.08387
1.0684
1.0795
1.10582
1.14159
3.00001
3.00001
3.00001
3.00001
3
3
2.99998
2.99995
2.99983
2.99966
2.99901
2.99804
2.9945
2.98879
2.96992
2.93506
2.83638
2.63525
2.13365
1.46238
1.16513
1.10802
1.11039
1.12977
1.15889
3.00001
3.00001
3.00001
3.00001
3
3
2.99999
2.99997
2.99989
2.99977
2.99933
2.99869
2.99625
2.99261
2.97945
2.95727
2.89116
2.74734
2.42973
1.7804
1.30778
1.15778
1.14478
1.15418
1.17757
3.00001
3.00001
3.00001
3.00001
3.00001
3
3
2.99997
2.99994
2.99982
2.99964
2.99898
2.99796
2.99436
2.98841
2.96918
2.93364
2.83149
2.63332
2.10919
1.51153
1.24114
1.1849
1.18302
1.19849
3.00001
3.00001
3.00001
3.00001
3.00001
3
3
2.99999
2.99996
2.99991
2.99973
2.99945
2.99844
2.99691
2.99138
2.98246
2.95363
2.89614
2.75496
2.42063
1.79235
1.36588
1.2367
1.21691
1.22257
3.00001
3.00001
3.00001
3.00001
3.00001
3.00001
3
2.99999
2.99998
2.99993
2.99986
2.99958
2.99918
2.99767
2.9954
2.98725
2.97383
2.9323
2.846
2.64569
2.18851
1.56177
1.30873
1.25982
1.25389
3.00001
3.00001
3.00001
3.00001
3.00001
3.00001
3
3
2.99999
2.99996
2.99991
2.99973
2.99948
2.99849
2.99708
2.99173
2.98362
2.95591
2.90459
2.7737
2.46296
1.88294
1.43195
1.29717
1.28201
3.00001
3.00001
3.00001
3.00001
3.00001
3.00001
3.00001
3
3
2.99998
2.99995
2.99984
2.99968
2.99907
2.99817
2.99487
2.98976
2.97226
2.94211
2.85191
2.67966
2.22365
1.6553
1.37602
1.31625
3.00001
3.00001
3.00001
3.00001
3.00001
3.00001
3.00001
3
3
2.99999
2.99996
2.99992
2.99977
2.99954
2.99869
2.9974
2.99283
2.9854
2.96158
2.91591
2.79857
2.5353
1.98415
1.52836
1.36467
3.00001
3.00001
3.00001
3.00001
3.00001
3.00001
3.00001
3.00001
3
3
2.99999
2.99995
2.99989
2.99967
2.99935
2.99818
2.99638
2.99019
2.97952
2.9478
2.87838
2.72528
2.339
1.75507
1.45485
3.00001
3.00001
3.00001
3.00001
3.00001
3.00001
3.00001
3.00001
3
3
2.99999
2.99998
2.99992
2.99984
2.99954
2.99909
2.99746
2.99497
2.98631
2.97176
2.92814
2.83655
2.62958
2.16764
1.63678
3.00001
3.00001
3.00001
3.00001
3.00001
3.00001
3.00001
3.00001
3.00001
3
3
2.99999
2.99996
2.99991
2.99972
2.99946
2.99845
2.99701
2.99168
2.98329
2.95642
2.90111
2.77395
2.4477
1.90294
3.00001
3.00001
3.00001
3.00001
3.00001
3.00001
3.00001
3.00001
3.00001
3.00001
3
3
2.99998
2.99995
2.99984
2.99968
2.99908
2.99821
2.99499
2.99005
2.97311
2.94425
2.85787
2.69475
2.2559
3.00001
3.00001
3.00001
3.00001
3.00001
3.00001
3.00001
3.00001
3.00001
3.00001
3
3
2.99999
2.99997
2.99993
2.99978
2.99956
2.99879
2.99759
2.99341
2.98662
2.96507
2.92402
2.81912
2.58476
3.00001
3.00001
3.00001
3.00001
3.00001
3.00001
3.00001
3.00001
3.00001
3.00001
3.00001
3
3
2.99999
2.99995
2.9999
2.99971
2.99942
2.99839
2.99682
2.99143
2.98219
2.95489
2.89569
2.76429
3.00001
3.00001
3.00001
3.00001
3.00001
3.00001
3.00001
3.00001
3.00001
3.00001
3.00001
3.00001
3
2.99999
2.99998
2.99993
2.99986
2.99961
2.99923
2.99788
2.99578
2.98865
2.97656
2.94057
2.86702
3.00001
3.00001
3.00001
3.00001
3.00001
3.00001
3.00001
3.00001
3.00001
3.00001
3.00001
3.00001
3
3
2.99999
2.99997
2.99991
2.99982
2.99949
2.99899
2.99724
2.9945
2.98529
2.96949
2.92369
3.00001
3.00001
3.00001
3.00001
3.00001
3.00001
3.00001
3.00001
3.00001
3.00001
3.00001
3.00001
3.00001
3
3
2.99998
2.99996
2.99988
2.99976
2.99933
2.99867
2.99638
2.99271
2.98087
2.95946
3.00001
3.00001
3.00001
3.00001
3.00001
3.00001
3.00001
3.00001
3.00001
3.00001
3.00001
3.00001
3.00001
3.00001
3
2.99999
2.99998
2.99993
2.99986
2.99961
2.99924
2.99787
2.99585
2.98865
2.97722
3.00001
3.00001
3.00001
3.00001
3.00001
3.00001
3.00001
3.00001
3.00001
3.00001
3.00001
3.00001
3.00001
3.00001
3
3
2.99999
2.99996
2.99992
2.99976
2.99953
2.99868
2.99744
2.99292
2.98597
3.00001
3.00001
3.00001
3.00001
3.00001
3.00001
3.00001
3.00001
3.00001
3.00001
3.00001
3.00001
3.00001
3.00001
3.00001
3
3
2.99998
2.99995
2.99983
2.99967
2.99904
2.99812
2.99469
2.98949
3.00001
3.00001
3.00001
3.00001
3.00001
3.00001
3.00001
3.00001
3.00001
3.00001
3.00001
3.00001
3.00001
3.00001
3.00001
3
3
2.99999
2.99995
2.99989
2.99966
2.99933
2.99806
2.99619
2.98916
3.00001
3.00001
3.00001
3.00001
3.00001
3.00001
3.00001
3.00001
3.00001
3.00001
3.00001
3.00001
3.00001
3.00001
3.00001
3
3
2.99999
2.99995
2.9999
2.99968
2.99938
2.99815
2.9964
2.98952
3.00001
3.00001
3.00001
3.00001
3.00001
3.00001
3.00001
3.00001
3.00001
3.00001
3.00001
3.00001
3.00001
3.00001
3.00001
3
3
2.99999
2.99995
2.9999
2.9997
2.99942
2.99829
2.9966
2.9904
3.00001
3.00001
3.00001
3.00001
3.00001
3.00001
3.00001
3.00001
3.00001
3.00001
3.00001
3.00001
3.00001
3.00001
3.00001
3
3
2.99999
2.99997
2.99988
2.99977
2.9993
2.99863
2.99606
2.99187
1.05091
1.25248
1.35849
1.35867
1.28224
1.20426
1.10355
1.01313
0.945893
0.874129
0.746328
0.485019
0.194586
0.102474
0.114269
0.132465
0.187318
0.255551
0.313498
0.360734
0.399728
0.432808
0.462297
0.491031
0.518558
0.540467
0.553947
0.561012
0.561326
0.549537
0.52274
0.48294
0.432957
0.377877
0.321748
0.267059
0.215362
0.166275
0.119666
0.0760488
0.0426068
0.0485074
0.0719471
0.100716
0.132924
0.164723
0.194589
0.22259
0.252068
0.281625
0.309845
0.336258
0.362092
0.386683
0.411009
0.434129
0.457093
0.478876
0.500584
0.521234
0.541774
0.561396
0.580923
0.599605
0.618242
0.636131
0.653939
0.671235
0.688304
0.705109
0.721587
0.737919
0.753941
0.769797
0.785403
0.800812
0.815985
0.830959
0.845689
0.860192
0.874525
0.88848
0.902499
0.915878
0.92959
0.942469
0.955843
0.968296
0.981325
0.993395
1.00608
1.01777
1.03008
1.04137
1.05317
1.06376
1.07442
1.08314
1.09057
1.09474
1.10169
1.22263
1.28925
1.30515
1.30791
1.3242
1.34599
1.34788
1.32495
1.26095
1.12536
0.876664
0.579998
0.39594
0.323355
0.262837
0.196593
0.129562
0.076408
0.0769776
0.128409
0.184968
0.234605
0.276473
0.310918
0.336028
0.348271
0.351904
0.348771
0.333261
0.302956
0.260158
0.210409
0.16
0.112327
0.0743201
0.062571
0.0868298
0.113103
0.144297
0.177595
0.209264
0.238935
0.268489
0.297986
0.327204
0.354674
0.380482
0.406469
0.433098
0.458964
0.483398
0.506916
0.529697
0.551914
0.573511
0.594558
0.615055
0.635037
0.654556
0.673527
0.69214
0.710143
0.727886
0.744983
0.761898
0.778197
0.79433
0.809995
0.825444
0.840684
0.85558
0.870527
0.884934
0.899603
0.913596
0.927969
0.941595
0.955665
0.968903
0.982692
0.995525
1.00903
1.02149
1.03467
1.04679
1.05965
1.07143
1.08401
1.09549
1.10786
1.11909
1.1312
1.14206
1.15369
1.16386
1.17444
1.18289
1.19038
1.1944
1.10422
1.20398
1.29271
1.37716
1.45676
1.52014
1.56034
1.56672
1.553
1.51193
1.41141
1.19509
0.898383
0.715163
0.626797
0.553837
0.486988
0.41783
0.348976
0.283803
0.222232
0.165283
0.115326
0.0756058
0.0561412
0.0796204
0.115474
0.134052
0.139445
0.120172
0.0890955
0.0799494
0.102796
0.130512
0.163793
0.198705
0.232124
0.263969
0.293054
0.321749
0.349909
0.376945
0.402855
0.428119
0.453361
0.477912
0.501823
0.523711
0.545797
0.568367
0.591156
0.612669
0.633385
0.653581
0.673326
0.692626
0.711555
0.729897
0.748044
0.765571
0.78307
0.799948
0.816879
0.833157
0.849572
0.865276
0.881195
0.896294
0.911628
0.926035
0.940703
0.954389
0.968399
0.981516
0.994987
1.00769
1.02076
1.03313
1.04592
1.05796
1.07056
1.08229
1.09472
1.10622
1.11847
1.1298
1.14192
1.15317
1.16519
1.17631
1.18816
1.19903
1.21067
1.22117
1.23244
1.24231
1.25266
1.26099
1.26845
1.27256
1.11765
1.21935
1.31631
1.40767
1.48905
1.55877
1.60865
1.62916
1.62662
1.60993
1.56161
1.43152
1.19359
0.949971
0.832785
0.771601
0.716922
0.655402
0.594238
0.538486
0.481501
0.425555
0.371957
0.320131
0.27043
0.223528
0.179931
0.149635
0.135513
0.150189
0.195316
0.244887
0.291353
0.330584
0.364977
0.394856
0.422749
0.44738
0.470979
0.492692
0.514783
0.535214
0.555953
0.575486
0.595626
0.615028
0.634409
0.652003
0.669519
0.687321
0.706377
0.724282
0.742068
0.758872
0.775964
0.792382
0.808996
0.824984
0.840978
0.856457
0.871881
0.88703
0.902102
0.917043
0.931862
0.946584
0.961178
0.97567
0.990132
1.00446
1.01882
1.03294
1.04703
1.06078
1.07437
1.08755
1.1005
1.11304
1.12544
1.13738
1.1494
1.16082
1.17248
1.18346
1.19483
1.20551
1.21662
1.22706
1.23801
1.24832
1.25916
1.26937
1.28011
1.29014
1.30067
1.31027
1.32012
1.32846
1.33577
1.34002
1.12397
1.22479
1.31924
1.40724
1.48709
1.55667
1.6172
1.66153
1.6841
1.68337
1.66414
1.60568
1.44567
1.19763
1.02384
0.941298
0.887269
0.839467
0.791835
0.74038
0.692068
0.646188
0.597601
0.549088
0.500845
0.45421
0.413069
0.381178
0.362818
0.373064
0.406889
0.45066
0.494008
0.53216
0.561643
0.584845
0.603635
0.620388
0.635728
0.650822
0.66566
0.680457
0.695187
0.709638
0.724335
0.738977
0.753727
0.767478
0.780962
0.794808
0.809905
0.824953
0.839522
0.85341
0.867164
0.880737
0.894334
0.907891
0.921316
0.934625
0.947658
0.960604
0.9734
0.986262
0.999112
1.0121
1.02513
1.03825
1.05146
1.06468
1.07809
1.09149
1.10507
1.11853
1.13206
1.14523
1.15839
1.17091
1.18352
1.19534
1.20745
1.21885
1.23074
1.24191
1.25349
1.26426
1.27539
1.28568
1.29635
1.3062
1.31654
1.3261
1.33625
1.34557
1.35553
1.36441
1.37381
1.3815
1.38868
1.39232
1.12429
1.22152
1.31137
1.39515
1.47274
1.54334
1.60609
1.66001
1.70171
1.71736
1.71168
1.68661
1.61276
1.43457
1.20051
1.08504
1.03253
0.984053
0.938408
0.899948
0.862995
0.821828
0.779141
0.736628
0.690563
0.645647
0.603996
0.564699
0.542989
0.5506
0.58272
0.625847
0.669084
0.70643
0.733593
0.750359
0.76013
0.767314
0.77439
0.782322
0.791146
0.800483
0.810409
0.820613
0.831413
0.842548
0.854188
0.865257
0.876011
0.886707
0.898825
0.911469
0.924105
0.936027
0.947901
0.959457
0.971139
0.982759
0.99438
1.006
1.0174
1.02866
1.03955
1.05038
1.06116
1.07215
1.08337
1.0948
1.1065
1.11824
1.13024
1.14218
1.15448
1.16676
1.17947
1.19211
1.20507
1.2177
1.23051
1.24273
1.25512
1.26671
1.2785
1.28958
1.30099
1.31183
1.32306
1.33367
1.34469
1.35493
1.36562
1.37543
1.38582
1.39522
1.40537
1.41425
1.42394
1.43164
1.43914
1.44281
1.12053
1.2119
1.29882
1.37918
1.45406
1.52362
1.58664
1.64389
1.69153
1.72881
1.73886
1.72996
1.69822
1.61061
1.42674
1.23143
1.14219
1.10276
1.06538
1.02507
0.990797
0.960771
0.925275
0.883547
0.840447
0.79664
0.748636
0.699488
0.674248
0.68181
0.713474
0.757769
0.803834
0.842354
0.870753
0.888188
0.893926
0.893285
0.89227
0.893029
0.895838
0.900359
0.905839
0.912139
0.918911
0.926242
0.9341
0.942034
0.949644
0.957443
0.966356
0.976514
0.987132
0.997478
1.00763
1.01768
1.0278
1.03808
1.04839
1.05881
1.06911
1.0795
1.08954
1.09954
1.10921
1.11899
1.12896
1.13923
1.14999
1.16095
1.1723
1.18371
1.19532
1.20701
1.21891
1.23091
1.24319
1.2555
1.26801
1.28019
1.29238
1.30397
1.31561
1.32648
1.33766
1.34807
1.35901
1.36931
1.38017
1.39043
1.40117
1.4111
1.42164
1.43094
1.44121
1.44981
1.45954
1.46713
1.47476
1.47864
1.11466
1.20034
1.28248
1.36026
1.43355
1.50078
1.56476
1.62112
1.67413
1.71645
1.74809
1.75353
1.74199
1.70468
1.60268
1.42945
1.27029
1.19724
1.16094
1.13157
1.09965
1.06794
1.03587
0.999866
0.958141
0.909129
0.848222
0.787292
0.762613
0.773222
0.805794
0.85287
0.903668
0.947127
0.975132
0.995986
1.0056
1.00432
0.99708
0.990514
0.986852
0.985523
0.986556
0.989058
0.992638
0.997075
1.00232
1.00814
1.01398
1.02
1.02672
1.03456
1.04345
1.05241
1.06115
1.06963
1.07814
1.08689
1.09595
1.10523
1.11453
1.1238
1.133
1.14211
1.15109
1.15989
1.16886
1.17794
1.1876
1.19751
1.20801
1.21854
1.22945
1.24029
1.25147
1.26268
1.27445
1.28611
1.29842
1.31037
1.32293
1.33484
1.3471
1.35864
1.37032
1.38134
1.39257
1.40312
1.41422
1.42437
1.43546
1.44525
1.45616
1.46555
1.47599
1.48484
1.49447
1.50226
1.50975
1.51377
1.11126
1.18879
1.26567
1.33981
1.40975
1.4768
1.53784
1.59684
1.64852
1.69736
1.73563
1.76118
1.76324
1.74892
1.70748
1.5961
1.43493
1.30824
1.24685
1.21246
1.18637
1.15941
1.12616
1.08875
1.0461
0.986336
0.905952
0.838247
0.819932
0.834891
0.869189
0.920008
0.977566
1.02525
1.05676
1.07556
1.08854
1.09363
1.08785
1.07657
1.06598
1.05835
1.05397
1.05228
1.05248
1.05414
1.05686
1.06065
1.06489
1.06947
1.07481
1.08122
1.08894
1.09735
1.10575
1.11396
1.12216
1.13058
1.13937
1.14843
1.15758
1.16667
1.17561
1.18443
1.19313
1.20169
1.21019
1.21869
1.22746
1.23655
1.24623
1.25597
1.26618
1.2762
1.28674
1.29698
1.30776
1.31836
1.32957
1.34075
1.35242
1.36398
1.37592
1.38745
1.39941
1.41052
1.4223
1.4329
1.4444
1.45464
1.46585
1.47589
1.48682
1.49656
1.50715
1.51623
1.52615
1.5339
1.54163
1.5456
1.11137
1.1809
1.25186
1.32093
1.38838
1.4514
1.51283
1.56859
1.62262
1.67042
1.7146
1.74968
1.76859
1.76784
1.75112
1.70506
1.59017
1.43879
1.33951
1.28978
1.2564
1.22965
1.20108
1.1614
1.10761
1.02718
0.929641
0.866776
0.856796
0.875002
0.913865
0.970755
1.03147
1.08129
1.11604
1.13643
1.14884
1.15612
1.15809
1.15043
1.1374
1.12477
1.11472
1.1081
1.10417
1.10244
1.10309
1.10505
1.10816
1.11197
1.11638
1.12147
1.12779
1.13518
1.14301
1.15083
1.15879
1.16693
1.17546
1.18437
1.19353
1.20278
1.21195
1.22097
1.22988
1.23851
1.24719
1.2556
1.2643
1.27286
1.2819
1.2909
1.3004
1.30988
1.31968
1.3294
1.33939
1.34935
1.3597
1.37004
1.38098
1.39177
1.40331
1.41444
1.42633
1.43757
1.44952
1.46061
1.47227
1.48292
1.49416
1.50424
1.51512
1.52463
1.53514
1.54408
1.55388
1.56202
1.56955
1.57449
1.11429
1.17725
1.24146
1.30611
1.36872
1.42994
1.48738
1.5434
1.59479
1.64405
1.68851
1.72789
1.75986
1.77293
1.76899
1.75013
1.69925
1.58555
1.44576
1.36247
1.32236
1.28887
1.25554
1.21251
1.14308
1.03456
0.925964
0.878849
0.878577
0.900901
0.946984
1.0077
1.06835
1.11669
1.15288
1.17752
1.192
1.20012
1.20421
1.20426
1.19638
1.18357
1.17045
1.15933
1.1517
1.1469
1.14535
1.14609
1.1486
1.15233
1.15661
1.16121
1.1668
1.17351
1.18112
1.18906
1.19732
1.20593
1.21483
1.22409
1.23352
1.24313
1.25268
1.26215
1.27148
1.28062
1.28964
1.29837
1.30705
1.31543
1.32392
1.33221
1.34081
1.34919
1.35799
1.36661
1.37578
1.38475
1.39434
1.40372
1.41375
1.42363
1.43424
1.44472
1.45597
1.46689
1.47862
1.4896
1.50151
1.51219
1.52387
1.53396
1.54502
1.55441
1.56457
1.57337
1.58244
1.5904
1.59706
1.60213
1.12118
1.17684
1.23577
1.29517
1.35407
1.4115
1.46679
1.51979
1.57048
1.61821
1.66285
1.70442
1.73921
1.76741
1.77542
1.76965
1.74835
1.69247
1.58284
1.4528
1.37944
1.3405
1.29945
1.24086
1.14444
1.00725
0.905532
0.878731
0.887133
0.917987
0.971141
1.0351
1.0912
1.13656
1.17272
1.19975
1.21923
1.2309
1.2374
1.24074
1.24115
1.23497
1.22417
1.21166
1.20092
1.19275
1.18854
1.18786
1.18955
1.19335
1.19819
1.20315
1.20851
1.21476
1.22214
1.2302
1.23869
1.2475
1.2566
1.26594
1.27548
1.28515
1.29489
1.30465
1.3144
1.32411
1.3337
1.34309
1.35216
1.36086
1.36923
1.37731
1.38511
1.39274
1.40027
1.40773
1.41516
1.42261
1.43044
1.43876
1.4478
1.45664
1.46651
1.47586
1.48656
1.49636
1.50771
1.51782
1.52948
1.53966
1.55113
1.56106
1.57182
1.58121
1.59104
1.59968
1.60816
1.61558
1.62132
1.62601
1.12964
1.17989
1.23318
1.2876
1.3426
1.39625
1.44929
1.49951
1.54868
1.59468
1.63918
1.67954
1.71817
1.74937
1.77281
1.77682
1.76924
1.74495
1.683
1.57772
1.45579
1.38297
1.33009
1.25181
1.10812
0.9543
0.880774
0.872811
0.88857
0.93035
0.990423
1.05102
1.1025
1.14479
1.17986
1.20819
1.23078
1.24744
1.25911
1.26653
1.27156
1.27362
1.27145
1.26435
1.25428
1.2457
1.23959
1.23738
1.23753
1.2404
1.2447
1.24956
1.25452
1.26018
1.26702
1.27507
1.28372
1.29268
1.30181
1.31107
1.32045
1.32989
1.33937
1.34885
1.35837
1.36791
1.37744
1.38685
1.39601
1.40487
1.41328
1.42116
1.42859
1.43575
1.44278
1.44956
1.45627
1.46301
1.46986
1.47666
1.48369
1.49122
1.49983
1.50833
1.51796
1.52703
1.53737
1.54681
1.5575
1.56694
1.5775
1.58656
1.59665
1.6052
1.61443
1.6221
1.62979
1.63617
1.6406
1.64503
1.14226
1.18661
1.23418
1.28405
1.33432
1.38486
1.43415
1.48292
1.52911
1.5746
1.61711
1.65816
1.69591
1.7306
1.75949
1.77709
1.77827
1.76781
1.73933
1.67028
1.56405
1.44186
1.34929
1.22885
1.04115
0.894902
0.857123
0.861876
0.890028
0.941364
1.00335
1.05785
1.10349
1.14226
1.17574
1.20504
1.23051
1.25266
1.27181
1.28679
1.29824
1.30654
1.31259
1.31524
1.31287
1.3065
1.30051
1.29584
1.29371
1.29361
1.2959
1.29952
1.3039
1.30851
1.31394
1.3206
1.32837
1.33661
1.34505
1.35359
1.36219
1.37092
1.37981
1.38886
1.39802
1.40722
1.41639
1.42545
1.43436
1.44296
1.45114
1.45891
1.4663
1.47343
1.48035
1.48709
1.49368
1.50019
1.50667
1.51309
1.51971
1.52661
1.53434
1.54187
1.55067
1.55864
1.56813
1.57643
1.58625
1.59453
1.60422
1.6123
1.62148
1.62896
1.63688
1.64341
1.64926
1.65426
1.65654
1.66123
1.15808
1.19694
1.23887
1.28341
1.32921
1.37597
1.42192
1.46788
1.51224
1.55559
1.59694
1.6374
1.67435
1.71059
1.74118
1.76757
1.77876
1.77584
1.76184
1.72631
1.64565
1.51896
1.37349
1.17478
0.954024
0.84484
0.83399
0.847418
0.888611
0.948274
1.00498
1.05359
1.09537
1.13238
1.16602
1.198
1.22831
1.25731
1.28337
1.3073
1.32642
1.34207
1.35352
1.36278
1.3679
1.37007
1.36654
1.36085
1.35503
1.35142
1.34939
1.35017
1.35263
1.35612
1.35979
1.36424
1.36992
1.37677
1.3841
1.39167
1.39941
1.40731
1.41545
1.42375
1.4323
1.44088
1.44962
1.4583
1.46703
1.47544
1.48371
1.49154
1.49917
1.50638
1.51341
1.52005
1.52659
1.53285
1.53918
1.54534
1.55175
1.55816
1.56532
1.57221
1.58035
1.58748
1.59619
1.60338
1.61216
1.61931
1.62794
1.63494
1.64267
1.6491
1.6551
1.66038
1.66416
1.66676
1.66802
1.67307
1.17534
1.21041
1.24769
1.2875
1.32877
1.371
1.41426
1.4563
1.49897
1.53941
1.57994
1.61782
1.6557
1.68962
1.72323
1.7505
1.77076
1.77382
1.76575
1.74214
1.68502
1.57921
1.38848
1.11076
0.86643
0.794792
0.797592
0.822163
0.873352
0.935398
0.990706
1.03851
1.08181
1.12165
1.16095
1.19824
1.23562
1.27002
1.30276
1.33105
1.35659
1.37702
1.39379
1.40628
1.41608
1.42163
1.42375
1.4214
1.41503
1.4087
1.40282
1.39996
1.39875
1.40008
1.40249
1.40521
1.40863
1.41333
1.41944
1.42617
1.43329
1.44065
1.44823
1.45601
1.46403
1.47218
1.48051
1.48881
1.49712
1.50533
1.51357
1.52161
1.52948
1.53696
1.54417
1.55095
1.55746
1.56363
1.56964
1.57542
1.58121
1.58686
1.59274
1.59859
1.60519
1.61135
1.6187
1.62504
1.63279
1.63941
1.64668
1.65289
1.65899
1.664
1.66827
1.67137
1.67329
1.67464
1.67403
1.67901
1.19062
1.22278
1.25671
1.29264
1.33107
1.36962
1.40961
1.44905
1.48891
1.52746
1.56602
1.60243
1.63893
1.6723
1.70532
1.73322
1.75626
1.76241
1.7553
1.73605
1.688
1.58481
1.37468
1.05091
0.801207
0.750688
0.763857
0.803234
0.867137
0.933946
0.994378
1.04763
1.09517
1.14025
1.18252
1.22401
1.26206
1.29783
1.32966
1.35927
1.38538
1.40827
1.42718
1.44175
1.45298
1.46137
1.46623
1.46839
1.46743
1.46253
1.45566
1.4493
1.44448
1.44221
1.442
1.44375
1.44624
1.44937
1.45372
1.45946
1.46603
1.47305
1.48037
1.48775
1.49535
1.50299
1.51091
1.51873
1.52667
1.53442
1.54227
1.54984
1.55739
1.56453
1.57155
1.57814
1.5846
1.59064
1.59658
1.60215
1.60775
1.61306
1.61845
1.62365
1.62917
1.63433
1.64013
1.64556
1.65143
1.65673
1.66176
1.66616
1.66982
1.67268
1.67465
1.67619
1.6767
1.67635
1.67315
1.67728
1.20963
1.23908
1.26945
1.30081
1.3352
1.37089
1.40727
1.44422
1.48138
1.51819
1.55466
1.58986
1.625
1.65734
1.68959
1.71644
1.73842
1.74206
1.73354
1.71185
1.66107
1.55695
1.34646
1.05789
0.860756
0.833149
0.851989
0.885322
0.937897
0.996147
1.05007
1.09806
1.14113
1.18058
1.21763
1.25314
1.28685
1.31894
1.34888
1.3774
1.40321
1.42725
1.4479
1.46593
1.4801
1.49169
1.50111
1.50724
1.5098
1.51048
1.5072
1.50078
1.49417
1.48765
1.48403
1.48208
1.48281
1.4846
1.4868
1.49005
1.49486
1.50101
1.50772
1.51466
1.52175
1.52903
1.53643
1.54384
1.55135
1.55883
1.56641
1.57394
1.58145
1.58868
1.59563
1.60216
1.60836
1.61417
1.61969
1.62483
1.6298
1.63448
1.63901
1.64326
1.64755
1.65188
1.65647
1.66094
1.66526
1.66886
1.672
1.67424
1.676
1.67721
1.67769
1.6772
1.67557
1.67439
1.67107
1.67477
1.2242
1.25407
1.28292
1.31252
1.34254
1.37489
1.4081
1.44252
1.47634
1.5114
1.5456
1.57916
1.61267
1.64386
1.67382
1.6994
1.7137
1.7117
1.69874
1.66802
1.60103
1.46836
1.28462
1.11142
0.978066
0.932748
0.935923
0.951559
0.981803
1.02655
1.07388
1.11842
1.15888
1.19554
1.2304
1.26358
1.29616
1.32703
1.35712
1.38528
1.41257
1.43737
1.46069
1.48119
1.49935
1.51414
1.52624
1.53618
1.54284
1.54633
1.54732
1.54603
1.54114
1.53426
1.52788
1.52288
1.52039
1.51971
1.52116
1.52309
1.526
1.53043
1.53654
1.54307
1.54999
1.55683
1.56381
1.57073
1.57783
1.58484
1.59201
1.59906
1.60617
1.61302
1.61973
1.62603
1.63203
1.63758
1.64278
1.64748
1.65192
1.65595
1.65952
1.66283
1.66617
1.66929
1.67213
1.67459
1.67649
1.6777
1.67865
1.67916
1.67895
1.67785
1.67628
1.67517
1.67357
1.6734
1.67207
1.67599
1.24064
1.26778
1.29525
1.32351
1.35165
1.3816
1.41167
1.4435
1.47518
1.50696
1.53989
1.57095
1.60273
1.63177
1.65857
1.67807
1.68127
1.67134
1.64795
1.59641
1.49157
1.34083
1.2377
1.16635
1.09139
1.03151
1.0093
1.01151
1.02338
1.04794
1.08524
1.12654
1.16633
1.20319
1.23787
1.27091
1.30269
1.3332
1.36281
1.39135
1.41882
1.44454
1.46904
1.49118
1.51216
1.52992
1.54549
1.55804
1.56896
1.57697
1.58191
1.58329
1.58338
1.58024
1.57453
1.56808
1.5624
1.55896
1.55739
1.55804
1.5597
1.56187
1.56554
1.57071
1.57716
1.58373
1.59047
1.597
1.60368
1.61023
1.617
1.62365
1.63043
1.63696
1.64337
1.64938
1.65497
1.66014
1.66469
1.66872
1.67233
1.67536
1.67801
1.68034
1.68225
1.68355
1.68429
1.68417
1.68415
1.68367
1.68246
1.68039
1.67799
1.67658
1.675
1.67486
1.67558
1.67728
1.67912
1.68356
1.26468
1.28378
1.30899
1.33498
1.36075
1.38848
1.41647
1.44602
1.47589
1.5059
1.53563
1.56576
1.59404
1.62077
1.64165
1.64819
1.63975
1.62026
1.57631
1.48467
1.34609
1.25548
1.22378
1.20805
1.1793
1.13846
1.09845
1.077
1.0749
1.08327
1.10104
1.13098
1.16793
1.20541
1.24085
1.27446
1.30619
1.33683
1.36635
1.39533
1.4229
1.44956
1.47432
1.49856
1.52065
1.54161
1.55981
1.57596
1.58935
1.60129
1.61073
1.61691
1.6196
1.62053
1.61945
1.61517
1.60892
1.6031
1.5985
1.59608
1.59548
1.59675
1.59839
1.60106
1.60559
1.61143
1.61784
1.62398
1.63035
1.63643
1.64276
1.64887
1.65515
1.66115
1.66702
1.67258
1.67757
1.68222
1.68594
1.68912
1.69181
1.69401
1.69546
1.69623
1.696
1.695
1.6937
1.69193
1.68905
1.68611
1.68251
1.68026
1.67817
1.67756
1.67867
1.68087
1.68365
1.68791
1.69248
1.698
1.28706
1.30458
1.32714
1.34972
1.37199
1.39677
1.42249
1.44965
1.47764
1.50575
1.53412
1.56105
1.58686
1.60753
1.61607
1.60858
1.59071
1.55073
1.46619
1.33445
1.24468
1.22257
1.22711
1.23521
1.23583
1.22438
1.19517
1.15446
1.12885
1.12301
1.12945
1.14315
1.16829
1.203
1.23903
1.27427
1.30734
1.33906
1.36929
1.39877
1.42688
1.45379
1.4794
1.50437
1.52797
1.55069
1.57117
1.5902
1.60678
1.62147
1.6342
1.64523
1.65269
1.65703
1.65843
1.65869
1.65599
1.65072
1.64462
1.63909
1.63545
1.63365
1.63391
1.63492
1.6368
1.64002
1.64516
1.65075
1.65688
1.66267
1.66862
1.67418
1.67989
1.68521
1.6905
1.69518
1.69949
1.70297
1.70562
1.7079
1.70948
1.71004
1.70947
1.70821
1.70591
1.70347
1.69861
1.69483
1.68997
1.68658
1.68374
1.68244
1.68335
1.68534
1.68817
1.6926
1.69791
1.70537
1.71133
1.71686
1.3111
1.32092
1.33995
1.36591
1.38819
1.40966
1.43164
1.4555
1.48108
1.50697
1.53249
1.55709
1.57706
1.5862
1.57965
1.56225
1.52403
1.44354
1.31632
1.22238
1.204
1.21547
1.23482
1.25842
1.27331
1.27359
1.26456
1.23825
1.20032
1.17276
1.16575
1.1716
1.18348
1.20585
1.23852
1.27342
1.30805
1.3409
1.37245
1.40276
1.43165
1.4588
1.48524
1.51053
1.5357
1.55915
1.58183
1.60243
1.62204
1.63926
1.65494
1.66836
1.68023
1.68909
1.69434
1.69658
1.6972
1.69607
1.69175
1.68551
1.67944
1.67451
1.6716
1.67026
1.67089
1.67195
1.67417
1.6779
1.68323
1.68861
1.694
1.69917
1.70402
1.70863
1.7128
1.71635
1.71929
1.72138
1.7231
1.72398
1.72345
1.72252
1.71973
1.71682
1.71104
1.70636
1.70071
1.69616
1.69252
1.69047
1.69074
1.69245
1.69501
1.69907
1.70453
1.71201
1.71892
1.72691
1.73351
1.73867
1.3387
1.33953
1.3536
1.37565
1.40025
1.42315
1.44448
1.46558
1.48703
1.50994
1.53154
1.55045
1.55854
1.55198
1.53424
1.49632
1.41648
1.29108
1.1936
1.17582
1.18983
1.21502
1.24776
1.28058
1.30172
1.30765
1.30736
1.2988
1.27554
1.24235
1.21758
1.21109
1.21609
1.2265
1.24581
1.27536
1.30871
1.34229
1.37516
1.40668
1.43668
1.4648
1.49182
1.51813
1.54389
1.56843
1.59192
1.61396
1.63502
1.65447
1.67244
1.68816
1.70227
1.71457
1.72445
1.73072
1.73394
1.73471
1.73444
1.73135
1.72571
1.71936
1.71336
1.70899
1.7066
1.70578
1.70641
1.70764
1.71029
1.71413
1.71874
1.72318
1.72728
1.73087
1.73355
1.73554
1.73692
1.73764
1.73744
1.73673
1.7342
1.73058
1.72486
1.7196
1.71363
1.7084
1.70429
1.70146
1.70126
1.70199
1.70418
1.70774
1.71303
1.71996
1.72706
1.73512
1.7426
1.7503
1.75649
1.76102
1.37576
1.36464
1.3696
1.38582
1.40928
1.43248
1.45522
1.47583
1.49688
1.5151
1.53142
1.53674
1.52922
1.50996
1.47107
1.39028
1.26465
1.1668
1.14829
1.16362
1.18992
1.22784
1.26734
1.29886
1.32149
1.3333
1.33709
1.33767
1.33159