/*--------------------------------*- C++ -*----------------------------------*\
  =========                 |
  \\      /  F ield         | OpenFOAM: The Open Source CFD Toolbox
   \\    /   O peration     | Website:  https://openfoam.org
    \\  /    A nd           | Version:  6
     \\/     M anipulation  |
\*---------------------------------------------------------------------------*/
FoamFile
{
    version     2.0;
    format      ascii;
    class       surfaceScalarField;
    location    "32.9";
    object      phi;
}
// * * * * * * * * * * * * * * * * * * * * * * * * * * * * * * * * * * * * * //

dimensions      [0 3 -1 0 0 0 0];

internalField   nonuniform List<scalar> 
17370
(
-0.0900013
0.0898498
0.289162
-0.0714629
0.0537523
0.364486
-0.0381183
0.0276884
0.426598
-0.0196343
0.0145983
0.504288
-0.0107523
0.00825782
0.601897
-0.00625486
0.00487914
0.720433
-0.00372201
0.00289176
0.863737
-0.00216387
0.00161641
1.036
-0.00111007
0.000706076
1.24291
-0.000306602
-7.35336e-05
1.49157
0.000443335
-0.000846512
1.49159
0.00124504
-0.00174097
1.24319
0.00227912
-0.00299792
1.03636
0.00382122
-0.00497143
0.864057
0.00633979
-0.00833397
0.721052
0.010821
-0.01466
0.603054
0.0196901
-0.0277381
0.507487
0.0381624
-0.0537893
0.431795
0.0714928
-0.0898695
0.365152
0.0900128
0.198998
-0.128129
0.0882154
0.0399135
-0.364591
0.353364
-0.0746841
0.0859107
-0.446472
0.454311
-0.0844112
0.0765722
-0.521182
0.529893
-0.0684758
0.0597647
-0.612776
0.62156
-0.0515742
0.0427907
-0.726881
0.73415
-0.0353267
0.0280582
-0.867469
0.872559
-0.0224676
0.017378
-1.03847
1.04189
-0.0135998
0.0101871
-1.2446
1.24701
-0.00760493
0.00519689
-1.49264
1.4946
-0.00326335
0.00129627
-1.49249
1.49422
0.000394546
-0.00212181
-1.24399
1.24587
0.00402803
-0.00591145
-1.03751
1.04005
0.00826977
-0.0108048
-0.866104
0.86984
0.0141674
-0.0179032
-0.724396
0.729948
0.0229495
-0.0285013
-0.608703
0.616129
0.0357275
-0.0431535
-0.514901
0.523058
0.0518974
-0.0600538
-0.439861
0.447929
0.0687289
-0.0767972
-0.375301
0.376758
0.0846045
-0.0860613
-0.257342
0.222509
0.0747865
-0.0399535
-0.0684982
0.0586665
0.00983168
-0.0518475
0.0584444
-0.374105
0.367508
-0.0575386
0.0537941
-0.45358
0.457324
-0.0487085
0.0447604
-0.527928
0.531876
-0.0409252
0.0372915
-0.621542
0.625176
-0.0331975
0.0291358
-0.735323
0.739385
-0.024589
0.0204543
-0.874301
0.878436
-0.0161404
0.0124733
-1.04345
1.04711
-0.00877018
0.00562792
-1.24854
1.25168
-0.0023329
-0.00072184
-1.49665
1.49971
0.00375257
-0.00698998
-1.49722
1.50046
0.0100635
-0.0136796
-1.25008
1.25369
0.017268
-0.0214996
-1.04593
1.05016
0.0255614
-0.0300298
-0.877785
0.882253
0.0340197
-0.038035
-0.739937
0.743952
0.0415993
-0.0453634
-0.62681
0.630574
0.0492524
-0.0542816
-0.53484
0.539869
0.0579668
-0.0587981
-0.457505
0.458337
0.0521167
-0.03195
-0.335802
0.315635
0.0098763
-0.0683802
0.0585039
-0.0529097
0.0489086
0.0040011
-0.0332036
0.0437671
-0.358057
0.347494
-0.0474787
0.0468605
-0.459244
0.459862
-0.0438125
0.0404664
-0.535752
0.539098
-0.0367004
0.0334041
-0.62847
0.631766
-0.0299822
0.0269759
-0.742593
0.7456
-0.0237582
0.0206961
-0.881965
0.885027
-0.0172177
0.0138822
-1.0507
1.05404
-0.0101315
0.00661971
-1.25509
1.2586
-0.00268112
-0.00109384
-1.50319
1.50696
0.00484053
-0.00870161
-1.50411
1.50798
0.0121053
-0.0157236
-1.25745
1.26107
0.0189337
-0.0222749
-1.05398
1.05732
0.02522
-0.0283191
-0.885768
0.888868
0.0312217
-0.0345323
-0.747232
0.750542
0.0377295
-0.0413934
-0.634369
0.638033
0.0446543
-0.047608
-0.54419
0.547143
0.0481291
-0.0442818
-0.45665
0.452803
0.0335588
-0.0161656
-0.296319
0.278926
0.00405476
-0.0527004
0.0486456
-0.0458234
0.0433216
0.00250173
-0.0228511
0.0332552
-0.336778
0.326374
-0.0391017
0.0401358
-0.459531
0.458497
-0.038959
0.0366787
-0.541806
0.544087
-0.0340173
0.0314322
-0.634797
0.637382
-0.0283921
0.0255285
-0.748622
0.751486
-0.0223206
0.0193848
-0.887953
0.890888
-0.016139
0.0130839
-1.05713
1.06018
-0.00960434
0.00624092
-1.26203
1.26539
-0.00233454
-0.0014909
-1.51083
1.51465
0.00528244
-0.00908747
-1.51188
1.51568
0.0123138
-0.0156197
-1.2645
1.2678
0.0185051
-0.0215665
-1.06041
1.06347
0.0243445
-0.0273934
-0.89193
0.894979
0.0301187
-0.0330098
-0.753782
0.756673
0.0354615
-0.0379851
-0.641143
0.643667
0.04015
-0.041181
-0.548988
0.550019
0.0399981
-0.0339377
-0.447575
0.441515
0.0233031
-0.0101644
-0.263775
0.250636
0.00256777
-0.0455025
0.0429347
-0.041239
0.0394665
0.00177251
-0.0167854
0.0260607
-0.316491
0.307216
-0.0326938
0.0348591
-0.456861
0.454696
-0.0344679
0.0328284
-0.546021
0.54766
-0.0306828
0.028621
-0.639638
0.6417
-0.0262322
0.0238851
-0.754106
0.756454
-0.0210931
0.0183647
-0.893778
0.896506
-0.0151957
0.0121888
-1.0632
1.06621
-0.00876423
0.00550046
-1.26865
1.27192
-0.00172066
-0.0019717
-1.51838
1.52207
0.00561692
-0.00925894
-1.5194
1.52304
0.0123464
-0.0155412
-1.27108
1.27427
0.0183257
-0.0212531
-1.06653
1.06946
0.023776
-0.026362
-0.89783
0.900416
0.0285316
-0.0307316
-0.759151
0.761351
0.0326258
-0.034595
-0.645844
0.647813
0.0360694
-0.0362624
-0.550568
0.550761
0.0338707
-0.0269284
-0.434928
0.427985
0.0173461
-0.00731176
-0.2392
0.229166
0.00185321
-0.0407817
0.0389285
-0.0379371
0.0366037
0.00133338
-0.0128134
0.020779
-0.298597
0.290631
-0.0275555
0.0304983
-0.452108
0.449165
-0.0307142
0.0295999
-0.54906
0.550174
-0.0276054
0.0257035
-0.643691
0.645593
-0.0235541
0.0215024
-0.758643
0.760695
-0.0191131
0.0167519
-0.899017
0.901379
-0.0139311
0.0111492
-1.06906
1.07184
-0.00787695
0.00471106
-1.2751
1.27827
-0.00103387
-0.00254555
-1.5257
1.52928
0.00607215
-0.00958346
-1.52665
1.53016
0.0125278
-0.0155104
-1.27739
1.28038
0.0180054
-0.0205064
-1.07217
1.07467
0.022595
-0.0247171
-0.902706
0.904828
0.0265465
-0.0284635
-0.763369
0.765286
0.0301583
-0.0319404
-0.649686
0.651468
0.032815
-0.0323215
-0.550629
0.550135
0.0290557
-0.021858
-0.420864
0.413666
0.0135006
-0.00561808
-0.220311
0.212428
0.00143146
-0.0373141
0.0358826
-0.0354361
0.0344093
0.00102678
-0.00999419
0.0167149
-0.283305
0.276584
-0.0232192
0.0266289
-0.445952
0.442542
-0.0274637
0.0268198
-0.551025
0.551669
-0.0251266
0.0234027
-0.64743
0.649154
-0.0214051
0.01946
-0.762724
0.764669
-0.0171719
0.0149195
-0.903658
0.905911
-0.0122676
0.00967499
-1.07448
1.07707
-0.0066384
0.00367246
-1.2813
1.28427
-0.000196057
-0.00320113
-1.53274
1.53614
0.00653451
-0.00981805
-1.53356
1.53685
0.0125224
-0.0152054
-1.28324
1.28593
0.0174429
-0.0197017
-1.07706
1.07932
0.021616
-0.0235719
-0.906844
0.9088
0.0252397
-0.0269502
-0.767071
0.768782
0.0284149
-0.0298133
-0.653097
0.654495
0.0301548
-0.0289322
-0.549293
0.54807
0.0250872
-0.018038
-0.406514
0.399465
0.0108306
-0.00447575
-0.205379
0.199025
0.00114552
-0.0346118
0.0334662
-0.0335066
0.0327112
0.000795442
-0.00788163
0.0135067
-0.270436
0.264811
-0.0194974
0.023072
-0.439028
0.435454
-0.0243428
0.0239129
-0.552198
0.552627
-0.0224577
0.0208382
-0.650835
0.652454
-0.0189624
0.0171599
-0.766582
0.768384
-0.0150465
0.0129597
-0.908071
0.910158
-0.0104932
0.00807166
-1.07952
1.08194
-0.00522786
0.00243884
-1.2871
1.28989
0.00084114
-0.00404305
-1.53942
1.54263
0.00716315
-0.0101978
-1.54001
1.54304
0.0126568
-0.0150647
-1.2885
1.29091
0.017047
-0.0190167
-1.08147
1.08344
0.0206685
-0.0223471
-0.910613
0.912291
0.0237951
-0.0253182
-0.77035
0.771873
0.0266306
-0.0277277
-0.655719
0.656816
0.0277658
-0.0259684
-0.546571
0.544774
0.0218139
-0.0151275
-0.392599
0.385913
0.00890171
-0.00366078
-0.193279
0.188038
0.000940482
-0.0324383
0.0314979
-0.0320112
0.0313948
0.000616311
-0.00622993
0.0109035
-0.259681
0.255007
-0.016276
0.0198503
-0.431865
0.428291
-0.021466
0.021285
-0.552962
0.553143
-0.0200807
0.0185319
-0.654077
0.655626
-0.016727
0.0149882
-0.770171
0.771909
-0.0129543
0.0109528
-0.912136
0.914138
-0.00858621
0.00626815
-1.08423
1.08655
-0.00355707
0.000927952
-1.29257
1.29519
0.00211645
-0.00504934
-1.54568
1.54861
0.00788749
-0.010639
-1.54595
1.54871
0.0128727
-0.015053
-1.29323
1.29541
0.016834
-0.0185931
-1.08531
1.08707
0.0200563
-0.0215393
-0.913845
0.915328
0.022823
-0.0241801
-0.77327
0.774627
0.0253494
-0.0260551
-0.657725
0.65843
0.0257313
-0.0234269
-0.542756
0.540451
0.019112
-0.0128757
-0.379462
0.373226
0.00746842
-0.00306451
-0.183257
0.178853
0.000791758
-0.0306457
0.029854
-0.0308585
0.0303898
0.000468638
-0.00487236
0.00870467
-0.250773
0.246941
-0.0133841
0.0167742
-0.424795
0.421405
-0.01858
0.0186431
-0.553205
0.553142
-0.0177189
0.0162963
-0.657157
0.65858
-0.0145817
0.0128887
-0.773661
0.775354
-0.0108807
0.00890473
-0.916079
0.918055
-0.00659459
0.0043635
-1.08876
1.09099
-0.001782
-0.000698004
-1.29769
1.30017
0.00355704
-0.00629979
-1.5514
1.55414
0.00891366
-0.0113969
-1.55132
1.5538
0.0133746
-0.0152807
-1.29752
1.29942
0.0168293
-0.0183674
-1.08878
1.09032
0.0196612
-0.0209939
-0.916741
0.918074
0.0221442
-0.0233218
-0.77584
0.777017
0.0242703
-0.024582
-0.658911
0.659222
0.0238932
-0.0211994
-0.537973
0.535279
0.0168678
-0.0111154
-0.367253
0.3615
0.00638435
-0.00262159
-0.174806
0.171043
0.000683582
-0.0291308
0.0284472
-0.0299913
0.0296507
0.000340659
-0.00370531
0.00677966
-0.243504
0.24043
-0.0107425
0.0138193
-0.41818
0.415103
-0.0156321
0.0158127
-0.553053
0.552873
-0.0149503
0.0136095
-0.660016
0.661357
-0.0119435
0.0103142
-0.777028
0.778657
-0.00839958
0.00652833
-0.919894
0.921765
-0.00434289
0.00223112
-1.09306
1.09518
0.000217144
-0.00257085
-1.30253
1.30488
0.00527457
-0.00783239
-1.55678
1.55934
0.0102399
-0.0124871
-1.55619
1.55844
0.0142318
-0.0158769
-1.30125
1.30289
0.0171861
-0.0184456
-1.09177
1.09303
0.0194827
-0.0205342
-0.919243
0.920295
0.0214461
-0.0224073
-0.778022
0.778983
0.0231241
-0.0232171
-0.659414
0.659507
0.022186
-0.0192443
-0.532503
0.529562
0.0149969
-0.00971945
-0.356024
0.350747
0.00554898
-0.00228597
-0.167569
0.164306
0.000602151
-0.027821
0.0272188
-0.0293726
0.0291475
0.000225107
-0.00265511
0.00502874
-0.237719
0.235345
-0.00826759
0.0109581
-0.412232
0.409541
-0.0127079
0.0129914
-0.552688
0.552404
-0.0122086
0.0109419
-0.662749
0.664016
-0.00929413
0.00767496
-0.780295
0.781914
-0.00578434
0.00394247
-0.923505
0.925347
-0.00179928
-0.00026786
-1.09715
1.09922
0.00263536
-0.00487529
-1.30711
1.30935
0.00738418
-0.00970155
-1.56173
1.56404
0.0118357
-0.0137831
-1.56054
1.56249
0.0152656
-0.0166201
-1.30446
1.30581
0.0176679
-0.0186642
-1.09417
1.09517
0.0194757
-0.0202962
-0.921236
0.922057
0.0210272
-0.021817
-0.779833
0.780623
0.0222979
-0.0221096
-0.659442
0.659254
0.0207675
-0.017596
-0.526551
0.523379
0.0134571
-0.00861536
-0.345724
0.340882
0.00490891
-0.00203894
-0.161272
0.158402
0.000546864
-0.0266602
0.0261134
-0.0289835
0.0288744
0.000109153
-0.00162741
0.00330418
-0.233338
0.231661
-0.00577038
0.00797055
-0.407116
0.404916
-0.00954391
0.00989186
-0.552145
0.551797
-0.00924444
0.00812074
-0.665304
0.666428
-0.0065518
0.00493553
-0.783529
0.785146
-0.00299329
0.00109647
-0.927086
0.928982
0.00108148
-0.00312873
-1.10115
1.1032
0.00542508
-0.00755368
-1.31146
1.31359
0.00990713
-0.0120478
-1.56624
1.56838
0.0139465
-0.0156073
-1.56431
1.56597
0.0168182
-0.0178981
-1.30709
1.30817
0.0187217
-0.0194957
-1.09611
1.09688
0.0201153
-0.0207085
-0.922785
0.923378
0.0211762
-0.0216211
-0.781195
0.78164
0.0217064
-0.0212022
-0.658841
0.658336
0.0194881
-0.0161311
-0.520165
0.516808
0.0121421
-0.00771373
-0.336297
0.331868
0.0044057
-0.0018537
-0.155733
0.153181
0.000508627
-0.0256064
0.0250978
-0.0288267
0.0288282
-1.51952e-06
-0.000637799
0.00163705
-0.230338
0.229339
-0.00331571
0.00494345
-0.403044
0.401417
-0.00618115
0.0064353
-0.551577
0.551323
-0.00578401
0.00468259
-0.667627
0.668728
-0.00310324
0.00147328
-0.786746
0.788375
0.000462833
-0.00232711
-0.930726
0.93259
0.00444968
-0.0064441
-1.10509
1.10708
0.00867823
-0.010737
-1.31558
1.31764
0.0129691
-0.0149095
-1.57036
1.5723
0.016579
-0.0179447
-1.56749
1.56886
0.0188497
-0.0195674
-1.30913
1.30985
0.0200383
-0.0204151
-1.09752
1.09789
0.0206727
-0.0209096
-0.923833
0.92407
0.0211513
-0.0213641
-0.781935
0.782148
0.0211589
-0.0202865
-0.657514
0.656642
0.0183282
-0.0149
-0.51349
0.510062
0.0110938
-0.00702934
-0.327699
0.323634
0.00404014
-0.00172722
-0.1508
0.148487
0.000485197
-0.0246261
0.0241409
-0.028893
0.029028
-0.00013494
0.000403609
-0.000110885
-0.22869
0.228397
-0.00076257
0.00178275
-0.400158
0.399137
-0.00261858
0.00270647
-0.5513
0.551212
-0.00198468
0.000838966
-0.669987
0.671133
0.000770393
-0.00241775
-0.789942
0.79159
0.00435937
-0.00623147
-0.934246
0.936118
0.00837217
-0.0103791
-1.10892
1.11092
0.0126018
-0.0146076
-1.31957
1.32157
0.0167051
-0.0184608
-1.57409
1.57584
0.0198668
-0.0209342
-1.57008
1.57115
0.0215337
-0.0218949
-1.31046
1.31082
0.0220367
-0.0220327
-1.09814
1.09813
0.0219566
-0.0218577
-0.924182
0.924083
0.0217543
-0.0216058
-0.782064
0.781915
0.0211361
-0.0198994
-0.655495
0.654259
0.0176273
-0.0140426
-0.50669
0.503106
0.0103404
-0.00654891
-0.319796
0.316004
0.00380053
-0.0016583
-0.146318
0.144175
0.0004799
-0.0236862
0.0232063
-0.029234
0.0294999
-0.000265904
0.00147902
-0.00186646
-0.228466
0.228854
0.00187083
-0.00151985
-0.398541
0.39819
0.00114016
-0.00121449
-0.551398
0.551473
0.00192116
-0.00305337
-0.67241
0.673543
0.00469756
-0.00643625
-0.793178
0.794917
0.00852351
-0.0105343
-0.937846
0.939857
0.0128111
-0.0149168
-1.11281
1.11492
0.0172084
-0.0192174
-1.32345
1.32546
0.021248
-0.0228612
-1.57743
1.57904
0.0240337
-0.0247877
-1.57204
1.57279
0.0250911
-0.0250981
-1.31108
1.31108
0.0249077
-0.0245661
-1.098
1.09766
0.024162
-0.0236689
-0.923773
0.92328
0.0232099
-0.0226497
-0.78143
0.78087
0.0217727
-0.0199534
-0.652745
0.650926
0.0172984
-0.0135398
-0.499596
0.495837
0.00990834
-0.00630673
-0.312428
0.308826
0.00370186
-0.00163911
-0.142152
0.140089
0.000481101
-0.022761
0.0222799
-0.0298452
0.0302555
-0.000410268
0.00251413
-0.00359707
-0.229569
0.230652
0.00444932
-0.0048846
-0.398303
0.398739
0.00515636
-0.00555776
-0.551963
0.552364
0.00638907
-0.00762802
-0.674867
0.676106
0.00940971
-0.0113011
-0.79658
0.798472
0.013566
-0.0157303
-0.941699
0.943864
0.018157
-0.0203723
-1.11689
1.1191
0.0227471
-0.0247986
-1.32737
1.32942
0.0268207
-0.0283397
-1.58054
1.58206
0.0293153
-0.0297308
-1.57335
1.57377
0.029668
-0.0292319
-1.31093
1.31049
0.0286334
-0.027844
-1.0971
1.09631
0.0270639
-0.0261842
-0.922506
0.921627
0.0253838
-0.0243663
-0.779906
0.778888
0.0229441
-0.02063
-0.648946
0.646632
0.0176644
-0.0137455
-0.492217
0.488298
0.0100993
-0.00651225
-0.305394
0.301807
0.00387351
-0.00173107
-0.138085
0.135942
0.000508734
-0.0218268
0.0213181
-0.0307605
0.0313346
-0.000574166
0.00359841
-0.00532937
-0.232099
0.23383
0.00701781
-0.00823551
-0.399588
0.400806
0.0092638
-0.0101836
-0.553356
0.554276
0.011402
-0.012942
-0.67764
0.67918
0.0150436
-0.0172146
-0.800294
0.802465
0.0197623
-0.0221619
-0.945872
0.948272
0.0248192
-0.0272083
-1.12119
1.12358
0.0297145
-0.0317994
-1.33133
1.33341
0.0337392
-0.0350276
-1.58337
1.58466
0.0356702
-0.0356694
-1.57393
1.57393
0.0352109
-0.0343319
-1.30985
1.30897
0.0332986
-0.0320415
-1.09525
1.09399
0.0308561
-0.0295696
-0.920429
0.919143
0.0284078
-0.0269077
-0.777437
0.775937
0.0251134
-0.0223864
-0.644262
0.641535
0.0191018
-0.0149197
-0.484522
0.48034
0.0110791
-0.0072588
-0.298306
0.294486
0.00436942
-0.00196347
-0.133782
0.131376
0.000575404
-0.0208234
0.020248
-0.031999
0.0327576
-0.000758564
0.00479448
-0.00721898
-0.235947
0.238372
0.00975233
-0.0117448
-0.402459
0.404452
0.013538
-0.015043
-0.555885
0.55739
0.0168006
-0.0187774
-0.681104
0.683081
0.0213319
-0.0239007
-0.804586
0.807155
0.0268654
-0.0296245
-0.950539
0.953298
0.032646
-0.0353248
-1.12588
1.12855
0.0380682
-0.0402825
-1.33538
1.3376
0.0422087
-0.0433206
-1.58574
1.58685
0.0436572
-0.0432426
-1.57367
1.57325
0.0423345
-0.0409588
-1.30782
1.30645
0.0394851
-0.0377459
-1.09244
1.0907
0.0361348
-0.0344231
-0.917475
0.915763
0.0328938
-0.0309223
-0.77403
0.772058
0.0286843
-0.0254336
-0.638761
0.63551
0.0216845
-0.0170321
-0.476258
0.471605
0.0127738
-0.00846698
-0.29066
0.286354
0.00513163
-0.00231022
-0.128889
0.126068
0.000675016
-0.0196739
0.0189989
-0.0336056
0.0346141
-0.00100854
0.00634765
-0.00961638
-0.241207
0.244476
0.0131331
-0.0159729
-0.406978
0.409818
0.018575
-0.020662
-0.559677
0.561764
0.0229329
-0.0253526
-0.685471
0.687891
0.0284231
-0.0314859
-0.80968
0.812742
0.0350263
-0.0383098
-0.955979
0.959262
0.041874
-0.0449871
-1.13119
1.1343
0.0481171
-0.0505562
-1.33973
1.34217
0.0525698
-0.0536053
-1.58778
1.58882
0.0536711
-0.0528094
-1.57254
1.57168
0.0514291
-0.0494925
-1.30474
1.3028
0.0475071
-0.0452622
-1.08858
1.08633
0.0432124
-0.0409997
-0.913582
0.911369
0.038987
-0.0364047
-0.769656
0.767074
0.033586
-0.029646
-0.632183
0.628243
0.025264
-0.0199403
-0.46701
0.461686
0.0150507
-0.0100272
-0.281969
0.276945
0.00608641
-0.00273782
-0.123129
0.11978
0.000798466
-0.0183206
0.0175221
-0.0357063
0.0370689
-0.00136258
0.00848024
-0.0128438
-0.248174
0.252537
0.0175726
-0.0214424
-0.413384
0.417254
0.0249857
-0.02781
-0.564829
0.567653
0.0307422
-0.0337262
-0.690797
0.693781
0.0374532
-0.0411568
-0.81577
0.819473
0.0453955
-0.0492948
-0.96248
0.96638
0.0534901
-0.0571005
-1.13738
1.14099
0.0606396
-0.0632954
-1.34453
1.34718
0.0653615
-0.0662314
-1.58965
1.59052
0.0659581
-0.0645867
-1.57051
1.56913
0.0626732
-0.060111
-1.30049
1.29793
0.0575205
-0.0545402
-1.08356
1.08058
0.051816
-0.0489296
-0.908524
0.905638
0.0462764
-0.0430131
-0.764006
0.760743
0.0394907
-0.0347551
-0.624181
0.619446
0.0296508
-0.0234871
-0.456423
0.45026
0.01775
-0.0117976
-0.2718
0.265848
0.00713294
-0.0031934
-0.116307
0.112368
0.000926699
-0.0167238
0.0157971
-0.0384994
0.0403991
-0.00189971
0.0115819
-0.0174214
-0.257325
0.263164
0.0236679
-0.0287979
-0.42217
0.4273
0.0335457
-0.0373905
-0.571809
0.575654
0.0413686
-0.0453061
-0.697448
0.701386
0.0500224
-0.0545431
-0.823167
0.827688
0.0596033
-0.0641721
-0.970213
0.974782
0.068972
-0.0729722
-1.14449
1.14849
0.076722
-0.0793569
-1.34962
1.35226
0.0811123
-0.0814245
-1.591
1.59131
0.0803916
-0.0781275
-1.56728
1.56501
0.0753859
-0.0719576
-1.29491
1.29148
0.0686431
-0.0649572
-1.07705
1.07337
0.0616257
-0.0580353
-0.901989
0.898399
0.0547378
-0.0508247
-0.756873
0.75296
0.0466402
-0.0411105
-0.614625
0.609096
0.0351113
-0.0277636
-0.444118
0.436771
0.0208762
-0.0137793
-0.259751
0.252654
0.00827983
-0.00368158
-0.108312
0.103714
0.00105981
-0.0148797
0.0138199
-0.0423152
0.0450635
-0.00274821
0.0162419
-0.024094
-0.269399
0.277251
0.0322486
-0.0388914
-0.434046
0.440688
0.0450948
-0.0502625
-0.581309
0.586476
0.0557354
-0.0609981
-0.706179
0.711441
0.0670014
-0.072557
-0.832228
0.837784
0.0785692
-0.0837863
-0.979258
0.984475
0.0890351
-0.0931981
-1.15225
1.15641
0.0968743
-0.0991808
-1.35447
1.35678
0.100272
-0.0996874
-1.59099
1.59041
0.097589
-0.0941336
-1.56203
1.55857
0.0903225
-0.0857534
-1.2874
1.28284
0.081459
-0.0768458
-1.06903
1.06442
0.0728376
-0.0686839
-0.894069
0.889915
0.0649018
-0.060493
-0.748422
0.744014
0.055721
-0.0491084
-0.603422
0.59681
0.0417303
-0.0326918
-0.429332
0.420294
0.0243725
-0.0159635
-0.245456
0.237047
0.00952458
-0.00419532
-0.0990276
0.0936983
0.00119255
-0.0127824
0.0115898
-0.047712
0.0519006
-0.0041886
0.0236247
-0.0342845
-0.285524
0.296184
0.044918
-0.0534673
-0.449883
0.458432
0.0613405
-0.067944
-0.593964
0.600567
0.0750772
-0.0818548
-0.717587
0.724365
0.0893219
-0.0959173
-0.843357
0.849952
0.102727
-0.108385
-0.989494
0.995153
0.113821
-0.117924
-1.16019
1.16429
0.121258
-0.123023
-1.3585
1.36027
0.123285
-0.121739
-1.58909
1.58754
0.118606
-0.114045
-1.55439
1.54983
0.109257
-0.103644
-1.27761
1.27199
0.098419
-0.0928224
-1.05905
1.05346
0.0880019
-0.0831051
-0.884846
0.879949
0.0786828
-0.0733341
-0.738726
0.733377
0.0671392
-0.0585597
-0.589566
0.580987
0.0492094
-0.0381731
-0.411098
0.400062
0.0282785
-0.018399
-0.228664
0.218785
0.0108795
-0.00472706
-0.0883417
0.0821893
0.00131873
-0.0104378
0.00911906
-0.0557352
0.0629224
-0.00718716
0.0367714
-0.051685
-0.307823
0.322737
0.0658961
-0.0770004
-0.470979
0.482083
0.0865495
-0.0944491
-0.609957
0.617857
0.103053
-0.111016
-0.731726
0.739689
0.119341
-0.126327
-0.85624
0.863226
0.133289
-0.138877
-1.00036
1.00594
0.144058
-0.147719
-1.16781
1.17147
0.150376
-0.151328
-1.3613
1.36225
0.150564
-0.147951
-1.58518
1.58257
0.143752
-0.138139
-1.54456
1.53894
0.132463
-0.125961
-1.2658
1.2593
0.119934
-0.113433
-1.04716
1.04066
0.107705
-0.101574
-0.873826
0.867695
0.0956772
-0.0882736
-0.726375
0.718972
0.0797796
-0.0686199
-0.571176
0.560017
0.0571997
-0.0442312
-0.388927
0.375959
0.032691
-0.0211633
-0.209126
0.197599
0.0123763
-0.00527807
-0.0761784
0.0690802
0.00142867
-0.0078751
0.00644643
-0.0696754
0.0734959
-0.00382055
0.0272533
-0.0401355
-0.340241
0.353123
0.0527622
-0.0626832
-0.498431
0.508352
0.0716542
-0.0804041
-0.628867
0.637617
0.0904889
-0.0995917
-0.747075
0.756178
0.109801
-0.118934
-0.869276
0.878409
0.128668
-0.137284
-1.01067
1.01929
0.146215
-0.153729
-1.17418
1.18169
0.160965
-0.166389
-1.3622
1.36763
0.170628
-0.17249
-1.57893
1.58079
0.171855
-0.169134
-1.53243
1.5297
0.16509
-0.159379
-1.25206
1.24635
0.153451
-0.145748
-1.03332
1.02562
0.138171
-0.128888
-0.859876
0.850592
0.119287
-0.107348
-0.70906
0.697121
0.094328
-0.0786533
-0.547641
0.531966
0.0637821
-0.0473742
-0.362791
0.346383
0.0333799
-0.0201827
-0.186371
0.173174
0.0108554
-0.00415864
-0.0626341
0.0559374
0.000932963
-0.00518303
0.00425007
-0.0807258
0.0784238
0.00230201
0.00575499
-0.0135806
-0.368743
0.376569
0.022825
-0.0298475
-0.522666
0.529688
0.0369376
-0.0441142
-0.648527
0.655703
0.0529802
-0.0612907
-0.764835
0.773145
0.0703385
-0.0787551
-0.887019
0.895436
0.0878124
-0.0955774
-1.0277
1.03547
0.103876
-0.110552
-1.18914
1.19582
0.116998
-0.121605
-1.37289
1.37749
0.124736
-0.125618
-1.58195
1.58284
0.123951
-0.120071
-1.52619
1.52231
0.114685
-0.107436
-1.23987
1.23262
0.0999121
-0.0905726
-1.01676
1.00742
0.0810108
-0.0695503
-0.838504
0.827044
0.0586833
-0.0472683
-0.680631
0.669215
0.0371816
-0.0266915
-0.514233
0.503743
0.0179852
-0.010404
-0.32957
0.321988
0.00537801
-0.00189776
-0.160343
0.156863
0.000141111
0.000443851
-0.0494771
0.0488921
-0.000345053
-0.00292159
0.00326664
-0.0814771
0.0785232
0.00295389
-0.00255753
-0.00156945
-0.387575
0.391702
0.00729015
-0.0123479
-0.540327
0.545384
0.0177007
-0.0237196
-0.664693
0.670712
0.0311515
-0.038185
-0.780572
0.787606
0.0461525
-0.0534828
-0.903135
0.910466
0.0612018
-0.0682276
-1.04311
1.05013
0.075557
-0.0815581
-1.20212
1.20812
0.086909
-0.0904961
-1.38146
1.38504
0.0927659
-0.092606
-1.58288
1.58272
0.0898758
-0.0848875
-1.51749
1.5125
0.078595
-0.0706193
-1.22474
1.21677
0.0621905
-0.0523922
-0.997105
0.987307
0.0428317
-0.0320274
-0.814983
0.804179
0.0225721
-0.0131509
-0.655568
0.646147
0.00570071
0.00121243
-0.491534
0.484621
-0.00549819
0.00760268
-0.312568
0.310464
-0.00770404
0.00641396
-0.151521
0.152811
-0.00458446
0.00241385
-0.0474753
0.0496459
-0.000862532
-0.00287667
0.00373921
-0.0800125
0.0772
0.0028125
-0.00569529
0.00381078
-0.399747
0.401632
-0.000347388
-0.00340559
-0.553476
0.557229
0.00804701
-0.0130567
-0.677673
0.682683
0.0193562
-0.0253607
-0.794145
0.800149
0.0321575
-0.0384562
-0.917326
0.923625
0.0454813
-0.0514737
-1.05673
1.06273
0.0579024
-0.0627193
-1.21371
1.21853
0.0672765
-0.0701682
-1.38835
1.39124
0.0715254
-0.0703898
-1.58196
1.58082
0.0671604
-0.06183
-1.5067
1.50137
0.055402
-0.0471333
-1.20837
1.2001
0.0389947
-0.0297899
-0.977095
0.967891
0.0209402
-0.0115366
-0.793141
0.783737
0.0031518
0.00471021
-0.634908
0.627046
-0.0103686
0.014396
-0.475776
0.471749
-0.0160026
0.0151918
-0.304874
0.305685
-0.0129251
0.00952565
-0.152226
0.155625
-0.00639159
0.00311196
-0.0507701
0.0540497
-0.0010021
-0.00390075
0.00490285
-0.0784535
0.0760732
0.00238028
-0.00636293
0.00579797
-0.407932
0.408497
-0.0031883
0.000350121
-0.5641
0.566938
0.00350213
-0.00813162
-0.688547
0.693177
0.0134542
-0.018774
-0.805621
0.81094
0.0246873
-0.0301851
-0.929548
0.935045
0.0362398
-0.0415874
-1.06859
1.07393
0.0470481
-0.0514402
-1.22318
1.22757
0.0552862
-0.0575998
-1.3937
1.39601
0.0584264
-0.0569351
-1.57941
1.57792
0.0535293
-0.048043
-1.49528
1.4898
0.0418812
-0.034301
-1.19181
1.18423
0.0268958
-0.0185368
-0.958536
0.950177
0.0108984
-0.0028084
-0.774091
0.766001
-0.00406556
0.0105152
-0.617973
0.611524
-0.0150008
0.0179447
-0.464945
0.462001
-0.0187186
0.0170223
-0.302448
0.304144
-0.013906
0.010091
-0.156796
0.160611
-0.0066307
0.00314371
-0.0560886
0.0595756
-0.00100024
-0.00535895
0.00635919
-0.0771816
0.0752108
0.00197085
-0.00591623
0.00562454
-0.413685
0.413977
-0.00408456
0.00165766
-0.572481
0.574908
0.00227403
-0.00633797
-0.69793
0.701994
0.0110175
-0.0157131
-0.815645
0.82034
0.0210319
-0.0259885
-0.940273
0.94523
0.0315573
-0.0362634
-1.07901
1.08372
0.0411788
-0.045121
-1.23166
1.2356
0.048484
-0.0504321
-1.39802
1.39997
0.0509508
-0.0497056
-1.57629
1.57504
0.0463644
-0.0413541
-1.48392
1.47891
0.0356556
-0.0287575
-1.17661
1.16971
0.0223715
-0.0149312
-0.941912
0.934471
0.00829221
-0.00149644
-0.757909
0.751113
-0.00428768
0.00969231
-0.604282
0.598877
-0.0134214
0.0158967
-0.456397
0.453922
-0.0162927
0.0147937
-0.301967
0.303466
-0.0122225
0.0087965
-0.162058
0.165484
-0.00568794
0.00271276
-0.0614547
0.0644299
-0.000863155
-0.00677099
0.00763414
-0.0763551
0.0748627
0.00149238
-0.00483255
0.00470216
-0.418181
0.418311
-0.0032473
0.00130452
-0.580115
0.582058
0.00246031
-0.00625592
-0.706323
0.710118
0.0108502
-0.0149898
-0.824809
0.828948
0.0197415
-0.0241909
-0.950231
0.954681
0.0295105
-0.0338107
-1.08847
1.09277
0.0382066
-0.0419365
-1.23936
1.24309
0.0454227
-0.0472215
-1.40191
1.40371
0.0478291
-0.0466147
-1.57341
1.5722
0.0438407
-0.0390527
-1.47374
1.46896
0.0340728
-0.0280662
-1.16282
1.15681
0.022318
-0.015975
-0.927258
0.920915
0.010152
-0.00408081
-0.744081
0.73801
-0.000700046
0.00546701
-0.592622
0.587855
-0.00886067
0.0109787
-0.449272
0.447154
-0.0115462
0.0107159
-0.301721
0.302551
-0.00883328
0.00623898
-0.1663
0.168894
-0.00400483
0.00193816
-0.0656645
0.0677311
-0.000644067
-0.00788163
0.0085257
-0.0760767
0.0749375
0.00113925
-0.00364844
0.00353733
-0.421967
0.422078
-0.00199848
-1.48662e-05
-0.587022
0.589036
0.00358363
-0.00708869
-0.714135
0.71764
0.0111458
-0.0152492
-0.833184
0.837287
0.0197319
-0.0243801
-0.959015
0.963663
0.0290154
-0.0331465
-1.09719
1.10132
0.0376711
-0.04117
-1.2467
1.2502
0.0441954
-0.0464185
-1.40542
1.40764
0.0472499
-0.0464179
-1.57105
1.57022
0.0439418
-0.0399191
-1.4644
1.46038
0.035491
-0.0301107
-1.1506
1.14522
0.0250595
-0.0194228
-0.914565
0.908929
0.0143094
-0.00913078
-0.732
0.726821
0.00464988
-0.000490663
-0.582396
0.578237
-0.00246539
0.00466904
-0.442985
0.440781
-0.00553161
0.00520498
-0.300607
0.300933
-0.00433892
0.00299766
-0.168703
0.170044
-0.00190225
0.000928439
-0.0680702
0.069044
-0.000339122
-0.00857913
0.00891826
-0.0763507
0.0754021
0.000948648
-0.00233813
0.0019526
-0.425561
0.425946
-0.000557875
-0.001627
-0.593542
0.595726
0.00498806
-0.00848256
-0.721633
0.725128
0.012494
-0.016309
-0.841319
0.845134
0.0209974
-0.024922
-0.967811
0.971736
0.029568
-0.0335546
-1.10564
1.10963
0.0379821
-0.0416816
-1.25369
1.25739
0.0450179
-0.0470618
-1.40964
1.41169
0.0482832
-0.0479096
-1.56932
1.56895
0.0461593
-0.0425551
-1.45627
1.45266
0.0386672
-0.0338238
-1.13997
1.13512
0.0292973
-0.0241352
-0.903132
0.89797
0.0195915
-0.0147734
-0.721389
0.716571
0.0106789
-0.0067369
-0.573413
0.569471
0.00374544
-0.001573
-0.436853
0.434681
0.000267405
0.000188267
-0.298323
0.297867
-0.000444846
0.00040423
-0.168803
0.168844
-0.000361242
0.000319368
-0.0684816
0.0685235
-0.000187062
-0.00871835
0.00890542
-0.0769158
0.0762621
0.000653616
-0.00120876
0.000374829
-0.429359
0.430193
0.000910868
-0.00326422
-0.599483
0.601836
0.00639933
-0.00985967
-0.728818
0.732279
0.0137977
-0.0178211
-0.848931
0.852954
0.0219823
-0.0261213
-0.975935
0.980074
0.0307734
-0.0345828
-1.11406
1.11787
0.0391321
-0.0428176
-1.26092
1.2646
0.0462407
-0.0488426
-1.41415
1.41675
0.0505995
-0.0505662
-1.56862
1.56859
0.0491025
-0.0462538
-1.44922
1.44638
0.0429416
-0.0384887
-1.13015
1.12569
0.0342354
-0.0296357
-0.892721
0.888121
0.0250739
-0.0206986
-0.711464
0.707088
0.0168224
-0.0129178
-0.565127
0.561222
0.0100005
-0.00740419
-0.430606
0.42801
0.00565124
-0.00422411
-0.294848
0.293421
0.00308456
-0.00191229
-0.166778
0.165606
0.000908274
-0.000167613
-0.0671332
0.0663925
-9.44675e-05
-0.00838877
0.00848324
-0.077859
0.0773593
0.000499679
-0.000272768
-0.000519447
-0.433406
0.434198
0.00238843
-0.0046063
-0.605609
0.607827
0.00796843
-0.0113669
-0.735669
0.739067
0.0152259
-0.0189235
-0.856754
0.860452
0.0232718
-0.0271508
-0.984275
0.988153
0.0317924
-0.0360661
-1.12216
1.12644
0.0402936
-0.0443313
-1.26836
1.27239
0.0482089
-0.0509406
-1.41927
1.422
0.0531146
-0.0538859
-1.56878
1.56955
0.0529076
-0.0506898
-1.44338
1.44117
0.047579
-0.0435621
-1.12123
1.11722
0.039694
-0.0352284
-0.883089
0.878623
0.030998
-0.0266945
-0.702165
0.697861
0.0228925
-0.0188951
-0.556809
0.552812
0.0156961
-0.0127622
-0.423949
0.421015
0.0102804
-0.00801157
-0.289747
0.287478
0.00595737
-0.00381527
-0.162653
0.160511
0.00209233
-0.000732255
-0.0643881
0.063028
8.86792e-05
-0.00781347
0.00772479
-0.0790576
0.0787276
0.000330046
0.000743241
-0.00173133
-0.43761
0.438598
0.00348379
-0.0059949
-0.611406
0.613917
0.00932934
-0.0126195
-0.742394
0.745684
0.0166109
-0.0202143
-0.86421
0.867813
0.0244604
-0.0284976
-0.992554
0.996591
0.0330853
-0.0373528
-1.13059
1.13486
0.0418278
-0.045923
-1.27638
1.28047
0.0500155
-0.0535208
-1.42503
1.42854
0.0561699
-0.0572762
-1.57027
1.57138
0.0569984
-0.0551068
-1.43882
1.43693
0.052528
-0.0489952
-1.11309
1.10956
0.0451387
-0.0408282
-0.873822
0.869512
0.0367182
-0.0323261
-0.693129
0.688737
0.028586
-0.0244332
-0.548589
0.544436
0.0210346
-0.0175044
-0.416683
0.413152
0.0145083
-0.0113992
-0.283119
0.28001
0.00841856
-0.00542764
-0.156702
0.153711
0.00306467
-0.00117063
-0.060499
0.058605
0.000221091
-0.00700503
0.00678394
-0.0804617