/*--------------------------------*- C++ -*----------------------------------*\
| =========                 |                                                 |
| \\      /  F ield         | OpenFOAM: The Open Source CFD Toolbox           |
|  \\    /   O peration     | Version:  2106                                  |
|   \\  /    A nd           | Website:  www.openfoam.com                      |
|    \\/     M anipulation  |                                                 |
\*---------------------------------------------------------------------------*/
FoamFile
{
    version     2.0;
    format      ascii;
    arch        "LSB;label=32;scalar=64";
    class       volScalarField;
    location    "3";
    object      T;
}
// * * * * * * * * * * * * * * * * * * * * * * * * * * * * * * * * * * * * * //

dimensions      [0 0 0 1 0 0 0];

internalField   nonuniform List<scalar> 
1000
(
0
0
0
0
0
0
0
0
0
0
0
0
0
0
0
0
0
0
0
0
0
0
0
0
0
0
0
0
0
0
0
0
0
0
0
0
0
0
0
0
0
0
0
0
0
0
0
0
0
0
0
0
0
0
0
0
0
0
0
0
0
0
0
0
0
0
0
0
0
0
0
0
0
0
0
0
0
0
0
0
0
0
0
0
0
0
0
0
0
0
0
0
0
0
0
0
0
0
0
0
0
0
0
0
0
0
0
0
0
0
0
0
0
0
0
0
0
0
0
0
0
0
0
0
0
0
0
0
0
0
0
0
0
0
0
0
0
0
0
0
0
0
0
0
0
0
0
0
0
0
0
0
0
0
0
0
0
0
0
0
0
0
0
0
0
0
0
0
0
0
0
0
0
0
0
0
0
0
0
0
0
0
0
0
0
0
0
0
0
0
0
0
0
0
0
0
0
0
0
0
0
0
0
0
0
0
0
0
0
0
0
0
0
0
0
0
0
0
0
0
0
0
0
0
0
0
0
0
0
0
0
0
0
0
0
0
0
0
0
0
0
0
0
0
0
0
0
0
0
0
0
0
0
0
0
0
0
0
0
0
0
0
0
0
0
0
0
0
0
0
0
0
0
0
0
0
0
0
0
0
0
0
0
0
0
0
0
0
0
0
0
0
0
0
0
0
0
0
0
0
0
0
0
0
0
0
0
0
0
0
0
0
0
0
0
0
0
0
0
0
0
0
0
0
0
0
0
0
0
0
0
0
0
0
0
0
0
0
0
0
0
0
0
0
0
0
0
0
0
0
0
0
0
0
0
0
0
0
0
0
0
0
0
0
0
0
0
0
0
0
0
0
0
0
0
0
0
0
0
0
0
0
0
0
0
0
0
0
0
0
0
0
0
0
0
0
0
0
0
0
0
0
0
0
0
0
0
0
0
0
0
0
0
0
0
0
0
0
0
0
0
0
0
0
0
0
0
0
0
0
0
0
0
0
0
0
0
0
0
0
0
0
0
0
0
0
0
0
0
0
7.30506e-144
1.46832e-141
1.48056e-139
9.98575e-138
5.06789e-136
2.06439e-134
7.03068e-133
2.05909e-131
5.29387e-130
1.21375e-128
2.51264e-127
4.74394e-126
8.23675e-125
1.32434e-123
1.98357e-122
2.78172e-121
3.66884e-120
4.56865e-119
5.39005e-118
6.0434e-117
6.45734e-116
6.59164e-115
6.44291e-114
6.04246e-113
5.4476e-112
4.72942e-111
3.96016e-110
3.20301e-109
2.50575e-108
1.89845e-107
1.39462e-106
9.94468e-106
6.89044e-105
4.64351e-104
3.04639e-103
1.94731e-102
1.21379e-101
7.38325e-101
4.38588e-100
2.54606e-99
1.44533e-98
8.0282e-98
4.36593e-97
2.32587e-96
1.21444e-95
6.21824e-95
3.12372e-94
1.54026e-93
7.45797e-93
3.54765e-92
1.65856e-91
7.62365e-91
3.44665e-90
1.53318e-89
6.71276e-89
2.89379e-88
1.22865e-87
5.13955e-87
2.11877e-86
8.61058e-86
3.45057e-85
1.36388e-84
5.31867e-84
2.04682e-83
7.77525e-83
2.91614e-82
1.08009e-81
3.95156e-81
1.42832e-80
5.10181e-80
1.80115e-79
6.2862e-79
2.16932e-78
7.40347e-78
2.49921e-77
8.34645e-77
2.75808e-76
9.01965e-76
2.91958e-75
9.35553e-75
2.96824e-74
9.32561e-74
2.9018e-73
8.94395e-73
2.73102e-72
8.26249e-72
2.47711e-71
7.36014e-71
2.16763e-70
6.32842e-70
1.83177e-69
5.25727e-69
1.49628e-68
4.22359e-68
1.18252e-67
3.28431e-67
9.04962e-67
2.47408e-66
6.71176e-66
1.80693e-65
4.82804e-65
1.28046e-64
3.37104e-64
8.8106e-64
2.28628e-63
5.89079e-63
1.50721e-62
3.8297e-62
9.66461e-62
2.42251e-61
6.03175e-61
1.49194e-60
3.66623e-60
8.95123e-60
2.17156e-59
5.23501e-59
1.25415e-58
2.98606e-58
7.06633e-58
1.66212e-57
3.88629e-57
9.03313e-57
2.08737e-56
4.79561e-56
1.09547e-55
2.48824e-55
5.62013e-55
1.26237e-54
2.81994e-54
6.26512e-54
1.38445e-53
3.04304e-53
6.65341e-53
1.44713e-52
3.1313e-52
6.74081e-52
1.44376e-51
3.07674e-51
6.52416e-51
1.37662e-50
2.89056e-50
6.04011e-50
1.2561e-49
2.59981e-49
5.35564e-49
1.09813e-48
2.24126e-48
4.55342e-48
9.209e-48
1.8541e-47
3.71635e-47
7.41618e-47
1.47347e-46
2.91486e-46
5.74147e-46
1.1261e-45
2.19933e-45
4.27744e-45
8.28459e-45
1.59797e-44
3.06965e-44
5.87286e-44
1.11909e-43
2.12397e-43
4.01526e-43
7.56096e-43
1.41824e-42
2.65003e-42
4.93273e-42
9.14696e-42
1.68978e-41
3.11002e-41
5.70278e-41
1.04187e-40
1.89652e-40
3.43977e-40
6.21645e-40
1.11946e-39
2.00882e-39
3.5921e-39
6.40097e-39
1.13669e-38
2.01165e-38
3.54799e-38
6.2366e-38
1.09259e-37
1.90776e-37
3.32014e-37
5.75925e-37
9.95778e-37
1.71616e-36
2.94822e-36
5.04872e-36
8.61847e-36
1.46662e-35
2.48802e-35
4.20771e-35
7.09424e-35
1.19246e-34
1.99832e-34
3.33873e-34
5.56165e-34
9.23716e-34
1.52966e-33
2.52571e-33
4.15826e-33
6.82634e-33
1.11743e-32
1.82398e-32
2.96888e-32
4.81889e-32
7.79995e-32
1.25903e-31
2.02668e-31
3.25349e-31
5.20877e-31
8.3167e-31
1.32436e-30
2.10331e-30
3.33162e-30
5.26342e-30
8.29369e-30
1.30347e-29
2.04333e-29
3.19496e-29
4.98296e-29
7.752e-29
1.20296e-28
1.8621e-28
2.87529e-28
4.42884e-28
6.80512e-28
1.0431e-27
1.59502e-27
2.43313e-27
3.70276e-27
5.62157e-27
8.51461e-27
1.28663e-26
1.9397e-26
2.91748e-26
4.37806e-26
6.55485e-26
9.79168e-26
1.45938e-25
2.17024e-25
3.22014e-25
4.76737e-25
7.04245e-25
1.03805e-24
1.52673e-24
2.24061e-24
3.28122e-24
4.79483e-24
6.99175e-24
1.01737e-23
1.47726e-23
2.14055e-23
3.09521e-23
4.46638e-23
6.43173e-23
9.24296e-23
1.32559e-22
1.89728e-22
2.71005e-22
3.86326e-22
5.49626e-22
7.80407e-22
1.10591e-21
1.56412e-21
2.20787e-21
3.11055e-21
4.37386e-21
6.13848e-21
8.59864e-21
1.2022e-20
1.67767e-20
2.3368e-20
3.24883e-20
4.50846e-20
6.24495e-20
8.63442e-20
1.19164e-19
1.64161e-19
2.25742e-19
3.09866e-19
4.2458e-19
5.8073e-19
7.92907e-19
1.0807e-18
1.47039e-18
1.9971e-18
2.70781e-18
3.66513e-18
4.9524e-18
6.68041e-18
8.99609e-18
1.20941e-17
1.62316e-17
2.17483e-17
2.90917e-17
3.88504e-17
5.17973e-17
6.89459e-17
9.16227e-17
1.21561e-16
1.61022e-16
2.12952e-16
2.81179e-16
3.70677e-16
4.87891e-16
6.4116e-16
8.41263e-16
1.1021e-15
1.44157e-15
1.88271e-15
2.45507e-15
3.19655e-15
4.15566e-15
5.39438e-15
6.99182e-15
9.04874e-15
1.16934e-14
1.50885e-14
1.94407e-14
2.50116e-14
3.21318e-14
4.1219e-14
5.27995e-14
6.75363e-14
8.62625e-14
1.10024e-13
1.40131e-13
1.78224e-13
2.26355e-13
2.8708e-13
3.63589e-13
4.5985e-13
5.80793e-13
7.32537e-13
9.22663e-13
1.16055e-12
1.4578e-12
1.82871e-12
2.2909e-12
2.86608e-12
3.5809e-12
4.46807e-12
5.56769e-12
6.92881e-12
8.61143e-12
1.06887e-11
1.32499e-11
1.64037e-11
2.0282e-11
2.50453e-11
3.08879e-11
3.80452e-11
4.68019e-11
5.75018e-11
7.05597e-11
8.64751e-11
1.05849e-10
1.29404e-10
1.58006e-10
1.92695e-10
2.34712e-10
2.85546e-10
3.4697e-10
4.211e-10
5.10457e-10
6.18039e-10
7.47407e-10
9.02788e-10
1.08919e-09
1.31254e-09
1.57985e-09
1.89939e-09
2.28092e-09
2.73594e-09
3.27797e-09
3.9229e-09
4.6894e-09
5.59932e-09
6.67827e-09
7.9562e-09
9.46808e-09
1.12547e-08
1.33637e-08
1.58504e-08
1.87792e-08
2.22248e-08
2.6274e-08
3.10272e-08
3.66008e-08
4.31292e-08
5.07676e-08
5.96951e-08
7.01181e-08
8.22738e-08
9.64352e-08
1.12916e-07
1.32075e-07
1.54324e-07
1.80134e-07
2.10044e-07
2.44669e-07
2.84711e-07
3.30968e-07
3.84351e-07
4.45892e-07
5.16767e-07
5.98308e-07
6.92024e-07
7.99624e-07
9.2304e-07
1.06445e-06
1.22633e-06
1.41144e-06
1.62291e-06
1.86425e-06
2.13942e-06
2.45284e-06
2.80948e-06
3.21491e-06
3.67535e-06
4.19776e-06
4.7899e-06
5.46045e-06
6.21904e-06
7.07643e-06
8.04456e-06
9.13669e-06
1.03675e-05
1.17534e-05
1.33124e-05
1.50645e-05
1.70318e-05
1.92385e-05
2.17118e-05
2.4481e-05
2.75789e-05
3.10412e-05
3.49074e-05
3.92205e-05
4.4028e-05
4.93815e-05
5.53379e-05
6.19591e-05
6.93127e-05
7.74725e-05
8.65188e-05
9.65391e-05
0.000107629
0.00011989
0.000133437
0.00014839
0.00016488
0.000183051
0.000203056
0.000225061
0.000249246
0.000275804
0.000304944
0.000336889
0.000371879
0.000410173
0.000452048
0.0004978
0.000547747
0.000602228
0.000661606
0.000726268
0.000796625
0.000873118
0.000956213
0.00104641
0.00114423
0.00125023
0.00136502
0.00148921
0.00162347
0.0017685
0.00192504
0.00209387
0.00227582
0.00247174
0.00268254
0.00290919
0.00315267
0.00341404
0.0036944
0.00399489
0.00431672
0.00466112
0.00502942
0.00542296
0.00584316
0.00629148
0.00676945
0.00727865
0.00782071
0.00839732
0.00901023
0.00966124
0.0103522
0.0110851
0.0118617
0.0126843
0.0135548
0.0144753
0.0154481
0.0164754
0.0175593
0.0187024
0.0199068
0.021175
0.0225094
0.0239125
0.0253867
0.0269347
0.0285589
0.0302619
0.0320463
0.0339146
0.0358695
0.0379136
0.0400494
0.0422796
0.0446066
0.0470331
0.0495616
0.0521945
0.0549344
0.0577837
0.0607447
0.0638197
0.067011
0.0703207
0.0737511
0.077304
0.0809815
0.0847854
0.0887174
0.0927792
0.0969724
0.101298
0.105758
0.110353
0.115084
)
;

boundaryField
{
    sides
    {
        type            zeroGradient;
    }
    empty
    {
        type            empty;
    }
}


// ************************************************************************* //
