/*--------------------------------*- C++ -*----------------------------------*\
  =========                 |
  \\      /  F ield         | OpenFOAM: The Open Source CFD Toolbox
   \\    /   O peration     | Website:  https://openfoam.org
    \\  /    A nd           | Version:  6
     \\/     M anipulation  |
\*---------------------------------------------------------------------------*/
FoamFile
{
    version     2.0;
    format      ascii;
    class       surfaceScalarField;
    location    "78.4";
    object      phi;
}
// * * * * * * * * * * * * * * * * * * * * * * * * * * * * * * * * * * * * * //

dimensions      [0 3 -1 0 0 0 0];

internalField   nonuniform List<scalar> 
17370
(
-0.0900004
0.0898495
0.289162
-0.071463
0.0537531
0.364485
-0.03812
0.0276908
0.426597
-0.019639
0.0146059
0.504285
-0.0107638
0.00827336
0.601893
-0.00627356
0.00489702
0.720434
-0.00373318
0.00289279
0.863747
-0.00215152
0.00159256
1.03601
-0.00107602
0.000663603
1.24292
-0.000256307
-0.000138008
1.49159
0.000517353
-0.000928086
1.4916
0.00132663
-0.00181641
1.24318
0.00234414
-0.00304947
1.03634
0.00386245
-0.0050057
0.86405
0.00637121
-0.00836375
0.72105
0.0108487
-0.0146841
0.60305
0.0197107
-0.0277548
0.507483
0.0381764
-0.0538007
0.431792
0.071502
-0.0898756
0.365149
0.0900161
0.198995
-0.128136
0.0882265
0.0399098
-0.364599
0.353378
-0.0746726
0.0858928
-0.446476
0.45432
-0.0843898
0.0765457
-0.52119
0.529902
-0.0684484
0.0597369
-0.612789
0.621569
-0.0515478
0.0427678
-0.726894
0.734165
-0.0353065
0.0280364
-0.867475
0.872592
-0.0224349
0.0173186
-1.03847
1.04192
-0.0135082
0.010058
-1.2446
1.24703
-0.00744683
0.00501336
-1.49262
1.4946
-0.00306471
0.00108459
-1.4925
1.49423
0.000591634
-0.00231689
-1.24398
1.24586
0.00422117
-0.00610629
-1.03751
1.04004
0.0084624
-0.0109897
-0.866101
0.869827
0.0143402
-0.0180661
-0.72439
0.729933
0.0231047
-0.0286475
-0.608698
0.616111
0.035862
-0.0432756
-0.514897
0.52304
0.0520049
-0.0601483
-0.439856
0.447914
0.0688106
-0.0768688
-0.375295
0.376739
0.0846659
-0.0861097
-0.25733
0.222477
0.0748198
-0.0399667
-0.0685196
0.0586942
0.00982541
-0.0518086
0.0583909
-0.374128
0.367546
-0.057474
0.0537209
-0.453595
0.457348
-0.0486299
0.0446764
-0.527948
0.531901
-0.0408352
0.0371949
-0.621565
0.625205
-0.0330915
0.0290142
-0.73535
0.739428
-0.0244422
0.0202813
-0.874342
0.878503
-0.0159338
0.0122383
-1.04349
1.04719
-0.00849883
0.00532412
-1.24856
1.25174
-0.0019939
-0.00108051
-1.49666
1.49973
0.00412885
-0.00739626
-1.4972
1.50047
0.0104779
-0.0140846
-1.25007
1.25367
0.0176401
-0.0218248
-1.04592
1.05011
0.0258455
-0.0302811
-0.87776
0.882196
0.0342496
-0.0382456
-0.739899
0.743895
0.0417948
-0.0455413
-0.626772
0.630519
0.0494134
-0.0544266
-0.534809
0.539822
0.0580949
-0.0589053
-0.457473
0.458283
0.0521981
-0.0319929
-0.335748
0.315543
0.00988887
-0.0683434
0.0584545
-0.0529442
0.0489499
0.00399431
-0.0331539
0.0436953
-0.358115
0.347573
-0.0473903
0.0467605
-0.459288
0.459918
-0.0437021
0.0403469
-0.535805
0.53916
-0.0365716
0.0332651
-0.628532
0.631838
-0.0298244
0.0267901
-0.742652
0.745687
-0.0235287
0.0204197
-0.882023
0.885132
-0.0168868
0.013505
-1.05078
1.05416
-0.00970899
0.00616782
-1.25517
1.25871
-0.00219607
-0.00160269
-1.50324
1.50704
0.00536875
-0.00924322
-1.50413
1.50801
0.0126521
-0.0162637
-1.25741
1.26103
0.0194507
-0.022756
-1.05392
1.05722
0.0256667
-0.0287318
-0.885685
0.88875
0.0316066
-0.034889
-0.747152
0.750435
0.0380619
-0.0417006
-0.634302
0.63794
0.0449385
-0.0478633
-0.54413
0.547055
0.0483525
-0.04446
-0.456566
0.452674
0.0336829
-0.0162265
-0.296173
0.278717
0.00407324
-0.0526335
0.0485602
-0.0458736
0.0433799
0.00249364
-0.022794
0.0331661
-0.336889
0.326517
-0.0389815
0.0399941
-0.459605
0.458593
-0.0388
0.03651
-0.541881
0.544171
-0.0338387
0.0312392
-0.634891
0.637491
-0.028172
0.0252692
-0.748734
0.751637
-0.0220009
0.0190041
-0.888089
0.891086
-0.0156956
0.012593
-1.05729
1.0604
-0.00906316
0.00565097
-1.26218
1.26559
-0.0016848
-0.00220103
-1.51093
1.51481
0.00604295
-0.00987884
-1.5119
1.51573
0.0131153
-0.016403
-1.26446
1.26774
0.0192506
-0.0222606
-1.06032
1.06333
0.0249945
-0.0279995
-0.8918
0.894805
0.0306853
-0.0335351
-0.753637
0.756487
0.0359515
-0.0384382
-0.641003
0.64349
0.04057
-0.0415562
-0.548855
0.549841
0.0403261
-0.0341933
-0.447387
0.441254
0.0234742
-0.0102449
-0.263488
0.250259
0.0025912
-0.045395
0.0428038
-0.0413069
0.0395424
0.00176457
-0.0167288
0.0259698
-0.316672
0.307431
-0.0325656
0.0346984
-0.456998
0.454865
-0.0342713
0.032596
-0.546151
0.547827
-0.03041
0.0283101
-0.639798
0.641898
-0.0258735
0.0234714
-0.754285
0.756687
-0.0206078
0.0178139
-0.893985
0.896779
-0.0145724
0.0114983
-1.06345
1.06652
-0.0080028
0.00467241
-1.26891
1.27224
-0.000835176
-0.00290089
-1.5186
1.52234
0.00658098
-0.0102518
-1.51947
1.52314
0.0133574
-0.0165439
-1.27098
1.27417
0.0192922
-0.022152
-1.06636
1.06922
0.0246084
-0.0271323
-0.897614
0.900138
0.0292537
-0.0314096
-0.758932
0.761088
0.033275
-0.0352235
-0.645639
0.647588
0.0366695
-0.0368142
-0.550353
0.550497
0.0343477
-0.0272871
-0.434576
0.427516
0.0175783
-0.00741877
-0.238714
0.228554
0.00188376
-0.0406219
0.0387381
-0.038023
0.0366971
0.0013259
-0.0127616
0.0206922
-0.29885
0.29092
-0.0274267
0.0303375
-0.452313
0.449403
-0.0305319
0.0294041
-0.549262
0.55039
-0.0274033
0.0254796
-0.643937
0.645861
-0.0232717
0.0211273
-0.75893
0.761075
-0.0186043
0.0161134
-0.899358
0.901849
-0.0131623
0.0102745
-1.06946
1.07235
-0.00690308
0.00365397
-1.2755
1.27875
9.98937e-05
-0.00373238
-1.52599
1.52963
0.00729503
-0.0108404
-1.52673
1.53027
0.0138088
-0.0167944
-1.27729
1.28027
0.0192749
-0.021748
-1.07195
1.07443
0.0238164
-0.0259129
-0.902418
0.904514
0.0277029
-0.0295546
-0.763065
0.764916
0.031182
-0.0328949
-0.6494
0.651113
0.0336891
-0.0330993
-0.550278
0.549689
0.0297112
-0.0223398
-0.420242
0.412871
0.0138078
-0.00575796
-0.21955
0.2115
0.0014709
-0.037086
0.0356151
-0.0355397
0.0345197
0.00102004
-0.00995715
0.016651
-0.283633
0.276939
-0.023111
0.0264663
-0.44625
0.442894
-0.0272324
0.0265209
-0.551302
0.552013
-0.0247511
0.0229568
-0.647762
0.649556
-0.0208755
0.0188485
-0.763154
0.765181
-0.0164647
0.0141254
-0.904195
0.906534
-0.0113728
0.00867453
-1.07508
1.07777
-0.00550256
0.00240568
-1.28189
1.28499
0.00121527
-0.00473444
-1.53319
1.53671
0.00816704
-0.0115291
-1.53372
1.53708
0.0142785
-0.0169745
-1.28312
1.28582
0.0191701
-0.0213327
-1.0768
1.07897
0.0231497
-0.0250057
-0.906482
0.908338
0.0265934
-0.028233
-0.766656
0.768295
0.0296597
-0.0310313
-0.652682
0.654054
0.0313291
-0.0300016
-0.548743
0.547416
0.0259882
-0.0186895
-0.405509
0.398211
0.0112395
-0.00465925
-0.204254
0.197674
0.00119636
-0.0342965
0.0331001
-0.0336253
0.032833
0.000792366
-0.00787475
0.0134894
-0.270815
0.2652
-0.0194552
0.0229994
-0.439435
0.435891
-0.0242353
0.0237673
-0.552636
0.553104
-0.0222601
0.0205722
-0.651347
0.653035
-0.0185817
0.0166364
-0.76716
0.769105
-0.0143401
0.0120846
-0.908765
0.91102
-0.00943147
0.00684034
-1.08034
1.08294
-0.00380643
0.000850081
-1.28796
1.29092
0.00260186
-0.00594847
-1.54012
1.54346
0.00918866
-0.0123223
-1.5403
1.54344
0.0148518
-0.0173023
-1.28839
1.29084
0.019277
-0.0212068
-1.0811
1.08303
0.0228219
-0.0244699
-0.910089
0.911737
0.0258755
-0.0273225
-0.769831
0.771278
0.0285516
-0.0295405
-0.655225
0.656213
0.0294619
-0.0274609
-0.545751
0.54375
0.0230381
-0.0159963
-0.391034
0.383992
0.00944223
-0.00390143
-0.191662
0.186121
0.00100658
-0.0320097
0.0310032
-0.0321388
0.0315234
0.000615347
-0.00626418
0.0109557
-0.260075
0.255384
-0.0163218
0.0198571
-0.432351
0.428816
-0.0214081
0.0211611
-0.553499
0.553746
-0.0198813
0.0182489
-0.654742
0.656374
-0.0163106
0.014411
-0.771016
0.772915
-0.0121696
0.00996866
-0.913171
0.915372
-0.00737944
0.00485443
-1.08542
1.08794
-0.0019071
-0.000947079
-1.29377
1.29662
0.00425114
-0.00742368
-1.54669
1.54986
0.0104666
-0.0133829
-1.54643
1.54935
0.0157181
-0.0179561
-1.2932
1.29543
0.0197297
-0.0214363
-1.08496
1.08667
0.0228559
-0.0243054
-0.913279
0.914728
0.0255438
-0.0268141
-0.772627
0.773898
0.0278977
-0.028461
-0.656995
0.657558
0.0280047
-0.0254317
-0.541472
0.538899
0.0207516
-0.014028
-0.377116
0.370393
0.00817694
-0.00337516
-0.180986
0.176184
0.000875481
-0.030071
0.0291955
-0.0309888
0.0305173
0.000471464
-0.0049641
0.00885813
-0.251118
0.247224
-0.0135799
0.0169575
-0.425369
0.421991
-0.0186832
0.0186213
-0.553946
0.554008
-0.0175288
0.015928
-0.658056
0.659657
-0.0140069
0.0121172
-0.774793
0.776683
-0.00988837
0.00770604
-0.917475
0.919657
-0.00514853
0.0026647
-1.09036
1.09284
0.000221406
-0.00299922
-1.29938
1.30216
0.00618819
-0.00921706
-1.55292
1.55595
0.0120884
-0.0148064
-1.55213
1.55485
0.0169558
-0.0189839
-1.29758
1.2996
0.0205567
-0.0220431
-1.0884
1.08989
0.0232775
-0.0245452
-0.916072
0.91734
0.0256334
-0.0267435
-0.775075
0.776185
0.0276245
-0.0278266
-0.657934
0.658137
0.0269418
-0.0238826
-0.536086
0.533027
0.019039
-0.0126205
-0.363837
0.357418
0.00729898
-0.00301668
-0.171672
0.16739
0.000787788
-0.0283719
0.0275841
-0.0301151
0.0297657
0.000349321
-0.00387146
0.00706325
-0.243706
0.240514
-0.0111288
0.0142385
-0.418766
0.415656
-0.0160113
0.0160963
-0.55405
0.553965
-0.0150771
0.0135429
-0.661298
0.662832
-0.0116097
0.0096961
-0.778562
0.780475
-0.00744098
0.00524153
-0.921746
0.923945
-0.00267694
0.000200308
-1.09523
1.09771
0.00265872
-0.00538916
-1.30484
1.30757
0.00849392
-0.0114066
-1.55888
1.56179
0.0141282
-0.0166616
-1.55743
1.55996
0.018631
-0.020452
-1.30153
1.30335
0.021825
-0.0230931
-1.09143
1.0927
0.0241464
-0.025239
-0.918501
0.919594
0.0261837
-0.0271303
-0.777196
0.778142
0.0277498
-0.0276542
-0.658196
0.658101
0.0263172
-0.0228061
-0.529747
0.526236
0.017836
-0.0116628
-0.351145
0.344972
0.0067181
-0.00278623
-0.16331
0.159378
0.000733512
-0.0268313
0.0260978
-0.0294789
0.029239
0.000239911
-0.0029102
0.00546656
-0.237664
0.235107
-0.00887589
0.0116343
-0.412747
0.409988
-0.0133395
0.0134969
-0.553906
0.553749
-0.0125137
0.0110146
-0.664431
0.66593
-0.00904648
0.00707984
-0.782383
0.78435
-0.00476169
0.00250875
-0.926054
0.928307
0.000104559
-0.00261137
-1.10009
1.1026
0.00548241
-0.00819896
-1.31022
1.31294
0.0112533
-0.0140771
-1.56462
1.56744
0.0166695
-0.019032
-1.56237
1.56473
0.0208295
-0.0224485
-1.30507
1.30669
0.0236216
-0.024668
-1.09406
1.0951
0.0255368
-0.0264474
-0.920572
0.921482
0.0272391
-0.0280208
-0.778952
0.779734
0.0283545
-0.0279467
-0.65786
0.657452
0.0261467
-0.0221992
-0.52253
0.518582
0.0170994
-0.0110833
-0.338907
0.332891
0.0063782
-0.00265882
-0.155578
0.151858
0.000706247
-0.0253855
0.0246793
-0.0290589
0.0289233
0.000135555
-0.00201681
0.00397532
-0.232873
0.230914
-0.00672292
0.00905902
-0.407472
0.405136
-0.0105869
0.0107363
-0.553671
0.553521
-0.00975336
0.00824874
-0.66753
0.669034
-0.00621524
0.00416263
-0.786315
0.788368
-0.0017428
-0.000599255
-0.930471
0.932813
0.00330081
-0.00587474
-1.10502
1.10759
0.00879815
-0.0115343
-1.31559
1.31832
0.014567
-0.0173199
-1.57018
1.57293
0.0197947
-0.0219958
-1.56696
1.56916
0.0236291
-0.0250492
-1.30821
1.30963
0.0260175
-0.0268325
-1.09628
1.09709
0.0275035
-0.0282163
-0.922271
0.922983
0.0288521
-0.0294932
-0.780353
0.780994
0.0294986
-0.028683
-0.656852
0.656036
0.0264186
-0.022037
-0.514461
0.510079
0.0167769
-0.0108185
-0.326939
0.320981
0.00623268
-0.00261351
-0.148214
0.144595
0.000700374
-0.0239838
0.0232834
-0.0288481
0.0288182
2.99633e-05
-0.00114421
0.0025181
-0.22927
0.227897
-0.00458812
0.00643649
-0.403077
0.401228
-0.00768286
0.00774218
-0.55351
0.553451
-0.00671217
0.00516382
-0.670678
0.672226
-0.00302488
0.000853218
-0.790421
0.792593
0.00170777
-0.00417771
-0.935065
0.937535
0.00701263
-0.00969566
-1.11009
1.11277
0.0127161
-0.0155103
-1.321
1.32379
0.0185603
-0.0212723
-1.5756
1.57832
0.0236486
-0.0256956
-1.57122
1.57327
0.0271628
-0.02838
-1.31094
1.31215
0.0291422
-0.0297233
-1.09807
1.09865
0.0301917
-0.030697
-0.923571
0.924076
0.0311563
-0.0315534
-0.781387
0.781785
0.031265
-0.02997
-0.655028
0.653733
0.0271961
-0.0223399
-0.50552
0.500664
0.0168559
-0.0108405
-0.315036
0.309021
0.00625962
-0.00264055
-0.141002
0.137383
0.00071342
-0.0225848
0.0218714
-0.0288496
0.0289281
-7.84922e-05
-0.00024759
0.0010269
-0.226838
0.226059
-0.00238732
0.00368048
-0.399689
0.398396
-0.00454346
0.00442921
-0.553596
0.55371
-0.00329612
0.00164726
-0.673963
0.675612
0.000633032
-0.00296705
-0.794767
0.797101
0.0057199
-0.00836435
-0.939918
0.942562
0.011382
-0.014217
-1.11539
1.11822
0.0173793
-0.0202699
-1.32653
1.32942
0.0233737
-0.026071
-1.58096
1.58366
0.0283652
-0.0302623
-1.57517
1.57706
0.0315601
-0.0325647
-1.31324
1.31424
0.0331152
-0.033457
-1.09942
1.09976
0.0337126
-0.0339978
-0.924448
0.924733
0.0342558
-0.0343385
-0.78186
0.781943
0.033726
-0.0318702
-0.652244
0.650388
0.0285295
-0.0231326
-0.495617
0.49022
0.0173354
-0.0111356
-0.302962
0.296762
0.00644662
-0.00273372
-0.133744
0.130031
0.000743529
-0.0211515
0.020408
-0.0290801
0.0292865
-0.000206402
0.000702911
-0.000563148
-0.225604
0.225464
-3.93942e-05
0.000702484
-0.397438
0.396775
-0.00107546
0.000694786
-0.554114
0.554494
0.000614612
-0.00242619
-0.677507
0.679318
0.00490552
-0.00745154
-0.799439
0.801985
0.0104505
-0.0133193
-0.945121
0.947989
0.0165755
-0.0196132
-1.121
1.12404
0.0229688
-0.0259947
-1.33226
1.33529
0.0291829
-0.0318814
-1.58628
1.58898
0.0340981
-0.0358449
-1.57881
1.58055
0.0369737
-0.0377645
-1.31509
1.31588
0.0380947
-0.0381772
-1.10027
1.10036
0.0382005
-0.0382519
-0.924864
0.924915
0.0383192
-0.0379925
-0.781678
0.781351
0.0369691
-0.0344666
-0.648349
0.645847
0.0304736
-0.0244345
-0.484602
0.478563
0.0182101
-0.0116876
-0.290455
0.283932
0.00677942
-0.00288538
-0.126255
0.122361
0.000788247
-0.0196509
0.0188626
-0.0295708
0.029924
-0.000353164
0.00176029
-0.00225523
-0.225662
0.226157
0.00250588
-0.00257897
-0.396472
0.396545
0.00283737
-0.00359306
-0.555281
0.556036
0.00514058
-0.00717675
-0.681435
0.683471
0.00992617
-0.0127465
-0.804534
0.807354
0.0160587
-0.0192136
-0.950777
0.953932
0.022775
-0.0260727
-1.12702
1.13032
0.0296788
-0.0328863
-1.33828
1.34149
0.0362014
-0.0389262
-1.59161
1.59434
0.0410712
-0.0426548
-1.58212
1.5837
0.0435914
-0.0441547
-1.31646
1.31702
0.0442561
-0.0440596
-1.1006
1.10041
0.0438309
-0.0436325
-0.924764
0.924565
0.0434747
-0.0426478
-0.780658
0.779831
0.0411226
-0.0378585
-0.643173
0.639909
0.0330952
-0.0262745
-0.472257
0.465436
0.0194834
-0.012487
-0.277233
0.270237
0.0072474
-0.00308909
-0.118364
0.114206
0.000845307
-0.0180548
0.0172095
-0.0303497
0.0308811
-0.000531406
0.00305147
-0.00432526
-0.22707
0.228344
0.00546166
-0.00633818
-0.396986
0.397863
0.0073343
-0.00857522
-0.557333
0.558574
0.0104778
-0.0128179
-0.685879
0.688219
0.0159223
-0.0190925
-0.810175
0.813345
0.0227983
-0.0263096
-0.957014
0.960526
0.0302483
-0.0338661
-1.13358
1.1372
0.0377797
-0.0412086
-1.34466
1.34809
0.0446762
-0.0474327
-1.597
1.59975
0.0494948
-0.0508957
-1.58509
1.58649
0.0516183
-0.0519447
-1.31731
1.31764
0.0517967
-0.0512971
-1.10035
1.09985
0.0508
-0.0503366
-0.924104
0.923641
0.0498261
-0.0485312
-0.778711
0.777416
0.0463331
-0.0421484
-0.636464
0.632279
0.0364556
-0.0286727
-0.458284
0.450501
0.0211491
-0.0135162
-0.26299
0.255357
0.00783382
-0.00333501
-0.109907
0.105408
0.00091128
-0.0163402
0.0154289
-0.0314908
0.0322482
-0.000757354
0.00457876
-0.00674304
-0.230049
0.232213
0.0089693
-0.0107652
-0.399204
0.401
0.012606
-0.0144503
-0.560524
0.562368
0.016847
-0.0195902
-0.691008
0.693751
0.0231626
-0.0267692
-0.816517
0.820123
0.0309596
-0.0349079
-0.963976
0.967924
0.039307
-0.0433111
-1.14079
1.1448
0.0475886
-0.0512717
-1.35149
1.35517
0.0549061
-0.0576876
-1.60243
1.60521
0.059644
-0.060825
-1.58767
1.58885
0.0612963
-0.0613579
-1.31758
1.31764
0.0609369
-0.0601004
-1.09947
1.09863
0.059307
-0.0585601
-0.922832
0.922085
0.0576061
-0.0557508
-0.775867
0.774012
0.0527421
-0.0474272
-0.627898
0.622583
0.0405962
-0.0316245
-0.442305
0.433333
0.0231782
-0.0147391
-0.247395
0.238956
0.00850913
-0.00360689
-0.100737
0.095835
0.00098069
-0.0144914
0.0135107
-0.0330801
0.0341333
-0.0010532
0.00650164
-0.00974774
-0.234835
0.238082
0.0132326
-0.0161001
-0.40339
0.406257
0.0189265
-0.0215019
-0.565129
0.567705
0.0245365
-0.0278143
-0.697029
0.700306
0.0319865
-0.0361402
-0.823738
0.827892
0.0409293
-0.0454086
-0.971827
0.976306
0.0503559
-0.0548081
-1.14879
1.15324
0.0594942
-0.0634496
-1.35882
1.36278
0.0672429
-0.0700154
-1.60788
1.61066
0.0718166
-0.0727201
-1.58977
1.59068
0.072873
-0.0726066
-1.31714
1.31687
0.0718956
-0.0706945
-1.09788
1.09668
0.0695831
-0.068538
-0.920926
0.91988
0.0670182
-0.0644915
-0.771942
0.769415
0.06048
-0.0537594
-0.617039
0.610318
0.0455192
-0.0350811
-0.423849
0.413411
0.0255014
-0.0160894
-0.230112
0.2207
0.0092247
-0.00388013
-0.0907393
0.0853948
0.00104586
-0.0125052
0.0114593
-0.0352479
0.0367102
-0.00146237
0.0090121
-0.0136252
-0.241769
0.246382
0.0186075
-0.022714
-0.409918
0.414025
0.0266853
-0.0301487
-0.571481
0.574944
0.03401
-0.0379888
-0.704227
0.708205
0.0429378
-0.047782
-0.832058
0.836902
0.0532992
-0.058404
-0.980758
0.985863
0.0639754
-0.0689145
-1.15767
1.16261
0.0740128
-0.0782046
-1.36666
1.37085
0.0820772
-0.0847401
-1.61326
1.61593
0.0862834
-0.0868173
-1.59126
1.5918
0.0866052
-0.0859493
-1.3159
1.31525
0.0848969
-0.0833129
-1.09551
1.09393
0.0818825
-0.0803853
-0.918321
0.916824
0.078367
-0.0748978
-0.76663
0.763161
0.0696155
-0.0611222
-0.603305
0.594812
0.0511324
-0.0389068
-0.402356
0.39013
0.0279777
-0.0174517
-0.21082
0.200294
0.00990261
-0.00411776
-0.0798546
0.0740698
0.00109576
-0.0103949
0.00929916
-0.0381944
0.0402396
-0.00204522
0.0125145
-0.0188512
-0.251369
0.257706
0.0256299
-0.0311781
-0.419279
0.424827
0.0364978
-0.0410443
-0.579975
0.584521
0.0459408
-0.0508305
-0.712955
0.717845
0.0567787
-0.0624712
-0.841755
0.847447
0.0688449
-0.0746516
-0.990953
0.996759
0.0808823
-0.08629
-1.16751
1.17292
0.0917271
-0.0960487
-1.37491
1.37923
0.0998511
-0.102249
-1.61833
1.62073
0.10338
-0.103397
-1.59193
1.59194
0.102727
-0.10156
-1.31378
1.31262
0.100123
-0.0981512
-1.09232
1.09035
0.0963707
-0.0943051
-0.914668
0.912603
0.0917185
-0.0870482
-0.759377
0.754707
0.0801194
-0.0693737
-0.585933
0.575188
0.0572168
-0.0428489
-0.377185
0.362817
0.030375
-0.0186536
-0.189269
0.177547
0.010435
-0.00427239
-0.0681156
0.061953
0.00111732
-0.00819689
0.00707958
-0.0422473
0.0451975
-0.00295025
0.0175876
-0.0261945
-0.264362
0.272969
0.0351904
-0.0424713
-0.432144
0.439425
0.0494039
-0.055255
-0.591101
0.596953
0.0615057
-0.0676081
-0.72365
0.729752
0.0747701
-0.0814297
-0.853117
0.859777
0.0887195
-0.0952136
-1.00254
1.00903
0.102013
-0.107746
-1.1782
1.18393
0.113311
-0.117535
-1.38329
1.38751
0.120995
-0.122873
-1.62274
1.62462
0.123367
-0.122676
-1.59144
1.59075
0.1214
-0.119627
-1.31055
1.30878
0.117778
-0.115392
-1.08821
1.08582
0.113197
-0.11053
-0.909735
0.907068
0.107139
-0.100828
-0.749576
0.743265
0.0917418
-0.0781465
-0.563924
0.550328
0.0633437
-0.046488
-0.347668
0.330812
0.0323444
-0.0194599
-0.165359
0.152475
0.010685
-0.00428811
-0.0556879
0.049291
0.00109595
-0.00597367
0.00487772
-0.0479882
0.0524623
-0.00447413
0.0254325
-0.0371133
-0.281925
0.293606
0.0489826
-0.0585894
-0.449565
0.459171
0.0675722
-0.0750069
-0.60545
0.612885
0.0828849
-0.0905019
-0.736729
0.744346
0.0989322
-0.106495
-0.86635
0.873913
0.114533
-0.12148
-1.01539
1.02233
0.128512
-0.134218
-1.18936
1.19507
0.139491
-0.143224
-1.39127
1.395
0.145913
-0.146906
-1.6259
1.6269
0.146459
-0.144814
-1.58942
1.58778
0.142762
-0.140283
-1.30601
1.30353
0.137933
-0.135102
-1.08306
1.08023
0.132397
-0.1291
-0.903418
0.900121
0.124479
-0.115887
-0.736263
0.727671
0.103938
-0.0867721
-0.53602
0.518855
0.0688312
-0.0492381
-0.313217
0.293624
0.0334468
-0.0196066
-0.139273
0.125433
0.010513
-0.00411247
-0.0429088
0.0365083
0.00101795
-0.00381357
0.00279562
-0.0565097
0.0641288
-0.00761906
0.0391088
-0.0553084
-0.306226
0.322425
0.071236
-0.0840526
-0.473187
0.486004
0.0952059
-0.10409
-0.623509
0.632393
0.113555
-0.122522
-0.752521
0.761488
0.131971
-0.139995
-0.88117
0.889194
0.148159
-0.154931
-1.02886
1.03563
0.161513
-0.166561
-1.20016
1.2052
0.170898
-0.173557
-1.39795
1.40061
0.17492
-0.174557
-1.62704
1.62668
0.172776
-0.169882
-1.58534
1.58244
0.166848
-0.163508
-1.29992
1.29658
0.160562
-0.157233
-1.07675
1.07342
0.153972
-0.149679
-0.895359
0.891066
0.143262
-0.131439
-0.717998
0.706175
0.115636
-0.0940887
-0.500646
0.479098
0.0727403
-0.0504655
-0.273543
0.251268
0.0333083
-0.0189351
-0.111627
0.097254
0.00985286
-0.00372261
-0.030298
0.0241677
0.000870256
-0.00182211
0.000951857
-0.0712039
0.0754608
-0.00425684
0.0298291
-0.0440021
-0.341249
0.355422
0.0582547
-0.0700798
-0.504423
0.516248
0.0807243
-0.0907328
-0.644997
0.655005
0.102017
-0.112519
-0.769847
0.780349
0.124247
-0.134675
-0.896178
0.906606
0.145828
-0.155809
-1.0415
1.05148
0.166362
-0.175531
-1.2092
1.21837
0.184842
-0.192475
-1.40215
1.40978
0.199598
-0.204653
-1.62519
1.63025
0.207643
-0.209193
-1.57854
1.58009
0.209524
-0.209362
-1.29195
1.29179
0.209277
-0.208492
-1.06889
1.06811
0.206933
-0.202355
-0.884457
0.879878
0.19283
-0.174222
-0.692659
0.674051
0.149357
-0.117121
-0.456389
0.424153
0.0871858
-0.0578168
-0.229022
0.199653
0.0366634
-0.0199977
-0.0836141
0.0669483
0.00995485
-0.00354102
-0.0185058
0.012092
0.000746613
-6.84006e-05
-0.000678213
-0.0830047
0.0810607
0.00194409
0.00798838
-0.0171865
-0.372349
0.381547
0.0280357
-0.0366223
-0.532756
0.541343
0.0453174
-0.0536448
-0.667794
0.676122
0.0639229
-0.0736479
-0.790296
0.800021
0.0841267
-0.0937049
-0.916395
0.925973
0.103934
-0.112742
-1.06117
1.06998
0.122245
-0.130132
-1.22734
1.23522
0.138114
-0.144408
-1.4171
1.4234
0.149862
-0.153514
-1.63462
1.63827
0.155258
-0.155657
-1.58119
1.58158
0.154805
-0.153416
-1.2907
1.28931
0.152195
-0.150701
-1.06484
1.06334
0.14829
-0.142286
-0.870652
0.864648
0.131765
-0.11419
-0.651435
0.63386
0.0935227
-0.0693601
-0.390029
0.365867
0.0491379
-0.0312955
-0.171026
0.153184
0.0192792
-0.0102974
-0.0513973
0.0424155
0.00502199
-0.00175093
-0.00588429
0.00261323
0.000344335
0.001647
-0.00199134
-0.0844957
0.0815479
0.00294783
-0.0011142
-0.00416309
-0.393506
0.398783
0.0113807
-0.017699
-0.553859
0.560178
0.0241425
-0.0313239
-0.68709
0.694272
0.0402556
-0.048689
-0.808751
0.817184
0.0579869
-0.066324
-0.9347
0.943037
0.074981
-0.0828194
-1.0786
1.08644
0.0910665
-0.0980046
-1.24267
1.24961
0.104577
-0.109589
-1.42904
1.43406
0.113947
-0.116416
-1.64131
1.64378
0.117026
-0.116367
-1.58147
1.58081
0.114718
-0.112655
-1.28737
1.28531
0.110394
-0.107979
-1.05901
1.05659
0.104811
-0.0984859
-0.854709
0.848384
0.0886518
-0.0736596
-0.61342
0.598428
0.057869
-0.0411252
-0.340222
0.323478
0.0286018
-0.0183375
-0.13524
0.124975
0.0115812
-0.00648991
-0.0334888
0.0283975
0.00334249
-0.00125506
0.000904644
-0.00299208
0.000278642
0.00255735
-0.00283599
-0.083218
0.0803438
0.00287426
-0.00509196
0.00246746
-0.40759
0.410214
0.00221534
-0.00698873
-0.56959
0.574363
0.0123948
-0.0184008
-0.702943
0.708949
0.0260534
-0.0332718
-0.824887
0.832106
0.0411871
-0.0483087
-0.950768
0.95789
0.0560895
-0.0627111
-1.0938
1.10043
0.0698511
-0.075386
-1.25609
1.26163
0.0809236
-0.0850089
-1.43879
1.44288
0.0881777
-0.0893936
-1.6458
1.64702
0.0892172
-0.0878297
-1.5796
1.57821
0.0855606
-0.0824364
-1.28269
1.27957
0.079457
-0.0761092
-1.0517
1.04835
0.0721558
-0.0662635
-0.837967
0.832075
0.0576641
-0.0461511
-0.581023
0.56951
0.0351844
-0.0248375
-0.305858
0.295511
0.0176785
-0.0120063
-0.114084
0.108411
0.00814934
-0.00502874
-0.0227255
0.0196049
0.00284424
-0.00119518
0.00555545
-0.0072045
0.000309826
0.00331594
-0.00362577
-0.0816147
0.0790414
0.00257336
-0.00650127
0.00554776
-0.416994
0.417947
-0.0020525
-0.00148943
-0.582155
0.585697
0.00577558
-0.0111775
-0.716225
0.721627
0.0175834
-0.0238891
-0.838541
0.844846
0.0307025
-0.036848
-0.964499
0.970645
0.0434737
-0.0492869
-1.10686
1.11268
0.0552552
-0.0601758
-1.26696
1.27188
0.0647537
-0.0679803
-1.44651
1.44974
0.0702085
-0.0705627
-1.64798
1.64834
0.0695756
-0.0672021
-1.57602
1.57365
0.0642728
-0.0605909
-1.27609
1.2724
0.0569545
-0.0526603
-1.0431
1.03881
0.0482694
-0.0426412
-0.82198
0.816352
0.0357125
-0.0272439
-0.555832
0.547364
0.0201535
-0.0142646
-0.283886
0.277997
0.0105405
-0.00779131
-0.101878
0.099129
0.00580737
-0.00396186
-0.0158378
0.0139923
0.00246493
-0.00113916
0.00924856
-0.0105743
0.000333676
0.00407946
-0.00441314
-0.080062
0.0778307
0.0022313
-0.00661326
0.00623705
-0.423366
0.423742
-0.00417876
0.00132916
-0.591799
0.594649
0.00280045
-0.0073953
-0.727409
0.732004
0.0128501
-0.0182698
-0.850285
0.855704
0.0242572
-0.0296853
-0.976381
0.981809
0.0356551
-0.0406625
-1.11816
1.12316
0.0458905
-0.0501502
-1.27643
1.28069
0.0539545
-0.0564753
-1.45258
1.4551
0.0578973
-0.0578855
-1.64846
1.64845
0.0561492
-0.0532149
-1.57066
1.56772
0.0496513
-0.0452667
-1.2682
1.26381
0.0411943
-0.0360455
-1.03315
1.028
0.0311359
-0.0258627
-0.807042
0.801769
0.0201456
-0.013976
-0.536955
0.530785
0.00960475
-0.0066545
-0.270676
0.267725
0.0052996
-0.00440907
-0.0952716
0.0943811
0.00366217
-0.00282968
-0.0115371
0.0107046
0.00194764
-0.00100073
0.0121727
-0.0131196
0.000326049
0.00482874
-0.00515479
-0.0787985
0.0770243
0.00177422
-0.00589991
0.00593381
-0.427972
0.427938
-0.00428565
0.00218251
-0.600128
0.602231
0.00162943
-0.00575541
-0.737011
0.741137
0.0108515
-0.0154604
-0.860682
0.865291
0.0206481
-0.0253863
-0.987151
0.991889
0.0309339
-0.0353636
-1.12814
1.13257
0.0398622
-0.043692
-1.28468
1.28851
0.0473341
-0.0493423
-1.45752
1.45952
0.0503397
-0.0497062
-1.64788
1.64724
0.0477477
-0.044014
-1.56436
1.56062
0.0401323
-0.0353717
-1.25894
1.25418
0.0306667
-0.0252091
-1.02198
1.01652
0.0198948
-0.0143965
-0.792904
0.787405
0.0096692
-0.00491825
-0.522574
0.517823
0.00220279
-0.00116568
-0.262949
0.261912
0.0010735
-0.001306
-0.0923886
0.0926211
0.0014593
-0.00145201
-0.00942174
0.00941444
0.00118012
-0.000703847
0.0141654
-0.0146416
0.000268207
0.00547556
-0.00574377
-0.0780065
0.0765933
0.00141319
-0.00492469
0.00516357
-0.43147
0.431231
-0.00371699
0.0017666
-0.607257
0.609208
0.00179098
-0.00546108
-0.745521
0.749191
0.00976067
-0.0141251
-0.869828
0.874192
0.0188333
-0.0236162
-0.996371
1.00115
0.0282856
-0.0323809
-1.13705
1.14114
0.0368202
-0.0402007
-1.29213
1.29551
0.0430734
-0.0451783
-1.46132
1.46342
0.0459171
-0.0450836
-1.64651
1.64568
0.0427168
-0.0389075
-1.55688
1.55307
0.0347221
-0.0295699
-1.24878
1.24363
0.0245862
-0.0187403
-1.01019
1.00434
0.0131887
-0.00776274
-0.779126
0.7737
0.00321718
0.000565841
-0.510958
0.507175
-0.00238394
0.00269633
-0.258605
0.258293
-0.00218274
0.00130372
-0.0918786
0.0927576
-0.000575721
-5.9643e-05
-0.00906168
0.00969704
0.000335023
-0.000328447
0.0150723
-0.0150789
0.000166714
0.00592432
-0.00609104
-0.0777398
0.076541
0.00119882
-0.00368887
0.00373097
-0.434464
0.434422
-0.00254181
0.000661828
-0.613678
0.615558
0.00260343
-0.006106
-0.753326
0.756829
0.0101591
-0.014046
-0.878338
0.882225
0.0187909
-0.0226719
-1.00529
1.00917
0.0271942
-0.0309886
-1.14534
1.14914
0.0351443
-0.0385342
-1.29879
1.30218
0.0414634
-0.043077
-1.46517
1.46679
0.0437916
-0.0429284
-1.64462
1.64375
0.0407284
-0.0366785
-1.54894
1.54489
0.0324145
-0.0270944
-1.23833
1.23301
0.0219803
-0.0158998
-0.997724
0.991644
0.0103202
-0.00462584
-0.7658
0.760106
0.000342324
0.00307623
-0.501049
0.49763
-0.00476445
0.00481155
-0.255737
0.25569
-0.00413928
0.0030286
-0.092564
0.0936747
-0.00203142
0.00102081
-0.0099886
0.0109992
-0.000388049
1.52291e-05
0.0149932
-0.0146204
5.53607e-05
0.00612157
-0.00617693
-0.0777549
0.0768898
0.000865147
-0.00255533
0.00213996
-0.437444
0.43786
-0.00115001
-0.000775
-0.619274
0.621199
0.00367959
-0.00700904
-0.760499
0.763828
0.0108379
-0.0148024
-0.88597
0.889934
0.0188466
-0.0228202
-1.01322
1.01719
0.0272077
-0.0306839
-1.15331
1.15678
0.0348031
-0.0380034
-1.30529
1.30849
0.0407905
-0.042726
-1.46872
1.47066
0.0436396
-0.0427233
-1.64279
1.64188
0.0403674
-0.0366228
-1.54086
1.53712
0.0325298
-0.0271681
-1.22737
1.22201
0.0219375
-0.0160401
-0.985093
0.979196
0.0100565
-0.00434905
-0.752493
0.746786
7.64144e-05
0.00324935
-0.491896
0.488571
-0.00491107
0.00534892
-0.253339
0.252901
-0.00487602
0.00392082
-0.0937336
0.0946888
-0.00289107
0.00175452
-0.0116149
0.0127514
-0.000917614
0.00029666
0.0141941
-0.0135732
-3.68939e-05
0.00609453
-0.00605763
-0.0781848
0.077495
0.000689782
-0.0015827
0.00121013
-0.44058
0.440953
0.00028229
-0.00204145
-0.624881
0.62664
0.00509376
-0.00826385
-0.767082
0.770252
0.0119053
-0.0154211
-0.893557
0.897073
0.0195395
-0.0231351
-1.02112
1.02472
0.0273946
-0.0312404
-1.16067
1.16452
0.0348889
-0.0383106
-1.31167
1.31509
0.0413802
-0.0432369
-1.47239
1.47425
0.0442955
-0.0438999
-1.64107
1.64067
0.0417088
-0.038271
-1.5331
1.52966
0.0341179
-0.028953
-1.21655
1.21138
0.0239348
-0.0179986
-0.972612
0.966676
0.0122525
-0.00641905
-0.739461
0.733627
0.00189355
0.00175217
-0.482723
0.479077
-0.00369534
0.00452824
-0.250551
0.249718
-0.0045766
0.00397294
-0.0946127
0.0952164
-0.0031299
0.002074
-0.0134386
0.0144945
-0.00120888
0.000482163
0.0129511
-0.0122244
-0.000111188
0.00589219
-0.005781
-0.0789179
0.0784079
0.00051001
-0.000499326
-5.28863e-05
-0.443845
0.444398
0.00139799
-0.00345448
-0.630047
0.632103
0.00642387
-0.00941867
-0.773361
0.776356
0.0131272
-0.0164647
-0.900557
0.903895
0.0203831
-0.0240594
-1.02876
1.03244
0.0281713
-0.0319219
-1.16817
1.17192
0.0357195
-0.0390873
-1.31837
1.32174
0.0422315
-0.0447218
-1.47632
1.47881
0.0460503
-0.0457546
-1.64011
1.63981
0.0440293
-0.0406757
-1.52599
1.52264
0.0368856
-0.0321009
-1.20606
1.20128
0.0270193
-0.0212195
-0.960281
0.954481
0.0155866
-0.00960139
-0.72657
0.720585
0.00490775
-0.000849659
-0.473427
0.469369
-0.00148416
0.00289241
-0.246984
0.245576
-0.0033642
0.00320628
-0.0947408
0.0948987
-0.00272888
0.00194476
-0.0150315
0.0158156
-0.00121202
0.000529143
0.0115725
-0.0108896
-0.00013496
0.0055721
-0.00543714
-0.0798969
0.0795149
0.000382016
0.000377849