/*--------------------------------*- C++ -*----------------------------------*\
  =========                 |
  \\      /  F ield         | OpenFOAM: The Open Source CFD Toolbox
   \\    /   O peration     | Website:  https://openfoam.org
    \\  /    A nd           | Version:  6
     \\/     M anipulation  |
\*---------------------------------------------------------------------------*/
FoamFile
{
    version     2.0;
    format      ascii;
    class       surfaceScalarField;
    location    "83.2";
    object      phi;
}
// * * * * * * * * * * * * * * * * * * * * * * * * * * * * * * * * * * * * * //

dimensions      [0 3 -1 0 0 0 0];

internalField   nonuniform List<scalar> 
17370
(
-0.0900002
0.0898492
0.289162
-0.0714626
0.0537526
0.364486
-0.0381193
0.02769
0.426597
-0.019638
0.0146047
0.504285
-0.0107624
0.00827174
0.601893
-0.00627177
0.00489512
0.720434
-0.00373121
0.0028908
0.863747
-0.00214957
0.00159068
1.03601
-0.00107432
0.000662107
1.24292
-0.000255168
-0.000140026
1.49159
0.000519162
-0.00092946
1.4916
0.00132804
-0.00181747
1.24318
0.00234428
-0.00304886
1.03634
0.003862
-0.00500577
0.86405
0.00637151
-0.0083641
0.72105
0.0108491
-0.0146846
0.60305
0.019711
-0.027755
0.507483
0.0381764
-0.0538006
0.431792
0.071502
-0.0898756
0.365149
0.0900162
0.198995
-0.128137
0.0882275
0.0399092
-0.364599
0.35338
-0.0746712
0.0858908
-0.446476
0.454321
-0.0843872
0.0765426
-0.521191
0.529903
-0.0684449
0.0597329
-0.612789
0.62157
-0.0515432
0.0427626
-0.726895
0.734166
-0.0353008
0.0280301
-0.867476
0.872593
-0.0224281
0.0173113
-1.03847
1.04193
-0.0135006
0.01005
-1.2446
1.24703
-0.00743843
0.00500447
-1.49262
1.4946
-0.00305511
0.00107377
-1.4925
1.49423
0.000600827
-0.00232553
-1.24398
1.24586
0.0042304
-0.00611578
-1.03751
1.04003
0.00847134
-0.0109969
-0.8661
0.869826
0.0143459
-0.0180717
-0.72439
0.729932
0.0231106
-0.0286532
-0.608697
0.61611
0.0358669
-0.04328
-0.514896
0.523039
0.0520089
-0.0601519
-0.439856
0.447913
0.0688137
-0.0768715
-0.375295
0.376738
0.0846677
-0.0861112
-0.25733
0.222476
0.0748207
-0.039967
-0.0685212
0.0586963
0.00982484
-0.0518051
0.0583862
-0.37413
0.367548
-0.0574684
0.0537144
-0.453597
0.45735
-0.0486226
0.0446683
-0.527949
0.531904
-0.0408261
0.0371849
-0.621566
0.625208
-0.0330805
0.0290023
-0.735352
0.73943
-0.0244292
0.0202674
-0.874344
0.878506
-0.0159189
0.0122225
-1.04349
1.04719
-0.00848218
0.00530679
-1.24856
1.25174
-0.00197617
-0.00109848
-1.49666
1.49973
0.00414706
-0.00741439
-1.4972
1.50047
0.0104954
-0.0141
-1.25007
1.25367
0.0176525
-0.0218348
-1.04592
1.0501
0.0258553
-0.0302915
-0.877758
0.882194
0.0342596
-0.0382548
-0.739897
0.743892
0.0418031
-0.045549
-0.62677
0.630516
0.0494205
-0.0544332
-0.534807
0.53982
0.0581005
-0.05891
-0.457471
0.458281
0.0522014
-0.0319946
-0.335746
0.315539
0.00988933
-0.0683415
0.0584521
-0.052947
0.0489534
0.00399359
-0.033149
0.0436883
-0.358119
0.34758
-0.0473815
0.0467503
-0.459291
0.459922
-0.0436907
0.0403344
-0.535808
0.539164
-0.0365578
0.0332501
-0.628535
0.631843
-0.0298082
0.0267726
-0.742656
0.745692
-0.0235097
0.0203993
-0.882028
0.885138
-0.0168649
0.0134817
-1.05078
1.05417
-0.00968427
0.00614218
-1.25518
1.25872
-0.00216973
-0.00162939
-1.50325
1.50704
0.00539579
-0.00927037
-1.50413
1.50801
0.0126788
-0.0162885
-1.25741
1.26102
0.0194719
-0.0227741
-1.05391
1.05721
0.0256842
-0.0287491
-0.88568
0.888745
0.031623
-0.0349037
-0.747148
0.750429
0.0380751
-0.0417128
-0.634298
0.637935
0.0449499
-0.0478736
-0.544127
0.547051
0.0483616
-0.0444673
-0.456562
0.452668
0.033688
-0.0162289
-0.296166
0.278707
0.00407393
-0.0526303
0.0485564
-0.0458779
0.0433852
0.00249276
-0.0227877
0.0331566
-0.336898
0.326529
-0.038969
0.0399796
-0.459611
0.4586
-0.0387836
0.0364922
-0.541887
0.544178
-0.0338194
0.0312184
-0.634897
0.637499
-0.0281495
0.025245
-0.748741
0.751646
-0.0219745
0.0189755
-0.888096
0.891095
-0.0156646
0.01256
-1.0573
1.06041
-0.00902832
0.00561492
-1.26218
1.26559
-0.00164784
-0.00223857
-1.51093
1.51482
0.00608095
-0.00991688
-1.5119
1.51573
0.0131526
-0.0164372
-1.26445
1.26774
0.0192796
-0.0222855
-1.06032
1.06332
0.0250188
-0.0280236
-0.891791
0.894796
0.0307083
-0.0335562
-0.75363
0.756478
0.0359706
-0.038456
-0.640996
0.643481
0.0405868
-0.0415714
-0.548849
0.549833
0.0403393
-0.0342035
-0.447378
0.441242
0.023481
-0.0102481
-0.263475
0.250242
0.00259209
-0.0453901
0.0427981
-0.0413132
0.0395497
0.00176352
-0.0167209
0.0259576
-0.316688
0.307452
-0.032549
0.0346788
-0.457008
0.454878
-0.0342491
0.0325719
-0.54616
0.547837
-0.030384
0.0282822
-0.639808
0.64191
-0.0258434
0.023439
-0.754296
0.7567
-0.0205727
0.0177761
-0.893997
0.896793
-0.0145315
0.0114545
-1.06346
1.06654
-0.00795617
0.00462369
-1.26892
1.27225
-0.000785012
-0.00295174
-1.51861
1.52234
0.00663216
-0.0103028
-1.51946
1.52313
0.0134075
-0.0165898
-1.27097
1.27416
0.0193312
-0.0221858
-1.06635
1.0692
0.0246413
-0.0271649
-0.8976
0.900124
0.0292848
-0.0314384
-0.75892
0.761074
0.0333014
-0.0352482
-0.645628
0.647575
0.0366927
-0.0368352
-0.550342
0.550484
0.0343657
-0.0273006
-0.43456
0.427495
0.017587
-0.00742273
-0.238693
0.228529
0.00188487
-0.0406148
0.0387299
-0.0380315
0.0367069
0.00132463
-0.0127519
0.0206769
-0.298876
0.290951
-0.0274055
0.030312
-0.45233
0.449424
-0.0305031
0.0293725
-0.549275
0.550405
-0.0273696
0.0254437
-0.643952
0.645878
-0.023233
0.0210856
-0.758947
0.761094
-0.0185589
0.0160642
-0.899376
0.901871
-0.013109
0.0102176
-1.06948
1.07237
-0.00684284
0.00359101
-1.27552
1.27877
0.000165128
-0.00379905
-1.526
1.52963
0.00736267
-0.0109083
-1.52672
1.53027
0.0138755
-0.0168558
-1.27727
1.28025
0.0193278
-0.021795
-1.07194
1.0744
0.0238624
-0.0259581
-0.902398
0.904494
0.027746
-0.0295947
-0.763047
0.764896
0.0312189
-0.0329287
-0.649385
0.651095
0.0337206
-0.0331275
-0.550261
0.549668
0.0297349
-0.0223571
-0.420215
0.412837
0.0138187
-0.00576289
-0.219518
0.211463
0.00147227
-0.0370762
0.0356039
-0.035551
0.0345325
0.00101852
-0.00994546
0.0166323
-0.283671
0.276984
-0.0230845
0.026434
-0.446276
0.442927
-0.0271954
0.0264807
-0.551321
0.552036
-0.0247078
0.0229107
-0.647783
0.64958
-0.0208256
0.0187947
-0.763177
0.765208
-0.016406
0.0140623
-0.90422
0.906564
-0.0113047
0.00860191
-1.0751
1.0778
-0.00542525
0.00232459
-1.28191
1.28501
0.00129932
-0.00482
-1.53319
1.53671
0.00825326
-0.0116152
-1.53371
1.53707
0.0143631
-0.0170523
-1.2831
1.28579
0.0192371
-0.0213922
-1.07678
1.07894
0.0232082
-0.0250634
-0.906454
0.90831
0.0266489
-0.0282852
-0.766631
0.768267
0.0297082
-0.0310751
-0.652661
0.654028
0.0313703
-0.0300384
-0.548717
0.547385
0.0260188
-0.0187115
-0.405467
0.398159
0.0112532
-0.00466543
-0.204208
0.197621
0.00119808
-0.0342833
0.0330852
-0.03364
0.0328494
0.000790546
-0.00786061
0.0134666
-0.270867
0.265261
-0.0194227
0.0229593
-0.439475
0.435938
-0.0241891
0.0237168
-0.552664
0.553136
-0.0222059
0.0205143
-0.651375
0.653066
-0.0185195
0.0165695
-0.767192
0.769142
-0.0142673
0.0120061
-0.908799
0.91106
-0.00934647
0.00674963
-1.08038
1.08297
-0.00371007
0.000749214
-1.28799
1.29095
0.00270684
-0.00605638
-1.54013
1.54348
0.00929842
-0.0124326
-1.54029
1.54343
0.0149613
-0.0174044
-1.28837
1.29081
0.0193669
-0.0212884
-1.08107
1.08299
0.0229022
-0.0245482
-0.910052
0.911698
0.0259504
-0.027393
-0.769797
0.77124
0.0286168
-0.029598
-0.655196
0.656177
0.0295165
-0.0275094
-0.545711
0.543704
0.0230779
-0.0160244
-0.39097
0.383917
0.00945966
-0.00390927
-0.191599
0.186049
0.00100879
-0.0319925
0.0309837
-0.0321575
0.0315443
0.000613161
-0.00624722
0.0109283
-0.260147
0.255466
-0.0162824
0.0198081
-0.432408
0.428883
-0.021351
0.0210986
-0.553538
0.55379
-0.0198135
0.0181769
-0.654779
0.656416
-0.0162329
0.0143271
-0.771058
0.772964
-0.0120779
0.00986946
-0.913217
0.915425
-0.00727222
0.00474028
-1.08546
1.08799
-0.00178593
-0.00107388
-1.29381
1.29667
0.00438283
-0.00755843
-1.5467
1.54988
0.010603
-0.0135198
-1.54642
1.54933
0.0158537
-0.0180825
-1.29316
1.29539
0.0198414
-0.0215394
-1.08492
1.08662
0.0229584
-0.0244054
-0.91323
0.914677
0.0256394
-0.026905
-0.772583
0.773848
0.0279849
-0.0285433
-0.656953
0.657512
0.0280762
-0.0254956
-0.541412
0.538831
0.0208034
-0.0140641
-0.377025
0.370286
0.00819911
-0.00338504
-0.180902
0.176088
0.00087825
-0.0300487
0.0291704
-0.0310122
0.0305434
0.000468807
-0.00494378
0.00882534
-0.251212
0.24733
-0.0135327
0.0168982
-0.425448
0.422083
-0.0186133
0.0185439
-0.553998
0.554067
-0.0174443
0.0158382
-0.658104
0.65971
-0.0139103
0.0120134
-0.774848
0.776745
-0.00977586
0.00758498
-0.917534
0.919725
-0.00501757
0.0025245
-1.09042
1.09291
0.000371326
-0.00315703
-1.29943
1.30221
0.00635315
-0.00938718
-1.55295
1.55598
0.0122622
-0.0149824
-1.55211
1.55483
0.0171315
-0.0191494
-1.29753
1.29955
0.0207058
-0.0221824
-1.08834
1.08982
0.0234147
-0.0246773
-0.916012
0.917275
0.0257595
-0.0268644
-0.775019
0.776124
0.0277392
-0.0279331
-0.657877
0.658071
0.0270388
-0.0239649
-0.536004
0.53293
0.0191039
-0.0126649
-0.363711
0.357272
0.007326
-0.00302865
-0.171562
0.167265
0.000791108
-0.0283435
0.0275524
-0.0301441
0.029798
0.000346073
-0.00384717
0.00702417
-0.243826
0.240649
-0.0110723
0.0141668
-0.418872
0.415778
-0.0159258
0.0160012
-0.554119
0.554044
-0.0149742
0.0134338
-0.661359
0.662899
-0.0114928
0.00957044
-0.778632
0.780554
-0.00730401
0.00509342
-0.921822
0.924033
-0.00251658
2.92117e-05
-1.09531
1.09779
0.00284106
-0.00558135
-1.30491
1.30765
0.00869597
-0.0116162
-1.55891
1.56184
0.014343
-0.0168789
-1.55741
1.55995
0.0188471
-0.0206548
-1.30148
1.30329
0.0220092
-0.0232685
-1.09136
1.09262
0.0243215
-0.0254093
-0.918424
0.919512
0.0263475
-0.0272898
-0.777123
0.778066
0.0279031
-0.0277979
-0.658119
0.658013
0.0264442
-0.0229118
-0.529631
0.526099
0.0179188
-0.011719
-0.350974
0.344775
0.00675221
-0.00280129
-0.163167
0.159216
0.000737696
-0.0267953
0.0260576
-0.0295145
0.0292785
0.000235953
-0.00288136
0.00542022
-0.237816
0.235277
-0.00880839
0.0115478
-0.412887
0.410147
-0.0132351
0.0133801
-0.553998
0.553853
-0.012387
0.0108794
-0.664509
0.666016
-0.00890092
0.00692307
-0.782472
0.78445
-0.00459141
0.00232574
-0.926153
0.928418
0.000301786
-0.0028219
-1.10019
1.10271
0.00570741
-0.00843615
-1.31031
1.31304
0.0115017
-0.0143335
-1.56466
1.56749
0.0169322
-0.0192999
-1.56235
1.56472
0.0210988
-0.0227043
-1.30501
1.30662
0.0238574
-0.0248937
-1.09397
1.09501
0.0257599
-0.0266626
-0.920479
0.921381
0.0274463
-0.0282237
-0.778861
0.779638
0.0285521
-0.0281227
-0.657768
0.657338
0.0263053
-0.0223313
-0.522368
0.518394
0.0172018
-0.0111522
-0.338678
0.332629
0.0064196
-0.00267691
-0.155393
0.151651
0.000711209
-0.0253403
0.0246291
-0.0291023
0.0289715
0.000130817
-0.00198257
0.00392011
-0.233063
0.231126
-0.00664191
0.00895486
-0.407653
0.40534
-0.0104617
0.0105971
-0.553793
0.553657
-0.0096034
0.00808927
-0.667629
0.669143
-0.00604379
0.00397814
-0.786426
0.788492
-0.00154206
-0.000816094
-0.930594
0.932952
0.00353606
-0.00612687
-1.10515
1.10774
0.0090684
-0.0118207
-1.3157
1.31845
0.0148704
-0.0176373
-1.57024
1.57301
0.0201231
-0.0223313
-1.56694
1.56915
0.0239646
-0.0253671
-1.30814
1.30954
0.0263133
-0.027122
-1.09617
1.09698
0.0277927
-0.0284983
-0.922155
0.922861
0.0291261
-0.0297626
-0.780244
0.78088
0.0297486
-0.0289115
-0.656723
0.655886
0.0266202
-0.0222021
-0.514239
0.509821
0.0169037
-0.010903
-0.326638
0.320637
0.00628313
-0.00263537
-0.147979
0.144332
0.000706317
-0.0239276
0.0232213
-0.028901
0.0288766
2.4413e-05
-0.00110248
0.0024511
-0.229505
0.228156
-0.00449052
0.00631181
-0.403307
0.401485
-0.00753396
0.007577
-0.553668
0.553625
-0.0065337
0.0049723
-0.670802
0.672364
-0.00281719
0.000627856
-0.790558
0.792748
0.00195446
-0.00444436
-0.935221
0.937711
0.00730104
-0.010004
-1.11025
1.11296
0.0130465
-0.0158603
-1.32114
1.32396
0.01893
-0.0216578
-1.5757
1.57842
0.0240471
-0.0261045
-1.57121
1.57327
0.0275744
-0.0287719
-1.31086
1.31205
0.0295113
-0.0300876
-1.09795
1.09852
0.0305563
-0.0310529
-0.923435
0.923931
0.0315008
-0.0318847
-0.781256
0.78164
0.0315779
-0.0302556
-0.654857
0.653535
0.0274492
-0.0225466
-0.505218
0.500315
0.0170135
-0.0109446
-0.314642
0.308573
0.00632117
-0.0026669
-0.140705
0.137051
0.000720476
-0.0225155
0.021795
-0.0289129
0.0289982
-8.52994e-05
-0.000193839
0.000944308
-0.227124
0.226374
-0.00227132
0.00353478
-0.399977
0.398714
-0.00437099
0.00423733
-0.5538
0.553933
-0.00308667
0.00141993
-0.67412
0.675787
0.000881252
-0.00323597
-0.794938
0.797293
0.00601266
-0.00868003
-0.940112
0.942779
0.0117245
-0.0145851
-1.11559
1.11845
0.0177754
-0.0206906
-1.32672
1.32963
0.0238197
-0.0265384
-1.58108
1.5838
0.0288513
-0.030764
-1.57516
1.57708
0.0320679
-0.033055
-1.31315
1.31414
0.0335824
-0.0339201
-1.09927
1.09961
0.0341765
-0.0344526
-0.924286
0.924562
0.0346971
-0.034757
-0.781704
0.781764
0.0341188
-0.0322289
-0.652015
0.650125
0.028845
-0.0233874
-0.49521
0.489752
0.0175276
-0.011261
-0.302451
0.296184
0.00651993
-0.00276473
-0.133372
0.129617
0.00075173
-0.0210667
0.020315
-0.0291558
0.0293722
-0.000216421
0.00076263
-0.000661914
-0.22595
0.225849
9.87414e-05
0.000531423
-0.397796
0.397165
-0.000875784
0.000473497
-0.55437
0.554772
0.00085615
-0.002688
-0.677703
0.679535
0.00519233
-0.00776338
-0.79965
0.802221
0.0107926
-0.0136909
-0.945362
0.94826
0.0169808
-0.0200501
-1.12126
1.12432
0.0234409
-0.0264992
-1.33251
1.33556
0.0297223
-0.0324509
-1.58645
1.58918
0.0346937
-0.0364631
-1.57882
1.58059
0.0376007
-0.038374
-1.31499
1.31577
0.0386803
-0.0387594
-1.10011
1.10019
0.0387851
-0.0388276
-0.924675
0.924718
0.0388806
-0.0385172
-0.781485
0.781121
0.0374591
-0.0349141
-0.648046
0.645501
0.0308648
-0.024747
-0.484058
0.47794
0.0184433
-0.0118376
-0.289799
0.283193
0.00686582
-0.00292124
-0.125793
0.121848
0.000797509
-0.0195482
0.0187507
-0.0296629
0.0300247
-0.000361818
0.00182632
-0.00235572
-0.226078
0.226608
0.00265173
-0.00277091
-0.396905
0.397025
0.00306767
-0.00385048
-0.555602
0.556385
0.0054235
-0.00748761
-0.681677
0.683741
0.0102705
-0.0131231
-0.804794
0.807646
0.0164719
-0.0196613
-0.951078
0.954267
0.0232622
-0.0265979
-1.12735
1.13068
0.0302467
-0.0334927
-1.33859
1.34183
0.036848
-0.0396075
-1.59184
1.5946
0.0417836
-0.0433977
-1.58216
1.58377
0.044352
-0.0449056
-1.31636
1.31692
0.0449836
-0.0447826
-1.10042
1.10022
0.0445571
-0.0443509
-0.92455
0.924344
0.0441764
-0.0433045
-0.780418
0.779546
0.0417376
-0.038416
-0.642769
0.639447
0.0335779
-0.0266549
-0.471534
0.464611
0.019763
-0.0126637
-0.276396
0.269297
0.00734729
-0.00312962
-0.117794
0.113576
0.000855496
-0.0179321
0.0170766
-0.0304604
0.0310009
-0.000540467
0.00311778
-0.00443252
-0.227561
0.228876
0.00562699
-0.0065467
-0.397511
0.398431
0.00758504
-0.00885951
-0.557732
0.559006
0.0107958
-0.0131704
-0.686181
0.688556
0.016315
-0.0195229
-0.810496
0.813704
0.0232721
-0.0268262
-0.957385
0.960939
0.030815
-0.0344807
-1.13399
1.13765
0.038448
-0.0419267
-1.34505
1.34853
0.0454489
-0.0482546
-1.59729
1.6001
0.0503607
-0.0518007
-1.58517
1.58661
0.0525493
-0.0528689
-1.31723
1.31755
0.0526979
-0.0521953
-1.10015
1.09965
0.0517048
-0.051232
-0.923868
0.923395
0.0506946
-0.0493589
-0.778417
0.777082
0.0471054
-0.0428398
-0.635928
0.631662
0.0370456
-0.0291292
-0.457331
0.449414
0.0214784
-0.0137192
-0.261931
0.254172
0.00794575
-0.00337896
-0.109211
0.104644
0.000921852
-0.0161958
0.0152739
-0.0316219
0.0323907
-0.000768779
0.00465891
-0.00686923
-0.23063
0.232841
0.00915024
-0.0109968
-0.399829
0.401676
0.0128897
-0.0147753
-0.561005
0.562891
0.0172136
-0.0199957
-0.691378
0.69416
0.0236167
-0.0272691
-0.816911
0.820563
0.0315136
-0.0355144
-0.964434
0.968435
0.0399741
-0.044036
-1.1413
1.14536
0.0483794
-0.0521241
-1.35199
1.35573
0.0558256
-0.058666
-1.60282
1.60566
0.0606766
-0.0619105
-1.5878
1.58903
0.062421
-0.062484
-1.3175
1.31757
0.0620436
-0.0612079
-1.09926
1.09843
0.0604269
-0.0596739
-0.922576
0.921824
0.0586747
-0.0567684
-0.775518
0.773611
0.053694
-0.0482724
-0.627179
0.621758
0.0413061
-0.0321609
-0.441053
0.431908
0.0235555
-0.0149642
-0.246065
0.237473
0.00862907
-0.00365197
-0.0998983
0.0949212
0.000990918
-0.0143247
0.0133338
-0.0332371
0.0343021
-0.00106508
0.00658743
-0.00989353
-0.235515
0.238821
0.013436
-0.0163564
-0.404132
0.407053
0.0192408
-0.0218657
-0.565709
0.568334
0.0249543
-0.0282833
-0.697481
0.70081
0.032517
-0.0367278
-0.824223
0.828433
0.0415814
-0.0461231
-0.972393
0.976934
0.0511435
-0.055666
-1.14941
1.15393
0.0604313
-0.0644592
-1.35944
1.36347
0.0683316
-0.0711762
-1.6084
1.61124
0.0730443
-0.0740159
-1.58998
1.59096
0.0742271
-0.0739826
-1.31709
1.31684
0.0732573
-0.0720519
-1.09768
1.09648
0.0709618
-0.0699159
-0.920665
0.919619
0.0683553
-0.0657541
-0.771521
0.76892
0.0616454
-0.0547711
-0.616071
0.609196
0.0463489
-0.035689
-0.422212
0.411552
0.0259144
-0.0163244
-0.228457
0.218867
0.00934335
-0.00392148
-0.0897456
0.0843237
0.00105416
-0.0123176
0.0112634
-0.0354334
0.0369118
-0.00147832
0.00912227
-0.013791
-0.242569
0.247238
0.0188349
-0.022998
-0.410786
0.414949
0.027033
-0.0305509
-0.572169
0.575687
0.0344727
-0.0385108
-0.704781
0.70882
0.04353
-0.0484412
-0.832653
0.837564
0.0540372
-0.0592196
-0.981452
0.986635
0.0648819
-0.0699082
-1.15844
1.16347
0.0751062
-0.079392
-1.36744
1.37173
0.0833686
-0.0861258
-1.61393
1.61669
0.0877539
-0.0883682
-1.59158
1.5922
0.0882244
-0.0876195
-1.3159
1.31529
0.0865545
-0.0849654
-1.09534
1.09375
0.0835612
-0.0820539
-0.918053
0.916545
0.0799896
-0.0764259
-0.766102
0.762538
0.0710083
-0.0623017
-0.60199
0.593283
0.0520701
-0.0395635
-0.400227
0.38772
0.0284015
-0.0176756
-0.208789
0.198063
0.0100059
-0.00414898
-0.0787038
0.0728468
0.00110037
-0.0101909
0.0090905
-0.0384174
0.0404817
-0.00206425
0.0126407
-0.0190383
-0.252297
0.258694
0.0258819
-0.031491
-0.420286
0.425895
0.036883
-0.0414948
-0.580778
0.58539
0.0464618
-0.0514223
-0.713628
0.718588
0.057459
-0.0632348
-0.842484
0.848259
0.0697039
-0.0756028
-0.991808
0.997707
0.0819407
-0.087452
-1.16846
1.17397
0.0930072
-0.0974387
-1.37588
1.38031
0.101361
-0.103869
-1.61919
1.6217
0.105103
-0.105224
-1.59238
1.5925
0.104643
-0.103556
-1.31385
1.31276
0.102119
-0.100155
-1.09219
1.09023
0.098414
-0.0963345
-0.914383
0.912303
0.0936977
-0.0888702
-0.758694
0.753867
0.0817405
-0.0706938
-0.584139
0.573092
0.0582165
-0.0435017
-0.374437
0.359723
0.0307611
-0.0188308
-0.18682
0.17489
0.0105008
-0.00428386
-0.066823
0.0606061
0.00111563
-0.00798488
0.00686925
-0.0425148
0.0454918
-0.00297695
0.0177379
-0.0264127
-0.265433
0.274107
0.0354772
-0.0428241
-0.433303
0.44065
0.0498316
-0.0557583
-0.592036
0.597962
0.0620991
-0.0683028
-0.724466
0.73067
0.0755656
-0.0823204
-0.854011
0.860766
0.0897217
-0.0963251
-1.00358
1.01018
0.103252
-0.109108
-1.17937
1.18522
0.114813
-0.119168
-1.38449
1.38885
0.122774
-0.124786
-1.62382
1.62584
0.125404
-0.124834
-1.59208
1.59151
0.123665
-0.121992
-1.31073
1.30906
0.120163
-0.117784
-1.08817
1.08579
0.115618
-0.112969
-0.909419
0.906771
0.109472
-0.102939
-0.748637
0.742104
0.0935581
-0.079539
-0.561465
0.547446
0.0643189
-0.0470502
-0.344162
0.326893
0.0326216
-0.0195437
-0.162482
0.149404
0.0106876
-0.00427011
-0.0542953
0.0478778
0.00108576
-0.00576708
0.00468132
-0.048313
0.0528246
-0.00451164
0.0256219
-0.0373755
-0.283154
0.294908
0.049314
-0.0589938
-0.450901
0.460581
0.0680475
-0.0755659
-0.606524
0.614042
0.0835567
-0.0912775
-0.737728
0.745449
0.0998284
-0.107507
-0.867442
0.87512
0.11568
-0.122758
-1.01666
1.02374
0.12994
-0.13579
-1.19078
1.19663
0.141229
-0.14512
-1.39274
1.39664
0.147985
-0.149141
-1.62727
1.62843
0.148844
-0.147345
-1.59027
1.58877
0.145422
-0.143071
-1.30632
1.30397
0.140781
-0.137954
-1.08313
1.08031
0.135282
-0.131987
-0.903084
0.899788
0.127196
-0.118254
-0.73492
0.725978
0.105864
-0.0881088
-0.532643
0.514888
0.0696371
-0.0495807
-0.308819
0.288762
0.0335207
-0.0195439
-0.13601
0.122033
0.010427
-0.00405705
-0.04149
0.0351201
0.000997818
-0.00362983
0.00263201
-0.0569097
0.0645952
-0.00768548
0.0393848
-0.0556683
-0.307638
0.323921
0.0716622
-0.0845341
-0.47471
0.487581
0.0957531
-0.104749
-0.624736
0.633732
0.114353
-0.12344
-0.753714
0.762801
0.133026
-0.141182
-0.882498
0.890654
0.1495
-0.156421
-1.0304
1.03732
0.163176
-0.168389
-1.20187
1.20709
0.172915
-0.175752
-1.39976
1.40259
0.177316
-0.177143
-1.62875
1.62857
0.175545
-0.172832
-1.58645
1.58374
0.169952
-0.166775
-1.30041
1.29723
0.163925
-0.160597
-1.07695
1.07362
0.157355
-0.153023
-0.894943
0.890611
0.146327
-0.133945
-0.715984
0.703602
0.117488
-0.0951604
-0.496017
0.47369
0.0731713
-0.0504314
-0.268167
0.245427
0.0330788
-0.0186787
-0.108106
0.0937057
0.00966044
-0.0036263
-0.0289581
0.022924
0.000841067
-0.00168044
0.000839378
-0.0717315
0.0760345
-0.00430299
0.030076
-0.0443303
-0.342878
0.357133
0.0586566
-0.0705293
-0.506123
0.517996
0.0812585
-0.0913826
-0.646424
0.656548
0.102841
-0.113481
-0.771264
0.781904
0.125369
-0.13596
-0.897777
0.908368
0.147312
-0.157495
-1.04334
1.05353
0.168295
-0.177716
-1.21126
1.22068
0.187336
-0.195285
-1.40432
1.41227
0.202795
-0.208237
-1.62729
1.63274
0.21162
-0.213591
-1.57999
1.58196
0.214308
-0.214561
-1.29266
1.29291
0.214792
-0.21416
-1.06923
1.0686
0.212654
-0.207968
-0.883808
0.879122
0.197858
-0.178121
-0.689549
0.669813
0.151991
-0.118389
-0.450122
0.41652
0.0874834
-0.0575072
-0.222714
0.192737
0.0361805
-0.0195726
-0.0800692
0.0634613
0.00966931
-0.00340939
-0.0173635
0.0111036
0.000710341
1.52931e-05
-0.000725634
-0.0836376
0.0817012
0.00193639
0.00813802
-0.0174251
-0.37418
0.383467
0.0283551
-0.036997
-0.534608
0.543249
0.0457676
-0.0542181
-0.669452
0.677903
0.0646619
-0.0745342
-0.791983
0.801855
0.0851805
-0.0949258
-0.918332
0.928077
0.105358
-0.114375
-1.06343
1.07245
0.124135
-0.13229
-1.22992
1.23807
0.140605
-0.147247
-1.41994
1.42659
0.153139
-0.157253
-1.63755
1.64166
0.159478
-0.160386
-1.5835
1.58441
0.160005
-0.159155
-1.2921
1.29125
0.158399
-0.157261
-1.06557
1.06444
0.154868
-0.148495
-0.869519
0.863146
0.137165
-0.118226
-0.646015
0.627075
0.0961554
-0.070621
-0.380934
0.355399
0.0495407
-0.0311637
-0.163617
0.14524
0.018962
-0.00998047
-0.0480213
0.0390397
0.00479211
-0.00163848
-0.00508142
0.00192779
0.000310771
0.0016455
-0.00195627
-0.0851761
0.082216
0.00296013
-0.00101973
-0.00434051
-0.395521
0.400881
0.0116333
-0.0180252
-0.555868
0.56226
0.0245525
-0.0318335
-0.68899
0.696271
0.0409192
-0.0494903
-0.810705
0.819276
0.0589453
-0.067442
-0.936977
0.945474
0.0762978
-0.0843441
-1.08129
1.08934
0.0928525
-0.100066
-1.2458
1.25301
0.106988
-0.112373
-1.43261
1.43799
0.117211
-0.120201
-1.64522
1.64821
0.121378
-0.121327
-1.58486
1.58481
0.12023
-0.11878
-1.28973
1.28828
0.117065
-0.11513
-1.06025
1.05832
0.11206
-0.105206
-0.85288
0.846026
0.0944289
-0.0779689
-0.605223
0.588763
0.0607317
-0.0426414
-0.328304
0.310214
0.0292738
-0.0184187
-0.126874
0.116019
0.0113845
-0.00620034
-0.03016
0.0249759
0.00309616
-0.00111541
0.00144449
-0.00342524
0.000231886
0.00247812
-0.00271001
-0.0839056
0.0810214
0.00288418
-0.00504123
0.00235172
-0.409779
0.412468
0.00239945
-0.00724644
-0.571769
0.576616
0.0127305
-0.0188256
-0.705053
0.711149
0.0266217
-0.0339673
-0.827092
0.834438
0.0420279
-0.0492977
-0.953369
0.960639
0.0572656
-0.0640842
-1.09692
1.10373
0.0714749
-0.077276
-1.25978
1.26558
0.0831605
-0.0876266
-1.44313
1.4476
0.0912973
-0.0930661
-1.6508
1.65257
0.0935076
-0.0928194
-1.58426
1.58358
0.0912001
-0.0887964
-1.28625
1.28384
0.0864569
-0.0837231
-1.05367
1.05093
0.0800434
-0.0737223
-0.835194
0.828873
0.0641887
-0.051248
-0.569899
0.556958
0.0388967
-0.0272295
-0.291226
0.279559
0.019135
-0.0127116
-0.104531
0.0981072
0.00839852
-0.00499266
-0.0192072
0.0158013
0.00271663
-0.00108729
0.00585875
-0.00748809
0.000263945
0.00312344
-0.00338739
-0.0823031
0.0797118
0.00259124
-0.00649793
0.00549714
-0.419325
0.420325
-0.00194196
-0.00166739
-0.584493
0.588103
0.00602438
-0.0115076
-0.71852
0.724003
0.0180383
-0.0244554
-0.840976
0.847393
0.0313966
-0.0376731
-0.967397
0.973674
0.0444644
-0.0504544
-1.11037
1.11636
0.0566508
-0.0618195
-1.27119
1.27636
0.0667231
-0.0703118
-1.45162
1.45521
0.0730326
-0.0739528
-1.65413
1.65505
0.0736128
-0.0719871
-1.58214
1.58052
0.0697785
-0.0669013
-1.28108
1.2782
0.0639678
-0.0603683
-1.04602
1.04242
0.0564272
-0.0505931
-0.818444
0.81261
0.0429506
-0.033326
-0.54195
0.532325
0.0250518
-0.0179097
-0.266668
0.259526
0.0131593
-0.00945611
-0.0908346
0.0871314
0.0067859
-0.00440008
-0.0117247
0.00933888
0.00261092
-0.00113748
0.00953145
-0.0110049
0.000312432
0.00379024
-0.00410267
-0.0807355
0.07848
0.00225549
-0.00665514
0.00624723
-0.425803
0.426211
-0.00414595
0.0012387
-0.594272
0.597179
0.00294776
-0.00760883
-0.729866
0.734527
0.0131703
-0.0186841
-0.852921
0.858435
0.0247793
-0.0303177
-0.979539
0.985078
0.0364281
-0.0415859
-1.12201
1.12717
0.0470105
-0.0514877
-1.28115
1.28563
0.0555828
-0.0584314
-1.45842
1.46126
0.0603045
-0.0608267
-1.65576
1.65628
0.059721
-0.0575323
-1.5783
1.57611
0.0546977
-0.0511557
-1.27482
1.27128
0.0478535
-0.0434794
-1.03727
1.03289
0.0391304
-0.0338526
-0.80302
0.797742
0.0276814
-0.020672
-0.52075
0.513741
0.0153401
-0.0112566
-0.251081
0.246998
0.00888773
-0.00701096
-0.0824877
0.080611
0.00545624
-0.00387797
-0.00634156
0.0047633
0.00248597
-0.00118408
0.0127902
-0.0140921
0.000357165
0.0045015
-0.00485867
-0.0794423
0.0776398
0.00180246
-0.00598246
0.00600501
-0.430479
0.430456
-0.00432802
0.00218231
-0.602707
0.604853
0.0016662
-0.00584475
-0.7396
0.743778
0.0110316
-0.0157156
-0.863486
0.86817
0.0209878
-0.0258129
-0.990525
0.99535
0.0314735
-0.0360241
-1.1323
1.13685
0.0406819
-0.0446898
-1.28984
1.29384
0.0485755
-0.050863
-1.464
1.46629
0.0522505
-0.0520803
-1.65624
1.65607
0.0506843
-0.0476368
-1.57351
1.57046
0.0444377
-0.0404626
-1.26722
1.26325
0.0364785
-0.03176
-1.02747
1.02276
0.0270151
-0.0218388
-0.78885
0.783674
0.0168924
-0.0115924
-0.504746
0.499446
0.00817953
-0.00622101
-0.241469
0.239511
0.00525816
-0.00455457
-0.0776921
0.0769886
0.00388249
-0.00302533
-0.00265129
0.00179413
0.00208853
-0.00107961
0.015567
-0.016576
0.000360675
0.00523403
-0.00559471
-0.0786086
0.0771651
0.00144346
-0.00504188
0.00528994
-0.434006
0.433758
-0.00382852
0.00185132
-0.609912
0.611889
0.00172583
-0.00543384
-0.748212
0.75192
0.00980302
-0.0142236
-0.872762
0.877183
0.0189941
-0.0238432
-0.999914
1.00476
0.0285958
-0.0327822
-1.14143
1.14562
0.0373432
-0.0408578
-1.29763
1.30114
0.0439135
-0.0462354
-1.46835
1.47067
0.0472823
-0.0468199
-1.65578
1.65532
0.0449058
-0.0416585
-1.56737
1.56412
0.0380465
-0.033564
-1.2586
1.25411
0.0291872
-0.0239485
-1.01702
1.01178
0.0188668
-0.0138212
-0.775435
0.77039
0.0092286
-0.00515704
-0.492202
0.488131
0.00298292
-0.00208705
-0.235751
0.234855
0.00195401
-0.00208041
-0.0753268
0.0754532
0.00205537
-0.00185038
-0.000570115
0.000365132
0.00142364
-0.000816471
0.0175978
-0.0182049
0.000308293
0.00589668
-0.00620497
-0.0782921
0.0770605
0.00123165
-0.00383363
0.00390106
-0.436989
0.436921
-0.00271173
0.000816917
-0.616376
0.618271
0.00245061
-0.00597646
-0.756089
0.759615
0.0100794
-0.014004
-0.881367
0.885291
0.0187922
-0.022716
-1.00896
1.01288
0.0272944
-0.0311493
-1.1499
1.15376
0.035386
-0.0388662
-1.30454
1.30802
0.041918
-0.043675
-1.47261
1.47437
0.0446013
-0.0440045
-1.6546
1.654
0.0421358
-0.0384925
-1.56051
1.55687
0.034645
-0.0298119
-1.24941
1.24457
0.0251291
-0.0194612
-1.00562
0.999957
0.0142198
-0.00890041
-0.76243
0.757111
0.00465136
-0.00113483
-0.481957
0.478441
-0.000626229
0.000942785
-0.232044
0.231728
-0.000693454
0.000148515
-0.0746306
0.0751756
0.000289468
-0.000640833
0.000127269
0.000224096
0.000681016
-0.000496883
0.018694
-0.0188781
0.00021763
0.00637649
-0.00659412
-0.0782489
0.0773526
0.000896291
-0.00271817
0.00234052
-0.439925
0.440303
-0.0013623
-0.000559125
-0.621984
0.623905
0.00345432
-0.00679489
-0.763304
0.766645
0.0106554
-0.0146424
-0.889058
0.893045
0.0187095
-0.022707
-1.01696
1.02096
0.0271245
-0.0306311
-1.15798
1.16149
0.0347923
-0.0380389
-1.3112
1.31445
0.0408899
-0.0429025
-1.47642
1.47844
0.0439327
-0.0431694
-1.65327
1.6525
0.0410113
-0.0375159
-1.55318
1.54969
0.0336777
-0.0286082
-1.23933
1.23426
0.0236288
-0.0179613
-0.993685
0.988017
0.01217
-0.00677108
-0.749385
0.743986
0.00260519
0.00071296
-0.472859
0.46954
-0.00232432
0.0027392
-0.229324
0.228909
-0.00241273
0.00175717
-0.0748285
0.075484
-0.00108301
0.000406748
-0.000257873
0.000934137
-1.27671e-05
-0.000158515
0.0189221
-0.0187508
0.00011315
0.00663071
-0.00674386
-0.0786158
0.0778969
0.000718917
-0.00175804
0.00143298
-0.442989
0.443314
3.57274e-05
-0.00177934
-0.627577
0.629321
0.00481418
-0.00798439
-0.769904
0.773074
0.0116414
-0.0151644
-0.896677
0.9002
0.0192898
-0.0228904
-1.02491
1.02851
0.0271561
-0.0310075
-1.1654
1.16925
0.0346604
-0.0380895
-1.31766
1.32109
0.0411713
-0.0430443
-1.48023
1.4821
0.0441339
-0.0437869
-1.6518
1.65146
0.0416666
-0.038334
-1.54586
1.54252
0.0342901
-0.0292444
-1.22901
1.22396
0.0243131
-0.0184263
-0.981538
0.975651
0.0127014
-0.00698246
-0.736486
0.730767
0.00269206
0.000744191
-0.463884
0.460448
-0.0025506
0.00324038
-0.226704
0.226014
-0.00320704
0.00265187
-0.0752602
0.0758154
-0.00196823
0.0011617
-0.00128294
0.00208947
-0.000570259
0.00014507
0.0184505
-0.0180254
6.61934e-06
0.00667683
-0.00668345
-0.0792867
0.0787471
0.000539591
-0.000680812
0.000183893
-0.446161
0.446658
0.00112638
-0.00315916
-0.632707
0.63474
0.00610481
-0.00909096
-0.776177
0.779163
0.012802
-0.0161347
-0.903682
0.907015
0.0200453
-0.0237114
-1.03256
1.03622
0.0278084
-0.0315418
-1.17289
1.17663
0.0353151
-0.038657
-1.32436
1.3277
0.0417677
-0.0442246
-1.48416
1.48662
0.0455102
-0.0451711
-1.6509
1.65056
0.0434077
-0.0400272
-1.5389
1.53552
0.0362213
-0.0314129
-1.21868
1.21387
0.0262845
-0.0204026
-0.969207
0.963325
0.0146841
-0.00869101
-0.723555
0.717561
0.00417583
-0.000384526
-0.454932
0.451141
-0.0016819
0.00283213
-0.223614
0.222463
-0.00310932
0.00282682
-0.0754404
0.0757229
-0.00229595
0.00153248
-0.00252732
0.0032908
-0.000888455
0.000337982
0.0175203
-0.0169698
-5.91614e-05
0.00653442
-0.00647526
-0.0802035
0.0797917
0.000411831
0.000195631