/*--------------------------------*- C++ -*----------------------------------*\
  =========                 |
  \\      /  F ield         | OpenFOAM: The Open Source CFD Toolbox
   \\    /   O peration     | Website:  https://openfoam.org
    \\  /    A nd           | Version:  6
     \\/     M anipulation  |
\*---------------------------------------------------------------------------*/
FoamFile
{
    version     2.0;
    format      ascii;
    class       surfaceScalarField;
    location    "62.4";
    object      phi;
}
// * * * * * * * * * * * * * * * * * * * * * * * * * * * * * * * * * * * * * //

dimensions      [0 3 -1 0 0 0 0];

internalField   nonuniform List<scalar> 
17370
(
-0.090001
0.0898505
0.289161
-0.0714646
0.0537552
0.364485
-0.0381225
0.0276938
0.426597
-0.0196425
0.0146099
0.504284
-0.0107689
0.00827976
0.601891
-0.00628184
0.00490694
0.720432
-0.00374435
0.00290438
0.863746
-0.00216287
0.00160326
1.03601
-0.00108582
0.000672498
1.24292
-0.00026369
-0.000129063
1.49158
0.000508516
-0.000917796
1.4916
0.00131511
-0.00180554
1.24318
0.00233637
-0.00304593
1.03635
0.00386095
-0.00500411
0.86405
0.0063687
-0.00836037
0.721049
0.0108449
-0.0146804
0.60305
0.0197076
-0.0277526
0.507484
0.0381753
-0.0538001
0.431793
0.0715015
-0.0898751
0.365149
0.0900156
0.198995
-0.128134
0.0882221
0.0399119
-0.364596
0.353373
-0.0746782
0.0859011
-0.446475
0.454317
-0.0844004
0.0765581
-0.521189
0.529898
-0.0684624
0.0597531
-0.612787
0.621564
-0.0515663
0.0427896
-0.726893
0.734159
-0.0353319
0.0280661
-0.867473
0.872587
-0.0224682
0.0173551
-1.03847
1.04192
-0.0135468
0.010098
-1.2446
1.24703
-0.0074877
0.00505516
-1.49262
1.4946
-0.00310824
0.00113119
-1.4925
1.49423
0.000548393
-0.00227428
-1.24398
1.24586
0.00417772
-0.00606215
-1.03751
1.04004
0.00842028
-0.0109536
-0.866102
0.869833
0.0143125
-0.0180428
-0.724393
0.729936
0.0230818
-0.0286243
-0.6087
0.616114
0.0358392
-0.0432541
-0.514898
0.523044
0.0519851
-0.0601307
-0.439857
0.447917
0.0687959
-0.0768561
-0.375297
0.376743
0.0846571
-0.0861026
-0.257332
0.222482
0.0748153
-0.0399653
-0.068513
0.0586851
0.00982799
-0.0518241
0.0584112
-0.374121
0.367534
-0.0574986
0.0537489
-0.45359
0.45734
-0.0486613
0.0447117
-0.527942
0.531892
-0.0408758
0.0372409
-0.621559
0.625194
-0.0331438
0.0290718
-0.735344
0.739416
-0.0245048
0.0203476
-0.874334
0.878492
-0.0160034
0.0123107
-1.04348
1.04718
-0.00857442
0.00540182
-1.24856
1.25173
-0.00207301
-0.00100124
-1.49666
1.49973
0.00404993
-0.00731644
-1.49721
1.50047
0.0103977
-0.0140074
-1.25007
1.25368
0.0175714
-0.0217678
-1.04593
1.05013
0.0257954
-0.030234
-0.877769
0.882208
0.0342042
-0.0382032
-0.739907
0.743906
0.0417556
-0.0455053
-0.62678
0.63053
0.0493803
-0.0543965
-0.534815
0.539831
0.0580691
-0.0588842
-0.457479
0.458294
0.0521832
-0.0319853
-0.335759
0.315561
0.00988661
-0.0683513
0.0584647
-0.0529326
0.0489351
0.00399741
-0.0331748
0.0437256
-0.358096
0.347545
-0.0474285
0.0468044
-0.459276
0.4599
-0.0437516
0.0404018
-0.535792
0.539142
-0.0366334
0.0333338
-0.628518
0.631817
-0.0299009
0.0268732
-0.742636
0.745664
-0.0236184
0.0205149
-0.882006
0.885109
-0.0169877
0.0136108
-1.05076
1.05414
-0.00981973
0.00628242
-1.25516
1.2587
-0.00231418
-0.00148273
-1.50324
1.50704
0.00524826
-0.00912277
-1.50414
1.50801
0.0125329
-0.0161496
-1.25743
1.26104
0.0193471
-0.0226665
-1.05393
1.05725
0.0255853
-0.0286545
-0.885706
0.888775
0.0315328
-0.0348205
-0.747171
0.750458
0.0379989
-0.0416429
-0.634318
0.637962
0.0448854
-0.0478157
-0.544144
0.547074
0.0483111
-0.0444269
-0.456584
0.4527
0.03366
-0.0162156
-0.296201
0.278757
0.00407006
-0.0526469
0.0485768
-0.0458555
0.0433581
0.00249745
-0.0228209
0.0332068
-0.33685
0.326464
-0.0390348
0.0400563
-0.459581
0.45856
-0.0388708
0.036588
-0.541859
0.544142
-0.0339259
0.0313355
-0.634865
0.637456
-0.0282788
0.0253852
-0.748705
0.751599
-0.0221263
0.0191373
-0.888057
0.891046
-0.0158367
0.0127407
-1.05726
1.06036
-0.0092178
0.00581132
-1.26215
1.26556
-0.00184993
-0.00203337
-1.51092
1.5148
0.00587491
-0.00971145
-1.51191
1.51575
0.0129502
-0.0162453
-1.26448
1.26778
0.0191073
-0.0221361
-1.06035
1.06338
0.0248805
-0.0278902
-0.891836
0.894846
0.0305799
-0.0334364
-0.753671
0.756527
0.0358604
-0.0383545
-0.641033
0.643527
0.0404921
-0.041487
-0.548882
0.549877
0.0402663
-0.0341474
-0.447424
0.441305
0.0234439
-0.0102308
-0.263543
0.25033
0.00258712
-0.0454159
0.0428287
-0.041281
0.0395118
0.00176922
-0.0167623
0.0260219
-0.316604
0.307344
-0.032636
0.0347821
-0.456955
0.454809
-0.0343667
0.0327012
-0.546116
0.547781
-0.0305265
0.0284373
-0.639757
0.641846
-0.0260128
0.0236213
-0.754237
0.756629
-0.020769
0.0179856
-0.893934
0.896717
-0.014756
0.011693
-1.0634
1.06646
-0.00820877
0.00488713
-1.26887
1.27219
-0.00105667
-0.00267576
-1.51859
1.52232
0.0063549
-0.0100268
-1.51948
1.52315
0.0131353
-0.0163305
-1.27102
1.27422
0.019096
-0.0219782
-1.06641
1.06929
0.0244475
-0.0269785
-0.897671
0.900202
0.0291068
-0.031273
-0.758984
0.76115
0.0331492
-0.0351073
-0.645685
0.647643
0.0365618
-0.0367181
-0.550399
0.550555
0.0342662
-0.0272265
-0.434645
0.427606
0.0175394
-0.00740095
-0.238805
0.228666
0.00187871
-0.0406522
0.0387735
-0.0379875
0.0366561
0.00133147
-0.0128025
0.0207568
-0.298743
0.290789
-0.0275165
0.0304462
-0.452242
0.449313
-0.0306569
0.0295428
-0.549208
0.550322
-0.0275549
0.0256444
-0.643877
0.645787
-0.0234518
0.021322
-0.758861
0.760991
-0.0188152
0.0163385
-0.899282
0.901759
-0.013402
0.0105266
-1.06939
1.07226
-0.00716798
0.00392947
-1.27544
1.27868
-0.000184456
-0.00344305
-1.52597
1.52959
0.00700387
-0.0105499
-1.52675
1.5303
0.0135209
-0.0165165
-1.27735
1.28034
0.0190181
-0.0215186
-1.07203
1.07453
0.0236009
-0.025705
-0.902502
0.904606
0.0275038
-0.0293697
-0.763141
0.765007
0.0310124
-0.032739
-0.649467
0.651193
0.0335449
-0.0329716
-0.550352
0.549778
0.0296045
-0.0222624
-0.420359
0.413017
0.013759
-0.00573583
-0.219688
0.211664
0.00146467
-0.0371281
0.0356634
-0.0354929
0.0344662
0.00102666
-0.0100064
0.0167297
-0.283476
0.276753
-0.0232224
0.0266035
-0.446139
0.442758
-0.0273922
0.026698
-0.55122
0.551915
-0.0249456
0.0231673
-0.647676
0.649454
-0.021104
0.0190937
-0.763054
0.765064
-0.0167284
0.0144065
-0.904087
0.906409
-0.0116735
0.00899372
-1.07497
1.07765
-0.00584074
0.00275839
-1.2818
1.28488
0.00085181
-0.00436622
-1.53314
1.53666
0.00779825
-0.0111623
-1.53375
1.53711
0.0139152
-0.0166229
-1.2832
1.28591
0.0188444
-0.0210405
-1.0769
1.0791
0.022874
-0.0247378
-0.906599
0.908463
0.0263344
-0.0279893
-0.766762
0.768417
0.0294337
-0.0308245
-0.652773
0.654164
0.0311363
-0.0298324
-0.548855
0.547551
0.0258492
-0.0185906
-0.405693
0.398434
0.0111779
-0.00463143
-0.20445
0.197904
0.00118853
-0.0343532
0.0331646
-0.0335648
0.0327646
0.000800213
-0.00793374
0.0135844
-0.270596
0.264946
-0.0195917
0.0231695
-0.43927
0.435693
-0.0244347
0.0239875
-0.552522
0.552969
-0.0225002
0.0208299
-0.65123
0.6529
-0.0188599
0.0169353
-0.767025
0.76895
-0.0146638
0.012432
-0.908617
0.910849
-0.00980452
0.00723576
-1.08019
1.08276
-0.00422451
0.00128717
-1.28784
1.29077
0.00214679
-0.00548096
-1.54006
1.54339
0.0087142
-0.0118466
-1.54034
1.54348
0.01438
-0.0168446
-1.2885
1.29097
0.0188501
-0.020817
-1.08123
1.0832
0.0224486
-0.0241058
-0.910247
0.911904
0.0255246
-0.0269943
-0.769973
0.771442
0.0282497
-0.0292677
-0.65535
0.656368
0.0292073
-0.0272397
-0.545919
0.543952
0.0228589
-0.0158705
-0.391308
0.384319
0.00936447
-0.00386655
-0.191932
0.186434
0.000996803
-0.0320845
0.0310876
-0.0320621
0.0314375
0.000624599
-0.00633419
0.0110691
-0.259782
0.255047
-0.0164862
0.0200647
-0.432116
0.428538
-0.0216549
0.0214364
-0.553342
0.55356
-0.0201848
0.0185748
-0.654588
0.656198
-0.0166633
0.0147899
-0.770836
0.772709
-0.012578
0.0104042
-0.912973
0.915147
-0.00784526
0.00534854
-1.08522
1.08772
-0.00243155
-0.000397908
-1.2936
1.29643
0.00368085
-0.00684101
-1.5466
1.54976
0.00987796
-0.0127934
-1.54648
1.54939
0.0151324
-0.0173881
-1.29334
1.29559
0.0192027
-0.0209574
-1.08514
1.08689
0.022396
-0.0238534
-0.913483
0.91494
0.0251039
-0.0263962
-0.772814
0.774106
0.0275054
-0.028105
-0.657168
0.657768
0.0276745
-0.0251466
-0.541719
0.539192
0.0205227
-0.0138693
-0.377509
0.370856
0.00807958
-0.00333184
-0.18135
0.176603
0.000863463
-0.030168
0.0293046
-0.0308929
0.0304106
0.000482308
-0.00504674
0.00899244
-0.250735
0.246789
-0.0137759
0.0172066
-0.425045
0.421614
-0.0189807
0.0189531
-0.55373
0.553757
-0.017894
0.0163179
-0.657856
0.659432
-0.0144261
0.0125657
-0.774558
0.776419
-0.0103726
0.0082262
-0.917217
0.919363
-0.00571023
0.00326423
-1.0901
1.09254
-0.000417338
-0.00232805
-1.29915
1.3019
0.00548612
-0.00849271
-1.5528
1.55581
0.0113497
-0.0140606
-1.55218
1.55489
0.0162097
-0.0182543
-1.29775
1.29979
0.0198729
-0.0214126
-1.08862
1.09016
0.0226653
-0.0239424
-0.916336
0.917613
0.0250492
-0.0261908
-0.775312
0.776454
0.0271081
-0.0273444
-0.658178
0.658415
0.0265163
-0.0235161
-0.536445
0.533445
0.0187479
-0.0124208
-0.364385
0.358058
0.00717732
-0.00296288
-0.172154
0.16794
0.000772911
-0.0284963
0.0277234
-0.0299966
0.0296346
0.000362008
-0.00396849
0.00722128
-0.243216
0.239963
-0.0113605
0.0145353
-0.41833
0.415155
-0.0163698
0.0165002
-0.553761
0.553631
-0.0155217
0.0140204
-0.661044
0.662545
-0.012125
0.0102502
-0.778263
0.780138
-0.00804101
0.00588483
-0.92141
0.923567
-0.00336789
0.000935207
-1.09489
1.09732
0.00187521
-0.0045626
-1.30454
1.30723
0.0076253
-0.0105074
-1.55871
1.56159
0.0132086
-0.0157314
-1.55748
1.56001
0.0177008
-0.019545
-1.30174
1.30359
0.0209798
-0.0223156
-1.0917
1.09304
0.023389
-0.0244873
-0.918829
0.919927
0.0254441
-0.0264113
-0.777499
0.778467
0.0270721
-0.0270169
-0.658523
0.658467
0.0257575
-0.0223387
-0.53025
0.526831
0.0174703
-0.0114146
-0.351893
0.345837
0.00656809
-0.00272041
-0.163939
0.160091
0.000715493
-0.0269891
0.0262736
-0.0293338
0.0290791
0.000254668
-0.00302343
0.00565098
-0.237048
0.23442
-0.00914635
0.011982
-0.412175
0.409339
-0.0137621
0.0139763
-0.553521
0.553307
-0.0130445
0.0115875
-0.664102
0.665559
-0.00966578
0.00774428
-0.782002
0.783923
-0.00547979
0.00328018
-0.925629
0.927828
-0.000729667
-0.00171767
-1.09965
1.1021
0.00452489
-0.00718751
-1.30983
1.31249
0.0101909
-0.0129774
-1.56438
1.56716
0.0155441
-0.0178909
-1.56241
1.56476
0.0196796
-0.0213132
-1.30532
1.30696
0.0225514
-0.0236691
-1.0944
1.09551
0.0245548
-0.0254773
-0.920973
0.921895
0.0262939
-0.0270967
-0.779329
0.780132
0.0274699
-0.0271369
-0.658268
0.657935
0.0254326
-0.0216094
-0.52323
0.519407
0.016642
-0.0107752
-0.339912
0.334046
0.00619309
-0.00257819
-0.15639
0.152775
0.000684331
-0.0255842
0.0248999
-0.0288826
0.0287299
0.000152692
-0.00214833
0.00418933
-0.23211
0.230069
-0.00703725
0.00946546
-0.406737
0.404309
-0.0110845
0.0113016
-0.553168
0.552951
-0.0103764
0.00891855
-0.667111
0.668569
-0.00693661
0.00493936
-0.785838
0.787835
-0.00258945
0.000317113
-0.92993
0.932202
0.00230528
-0.00480641
-1.10445
1.10695
0.00765091
-0.0103169
-1.31507
1.31773
0.0132784
-0.0159747
-1.56985
1.57254
0.0184075
-0.0205824
-1.56698
1.56915
0.0222018
-0.0236411
-1.30849
1.30993
0.0246879
-0.0255816
-1.09668
1.09757
0.0262637
-0.0269873
-0.922756
0.923479
0.0276508
-0.0283118
-0.780815
0.781476
0.0283755
-0.0276681
-0.657386
0.656679
0.0255202
-0.0212982
-0.51543
0.511208
0.016208
-0.0104387
-0.328272
0.322502
0.00600643
-0.00251593
-0.149253
0.145763
0.000674151
-0.0242318
0.0235576
-0.0286351
0.0285858
4.92903e-05
-0.00129435
0.0027631
-0.228336
0.226867
-0.00494914
0.00690672
-0.402149
0.400191
-0.00826497
0.00841075
-0.552862
0.552716
-0.00745752
0.00597398
-0.670149
0.671633
-0.00390408
0.00180207
-0.789824
0.791926
0.000676191
-0.00306598
-0.934383
0.936773
0.0058082
-0.00840229
-1.10937
1.11197
0.0113232
-0.0140286
-1.32032
1.32303
0.0169894
-0.0196309
-1.57515
1.57779
0.0219518
-0.0239575
-1.5712
1.5732
0.025399
-0.0266305
-1.31125
1.31248
0.0274772
-0.0281364
-1.09855
1.09921
0.0286112
-0.0291274
-0.924146
0.924663
0.0296244
-0.030068
-0.781931
0.782375
0.0298497
-0.0286943
-0.655739
0.654584
0.0260665
-0.0214166
-0.506842
0.502192
0.0161509
-0.0103745
-0.316783
0.311007
0.00598453
-0.00252316
-0.14232
0.138859
0.000682244
-0.0228916
0.0222094
-0.0285942
0.028655
-6.07931e-05
-0.00041307
0.00130397
-0.225708
0.224817
-0.00280178
0.0042233
-0.398537
0.397115
-0.00521431
0.00519597
-0.552765
0.552784
-0.00414671
0.00257101
-0.673288
0.674864
-0.000371179
-0.00187866
-0.794023
0.796272
0.00452682
-0.00706609
-0.939068
0.941607
0.0099615
-0.0126818
-1.11448
1.1172
0.015718
-0.0184953
-1.32567
1.32845
0.0214801
-0.0240776
-1.58035
1.58295
0.0262897
-0.0281251
-1.57508
1.57692
0.0293818
-0.0303933
-1.31357
1.31458
0.0310233
-0.0314371
-1.09996
1.10037
0.0316897
-0.0319812
-0.92512
0.925411
0.0322884
-0.0324584
-0.782508
0.782678
0.031956
-0.0302595
-0.65321
0.651513
0.0271114
-0.0219838
-0.497404
0.492276
0.0164662
-0.0105673
-0.305232
0.299334
0.00611486
-0.00259411
-0.135404
0.131883
0.000707077
-0.0215279
0.0208208
-0.0287735
0.028951
-0.000177401
0.000514098
-0.000239131
-0.224251
0.223976
-0.000521964
0.00133188
-0.39603
0.39522
-0.00185119
0.0015818
-0.553071
0.553341
-0.000371272
-0.00135394
-0.676668
0.678393
0.00373206
-0.00617408
-0.79852
0.800962
0.00904597
-0.0117902
-0.944055
0.946799
0.0149027
-0.0178029
-1.11985
1.12275
0.0210019
-0.0238824
-1.33116
1.33404
0.0269153
-0.0294807
-1.58545
1.58802
0.0315845
-0.0332369
-1.57861
1.58026
0.0342956
-0.0350694
-1.31542
1.3162
0.0354761
-0.0356339
-1.10088
1.10104
0.0356507
-0.0357017
-0.925628
0.925679
0.0358142
-0.0356203
-0.782465
0.782271
0.0347393
-0.0324375
-0.64964
0.647338
0.0286977
-0.0230106
-0.486997
0.48131
0.0171448
-0.0110008
-0.293384
0.28724
0.00638392
-0.00272169
-0.12833
0.124668
0.000746339
-0.0201082
0.0193619
-0.0292095
0.0295308
-0.000321269
0.00152703
-0.00189468
-0.224053
0.22442
0.00197479
-0.00188007
-0.394764
0.394669
0.00196606
-0.00259215
-0.553973
0.554599
0.00402193
-0.00594396
-0.680392
0.682314
0.00855985
-0.0112491
-0.803399
0.806088
0.014407
-0.017411
-0.949458
0.952462
0.0207956
-0.0239224
-1.12558
1.12871
0.0273341
-0.0303623
-1.33686
1.33989
0.0334864
-0.0360482
-1.5905
1.59306
0.0380547
-0.0395169
-1.58176
1.58322
0.0403605
-0.0408622
-1.31677
1.31727
0.0410107
-0.0408827
-1.10126
1.10113
0.0406402
-0.0404296
-0.92562
0.92541
0.040332
-0.0396654
-0.781637
0.780971
0.0383202
-0.0353192
-0.64489
0.641889
0.0308925
-0.0245327
-0.475447
0.469087
0.0181985
-0.0116731
-0.280988
0.274463
0.00678699
-0.00290276
-0.120937
0.117053
0.000798904
-0.0186043
0.0178054
-0.0299234
0.0304186
-0.000495258
0.00279653
-0.00391269
-0.225183
0.226299
0.00485426
-0.00555646
-0.394941
0.395643
0.00637242
-0.0074678
-0.555721
0.556816
0.00923111
-0.0114381
-0.684587
0.686794
0.0143864
-0.0173974
-0.808773
0.811784
0.0209107
-0.0242316
-0.95538
0.958701
0.0279477
-0.0313517
-1.13178
1.13518
0.0350219
-0.0382224
-1.34286
1.34606
0.0414382
-0.0439706
-1.59552
1.59806
0.0458383
-0.047069
-1.5845
1.58573
0.0476539
-0.0478936
-1.31753
1.31777
0.0477809
-0.0473425
-1.10102
1.10058
0.0468135
-0.0463205
-0.925031
0.924538
0.0458854
-0.044772
-0.779882
0.778769
0.0428267
-0.0389975
-0.638756
0.634927
0.0337546
-0.0265713
-0.46251
0.455327
0.0196259
-0.0125731
-0.267767
0.260714
0.00731304
-0.0031307
-0.113065
0.108882
0.000862483
-0.0169906
0.0161281
-0.0309891
0.0317025
-0.000713399
0.00428074
-0.00627482
-0.22784
0.229834
0.00829316
-0.00989607
-0.396785
0.398387
0.0115351
-0.0132113
-0.558574
0.560251
0.0154392
-0.0180204
-0.689428
0.692009
0.0213935
-0.0248089
-0.814793
0.818208
0.0287717
-0.0324964
-0.961951
0.965676
0.0366332
-0.0403816
-1.13854
1.14229
0.0443625
-0.0477642
-1.3492
1.35261
0.051085
-0.0535826
-1.60048
1.60297
0.0552838
-0.0562317
-1.58676
1.58771
0.056505
-0.0564193
-1.31767
1.31758
0.0559986
-0.0552133
-1.1001
1.09932
0.0543688
-0.0535495
-0.923802
0.922983
0.0527056
-0.0510705
-0.777254
0.775619
0.048391
-0.0435664
-0.630969
0.626144
0.0373382
-0.0291431
-0.447875
0.43968
0.0214205
-0.0136835
-0.253426
0.245689
0.00794513
-0.00339513
-0.104565
0.100015
0.0009332
-0.015247
0.0143138
-0.0324879
0.0334913
-0.00100343
0.00617033
-0.00922139
-0.232278
0.23533
0.0124828
-0.0151459
-0.400557
0.40322
0.0177573
-0.0201477
-0.562792
0.565182
0.022982
-0.0260605
-0.695095
0.698173
0.0299896
-0.0339062
-0.82163
0.825546
0.0384191
-0.042628
-0.969344
0.973552
0.047256
-0.0513959
-1.146
1.15014
0.0557205
-0.0593341
-1.35594
1.35955
0.0627463
-0.06517
-1.60533
1.60776
0.0666506
-0.0672512
-1.58842
1.58902
0.0671505
-0.0666573
-1.31703
1.31654
0.0658832
-0.0647023
-1.09842
1.09724
0.0635021
-0.0623609
-0.921855
0.920714
0.0609815
-0.0587306
-0.773584
0.771333
0.0551543
-0.0491034
-0.621184
0.615133
0.0416691
-0.0322305
-0.431155
0.421717
0.0235448
-0.0149639
-0.237653
0.229072
0.00865198
-0.00367941
-0.0953045
0.0903319
0.00100565
-0.0133614
0.0123557
-0.0345522
0.0359536
-0.00140132
0.00862893
-0.0130339
-0.238823
0.243228
0.017779
-0.0216708
-0.406637
0.410528
0.0254142
-0.0286766
-0.568719
0.571982
0.0323102
-0.0360561
-0.701867
0.705613
0.0407157
-0.0452751
-0.829478
0.834037
0.0504566
-0.0552313
-0.977712
0.982487
0.0604147
-0.0649765
-1.15423
1.1588
0.0696375
-0.0734096
-1.36306
1.36683
0.0768049
-0.0790236
-1.60996
1.61218
0.0801556
-0.0803008
-1.58933
1.58947
0.079767
-0.0787712
-1.31547
1.31447
0.0776023
-0.0760025
-1.09585
1.09425
0.0744443
-0.0728745
-0.919153
0.917583
0.0709568
-0.0678951
-0.768648
0.765586
0.063195
-0.0556324
-0.608927
0.601365
0.0467211
-0.0357686
-0.411885
0.400933
0.0259205
-0.0163438
-0.220136
0.210559
0.00938255
-0.00395758
-0.085187
0.079762
0.00107152
-0.0113343
0.0102628
-0.0373746
0.0393478
-0.00197319
0.0120649
-0.0181787
-0.248002
0.254116
0.024715
-0.0300427
-0.41551
0.420837
0.035118
-0.0394366
-0.576755
0.581074
0.0440774
-0.048691
-0.710101
0.714715
0.0542814
-0.0596295
-0.838608
0.843956
0.0656055
-0.0710246
-0.987225
0.992644
0.0767996
-0.0817616
-1.16328
1.16825
0.0866772
-0.0904947
-1.37042
1.37424
0.093719
-0.0955711
-1.61409
1.61595
0.0961856
-0.0957048
-1.58922
1.58874
0.0946115
-0.0930015
-1.31284
1.31123
0.0913427
-0.0892965
-1.09229
1.09024
0.0873424
-0.0852052
-0.915444
0.913307
0.0827552
-0.0786376
-0.762004
0.757886
0.0725432
-0.0631063
-0.593609
0.584172
0.0523891
-0.0396169
-0.389531
0.376759
0.0284062
-0.0177089
-0.200593
0.189896
0.0100599
-0.00419309
-0.0741726
0.0683057
0.00111981
-0.00918356
0.00806375
-0.0412795
0.0441359
-0.00285643
0.0170644
-0.0254324
-0.260532
0.2689
0.0341806
-0.0412274
-0.427851
0.434898
0.0479159
-0.0535184
-0.587373
0.592975
0.0594412
-0.0651742
-0.720207
0.72594
0.0719277
-0.0781954
-0.849293
0.85556
0.0850271
-0.0910706
-0.998009
1.00405
0.0973367
-0.102548
-1.17305
1.17826
0.107503
-0.111138
-1.37775
1.38138
0.113917
-0.115141
-1.61735
1.61858
0.115005
-0.113693
-1.58776
1.58645
0.111875
-0.109544
-1.30892
1.30659
0.107311
-0.10476
-1.08765
1.0851
0.102385
-0.0995576
-0.910425
0.907598
0.096417
-0.0909431
-0.75312
0.747646
0.0830936
-0.0713397
-0.574461
0.562707
0.0584344
-0.043521
-0.363511
0.348598
0.0307732
-0.0188908
-0.178822
0.16694
0.010578
-0.00433869
-0.0623144
0.0560751
0.00113706
-0.00694971
0.00581265
-0.0468361
0.0511837
-0.00434761
0.024797
-0.0362257
-0.277589
0.289018
0.0478417
-0.0572006
-0.444684
0.454043
0.0659256
-0.0730828
-0.60118
0.608338
0.0805732
-0.0877929
-0.732587
0.739806
0.0957504
-0.102852
-0.861726
0.868828
0.110349
-0.116768
-1.00993
1.01635
0.123181
-0.128286
-1.18313
1.18823
0.132855
-0.135902
-1.38449
1.38754
0.137787
-0.137999
-1.61915
1.61936
0.136788
-0.134383
-1.58449
1.58209
0.131663
-0.128464
-1.30347
1.30027
0.125558
-0.122439
-1.08179
1.07867
0.119552
-0.116015
-0.903917
0.900379
0.111889
-0.104625
-0.741327
0.734063
0.0945176
-0.0799123
-0.550529
0.535924
0.0644204
-0.0470884
-0.333257
0.315925
0.0327035
-0.0196752
-0.15479
0.141761
0.0108088
-0.00433977
-0.0497991
0.0433301
0.00110738
-0.00469865
0.00359127
-0.0551168
0.062525
-0.00740823
0.038232
-0.0541517
-0.301316
0.317236
0.0698284
-0.0824153
-0.467698
0.480285
0.0933272
-0.101872
-0.618649
0.627194
0.110898
-0.119414
-0.747613
0.756128
0.128323
-0.135826
-0.875615
0.883118
0.143384
-0.149568
-1.02232
1.0285
0.155462
-0.159836
-1.19268
1.19705
0.163376
-0.165251
-1.38975
1.39163
0.165683
-0.164398
-1.61865
1.61736
0.161699
-0.15787
-1.57886
1.57503
0.154002
-0.149746
-1.29617
1.29192
0.146088
-0.142374
-1.07452
1.07081
0.138849
-0.134465
-0.89572
0.891336
0.128907
-0.1192
-0.725605
0.715899
0.106133
-0.0880295
-0.520613
0.50251
0.0696517
-0.0498304
-0.298336
0.278514
0.0338807
-0.0199048
-0.128756
0.11478
0.0106723
-0.00416334
-0.0369852
0.0304762
0.00101159
-0.00252061
0.00150901
-0.069412
0.073539
-0.00412705
0.0291162
-0.0430324
-0.335666
0.349582
0.0570235
-0.0686584
-0.498318
0.509953
0.0790072
-0.0886567
-0.639406
0.649055
0.0993944
-0.109392
-0.764099
0.774097
0.120519
-0.130341
-0.889581
0.899403
0.140753
-0.149972
-1.03376
1.04298
0.159581
-0.16777
-1.20034
1.20853
0.175852
-0.1822
-1.39232
1.39866
0.187697
-0.19103
-1.61487
1.6182
0.192181
-0.191741
-1.57016
1.56972
0.190218
-0.187927
-1.28664
1.28435
0.185945
-0.183514
-1.06558
1.06315
0.181124
-0.176762
-0.8851
0.880739
0.168945
-0.154439
-0.704464
0.689958
0.134733
-0.108585
-0.483562
0.457414
0.0834059
-0.0575095
-0.258664
0.232768
0.0378335
-0.0214774
-0.101438
0.0850822
0.0111116
-0.00414475
-0.0244225
0.0174556
0.000934966
-0.000488213
-0.000446753
-0.0809023
0.0789684
0.00193392
0.00764565
-0.0165968
-0.366162
0.375113
0.0271883
-0.0355767
-0.526145
0.534533
0.0439857
-0.0519233
-0.661429
0.669367
0.0616938
-0.0709263
-0.783566
0.792798
0.080821
-0.0898091
-0.908566
0.917554
0.0993155
-0.10738
-1.05188
1.05995
0.115952
-0.122862
-1.21647
1.22338
0.129595
-0.134547
-1.40461
1.40956
0.138249
-0.13999
-1.62064
1.62238
0.139631
-0.137703
-1.5686
1.56667
0.134666
-0.130758
-1.28136
1.27746
0.12719
-0.123293
-1.05853
1.05463
0.11941
-0.11394
-0.871662
0.866191
0.105604
-0.0926526
-0.671675
0.658724
0.0774037
-0.0591983
-0.429764
0.411559
0.0433151
-0.028707
-0.207306
0.192698
0.0184055
-0.0103085
-0.0697268
0.0616297
0.0053034
-0.00198548
-0.0107114
0.00739352
0.000443054
0.00162821
-0.00207126
-0.0823091
0.0794296
0.00287951
-0.0012382
-0.00383978
-0.38681
0.391888
0.0108408
-0.0169337
-0.546748
0.552841
0.0231126
-0.0299754
-0.679927
0.686789
0.03844
-0.0464271
-0.8011
0.809087
0.0551967
-0.0629945
-0.925693
0.933491
0.0709816
-0.0781172
-1.06781
1.07494
0.0854762
-0.0914706
-1.22981
1.2358
0.0968285
-0.100519
-1.41379
1.41748
0.103131
-0.103645
-1.62336
1.62388
0.102046
-0.0988629
-1.56404
1.56086
0.0948142
-0.0900142
-1.27313
1.26833
0.0851979
-0.0800656
-1.04877
1.04364
0.0750617
-0.0688539
-0.856389
0.850181
0.0613008
-0.0507227
-0.642774
0.632195
0.0398061
-0.0281702
-0.391906
0.38027
0.019444
-0.0124175
-0.177743
0.170717
0.00793551
-0.00465438
-0.05351
0.0502288
0.00253735
-0.00104366
-0.00388093
0.00238724
0.00026248
0.00275503
-0.00301751
-0.0810723
0.0782717
0.00280063
-0.00504041
0.00253956
-0.400472
0.402973
0.00197051
-0.0065368
-0.561999
0.566566
0.0117225
-0.0174629
-0.69511
0.700851
0.0247035
-0.0315314
-0.816405
0.823233
0.0389849
-0.0456349
-0.940689
0.947339
0.0528267
-0.0588325
-1.08161
1.08761
0.0651833
-0.0698733
-1.24134
1.24603
0.074304
-0.0771708
-1.42087
1.42374
0.0787029
-0.0780441
-1.62386
1.6232
0.0757123
-0.0718304
-1.55701
1.55313
0.0671568
-0.0612927
-1.26305
1.25718
0.055777
-0.0497541
-1.03696
1.03094
0.0438304
-0.0374206
-0.840087
0.833677
0.0304879
-0.0223836
-0.618735
0.61063
0.0152087
-0.00907522
-0.367633
0.3615
0.00546819
-0.00325249
-0.162811
0.160595
0.00206382
-0.00139184
-0.0461787
0.0455067
0.000864544
-0.000430402
-0.000430534
-3.60772e-06
0.000122284
0.00350679
-0.00362908
-0.079545
0.0770681
0.00247689
-0.00628429
0.00538221
-0.409592
0.410494
-0.00201674
-0.00135698
-0.574161
0.577535
0.00547742
-0.0106584
-0.707842
0.713023
0.0167249
-0.0227093
-0.829342
0.835326
0.0291434
-0.0349007
-0.953494
0.959252
0.0410404
-0.0463386
-1.09345
1.09875
0.0516449
-0.0558475
-1.25053
1.25473
0.05948
-0.0616518
-1.42616
1.42833
0.0624537
-0.0611747
-1.62228
1.621
0.0582917
-0.0536891
-1.54846
1.54386
0.0485791
-0.0423782
-1.25107
1.24487
0.0364105
-0.0297009
-1.02375
1.01704
0.0234732
-0.0168408
-0.824065
0.817433
0.0109356
-0.00473192
-0.600131
0.593928
0.000320027
0.00227505
-0.353405
0.35081
-0.00296509
0.00261038
-0.156637
0.156992
-0.00187385
0.00102868
-0.0440964
0.0449416
-0.000476508
0.000101531
0.000823165
-0.000448188
-2.45291e-06
0.00393935
-0.0039369
-0.0781185
0.0759997
0.00211883
-0.00624807
0.00586023
-0.415819
0.416207
-0.00386427
0.00113658
-0.583509
0.586236
0.00287425
-0.00729786
-0.718589
0.723013
0.0124862
-0.0176557
-0.840503
0.845672
0.0233477
-0.028474
-0.964624
0.96975
0.0340646
-0.0386726
-1.10374
1.10835
0.0433855
-0.0470858
-1.25861
1.26231
0.0501506
-0.0518381
-1.43016
1.43185
0.052122
-0.0507889
-1.61954
1.61821
0.0475052
-0.0427125
-1.53871
1.53392
0.0373207
-0.0308554
-1.23834
1.23187
0.0248933
-0.0178149
-1.00959
1.00251
0.0113708
-0.00485616
-0.808541
0.802027
-0.000429434
0.00525621
-0.585388
0.580561
-0.00810788
0.00898519
-0.345432
0.344554
-0.00803176
0.0063578
-0.155685
0.157359
-0.00470813
0.00290615
-0.0452351
0.0470371
-0.0015916
0.000588476
0.000293942
0.00070918
-0.000132427
0.00401895
-0.00388653
-0.0770243
0.07537
0.00165437
-0.00541194
0.00536494
-0.420415
0.420462
-0.00372685
0.00169173
-0.591644
0.59368
0.00205053
-0.00605495
-0.727864
0.731868
0.0109546
-0.0153854
-0.850449
0.85488
0.0203633
-0.024889
-0.974815
0.979341
0.0301662
-0.0343153
-1.11297
1.11711
0.0384526
-0.0418842
-1.26579
1.26922
0.0449928
-0.0464064
-1.4335
1.43492
0.0465817
-0.0449702
-1.6164
1.61479
0.0418414
-0.0367348
-1.52884
1.52374
0.0315085
-0.0252242
-1.22517
1.21889
0.0191665
-0.0123618
-0.995096
0.988291
0.00598859
0.000555714
-0.793669
0.787124
-0.00528454
0.00944732
-0.573094
0.568932
-0.0117359
0.0118918
-0.340688
0.340532
-0.0105304
0.00846288
-0.157361
0.159429
-0.00639098
0.00410007
-0.0483248
0.0506157
-0.00234948
0.000949008
-0.00153012
0.00293059
-0.00023793
0.00377952
-0.00354159
-0.0764329
0.0751402
0.00129271
-0.00434234
0.00443345
-0.424041
0.42395
-0.0029395
0.00101292
-0.598691
0.600618
0.00252092
-0.00611773
-0.736154
0.739751
0.0102932
-0.0145414
-0.859279
0.863527
0.0191168
-0.023761
-0.983641
0.988285
0.0282664
-0.0321887
-1.12134
1.12527
0.0364025
-0.039541
-1.2725
1.27564
0.0420937
-0.043829
-1.4362
1.43793
0.0440553
-0.0426031
-1.61319
1.61174
0.0394987
-0.0348288
-1.5188
1.51413
0.0298198
-0.0237409
-1.21227
1.20619
0.017945
-0.0113354
-0.981089
0.974479
0.00520766
0.000974428
-0.779417
0.773235
-0.00588621
0.00959734
-0.562084
0.558373
-0.0116196
0.0120724
-0.337454
0.337001
-0.0110129
0.00892504
-0.159848
0.161936
-0.00687391
0.0045313
-0.0521903
0.0545329
-0.00267935
0.00113555
-0.00407119
0.00561499
-0.000303691
0.003326
-0.00302231
-0.0763836
0.0753072
0.00107643
-0.00304414
0.00289405
-0.427283
0.427433
-0.00160669
-0.000302255
-0.605136
0.607045
0.00357855
-0.00705364
-0.743838
0.747313
0.0110462
-0.014876
-0.867591
0.871421
0.0195495
-0.0233691
-0.992314
0.996134
0.0278152
-0.0315358
-1.12933
1.13305
0.0355954
-0.0388821
-1.27872
1.28201
0.0416758
-0.043135
-1.43939
1.44085
0.0436191
-0.0424821
-1.61018
1.60904
0.0399581
-0.0355168
-1.50934
1.5049
0.0308459
-0.0250772
-1.20021
1.19444
0.0196158
-0.013292
-0.967494
0.96117
0.00757851
-0.00149722
-0.765956
0.759875
-0.00336707
0.00709998
-0.551925
0.548192
-0.00920816
0.00991452
-0.334095
0.333389
-0.00948823
0.00799872
-0.162002
0.163491
-0.00634832
0.00430752
-0.0560248
0.0580656
-0.0026219
0.00116276
-0.00679688
0.00825602
-0.000332235
0.00275549
-0.00242326
-0.0766329
0.0758776
0.000755319
-0.0018836
0.00125004
-0.43061
0.431244
-0.000139009
-0.00188416
-0.610841
0.612864
0.00484097
-0.00818567
-0.750983
0.754327
0.0120078
-0.0159595
-0.875136
0.879088
0.0199957
-0.023964
-1.00014
1.00411
0.0283525
-0.031842
-1.13717
1.14066
0.0359738
-0.0391939
-1.28507
1.28829
0.042008
-0.0439645
-1.4427
1.44466
0.0448991
-0.0440119
-1.60793
1.60704
0.0416702
-0.037884
-1.50063
1.49684
0.0337071
-0.028287
-1.18857
1.18315
0.0231097
-0.0174121
-0.954706
0.949008
0.0116972
-0.00604367
-0.752953
0.7473
0.00125229
0.00282042
-0.542122
0.538049
-0.00507869
0.00630381
-0.33016
0.328935
-0.0064829
0.00584725
-0.163206
0.163842
-0.0047952
0.00337912
-0.0590963
0.0605124
-0.00213668
0.000987619
-0.00923524
0.0103843
-0.000295844
0.00216633
-0.00187048
-0.0773042
0.0767123
0.000591932
-0.000899396
0.000297899
-0.434167
0.434769
0.00135642
-0.00324287
-0.61664
0.618526
0.0063781
-0.00960035
-0.757621
0.760843
0.0132808
-0.0168277
-0.882724
0.886271
0.0209826
-0.0246263
-1.00806
1.0117
0.0289512
-0.0328728
-1.14459
1.14851
0.0366313
-0.0401698
-1.29154
1.29508
0.0433974
-0.0454328
-1.44649
1.44852
0.0467292
-0.0465925
-1.60636
1.60622
0.044659
-0.0414524
-1.4929
1.4897
0.0375021
-0.0326179
-1.17783
1.17295
0.0279622
-0.0225432
-0.942888
0.937469
0.0173021
-0.0117969
-0.740693
0.735188
0.00702076
-0.00254053
-0.532054
0.527574
-0.000285341
0.00207467
-0.325324
0.323535
-0.00298913
0.00310401
-0.162941
0.162826
-0.00276119
0.00207843
-0.060889
0.0615718
-0.00139124
0.000686259
-0.0110051
0.0117101
-0.000221916
0.0016698
-0.00144788
-0.0782637
0.0778518
0.000411829
0.000177793
-0.000973851
-0.437893
0.438689
0.00250692
-0.00470765
-0.622057
0.624257
0.00778272
-0.0108579
-0.764022
0.767097
0.0146375
-0.0180384
-0.889805
0.893205
0.0220328
-0.0257953
-1.01581
1.01957
0.0300255
-0.0339088
-1.15227
1.15616
0.0378879
-0.0414552
-1.29852
1.30209
0.0448675
-0.047653
-1.45083
1.45362
0.0493867
-0.0495289
-1.60601
1.60615
0.0482504
-0.045375
-1.48638
1.4835
0.0420366
-0.0377906
-1.16809
1.16384
0.0332807
-0.0281755
-0.931771
0.926665
0.0231845
-0.0176889
-0.728922
0.723426
0.0129629
-0.00810403
-0.521875
0.517016
0.00475893
-0.00213735
-0.319455
0.316834
0.000590092
0.00031297
-0.161102
0.160199
-0.000730172
0.000762799
-0.0612431
0.0612105
-0.000613654
0.000356324
-0.0118866
0.012144
-0.000132841