/*--------------------------------*- C++ -*----------------------------------*\
  =========                 |
  \\      /  F ield         | OpenFOAM: The Open Source CFD Toolbox
   \\    /   O peration     | Website:  https://openfoam.org
    \\  /    A nd           | Version:  6
     \\/     M anipulation  |
\*---------------------------------------------------------------------------*/
FoamFile
{
    version     2.0;
    format      ascii;
    class       volVectorField;
    location    "62.4";
    object      U;
}
// * * * * * * * * * * * * * * * * * * * * * * * * * * * * * * * * * * * * * //

dimensions      [0 1 -1 0 0 0 0];

internalField   nonuniform List<vector> 
8800
(
(0.987184 -0.0766665 0)
(1.00189 -0.0551924 0)
(0.999723 -0.0285513 0)
(1.00002 -0.0151471 0)
(1.00008 -0.00854956 0)
(1.00009 -0.00505427 0)
(1.00006 -0.00301069 0)
(1.00002 -0.00171001 0)
(0.999999 -0.000802393 0)
(1.00006 -8.50917e-05 0)
(0.999985 0.000645235 0)
(0.999994 0.00141118 0)
(1.00002 0.00243269 0)
(1.00005 0.00400278 0)
(1.00004 0.00663241 0)
(1.00001 0.0113703 0)
(0.999898 0.020814 0)
(0.99915 0.038671 0)
(1.0071 0.0724571 0)
(0.771213 0.0366612 0)
(0.36306 -0.0160182 0)
(1.0433 -0.0768215 0)
(1.08459 -0.0704563 0)
(1.04518 -0.053555 0)
(1.02327 -0.0389109 0)
(1.012 -0.0262395 0)
(1.00641 -0.0168839 0)
(1.00358 -0.0103548 0)
(1.00215 -0.00569501 0)
(1.00145 -0.00203653 0)
(1.00131 0.00128764 0)
(1.00168 0.00467225 0)
(1.00266 0.00860758 0)
(1.00465 0.0139453 0)
(1.00859 0.0216519 0)
(1.01655 0.0326208 0)
(1.03246 0.0465365 0)
(1.06263 0.0616558 0)
(1.09187 0.0760968 0)
(0.838676 0.0565601 0)
(0.216824 -0.00243087 0)
(1.07588 -0.0501491 0)
(1.09986 -0.0483298 0)
(1.06462 -0.0404875 0)
(1.04001 -0.0336364 0)
(1.02389 -0.0261229 0)
(1.0141 -0.018545 0)
(1.00854 -0.0117266 0)
(1.00558 -0.00585876 0)
(1.00433 -0.000439295 0)
(1.00467 0.00480996 0)
(1.00659 0.0102038 0)
(1.0106 0.0163009 0)
(1.01793 0.0233279 0)
(1.03053 0.030794 0)
(1.05061 0.0378279 0)
(1.08032 0.0445144 0)
(1.10625 0.0513338 0)
(0.94254 0.0416116 0)
(0.216166 0.00246108 0)
(0.175137 -0.000817659 0)
(1.01764 -0.0355021 0)
(1.10517 -0.0414082 0)
(1.07823 -0.036099 0)
(1.05343 -0.0301725 0)
(1.03617 -0.0246054 0)
(1.02397 -0.0188828 0)
(1.01586 -0.012806 0)
(1.01101 -0.00661914 0)
(1.00881 -0.000283439 0)
(1.00939 0.005975 0)
(1.01264 0.0119776 0)
(1.01887 0.0178173 0)
(1.02877 0.0233946 0)
(1.0432 0.0286989 0)
(1.06372 0.0341888 0)
(1.09354 0.0401782 0)
(1.09341 0.0419469 0)
(0.827181 0.0229074 0)
(0.174027 0.000852281 0)
(0.15392 -0.000611641 0)
(0.956089 -0.0254799 0)
(1.1034 -0.0351654 0)
(1.08763 -0.0326983 0)
(1.06167 -0.0280548 0)
(1.04406 -0.0230413 0)
(1.0316 -0.0178026 0)
(1.02276 -0.0122751 0)
(1.01695 -0.00634018 0)
(1.01411 0.000130125 0)
(1.0148 0.00659562 0)
(1.01878 0.0124845 0)
(1.0258 0.0177877 0)
(1.03611 0.0227082 0)
(1.05067 0.0274697 0)
(1.0719 0.0320088 0)
(1.10006 0.0359493 0)
(1.0681 0.0340156 0)
(0.739594 0.0143077 0)
(0.152248 0.000650916 0)
(0.139531 -0.000467973 0)
(0.899134 -0.0191014 0)
(1.0957 -0.0301236 0)
(1.09568 -0.0292444 0)
(1.06918 -0.0255233 0)
(1.05075 -0.0213942 0)
(1.03783 -0.0166295 0)
(1.02873 -0.0113504 0)
(1.02262 -0.00561151 0)
(1.0195 0.000715806 0)
(1.02013 0.00703136 0)
(1.02422 0.0126721 0)
(1.03137 0.0176456 0)
(1.04191 0.0221154 0)
(1.05703 0.0260882 0)
(1.07922 0.0295626 0)
(1.10228 0.0321945 0)
(1.03602 0.0281027 0)
(0.673048 0.0102054 0)
(0.13717 0.000513276 0)
(0.128973 -0.000362684 0)
(0.849483 -0.0147422 0)
(1.08327 -0.0259988 0)
(1.10134 -0.0263055 0)
(1.07602 -0.0230312 0)
(1.05706 -0.0193994 0)
(1.04368 -0.0151665 0)
(1.03423 -0.0102511 0)
(1.02788 -0.00472156 0)
(1.02458 0.00142598 0)
(1.02506 0.00752792 0)
(1.02911 0.0128937 0)
(1.03637 0.0174584 0)
(1.04719 0.0213212 0)
(1.06271 0.0246318 0)
(1.08535 0.027592 0)
(1.10139 0.0293549 0)
(1.00112 0.0235871 0)
(0.621233 0.00784191 0)
(0.125772 0.000416016 0)
(0.12091 -0.000282128 0)
(0.807274 -0.0115875 0)
(1.06795 -0.0223962 0)
(1.10484 -0.0236802 0)
(1.08226 -0.0208217 0)
(1.06288 -0.0174056 0)
(1.04923 -0.0134798 0)
(1.0395 -0.00890635 0)
(1.03287 -0.00365473 0)
(1.02932 0.00227599 0)
(1.02964 0.00813551 0)
(1.03363 0.0131549 0)
(1.04096 0.0172509 0)
(1.05188 0.0206067 0)
(1.06762 0.0235052 0)
(1.09059 0.0261676 0)
(1.09761 0.027036 0)
(0.965867 0.020046 0)
(0.579596 0.00630783 0)
(0.116692 0.000345545 0)
(0.114657 -0.000219058 0)
(0.771731 -0.00922849 0)
(1.05114 -0.0192262 0)
(1.1072 -0.0212519 0)
(1.0881 -0.0187627 0)
(1.06834 -0.0154907 0)
(1.05445 -0.0117319 0)
(1.04453 -0.0073734 0)
(1.03766 -0.00236339 0)
(1.03383 0.00330817 0)
(1.03393 0.00885988 0)
(1.0378 0.0135014 0)
(1.04507 0.017179 0)
(1.056 0.0201435 0)
(1.07193 0.0227242 0)
(1.09456 0.0250529 0)
(1.09101 0.0251116 0)
(0.931566 0.0173137 0)
(0.545123 0.00526085 0)
(0.109201 0.000294876 0)
(0.109778 -0.000168328 0)
(0.741911 -0.00739766 0)
(1.03388 -0.0164167 0)
(1.10861 -0.0189672 0)
(1.09366 -0.01679 0)
(1.07362 -0.0136149 0)
(1.05946 -0.00994787 0)
(1.04935 -0.00571114 0)
(1.04226 -0.000880498 0)
(1.03815 0.00454985 0)
(1.03796 0.00979233 0)
(1.0416 0.0140748 0)
(1.04873 0.0173927 0)
(1.05963 0.020011 0)
(1.07575 0.0222975 0)
(1.09725 0.0242462 0)
(1.08197 0.0235356 0)
(0.898775 0.0152396 0)
(0.515764 0.00453192 0)
(0.102818 0.000259386 0)
(0.10599 -0.000126176 0)
(0.716995 -0.00592122 0)
(1.01702 -0.013896 0)
(1.10918 -0.0167559 0)
(1.09912 -0.0148524 0)
(1.07881 -0.0116853 0)
(1.06437 -0.00805054 0)
(1.05403 -0.00388612 0)
(1.04669 0.000822742 0)
(1.04226 0.00604208 0)
(1.0417 0.0109805 0)
(1.04504 0.0149196 0)
(1.05199 0.0178859 0)
(1.06284 0.0201646 0)
(1.07914 0.0221941 0)
(1.0986 0.0237519 0)
(1.07088 0.0223035 0)
(0.867612 0.0137084 0)
(0.490064 0.00403065 0)
(0.0972029 0.000235973 0)
(0.103104 -8.96521e-05 0)
(0.69634 -0.00468303 0)
(1.00116 -0.0115973 0)
(1.10907 -0.0145898 0)
(1.10442 -0.0128802 0)
(1.08401 -0.00968313 0)
(1.06925 -0.00602825 0)
(1.05865 -0.00186614 0)
(1.05101 0.00278016 0)
(1.04617 0.00783752 0)
(1.04518 0.0125096 0)
(1.04815 0.0161297 0)
(1.05487 0.0187677 0)
(1.06565 0.0207131 0)
(1.08208 0.022477 0)
(1.09896 0.0236213 0)
(1.058 0.0214265 0)
(0.83791 0.0126292 0)
(0.466936 0.00370167 0)
(0.0920955 0.000222225 0)
(0.101001 -5.6041e-05 0)
(0.679477 -0.00359562 0)
(0.986751 -0.00944768 0)
(1.10849 -0.0123737 0)
(1.10952 -0.0107826 0)
(1.08928 -0.00752926 0)
(1.07418 -0.00378833 0)
(1.06326 0.000423337 0)
(1.05524 0.0050575 0)
(1.04993 0.010011 0)
(1.0484 0.0144548 0)
(1.05092 0.0177524 0)
(1.05737 0.0200391 0)
(1.06805 0.0216382 0)
(1.08451 0.0231396 0)
(1.09831 0.0238709 0)
(1.04351 0.0209163 0)
(0.809347 0.0119314 0)
(0.445531 0.00350707 0)
(0.0872954 0.000216229 0)
(0.0996205 -2.31144e-05 0)
(0.666104 -0.00258996 0)
(0.974158 -0.00737537 0)
(1.10776 -0.0100554 0)
(1.11459 -0.00849119 0)
(1.09471 -0.00513196 0)
(1.07922 -0.00125265 0)
(1.06793 0.00307395 0)
(1.05946 0.00776135 0)
(1.05355 0.0126392 0)
(1.05137 0.0168575 0)
(1.05336 0.0198526 0)
(1.05947 0.0217985 0)
(1.07004 0.0230354 0)
(1.08651 0.0242665 0)
(1.09643 0.0245453 0)
(1.02746 0.020762 0)
(0.781497 0.0115591 0)
(0.425152 0.00342138 0)
(0.0826386 0.000216495 0)
(0.0989459 1.13586e-05 0)
(0.656067 -0.00161071 0)
(0.963683 -0.00530518 0)
(1.1072 -0.00757464 0)
(1.11974 -0.00596387 0)
(1.10037 -0.00246306 0)
(1.08447 0.00162784 0)
(1.07273 0.00614832 0)
(1.06369 0.010953 0)
(1.05705 0.0158217 0)
(1.0541 0.0198527 0)
(1.05546 0.0225306 0)
(1.06118 0.0241179 0)
(1.07159 0.0249777 0)
(1.08795 0.025901 0)
(1.09326 0.0256658 0)
(1.00982 0.0209891 0)
(0.753895 0.0114847 0)
(0.405223 0.0034301 0)
(0.0779927 0.000222394 0)
(0.0989987 4.47655e-05 0)
(0.649342 -0.000610347 0)
(0.955637 -0.00316481 0)
(1.10715 -0.00484961 0)
(1.12513 -0.00306555 0)
(1.10637 0.000659795 0)
(1.09002 0.00503021 0)
(1.07773 0.00979844 0)
(1.06801 0.0147849 0)
(1.0605 0.0196836 0)
(1.0566 0.0235318 0)
(1.05719 0.025884 0)
(1.06244 0.0270855 0)
(1.07267 0.0275451 0)
(1.08863 0.0281026 0)
(1.08859 0.0272481 0)
(0.990447 0.0216381 0)
(0.726012 0.0116922 0)
(0.385215 0.00352559 0)
(0.0732358 0.000233385 0)
(0.0998169 8.48868e-05 0)
(0.646005 0.000425078 0)
(0.950331 -0.000882579 0)
(1.10799 -0.00181633 0)
(1.13098 0.000258866 0)
(1.11282 0.00429496 0)
(1.09594 0.0090339 0)
(1.08301 0.0141541 0)
(1.07246 0.0193985 0)
(1.06389 0.024368 0)
(1.05886 0.0280377 0)
(1.05854 0.0300356 0)
(1.06323 0.0308422 0)
(1.07322 0.0308762 0)
(1.08842 0.0310101 0)
(1.08218 0.0293953 0)
(0.969068 0.0227233 0)
(0.697277 0.0121693 0)
(0.364636 0.00369917 0)
(0.0682606 0.000248658 0)
(0.101611 0.000145025 0)
(0.64645 0.00158258 0)
(0.948131 0.00162933 0)
(1.11012 0.00164881 0)
(1.13745 0.00413879 0)
(1.11985 0.00858181 0)
(1.1024 0.0137891 0)
(1.08868 0.01935 0)
(1.07711 0.0249336 0)
(1.06724 0.0300459 0)
(1.06086 0.0335731 0)
(1.05947 0.0351773 0)
(1.06347 0.0355246 0)
(1.07318 0.0350902 0)
(1.08707 0.0347312 0)
(1.07374 0.0321835 0)
(0.945312 0.0242981 0)
(0.667074 0.0129161 0)
(0.343023 0.00394728 0)
(0.0629711 0.000267725 0)
(0.104431 0.000206528 0)
(0.65106 0.00300413 0)
(0.94949 0.00452087 0)
(1.11404 0.00568094 0)
(1.1448 0.0087545 0)
(1.12763 0.0137696 0)
(1.10948 0.0195579 0)
(1.09482 0.0256551 0)
(1.082 0.0316502 0)
(1.07057 0.0369053 0)
(1.06257 0.0402242 0)
(1.05992 0.0413831 0)
(1.06312 0.0412691 0)
(1.07247 0.0403123 0)
(1.0844 0.0394275 0)
(1.06293 0.0357221 0)
(0.918661 0.0263936 0)
(0.634728 0.0139268 0)
(0.319922 0.00426175 0)
(0.0572826 0.000289614 0)
(0.108559 0.000288559 0)
(0.660302 0.00467474 0)
(0.954885 0.00793371 0)
(1.12026 0.010427 0)
(1.15334 0.0142608 0)
(1.13637 0.0200116 0)
(1.11738 0.0265353 0)
(1.10153 0.0333133 0)
(1.08716 0.0398052 0)
(1.07382 0.0452265 0)
(1.06392 0.0482886 0)
(1.05984 0.0489131 0)
(1.06208 0.0482556 0)
(1.07098 0.0467071 0)
(1.08051 0.0451945 0)
(1.04928 0.0401032 0)
(0.88847 0.0290446 0)
(0.599522 0.0151862 0)
(0.294914 0.00462982 0)
(0.051132 0.000312647 0)
(0.114337 0.000400521 0)
(0.674992 0.00677557 0)
(0.964996 0.0120762 0)
(1.12933 0.0161434 0)
(1.16336 0.0209551 0)
(1.14633 0.0276688 0)
(1.12628 0.0350879 0)
(1.10893 0.0426607 0)
(1.09264 0.0497062 0)
(1.07701 0.0552815 0)
(1.06486 0.0579969 0)
(1.05906 0.0579549 0)
(1.06026 0.0566698 0)
(1.06869 0.0544702 0)
(1.07511 0.052233 0)
(1.03219 0.0454139 0)
(0.853945 0.0322524 0)
(0.560711 0.0166584 0)
(0.267641 0.0050299 0)
(0.0444872 0.000334637 0)
(0.122285 0.000555779 0)
(0.696043 0.00952083 0)
(0.980692 0.0172484 0)
(1.14194 0.0231596 0)
(1.17538 0.0292415 0)
(1.1578 0.0372369 0)
(1.13636 0.0457337 0)
(1.11708 0.0542049 0)
(1.09839 0.0618033 0)
(1.07998 0.0673771 0)
(1.06524 0.0695245 0)
(1.05749 0.0686709 0)
(1.05757 0.0666586 0)
(1.06546 0.0637068 0)
(1.06787 0.0605336 0)
(1.01087 0.0517249 0)
(0.814153 0.0359792 0)
(0.517571 0.0182752 0)
(0.23786 0.00542807 0)
(0.0373641 0.000352389 0)
(0.13313 0.00078151 0)
(0.724771 0.0132969 0)
(1.00312 0.0239221 0)
(1.15888 0.032016 0)
(1.19003 0.0396859 0)
(1.17116 0.0493203 0)
(1.14778 0.0590908 0)
(1.12598 0.0685294 0)
(1.10428 0.0765717 0)
(1.08257 0.0819164 0)
(1.06488 0.0832076 0)
(1.05502 0.0812994 0)
(1.05387 0.0783941 0)
(1.06103 0.0745345 0)
(1.0581 0.0703056 0)
(0.984299 0.0590125 0)
(0.768063 0.0401216 0)
(0.469487 0.0199178 0)
(0.205527 0.00577515 0)
(0.0298456 0.000361888 0)
(0.148127 0.00113531 0)
(0.763146 0.0187309 0)
(1.03394 0.0328768 0)
(1.18106 0.0436467 0)
(1.20803 0.0533859 0)
(1.18671 0.0649693 0)
(1.16061 0.076129 0)
(1.13546 0.0864149 0)
(1.11003 0.0945824 0)
(1.08448 0.0992523 0)
(1.06354 0.0992549 0)
(1.05146 0.0960088 0)
(1.04905 0.0920378 0)
(1.05503 0.0873413 0)
(1.04512 0.0815352 0)
(0.951203 0.0671935 0)
(0.714638 0.0444553 0)
(0.416131 0.021406 0)
(0.170912 0.00600606 0)
(0.0221017 0.00035861 0)
(0.169444 0.00174861 0)
(0.814392 0.0269491 0)
(1.07571 0.0456464 0)
(1.20965 0.0599152 0)
(1.23005 0.0724825 0)
(1.20454 0.0858893 0)
(1.17456 0.0982285 0)
(1.1451 0.108851 0)
(1.1152 0.11646 0)
(1.08533 0.119688 0)
(1.06095 0.117789 0)
(1.04662 0.11286 0)
(1.04298 0.107635 0)
(1.04744 0.102009 0)
(1.02787 0.0941661 0)
(0.910015 0.075923 0)
(0.653089 0.0486231 0)
(0.357794 0.0224984 0)
(0.134782 0.00604555 0)
(0.0144125 0.000337432 0)
(0.20041 0.00309196 0)
(0.884214 0.0405274 0)
(1.13211 0.0659923 0)
(1.24509 0.0844028 0)
(1.25579 0.0996707 0)
(1.224 0.114371 0)
(1.18877 0.126963 0)
(1.15403 0.136798 0)
(1.11906 0.142719 0)
(1.08458 0.143503 0)
(1.05673 0.138922 0)
(1.04027 0.131841 0)
(1.03551 0.125127 0)
(1.03786 0.118377 0)
(1.00494 0.107914 0)
(0.858903 0.0846137 0)
(0.583407 0.0520908 0)
(0.296087 0.0229878 0)
(0.0987567 0.00585068 0)
(0.00724302 0.000292048 0)
(0.242676 0.00923698 9.69428e-21)
(0.976601 0.0673673 8.30227e-21)
(1.20077 0.100424 -2.89211e-21)
(1.28417 0.120823 0)
(1.28237 0.138547 -7.31582e-35)
(1.24292 0.15274 1.06856e-21)
(1.2017 0.163821 -1.92298e-21)
(1.16118 0.171442 0)
(1.1208 0.174606 3.94727e-35)
(1.08141 0.172156 -2.37692e-21)
(1.04986 0.164403 0)
(1.03113 0.15496 -2.8237e-21)
(1.0254 0.146834 -8.3331e-21)
(1.0249 0.13968 -3.94269e-21)
(0.972569 0.125353 -1.18719e-21)
(0.792228 0.094716 -7.05456e-22)
(0.500378 0.0552711 0)
(0.229456 0.0232554 4.94362e-22)
(0.0629328 0.00571137 5.85534e-22)
(0.000577278 0.00023094 1.06897e-20)
(0.271974 0.0242958 7.07945e-21)
(1.05306 0.109755 1.09208e-22)
(1.25743 0.149487 7.70136e-22)
(1.3191 0.169843 0)
(1.30564 0.187822 -3.70831e-21)
(1.25908 0.199878 -4.20918e-21)
(1.21189 0.208646 -1.93815e-21)
(1.16552 0.213781 -6.89394e-21)
(1.11949 0.214165 0)
(1.07478 0.208517 1.00982e-20)
(1.03901 0.197642 1.00134e-20)
(1.01767 0.185817 2.97445e-21)
(1.00981 0.175732 1.0849e-20)
(1.00154 0.165708 1.52581e-20)
(0.922148 0.145561 0)
(0.702798 0.105694 2.15232e-20)
(0.40327 0.0586372 3.09051e-20)
(0.160226 0.023 3.44008e-20)
(0.0273761 0.00441333 -3.94677e-20)
(-0.00613187 -0.000420669 -7.52188e-22)
(0.273394 0.0409534 0)
(1.10168 0.164616 1.21571e-21)
(1.29572 0.209509 0)
(1.34627 0.229592 -4.81432e-21)
(1.32381 0.244903 0)
(1.27129 0.25307 -8.25876e-21)
(1.21853 0.258081 3.95715e-21)
(1.1666 0.259607 -1.38669e-20)
(1.11518 0.25637 -3.18297e-22)
(1.06539 0.246944 5.22219e-21)
(1.02564 0.232524 2.20116e-20)
(1.00173 0.21803 -4.6994e-23)
(0.991486 0.205822 -7.87965e-21)
(0.975312 0.192609 -1.43533e-20)
(0.87674 0.166013 1.70032e-20)
(0.639341 0.116547 -3.01371e-20)
(0.347506 0.0617865 -3.98394e-21)
(0.125064 0.0224828 0)
(0.0099145 0.00250612 -2.41417e-24)
(-0.00970249 -0.00130398 0)
(0.266957 0.0549795 1.57981e-20)
(1.12798 0.223136 -7.66892e-21)
(1.31937 0.27405 -5.88944e-21)
(1.36421 0.294655 2.26303e-21)
(1.33552 0.306312 -3.80146e-21)
(1.27851 0.309942 1.73004e-20)
(1.22113 0.310524 8.25539e-21)
(1.16436 0.307797 0)
(1.10811 0.300374 -2.61726e-20)
(1.05367 0.28666 0)
(1.01016 0.268351 -1.15504e-20)
(0.983782 0.251026 -1.42628e-20)
(0.971121 0.23643 -8.57843e-21)
(0.948605 0.219588 -1.04203e-20)
(0.839472 0.186639 0)
(0.598868 0.128791 0)
(0.31923 0.0674015 -2.59576e-20)
(0.109205 0.0232688 5.13668e-21)
(0.00128982 0.000694952 -3.01529e-21)
(-0.012002 -0.00230154 -3.57169e-21)
(0.259313 0.0673346 -5.99034e-21)
(1.13954 0.281589 0)
(1.33233 0.339592 1.18297e-20)
(1.37392 0.361171 6.32243e-21)
(1.34085 0.369152 8.8242e-21)
(1.28055 0.368269 0)
(1.21958 0.364326 8.06519e-21)
(1.15886 0.35715 1.53435e-20)
(1.09848 0.345295 1.34013e-20)
(1.03986 0.327085 2.46088e-20)
(0.992834 0.30478 0)
(0.963956 0.284431 -3.0763e-20)
(0.948916 0.267388 -1.85341e-20)
(0.921647 0.247013 -1.09668e-20)
(0.80846 0.20853 6.72236e-20)
(0.573334 0.14333 8.00936e-21)
(0.306754 0.0755126 3.76888e-20)
(0.105598 0.0256467 -1.78439e-19)
(-0.000929682 -0.000399451 1.0574e-19)
(-0.0131259 -0.00321532 -1.29059e-19)
(0.252002 0.0784411 -2.43945e-21)
(1.14176 0.33809 1.05747e-21)
(1.3376 0.404299 -1.2265e-21)
(1.37704 0.427226 -6.2536e-21)
(1.34079 0.431717 -7.36262e-21)
(1.27804 0.426506 3.6362e-22)
(1.21423 0.418185 -8.74443e-21)
(1.15025 0.406654 1.58655e-20)
(1.08628 0.390383 -2.88554e-20)
(1.02394 0.367679 0)
(0.973654 0.341287 -1.39345e-20)
(0.942335 0.317808 -3.23229e-22)
(0.924979 0.298266 -2.02912e-20)
(0.894396 0.274633 0)
(0.781589 0.231305 -1.45762e-20)
(0.556627 0.159776 -3.4688e-20)
(0.303775 0.0859697 9.2574e-20)
(0.109045 0.0298557 -9.12115e-20)
(0.00175693 -0.000251751 1.29747e-19)
(-0.0129742 -0.00384496 -1.36535e-19)
(0.245847 0.0887055 -1.05134e-22)
(1.13819 0.391982 -2.1912e-22)
(1.33733 0.467152 -3.10979e-21)
(1.37502 0.491664 2.42507e-21)
(1.33641 0.493 -3.69372e-21)
(1.27178 0.48373 0)
(1.20567 0.471276 -8.11208e-21)
(1.13894 0.455593 -1.66167e-20)
(1.0719 0.435057 -1.49999e-20)
(1.00623 0.407933 0)
(0.952908 0.377519 -1.44666e-20)
(0.919249 0.35102 -1.7932e-20)
(0.899697 0.329022 2.20312e-20)
(0.866823 0.302445 -1.33715e-20)
(0.756863 0.254491 -6.37496e-20)
(0.543548 0.177776 3.7943e-20)
(0.304317 0.0979153 1.12865e-20)
(0.115903 0.0357656 0)
(0.00749491 0.00130922 -1.25694e-19)
(-0.0118179 -0.00408967 -4.6721e-21)
(0.240981 0.0984612 3.31013e-22)
(1.13113 0.443107 -3.40674e-22)
(1.33303 0.5276 1.38437e-21)
(1.36908 0.553796 8.791e-21)
(1.32864 0.552357 -1.3467e-20)
(1.26259 0.539366 1.62561e-20)
(1.19462 0.523071 1.74909e-20)
(1.12556 0.503488 -2.65659e-20)
(1.05579 0.478914 9.28188e-21)
(0.98704 0.447521 -6.06084e-20)
(0.93089 0.413275 -1.63776e-20)
(0.895022 0.383872 0)
(0.873407 0.359498 2.39284e-20)
(0.838751 0.330024 2.87095e-20)
(0.732618 0.277845 3.43747e-20)
(0.531087 0.196474 -4.12939e-20)
(0.305451 0.11077 -1.22424e-20)
(0.123255 0.0430701 1.43726e-20)
(0.0144862 0.0040404 0)
(-0.0100726 -0.00396724 -1.01634e-20)
(0.237289 0.10781 -8.31307e-21)
(1.12225 0.491539 3.83998e-21)
(1.32598 0.58556 -1.12735e-21)
(1.36024 0.613264 5.1941e-21)
(1.31832 0.609375 -5.95882e-21)
(1.25119 0.593007 -8.26987e-22)
(1.18168 0.573221 -1.91445e-20)
(1.11059 0.550047 -9.62273e-21)
(1.03833 0.521684 -2.61045e-20)
(0.966764 0.486261 6.4253e-23)
(0.907972 0.448334 -5.13435e-20)
(0.870033 0.41606 4.33591e-20)
(0.846522 0.389285 -2.63378e-20)
(0.810448 0.35713 3.16915e-20)
(0.707884 0.300845 0)
(0.51737 0.215229 -2.24778e-20)
(0.304343 0.12394 3.64081e-23)
(0.129433 0.0511021 -6.286e-20)
(0.0213593 0.00752014 -9.2584e-21)
(-0.00806702 -0.00355742 0)
(0.234668 0.116983 0)
(1.11252 0.537487 4.85439e-21)
(1.31701 0.641165 -6.4006e-23)
(1.3493 0.669886 -4.58996e-21)
(1.30614 0.663819 -7.71717e-21)
(1.23814 0.644425 0)
(1.16735 0.621507 -8.64595e-21)
(1.09449 0.595073 -2.14443e-22)
(1.02 0.563222 5.60013e-20)
(0.945777 0.524024 -8.33484e-21)
(0.884444 0.482511 -3.71043e-20)
(0.844509 0.447307 2.25586e-20)
(0.819303 0.418274 -4.50228e-22)
(0.781852 0.383387 3.37539e-20)
(0.681917 0.323192 2.079e-20)
(0.50188 0.233129 -4.85475e-20)
(0.300154 0.136784 5.75685e-20)
(0.132865 0.0590513 1.70744e-20)
(0.0268009 0.0111955 7.06115e-20)
(-0.00617769 -0.00299645 -1.90987e-19)
(0.233038 0.126102 -3.55756e-21)
(1.10258 0.581135 4.25653e-21)
(1.30669 0.693957 -2.46772e-21)
(1.33692 0.723602 3.25006e-21)
(1.29265 0.715581 0)
(1.22397 0.693488 -7.34444e-21)
(1.15212 0.667797 2.91444e-20)
(1.07769 0.638445 2.11137e-20)
(1.00111 0.603423 0)
(0.924333 0.560715 -1.20214e-19)
(0.860499 0.51566 1.00504e-19)
(0.818693 0.477633 0)
(0.791908 0.446361 3.08485e-20)
(0.75308 0.408607 -4.50465e-22)
(0.655159 0.344206 -6.66642e-20)
(0.484206 0.249494 2.61116e-20)
(0.2929 0.148426 0)
(0.132896 0.0661442 9.22445e-20)
(0.0300648 0.0144015 0)
(-0.00468879 -0.00246206 -9.05124e-20)
(0.23222 0.135215 4.49322e-21)
(1.09284 0.622667 6.19259e-21)
(1.29544 0.743978 -2.28012e-21)
(1.32358 0.774425 0)
(1.27832 0.764642 -6.32926e-21)
(1.20911 0.740158 0)
(1.13634 0.712021 -2.86815e-20)
(1.0605 0.680089 -9.77183e-21)
(0.981959 0.642229 9.88245e-21)
(0.902689 0.596272 -5.9513e-20)
(0.836338 0.5478 1.03833e-20)
(0.792716 0.507077 0)
(0.764416 0.473347 -6.59519e-20)
(0.724178 0.432385 4.40295e-22)
(0.62765 0.363439 0)
(0.464362 0.263726 2.53545e-22)
(0.282528 0.158024 8.42579e-20)
(0.129767 0.0715094 -7.97462e-20)
(0.0309068 0.0166082 2.36081e-20)
(-0.00375987 -0.00209428 0)
(0.231876 0.144225 0)
(1.08348 0.662195 7.903e-21)
(1.28369 0.791324 4.34401e-21)
(1.30968 0.822423 -5.096e-22)
(1.26352 0.811032 -1.92139e-21)
(1.19388 0.784438 -1.65322e-20)
(1.12033 0.754161 1.07938e-20)
(1.0432 0.719969 -1.15823e-20)
(0.962816 0.679606 4.41888e-20)
(0.881055 0.63068 -9.52569e-20)
(0.812135 0.579019 -8.13827e-22)
(0.766661 0.535564 -2.88749e-20)
(0.736832 0.499009 1.07122e-19)
(0.695138 0.454476 -5.22292e-22)
(0.599489 0.380497 -5.18354e-20)
(0.442713 0.275446 -9.23333e-20)
(0.269462 0.165221 0)
(0.123925 0.0748622 0)
(0.0298298 0.0176031 2.5488e-20)
(-0.00331656 -0.00195852 -1.51371e-20)
(0.232112 0.153252 6.83379e-21)
(1.07469 0.699568 -1.84459e-20)
(1.27171 0.836084 -4.7007e-21)
(1.29552 0.867675 0)
(1.24854 0.854807 -3.13896e-22)
(1.17857 0.826359 -1.4934e-20)
(1.10435 0.794227 2.59576e-20)
(1.02604 0.758074 4.55286e-20)
(0.943892 0.715543 5.74599e-20)
(0.859629 0.663964 -7.7886e-20)
(0.788045 0.609376 -8.66603e-20)
(0.740563 0.563001 7.73015e-20)
(0.709177 0.52327 0)
(0.665933 0.474709 -2.35723e-20)
(0.570686 0.395107 -5.60635e-20)
(0.419206 0.284384 -6.63907e-20)
(0.254053 0.169651 -7.85828e-20)
(0.115663 0.0760506 2.32708e-20)
(0.0272051 0.0174771 -1.37252e-20)
(-0.00324764 -0.0020198 6.08682e-23)
(0.232629 0.162099 0)
(1.06655 0.735333 0)
(1.25967 0.878351 5.22128e-22)
(1.28131 0.910285 0)
(1.2336 0.896058 3.65963e-21)
(1.16337 0.865984 9.95451e-21)
(1.08858 0.832247 0)
(1.00921 0.794412 5.38874e-21)
(0.925368 0.750035 9.59538e-20)
(0.838599 0.696167 -1.7926e-19)
(0.764194 0.638903 0)
(0.714462 0.589398 -4.98267e-20)
(0.681399 0.546193 -6.13897e-22)
(0.636435 0.492946 -4.7491e-22)
(0.541309 0.406997 6.00277e-20)
(0.394371 0.29022 -2.32492e-23)
(0.236815 0.171235 -1.69279e-19)
(0.105575 0.0751054 5.00583e-20)
(0.023368 0.0163123 1.48479e-20)
(-0.00341221 -0.00222452 0)
(0.233274 0.170799 -2.88068e-20)
(1.0588 0.76945 -1.32254e-20)
(1.24766 0.918188 -1.58781e-20)
(1.26722 0.950357 1.14606e-20)
(1.21888 0.934858 3.31989e-21)
(1.14847 0.903375 0)
(1.0732 0.868263 1.56298e-20)
(0.992849 0.829008 -1.20403e-20)
(0.907399 0.783098 7.93105e-22)
(0.818128 0.727336 1.32297e-20)
(0.740695 0.667623 1.12481e-19)
(0.688407 0.61493 -1.74952e-20)
(0.653394 0.567925 -6.61979e-20)
(0.606478 0.508988 -2.74963e-20)
(0.511391 0.415778 3.25915e-20)
(0.368831 0.292717 1.35346e-23)
(0.218321 0.169848 4.55986e-20)
(0.0944638 0.0721459 -1.0773e-19)
(0.0190204 0.0143285 1.27791e-19)
(-0.00370096 -0.0025292 1.88701e-20)
(0.233737 0.179273 1.11502e-20)
(1.05146 0.802007 -7.6001e-21)
(1.23583 0.955709 1.29107e-21)
(1.25339 0.988005 8.57932e-21)
(1.2045 0.971318 6.83106e-22)
(1.13398 0.938604 -1.71846e-20)
(1.05831 0.902323 4.46746e-21)
(0.977091 0.861882 -5.02018e-20)
(0.890116 0.814735 -1.05927e-19)
(0.79835 0.757481 -1.07065e-19)
(0.717683 0.695592 0)
(0.662455 0.639853 -7.69498e-20)
(0.625025 0.588615 9.55238e-20)
(0.575766 0.522655 0)
(0.480847 0.421055 -6.98605e-20)
(0.343137 0.291505 4.1587e-20)
(0.199892 0.16538 -4.90425e-20)
(0.0836106 0.0675278 -5.79731e-20)
(0.0148402 0.0118988 -1.02945e-19)
(-0.00401304 -0.00287087 -8.12826e-20)
(0.234556 0.187613 -1.28426e-20)
(1.04439 0.832987 8.14565e-21)
(1.22425 0.990976 1.81485e-20)
(1.23991 1.0233 1.33134e-20)
(1.19058 1.00553 -6.37309e-22)
(1.11999 0.971757 -8.95831e-21)
(1.04402 0.934477 1.49821e-20)
(0.962022 0.893077 -5.15611e-20)
(0.873608 0.844969 -6.28046e-20)
(0.779388 0.786616 1.12207e-19)
(0.695288 0.722899 2.47705e-19)
(0.63668 0.664408 0)
(0.596165 0.60842 0)
(0.543936 0.533962 -3.16975e-20)
(0.449329 0.422438 0)
(0.317493 0.285707 8.94167e-20)
(0.182877 0.157071 1.05462e-19)
(0.0750181 0.0612273 0)
(0.012042 0.00939447 0)
(-0.00424656 -0.00318355 8.73642e-20)
(0.23503 0.195491 1.48502e-20)
(1.0376 0.862377 1.17126e-20)
(1.21298 1.0241 1.33232e-20)
(1.22686 1.05637 -1.37723e-20)
(1.17716 1.03761 -2.1931e-21)
(1.10657 1.00291 8.7087e-21)
(1.03038 0.964784 -2.05193e-20)
(0.947707 0.922619 -7.29928e-23)
(0.857957 0.873807 -1.03598e-21)
(0.761341 0.814728 -9.70204e-22)
(0.67366 0.749637 1.27753e-19)
(0.61118 0.688753 0)
(0.566777 0.627547 9.69848e-20)
(0.510601 0.543197 6.77496e-20)
(0.416062 0.419761 1.63193e-19)
(0.291403 0.273962 4.82005e-20)
(0.168685 0.142284 -5.67695e-20)
(0.0730689 0.050233 -3.34273e-20)
(0.0162193 0.00558275 0)
(-0.00300474 -0.00314453 9.38964e-20)
(0.235855 0.203389 -3.4111e-20)
(1.03105 0.890329 0)
(1.20202 1.05513 1.62208e-20)
(1.21425 1.0873 -1.20701e-20)
(1.16431 1.06765 4.69512e-21)
(1.09375 1.03214 -8.36765e-21)
(1.01744 0.993298 3.94687e-20)
(0.934185 0.950544 -4.25226e-21)
(0.84321 0.901261 0)
(0.744289 0.841783 -1.24103e-19)
(0.652949 0.775875 -2.78179e-19)
(0.58609 0.712977 1.14018e-20)
(0.536941 0.646251 1.34074e-19)
(0.475493 0.550923 0)
(0.379908 0.413543 1.10261e-19)
(0.262524 0.255214 0)
(0.155471 0.115063 0)
(0.083323 0.0194333 -3.61431e-20)
(0.0522422 -0.0133607 0)
(0.0266856 0.00618451 2.51705e-20)
(0.236238 0.210712 -3.85549e-20)
(1.02472 0.91703 0)
(1.19136 1.08426 2.74996e-20)
(1.20204 1.11634 0)
(1.15198 1.09591 -3.41881e-21)
(1.08148 1.05974 0)
(1.00513 1.02033 1.87475e-21)
(0.921363 0.97719 7.10964e-21)
(0.829245 0.927696 7.91067e-21)
(0.728062 0.868156 -1.36389e-19)
(0.632972 0.802092 8.35972e-21)
(0.561132 0.737659 9.20213e-20)
(0.506236 0.665302 1.31055e-19)
(0.437704 0.55789 1.76672e-20)
(0.339073 0.405383 8.65303e-20)
(0.225971 0.230536 0)
(0.131628 0.0715191 1.1963e-19)
(0.0731343 -0.0211585 -7.02992e-20)
(0.0322274 0.0568569 8.21603e-20)
(-0.0382311 0.455001 -9.76184e-20)
(0.236568 0.217872 3.22094e-20)
(1.01838 0.942371 4.81357e-20)
(1.18093 1.11182 0)
(1.19009 1.14392 1.05924e-21)
(1.13999 1.12298 1.11639e-20)
(1.06949 1.0864 6.8945e-21)
(0.993134 1.04668 1.34301e-20)
(0.908826 1.0035 0)
(0.815526 0.954215 5.22828e-20)
(0.711975 0.895164 -7.10217e-21)
(0.61281 0.82981 0)
(0.535022 0.764473 0)
(0.472702 0.686177 1.17471e-19)
(0.394783 0.564581 -5.46021e-20)
(0.290516 0.397251 -8.77061e-20)
(0.177727 0.203179 0)
(0.0751608 0.0847784 6.07789e-20)
(0.00646584 0.464664 -7.07549e-20)
(0.0315536 1.92404 -3.98687e-20)
(0.0582805 2.82337 -4.87755e-20)
(0.236522 0.224465 -2.45736e-20)
(1.01208 0.966523 -6.24706e-20)
(1.17074 1.13781 1.67221e-20)
(1.17841 1.16992 1.29561e-20)
(1.12838 1.14865 0)
(1.05786 1.11185 2.43942e-21)
(0.98167 1.07205 1.78643e-20)
(0.896769 1.02905 -3.42345e-21)
(0.802336 0.980298 7.81544e-21)
(0.696421 0.922204 1.29979e-19)
(0.593085 0.858349 1.41013e-19)
(0.508733 0.793134 1.03301e-19)
(0.437177 0.708925 1.18348e-19)
(0.348188 0.569934 -1.28443e-19)
(0.240736 0.393003 -1.32561e-19)
(0.116896 0.253031 0)
(0.0406891 0.877927 0)
(0.0885838 2.57873 3.38257e-20)
(0.0912638 3.21057 0)
(0.0924537 3.38896 8.84913e-20)
(0.239259 0.2306 0)
(1.0061 0.989861 0)
(1.1605 1.16207 0)
(1.16678 1.1942 4.07756e-21)
(1.11683 1.1727 1.06935e-20)
(1.04641 1.13593 -1.05337e-21)
(0.97066 1.09633 1.12875e-20)
(0.885124 1.05371 -3.32981e-21)
(0.789611 1.00577 6.51572e-20)
(0.681393 0.949122 -1.86733e-21)
(0.573881 0.887467 2.78766e-19)
(0.482647 0.823703 -1.19405e-20)
(0.39957 0.734184 1.43825e-20)
(0.300144 0.571993 1.86175e-20)
(0.18064 0.410894 -4.62108e-22)
(0.0935204 1.01126 3.46567e-22)
(0.126523 2.75933 -1.78123e-19)
(0.131358 3.30088 -6.755e-20)
(0.121427 3.42413 3.59833e-20)
(0.110594 3.44408 -4.0694e-20)
(0.162292 0.176085 1.52638e-20)
(0.996081 1.01511 0)
(1.15006 1.18484 -3.52013e-20)
(1.1556 1.21715 -3.64989e-20)
(1.1058 1.19559 2.76118e-20)
(1.03581 1.15912 2.20165e-21)
(0.959945 1.11948 -1.139e-20)
(0.873931 1.07751 3.65878e-20)
(0.777422 1.03072 -5.34617e-20)
(0.667102 0.97604 0)
(0.55547 0.917183 1.37399e-19)
(0.457324 0.856004 -8.44374e-20)
(0.360871 0.764719 0)
(0.244276 0.574803 1.79728e-20)
(0.133983 0.776694 4.29545e-20)
(0.141082 2.5603 -4.90012e-20)
(0.18972 3.32948 5.58744e-20)
(0.171787 3.43568 3.02678e-20)
(0.142484 3.45436 3.46526e-20)
(0.122978 3.46294 5.54986e-20)
(0.274484 0.269269 -2.93423e-20)
(0.979597 1.02615 0)
(1.13246 1.2112 3.86245e-20)
(1.14146 1.24878 4.13316e-20)
(1.08865 1.2294 -3.25772e-20)
(1.01809 1.19332 -7.36231e-21)
(0.94106 1.15522 9.30824e-21)
(0.854509 1.11458 2.86866e-21)
(0.756609 1.07007 5.06214e-20)
(0.643402 1.01955 1.12235e-19)
(0.526363 0.967196 7.72306e-21)
(0.416785 0.911116 7.50224e-20)
(0.291747 0.804246 1.35563e-20)
(0.20673 0.949732 -1.72688e-20)
(0.212257 2.43343 -3.92651e-20)
(0.263208 3.33504 3.91287e-20)
(0.246175 3.46266 -4.3149e-20)
(0.211712 3.48096 -2.50037e-20)
(0.1778 3.5051 -2.29304e-20)
(0.132633 3.49949 -3.34735e-21)
(0.264959 0.268335 0)
(0.977185 1.04943 1.15213e-20)
(1.12409 1.23508 -8.05271e-21)
(1.13068 1.27255 -5.03162e-21)
(1.07778 1.25285 -2.31822e-20)
(1.00723 1.21696 8.26484e-21)
(0.929894 1.17911 -4.26168e-21)
(0.843113 1.13935 2.54796e-21)
(0.744621 1.09636 -5.25507e-20)
(0.630005 1.04883 -2.85773e-21)
(0.509955 1.00135 -2.47878e-19)
(0.39444 0.948539 1.07211e-20)
(0.277947 0.877468 -1.28368e-20)
(0.241557 1.55343 -1.59057e-20)
(0.303456 3.14381 3.67438e-21)
(0.317005 3.46557 3.05893e-22)
(0.275187 3.51246 6.46666e-20)
(0.24107 3.53485 3.30857e-20)
(0.195223 3.5544 -1.12088e-20)
(0.14518 3.55045 -1.69089e-20)
(0.251046 0.266541 2.97998e-20)
(0.97389 1.07534 7.85013e-20)
(1.11538 1.26107 -2.30795e-20)
(1.11954 1.29793 -1.89661e-20)
(1.06646 1.27777 0)
(0.996001 1.24192 1.82558e-20)
(0.918638 1.20436 -2.98807e-21)
(0.831878 1.16541 2.20368e-21)
(0.733102 1.12404 -5.85853e-21)
(0.617606 1.07976 -1.01027e-19)
(0.495417 1.03763 -1.14176e-19)
(0.375827 0.988185 -8.78945e-20)
(0.276706 1.01984 -9.63845e-20)
(0.305818 2.30861 9.97142e-20)
(0.383228 3.39343 8.53924e-20)
(0.355687 3.52319 0)
(0.307349 3.55881 0)
(0.270584 3.59177 -8.81607e-21)
(0.226179 3.63675 0)
(0.156717 3.62056 -1.43845e-20)
(0.241259 0.268644 -4.48422e-20)
(0.968672 1.10218 -6.69619e-20)
(1.10531 1.28833 0)
(1.10718 1.32417 1.28674e-21)
(1.05393 1.30336 -2.63106e-20)
(0.983718 1.26745 3.15667e-20)
(0.906645 1.23021 -3.19803e-23)
(0.820131 1.19201 1.15824e-21)
(0.721322 1.15221 -3.66328e-20)
(0.605374 1.11119 5.01744e-21)
(0.48192 1.07449 0)
(0.358073 1.03158 0)
(0.300718 1.30723 -8.74457e-20)
(0.383344 2.97294 3.58407e-20)
(0.447847 3.49392 4.61803e-20)
(0.394921 3.558 0)