/*--------------------------------*- C++ -*----------------------------------*\
  =========                 |
  \\      /  F ield         | OpenFOAM: The Open Source CFD Toolbox
   \\    /   O peration     | Website:  https://openfoam.org
    \\  /    A nd           | Version:  6
     \\/     M anipulation  |
\*---------------------------------------------------------------------------*/
FoamFile
{
    version     2.0;
    format      ascii;
    class       volVectorField;
    location    "114.3";
    object      U;
}
// * * * * * * * * * * * * * * * * * * * * * * * * * * * * * * * * * * * * * //

dimensions      [0 1 -1 0 0 0 0];

internalField   nonuniform List<vector> 
8800
(
(0.987183 -0.0766652 0)
(1.00189 -0.0551903 0)
(0.999719 -0.0285485 0)
(1.00003 -0.0151443 0)
(1.0001 -0.00854714 0)
(1.00013 -0.0050506 0)
(1.00008 -0.00300447 0)
(1.00002 -0.00170212 0)
(0.99999 -0.000794287 0)
(1.00006 -7.43348e-05 0)
(0.999969 0.000660478 0)
(1.00004 0.00142411 0)
(1.00007 0.00242376 0)
(1.00007 0.00399659 0)
(1.00006 0.00663178 0)
(1.00006 0.0113717 0)
(0.999966 0.0208157 0)
(0.999178 0.0386703 0)
(1.0071 0.0724575 0)
(0.771215 0.0366618 0)
(0.363084 -0.0160159 0)
(1.04332 -0.0768092 0)
(1.08459 -0.070436 0)
(1.04519 -0.0535292 0)
(1.0233 -0.0388801 0)
(1.01204 -0.0262019 0)
(1.00644 -0.0168372 0)
(1.0036 -0.0102986 0)
(1.00215 -0.00563119 0)
(1.00143 -0.00196583 0)
(1.00128 0.00136116 0)
(1.00169 0.00475116 0)
(1.00271 0.0086597 0)
(1.00468 0.0139809 0)
(1.00861 0.0216901 0)
(1.01658 0.0326559 0)
(1.03253 0.0465666 0)
(1.0627 0.0616823 0)
(1.09186 0.0761078 0)
(0.838661 0.0565655 0)
(0.216884 -0.0024282 0)
(1.07593 -0.0501167 0)
(1.09989 -0.0482827 0)
(1.06466 -0.0404305 0)
(1.04006 -0.0335678 0)
(1.02394 -0.0260394 0)
(1.01414 -0.0184438 0)
(1.00857 -0.0116088 0)
(1.00558 -0.00572675 0)
(1.0043 -0.000298115 0)
(1.00465 0.0049584 0)
(1.00664 0.010341 0)
(1.01064 0.0163913 0)
(1.01794 0.0234119 0)
(1.03053 0.0308725 0)
(1.05063 0.0378933 0)
(1.08038 0.0445717 0)
(1.10627 0.0513779 0)
(0.942484 0.0416346 0)
(0.216102 0.00246348 0)
(0.175239 -0.000814492 0)
(1.01778 -0.0354549 0)
(1.10524 -0.0413327 0)
(1.0783 -0.0360073 0)
(1.05352 -0.0300643 0)
(1.03626 -0.0244761 0)
(1.02404 -0.0187278 0)
(1.01591 -0.0126251 0)
(1.01102 -0.00641673 0)
(1.00879 -6.55639e-05 0)
(1.00936 0.00620343 0)
(1.01269 0.0121892 0)
(1.01889 0.0179705 0)
(1.02875 0.0235374 0)
(1.04317 0.0288284 0)
(1.0637 0.0342964 0)
(1.09356 0.0402708 0)
(1.09338 0.0420166 0)
(0.827002 0.0229389 0)
(0.17392 0.000855627 0)
(0.154074 -0.000608073 0)
(0.956374 -0.0254168 0)
(1.10355 -0.0350574 0)
(1.08775 -0.0325645 0)
(1.06181 -0.0278989 0)
(1.04419 -0.0228562 0)
(1.03171 -0.0175811 0)
(1.02284 -0.0120184 0)
(1.01699 -0.00605434 0)
(1.0141 0.000437331 0)
(1.01476 0.00691628 0)
(1.01881 0.012782 0)
(1.0258 0.0180097 0)
(1.03604 0.0229154 0)
(1.05059 0.0276591 0)
(1.07183 0.0321678 0)
(1.10004 0.036085 0)
(1.06796 0.034115 0)
(0.739239 0.0143493 0)
(0.152082 0.00065485 0)
(0.13975 -0.000463895 0)
(0.899625 -0.0190207 0)
(1.09595 -0.0299785 0)
(1.09586 -0.029062 0)
(1.06938 -0.0253115 0)
(1.05094 -0.0211458 0)
(1.03799 -0.016335 0)
(1.02885 -0.0110072 0)
(1.02269 -0.00522649 0)
(1.01949 0.00113039 0)
(1.02009 0.00746363 0)
(1.02425 0.0130748 0)
(1.03134 0.0179589 0)
(1.04179 0.0224089 0)
(1.05689 0.0263535 0)
(1.07909 0.0297856 0)
(1.10218 0.0323864 0)
(1.03571 0.0282371 0)
(0.672459 0.010259 0)
(0.13693 0.000517888 0)
(0.12927 -0.000357961 0)
(0.850247 -0.0146418 0)
(1.0837 -0.0258108 0)
(1.10162 -0.0260642 0)
(1.0763 -0.0227519 0)
(1.05733 -0.019073 0)
(1.04391 -0.0147779 0)
(1.0344 -0.00980104 0)
(1.02798 -0.00422012 0)
(1.02458 0.00196658 0)
(1.02501 0.00809264 0)
(1.02912 0.0134211 0)
(1.0363 0.0178788 0)
(1.047 0.0217201 0)
(1.0625 0.0249932 0)
(1.08514 0.0278972 0)
(1.10118 0.0296155 0)
(1.00055 0.0237627 0)
(0.62034 0.00790943 0)
(0.125439 0.000421499 0)
(0.121302 -0.000276613 0)
(0.808385 -0.0114645 0)
(1.06861 -0.0221591 0)
(1.10525 -0.0233691 0)
(1.08264 -0.0204604 0)
(1.06324 -0.0169857 0)
(1.04954 -0.0129846 0)
(1.03974 -0.00833158 0)
(1.03302 -0.00300921 0)
(1.02934 0.00296991 0)
(1.02957 0.00885513 0)
(1.03363 0.0138297 0)
(1.04083 0.017799 0)
(1.05161 0.021129 0)
(1.06732 0.023983 0)
(1.09029 0.0265777 0)
(1.09724 0.0273842 0)
(0.964933 0.020273 0)
(0.578315 0.00639274 0)
(0.116243 0.000352204 0)
(0.115162 -0.000212579 0)
(0.773272 -0.00907915 0)
(1.05211 -0.0189317 0)
(1.10777 -0.020858 0)
(1.08861 -0.0183089 0)
(1.06882 -0.0149658 0)
(1.05488 -0.0111112 0)
(1.04487 -0.00665201 0)
(1.03787 -0.00155436 0)
(1.03388 0.00418521 0)
(1.03386 0.00977947 0)
(1.03778 0.0143705 0)
(1.04488 0.0179024 0)
(1.05562 0.0208414 0)
(1.07152 0.0233612 0)
(1.09412 0.0255982 0)
(1.09039 0.0255687 0)
(0.930137 0.0176047 0)
(0.543351 0.00536715 0)
(0.10861 0.000302984 0)
(0.110418 -0.000160708 0)
(0.743977 -0.00721825 0)
(1.03527 -0.0160565 0)
(1.10938 -0.0184736 0)
(1.09432 -0.0162166 0)
(1.07425 -0.0129497 0)
(1.06002 -0.00916569 0)
(1.0498 -0.00480796 0)
(1.04256 0.000135691 0)
(1.03824 0.00565044 0)
(1.03788 0.0109425 0)
(1.04155 0.0151655 0)
(1.04846 0.0183071 0)
(1.05913 0.0208975 0)
(1.0752 0.0231158 0)
(1.09663 0.0249588 0)
(1.08101 0.0241286 0)
(0.896695 0.0156097 0)
(0.513375 0.00466388 0)
(0.102052 0.000269164 0)
(0.106791 -0.000117197 0)
(0.719695 -0.00570704 0)
(1.01893 -0.0134604 0)
(1.11023 -0.0161511 0)
(1.09995 -0.0141479 0)
(1.07962 -0.010874 0)
(1.06509 -0.00709742 0)
(1.05463 -0.00277773 0)
(1.0471 0.00207536 0)
(1.0424 0.00741131 0)
(1.04163 0.0124284 0)
(1.04497 0.0163057 0)
(1.05162 0.0190732 0)
(1.0622 0.0213263 0)
(1.07843 0.0232647 0)
(1.09772 0.0246747 0)
(1.06944 0.0230654 0)
(0.864685 0.0141732 0)
(0.486908 0.00419328 0)
(0.0962234 0.000247747 0)
(0.104096 -7.90313e-05 0)
(0.6998 -0.00442853 0)
(1.00373 -0.0110743 0)
(1.11048 -0.013853 0)
(1.10547 -0.012017 0)
(1.08503 -0.00868269 0)
(1.07017 -0.00485055 0)
(1.05942 -0.000504335 0)
(1.05154 0.00431969 0)
(1.04639 0.00953146 0)
(1.04511 0.0143113 0)
(1.04805 0.0178605 0)
(1.05439 0.0202595 0)
(1.06484 0.0221817 0)
(1.08117 0.0238412 0)
(1.0977 0.0249048 0)
(1.05589 0.0223995 0)
(0.833894 0.0132139 0)
(0.462824 0.0039016 0)
(0.0908558 0.00023638 0)
(0.102219 -4.3466e-05 0)
(0.683839 -0.00329451 0)
(0.990124 -0.00882559 0)
(1.11036 -0.01149 0)
(1.11087 -0.00973801 0)
(1.09056 -0.00631113 0)
(1.07535 -0.00235815 0)
(1.06425 0.00208512 0)
(1.05595 0.00694692 0)
(1.05023 0.0120908 0)
(1.04834 0.0166695 0)
(1.0508 0.0199038 0)
(1.05677 0.0219337 0)
(1.06705 0.023523 0)
(1.08339 0.0248839 0)
(1.09678 0.0254706 0)
(1.04049 0.0221406 0)
(0.803928 0.0126562 0)
(0.440225 0.00375035 0)
(0.0857378 0.000232908 0)
(0.101103 -8.16788e-06 0)
(0.671528 -0.00223413 0)
(0.978497 -0.00663762 0)
(1.1102 -0.00900377 0)
(1.11629 -0.00724869 0)
(1.0963 -0.00368073 0)
(1.0807 0.000462323 0)
(1.06919 0.00507678 0)
(1.06038 0.0100488 0)
(1.05398 0.0151845 0)
(1.05135 0.0195976 0)
(1.05322 0.022527 0)
(1.05877 0.0241907 0)
(1.06883 0.0254383 0)
(1.08515 0.0265 0)
(1.09446 0.0265482 0)
(1.02322 0.022298 0)
(0.774297 0.0124561 0)
(0.418377 0.00371562 0)
(0.0807012 0.000236063 0)
(0.100742 2.88757e-05 0)
(0.662733 -0.00119052 0)
(0.969176 -0.00443595 0)
(1.11036 -0.00633292 0)
(1.12189 -0.00447462 0)
(1.10235 -0.000701587 0)
(1.08633 0.00370741 0)
(1.07433 0.00857219 0)
(1.06489 0.0137321 0)
(1.05767 0.018924 0)
(1.05416 0.0232082 0)
(1.05532 0.0258467 0)
(1.06037 0.027145 0)
(1.07017 0.0280286 0)
(1.08633 0.0287498 0)
(1.09068 0.0281592 0)
(1.00396 0.0229188 0)
(0.744435 0.0125901 0)
(0.396641 0.00378419 0)
(0.0756023 0.000245106 0)
(0.101162 6.36959e-05 0)
(0.657456 -0.000106362 0)
(0.962477 -0.00214336 0)
(1.11118 -0.00340931 0)
(1.12782 -0.00132956 0)
(1.10882 0.00272918 0)
(1.09232 0.00748968 0)
(1.07975 0.0126934 0)
(1.06956 0.0181264 0)
(1.06135 0.0234436 0)
(1.05676 0.0276355 0)
(1.0571 0.030001 0)
(1.06155 0.0309213 0)
(1.07101 0.0314193 0)
(1.08664 0.0317588 0)
(1.0851 0.030398 0)
(0.982451 0.0240426 0)
(0.713705 0.0130428 0)
(0.374433 0.00394564 0)
(0.0703146 0.00025907 0)
(0.102431 0.000120638 0)
(0.655862 0.00107091 0)
(0.958733 0.000319496 0)
(1.11305 -0.000152905 0)
(1.13431 0.00228799 0)
(1.11584 0.00673283 0)
(1.09882 0.0119438 0)
(1.08556 0.0175877 0)
(1.07445 0.0233883 0)
(1.06505 0.0289034 0)
(1.05918 0.0330376 0)
(1.05853 0.0351408 0)
(1.06226 0.0356592 0)
(1.07131 0.035749 0)
(1.08592 0.0356668 0)
(1.07745 0.0333529 0)
(0.958268 0.0257086 0)
(0.681397 0.0138026 0)
(0.351203 0.00418943 0)
(0.0647287 0.000276843 0)
(0.104688 0.000170918 0)
(0.657999 0.00222449 0)
(0.958314 0.00304707 0)
(1.11646 0.00354744 0)
(1.14158 0.00649753 0)
(1.12356 0.0114548 0)
(1.10595 0.0172342 0)
(1.09186 0.0234349 0)
(1.07964 0.0297063 0)
(1.06881 0.0354916 0)
(1.06142 0.0395929 0)
(1.05961 0.0414109 0)
(1.06248 0.0415211 0)
(1.07102 0.0411796 0)
(1.08395 0.0405438 0)
(1.06734 0.0371307 0)
(0.930843 0.0279614 0)
(0.646746 0.0148577 0)
(0.326445 0.00450361 0)
(0.0587574 0.000297069 0)
(0.108091 0.000236329 0)
(0.664648 0.00371258 0)
(0.961538 0.00602543 0)
(1.12186 0.00782019 0)
(1.1499 0.0114318 0)
(1.13219 0.0170796 0)
(1.11387 0.0235669 0)
(1.09878 0.0304588 0)
(1.08522 0.037311 0)
(1.07265 0.0434333 0)
(1.06345 0.0475089 0)
(1.06032 0.0490479 0)
(1.06215 0.0487004 0)
(1.0701 0.0478903 0)
(1.08072 0.0466109 0)
(1.05426 0.0418546 0)
(0.899418 0.0308318 0)
(0.608925 0.016182 0)
(0.299701 0.00486942 0)
(0.0523407 0.00031771 0)
(0.112909 0.00032525 0)
(0.676213 0.00548219 0)
(0.968989 0.00955321 0)
(1.12977 0.0128376 0)
(1.15959 0.0173113 0)
(1.14197 0.0238503 0)
(1.1228 0.0312109 0)
(1.10647 0.0389435 0)
(1.09124 0.0464866 0)
(1.07659 0.0529938 0)
(1.06525 0.0570231 0)
(1.06054 0.0582714 0)
(1.06125 0.0574039 0)
(1.06846 0.0560845 0)
(1.07614 0.0540454 0)
(1.0375 0.0476269 0)
(0.863039 0.0343144 0)
(0.567072 0.0177201 0)
(0.270606 0.00525602 0)
(0.0454605 0.000335846 0)
(0.119511 0.000443664 0)
(0.693478 0.00769491 0)
(0.98152 0.0138606 0)
(1.14078 0.0188318 0)
(1.17108 0.0244114 0)
(1.15318 0.0320949 0)
(1.13294 0.0405242 0)
(1.11505 0.0492561 0)
(1.09777 0.0575833 0)
(1.0806 0.0644814 0)
(1.06678 0.0683961 0)
(1.06016 0.0692414 0)
(1.05972 0.0678413 0)
(1.06621 0.0659593 0)
(1.06983 0.0630326 0)
(1.01613 0.054505 0)
(0.82054 0.0383435 0)
(0.520359 0.0193671 0)
(0.238962 0.00561628 0)
(0.0381604 0.000347678 0)
(0.12843 0.000608991 0)
(0.71745 0.0105821 0)
(1.00002 0.0192377 0)
(1.15554 0.0261562 0)
(1.18482 0.0331115 0)
(1.16619 0.042277 0)
(1.14453 0.0519986 0)
(1.12463 0.0618805 0)
(1.1048 0.0710337 0)
(1.08463 0.0782487 0)
(1.06792 0.0819017 0)
(1.05916 0.0822234 0)
(1.05751 0.0802077 0)
(1.06298 0.0776798 0)
(1.06116 0.0735691 0)
(0.988872 0.0624825 0)
(0.770573 0.0427383 0)
(0.468118 0.0209455 0)
(0.204849 0.00588448 0)
(0.0305661 0.000348762 0)
(0.140493 0.000851841 0)
(0.749525 0.0145387 0)
(1.02555 0.0261401 0)
(1.17485 0.0353607 0)
(1.20151 0.0440575 0)
(1.18141 0.0550897 0)
(1.15778 0.0663342 0)
(1.13525 0.0774574 0)
(1.11223 0.0873612 0)
(1.0885 0.0946784 0)
(1.06854 0.0978078 0)
(1.05749 0.0974311 0)
(1.05465 0.0947595 0)
(1.05842 0.0915188 0)
(1.04918 0.0858468 0)
(0.95406 0.0713724 0)
(0.711699 0.0471461 0)
(0.410058 0.0221901 0)
(0.168761 0.00597966 0)
(0.0229012 0.000334773 0)
(0.157029 0.00123195 0)
(0.791723 0.0202163 0)
(1.0598 0.0353649 0)
(1.19971 0.0474301 0)
(1.22202 0.058629 0)
(1.19922 0.0716182 0)
(1.17278 0.0845377 0)
(1.14678 0.0968134 0)
(1.11983 0.10717 0)
(1.09197 0.114158 0)
(1.06844 0.116352 0)
(1.05499 0.115033 0)
(1.05108 0.111603 0)
(1.05249 0.107622 0)
(1.03257 0.0997727 0)
(0.909541 0.0807318 0)
(0.642647 0.0509926 0)
(0.346623 0.0227582 0)
(0.131732 0.00582082 0)
(0.0154877 0.000302742 0)
(0.180328 0.00189298 0)
(0.84731 0.028801 0)
(1.10565 0.0485282 0)
(1.23115 0.0641948 0)
(1.24681 0.0784439 0)
(1.21972 0.0935609 0)
(1.18928 0.10799 0)
(1.15878 0.120939 0)
(1.12713 0.13109 0)
(1.09465 0.137039 0)
(1.06733 0.137712 0)
(1.05147 0.135119 0)
(1.04658 0.130794 0)
(1.04485 0.125812 0)
(1.00934 0.114982 0)
(0.852697 0.0897501 0)
(0.562869 0.0534706 0)
(0.279465 0.0222954 0)
(0.095408 0.00535321 0)
(0.00872178 0.000251516 0)
(0.213936 0.00335826 0)
(0.922193 0.0430968 0)
(1.16612 0.069583 0)
(1.26953 0.0891564 0)
(1.27577 0.106696 0)
(1.24232 0.123395 0)
(1.20645 0.138375 0)
(1.17043 0.150854 0)
(1.13345 0.15967 0)
(1.09606 0.163571 0)
(1.06492 0.161979 0)
(1.04673 0.157695 0)
(1.041 0.152341 0)
(1.03454 0.146064 0)
(0.976563 0.130726 0)
(0.780699 0.0971103 0)
(0.473736 0.0536786 0)
(0.212133 0.0206323 0)
(0.0620848 0.00458906 0)
(0.00307041 0.000181495 0)
(0.25981 0.00991008 1.73656e-20)
(1.02009 0.0714118 1.47509e-20)
(1.23865 0.105456 -5.06337e-21)
(1.31213 0.126502 0)
(1.30587 0.147218 -1.2005e-34)
(1.26474 0.163567 1.73233e-21)
(1.22267 0.177254 -2.98896e-21)
(1.18067 0.187801 0)
(1.13807 0.194209 5.87704e-35)
(1.09554 0.195321 -3.45121e-21)
(1.06041 0.19109 0)
(1.04018 0.185237 -4.00509e-21)
(1.03444 0.179592 -1.1759e-20)
(1.01893 0.17194 -5.54592e-21)
(0.927532 0.148644 -1.6577e-21)
(0.684883 0.102571 -9.81448e-22)
(0.370871 0.0512327 0)
(0.144543 0.0180553 6.85393e-22)
(0.0318953 0.00364079 8.11707e-22)
(-0.00157496 6.00822e-05 1.48635e-20)
(0.292177 0.0258611 1.42777e-20)
(1.10176 0.116261 1.21632e-22)
(1.2985 0.15653 1.42045e-21)
(1.35122 0.177743 0)
(1.33267 0.198355 -6.28547e-21)
(1.28449 0.212722 -6.98062e-21)
(1.23638 0.224327 -3.06073e-21)
(1.18849 0.232715 -1.04768e-20)
(1.14025 0.236847 0)
(1.09241 0.235509 1.46242e-20)
(1.05307 0.229023 1.43114e-20)
(1.02995 0.221588 4.20281e-21)
(1.0213 0.215386 1.51779e-20)
(0.988155 0.202787 2.12152e-20)
(0.845027 0.166475 0)
(0.551028 0.104644 2.96562e-20)
(0.25491 0.0465529 4.24858e-20)
(0.078656 0.0142323 4.72629e-20)
(0.00456371 0.00161831 -5.42093e-20)
(-0.0055179 -0.000456805 -1.03491e-21)
(0.294681 0.0442618 0)
(1.15509 0.174096 2.83461e-21)
(1.34032 0.218974 0)
(1.38222 0.240175 -9.2195e-21)
(1.35433 0.257434 0)
(1.30022 0.267935 -1.40584e-20)
(1.2465 0.27592 6.31012e-21)
(1.19309 0.280957 -2.13759e-20)
(1.13959 0.281898 -3.36438e-22)
(1.08691 0.277448 7.58044e-21)
(1.04384 0.268352 3.10803e-20)
(1.01822 0.259175 -2.16542e-23)
(1.00544 0.251255 -1.09383e-20)
(0.952112 0.232368 -1.96969e-20)
(0.763731 0.180716 2.32483e-20)
(0.446931 0.103373 -4.10666e-20)
(0.183394 0.0416156 -5.39262e-21)
(0.042548 0.0105674 0)
(-0.00915026 -0.000617126 -3.06991e-24)
(-0.00725859 -0.00103065 0)
(0.288577 0.059636 4.67808e-20)
(1.18554 0.235861 -2.1186e-20)
(1.3675 0.286316 -1.42708e-20)
(1.40342 0.307721 4.57628e-21)
(1.36925 0.320809 -7.5117e-21)
(1.31077 0.326746 2.9482e-20)
(1.25253 0.330347 1.3173e-20)
(1.19446 0.331283 0)
(1.13641 0.328373 -3.86969e-20)
(1.07951 0.320283 0)
(1.03322 0.308262 -1.62607e-20)
(1.00537 0.297116 -1.97592e-20)
(0.987663 0.286585 -1.1785e-20)
(0.914247 0.259667 -1.41702e-20)
(0.690938 0.1921 0)
(0.371158 0.102032 0)
(0.137271 0.0379376 -3.47747e-20)
(0.0201505 0.00717929 6.85534e-21)
(-0.0175431 -0.00295321 -4.04979e-21)
(-0.00828892 -0.00162562 -4.79659e-21)
(0.28079 0.073033 -2.53159e-20)
(1.20038 0.29758 0)
(1.38354 0.354666 3.2273e-20)
(1.41592 0.376443 1.3548e-20)
(1.37747 0.385451 1.66956e-20)
(1.31588 0.386783 0)
(1.25423 0.38584 1.31802e-20)
(1.19247 0.382407 2.3626e-20)
(1.1307 0.375314 1.99444e-20)
(1.07025 0.36327 3.49383e-20)
(1.02121 0.348126 0)
(0.991311 0.334817 -4.22029e-20)
(0.96823 0.320959 -2.51761e-20)
(0.876019 0.284949 -1.48315e-20)
(0.627932 0.201687 8.96496e-20)
(0.315864 0.101164 1.0581e-20)
(0.105864 0.0348807 4.98452e-20)
(0.0046989 0.00379946 -2.35557e-19)
(-0.0234956 -0.00540213 1.39519e-19)
(-0.00903651 -0.00223304 -1.70316e-19)
(0.272892 0.0850126 -2.03808e-20)
(1.20497 0.357166 4.76828e-21)
(1.39128 0.421981 -4.27285e-21)
(1.42142 0.444412 -1.62956e-20)
(1.37995 0.449567 -1.55713e-20)
(1.3161 0.446431 3.53069e-22)
(1.25186 0.441034 -1.41525e-20)
(1.18722 0.433237 2.44719e-20)
(1.12245 0.421878 -4.25585e-20)
(1.05909 0.405762 0)
(1.00776 0.387392 -1.92401e-20)
(0.976002 0.371802 -3.04162e-22)
(0.947381 0.354101 -2.72776e-20)
(0.838458 0.308277 0)
(0.57409 0.209863 -1.92563e-20)
(0.274401 0.100683 -4.54034e-20)
(0.0828493 0.0320444 1.20503e-19)
(-0.00685876 0.000321011 -1.18658e-19)
(-0.0280225 -0.00793006 1.68669e-19)
(-0.00959752 -0.00284004 -1.77485e-19)
(0.265769 0.0959098 -1.20787e-22)
(1.20277 0.4138 -4.07154e-21)
(1.39289 0.487146 -1.59088e-20)
(1.42139 0.510488 7.70086e-21)
(1.37775 0.512115 -8.00422e-21)
(1.31225 0.504735 0)
(1.246 0.495065 -1.37679e-20)
(1.17907 0.483019 -2.56652e-20)
(1.11186 0.467437 -2.22019e-20)
(1.0461 0.447236 0)
(0.9929 0.425616 -1.98477e-20)
(0.95951 0.407684 -2.41268e-20)
(0.925444 0.3858 2.9293e-20)
(0.802124 0.32964 -1.76083e-20)
(0.528024 0.216947 -8.28148e-20)
(0.242003 0.100432 4.87956e-20)
(0.0647781 0.0292257 1.43842e-20)
(-0.0161685 -0.0032834 0)
(-0.031653 -0.0104982 -1.61001e-19)
(-0.0100034 -0.00342934 -5.96288e-21)
(0.259635 0.106071 -2.1513e-21)
(1.1961 0.467242 3.71571e-21)
(1.38985 0.549579 8.17479e-21)
(1.41703 0.573997 2.55768e-20)
(1.37182 0.572448 -3.16482e-20)
(1.30511 0.561127 3.10769e-20)
(1.2373 0.547424 2.94111e-20)
(1.16849 0.531298 -4.09014e-20)
(1.09927 0.511588 1.30971e-20)
(1.03153 0.487331 -8.44942e-20)
(0.976823 0.462448 -2.20901e-20)
(0.94204 0.442119 0)
(0.902786 0.415784 3.14882e-20)
(0.767235 0.349047 3.73816e-20)
(0.488194 0.223121 4.43547e-20)
(0.215524 0.100241 -5.23744e-20)
(0.0496123 0.0263087 -1.54385e-20)
(-0.0242505 -0.00701758 1.82154e-20)
(-0.0347994 -0.0131094 0)
(-0.0103023 -0.00399494 -1.27899e-20)
(0.254426 0.115548 1.7746e-20)
(1.18671 0.5175 -1.32761e-20)
(1.3835 0.609311 -8.30628e-21)
(1.40936 0.634595 1.70146e-20)
(1.36296 0.630189 -1.5566e-20)
(1.29538 0.615241 -8.66697e-22)
(1.22634 0.597801 -3.17882e-20)
(1.15599 0.577815 -1.46882e-20)
(1.08506 0.554103 -3.81704e-20)
(1.01564 0.525828 2.0305e-23)
(0.959757 0.497661 -6.90178e-20)
(0.923837 0.474881 5.69775e-20)
(0.879753 0.443919 -3.41352e-20)
(0.733855 0.366578 4.0556e-20)
(0.453279 0.228462 0)
(0.193018 0.100035 -2.81041e-20)
(0.0360904 0.0232475 2.33961e-23)
(-0.0318567 -0.0109397 -7.82474e-20)
(-0.0378765 -0.0158262 -1.15763e-20)
(-0.0105513 -0.00454449 0)
(0.250138 0.124615 0)
(1.17566 0.564794 -1.34125e-20)
(1.37464 0.666163 -1.52586e-20)
(1.39919 0.692121 -1.71398e-20)
(1.35188 0.685143 -1.80071e-20)
(1.28367 0.666894 0)
(1.21365 0.646018 -1.53316e-20)
(1.142 0.622421 -2.5434e-22)
(1.06957 0.594874 8.1481e-20)
(0.99871 0.562617 -1.16508e-20)
(0.941901 0.53111 -4.9579e-20)
(0.905085 0.505785 2.97042e-20)
(0.856579 0.47007 -3.92187e-22)
(0.702099 0.382158 4.30699e-20)
(0.42234 0.233018 2.57411e-20)
(0.173304 0.099707 -6.02279e-20)
(0.0235663 0.019948 7.09793e-20)
(-0.0395093 -0.0151962 2.0973e-20)
(-0.0412828 -0.0187944 8.693e-20)
(-0.0108657 -0.005121 -2.35288e-19)
(0.246713 0.13344 2.29944e-21)
(1.1638 0.609299 -5.39829e-21)
(1.36398 0.7199 5.50101e-21)
(1.3872 0.746547 1.65624e-20)
(1.33916 0.737235 0)
(1.27049 0.715991 -1.61525e-20)
(1.19967 0.691988 5.05419e-20)
(1.1269 0.66505 3.25239e-20)
(1.05313 0.633858 0)
(0.980945 0.597663 -1.65873e-19)
(0.92339 0.562707 1.33165e-19)
(0.88593 0.534683 0)
(0.833498 0.494062 3.92851e-20)
(0.672045 0.395804 -2.93671e-22)
(0.394802 0.236761 -8.23868e-20)
(0.155759 0.0991223 3.22476e-20)
(0.0117204 0.0162681 0)
(-0.0474075 -0.0199171 1.1238e-19)
(-0.0452682 -0.0221782 0)
(-0.0113604 -0.00579125 -1.10321e-19)
(0.244082 0.142033 -1.75624e-21)
(1.15167 0.651248 -4.04317e-21)
(1.35201 0.770596 6.28073e-21)
(1.37391 0.797905 0)
(1.32529 0.786481 -1.79499e-20)
(1.25629 0.762532 0)
(1.1848 0.735689 -5.14967e-20)
(1.11102 0.705688 -1.58445e-20)
(1.03599 0.671073 1.4686e-20)
(0.962524 0.630998 -8.19802e-20)
(0.904304 0.592428 1.3864e-20)
(0.866435 0.561452 0)
(0.810655 0.515735 -8.35759e-20)
(0.643753 0.407422 2.11257e-22)
(0.370342 0.239625 0)
(0.140107 0.0980707 2.45108e-23)
(0.000554059 0.0120169 1.01849e-19)
(-0.055471 -0.0252215 -9.62666e-20)
(-0.0498658 -0.0260889 2.85023e-20)
(-0.0121086 -0.00661178 0)
(0.241925 0.150372 0)
(1.13954 0.690849 -3.02191e-21)
(1.33921 0.818379 -4.73308e-21)
(1.35977 0.846283 -5.36644e-22)
(1.31066 0.832938 -8.09051e-21)
(1.24141 0.806553 -3.67245e-20)
(1.16935 0.777151 1.8952e-20)
(1.09465 0.744362 -1.81008e-20)
(1.01839 0.706564 6.47523e-20)
(0.94359 0.662702 -1.31234e-19)
(0.884678 0.62031 -7.49811e-22)
(0.846593 0.585997 -3.71224e-20)
(0.788106 0.534928 1.34792e-19)
(0.617312 0.416981 -3.12122e-22)
(0.348757 0.241529 -6.29741e-20)
(0.126188 0.0963109 -1.11077e-19)
(-0.00967148 0.00715173 0)
(-0.0633251 -0.0311073 0)
(-0.0548342 -0.0305296 3.05177e-20)
(-0.0130973 -0.00761022 -1.80847e-20)
(0.240423 0.158657 -3.0798e-22)
(1.1276 0.728208 5.01548e-21)
(1.32593 0.863375 5.05118e-21)
(1.34512 0.891778 0)
(1.29559 0.876688 -3.13885e-22)
(1.22618 0.848121 -3.65409e-20)
(1.15362 0.816428 4.77811e-20)
(1.07805 0.781124 7.3454e-20)
(1.00055 0.74041 8.50459e-20)
(0.924294 0.6929 -1.08009e-19)
(0.864527 0.646459 -1.1437e-19)
(0.82631 0.608284 9.92868e-20)
(0.765841 0.551485 0)
(0.592757 0.42436 -2.87677e-20)
(0.329914 0.242389 -6.74535e-20)
(0.113992 0.0938281 -7.927e-20)
(-0.018792 0.00179797 -9.34079e-20)
(-0.0706053 -0.0373991 2.7602e-20)
(-0.0597563 -0.0353498 -1.63413e-20)
(-0.0142179 -0.00875657 7.98285e-24)
(0.239172 0.16672 0)
(1.11633 0.763253 0)
(1.31242 0.905703 5.13065e-22)
(1.33022 0.934507 0)
(1.28036 0.917843 2.49268e-20)
(1.21082 0.887325 2.73405e-20)
(1.13783 0.853589 0)
(1.06143 0.81604 9.13611e-21)
(0.982671 0.772692 1.43537e-19)
(0.904785 0.721739 -2.48702e-19)
(0.843858 0.671061 0)
(0.805433 0.628347 -6.40091e-20)
(0.743687 0.565202 -4.59292e-22)
(0.570078 0.429375 -2.33446e-22)
(0.313841 0.242151 7.21197e-20)
(0.103715 0.0910708 -4.84164e-24)
(-0.0269193 -0.00305099 -2.00034e-19)
(-0.0777058 -0.0432061 5.90905e-20)
(-0.0648074 -0.0402265 1.75094e-20)
(-0.0153951 -0.00998983 0)
(0.238183 0.174523 -4.1947e-21)
(1.10549 0.796519 2.46949e-22)
(1.29881 0.945461 6.52496e-21)
(1.31529 0.974589 -2.56155e-20)
(1.26516 0.956493 4.14324e-20)
(1.19555 0.924254 0)
(1.12217 0.888716 3.08172e-20)
(1.04498 0.849184 -2.01353e-20)
(0.964924 0.803497 7.98376e-22)
(0.885218 0.749373 1.82204e-20)
(0.8227 0.694361 1.49576e-19)
(0.783761 0.646343 -2.26198e-20)
(0.721363 0.575915 -8.28513e-20)
(0.549243 0.431665 -3.30721e-20)
(0.300969 0.240525 3.86547e-20)
(0.0964224 0.0889867 -7.47874e-24)
(-0.033784 -0.00494192 5.35343e-20)
(-0.0867095 -0.0467676 -1.26562e-19)
(-0.0726752 -0.0453438 1.50017e-19)
(-0.0173106 -0.011637 2.21914e-20)
(0.237241 0.182073 2.33569e-21)
(1.09511 0.828057 -3.33154e-22)
(1.28531 0.982795 1.33894e-21)
(1.30051 1.01216 -1.13708e-20)
(1.25017 0.992766 -7.47479e-21)
(1.18052 0.959002 -5.06713e-20)
(1.10682 0.921887 9.87873e-21)
(1.02886 0.880622 -8.50787e-20)
(0.947481 0.832892 -1.61475e-19)
(0.865743 0.775926 -1.50375e-19)
(0.801119 0.71664 0)
(0.76108 0.662567 -9.91697e-20)
(0.698382 0.583564 1.19203e-19)
(0.529862 0.430523 0)
(0.292142 0.236308 -8.27313e-20)
(0.0953258 0.0867852 4.85198e-20)
(-0.0349191 -0.00359553 -5.72793e-20)
(-0.0972477 -0.0489235 -6.77778e-20)
(-0.0874505 -0.0528831 -1.20463e-19)
(-0.0220338 -0.0149836 -9.51065e-20)
(0.23666 0.18945 -3.36835e-21)
(1.08508 0.8579 3.75975e-22)
(1.27201 1.01779 -1.20626e-21)
(1.286 1.04733 -1.33975e-20)
(1.23551 1.02677 1.69597e-20)
(1.16587 0.991671 -3.06773e-20)
(1.09189 0.953176 3.24857e-20)
(1.0132 0.910431 -8.92142e-20)
(0.930472 0.860954 -9.67457e-20)
(0.846516 0.801517 1.59666e-19)
(0.779205 0.738174 3.3293e-19)
(0.737219 0.677461 0)
(0.67407 0.588303 0)
(0.511015 0.425154 -3.80339e-20)
(0.287306 0.227631 0)
(0.102558 0.0802411 1.04031e-19)
(-0.0231827 -0.00809996 1.22605e-19)
(-0.0969319 -0.0578075 0)
(-0.102957 -0.0661465 0)
(-0.0309773 -0.0215016 1.02081e-19)
(0.235968 0.196406 4.65068e-21)
(1.07545 0.886081 3.35612e-21)
(1.25903 1.05059 -5.40647e-22)
(1.27186 1.08024 9.28532e-21)
(1.22128 1.05862 1.67497e-20)
(1.15168 1.02235 3.59595e-20)
(1.07749 0.982659 -4.57315e-20)
(0.998114 0.938666 -3.14693e-22)
(0.914033 0.887737 -1.0615e-21)
(0.827688 0.826231 -5.13391e-22)
(0.757106 0.759214 1.72661e-19)
(0.712086 0.691545 0)
(0.647692 0.590646 1.21718e-19)
(0.490831 0.415215 8.20438e-20)
(0.283397 0.211636 1.91834e-19)
(0.116457 0.0602427 5.59757e-20)
(0.00379555 -0.0326828 -6.58312e-20)
(-0.0649037 -0.0844931 -3.90498e-20)
(-0.0862413 -0.0826598 0)
(-0.0358399 -0.0279188 1.10078e-19)
(0.235637 0.203381 -1.21693e-20)
(1.06621 0.912711 0)
(1.24638 1.08124 1.26655e-21)
(1.25813 1.11098 6.56982e-21)
(1.20756 1.08843 -1.57599e-20)
(1.13802 1.05113 -4.60445e-20)
(1.06369 1.0104 9.39519e-20)
(0.98368 0.965379 -6.77427e-21)
(0.898261 0.913283 0)
(0.809409 0.850118 -1.80422e-19)
(0.735007 0.779962 -3.80898e-19)
(0.685712 0.705383 1.51405e-20)
(0.618661 0.591449 1.70414e-19)
(0.467321 0.401417 0)
(0.275951 0.187296 1.30183e-19)
(0.127419 0.0237121 0)
(0.0331478 -0.0872964 0)
(-0.00695519 -0.141651 -4.1992e-20)
(0.00126175 -0.108164 0)
(0.0144332 -0.0094324 2.96692e-20)
(0.235079 0.209825 -1.49439e-20)
(1.05733 0.938128 0)
(1.23406 1.10997 3.79832e-21)
(1.24479 1.1398 0)
(1.19431 1.11647 7.32282e-21)
(1.12485 1.07831 0)
(1.05044 1.03671 5.37754e-21)
(0.969821 0.990904 1.27929e-20)
(0.883056 0.937955 1.24358e-20)
(0.791537 0.873565 -2.00708e-19)
(0.712731 0.800939 1.17121e-20)
(0.657738 0.719928 1.22095e-19)
(0.58613 0.591948 1.67612e-19)
(0.438349 0.384822 2.19892e-20)
(0.260568 0.156774 1.02936e-19)
(0.12534 -0.0255578 0)
(0.0460972 -0.162729 1.38151e-19)
(0.0278291 -0.162285 -8.12385e-20)
(0.0172355 0.0209754 9.57596e-20)
(-0.0387855 0.467972 -1.13748e-19)
(0.234584 0.21611 1.3176e-20)
(1.04861 0.962179 1.73129e-20)
(1.22201 1.1371 0)
(1.23169 1.16716 9.76156e-22)
(1.18136 1.14331 -1.71492e-20)
(1.11189 1.10456 7.5713e-20)
(1.03742 1.06238 3.55533e-20)
(0.956117 1.01616 0)
(0.867879 0.962811 8.50637e-20)
(0.773385 0.897817 -1.07865e-20)
(0.689315 0.823529 0)
(0.626634 0.736638 0)
(0.547281 0.592951 1.52453e-19)
(0.400126 0.365472 -6.79659e-20)
(0.233482 0.121826 -1.05884e-19)
(0.108667 -0.0846862 0)
(0.0374734 -0.117776 7.03114e-20)
(-0.000732369 0.440209 -8.16816e-20)
(0.0255335 1.96022 -4.63683e-20)
(0.0508397 2.84158 -5.67416e-20)
(0.233852 0.221913 -1.08782e-20)
(1.04011 0.985043 -2.39832e-20)
(1.21026 1.16265 3.22218e-21)
(1.21885 1.19291 -1.77254e-21)
(1.16877 1.16877 0)
(1.09926 1.12962 5.06702e-20)
(1.02487 1.08711 5.26473e-20)
(0.942789 1.04074 -6.52899e-21)
(0.853049 0.987379 1.27405e-20)
(0.755402 0.922375 1.95361e-19)
(0.665474 0.847372 1.99594e-19)
(0.593439 0.756098 1.42032e-19)
(0.502482 0.596108 1.56094e-19)
(0.351825 0.344195 -1.63435e-19)
(0.198265 0.0897909 -1.62692e-19)
(0.0733265 -0.0160779 0)
(0.0291696 0.946732 0)
(0.0728059 2.61206 3.98453e-20)
(0.0761082 3.228 0)
(0.0788526 3.39465 1.04994e-19)
(0.236027 0.227453 0)
(1.03223 1.00714 0)
(1.19847 1.18646 0)
(1.2061 1.21694 1.96408e-22)
(1.15621 1.1926 -1.46037e-20)
(1.08677 1.15334 3.45931e-20)
(1.01272 1.1108 3.55446e-20)
(0.929776 1.06452 -6.57e-21)
(0.838514 1.01149 1.10839e-19)
(0.737606 0.947094 -1.28495e-21)
(0.641368 0.872377 4.02043e-19)
(0.558605 0.778804 -1.64767e-20)
(0.451788 0.603645 1.95307e-20)
(0.292913 0.321456 2.40088e-20)
(0.145957 0.092167 -1.09629e-21)
(0.0673569 1.06486 3.16728e-22)
(0.102972 2.79857 -2.15026e-19)
(0.107367 3.30665 -8.11851e-20)
(0.102054 3.4232 4.37043e-20)
(0.094762 3.44186 -5.00535e-20)
(0.157885 0.172002 7.41252e-21)
(1.01971 1.03118 0)
(1.18643 1.20879 -9.80467e-21)
(1.19388 1.23968 6.46448e-22)
(1.14413 1.21528 -2.2426e-20)
(1.07511 1.17622 -3.51183e-20)
(1.00075 1.13347 -3.91431e-20)
(0.917114 1.08754 8.09856e-20)
(0.82437 1.03524 -9.34849e-20)
(0.72027 0.972114 0)
(0.617414 0.898705 2.02539e-19)
(0.522807 0.804987 -1.19348e-19)
(0.401377 0.633245 0)
(0.224081 0.304955 2.41545e-20)
(0.0998785 0.66782 5.5321e-20)
(0.115914 2.62077 -6.16678e-20)
(0.15981 3.32674 6.99684e-20)
(0.147402 3.42761 3.83229e-20)
(0.124289 3.44629 4.3344e-20)
(0.107674 3.45528 7.12432e-20)
(0.270172 0.264143 -1.35814e-20)
(0.999848 1.03965 0)
(1.16628 1.23396 1.28493e-20)
(1.1782 1.2709 3.72968e-21)
(1.12557 1.24869 1.78141e-20)
(1.05599 1.20987 3.04124e-20)
(0.980385 1.16856 4.78824e-20)
(0.895951 1.12367 6.28895e-21)
(0.80124 1.07324 9.36968e-20)
(0.692939 1.01363 1.80148e-19)
(0.581286 0.9448 1.1798e-20)
(0.466749 0.845657 1.10059e-19)
(0.304948 0.639937 1.94208e-20)
(0.182915 0.786038 -2.3854e-20)
(0.189911 2.52279 -5.23757e-20)
(0.241002 3.3229 5.30199e-20)
(0.224283 3.44477 -5.89226e-20)
(0.19262 3.46524 -3.37942e-20)
(0.16182 3.49049 -3.31501e-20)
(0.118573 3.48787 -4.68634e-21)
(0.259713 0.262614 0)
(0.995716 1.06178 5.51192e-21)
(1.15654 1.25724 -3.18422e-21)
(1.16625 1.29436 -1.07232e-21)
(1.11365 1.2719 9.15126e-21)
(1.04403 1.2332 -2.80613e-20)
(0.96798 1.19199 -2.92904e-20)
(0.883052 1.14781 5.89733e-21)
(0.787222 1.09871 -1.00369e-19)
(0.676355 1.04181 -2.40322e-21)
(0.559096 0.977284 -3.81256e-19)
(0.432935 0.878251 1.585e-20)
(0.270512 0.711993 -1.87676e-20)
(0.218131 1.51397 -2.24805e-20)
(0.285237 3.1489 3.53608e-21)
(0.295529 3.44185 -1.21272e-22)
(0.257189 3.48885 9.71163e-20)
(0.225316 3.5159 5.17731e-20)
(0.181018 3.53744 -2.18001e-20)
(0.133168 3.53605 -2.67781e-20)
(0.24519 0.260013 1.55916e-20)
(0.99059 1.08641 3.85985e-20)
(1.14638 1.2826 -9.06833e-21)
(1.1539 1.31946 -3.74696e-21)
(1.10123 1.29659 0)
(1.03164 1.25786 -3.19359e-20)
(0.955433 1.21683 -3.93833e-20)
(0.870267 1.17336 5.47704e-21)
(0.773635 1.12579 -1.113e-20)
(0.660786 1.07209 -1.72866e-19)
(0.538998 1.01279 -1.81051e-19)
(0.402882 0.912813 -1.33172e-19)
(0.268841 0.882241 -1.44392e-19)
(0.288174 2.35341 1.4663e-19)
(0.369445 3.37062 1.27448e-19)
(0.337183 3.49198 0)
(0.292386 3.53382 0)
(0.25716 3.56963 -1.82159e-20)
(0.217019 3.61407 0)
(0.149098 3.60303 -3.2802e-20)
(0.234888 0.261373 -2.4654e-20)
(0.983479 1.11178 -3.45349e-20)
(1.13476 1.30917 0)
(1.14023 1.34537 1.17954e-21)
(1.08751 1.32194 3.30323e-21)
(1.01812 1.2831 -4.08842e-20)
(0.942079 1.24232 -2.35973e-20)
(0.856907 1.19953 4.2959e-21)
(0.759739 1.15353 -7.76729e-20)
(0.6454 1.10322 9.1213e-21)
(0.520201 1.04944 0)
(0.37334 0.94925 0)
(0.290822 1.21387 -1.35008e-19)