/*--------------------------------*- C++ -*----------------------------------*\
  =========                 |
  \\      /  F ield         | OpenFOAM: The Open Source CFD Toolbox
   \\    /   O peration     | Website:  https://openfoam.org
    \\  /    A nd           | Version:  6
     \\/     M anipulation  |
\*---------------------------------------------------------------------------*/
FoamFile
{
    version     2.0;
    format      ascii;
    class       surfaceScalarField;
    location    "102";
    object      phi;
}
// * * * * * * * * * * * * * * * * * * * * * * * * * * * * * * * * * * * * * //

dimensions      [0 3 -1 0 0 0 0];

internalField   nonuniform List<scalar> 
17370
(
-0.0899999
0.0898488
0.289162
-0.0714621
0.0537521
0.364486
-0.0381188
0.0276896
0.426597
-0.0196378
0.0146048
0.504285
-0.0107631
0.00827306
0.601892
-0.00627367
0.00489728
0.720434
-0.00373324
0.00289238
0.863747
-0.00215046
0.00159096
1.03601
-0.00107402
0.00066131
1.24292
-0.000253799
-0.000144634
1.49159
0.000524606
-0.000934596
1.4916
0.00133125
-0.00181521
1.24317
0.00233707
-0.00304021
1.03634
0.00385474
-0.0050004
0.864052
0.00636732
-0.0083608
0.721051
0.0108465
-0.0146828
0.603051
0.0197098
-0.027754
0.507483
0.0381754
-0.0537997
0.431793
0.0715014
-0.0898754
0.365149
0.0900163
0.198995
-0.128138
0.0882304
0.039908
-0.364601
0.353383
-0.0746677
0.0858856
-0.446477
0.454323
-0.0843808
0.076535
-0.521192
0.529905
-0.0684367
0.0597241
-0.612791
0.621571
-0.0515341
0.0427533
-0.726896
0.734168
-0.0352912
0.02802
-0.867477
0.872596
-0.0224171
0.0172986
-1.03848
1.04193
-0.0134858
0.0100327
-1.2446
1.24704
-0.00741917
0.00498328
-1.49262
1.49461
-0.00303156
0.00104588
-1.49251
1.49423
0.000625686
-0.00234858
-1.24397
1.24586
0.00425786
-0.00614267
-1.03751
1.04003
0.00849003
-0.0110062
-0.866097
0.869825
0.014352
-0.0180798
-0.724388
0.729931
0.0231204
-0.028663
-0.608696
0.616108
0.035876
-0.0432883
-0.514895
0.523038
0.052017
-0.0601599
-0.439855
0.447912
0.0688211
-0.0768783
-0.375293
0.376736
0.0846722
-0.0861151
-0.257328
0.222472
0.0748231
-0.0399676
-0.0685261
0.0587028
0.0098233
-0.0517952
0.0583731
-0.374135
0.367557
-0.0574528
0.0536972
-0.4536
0.457356
-0.0486043
0.0446489
-0.527954
0.531909
-0.0408056
0.0371633
-0.621572
0.625214
-0.0330572
0.0289768
-0.735357
0.739438
-0.0244004
0.020235
-0.874349
0.878515
-0.0158822
0.0121822
-1.0435
1.0472
-0.00843828
0.0052604
-1.24857
1.25175
-0.00192793
-0.00114918
-1.49666
1.49974
0.00419971
-0.00746792
-1.4972
1.50047
0.0105459
-0.0141395
-1.25006
1.25366
0.0176808
-0.0218591
-1.04592
1.05009
0.0258807
-0.0303175
-0.87775
0.882187
0.0342847
-0.0382779
-0.739891
0.743884
0.0418242
-0.0455686
-0.626765
0.630509
0.0494391
-0.0544511
-0.534803
0.539815
0.0581163
-0.0589234
-0.457467
0.458274
0.0522108
-0.0319994
-0.335739
0.315527
0.00989075
-0.0683358
0.058445
-0.0529555
0.0489639
0.00399159
-0.0331349
0.0436681
-0.358133
0.3476
-0.0473567
0.0467225
-0.4593
0.459935
-0.0436605
0.0403025
-0.535818
0.539176
-0.036524
0.0332143
-0.628547
0.631856
-0.0297694
0.0267301
-0.742668
0.745708
-0.0234621
0.0203464
-0.88204
0.885155
-0.016806
0.0134177
-1.05079
1.05418
-0.00961539
0.00606954
-1.25519
1.25873
-0.00209348
-0.00170904
-1.50325
1.50705
0.00547875
-0.00935455
-1.50413
1.508
0.0127583
-0.0163533
-1.2574
1.261
0.0195227
-0.0228198
-1.0539
1.0572
0.0257305
-0.0287949
-0.885665
0.88873
0.0316664
-0.0349437
-0.747135
0.750413
0.0381118
-0.0417466
-0.634286
0.637921
0.0449818
-0.0479031
-0.544117
0.547038
0.048388
-0.0444889
-0.45655
0.452651
0.0337032
-0.0162361
-0.296146
0.278679
0.004076
-0.052621
0.0485449
-0.045891
0.0434008
0.00249025
-0.0227694
0.0331291
-0.336926
0.326567
-0.0389337
0.0399394
-0.459629
0.458623
-0.0387393
0.0364453
-0.541903
0.544197
-0.0337698
0.0311657
-0.634917
0.637521
-0.0280926
0.0251828
-0.748763
0.751672
-0.0219053
0.0188992
-0.888118
0.891124
-0.0155803
0.0124688
-1.05732
1.06043
-0.00893052
0.00551184
-1.2622
1.26562
-0.00153988
-0.00235071
-1.51094
1.51483
0.00619699
-0.0100345
-1.51189
1.51572
0.0132645
-0.0165309
-1.26444
1.2677
0.0193565
-0.0223565
-1.06029
1.06329
0.0250901
-0.0280934
-0.891765
0.894769
0.0307743
-0.0336171
-0.753607
0.75645
0.0360265
-0.0385074
-0.640976
0.643457
0.0406355
-0.0416157
-0.54883
0.54981
0.0403784
-0.0342341
-0.447352
0.441208
0.0235013
-0.0102575
-0.263437
0.250193
0.00259481
-0.0453757
0.0427808
-0.041332
0.0395716
0.00176044
-0.0166979
0.0259219
-0.316738
0.307514
-0.0325015
0.0346235
-0.457039
0.454917
-0.0341882
0.0325068
-0.546186
0.547868
-0.0303152
0.0282093
-0.639839
0.641945
-0.0257647
0.0233532
-0.75433
0.756741
-0.0204774
0.0176715
-0.894032
0.896838
-0.0144166
0.0113308
-1.06349
1.06658
-0.00782383
0.00448458
-1.26895
1.27229
-0.000639827
-0.00310185
-1.51862
1.52236
0.00678681
-0.0104595
-1.51944
1.52312
0.0135578
-0.0167186
-1.27095
1.27411
0.0194408
-0.0222889
-1.06631
1.06916
0.0247442
-0.0272646
-0.89756
0.900081
0.0293791
-0.0315258
-0.758884
0.761031
0.0333819
-0.0353223
-0.645596
0.647536
0.036762
-0.0368983
-0.550309
0.550445
0.0344201
-0.0273415
-0.434511
0.427433
0.0176133
-0.00743484
-0.23863
0.228451
0.00188834
-0.0405938
0.0387055
-0.0380573
0.0367364
0.0013209
-0.0127236
0.0206322
-0.298954
0.291045
-0.0273443
0.0302393
-0.452382
0.449487
-0.0304221
0.029285
-0.549315
0.550452
-0.0272777
0.0253463
-0.643998
0.645929
-0.023128
0.0209714
-0.758997
0.761153
-0.0184326
0.0159261
-0.899428
0.901935
-0.0129578
0.010055
-1.06953
1.07244
-0.00666881
0.00340788
-1.27556
1.27882
0.000356584
-0.00399726
-1.52602
1.52966
0.00756686
-0.0111149
-1.5267
1.53025
0.0140737
-0.017027
-1.27724
1.28019
0.0194761
-0.0219366
-1.07188
1.07434
0.0240034
-0.0260944
-0.90234
0.90443
0.0278751
-0.0297151
-0.762994
0.764834
0.0313305
-0.0330315
-0.649339
0.65104
0.0338159
-0.0332134
-0.550209
0.549607
0.0298074
-0.0224101
-0.420134
0.412736
0.0138522
-0.00577817
-0.219423
0.211349
0.00147662
-0.0370472
0.0355705
-0.0355852
0.0345712
0.001014
-0.00991085
0.0165772
-0.283785
0.277119
-0.0230075
0.0263408
-0.446357
0.443024
-0.02709
0.026367
-0.551381
0.552104
-0.0245874
0.0227836
-0.647846
0.64965
-0.0206887
0.018646
-0.763247
0.76529
-0.0162422
0.0138835
-0.904294
0.906653
-0.0111096
0.00839271
-1.07517
1.07789
-0.00520183
0.00208956
-1.28197
1.28508
0.00154539
-0.00507525
-1.53322
1.53675
0.00851672
-0.0118824
-1.53368
1.53704
0.0146204
-0.0172768
-1.28305
1.28571
0.019435
-0.0215835
-1.0767
1.07885
0.0233987
-0.0252471
-0.906373
0.908222
0.026823
-0.0284481
-0.766557
0.768182
0.0298597
-0.0312131
-0.652598
0.653951
0.0314987
-0.030153
-0.548638
0.547292
0.0261137
-0.0187792
-0.40534
0.398005
0.0112956
-0.00468461
-0.204073
0.197462
0.00120352
-0.0342443
0.0330408
-0.0336842
0.0328992
0.000785077
-0.00781868
0.0133994
-0.271028
0.265447
-0.0193273
0.022842
-0.439595
0.43608
-0.0240545
0.0235713
-0.552748
0.553231
-0.0220512
0.0203511
-0.651459
0.65316
-0.0183438
0.016379
-0.767286
0.769251
-0.014058
0.0117786
-0.9089
0.91118
-0.00909902
0.00648469
-1.08048
1.08309
-0.00342732
0.000451925
-1.28807
1.29105
0.00301772
-0.00637831
-1.54016
1.54352
0.00963041
-0.0127699
-1.54025
1.54339
0.0152876
-0.017692
-1.2883
1.2907
0.0196238
-0.0215387
-1.08096
1.08288
0.0231512
-0.0247886
-0.909943
0.91158
0.0261794
-0.0276083
-0.769697
0.771126
0.0288172
-0.0297797
-0.655108
0.656071
0.0296861
-0.0276591
-0.545593
0.543566
0.0232
-0.0161102
-0.390782
0.383692
0.00951279
-0.00393316
-0.191413
0.185834
0.00101553
-0.0319412
0.0309257
-0.0322138
0.0316072
0.000606583
-0.00619671
0.0108469
-0.260363
0.255713
-0.0161656
0.0196626
-0.43258
0.429083
-0.0211822
0.0209152
-0.553653
0.55392
-0.0196176
0.0179709
-0.654891
0.656537
-0.0160111
0.0140869
-0.771183
0.773108
-0.0118144
0.00958366
-0.913352
0.915583
-0.00696194
0.00440845
-1.0856
1.08815
-0.00143189
-0.00144646
-1.29392
1.2968
0.00477345
-0.0079641
-1.54675
1.54994
0.0110222
-0.0139465
-1.54637
1.54929
0.0162676
-0.01845
-1.29307
1.29526
0.0201741
-0.0218665
-1.08478
1.08647
0.0232839
-0.0247193
-0.913088
0.914523
0.0259386
-0.0271876
-0.772452
0.773701
0.0282523
-0.0287913
-0.656829
0.657368
0.0282989
-0.0256894
-0.541238
0.538629
0.0209589
-0.0141718
-0.376755
0.369968
0.00826527
-0.0034146
-0.180653
0.175802
0.000886562
-0.0299824
0.0290958
-0.0310829
0.030622
0.000460926
-0.00488327
0.00872746
-0.251496
0.247651
-0.013391
0.0167199
-0.425687
0.422358
-0.0184044
0.0183161
-0.554155
0.554243
-0.0172004
0.0155814
-0.658247
0.659866
-0.0136335
0.0117133
-0.775011
0.776931
-0.00944687
0.00722857
-0.917711
0.91993
-0.0046313
0.00211175
-1.0906
1.09312
0.000811787
-0.00362102
-1.29958
1.30239
0.00684045
-0.009894
-1.55301
1.55607
0.0127864
-0.0155165
-1.55206
1.55479
0.0176497
-0.0196113
-1.29742
1.29938
0.021127
-0.0225995
-1.08817
1.08964
0.0238311
-0.0250806
-0.915829
0.917079
0.0261461
-0.0272321
-0.77485
0.775936
0.0280846
-0.0282524
-0.657707
0.657875
0.0273299
-0.0242122
-0.535758
0.532641
0.0192993
-0.0127985
-0.363337
0.356836
0.00740735
-0.00306474
-0.171234
0.166891
0.000801189
-0.0282589
0.0274577
-0.030232
0.0298954
0.000336629
-0.00377479
0.00690679
-0.244192
0.24106
-0.0109015
0.0139504
-0.419194
0.416145
-0.0156705
0.0157215
-0.554331
0.55428
-0.0146754
0.013117
-0.661541
0.663099
-0.0111507
0.00919985
-0.77884
0.78079
-0.00689852
0.00465489
-0.922051
0.924294
-0.0020416
-0.000478459
-1.09554
1.09806
0.00338309
-0.0061526
-1.30511
1.30788
0.00929656
-0.0122421
-1.55901
1.56196
0.0149922
-0.0175434
-1.55735
1.5599
0.0194945
-0.0212374
-1.30134
1.30309
0.0225472
-0.023805
-1.09113
1.09239
0.0248568
-0.0259274
-0.918196
0.919266
0.0268467
-0.0277726
-0.776911
0.777837
0.0283623
-0.0282261
-0.657889
0.657753
0.0268221
-0.023226
-0.529285
0.525689
0.018164
-0.0118853
-0.350465
0.344187
0.00685295
-0.00284573
-0.162741
0.158734
0.000750042
-0.0266885
0.0259384
-0.0296228
0.0293982
0.000224604
-0.00279472
0.00527961
-0.238279
0.235794
-0.00860327
0.0112871
-0.413312
0.410628
-0.0129265
0.0130409
-0.55428
0.554165
-0.0120238
0.0104931
-0.664741
0.666272
-0.0084824
0.00646914
-0.782734
0.784748
-0.00409456
0.0017884
-0.926443
0.92875
0.000883759
-0.00344408
-1.10049
1.10305
0.00637239
-0.00913814
-1.31057
1.31333
0.012241
-0.0151048
-1.5648
1.56766
0.017733
-0.0201205
-1.56228
1.56467
0.0218993
-0.0234283
-1.30485
1.30638
0.0245314
-0.0255709
-1.09369
1.09473
0.0264371
-0.0273177
-0.920197
0.921078
0.0280758
-0.0288335
-0.778591
0.779348
0.0291374
-0.0286509
-0.657485
0.656998
0.026778
-0.0227231
-0.521885
0.51783
0.0175054
-0.0113562
-0.337997
0.331848
0.00654222
-0.00273049
-0.154846
0.151035
0.000725921
-0.0252064
0.0244804
-0.0292348
0.0291177
0.000117125
-0.00187864
0.00375185
-0.233642
0.231769
-0.00639677
0.00864319
-0.408203
0.405957
-0.0100921
0.0101895
-0.554162
0.554065
-0.00916484
0.00762002
-0.667924
0.669469
-0.00553336
0.00342427
-0.786756
0.788865
-0.000936668
-0.00146989
-0.930962
0.933369
0.00424389
-0.00688441
-1.10552
1.10817
0.00987971
-0.0126789
-1.31603
1.31883
0.0157763
-0.0185846
-1.57043
1.57324
0.021109
-0.0233448
-1.56688
1.56911
0.0249566
-0.0262717
-1.30794
1.30926
0.0271689
-0.0279866
-1.09584
1.09665
0.0286585
-0.0293405
-0.921812
0.922494
0.0299416
-0.0305496
-0.779924
0.780532
0.0304868
-0.0295825
-0.656337
0.655433
0.0272151
-0.0226906
-0.513576
0.509052
0.0172789
-0.0111528
-0.32574
0.319614
0.00643198
-0.0026998
-0.147284
0.143552
0.000723835
-0.0237614
0.0230376
-0.0290623
0.0290533
8.9814e-06
-0.000977216
0.00224973
-0.23022
0.228948
-0.00419872
0.00594184
-0.404008
0.402264
-0.00709602
0.00709309
-0.554148
0.55415
-0.00601122
0.00440988
-0.671175
0.672776
-0.0022042
-3.78607e-05
-0.790969
0.793211
0.00268243
-0.00523129
-0.935682
0.938231
0.00815426
-0.0109182
-1.11073
1.1135
0.0140269
-0.0168995
-1.32157
1.32444
0.0200305
-0.0228129
-1.57595
1.57873
0.0252537
-0.027349
-1.57116
1.57325
0.0287972
-0.029903
-1.31063
1.31174
0.0305933
-0.0311866
-1.09755
1.09814
0.0316575
-0.0321265
-0.923024
0.923493
0.0325394
-0.0328728
-0.780867
0.7812
0.0325053
-0.0311001
-0.654346
0.652941
0.0281959
-0.023155
-0.504317
0.499276
0.0174767
-0.0112501
-0.313472
0.307245
0.00650156
-0.00274419
-0.139828
0.136071
0.000741268
-0.0223109
0.0215697
-0.0291084
0.029213
-0.00010454
-4.06548e-05
0.000704182
-0.228
0.227336
-0.00192618
0.00309899
-0.400857
0.399684
-0.00385623
0.00366713
-0.554413
0.554602
-0.00246764
0.000749644
-0.674589
0.676307
0.00161589
-0.00403587
-0.795447
0.797867
0.00688855
-0.0096275
-0.940689
0.943427
0.0127525
-0.015688
-1.11619
1.11913
0.0189606
-0.0219489
-1.32727
1.33025
0.0251542
-0.0279408
-1.58143
1.58422
0.0303188
-0.0322837
-1.57514
1.5771
0.0335724
-0.034468
-1.3129
1.31379
0.0349459
-0.0353025
-1.09881
1.09916
0.0355631
-0.0358109
-0.9238
0.924048
0.0360137
-0.0360018
-0.781231
0.781219
0.0352819
-0.0332909
-0.651333
0.649342
0.0297787
-0.0241399
-0.493999
0.48836
0.0180944
-0.01163
-0.300938
0.294474
0.00673525
-0.00285561
-0.132274
0.128394
0.000775753
-0.0208172
0.0200414
-0.0293895
0.0296315
-0.000242073
0.000932388
-0.000942908
-0.227014
0.227025
0.000508412
1.83749e-05
-0.398886
0.398359
-0.000275281
-0.000193024
-0.555147
0.555616
0.00158076
-0.00347693
-0.678289
0.680185
0.00606354
-0.00871418
-0.800278
0.802929
0.0118342
-0.0148185
-0.946079
0.949063
0.0182068
-0.0213687
-1.12201
1.12517
0.024862
-0.0280126
-1.33321
1.33636
0.0313336
-0.0341495
-1.58692
1.58973
0.0364758
-0.0383189
-1.57884
1.58068
0.0394565
-0.0401391
-1.31472
1.3154
0.0403903
-0.04049
-1.09958
1.09968
0.0405207
-0.0405312
-0.924111
0.924122
0.0405428
-0.0400775
-0.780899
0.780433
0.0389203
-0.0362428
-0.647141
0.644463
0.0320237
-0.0256698
-0.48244
0.476086
0.0191295
-0.0122776
-0.287858
0.281006
0.00711865
-0.00302603
-0.12443
0.120337
0.00082462
-0.019247
0.0184224
-0.029944
0.0303331
-0.000389149
0.00204062
-0.00268074
-0.227352
0.227992
0.00312209
-0.00336693
-0.398239
0.398484
0.00376672
-0.00462148
-0.55658
0.557435
0.00626474
-0.00841126
-0.682405
0.684551
0.0112952
-0.0142443
-0.805568
0.808517
0.0177032
-0.0209974
-0.951966
0.95526
0.0247186
-0.0281678
-1.12829
1.13174
0.0319433
-0.0353049
-1.33948
1.34284
0.0387843
-0.041655
-1.59247
1.59534
0.0439351
-0.0456453
-1.58225
1.58396
0.0466204
-0.0470943
-1.31608
1.31655
0.0471106
-0.0469357
-1.09983
1.09966
0.0467215
-0.0464827
-0.923907
0.923668
0.0462542
-0.0452755
-0.779685
0.778707
0.0435743
-0.0400689
-0.641568
0.638063
0.0350017
-0.0277711
-0.469389
0.462158
0.0205801
-0.0131773
-0.273925
0.266523
0.00763661
-0.00324656
-0.116117
0.111727
0.00088481
-0.0175732
0.0166884
-0.0308029
0.0313689
-0.000565987
0.00332048
-0.00477519
-0.229071
0.230526
0.00614049
-0.00720452
-0.39913
0.400194
0.00836172
-0.0097302
-0.55894
0.560309
0.0117674
-0.0142483
-0.687078
0.689559
0.0175189
-0.0208447
-0.811449
0.814774
0.0247265
-0.0284072
-0.958484
0.962165
0.0325424
-0.0363473
-1.13517
1.13897
0.0404706
-0.0440914
-1.34619
1.34981
0.0477663
-0.0507095
-1.59813
1.60107
0.0529464
-0.0545108
-1.58535
1.58692
0.0553096
-0.055559
-1.31696
1.31721
0.0553239
-0.054856
-1.09951
1.09905
0.0543847
-0.0538654
-0.923157
0.922637
0.053242
-0.0517769
-0.777535
0.77607
0.0493686
-0.0448645
-0.634321
0.629817
0.0387683
-0.030455
-0.454501
0.446187
0.0224298
-0.0143021
-0.258809
0.250681
0.00826531
-0.00350377
-0.107172
0.10241
0.000951773
-0.0157751
0.0148233
-0.0320308
0.0328308
-0.000799999
0.00489362
-0.00726053
-0.232434
0.2348
0.00970247
-0.0116989
-0.401756
0.403752
0.0137483
-0.0157594
-0.562471
0.564482
0.0183281
-0.0212416
-0.692484
0.695397
0.025015
-0.0288078
-0.818084
0.821877
0.033212
-0.0373672
-0.965791
0.969946
0.0420063
-0.0462394
-1.14276
1.147
0.0507755
-0.0546975
-1.35342
1.35734
0.0585918
-0.0616076
-1.60392
1.60693
0.0637842
-0.0651783
-1.58812
1.58952
0.0657683
-0.0657557
-1.31727
1.31726
0.0652595
-0.0644735
-1.09859
1.09781
0.0637301
-0.0629435
-0.921804
0.921017
0.0618119
-0.0597491
-0.774461
0.772398
0.0564734
-0.050727
-0.625022
0.619275
0.0433572
-0.0337005
-0.43734
0.427683
0.0246307
-0.0155997
-0.242156
0.233125
0.00896424
-0.00377635
-0.0974533
0.0922654
0.00101863
-0.0138421
0.0128235
-0.0337257
0.03483
-0.00110427
0.00686621
-0.0103357
-0.237651
0.24112
0.0140541
-0.0171397
-0.406422
0.409507
0.020208
-0.0229851
-0.567468
0.570246
0.0262401
-0.0297176
-0.698846
0.702323
0.0341385
-0.0385195
-0.825663
0.830044
0.0435669
-0.0482963
-0.974065
0.978794
0.0535348
-0.0582656
-1.15123
1.15596
0.0632659
-0.0675106
-1.36124
1.36549
0.0716186
-0.0746768
-1.60983
1.61289
0.0767496
-0.0779288
-1.5905
1.59168
0.0782758
-0.0779617
-1.31691
1.3166
0.0771777
-0.0760375
-1.097
1.09586
0.0750146
-0.0739302
-0.919869
0.918785
0.0722328
-0.069405
-0.770244
0.767416
0.065015
-0.0576869
-0.613165
0.605837
0.0487262
-0.0374134
-0.417367
0.406054
0.0270734
-0.0169744
-0.223615
0.213516
0.0096664
-0.00403167
-0.0868676
0.0812329
0.0010755
-0.011779
0.0107035
-0.0360201
0.0375428
-0.00152272
0.0094595
-0.0143002
-0.245079
0.24992
0.019533
-0.0238733
-0.413484
0.417824
0.0281174
-0.0318155
-0.574261
0.57796
0.0359391
-0.0401695
-0.70644
0.71067
0.0454082
-0.0505242
-0.834426
0.839542
0.0563564
-0.0617679
-0.983511
0.988923
0.0676956
-0.0729739
-1.1607
1.16598
0.0784546
-0.0830002
-1.36969
1.37423
0.0872598
-0.0902749
-1.61578
1.61879
0.0921518
-0.0930243
-1.59237
1.59324
0.0930693
-0.0924532
-1.31582
1.3152
0.0912971
-0.0897921
-1.09469
1.09318
0.0884866
-0.0869185
-0.917204
0.915636
0.0847054
-0.0808297
-0.764482
0.760607
0.0750093
-0.0656655
-0.598047
0.588704
0.0547173
-0.0413902
-0.393941
0.380614
0.0295594
-0.0182717
-0.202878
0.19159
0.0102718
-0.00422452
-0.0753981
0.0693508
0.00110961
-0.00961136
0.00850175
-0.0391226
0.0412508
-0.00212825
0.0130336
-0.0196288
-0.255224
0.261819
0.0266843
-0.0324876
-0.423429
0.429232
0.0381022
-0.0429245
-0.583237
0.588059
0.0481258
-0.0533137
-0.715658
0.720846
0.0596213
-0.0656487
-0.844664
0.850691
0.0724056
-0.0785818
-0.99434
1.00052
0.08524
-0.0910556
-1.17124
1.17705
0.0969532
-0.1017
-1.37867
1.38342
0.105966
-0.108784
-1.62155
1.62437
0.110314
-0.110739
-1.59351
1.59394
0.110394
-0.109389
-1.31392
1.31292
0.107846
-0.105951
-1.09165
1.08976
0.104349
-0.102233
-0.913436
0.91132
0.099381
-0.0940846
-0.756578
0.751282
0.0863525
-0.0744045
-0.578757
0.566809
0.0609842
-0.0452652
-0.366352
0.350633
0.0317711
-0.0192687
-0.179745
0.167243
0.0106474
-0.00429924
-0.0631497
0.0568015
0.00110638
-0.00739141
0.00628503
-0.0433723
0.0464345
-0.00306223
0.018226
-0.0271201
-0.268835
0.277729
0.0364056
-0.0439723
-0.436941
0.444507
0.0512279
-0.057397
-0.594902
0.601071
0.0640211
-0.0705403
-0.726925
0.733444
0.0781052
-0.0851477
-0.856695
0.863738
0.092889
-0.0998241
-1.00668
1.01362
0.107133
-0.11335
-1.18277
1.18899
0.119459
-0.124186
-1.38794
1.39266
0.128193
-0.130565
-1.6268
1.62917
0.131527
-0.131316
-1.59364
1.59343
0.130436
-0.128923
-1.31105
1.30953
0.126995
-0.124684
-1.08782
1.08551
0.122649
-0.120016
-0.908401
0.905768
0.116156
-0.108921
-0.745714
0.738479
0.0986432
-0.0833595
-0.554081
0.538797
0.0669209
-0.048476
-0.33389
0.315445
0.0332665
-0.0196875
-0.154248
0.140669
0.0106425
-0.00419901
-0.050392
0.0439485
0.00105237
-0.00519925
0.00414689
-0.0493623
0.0540023
-0.00463998
0.0262677
-0.0382629
-0.287097
0.299092
0.0504233
-0.060345
-0.455122
0.465044
0.0696489
-0.0774436
-0.609832
0.617627
0.0858067
-0.093864
-0.740753
0.748811
0.102794
-0.110833
-0.87073
0.878768
0.11942
-0.126892
-1.02045
1.02792
0.134524
-0.140796
-1.19494
1.20121
0.146703
-0.151023
-1.39695
1.40127
0.154355
-0.155931
-1.63096
1.63254
0.156029
-0.154939
-1.59235
1.59126
0.153364
-0.151239
-1.30696
1.30484
0.148875
-0.146068
-1.08305
1.08025
0.143583
-0.140227
-0.901955
0.898599
0.134873
-0.124824
-0.730702
0.720653
0.111098
-0.0915993
-0.522501
0.503003
0.0716087
-0.0502784
-0.29602
0.27469
0.0335292
-0.0192498
-0.1268
0.112521
0.0101261
-0.00388127
-0.0375858
0.031341
0.000937648
-0.00313718
0.00219953
-0.0582201
0.0661393
-0.00791922
0.0403521
-0.0569227
-0.312212
0.328782
0.073132
-0.0861775
-0.479573
0.492619
0.097617
-0.106994
-0.62855
0.637927
0.117081
-0.126562
-0.757364
0.766845
0.136575
-0.145141
-0.886522
0.895088
0.153934
-0.16131
-1.03501
1.04238
0.168581
-0.174278
-1.2069
1.2126
0.179345
-0.182679
-1.40486
1.40819
0.184785
-0.185096
-1.63329
1.6336
0.183947
-0.18169
-1.58915
1.5869
0.179222
-0.176365
-1.30139
1.29854
0.173476
-0.170101
-1.07717
1.0738
0.167008
-0.162474
-0.893446
0.888912
0.154823
-0.140668
-0.709631
0.695477
0.122245
-0.0976615
-0.482164
0.457581
0.0739
-0.0499642
-0.252706
0.22877
0.0321936
-0.0178389
-0.0983634
0.0840086
0.0090701
-0.00334289
-0.0253604
0.0196332
0.000757983
-0.00131472
0.000556736
-0.0734903
0.0779678
-0.00447751
0.0309902
-0.0455329
-0.348216
0.362758
0.0601062
-0.0721358
-0.511583
0.523613
0.0831555
-0.0936805
-0.650901
0.661426
0.105729
-0.116816
-0.775642
0.786729
0.129211
-0.140322
-0.902656
0.913767
0.15231
-0.163133
-1.04888
1.0597
0.1747
-0.184886
-1.21728
1.22747
0.195419
-0.204272
-1.41045
1.41931
0.212849
-0.219334
-1.63282
1.63931
0.223762
-0.226843
-1.58342
1.5865
0.228605
-0.229929
-1.29404
1.29536
0.230707
-0.230211
-1.06973
1.06923
0.228727
-0.223333
-0.881425
0.87603
0.211195
-0.188015
-0.67972
0.65654
0.158168
-0.120748
-0.431507
0.394087
0.0873535
-0.056014
-0.2049
0.173561
0.0344748
-0.0182318
-0.0705205
0.0542774
0.00881744
-0.00303141
-0.014397
0.00861098
0.000608225
0.000213843
-0.000822068
-0.0857836
0.0839052
0.00187837
0.00877197
-0.0183995
-0.380246
0.389874
0.0296164
-0.0384543
-0.540596
0.549434
0.0475054
-0.0564072
-0.674708
0.68361
0.067419
-0.0777841
-0.797249
0.807614
0.0889844
-0.0992826
-0.924311
0.93461
0.110385
-0.120077
-1.07029
1.07998
0.130658
-0.139642
-1.23752
1.24651
0.148967
-0.156633
-1.42797
1.43564
0.163769
-0.169125
-1.6453
1.65066
0.172617
-0.174847
-1.58902
1.59125
0.175689
-0.176204
-1.29499
1.29551
0.17639
-0.17556
-1.06693
1.0661
0.172739
-0.164947
-0.86514
0.857348
0.15083
-0.127717
-0.628927
0.605815
0.101614
-0.0724441
-0.354385
0.325215
0.0493577
-0.0299752
-0.143503
0.12412
0.0176216
-0.00891062
-0.0393884
0.0306774
0.00409546
-0.00132004
-0.00314875
0.000373318
0.000220153
0.00161275
-0.0018329
-0.087549
0.0845744
0.00297458
-0.000533786
-0.00516808
-0.402294
0.407996
0.012739
-0.0193988
-0.562447
0.569107
0.0262906
-0.0339786
-0.695083
0.702772
0.0435953
-0.0526342
-0.816893
0.825932
0.0626247
-0.0716667
-0.944099
0.953142
0.0811966
-0.0899395
-1.08955
1.09829
0.0993092
-0.10741
-1.25514
1.26324
0.115433
-0.121955
-1.44279
1.44932
0.128204
-0.132643
-1.65562
1.66006
0.13531
-0.136811
-1.59302
1.59452
0.137104
-0.137172
-1.29471
1.29477
0.136645
-0.135311
-1.0623
1.06097
0.131657
-0.122643
-0.845301
0.836287
0.108373
-0.0872195
-0.579434
0.55828
0.0658408
-0.0443994
-0.2943
0.272859
0.0292756
-0.0174918
-0.105157
0.0933735
0.0102342
-0.00521121
-0.0221966
0.0171736
0.00242583
-0.000796245
0.00257449
-0.00420408
0.000140539
0.00225277
-0.00239331
-0.0863659
0.0834861
0.00287973
-0.00467215
0.00168774
-0.417266
0.420251
0.00333408
-0.00845966
-0.579027
0.584153
0.0143381
-0.0208176
-0.711914
0.718394
0.0290923
-0.0368791
-0.834177
0.841964
0.0454581
-0.0532596
-0.961613
0.969414
0.0618924
-0.0694032
-1.1066
1.11411
0.0776659
-0.0843786
-1.27095
1.27767
0.0914178
-0.0971043
-1.45569
1.46138
0.102324
-0.105733
-1.66428
1.66768
0.107901
-0.109032
-1.59562
1.59675
0.109016
-0.108312
-1.2938
1.29309
0.107332
-0.105466
-1.05636
1.0545
0.101291
-0.0923086
-0.823324
0.814342
0.078894
-0.0610203
-0.534565
0.516691
0.044551
-0.0295388
-0.250423
0.235411
0.0194963
-0.0118874
-0.0810094
0.0734004
0.00714389
-0.00377474
-0.0117258
0.00835661
0.00183867
-0.000640297
0.00612521
-0.00732359
0.000126026
0.00266436
-0.00279039
-0.0848404
0.0822258
0.00261459
-0.006273
0.005009
-0.427443
0.428707
-0.00120191
-0.0026833
-0.592401
0.596286
0.00742259
-0.013247
-0.726096
0.73192
0.0201967
-0.0270225
-0.848925
0.855751
0.0344543
-0.0412376
-0.976728
0.983511
0.048666
-0.0553278
-1.12147
1.12813
0.0623774
-0.0684555
-1.28423
1.29031
0.0745305
-0.0793852
-1.46671
1.47156
0.0837503
-0.0864614
-1.67104
1.67376
0.0880669
-0.0885501
-1.59728
1.59777
0.0882232
-0.0873164
-1.29179
1.29088
0.0859474
-0.0834329
-1.04957
1.04705
0.0791855
-0.0706877
-0.801616
0.793119
0.0590483
-0.0444667
-0.49671
0.482129
0.0321004
-0.0214746
-0.219098
0.208472
0.0144657
-0.00916427
-0.0649417
0.0596403
0.00575659
-0.00318687
-0.0044243
0.00185457
0.00163104
-0.00059822
0.00880563
-0.00983845
0.00013276
0.00300284
-0.0031356
-0.0832998
0.0809977
0.00230208
-0.00657152
0.00594961
-0.434472
0.435094
-0.00362808
0.000465704
-0.602767
0.605929
0.0040645
-0.00901828
-0.738094
0.743048
0.0149517
-0.0208331
-0.861664
0.867545
0.0273733
-0.0333748
-0.989893
0.995895
0.0400747
-0.0458588
-1.13447
1.14025
0.0520906
-0.0574411
-1.29604
1.3014
0.0626804
-0.0667916
-1.47611
1.48022
0.0703501
-0.072771
-1.67641
1.67883
0.0737888
-0.0739818
-1.59785
1.59804
0.0733332
-0.0721055
-1.28942
1.28819
0.070648
-0.0676439
-1.0422
1.0392
0.0633258
-0.0556966
-0.781136
0.773507
0.0457833
-0.0341051
-0.465615
0.453937
0.0247915
-0.0170366
-0.196464
0.188709
0.0119884
-0.00800044
-0.0533752
0.0493872
0.00526093
-0.0030565
0.0012823
-0.00348673
0.00162994
-0.000631632
0.0110968
-0.0120951
0.000150194
0.00330789
-0.00345808
-0.0819817
0.0801145
0.00186725
-0.00603977
0.00591293
-0.439584
0.439711
-0.00405115
0.0016857
-0.611712
0.614077
0.0024441
-0.00687083
-0.748405
0.752831
0.0123888
-0.0173926
-0.872938
0.877942
0.0230525
-0.0282831
-1.00181
1.00704
0.0344672
-0.039577
-1.146
1.15111
0.0449645
-0.0497779
-1.30649
1.3113
0.0547402
-0.0582355
-1.48426
1.48776
0.0612806
-0.0630351
-1.68081
1.68256
0.0638698
-0.0633929
-1.59799
1.59752
0.0626238
-0.0612885
-1.2865
1.28517
0.0594554
-0.0564467
-1.03452
1.03151
0.0521666
-0.0451599
-0.762399
0.755392
0.0370086
-0.0276325
-0.440259
0.430883
0.0205201
-0.0148183
-0.179626
0.173924
0.0109466
-0.00771958
-0.0444438
0.0412168
0.00534252
-0.00325772
0.00624265
-0.00832745
0.00181253
-0.000735586
0.0132993
-0.0143762
0.000188299
0.00361779
-0.00380609
-0.0810768
0.0795548
0.00152195
-0.00523355
0.00539938
-0.443417
0.443251
-0.00379113
0.00163882
-0.619336
0.621489
0.00214951
-0.00605994
-0.757505
0.761416
0.0107096
-0.0154007
-0.882825
0.887516
0.020495
-0.0256895
-1.012
1.01719
0.0308799
-0.0355432
-1.15625
1.16092
0.0407379
-0.044957
-1.31588
1.3201
0.0489691
-0.0523983
-1.49104
1.49447
0.0549966
-0.0563873
-1.68428
1.68567
0.0566893
-0.0560878
-1.59715
1.59655
0.0550395
-0.0534018
-1.28323
1.2816
0.051412
-0.0482061
-1.027
1.0238
0.0440367
-0.037908
-0.745426
0.739297
0.0308376
-0.0234343
-0.419619
0.412216
0.018048
-0.0136713
-0.166904
0.162528
0.0106089
-0.00790565
-0.0370761
0.0343728
0.00571279
-0.00364999
0.0109184
-0.0129811
0.00212218
-0.000899977
0.0156377
-0.0168599
0.000246158
0.00398617
-0.00423233
-0.0806507
0.0793254
0.00132523
-0.00414485
0.0041916
-0.446574
0.446527
-0.00290503
0.000874107
-0.626126
0.628157
0.00252804
-0.00621512
-0.765779
0.769466
0.010549
-0.0146873
-0.891935
0.896073
0.019736
-0.0239278
-1.02171
1.02591
0.0288578
-0.0330962
-1.16566
1.16989
0.0378494
-0.0419145
-1.32418
1.32824
0.0457739
-0.0484787
-1.4975
1.50021
0.0507728
-0.0518531
-1.68682
1.6879
0.0520555
-0.0509586
-1.59566
1.59456
0.0496521
-0.0476931
-1.27979
1.27783
0.0454871
-0.0420237
-1.01927
1.01581
0.0380029
-0.0323232
-0.730225
0.724546
0.0263647
-0.0204133
-0.402975
0.397024
0.0162136
-0.0129111
-0.156958
0.153655
0.0104298
-0.00809059
-0.0307647
0.0284255
0.00606562
-0.00403597
0.0154749
-0.0175046
0.00242984
-0.0010861
0.0182012
-0.019545
0.000310374
0.00444514
-0.00475551
-0.0804579
0.0794643
0.000993653
-0.00312833
0.00278511
-0.449561
0.449904
-0.0017649
-0.000237633
-0.631954
0.633957
0.00321496
-0.00668024
-0.773293
0.776758
0.0107158
-0.0148636
-0.900018
0.904166
0.019118
-0.0233167
-1.03024
1.03444
0.0279965
-0.0317875
-1.17448
1.17827
0.0363413
-0.0400342
-1.33197
1.33567
0.0435116
-0.0462821
-1.50317
1.50594
0.0484307
-0.0490742
-1.68881
1.68945
0.0487095
-0.0474959
-1.59342
1.5922
0.0459986
-0.0436229
-1.27544
1.27306
0.0410029
-0.0374954
-1.01138
1.00787
0.0330588
-0.0279207
-0.71619
0.711052
0.0227837
-0.0178801
-0.389437
0.384533
0.0146184
-0.011956
-0.149079
0.146417
0.00992152
-0.00790507
-0.0252816
0.0232652
0.0060925
-0.00418757
0.0198645
-0.0217694
0.00261528
-0.00122013
0.0209489
-0.022344
0.000369444
0.00500081
-0.00537026
-0.0806476
0.0798302
0.000817416
-0.00224759
0.00201043
-0.452562
0.452799
-0.000539662
-0.00123023
-0.637671
0.639441
0.00431057
-0.00756689
-0.7801
0.783357
0.0113397
-0.0149663
-0.907924
0.911551
0.0192185
-0.0229493
-1.03857
1.0423
0.0273887
-0.0314345
-1.18244
1.18649
0.0353459
-0.0390826
-1.33928
1.34302
0.0426024
-0.0450116
-1.50842
1.51083
0.0469226
-0.047657
-1.69008
1.69081
0.0469525
-0.0454945
-1.59056
1.5891
0.0434164
-0.0406925
-1.2704
1.26768
0.0378157
-0.03383
-1.00317
0.999185
0.0293852
-0.0243367
-0.703255
0.698206
0.0197316
-0.0155043
-0.377951
0.373724
0.0127507
-0.0105707
-0.142634
0.140454
0.00885588
-0.00717391
-0.0205479
0.0188659
0.00564681
-0.00399424
0.0238823
-0.0255349
0.0025662
-0.00124514
0.0237027
-0.0250238
0.000395415
0.00563334
-0.00602875
-0.0811262
0.0804839
0.000642276
-0.00122393
0.000853373
-0.455572
0.455942
0.00040815
-0.00243058
-0.642831
0.644854
0.00538801
-0.00842295
-0.786496
0.789531
0.0121961
-0.0155826
-0.91511
0.918497
0.0195606
-0.0232965
-1.04646
1.0502
0.0274836
-0.0313184
-1.19029
1.19412
0.0352291
-0.0387379
-1.34654
1.35005
0.0420948
-0.0448747
-1.51336
1.51614
0.0466694
-0.0470347
-1.69121
1.69157
0.0462541
-0.0442306
-1.58718
1.58515
0.041917
-0.0389072
-1.26453
1.26152
0.0353738
-0.0309702
-0.994255
0.989851
0.0262806
-0.0211121
-0.690891
0.685723
0.0168743
-0.013053
-0.368059
0.364238
0.0106668
-0.00874959
-0.137172
0.135255
0.00733744
-0.00598854
-0.0165482
0.0151993
0.00479256
-0.00347783
0.0273149
-0.0286296
0.00229586
-0.00116211
0.0262137
-0.0273475
0.000397611
0.00627692
-0.00667453
-0.0818399
0.0813214
0.000518546
-0.000379852
-7.408e-05
-0.458645
0.459098
0.0013695
-0.00339658
-0.64795
0.649977