/*--------------------------------*- C++ -*----------------------------------*\
  =========                 |
  \\      /  F ield         | OpenFOAM: The Open Source CFD Toolbox
   \\    /   O peration     | Website:  https://openfoam.org
    \\  /    A nd           | Version:  6
     \\/     M anipulation  |
\*---------------------------------------------------------------------------*/
FoamFile
{
    version     2.0;
    format      ascii;
    class       volVectorField;
    location    "35";
    object      U;
}
// * * * * * * * * * * * * * * * * * * * * * * * * * * * * * * * * * * * * * //

dimensions      [0 1 -1 0 0 0 0];

internalField   nonuniform List<vector> 
2200
(
(0.877626 -0.0201821 0)
(1.00471 -0.039995 0)
(1.00281 -0.0342789 0)
(1.00026 -0.0232162 0)
(0.999809 -0.01554 0)
(0.999993 -0.0101571 0)
(0.999987 -0.00638787 0)
(1 -0.00393173 0)
(0.999979 -0.00220047 0)
(1.0001 -0.000700139 0)
(0.999988 0.000970393 0)
(0.999868 0.00242239 0)
(0.999905 0.00413289 0)
(1.00003 0.00659314 0)
(1.00006 0.010348 0)
(0.999741 0.0156598 0)
(1.00025 0.0233106 0)
(1.00291 0.0343331 0)
(1.0047 0.0400326 0)
(0.877615 0.0202042 0)
(0.700766 -0.0265918 0)
(0.993578 -0.0586305 0)
(1.02975 -0.0597389 0)
(1.02181 -0.0488489 0)
(1.01388 -0.0360408 0)
(1.00828 -0.0249817 0)
(1.00508 -0.0167272 0)
(1.00316 -0.0105654 0)
(1.00214 -0.00572522 0)
(1.00172 -0.00168326 0)
(1.00173 0.00235119 0)
(1.00221 0.00644535 0)
(1.00318 0.0112712 0)
(1.00496 0.0173608 0)
(1.00808 0.0254234 0)
(1.01386 0.0364852 0)
(1.02174 0.0492167 0)
(1.02945 0.0600293 0)
(0.993431 0.0587639 0)
(0.700527 0.0266219 0)
(0.530474 -0.0213966 0)
(0.966259 -0.0552283 0)
(1.05267 -0.0605571 0)
(1.04844 -0.0533148 0)
(1.03251 -0.0416523 0)
(1.02148 -0.0317842 0)
(1.0138 -0.0231271 0)
(1.00898 -0.0155835 0)
(1.00637 -0.00884265 0)
(1.00511 -0.0024566 0)
(1.00507 0.00386634 0)
(1.00624 0.0101641 0)
(1.00879 0.0167967 0)
(1.01349 0.024165 0)
(1.02112 0.0327634 0)
(1.03205 0.0424537 0)
(1.04797 0.0539174 0)
(1.05247 0.0608042 0)
(0.965597 0.0555206 0)
(0.529526 0.0214891 0)
(0.393209 -0.0132553 0)
(0.909844 -0.0453475 0)
(1.05574 -0.0513572 0)
(1.06637 -0.0472593 0)
(1.05112 -0.0390604 0)
(1.03572 -0.0313168 0)
(1.02454 -0.0240636 0)
(1.01687 -0.0170653 0)
(1.01196 -0.0100467 0)
(1.00929 -0.00265595 0)
(1.00921 0.00481842 0)
(1.01166 0.0120679 0)
(1.0164 0.0187692 0)
(1.02396 0.0256044 0)
(1.03512 0.0326556 0)
(1.05039 0.0400668 0)
(1.06563 0.0480255 0)
(1.0545 0.0518104 0)
(0.908406 0.0456923 0)
(0.391311 0.0133837 0)
(0.309323 -0.00618559 0)
(0.846457 -0.0330481 0)
(1.04826 -0.042848 0)
(1.07715 -0.0391585 0)
(1.06506 -0.0331454 0)
(1.04855 -0.0273295 0)
(1.03586 -0.0221918 0)
(1.02656 -0.0165751 0)
(1.0201 -0.0099461 0)
(1.01644 -0.00248081 0)
(1.01631 0.00503335 0)
(1.01957 0.0124578 0)
(1.02585 0.0189639 0)
(1.0349 0.0243172 0)
(1.0473 0.0291447 0)
(1.06384 0.0347834 0)
(1.07569 0.0404327 0)
(1.04611 0.0438014 0)
(0.843201 0.0334946 0)
(0.306236 0.00633637 0)
(0.265426 -0.0019311 0)
(0.788835 -0.0218836 0)
(1.03205 -0.0337396 0)
(1.0815 -0.0320506 0)
(1.07489 -0.0274634 0)
(1.05855 -0.0226365 0)
(1.04565 -0.0187784 0)
(1.03523 -0.0144921 0)
(1.02762 -0.00899258 0)
(1.02365 -0.0019579 0)
(1.02335 0.00569449 0)
(1.02678 0.0125681 0)
(1.03394 0.0177064 0)
(1.0441 0.0215041 0)
(1.05691 0.0249965 0)
(1.07311 0.0293696 0)
(1.07934 0.0335048 0)
(1.02909 0.0347977 0)
(0.78421 0.0224161 0)
(0.261413 0.00210401 0)
(0.241134 -0.000355129 0)
(0.738832 -0.0140261 0)
(1.01297 -0.0265813 0)
(1.08252 -0.0264124 0)
(1.08125 -0.02302 0)
(1.0662 -0.0186965 0)
(1.05335 -0.0151596 0)
(1.04307 -0.0114608 0)
(1.03496 -0.00727554 0)
(1.03029 -0.00136972 0)
(1.02981 0.0058124 0)
(1.03375 0.0114552 0)
(1.04121 0.0152509 0)
(1.0512 0.0185714 0)
(1.06387 0.021753 0)
(1.07859 0.0256116 0)
(1.07926 0.0284787 0)
(1.00802 0.0279584 0)
(0.731679 0.0146996 0)
(0.235799 0.000576885 0)
(0.226186 -5.93489e-05 0)
(0.695557 -0.0092867 0)
(0.991966 -0.0218993 0)
(1.08065 -0.0231418 0)
(1.08548 -0.0202946 0)
(1.07226 -0.0163905 0)
(1.05958 -0.0130039 0)
(1.05028 -0.00931388 0)
(1.04291 -0.00538108 0)
(1.03777 -0.000139532 0)
(1.03724 0.0062951 0)
(1.04134 0.0111404 0)
(1.04801 0.0146512 0)
(1.05664 0.0177745 0)
(1.06882 0.0203515 0)
(1.08158 0.0235942 0)
(1.07579 0.0256245 0)
(0.984909 0.0236413 0)
(0.685801 0.0101446 0)
(0.219447 0.000353618 0)
(0.216359 -8.7028e-05 0)
(0.660061 -0.00651734 0)
(0.971742 -0.0185412 0)
(1.07808 -0.0206805 0)
(1.08882 -0.0182914 0)
(1.0773 -0.0151012 0)
(1.06489 -0.0121916 0)
(1.05576 -0.00856929 0)
(1.04869 -0.00387139 0)
(1.04297 0.00114437 0)
(1.04216 0.00625106 0)
(1.04637 0.0109201 0)
(1.05232 0.0149085 0)
(1.06085 0.0176245 0)
(1.07306 0.0199793 0)
(1.08368 0.0222739 0)
(1.07163 0.0240345 0)
(0.961869 0.0206901 0)
(0.646702 0.00758572 0)
(0.207668 0.000452893 0)
(0.208895 -3.90098e-05 0)
(0.631252 -0.00475857 0)
(0.952651 -0.0158506 0)
(1.07463 -0.0189031 0)
(1.09174 -0.0168633 0)
(1.08188 -0.013795 0)
(1.06948 -0.0108773 0)
(1.05963 -0.00710621 0)
(1.05236 -0.00175483 0)
(1.04685 0.00293119 0)
(1.04583 0.00639731 0)
(1.04959 0.0106029 0)
(1.05553 0.015046 0)
(1.06442 0.0179404 0)
(1.0759 0.0197946 0)
(1.0848 0.0221063 0)
(1.06532 0.0226403 0)
(0.938705 0.0184093 0)
(0.613692 0.0061332 0)
(0.197952 0.000486427 0)
(0.202957 0.000121306 0)
(0.608069 -0.00327177 0)
(0.934732 -0.0132352 0)
(1.07137 -0.0167035 0)
(1.09446 -0.0151257 0)
(1.08582 -0.012171 0)
(1.07322 -0.00891412 0)
(1.06305 -0.00524181 0)
(1.05584 -0.000336614 0)
(1.0513 0.00420907 0)
(1.05002 0.00728668 0)
(1.05242 0.011211 0)
(1.05779 0.0152547 0)
(1.06656 0.0177505 0)
(1.07846 0.0199019 0)
(1.08552 0.0213231 0)
(1.05966 0.0217298 0)
(0.916884 0.016532 0)
(0.5855 0.00502574 0)
(0.189154 0.000416649 0)
(0.19842 0.000259968 0)
(0.589927 -0.00194959 0)
(0.919085 -0.0104452 0)
(1.06777 -0.0144337 0)
(1.09695 -0.0130725 0)
(1.08921 -0.0100017 0)
(1.07612 -0.00676232 0)
(1.06596 -0.00347506 0)
(1.05859 0.000868627 0)
(1.05398 0.00535255 0)
(1.05239 0.00884795 0)
(1.05401 0.0126405 0)
(1.05927 0.0158459 0)
(1.06792 0.0178933 0)
(1.07969 0.0195437 0)
(1.08512 0.0207959 0)
(1.05112 0.0204312 0)
(0.894173 0.0146152 0)
(0.560679 0.00408467 0)
(0.181045 0.000403044 0)
(0.195433 0.000351385 0)
(0.57644 -0.000740402 0)
(0.90514 -0.00795173 0)
(1.06479 -0.0112581 0)
(1.09958 -0.0096565 0)
(1.09292 -0.00706049 0)
(1.07947 -0.00451652 0)
(1.06889 -0.00164464 0)
(1.06051 0.00243098 0)
(1.05508 0.00689794 0)
(1.05293 0.0107301 0)
(1.05464 0.0143533 0)
(1.06035 0.0169015 0)
(1.06902 0.0180629 0)
(1.08089 0.0187666 0)
(1.08474 0.0196789 0)
(1.04415 0.019072 0)
(0.874239 0.0129595 0)
(0.539736 0.00343919 0)
(0.173722 0.000477942 0)
(0.193936 0.000385436 0)
(0.567036 3.11677e-05 0)
(0.89414 -0.00514762 0)
(1.0624 -0.00831654 0)
(1.10309 -0.00645916 0)
(1.09776 -0.00371518 0)
(1.08428 -0.00129576 0)
(1.07303 0.00143408 0)
(1.06354 0.00521228 0)
(1.05741 0.00912016 0)
(1.055 0.0127053 0)
(1.05669 0.0154323 0)
(1.0626 0.0173653 0)
(1.0713 0.0180176 0)
(1.08262 0.0186928 0)
(1.08353 0.0189284 0)
(1.03401 0.0176962 0)
(0.853017 0.0114355 0)
(0.520703 0.00320049 0)
(0.166682 0.000597987 0)
(0.194062 0.000372994 0)
(0.562691 0.00106316 0)
(0.887233 -0.00276346 0)
(1.06119 -0.00484042 0)
(1.10648 -0.00291419 0)
(1.10316 -0.000454014 0)
(1.09011 0.00192288 0)
(1.07849 0.0050858 0)
(1.0686 0.00851013 0)
(1.06168 0.0116392 0)
(1.05813 0.0145953 0)
(1.05922 0.0166877 0)
(1.06458 0.018103 0)
(1.07312 0.0189763 0)
(1.08265 0.0190803 0)
(1.08175 0.0183352 0)
(1.02627 0.016533 0)
(0.835897 0.010399 0)
(0.505273 0.00311845 0)
(0.160278 0.00064925 0)
(0.195472 0.000482786 0)
(0.562729 0.00180648 0)
(0.881402 -0.000338597 0)
(1.0605 -0.00202214 0)
(1.11029 -0.000136159 0)
(1.10788 0.00254291 0)
(1.0949 0.00566555 0)
(1.08333 0.00923651 0)
(1.07384 0.0124252 0)
(1.06644 0.0152474 0)
(1.06216 0.0178562 0)
(1.06184 0.0191036 0)
(1.06538 0.0199377 0)
(1.07301 0.0205833 0)
(1.08189 0.0198042 0)
(1.07792 0.018697 0)
(1.01374 0.0161267 0)
(0.815178 0.0096151 0)
(0.489325 0.00312058 0)
(0.15358 0.000723514 0)
(0.199102 0.00085111 0)
(0.564937 0.00242866 0)
(0.880655 0.00256195 0)
(1.06131 0.00153323 0)
(1.11322 0.00360117 0)
(1.11177 0.00635124 0)
(1.09879 0.0092908 0)
(1.08687 0.0128681 0)
(1.0772 0.0162363 0)
(1.06871 0.0193778 0)
(1.06315 0.0219383 0)
(1.06187 0.0228986 0)
(1.06498 0.0230395 0)
(1.07208 0.0224748 0)
(1.07998 0.0207662 0)
(1.07371 0.0188565 0)
(1.00419 0.0157168 0)
(0.799693 0.00916595 0)
(0.476638 0.00327602 0)
(0.14754 0.000821881 0)
(0.204006 0.00120966 0)
(0.57051 0.00355694 0)
(0.883361 0.0051101 0)
(1.06368 0.00509031 0)
(1.11774 0.00781135 0)
(1.11636 0.010969 0)
(1.10264 0.0141293 0)
(1.08968 0.0178208 0)
(1.07865 0.021125 0)
(1.06871 0.0243909 0)
(1.06259 0.0268285 0)
(1.06073 0.0274134 0)
(1.06265 0.0265043 0)
(1.06917 0.0251563 0)
(1.07618 0.0230037 0)
(1.06659 0.0206038 0)
(0.989393 0.0163446 0)
(0.778797 0.00924392 0)
(0.46074 0.00371328 0)
(0.140319 0.00099 0)
(0.212615 0.00158972 0)
(0.583299 0.00524957 0)
(0.891236 0.00822272 0)
(1.06862 0.0100699 0)
(1.12237 0.0131414 0)
(1.12176 0.0166567 0)
(1.10764 0.0203421 0)
(1.09396 0.0240242 0)
(1.08148 0.0274517 0)
(1.06988 0.0306355 0)
(1.06179 0.0324497 0)
(1.05859 0.0324045 0)
(1.06037 0.0309112 0)
(1.0663 0.0283113 0)
(1.0718 0.0254719 0)
(1.05987 0.0216473 0)
(0.977628 0.0166933 0)
(0.76359 0.00977102 0)
(0.447641 0.00436047 0)
(0.13344 0.00116632 0)
(0.222221 0.00184548 0)
(0.597659 0.00622573 0)
(0.902128 0.0108502 0)
(1.07608 0.014245 0)
(1.12948 0.0182037 0)
(1.12908 0.0228143 0)
(1.11453 0.0270599 0)
(1.10013 0.0314785 0)
(1.08626 0.0352777 0)
(1.07268 0.0382607 0)
(1.06235 0.0396333 0)
(1.05707 0.0389331 0)
(1.05641 0.0362512 0)
(1.06126 0.0328043 0)
(1.06566 0.0291642 0)
(1.04985 0.024536 0)
(0.960176 0.0184366 0)
(0.74111 0.0109935 0)
(0.428976 0.00514067 0)
(0.124467 0.00135647 0)
(0.236485 0.00244191 0)
(0.620747 0.0082626 0)
(0.921002 0.0148309 0)
(1.08748 0.0199157 0)
(1.13801 0.0246986 0)
(1.13759 0.0295216 0)
(1.12212 0.0350873 0)
(1.1066 0.0402729 0)
(1.09124 0.0447778 0)
(1.07581 0.0481907 0)
(1.06276 0.0492201 0)
(1.05514 0.0473031 0)
(1.05343 0.0434496 0)
(1.05683 0.0385017 0)
(1.05897 0.0338667 0)
(1.03965 0.0277037 0)
(0.944926 0.0206733 0)
(0.723162 0.0129668 0)
(0.41192 0.00619183 0)
(0.115485 0.00158876 0)
(0.252922 0.00308242 0)
(0.645858 0.00963972 0)
(0.942483 0.0178129 0)
(1.10179 0.0250179 0)
(1.14867 0.031154 0)
(1.14746 0.0385727 0)
(1.13036 0.0451292 0)
(1.11297 0.0513172 0)
(1.09494 0.0565487 0)
(1.07626 0.0600921 0)
(1.05965 0.0602778 0)
(1.04977 0.0573941 0)
(1.0459 0.0522689 0)
(1.04822 0.0462517 0)
(1.0492 0.0403294 0)
(1.02588 0.0330134 0)
(0.923298 0.0246476 0)
(0.694874 0.0155227 0)
(0.386393 0.00725783 0)
(0.103377 0.00183029 0)
(0.275755 0.0043037 0)
(0.680562 0.0138673 0)
(0.971294 0.0240827 0)
(1.12094 0.03326 0)
(1.16279 0.041652 0)
(1.15937 0.0497505 0)
(1.14015 0.0580028 0)
(1.11976 0.0654454 0)
(1.09842 0.0715443 0)
(1.07644 0.0751269 0)
(1.05718 0.0745607 0)
(1.04491 0.0699 0)
(1.03993 0.0628211 0)
(1.04084 0.054933 0)
(1.03907 0.0476755 0)
(1.01102 0.0386251 0)
(0.901677 0.0289134 0)
(0.669367 0.018334 0)
(0.361911 0.00857531 0)
(0.091129 0.00210362 0)
(0.306978 0.00536064 0)
(0.726417 0.0165187 0)
(1.00944 0.0308884 0)
(1.14588 0.0435676 0)
(1.18067 0.0530809 0)
(1.17473 0.0650358 0)
(1.15185 0.075063 0)
(1.12772 0.0839232 0)
(1.10217 0.0904402 0)
(1.07534 0.0931379 0)
(1.05114 0.0904404 0)
(1.03563 0.0836596 0)
(1.0287 0.0751467 0)
(1.02807 0.0657711 0)
(1.02474 0.0566156 0)
(0.991413 0.0459261 0)
(0.872158 0.0340028 0)
(0.630673 0.0212322 0)
(0.326529 0.00955631 0)
(0.0752998 0.00228629 0)
(0.342317 0.00874481 0)
(0.781557 0.0252065 0)
(1.05392 0.0419834 0)
(1.1761 0.0576619 0)
(1.20336 0.0717112 0)
(1.19196 0.0854566 0)
(1.16486 0.0972879 0)
(1.13604 0.107116 0)
(1.10557 0.11365 0)
(1.07448 0.115316 0)
(1.04753 0.110705 0)
(1.03001 0.101618 0)
(1.02126 0.0904896 0)
(1.01859 0.0788304 0)
(1.01018 0.0674276 0)
(0.968748 0.0540085 0)
(0.839898 0.0396955 0)
(0.5941 0.024612 0)
(0.293957 0.0112029 0)
(0.0606319 0.00251771 0)
(0.421382 0.0137401 0)
(0.864466 0.0348625 0)
(1.11494 0.05952 0)
(1.214 0.0812408 0)
(1.22939 0.0953465 9.92211e-34)
(1.21157 0.113471 -4.34374e-34)
(1.17795 0.126585 0)
(1.14334 0.136953 0)
(1.10735 0.14226 0)
(1.07089 0.140855 0)
(1.03896 0.132508 0)
(1.01723 0.119877 0)
(1.00535 0.106768 0)
(0.999754 0.0931999 0)
(0.989096 0.0794743 0)
(0.94006 0.0636463 0)
(0.798351 0.0458807 0)
(0.540778 0.0280448 0)
(0.245331 0.0113048 0)
(0.0411508 0.00226087 0)
(0.486121 0.0284062 8.25855e-20)
(0.959929 0.0557991 -6.20026e-20)
(1.17925 0.088298 0)
(1.25158 0.11363 4.47399e-20)
(1.25695 0.133169 -3.62504e-20)
(1.22909 0.152816 4.583e-34)
(1.18859 0.165991 0)
(1.14766 0.175176 2.31424e-20)
(1.10585 0.177968 -7.52403e-20)
(1.06458 0.173338 1.51755e-20)
(1.02984 0.16186 0)
(1.00685 0.146784 -3.68486e-20)
(0.993334 0.130798 -4.36426e-20)
(0.984281 0.114473 7.61568e-20)
(0.962385 0.0964512 -5.99406e-20)
(0.897757 0.0757789 0)
(0.739908 0.0543044 -2.14468e-20)
(0.471963 0.0317074 0)
(0.192389 0.013354 -1.1819e-19)
(0.0237969 0.00210681 1.39588e-19)
(0.519395 0.0534785 -1.03866e-20)
(1.01836 0.0934309 2.06261e-19)
(1.22549 0.12994 -1.83613e-20)
(1.28356 0.157266 -1.23827e-19)
(1.27992 0.179522 -7.67232e-20)
(1.24348 0.199868 1.24236e-19)
(1.19658 0.212719 0)
(1.15013 0.219942 0)
(1.10331 0.219655 1.20372e-19)
(1.05667 0.211073 0)
(1.01573 0.195434 1.34947e-19)
(0.985256 0.177023 3.95354e-20)
(0.962827 0.159082 3.70232e-22)
(0.944634 0.139444 -8.30481e-20)
(0.921264 0.118975 0)
(0.853082 0.0959186 0)
(0.690699 0.0684027 -3.50464e-19)
(0.431265 0.0449954 8.7777e-19)
(0.176945 0.0175454 -5.20551e-19)
(0.0184667 0.00265372 -6.14772e-19)
(0.52774 0.0748622 -1.53487e-19)
(1.05151 0.140445 5.4172e-20)
(1.25944 0.184678 2.50257e-20)
(1.30875 0.212374 2.17666e-19)
(1.29746 0.234636 1.37862e-20)
(1.25389 0.253494 -3.27666e-19)
(1.2014 0.264017 1.09059e-19)
(1.14958 0.267943 0)
(1.09706 0.263958 -2.56012e-19)
(1.04486 0.251795 2.19751e-19)
(0.99981 0.232869 -3.63556e-19)
(0.966386 0.211986 1.69108e-19)
(0.944378 0.192215 -1.06554e-19)
(0.925971 0.172787 2.41429e-19)
(0.891584 0.149073 0)
(0.817492 0.119028 -8.71074e-20)
(0.661525 0.0894918 0)
(0.421172 0.0566467 4.82707e-19)
(0.177962 0.0273089 -1.14598e-18)
(0.0230908 0.00440789 7.17796e-19)
(0.52574 0.103363 5.29893e-19)
(1.07124 0.192181 -2.23616e-19)
(1.28101 0.243392 -4.22565e-20)
(1.3255 0.273232 0)
(1.30852 0.295214 -1.55983e-19)
(1.2596 0.311619 1.90551e-19)
(1.20249 0.318472 -1.17299e-19)
(1.14613 0.318212 0)
(1.08949 0.310059 1.82245e-19)
(1.03325 0.293333 -1.55041e-19)
(0.982455 0.269807 3.14403e-19)
(0.942463 0.246145 0)
(0.911998 0.224666 -2.26849e-19)
(0.886262 0.202435 1.28641e-19)
(0.856682 0.177056 3.19124e-19)
(0.789425 0.150551 -2.80717e-19)
(0.642564 0.11485 4.47815e-19)
(0.41752 0.0760464 -9.91048e-19)
(0.18949 0.0382849 6.25974e-19)
(0.0324117 0.00741983 -7.83468e-19)
(0.514015 0.130634 -2.51408e-19)
(1.07896 0.243333 1.83235e-19)
(1.29322 0.304347 -1.36959e-19)
(1.33438 0.336916 2.41742e-19)
(1.3132 0.358073 -2.09192e-19)
(1.26062 0.371619 6.3667e-20)
(1.20039 0.374478 3.5687e-21)
(1.14056 0.369253 -2.1871e-19)
(1.08034 0.356214 -1.92461e-19)
(1.02029 0.334924 -3.32727e-19)
(0.964844 0.309099 -6.75319e-19)
(0.920556 0.282245 -2.0415e-19)
(0.891117 0.258301 2.32447e-21)
(0.865892 0.235854 -4.34308e-19)
(0.829253 0.213185 -6.20485e-21)
(0.760417 0.177924 4.06722e-19)
(0.624793 0.140469 -1.22387e-19)
(0.418111 0.0960331 -7.14137e-20)
(0.203084 0.0508684 0)
(0.0419106 0.0115628 1.65679e-18)
(0.498013 0.15469 0)
(1.07531 0.29132 -4.15079e-20)
(1.29679 0.363161 -3.89631e-20)
(1.33663 0.399759 -1.22885e-20)
(1.31255 0.420994 2.13498e-19)
(1.25738 0.431965 -1.42728e-19)
(1.19483 0.430628 1.30465e-19)
(1.13231 0.420712 3.56408e-19)
(1.0686 0.402877 -1.05846e-19)
(1.00363 0.378142 1.68317e-19)
(0.941524 0.348262 3.62628e-19)
(0.894677 0.317691 4.42914e-19)
(0.860269 0.289329 -2.63489e-19)
(0.830301 0.266807 4.686e-19)
(0.798754 0.241147 -3.69505e-19)
(0.739783 0.211132 0)
(0.615089 0.167423 -9.25856e-19)
(0.421813 0.117568 1.24659e-18)
(0.214797 0.0648008 9.29404e-20)
(0.0496019 0.0162557 -1.7413e-18)
(0.483098 0.177173 -6.62833e-21)
(1.06823 0.33844 2.43285e-19)
(1.29528 0.42078 2.89605e-19)
(1.33379 0.46083 -2.95287e-19)
(1.30727 0.48201 1.63054e-19)
(1.25021 0.490782 -1.44819e-19)
(1.18638 0.48593 2.66178e-19)
(1.122 0.471461 -1.13425e-19)
(1.05584 0.449033 -4.33855e-19)
(0.988001 0.420165 1.64653e-22)
(0.924776 0.386547 -3.92168e-19)
(0.87575 0.353305 -4.74739e-19)
(0.841222 0.323396 2.88259e-19)
(0.81235 0.299553 -1.68123e-19)
(0.778024 0.274667 3.9931e-19)
(0.717097 0.236639 0)
(0.602278 0.193375 -5.71413e-19)
(0.423183 0.138572 8.43682e-19)
(0.224021 0.0786317 1.60062e-18)
(0.05545 0.0210567 -1.8835e-18)
(0.469425 0.197821 3.53107e-19)
(1.05733 0.382822 -1.90312e-19)
(1.28963 0.475511 -2.49107e-19)
(1.32737 0.51932 3.1207e-19)
(1.29883 0.54081 1.12733e-20)
(1.24035 0.547549 -2.95051e-19)
(1.17568 0.53923 -1.49475e-19)
(1.10997 0.520797 -1.35901e-19)
(1.04147 0.494676 -2.40185e-19)
(0.968313 0.461972 3.84865e-19)
(0.8987 0.424998 4.02203e-19)
(0.85006 0.386847 7.55224e-19)
(0.813663 0.354634 0)
(0.782081 0.328698 5.8349e-21)
(0.751152 0.300471 -1.0877e-18)
(0.69963 0.268564 2.53332e-19)
(0.591619 0.218089 1.22933e-18)
(0.421431 0.160021 -3.62216e-19)
(0.227236 0.0923194 7.5697e-19)
(0.058478 0.0251556 -6.31183e-20)
(0.458262 0.217517 8.06042e-21)
(1.04659 0.426223 -1.36912e-19)
(1.28144 0.528729 -1.64625e-19)
(1.31811 0.575412 4.54747e-19)
(1.28782 0.596629 -4.44981e-19)
(1.22825 0.601428 3.03669e-19)
(1.16291 0.590248 1.56438e-19)
(1.09587 0.568475 4.15869e-19)
(1.02505 0.538928 4.92348e-19)
(0.950038 0.502942 -4.34271e-19)
(0.882583 0.462042 0)
(0.832998 0.419608 -2.8056e-19)
(0.79395 0.386345 3.22108e-19)
(0.764698 0.359275 3.97855e-19)
(0.7323 0.333674 -2.30266e-19)
(0.676982 0.29181 -5.57974e-19)
(0.573996 0.244041 -1.66337e-19)
(0.412277 0.178316 -1.36488e-21)
(0.221739 0.102617 0)
(0.0579421 0.0271272 0)
(0.449506 0.23621 1.03203e-19)
(1.03498 0.467221 0)
(1.27129 0.579178 -1.60131e-19)
(1.30699 0.628847 5.21555e-20)
(1.27521 0.650008 4.85475e-19)
(1.21473 0.652811 -1.27495e-19)
(1.14896 0.638696 1.61604e-19)
(1.0812 0.614038 -2.8641e-19)
(1.00867 0.581739 3.78526e-19)
(0.93022 0.543085 -1.34941e-19)
(0.8566 0.496857 2.29386e-19)
(0.806333 0.450169 8.90316e-19)
(0.769549 0.414566 1.36972e-20)
(0.735785 0.386586 -4.16761e-19)
(0.705877 0.35504 7.62136e-19)
(0.658515 0.322128 4.45351e-21)
(0.560799 0.265179 1.77958e-19)
(0.402973 0.194558 -8.48579e-19)
(0.214618 0.10873 8.67612e-19)
(0.0552327 0.0282763 -1.0293e-18)
(0.443381 0.25488 6.67621e-23)
(1.02402 0.506896 0)
(1.25996 0.627432 0)
(1.29449 0.679381 -7.09119e-20)
(1.26136 0.700146 -1.62333e-19)
(1.20011 0.701046 1.57789e-19)
(1.13406 0.684553 -3.19314e-19)
(1.06526 0.657404 0)
(0.99035 0.622773 -5.52751e-19)
(0.909408 0.581012 6.25993e-19)
(0.839702 0.530918 6.41739e-19)
(0.788955 0.482013 -3.24698e-19)
(0.746029 0.444304 -3.87189e-19)
(0.7177 0.412695 9.05065e-19)
(0.686143 0.384644 -2.70777e-19)
(0.634848 0.339498 -3.22445e-19)
(0.540195 0.285452 -1.92732e-19)
(0.388007 0.207059 -9.13168e-19)
(0.204173 0.112538 1.32014e-19)
(0.0505406 0.0284686 1.10868e-18)
(0.438701 0.273994 2.94922e-20)
(1.01338 0.544803 6.36891e-20)
(1.24783 0.673471 2.2626e-20)
(1.28103 0.727588 2.48828e-22)
(1.24673 0.747945 -1.12275e-19)
(1.18504 0.746817 3.00822e-19)
(1.11873 0.727761 0)
(1.04914 0.698483 1.69162e-19)
(0.972738 0.662285 -1.33386e-19)
(0.890042 0.617911 1.04857e-18)
(0.816987 0.563494 -1.44909e-19)
(0.761499 0.509528 1.6356e-19)
(0.720472 0.469028 0)
(0.687882 0.435918 -4.88573e-19)
(0.658191 0.40035 5.86918e-19)
(0.615016 0.364217 0)
(0.52389 0.299019 -4.1576e-19)
(0.371389 0.216468 1.22227e-18)
(0.191934 0.114249 1.43835e-19)
(0.0451308 0.0276301 -1.3631e-18)
(0.435221 0.292513 4.71179e-20)
(1.00324 0.58102 -5.93424e-20)
(1.23539 0.71689 0)
(1.26723 0.772729 -1.42096e-19)
(1.23188 0.792602 0)
(1.1696 0.78967 -3.47135e-19)
(1.10314 0.768482 0)
(1.03292 0.737489 0)
(0.954803 0.699771 -1.64837e-19)
(0.869753 0.652995 -9.92843e-19)
(0.794871 0.595436 -1.18166e-18)
(0.737739 0.538269 1.87109e-19)
(0.69559 0.494396 6.67817e-19)
(0.66667 0.457167 5.34585e-19)
(0.638403 0.42571 -1.88328e-18)
(0.589863 0.374205 -7.53834e-19)
(0.498645 0.313296 4.41298e-19)
(0.351665 0.221908 0)
(0.178422 0.114158 1.2384e-18)
(0.0393572 0.0261564 -1.46711e-18)
(0.432915 0.310065 -3.55809e-20)
(0.993891 0.615733 5.13635e-20)
(1.22283 0.758386 0)
(1.25303 0.815807 -1.06321e-20)
(1.21665 0.835124 6.72429e-20)
(1.15421 0.830211 0)
(1.08791 0.806882 9.75324e-20)
(1.01701 0.77424 1.09704e-19)
(0.937424 0.735613 -3.21954e-19)
(0.850728 0.687443 1.36473e-19)
(0.773086 0.625428 0)
(0.712667 0.563359 7.80811e-19)
(0.667909 0.516441 5.24117e-21)
(0.636328 0.477299 2.87906e-19)
(0.608485 0.435208 3.40674e-19)
(0.567927 0.394398 0)
(0.480756 0.320078 -7.22125e-19)
(0.331555 0.225205 1.41841e-18)
(0.163898 0.112371 -1.5029e-18)
(0.0338006 0.0241044 3.15797e-18)
(0.43154 0.326652 0)
(0.985158 0.64869 0)
(1.21047 0.797357 4.12766e-20)
(1.23905 0.855966 0)
(1.20186 0.874696 0)
(1.13919 0.868094 -3.49325e-19)
(1.07297 0.842952 1.01598e-19)
(1.0017 0.809139 1.75513e-20)
(0.920763 0.769912 -7.74495e-20)
(0.831376 0.719899 0)
(0.75106 0.654644 -1.76783e-19)
(0.685279 0.591057 -6.34655e-19)
(0.641642 0.539421 -7.55738e-19)
(0.614256 0.4933 -3.01001e-19)
(0.586981 0.456846 3.68816e-19)
(0.542313 0.397391 -8.69138e-19)
(0.452678 0.328941 1.55264e-18)
(0.30954 0.224976 4.59269e-21)
(0.148925 0.108714 -1.44186e-18)
(0.0287254 0.0217578 -2.12943e-19)
(0.430901 0.342344 0)
(0.977279 0.680271 3.00857e-20)
(1.19835 0.834593 -3.47159e-20)
(1.22513 0.894327 0)
(1.18706 0.912401 0)
(1.1244 0.903885 7.30253e-19)
(1.05851 0.876897 0)
(0.986777 0.841963 0)
(0.904252 0.802055 -7.11338e-19)
(0.813549 0.75146 1.7842e-19)
(0.729901 0.684584 -1.59241e-18)
(0.660901 0.617597 0)
(0.613247 0.560411 -8.1656e-19)
(0.579292 0.511086 1.07086e-20)
(0.554344 0.458631 -1.18415e-18)
(0.517359 0.412024 4.6747e-19)
(0.434225 0.327183 2.72307e-21)
(0.288932 0.221351 -1.64265e-18)
(0.134702 0.103572 7.77188e-19)
(0.0248701 0.0190942 2.2782e-19)
(0.430701 0.357287 0)
(0.969946 0.7102 -4.49436e-21)
(1.1866 0.869522 -3.63257e-20)
(1.21162 0.929985 -1.88576e-19)
(1.17292 0.947362 -9.20875e-20)
(1.1104 0.937307 8.84328e-20)
(1.04487 0.908847 -8.52442e-20)
(0.972659 0.872962 7.7529e-19)
(0.889102 0.833107 7.60933e-19)
(0.796539 0.781863 1.39555e-18)
(0.710016 0.712911 1.32354e-18)
(0.636499 0.644727 2.28043e-19)
(0.584897 0.582295 1.17275e-18)
(0.553598 0.523383 7.14786e-19)
(0.529037 0.475703 8.48805e-19)
(0.489661 0.40432 -5.10825e-19)
(0.405644 0.327952 -5.99995e-19)
(0.271462 0.214597 7.068e-19)
(0.125557 0.094282 -4.1755e-19)
(0.0233365 0.0162392 7.36244e-19)
(0.430744 0.371561 3.6468e-20)
(0.963201 0.738743 1.93377e-21)
(1.17518 0.902806 -1.39661e-20)
(1.1984 0.964056 1.6886e-20)
(1.15903 0.980675 2.62695e-19)
(1.09675 0.968826 -2.06645e-19)
(1.03157 0.938851 8.73916e-20)
(0.958966 0.902205 -2.15233e-20)
(0.87412 0.861911 -8.91535e-19)
(0.780385 0.810589 -1.50842e-18)
(0.690655 0.742328 9.36775e-20)
(0.611941 0.672098 0)
(0.55636 0.604549 0)
(0.515595 0.541943 -3.74068e-19)
(0.488093 0.469599 -1.38399e-18)
(0.457644 0.408743 1.09864e-18)
(0.388768 0.310684 6.54539e-19)
(0.260256 0.197194 0)
(0.131392 0.0837031 1.33582e-18)
(0.031204 0.0146392 -7.92471e-19)
(0.430863 0.385167 -1.72766e-20)
(0.956839 0.765729 1.8609e-20)
(1.16413 0.933987 1.74365e-20)
(1.18559 0.995586 7.31359e-20)
(1.14579 1.01139 7.74279e-20)
(1.08396 0.99816 -5.94561e-20)
(1.01935 0.967092 0)
(0.946275 0.929782 -9.81767e-19)
(0.860327 0.889397 1.09437e-19)
(0.765459 0.837961 0)
(0.673576 0.76868 0)
(0.590636 0.698542 1.41405e-19)
(0.526878 0.629577 1.85023e-19)
(0.485567 0.554867 -4.02198e-19)
(0.456602 0.487054 9.93415e-19)
(0.416754 0.383763 -1.1938e-18)
(0.355439 0.29178 -1.39965e-18)
(0.267987 0.16633 1.23526e-18)
(0.180579 0.0690063 -4.80783e-19)
(0.0889529 0.0260654 2.80204e-19)
(0.43089 0.397953 4.18877e-20)
(0.950774 0.791242 0)
(1.15336 0.963568 0)
(1.17313 1.0257 3.36021e-20)
(1.13294 1.04066 -2.72056e-20)
(1.07166 1.02578 -2.14851e-20)
(1.00742 0.993543 3.60747e-19)
(0.93386 0.955774 1.04351e-18)
(0.846736 0.915025 1.6393e-18)
(0.750626 0.863812 -1.11161e-19)
(0.655174 0.796851 2.241e-19)
(0.566192 0.727496 -1.27729e-18)
(0.500277 0.655166 -1.24377e-18)
(0.445978 0.581239 -2.14839e-19)
(0.403027 0.479989 0)
(0.37305 0.388362 -8.61913e-21)
(0.321396 0.236053 7.62242e-19)
(0.246908 0.0939906 -1.31877e-18)
(0.193072 -0.0374804 1.01921e-18)
(0.0689054 -0.0323069 8.75347e-19)
(0.430842 0.410323 -9.94442e-20)
(0.944703 0.815224 -5.10523e-20)
(1.14276 0.991245 8.22658e-21)
(1.16098 1.05362 -5.753e-21)
(1.12063 1.06778 0)
(1.05998 1.05174 -3.91252e-19)
(0.996255 1.01883 -4.93305e-19)
(0.922006 0.980781 2.082e-20)
(0.833926 0.940059 -8.66119e-19)
(0.736965 0.888579 -1.09379e-19)
(0.639461 0.82053 1.0159e-19)
(0.547934 0.752911 1.12031e-18)
(0.470456 0.683934 1.21465e-18)
(0.412404 0.598473 2.08306e-19)
(0.367403 0.514126 1.04775e-18)
(0.29937 0.358452 0)
(0.196541 0.225271 0)
(0.0471336 0.269623 8.72051e-19)
(-0.0369255 0.705478 -1.87998e-20)
(0.00115233 1.66614 -9.77305e-19)
(0.430633 0.422118 5.86021e-20)
(0.93887 0.838041 1.06639e-19)
(1.13235 1.01773 -7.36595e-20)
(1.14912 1.08069 -5.05425e-20)
(1.10873 1.09423 4.55811e-20)
(1.04878 1.07697 -3.97996e-19)
(0.985244 1.04344 0)
(0.910378 1.00545 -8.9257e-19)
(0.821179 0.964885 0)
(0.722533 0.914162 1.6065e-18)
(0.619821 0.849794 -1.18001e-19)
(0.521459 0.785658 1.32308e-19)
(0.444061 0.714758 1.38347e-18)
(0.37161 0.641952 -4.44706e-19)
(0.280266 0.51638 -5.33275e-19)
(0.210474 0.42628 0)
(0.095614 0.586747 0)
(0.0296845 1.4115 0)
(0.0588951 2.4961 -5.07715e-19)
(0.0739606 2.92127 -3.05818e-19)
(0.430216 0.433265 0)
(0.933144 0.859611 0)
(1.12225 1.04263 3.33801e-20)
(1.13767 1.10573 5.21806e-20)
(1.09743 1.11873 -1.21873e-19)
(1.03828 1.10084 3.78329e-19)
(0.975104 1.06723 6.06055e-20)
(0.899348 1.02958 -4.71865e-20)
(0.809148 0.989364 1.19139e-19)
(0.709247 0.93839 -1.84497e-18)
(0.605492 0.873211 2.1987e-19)
(0.505998 0.811856 1.11928e-18)
(0.415652 0.750571 -1.38232e-18)
(0.331526 0.66217 -1.48479e-18)
(0.25868 0.589616 4.98348e-19)
(0.169038 0.757562 0)
(0.0960979 1.65726 6.9776e-19)
(0.105575 2.71434 7.94716e-19)
(0.110391 3.08227 -8.96863e-19)
(0.0980704 3.20809 9.88728e-19)
(0.429436 0.444 0)
(0.927604 0.879952 1.38634e-19)
(1.1124 1.06634 -5.85355e-21)
(1.12662 1.12998 -9.5677e-21)
(1.08669 1.1426 1.27925e-19)
(1.0284 1.12401 0)
(0.965196 1.09034 0)
(0.888701 1.05315 0)
(0.79739 1.0136 7.31606e-19)
(0.696075 0.964241 9.08855e-20)
(0.587555 0.90464 0)
(0.480556 0.848219 -1.11773e-18)
(0.392129 0.784817 0)
(0.295219 0.716664 1.06056e-18)
(0.210284 0.810276 -7.14845e-19)
(0.156592 1.55143 -5.69527e-19)
(0.14996 2.71349 -1.34806e-18)
(0.16468 3.12559 -7.33758e-19)
(0.142093 3.25408 -1.07649e-18)
(0.12456 3.28931 9.48049e-19)
(0.427834 0.453507 -5.54141e-20)
(0.92216 0.899084 1.69398e-20)
(1.10293 1.08868 -9.50382e-21)
(1.11606 1.15235 2.25154e-20)
(1.07662 1.16461 0)
(1.01916 1.14589 0)
(0.956019 1.11263 0)
(0.878463 1.07628 6.13847e-20)
(0.786436 1.03748 -9.19378e-19)
(0.684067 0.988027 0)
(0.575311 0.927831 0)
(0.471561 0.875121 0)
(0.364236 0.819282 0)
(0.300744 0.823355 7.88988e-19)
(0.254007 1.27434 1.91151e-18)
(0.213146 2.48121 5.65771e-19)
(0.220065 3.09935 1.18173e-18)
(0.207836 3.27575 -9.29343e-19)
(0.169044 3.32955 3.35575e-19)
(0.149029 3.34038 0)
(0.425514 0.46184 6.00908e-20)
(0.915972 0.916664 -3.40845e-19)
(1.09336 1.11028 -7.83482e-20)
(1.10582 1.17483 -1.01525e-20)
(1.06705 1.18685 -3.44839e-20)
(1.01032 1.16773 3.69756e-19)
(0.946815 1.13476 -3.79824e-20)
(0.868543 1.09913 -8.08543e-19)
(0.775745 1.06151 0)
(0.67272 1.01485 -1.07169e-19)
(0.559676 0.961242 9.74853e-20)
(0.448681 0.914203 0)
(0.368882 0.878403 0)
(0.301301 1.05262 -9.80858e-19)
(0.249491 1.95954 1.40492e-19)
(0.239969 2.98484 -4.51504e-19)
(0.263867 3.28247 9.79745e-19)
(0.244827 3.36524 7.74738e-19)
(0.189763 3.38562 -1.22727e-18)
(0.169724 3.39402 6.19608e-19)
(0.422552 0.469771 1.27054e-19)
(0.909192 0.934443 3.51637e-19)
(1.08349 1.13238 8.57282e-20)
(1.0956 1.19735 0)
(1.05755 1.20891 0)
(1.00129 1.1896 -2.80821e-19)
(0.937526 1.15713 3.31072e-19)
(0.858358 1.1226 7.27285e-19)
(0.765558 1.08608 4.19798e-20)
(0.661737 1.03937 1.4576e-18)
(0.550932 0.985369 -1.58971e-18)
(0.444311 0.940254 0)
(0.37225 0.962214 0)
(0.323562 1.41532 -6.83041e-19)
(0.302816 2.60736 -8.20692e-19)
(0.335563 3.21265 0)
(0.35404 3.35393 -1.17254e-18)
(0.280549 3.40556 -7.18266e-20)
(0.210358 3.43755 9.22704e-19)
(0.184557 3.45476 -4.18295e-19)
(0.418925 0.478103 -2.4809e-19)
(0.901514 0.952576 -1.7329e-19)
(1.0729 1.15548 0)
(1.08492 1.22183 0)
(1.04761 1.23303 0)
(0.991725 1.21289 0)
(0.927452 1.18045 -3.64909e-19)
(0.848037 1.14661 7.16046e-19)
(0.754998 1.11136 0)
(0.651967 1.06821 -1.33079e-18)
(0.538452 1.02166 2.8682e-18)
(0.436788 0.992915 1.13534e-19)
(0.384683 1.10749 1.41987e-19)
(0.354941 1.89158 1.11935e-18)
(0.354355 2.97029 -6.36841e-19)
(0.387293 3.31867 0)
(0.362143 3.4195 3.59691e-19)
(0.278295 3.49138 7.51905e-20)
(0.225388 3.5341 -1.66014e-20)
(0.192247 3.5304 2.20475e-19)
(0.414999 0.487349 1.20551e-19)
(0.893583 0.972166 -1.94839e-19)
(1.06193 1.17965 0)
(1.07373 1.24645 -7.60812e-21)
(1.037 1.25706 -7.16269e-21)
(0.981283 1.23635 0)
(0.916792 1.20413 0)
(0.837023 1.17139 -1.27409e-18)
(0.744914 1.13731 -9.3789e-20)
(0.641482 1.09388 1.35234e-18)
(0.529203 1.04618 -1.37454e-18)
(0.451595 1.03501 7.62731e-19)
(0.41065 1.3241 0)
(0.392941 2.33196 -5.99739e-19)
(0.418258 3.19041 3.7928e-19)
(0.462148 3.41572 2.97775e-19)
(0.437271 3.49375 0)
(0.375591 3.54699 6.86297e-20)
(0.324678 3.56311 -1.05868e-19)
(0.241911 3.49968 -2.23901e-21)
(0.410656 0.497454 -2.54299e-19)
(0.884788 0.992193 2.84099e-19)
(1.05009 1.20456 1.69095e-19)
(1.06159 1.2729 -3.69491e-20)