/*--------------------------------*- C++ -*----------------------------------*\
| =========                 |                                                 |
| \\      /  F ield         | OpenFOAM: The Open Source CFD Toolbox           |
|  \\    /   O peration     | Version:  2106                                  |
|   \\  /    A nd           | Website:  www.openfoam.com                      |
|    \\/     M anipulation  |                                                 |
\*---------------------------------------------------------------------------*/
FoamFile
{
    version     2.0;
    format      ascii;
    arch        "LSB;label=32;scalar=64";
    class       volScalarField;
    location    "2";
    object      T;
}
// * * * * * * * * * * * * * * * * * * * * * * * * * * * * * * * * * * * * * //

dimensions      [0 0 0 1 0 0 0];

internalField   nonuniform List<scalar> 
1000
(
0
0
0
0
0
0
0
0
0
0
0
0
0
0
0
0
0
0
0
0
0
0
0
0
0
0
0
0
0
0
0
0
0
0
0
0
0
0
0
0
0
0
0
0
0
0
0
0
0
0
0
0
0
0
0
0
0
0
0
0
0
0
0
0
0
0
0
0
0
0
0
0
0
0
0
0
0
0
0
0
0
0
0
0
0
0
0
0
0
0
0
0
0
0
0
0
0
0
0
0
0
0
0
0
0
0
0
0
0
0
0
0
0
0
0
0
0
0
0
0
0
0
0
0
0
0
0
0
0
0
0
0
0
0
0
0
0
0
0
0
0
0
0
0
0
0
0
0
0
0
0
0
0
0
0
0
0
0
0
0
0
0
0
0
0
0
0
0
0
0
0
0
0
0
0
0
0
0
0
0
0
0
0
0
0
0
0
0
0
0
0
0
0
0
0
0
0
0
0
0
0
0
0
0
0
0
0
0
0
0
0
0
0
0
0
0
0
0
0
0
0
0
0
0
0
0
0
0
0
0
0
0
0
0
0
0
0
0
0
0
0
0
0
0
0
0
0
0
0
0
0
0
0
0
0
0
0
0
0
0
0
0
0
0
0
0
0
0
0
0
0
0
0
0
0
0
0
0
0
0
0
0
0
0
0
0
0
0
0
0
0
0
0
0
0
0
0
0
0
0
0
0
0
0
0
0
0
0
0
0
0
0
0
0
0
0
0
0
0
0
0
0
0
0
0
0
0
0
0
0
0
0
0
0
0
0
0
0
0
0
0
0
0
0
0
0
0
0
0
0
0
0
0
0
0
0
0
0
0
0
0
0
0
0
0
0
0
0
0
0
4.94066e-324
9.88131e-324
1.4822e-323
2.17389e-322
1.11611e-318
6.17053e-315
3.37888e-311
1.83224e-307
9.83739e-304
5.22864e-300
2.75062e-296
1.43195e-292
7.37555e-289
3.75792e-285
1.89365e-281
9.43536e-278
4.64764e-274
2.26268e-270
1.08851e-266
5.1732e-263
2.42825e-259
1.12545e-255
5.14926e-252
2.32504e-248
1.03576e-244
4.551e-241
1.97169e-237
8.4202e-234
3.54334e-230
1.4688e-226
5.99543e-223
2.40893e-219
9.52378e-216
3.70341e-212
1.41586e-208
5.31957e-205
1.96324e-201
7.1138e-198
2.52958e-194
8.82235e-191
3.01629e-187
1.01033e-183
3.31354e-180
1.06337e-176
3.33693e-173
1.02323e-169
3.0636e-166
8.9492e-163
2.54836e-159
7.06764e-156
1.90726e-152
5.00296e-149
1.27425e-145
3.14764e-142
7.53146e-139
1.74322e-135
3.89742e-132
8.40373e-129
1.74461e-125
3.48058e-122
6.65966e-119
1.21937e-115
2.13128e-112
3.54639e-109
5.60098e-106
8.36767e-103
1.17802e-99
1.55607e-96
1.91901e-93
2.19691e-90
2.31911e-87
2.23954e-84
1.95965e-81
1.53573e-78
1.06226e-75
6.36475e-73
3.22233e-70
1.33177e-67
4.27196e-65
9.82071e-63
1.40936e-60
9.9199e-59
4.35869e-57
1.37253e-55
3.3545e-54
6.69275e-53
1.12828e-51
1.64768e-50
2.12375e-49
2.45161e-48
2.56439e-47
2.45385e-46
2.16515e-45
1.77343e-44
1.35617e-43
9.73079e-43
6.57947e-42
4.20823e-41
2.55472e-40
1.4765e-39
8.146e-39
4.30074e-38
2.17768e-37
1.05969e-36
4.96472e-36
2.2433e-35
9.79121e-35
4.13399e-34
1.69072e-33
6.7063e-33
2.58291e-32
9.66994e-32
3.52263e-31
1.24983e-30
4.32284e-30
1.45876e-29
4.80666e-29
1.54765e-28
4.87279e-28
1.50125e-27
4.52874e-27
1.33848e-26
3.87799e-26
1.10205e-25
3.07341e-25
8.41554e-25
2.26357e-24
5.98347e-24
1.55507e-23
3.97523e-23
9.99923e-23
2.47588e-22
6.03684e-22
1.44998e-21
3.43189e-21
8.00695e-21
1.84204e-20
4.17985e-20
9.35793e-20
2.06766e-19
4.51e-19
9.71376e-19
2.06643e-18
4.34295e-18
9.01947e-18
1.85145e-17
3.75725e-17
7.53969e-17
1.49641e-16
2.938e-16
5.70742e-16
1.09723e-15
2.08789e-15
3.93322e-15
7.33657e-15
1.35524e-14
2.47966e-14
4.49456e-14
8.07182e-14
1.43652e-13
2.53377e-13
4.43003e-13
7.67872e-13
1.31969e-12
2.24914e-12
3.80169e-12
6.37396e-12
1.06015e-11
1.74945e-11
2.86463e-11
4.65492e-11
7.50732e-11
1.2018e-10
1.90988e-10
3.01332e-10
4.72061e-10
7.34357e-10
1.13453e-09
1.74087e-09
2.65337e-09
4.01745e-09
6.04318e-09
9.03191e-09
1.34131e-08
1.9795e-08
2.90329e-08
4.23225e-08
6.13242e-08
8.83296e-08
1.26482e-07
1.80065e-07
2.54885e-07
3.58758e-07
5.02151e-07
6.98992e-07
9.6771e-07
1.33255e-06
1.82521e-06
2.48693e-06
3.37104e-06
4.54612e-06
6.09987e-06
8.14387e-06
1.08192e-05
1.43036e-05
1.88191e-05
2.46424e-05
3.21162e-05
4.16625e-05
5.37984e-05
6.91545e-05
8.84955e-05
0.000112744
0.000143009
0.000180612
0.000227128
0.000284416
0.000354664
0.000440437
0.000544719
0.000670971
0.000823187
0.00100595
0.00122449
0.00148476
0.00179349
0.00215825
0.00258751
0.00309072
0.00367836
0.00436196
0.0051542
0.0060689
0.0071211
0.008327
0.00970404
0.0112708
0.0130472
0.015054
0.0173132
0.0198477
0.0226812
0.0258383
0.029344
0.0332237
0.0375032
0.0422079
0.0473633
0.0529943
0.0591251
0.0657787
0.072977
0.0807402
0.0890867
0.0980327
0.107592
0.117776
0.128593
0.140048
0.152142
0.164875
0.178241
0.192231
0.206833
0.22203
0.237801
0.254124
0.270971
0.28831
0.306108
0.324327
0.342928
0.361868
0.381103
0.400585
0.420267
0.440099
0.460033
0.480016
0.5
0.519934
0.539768
0.559455
0.578949
0.598203
0.617176
0.635826
0.654116
0.67201
0.689477
0.706485
0.723011
0.739029
0.754521
0.76947
0.783863
0.79769
0.810943
0.823618
0.835714
0.847233
0.858178
0.868555
0.878373
0.887643
0.896376
0.904585
0.912287
0.919496
0.926229
0.932505
0.938341
0.943756
0.948768
0.953396
0.957657
0.96157
0.965152
0.968419
0.971387
0.97407
0.976483
0.978637
0.980545
0.982214
0.983654
0.98487
0.985869
0.986652
0.987222
0.987578
0.987718
0.987637
0.98733
0.986788
0.986002
0.984961
0.983651
0.982057
0.980163
0.97795
0.975401
0.972494
0.969207
0.96552
0.961409
0.956852
0.951825
0.946306
0.940272
0.933703
0.926578
0.918879
0.910587
0.901688
0.89217
0.882021
0.871234
0.859806
0.847733
0.835019
0.821669
0.807693
0.793103
0.777917
0.762153
0.745838
0.728997
0.711663
0.69387
0.675654
0.657056
0.638119
0.618886
0.599406
0.579726
0.559894
0.539962
0.519979
0.499996
0.480063
0.460229
0.440543
0.42105
0.401796
0.382823
0.364173
0.345883
0.327989
0.310523
0.293514
0.276989
0.26097
0.245478
0.230529
0.216136
0.202309
0.189056
0.17638
0.164283
0.152763
0.141816
0.131437
0.121616
0.112343
0.103606
0.0953901
0.0876813
0.0804628
0.073717
0.0674258
0.0615703
0.0561312
0.051089
0.0464237
0.0421158
0.0381456
0.0344936
0.0311408
0.0280686
0.0252588
0.0226937
0.0203566
0.018231
0.0163014
0.014553
0.0129715
0.0115437
0.010257
0.00909939
0.00805988
0.00712804
0.00629418
0.00554931
0.00488507
0.00429377
0.00376829
0.0033021
0.00288921
0.00252414
0.00220189
0.00191792
0.00166808
0.00144864
0.00125621
0.00108775
0.000940494
0.000811992
0.000700031
0.000602637
0.000518047
0.000444693
0.000381182
0.000326278
0.000278887
0.000238045
0.000202899
0.000172702
0.000146795
0.000124601
0.000105618
8.94041e-05
7.55763e-05
6.38004e-05
5.37867e-05
4.52837e-05
3.80739e-05
3.19694e-05
2.6808e-05
2.24502e-05
1.87761e-05
1.56828e-05
1.3082e-05
1.08984e-05
9.06756e-06
7.5346e-06
6.25279e-06
5.18245e-06
4.28989e-06
3.54657e-06
2.92837e-06
2.41491e-06
1.989e-06
1.63618e-06
1.34429e-06
1.10311e-06
9.04103e-07
7.40095e-07
6.05106e-07
4.94143e-07
4.03044e-07
3.28348e-07
2.67178e-07
2.17146e-07
1.76276e-07
1.4293e-07
1.15758e-07
9.36419e-08
7.5664e-08
6.10672e-08
4.923e-08
3.96421e-08
3.18852e-08
2.56172e-08
2.05583e-08
1.64799e-08
1.31959e-08
1.05546e-08
8.43263e-09
6.72989e-09
5.36509e-09
4.27241e-09
3.39859e-09
2.70056e-09
2.1436e-09
1.69968e-09
1.34626e-09
1.0652e-09
8.41924e-10
6.64751e-10
5.24312e-10
4.13113e-10
3.2516e-10
2.55668e-10
2.00821e-10
1.57579e-10
1.23522e-10
9.67273e-11
7.56686e-11
5.91351e-11
4.61679e-11
3.60083e-11
2.80565e-11
2.18391e-11
1.69828e-11
1.31934e-11
1.02396e-11
7.93935e-12
6.1499e-12
4.75919e-12
3.67944e-12
2.84194e-12
2.19299e-12
1.69062e-12
1.30211e-12
1.00194e-12
7.70243e-13
5.91577e-13
4.53934e-13
3.47995e-13
2.66535e-13
2.03957e-13
1.55929e-13
1.19103e-13
9.08915e-14
6.93003e-14
5.27907e-14
4.01784e-14
3.05522e-14
2.32117e-14
1.76194e-14
1.33626e-14
1.01255e-14
7.66584e-15
5.79867e-15
4.3825e-15
3.30935e-15
2.49685e-15
1.88222e-15
1.41769e-15
1.0669e-15
8.02236e-16
6.0272e-16
4.52446e-16
3.39357e-16
2.54324e-16
1.90441e-16
1.42487e-16
1.06521e-16
7.95684e-17
5.93874e-17
4.42891e-17
3.30027e-17
2.45728e-17
1.82815e-17
1.35902e-17
1.00947e-17
7.49235e-18
5.55651e-18
4.11762e-18
3.04895e-18
2.25589e-18
1.66783e-18
1.2321e-18
9.09518e-19
6.70876e-19
4.94474e-19
3.64178e-19
2.68014e-19
1.97094e-19
1.44832e-19
1.06348e-19
7.80317e-20
5.72126e-20
4.19171e-20
3.06882e-20
2.24509e-20
1.64126e-20
1.19897e-20
8.7523e-21
6.38445e-21
4.65385e-21
3.38992e-21
2.4675e-21
1.7948e-21
1.30457e-21
9.47574e-22
6.87785e-22
4.98871e-22
3.61594e-22
2.6191e-22
1.89576e-22
1.37124e-22
9.91164e-23
7.15946e-23
5.16795e-23
3.72788e-23
2.68727e-23
1.93583e-23
1.39361e-23
)
;

boundaryField
{
    sides
    {
        type            zeroGradient;
    }
    empty
    {
        type            empty;
    }
}


// ************************************************************************* //
