/*--------------------------------*- C++ -*----------------------------------*\
  =========                 |
  \\      /  F ield         | OpenFOAM: The Open Source CFD Toolbox
   \\    /   O peration     | Website:  https://openfoam.org
    \\  /    A nd           | Version:  6
     \\/     M anipulation  |
\*---------------------------------------------------------------------------*/
FoamFile
{
    version     2.0;
    format      ascii;
    class       volVectorField;
    location    "21.1";
    object      U;
}
// * * * * * * * * * * * * * * * * * * * * * * * * * * * * * * * * * * * * * //

dimensions      [0 1 -1 0 0 0 0];

internalField   nonuniform List<vector> 
8800
(
(0.987188 -0.0766636 0)
(1.0019 -0.0551858 0)
(0.999757 -0.0285423 0)
(1.00005 -0.0151384 0)
(1.00007 -0.00853805 0)
(1.00004 -0.00501991 0)
(1.00002 -0.00296015 0)
(1.00002 -0.00167071 0)
(1.00001 -0.000809266 0)
(1.00004 -0.00013423 0)
(1.00001 0.000554638 0)
(1.00002 0.00129548 0)
(1.00002 0.00232306 0)
(1.00002 0.0039385 0)
(1.00006 0.0065983 0)
(1.00007 0.011344 0)
(0.999981 0.0207857 0)
(0.999177 0.0386476 0)
(1.00708 0.0724473 0)
(0.771217 0.0366586 0)
(0.363086 -0.0160146 0)
(1.04332 -0.0768031 0)
(1.08461 -0.0704236 0)
(1.04523 -0.0535068 0)
(1.02326 -0.0388254 0)
(1.01184 -0.0261369 0)
(1.00627 -0.0168303 0)
(1.0035 -0.0103866 0)
(1.00205 -0.00581911 0)
(1.00135 -0.00222157 0)
(1.00123 0.00108473 0)
(1.00162 0.00446156 0)
(1.00263 0.00838638 0)
(1.00462 0.0136914 0)
(1.00852 0.0213801 0)
(1.01656 0.0323715 0)
(1.03259 0.0463378 0)
(1.06275 0.0615084 0)
(1.09192 0.0759816 0)
(0.838837 0.0565147 0)
(0.216878 -0.00242495 0)
(1.07592 -0.0501079 0)
(1.09991 -0.0483 0)
(1.06463 -0.0405128 0)
(1.03992 -0.0336978 0)
(1.02368 -0.0261315 0)
(1.01378 -0.0185327 0)
(1.00829 -0.0117758 0)
(1.00549 -0.00597841 0)
(1.00435 -0.000755705 0)
(1.0047 0.00428212 0)
(1.00651 0.00964494 0)
(1.01042 0.0158001 0)
(1.01783 0.0229097 0)
(1.03059 0.0305167 0)
(1.05077 0.0375937 0)
(1.08057 0.0442654 0)
(1.10652 0.0511016 0)
(0.942992 0.041486 0)
(0.216494 0.00244218 0)
(0.175293 -0.000805596 0)
(1.01787 -0.0353856 0)
(1.10521 -0.0412024 0)
(1.07813 -0.0357882 0)
(1.05324 -0.0298086 0)
(1.03593 -0.0243312 0)
(1.02379 -0.0187855 0)
(1.01573 -0.0129375 0)
(1.01094 -0.00695507 0)
(1.00884 -0.000773131 0)
(1.00944 0.00538303 0)
(1.01274 0.0113014 0)
(1.01894 0.0170472 0)
(1.02887 0.022574 0)
(1.04336 0.0278207 0)
(1.06394 0.0333666 0)
(1.09389 0.0395305 0)
(1.09405 0.0414947 0)
(0.828421 0.0226985 0)
(0.174653 0.000825048 0)
(0.154231 -0.000596184 0)
(0.956643 -0.0252436 0)
(1.10359 -0.0348616 0)
(1.08772 -0.0324366 0)
(1.06144 -0.0278117 0)
(1.04357 -0.0228052 0)
(1.03113 -0.0177 0)
(1.02238 -0.0124237 0)
(1.0167 -0.00673994 0)
(1.01404 -0.000530217 0)
(1.01476 0.0056715 0)
(1.01872 0.0114424 0)
(1.02577 0.0166827 0)
(1.03609 0.0216046 0)
(1.05085 0.0264492 0)
(1.07244 0.031096 0)
(1.10087 0.0350923 0)
(1.0694 0.0333043 0)
(0.742036 0.0139833 0)
(0.153272 0.000618125 0)
(0.140091 -0.000447833 0)
(0.900448 -0.0186925 0)
(1.09583 -0.029476 0)
(1.0953 -0.0285844 0)
(1.06875 -0.0250197 0)
(1.0503 -0.0210336 0)
(1.03738 -0.0164367 0)
(1.02833 -0.0114058 0)
(1.0223 -0.00607627 0)
(1.01927 -0.000160029 0)
(1.02003 0.00581767 0)
(1.02428 0.0111647 0)
(1.0315 0.0160374 0)
(1.04217 0.0205586 0)
(1.05746 0.0245728 0)
(1.07967 0.0280171 0)
(1.10314 0.0307073 0)
(1.03846 0.0269966 0)
(0.677377 0.00973494 0)
(0.138749 0.000473218 0)
(0.129932 -0.000332989 0)
(0.852297 -0.0140818 0)
(1.08402 -0.0249126 0)
(1.10103 -0.0250134 0)
(1.07522 -0.0217367 0)
(1.05604 -0.0184134 0)
(1.04262 -0.0147062 0)
(1.03309 -0.0103323 0)
(1.0268 -0.00531462 0)
(1.02368 0.000316477 0)
(1.02435 0.00597625 0)
(1.0286 0.0110224 0)
(1.03608 0.0153386 0)
(1.04718 0.0189534 0)
(1.06298 0.0220453 0)
(1.08598 0.0250063 0)
(1.10309 0.0270717 0)
(1.00574 0.0219595 0)
(0.628391 0.00717251 0)
(0.128123 0.000362901 0)
(0.122418 -0.000245069 0)
(0.812364 -0.010522 0)
(1.06938 -0.020687 0)
(1.10431 -0.0219152 0)
(1.08095 -0.0192868 0)
(1.06099 -0.0161797 0)
(1.0471 -0.0127577 0)
(1.03741 -0.0088248 0)
(1.03099 -0.00425113 0)
(1.02774 0.000900104 0)
(1.02829 0.00599802 0)
(1.03247 0.0105135 0)
(1.03996 0.0142588 0)
(1.05123 0.0174148 0)
(1.06762 0.0201778 0)
(1.09122 0.0227742 0)
(1.10009 0.0237918 0)
(0.973578 0.0176594 0)
(0.590701 0.005351 0)
(0.120046 0.000281029 0)
(0.117069 -0.000166776 0)
(0.780828 -0.00757404 0)
(1.05394 -0.0163506 0)
(1.10604 -0.0181305 0)
(1.08594 -0.0161424 0)
(1.06604 -0.0135136 0)
(1.05218 -0.0104622 0)
(1.04225 -0.00703364 0)
(1.03538 -0.00309002 0)
(1.03176 0.00159272 0)
(1.03226 0.0063269 0)
(1.03665 0.0101179 0)
(1.0443 0.0131657 0)
(1.05553 0.0157684 0)
(1.07178 0.0179951 0)
(1.09487 0.0199092 0)
(1.09468 0.0201348 0)
(0.944244 0.0137818 0)
(0.562177 0.00393413 0)
(0.114006 0.000211169 0)
(0.113316 -0.000112677 0)
(0.756812 -0.00519619 0)
(1.03928 -0.0124388 0)
(1.10688 -0.0145368 0)
(1.09013 -0.0128705 0)
(1.0699 -0.0106162 0)
(1.05568 -0.00812895 0)
(1.04579 -0.00511906 0)
(1.03921 -0.0015788 0)
(1.03572 0.00247869 0)
(1.03586 0.00641871 0)
(1.03968 0.00963174 0)
(1.04693 0.0121121 0)
(1.05816 0.0139707 0)
(1.07474 0.0155622 0)
(1.09717 0.0170826 0)
(1.0878 0.0167468 0)
(0.918789 0.0105548 0)
(0.540746 0.00285137 0)
(0.109405 0.000167425 0)
(0.111103 -4.16582e-05 0)
(0.740058 -0.00279168 0)
(1.02618 -0.00823002 0)
(1.10669 -0.0105788 0)
(1.09358 -0.00962646 0)
(1.073 -0.00789168 0)
(1.05854 -0.00585953 0)
(1.04842 -0.00332205 0)
(1.04149 -0.000174778 0)
(1.03771 0.00349822 0)
(1.03764 0.00695276 0)
(1.04142 0.00960282 0)
(1.04862 0.0114168 0)
(1.05987 0.0127229 0)
(1.07677 0.0136848 0)
(1.09806 0.01431 0)
(1.07979 0.0130816 0)
(0.897653 0.00727915 0)
(0.525847 0.00178526 0)
(0.106147 0.000109442 0)
(0.110461 1.72284e-05 0)
(0.730112 -0.000996511 0)
(1.0151 -0.00463444 0)
(1.10505 -0.0071774 0)
(1.09575 -0.00705973 0)
(1.07593 -0.00583109 0)
(1.06189 -0.00404404 0)
(1.05207 -0.00155823 0)
(1.04531 0.00138446 0)
(1.04134 0.0047381 0)
(1.04095 0.00781826 0)
(1.04416 0.00998368 0)
(1.05076 0.0114981 0)
(1.0613 0.0122886 0)
(1.07741 0.0125409 0)
(1.09668 0.012163 0)
(1.07059 0.00999964 0)
(0.881008 0.0048022 0)
(0.516473 0.00110018 0)
(0.104211 6.48915e-05 0)
(0.110819 5.11918e-05 0)
(0.725223 -7.82656e-05 0)
(1.00681 -0.00213319 0)
(1.10254 -0.00413811 0)
(1.09692 -0.00412487 0)
(1.07782 -0.00317771 0)
(1.06402 -0.0017919 0)
(1.05422 0.000349355 0)
(1.0473 0.00308721 0)
(1.04311 0.00623423 0)
(1.04224 0.00905012 0)
(1.04498 0.010708 0)
(1.05122 0.0113857 0)
(1.06131 0.0113587 0)
(1.07696 0.0111591 0)
(1.09391 0.010494 0)
(1.06116 0.0079802 0)
(0.868355 0.00369474 0)
(0.509997 0.00091538 0)
(0.102957 5.33534e-05 0)
(0.111633 6.313e-05 0)
(0.723055 0.000281346 0)
(1.00186 -0.000863711 0)
(1.101 -0.00194329 0)
(1.09807 -0.0016075 0)
(1.07986 -0.000548256 0)
(1.06644 0.000893769 0)
(1.05697 0.00290661 0)
(1.0501 0.0053704 0)
(1.04564 0.00808843 0)
(1.04411 0.0103151 0)
(1.04611 0.0114055 0)
(1.0514 0.0117284 0)
(1.06074 0.0114295 0)
(1.0759 0.0107392 0)
(1.09078 0.00968582 0)
(1.05281 0.00734786 0)
(0.858109 0.00369917 0)
(0.504034 0.00101659 0)
(0.101752 6.51846e-05 0)
(0.112659 7.45597e-05 0)
(0.722023 0.000549125 0)
(0.998886 -0.000380718 0)
(1.10075 -0.00101983 0)
(1.10007 -0.00014326 0)
(1.08209 0.00119261 0)
(1.0687 0.00288236 0)
(1.05926 0.00507377 0)
(1.0523 0.00768573 0)
(1.04743 0.0103385 0)
(1.04521 0.0122887 0)
(1.04642 0.0130845 0)
(1.05117 0.0129106 0)
(1.05973 0.0123222 0)
(1.07418 0.0115969 0)
(1.08769 0.0104875 0)
(1.0453 0.0081709 0)
(0.847893 0.00420796 0)
(0.497421 0.00120245 0)
(0.100266 8.77661e-05 0)
(0.113883 8.93333e-05 0)
(0.721838 0.00102572 0)
(0.995874 0.000199351 0)
(1.10069 -0.00085542 0)
(1.10248 -0.000357303 0)
(1.08497 0.00112199 0)
(1.07157 0.0033932 0)
(1.06209 0.00632808 0)
(1.05491 0.00964858 0)
(1.04938 0.0129924 0)
(1.04637 0.015435 0)
(1.04667 0.0165181 0)
(1.0504 0.0164903 0)
(1.05861 0.0158548 0)
(1.07243 0.014679 0)
(1.08411 0.0132073 0)
(1.03598 0.00953305 0)
(0.836262 0.00459455 0)
(0.49011 0.00136048 0)
(0.0984139 0.000110313 0)
(0.115531 0.000116048 0)
(0.723177 0.00168753 0)
(0.992458 0.00150629 0)
(1.09906 -0.000431337 0)
(1.10402 -0.000459925 0)
(1.08836 0.00068645 0)
(1.07534 0.00339577 0)
(1.06594 0.00734271 0)
(1.05839 0.0118299 0)
(1.05207 0.0163213 0)
(1.04807 0.019714 0)
(1.04736 0.0214557 0)
(1.0501 0.021901 0)
(1.05689 0.0211857 0)
(1.06966 0.0195699 0)
(1.07719 0.0162518 0)
(1.02286 0.0104097 0)
(0.823659 0.00478456 0)
(0.482382 0.00152009 0)
(0.0962274 0.000132977 0)
(0.117859 0.000154178 0)
(0.727136 0.00253195 0)
(0.990331 0.00359776 0)
(1.09499 0.00188901 0)
(1.10477 0.000829214 0)
(1.09163 0.0018449 0)
(1.08008 0.00516226 0)
(1.07093 0.00996922 0)
(1.0628 0.0153627 0)
(1.05542 0.0206231 0)
(1.0502 0.0244773 0)
(1.04831 0.026283 0)
(1.04968 0.0264932 0)
(1.05464 0.0253735 0)
(1.06435 0.0226937 0)
(1.06592 0.0174607 0)
(1.00742 0.0105647 0)
(0.811201 0.00502408 0)
(0.474211 0.00172376 0)
(0.0937168 0.000155761 0)
(0.121074 0.00021055 0)
(0.734762 0.0036779 0)
(0.991755 0.00602489 0)
(1.09169 0.00581125 0)
(1.10466 0.00486086 0)
(1.09534 0.00621113 0)
(1.08571 0.0100457 0)
(1.07667 0.0152239 0)
(1.06775 0.0208859 0)
(1.05902 0.0261412 0)
(1.05219 0.0295384 0)
(1.04876 0.03052 0)
(1.04843 0.0296982 0)
(1.05122 0.0276277 0)
(1.05623 0.0235573 0)
(1.05258 0.0174975 0)
(0.992428 0.0107654 0)
(0.799164 0.00557592 0)
(0.465163 0.00201943 0)
(0.0908068 0.000183491 0)
(0.125446 0.00028372 0)
(0.746183 0.00491097 0)
(0.997306 0.00869058 0)
(1.09217 0.0103964 0)
(1.10571 0.0112231 0)
(1.09972 0.0135838 0)
(1.0915 0.0177267 0)
(1.08247 0.0229553 0)
(1.07258 0.0284131 0)
(1.06214 0.0330568 0)
(1.05333 0.0353309 0)
(1.04793 0.034917 0)
(1.04566 0.0325319 0)
(1.04572 0.0288871 0)
(1.04688 0.0239073 0)
(1.03967 0.0178913 0)
(0.978809 0.0117356 0)
(0.786716 0.00656867 0)
(0.454565 0.00244191 0)
(0.0873608 0.000220946 0)
(0.131208 0.000382655 0)
(0.761655 0.00651493 0)
(1.0075 0.0118231 0)
(1.09731 0.0153868 0)
(1.11004 0.0180804 0)
(1.1053 0.0219928 0)
(1.09763 0.0269949 0)
(1.08817 0.0325318 0)
(1.07694 0.0378026 0)
(1.06438 0.0416099 0)
(1.05316 0.042376 0)
(1.04546 0.0401628 0)
(1.04097 0.0361966 0)
(1.03859 0.0311062 0)
(1.03709 0.0255188 0)
(1.02767 0.0196095 0)
(0.96576 0.013661 0)
(0.772673 0.00797987 0)
(0.441703 0.00300348 0)
(0.0831836 0.000269582 0)
(0.138842 0.000522377 0)
(0.781818 0.0087177 0)
(1.0225 0.0157477 0)
(1.10682 0.0209801 0)
(1.11796 0.0256113 0)
(1.11294 0.0313102 0)
(1.10472 0.0376268 0)
(1.09404 0.0439048 0)
(1.08084 0.0492079 0)
(1.06559 0.0521741 0)
(1.05147 0.0513449 0)
(1.04126 0.0473154 0)
(1.03453 0.0416345 0)
(1.03009 0.0353024 0)
(1.02673 0.0289952 0)
(1.01576 0.0228254 0)
(0.951906 0.0165057 0)
(0.755925 0.00985916 0)
(0.425955 0.00370344 0)
(0.0781234 0.000329097 0)
(0.149131 0.000732408 0)
(0.807898 0.0118607 0)
(1.04249 0.0209422 0)
(1.1207 0.0279375 0)
(1.12959 0.0346708 0)
(1.12323 0.042398 0)
(1.11338 0.050337 0)
(1.10045 0.0576002 0)
(1.08442 0.0630534 0)
(1.06579 0.0651665 0)
(1.04831 0.0626531 0)
(1.03534 0.0567325 0)
(1.02632 0.0493147 0)
(1.02006 0.0416272 0)
(1.01523 0.0343407 0)
(1.00282 0.0274579 0)
(0.935986 0.0202361 0)
(0.735851 0.012172 0)
(0.406905 0.00448858 0)
(0.0720581 0.00038649 0)
(0.163316 0.00107852 0)
(0.841952 0.0166594 0)
(1.06885 0.0283643 0)
(1.1395 0.0374157 0)
(1.14526 0.0466264 0)
(1.13642 0.0565999 0)
(1.1237 0.0662914 0)
(1.10738 0.0745276 0)
(1.08756 0.0799981 0)
(1.06484 0.0810264 0)
(1.04357 0.0765803 0)
(1.02761 0.0685889 0)
(1.01626 0.0593186 0)
(1.00822 0.0500716 0)
(1.002 0.0415123 0)
(0.987911 0.0335258 0)
(0.916914 0.0249548 0)
(0.711388 0.0150175 0)
(0.383838 0.00547091 0)
(0.0648649 0.000459151 0)
(0.183605 0.00169739 0)
(0.887233 0.0242791 0)
(1.10347 0.0395531 0)
(1.16409 0.0510431 0)
(1.16537 0.0634658 0)
(1.15251 0.0758306 0)
(1.13544 0.0870794 0)
(1.1145 0.0958816 0)
(1.08993 0.100817 0)
(1.06245 0.100198 0)
(1.03703 0.0933772 0)
(1.01789 0.0830399 0)
(1.00415 0.0717249 0)
(0.994251 0.0607095 0)
(0.986503 0.0506319 0)
(0.970219 0.0412361 0)
(0.893616 0.0308561 0)
(0.681462 0.0185643 0)
(0.35611 0.00665502 0)
(0.0564394 0.00053429 0)
(0.213349 0.00308421 0)
(0.949474 0.0376149 0)
(1.14863 0.058265 0)
(1.19574 0.0726383 0)
(1.18986 0.0884119 0)
(1.17095 0.102634 0)
(1.14792 0.11451 0)
(1.12112 0.122804 0)
(1.09097 0.126168 0)
(1.05822 0.123022 0)
(1.02841 0.113228 0)
(1.006 0.100213 0)
(0.989778 0.0866628 0)
(0.977897 0.0737298 0)
(0.968332 0.0619725 0)
(0.949164 0.0509805 0)
(0.86497 0.0383009 0)
(0.644966 0.0229848 0)
(0.323822 0.0081448 0)
(0.0470728 0.000604824 0)
(0.254545 0.00956081 -2.00402e-21)
(1.03236 0.0649084 -1.47085e-21)
(1.20222 0.090908 3.7681e-22)
(1.23221 0.108326 0)
(1.21612 0.125452 -3.16194e-36)
(1.18963 0.139483 7.76406e-23)
(1.15954 0.150206 -3.30848e-22)
(1.12615 0.156607 0)
(1.08986 0.157407 1.10122e-35)
(1.05135 0.151064 -8.0958e-22)
(1.01667 0.137958 0)
(0.990525 0.122164 -1.13671e-21)
(0.971352 0.106377 -3.46551e-21)
(0.956979 0.0916367 -1.67364e-21)
(0.944937 0.0784325 -5.24965e-22)
(0.921919 0.0661896 -3.17535e-22)
(0.828036 0.0508448 0)
(0.598594 0.0309511 2.27897e-22)
(0.286049 0.0121975 2.70718e-22)
(0.0383701 0.00143238 4.86184e-21)
(0.281133 0.0255669 -4.23495e-21)
(1.10033 0.108807 1.0335e-22)
(1.24759 0.138739 -2.20989e-22)
(1.26491 0.157495 0)
(1.23958 0.173075 2.14528e-22)
(1.20578 0.185336 2.84523e-24)
(1.16872 0.194158 -2.44983e-22)
(1.12856 0.198437 -1.50545e-21)
(1.08567 0.196751 0)
(1.04062 0.187497 3.43613e-21)
(0.999895 0.171425 3.75204e-21)
(0.968706 0.153224 1.19714e-21)
(0.945292 0.135564 4.68727e-21)
(0.927186 0.119216 6.86888e-21)
(0.911234 0.104639 0)
(0.88214 0.0907362 1.01742e-20)
(0.781747 0.0725455 1.48679e-20)
(0.551242 0.0473268 1.66602e-20)
(0.257727 0.0217516 -1.92584e-20)
(0.033306 0.0028388 -3.60402e-22)
(0.279325 0.0420684 0)
(1.14108 0.165575 -1.35885e-21)
(1.28047 0.198339 0)
(1.29029 0.21664 2.00135e-21)
(1.25798 0.228618 0)
(1.21781 0.237482 7.00488e-22)
(1.17446 0.243065 3.51334e-22)
(1.12808 0.244168 -2.39987e-21)
(1.07899 0.239317 -3.14362e-22)
(1.02777 0.226791 1.68405e-21)
(0.981537 0.207799 8.71396e-21)
(0.94579 0.187478 -6.00892e-23)
(0.918585 0.168486 -3.5158e-21)
(0.89718 0.151353 -6.78837e-21)
(0.878276 0.136163 8.21907e-21)
(0.847248 0.121588 -1.47779e-20)
(0.752272 0.100709 -2.02353e-21)
(0.537749 0.0706369 0)
(0.264949 0.0353097 1.6507e-23)
(0.0382816 0.00536999 0)
(0.270931 0.0559807 -3.50125e-20)
(1.16099 0.225664 1.42394e-20)
(1.30157 0.263253 7.45443e-21)
(1.30692 0.280435 -1.36169e-21)
(1.26982 0.2885 2.05673e-21)
(1.22481 0.29343 -1.82538e-21)
(1.17635 0.295195 5.71048e-22)
(1.12474 0.292549 0)
(1.07028 0.28406 -6.87501e-21)
(1.01353 0.267995 0)
(0.96242 0.246046 -4.47064e-21)
(0.922852 0.223784 -6.20252e-21)
(0.892574 0.203658 -3.94106e-21)
(0.868697 0.186035 -5.05827e-21)
(0.847911 0.17061 0)
(0.817073 0.155508 0)
(0.731989 0.13301 -1.36017e-20)
(0.53818 0.0979149 2.72386e-21)
(0.279525 0.0519111 -1.58751e-21)
(0.0447557 0.00876466 -1.87849e-21)
(0.26243 0.0684646 2.62845e-20)
(1.16775 0.285406 0)
(1.31347 0.329652 -2.1175e-20)
(1.31589 0.345442 -5.24726e-21)
(1.2754 0.349833 -3.76438e-21)
(1.22684 0.350844 0)
(1.17442 0.348722 -1.19153e-22)
(1.11852 0.342251 2.28556e-21)
(1.05957 0.329976 3.10251e-21)
(0.998184 0.310211 8.48196e-21)
(0.942952 0.28518 0)
(0.900333 0.260938 -1.35319e-20)
(0.867795 0.239704 -8.61397e-21)
(0.842213 0.221552 -5.188e-21)
(0.8204 0.20608 3.38449e-20)
(0.790691 0.190848 4.15346e-21)
(0.713777 0.167716 1.98569e-20)
(0.53835 0.12676 -9.58927e-20)
(0.289659 0.0698471 5.71744e-20)
(0.0496873 0.0123557 -6.98116e-20)
(0.254932 0.0796704 2.80404e-20)
(1.16649 0.342978 -5.10996e-21)
(1.31825 0.395124 3.78018e-21)
(1.3188 0.409781 1.00789e-20)
(1.27579 0.410829 5.97688e-21)
(1.22451 0.408151 3.37512e-22)
(1.16901 0.402296 1.75667e-23)
(1.10964 0.392102 1.90666e-21)
(1.04692 0.37609 -6.80265e-21)
(0.98167 0.352583 0)
(0.923028 0.324372 -5.84329e-21)
(0.878049 0.297933 -3.06796e-22)
(0.843947 0.275417 -9.63172e-21)
(0.81736 0.256596 0)
(0.795115 0.240879 -7.38915e-21)
(0.766848 0.225491 -1.79806e-20)
(0.696783 0.201292 4.96776e-20)
(0.533923 0.154627 -4.95372e-20)
(0.292318 0.0861801 7.06432e-20)
(0.0518658 0.0155301 -7.44244e-20)
(0.248956 0.0901284 -1.08437e-22)
(1.16044 0.39776 6.32798e-21)
(1.3178 0.458457 1.82417e-20)
(1.31707 0.472475 -6.25986e-21)
(1.2722 0.470485 3.44798e-21)
(1.2188 0.464398 0)
(1.16078 0.455068 1.22552e-21)
(1.09851 0.441339 -1.66701e-21)
(1.0326 0.42169 -3.1919e-21)
(0.963954 0.394473 0)
(0.902491 0.362938 -5.75336e-21)
(0.855581 0.334065 -7.97868e-21)
(0.820356 0.309949 1.05393e-20)
(0.793242 0.290103 -6.71981e-21)
(0.771059 0.273714 -3.25612e-20)
(0.744318 0.257781 2.00057e-20)
(0.67942 0.231905 6.29365e-21)
(0.524699 0.179015 0)
(0.289353 0.0997119 -6.86532e-20)
(0.0517606 0.0179916 -2.55305e-21)
(0.244409 0.100121 4.65614e-21)
(1.15164 0.449601 -7.3242e-21)
(1.31356 0.519131 -1.00092e-20)
(1.31184 0.532842 -1.92315e-20)
(1.26552 0.528178 1.70081e-20)
(1.21043 0.519036 -8.55495e-21)
(1.15034 0.50651 -2.56317e-21)
(1.08561 0.489464 -2.51687e-21)
(1.01693 0.466356 2.92025e-21)
(0.945243 0.43549 -2.08095e-20)
(0.881137 0.400545 -7.01742e-21)
(0.832617 0.368998 0)
(0.796671 0.342846 1.15276e-20)
(0.769414 0.321567 1.42239e-20)
(0.747553 0.304108 1.749e-20)
(0.722081 0.287207 -2.18237e-20)
(0.660686 0.259061 -6.57365e-21)
(0.511392 0.19996 7.81069e-21)
(0.281955 0.110523 0)
(0.050331 0.019815 -5.56233e-21)
(0.241053 0.109747 -5.44155e-20)
(1.1415 0.49861 3.37177e-20)
(1.3066 0.576952 1.10619e-20)
(1.30399 0.590559 -1.47916e-20)
(1.25655 0.58354 1.0306e-20)
(1.20012 0.571675 -7.93633e-22)
(1.1383 0.556276 2.40723e-21)
(1.07144 0.536187 -1.01601e-21)
(1.00023 0.509847 -5.71144e-21)
(0.925797 0.475401 3.71237e-23)
(0.859296 0.436996 -2.10659e-20)
(0.809311 0.402549 2.02423e-20)
(0.772727 0.374056 -1.29006e-20)
(0.745412 0.350985 1.60082e-20)
(0.723905 0.332131 0)
(0.699475 0.313804 -1.18505e-20)
(0.640469 0.282889 -2.35338e-22)
(0.494921 0.217536 -3.41555e-20)
(0.271233 0.118689 -5.06434e-21)
(0.0477979 0.0209125 0)
(0.238711 0.119188 0)
(1.13079 0.545019 3.67169e-20)
(1.29772 0.631862 2.59777e-20)
(1.29429 0.645476 1.67887e-20)
(1.24593 0.63637 9.83112e-21)
(1.18838 0.622106 0)
(1.1251 0.604145 2.84233e-21)
(1.0564 0.58131 -2.47142e-22)
(0.982923 0.552002 1.21487e-20)
(0.905914 0.514188 -2.59369e-21)
(0.837102 0.472268 -1.54252e-20)
(0.785517 0.434639 1.01793e-20)
(0.748194 0.403505 -3.96693e-22)
(0.720881 0.3783 1.68853e-20)
(0.699746 0.357696 1.09888e-20)
(0.676147 0.337637 -2.57943e-20)
(0.618571 0.303451 3.12038e-20)
(0.475752 0.231697 9.34183e-21)
(0.257913 0.124446 3.87978e-20)
(0.0444219 0.0213629 -1.0499e-19)
(0.237254 0.128539 -1.4094e-20)
(1.12006 0.588989 2.13046e-20)
(1.28754 0.683874 -1.63663e-20)
(1.28327 0.697535 -1.9645e-20)
(1.23415 0.686581 0)
(1.17569 0.670205 7.88529e-21)
(1.11117 0.649984 -7.99683e-21)
(1.04085 0.624707 1.23841e-21)
(0.965283 0.592712 0)
(0.885705 0.551736 -3.9811e-20)
(0.814433 0.506369 4.20505e-20)
(0.761273 0.465485 0)
(0.723151 0.43145 1.52691e-20)
(0.695721 0.403749 -3.98602e-22)
(0.674928 0.381072 -3.48225e-20)
(0.651874 0.358875 1.3708e-20)
(0.594964 0.320948 0)
(0.454264 0.242537 5.06126e-20)
(0.24249 0.127879 0)
(0.040497 0.0212031 -5.00003e-20)
(0.236485 0.137817 1.57635e-20)
(1.10961 0.630677 2.44535e-20)
(1.27651 0.733024 -1.71621e-20)
(1.2714 0.746758 0)
(1.22166 0.73416 1.38359e-20)
(1.16244 0.715935 0)
(1.09683 0.693725 1.10645e-20)
(1.02504 0.666304 8.40366e-22)
(0.947491 0.631922 1.44768e-21)
(0.865355 0.588087 -1.96782e-20)
(0.791529 0.539383 4.11282e-21)
(0.736591 0.495139 0)
(0.697553 0.458029 -3.25188e-20)
(0.66983 0.427576 4.11977e-22)
(0.64926 0.402454 0)
(0.626479 0.377717 4.87106e-22)
(0.56956 0.335457 4.59362e-20)
(0.430474 0.250046 -4.42397e-20)
(0.225212 0.128894 1.31284e-20)
(0.036065 0.020404 0)
(0.236057 0.146902 0)
(1.09953 0.670232 2.7451e-20)
(1.26498 0.779419 2.02652e-20)
(1.25902 0.793196 -4.47755e-22)
(1.20877 0.779134 8.78443e-21)
(1.14888 0.759298 1.87367e-20)
(1.08235 0.735347 -3.48927e-21)
(1.00922 0.706066 -1.25964e-22)
(0.929812 0.669618 7.89163e-21)
(0.845166 0.623265 -3.07876e-20)
(0.768584 0.571441 -6.48115e-22)
(0.711483 0.52384 -1.34022e-20)
(0.671248 0.483301 5.32814e-20)
(0.643127 0.449805 -4.91579e-22)
(0.622659 0.422002 -2.74448e-20)
(0.59989 0.394302 -5.0119e-20)
(0.542381 0.347093 0)
(0.404512 0.254353 0)
(0.206255 0.127388 1.43494e-20)
(0.0313069 0.0190084 -8.51359e-21)
(0.2361 0.155951 1.97428e-20)
(1.08999 0.707463 -6.02781e-20)
(1.25322 0.823145 -2.17544e-20)
(1.2464 0.836924 0)
(1.19571 0.821561 -3.17647e-22)
(1.13529 0.800321 2.28164e-20)
(1.06797 0.774867 -1.2265e-20)
(0.993634 0.743999 -3.53621e-21)
(0.912483 0.705815 8.68973e-21)
(0.825293 0.657285 -2.3923e-20)
(0.745732 0.602656 -3.57026e-20)
(0.686141 0.551712 3.57722e-20)
(0.644252 0.507651 0)
(0.615492 0.470764 -1.23608e-20)
(0.595022 0.439909 -3.01096e-20)
(0.571991 0.408759 -3.63098e-20)
(0.51326 0.355879 -4.40386e-20)
(0.376356 0.255347 1.31828e-20)
(0.185626 0.123181 -7.7631e-21)
(0.0262086 0.0170147 8.27228e-23)
(0.236201 0.164739 0)
(1.08106 0.742878 0)
(1.24139 0.864306 5.31438e-22)
(1.23374 0.878033 0)
(1.18271 0.861527 -3.33552e-20)
(1.12183 0.839061 -2.03771e-20)
(1.05385 0.81231 0)
(0.978448 0.780112 -1.18145e-21)
(0.895648 0.740503 1.19898e-20)
(0.805908 0.690202 -5.49766e-20)
(0.723177 0.633125 0)
(0.660689 0.579044 -2.29516e-20)
(0.616723 0.531266 -6.01366e-22)
(0.586903 0.490701 -4.94181e-22)
(0.566252 0.456384 3.21732e-20)
(0.542727 0.421177 -8.21771e-23)
(0.482235 0.361691 -9.56278e-20)
(0.345836 0.252777 2.86803e-20)
(0.163443 0.116263 8.5372e-21)
(0.0208412 0.0144321 0)
(0.236366 0.173231 -7.31878e-20)
(1.07247 0.776503 -3.72013e-20)
(1.22962 0.902989 -5.50077e-20)
(1.2212 0.916626 7.57741e-20)
(1.16989 0.899093 -6.28873e-20)
(1.10867 0.87557 0)
(1.04013 0.847713 -1.08394e-20)
(0.963785 0.814421 2.11999e-21)
(0.879434 0.773692 7.62288e-22)
(0.7872 0.722026 4.30061e-21)
(0.701116 0.662957 4.49823e-20)
(0.635283 0.605954 -7.87621e-21)
(0.588659 0.554511 -3.2961e-20)
(0.557291 0.50989 -1.46844e-20)
(0.536214 0.471499 1.78839e-20)
(0.511944 0.431377 -6.33391e-23)
(0.449291 0.364287 2.61874e-20)
(0.312966 0.246341 -6.21978e-20)
(0.140065 0.10666 7.42194e-20)
(0.0154879 0.0114443 1.09082e-20)
(0.23636 0.181405 2.6977e-20)
(1.06424 0.808408 -2.04285e-20)
(1.21802 0.939306 1.24366e-21)
(1.20888 0.952819 4.30437e-20)
(1.15737 0.934367 1.48052e-20)
(1.09588 0.909913 4.09912e-20)
(1.02691 0.881122 -4.93359e-21)
(0.949742 0.846945 1.05801e-20)
(0.863985 0.805387 -8.87345e-21)
(0.769314 0.752761 -3.04361e-20)
(0.679739 0.69217 0)
(0.610166 0.632689 -3.53823e-20)
(0.560208 0.577693 4.78614e-20)
(0.526537 0.528703 0)
(0.504573 0.485397 -3.83135e-20)
(0.479359 0.439133 2.36738e-20)
(0.414414 0.363099 -2.83032e-20)
(0.278713 0.235914 -3.39854e-20)
(0.1166 0.0949233 -6.03449e-20)
(0.010406 0.00823348 -4.76793e-20)
(0.236546 0.189328 -2.97709e-20)
(1.05621 0.838584 2.18686e-20)
(1.20667 0.973338 5.17595e-20)
(1.19687 0.986699 5.93706e-20)
(1.14523 0.967434 -3.10304e-20)
(1.08356 0.942174 2.85173e-20)
(1.01426 0.912589 -1.53315e-20)
(0.936406 0.877732 1.36835e-20)
(0.849365 0.835601 -4.03293e-21)
(0.752363 0.782412 2.95198e-20)
(0.659221 0.720814 9.61179e-20)
(0.585547 0.659334 0)
(0.531616 0.601133 0)
(0.494626 0.547675 -1.7005e-20)
(0.470886 0.498375 0)
(0.44434 0.443841 5.15176e-20)
(0.377524 0.356984 6.1761e-20)
(0.244082 0.220846 0)
(0.0943842 0.0813801 0)
(0.00598803 0.00509761 5.18126e-20)
(0.236439 0.196722 3.29617e-20)
(1.04841 0.867041 2.63981e-20)
(1.19562 1.0052 3.73029e-20)
(1.18522 1.0184 -5.3267e-20)
(1.13352 0.998395 -3.47619e-20)
(1.07175 0.972424 -3.80696e-20)
(1.00223 0.942173 2.28828e-20)
(0.923821 0.906806 9.94257e-23)
(0.835641 0.864333 -9.85678e-22)
(0.736447 0.810954 -1.21854e-21)
(0.639743 0.748892 4.88463e-20)
(0.561683 0.685945 0)
(0.503142 0.625105 4.84452e-20)
(0.461639 0.567419 3.59542e-20)
(0.434518 0.511094 9.13249e-20)
(0.405523 0.445091 2.78353e-20)
(0.33788 0.343628 -3.39792e-20)
(0.211278 0.198856 -1.99829e-20)
(0.0775034 0.0659762 0)
(0.00324224 0.00237563 5.623e-20)
(0.23656 0.204039 -7.28238e-20)
(1.04082 0.893881 0)
(1.18488 1.03497 4.18871e-20)
(1.17397 1.04799 -4.38086e-20)
(1.12229 1.02734 3.95892e-20)
(1.06049 1.00075 5.59579e-20)
(0.990853 0.969929 -5.36006e-20)
(0.912009 0.9342 3.25944e-22)
(0.822841 0.891592 0)
(0.721631 0.838339 -2.83968e-20)
(0.621455 0.776358 -1.0198e-19)
(0.538813 0.712584 4.8826e-21)
(0.475215 0.649703 6.60546e-20)
(0.427897 0.588601 0)
(0.394921 0.524821 6.17499e-20)
(0.360678 0.443568 0)
(0.291805 0.320202 0)
(0.180986 0.1612 -2.21818e-20)
(0.0839525 0.0371493 0)
(0.023456 0.006091 1.51685e-20)
(0.236278 0.21073 -7.9866e-20)
(1.03343 0.919424 0)
(1.17444 1.06284 6.80899e-20)
(1.16309 1.07571 0)
(1.11149 1.05451 -2.16108e-20)
(1.0497 1.02741 0)
(0.980062 0.996159 -4.07237e-21)
(0.90088 0.960244 -2.50707e-21)
(0.810857 0.91774 2.77277e-22)
(0.707768 0.864952 -2.85018e-20)
(0.604239 0.803649 2.72317e-21)
(0.516823 0.739771 4.03233e-20)
(0.447673 0.675461 6.41118e-20)
(0.393172 0.612198 9.106e-21)
(0.351013 0.541657 4.84444e-20)
(0.306491 0.442405 0)
(0.228373 0.289261 7.4e-20)
(0.126364 0.0987609 -4.39154e-20)
(0.0418084 0.0643993 5.07606e-20)
(-0.0349639 0.424904 -6.02041e-20)
(0.235949 0.217165 6.53004e-20)
(1.02604 0.943518 1.01288e-19)
(1.16424 1.08913 0)
(1.15245 1.10199 1.05673e-21)
(1.10097 1.08048 5.88998e-20)
(1.03917 1.0531 -1.09302e-19)
(0.969573 1.02164 -2.39409e-20)
(0.890072 0.985863 0)
(0.799218 0.943859 -2.65072e-21)
(0.694263 0.892092 -9.7687e-22)
(0.587274 0.83225 0)
(0.494677 0.76931 0)
(0.419292 0.704218 5.63645e-20)
(0.356352 0.640233 -2.84177e-20)
(0.300546 0.565376 -4.8447e-20)
(0.239427 0.448487 0)
(0.127693 0.271092 3.80133e-20)
(0.0217427 0.450496 -4.46439e-20)
(0.0430356 1.84867 -2.44509e-20)
(0.0717474 2.78361 -3.00083e-20)
(0.235277 0.223011 -4.80886e-20)
(1.01872 0.966344 -1.28335e-19)
(1.15427 1.11384 3.95278e-20)
(1.14207 1.12667 3.76552e-20)
(1.09079 1.10505 0)
(1.02895 1.07753 -7.85631e-20)
(0.959567 1.04607 -4.04326e-20)
(0.879744 1.01063 1.74321e-21)
(0.788167 0.96943 -3.15255e-22)
(0.681467 0.919135 2.2678e-20)
(0.571141 0.861411 4.6158e-20)
(0.473342 0.800746 4.18625e-20)
(0.391281 0.735439 5.55044e-20)
(0.319836 0.671075 -6.49662e-20)
(0.249831 0.598414 -7.18771e-20)
(0.160311 0.481396 0)
(0.0642169 0.843718 0)
(0.112724 2.52476 1.99582e-20)
(0.116843 3.17971 0)
(0.117011 3.37776 5.03222e-20)
(0.237358 0.22848 0)
(1.01172 0.988199 0)
(1.14426 1.13683 0)
(1.13176 1.14959 1.05445e-20)
(1.08069 1.12802 5.29355e-20)
(1.01884 1.10057 -6.03144e-20)
(0.94997 1.06935 -2.91004e-20)
(0.869826 1.03442 2.01449e-21)
(0.777638 0.994284 -9.80165e-21)
(0.669372 0.94591 -2.10243e-21)
(0.555935 0.890925 8.43204e-20)
(0.453194 0.833928 -4.91374e-21)
(0.364141 0.769584 6.31277e-21)
(0.285492 0.701495 9.28328e-21)
(0.199017 0.639448 4.49401e-22)
(0.124986 0.97578 3.2817e-22)
(0.157587 2.67067 -1.00339e-19)
(0.170523 3.28293 -3.80323e-20)
(0.155667 3.42386 1.86884e-20)
(0.139739 3.4469 -1.99457e-20)
(0.159646 0.173488 2.85284e-20)
(0.999818 1.01196 0)
(1.13416 1.15834 -7.78747e-20)
(1.12196 1.17108 -9.80675e-20)
(1.07108 1.14987 1.10505e-19)
(1.00945 1.12264 6.40533e-20)
(0.940576 1.0915 3.44092e-20)
(0.86034 1.05729 -3.59268e-20)
(0.767743 1.01842 1.15226e-20)
(0.658265 0.97236 0)
(0.542106 0.920633 3.71389e-20)
(0.434887 0.868238 -3.15755e-20)
(0.338613 0.809133 0)
(0.254336 0.736845 8.41963e-21)
(0.174413 0.866682 2.06667e-20)
(0.172539 2.41786 -2.46441e-20)
(0.235624 3.32021 2.81395e-20)
(0.213124 3.44284 1.40331e-20)
(0.176789 3.46414 1.62778e-20)
(0.152911 3.47355 2.21262e-20)
(0.270899 0.264735 -5.58401e-20)
(0.981175 1.02005 0)
(1.1157 1.18245 8.09926e-20)
(1.10847 1.20323 1.02903e-19)
(1.0558 1.18226 -1.15184e-19)
(0.994023 1.15557 -6.90634e-20)
(0.924449 1.12576 -5.34928e-20)
(0.843908 1.09283 -2.65495e-21)
(0.750412 1.05629 -1.80672e-20)
(0.638842 1.01451 5.72576e-21)
(0.518476 0.969473 1.5117e-21)
(0.404238 0.925926 2.45156e-20)
(0.293022 0.881754 5.20241e-21)
(0.229936 1.01169 -7.45447e-21)
(0.245087 2.2783 -1.74959e-20)
(0.304671 3.32705 1.41283e-20)
(0.291255 3.47894 -1.36415e-20)
(0.252984 3.49892 -7.9464e-21)
(0.214556 3.52425 -2.41216e-21)
(0.162611 3.51671 -5.99778e-22)
(0.260213 0.262941 0)
(0.977742 1.04151 2.14361e-20)
(1.10741 1.20483 -1.60312e-20)
(1.09853 1.22547 -1.14769e-20)
(1.04608 1.20451 -7.56777e-20)
(0.984556 1.17805 6.74025e-20)
(0.914857 1.14848 3.61182e-20)
(0.834428 1.11641 -2.81339e-21)
(0.74087 1.08144 2.29479e-20)
(0.628717 1.0427 -2.97291e-21)
(0.506609 1.0027 -4.94717e-20)
(0.38933 0.965548 3.48117e-21)
(0.282816 0.951645 -4.53013e-21)
(0.269689 1.47319 -6.15694e-21)
(0.343796 3.07403 3.78689e-21)
(0.368924 3.47837 5.03404e-22)
(0.322381 3.53892 3.35364e-21)
(0.284073 3.55899 -3.30814e-21)
(0.233422 3.58023 1.08059e-20)
(0.175074 3.57434 3.49296e-21)
(0.245455 0.25997 5.3121e-20)
(0.973193 1.06526 1.43711e-19)
(1.09857 1.22906 -4.57029e-20)
(1.08825 1.2492 -4.35189e-20)
(1.03603 1.22811 0)
(0.974752 1.20165 9.89735e-20)
(0.905199 1.17233 5.52868e-20)
(0.825153 1.14105 -2.9893e-21)
(0.731872 1.1077 2.36633e-21)
(0.619678 1.07216 8.45418e-21)
(0.496677 1.03759 -1.61315e-20)
(0.378618 1.00823 -2.40719e-20)
(0.290416 1.07637 -2.98185e-20)
(0.340228 2.12541 3.21708e-20)
(0.43243 3.38344 1.82418e-20)
(0.415197 3.5487 0)
(0.359191 3.58651 0)
(0.318719 3.62537 1.02678e-20)
(0.259196 3.67955 0)
(0.185456 3.65356 2.4879e-20)
(0.234736 0.260773 -7.74259e-20)
(0.966543 1.0896 -1.19395e-19)
(1.08836 1.2544 0)
(1.07686 1.27377 1.23465e-21)
(1.02488 1.25228 -7.37265e-20)
(0.963964 1.2257 1.47243e-19)
(0.894886 1.19662 3.73169e-20)
(0.815465 1.16603 -3.80024e-21)
(0.722753 1.13422 2.69787e-20)
(0.610956 1.10181 -1.2405e-21)
(0.487799 1.07285 0)
(0.371716 1.05394 0)
(0.322099 1.29606 -2.17566e-20)
(0.427319 2.79841 7.11714e-21)
(0.510176 3.50629 6.34205e-22)
(0.458722 3.59106 0)
(0.412983 3.64453 2.89527e-20)
(0.358795 3.70534 -4.49312e-20)