/*--------------------------------*- C++ -*----------------------------------*\
  =========                 |
  \\      /  F ield         | OpenFOAM: The Open Source CFD Toolbox
   \\    /   O peration     | Website:  https://openfoam.org
    \\  /    A nd           | Version:  6
     \\/     M anipulation  |
\*---------------------------------------------------------------------------*/
FoamFile
{
    version     2.0;
    format      ascii;
    class       volScalarField;
    location    "16.6";
    object      p;
}
// * * * * * * * * * * * * * * * * * * * * * * * * * * * * * * * * * * * * * //

dimensions      [0 2 -2 0 0 0 0];

internalField   nonuniform List<scalar> 
8800
(
0.435081
0.385775
0.34782
0.319762
0.299605
0.28501
0.274401
0.266857
0.261948
0.259754
0.260845
0.264855
0.271357
0.280566
0.293156
0.310371
0.334169
0.367209
0.410108
0.462607
0.269536
0.275889
0.28506
0.288636
0.286064
0.280014
0.27312
0.266905
0.262051
0.259058
0.258606
0.260933
0.265302
0.27117
0.278036
0.284894
0.289643
0.289423
0.28268
0.273739
0.243007
0.249269
0.253824
0.257766
0.260793
0.261824
0.260782
0.258617
0.256515
0.255467
0.256219
0.258391
0.261018
0.263033
0.263304
0.261301
0.257767
0.253617
0.248752
0.245019
0.238638
0.241429
0.244113
0.246365
0.248206
0.249873
0.251035
0.251421
0.251202
0.251024
0.251547
0.252388
0.252754
0.252277
0.251006
0.249388
0.247503
0.245031
0.242512
0.240941
0.233525
0.234971
0.236949
0.2392
0.241045
0.242409
0.243515
0.244436
0.245146
0.245653
0.245987
0.246019
0.245692
0.245015
0.244052
0.242644
0.240686
0.238518
0.237021
0.236229
0.228589
0.229497
0.230903
0.232739
0.234627
0.236281
0.237636
0.238797
0.239824
0.24065
0.240954
0.240769
0.240252
0.23942
0.23823
0.236646
0.234895
0.233305
0.232328
0.231833
0.223996
0.224647
0.225887
0.227625
0.229489
0.231433
0.233262
0.234701
0.235745
0.236514
0.237019
0.237053
0.236514
0.235372
0.2338
0.232149
0.230506
0.229065
0.228274
0.227943
0.219796
0.220227
0.221301
0.222868
0.224488
0.226065
0.227662
0.229325
0.230854
0.232022
0.232529
0.232316
0.231558
0.230557
0.229433
0.228138
0.226724
0.225466
0.224845
0.224648
0.21656
0.2168
0.217697
0.219114
0.22063
0.222141
0.223615
0.224996
0.226321
0.227524
0.228261
0.228423
0.228144
0.227489
0.226543
0.225417
0.224182
0.223114
0.22267
0.222586
0.214431
0.214562
0.215129
0.216151
0.217351
0.218661
0.220101
0.221644
0.223179
0.224576
0.225525
0.22583
0.225633
0.225093
0.224423
0.223667
0.222866
0.222238
0.222002
0.221959
0.212285
0.212385
0.212689
0.213255
0.214017
0.21496
0.216056
0.21738
0.218888
0.220468
0.22173
0.222447
0.222735
0.222778
0.222569
0.222324
0.22205
0.221846
0.221745
0.221702
0.209275
0.209355
0.209581
0.209966
0.210647
0.211541
0.212723
0.214172
0.215864
0.217727
0.219346
0.220385
0.220937
0.22114
0.221148
0.221211
0.221227
0.221193
0.221142
0.221103
0.205471
0.20553
0.20577
0.206212
0.206765
0.207637
0.208823
0.210376
0.212304
0.214537
0.216604
0.218078
0.219014
0.219609
0.22001
0.220217
0.220325
0.220332
0.220314
0.220287
0.201114
0.201152
0.2014
0.201927
0.202684
0.203575
0.204967
0.20675
0.209001
0.211705
0.21433
0.216321
0.217686
0.218578
0.219156
0.219497
0.219636
0.219677
0.219698
0.219683
0.196343
0.196366
0.19661
0.197178
0.19805
0.199247
0.200815
0.202901
0.205599
0.208917
0.212237
0.214827
0.216634
0.217941
0.218759
0.219238
0.219463
0.219579
0.219637
0.219626
0.191111
0.191141
0.191394
0.192023
0.193008
0.194395
0.196246
0.198756
0.202048
0.206162
0.210351
0.213668
0.216113
0.217706
0.218831
0.219534
0.219931
0.220152
0.220244
0.220231
0.185146
0.185179
0.185493
0.186165
0.187284
0.188892
0.19115
0.194236
0.198311
0.203444
0.208705
0.212925
0.215963
0.218143
0.2196
0.220545
0.221125
0.221451
0.221572
0.221554
0.178127
0.178169
0.178552
0.179379
0.18066
0.182615
0.185394
0.189219
0.194303
0.20073
0.207331
0.212626
0.216528
0.219246
0.221111
0.222346
0.223127
0.223564
0.223715
0.22369
0.169734
0.16979
0.170257
0.171272
0.172919
0.175336
0.178793
0.183588
0.189977
0.198037
0.206295
0.212925
0.217768
0.221177
0.223522
0.22509
0.226089
0.226642
0.22683
0.226798
0.159587
0.159661
0.160263
0.161539
0.163634
0.166722
0.17112
0.177209
0.185271
0.195379
0.205675
0.213902
0.219886
0.224109
0.227022
0.228979
0.230228
0.230916
0.23115
0.23111
0.147134
0.14723
0.148019
0.149703
0.152432
0.156433
0.162118
0.169906
0.180115
0.192787
0.205565
0.215702
0.223056
0.228249
0.231838
0.234258
0.235807
0.236654
0.23694
0.236889
0.131608
0.13174
0.132804
0.135071
0.138711
0.143996
0.151421
0.161471
0.174459
0.190318
0.206086
0.218489
0.227467
0.233818
0.238221
0.241206
0.243124
0.244159
0.244503
0.244438
0.111886
0.112079
0.113559
0.116704
0.121685
0.128818
0.138692
0.151793
0.168336
0.18809
0.20739
0.222434
0.233313
0.241039
0.246431
0.250117
0.252502
0.253793
0.254206
0.254119
0.0861048
0.0864013
0.0885966
0.0932268
0.100344
0.110295
0.12368
0.140865
0.161882
0.186294
0.209664
0.227712
0.240775
0.250117
0.256711
0.261278
0.264258
0.265874
0.266378
0.266263
0.0511753
0.0517317
0.0553951
0.0627513
0.0734983
0.0878493
0.106254
0.128831
0.155354
0.185172
0.213087
0.234455
0.249964
0.261181
0.269235
0.274932
0.278716
0.280771
0.281384
0.281225
0.00112952
0.00286294
0.0103054
0.0232559
0.0403195
0.0614355
0.0867716
0.116155
0.149152
0.184991
0.217795
0.2427
0.260852
0.274172
0.283968
0.291114
0.296036
0.298782
0.299577
0.299354
-0.0731333
-0.0639501
-0.0470977
-0.024146
0.00240063
0.0325126
0.066259
0.103447
0.143625
0.186054
0.224227
0.253113
0.274371
0.290287
0.302401
0.311718
0.318486
0.32259
0.32398
0.323966
-0.1516
-0.132563
-0.105362
-0.0720257
-0.035731
0.00346245
0.0456948
0.0908704
0.138654
0.188438
0.233041
0.267011
0.292388
0.311841
0.327072
0.339199
0.348681
0.35516
0.357595
0.357748
-0.216393
-0.193674
-0.158454
-0.116649
-0.0717838
-0.0241537
0.0261993
0.0790904
0.134193
0.190946
0.241464
0.279889
0.308707
0.330932
0.348499
0.362533
0.373572
0.381084
0.383534
0.383885
-0.268146
-0.243176
-0.203023
-0.15535
-0.103921
-0.0493554
0.00801904
0.0678401
0.129658
0.192789
0.248542
0.290678
0.322078
0.346141
0.36498
0.379962
0.391633
0.399597
0.402489
0.402928
-0.310392
-0.28437
-0.240803
-0.188613
-0.132043
-0.071924
-0.00869366
0.0571599
0.12494
0.193782
0.254121
0.299264
0.332531
0.357727
0.377239
0.392607
0.404458
0.412422
0.415529
0.41594
-0.346363
-0.319778
-0.273739
-0.217921
-0.157087
-0.0922834
-0.0240436
0.0470468
0.120121
0.194086
0.258494
0.306268
0.341093
0.367147
0.387054
0.402493
0.41427
0.422172
0.425385
0.425814
-0.378072
-0.351174
-0.303209
-0.244388
-0.179983
-0.111156
-0.0384979
0.0372761
0.115188
0.193927
0.262215
0.312439
0.348639
0.375375
0.395529
0.410971
0.422653
0.430437
0.433699
0.434126
-0.406965
-0.379815
-0.330255
-0.268918
-0.20143
-0.12907
-0.0524538
0.0275789
0.109988
0.193255
0.265215
0.317799
0.355365
0.382816
0.403289
0.418809
0.430443
0.438104
0.44137
0.44181
-0.433918
-0.406525
-0.35563
-0.292053
-0.221876
-0.146413
-0.0662805
0.0176468
0.104227
0.191794
0.267477
0.322588
0.361675
0.389972
0.410853
0.426517
0.438153
0.445693
0.448896
0.449382
-0.459611
-0.431901
-0.379782
-0.314244
-0.241721
-0.163498
-0.0802042
0.00727358
0.0977774
0.189622
0.269148
0.326963
0.367754
0.397058
0.418474
0.434382
0.446072
0.453533
0.456641
0.457119
-0.4843
-0.456284
-0.403055
-0.335768
-0.261145
-0.180447
-0.0943082
-0.00356884
0.0906623
0.186671
0.270114
0.330874
0.373635
0.404175
0.426311
0.442585
0.454413
0.461827
0.464803
0.465221
-0.508324
-0.479892
-0.425663
-0.356801
-0.280303
-0.197401
-0.108683
-0.0149418
0.0827397
0.182777
0.270283
0.334278
0.379321
0.411365
0.43443
0.45122
0.463267
0.47067
0.473495
0.473815
-0.531724
-0.502874
-0.447706
-0.377448
-0.29928
-0.214406
-0.12338
-0.0269432
0.0739452
0.177889
0.269537
0.337062
0.38476
0.418609
0.442824
0.460288
0.472644
0.480069
0.482758
0.482933
-0.554558
-0.525283
-0.46925
-0.39772
-0.318069
-0.231458
-0.1384
-0.0395387
0.0642962
0.17194
0.267731
0.339034
0.389769
0.425814
0.451457
0.469771
0.48252
0.489956
0.492496
0.492531
-0.576863
-0.547147
-0.490284
-0.417621
-0.336675
-0.248536
-0.153681
-0.0526716
0.0538044
0.164885
0.264745
0.340009
0.394143
0.432824
0.460249
0.479619
0.492845
0.50028
0.502627
0.502522
-0.598657
-0.568438
-0.510786
-0.43712
-0.355036
-0.265571
-0.169156
-0.0662941
0.0425049
0.156701
0.260464
0.339774
0.397659
0.439473
0.469132
0.489797
0.503529
0.510876
0.512941
0.512702
-0.619785
-0.589107
-0.530715
-0.45617
-0.373093
-0.282486
-0.18476
-0.0803123
0.0304866
0.147434
0.254805
0.338121
0.399999
0.445481
0.47801
0.500335
0.514524
0.521555
0.523225
0.522846
-0.640209
-0.609103
-0.550033
-0.474716
-0.390785
-0.299219
-0.200385
-0.0946308
0.0178407
0.137126
0.247732
0.33487
0.4008
0.450416
0.48668
0.511435
0.526079
0.532221
0.533165
0.532653
-0.659973
-0.628393
-0.568712
-0.492714
-0.408044
-0.315675
-0.215935
-0.109132
0.00467967
0.125876
0.239244
0.329907
0.399746
0.453705
0.494647
0.523287
0.539067
0.543358
0.542469
0.541789
-0.67893
-0.646945
-0.586698
-0.510099
-0.424806
-0.331769
-0.231312
-0.123699
-0.00886198
0.113821
0.229387
0.323149
0.396561
0.454635
0.500914
0.535439
0.554914
0.557881
0.55253
0.548958
-0.697157
-0.664772
-0.603997
-0.526898
-0.441106
-0.347551
-0.246572
-0.138391
-0.0228531
0.100893
0.218047
0.314365
0.390957
0.452395
0.503884
0.546071
0.573098
0.58057
0.570469
0.563273
-0.714597
-0.681935
-0.620748
-0.543293
-0.457227
-0.363347
-0.262117
-0.153697
-0.0378496
0.0864125
0.204492
0.30264
0.38217
0.445673
0.500353
0.5499
0.584067
0.591255
0.581324
0.566171
-0.731143
-0.698425
-0.636801
-0.559083
-0.472952
-0.378869
-0.27773
-0.169284
-0.0535157
0.0707043
0.188975
0.287757
0.369909
0.434114
0.485753
0.535774
0.568879
0.563261
0.50183
0.467697
-0.746703
-0.714936
-0.651711
-0.573775
-0.487692
-0.393666
-0.293165
-0.184899
-0.069576
0.053982
0.171637
0.269586
0.353558
0.418794
0.459123
0.493735
0.509702
0.470619
0.403381
0.360303
-0.787857
-0.730409
-0.665464
-0.588116
-0.502141
-0.408573
-0.308308
-0.200642
-0.0861938
0.0360078
0.152197
0.248049
0.330772
0.401163
0.416023
0.421388
0.399345
0.343799
0.270039
0.229474
-0.760886
-0.74317
-0.685855
-0.609711
-0.523663
-0.430704
-0.331464
-0.22505
-0.112402
0.00688254
0.119173
0.210568
0.284402
0.350601
0.352449
0.247579
0.152328
0.088961
0.0198702
0.0592769
-0.789885
-0.759376
-0.701469
-0.625309
-0.539784
-0.44739
-0.348296
-0.242904
-0.131797
-0.0151205
0.0932819
0.180219
0.245129
0.278442
0.229011
0.0818728
-0.0397809
-0.119793
-0.211935
-0.148713
-0.811754
-0.778977
-0.719436
-0.643088
-0.557865
-0.465713
-0.367015
-0.262751
-0.153491
-0.0399051
0.0637094
0.144505
0.198016
0.197302
0.0809231
-0.104015
-0.255801
-0.3605
-0.473075
-0.423748
-0.832561
-0.798873
-0.738174
-0.661365
-0.576159
-0.484253
-0.386282
-0.283254
-0.176058
-0.06585
0.0322331
0.105841
0.145053
0.102701
-0.0800335
-0.29912
-0.497169
-0.66519
-0.812087
-0.767265
-0.852691
-0.818835
-0.757502
-0.680306
-0.59506
-0.503473
-0.40633
-0.30465
-0.199746
-0.0931906
-0.00117244
0.0644988
0.0819002
-0.00245426
-0.241415
-0.493126
-0.735599
-0.944232
-1.20821
-1.29922
-0.872819
-0.839259
-0.777671
-0.700237
-0.614949
-0.52366
-0.427253
-0.32696
-0.224358
-0.121611
-0.035867
0.0208688
0.0174798
-0.12832
-0.391104
-0.666386
-0.928878
-1.14822
-1.32634
-1.53692
-0.893747
-0.860502
-0.798934
-0.721452
-0.636235
-0.545332
-0.449729
-0.351006
-0.250903
-0.152431
-0.0735288
-0.0273818
-0.0605743
-0.263957
-0.532276
-0.810505
-1.05335
-1.1985
-1.2394
-1.25893
-0.915685
-0.882761
-0.821336
-0.743962
-0.658971
-0.568581
-0.473999
-0.377081
-0.279847
-0.186221
-0.114894
-0.0803489
-0.14859
-0.394676
-0.664374
-0.919754
-1.11673
-1.18108
-1.19767
-1.19889
-0.93887
-0.906103
-0.844846
-0.767669
-0.683025
-0.593302
-0.499973
-0.40504
-0.311222
-0.22283
-0.159687
-0.141263
-0.239962
-0.520912
-0.787252
-1.01638
-1.15416
-1.17464
-1.17591
-1.17559
-0.963102
-0.930502
-0.8694
-0.792477
-0.708296
-0.619372
-0.527477
-0.434743
-0.344884
-0.261877
-0.207367
-0.205629
-0.338758
-0.638317
-0.90595
-1.09542
-1.15748
-1.16616
-1.16605
-1.16517
-0.988165
-0.955702
-0.894819
-0.818209
-0.73458
-0.64661
-0.556245
-0.466035
-0.380379
-0.303008
-0.257313
-0.273235
-0.443444
-0.742027
-1.02747
-1.17002
-1.16539
-1.16629
-1.16382
-1.16176
-1.01337
-0.981291
-0.920786
-0.844561
-0.761573
-0.674683
-0.585958
-0.498453
-0.417109
-0.345999
-0.307993
-0.348749
-0.540039
-0.820367
-1.1387
-1.27202
-1.23747
-1.18031
-1.15291
-1.14656
-1.03811
-1.00674
-0.946822
-0.871083
-0.78881
-0.703088
-0.616196
-0.531195
-0.454416
-0.390438
-0.356624
-0.428976
-0.637685
-0.844692
-1.16507
-1.33136
-1.26612
-1.1907
-1.14497
-1.13252
-1.06209
-1.03141
-0.972265
-0.897163
-0.815655
-0.731213
-0.64617
-0.563612
-0.490855
-0.435468
-0.401795
-0.506894
-0.754228
-0.824457
-0.895543
-1.13907
-1.29938
-1.41324
-1.38331
-1.34377
-1.08404
-1.05442
-0.996346
-0.922
-0.841379
-0.758192
-0.674784
-0.595149
-0.524553
-0.478891
-0.446379
-0.576647
-0.903795
-0.932538
-0.545687
-0.707398
-1.33662
-1.64285
-1.63365
-1.61882
-1.10275
-1.07466
-1.01807
-0.944632
-0.865046
-0.782886
-0.701125
-0.624046
-0.554778
-0.515872
-0.492958
-0.630777
-1.12973
-1.55803
-1.54607
-1.86026
-1.95764
-1.81325
-1.67868
-1.70413
-1.1171
-1.09097
-1.03631
-0.96399
-0.885309
-0.804305
-0.72401
-0.647832
-0.581254
-0.540554
-0.541709
-0.694426
-1.41227
-2.52575
-3.31711
-3.65448
-3.52531
-3.05803
-2.59616
-2.44602
-1.12573
-1.10214
-1.04991
-0.978886
-0.900984
-0.821171
-0.741703
-0.665784
-0.599718
-0.554625
-0.55612
-0.751898
-1.49667
-2.70632
-3.86817
-4.08993
-3.94078
-3.63859
-3.28731
-3.0514
-1.12784
-1.10697
-1.0576
-0.987885
-0.910986
-0.832013
-0.753029
-0.67702
-0.608063
-0.548702
-0.558315
-0.647187
-1.19124
-1.85215
-2.59876
-2.88483
-2.76652
-2.46997
-2.2084
-2.03561
-1.12138
-1.1039
-1.0579
-0.989847
-0.913739
-0.835731
-0.757582
-0.681478
-0.606393
-0.531293
-0.502868
-0.429804
-0.543271
-0.564146
-0.457761
-0.292872
0.0423655
0.316272
0.501362
0.586428
-1.10502
-1.09073
-1.0487
-0.982876
-0.907931
-0.831721
-0.755454
-0.678253
-0.595842
-0.501713
-0.393799
-0.312906
0.00162864
0.451576
1.02717
1.62595
2.08313
2.36501
2.50368
2.5533
-1.07703
-1.06612
-1.02837
-0.965291
-0.89267
-0.819599
-0.74633
-0.670207
-0.585364
-0.471368
-0.324103
-0.181522
0.107371
0.703808
1.38729
1.98575
2.43479
2.71428
2.85494
2.89774
-1.03521
-1.02738
-0.994025
-0.934758
-0.867256
-0.799776
-0.733675
-0.667053
-0.585265
-0.461189
-0.290059
-0.100217
0.115554
0.545191
1.09854
1.60011
1.96946
2.19473
2.30683
2.34324
-0.97449
-0.968781
-0.941663
-0.890883
-0.831791
-0.774361
-0.721651
-0.672897
-0.613146
-0.495771
-0.311333
-0.128206
0.11493
0.354508
0.722102
1.08275
1.3511
1.52731
1.62128
1.65383
-0.899917
-0.895027
-0.874826
-0.83584
-0.789648
-0.746657
-0.712746
-0.692814
-0.684869
-0.65092
-0.558064
-0.379243
-0.11144
0.102514
0.331214
0.567435
0.765663
0.897286
0.965573
0.982339
-0.812279
-0.809507
-0.79746
-0.773422
-0.744616
-0.720532
-0.710796
-0.731141
-0.806047
-0.962691
-1.10087
-0.905447
-0.493141
-0.2593
-0.0296713
0.18173
0.352369
0.460292
0.520026
0.536778
-0.730419
-0.729457
-0.723523
-0.711702
-0.698857
-0.693116
-0.707329
-0.770962
-0.957379
-1.36315
-1.79628
-1.55859
-0.973398
-0.669301
-0.399323
-0.162585
0.0144047
0.12219
0.167447
0.173043
-0.651613
-0.652008
-0.650081
-0.645703
-0.643747
-0.651478
-0.68378
-0.778848
-1.04303
-1.65807
-2.29446
-2.02177
-1.36611
-0.951746
-0.633964
-0.382716
-0.218673
-0.134098
-0.101939
-0.100389
-0.564815
-0.566112
-0.565825
-0.565012
-0.568166
-0.581403
-0.618589
-0.716291
-0.979788
-1.59985
-2.20517
-1.97424
-1.44814
-1.05329
-0.713681
-0.49127
-0.369698
-0.321204
-0.304834
-0.303111
-0.463277
-0.464688
-0.465393
-0.466358
-0.470409
-0.482181
-0.51146
-0.584099
-0.772734
-1.20926
-1.61156
-1.46913
-1.11345
-0.786323
-0.560555
-0.440038
-0.403852
-0.396897
-0.393224
-0.39094
-0.354802
-0.356006
-0.357146
-0.358418
-0.361204
-0.367833
-0.383313
-0.420528
-0.513387
-0.722261
-0.906762
-0.799701
-0.586068
-0.410893
-0.333443
-0.32259
-0.334761
-0.345988
-0.348841
-0.348184
-0.250862
-0.251696
-0.252937
-0.254061
-0.255331
-0.257036
-0.260506
-0.269361
-0.292215
-0.337343
-0.342871
-0.302351
-0.215378
-0.167311
-0.173576
-0.201686
-0.224047
-0.237353
-0.24215
-0.242839
-0.161592
-0.162087
-0.163196
-0.164044
-0.164123
-0.1628
-0.15947
-0.153468
-0.143885
-0.126329
-0.090604
-0.0567174
-0.0377042
-0.0505713
-0.0760848
-0.103156
-0.122082
-0.13283
-0.137439
-0.138661
-0.0914717
-0.0917228
-0.0926478
-0.0933878
-0.0930158
-0.0905415
-0.0847997
-0.0740494
-0.0557387
-0.0265581
0.00715392
0.0215953
0.0222903
0.00409295
-0.0179843
-0.0370419
-0.0501351
-0.0576019
-0.0611116
-0.0622312
-0.0403208
-0.0404359
-0.0412031
-0.0419508
-0.0416874
-0.0393292
-0.0337264
-0.0233209
-0.0062171
0.0185993
0.042056
0.0491676
0.0441445
0.030461
0.0153053
0.00272109
-0.00603028
-0.0111122
-0.0135803
-0.0144266
-0.00542185
-0.00547612
-0.00612052
-0.00690732
-0.00693443
-0.00530857
-0.00102893
0.007125
0.020254
0.0381117
0.0530479
0.0565349
0.0515142
0.0423088
0.0325633
0.024315
0.0183929
0.0148739
0.0131709
0.0125763
0.0168543
0.0168207
0.0162959
0.0155215
0.0152601
0.0162126
0.0190634
0.0246508
0.0336736
0.0455332
0.0547197
0.0564449
0.0527689
0.0466792
0.0402855
0.0347571
0.0306264
0.0280998
0.0269127
0.026509
0.0300428
0.0300064
0.0295834
0.0288663
0.0284342
0.0288375
0.0305989
0.0342255
0.0400535
0.0475502
0.0530603
0.0537609
0.0510579
0.0469163
0.0426161
0.0387956
0.0358243
0.0339645
0.0331247
0.0328513
0.0370558
0.0370081
0.0366498
0.0359805
0.0354529
0.0354369
0.036306
0.0384387
0.0420278
0.0465749
0.0496941
0.0497897
0.0478231
0.0449657
0.0419785
0.0392762
0.0371148
0.0357417
0.0351443
0.0349574
0.0399877
0.0399321
0.0396155
0.0389942
0.038421
0.0381539
0.0384475
0.0395266
0.041513
0.0441079
0.0457978
0.0455811
0.0440602
0.0419795
0.0398327
0.0378736
0.0362786
0.0352601
0.0348322
0.0347022
0.0402173
0.0401594
0.0398737
0.0393041
0.0387197
0.0383043
0.0382399
0.0386811
0.039682
0.0410109
0.0417354
0.0412818
0.0400491
0.0384927
0.0369096
0.0354613
0.0342731
0.0335157
0.033207
0.0331152
0.0386486
0.0385934
0.038338
0.0378248
0.0372584
0.0367713
0.0364836
0.0364939
0.0368447
0.0373895
0.0375557
0.037007
0.0359919
0.0347922
0.0335981
0.0325119
0.0316206
0.0310556
0.0308304
0.0307645
0.0358969
0.0358485
0.0356296
0.0351831
0.0346641
0.0341707
0.0337844
0.033567
0.0335397
0.0336055
0.0334305
0.0328316
0.0319726
0.0310267
0.0301085
0.0292822
0.0286071
0.028181
0.0280141
0.0279661
0.0323812
0.0323411
0.0321601
0.0317811
0.0313229
0.030857
0.0304368
0.030102
0.0298662
0.029665
0.0293105
0.028718
0.0279943
0.0272409
0.0265277
0.025894
0.025379
0.0250553
0.0249306
0.0248956
0.0283786
0.0283462
0.0282019
0.0278918
0.0275036
0.0270909
0.0266871
0.0263163
0.0259858
0.025655
0.025228
0.0246751
0.0240672
0.0234634
0.0229057
0.0224162
0.0220204
0.0217734
0.0216802
0.0216545
0.0240795
0.0240536
0.0239417
0.0236968
0.0233807
0.0230331
0.0226737
0.0223173
0.0219676
0.0215981
0.021167
0.0206773
0.0201762
0.0196961
0.0192615
0.0188841
0.018581
0.0183936
0.0183243
0.0183056
0.0196129
0.0195925
0.0195077
0.0193204
0.0190729
0.0187934
0.0184935
0.0181817
0.01786
0.0175114
0.0171232
0.0167132
0.0163128
0.0159391
0.015606
0.0153192
0.0150904
0.0149504
0.0148993
0.0148856
0.0150574
0.015042
0.0149795
0.0148411
0.0146553
0.0144425
0.0142092
0.0139601
0.0136959
0.013406
0.0130907
0.0127713
0.0124682
0.0121902
0.0119443
0.0117332
0.0115655
0.0114634
0.0114264
0.0114165
0.0104562
0.0104451
0.0104012
0.0103036
0.0101731
0.0100246
0.00986137
0.0096854
0.00949651
0.00928828
0.0090645
0.00884255
0.00863549
0.00844686
0.00827962
0.00813476
0.00801823
0.00794704
0.0079214
0.00791431
0.00582579
0.00581849
0.00579158
0.00573197
0.0056554
0.00557172
0.00548115
0.00538351
0.00527837
0.00516322
0.00503967
0.00491789
0.00480511
0.00470221
0.00461008
0.00452821
0.0044597
0.00441678
0.00440109
0.00439593
0.00118266
0.00118423
0.00119256
0.00119136
0.00117673
0.00115655
0.00113352
0.0011088
0.00108176
0.0010507
0.00101716
0.000984341
0.000954453
0.000927405
0.000903509
0.000882321
0.000864414
0.000854609
0.000858778
0.000863917
-0.605449
-0.369436
-0.146528
0.0357849
0.186238
0.30944
0.415392
0.502604
0.530781
0.526886
-0.233245
-0.0800405
0.0623002
0.186611
0.293123
0.382973
0.455121
0.505215
0.532437
0.548361
0.017623
0.116975
0.215876
0.303709
0.37955
0.442987
0.493189
0.530971
0.557925
0.577063
0.19427
0.264167
0.335203
0.399065
0.454393
0.501258
0.540028
0.571602
0.595115
0.614168
0.331444
0.382754
0.435174
0.483353
0.525893
0.563054
0.595061
0.621774
0.641653
0.659951
0.444311
0.484665
0.525024
0.563648
0.598844
0.630386
0.657969
0.68086
0.69795
0.71561
0.540879
0.576329
0.611567
0.64559
0.677184
0.705723
0.730582
0.750846
0.765673
0.782866
0.632825
0.667371
0.701914
0.734985
0.765389
0.792552
0.815811
0.834204
0.847217
0.863905
0.730428
0.768091
0.804197
0.837848
0.868046
0.89426
0.916093
0.932969
0.944975
0.961236
0.845587
0.887165
0.92492
0.958468
0.987554
1.01209
1.03219
1.04784
1.05998
1.07613
0.988501
1.0298
1.06551
1.09547
1.12104
1.14302
1.16182
1.17754
1.19083
1.20683
1.16063
1.19282
1.22013
1.24282
1.26317
1.28211
1.30004
1.31695
1.33197
1.34773
1.34718
1.36451
1.38181
1.39871
1.41497
1.42984
1.44384
1.45841
1.47372
1.49107
1.53092
1.54088
1.55413
1.56517
1.57463
1.58439
1.59511
1.60538
1.61473
1.64043
1.74894
1.74327
1.73033
1.71607
1.70985
1.71564
1.73382
1.76238
1.79619
1.83253
2.05169
1.91573
1.83633
1.79399
1.77671
1.78067
1.80816
1.86603
1.97369
2.15211
0.338755
0.332458
0.324744
0.313652
0.3001
0.287473
0.277099
0.269086
0.26335
0.259965
0.259441
0.261977
0.266937
0.274078
0.283451
0.295143
0.308608
0.321463
0.330396
0.337908
0.247782
0.25371
0.261813
0.267982
0.271105
0.270656
0.267621
0.263678
0.260079
0.257694
0.257357
0.25935
0.262831
0.267003
0.270883
0.272947
0.271724
0.266978
0.259845
0.251966
0.240944
0.243322
0.246652
0.249523
0.252085
0.254392
0.255694
0.255602
0.254592
0.253576
0.253552
0.254754
0.256323
0.257286
0.256906
0.255173
0.25279
0.250243
0.247119
0.244046
0.236095
0.237182
0.239168
0.241615
0.243601
0.245102
0.246384
0.247376
0.24796
0.248221
0.248516
0.248948
0.249055
0.248638
0.247751
0.246562
0.24499
0.242804
0.240535
0.239004
0.231023
0.231638
0.232863
0.23481
0.236837
0.238551
0.239844
0.240948
0.241932
0.242771
0.243296
0.243356
0.243042
0.242443
0.241596
0.240334
0.238586
0.236654
0.235082
0.234232
0.22624
0.226643
0.22756
0.229154
0.231008
0.232897
0.234648
0.236073
0.237187
0.238079
0.238701
0.238867
0.238605
0.237883
0.236667
0.235096
0.233404
0.231781
0.230558
0.229979
0.221836
0.2221
0.222858
0.224337
0.226075
0.22785
0.229695
0.231467
0.232967
0.234087
0.234826
0.235068
0.234642
0.233654
0.232293
0.23082
0.229308
0.227803
0.226736
0.226317
0.218008
0.218138
0.218733
0.220055
0.221614
0.223142
0.224575
0.226012
0.227494
0.228879
0.229831
0.230051
0.229733
0.229095
0.228269
0.227197
0.225925
0.224619
0.223718
0.223462
0.215414
0.215464
0.21587
0.216927
0.218294
0.219727
0.221268
0.222802
0.224241
0.225575
0.22666
0.227227
0.227227
0.226743
0.225929
0.22499
0.22395
0.222929
0.222306
0.22217
0.213438
0.213472
0.213701
0.214304
0.21519
0.216208
0.21735
0.218661
0.220165
0.221723
0.223069
0.223849
0.224064
0.223969
0.223662
0.2232
0.222693
0.222216
0.221946
0.22187
0.210894
0.210927
0.211085
0.211435
0.211993
0.212782
0.213794
0.215069
0.216537
0.218182
0.2198
0.220987
0.221648
0.221897
0.221864
0.221782
0.221701
0.221607
0.221523
0.221469
0.207457
0.207478
0.207623
0.207956
0.208458
0.209152
0.21018
0.211519
0.213188
0.215136
0.217136
0.218688
0.219619
0.220135
0.22048
0.220678
0.220759
0.220783
0.220752
0.220717
0.203345
0.203347
0.203479
0.203847
0.204426
0.20516
0.206235
0.207677
0.209534
0.211801
0.214271
0.216348
0.217769
0.218706
0.219299
0.219672
0.21989
0.219951
0.219957
0.21995
0.198779
0.198776
0.198896
0.199306
0.199993
0.200901
0.202144
0.203833
0.206027
0.208768
0.211841
0.214512
0.216417
0.217722
0.218624
0.219148
0.21942
0.219531
0.219586
0.219599
0.193806
0.193792
0.193919
0.194346
0.195092
0.196189
0.197664
0.19963
0.202248
0.205591
0.209419
0.212835
0.215345
0.217081
0.218244
0.219047
0.219491
0.219728
0.219852
0.219876
0.18826
0.188243
0.1884
0.188847
0.189679
0.190914
0.192654
0.195045
0.198252
0.202386
0.207176
0.211521
0.214718
0.216998
0.218565
0.219595
0.220241
0.220625
0.220815
0.220846
0.181821
0.181801
0.181985
0.182526
0.183454
0.184909
0.187004
0.189939
0.193915
0.199068
0.205068
0.210527
0.214559
0.217491
0.219499
0.22085
0.221731
0.222269
0.222524
0.222564
0.174151
0.174125
0.174354
0.17501
0.176186
0.177948
0.180527
0.184189
0.189162
0.195615
0.203129
0.209958
0.215063
0.218706
0.22124
0.222958
0.224096
0.224798
0.225124
0.225175
0.164911
0.164877
0.165179
0.166015
0.167479
0.169726
0.172997
0.177615
0.183875
0.191983
0.201392
0.209908
0.216251
0.220782
0.223936
0.226084
0.227517
0.228401
0.228806
0.228868
0.153667
0.153628
0.154036
0.155133
0.157012
0.159892
0.164091
0.169979
0.177927
0.18815
0.199905
0.210467
0.218289
0.223883
0.227783
0.230446
0.232227
0.233332
0.233835
0.233908
0.139772
0.139731
0.1403
0.141761
0.144233
0.148002
0.153464
0.161077
0.17124
0.18413
0.198761
0.211777
0.221365
0.228219
0.233007
0.236288
0.238488
0.239857
0.240481
0.240568
0.122247
0.122207
0.123022
0.125033
0.128386
0.133458
0.140723
0.150687
0.163735
0.179976
0.198088
0.214002
0.225665
0.234007
0.239856
0.243884
0.246599
0.24829
0.249066
0.24917
0.0996518
0.0996373
0.100867
0.103739
0.108449
0.115471
0.125341
0.138544
0.155384
0.175795
0.198039
0.217306
0.231366
0.241452
0.248573
0.253519
0.256879
0.25898
0.259935
0.26006
0.0696511
0.0697298
0.0717119
0.0760465
0.0830252
0.0931517
0.106898
0.124598
0.146332
0.171788
0.198803
0.221846
0.238607
0.250703
0.259347
0.265437
0.269631
0.272267
0.273454
0.273602
0.027927
0.0282833
0.0319264
0.0393587
0.0505544
0.0658563
0.0853755
0.109136
0.136943
0.168285
0.200611
0.227757
0.247463
0.261808
0.272236
0.279755
0.285066
0.288447
0.289936
0.290102
-0.0333202
-0.0315485
-0.02294
-0.00878306
0.0102738
0.0337916
0.061365
0.0927928
0.12776
0.165656
0.203648
0.235078
0.257864
0.274612
0.287035
0.296276
0.303015
0.307418
0.309386
0.309611
-0.107371
-0.103798
-0.0872712
-0.0624794
-0.0329186
9.46089e-05
0.0364211
0.0760564
0.118731
0.163925
0.208612
0.245525
0.272582
0.292899
0.308408
0.320407
0.329728
0.335748
0.338187
0.338885
-0.182536
-0.173565
-0.148969
-0.114215
-0.0749296
-0.0327239
0.0122874
0.0600826
0.110453
0.162967
0.214415
0.256863
0.28817
0.311966
0.330518
0.34518
0.356738
0.364557
0.368563
0.369867
-0.240795
-0.230609
-0.201121
-0.159661
-0.112971
-0.0630874
-0.0103732
0.0449358
0.102533
0.161928
0.219598
0.266898
0.301691
0.32812
0.348682
0.364951
0.377708
0.386632
0.391469
0.392986
-0.28798
-0.277144
-0.244346
-0.198103
-0.145918
-0.0900313
-0.0310078
0.0307441
0.0947698
0.160379
0.223614
0.275064
0.312559
0.340757
0.362473
0.379484
0.392809
0.402362
0.407522
0.409062
-0.327092
-0.316165
-0.281282
-0.231366
-0.174762
-0.113994
-0.0497243
0.0175662
0.0872147
0.158364
0.226544
0.28152
0.32117
0.350644
0.373083
0.390462
0.403911
0.413476
0.418616
0.420203
-0.361078
-0.350153
-0.313724
-0.260875
-0.200605
-0.13571
-0.0669283
0.00519038
0.0798359
0.155991
0.2287
0.286962
0.328563
0.359112
0.382056
0.399579
0.412992
0.42253
0.427648
0.429169
-0.39148
-0.380612
-0.343
-0.287748
-0.224416
-0.155991
-0.0832194
-0.00675557
0.0724813
0.153316
0.230351
0.291699
0.335093
0.366607
0.389994
0.407663
0.421071
0.430591
0.435712
0.437102
-0.419481
-0.408636
-0.370114
-0.312793
-0.246784
-0.175265
-0.0989604
-0.0186031
0.0648636
0.150101
0.231244
0.295664
0.340945
0.373532
0.39747
0.415363
0.428819
0.438312
0.443419
0.444705
-0.445895
-0.435036
-0.395662
-0.336506
-0.268188
-0.193965
-0.11453
-0.0306385
0.0567107
0.146115
0.231419
0.299089
0.346434
0.380242
0.404848
0.42306
0.436625
0.446106
0.451183
0.452377
-0.471145
-0.46026
-0.420084
-0.359331
-0.288951
-0.212313
-0.130073
-0.0429851
0.0479686
0.14143
0.230899
0.301972
0.35161
0.386855
0.412304
0.430971
0.444741
0.454249
0.459273
0.460414
-0.495569
-0.484602
-0.443699
-0.381458
-0.309253
-0.230455
-0.145698
-0.0557005
0.0386229
0.135918
0.229521
0.304234
0.356467
0.393437
0.419938
0.43921
0.453288
0.462877
0.46781
0.468916
-0.519374
-0.508236
-0.466621
-0.403063
-0.329235
-0.248517
-0.161494
-0.0688486
0.0285369
0.12946
0.22721
0.305766
0.360908
0.399927
0.427749
0.44781
0.462315
0.472054
0.476895
0.477953
-0.542578
-0.531249
-0.488969
-0.42422
-0.348932
-0.266504
-0.177477
-0.0824831
0.017702
0.122041
0.223861
0.306438
0.364815
0.406231
0.435691
0.456768
0.471831
0.481767
0.486524
0.487459
-0.565266
-0.553698
-0.510788
-0.44493
-0.368348
-0.284418
-0.193632
-0.0965479
0.00615946
0.113639
0.219369
0.30608
0.368039
0.412261
0.443704
0.466032
0.481785
0.491946
0.49659
0.497383
-0.587358
-0.575572
-0.532042
-0.465187
-0.387467
-0.302221
-0.209887
-0.110978
-0.00605483
0.10425
0.213667
0.304508
0.370317
0.417814
0.451679
0.475559
0.492132
0.502532
0.507032
0.507627
-0.608883
-0.596853
-0.552699
-0.48495
-0.406233
-0.319842
-0.22618
-0.125707
-0.018874
0.0939203
0.206721
0.301575
0.371374
0.42257
0.459439
0.485306
0.502824
0.51333
0.517524
0.517903
-0.629674
-0.617476
-0.572718
-0.504175
-0.424586
-0.337205
-0.242436
-0.140643
-0.0321973
0.082726
0.198516
0.297165
0.370972
0.426184
0.466738
0.495294
0.513996
0.52434
0.527909
0.52799
-0.649833
-0.637405
-0.592062
-0.522826
-0.442484
-0.354262
-0.258553
-0.155687
-0.0459219
0.0707734
0.189092
0.291183
0.368862
0.428225
0.473112
0.505466
0.526106
0.535879
0.537983
0.537525
-0.669215
-0.656565
-0.610716
-0.54085
-0.459842
-0.37092
-0.27444
-0.170714
-0.0599232
0.0581564
0.178536
0.283596
0.364852
0.428195
0.4778
0.515337
0.5398
0.549527
0.548496
0.546179
-0.687874
-0.675017
-0.628623
-0.558193
-0.47662
-0.387113
-0.290014
-0.185638
-0.074077
0.0450378
0.166973
0.274402
0.358853
0.425666
0.479748
0.523553
0.55465
0.568018
0.56475
0.552693
-0.705719
-0.692728
-0.64587
-0.575014
-0.493029
-0.403126
-0.305614
-0.200869
-0.0888551
0.0308663
0.153806
0.262901
0.350174
0.419895
0.477335
0.527571
0.567601