/*--------------------------------*- C++ -*----------------------------------*\
  =========                 |
  \\      /  F ield         | OpenFOAM: The Open Source CFD Toolbox
   \\    /   O peration     | Website:  https://openfoam.org
    \\  /    A nd           | Version:  6
     \\/     M anipulation  |
\*---------------------------------------------------------------------------*/
FoamFile
{
    version     2.0;
    format      ascii;
    class       volScalarField;
    location    "70.3";
    object      p;
}
// * * * * * * * * * * * * * * * * * * * * * * * * * * * * * * * * * * * * * //

dimensions      [0 2 -2 0 0 0 0];

internalField   nonuniform List<scalar> 
8800
(
0.897238
0.847922
0.809955
0.781884
0.761719
0.747127
0.736521
0.728969
0.724069
0.72198
0.72333
0.727655
0.734437
0.743851
0.756582
0.773899
0.797774
0.83087
0.873806
0.92632
0.731734
0.738078
0.747227
0.750774
0.748162
0.742068
0.735121
0.728869
0.724054
0.721166
0.720913
0.723522
0.72815
0.734269
0.741362
0.748391
0.753267
0.753141
0.746465
0.737566
0.705255
0.711489
0.715987
0.719855
0.722799
0.723742
0.722644
0.72051
0.718513
0.717653
0.718663
0.721099
0.723973
0.726235
0.726751
0.724958
0.72159
0.717576
0.712794
0.709078
0.700961
0.703726
0.70633
0.708484
0.710216
0.711778
0.712871
0.71321
0.713079
0.713155
0.713937
0.715061
0.715789
0.71563
0.714649
0.713291
0.711619
0.709316
0.706904
0.705338
0.695915
0.69734
0.699176
0.701253
0.70296
0.704245
0.705332
0.706297
0.707087
0.707799
0.708485
0.708925
0.708935
0.708562
0.707888
0.706769
0.70511
0.703215
0.701861
0.701059
0.690937
0.69184
0.693083
0.694705
0.696392
0.697916
0.699188
0.700294
0.701337
0.702327
0.703085
0.703453
0.703448
0.70307
0.702261
0.701069
0.699705
0.698438
0.697616
0.697092
0.686045
0.6867
0.687658
0.68897
0.69041
0.691916
0.693388
0.694734
0.695973
0.697147
0.698068
0.698539
0.69854
0.698093
0.697305
0.696359
0.695364
0.694459
0.693879
0.693495
0.681234
0.681739
0.682521
0.683655
0.684947
0.686354
0.687848
0.689369
0.690854
0.692276
0.693397
0.69398
0.694041
0.693708
0.693137
0.692445
0.691705
0.691041
0.690615
0.690315
0.676452
0.676853
0.67751
0.678524
0.679745
0.681098
0.682587
0.684205
0.685906
0.687613
0.68899
0.689768
0.690024
0.689923
0.689594
0.689124
0.688591
0.688122
0.687807
0.687564
0.671617
0.671944
0.672514
0.67345
0.674625
0.675968
0.677494
0.679216
0.681117
0.683127
0.68484
0.685927
0.686474
0.686641
0.686555
0.686314
0.685981
0.685675
0.685444
0.68524
0.666642
0.666913
0.667423
0.668314
0.669475
0.670847
0.672453
0.674322
0.676461
0.678824
0.680959
0.682446
0.683344
0.683816
0.683993
0.683987
0.683854
0.683691
0.683529
0.683352
0.661435
0.661664
0.662136
0.663012
0.664199
0.665644
0.667373
0.669445
0.671892
0.674694
0.677343
0.679309
0.680617
0.681438
0.681911
0.682146
0.682219
0.68219
0.682084
0.681927
0.655905
0.6561
0.656554
0.657445
0.658698
0.660259
0.662168
0.664511
0.667353
0.670702
0.673975
0.67651
0.678297
0.679519
0.680326
0.680827
0.681118
0.681215
0.681156
0.681012
0.649946
0.650114
0.650566
0.651501
0.652861
0.654592
0.656747
0.659445
0.662783
0.666804
0.670834
0.674052
0.676405
0.678091
0.67928
0.680097
0.680606
0.680826
0.680807
0.680671
0.643436
0.643582
0.644049
0.645056
0.646568
0.648528
0.651009
0.65416
0.658119
0.662964
0.667909
0.671942
0.674967
0.677197
0.678824
0.679989
0.68075
0.681098
0.681116
0.680983
0.636234
0.636357
0.636853
0.637964
0.639678
0.641939
0.644836
0.648557
0.653284
0.659138
0.665187
0.670193
0.674013
0.676888
0.67903
0.680596
0.681639
0.682119
0.682172
0.682038
0.628147
0.628258
0.628797
0.630042
0.632019
0.634665
0.638088
0.642523
0.6482
0.655281
0.66266
0.668826
0.673584
0.677214
0.679976
0.682012
0.68337
0.68399
0.684074
0.683936
0.61894
0.619043
0.619636
0.621058
0.623379
0.626512
0.630598
0.635923
0.642773
0.65135
0.660322
0.667865
0.673731
0.678251
0.681742
0.684329
0.686044
0.686811
0.686923
0.686777
0.608296
0.608384
0.609066
0.610725
0.613484
0.617238
0.622164
0.628608
0.63691
0.647308
0.658184
0.667347
0.674513
0.680081
0.684408
0.687644
0.689759
0.690678
0.690813
0.690656
0.595832
0.595907
0.596692
0.598664
0.601984
0.606538
0.612539
0.620399
0.630508
0.643124
0.656265
0.667316
0.675985
0.68277
0.688075
0.692054
0.694603
0.69567
0.695821
0.695649
0.580983
0.581051
0.581982
0.584368
0.588425
0.594032
0.60143
0.611101
0.623471
0.63878
0.654594
0.667827
0.67821
0.686386
0.692813
0.69762
0.700626
0.701829
0.701984
0.701794
0.562955
0.563015
0.564163
0.567136
0.572204
0.57923
0.588486
0.600511
0.615724
0.634294
0.653223
0.668936
0.68125
0.690987
0.698649
0.70437
0.707827
0.709135
0.709279
0.709069
0.540573
0.540639
0.542132
0.545985
0.552507
0.561528
0.573332
0.588465
0.607263
0.629743
0.652243
0.670713
0.685151
0.696603
0.705601
0.71227
0.716129
0.717487
0.717599
0.717369
0.512028
0.512124
0.514219
0.519495
0.528271
0.540235
0.555638
0.574918
0.598207
0.625298
0.651798
0.673251
0.689951
0.703213
0.713633
0.721206
0.725347
0.726674
0.726731
0.726485
0.474228
0.474452
0.477776
0.485678
0.498255
0.514756
0.535306
0.560044
0.588823
0.621208
0.652063
0.676657
0.69569
0.710787
0.722634
0.730956
0.735184
0.736373
0.736356
0.736098
0.421254
0.422363
0.428974
0.442313
0.461535
0.485056
0.512725
0.544347
0.579563
0.617803
0.653244
0.681031
0.702379
0.719248
0.732379
0.741188
0.745221
0.746171
0.746073
0.745812
0.344554
0.352075
0.367245
0.390566
0.419714
0.452628
0.488956
0.528446
0.57076
0.615335
0.655675
0.686851
0.710691
0.729447
0.743688
0.752674
0.756345
0.75704
0.756888
0.75666
0.263012
0.279434
0.304065
0.338116
0.377711
0.420177
0.465199
0.51271
0.562461
0.613957
0.659976
0.695204
0.72199
0.742833
0.758134
0.766832
0.769814
0.770227
0.770096
0.769948
0.193142
0.213212
0.245743
0.289034
0.337925
0.389385
0.442872
0.498263
0.555288
0.613424
0.664742
0.703649
0.732982
0.755494
0.771237
0.779283
0.781679
0.781998
0.781926
0.78182
0.13596
0.158273
0.196234
0.246148
0.302318
0.361319
0.422298
0.484939
0.548791
0.613219
0.669528
0.711858
0.743453
0.76727
0.783327
0.791072
0.793257
0.793559
0.793534
0.793455
0.0885961
0.11224
0.154133
0.209221
0.27122
0.336439
0.403815
0.472877
0.542987
0.613332
0.674402
0.719985
0.75377
0.778941
0.795513
0.80315
0.805228
0.805549
0.805559
0.805502
0.0484192
0.0728515
0.117644
0.176942
0.243855
0.314388
0.387321
0.462101
0.53792
0.61379
0.679445
0.728231
0.76421
0.790784
0.807948
0.815783
0.817912
0.818208
0.818241
0.8182
0.0133816
0.0383352
0.0853944
0.148185
0.21931
0.29449
0.372372
0.452323
0.533415
0.614514
0.684589
0.736538
0.774687
0.802698
0.820654
0.828881
0.831097
0.831395
0.831425
0.831401
-0.0180262
0.00734986
0.0562746
0.122043
0.196824
0.276098
0.358438
0.443157
0.529223
0.615335
0.689667
0.744707
0.785023
0.814508
0.83334
0.841946
0.844334
0.844637
0.844657
0.844641
-0.046837
-0.0210728
0.0294438
0.0978033
0.175803
0.258719
0.345112
0.434246
0.525009
0.615933
0.69446
0.752523
0.794978
0.825889
0.845537
0.854572
0.857136
0.857472
0.857474
0.857461
-0.073869
-0.0476881
0.00425385
0.0749488
0.155801
0.241981
0.332056
0.425271
0.520472
0.616104
0.698779
0.759843
0.804359
0.836652
0.857062
0.866492
0.869212
0.869569
0.869537
0.869518
-0.0995271
-0.072944
-0.0196871
0.0530855
0.136485
0.225596
0.319018
0.416026
0.515456
0.615681
0.702493
0.766562
0.813106
0.846666
0.867745
0.877452
0.880279
0.880632
0.880569
0.880536
-0.124264
-0.0971981
-0.0427251
0.0319298
0.117613
0.209365
0.305851
0.406378
0.509806
0.614495
0.705501
0.772636
0.82119
0.855925
0.877514
0.887361
0.890217
0.890548
0.890449
0.8904
-0.148222
-0.120669
-0.0650475
0.0113069
0.0990368
0.193175
0.29245
0.396213
0.503406
0.612475
0.707736
0.778061
0.828651
0.86444
0.88635
0.896216
0.899017
0.899314
0.899185
0.899121
-0.171542
-0.143465
-0.0867809
-0.00888226
0.0806828
0.176958
0.27875
0.385482
0.49621
0.609532
0.709123
0.782834
0.835582
0.872376
0.894423
0.904098
0.906778
0.907022
0.90687
0.906791
-0.194325
-0.165714
-0.107984
-0.0286847
0.0625036
0.160692
0.26475
0.374187
0.488191
0.605591
0.709592
0.786959
0.842101
0.879897
0.901883
0.911172
0.913609
0.913768
0.913595
0.913506
-0.216638
-0.187416
-0.128675
-0.048112
0.0445156
0.144392
0.250476
0.362342
0.479343
0.600612
0.709063
0.7904
0.848312
0.887246
0.908981
0.917597
0.919622
0.919655
0.919463
0.919369
-0.238346
-0.208546
-0.14884
-0.067157
0.0267425
0.128109
0.235968
0.349998
0.469705
0.59459
0.707453
0.793081
0.854265
0.894688
0.91607
0.923627
0.924939
0.924763
0.924568
0.924483
-0.259433
-0.229078
-0.168478
-0.0857869
0.00922832
0.11189
0.221304
0.337219
0.45934
0.587523
0.70469
0.794883
0.859917
0.902441
0.92369
0.929835
0.929884
0.92922
0.929035
0.929017
-0.279955
-0.248986
-0.187569
-0.103978
-0.0079744
0.0958093
0.206564
0.324097
0.448319
0.579449
0.700696
0.795661
0.865108
0.910541
0.932406
0.937251
0.935349
0.933427
0.933041
0.933351
-0.299766
-0.268248
-0.206061
-0.121672
-0.0248147
0.0799463
0.191838
0.31073
0.436745
0.570448
0.695419
0.795239
0.869579
0.918701
0.942407
0.947118
0.943404
0.939007
0.936653
0.935764
-0.318959
-0.286871
-0.223965
-0.138901
-0.0413289
0.0642608
0.177073
0.297062
0.42455
0.560454
0.688701
0.793361
0.873091
0.92646
0.953239
0.95993
0.956331
0.948965
0.939626
0.940346
-0.337454
-0.304924
-0.241416
-0.155863
-0.0578089
0.0484268
0.161862
0.282617
0.411202
0.548859
0.679912
0.789299
0.875253
0.933313
0.963541
0.973901
0.971066
0.959282
0.940409
0.939109
-0.35512
-0.322371
-0.258251
-0.172372
-0.0739925
0.0327429
0.146406
0.26771
0.396979
0.535879
0.669057
0.782307
0.875147
0.938025
0.969266
0.980203
0.978745
0.952443
0.894918
0.870194
-0.371838
-0.340108
-0.274075
-0.18799
-0.0891001
0.0176899
0.130984
0.252616
0.382161
0.521679
0.656183
0.771747
0.871615
0.939534
0.965462
0.971225
0.955771
0.903168
0.841022
0.803214
-0.414481
-0.357426
-0.288604
-0.203623
-0.103879
0.00230212
0.11574
0.23721
0.366539
0.505898
0.640861
0.756934
0.860675
0.934207
0.949369
0.933714
0.883678
0.817081
0.74765
0.709457
-0.389591
-0.371382
-0.310733
-0.225032
-0.126762
-0.0208224
0.0919266
0.212752
0.341198
0.479242
0.61302
0.727449
0.82312
0.904164
0.88542
0.77389
0.681361
0.617123
0.552332
0.578303
-0.42025
-0.388816
-0.327323
-0.242117
-0.144218
-0.0384336
0.0744869
0.194652
0.322084
0.458394
0.589661
0.700733
0.785317
0.83112
0.776985
0.634929
0.524072
0.449365
0.366576
0.410899
-0.444012
-0.410177
-0.34696
-0.261703
-0.16386
-0.0580945
0.0546972
0.174061
0.300126
0.43405
0.561505
0.666593
0.739741
0.747271
0.638109
0.480842
0.350221
0.256593
0.160522
0.191006
-0.467134
-0.432249
-0.367664
-0.281751
-0.183838
-0.0782017
0.0340607
0.152446
0.276896
0.407989
0.530544
0.62724
0.683611
0.657741
0.497205
0.318487
0.157404
0.0226517
-0.102257
-0.0902485
-0.489985
-0.454712
-0.389216
-0.302712
-0.204672
-0.0992659
0.0123193
0.129563
0.252088
0.379893
0.49665
0.585029
0.620414
0.548506
0.358493
0.159999
-0.0279493
-0.182532
-0.388299
-0.467528
-0.513251
-0.478027
-0.411993
-0.325068
-0.226879
-0.121666
-0.0107019
0.10535
0.225801
0.350006
0.460453
0.539435
0.54865
0.425367
0.231901
0.0215992
-0.171296
-0.333557
-0.457714
-0.575807
-0.538008
-0.502682
-0.436353
-0.349206
-0.251001
-0.146087
-0.0358498
0.0788161
0.196821
0.316824
0.420501
0.486527
0.468054
0.308439
0.113391
-0.0908715
-0.26698
-0.364682
-0.391004
-0.404502
-0.564382
-0.52897
-0.462427
-0.375217
-0.277185
-0.172752
-0.0635029
0.0494455
0.164525
0.279548
0.375982
0.424135
0.386168
0.195939
0.00284358
-0.181248
-0.314245
-0.352271
-0.361229
-0.361587
-0.59265
-0.557013
-0.490255
-0.403089
-0.305383
-0.201674
-0.0936896
0.0171755
0.128837
0.23814
0.326264
0.357965
0.28813
0.093092
-0.0938444
-0.253969
-0.328705
-0.342714
-0.343756
-0.34363
-0.622824
-0.586846
-0.519855
-0.432823
-0.335614
-0.232848
-0.126425
-0.0180198
0.0897594
0.192703
0.27119
0.288174
0.17971
-7.70105e-05
-0.176993
-0.304316
-0.333289
-0.333745
-0.334172
-0.333711
-0.654647
-0.618299
-0.551127
-0.464338
-0.367795
-0.266224
-0.161688
-0.0561243
0.0473411
0.143363
0.212017
0.209869
0.0836376
-0.0856628
-0.242442
-0.315416
-0.330261
-0.328441
-0.328198
-0.327774
-0.687555
-0.651022
-0.583806
-0.4974
-0.401735
-0.301644
-0.19933
-0.0970202
0.00179644
0.090529
0.149232
0.130809
-0.00491703
-0.160481
-0.285043
-0.323179
-0.322845
-0.323716
-0.323757
-0.3235
-0.721103
-0.684479
-0.617397
-0.531585
-0.437076
-0.33878
-0.239064
-0.140429
-0.0465875
0.0351136
0.0814622
0.0562359
-0.085575
-0.219278
-0.308467
-0.317706
-0.31974
-0.320421
-0.320336
-0.320245
-0.754325
-0.717775
-0.651154
-0.566243
-0.473252
-0.37714
-0.280415
-0.185859
-0.0973933
-0.0220721
0.0134623
-0.0184902
-0.154835
-0.264718
-0.313966
-0.32525
-0.320293
-0.31802
-0.317272
-0.317132
-0.785353
-0.749606
-0.684026
-0.600467
-0.509466
-0.416005
-0.3227
-0.232571
-0.149845
-0.0806067
-0.0494565
-0.096328
-0.212107
-0.306039
-0.3288
-0.327071
-0.321047
-0.316297
-0.314907
-0.314426
-0.813113
-0.778441
-0.714588
-0.633032
-0.544632
-0.454411
-0.365029
-0.279636
-0.202712
-0.139972
-0.11091
-0.163973
-0.25615
-0.330619
-0.355388
-0.340171
-0.328318
-0.323274
-0.321047
-0.319877
-0.834849
-0.802143
-0.741051
-0.662385
-0.577406
-0.491144
-0.406287
-0.325967
-0.254738
-0.198236
-0.172189
-0.216111
-0.284361
-0.329056
-0.334222
-0.342724
-0.347791
-0.346047
-0.342921
-0.341628
-0.848442
-0.818533
-0.761296
-0.686738
-0.606228
-0.524782
-0.445137
-0.370299
-0.304804
-0.252718
-0.22831
-0.259576
-0.301651
-0.328114
-0.331284
-0.34363
-0.350131
-0.350747
-0.35034
-0.350746
-0.851142
-0.825169
-0.77317
-0.704197
-0.629424
-0.553833
-0.480091
-0.411175
-0.351574
-0.302976
-0.274715
-0.300736
-0.321571
-0.339525
-0.341515
-0.343653
-0.344691
-0.3453
-0.346087
-0.346345
-0.840649
-0.819524
-0.774512
-0.712971
-0.645452
-0.576916
-0.509734
-0.447082
-0.393174
-0.350335
-0.307924
-0.341001
-0.338081
-0.354348
-0.351032
-0.348824
-0.348737
-0.348605
-0.348328
-0.348159
-0.81434
-0.798816
-0.763335
-0.711786
-0.653235
-0.592955
-0.533113
-0.476676
-0.428046
-0.392398
-0.346809
-0.353212
-0.350938
-0.356924
-0.362942
-0.355631
-0.348437
-0.349528
-0.351338
-0.351853
-0.775652
-0.765731
-0.740697
-0.700824
-0.652765
-0.601583
-0.549736
-0.49928
-0.455654
-0.424985
-0.395988
-0.377002
-0.35857
-0.361417
-0.378378
-0.374949
-0.372474
-0.371582
-0.372136
-0.372204
-0.731682
-0.726053
-0.711584
-0.683157
-0.646055
-0.603803
-0.559343
-0.515042
-0.474725
-0.445691
-0.419881
-0.401749
-0.384742
-0.372423
-0.348722
-0.361097
-0.396528
-0.41012
-0.410214
-0.40911
-0.692604
-0.689216
-0.682364
-0.664231
-0.636098
-0.601434
-0.563178
-0.52346
-0.484905
-0.453987
-0.429578
-0.433159
-0.443691
-0.471925
-0.485937
-0.502833
-0.490694
-0.46172
-0.441537
-0.443324
-0.664476
-0.662497
-0.658967
-0.648154
-0.626762
-0.597416
-0.56338
-0.52535
-0.487081
-0.451055
-0.428216
-0.424007
-0.459858
-0.545596
-0.6347
-0.684369
-0.682374
-0.63117
-0.558671
-0.534967
-0.643659
-0.642926
-0.641692
-0.636339
-0.62061
-0.594831
-0.561591
-0.523953
-0.481854
-0.440579
-0.416682
-0.387259
-0.3427
-0.32532
-0.333224
-0.33453
-0.322661
-0.326111
-0.299224
-0.285778
-0.631786
-0.631518
-0.63087
-0.628337
-0.617506
-0.593562
-0.559585
-0.519496
-0.472359
-0.423546
-0.37886
-0.331142
-0.206226
-0.0907417
0.0481932
0.141287
0.104541
0.0614191
0.0319828
0.0236637
-0.62382
-0.623728
-0.623454
-0.622816
-0.61598
-0.593843
-0.558355
-0.513404
-0.461712
-0.395233
-0.332522
-0.240639
-0.120081
0.0208274
0.0842978
0.0765975
0.0963483
0.160646
0.233744
0.269708
-0.618198
-0.618137
-0.617928
-0.617887
-0.613965
-0.59547
-0.558624
-0.508756
-0.447019
-0.369605
-0.282986
-0.165879
0.0216853
0.194586
0.380372
0.519636
0.638226
0.788918
0.907403
0.958529
-0.614296
-0.614263
-0.614091
-0.613666
-0.612641
-0.598989
-0.560804
-0.503918
-0.434469
-0.352741
-0.24705
-0.13365
0.0832544
0.374791
0.714626
1.04378
1.31234
1.50379
1.60375
1.63437
-0.610854
-0.611726
-0.613884
-0.616893
-0.618287
-0.606703
-0.563445
-0.50191
-0.433261
-0.341709
-0.232036
-0.119599
0.0863085
0.384636
0.761854
1.11049
1.39435
1.57763
1.65392
1.67269
-0.604502
-0.606497
-0.611358
-0.619847
-0.627185
-0.610035
-0.562173
-0.507686
-0.439947
-0.343361
-0.235012
-0.130172
0.020673
0.303685
0.629613
0.911728
1.13523
1.26568
1.31727
1.3286
-0.613322
-0.614717
-0.613752
-0.602953
-0.588767
-0.574607
-0.552835
-0.521318
-0.455506
-0.355542
-0.251518
-0.154786
-0.0436485
0.174535
0.428125
0.639576
0.802401
0.889523
0.922297
0.927316
-0.650495
-0.649937
-0.638659
-0.595818
-0.537632
-0.526998
-0.559057
-0.546287
-0.476466
-0.373138
-0.274011
-0.189949
-0.10502
0.0515769
0.239955
0.392665
0.502017
0.556352
0.576248
0.578726
-0.70438
-0.701599
-0.699866
-0.684812
-0.667533
-0.649908
-0.66077
-0.606544
-0.504332
-0.392556
-0.302132
-0.227736
-0.164119
-0.0440947
0.0809797
0.179943
0.248538
0.283527
0.296482
0.297805
-0.822275
-0.832498
-0.874605
-0.926087
-0.944782
-0.915414
-0.841959
-0.700139
-0.540634
-0.416214
-0.325109
-0.256462
-0.212623
-0.129595
-0.0409696
0.0200666
0.0572586
0.0730517
0.0787646
0.0790332
-0.966569
-0.989478
-1.0411
-1.0885
-1.10565
-1.0721
-0.963544
-0.755637
-0.563525
-0.436831
-0.333156
-0.279924
-0.238517
-0.183702
-0.132542
-0.1042
-0.0907544
-0.0872673
-0.0854753
-0.0850608
-0.996037
-1.01674
-1.0522
-1.08534
-1.09869
-1.06764
-0.93738
-0.71545
-0.551814
-0.422333
-0.333737
-0.285798
-0.255011
-0.212544
-0.183161
-0.179461
-0.181945
-0.186535
-0.185037
-0.183746
-0.851811
-0.869532
-0.901937
-0.936026
-0.953039
-0.918102
-0.783305
-0.616254
-0.482852
-0.370826
-0.3177
-0.278826
-0.25987
-0.221672
-0.205488
-0.199768
-0.210118
-0.208941
-0.203894
-0.202108
-0.548893
-0.566634
-0.600634
-0.641506
-0.668263
-0.646756
-0.561176
-0.466752
-0.368479
-0.310654
-0.275351
-0.260133
-0.255057
-0.213019
-0.183453
-0.168289
-0.159313
-0.153936
-0.151102
-0.150635
-0.194201
-0.206099
-0.231568
-0.268165
-0.300895
-0.312269
-0.306034
-0.281974
-0.257303
-0.234175
-0.215066
-0.216585
-0.216385
-0.173471
-0.139939
-0.11909
-0.100216
-0.0888831
-0.0867749
-0.0881026
0.0713707
0.0653419
0.048954
0.0182704
-0.0254096
-0.0710608
-0.108727
-0.138017
-0.152385
-0.152536
-0.149964
-0.146626
-0.139885
-0.11595
-0.0918318
-0.0738573
-0.0570595
-0.0488666
-0.0478652
-0.0489295
0.197517
0.194099
0.182578
0.157056
0.115083
0.059865
0.00426728
-0.0398342
-0.0688329
-0.0832382
-0.0849325
-0.0720096
-0.0615757
-0.0536753
-0.0463296
-0.0377737
-0.0284676
-0.0233286
-0.0226086
-0.0241087
0.225976
0.223723
0.215437
0.195924
0.162181
0.117635
0.0690767
0.0221259
-0.011514
-0.0284103
-0.0279032
-0.0101766
0.00144997
-0.0059042
-0.0126338
-0.0154682
-0.0152212
-0.0149219
-0.0157692
-0.0170068
0.209164
0.207774
0.202181
0.188665
0.164556
0.130697
0.0921318
0.0554617
0.0262964
0.0110199
0.0135582
0.0324616
0.0408376
0.0243603
0.00698539
-0.00427883
-0.0118864
-0.017217
-0.0197788
-0.020606
0.176337
0.175595
0.172075
0.163245
0.147152
0.123959
0.0959388
0.0674402
0.0442885
0.0333494
0.0374713
0.0534412
0.0561141
0.0376037
0.0167292
0.000258
-0.0117864
-0.0207313
-0.0239563
-0.0243578
0.1395
0.139279
0.13721
0.131705
0.121329
0.105882
0.0866528
0.0669287
0.0503544
0.0431728
0.0477642
0.0577974
0.054612
0.0373894
0.0186728
0.00377929
-0.00889152
-0.0172534
-0.0198077
-0.0200079
0.103535
0.103443
0.102338
0.0990885
0.0926772
0.0828989
0.0702881
0.0573818
0.0463839
0.0424246
0.0465846
0.0545895
0.0497978
0.0331136
0.0178119
0.00686287
-0.00215311
-0.00715275
-0.00883769
-0.0092242
0.0694441
0.0694771
0.069001
0.0672842
0.0636216
0.0578535
0.0501913
0.0422474
0.0354425
0.0335323
0.0359563
0.0409322
0.0369128
0.0225336
0.0141903
0.00790241
0.00242012
0.000117478
-0.00042444
-0.000701835
0.0373626
0.0374929
0.0373911
0.0366681
0.0349526
0.032112
0.0282689
0.0241578
0.0206676
0.0196367
0.0195331
0.0129979
0.00908918
0.00731949
0.00576944
0.00636592
0.00496386
0.00420609
0.00404597
0.00363095
0.00688476
0.00695394
0.00695301
0.00719067
0.0073122
0.00706448
0.0063947
0.00565012
0.00496161
0.00363303
0.002679
-0.00178476
-0.00318939
0.003079
0.00192926
0.000510445
-0.0011664
-0.00076388
0.00036746
0.000504926
0.041223
0.22994
0.403332
0.550159
0.667817
0.760838
0.838276
0.901233
0.917273
0.913732
0.331192
0.45253
0.566143
0.664805
0.747828
0.816424
0.870518
0.907117
0.926723
0.943369
0.52778
0.608614
0.688477
0.758659
0.818631
0.868309
0.907456
0.937301
0.959745
0.979001
0.673149
0.73019
0.78821
0.840164
0.885074
0.923257
0.955251
0.982102
1.00237
1.02127
0.789351
0.832499
0.875865
0.91618
0.952008
0.983743
1.01148
1.03498
1.05292
1.07097
0.88734
0.922909
0.957766
0.991483
1.02254
1.05061
1.07544
1.09626
1.11202
1.1295
0.975303
1.00737
1.03952
1.07061
1.09958
1.1259
1.14898
1.1679
1.1818
1.19881
1.06217
1.09477
1.12714
1.15831
1.18705
1.21282
1.23492
1.25243
1.2648
1.28132
1.15651
1.19296
1.22772
1.26015
1.2893
1.31463
1.33573
1.352
1.36361
1.37975
1.26959
1.31025
1.34726
1.38016
1.40862
1.43259
1.4522
1.46746
1.47936
1.49543
1.41101
1.45205
1.4873
1.51686
1.54205
1.56365
1.58214
1.59762
1.61074
1.62668
1.58253
1.6148
1.64171
1.66405
1.68413
1.70285
1.72058
1.73735
1.75226
1.76799
1.76879
1.78604
1.80315
1.81984
1.83594
1.85067
1.86457
1.87905
1.89429
1.91159
1.95219
1.96214
1.97533
1.98631
1.99572
2.00538
2.01599
2.02616
2.03546
2.06112
2.17006
2.16435
2.15141
2.13715
2.13085
2.13656
2.15471
2.18323
2.21699
2.25332
2.47287
2.33692
2.25742
2.21489
2.19756
2.20154
2.22897
2.28684
2.39451
2.57291
0.800932
0.794629
0.786899
0.775785
0.762214
0.749565
0.739169
0.731159
0.725445
0.722121
0.721781
0.724628
0.729872
0.737239
0.746795
0.75863
0.772196
0.785127
0.794119
0.801661
0.709998
0.715918
0.72399
0.730123
0.733192
0.732681
0.729596
0.725603
0.722018
0.719742
0.719622
0.721891
0.725659
0.730116
0.734225
0.736476
0.735407
0.730774
0.723722
0.715889
0.703244
0.705616
0.708884
0.711657
0.714108
0.716299
0.71748
0.717336
0.716404
0.715608
0.71584
0.717273
0.719071
0.720313
0.720248
0.718788
0.716636
0.714278
0.711299
0.708282
0.698448
0.699537
0.701454
0.703793
0.705666
0.707066
0.708287
0.709284
0.709891
0.710282
0.710858
0.711624
0.712111
0.712008
0.711392
0.710479
0.709155
0.707191
0.705087
0.70361
0.693417
0.694051
0.69518
0.696939
0.698785
0.70038
0.701635
0.702704
0.703695
0.704609
0.705422
0.705971
0.706133
0.705946
0.705424
0.704461
0.703043
0.70144
0.700106
0.699305
0.688482
0.688921
0.68971
0.691016
0.69254
0.694107
0.69559
0.696893
0.698058
0.699165
0.700149
0.700787
0.700996
0.700784
0.700139
0.699154
0.698012
0.696876
0.695978
0.695445
0.683634
0.683961
0.684575
0.685647
0.686946
0.68835
0.689834
0.691317
0.692722
0.694047
0.695232
0.696021
0.696285
0.69607
0.695496
0.694731
0.6939
0.693055
0.6924
0.692009
0.678848
0.679101
0.679596
0.680511
0.681688
0.683002
0.684431
0.685969
0.687564
0.689153
0.690595
0.691567
0.691955
0.691893
0.691541
0.691018
0.690403
0.689788
0.689313
0.689015
0.67405
0.674252
0.674664
0.675469
0.676569
0.677838
0.679256
0.680841
0.682582
0.684425
0.686171
0.687417
0.688052
0.688244
0.68814
0.687849
0.687446
0.687026
0.686692
0.686458
0.669156
0.669319
0.669673
0.670406
0.671461
0.672714
0.674165
0.675839
0.677745
0.679854
0.681961
0.683584
0.68456
0.685057
0.685218
0.685166
0.684981
0.68474
0.684523
0.684336
0.664077
0.664208
0.664521
0.66521
0.666251
0.667533
0.669056
0.670865
0.67299
0.675428
0.677975
0.680065
0.68145
0.682298
0.682761
0.682967
0.683001
0.682934
0.682817
0.682666
0.658721
0.658827
0.659112
0.659784
0.660846
0.662199
0.66384
0.665838
0.668252
0.671107
0.674197
0.676846
0.678714
0.679969
0.680774
0.681261
0.681529
0.681636
0.681606
0.681483
0.652991
0.653075
0.653345
0.654023
0.655141
0.656608
0.658422
0.660678
0.663466
0.666842
0.670597
0.67392
0.676358
0.678087
0.67928
0.680097
0.680623
0.680897
0.680945
0.680843
0.646773
0.646838
0.647102
0.647809
0.649021
0.650649
0.652701
0.655296
0.658557
0.66258
0.667144
0.671278
0.674397
0.676682
0.678326
0.679513
0.680323
0.68078
0.680904
0.680817
0.639936
0.639982
0.640247
0.641007
0.642351
0.644197
0.646561
0.649591
0.653447
0.658267
0.663815
0.668923
0.672852
0.675795
0.677965
0.679574
0.680714
0.681366
0.681564
0.68149
0.632327
0.632348
0.632616
0.633453
0.634974
0.637102
0.639866
0.643444
0.648041
0.653842
0.660583
0.666858
0.671746
0.675465
0.678263
0.680372
0.681884
0.68275
0.683022
0.682957
0.623702
0.62372
0.624004
0.62494
0.626693
0.629181
0.632452
0.636717
0.642234
0.649237
0.65742
0.66509
0.671116
0.675748
0.679285
0.681996
0.683934
0.685032
0.685378
0.685319
0.613795
0.613787
0.614119
0.615202
0.617255
0.620205
0.624116
0.629246
0.63591
0.644386
0.654311
0.663639
0.671007
0.676715
0.681121
0.684528
0.686959
0.688313
0.688732
0.688674
0.602288
0.602257
0.60264
0.603915
0.606339
0.60988
0.614611
0.620837
0.628932
0.639223
0.651247
0.662532
0.671465
0.678431
0.683854
0.688065
0.691061
0.692685
0.693172
0.69311
0.588681
0.588629
0.589091
0.590617
0.593527
0.597838
0.603629
0.61126
0.621163
0.63369
0.648233
0.661811
0.672547
0.680954
0.687562
0.692696
0.696313
0.698214
0.698758
0.698686
0.57231
0.572235
0.572823
0.574701
0.578261
0.583598
0.590791
0.600251
0.612453
0.62774
0.645287
0.661522
0.674311
0.684354
0.692295
0.698466
0.702754
0.704919
0.705501
0.705412
0.552203
0.552112
0.552903
0.555295
0.559771
0.566534
0.575639
0.587535
0.602695
0.621386
0.642476
0.661735
0.676823
0.68868
0.69808
0.70539
0.710365
0.712752
0.71334
0.713227
0.52691
0.526818
0.527949
0.531136
0.536995
0.54584
0.557662
0.572877
0.591866
0.614722
0.639922
0.662549
0.680134
0.693955
0.704931
0.713435
0.719041
0.721564
0.722116
0.721971
0.49406
0.494016
0.495759
0.500318
0.508491
0.520594
0.536416
0.556206
0.580108
0.607965
0.637819
0.664096
0.684317
0.700189
0.712796
0.72248
0.728567
0.731091
0.731555
0.731375
0.449429
0.449591
0.452666
0.460082
0.472583
0.49004
0.511799
0.537766
0.567779
0.601447
0.636411
0.666521
0.689442
0.707362
0.721584
0.732308
0.738604
0.74094
0.741267
0.741056
0.385123
0.386479
0.393945
0.407938
0.428374
0.454348
0.484478
0.51829
0.555486
0.595602
0.635967
0.669962
0.695534
0.715418
0.731029
0.742482
0.748639
0.750563
0.750724
0.750505
0.308399
0.311064
0.325567
0.349663
0.380954
0.417016
0.456217
0.49832
0.543146
0.590297
0.63683
0.675497
0.704387
0.726719
0.743909
0.7558
0.761605
0.763216
0.763321
0.763192
0.229906
0.236936
0.258706
0.292909
0.334733
0.380653
0.428929
0.479386
0.531913
0.586149
0.638895
0.682253
0.714374
0.739024
0.757743
0.7697
0.774688
0.775785
0.775831
0.775764
0.165888
0.174814
0.201249
0.242608
0.292727
0.347012
0.40347
0.461765
0.521651
0.582668
0.641284
0.688986
0.724021
0.750632
0.770174
0.7819
0.786405
0.787368
0.787464
0.787453
0.113469
0.123116
0.153103
0.199782
0.256146
0.317128
0.380483
0.445684
0.512278
0.579639
0.643824
0.695625
0.733377
0.761725
0.782109
0.793916
0.798223
0.799098
0.799238
0.799272
0.0696336
0.0795896
0.111999
0.162834
0.22432
0.290869
0.360059
0.431273
0.503904
0.577135
0.646595
0.702358
0.74276
0.772919
0.794296
0.806258
0.810425
0.811418
0.811603
0.811674
0.0319038
0.0419904
0.076209
0.13037
0.196145
0.26748
0.341776
0.418333
0.496433
0.575095
0.649572
0.709216
0.752252
0.784208
0.806615
0.819001
0.823404
0.824434
0.824623
0.82471
-0.00141014
0.00871873
0.0443561
0.101273
0.170703
0.246197
0.325026
0.406414
0.489567
0.573368
0.65266
0.716062
0.761699
0.795462
0.819009
0.832032
0.836704
0.837787
0.837954
0.838031
-0.031577
-0.0214211
0.0153669
0.0746504
0.147251
0.226399
0.309282
0.395099
0.482984
0.571679
0.655622
0.722684
0.770903
0.806464
0.83118
0.844818
0.84978
0.850913
0.851055
0.851114
-0.0595675
-0.0493656
-0.011561
0.0498234
0.125233
0.20762
0.294154
0.384037
0.476332
0.569707
0.658211
0.728904
0.779622
0.816929
0.842747
0.856978
0.862269
0.863457
0.863561
0.863595
-0.0859529
-0.0756928
-0.0369503
0.0263263
0.104221
0.189503
0.279334
0.372938
0.469368
0.567259
0.660272
0.734577
0.787778
0.826748
0.853584
0.868324
0.873875
0.875094
0.875158
0.875158
-0.1112
-0.100827
-0.0612028
0.0037913
0.0839057
0.171781
0.264598
0.361627
0.461953
0.56417
0.661647
0.739607
0.795291
0.835863
0.863614
0.878722
0.884379
0.885614
0.885645
0.885612
-0.135626
-0.125059
-0.0845985
-0.0180258
0.064082
0.154282
0.249815
0.349993
0.453937
0.560312
0.662232
0.743951
0.802173
0.844285
0.872762
0.888094
0.893769
0.894963
0.894963
0.894902
-0.159341
-0.148551
-0.107288
-0.0392761
0.0446242
0.136918
0.234897
0.337943
0.445245
0.5556
0.661954
0.747565
0.808452
0.852095
0.881157
0.896527
0.902082
0.903204
0.90317
0.903087
-0.182493
-0.171435
-0.129398
-0.0600327
0.0254687
0.119627
0.219803
0.325452
0.43586
0.54998
0.660718
0.75041
0.814193
0.859448
0.888961
0.904138
0.909452
0.910452
0.910371
0.91027
-0.205058
-0.193773
-0.15096
-0.0803323
0.00659393
0.102407
0.204549
0.312538
0.425775
0.54341
0.658459
0.752429
0.819443
0.866507
0.896381
0.911128
0.916007
0.916809
0.916676
0.916558
-0.227135
-0.215552
-0.171952
-0.100173
-0.0119914
0.0852815
0.189162
0.299239
0.415017
0.535894
0.655119
0.753539
0.8242
0.873457
0.903718
0.917732
0.92187
0.922352
0.922158
0.922038
-0.248533
-0.236748
-0.192372
-0.119549
-0.0302498
0.0683098
0.173695
0.285608
0.403647
0.527468
0.650648
0.753645
0.828404
0.880418
0.91135
0.924406
0.927339
0.92721
0.926915
0.926826
-0.269406
-0.257316
-0.212201
-0.138448
-0.0481601
0.0515215
0.15823
0.271718
0.391738
0.51819
0.645024
0.752633
0.831919
0.887377
0.919641
0.931893
0.933118
0.931726
0.931091
0.931117
-0.289578
-0.277223
-0.231426
-0.156824
-0.065651
0.0349952
0.142847
0.257683
0.379382
0.508114
0.638254
0.750381
0.834554
0.894134
0.928699
0.941045
0.940645
0.937107
0.935183
0.935143
-0.309156
-0.296497
-0.249994
-0.174625
-0.0826904
0.0187947
0.127627
0.243576
0.366683
0.497364
0.630383
0.746749
0.836082
0.900305
0.938099
0.952141
0.951653
0.946145
0.940388
0.932153
-0.328026
-0.315134
-0.267996
-0.192016
-0.0994999
0.00264307
0.112242
0.229005
0.353207
0.485462
0.620932
0.741215
0.836175
0.905725
0.947367
0.964779
0.966614
0.960015
0.948732
0.947776
-0.34615
-0.333212
-0.28543
-0.208943
-0.116067
-0.013424
0.096718
0.213948
0.338916
0.472273
0.609703
0.733252
0.834035
0.9096
0.954628
0.975059
0.978852
0.974022
0.939714
0.901414
-0.363305
-0.350592
-0.302233
-0.225291
-0.132387
-0.0294129
0.0810543
0.198532
0.323872
0.45782
0.596595
0.72246