/*--------------------------------*- C++ -*----------------------------------*\
  =========                 |
  \\      /  F ield         | OpenFOAM: The Open Source CFD Toolbox
   \\    /   O peration     | Website:  https://openfoam.org
    \\  /    A nd           | Version:  6
     \\/     M anipulation  |
\*---------------------------------------------------------------------------*/
FoamFile
{
    version     2.0;
    format      ascii;
    class       surfaceScalarField;
    location    "12.1";
    object      phi;
}
// * * * * * * * * * * * * * * * * * * * * * * * * * * * * * * * * * * * * * //

dimensions      [0 3 -1 0 0 0 0];

internalField   nonuniform List<scalar> 
17370
(
-0.0899783
0.0898081
0.289181
-0.0713957
0.0536439
0.364527
-0.0379652
0.0274995
0.426634
-0.019428
0.0144002
0.504279
-0.0105874
0.0081421
0.601847
-0.00619315
0.00482676
0.720424
-0.00364481
0.00279905
0.863752
-0.00205867
0.00151016
1.036
-0.0010134
0.000631885
1.24288
-0.000281497
-4.25787e-05
1.49152
0.00035606
-0.000723332
1.49156
0.00110725
-0.00159944
1.24318
0.00214081
-0.00287277
1.03637
0.00371194
-0.00488747
0.864082
0.00624901
-0.00819232
0.721001
0.0106319
-0.0144371
0.60302
0.0194594
-0.0275267
0.507507
0.0379897
-0.0536651
0.431843
0.0714131
-0.0898197
0.365182
0.0899853
0.199026
-0.128187
0.0883319
0.0398549
-0.364652
0.353463
-0.0745254
0.0857144
-0.446531
0.454296
-0.0842044
0.0764399
-0.521328
0.529971
-0.0684459
0.0598033
-0.61277
0.621651
-0.0516119
0.0427317
-0.726748
0.734125
-0.0351151
0.0277376
-0.867346
0.872404
-0.0221076
0.0170501
-1.03841
1.04176
-0.0133008
0.00995765
-1.24461
1.24692
-0.00745489
0.00514812
-1.49273
1.49463
-0.00328062
0.00138171
-1.49247
1.49415
0.000254845
-0.00193665
-1.24401
1.24585
0.00381332
-0.00565071
-1.03747
1.03993
0.00792481
-0.0103945
-0.86599
0.869697
0.0136926
-0.0173987
-0.724244
0.729842
0.0224136
-0.0280117
-0.608609
0.616211
0.0353658
-0.0429686
-0.515
0.523166
0.0518262
-0.0599923
-0.439982
0.447951
0.0686033
-0.0765725
-0.375334
0.37682
0.0843158
-0.0858017
-0.257402
0.222696
0.0745843
-0.0398775
-0.0687535
0.0590548
0.00969869
-0.0511083
0.0574762
-0.374261
0.367893
-0.0563102
0.0523754
-0.453455
0.45739
-0.0472368
0.0433032
-0.527896
0.53183
-0.0395281
0.0359441
-0.621679
0.625263
-0.0318477
0.0277568
-0.735297
0.739388
-0.0232435
0.0192238
-0.874134
0.878154
-0.015161
0.0117253
-1.04326
1.0467
-0.00832811
0.00545873
-1.24833
1.2512
-0.00245025
-0.000459138
-1.49642
1.49933
0.00332711
-0.00629158
-1.49701
1.49998
0.00913347
-0.0124886
-1.24987
1.25323
0.0158727
-0.0198768
-1.04578
1.04978
0.0238436
-0.0283019
-0.877687
0.882145
0.0323409
-0.0363831
-0.740102
0.744144
0.0399297
-0.0436616
-0.626943
0.630675
0.0475586
-0.0526659
-0.534738
0.539845
0.0565648
-0.0576856
-0.457559
0.45868
0.0512668
-0.0314915
-0.336202
0.316426
0.00972454
-0.068681
0.0589564
-0.0534211
0.0496376
0.00378355
-0.0316419
0.0417266
-0.358739
0.348654
-0.0452348
0.0445176
-0.459626
0.460343
-0.041343
0.0378614
-0.535861
0.539343
-0.034003
0.0307712
-0.628477
0.631708
-0.0275581
0.0248124
-0.742439
0.745185
-0.0219123
0.0191502
-0.881478
0.88424
-0.0159924
0.0129734
-1.04997
1.05299
-0.00956785
0.00635849
-1.25433
1.25753
-0.00274776
-0.000715142
-1.50265
1.50611
0.00416267
-0.00772964
-1.50336
1.50693
0.0108646
-0.0141778
-1.25661
1.25992
0.0171145
-0.0201793
-1.05334
1.0564
0.0228628
-0.0256777
-0.885502
0.888317
0.0283421
-0.031473
-0.747327
0.750458
0.0346178
-0.0384014
-0.634483
0.638266
0.041824
-0.0449316
-0.544545
0.547653
0.0455862
-0.0420007
-0.457314
0.453729
0.03183
-0.0152876
-0.297551
0.281009
0.00381193
-0.0532947
0.0494828
-0.046847
0.0446479
0.00219918
-0.0205216
0.0298632
-0.338755
0.329414
-0.035028
0.0359634
-0.459955
0.459019
-0.0350173
0.0331636
-0.541838
0.543692
-0.030888
0.0285676
-0.634519
0.636839
-0.0258442
0.023274
-0.747976
0.750546
-0.0202997
0.0175989
-0.886937
0.889638
-0.0145954
0.011812
-1.05584
1.05862
-0.00866336
0.00570145
-1.26065
1.26361
-0.00230694
-0.000939701
-1.50946
1.51271
0.00416766
-0.0075093
-1.51043
1.51377
0.0103934
-0.0134355
-1.26312
1.26616
0.0160951
-0.018954
-1.05932
1.06218
0.0215238
-0.0243609
-0.891217
0.894054
0.0268238
-0.0294634
-0.753453
0.756092
0.0317029
-0.0338851
-0.641278
0.64346
0.0356675
-0.0365341
-0.549329
0.550195
0.0355184
-0.0302376
-0.44893
0.44365
0.02077
-0.00897881
-0.267064
0.255272
0.00223767
-0.0466585
0.0444208
-0.0428851
0.0415554
0.00132969
-0.012725
0.020216
-0.320831
0.31334
-0.0256407
0.027384
-0.45776
0.456017
-0.0270787
0.0258292
-0.545253
0.546503
-0.0243518
0.0229457
-0.638598
0.640004
-0.0213214
0.019677
-0.75276
0.754405
-0.0176789
0.0155976
-0.892107
0.894188
-0.0131097
0.010693
-1.06123
1.06365
-0.00788849
0.0051586
-1.26643
1.26916
-0.00193028
-0.00130645
-1.51596
1.51919
0.00450156
-0.007626
-1.51699
1.52011
0.0102368
-0.012895
-1.269
1.27165
0.0151698
-0.0174956
-1.06482
1.06715
0.0194258
-0.0212593
-0.896535
0.898368
0.0227619
-0.0242081
-0.758182
0.759629
0.0254894
-0.0268433
-0.645072
0.646426
0.0279751
-0.0281382
-0.550746
0.550909
0.0262503
-0.0206516
-0.438149
0.43255
0.0130054
-0.00532345
-0.24547
0.237788
0.00137452
-0.0426188
0.0412443
-0.040686
0.0402155
0.000470519
-0.00571548
0.0103904
-0.307246
0.302571
-0.0150158
0.0174584
-0.453784
0.451341
-0.0182075
0.0179444
-0.547291
0.547554
-0.0171009
0.0162427
-0.641241
0.642099
-0.0152272
0.0142648
-0.75556
0.756523
-0.0131114
0.011911
-0.89574
0.89694
-0.0103442
0.0086247
-1.06573
1.06745
-0.00641494
0.00410126
-1.27173
1.27404
-0.0012548
-0.00161688
-1.52231
1.52518
0.00444834
-0.00717636
-1.52309
1.52581
0.00934057
-0.0113477
-1.27403
1.27604
0.0128577
-0.0141938
-1.06894
1.07028
0.0151942
-0.0161182
-0.899561
0.900485
0.0169133
-0.0177506
-0.760789
0.761627
0.0184413
-0.0191155
-0.64758
0.648254
0.0192311
-0.0183195
-0.550486
0.549575
0.0157144
-0.0108983
-0.427169
0.422353
0.00605168
-0.00221281
-0.232218
0.22838
0.00052487
-0.0403245
0.0397996
-0.0399968
0.0399067
9.01018e-05
-0.002449
0.00521777
-0.299035
0.296266
-0.00866951
0.0110653
-0.44892
0.446525
-0.0124645
0.0130708
-0.547347
0.546741
-0.0132858
0.0133135
-0.642422
0.642395
-0.01308
0.0125162
-0.757258
0.757822
-0.0115893
0.0104821
-0.89808
0.899187
-0.0089651
0.007328
-1.06906
1.0707
-0.00525583
0.0031267
-1.27619
1.27832
-0.000551832
-0.00198198
-1.5278
1.53033
0.00448487
-0.0069463
-1.52834
1.5308
0.00890698
-0.0107538
-1.27789
1.27974
0.0121689
-0.0134252
-1.07154
1.0728
0.0142995
-0.0150081
-0.901311
0.90202
0.015287
-0.0152564
-0.761897
0.761866
0.0150268
-0.0145917
-0.648318
0.647883
0.0137856
-0.0121669
-0.548305
0.546686
0.00955716
-0.00585954
-0.418183
0.414485
0.00287107
-0.000892248
-0.225702
0.223723
0.000157754
-0.0395205
0.0393627
-0.0398812
0.039879
2.19998e-06
-0.00134691
0.00335414
-0.293965
0.291958
-0.00644086
0.00918173
-0.444016
0.441276
-0.0113924
0.0126965
-0.545783
0.544479
-0.0132882
0.0134493
-0.642245
0.642084
-0.0132513
0.012749
-0.758339
0.758841
-0.0118791
0.0107759
-0.900245
0.901349
-0.00923309
0.00750087
-1.07236
1.07409
-0.00526109
0.00292517
-1.28054
1.28287
-0.000113604
-0.0026367
-1.53296
1.53571
0.00532136
-0.00794336
-1.53332
1.53595
0.0100416
-0.0119759
-1.2816
1.28354
0.013403
-0.0146019
-1.07398
1.07518
0.0153784
-0.015888
-0.902553
0.903062
0.016119
-0.0159902
-0.761786
0.761657
0.0155438
-0.0146632
-0.647171
0.64629
0.0130837
-0.0105707
-0.544683
0.54217
0.00754408
-0.00414298
-0.411017
0.407616
0.0018636
-0.000540206
-0.222157
0.220834
8.48362e-05
-0.0392625
0.0391777
-0.039876
0.0398753
7.78223e-07
-0.000836945
0.00234077
-0.290188
0.288684
-0.00512294
0.00819604
-0.438287
0.435214
-0.0113646
0.0135819
-0.542721
0.540503
-0.0149739
0.0153843
-0.641753
0.641343
-0.0153252
0.0148299
-0.759415
0.75991
-0.0137848
0.012381
-0.902624
0.904028
-0.010413
0.00829023
-1.07603
1.07815
-0.00563683
0.00295046
-1.28539
1.28808
0.000278676
-0.0034742
-1.53867
1.54187
0.00659858
-0.00961166
-1.53876
1.54177
0.0119915
-0.0142271
-1.28565
1.28788
0.0159279
-0.0174076
-1.07656
1.07804
0.0183677
-0.0189828
-0.903721
0.904336
0.0190337
-0.0186956
-0.761311
0.760973
0.0179307
-0.0160843
-0.645002
0.643156
0.013483
-0.00991062
-0.539061
0.535489
0.0064777
-0.00331469
-0.404268
0.401105
0.00148162
-0.00048002
-0.219673
0.218672
0.000105004
-0.0390818
0.0389768
-0.0398879
0.0399222
-3.42384e-05
-0.000238382
0.00108646
-0.2875
0.286652
-0.00299974
0.00551126
-0.432307
0.429796
-0.00857761
0.0110859
-0.537996
0.535488
-0.0131961
0.0142702
-0.640735
0.639661
-0.014493
0.0140792
-0.760274
0.760688
-0.0129742
0.0115647
-0.905477
0.906887
-0.00961087
0.00748734
-1.08034
1.08246
-0.00481205
0.00207981
-1.29085
1.29358
0.00121988
-0.00448541
-1.54519
1.54845
0.00765461
-0.010655
-1.54487
1.54787
0.012986
-0.0151274
-1.29013
1.29227
0.0167023
-0.0180146
-1.07948
1.08079
0.0188131
-0.019143
-0.904738
0.905068
0.0190338
-0.0183119
-0.760641
0.759919
0.0166817
-0.0140737
-0.640817
0.638209
0.0111283
-0.00759197
-0.531766
0.52823
0.004663
-0.00229637
-0.398291
0.395924
0.00104005
-0.000365902
-0.217841
0.217167
9.2718e-05
-0.0388757
0.038783
-0.0399815
0.0400624
-8.08757e-05
0.000239823
2.97156e-05
-0.286107
0.285838
-0.000948954
0.00238026
-0.427823
0.426392
-0.00434666
0.00611179
-0.533293
0.531528
-0.00771338
0.00872559
-0.638473
0.637461
-0.00925103
0.00917681
-0.760978
0.761052
-0.00860039
0.00764922
-0.908082
0.909033
-0.00617415
0.00447141
-1.0844
1.08611
-0.00224293
-8.19331e-05
-1.29615
1.29848
0.00290298
-0.00566342
-1.55152
1.55428
0.00828555
-0.0107192
-1.55063
1.55307
0.0125323
-0.0140609
-1.29416
1.29569
0.0150685
-0.0157624
-1.08185
1.08254
0.0159914
-0.0158194
-0.905283
0.905111
0.0151597
-0.0138263
-0.758697
0.757363
0.0121847
-0.00991653
-0.635659
0.63339
0.0075791
-0.00502017
-0.525133
0.522575
0.00306306
-0.001567
-0.39402
0.392524
0.000769964
-0.000302964
-0.216616
0.216149
8.43173e-05
-0.0386965
0.0386121
-0.0401623
0.0402763
-0.000113985
0.000579272
-0.000648761
-0.28578
0.28585
0.00042856
0.000140289
-0.425431
0.424862
-0.00106085
0.00196346
-0.530209
0.529307
-0.00283436
0.00341922
-0.636648
0.636063
-0.00375822
0.00376891
-0.761035
0.761024
-0.00343441
0.0028122
-0.909788
0.910411
-0.00178287
0.000543199
-1.08756
1.0888
0.00112288
-0.00288396
-1.30052
1.30228
0.00501536
-0.00705405
-1.55668
1.55872
0.00892776
-0.010542
-1.5551
1.55671
0.0116372
-0.0124664
-1.29686
1.29769
0.0128575
-0.0128963
-1.08288
1.08292
0.0125942
-0.0119373
-0.904641
0.903985
0.0110473
-0.00978518
-0.756048
0.754786
0.00841255
-0.00672649
-0.631419
0.629733
0.00512641
-0.00348004
-0.520516
0.51887
0.00225443
-0.00129317
-0.391342
0.390381
0.000720121
-0.000316816
-0.215729
0.215325
9.4293e-05
-0.0385251
0.0384308
-0.0404062
0.0405495
-0.000143227
0.000818791
-0.00113791
-0.286044
0.286364
0.00130597
-0.00127873
-0.424599
0.424572
0.0010659
-0.000814183
-0.528759
0.528508
0.000571443
-0.000441645
-0.635711
0.635581
0.000444282
-0.000605634
-0.761083
0.761244
0.000983128
-0.00152581
-0.910966
0.911509
0.00234929
-0.00330458
-1.08987
1.09083
0.0045592
-0.00585711
-1.30379
1.30509
0.00738808
-0.00879379
-1.56042
1.56183
0.00999369
-0.0109334
-1.55797
1.5589
0.0114363
-0.0115795
-1.29815
1.2983
0.0114474
-0.0110366
-1.08272
1.08231
0.0104496
-0.0096008
-0.903216
0.902367
0.00867683
-0.00754423
-0.75359
0.752457
0.0064349
-0.00518321
-0.628293
0.627041
0.00406475
-0.00294284
-0.517534
0.516412
0.00208329
-0.00134019
-0.38956
0.388817
0.000818447
-0.000385062
-0.214916
0.214482
0.000119345
-0.0383256
0.0382062
-0.040711
0.0408887
-0.000177757
0.00106351
-0.00155093
-0.286767
0.287255
0.0020094
-0.0023165
-0.424717
0.425024
0.00254806
-0.00273021
-0.528494
0.528676
0.0029473
-0.00319682
-0.635653
0.635903
0.00354878
-0.00396011
-0.761529
0.76194
0.004526
-0.00515884
-0.912082
0.912714
0.00598514
-0.00685402
-1.09172
1.09259
0.00791231
-0.00893691
-1.30622
1.30725
0.0100608
-0.0109986
-1.56298
1.56392
0.0116786
-0.0120345
-1.55954
1.5599
0.0120419
-0.0118079
-1.29824
1.298
0.0113343
-0.0106211
-1.08172
1.081
0.00983176
-0.00886519
-0.901452
0.900486
0.00792427
-0.00686168
-0.751371
0.750308
0.00588818
-0.00484534
-0.625921
0.624879
0.0039403
-0.00302691
-0.515427
0.514513
0.0022842
-0.00156966
-0.388106
0.387392
0.00100244
-0.000486008
-0.214013
0.213496
0.000153593
-0.0380711
0.0379175
-0.0410927
0.0413174
-0.00022469
0.00136728
-0.00203058
-0.287827
0.28849
0.00271696
-0.00327782
-0.425451
0.426012
0.00383121
-0.00432444
-0.529023
0.529516
0.00489048
-0.0054517
-0.636321
0.636882
0.00612618
-0.00680686
-0.762492
0.763172
0.00762841
-0.00844865
-0.913431
0.914251
0.00941595
-0.0103446
-1.09347
1.0944
0.01138
-0.012295
-1.3082
1.30911
0.0131911
-0.0138154
-1.56468
1.5653
0.0141212
-0.0140632
-1.56003
1.55997
0.0137186
-0.0130871
-1.29756
1.29693
0.0123361
-0.0113788
-1.08017
1.07921
0.0104244
-0.0093341
-0.899461
0.898371
0.00832636
-0.007235
-0.749245
0.748153
0.00626757
-0.00525451
-0.623874
0.622861
0.00438127
-0.003484
-0.513632
0.512734
0.00271615
-0.00192361
-0.38665
0.385858
0.00125225
-0.00061488
-0.212925
0.212288
0.000196075
-0.0377451
0.037549
-0.0415755
0.0418628
-0.000287328
0.00175542
-0.00262549
-0.289246
0.290116
0.00355814
-0.00435857
-0.426672
0.427472
0.00518383
-0.00593895
-0.530155
0.530911
0.00680221
-0.00764562
-0.637613
0.638456
0.0086355
-0.00960458
-0.764009
0.764978
0.0107312
-0.0118079
-0.915181
0.916257
0.0130151
-0.0141098
-1.09538
1.09647
0.0152504
-0.0161775
-1.31001
1.31093
0.0169787
-0.0174061
-1.56581
1.56624
0.0174316
-0.0170338
-1.55973
1.55934
0.0163725
-0.0154123
-1.29613
1.29517
0.014389
-0.0131684
-1.07812
1.0769
0.0120106
-0.0107328
-0.897187
0.895909
0.00958326
-0.00836254
-0.747006
0.745786
0.00729468
-0.00618389
-0.621822
0.620711
0.00522408
-0.0042228
-0.511811
0.51081
0.0033402
-0.00239648
-0.385002
0.384059
0.00157321
-0.000777019
-0.211579
0.210783
0.000249139
-0.0373319
0.0370828
-0.0421915
0.0425626
-0.000371127
0.00226158
-0.00338639
-0.291097
0.292222
0.00460088
-0.00565087
-0.428388
0.429438
0.00675375
-0.00776678
-0.531845
0.532858
0.00892968
-0.0100721
-0.639514
0.640656
0.0114176
-0.0127296
-0.766122
0.767434
0.0142332
-0.0156335
-0.917451
0.918851
0.0171546
-0.0184937
-1.09763
1.09897
0.0198363
-0.0208646
-1.31187
1.31289
0.021663
-0.0219662
-1.56658
1.56688
0.0217624
-0.0210509
-1.55877
1.55806
0.0200759
-0.0187661
-1.29403
1.29272
0.0174365
-0.0159022
-1.07551
1.07398
0.0144817
-0.0129422
-0.894488
0.892949
0.0115758
-0.0101372
-0.744455
0.743017
0.00888326
-0.00757751
-0.619533
0.618227
0.00644216
-0.00524399
-0.509755
0.508557
0.00417217
-0.00300877
-0.383028
0.381864
0.00198286
-0.000982825
-0.2099
0.2089
0.000316907
-0.0368133
0.0364964
-0.0429868
0.0434677
-0.000480917
0.00291755
-0.00436075
-0.293497
0.29494
0.00591055
-0.0072453
-0.430665
0.432
0.00863318
-0.0099186
-0.534151
0.535437
0.0114269
-0.0129419
-0.642064
0.643579
0.0147499
-0.0165116
-0.768899
0.770661
0.0185091
-0.0203341
-0.920351
0.922176
0.0222609
-0.0239004
-1.10039
1.10203
0.0255041
-0.0266931
-1.31393
1.31512
0.0275429
-0.0277532
-1.56709
1.56731
0.0273272
-0.026282
-1.55716
1.55612
0.0249579
-0.0232438
-1.2912
1.28949
0.0215442
-0.0196179
-1.07223
1.0703
0.017859
-0.0159746
-0.891196
0.889312
0.0143162
-0.0125789
-0.741402
0.739665
0.0110652
-0.00948185
-0.61682
0.615237
0.0080922
-0.00660734
-0.507303
0.505818
0.00526599
-0.00380094
-0.380604
0.379139
0.00250846
-0.00124633
-0.207803
0.206541
0.000404481
-0.0361671
0.0357626
-0.0440236
0.0446487
-0.000625178
0.00377217
-0.00562583
-0.296604
0.298458
0.007606
-0.00929795
-0.433641
0.435333
0.01105
-0.0126835
-0.53718
0.538814
0.0146195
-0.0165942
-0.6454
0.647374
0.0189712
-0.0212629
-0.772498
0.77479
0.023828
-0.0261542
-0.924041
0.926367
0.0286106
-0.0306823
-1.10376
1.10583
0.0326577
-0.03406
-1.31631
1.31771
0.0349823
-0.0350891
-1.5674
1.56751
0.0344034
-0.0329601
-1.55485
1.55341
0.0312141
-0.0290059
-1.28751
1.2853
0.0268471
-0.0244267
-1.06809
1.06567
0.0222363
-0.0199094
-0.887123
0.884796
0.0178768
-0.0157598
-0.737655
0.735538
0.013918
-0.0119841
-0.613503
0.611569
0.0102683
-0.00840638
-0.5043
0.502438
0.00670371
-0.00483059
-0.377601
0.375728
0.00317987
-0.00157891
-0.205186
0.203585
0.000514161
-0.0353648
0.0348507
-0.045388
0.0462191
-0.000831093
0.00495237
-0.00737141
-0.300635
0.303054
0.00994336
-0.0121239
-0.437482
0.439663
0.0143636
-0.0164646
-0.541106
0.543207
0.0189752
-0.0215379
-0.649706
0.652268
0.0246096
-0.0275572
-0.777109
0.780056
0.0308397
-0.0337894
-0.928694
0.931644
0.0368613
-0.0394127
-1.10791
1.11046
0.0417777
-0.0433945
-1.31909
1.3207
0.044366
-0.0443164
-1.56747
1.56742
0.0432912
-0.041346
-1.55169
1.54974
0.0390723
-0.0362474
-1.28277
1.27995
0.0335139
-0.0304703
-1.06289
1.05984
0.0277312
-0.0248382
-0.882054
0.879161
0.0223278
-0.0197321
-0.733012
0.730416
0.0174852
-0.0151283
-0.609392
0.607035
0.0130214
-0.0107028
-0.500567
0.498249
0.00854912
-0.00614301
-0.373859
0.371453
0.0040209
-0.00197632
-0.201924
0.19988
0.000639404
-0.034368
0.0337286
-0.0471986
0.0483508
-0.00115216
0.00671847
-0.00994576
-0.305885
0.309112
0.0133086
-0.0161058
-0.442472
0.44527
0.0189501
-0.021651
-0.546197
0.548898
0.024919
-0.028262
-0.655234
0.658577
0.0322253
-0.0359787
-0.782992
0.786746
0.0401014
-0.0437458
-0.934548
0.938192
0.0474869
-0.0505389
-1.113
1.11605
0.0533107
-0.0551289
-1.32226
1.32408
0.0560949
-0.0557977
-1.56717
1.56687
0.0543157
-0.0517295
-1.54745
1.54486
0.0487962
-0.045208
-1.27673
1.27314
0.0417639
-0.037946
-1.05636
1.05255
0.0345184
-0.0309061
-0.875749
0.872137
0.0277814
-0.0245686
-0.72725
0.724037
0.0218038
-0.0189171
-0.604281
0.601394
0.0163284
-0.0134519
-0.495907
0.49303
0.0107394
-0.0077132
-0.369165
0.366139
0.00506319
-0.00248832
-0.197845
0.19527
0.000801136
-0.0331323
0.0323312
-0.0496473
0.0513114
-0.00166414
0.00945964
-0.0138465
-0.312804
0.31719
0.0182627
-0.0218674
-0.449002
0.452606
0.0255213
-0.0290454
-0.552823
0.556348
0.0333282
-0.0376542
-0.662368
0.666694
0.0426924
-0.0473711
-0.79048
0.795159
0.0524265
-0.0568353
-0.941817
0.946226
0.0612984
-0.0648605
-1.11907
1.12263
0.0679871
-0.0699103
-1.32575
1.32767
0.0707196
-0.0700098
-1.56625
1.56554
0.0678984
-0.064494
-1.54183
1.53842
0.06075
-0.0562396
-1.26908
1.26457
0.0519435
-0.0471972
-1.04822
1.04348
0.0429389
-0.0384475
-0.867922
0.86343
0.0345607
-0.0305726
-0.72011
0.716122
0.0271546
-0.0236059
-0.597931
0.594383
0.0204306
-0.0168972
-0.490065
0.486532
0.0135333
-0.00971569
-0.363272
0.359455
0.00635313
-0.00311511
-0.192744
0.189506
0.000996616
-0.0316035
0.0306069
-0.0530702
0.05556
-0.00248988
0.0137401
-0.0197693
-0.322084
0.328114
0.0255705
-0.0302412
-0.457614
0.462285
0.0350105
-0.0396797
-0.561481
0.56615
0.0453392
-0.0509327
-0.671546
0.677139
0.0572951
-0.0630702
-0.799906
0.805681
0.069178
-0.0743834
-0.95065
0.955855
0.0795017
-0.0834367
-1.12609
1.13002
0.0867012
-0.0884957
-1.32932
1.33112
0.0888681
-0.0874805
-1.56436
1.56297
0.0844942
-0.0800491
-1.53443
1.52999
0.0753224
-0.0697241
-1.25949
1.25389
0.0644399
-0.0586256
-1.03815
1.03233
0.0534126
-0.0479041
-0.858259
0.85275
0.0431277
-0.0382194
-0.711284
0.706376
0.0340116
-0.0296539
-0.590055
0.585697
0.0257587
-0.0214063
-0.48276
0.478408
0.0172149
-0.0124052
-0.355841
0.351032
0.00809377
-0.0039297
-0.186387
0.182223
0.00124352
-0.0297157
0.0284722
-0.0580693
0.0620421
-0.0039728
0.0208408
-0.0292575
-0.334896
0.343313
0.0369611
-0.0430772
-0.469186
0.475302
0.0493624
-0.0555833
-0.572872
0.579093
0.0630153
-0.0701261
-0.68328
0.690391
0.077946
-0.0848219
-0.811483
0.818359
0.0918761
-0.0976861
-0.960965
0.966775
0.10317
-0.10717
-1.13369
1.13769
0.110206
-0.11152
-1.33247
1.33378
0.111066
-0.10865
-1.56092
1.55851
0.104482
-0.0987307
-1.5248
1.51905
0.0928294
-0.0859742
-1.24761
1.24075
0.0795742
-0.0725697
-1.02585
1.01884
0.0663017
-0.0596717
-0.846469
0.839839
0.0539074
-0.047957
-0.700462
0.694511
0.0428439
-0.0375565
-0.580311
0.575024
0.0328188
-0.0274425
-0.473612
0.468236
0.022172
-0.0160166
-0.346458
0.340302
0.010439
-0.0050395
-0.178341
0.172942
0.001573
-0.027374
0.025801
-0.0657844
0.0730222
-0.00723787
0.0345906
-0.0469702
-0.353409
0.365789
0.0573958
-0.0651506
-0.484913
0.492667
0.0732205
-0.0812381
-0.587722
0.59574
0.0905089
-0.0989526
-0.697864
0.706307
0.107822
-0.115294
-0.825054
0.832526
0.122657
-0.12845
-0.972223
0.978016
0.133627
-0.137076
-1.14112
1.14457
0.13926
-0.13954
-1.33434
1.33462
0.137736
-0.133854
-1.55519
1.5513
0.128157
-0.120832
-1.5124
1.50508
0.113571
-0.105324
-1.23313
1.22488
0.0977142
-0.0894524
-1.01111
1.00285
0.0820841
-0.0742977
-0.83237
0.824583
0.0675109
-0.0604736
-0.687424
0.680386
0.054404
-0.04813
-0.568381
0.562107
0.042495
-0.0359639
-0.462134
0.455603
0.0292814
-0.0212746
-0.334358
0.326351
0.0138293
-0.00652686
-0.167997
0.160695
0.00192768
-0.024448
0.0225203
-0.0800705
0.083332
-0.00326146
0.023595
-0.0340653
-0.381123
0.391593
0.0436504
-0.0514804
-0.505827
0.513657
0.0605101
-0.0702411
-0.60573
0.615461
0.0810486
-0.0906893
-0.714355
0.723996
0.101412
-0.110879
-0.839289
0.848757
0.120712
-0.129131
-0.98296
0.991379
0.137482
-0.144147
-1.147
1.15367
0.150056
-0.15389
-1.33375
1.33758
0.155877
-0.155146
-1.54621
1.54548
0.151559
-0.145508
-1.49669
1.49064
0.138411
-0.129397
-1.21579
1.20677
0.12057
-0.109971
-0.993847
0.983248
0.100229
-0.0894904
-0.815967
0.805228
0.0798543
-0.0695969
-0.672206
0.661949
0.0603438
-0.0508711
-0.554181
0.544708
0.0425642
-0.0329195
-0.447809
0.438164
0.0238631
-0.0145706
-0.318388
0.309096
0.00752346
-0.00245146
-0.154073
0.149001
0.000219452
-0.0207454
0.0205259
-0.0908667
0.0872826
0.00358408
0.000821764
-0.00666545
-0.405062
0.410906
0.0142005
-0.020904
-0.525998
0.532701
0.0295193
-0.0379808
-0.625483
0.633944
0.0476938
-0.056567
-0.733582
0.742455
0.0660512
-0.0746488
-0.857787
0.866385
0.0836022
-0.091001
-0.999554
1.00695
0.0985762
-0.104312
-1.16028
1.16602
0.109375
-0.112399
-1.34128
1.34431
0.11338
-0.111941
-1.54406
1.54263
0.107821
-0.101427
-1.4839
1.47751
0.0940054
-0.0848811
-1.19739
1.18826
0.0760972
-0.066063
-0.972496
0.962462
0.056664
-0.0462366
-0.793853
0.783426
0.036889
-0.0272802
-0.650038
0.640429
0.0190346
-0.0105629
-0.5327
0.524228
0.00332082
0.00324338
-0.426329
0.419765
-0.00740067
0.00919095
-0.298391
0.2966
-0.00843835
0.00549353
-0.142273
0.145218
-0.00229647
-0.018901
0.0211974
-0.0896902
0.0860225
0.00366773
-0.0067379
0.00418918
-0.420548
0.423096
0.00038097
-0.0057918
-0.542858
0.548269
0.0128437
-0.0200873
-0.642724
0.649968
0.0283317
-0.0358956
-0.750813
0.758377
0.0441895
-0.0515779
-0.874314
0.881702
0.0590915
-0.0656965
-1.0142
1.0208
0.0723124
-0.0774734
-1.17142
1.17659
0.0816923
-0.0840703
-1.34687
1.34925
0.0848458
-0.0832743
-1.54078
1.53921
0.0792842
-0.0733371
-1.47087
1.46493
0.0666407
-0.0587223
-1.17944
1.17153
0.0508758
-0.0422733
-0.952599
0.943996
0.0343406
-0.0256963
-0.773649
0.765005
0.0182716
-0.0106883
-0.630537
0.622953
0.0044552
0.00180503
-0.514297
0.508037
-0.006589
0.0104517
-0.410953
0.407091
-0.0121449
0.0113239
-0.290725
0.291546
-0.00862732
0.0050293
-0.14457
0.148168
-0.00191842
-0.0213952
0.0233136
-0.0870526
0.083578
0.00347461
-0.00938179
0.0087558
-0.430174
0.4308
-0.00595712
0.00157432
-0.556054
0.560437
0.00453415
-0.0105645
-0.657005
0.663036
0.0175742
-0.0240222
-0.76566
0.772108
0.0310628
-0.0373775
-0.888671
0.894985
0.0441998
-0.0498332
-1.02704
1.03267
0.0557017
-0.0599175
-1.18144
1.18566
0.0637184
-0.0659097
-1.35159
1.35378
0.0665586
-0.0649643
-1.53753
1.53594
0.0616114
-0.0566083
-1.45891
1.45391
0.0509579
-0.0440475
-1.16393
1.15702
0.0376082
-0.0306798
-0.935779
0.928851
0.0242488
-0.0176168
-0.757091
0.750459
0.0116426
-0.00578068
-0.615223
0.609361
0.00101007
0.00336352
-0.500731
0.496357
-0.00643205
0.00868016
-0.400594
0.398346
-0.0093757
0.0078496
-0.287228
0.288754
-0.00573797
0.00321901
-0.147809
0.150328
-0.00123462
-0.0232969
0.0245315
-0.0845083
0.0816592
0.00284909
-0.00950375
0.0100618
-0.436283
0.435725
-0.0079346
0.00446353
-0.566989
0.57046
0.000520126
-0.00593338
-0.669069
0.674483
0.0118392
-0.0175207
-0.778182
0.783863
0.0236267
-0.0291248
-0.900989
0.906488
0.035
-0.0400693
-1.03823
1.0433
0.0451596
-0.0491786
-1.18984
1.19386
0.0526419
-0.0546911
-1.35578
1.35783
0.055407
-0.0541053
-1.53444
1.53314
0.0512809
-0.0468883
-1.44864
1.44425
0.0421154
-0.036443
-1.15054
1.14487
0.0311013
-0.0252626
-0.922152
0.916313
0.0200753
-0.0146611
-0.744078
0.738664
0.0100109
-0.00539391
-0.603538
0.598921
0.00176842
0.00146734
-0.490838
0.487602
-0.00382526
0.00538727
-0.393579
0.392017
-0.00567852
0.00480833
-0.285158
0.286029
-0.00360062
0.00198404
-0.149012
0.150629
-0.000860496
-0.0240578
0.0249183
-0.0825092
0.0801896
0.00231963
-0.00859272
0.00933174
-0.440199
0.43946
-0.00821858
0.00520557
-0.575531
0.578544
-0.000517804
-0.00407336
-0.679389
0.68398
0.00915627
-0.0141068
-0.78902
0.793971
0.0195649
-0.024523
-0.911769
0.916727
0.0299654
-0.0344961
-1.0482
1.05273
0.039183
-0.0429267
-1.1977
1.20144
0.0461571
-0.0481202
-1.35974
1.3617
0.0489044
-0.0482406
-1.53193
1.53127
0.0458514
-0.0422344
-1.43972
1.43611
0.0380964
-0.0331632
-1.13933
1.1344
0.028743
-0.0235936
-0.910676
0.905526
0.0190961
-0.0145658
-0.733466
0.728936
0.0106233
-0.00670379
-0.594379
0.590459
0.00357967
-0.000624447
-0.483281
0.480326
-0.00122382
0.00261252
-0.388059
0.38667
-0.00331604
0.00297783
-0.282528
0.282866
-0.00232821
0.00139403
-0.148575
0.149509
-0.000649412
-0.024161
0.0248104
-0.081131
0.0793586
0.00177234
-0.007148
0.00802135
-0.443041
0.442168
-0.00698031
0.0045373
-0.583071
0.585514
-0.000300357
-0.00381788
-0.688363
0.692481
0.00863823
-0.0129243
-0.798736
0.803022
0.0177406
-0.0221663
-0.921739
0.926165
0.0273902
-0.0315911
-1.05738
1.06159
0.0358711
-0.0395379
-1.20513
1.20879
0.0430607
-0.0450514
-1.36381
1.3658
0.0461188
-0.0456597
-1.53034
1.52989
0.043934
-0.0405368
-1.43241
1.42901
0.0369925
-0.0326907
-1.12944
1.12514
0.028582
-0.0240904
-0.900545
0.896054
0.0199688
-0.0156724
-0.724273
0.719977
0.0122869
-0.00860595
-0.586375
0.582694
0.00559422
-0.00295667
-0.476568
0.47393
0.0010107
0.000616309
-0.38319
0.381563
-0.00144563
0.00157604
-0.279577
0.279447
-0.001401
0.000960869
-0.147195
0.147635
-0.000513159
-0.0239135
0.0244267
-0.0803988
0.0790166
0.00138215
-0.00572306
0.00662202
-0.445305
0.444406
-0.0055481
0.00313699
-0.589644
0.592055
0.000720972
-0.00439454
-0.696437
0.70011
0.00854501
-0.0126886
-0.807416
0.81156
0.0171648
-0.0217556
-0.930487
0.935078
0.0263291
-0.0303969
-1.06595
1.07002
0.0348785
-0.0384103
-1.21246
1.21599
0.0415747
-0.0440708
-1.36782
1.37032
0.0454424
-0.045381
-1.52957
1.5295
0.0439188
-0.041148
-1.42582
1.42305
0.0379307
-0.0339181
-1.12054
1.11653
0.0301222
-0.0258502
-0.891441
0.887169
0.0219459
-0.017986
-0.71572
0.71176
0.0144383
-0.010926
-0.578806
0.575294
0.00805776
-0.00520821
-0.470461
0.467611
0.003066
-0.00149326
-0.378153
0.37658
0.000376251
0.000266746
-0.27613
0.275487
-0.000587785
0.000574314
-0.145214
0.145228
-0.00040206
-0.0234606
0.0238627
-0.0802557
0.0790888
0.00116682
-0.00421042
0.00478729
-0.447402
0.446825
-0.00379009
0.00142761
-0.595686
0.598049
0.0020095
-0.00551928
-0.703931
0.707441
0.0094925
-0.0132594
-0.815635
0.819402
0.0178636
-0.0217189
-0.939183
0.943038
0.0262876
-0.0302196
-1.07429
1.07822
0.0346414
-0.0384192
-1.21958
1.22335
0.0419676
-0.0443545
-1.37271
1.3751
0.0461517
-0.0465314
-1.52947
1.52985
0.0456937
-0.043171
-1.42013
1.41761
0.0402623
-0.0364599
-1.11254
1.10873
0.0328297
-0.0285971
-0.882614
0.878382
0.024839
-0.0207847
-0.707501
0.703447
0.0172383
-0.0136131
-0.571493
0.567867
0.0105345
-0.00773528
-0.464142
0.461342
0.00534995
-0.00346864
-0.372973
0.371092
0.00198305
-0.000975073
-0.272154
0.271146
0.000256755
0.00025354
-0.142623
0.142113
-0.00029933
-0.0227926
0.0230919
-0.0804021
0.0795604
0.000841655
-0.00292227
0.00294162
-0.449724
0.449705
-0.00208428
-0.000222311
-0.600978
0.603285
0.00325591
-0.0066139
-0.710875
0.714233
0.0104112
-0.0142965
-0.823143
0.827029
0.0183175
-0.0223341
-0.947142
0.951158
0.0268803
-0.0306383
-1.08261
1.08637
0.035191
-0.0389787
-1.227
1.23079
0.0426634
-0.0456569
-1.37798
1.38098
0.048023
-0.0487426
-1.53038
1.5311
0.0481383
-0.0462121
-1.41523
1.41331
0.0436832
-0.040011
-1.10471
1.10104
0.0363751
-0.0323436
-0.873956
0.869925
0.0282229
-0.0242314
-0.699035
0.695043
0.0205908
-0.0167487
-0.564119
0.560277
0.0136509
-0.0105188
-0.457604
0.454472
0.00797768
-0.00558535
-0.367632
0.36524
0.00386149
-0.00238828
-0.267678
0.266205
0.00110503
-0.000134313
-0.139449
0.138478
-0.000208176
-0.0218991
0.0221072
-0.0809439
0.080251
0.000692925
-0.00190811
0.00189502
-0.452319
0.452332
-0.000478652
-0.00150625
-0.606287
0.608272
0.00462215
-0.00782624
-0.717302
0.720506
0.0114634
-0.0149658
-0.830687
0.834189
0.0191072
-0.0228231
-0.955221
0.958937
0.0273162
-0.0315024
-1.09059
1.09478
0.0357341
-0.0398767
-1.23467
1.23881
0.0440227
-0.0471787
-1.38393
1.38709
0.0500224
-0.0515817
-1.53215
1.53371
0.0514435
-0.0500783
-1.41131
1.40995
0.047648
-0.0442285
-1.09732
1.0939
0.0407636
-0.0366029
-0.865373
0.861212
0.0325499
-0.0283329
-0.690428
0.686211
0.0245319
-0.0204147
-0.556133
0.552016
0.0169828
-0.013661
-0.45069
0.447368
0.0106894
-0.00794635
-0.361634
0.358891
0.00577325
-0.00377883
-0.262486
0.260491
0.0020934
-0.00063009
-0.135652
0.134188
-5.71681e-05
-0.0208328
0.0208899
-0.0817302
0.0811905
0.000539705
-0.000849414
0.000584292
-0.45507
0.455336
0.000678437
-0.00280236
-0.611129
0.613253
0.00577974
-0.00880182
-0.723451
0.726473
0.0124959
-0.0158442
-0.837736
0.841084
0.0198252
-0.0236437
-0.963143
0.966962
0.0280349
-0.0321832
-1.09885
1.103
0.0366366
-0.0408345
-1.24291
1.24711
0.0452085
-0.0491423
-1.39058
1.39452
0.0524912
-0.0544326
-1.53532
1.53727
0.0550574
-0.0540628
-1.40857
1.40758
0.0521413
-0.0491176
-1.09038
1.08736
0.045572
-0.0414199
-0.856637
0.852485
0.0373053
-0.0327646
-0.681478
0.676937
0.0288072
-0.0243684
-0.547795
0.543356
0.0206756
-0.0168385
-0.443297
0.43946
0.013638
-0.0105173
-0.354996
0.351876
0.00778484
-0.0052674
-0.256535
0.254017
0.00313912