/*--------------------------------*- C++ -*----------------------------------*\
  =========                 |
  \\      /  F ield         | OpenFOAM: The Open Source CFD Toolbox
   \\    /   O peration     | Website:  https://openfoam.org
    \\  /    A nd           | Version:  6
     \\/     M anipulation  |
\*---------------------------------------------------------------------------*/
FoamFile
{
    version     2.0;
    format      ascii;
    class       volVectorField;
    location    "53.9";
    object      U;
}
// * * * * * * * * * * * * * * * * * * * * * * * * * * * * * * * * * * * * * //

dimensions      [0 1 -1 0 0 0 0];

internalField   nonuniform List<vector> 
8800
(
(0.987184 -0.0766675 0)
(1.00189 -0.0551948 0)
(0.999718 -0.0285552 0)
(1.00001 -0.0151532 0)
(1.00006 -0.00855627 0)
(1.00007 -0.00505876 0)
(1.00005 -0.00301366 0)
(1.00002 -0.00171263 0)
(0.999997 -0.000806628 0)
(1.00006 -9.10044e-05 0)
(0.999987 0.000637167 0)
(0.999995 0.00139953 0)
(1.00001 0.00242217 0)
(1.00003 0.00399728 0)
(1.00003 0.00663111 0)
(1.00001 0.0113703 0)
(0.999888 0.0208138 0)
(0.999145 0.0386711 0)
(1.00709 0.0724569 0)
(0.771212 0.0366609 0)
(0.363051 -0.016019 0)
(1.0433 -0.076826 0)
(1.08458 -0.070464 0)
(1.04517 -0.0535665 0)
(1.02325 -0.0389258 0)
(1.01197 -0.026255 0)
(1.00638 -0.0169 0)
(1.00357 -0.0103722 0)
(1.00214 -0.00571452 0)
(1.00145 -0.00206002 0)
(1.00131 0.00126118 0)
(1.00168 0.00464255 0)
(1.00265 0.00857927 0)
(1.00464 0.0139241 0)
(1.00859 0.0216362 0)
(1.01655 0.0326094 0)
(1.03246 0.0465271 0)
(1.06262 0.0616475 0)
(1.09187 0.0760924 0)
(0.838682 0.0565581 0)
(0.216806 -0.00243173 0)
(1.07586 -0.050159 0)
(1.09984 -0.0483449 0)
(1.0646 -0.0405076 0)
(1.03997 -0.03366 0)
(1.02384 -0.0261487 0)
(1.01407 -0.0185743 0)
(1.00853 -0.011762 0)
(1.00558 -0.00590193 0)
(1.00433 -0.000487422 0)
(1.00468 0.00475976 0)
(1.0066 0.0101493 0)
(1.0106 0.0162527 0)
(1.01793 0.0232924 0)
(1.03053 0.0307666 0)
(1.05062 0.0378065 0)
(1.08032 0.0444958 0)
(1.10625 0.051319 0)
(0.942563 0.0416038 0)
(0.216187 0.00246019 0)
(0.175106 -0.000818647 0)
(1.01759 -0.0355168 0)
(1.10514 -0.0414325 0)
(1.0782 -0.0361304 0)
(1.05337 -0.0302083 0)
(1.03611 -0.0246462 0)
(1.02393 -0.018932 0)
(1.01584 -0.0128627 0)
(1.011 -0.00668238 0)
(1.00881 -0.000355065 0)
(1.0094 0.00589792 0)
(1.01266 0.0118996 0)
(1.01887 0.0177521 0)
(1.02877 0.0233427 0)
(1.04322 0.0286527 0)
(1.06374 0.0341511 0)
(1.09355 0.0401475 0)
(1.09343 0.0419237 0)
(0.827245 0.0228969 0)
(0.174063 0.000851119 0)
(0.153874 -0.00061269 0)
(0.956002 -0.0254985 0)
(1.10336 -0.035199 0)
(1.08758 -0.0327422 0)
(1.06159 -0.0281066 0)
(1.04398 -0.0231014 0)
(1.03155 -0.0178713 0)
(1.02273 -0.0123553 0)
(1.01694 -0.00643328 0)
(1.01412 2.92504e-05 0)
(1.01482 0.00649509 0)
(1.0188 0.0123806 0)
(1.02581 0.0176925 0)
(1.03612 0.0226343 0)
(1.0507 0.0274057 0)
(1.07193 0.0319525 0)
(1.10009 0.0359024 0)
(1.06815 0.033981 0)
(0.739717 0.0142933 0)
(0.152304 0.000649494 0)
(0.139467 -0.000469091 0)
(0.898993 -0.0191245 0)
(1.09562 -0.0301665 0)
(1.09561 -0.0292984 0)
(1.06908 -0.0255854 0)
(1.05065 -0.0214692 0)
(1.03776 -0.0167219 0)
(1.02868 -0.0114586 0)
(1.0226 -0.00573087 0)
(1.01951 0.00058248 0)
(1.02016 0.00688966 0)
(1.02426 0.012531 0)
(1.0314 0.0175202 0)
(1.04194 0.0220109 0)
(1.05708 0.02599 0)
(1.07928 0.0294786 0)
(1.10233 0.0321271 0)
(1.03613 0.0280555 0)
(0.673252 0.0101867 0)
(0.137251 0.000511613 0)
(0.128887 -0.000363955 0)
(0.849269 -0.0147701 0)
(1.08315 -0.0260518 0)
(1.10124 -0.0263756 0)
(1.07589 -0.023119 0)
(1.05693 -0.0195102 0)
(1.04359 -0.0152958 0)
(1.03417 -0.0103974 0)
(1.02785 -0.00488571 0)
(1.02457 0.00125152 0)
(1.0251 0.00735546 0)
(1.02917 0.0127209 0)
(1.03641 0.0173021 0)
(1.04724 0.0211954 0)
(1.06279 0.024512 0)
(1.08543 0.0274805 0)
(1.10148 0.0292629 0)
(1.00132 0.0235247 0)
(0.62154 0.00781797 0)
(0.125885 0.000414046 0)
(0.1208 -0.00028366 0)
(0.806969 -0.0116213 0)
(1.06777 -0.0224613 0)
(1.1047 -0.0237655 0)
(1.08209 -0.0209257 0)
(1.06273 -0.017531 0)
(1.04911 -0.0136308 0)
(1.03941 -0.00908767 0)
(1.03282 -0.00386149 0)
(1.02931 0.00205191 0)
(1.02968 0.00790436 0)
(1.0337 0.0129229 0)
(1.04102 0.0170318 0)
(1.05196 0.0204173 0)
(1.06773 0.0233278 0)
(1.09071 0.0260087 0)
(1.09775 0.0269088 0)
(0.966188 0.0199647 0)
(0.580034 0.00627741 0)
(0.116844 0.000343149 0)
(0.114516 -0.000220878 0)
(0.771311 -0.0092683 0)
(1.05086 -0.019306 0)
(1.10701 -0.0213656 0)
(1.08791 -0.0189069 0)
(1.06815 -0.0156696 0)
(1.05429 -0.0119402 0)
(1.0444 -0.00760418 0)
(1.03757 -0.00261995 0)
(1.0338 0.00302524 0)
(1.03396 0.00856498 0)
(1.03788 0.0132102 0)
(1.04515 0.0169221 0)
(1.0561 0.0199326 0)
(1.07208 0.0225172 0)
(1.09473 0.0248547 0)
(1.09123 0.0249515 0)
(0.93205 0.017211 0)
(0.545729 0.00522356 0)
(0.109401 0.000292109 0)
(0.109603 -0.000170348 0)
(0.741356 -0.00744285 0)
(1.03349 -0.016509 0)
(1.10834 -0.019101 0)
(1.09341 -0.0169606 0)
(1.07338 -0.0138193 0)
(1.05926 -0.010185 0)
(1.04919 -0.00599244 0)
(1.04214 -0.00120483 0)
(1.0381 0.00419765 0)
(1.03799 0.00942963 0)
(1.04171 0.0137039 0)
(1.04884 0.0170304 0)
(1.05977 0.019692 0)
(1.07593 0.0219977 0)
(1.09746 0.0239743 0)
(1.0823 0.0233223 0)
(0.899482 0.0151072 0)
(0.516584 0.00448451 0)
(0.10308 0.000255904 0)
(0.105775 -0.000128518 0)
(0.716283 -0.00597263 0)
(1.01649 -0.0140051 0)
(1.10885 -0.0169186 0)
(1.09884 -0.0150524 0)
(1.07853 -0.0119237 0)
(1.06411 -0.00833598 0)
(1.05381 -0.00421751 0)
(1.04654 0.000443791 0)
(1.04219 0.00560835 0)
(1.04174 0.0105103 0)
(1.04515 0.0144476 0)
(1.0521 0.0174518 0)
(1.06302 0.0197839 0)
(1.07938 0.0218166 0)
(1.09889 0.0234034 0)
(1.07137 0.022033 0)
(0.868614 0.0135401 0)
(0.491159 0.00397157 0)
(0.0975406 0.000231794 0)
(0.102842 -9.23291e-05 0)
(0.69545 -0.00474091 0)
(1.00046 -0.0117211 0)
(1.10863 -0.0147821 0)
(1.10406 -0.0131357 0)
(1.08365 -0.00999816 0)
(1.06892 -0.00639044 0)
(1.05838 -0.00228354 0)
(1.0508 0.00229589 0)
(1.04607 0.00730078 0)
(1.0452 0.0119463 0)
(1.04828 0.0155459 0)
(1.05502 0.0181987 0)
(1.06587 0.0202094 0)
(1.08236 0.0219872 0)
(1.09936 0.0231566 0)
(1.05872 0.0210717 0)
(0.839302 0.0124137 0)
(0.468382 0.00362763 0)
(0.0925271 0.000217133 0)
(0.100687 -5.90689e-05 0)
(0.678388 -0.00366068 0)
(0.98586 -0.00958818 0)
(1.10792 -0.0125876 0)
(1.10907 -0.0110506 0)
(1.08884 -0.00785226 0)
(1.07377 -0.00418658 0)
(1.06291 -6.39065e-05 0)
(1.05498 0.00448269 0)
(1.0498 0.00935414 0)
(1.04842 0.013742 0)
(1.05106 0.0170245 0)
(1.05754 0.0193329 0)
(1.06833 0.0209812 0)
(1.08486 0.0224891 0)
(1.09885 0.0232906 0)
(1.04454 0.020461 0)
(0.811248 0.0116588 0)
(0.447418 0.0034157 0)
(0.0878424 0.000210144 0)
(0.0992457 -2.66037e-05 0)
(0.664794 -0.00266254 0)
(0.973041 -0.00753252 0)
(1.10704 -0.0103105 0)
(1.11405 -0.00883404 0)
(1.09416 -0.00555702 0)
(1.0787 -0.00175671 0)
(1.06747 0.0024871 0)
(1.05909 0.00707059 0)
(1.05333 0.0118385 0)
(1.05135 0.0159746 0)
(1.0535 0.0189262 0)
(1.05966 0.0209041 0)
(1.07036 0.0222194 0)
(1.08693 0.0234502 0)
(1.09714 0.0237954 0)
(1.02891 0.0201832 0)
(0.784052 0.0112178 0)
(0.427592 0.00330972 0)
(0.0833253 0.000209382 0)
(0.0985033 7.39359e-06 0)
(0.654519 -0.001689 0)
(0.962319 -0.00547431 0)
(1.10628 -0.00784738 0)
(1.11904 -0.00633428 0)
(1.09969 -0.00292908 0)
(1.08383 0.00105595 0)
(1.07215 0.00544797 0)
(1.06322 0.0101155 0)
(1.05677 0.0148598 0)
(1.05404 0.018802 0)
(1.05558 0.021426 0)
(1.06137 0.0230099 0)
(1.07195 0.02391 0)
(1.08842 0.024843 0)
(1.09417 0.0246998 0)
(1.01184 0.0202566 0)
(0.757297 0.011059 0)
(0.408352 0.00329433 0)
(0.0788485 0.000214107 0)
(0.0984813 4.04724e-05 0)
(0.64754 -0.000696707 0)
(0.954 -0.00334905 0)
(1.10602 -0.00515773 0)
(1.12426 -0.00347634 0)
(1.10552 0.000146632 0)
(1.08919 0.00438237 0)
(1.07698 0.00899505 0)
(1.06739 0.0138102 0)
(1.06009 0.0185262 0)
(1.05648 0.0222268 0)
(1.05729 0.0244893 0)
(1.06262 0.0256833 0)
(1.07306 0.0261744 0)
(1.0892 0.0267435 0)
(1.08972 0.0260524 0)
(0.993233 0.0207121 0)
(0.7305 0.0111653 0)
(0.389199 0.0033622 0)
(0.0742927 0.000223887 0)
(0.0992167 7.91813e-05 0)
(0.643937 0.000334304 0)
(0.94839 -0.00107064 0)
(1.10659 -0.0021538 0)
(1.12989 -0.000225518 0)
(1.11177 0.00366682 0)
(1.09492 0.00825392 0)
(1.08208 0.0131975 0)
(1.07168 0.0182288 0)
(1.06335 0.022978 0)
(1.05866 0.026472 0)
(1.05861 0.0283465 0)
(1.0634 0.0290997 0)
(1.07364 0.0291594 0)
(1.08911 0.0292943 0)
(1.08369 0.027882 0)
(0.972865 0.0215686 0)
(0.703144 0.011526 0)
(0.369663 0.00350704 0)
(0.0695507 0.000238233 0)
(0.100918 0.000139996 0)
(0.644112 0.00149398 0)
(0.945873 0.00143775 0)
(1.1084 0.00129091 0)
(1.13608 0.00363095 0)
(1.11855 0.00790806 0)
(1.10113 0.0129166 0)
(1.0875 0.0182387 0)
(1.0761 0.0235542 0)
(1.06652 0.028382 0)
(1.06052 0.0316662 0)
(1.05943 0.0331078 0)
(1.06358 0.0333655 0)
(1.07359 0.0329335 0)
(1.08789 0.0325685 0)
(1.07577 0.0302809 0)
(0.950451 0.0228614 0)
(0.674678 0.0121399 0)
(0.349304 0.0037251 0)
(0.0645262 0.000256684 0)
(0.103632 0.000199768 0)
(0.648368 0.00288934 0)
(0.946885 0.00432393 0)
(1.11199 0.00528988 0)
(1.14312 0.00820017 0)
(1.12602 0.0130233 0)
(1.10791 0.0185697 0)
(1.09333 0.024381 0)
(1.0807 0.0300512 0)
(1.06959 0.0349477 0)
(1.06203 0.0379516 0)
(1.05973 0.038877 0)
(1.06309 0.0385924 0)
(1.07283 0.0376085 0)
(1.0854 0.0366793 0)
(1.06568 0.0333495 0)
(0.925559 0.02464 0)
(0.644501 0.0130113 0)
(0.327684 0.00401395 0)
(0.0591284 0.000278778 0)
(0.107643 0.000281083 0)
(0.657325 0.00456339 0)
(0.951848 0.00768702 0)
(1.11782 0.0100104 0)
(1.15128 0.0136501 0)
(1.1344 0.0191538 0)
(1.11544 0.0253967 0)
(1.09969 0.0318492 0)
(1.08552 0.0379483 0)
(1.07254 0.0429349 0)
(1.06313 0.0456022 0)
(1.05944 0.0459121 0)
(1.06185 0.0449741 0)
(1.07128 0.0433537 0)
(1.08163 0.0417958 0)
(1.05301 0.037162 0)
(0.897664 0.0269275 0)
(0.611963 0.014132 0)
(0.304378 0.00436456 0)
(0.0532798 0.000303154 0)
(0.113294 0.000390498 0)
(0.67166 0.00665384 0)
(0.961596 0.0118161 0)
(1.12645 0.0157169 0)
(1.16086 0.0203246 0)
(1.14392 0.026737 0)
(1.12393 0.0338181 0)
(1.10668 0.0409893 0)
(1.09061 0.0475647 0)
(1.07537 0.0526024 0)
(1.06374 0.0548048 0)
(1.05844 0.0543902 0)
(1.05979 0.0527087 0)
(1.06878 0.0503645 0)
(1.07636 0.048038 0)
(1.03728 0.0418386 0)
(0.866118 0.0297621 0)
(0.576379 0.0154936 0)
(0.27899 0.00476618 0)
(0.0469252 0.000328415 0)
(0.12109 0.000544825 0)
(0.692389 0.00938436 0)
(0.976934 0.0169692 0)
(1.13861 0.0227136 0)
(1.17237 0.0285884 0)
(1.15489 0.0362327 0)
(1.13348 0.0443194 0)
(1.11432 0.0523111 0)
(1.09587 0.0593561 0)
(1.07787 0.0642877 0)
(1.06369 0.0657913 0)
(1.05647 0.0644381 0)
(1.05669 0.0619164 0)
(1.06523 0.0587424 0)
(1.06928 0.0555062 0)
(1.01783 0.0474415 0)
(0.830136 0.0331405 0)
(0.537039 0.0170593 0)
(0.251183 0.00519537 0)
(0.0400412 0.00035193 0)
(0.131779 0.000767969 0)
(0.72082 0.0131428 0)
(0.99899 0.0236198 0)
(1.15503 0.0315354 0)
(1.18642 0.0389625 0)
(1.16763 0.0481631 0)
(1.1443 0.057476 0)
(1.12264 0.0663841 0)
(1.10117 0.0737947 0)
(1.07987 0.078396 0)
(1.06279 0.0789172 0)
(1.05348 0.0763477 0)
(1.05241 0.0727713 0)
(1.06036 0.0686137 0)
(1.05987 0.0642454 0)
(0.993864 0.0540191 0)
(0.788857 0.0370271 0)
(0.493277 0.0187589 0)
(0.22075 0.00561579 0)
(0.0326607 0.000370163 0)
(0.146616 0.00112115 0)
(0.758929 0.0185485 0)
(1.0294 0.0325465 0)
(1.17662 0.0431422 0)
(1.20369 0.0525531 0)
(1.18251 0.0636904 0)
(1.15648 0.0743446 0)
(1.13148 0.0840266 0)
(1.10632 0.0914782 0)
(1.0812 0.0952814 0)
(1.06084 0.0943704 0)
(1.04928 0.0903177 0)
(1.04689 0.0854675 0)
(1.05375 0.0802047 0)
(1.04747 0.0744687 0)
(0.96439 0.061548 0)
(0.741374 0.0413087 0)
(0.444593 0.0204674 0)
(0.187726 0.0059705 0)
(0.0248938 0.000378196 0)
(0.16775 0.00172984 0)
(0.809907 0.0267327 0)
(1.07073 0.0452649 0)
(1.20456 0.0593471 0)
(1.22495 0.0715589 0)
(1.1996 0.0844884 0)
(1.16971 0.0962512 0)
(1.14039 0.106193 0)
(1.11074 0.113004 0)
(1.08126 0.11526 0)
(1.05742 0.112282 0)
(1.04359 0.106332 0)
(1.03991 0.100035 0)
(1.04534 0.0937277 0)
(1.03134 0.0860487 0)
(0.928144 0.0698438 0)
(0.68689 0.0457578 0)
(0.390915 0.0219969 0)
(0.152582 0.00617964 0)
(0.0169712 0.000369205 0)
(0.198474 0.00306398 0)
(0.879372 0.040256 0)
(1.12657 0.0655022 0)
(1.2393 0.0836846 0)
(1.24989 0.0985873 0)
(1.21822 0.112767 0)
(1.18308 0.124753 0)
(1.14849 0.133888 0)
(1.11376 0.138958 0)
(1.07963 0.138659 0)
(1.05224 0.13285 0)
(1.03614 0.124546 0)
(1.03124 0.11652 0)
(1.03485 0.109025 0)
(1.01036 0.0989204 0)
(0.883656 0.0785513 0)
(0.625056 0.0499714 0)
(0.333283 0.023149 0)
(0.116736 0.00617545 0)
(0.00936847 0.000332841 0)
(0.240434 0.00916198 7.60292e-21)
(0.971265 0.0669839 6.54738e-21)
(1.19457 0.0997511 -2.3025e-21)
(1.27758 0.119901 0)
(1.27566 0.137231 -6.04805e-35)
(1.23632 0.150873 8.89221e-22)
(1.19522 0.161341 -1.63551e-21)
(1.15487 0.168249 0)
(1.11469 0.170524 3.43019e-35)
(1.07556 0.166942 -2.09093e-21)
(1.04432 0.157856 0)
(1.02573 0.14698 -2.51246e-21)
(1.01946 0.137241 -7.43239e-21)
(1.02089 0.128754 -3.52206e-21)
(0.981537 0.115962 -1.06418e-21)
(0.826026 0.0896963 -6.33292e-22)
(0.550337 0.0547628 0)
(0.26981 0.0243397 4.44489e-22)
(0.0806402 0.00633751 5.26505e-22)
(0.00228548 0.000304519 9.59474e-21)
(0.269566 0.0240798 5.08732e-21)
(1.04731 0.109176 1.07101e-22)
(1.25062 0.148556 5.92485e-22)
(1.31176 0.168634 0)
(1.29816 0.186258 -3.00644e-21)
(1.25171 0.197768 -3.45547e-21)
(1.20462 0.205943 -1.63442e-21)
(1.15832 0.21037 -5.92749e-21)
(1.11235 0.209855 0)
(1.06766 0.202991 8.89283e-21)
(1.03189 0.190631 8.87567e-21)
(1.0103 0.177203 2.6515e-21)
(1.00181 0.165417 9.72067e-21)
(0.996645 0.154363 1.37124e-20)
(0.937498 0.137189 0)
(0.749751 0.103364 1.9426e-20)
(0.463436 0.0610344 2.79249e-20)
(0.203171 0.0257646 3.10942e-20)
(0.0455744 0.00576039 -3.56818e-20)
(-0.0044645 -0.000279555 -6.78948e-22)
(0.271079 0.0406254 0)
(1.0957 0.16381 7.63495e-22)
(1.28844 0.208273 0)
(1.33831 0.228135 -3.60116e-21)
(1.31567 0.243122 0)
(1.26324 0.250788 -6.66947e-21)
(1.21054 0.255244 3.31618e-21)
(1.15863 0.256098 -1.18273e-20)
(1.10716 0.251991 -3.16161e-22)
(1.05718 0.241381 4.58936e-21)
(1.01705 0.225519 1.96153e-20)
(0.992435 0.209402 -5.32984e-23)
(0.981387 0.195518 -7.08637e-21)
(0.970189 0.181785 -1.2983e-20)
(0.897728 0.15978 1.54101e-20)
(0.69647 0.117838 -2.73543e-20)
(0.415173 0.0676921 -3.6275e-21)
(0.172629 0.0275527 0)
(0.0310084 0.00500896 -1.98491e-24)
(-0.00733295 -0.000990679 0)
(0.264887 0.0545898 6.98708e-21)
(1.12198 0.222156 -3.84805e-21)
(1.31185 0.27257 -3.54097e-21)
(1.3558 0.292965 1.6212e-21)
(1.32684 0.304337 -2.76868e-21)
(1.2699 0.307525 1.39341e-20)
(1.21256 0.307608 6.9023e-21)
(1.15573 0.304272 0)
(1.0993 0.296068 -2.27615e-20)
(1.04445 0.281284 0)
(1.00019 0.261522 -1.02917e-20)
(0.972671 0.242528 -1.28206e-20)
(0.959244 0.226621 -7.74699e-21)
(0.94334 0.210282 -9.46119e-21)
(0.864188 0.183439 0)
(0.662006 0.134561 0)
(0.392021 0.077317 -2.37372e-20)
(0.162999 0.0315719 4.70489e-21)
(0.0272478 0.00503493 -2.75504e-21)
(-0.0085304 -0.00166601 -3.26353e-21)
(0.257573 0.066929 -4.11591e-22)
(1.13375 0.280503 0)
(1.32476 0.337933 6.03909e-21)
(1.3652 0.359277 4.29071e-21)
(1.33175 0.367001 6.61946e-21)
(1.27149 0.36574 0)
(1.2105 0.361383 6.63713e-21)
(1.14966 0.353708 1.3055e-20)
(1.08897 0.341179 1.15973e-20)
(1.02971 0.321964 2.17814e-20)
(0.981625 0.298313 0)
(0.951316 0.276528 -2.7726e-20)
(0.93553 0.258508 -1.67901e-20)
(0.915973 0.239447 -9.95311e-21)
(0.835157 0.208214 6.14524e-20)
(0.639332 0.153496 7.35133e-21)
(0.38355 0.0901318 3.46134e-20)
(0.16577 0.0378765 -1.64032e-19)
(0.0308288 0.00652168 9.7234e-20)
(-0.00804575 -0.00201821 -1.18684e-19)
(0.25065 0.0780719 2.81692e-21)
(1.13636 0.336992 -1.4469e-23)
(1.33013 0.40253 -3.51239e-22)
(1.36815 0.425166 -3.39278e-21)
(1.3314 0.429416 -5.03386e-21)
(1.26863 0.423901 3.62368e-22)
(1.20479 0.415278 -7.22223e-21)
(1.14064 0.403376 1.34421e-20)
(1.07627 0.386557 -2.50197e-20)
(1.01309 0.36299 0)
(0.961533 0.335635 -1.25131e-20)
(0.92853 0.311046 -3.25227e-22)
(0.910246 0.290644 -1.84395e-20)
(0.888004 0.269182 0)
(0.808342 0.234085 -1.33569e-20)
(0.622253 0.174476 -3.18932e-20)
(0.382305 0.105176 8.54084e-20)
(0.17376 0.0465928 -8.41579e-20)
(0.0388266 0.00983183 1.19754e-19)
(-0.00612115 -0.00187563 -1.26023e-19)
(0.244912 0.0884217 -1.04365e-22)
(1.13335 0.390968 9.15827e-22)
(1.33007 0.46534 6.117e-22)
(1.36607 0.489478 9.06777e-22)
(1.32683 0.49058 -2.45398e-21)
(1.26218 0.481093 0)
(1.19601 0.468464 -6.49708e-21)
(1.12906 0.452541 -1.4033e-20)
(1.0615 0.431604 -1.29556e-20)
(0.994881 0.403875 0)
(0.940157 0.372722 -1.2958e-20)
(0.904542 0.345086 -1.62134e-20)
(0.884014 0.322492 2.00601e-20)
(0.85974 0.299056 -1.22467e-20)
(0.78194 0.260492 -5.85756e-20)
(0.606929 0.196585 3.5017e-20)
(0.382663 0.121473 1.0476e-20)
(0.183326 0.0568516 0)
(0.0483252 0.0145797 -1.16297e-19)
(-0.00355243 -0.00131153 -4.32429e-21)
(0.240475 0.0983079 1.07623e-21)
(1.12698 0.442273 -1.55068e-21)
(1.32608 0.525809 -6.01511e-22)
(1.36017 0.551527 3.91408e-21)
(1.31899 0.549849 -8.18489e-21)
(1.2529 0.53674 1.19706e-20)
(1.18485 0.520403 1.40364e-20)
(1.1155 0.500705 -2.24217e-20)
(1.04514 0.475878 8.18342e-21)
(0.975407 0.444122 -5.37358e-20)
(0.917672 0.409061 -1.47622e-20)
(0.879722 0.37855 0)
(0.857353 0.354223 2.1811e-20)
(0.831403 0.328798 2.62595e-20)
(0.75529 0.287131 3.15703e-20)
(0.591114 0.219247 -3.81522e-20)
(0.381076 0.13864 -1.13332e-20)
(0.190934 0.0683538 1.33094e-20)
(0.0571304 0.0201783 0)
(-0.000854297 -0.000428329 -9.41701e-21)
(0.237205 0.107827 -1.62639e-20)
(1.11887 0.490957 9.00896e-21)
(1.31947 0.58407 9.95898e-22)
(1.35145 0.610956 1.72257e-21)
(1.30869 0.606815 -3.14169e-21)
(1.24151 0.590433 -8.21675e-22)
(1.17189 0.570723 -1.54388e-20)
(1.10048 0.547548 -8.14173e-21)
(1.0276 0.519075 -2.2591e-20)
(0.954952 0.483419 5.9793e-23)
(0.894402 0.444662 -4.61285e-20)
(0.854415 0.411712 3.93968e-20)
(0.830381 0.385671 -2.40529e-20)
(0.802769 0.357996 2.90621e-20)
(0.728214 0.313101 0)
(0.573714 0.241229 -2.07563e-20)
(0.376279 0.155622 -9.75933e-24)
(0.195116 0.0797571 -5.82316e-20)
(0.0636477 0.0258413 -8.57928e-21)
(0.00144168 0.000545452 0)
(0.235 0.117192 0)
(1.10993 0.537228 1.03864e-20)
(1.31091 0.639761 4.47111e-21)
(1.34072 0.667575 -8.78558e-22)
(1.29661 0.66124 -4.68723e-21)
(1.22856 0.641928 0)
(1.15764 0.61918 -6.67098e-21)
(1.08442 0.592851 -2.19505e-22)
(1.00926 0.561032 4.84536e-20)
(0.93385 0.521664 -7.34579e-21)
(0.870696 0.479616 -3.33693e-20)
(0.828835 0.444327 2.04303e-20)
(0.80313 0.416101 -4.41742e-22)
(0.774016 0.385906 3.08895e-20)
(0.700699 0.337732 1.91975e-20)
(0.55428 0.261493 -4.48603e-20)
(0.368041 0.171266 5.32928e-20)
(0.194961 0.0900238 1.58114e-20)
(0.0670109 0.0307401 6.54209e-20)
(0.00301661 0.00139033 -1.76949e-19)
(0.233759 0.126539 -5.38386e-21)
(1.10082 0.581263 7.21841e-21)
(1.30104 0.692689 -4.89053e-21)
(1.32859 0.72133 -7.25817e-22)
(1.28329 0.713005 0)
(1.21455 0.69108 -4.72039e-21)
(1.14254 0.665633 2.27602e-20)
(1.06772 0.636491 1.76954e-20)
(0.990453 0.601645 0)
(0.912396 0.558865 -1.06341e-19)
(0.846769 0.513761 9.03981e-20)
(0.803053 0.475791 0)
(0.7757 0.444898 2.81743e-20)
(0.74531 0.412229 -4.43557e-22)
(0.672705 0.360438 -6.13376e-20)
(0.53286 0.279368 2.40578e-20)
(0.356597 0.184821 0)
(0.190961 0.0982502 8.53914e-20)
(0.067085 0.0342588 0)
(0.00380015 0.00195562 -8.38235e-20)
(0.2333 0.135889 6.45348e-21)
(1.09188 0.623217 9.36998e-21)
(1.29028 0.742873 -4.87721e-21)
(1.31555 0.772227 0)
(1.26918 0.762086 -2.84398e-21)
(1.19989 0.737839 0)
(1.12694 0.710015 -2.18452e-20)
(1.05069 0.678403 -7.94614e-21)
(0.97144 0.640858 8.42901e-21)
(0.890849 0.595012 -5.26302e-20)
(0.822751 0.546848 9.29665e-21)
(0.777111 0.505749 0)
(0.748273 0.472141 -6.01532e-20)
(0.716664 0.437073 4.41396e-22)
(0.643975 0.381027 0)
(0.509615 0.294861 3.16052e-22)
(0.341985 0.195634 7.78874e-20)
(0.18339 0.103962 -7.38263e-20)
(0.0645445 0.0360605 2.18554e-20)
(0.00382847 0.00214822 0)
(0.233273 0.145133 0)
(1.08333 0.663121 1.13164e-20)
(1.27901 0.790402 7.12936e-21)
(1.30199 0.820333 -5.01078e-22)
(1.25465 0.808506 -6.52504e-23)
(1.1849 0.782203 -1.04458e-20)
(1.11115 0.752314 8.33324e-21)
(1.03361 0.718559 -9.60694e-21)
(0.952476 0.678639 3.79215e-20)
(0.869398 0.63006 -8.40671e-20)
(0.798711 0.578731 -7.62824e-22)
(0.751073 0.534321 -2.61754e-20)
(0.720921 0.498241 9.77249e-20)
(0.687911 0.46047 -5.17326e-22)
(0.614466 0.399176 -4.76568e-20)
(0.484399 0.307592 -8.52239e-20)
(0.324609 0.203489 0)
(0.172651 0.106967 0)
(0.0598661 0.0363345 2.35889e-20)
(0.00336014 0.00204372 -1.40104e-20)
(0.233804 0.154378 9.09788e-21)
(1.07528 0.700979 -2.57808e-20)
(1.2675 0.835364 -7.69131e-21)
(1.28817 0.865701 0)
(1.23996 0.852317 -3.17478e-22)
(1.16985 0.824206 -8.40321e-21)
(1.09542 0.792545 1.93625e-20)
(1.0167 0.756952 3.70595e-20)
(0.93377 0.714979 4.90204e-20)
(0.848205 0.663967 -6.84897e-20)
(0.774744 0.609455 -7.77345e-20)
(0.725005 0.5619 7.00205e-20)
(0.693575 0.523484 0)
(0.658785 0.482028 -2.16101e-20)
(0.58424 0.414454 -5.15978e-20)
(0.457904 0.3173 -6.12504e-20)
(0.304809 0.208185 -7.26846e-20)
(0.159215 0.107223 2.15357e-20)
(0.0532897 0.0350435 -1.27067e-20)
(0.00253582 0.00167037 5.56786e-23)
(0.234618 0.16343 0)
(1.06781 0.737209 0)
(1.25592 0.877837 5.29378e-22)
(1.27433 0.908411 0)
(1.22533 0.893609 -2.78568e-21)
(1.15494 0.863914 4.69196e-21)
(1.07994 0.830739 0)
(1.00014 0.793584 4.25176e-21)
(0.9155 0.749871 8.13802e-20)
(0.827424 0.696719 -1.5756e-19)
(0.750988 0.639211 0)
(0.698982 0.588878 -4.50716e-20)
(0.666043 0.547804 -6.13213e-22)
(0.629029 0.501244 -4.86976e-22)
(0.553448 0.426706 5.51471e-20)
(0.430514 0.323995 -4.62194e-23)
(0.282912 0.209586 -1.56532e-19)
(0.14375 0.104712 4.63277e-20)
(0.0456356 0.0323402 1.37415e-20)
(0.00149741 0.00109432 0)
(0.235465 0.172356 -3.66528e-20)
(1.06066 0.771783 -1.74608e-20)
(1.24436 0.91788 -2.27945e-20)
(1.26062 0.948561 2.27663e-20)
(1.21094 0.932454 -8.24416e-21)
(1.14034 0.901393 0)
(1.06485 0.86694 1.1035e-20)
(0.984078 0.828468 -9.58257e-21)
(0.897812 0.78332 7.85546e-22)
(0.807204 0.728337 1.16626e-20)
(0.727604 0.668231 1.00553e-19)
(0.673063 0.615485 -1.57886e-20)
(0.638112 0.570965 -6.02903e-20)
(0.598485 0.517796 -2.52109e-20)
(0.522281 0.435934 3.00057e-20)
(0.402592 0.327487 -8.5772e-24)
(0.259751 0.207539 4.21789e-20)
(0.127304 0.0996793 -9.96877e-20)
(0.0376572 0.0286146 1.1826e-19)
(0.000403909 0.000391816 1.74617e-20)
(0.236092 0.181051 1.39642e-20)
(1.05387 0.804788 -9.87953e-21)
(1.23295 0.955603 1.29065e-21)
(1.24718 0.986272 1.46671e-20)
(1.1969 0.968966 3.16115e-21)
(1.12616 0.936719 -7.05154e-21)
(1.05028 0.901193 2.83173e-21)
(0.968625 0.861619 -3.9632e-20)
(0.880829 0.815318 -8.89841e-20)
(0.787681 0.758844 -9.36065e-20)
(0.704768 0.6967 0)
(0.647303 0.641773 -6.95119e-20)
(0.609637 0.592788 8.69968e-20)
(0.567039 0.531677 0)
(0.490718 0.442063 -6.42621e-20)
(0.374375 0.327237 3.83965e-20)
(0.236408 0.201832 -4.53443e-20)
(0.111222 0.0925526 -5.36478e-20)
(0.0301371 0.0243385 -9.52634e-20)
(-0.000604767 -0.00033219 -7.52132e-20)
(0.237057 0.189597 -1.58666e-20)
(1.04727 0.836198 1.05836e-20)
(1.22176 0.991066 2.41446e-20)
(1.23409 1.02163 2.14687e-20)
(1.18331 1.00324 -5.97449e-21)
(1.11249 0.969977 -2.40094e-21)
(1.0363 0.933543 9.69912e-21)
(0.953865 0.893074 -4.01838e-20)
(0.864634 0.845884 -5.25058e-20)
(0.768987 0.788283 9.7613e-20)
(0.682633 0.724723 2.20702e-19)
(0.621767 0.667698 0)
(0.58057 0.613292 0)
(0.53452 0.543212 -2.9063e-20)
(0.458354 0.444857 0)
(0.345864 0.322274 8.2603e-20)
(0.214139 0.191771 9.7548e-20)
(0.0974727 0.0834471 0)
(0.0242924 0.0199796 0)
(-0.00140514 -0.000982962 8.08352e-20)
(0.237654 0.197664 1.81072e-20)
(1.0409 0.866001 1.43581e-20)
(1.21086 1.02438 1.76114e-20)
(1.22141 1.05477 -2.08025e-20)
(1.17022 1.03538 -7.93238e-21)
(1.09939 1.00124 4.96389e-22)
(1.02298 0.964044 -1.29313e-20)
(0.93986 0.922856 -2.47038e-23)
(0.849304 0.875022 -1.02399e-21)
(0.75123 0.816678 -1.03852e-21)
(0.661355 0.752323 1.13651e-19)
(0.596559 0.693186 0)
(0.550987 0.632718 8.82009e-20)
(0.500729 0.552992 6.1997e-20)
(0.424327 0.444252 1.50176e-19)
(0.316382 0.311291 4.45025e-20)
(0.194202 0.175021 -5.25417e-20)
(0.0901185 0.0698897 -3.09266e-20)
(0.025165 0.0144502 0)
(-0.000762427 -0.00129186 8.68624e-20)
(0.23858 0.205741 -4.11141e-20)
(1.03473 0.894348 0)
(1.20024 1.05559 2.08414e-20)
(1.20916 1.08577 -1.77406e-20)
(1.15769 1.06549 1.08773e-20)
(1.08689 1.03059 2.964e-21)
(1.01035 0.992746 2.31361e-20)
(0.926646 0.950999 -3.46714e-21)
(0.834881 0.90274 0)
(0.734498 0.844015 -1.07105e-19)
(0.641072 0.779457 -2.46541e-19)
(0.571822 0.718207 1.02221e-20)
(0.521085 0.651428 1.21664e-19)
(0.465532 0.561798 0)
(0.387449 0.440857 1.01425e-19)
(0.28361 0.293375 0)
(0.174862 0.146354 0)
(0.0941905 0.0378687 -3.34787e-20)
(0.0568812 -0.00640421 0)
(0.0273114 0.00711875 2.32801e-20)
(0.239048 0.213225 -4.60774e-20)
(1.02872 0.921425 0)
(1.18991 1.0849 3.48293e-20)
(1.1973 1.11487 0)
(1.14568 1.09383 -6.65597e-21)
(1.07493 1.05832 0)
(0.998348 1.01996 8.27254e-22)
(0.914131 0.977844 5.41654e-21)
(0.821246 0.929412 6.56089e-21)
(0.718629 0.870691 -1.17172e-19)
(0.621607 0.806518 7.34716e-21)
(0.547312 0.743328 8.2616e-20)
(0.490537 0.670262 1.18804e-19)
(0.428109 0.570549 1.60972e-20)
(0.345904 0.436349 7.95689e-20)
(0.242866 0.269696 0)
(0.145363 0.102398 1.10946e-19)
(0.0805129 -0.00818241 -6.52548e-20)
(0.0330022 0.0588448 7.61144e-20)
(-0.0380967 0.454011 -9.04249e-20)
(0.239446 0.220534 3.82675e-20)
(1.02267 0.947128 5.78375e-20)
(1.17979 1.11263 0)
(1.18569 1.14252 1.07599e-21)
(1.13399 1.12097 1.96874e-20)
(1.06325 1.08511 -1.37011e-20)
(0.986661 1.04649 6.83838e-21)
(0.901908 1.00434 0)
(0.807872 0.956151 4.25627e-20)
(0.702952 0.898038 -6.0113e-21)
(0.602038 0.834962 0)
(0.521772 0.770234 0)
(0.457547 0.690835 1.06224e-19)
(0.386193 0.580092 -4.97822e-20)
(0.296671 0.432828 -8.05213e-20)
(0.190107 0.243937 0)
(0.0823252 0.108901 5.64236e-20)
(0.007643 0.466133 -6.56969e-20)
(0.0322669 1.92149 -3.68654e-20)
(0.0589611 2.82213 -4.5167e-20)
(0.239448 0.227253 -2.89204e-20)
(1.01662 0.971629 -7.4556e-20)
(1.16989 1.13878 2.08714e-20)
(1.17435 1.16858 1.74208e-20)
(1.1227 1.14673 0)
(1.05193 1.11069 -1.19595e-20)
(0.975497 1.07202 7.54342e-21)
(0.890167 1.03007 -2.50855e-21)
(0.795037 0.98244 6.36963e-21)
(0.687853 0.925441 1.10775e-19)
(0.582965 0.864008 1.23813e-19)
(0.496179 0.798634 9.20083e-20)
(0.423091 0.713278 1.06709e-19)
(0.341393 0.589541 -1.16685e-19)
(0.246276 0.433532 -1.21447e-19)
(0.123823 0.287967 0)
(0.0425464 0.871814 0)
(0.0903379 2.57658 3.12081e-20)
(0.0927075 3.20934 0)
(0.0936456 3.38863 8.13207e-20)
(0.242235 0.233476 0)
(1.01083 0.995288 0)
(1.15993 1.16321 0)
(1.16304 1.19288 5.25387e-21)
(1.11149 1.17087 1.82725e-20)
(1.04078 1.1349 -1.16413e-20)
(0.964782 1.09645 4.11809e-21)
(0.878841 1.05489 -2.38056e-21)
(0.782677 1.00811 5.18146e-20)
(0.673325 0.952732 -1.93627e-21)
(0.564456 0.893361 2.43374e-19)
(0.470943 0.828613 -1.06401e-20)
(0.387216 0.738428 1.28822e-20)
(0.295946 0.596887 1.68854e-20)
(0.185443 0.451655 -3.67213e-22)
(0.0968802 1.01077 3.46332e-22)
(0.128884 2.75702 -1.63721e-19)
(0.133612 3.30096 -6.20601e-20)
(0.12318 3.42462 3.28357e-20)
(0.111912 3.44458 -3.69542e-20)
(0.164431 0.178302 1.77465e-20)
(1.00103 1.02081 0)
(1.1498 1.18618 -4.3018e-20)
(1.15213 1.21576 -4.76212e-20)
(1.10082 1.19388 4.25838e-20)
(1.03045 1.15823 1.32695e-20)
(0.954389 1.11971 -3.22811e-21)
(0.868006 1.0788 2.36592e-20)
(0.7709 1.03319 -4.1864e-20)
(0.659568 0.98001 0)
(0.546758 0.923016 1.19099e-19)
(0.446643 0.859987 -7.46671e-20)
(0.350421 0.769505 0)
(0.24371 0.606569 1.61737e-20)
(0.138545 0.798278 3.8965e-20)
(0.143188 2.55736 -4.45823e-20)
(0.192162 3.33094 5.08357e-20)
(0.173717 3.43717 2.73601e-20)
(0.143774 3.45561 3.13632e-20)
(0.124004 3.46401 4.96595e-20)
(0.277935 0.272819 -3.42599e-20)
(0.984896 1.03225 0)
(1.13226 1.21266 4.64861e-20)
(1.13797 1.24856 5.26322e-20)
(1.08396 1.22786 -4.75867e-20)
(1.01309 1.19266 -1.84845e-20)
(0.935876 1.15564 -1.9598e-21)
(0.848958 1.11605 1.88013e-21)
(0.750491 1.07274 3.82937e-20)
(0.636409 1.02392 9.29894e-20)
(0.518275 0.972319 6.58891e-21)
(0.40707 0.912657 6.56189e-20)
(0.284775 0.814814 1.19768e-20)
(0.207709 0.972518 -1.54146e-20)
(0.213524 2.43028 -3.51953e-20)
(0.263998 3.33769 3.46344e-20)
(0.24696 3.46528 -3.79678e-20)
(0.212409 3.48307 -2.20313e-20)
(0.178335 3.50686 -1.95091e-20)
(0.133331 3.50083 -2.88585e-21)
(0.268496 0.271954 0)
(0.982648 1.05576 1.33866e-20)
(1.1241 1.23667 -9.54175e-21)
(1.12748 1.27239 -6.22304e-21)
(1.0733 1.25142 -3.27625e-20)
(1.00251 1.21644 1.8944e-20)
(0.924998 1.17965 3.01353e-21)
(0.837874 1.14094 1.58521e-21)
(0.738862 1.09918 -3.89577e-20)
(0.623488 1.0534 -2.90276e-21)
(0.502411 1.00572 -2.11444e-19)
(0.385668 0.948527 9.35984e-21)
(0.274186 0.889924 -1.12599e-20)
(0.242136 1.56571 -1.40674e-20)
(0.303104 3.14639 3.65057e-21)
(0.317053 3.469 3.5621e-22)
(0.27517 3.5153 5.43614e-20)
(0.241022 3.53708 2.71178e-20)
(0.195241 3.55616 -7.81678e-21)
(0.145438 3.55186 -1.3642e-20)
(0.254464 0.270135 3.4237e-20)
(0.979528 1.08194 9.08344e-20)
(1.11558 1.26281 -2.73264e-20)
(1.11661 1.2978 -2.35183e-20)
(1.06223 1.27647 0)
(0.99158 1.24153 3.29389e-20)
(0.914027 1.20501 7.55376e-21)
(0.826952 1.16712 1.26773e-21)
(0.7277 1.127 -4.37221e-21)
(0.61154 1.08443 -8.11085e-20)
(0.488367 1.04095 -9.61308e-20)
(0.366948 0.986537 -7.59384e-20)
(0.274548 1.03394 -8.37415e-20)
(0.305356 2.31295 8.69428e-20)
(0.381698 3.39747 7.32542e-20)
(0.354958 3.52678 0)
(0.306655 3.56161 0)
(0.269862 3.59391 -5.88253e-21)
(0.225528 3.6385 0)
(0.156477 3.62205 -8.48871e-21)
(0.244538 0.272225 -5.11239e-20)
(0.974465 1.10907 -7.6965e-20)
(1.10572 1.29027 0)
(1.10454 1.32413 1.30534e-21)
(1.04998 1.30222 -3.50465e-20)
(0.979604 1.26722 5.26995e-20)
(0.902331 1.23098 6.7585e-21)
(0.815531 1.19384 2.60384e-22)
(0.716291 1.15531 -2.50992e-20)
(0.599751 1.11587 3.87882e-21)
(0.475322 1.07655 0)
(0.351291 1.03041 0)
(0.299504 1.32165 -7.49798e-20)
(0.381505 2.97698 3.05097e-20)
(0.44555 3.4981 3.81615e-20)
(0.393182 3.5616 0)
(0.351311 3.61662 -4.72204e-22)