/*--------------------------------*- C++ -*----------------------------------*\
  =========                 |
  \\      /  F ield         | OpenFOAM: The Open Source CFD Toolbox
   \\    /   O peration     | Website:  https://openfoam.org
    \\  /    A nd           | Version:  6
     \\/     M anipulation  |
\*---------------------------------------------------------------------------*/
FoamFile
{
    version     2.0;
    format      ascii;
    class       surfaceScalarField;
    location    "21.3";
    object      phi;
}
// * * * * * * * * * * * * * * * * * * * * * * * * * * * * * * * * * * * * * //

dimensions      [0 3 -1 0 0 0 0];

internalField   nonuniform List<scalar> 
17370
(
-0.0899997
0.0898469
0.289164
-0.0714589
0.0537469
0.364487
-0.0381114
0.0276809
0.426599
-0.019629
0.0145971
0.504284
-0.0107542
0.00825733
0.601899
-0.0062439
0.00485434
0.720447
-0.00368252
0.00284398
0.863745
-0.00211393
0.00157401
1.03599
-0.00108367
0.000697821
1.24289
-0.000308898
-5.681e-05
1.49156
0.000421118
-0.00081061
1.49158
0.00119396
-0.001676
1.24317
0.00220788
-0.00293193
1.03636
0.00376596
-0.00493178
0.864072
0.00631466
-0.00831998
0.721063
0.01081
-0.0146466
0.603051
0.0196735
-0.02772
0.507486
0.0381454
-0.0537752
0.431798
0.0714817
-0.0898621
0.365156
0.0900088
0.199002
-0.128135
0.0882308
0.039904
-0.364596
0.35338
-0.0746608
0.0858769
-0.446471
0.454319
-0.0843686
0.0765203
-0.52118
0.529907
-0.0684154
0.0596885
-0.612766
0.621567
-0.05148
0.0426788
-0.726862
0.734111
-0.0352106
0.0279617
-0.867472
0.872522
-0.0224022
0.0173518
-1.03848
1.04186
-0.0136026
0.0102252
-1.24462
1.247
-0.00767577
0.00529802
-1.49265
1.49461
-0.00336802
0.00140458
-1.49244
1.49419
0.000313513
-0.00205742
-1.244
1.24589
0.00398897
-0.00588789
-1.03752
1.04003
0.00823193
-0.0107442
-0.866112
0.869818
0.0140747
-0.0177809
-0.724387
0.729916
0.0227894
-0.0283181
-0.60869
0.616129
0.0355371
-0.042976
-0.514903
0.523081
0.0517435
-0.0599218
-0.439864
0.447945
0.0686171
-0.0766978
-0.375306
0.376781
0.0845186
-0.0859941
-0.257356
0.222551
0.0747402
-0.0399346
-0.0685239
0.0587021
0.00982177
-0.0517841
0.0583687
-0.374125
0.367541
-0.0574665
0.0537354
-0.453595
0.457326
-0.0486788
0.0447556
-0.527948
0.531871
-0.040931
0.0372753
-0.621545
0.625201
-0.0331191
0.0289986
-0.735276
0.739397
-0.0244191
0.0202877
-0.874229
0.87836
-0.0160105
0.0123724
-1.04339
1.04703
-0.00871755
0.00563468
-1.24852
1.2516
-0.00241979
-0.00057586
-1.49664
1.49964
0.00355863
-0.00673543
-1.49722
1.5004
0.00977277
-0.0133666
-1.25004
1.25363
0.0169421
-0.0211527
-1.04588
1.05009
0.0252236
-0.0297368
-0.877738
0.882251
0.0337932
-0.0378775
-0.739953
0.744037
0.0414719
-0.0452358
-0.626852
0.630616
0.0491095
-0.0541197
-0.534882
0.539892
0.0578018
-0.0586446
-0.457545
0.458388
0.0519921
-0.0318813
-0.335868
0.315757
0.00985592
-0.0684288
0.0585729
-0.0529634
0.0489867
0.00397671
-0.0330548
0.0435584
-0.358132
0.347629
-0.0472132
0.0465476
-0.459248
0.459913
-0.0434493
0.040064
-0.535721
0.539107
-0.0362768
0.032999
-0.628479
0.631757
-0.0296335
0.0266727
-0.742617
0.745578
-0.0234806
0.0204329
-0.881914
0.884962
-0.0169913
0.0137195
-1.05058
1.05385
-0.010072
0.00666463
-1.25494
1.25834
-0.00282335
-0.000881568
-1.50306
1.50676
0.00456307
-0.00834136
-1.50396
1.50774
0.0116777
-0.0152286
-1.25733
1.26088
0.0184056
-0.0217361
-1.05393
1.05726
0.0246782
-0.0277548
-0.885828
0.888904
0.0306168
-0.0338855
-0.747338
0.750607
0.0370808
-0.0407859
-0.634403
0.638108
0.0441043
-0.0471286
-0.544212
0.547237
0.0477182
-0.0439578
-0.456745
0.452984
0.0333301
-0.0160495
-0.296532
0.279251
0.00401795
-0.052797
0.048779
-0.0459246
0.0434551
0.00246948
-0.0226023
0.0329033
-0.336979
0.326678
-0.0386899
0.039711
-0.459628
0.458607
-0.0385331
0.0362559
-0.541877
0.544154
-0.033589
0.0309927
-0.634785
0.637381
-0.0279545
0.0251165
-0.748523
0.751361
-0.021969
0.0191104
-0.887797
0.890655
-0.0159491
0.0129771
-1.05689
1.05986
-0.00958684
0.00630773
-1.26172
1.265
-0.00251687
-0.00117456
-1.51054
1.51423
0.00484882
-0.00857861
-1.51157
1.51529
0.0117617
-0.0150276
-1.26425
1.26752
0.017875
-0.0208917
-1.06029
1.06331
0.0236166
-0.0266218
-0.891905
0.89491
0.0293361
-0.0322471
-0.753818
0.756729
0.0347338
-0.0372863
-0.641288
0.643841
0.0394667
-0.0405236
-0.549168
0.550225
0.0393818
-0.0334275
-0.447842
0.441888
0.0229487
-0.00999639
-0.264231
0.251279
0.00252022
-0.0456704
0.0431502
-0.0414121
0.0396855
0.00172654
-0.016397
0.0254767
-0.316937
0.307857
-0.0319565
0.0340604
-0.456975
0.454871
-0.0336796
0.0320989
-0.546004
0.547584
-0.0300342
0.0280211
-0.639612
0.641625
-0.0256555
0.0233214
-0.753986
0.75632
-0.0205417
0.0178549
-0.893514
0.896201
-0.0147755
0.0118926
-1.06283
1.06571
-0.0086187
0.00552149
-1.26817
1.27127
-0.00193783
-0.0015663
-1.51781
1.52131
0.00503015
-0.00850937
-1.51887
1.52235
0.0114748
-0.0145797
-1.27071
1.27382
0.0172908
-0.0201744
-1.06634
1.06922
0.0226862
-0.0252828
-0.8978
0.900396
0.0274588
-0.0296526
-0.759266
0.761459
0.0315217
-0.0334447
-0.64597
0.647893
0.0348994
-0.0351284
-0.550749
0.550978
0.0328513
-0.0261356
-0.435447
0.428732
0.0168222
-0.00707218
-0.240069
0.230319
0.00178799
-0.0410516
0.0392636
-0.0382152
0.036954
0.00126123
-0.0122148
0.0198551
-0.299503
0.291863
-0.0263404
0.0291102
-0.452411
0.449641
-0.0292257
0.0280581
-0.548984
0.550151
-0.0260842
0.0242589
-0.643508
0.645333
-0.0222475
0.0203463
-0.758374
0.760275
-0.0181392
0.0159615
-0.898601
0.900779
-0.0133622
0.0107905
-1.06844
1.07101
-0.00776289
0.00481349
-1.27431
1.27726
-0.00135216
-0.00203059
-1.52478
1.52817
0.00537138
-0.00870764
-1.52579
1.52913
0.0114947
-0.0143107
-1.2768
1.27961
0.0166694
-0.0190228
-1.07184
1.07419
0.0209732
-0.0229324
-0.902613
0.904572
0.0246243
-0.0264218
-0.763392
0.765189
0.0280626
-0.0298526
-0.649732
0.651522
0.0308237
-0.0304853
-0.550949
0.550611
0.0274654
-0.0206621
-0.421921
0.415118
0.012729
-0.00526982
-0.221816
0.214357
0.00133553
-0.0377256
0.0363901
-0.0358635
0.0349309
0.000932605
-0.0091076
0.0153356
-0.284918
0.27869
-0.0214156
0.0246178
-0.446604
0.443402
-0.0254027
0.0247991
-0.551021
0.551625
-0.0231859
0.0215329
-0.647107
0.64876
-0.0196447
0.0178395
-0.762137
0.763942
-0.015771
0.0137564
-0.902862
0.904877
-0.0113914
0.00905715
-1.07346
1.07579
-0.00631637
0.00363191
-1.28007
1.28276
-0.000504826
-0.0025406
-1.53137
1.53441
0.00554176
-0.00852041
-1.53228
1.53526
0.011001
-0.0134628
-1.28226
1.28472
0.0155132
-0.0175637
-1.07639
1.07844
0.0192991
-0.0210701
-0.906427
0.908198
0.0226001
-0.0242189
-0.766917
0.768536
0.0256441
-0.0270175
-0.653161
0.654534
0.0273876
-0.0263116
-0.549899
0.548823
0.0227874
-0.0163094
-0.408412
0.401934
0.00972687
-0.0039931
-0.207796
0.202062
0.00102302
-0.0352179
0.0341948
-0.0341519
0.0335042
0.000647653
-0.00653098
0.011354
-0.273191
0.268368
-0.0165971
0.0197732
-0.44017
0.436993
-0.0209495
0.0206523
-0.552051
0.552348
-0.0194845
0.018154
-0.650244
0.651575
-0.0165632
0.0149911
-0.765634
0.767206
-0.0131379
0.011331
-0.906786
0.908593
-0.00922582
0.0071813
-1.07797
1.08002
-0.00476592
0.00238233
-1.2853
1.28768
0.000456851
-0.00327062
-1.53736
1.54018
0.00601071
-0.00863848
-1.53807
1.5407
0.0107436
-0.0127942
-1.28698
1.28903
0.0144849
-0.0161874
-1.08031
1.08201
0.017636
-0.0191199
-0.909818
0.911302
0.0203569
-0.021594
-0.769978
0.771215
0.0226257
-0.0234767
-0.655626
0.656477
0.0234602
-0.0218849
-0.547459
0.545883
0.018283
-0.0125403
-0.3958
0.390057
0.00728631
-0.00296292
-0.197088
0.192764
0.000759756
-0.0333167
0.032557
-0.0329568
0.032508
0.000448801
-0.0045096
0.00810818
-0.26416
0.260561
-0.0124197
0.0153594
-0.43391
0.430971
-0.0167275
0.016637
-0.552542
0.552632
-0.0156978
0.0145003
-0.652832
0.65403
-0.0130926
0.0117695
-0.768694
0.770017
-0.0102342
0.00871302
-0.910284
0.911805
-0.00688664
0.00506836
-1.08194
1.08376
-0.00291747
0.00080366
-1.2899
1.29201
0.00167487
-0.00407504
-1.54277
1.54517
0.00638562
-0.00860286
-1.54311
1.54532
0.010379
-0.0120906
-1.29092
1.29263
0.0134542
-0.0147604
-1.08356
1.08487
0.0158033
-0.0168418
-0.912603
0.913642
0.0177563
-0.0187367
-0.772309
0.77329
0.0195693
-0.0200915
-0.657147
0.65767
0.0197868
-0.0179169
-0.544142
0.542272
0.0144525
-0.00953725
-0.384715
0.379799
0.00542288
-0.00221004
-0.189007
0.185794
0.000586932
-0.0318882
0.0313013
-0.0321697
0.0319533
0.000216382
-0.00243752
0.00478954
-0.257585
0.255233
-0.0080331
0.01057
-0.428216
0.425679
-0.0120395
0.0122285
-0.552614
0.552425
-0.0116723
0.0107766
-0.655132
0.656027
-0.00969814
0.00864688
-0.771212
0.772263
-0.00740822
0.00614554
-0.913164
0.914427
-0.00459264
0.00302422
-1.08541
1.08698
-0.00111882
-0.000785285
-1.294
1.2959
0.00300545
-0.00512493
-1.54742
1.54954
0.00712956
-0.00900504
-1.54739
1.54926
0.0104427
-0.0117483
-1.29414
1.29545
0.0127459
-0.013659
-1.08592
1.08683
0.014377
-0.015057
-0.914441
0.915121
0.0156042
-0.016152
-0.774079
0.774627
0.0165852
-0.0165774
-0.657993
0.657985
0.0158508
-0.0137137
-0.540283
0.538146
0.0105102
-0.00652948
-0.375347
0.371366
0.00355672
-0.0014271
-0.183141
0.181011
0.000388365
-0.0308148
0.0304265
-0.0318472
0.0318278
1.93866e-05
-0.000825517
0.00211529
-0.253449
0.252159
-0.00431307
0.00638888
-0.423356
0.42128
-0.00794884
0.00851257
-0.552052
0.551489
-0.00845388
0.00797638
-0.656695
0.657172
-0.00720591
0.00635583
-0.773263
0.774113
-0.00523659
0.00402861
-0.915696
0.916904
-0.00253723
0.00101834
-1.08848
1.09
0.000791925
-0.00254631
-1.29766
1.29942
0.00457588
-0.0064789
-1.55149
1.55339
0.00823914
-0.00982985
-1.55101
1.5526
0.0110183
-0.0121306
-1.29665
1.29776
0.0129654
-0.0136582
-1.08767
1.08836
0.0141125
-0.0144464
-0.915651
0.915984
0.0146048
-0.0146234
-0.77485
0.774869
0.0144536
-0.0138002
-0.657625
0.656972
0.0125626
-0.0101969
-0.535879
0.533513
0.00733162
-0.00426022
-0.367856
0.364785
0.00221739
-0.000864774
-0.179337
0.177984
0.000231095
-0.0301366
0.0299055
-0.0318747
0.0319655
-9.08052e-05
2.82169e-05
0.000548576
-0.251275
0.250698
-0.00180591
0.00322031
-0.41952
0.418106
-0.00448617
0.00505616
-0.550875
0.550305
-0.00507024
0.0047315
-0.657563
0.657902
-0.00416973
0.00351209
-0.77491
0.775568
-0.00261766
0.00161803
-0.918004
0.919004
-0.000293634
-0.00109342
-1.0914
1.09278
0.00276854
-0.00442572
-1.30107
1.30273
0.00635322
-0.00817067
-1.55524
1.55706
0.00979802
-0.0111573
-1.55412
1.55548
0.0120672
-0.0127485
-1.2987
1.29938
0.0131117
-0.0133272
-1.08881
1.08903
0.0133412
-0.0132614
-0.916093
0.916013
0.0131651
-0.0129903
-0.774717
0.774542
0.0126125
-0.0117234
-0.656176
0.655287
0.0103032
-0.00802008
-0.531175
0.528892
0.00562123
-0.00326491
-0.362124
0.359768
0.00172812
-0.000681256
-0.176854
0.175807
0.000178045
-0.0297267
0.0295486
-0.0320864
0.0322215
-0.000135127
0.000381244
-0.000137086
-0.250327
0.250083
-0.000535431
0.00133258
-0.417051
0.416254
-0.0020437
0.00228541
-0.549895
0.549653
-0.0021227
0.00171359
-0.658248
0.658658
-0.00105443
0.000385883
-0.776307
0.776975
0.000475738
-0.00145292
-0.91995
0.920927
0.00270836
-0.00398385
-1.09401
1.09529
0.00550291
-0.00698402
-1.30422
1.3057
0.00866276
-0.0101918
-1.55871
1.56023
0.0114917
-0.0124883
-1.5567
1.5577
0.0130687
-0.013456
-1.29993
1.30032
0.0136343
-0.0135897
-1.0891
1.08906
0.0134297
-0.0131084
-0.915733
0.915411
0.0127315
-0.0122534
-0.774133
0.773655
0.0116685
-0.0107081
-0.654348
0.653388
0.00936565
-0.0073732
-0.526806
0.524814
0.00533628
-0.00327052
-0.357656
0.35559
0.00181671
-0.000743945
-0.174801
0.173729
0.000198406
-0.0293862
0.0291878
-0.0323748
0.0325425
-0.000167688
0.000626353
-0.000512049
-0.249937
0.249822
2.38769e-05
0.000525642
-0.415669
0.415119
-0.000892345
0.000850103
-0.549568
0.549611
-0.000329719
-0.000372886
-0.659215
0.659918
0.00119134
-0.00200116
-0.777837
0.778646
0.00301044
-0.00406381
-0.921885
0.922938
0.00539713
-0.00672941
-1.09643
1.09776
0.00829386
-0.00977203
-1.30706
1.30854
0.0113749
-0.0127293
-1.56159
1.56295
0.0138197
-0.0146106
-1.55859
1.55938
0.0149943
-0.0151013
-1.30062
1.30072
0.014982
-0.0147219
-1.08896
1.0887
0.0143831
-0.0139739
-0.914936
0.914527
0.0135396
-0.0129556
-0.772987
0.772403
0.0123451
-0.0114183
-0.652429
0.651503
0.0101281
-0.00812773
-0.522989
0.520989
0.00598486
-0.00373456
-0.353546
0.351295
0.00211645
-0.000895726
-0.172624
0.171403
0.000250077
-0.0289898
0.0287397
-0.032726
0.0329318
-0.000205844
0.000995796
-0.0010913
-0.24981
0.249906
0.000685817
-3.36417e-05
-0.414587
0.413935
-0.000538702
0.000572695
-0.549633
0.549599
-0.000224072
-0.000437467
-0.660707
0.661368
0.00141388
-0.00244302
-0.779745
0.780774
0.00376259
-0.00520138
-0.924098
0.925537
0.00692967
-0.00862261
-1.09908
1.10078
0.0105798
-0.0123967
-1.31004
1.31186
0.0143392
-0.0159706
-1.56432
1.56595
0.0172581
-0.0181988
-1.56019
1.56113
0.0186652
-0.0188315
-1.30086
1.30103
0.01872
-0.0183615
-1.08826
1.0879
0.0179262
-0.0173621
-0.914034
0.91347
0.0167495
-0.0160858
-0.771746
0.771083
0.0153126
-0.0139686
-0.65047
0.649126
0.0120789
-0.00935926
-0.518819
0.516099
0.00670932
-0.00413991
-0.348964
0.346395
0.0023712
-0.00103681
-0.170165
0.168831
0.000303483
-0.0284869
0.0281834
-0.0331756
0.0334522
-0.000276645
0.00157911
-0.00204211
-0.250143
0.250606
0.00198398
-0.0013363
-0.413325
0.412677
0.000325179
0.000271197
-0.549313
0.548717
-0.000258276
-9.42648e-05
-0.661916
0.662269
0.000925535
-0.0020407
-0.782086
0.783201
0.00369187
-0.00552885
-0.927056
0.928893
0.00785026
-0.0101599
-1.10262
1.10493
0.0128115
-0.0152683
-1.31388
1.31634
0.0178971
-0.02014
-1.56781
1.57005
0.0219863
-0.0233859
-1.56227
1.56367
0.0241944
-0.0246588
-1.30139
1.30185
0.0248095
-0.0247042
-1.08763
1.08753
0.0242921
-0.0234923
-0.912677
0.911877
0.0226011
-0.0213421
-0.770122
0.768863
0.0195351
-0.0169067
-0.647258
0.644629
0.0138411
-0.0101802
-0.513017
0.509356
0.00711762
-0.00441248
-0.343831
0.341126
0.00259042
-0.00117421
-0.167514
0.166098
0.0003576
-0.0278837
0.0275261
-0.0337927
0.0341751
-0.000382457
0.00234903
-0.0033248
-0.251281
0.252257
0.00391417
-0.00375137
-0.412274
0.412112
0.00278839
-0.0017669
-0.547796
0.546775
0.00116186
-0.00131482
-0.662558
0.662711
0.00200023
-0.00316189
-0.784491
0.785653
0.00512983
-0.00745627
-0.93082
0.933147
0.010374
-0.0132371
-1.1074
1.11026
0.0164981
-0.0194881
-1.319
1.32199
0.0226647
-0.0253467
-1.57249
1.57517
0.027517
-0.0291467
-1.56524
1.56687
0.0300371
-0.0305362
-1.30244
1.30294
0.0306126
-0.0302957
-1.08726
1.08694
0.0296428
-0.0286182
-0.910834
0.909809
0.0272082
-0.024916
-0.767033
0.764741
0.0220591
-0.0182651
-0.641424
0.63763
0.0144634
-0.0104564
-0.505613
0.501606
0.00737697
-0.00471886
-0.338573
0.335915
0.00286142
-0.00133196
-0.164713
0.163184
0.00041283
-0.0271833
0.0267705
-0.0346379
0.0351634
-0.000525474
0.00333251
-0.00491869
-0.253553
0.255139
0.00633306
-0.00700077
-0.412407
0.413075
0.00684785
-0.00621571
-0.54601
0.545377
0.00552769
-0.00547769
-0.662711
0.662661
0.00629
-0.00779825
-0.787002
0.78851
0.0101854
-0.0127989
-0.935466
0.938079
0.0160083
-0.0191311
-1.11313
1.11625
0.022645
-0.0258058
-1.32499
1.32815
0.0290696
-0.0317026
-1.57782
1.58046
0.0336712
-0.0349489
-1.56837
1.56965
0.0354608
-0.0354527
-1.30329
1.30328
0.0350129
-0.0341564
-1.08629
1.08543
0.0330346
-0.031292
-0.908331
0.906589
0.0290778
-0.025953
-0.76183
0.758705
0.0225701
-0.0184538
-0.633649
0.629533
0.0146645
-0.0108625
-0.497897
0.494095
0.00794195
-0.00528816
-0.333461
0.330807
0.00328997
-0.00155252
-0.161663
0.159926
0.000483001
-0.0263753
0.0258923
-0.0357919
0.0365045
-0.000712655
0.00449048
-0.00675084
-0.257106
0.259367
0.00905864
-0.0106844
-0.414248
0.415874
0.011657
-0.0120687
-0.545585
0.545997
0.0124074
-0.013026
-0.662951
0.66357
0.0143857
-0.0162437
-0.790015
0.791873
0.0188273
-0.0215473
-0.940468
0.943188
0.0248164
-0.0279354
-1.11918
1.1223
0.0313718
-0.0343726
-1.33112
1.33412
0.0373199
-0.0394857
-1.58281
1.58498
0.0408388
-0.0413675
-1.57056
1.57109
0.0411264
-0.0401971
-1.30288
1.30195
0.0389105
-0.0371367
-1.08404
1.08226
0.0351596
-0.0325391
-0.904184
0.901563
0.0297748
-0.0263634
-0.755228
0.751817
0.0229546
-0.0190636
-0.625578
0.621687
0.0155801
-0.0120274
-0.490733
0.487181
0.00912278
-0.00624041
-0.32831
0.325428
0.00393713
-0.00186633
-0.158162
0.156091
0.000579003
-0.0254295
0.0248505
-0.0373145
0.0382716
-0.000957132
0.00596315
-0.00900366
-0.262018
0.265059
0.0122457
-0.0148118
-0.418069
0.420635
0.0169135
-0.0184081
-0.54743
0.548925
0.0199314
-0.021591
-0.664844
0.666504
0.0238765
-0.0263582
-0.793725
0.796207
0.0294293
-0.0324488
-0.945716
0.948736
0.0358999
-0.0390606
-1.12521
1.12837
0.0423916
-0.0451335
-1.33685
1.33959
0.04758
-0.049052
-1.58671
1.58818
0.0495236
-0.0489859
-1.57106
1.57052
0.0477501
-0.0457873
-1.30051
1.29855
0.0436026
-0.0408351
-1.07988
1.07711
0.0380271
-0.0347633
-0.898407
0.895143
0.0316405
-0.0280981
-0.748121
0.744579
0.0247665
-0.0210766
-0.617978
0.614288
0.0177301
-0.0141246
-0.484006
0.4804
0.0109366
-0.00759482
-0.322649
0.319307
0.00482423
-0.00228756
-0.153962
0.151425
0.000707956
-0.0242935
0.0235856
-0.0393236
0.0406224
-0.00129886
0.00798354
-0.0120231
-0.268493
0.272533
0.0163466
-0.0198606
-0.423927
0.427441
0.0229848
-0.0254795
-0.551557
0.554052
0.028169
-0.0309472
-0.66886
0.671638
0.0343557
-0.0377177
-0.79875
0.802112
0.0415823
-0.0451655
-0.951652
0.955235
0.0490517
-0.0524246
-1.13135
1.13472
0.0557577
-0.0582684
-1.34203
1.34454
0.0601816
-0.0608882
-1.58916
1.58986
0.0604019
-0.0587365
-1.56936
1.56769
0.0564739
-0.0534286
-1.29601
1.29297
0.0502804
-0.0465699
-1.07377
1.07006
0.0430603
-0.0391906
-0.891355
0.887485
0.0356791
-0.0318885
-0.740642
0.736852
0.0284481
-0.0246705
-0.610593
0.606815
0.0211455
-0.0171475
-0.477057
0.473059
0.0134053
-0.00936625
-0.316025
0.311986
0.00595962
-0.0028148
-0.148833
0.145688
0.000865357
-0.0229159
0.0220505
-0.0420174
0.0438299
-0.00181254
0.0108891
-0.0162492
-0.27698
0.28234
0.0218693
-0.0264179
-0.431938
0.436487
0.0305957
-0.0341289
-0.557923
0.561456
0.0380933
-0.0420753
-0.675101
0.679083
0.0467672
-0.051191
-0.805548
0.809971
0.0560541
-0.060369
-0.958764
0.963079
0.0648384
-0.0685169
-1.13793
1.14161
0.0719103
-0.0742052
-1.34673
1.34902
0.0755633
-0.0754599
-1.59004
1.58993
0.0739658
-0.0711422
-1.56538
1.56256
0.0678223
-0.0636512
-1.28932
1.28515
0.0595395
-0.0548846
-1.06579
1.06114
0.0506266
-0.0460553
-0.883021
0.878449
0.0420167
-0.0377612
-0.732483
0.728228
0.0339562
-0.0297676
-0.602782
0.598593
0.0257598
-0.0210672
-0.469184
0.464492
0.0165385
-0.0115082
-0.308019
0.302989
0.00725545
-0.00338959
-0.142532
0.138666
0.00102757
-0.0212388
0.0202112
-0.0457018
0.0483487
-0.00264687
0.0153712
-0.022576
-0.288153
0.295357
0.0298814
-0.035676
-0.442566
0.44836
0.0410978
-0.0458293
-0.566731
0.571463
0.0512738
-0.0566268
-0.683736
0.689089
0.0627417
-0.068315
-0.814437
0.82001
0.0742376
-0.0793071
-0.967339
0.972408
0.084339
-0.0882681
-1.14509
1.14901
0.0916267
-0.0935936
-1.35091
1.35288
0.094252
-0.093197
-1.5892
1.58814
0.090567
-0.0864738
-1.55902
1.55493
0.0820172
-0.0766534
-1.28034
1.27498
0.0715288
-0.0658522
-1.05587
1.0502
0.0607442
-0.0553327
-0.873181
0.86777
0.0506097
-0.0456822
-0.723199
0.718271
0.0412954
-0.0364318
-0.593912
0.589049
0.0316839
-0.0259932
-0.459805
0.454115
0.0204024
-0.0141562
-0.298091
0.291844
0.00887502
-0.0041096
-0.134815
0.13005
0.0012317
-0.0192417
0.01801
-0.0509608
0.055059
-0.00409821
0.0226552
-0.0325088
-0.30317
0.313023
0.0420903
-0.0495409
-0.4566
0.464051
0.0564879
-0.0627059
-0.578432
0.58465
0.0699756
-0.0768848
-0.69507
0.70198
0.0844901
-0.0911648
-0.825574
0.832248
0.0980016
-0.10363
-0.97734
0.982968
0.108958
-0.112857
-1.1526
1.15649
0.115844
-0.117171
-1.35426
1.35559
0.116801
-0.114521
-1.58629
1.58401
0.110527
-0.104974
-1.55
1.54445
0.0992501
-0.0925799
-1.2689
1.26223
0.0863479
-0.0795416
-1.04385
1.03704
0.0734763
-0.0670928
-0.861549
0.855166
0.0615522
-0.0557955
-0.712356
0.706599
0.0506633
-0.0448899
-0.583423
0.57765
0.03915
-0.0321571
-0.448308
0.441315
0.025215
-0.0174302
-0.285775
0.27799
0.0108439
-0.0049538
-0.125381
0.119491
0.00145584
-0.0168641
0.0154082
-0.0588909
0.0660847
-0.0071938
0.0360031
-0.0500269
-0.324229
0.338253
0.0629624
-0.0724166
-0.475292
0.484746
0.0809748
-0.0888689
-0.593726
0.60162
0.0980448
-0.10634
-0.709265
0.71756
0.115027
-0.122315
-0.838661
0.845949
0.129479
-0.135089
-0.988176
0.993785
0.140076
-0.143359
-1.15975
1.16303
0.145383
-0.145543
-1.35605
1.35621
0.143658
-0.139751
-1.58069
1.57679
0.134079
-0.12683
-1.53791
1.53066
0.119667
-0.111559
-1.25476
1.24666
0.104113
-0.0960813
-1.0295
1.02147
0.0889783
-0.0815421
-0.84788
0.840443
0.0750983
-0.0684018
-0.699623
0.692926
0.0624208
-0.0556056
-0.570843
0.564028
0.0485868
-0.0399149
-0.434002
0.42533
0.0312356
-0.0215177
-0.270349
0.260631
0.0132848
-0.005978
-0.113903
0.106596
0.00169078
-0.0140854
0.0123946
-0.0729953
0.0766304
-0.0036351
0.026105
-0.0383942
-0.355315
0.367605
0.0496972
-0.0585713
-0.499383
0.508257
0.0674564
-0.0769772
-0.612518
0.622039
0.087784
-0.097417
-0.725317
0.73495
0.108091
-0.117489
-0.852394
0.861793
0.127248
-0.135609
-0.998444
1.0068
0.14392
-0.150554
-1.16521
1.17184
0.156444
-0.160263
-1.35515
1.35897
0.16225
-0.161531
-1.57156
1.57085
0.157983
-0.152018
-1.52223
1.51626
0.145037
-0.136216
-1.23763
1.22881
0.127645
-0.117413
-1.01264
1.00241
0.108118
-0.0980146
-0.832066
0.821963
0.0891002
-0.0797053
-0.684833
0.675438
0.0709838
-0.0613193
-0.555665
0.546
0.0515617
-0.0395721
-0.416093
0.404103
0.0284997
-0.0174382
-0.250886
0.239824
0.00928697
-0.00341662
-0.0998586
0.0939883
0.000649818
-0.0109422
0.0102924
-0.0840099
0.0813038
0.00270606
0.0042655
-0.0115394
-0.38285
0.390124
0.0199227
-0.0269082
-0.521724
0.52871
0.0351271
-0.0434168
-0.632736
0.641026
0.0531567
-0.0620401
-0.744352
0.753236
0.0714677
-0.0799802
-0.870729
0.879241
0.0888306
-0.0961268
-1.01488
1.02218
0.103589
-0.109218
-1.17831
1.18393
0.114151
-0.11702
-1.36249
1.36536
0.117802
-0.116115
-1.56924
1.56755
0.111718
-0.105033
-1.50936
1.50267
0.0973491
-0.0879634
-1.21937
1.20998
0.0789677
-0.068751
-0.99175
0.981533
0.0592364
-0.0487733
-0.810713
0.80025
0.0395152
-0.030201
-0.663337
0.654023
0.0223272
-0.0142866
-0.533245
0.525204
0.00737041
-0.00124141
-0.391314
0.385185
-0.00237431
0.00415857
-0.228016
0.226232
-0.00422303
0.00278493
-0.0871424
0.0885805
-0.00122934
-0.00871502
0.00994436
-0.0841613
0.0810207
0.00314064
-0.00381577
0.000210408
-0.40087
0.404475
0.00493406
-0.0102357
-0.539548
0.544849
0.0170824
-0.0242809
-0.650121
0.65732
0.0326171
-0.0402386
-0.761487
0.769109
0.048531
-0.0558854
-0.887104
0.894459
0.0633254
-0.06983
-1.02933
1.03583
0.0763189
-0.0813272
-1.18918
1.19418
0.0853329
-0.0874592
-1.36765
1.36978
0.0878666
-0.0858362
-1.56528
1.56325
0.0812956
-0.074684
-1.49548
1.48887
0.0673237
-0.0586503
-1.20058
1.1919
0.0500737
-0.0406665
-0.971083
0.961676
0.0319653
-0.0224829
-0.789923
0.780441
0.0143184
-0.006047
-0.64341
0.635139
-0.000680761
0.00714709
-0.514706
0.508239
-0.0114894
0.0139184
-0.376728
0.374299
-0.0137586
0.0113412
-0.22126
0.223678
-0.00820936
0.00446005
-0.088335
0.0920844
-0.00159602
-0.00989487
0.0114909
-0.0823709
0.0793495
0.00302142
-0.00690093
0.00549602
-0.412257
0.413662
-0.00238413
-0.00177014
-0.553291
0.557446
0.00780729
-0.0138506
-0.664609
0.670653
0.0209732
-0.0275182
-0.776393
0.782938
0.0346153
-0.0409389
-0.901414
0.907737
0.047722
-0.0532874
-1.04198
1.04754
0.0590397
-0.0630774
-1.19887
1.20291
0.0666203
-0.0684875
-1.37179
1.37366
0.0686617
-0.0664763
-1.56098
1.5588
0.0624061
-0.0565506
-1.48199
1.47613
0.0500234
-0.0420679
-1.18332
1.17537
0.034599
-0.0264803
-0.952312
0.944193
0.018892
-0.0109761
-0.77121
0.763295
0.00383834
0.00315905
-0.625899
0.618901
-0.00875635
0.0135789
-0.499831
0.495009
-0.0164164
0.0173601
-0.368336
0.367392
-0.0159426
0.0121875
-0.222115
0.22587
-0.00856039
0.00437884
-0.0938385
0.0980201
-0.00147734
-0.0119352
0.0134126
-0.0805084
0.0779758
0.00253255
-0.00746994
0.00735866
-0.419681
0.419792
-0.00495925
0.00170935
-0.564636
0.567886
0.00320011
-0.00862446
-0.676919
0.682344
0.0146396
-0.0204297
-0.789055
0.794845
0.0266285
-0.0321809
-0.913749
0.919301
0.0380858
-0.0431469
-1.05306
1.05812
0.0481509
-0.0520224
-1.20692
1.2108
0.0552273
-0.0569358
-1.37531
1.37702
0.0571538
-0.0552403
-1.55665
1.55474
0.051675
-0.0463881
-1.46988
1.46459
0.0407196
-0.0339795
-1.16773
1.16099
0.0276008
-0.020574
-0.936175
0.929148
0.0142672
-0.00761653
-0.755457
0.748806
0.00187964
0.00378744
-0.611513
0.605846
-0.0081222
0.0116867
-0.488362
0.484798
-0.0137765
0.0141452
-0.362961
0.362592
-0.0125595
0.00941478
-0.225121
0.228266
-0.00647248
0.00322549
-0.0993904
0.102637
-0.00111615
-0.0137984
0.0149145
-0.0789905
0.0768879
0.00210256
-0.00695716
0.00708347
-0.424674
0.424547
-0.00568951
0.00289927
-0.573574
0.576364
0.00171888
-0.00635651
-0.687493
0.692131
0.0115923
-0.0166912
-0.800087
0.805186
0.0222745
-0.0273166
-0.924638
0.92968
0.0328303
-0.0373848
-1.063
1.06755
0.0420384
-0.0456904
-1.2145
1.21815
0.0487163
-0.0503854
-1.3786
1.38027
0.0506986
-0.0494346
-1.5529
1.55164
0.0463265
-0.0418437
-1.45911
1.45463
0.0368742
-0.0310126
-1.15433
1.14847
0.0257312
-0.0196274
-0.922312
0.916208
0.0142587
-0.00880572
-0.74237
0.736917
0.00408601
0.000528019
-0.600062
0.595448
-0.00404576
0.00701945
-0.479653
0.476679
-0.00841403
0.0085992
-0.35916
0.358975
-0.00767927
0.00553535
-0.227055
0.229199
-0.00363706
0.00183205
-0.102948
0.104753
-0.0006582
-0.0149642
0.0156224
-0.0779484
0.0763444
0.001604
-0.00579374
0.00606923
-0.428415
0.42814
-0.00475911
0.00254936
-0.581541
0.58375
0.00164099
-0.00584334
-0.696781
0.700983
0.0108586
-0.0153229
-0.810075
0.81454
0.0203105
-0.0248688
-0.934806
0.939365
0.0302055
-0.0344581
-1.07222
1.07648
0.0387471
-0.042357
-1.22172
1.22533
0.0457229
-0.0474714
-1.38208
1.38383
0.0481191
-0.0471111
-1.55013
1.54912
0.0447383
-0.0405903
-1.45009
1.44594
0.0363543
-0.0313259
-1.1426
1.13757
0.0265941
-0.0214454
-0.910311
0.905162
0.0167333
-0.0118208
-0.73139
0.726477
0.00793915
-0.00385033
-0.590527
0.586439
0.000670748
0.00181723
-0.472392
0.469905
-0.00327491
0.00390115
-0.355954
0.355328
-0.00362007
0.00266169
-0.227412
0.228371
-0.00178966
0.000985362
-0.104156
0.10496
-0.000425368
-0.0153246
0.01575
-0.0774761
0.0762359
0.00124023
-0.00455181
0.00486047
-0.431472
0.431164
-0.00354926
0.00132795
-0.588543
0.590764
0.0025341
-0.00633102
-0.70522
0.709017
0.0107036
-0.0150588
-0.819103
0.823458
0.0197428
-0.0245012
-0.943837
0.948595
0.029206
-0.0333587
-1.0809
1.08505
0.0378795
-0.0413765
-1.22891
1.2324
0.0444341
-0.0467338
-1.38557
1.38787
0.0477633
-0.0472644
-1.54827
1.54777
0.0452594
-0.0418743
-1.44206
1.43868
0.0381148
-0.0335385
-1.1323
1.12773
0.0292728
-0.024532
-0.899883
0.895142
0.0202337
-0.0158802
-0.72163
0.717277
0.012027
-0.00830492
-0.582017
0.578295
0.00542096
-0.00281545
-0.466098
0.463493
0.00114053
-0.000303449
-0.352189
0.351352
-0.000187901
0.00038991
-0.226028
0.225826
-0.000485053
0.000423801
-0.103538
0.103599
-0.000287826
-0.0152089
0.0154968
-0.0775642
0.0765292
0.001035
-0.0031846
0.00324114
-0.434361
0.434304
-0.00206917
-0.000238145
-0.595006
0.597313
0.00378394
-0.00746798
-0.713138
0.716822
0.0117028
-0.0157087
-0.827741
0.831747
0.0205571
-0.0245972
-0.952881
0.956921
0.0293304
-0.0333824
-1.08943
1.09348
0.037874
-0.0416507
-1.23595
1.23973
0.0451111
-0.0473217
-1.39002
1.39223
0.0488243
-0.0488148
-1.54724
1.54723
0.047525
-0.0445037
-1.43518
1.43216
0.0411704
-0.0369425
-1.12321
1.11898
0.0329757
-0.0284277
-0.890119
0.885571
0.0244333
-0.020161
-0.712641
0.708369
0.0164587
-0.0127502
-0.574187
0.570479
0.00971726
-0.00714567
-0.459791
0.457219
0.00512005
-0.00373346
-0.34781
0.346423
0.00253456
-0.00147508
-0.223095
0.222035
0.000635152
2.1598e-05
-0.101547
0.100891
-0.000198599
-0.0146995
0.0148981
-0.0779365
0.0772087
0.000727801
-0.00201163
0.00159615
-0.437453
0.437869
-0.00054504
-0.00185624
-0.600779
0.60318
0.00508274
-0.00865627
-0.720576
0.724149
0.0127444
-0.0169012
-0.835729
0.839886
0.0211947
-0.0254322
-0.961241
0.965478
0.03018
-0.0340783
-1.098
1.1019
0.0387306
-0.0425378
-1.24338
1.24718
0.0461369
-0.048953
-1.3949
1.39772
0.0510324
-0.0513836
-1.5473
1.54765
0.0503749
-0.0480138
-1.42927
1.42691
0.0451273
-0.0411264
-1.11454
1.11054
0.0372506
-0.033021
-0.880843
0.876614
0.028768
-0.0246789
-0.703747
0.699658
0.0209827
-0.0171448
-0.566567
0.562729
0.0141205
-0.0111596
-0.453303
0.450342
0.00884366
-0.00673293
-0.342758
0.340648
0.00502676
-0.00321933
-0.21883
0.217022
0.00164279
-0.000422997
-0.0984946
0.0972748
-8.19163e-05
-0.0139186
0.0140005
-0.0786984
0.0781176
0.000580823
-0.0010451
0.000645162
-0.440799
0.441199
0.000983612
-0.00318535
-0.606658
0.60886
0.00656269
-0.0100149
-0.727554
0.731006
0.013968
-0.0177612
-0.843817
0.84761
0.022205
-0.0261694
-0.969782
0.973747
0.0309002
-0.0352621
-1.10629
1.11065
0.0396156
-0.0437944
-1.25109
1.25527
0.0478735
-0.0508568
-1.40049
1.40347
0.0533829
-0.0545556
-1.54825
1.54943
0.0540193
-0.0522499
-1.42439
1.42262
0.0494994
-0.0458127
-1.10648
1.10279
0.0421718
-0.0378877
-0.871889
0.867605
0.0337706
-0.0295366
-0.694964
0.69073
0.0257463
-0.0216889
-0.558532
0.554474
0.0183516
-0.0151421
-0.446408
0.443198
0.0122649
-0.00958594
-0.336597
0.333918
0.00724017
-0.00476497
-0.213236
0.210761
0.00268129
-0.000953098
-0.0945639
0.0928357
0.000103519
-0.0129768
0.0128732
-0.0797084
0.0792902
0.000418161
-4.49143e-06
-0.000626006
-0.444315
0.444945
0.00212291
-0.00455761
-0.612146
0.614581
0.0078462
-0.0111456
-0.734306
0.737605
0.0151854
-0.0188493
-0.851456
0.85512
0.0231624
-0.0272639
-0.978227
0.982329
0.0319307
-0.0362861
-1.11492
1.11927
0.0408904
-0.0451385
-1.25942
1.26367
0.0494536
-0.0532267
-1.40679
1.41056
0.0562524
-0.0577925
-1.55059
1.55213
0.0579641
-0.0564936
-1.42073
1.41926
0.0542234
-0.0509361
-1.09894
1.09565
0.0472322
-0.0429986
-0.862924
0.85869
0.0388753
-0.0343917
-0.686041
0.681558
0.0305213
-0.0262086
-0.550321
0.546009
0.0226603
-0.0189381
-0.438988
0.435266
0.0157329
-0.0124622
-0.329426
0.326156
0.00937571
-0.00624022
-0.206439
0.203303
0.00364111