/*--------------------------------*- C++ -*----------------------------------*\
  =========                 |
  \\      /  F ield         | OpenFOAM: The Open Source CFD Toolbox
   \\    /   O peration     | Website:  https://openfoam.org
    \\  /    A nd           | Version:  6
     \\/     M anipulation  |
\*---------------------------------------------------------------------------*/
FoamFile
{
    version     2.0;
    format      ascii;
    class       volScalarField;
    location    "44";
    object      p;
}
// * * * * * * * * * * * * * * * * * * * * * * * * * * * * * * * * * * * * * //

dimensions      [0 2 -2 0 0 0 0];

internalField   nonuniform List<scalar> 
8800
(
0.851978
0.802659
0.764687
0.736607
0.716428
0.701813
0.691176
0.683587
0.678634
0.676472
0.677739
0.681993
0.688722
0.698097
0.710799
0.728095
0.751956
0.785043
0.827974
0.880486
0.686485
0.692827
0.70197
0.705508
0.702885
0.696776
0.689806
0.68352
0.678655
0.6757
0.675364
0.677892
0.682454
0.688523
0.695581
0.702586
0.707445
0.707307
0.700622
0.691717
0.660033
0.666265
0.670755
0.674611
0.677539
0.67846
0.677331
0.675153
0.673093
0.672151
0.673069
0.675424
0.678236
0.680452
0.680934
0.679116
0.675729
0.6717
0.66691
0.663193
0.655784
0.658546
0.66114
0.663281
0.664994
0.66653
0.667587
0.667876
0.667674
0.667656
0.668335
0.669371
0.67003
0.669816
0.668794
0.667404
0.665709
0.663388
0.660966
0.659399
0.650796
0.652218
0.654044
0.656104
0.657788
0.659043
0.660088
0.660994
0.661699
0.662301
0.662869
0.66321
0.663138
0.6627
0.661976
0.66082
0.659132
0.657214
0.655849
0.655047
0.645894
0.646794
0.648026
0.64963
0.651291
0.652779
0.654002
0.655038
0.655984
0.656847
0.657465
0.657711
0.657608
0.65715
0.65628
0.65504
0.653637
0.652342
0.651508
0.650984
0.641097
0.641751
0.642697
0.643987
0.645397
0.646862
0.648276
0.649541
0.650666
0.651688
0.65244
0.652764
0.652643
0.652098
0.651233
0.650226
0.649182
0.648242
0.647648
0.647266
0.636406
0.63691
0.637679
0.63879
0.640048
0.641408
0.642836
0.644265
0.645623
0.646872
0.647787
0.64818
0.648087
0.647628
0.646959
0.646187
0.645381
0.644674
0.644232
0.643935
0.631773
0.632173
0.632816
0.633804
0.634987
0.636288
0.637702
0.639215
0.640769
0.642268
0.643398
0.643943
0.644003
0.643742
0.643285
0.642714
0.642098
0.641574
0.641241
0.641001
0.627118
0.627445
0.628
0.628909
0.630041
0.631324
0.632765
0.634365
0.63609
0.637848
0.639263
0.640069
0.640374
0.640339
0.640088
0.639717
0.639277
0.638903
0.638653
0.638455
0.622365
0.622635
0.62313
0.623991
0.625106
0.626408
0.627912
0.629631
0.631556
0.633618
0.635392
0.636538
0.637144
0.63737
0.637343
0.637168
0.636901
0.636657
0.636473
0.636303
0.617431
0.617658
0.618114
0.618956
0.620088
0.621451
0.623057
0.624948
0.627133
0.629568
0.631786
0.633347
0.634303
0.634824
0.635044
0.635072
0.634974
0.634845
0.634714
0.634567
0.612232
0.612425
0.612861
0.613716
0.61491
0.61638
0.618151
0.620288
0.622832
0.625752
0.628506
0.63054
0.63189
0.632734
0.63322
0.633452
0.633526
0.633506
0.633421
0.63329
0.606681
0.606846
0.60728
0.608178
0.609475
0.611105
0.613108
0.615576
0.618569
0.622082
0.625495
0.628109
0.62992
0.63113
0.631915
0.632391
0.632635
0.632713
0.632666
0.632545
0.60067
0.600812
0.601259
0.602228
0.603671
0.605517
0.607821
0.610704
0.614267
0.61853
0.622738
0.626034
0.6284
0.63005
0.631177
0.631916
0.632346
0.632527
0.632518
0.632405
0.594079
0.594196
0.594669
0.595736
0.597373
0.599502
0.602187
0.605585
0.609833
0.614991
0.620183
0.624338
0.627382
0.629556
0.631085
0.632125
0.632771
0.633062
0.633088
0.63298
0.586744
0.586837
0.587351
0.588549
0.590436
0.59293
0.596119
0.600193
0.605327
0.611607
0.617989
0.623146
0.626979
0.629757
0.631757
0.633146
0.63403
0.634436
0.634497
0.634391
0.578444
0.578539
0.579103
0.580467
0.582683
0.585643
0.589461
0.594382
0.600629
0.6083
0.616118
0.622477
0.627232
0.630735
0.633309
0.635104
0.636254
0.636784
0.63688
0.636773
0.568882
0.568956
0.569598
0.571191
0.573832
0.577385
0.582
0.587974
0.595585
0.604962
0.61452
0.622324
0.62821
0.632582
0.635833
0.638127
0.639591
0.640263
0.640395
0.640283
0.557731
0.557788
0.558534
0.560421
0.563588
0.567898
0.573537
0.580859
0.590174
0.60163
0.61332
0.622861
0.630063
0.635462
0.639502
0.642382
0.64421
0.645035
0.6452
0.64508
0.544438
0.544485
0.545372
0.547658
0.551529
0.556849
0.56384
0.572928
0.584462
0.598531
0.612708
0.624216
0.632939
0.639517
0.644474
0.648032
0.650269
0.651259
0.651455
0.651324
0.528235
0.528276
0.529369
0.532211
0.537037
0.543708
0.552478
0.563819
0.57806
0.59525
0.612453
0.626337
0.636848
0.644816
0.650869
0.655222
0.657925
0.659086
0.659305
0.659156
0.507988
0.508034
0.509456
0.513131
0.519346
0.527948
0.539204
0.553599
0.571388
0.592415
0.613055
0.629532
0.642006
0.651535
0.658789
0.664054
0.667259
0.668583
0.668807
0.668633
0.481889
0.481967
0.483974
0.489028
0.497411
0.508878
0.52364
0.542083
0.564258
0.589816
0.614399
0.633807
0.648456
0.659689
0.668276
0.674516
0.678222
0.679676
0.679884
0.679678
0.446868
0.447077
0.45029
0.457909
0.469986
0.485871
0.505665
0.529472
0.557066
0.587879
0.616795
0.639313
0.656253
0.669269
0.679298
0.68651
0.690647
0.692161
0.692322
0.692082
0.397147
0.398228
0.404677
0.417622
0.436191
0.458944
0.48572
0.5163
0.550271
0.586925
0.620456
0.646195
0.66546
0.680287
0.691721
0.699838
0.704249
0.705716
0.7058
0.705526
0.324289
0.331637
0.34651
0.369229
0.397499
0.42945
0.464732
0.503093
0.544152
0.587215
0.625801
0.655098
0.676997
0.693895
0.706924
0.715872
0.720546
0.722003
0.722061
0.721819
0.246537
0.262569
0.286773
0.320027
0.358555
0.399894
0.443791
0.490192
0.538825
0.589102
0.633813
0.667677
0.69303
0.712617
0.727593
0.737617
0.74251
0.743896
0.743988
0.743871
0.179995
0.199639
0.231661
0.273942
0.321554
0.37172
0.424004
0.478304
0.534359
0.591607
0.642136
0.680288
0.708824
0.730891
0.747599
0.758407
0.763347
0.764772
0.764918
0.764873
0.125552
0.147418
0.184798
0.233594
0.288306
0.345879
0.405586
0.467161
0.530193
0.594059
0.650049
0.692188
0.723631
0.747804
0.766047
0.777823
0.783441
0.784913
0.785071
0.785071
0.0802668
0.103461
0.144716
0.198614
0.259046
0.322732
0.388773
0.456788
0.526183
0.596205
0.657324
0.703128
0.737202
0.763333
0.783008
0.795847
0.802003
0.803651
0.803903
0.803936
0.0415318
0.0655483
0.109683
0.167719
0.23297
0.301882
0.373412
0.447121
0.52229
0.597983
0.663873
0.713035
0.749506
0.777429
0.798336
0.811862
0.818494
0.820451
0.820792
0.820843
0.00736858
0.0319625
0.0783658
0.139831
0.209191
0.282651
0.359057
0.437894
0.518343
0.599274
0.669562
0.721852
0.760451
0.789856
0.811629
0.825719
0.832759
0.83504
0.835456
0.835499
-0.0236625
0.00142221
0.0497039
0.114087
0.187002
0.264449
0.345229
0.428754
0.51408
0.599932
0.674359
0.729567
0.770091
0.800639
0.822996
0.837426
0.844767
0.847283
0.84778
0.847817
-0.0525298
-0.0269762
0.0229074
0.0898456
0.16587
0.246843
0.331569
0.419398
0.50929
0.599829
0.678276
0.736285
0.778588
0.810089
0.832869
0.847539
0.8551
0.857788
0.858302
0.858315
-0.0799986
-0.0539181
-0.00256289
0.0666465
0.145404
0.229522
0.31782
0.409615
0.503813
0.598873
0.681317
0.742109
0.786115
0.818478
0.841643
0.856508
0.864195
0.866951
0.867457
0.86743
-0.106396
-0.0798309
-0.0271163
0.0441368
0.125338
0.212284
0.303829
0.399284
0.497546
0.59703
0.683487
0.747111
0.792819
0.82604
0.849574
0.864599
0.872317
0.87507
0.875599
0.875566
-0.132128
-0.104983
-0.0510103
0.0221021
0.105502
0.194996
0.289501
0.388334
0.490434
0.594248
0.684785
0.751352
0.798844
0.832996
0.85694
0.872097
0.879815
0.882511
0.88298
0.882911
-0.157284
-0.129552
-0.0743848
0.000422126
0.0858008
0.177598
0.274791
0.376742
0.482458
0.590493
0.68519
0.754875
0.804317
0.839513
0.863924
0.879196
0.886847
0.889434
0.889812
0.889685
-0.181952
-0.153622
-0.0973239
-0.0209554
0.0662119
0.16008
0.259705
0.364508
0.473612
0.585738
0.684653
0.757683
0.809307
0.845706
0.870615
0.885934
0.893396
0.895796
0.896064
0.895893
-0.206193
-0.177239
-0.119833
-0.0420332
0.0467327
0.142464
0.244279
0.351675
0.463914
0.579953
0.683106
0.759722
0.813865
0.851691
0.877125
0.892373
0.899515
0.901635
0.901788
0.901588
-0.230024
-0.200372
-0.141891
-0.062788
0.0274128
0.124797
0.228571
0.338295
0.453401
0.57311
0.680471
0.76091
0.817985
0.857595
0.883627
0.898616
0.905215
0.906959
0.90699
0.906771
-0.253269
-0.222964
-0.16346
-0.0831869
0.00830186
0.107158
0.212651
0.324452
0.44213
0.565227
0.676673
0.761131
0.82159
0.863521
0.89039
0.904901
0.910585
0.91177
0.911664
0.911444
-0.275878
-0.244958
-0.1845
-0.103168
-0.0105324
0.089615
0.196617
0.310225
0.430182
0.556324
0.671659
0.760254
0.824525
0.869466
0.897759
0.911739
0.915933
0.916125
0.915805
0.915626
-0.297898
-0.266305
-0.20497
-0.122683
-0.0290187
0.072255
0.180563
0.29572
0.417648
0.546462
0.66538
0.758146
0.826553
0.875215
0.905976
0.920028
0.922259
0.920474
0.919458
0.91949
-0.319159
-0.286967
-0.224805
-0.141655
-0.0470918
0.0551664
0.164587
0.281049
0.404642
0.535741
0.657821
0.75466
0.827397
0.88029
0.914798
0.930648
0.931781
0.927124
0.923365
0.921598
-0.339747
-0.306944
-0.244004
-0.160115
-0.064787
0.0383038
0.148633
0.266145
0.391086
0.524088
0.648825
0.749529
0.826764
0.884069
0.923262
0.943413
0.946532
0.94059
0.929629
0.928644
-0.359575
-0.326306
-0.262706
-0.17826
-0.0824103
0.0213151
0.132267
0.250498
0.376403
0.510835
0.637695
0.741932
0.824055
0.885654
0.929201
0.955033
0.961452
0.952153
0.934031
0.929726
-0.378497
-0.345021
-0.280736
-0.195875
-0.0997034
0.00451086
0.115709
0.234441
0.360905
0.496251
0.624541
0.73135
0.818634
0.883892
0.928051
0.953621
0.963901
0.941772
0.883045
0.857072
-0.396397
-0.363919
-0.297682
-0.212428
-0.11597
-0.0116159
0.0992299
0.218246
0.344871
0.480516
0.609456
0.717307
0.809669
0.878168
0.915283
0.934748
0.929493
0.882114
0.820863
0.783127
-0.440912
-0.382173
-0.313409
-0.228523
-0.132003
-0.0279891
0.0829622
0.201796
0.328104
0.463305
0.592078
0.699371
0.793704
0.867009
0.890348
0.886041
0.847313
0.787406
0.720512
0.683687
-0.416261
-0.397759
-0.337175
-0.252398
-0.156338
-0.0525305
0.0577235
0.175901
0.301199
0.434739
0.561555
0.666234
0.751747
0.830459
0.821109
0.722722
0.638814
0.580314
0.518921
0.548222
-0.448345
-0.416308
-0.354842
-0.270605
-0.174623
-0.0711366
0.0392833
0.156807
0.281063
0.412747
0.536782
0.637803
0.713555
0.757032
0.713092
0.582276
0.479514
0.410148
0.330604
0.37858
-0.473425
-0.438932
-0.375614
-0.291183
-0.195256
-0.0918134
0.018535
0.135283
0.258176
0.387425
0.507625
0.602734
0.667402
0.674643
0.576437
0.42826
0.304727
0.216369
0.123316
0.156821
-0.497922
-0.462309
-0.397559
-0.312432
-0.216342
-0.112972
-0.00306857
0.112756
0.23407
0.360515
0.475982
0.564267
0.612327
0.588291
0.43825
0.267453
0.11243
-0.0175319
-0.139236
-0.124819
-0.522179
-0.486123
-0.420423
-0.334678
-0.238349
-0.135122
-0.0258026
0.0889658
0.208435
0.331709
0.441763
0.522831
0.551301
0.485183
0.302722
0.111252
-0.0713309
-0.221419
-0.424365
-0.503361
-0.546876
-0.51084
-0.444557
-0.358342
-0.261763
-0.158631
-0.0498222
0.0638697
0.181388
0.301263
0.40559
0.477537
0.482847
0.365644
0.179372
-0.024565
-0.212121
-0.370545
-0.492187
-0.610797
-0.5731
-0.536947
-0.470331
-0.383837
-0.287148
-0.184198
-0.0759902
0.0364567
0.151692
0.267638
0.365785
0.425938
0.405361
0.251791
0.0639714
-0.134002
-0.304991
-0.399264
-0.424835
-0.438416
-0.60099
-0.564736
-0.497879
-0.41127
-0.314656
-0.212058
-0.104691
0.00620482
0.118718
0.230006
0.321485
0.365157
0.32644
0.142561
-0.04357
-0.221282
-0.34988
-0.38643
-0.395178
-0.395517
-0.630829
-0.594334
-0.52724
-0.440624
-0.344236
-0.242219
-0.135954
-0.0269503
0.0823837
0.188295
0.272137
0.300414
0.231833
0.0425384
-0.13746
-0.291725
-0.363061
-0.376826
-0.377709
-0.377518
-0.66263
-0.625775
-0.558427
-0.471893
-0.375904
-0.274676
-0.169795
-0.0630393
0.0426871
0.142584
0.217464
0.231489
0.125584
-0.0486163
-0.218136
-0.339535
-0.366786
-0.367718
-0.368204
-0.367671
-0.696134
-0.658886
-0.591333
-0.504992
-0.409568
-0.309375
-0.206193
-0.102055
-0.000330858
0.0929798
0.158497
0.153943
0.0295556
-0.13408
-0.281795
-0.34838
-0.363532
-0.363014
-0.363223
-0.36281
-0.73077
-0.693316
-0.625686
-0.539684
-0.445031
-0.346148
-0.244996
-0.143892
-0.0464806
0.0398632
0.0953731
0.0747615
-0.0604195
-0.211658
-0.325759
-0.358649
-0.358535
-0.35913
-0.359088
-0.359002
-0.766098
-0.728529
-0.660997
-0.575534
-0.481924
-0.384653
-0.28591
-0.188277
-0.0955354
-0.0158594
0.0266211
-0.000812133
-0.143784
-0.275085
-0.356423
-0.361537
-0.359927
-0.356904
-0.355729
-0.355473
-0.801157
-0.763629
-0.696504
-0.611879
-0.51967
-0.424386
-0.328445
-0.23472
-0.147138
-0.0733308
-0.0424659
-0.0788974
-0.21843
-0.32864
-0.37214
-0.377657
-0.367229
-0.361503
-0.358091
-0.356448
-0.834039
-0.797305
-0.731153
-0.647795
-0.55745
-0.46461
-0.371868
-0.282479
-0.20053
-0.132247
-0.107426
-0.162765
-0.284625
-0.382785
-0.398261
-0.388832
-0.379262
-0.371973
-0.368175
-0.36634
-0.863708
-0.828047
-0.763517
-0.682043
-0.594139
-0.504342
-0.415235
-0.330555
-0.254493
-0.192078
-0.170845
-0.238158
-0.341282
-0.425643
-0.44557
-0.417096
-0.396465
-0.385983
-0.382912
-0.381387
-0.887431
-0.853725
-0.791813
-0.713054
-0.628338
-0.542296
-0.457415
-0.377666
-0.307715
-0.251137
-0.232722
-0.298312
-0.383945
-0.445566
-0.447531
-0.445744
-0.435287
-0.432517
-0.430764
-0.428831
-0.903063
-0.872155
-0.813915
-0.739004
-0.658442
-0.5769
-0.497046
-0.422374
-0.358708
-0.307487
-0.287207
-0.346048
-0.406691
-0.464452
-0.492376
-0.511184
-0.533872
-0.53802
-0.532615
-0.528733
-0.907878
-0.880895
-0.827652
-0.757931
-0.682705
-0.606516
-0.532413
-0.46321
-0.405732
-0.360932
-0.334225
-0.38926
-0.419883
-0.439917
-0.515178
-0.605327
-0.648715
-0.648865
-0.64015
-0.638122
-0.899727
-0.877561
-0.830873
-0.767974
-0.699405
-0.629692
-0.561625
-0.498659
-0.446527
-0.411339
-0.375464
-0.449187
-0.472963
-0.426733
-0.499185
-0.633143
-0.677023
-0.681306
-0.685142
-0.686972
-0.875563
-0.859035
-0.821541
-0.767795
-0.707256
-0.645062
-0.583453
-0.526663
-0.47937
-0.453477
-0.442977
-0.555845
-0.619268
-0.580795
-0.609565
-0.711367
-0.756287
-0.746157
-0.745807
-0.745029
-0.838531
-0.827793
-0.800343
-0.75737
-0.706143
-0.651677
-0.597069
-0.545321
-0.503009
-0.482015
-0.499191
-0.675985
-0.917214
-1.14776
-1.21066
-1.25184
-1.11462
-0.940211
-0.857748
-0.858661
-0.795015
-0.788941
-0.771966
-0.739572
-0.697613
-0.650407
-0.601239
-0.553484
-0.514687
-0.493699
-0.51923
-0.703435
-1.01166
-1.40159
-1.62679
-1.71087
-1.62307
-1.41582
-1.2378
-1.16033
-0.754569
-0.751107
-0.742438
-0.719597
-0.684864
-0.642702
-0.596779
-0.550584
-0.508221
-0.484396
-0.507579
-0.566215
-0.69307
-0.890863
-0.900187
-0.914842
-0.906458
-0.859713
-0.790893
-0.739456
-0.723856
-0.721849
-0.717509
-0.702027
-0.672369
-0.632022
-0.586412
-0.534691
-0.482706
-0.438682
-0.40581
-0.373509
-0.199285
-0.107392
-0.0641159
-0.0480597
0.06571
0.14508
0.199285
0.229942
-0.699458
-0.698666
-0.69743
-0.688851
-0.663448
-0.622745
-0.571305
-0.51349
-0.445279
-0.368466
-0.286171
-0.150503
0.0177333
0.236838
0.484406
0.724243
0.917172
1.04185
1.14384
1.18414
-0.684297
-0.683873
-0.68351
-0.679319
-0.658317
-0.616266
-0.55773
-0.487589
-0.404158
-0.299887
-0.18959
-9.68139e-05
0.265094
0.623487
1.02647
1.37965
1.63854
1.83577
1.94555
1.98295
-0.674024
-0.673583
-0.672828
-0.671569
-0.65629
-0.614446
-0.549405
-0.465843
-0.372653
-0.254632
-0.126827
0.00427383
0.317283
0.678727
1.12503
1.55578
1.89271
2.10417
2.20384
2.23386
-0.671021
-0.669117
-0.665681
-0.665375
-0.65911
-0.619953
-0.547574
-0.454302
-0.347747
-0.238113
-0.102506
0.0143823
0.214404
0.588837
1.00672
1.39844
1.69181
1.8712
1.95414
1.97637
-0.689627
-0.686481
-0.683646
-0.685901
-0.682685
-0.637035
-0.54801
-0.445185
-0.332494
-0.218908
-0.0944532
0.0296537
0.166379
0.455203
0.805373
1.10398
1.32885
1.4625
1.51917
1.53364
-0.730514
-0.731695
-0.740762
-0.746856
-0.732481
-0.659136
-0.543618
-0.427881
-0.318421
-0.202081
-0.0960139
0.0129635
0.109352
0.27726
0.546197
0.777282
0.946636
1.04094
1.08002
1.08844
-0.747356
-0.757574
-0.774634
-0.780468
-0.747576
-0.645722
-0.515984
-0.39939
-0.294552
-0.192155
-0.100156
-0.0191781
0.0557253
0.178137
0.356032
0.504581
0.620075
0.684919
0.711
0.715898
-0.654024
-0.665979
-0.682271
-0.685231
-0.647954
-0.553186
-0.447846
-0.351379
-0.261146
-0.181493
-0.111053
-0.054561
-0.0130673
0.0589522
0.190009
0.30054
0.374886
0.413461
0.428738
0.430758
-0.443585
-0.452103
-0.46385
-0.468005
-0.446525
-0.397516
-0.34069
-0.279093
-0.220144
-0.163301
-0.121198
-0.0818809
-0.0635334
-0.0123512
0.0703908
0.141291
0.190632
0.217107
0.227186
0.227381
-0.21202
-0.216316
-0.224579
-0.234715
-0.239534
-0.235485
-0.222476
-0.200208
-0.172267
-0.137602
-0.11981
-0.10987
-0.111559
-0.074997
-0.00259791
0.0439723
0.0703032
0.0810015
0.0842589
0.083694
-0.0481154
-0.0503545
-0.0575697
-0.0730715
-0.0945599
-0.11534
-0.128286
-0.132298
-0.126156
-0.112957
-0.106599
-0.116185
-0.126237
-0.0973922
-0.0505639
-0.0246315
-0.00948759
-0.00361771
-0.00213511
-0.00258049
0.0327611
0.0312445
0.0248399
0.00894526
-0.0160782
-0.0431359
-0.0659826
-0.0806976
-0.0872185
-0.0851099
-0.0853268
-0.0953557
-0.104874
-0.076949
-0.0512738
-0.0399925
-0.0388272
-0.0407914
-0.0422222
-0.042575
0.0593586
0.0582009
0.0532016
0.0404457
0.0197352
-0.00428384
-0.0268612
-0.0448214
-0.0552422
-0.0582212
-0.0576946
-0.0578143
-0.0564058
-0.0368463
-0.0291455
-0.030123
-0.0354894
-0.0392147
-0.0403446
-0.0406692
0.0603677
0.0595882
0.0561277
0.0471159
0.0319628
0.0132867
-0.00530653
-0.0211516
-0.0314864
-0.0334502
-0.0269209
-0.0139945
0.00180467
0.0136577
0.00931825
-0.00107538
-0.00890896
-0.0126281
-0.0134594
-0.0138943
0.051266
0.0508063
0.0486021
0.0426571
0.0322742
0.0190119
0.00482676
-0.00741877
-0.0153801
-0.0149625
-0.000783623
0.023257
0.0523585
0.0584195
0.0474777
0.0345594
0.0282922
0.027216
0.0252739
0.0244696
0.0388649
0.0386117
0.0372875
0.0335456
0.0267996
0.0177236
0.00777779
-0.00114536
-0.00670617
-0.00468068
0.0128444
0.0413104
0.0732992
0.0728259
0.0606494
0.0526743
0.0515977
0.0532131
0.0536628
0.0523446
0.0261066
0.025967
0.0251932
0.0229906
0.0187529
0.0128215
0.00585651
-0.000480467
-0.00515441
-0.00355545
0.0112083
0.0356804
0.0615472
0.0567096
0.0473802
0.0482648
0.0537984
0.0585309
0.0595019
0.0577708
0.0145417
0.014421
0.0139461
0.0126791
0.0100948
0.00623327
0.0011906
-0.00394609
-0.00875756
-0.0100433
-0.00374256
0.0086079
0.021308
0.0140929
0.0125616
0.0190713
0.0278766
0.0335459
0.0342373
0.0327587
0.00503988
0.00491235
0.00457225
0.00380954
0.00222418
-0.000451286
-0.00437687
-0.00925424
-0.0154606
-0.0216723
-0.028253
-0.0333529
-0.0391587
-0.0456874
-0.0409395
-0.0281828
-0.0172501
-0.0124064
-0.0116252
-0.012612
-0.00189943
-0.00205364
-0.00234234
-0.00285959
-0.0039444
-0.00596786
-0.00931276
-0.0145043
-0.0224604
-0.034407
-0.053474
-0.0799773
-0.109121
-0.116613
-0.0985506
-0.079062
-0.0671969
-0.0630972
-0.0625705
-0.0629951
-0.00624953
-0.00640558
-0.00669315
-0.00715342
-0.00802872
-0.00981032
-0.0127453
-0.0179893
-0.0270012
-0.0429064
-0.0710184
-0.113157
-0.152482
-0.154371
-0.131948
-0.113032
-0.105423
-0.10355
-0.102894
-0.102662
-0.00814485
-0.00829636
-0.00858272
-0.00905131
-0.00983116
-0.0113851
-0.0140494
-0.0190718
-0.027617
-0.0446983
-0.0736727
-0.114518
-0.149042
-0.144069
-0.127577
-0.117538
-0.115392
-0.115825
-0.115235
-0.114906
-0.00803888
-0.00817329
-0.00843651
-0.00886576
-0.00956248
-0.0108375
-0.0132057
-0.0173677
-0.0245228
-0.0391007
-0.0615395
-0.0897764
-0.108605
-0.102898
-0.0958046
-0.0966199
-0.0995371
-0.101448
-0.101179
-0.101033
-0.00647558
-0.00659506
-0.00681406
-0.00714981
-0.00766706
-0.00857212
-0.0104212
-0.0134095
-0.0187124
-0.0282143
-0.0416239
-0.05285
-0.0572345
-0.0535671
-0.0573909
-0.0641624
-0.0687756
-0.0701852
-0.0702877
-0.0704285
-0.00393561
-0.00402649
-0.00415684
-0.00436373
-0.00461305
-0.00521125
-0.00621055
-0.00779692
-0.0110637
-0.0157602
-0.020207
-0.0186034
-0.0119624
-0.010638
-0.0201975
-0.0298665
-0.0335608
-0.0338037
-0.0340787
-0.0345864
-0.000647844
-0.000682393
-0.000692283
-0.000727037
-0.000959151
-0.00111578
-0.00108765
-0.00119376
-0.00151532
-0.00242159
-0.0031686
0.000290705
0.00780885
0.00507769
-0.000395325
-0.00422743
-0.00569611
-0.00584382
-0.00660527
-0.00649138
0.00983692
0.199715
0.374566
0.523412
0.644017
0.740646
0.821748
0.887568
0.904373
0.900435
0.304156
0.426785
0.541966
0.642605
0.727931
0.798834
0.854832
0.892645
0.912793
0.929269
0.504246
0.586218
0.667477
0.739143
0.800569
0.851608
0.891761
0.922248
0.945062
0.964301
0.652078
0.709811
0.768862
0.822019
0.867909
0.90687
0.939466
0.966722
0.987213
1.00613
0.769354
0.813471
0.85781
0.898853
0.935336
0.967519
0.995616
1.01938
1.03745
1.05551
0.869584
0.905435
0.940638
0.974705
1.00609
1.03445
1.05948
1.08046
1.09632
1.1138
0.958016
0.990414
1.02281
1.0541
1.08324
1.10972
1.13294
1.15194
1.16592
1.18294
1.04535
1.07807
1.11061
1.14189
1.17074
1.1966
1.21879
1.23637
1.2488
1.26534
1.13994
1.17639
1.21121
1.24373
1.27297
1.29838
1.31955
1.33588
1.34753
1.36368
1.25308
1.29362
1.33071
1.36375
1.3923
1.41634
1.436
1.4513
1.46322
1.4793
1.39442
1.43559
1.47089
1.50053
1.52577
1.54741
1.56593
1.58143
1.59456
1.61052
1.56607
1.59862
1.62547
1.64778
1.66788
1.68662
1.70437
1.72115
1.73607
1.7518
1.75249
1.76979
1.78692
1.80361
1.8197
1.83444
1.84835
1.86283
1.87808
1.89538
1.93587
1.94587
1.95908
1.97008
1.97948
1.98914
1.99976
2.00994
2.01923
2.0449
2.15381
2.14811
2.13517
2.12091
2.11461
2.12033
2.13848
2.167
2.20076
2.23709
2.45663
2.32067
2.24117
2.19867
2.18135
2.18532
2.21275
2.27062
2.37828
2.55669
0.755674
0.74937
0.741635
0.730513
0.716931
0.704267
0.693848
0.685803
0.680042
0.676653
0.676232
0.678999
0.68418
0.691499
0.70102
0.712832
0.726382
0.739302
0.748286
0.755824
0.66476
0.670678
0.678746
0.68487
0.687927
0.687399
0.68429
0.68026
0.676624
0.67428
0.674075
0.676259
0.679957
0.684363
0.688436
0.690661
0.689573
0.684926
0.677864
0.670027
0.658043
0.660415
0.663677
0.666439
0.668876
0.671045
0.672198
0.672014
0.671026
0.670152
0.670289
0.67163
0.673353
0.674538
0.67443
0.672938
0.670762
0.668387
0.665396
0.662373
0.653298
0.654387
0.656297
0.658624
0.66048
0.661856
0.663044
0.663994
0.664537
0.664839
0.665306
0.665968
0.66637
0.6662
0.665532
0.664579
0.663226
0.661239
0.659119
0.657638
0.648334
0.648968
0.65009
0.651835
0.653659
0.655227
0.656442
0.657457
0.658371
0.65918
0.659866
0.660295
0.660357
0.66009
0.659505
0.658494
0.657038
0.655406
0.654054
0.653248
0.643485
0.643925
0.644707
0.645997
0.647497
0.64903
0.650466
0.651706
0.652782
0.653767
0.6546
0.655091
0.655179
0.654869
0.654148
0.653102
0.651911
0.650739
0.649818
0.649281
0.638744
0.639072
0.639679
0.640733
0.642005
0.643371
0.644802
0.646212
0.647514
0.648701
0.649709
0.650314
0.650424
0.650087
0.649415
0.648571
0.647677
0.646787
0.646104
0.645708
0.634091
0.634346
0.634834
0.635729
0.636876
0.638147
0.639516
0.64097
0.642449
0.643875
0.645103
0.645852
0.646049
0.645831
0.645353
0.644729
0.644032
0.643358
0.64285
0.642548
0.629457
0.629659
0.630065
0.63085
0.631917
0.633138
0.63449
0.635982
0.63759
0.639244
0.640735
0.641705
0.642099
0.642092
0.641826
0.641404
0.640897
0.640401
0.640028
0.639789
0.624763
0.624926
0.625273
0.625985
0.627005
0.628202
0.629575
0.631137
0.632879
0.634753
0.636549
0.637849
0.638537
0.63879
0.638752
0.638534
0.638213
0.637876
0.637613
0.637423
0.619929
0.620062
0.620367
0.621034
0.622034
0.623253
0.624682
0.626354
0.628281
0.63044
0.632617
0.634309
0.635346
0.635899
0.636116
0.636113
0.635978
0.635791
0.63562
0.635466
0.614872
0.614978
0.615255
0.615903
0.616921
0.618203
0.619736
0.621572
0.623752
0.62627
0.628914
0.63109
0.632536
0.633431
0.633929
0.634154
0.634204
0.634162
0.634071
0.633946
0.609509
0.609594
0.609855
0.610508
0.611579
0.612968
0.614664
0.616743
0.619266
0.622255
0.62548
0.628227
0.630144
0.631418
0.632222
0.632704
0.632954
0.633045
0.633023
0.632922
0.603745
0.603811
0.604064
0.604746
0.605907
0.607449
0.609368
0.611763
0.614723
0.6183
0.622241
0.625682
0.628162
0.629883
0.631044
0.63181
0.632275
0.632509
0.632552
0.632469
0.597459
0.597505
0.597758
0.598489
0.599776
0.601525
0.603734
0.606523
0.61002
0.614311
0.619128
0.623418
0.62659
0.628859
0.630442
0.631527
0.632243
0.632629
0.632737
0.632671
0.590515
0.590539
0.590799
0.591603
0.593059
0.595077
0.597663
0.600961
0.605137
0.610318
0.616207
0.621528
0.625524
0.62844
0.63051
0.631976
0.632976
0.633527
0.633701
0.63365
0.582736
0.582751
0.583014
0.58391
0.585586
0.58795
0.591019
0.594977
0.600026
0.606323
0.613519
0.620084
0.62505
0.628709
0.63136
0.633273
0.634595
0.635327
0.635571
0.635532
0.573818
0.573805
0.574116
0.575154
0.577123
0.579928
0.583605
0.588379
0.59452
0.602222
0.611033
0.619056
0.625178
0.629737
0.633085
0.635542
0.637235
0.638171
0.63849
0.638462
0.563506
0.563469
0.563827
0.565041
0.567363
0.570727
0.575182
0.580996
0.588466
0.597842
0.608607
0.618459
0.625991
0.63163
0.635816
0.638916
0.641054
0.642227
0.642625
0.642605
0.551342
0.551283
0.551714
0.553165
0.555945
0.56004
0.565515
0.572684
0.581921
0.593473
0.606623
0.618567
0.627693
0.634573
0.639729
0.643565
0.646215
0.647649
0.64813
0.648113
0.536663
0.536581
0.537128
0.538911
0.542312
0.54739
0.554211
0.563141
0.574585
0.588784
0.604812
0.619273
0.630298
0.638631
0.64493
0.649636
0.652879
0.654604
0.655165
0.655148
0.51854
0.518439
0.519176
0.521443
0.525712
0.532148
0.540806
0.552092
0.566413
0.583915
0.603381
0.620747
0.633925
0.643913
0.65154
0.657256
0.661174
0.663212
0.663846
0.663816
0.495536
0.495434
0.496503
0.499537
0.505129
0.513589
0.524895
0.539435
0.557521
0.579132
0.602613
0.623225
0.638774
0.650591
0.659648
0.666491
0.671136
0.67348
0.674163
0.674108
0.465295
0.465241
0.466913
0.471277
0.479112
0.490725
0.505926
0.524926
0.547818
0.57434
0.602435
0.626677
0.644823
0.658617
0.669241
0.677301
0.682672
0.685274
0.685967
0.685875
0.423661
0.42381
0.426805
0.433973
0.446026
0.46287
0.483878
0.508953
0.537881
0.570179
0.603371
0.631435
0.652263
0.66808
0.680331
0.689595
0.695585
0.698313
0.698959
0.698823
0.362949
0.364257
0.371569
0.38518
0.40498
0.43015
0.45935
0.492122
0.528136
0.566851
0.605482
0.637512
0.661064
0.678879
0.692672
0.703049
0.70949
0.712149
0.712644
0.712471
0.289936
0.29254
0.306783
0.330335
0.36077
0.395835
0.433971
0.474973
0.518655
0.564545
0.609613
0.646673
0.673906
0.694583
0.710482
0.722145
0.729128
0.731897
0.732456
0.732407
0.215066
0.221961
0.243357
0.276825
0.317608
0.362328
0.409406
0.458728
0.510186
0.563384
0.615076
0.657375
0.688413
0.71205
0.730271
0.743371
0.750796
0.753391
0.753819
0.753865
0.154132
0.162843
0.188911
0.229442
0.278288
0.331183
0.386334
0.443463
0.502366
0.562579
0.620572
0.667787
0.702359
0.728644
0.748859
0.76319
0.770834
0.773562
0.774333
0.774465
0.104134
0.11355
0.143122
0.188912
0.243889
0.303343
0.365295
0.429306
0.494993
0.56176
0.625676
0.67747
0.715289
0.743934
0.765895
0.781425
0.789928
0.793228
0.794144
0.794304
0.062065
0.0717893
0.103774
0.153668
0.213673
0.278596
0.346301
0.416292
0.488045
0.560817
0.630267
0.68631
0.727074
0.7579
0.781504
0.798169
0.807461
0.81116
0.812209
0.812365
0.0254958
0.03537
0.069181
0.122373
0.186572
0.256181
0.328909
0.404188
0.481411
0.559684
0.634236
0.694223
0.737663
0.770437
0.795403
0.812908
0.822813
0.826899
0.828053
0.828211
-0.00719139
0.00275642
0.0380185
0.0939455
0.161705
0.235367
0.312536
0.392581
0.47481
0.558171
0.637471
0.701117
0.747038
0.781448
0.80741
0.825462
0.83591
0.840335
0.841549
0.8417
-0.0371931
-0.0271831
0.00924796
0.0675479
0.138394
0.215599
0.296716
0.381098
0.467944
0.556082
0.639912
0.70704
0.755274
0.791094
0.817784
0.836211
0.846915
0.851589
0.852922
0.85308
-0.0654095
-0.0553252
-0.0178044
0.0425934
0.116141
0.196464
0.281118
0.369451
0.460592
0.553267
0.641493
0.712059
0.762519
0.799625
0.826916
0.845646
0.856557
0.861381
0.86274
0.862882
-0.0923889
-0.0821755
-0.0436579
0.0186246
0.0945719
0.177671
0.265518
0.357461
0.452605
0.549621
0.642191
0.716221
0.768888
0.807232
0.835085
0.854096
0.865129
0.869994
0.871336
0.871418
-0.118518
-0.108124
-0.068663
-0.00465474
0.0734419
0.159035
0.249774
0.345022
0.443899
0.545086
0.641985
0.719556
0.774493
0.814107
0.842555
0.861818
0.872935
0.877775
0.879083
0.879144
-0.144052
-0.133399
-0.0930303
-0.0274314
0.0526087
0.140441
0.233802
0.332082
0.434433
0.539625
0.640846
0.722079
0.779431
0.820423
0.849547
0.869079
0.880242
0.885013
0.886237
0.886268
-0.169044
-0.158118
-0.11688
-0.0498064
0.0319976
0.121853
0.217579
0.318623
0.424202
0.533208
0.63873
0.723786
0.783762
0.826301
0.856195
0.875996
0.887133
0.891745
0.892843
0.892813
-0.193579
-0.182369
-0.14028
-0.0718067
0.0115917
0.103263
0.201119
0.304669
0.413222
0.525839
0.635588
0.724625
0.787502
0.831837
0.862604
0.882623
0.893617
0.897987
0.898906
0.898811
-0.217642
-0.206144
-0.1632
-0.0934261
-0.00859077
0.0847046
0.184472
0.290271
0.401533
0.517512
0.631368
0.724509
0.790625
0.837111
0.868919
0.889085
0.89974
0.903713
0.904426
0.904281
-0.241265
-0.229413
-0.185605
-0.114635
-0.028512
0.0662311
0.167694
0.275501
0.389197
0.508251
0.626024
0.723345
0.793043
0.842162
0.875326
0.89558
0.905609
0.908967
0.909418
0.909229
-0.264198
-0.252109
-0.207456
-0.135395
-0.0481105
0.0479267
0.150865
0.26044
0.376293
0.498112
0.619529
0.721034
0.794625
0.846943
0.882028
0.90248
0.911489
0.913817
0.913872
0.913652
-0.286589
-0.274161
-0.228703
-0.155661
-0.0673401
0.02984
0.134081
0.245176
0.36291
0.487176
0.611885
0.717481
0.795196
0.851265
0.889113
0.910348
0.918082
0.91863
0.917839
0.917575
-0.308241
-0.295516
-0.249317
-0.175371
-0.0861091
0.0120624
0.117433
0.229832
0.349158
0.475513
0.60313
0.712594
0.794565
0.854798
0.896355
0.919687
0.926795
0.924862
0.921942
0.921143
-0.329245
-0.316193
-0.26923
-0.194459
-0.104374
-0.00533365
0.10101
0.214494
0.335147
0.463261
0.593335
0.70628
0.792537
0.857124
0.903036
0.93023
0.939025
0.935924
0.929254
0.919564
-0.349482
-0.336182
-0.288534
-0.213094
-0.122365
-0.0226491
0.0844544
0.198731
0.320397
0.449883
0.581947
0.697913
0.788595
0.857793
0.908208
0.940677
0.954386
0.95244
0.941759
0.938682
-0.368903
-0.355562
-0.307225
-0.231207
-0.140052
-0.0398573
0.0678032
0.182527
0.304881