/*--------------------------------*- C++ -*----------------------------------*\
  =========                 |
  \\      /  F ield         | OpenFOAM: The Open Source CFD Toolbox
   \\    /   O peration     | Website:  https://openfoam.org
    \\  /    A nd           | Version:  6
     \\/     M anipulation  |
\*---------------------------------------------------------------------------*/
FoamFile
{
    version     2.0;
    format      ascii;
    class       volScalarField;
    location    "44.8";
    object      p;
}
// * * * * * * * * * * * * * * * * * * * * * * * * * * * * * * * * * * * * * //

dimensions      [0 2 -2 0 0 0 0];

internalField   nonuniform List<scalar> 
8800
(
0.889051
0.839733
0.801761
0.773681
0.753503
0.738889
0.728254
0.720666
0.715715
0.713556
0.714826
0.719084
0.725815
0.735192
0.747895
0.765192
0.789054
0.822142
0.865073
0.917585
0.723559
0.729901
0.739044
0.742582
0.73996
0.733852
0.726882
0.720597
0.715734
0.712783
0.71245
0.714981
0.719546
0.725617
0.732677
0.739684
0.744543
0.744406
0.737721
0.728816
0.697106
0.703338
0.707828
0.711685
0.714613
0.715535
0.714408
0.71223
0.710174
0.709235
0.710157
0.712515
0.715331
0.717548
0.718032
0.716215
0.712829
0.708801
0.704011
0.700294
0.692855
0.695617
0.698212
0.700352
0.702066
0.703603
0.704662
0.704953
0.704753
0.704739
0.705422
0.706462
0.707124
0.706913
0.705893
0.704505
0.702811
0.700491
0.69807
0.696503
0.687865
0.689287
0.691114
0.693174
0.69486
0.696116
0.697162
0.69807
0.69878
0.699386
0.699959
0.700303
0.700235
0.6998
0.699079
0.697924
0.696237
0.69432
0.692956
0.692153
0.68296
0.683861
0.685093
0.686697
0.688359
0.689848
0.691073
0.692111
0.693061
0.693928
0.694553
0.694804
0.694706
0.694252
0.693384
0.692146
0.690745
0.689451
0.688618
0.688095
0.678161
0.678815
0.67976
0.681051
0.682462
0.683928
0.685344
0.686612
0.687742
0.688769
0.689529
0.689858
0.689743
0.689203
0.688342
0.687338
0.686297
0.685358
0.684765
0.684382
0.673465
0.673969
0.674738
0.675849
0.677108
0.678469
0.679899
0.681331
0.682694
0.68395
0.684874
0.685275
0.685188
0.684735
0.68407
0.683302
0.6825
0.681796
0.681355
0.681058
0.668826
0.669227
0.66987
0.670858
0.672042
0.673343
0.674758
0.676274
0.677832
0.679337
0.680478
0.681035
0.681105
0.680852
0.680402
0.679835
0.679223
0.678702
0.67837
0.678131
0.664165
0.664492
0.665048
0.665956
0.667089
0.668373
0.669816
0.67142
0.673153
0.674922
0.676348
0.677164
0.677479
0.677454
0.677211
0.676847
0.676414
0.676044
0.675795
0.675595
0.659402
0.659673
0.660168
0.661028
0.662142
0.663447
0.664953
0.666676
0.668608
0.670678
0.672469
0.673631
0.67425
0.674488
0.674471
0.674304
0.674043
0.673804
0.673621
0.673451
0.654458
0.654686
0.655142
0.655983
0.657116
0.65848
0.660089
0.661987
0.664183
0.666633
0.668868
0.670443
0.671413
0.671948
0.67218
0.672218
0.672129
0.672006
0.671876
0.671728
0.649245
0.649438
0.649874
0.650729
0.651922
0.653394
0.655167
0.657309
0.659862
0.662796
0.665571
0.667628
0.668998
0.66986
0.670362
0.670609
0.670695
0.670681
0.670597
0.670464
0.643675
0.64384
0.644274
0.645171
0.646468
0.6481
0.650107
0.652581
0.655585
0.659117
0.662553
0.66519
0.667025
0.668257
0.66906
0.669553
0.66981
0.669896
0.669851
0.669729
0.637643
0.637785
0.638233
0.639201
0.640644
0.642492
0.6448
0.647691
0.651267
0.655549
0.659786
0.663112
0.665506
0.66718
0.66833
0.669091
0.669538
0.669728
0.669719
0.669605
0.631023
0.631141
0.631614
0.63268
0.634317
0.636447
0.639139
0.642549
0.646814
0.651998
0.65722
0.661407
0.664481
0.666686
0.668244
0.669307
0.669972
0.670271
0.670298
0.670189
0.623647
0.623741
0.624256
0.625456
0.627344
0.629843
0.633038
0.637122
0.642275
0.648582
0.655
0.660192
0.664061
0.666875
0.668907
0.670329
0.671235
0.671651
0.671712
0.671604
0.615307
0.615404
0.615967
0.617331
0.619549
0.622515
0.626343
0.631278
0.63754
0.645237
0.653097
0.659503
0.664301
0.667842
0.670451
0.672282
0.67346
0.674
0.674096
0.673986
0.605693
0.60577
0.606415
0.60801
0.610654
0.614214
0.618841
0.624835
0.632477
0.641894
0.651491
0.659332
0.665259
0.669674
0.672966
0.675292
0.676784
0.677466
0.677597
0.677483
0.59447
0.594529
0.595276
0.597171
0.600348
0.604672
0.610326
0.617668
0.627004
0.638493
0.65023
0.659822
0.667072
0.672516
0.676605
0.679524
0.68138
0.682214
0.682378
0.682255
0.58111
0.581159
0.58205
0.584342
0.588226
0.593562
0.600573
0.609685
0.621248
0.635355
0.649579
0.661135
0.669907
0.676533
0.681537
0.685135
0.687398
0.688394
0.688587
0.688452
0.564833
0.564876
0.565975
0.568828
0.573673
0.580369
0.589168
0.60054
0.614816
0.632048
0.649291
0.66322
0.673777
0.68179
0.687877
0.692265
0.694985
0.696148
0.696364
0.696211
0.544507
0.544554
0.54598
0.54967
0.555909
0.564535
0.575815
0.590236
0.60805
0.629114
0.649805
0.666333
0.678855
0.688434
0.695732
0.701024
0.704238
0.705558
0.705779
0.705603
0.518342
0.518419
0.52043
0.525501
0.533914
0.545415
0.560213
0.578692
0.600906
0.626501
0.65112
0.670565
0.685256
0.696532
0.70516
0.711418
0.715123
0.716567
0.71677
0.716563
0.483282
0.483489
0.486702
0.494331
0.506435
0.522353
0.542176
0.566008
0.593625
0.624468
0.653424
0.675987
0.692975
0.706039
0.716105
0.723343
0.727469
0.728966
0.72912
0.72888
0.433541
0.434615
0.441056
0.454005
0.472595
0.495376
0.52218
0.55279
0.586789
0.62347
0.657028
0.682801
0.702108
0.716982
0.728456
0.73658
0.740968
0.74241
0.742485
0.742212
0.360669
0.368
0.38285
0.405567
0.433857
0.465834
0.501142
0.539525
0.580604
0.623685
0.662293
0.691616
0.713546
0.730479
0.743534
0.752473
0.757102
0.758523
0.758568
0.758326
0.282894
0.298904
0.323074
0.35632
0.394869
0.436238
0.480161
0.52658
0.575222
0.625497
0.670202
0.704071
0.72944
0.74904
0.764008
0.77397
0.778771
0.780103
0.780181
0.780061
0.216334
0.23595
0.26793
0.310211
0.357857
0.408059
0.460367
0.514679
0.57073
0.62796
0.678465
0.716596
0.745115
0.767169
0.783816
0.794506
0.799327
0.800672
0.800806
0.800758
0.161885
0.183725
0.221067
0.269857
0.324608
0.382218
0.44195
0.503529
0.566549
0.630381
0.686336
0.728436
0.759854
0.784001
0.802161
0.813779
0.819223
0.820619
0.820762
0.820758
0.116608
0.139783
0.181
0.234893
0.295358
0.35908
0.425145
0.493159
0.56253
0.632508
0.693568
0.739341
0.773389
0.79948
0.819069
0.831752
0.837739
0.839296
0.839528
0.839557
0.0778821
0.101885
0.145985
0.204018
0.269297
0.338242
0.409794
0.4835
0.558638
0.634283
0.700123
0.749251
0.785703
0.813588
0.834439
0.847843
0.854311
0.856155
0.856472
0.85652
0.0437219
0.0683059
0.114681
0.176151
0.245544
0.31904
0.395466
0.474301
0.554725
0.635616
0.705868
0.758126
0.796714
0.826128
0.84791
0.861904
0.868755
0.870929
0.871321
0.871362
0.012695
0.0377693
0.0860358
0.150439
0.223395
0.300882
0.381683
0.465208
0.550523
0.636344
0.710738
0.765913
0.80644
0.83707
0.859504
0.873853
0.881029
0.883422
0.883873
0.883903
-0.016155
0.00938782
0.0592623
0.126237
0.202318
0.283339
0.368086
0.455919
0.545805
0.63632
0.714717
0.772687
0.815016
0.84664
0.869502
0.884083
0.891464
0.894031
0.894515
0.894528
-0.0435842
-0.0175156
0.0338388
0.103092
0.18192
0.266092
0.354412
0.446215
0.540404
0.635427
0.717799
0.77855
0.822613
0.855122
0.878361
0.893128
0.900643
0.903287
0.903754
0.903726
-0.069918
-0.0433644
0.00935
0.0806511
0.161932
0.248933
0.340499
0.43596
0.534207
0.633626
0.71999
0.783577
0.829369
0.862743
0.886341
0.901261
0.908814
0.911455
0.911942
0.911902
-0.095564
-0.0684293
-0.0144574
0.0586975
0.142177
0.231726
0.32625
0.425084
0.527151
0.63087
0.721293
0.787833
0.83542
0.869712
0.893691
0.908729
0.916278
0.918866
0.919303
0.919233
-0.120621
-0.0928942
-0.0377341
0.0371064
0.122558
0.214404
0.311614
0.413556
0.519216
0.627128
0.721698
0.791361
0.840897
0.876208
0.900623
0.915758
0.923241
0.925728
0.926078
0.925953
-0.145185
-0.116854
-0.060566
0.015821
0.103048
0.196957
0.296594
0.401378
0.510401
0.622377
0.721157
0.794168
0.845877
0.882362
0.907248
0.922416
0.929708
0.932011
0.932255
0.932087
-0.169324
-0.140359
-0.0829675
-0.00516625
0.0836432
0.179406
0.281228
0.388591
0.500727
0.616594
0.71961
0.796207
0.850415
0.888293
0.91367
0.928751
0.935721
0.937751
0.937884
0.937687
-0.193061
-0.163389
-0.104923
-0.0258348
0.0643935
0.161799
0.265574
0.37525
0.49023
0.609755
0.716978
0.797394
0.854513
0.894135
0.920071
0.934868
0.941294
0.942959
0.942976
0.942761
-0.216222
-0.185887
-0.126397
-0.0461524
0.0453469
0.144215
0.249701
0.361439
0.478974
0.601878
0.713188
0.79762
0.858099
0.899999
0.926723
0.941013
0.946527
0.947647
0.947533
0.947318
-0.23876
-0.207799
-0.147352
-0.066059
0.0265721
0.126722
0.23371
0.34724
0.467039
0.592983
0.708186
0.796752
0.861024
0.905892
0.933981
0.947702
0.951729
0.951877
0.951559
0.951386
-0.260722
-0.229078
-0.167749
-0.0855062
0.00814054
0.109409
0.217694
0.332761
0.454519
0.583133
0.701923
0.79466
0.863055
0.911608
0.942098
0.955835
0.957899
0.9561
0.955105
0.955144
-0.281935
-0.249684
-0.18752
-0.104419
-0.00988239
0.0923643
0.201754
0.318114
0.441528
0.572427
0.694384
0.791197
0.863918
0.916675
0.950846
0.966307
0.967247
0.962601
0.958895
0.957147
-0.302488
-0.269618
-0.206666
-0.122824
-0.0275308
0.0755434
0.185834
0.303232
0.427987
0.56079
0.68541
0.786096
0.86332
0.920477
0.959278
0.978957
0.98182
0.975844
0.964973
0.964073
-0.32229
-0.288948
-0.225324
-0.14092
-0.0451095
0.0585953
0.169501
0.287608
0.413323
0.547557
0.674305
0.778535
0.860664
0.922122
0.965251
0.990545
0.996632
0.987276
0.969166
0.964997
-0.341194
-0.307637
-0.243317
-0.158492
-0.0623604
0.0418299
0.152975
0.271574
0.397843
0.532994
0.661178
0.767992
0.855309
0.920455
0.964229
0.989283
0.999183
0.976961
0.918299
0.892392
-0.359081
-0.326514
-0.260229
-0.175005
-0.0785865
0.0257399
0.136529
0.255403
0.38183
0.517282
0.646119
0.753986
0.846415
0.914849
0.951664
0.970698
0.965088
0.917596
0.856388
0.818693
-0.40366
-0.344744
-0.275935
-0.191063
-0.0945812
0.00940319
0.120294
0.238979
0.365087
0.500094
0.628767
0.736081
0.830502
0.903783
0.9269
0.922304
0.883252
0.823182
0.756275
0.719455
-0.378862
-0.360322
-0.299684
-0.214895
-0.118862
-0.015078
0.0950961
0.213119
0.338217
0.471559
0.598271
0.702974
0.788458
0.867355
0.857685
0.758993
0.674949
0.616366
0.554949
0.584175
-0.410985
-0.378864
-0.317329
-0.233074
-0.13711
-0.033636
0.0766956
0.194062
0.318111
0.449595
0.573515
0.674534
0.750196
0.79382
0.749597
0.618622
0.515771
0.446353
0.366801
0.414685
-0.436085
-0.401497
-0.338086
-0.253623
-0.157701
-0.0542686
0.0559892
0.172574
0.295258
0.424298
0.544365
0.639427
0.704096
0.711274
0.612865
0.464665
0.341108
0.252727
0.159712
0.193124
-0.460599
-0.424886
-0.360021
-0.274839
-0.17874
-0.0753831
0.03443
0.150085
0.271186
0.397411
0.512721
0.600862
0.648936
0.624817
0.474671
0.30391
0.148924
0.0190389
-0.102591
-0.0883332
-0.484869
-0.448709
-0.382878
-0.297054
-0.200699
-0.0974816
0.0117462
0.126339
0.245589
0.368628
0.478495
0.559399
0.587785
0.521456
0.339125
0.14776
-0.0346943
-0.184653
-0.387394
-0.466242
-0.509573
-0.473434
-0.407003
-0.320685
-0.224059
-0.120931
-0.0122171
0.101295
0.218582
0.338208
0.442316
0.514083
0.519226
0.401891
0.215765
0.012002
-0.175365
-0.333646
-0.455183
-0.573414
-0.535797
-0.499546
-0.432766
-0.346141
-0.249381
-0.146433
-0.0383204
0.0739424
0.188932
0.304608
0.4025
0.462393
0.441699
0.288088
0.100388
-0.0974443
-0.26827
-0.3624
-0.387958
-0.401536
-0.563681
-0.527336
-0.460302
-0.37353
-0.276822
-0.174216
-0.0669447
0.0437624
0.156011
0.267001
0.358184
0.401571
0.362793
0.178882
-0.00711287
-0.184681
-0.313204
-0.349732
-0.358442
-0.358795
-0.59351
-0.556929
-0.489645
-0.402834
-0.306326
-0.20429
-0.0981173
0.0106939
0.119739
0.225314
0.308804
0.336785
0.268011
0.0789066
-0.100983
-0.255191
-0.32646
-0.340268
-0.341122
-0.340915
-0.625292
-0.588357
-0.520805
-0.434044
-0.337905
-0.236644
-0.13185
-0.0252888
0.0801198
0.179619
0.254127
0.267714
0.161689
-0.012116
-0.181577
-0.302936
-0.330183
-0.331193
-0.331764
-0.331237
-0.658765
-0.621444
-0.553674
-0.467073
-0.371467
-0.271223
-0.168117
-0.0641731
0.0371943
0.130022
0.195131
0.189974
0.0655429
-0.097471
-0.245057
-0.311719
-0.327062
-0.326591
-0.326839
-0.326487
-0.693353
-0.655832
-0.587977
-0.501681
-0.406812
-0.307856
-0.206761
-0.105846
-0.0088298
0.0769003
0.131915
0.110412
-0.0249737
-0.175032
-0.28869
-0.322104
-0.322199
-0.322896
-0.322959
-0.322896
-0.728609
-0.69098
-0.623216
-0.53743
-0.443567
-0.346198
-0.247481
-0.150027
-0.0576932
0.0211473
0.0631197
0.0339728
-0.109606
-0.23792
-0.318194
-0.324119
-0.323701
-0.321503
-0.320617
-0.320391
-0.763579
-0.72599
-0.658629
-0.573656
-0.481153
-0.385736
-0.289783
-0.196204
-0.109027
-0.0363753
-0.0060979
-0.0461752
-0.187305
-0.292191
-0.332065
-0.339807
-0.331929
-0.327772
-0.325066
-0.323638
-0.796339
-0.759547
-0.693161
-0.609434
-0.518756
-0.425724
-0.332937
-0.243597
-0.162057
-0.0951522
-0.0713917
-0.131812
-0.259781
-0.351068
-0.361446
-0.353849
-0.345359
-0.338607
-0.335345
-0.333828
-0.825861
-0.790139
-0.725382
-0.643524
-0.55526
-0.465183
-0.37597
-0.291209
-0.215481
-0.154607
-0.135475
-0.208429
-0.326461
-0.413178
-0.419573
-0.388688
-0.364758
-0.352106
-0.348058
-0.346387
-0.849413
-0.815643
-0.753516
-0.674366
-0.589267
-0.502866
-0.417709
-0.337774
-0.267892
-0.212613
-0.197082
-0.26685
-0.37886
-0.467445
-0.451477
-0.424487
-0.398886
-0.389239
-0.38578
-0.383551
-0.864851
-0.833879
-0.775453
-0.700165
-0.61918
-0.537249
-0.456832
-0.381812
-0.317755
-0.26671
-0.249187
-0.304175
-0.386826
-0.503134
-0.501845
-0.481078
-0.484193
-0.478817
-0.470475
-0.465243
-0.869492
-0.842441
-0.78904
-0.718993
-0.64331
-0.566695
-0.491829
-0.421786
-0.363076
-0.316543
-0.288362
-0.322136
-0.32673
-0.388344
-0.453795
-0.521419
-0.558947
-0.561084
-0.553827
-0.552277
-0.861234
-0.838997
-0.792185
-0.729017
-0.660057
-0.589781
-0.521002
-0.456366
-0.402168
-0.362244
-0.316936
-0.338882
-0.248545
-0.169665
-0.316871
-0.490886
-0.558161
-0.571008
-0.578337
-0.581031
-0.837014
-0.820422
-0.782869
-0.728976
-0.668163
-0.605432
-0.543019
-0.484457
-0.433968
-0.400202
-0.370466
-0.435475
-0.401207
-0.238064
-0.374841
-0.569234
-0.646767
-0.650934
-0.655613
-0.656637
-0.80007
-0.789286
-0.761866
-0.718933
-0.667574
-0.612872
-0.557412
-0.504266
-0.458616
-0.430084
-0.444641
-0.606438
-0.887714
-1.10022
-1.20821
-1.24161
-1.09302
-0.913148
-0.832888
-0.834881
-0.756973
-0.750855
-0.733988
-0.701803
-0.660066
-0.612812
-0.563358
-0.514758
-0.472847
-0.44956
-0.462172
-0.719962
-1.19019
-1.74496
-1.92833
-1.94066
-1.7851
-1.53458
-1.32933
-1.24138
-0.717423
-0.713918
-0.705387
-0.682938
-0.648773
-0.607093
-0.5613
-0.514568
-0.472753
-0.444741
-0.46752
-0.583082
-0.811099
-1.08011
-1.16632
-1.09454
-1.01661
-0.913013
-0.817192
-0.757805
-0.688199
-0.686178
-0.681946
-0.666923
-0.637976
-0.598462
-0.553869
-0.50389
-0.451742
-0.410143
-0.38438
-0.358076
-0.191713
0.00955013
0.18494
0.23896
0.315573
0.369346
0.39255
0.410167
-0.665765
-0.664984
-0.663785
-0.655563
-0.631044
-0.591652
-0.542071
-0.485309
-0.421369
-0.350758
-0.275236
-0.165655
0.070647
0.331538
0.590873
0.846473
1.03432
1.11332
1.1767
1.20282
-0.652539
-0.652127
-0.651754
-0.647796
-0.627792
-0.587313
-0.53063
-0.464269
-0.383471
-0.28711
-0.190599
-0.025777
0.210927
0.57522
1.0033
1.35121
1.56442
1.70992
1.80282
1.83543
-0.644036
-0.643694
-0.643061
-0.641866
-0.627232
-0.587101
-0.524532
-0.444176
-0.354834
-0.24207
-0.127138
-0.00270401
0.327022
0.706819
1.10986
1.48956
1.78988
1.98194
2.07282
2.10118
-0.641813
-0.64013
-0.63677
-0.636023
-0.630174
-0.594003
-0.525199
-0.434046
-0.331064
-0.222955
-0.0966328
0.00757996
0.225122
0.584035
0.982611
1.35589
1.63705
1.80824
1.88898
1.91161
-0.660685
-0.657185
-0.652785
-0.653784
-0.65284
-0.613763
-0.529336
-0.427837
-0.315179
-0.20614
-0.0838002
0.029812
0.183516
0.501801
0.824895
1.10741
1.32126
1.45392
1.51367
1.52979
-0.706647
-0.706776
-0.713945
-0.720254
-0.710715
-0.644009
-0.530648
-0.4144
-0.302567
-0.186161
-0.0785435
0.0318907
0.13264
0.326728
0.601609
0.827779
0.993442
1.08916
1.12854
1.13839
-0.738764
-0.748645
-0.767037
-0.774643
-0.745436
-0.645757
-0.511262
-0.38936
-0.281367
-0.173549
-0.0768333
0.0126285
0.0935072
0.219986
0.406843
0.569082
0.692313
0.764746
0.795149
0.800194
-0.6682
-0.680552
-0.698832
-0.703746
-0.667356
-0.566189
-0.449622
-0.345352
-0.248654
-0.1616
-0.08046
-0.0110642
0.0332514
0.119914
0.264519
0.37637
0.45919
0.504055
0.521289
0.522266
-0.465197
-0.475061
-0.488724
-0.493717
-0.469315
-0.410517
-0.343699
-0.274047
-0.207207
-0.143952
-0.0888752
-0.0344457
-0.000349322
0.0421212
0.130207
0.211923
0.271262
0.303936
0.315923
0.317006
-0.221926
-0.226939
-0.236001
-0.246034
-0.247647
-0.238391
-0.220117
-0.192061
-0.159548
-0.118587
-0.0914679
-0.061151
-0.0399149
-0.00704927
0.0548703
0.104462
0.136919
0.154232
0.16079
0.160156
-0.0405117
-0.0429769
-0.0505897
-0.0661284
-0.0873708
-0.107117
-0.118283
-0.120546
-0.112603
-0.0970866
-0.0876069
-0.0889877
-0.0914969
-0.0735375
-0.023474
0.0133311
0.0370988
0.0471783
0.0502304
0.0492731
0.0526756
0.051032
0.0442289
0.0274908
0.00128186
-0.0271213
-0.0509357
-0.0666567
-0.0742076
-0.0749273
-0.0800098
-0.0991024
-0.120005
-0.0984023
-0.0612824
-0.0396603
-0.026843
-0.0232807
-0.0229188
-0.023519
0.0847409
0.0834606
0.0780061
0.0642127
0.0417863
0.0157993
-0.00895766
-0.0289425
-0.0426868
-0.0516117
-0.0646174
-0.0868637
-0.107983
-0.0870351
-0.0625378
-0.0517788
-0.0510957
-0.053787
-0.0555422
-0.0559003
0.0875167
0.0866119
0.082752
0.0728413
0.0562551
0.0357534
0.0150689
-0.00358802
-0.0178503
-0.0280574
-0.0385489
-0.0526466
-0.0615785
-0.0450836
-0.0390967
-0.0397551
-0.0450779
-0.0492493
-0.0507895
-0.0510417
0.0790015
0.0784502
0.0759515
0.0693572
0.057908
0.0431931
0.0272898
0.0128178
0.00128178
-0.00469995
-0.00594423
-0.00537025
0.000666007
0.0132917
0.00903534
-0.00215567
-0.0130463
-0.0188171
-0.0204116
-0.0206322
0.0669025
0.0666084
0.0651156
0.0609659
0.0535263
0.0436007
0.0326059
0.0224645
0.0154111
0.0143547
0.0250035
0.0425585
0.0655277
0.0713036
0.059247
0.0432314
0.0333318
0.0291406
0.0279999
0.0274494
0.0542038
0.0540741
0.0532592
0.050858
0.0463094
0.039993
0.0328591
0.0266698
0.0230305
0.0268267
0.0457297
0.0761182
0.110472
0.110207
0.0936684
0.0802003
0.075723
0.075485
0.0745924
0.0733969
0.0421346
0.0420654
0.0416537
0.0404148
0.0378395
0.0341347
0.0296893
0.0260972
0.0247637
0.0307974
0.0517283
0.0843755
0.117722
0.113801
0.099466
0.0939969
0.094681
0.0977009
0.098725
0.0973037
0.0313017
0.0312478
0.0310405
0.0304537
0.0291335
0.0270175
0.0242512
0.0219022
0.020917
0.0257539
0.0412192
0.0664636
0.0883567
0.0820026
0.0767379
0.0792385
0.0863105
0.0915203
0.091944
0.0903398
0.0221365
0.0220764
0.0219424
0.0216887
0.0210109
0.0197559
0.0178271
0.0155434
0.0132342
0.0132513
0.0180246
0.0275998
0.035152
0.0294743
0.030446
0.0402079
0.0506739
0.0558946
0.056485
0.0552796
0.0147723
0.0146893
0.014566
0.0143951
0.0139713
0.0129664
0.0113254
0.00846022
0.00424189
-0.00202325
-0.0113943
-0.0227555
-0.0386185
-0.0427465
-0.0302164
-0.0121513
0.000832048
0.00636039
0.00687154
0.00606232
0.00914833
0.00905229
0.00890192
0.00869698
0.00834584
0.00743852
0.00582245
0.00237442
-0.00363082
-0.0157891
-0.0383085
-0.0737827
-0.105995
-0.110034
-0.085171
-0.0615246
-0.0493727
-0.0456599
-0.0447429
-0.0447315
0.00520531
0.00510956
0.00493057
0.00469629
0.00431636
0.00345403
0.00179824
-0.00172087
-0.00840309
-0.023493
-0.0520252
-0.0965102
-0.136291
-0.131455
-0.105872
-0.0864435
-0.079816
-0.0776657
-0.0762626
-0.075782
0.00258172
0.00248323
0.00232097
0.00210574
0.00174218
0.00105121
-0.00055515
-0.00355551
-0.00946573
-0.0227438
-0.0485578
-0.0855071
-0.112351
-0.102985
-0.0869294
-0.0793024
-0.0780935
-0.0784606
-0.077224
-0.0767271
0.00100823
0.000924537
0.00080731
0.000653381
0.000453884
1.34483e-05
-0.0010109
-0.00282319
-0.00689841
-0.0151792
-0.0307936
-0.0501381
-0.0624597
-0.055326
-0.0499022
-0.0486516
-0.0503652
-0.0514706
-0.0508452
-0.0507569
0.000317036
0.000287337
0.000284135
0.00025346
9.35948e-05
3.01944e-05
-1.29011e-05
-0.000195849
-0.000598988
-0.00208259
-0.00515613
-0.00742644
-0.0115026
-0.00871676
-0.011098
-0.0140872
-0.0162168
-0.013881
-0.0124254
-0.011705
0.0462203
0.235942
0.410613
0.559326
0.679791
0.776282
0.857261
0.923006
0.939818
0.935896
0.340252
0.462768
0.577844
0.67838
0.76361
0.834427
0.89036
0.928135
0.948263
0.964745
0.540141
0.622052
0.703251
0.774853
0.836212
0.887193
0.927303
0.95776
0.980554
0.99979
0.687878
0.745601
0.8046
0.857693
0.903527
0.942445
0.97501
1.00224
1.02272
1.04163
0.805197
0.849246
0.893486
0.934478
0.970925
1.00308
1.03116
1.05491
1.07297
1.09102
0.905207
0.941052
0.976246
1.01029
1.04166
1.07001
1.09502
1.11599
1.13184
1.14932
0.993625
1.026
1.05839
1.08967
1.1188
1.14527
1.16848
1.18748
1.20145
1.21847
1.08094
1.11364
1.14618
1.17746
1.20629
1.23215
1.25434
1.27192
1.28434
1.30087
1.17552
1.21196
1.24678
1.2793
1.30852
1.33393
1.3551
1.37142
1.38307
1.39922
1.28865
1.32919
1.36627
1.39931
1.42786
1.45189
1.47155
1.48685
1.49876
1.51485
1.42999
1.47115
1.50645
1.53609
1.56133
1.58296
1.60148
1.61698
1.63011
1.64606
1.60164
1.63417
1.66103
1.68334
1.70344
1.72217
1.73992
1.7567
1.77162
1.78735
1.78805
1.80535
1.82248
1.83916
1.85526
1.87
1.8839
1.89839
1.91363
1.93093
1.97143
1.98143
1.99464
2.00563
2.01504
2.0247
2.03531
2.04549
2.05479
2.08045
2.18937
2.18367
2.17073
2.15647
2.15017
2.15589
2.17403
2.20255
2.23632
2.27265
2.49218
2.35622
2.27673
2.23422
2.2169
2.22088
2.24831
2.30617
2.41384
2.59224
0.792749
0.786444
0.77871
0.767588
0.754006
0.741343
0.730924
0.722881
0.717121
0.713736
0.713318
0.716089
0.721272
0.728593
0.738117
0.749929
0.76348
0.776401
0.785385
0.792923
0.701834
0.707752
0.71582
0.721944
0.725001
0.724474
0.721366
0.717338
0.713703
0.711361
0.71116
0.713348
0.71705
0.721458
0.725532
0.727759
0.726672
0.722025
0.714965
0.707128
0.695115
0.697487
0.700749
0.703512
0.705949
0.708119
0.709273
0.709091
0.708105
0.707234
0.707376
0.70872
0.710447
0.711634
0.711528
0.710038
0.707863
0.705489
0.702497
0.699475
0.690369
0.691457
0.693368
0.695695
0.697551
0.698928
0.700117
0.70107
0.701615
0.701921
0.702392
0.703059
0.703464
0.703298
0.702632
0.701681
0.700329
0.698343
0.696224
0.694743
0.685402
0.686036
0.687159
0.688903
0.690728
0.692296
0.693513
0.694529
0.695447
0.69626
0.69695
0.697385
0.697452
0.697188
0.696606
0.695598
0.694144
0.692514
0.691163
0.690357
0.68055
0.680989
0.681772
0.683062
0.684563
0.686098
0.687536
0.688777
0.689857
0.690848
0.691688
0.692184
0.692277
0.691972
0.691253
0.69021
0.689022
0.687851
0.686931
0.686394
0.675805
0.676134
0.67674
0.677795
0.679067
0.680434
0.681867
0.683278
0.684584
0.685775
0.686788
0.687404
0.687521
0.68719
0.686523
0.685683
0.684792
0.683905
0.683223
0.682828
0.671146
0.671401
0.671889
0.672785
0.673932
0.675205
0.676576
0.678032
0.679516
0.680949
0.682186
0.682943
0.683147
0.682936
0.682465
0.681845
0.681153
0.680482
0.679976
0.679674
0.666507
0.66671
0.667116
0.667901
0.668968
0.67019
0.671543
0.673036
0.674648
0.676308
0.677809
0.678791
0.679197
0.6792
0.678943
0.678528
0.678025
0.677533
0.677162
0.676924
0.661805
0.661969
0.662316
0.663028
0.664047
0.665244
0.666619
0.668185
0.669933
0.671815
0.673623
0.674936
0.675637
0.675901
0.675872
0.675662
0.675349
0.675018
0.674757
0.674567
0.656961
0.657093
0.657398
0.658066
0.659067
0.660287
0.661719
0.663395
0.665328
0.667498
0.66969
0.671398
0.672449
0.673016
0.673244
0.673251
0.673124
0.672943
0.672774
0.672621
0.651893
0.652
0.652277
0.652925
0.653941
0.655224
0.656759
0.6586
0.660786
0.663314
0.665975
0.668172
0.669637
0.670548
0.671062
0.6713
0.671362
0.671328
0.67124
0.671115
0.646514
0.646599
0.64686
0.647513
0.648583
0.649971
0.65167
0.653753
0.656284
0.659289
0.662536
0.665303
0.667241
0.668534
0.669358
0.669856
0.670119
0.670221
0.670203
0.670101
0.640729
0.640795
0.641048
0.641729
0.642889
0.644433
0.646354
0.648753
0.651722
0.65531
0.659274
0.662746
0.665253
0.667001
0.668183
0.66897
0.669453
0.669698
0.669745
0.669662
0.634417
0.634464
0.634718
0.635449
0.636735
0.638485
0.640698
0.643496
0.647006
0.65132
0.656165
0.660481
0.663681
0.66598
0.667587
0.668695
0.669432
0.669831
0.669943
0.669877
0.627439
0.627465
0.627726
0.62853
0.629986
0.632005
0.634596
0.637901
0.642091
0.64729
0.653208
0.658567
0.662598
0.665545
0.667649
0.669146
0.670169
0.670735
0.670914
0.670862
0.61962
0.619635
0.619897
0.620794
0.622472
0.624839
0.627914
0.631882
0.636947
0.643269
0.650501
0.657101
0.662106
0.665805
0.66849
0.670441
0.67179
0.672539
0.672787
0.672747
0.610659
0.610647
0.610961
0.611999
0.613968
0.616777
0.620462
0.625248
0.631406
0.639131
0.647976
0.656051
0.662217
0.666818
0.670204
0.672698
0.674424
0.675379
0.675701
0.675671
0.600282
0.600246
0.600605
0.601823
0.60415
0.607524
0.611993
0.617825
0.625324
0.634738
0.645545
0.655429
0.663003
0.668686
0.672913
0.676052
0.678224
0.679416
0.679817
0.679794
0.588046
0.587989
0.588421
0.589875
0.592665
0.596775
0.602264
0.60945
0.618703
0.630274
0.643466
0.655472
0.664651
0.671581
0.67679
0.680673
0.683356
0.684808
0.685289
0.685269
0.573298
0.573218
0.573767
0.575557
0.578971
0.584069
0.590913
0.599871
0.611352
0.625598
0.641667
0.656163
0.66723
0.675602
0.681947
0.686696
0.689968
0.691704
0.692265
0.692243
0.555097
0.554997
0.555737
0.558015
0.562301
0.568762
0.577444
0.588754
0.603098
0.620627
0.640136
0.657559
0.670795
0.680826
0.688493
0.694248
0.698189
0.700231
0.700862
0.700829
0.532019
0.531917
0.532988
0.53603
0.541644
0.550132
0.561469
0.57604
0.594161
0.61581
0.639333
0.659984
0.675574
0.687442
0.696543
0.703417
0.708077
0.710416
0.711092
0.711035
0.501726
0.50167
0.503342
0.507714
0.515573
0.52722
0.542455
0.561488
0.584409
0.610962
0.639092
0.663374
0.681564
0.695404
0.70608
0.714163
0.71954
0.722128
0.722811
0.722716
0.460062
0.460209
0.463198
0.470368
0.482438
0.49931
0.520348
0.545449
0.574404
0.606726
0.639951
0.668054
0.688922
0.704786
0.717075
0.726382
0.732367
0.735074
0.735706
0.735566
0.399334
0.400638
0.407936
0.421541
0.441353
0.466545
0.495773
0.528574
0.564613
0.603352
0.642006
0.674064
0.697649
0.715507
0.729338
0.739738
0.746162
0.748785
0.74926
0.749084
0.326305
0.328897
0.343117
0.366649
0.397092
0.432181
0.470343
0.511368
0.555067
0.600969
0.646045
0.683117
0.710373
0.731075
0.746999
0.758658
0.765584
0.768298
0.76883
0.768774
0.251416
0.258295
0.279655
0.313102
0.353899
0.398652
0.445759
0.495103
0.54657
0.599762
0.651441
0.693725
0.724757
0.748395
0.766601
0.779642
0.786949
0.789484
0.789888
0.789926
0.190463
0.199162
0.225195
0.265702
0.314569
0.367505
0.422686
0.479833
0.538733
0.59893
0.656893
0.704078
0.738622
0.764883
0.785057
0.799268
0.806785
0.809404
0.810128
0.810252
0.14047
0.149874
0.179414
0.225179
0.280174
0.339669
0.401653
0.465677
0.531357
0.598093
0.661964
0.713714
0.751502
0.780125
0.802028
0.817433
0.825749
0.828933
0.829793
0.829945
0.0984116
0.108128
0.140083
0.189955
0.249975
0.314933
0.382668
0.452669
0.524409
0.597142
0.666532
0.722531
0.763271
0.794065
0.817606
0.834171
0.843311
0.846877
0.847864
0.848011
0.0618491
0.0717192
0.105503
0.158678
0.222893
0.292538
0.365294
0.440581
0.517789
0.596024
0.670531
0.730476
0.773897
0.806649
0.831595
0.849031
0.85877
0.862713
0.863818
0.86397
0.0291635
0.0391089
0.0743511
0.13027
0.198057
0.271759
0.348958
0.429012
0.51123
0.594565
0.67383
0.737445
0.783339
0.817773
0.843797
0.861837
0.872139
0.876414
0.877553
0.877691
-0.000829279
0.00917768
0.0455919
0.103899
0.174787
0.252041
0.333193
0.417584
0.504427
0.592549
0.676345
0.743431
0.791648
0.827529
0.854335
0.872771
0.883333
0.887855
0.889101
0.889242
-0.029019
-0.0189386
0.01857
0.078984
0.152588
0.232974
0.317664
0.40601
0.49715
0.58981
0.677991
0.748496
0.798948
0.836152
0.863573
0.882284
0.893051
0.897722
0.899015
0.899143
-0.0559458
-0.0457389
-0.0072308
0.0550729
0.131088
0.214258
0.302141
0.394098
0.48924
0.586231
0.678728
0.752685
0.805366
0.843833
0.87182
0.890811
0.901691
0.906411
0.907683
0.907759
-0.0819989
-0.0716116
-0.0321595
0.0318684
0.110035
0.195703
0.286476
0.381737
0.480607
0.581745
0.678542
0.756033
0.811001
0.85075
0.879315
0.898543
0.909506
0.9142
0.915439
0.915485
-0.107439
-0.0967911
-0.0564319
0.00918128
0.0892863
0.177189
0.270582
0.36887
0.471202
0.576318
0.677409
0.75856
0.815952
0.857072
0.886284
0.905754
0.916751
0.921381
0.922545
0.922567
-0.132326
-0.121404
-0.0801734
-0.0130965
0.0687602
0.158678
0.254432
0.355478
0.46102
0.569923
0.675294
0.760267
0.820284
0.862935
0.892885
0.912604
0.923568
0.928041
0.929083
0.929046
-0.156757
-0.145545
-0.103462
-0.0349957
0.0484379
0.140159
0.238037
0.341582
0.45008
0.562566
0.67215
0.761105
0.824019
0.86844
0.899231
0.919145
0.929958
0.934191
0.935059
0.934959
-0.180721
-0.169217
-0.126273
-0.0565176
0.0283354
0.121668
0.22145
0.327236
0.438422
0.554248
0.66793
0.760991
0.827133
0.873675
0.905468
0.925498
0.935962
0.939804
0.940474
0.940325
-0.204256
-0.192392
-0.148576
-0.0776342
0.00848954
0.103255
0.204727
0.31251
0.426111
0.544995
0.66259
0.759831
0.829544
0.878685
0.911789
0.931869
0.941695
0.944931
0.945348
0.945159
-0.227112
-0.215005
-0.170335
-0.0983085
-0.0110391
0.0850063
0.187946
0.297487
0.413229
0.534865
0.656104
0.757531
0.831124
0.883432
0.918405
0.938636
0.947428
0.949649
0.949683
0.949466
-0.249438
-0.236987
-0.191503
-0.118498
-0.0302045
0.0669715
0.171209
0.282257
0.399865
0.52394
0.648473
0.753992
0.831702
0.887733
0.925416
0.946369
0.953865
0.954325
0.953534
0.953279
-0.271038
-0.258285
-0.21205
-0.138141
-0.0489155
0.0492421
0.154602
0.266944
0.386131
0.512289
0.639732
0.749125
0.831087
0.891266
0.932606
0.955582
0.96241
0.960407
0.957521
0.956744
-0.292002
-0.278918
-0.231909
-0.15717
-0.0671276
0.0318912
0.138218
0.251634
0.372137
0.500051
0.629955
0.742835
0.829087
0.893613
0.939268
0.966029
0.974478
0.971285
0.964667
0.95503
-0.312209
-0.298874
-0.251169
-0.175754
-0.0850696
0.0146193
0.1217
0.2359
0.357407
0.48669
0.618588
0.734495
0.825184
0.894327
0.944464
0.976434
0.989711
0.987596
0.97694
0.973984
-0.331607
-0.31823
-0.269824
-0.193822
-0.102712
-0.00254687
0.105086
0.219724
0.34191
0.472087
0.605467
0.723678
0.818719
0.892613
0.946003
0.981644
0.998025
1.00044
0.966903
0.927469
-0.349964
-0.33684
-0.287827
-0.211236
-0.120028
-0.0196255