/*--------------------------------*- C++ -*----------------------------------*\
  =========                 |
  \\      /  F ield         | OpenFOAM: The Open Source CFD Toolbox
   \\    /   O peration     | Website:  https://openfoam.org
    \\  /    A nd           | Version:  6
     \\/     M anipulation  |
\*---------------------------------------------------------------------------*/
FoamFile
{
    version     2.0;
    format      ascii;
    class       surfaceScalarField;
    location    "37.9";
    object      phi;
}
// * * * * * * * * * * * * * * * * * * * * * * * * * * * * * * * * * * * * * //

dimensions      [0 3 -1 0 0 0 0];

internalField   nonuniform List<scalar> 
17370
(
-0.0900015
0.0898506
0.289162
-0.0714644
0.0537545
0.364485
-0.0381213
0.0276919
0.426598
-0.0196384
0.0146028
0.504287
-0.0107571
0.00826315
0.601896
-0.00626123
0.00488672
0.720432
-0.00373078
0.00290114
0.863736
-0.00217227
0.00162237
1.036
-0.00111219
0.000702444
1.24291
-0.000296216
-9.36864e-05
1.49158
0.000469908
-0.000874375
1.4916
0.00126874
-0.00175917
1.24318
0.00229334
-0.00300932
1.03635
0.00383156
-0.00498219
0.864057
0.00635154
-0.00834623
0.721052
0.0108328
-0.0146707
0.603052
0.0197
-0.027747
0.507486
0.0381707
-0.0537961
0.431794
0.0714979
-0.0898727
0.36515
0.0900141
0.198997
-0.12813
0.0882153
0.0399144
-0.364592
0.353365
-0.0746858
0.0859129
-0.446473
0.454311
-0.0844146
0.0765769
-0.521186
0.529893
-0.0684831
0.0597759
-0.612781
0.621559
-0.05159
0.0428123
-0.726886
0.734149
-0.035354
0.0280904
-0.86747
0.872566
-0.0225011
0.0174052
-1.03847
1.0419
-0.0136143
0.0101816
-1.24459
1.24702
-0.00758014
0.00515349
-1.49263
1.4946
-0.00321209
0.00124482
-1.4925
1.49421
0.000431266
-0.00214637
-1.24398
1.24587
0.00404594
-0.0059303
-1.03751
1.04005
0.00829435
-0.010838
-0.866102
0.869848
0.0142119
-0.0179575
-0.724395
0.729948
0.0230117
-0.0285649
-0.608705
0.616123
0.0357868
-0.0432049
-0.514904
0.523052
0.0519383
-0.0600863
-0.439861
0.447925
0.0687547
-0.0768187
-0.375301
0.376753
0.0846246
-0.0860764
-0.25734
0.2225
0.0747974
-0.0399582
-0.0684991
0.058668
0.00983109
-0.0518459
0.0584414
-0.374107
0.367511
-0.0575339
0.0537875
-0.453581
0.457327
-0.0486997
0.0447487
-0.527927
0.531878
-0.0409088
0.0372703
-0.621541
0.625179
-0.0331729
0.0291103
-0.735326
0.739388
-0.0245665
0.0204368
-0.874315
0.878445
-0.0161247
0.0124558
-1.04346
1.04713
-0.00874257
0.00558547
-1.24854
1.2517
-0.0022713
-0.000799467
-1.49666
1.49973
0.00384422
-0.00709746
-1.49722
1.50047
0.0101711
-0.013777
-1.25009
1.25369
0.0173471
-0.0215561
-1.04594
1.05015
0.0256017
-0.0300631
-0.877783
0.882244
0.0340532
-0.0380711
-0.739926
0.743944
0.0416366
-0.0453983
-0.6268
0.630562
0.0492834
-0.054309
-0.534833
0.539858
0.0579924
-0.0588206
-0.457497
0.458325
0.0521357
-0.0319603
-0.335789
0.315614
0.00987918
-0.0683725
0.0584933
-0.05291
0.0489083
0.00400173
-0.0332069
0.0437723
-0.358059
0.347494
-0.0474874
0.0468725
-0.459251
0.459866
-0.0438279
0.0404844
-0.535766
0.539109
-0.0367227
0.0334319
-0.628485
0.631776
-0.0300151
0.0270094
-0.742603
0.745608
-0.0237824
0.0206995
-0.881962
0.885045
-0.0171888
0.0138246
-1.05071
1.05407
-0.0100535
0.00653677
-1.25511
1.25863
-0.00259718
-0.00117472
-1.50321
1.50698
0.00492022
-0.00878262
-1.50414
1.508
0.0121916
-0.0158195
-1.25745
1.26108
0.0190393
-0.0223927
-1.05397
1.05732
0.0253455
-0.0284475
-0.885747
0.888849
0.0313488
-0.0346539
-0.747218
0.750523
0.0378419
-0.0414932
-0.634367
0.638018
0.0447426
-0.0476836
-0.544185
0.547126
0.0481925
-0.0443302
-0.456634
0.452771
0.033592
-0.0161824
-0.296284
0.278875
0.00406018
-0.052685
0.0486248
-0.0458223
0.0433199
0.00250236
-0.0228582
0.0332635
-0.336777
0.326372
-0.0391072
0.0401375
-0.45953
0.4585
-0.0389575
0.036676
-0.541804
0.544085
-0.0340132
0.0314248
-0.634799
0.637387
-0.0283794
0.02551
-0.74864
0.751509
-0.022294
0.0193512
-0.887991
0.890933
-0.0161031
0.0130498
-1.05718
1.06024
-0.00956639
0.00618989
-1.26207
1.26544
-0.00225294
-0.00161235
-1.51085
1.51472
0.00544524
-0.00927796
-1.5119
1.51573
0.0125128
-0.0158035
-1.26453
1.26782
0.0186644
-0.0217024
-1.06043
1.06347
0.0244665
-0.0275079
-0.891919
0.89496
0.0302321
-0.0331258
-0.753746
0.75664
0.0355768
-0.0380936
-0.641105
0.643622
0.0402508
-0.0412721
-0.548954
0.549975
0.0400804
-0.0340042
-0.44753
0.441454
0.0233485
-0.0101858
-0.263706
0.250543
0.00257383
-0.0454765
0.0429027
-0.0412356
0.0394603
0.00177531
-0.0168055
0.026091
-0.316484
0.307198
-0.0327329
0.0348999
-0.456872
0.454705
-0.0345014
0.0328482
-0.546042
0.547695
-0.0306842
0.0286099
-0.639667
0.641741
-0.0262121
0.0238556
-0.754131
0.756487
-0.0210484
0.0183017
-0.893798
0.896545
-0.0151073
0.0120773
-1.06324
1.06627
-0.00863328
0.00535574
-1.26873
1.27201
-0.00157238
-0.00212065
-1.51848
1.52217
0.00576705
-0.00941572
-1.51947
1.52312
0.012516
-0.0157216
-1.27108
1.27429
0.0185112
-0.0214336
-1.0665
1.06942
0.0239446
-0.026517
-0.897789
0.900361
0.0286796
-0.0308808
-0.759115
0.761317
0.0327821
-0.0347614
-0.645815
0.647794
0.0362368
-0.0364198
-0.550532
0.550715
0.0340075
-0.0270305
-0.434848
0.427871
0.0174121
-0.00734224
-0.239077
0.229007
0.00186195
-0.040742
0.0388801
-0.0379288
0.0365909
0.00133796
-0.0128489
0.0208314
-0.298567
0.290585
-0.0276211
0.0305741
-0.452105
0.449152
-0.0308064
0.0297137
-0.549082
0.550174
-0.0277483
0.0258635
-0.643728
0.645613
-0.0237082
0.0216226
-0.758695
0.760781
-0.019173
0.016751
-0.899095
0.901517
-0.0138753
0.0110579
-1.06917
1.07199
-0.00776117
0.0045722
-1.27522
1.27841
-0.000867367
-0.00273672
-1.5258
1.5294
0.00628382
-0.00981881
-1.52671
1.53025
0.0127765
-0.0157642
-1.27744
1.28043
0.0182703
-0.0207958
-1.07219
1.07471
0.0229128
-0.0250602
-0.902686
0.904834
0.0269001
-0.0288084
-0.763318
0.765227
0.0304781
-0.0322245
-0.649632
0.651378
0.0330659
-0.0325391
-0.550549
0.550022
0.0292412
-0.0219979
-0.420705
0.413462
0.0135913
-0.00565933
-0.22011
0.212179
0.00144297
-0.0372556
0.0358127
-0.0354201
0.0343864
0.00103374
-0.0100529
0.0168062
-0.28324
0.276487
-0.0233368
0.0267503
-0.445946
0.442532
-0.0275646
0.026888
-0.551047
0.551723
-0.0251497
0.0233927
-0.647473
0.64923
-0.0213737
0.0194227
-0.762807
0.764758
-0.0171359
0.0148878
-0.903782
0.90603
-0.0122316
0.00961676
-1.07462
1.07724
-0.00653452
0.00351917
-1.28148
1.28449
1.57556e-05
-0.00346273
-1.53293
1.53638
0.00683977
-0.0101642
-1.53371
1.53703
0.0128945
-0.0155971
-1.2833
1.286
0.0178308
-0.0200576
-1.07708
1.0793
0.0219283
-0.0238373
-0.906823
0.908732
0.0254785
-0.0271888
-0.76701
0.76872
0.0286816
-0.030123
-0.653013
0.654455
0.0304827
-0.0292567
-0.549168
0.547942
0.0253685
-0.0182435
-0.406258
0.399133
0.0109599
-0.0045336
-0.205072
0.198646
0.00116145
-0.0345292
0.0333677
-0.0334776
0.0326708
0.000806812
-0.00797201
0.0136475
-0.2703
0.264624
-0.0196909
0.0233101
-0.438996
0.435377
-0.0246277
0.0242349
-0.552279
0.552672
-0.0228127
0.0212054
-0.650955
0.652562
-0.0193071
0.0174448
-0.76668
0.768542
-0.0152356
0.0130559
-0.908197
0.910377
-0.0104946
0.00799956
-1.07973
1.08222
-0.00508374
0.00223952
-1.28737
1.29022
0.00109322
-0.00434401
-1.53969
1.54294
0.00750778
-0.0105814
-1.54023
1.5433
0.0130805
-0.0155369
-1.28862
1.29107
0.0175706
-0.0196066
-1.08147
1.08351
0.0213143
-0.023035
-0.910552
0.912272
0.0244929
-0.0259977
-0.7703
0.771805
0.027278
-0.02833
-0.65567
0.656723
0.028323
-0.0264503
-0.546401
0.544529
0.0222073
-0.0154078
-0.392171
0.385372
0.00907692
-0.00373841
-0.192817
0.187479
0.000961507
-0.0323216
0.0313601
-0.0319622
0.0313321
0.000630162
-0.00635898
0.0111105
-0.259439
0.254687
-0.0165568
0.0201684
-0.431762
0.42815
-0.0217938
0.0216053
-0.55299
0.553179
-0.0203885
0.018822
-0.654184
0.655751
-0.0169869
0.0152096
-0.770369
0.772147
-0.0131247
0.0110738
-0.91242
0.914471
-0.00865094
0.00627513
-1.08457
1.08695
-0.00348822
0.000773446
-1.29294
1.29566
0.00238444
-0.00543579
-1.54608
1.54913
0.00838315
-0.0112242
-1.54627
1.54911
0.0135132
-0.0157292
-1.29344
1.29565
0.0175304
-0.0193002
-1.08542
1.08719
0.020766
-0.0222485
-0.913878
0.915361
0.0235303
-0.0248849
-0.773212
0.774567
0.0260606
-0.0267588
-0.657586
0.658285
0.0264084
-0.0240486
-0.542433
0.540073
0.0196361
-0.0132501
-0.378793
0.372407
0.00769817
-0.00316277
-0.182583
0.178048
0.000816792
-0.0304837
0.0296669
-0.0307823
0.0302947
0.000487577
-0.00505338
0.00900239
-0.250363
0.246414
-0.0138076
0.0172824
-0.424616
0.421141
-0.0191271
0.0191728
-0.553301
0.553256
-0.0181961
0.0166993
-0.657358
0.658855
-0.0149069
0.0131461
-0.773912
0.775673
-0.0110688
0.00903184
-0.916415
0.918452
-0.00664647
0.00433319
-1.0892
1.09151
-0.00165024
-0.000930546
-1.29824
1.30083
0.00390149
-0.00674176
-1.55203
1.55487
0.00945243
-0.0120362
-1.55184
1.55442
0.0141013
-0.0161013
-1.29781
1.2998
0.0177247
-0.0193183
-1.0889
1.09049
0.0206386
-0.0219735
-0.916762
0.918097
0.0231143
-0.0242921
-0.775819
0.776997
0.0252662
-0.0255967
-0.658784
0.659115
0.0248895
-0.0220962
-0.537525
0.534732
0.0176014
-0.0116263
-0.366245
0.36027
0.0066941
-0.00275336
-0.173845
0.169904
0.000717326
-0.0289133
0.0281959
-0.0298776
0.0295126
0.00036498
-0.00394634
0.00718043
-0.24285
0.239616
-0.011315
0.0145136
-0.417826
0.414627
-0.016412
0.016631
-0.553168
0.552949
-0.0157718
0.0143948
-0.66035
0.661727
-0.0126426
0.0108991
-0.777416
0.779159
-0.00883512
0.00681983
-0.920383
0.922398
-0.00447847
0.00222856
-1.0937
1.09595
0.000364345
-0.00284518
-1.30328
1.30576
0.00568756
-0.00838055
-1.55759
1.56029
0.0109153
-0.0132809
-1.55689
1.55926
0.0151222
-0.0168663
-1.30172
1.30346
0.0182662
-0.0196303
-1.09202
1.09338
0.020753
-0.0218814
-0.919362
0.92049
0.022852
-0.0238561
-0.778077
0.779081
0.0245805
-0.0246429
-0.659292
0.659354
0.0235488
-0.0204359
-0.531801
0.528688
0.0159577
-0.0103807
-0.354527
0.34895
0.00594486
-0.00245191
-0.166223
0.16273
0.000644224
-0.0275304
0.0268862
-0.0292109
0.0289553
0.000255594
-0.00296543
0.005547
-0.236734
0.234153
-0.00901212
0.0118593
-0.411642
0.408795
-0.0136978
0.0139927
-0.552776
0.552481
-0.0131687
0.0118274
-0.663168
0.664509
-0.010063
0.00831608
-0.780865
0.782612
-0.00627341
0.00429519
-0.924255
0.926234
-0.00200399
-0.000196897
-1.09805
1.10025
0.00272625
-0.00513137
-1.30813
1.31054
0.00784418
-0.0103592
-1.56285
1.56537
0.0126863
-0.0148295
-1.56152
1.56366
0.0164678
-0.017977
-1.30514
1.30665
0.0191475
-0.0202514
-1.09466
1.09577
0.021141
-0.0220416
-0.921527
0.922428
0.0228311
-0.0236555
-0.779959
0.780783
0.0241553
-0.023959
-0.659259
0.659062
0.02252
-0.0191375
-0.525477
0.522094
0.014697
-0.00946005
-0.343581
0.338344
0.00540888
-0.00224507
-0.159437
0.156273
0.000597548
-0.0262813
0.0256837
-0.0287598
0.0286118
0.000147953
-0.00203393
0.00398877
-0.23191
0.229955
-0.00676137
0.00917777
-0.406204
0.403788
-0.0108681
0.0112115
-0.552257
0.551914
-0.0104649
0.00918711
-0.665919
0.667197
-0.00742
0.00563312
-0.784331
0.786118
-0.003531
0.00149994
-0.928088
0.930119
0.000835398
-0.00305328
-1.10234
1.10456
0.00555933
-0.00789353
-1.31282
1.31515
0.0104685
-0.0128046
-1.56773
1.57006
0.0149072
-0.0167842
-1.56566
1.56754
0.0181755
-0.0194236
-1.30808
1.30933
0.0203845
-0.0212868
-1.0968
1.09771
0.0220087
-0.0227171
-0.923266
0.923975
0.0233141
-0.0239135
-0.78152
0.78212
0.0240646
-0.0235882
-0.658657
0.658181
0.0218005
-0.0181534
-0.518631
0.514984
0.0137487
-0.0087925
-0.333299
0.328343
0.00503598
-0.00211015
-0.153269
0.150343
0.000570892
-0.0251194
0.0245485
-0.0285204
0.0284813
3.91282e-05
-0.00110718
0.00243704
-0.228335
0.227005
-0.00448531
0.00638361
-0.401677
0.399779
-0.00779123
0.0080799
-0.551711
0.551423
-0.00735902
0.00612179
-0.668554
0.669791
-0.00434072
0.0025067
-0.787857
0.789691
-0.000333528
-0.00175612
-0.932025
0.934114
0.0041318
-0.00635324
-1.10665
1.10887
0.00883162
-0.0111134
-1.31737
1.31965
0.013607
-0.0158239
-1.57229
1.5745
0.0177585
-0.0193898
-1.56928
1.57091
0.0205258
-0.0214812
-1.3105
1.31146
0.0221618
-0.0227637
-1.09852
1.09912
0.0232156
-0.0236486
-0.924591
0.925024
0.0240211
-0.0243867
-0.782567
0.782933
0.024233
-0.0233811
-0.657383
0.656531
0.0212306
-0.017375
-0.511301
0.507446
0.0130281
-0.00831014
-0.323575
0.318857
0.00478058
-0.00202548
-0.147549
0.144794
0.000556973
-0.0240065
0.0234495
-0.0284995
0.0285706
-7.11626e-05
-0.000141522
0.000839566
-0.22601
0.225312
-0.00214231
0.0034661
-0.39823
0.396907
-0.00448362
0.00459821
-0.551381
0.551266
-0.00378047
0.00245971
-0.671184
0.672505
-0.00058597
-0.00132306
-0.791466
0.793375
0.00354815
-0.00566389
-0.936034
0.938149
0.00806294
-0.0103094
-1.11095
1.1132
0.0128069
-0.0150698
-1.32181
1.32408
0.0174667
-0.0195147
-1.57657
1.57862
0.0212021
-0.022555
-1.57239
1.57374
0.0234126
-0.0240449
-1.3123
1.31293
0.0244282
-0.0246802
-1.09961
1.09986
0.024814
-0.0249361
-0.925372
0.925494
0.0250879
-0.0251819
-0.783067
0.783161
0.0247937
-0.0235292
-0.655333
0.654069
0.0210409
-0.0169691
-0.503611
0.499539
0.0126296
-0.00806042
-0.314306
0.309737
0.00467034
-0.00200573
-0.142141
0.139476
0.000561519
-0.0229164
0.0223549
-0.028707
0.0289176
-0.000210635
0.000856141
-0.000861393
-0.224964
0.224969
0.000373157
0.000304042
-0.395969
0.395291
-0.000860647
0.000766445
-0.551467
0.551561
0.000141232
-0.00153331
-0.674017
0.675409
0.0034916
-0.00550727
-0.795214
0.797229
0.00787238
-0.0101265
-0.940109
0.942363
0.0126701
-0.0150186
-1.11532
1.11767
0.017576
-0.019844
-1.32623
1.32849
0.0221743
-0.0240713
-1.58051
1.58241
0.025544
-0.0265986
-1.57493
1.57598
0.0271505
-0.027421
-1.31345
1.31372
0.0274719
-0.0273887
-1.09999
1.09991
0.0272257
-0.0270261
-0.925503
0.925304
0.0268646
-0.0265727
-0.782908
0.782616
0.0258613
-0.0240959
-0.652536
0.650771
0.0212007
-0.0168615
-0.49549
0.491151
0.012488
-0.00800109
-0.305317
0.30083
0.00467998
-0.00203986
-0.136887
0.134247
0.000581739
-0.0218116
0.0212298
-0.0291929
0.0295361
-0.000343165
0.001962
-0.00264766
-0.225268
0.225954
0.00306832
-0.00316486
-0.39505
0.395147
0.00323016
-0.00364162
-0.552075
0.552487
0.00465759
-0.00613776
-0.677006
0.678486
0.00822816
-0.0104167
-0.799189
0.801378
0.0130106
-0.0154722
-0.944498
0.946959
0.0182164
-0.0207088
-1.11991
1.1224
0.0233679
-0.0256603
-1.33064
1.33293
0.0279345
-0.0296789
-1.58413
1.58588
0.0308976
-0.0315928
-1.57682
1.57751
0.0318056
-0.0316872
-1.31385
1.31374
0.0313835
-0.0309241
-1.09967
1.09921
0.030436
-0.0298691
-0.924924
0.924357
0.0293425
-0.0285804
-0.781903
0.781141
0.02739
-0.0250247
-0.648784
0.646419
0.0217089
-0.0171023
-0.486879
0.482273
0.0126464
-0.00814872
-0.296476
0.291978
0.00481165
-0.00212443
-0.131661
0.128974
0.000614766
-0.0206641
0.0200493
-0.0299663
0.030491
-0.000524723
0.00322968
-0.00469502
-0.22705
0.228515
0.00604243
-0.00698831
-0.395672
0.396618
0.00782826
-0.00872969
-0.553462
0.554363
0.0100734
-0.0117946
-0.680267
0.681988
0.0141316
-0.0165353
-0.803499
0.805902
0.0193493
-0.0219978
-0.949248
0.951896
0.0249337
-0.0275815
-1.12475
1.1274
0.030377
-0.0327352
-1.33511
1.33747
0.0349821
-0.0365837
-1.58747
1.58907
0.0375382
-0.0378553
-1.57798
1.5783
0.0376773
-0.0370933
-1.31341
1.31282
0.0363378
-0.035388
-1.0985
1.09755
0.034469
-0.0334622
-0.923515
0.922509
0.0325725
-0.0312768
-0.779903
0.778608
0.0295615
-0.0266228
-0.643933
0.640994
0.0228505
-0.0178755
-0.477746
0.472771
0.0132149
-0.00856772
-0.287574
0.282927
0.00510083
-0.00227192
-0.12631
0.123481
0.000662506
-0.0194486
0.0187861
-0.0311132
0.031863
-0.000749815
0.00473621
-0.00707714
-0.230434
0.232774
0.00945808
-0.0112944
-0.397993
0.399829
0.0129696
-0.0144372
-0.555951
0.557418
0.016222
-0.01828
-0.684095
0.686153
0.0209794
-0.0237101
-0.808253
0.810984
0.0268759
-0.0298351
-0.954397
0.957356
0.0330913
-0.0359966
-1.12993
1.13284
0.0389998
-0.041448
-1.33969
1.34214
0.0436369
-0.0450201
-1.59044
1.59183
0.0456225
-0.0454963
-1.57833
1.57821
0.0448597
-0.0437808
-1.31198
1.3109
0.0425537
-0.0410786
-1.09628
1.09481
0.0396869
-0.0381842
-0.921153
0.91965
0.0368734
-0.0350345
-0.77683
0.774992
0.0327705
-0.0291594
-0.637967
0.634356
0.0248093
-0.019329
-0.467864
0.462384
0.0143226
-0.00935048
-0.278325
0.273353
0.0056
-0.00250102
-0.120632
0.117533
0.000728164
-0.0181347
0.0174066
-0.0327052
0.033739
-0.00103384
0.00654222
-0.00989607
-0.235586
0.23894
0.0134631
-0.0163073
-0.402232
0.405076
0.0189102
-0.0210155
-0.559708
0.561813
0.0233174
-0.0257828
-0.688663
0.691128
0.0289439
-0.0321185
-0.813671
0.816845
0.035782
-0.0391808
-0.960201
0.9636
0.0428791
-0.0461219
-1.13565
1.13889
0.0494029
-0.0519958
-1.34445
1.34705
0.0542039
-0.0554319
-1.593
1.59423
0.0557139
-0.0550996
-1.57777
1.57715
0.0539429
-0.0522556
-1.30945
1.30777
0.0504911
-0.0484465
-1.09293
1.09088
0.0465525
-0.044515
-0.917703
0.915666
0.0426427
-0.0401816
-0.772649
0.770188
0.0372377
-0.0328477
-0.630674
0.626284
0.0278274
-0.0216981
-0.456988
0.450859
0.0161514
-0.0106049
-0.268357
0.26281
0.00636667
-0.0028365
-0.114356
0.110826
0.000819582
-0.0166845
0.0158649
-0.0348471
0.0362595
-0.00141239
0.00885106
-0.0134273
-0.242739
0.247315
0.0183694
-0.0223706
-0.408663
0.412664
0.0260434
-0.0289488
-0.564991
0.567897
0.0319753
-0.0350509
-0.694174
0.69725
0.0388883
-0.0426771
-0.820001
0.82379
0.0470013
-0.0509575
-0.966914
0.97087
0.0551881
-0.0588133
-1.14204
1.14567
0.0623686
-0.0650548
-1.34948
1.35216
0.0671681
-0.0680928
-1.59517
1.59609
0.0678957
-0.06664
-1.57614
1.57489
0.0648552
-0.0624686
-1.30565
1.30326
0.0600947
-0.0574331
-1.08832
1.08566
0.0550228
-0.0524119
-0.91305
0.910439
0.0499281
-0.0467613
-0.767247
0.76408
0.0430922
-0.0378666
-0.621857
0.616631
0.0320619
-0.0250624
-0.444811
0.437812
0.0187112
-0.0123038
-0.257154
0.250747
0.00737325
-0.00326504
-0.107164
0.103056
0.000933849
-0.0150458
0.014112
-0.0377159
0.0396733
-0.0019574
0.0120468
-0.0181856
-0.25228
0.258419
0.0247516
-0.0300717
-0.417709
0.423029
0.0349858
-0.0389378
-0.572261
0.576213
0.0429841
-0.0469687
-0.70109
0.705074
0.0517907
-0.0564008
-0.827586
0.832196
0.0615219
-0.0661005
-0.974741
0.97932
0.0708735
-0.0748454
-1.14916
1.15313
0.0785797
-0.0812158
-1.35459
1.35723
0.0830038
-0.0833916
-1.59659
1.59698
0.0824847
-0.080407
-1.57313
1.57105
0.0778734
-0.074683
-1.30036
1.29717
0.0715933
-0.068189
-1.08237
1.07897
0.0651682
-0.0620089
-0.907148
0.903989
0.0589275
-0.0550786
-0.760401
0.756552
0.0506316
-0.0444099
-0.611363
0.605141
0.037582
-0.0293792
-0.430858
0.422655
0.0219117
-0.0143568
-0.244165
0.23661
0.00855466
-0.00375596
-0.098787
0.0939883
0.0010627
-0.0131784
0.0121157
-0.0416185
0.0444206
-0.0028021
0.0167486
-0.0249544
-0.264875
0.273081
0.0335021
-0.0403783
-0.429951
0.436827
0.0467797
-0.0519954
-0.582053
0.587269
0.0573872
-0.0626296
-0.709993
0.715235
0.0686548
-0.0742024
-0.836799
0.842347
0.0801868
-0.0853864
-0.98379
0.98899
0.0906426
-0.0948408
-1.15689
1.16109
0.0985705
-0.100954
-1.35948
1.36186
0.102179
-0.101777
-1.59677
1.59637
0.0999356
-0.0968128
-1.56832
1.56519
0.0933423
-0.0891915
-1.29337
1.28922
0.0853157
-0.0811529
-1.07488
1.07072
0.0775208
-0.0737129
-0.899985
0.896177
0.0700013
-0.0653548
-0.752082
0.747435
0.0599134
-0.0523709
-0.59878
0.591238
0.0441926
-0.0344317
-0.414452
0.404691
0.0255488
-0.0165973
-0.228871
0.219919
0.00979385
-0.0042496
-0.0890424
0.0834981
0.0011864
-0.0110629
0.00987648
-0.0471063
0.0513571
-0.00425085
0.0241795
-0.0352454
-0.281656
0.292722
0.0464062
-0.0553905
-0.446374
0.455359
0.0635492
-0.0702023
-0.594856
0.601509
0.0771588
-0.0837661
-0.721336
0.727943
0.0910342
-0.0974857
-0.847824
0.854275
0.10421
-0.10985
-0.994003
0.999643
0.115328
-0.119492
-1.16493
1.16909
0.122913
-0.124781
-1.3637
1.36557
0.125184
-0.123805
-1.59526
1.59388
0.120874
-0.116562
-1.56132
1.55701
0.112051
-0.106803
-1.28434
1.27909
0.101972
-0.0968415
-1.06571
1.06058
0.0924151
-0.0877874
-0.891254
0.886626
0.0832936
-0.077517
-0.741896
0.736119
0.0707603
-0.0615255
-0.583408
0.574173
0.0516789
-0.0400299
-0.394899
0.38325
0.029442
-0.0188798
-0.210856
0.200294
0.0109862
-0.00468907
-0.0778809
0.0715838
0.00128378
-0.00872144
0.00743767
-0.0552482
0.062533
-0.00728484
0.037471
-0.0528975
-0.304773
0.320199
0.0678376
-0.0796238
-0.468461
0.480247
0.0896323
-0.0976312
-0.610996
0.618995
0.106105
-0.113924
-0.735104
0.742922
0.122083
-0.12895
-0.860407
0.867275
0.135815
-0.141341
-1.00485
1.01037
0.146451
-0.150023
-1.17263
1.1762
0.152562
-0.153375
-1.36663
1.36744
0.15242
-0.149597
-1.59157
1.58875
0.145157
-0.139325
-1.55182
1.54599
0.133532
-0.12703
-1.27308
1.26657
0.121148
-0.114945
-1.05447
1.04827
0.109591
-0.103913
-0.880534
0.874857
0.0984137
-0.0912289
-0.729043
0.721858
0.0829533
-0.0717736
-0.564456
0.553277
0.0598785
-0.0459219
-0.371459
0.357502
0.033405
-0.0211304
-0.189831
0.177556
0.0120966
-0.00505241
-0.0654086
0.0583644
0.00133809
-0.0062186
0.00488051
-0.0693899
0.0733815
-0.00399159
0.0282584
-0.0416967
-0.338255
0.351693
0.0550988
-0.0658503
-0.497438
0.50819
0.0754766
-0.0845714
-0.630303
0.639398
0.0949531
-0.104249
-0.750195
0.759491
0.114557
-0.123688
-0.873182
0.882313
0.133353
-0.141837
-1.01498
1.02346
0.150514
-0.157679
-1.17868
1.18585
0.164386
-0.169159
-1.36702
1.3718
0.172473
-0.173233
-1.58458
1.58534
0.171337
-0.167288
-1.53895
1.5349
0.162205
-0.155685
-1.25915
1.25263
0.149474
-0.142101
-1.04106
1.03369
0.135596
-0.128473
-0.867395
0.860271
0.121573
-0.11234
-0.713135
0.703901
0.100649
-0.0850017
-0.54124
0.525593
0.0688124
-0.0504076
-0.343188
0.324783
0.0349575
-0.0208544
-0.165676
0.151573
0.0111787
-0.00430851
-0.0519576
0.0450873
0.00098381
-0.00365626
0.00267245
-0.0806943
0.0785933
0.00210105
0.00677646
-0.0152439
-0.367913
0.37638
0.0253573
-0.0332002
-0.523479
0.531322
0.041089
-0.0489294
-0.651101
0.658941
0.0584914
-0.0672946
-0.768427
0.77723
0.0766594
-0.0851777
-0.890948
0.899466
0.0941534
-0.101662
-1.03167
1.03918
0.10948
-0.11554
-1.19277
1.19883
0.121086
-0.124641
-1.37612
1.37967
0.126344
-0.125684
-1.58497
1.58431
0.122459
-0.117109
-1.52969
1.52434
0.110712
-0.102864
-1.24524
1.23739
0.0954652
-0.0872995
-1.02553
1.01737
0.0799012
-0.0717391
-0.851004
0.842842
0.0640444
-0.0551637
-0.690289
0.681408
0.0454761
-0.033882
-0.507436
0.495842
0.0235524
-0.0142746
-0.305848
0.296571
0.00812654
-0.00378846
-0.137945
0.133607
0.00141539
-0.000240074
-0.0385355
0.0373602
-9.93394e-05
-0.0013921
0.00149144
-0.0817893
0.0788765
0.00291283
-0.00193231
-0.00271421
-0.387823
0.392469
0.00926059
-0.0151548
-0.54295
0.548844
0.0213234
-0.0281908
-0.66904
0.675907
0.0366038
-0.0443515
-0.785181
0.792929
0.0527964
-0.0602959
-0.907277
0.914776
0.0679182
-0.0746343
-1.04651
1.05323
0.0814213
-0.0867743
-1.20444
1.20979
0.0912574
-0.0939609
-1.38256
1.38526
0.0952284
-0.0942278
-1.58305
1.58205
0.0909165
-0.0857256
-1.5186
1.51341
0.0796698
-0.0723896
-1.22962
1.22234
0.0649521
-0.0565684
-1.00864
1.00026
0.0483912
-0.0388102
-0.833059
0.823478
0.0298497
-0.0202188
-0.66792
0.658289
0.0118079
-0.0034791
-0.481975
0.473646
-0.0017575
0.00454911
-0.286126
0.283334
-0.00519059
0.00449547
-0.127925
0.12862
-0.00324745
0.0017066
-0.0355333
0.0370742
-0.000616843
-0.00104349
0.00166033
-0.0804386
0.0776163
0.00282235
-0.00555565
0.00340865
-0.400817
0.402964
0.000689875
-0.00516904
-0.557748
0.562228
0.010541
-0.0163984
-0.684015
0.689872
0.0237122
-0.0304813
-0.800143
0.806912
0.0378022
-0.0442854
-0.921786
0.928269
0.051227
-0.0569567
-1.05951
1.06524
0.0629583
-0.0673023
-1.21477
1.21911
0.0713201
-0.0737967
-1.38786
1.39034
0.0749046
-0.0738634
-1.58092
1.57988
0.0711191
-0.0666491
-1.50811
1.50364
0.0611915
-0.0540597
-1.2151
1.20797
0.0468421
-0.0382562
-0.991229
0.982643
0.0293597
-0.0191745
-0.812331
0.802146
0.00954974
-0.00016347
-0.645099
0.635713
-0.00682895
0.0117867
-0.463389
0.458431
-0.0135622
0.0128277
-0.277619
0.278354
-0.0109141
0.00794734
-0.12789
0.130856
-0.0052661
0.00253202
-0.0377475
0.0404816
-0.000813872
-0.00170334
0.00251722
-0.0788613
0.0763992
0.00246209
-0.00664895
0.00605774
-0.409376
0.409967
-0.00306996
-0.000256173
-0.569671
0.572997
0.00462194
-0.00995025
-0.696757
0.702085
0.0161493
-0.0221541
-0.813049
0.819054
0.0285434
-0.0342162
-0.934335
0.940008
0.0402367
-0.0454324
-1.07086
1.07605
0.0506593
-0.0548443
-1.22339
1.22758
0.0585598
-0.0609191
-1.39262
1.39498
0.0620651
-0.0611985
-1.57892
1.57805
0.0586925
-0.0542794
-1.49869
1.49428
0.0490016
-0.0421228
-1.20079
1.19391
0.0349519
-0.0262291
-0.973438
0.964715
0.0176128
-0.00790497
-0.790969
0.781261
-0.000599216
0.00849885
-0.624467
0.616567
-0.0137085
0.0168917
-0.450776
0.447593
-0.0174578
0.0154621
-0.275205
0.277201
-0.0125097
0.00893552
-0.132092
0.135666
-0.00578477
0.00269482
-0.0422762
0.0453662
-0.000837388
-0.00289705
0.00373444
-0.0774455
0.0753626
0.00208287
-0.00647395
0.00635851
-0.415096
0.415211
-0.00472098
0.00204801
-0.578835
0.581508
0.00214568
-0.00668773
-0.707603
0.712145
0.0120107
-0.0172251
-0.824302
0.829516
0.0229134
-0.0280254
-0.94536
0.950472
0.0336295
-0.0383184
-1.08103
1.08571
0.0432165
-0.047206
-1.23158
1.23557
0.0507528
-0.0530366
-1.39721
1.39949
0.054143
-0.0536409
-1.57719
1.57669
0.051106
-0.0468436
-1.4894
1.48514
0.0415873
-0.0347985
-1.18674
1.17995
0.0280684
-0.0197194
-0.955759
0.94741
0.0118159
-0.00337044
-0.771277
0.762832
-0.00386646
0.0104165
-0.607535
0.600985
-0.0145188
0.0168677
-0.441771
0.439422
-0.0169036
0.0148946
-0.275306
0.277315
-0.0121105
0.00860742
-0.137417
0.14092
-0.00548716
0.00257166
-0.0472903
0.0502058
-0.000797247
-0.00413918
0.00493643
-0.0764105
0.0748119
0.00159862
-0.00547394
0.00564743
-0.419238
0.419064
-0.004328
0.00240471
-0.58675
0.588673
0.00141127
-0.00545183
-0.716936
0.720977
0.010428
-0.0148933
-0.83435
0.838815
0.0198982
-0.0244852
-0.955582
0.960169
0.0299084
-0.0343085
-1.09049
1.09489
0.0388645
-0.0428244
-1.23947
1.24343
0.0466867
-0.0489468
-1.40187
1.40413
0.0501823
-0.0496053
-1.57579
1.57522
0.04739
-0.0429725
-1.48058
1.47616
0.0380519
-0.0317673
-1.17296
1.16668
0.0254308
-0.018108
-0.939182
0.931859
0.0111722
-0.00381339
-0.754138
0.74678
-0.00200251
0.00752906
-0.593382
0.587856
-0.0111378
0.0130492
-0.434654
0.432742
-0.0132848
0.0119477
-0.27606
0.277397
-0.0097148
0.00686759
-0.142399
0.145246
-0.00435923
0.00206525
-0.0517558
0.0540498
-0.000659587
-0.00525996
0.00591955
-0.0759231
0.0746991
0.00122409
-0.00424527
0.00449479
-0.422489
0.42224
-0.00326323
0.00147078
-0.593491
0.595284
0.00199033
-0.00552992
-0.72516
0.7287
0.00972121
-0.0139777
-0.84324
0.847496
0.0186091
-0.0233811
-0.964597
0.969369
0.0281695
-0.0324872
-1.09945
1.10377
0.0372917
-0.0411268
-1.24734
1.25117
0.044608
-0.0473081
-1.40633
1.40903
0.0486984
-0.0483431
-1.57467
1.57431
0.0461947
-0.0422773
-1.47186
1.46794
0.0377057
-0.0319103
-1.1601
1.15431
0.0262621
-0.0197786
-0.92455
0.918066
0.0137955
-0.00769014
-0.739554
0.733448
0.0025045
0.00215514
-0.581537
0.576877
-0.00525077
0.00726098
-0.42834
0.42633
-0.00787693
0.00714542
-0.275942
0.276673
-0.00585462
0.00409422
-0.145777
0.147537
-0.0026064
0.00125078
-0.0548838
0.0562395
-0.000420599
-0.00608147
0.00650207
-0.0760173
0.0750145
0.00100281
-0.00280073
0.00272988
-0.425455
0.425526
-0.00164004
-0.000153711
-0.599574
0.601368
0.00321998
-0.00655855
-0.732637
0.735976
0.0105036
-0.0143252
-0.851562
0.855383
0.0190785
-0.023105
-0.9736
0.977626
0.0279336
-0.0321553
-1.1083
1.11252
0.036921
-0.0409942
-1.25503
1.2591
0.0447916
-0.0472722
-1.41151
1.41399
0.0489503
-0.0489075
-1.57384
1.57379
0.0473242
-0.043685
-1.46387
1.46023
0.0395824
-0.034324
-1.14863
1.14337
0.0292892
-0.0234734
-0.911486
0.90567
0.0182899
-0.0127915
-0.727121
0.721622
0.00817081
-0.00382727
-0.571392
0.567049
0.000685382
0.00135984
-0.422176
0.420131
-0.00236045
0.00242838
-0.274587
0.274519
-0.00218331
0.00154738
-0.147087
0.147723
-0.00101676
0.000550773
-0.0562238
0.0566898
-0.000213923
-0.00647341
0.00668733
-0.0764426
0.0757639
0.000678754
-0.00151789
0.000917623
-0.428649
0.429249
1.15225e-05
-0.00194298
-0.604881
0.606813
0.00467631
-0.00786128
-0.739458
0.742643
0.0115942
-0.0155239
-0.85909
0.863019
0.0196789
-0.0239004
-0.981894
0.986115
0.0287395
-0.0327957
-1.1172
1.12125
0.0376922
-0.0417414
-1.26301
1.26706
0.0455854
-0.0485617
-1.41687
1.41985
0.0506708
-0.0508562
-1.57375
1.57394
0.0494667
-0.0465272
-1.45673
1.45379
0.0430024
-0.0382112
-1.13801
1.13322
0.0335745
-0.0285028
-0.899834
0.894762
0.0234925
-0.0186503
-0.715867
0.711025
0.0144116
-0.0102263
-0.562199
0.558014
0.00719507
-0.00466851
-0.415873
0.413346
0.00313933
-0.0021052
-0.271979
0.270945
0.00141831
-0.000812322
-0.146302
0.145696
0.000295298
4.76818e-05
-0.0559158
0.0555729
-0.000111337
-0.00642269
0.00653403
-0.0773104
0.0768004
0.000509981
-0.000444659
-0.00016237
-0.432216
0.432823
0.00171074
-0.00351899
-0.610296
0.612105
0.006439
-0.00949246
-0.745724
0.748777
0.0130593
-0.0165933
-0.866653
0.870187
0.0208903
-0.0248279
-0.990367
0.994305
0.0296438
-0.0341532
-1.12579
1.1303
0.0387022
-0.0430665
-1.27117
1.27553
0.0473045
-0.0503397
-1.42272
1.42575
0.0527727
-0.053685
-1.57431
1.57523
0.0527223
-0.0503971
-1.4507
1.44838
0.0471102
-0.0428339
-1.12846
1.12418
0.0386879
-0.0339084
-0.889313
0.884534
0.0293969
-0.0248035
-0.70567
0.701077
0.0207756
-0.0166017
-0.553258
0.549084
0.013336
-0.0104583
-0.409187
0.40631
0.0081636
-0.00619436
-0.267646
0.265677
0.00449588
-0.00279729
-0.143342
0.141643
0.00147391
-0.000465377
-0.0540656
0.053057
2.67542e-05
-0.00604942
0.00602267
-0.0784759
0.0781489
0.000327011
0.000683073
-0.00154186
-0.43605
0.436909
0.00302574
-0.0051659
-0.615392
0.617533
0.00805779
-0.0109778
-0.751747
0.754667
0.0146389
-0.0180402
-0.873731
0.877133
0.0222015
-0.026276
-0.99874
1.00281
0.0310124
-0.0354866
-1.13468
1.13915
0.0402414
-0.0446117
-1.27982
1.28419
0.048998
-0.0527369
-1.42906
1.4328
0.0555692
-0.0567542
-1.57606
1.57725
0.0564536
-0.0544514
-1.44592
1.44392
0.0517258
-0.0479995
-1.11982
1.1161
0.0439622
-0.0394629
-0.879471
0.874972
0.035188
-0.0306278
-0.696072
0.691511
0.0267483
-0.0224729
-0.54461
0.540334
0.0190148
-0.0155158
-0.401878
0.398379
0.012655
-0.00978151
-0.261603
0.258729
0.00710477
-0.00449258
-0.138362
0.13575
0.00247962
-0.000917382
-0.050981
0.0494188
0.00015913
-0.00545037
0.00529124
-0.0798786