/*--------------------------------*- C++ -*----------------------------------*\
  =========                 |
  \\      /  F ield         | OpenFOAM: The Open Source CFD Toolbox
   \\    /   O peration     | Website:  https://openfoam.org
    \\  /    A nd           | Version:  6
     \\/     M anipulation  |
\*---------------------------------------------------------------------------*/
FoamFile
{
    version     2.0;
    format      ascii;
    class       surfaceScalarField;
    location    "69.3";
    object      phi;
}
// * * * * * * * * * * * * * * * * * * * * * * * * * * * * * * * * * * * * * //

dimensions      [0 3 -1 0 0 0 0];

internalField   nonuniform List<scalar> 
17370
(
-0.0900008
0.0898501
0.289161
-0.071464
0.0537544
0.364485
-0.0381216
0.0276928
0.426597
-0.0196414
0.0146089
0.504284
-0.0107677
0.00827807
0.601892
-0.00627921
0.0049033
0.720433
-0.00373977
0.00289932
0.863747
-0.00215772
0.00159837
1.03601
-0.00108138
0.000668451
1.24292
-0.000260085
-0.000132805
1.49158
0.000512257
-0.000922161
1.4916
0.00132026
-0.00181092
1.24318
0.00234091
-0.00304893
1.03635
0.00386305
-0.00500619
0.86405
0.00637117
-0.00836315
0.721049
0.0108477
-0.014683
0.60305
0.0197096
-0.0277541
0.507484
0.0381762
-0.0538006
0.431793
0.0715019
-0.0898755
0.365149
0.0900159
0.198995
-0.128135
0.0882241
0.039911
-0.364597
0.353376
-0.0746757
0.0858973
-0.446475
0.454319
-0.0843956
0.0765524
-0.52119
0.5299
-0.0684561
0.0597459
-0.612788
0.621566
-0.0515582
0.0427801
-0.726894
0.734162
-0.0353205
0.0280524
-0.867474
0.872589
-0.0224525
0.0173376
-1.03847
1.04192
-0.0135283
0.0100788
-1.2446
1.24703
-0.00746817
0.00503523
-1.49262
1.4946
-0.00308761
0.00110961
-1.4925
1.49423
0.000569369
-0.00229451
-1.24398
1.24586
0.00419794
-0.00608279
-1.03751
1.04004
0.00844036
-0.0109714
-0.866102
0.86983
0.0143267
-0.0180547
-0.724392
0.729935
0.0230934
-0.0286364
-0.608699
0.616113
0.0358517
-0.0432663
-0.514898
0.523042
0.0519963
-0.0601405
-0.439857
0.447916
0.0688039
-0.0768628
-0.375296
0.376741
0.0846619
-0.0861063
-0.257331
0.22248
0.0748177
-0.0399661
-0.0685162
0.0586894
0.00982677
-0.0518168
0.0584016
-0.374124
0.36754
-0.057487
0.0537358
-0.453593
0.457344
-0.0486467
0.0446954
-0.527945
0.531896
-0.0408569
0.0372193
-0.621561
0.625199
-0.0331188
0.029044
-0.735346
0.739421
-0.0244745
0.0203156
-0.874338
0.878497
-0.0159699
0.0122759
-1.04349
1.04718
-0.00853794
0.00536416
-1.24856
1.25173
-0.00203425
-0.00104046
-1.49666
1.49973
0.00408924
-0.00735622
-1.4972
1.50047
0.0104373
-0.0140451
-1.25007
1.25368
0.017605
-0.0217958
-1.04593
1.05012
0.0258196
-0.0302566
-0.877765
0.882202
0.0342262
-0.0382242
-0.739903
0.743901
0.0417753
-0.0455237
-0.626776
0.630524
0.0493972
-0.0544118
-0.534812
0.539827
0.0580822
-0.0588948
-0.457476
0.458289
0.0521908
-0.0319892
-0.335754
0.315552
0.00988775
-0.0683476
0.0584598
-0.0529381
0.0489421
0.00399596
-0.0331649
0.0437113
-0.358105
0.347559
-0.0474105
0.0467837
-0.459282
0.459909
-0.0437283
0.040376
-0.535798
0.539151
-0.0366042
0.0333009
-0.628524
0.631827
-0.0298639
0.026833
-0.742643
0.745674
-0.0235753
0.0204695
-0.882014
0.88512
-0.0169398
0.0135604
-1.05077
1.05415
-0.00976659
0.00622695
-1.25517
1.25871
-0.00225648
-0.00154188
-1.50324
1.50704
0.00530805
-0.00918288
-1.50414
1.50801
0.0125928
-0.0162076
-1.25742
1.26104
0.0194006
-0.0227127
-1.05392
1.05724
0.0256263
-0.0286922
-0.885696
0.888762
0.0315686
-0.034854
-0.747162
0.750447
0.0380301
-0.0416715
-0.63431
0.637952
0.0449116
-0.0478391
-0.544138
0.547065
0.0483313
-0.044443
-0.456576
0.452687
0.033671
-0.0162209
-0.296188
0.278738
0.00407158
-0.0526404
0.0485689
-0.0458641
0.0433684
0.00249567
-0.0228082
0.0331877
-0.336868
0.326489
-0.0390098
0.040027
-0.459593
0.458575
-0.0388374
0.036551
-0.54187
0.544156
-0.0338844
0.0312892
-0.634877
0.637472
-0.028227
0.0253288
-0.748718
0.751616
-0.0220653
0.0190726
-0.888072
0.891065
-0.0157684
0.0126696
-1.05728
1.06038
-0.00914384
0.00573482
-1.26216
1.26557
-0.00177092
-0.00211406
-1.51092
1.51481
0.00595617
-0.00979243
-1.5119
1.51574
0.0130296
-0.0163203
-1.26447
1.26776
0.019175
-0.022194
-1.06034
1.06336
0.0249325
-0.0279401
-0.891818
0.894826
0.0306291
-0.033484
-0.753654
0.756509
0.0359052
-0.0383956
-0.641019
0.643509
0.0405301
-0.0415207
-0.548869
0.54986
0.0402953
-0.0341696
-0.447406
0.441281
0.0234586
-0.0102377
-0.263517
0.250296
0.0025891
-0.0454058
0.0428167
-0.0412932
0.0395262
0.00176703
-0.0167466
0.0259975
-0.316636
0.307385
-0.032603
0.0347428
-0.456975
0.454835
-0.0343218
0.0326513
-0.546133
0.547803
-0.0304708
0.0283759
-0.639776
0.641871
-0.0259451
0.0235483
-0.754259
0.756656
-0.020691
0.0179029
-0.893958
0.896746
-0.0146678
0.0115993
-1.06342
1.06649
-0.00810928
0.00478327
-1.26889
1.27222
-0.000949892
-0.00278361
-1.5186
1.52233
0.00646245
-0.0101337
-1.51947
1.52315
0.0132421
-0.0164352
-1.271
1.2742
0.0191945
-0.0220661
-1.06639
1.06926
0.0245268
-0.027052
-0.897645
0.90017
0.0291764
-0.0313383
-0.758959
0.761121
0.0332101
-0.0351638
-0.645663
0.647617
0.0366141
-0.0367647
-0.550377
0.550527
0.0343057
-0.0272559
-0.434612
0.427563
0.0175583
-0.00740962
-0.238761
0.228613
0.00188117
-0.0406376
0.0387564
-0.0380042
0.0366754
0.00132884
-0.0127833
0.0207265
-0.298793
0.29085
-0.0274744
0.0303952
-0.452276
0.449355
-0.0305982
0.0294775
-0.549233
0.550354
-0.0274831
0.0255659
-0.643905
0.645822
-0.0233655
0.0212282
-0.758893
0.76103
-0.0187133
0.0162296
-0.899318
0.901802
-0.0132863
0.0104054
-1.06943
1.07231
-0.00704125
0.00379772
-1.27547
1.27872
-4.78276e-05
-0.00358306
-1.52598
1.52961
0.00714562
-0.0106914
-1.52674
1.53029
0.0136607
-0.0166516
-1.27732
1.28031
0.0191448
-0.0216327
-1.07199
1.07448
0.0237065
-0.0258051
-0.902462
0.904561
0.0275995
-0.0294593
-0.763104
0.764964
0.031095
-0.0328148
-0.649435
0.651155
0.0336146
-0.0330332
-0.550317
0.549735
0.029656
-0.0222998
-0.420303
0.412947
0.0137826
-0.00574651
-0.219621
0.211585
0.00146767
-0.0371078
0.0356402
-0.0355149
0.0344913
0.00102355
-0.00998347
0.0166931
-0.28355
0.27684
-0.0231705
0.0265394
-0.446191
0.442822
-0.0273171
0.0266142
-0.551259
0.551962
-0.0248527
0.0230658
-0.647716
0.649503
-0.0209928
0.0189737
-0.763101
0.76512
-0.0165991
0.0142692
-0.904139
0.906469
-0.0115273
0.00883902
-1.07502
1.07771
-0.00567696
0.00258752
-1.28184
1.28493
0.00102767
-0.0045437
-1.53317
1.53668
0.00797527
-0.0113379
-1.53373
1.5371
0.0140889
-0.016791
-1.28317
1.28587
0.0190014
-0.0211807
-1.07686
1.07904
0.0230037
-0.0248627
-0.906544
0.908403
0.026456
-0.0281052
-0.76671
0.768359
0.0295421
-0.0309244
-0.652729
0.654112
0.0312294
-0.0299142
-0.548801
0.547486
0.0259164
-0.0186385
-0.405605
0.398327
0.0112078
-0.00464494
-0.204356
0.197793
0.00119234
-0.0343259
0.0331335
-0.0335932
0.0327967
0.000796522
-0.00790625
0.0135402
-0.270699
0.265065
-0.0195281
0.0230901
-0.439348
0.435786
-0.0243415
0.0238843
-0.552576
0.553033
-0.0223872
0.0207082
-0.651285
0.652965
-0.0187283
0.0167937
-0.767089
0.769024
-0.0145105
0.0122674
-0.908688
0.910931
-0.00962743
0.00704769
-1.08027
1.08285
-0.00402543
0.00107881
-1.2879
1.29084
0.00236457
-0.00570607
-1.54008
1.54343
0.00894411
-0.0120784
-1.54033
1.54346
0.0146111
-0.0170715
-1.28845
1.29091
0.0190662
-0.0210163
-1.08117
1.08312
0.0226366
-0.0242862
-0.910173
0.911823
0.0256978
-0.0271559
-0.769905
0.771364
0.0283983
-0.0294022
-0.65529
0.656294
0.0293326
-0.0273482
-0.545839
0.543854
0.0229466
-0.015932
-0.391176
0.384161
0.00940253
-0.00388366
-0.191802
0.186283
0.00100163
-0.0320485
0.0310468
-0.0320979
0.0314777
0.000620241
-0.00630166
0.0110165
-0.259919
0.255204
-0.0164098
0.0199678
-0.432227
0.428668
-0.0215389
0.0213062
-0.553416
0.553649
-0.0200402
0.0184185
-0.654661
0.656282
-0.0164929
0.0146059
-0.770922
0.772809
-0.012379
0.0101923
-0.913069
0.915256
-0.00761985
0.00511091
-1.08531
1.08782
-0.00218057
-0.000660046
-1.29368
1.29652
0.00395252
-0.00711768
-1.54665
1.54981
0.0101565
-0.0130721
-1.54646
1.54937
0.01541
-0.0176596
-1.29327
1.29552
0.019458
-0.0211895
-1.08505
1.08679
0.0226165
-0.0240697
-0.913386
0.914839
0.0253158
-0.0265984
-0.772724
0.774007
0.0276957
-0.0282783
-0.657085
0.657667
0.0278357
-0.0252857
-0.5416
0.53905
0.0206344
-0.0139467
-0.37732
0.370632
0.00812709
-0.00335296
-0.181174
0.1764
0.000869319
-0.0301212
0.0292519
-0.0309376
0.0304604
0.000477202
-0.00500849
0.00893039
-0.250913
0.246991
-0.0136852
0.0170911
-0.425196
0.421791
-0.0188418
0.018797
-0.553832
0.553876
-0.0177207
0.0161316
-0.657952
0.659541
-0.014225
0.0123506
-0.774672
0.776546
-0.0101413
0.00797848
-0.917341
0.919504
-0.00544256
0.0029774
-1.09022
1.09269
-0.000110282
-0.00265123
-1.29926
1.30202
0.00582349
-0.00883899
-1.55286
1.55588
0.0117008
-0.0144147
-1.55216
1.55487
0.0165656
-0.0186087
-1.29767
1.29971
0.0202136
-0.0217283
-1.08852
1.09003
0.0229678
-0.0242391
-0.916212
0.917483
0.0253381
-0.026464
-0.775201
0.776327
0.0273624
-0.0275802
-0.658064
0.658281
0.0267268
-0.0236964
-0.536273
0.533243
0.0188909
-0.0125188
-0.36412
0.357748
0.00723706
-0.00298933
-0.171921
0.167673
0.000780249
-0.0284362
0.027656
-0.0300517
0.0296956
0.000356058
-0.00392387
0.0071487
-0.243443
0.240219
-0.0112537
0.0143979
-0.418533
0.415389
-0.0162029
0.0163114
-0.553897
0.553788
-0.0153131
0.0137962
-0.661164
0.662681
-0.0118829
0.00998965
-0.778406
0.780299
-0.0077585
0.00558168
-0.921573
0.923749
-0.00304239
0.000589342
-1.09505
1.09751
0.00224418
-0.00495378
-1.30469
1.3074
0.00804088
-0.0109428
-1.55879
1.5617
0.0136579
-0.0161869
-1.55746
1.55999
0.0181541
-0.0199888
-1.30165
1.30348
0.0214001
-0.0227036
-1.09158
1.09288
0.0237634
-0.0248588
-0.918673
0.919769
0.0258109
-0.0267657
-0.777355
0.77831
0.0274039
-0.0273291
-0.658367
0.658292
0.0260319
-0.0225688
-0.530007
0.526544
0.0176506
-0.0115371
-0.351531
0.345417
0.00664216
-0.0027529
-0.163634
0.159744
0.000724379
-0.0269127
0.0261883
-0.029401
0.0291533
0.000247734
-0.00297164
0.00556672
-0.237333
0.234737
-0.00902221
0.0118214
-0.41244
0.409641
-0.0135651
0.0137505
-0.553702
0.553516
-0.0127917
0.0113122
-0.664258
0.665737
-0.00936613
0.00742201
-0.782185
0.784129
-0.00513211
0.00290808
-0.925835
0.928059
-0.000328723
-0.00214676
-1.09986
1.10234
0.00498485
-0.00767325
-1.31002
1.31271
0.0106996
-0.0135015
-1.5645
1.5673
0.0160785
-0.0184322
-1.5624
1.56475
0.0202261
-0.0218606
-1.30521
1.30684
0.0230768
-0.0241588
-1.09424
1.09532
0.0250318
-0.025952
-0.920784
0.921704
0.0267627
-0.0275561
-0.779152
0.779945
0.027906
-0.0275376
-0.658072
0.657704
0.0257852
-0.0219004
-0.522893
0.519008
0.0168674
-0.0109268
-0.339424
0.333484
0.00628409
-0.00261778
-0.155995
0.152328
0.00069508
-0.0254878
0.0247927
-0.028964
0.0288193
0.000144725
-0.00208841
0.00409169
-0.232461
0.230458
-0.00689306
0.00927838
-0.407077
0.404692
-0.0108548
0.01104
-0.553405
0.55322
-0.0100873
0.00860763
-0.667312
0.668792
-0.00660234
0.0045802
-0.786068
0.788091
-0.002198
-0.000108001
-0.930192
0.932498
0.00276995
-0.00530767
-1.10473
1.10727
0.00819115
-0.0108915
-1.31532
1.31802
0.0138885
-0.016614
-1.57001
1.57274
0.0190683
-0.0212562
-1.56698
1.56917
0.0228835
-0.0243252
-1.30836
1.3098
0.0253496
-0.026203
-1.09649
1.09735
0.0268752
-0.0275984
-0.922525
0.923249
0.0282523
-0.0288997
-0.7806
0.781247
0.0289315
-0.0281729
-0.657129
0.656371
0.0259626
-0.0216607
-0.514962
0.510661
0.0164872
-0.0106251
-0.327623
0.321761
0.00611744
-0.00256371
-0.148747
0.145193
0.000686923
-0.0241112
0.0234242
-0.0287332
0.0286926
4.05455e-05
-0.0012264
0.00265193
-0.228764
0.227338
-0.00478511
0.0066925
-0.402577
0.40067
-0.00799763
0.00810085
-0.553164
0.553061
-0.00710876
0.005593
-0.6704
0.671916
-0.00348963
0.00135407
-0.79011
0.792246
0.00116389
-0.00359167
-0.934715
0.937143
0.00637707
-0.00901276
-1.10972
1.11236
0.0119816
-0.0147315
-1.32066
1.32341
0.0177381
-0.020416
-1.57539
1.57806
0.0227654
-0.0247923
-1.57123
1.57325
0.0262456
-0.0274785
-1.31111
1.31234
0.0282917
-0.0289086
-1.09833
1.09895
0.0293756
-0.0298927
-0.923875
0.924393
0.0303779
-0.0308053
-0.78167
0.782097
0.0305558
-0.0293224
-0.655409
0.654176
0.026623
-0.0218719
-0.506202
0.501451
0.0164987
-0.0106045
-0.315931
0.310037
0.0061202
-0.00258095
-0.141676
0.138137
0.000697531
-0.0227421
0.0220446
-0.0287119
0.0287787
-6.68015e-05
-0.000345002
0.0011845
-0.226223
0.225383
-0.00261999
0.00398334
-0.399067
0.397704
-0.00491332
0.0048463
-0.553154
0.553221
-0.00375223
0.00213818
-0.673611
0.675225
0.000102209
-0.00239255
-0.794383
0.796673
0.00509009
-0.0076795
-0.93948
0.942069
0.0106346
-0.0134119
-1.11492
1.1177
0.0165107
-0.0193431
-1.3261
1.32893
0.0223847
-0.0250295
-1.58066
1.58331
0.0272809
-0.0291464
-1.57515
1.57701
0.0304236
-0.0314443
-1.31342
1.31444
0.0320487
-0.0324218
-1.09972
1.10009
0.0326719
-0.0329677
-0.924805
0.925101
0.0332575
-0.0333891
-0.782204
0.782336
0.032831
-0.0310512
-0.652752
0.650972
0.027807
-0.0225474
-0.496537
0.491278
0.016893
-0.0108465
-0.304123
0.298076
0.00627774
-0.00266244
-0.134591
0.130976
0.000724785
-0.0213442
0.0206195
-0.0289162
0.0291028
-0.000186657
0.000585959
-0.000368765
-0.224863
0.224646
-0.000318551
0.00105849
-0.396671
0.395932
-0.00150513
0.00118052
-0.553557
0.553881
7.73755e-05
-0.00184083
-0.677071
0.678835
0.00426312
-0.00675235
-0.798965
0.801455
0.00968459
-0.0124899
-0.944573
0.947378
0.0156735
-0.0186414
-1.12041
1.12338
0.0219176
-0.0248716
-1.33171
1.33466
0.0279864
-0.0306251
-1.58588
1.58851
0.0327916
-0.0344946
-1.57873
1.58044
0.0355899
-0.0363825
-1.31529
1.31608
0.036761
-0.0368765
-1.10062
1.10073
0.0368956
-0.0369555
-0.925274
0.925333
0.0370493
-0.0367905
-0.7821
0.781842
0.0358386
-0.0334379
-0.649023
0.646623
0.0295742
-0.0237148
-0.485833
0.479974
0.0176725
-0.0113413
-0.29195
0.285618
0.00657989
-0.00280263
-0.127312
0.123535
0.000766955
-0.0198848
0.0191179
-0.0293739
0.0297089
-0.000334982
0.00162543
-0.00204857
-0.224775
0.225198
0.00220434
-0.00218445
-0.395541
0.395521
0.00235514
-0.00304804
-0.55458
0.555273
0.00453909
-0.0065174
-0.680889
0.682867
0.00919784
-0.0119502
-0.803947
0.806699
0.0151818
-0.0182569
-0.950101
0.953176
0.0217247
-0.0249329
-1.12629
1.1295
0.0284388
-0.0315541
-1.33757
1.34069
0.0347697
-0.0374082
-1.59108
1.59372
0.0394797
-0.0410008
-1.58198
1.5835
0.0418949
-0.0424483
-1.31664
1.31719
0.0425919
-0.0424245
-1.10098
1.10081
0.0421864
-0.0419944
-0.925228
0.925036
0.041873
-0.0411321
-0.781182
0.780441
0.0397005
-0.036572
-0.644068
0.64094
0.0319809
-0.0253948
-0.473893
0.467307
0.0188352
-0.0120767
-0.279144
0.272386
0.00701523
-0.00299495
-0.119671
0.115651
0.000821752
-0.0183352
0.0175135
-0.0301153
0.0306268
-0.00051155
0.00290919
-0.00409569
-0.226027
0.227214
0.00511869
-0.00589905
-0.395867
0.396648
0.00679901
-0.00796454
-0.556472
0.557637
0.00979568
-0.0120657
-0.68521
0.68748
0.0150876
-0.0181748
-0.809454
0.812541
0.0217809
-0.0251951
-0.956174
0.959588
0.0290216
-0.0325317
-1.13266
1.13617
0.0363214
-0.0396333
-1.34376
1.34707
0.0429725
-0.045616
-1.59628
1.59892
0.04758
-0.0488937
-1.58484
1.58616
0.0495479
-0.0498481
-1.31747
1.31777
0.0497339
-0.0492588
-1.10075
1.10027
0.0487434
-0.0482781
-0.924615
0.924149
0.0478157
-0.0466178
-0.779342
0.778144
0.0445518
-0.0405527
-0.637659
0.63366
0.0350911
-0.027614
-0.460448
0.452971
0.0203831
-0.0130424
-0.265417
0.258076
0.0075721
-0.00323208
-0.111508
0.107168
0.000886524
-0.0166714
0.0157849
-0.031214
0.0319475
-0.000733489
0.00441289
-0.0064812
-0.228822
0.230891
0.0085903
-0.0102793
-0.397872
0.399561
0.0120096
-0.0137624
-0.559477
0.56123
0.0160653
-0.0187191
-0.690186
0.69284
0.0221804
-0.0256844
-0.81563
0.819134
0.0297565
-0.0335901
-0.962938
0.966772
0.0378547
-0.0417277
-1.13965
1.14352
0.0458548
-0.0493986
-1.35034
1.35388
0.0528827
-0.0555313
-1.60147
1.60412
0.0573689
-0.0584374
-1.58727
1.58834
0.0588076
-0.0588033
-1.31769
1.31769
0.0583971
-0.0575874
-1.09986
1.09905
0.0567698
-0.0560034
-0.923375
0.922608
0.0551223
-0.0533831
-0.77662
0.774881
0.0505413
-0.0454785
-0.6295
0.624438
0.0389556
-0.0303782
-0.445153
0.436576
0.0222974
-0.014211
-0.250452
0.242366
0.00822717
-0.0035009
-0.102673
0.0979467
0.000956792
-0.0148754
0.0139186
-0.0327523
0.0337783
-0.00102601
0.00631526
-0.0094467
-0.233409
0.23654
0.0128062
-0.0155606
-0.401823
0.404578
0.0182696
-0.0207481
-0.563871
0.566349
0.0236785
-0.0268518
-0.696018
0.699192
0.0308967
-0.0349271
-0.822649
0.826679
0.0395711
-0.0439074
-0.970552
0.974888
0.0486868
-0.052977
-1.14737
1.15166
0.0574775
-0.0612562
-1.35737
1.36115
0.0648505
-0.0674412
-1.60664
1.60923
0.0690795
-0.0698338
-1.58917
1.58993
0.0698625
-0.0694999
-1.31717
1.31681
0.0687903
-0.0676104
-1.09824
1.09706
0.0664535
-0.0653863
-0.921463
0.920395
0.0639652
-0.0615865
-0.772835
0.770456
0.0577913
-0.0514138
-0.6192
0.612822
0.0435859
-0.0336556
-0.427579
0.417649
0.0245264
-0.0155304
-0.233926
0.22493
0.00894081
-0.00378063
-0.0930422
0.087882
0.00102582
-0.0129392
0.0119134
-0.0348606
0.0362886
-0.00142805
0.00879303
-0.0132853
-0.240112
0.244604
0.0181345
-0.0221204
-0.408094
0.41208
0.0259619
-0.0293126
-0.569998
0.573349
0.0330486
-0.0369027
-0.703001
0.706855
0.0416984
-0.046394
-0.830726
0.835422
0.0517373
-0.0566722
-0.979187
0.984122
0.0620446
-0.06679
-1.15591
1.16066
0.0716636
-0.0756413
-1.36484
1.36882
0.0792736
-0.0817164
-1.61164
1.61409
0.0830549
-0.0833921
-1.59039
1.59073
0.0830154
-0.0821919
-1.31581
1.31499
0.0811125
-0.0795407
-1.09579
1.09422
0.0780521
-0.0765458
-0.918837
0.917331
0.0746104
-0.0713608
-0.767739
0.764489
0.0663769
-0.0583637
-0.606235
0.598222
0.0489267
-0.0373474
-0.407214
0.395634
0.0269614
-0.0169079
-0.21552
0.205466
0.00964876
-0.00404001
-0.0825355
0.0769268
0.00108405
-0.0108696
0.00978554
-0.0377345
0.0397403
-0.00200586
0.0122529
-0.0184632
-0.249459
0.255669
0.0251067
-0.0305306
-0.417171
0.422595
0.0357082
-0.0401233
-0.578239
0.582654
0.0448723
-0.0496075
-0.711467
0.716202
0.0553605
-0.0608705
-0.840128
0.845638
0.0670368
-0.0726423
-0.989032
0.994638
0.0786358
-0.0838124
-1.16535
1.17052
0.0889831
-0.0930519
-1.37264
1.37671
0.096569
-0.0987004
-1.61626
1.61839
0.0995827
-0.0993581
-1.59069
1.59046
0.0984778
-0.0970868
-1.31346
1.31207
0.0955759
-0.0935882
-1.09244
1.09045
0.0917265
-0.0896608
-0.915192
0.913126
0.087169
-0.0828045
-0.76083
0.756465
0.076313
-0.0662446
-0.589931
0.579862
0.0548234
-0.0412616
-0.38347
0.369908
0.0294182
-0.0182013
-0.194964
0.183747
0.010259
-0.00423708
-0.0711482
0.0651263
0.00111942
-0.00869353
0.00757411
-0.0417003
0.0445968
-0.00289644
0.0172862
-0.0257558
-0.262175
0.270644
0.0346109
-0.0417583
-0.429735
0.436882
0.0485493
-0.0542583
-0.589088
0.594797
0.0603329
-0.0662312
-0.721844
0.727742
0.0731787
-0.0796315
-0.85113
0.857583
0.0866763
-0.0929283
-1.0002
1.00645
0.0994433
-0.104902
-1.17556
1.18102
0.11015
-0.114069
-1.38049
1.38441
0.117177
-0.118723
-1.6201
1.62164
0.118905
-0.117916
-1.58975
1.58876
0.116382
-0.11435
-1.30991
1.30788
0.11234
-0.109906
-1.08809
1.08566
0.107653
-0.104926
-0.910275
0.907548
0.101703
-0.0958545
-0.751544
0.745695
0.0874196
-0.0747777
-0.569408
0.556766
0.0609411
-0.0450606
-0.355718
0.339837
0.0316067
-0.019207
-0.172102
0.159702
0.0106486
-0.00431933
-0.0589872
0.0526579
0.00111756
-0.00646235
0.00534479
-0.0473311
0.0517317
-0.00440063
0.0250614
-0.0365968
-0.279432
0.290968
0.0483235
-0.0577881
-0.446812
0.456277
0.0666236
-0.073894
-0.603154
0.610424
0.08155
-0.0889561
-0.734548
0.741954
0.0971329
-0.104448
-0.863938
0.871253
0.112196
-0.118861
-1.01255
1.01921
0.125564
-0.13095
-1.18615
1.19154
0.135851
-0.139227
-1.38782
1.3912
0.141507
-0.142109
-1.62257
1.62317
0.141281
-0.139259
-1.58715
1.58513
0.136879
-0.134059
-1.30498
1.30216
0.131465
-0.128554
-1.08263
1.07972
0.125781
-0.122399
-0.903929
0.900547
0.118097
-0.110247
-0.739074
0.731224
0.0992743
-0.0834348
-0.543572
0.527732
0.0667332
-0.0482604
-0.323374
0.304901
0.0331489
-0.0196842
-0.147
0.133535
0.0106817
-0.00423231
-0.0463133
0.0398639
0.0010636
-0.00425378
0.00319017
-0.0557088
0.0632025
-0.00749369
0.0385873
-0.0546247
-0.303386
0.319423
0.0704158
-0.0831097
-0.470076
0.48277
0.0941268
-0.10279
-0.620891
0.629555
0.111986
-0.120704
-0.749929
0.758647
0.129863
-0.137609
-0.878257
0.886003
0.14545
-0.151907
-1.02544
1.0319
0.15812
-0.162809
-1.19628
1.20097
0.166728
-0.168982
-1.39377
1.39603
0.169872
-0.169046
-1.62289
1.62207
0.166812
-0.163462
-1.58232
1.57897
0.160023
-0.156238
-1.29836
1.29458
0.152972
-0.149537
-1.07591
1.07248
0.146191
-0.141903
-0.895898
0.89161
0.136011
-0.125363
-0.722223
0.711575
0.111014
-0.091249
-0.51103
0.491265
0.0714011
-0.050307
-0.28606
0.264966
0.033701
-0.0194731
-0.120084
0.105856
0.0102835
-0.00394661
-0.0335667
0.0272299
0.000940109
-0.00216694
0.00122683
-0.0701639
0.0743398
-0.00417583
0.0293889
-0.0434104
-0.338004
0.352025
0.0575173
-0.0692429
-0.500957
0.512682
0.07972
-0.0895133
-0.641963
0.651756
0.100475
-0.110698
-0.766787
0.77701
0.122096
-0.132188
-0.8927
0.902793
0.142929
-0.152487
-1.03743
1.04699
0.162521
-0.171154
-1.20459
1.21322
0.179796
-0.186733
-1.39712
1.40405
0.192989
-0.197141
-1.62007
1.62422
0.19918
-0.199719
-1.57462
1.57516
0.199122
-0.197901
-1.2897
1.28848
0.1969
-0.195414
-1.06763
1.06614
0.193586
-0.189161
-0.885292
0.880867
0.18077
-0.164515
-0.699204
0.682948
0.142437
-0.113371
-0.470506
0.44144
0.0858275
-0.0581087
-0.243905
0.216187
0.037563
-0.0209171
-0.0922975
0.0756516
0.0106197
-0.0038668
-0.021348
0.014595
0.000841941
-0.000275094
-0.000566847
-0.0817745
0.0798289
0.00194559
0.00775391
-0.0167973
-0.368738
0.377781
0.0274963
-0.0359763
-0.529002
0.537482
0.0445201
-0.0526191
-0.664322
0.672421
0.0625968
-0.0720401
-0.786695
0.796138
0.0821871
-0.0914292
-0.912226
0.921469
0.101247
-0.109634
-1.05624
1.06463
0.118611
-0.125949
-1.22162
1.22896
0.133234
-0.138788
-1.41063
1.41618
0.143288
-0.145912
-1.62757
1.63019
0.146532
-0.145701
-1.57512
1.57429
0.143711
-0.141033
-1.28651
1.28383
0.138651
-0.136047
-1.06228
1.05968
0.133088
-0.127677
-0.872012
0.8666
0.118546
-0.103684
-0.662767
0.647904
0.0860481
-0.0650766
-0.410729
0.389757
0.0470606
-0.0307844
-0.188971
0.172695
0.0194825
-0.0107573
-0.0600569
0.0513317
0.00544383
-0.00199184
-0.00801287
0.00456088
0.000427147
0.00165613
-0.00208328
-0.0832008
0.0802871
0.00291363
-0.00122881
-0.00391442
-0.389573
0.394717
0.0109989
-0.0171829
-0.549817
0.556002
0.0234707
-0.0304645
-0.683163
0.690157
0.0391144
-0.0472874
-0.804629
0.812802
0.0562813
-0.0643087
-0.929856
0.937883
0.0725814
-0.0800162
-1.07282
1.08026
0.0877529
-0.0941504
-1.23583
1.24223
0.100029
-0.104284
-1.42104
1.42529
0.107643
-0.109007
-1.63209
1.63346
0.108388
-0.106339
-1.57284
1.57079
0.103375
-0.099814
-1.28068
1.27712
0.0961691
-0.0923284
-1.05465
1.05081
0.0883172
-0.0824995
-0.857034
0.851216
0.0741508
-0.0618572
-0.630166
0.617873
0.0489845
-0.0352289
-0.367403
0.353647
0.0248349
-0.0162675
-0.156222
0.147654
0.0105884
-0.00621888
-0.0426223
0.0382528
0.00338404
-0.00137503
-0.000863048
-0.00114596
0.000344439
0.00275432
-0.00309876
-0.0819332
0.0790933
0.00283997
-0.00510979
0.00257837
-0.403373
0.405905
0.00199129
-0.0066337
-0.565249
0.569891
0.0119012
-0.0177443
-0.698619
0.704462
0.0251378
-0.0321226
-0.820287
0.827271
0.0397697
-0.0466194
-0.945306
0.952156
0.0540584
-0.0603187
-1.08721
1.09347
0.0669933
-0.0720284
-1.24816
1.2532
0.0769103
-0.0802735
-1.42925
1.43261
0.0824779
-0.0825958
-1.63431
1.63443
0.0811628
-0.0783207
-1.5681
1.56526
0.0746525
-0.0699448
-1.27305
1.26834
0.0655142
-0.0606475
-1.04507
1.04021
0.0556105
-0.0497102
-0.840975
0.835075
0.0422685
-0.0329347
-0.602972
0.593638
0.0243449
-0.0165574
-0.338879
0.331091
0.0114906
-0.00780302
-0.138385
0.134697
0.00541942
-0.00354518
-0.0333485
0.0314743
0.00213103
-0.000974525
0.00356679
-0.00472329
0.000276895
0.00364145
-0.00391834
-0.0803574
0.0778327
0.00252474
-0.00642308
0.00552245
-0.412568
0.413469
-0.00211773
-0.00131236
-0.577548
0.580978
0.00548929
-0.010751
-0.711561
0.716823
0.0169362
-0.023045
-0.833517
0.839626
0.0296332
-0.0355489
-0.958499
0.964415
0.041884
-0.047387
-1.09956
1.10506
0.0529554
-0.0574402
-1.25803
1.26252
0.0614418
-0.0640246
-1.43552
1.4381
0.0653794
-0.0647223
-1.63426
1.63361
0.0625503
-0.0587772
-1.56157
1.55779
0.0544761
-0.049214
-1.26329
1.25802
0.0441161
-0.0383155
-1.03383
1.02803
0.0328297
-0.0268203
-0.825143
0.819133
0.0206158
-0.0136844
-0.582135
0.575203
0.00842195
-0.00472366
-0.321872
0.318174
0.00296329
-0.00217169
-0.129741
0.12895
0.00182334
-0.00151157
-0.0288672
0.0285555
0.00110166
-0.000602682
0.0062309
-0.00672988
0.000205262
0.0043427
-0.00454796
-0.0788621
0.0766897
0.00217242
-0.00644841
0.00609022
-0.41881
0.419168
-0.00408292
0.00131784
-0.586985
0.58975
0.00273172
-0.00721601
-0.722469
0.726953
0.0124927
-0.0177556
-0.84491
0.850172
0.0235633
-0.0288069
-0.969932
0.975176
0.0345424
-0.0393013
-1.11024
1.115
0.0442062
-0.0481112
-1.26665
1.27056
0.0514425
-0.0534275
-1.44032
1.4423
0.0541088
-0.0532289
-1.63273
1.63185
0.0504787
-0.046337
-1.55342
1.54928
0.0415766
-0.0358095
-1.25233
1.24656
0.0304812
-0.0240511
-1.02123
1.0148
0.0181261
-0.0121226
-0.809943
0.803939
0.00672041
-0.00151785
-0.566232
0.561029
-0.00164006
0.0029971
-0.312254
0.310897
-0.00276123
0.00192772
-0.126715
0.127548
-0.0011676
0.000404094
-0.0277332
0.0284967
9.91506e-06
-0.00015788
0.00740049
-0.00725252
9.24369e-05
0.0048164
-0.00490883
-0.0776822
0.0759722
0.00171006
-0.00566247
0.00567464
-0.423361
0.423349
-0.00404709
0.00199583
-0.595168
0.597219
0.00176852
-0.00581484
-0.731859
0.735906
0.0107749
-0.0152684
-0.85503
0.859524
0.020322
-0.0249219
-0.980343
0.984943
0.030291
-0.0345335
-1.11975
1.12399
0.0387894
-0.0423512
-1.27422
1.27778
0.0456336
-0.0472362
-1.44421
1.44582
0.0476691
-0.0463698
-1.63046
1.62916
0.043624
-0.038954
-1.54478
1.54011
0.0341351
-0.0282821
-1.24043
1.23458
0.022586
-0.0161329
-1.00779
1.00133
0.0100246
-0.00380674
-0.795264
0.789046
-0.00073922
0.00498573
-0.553422
0.549176
-0.0072025
0.00737461
-0.306877
0.306705
-0.00637832
0.00487194
-0.127066
0.128572
-0.00340387
0.00193536
-0.028847
0.0303155
-0.00093871
0.000270855
0.00717479
-0.00650694
-2.47963e-05
0.00498612
-0.00496133
-0.0769933
0.0756456
0.00134776
-0.00462982
0.00480905
-0.426884
0.426705
-0.00335411
0.00142781
-0.602218
0.604144
0.00211123
-0.00573107
-0.740224
0.743844
0.00993667
-0.0142202
-0.863975
0.868259
0.0188361
-0.0235212
-0.989301
0.993986
0.0280726
-0.0320428
-1.1283
1.13227
0.0363196
-0.0395255
-1.28116
1.28437
0.0421656
-0.0439988
-1.44725
1.44908
0.0443591
-0.0430745
-1.62783
1.62654
0.0401609
-0.035687
-1.53551
1.53104
0.0308506
-0.0249636
-1.22827
1.22238
0.0193317
-0.0128605
-0.994301
0.987829
0.00680932
-0.000782393
-0.781101
0.775074
-0.00381961
0.00742685
-0.542393
0.538786
-0.00920986
0.00926997
-0.303736
0.303676
-0.00808803
0.00627513
-0.128754
0.130567
-0.004616
0.00285233
-0.0313227
0.0330863
-0.00155764
0.000580817
0.00590406
-0.00492724
-0.000120744
0.00488442
-0.00476368
-0.0768409
0.0757098
0.00113109
-0.00335288
0.00330868
-0.429974
0.430019
-0.00208426
0.000204291
-0.60862
0.6105
0.00306848
-0.00654665
-0.747941
0.751419
0.0105415
-0.0143817
-0.872351
0.876191
0.0190713
-0.0229018
-0.998041
1.00187
0.0273613
-0.0310922
-1.13636
1.14009
0.0351643
-0.0384626
-1.2875
1.2908
0.0412692
-0.0427432
-1.45061
1.45208
0.0432548
-0.0421406
-1.6251
1.62399
0.0396256
-0.0351975
-1.52636
1.52193
0.0305668
-0.0248472
-1.21651
1.21079
0.0194007
-0.013036
-0.980845
0.97448
0.00725117
-0.00120202
-0.76753
0.76148
-0.00336611
0.00683575
-0.532494
0.529024
-0.0087349
0.00901987
-0.301104
0.300819
-0.00825219
0.00668982
-0.130887
0.132449
-0.00511986
0.00331793
-0.0343064
0.0361084
-0.00192007
0.000785156
0.00406793
-0.00293301
-0.000197337
0.00459443
-0.00439709
-0.076982
0.0761786
0.000803399
-0.00219721
0.00167754
-0.433109
0.433628
-0.000636652
-0.00132503
-0.614246
0.616208
0.0042576
-0.00758552
-0.755077
0.758405
0.0113877
-0.0153328
-0.879912
0.883857
0.0193609
-0.0233199
-1.00588
1.00984
0.0276927
-0.0311591
-1.14422
1.14769
0.0352618
-0.0384459
-1.29385
1.29703
0.0412105
-0.0431167
-1.45392
1.45583
0.0439837
-0.0429988
-1.62285
1.62186
0.0405444
-0.0366746
-1.51763
1.51376
0.0324586
-0.0269764
-1.2049
1.19942
0.0216801
-0.0157904
-0.967862
0.961972
0.00987511
-0.00409599
-0.754243
0.748464
-0.000574777
0.00425385
-0.52305
0.519371
-0.00617155
0.00703468
-0.298087
0.297224
-0.00683603
0.00589717
-0.132532
0.13347
-0.00467483
0.00317385
-0.0372055
0.0387065
-0.00192534
0.000836869
0.00200929
-0.000920811
-0.000228351
0.00416722
-0.00393887
-0.0775433
0.0769095
0.000633758
-0.00121104
0.000722661
-0.436444
0.436933
0.000843208
-0.0026574
-0.619931
0.621745
0.00575268
-0.00894062
-0.761669
0.764857
0.0125823
-0.0161052
-0.88748
0.891003
0.0202356
-0.0238502
-1.01377
1.01739
0.0281358
-0.0320117
-1.15158
1.15546
0.0357047
-0.0391716
-1.30023
1.3037
0.0423018
-0.0442265
-1.45758
1.4595
0.0453692
-0.0450578
-1.62105
1.62074
0.042954
-0.0396
-1.50971
1.50636
0.0355173
-0.0304407
-1.19395
1.18888
0.0255475
-0.0198216
-0.955557
0.949831
0.0143069
-0.00859323
-0.741513
0.7358
0.00381475
0.000307065
-0.513329
0.509207
-0.00273224
0.00405618
-0.294228
0.292905
-0.00454452
0.00424193
-0.133063
0.133366
-0.00356193
0.00255581
-0.0394346
0.0404407
-0.00162582
0.000747998
0.000130526
0.000747294
-0.000220546
0.00370564
-0.00348509
-0.0784019
0.0779484
0.000453574
-0.000124903
-0.000554325
-0.439939
0.440619
0.0019903
-0.00411366
-0.62521
0.627333
0.00713748
-0.0101654
-0.767994
0.771022
0.0138946
-0.0172595
-0.894509
0.897874
0.021215
-0.0249348
-1.02146
1.02518
0.0291062
-0.0329225
-1.15916
1.16297
0.0368086
-0.0402729
-1.30705
1.31051
0.0435467
-0.046178
-1.46168
1.46431
0.047697
-0.0476155
-1.62032
1.62024
0.0461243
-0.0430163
-1.50286
1.49975
0.0394392
-0.0349018
-1.18374
1.17921
0.0301002
-0.0246666
-0.943782
0.938348
0.0193876
-0.0136512
-0.729175
0.723439
0.00886161
-0.0042624
-0.503398
0.498799
0.00134946
0.000730875
-0.289392
0.287312
-0.00177201
0.00213535
-0.132286
0.131923
-0.0020675
0.00162695
-0.0406372
0.0410777
-0.00111126
0.000548348
-0.00127158
0.0018345