/*--------------------------------*- C++ -*----------------------------------*\
  =========                 |
  \\      /  F ield         | OpenFOAM: The Open Source CFD Toolbox
   \\    /   O peration     | Website:  https://openfoam.org
    \\  /    A nd           | Version:  6
     \\/     M anipulation  |
\*---------------------------------------------------------------------------*/
FoamFile
{
    version     2.0;
    format      ascii;
    class       volScalarField;
    location    "103.5";
    object      p;
}
// * * * * * * * * * * * * * * * * * * * * * * * * * * * * * * * * * * * * * //

dimensions      [0 2 -2 0 0 0 0];

internalField   nonuniform List<scalar> 
8800
(
0.927943
0.87863
0.840667
0.812601
0.792445
0.777866
0.76728
0.759755
0.754892
0.752851
0.754253
0.758622
0.765436
0.774877
0.787625
0.804954
0.828837
0.861938
0.904878
0.957393
0.76243
0.768776
0.777929
0.781481
0.778877
0.772795
0.765864
0.759637
0.754854
0.752011
0.751812
0.754471
0.759139
0.765286
0.7724
0.779445
0.784331
0.784212
0.777543
0.768648
0.735931
0.742168
0.746672
0.750549
0.753504
0.754463
0.753387
0.751284
0.749329
0.748522
0.749591
0.752076
0.754988
0.757277
0.757813
0.756036
0.752679
0.748673
0.743896
0.74018
0.731608
0.734375
0.736986
0.73915
0.740896
0.742476
0.743595
0.743969
0.743884
0.74402
0.744868
0.746048
0.74682
0.746694
0.745737
0.744397
0.742739
0.740445
0.73804
0.736474
0.726522
0.727948
0.729793
0.731882
0.733605
0.734912
0.736029
0.737034
0.737878
0.73866
0.739422
0.739927
0.739988
0.739655
0.73901
0.737913
0.736272
0.734389
0.733041
0.732239
0.721492
0.722396
0.723649
0.725285
0.726992
0.728542
0.729849
0.731003
0.732109
0.733182
0.73403
0.734475
0.734531
0.734201
0.733428
0.732263
0.730921
0.729669
0.728855
0.72833
0.716533
0.71719
0.718158
0.719487
0.720951
0.72249
0.724004
0.725406
0.72672
0.727994
0.729021
0.729585
0.729661
0.729272
0.728529
0.727617
0.726651
0.725764
0.725191
0.724806
0.711642
0.712147
0.71294
0.714096
0.715417
0.716861
0.718405
0.719994
0.721569
0.723109
0.724359
0.725055
0.725208
0.724947
0.724432
0.723783
0.723079
0.722437
0.722019
0.721718
0.70676
0.707162
0.707831
0.708869
0.710124
0.711523
0.713071
0.71477
0.716579
0.718427
0.71996
0.720876
0.721246
0.721234
0.720976
0.72056
0.720072
0.719631
0.719325
0.71908
0.701804
0.702132
0.702715
0.703679
0.704896
0.706292
0.707889
0.709706
0.711735
0.713914
0.715817
0.717074
0.71776
0.718039
0.718041
0.717873
0.717594
0.71732
0.7171
0.716894
0.696683
0.696954
0.697479
0.698403
0.699612
0.701048
0.702738
0.704719
0.707011
0.709578
0.711942
0.713636
0.714706
0.715317
0.715605
0.715688
0.715623
0.715502
0.715351
0.715171
0.691302
0.69153
0.692018
0.692931
0.694174
0.695693
0.697521
0.699727
0.702356
0.705403
0.708329
0.710547
0.712066
0.71306
0.713671
0.714012
0.714176
0.714199
0.714105
0.713944
0.685561
0.685755
0.686226
0.687159
0.688477
0.690125
0.692149
0.694651
0.697708
0.701349
0.704957
0.707798
0.709845
0.71128
0.712262
0.712912
0.713304
0.71346
0.713414
0.713265
0.67935
0.679516
0.679987
0.680969
0.682403
0.684233
0.686523
0.689406
0.692999
0.697368
0.7018
0.705388
0.708062
0.710011
0.711421
0.712414
0.713056
0.713347
0.713343
0.7132
0.672538
0.672681
0.673168
0.674227
0.675823
0.677897
0.680532
0.683897
0.688154
0.693411
0.698838
0.70332
0.706738
0.709295
0.711192
0.71258
0.713507
0.713938
0.713972
0.713831
0.664973
0.665094
0.665609
0.666776
0.668585
0.670974
0.674047
0.678016
0.683091
0.689429
0.696052
0.7016
0.705897
0.709173
0.711655
0.713501
0.714746
0.715322
0.715391
0.715248
0.656457
0.65656
0.65711
0.658419
0.660504
0.663291
0.666915
0.671634
0.677715
0.685366
0.693424
0.70024
0.705575
0.709697
0.71288
0.715265
0.716867
0.717596
0.717695
0.717544
0.646703
0.646806
0.647425
0.648908
0.651348
0.654639
0.658951
0.664604
0.671923
0.681166
0.690938
0.699254
0.705813
0.710931
0.714937
0.717954
0.71996
0.720846
0.720971
0.72081
0.635408
0.635487
0.636195
0.637936
0.640822
0.644751
0.649932
0.656749
0.665594
0.676769
0.688584
0.698658
0.706651
0.712939
0.717895
0.721653
0.724104
0.725148
0.72529
0.725115
0.622151
0.622219
0.623037
0.625092
0.628543
0.633293
0.639581
0.647868
0.658602
0.672119
0.686357
0.698479
0.708121
0.715767
0.721829
0.726424
0.729349
0.730538
0.730687
0.730494
0.606319
0.606378
0.60735
0.609828
0.614028
0.619847
0.62757
0.637731
0.650823
0.667176
0.684262
0.698743
0.710263
0.719454
0.726765
0.732287
0.735694
0.737001
0.737139
0.736927
0.587068
0.587123
0.58832
0.591396
0.596615
0.60388
0.613508
0.626102
0.642155
0.661932
0.682328
0.699476
0.713104
0.724017
0.732696
0.739216
0.743065
0.744434
0.744542
0.74431
0.563149
0.56321
0.564763
0.568739
0.575428
0.584722
0.596965
0.612773
0.632557
0.656438
0.680617
0.700724
0.716655
0.729446
0.739592
0.7471
0.751286
0.752635
0.752689
0.752441
0.532609
0.532701
0.534874
0.540316
0.549313
0.561605
0.577553
0.597646
0.622099
0.650817
0.679236
0.702541
0.72093
0.735677
0.747355
0.755734
0.760066
0.761288
0.761267
0.761011
0.49214
0.492373
0.49583
0.503983
0.516893
0.533861
0.555111
0.58085
0.611013
0.645287
0.67834
0.705017
0.725921
0.74267
0.755817
0.764809
0.769005
0.769982
0.769879
0.769626
0.435429
0.436621
0.443551
0.457377
0.477143
0.501362
0.529975
0.562848
0.599716
0.640143
0.678096
0.708236
0.731646
0.750307
0.764726
0.773918
0.777627
0.778278
0.778105
0.777867
0.353325
0.361399
0.377396
0.401652
0.431684
0.465618
0.503183
0.544203
0.588442
0.635498
0.678671
0.712523
0.73865
0.759332
0.774668
0.783593
0.7866
0.786931
0.786722
0.786528
0.26567
0.283429
0.309432
0.344897
0.385759
0.429515
0.475994
0.525205
0.577023
0.631153
0.680193
0.718373
0.747762
0.770634
0.786623
0.794525
0.796523
0.79658
0.796408
0.796292
0.190327
0.212067
0.246418
0.29147
0.341909
0.394916
0.45006
0.507288
0.566452
0.627264
0.681685
0.723712
0.755902
0.780476
0.796417
0.803034
0.804302
0.80427
0.804143
0.804061
0.12829
0.152458
0.192543
0.24447
0.302375
0.363075
0.425824
0.490354
0.55632
0.623329
0.682664
0.728153
0.762735
0.788519
0.804199
0.809926
0.810839
0.81078
0.810677
0.81061
0.0766372
0.102284
0.14652
0.203773
0.267624
0.334608
0.403778
0.474684
0.546754
0.619412
0.683243
0.731855
0.76858
0.795434
0.810793
0.815837
0.816534
0.816457
0.816366
0.816302
0.0327783
0.0592961
0.106598
0.168151
0.236971
0.309287
0.383972
0.460461
0.537986
0.615766
0.683693
0.735138
0.773763
0.801448
0.816471
0.821011
0.821575
0.821483
0.821393
0.821328
-0.00536748
0.0217129
0.0713981
0.136509
0.209569
0.286522
0.366089
0.447587
0.530074
0.612548
0.684209
0.738167
0.778396
0.806689
0.821359
0.825535
0.826019
0.825916
0.825823
0.825751
-0.0393166
-0.0118141
0.0398205
0.107963
0.184703
0.26574
0.349701
0.435791
0.522892
0.609762
0.684867
0.741047
0.782589
0.811258
0.825547
0.829453
0.829898
0.829799
0.829708
0.829628
-0.0701321
-0.0422636
0.0110146
0.0818067
0.161797
0.246477
0.334428
0.424773
0.516243
0.607324
0.685698
0.743892
0.786491
0.81531
0.829165
0.832853
0.833294
0.833231
0.833159
0.833072
-0.0986647
-0.0704264
-0.0156823
0.0575055
0.140394
0.228355
0.319957
0.414278
0.509932
0.605138
0.686731
0.746832
0.790301
0.819074
0.832435
0.835924
0.836391
0.836398
0.836367
0.83628
-0.125351
-0.0967861
-0.0407078
0.0346295
0.120133
0.211073
0.306039
0.404099
0.503792
0.60313
0.68801
0.750011
0.794245
0.822831
0.835652
0.838943
0.839449
0.839548
0.839576
0.839495
-0.150721
-0.121753
-0.0644439
0.0128595
0.100734
0.194393
0.292476
0.394062
0.497678
0.6012
0.689562
0.753573
0.798546
0.826859
0.839111
0.842194
0.842726
0.842918
0.843013
0.842946
-0.174953
-0.145584
-0.0871226
-0.00802955
0.0819945
0.178141
0.279111
0.384026
0.491452
0.599244
0.691382
0.757638
0.803396
0.831369
0.843026
0.845869
0.846404
0.846668
0.846824
0.846774
-0.198243
-0.168459
-0.108925
-0.0281915
0.0637828
0.162196
0.265829
0.373868
0.484987
0.597126
0.693404
0.762294
0.808947
0.836522
0.847484
0.850042
0.850549
0.850855
0.851052
0.85102
-0.220735
-0.190493
-0.129956
-0.047721
0.0460014
0.146476
0.252554
0.363511
0.478169
0.594695
0.6955
0.767579
0.815385
0.842421
0.852482
0.854655
0.855115
0.855436
0.855642
0.855619
-0.242543
-0.211802
-0.15027
-0.066675
0.0286121
0.130934
0.239241
0.352892
0.47091
0.591792
0.697498
0.773448
0.822898
0.849289
0.858025
0.859524
0.859915
0.860283
0.860487
0.860453
-0.263581
-0.23237
-0.169892
-0.0850973
0.0115856
0.115564
0.225868
0.341988
0.463149
0.588291
0.69918
0.779777
0.831659
0.857543
0.864345
0.864503
0.864636
0.865229
0.865618
0.865581
-0.283867
-0.252213
-0.188858
-0.102996
-0.00507674
0.100368
0.212457
0.330789
0.454856
0.584073
0.70032
0.786338
0.841731
0.867732
0.872222
0.870047
0.869217
0.870265
0.871493
0.871719
-0.303492
-0.271335
-0.207187
-0.120378
-0.0213549
0.0853776
0.199036
0.319323
0.446019
0.579059
0.700676
0.79281
0.852974
0.880342
0.883016
0.877835
0.874947
0.876305
0.879338
0.880874
-0.322344
-0.289737
-0.224855
-0.137209
-0.0372272
0.0706381
0.185656
0.307639
0.43667
0.573212
0.700026
0.798793
0.865003
0.89537
0.897745
0.890211
0.884484
0.883956
0.887253
0.889295
-0.340524
-0.307457
-0.241887
-0.153542
-0.0527489
0.0560918
0.172246
0.295659
0.426711
0.566422
0.698145
0.803926
0.877453
0.912455
0.916495
0.908297
0.899521
0.892103
0.884469
0.888091
-0.357986
-0.324562
-0.258433
-0.169579
-0.0682154
0.0414188
0.158412
0.282931
0.41565
0.558145
0.694498
0.80762
0.890202
0.931599
0.938753
0.931517
0.918648
0.903039
0.879938
0.88353
-0.374625
-0.341056
-0.274352
-0.185144
-0.0833832
0.0268967
0.144318
0.269723
0.403695
0.54846
0.688811
0.808639
0.901588
0.950867
0.960226
0.952541
0.93552
0.902787
0.847346
0.824702
-0.390349
-0.357978
-0.289249
-0.199809
-0.0974499
0.0130121
0.130242
0.256304
0.391106
0.53749
0.680971
0.80604
0.909553
0.967936
0.974393
0.960504
0.930576
0.87076
0.808342
0.770851
-0.432101
-0.374709
-0.302831
-0.214551
-0.111193
-0.00124811
0.116331
0.242529
0.377633
0.524791
0.670326
0.79871
0.910079
0.976345
0.977193
0.94168
0.875468
0.800059
0.728191
0.688456
-0.405275
-0.386306
-0.323405
-0.234497
-0.132566
-0.0227133
0.0943852
0.220337
0.355241
0.50232
0.648499
0.778185
0.884554
0.958269
0.923361
0.792574
0.68866
0.616516
0.547431
0.567337
-0.434948
-0.40285
-0.339061
-0.25056
-0.148975
-0.039191
0.0782585
0.203796
0.338074
0.484101
0.628682
0.755597
0.850717
0.891763
0.818979
0.660867
0.539186
0.457048
0.370034
0.407716
-0.457561
-0.423177
-0.357692
-0.269127
-0.167571
-0.0577241
0.0597392
0.184673
0.317883
0.461974
0.603243
0.724181
0.806997
0.809844
0.682113
0.512157
0.372262
0.271275
0.171593
0.19549
-0.479355
-0.444019
-0.377245
-0.288058
-0.186415
-0.0766381
0.0403878
0.164489
0.296302
0.437823
0.574338
0.685503
0.75039
0.718985
0.54142
0.352769
0.184639
0.0446967
-0.0839238
-0.079408
-0.500736
-0.46511
-0.397512
-0.307784
-0.206021
-0.0964466
0.0199538
0.143007
0.273024
0.411344
0.541741
0.6425
0.685585
0.602261
0.402123
0.195734
0.00330198
-0.154616
-0.360779
-0.441475
-0.522396
-0.486929
-0.418897
-0.328822
-0.226942
-0.117568
-0.00177311
0.120124
0.248097
0.382724
0.506051
0.597112
0.610607
0.476363
0.27411
0.0578007
-0.138559
-0.301672
-0.424711
-0.537578
-0.545393
-0.509952
-0.441753
-0.351555
-0.249718
-0.140675
-0.0256277
0.0948679
0.220335
0.350489
0.465978
0.543051
0.526875
0.356482
0.153786
-0.0559186
-0.235433
-0.334076
-0.35993
-0.372948
-0.569872
-0.534473
-0.466205
-0.376069
-0.274493
-0.165997
-0.0519953
0.0667068
0.189091
0.313818
0.420616
0.478207
0.440367
0.241107
0.0409171
-0.148246
-0.28407
-0.322553
-0.330941
-0.331291
-0.596127
-0.560626
-0.492297
-0.402353
-0.301219
-0.193549
-0.0809168
0.0355614
0.154267
0.272695
0.369977
0.409469
0.335182
0.135005
-0.0582049
-0.222577
-0.298779
-0.312857
-0.313858
-0.313733
-0.624161
-0.588443
-0.520058
-0.430413
-0.329925
-0.223338
-0.11242
0.00139216
0.115861
0.227228
0.313856
0.336061
0.222754
0.0382155
-0.143818
-0.273945
-0.303162
-0.303779
-0.304317
-0.303917
-0.653729
-0.617774
-0.549399
-0.460184
-0.360541
-0.25533
-0.146502
-0.0357966
0.073925
0.177541
0.253386
0.25506
0.123725
-0.049895
-0.210639
-0.285816
-0.300541
-0.298495
-0.298181
-0.297786
-0.684284
-0.648275
-0.580067
-0.491445
-0.392892
-0.28938
-0.183026
-0.0758961
0.0286866
0.124163
0.188859
0.17381
0.0335084
-0.126743
-0.255501
-0.294518
-0.293815
-0.294067
-0.29378
-0.293453
-0.715386
-0.679421
-0.611582
-0.52379
-0.426636
-0.325176
-0.221714
-0.118631
-0.019545
0.0680915
0.119305
0.0974554
-0.0469162
-0.187047
-0.28166
-0.289935
-0.291197
-0.291437
-0.29128
-0.291051
-0.746055
-0.710354
-0.64323
-0.556594
-0.461228
-0.362241
-0.262099
-0.163504
-0.0703277
0.0102067
0.0501389
0.0210265
-0.114835
-0.22895
-0.286352
-0.296328
-0.290829
-0.289769
-0.289373
-0.289179
-0.774663
-0.739809
-0.673985
-0.58898
-0.495893
-0.39987
-0.303506
-0.209757
-0.122861
-0.0490105
-0.0138345
-0.0569706
-0.169436
-0.260695
-0.283689
-0.287266
-0.288094
-0.287667
-0.287472
-0.287353
-0.799963
-0.766295
-0.702464
-0.619755
-0.529577
-0.437116
-0.345047
-0.256449
-0.175881
-0.108998
-0.0760463
-0.123972
-0.210677
-0.27904
-0.300284
-0.290583
-0.287197
-0.286179
-0.285918
-0.285788
-0.819357
-0.787732
-0.726927
-0.647413
-0.560971
-0.472796
-0.385605
-0.302501
-0.228065
-0.167952
-0.137789
-0.17635
-0.238247
-0.282529
-0.28803
-0.287765
-0.286224
-0.28568
-0.285497
-0.28533
-0.830853
-0.802056
-0.745329
-0.670229
-0.588556
-0.505532
-0.423852
-0.346655
-0.278286
-0.223258
-0.194267
-0.219931
-0.255192
-0.281702
-0.281389
-0.28492
-0.286438
-0.286503
-0.286397
-0.286284
-0.831792
-0.806927
-0.755606
-0.686379
-0.610716
-0.533861
-0.458374
-0.387414
-0.325314
-0.274245
-0.241435
-0.25889
-0.269489
-0.285468
-0.287297
-0.287128
-0.287569
-0.28764
-0.287615
-0.287596
-0.819808
-0.799704
-0.755642
-0.694143
-0.626001
-0.556413
-0.487858
-0.423254
-0.367377
-0.322082
-0.276827
-0.295269
-0.281697
-0.290899
-0.291854
-0.289549
-0.288824
-0.289054
-0.289329
-0.289387
-0.792852
-0.778191
-0.743649
-0.692332
-0.633374
-0.572217
-0.51127
-0.453106
-0.402709
-0.364927
-0.316841
-0.31041
-0.299029
-0.298347
-0.293772
-0.294164
-0.293899
-0.294514
-0.295033
-0.295133
-0.754396
-0.745062
-0.720891
-0.681263
-0.632889
-0.581038
-0.528033
-0.476433
-0.430751
-0.398539
-0.366939
-0.338267
-0.310453
-0.313208
-0.321537
-0.315012
-0.309577
-0.308461
-0.308948
-0.309019
-0.711462
-0.706138
-0.692274
-0.664039
-0.626653
-0.583717
-0.538324
-0.492798
-0.450999
-0.420067
-0.39222
-0.366147
-0.335837
-0.317455
-0.299165
-0.302312
-0.321521
-0.333584
-0.336974
-0.337083
-0.673765
-0.670506
-0.663878
-0.645934
-0.617506
-0.582099
-0.543111
-0.502197
-0.462562
-0.430029
-0.403935
-0.388587
-0.378079
-0.38798
-0.409169
-0.437458
-0.439274
-0.41129
-0.396389
-0.398509
-0.646614
-0.644683
-0.641322
-0.630716
-0.609073
-0.579249
-0.54429
-0.505735
-0.465698
-0.429427
-0.402063
-0.393028
-0.424883
-0.486993
-0.555691
-0.600779
-0.606876
-0.571439
-0.523242
-0.507793
-0.626717
-0.626036
-0.624906
-0.619662
-0.603838
-0.577652
-0.543967
-0.505069
-0.462269
-0.419521
-0.388345
-0.359159
-0.346626
-0.366992
-0.405409
-0.41249
-0.412992
-0.403182
-0.380637
-0.367749
-0.615094
-0.61487
-0.614258
-0.611848
-0.601117
-0.57707
-0.543045
-0.502063
-0.454835
-0.402302
-0.358382
-0.301954
-0.228276
-0.171297
-0.150817
-0.147495
-0.127516
-0.0948529
-0.0632984
-0.0470977
-0.607079
-0.606931
-0.60652
-0.605829
-0.599293
-0.577653
-0.542599
-0.498227
-0.4451
-0.381213
-0.316059
-0.231908
-0.102703
0.0510315
0.181944
0.278158
0.362157
0.429946
0.480346
0.50248
-0.601893
-0.601847
-0.601721
-0.601549
-0.597674
-0.579475
-0.543442
-0.494724
-0.435692
-0.361179
-0.276582
-0.179775
0.00163236
0.254717
0.528831
0.773053
0.949392
1.05317
1.10085
1.11613
-0.597734
-0.597726
-0.597648
-0.597532
-0.59614
-0.581919
-0.545643
-0.493222
-0.428718
-0.346301
-0.249948
-0.145645
0.0543452
0.354968
0.687963
0.997838
1.23692
1.36455
1.40656
1.41475
-0.594271
-0.594289
-0.594201
-0.593988
-0.593818
-0.583901
-0.549251
-0.494894
-0.426037
-0.339846
-0.238713
-0.132677
0.0476395
0.32925
0.639715
0.928939
1.15379
1.27338
1.31436
1.32334
-0.591622
-0.591672
-0.591736
-0.591829
-0.592338
-0.585348
-0.554119
-0.499194
-0.428794
-0.34234
-0.242937
-0.144703
0.00457736
0.249214
0.506296
0.73281
0.909391
1.00887
1.04806
1.05884
-0.588853
-0.589005
-0.589321
-0.589872
-0.59027
-0.586441
-0.55902
-0.505916
-0.436967
-0.352491
-0.260041
-0.173269
-0.0586924
0.142224
0.351976
0.525987
0.661186
0.743272
0.777528
0.786659
-0.586485
-0.586621
-0.586625
-0.586379
-0.586
-0.584398
-0.562325
-0.514402
-0.449089
-0.369016
-0.285447
-0.211495
-0.12786
0.0278866
0.197977
0.335782
0.442801
0.508652
0.535029
0.540893
-0.586559
-0.586502
-0.585862
-0.584046
-0.581461
-0.579912
-0.565224
-0.524893
-0.463875
-0.388859
-0.314426
-0.252138
-0.189378
-0.0692663
0.062354
0.1669
0.247867
0.29818
0.316948
0.320131
-0.59042
-0.590281
-0.589593
-0.587684
-0.584456
-0.58242
-0.574285
-0.53865
-0.479296
-0.409464
-0.345365
-0.291815
-0.246748
-0.155083
-0.0522822
0.0263006
0.0847846
0.119751
0.131836
0.133441
-0.596843
-0.597174
-0.598335
-0.60133
-0.605406
-0.60697
-0.597045
-0.555829
-0.493741
-0.430945
-0.374254
-0.326461
-0.288967
-0.222382
-0.147303
-0.0908514
-0.0487187
-0.0252627
-0.0170114
-0.0161177
-0.600688
-0.601843
-0.606091
-0.617913
-0.635787
-0.643063
-0.625427
-0.570507
-0.507441
-0.45248
-0.399845
-0.355191
-0.324847
-0.272351
-0.216937
-0.178598
-0.151704
-0.136953
-0.131948
-0.131978
-0.600739
-0.601894
-0.606343
-0.618877
-0.641613
-0.655505
-0.626307
-0.570079
-0.519131
-0.471513
-0.419933
-0.379194
-0.354501
-0.315712
-0.274496
-0.246824
-0.228855
-0.219684
-0.2169
-0.217043
-0.60545
-0.606054
-0.607357
-0.603504
-0.589231
-0.577287
-0.5713
-0.549599
-0.524652
-0.483066
-0.433568
-0.398948
-0.377035
-0.343964
-0.312059
-0.292356
-0.279371
-0.273278
-0.271311
-0.271338
-0.617612
-0.617487
-0.615336
-0.592225
-0.536598
-0.491222
-0.501409
-0.52765
-0.526697
-0.489073
-0.443991
-0.413624
-0.393964
-0.36331
-0.33404
-0.316003
-0.304915
-0.299428
-0.297071
-0.297113
-0.637782
-0.635859
-0.631171
-0.608611
-0.558249
-0.513898
-0.521498
-0.55546
-0.546767
-0.497973
-0.451446
-0.424479
-0.402323
-0.3731
-0.34446
-0.324734
-0.310862
-0.303088
-0.300159
-0.300306
-0.691548
-0.690416
-0.703965
-0.724749
-0.730461
-0.705857
-0.679512
-0.645837
-0.584934
-0.508535
-0.460042
-0.42985
-0.404651
-0.374366
-0.343621
-0.319242
-0.301325
-0.291154
-0.287902
-0.288368
-0.805154
-0.815439
-0.851467
-0.896942
-0.915537
-0.896978
-0.844384
-0.749702
-0.623407
-0.518529
-0.464173
-0.425031
-0.400591
-0.368557
-0.33292
-0.304769
-0.284021
-0.272795
-0.269444
-0.27015
-0.906716
-0.921687
-0.95565
-0.988416
-1.00449
-0.986693
-0.920027
-0.786164
-0.628159
-0.517042
-0.449782
-0.407382
-0.384928
-0.351584
-0.31446
-0.285332
-0.26413
-0.252833
-0.249452
-0.250204
-0.914037
-0.926268
-0.948825
-0.972705
-0.98645
-0.971658
-0.901377
-0.743679
-0.589031
-0.48424
-0.410779
-0.374053
-0.355273
-0.319784
-0.283878
-0.257525
-0.239184
-0.229645
-0.226927
-0.227642
-0.815224
-0.824674
-0.842787
-0.863383
-0.877263
-0.86477
-0.796199
-0.649859
-0.520932
-0.41849
-0.351036
-0.325864
-0.306994
-0.273768
-0.243636
-0.222322
-0.207759
-0.20044
-0.19837
-0.198965
-0.629509
-0.639607
-0.659166
-0.683178
-0.702309
-0.693054
-0.623587
-0.515581
-0.416384
-0.328429
-0.281985
-0.261557
-0.242903
-0.216137
-0.19318
-0.176876
-0.165905
-0.160692
-0.159446
-0.160022
-0.392365
-0.402705
-0.423305
-0.452056
-0.475744
-0.468863
-0.417458
-0.347269
-0.278583
-0.227338
-0.200631
-0.182383
-0.171425
-0.152087
-0.13469
-0.122719
-0.114619
-0.111014
-0.110557
-0.111263
-0.144443
-0.156172
-0.181614
-0.212693
-0.236148
-0.237049
-0.212196
-0.179341
-0.146114
-0.124078
-0.107714
-0.0989782
-0.0966611
-0.0833768
-0.073487
-0.0663202
-0.060028
-0.0572537
-0.0577303
-0.0587215
0.015829
0.00592869
-0.0108404
-0.0269089
-0.0380283
-0.043023
-0.0443356
-0.0400777
-0.0328382
-0.0281744
-0.0234597
-0.0202205
-0.0189789
-0.0174046
-0.0151315
-0.0164659
-0.0162993
-0.0156653
-0.013771
-0.0131267
0.0442326
0.22712
0.393973
0.534193
0.64439
0.729303
0.798694
0.854848
0.868077
0.865374
0.320529
0.436949
0.545642
0.638801
0.716241
0.779409
0.828872
0.862266
0.880203
0.897256
0.507175
0.584232
0.66027
0.726622
0.782787
0.829202
0.865848
0.894044
0.915305
0.934614
0.645387
0.700293
0.755373
0.804679
0.847168
0.883362
0.913861
0.939522
0.959346
0.97826
0.757789
0.799206
0.840203
0.87864
0.913044
0.943545
0.970286
0.993066
1.01081
1.02892
0.851826
0.886355
0.9203
0.95289
0.983006
1.01035
1.03458
1.05503
1.07058
1.08808
0.938187
0.969434
1.00091
1.03141
1.05982
1.08569
1.10843
1.1271
1.14083
1.15784
1.02388
1.05604
1.08799
1.11879
1.14722
1.1727
1.19458
1.21192
1.22416
1.24066
1.11753
1.1538
1.18832
1.22052
1.24946
1.2746
1.29553
1.31168
1.32319
1.3393
1.23027
1.27099
1.3078
1.34047
1.36874
1.39258
1.41208
1.42727
1.43908
1.45512
1.37168
1.4125
1.44763
1.47704
1.50211
1.52363
1.54206
1.55749
1.57055
1.58648
1.54292
1.57483
1.60177
1.62411
1.64415
1.66282
1.68052
1.69726
1.71214
1.72785
1.72893
1.74611
1.76318
1.77985
1.79593
1.81065
1.82453
1.83899
1.85421
1.87151
1.9123
1.9222
1.93535
1.94633
1.95573
1.96538
1.97597
1.98613
1.99541
2.02108
2.13007
2.12437
2.11142
2.09716
2.09085
2.09655
2.11468
2.1432
2.17697
2.21329
2.4329
2.29696
2.21743
2.17487
2.15753
2.16153
2.18895
2.24681
2.35446
2.53287
0.831635
0.825333
0.817607
0.806497
0.792934
0.780296
0.769916
0.761929
0.756247
0.752967
0.75268
0.755575
0.760859
0.768254
0.77783
0.78968
0.803255
0.816194
0.82519
0.832734
0.740686
0.746607
0.754684
0.760823
0.7639
0.763402
0.760334
0.756366
0.752816
0.750585
0.75052
0.752842
0.756652
0.761138
0.76527
0.767537
0.766479
0.761854
0.754806
0.746976
0.733907
0.73628
0.739553
0.742334
0.744796
0.747
0.748202
0.748086
0.747192
0.746445
0.746738
0.74823
0.750075
0.751351
0.751312
0.749871
0.747732
0.745385
0.742413
0.7394
0.729077
0.730166
0.732088
0.734436
0.736322
0.73774
0.738984
0.740012
0.740663
0.741111
0.741756
0.74259
0.74313
0.743068
0.742483
0.741593
0.740286
0.738334
0.73624
0.734766
0.723999
0.724633
0.725768
0.727538
0.729399
0.731016
0.732298
0.733405
0.734446
0.735428
0.736321
0.736949
0.737174
0.737035
0.736551
0.735617
0.73422
0.732633
0.73131
0.730512
0.719006
0.719444
0.720239
0.721559
0.723102
0.724693
0.726209
0.727556
0.728782
0.729968
0.731049
0.731781
0.732065
0.731913
0.731313
0.730364
0.729249
0.728133
0.727248
0.726717
0.714085
0.714411
0.715031
0.716118
0.71744
0.718874
0.720398
0.721933
0.72341
0.72483
0.726131
0.727032
0.727389
0.727246
0.72673
0.726009
0.725212
0.724393
0.723752
0.723363
0.709208
0.709461
0.709962
0.710894
0.712098
0.713448
0.714924
0.716526
0.718206
0.719908
0.721489
0.722598
0.7231
0.723128
0.722847
0.72238
0.721807
0.721225
0.720767
0.720471
0.704301
0.704502
0.70492
0.705746
0.706878
0.708189
0.709663
0.711324
0.713166
0.715143
0.717057
0.718471
0.719246
0.719549
0.719534
0.719314
0.718964
0.718584
0.718271
0.718039
0.699275
0.699435
0.699796
0.700553
0.701646
0.702948
0.704466
0.70623
0.708256
0.710526
0.712835
0.714663
0.71581
0.716444
0.716717
0.716754
0.716639
0.716448
0.716254
0.716069
0.694036
0.694165
0.694485
0.695201
0.696285
0.697625
0.699227
0.701141
0.70341
0.706041
0.708832
0.711169
0.712764
0.713783
0.714385
0.714703
0.714822
0.714818
0.714729
0.71458
0.688488
0.688591
0.688884
0.689585
0.690697
0.692118
0.693851
0.695974
0.698559
0.701644
0.705027
0.707977
0.7101
0.711565
0.712543
0.713169
0.713554
0.713735
0.713736
0.713614
0.682527
0.682608
0.682886
0.683597
0.684773
0.686317
0.688239
0.690641
0.693629
0.69728
0.701385
0.705071
0.707822
0.70981
0.711221
0.712218
0.712882
0.713247
0.713331
0.71323
0.676032
0.676093
0.676366
0.67711
0.678386
0.680104
0.682279
0.685043
0.688539
0.692886
0.697869
0.702441
0.705942
0.708547
0.710459
0.711868
0.712854
0.713422
0.713588
0.713502
0.668866
0.668904
0.66918
0.66998
0.671396
0.673342
0.675846
0.679071
0.6832
0.688401
0.694446
0.70008
0.704472
0.707809
0.710315
0.7122
0.713557
0.714345
0.71459
0.714516
0.660855
0.660873
0.661153
0.662032
0.66363
0.66587
0.668793
0.672594
0.677507
0.683752
0.69108
0.697985
0.703432
0.707632
0.710845
0.713303
0.715082
0.716109
0.716432
0.716364
0.651742
0.65175
0.652057
0.653041
0.654877
0.657488
0.660937
0.665458
0.671341
0.678862
0.687736
0.696154
0.702851
0.708066
0.712111
0.715254
0.717518
0.718805
0.719206
0.719141
0.641262
0.641244
0.641592
0.642727
0.644864
0.647948
0.65206
0.657481
0.664564
0.673646
0.684381
0.694588
0.702756
0.709168
0.714193
0.718126
0.720953
0.722521
0.722994
0.722926
0.629036
0.628997
0.629397
0.630721
0.633239
0.63693
0.641885
0.648442
0.657021
0.668012
0.680982
0.693297
0.703177
0.71098
0.717156
0.721997
0.725458
0.727316
0.727852
0.727775
0.614552
0.614491
0.61497
0.616549
0.619558
0.624033
0.630075
0.63808
0.648538
0.661875
0.677516
0.692298
0.704143
0.713539
0.721047
0.72692
0.73107
0.733211
0.73379
0.733697
0.597089
0.597006
0.597616
0.599552
0.603217
0.608736
0.61621
0.626099
0.638943
0.655168
0.673985
0.691613
0.705689
0.716884
0.725866
0.732896
0.737771
0.740158
0.740749
0.740631
0.575618
0.575518
0.576338
0.578796
0.583386
0.590353
0.599779
0.612177
0.62809
0.647872
0.670426
0.691282
0.707844
0.721021
0.731617
0.739896
0.745463
0.748017
0.748574
0.748426
0.54857
0.548471
0.549646
0.552915
0.558921
0.568001
0.58021
0.59603
0.615913
0.640044
0.666931
0.691372
0.710634
0.725944
0.738261
0.747807
0.753947
0.756532
0.757004
0.75682
0.513406
0.513365
0.515183
0.519859
0.528245
0.540672
0.55699
0.577527
0.602501
0.631854
0.663654
0.691987
0.714093
0.731627
0.745708
0.756436
0.762905
0.765337
0.765668
0.765453
0.465616
0.465811
0.469061
0.476712
0.489548
0.5075
0.529946
0.556869
0.588182
0.623604
0.660808
0.693259
0.718276
0.738025
0.753829
0.765503
0.771907
0.773965
0.774125
0.773891
0.396744
0.398249
0.406191
0.42073
0.441811
0.468587
0.499693
0.534744
0.573529
0.615698
0.658625
0.69528
0.72321
0.745061
0.762339
0.774507
0.780378
0.781879
0.78188
0.78166
0.314448
0.317356
0.332855
0.358042
0.390451
0.427615
0.468055
0.511629
0.558247
0.607658
0.656987
0.698608
0.730166
0.754693
0.773452
0.785522
0.790566
0.791581
0.79153
0.7914
0.229996
0.237566
0.260894
0.296705
0.340033
0.387371
0.437134
0.489249
0.543701
0.600297
0.655954
0.70244
0.737486
0.764629
0.784728
0.796169
0.799869
0.800329
0.800244
0.800169
0.160684
0.170439
0.198712
0.242038
0.293899
0.349817
0.407951
0.468038
0.529909
0.593282
0.654791
0.705681
0.743797
0.772979
0.7937
0.804299
0.807201
0.807482
0.807409
0.807361
0.103717
0.114239
0.146282
0.195162
0.253453
0.316188
0.381304
0.448334
0.516878
0.586457
0.65334
0.708224
0.749075
0.780001
0.801143
0.811039
0.81341
0.813589
0.813529
0.813496
0.0558765
0.0667694
0.101412
0.154602
0.218112
0.286473
0.35744
0.430436
0.504864
0.580033
0.651816
0.710339
0.753673
0.786168
0.807547
0.816839
0.818851
0.818967
0.818908
0.818881
0.0147355
0.0257893
0.0623602
0.118994
0.186844
0.260011
0.336058
0.414292
0.493977
0.57421
0.650461
0.71228
0.757805
0.791575
0.813083
0.821871
0.823648
0.823723
0.823659
0.823631
-0.0214244
-0.0103198
0.0277519
0.0872305
0.158769
0.236104
0.316649
0.399606
0.484098
0.569011
0.649386
0.714174
0.761583
0.796363
0.817856
0.826217
0.827841
0.827894
0.82783
0.827798
-0.0538681
-0.0427527
-0.00349644
0.0584276
0.133173
0.214177
0.298745
0.38602
0.474986
0.564324
0.64859
0.716105
0.765127
0.800644
0.821977
0.829952
0.83148
0.83154
0.831493
0.831462
-0.0836307
-0.0724877
-0.0321888
0.0319009
0.109498
0.193768
0.281968
0.373217
0.466399
0.559996
0.648042
0.718147
0.768592
0.80461
0.825634
0.83323
0.834694
0.834796
0.834794
0.834777
-0.111299
-0.100118
-0.0588931
0.00714433
0.087291
0.174501
0.266013
0.360949
0.458127
0.555884
0.647716
0.720396
0.772156
0.8085
0.829099
0.836304
0.837715
0.837888
0.83796
0.83797
-0.137369
-0.12614
-0.0840519
-0.0162415
0.066208
0.156085
0.250635
0.349005
0.450002
0.551861
0.647585
0.722947
0.776014
0.812579
0.832669
0.839472
0.840828
0.84108
0.841238
0.841288
-0.162246
-0.15088
-0.107988
-0.0385404
0.0459991
0.138295
0.235642
0.337225
0.441869
0.547804
0.6476
0.725877
0.780341
0.81708
0.836606
0.842995
0.844272
0.844588
0.844825
0.844917
-0.186077
-0.174555
-0.130897
-0.0599561
0.0264815
0.120983
0.220898
0.325473
0.433597
0.543574
0.647666
0.729232
0.78528
0.822181
0.841084
0.847007
0.848177
0.848529
0.848824
0.848954
-0.209074
-0.197344
-0.152956
-0.0806139
0.00753987
0.104037
0.2063
0.313653
0.425079
0.539041
0.647645
0.732987
0.790968
0.828046
0.846178
0.851532
0.852554
0.852913
0.853233
0.853385
-0.231253
-0.219334
-0.174246
-0.100592
-0.0108954
0.0873952
0.191796
0.301704
0.416232
0.534072
0.647374
0.737046
0.797517
0.834854
0.851943
0.856478
0.857277
0.857648
0.857966
0.85811
-0.252737
-0.240585
-0.194783
-0.119932
-0.0288687
0.0710238
0.177351
0.289592
0.407002
0.528561
0.646667
0.741247
0.804968
0.842918
0.858612
0.86176
0.862074
0.862507
0.862914
0.863063
-0.273404
-0.261102
-0.214599
-0.13867
-0.046391
0.0549349
0.162963
0.277307
0.39736
0.522438
0.645341
0.745363
0.813277
0.852565
0.866749
0.867657
0.8668
0.867237
0.868129
0.868547
-0.293421
-0.280891
-0.233709
-0.156829
-0.0634764
0.0391172
0.148666
0.264859
0.387303
0.515662
0.643234
0.749112
0.822245
0.864033
0.87721
0.875362
0.872203
0.872127
0.874136
0.875621
-0.312676
-0.299918
-0.252135
-0.174395
-0.0800807
0.0236147
0.134496
0.252311
0.376859
0.508188
0.640215
0.752177
0.831521
0.877275
0.890807
0.886717
0.880593
0.878958
0.882
0.885784
-0.331256
-0.318276
-0.269852
-0.191338
-0.096198
0.00846181
0.120504
0.2397
0.366075
0.500058
0.636191
0.754215
0.84062
0.891797
0.907463
0.902812
0.894316
0.889249
0.886914
0.882216
-0.349088
-0.335948
-0.286952
-0.207836
-0.112054
-0.00661703
0.106371
0.226648
0.354554
0.490853
0.630782
0.75487
0.849441
0.907785
0.927379
0.924151
0.914435
0.902989
0.890375
0.890691
-0.366168
-0.35303
-0.303463
-0.223846
-0.127653
-0.0216023
0.0921063
0.21311
0.34222
0.480377
0.623658
0.753377
0.856818
0.924201
0.948558
0.947569
0.935773
0.921577
0.884655
0.847553
-0.382319
-0.369397
-0.319375
-0.239249
-0.143014
-0.0365167
0.0776836
0.199189
0.329093
0.468583
0.614562
0.749041
0.860919
0.939186
0.968323
0.965437
0.949701