/*--------------------------------*- C++ -*----------------------------------*\
  =========                 |
  \\      /  F ield         | OpenFOAM: The Open Source CFD Toolbox
   \\    /   O peration     | Website:  https://openfoam.org
    \\  /    A nd           | Version:  6
     \\/     M anipulation  |
\*---------------------------------------------------------------------------*/
FoamFile
{
    version     2.0;
    format      ascii;
    class       volScalarField;
    location    "29";
    object      p;
}
// * * * * * * * * * * * * * * * * * * * * * * * * * * * * * * * * * * * * * //

dimensions      [0 2 -2 0 0 0 0];

internalField   nonuniform List<scalar> 
918
(
0.319004
1.05593
0.0184615
0.318865
-0.0340139
1.02378
-0.699006
0.493229
0.300044
-0.315026
-0.293945
0.294512
0.88092
0.64848
-1.39652
-0.223054
0.446909
-0.640381
0.297965
-0.235467
0.525302
0.30682
0.309294
0.300086
0.354782
0.607193
0.75801
-0.0342063
0.00472903
-0.0230738
-0.0593351
-0.138889
-0.194621
0.906905
0.958839
0.982
0.267506
0.0999103
-0.600531
-0.651577
-0.631425
-0.730978
0.486177
0.486852
-0.395672
0.492615
0.500218
0.286091
0.299422
0.300257
0.301481
0.30033
0.301642
0.202822
-0.327226
-0.353582
-0.294527
-0.296883
-0.118671
-0.279809
-0.279205
-0.300977
-0.312049
0.219964
0.290924
0.288381
0.299265
0.307534
0.996106
0.969798
0.995833
0.906657
0.924145
0.857813
0.830645
0.669344
0.692382
0.631608
0.618024
-1.86342
-2.82537
-0.81047
-0.526125
-0.0176023
-0.173711
-0.141116
0.435471
0.436561
0.44928
0.45923
0.814435
-0.618789
-0.695014
0.298353
0.296879
0.3063
0.307207
0.302141
0.302163
-0.272729
-0.289396
-0.0904715
-0.213118
-0.169605
0.515047
0.513633
0.299544
0.297019
0.317008
0.340806
0.329021
0.0501318
0.36334
0.380462
0.461882
0.612529
0.601055
0.612869
0.733641
0.700987
0.789829
0.811481
-0.0175694
-0.0107732
-0.238378
-0.226934
-0.248338
0.263433
0.257254
0.283069
0.271147
0.274181
0.00344719
-0.149894
0.183201
0.206665
-0.512424
-0.557642
-0.661042
-0.663786
-0.761357
0.349492
0.479496
0.478329
-0.414865
-0.335979
-0.467475
-0.276823
-0.336331
0.277439
0.283329
0.279586
0.29461
0.28888
0.291236
0.303545
0.30067
0.30229
0.259756
0.389261
0.125491
0.0944489
-0.474623
-0.370498
-0.459229
-0.294628
-0.293539
-0.116755
-0.105262
-0.136847
-0.139194
-0.283864
-0.282998
-0.285593
-0.323371
-0.32692
0.211683
0.199954
0.230029
0.237159
0.280748
0.282143
0.285658
0.284094
0.781801
0.804748
0.810719
0.786909
-3.81852
-6.48201
-0.172654
-0.00848787
-0.0419418
-0.0301034
-0.0170052
-0.0266539
-0.0118238
-0.0062813
-0.114296
-0.119868
-0.112185
-0.128901
0.42723
0.426349
0.772286
0.79464
0.765072
0.745308
0.287593
0.289557
0.294267
0.291127
-0.335009
-0.310704
-0.323574
0.498822
0.505699
0.507257
0.0119808
-0.0715569
0.0974339
0.126362
0.415203
0.390405
0.408686
0.523067
0.562092
0.828066
0.85251
0.836255
0.849166
0.900119
0.923057
0.88832
0.243262
0.253601
0.248134
0.286311
0.283895
0.284899
0.280192
0.281904
0.280128
-0.263946
-0.642038
0.267926
0.271124
0.247516
0.260157
0.4274
0.505369
0.457726
0.468143
0.467514
-0.229622
-0.277806
0.0508998
0.0249723
0.153795
0.187575
0.169566
0.756899
0.717174
0.76534
0.74069
0.705241
0.729863
-0.580583
-2.36488
-1.34969
0.402145
0.200841
0.294252
-0.141932
-0.140326
-0.129056
0.796446
0.839384
0.457409
0.634399
0.593159
0.586356
0.613486
0.675164
0.607458
0.642517
0.673567
0.65028
0.313339
0.271499
0.278048
0.584552
0.644921
-0.106094
-0.177461
-0.202348
-0.0857276
-0.016469
-0.043136
0.812936
0.706052
0.776424
0.297254
0.298135
-0.0755949
-0.121779
0.302186
0.301911
-0.0887271
-0.233237
0.312733
-1.1692
-0.0940663
0.291552
0.281596
0.298119
-0.289755
0.132806
-0.260559
-0.127996
-0.152113
0.290083
0.230511
0.191288
-0.0894946
-0.259731
-0.284621
-0.420509
0.294998
0.293393
0.297494
0.298403
0.299152
-0.131855
-0.123438
-0.095032
-0.289093
-0.187475
-0.227263
0.262595
0.280414
-0.395042
0.297759
0.299878
0.299587
0.293561
0.29861
0.297111
-0.22326
-0.241772
-0.279986
-0.0046996
0.12184
0.502927
0.583693
0.447518
0.276513
-0.0271608
0.435077
0.490168
0.412253
0.546186
0.469181
0.476324
-0.034924
-0.17266
-0.0306863
-0.0934321
0.288596
0.28772
0.279179
0.276347
0.292934
0.29074
0.29576
0.292884
0.295989
0.297195
-0.24602
-0.271368
-0.295796
-0.343445
0.0998986
0.358865
0.0261578
0.057891
-0.0495202
-0.277263
-0.289719
-0.251063
-0.272535
-0.178872
-0.184451
-0.134982
-0.133259
-0.165322
-0.163218
-0.191896
-0.218871
-0.19415
0.28445
0.284217
0.289318
0.297418
0.239594
0.24336
0.209382
0.228901
0.214387
0.159202
0.189519
0.165549
-0.0800881
-0.119414
-0.0683644
-0.26122
-0.184591
-0.290475
-0.221778
-0.313935
-0.208863
-0.18812
-0.343488
-0.331647
-0.385186
-0.497009
0.746819
0.675347
-0.107329
0.285059
0.290616
0.287894
0.292279
0.295445
0.296191
0.29383
0.290365
0.280807
0.282471
0.27882
0.279322
-0.342179
-0.448489
-0.274143
-0.344785
-0.0758013
0.403894
0.131834
0.0802501
0.0660703
0.281075
0.480766
0.420384
0.502014
0.50578
-0.618697
-0.202437
-0.545123
0.00158696
-0.0110749
0.526306
0.569015
0.587251
0.543568
0.49863
-0.257892
0.310003
-0.261155
-0.220734
-0.0378401
-0.137348
0.48574
0.447484
0.451968
0.46541
0.482726
0.461839
0.439968
0.434135
0.463189
0.472659
0.275267
0.0264181
-0.010073
-0.0577806
0.431625
0.312407
0.367579
0.290067
0.28362
0.286333
0.284999
0.267257
0.274306
0.270238
0.276269
0.279593
0.287865
0.288003
0.283922
0.286013
-0.269528
-0.285719
-0.274577
-0.328232
-0.329238
-0.365925
-0.303935
-0.112463
-0.149113
0.0169448
0.153823
-0.146611
-0.274455
-0.261663
-0.214581
-0.0336321
-0.0362641
-0.137564
-0.037088
-0.0717003
-0.0766416
0.0149222
0.0328341
-0.252381
-0.217384
-0.243538
-0.247393
-0.15586
-0.10603
-0.0977911
-0.247189
-0.199501
-0.304692
-0.319821
-0.23505
-0.23224
-0.21931
-0.204563
-0.321221
-0.27319
-0.280058
-0.282007
-0.240373
-0.240961
0.27914
0.280916
0.280909
0.290659
0.302837
0.316654
0.284786
0.260194
0.251339
0.25453
0.22832
0.238102
0.233049
0.247305
0.268253
0.275942
0.274361
0.276629
0.259737
0.261588
0.248
0.251515
0.224431
0.207602
0.198207
-0.282788
-0.192737
-0.28265
-0.225722
-0.133332
-0.187157
-0.17713
-0.246672
-0.224571
-0.196208
-0.156552
-0.377491
-0.358153
-0.297691
-0.222972
-0.399841
-0.441958
-0.495636
0.656426
0.786095
0.57682
0.375024
0.375422
0.606148
0.697664
0.34814
0.519511
0.556332
0.328502
0.598913
0.289009
0.288613
0.286531
0.285653
0.286803
-0.24348
-0.145974
-0.117375
-0.0707819
0.0479235
0.156839
0.0622376
-0.0495531
0.0872542
0.110824
0.402661
0.413914
0.356841
0.381459
0.37751
0.203668
0.284728
0.325493
0.277053
0.340341
0.37427
0.324498
0.364135
0.287758
0.245403
0.239691
0.187925
0.222375
0.202866
0.17659
0.279299
0.257568
0.268301
0.258864
0.279027
0.305331
0.304344
0.324491
0.340161
0.261757
0.215829
0.231065
0.25529
0.215441
0.229735
0.249653
-0.0614166
-0.152745
0.0165145
-0.310774
-0.219728
-0.183998
-0.224336
-0.271466
0.0353398
-0.610935
-0.553739
-1.24134
0.254546
0.644995
0.447389
0.460782
0.479263
0.460449
0.466201
0.484039
0.491122
0.421515
0.435244
0.43968
0.3957
0.427468
0.434443
0.440592
0.271688
0.186087
0.18137
0.124007
-0.00641228
0.0292683
0.202016
0.141588
0.0754777
0.0728955
0.246287
0.12013
0.193027
0.245164
0.181304
0.114726
0.336665
0.391105
0.376219
0.345607
0.263572
0.28159
0.307204
0.347736
0.370416
0.399218
0.275612
0.281553
0.282568
0.27993
0.277866
0.280766
0.28087
0.283216
0.28386
0.286473
0.285692
-0.266032
-0.251301
-0.273111
-0.277866
-0.213721
-0.232109
-0.196137
-0.234753
-0.228152
-0.223392
-0.242745
-0.255852
-0.250778
-0.241267
-0.130078
-0.108928
-0.10056
-0.13939
0.0282279
0.198302
0.259156
0.133828
-0.0177192
0.00920566
0.0917946
-0.215108
-0.166779
-0.18734
-0.146183
-0.163932
-0.296138
-0.323622
-0.324367
-0.230142
-0.266773
-0.369224
-0.351623
-0.358373
-0.36155
-0.335495
-0.342756
0.262128
0.25495
0.257918
0.250935
0.249159
0.264892
0.269178
0.270166
0.275122
0.277142
0.268013
0.273507
0.276847
-0.344097
-0.431189
-0.39296
-0.367086
-0.458553
-0.441708
-0.408595
-0.116386
-0.204965
-0.17441
-0.235748
-0.352453
-0.294311
0.249645
0.251585
0.260684
0.463278
0.311909
0.22793
0.321178
0.430233
0.0259324
0.234891
0.0634774
0.645078
0.538324
0.682837
0.317221
0.0142803
0.17578
0.189301
0.022694
0.147767
0.117234
-0.00449156
0.0342469
0.0528548
0.135252
0.0230023
0.000396199
-0.24412
-0.0706043
0.0512662
0.031424
0.167839
0.228068
0.0138103
-0.0676704
-0.117657
0.385382
0.405409
0.418762
0.390652
0.414549
0.343536
0.33654
0.352969
0.359614
0.352819
-0.882723
-0.473017
-1.67214
-1.07502
-0.623772
0.287965
0.274719
0.512147
0.418746
0.477835
0.461954
0.403686
0.367424
0.395072
0.424011
0.118842
0.224141
0.186853
0.204388
0.137176
0.065505
0.359123
0.357627
0.384404
0.408634
0.381306
0.409487
0.27395
0.273682
0.272931
0.269384
0.268048
0.270614
-0.180834
-0.211092
-0.168068
-0.168233
-0.193806
-0.205242
-0.329872
-0.360103
-0.370656
-0.40735
-0.339666
-0.308166
-0.073247
-0.130573
-0.216929
-0.176022
-0.238002
-0.31328
-0.319042
-0.232393
-0.13672
-0.155107
0.150164
0.428514
0.254659
0.420438
0.208998
0.314936
0.246872
0.22307
0.257243
0.136947
0.219395
-0.220322
-0.419793
-0.477821
0.576385
0.534895
0.330835
0.0726715
-0.0382248
0.260637
0.293622
0.254896
0.290463
0.340862
0.330589
-0.23376
-0.127832
-0.0718939
0.243273
0.0393489
0.0584622
0.0500473
0.207316
0.1802
)
;

boundaryField
{
    wall-4
    {
        type            zeroGradient;
    }
    velocity-inlet-5
    {
        type            zeroGradient;
    }
    velocity-inlet-6
    {
        type            zeroGradient;
    }
    pressure-outlet-7
    {
        type            fixedValue;
        value           uniform 0;
    }
    wall-8
    {
        type            zeroGradient;
    }
    frontAndBackPlanes
    {
        type            empty;
    }
}


// ************************************************************************* //
