/*--------------------------------*- C++ -*----------------------------------*\
  =========                 |
  \\      /  F ield         | OpenFOAM: The Open Source CFD Toolbox
   \\    /   O peration     | Website:  https://openfoam.org
    \\  /    A nd           | Version:  6
     \\/     M anipulation  |
\*---------------------------------------------------------------------------*/
FoamFile
{
    version     2.0;
    format      ascii;
    class       volScalarField;
    location    "21";
    object      p;
}
// * * * * * * * * * * * * * * * * * * * * * * * * * * * * * * * * * * * * * //

dimensions      [0 2 -2 0 0 0 0];

internalField   nonuniform List<scalar> 
8800
(
0.443013
0.393698
0.35573
0.327656
0.307481
0.292865
0.282225
0.274624
0.269655
0.267445
0.268571
0.272672
0.279273
0.288548
0.301178
0.318425
0.342248
0.375308
0.418221
0.470725
0.277512
0.283858
0.293007
0.296555
0.293943
0.287847
0.280885
0.274598
0.269732
0.266749
0.266311
0.268679
0.273084
0.279027
0.285994
0.292921
0.297724
0.297545
0.290832
0.28191
0.251028
0.25727
0.261786
0.265672
0.268638
0.269597
0.268511
0.266339
0.264208
0.263159
0.263944
0.266188
0.26887
0.270933
0.271287
0.269369
0.265903
0.261814
0.256982
0.253258
0.246766
0.24954
0.252164
0.254344
0.256099
0.257679
0.25877
0.259045
0.258782
0.258647
0.259184
0.260069
0.260585
0.260219
0.259053
0.257546
0.255753
0.253357
0.25089
0.249318
0.241735
0.243166
0.245046
0.247171
0.248918
0.250219
0.251281
0.252202
0.252882
0.253353
0.253755
0.253902
0.253606
0.253
0.252122
0.250816
0.248993
0.24696
0.245533
0.244734
0.236833
0.237739
0.239047
0.24076
0.242517
0.244067
0.245311
0.246333
0.247251
0.248022
0.248415
0.248384
0.248056
0.247404
0.246341
0.244904
0.243307
0.24185
0.240942
0.240429
0.232112
0.232768
0.233809
0.235238
0.236803
0.238423
0.239978
0.241348
0.242482
0.243397
0.243885
0.24387
0.243391
0.242474
0.241279
0.23997
0.238666
0.237524
0.236844
0.236479
0.227553
0.22804
0.228967
0.23034
0.231863
0.23348
0.235144
0.236695
0.238013
0.239052
0.239705
0.239772
0.239269
0.238333
0.237174
0.235962
0.234745
0.233716
0.233166
0.232906
0.223336
0.223697
0.224475
0.225709
0.227111
0.228535
0.23
0.231582
0.233189
0.23457
0.235311
0.235333
0.234888
0.234231
0.233418
0.232437
0.231394
0.230544
0.230122
0.229935
0.219327
0.21958
0.220288
0.221494
0.222903
0.224395
0.225943
0.227464
0.22895
0.230389
0.231429
0.231891
0.231839
0.231357
0.230594
0.229688
0.228724
0.227957
0.227625
0.227504
0.215805
0.215955
0.216569
0.217705
0.219048
0.220489
0.222077
0.223813
0.22564
0.227394
0.2287
0.229287
0.229321
0.228981
0.228429
0.227721
0.22691
0.226275
0.226044
0.225984
0.212796
0.212878
0.213307
0.214188
0.215294
0.216535
0.217934
0.219548
0.221373
0.223374
0.225087
0.226182
0.226747
0.226921
0.22678
0.226442
0.225992
0.225647
0.22554
0.225508
0.20976
0.20982
0.210113
0.210778
0.211726
0.212923
0.214403
0.216207
0.21833
0.220705
0.222871
0.224373
0.225225
0.225679
0.225864
0.225867
0.225758
0.225683
0.225659
0.225628
0.206109
0.206172
0.206415
0.206943
0.207766
0.208864
0.210343
0.212258
0.214679
0.217565
0.220328
0.222381
0.223802
0.224711
0.225285
0.225644
0.225852
0.225963
0.225977
0.22594
0.201577
0.201643
0.201905
0.202434
0.203244
0.204438
0.206129
0.208376
0.211253
0.214768
0.218254
0.220959
0.222878
0.224194
0.225081
0.225707
0.226144
0.22635
0.226384
0.226345
0.196062
0.196118
0.196438
0.197074
0.19807
0.199504
0.201501
0.204197
0.207719
0.212074
0.216442
0.219884
0.222345
0.224055
0.22533
0.226225
0.226767
0.227011
0.227069
0.227034
0.189642
0.189687
0.190056
0.190906
0.192082
0.193874
0.196336
0.199664
0.203993
0.209376
0.214854
0.219216
0.222385
0.224642
0.22622
0.227322
0.227959
0.228266
0.228367
0.228336
0.182288
0.18233
0.182749
0.183784
0.185379
0.187535
0.190616
0.194729
0.200095
0.206788
0.213614
0.219081
0.223086
0.225939
0.227948
0.229262
0.230059
0.230468
0.230611
0.23058
0.173787
0.173823
0.174332
0.17551
0.177492
0.180255
0.184066
0.18918
0.195855
0.204188
0.212687
0.219518
0.224535
0.228115
0.230615
0.232268
0.233288
0.233834
0.234017
0.23398
0.16374
0.163794
0.164421
0.165853
0.16823
0.171687
0.176435
0.182854
0.191227
0.201628
0.212186
0.220649
0.226839
0.231299
0.234404
0.236494
0.237811
0.238518
0.23874
0.23869
0.151441
0.151509
0.15229
0.154105
0.157097
0.161439
0.167468
0.175607
0.186152
0.199134
0.212196
0.222598
0.230236
0.235695
0.239519
0.242123
0.243783
0.24466
0.24493
0.244866
0.136098
0.136192
0.137238
0.139612
0.143488
0.149089
0.156863
0.16727
0.180596
0.196781
0.212859
0.225562
0.234843
0.241489
0.246166
0.24938
0.251441
0.252514
0.252839
0.252757
0.116558
0.1167
0.118145
0.121384
0.126599
0.134036
0.144241
0.157689
0.174581
0.194681
0.214309
0.229665
0.240855
0.248888
0.254574
0.258514
0.261061
0.26239
0.26277
0.262663
0.0910232
0.0912505
0.0933846
0.0980551
0.105388
0.115614
0.129317
0.146859
0.168242
0.193015
0.216719
0.235073
0.248431
0.258069
0.264951
0.269768
0.272895
0.274512
0.27496
0.274822
0.056433
0.0568796
0.0603935
0.0677518
0.0787003
0.0933071
0.112029
0.134958
0.16185
0.192038
0.22028
0.241921
0.257679
0.26914
0.277438
0.283339
0.287203
0.28918
0.289693
0.289509
0.006952
0.00847399
0.015575
0.0284377
0.0456869
0.0670622
0.0927071
0.122441
0.155817
0.192035
0.22515
0.250275
0.268597
0.282067
0.292003
0.299237
0.304074
0.306549
0.307144
0.306893
-0.0662451
-0.0577299
-0.0415149
-0.0188205
0.00789121
0.0382657
0.0723448
0.109906
0.15049
0.193321
0.231796
0.260844
0.282167
0.298096
0.310198
0.319348
0.325692
0.329124
0.330069
0.32995
-0.14373
-0.125874
-0.0997373
-0.0666684
-0.0301358
0.00934418
0.0519436
0.0975511
0.145791
0.196027
0.240963
0.275062
0.30042
0.319734
0.334747
0.346535
0.35517
0.360152
0.361755
0.361797
-0.208586
-0.187047
-0.152956
-0.111341
-0.0662118
-0.0182107
0.0325845
0.0859973
0.141655
0.198944
0.24985
0.28846
0.317277
0.339396
0.35672
0.3703
0.380506
0.386459
0.388
0.388187
-0.260818
-0.237056
-0.197907
-0.150257
-0.0984649
-0.0434276
0.0145073
0.0749645
0.137458
0.201276
0.257568
0.300016
0.331571
0.355663
0.374471
0.389215
0.400235
0.406732
0.408614
0.408937
-0.30376
-0.278846
-0.236177
-0.183903
-0.126823
-0.066075
-0.00212524
0.0644916
0.133095
0.202777
0.263824
0.309497
0.343144
0.368628
0.388345
0.403736
0.415156
0.422009
0.424236
0.424563
-0.34044
-0.314864
-0.269623
-0.213591
-0.152112
-0.0865476
-0.0174595
0.0545368
0.12859
0.203548
0.268853
0.317282
0.352608
0.379079
0.399344
0.414991
0.426489
0.433423
0.435785
0.436067
-0.372864
-0.34688
-0.299632
-0.240507
-0.175316
-0.105574
-0.031929
0.0448974
0.123899
0.203744
0.272976
0.32396
0.360787
0.388046
0.408635
0.424332
0.435776
0.442678
0.445149
0.445435
-0.402468
-0.376133
-0.327232
-0.26547
-0.197068
-0.123665
-0.0459467
0.0352759
0.118876
0.203366
0.276439
0.329881
0.368097
0.396069
0.416956
0.43272
0.444132
0.450975
0.453509
0.453785
-0.430141
-0.40348
-0.35313
-0.289062
-0.217869
-0.141238
-0.0598581
0.0254002
0.113342
0.202288
0.279119
0.335051
0.374759
0.403566
0.424856
0.440757
0.452165
0.458906
0.461428
0.461758
-0.456571
-0.429533
-0.377881
-0.311747
-0.238079
-0.158552
-0.0738676
0.0150814
0.107087
0.20035
0.281031
0.339696
0.381104
0.410888
0.432695
0.44882
0.460276
0.466921
0.469363
0.469682
-0.48203
-0.454607
-0.401767
-0.333789
-0.257904
-0.175797
-0.0881327
0.00420877
0.10004
0.197586
0.282276
0.343859
0.387187
0.418144
0.440624
0.457095
0.468664
0.475256
0.477565
0.477812
-0.506856
-0.478949
-0.425026
-0.355382
-0.277521
-0.193096
-0.102718
-0.00725363
0.0921988
0.193928
0.282701
0.347467
0.393004
0.425399
0.448742
0.465686
0.477435
0.483982
0.486136
0.486289
-0.531102
-0.502716
-0.44777
-0.376615
-0.296984
-0.210469
-0.117649
-0.0193219
0.0834913
0.189231
0.2822
0.350461
0.398539
0.432638
0.45705
0.474598
0.48658
0.493088
0.495095
0.495122
-0.554828
-0.525934
-0.470035
-0.397518
-0.316306
-0.227931
-0.132936
-0.0320319
0.0738681
0.183464
0.280676
0.35269
0.403684
0.439816
0.465519
0.483801
0.496052
0.502477
0.50431
0.504218
-0.578073
-0.548671
-0.491833
-0.418092
-0.335485
-0.24546
-0.148538
-0.0453382
0.0633748
0.176597
0.277997
0.353977
0.408269
0.44684
0.474108
0.493239
0.505756
0.512016
0.513624
0.513425
-0.600849
-0.570872
-0.513147
-0.438304
-0.354453
-0.262988
-0.164376
-0.0591621
0.0520638
0.168596
0.27406
0.354143
0.412101
0.453589
0.482795
0.502905
0.515617
0.521596
0.522913
0.522615
-0.62299
-0.592477
-0.53392
-0.4581
-0.373156
-0.280434
-0.180373
-0.0734112
0.0399898
0.159491
0.268783
0.352983
0.414906
0.459871
0.491588
0.512891
0.525597
0.531011
0.531939
0.531548
-0.644452
-0.613438
-0.554109
-0.47742
-0.391524
-0.297725
-0.196427
-0.0880055
0.0272555
0.149334
0.262122
0.350335
0.416369
0.465349
0.500426
0.523494
0.535938
0.540159
0.540434
0.53998
-0.665275
-0.633711
-0.573681
-0.496219
-0.409485
-0.31477
-0.212442
-0.102824
0.0139721
0.138208
0.254058
0.346068
0.416176
0.469518
0.508995
0.535147
0.547621
0.549534
0.548205
0.547723
-0.685307
-0.653262
-0.592578
-0.514421
-0.426972
-0.331481
-0.228315
-0.117743
0.000269869
0.126244
0.244627
0.340088
0.414037
0.471702
0.516461
0.547758
0.562435
0.56206
0.556557
0.553522
-0.704621
-0.672102
-0.610801
-0.532058
-0.444019
-0.347905
-0.244099
-0.132829
-0.0139265
0.113374
0.233697
0.332154
0.409666
0.471112
0.52137
0.559874
0.580592
0.582921
0.571363
0.565694
-0.723149
-0.69029
-0.628491
-0.549317
-0.460917
-0.364381
-0.260216
-0.148583
-0.0291911
0.0989099
0.220543
0.321365
0.402354
0.466476
0.52078
0.566599
0.593629
0.59324
0.582674
0.569858
-0.740773
-0.707807
-0.645487
-0.565987
-0.477437
-0.380609
-0.276445
-0.164666
-0.0451894
0.0831682
0.205385
0.307419
0.391782
0.457125
0.510008
0.556253
0.58459
0.572285
0.510335
0.479795
-0.757389
-0.725381
-0.661355
-0.581563
-0.492964
-0.396126
-0.29253
-0.180817
-0.0616437
0.0663496
0.188358
0.290098
0.377291
0.443826
0.486034
0.521332
0.53207
0.490399
0.424253
0.382747
-0.79995
-0.74201
-0.676052
-0.596758
-0.50821
-0.41179
-0.308354
-0.197142
-0.078727
0.0481832
0.169154
0.269278
0.356101
0.428145
0.444339
0.452129
0.427432
0.372091
0.301213
0.261982
-0.774142
-0.75617
-0.697933
-0.619586
-0.531038
-0.435129
-0.332639
-0.222553
-0.10579
0.0185693
0.13631
0.232631
0.310575
0.382299
0.383026
0.28409
0.193492
0.132543
0.0664921
0.103085
-0.804444
-0.773431
-0.714535
-0.636286
-0.548137
-0.452732
-0.350327
-0.24119
-0.125886
-0.00394352
0.110333
0.202546
0.271556
0.309513
0.264879
0.126642
0.0130906
-0.0627369
-0.150444
-0.0922374
-0.827676
-0.794335
-0.733711
-0.655253
-0.567332
-0.472121
-0.370042
-0.261982
-0.148435
-0.029445
0.0804881
0.16696
0.225053
0.22863
0.120669
-0.0488172
-0.188501
-0.286394
-0.39397
-0.349209
-0.850024
-0.8157
-0.753814
-0.67481
-0.586843
-0.491833
-0.390423
-0.283578
-0.171984
-0.0562678
0.0485649
0.128361
0.170675
0.137088
-0.0322659
-0.232263
-0.411735
-0.563973
-0.704032
-0.670076
-0.871866
-0.837279
-0.774646
-0.695165
-0.607084
-0.512345
-0.411721
-0.306207
-0.196805
-0.0847033
0.014403
0.0868147
0.109585
0.033698
-0.183837
-0.413294
-0.632372
-0.816518
-1.05804
-1.14893
-0.893872
-0.85949
-0.79648
-0.716663
-0.628461
-0.533956
-0.434049
-0.329879
-0.22275
-0.114464
-0.0213463
0.0422548
0.0442023
-0.090209
-0.32341
-0.572864
-0.807444
-1.00352
-1.15942
-1.33491
-0.916943
-0.882729
-0.819604
-0.739637
-0.651431
-0.55725
-0.458152
-0.355492
-0.250932
-0.146953
-0.0603121
-0.00701139
-0.0348093
-0.217818
-0.454988
-0.702554
-0.918135
-1.04423
-1.07917
-1.09602
-0.941255
-0.907222
-0.844092
-0.764131
-0.676078
-0.582366
-0.484301
-0.38345
-0.28184
-0.182861
-0.103305
-0.0635185
-0.121464
-0.341182
-0.576749
-0.803513
-0.974737
-1.02676
-1.04094
-1.04175
-0.967057
-0.933045
-0.869933
-0.790066
-0.70229
-0.609231
-0.512429
-0.41372
-0.315429
-0.22222
-0.150237
-0.126631
-0.214169
-0.459584
-0.687541
-0.89153
-1.00174
-1.01982
-1.02063
-1.02062
-0.99422
-0.960192
-0.897078
-0.817363
-0.729998
-0.637742
-0.542419
-0.446206
-0.351595
-0.264782
-0.201242
-0.193526
-0.323574
-0.571898
-0.790834
-0.956659
-1.0067
-1.01002
-1.01095
-1.01044
-1.02249
-0.988431
-0.925353
-0.845866
-0.759017
-0.667739
-0.574078
-0.480721
-0.39026
-0.309884
-0.256608
-0.26555
-0.438996
-0.684424
-0.883469
-0.991602
-1.00372
-1.00583
-1.00572
-1.0054
-1.05123
-1.01735
-0.954448
-0.875273
-0.789052
-0.698936
-0.607073
-0.516871
-0.431223
-0.356718
-0.315254
-0.343888
-0.542651
-0.7974
-0.982007
-1.01531
-1.01812
-1.00763
-0.999949
-0.998071
-1.0799
-1.04639
-0.983864
-0.905111
-0.819656
-0.730856
-0.64096
-0.55396
-0.474012
-0.404632
-0.375503
-0.421516
-0.63177
-0.898905
-1.10365
-1.12119
-1.06689
-1.0275
-1.00933
-1.0024
-1.10763
-1.07477
-1.01289
-0.934729
-0.850195
-0.762844
-0.675122
-0.591038
-0.517527
-0.453629
-0.435565
-0.505965
-0.701176
-0.94645
-1.17991
-1.20946
-1.1504
-1.10189
-1.07837
-1.06961
-1.13357
-1.10153
-1.04064
-0.963288
-0.879824
-0.794029
-0.708661
-0.62712
-0.559723
-0.504225
-0.490603
-0.597578
-0.77668
-0.888896
-1.08049
-1.15274
-1.32247
-1.36346
-1.32718
-1.30766
-1.15605
-1.12543
-1.066
-0.989745
-0.907511
-0.823297
-0.740326
-0.661372
-0.597685
-0.554894
-0.536486
-0.687752
-0.910705
-0.850046
-0.695799
-1.03278
-1.40828
-1.49813
-1.48374
-1.48215
-1.17361
-1.14495
-1.08763
-1.01287
-0.9321
-0.849351
-0.768467
-0.692636
-0.629155
-0.600183
-0.582608
-0.760011
-1.14538
-1.26026
-1.1274
-1.34616
-1.5311
-1.52617
-1.504
-1.51615
-1.18505
-1.15885
-1.10419
-1.03136
-0.952171
-0.870934
-0.7913
-0.718304
-0.655535
-0.628207
-0.636577
-0.841426
-1.44198
-2.13587
-2.55462
-2.74256
-2.61541
-2.24123
-1.91355
-1.87081
-1.18842
-1.16556
-1.11447
-1.04399
-0.966329
-0.886644
-0.807509
-0.735558
-0.673624
-0.641745
-0.668538
-0.908489
-1.6009
-2.56531
-3.17903
-3.37311
-3.26749
-2.99005
-2.65533
-2.48296
-1.18325
-1.16405
-1.11733
-1.04975
-0.973742
-0.89498
-0.8161
-0.742622
-0.676815
-0.64911
-0.647386
-0.857773
-1.34236
-2.01723
-2.58361
-2.6831
-2.63487
-2.47874
-2.29048
-2.16459
-1.16786
-1.1528
-1.11194
-1.04819
-0.973961
-0.895395
-0.816023
-0.73699
-0.671601
-0.60416
-0.606423
-0.609639
-0.782943
-0.896749
-1.03873
-1.05179
-0.852348
-0.628134
-0.457332
-0.370481
-1.14404
-1.13316
-1.0988
-1.03981
-0.967044
-0.888484
-0.806693
-0.723948
-0.641883
-0.552296
-0.488657
-0.349891
-0.168211
0.150003
0.584054
1.03317
1.3942
1.62164
1.74173
1.78295
-1.11391
-1.1071
-1.08
-1.02585
-0.954271
-0.875227
-0.791098
-0.703322
-0.606227
-0.506573
-0.379055
-0.268417
0.103927
0.701711
1.35765
1.93934
2.38157
2.65441
2.7853
2.82661
-1.08089
-1.0773
-1.05791
-1.00835
-0.937152
-0.857376
-0.77247
-0.681488
-0.582271
-0.46124
-0.328566
-0.201192
0.000456131
0.504734
1.09151
1.62633
2.02233
2.26894
2.38685
2.42671
-1.04698
-1.04576
-1.03255
-0.986834
-0.916
-0.836525
-0.753006
-0.664262
-0.565927
-0.447334
-0.312612
-0.199521
-0.0793069
0.205723
0.59424
0.957952
1.2433
1.41847
1.50763
1.53604
-0.996441
-0.997644
-0.988628
-0.948871
-0.882996
-0.808132
-0.731082
-0.649958
-0.557989
-0.446175
-0.324178
-0.233271
-0.161879
-0.0167821
0.265539
0.531446
0.722041
0.840354
0.902341
0.921688
-0.910841
-0.911669
-0.90486
-0.87588
-0.8259
-0.766896
-0.704503
-0.636614
-0.554424
-0.452731
-0.340337
-0.263669
-0.219799
-0.141299
0.0666338
0.241546
0.359537
0.429071
0.459511
0.467079
-0.810381
-0.809694
-0.804493
-0.787769
-0.757709
-0.719347
-0.67564
-0.623931
-0.555685
-0.461682
-0.349747
-0.28153
-0.237426
-0.190654
-0.0603814
0.0400829
0.112306
0.15083
0.169303
0.173149
-0.733818
-0.732263
-0.728629
-0.720659
-0.705075
-0.683035
-0.65565
-0.620522
-0.567266
-0.474007
-0.364917
-0.289147
-0.213679
-0.168865
-0.11344
-0.0625206
-0.0286558
-0.0048996
0.00464763
0.00564572
-0.698097
-0.696676
-0.694268
-0.690152
-0.682266
-0.670577
-0.655866
-0.635997
-0.599291
-0.51727
-0.417017
-0.338038
-0.232417
-0.181408
-0.153008
-0.128238
-0.105078
-0.0885583
-0.081341
-0.081119
-0.694425
-0.693638
-0.692533
-0.690937
-0.688216
-0.685225
-0.683786
-0.684111
-0.67605
-0.633911
-0.566016
-0.469335
-0.335187
-0.261842
-0.247381
-0.212643
-0.175527
-0.147989
-0.133105
-0.133594
-0.707521
-0.707543
-0.708248
-0.709996
-0.713641
-0.721824
-0.739129
-0.77247
-0.82294
-0.869329
-0.871782
-0.728608
-0.548829
-0.488056
-0.434826
-0.350696
-0.274569
-0.221491
-0.198692
-0.201123
-0.722746
-0.723839
-0.726775
-0.73256
-0.744012
-0.76641
-0.809453
-0.89325
-1.04861
-1.25123
-1.36167
-1.13396
-0.839016
-0.71081
-0.610367
-0.485341
-0.375849
-0.299101
-0.275329
-0.279907
-0.72383
-0.726037
-0.730959
-0.740666
-0.75982
-0.79666
-0.867592
-1.01062
-1.30158
-1.75751
-1.9706
-1.64101
-1.2109
-0.984118
-0.821244
-0.654414
-0.513014
-0.43084
-0.41657
-0.421068
-0.695987
-0.69888
-0.704948
-0.717043
-0.741071
-0.787174
-0.876622
-1.06044
-1.44703
-2.08488
-2.39812
-2.03932
-1.51797
-1.23849
-1.03699
-0.860568
-0.746256
-0.687244
-0.675869
-0.678148
-0.631667
-0.634542
-0.640485
-0.652427
-0.676207
-0.721998
-0.811093
-0.995146
-1.38609
-2.02154
-2.28718
-1.95611
-1.5645
-1.33796
-1.14857
-1.05134
-1.01256
-0.991864
-0.971215
-0.964424
-0.535048
-0.53725
-0.541804
-0.550998
-0.569808
-0.606087
-0.676435
-0.820298
-1.12586
-1.62783
-1.82651
-1.6067
-1.37809
-1.19302
-1.08766
-1.06912
-1.08761
-1.07758
-1.05991
-1.05096
-0.420232
-0.421428
-0.423957
-0.429295
-0.440712
-0.462978
-0.505991
-0.592677
-0.775343
-1.0957
-1.25736
-1.16135
-1.00451
-0.874032
-0.834235
-0.87981
-0.912789
-0.912979
-0.906074
-0.901908
-0.304865
-0.305124
-0.305835
-0.307675
-0.31227
-0.321607
-0.339691
-0.375518
-0.449348
-0.592529
-0.685302
-0.618998
-0.535961
-0.502583
-0.558229
-0.625172
-0.651006
-0.656123
-0.656809
-0.655969
-0.203313
-0.202962
-0.202517
-0.202129
-0.202202
-0.202925
-0.204723
-0.208439
-0.214959
-0.21543
-0.208773
-0.199389
-0.200809
-0.265041
-0.347549
-0.394641
-0.412932
-0.420718
-0.424161
-0.424902
-0.123108
-0.122504
-0.121615
-0.120336
-0.118389
-0.11511
-0.109564
-0.100031
-0.0830118
-0.0523146
-0.0172458
-0.0118872
-0.0640621
-0.136055
-0.192649
-0.224591
-0.238732
-0.246205
-0.250476
-0.251827
-0.0653525
-0.0647485
-0.0638809
-0.0626019
-0.0603592
-0.0562657
-0.0491972
-0.0374241
-0.0185609
0.00855925
0.0289478
0.0196864
-0.0205569
-0.0674598
-0.102458
-0.122747
-0.132268
-0.137424
-0.140574
-0.141665
-0.0270911
-0.0266089
-0.0259665
-0.0250704
-0.0233493
-0.019977
-0.0140771
-0.00451159
0.00969823
0.0270663
0.0353349
0.0232219
-0.00398963
-0.0324164
-0.0533526
-0.0656126
-0.0717964
-0.0750723
-0.0770302
-0.0777105
-0.00381264
-0.00347637
-0.00307751
-0.00263427
-0.00161485
0.000626739
0.0046876
0.0111663
0.0201911
0.0296907
0.0314147
0.0206679
0.00302223
-0.014068
-0.0265916
-0.0341198
-0.0380369
-0.0400792
-0.0412367
-0.0416291
0.00886139
0.00907477
0.0092761
0.00937779
0.00981039
0.011048
0.0134736
0.0173695
0.0225166
0.0270546
0.0259137
0.017589
0.00623853
-0.00417833
-0.0118159
-0.0165601
-0.0191233
-0.020437
-0.0211315
-0.0213592
0.0144625
0.0145874
0.0146557
0.0145443
0.0145941
0.0151107
0.0163469
0.018412
0.0210162
0.0227752
0.020737
0.0146945
0.00738473
0.000915371
-0.00384936
-0.00690867
-0.00862674
-0.00949696
-0.00992103
-0.0100567
0.0155549
0.0156229
0.0156172
0.0154138
0.0152512
0.0153359
0.0158319
0.0167714
0.0178971
0.0182585
0.0162023
0.0119619
0.00724139
0.00316469
0.00014105
-0.00185923
-0.00301962
-0.0035976
-0.00386236
-0.00394682
0.0138741
0.0139084
0.0138698
0.0136471
0.0133986
0.0132679
0.0133598
0.0136779
0.0140324
0.0138115
0.0121156
0.00925501
0.0062481
0.00369029
0.00177605
0.000475051
-0.000301312
-0.000685277
-0.000851261
-0.000898331
0.0105293
0.010545
0.0104981
0.0102967
0.0100481
0.00985248
0.00977723
0.00981651
0.00984504
0.00949837
0.00830728
0.00651943
0.00470925
0.00318124
0.00202436
0.00121623
0.000720865
0.000478952
0.000379116
0.000349226
0.0062013
0.00620717
0.00616739
0.00601686
0.00583099
0.00567886
0.00559013
0.00555787
0.00551348
0.0052745
0.00462382
0.00370513
0.00279643
0.00203143
0.00144451
0.00102074
0.000750133
0.000617058
0.000561026
0.00054294
0.00131595
0.00132561
0.00137509
0.00141729
0.0013891
0.00133567
0.00128284
0.0012394
0.00119511
0.00112342
0.000982974
0.000771999
0.000551066
0.000354975
0.000198945
8.57536e-05
2.83788e-05
4.42001e-05
9.02277e-05
0.000112572
-0.517181
-0.29793
-0.0916
0.0793619
0.219901
0.33446
0.432293
0.512302
0.536086
0.532204
-0.172675
-0.0300194
0.103272
0.219728
0.319247
0.402849
0.469582
0.515422
0.540142
0.556201
0.0609536
0.154389
0.247506
0.330072
0.401101
0.460356
0.507138
0.542413
0.567926
0.587067
0.227926
0.293949
0.361037
0.421294
0.473374
0.5175
0.554157
0.584224
0.606768
0.625783
0.358842
0.408062
0.457329
0.502891
0.543341
0.578789
0.609463
0.635166
0.654535
0.672763
0.467051
0.50587
0.544438
0.581465
0.615397
0.645901
0.672646
0.694932
0.711656
0.729269
0.560359
0.594719
0.629253
0.66248
0.693292
0.721182
0.745533
0.765407
0.779977
0.797121
0.650885
0.684853
0.718772
0.751321
0.781265
0.808031
0.830956
0.849099
0.861942
0.878584
0.747548
0.784894
0.820601
0.853891
0.88379
0.909757
0.931393
0.948097
0.959997
0.976227
0.862093
0.903396
0.940958
0.974328
1.00323
1.02762
1.04759
1.06313
1.07521
1.09135
1.00449
1.04577
1.08139
1.11126
1.13673
1.15859
1.17732
1.19297
1.20621
1.2222
1.17652
1.2088
1.23598
1.25857
1.27885
1.29773
1.3156
1.33247
1.34746
1.36321
1.36304
1.38035
1.39759
1.41443
1.43065
1.44548
1.45945
1.474
1.48929
1.50662
1.54668
1.55664
1.56988
1.5809
1.59035
1.60008
1.61077
1.62101
1.63034
1.65603
1.76467
1.759
1.74605
1.73178
1.72553
1.73131
1.74948
1.77803
1.81182
1.84816
2.06742
1.93146
1.85203
1.80965
1.79236
1.79632
1.8238
1.88167
1.98934
2.16775
0.346702
0.3404
0.332671
0.321557
0.307985
0.295328
0.284912
0.276872
0.271104
0.26768
0.26716
0.269776
0.274808
0.282004
0.291436
0.303181
0.316679
0.329562
0.338519
0.346043
0.255773
0.261694
0.269771
0.275911
0.278987
0.278482
0.275401
0.271375
0.267706
0.265308
0.264999
0.267023
0.270592
0.274886
0.278843
0.280975
0.279819
0.27512
0.268018
0.26016
0.24903
0.251404
0.254688
0.257485
0.25996
0.262172
0.263364
0.26321
0.262211
0.261255
0.261262
0.262472
0.264043
0.265061
0.264813
0.263199
0.260922
0.258466
0.255415
0.252368
0.244253
0.245341
0.247282
0.24966
0.251574
0.253011
0.254248
0.255219
0.255723
0.255904
0.256223
0.256749
0.257002
0.256667
0.255832
0.254727
0.253241
0.251143
0.248943
0.247437
0.239267
0.239896
0.241055
0.242873
0.244771
0.246392
0.247631
0.248632
0.249555
0.250332
0.250864
0.251045
0.250845
0.250387
0.249647
0.248481
0.246872
0.245093
0.243638
0.242809
0.234449
0.234877
0.235709
0.237114
0.23875
0.240404
0.241931
0.243239
0.24432
0.245254
0.24591
0.246112
0.245915
0.245319
0.244331
0.243037
0.2416
0.240212
0.239152
0.238593
0.229802
0.230109
0.23078
0.232002
0.233476
0.235061
0.236716
0.238292
0.239643
0.240737
0.241535
0.241835
0.24159
0.240844
0.239741
0.238492
0.237243
0.236051
0.235184
0.234769
0.225405
0.225619
0.226173
0.227304
0.228737
0.230241
0.231798
0.233413
0.234991
0.236354
0.237326
0.2377
0.237417
0.236708
0.235772
0.234715
0.233574
0.232483
0.231748
0.231443
0.221299
0.221448
0.221897
0.222892
0.224209
0.225621
0.227049
0.228508
0.230034
0.231562
0.232763
0.233275
0.233247
0.232875
0.232246
0.231406
0.23044
0.229523
0.228934
0.228713
0.217482
0.217561
0.217938
0.218918
0.220263
0.221721
0.223308
0.224979
0.226627
0.228212
0.229616
0.230517
0.230774
0.230487
0.229857
0.229069
0.228172
0.227301
0.226787
0.226647
0.214266
0.214297
0.214568
0.215364
0.216514
0.217783
0.219162
0.220699
0.222485
0.224406
0.226165
0.227299
0.227786
0.227892
0.227694
0.227259
0.226669
0.226066
0.225737
0.225666
0.211325
0.211335
0.211512
0.212075
0.212987
0.214102
0.21543
0.216996
0.218791
0.22084
0.222955
0.224629
0.225642
0.22614
0.226273
0.226188
0.225968
0.225709
0.225588
0.225554
0.208041
0.208055
0.208198
0.20861
0.209345
0.210366
0.211648
0.213309
0.215389
0.21787
0.220488
0.222614
0.224019
0.224846
0.225359
0.225645
0.225764
0.225813
0.225832
0.225809
0.203965
0.203979
0.204125
0.20449
0.205133
0.206088
0.207419
0.209199
0.211519
0.214421
0.217659
0.220478
0.222489
0.223883
0.224806
0.225416
0.225833
0.226097
0.226187
0.226168
0.198945
0.198952
0.199114
0.199541
0.200273
0.201361
0.202913
0.205043
0.207871
0.211427
0.215455
0.219009
0.221585
0.223414
0.224645
0.2255
0.226168
0.226552
0.226679
0.226675
0.19297
0.192961
0.193144
0.193673
0.194587
0.195899
0.197777
0.200361
0.203797
0.208173
0.213194
0.217682
0.220995
0.223361
0.225036
0.226244
0.227039
0.227463
0.227625
0.227637
0.1861
0.186078
0.186272
0.186929
0.188102
0.189749
0.19207
0.195284
0.199524
0.204945
0.211187
0.216829
0.221021
0.22403
0.226161
0.227653
0.228592
0.229122
0.229352
0.229384
0.1782
0.178162
0.178404
0.179153
0.180559
0.18274
0.185633
0.189574
0.194834
0.201569
0.209341
0.216385
0.221644
0.225443
0.228127
0.229972
0.23115
0.231838
0.23215
0.232194
0.168998
0.168952
0.169244
0.170186
0.171876
0.174503
0.178112
0.183055
0.189634
0.198035
0.20771
0.216462
0.223013
0.227732
0.231086
0.233384
0.234893
0.235797
0.2362
0.236251
0.157883
0.157831
0.158226
0.159407
0.161515
0.164707
0.169254
0.175503
0.183784
0.194307
0.206343
0.217168
0.225223
0.231076
0.235207
0.238062
0.23997
0.241128
0.241631
0.241691
0.144145
0.144086
0.144632
0.146148
0.148815
0.152883
0.158692
0.166663
0.177168
0.190385
0.205322
0.21863
0.22851
0.235649
0.240703
0.244217
0.24659
0.248033
0.248655
0.248723
0.126832
0.126772
0.127555
0.12959
0.133099
0.138432
0.146017
0.15633
0.169741
0.18633
0.204771
0.221001
0.232975
0.241626
0.247774
0.252072
0.254994
0.256767
0.257523
0.257599
0.104458
0.104414
0.105585
0.108449
0.113293
0.120579
0.130758
0.144306
0.161501
0.182264
0.204854
0.224445
0.238813
0.249206
0.256632
0.261866
0.265454
0.267628
0.268539
0.268624
0.0747203
0.0747523
0.0766263
0.0809325
0.0880277
0.0984185
0.112462
0.130493
0.152579
0.178401
0.205767
0.22912
0.246161
0.258529
0.267444
0.273802
0.278203
0.28086
0.281952
0.282041
0.0334472
0.0337308
0.0371475
0.044447
0.0557308
0.0712555
0.0910588
0.115155
0.143334
0.175054
0.207732
0.235162
0.255095
0.269643
0.280266
0.287977
0.293412
0.296683
0.297972
0.298052
-0.0271186
-0.0255204
-0.0173352
-0.00342122
0.0156087
0.0393337
0.0671958
0.0989737
0.134321
0.172609
0.210952
0.24263
0.265569
0.282419
0.29492
0.304194
0.310865
0.314921
0.316476
0.316563
-0.100237
-0.0970039
-0.0812352
-0.0569844
-0.0274594
0.00578732
0.0424215
0.0824153
0.125512
0.171143
0.216205
0.253341
0.280471
0.300746
0.316132
0.327931
0.336678
0.342019
0.343904
0.344288
-0.174601
-0.166374
-0.142894
-0.108818
-0.0694697
-0.0269848
0.018397
0.066626
0.117482
0.17051
0.222403
0.265097
0.296447
0.32016
0.338507
0.352857
0.36377
0.370256
0.37319
0.374012
-0.233254
-0.223642
-0.195325
-0.154447
-0.107586
-0.0573494
-0.00418185
0.0516707
0.109849
0.169846
0.228072
0.275732
0.310676
0.33709
0.357543
0.373537
0.385677
0.393346
0.397105
0.398122
-0.281024
-0.270744
-0.239074
-0.193322
-0.140817
-0.0844307
-0.0248154
0.0376251
0.102378
0.168744
0.232683
0.284649
0.322476
0.35089
0.372732
0.389774
0.402747
0.411266
0.41543
0.41651
-0.320852
-0.310414
-0.276572
-0.227005
-0.169964
-0.10855
-0.043533
0.0245615
0.0950829
0.167145
0.236196
0.291906
0.332079
0.361954
0.384713
0.402324
0.415708
0.424583
0.428924
0.430035
-0.355538
-0.345048
-0.309593
-0.256998
-0.196164
-0.130485
-0.0608169
0.0122486
0.0879263
0.165127
0.238857
0.297916
0.340126
0.371185
0.394571
0.412437
0.425874
0.434817
0.439123
0.440279
-0.386648
-0.376166
-0.339468
-0.284371
-0.220349
-0.15099
-0.0771982
0.000339749
0.0807187
0.162704
0.24083
0.303121
0.347257
0.379354
0.403217
0.421235
0.434686
0.443641
0.447941
0.449003
-0.41536
-0.404863
-0.367153
-0.309894
-0.243109
-0.170536
-0.0930944
-0.0115123
0.0732136
0.159754
0.242156
0.307586
0.3536
0.386749
0.411141
0.429377
0.442867
0.451827
0.456142
0.457063
-0.442487
-0.431948
-0.393317
-0.334153
-0.264931
-0.189528
-0.108817
-0.0235528
0.0652126
0.156064
0.242652
0.311297
0.359369
0.393745
0.418794
0.437332
0.450926
0.459871
0.464155
0.464994
-0.468483
-0.457887
-0.418392
-0.357524
-0.286137
-0.208193
-0.124548
-0.0359519
0.0565562
0.151523
0.242345
0.314455
0.364781
0.400555
0.426413
0.445377
0.459157
0.46811
0.472334
0.473145
-0.493696
-0.482965
-0.442654
-0.380247
-0.306923
-0.22672
-0.140435
-0.0487939
0.0472005
0.146152
0.241239
0.316971
0.369825
0.407235
0.434104
0.453646
0.467713
0.476718
0.480825
0.481596
-0.518323
-0.507391
-0.46632
-0.402481
-0.327425
-0.245199
-0.156519
-0.0621042
0.0371283
0.139873
0.239168
0.318734
0.374445
0.413804
0.441902
0.462178
0.476623
0.485712
0.4897
0.490406
-0.542399
-0.531237
-0.489423
-0.424293
-0.347681
-0.263635
-0.172821
-0.0759025
0.0262841
0.13257
0.236048
0.319666
0.378542
0.420186
0.449781
0.470963
0.485876
0.495064
0.498912
0.4995
-0.565998
-0.55456
-0.512034
-0.445698
-0.367705
-0.282046
-0.189338
-0.0901875
0.0146677
0.124267
0.231811
0.319606
0.381988
0.42629
0.457692
0.479962
0.495408
0.504673
0.508333
0.508771
-0.589046
-0.577369
-0.53413
-0.466697
-0.387467
-0.30038
-0.206003
-0.104888
0.00234967
0.114973
0.226377
0.318389
0.384579
0.431985
0.465578
0.489146
0.505152
0.51441
0.517817
0.518085
-0.611574
-0.599612
-0.555663
-0.48724
-0.406913
-0.318573
-0.222744
-0.119916
-0.0105927
0.104708
0.219703
0.315882
0.386076
0.437042
0.473361
0.49855
0.515109
0.52416
0.527158
0.527239
-0.633393
-0.621228
-0.576589
-0.507274
-0.425978
-0.336543
-0.239481
-0.135186
-0.0240845
0.0935497
0.21178
0.311956
0.386249
0.441168
0.480895
0.508292
0.525431
0.533863
0.536145
0.535995
-0.654599
-0.642169
-0.596863
-0.526759
-0.444616
-0.354233
-0.256109
-0.150608
-0.0380153
0.0816043
0.202632
0.306524
0.384854
0.443963
0.487843
0.518496
0.536682
0.543856
0.544631
0.544087
-0.675045
-0.66236
-0.616465
-0.545639
-0.462736
-0.371552
-0.27254
-0.166046
-0.05226
0.068962
0.192334
0.299533
0.381709
0.444964
0.493559
0.528942
0.549798
0.555787
0.553351
0.551358
-0.694789
-0.681853
-0.635334
-0.563853
-0.480296
-0.388427
-0.288684
-0.181411
-0.0666982
0.0557796
0.181004
0.290954
0.376685
0.443724
0.497048
0.538512
0.564858
0.572863
0.567304
0.555601
-0.713726
-0.700623
-0.653557
-0.581566
-0.497513
-0.405153
-0.30489
-0.19713
-0.0818151
0.0414998
0.168043
0.280098
0.369151
0.439549
0.496848
0.544971
0.579429