/*--------------------------------*- C++ -*----------------------------------*\
  =========                 |
  \\      /  F ield         | OpenFOAM: The Open Source CFD Toolbox
   \\    /   O peration     | Website:  https://openfoam.org
    \\  /    A nd           | Version:  6
     \\/     M anipulation  |
\*---------------------------------------------------------------------------*/
FoamFile
{
    version     2.0;
    format      ascii;
    class       surfaceScalarField;
    location    "9";
    object      phi;
}
// * * * * * * * * * * * * * * * * * * * * * * * * * * * * * * * * * * * * * //

dimensions      [0 3 -1 0 0 0 0];

internalField   nonuniform List<scalar> 
17370
(
-0.0899674
0.0898034
0.289175
-0.0714047
0.0537165
0.364464
-0.0381541
0.027849
0.426473
-0.0199047
0.0149038
0.504253
-0.0109995
0.00837817
0.602023
-0.00618522
0.00469941
0.720543
-0.00349419
0.00266881
0.863732
-0.0019716
0.0014601
1.03596
-0.000987893
0.000619553
1.24287
-0.000267065
-4.40713e-05
1.4915
0.00035639
-0.000714494
1.49155
0.00107831
-0.00153757
1.24315
0.0020344
-0.00271656
1.03632
0.00352971
-0.00472427
0.864101
0.00620424
-0.00839704
0.72125
0.0110205
-0.0149276
0.603122
0.019929
-0.0278711
0.507381
0.0381734
-0.0537332
0.431728
0.071419
-0.0898129
0.365169
0.089973
0.199038
-0.128302
0.0885728
0.0397291
-0.364753
0.353774
-0.074222
0.0852003
-0.446618
0.454595
-0.0835748
0.0755977
-0.521179
0.530184
-0.0672827
0.058277
-0.612586
0.621416
-0.0499097
0.0410796
-0.726874
0.733739
-0.0337389
0.0268739
-0.867569
0.872307
-0.0216399
0.0169012
-1.03842
1.04168
-0.013321
0.0100572
-1.2445
1.2468
-0.00757365
0.00527326
-1.49262
1.49452
-0.00339674
0.00149024
-1.49233
1.49406
0.000246585
-0.00198049
-1.24388
1.24574
0.00387108
-0.00572912
-1.0374
1.03986
0.00800737
-0.010467
-0.866088
0.869642
0.0137055
-0.0172597
-0.724439
0.729641
0.0219464
-0.0271484
-0.608552
0.61587
0.0339788
-0.0412974
-0.514797
0.523153
0.0501059
-0.0584616
-0.439964
0.44826
0.0674479
-0.0757434
-0.375436
0.377033
0.0836949
-0.0852924
-0.257548
0.223017
0.0742833
-0.0397531
-0.0690483
0.0596111
0.00943723
-0.0497116
0.0558158
-0.37444
0.368336
-0.0547131
0.051007
-0.453678
0.457384
-0.0463633
0.0426513
-0.528174
0.531886
-0.0389322
0.0353138
-0.621612
0.625231
-0.0311819
0.0270907
-0.734964
0.739055
-0.0226359
0.0186599
-0.873808
0.877784
-0.0146522
0.0112586
-1.04301
1.0464
-0.00794988
0.00517504
-1.24818
1.25095
-0.00230865
-0.000428821
-1.49637
1.49911
0.00312917
-0.00597269
-1.49691
1.49976
0.00871145
-0.0119611
-1.24965
1.2529
0.0152959
-0.0192472
-1.04547
1.04943
0.0231706
-0.0275719
-0.877281
0.881682
0.0316188
-0.0356975
-0.739838
0.743917
0.0392796
-0.0429528
-0.627055
0.630729
0.046624
-0.0512339
-0.535129
0.539738
0.0549079
-0.0559757
-0.45773
0.458798
0.049831
-0.030624
-0.336585
0.317378
0.00945542
-0.0689827
0.0595273
-0.0543802
0.0508816
0.00349858
-0.0295555
0.0388995
-0.359906
0.350562
-0.0418282
0.0408876
-0.459543
0.460484
-0.0376964
0.0344752
-0.535385
0.538607
-0.0309747
0.0281279
-0.628052
0.630899
-0.0253149
0.0228874
-0.741885
0.744313
-0.0202583
0.0178413
-0.880908
0.883325
-0.0150928
0.012451
-1.04956
1.0522
-0.00934082
0.00632541
-1.25402
1.25704
-0.00279277
-0.000694358
-1.50237
1.50586
0.00415556
-0.00761397
-1.50306
1.50652
0.0105641
-0.0135949
-1.25622
1.25925
0.0161572
-0.0188051
-1.0528
1.05545
0.0211291
-0.0236636
-0.884824
0.887359
0.0260047
-0.0287653
-0.746814
0.749574
0.0315516
-0.0349898
-0.634015
0.637453
0.0381555
-0.0412836
-0.543993
0.547121
0.0421627
-0.0391547
-0.457759
0.454751
0.0297271
-0.014206
-0.299607
0.284086
0.00352689
-0.0542702
0.0507433
-0.0484024
0.0468951
0.00150732
-0.0150904
0.0229747
-0.341401
0.333517
-0.0279141
0.0292496
-0.460248
0.458912
-0.0288059
0.0274615
-0.541062
0.542407
-0.0258047
0.0241515
-0.633378
0.635031
-0.0222404
0.0203198
-0.746619
0.74854
-0.0180601
0.0158934
-0.885616
0.887783
-0.0133396
0.0108753
-1.05467
1.05713
-0.00804211
0.00533383
-1.25983
1.26254
-0.00221871
-0.000782238
-1.5091
1.5121
0.00377925
-0.00687121
-1.50976
1.51285
0.00953195
-0.0122898
-1.26203
1.26479
0.0146604
-0.0170881
-1.05799
1.06042
0.0191373
-0.0212838
-0.889772
0.891919
0.0230985
-0.0249032
-0.752141
0.753946
0.0264856
-0.0280445
-0.640245
0.641804
0.0293144
-0.0296746
-0.548965
0.549325
0.0282654
-0.023236
-0.450318
0.445289
0.0152658
-0.00621793
-0.271557
0.262509
0.0015359
-0.0482405
0.0467046
-0.0462242
0.0459786
0.000245642
-0.00544698
0.0102157
-0.327363
0.322594
-0.0147841
0.0174322
-0.456771
0.454123
-0.0189975
0.0195718
-0.542547
0.541973
-0.0198508
0.0196193
-0.635802
0.636034
-0.0188972
0.0180068
-0.74987
0.750761
-0.0166622
0.0150849
-0.889667
0.891244
-0.0130225
0.0108258
-1.05948
1.06168
-0.00811363
0.00536082
-1.26526
1.26802
-0.00209565
-0.00110624
-1.51518
1.51838
0.0042841
-0.00745762
-1.51596
1.51914
0.010091
-0.0126546
-1.26745
1.27001
0.0147156
-0.0166267
-1.06258
1.06449
0.0180723
-0.0192896
-0.893545
0.894763
0.020109
-0.020667
-0.755045
0.755603
0.0207688
-0.0203755
-0.642129
0.641736
0.0197085
-0.0180353
-0.548436
0.546763
0.0152831
-0.0105891
-0.440333
0.435639
0.00569947
-0.00177118
-0.256581
0.252653
0.00028877
-0.0459942
0.0457054
-0.0458248
0.0457095
0.000115321
-0.00290103
0.00621667
-0.318669
0.315354
-0.0105596
0.0141136
-0.451019
0.447465
-0.0170132
0.0186643
-0.540916
0.539265
-0.0193765
0.0195703
-0.63582
0.635626
-0.0194513
0.0186846
-0.751651
0.752418
-0.017303
0.0156539
-0.892796
0.894445
-0.0134458
0.0111246
-1.06387
1.06619
-0.00824062
0.00533739
-1.27082
1.27372
-0.00186231
-0.00155661
-1.52165
1.52507
0.00494708
-0.00832183
-1.52238
1.52576
0.0110817
-0.0137801
-1.27261
1.27531
0.0159283
-0.0179449
-1.0664
1.06841
0.019416
-0.0205787
-0.895969
0.897132
0.021057
-0.0209735
-0.75581
0.755727
0.0206407
-0.019757
-0.641063
0.640179
0.0179529
-0.0148919
-0.54442
0.541359
0.0111868
-0.00667341
-0.431053
0.42654
0.00320463
-0.000960839
-0.249752
0.247508
0.000164551
-0.0455071
0.0453426
-0.0456654
0.0456646
8.25359e-07
-0.00132202
0.00345386
-0.312637
0.310505
-0.00700194
0.0106218
-0.443695
0.440075
-0.0141937
0.0167552
-0.537033
0.534471
-0.0185142
0.0191742
-0.635367
0.634707
-0.0191018
0.0185672
-0.753053
0.753587
-0.0174041
0.0158339
-0.896043
0.897613
-0.0136459
0.011279
-1.06857
1.07094
-0.00832328
0.00530834
-1.27673
1.27974
-0.0016209
-0.00207799
-1.52869
1.53239
0.00572896
-0.00927998
-1.52927
1.53283
0.0121371
-0.0148633
-1.27805
1.28078
0.0169542
-0.0188193
-1.07036
1.07223
0.02007
-0.0208802
-0.898121
0.898931
0.0211839
-0.0210852
-0.755783
0.755684
0.020196
-0.0182005
-0.638698
0.636702
0.0154206
-0.0116184
-0.537735
0.533932
0.00779161
-0.00402272
-0.422281
0.418512
0.00169784
-0.000448372
-0.245825
0.244575
6.15315e-05
-0.0452435
0.045182
-0.0456694
0.0456809
-1.15244e-05
-0.000574762
0.00172151
-0.308902
0.307756
-0.00391219
0.006451
-0.436919
0.43438
-0.00928217
0.0115276
-0.531936
0.52969
-0.0133429
0.0144195
-0.633687
0.63261
-0.0148869
0.0147092
-0.754028
0.754205
-0.0139552
0.0128271
-0.899027
0.900155
-0.0111311
0.00919458
-1.07313
1.07507
-0.00666222
0.00400015
-1.28263
1.28529
-0.000678926
-0.00267032
-1.53599
1.53934
0.00595146
-0.00909562
-1.53625
1.53939
0.0115605
-0.0138179
-1.28333
1.28559
0.0154335
-0.0167482
-1.07388
1.07519
0.0175302
-0.017928
-0.89967
0.900068
0.0177744
-0.0169123
-0.755119
0.754257
0.0155085
-0.0133438
-0.634475
0.63231
0.0107996
-0.00766409
-0.530329
0.527194
0.00486488
-0.00240476
-0.415383
0.412923
0.00102735
-0.000310926
-0.24363
0.242914
6.27535e-05
-0.0451201
0.0450573
-0.0457103
0.0457546
-4.43812e-05
-7.27793e-05
0.000554991
-0.306985
0.306502
-0.00162137
0.00298842
-0.432465
0.431098
-0.00466176
0.00610311
-0.527832
0.52639
-0.00741932
0.00830231
-0.631589
0.630706
-0.00887194
0.00901689
-0.754171
0.754026
-0.00875639
0.00814112
-0.901005
0.90162
-0.00704991
0.00568465
-1.07672
1.07809
-0.00379561
0.00174474
-1.28767
1.28972
0.000815077
-0.00337539
-1.54232
1.54488
0.00584958
-0.00816654
-1.54215
1.54446
0.0098956
-0.0113754
-1.28748
1.28896
0.0123359
-0.0129404
-1.07614
1.07675
0.0131038
-0.0128729
-0.900105
0.899874
0.0122903
-0.0112576
-0.753255
0.752222
0.00997789
-0.00825629
-0.630328
0.628606
0.00647037
-0.00444479
-0.524622
0.522597
0.00277433
-0.00138834
-0.411061
0.409675
0.000625999
-0.000209426
-0.242374
0.241958
4.7032e-05
-0.0450036
0.0449566
-0.0458101
0.0458742
-6.40522e-05
0.000197383
-8.14157e-05
-0.306223
0.306107
-0.000331548
0.000930435
-0.430169
0.429571
-0.00172124
0.0024473
-0.525337
0.524611
-0.0031566
0.00366597
-0.630005
0.629496
-0.00402938
0.0041567
-0.753862
0.753735
-0.00404127
0.00368364
-0.902073
0.902431
-0.0029932
0.00208576
-1.0792
1.0801
-0.000786971
-0.000649293
-1.29144
1.29288
0.00243379
-0.00419997
-1.54702
1.54879
0.00586876
-0.0073495
-1.54635
1.54783
0.008378
-0.0091295
-1.29004
1.29079
0.00949354
-0.00958082
-1.07706
1.07715
0.00937596
-0.00888314
-0.899477
0.898985
0.00821753
-0.00729118
-0.751226
0.750299
0.00629998
-0.00510291
-0.627162
0.625965
0.00396202
-0.00274717
-0.52103
0.519816
0.00178169
-0.000978631
-0.408635
0.407832
0.000503918
-0.000200193
-0.241615
0.241311
5.38812e-05
-0.0449083
0.0448544
-0.0459479
0.046029
-8.11233e-05
0.000391001
-0.000457525
-0.306103
0.306169
0.000407507
-0.000238593
-0.429216
0.429048
-2.66437e-05
0.000281792
-0.524147
0.523892
-0.000531025
0.000699532
-0.629166
0.628998
-0.0007911
0.000767632
-0.753675
0.753698
-0.000598102
0.0002909
-0.902744
0.903051
0.00023464
-0.000894965
-1.08086
1.08152
0.00181799
-0.00282097
-1.29407
1.29508
0.00404135
-0.00520908
-1.55023
1.5514
0.0062557
-0.0071008
-1.54896
1.5498
0.00756832
-0.00779167
-1.29127
1.29149
0.00781517
-0.00759787
-1.07706
1.07685
0.00722002
-0.0066472
-0.89844
0.897867
0.00601238
-0.00523303
-0.749451
0.748671
0.00447402
-0.00362233
-0.624966
0.624114
0.00285553
-0.00206596
-0.518853
0.518064
0.00143712
-0.000884886
-0.407184
0.406632
0.000514077
-0.00023056
-0.241025
0.240741
6.89144e-05
-0.0447936
0.0447247
-0.0461194
0.0462194
-9.99665e-05
0.000545834
-0.000756727
-0.306312
0.306523
0.000905127
-0.000984972
-0.429017
0.429097
0.00103516
-0.00107897
-0.523803
0.523847
0.00114737
-0.00124416
-0.628971
0.629068
0.00140238
-0.00160806
-0.753812
0.754018
0.00191627
-0.0022866
-0.903381
0.903751
0.00280224
-0.00337683
-1.08213
1.0827
0.00411616
-0.00487002
-1.29594
1.29669
0.00573556
-0.00650467
-1.55235
1.55311
0.00711797
-0.00752444
-1.55042
1.55083
0.00766189
-0.00758641
-1.29153
1.29146
0.00732094
-0.00689393
-1.07651
1.07609
0.00640111
-0.00577882
-0.89727
0.896648
0.00516424
-0.00446588
-0.747943
0.747245
0.00382481
-0.00313714
-0.623364
0.622676
0.00253691
-0.00192489
-0.517385
0.516773
0.00142437
-0.000951559
-0.406134
0.405661
0.000593784
-0.00028346
-0.240449
0.240138
8.89785e-05
-0.0446464
0.0445574
-0.046332
0.0464592
-0.000127162
0.00072821
-0.00105169
-0.30679
0.307114
0.00136434
-0.00161629
-0.429267
0.429519
0.0018793
-0.00213055
-0.524
0.524252
0.00243192
-0.00273852
-0.629274
0.62958
0.0031151
-0.00350223
-0.754314
0.754702
0.00397987
-0.004469
-0.904176
0.904665
0.0050645
-0.00565756
-1.08327
1.08387
0.00634774
-0.00698807
-1.29737
1.29801
0.00765271
-0.00816266
-1.55374
1.55425
0.00847672
-0.00855278
-1.55105
1.55112
0.0084167
-0.00809638
-1.29127
1.29095
0.00766487
-0.00708943
-1.07558
1.07501
0.00649851
-0.00581271
-0.895998
0.895312
0.00517262
-0.00447561
-0.746556
0.745859
0.00385622
-0.00320724
-0.62202
0.621371
0.00264838
-0.00207746
-0.516194
0.515624
0.00159689
-0.00111546
-0.405192
0.40471
0.000721183
-0.000354407
-0.239803
0.239436
0.000113709
-0.0444566
0.0443429
-0.0466026
0.0467639
-0.000161217
0.000944089
-0.00138763
-0.307496
0.307939
0.00184918
-0.00225343
-0.429847
0.430252
0.00269902
-0.00312839
-0.524593
0.525022
0.00363434
-0.00413224
-0.629983
0.630481
0.00471867
-0.00529247
-0.755181
0.755754
0.00596158
-0.00660584
-0.905227
0.905871
0.00733945
-0.00802012
-1.0845
1.08518
0.00875262
-0.00937365
-1.29863
1.29926
0.00994543
-0.0102976
-1.55467
1.55502
0.0104036
-0.0102409
-1.55108
1.55091
0.00988894
-0.00934002
-1.29051
1.28996
0.00873667
-0.00799671
-1.07435
1.07361
0.00728323
-0.00648741
-0.894578
0.893782
0.00576682
-0.00499974
-0.745136
0.744369
0.00432929
-0.00363482
-0.620709
0.620014
0.00303994
-0.00242969
-0.515041
0.514431
0.00190538
-0.00136064
-0.404203
0.403659
0.00089451
-0.000445384
-0.239032
0.238582
0.000144253
-0.0442147
0.0440705
-0.0469466
0.0471522
-0.000205629
0.00121599
-0.00180058
-0.308449
0.309034
0.00242621
-0.00298973
-0.430732
0.431296
0.00362133
-0.00423186
-0.525539
0.52615
0.00494698
-0.00564421
-0.631076
0.631773
0.00645476
-0.00723465
-0.756428
0.757208
0.00812529
-0.00896095
-0.906607
0.907442
0.00988275
-0.0107056
-1.08592
1.08674
0.0115488
-0.0122177
-1.29989
1.30056
0.0127703
-0.0130287
-1.55532
1.55558
0.0129767
-0.0126063
-1.55064
1.55027
0.0120516
-0.0112772
-1.2893
1.28853
0.0104756
-0.00953634
-1.07278
1.07184
0.00865671
-0.00769591
-0.892911
0.89195
0.00683963
-0.00593842
-0.743542
0.742641
0.00515711
-0.0043522
-0.619272
0.618467
0.00366423
-0.00295639
-0.513779
0.513071
0.00234107
-0.00168917
-0.403066
0.402414
0.00111888
-0.000560182
-0.238082
0.237524
0.000182075
-0.0439084
0.0437263
-0.0473873
0.0476512
-0.000263924
0.00156654
-0.00232677
-0.3097
0.31046
0.00314997
-0.00389985
-0.431943
0.432693
0.00474492
-0.00556191
-0.526857
0.527674
0.00651513
-0.00744049
-0.632581
0.633506
0.00851016
-0.00953232
-0.758105
0.759127
0.0106888
-0.0117611
-0.90839
0.909463
0.0129251
-0.0139429
-1.08766
1.08868
0.0149558
-0.0157253
-1.30127
1.30204
0.0163101
-0.016511
-1.55581
1.55601
0.0163205
-0.0157404
-1.5498
1.54922
0.0149668
-0.0139378
-1.28763
1.2866
0.0129003
-0.0117101
-1.07078
1.06959
0.0106115
-0.00942454
-0.890884
0.889697
0.00837522
-0.00727729
-0.741649
0.740551
0.00632931
-0.00535511
-0.617586
0.616612
0.00452303
-0.00366526
-0.512296
0.511438
0.00291508
-0.00211267
-0.401693
0.40089
0.00140358
-0.000703984
-0.236899
0.236199
0.000229002
-0.0435222
0.0432932
-0.0479554
0.048297
-0.000341554
0.00202594
-0.00301215
-0.311323
0.312309
0.00408581
-0.00506765
-0.43354
0.434522
0.00617311
-0.0072391
-0.528606
0.529672
0.00847749
-0.00967654
-0.634568
0.635767
0.011059
-0.0123765
-0.760295
0.761613
0.0138611
-0.0152291
-0.910674
0.912042
0.0167007
-0.0179709
-1.08981
1.09108
0.0192118
-0.020127
-1.30288
1.3038
0.0207803
-0.0209394
-1.55619
1.55635
0.0206047
-0.0197879
-1.54853
1.54771
0.0187551
-0.017418
-1.28542
1.28409
0.0160898
-0.0145822
-1.06825
1.06674
0.013202
-0.0117197
-0.88837
0.886887
0.0104149
-0.00905372
-0.739329
0.737968
0.00788043
-0.00667553
-0.615532
0.614327
0.0056461
-0.00458338
-0.510489
0.509427
0.00365128
-0.00265036
-0.399998
0.398997
0.00176241
-0.000884136
-0.235416
0.234538
0.000287528
-0.0430374
0.0427499
-0.0486923
0.0491402
-0.000447897
0.00263968
-0.00392283
-0.313422
0.314705
0.0053219
-0.00659777
-0.435616
0.436892
0.00802371
-0.00939183
-0.530888
0.532256
0.0109745
-0.0125073
-0.637151
0.638683
0.0142764
-0.0159642
-0.763117
0.764805
0.0178633
-0.0196067
-0.91358
0.915324
0.021469
-0.0230603
-1.09249
1.09408
0.0245919
-0.0256949
-1.30479
1.3059
0.0264414
-0.0265561
-1.55648
1.5566
0.0260496
-0.0249444
-1.54676
1.54565
0.0235917
-0.0218706
-1.28257
1.28085
0.0201784
-0.0182711
-1.06504
1.06314
0.0165343
-0.0146766
-0.885221
0.883363
0.013046
-0.0113475
-0.736442
0.734744
0.00988404
-0.00837981
-0.612985
0.611481
0.00709222
-0.0057599
-0.508251
0.506918
0.00458923
-0.00333097
-0.397883
0.396625
0.00221483
-0.00111088
-0.233556
0.232452
0.000361442
-0.0424308
0.0420694
-0.0496545
0.0502524
-0.000597896
0.00347806
-0.00515597
-0.316142
0.31782
0.00697547
-0.00861409
-0.438311
0.439949
0.0104206
-0.0121456
-0.533858
0.535583
0.0141423
-0.0160895
-0.640488
0.642435
0.0183524
-0.0205204
-0.766728
0.768896
0.022959
-0.025188
-0.917258
0.919487
0.0275493
-0.0295442
-1.09583
1.09782
0.031435
-0.0327644
-1.30708
1.30841
0.0336152
-0.0336638
-1.55667
1.55672
0.0329339
-0.0314632
-1.54437
1.5429
0.0297081
-0.0275048
-1.27889
1.27669
0.0253564
-0.0229483
-1.06098
1.05857
0.0207656
-0.018439
-0.881261
0.878935
0.0164024
-0.0142839
-0.732826
0.730707
0.0124577
-0.0105764
-0.609803
0.607922
0.00895933
-0.00727761
-0.505456
0.503774
0.00579528
-0.00420182
-0.395235
0.393641
0.00279268
-0.0014013
-0.231222
0.229831
0.000457393
-0.0416751
0.0412177
-0.0509254
0.0517348
-0.000809343
0.00463232
-0.0068328
-0.319687
0.321888
0.00918269
-0.0112554
-0.441826
0.443898
0.0135077
-0.0156601
-0.537723
0.539875
0.0181806
-0.0206764
-0.644781
0.647277
0.0236121
-0.0264259
-0.771329
0.774142
0.0295675
-0.0324115
-0.921891
0.924735
0.0353931
-0.0378767
-1.09995
1.10243
0.0401871
-0.0417651
-1.3098
1.31138
0.0427051
-0.0426353
-1.55668
1.55661
0.0416002
-0.0396567
-1.54119
1.53924
0.0373924
-0.0345855
-1.27419
1.27138
0.0318688
-0.0288389
-1.05584
1.05281
0.0261039
-0.0231995
-0.87628
0.873376
0.0206653
-0.0180351
-0.728285
0.725655
0.015768
-0.0134262
-0.605812
0.60347
0.0113997
-0.00927217
-0.501957
0.499829
0.00738163
-0.00534275
-0.391918
0.389879
0.00354806
-0.00178207
-0.2283
0.226534
0.000585494
-0.0407374
0.0401519
-0.0526337
0.0537424
-0.00110871
0.0062453
-0.0091496
-0.324347
0.327252
0.0121871
-0.014809
-0.446425
0.449046
0.0176304
-0.0203473
-0.542745
0.545462
0.0235905
-0.0268467
-0.650292
0.653548
0.030687
-0.0343487
-0.77717
0.780832
0.0383864
-0.0419817
-0.927704
0.9313
0.0456861
-0.0487118
-1.10501
1.10803
0.0514565
-0.0532575
-1.31296
1.31476
0.0542138
-0.0539219
-1.55638
1.55609
0.0524554
-0.049894
-1.53697
1.53441
0.0469875
-0.0434304
-1.26819
1.26463
0.0400128
-0.0362183
-1.04937
1.04558
0.0328046
-0.0291918
-0.870028
0.866415
0.0260514
-0.0228045
-0.722586
0.719339
0.0200116
-0.0171249
-0.600798
0.597912
0.0146092
-0.0119329
-0.497564
0.494888
0.00951665
-0.00688011
-0.387766
0.385129
0.00456184
-0.00228955
-0.22465
0.222378
0.000756423
-0.0395764
0.03882
-0.0549745
0.0565466
-0.00157206
0.00868656
-0.0126012
-0.330523
0.334438
0.0165747
-0.0199296
-0.452462
0.455817
0.0235219
-0.0270363
-0.54927
0.552784
0.0313055
-0.0356044
-0.657373
0.661672
0.0406201
-0.0453073
-0.784599
0.789286
0.0503852
-0.0548125
-0.934945
0.939372
0.0592741
-0.0628275
-1.11109
1.11464
0.0659415
-0.0678643
-1.31649
1.31841
0.068684
-0.0679978
-1.55552
1.55484
0.0659187
-0.0625536
-1.53142
1.52805
0.0588453
-0.05437
-1.26059
1.25612
0.0501024
-0.0453818
-1.04127
1.03655
0.0411412
-0.0366595
-0.862221
0.857739
0.0327727
-0.0287693
-0.71546
0.711456
0.0253399
-0.0218067
-0.594507
0.590973
0.0187169
-0.015394
-0.492036
0.488713
0.0123348
-0.00893071
-0.382552
0.379148
0.00591135
-0.00295188
-0.220085
0.217126
0.000971717
-0.0381317
0.03716
-0.0582574
0.0606446
-0.00238726
0.0127684
-0.0181482
-0.338839
0.344219
0.0233256
-0.0276134
-0.460506
0.464794
0.0322481
-0.0368933
-0.557819
0.562464
0.0425688
-0.048202
-0.666511
0.672145
0.054623
-0.0604596
-0.794001
0.799838
0.0666268
-0.071876
-0.943793
0.949042
0.0770326
-0.0810076
-1.11814
1.12211
0.084324
-0.086174
-1.32013
1.32198
0.086614
-0.0852908
-1.55374
1.55242
0.0823682
-0.0779805
-1.52414
1.51975
0.0732935
-0.0677262
-1.25107
1.24551
0.0624594
-0.0566518
-1.03122
1.02542
0.0514343
-0.0459104
-0.852557
0.847033
0.0411103
-0.0361651
-0.706612
0.701667
0.0319372
-0.0275952
-0.586648
0.582306
0.0238015
-0.0197128
-0.485069
0.480981
0.0158936
-0.0115691
-0.375943
0.371619
0.0076625
-0.00380171
-0.21433
0.210469
0.00123492
-0.0363141
0.0350792
-0.0630691
0.0669882
-0.00391914
0.0199003
-0.0274267
-0.350388
0.357914
0.0342669
-0.0398813
-0.471388
0.477002
0.0460338
-0.0522854
-0.569088
0.57534
0.0597793
-0.0669405
-0.678279
0.68544
0.0748083
-0.0817283
-0.805648
0.812568
0.0888252
-0.0946872
-0.954179
0.960041
0.100243
-0.104322
-1.12583
1.12991
0.107458
-0.108873
-1.3234
1.32481
0.108541
-0.106247
-1.55048
1.54818
0.102197
-0.0965483
-1.51467
1.50902
0.0907142
-0.083906
-1.23929
1.23248
0.0775252
-0.0705176
-1.01895
1.01194
0.0642216
-0.0575343
-0.840743
0.834056
0.051696
-0.0456545
-0.69573
0.689688
0.0404675
-0.0351309
-0.576893
0.571556
0.0304746
-0.0254424
-0.476291
0.471258
0.0206417
-0.0151285
-0.367493
0.36198
0.0100475
-0.00496874
-0.206961
0.201882
0.00158923
-0.0340038
0.0324145
-0.0706395
0.0778849
-0.00724536
0.0336271
-0.0447308
-0.367218
0.378321
0.0539393
-0.0612019
-0.486315
0.493578
0.0692531
-0.0773614
-0.583849
0.591957
0.0867332
-0.0952485
-0.692945
0.70146
0.104191
-0.111749
-0.819304
0.826862
0.119217
-0.12511
-0.965534
0.971428
0.130396
-0.13395
-1.13341
1.13696
0.136247
-0.136648
-1.32548
1.32588
0.134993
-0.131275
-1.545
1.54128
0.125745
-0.118584
-1.5025
1.49534
0.111444
-0.103293
-1.22493
1.21678
0.095743
-0.0875099
-1.00424
0.996006
0.0801309
-0.0722899
-0.826585
0.818744
0.0654228
-0.0582748
-0.682567
0.675419
0.052096
-0.045724
-0.564901
0.558529
0.0401763
-0.0341201
-0.465234
0.459178
0.0280994
-0.0207711
-0.356553
0.349224
0.0137436
-0.00662879
-0.197259
0.190144
0.00200626
-0.0310484
0.0290421
-0.0850794
0.0881231
-0.00304364
0.0217829
-0.0312317
-0.392555
0.402003
0.0399541
-0.0477659
-0.506339
0.514151
0.0570169
-0.0668093
-0.601839
0.611631
0.0776077
-0.0872313
-0.709572
0.719196
0.0979293
-0.107374
-0.833666
0.843111
0.11718
-0.125591
-0.976413
0.984825
0.133961
-0.140666
-1.13947
1.14618
0.146641
-0.150553
-1.32516
1.32907
0.15265
-0.15206
-1.53639
1.5358
0.148651
-0.142802
-1.48714
1.48129
0.135889
-0.12706
-1.20782
1.19899
0.118373
-0.107885
-0.987069
0.97658
0.0981858
-0.0874307
-0.810145
0.79939
0.0777268
-0.0673275
-0.667201
0.656802
0.057888
-0.0482281
-0.550643
0.540983
0.039966
-0.0307102
-0.451573
0.442317
0.0221772
-0.0133369
-0.342011
0.33317
0.00661292
-0.00187694
-0.183621
0.178885
-7.23113e-05
-0.0270406
0.027113
-0.0956498
0.0914995
0.00415025
-0.00144859
-0.00365143
-0.414823
0.419923
0.0106415
-0.0177043
-0.525932
0.532994
0.0266606
-0.0352227
-0.621556
0.630118
0.0449215
-0.0537441
-0.728793
0.737616
0.0631441
-0.0716537
-0.852144
0.860653
0.0805222
-0.0878572
-0.993012
1.00035
0.0953749
-0.101115
-1.15279
1.15853
0.106233
-0.109368
-1.33283
1.33597
0.110537
-0.109338
-1.5346
1.5334
0.105499
-0.0994244
-1.47487
1.4688
0.0923155
-0.0835476
-1.18989
1.18112
0.0750937
-0.0654197
-0.966067
0.956393
0.0563452
-0.0462582
-0.788215
0.778129
0.0371916
-0.027843
-0.645094
0.635745
0.0198265
-0.0115918
-0.529148
0.520913
0.00452857
0.00219359
-0.43063
0.423908
-0.00677306
0.0094184
-0.322708
0.320062
-0.00916589
0.00618072
-0.171996
0.174981
-0.00272951
-0.0253934
0.0281229
-0.0936272
0.0895336
0.00409351
-0.00861058
0.00663999
-0.429475
0.431446
-0.00227488
-0.00347736
-0.54253
0.548283
0.0107325
-0.0179411
-0.63873
0.645938
0.026068
-0.0335178
-0.745912
0.753361
0.0416995
-0.0489973
-0.868533
0.875831
0.0564049
-0.0629075
-1.00756
1.01406
0.0694327
-0.0745395
-1.16396
1.16907
0.0787554
-0.0812037
-1.33863
1.34107
0.0821462
-0.0808283
-1.5318
1.53049
0.0771842
-0.0716769
-1.46257
1.45707
0.0654311
-0.0580366
-1.17279
1.16539
0.05071
-0.0426944
-0.947059
0.939043
0.0353297
-0.0273103
-0.768925
0.760905
0.0204596
-0.0134579
-0.626529
0.619527
0.00772008
-0.00191284
-0.511683
0.505876
-0.00253914
0.00634526
-0.415363
0.411557
-0.00856921
0.00880382
-0.31328
0.313045
-0.00711421
0.0042374
-0.172784
0.175661
-0.00174721
-0.0280713
0.0298186
-0.0903698
0.086645
0.00372479
-0.0106662
0.0104712
-0.4386
0.438795
-0.00774942
0.00305516
-0.555441
0.560135
0.00313409
-0.00901968
-0.652777
0.658663
0.0158022
-0.0220447
-0.760494
0.766736
0.0288769
-0.0350007
-0.882672
0.888796
0.0416168
-0.0471052
-1.02019
1.02568
0.0528493
-0.0569763
-1.17391
1.17803
0.0607376
-0.0629673
-1.34352
1.34575
0.0637657
-0.0624328
-1.5291
1.52777
0.059431
-0.0548949
-1.45155
1.44702
0.0497203
-0.0433605
-1.15839
1.15203
0.0374467
-0.0310943
-0.931464
0.925112
0.0251987
-0.0191558
-0.753657
0.747614
0.0137058
-0.00838134
-0.612521
0.607197
0.00404312
-3.14645e-05
-0.499293
0.495281
-0.00285229
0.00520385
-0.405266
0.402914
-0.00643791
0.00597236
-0.308059
0.308525
-0.00463685
0.00273087
-0.173717
0.175623
-0.00116898
-0.0292478
0.0304168
-0.0874922
0.0845061
0.00298611
-0.0103058
0.0111767
-0.444368
0.443497
-0.00906046
0.00537046
-0.566048
0.569738
-0.000446601
-0.00470544
-0.664462
0.669614
0.0102886
-0.0156931
-0.772585
0.777989
0.0215119
-0.0267587
-0.89456
0.899807
0.0323985
-0.0372778
-1.03107
1.03595
0.0421687
-0.0460513
-1.18213
1.18601
0.0494213
-0.0514635
-1.34782
1.34986
0.0522904
-0.0512478
-1.52657
1.52553
0.0487929
-0.0448542
-1.44227
1.43833
0.0405237
-0.0353422
-1.14611
1.14093
0.0304406
-0.0250877
-0.918987
0.913634
0.0203377
-0.0153912
-0.741802
0.736855
0.0111473
-0.00692846
-0.601957
0.597738
0.00360725
-0.000593855
-0.49033
0.487317
-0.00169281
0.00341761
-0.398269
0.396544
-0.00415255
0.00405138
-0.304381
0.304482
-0.00332386
0.00192487
-0.173093
0.174492
-0.000909835
-0.0295316
0.0304414
-0.0853528
0.0829615
0.00239125
-0.00902618
0.00998927
-0.448055
0.447092
-0.00885568
0.0057478
-0.574227
0.577335
-0.00124136
-0.00302214
-0.674234
0.678498
0.00771899
-0.0123227
-0.782856
0.78746
0.0173962
-0.0220205
-0.904786
0.90941
0.0271339
-0.0313933
-1.04059
1.04485
0.0358396
-0.0394317
-1.1897
1.19329
0.0425701
-0.0445399
-1.35182
1.35379
0.045436
-0.0449872
-1.52463
1.52419
0.0429169
-0.0396902
-1.43428
1.43106
0.0359301
-0.0314229
-1.13589
1.13138
0.027382
-0.0226451
-0.908476
0.90374
0.0185047
-0.0143408
-0.732095
0.727931
0.0107061
-0.00707872
-0.593607
0.58998
0.00416435
-0.00133738
-0.483388
0.480561
-0.00049569
0.0020063
-0.3927
0.39119
-0.0029671
0.00301803
-0.300698
0.300647
-0.00248897
0.00152424
-0.171741
0.172706
-0.000730543
-0.029421
0.0301515
-0.0839409
0.0821491
0.00179179
-0.0072945
0.00832608
-0.450715
0.449683
-0.00728004
0.00488477
-0.581342
0.583738
-0.00093862
-0.00278956
-0.682546
0.686274
0.00715843
-0.0110348
-0.791858
0.795735
0.015411
-0.0194523
-0.914066
0.918107
0.0242608
-0.0281199
-1.04917
1.05303
0.0320996
-0.0355614
-1.19677
1.20023
0.0389519
-0.040927
-1.35589
1.35786
0.0420976
-0.0418439
-1.52354
1.52328
0.0404263
-0.0374223
-1.42781
1.42481
0.0342487
-0.0303615
-1.1269
1.12301
0.0266237
-0.0225136
-0.899194
0.895084
0.018724
-0.0147547
-0.723642
0.719673
0.0116348
-0.00819855
-0.586218
0.582782
0.00535449
-0.00282031
-0.477095
0.474561
0.000898863
0.000782661
-0.387844
0.386162
-0.00172149
0.00198003
-0.297304
0.297045
-0.00172556
0.00112667
-0.170065
0.170664
-0.000583513
-0.0290909
0.0296744
-0.0832415
0.0818583
0.0013832
-0.0056754
0.00666714
-0.452822
0.45183
-0.00559925
0.00337212
-0.587401
0.589628
8.8596e-05
-0.00331398
-0.689833
0.693059
0.00695061
-0.0106185
-0.799693
0.80336
0.0145799
-0.0186998
-0.922015
0.926135
0.0227769
-0.0264456
-1.05702
1.06068
0.0305485
-0.0338156
-1.20363
1.2069
0.0368232
-0.0392947
-1.35983
1.3623
0.0407954
-0.0409785
-1.52321
1.52339
0.0398579
-0.0375049
-1.42209
1.41973
0.0346776
-0.0310952
-1.11889
1.11531
0.0276759
-0.0237778
-0.890893
0.886995
0.0201847
-0.0165312
-0.715767
0.712114
0.0132279
-0.00994471
-0.57918
0.575897
0.00724242
-0.00451113
-0.471354
0.468622
0.00242295
-0.000857548
-0.382945
0.38138
-0.000272633
0.000878661
-0.29379
0.293184
-0.00100578
0.000752193
-0.168097
0.16835
-0.000462739
-0.0286052
0.029068
-0.083172
0.0819994
0.00117259
-0.00409061
0.00473798
-0.45483
0.454182
-0.00383366
0.00173738
-0.592797
0.594893
0.00124428
-0.00425638
-0.696416
0.699428
0.00765498
-0.0108922
-0.80693
0.810167
0.0149161
-0.0182497
-0.92975
0.933084
0.0222675
-0.0257457
-1.06454
1.06802
0.0297369
-0.0332056
-1.21021
1.21368
0.0365365
-0.0388741
-1.36462
1.36696
0.0408098
-0.0414836
-1.52358
1.52426
0.0410511
-0.0389998
-1.41732
1.41527
0.0365251
-0.0331826
-1.11181
1.10846
0.0299476
-0.0261019
-0.882862
0.879016
0.0226536
-0.0188952
-0.708205
0.704446
0.0155839
-0.0121827
-0.572378
0.568977
0.0092763
-0.0066194
-0.465417
0.46276
0.00432323
-0.00250493
-0.378023
0.376204
0.00106889
-0.000202635
-0.290001
0.289135
-0.000224966
0.000447758
-0.165693
0.16547
-0.000343038
-0.0279287
0.0282717
-0.0833813
0.0825087
0.000872606
-0.00286015
0.00295727
-0.457055
0.456958
-0.00223073
0.00023315
-0.597352
0.59935
0.00229838
-0.00511184
-0.702345
0.705159
0.00828021
-0.0115858
-0.81335
0.816656
0.0149783
-0.0184262
-0.936639
0.940087
0.0223735
-0.0256312
-1.07194
1.07519
0.0296994
-0.0331327
-1.21702
1.22045
0.0365599
-0.0394609
-1.36978
1.37268
0.0419488
-0.0430004
-1.52505
1.5261
0.0428805
-0.0415211
-1.41342
1.41206
0.0394866
-0.0363183
-1.10496
1.10179
0.0330963
-0.029468
-0.875024
0.871396
0.0256617
-0.0219673
-0.700387
0.696693
0.018558
-0.0149393
-0.565522
0.561903
0.0120132
-0.00902283
-0.459297
0.456307
0.00658787
-0.00429943
-0.373053
0.370764
0.00269691
-0.00146102
-0.285883
0.284647
0.000535404
9.16242e-05
-0.162835
0.162208
-0.000250171
-0.0270179
0.0272681
-0.0839377
0.0831896
0.000748063
-0.00195015
0.00203581
-0.459511
0.459425
-0.000782482
-0.000856568
-0.601852
0.603491
0.0034256
-0.00604425
-0.70766
0.710279
0.00900926
-0.0118925
-0.819706
0.822589
0.0153511
-0.018457
-0.943548
0.946654
0.0223103
-0.0259503
-1.07891
1.08255
0.0296586
-0.0334117
-1.22399
1.22775
0.0372696
-0.0403208
-1.37559
1.37864
0.0432718
-0.045179
-1.52747
1.52938
0.0455829
-0.044886
-1.41062
1.40992
0.0430308
-0.0401744
-1.09863
1.09577
0.0371466
-0.0333981
-0.867311
0.863562
0.0296647
-0.0257484
-0.692438
0.688522
0.0221747
-0.0182792
-0.558043
0.554148
0.015021
-0.0118352
-0.452806
0.44962
0.00897794
-0.00638771
-0.367465
0.364875
0.00441211
-0.00274008
-0.281221
0.279549
0.00146682
-0.000378523
-0.159496
0.158407
-0.000108997
-0.0259344
0.0260434
-0.0846775
0.0840668
0.000610758
-0.00102524
0.000888813
-0.462077
0.462213
0.000168291
-0.00191887
-0.605825
0.607575
0.00431004
-0.00671516
-0.712614
0.715019
0.00970169
-0.0123969
-0.825483
0.828178
0.0156579
-0.0188304
-0.95021
0.953383
0.0225395
-0.0261026
-1.08606
1.08962
0.0299901
-0.0337649
-1.23147
1.23525
0.0378311
-0.0416633
-1.38209
1.38592
0.0451462
-0.0474801
-1.5314
1.53373
0.0486954
-0.0484264
-1.40919
1.40892
0.0471586
-0.0447814
-1.09286
1.09048
0.0417055
-0.0379681
-0.859496
0.855759
0.0341716
-0.0299435