/*--------------------------------*- C++ -*----------------------------------*\
  =========                 |
  \\      /  F ield         | OpenFOAM: The Open Source CFD Toolbox
   \\    /   O peration     | Website:  https://openfoam.org
    \\  /    A nd           | Version:  6
     \\/     M anipulation  |
\*---------------------------------------------------------------------------*/
FoamFile
{
    version     2.0;
    format      ascii;
    class       surfaceScalarField;
    location    "116.6";
    object      phi;
}
// * * * * * * * * * * * * * * * * * * * * * * * * * * * * * * * * * * * * * //

dimensions      [0 3 -1 0 0 0 0];

internalField   nonuniform List<scalar> 
17370
(
-0.0899999
0.089849
0.289162
-0.0714624
0.0537526
0.364485
-0.0381197
0.0276907
0.426597
-0.0196395
0.0146073
0.504284
-0.0107666
0.0082775
0.601891
-0.00627899
0.004903
0.720433
-0.00373884
0.0028975
0.863748
-0.00215483
0.00159463
1.03601
-0.00107695
0.00066343
1.24292
-0.000254513
-0.00014557
1.49159
0.000526517
-0.000937265
1.4916
0.00133107
-0.00181053
1.24317
0.00233098
-0.00303552
1.03634
0.00385173
-0.00499867
0.864053
0.00636628
-0.00836022
0.721051
0.0108461
-0.0146827
0.603051
0.0197098
-0.0277541
0.507484
0.0381754
-0.0537998
0.431793
0.0715014
-0.0898755
0.36515
0.0900165
0.198994
-0.128139
0.0882316
0.0399076
-0.364602
0.353384
-0.0746664
0.0858836
-0.446478
0.454324
-0.0843786
0.0765324
-0.521193
0.529905
-0.0684342
0.0597219
-0.612792
0.621572
-0.0515324
0.0427525
-0.726897
0.734168
-0.0352912
0.0280205
-0.867477
0.872597
-0.0224173
0.0172978
-1.03848
1.04193
-0.0134835
0.0100288
-1.2446
1.24704
-0.00741398
0.00497687
-1.49262
1.49461
-0.00302384
0.00103544
-1.49251
1.49423
0.000636674
-0.00236222
-1.24397
1.24585
0.00427312
-0.00615384
-1.03751
1.04002
0.00849316
-0.0110066
-0.866096
0.869826
0.0143551
-0.0180853
-0.724388
0.72993
0.0231268
-0.0286692
-0.608695
0.616107
0.0358818
-0.0432937
-0.514894
0.523037
0.0520221
-0.0601646
-0.439854
0.447911
0.0688253
-0.0768822
-0.375293
0.376735
0.0846751
-0.0861175
-0.257327
0.222471
0.0748246
-0.0399681
-0.0685285
0.0587058
0.00982272
-0.0517912
0.0583675
-0.374137
0.367561
-0.0574465
0.0536904
-0.453602
0.457358
-0.0485977
0.0446426
-0.527956
0.531911
-0.0407999
0.037158
-0.621574
0.625216
-0.033052
0.0289707
-0.73536
0.739441
-0.0243924
0.0202248
-0.874351
0.878519
-0.0158695
0.0121673
-1.0435
1.0472
-0.00842133
0.00524171
-1.24857
1.25175
-0.00190721
-0.00117275
-1.49666
1.49974
0.00422627
-0.00749496
-1.4972
1.50047
0.0105671
-0.0141514
-1.25006
1.25365
0.01769
-0.021871
-1.04591
1.05009
0.0258948
-0.0303322
-0.877747
0.882185
0.0342987
-0.038291
-0.739888
0.74388
0.0418364
-0.0455799
-0.626762
0.630506
0.0494496
-0.0544608
-0.534801
0.539812
0.0581248
-0.0589305
-0.457465
0.458271
0.052216
-0.0320022
-0.335735
0.315521
0.00989159
-0.0683332
0.0584416
-0.0529596
0.0489689
0.00399075
-0.0331286
0.0436592
-0.358139
0.347609
-0.0473461
0.0467109
-0.459305
0.45994
-0.0436485
0.0402906
-0.535823
0.539181
-0.0365124
0.0332027
-0.628552
0.631862
-0.0297572
0.0267163
-0.742674
0.745715
-0.0234455
0.0203268
-0.882045
0.885164
-0.016783
0.0133919
-1.0508
1.05419
-0.00958674
0.00603847
-1.25519
1.25874
-0.00205951
-0.00174643
-1.50325
1.50706
0.00551961
-0.00939544
-1.50412
1.508
0.0127919
-0.0163761
-1.2574
1.26099
0.0195426
-0.0228428
-1.05389
1.05719
0.0257553
-0.0288195
-0.885659
0.888723
0.0316898
-0.0349654
-0.747129
0.750405
0.038132
-0.0417654
-0.63428
0.637914
0.0449993
-0.047919
-0.544113
0.547032
0.048402
-0.0445001
-0.456544
0.452642
0.033711
-0.0162399
-0.296137
0.278666
0.00407711
-0.0526165
0.0485394
-0.0458974
0.0434082
0.00248918
-0.022761
0.0331166
-0.33694
0.326584
-0.0389179
0.0399219
-0.459637
0.458633
-0.0387207
0.0364265
-0.541911
0.544206
-0.0337511
0.0311466
-0.634927
0.637531
-0.0280721
0.0251599
-0.748772
0.751685
-0.0218785
0.0188685
-0.888128
0.891138
-0.0155453
0.0124301
-1.05733
1.06045
-0.00888818
0.00546642
-1.2622
1.26563
-0.00149087
-0.0024038
-1.51094
1.51483
0.0062541
-0.0100913
-1.51188
1.51572
0.0133123
-0.0165659
-1.26443
1.26768
0.0193884
-0.022392
-1.06028
1.06328
0.0251274
-0.0281299
-0.891754
0.894756
0.0308088
-0.0336492
-0.753596
0.756437
0.0360564
-0.0385353
-0.640966
0.643445
0.0406615
-0.0416389
-0.548821
0.549798
0.0403986
-0.0342497
-0.447339
0.441191
0.0235117
-0.0102624
-0.263418
0.250169
0.00259623
-0.0453687
0.0427725
-0.0413411
0.039582
0.00175911
-0.0166873
0.0259055
-0.316762
0.307544
-0.0324798
0.0345988
-0.457055
0.454936
-0.0341617
0.0324795
-0.546199
0.547881
-0.0302878
0.0281811
-0.639854
0.641961
-0.0257342
0.0233193
-0.754345
0.75676
-0.0204385
0.0176275
-0.894048
0.896859
-0.0143671
0.0112767
-1.06351
1.0666
-0.00776489
0.00442159
-1.26896
1.2723
-0.000572318
-0.00317426
-1.51862
1.52237
0.00686392
-0.0105361
-1.51944
1.52311
0.0136232
-0.016769
-1.27094
1.27408
0.0194879
-0.0223401
-1.06629
1.06914
0.024797
-0.0273158
-0.897542
0.900061
0.0294276
-0.031571
-0.758867
0.76101
0.0334242
-0.0353618
-0.645581
0.647518
0.0367986
-0.036931
-0.550294
0.550426
0.034448
-0.0273623
-0.434488
0.427403
0.0176267
-0.00744101
-0.238599
0.228413
0.00189012
-0.0405837
0.0386936
-0.0380698
0.0367506
0.00131927
-0.0127104
0.0206114
-0.298992
0.291091
-0.0273159
0.0302062
-0.452407
0.449517
-0.0303862
0.0292473
-0.549334
0.550473
-0.0272396
0.0253069
-0.644019
0.645952
-0.0230853
0.0209241
-0.75902
0.761181
-0.018379
0.0158662
-0.899452
0.901965
-0.0128912
0.00998254
-1.06956
1.07246
-0.00659033
0.00332419
-1.27558
1.27884
0.000446077
-0.0040928
-1.52602
1.52967
0.00766795
-0.011215
-1.52669
1.53024
0.01416
-0.0170957
-1.27722
1.28016
0.0195415
-0.0220068
-1.07185
1.07432
0.0240751
-0.0261636
-0.902312
0.904401
0.0279408
-0.0297766
-0.762969
0.764805
0.0313884
-0.0330859
-0.649317
0.651014
0.0338659
-0.0332578
-0.550185
0.549577
0.0298445
-0.022437
-0.420095
0.412687
0.0138692
-0.00578592
-0.219377
0.211294
0.00147884
-0.0370331
0.0355543
-0.0356019
0.0345898
0.00101201
-0.00989468
0.0165512
-0.283842
0.277185
-0.0229714
0.0262977
-0.446396
0.44307
-0.0270425
0.0263172
-0.551409
0.552135
-0.0245362
0.0227304
-0.647876
0.649681
-0.0206312
0.0185826
-0.76328
0.765328
-0.0161707
0.0138044
-0.904329
0.906695
-0.0110222
0.00829813
-1.07521
1.07793
-0.00509986
0.00198118
-1.28199
1.28511
0.00166087
-0.00519806
-1.53323
1.53676
0.00864621
-0.0120106
-1.53366
1.53703
0.0147318
-0.0173678
-1.28303
1.28567
0.019523
-0.0216776
-1.07666
1.07882
0.023494
-0.025339
-0.906335
0.90818
0.0269105
-0.0285306
-0.766522
0.768142
0.0299377
-0.0312858
-0.652567
0.653915
0.0315657
-0.0302116
-0.548601
0.547247
0.0261619
-0.0188134
-0.405278
0.397929
0.0113169
-0.00469424
-0.204007
0.197384
0.00120626
-0.0342254
0.0330192
-0.0337058
0.0329232
0.000782665
-0.007799
0.0133676
-0.271106
0.265538
-0.0192824
0.0227872
-0.439653
0.436148
-0.0239933
0.0235066
-0.552788
0.553275
-0.0219843
0.0202812
-0.651499
0.653203
-0.0182681
0.0162958
-0.767331
0.769303
-0.013965
0.0116762
-0.908948
0.911237
-0.00898659
0.00636345
-1.08053
1.08315
-0.00329687
0.000313447
-1.28811
1.29109
0.00316504
-0.00653462
-1.54018
1.54355
0.00979483
-0.0129327
-1.54024
1.54337
0.0154296
-0.0178103
-1.28827
1.29065
0.0197401
-0.0216626
-1.08091
1.08283
0.0232761
-0.0249088
-0.909892
0.911525
0.0262941
-0.027717
-0.76965
0.771073
0.0289205
-0.0298758
-0.655066
0.656021
0.029774
-0.0277352
-0.545537
0.543498
0.0232615
-0.0161531
-0.390689
0.383581
0.0095393
-0.00394505
-0.191322
0.185728
0.00101889
-0.0319164
0.0308975
-0.0322413
0.0316376
0.000603663
-0.00617291
0.0108083
-0.260469
0.255834
-0.0161104
0.0195944
-0.432664
0.42918
-0.0211048
0.0208329
-0.553709
0.553981
-0.0195314
0.017881
-0.654943
0.656594
-0.0159137
0.0139801
-0.771242
0.773175
-0.0116956
0.00945349
-0.913416
0.915658
-0.00681949
0.00425521
-1.08566
1.08822
-0.00126729
-0.00162103
-1.29397
1.29686
0.00495908
-0.00816095
-1.54677
1.54998
0.0112293
-0.014152
-1.54635
1.54927
0.0164478
-0.0186028
-1.29304
1.29519
0.0203262
-0.0220282
-1.08471
1.08641
0.023446
-0.024875
-0.913022
0.91445
0.0260876
-0.0273297
-0.77239
0.773632
0.0283883
-0.0289168
-0.656771
0.657299
0.0284129
-0.0257867
-0.541156
0.53853
0.0210366
-0.0142254
-0.376623
0.369812
0.00829809
-0.00342921
-0.18053
0.175661
0.000890654
-0.0299502
0.0290596
-0.0311175
0.0306601
0.000457394
-0.00485462
0.00868081
-0.251636
0.24781
-0.0133238
0.0166361
-0.425804
0.422491
-0.0183081
0.0182129
-0.55423
0.554325
-0.0170916
0.0154674
-0.658314
0.659938
-0.0135099
0.0115781
-0.775087
0.777018
-0.00929707
0.00706515
-0.917794
0.920026
-0.00445304
0.00192034
-1.09068
1.09321
0.00101721
-0.00383886
-1.29965
1.30247
0.00707205
-0.0101394
-1.55305
1.55611
0.0130445
-0.0157733
-1.55203
1.55476
0.0178761
-0.019806
-1.29737
1.2993
0.0213227
-0.0228074
-1.08808
1.08956
0.024039
-0.0252803
-0.915745
0.916986
0.0263378
-0.0274161
-0.774771
0.775849
0.0282603
-0.028416
-0.657626
0.657782
0.0274765
-0.0243357
-0.53564
0.532499
0.0193966
-0.0128649
-0.363152
0.356621
0.00744776
-0.00308259
-0.171072
0.166707
0.00080615
-0.0282178
0.0274117
-0.0302749
0.0299426
0.000332345
-0.00374037
0.0068507
-0.244373
0.241263
-0.0108202
0.0138482
-0.419353
0.416325
-0.0155519
0.0155935
-0.554433
0.554391
-0.0145405
0.0129746
-0.661627
0.663193
-0.010996
0.00903078
-0.778937
0.780902
-0.0067119
0.00445193
-0.922158
0.924418
-0.00182073
-0.000715436
-1.09565
1.09818
0.00363736
-0.0064223
-1.3052
1.30798
0.00958342
-0.0125462
-1.55906
1.56202
0.0153125
-0.0178633
-1.55733
1.55988
0.0197792
-0.0214858
-1.30128
1.30299
0.0227987
-0.0240715
-1.09102
1.0923
0.0251226
-0.0261824
-0.91809
0.91915
0.0270919
-0.0280094
-0.77681
0.777728
0.0285896
-0.0284349
-0.657784
0.657629
0.0270086
-0.0233814
-0.529117
0.525489
0.0182853
-0.0119673
-0.350214
0.343896
0.00690244
-0.00286743
-0.162531
0.158496
0.000756016
-0.0266365
0.0258805
-0.0296756
0.0294563
0.000219381
-0.0027533
0.00521223
-0.238509
0.23605
-0.00850544
0.0111636
-0.413521
0.410863
-0.0127822
0.0128843
-0.554415
0.554313
-0.0118581
0.0103173
-0.66485
0.666391
-0.00829098
0.00626019
-0.782857
0.784888
-0.00386449
0.0015387
-0.92658
0.928906
0.00115516
-0.0037352
-1.10063
1.10321
0.00668493
-0.00946995
-1.31069
1.31347
0.0125943
-0.0154795
-1.56486
1.56775
0.0181279
-0.0205166
-1.56226
1.56465
0.0222543
-0.0237413
-1.30477
1.30626
0.0248506
-0.0259095
-1.09356
1.09462
0.0267744
-0.0276415
-0.920068
0.920935
0.0283875
-0.0291347
-0.778467
0.779214
0.029423
-0.0289129
-0.657346
0.656835
0.0270126
-0.0229176
-0.521649
0.517554
0.017656
-0.0114571
-0.337661
0.331462
0.00660264
-0.00275674
-0.154577
0.150731
0.000733081
-0.0251414
0.0244083
-0.0292993
0.0291886
0.000110707
-0.00182861
0.00367101
-0.233929
0.232087
-0.00627956
0.0084951
-0.408475
0.406259
-0.00991856
0.0100003
-0.554341
0.554259
-0.00896357
0.00740544
-0.668062
0.66962
-0.00529896
0.0031685
-0.786909
0.78904
-0.000655567
-0.00177451
-0.931135
0.933565
0.00457467
-0.00723919
-1.1057
1.10837
0.0102608
-0.0130839
-1.31619
1.31901
0.0162081
-0.0190432
-1.57052
1.57335
0.0215935
-0.0238337
-1.56686
1.5691
0.0253988
-0.02667
-1.30786
1.30913
0.0275768
-0.0284175
-1.09567
1.09651
0.0290874
-0.0297539
-0.921656
0.922322
0.0303423
-0.0309365
-0.779776
0.78037
0.0308514
-0.0299154
-0.656153
0.655217
0.0275106
-0.0229331
-0.513252
0.508674
0.0174648
-0.0112761
-0.325296
0.319108
0.00650512
-0.00273125
-0.146941
0.143167
0.000732312
-0.0236809
0.0229486
-0.0291408
0.0291391
1.70077e-06
-0.000916774
0.0021529
-0.230575
0.229339
-0.00405848
0.00576514
-0.404354
0.402647
-0.00688929
0.00686734
-0.554379
0.554401
-0.00576983
0.00415061
-0.67135
0.672969
-0.00192024
-0.000347904
-0.79116
0.793428
0.00302296
-0.0056002
-0.935899
0.938476
0.00855499
-0.0113484
-1.11096
1.11375
0.0144895
-0.0173917
-1.32177
1.32467
0.0205561
-0.0233719
-1.57607
1.57889
0.0258455
-0.0279502
-1.57114
1.57325
0.0293497
-0.0304089
-1.31053
1.31159
0.0311131
-0.0317322
-1.09736
1.09798
0.0322007
-0.0326517
-0.922836
0.923287
0.0330477
-0.0333572
-0.780687
0.780996
0.0329632
-0.0315181
-0.654102
0.652657
0.0285654
-0.0234555
-0.503875
0.498765
0.0177048
-0.0113996
-0.312892
0.306587
0.00658935
-0.00278146
-0.139396
0.135588
0.000751169
-0.0222122
0.021461
-0.0292037
0.0293183
-0.000114634
2.9324e-05
0.00058945
-0.228434
0.227815
-0.00175802
0.00288845
-0.40129
0.40016
-0.00361187
0.00340058
-0.55471
0.554921
-0.00218094
0.000439666
-0.674809
0.676551
0.00195724
-0.00440895
-0.795684
0.798136
0.00729821
-0.0100712
-0.940959
0.943732
0.0132348
-0.0162063
-1.11648
1.11945
0.0195189
-0.0225441
-1.32753
1.33055
0.025791
-0.0286189
-1.58159
1.58442
0.0310381
-0.03302
-1.57513
1.57712
0.034261
-0.035108
-1.31279
1.31363
0.0356013
-0.0359868
-1.09859
1.09897
0.0362452
-0.0364733
-0.92358
0.923808
0.0366581
-0.0366138
-0.781013
0.780969
0.0358565
-0.0338146
-0.651008
0.648966
0.0302386
-0.0245097
-0.493403
0.487674
0.0183718
-0.0118095
-0.30019
0.293627
0.00683919
-0.00289902
-0.131734
0.127794
0.000787063
-0.0206971
0.0199101
-0.0295032
0.0297572
-0.000253942
0.00102423
-0.00108462
-0.227541
0.227602
0.000710837
-0.00022924
-0.399425
0.398944
8.32169e-06
-0.000505695
-0.555525
0.556023
0.00191708
-0.0038439
-0.678564
0.680491
0.00647015
-0.00915974
-0.800571
0.80326
0.0123235
-0.0153486
-0.946414
0.94944
0.0187834
-0.021989
-1.12237
1.12557
0.0255313
-0.0287273
-1.33354
1.33673
0.0321001
-0.0349679
-1.58714
1.59
0.0373457
-0.0392154
-1.57885
1.58072
0.0403081
-0.040941
-1.3146
1.31523
0.0412095
-0.0413416
-1.09933
1.09947
0.0413694
-0.0413591
-0.923859
0.923849
0.0413545
-0.0408432
-0.780628
0.780117
0.0396387
-0.0368947
-0.646708
0.643964
0.0325911
-0.0261199
-0.481644
0.475173
0.0194626
-0.0124894
-0.286898
0.279925
0.00723925
-0.00307533
-0.123762
0.119598
0.000837129
-0.0191029
0.0182658
-0.030081
0.0304785
-0.000397441
0.0021374
-0.00285607
-0.227969
0.228688
0.00336865
-0.00366112
-0.398907
0.399199
0.00409939
-0.00498343
-0.557057
0.557941
0.00665907
-0.00884465
-0.682746
0.684931
0.0117771
-0.0147728
-0.805928
0.808924
0.0182838
-0.0216274
-0.952381
0.955725
0.0254052
-0.0289081
-1.12874
1.13224
0.0327439
-0.0361616
-1.3399
1.34332
0.0397047
-0.0426391
-1.59276
1.5957
0.0449845
-0.0467359
-1.58229
1.58405
0.047667
-0.0480917
-1.31597
1.31639
0.0481274
-0.0479908
-1.09956
1.09942
0.0477752
-0.0475095
-0.923624
0.923358
0.0472472
-0.0462213
-0.77935
0.778324
0.0444639
-0.0408738
-0.640989
0.637398
0.0356947
-0.0283119
-0.468331
0.460948
0.0209734
-0.013422
-0.272706
0.265154
0.00777278
-0.00330064
-0.115299
0.110827
0.000898034
-0.0174027
0.0165047
-0.0309679
0.0315468
-0.000578912
0.0034196
-0.00493691
-0.229832
0.231349
0.0063791
-0.00751223
-0.399932
0.401065
0.00873037
-0.0101435
-0.559522
0.560935
0.0122279
-0.0147579
-0.687497
0.690027
0.0180875
-0.0214686
-0.811891
0.815272
0.0254123
-0.029152
-0.958997
0.962736
0.0333556
-0.0372257
-1.13572
1.13959
0.0414229
-0.0451126
-1.34672
1.35041
0.0488658
-0.0518872
-1.59852
1.60154
0.0542061
-0.0558363
-1.58545
1.58708
0.056606
-0.0567994
-1.31686
1.31706
0.0565765
-0.0561537
-1.09922
1.0988
0.0556868
-0.0551401
-0.922846
0.922299
0.0544734
-0.052948
-0.777136
0.77561
0.0504678
-0.0458485
-0.633544
0.628925
0.0396028
-0.0310925
-0.453105
0.444595
0.0228828
-0.0145757
-0.257272
0.248964
0.0084128
-0.00355998
-0.106182
0.101329
0.000964762
-0.0155772
0.0146125
-0.0322304
0.0330439
-0.000813471
0.00500268
-0.00743729
-0.233337
0.235771
0.00996257
-0.0120419
-0.402714
0.404793
0.0141618
-0.0162279
-0.563178
0.565244
0.0188575
-0.0218341
-0.692999
0.695976
0.0256766
-0.029537
-0.818627
0.822487
0.0340162
-0.0382432
-0.966421
0.970648
0.0429655
-0.0472781
-1.14345
1.14776
0.0519039
-0.0559099
-1.35408
1.35809
0.0598995
-0.0630103
-1.60443
1.60754
0.065287
-0.0667759
-1.58829
1.58978
0.0673759
-0.0672888
-1.3172
1.31712
0.0667909
-0.0660543
-1.09829
1.09755
0.0653226
-0.064516
-0.921471
0.920664
0.0633229
-0.0611873
-0.77398
0.771845
0.0578136
-0.051908
-0.623975
0.61807
0.0443388
-0.0344295
-0.43551
0.4256
0.0251327
-0.0158903
-0.240238
0.230995
0.00911374
-0.00382977
-0.0962753
0.0909913
0.00102981
-0.0136179
0.0125881
-0.0339653
0.0350869
-0.00112158
0.00699698
-0.0105422
-0.238719
0.242264
0.0143446
-0.0175084
-0.407552
0.410715
0.0206643
-0.0235143
-0.568315
0.571165
0.0268486
-0.0304008
-0.699481
0.703033
0.0349094
-0.0393696
-0.826331
0.830791
0.0445075
-0.0493246
-0.974841
0.979658
0.0546647
-0.0594922
-1.15208
1.15691
0.0646016
-0.0689478
-1.36208
1.36642
0.07317
-0.0763405
-1.6105
1.61367
0.0785329
-0.079829
-1.59076
1.59206
0.0802202
-0.0798263
-1.31688
1.31648
0.0790287
-0.0779518
-1.0967
1.09562
0.076953
-0.075843
-0.919534
0.918424
0.0740865
-0.0711504
-0.769661
0.766725
0.0666228
-0.059072
-0.611749
0.604198
0.0498456
-0.0382121
-0.41498
0.403347
0.0275988
-0.0172594
-0.221252
0.210913
0.00980209
-0.00407474
-0.0854948
0.0797675
0.00108266
-0.011533
0.0104503
-0.0363085
0.0378529
-0.00154445
0.00961317
-0.0145388
-0.246334
0.25126
0.0198651
-0.0242912
-0.414816
0.419242
0.0286337
-0.0324217
-0.575264
0.579052
0.0366423
-0.040959
-0.70722
0.711536
0.0463036
-0.0515154
-0.835248
0.84046
0.0574573
-0.0629749
-0.984466
0.989983
0.0690252
-0.0744196
-1.16174
1.16714
0.0800305
-0.084697
-1.37073
1.37539
0.0890926
-0.0922408
-1.61663
1.61978
0.0942591
-0.0952744
-1.59274
1.59376
0.0953868
-0.0946866
-1.31583
1.31513
0.093515
-0.0920908
-1.09441
1.09298
0.0908247
-0.0892232
-0.916852
0.91525
0.0869451
-0.0829145
-0.763736
0.759705
0.0768929
-0.0672347
-0.596118
0.586459
0.0559347
-0.0422081
-0.390852
0.377125
0.0300593
-0.0185136
-0.200015
0.188469
0.01037
-0.00424683
-0.073843
0.0677199
0.00110994
-0.00935292
0.00824298
-0.0394706
0.0416279
-0.00215733
0.013221
-0.0199119
-0.25669
0.263381
0.0270707
-0.0329699
-0.424984
0.430884
0.0386867
-0.0436088
-0.584416
0.589338
0.0489355
-0.05424
-0.716607
0.721911
0.0606664
-0.0668064
-0.845675
0.851815
0.0736962
-0.0800012
-0.995511
1.00182
0.0868073
-0.0927617
-1.17252
1.17847
0.0988138
-0.103703
-1.37995
1.38484
0.108126
-0.111096
-1.62263
1.6256
0.112789
-0.113387
-1.59404
1.59464
0.113128
-0.112055
-1.31401
1.31294
0.110492
-0.108693
-1.09142
1.08962
0.107139
-0.10499
-0.913044
0.910895
0.102027
-0.0965097
-0.755578
0.75006
0.0884814
-0.0760899
-0.57611
0.563719
0.0622107
-0.0460093
-0.362392
0.346191
0.0321663
-0.0194136
-0.176355
0.163603
0.010677
-0.00428864
-0.0614541
0.0550657
0.00109699
-0.00713553
0.00603854
-0.0437952
0.0468987
-0.00310348
0.0184639
-0.0274637
-0.270542
0.279542
0.0368562
-0.0445379
-0.438747
0.446428
0.0519216
-0.0582082
-0.596275
0.602562
0.0649709
-0.0716365
-0.728075
0.734741
0.0793371
-0.0865128
-0.857943
0.865119
0.0944138
-0.101504
-1.00812
1.01521
0.108989
-0.11537
-1.18434
1.19072
0.121659
-0.126549
-1.38951
1.3944
0.130735
-0.133277
-1.62814
1.63068
0.13442
-0.134408
-1.59436
1.59435
0.133656
-0.132135
-1.31124
1.30972
0.130171
-0.127937
-1.08766
1.08542
0.12596
-0.123297
-0.907991
0.905328
0.119242
-0.111649
-0.744316
0.736724
0.100923
-0.0850159
-0.55044
0.534533
0.0679944
-0.048999
-0.32889
0.309895
0.0334456
-0.0196694
-0.150363
0.136587
0.0105704
-0.00414418
-0.048637
0.0422108
0.00103108
-0.00496652
0.00393544
-0.0498827
0.054589
-0.0047063
0.0266001
-0.0387151
-0.289081
0.301196
0.0509783
-0.061017
-0.457218
0.467257
0.070448
-0.0783796
-0.611419
0.619351
0.0869238
-0.0951422
-0.742169
0.750388
0.104251
-0.112459
-0.872259
0.880466
0.121238
-0.128893
-1.0222
1.02986
0.136729
-0.143189
-1.19684
1.2033
0.149303
-0.15381
-1.39886
1.40336
0.157344
-0.159106
-1.63261
1.63437
0.159398
-0.158526
-1.59328
1.59241
0.157116
-0.15504
-1.30728
1.3052
0.152614
-0.149851
-1.08302
1.08025
0.147433
-0.143995
-0.901488
0.898051
0.138343
-0.127728
-0.728639
0.718024
0.113332
-0.0929798
-0.517494
0.497142
0.0722861
-0.0503875
-0.289852
0.267954
0.0333664
-0.019008
-0.12255
0.108192
0.00992828
-0.00377692
-0.0358947
0.0297433
0.000904337
-0.0029516
0.00204727
-0.0588766
0.0669202
-0.0080436
0.0408635
-0.0575791
-0.314525
0.331241
0.0738875
-0.0870137
-0.481993
0.495119
0.0985644
-0.108137
-0.630379
0.639952
0.118472
-0.128141
-0.75908
0.768748
0.138351
-0.147108
-0.888398
0.897155
0.156123
-0.163708
-1.03713
1.04472
0.171213
-0.177123
-1.20919
1.2151
0.18242
-0.18596
-1.40714
1.41068
0.188286
-0.188799
-1.63528
1.63579
0.187854
-0.185828
-1.59032
1.58829
0.183561
-0.180802
-1.30186
1.29911
0.177818
-0.174456
-1.07727
1.07391
0.171411
-0.166672
-0.892789
0.88805
0.158505
-0.143476
-0.706461
0.691432
0.124081
-0.0984177
-0.47535
0.449686
0.0738757
-0.04946
-0.245373
0.220957
0.0315851
-0.0173392
-0.0940084
0.0797625
0.00874169
-0.00319226
-0.0238859
0.0183365
0.000715323
-0.00119887
0.000483543
-0.0743853
0.0789616
-0.00457635
0.0314982
-0.0461915
-0.350933
0.365627
0.0608836
-0.0729877
-0.514303
0.526408
0.0841614
-0.0949037
-0.653059
0.663801
0.107254
-0.118553
-0.777707
0.789006
0.131185
-0.142543
-0.904936
0.916294
0.154832
-0.165951
-1.05143
1.06255
0.177868
-0.188394
-1.22
1.23053
0.199324
-0.208561
-1.41315
1.42239
0.217578
-0.224493
-1.63518
1.64209
0.229379
-0.232999
-1.58483
1.58844
0.235257
-0.236946
-1.29468
1.29636
0.237751
-0.237319
-1.06995
1.06951
0.235861
-0.229892
-0.880308
0.874338
0.216662
-0.191772
-0.67476
0.649869
0.160123
-0.120933
-0.422422
0.383233
0.0864952
-0.0547638
-0.196667
0.164936
0.0333254
-0.017414
-0.0664438
0.0505324
0.00832105
-0.00281829
-0.0132875
0.00778475
0.000550878
0.000244694
-0.000795572
-0.0868927
0.0850589
0.0018338
0.00915777
-0.0189758
-0.383358
0.393176
0.0303387
-0.0392756
-0.543588
0.552524
0.0484809
-0.0576372
-0.677265
0.686422
0.06894
-0.0795445
-0.799754
0.810359
0.0910117
-0.101577
-0.927119
0.937685
0.113
-0.12301
-1.07346
1.08347
0.133968
-0.143323
-1.24095
1.25031
0.153087
-0.161184
-1.43147
1.43957
0.168822
-0.174666
-1.64853
1.65438
0.178657
-0.181458
-1.59122
1.59402
0.182877
-0.183969
-1.29618
1.29727
0.184376
-0.183495
-1.06756
1.06668
0.180453
-0.171638
-0.862856
0.854041
0.155953
-0.13079
-0.620225
0.595062
0.10282
-0.0721551
-0.341658
0.310993
0.0483786
-0.0288537
-0.1347
0.115175
0.0166555
-0.00823828
-0.0360437
0.0276266
0.00369211
-0.00114406
-0.00262438
7.6328e-05
0.000172183
0.00152406
-0.00169624
-0.0888059
0.0858382
0.00296769
-0.000197734
-0.00570776
-0.405808
0.411713
0.0134243
-0.0202258
-0.565765
0.572566
0.0273527
-0.0352779
-0.698067
0.705993
0.0451563
-0.0544222
-0.819862
0.829128
0.0646779
-0.0739918
-0.947467
0.956781
0.0838534
-0.0929318
-1.09338
1.10246
0.102705
-0.111209
-1.25934
1.26784
0.119713
-0.126713
-1.44719
1.45419
0.133529
-0.138525
-1.65987
1.66486
0.141752
-0.143847
-1.59616
1.59826
0.144701
-0.145388
-1.29661
1.29729
0.145226
-0.143883
-1.06304
1.06169
0.139652
-0.129234
-0.841078
0.83066
0.113051
-0.0896378
-0.566369
0.542956
0.0664878
-0.0438769
-0.278549
0.255938
0.0283096
-0.0164889
-0.0962433
0.0844226
0.00938669
-0.00461564
-0.0194957
0.0147246
0.00206236
-0.000634601
0.00262185
-0.00404961
9.51683e-05
0.00206154
-0.00215671
-0.0877014
0.084846
0.00285541
-0.00436796
0.00118643
-0.421211
0.424392
0.00398752
-0.00926919
-0.582729
0.588011
0.015412
-0.02212
-0.715309
0.722017
0.0306284
-0.03864
-0.837621
0.845633
0.0474907
-0.0555696
-0.965547
0.973626
0.0645422
-0.0723977
-1.11112
1.11897
0.0810815
-0.08822
-1.27599
1.28313
0.0957777
-0.101986
-1.46109
1.4673
0.10783
-0.111859
-1.66968
1.67371
0.114648
-0.116416
-1.59984
1.60161
0.116969
-0.116876
-1.29647
1.29638
0.116307
-0.114427
-1.05695
1.05507
0.109327
-0.0986627
-0.816531
0.805867
0.0831568
-0.0629799
-0.516842
0.496665
0.0448977
-0.0288823
-0.232312
0.216297
0.0184632
-0.0107994
-0.0721406
0.0644767
0.00620694
-0.00310521
-0.00962008
0.00651835
0.00142617
-0.000456441
0.00572652
-0.00669625
7.44155e-05
0.00237617
-0.00245059
-0.0862606
0.0836603
0.00260036
-0.00601591
0.00455897
-0.431805
0.433262
-0.000593484
-0.00345544
-0.596495
0.600544
0.00845165
-0.014497
-0.729894
0.73594
0.0216711
-0.0287164
-0.852833
0.859879
0.0364153
-0.043474
-0.981234
0.988293
0.0512431
-0.0582554
-1.12669
1.13371
0.0657367
-0.0722588
-1.29015
1.29667
0.0788814
-0.0842965
-1.47319
1.47861
0.089343
-0.0927421
-1.67775
1.68115
0.0950408
-0.0962251
-1.60272
1.60391
0.0964896
-0.0961662
-1.29532
1.29499
0.095183
-0.0926805
-1.04975
1.04725
0.0873867
-0.0768666
-0.791657
0.781137
0.0629948
-0.0461094
-0.474258
0.457372
0.0322371
-0.0206694
-0.198976
0.187408
0.013274
-0.00791136
-0.0560304
0.0506678
0.00466837
-0.00240714
-0.00294086
0.00067963
0.00114626
-0.000384058
0.00790198
-0.00866418
7.37335e-05
0.00260551
-0.00267925
-0.0847885
0.0824903
0.00229813
-0.00636583
0.00556381
-0.439231
0.440033
-0.00308804
-0.000235102
-0.607244
0.610567
0.00501085
-0.0101692
-0.742287
0.747446
0.0163149
-0.0224081
-0.866024
0.872117
0.0292082
-0.0354786
-0.994965
1.00124
0.0425142
-0.0486467
-1.14041
1.14654
0.0553143
-0.0611195
-1.30288
1.30868
0.0669282
-0.0716351
-1.48376
1.48846
0.0759359
-0.0791228
-1.68455
1.68774
0.0809217
-0.0819048
-1.60467
1.60565
0.0819
-0.0812551
-1.29384
1.29319
0.0801272
-0.0770568
-1.04175
1.03868
0.0716135
-0.0617344
-0.767518
0.757639
0.0494355
-0.0354159
-0.438455
0.424435
0.0246156
-0.0158918
-0.174431
0.165707
0.0104073
-0.00634737
-0.0444111
0.0403511
0.00382144
-0.00201877
0.00203809
-0.00384076
0.000983264
-0.000346085
0.00959237
-0.0102295
7.25778e-05
0.00278904
-0.00286162
-0.0835167
0.081644
0.00187278
-0.00589287
0.00560885
-0.444704
0.444988
-0.00359992
0.00108393
-0.616549
0.619065
0.00327206
-0.00788723
-0.752969
0.757584
0.0136033
-0.0188056
-0.877733
0.882935
0.0247119
-0.0301994
-1.00743
1.01292
0.0367084
-0.0421578
-1.15266
1.15811
0.0479758
-0.0532468
-1.31425
1.31952
0.0587944
-0.0629138
-1.49315
1.49727
0.0667587
-0.06936
-1.69055
1.69316
0.0710797
-0.0715128
-1.60642
1.60686
0.071482
-0.0707809
-1.29191
1.29121
0.0692414
-0.0660501
-1.03325
1.03006
0.0605653
-0.051176
-0.744622
0.735233
0.0404881
-0.0286734
-0.408332
0.396517
0.0199838
-0.0131728
-0.155584
0.148773
0.00878449
-0.00546428
-0.0353999
0.0320796
0.00334542
-0.00179385
0.00605557
-0.00760714
0.000882997
-0.00031611
0.0109825
-0.0115494
7.09717e-05
0.00293534
-0.00300631
-0.0826362
0.0810992
0.00153696
-0.00515109
0.0051864
-0.448849
0.448813
-0.00343818
0.0011501
-0.624502
0.62679
0.00283947
-0.00691757
-0.762414
0.766492
0.0117433
-0.016618
-0.888025
0.8929
0.0219412
-0.0273783
-1.01814
1.02358
0.0328732
-0.0378609
-1.1636
1.16858
0.0434737
-0.048142
-1.32458
1.32925
0.052739
-0.0568106
-1.50122
1.50529
0.0602545
-0.062575
-1.6958
1.69812
0.0638798
-0.0643409
-1.60746
1.60792
0.0641754
-0.0632966
-1.28983
1.28895
0.0616427
-0.0582049
-1.02477
1.02133
0.0528016
-0.0441885
-0.723088
0.714475
0.0344542
-0.0244507
-0.382726
0.372723
0.0173023
-0.0116334
-0.140544
0.134875
0.0079328
-0.00506869
-0.0278984
0.0250343
0.00315602
-0.00171412
0.00952715
-0.0109691
0.00084861
-0.000301722
0.012193
-0.0127399
6.94698e-05
0.00305373
-0.0031232
-0.0822127
0.0808624
0.00135035
-0.00412692
0.00407278
-0.452262
0.452316
-0.00266144
0.000498517
-0.631584
0.633747
0.00306696
-0.00689835
-0.771
0.774831
0.011387
-0.0156898
-0.897509
0.901811
0.0209482
-0.0253578
-1.02834
1.03275
0.0305684
-0.035108
-1.17365
1.17819
0.0402549
-0.0447511
-1.33379
1.33829
0.0491825
-0.0525269
-1.50899
1.51234
0.0556925
-0.0577704
-1.70028
1.70235
0.0590984
-0.0592364
-1.60818
1.60832
0.0589972
-0.0579981
-1.28791
1.28691
0.0562636
-0.0526089
-1.01612
1.01246
0.0474207
-0.0392609
-0.703037
0.694877
0.0305671
-0.0218909
-0.360816
0.35214
0.0157692
-0.0109808
-0.127904
0.123115
0.00772021
-0.00509049
-0.0213024
0.0186727
0.00325336
-0.00180643
0.012747
-0.0141939
0.000905414
-0.000330111
0.0133268
-0.0139021
7.42083e-05
0.00314668
-0.00322089
-0.0819999
0.0809729
0.00102699
-0.00317546
0.00276238
-0.455448
0.455861
-0.00165078
-0.000475672
-0.637655
0.639782
0.00359275
-0.00718334
-0.778787
0.782378
0.0113511
-0.0156446
-0.905923
0.910216
0.0200809
-0.0244739
-1.03731
1.0417
0.0294044
-0.0334654
-1.18309
1.18715
0.0383791
-0.0424711
-1.34245
1.34655
0.0464879
-0.0498791
-1.51597
1.51936
0.0528972
-0.0545727
-1.70433
1.706
0.0554292
-0.0556228
-1.60852
1.60872
0.0553974
-0.0542325
-1.28555
1.28439
0.0523045
-0.0487834
-1.00756
1.00404
0.0433506
-0.0358778
-0.68411
0.676638
0.028068
-0.0204434
-0.3418
0.334175
0.0151904
-0.0109495
-0.116993
0.112752
0.00798868
-0.00545627
-0.0152333
0.0127009
0.00359458
-0.00205939
0.0159548
-0.01749
0.00107204
-0.000402632
0.0145202
-0.0151896
9.46184e-05
0.00323585
-0.00333047
-0.082151
0.0812934
0.000857575
-0.00235168
0.00208212
-0.458591
0.458861
-0.000531862
-0.00133765
-0.643576
0.645445
0.00453782
-0.0078955
-0.785828
0.789186
0.0117762
-0.0155245
-0.914119
0.917867
0.0199334
-0.0238289
-1.04602
1.04991
0.0284841
-0.0327668
-1.19158
1.19587
0.0369914
-0.0410859
-1.35056
1.35465
0.0450977
-0.0480828
-1.52247
1.52545
0.0508254
-0.0525891
-1.70771
1.70947
0.053152
-0.0532388
-1.60858
1.60867
0.0526187
-0.0513747
-1.28306
1.28181
0.0494626
-0.0457657
-0.999188
0.995491
0.0405857
-0.0334975
-0.666588
0.6595
0.0264532
-0.019711
-0.324955
0.318213
0.0150749
-0.0113083
-0.107353
0.103587
0.00854046
-0.00604662
-0.00942409
0.00693025
0.00411976
-0.00245725
0.0193041
-0.0209666
0.00132685
-0.000518716
0.0158965
-0.0167046
0.000127697
0.00335785
-0.00348555
-0.082572
0.081886
0.000686001
-0.0013736
0.000995553
-0.461679
0.462057
0.000318285
-0.00241931
-0.648892
0.650993
0.00547203
-0.00858505
-0.792416
0.795529
0.0124458
-0.0159314
-0.921547
0.925032
0.0200373
-0.0239095
-1.05424
1.05811
0.0282738
-0.0323049
-1.1999
1.20393
0.0364788
-0.0402913
-1.35852
1.36234
0.044075
-0.0473715
-1.52855
1.53185
0.0499264
-0.0512603
-1.71092
1.71225
0.0517298
-0.0513003
-1.60837
1.60794
0.0505833
-0.0492789
-1.28028
1.27898
0.0469776
-0.0432046
-0.99078
0.987007
0.0381445
-0.0313777
-0.65026
0.643493
0.0251129
-0.019171
-0.310194
0.304252
0.0151232
-0.0117038
-0.098718
0.0952986
0.00911026
-0.00664534
-0.00375721
0.00129229
0.00467197
-0.00289033
0.0228788
-0.0246604
0.00161767
-0.000661348
0.0175347
-0.018491
0.000177088
0.00354295
-0.00372004
-0.0832155
0.0826488
0.000566723
-0.000566675
0.000128727
-0.464776