/*--------------------------------*- C++ -*----------------------------------*\
  =========                 |
  \\      /  F ield         | OpenFOAM: The Open Source CFD Toolbox
   \\    /   O peration     | Website:  https://openfoam.org
    \\  /    A nd           | Version:  6
     \\/     M anipulation  |
\*---------------------------------------------------------------------------*/
FoamFile
{
    version     2.0;
    format      ascii;
    class       volVectorField;
    location    "116.6";
    object      U;
}
// * * * * * * * * * * * * * * * * * * * * * * * * * * * * * * * * * * * * * //

dimensions      [0 1 -1 0 0 0 0];

internalField   nonuniform List<vector> 
8800
(
(0.987183 -0.0766652 0)
(1.00189 -0.0551904 0)
(0.999718 -0.0285486 0)
(1.00003 -0.0151447 0)
(1.0001 -0.00854776 0)
(1.00013 -0.00505146 0)
(1.00008 -0.0030053 0)
(1.00002 -0.00170276 0)
(0.99999 -0.000794731 0)
(1.00006 -7.4197e-05 0)
(0.999971 0.000660753 0)
(1.00004 0.00142331 0)
(1.00007 0.00242292 0)
(1.00007 0.00399634 0)
(1.00006 0.0066317 0)
(1.00006 0.0113717 0)
(0.999967 0.0208157 0)
(0.999178 0.0386703 0)
(1.0071 0.0724575 0)
(0.771215 0.0366618 0)
(0.363084 -0.0160159 0)
(1.04332 -0.0768091 0)
(1.08459 -0.0704358 0)
(1.04519 -0.053529 0)
(1.0233 -0.0388801 0)
(1.01204 -0.0262023 0)
(1.00644 -0.0168375 0)
(1.0036 -0.0102985 0)
(1.00215 -0.00563084 0)
(1.00143 -0.00196515 0)
(1.00128 0.00136271 0)
(1.00169 0.00475233 0)
(1.00271 0.00865928 0)
(1.00468 0.0139814 0)
(1.00861 0.0216908 0)
(1.01658 0.0326566 0)
(1.03253 0.0465672 0)
(1.0627 0.0616828 0)
(1.09186 0.076108 0)
(0.838661 0.0565656 0)
(0.216885 -0.00242817 0)
(1.07593 -0.0501163 0)
(1.09989 -0.0482821 0)
(1.06466 -0.0404299 0)
(1.04007 -0.0335675 0)
(1.02395 -0.0260392 0)
(1.01414 -0.0184432 0)
(1.00857 -0.0116076 0)
(1.00558 -0.00572515 0)
(1.0043 -0.000296107 0)
(1.00465 0.00496123 0)
(1.00664 0.0103416 0)
(1.01064 0.0163923 0)
(1.01794 0.0234136 0)
(1.03053 0.0308741 0)
(1.05063 0.0378947 0)
(1.08038 0.0445729 0)
(1.10627 0.0513788 0)
(0.942482 0.041635 0)
(0.216101 0.00246354 0)
(0.17524 -0.000814445 0)
(1.01778 -0.0354541 0)
(1.10524 -0.0413316 0)
(1.0783 -0.0360062 0)
(1.05352 -0.0300634 0)
(1.03626 -0.0244751 0)
(1.02404 -0.0187262 0)
(1.01591 -0.0126228 0)
(1.01102 -0.00641381 0)
(1.00879 -6.19853e-05 0)
(1.00936 0.0062079 0)
(1.01269 0.0121909 0)
(1.01889 0.0179726 0)
(1.02874 0.0235402 0)
(1.04317 0.028831 0)
(1.0637 0.0342987 0)
(1.09356 0.0402727 0)
(1.09338 0.042018 0)
(0.826998 0.0229395 0)
(0.173918 0.000855697 0)
(0.154077 -0.000608018 0)
(0.956378 -0.0254157 0)
(1.10355 -0.0350556 0)
(1.08775 -0.0325627 0)
(1.06181 -0.0278972 0)
(1.0442 -0.0228543 0)
(1.03171 -0.0175784 0)
(1.02284 -0.0120148 0)
(1.01699 -0.00604992 0)
(1.0141 0.000442647 0)
(1.01477 0.0069227 0)
(1.01882 0.012785 0)
(1.0258 0.0180133 0)
(1.03604 0.0229195 0)
(1.05059 0.0276629 0)
(1.07183 0.0321712 0)
(1.10004 0.0360877 0)
(1.06795 0.034117 0)
(0.739231 0.0143501 0)
(0.152079 0.00065493 0)
(0.139754 -0.000463831 0)
(0.899633 -0.0190193 0)
(1.09596 -0.029976 0)
(1.09586 -0.0290593 0)
(1.06939 -0.025309 0)
(1.05095 -0.0211428 0)
(1.03799 -0.016331 0)
(1.02885 -0.0110021 0)
(1.02269 -0.00522026 0)
(1.0195 0.00113759 0)
(1.02009 0.00747202 0)
(1.02426 0.0130792 0)
(1.03134 0.0179639 0)
(1.04178 0.0224144 0)
(1.05689 0.0263586 0)
(1.07909 0.0297903 0)
(1.10217 0.0323902 0)
(1.0357 0.0282398 0)
(0.672447 0.0102601 0)
(0.136925 0.00051798 0)
(0.129275 -0.000357887 0)
(0.85026 -0.01464 0)
(1.0837 -0.0258076 0)
(1.10162 -0.0260605 0)
(1.07631 -0.0227482 0)
(1.05733 -0.0190687 0)
(1.04391 -0.0147722 0)
(1.0344 -0.00979399 0)
(1.02798 -0.00421182 0)
(1.02458 0.00197622 0)
(1.02501 0.00810371 0)
(1.02913 0.0134279 0)
(1.0363 0.0178863 0)
(1.047 0.0217279 0)
(1.0625 0.0250003 0)
(1.08513 0.0279035 0)
(1.10117 0.0296208 0)
(1.00054 0.0237662 0)
(0.620322 0.00791078 0)
(0.125433 0.000421608 0)
(0.121309 -0.000276523 0)
(0.808405 -0.0114622 0)
(1.06862 -0.0221549 0)
(1.10526 -0.0233642 0)
(1.08264 -0.0204553 0)
(1.06325 -0.0169797 0)
(1.04955 -0.0129769 0)
(1.03975 -0.00832225 0)
(1.03302 -0.00299829 0)
(1.02934 0.0029826 0)
(1.02958 0.00886948 0)
(1.03363 0.0138382 0)
(1.04083 0.0178086 0)
(1.05161 0.021139 0)
(1.06731 0.0239923 0)
(1.09028 0.0265862 0)
(1.09723 0.0273912 0)
(0.964914 0.0202775 0)
(0.57829 0.00639443 0)
(0.116235 0.000352336 0)
(0.115172 -0.000212471 0)
(0.7733 -0.00907638 0)
(1.05213 -0.0189264 0)
(1.10778 -0.0208514 0)
(1.08862 -0.018302 0)
(1.06883 -0.0149578 0)
(1.05488 -0.0111011 0)
(1.04487 -0.00663986 0)
(1.03788 -0.00154031 0)
(1.03388 0.00420131 0)
(1.03387 0.00979787 0)
(1.03778 0.0143821 0)
(1.04487 0.0179159 0)
(1.05562 0.0208549 0)
(1.07151 0.0233735 0)
(1.09412 0.0256096 0)
(1.09038 0.0255778 0)
(0.930108 0.0176105 0)
(0.543316 0.00536923 0)
(0.108598 0.000303141 0)
(0.110431 -0.000160579 0)
(0.744016 -0.00721489 0)
(1.03529 -0.0160499 0)
(1.1094 -0.0184652 0)
(1.09433 -0.0162076 0)
(1.07426 -0.0129393 0)
(1.06003 -0.00915279 0)
(1.04981 -0.00479252 0)
(1.04256 0.000153566 0)
(1.03824 0.00567075 0)
(1.03789 0.0109654 0)
(1.04156 0.0151801 0)
(1.04845 0.0183244 0)
(1.05912 0.0209149 0)
(1.07519 0.0231317 0)
(1.09662 0.0249736 0)
(1.08099 0.0241403 0)
(0.896653 0.0156169 0)
(0.513328 0.00466645 0)
(0.102038 0.000269352 0)
(0.106806 -0.000117043 0)
(0.719747 -0.005703 0)
(1.01897 -0.0134523 0)
(1.11025 -0.0161405 0)
(1.09997 -0.0141365 0)
(1.07963 -0.0108607 0)
(1.0651 -0.00708113 0)
(1.05464 -0.00275844 0)
(1.0471 0.00209755 0)
(1.0424 0.00743679 0)
(1.04164 0.0124573 0)
(1.04497 0.0163251 0)
(1.05161 0.0190958 0)
(1.06219 0.0213488 0)
(1.07842 0.0232852 0)
(1.0977 0.0246941 0)
(1.06941 0.0230803 0)
(0.864626 0.0141823 0)
(0.486846 0.00419641 0)
(0.0962048 0.000247969 0)
(0.104115 -7.88432e-05 0)
(0.699869 -0.00442365 0)
(1.00378 -0.0110644 0)
(1.1105 -0.0138399 0)
(1.10549 -0.0120026 0)
(1.08505 -0.00866582 0)
(1.07019 -0.00483011 0)
(1.05943 -0.000480215 0)
(1.05155 0.0043474 0)
(1.04639 0.00956311 0)
(1.04512 0.0143471 0)
(1.04805 0.0178852 0)
(1.05438 0.0202884 0)
(1.06482 0.0222103 0)
(1.08116 0.0238674 0)
(1.09768 0.024929 0)
(1.05585 0.0224183 0)
(0.833814 0.0132252 0)
(0.462743 0.00390542 0)
(0.0908322 0.000236643 0)
(0.102243 -4.32361e-05 0)
(0.683926 -0.00328862 0)
(0.990189 -0.00881348 0)
(1.11039 -0.0114739 0)
(1.1109 -0.00972022 0)
(1.09058 -0.00629015 0)
(1.07537 -0.00233302 0)
(1.06427 0.00211465 0)
(1.05596 0.00698098 0)
(1.05024 0.0121297 0)
(1.04835 0.0167135 0)
(1.0508 0.0199352 0)
(1.05676 0.0219709 0)
(1.06703 0.0235593 0)
(1.08337 0.0249173 0)
(1.09675 0.0255006 0)
(1.04043 0.0221643 0)
(0.80382 0.0126702 0)
(0.440122 0.00375497 0)
(0.0857084 0.000233218 0)
(0.101132 -7.88703e-06 0)
(0.671638 -0.00222703 0)
(0.978582 -0.00662307 0)
(1.11025 -0.00898454 0)
(1.11632 -0.007227 0)
(1.09633 -0.00365501 0)
(1.08073 0.000493074 0)
(1.06922 0.00511276 0)
(1.06039 0.01009 0)
(1.05399 0.0152315 0)
(1.05137 0.019651 0)
(1.05322 0.0225669 0)
(1.05876 0.0242385 0)
(1.06881 0.0254844 0)
(1.08512 0.026543 0)
(1.09443 0.0265862 0)
(1.02313 0.0223278 0)
(0.774154 0.0124733 0)
(0.418245 0.00372117 0)
(0.0806648 0.00023642 0)
(0.100778 2.92164e-05 0)
(0.66287 -0.00118189 0)
(0.969285 -0.00441844 0)
(1.11042 -0.00631006 0)
(1.12192 -0.00444853 0)
(1.10239 -0.000670395 0)
(1.08636 0.00374472 0)
(1.07436 0.00861616 0)
(1.06491 0.0137827 0)
(1.05769 0.0189819 0)
(1.05417 0.0232741 0)
(1.05533 0.0258993 0)
(1.06035 0.0272059 0)
(1.07014 0.0280867 0)
(1.0863 0.0288046 0)
(1.09063 0.0282071 0)
(1.00385 0.0229558 0)
(0.744249 0.0126111 0)
(0.396475 0.00379076 0)
(0.0755578 0.000245509 0)
(0.101205 6.42307e-05 0)
(0.657623 -9.62565e-05 0)
(0.962614 -0.00212244 0)
(1.11125 -0.00338257 0)
(1.12787 -0.00129853 0)
(1.10887 0.00276663 0)
(1.09237 0.00753438 0)
(1.07979 0.0127459 0)
(1.06959 0.0181873 0)
(1.06137 0.0235138 0)
(1.05678 0.0277157 0)
(1.05711 0.0300685 0)
(1.06153 0.0309976 0)
(1.07098 0.0314923 0)
(1.0866 0.0318286 0)
(1.08503 0.030458 0)
(0.982292 0.0240885 0)
(0.713464 0.0130682 0)
(0.374226 0.0039533 0)
(0.0702606 0.000259513 0)
(0.102481 0.0001211 0)
(0.656064 0.00108366 0)
(0.958902 0.000344428 0)
(1.11315 -0.000122078 0)
(1.13437 0.00232476 0)
(1.11589 0.0067776 0)
(1.09887 0.0119974 0)
(1.08561 0.0176507 0)
(1.07448 0.0234613 0)
(1.06507 0.0289877 0)
(1.05921 0.0331351 0)
(1.05854 0.0352254 0)
(1.06224 0.0357535 0)
(1.07128 0.0358402 0)
(1.08587 0.035754 0)
(1.07735 0.0334279 0)
(0.958054 0.0257648 0)
(0.681088 0.0138327 0)
(0.350947 0.00419812 0)
(0.0646643 0.000277304 0)
(0.104745 0.000171231 0)
(0.658223 0.00223796 0)
(0.95852 0.0030755 0)
(1.11658 0.00358316 0)
(1.14165 0.00654092 0)
(1.12363 0.0115078 0)
(1.10601 0.0172974 0)
(1.09192 0.0235096 0)
(1.07969 0.0297934 0)
(1.06884 0.0355927 0)
(1.06144 0.0397101 0)
(1.05962 0.0415159 0)
(1.06245 0.0416369 0)
(1.07099 0.0412926 0)
(1.08389 0.0406479 0)
(1.06721 0.0372231 0)
(0.930558 0.0280293 0)
(0.646353 0.0148926 0)
(0.326133 0.00451311 0)
(0.0586818 0.000297511 0)
(0.10816 0.000236822 0)
(0.66491 0.00372648 0)
(0.961784 0.006056 0)
(1.12201 0.00786062 0)
(1.14999 0.011482 0)
(1.13227 0.0171419 0)
(1.11395 0.0236416 0)
(1.09886 0.030547 0)
(1.08527 0.0374145 0)
(1.07269 0.0435536 0)
(1.06348 0.0476494 0)
(1.06034 0.049177 0)
(1.06213 0.0488414 0)
(1.07006 0.0480298 0)
(1.08066 0.04674 0)
(1.05408 0.041968 0)
(0.899042 0.0309127 0)
(0.608431 0.0162214 0)
(0.299326 0.00487929 0)
(0.0522539 0.000318079 0)
(0.112991 0.000325801 0)
(0.676524 0.00549663 0)
(0.969283 0.00958684 0)
(1.12996 0.0128836 0)
(1.1597 0.0173692 0)
(1.14207 0.0239231 0)
(1.1229 0.0312986 0)
(1.10656 0.0390476 0)
(1.09131 0.0466087 0)
(1.07664 0.0531369 0)
(1.0653 0.0571902 0)
(1.06057 0.0584358 0)
(1.06122 0.0575743 0)
(1.06842 0.0562553 0)
(1.07606 0.0542038 0)
(1.03727 0.047764 0)
(0.862544 0.0344082 0)
(0.566457 0.0177625 0)
(0.270163 0.00526537 0)
(0.0453636 0.000336062 0)
(0.119611 0.00044438 0)
(0.693849 0.00771258 0)
(0.981852 0.013894 0)
(1.141 0.0188836 0)
(1.17121 0.0244775 0)
(1.1533 0.0321792 0)
(1.13305 0.0406261 0)
(1.11515 0.0493784 0)
(1.09786 0.0577272 0)
(1.08067 0.0646504 0)
(1.06683 0.0685949 0)
(1.06019 0.0694463 0)
(1.05969 0.0680465 0)
(1.06617 0.0661656 0)
(1.06973 0.063224 0)
(1.01581 0.0546671 0)
(0.819895 0.038448 0)
(0.519605 0.0194093 0)
(0.238451 0.00562368 0)
(0.0380561 0.000347632 0)
(0.128552 0.000609934 0)
(0.717889 0.0106026 0)
(1.00041 0.019276 0)
(1.15581 0.0262152 0)
(1.18499 0.0331885 0)
(1.16634 0.0423749 0)
(1.14467 0.0521178 0)
(1.12476 0.0620239 0)
(1.10491 0.0712031 0)
(1.08471 0.0784465 0)
(1.06798 0.082134 0)
(1.05921 0.0824711 0)
(1.05749 0.0804515 0)
(1.06294 0.0779255 0)
(1.06103 0.073797 0)
(0.988438 0.0626687 0)
(0.769737 0.0428479 0)
(0.467209 0.020982 0)
(0.204279 0.00588802 0)
(0.0304595 0.000348343 0)
(0.140641 0.000853144 0)
(0.750043 0.014563 0)
(1.02602 0.0261834 0)
(1.17517 0.0354289 0)
(1.20172 0.0441505 0)
(1.18159 0.0552032 0)
(1.15795 0.0664737 0)
(1.13541 0.0776257 0)
(1.11237 0.0875603 0)
(1.0886 0.0949104 0)
(1.06862 0.0980787 0)
(1.05756 0.0977267 0)
(1.05465 0.0950469 0)
(1.05837 0.0918199 0)
(1.049 0.0861137 0)
(0.953462 0.0715768 0)
(0.710631 0.0472498 0)
(0.408994 0.0222129 0)
(0.168152 0.00597709 0)
(0.0228001 0.000333892 0)
(0.157212 0.00123387 0)
(0.792332 0.0202466 0)
(1.06034 0.0354149 0)
(1.20007 0.0475094 0)
(1.22227 0.0587372 0)
(1.19944 0.0717504 0)
(1.17299 0.0847015 0)
(1.14697 0.0970114 0)
(1.11999 0.107404 0)
(1.0921 0.11443 0)
(1.06854 0.116667 0)
(1.05508 0.115382 0)
(1.05109 0.111937 0)
(1.05245 0.107972 0)
(1.03232 0.100077 0)
(0.908718 0.0809401 0)
(0.641303 0.0510715 0)
(0.345423 0.022757 0)
(0.13112 0.00581008 0)
(0.0154018 0.000301371 0)
(0.180558 0.00189622 0)
(0.848025 0.0288427 0)
(1.10629 0.0485885 0)
(1.23158 0.0642867 0)
(1.24711 0.0785708 0)
(1.21999 0.0937185 0)
(1.18954 0.108185 0)
(1.15902 0.121174 0)
(1.12732 0.131365 0)
(1.0948 0.137356 0)
(1.06745 0.138075 0)
(1.05158 0.135525 0)
(1.0466 0.131174 0)
(1.0448 0.126216 0)
(1.00896 0.115312 0)
(0.85157 0.089937 0)
(0.561225 0.0534988 0)
(0.278181 0.0222602 0)
(0.0948437 0.00533347 0)
(0.00866164 0.000249747 0)
(0.21423 0.00336475 0)
(0.923033 0.043159 0)
(1.16684 0.0696625 0)
(1.27001 0.0892582 0)
(1.27613 0.106851 0)
(1.24265 0.123586 0)
(1.20676 0.138609 0)
(1.17071 0.151134 0)
(1.13369 0.159994 0)
(1.09624 0.16394 0)
(1.06506 0.162394 0)
(1.04688 0.158162 0)
(1.04105 0.152778 0)
(1.03445 0.146512 0)
(0.975963 0.131062 0)
(0.779184 0.0972364 0)
(0.471808 0.0536262 0)
(0.210856 0.0205575 0)
(0.0616237 0.00456121 0)
(0.00304437 0.000179521 0)
(0.260195 0.0099258 1.9383e-20)
(1.02107 0.0715133 1.64418e-20)
(1.23945 0.105572 -5.6303e-21)
(1.31269 0.126632 0)
(1.3063 0.147417 -1.32115e-34)
(1.26513 0.163804 1.90267e-21)
(1.22304 0.177539 -3.26088e-21)
(1.181 0.188136 0)
(1.13835 0.194592 6.3599e-35)
(1.09575 0.195749 -3.71684e-21)
(1.06057 0.191569 0)
(1.04038 0.185787 -4.28945e-21)
(1.03454 0.180091 -1.25776e-20)
(1.01875 0.17244 -5.92592e-21)
(0.926568 0.14893 -1.76864e-21)
(0.682837 0.102561 -1.04656e-21)
(0.368721 0.0510608 0)
(0.143396 0.0179376 7.30706e-22)
(0.0315919 0.00360581 8.6538e-22)
(-0.00156047 5.86136e-05 1.58491e-20)
(0.29265 0.0258942 1.62342e-20)
(1.10287 0.116428 1.21891e-22)
(1.29937 0.156696 1.59348e-21)
(1.35187 0.177943 0)
(1.33317 0.198606 -6.96558e-21)
(1.28495 0.213017 -7.7085e-21)
(1.23681 0.224675 -3.35141e-21)
(1.18888 0.233118 -1.13989e-20)
(1.14057 0.237306 0)
(1.09266 0.236019 1.57607e-20)
(1.05325 0.229584 1.5379e-20)
(1.03016 0.222224 4.50683e-21)
(1.02142 0.215964 1.62286e-20)
(0.987728 0.203302 2.26381e-20)
(0.843372 0.166615 0)
(0.548271 0.104401 3.16046e-20)
(0.252737 0.0462375 4.52728e-20)
(0.0777881 0.0140778 5.03626e-20)
(0.00449368 0.00158891 -5.77647e-20)
(-0.00544778 -0.000452349 -1.10286e-21)
(0.295199 0.0443445 0)
(1.15634 0.174344 3.28708e-21)
(1.34129 0.219205 0)
(1.38296 0.240461 -1.04185e-20)
(1.35491 0.257746 0)
(1.30075 0.268293 -1.56136e-20)
(1.247 0.276335 6.93128e-21)
(1.19353 0.281432 -2.33465e-20)
(1.13996 0.282436 -3.36819e-22)
(1.0872 0.278042 8.18751e-21)
(1.04406 0.269 3.33632e-20)
(1.01844 0.259883 -2.14019e-23)
(1.00554 0.251986 -1.16873e-20)
(0.951337 0.232847 -2.1e-20)
(0.761295 0.180621 2.47691e-20)
(0.443639 0.102848 -4.37434e-20)
(0.181313 0.0411854 -5.74263e-21)
(0.0419293 0.0104022 0)
(-0.0090247 -0.000621723 -3.03531e-24)
(-0.00713999 -0.00101531 0)
(0.289132 0.0597599 5.57017e-20)
(1.18692 0.236204 -2.50502e-20)
(1.36856 0.28663 -1.66367e-20)
(1.40423 0.308079 5.21696e-21)
(1.36989 0.321186 -8.54506e-21)
(1.31136 0.327169 3.28056e-20)
(1.25308 0.33083 1.45003e-20)
(1.19495 0.331832 0)
(1.13683 0.328991 -4.20156e-20)
(1.07983 0.320967 0)
(1.03346 0.308999 -1.74804e-20)
(1.00562 0.297916 -2.11498e-20)
(0.987721 0.287366 -1.25858e-20)
(0.913063 0.260003 -1.50988e-20)
(0.687712 0.191688 0)
(0.367499 0.101214 0)
(0.135328 0.0374021 -3.70189e-20)
(0.0197832 0.00701865 7.29705e-21)
(-0.0172278 -0.00291795 -4.31166e-21)
(-0.00812441 -0.00159518 -5.10668e-21)
(0.281374 0.0731935 -3.10259e-20)
(1.2019 0.298028 0)
(1.3847 0.355068 3.81679e-20)
(1.4168 0.376872 1.56e-20)
(1.37818 0.385893 1.89056e-20)
(1.31654 0.387272 0)
(1.25484 0.386393 1.45972e-20)
(1.19303 0.383033 2.58768e-20)
(1.13117 0.376016 2.17171e-20)
(1.07062 0.364047 3.77123e-20)
(1.02149 0.348955 0)
(0.991571 0.335694 -4.51759e-20)
(0.968192 0.321758 -2.68877e-20)
(0.874328 0.285119 -1.58251e-20)
(0.623956 0.200899 9.54364e-20)
(0.311942 0.100054 1.12589e-20)
(0.104031 0.034249 5.3041e-20)
(0.00458489 0.00366975 -2.50659e-19)
(-0.0229749 -0.00530326 1.48465e-19)
(-0.00882218 -0.00218206 -1.81238e-19)
(0.273499 0.0852096 -2.58e-20)
(1.20661 0.357722 5.86972e-21)
(1.39254 0.422474 -5.1722e-21)
(1.42237 0.444911 -1.92168e-20)
(1.38073 0.450072 -1.79308e-20)
(1.31683 0.446985 3.52911e-22)
(1.25254 0.441657 -1.56674e-20)
(1.18784 0.433937 2.68752e-20)
(1.12298 0.422665 -4.63469e-20)
(1.0595 0.406634 0)
(1.00806 0.38833 -2.06359e-20)
(0.976259 0.372766 -3.04262e-22)
(0.9472 0.354906 -2.91082e-20)
(0.836223 0.308223 0)
(0.569424 0.208645 -2.04929e-20)
(0.270284 0.0992686 -4.83013e-20)
(0.0811501 0.031323 1.2818e-19)
(-0.00670013 0.000245677 -1.26221e-19)
(-0.0272939 -0.00774818 1.79419e-19)
(-0.00933676 -0.00276479 -1.88798e-19)
(0.26639 0.0961408 -1.21288e-22)
(1.20451 0.414464 -5.24669e-21)
(1.39423 0.487729 -1.97514e-20)
(1.42239 0.511054 9.26107e-21)
(1.37859 0.51268 -9.26447e-21)
(1.31303 0.50535 0)
(1.24674 0.495753 -1.53854e-20)
(1.17974 0.483791 -2.82327e-20)
(1.11245 0.468306 -2.42258e-20)
(1.04657 0.448209 0)
(0.993233 0.426666 -2.13371e-20)
(0.959755 0.408726 -2.58258e-20)
(0.925101 0.386558 3.125e-20)
(0.799313 0.329284 -1.87412e-20)
(0.522735 0.215233 -8.80972e-20)
(0.237739 0.0986823 5.18892e-20)
(0.0632522 0.0284004 1.52947e-20)
(-0.0156731 -0.00328451 0)
(-0.0306807 -0.0102114 -1.71207e-19)
(-0.00969701 -0.0033265 -6.34047e-21)
(0.260261 0.106333 -2.92433e-21)
(1.19793 0.468012 4.97124e-21)
(1.39126 0.550246 1.02285e-20)
(1.41809 0.574625 3.05804e-20)
(1.37271 0.573068 -3.70329e-20)
(1.30595 0.561798 3.54046e-20)
(1.2381 0.548171 3.28672e-20)
(1.16923 0.532137 -4.50171e-20)
(1.09992 0.51254 1.41799e-20)
(1.03205 0.488407 -9.12662e-20)
(0.97719 0.463633 -2.36842e-20)
(0.94226 0.443273 0)
(0.902231 0.416524 3.35814e-20)
(0.76379 0.348348 3.98076e-20)
(0.482313 0.220861 4.71804e-20)
(0.211131 0.0981036 -5.56794e-20)
(0.0483227 0.0253583 -1.64115e-20)
(-0.0233032 -0.0069143 1.9366e-20)
(-0.0334875 -0.0126763 0)
(-0.00993468 -0.00385603 -1.35967e-20)
(0.255051 0.115837 2.5996e-20)
(1.18861 0.518369 -1.86421e-20)
(1.38498 0.610074 -1.05001e-20)
(1.41047 0.635278 2.05778e-20)
(1.3639 0.630858 -1.84425e-20)
(1.29628 0.615962 -8.68128e-22)
(1.2272 0.598601 -3.54822e-20)
(1.1568 0.578715 -1.61546e-20)
(1.08578 0.555131 -4.16384e-20)
(1.01623 0.527012 1.87964e-23)
(0.960163 0.498991 -7.41212e-20)
(0.924016 0.47618 6.08657e-20)
(0.8789 0.444618 -3.63739e-20)
(0.729758 0.365453 4.31467e-20)
(0.446796 0.225589 0)
(0.188478 0.0974543 -2.98705e-20)
(0.0351125 0.0221706 2.32159e-23)
(-0.0303063 -0.0106776 -8.31645e-20)
(-0.0360681 -0.0151743 -1.23047e-20)
(-0.010083 -0.00434991 0)
(0.250752 0.124926 0)
(1.17762 0.565754 -1.9149e-20)
(1.37617 0.666996 -1.99481e-20)
(1.40035 0.692854 -2.09476e-20)
(1.35287 0.685854 -2.10846e-20)
(1.28463 0.667657 0)
(1.21457 0.646864 -1.73045e-20)
(1.14288 0.623374 -2.56332e-22)
(1.07037 0.59597 8.88894e-20)
(0.999377 0.563906 -1.26165e-20)
(0.942368 0.532597 -5.32167e-20)
(0.905241 0.507258 3.17803e-20)
(0.855407 0.470723 -3.92767e-22)
(0.697225 0.380634 4.58463e-20)
(0.415187 0.229484 2.73489e-20)
(0.168552 0.0966627 -6.40069e-20)
(0.0229194 0.0187879 7.54284e-20)
(-0.0372333 -0.0146816 2.2287e-20)
(-0.0388023 -0.0178164 9.23801e-20)
(-0.0102341 -0.00483583 -2.50044e-19)
(0.247311 0.133767 4.18294e-21)
(1.16579 0.610341 -8.46163e-21)
(1.36555 0.720796 8.00308e-21)
(1.3884 0.747322 2.06316e-20)
(1.3402 0.737982 0)
(1.2715 0.71679 -1.8792e-20)
(1.20065 0.692872 5.68683e-20)
(1.12784 0.666047 3.58712e-20)
(1.05401 0.635013 0)
(0.981707 0.599047 -1.79285e-19)
(0.923948 0.564361 1.42868e-19)
(0.886073 0.536363 0)
(0.83197 0.494747 4.18454e-20)
(0.66634 0.393868 -2.91407e-22)
(0.386861 0.232589 -8.75638e-20)
(0.150698 0.0956736 3.4271e-20)
(0.0113291 0.0151142 0)
(-0.044397 -0.0190445 1.19407e-19)
(-0.0419969 -0.0207562 0)
(-0.0104972 -0.00536945 -1.17222e-19)
(0.244658 0.14237 -3.76957e-21)
(1.15368 0.652359 -7.31604e-21)
(1.35362 0.771547 8.95833e-21)
(1.37515 0.798717 0)
(1.32637 0.787257 -2.14635e-20)
(1.25734 0.76336 0)
(1.18583 0.736604 -5.826e-20)
(1.11203 0.706719 -1.76329e-20)
(1.03695 0.672273 1.60951e-20)
(0.9634 0.632464 -8.85965e-20)
(0.904988 0.594249 1.48997e-20)
(0.866619 0.563379 0)
(0.808793 0.516517 -8.90396e-20)
(0.637167 0.405123 2.07038e-22)
(0.361524 0.23489 0)
(0.134604 0.0943438 2.03146e-23)
(0.00023343 0.0109711 1.08204e-19)
(-0.0518718 -0.0239169 -1.02269e-19)
(-0.0458162 -0.0241457 3.02789e-20)
(-0.0109713 -0.00601318 0)
(0.242474 0.150715 0)
(1.14155 0.692018 -6.52085e-21)
(1.34084 0.819378 -7.59273e-21)
(1.36104 0.847126 -5.36984e-22)
(1.31177 0.833738 -9.96824e-21)
(1.24251 0.807403 -4.27582e-20)
(1.17044 0.778087 2.13618e-20)
(1.09573 0.745416 -2.00129e-20)
(1.01945 0.707796 7.07767e-20)
(0.944596 0.664232 -1.41823e-19)
(0.88553 0.622282 -7.38694e-22)
(0.846889 0.588192 -3.96463e-20)
(0.785969 0.535852 1.43528e-19)
(0.609862 0.414387 -3.06987e-22)
(0.33902 0.236359 -6.69091e-20)
(0.120052 0.0924376 -1.17993e-19)
(-0.0101989 0.0062583 0)
(-0.0594117 -0.0293814 0)
(-0.0501429 -0.028057 3.24109e-20)
(-0.0116781 -0.0068092 -1.92057e-20)
(0.240942 0.159 -2.60847e-21)
(1.12959 0.729429 1.24989e-20)
(1.32757 0.864413 8.10959e-21)
(1.34641 0.892647 0)
(1.29674 0.877508 -3.1455e-22)
(1.22731 0.848986 -4.29906e-20)
(1.15475 0.817378 5.42231e-20)
(1.07919 0.78219 8.16306e-20)
(1.0017 0.741658 9.30938e-20)
(0.92544 0.69447 -1.16808e-19)
(0.865589 0.648551 -1.22619e-19)
(0.826811 0.610726 1.06014e-19)
(0.763554 0.552577 0)
(0.584553 0.421556 -3.05588e-20)
(0.319293 0.236952 -7.1644e-20)
(0.107099 0.0899402 -8.41797e-20)
(-0.0198676 0.00102589 -9.91799e-20)
(-0.066729 -0.0353426 2.93024e-20)
(-0.0546319 -0.0324046 -1.73508e-20)
(-0.01253 -0.00774141 4.03423e-24)
(0.239658 0.16706 0)
(1.1183 0.76451 0)
(1.31407 0.906774 5.13824e-22)
(1.33153 0.935397 0)
(1.28153 0.918676 3.13645e-20)
(1.21198 0.8882 3.25128e-20)
(1.13901 0.854544 0)
(1.06263 0.817107 1.02282e-20)
(0.983909 0.773941 1.573e-19)
(0.906079 0.723322 -2.68855e-19)
(0.845165 0.673224 0)
(0.80623 0.630971 -6.82963e-20)
(0.741424 0.566443 -4.58665e-22)
(0.561333 0.42644 -2.31387e-22)
(0.302469 0.236652 7.65586e-20)
(0.0959206 0.0873654 -9.38973e-24)
(-0.0290055 -0.00356682 -2.12308e-19)
(-0.0744386 -0.0407939 6.27078e-20)
(-0.0596435 -0.0369038 1.85771e-20)
(-0.0134951 -0.00877343 0)
(0.238636 0.174854 3.69603e-21)
(1.10742 0.797802 4.52951e-21)
(1.30046 0.946558 1.35189e-20)
(1.31662 0.975496 -3.69759e-20)
(1.26636 0.957337 5.29107e-20)
(1.19674 0.925135 0)
(1.12339 0.889669 3.52363e-20)
(1.04623 0.850243 -2.24722e-20)
(0.966246 0.804732 7.98155e-22)
(0.886658 0.750941 1.96551e-20)
(0.824271 0.696538 1.60321e-19)
(0.784932 0.649046 -2.41453e-20)
(0.719327 0.577227 -8.81072e-20)
(0.540272 0.428634 -3.50609e-20)
(0.28914 0.235174 4.10069e-20)
(0.0877856 0.0858674 -1.70322e-23)
(-0.037372 -0.00458982 5.67856e-20)
(-0.0851332 -0.0439024 -1.34243e-19)
(-0.0684452 -0.0419391 1.59076e-19)
(-0.0154297 -0.0103317 2.35383e-20)
(0.237658 0.182393 -4.76449e-22)
(1.097 0.829359 1.95735e-21)
(1.28695 0.983914 1.34091e-21)
(1.30184 1.01308 -1.7447e-20)
(1.25138 0.993618 -9.9286e-21)
(1.18174 0.959884 -6.05363e-20)
(1.10807 0.922834 1.14535e-20)
(1.03015 0.881664 -9.50784e-20)
(0.948877 0.834099 -1.77217e-19)
(0.867321 0.777452 -1.62658e-19)
(0.802956 0.718768 0)
(0.762675 0.665223 -1.05658e-19)
(0.696771 0.584792 1.26621e-19)
(0.521141 0.427355 0)
(0.280404 0.231149 -8.76966e-20)
(0.0865477 0.0845272 5.14109e-20)
(-0.0396731 -0.00237574 -6.07014e-20)
(-0.0982851 -0.046326 -7.1823e-20)
(-0.0855225 -0.0502764 -1.27663e-19)
(-0.0205991 -0.0138722 -1.00782e-19)
(0.237043 0.189757 -3.6157e-22)
(1.08693 0.859213 -2.07375e-21)
(1.27365 1.01893 -7.20176e-21)
(1.28734 1.04826 -2.15185e-20)
(1.23674 1.02763 2.22077e-20)
(1.1671 0.992553 -3.70091e-20)
(1.09316 0.954112 3.75407e-20)
(1.01453 0.911451 -9.99114e-20)
(0.931932 0.862121 -1.06221e-19)
(0.848217 0.802977 1.72804e-19)
(0.781292 0.740197 3.56716e-19)
(0.739252 0.679933 0)
(0.673039 0.58923 0)
(0.50301 0.421677 -4.02842e-20)
(0.276372 0.222536 0)
(0.0942425 0.0784287 1.10152e-19)
(-0.0281971 -0.00737657 1.29832e-19)
(-0.0998629 -0.0569776 0)
(-0.103488 -0.0652138 0)
(-0.0303535 -0.020897 1.08088e-19)
(0.236318 0.196697 1.43409e-21)
(1.07725 0.887398 7.39305e-22)
(1.26065 1.05174 -4.81557e-21)
(1.2732 1.08118 1.6235e-20)
(1.22252 1.05948 2.23663e-20)
(1.15292 1.02323 4.38593e-20)
(1.07877 0.983581 -5.2943e-20)
(0.999477 0.939659 -3.17296e-22)
(0.915543 0.888855 -1.06116e-21)
(0.829492 0.827608 -5.08183e-22)
(0.759412 0.761082 1.84973e-19)
(0.714529 0.693703 0)
(0.647315 0.591025 1.29039e-19)
(0.483849 0.411147 8.67988e-20)
(0.273722 0.206147 2.02774e-19)
(0.109293 0.0574815 5.91913e-20)
(-0.000763435 -0.0341633 -6.96462e-20)
(-0.0676489 -0.0860941 -4.13237e-20)
(-0.0872075 -0.0833673 0)
(-0.0356799 -0.0277486 1.16457e-19)
(0.235956 0.203655 -5.29311e-21)
(1.06796 0.914028 0)
(1.24798 1.0824 -3.30689e-21)
(1.25947 1.11192 1.21445e-20)
(1.20879 1.08929 -2.17704e-20)
(1.13927 1.052 -5.691e-20)
(1.06498 1.01131 1.09383e-19)
(0.985062 0.966341 -7.53645e-21)
(0.899808 0.914347 0)
(0.811292 0.851395 -1.95485e-19)
(0.737488 0.781638 -4.08175e-19)
(0.688503 0.707125 1.61352e-20)
(0.618925 0.591034 1.80456e-19)
(0.461523 0.396437 0)
(0.267764 0.180841 1.37412e-19)
(0.121323 0.019109 0)
(0.0290754 -0.0918258 0)
(-0.00876916 -0.144686 -4.43856e-20)
(0.00103243 -0.109306 0)
(0.0150265 -0.00905338 3.13679e-20)
(0.235367 0.210081 -7.60061e-21)
(1.05904 0.939439 0)
(1.23564 1.11114 -3.4365e-21)
(1.24612 1.14075 0)
(1.19555 1.11733 1.04542e-20)
(1.1261 1.07917 0)
(1.05174 1.0376 6.3668e-21)
(0.971215 0.991835 1.43509e-20)
(0.884628 0.938961 1.36508e-20)
(0.793473 0.874733 -2.17623e-19)
(0.715333 0.802393 1.2584e-20)
(0.660793 0.721175 1.29894e-19)
(0.58695 0.590516 1.77425e-19)
(0.433773 0.378594 2.32205e-20)
(0.253957 0.148868 1.08505e-19)
(0.120221 -0.0323894 0)
(0.0427663 -0.168902 1.45861e-19)
(0.0265051 -0.164746 -8.58006e-20)
(0.0174807 0.0217747 1.01205e-19)
(-0.038682 0.468562 -1.20218e-19)
(0.234844 0.216348 7.28835e-21)
(1.05026 0.963482 7.82937e-21)
(1.22357 1.13827 0)
(1.23302 1.16811 9.75345e-22)
(1.1826 1.14417 -2.53773e-20)
(1.11314 1.10542 9.53134e-20)
(1.03872 1.06326 4.17368e-20)
(0.957517 1.01706 0)
(0.869464 0.963755 9.38225e-20)
(0.775351 0.898865 -1.17491e-20)
(0.691984 0.82473 0)
(0.629852 0.737301 0)
(0.548521 0.59025 1.61316e-19)
(0.396746 0.357597 -7.16626e-20)
(0.228634 0.111921 -1.11488e-19)
(0.104803 -0.0947746 0)
(0.0359469 -0.122839 7.41437e-20)
(-0.000790963 0.440755 -8.6216e-20)
(0.0254685 1.96102 -4.90801e-20)
(0.0507055 2.84214 -5.99739e-20)
(0.234086 0.222133 -6.68592e-21)
(1.04171 0.986337 -1.2222e-20)
(1.21179 1.16382 -8.42336e-22)
(1.22017 1.19387 -6.11739e-21)
(1.17001 1.16963 0)
(1.10051 1.13047 6.43278e-20)
(1.02617 1.08797 6.2292e-20)
(0.944187 1.04161 -7.36353e-21)
(0.854635 0.988261 1.40286e-20)
(0.757373 0.9233 2.12098e-19)
(0.668151 0.848308 2.14082e-19)
(0.596686 0.756139 1.51166e-19)
(0.503906 0.591967 1.65127e-19)
(0.349368 0.334321 -1.72232e-19)
(0.195301 0.0778121 -1.71194e-19)
(0.0717533 -0.0248767 0)
(0.0289839 0.949378 0)
(0.0724577 2.61332 4.2118e-20)
(0.0757349 3.22881 0)
(0.0785054 3.39501 1.11255e-19)
(0.236241 0.227658 0)
(1.03379 1.00842 0)
(1.19998 1.18764 0)
(1.2074 1.21789 -9.47362e-22)
(1.15744 1.19346 -2.1858e-20)
(1.08801 1.15419 4.45776e-20)
(1.01401 1.11163 4.22205e-20)
(0.931165 1.06535 -7.43246e-21)
(0.840089 1.01231 1.22748e-19)
(0.739557 0.947897 -1.2645e-21)
(0.643989 0.873051 4.31629e-19)
(0.561743 0.778236 -1.75075e-20)
(0.45312 0.597993 2.06909e-20)
(0.290832 0.309452 2.52851e-20)
(0.144466 0.0777809 -1.11096e-21)
(0.0663887 1.06823 3.12314e-22)
(0.102203 2.80027 -2.26651e-19)
(0.106602 3.30727 -8.57391e-20)
(0.101418 3.42347 4.63888e-20)
(0.0942508 3.44203 -5.32243e-20)
(0.157953 0.172093 5.0404e-21)
(1.02119 1.03245 0)
(1.18791 1.20996 -2.25093e-21)
(1.19516 1.24063 1.14905e-20)
(1.14535 1.21614 -3.66961e-20)
(1.07634 1.17705 -4.55423e-20)
(1.00203 1.13429 -4.67142e-20)
(0.918488 1.08834 9.27431e-20)
(0.825921 1.036 -1.0381e-19)
(0.722177 0.9728 0)
(0.619916 0.899129 2.17771e-19)
(0.525665 0.803876 -1.27187e-19)
(0.402602 0.627344 0)
(0.22227 0.290703 2.54848e-20)
(0.0981612 0.665019 5.82587e-20)
(0.114842 2.62417 -6.504e-20)
(0.158501 3.32716 7.3905e-20)
(0.146402 3.42773 4.06477e-20)
(0.123559 3.44633 4.60656e-20)
(0.10707 3.45526 7.61352e-20)
(0.270394 0.264341 -8.83979e-21)
(1.00125 1.04086 0)
(1.16769 1.23512 5.27417e-21)
(1.17946 1.27192 -7.11322e-21)
(1.12677 1.24954 3.20564e-20)
(1.0572 1.2107 4.08265e-20)
(0.981654 1.16936 5.82785e-20)
(0.89731 1.12443 7.17995e-21)
(0.80277 1.07392 1.04595e-19)
(0.694798 1.01416 1.96674e-19)
(0.583623 0.944809 1.27452e-20)
(0.468979 0.843215 1.1755e-19)
(0.3051 0.63129 2.06337e-20)
(0.180994 0.778323 -2.52192e-20)
(0.188568 2.5278 -5.53938e-20)
(0.239538 3.32274 5.64695e-20)
(0.223064 3.44448 -6.29711e-20)
(0.191592 3.46497 -3.61665e-20)
(0.160977 3.49018 -3.59459e-20)
(0.117925 3.48765 -5.07256e-21)
(0.259904 0.262793 0)
(0.997068 1.06297 3.72843e-21)
(1.15792 1.25839 -1.75341e-21)
(1.1675 1.29538 7.0369e-23)
(1.11484 1.27275 1.82179e-20)
(1.04523 1.23401 -3.80483e-20)
(0.969232 1.19277 -3.59785e-20)
(0.884387 1.14855 6.76243e-21)
(0.788713 1.09934 -1.12345e-19)
(0.678134 1.04224 -2.3822e-21)
(0.561227 0.97708 -4.11335e-19)
(0.434637 0.875233 1.69177e-20)
(0.269915 0.702506 -1.99798e-20)
(0.216377 1.51314 -2.38413e-20)
(0.283869 3.1496 3.51328e-21)
(0.294037 3.44121 -1.43926e-22)
(0.256017 3.48821 1.0532e-19)
(0.224327 3.5154 5.65951e-20)
(0.180154 3.53697 -2.4624e-20)
(0.132513 3.53565 -2.9498e-20)
(0.245339 0.260153 1.13888e-20)
(0.991889 1.08758 2.6843e-20)
(1.14773 1.28374 -5.00605e-21)
(1.15513 1.32047 5.97053e-22)
(1.1024 1.29744 0)
(1.03283 1.25867 -4.5617e-20)
(0.956665 1.2176 -4.90573e-20)
(0.871573 1.17407 6.31594e-21)
(0.775081 1.12638 -1.24296e-20)
(0.662472 1.07244 -1.89856e-19)
(0.540901 1.01241 -1.95935e-19)
(0.404108 0.909272 -1.42678e-19)
(0.267949 0.874753 -1.54089e-19)
(0.286742 2.35666 1.56212e-19)
(0.368173 3.36995 1.36701e-19)
(0.335822 3.49091 0)
(0.291274 3.53302 0)
(0.256177 3.56889 -2.06354e-20)
(0.216325 3.61322 0)
(0.148598 3.60242 -3.77576e-20)
(0.234997 0.261477 -1.87527e-20)
(0.984721 1.11292 -2.505e-20)
(1.13608 1.3103 0)
(1.14144 1.34637 1.1779e-21)
(1.08866 1.32279 1.1541e-20)
(1.01929 1.28391 -6.05341e-20)
(0.943287 1.24307 -2.98089e-20)
(0.858178 1.20022 5.10671e-21)
(0.761131 1.15408 -8.7796e-20)
(0.646983 1.10351 1.00995e-20)
(0.52186 1.04892 0)
(0.374059 0.944887 0)
(0.289932 1.20941 -1.44638e-19)