/*--------------------------------*- C++ -*----------------------------------*\
  =========                 |
  \\      /  F ield         | OpenFOAM: The Open Source CFD Toolbox
   \\    /   O peration     | Website:  https://openfoam.org
    \\  /    A nd           | Version:  6
     \\/     M anipulation  |
\*---------------------------------------------------------------------------*/
FoamFile
{
    version     2.0;
    format      ascii;
    class       volVectorField;
    location    "8.5";
    object      U;
}
// * * * * * * * * * * * * * * * * * * * * * * * * * * * * * * * * * * * * * //

dimensions      [0 1 -1 0 0 0 0];

internalField   nonuniform List<vector> 
8800
(
(0.987123 -0.0766065 0)
(1.00152 -0.0550916 0)
(0.999492 -0.0285054 0)
(1.00043 -0.0152984 0)
(1.00065 -0.00863294 0)
(1.0001 -0.00484 0)
(0.999893 -0.00267078 0)
(0.999927 -0.00145218 0)
(0.999949 -0.000688256 0)
(1.00003 -0.000133242 0)
(0.999963 0.000457711 0)
(0.999937 0.00109939 0)
(0.999898 0.00200786 0)
(0.999935 0.0036233 0)
(1.0004 0.00652411 0)
(1.00066 0.01147 0)
(1.00003 0.0208434 0)
(0.998787 0.038556 0)
(1.00686 0.0724012 0)
(0.771203 0.0366334 0)
(0.364029 -0.0159286 0)
(1.04407 -0.0763019 0)
(1.0854 -0.0699143 0)
(1.04619 -0.05302 0)
(1.0232 -0.0381679 0)
(1.01118 -0.0253138 0)
(1.00561 -0.0163265 0)
(1.00277 -0.0101605 0)
(1.00146 -0.0056648 0)
(1.00108 -0.00208042 0)
(1.00104 0.000900651 0)
(1.00116 0.00421277 0)
(1.00194 0.00811768 0)
(1.00393 0.0132746 0)
(1.00789 0.0205678 0)
(1.01619 0.0315421 0)
(1.03298 0.045709 0)
(1.0641 0.0610658 0)
(1.09228 0.0753451 0)
(0.839968 0.0562813 0)
(0.219676 -0.00206989 0)
(1.07716 -0.0477774 0)
(1.0987 -0.0449693 0)
(1.06329 -0.0375758 0)
(1.03821 -0.031338 0)
(1.02154 -0.0245798 0)
(1.01188 -0.0172158 0)
(1.00706 -0.0108211 0)
(1.00476 -0.00555676 0)
(1.00407 -0.000803421 0)
(1.0042 0.00384706 0)
(1.0055 0.00866607 0)
(1.00887 0.0143935 0)
(1.01574 0.0212447 0)
(1.02868 0.0285004 0)
(1.04941 0.034794 0)
(1.07908 0.0408225 0)
(1.10619 0.0480226 0)
(0.946372 0.0398666 0)
(0.219428 0.00207921 0)
(0.18163 -0.000460536 0)
(1.02535 -0.0316547 0)
(1.10732 -0.0361251 0)
(1.07811 -0.0305041 0)
(1.05303 -0.0247563 0)
(1.03645 -0.0200384 0)
(1.02483 -0.0159691 0)
(1.01669 -0.011561 0)
(1.01173 -0.00658037 0)
(1.00958 -0.000908142 0)
(1.01021 0.00501069 0)
(1.01369 0.01015 0)
(1.02007 0.0146895 0)
(1.02976 0.0186329 0)
(1.04355 0.0227758 0)
(1.06369 0.028059 0)
(1.09463 0.0339982 0)
(1.09836 0.0366902 0)
(0.840641 0.0200369 0)
(0.181215 0.000472458 0)
(0.166383 -7.85049e-05 0)
(0.974378 -0.0157292 0)
(1.10418 -0.0235542 0)
(1.08427 -0.0232747 0)
(1.05691 -0.0210852 0)
(1.03905 -0.018456 0)
(1.02733 -0.0147322 0)
(1.01978 -0.0104818 0)
(1.01516 -0.00572556 0)
(1.01318 -0.000603464 0)
(1.01364 0.00445433 0)
(1.01677 0.00935533 0)
(1.02267 0.0137048 0)
(1.03194 0.0174886 0)
(1.0465 0.0204865 0)
(1.06863 0.0227248 0)
(1.09911 0.0242513 0)
(1.0764 0.0217525 0)
(0.772723 0.00766037 0)
(0.165797 9.13309e-05 0)
(0.163105 4.85146e-05 0)
(0.941458 -0.00599984 0)
(1.09279 -0.013564 0)
(1.08411 -0.0167358 0)
(1.05951 -0.0176947 0)
(1.04259 -0.0167715 0)
(1.03096 -0.0144254 0)
(1.0233 -0.0108249 0)
(1.01852 -0.00609811 0)
(1.01624 -0.000478649 0)
(1.01678 0.00524935 0)
(1.02005 0.0102358 0)
(1.02601 0.0142114 0)
(1.03534 0.016951 0)
(1.04955 0.0184674 0)
(1.06946 0.0182316 0)
(1.09436 0.016122 0)
(1.05291 0.0107774 0)
(0.742465 0.00216925 0)
(0.162259 -3.11627e-05 0)
(0.162284 1.97975e-05 0)
(0.91977 -0.00344861 0)
(1.07573 -0.010791 0)
(1.07793 -0.0162659 0)
(1.05872 -0.0179621 0)
(1.04542 -0.0175273 0)
(1.03611 -0.0152381 0)
(1.02957 -0.0113379 0)
(1.0251 -0.00627943 0)
(1.02277 -0.000180207 0)
(1.02324 0.00600831 0)
(1.02627 0.0113773 0)
(1.03145 0.015531 0)
(1.03909 0.0183647 0)
(1.04977 0.0192394 0)
(1.06646 0.0187102 0)
(1.0824 0.0148159 0)
(1.03013 0.00749448 0)
(0.727244 0.00121363 0)
(0.161138 -7.55183e-07 0)
(0.162124 2.62494e-05 0)
(0.905235 -0.00152937 0)
(1.05699 -0.00695457 0)
(1.06763 -0.0127858 0)
(1.05704 -0.0161868 0)
(1.0465 -0.0164045 0)
(1.03878 -0.0144035 0)
(1.03289 -0.01082 0)
(1.02861 -0.00590764 0)
(1.02624 0.000205533 0)
(1.02657 0.00658714 0)
(1.02938 0.011748 0)
(1.03403 0.0155458 0)
(1.04045 0.0178482 0)
(1.04955 0.0183935 0)
(1.06028 0.0161834 0)
(1.06665 0.0111323 0)
(1.01009 0.00443289 0)
(0.718671 0.000534364 0)
(0.16062 -2.06216e-06 0)
(0.162229 1.94764e-05 0)
(0.897539 -0.000620676 0)
(1.04362 -0.00360896 0)
(1.05817 -0.00758043 0)
(1.0534 -0.010371 0)
(1.04769 -0.0113121 0)
(1.04238 -0.0104365 0)
(1.03768 -0.00799886 0)
(1.03395 -0.00413095 0)
(1.0318 0.000990106 0)
(1.03187 0.00623907 0)
(1.03402 0.0103265 0)
(1.03767 0.012891 0)
(1.04229 0.0139217 0)
(1.04755 0.0133039 0)
(1.053 0.0108243 0)
(1.05352 0.00679405 0)
(0.997112 0.002511 0)
(0.714135 0.000367507 0)
(0.160268 1.10852e-05 0)
(0.162477 2.41465e-05 0)
(0.894156 -7.76567e-05 0)
(1.03636 -0.0014113 0)
(1.05198 -0.00351546 0)
(1.05018 -0.00527786 0)
(1.04706 -0.00616951 0)
(1.04359 -0.00595012 0)
(1.04012 -0.00449465 0)
(1.03707 -0.00180883 0)
(1.03503 0.00191657 0)
(1.0348 0.00564865 0)
(1.03627 0.00833068 0)
(1.03873 0.00966394 0)
(1.04166 0.00969269 0)
(1.0446 0.00856733 0)
(1.0471 0.00649879 0)
(1.04504 0.00385203 0)
(0.989894 0.00143417 0)
(0.711524 0.000260195 0)
(0.159945 1.22277e-05 0)
(0.162868 3.08871e-05 0)
(0.893095 0.000211131 0)
(1.03316 -0.000262794 0)
(1.04887 -0.00116537 0)
(1.04833 -0.00200898 0)
(1.04663 -0.0024799 0)
(1.04444 -0.00234857 0)
(1.04197 -0.00142631 0)
(1.03953 0.000361539 0)
(1.03762 0.00289209 0)
(1.03703 0.00534631 0)
(1.03772 0.0068656 0)
(1.03909 0.00728362 0)
(1.04066 0.00680824 0)
(1.04209 0.00566416 0)
(1.0431 0.00412035 0)
(1.04008 0.00244439 0)
(0.985862 0.00102361 0)
(0.709757 0.000259006 0)
(0.159615 1.93817e-05 0)
(0.163361 3.43348e-05 0)
(0.893251 0.000384516 0)
(1.03209 0.000390719 0)
(1.04766 0.000163924 0)
(1.04759 -4.92439e-05 0)
(1.04653 -8.55464e-05 0)
(1.04504 0.000202973 0)
(1.04317 0.000959372 0)
(1.04112 0.00225042 0)
(1.03925 0.00397151 0)
(1.03824 0.00548975 0)
(1.03823 0.00620045 0)
(1.03874 0.00603951 0)
(1.03939 0.00533926 0)
(1.03997 0.00427935 0)
(1.0403 0.00307791 0)
(1.03693 0.00190308 0)
(0.983204 0.000921861 0)
(0.708201 0.000296084 0)
(0.159193 2.69147e-05 0)
(0.163966 4.16521e-05 0)
(0.894163 0.000563885 0)
(1.03224 0.000855208 0)
(1.04765 0.00103834 0)
(1.04774 0.00125822 0)
(1.04695 0.00159572 0)
(1.04578 0.00212723 0)
(1.04421 0.00292497 0)
(1.04232 0.00400355 0)
(1.04034 0.00523204 0)
(1.0389 0.00611054 0)
(1.03819 0.00628256 0)
(1.03802 0.00576784 0)
(1.03805 0.00487844 0)
(1.03813 0.00383848 0)
(1.0381 0.00278325 0)
(1.03458 0.00180809 0)
(0.981037 0.000978831 0)
(0.70657 0.000359615 0)
(0.158652 3.57181e-05 0)
(0.164731 5.26302e-05 0)
(0.895697 0.00075901 0)
(1.03318 0.00128686 0)
(1.04844 0.00177234 0)
(1.04856 0.00232659 0)
(1.04785 0.00299278 0)
(1.04676 0.00379789 0)
(1.04525 0.00475067 0)
(1.0433 0.00579902 0)
(1.04105 0.00675769 0)
(1.03908 0.00718775 0)
(1.0378 0.00688777 0)
(1.03704 0.00611727 0)
(1.0366 0.00508045 0)
(1.03634 0.00397329 0)
(1.03609 0.00291548 0)
(1.03245 0.00196419 0)
(0.978913 0.00113552 0)
(0.704686 0.000446262 0)
(0.157961 4.60927e-05 0)
(0.165704 6.6586e-05 0)
(0.897859 0.00098918 0)
(1.0348 0.00175058 0)
(1.04989 0.00251231 0)
(1.04998 0.00337744 0)
(1.04923 0.00436868 0)
(1.04807 0.00547983 0)
(1.04643 0.00666678 0)
(1.04423 0.00780909 0)
(1.04154 0.00864983 0)
(1.03895 0.00876762 0)
(1.03706 0.00812107 0)
(1.03577 0.00704593 0)
(1.03494 0.00578539 0)
(1.0344 0.00451797 0)
(1.03398 0.00334334 0)
(1.03022 0.00230094 0)
(0.976569 0.00137686 0)
(0.702406 0.000558876 0)
(0.157083 5.86949e-05 0)
(0.166946 8.50957e-05 0)
(0.900735 0.00127827 0)
(1.03711 0.00230263 0)
(1.052 0.0033581 0)
(1.052 0.00455454 0)
(1.05112 0.0059026 0)
(1.04978 0.00737044 0)
(1.04785 0.00886674 0)
(1.04522 0.0102002 0)
(1.04189 0.0110277 0)
(1.03854 0.0109072 0)
(1.03597 0.00992838 0)
(1.03416 0.00850272 0)
(1.03295 0.00693813 0)
(1.03215 0.00541504 0)
(1.03156 0.00402604 0)
(1.02769 0.00280134 0)
(0.973802 0.00170474 0)
(0.699584 0.000702147 0)
(0.155975 7.41647e-05 0)
(0.16854 0.000109502 0)
(0.904478 0.00164974 0)
(1.04018 0.00299393 0)
(1.05483 0.00439401 0)
(1.05469 0.00597689 0)
(1.05361 0.0077453 0)
(1.05197 0.00964477 0)
(1.04959 0.0115358 0)
(1.04633 0.0131488 0)
(1.04215 0.0140362 0)
(1.03787 0.0137009 0)
(1.03451 0.0123495 0)
(1.03212 0.0105067 0)
(1.03049 0.0085447 0)
(1.02942 0.00666621 0)
(1.02866 0.00496757 0)
(1.02464 0.00347444 0)
(0.97042 0.00213037 0)
(0.696057 0.000882531 0)
(0.154579 9.32656e-05 0)
(0.170601 0.000141969 0)
(0.90931 0.00213385 0)
(1.04417 0.00388518 0)
(1.05851 0.00571231 0)
(1.05818 0.00776642 0)
(1.05681 0.0100487 0)
(1.05473 0.0124826 0)
(1.05173 0.0148722 0)
(1.04763 0.016854 0)
(1.04234 0.0178527 0)
(1.0369 0.0172877 0)
(1.03259 0.0154884 0)
(1.02952 0.0131282 0)
(1.02742 0.0106566 0)
(1.02604 0.00831183 0)
(1.02508 0.00620077 0)
(1.02088 0.00434665 0)
(0.966217 0.00267258 0)
(0.69163 0.00110874 0)
(0.152827 0.000116926 0)
(0.173284 0.000186372 0)
(0.915539 0.00277713 0)
(1.04929 0.00506138 0)
(1.06324 0.00742573 0)
(1.06264 0.0100583 0)
(1.06087 0.012979 0)
(1.05819 0.0160858 0)
(1.05436 0.0191047 0)
(1.04913 0.0215521 0)
(1.04244 0.0226964 0)
(1.03555 0.0218514 0)
(1.0301 0.0194938 0)
(1.02621 0.0164822 0)
(1.02355 0.0133648 0)
(1.02181 0.0104258 0)
(1.02062 0.00778532 0)
(1.0162 0.0054625 0)
(0.960953 0.00335891 0)
(0.686062 0.00139252 0)
(0.150631 0.000146498 0)
(0.176818 0.000249575 0)
(0.923617 0.00365517 0)
(1.05588 0.00663962 0)
(1.06935 0.00965893 0)
(1.06838 0.0129904 0)
(1.06603 0.0167194 0)
(1.06252 0.0206924 0)
(1.05756 0.0245099 0)
(1.05087 0.0275304 0)
(1.04238 0.0288364 0)
(1.03371 0.0276224 0)
(1.02687 0.0245564 0)
(1.02199 0.0207251 0)
(1.01867 0.0167986 0)
(1.01649 0.0131175 0)
(1.01503 0.00981431 0)
(1.01034 0.00689464 0)
(0.954328 0.00423417 0)
(0.679041 0.00175272 0)
(0.147881 0.000184386 0)
(0.181539 0.000341197 0)
(0.934216 0.00487622 0)
(1.06454 0.00875258 0)
(1.07742 0.0125316 0)
(1.07586 0.0167214 0)
(1.07266 0.021522 0)
(1.06798 0.0266323 0)
(1.0615 0.0314565 0)
(1.0529 0.0351559 0)
(1.04213 0.0366057 0)
(1.03125 0.0348846 0)
(1.02272 0.030915 0)
(1.01665 0.0260599 0)
(1.01251 0.021131 0)
(1.00979 0.0165397 0)
(1.00801 0.0124273 0)
(1.00299 0.00876476 0)
(0.945956 0.00537913 0)
(0.670143 0.00222152 0)
(0.144432 0.000234797 0)
(0.187956 0.000473321 0)
(0.9483 0.00658855 0)
(1.07614 0.0115879 0)
(1.08822 0.016285 0)
(1.08576 0.0216476 0)
(1.08135 0.0279446 0)
(1.07503 0.0344862 0)
(1.06647 0.0405044 0)
(1.05533 0.04493 0)
(1.04167 0.046423 0)
(1.02808 0.0439839 0)
(1.01748 0.0388659 0)
(1.00996 0.0327448 0)
(1.0048 0.0265856 0)
(1.0014 0.0208893 0)
(0.999175 0.0158116 0)
(0.99372 0.0112569 0)
(0.935376 0.00693452 0)
(0.658837 0.00285171 0)
(0.140099 0.000303136 0)
(0.196898 0.000672906 0)
(0.967084 0.00913363 0)
(1.09149 0.0156232 0)
(1.10248 0.02158 0)
(1.09875 0.0286359 0)
(1.09263 0.0368435 0)
(1.08411 0.0451292 0)
(1.07273 0.0524093 0)
(1.05828 0.0574687 0)
(1.04098 0.0587631 0)
(1.0241 0.0552931 0)
(1.01102 0.0487304 0)
(1.00171 0.0410687 0)
(0.995262 0.0334136 0)
(0.990947 0.0263689 0)
(0.988081 0.0201349 0)
(0.982052 0.0145369 0)
(0.922126 0.00905653 0)
(0.644604 0.00370555 0)
(0.134672 0.00039189 0)
(0.209728 0.00101699 0)
(0.992108 0.0133361 0)
(1.11157 0.0217127 0)
(1.12103 0.0294772 0)
(1.11545 0.0388664 0)
(1.10688 0.0493913 0)
(1.09519 0.0594921 0)
(1.08005 0.0679432 0)
(1.06145 0.0733613 0)
(1.0398 0.0740543 0)
(1.01905 0.0691359 0)
(1.00308 0.0607902 0)
(0.991619 0.0513066 0)
(0.983565 0.0418761 0)
(0.978035 0.033182 0)
(0.97426 0.0255096 0)
(0.967452 0.0186398 0)
(0.905729 0.0118072 0)
(0.62705 0.00483551 0)
(0.127927 0.000501969 0)
(0.228697 0.00169645 0)
(1.02643 0.0205435 0)
(1.1385 0.0313 0)
(1.14524 0.0418811 0)
(1.13635 0.0542294 0)
(1.12377 0.0671686 0)
(1.10754 0.0788726 0)
(1.08756 0.0880616 0)
(1.06401 0.0932479 0)
(1.03743 0.0927019 0)
(1.01242 0.0858246 0)
(0.993232 0.0753657 0)
(0.979317 0.0638372 0)
(0.969331 0.0524285 0)
(0.962258 0.041827 0)
(0.957255 0.0324085 0)
(0.949325 0.0239171 0)
(0.885257 0.0154207 0)
(0.605457 0.00636182 0)
(0.119557 0.000653958 0)
(0.257158 0.00325972 0)
(1.07582 0.0339202 0)
(1.17477 0.0483483 0)
(1.17631 0.0627812 0)
(1.16163 0.0781978 0)
(1.14297 0.0929192 0)
(1.12056 0.10527 0)
(1.09454 0.114039 0)
(1.06526 0.117857 0)
(1.0333 0.115118 0)
(1.00382 0.105662 0)
(0.981216 0.0928096 0)
(0.964609 0.0791461 0)
(0.952361 0.0657585 0)
(0.943327 0.0532616 0)
(0.936574 0.0420234 0)
(0.926865 0.0318328 0)
(0.859127 0.0211032 0)
(0.578242 0.00859485 0)
(0.109669 0.000852672 0)
(0.298294 0.010836 -2.54473e-21)
(1.14097 0.0615814 -1.85048e-21)
(1.22 0.0800561 4.8751e-22)
(1.21175 0.0979189 0)
(1.18904 0.114448 -9.64588e-37)
(1.1628 0.128909 4.57623e-23)
(1.13318 0.140125 -2.73426e-22)
(1.10036 0.147048 0)
(1.06474 0.148448 9.91388e-36)
(1.02688 0.14282 -7.44529e-22)
(0.992425 0.130462 0)
(0.965907 0.115209 -1.06596e-21)
(0.946003 0.0996032 -3.26299e-21)
(0.930761 0.0845732 -1.581e-21)
(0.918858 0.0706997 -4.98732e-22)
(0.909181 0.0583124 -3.02851e-22)
(0.896312 0.0473085 0)
(0.824915 0.0346861 2.20366e-22)
(0.542876 0.0183984 2.63165e-22)
(0.0996704 0.00348344 4.72312e-21)
(0.320686 0.0288991 -4.90473e-21)
(1.1938 0.108662 1.05813e-22)
(1.26139 0.130704 -2.56774e-22)
(1.24387 0.147193 0)
(1.21343 0.161762 3.58361e-22)
(1.17982 0.174236 1.58902e-22)
(1.14325 0.183344 -1.79659e-22)
(1.10376 0.188074 -1.27794e-21)
(1.0616 0.187132 0)
(1.01716 0.178987 3.1349e-21)
(0.976633 0.164308 3.46522e-21)
(0.944926 0.147373 1.11289e-21)
(0.920428 0.130708 4.40693e-21)
(0.900894 0.115087 6.5167e-21)
(0.884843 0.100984 0)
(0.871005 0.0887544 9.75428e-21)
(0.85344 0.0787617 1.43774e-20)
(0.783042 0.064125 1.62129e-20)
(0.51895 0.0425061 -1.89827e-20)
(0.0983372 0.00880025 -3.49089e-22)
(0.311392 0.0471003 0)
(1.22468 0.169629 -1.48172e-21)
(1.29249 0.193759 0)
(1.26881 0.206395 2.253e-21)
(1.23211 0.217045 0)
(1.19224 0.225816 1.05663e-21)
(1.14956 0.231525 1.9942e-22)
(1.1041 0.233002 -1.88527e-21)
(1.05604 0.228943 -3.09065e-22)
(1.00568 0.217866 1.50763e-21)
(0.959721 0.200931 8.04159e-21)
(0.923612 0.182776 -5.01762e-23)
(0.895497 0.165795 -3.30322e-21)
(0.87284 0.150602 -6.41818e-21)
(0.854055 0.137516 7.81486e-21)
(0.83791 0.126731 -1.40653e-20)
(0.819535 0.118061 -1.93655e-21)
(0.756845 0.104152 0)
(0.516668 0.0725668 8.83319e-23)
(0.105097 0.0155247 0)
(0.298019 0.0620558 -3.8062e-20)
(1.23799 0.233922 1.53378e-20)
(1.31146 0.261152 7.97639e-21)
(1.28448 0.270082 -1.49699e-21)
(1.24361 0.276477 2.28251e-21)
(1.19941 0.280866 -2.6493e-21)
(1.15201 0.282586 2.09695e-22)
(1.10167 0.280299 0)
(1.04863 0.272734 -5.85368e-21)
(0.993279 0.25847 0)
(0.943023 0.239144 -4.07073e-21)
(0.903708 0.219684 -5.75336e-21)
(0.873262 0.202304 -3.68302e-21)
(0.849012 0.187329 -4.75904e-21)
(0.829261 0.174823 0)
(0.812665 0.164811 0)
(0.795061 0.156891 -1.29254e-20)
(0.738379 0.142325 2.59866e-21)
(0.511955 0.100099 -1.53499e-21)
(0.106382 0.0215324 -1.81649e-21)
(0.286262 0.0752949 2.80647e-20)
(1.23964 0.297309 0)
(1.32071 0.328671 -2.23259e-20)
(1.2919 0.334473 -5.67079e-21)
(1.2484 0.336663 -4.27577e-21)
(1.20107 0.336989 0)
(1.15029 0.334654 -5.24682e-22)
(1.09629 0.328518 1.59867e-21)
(1.03939 0.317311 2.52115e-21)
(0.979984 0.299669 7.49878e-21)
(0.92614 0.277705 0)
(0.884314 0.256605 -1.24695e-20)
(0.852321 0.238354 -7.9913e-21)
(0.827205 0.223057 -4.82095e-21)
(0.807065 0.210543 3.16581e-20)
(0.790491 0.200692 3.89021e-21)
(0.773647 0.192761 1.86591e-20)
(0.720588 0.17685 -9.09002e-20)
(0.502981 0.124243 5.46586e-20)
(0.105353 0.02676 -6.68279e-20)
(0.276811 0.0871975 2.95816e-20)
(1.23405 0.358099 -5.35351e-21)
(1.32271 0.394572 3.93034e-21)
(1.29299 0.397739 1.06094e-20)
(1.2478 0.396003 6.48085e-21)
(1.19826 0.392436 3.17606e-22)
(1.14496 0.386231 4.77718e-22)
(1.08807 0.376414 1.10694e-21)
(1.02799 0.361683 -5.46461e-21)
(0.965201 0.340625 0)
(0.908478 0.315799 -5.34014e-21)
(0.864781 0.292703 -3.01157e-22)
(0.831737 0.273174 -8.9389e-21)
(0.806173 0.257064 0)
(0.78602 0.244012 -6.90254e-21)
(0.76974 0.233713 -1.68121e-20)
(0.753579 0.225233 4.66724e-20)
(0.702803 0.207501 -4.69203e-20)
(0.492082 0.145753 6.73181e-20)
(0.103229 0.0313095 -7.1e-20)
(0.269657 0.0983093 -1.29142e-22)
(1.2243 0.415604 6.5372e-21)
(1.31941 0.457798 1.8827e-20)
(1.28928 0.458718 -6.5102e-21)
(1.24291 0.453461 3.72138e-21)
(1.19187 0.446315 0)
(1.13669 0.436589 1.70674e-21)
(1.07761 0.423296 -7.66114e-22)
(1.01504 0.405208 -2.44841e-21)
(0.949509 0.38083 0)
(0.89034 0.353024 -5.17475e-21)
(0.845046 0.327671 -7.32003e-21)
(0.811211 0.306465 9.77653e-21)
(0.785389 0.289108 -6.26701e-21)
(0.765331 0.275108 -3.04379e-20)
(0.749357 0.264012 1.87466e-20)
(0.733751 0.254714 5.96879e-21)
(0.684736 0.235077 0)
(0.480073 0.164876 -6.54299e-20)
(0.100413 0.0352164 -2.43531e-21)
(0.264255 0.108907 4.8278e-21)
(1.21221 0.469657 -7.50713e-21)
(1.31209 0.51764 -1.02763e-20)
(1.28188 0.516684 -2.00691e-20)
(1.23482 0.508382 1.81134e-20)
(1.18282 0.498055 -9.68723e-21)
(1.12639 0.485167 -3.6867e-21)
(1.06564 0.468735 -9.89708e-22)
(1.00097 0.447531 2.47971e-21)
(0.932995 0.419989 -1.80739e-20)
(0.871604 0.389166 -6.39186e-21)
(0.824862 0.361298 0)
(0.790322 0.338086 1.07154e-20)
(0.764335 0.319139 1.32849e-20)
(0.744432 0.303856 1.63748e-20)
(0.728814 0.291704 -2.05199e-20)
(0.713743 0.281374 -6.2027e-21)
(0.666226 0.259708 7.40257e-21)
(0.467032 0.181698 0)
(0.0970825 0.0384941 -5.34199e-21)
(0.260145 0.119077 -5.58515e-20)
(1.19906 0.520282 3.44492e-20)
(1.30192 0.573866 1.12881e-20)
(1.27183 0.571273 -1.53449e-20)
(1.22441 0.560367 1.08519e-20)
(1.17181 0.547316 -7.61259e-22)
(1.11446 0.531638 3.7034e-21)
(1.05246 0.512431 -4.41007e-22)
(0.986053 0.488391 -4.30123e-21)
(0.915879 0.457913 2.18437e-23)
(0.852351 0.424132 -1.8999e-20)
(0.804154 0.393577 1.87533e-20)
(0.768887 0.368072 -1.20685e-20)
(0.742725 0.347201 1.50517e-20)
(0.723005 0.330344 0)
(0.707778 0.316903 -1.12088e-20)
(0.693247 0.305372 -2.6576e-22)
(0.647086 0.281568 -3.25302e-20)
(0.453019 0.196327 -4.84931e-21)
(0.0932596 0.0411079 0)
(0.256998 0.128918 0)
(1.18547 0.56768 3.71499e-20)
(1.28975 0.626455 2.63327e-20)
(1.25984 0.622469 1.73346e-20)
(1.21234 0.609312 1.05088e-20)
(1.15943 0.593905 0)
(1.10146 0.575823 3.4918e-21)
(1.03849 0.554169 -2.73654e-22)
(0.970689 0.52771 8.97146e-21)
(0.898458 0.494575 -2.17521e-21)
(0.832728 0.457953 -1.39581e-20)
(0.782903 0.42461 9.37809e-21)
(0.746771 0.396534 -4.23599e-22)
(0.720353 0.37342 1.59305e-20)
(0.70081 0.354705 1.04334e-20)
(0.685997 0.339718 -2.44894e-20)
(0.67206 0.326798 2.97852e-20)
(0.627111 0.300587 8.97667e-21)
(0.437872 0.208656 3.7479e-20)
(0.0888704 0.0428409 -1.01429e-19)
(0.254558 0.138505 -1.42554e-20)
(1.17187 0.612011 2.14447e-20)
(1.2763 0.675499 -1.64041e-20)
(1.24659 0.670322 -2.01376e-20)
(1.19919 0.655237 0)
(1.1462 0.637782 8.56063e-21)
(1.08789 0.617611 -1.03034e-20)
(1.02417 0.593893 -2.18919e-22)
(0.955149 0.565385 0)
(0.881026 0.529977 -3.38715e-20)
(0.812886 0.490725 3.81957e-20)
(0.761153 0.454562 0)
(0.723891 0.42366 1.44538e-20)
(0.697054 0.397974 -4.42138e-22)
(0.677611 0.377096 -3.33062e-20)
(0.663225 0.360284 1.30839e-20)
(0.649882 0.345736 0)
(0.60611 0.317004 4.88621e-20)
(0.42151 0.218712 0)
(0.0839274 0.0439497 -4.86659e-20)
(0.252593 0.147762 1.5838e-20)
(1.15861 0.653253 2.45213e-20)
(1.26207 0.721083 -1.71913e-20)
(1.23255 0.714909 0)
(1.18537 0.698159 1.45449e-20)
(1.13245 0.678927 0)
(1.07403 0.656965 1.34962e-20)
(1.00982 0.631539 1.59487e-21)
(0.939728 0.601375 7.93469e-22)
(0.863798 0.564212 -1.67014e-20)
(0.793063 0.522608 3.68648e-21)
(0.738985 0.483651 0)
(0.700215 0.449741 -3.09866e-20)
(0.672713 0.42114 4.62888e-22)
(0.653225 0.39772 0)
(0.639238 0.378788 5.07292e-22)
(0.626461 0.362345 4.44985e-20)
(0.58375 0.330793 -4.32012e-20)
(0.403699 0.226387 1.28657e-20)
(0.078315 0.0442204 0)
(0.25074 0.156582 0)
(1.14553 0.691821 2.73823e-20)
(1.24744 0.763516 2.01533e-20)
(1.2181 0.756398 -4.03185e-22)
(1.17121 0.738168 9.06092e-21)
(1.11851 0.717376 2.04866e-20)
(1.06014 0.693889 -4.44868e-21)
(0.995692 0.667078 7.65217e-22)
(0.924709 0.635726 4.97451e-21)
(0.846937 0.597271 -2.5881e-20)
(0.773443 0.553758 -7.30408e-22)
(0.716554 0.512171 -1.26153e-20)
(0.675778 0.475118 5.11894e-20)
(0.647219 0.443308 -5.69159e-22)
(0.627549 0.41693 -2.67693e-20)
(0.613787 0.395332 -4.8883e-20)
(0.601507 0.376752 0)
(0.559826 0.342022 0)
(0.384212 0.231572 1.43254e-20)
(0.0719837 0.0435564 -8.46531e-21)
(0.24921 0.165129 1.96257e-20)
(1.13277 0.727947 -5.9732e-20)
(1.23259 0.802966 -2.1578e-20)
(1.20345 0.794923 0)
(1.15694 0.775365 -2.97959e-22)
(1.10461 0.753183 2.45865e-20)
(1.04646 0.728423 -1.47813e-20)
(0.981944 0.70053 -7.36983e-21)
(0.910326 0.668382 4.63642e-21)
(0.830658 0.629209 -1.97061e-20)
(0.754149 0.584416 -3.26012e-20)
(0.694064 0.540439 3.37874e-20)
(0.650696 0.500212 0)
(0.620479 0.4648 -1.21621e-20)
(0.600171 0.435091 -2.96304e-20)
(0.586571 0.410224 -3.58226e-20)
(0.574969 0.388961 -4.36633e-20)
(0.534286 0.350609 1.31756e-20)
(0.362719 0.23392 -7.75471e-21)
(0.0648677 0.0418788 1.4066e-22)
(0.247591 0.173201 0)
(1.12042 0.761734 0)
(1.21775 0.839575 4.68159e-22)
(1.18881 0.830638 0)
(1.14275 0.809875 -3.41738e-20)
(1.09087 0.786461 -2.17176e-20)
(1.03314 0.760604 0)
(0.968757 0.731874 -1.69436e-21)
(0.896689 0.699331 4.71816e-21)
(0.815219 0.660069 -4.52448e-20)
(0.735419 0.614599 0)
(0.67176 0.568738 -2.1845e-20)
(0.625038 0.525403 -6.72327e-22)
(0.592251 0.486202 -5.5307e-22)
(0.570718 0.452096 3.20199e-20)
(0.557589 0.423805 -4.41283e-23)
(0.546909 0.399009 -9.586e-20)
(0.506707 0.356375 2.90637e-20)
(0.338827 0.232998 8.70383e-21)
(0.0567956 0.039047 0)
(0.245923 0.180748 -7.21282e-20)
(1.10831 0.793283 -3.65322e-20)
(1.20306 0.873534 -5.39924e-20)
(1.17432 0.863709 7.54914e-20)
(1.12876 0.841822 -6.41334e-20)
(1.07744 0.817303 0)
(1.02027 0.790511 -1.26743e-20)
(0.956256 0.761154 3.29558e-21)
(0.88393 0.728567 7.63393e-22)
(0.800872 0.689788 3.6329e-21)
(0.717746 0.644287 4.10846e-20)
(0.649933 0.597286 -7.47457e-21)
(0.598915 0.551081 -3.22148e-20)
(0.562434 0.507711 -1.47826e-20)
(0.53927 0.468679 1.80031e-20)
(0.525823 0.436451 -2.73517e-23)
(0.515462 0.407741 2.66805e-20)
(0.475263 0.359626 -6.36234e-20)
(0.311609 0.228745 7.66888e-20)
(0.047825 0.0350688 1.12192e-20)
(0.244043 0.187851 2.64584e-20)
(1.0964 0.823202 -1.99309e-20)
(1.18856 0.905037 1.10562e-21)
(1.16005 0.894295 4.26111e-20)
(1.11505 0.871348 1.49381e-20)
(1.06439 0.845813 4.35997e-20)
(1.00794 0.818214 -5.51742e-21)
(0.944482 0.788427 1.5782e-20)
(0.872212 0.756096 9.42576e-23)
(0.787776 0.718294 -2.42594e-20)
(0.701303 0.673702 0)
(0.628638 0.626114 -3.41035e-20)
(0.572508 0.577407 4.72109e-20)
(0.531697 0.530121 0)
(0.505996 0.486791 -3.87985e-20)
(0.491548 0.447539 2.43036e-20)
(0.481212 0.413352 -2.91481e-20)
(0.440838 0.358807 -3.5496e-20)
(0.280541 0.219959 -6.31823e-20)
(0.0377998 0.0296244 -5.00533e-20)
(0.242372 0.194562 -2.90441e-20)
(1.08464 0.85113 2.13384e-20)
(1.17432 0.934162 5.0274e-20)
(1.14607 0.922528 5.85633e-20)
(1.10169 0.898585 -3.14227e-20)
(1.05178 0.872114 3.01252e-20)
(0.996183 0.843792 -1.73468e-20)
(0.93351 0.813733 1.94217e-20)
(0.861561 0.781894 1.59736e-21)
(0.776129 0.745597 2.27e-20)
(0.686098 0.702708 8.79633e-20)
(0.608024 0.655241 0)
(0.546834 0.604649 0)
(0.501694 0.554486 -1.71905e-20)
(0.470937 0.505058 0)
(0.454267 0.460236 5.33483e-20)
(0.442539 0.418334 6.4499e-20)
(0.401914 0.354278 0)
(0.245084 0.206137 0)
(0.026944 0.0227747 5.53723e-20)
(0.240504 0.200704 3.20001e-20)
(1.07308 0.877175 2.54623e-20)
(1.16038 0.961081 3.61461e-20)
(1.13244 0.948578 -5.22296e-20)
(1.08872 0.923681 -3.50268e-20)
(1.03963 0.896317 -3.99013e-20)
(0.985015 0.867328 2.58521e-20)
(0.923332 0.837105 2.5976e-22)
(0.852035 0.805979 -9.8956e-22)
(0.76589 0.77174 -1.29743e-21)
(0.672241 0.731329 4.47642e-20)
(0.588924 0.684845 0)
(0.522796 0.633327 4.83524e-20)
(0.471733 0.580695 3.64574e-20)
(0.434133 0.526597 9.39827e-20)
(0.411612 0.472059 2.89435e-20)
(0.39824 0.42052 -3.63118e-20)
(0.35796 0.343396 -2.1616e-20)
(0.207194 0.185817 0)
(0.0171363 0.0151252 6.11846e-20)
(0.238934 0.206716 -7.03134e-20)
(1.06175 0.901388 0)
(1.1468 0.985922 4.02976e-20)
(1.11918 0.972576 -4.27938e-20)
(1.07616 0.94677 3.95934e-20)
(1.02795 0.918553 5.81656e-20)
(0.974398 0.888907 -5.99516e-20)
(0.913907 0.858613 6.4575e-22)
(0.843555 0.828355 0)
(0.757012 0.796638 -2.02445e-20)
(0.660333 0.759235 -9.32917e-20)
(0.571832 0.714274 4.71625e-21)
(0.498603 0.66391 6.63264e-20)
(0.439652 0.610245 0)
(0.394206 0.551456 6.35899e-20)
(0.362088 0.490414 0)
(0.342975 0.421063 0)
(0.303872 0.31821 -2.45441e-20)
(0.175153 0.14967 0)
(0.0251168 0.0103936 1.6706e-20)
(0.237119 0.212149 -7.6701e-20)
(1.05067 0.924021 0)
(1.13354 1.00891 6.52906e-20)
(1.10626 0.994765 0)
(1.06396 0.968113 -2.14795e-20)
(1.01664 0.939102 0)
(0.964209 0.908837 -4.4256e-21)
(0.905041 0.87852 -3.45788e-21)
(0.835877 0.849315 -5.0637e-22)
(0.74942 0.820547 -1.91688e-20)
(0.650218 0.787063 2.40323e-21)
(0.556224 0.74436 3.95378e-20)
(0.475429 0.696245 6.4506e-20)
(0.407535 0.64064 9.25522e-21)
(0.351316 0.581843 4.9808e-20)
(0.307154 0.512336 0)
(0.269473 0.4276 8.0069e-20)
(0.223128 0.274918 -4.86352e-20)
(0.091043 0.12728 5.73351e-20)
(-0.0233933 0.388629 -6.85309e-20)
(0.235409 0.217373 6.25028e-20)
(1.0397 0.945241 9.64348e-20)
(1.12048 1.03035 0)
(1.09354 1.01553 8.52999e-22)
(1.05193 0.988185 5.82287e-20)
(1.00544 0.958493 -1.12587e-19)
(0.95418 0.927643 -2.64685e-20)
(0.896433 0.897314 0)
(0.828676 0.869484 -8.56998e-21)
(0.742964 0.844505 -3.91451e-22)
(0.641457 0.816544 0)
(0.540905 0.778597 0)
(0.452864 0.731881 5.68787e-20)
(0.372313 0.678187 -2.89734e-20)
(0.303804 0.621619 -4.94885e-20)
(0.24424 0.555113 0)
(0.163034 0.446459 4.10405e-20)
(0.0616084 0.515522 -5.00391e-20)
(0.055897 1.70115 -2.79821e-20)
(0.0909538 2.71326 -3.36732e-20)
(0.233538 0.222029 -4.57231e-20)
(1.02884 0.965248 -1.21548e-19)
(1.10764 1.05022 3.75848e-20)
(1.0811 1.03481 3.62296e-20)
(1.04011 1.00688 0)
(0.99442 0.976562 -8.0625e-20)
(0.944438 0.945125 -4.42342e-20)
(0.888174 0.91462 2.28302e-21)
(0.822191 0.888346 -1.21027e-21)
(0.738088 0.867776 1.31601e-20)
(0.634041 0.847102 4.2375e-20)
(0.526793 0.814213 4.18844e-20)
(0.431284 0.771606 5.62059e-20)
(0.341816 0.71813 -6.61444e-20)
(0.261167 0.675296 -7.27924e-20)
(0.184823 0.61623 0)
(0.0979915 0.865331 0)
(0.146158 2.40919 2.15347e-20)
(0.156948 3.14114 0)
(0.154317 3.3578 5.45487e-20)
(0.234839 0.226234 0)
(1.01791 0.984174 0)
(1.0949 1.0684 0)
(1.06871 1.05251 1.00509e-20)
(1.02831 1.02406 5.21743e-20)
(0.983378 0.993233 -6.1543e-20)
(0.93485 0.96118 -3.17438e-20)
(0.880117 0.93074 2.58949e-21)
(0.816554 0.906266 -1.85243e-20)
(0.734772 0.89052 -2.30782e-21)
(0.629098 0.878189 7.75579e-20)
(0.514214 0.852044 -5.00133e-21)
(0.409749 0.813034 6.43538e-21)
(0.315105 0.761751 9.41612e-21)
(0.234738 0.729781 5.14726e-22)
(0.158721 0.965522 3.27479e-22)
(0.197977 2.52297 -1.01777e-19)
(0.225639 3.25649 -3.90021e-20)
(0.205228 3.41733 1.9099e-20)
(0.184615 3.44525 -1.99556e-20)
(0.151698 0.167778 2.68584e-20)
(1.00047 1.00482 0)
(1.08263 1.08516 -7.33685e-20)
(1.05664 1.06899 -9.37016e-20)
(1.01689 1.0402 1.07821e-19)
(0.972802 1.00889 6.5201e-20)
(0.925214 0.975789 3.74655e-20)
(0.87235 0.945783 -4.35747e-20)
(0.812246 0.922972 1.94219e-20)
(0.733708 0.912626 0)
(0.627375 0.910231 3.40005e-20)
(0.505248 0.891922 -3.23703e-20)
(0.392579 0.858296 0)
(0.29525 0.807605 8.53761e-21)
(0.225483 0.90693 2.0604e-20)
(0.202872 2.1412 -2.43502e-20)
(0.295821 3.2878 2.7681e-20)
(0.274422 3.44032 1.33691e-20)
(0.230792 3.4695 1.56576e-20)
(0.201457 3.48202 1.96085e-20)
(0.269111 0.261967 -5.20057e-20)
(0.975738 1.00655 0)
(1.06249 1.10495 7.54347e-20)
(1.03867 1.09254 9.70828e-20)
(0.999247 1.06304 -1.11472e-19)
(0.956007 1.03087 -6.94395e-20)
(0.910437 0.997881 -5.71188e-20)
(0.861609 0.96754 -3.29953e-21)
(0.806556 0.946555 -2.7299e-20)
(0.733289 0.944567 -4.74032e-21)
(0.6247 0.962455 1.26632e-21)
(0.489631 0.964598 2.6835e-20)
(0.364303 0.937899 5.59069e-21)
(0.282339 1.03024 -7.50795e-21)
(0.307006 2.08536 -1.67859e-20)
(0.379227 3.28117 1.18909e-20)
(0.370627 3.48153 -1.01323e-20)
(0.324154 3.51114 -5.87966e-21)
(0.278189 3.54454 1.87569e-21)
(0.21356 3.53557 -1.20305e-22)
(0.257609 0.259532 0)
(0.969896 1.02443 1.98481e-20)
(1.05085 1.12217 -1.48486e-20)
(1.02639 1.10895 -1.0728e-20)
(0.987312 1.07893 -7.27538e-20)
(0.944898 1.04602 6.75744e-20)
(0.900535 1.01205 3.8379e-20)
(0.854177 0.980818 -3.46013e-21)
(0.80397 0.96047 3.36729e-20)
(0.737004 0.965713 -3.42276e-21)
(0.627322 0.998582 -4.85759e-20)
(0.479854 1.01595 3.96437e-21)
(0.359115 1.00143 -5.06654e-21)
(0.331671 1.37945 -6.09425e-21)
(0.422007 2.91929 4.13254e-21)
(0.46935 3.46538 3.7911e-22)
(0.411179 3.55698 -9.9015e-21)
(0.370344 3.58567 -1.28836e-20)
(0.299293 3.61528 1.87876e-20)
(0.229911 3.60517 8.94519e-21)
(0.241612 0.255073 4.91085e-20)
(0.962627 1.04486 1.32199e-19)
(1.03843 1.14076 -4.20183e-20)
(1.01327 1.12634 -4.05815e-20)
(0.974512 1.09552 0)
(0.932935 1.06156 9.79215e-20)
(0.890067 1.02632 5.81895e-20)
(0.8468 0.994155 -3.63917e-21)
(0.802423 0.974771 3.59069e-21)
(0.745647 0.986802 2.11902e-20)
(0.64317 1.03659 -1.62497e-20)
(0.478414 1.07424 -2.89976e-20)
(0.365835 1.10181 -3.50523e-20)
(0.415042 1.90293 3.28274e-20)
(0.532747 3.30853 1.26938e-20)
(0.5382 3.5516 0)
(0.468881 3.61367 0)
(0.41355 3.67298 1.80607e-20)
(0.33124 3.73687 0)
(0.244942 3.70276 3.92047e-20)
(0.229647 0.254442 -7.10026e-20)
(0.953019 1.06605 -1.09122e-19)
(1.02433 1.16012 0)
(0.998516 1.1441 8.25356e-22)
(0.960129 1.11217 -6.97757e-20)
(0.91941 1.07682 1.44567e-19)
(0.878296 1.03997 3.9013e-20)
(0.838491 1.00614 -4.29514e-21)
(0.801109 0.987118 3.75208e-20)
(0.756518 1.00749 -2.14602e-21)
(0.658576 1.08088 0)
(0.490624 1.12986 0)
(0.398227 1.25861 -2.8497e-20)
(0.519837 2.48578 7.09817e-21)
(0.6397 3.46731 -4.56579e-21)
(0.602494 3.60462 0)
(0.549822 3.68155 4.49279e-20)