/*--------------------------------*- C++ -*----------------------------------*\
  =========                 |
  \\      /  F ield         | OpenFOAM: The Open Source CFD Toolbox
   \\    /   O peration     | Website:  https://openfoam.org
    \\  /    A nd           | Version:  6
     \\/     M anipulation  |
\*---------------------------------------------------------------------------*/
FoamFile
{
    version     2.0;
    format      ascii;
    class       volScalarField;
    location    "12.9";
    object      p;
}
// * * * * * * * * * * * * * * * * * * * * * * * * * * * * * * * * * * * * * //

dimensions      [0 2 -2 0 0 0 0];

internalField   nonuniform List<scalar> 
8800
(
0.460651
0.411363
0.373437
0.345414
0.3253
0.310783
0.300266
0.292798
0.287953
0.285802
0.286844
0.29076
0.297171
0.306269
0.318753
0.335902
0.359656
0.392659
0.435532
0.488017
0.295001
0.301368
0.310577
0.314235
0.311751
0.305783
0.298939
0.292788
0.288033
0.285126
0.284676
0.286905
0.291147
0.296913
0.303704
0.310489
0.315135
0.314824
0.308012
0.299048
0.268397
0.274697
0.279311
0.283354
0.286514
0.287713
0.286842
0.284843
0.282767
0.281653
0.282413
0.284579
0.287065
0.288881
0.288954
0.286795
0.283129
0.278902
0.273977
0.27023
0.26378
0.266627
0.269516
0.27199
0.274007
0.275825
0.277068
0.277407
0.277197
0.277025
0.277509
0.278282
0.278668
0.27814
0.276729
0.274928
0.272829
0.270112
0.26744
0.265868
0.25868
0.260128
0.262189
0.264532
0.266446
0.267804
0.268959
0.270096
0.271049
0.271737
0.271941
0.271695
0.271075
0.270237
0.26927
0.267807
0.265741
0.263472
0.261906
0.261134
0.253795
0.254733
0.256538
0.258883
0.261224
0.263339
0.264971
0.266096
0.266902
0.267512
0.267884
0.267882
0.267453
0.26647
0.264823
0.262756
0.260521
0.258413
0.257192
0.256741
0.250076
0.250575
0.252057
0.254021
0.255954
0.25783
0.259668
0.261316
0.262608
0.263501
0.263889
0.263666
0.262829
0.261538
0.259997
0.258333
0.256496
0.254752
0.253859
0.253679
0.248393
0.248657
0.249563
0.250877
0.252246
0.253585
0.254881
0.256171
0.257405
0.258434
0.258938
0.258876
0.258412
0.257697
0.256792
0.255683
0.254519
0.253453
0.252953
0.252865
0.246876
0.247034
0.247497
0.248226
0.249168
0.250418
0.25176
0.253143
0.254455
0.255588
0.25628
0.256385
0.256049
0.25539
0.254485
0.253812
0.253225
0.25275
0.252511
0.252452
0.244436
0.24454
0.244835
0.24532
0.245934
0.246616
0.24761
0.248774
0.25006
0.251325
0.252232
0.252625
0.25264
0.252467
0.252363
0.252082
0.251816
0.25159
0.251464
0.251422
0.241235
0.241296
0.241555
0.242029
0.242649
0.243295
0.244332
0.245532
0.246888
0.248333
0.249526
0.250229
0.25053
0.250569
0.250579
0.250445
0.250261
0.250089
0.25002
0.25
0.237712
0.237737
0.237945
0.238367
0.238891
0.239796
0.240698
0.2419
0.243388
0.245089
0.246632
0.247697
0.248338
0.248699
0.248834
0.248894
0.248823
0.248742
0.248725
0.248717
0.233951
0.233975
0.234155
0.234554
0.235136
0.235913
0.236939
0.238282
0.239986
0.242034
0.244018
0.245506
0.246511
0.24715
0.247497
0.247677
0.247726
0.24774
0.24776
0.247753
0.229791
0.229824
0.229991
0.230366
0.230949
0.231781
0.232936
0.234497
0.236534
0.239055
0.241584
0.243547
0.244921
0.245846
0.246431
0.246782
0.246976
0.247083
0.247131
0.247123
0.225079
0.225107
0.225302
0.225691
0.226328
0.227271
0.22862
0.230487
0.23297
0.236104
0.239303
0.241842
0.24366
0.244918
0.245751
0.246282
0.246607
0.246793
0.246865
0.246856
0.219687
0.219721
0.21995
0.220411
0.221147
0.222273
0.223904
0.22619
0.229266
0.233185
0.237222
0.240461
0.24282
0.244448
0.245547
0.246265
0.246718
0.246975
0.247072
0.247062
0.213448
0.213488
0.213767
0.214333
0.215255
0.216641
0.218663
0.221508
0.225356
0.230276
0.235368
0.239468
0.24244
0.24452
0.245928
0.246855
0.247442
0.247775
0.2479
0.247888
0.206156
0.206205
0.206557
0.207277
0.208448
0.210199
0.212742
0.216332
0.22118
0.227372
0.23377
0.238914
0.242648
0.245262
0.247037
0.248206
0.248946
0.249366
0.249523
0.249507
0.197525
0.19759
0.19805
0.198978
0.200482
0.202714
0.205965
0.210535
0.216669
0.224469
0.23249
0.238915
0.243571
0.24683
0.249046
0.250507
0.251429
0.251949
0.252143
0.252123
0.187161
0.187249
0.187847
0.189054
0.191005
0.193914
0.198111
0.20395
0.211743
0.221575
0.231605
0.239593
0.245367
0.249407
0.252157
0.253975
0.255125
0.255775
0.25601
0.25598
0.174526
0.17465
0.175438
0.177041
0.179616
0.183423
0.188869
0.196398
0.206343
0.218727
0.23122
0.241098
0.24822
0.253203
0.256604
0.258859
0.260284
0.261074
0.261368
0.26133
0.158827
0.159
0.160064
0.162242
0.165704
0.170767
0.177954
0.187752
0.200457
0.216008
0.231475
0.243609
0.252341
0.258462
0.262655
0.265453
0.267233
0.268217
0.26857
0.26852
0.138867
0.139107
0.140614
0.143688
0.148486
0.155408
0.165047
0.177872
0.194109
0.213543
0.232537
0.247313
0.257947
0.265435
0.2706
0.274075
0.276308
0.277547
0.277978
0.277913
0.112786
0.113157
0.115426
0.119977
0.126898
0.136629
0.149764
0.166675
0.187397
0.211492
0.234568
0.252372
0.265215
0.274342
0.280716
0.285068
0.287901
0.289486
0.290036
0.289946
0.0774486
0.0781361
0.0819224
0.0892165
0.0997423
0.113861
0.132023
0.154334
0.180567
0.210078
0.237729
0.258897
0.274239
0.285297
0.293183
0.298712
0.302403
0.304487
0.305195
0.30507
0.0266162
0.0286041
0.0363668
0.0493789
0.0662528
0.0871818
0.112271
0.141371
0.174066
0.209604
0.242172
0.26693
0.284988
0.298233
0.307956
0.315043
0.320002
0.322971
0.323991
0.323818
-0.0491303
-0.0391062
-0.0215157
0.00159684
0.028014
0.0579338
0.0914377
0.128338
0.168208
0.210337
0.248295
0.277089
0.298341
0.314309
0.326487
0.335942
0.343065
0.347794
0.349755
0.349909
-0.128844
-0.108365
-0.0801082
-0.0465792
-0.0104305
0.0285495
0.0705197
0.115385
0.162826
0.212274
0.256656
0.290557
0.315994
0.33559
0.351059
0.363473
0.373566
0.381462
0.384997
0.385364
-0.193767
-0.169541
-0.133197
-0.0912659
-0.0466056
0.00076401
0.0507712
0.103255
0.157942
0.214293
0.264515
0.302822
0.331646
0.353978
0.371707
0.386046
0.397576
0.40632
0.409953
0.410498
-0.245205
-0.21875
-0.177622
-0.129936
-0.0788093
-0.0246249
0.032294
0.0916579
0.152967
0.21561
0.270987
0.312863
0.344089
0.368029
0.386777
0.401731
0.413677
0.422522
0.426501
0.427077
-0.286954
-0.259543
-0.215107
-0.163005
-0.106835
-0.0472212
0.0154273
0.0806618
0.14783
0.216067
0.275873
0.32064
0.35362
0.378568
0.397854
0.413036
0.425001
0.433725
0.437844
0.438462
-0.322393
-0.294531
-0.247652
-0.192049
-0.131797
-0.0676735
-9.45124e-05
0.0702696
0.142649
0.215963
0.279864
0.327233
0.361703
0.387433
0.407037
0.422234
0.434063
0.44262
0.446755
0.44738
-0.353523
-0.32546
-0.27677
-0.218261
-0.154539
-0.0864844
-0.0146262
0.0603332
0.137486
0.215542
0.283233
0.332981
0.368801
0.395207
0.415079
0.430308
0.442056
0.450438
0.454564
0.455209
-0.381801
-0.353571
-0.303386
-0.242474
-0.175831
-0.10438
-0.0287004
0.0504455
0.131988
0.214467
0.285864
0.338051
0.375288
0.402455
0.422673
0.437997
0.449705
0.457976
0.462033
0.462684
-0.408129
-0.379734
-0.328267
-0.265286
-0.196105
-0.121684
-0.0426253
0.0402623
0.125924
0.212763
0.287949
0.342712
0.381511
0.409558
0.430217
0.44571
0.457424
0.465604
0.469575
0.470256
-0.433188
-0.404532
-0.351918
-0.287091
-0.215699
-0.138669
-0.0565966
0.0297565
0.119306
0.21041
0.289455
0.347001
0.387588
0.4167
0.437939
0.453703
0.465491
0.473595
0.477457
0.478137
-0.457168
-0.428253
-0.374646
-0.308213
-0.23487
-0.155506
-0.0707007
0.0188069
0.111983
0.207234
0.290299
0.350901
0.393568
0.423985
0.445983
0.462138
0.474067
0.482142
0.485873
0.48651
-0.480433
-0.45116
-0.396659
-0.328801
-0.253724
-0.172307
-0.0850756
0.00728519
0.103853
0.20315
0.290364
0.354331
0.399421
0.431448
0.454421
0.471111
0.48328
0.491373
0.494965
0.495512
-0.503031
-0.473403
-0.418067
-0.348951
-0.27237
-0.189154
-0.0997647
-0.00480928
0.0948993
0.198093
0.289517
0.357151
0.405043
0.439033
0.463257
0.48067
0.493191
0.501359
0.504835
0.505232
-0.525026
-0.495029
-0.438937
-0.368706
-0.290801
-0.206009
-0.114726
-0.0174754
0.0850926
0.191964
0.287604
0.359154
0.410234
0.446597
0.472422
0.49081
0.503834
0.512124
0.515477
0.515705
-0.546449
-0.516073
-0.459257
-0.388047
-0.309004
-0.222846
-0.129928
-0.0306707
0.0744486
0.184728
0.284481
0.360105
0.414765
0.453977
0.481813
0.501445
0.515116
0.523559
0.526791
0.526853
-0.567324
-0.536506
-0.479021
-0.406958
-0.326934
-0.239623
-0.145306
-0.0443249
0.0630224
0.176379
0.280041
0.3598
0.418395
0.46098
0.491332
0.512544
0.527004
0.535585
0.538588
0.538481
-0.587492
-0.556276
-0.49818
-0.425394
-0.344536
-0.25625
-0.160779
-0.0583456
0.0508901
0.16694
0.274202
0.357995
0.420705
0.46719
0.500748
0.524061
0.539436
0.548047
0.550714
0.55041
-0.606922
-0.575345
-0.516696
-0.443291
-0.36174
-0.272658
-0.176244
-0.0726441
0.0381519
0.156479
0.266918
0.354517
0.421317
0.472087
0.509714
0.536047
0.552615
0.560817
0.562779
0.562254
-0.625667
-0.593679
-0.534544
-0.460612
-0.378483
-0.288763
-0.19161
-0.0870969
0.0249223
0.145089
0.258209
0.34925
0.419917
0.475062
0.517567
0.548417
0.567267
0.574393
0.574409
0.573541
-0.643588
-0.611269
-0.551673
-0.477298
-0.394704
-0.304482
-0.206775
-0.101593
0.0113469
0.132898
0.248146
0.342118
0.416252
0.475413
0.523208
0.560364
0.584342
0.591625
0.587076
0.582915
-0.660768
-0.628113
-0.568103
-0.493377
-0.410433
-0.319863
-0.221794
-0.116193
-0.00264831
0.119848
0.236607
0.332917
0.410016
0.472325
0.524966
0.569709
0.602483
0.616476
0.608898
0.600232
-0.677154
-0.644285
-0.583973
-0.509015
-0.425944
-0.335224
-0.237063
-0.131375
-0.0176143
0.105263
0.222861
0.320711
0.400411
0.464454
0.519627
0.570922
0.611271
0.627051
0.619171
0.60225
-0.69265
-0.659766
-0.599125
-0.524021
-0.441035
-0.35028
-0.252364
-0.146806
-0.0332209
0.0894843
0.207143
0.305357
0.38717
0.451617
0.503022
0.553681
0.590631
0.592223
0.532572
0.495885
-0.707168
-0.675119
-0.613109
-0.537908
-0.45515
-0.364601
-0.267458
-0.162233
-0.0492051
0.0727512
0.189591
0.28681
0.369709
0.435004
0.475105
0.508364
0.528123
0.491451
0.423187
0.378911
-0.747278
-0.689165
-0.625904
-0.551434
-0.468959
-0.378984
-0.282242
-0.177755
-0.0657313
0.0548632
0.169927
0.265022
0.345918
0.415933
0.43325
0.436147
0.415309
0.358352
0.28117
0.239174
-0.718324
-0.70089
-0.644854
-0.571853
-0.489408
-0.400251
-0.304746
-0.201719
-0.0917142
0.026084
0.136727
0.227226
0.298697
0.361948
0.365764
0.25511
0.154848
0.0880585
0.0155469
0.0583128
-0.746172
-0.716014
-0.659516
-0.586457
-0.504683
-0.416252
-0.321084
-0.219272
-0.110928
0.00445482
0.110955
0.196718
0.259277
0.290079
0.23732
0.0821354
-0.0476075
-0.134678
-0.234089
-0.162449
-0.766718
-0.734283
-0.676253
-0.603091
-0.521738
-0.433737
-0.339182
-0.238692
-0.132247
-0.0200065
0.0815627
0.160785
0.212631
0.208943
0.0863357
-0.114315
-0.275896
-0.389802
-0.520618
-0.455934
-0.785971
-0.752653
-0.693566
-0.620071
-0.538888
-0.451335
-0.357738
-0.258651
-0.154395
-0.04587
0.0503649
0.121762
0.157985
0.113029
-0.0830208
-0.322887
-0.535696
-0.714386
-0.883779
-0.821707
-0.804301
-0.770889
-0.711286
-0.637544
-0.556508
-0.469494
-0.376972
-0.279396
-0.177713
-0.0731031
0.0177842
0.0807449
0.0977135
0.00378294
-0.253688
-0.531278
-0.799398
-1.02662
-1.31441
-1.41257
-0.82238
-0.789354
-0.729622
-0.655805
-0.574932
-0.488463
-0.396954
-0.300979
-0.201954
-0.100998
-0.0154954
0.038004
0.0340575
-0.120184
-0.41376
-0.71774
-1.01295
-1.26043
-1.46129
-1.71014
-0.840873
-0.808336
-0.748757
-0.67506
-0.594491
-0.508677
-0.418311
-0.324202
-0.227965
-0.130994
-0.0519116
-0.0087474
-0.0404765
-0.26011
-0.565009
-0.875613
-1.15116
-1.31949
-1.36578
-1.38938
-0.860013
-0.82794
-0.768665
-0.695249
-0.615165
-0.530171
-0.441212
-0.349311
-0.256103
-0.164343
-0.0924819
-0.0603863
-0.127186
-0.395231
-0.706277
-0.999252
-1.22047
-1.30453
-1.3223
-1.32303
-0.879985
-0.848189
-0.789247
-0.716209
-0.636733
-0.552804
-0.465462
-0.37616
-0.286463
-0.200941
-0.135439
-0.11792
-0.220559
-0.523935
-0.839635
-1.11026
-1.26904
-1.29033
-1.29731
-1.29772
-0.900443
-0.868966
-0.81035
-0.737746
-0.659009
-0.576348
-0.490847
-0.404583
-0.319049
-0.2398
-0.180209
-0.180836
-0.322795
-0.64254
-0.963503
-1.22357
-1.289
-1.2971
-1.29522
-1.29416
-0.921128
-0.889913
-0.83167
-0.759557
-0.681688
-0.600428
-0.517185
-0.434108
-0.353454
-0.280173
-0.227214
-0.246408
-0.440486
-0.751016
-1.06441
-1.32973
-1.34792
-1.31802
-1.3043
-1.29847
-0.941246
-0.910541
-0.85276
-0.781172
-0.704301
-0.624583
-0.544098
-0.464156
-0.388865
-0.32297
-0.276084
-0.31649
-0.569191
-0.864877
-1.09726
-1.36549
-1.35724
-1.32841
-1.31503
-1.30933
-0.96028
-0.930193
-0.872964
-0.80195
-0.726124
-0.648308
-0.570541
-0.494285
-0.42456
-0.367767
-0.327579
-0.388751
-0.70527
-1.00186
-1.05384
-1.10302
-1.21736
-1.33361
-1.39208
-1.39542
-0.977493
-0.948025
-0.891421
-0.821009
-0.746311
-0.670631
-0.595543
-0.524244
-0.460319
-0.410948
-0.381173
-0.455754
-0.858773
-1.22286
-1.18434
-1.05165
-1.24416
-1.52346
-1.66408
-1.67999
-0.991516
-0.962876
-0.907046
-0.837195
-0.763795
-0.690193
-0.618565
-0.552497
-0.494062
-0.449289
-0.439638
-0.517816
-1.02564
-1.72372
-2.11808
-2.24434
-2.33741
-2.23686
-2.16477
-2.16202
-1.00102
-0.97338
-0.918352
-0.849127
-0.777071
-0.705761
-0.638177
-0.576773
-0.52433
-0.482461
-0.493639
-0.559373
-1.20634
-2.26383
-3.38414
-3.82349
-3.90554
-3.592
-3.14672
-2.97909
-1.00431
-0.977833
-0.923701
-0.855136
-0.78452
-0.715933
-0.652455
-0.59712
-0.550848
-0.508825
-0.519007
-0.602406
-1.24174
-2.23404
-3.69134
-4.37237
-4.31133
-3.98896
-3.59948
-3.3329
-0.999339
-0.974086
-0.921071
-0.853331
-0.784447
-0.71883
-0.659887
-0.61123
-0.574386
-0.532157
-0.524394
-0.57689
-0.90515
-1.51616
-2.13328
-2.52638
-2.4492
-2.15812
-1.88993
-1.71853
-0.984029
-0.960067
-0.908382
-0.842011
-0.775235
-0.712991
-0.65993
-0.622185
-0.600355
-0.558207
-0.515596
-0.540342
-0.441854
-0.387477
-0.138149
0.174221
0.525432
0.803896
0.935964
0.995655
-0.956248
-0.93374
-0.883904
-0.819785
-0.755777
-0.69761
-0.651731
-0.627991
-0.63818
-0.631464
-0.603184
-0.501892
-0.210663
0.293049
0.948791
1.6105
2.08353
2.36081
2.465
2.49716
-0.914948
-0.893987
-0.8468
-0.786095
-0.725737
-0.67242
-0.635321
-0.632662
-0.695794
-0.830536
-0.964959
-0.714873
-0.143192
0.448482
1.19553
1.80565
2.24002
2.49418
2.59892
2.63049
-0.859113
-0.839621
-0.796783
-0.740973
-0.685311
-0.637324
-0.609619
-0.633176
-0.792669
-1.22824
-1.65357
-1.176
-0.361824
0.282824
0.984749
1.51223
1.88464
2.0862
2.17056
2.19539
-0.789423
-0.772288
-0.73439
-0.684501
-0.634166
-0.590972
-0.569687
-0.610335
-0.844993
-1.57823
-2.30534
-1.64518
-0.732652
0.0695243
0.69919
1.14429
1.41769
1.55564
1.6221
1.63143
-0.70597
-0.690906
-0.659183
-0.616212
-0.57113
-0.530862
-0.508259
-0.538278
-0.733274
-1.33807
-1.82876
-1.32123
-0.592401
0.0735488
0.54214
0.829261
0.99781
1.09265
1.14064
1.15007
-0.612236
-0.601305
-0.573783
-0.536316
-0.495718
-0.45626
-0.425595
-0.422724
-0.497038
-0.720006
-0.814602
-0.482995
-0.0589543
0.280442
0.495616
0.630203
0.717758
0.774567
0.805227
0.813337
-0.498701
-0.492812
-0.47324
-0.443797
-0.409676
-0.373175
-0.337598
-0.310561
-0.306929
-0.33143
-0.286684
-0.0585799
0.159915
0.332696
0.444895
0.517953
0.567209
0.600995
0.619867
0.624161
-0.389344
-0.386272
-0.372183
-0.349612
-0.322638
-0.291376
-0.256578
-0.219994
-0.183644
-0.139342
-0.0506457
0.101215
0.224983
0.319132
0.383652
0.426099
0.453434
0.470343
0.478612
0.480093
-0.289578
-0.288098
-0.278452
-0.261933
-0.241397
-0.216121
-0.185459
-0.148481
-0.103019
-0.041072
0.0464232
0.149768
0.230235
0.287619
0.326572
0.351503
0.366289
0.374464
0.377905
0.377916
-0.198941
-0.198565
-0.192834
-0.182246
-0.168065
-0.149272
-0.124584
-0.0920178
-0.0490405
0.0103876
0.0844333
0.157745
0.213746
0.252567
0.277772
0.292939
0.301019
0.304563
0.305583
0.30515
-0.11944
-0.119891
-0.118108
-0.113352
-0.105116
-0.0925557
-0.0741457
-0.0481266
-0.0118275
0.0384036
0.0976412
0.151362
0.191432
0.218527
0.235531
0.245006
0.249359
0.250824
0.251009
0.250522
-0.0567801
-0.057613
-0.0584571
-0.0580964
-0.0548921
-0.0475679
-0.0347704
-0.0150019
0.0138993
0.0539697
0.0997899
0.139353
0.168319
0.187535
0.199076
0.205122
0.207647
0.208183
0.208037
0.207612
-0.0126227
-0.0135294
-0.0154471
-0.0171567
-0.0168665
-0.0133935
-0.00527713
0.00892174
0.0307776
0.0617632
0.0966204
0.125958
0.146923
0.16051
0.168559
0.17262
0.174023
0.174073
0.173814
0.173458
0.0160056
0.0152375
0.0131954
0.0109527
0.0100726
0.0115229
0.01643
0.0262455
0.0423181
0.0656432
0.0917767
0.113357
0.128605
0.138377
0.143867
0.146373
0.147019
0.146752
0.146413
0.146122
0.0332083
0.0326477
0.0309632
0.0288987
0.0276945
0.0282378
0.0313911
0.0381729
0.0497476
0.0669573
0.0863659
0.102251
0.113202
0.119951
0.123624
0.125175
0.125343
0.124889
0.124525
0.124293
0.0428311
0.0424496
0.0412454
0.0396656
0.0385697
0.0386074
0.0405785
0.0453541
0.0537739
0.0663815
0.0805376
0.0919841
0.0998099
0.104622
0.107119
0.108004
0.1079
0.107388
0.107044
0.106866
0.0478581
0.0476003
0.0467938
0.0456803
0.044865
0.0447995
0.0460249
0.0492274
0.0551739
0.0643384
0.0747174
0.0830796
0.0887043
0.0920035
0.0936049
0.0940677
0.0938278
0.0933307
0.0930315
0.0928959
0.0501131
0.0499284
0.0493637
0.0485587
0.0479393
0.0478446
0.0486927
0.0509704
0.0552038
0.0617784
0.0692398
0.0751797
0.0791011
0.0813692
0.0824104
0.0826215
0.0823361
0.0818986
0.0816522
0.0815475
0.0504882
0.05035
0.0499199
0.0492934
0.0487874
0.0486394
0.0491456
0.0506882
0.053676
0.0583816
0.0637301
0.0679769
0.0707545
0.072304
0.0729577
0.0730238
0.072747
0.0723833
0.0721857
0.072104
0.0494449
0.0493417
0.0490082
0.0485102
0.0480935
0.0479349
0.0482451
0.0492896
0.0513674
0.054699
0.0585053
0.0614956
0.0634095
0.0644388
0.0648329
0.0648117
0.0645539
0.064251
0.0640915
0.0640278
0.0473192
0.0472414
0.0469828
0.0465834
0.046234
0.0460646
0.0462289
0.0469224
0.0483602
0.0506952
0.0533705
0.0554589
0.0567731
0.057451
0.0576749
0.0576059
0.0573745
0.0571243
0.0569968
0.0569473
0.044394
0.0443344
0.0441376
0.0438261
0.0435428
0.0433829
0.0434559
0.0439021
0.0448793
0.046502
0.0483703
0.0498133
0.0506976
0.051129
0.0512398
0.0511461
0.0509428
0.0507378
0.0506359
0.0505974
0.0409114
0.0408649
0.0407158
0.0404767
0.0402518
0.0401093
0.0401277
0.0404081
0.0410636
0.0421764
0.043462
0.0444424
0.0450277
0.0452929
0.0453325
0.0452312
0.0450574
0.0448915
0.0448103
0.0447802
0.0370506
0.0370139
0.0369001
0.0367172
0.0365398
0.0364164
0.0364022
0.0365697
0.037
0.0377526
0.0386264
0.0392823
0.0396608
0.0398141
0.0398109
0.0397118
0.039566
0.0394326
0.0393678
0.0393443
0.032933
0.032904
0.0328163
0.0326753
0.0325347
0.0324291
0.032397
0.0324897
0.0327649
0.0332645
0.0338483
0.0342786
0.0345155
0.0345952
0.0345676
0.0344759
0.0343551
0.0342481
0.0341965
0.034178
0.0286373
0.0286144
0.0285462
0.0284366
0.0283244
0.0282344
0.0281933
0.0282374
0.0284071
0.0287318
0.0291143
0.0293898
0.0295311
0.0295636
0.0295237
0.0294416
0.0293421
0.0292565
0.0292154
0.0292009
0.0242164
0.0241984
0.0241453
0.0240598
0.0239702
0.0238942
0.0238506
0.0238643
0.0239637
0.0241689
0.0244132
0.0245842
0.0246625
0.0246664
0.024622
0.0245504
0.0244689
0.0244006
0.0243682
0.024357
0.0197084
0.0196945
0.0196532
0.0195863
0.0195149
0.0194517
0.0194096
0.0194059
0.01946
0.0195854
0.0197368
0.0198383
0.0198767
0.0198656
0.0198223
0.0197614
0.0196954
0.0196413
0.019616
0.0196075
0.0151371
0.0151267
0.0150948
0.0150427
0.0149869
0.0149362
0.0148993
0.0148875
0.0149142
0.014988
0.0150783
0.0151353
0.0151508
0.0151334
0.015095
0.0150453
0.0149927
0.0149503
0.0149308
0.0149245
0.0105189
0.0105112
0.0104873
0.0104486
0.0104075
0.01037
0.0103415
0.0103288
0.0103401
0.0103814
0.0104323
0.0104623
0.0104663
0.0104495
0.0104192
0.0103817
0.0103423
0.0103102
0.0102956
0.0102911
0.00586499
0.00585982
0.005844
0.00581929
0.00579383
0.00577105
0.00575359
0.0057449
0.00574889
0.00576937
0.00579476
0.00580849
0.00580813
0.00579674
0.00577796
0.00575462
0.00572958
0.00570861
0.00569881
0.00569577
0.00118241
0.0011824
0.00118256
0.00117683
0.00116964
0.00116356
0.00115854
0.00115471
0.00115272
0.00115287
0.00115556
0.00115788
0.00115761
0.00115508
0.00115098
0.0011457
0.00113928
0.0011324
0.00112942
0.00112999
-0.649847
-0.396397
-0.15851
0.034793
0.194683
0.325888
0.43944
0.533355
0.565482
0.561292
-0.250661
-0.0870195
0.0639982
0.195738
0.308743
0.404373
0.481556
0.535565
0.565016
0.58078
0.0171976
0.122334
0.226674
0.319396
0.399574
0.466853
0.520166
0.5602
0.588489
0.607631
0.203295
0.277009
0.351538
0.418615
0.476816
0.52609
0.566788
0.599777
0.624186
0.64328
0.346399
0.399999
0.454845
0.505175
0.549567
0.588295
0.621557
0.64916
0.669574
0.687936
0.463094
0.504777
0.546783
0.586816
0.623247
0.655743
0.684065
0.707563
0.72504
0.742745
0.562162
0.598477
0.6347
0.669551
0.701848
0.731028
0.756413
0.777045
0.792142
0.809391
0.655562
0.690638
0.725771
0.759348
0.790229
0.817794
0.841366
0.860026
0.873237
0.889987
0.754082
0.791939
0.828412
0.862409
0.892881
0.919411
0.941495
0.958547
0.970685
0.986993
0.869705
0.91128
0.949273
0.983197
1.01253
1.03722
1.05749
1.07328
1.08548
1.10165
1.01292
1.0544
1.09023
1.12034
1.14607
1.16814
1.18701
1.2028
1.21618
1.23221
1.18535
1.21781
1.24508
1.26777
1.28818
1.3072
1.32524
1.3422
1.35721
1.37297
1.37203
1.38946
1.40682
1.42373
1.44007
1.45494
1.46892
1.48353
1.49889
1.51626
1.55568
1.56579
1.57916
1.5902
1.59964
1.60947
1.62024
1.63048
1.63983
1.66555
1.77391
1.76821
1.75528
1.74108
1.73488
1.74069
1.75888
1.78748
1.8213
1.85764
2.07675
1.94074
1.86136
1.81905
1.80177
1.80574
1.83324
1.89109
1.99877
2.17719
0.364301
0.358016
0.350321
0.339257
0.32575
0.313176
0.302878
0.294997
0.289369
0.286054
0.285521
0.287982
0.292823
0.299814
0.309063
0.320681
0.334091
0.346901
0.35581
0.3633
0.273158
0.279101
0.287304
0.293587
0.296836
0.296532
0.293663
0.289772
0.286167
0.28376
0.283414
0.285377
0.288845
0.292978
0.296711
0.298601
0.297233
0.292366
0.285108
0.277168
0.266264
0.268659
0.272044
0.275024
0.277717
0.280177
0.281558
0.281533
0.280646
0.279685
0.279633
0.280803
0.282213
0.283047
0.282609
0.280721
0.278182
0.275495
0.272289
0.269172
0.261178
0.262242
0.264359
0.267005
0.269152
0.270734
0.272092
0.273238
0.273932
0.274304
0.274613
0.274895
0.274867
0.274281
0.273239
0.271975
0.27026
0.267879
0.265414
0.26384
0.256215
0.256815
0.258166
0.260352
0.262639
0.264567
0.266003
0.267144
0.268153
0.269005
0.26952
0.269507
0.269138
0.268473
0.267498
0.266034
0.264022
0.261808
0.260031
0.259128
0.251654
0.251954
0.253088
0.255189
0.257448
0.259689
0.261836
0.263542
0.264722
0.265515
0.266061
0.266293
0.265968
0.265031
0.263414
0.261433
0.25937
0.257246
0.2556
0.255013
0.249079
0.249194
0.249918
0.251423
0.253075
0.254629
0.256059
0.257536
0.259001
0.260227
0.260976
0.261032
0.260533
0.25966
0.25867
0.257478
0.25605
0.254552
0.253432
0.253128
0.24772
0.247788
0.248189
0.249066
0.25017
0.25138
0.252771
0.254135
0.255391
0.256537
0.257391
0.25773
0.257574
0.257019
0.256129
0.255201
0.254323
0.253473
0.252899
0.252731
0.245781
0.245828
0.246049
0.246499
0.2471
0.248046
0.249056
0.25027
0.251607
0.252905
0.253941
0.254429
0.254397
0.254078
0.253661
0.253124
0.252725
0.252383
0.252137
0.252042
0.242897
0.242922
0.243084
0.24346
0.243989
0.244595
0.245451
0.246514
0.24774
0.249068
0.2503
0.251116
0.251472
0.251531
0.25144
0.251332
0.251141
0.25093
0.25078
0.25073
0.2395
0.239505
0.239629
0.239989
0.240535
0.241184
0.241991
0.24312
0.244449
0.245961
0.247473
0.248601
0.249238
0.249509
0.249668
0.249714
0.249603
0.249439
0.24935
0.249333
0.235866
0.235864
0.23596
0.236269
0.236776
0.237447
0.23832
0.239422
0.240838
0.242566
0.244433
0.245976
0.247015
0.247705
0.248006
0.248183
0.24824
0.248205
0.248194
0.248198
0.23193
0.231927
0.232021
0.232301
0.232781
0.233463
0.234397
0.235654
0.237301
0.239373
0.2417
0.243717
0.245157
0.246114
0.246722
0.247076
0.247258
0.247342
0.247392
0.247404
0.227512
0.227506
0.227608
0.227885
0.228375
0.229106
0.230153
0.231612
0.233576
0.236107
0.239021
0.241636
0.243521
0.244846
0.245723
0.246285
0.246627
0.246825
0.246928
0.246948
0.222479
0.222471
0.222584
0.222901
0.223446
0.224287
0.22552
0.227274
0.229674
0.232809
0.23647
0.23979
0.24223
0.243973
0.245154
0.245931
0.246427
0.246728
0.246878
0.246906
0.216687
0.216678
0.216819
0.2172
0.21786
0.218864
0.220365
0.222525
0.225505
0.229424
0.23403
0.238229
0.241363
0.243573
0.245096
0.246113
0.246772
0.247176
0.247374
0.24741
0.209956
0.209944
0.210124
0.2106
0.211412
0.212666
0.214542
0.217251
0.220992
0.225916
0.231711
0.237
0.240937
0.243737
0.245667
0.246962
0.247808
0.248328
0.248581
0.248626
0.202041
0.202026
0.202259
0.20286
0.20389
0.20549
0.207885
0.211314
0.21604
0.222252
0.229539
0.236171
0.241097
0.2446
0.247016
0.248641
0.249709
0.250368
0.250687
0.250743
0.192614
0.192597
0.192905
0.19369
0.19502
0.197089
0.200158
0.204534
0.21055
0.218406
0.227558
0.235839
0.241969
0.246323
0.249324
0.251345
0.252677
0.253504
0.253904
0.253973
0.181187
0.181164
0.181581
0.182626
0.184378
0.187072
0.19106
0.196726
0.204424
0.214366
0.225833
0.236128
0.243713
0.249095
0.252804
0.255301
0.256947
0.257972
0.258462
0.258551
0.167088
0.167062
0.167647
0.169066
0.171415
0.175004
0.180271
0.187648
0.197532
0.210125
0.224449
0.237176
0.246509
0.253129
0.257699
0.26078
0.262814
0.264088
0.26471
0.264815
0.149358
0.149341
0.150192
0.152156
0.155373
0.160248
0.16729
0.176992
0.189769
0.205717
0.223517
0.239138
0.250544
0.258646
0.264267
0.268076
0.270599
0.272184
0.272962
0.273093
0.126541
0.126566
0.127851
0.130662
0.135215
0.142018
0.151643
0.16459
0.181154
0.201262
0.223198
0.242185
0.256004
0.265863
0.272763
0.27749
0.280651
0.282649
0.283628
0.283792
0.0961665
0.0962967
0.0983746
0.102709
0.109548
0.119474
0.132986
0.150418
0.171851
0.196994
0.223707
0.246495
0.263049
0.274953
0.283402
0.289297
0.293307
0.295878
0.297133
0.29734
0.0538474
0.054298
0.0581587
0.0656586
0.0767704
0.0918826
0.111174
0.134663
0.162177
0.193213
0.225253
0.252185
0.27174
0.285958
0.296262
0.30365
0.308844
0.312279
0.313955
0.314211
-0.00843691
-0.00643332
0.00263921
0.0170454
0.0360908
0.0594486
0.0867934
0.117977
0.152662
0.190256
0.227982
0.259246
0.281954
0.298672
0.311083
0.32033
0.327117
0.331798
0.33422
0.334554
-0.0837325
-0.0797195
-0.0623781
-0.0369457
-0.00736056
0.0254711
0.0615701
0.10092
0.143275
0.188142
0.232546
0.269315
0.296364
0.316758
0.332436
0.344637
0.354337
0.361142
0.364196
0.365318
-0.159873
-0.150036
-0.12421
-0.0888734
-0.0496364
-0.00762004
0.0371351
0.0846036
0.134608
0.18675
0.237882
0.280156
0.311442
0.335342
0.354072
0.369044
0.381069
0.390046
0.395244
0.397167
-0.217977
-0.207018
-0.176245
-0.134224
-0.0876902
-0.0380941
0.0142594
0.0691323
0.126282
0.185219
0.242493
0.289554
0.324232
0.35063
0.371226
0.387557
0.400575
0.410364
0.416224
0.418298
-0.26474
-0.253189
-0.219176
-0.172525
-0.120601
-0.0650971
-0.00655385
0.0546935
0.118147
0.183199
0.245929
0.296969
0.334171
0.362141
0.383665
0.400521
0.41383
0.423874
0.429824
0.431905
-0.303347
-0.291773
-0.255707
-0.205454
-0.149236
-0.0890273
-0.0253946
0.0412644
0.110243
0.180725
0.248296
0.302833
0.342149
0.371328
0.393494
0.410621
0.42395
0.433923
0.439833
0.441858
-0.336787
-0.325287
-0.287736
-0.234668
-0.174919
-0.110725
-0.0426558
0.0286962
0.102611
0.178072
0.25019
0.307947
0.34913
0.379317
0.401937
0.419186
0.432466
0.442371
0.448259
0.450179
-0.366603
-0.355201
-0.316573
-0.261187
-0.198488
-0.130878
-0.0589522
0.0166218
0.0950437
0.17512
0.251457
0.312269
0.355275
0.386463
0.409568
0.427001
0.440299
0.450149
0.456019
0.457852
-0.393977
-0.382649
-0.343148
-0.285827
-0.220641
-0.150085
-0.0747661
0.0046108
0.0871206
0.171523
0.252043
0.316019
0.360968
0.393267
0.41695
0.43463
0.447995
0.457822
0.463681
0.465419
-0.419779
-0.408469
-0.368193
-0.309127
-0.241749
-0.168622
-0.0903296
-0.00757517
0.0787488
0.16733
0.252033
0.319305
0.366378
0.399957
0.42435
0.442379
0.455878
0.4657
0.471554
0.473189
-0.444368
-0.433059
-0.392038
-0.33147
-0.26219
-0.186799
-0.105841
-0.0199821
0.0698748
0.162436
0.251305
0.322087
0.37155
0.406655
0.431944
0.450451
0.464162
0.474044
0.479833
0.481407
-0.468052
-0.456695
-0.415002
-0.353104
-0.28215
-0.204735
-0.121399
-0.0327628
0.0603392
0.1567
0.249772
0.324299
0.376466
0.413386
0.439808
0.458959
0.472989
0.482961
0.488703
0.490236
-0.491077
-0.479571
-0.437251
-0.37416
-0.301728
-0.222556
-0.137121
-0.0459934
0.0500921
0.150062
0.247323
0.3258
0.381022
0.420106
0.447949
0.467961
0.482463
0.492622
0.498299
0.499785
-0.513462
-0.501787
-0.458883
-0.394738
-0.321002
-0.240288
-0.153005
-0.0596522
0.0391295
0.142459
0.243815
0.326425
0.385065
0.426727
0.456333
0.477451
0.49258
0.503015
0.508666
0.510063
-0.535291
-0.523401
-0.479943
-0.414831
-0.339958
-0.257901
-0.16901
-0.0737164
0.0274709
0.133882
0.239167
0.326005
0.388391
0.433095
0.464868
0.487382
0.50332
0.514119
0.519757
0.521025
-0.556483
-0.544403
-0.500405
-0.434436
-0.358579
-0.275368
-0.185099
-0.0881313
0.0151545
0.124334
0.233298
0.32434
0.390697
0.43888
0.473344
0.49766
0.514644
0.525893
0.531519
0.532588
-0.577077
-0.564761
-0.520239
-0.453524
-0.376823
-0.292637
-0.201202
-0.102817
0.00225875
0.113852
0.226163
0.32125
0.391688
0.443724
0.481505
0.508172
0.526468
0.538164
0.543676
0.54452
-0.596885
-0.584435
-0.539403
-0.472038
-0.394623
-0.309612
-0.217234
-0.117678
-0.011117
0.102522
0.217786
0.316636
0.391138
0.447314
0.489047
0.518847
0.538901
0.550966
0.556069
0.556567
-0.61604
-0.603387
-0.557861
-0.489946
-0.411935
-0.326248
-0.233097
-0.132624
-0.0248641
0.0904431
0.208184
0.310415
0.388755
0.449148
0.49537
0.529401
0.552214
0.564556
0.568439
0.56827
-0.634391
-0.621551
-0.575608
-0.5072
-0.428684
-0.342459
-0.248706
-0.147529
-0.0388619
0.0777215
0.19746
0.302549
0.384363
0.448696
0.499621
0.539101
0.566721
0.58042
0.581568
0.579131
-0.652011
-0.638997
-0.592581
-0.523756
-0.444831
-0.358181
-0.263977
-0.162303
-0.0529861
0.0645233
0.185744
0.293048
0.377875
0.445532
0.500758
0.54641
0.581424
0.60062
0.600933
0.58866
-0.668804
-0.655684
-0.608895
-0.53977
-0.460571
-0.373689
-0.279239
-0.177355
-0.0677111
0.0503066
0.172421
0.281229
0.368605
0.438905
0.497109
0.548597
0.592688
0.620823
0.625002
0.620479
-0.684771
-0.671701
-0.624551
-0.555167
-0.475882
-0.388969
-0.294451
-0.192681
-0.083041
0.0350148
0.157388
0.266861
0.356005