/*--------------------------------*- C++ -*----------------------------------*\
  =========                 |
  \\      /  F ield         | OpenFOAM: The Open Source CFD Toolbox
   \\    /   O peration     | Website:  https://openfoam.org
    \\  /    A nd           | Version:  6
     \\/     M anipulation  |
\*---------------------------------------------------------------------------*/
FoamFile
{
    version     2.0;
    format      ascii;
    class       volScalarField;
    location    "15";
    object      p;
}
// * * * * * * * * * * * * * * * * * * * * * * * * * * * * * * * * * * * * * //

dimensions      [0 2 -2 0 0 0 0];

internalField   nonuniform List<scalar> 
2200
(
0.421078
0.40593
0.388515
0.372273
0.35785
0.345799
0.336199
0.328798
0.323392
0.320404
0.320627
0.324021
0.329753
0.337397
0.347175
0.359343
0.373847
0.390143
0.407587
0.422748
0.364622
0.36069
0.355776
0.350292
0.344051
0.337573
0.331426
0.325792
0.321312
0.318891
0.319126
0.321978
0.326787
0.332673
0.339015
0.345631
0.351964
0.357513
0.362466
0.366411
0.322695
0.322404
0.323399
0.324901
0.325796
0.325347
0.323298
0.320169
0.317372
0.315863
0.316126
0.318145
0.321324
0.324734
0.326977
0.327573
0.326779
0.32534
0.324392
0.324705
0.296901
0.298129
0.300942
0.304885
0.308974
0.311888
0.312775
0.312358
0.311689
0.311152
0.311504
0.312648
0.313744
0.314476
0.313803
0.311046
0.307084
0.303224
0.300459
0.299251
0.282058
0.283596
0.286595
0.29051
0.294509
0.297888
0.300428
0.302577
0.304104
0.304734
0.305175
0.305223
0.304168
0.302369
0.300119
0.29695
0.2931
0.28929
0.286348
0.284824
0.274636
0.275844
0.277957
0.280638
0.283298
0.285804
0.28866
0.291911
0.294551
0.296158
0.296624
0.295859
0.293906
0.29112
0.288611
0.286313
0.283787
0.281207
0.279148
0.277953
0.271563
0.272409
0.273926
0.275929
0.277888
0.279765
0.282028
0.284462
0.286513
0.288114
0.288705
0.288239
0.287101
0.285277
0.283284
0.281652
0.279879
0.277952
0.276486
0.275652
0.271058
0.271604
0.27284
0.274731
0.276687
0.278468
0.28024
0.281756
0.283034
0.284225
0.284955
0.285076
0.284795
0.284015
0.282698
0.28124
0.279499
0.277756
0.276589
0.276065
0.271525
0.271766
0.272586
0.274095
0.275766
0.277377
0.278909
0.280253
0.281527
0.282749
0.283594
0.283769
0.283527
0.283041
0.282315
0.281277
0.279951
0.27866
0.277929
0.277697
0.270946
0.270982
0.271333
0.272053
0.272947
0.274086
0.275428
0.276897
0.278492
0.280028
0.281075
0.281338
0.281103
0.280731
0.280332
0.279821
0.279327
0.278859
0.278626
0.278606
0.268285
0.268293
0.268371
0.268554
0.268888
0.269574
0.270607
0.27198
0.273644
0.275386
0.27683
0.277666
0.277974
0.277915
0.277748
0.27766
0.277737
0.277804
0.27784
0.277855
0.264504
0.264488
0.264575
0.264786
0.265175
0.265764
0.266547
0.267729
0.269273
0.271079
0.272927
0.27442
0.275343
0.275854
0.276097
0.276256
0.276405
0.276511
0.276564
0.276582
0.260598
0.260605
0.260784
0.261167
0.26176
0.262593
0.263632
0.264924
0.26659
0.268616
0.270758
0.272588
0.273877
0.274773
0.275367
0.275681
0.275803
0.275841
0.275856
0.275867
0.256591
0.256626
0.256791
0.257204
0.257876
0.258806
0.260108
0.261776
0.26385
0.266402
0.269046
0.271237
0.27285
0.274038
0.274862
0.275336
0.275592
0.275716
0.275766
0.275778
0.25191
0.251946
0.252127
0.252494
0.253117
0.254073
0.255473
0.257418
0.259984
0.26322
0.266679
0.26958
0.271735
0.273291
0.274353
0.275062
0.275524
0.275795
0.275915
0.275938
0.246154
0.246185
0.246405
0.246848
0.247573
0.2487
0.250331
0.25263
0.255745
0.259767
0.264203
0.268008
0.270841
0.27287
0.274279
0.275248
0.275888
0.276271
0.276443
0.276472
0.23954
0.239576
0.239823
0.240399
0.241345
0.242763
0.244819
0.247702
0.251596
0.256632
0.262219
0.267051
0.270658
0.27324
0.275027
0.27623
0.276999
0.277442
0.277635
0.277665
0.231757
0.231823
0.232172
0.232934
0.234168
0.235981
0.238593
0.24224
0.247171
0.253536
0.260573
0.266645
0.271154
0.274358
0.276568
0.278052
0.279009
0.279567
0.279811
0.279848
0.222708
0.222771
0.223177
0.224087
0.225623
0.227945
0.231274
0.23592
0.24219
0.250266
0.259145
0.266751
0.27236
0.276333
0.279075
0.280918
0.282102
0.282779
0.283063
0.283099
0.211589
0.211717
0.212299
0.213513
0.21549
0.218422
0.222669
0.228616
0.236621
0.246878
0.258045
0.267513
0.274437
0.279319
0.282671
0.284918
0.286371
0.287216
0.287582
0.287636
0.198121
0.198234
0.198938
0.200484
0.203054
0.206938
0.212489
0.22017
0.230457
0.243478
0.257432
0.269114
0.277602
0.283575
0.287691
0.290464
0.292251
0.293277
0.293701
0.293747
0.181016
0.18127
0.182295
0.184395
0.187859
0.193019
0.20034
0.210457
0.223761
0.240229
0.257503
0.271762
0.282073
0.289332
0.294321
0.297681
0.299849
0.30109
0.301619
0.301687
0.15956
0.159834
0.161247
0.164189
0.168935
0.176002
0.185955
0.199396
0.216564
0.237214
0.258301
0.275472
0.287859
0.296626
0.302727
0.30686
0.30956
0.311122
0.311751
0.311806
0.131305
0.131899
0.134066
0.138366
0.145255
0.155354
0.169145
0.187073
0.209144
0.234656
0.260033
0.280451
0.295193
0.305719
0.313154
0.318291
0.321607
0.323487
0.324268
0.324349
0.0937066
0.0947854
0.0983864
0.105345
0.115955
0.130697
0.15004
0.173988
0.201858
0.232748
0.262835
0.286718
0.303966
0.316484
0.325468
0.331827
0.336164
0.338705
0.339709
0.339747
0.0437863
0.0453431
0.0516494
0.0634347
0.080384
0.102481
0.129515
0.160675
0.19481
0.231612
0.266727
0.294258
0.31414
0.328802
0.339753
0.347719
0.353136
0.356291
0.357413
0.357316
-0.0224435
-0.0179418
-0.00501973
0.0152234
0.0415441
0.0730849
0.108743
0.147235
0.188089
0.231648
0.272469
0.30442
0.327793
0.345258
0.358738
0.369306
0.377031
0.381701
0.383482
0.383675
-0.098211
-0.0865057
-0.0634252
-0.0329534
0.003501
0.0443764
0.0880779
0.133652
0.181822
0.232685
0.279777
0.316782
0.344308
0.365325
0.381795
0.395245
0.406084
0.413564
0.417653
0.418922
-0.164403
-0.147926
-0.117838
-0.0784989
-0.0328151
0.0165096
0.0675848
0.120295
0.17603
0.233844
0.286826
0.32845
0.359579
0.383651
0.402564
0.417667
0.429763
0.43854
0.443025
0.444289
-0.215147
-0.198807
-0.165014
-0.119317
-0.0665661
-0.0103307
0.0473952
0.10733
0.1704
0.234658
0.29318
0.338868
0.37268
0.398554
0.41871
0.434432
0.446577
0.455151
0.45959
0.460943
-0.257774
-0.24067
-0.204307
-0.154561
-0.0969124
-0.0353519
0.0282873
0.0951114
0.164675
0.234687
0.29805
0.346858
0.3824
0.409061
0.429506
0.445349
0.457502
0.466047
0.470557
0.471973
-0.294235
-0.276162
-0.237386
-0.18458
-0.123377
-0.0577788
0.010907
0.0835958
0.158436
0.233482
0.300975
0.352317
0.389182
0.416392
0.437022
0.452977
0.465234
0.473871
0.478498
0.479886
-0.326137
-0.307228
-0.266148
-0.210507
-0.146352
-0.0775592
-0.00476355
0.072462
0.15162
0.231312
0.302704
0.356465
0.394677
0.422662
0.443661
0.459776
0.472145
0.480792
0.485306
0.486544
-0.354807
-0.335237
-0.292063
-0.233694
-0.166868
-0.0953349
-0.0192156
0.0615585
0.144584
0.228666
0.303733
0.359987
0.399817
0.428735
0.450206
0.466457
0.478732
0.487286
0.491818
0.493013
-0.381164
-0.361092
-0.316089
-0.255252
-0.186013
-0.112011
-0.0330353
0.0508667
0.137573
0.225807
0.304711
0.363832
0.405275
0.435044
0.456855
0.473196
0.485495
0.493987
0.498543
0.499671
-0.405903
-0.385399
-0.338846
-0.275908
-0.204583
-0.128344
-0.0466786
0.0402689
0.130504
0.222713
0.305497
0.367293
0.41041
0.441179
0.463608
0.480169
0.492467
0.50089
0.505389
0.506475
-0.429287
-0.408333
-0.360641
-0.296103
-0.223067
-0.14479
-0.060477
0.0294056
0.122882
0.218766
0.305216
0.370172
0.415494
0.447508
0.470414
0.487246
0.49957
0.507915
0.512431
0.513503
-0.451695
-0.430246
-0.381692
-0.315946
-0.241551
-0.16143
-0.0746119
0.0178715
0.114244
0.213652
0.304223
0.372905
0.420519
0.453828
0.47762
0.494803
0.50732
0.515693
0.520034
0.521001
-0.473299
-0.451326
-0.402107
-0.335399
-0.259871
-0.17806
-0.0890485
0.00560198
0.104661
0.207575
0.30225
0.374639
0.425337
0.460726
0.485465
0.503052
0.515595
0.523705
0.527889
0.52882
-0.49422
-0.471791
-0.421923
-0.354335
-0.277766
-0.194388
-0.103578
-0.00718234
0.0942982
0.200367
0.298641
0.375359
0.429877
0.467617
0.493472
0.511535
0.524101
0.53228
0.536251
0.537068
-0.514506
-0.491705
-0.441192
-0.372707
-0.29507
-0.210226
-0.118015
-0.0202646
0.0832395
0.192109
0.294002
0.375069
0.433533
0.474648
0.50255
0.521119
0.533648
0.541349
0.544968
0.54563
-0.534256
-0.511146
-0.459973
-0.390549
-0.311789
-0.22559
-0.132301
-0.0334669
0.071695
0.183034
0.288288
0.373099
0.436316
0.481799
0.512536
0.532032
0.544135
0.551067
0.554041
0.554455
-0.553492
-0.530158
-0.478329
-0.407908
-0.32799
-0.240589
-0.146437
-0.0466829
0.0597518
0.173053
0.281146
0.369327
0.436684
0.487561
0.522941
0.544751
0.556237
0.561619
0.563204
0.562917
-0.572224
-0.548716
-0.49621
-0.424757
-0.343727
-0.255339
-0.16048
-0.0599306
0.0474361
0.162243
0.272929
0.364325
0.435465
0.49143
0.533187
0.559898
0.57224
0.574527
0.572429
0.57108
-0.590365
-0.566753
-0.513524
-0.441006
-0.358981
-0.269879
-0.174461
-0.073159
0.0349536
0.150807
0.263831
0.357804
0.432168
0.492746
0.541657
0.576244
0.593627
0.593723
0.583829
0.577838
-0.607862
-0.58416
-0.530136
-0.456552
-0.373714
-0.284192
-0.188354
-0.086298
0.0224643
0.138918
0.253707
0.349912
0.426833
0.491251
0.545943
0.590317
0.619406
0.623775
0.601956
0.57175
-0.624619
-0.600842
-0.546007
-0.471482
-0.388082
-0.298437
-0.202377
-0.0996739
0.00971535
0.126494
0.24218
0.340134
0.419388
0.486768
0.545829
0.598273
0.641034
0.666004
0.677156
0.681725
-0.640598
-0.616799
-0.561203
-0.485951
-0.402305
-0.312871
-0.216846
-0.113674
-0.00372812
0.113044
0.228659
0.327328
0.407781
0.477238
0.538265
0.591601
0.633427
0.656867
0.64309
0.631445
-0.655794
-0.632034
-0.575709
-0.499892
-0.416326
-0.327398
-0.231597
-0.128142
-0.0178446
0.098693
0.213475
0.311652
0.391899
0.459803
0.517351
0.562114
0.577137
0.557043
0.518376
0.504303
-0.670184
-0.646594
-0.589557
-0.513331
-0.430204
-0.341997
-0.246537
-0.143092
-0.0327334
0.0834518
0.196745
0.292314
0.36912
0.430633
0.476706
0.495744
0.480025
0.427619
0.366165
0.355912
-0.6837
-0.66054
-0.602831
-0.5264
-0.444056
-0.356657
-0.261593
-0.158461
-0.0483958
0.067161
0.178106
0.269511
0.338949
0.38826
0.412523
0.405608
0.363915
0.275763
0.196863
0.18752
-0.696694
-0.674168
-0.616098
-0.539813
-0.458371
-0.371647
-0.276962
-0.174409
-0.0650747
0.0494314
0.15761
0.243917
0.303889
0.334358
0.328812
0.298354
0.202056
0.0929704
0.00447191
-0.00320198
-0.709967
-0.687962
-0.630311
-0.554625
-0.473819
-0.387404
-0.29302
-0.191252
-0.0830514
0.0298795
0.134935
0.214293
0.261185
0.267905
0.234214
0.159428
0.0248394
-0.108011
-0.217798
-0.232217
-0.72407
-0.702385
-0.645806
-0.571045
-0.490493
-0.404013
-0.309877
-0.209019
-0.102261
0.0085229
0.109683
0.181486
0.2116
0.191867
0.135751
0.00368026
-0.168671
-0.347961
-0.496194
-0.51921
-0.739163
-0.717728
-0.662393
-0.588618
-0.508096
-0.421368
-0.3275
-0.227652
-0.122564
-0.0145382
0.0816077
0.146346
0.155655
0.105319
0.0119741
-0.162894
-0.371905
-0.608367
-0.826917
-0.895562
-0.755436
-0.73422
-0.679924
-0.606953
-0.52639
-0.439452
-0.345981
-0.247262
-0.144001
-0.0393238
0.0507906
0.105666
0.09555
0.00819454
-0.139042
-0.337096
-0.56475
-0.87205
-1.33068
-1.68462
-0.772925
-0.751865
-0.698294
-0.625834
-0.545197
-0.458174
-0.365274
-0.267779
-0.166305
-0.0651361
0.0186185
0.062598
0.0319709
-0.0903956
-0.301831
-0.531623
-0.743487
-1.04263
-1.63367
-2.56061
-0.791688
-0.770646
-0.717506
-0.64534
-0.564622
-0.477671
-0.385568
-0.289523
-0.189868
-0.0924779
-0.0165651
0.0144678
-0.0361328
-0.180205
-0.450186
-0.709477
-0.897568
-1.06892
-1.28939
-1.63013
-0.811649
-0.790569
-0.737751
-0.665819
-0.585072
-0.498369
-0.407412
-0.313262
-0.215615
-0.121551
-0.0533084
-0.0382005
-0.110946
-0.269626
-0.56842
-0.824673
-0.984112
-1.07365
-1.12132
-1.15949
-0.83275
-0.811557
-0.758996
-0.687333
-0.606649
-0.52031
-0.430701
-0.339021
-0.243756
-0.152424
-0.0929534
-0.0932688
-0.18698
-0.363482
-0.655396
-0.881792
-1.01224
-1.06031
-1.09773
-1.10334
-0.85482
-0.833549
-0.781218
-0.709829
-0.629346
-0.543437
-0.45522
-0.366654
-0.274914
-0.185454
-0.134291
-0.156826
-0.266524
-0.457663
-0.725001
-0.9191
-1.02371
-1.04795
-1.06062
-1.06358
-0.877582
-0.856217
-0.804101
-0.733109
-0.65303
-0.567638
-0.480643
-0.395643
-0.309207
-0.220343
-0.17275
-0.2166
-0.35067
-0.568292
-0.790013
-0.934932
-1.00891
-1.04503
-1.04317
-1.04374
-0.900741
-0.879424
-0.82746
-0.756806
-0.677314
-0.59264
-0.506504
-0.424974
-0.345665
-0.258187
-0.213529
-0.285093
-0.440254
-0.676866
-0.860525
-0.96245
-0.993954
-1.02604
-1.03733
-1.04032
-0.923736
-0.90253
-0.850769
-0.780476
-0.701693
-0.618075
-0.532549
-0.453395
-0.38265
-0.299215
-0.249141
-0.350512
-0.547905
-0.80502
-0.950395
-1.00134
-1.01225
-1.03326
-1.05574
-1.06562
-0.945978
-0.925125
-0.873684
-0.803519
-0.725312
-0.643195
-0.558528
-0.479881
-0.417579
-0.342271
-0.277097
-0.388922
-0.645955
-0.945434
-1.08914
-1.10023
-1.11213
-1.12079
-1.13939
-1.14758
-0.966518
-0.946131
-0.895308
-0.825365
-0.747493
-0.666885
-0.583847
-0.503857
-0.446593
-0.386097
-0.306573
-0.410964
-0.711174
-1.08643
-1.32655
-1.38358
-1.38481
-1.35615
-1.3397
-1.32654
-0.984354
-0.964637
-0.914607
-0.845079
-0.767355
-0.687807
-0.607104
-0.525677
-0.465412
-0.4273
-0.339333
-0.408094
-0.725954
-1.20181
-1.60047
-1.78887
-1.80064
-1.74741
-1.68281
-1.63732
-0.99813
-0.979254
-0.930266
-0.861496
-0.784249
-0.704962
-0.62646
-0.545754
-0.476601
-0.453418
-0.382817
-0.370703
-0.659129
-1.18295
-1.72137
-2.04617
-2.10611
-2.05566
-1.95147
-1.88274
-1.00645
-0.988578
-0.940733
-0.872709
-0.796433
-0.717341
-0.640444
-0.563158
-0.488671
-0.449731
-0.418431
-0.327709
-0.527977
-0.943996
-1.45123
-1.84625
-1.92319
-1.84985
-1.73241
-1.64755
-1.00721
-0.990615
-0.944427
-0.877242
-0.802077
-0.724368
-0.648339
-0.575183
-0.497326
-0.441307
-0.424643
-0.292069
-0.360641
-0.509488
-0.714217
-0.907128
-0.90786
-0.820312
-0.723323
-0.653792
-0.9986
-0.983425
-0.939421
-0.873327
-0.799256
-0.724563
-0.650601
-0.582131
-0.506402
-0.426729
-0.37695
-0.252294
-0.154926
0.00502838
0.188438
0.296169
0.410836
0.539591
0.622059
0.653231
-0.978402
-0.964701
-0.923414
-0.859103
-0.786629
-0.71541
-0.646443
-0.583626
-0.517337
-0.42345
-0.311704
-0.210086
0.0194837
0.352249
0.771532
1.13407
1.40287
1.56689
1.62772
1.6418
-0.944239
-0.932119
-0.894341
-0.832874
-0.76314
-0.695914
-0.633842
-0.57424
-0.515337
-0.432735
-0.3165
-0.194377
0.115843
0.530045
1.00252
1.40997
1.71384
1.8784
1.92947
1.94035
-0.896019
-0.885786
-0.851979
-0.795123
-0.730285
-0.668883
-0.614905
-0.566935
-0.531905
-0.488517
-0.425094
-0.283492
0.0389317
0.48797
0.929862
1.29627
1.55285
1.68508
1.72741
1.74175
-0.834081
-0.825233
-0.796426
-0.746442
-0.689183
-0.636945
-0.594677
-0.571147
-0.587284
-0.640027
-0.673336
-0.544982
-0.209061
0.25968
0.662003
0.969223
1.17415
1.2743
1.31402
1.33007
-0.760885
-0.753249
-0.729425
-0.687403
-0.639514
-0.597607
-0.568143
-0.566037
-0.624209
-0.7715
-0.947697
-0.831783
-0.406018
0.0293665
0.35411
0.60312
0.755704
0.826714
0.863911
0.882327
-0.669723
-0.66457
-0.646743
-0.615094
-0.578023
-0.544634
-0.523672
-0.529217
-0.594232
-0.757034
-0.931566
-0.804099
-0.403474
-0.0457346
0.215482
0.393973
0.492664
0.541858
0.570045
0.585298
-0.562086
-0.558934
-0.546667
-0.524779
-0.498514
-0.473367
-0.457135
-0.460881
-0.510577
-0.639989
-0.754402
-0.594041
-0.238988
-0.000641512
0.177505
0.286127
0.343811
0.378151
0.398499
0.406708
-0.44846
-0.447024
-0.439095
-0.424098
-0.406256
-0.388886
-0.375795
-0.372655
-0.395761
-0.467665
-0.513019
-0.33923
-0.0892357
0.0523929
0.153081
0.210199
0.242412
0.263786
0.27666
0.28117
-0.334217
-0.333916
-0.329583
-0.320629
-0.310378
-0.299839
-0.288251
-0.27701
-0.275639
-0.297508
-0.284413
-0.133367
-0.00290391
0.0840662
0.13734
0.163022
0.179678
0.191609
0.198686
0.20081
-0.229404
-0.229663
-0.227673
-0.22346
-0.219014
-0.212497
-0.200658
-0.184556
-0.168861
-0.160311
-0.112567
-0.0103129
0.0541583
0.104555
0.12832
0.138663
0.14571
0.150866
0.15395
0.154846
-0.142041
-0.14262
-0.142146
-0.140606
-0.138588
-0.133326
-0.122006
-0.106068
-0.085797
-0.0547742
-0.0115803
0.0471053
0.0875561
0.111909
0.122199
0.125988
0.127767
0.129062
0.129821
0.129662
-0.0753685
-0.0761793
-0.0766185
-0.0763648
-0.0749999
-0.0702787
-0.0611469
-0.0487505
-0.0309839
0.00103228
0.0417516
0.0821903
0.10228
0.111996
0.116001
0.116785
0.11607
0.115331
0.114741
0.113921
-0.0273799
-0.0282868
-0.0294533
-0.0305016
-0.0302755
-0.026752
-0.01991
-0.0105731
0.00459618
0.0317383
0.064048
0.0943534
0.10475
0.108437
0.109263
0.108305
0.106114
0.104157
0.102803
0.101811
0.00470762
0.00390689
0.00230997
7.9428e-05
-0.00115541
0.000749099
0.00559831
0.0130969
0.0266786
0.0486129
0.0718986
0.0931297
0.100403
0.102023
0.101562
0.099929
0.0970896
0.0945611
0.0929696
0.0920877
0.0236041
0.0230423
0.0215766
0.0191759
0.0174422
0.0180915
0.0208195
0.0264852
0.0380403
0.0549585
0.0720838
0.0870263
0.0926518
0.093553
0.0926875
0.0911948
0.0886966
0.0864196
0.0850605
0.0843925
0.0336072
0.0332549
0.032304
0.0306944
0.0295933
0.029771
0.0307413
0.0344432
0.0429906
0.0551409
0.0681214
0.0788657
0.0832633
0.0840433
0.0831899
0.0821341
0.0804555
0.0788522
0.0779151
0.0774515
0.0396232
0.0393845
0.0388824
0.0380908
0.0377458
0.0379357
0.0381528
0.0404862
0.0459408
0.0538634
0.063286
0.0707754
0.0740355
0.0748398
0.074198
0.0734751
0.0724242
0.0713439
0.0707118
0.0703877
0.0441093
0.0439166
0.0435483
0.0429771
0.0427367
0.0427983
0.0429274
0.0446561
0.0479931
0.0529092
0.0592191
0.0640702
0.066235
0.0669237
0.0664532
0.0658134
0.0649885
0.0641219
0.0636188
0.063377
0.046691
0.0465162
0.0460775
0.045332
0.0447486
0.0443986
0.0444045
0.0457345
0.0479678
0.0512964
0.0554862
0.0585381
0.0598544
0.0602802
0.0598465
0.0591564
0.0583705
0.0575918
0.0571459
0.0569569
0.0466839
0.0465292
0.0460485
0.0452081
0.0444021
0.0437132
0.0434426
0.0442071
0.0457019
0.0481975
0.0512089
0.0532862
0.0541057
0.0542794
0.0538462
0.0531614
0.0524535
0.0517928
0.0514147
0.0512676
0.0446421
0.0445185
0.0441043
0.0433881
0.0426528
0.0419259
0.0414951
0.0417116
0.0425229
0.0442732
0.0464597
0.047954
0.0484958
0.0485222
0.0481409
0.0475589
0.0469897
0.0464795
0.0461852
0.0460752
0.0416308
0.0415444
0.0412354
0.0407028
0.0401323
0.0395338
0.0391247
0.0390431
0.0393581
0.0403968
0.0418067
0.0427829
0.043099
0.043041
0.0427325
0.0422763
0.0418381
0.0414588
0.0412385
0.0411574
0.0381514
0.0380932
0.0378588
0.0374494
0.0369879
0.0365027
0.0361562
0.0359758
0.0360469
0.0365926
0.0373902
0.0379315
0.0380554
0.0379361
0.0376726
0.0373066
0.0369549
0.0366617
0.0364923
0.0364309
0.0342673
0.0342254
0.034033
0.0336931
0.0332925
0.0328749
0.0325564
0.0323372
0.032308
0.0325934
0.0330348
0.0333041
0.0333048
0.0331415
0.0328949
0.0325851
0.0322888
0.0320502
0.0319156
0.0318683
0.0300246
0.0299927
0.0298373
0.029562
0.0292259
0.0288715
0.028573
0.0283327
0.0282412
0.0283804
0.0286327
0.028756
0.0286939
0.0285175
0.0282943
0.028037
0.0277947
0.0276044
0.0274983
0.0274611
0.0255679
0.0255437
0.0254241
0.025212
0.0249476
0.0246635
0.0244011
0.0241658
0.024032
0.0240673
0.0242012
0.0242435
0.0241555
0.0239907
0.0237996
0.0235923
0.0233994
0.0232499
0.0231673
0.023138
0.0210065
0.0209894
0.0209035
0.020748
0.0205494
0.0203332
0.0201216
0.0199195
0.0197775
0.0197446
0.0197895
0.0197751
0.019677
0.0195325
0.0193746
0.0192106
0.0190599
0.0189445
0.0188825
0.0188609
0.0164007
0.0163875
0.0163251
0.0162112
0.0160644
0.0159041
0.0157425
0.0155831
0.0154579
0.0154032
0.0154018
0.0153564
0.0152592
0.0151402
0.0150166
0.0148911
0.0147762
0.0146876
0.0146398
0.0146229
0.0117615
0.011753
0.0117095
0.0116276
0.0115217
0.0114065
0.0112885
0.0111713
0.0110732
0.01102
0.0110023
0.0109543
0.0108764
0.0107879
0.0106965
0.0106041
0.0105199
0.0104556
0.0104217
0.0104102
0.00708292
0.00707781
0.00705041
0.0069979
0.00693236
0.0068633
0.00679226
0.0067202
0.00665477
0.00661559
0.00660084
0.00656392
0.00651291
0.00645922
0.00640314
0.00634633
0.00629306
0.00625079
0.00622897
0.00622145
0.00238051
0.00237912
0.00236606
0.00234104
0.00231532
0.00229113
0.0022664
0.00224127
0.00221627
0.00220314
0.00220383
0.00219085
0.00217061
0.00215189
0.00213225
0.00211205
0.0020907
0.00206886
0.00205887
0.00205549
-1.11139
-0.591662
-0.284114
-0.0486928
0.144521
0.30679
0.442905
0.56147
0.656766
0.690296
-0.364183
-0.122097
0.0145331
0.155521
0.291586
0.407834
0.496236
0.550128
0.557757
0.558864
-0.0468561
0.10093
0.211281
0.309868
0.398745
0.473624
0.528866
0.560735
0.574589
0.606203
0.167901
0.267371
0.353603
0.425828
0.485626
0.534596
0.573239
0.603492
0.628994
0.655212
0.338771
0.401902
0.464835
0.517658
0.561179
0.597376
0.628411
0.65619
0.682194
0.704628
0.47186
0.515882
0.561041
0.600296
0.634066
0.663451
0.689663
0.713903
0.736784
0.755735
0.583921
0.61641
0.649315
0.678872
0.705679
0.730156
0.752789
0.773902
0.793381
0.809414
0.68139
0.704559
0.731323
0.755918
0.777991
0.798145
0.817017
0.835015
0.851994
0.865793
0.770389
0.79047
0.812019
0.83175
0.849666
0.866507
0.882738
0.898203
0.912702
0.924905
0.857216
0.87191
0.889762
0.906442
0.922045
0.936731
0.950523
0.963582
0.97595
0.986281
0.945924
0.955015
0.968446
0.982764
0.996414
1.00888
1.02031
1.03099
1.04128
1.05038
1.03498
1.04048
1.05044
1.06236
1.07391
1.08428
1.09348
1.10191
1.10993
1.11699
1.12667
1.13008
1.1369
1.14507
1.15332
1.16124
1.16857
1.17514
1.18136
1.18724
1.22252
1.22287
1.22468
1.22751
1.23121
1.23596
1.24182
1.24862
1.25567
1.26178
1.32432
1.31588
1.3066
1.29936
1.29595
1.29745
1.30418
1.31554
1.32995
1.34337
1.43171
1.39417
1.3632
1.34424
1.33539
1.33514
1.34341
1.36257
1.39404
1.43293
)
;

boundaryField
{
    wall-4
    {
        type            zeroGradient;
    }
    pressure-outlet-7
    {
        type            fixedValue;
        value           uniform 0;
    }
    velocity-inlet-6
    {
        type            zeroGradient;
    }
    velocity-inlet-5
    {
        type            zeroGradient;
    }
    frontAndBackPlanes
    {
        type            empty;
    }
}


// ************************************************************************* //
