/*--------------------------------*- C++ -*----------------------------------*\
  =========                 |
  \\      /  F ield         | OpenFOAM: The Open Source CFD Toolbox
   \\    /   O peration     | Website:  https://openfoam.org
    \\  /    A nd           | Version:  6
     \\/     M anipulation  |
\*---------------------------------------------------------------------------*/
FoamFile
{
    version     2.0;
    format      ascii;
    class       surfaceScalarField;
    location    "5.4";
    object      phi;
}
// * * * * * * * * * * * * * * * * * * * * * * * * * * * * * * * * * * * * * //

dimensions      [0 3 -1 0 0 0 0];

internalField   nonuniform List<scalar> 
17370
(
-0.0898974
0.0896772
0.289231
-0.0711372
0.0533635
0.364549
-0.037828
0.0275844
0.426412
-0.019632
0.0146113
0.504272
-0.0107362
0.00832266
0.601816
-0.00639758
0.00512877
0.720326
-0.00399423
0.00315756
0.863743
-0.00233763
0.00174083
1.03605
-0.0011754
0.000719867
1.24296
-0.000244855
-3.46165e-05
1.49147
0.000341705
-0.000825076
1.49167
0.00127343
-0.00183759
1.24325
0.00243372
-0.00325164
1.03646
0.00409116
-0.00522081
0.864036
0.0064774
-0.00839172
0.720972
0.0107907
-0.0146515
0.603075
0.0196639
-0.0276128
0.507388
0.0378535
-0.0533849
0.4317
0.0711541
-0.0896879
0.365309
0.0899035
0.199107
-0.128553
0.0894477
0.039105
-0.365018
0.354078
-0.0732273
0.0841672
-0.446635
0.455399
-0.0819898
0.0732255
-0.521035
0.530235
-0.0641402
0.0549407
-0.61255
0.621067
-0.0467043
0.0381879
-0.726864
0.733432
-0.0310687
0.0245008
-0.867362
0.871883
-0.0193705
0.0148494
-1.03835
1.04122
-0.011465
0.00859554
-1.24462
1.24648
-0.00651673
0.0046585
-1.49267
1.49431
-0.00310367
0.00145858
-1.49234
1.49397
0.000193798
-0.0018286
-1.24398
1.24551
0.00343752
-0.0049688
-1.03742
1.03949
0.00679712
-0.00886677
-0.865886
0.869256
0.0117239
-0.0150932
-0.72428
0.729392
0.0195929
-0.0247051
-0.608488
0.61559
0.0312469
-0.0383483
-0.51483
0.523047
0.0468442
-0.0550611
-0.43964
0.448712
0.0642367
-0.0733089
-0.375587
0.377748
0.0820614
-0.0842232
-0.257733
0.223586
0.0732659
-0.0391193
-0.0713295
0.0635426
0.00778691
-0.0405636
0.0466276
-0.374948
0.368884
-0.0470996
0.0450812
-0.454398
0.456416
-0.0417692
0.0388366
-0.528056
0.530989
-0.0354931
0.0320368
-0.620645
0.624101
-0.0280864
0.0246265
-0.733688
0.737148
-0.0210552
0.0178605
-0.872817
0.876011
-0.0144689
0.0114208
-1.04239
1.04544
-0.00827899
0.00549638
-1.24801
1.25079
-0.00250058
-0.000318523
-1.49661
1.49943
0.00312641
-0.00609116
-1.49689
1.49986
0.00882175
-0.0118873
-1.24918
1.25224
0.0148551
-0.0181857
-1.04455
1.04788
0.0213307
-0.0248642
-0.875921
0.879454
0.0283023
-0.0322307
-0.738396
0.742325
0.0357034
-0.0390503
-0.626313
0.62966
0.041971
-0.0452647
-0.535545
0.538839
0.0472568
-0.046752
-0.458596
0.458092
0.0406552
-0.0247264
-0.337812
0.321883
0.00780381
-0.0712775
0.0634737
-0.0600648
0.0588414
0.00122339
-0.0151901
0.021996
-0.361928
0.355122
-0.0266647
0.02918
-0.456213
0.453698
-0.0300897
0.0299365
-0.532525
0.532679
-0.0291798
0.0283047
-0.625825
0.6267
-0.0268797
0.0249749
-0.739718
0.741623
-0.0222663
0.0195034
-0.878914
0.881677
-0.0162814
0.0132487
-1.04841
1.05144
-0.0097855
0.00655885
-1.25374
1.25697
-0.0029186
-0.000577997
-1.5024
1.50589
0.00406008
-0.00767799
-1.50305
1.50667
0.0108741
-0.0142987
-1.25549
1.25891
0.0172841
-0.0204427
-1.05106
1.05422
0.023138
-0.0257501
-0.882534
0.885146
0.0275342
-0.0288705
-0.744631
0.745967
0.0296169
-0.0302897
-0.631359
0.632032
0.030402
-0.0294477
-0.540432
0.539478
0.0268944
-0.0221826
-0.455447
0.450735
0.0153254
-0.00646853
-0.309374
0.300517
0.00124683
-0.0599809
0.0587341
-0.058816
0.0589428
-0.000126822
-0.00415362
0.00883117
-0.349179
0.344501
-0.0143815
0.0188525
-0.449529
0.445059
-0.0226703
0.0249166
-0.53142
0.529174
-0.0261845
0.0262532
-0.627264
0.627196
-0.0255001
0.0241288
-0.743122
0.744494
-0.0221287
0.0198607
-0.884112
0.88638
-0.0169632
0.0139971
-1.05447
1.05743
-0.0104805
0.00702686
-1.26036
1.26382
-0.00298389
-0.00100361
-1.50978
1.51377
0.00496414
-0.00892986
-1.51057
1.51454
0.0122845
-0.0156649
-1.26235
1.26573
0.0184923
-0.021236
-1.05714
1.05989
0.0233653
-0.0252158
-0.887191
0.889041
0.0264656
-0.027104
-0.747051
0.747689
0.0269618
-0.0255828
-0.631827
0.630448
0.0232387
-0.0193099
-0.536405
0.532477
0.0147407
-0.00908592
-0.44481
0.439155
0.00431936
-0.000846695
-0.294951
0.291479
-9.97761e-05
-0.0586792
0.058779
-0.0588304
0.0586941
0.000136294
-0.00231709
0.00487207
-0.340964
0.338409
-0.00842001
0.0116894
-0.441086
0.437817
-0.014829
0.0170455
-0.526861
0.524645
-0.0186695
0.0194737
-0.626626
0.625822
-0.0196183
0.0191605
-0.74539
0.745848
-0.0180388
0.0165627
-0.888305
0.889781
-0.0144671
0.0121733
-1.06012
1.06242
-0.00922289
0.00618089
-1.26715
1.27019
-0.00245193
-0.00130541
-1.51771
1.52147
0.00504147
-0.00869877
-1.51843
1.52209
0.011616
-0.0144047
-1.26889
1.27168
0.0165315
-0.0184307
-1.06229
1.06418
0.0197251
-0.0206545
-0.890504
0.891434
0.0209442
-0.0206275
-0.747759
0.747443
0.0196625
-0.0178702
-0.628783
0.626991
0.0155156
-0.012238
-0.528735
0.525457
0.00885068
-0.005182
-0.434451
0.430782
0.00252413
-0.000809157
-0.289038
0.287323
0.000171707
-0.0586384
0.0584667
-0.0586693
0.0586814
-1.20525e-05
-0.000776359
0.00189461
-0.33669
0.335572
-0.00363405
0.00541474
-0.435312
0.433532
-0.00733719
0.008919
-0.522656
0.521074
-0.010362
0.0113458
-0.624813
0.623829
-0.0120056
0.0121954
-0.745912
0.745722
-0.0119309
0.0112553
-0.890832
0.891508
-0.0100383
0.0085107
-1.06434
1.06586
-0.0064043
0.00411422
-1.27287
1.27516
-0.0012407
-0.00165071
-1.52487
1.52777
0.00450108
-0.00724041
-1.52535
1.52809
0.00937141
-0.0112682
-1.27404
1.27594
0.0125855
-0.0135604
-1.06561
1.06659
0.0140099
-0.0140282
-0.891849
0.891867
0.0136214
-0.0127351
-0.746731
0.745845
0.0115572
-0.00991735
-0.625149
0.623509
0.00816882
-0.00607809
-0.522738
0.520647
0.00415484
-0.00226857
-0.428092
0.426206
0.00102468
-0.000278532
-0.28621
0.285464
2.90687e-05
-0.0584045
0.0583754
-0.0586775
0.0586738
3.78547e-06
-0.000376977
0.000877867
-0.334829
0.334328
-0.00166825
0.00251183
-0.432306
0.431462
-0.00347017
0.00431256
-0.519906
0.519064
-0.00514396
0.0057772
-0.623013
0.62238
-0.00628188
0.00653467
-0.745456
0.745203
-0.00653996
0.00626773
-0.891928
0.8922
-0.00563533
0.00474631
-1.06703
1.06792
-0.00342354
0.00191631
-1.27704
1.27855
2.68688e-05
-0.00200037
-1.53015
1.53213
0.00391472
-0.00570017
-1.53032
1.5321
0.00701001
-0.00807735
-1.27739
1.27845
0.00871067
-0.00905056
-1.06719
1.06753
0.0090547
-0.00875904
-0.891672
0.891376
0.00824882
-0.00747425
-0.744984
0.74421
0.00660778
-0.00553685
-0.622174
0.621103
0.00449063
-0.00332468
-0.519094
0.517928
0.00230588
-0.00133667
-0.424876
0.423907
0.000682914
-0.000245667
-0.284907
0.284469
5.57751e-05
-0.0583249
0.0582691
-0.0586819
0.0587008
-1.88617e-05
-9.3242e-05
0.000302747
-0.333997
0.333788
-0.000649735
0.00103107
-0.430887
0.430506
-0.00147729
0.00188213
-0.518468
0.518064
-0.00229831
0.00262944
-0.621908
0.621577
-0.00290826
0.0030577
-0.744994
0.744845
-0.00307212
0.00292053
-0.89239
0.892542
-0.00254435
0.0019936
-1.06861
1.06916
-0.00115077
0.000172118
-1.27976
1.28074
0.00110922
-0.00242027
-1.53374
1.53506
0.00367377
-0.00477929
-1.53352
1.53462
0.00552562
-0.006054
-1.27922
1.27975
0.00628738
-0.00630737
-1.06769
1.06771
0.00613064
-0.00576225
-0.891029
0.890661
0.0053001
-0.00469411
-0.743522
0.742916
0.00408041
-0.00337408
-0.620237
0.619531
0.00272255
-0.0020253
-0.517036
0.516339
0.00143137
-0.000866357
-0.423179
0.422614
0.000470075
-0.000183099
-0.284121
0.283834
4.50573e-05
-0.0582205
0.0581755
-0.0587272
0.0587604
-3.3179e-05
8.23956e-05
-3.34899e-05
-0.333666
0.333617
-8.37673e-05
0.000223005
-0.430263
0.430124
-0.000389119
0.000538994
-0.517803
0.517653
-0.000689373
0.000801785
-0.621365
0.621253
-0.00088146
0.000897448
-0.744762
0.744746
-0.000831416
0.000675454
-0.892686
0.892842
-0.000378577
-2.07706e-05
-1.06962
1.07002
0.000608368
-0.00127576
-1.28154
1.28221
0.00213268
-0.00298481
-1.53611
1.53697
0.00376508
-0.00440181
-1.53547
1.53611
0.00476674
-0.00496608
-1.2801
1.2803
0.00499462
-0.00485344
-1.06763
1.06749
0.00460548
-0.00423576
-0.890289
0.889919
0.00383487
-0.0033531
-0.74238
0.741899
0.00289419
-0.0023889
-0.618943
0.618437
0.00193786
-0.00146597
-0.515776
0.515304
0.00106717
-0.000682019
-0.422157
0.421772
0.000397445
-0.000171586
-0.283586
0.28336
4.81768e-05
-0.0581295
0.0580813
-0.0588016
0.0588491
-4.75556e-05
0.000206085
-0.000250079
-0.333623
0.333667
0.0002733
-0.000283585
-0.430066
0.430077
0.00029403
-0.000309958
-0.517593
0.517609
0.000340411
-0.000386624
-0.621225
0.621271
0.000465874
-0.000573759
-0.744794
0.744902
0.000742418
-0.000953273
-0.893021
0.893232
0.001258
-0.00161014
-1.07039
1.07074
0.00207974
-0.00257655
-1.28278
1.28327
0.00317498
-0.00372995
-1.53765
1.53821
0.00419439
-0.00452762
-1.53658
1.53691
0.00467652
-0.00466355
-1.28036
1.28035
0.0045219
-0.00427315
-1.06729
1.06704
0.00397693
-0.00359925
-0.889549
0.889171
0.00322542
-0.00280151
-0.741454
0.74103
0.00241381
-0.00199902
-0.617988
0.617573
0.00163623
-0.00126139
-0.514892
0.514517
0.000944854
-0.000633156
-0.421433
0.421121
0.000390517
-0.000181362
-0.283146
0.282937
5.50589e-05
-0.0580302
0.0579751
-0.0589035
0.0589671
-6.35568e-05
0.000331541
-0.000459856
-0.333753
0.333881
0.000585761
-0.00070005
-0.430143
0.430257
0.000834228
-0.000969724
-0.517689
0.517824
0.00113564
-0.00130639
-0.621383
0.621553
0.0015184
-0.00173904
-0.745067
0.745288
0.00201523
-0.00230278
-0.893479
0.893767
0.00265967
-0.0030231
-1.07109
1.07145
0.00345739
-0.00387317
-1.28372
1.28414
0.00432416
-0.00469049
-1.53866
1.53902
0.00494059
-0.0050408
-1.53712
1.53722
0.00499401
-0.0048491
-1.28028
1.28014
0.00460995
-0.00427583
-1.06675
1.06642
0.0039262
-0.00351641
-0.88878
0.88837
0.00313193
-0.00271192
-0.740614
0.740194
0.00233785
-0.00194513
-0.617176
0.616784
0.001606
-0.00125815
-0.514163
0.513815
0.000963862
-0.000668778
-0.420823
0.420528
0.000428808
-0.000208538
-0.282725
0.282505
6.62132e-05
-0.0579151
0.0578488
-0.0590407
0.0591246
-8.3923e-05
0.000462704
-0.000664884
-0.334047
0.334249
0.000883165
-0.00109006
-0.430418
0.430625
0.00133324
-0.00157439
-0.518013
0.518254
0.00186156
-0.00214643
-0.621781
0.622066
0.00248446
-0.00281784
-0.745564
0.745897
0.00321022
-0.00359204
-0.894099
0.894481
0.0040324
-0.00444737
-1.07184
1.07225
0.00490297
-0.00529967
-1.28454
1.28493
0.00568074
-0.00593589
-1.53933
1.53958
0.00604467
-0.00599103
-1.53724
1.53718
0.00581033
-0.00550237
-1.2799
1.2796
0.005159
-0.00472777
-1.06604
1.06561
0.00430695
-0.00383369
-0.887933
0.88746
0.00340295
-0.00294269
-0.739759
0.739298
0.00253928
-0.00212062
-0.616383
0.615964
0.0017619
-0.0013955
-0.513462
0.513096
0.00108488
-0.000769172
-0.420227
0.419911
0.000504518
-0.000251659
-0.282271
0.282018
8.17701e-05
-0.0577754
0.0576936
-0.0592199
0.0593282
-0.000108292
0.000612726
-0.000893644
-0.334489
0.33477
0.00120671
-0.00150748
-0.430878
0.431179
0.00186136
-0.00221041
-0.518548
0.518897
0.00262263
-0.0030269
-0.622409
0.622814
0.00349957
-0.00395698
-0.746291
0.746748
0.00448288
-0.00498014
-0.894918
0.895415
0.00553397
-0.00603424
-1.07271
1.07321
0.00655516
-0.00697805
-1.28534
1.28576
0.00734233
-0.00753423
-1.5398
1.53999
0.00754096
-0.00735474
-1.53706
1.53688
0.00704979
-0.00660576
-1.27922
1.27878
0.00613757
-0.00558429
-1.06512
1.06456
0.00506238
-0.00448958
-0.886942
0.886369
0.00397733
-0.00343686
-0.738803
0.738262
0.00296753
-0.0024837
-0.615518
0.615034
0.00207104
-0.00165062
-0.512707
0.512286
0.00129374
-0.000928068
-0.419574
0.419208
0.000616064
-0.00031127
-0.281742
0.281437
0.000102269
-0.0576023
0.0575
-0.0594512
0.0595911
-0.000139832
0.000799286
-0.00117261
-0.335095
0.335468
0.00159353
-0.00199987
-0.43153
0.431937
0.0024782
-0.00294894
-0.519305
0.519776
0.0035031
-0.0040441
-0.623283
0.623824
0.00467272
-0.00527618
-0.747275
0.747879
0.00596275
-0.0066033
-0.89598
0.89662
0.00730449
-0.00792394
-1.07376
1.07438
0.0085496
-0.0090354
-1.28621
1.2867
0.00942127
-0.00957965
-1.54016
1.54032
0.00950293
-0.00918909
-1.53663
1.53631
0.0087497
-0.00815218
-1.27826
1.27766
0.00754168
-0.00683584
-1.06394
1.06323
0.0061809
-0.00547081
-0.885732
0.885022
0.00484149
-0.00418196
-0.737667
0.737008
0.00361202
-0.00302656
-0.614504
0.613918
0.00252845
-0.00202164
-0.511827
0.51132
0.0015911
-0.00114803
-0.418807
0.418364
0.000766472
-0.000389562
-0.281099
0.280722
0.000128608
-0.0573854
0.0572568
-0.05975
0.0599307
-0.000180737
0.00103646
-0.00152377
-0.335895
0.336383
0.00207562
-0.00260925
-0.432403
0.432937
0.00323747
-0.00385501
-0.520316
0.520933
0.00458072
-0.00528752
-0.624444
0.625151
0.00610621
-0.00688887
-0.748567
0.749349
0.0077745
-0.00859491
-0.897346
0.898166
0.00948468
-0.0102609
-1.07507
1.07585
0.0110313
-0.0116131
-1.28723
1.28781
0.0120504
-0.0121927
-1.54047
1.54061
0.0120363
-0.0115845
-1.53593
1.53548
0.0109903
-0.0102073
-1.27698
1.27619
0.0094207
-0.00852149
-1.06244
1.06154
0.00769409
-0.00680265
-0.884228
0.883336
0.00601628
-0.00519511
-0.736273
0.735452
0.00448739
-0.00376185
-0.613268
0.612543
0.00314541
-0.00251863
-0.510758
0.510131
0.00198602
-0.00143668
-0.417872
0.417322
0.000961511
-0.00048977
-0.280301
0.279829
0.00016192
-0.0571125
0.0569506
-0.0601364
0.0603708
-0.000234312
0.00134297
-0.0019749
-0.336938
0.33757
0.00269141
-0.00338449
-0.433546
0.434239
0.0042003
-0.00500145
-0.521637
0.522438
0.00594178
-0.00685612
-0.625955
0.626869
0.00791295
-0.00892049
-0.750238
0.751245
0.0100565
-0.0111041
-0.899093
0.900141
0.0122334
-0.0132107
-1.07672
1.0777
0.0141693
-0.01488
-1.28845
1.28916
0.0153932
-0.0155271
-1.54075
1.54089
0.0152819
-0.0146665
-1.53495
1.53434
0.0138837
-0.0128693
-1.2753
1.27429
0.0118606
-0.0107151
-1.06052
1.05938
0.00966626
-0.00854036
-0.882335
0.881209
0.00754987
-0.00651762
-0.734532
0.7335
0.00562932
-0.00471965
-0.611731
0.610821
0.00394739
-0.00316256
-0.50943
0.508645
0.00249558
-0.00180703
-0.416708
0.416019
0.0012103
-0.000616754
-0.2793
0.278706
0.000203852
-0.0567689
0.056565
-0.0606382
0.0609433
-0.000305143
0.00174395
-0.00256252
-0.338289
0.339107
0.00349038
-0.00438753
-0.435027
0.435924
0.00544322
-0.00647873
-0.523349
0.524385
0.00769258
-0.00887104
-0.627908
0.629086
0.0102305
-0.0115235
-0.752387
0.75368
0.0129768
-0.0143118
-0.901324
0.902659
0.0157437
-0.0169746
-1.0788
1.08003
0.0181703
-0.0190432
-1.28995
1.29082
0.019652
-0.0197759
-1.54102
1.54114
0.0194197
-0.0185987
-1.53362
1.5328
0.0175784
-0.0162713
-1.27314
1.27183
0.0149807
-0.0135219
-1.05808
1.05662
0.0121908
-0.0107653
-0.879942
0.878517
0.00951357
-0.00821073
-0.732341
0.731038
0.00709069
-0.00594449
-0.609801
0.608654
0.00497189
-0.00398369
-0.507765
0.506777
0.00314385
-0.00227652
-0.415247
0.41438
0.00152445
-0.000776299
-0.27804
0.277292
0.000256259
-0.0563364
0.0560801
-0.0612931
0.061693
-0.000399882
0.00227501
-0.00333792
-0.340039
0.341102
0.0045412
-0.00570343
-0.436944
0.438106
0.00706997
-0.00840826
-0.525562
0.5269
0.00997438
-0.0114921
-0.630424
0.631941
0.0132389
-0.0148958
-0.755144
0.756801
0.0167521
-0.0184501
-0.904165
0.905863
0.0202614
-0.0218075
-1.08141
1.08295
0.0232943
-0.0243623
-1.29179
1.29285
0.0250798
-0.02518
-1.54125
1.54135
0.0246747
-0.0235876
-1.53186
1.53077
0.0222636
-0.0205844
-1.27035
1.26867
0.0189362
-0.0170805
-1.05498
1.05312
0.0153917
-0.0135865
-0.876913
0.875107
0.0120035
-0.0103574
-0.729573
0.727927
0.00894313
-0.00749652
-0.607367
0.60592
0.00626933
-0.0050226
-0.505667
0.504421
0.00396298
-0.00286854
-0.413406
0.412311
0.00191963
-0.000976314
-0.276452
0.275509
0.000321689
-0.055793
0.0554713
-0.062155
0.0626838
-0.000528778
0.00298942
-0.00437782
-0.342312
0.3437
0.00594665
-0.00745887
-0.439427
0.440939
0.00923295
-0.0109656
-0.528422
0.530155
0.0129879
-0.014943
-0.633666
0.635621
0.017187
-0.0193086
-0.758678
0.760799
0.0216757
-0.0238297
-0.907776
0.90993
0.0261121
-0.0280432
-1.08468
1.08661
0.0298774
-0.0311688
-1.29403
1.29532
0.0319955
-0.032041
-1.54143
1.54148
0.0313277
-0.0298912
-1.52952
1.52809
0.0281772
-0.0260251
-1.26677
1.26461
0.0239249
-0.0215688
-1.05103
1.04868
0.0194296
-0.0171465
-0.873076
0.870793
0.0151463
-0.0130678
-0.726076
0.723998
0.0112828
-0.00945707
-0.604295
0.602469
0.00790808
-0.00633403
-0.503021
0.501447
0.00499576
-0.00361335
-0.411082
0.4097
0.00241547
-0.00122641
-0.27445
0.273261
0.000403183
-0.0551111
0.0547079
-0.0633013
0.0640121
-0.000710788
0.0039768
-0.00581121
-0.345278
0.347112
0.00787715
-0.00985808
-0.442653
0.444634
0.0121679
-0.0144134
-0.532132
0.534378
0.0170243
-0.0195418
-0.637851
0.640369
0.0224225
-0.0251362
-0.763205
0.765919
0.028148
-0.0308698
-0.912353
0.915075
0.0337272
-0.0361163
-1.08876
1.09115
0.0383474
-0.0398762
-1.29673
1.29826
0.040789
-0.0407216
-1.54148
1.54141
0.0397137
-0.0378171
-1.52643
1.52454
0.0356044
-0.0328557
-1.26218
1.25943
0.0301894
-0.0272084
-1.04602
1.04304
0.0245077
-0.0216285
-0.868226
0.865346
0.0191082
-0.0164899
-0.721661
0.719043
0.0142412
-0.0119403
-0.600418
0.598117
0.00998636
-0.00799843
-0.499681
0.497693
0.00630604
-0.00455673
-0.408151
0.406402
0.00304224
-0.00154201
-0.271927
0.270427
0.000506059
-0.0542568
0.0537508
-0.0648462
0.0658341
-0.000987884
0.00541495
-0.00788467
-0.349171
0.351641
0.0106374
-0.0132416
-0.446875
0.449479
0.0162377
-0.0191346
-0.536973
0.53987
0.0224925
-0.0257284
-0.643271
0.646506
0.0294246
-0.0328927
-0.769
0.772468
0.0367142
-0.0401332
-0.91812
0.921539
0.0436745
-0.0465848
-1.09379
1.0967
0.0492386
-0.0509874
-1.2999
1.30165
0.0519224
-0.0516445
-1.54125
1.54097
0.0502199
-0.047722
-1.52236
1.51986
0.0448792
-0.0413894
-1.25633
1.25284
0.0380255
-0.0342767
-1.03969
1.03594
0.0308862
-0.0272745
-0.86211
0.858498
0.0241143
-0.0208312
-0.716094
0.712811
0.0180103
-0.0151205
-0.595528
0.592638
0.0126608
-0.01015
-0.495469
0.492959
0.00800375
-0.00577902
-0.404455
0.40223
0.0038536
-0.00195139
-0.268749
0.266846
0.00064112
-0.0531874
0.0525462
-0.0669665
0.0684144
-0.00144795
0.00766344
-0.0110478
-0.354341
0.357725
0.0147112
-0.018092
-0.452478
0.455859
0.0219166
-0.0256183
-0.54335
0.547051
0.0299273
-0.0340971
-0.650305
0.654475
0.0388588
-0.0432978
-0.776388
0.780827
0.0481287
-0.0523807
-0.925309
0.929561
0.0566958
-0.0601535
-1.09984
1.1033
0.0632
-0.0650932
-1.30346
1.30535
0.0659225
-0.0652823
-1.54052
1.53988
0.0632765
-0.0600056
-1.51699
1.51372
0.0563829
-0.0519953
-1.24892
1.24453
0.0477941
-0.0431255
-1.03174
1.02707
0.0389087
-0.0344177
-0.854434
0.849943
0.030488
-0.0264039
-0.709093
0.705009
0.0228924
-0.0192897
-0.589363
0.58576
0.0162118
-0.0130495
-0.490155
0.486993
0.0103203
-0.0074633
-0.399793
0.396936
0.0049781
-0.00252385
-0.264743
0.262289
0.00083576
-0.0518486
0.0510129
-0.0699742
0.0722252
-0.00225095
0.0113782
-0.0160124
-0.361368
0.366002
0.0207766
-0.0250795
-0.460059
0.464362
0.0299279
-0.0346899
-0.551813
0.556575
0.040311
-0.045762
-0.65942
0.664871
0.0519347
-0.0575886
-0.785718
0.791371
0.0635994
-0.068751
-0.934089
0.939241
0.0738258
-0.0777483
-1.10688
1.1108
0.0810349
-0.082891
-1.30717
1.30903
0.0833825
-0.0821521
-1.53893
1.5377
0.079351
-0.0751069
-1.50996
1.50572
0.0705465
-0.0651077
-1.23961
1.23417
0.0599387
-0.054212
-1.02186
1.01613
0.0490426
-0.043534
-0.844878
0.839369
0.0387095
-0.0336901
-0.700324
0.695304
0.0293699
-0.0249331
-0.581589
0.577152
0.0211273
-0.0171815
-0.483426
0.47948
0.0137181
-0.0100064
-0.393899
0.390187
0.00671033
-0.00341778
-0.25969
0.256397
0.00114591
-0.0501667
0.0490207
-0.0744868
0.0782624
-0.0037756
0.0180167
-0.024405
-0.371256
0.377644
0.0305709
-0.0361036
-0.470494
0.476026
0.042476
-0.0488129
-0.563051
0.569388
0.0562815
-0.0633842
-0.671122
0.678224
0.0711854
-0.0780764
-0.797267
0.804158
0.0851435
-0.0909811
-0.944436
0.950274
0.0965036
-0.100565
-1.11461
1.11867
0.103701
-0.105159
-1.31058
1.31204
0.104919
-0.102765
-1.53594
1.53379
0.0988905
-0.0934452
-1.50083
1.49539
0.0877938
-0.0811705
-1.22811
1.22148
0.0749366
-0.0680597
-1.00978
1.0029
0.0618538
-0.0552293
-0.833157
0.826533
0.0494124
-0.043343
-0.689455
0.683385
0.0381065
-0.0327158
-0.571818
0.566427
0.0280643
-0.0231987
-0.47486
0.469994
0.0188376
-0.0139583
-0.386365
0.381485
0.00947452
-0.00485771
-0.253238
0.248621
0.00162584
-0.0480035
0.0463777
-0.0817715
0.0890645
-0.00729295
0.0319485
-0.0412686
-0.385834
0.395154
0.0492528
-0.056261
-0.48508
0.492088
0.0646046
-0.0728967
-0.577791
0.586083
0.0823413
-0.0908951
-0.685758
0.694312
0.0998621
-0.10743
-0.810907
0.818474
0.114881
-0.120762
-0.955812
0.961692
0.126036
-0.129599
-1.12226
1.12583
0.131936
-0.132423
-1.31285
1.31334
0.130916
-0.127398
-1.53084
1.52732
0.122111
-0.115225
-1.48915
1.48226
0.108331
-0.100431
-1.21416
1.20626
0.0930861
-0.085043
-0.995341
0.987298
0.0778004
-0.0700607
-0.819138
0.811398
0.0632397
-0.0560907
-0.676298
0.669149
0.0498842
-0.0434476
-0.559752
0.553316
0.0378661
-0.0320124
-0.46396
0.458106
0.0265975
-0.0201149
-0.376537
0.370055
0.0137105
-0.00688997
-0.244526
0.237705
0.00217912
-0.0450666
0.0428875
-0.0965193
0.0991297
-0.00261037
0.0189803
-0.0273068
-0.407866
0.416193
0.0355091
-0.0433833
-0.504579
0.512453
0.052904
-0.0627683
-0.59587
0.605734
0.0735217
-0.0830486
-0.702487
0.712014
0.0935968
-0.102909
-0.825296
0.834608
0.112566
-0.120836
-0.966694
0.974963
0.129045
-0.135618
-1.12839
1.13497
0.141481
-0.145342
-1.31276
1.31662
0.147473
-0.147016
-1.52272
1.52226
0.14386
-0.138356
-1.47444
1.46893
0.131786
-0.123346
-1.19764
1.1892
0.115007
-0.10489
-0.978614
0.968497
0.0954759
-0.0849641
-0.802976
0.792464
0.075416
-0.0651216
-0.661028
0.650733
0.055719
-0.0460207
-0.545493
0.535795
0.0377953
-0.0288713
-0.450615
0.441691
0.0208596
-0.0124401
-0.363327
0.354907
0.00582466
-0.00115803
-0.23145
0.226783
-0.00057118
-0.0405933
0.0411645
-0.106452
0.101251
0.00520089
-0.00432005
-0.000235241
-0.428331
0.432886
0.0075214
-0.014714
-0.523635
0.530827
0.0237027
-0.0321412
-0.615635
0.624074
0.0416548
-0.0503165
-0.721493
0.730154
0.0595523
-0.0678896
-0.843445
0.851783
0.0765203
-0.0836193
-0.982921
0.99002
0.0908594
-0.0963545
-1.1414
1.14689
0.101239
-0.104237
-1.32034
1.32334
0.10536
-0.104305
-1.52129
1.52023
0.100786
-0.0952271
-1.46301
1.45745
0.0886991
-0.0806196
-1.18072
1.17264
0.0728506
-0.0639286
-0.958629
0.949707
0.0555498
-0.0461963
-0.781949
0.772596
0.0377828
-0.0290816
-0.639687
0.630986
0.0216235
-0.0139649
-0.52461
0.516951
0.00749964
-0.00126796
-0.430308
0.424077
-0.00349634
0.0069951
-0.344083
0.340585
-0.00806061
0.00626647
-0.219155
0.220949
-0.00311289
-0.0390574
0.0421703
-0.102956
0.0982931
0.00466278
-0.0100124
0.0081482
-0.442534
0.444398
-0.00339149
-0.00227739
-0.539993
0.545662
0.00929083
-0.0161777
-0.632522
0.639408
0.0239556
-0.0310743
-0.738184
0.745303
0.0388499
-0.0457448
-0.859304
0.866199
0.0527073
-0.0588079
-0.996851
1.00295
0.0649036
-0.0696673
-1.15199
1.15676
0.0735587
-0.0758134
-1.32586
1.32811
0.0766695
-0.0754746
-1.51888
1.51768
0.0721522
-0.0671542
-1.45186
1.44687
0.0615007
-0.0548514
-1.16511
1.15846
0.0482652
-0.0411038
-0.941266
0.934104
0.0345572
-0.027446
-0.764361
0.75725
0.0214109
-0.0152438
-0.622863
0.616696
0.0102305
-0.0051229
-0.508898
0.50379
0.00126333
0.00211119
-0.416287
0.412912
-0.00449483
0.00582012
-0.333637
0.332312
-0.00547346
0.00349536
-0.216016
0.217994
-0.00172164
-0.0411997
0.0429213
-0.0990923
0.0953006
0.00379178
-0.0104737
0.010214
-0.451988
0.452248
-0.00712132
0.00263224
-0.552407
0.556896
0.00309914
-0.00846772
-0.645843
0.651212
0.0146747
-0.0203723
-0.751971
0.757668
0.0265858
-0.0321451
-0.87251
0.878069
0.0381306
-0.0430315
-1.00854
1.01344
0.0481418
-0.0517403
-1.1611
1.1647
0.0549809
-0.0568289
-1.33025
1.3321
0.0573827
-0.0560305
-1.51638
1.51503
0.0532607
-0.0491947
-1.44193
1.43786
0.0445864
-0.0389671
-1.15227
1.14665
0.033778
-0.0282632
-0.927444
0.921929
0.0231442
-0.0179466
-0.750953
0.745755
0.0132475
-0.00868402
-0.610723
0.60616
0.00495693
-0.00147876
-0.498351
0.494872
-0.00104409
0.00323823
-0.407407
0.405213
-0.00472576
0.00509274
-0.326971
0.326604
-0.00466696
0.00300785
-0.213798
0.215457
-0.00145493
-0.0415726
0.0430275
-0.0964153
0.0936614
0.0027539
-0.0087494
0.00943417
-0.458329
0.457644
-0.00702689
0.00369259
-0.562314
0.565648
0.000584567
-0.00506217
-0.656416
0.660894
0.0098765
-0.0145596
-0.762838
0.767522
0.0195802
-0.0240839
-0.88313
0.887634
0.0288849
-0.0329989
-1.01811
1.02223
0.0370649
-0.0402259
-1.16811
1.17127
0.0428845
-0.0443703
-1.33368
1.33517
0.0447745
-0.0435664
-1.51377
1.51256
0.0412276
-0.0376863
-1.43363
1.43008
0.033888
-0.0294271
-1.14152
1.13706
0.0252635
-0.0207431
-0.916695
0.912175
0.0167514
-0.0126084
-0.740825
0.736682
0.00904966
-0.00548817
-0.601769
0.598207
0.0026656
-5.06664e-05
-0.490758
0.488143
-0.00198901
0.00360925
-0.401167
0.399546
-0.00441229
0.00466043
-0.322394
0.322145
-0.00422392
0.00250532
-0.211624
0.213343
-0.00123374
-0.0417552
0.042989
-0.0950315
0.0929172
0.0021143
-0.0068574
0.00749141
-0.46282
0.462186
-0.00608566
0.00336765
-0.569476
0.572194
0.000410365
-0.00390879
-0.664768
0.668266
0.00773827
-0.0115328
-0.771584
0.775379
0.0156986
-0.0194654
-0.891767
0.895534
0.0236028
-0.0269432
-1.02599
1.02933
0.0303545
-0.0329973
-1.1741
1.17675
0.0351445
-0.0363131
-1.33641
1.33758
0.0365316
-0.0357155
-1.51142
1.5106
0.0336302
-0.0307419
-1.42647
1.42358
0.027517
-0.0237522
-1.13282
1.12906
0.020472
-0.0165948
-0.907922
0.904045
0.0132462
-0.0099171
-0.732777
0.729448
0.00699439
-0.0040729
-0.594856
0.591934
0.00171685
0.000625438
-0.484954
0.482612
-0.00211977
0.00338235
-0.396289
0.395027
-0.00421627
0.00430793
-0.318558
0.318466
-0.00375301
0.0022858
-0.209953
0.21142
-0.00108294
-0.041788
0.042871
-0.0944547
0.0928107
0.00164398
-0.00532917
0.00588193
-0.466506
0.465953
-0.00445547
0.00237541
-0.575521
0.577601
0.000875131
-0.00385164
-0.671522
0.674498
0.0073526
-0.0104048
-0.778903
0.781955
0.0138234
-0.016926
-0.899231
0.902334
0.020624
-0.0234195
-1.03261
1.03541
0.0261758
-0.0284754
-1.17914
1.18144
0.0305967
-0.0314893
-1.33871
1.3396
0.0316753
-0.0308328
-1.50948
1.50864
0.0292328
-0.02648
-1.4207
1.41795
0.0238275
-0.0207085
-1.12541
1.12229
0.0177891
-0.0146301
-0.900468
0.897309
0.0117079
-0.00867028
-0.726093
0.723056
0.00636187
-0.00374055
-0.589014
0.586393
0.00156416
0.000351799
-0.47994
0.478024
-0.00180615
0.00308862
-0.392364
0.391081
-0.00372939
0.00379412
-0.315528
0.315463
-0.00326865
0.00198945
-0.2085
0.209779
-0.000956444
-0.0417548
0.0427113
-0.094413
0.0930272
0.00138584
-0.00416034
0.00460738
-0.469773
0.469326
-0.00305961
0.00105633
-0.58064
0.582644
0.00179265
-0.00433197
-0.6773
0.679839
0.00715832
-0.0100281
-0.78503
0.7879
0.0130297
-0.0161762
-0.905228
0.908374
0.0190837
-0.0215666
-1.03821
1.04069
0.0242492
-0.026134
-1.18352
1.18541
0.0275731
-0.0286427
-1.34031
1.34138
0.0287774
-0.0280576
-1.50783
1.50711
0.0265452
-0.0243234
-1.41548
1.41326
0.0220035
-0.0192431
-1.11904
1.11628
0.0167204
-0.01389
-0.894201
0.89137
0.0112974
-0.00871726
-0.720208
0.717627
0.00635659
-0.00404381
-0.583752
0.581439
0.00215124
-0.000200678
-0.475712
0.473762
-0.00127851
0.00229872
-0.388677
0.387657
-0.00299588
0.00321914
-0.312788
0.312565
-0.00285459
0.00171967
-0.20721
0.208345
-0.000843645
-0.0417042
0.0425478
-0.0947893
0.0935239
0.00126535
-0.0029669
0.0030584
-0.472966
0.472874
-0.00161899
-0.000348374
-0.585282
0.58725
0.00283759
-0.00525473
-0.682514
0.684931
0.00791898
-0.010403
-0.790629
0.793113
0.0134755
-0.0158237
-0.910942
0.91329
0.0185988
-0.0207909
-1.04322
1.04541
0.0231674
-0.0250081
-1.18714
1.18898
0.0264301
-0.0270068
-1.3421
1.34267
0.0271363
-0.0265207
-1.50623
1.50562
0.0254192
-0.0233549
-1.41098
1.40891
0.021366
-0.0189231
-1.11374
1.11129
0.0166998
-0.0140754
-0.88847
0.885845
0.0117856
-0.00928298
-0.714948
0.712445
0.00707143
-0.00481571
-0.579039
0.576784
0.00287342
-0.00115723
-0.471576
0.46986
-0.000390698
0.00150668
-0.385258
0.384142
-0.00237157
0.0026618
-0.310132
0.309842
-0.002363
0.00151364
-0.205883
0.206732
-0.000691693
-0.0415844
0.0422761
-0.0952985
0.094319
0.000979503
-0.00198213
0.0015352
-0.476317
0.476764
-0.000237282
-0.00171747
-0.589296
0.591251
0.00388131
-0.00620461
-0.687281
0.689604
0.00873573
-0.0113423
-0.795525
0.798131
0.0138303
-0.0162758
-0.915779
0.918224
0.0189087
-0.0207679
-1.04786
1.04972
0.0230306
-0.0245818
-1.19048
1.19203
0.0257253
-0.0264413
-1.34344
1.34416
0.0266022
-0.0258942
-1.50491
1.5042
0.0247442
-0.0231871
-1.40703
1.40548
0.0216138
-0.0194268
-1.10883
1.10664
0.0173752
-0.0151729
-0.883276
0.881074
0.0127153
-0.0104909
-0.709822
0.707597
0.00836844
-0.00607758
-0.574638
0.572348
0.00428068
-0.00241054
-0.467568
0.465697
0.000888002
0.000529591
-0.38207
0.380652
-0.0014014
0.00186682
-0.307522
0.307057
-0.00188991
0.00124226
-0.204531
0.205179
-0.000573589
-0.041312
0.0418856
-0.096092
0.0952676
0.000824382
-0.00115573
0.00071991
-0.479835
0.48027
0.00114082
-0.00282624
-0.593454
0.595139
0.0051469
-0.00739223
-0.691659
0.693905
0.00983359
-0.0121068
-0.800489
0.802762
0.0147083
-0.0168298
-0.920634
0.922755
0.0193253
-0.021443
-1.05186
1.05398
0.0231389
-0.0247236
-1.19341
1.19499
0.0258658
-0.0262412
-1.34453
1.34491
0.0262503
-0.0258147
-1.5035
1.50306
0.0247579
-0.0236076
-1.40379
1.40264
0.0221766
-0.0204387
-1.10464
1.1029
0.0187772
-0.0167157
-0.878653
0.876592
0.0145719
-0.012366
-0.705039
0.702833
0.0102856
-0.0079197
-0.570023
0.567658
0.00595806
-0.00407466
-0.463538
0.461654
0.00228658
-0.000742489
-0.37858
0.377036
-0.00035346
0.00107338
-0.304725
0.304005
-0.00124317
0.00084659
-0.203104
0.2035
-0.000390099
-0.0409423
0.0413324
-0.0970946
0.0964573
0.000637366
-0.000171395
-0.000498731
-0.483425
0.484095
0.00218216
-0.00406838
-0.597298
0.599184
0.00635078
-0.00851318
-0.695922
0.698085
0.0110961
-0.0132786
-0.805057
0.80724
0.0157628
-0.0179757
-0.925282
0.927495
0.0203066
-0.0222564
-1.05583
1.05778
0.0239239
-0.025221
-1.19625
1.19754
0.0260989
-0.0266787
-1.34524
1.34581
0.0264807
-0.0257704
-1.5023
1.50159
0.0249634
-0.0239397
-1.40141
1.40039