/*--------------------------------*- C++ -*----------------------------------*\
  =========                 |
  \\      /  F ield         | OpenFOAM: The Open Source CFD Toolbox
   \\    /   O peration     | Website:  https://openfoam.org
    \\  /    A nd           | Version:  6
     \\/     M anipulation  |
\*---------------------------------------------------------------------------*/
FoamFile
{
    version     2.0;
    format      ascii;
    class       volVectorField;
    location    "70";
    object      U;
}
// * * * * * * * * * * * * * * * * * * * * * * * * * * * * * * * * * * * * * //

dimensions      [0 1 -1 0 0 0 0];

internalField   nonuniform List<vector> 
8800
(
(0.987195 -0.0767051 0)
(1.0019 -0.0551764 0)
(0.999723 -0.0285489 0)
(1.00003 -0.0151524 0)
(1.00009 -0.00855469 0)
(1.00011 -0.0050549 0)
(1.00007 -0.00300767 0)
(1.00003 -0.00170592 0)
(0.999998 -0.000798712 0)
(1.00006 -8.16344e-05 0)
(0.999976 0.000649094 0)
(0.999986 0.00141707 0)
(1.00003 0.0024373 0)
(1.00005 0.00400665 0)
(1.00004 0.00664007 0)
(1.00002 0.01138 0)
(0.99991 0.0208193 0)
(0.999156 0.0386589 0)
(1.0071 0.0724582 0)
(0.771226 0.0366899 0)
(0.363045 -0.0160151 0)
(1.04332 -0.0768249 0)
(1.08462 -0.0704411 0)
(1.04522 -0.0535433 0)
(1.02331 -0.0388937 0)
(1.01204 -0.0262202 0)
(1.00644 -0.0168637 0)
(1.0036 -0.0103349 0)
(1.00215 -0.00567566 0)
(1.00145 -0.00201811 0)
(1.00131 0.00130685 0)
(1.00167 0.0046906 0)
(1.00266 0.0086238 0)
(1.00467 0.0139537 0)
(1.00861 0.0216571 0)
(1.01658 0.0326238 0)
(1.0325 0.0465382 0)
(1.06267 0.0616589 0)
(1.09189 0.0760885 0)
(0.838668 0.0565791 0)
(0.216833 -0.00242123 0)
(1.07588 -0.0501474 0)
(1.09987 -0.0483274 0)
(1.06463 -0.040475 0)
(1.04003 -0.033614 0)
(1.02391 -0.0260923 0)
(1.01412 -0.0185106 0)
(1.00855 -0.0116914 0)
(1.00559 -0.00582273 0)
(1.00432 -0.000403415 0)
(1.00466 0.00484504 0)
(1.00658 0.0102376 0)
(1.01061 0.0163256 0)
(1.01794 0.0233432 0)
(1.03052 0.0308094 0)
(1.05061 0.0378444 0)
(1.08033 0.0445357 0)
(1.10625 0.0513534 0)
(0.942517 0.0416168 0)
(0.216145 0.00245278 0)
(0.175163 -0.000814338 0)
(1.01767 -0.0354907 0)
(1.10519 -0.0413908 0)
(1.07825 -0.0360773 0)
(1.05345 -0.030145 0)
(1.03619 -0.0245695 0)
(1.02399 -0.0188401 0)
(1.01587 -0.0127582 0)
(1.01101 -0.00656761 0)
(1.0088 -0.00022966 0)
(1.00937 0.00602857 0)
(1.01263 0.0120302 0)
(1.01886 0.0178615 0)
(1.02876 0.0234296 0)
(1.04319 0.0287326 0)
(1.06371 0.034218 0)
(1.09354 0.0402028 0)
(1.0934 0.0419637 0)
(0.827139 0.022913 0)
(0.174004 0.000850572 0)
(0.153956 -0.000609477 0)
(0.956157 -0.0254649 0)
(1.10344 -0.0351393 0)
(1.08767 -0.0326648 0)
(1.06171 -0.0280132 0)
(1.04409 -0.0229905 0)
(1.03163 -0.0177436 0)
(1.02278 -0.0122098 0)
(1.01696 -0.00626968 0)
(1.01411 0.000204151 0)
(1.01477 0.00666967 0)
(1.01875 0.0125574 0)
(1.02579 0.017848 0)
(1.03609 0.0227559 0)
(1.05064 0.0275155 0)
(1.07188 0.0320484 0)
(1.10006 0.0359823 0)
(1.06807 0.0340388 0)
(0.739512 0.014317 0)
(0.15221 0.000650585 0)
(0.139582 -0.0004662 0)
(0.89925 -0.0190826 0)
(1.09577 -0.0300895 0)
(1.09573 -0.0292002 0)
(1.06923 -0.0254682 0)
(1.0508 -0.021328 0)
(1.03787 -0.0165545 0)
(1.02876 -0.0112657 0)
(1.02264 -0.00551736 0)
(1.0195 0.000815585 0)
(1.0201 0.00713189 0)
(1.02419 0.0127714 0)
(1.03136 0.0177318 0)
(1.04188 0.0221846 0)
(1.05699 0.0261515 0)
(1.07919 0.0296173 0)
(1.10226 0.0322409 0)
(1.03595 0.0281344 0)
(0.672913 0.0102179 0)
(0.137114 0.0005136 0)
(0.12904 -0.000360996 0)
(0.84966 -0.014719 0)
(1.08338 -0.025955 0)
(1.10141 -0.0262476 0)
(1.07609 -0.0229605 0)
(1.05712 -0.0193143 0)
(1.04374 -0.0150665 0)
(1.03427 -0.0101395 0)
(1.0279 -0.00460079 0)
(1.02457 0.00155462 0)
(1.02503 0.0076596 0)
(1.02907 0.0130227 0)
(1.03635 0.0175709 0)
(1.04715 0.0214159 0)
(1.06266 0.0247191 0)
(1.0853 0.0276654 0)
(1.10134 0.0294165 0)
(1.00099 0.0236281 0)
(0.621027 0.00785765 0)
(0.125695 0.000416755 0)
(0.120999 -0.000280402 0)
(0.807529 -0.0115595 0)
(1.06811 -0.0223418 0)
(1.10495 -0.023606 0)
(1.08235 -0.0207308 0)
(1.06296 -0.0172979 0)
(1.0493 -0.0133562 0)
(1.03955 -0.00876607 0)
(1.0329 -0.00349817 0)
(1.02932 0.00244045 0)
(1.0296 0.00829911 0)
(1.03358 0.0133157 0)
(1.04093 0.0173921 0)
(1.05182 0.0207263 0)
(1.06755 0.0236187 0)
(1.09052 0.026265 0)
(1.09753 0.0271187 0)
(0.965655 0.0200995 0)
(0.5793 0.00632786 0)
(0.116587 0.000346716 0)
(0.11477 -0.000217202 0)
(0.772079 -0.00919471 0)
(1.05137 -0.019159 0)
(1.10734 -0.0211596 0)
(1.08822 -0.0186527 0)
(1.06845 -0.0153626 0)
(1.05455 -0.0115821 0)
(1.04461 -0.00720145 0)
(1.03771 -0.00217302 0)
(1.03384 0.00351345 0)
(1.03389 0.00907197 0)
(1.03774 0.0137128 0)
(1.04502 0.0173708 0)
(1.05591 0.0203137 0)
(1.07183 0.0228825 0)
(1.09446 0.0251835 0)
(1.09088 0.0252212 0)
(0.931239 0.0173829 0)
(0.544711 0.0052862 0)
(0.109062 0.000296503 0)
(0.109921 -0.000166286 0)
(0.742373 -0.00735758 0)
(1.0342 -0.0163353 0)
(1.10879 -0.0188512 0)
(1.09381 -0.0166484 0)
(1.07376 -0.0134482 0)
(1.05959 -0.00975555 0)
(1.04945 -0.00549467 0)
(1.04233 -0.000638839 0)
(1.03816 0.00480694 0)
(1.03791 0.0100511 0)
(1.04153 0.0143314 0)
(1.04867 0.0176215 0)
(1.05952 0.0202147 0)
(1.07563 0.0224936 0)
(1.0971 0.0244143 0)
(1.08176 0.0236769 0)
(0.898296 0.0153281 0)
(0.515204 0.00456351 0)
(0.102638 0.000261458 0)
(0.106167 -0.000123899 0)
(0.717593 -0.00587402 0)
(1.01746 -0.0137989 0)
(1.10943 -0.0166172 0)
(1.09931 -0.0146847 0)
(1.079 -0.0114926 0)
(1.06454 -0.00782825 0)
(1.05417 -0.00362768 0)
(1.04679 0.00111563 0)
(1.04229 0.00636201 0)
(1.04166 0.011314 0)
(1.04496 0.0152539 0)
(1.05191 0.0181929 0)
(1.0627 0.0204465 0)
(1.07898 0.022461 0)
(1.0984 0.0239717 0)
(1.07055 0.0224872 0)
(0.866932 0.0138207 0)
(0.48932 0.00407011 0)
(0.0969714 0.000238593 0)
(0.103322 -8.70775e-05 0)
(0.697098 -0.00462785 0)
(1.00174 -0.0114823 0)
(1.1094 -0.0144215 0)
(1.10466 -0.0126749 0)
(1.08425 -0.0094445 0)
(1.06946 -0.00575011 0)
(1.05883 -0.00154925 0)
(1.05113 0.00313726 0)
(1.04622 0.00823353 0)
(1.04513 0.0129282 0)
(1.04806 0.0165458 0)
(1.05477 0.0191399 0)
(1.06547 0.0210579 0)
(1.08187 0.0228116 0)
(1.09867 0.0239263 0)
(1.05753 0.0216627 0)
(0.836974 0.0127713 0)
(0.465964 0.00375035 0)
(0.0918017 0.000225451 0)
(0.101267 -5.31193e-05 0)
(0.680422 -0.00353157 0)
(0.987499 -0.0093137 0)
(1.10892 -0.0121754 0)
(1.10984 -0.0105364 0)
(1.08958 -0.0072412 0)
(1.07445 -0.00345593 0)
(1.06349 0.000809058 0)
(1.05541 0.00549826 0)
(1.05 0.0104924 0)
(1.04835 0.0149565 0)
(1.05082 0.0182643 0)
(1.05725 0.0205138 0)
(1.06783 0.0220909 0)
(1.08427 0.023573 0)
(1.09793 0.024268 0)
(1.04283 0.0212151 0)
(0.808076 0.0121081 0)
(0.44427 0.00356644 0)
(0.0869245 0.000220089 0)
(0.0999408 -1.9811e-05 0)
(0.667263 -0.00251574 0)
(0.975105 -0.00721909 0)
(1.10831 -0.00982283 0)
(1.11499 -0.00820871 0)
(1.09508 -0.00480637 0)
(1.07957 -0.000867707 0)
(1.06823 0.00352831 0)
(1.05968 0.00828458 0)
(1.05365 0.0132264 0)
(1.05133 0.0174852 0)
(1.05326 0.0204907 0)
(1.05934 0.0223894 0)
(1.06977 0.0236078 0)
(1.0862 0.0248155 0)
(1.09595 0.0250488 0)
(1.02649 0.0211338 0)
(0.779799 0.0117784 0)
(0.423534 0.00349332 0)
(0.0821752 0.000221049 0)
(0.0993286 1.49859e-05 0)
(0.657467 -0.0015261 0)
(0.96487 -0.00512766 0)
(1.10791 -0.00730229 0)
(1.12024 -0.00561976 0)
(1.10084 -0.00205617 0)
(1.08491 0.00210492 0)
(1.07311 0.00670287 0)
(1.06399 0.0115938 0)
(1.05721 0.0165398 0)
(1.05409 0.0206225 0)
(1.05535 0.0233221 0)
(1.06103 0.0248489 0)
(1.07127 0.0257027 0)
(1.08759 0.0265888 0)
(1.09269 0.0262757 0)
(1.00847 0.0214623 0)
(0.751649 0.0117565 0)
(0.403161 0.00351752 0)
(0.077418 0.000227769 0)
(0.0994487 4.70419e-05 0)
(0.651012 -0.000517632 0)
(0.957099 -0.0029671 0)
(1.10805 -0.00454214 0)
(1.12576 -0.00268046 0)
(1.10695 0.00111605 0)
(1.09056 0.00557601 0)
(1.07822 0.0104522 0)
(1.06839 0.0155493 0)
(1.06072 0.020551 0)
(1.05662 0.0244759 0)
(1.0571 0.0268677 0)
(1.06229 0.0280169 0)
(1.07231 0.028478 0)
(1.0882 0.0289896 0)
(1.08783 0.0280195 0)
(0.98859 0.0222235 0)
(0.723073 0.0120256 0)
(0.382609 0.00362941 0)
(0.0725302 0.000239473 0)
(0.100369 9.21778e-05 0)
(0.648012 0.000527201 0)
(0.952111 -0.000654458 0)
(1.1091 -0.00146188 0)
(1.13176 0.00070377 0)
(1.11353 0.00482265 0)
(1.09663 0.0096699 0)
(1.08363 0.0149146 0)
(1.07295 0.0202966 0)
(1.06419 0.0254075 0)
(1.05892 0.029189 0)
(1.05847 0.0312563 0)
(1.06308 0.0320139 0)
(1.07281 0.0320561 0)
(1.08789 0.0321392 0)
(1.08113 0.0303675 0)
(0.966542 0.0234626 0)
(0.693458 0.012578 0)
(0.361368 0.00382266 0)
(0.0674022 0.000255522 0)
(0.102258 0.000150175 0)
(0.648814 0.00170069 0)
(0.950272 0.00188328 0)
(1.1115 0.00204529 0)
(1.13842 0.00464954 0)
(1.12073 0.00920846 0)
(1.10324 0.0145478 0)
(1.08945 0.0202604 0)
(1.07774 0.0260136 0)
(1.06766 0.031289 0)
(1.06099 0.0349401 0)
(1.05942 0.0366392 0)
(1.06335 0.0369788 0)
(1.07272 0.036565 0)
(1.0864 0.0361503 0)
(1.07231 0.0334061 0)
(0.941903 0.0252094 0)
(0.662149 0.0134066 0)
(0.338957 0.004089 0)
(0.0619389 0.000274995 0)
(0.105189 0.000213352 0)
(0.653859 0.00314631 0)
(0.952027 0.00481126 0)
(1.11573 0.00612172 0)
(1.146 0.00931167 0)
(1.12871 0.014459 0)
(1.11053 0.0204144 0)
(1.09578 0.0267092 0)
(1.0828 0.03292 0)
(1.07112 0.0383986 0)
(1.0628 0.0419003 0)
(1.05995 0.0431861 0)
(1.06303 0.0430774 0)
(1.07198 0.0421558 0)
(1.08361 0.0412135 0)
(1.06099 0.037242 0)
(0.914101 0.0275103 0)
(0.628432 0.0145044 0)
(0.314923 0.00441951 0)
(0.0560616 0.000296736 0)
(0.109451 0.000296978 0)
(0.663541 0.00483412 0)
(0.957847 0.00825838 0)
(1.1223 0.010918 0)
(1.15478 0.0148864 0)
(1.1377 0.0208042 0)
(1.11868 0.0275228 0)
(1.10273 0.0345279 0)
(1.08819 0.041282 0)
(1.07457 0.0469878 0)
(1.06429 0.0502923 0)
(1.05996 0.0510955 0)
(1.06207 0.0504936 0)
(1.0705 0.048993 0)
(1.07957 0.0474395 0)
(1.04664 0.041985 0)
(0.882405 0.0303853 0)
(0.591542 0.0158466 0)
(0.288847 0.00479693 0)
(0.049716 0.000318804 0)
(0.115384 0.000410104 0)
(0.678711 0.00695123 0)
(0.968421 0.0124291 0)
(1.13177 0.0166718 0)
(1.16513 0.0216423 0)
(1.14795 0.0285746 0)
(1.12787 0.0362289 0)
(1.11041 0.044076 0)
(1.09393 0.0514386 0)
(1.07797 0.0573489 0)
(1.0654 0.0603576 0)
(1.05928 0.0605565 0)
(1.06037 0.0594119 0)
(1.06826 0.0572772 0)
(1.074 0.0550197 0)
(1.02857 0.0477107 0)
(0.845928 0.033826 0)
(0.5507 0.0173841 0)
(0.260402 0.00519363 0)
(0.0428874 0.000338519 0)
(0.12351 0.000567346 0)
(0.700279 0.00971918 0)
(0.984606 0.0176338 0)
(1.1448 0.0237252 0)
(1.17753 0.0299736 0)
(1.15978 0.0382268 0)
(1.1383 0.0470112 0)
(1.11891 0.0558206 0)
(1.1 0.0638038 0)
(1.08123 0.0698104 0)
(1.06602 0.0723473 0)
(1.05789 0.0717954 0)
(1.05784 0.0699803 0)
(1.06514 0.067127 0)
(1.06649 0.0638725 0)
(1.00588 0.0544733 0)
(0.803625 0.0377675 0)
(0.505171 0.0190223 0)
(0.22941 0.00556778 0)
(0.0356175 0.000352334 0)
(0.134566 0.000795692 0)
(0.729541 0.0135252 0)
(1.00756 0.0243394 0)
(1.1622 0.0326259 0)
(1.19261 0.040479 0)
(1.17356 0.0504293 0)
(1.15015 0.0605374 0)
(1.12823 0.0703682 0)
(1.10629 0.0788698 0)
(1.08419 0.0847365 0)
(1.06597 0.0865185 0)
(1.05568 0.085018 0)
(1.05441 0.082429 0)
(1.0608 0.0786918 0)
(1.05633 0.0742688 0)
(0.977409 0.0622468 0)
(0.754345 0.0420493 0)
(0.454384 0.0206089 0)
(0.195944 0.0058609 0)
(0.0280243 0.000356014 0)
(0.149805 0.00115302 0)
(0.768482 0.0189946 0)
(1.03894 0.0333283 0)
(1.18491 0.0443087 0)
(1.21117 0.0543251 0)
(1.18961 0.0662363 0)
(1.16347 0.0777804 0)
(1.1382 0.0885167 0)
(1.11251 0.0972158 0)
(1.08654 0.102489 0)
(1.06503 0.103088 0)
(1.05248 0.100362 0)
(1.04997 0.0968612 0)
(1.05496 0.0923482 0)
(1.04265 0.0862371 0)
(0.941665 0.0708368 0)
(0.696954 0.0463719 0)
(0.398147 0.0219151 0)
(0.160456 0.00599971 0)
(0.0203196 0.000345013 0)
(0.171419 0.00177314 0)
(0.820345 0.0272576 0)
(1.08137 0.046147 0)
(1.21407 0.0606498 0)
(1.23378 0.0735059 0)
(1.20802 0.0872878 0)
(1.17798 0.100081 0)
(1.14837 0.111226 0)
(1.1182 0.119444 0)
(1.08789 0.123395 0)
(1.06292 0.122221 0)
(1.0481 0.117916 0)
(1.0444 0.113323 0)
(1.0476 0.107891 0)
(1.02425 0.0996424 0)
(0.896809 0.0798243 0)
(0.630651 0.0502706 0)
(0.337017 0.0226585 0)
(0.123939 0.00590792 0)
(0.0128227 0.000314975 0)
(0.202777 0.00313549 0)
(0.890882 0.040926 0)
(1.13844 0.0665914 0)
(1.25008 0.0852394 0)
(1.26017 0.100833 0)
(1.22814 0.11595 0)
(1.19283 0.129051 0)
(1.15793 0.139469 0)
(1.12267 0.146073 0)
(1.08775 0.147681 0)
(1.0593 0.14398 0)
(1.04235 0.137686 0)
(1.03756 0.131777 0)
(1.03816 0.125298 0)
(0.99941 0.114087 0)
(0.840694 0.0884617 0)
(0.555671 0.0531219 0)
(0.273043 0.0226187 0)
(0.0882274 0.0055498 0)
(0.00601893 0.000260435 0)
(0.245558 0.00935515 4.59486e-20)
(0.984065 0.0679627 4.01513e-20)
(1.20776 0.101231 -1.40464e-20)
(1.28978 0.121731 0)
(1.28743 0.139954 -3.59405e-34)
(1.24777 0.154588 5.25737e-21)
(1.20645 0.166195 -9.48403e-21)
(1.16577 0.174438 0)
(1.12512 0.178347 1.95335e-34)
(1.08533 0.176814 -1.17769e-20)
(1.05323 0.170103 0)
(1.03407 0.161675 -1.40179e-20)
(1.0285 0.154668 -4.13783e-20)
(1.02524 0.147774 -1.95563e-20)
(0.963765 0.132029 -5.88785e-21)
(0.767004 0.0978839 -3.49829e-21)
(0.467047 0.0551289 0)
(0.204975 0.0221696 2.44422e-21)
(0.0534458 0.00517453 2.88531e-21)
(-0.000107288 0.000178316 5.20497e-20)
(0.275207 0.0245803 3.31634e-20)
(1.06122 0.110688 5.48157e-22)
(1.26494 0.150589 3.71408e-21)
(1.32544 0.171057 0)
(1.31137 0.189467 -1.81169e-20)
(1.26461 0.201977 -2.06231e-20)
(1.21736 0.21129 -9.53982e-21)
(1.17086 0.217073 -3.4018e-20)
(1.12464 0.218275 0)
(1.07965 0.213694 5.00353e-20)
(1.04352 0.20406 4.96669e-20)
(1.02196 0.193555 1.47523e-20)
(1.01413 0.184832 5.38871e-20)
(1.00171 0.175512 7.57798e-20)
(0.907162 0.152432 0)
(0.666539 0.107431 1.06752e-19)
(0.362345 0.0567776 1.52986e-19)
(0.134359 0.0210398 1.69823e-19)
(0.0187551 0.00363757 -1.94089e-19)
(-0.00621427 -0.000445663 -3.65491e-21)
(0.276634 0.0414489 0)
(1.11037 0.16596 5.65592e-21)
(1.30373 0.210961 0)
(1.35325 0.23112 -2.31692e-20)
(1.33017 0.246771 0)
(1.27747 0.25538 -4.02801e-20)
(1.22465 0.260939 1.94189e-20)
(1.17264 0.263127 -6.82282e-20)
(1.12114 0.260734 -1.59966e-21)
(1.07125 0.252421 2.58047e-20)
(1.03142 0.23939 1.09013e-19)
(1.00765 0.226437 -2.00674e-22)
(0.997392 0.215668 -3.90873e-20)
(0.975911 0.202704 -7.11692e-20)
(0.855526 0.171887 8.41847e-20)
(0.593213 0.115875 -1.48973e-19)
(0.299629 0.0579801 -1.96316e-20)
(0.0957952 0.0195276 0)
(-9.41869e-05 0.00137627 -1.54088e-23)
(-0.00980536 -0.00131419 0)
(0.270048 0.0556267 6.96141e-20)
(1.13701 0.224887 -3.46497e-20)
(1.32778 0.275867 -2.73997e-20)
(1.3717 0.296485 1.08078e-20)
(1.34241 0.308399 -1.82084e-20)
(1.28526 0.312446 8.41412e-20)
(1.22788 0.313542 4.03883e-20)
(1.17112 0.311448 0)
(1.11491 0.304844 -1.28855e-19)
(1.06059 0.292269 0)
(1.01732 0.275446 -5.70532e-20)
(0.991431 0.259733 -7.05628e-20)
(0.978766 0.246581 -4.24576e-20)
(0.949154 0.229362 -5.15612e-20)
(0.813323 0.190519 0)
(0.545223 0.124883 0)
(0.265382 0.0607373 -1.27492e-19)
(0.0749631 0.0183688 2.51553e-20)
(-0.0120025 -0.00136263 -1.47341e-20)
(-0.0127057 -0.0024125 -1.72348e-20)
(0.262173 0.0680732 -2.42081e-20)
(1.1487 0.283704 0)
(1.34101 0.341744 5.38626e-20)
(1.38179 0.363277 2.98723e-20)
(1.34819 0.37144 4.23451e-20)
(1.2878 0.370925 0)
(1.22686 0.367436 3.92742e-20)
(1.16621 0.360842 7.51744e-20)
(1.10596 0.349758 6.58153e-20)
(1.04767 0.332631 1.21193e-19)
(1.00123 0.311722 0)
(0.973269 0.292983 -1.51866e-19)
(0.958239 0.277071 -9.1493e-20)
(0.922389 0.255495 -5.41092e-20)
(0.779315 0.209477 3.3066e-19)
(0.51505 0.135598 3.92492e-20)
(0.247847 0.0650688 1.84222e-19)
(0.0647854 0.0178935 -8.70076e-19)
(-0.018924 -0.00407249 5.14349e-19)
(-0.0149153 -0.00360953 -6.20019e-19)
(0.254566 0.0792271 -6.97987e-21)
(1.15086 0.340497 4.23312e-21)
(1.34643 0.40673 -5.30409e-21)
(1.3852 0.429565 -2.86884e-20)
(1.34848 0.434171 -3.48067e-20)
(1.28566 0.429267 1.81024e-21)
(1.22192 0.421331 -4.25489e-20)
(1.15808 0.410303 7.75123e-20)
(1.0944 0.394721 -1.41514e-19)
(1.03259 0.372976 0)
(0.983166 0.347871 -6.87317e-20)
(0.953099 0.325952 -1.58728e-21)
(0.935781 0.307226 -1.00057e-19)
(0.895553 0.281388 0)
(0.751177 0.229005 -7.15422e-20)
(0.496218 0.147899 -1.69446e-19)
(0.240831 0.07142 4.50598e-19)
(0.0627011 0.0186062 -4.43952e-19)
(-0.0213404 -0.00621043 6.29141e-19)
(-0.0162366 -0.00475124 -6.53855e-19)
(0.248071 0.0894924 -5.16768e-22)
(1.14705 0.394591 5.42607e-24)
(1.3462 0.469801 -1.19706e-20)
(1.38338 0.494191 1.07118e-20)
(1.34436 0.495577 -1.73562e-20)
(1.27969 0.486543 0)
(1.2137 0.474396 -3.92392e-20)
(1.14719 0.459118 -8.10526e-20)
(1.08053 0.439165 -7.34489e-20)
(1.01554 0.412882 0)
(0.963313 0.383637 -7.11875e-20)
(0.931135 0.358474 -8.83004e-20)
(0.911653 0.336927 1.08499e-19)
(0.868486 0.307063 -6.57764e-20)
(0.726498 0.249201 -3.12219e-19)
(0.483263 0.161816 1.84902e-19)
(0.239703 0.0791941 5.47501e-20)
(0.0654079 0.0207687 0)
(-0.0199459 -0.00728159 -6.08614e-19)
(-0.016498 -0.00563458 -2.23411e-20)
(0.24284 0.0992057 2.33017e-21)
(1.13959 0.445824 -2.85178e-21)
(1.34183 0.530404 4.99995e-21)
(1.37756 0.556465 3.93461e-20)
(1.33677 0.555009 -6.2485e-20)
(1.27071 0.542181 7.75197e-20)
(1.20288 0.526118 8.45492e-20)
(1.13408 0.506845 -1.29489e-19)
(1.06475 0.482727 4.555e-20)
(0.996842 0.452053 -2.97709e-19)
(0.941983 0.418768 -8.06095e-20)
(0.907756 0.390402 0)
(0.8862 0.366065 1.17791e-19)
(0.840984 0.332467 1.41209e-19)
(0.703233 0.26966 1.68417e-19)
(0.472477 0.176733 -2.01178e-19)
(0.240267 0.0882663 -5.93725e-20)
(0.0704647 0.0244068 6.9827e-20)
(-0.0159951 -0.00709816 0)
(-0.0158673 -0.00616063 -4.85597e-20)
(0.238771 0.108467 -4.81281e-20)
(1.13018 0.494275 2.3969e-20)
(1.33458 0.588388 -3.58563e-21)
(1.36875 0.61603 2.26617e-20)
(1.32656 0.612069 -2.71745e-20)
(1.25942 0.595796 -4.1381e-21)
(1.19007 0.57617 -9.25861e-20)
(1.11928 0.553213 -4.6905e-20)
(1.04756 0.525177 -1.27734e-19)
(0.976937 0.49032 3.28866e-22)
(0.919532 0.453104 -2.52535e-19)
(0.883329 0.421659 2.13446e-19)
(0.859821 0.394604 -1.29642e-19)
(0.813106 0.357512 1.55799e-19)
(0.680351 0.289851 0)
(0.461555 0.192075 -1.09605e-19)
(0.240891 0.0979722 3.067e-22)
(0.0761404 0.029131 -3.05302e-19)
(-0.0107964 -0.00591466 -4.47811e-20)
(-0.0146691 -0.00636203 0)
(0.235781 0.117519 0)
(1.11982 0.540169 2.92457e-20)
(1.32536 0.644043 4.02164e-21)
(1.35777 0.672721 -1.9415e-20)
(1.3144 0.66654 -3.57801e-20)
(1.24642 0.647179 0)
(1.17582 0.624344 -4.15344e-20)
(1.10329 0.598029 -1.05809e-21)
(1.02938 0.566385 2.73982e-19)
(0.956156 0.527561 -4.08975e-20)
(0.896291 0.48657 -1.8251e-19)
(0.85817 0.452103 1.11016e-19)
(0.832834 0.422412 -2.24835e-21)
(0.784797 0.381861 1.66073e-19)
(0.656708 0.309449 1.01732e-19)
(0.449034 0.207191 -2.36742e-19)
(0.239492 0.107735 2.80008e-19)
(0.0808075 0.0343965 8.29601e-20)
(-0.00539391 -0.00397575 3.41673e-19)
(-0.0131124 -0.00626083 -9.12641e-19)
(0.23378 0.126495 -1.89963e-20)
(1.10921 0.583686 2.37832e-20)
(1.31473 0.696839 -1.4572e-20)
(1.34527 0.726484 1.25259e-20)
(1.30088 0.71832 0)
(1.23225 0.696203 -3.439e-20)
(1.16059 0.670516 1.40336e-19)
(1.08651 0.641181 1.02814e-19)
(1.01055 0.606244 0)
(0.934809 0.563718 -5.90338e-19)
(0.872526 0.519092 4.94619e-19)
(0.832541 0.481663 0)
(0.805469 0.449298 1.51948e-19)
(0.756198 0.405275 -2.22704e-21)
(0.631947 0.328069 -3.27181e-19)
(0.434675 0.221218 1.2771e-19)
(0.235525 0.116992 0)
(0.0835082 0.0396308 4.48487e-19)
(-0.000804127 -0.00177141 0)
(-0.0115166 -0.00598255 -4.32756e-19)
(0.232621 0.135436 2.36029e-20)
(1.09877 0.62503 3.34655e-20)
(1.30314 0.746832 -1.37663e-20)
(1.33176 0.777335 0)
(1.28648 0.767394 -2.85229e-20)
(1.21733 0.742832 0)
(1.14476 0.714617 -1.3766e-19)
(1.06927 0.682602 -4.739e-20)
(0.99138 0.644703 4.82871e-20)
(0.913195 0.598771 -2.92267e-19)
(0.848457 0.550651 5.10879e-20)
(0.806619 0.510252 0)
(0.777883 0.475138 -3.25066e-19)
(0.727296 0.427479 2.13458e-21)
(0.605861 0.345335 0)
(0.418198 0.233677 9.68142e-22)
(0.228782 0.125065 4.10857e-19)
(0.0835646 0.0441551 -3.87596e-19)
(0.00227941 0.000187117 1.14411e-19)
(-0.0101362 -0.00565256 0)
(0.231958 0.144263 0)
(1.08869 0.664375 4.20006e-20)
(1.29101 0.794125 2.4112e-20)
(1.31765 0.825342 -2.55653e-21)
(1.27156 0.813793 -7.95236e-21)
(1.202 0.787068 -7.75436e-20)
(1.12865 0.756634 5.19642e-20)
(1.05189 0.722264 -5.63673e-20)
(0.972164 0.681741 2.16169e-19)
(0.891515 0.63271 -4.68151e-19)
(0.824254 0.581255 -4.23679e-21)
(0.780536 0.537842 -1.42321e-19)
(0.750191 0.499804 5.28182e-19)
(0.698255 0.448199 -2.57658e-21)
(0.579037 0.360795 -2.54755e-19)
(0.399727 0.244103 -4.51783e-19)
(0.219606 0.131401 0)
(0.0813623 0.0473632 0)
(0.00379501 0.00151086 1.23576e-19)
(-0.00907868 -0.005396 -7.24749e-20)
(0.231915 0.153128 3.50655e-20)
(1.07921 0.701487 -9.72947e-20)
(1.27864 0.83881 -2.59705e-20)
(1.30325 0.870587 0)
(1.25642 0.857574 -1.54198e-21)
(1.18655 0.828942 -6.93281e-20)
(1.11253 0.796577 1.24492e-19)
(1.0346 0.760158 2.21101e-19)
(0.953109 0.717354 2.81056e-19)
(0.869984 0.665559 -3.82881e-19)
(0.800082 0.61094 -4.27082e-19)
(0.754373 0.564466 3.81117e-19)
(0.722397 0.523194 0)
(0.668996 0.46712 -1.16163e-19)
(0.551507 0.37397 -2.75387e-19)
(0.379683 0.252083 -3.25146e-19)
(0.208237 0.135599 -3.83444e-19)
(0.0771457 0.0490396 1.13228e-19)
(0.00395629 0.00206486 -6.65581e-20)
(-0.00833657 -0.00525456 3.12903e-22)
(0.232099 0.161819 0)
(1.07041 0.736943 0)
(1.26622 0.880988 2.54246e-21)
(1.28879 0.913175 0)
(1.2413 0.898825 1.30158e-20)
(1.17118 0.868516 4.56283e-20)
(1.0966 0.834475 0)
(1.0176 0.796296 2.60958e-20)
(0.934417 0.751546 4.69433e-19)
(0.848801 0.69735 -8.81457e-19)
(0.776078 0.639788 0)
(0.728171 0.590181 -2.45904e-19)
(0.694444 0.545236 -3.01902e-21)
(0.639484 0.484004 -2.25519e-21)
(0.523448 0.384557 2.95225e-19)
(0.35816 0.257352 -1.20556e-23)
(0.195208 0.137435 -8.26418e-19)
(0.0713334 0.0491372 2.43641e-19)
(0.00307929 0.00191684 7.20118e-20)
(-0.007834 -0.00520249 0)
(0.232507 0.170333 -1.45334e-19)
(1.06206 0.770744 -6.85361e-20)
(1.25384 0.920724 -8.42032e-20)
(1.27445 0.953212 6.59108e-20)
(1.22638 0.937619 7.62286e-21)
(1.15609 0.905853 0)
(1.08102 0.870373 7.47667e-20)
(1.00105 0.830706 -5.84288e-20)
(0.916251 0.784335 3.96449e-21)
(0.828124 0.728114 6.51164e-20)
(0.752377 0.667891 5.54827e-19)
(0.701966 0.615097 -8.63449e-20)
(0.66623 0.565935 -3.26664e-19)
(0.609574 0.498633 -1.35518e-19)
(0.494923 0.392196 1.60063e-19)
(0.335799 0.259597 1.47781e-22)
(0.181065 0.136817 2.2261e-19)
(0.0644984 0.0477115 -5.24435e-19)
(0.00156447 0.00118363 6.19797e-19)
(-0.00748498 -0.0052131 9.03739e-20)
(0.232777 0.178613 5.59475e-20)
(1.05416 0.802978 -3.91239e-20)
(1.24165 0.958137 6.361e-21)
(1.26036 0.990822 4.71161e-20)
(1.2118 0.974067 5.23346e-21)
(1.1414 0.941026 -7.83566e-20)
(1.06594 0.904322 2.11502e-20)
(0.985089 0.863409 -2.43501e-19)
(0.898749 0.815722 -5.18338e-19)
(0.8081 0.757866 -5.26615e-19)
(0.729121 0.695339 0)
(0.675798 0.639357 -3.80145e-19)
(0.637619 0.585399 4.71546e-19)
(0.579009 0.510818 0)
(0.465959 0.396408 -3.43193e-19)
(0.313411 0.258357 2.03596e-19)
(0.167003 0.133564 -2.39439e-19)
(0.0578086 0.045033 -2.82174e-19)
(-6.93976e-05 0.000114259 -4.9923e-19)
(-0.00726028 -0.00527329 -3.89281e-19)
(0.233413 0.186769 -6.3931e-20)
(1.04657 0.833634 4.18763e-20)
(1.22972 0.993293 9.39575e-20)
(1.24663 1.02608 7.19108e-20)
(1.19766 1.00826 -6.93921e-21)
(1.1272 0.97412 -4.02457e-20)
(1.05144 0.936372 7.11411e-20)
(0.969802 0.894448 -2.49945e-19)
(0.882003 0.845731 -3.0745e-19)
(0.788861 0.78663 5.52265e-19)
(0.706441 0.722207 1.22254e-18)
(0.649726 0.663133 0)
(0.608483 0.603838 0)
(0.547401 0.520516 -1.56105e-19)
(0.436222 0.39665 0)
(0.291356 0.252641 4.37427e-19)
(0.15468 0.126852 5.14589e-19)
(0.0533625 0.0409521 0)
(-0.000646187 -0.00105287 0)
(-0.00713331 -0.00538363 4.1835e-19)
(0.233733 0.194471 7.35563e-20)
(1.0393 0.862705 5.92354e-20)
(1.21812 1.0263 6.86732e-20)
(1.23332 1.05912 -7.29042e-20)
(1.18403 1.04032 -1.47326e-20)
(1.11357 1.00521 3.81164e-20)
(1.03758 0.966583 -9.73835e-20)
(0.955262 0.923849 -5.79274e-22)
(0.866104 0.874366 -5.17501e-21)
(0.770514 0.814408 -4.49398e-21)
(0.684483 0.748555 6.3053e-19)
(0.623846 0.686592 0)
(0.578744 0.621543 4.79135e-19)
(0.514282 0.527917 3.33927e-19)
(0.404912 0.392616 8.01244e-19)
(0.269227 0.24086 2.35834e-19)
(0.145797 0.11364 -2.76795e-19)
(0.0561456 0.031879 -1.62538e-19)
(0.00609004 -0.00375842 0)
(-0.00562104 -0.00522164 4.49513e-19)
(0.234418 0.202202 -1.6751e-19)
(1.03231 0.890326 0)
(1.20685 1.05722 8.27759e-20)
(1.22047 1.09002 -6.32417e-20)
(1.17096 1.07032 2.70879e-20)
(1.10054 1.03439 -3.47418e-20)
(1.02443 0.995009 1.86665e-19)
(0.941516 0.951647 -2.04867e-20)
(0.851102 0.901636 0)
(0.753148 0.841173 -6.10785e-19)
(0.663395 0.774417 -1.37357e-18)
(0.598286 0.709898 5.63795e-20)
(0.548422 0.638829 6.63167e-19)
(0.479295 0.533533 0)
(0.370751 0.384722 5.41473e-19)
(0.244535 0.221598 0)
(0.138457 0.0869956 0)
(0.0724521 0.00118087 -1.75664e-19)
(0.0470117 -0.0214938 0)
(0.0255264 0.0048751 1.20459e-19)
(0.234684 0.209369 -1.88749e-19)
(1.02558 0.916719 0)
(1.1959 1.08624 1.39483e-19)
(1.20802 1.11901 0)
(1.15843 1.09856 -1.87591e-20)
(1.08807 1.06194 0)
(1.01191 1.02196 8.71533e-21)
(0.928467 0.978179 3.44317e-20)
(0.836873 0.927904 3.86865e-20)
(0.73659 0.867301 -6.70527e-19)
(0.642988 0.800248 4.12259e-20)
(0.572752 0.733715 4.54883e-19)
(0.517021 0.656482 6.47876e-19)
(0.44146 0.538103 8.72223e-20)
(0.331757 0.37446 4.25085e-19)
(0.211963 0.19569 0)
(0.119879 0.0425278 5.82834e-19)
(0.0682053 -0.0359232 -3.40059e-19)
(0.0310073 0.0535672 3.95276e-19)
(-0.0383506 0.456208 -4.71123e-19)
(0.234913 0.21638 1.57249e-19)
(1.01888 0.941755 2.40363e-19)
(1.18518 1.11369 0)
(1.19584 1.14655 5.09151e-21)
(1.14622 1.12559 5.98312e-20)
(1.07586 1.08854 2.30125e-20)
(0.999704 1.04824 6.30987e-20)
(0.915697 1.00439 0)
(0.822878 0.954268 2.55545e-19)
(0.720148 0.894101 -3.4915e-20)
(0.622327 0.827553 0)
(0.545914 0.759745 0)
(0.482451 0.675842 5.82039e-19)
(0.39818 0.54205 -2.69855e-19)
(0.2847 0.363572 -4.31848e-19)
(0.167151 0.166111 0)
(0.0688652 0.0609185 2.94191e-19)
(0.0058271 0.462225 -3.39357e-19)
(0.0309528 1.92726 -1.9009e-19)
(0.0574064 2.82511 -2.39609e-19)
(0.234798 0.222844 -1.19038e-19)
(1.01224 0.9656 -3.10367e-19)
(1.17473 1.13957 8.39956e-20)
(1.18394 1.17251 6.60623e-20)
(1.1344 1.15124 0)
(1.06403 1.11394 4.67819e-21)
(0.98803 1.07353 8.33807e-20)
(0.903403 1.02983 -1.65761e-20)
(0.809403 0.980213 3.82638e-20)
(0.704219 0.920972 6.39963e-19)
(0.602043 0.855683 6.9747e-19)
(0.518746 0.787791 5.12732e-19)
(0.4455 0.697054 5.87445e-19)
(0.350747 0.544541 -6.36486e-19)
(0.235658 0.355755 -6.5388e-19)
(0.111046 0.220063 0)
(0.0390955 0.884772 0)
(0.0868337 2.58161 1.63258e-19)
(0.0896551 3.2121 0)
(0.0911226 3.38952 3.95657e-19)
(0.23741 0.228875 0)
(1.00596 0.98863 0)
(1.16424 1.16373 0)
(1.17209 1.19676 2.0586e-20)
(1.12263 1.17524 5.63595e-20)
(1.05238 1.13797 -1.01144e-20)
(0.976808 1.09774 5.24951e-20)
(0.891518 1.0544 -1.61141e-20)
(0.796383 1.00556 3.18541e-19)
(0.688793 0.947751 -8.90712e-21)
(0.582226 0.884434 1.38058e-18)
(0.491617 0.817903 -5.93581e-20)
(0.406058 0.720917 7.14307e-20)
(0.30112 0.543745 9.24118e-20)
(0.176243 0.373465 -2.60437e-21)
(0.0904788 1.01357 1.71351e-21)
(0.123997 2.76284 -8.652e-19)
(0.128767 3.30126 -3.23954e-19)
(0.119484 3.4239 1.67841e-19)
(0.109021 3.44372 -1.87193e-19)
(0.16092 0.174583 7.10083e-20)
(0.995792 1.01375 0)
(1.15351 1.18636 -1.71324e-19)
(1.16069 1.2197 -1.83154e-19)
(1.11136 1.19808 1.42851e-19)
(1.04158 1.16111 1.58735e-20)
(0.965862 1.12084 -5.25938e-20)
(0.880071 1.07813 1.7568e-19)
(0.783894 1.0304 -2.60514e-19)
(0.674087 0.974556 0)
(0.563162 0.913871 6.79799e-19)
(0.465075 0.849843 -4.19744e-19)
(0.366434 0.750483 0)
(0.243088 0.543609 8.71604e-20)
(0.129652 0.758944 2.09261e-19)
(0.13851 2.56565 -2.38949e-19)
(0.186752 3.32866 2.68729e-19)
(0.169516 3.43448 1.45979e-19)
(0.14061 3.45328 1.63915e-19)
(0.121416 3.46202 2.65236e-19)
(0.272383 0.267027 -1.35145e-19)
(0.978667 1.02423 0)
(1.13555 1.21252 1.89238e-19)
(1.14617 1.25086 2.05206e-19)
(1.09399 1.23179 -1.65088e-19)
(1.0236 1.19522 -4.04092e-20)
(0.946698 1.1565 4.16476e-20)
(0.860343 1.1151 1.384e-20)
(0.762719 1.06965 2.47345e-19)
(0.649902 1.01798 5.53269e-19)
(0.533191 0.963705 3.82831e-20)
(0.423358 0.904079 3.7406e-19)
(0.293069 0.786019 6.7321e-20)
(0.204528 0.928925 -8.57936e-20)
(0.210065 2.44081 -1.91926e-19)
(0.26139 3.33327 1.87026e-19)
(0.244408 3.46036 -2.09489e-19)
(0.210046 3.47909 -1.21476e-19)
(0.176506 3.50339 -1.07532e-19)
(0.131478 3.49782 -1.25934e-20)
(0.262664 0.266015 0)
(0.976038 1.04732 5.61029e-20)
(1.127 1.23634 -3.9492e-20)
(1.1353 1.27468 -2.49679e-20)
(1.08298 1.25522 -1.16997e-19)
(1.01256 1.21883 4.46067e-20)
(0.935337 1.18034 -1.8549e-20)
(0.848725 1.13981 1.23053e-20)
(0.750456 1.09589 -2.57153e-19)
(0.636115 1.04722 -1.38881e-20)
(0.516127 0.997903 -1.2316e-18)
(0.400019 0.941105 5.35471e-20)
(0.276288 0.859295 -6.35829e-20)
(0.239574 1.54552 -7.93204e-20)
(0.302207 3.14326 1.77326e-20)
(0.315555 3.46263 1.25919e-21)
(0.274002 3.50976 3.15979e-19)
(0.240071 3.53265 1.6057e-19)
(0.194401 3.55251 -5.17371e-20)
(0.144436 3.54862 -6.36538e-20)
(0.248784 0.26417 1.43587e-19)
(0.972515 1.073 3.83465e-19)
(1.11809 1.2622 -1.13354e-19)
(1.12396 1.30003 -9.42333e-20)
(1.07147 1.2801 0)
(1.00113 1.24374 9.46842e-20)
(0.923875 1.20554 -1.14626e-20)
(0.837259 1.16582 1.06499e-20)
(0.738658 1.12354 -2.87515e-20)
(0.623331 1.07814 -4.99588e-19)
(0.500979 1.03436 -5.68075e-19)
(0.379645 0.979763 -4.3717e-19)
(0.278412 1.00323 -4.82004e-19)
(0.304719 2.30995 4.93698e-19)
(0.382842 3.39031 4.15675e-19)
(0.354697 3.51961 0)
(0.306647 3.55594 0)
(0.269952 3.58939 -4.21737e-20)
(0.225628 3.63448 0)
(0.156146 3.61838 -6.36149e-20)
(0.239023 0.266202 -2.16321e-19)
(0.967054 1.09956 -3.27556e-19)
(1.1078 1.2893 0)
(1.11136 1.32619 6.13215e-21)
(1.05873 1.30564 -1.32072e-19)
(0.988636 1.26923 1.62016e-19)
(0.911666 1.23134 1.71684e-21)
(0.825272 1.19237 5.50162e-21)
(0.726595 1.1517 -1.79664e-19)
(0.610722 1.10959 2.47995e-20)
(0.486941 1.07144 0)
(0.361178 1.02255 0)
(0.301119 1.29417 -4.38106e-19)
(0.383449 2.97295 1.76059e-19)
(0.447919 3.49006 2.26942e-19)