/*--------------------------------*- C++ -*----------------------------------*\
  =========                 |
  \\      /  F ield         | OpenFOAM: The Open Source CFD Toolbox
   \\    /   O peration     | Website:  https://openfoam.org
    \\  /    A nd           | Version:  6
     \\/     M anipulation  |
\*---------------------------------------------------------------------------*/
FoamFile
{
    version     2.0;
    format      ascii;
    class       volVectorField;
    location    "70";
    object      U;
}
// * * * * * * * * * * * * * * * * * * * * * * * * * * * * * * * * * * * * * //

dimensions      [0 1 -1 0 0 0 0];

internalField   nonuniform List<vector> 
8800
(
(0.987184 -0.0766661 0)
(1.00189 -0.0551918 0)
(0.999722 -0.0285503 0)
(1.00003 -0.015146 0)
(1.00009 -0.00854813 0)
(1.00011 -0.00505104 0)
(1.00007 -0.00300593 0)
(1.00003 -0.00170524 0)
(0.999998 -0.000798423 0)
(1.00006 -8.15366e-05 0)
(0.999976 0.000648846 0)
(0.999986 0.00141655 0)
(1.00003 0.00243622 0)
(1.00005 0.00400412 0)
(1.00004 0.00663494 0)
(1.00002 0.011373 0)
(0.99991 0.0208157 0)
(0.999155 0.0386716 0)
(1.0071 0.0724575 0)
(0.771213 0.0366613 0)
(0.363066 -0.0160177 0)
(1.04331 -0.0768185 0)
(1.08459 -0.0704513 0)
(1.04519 -0.0535486 0)
(1.02328 -0.0389025 0)
(1.01202 -0.0262273 0)
(1.00642 -0.0168679 0)
(1.00359 -0.0103372 0)
(1.00215 -0.00567682 0)
(1.00145 -0.00201759 0)
(1.0013 0.00130676 0)
(1.00166 0.00469194 0)
(1.00265 0.00862572 0)
(1.00466 0.0139566 0)
(1.00859 0.0216626 0)
(1.01655 0.0326324 0)
(1.03247 0.0465462 0)
(1.06264 0.0616632 0)
(1.09187 0.0761003 0)
(0.838671 0.0565616 0)
(0.216838 -0.0024302 0)
(1.07589 -0.0501411 0)
(1.09987 -0.0483181 0)
(1.06463 -0.0404729 0)
(1.04003 -0.0336171 0)
(1.02391 -0.0260975 0)
(1.01411 -0.0185155 0)
(1.00855 -0.0116946 0)
(1.00558 -0.00582421 0)
(1.00432 -0.000403142 0)
(1.00466 0.00484672 0)
(1.00658 0.0102409 0)
(1.0106 0.0163308 0)
(1.01794 0.0233496 0)
(1.03052 0.0308146 0)
(1.05061 0.0378458 0)
(1.08033 0.0445296 0)
(1.10625 0.0513451 0)
(0.942524 0.0416171 0)
(0.216151 0.00246169 0)
(0.175161 -0.000816896 0)
(1.01767 -0.0354908 0)
(1.10519 -0.0413897 0)
(1.07825 -0.0360759 0)
(1.05345 -0.0301432 0)
(1.03619 -0.0245687 0)
(1.02399 -0.0188406 0)
(1.01587 -0.0127592 0)
(1.01101 -0.00656817 0)
(1.0088 -0.000228987 0)
(1.00937 0.00603024 0)
(1.01263 0.0120326 0)
(1.01887 0.0178631 0)
(1.02877 0.02343 0)
(1.04319 0.0287317 0)
(1.06371 0.0342169 0)
(1.09354 0.0402014 0)
(1.0934 0.0419638 0)
(0.827137 0.0229149 0)
(0.174001 0.000853093 0)
(0.153956 -0.000610786 0)
(0.956156 -0.025465 0)
(1.10344 -0.0351395 0)
(1.08766 -0.0326649 0)
(1.0617 -0.028013 0)
(1.0441 -0.0229899 0)
(1.03163 -0.0177433 0)
(1.02278 -0.0122096 0)
(1.01696 -0.00626952 0)
(1.01411 0.000204904 0)
(1.01478 0.00667064 0)
(1.01875 0.0125584 0)
(1.02579 0.0178492 0)
(1.03609 0.0227565 0)
(1.05064 0.027516 0)
(1.07188 0.0320494 0)
(1.10005 0.035983 0)
(1.06806 0.0340398 0)
(0.739509 0.0143177 0)
(0.152208 0.000651876 0)
(0.139582 -0.000466988 0)
(0.899249 -0.0190826 0)
(1.09576 -0.0300892 0)
(1.09572 -0.0291994 0)
(1.06923 -0.0254678 0)
(1.0508 -0.0213276 0)
(1.03787 -0.0165534 0)
(1.02876 -0.0112645 0)
(1.02264 -0.00551656 0)
(1.0195 0.000816463 0)
(1.02011 0.0071326 0)
(1.02419 0.0127721 0)
(1.03136 0.0177335 0)
(1.04188 0.0221869 0)
(1.05699 0.0261534 0)
(1.07919 0.0296182 0)
(1.10225 0.0322414 0)
(1.03594 0.0281352 0)
(0.672909 0.0102183 0)
(0.137113 0.000514384 0)
(0.12904 -0.000361551 0)
(0.84966 -0.014719 0)
(1.08338 -0.0259547 0)
(1.10141 -0.0262466 0)
(1.07609 -0.0229593 0)
(1.05712 -0.0193133 0)
(1.04374 -0.015066 0)
(1.03427 -0.0101387 0)
(1.02791 -0.004599 0)
(1.02457 0.00155683 0)
(1.02503 0.0076616 0)
(1.02907 0.0130239 0)
(1.03635 0.0175716 0)
(1.04715 0.0214162 0)
(1.06266 0.0247194 0)
(1.08529 0.0276657 0)
(1.10134 0.0294172 0)
(1.00098 0.0236289 0)
(0.621022 0.00785797 0)
(0.125693 0.000417307 0)
(0.120999 -0.000280818 0)
(0.807529 -0.0115593 0)
(1.06811 -0.0223412 0)
(1.10494 -0.023605 0)
(1.08234 -0.0207299 0)
(1.06296 -0.0172971 0)
(1.0493 -0.0133548 0)
(1.03956 -0.00876443 0)
(1.03291 -0.00349713 0)
(1.02932 0.00244266 0)
(1.0296 0.00830306 0)
(1.03359 0.0133192 0)
(1.04093 0.017396 0)
(1.05182 0.0207298 0)
(1.06754 0.0236212 0)
(1.09052 0.0262664 0)
(1.09753 0.0271198 0)
(0.965648 0.0201004 0)
(0.579293 0.00632819 0)
(0.116585 0.000347142 0)
(0.114771 -0.000217528 0)
(0.772081 -0.00919454 0)
(1.05136 -0.0191583 0)
(1.10733 -0.0211581 0)
(1.08822 -0.0186506 0)
(1.06846 -0.0153598 0)
(1.05456 -0.0115793 0)
(1.04461 -0.0071988 0)
(1.03771 -0.00216988 0)
(1.03384 0.00351607 0)
(1.03389 0.00907325 0)
(1.03775 0.0137135 0)
(1.04503 0.0173705 0)
(1.05591 0.020313 0)
(1.07183 0.0228828 0)
(1.09445 0.0251846 0)
(1.09087 0.0252226 0)
(0.93123 0.0173839 0)
(0.544703 0.00528657 0)
(0.10906 0.000296844 0)
(0.109922 -0.000166546 0)
(0.742376 -0.00735734 0)
(1.0342 -0.0163346 0)
(1.10879 -0.01885 0)
(1.09381 -0.0166473 0)
(1.07376 -0.0134476 0)
(1.0596 -0.00975514 0)
(1.04946 -0.00549331 0)
(1.04233 -0.000637337 0)
(1.03817 0.00480934 0)
(1.03791 0.0100547 0)
(1.04154 0.0143363 0)
(1.04867 0.0176279 0)
(1.05952 0.020221 0)
(1.07562 0.0224982 0)
(1.0971 0.0244168 0)
(1.08175 0.023679 0)
(0.898285 0.0153294 0)
(0.515195 0.00456392 0)
(0.102635 0.000261746 0)
(0.106169 -0.000124106 0)
(0.717598 -0.00587366 0)
(1.01746 -0.0137979 0)
(1.10942 -0.0166151 0)
(1.09931 -0.0146819 0)
(1.079 -0.0114889 0)
(1.06454 -0.00782334 0)
(1.05417 -0.00362321 0)
(1.04679 0.0011199 0)
(1.04229 0.00636617 0)
(1.04166 0.0113167 0)
(1.04496 0.0152547 0)
(1.05191 0.0181929 0)
(1.0627 0.0204462 0)
(1.07897 0.0224622 0)
(1.09839 0.0239739 0)
(1.07054 0.0224894 0)
(0.866919 0.0138221 0)
(0.489308 0.00407054 0)
(0.096968 0.000238836 0)
(0.103324 -8.72526e-05 0)
(0.697105 -0.00462749 0)
(1.00174 -0.0114814 0)
(1.10939 -0.0144198 0)
(1.10466 -0.0126723 0)
(1.08425 -0.0094414 0)
(1.06947 -0.00574794 0)
(1.05883 -0.00154601 0)
(1.05114 0.00314218 0)
(1.04622 0.00823946 0)
(1.04513 0.0129356 0)
(1.04806 0.0165538 0)
(1.05477 0.0191487 0)
(1.06547 0.0210657 0)
(1.08187 0.0228169 0)
(1.09867 0.0239305 0)
(1.05752 0.021666 0)
(0.836957 0.0127729 0)
(0.465949 0.00375085 0)
(0.0917976 0.00022567 0)
(0.101269 -5.32552e-05 0)
(0.680431 -0.00353104 0)
(0.987503 -0.00931219 0)
(1.10892 -0.0121731 0)
(1.10983 -0.0105347 0)
(1.08958 -0.00724023 0)
(1.07446 -0.00345329 0)
(1.0635 0.000812436 0)
(1.05542 0.00550113 0)
(1.05 0.0104976 0)
(1.04835 0.0149641 0)
(1.05083 0.0182703 0)
(1.05725 0.0205169 0)
(1.06783 0.0220948 0)
(1.08426 0.0235778 0)
(1.09792 0.0242726 0)
(1.04281 0.0212185 0)
(0.808055 0.0121101 0)
(0.444252 0.00356702 0)
(0.0869196 0.000220283 0)
(0.0999441 -1.99292e-05 0)
(0.667274 -0.0025152 0)
(0.975113 -0.0072177 0)
(1.10831 -0.00981976 0)
(1.11499 -0.00820286 0)
(1.09508 -0.004798 0)
(1.07958 -0.000859245 0)
(1.06824 0.0035365 0)
(1.05968 0.00829343 0)
(1.05366 0.0132319 0)
(1.05134 0.0174869 0)
(1.05326 0.020496 0)
(1.05934 0.0223975 0)
(1.06977 0.0236144 0)
(1.0862 0.0248213 0)
(1.09594 0.0250549 0)
(1.02647 0.0211385 0)
(0.779772 0.0117809 0)
(0.423511 0.00349406 0)
(0.0821691 0.000221242 0)
(0.0993325 1.4874e-05 0)
(0.657481 -0.00152556 0)
(0.96488 -0.0051262 0)
(1.10791 -0.00730033 0)
(1.12024 -0.00561864 0)
(1.10084 -0.00205642 0)
(1.08492 0.00210519 0)
(1.07312 0.00670623 0)
(1.06399 0.0115994 0)
(1.05722 0.01655 0)
(1.05409 0.0206362 0)
(1.05535 0.0233328 0)
(1.06103 0.0248589 0)
(1.07127 0.0257146 0)
(1.08758 0.0265989 0)
(1.09268 0.0262835 0)
(1.00845 0.0214679 0)
(0.751615 0.0117595 0)
(0.403133 0.00351836 0)
(0.0774107 0.000227953 0)
(0.0994534 4.70135e-05 0)
(0.651028 -0.000517005 0)
(0.957112 -0.00296512 0)
(1.10805 -0.00453748 0)
(1.12576 -0.00267395 0)
(1.10695 0.00112399 0)
(1.09057 0.00558554 0)
(1.07823 0.0104606 0)
(1.0684 0.0155581 0)
(1.06073 0.020562 0)
(1.05662 0.024489 0)
(1.0571 0.0268808 0)
(1.06229 0.0280269 0)
(1.0723 0.0284874 0)
(1.08819 0.028999 0)
(1.08781 0.0280286 0)
(0.98856 0.0222304 0)
(0.72303 0.0120291 0)
(0.382575 0.00363037 0)
(0.0725214 0.000239653 0)
(0.100375 9.22258e-05 0)
(0.648032 0.000527271 0)
(0.952128 -0.000652729 0)
(1.10911 -0.00145912 0)
(1.13176 0.000709289 0)
(1.11354 0.00483083 0)
(1.09664 0.00967845 0)
(1.08364 0.0149253 0)
(1.07296 0.0203083 0)
(1.06419 0.0254161 0)
(1.05893 0.0291955 0)
(1.05847 0.0312667 0)
(1.06308 0.0320276 0)
(1.07281 0.0320698 0)
(1.08789 0.0321519 0)
(1.08111 0.0303791 0)
(0.966504 0.023471 0)
(0.693405 0.0125823 0)
(0.361326 0.00382373 0)
(0.0673918 0.000255698 0)
(0.102265 0.00015014 0)
(0.648838 0.00170137 0)
(0.950291 0.00188552 0)
(1.11151 0.00204905 0)
(1.13842 0.00465147 0)
(1.12074 0.00920826 0)
(1.10325 0.0145499 0)
(1.08946 0.0202659 0)
(1.07775 0.0260228 0)
(1.06767 0.0313056 0)
(1.061 0.0349624 0)
(1.05943 0.0366596 0)
(1.06335 0.0369973 0)
(1.07272 0.0365853 0)
(1.08639 0.036169 0)
(1.07229 0.0334208 0)
(0.941854 0.0252198 0)
(0.662082 0.0134117 0)
(0.338906 0.00409023 0)
(0.0619267 0.00027518 0)
(0.105197 0.000213313 0)
(0.653886 0.00314725 0)
(0.952052 0.00481359 0)
(1.11575 0.00612741 0)
(1.146 0.00932195 0)
(1.12872 0.0144736 0)
(1.11054 0.0204304 0)
(1.09579 0.0267248 0)
(1.08281 0.0329369 0)
(1.07113 0.0384152 0)
(1.0628 0.0419158 0)
(1.05995 0.0432042 0)
(1.06303 0.0430975 0)
(1.07198 0.042176 0)
(1.0836 0.0412343 0)
(1.06096 0.0372601 0)
(0.914036 0.0275225 0)
(0.628349 0.01451 0)
(0.314862 0.00442076 0)
(0.0560475 0.000296918 0)
(0.10946 0.000296952 0)
(0.663572 0.00483485 0)
(0.957876 0.00826021 0)
(1.12232 0.0109208 0)
(1.1548 0.0148905 0)
(1.13771 0.0208108 0)
(1.11869 0.0275323 0)
(1.10275 0.0345423 0)
(1.0882 0.0412987 0)
(1.07458 0.047006 0)
(1.0643 0.050314 0)
(1.05997 0.0511194 0)
(1.06207 0.0505174 0)
(1.0705 0.0490176 0)
(1.07956 0.047464 0)
(1.0466 0.0420058 0)
(0.882321 0.0303993 0)
(0.591439 0.0158526 0)
(0.288775 0.00479808 0)
(0.0497002 0.000318974 0)
(0.115395 0.000410123 0)
(0.678747 0.00695243 0)
(0.968454 0.0124325 0)
(1.13178 0.0166774 0)
(1.16514 0.0216465 0)
(1.14796 0.0285781 0)
(1.12789 0.0362351 0)
(1.11043 0.0440857 0)
(1.09395 0.0514542 0)
(1.07799 0.0573736 0)
(1.06541 0.0603878 0)
(1.05929 0.0605874 0)
(1.06037 0.0594434 0)
(1.06826 0.0573114 0)
(1.07398 0.0550526 0)
(1.02852 0.0477363 0)
(0.845821 0.033842 0)
(0.550575 0.0173903 0)
(0.260319 0.00519457 0)
(0.0428703 0.00033868 0)
(0.123523 0.000567359 0)
(0.70032 0.0097201 0)
(0.984645 0.0176366 0)
(1.14483 0.0237318 0)
(1.17755 0.0299855 0)
(1.1598 0.0382448 0)
(1.13832 0.0470312 0)
(1.11893 0.0558419 0)
(1.10002 0.0638279 0)
(1.08125 0.0698342 0)
(1.06603 0.0723723 0)
(1.0579 0.0718284 0)
(1.05784 0.0700179 0)
(1.06514 0.0671658 0)
(1.06647 0.0639095 0)
(1.00581 0.054503 0)
(0.803487 0.0377845 0)
(0.505021 0.0190279 0)
(0.229317 0.00556825 0)
(0.0355996 0.000352478 0)
(0.134581 0.000795672 0)
(0.729586 0.013526 0)
(1.0076 0.0243417 0)
(1.16224 0.03263 0)
(1.19264 0.0404848 0)
(1.17358 0.0504397 0)
(1.15017 0.0605532 0)
(1.12825 0.0703904 0)
(1.10631 0.0788959 0)
(1.08421 0.0847698 0)
(1.06599 0.0865578 0)
(1.0557 0.0850573 0)
(1.05442 0.0824704 0)
(1.0608 0.0787347 0)
(1.0563 0.0743108 0)
(0.977317 0.0622791 0)
(0.75417 0.042066 0)
(0.454207 0.0206127 0)
(0.195842 0.00586052 0)
(0.0280067 0.00035612 0)
(0.149822 0.00115298 0)
(0.768531 0.0189953 0)
(1.03898 0.0333313 0)
(1.18494 0.0443138 0)
(1.2112 0.0543289 0)
(1.18964 0.0662415 0)
(1.1635 0.077791 0)
(1.13823 0.088533 0)
(1.11254 0.0972404 0)
(1.08656 0.102522 0)
(1.06505 0.103128 0)
(1.05249 0.100409 0)
(1.04998 0.0969135 0)
(1.05496 0.0924034 0)
(1.04262 0.0862868 0)
(0.94154 0.0708721 0)
(0.696733 0.0463861 0)
(0.397944 0.0219159 0)
(0.160351 0.00599825 0)
(0.0203037 0.000345087 0)
(0.171439 0.00177297 0)
(0.8204 0.0272576 0)
(1.08143 0.0461507 0)
(1.21411 0.0606594 0)
(1.23381 0.0735204 0)
(1.20805 0.0873093 0)
(1.17802 0.100106 0)
(1.14841 0.111256 0)
(1.11824 0.119478 0)
(1.08792 0.123431 0)
(1.06295 0.122264 0)
(1.04812 0.11797 0)
(1.04442 0.113382 0)
(1.0476 0.107954 0)
(1.0242 0.099698 0)
(0.896638 0.0798591 0)
(0.630379 0.0502791 0)
(0.336793 0.0226547 0)
(0.123837 0.00590514 0)
(0.0128099 0.00031502 0)
(0.202798 0.00313305 0)
(0.890945 0.0409235 0)
(1.13851 0.0665936 0)
(1.25014 0.0852471 0)
(1.26022 0.100847 0)
(1.22818 0.115972 0)
(1.19288 0.129077 0)
(1.15797 0.1395 0)
(1.12271 0.146109 0)
(1.08778 0.147728 0)
(1.05934 0.144033 0)
(1.04238 0.137743 0)
(1.03759 0.131843 0)
(1.03816 0.125368 0)
(0.999336 0.114146 0)
(0.840462 0.0884909 0)
(0.555346 0.0531205 0)
(0.272808 0.0226087 0)
(0.0881369 0.00554549 0)
(0.00601085 0.000260439 0)
(0.24559 0.00934574 1.05778e-20)
(0.984134 0.0679615 9.04597e-21)
(1.20783 0.101235 -3.14307e-21)
(1.28984 0.121735 0)
(1.28748 0.13996 -7.86248e-35)
(1.24782 0.1546 1.14603e-21)
(1.2065 0.166215 -2.04757e-21)
(1.16582 0.174465 0)
(1.12518 0.178384 4.17484e-35)
(1.08538 0.17686 -2.50391e-21)
(1.05327 0.170161 0)
(1.0341 0.161745 -2.9657e-21)
(1.02854 0.154747 -8.74761e-21)
(1.02525 0.147855 -4.13809e-21)
(0.963648 0.132088 -1.24487e-21)
(0.766691 0.0978997 -7.39407e-22)
(0.466674 0.0551122 0)
(0.204747 0.0221525 5.1775e-22)
(0.0533773 0.00516832 6.13196e-22)
(-0.000108254 0.000178203 1.12045e-20)
(0.275242 0.0245803 7.89434e-21)
(1.0613 0.110688 1.11338e-22)
(1.26501 0.1506 8.4442e-22)
(1.3255 0.17107 0)
(1.31143 0.189484 -4.00375e-21)
(1.26467 0.202001 -4.52768e-21)
(1.21742 0.211319 -2.06794e-21)
(1.17092 0.21711 -7.30838e-21)
(1.1247 0.218317 0)
(1.0797 0.213744 1.06251e-20)
(1.04357 0.204119 1.05153e-20)
(1.02202 0.193629 3.11704e-21)
(1.01418 0.184921 1.1358e-20)
(1.0017 0.175606 1.59681e-20)
(0.906967 0.152485 0)
(0.666105 0.107429 2.24974e-20)
(0.36192 0.0567469 3.2285e-20)
(0.134136 0.0210201 3.59291e-20)
(0.0187062 0.00363248 -4.12161e-20)
(-0.00620555 -0.000444963 -7.86144e-22)
(0.276671 0.0414474 0)
(1.11045 0.165959 1.39592e-21)
(1.30381 0.210973 0)
(1.35332 0.231144 -5.31096e-21)
(1.33024 0.246803 0)
(1.27753 0.255417 -8.91742e-21)
(1.22472 0.260977 4.22619e-21)
(1.17271 0.263168 -1.47261e-20)
(1.1212 0.260781 -3.20344e-22)
(1.07132 0.252474 5.49173e-21)
(1.03148 0.239452 2.3049e-20)
(1.00772 0.226513 -4.01219e-23)
(0.997463 0.215757 -8.23188e-21)
(0.975906 0.202794 -1.49645e-20)
(0.855255 0.171926 1.77197e-20)
(0.592682 0.115845 -3.13806e-20)
(0.299156 0.0579374 -4.14033e-21)
(0.0955482 0.0195067 0)
(-0.000161992 0.00137133 -3.13338e-24)
(-0.00979809 -0.00131284 0)
(0.270084 0.0556224 1.92057e-20)
(1.1371 0.224888 -9.15852e-21)
(1.32787 0.27588 -6.81792e-21)
(1.37178 0.296512 2.52161e-21)
(1.34249 0.308434 -4.21535e-21)
(1.28533 0.312482 1.86726e-20)
(1.22795 0.31358 8.811e-21)
(1.17118 0.311488 0)
(1.11497 0.304888 -2.75876e-20)
(1.06066 0.292316 0)
(1.0174 0.275508 -1.20777e-20)
(0.991517 0.259809 -1.4877e-20)
(0.978854 0.246667 -8.93527e-21)
(0.949149 0.229434 -1.08339e-20)
(0.813002 0.19052 0)
(0.544639 0.124813 0)
(0.264875 0.0606711 -2.68886e-20)
(0.0746683 0.0183329 5.31525e-21)
(-0.0121179 -0.00137679 -3.12557e-21)
(-0.0127128 -0.00241313 -3.70269e-21)
(0.262209 0.0680731 -8.0975e-21)
(1.14879 0.283707 0)
(1.34111 0.341757 1.40769e-20)
(1.38188 0.363303 7.12282e-21)
(1.34827 0.371469 9.70116e-21)
(1.28787 0.370956 0)
(1.22693 0.367471 8.63864e-21)
(1.16628 0.360881 1.6275e-20)
(1.10604 0.3498 1.41357e-20)
(1.04775 0.332679 2.57586e-20)
(1.00132 0.311774 0)
(0.973369 0.293041 -3.20111e-20)
(0.958341 0.277133 -1.92491e-20)
(0.922385 0.255529 -1.138e-20)
(0.778976 0.209424 6.95416e-20)
(0.51446 0.13548 8.26608e-21)
(0.247331 0.0649669 3.88971e-20)
(0.0644524 0.0178286 -1.84013e-19)
(-0.0190871 -0.00410524 1.09038e-19)
(-0.0149409 -0.00361507 -1.33102e-19)
(0.254602 0.0792292 -4.3867e-21)
(1.15095 0.340504 1.46171e-21)
(1.34652 0.406746 -1.55944e-21)
(1.38529 0.429592 -7.35754e-21)
(1.34857 0.434199 -8.27108e-21)
(1.28575 0.429298 3.63386e-22)
(1.222 0.421368 -9.35032e-21)
(1.15815 0.410345 1.68308e-20)
(1.09447 0.394766 -3.03889e-20)
(1.03267 0.373021 0)
(0.983252 0.347908 -1.45134e-20)
(0.953206 0.325995 -3.17922e-22)
(0.93589 0.307266 -2.10309e-20)
(0.895546 0.281386 0)
(0.75084 0.228902 -1.50472e-20)
(0.495652 0.147736 -3.57229e-20)
(0.240327 0.0712834 9.51778e-20)
(0.062344 0.018513 -9.37672e-20)
(-0.0215362 -0.0062625 1.33333e-19)
(-0.0162769 -0.00476252 -1.40311e-19)
(0.248107 0.0894954 -1.06914e-22)
(1.14713 0.394603 -6.37601e-22)
(1.34629 0.469822 -4.50464e-21)
(1.38347 0.494224 3.00288e-21)
(1.34444 0.495612 -4.17143e-21)
(1.27978 0.486583 0)
(1.21377 0.47444 -8.74522e-21)
(1.14726 0.459164 -1.7634e-20)
(1.08061 0.439209 -1.58077e-20)
(1.01562 0.412919 0)
(0.963401 0.383672 -1.50594e-20)
(0.931241 0.358513 -1.86019e-20)
(0.911756 0.336951 2.27935e-20)
(0.868471 0.307031 -1.37981e-20)
(0.726181 0.249062 -6.56253e-20)
(0.482742 0.161629 3.89479e-20)
(0.239223 0.0790342 1.15579e-20)
(0.0650445 0.0206531 0)
(-0.02016 -0.00735074 -1.28864e-19)
(-0.0165468 -0.00565088 -4.78837e-21)
(0.242878 0.0992095 6.14912e-23)
(1.13968 0.44584 1.00731e-22)
(1.34192 0.53043 2.12558e-21)
(1.37764 0.556507 1.06407e-20)
(1.33686 0.555056 -1.5484e-20)
(1.27079 0.542232 1.79116e-20)
(1.20296 0.526168 1.88345e-20)
(1.13415 0.506891 -2.81879e-20)
(1.06483 0.482768 9.71238e-21)
(0.996915 0.452084 -6.32939e-20)
(0.94207 0.418803 -1.70053e-20)
(0.907856 0.390423 0)
(0.886294 0.366067 2.47325e-20)
(0.840966 0.33241 2.96219e-20)
(0.702939 0.269505 3.5377e-20)
(0.472005 0.176534 -4.23338e-20)
(0.239816 0.0880931 -1.25323e-20)
(0.0701022 0.0242744 1.47194e-20)
(-0.0162213 -0.00718221 0)
(-0.0159213 -0.0061812 -1.04019e-20)
(0.238811 0.108472 -5.468e-21)
(1.13027 0.494294 1.97276e-21)
(1.33467 0.58842 -1.91697e-21)
(1.36884 0.616083 6.50222e-21)
(1.32664 0.612128 -7.02739e-21)
(1.2595 0.595855 -8.31486e-22)
(1.19015 0.576223 -2.05833e-20)
(1.11935 0.55326 -1.02007e-20)
(1.04762 0.525217 -2.74788e-20)
(0.977009 0.490351 6.59559e-23)
(0.919614 0.453125 -5.33517e-20)
(0.883423 0.421661 4.48638e-20)
(0.859909 0.394588 -2.7191e-20)
(0.813087 0.357443 3.2644e-20)
(0.680089 0.289689 0)
(0.461136 0.191873 -2.304e-20)
(0.240468 0.0977912 6.21863e-23)
(0.0757831 0.0289844 -6.43094e-20)
(-0.0110334 -0.0060129 -9.47223e-21)
(-0.014728 -0.00638698 0)
(0.235823 0.117527 0)
(1.11991 0.540189 2.84992e-21)
(1.32546 0.644081 -1.73885e-21)
(1.35786 0.672783 -5.98423e-21)
(1.31449 0.666606 -8.8706e-21)
(1.2465 0.647242 0)
(1.17589 0.624401 -9.40902e-21)
(1.10336 0.598079 -2.12299e-22)
(1.02944 0.566427 5.89456e-20)
(0.956223 0.527594 -8.71978e-21)
(0.896362 0.486576 -3.85406e-20)
(0.858256 0.452103 2.33701e-20)
(0.832914 0.422395 -4.50848e-22)
(0.784775 0.381786 3.4809e-20)
(0.656477 0.309282 2.13051e-20)
(0.448665 0.206986 -4.97313e-20)
(0.239105 0.107546 5.89021e-20)
(0.0804614 0.0342359 1.74665e-20)
(-0.00563657 -0.00408755 7.22227e-20)
(-0.0131763 -0.00629049 -1.95354e-19)
(0.233824 0.126505 -2.90737e-21)
(1.10931 0.583707 3.18978e-21)
(1.31483 0.696885 -1.58342e-21)
(1.34536 0.726553 4.74089e-21)
(1.30097 0.71839 0)
(1.23233 0.696268 -8.3484e-21)
(1.16066 0.670576 3.16213e-20)
(1.08658 0.641235 2.24506e-20)
(1.0106 0.60629 0)
(0.934865 0.563748 -1.25629e-19)
(0.872587 0.519096 1.04407e-19)
(0.832618 0.481668 0)
(0.805538 0.449273 3.18501e-20)
(0.756178 0.405187 -4.46829e-22)
(0.631749 0.327899 -6.85055e-20)
(0.43435 0.221011 2.68029e-20)
(0.235173 0.116795 0)
(0.083182 0.0394587 9.44049e-20)
(-0.00104257 -0.00189361 0)
(-0.0115832 -0.00601634 -9.2603e-20)
(0.232668 0.135449 3.79353e-21)
(1.09888 0.625055 5.05195e-21)
(1.30324 0.746886 -1.32721e-21)
(1.33185 0.777409 0)
(1.28656 0.767467 -7.65663e-21)
(1.21741 0.742899 0)
(1.14483 0.714682 -3.13362e-20)
(1.06933 0.682662 -1.04863e-20)
(0.991431 0.644752 1.04539e-20)
(0.913243 0.598798 -6.22079e-20)
(0.848511 0.550663 1.08068e-20)
(0.806684 0.510249 0)
(0.777941 0.475094 -6.81575e-20)
(0.727275 0.427374 4.28325e-22)
(0.605691 0.345158 0)
(0.417918 0.233469 1.94414e-22)
(0.228468 0.124864 8.63127e-20)
(0.0832654 0.0439779 -8.16274e-20)
(0.00205434 6.00306e-05 2.41677e-20)
(-0.010202 -0.00568869 0)
(0.232009 0.144279 0)
(1.08879 0.664403 6.67446e-21)
(1.29111 0.794187 3.32479e-21)
(1.31775 0.825421 -5.16701e-22)
(1.27164 0.813869 -2.62486e-21)
(1.20208 0.787139 -1.88899e-20)
(1.12871 0.756705 1.17577e-20)
(1.05194 0.72233 -1.23623e-20)
(0.972211 0.681793 4.66672e-20)
(0.891553 0.632735 -9.96934e-20)
(0.824299 0.58127 -8.50781e-22)
(0.780588 0.537816 -2.99224e-20)
(0.750239 0.499746 1.1072e-19)
(0.698234 0.448091 -5.17224e-22)
(0.578889 0.360624 -5.33264e-20)
(0.399485 0.2439 -9.47001e-20)
(0.219327 0.131203 0)
(0.081088 0.0471871 0)
(0.00358576 0.0013838 2.61008e-20)
(-0.00914146 -0.00543286 -1.5501e-20)
(0.231969 0.153148 6.01856e-21)
(1.07931 0.70152 -1.57853e-20)
(1.27874 0.838881 -3.59826e-21)
(1.30335 0.870672 0)
(1.2565 0.857653 -3.11135e-22)
(1.18662 0.829021 -1.74738e-20)
(1.11259 0.796655 2.85492e-20)
(1.03465 0.760229 4.88866e-20)
(0.953148 0.717409 6.08261e-20)
(0.870014 0.665586 -8.16548e-20)
(0.800116 0.610947 -9.02164e-20)
(0.754413 0.564423 8.0155e-20)
(0.722436 0.523134 0)
(0.668974 0.467009 -2.43087e-20)
(0.551377 0.373796 -5.76398e-20)
(0.379474 0.251885 -6.81317e-20)
(0.207992 0.135408 -8.05109e-20)
(0.0768989 0.0488676 2.38351e-20)
(0.0037651 0.00194031 -1.40596e-20)
(-0.00839527 -0.00529126 6.43465e-23)
(0.232159 0.161841 0)
(1.07052 0.736983 0)
(1.26632 0.881067 5.16487e-22)
(1.28889 0.913265 0)
(1.24138 0.898911 6.13415e-21)
(1.17126 0.868604 1.20129e-20)
(1.09666 0.834561 0)
(1.01764 0.796372 5.84287e-21)
(0.934448 0.751603 1.01833e-19)
(0.848823 0.697383 -1.88034e-19)
(0.776098 0.63978 0)
(0.728199 0.590141 -5.17288e-20)
(0.694472 0.545177 -6.06105e-22)
(0.639459 0.483885 -4.52792e-22)
(0.523335 0.384381 6.18115e-20)
(0.357985 0.257165 -2.23902e-24)
(0.194993 0.137252 -1.73485e-19)
(0.0711138 0.048972 5.12772e-20)
(0.00290618 0.0017966 1.52109e-20)
(-0.00788818 -0.00523836 0)
(0.232577 0.170359 -2.5952e-20)
(1.06216 0.770793 -1.1675e-20)
(1.25393 0.920812 -1.33001e-20)
(1.27455 0.953309 7.16562e-21)
(1.22647 0.937714 7.79291e-21)
(1.15617 0.905951 0)
(1.08108 0.870467 1.747e-20)
(1.00109 0.830787 -1.30326e-20)
(0.916275 0.784396 7.97467e-22)
(0.828137 0.728153 1.38707e-20)
(0.752382 0.667874 1.17363e-19)
(0.701981 0.615071 -1.81856e-20)
(0.666241 0.565867 -6.85335e-20)
(0.609545 0.498503 -2.83615e-20)
(0.494826 0.392025 3.35086e-20)
(0.335651 0.259421 2.99088e-23)
(0.18088 0.136644 4.67307e-20)
(0.0643045 0.0475555 -1.10379e-19)
(0.00140929 0.00106927 1.30931e-19)
(-0.00753414 -0.00524745 1.93339e-20)
(0.232849 0.178645 1.0119e-20)
(1.05427 0.803038 -6.75608e-21)
(1.24174 0.958235 1.2954e-21)
(1.26046 0.990927 6.24676e-21)
(1.21188 0.974172 -2.78068e-22)
(1.14147 0.941134 -2.11956e-20)
(1.06599 0.904423 5.12279e-21)
(0.985123 0.863496 -5.44985e-20)
(0.898764 0.81579 -1.12898e-19)
(0.8081 0.757909 -1.12622e-19)
(0.729113 0.695324 0)
(0.675795 0.63934 -8.00082e-20)
(0.637613 0.585313 9.89327e-20)
(0.578976 0.510681 0)
(0.465877 0.396244 -7.18758e-20)
(0.313289 0.258192 4.26723e-20)
(0.166844 0.133403 -5.02766e-20)
(0.0576381 0.0448875 -5.94026e-20)
(-0.000208905 6.744e-06 -1.05484e-19)
(-0.00730457 -0.0053057 -8.32912e-20)
(0.233495 0.186806 -1.17257e-20)
(1.04668 0.833705 7.24309e-21)
(1.22981 0.993401 1.58857e-20)
(1.24672 1.0262 1.01802e-20)
(1.19774 1.00838 1.45238e-21)
(1.12727 0.974239 -1.15835e-20)
(1.05149 0.936481 1.71148e-20)
(0.96983 0.894541 -5.62255e-20)
(0.88201 0.845804 -6.70953e-20)
(0.788848 0.786676 1.18342e-19)
(0.706418 0.722206 2.59036e-19)
(0.649704 0.66311 0)
(0.608461 0.603736 0)
(0.547363 0.520375 -3.26976e-20)
(0.436154 0.396487 0)
(0.291259 0.252484 9.17166e-20)
(0.154549 0.1267 1.08088e-19)
(0.0532163 0.0408181 0)
(-0.000772549 -0.00115377 0)
(-0.00717413 -0.00541463 8.95374e-20)
(0.233818 0.194515 1.36375e-20)
(1.03941 0.862789 1.07211e-20)
(1.21821 1.02642 1.16961e-20)
(1.23341 1.05925 -1.10428e-20)
(1.18411 1.04044 6.91135e-23)
(1.11364 1.00534 1.20155e-20)
(1.03763 0.966699 -2.36108e-20)
(0.955284 0.92395 -1.17273e-22)
(0.866103 0.874447 -1.04392e-21)
(0.770489 0.814455 -9.043e-22)
(0.684445 0.748572 1.33733e-19)
(0.623804 0.68655 0)
(0.578707 0.621433 1.006e-19)
(0.514237 0.52777 6.99929e-20)
(0.404856 0.392449 1.67882e-19)
(0.269156 0.240703 4.94636e-20)
(0.145701 0.113489 -5.81607e-20)
(0.0560352 0.0317512 -3.42561e-20)
(0.00598396 -0.00385468 0)
(-0.00565959 -0.00525281 9.62488e-20)
(0.234515 0.202254 -3.14799e-20)
(1.03243 0.890427 0)
(1.20693 1.05735 1.44496e-20)
(1.22055 1.09015 -9.84971e-21)
(1.17104 1.07046 2.23429e-21)
(1.10061 1.03453 -1.29543e-20)
(1.02447 0.995133 4.61829e-20)
(0.941532 0.951756 -4.55816e-21)
(0.851093 0.901726 0)
(0.753111 0.841223 -1.31408e-19)
(0.663341 0.774447 -2.91832e-19)
(0.598225 0.709835 1.19106e-20)
(0.548369 0.638719 1.3932e-19)
(0.479241 0.533374 0)
(0.370703 0.384549 1.13491e-19)
(0.244484 0.221428 0)
(0.138401 0.08683 0)
(0.0723971 0.00103688 -3.70146e-20)
(0.0469637 -0.0215895 0)
(0.0255056 0.00485238 2.58101e-20)
(0.234788 0.209431 -3.57055e-20)
(1.02571 0.916835 0)
(1.19598 1.08638 2.46825e-20)
(1.2081 1.11916 0)
(1.1585 1.0987 -2.1196e-21)
(1.08813 1.06208 0)
(1.01195 1.02209 2.30654e-21)
(0.928478 0.978296 7.82423e-21)
(0.836856 0.928002 8.48895e-21)
(0.736541 0.867356 -1.44732e-19)
(0.642915 0.800282 8.80166e-21)
(0.572671 0.73364 9.61256e-20)
(0.516948 0.656372 1.36291e-19)
(0.441393 0.537929 1.83145e-20)
(0.331712 0.374279 8.91226e-20)
(0.211925 0.195497 0)
(0.119855 0.0423366 1.22443e-19)
(0.0682076 -0.0360058 -7.19372e-20)
(0.0309214 0.0536191 8.41412e-20)
(-0.0383628 0.45638 -9.99698e-20)
(0.23502 0.216452 2.99014e-20)
(1.01901 0.941889 4.44254e-20)
(1.18527 1.11384 0)
(1.19592 1.14671 1.04203e-21)
(1.1463 1.12575 7.73188e-21)
(1.07592 1.0887 1.5329e-20)
(0.999737 1.04838 1.61712e-20)
(0.915702 1.00451 0)
(0.822853 0.954375 5.64605e-20)
(0.720088 0.894165 -7.5776e-21)
(0.622235 0.827584 0)
(0.545808 0.759674 0)
(0.48235 0.675721 1.22386e-19)
(0.398095 0.541863 -5.65878e-20)
(0.284651 0.363374 -9.04787e-20)
(0.167125 0.165886 0)
(0.0688626 0.060848 6.22049e-20)
(0.00578499 0.462771 -7.23648e-20)
(0.03085 1.92789 -4.08265e-20)
(0.0574474 2.82529 -4.99433e-20)
(0.234903 0.222922 -2.2898e-20)
(1.0124 0.96576 -5.78144e-20)
(1.17481 1.13973 1.51033e-20)
(1.18401 1.17267 1.11806e-20)
(1.13448 1.1514 0)
(1.06408 1.1141 8.36724e-21)
(0.988058 1.07368 2.2185e-20)
(0.903404 1.02997 -3.81528e-21)
(0.809371 0.980328 8.44542e-21)
(0.70415 0.921048 1.38447e-19)
(0.601933 0.855708 1.48717e-19)
(0.518612 0.787743 1.08445e-19)
(0.445364 0.696915 1.23545e-19)
(0.350637 0.544345 -1.33468e-19)
(0.23561 0.355523 -1.36998e-19)
(0.111002 0.219983 0)
(0.0390996 0.885791 0)
(0.0867016 2.58211 3.47015e-20)
(0.0895809 3.21228 0)
(0.0909642 3.38954 9.08919e-20)
(0.237575 0.228967 0)
(1.00615 0.988833 0)
(1.16431 1.16391 0)
(1.17217 1.19692 3.60878e-21)
(1.12272 1.17542 7.6037e-21)
(1.05243 1.13814 3.34853e-21)
(0.976834 1.0979 1.43077e-20)
(0.891515 1.05454 -3.73915e-21)
(0.796346 1.00569 7.09837e-20)
(0.688715 0.947841 -1.80053e-21)
(0.582101 0.884457 2.94874e-19)
(0.491457 0.817889 -1.25403e-20)
(0.405878 0.720772 1.50694e-20)
(0.301002 0.543535 1.93728e-20)
(0.176094 0.373301 -5.38013e-22)
(0.0902932 1.01475 3.49589e-22)
(0.123825 2.76346 -1.83472e-19)
(0.128595 3.3014 -6.9525e-20)
(0.119211 3.42386 3.70922e-20)
(0.108828 3.44369 -4.20294e-20)
(0.160921 0.174692 1.4293e-20)
(0.995818 1.01384 0)
(1.15359 1.18657 -3.21168e-20)
(1.16081 1.21989 -3.20146e-20)
(1.11146 1.19827 2.14771e-20)
(1.04163 1.1613 -2.4116e-21)
(0.965889 1.12101 -1.48531e-20)
(0.880066 1.07829 4.21869e-20)
(0.783852 1.03054 -5.85627e-20)
(0.674002 0.974662 0)
(0.563026 0.913903 1.45853e-19)
(0.464891 0.849857 -8.8994e-20)
(0.366196 0.750384 0)
(0.242992 0.543453 1.88004e-20)
(0.129388 0.759631 4.46718e-20)
(0.138397 2.56671 -5.07964e-20)
(0.186397 3.32878 5.78728e-20)
(0.169093 3.43448 3.14042e-20)
(0.140518 3.45323 3.58852e-20)
(0.121353 3.4619 5.77052e-20)
(0.272471 0.267144 -2.74129e-20)
(0.978864 1.02446 0)
(1.13572 1.21274 3.54782e-20)
(1.14634 1.25115 3.67295e-20)
(1.09407 1.23202 -2.63727e-20)
(1.02365 1.19542 -2.6714e-21)
(0.946727 1.15669 1.41368e-20)
(0.86034 1.11528 3.30138e-21)
(0.762682 1.06981 5.61086e-20)
(0.649821 1.01812 1.20963e-19)
(0.533034 0.963784 8.24869e-21)
(0.423121 0.904121 7.95255e-20)
(0.292796 0.785938 1.43105e-20)
(0.204164 0.929353 -1.81382e-20)
(0.209871 2.44208 -4.10523e-20)
(0.260992 3.33333 4.10334e-20)
(0.243988 3.46028 -4.53123e-20)
(0.209819 3.4789 -2.62146e-20)
(0.176242 3.50321 -2.43258e-20)
(0.13121 3.49799 -3.53074e-21)
(0.262822 0.266132 0)
(0.976224 1.04754 1.07797e-20)
(1.12713 1.23653 -7.45603e-21)
(1.13537 1.27488 -4.54638e-21)
(1.08303 1.25544 -1.91894e-20)
(1.01259 1.21903 3.74944e-21)
(0.935349 1.18053 -7.40097e-21)
(0.848705 1.13998 2.97189e-21)
(0.750402 1.09605 -5.86394e-20)
(0.636017 1.04736 -2.80989e-21)
(0.51594 0.998007 -2.6502e-19)
(0.399738 0.941151 1.13763e-20)
(0.276021 0.859368 -1.3592e-20)
(0.239287 1.54651 -1.67695e-20)
(0.301924 3.14366 3.67272e-21)
(0.315036 3.46249 2.58739e-22)
(0.273559 3.50949 6.90457e-20)
(0.239646 3.53244 3.56041e-20)
(0.193969 3.55227 -1.2632e-20)
(0.144057 3.54868 -1.82406e-20)
(0.248926 0.264287 2.80271e-20)
(0.972686 1.07321 7.35611e-20)
(1.11821 1.2624 -2.13553e-20)
(1.12403 1.30023 -1.70936e-20)
(1.07152 1.28032 0)
(1.00116 1.24395 1.19978e-20)
(0.923878 1.20573 -7.55759e-21)
(0.837231 1.166 2.61808e-21)
(0.738595 1.12371 -6.53004e-21)
(0.623225 1.07829 -1.10207e-19)
(0.500776 1.03451 -1.22722e-19)
(0.379361 0.979854 -9.36684e-20)
(0.278002 1.00365 -1.0253e-19)
(0.304527 2.31126 1.05809e-19)
(0.382388 3.3903 9.09379e-20)
(0.354189 3.51938 0)
(0.306156 3.55574 0)
(0.26954 3.58909 -1.00695e-20)
(0.225477 3.63411 0)
(0.15607 3.61843 -1.68554e-20)
(0.239169 0.266338 -4.23008e-20)
(0.96723 1.09978 -6.29226e-20)
(1.10791 1.28953 0)
(1.11144 1.32642 1.26632e-21)
(1.05879 1.30587 -2.26391e-20)
(0.988665 1.26945 2.25174e-20)
(0.911665 1.23155 -2.99581e-21)
(0.82524 1.19256 1.55444e-21)
(0.726529 1.15188 -4.18484e-20)
(0.610614 1.10976 5.54052e-21)
(0.486728 1.07163 0)
(0.360867 1.02272 0)
(0.300802 1.29493 -9.35438e-20)
(0.38325 2.97367 3.83686e-20)
(0.44737 3.48993 4.98721e-20)