/*--------------------------------*- C++ -*----------------------------------*\
  =========                 |
  \\      /  F ield         | OpenFOAM: The Open Source CFD Toolbox
   \\    /   O peration     | Website:  https://openfoam.org
    \\  /    A nd           | Version:  6
     \\/     M anipulation  |
\*---------------------------------------------------------------------------*/
FoamFile
{
    version     2.0;
    format      ascii;
    class       surfaceScalarField;
    location    "2.4";
    object      phi;
}
// * * * * * * * * * * * * * * * * * * * * * * * * * * * * * * * * * * * * * //

dimensions      [0 3 -1 0 0 0 0];

internalField   nonuniform List<scalar> 
17370
(
-0.0894316
0.0925056
0.285937
-0.0755378
0.0584819
0.363831
-0.0424718
0.0314519
0.427188
-0.0219071
0.0155781
0.505581
-0.0102556
0.00693603
0.602722
-0.00423639
0.00282559
0.720468
-0.00186996
0.00152787
0.863249
-0.0011322
0.000973765
1.03561
-0.000693106
0.000517243
1.24268
-0.000242779
2.7131e-05
1.49141
0.000189529
-0.000466149
1.49147
0.000644858
-0.000927461
1.24297
0.00108893
-0.00147556
1.03602
0.00183563
-0.00278928
0.86386
0.00419263
-0.0069122
0.721777
0.0102375
-0.0155674
0.604544
0.0218992
-0.0314542
0.508994
0.0424805
-0.0584912
0.432179
0.0755451
-0.0925084
0.363739
0.0894375
0.199573
-0.136662
0.108806
0.0278567
-0.363761
0.356848
-0.0461775
0.0530907
-0.443763
0.445058
-0.0536951
0.0524001
-0.519621
0.523206
-0.0499706
0.0463848
-0.61203
0.617269
-0.0419001
0.0366612
-0.726452
0.731363
-0.031718
0.0268068
-0.867014
0.871096
-0.0225062
0.0184244
-1.03843
1.04156
-0.0150359
0.0119121
-1.24485
1.24743
-0.00924664
0.00666851
-1.49314
1.49552
-0.00436981
0.0019967
-1.493
1.49527
0.00028278
-0.00255449
-1.24429
1.24656
0.00490512
-0.00717431
-1.03758
1.04022
0.00971006
-0.0123514
-0.865812
0.869177
0.0154394
-0.0188038
-0.723956
0.728215
0.0228493
-0.0271086
-0.608278
0.613183
0.0319658
-0.0368714
-0.513946
0.518402
0.0420717
-0.0465281
-0.438109
0.440519
0.0500812
-0.0524909
-0.371799
0.37118
0.0537664
-0.0531479
-0.261289
0.242944
0.0462173
-0.0278726
-0.096989
0.0921178
0.00487123
-0.0193819
0.0236147
-0.368665
0.364432
-0.0267585
0.028703
-0.439994
0.438049
-0.029795
0.0299922
-0.519194
0.518997
-0.029008
0.0276196
-0.614977
0.616365
-0.0255631
0.0233847
-0.731271
0.733449
-0.0206122
0.0179408
-0.87243
0.875102
-0.0148308
0.0119793
-1.04317
1.04602
-0.00877086
0.00584011
-1.24931
1.25224
-0.00248093
-0.000715501
-1.49807
1.50127
0.00389513
-0.00720456
-1.49836
1.50167
0.0100679
-0.0131905
-1.25032
1.25344
0.0159459
-0.0189612
-1.04471
1.04773
0.0215343
-0.0241964
-0.874465
0.877127
0.0262786
-0.0282372
-0.733966
0.735925
0.0295387
-0.0304235
-0.618169
0.619054
0.0301323
-0.0289722
-0.523318
0.522158
0.0269817
-0.0237898
-0.44315
0.439958
0.0195114
-0.0128875
-0.351129
0.344505
0.00490252
-0.0969385
0.092036
-0.0918342
0.092434
-0.000599843
-0.00264288
0.00572653
-0.359381
0.356297
-0.00931403
0.0122597
-0.43484
0.431895
-0.0148618
0.0165397
-0.517904
0.516226
-0.0175555
0.0177332
-0.617012
0.616835
-0.0172897
0.0164451
-0.735174
0.736019
-0.0151413
0.01365
-0.877445
0.878936
-0.0117057
0.00967832
-1.04865
1.05068
-0.00721715
0.0047765
-1.25507
1.25751
-0.00189453
-0.000945028
-1.50444
1.50728
0.00376169
-0.00657534
-1.5049
1.50771
0.00892585
-0.0112633
-1.25635
1.25869
0.01317
-0.0149798
-1.05039
1.0522
0.0163526
-0.0175361
-0.879324
0.880508
0.0182796
-0.0186095
-0.737227
0.737557
0.0183156
-0.0171552
-0.618938
0.617777
0.0153614
-0.0126368
-0.519845
0.51712
0.00959035
-0.00591837
-0.435285
0.431613
0.00276414
-0.000171663
-0.339043
0.336451
-0.000589306
-0.0917254
0.0923147
-0.0923501
0.0920683
0.000281853
-0.00179333
0.00295375
-0.354562
0.353401
-0.0043467
0.00563368
-0.430013
0.428726
-0.00697804
0.00809965
-0.514696
0.513574
-0.00913158
0.00983691
-0.615932
0.615226
-0.0102715
0.0103447
-0.736067
0.735993
-0.0100311
0.00938838
-0.879964
0.880607
-0.00830829
0.00701424
-1.05244
1.05373
-0.00528466
0.00347153
-1.25978
1.26159
-0.00122147
-0.00106827
-1.50997
1.51226
0.00335201
-0.00554184
-1.51035
1.51254
0.00723538
-0.00881281
-1.26079
1.26237
0.00996775
-0.0108867
-1.05361
1.05453
0.01138
-0.0115359
-0.880949
0.881105
0.0113221
-0.0107394
-0.736893
0.73631
0.00990442
-0.00874703
-0.616276
0.615118
0.00751973
-0.00607103
-0.515114
0.513665
0.00469631
-0.00320827
-0.429402
0.427914
0.00196388
-0.000897613
-0.335
0.333933
0.000310899
-0.0922077
0.0918968
-0.0919202
0.091828
9.22613e-05
-0.000864407
0.00141888
-0.352592
0.352037
-0.00209777
0.00274454
-0.427797
0.42715
-0.00344623
0.00405165
-0.512743
0.512138
-0.00464712
0.00509789
-0.61466
0.61421
-0.00544827
0.0056044
-0.735867
0.735711
-0.00556244
0.00530772
-0.881017
0.881271
-0.00477116
0.00404172
-1.0547
1.05543
-0.00297737
0.00177791
-1.26309
1.26429
-0.000250143
-0.0012968
-1.51411
1.51566
0.00279622
-0.00421965
-1.5143
1.51572
0.00529164
-0.00619074
-1.26358
1.26448
0.00675614
-0.00710641
-1.05511
1.05546
0.00718923
-0.00704454
-0.881087
0.880943
0.00672212
-0.00619672
-0.735758
0.735233
0.00559367
-0.00483995
-0.614192
0.613439
0.00409891
-0.00325818
-0.512551
0.51171
0.00249549
-0.00170304
-0.426826
0.426034
0.00105506
-0.000475277
-0.333142
0.332562
0.000125782
-0.0917167
0.0915909
-0.0917504
0.0916964
5.39613e-05
-0.000423175
0.000686603
-0.351658
0.351394
-0.00100765
0.00131605
-0.426706
0.426398
-0.00165878
0.00196523
-0.511704
0.511398
-0.0022787
0.00252728
-0.613866
0.613617
-0.00273493
0.00284255
-0.735567
0.73546
-0.00284345
0.00271511
-0.88144
0.881568
-0.00240958
0.00196759
-1.05599
1.05643
-0.00129625
0.000520491
-1.26525
1.26602
0.000496466
-0.00154372
-1.51694
1.51798
0.00256145
-0.0034681
-1.51687
1.51778
0.00409115
-0.00455846
-1.26514
1.2656
0.00479807
-0.00487336
-1.05565
1.05572
0.00478993
-0.0045606
-0.880736
0.880506
0.00425142
-0.00383307
-0.734758
0.734339
0.00340278
-0.00290305
-0.612828
0.612329
0.00243862
-0.00193556
-0.511073
0.51057
0.00149237
-0.00103592
-0.425447
0.42499
0.000658965
-0.000313751
-0.332125
0.33178
9.58181e-05
-0.0914759
0.0913801
-0.0916638
0.0916472
1.65213e-05
-0.00016354
0.000276583
-0.351216
0.351103
-0.00041581
0.000549617
-0.426188
0.426054
-0.00069813
0.000829796
-0.511189
0.511057
-0.00096195
0.00106219
-0.613449
0.613349
-0.00113675
0.00115911
-0.735395
0.735372
-0.00111651
0.001001
-0.881682
0.881798
-0.000773552
0.000462831
-1.05679
1.0571
-1.08094e-06
-0.000527773
-1.26666
1.26719
0.00121195
-0.00189944
-1.51883
1.51952
0.0025406
-0.00308449
-1.51848
1.51903
0.00342601
-0.00363946
-1.26593
1.26614
0.00370401
-0.00364918
-1.05572
1.05567
0.00350461
-0.00326698
-0.880271
0.880033
0.00299752
-0.00266499
-0.73397
0.733637
0.0023426
-0.00198286
-0.61191
0.61155
0.00165811
-0.00131389
-0.510159
0.509815
0.00101526
-0.000709739
-0.424622
0.424317
0.000456752
-0.000221506
-0.331499
0.331264
6.89704e-05
-0.0913008
0.0912319
-0.0916435
0.0916508
-7.35269e-06
8.56429e-07
1.90662e-05
-0.351041
0.351021
-4.6663e-05
7.15395e-05
-0.42598
0.425955
-9.55312e-05
0.000111571
-0.510988
0.510972
-0.00011847
0.000109955
-0.613306
0.613315
-7.74845e-05
1.91417e-05
-0.735391
0.73545
8.5777e-05
-0.000227938
-0.881924
0.882066
0.000444286
-0.000703318
-1.05738
1.05764
0.00105822
-0.00144232
-1.26764
1.26802
0.00191527
-0.00236532
-1.52008
1.52053
0.00275687
-0.00305605
-1.51944
1.51974
0.0032124
-0.00325723
-1.26626
1.26631
0.00320737
-0.0030708
-1.05557
1.05543
0.0028889
-0.00264496
-0.879793
0.87955
0.00239576
-0.00210726
-0.733331
0.733043
0.00183925
-0.00154903
-0.611232
0.610942
0.00129249
-0.00102466
-0.509517
0.509249
0.000794683
-0.000560574
-0.424054
0.42382
0.000366026
-0.000181872
-0.331059
0.330875
5.83513e-05
-0.0911695
0.0911111
-0.0916688
0.0916958
-2.70138e-05
0.000116893
-0.000160985
-0.351035
0.351079
0.000215052
-0.000269752
-0.425974
0.426028
0.000337224
-0.000407556
-0.511002
0.511073
0.000496604
-0.000591667
-0.613369
0.613464
0.000714513
-0.000847621
-0.735546
0.735679
0.00102099
-0.00120839
-0.882229
0.882416
0.00144937
-0.00170302
-1.05789
1.05815
0.002016
-0.00232561
-1.26836
1.26867
0.00267434
-0.00297313
-1.52089
1.52119
0.00319711
-0.00332201
-1.51994
1.52007
0.00333227
-0.00327186
-1.2663
1.26624
0.00313994
-0.00293882
-1.05526
1.05506
0.00271927
-0.00245421
-0.879297
0.879032
0.00220071
-0.00191981
-0.732762
0.732481
0.00166694
-0.00139912
-0.610668
0.6104
0.0011662
-0.000925789
-0.509
0.508759
0.000720899
-0.000513039
-0.423603
0.423396
0.000339492
-0.000172282
-0.330703
0.330536
5.66095e-05
-0.0910545
0.0909979
-0.0917312
0.0917761
-4.4804e-05
0.000230455
-0.000330797
-0.351153
0.351253
0.000448991
-0.000566995
-0.426114
0.426232
0.00070883
-0.000851006
-0.511179
0.511321
0.00102221
-0.00119412
-0.613598
0.61377
0.00140096
-0.00160806
-0.735849
0.736056
0.00185606
-0.00210197
-0.882631
0.882877
0.00239159
-0.00267085
-1.05841
1.05869
0.00298577
-0.00326897
-1.26896
1.26924
0.0035537
-0.00376076
-1.52144
1.52165
0.00387405
-0.00388032
-1.52013
1.52013
0.00379693
-0.00362174
-1.26612
1.26594
0.00341202
-0.00314297
-1.05483
1.05456
0.00287483
-0.00256905
-0.878749
0.878444
0.00228775
-0.00198465
-0.732193
0.73189
0.00171723
-0.0014382
-0.61013
0.609851
0.00119813
-0.000952224
-0.50852
0.508274
0.000743762
-0.000532793
-0.423189
0.422978
0.000356067
-0.000183445
-0.330368
0.330196
6.12747e-05
-0.0909397
0.0908784
-0.0918299
0.0918932
-6.32813e-05
0.000336041
-0.000489617
-0.35138
0.351533
0.000671974
-0.000853288
-0.426382
0.426563
0.00106948
-0.00128383
-0.511499
0.511713
0.00153828
-0.00178915
-0.61398
0.614231
0.00208439
-0.00237227
-0.736302
0.73659
0.00270622
-0.00302527
-0.883158
0.883477
0.00338507
-0.003715
-1.05899
1.05932
0.00406518
-0.00435703
-1.26953
1.26982
0.00461966
-0.00477404
-1.52182
1.52198
0.00480942
-0.00471825
-1.52009
1.52
0.00454277
-0.00427482
-1.26572
1.26545
0.00398374
-0.00363385
-1.05425
1.0539
0.00330024
-0.00293114
-0.878109
0.87774
0.00259905
-0.002247
-0.731565
0.731213
0.00194014
-0.00162288
-0.609556
0.609239
0.00135174
-0.00107536
-0.508015
0.507739
0.000841799
-0.000605753
-0.422757
0.422521
0.000407468
-0.00021199
-0.330014
0.329818
7.15463e-05
-0.0908126
0.0907411
-0.0919667
0.0920515
-8.47581e-05
0.000456393
-0.000668261
-0.351715
0.351927
0.000920187
-0.0011703
-0.426778
0.427028
0.00146769
-0.00176144
-0.511966
0.51226
0.00210835
-0.00244816
-0.614525
0.614865
0.00284463
-0.00322699
-0.736923
0.737305
0.00366453
-0.00407548
-0.883839
0.88425
0.00452911
-0.00493399
-1.05968
1.06009
0.00534869
-0.0056773
-1.27013
1.27046
0.00594861
-0.00607548
-1.52211
1.52224
0.00605101
-0.0058719
-1.51986
1.51968
0.00560523
-0.00523436
-1.26514
1.26476
0.00484972
-0.00440062
-1.05351
1.05306
0.00398111
-0.00352401
-0.87733
0.876873
0.00311745
-0.00269011
-0.730827
0.7304
0.00232006
-0.00193927
-0.608893
0.608512
0.00161499
-0.00128529
-0.507439
0.507109
0.00100719
-0.000726375
-0.422265
0.421984
0.000490216
-0.000256279
-0.329605
0.329371
8.69236e-05
-0.0906625
0.0905756
-0.0921487
0.0922599
-0.000111198
0.000601401
-0.00088203
-0.352172
0.352452
0.00121584
-0.00154707
-0.427317
0.427648
0.00194044
-0.00232834
-0.512598
0.512986
0.00278542
-0.00323174
-0.615255
0.615701
0.00375043
-0.0042481
-0.737742
0.73824
0.00481383
-0.00534071
-0.884715
0.885242
0.00591598
-0.00642213
-1.06054
1.06105
0.00693027
-0.00732097
-1.27081
1.2712
0.00762521
-0.00774112
-1.52236
1.52248
0.00766428
-0.007395
-1.51946
1.51919
0.00702755
-0.00653546
-1.26434
1.26384
0.00603634
-0.00546188
-1.05255
1.05197
0.00493094
-0.00435694
-0.876361
0.875787
0.00384938
-0.00331832
-0.729924
0.729393
0.00286006
-0.00238974
-0.60809
0.60762
0.00199004
-0.00158421
-0.506744
0.506339
0.00124226
-0.000897089
-0.421674
0.421329
0.000606535
-0.000317929
-0.329112
0.328823
0.000108124
-0.0904788
0.0903707
-0.0923868
0.0925313
-0.000144527
0.000782235
-0.00114786
-0.352773
0.353139
0.00158275
-0.00201408
-0.428026
0.428458
0.00252598
-0.0030303
-0.513429
0.513933
0.00362381
-0.00420241
-0.61621
0.616789
0.00487339
-0.00551539
-0.738806
0.739448
0.00624257
-0.00691663
-0.885838
0.886512
0.00764814
-0.00828641
-1.06162
1.06225
0.00891974
-0.00939772
-1.27163
1.27211
0.00975612
-0.00987145
-1.52259
1.52271
0.00974132
-0.00936928
-1.51887
1.5185
0.00888153
-0.00824061
-1.26328
1.26264
0.00759788
-0.006864
-1.05133
1.05059
0.00618952
-0.00546351
-0.875142
0.874416
0.00482358
-0.00415574
-0.728798
0.72813
0.00358046
-0.00299096
-0.607094
0.606504
0.0024904
-0.00198268
-0.505885
0.505377
0.00155508
-0.00112358
-0.420943
0.420512
0.000760205
-0.000398825
-0.328501
0.32814
0.000135702
-0.0902497
0.090114
-0.0926958
0.0928833
-0.000187416
0.00101277
-0.00148588
-0.353555
0.354028
0.00204857
-0.00260654
-0.428948
0.429506
0.00326838
-0.00391995
-0.514507
0.515158
0.00468607
-0.00543213
-0.617446
0.618192
0.00629597
-0.00712094
-0.740175
0.741
0.00805304
-0.0089144
-0.887274
0.888136
0.00984524
-0.0106531
-1.06297
1.06378
0.0114482
-0.0120407
-1.27264
1.27324
0.0124729
-0.0125931
-1.52282
1.52294
0.0124009
-0.0119032
-1.51807
1.51757
0.0112659
-0.0104378
-1.26191
1.26108
0.00961329
-0.00867627
-1.04976
1.04883
0.00781814
-0.00689676
-0.873599
0.872677
0.00608629
-0.00524165
-0.72738
0.726535
0.00451496
-0.00377084
-0.605843
0.605098
0.00313947
-0.0024993
-0.504808
0.504168
0.00196032
-0.00141648
-0.420028
0.419484
0.0009585
-0.000502926
-0.327734
0.327279
0.00017112
-0.0899617
0.0897906
-0.0930967
0.09334
-0.000243305
0.00131066
-0.00192183
-0.354566
0.355177
0.00264848
-0.00336877
-0.43014
0.430861
0.00422275
-0.00506301
-0.515898
0.516739
0.00605019
-0.00701045
-0.619038
0.619999
0.00812086
-0.0091795
-0.741935
0.742994
0.0103731
-0.011473
-0.889109
0.890209
0.0126574
-0.0136803
-1.06469
1.06571
0.0146803
-0.0154173
-1.2739
1.27463
0.0159424
-0.0160679
-1.52307
1.52319
0.0157961
-0.0151386
-1.517
1.51634
0.0143111
-0.0132449
-1.26014
1.25908
0.0121889
-0.0109929
-1.04777
1.04657
0.00990041
-0.00872953
-0.871639
0.870468
0.00770104
-0.00663033
-0.725584
0.724514
0.00570987
-0.00476796
-0.604261
0.603319
0.00396913
-0.00315944
-0.503448
0.502638
0.00247789
-0.00179026
-0.418873
0.418185
0.00121123
-0.000635257
-0.326766
0.32619
0.000215945
-0.0895984
0.0893824
-0.0936176
0.0939346
-0.000316974
0.00169959
-0.00248976
-0.355871
0.356662
0.00342892
-0.00435944
-0.431679
0.43261
0.00546201
-0.00654603
-0.517693
0.518777
0.00781841
-0.00905469
-0.621088
0.622324
0.0104821
-0.0118403
-0.744193
0.745551
0.0133678
-0.0147712
-0.891452
0.892855
0.0162766
-0.01757
-1.06686
1.06816
0.0188253
-0.0197399
-1.27546
1.27637
0.0203748
-0.0204994
-1.52332
1.52344
0.02012
-0.0192541
-1.51559
1.51472
0.018182
-0.0168114
-1.25787
1.2565
0.0154602
-0.013935
-1.04522
1.04369
0.0125446
-0.0110569
-0.869148
0.86766
0.00975153
-0.00839371
-0.723308
0.72195
0.00722709
-0.00603384
-0.602259
0.601066
0.00502218
-0.00399704
-0.501727
0.500702
0.0031343
-0.00226403
-0.417411
0.416541
0.0015313
-0.00080266
-0.325543
0.324814
0.000272574
-0.0891398
0.0888672
-0.094297
0.0947124
-0.000415341
0.00221281
-0.00323727
-0.357561
0.358585
0.00445427
-0.00565924
-0.433668
0.434873
0.00708594
-0.00848731
-0.520009
0.52141
0.0101301
-0.0117236
-0.623727
0.625321
0.0135598
-0.0153028
-0.747089
0.748832
0.0172571
-0.0190456
-0.89444
0.896228
0.0209546
-0.0225844
-1.06961
1.07124
0.0241522
-0.0252784
-1.27739
1.27851
0.0260353
-0.0261422
-1.52356
1.52367
0.0256125
-0.0244722
-1.51373
1.51259
0.0230839
-0.0213239
-1.25494
1.25318
0.0195973
-0.0176541
-1.04197
1.04003
0.0158866
-0.0139979
-0.865984
0.864095
0.0123424
-0.0106216
-0.720421
0.7187
0.0091438
-0.0076328
-0.599723
0.598212
0.00635209
-0.00505453
-0.499549
0.498251
0.00396268
-0.00286141
-0.415562
0.414461
0.00193437
-0.00101298
-0.323995
0.323073
0.000343434
-0.0885611
0.0882177
-0.0951894
0.0957383
-0.000548993
0.00289948
-0.00423395
-0.359754
0.361088
0.00581804
-0.00738488
-0.436246
0.437813
0.00923799
-0.0110557
-0.523006
0.524823
0.0131828
-0.0152417
-0.627132
0.629191
0.0176075
-0.0198454
-0.750807
0.753045
0.022344
-0.0246186
-0.898246
0.90052
0.0270304
-0.0290721
-1.07306
1.07511
0.0310129
-0.0323811
-1.27976
1.28112
0.0332603
-0.0333158
-1.52376
1.52381
0.0325723
-0.0310679
-1.51128
1.50977
0.0292711
-0.0270142
-1.25119
1.24893
0.0248118
-0.0223411
-1.03784
1.03537
0.0200982
-0.0177045
-0.861968
0.859575
0.0156081
-0.0134301
-0.716764
0.714586
0.0115604
-0.00964903
-0.596513
0.594601
0.00802919
-0.00638815
-0.496792
0.495151
0.0050073
-0.00361454
-0.413222
0.41183
0.00244225
-0.00127766
-0.322037
0.320873
0.00043247
-0.0878322
0.0873998
-0.0963725
0.0971074
-0.000734985
0.00383549
-0.0055861
-0.362615
0.364365
0.00766178
-0.00971194
-0.439604
0.441654
0.0121326
-0.014502
-0.526897
0.529267
0.0172674
-0.0199354
-0.631533
0.634201
0.0229887
-0.0258627
-0.755581
0.758455
0.0290518
-0.0319335
-0.903082
0.905964
0.0349605
-0.0374929
-1.07738
1.07992
0.0398609
-0.0414869
-1.28262
1.28425
0.0424646
-0.0424068
-1.52382
1.52376
0.0413566
-0.0393692
-1.50804
1.50606
0.037047
-0.0341606
-1.24638
1.24349
0.0313602
-0.0282289
-1.03258
1.02945
0.0253916
-0.0223665
-0.856883
0.853858
0.0197181
-0.016967
-0.712137
0.709386
0.0146052
-0.0121905
-0.592453
0.590038
0.0101438
-0.00806988
-0.493306
0.491232
0.00632458
-0.00456402
-0.410264
0.408503
0.00308216
-0.00161075
-0.319564
0.318092
0.000544276
-0.0869146
0.0863703
-0.0979643
0.0989667
-0.0010024
0.00514674
-0.00746852
-0.366377
0.368699
0.0102157
-0.0129222
-0.444006
0.446713
0.0161088
-0.019218
-0.531979
0.535088
0.022832
-0.0263016
-0.637243
0.640712
0.0302482
-0.0339354
-0.761712
0.765399
0.0379899
-0.0416134
-0.9092
0.912823
0.0453686
-0.0484576
-1.08272
1.08581
0.0512792
-0.0531437
-1.286
1.28786
0.05415
-0.0538722
-1.52361
1.52333
0.0523819
-0.049757
-1.50377
1.50115
0.0467661
-0.0430935
-1.24024
1.23656
0.0395523
-0.0356054
-1.02593
1.02199
0.0320337
-0.0282268
-0.850462
0.846655
0.0248929
-0.0214275
-0.706297
0.702832
0.0184505
-0.0154045
-0.587325
0.584279
0.0128208
-0.0102011
-0.488901
0.486281
0.00799525
-0.00576899
-0.406524
0.404298
0.00389455
-0.00203366
-0.316438
0.314577
0.000686228
-0.0857594
0.0850732
-0.100154
0.101563
-0.00140878
0.00707348
-0.0102094
-0.371379
0.374515
0.0139008
-0.0175188
-0.449836
0.453454
0.0217563
-0.0258691
-0.538665
0.542778
0.0306192
-0.0351449
-0.644678
0.649203
0.0402437
-0.0449528
-0.769571
0.77428
0.0500591
-0.0545487
-0.916867
0.921356
0.05911
-0.0627717
-1.08919
1.09285
0.066004
-0.0680169
-1.28982
1.29183
0.0689029
-0.0682314
-1.52289
1.52222
0.0661143
-0.0626576
-1.49813
1.49468
0.0588306
-0.0541962
-1.23243
1.2278
0.0497589
-0.0448281
-1.01757
1.01264
0.0403687
-0.0356117
-0.842394
0.837637
0.0314388
-0.0270924
-0.698948
0.694601
0.0233505
-0.0195142
-0.580859
0.577022
0.0162542
-0.0129433
-0.483336
0.480025
0.0101508
-0.00732803
-0.401794
0.398971
0.00494793
-0.00258337
-0.312484
0.31012
0.000871435
-0.0843005
0.0834291
-0.103268
0.105377
-0.00210904
0.0102091
-0.0145738
-0.378139
0.382504
0.0196327
-0.0245318
-0.457677
0.462577
0.0302168
-0.0356892
-0.547561
0.553034
0.0419464
-0.0478357
-0.654394
0.660283
0.0543713
-0.0602993
-0.779582
0.78551
0.0665917
-0.0719925
-0.926303
0.931704
0.0773236
-0.0814553
-1.09677
1.1009
0.0849175
-0.0868673
-1.29385
1.2958
0.0873626
-0.0860312
-1.52125
1.51992
0.0830354
-0.0785128
-1.49072
1.4862
0.0736667
-0.067893
-1.22262
1.21684
0.0624102
-0.0563378
-1.00715
1.00108
0.0508468
-0.0449771
-0.832339
0.826469
0.0398107
-0.0344065
-0.68974
0.684336
0.0297332
-0.0249202
-0.572711
0.567898
0.0208126
-0.0166231
-0.476295
0.472105
0.0130732
-0.00946727
-0.395795
0.392189
0.00640916
-0.00335418
-0.307462
0.304407
0.00113452
-0.0824413
0.0813068
-0.107906
0.111579
-0.00367313
0.0163397
-0.0226041
-0.387559
0.393823
0.0295873
-0.0362211
-0.468517
0.475151
0.0438093
-0.0510361
-0.559561
0.566787
0.0591758
-0.0666901
-0.667053
0.674568
0.0748394
-0.0820342
-0.792084
0.799279
0.0894371
-0.0955783
-0.937498
0.943639
0.101398
-0.105678
-1.10515
1.10943
0.108968
-0.110466
-1.29757
1.29907
0.110143
-0.107777
-1.51812
1.51576
0.103582
-0.0977296
-1.48104
1.47519
0.0916812
-0.084615
-1.21044
1.20337
0.0779769
-0.0706594
-0.994391
0.987073
0.0640504
-0.0569718
-0.819985
0.812906
0.0507167
-0.0441353
-0.678311
0.67173
0.038405
-0.0324608
-0.562464
0.55652
0.0273471
-0.0220802
-0.467332
0.462065
0.0175628
-0.0129103
-0.388109
0.383456
0.00887456
-0.00470733
-0.301025
0.296857
0.00161639
-0.0800276
0.0784113
-0.115372
0.123337
-0.00796515
0.0307575
-0.0395733
-0.401566
0.410382
0.048589
-0.0571451
-0.483981
0.492537
0.0669214
-0.0761133
-0.575661
0.584853
0.0862452
-0.0953149
-0.683027
0.692096
0.104809
-0.112882
-0.806895
0.814968
0.120848
-0.127146
-0.949859
0.956157
0.132787
-0.136576
-1.11349
1.11728
0.139029
-0.139471
-1.30008
1.30052
0.137749
-0.133864
-1.51266
1.50877
0.128095
-0.120645
-1.46854
1.46109
0.113226
-0.104779
-1.1956
1.18715
0.0969518
-0.0883998
-0.979111
0.970559
0.0807098
-0.0724907
-0.805177
0.796958
0.0652232
-0.0575518
-0.664427
0.656756
0.0508418
-0.0438462
-0.549723
0.542727
0.0377795
-0.03145
-0.455866
0.449537
0.0259212
-0.0200126
-0.377998
0.372089
0.0143652
-0.00780077
-0.292518
0.285954
0.00266272
-0.0767812
0.0741185
-0.131899
0.134083
-0.00218386
0.0174584
-0.0260055
-0.423532
0.432079
0.0356338
-0.0452257
-0.505017
0.514609
0.0563793
-0.0673682
-0.595526
0.606515
0.0791334
-0.0895552
-0.701282
0.711704
0.101046
-0.111169
-0.822617
0.83274
0.121624
-0.130555
-0.961792
0.970723
0.139374
-0.146401
-1.12021
1.12724
0.152578
-0.156582
-1.29996
1.30397
0.158595
-0.157823
-1.50378
1.50301
0.154148
-0.147969
-1.45265
1.44647
0.140784
-0.131664
-1.17793
1.16881
0.122751
-0.112049
-0.961373
0.950671
0.102143
-0.091119
-0.788122
0.777098
0.0811169
-0.0703269
-0.648325
0.637535
0.0604906
-0.0503144
-0.534637
0.524461
0.0417073
-0.0325209
-0.441741
0.432555
0.0246766
-0.0165171
-0.364776
0.356616
0.00918576
-0.00291524
-0.27978
0.27351
-0.000288956
-0.071382
0.071671
-0.142173
0.136707
0.00546558
-0.00263515
-0.00353166
-0.445121
0.451288
0.0122358
-0.020676
-0.526336
0.534776
0.0308275
-0.0401782
-0.617218
0.626569
0.0506255
-0.0601106
-0.722125
0.731611
0.0702186
-0.0793502
-0.842505
0.851637
0.0888267
-0.0966703
-0.979517
0.98736
0.104638
-0.110672
-1.1343
1.14033
0.115961
-0.119102
-1.30794
1.31108
0.120129
-0.118653
-1.50176
1.50028
0.11448
-0.108073
-1.43986
1.43346
0.100721
-0.0917735
-1.15962
1.15067
0.0832597
-0.07363
-0.940175
0.930545
0.0647006
-0.0548399
-0.766159
0.756299
0.046055
-0.0369971
-0.626334
0.617276
0.0292745
-0.0213369
-0.513394
0.505456
0.014743
-0.00846435
-0.421272
0.414993
0.0035967
0.000885443
-0.345538
0.341056
-0.00365121
0.00450393
-0.263608
0.262755
-0.00322432
-0.0675819
0.0708062
-0.140266
0.13668
0.00358617
-0.00397676
0.000120652
-0.461259
0.465115
0.00570788
-0.0121235
-0.54413
0.550545
0.0199019
-0.0274753
-0.635733
0.643307
0.0360515
-0.0439733
-0.740552
0.748474
0.0527078
-0.0605081
-0.860099
0.867899
0.0684529
-0.0753892
-0.995044
1.00198
0.0822865
-0.0876221
-1.14605
1.15139
0.0919366
-0.0943031
-1.31377
1.31613
0.0949424
-0.0931555
-1.49844
1.49665
0.0889494
-0.0828438
-1.42687
1.42077
0.0761269
-0.0683311
-1.14213
1.13434
0.0607753
-0.0526281
-0.921273
0.913126
0.0452624
-0.0373249
-0.747487
0.73955
0.0305999
-0.023708
-0.608879
0.601987
0.0180411
-0.0121999
-0.497514
0.491673
0.00767789
-0.00356584
-0.407431
0.403319
0.000557816
0.00191887
-0.333745
0.331269
-0.00335133
0.00350538
-0.255559
0.255405
-0.00218846
-0.06745
0.0696385
-0.140226
0.137611
0.00261537
-0.00346469
0.000809716
-0.473093
0.475748
0.0036194
-0.00894363
-0.557587
0.562912
0.0155346
-0.0217224
-0.650419
0.656606
0.0289138
-0.035609
-0.756031
0.762727
0.0429793
-0.0496295
-0.875219
0.88187
0.0568139
-0.0627543
-1.00853
1.01447
0.0688856
-0.0732437
-1.15643
1.16079
0.077046
-0.0790676
-1.31843
1.32045
0.0793513
-0.0772681
-1.49469
1.49261
0.0733622
-0.0678352
-1.41451
1.40898
0.0618352
-0.0546997
-1.12677
1.11964
0.0481862
-0.0412925
-0.905238
0.898345
0.0350185
-0.0286474
-0.732232
0.725861
0.022954
-0.0173437
-0.595264
0.589654
0.0126855
-0.0081542
-0.485776
0.481244
0.00465528
-0.00138614
-0.397547
0.394278
-0.00101732
0.00264729
-0.32552
0.32389
-0.00368662
0.00348644
-0.249551
0.249751
-0.00200239
-0.0666717
0.0686741
-0.141551
0.139432
0.0021195
-0.00282422
0.000725704
-0.482637
0.484736
0.00352102
-0.00808466
-0.568946
0.573509
0.0135927
-0.0192327
-0.662763
0.668403
0.0254044
-0.0314139
-0.76909
0.775099
0.0379584
-0.0438992
-0.888202
0.894143
0.0502575
-0.0557184
-1.02035
1.02581
0.0611184
-0.0652849
-1.16509
1.16926
0.0686931
-0.070444
-1.32224
1.32399
0.0705374
-0.0684246
-1.49048
1.48836
0.0646597
-0.0592747
-1.40303
1.39765
0.0537112
-0.0473285
-1.11272
1.10634
0.0414822
-0.0352273
-0.891498
0.885244
0.0297693
-0.0241368
-0.719564
0.713931
0.019321
-0.0144688
-0.584154
0.579302
0.010515
-0.00667778
-0.476341
0.472504
0.00355051
-0.00073474
-0.389684
0.386868
-0.00109113
0.00260571
-0.31917
0.317656
-0.00352704
0.00310969
-0.244774
0.245191
-0.00182029
-0.0660861
0.0679063
-0.143189
0.141327
0.00186298
-0.00228391
-3.63375e-05
-0.490969
0.493289
0.00368464
-0.00803524
-0.578474
0.582825
0.0134833
-0.018557
-0.673674
0.678748
0.0241998
-0.0297222
-0.780695
0.786217
0.0358422
-0.0414157
-0.899886
0.905459
0.047502
-0.0525573
-1.03111
1.03616
0.0576819
-0.061641
-1.17322
1.17718
0.0648021
-0.0663763
-1.32553
1.3271
0.0662907
-0.0643983
-1.48615
1.48425
0.0605609
-0.0553819
-1.39188
1.3867
0.0499693
-0.043819
-1.09984
1.09369
0.0384678
-0.0324909
-0.878992
0.873016
0.0273687
-0.022265
-0.708339
0.703235
0.0178777
-0.0134698
-0.574577
0.570169
0.00985185
-0.00619273
-0.468305
0.464646
0.00351582
-0.000969925
-0.382947
0.380401
-0.00095171
0.00231959
-0.313522
0.312154
-0.00305395
0.00284045
-0.24076
0.240973
-0.00162623
-0.0655926
0.0672188
-0.145019
0.143582
0.00143715
-0.00133719
-0.0010058
-0.498752
0.501095
0.00484022
-0.0088007
-0.587681
0.591641
0.0140682
-0.0189611
-0.683798
0.688691
0.0246646
-0.0298189
-0.791684
0.796838
0.0356131
-0.0409283
-0.911177
0.916492
0.0470408
-0.0519562
-1.04137
1.04628
0.0568544
-0.0608277
-1.18103
1.185
0.064283
-0.0657726
-1.32867
1.33016
0.06569
-0.0635939
-1.48185
1.47976
0.0598717
-0.0543142
-1.38113
1.37557
0.0489557
-0.0429299
-1.08729
1.08126
0.0375008
-0.0318089
-0.867023
0.861331
0.0268129
-0.0217327
-0.697891
0.69281
0.0177351
-0.0134638
-0.565663
0.561391
0.00991442
-0.00657217
-0.460789
0.457447
0.00388419
-0.0012841
-0.376943
0.374343
-0.000499275
0.00185341
-0.308602
0.307248
-0.00258128
0.00253076
-0.237131
0.237181
-0.00152426
-0.065169
0.0666932
-0.147218
0.14607
0.00114797
-0.000452935
-0.00194168
-0.506143
0.508538
0.00602543
-0.0101181
-0.596492
0.600584
0.0152661
-0.0200104
-0.693618
0.698363
0.0253907
-0.0307036
-0.802237
0.80755
0.0364768
-0.0422121
-0.921818
0.927553
0.0479743
-0.0530228
-1.05142
1.05647
0.058314
-0.0622738
-1.18892
1.19288
0.0654626
-0.067394
-1.33152
1.33345
0.0673744
-0.065229
-1.47746
1.47531
0.0611711
-0.0555082
-1.36981
1.36415
0.0498597
-0.0435248
-1.07465
1.06831
0.0379645
-0.0321223
-0.855343
0.8495
0.0270994
-0.0221703
-0.687675
0.682746
0.0179375
-0.0138099
-0.556979
0.552852
0.0104418
-0.007032
-0.453803
0.450393
0.0043046
-0.0019466
-0.371048
0.36869
0.00010283
0.00139393
-0.303919
0.302422
-0.0022534
0.00229566
-0.233767
0.233725
-0.00146603
-0.0649526
0.0664186
-0.149814
0.148793
0.00102016
0.000682959
-0.00336481
-0.513477
0.516159
0.00740821
-0.0116296
-0.605267
0.609489
0.0166583
-0.0215388
-0.703443
0.708324
0.0270544
-0.0322888
-0.81295
0.818185
0.0385098
-0.0438358
-0.932963
0.938289
0.0499253
-0.0550959
-1.0618
1.06697
0.0606049
-0.065013
-1.19692
1.20133
0.0686786
-0.0704895
-1.3351
1.33691
0.0706676
-0.0684929
-1.47276
1.47058
0.0643701
-0.0581154
-1.35784
1.35158
0.0519932
-0.0451211
-1.06159
1.05471
0.0391714
-0.0329428
-0.843166
0.836938
0.0277854
-0.022593
-0.677462
0.67227
0.0183079
-0.014118
-0.548515
0.544325
0.0106638
-0.00747558
-0.446801
0.443613
0.00472603
-0.00235176
-0.365371
0.362997
0.000405997
0.00109106
-0.299338
0.297841
-0.00195624
0.0022239
-0.230488
0.230221
-0.00138018
-0.0649201
0.0663002
-0.152434
0.151827
0.000607547
0.00161368
-0.00480731
-0.521002
0.524195
0.00876481
-0.0131199
-0.613754
0.618109
0.0180201
-0.0230157
-0.713306
0.718302
0.0286642
-0.0343033
-0.823568
0.829207
0.0402869
-0.046069
-0.944005
0.949787
0.0524648
-0.057792
-1.07271
1.07804
0.0637486
-0.0684157
-1.20566
1.21033
0.0724188
-0.0748662
-1.33905
1.3415
0.0754263
-0.0731493
-1.46808
1.4658
0.0685088
-0.0618129
-1.34479
1.33809
0.0550895
-0.0473529
-1.04708
1.03934
0.0406569
-0.0340018
-0.830203
0.823548
0.0281465
-0.0228262
-0.66666
0.661339
0.0184102
-0.0140719
-0.540106
0.535768
0.0107519
-0.00750379
-0.439925
0.436677
0.00488844
-0.00238257
-0.36004
0.357535
0.000574936
0.00094315
-0.294978
0.29346
-0.00198099
0.00227169
-0.227393
0.227103
-0.00144442
-0.0650318
0.0664762
-0.15539
0.154953
0.00043629
0.0024017
-0.00552542
-0.528716
0.531839
0.0101234
-0.0142964
-0.622684
0.626857
0.0195054
-0.0245926
-0.723187
0.728275
0.030371
-0.0358996
-0.834785
0.840314
0.0423128
-0.048108
-0.95579
0.961585
0.0548187
-0.0608788
-1.08397
1.09004
0.0669059
-0.0722626
-1.21519
1.22055
0.0770112
-0.0797895
-1.34385
1.34663
0.0807635
-0.0789204
-1.46334
1.4615
0.0739363
-0.0665728
-1.33042
1.32305
0.0587142
-0.0498913
-1.03077
1.02195
0.0423137
-0.0346526
-0.815965
0.808303
0.0283276
-0.0224864
-0.655323
0.649482
0.0178425
-0.0133726
-0.531284
0.526814
0.00995148
-0.00685532
-0.433222
0.430126
0.00423433
-0.00191273
-0.354747
0.352426
0.00016586
0.00129565
-0.290805
0.289344
-0.00220148
0.00243437
-0.224655
0.224422
-0.00153652
-0.0655518
0.0670883
-0.158519
0.158322
0.00019746
0.00334593
-0.00662941
-0.536513
0.539797
0.01106
-0.0155004
-0.631494
0.635934
0.0207695
-0.0258853
-0.733271
0.738387
0.0319746
-0.0376036
-0.846064
0.851693
0.0441567
-0.0503557
-0.968042
0.974241
0.0573206
-0.0637103
-1.09618
1.10257
0.0703653
-0.076149
-1.22601
1.2318
0.0815579
-0.0854124
-1.34974
1.3536
0.0870635
-0.0853519
-1.45925
1.45754
0.0803477
-0.0719918
-1.31465
1.3063
0.0630692