/*--------------------------------*- C++ -*----------------------------------*\
  =========                 |
  \\      /  F ield         | OpenFOAM: The Open Source CFD Toolbox
   \\    /   O peration     | Website:  https://openfoam.org
    \\  /    A nd           | Version:  6
     \\/     M anipulation  |
\*---------------------------------------------------------------------------*/
FoamFile
{
    version     2.0;
    format      ascii;
    class       surfaceScalarField;
    location    "75.8";
    object      phi;
}
// * * * * * * * * * * * * * * * * * * * * * * * * * * * * * * * * * * * * * //

dimensions      [0 3 -1 0 0 0 0];

internalField   nonuniform List<scalar> 
17370
(
-0.0900005
0.0898497
0.289162
-0.0714633
0.0537535
0.364485
-0.0381205
0.0276914
0.426597
-0.0196397
0.0146067
0.504285
-0.0107649
0.00827459
0.601892
-0.00627498
0.00489858
0.720434
-0.00373482
0.00289442
0.863747
-0.00215306
0.00159399
1.03601
-0.00107737
0.000664887
1.24292
-0.000257385
-0.000136454
1.49158
0.000515717
-0.000926229
1.4916
0.00132477
-0.00181491
1.24318
0.00234322
-0.0030491
1.03634
0.00386225
-0.0050055
0.86405
0.00637098
-0.00836353
0.72105
0.0108484
-0.0146839
0.60305
0.0197104
-0.0277546
0.507483
0.0381764
-0.0538007
0.431792
0.071502
-0.0898756
0.365149
0.0900161
0.198995
-0.128136
0.0882258
0.0399101
-0.364598
0.353378
-0.0746734
0.085894
-0.446476
0.45432
-0.0843914
0.0765474
-0.52119
0.529901
-0.0684504
0.0597392
-0.612789
0.621568
-0.0515505
0.0427709
-0.726894
0.734164
-0.0353101
0.0280404
-0.867475
0.872591
-0.0224393
0.0173235
-1.03847
1.04192
-0.0135135
0.0100635
-1.2446
1.24703
-0.00745246
0.00501909
-1.49262
1.4946
-0.0030707
0.00109128
-1.4925
1.49423
0.000585559
-0.00231057
-1.24398
1.24586
0.00421447
-0.00609982
-1.03751
1.04004
0.00845706
-0.0109861
-0.866101
0.869827
0.0143384
-0.0180646
-0.724391
0.729934
0.0231025
-0.028645
-0.608698
0.616112
0.0358595
-0.0432733
-0.514897
0.523041
0.0520027
-0.0601463
-0.439856
0.447914
0.0688089
-0.0768672
-0.375296
0.37674
0.0846649
-0.0861088
-0.25733
0.222478
0.0748193
-0.0399666
-0.0685187
0.0586929
0.00982576
-0.0518108
0.0583937
-0.374127
0.367544
-0.0574774
0.0537248
-0.453595
0.457347
-0.0486343
0.0446814
-0.527947
0.5319
-0.0408408
0.0372011
-0.621564
0.625204
-0.0330984
0.0290217
-0.735349
0.739426
-0.0244502
0.0202898
-0.874341
0.878502
-0.0159428
0.0122477
-1.04349
1.04719
-0.00850873
0.00533415
-1.24856
1.25174
-0.00200375
-0.00107095
-1.49666
1.49973
0.00411944
-0.00738645
-1.4972
1.50047
0.0104674
-0.0140736
-1.25007
1.25367
0.0176298
-0.0218158
-1.04592
1.05011
0.0258372
-0.0302734
-0.877761
0.882198
0.0342426
-0.0382396
-0.7399
0.743897
0.0417895
-0.0455365
-0.626773
0.63052
0.049409
-0.0544226
-0.53481
0.539823
0.0580915
-0.0589025
-0.457474
0.458285
0.0521962
-0.0319919
-0.33575
0.315545
0.00988856
-0.0683445
0.0584559
-0.0529426
0.0489478
0.00399475
-0.0331568
0.0436996
-0.358112
0.347569
-0.0473958
0.0467667
-0.459287
0.459916
-0.0437092
0.0403548
-0.535803
0.539158
-0.0365804
0.0332747
-0.62853
0.631835
-0.0298349
0.0268014
-0.74265
0.745683
-0.023541
0.0204328
-0.882021
0.885129
-0.0169008
0.0135196
-1.05078
1.05416
-0.00972413
0.0061833
-1.25517
1.25871
-0.00221159
-0.0015875
-1.50324
1.50704
0.00535395
-0.00922873
-1.50414
1.50801
0.0126378
-0.0162503
-1.25742
1.26103
0.019439
-0.0227461
-1.05392
1.05722
0.0256571
-0.0287218
-0.885688
0.888753
0.0315968
-0.0348799
-0.747155
0.750438
0.0380536
-0.0416929
-0.634304
0.637943
0.0449313
-0.0478568
-0.544132
0.547058
0.0483468
-0.0444554
-0.456569
0.452677
0.0336797
-0.016225
-0.296177
0.278722
0.0040728
-0.0526353
0.0485625
-0.045871
0.0433769
0.00249416
-0.0227977
0.0331718
-0.336883
0.326509
-0.0389889
0.0400027
-0.459602
0.458588
-0.0388098
0.0365207
-0.541878
0.544167
-0.0338506
0.0312522
-0.634887
0.637486
-0.0281862
0.0252845
-0.74873
0.751632
-0.0220172
0.0190214
-0.888084
0.89108
-0.0157141
0.0126126
-1.05729
1.06039
-0.00908412
0.00567315
-1.26217
1.26558
-0.00170804
-0.00217726
-1.51093
1.51481
0.00601914
-0.00985554
-1.5119
1.51574
0.0130928
-0.016382
-1.26446
1.26775
0.0192318
-0.022244
-1.06033
1.06334
0.0249787
-0.0279839
-0.891805
0.89481
0.0306704
-0.0335216
-0.753642
0.756493
0.0359392
-0.038427
-0.641007
0.643495
0.0405595
-0.0415469
-0.548859
0.549846
0.0403181
-0.0341871
-0.447392
0.441261
0.0234702
-0.0102431
-0.263496
0.250269
0.00259067
-0.0453979
0.0428072
-0.0413033
0.0395381
0.00176521
-0.0167335
0.0259771
-0.316662
0.307419
-0.0325754
0.03471
-0.456992
0.454857
-0.0342844
0.0326103
-0.546146
0.54782
-0.0304257
0.0283269
-0.639792
0.641891
-0.0258918
0.0234911
-0.754278
0.756679
-0.0206294
0.0178372
-0.893978
0.89677
-0.0145976
0.0115249
-1.06344
1.06651
-0.00803076
0.00470165
-1.2689
1.27223
-0.00086589
-0.00286883
-1.5186
1.52234
0.00654796
-0.0102188
-1.51947
1.52314
0.0133255
-0.0165144
-1.27099
1.27418
0.019266
-0.0221285
-1.06637
1.06923
0.0245857
-0.02711
-0.897622
0.900146
0.0292326
-0.0313904
-0.758939
0.761097
0.0332577
-0.0352078
-0.645645
0.647595
0.036655
-0.0368012
-0.550359
0.550505
0.0343368
-0.027279
-0.434586
0.427528
0.0175731
-0.0074164
-0.238726
0.22857
0.0018831
-0.040626
0.0387429
-0.038018
0.0366913
0.00132667
-0.0127673
0.0207013
-0.298835
0.290901
-0.0274393
0.0303527
-0.452303
0.44939
-0.0305494
0.0294233
-0.549254
0.55038
-0.0274241
0.025502
-0.643929
0.645851
-0.0232959
0.0211532
-0.75892
0.761063
-0.0186321
0.0161431
-0.899348
0.901837
-0.0131943
0.0103085
-1.06945
1.07234
-0.00693922
0.00369142
-1.2755
1.27874
6.18405e-05
-0.00369433
-1.52599
1.52962
0.00725718
-0.0108027
-1.52673
1.53028
0.013771
-0.0167584
-1.2773
1.28028
0.0192433
-0.0217207
-1.07196
1.07444
0.02379
-0.0258866
-0.90243
0.904527
0.0276775
-0.029531
-0.763075
0.764929
0.0311603
-0.0328747
-0.64941
0.651124
0.03367
-0.0330822
-0.550289
0.549701
0.0296968
-0.0223294
-0.420258
0.412891
0.0138013
-0.005755
-0.219569
0.211523
0.00147007
-0.0370917
0.0356217
-0.0355331
0.0345121
0.00102096
-0.00996414
0.0166622
-0.283611
0.276913
-0.0231268
0.0264858
-0.446234
0.442875
-0.0272548
0.0265453
-0.55129
0.552
-0.0247774
0.0229848
-0.64775
0.649542
-0.0209055
0.0188805
-0.76314
0.765165
-0.0164993
0.0141629
-0.90418
0.906517
-0.0114133
0.0087176
-1.07506
1.07776
-0.0055478
0.00245238
-1.28188
1.28497
0.00116748
-0.00468609
-1.53318
1.5367
0.00811843
-0.0114802
-1.53372
1.53708
0.0142293
-0.0169267
-1.28313
1.28583
0.0191263
-0.0212929
-1.07682
1.07899
0.023111
-0.0249679
-0.906499
0.908356
0.0265573
-0.0281995
-0.76667
0.768312
0.029629
-0.0310035
-0.652695
0.654069
0.0313032
-0.0299789
-0.548758
0.547434
0.0259696
-0.0186762
-0.405534
0.398241
0.0112313
-0.00465554
-0.204281
0.197705
0.00119532
-0.0343042
0.0331089
-0.0336167
0.0328233
0.000793439
-0.00788306
0.0135029
-0.270784
0.265164
-0.0194745
0.0230233
-0.439412
0.435863
-0.0242632
0.0237979
-0.55262
0.553086
-0.0222933
0.0206076
-0.65133
0.653016
-0.0186201
0.0166778
-0.767141
0.769083
-0.0143851
0.012133
-0.908744
0.910997
-0.00948347
0.00689575
-1.08032
1.08291
-0.00386568
0.000912564
-1.28794
1.2909
0.00253682
-0.00588228
-1.54011
1.54345
0.00912227
-0.0122565
-1.54031
1.54344
0.014788
-0.0172434
-1.28841
1.29086
0.0192254
-0.0211606
-1.08112
1.08305
0.0227766
-0.0244251
-0.910111
0.911759
0.025832
-0.0272809
-0.769851
0.7713
0.0285128
-0.0295053
-0.655242
0.656235
0.0294288
-0.0274318
-0.545774
0.543777
0.0230144
-0.0159796
-0.391071
0.384036
0.00943189
-0.00389681
-0.191698
0.186163
0.0010053
-0.0320199
0.0310146
-0.0321279
0.0315112
0.000616624
-0.00627414
0.0109719
-0.260034
0.255336
-0.0163452
0.0198864
-0.432318
0.428777
-0.0214423
0.0211988
-0.553477
0.553721
-0.0199222
0.0182923
-0.65472
0.65635
-0.0163569
0.0144605
-0.770991
0.772887
-0.0122228
0.0100257
-0.913145
0.915342
-0.00744115
0.00492049
-1.08539
1.08791
-0.00197763
-0.000872694
-1.29375
1.2966
0.00417264
-0.00734159
-1.54668
1.54985
0.0103817
-0.0132967
-1.54644
1.54935
0.0156324
-0.017875
-1.29322
1.29546
0.0196573
-0.0213708
-1.08499
1.0867
0.0227919
-0.024243
-0.913307
0.914758
0.0254842
-0.0267579
-0.772653
0.773926
0.0278448
-0.028413
-0.657019
0.657587
0.0279615
-0.0253942
-0.541506
0.538939
0.0207214
-0.014007
-0.37717
0.370455
0.00816403
-0.0033694
-0.181035
0.176241
0.000873882
-0.0300842
0.0292103
-0.0309751
0.0305021
0.000472982
-0.00497601
0.00887752
-0.251063
0.247162
-0.0136081
0.0169931
-0.425323
0.421938
-0.0187252
0.0186676
-0.553915
0.553973
-0.0175792
0.0159814
-0.658029
0.659626
-0.0140643
0.0121792
-0.774761
0.776646
-0.00995616
0.00777928
-0.917439
0.919616
-0.00522722
0.00274768
-1.09032
1.0928
0.000134272
-0.00290872
-1.29935
1.30212
0.00609478
-0.009122
-1.55291
1.55593
0.0119925
-0.0147102
-1.55214
1.55485
0.0168593
-0.0188918
-1.2976
1.29963
0.0204741
-0.0219675
-1.08843
1.08992
0.0232018
-0.0244695
-0.91611
0.917378
0.0255602
-0.0266734
-0.775109
0.776223
0.0275581
-0.0277636
-0.657969
0.658175
0.0268853
-0.0238336
-0.536135
0.533084
0.0190001
-0.0125938
-0.363911
0.357505
0.00728267
-0.00300946
-0.171737
0.167464
0.000785779
-0.0283888
0.027603
-0.0300981
0.029747
0.000351109
-0.0038855
0.00708608
-0.243636
0.240435
-0.011162
0.0142805
-0.418703
0.415585
-0.0160616
0.0161527
-0.554009
0.553918
-0.0151391
0.0136096
-0.661262
0.662792
-0.0116817
0.00977323
-0.77852
0.780428
-0.00752391
0.00533011
-0.9217
0.923894
-0.00277249
0.00030295
-1.09518
1.09765
0.00254832
-0.00527276
-1.3048
1.30753
0.00837277
-0.0112826
-1.55886
1.56177
0.0140025
-0.0165344
-1.55744
1.55997
0.0185025
-0.0203275
-1.30156
1.30339
0.0217115
-0.0229881
-1.09147
1.09274
0.0240433
-0.0251386
-0.918546
0.919641
0.0260866
-0.0270357
-0.777237
0.778186
0.0276594
-0.0275692
-0.658241
0.658151
0.026243
-0.0227445
-0.529816
0.526317
0.0177879
-0.0116301
-0.351247
0.345089
0.00669836
-0.00277757
-0.163395
0.159474
0.000731141
-0.0268527
0.0261215
-0.029458
0.0292159
0.00024204
-0.0029267
0.00549331
-0.237575
0.235008
-0.00891481
0.011684
-0.412665
0.409895
-0.0133993
0.0135637
-0.553852
0.553687
-0.0125862
0.0110915
-0.664385
0.66588
-0.00912859
0.00716791
-0.782331
0.784292
-0.00485785
0.00261324
-0.925997
0.928241
-9.23475e-06
-0.00248952
-1.10003
1.10253
0.00535199
-0.00806034
-1.31017
1.31288
0.0111051
-0.0139203
-1.56459
1.5674
0.0165067
-0.0188675
-1.56238
1.56474
0.020667
-0.0222953
-1.30511
1.30674
0.0234835
-0.0245379
-1.09411
1.09516
0.025406
-0.0263196
-0.920629
0.921542
0.0271173
-0.0279031
-0.779006
0.779792
0.0282395
-0.0278447
-0.657914
0.65752
0.0260542
-0.0221218
-0.522626
0.518694
0.0170392
-0.0110426
-0.339043
0.333046
0.00635374
-0.00264814
-0.155687
0.151981
0.000703333
-0.0254123
0.024709
-0.0290334
0.0288952
0.00013818
-0.00203618
0.00400652
-0.232762
0.230792
-0.0067685
0.00911788
-0.407366
0.405016
-0.0106589
0.010818
-0.5536
0.553441
-0.00984344
0.00834606
-0.667473
0.66897
-0.00632094
0.00427704
-0.78625
0.788294
-0.00186737
-0.000465486
-0.930397
0.93273
0.00315705
-0.00572165
-1.10494
1.10751
0.00863494
-0.011363
-1.31552
1.31824
0.0143894
-0.0171383
-1.57013
1.57288
0.0196095
-0.0218066
-1.56696
1.56916
0.0234358
-0.0248613
-1.30825
1.30968
0.0258433
-0.0266663
-1.09634
1.09716
0.027338
-0.0280554
-0.922337
0.923054
0.0286965
-0.0293384
-0.780418
0.78106
0.0293524
-0.0285474
-0.65693
0.656125
0.0262979
-0.0219377
-0.514592
0.510232
0.0167005
-0.0107675
-0.327118
0.321185
0.00620227
-0.00260033
-0.148353
0.144751
0.00069679
-0.0240171
0.0233203
-0.0288173
0.0287842
3.3169e-05
-0.00116753
0.00255551
-0.229134
0.227746
-0.00464293
0.00650721
-0.402943
0.401078
-0.0077685
0.00783813
-0.553417
0.553348
-0.00681648
0.00527558
-0.670603
0.672144
-0.00314498
0.000981865
-0.790339
0.792502
0.00156849
-0.00402729
-0.934974
0.937432
0.00684846
-0.00951829
-1.11
1.11266
0.0125246
-0.0153064
-1.32091
1.32369
0.0183435
-0.0210449
-1.57555
1.57825
0.0234131
-0.0254541
-1.57122
1.57327
0.026919
-0.0281427
-1.31098
1.31221
0.0289182
-0.0295047
-1.09814
1.09873
0.0299726
-0.0304835
-0.923652
0.924163
0.0309517
-0.0313596
-0.781461
0.781869
0.031082
-0.0298014
-0.655129
0.653848
0.0270464
-0.0222176
-0.505699
0.50087
0.0167626
-0.0107789
-0.31527
0.309287
0.00622321
-0.00262494
-0.141178
0.13758
0.000709227
-0.022626
0.0219168
-0.0288129
0.0288873
-7.43937e-05
-0.000278607
0.00107466
-0.226672
0.225876
-0.00245481
0.00376623
-0.399521
0.39821
-0.00464618
0.00454353
-0.553478
0.553581
-0.00341966
0.00177948
-0.673871
0.675511
0.000489851
-0.00281128
-0.794667
0.796989
0.00554839
-0.00817808
-0.939802
0.942432
0.0111801
-0.0140008
-1.11527
1.11809
0.0171466
-0.0200212
-1.32642
1.32929
0.0231077
-0.025791
-1.58088
1.58356
0.0280738
-0.0299634
-1.57516
1.57705
0.031258
-0.0322724
-1.31329
1.3143
0.0328378
-0.0331845
-1.0995
1.09985
0.0334393
-0.033729
-0.924543
0.924833
0.0339948
-0.0340897
-0.781953
0.782048
0.0334926
-0.0316574
-0.652378
0.650543
0.0283421
-0.0229811
-0.495859
0.490498
0.017221
-0.0110609
-0.303265
0.297105
0.00640297
-0.0027153
-0.133965
0.130277
0.000738687
-0.021202
0.0204633
-0.0290362
0.0292366
-0.000200378
0.000667315
-0.000504806
-0.225403
0.225241
-0.000119555
0.00080123
-0.397229
0.396548
-0.00119131
0.000824667
-0.553964
0.55433
0.000470355
-0.0022675
-0.677391
0.679188
0.00473002
-0.00726038
-0.799314
0.801844
0.0102421
-0.0130947
-0.944977
0.94783
0.016332
-0.0193515
-1.12085
1.12386
0.0226872
-0.0256962
-1.33212
1.33513
0.0288681
-0.0315528
-1.58618
1.58887
0.033757
-0.0354912
-1.57879
1.58053
0.0366105
-0.0374032
-1.31514
1.31593
0.0377462
-0.0378346
-1.10037
1.10046
0.0378581
-0.0379143
-0.924973
0.925029
0.037988
-0.0376796
-0.781791
0.781482
0.0366749
-0.0341989
-0.648527
0.646051
0.0302396
-0.0242473
-0.484925
0.478932
0.0180704
-0.0115977
-0.290845
0.284372
0.0067276
-0.00286388
-0.126531
0.122667
0.000782707
-0.0197119
0.0189292
-0.0295176
0.0298657
-0.00034809
0.00172192
-0.00219726
-0.225421
0.225897
0.00242154
-0.00246853
-0.39622
0.396267
0.00270481
-0.00344602
-0.555092
0.555833
0.00498123
-0.00700354
-0.68129
0.683312
0.00973592
-0.012539
-0.80438
0.807183
0.0158299
-0.0189632
-0.9506
0.953733
0.0224994
-0.0257736
-1.12683
1.13011
0.0293532
-0.0325353
-1.3381
1.34128
0.0358218
-0.0385215
-1.59148
1.59418
0.0406452
-0.0422116
-1.58209
1.58366
0.0431391
-0.0437054
-1.31651
1.31708
0.0438193
-0.0436269
-1.10071
1.10052
0.0433953
-0.0432001
-0.924889
0.924694
0.0430516
-0.0422488
-0.780799
0.779996
0.0407498
-0.0375225
-0.643409
0.640182
0.0328049
-0.0260458
-0.472685
0.465926
0.0193151
-0.0123806
-0.277731
0.270797
0.00718715
-0.00306462
-0.118704
0.114582
0.000839159
-0.0181279
0.0172887
-0.0302857
0.0308118
-0.000526122
0.00301334
-0.00426335
-0.226786
0.228036
0.00536707
-0.00621769
-0.396682
0.397533
0.00718789
-0.00840769
-0.557103
0.558322
0.0102894
-0.0126091
-0.685704
0.688024
0.0156894
-0.018836
-0.809986
0.813133
0.0225149
-0.0260013
-0.956794
0.96028
0.0299117
-0.0335021
-1.13334
1.13693
0.037384
-0.0407836
-1.34443
1.34783
0.0442206
-0.0469518
-1.59681
1.59954
0.0489919
-0.0503712
-1.58503
1.58641
0.0510751
-0.051397
-1.31736
1.31768
0.051259
-0.0507635
-1.10046
1.09997
0.050262
-0.0498002
-0.924242
0.92378
0.0493025
-0.0480328
-0.778881
0.777611
0.0458693
-0.0417337
-0.636781
0.632645
0.0361016
-0.0283985
-0.45885
0.451147
0.0209509
-0.0133938
-0.263622
0.256065
0.00776619
-0.00330836
-0.110323
0.105866
0.000904832
-0.0164265
0.0155216
-0.0314153
0.0321662
-0.000750871
0.00453316
-0.00667107
-0.229713
0.231851
0.00886567
-0.0106326
-0.398841
0.400608
0.0124438
-0.0142641
-0.560241
0.562061
0.0166353
-0.019354
-0.690788
0.693507
0.0228961
-0.0264756
-0.816282
0.819862
0.0306353
-0.0345531
-0.963704
0.967622
0.0389158
-0.0428849
-1.1405
1.14446
0.0471236
-0.0507715
-1.3512
1.35484
0.0543672
-0.0571123
-1.60219
1.60494
0.059036
-0.0601871
-1.58757
1.58873
0.0606337
-0.0606839
-1.31761
1.31766
0.0602727
-0.059444
-1.09958
1.09875
0.058646
-0.0578993
-0.92298
0.922233
0.0569719
-0.0551468
-0.776069
0.774244
0.0521747
-0.0469239
-0.628322
0.623071
0.040173
-0.0313037
-0.44305
0.43418
0.022952
-0.0146037
-0.24819
0.239842
0.00843695
-0.00357977
-0.101239
0.0963823
0.000974572
-0.0145913
0.0136167
-0.0329901
0.0340361
-0.00104601
0.00645106
-0.00966348
-0.234445
0.237657
0.0131144
-0.015951
-0.402962
0.405799
0.0187452
-0.0212949
-0.564792
0.567342
0.0243028
-0.0275546
-0.696761
0.700013
0.0316954
-0.0358179
-0.823451
0.827574
0.0405688
-0.0450101
-0.971492
0.975933
0.0499129
-0.0543222
-1.14841
1.15282
0.0589581
-0.0628648
-1.35845
1.36235
0.0666033
-0.0693266
-1.60757
1.61029
0.0710842
-0.0719488
-1.58963
1.5905
0.0720705
-0.0717849
-1.31716
1.31687
0.0710797
-0.0698839
-1.09799
1.09679
0.0687578
-0.0677117
-0.921075
0.920029
0.0662271
-0.0637406
-0.772179
0.769692
0.0597844
-0.0531523
-0.617613
0.610981
0.0450198
-0.0347143
-0.424824
0.414518
0.0252514
-0.0159465
-0.231102
0.221797
0.00915233
-0.0038548
-0.0913354
0.0860379
0.00104075
-0.0126178
0.0115771
-0.0351414
0.0365942
-0.00145275
0.00895082
-0.0135317
-0.241311
0.245892
0.0184777
-0.0225508
-0.409419
0.413492
0.0264845
-0.0299142
-0.571083
0.574513
0.0337378
-0.0376804
-0.703904
0.707847
0.0425859
-0.0473893
-0.831708
0.836511
0.0528605
-0.0579214
-0.980345
0.985406
0.0634417
-0.0683311
-1.15721
1.1621
0.0733727
-0.0775128
-1.36619
1.37033
0.0813294
-0.0839415
-1.61285
1.61546
0.085435
-0.0859157
-1.59106
1.59154
0.0856543
-0.0849538
-1.3159
1.3152
0.0838987
-0.0823233
-1.0956
1.09402
0.0808812
-0.0793838
-0.918475
0.916977
0.0773924
-0.0739855
-0.766928
0.763521
0.0687816
-0.0604141
-0.604079
0.595712
0.0505682
-0.0385098
-0.403623
0.391565
0.0277203
-0.0173149
-0.212037
0.201632
0.00983926
-0.00409859
-0.0805466
0.0748059
0.00109296
-0.0105178
0.00942481
-0.038067
0.0401019
-0.00203481
0.0124422
-0.0187448
-0.25084
0.257143
0.0254873
-0.0310017
-0.4187
0.424214
0.0362815
-0.0407912
-0.579505
0.584015
0.0456466
-0.050494
-0.712557
0.717405
0.0563893
-0.0620327
-0.841324
0.846967
0.0683503
-0.0741023
-0.990449
0.996201
0.0802689
-0.0856154
-1.16695
1.17229
0.0909826
-0.0952375
-1.37433
1.37858
0.0989635
-0.10129
-1.61781
1.62014
0.102356
-0.102314
-1.59163
1.59159
0.101594
-0.100375
-1.31372
1.3125
0.0989275
-0.0969574
-1.09237
1.0904
0.0951602
-0.0931004
-0.914825
0.912766
0.0905428
-0.0859559
-0.759774
0.755187
0.0791421
-0.0685733
-0.58699
0.576421
0.0566068
-0.0424471
-0.378821
0.364662
0.0301349
-0.0185416
-0.190739
0.179146
0.0103922
-0.00426427
-0.0688953
0.0627673
0.00111806
-0.00832482
0.00720676
-0.0420956
0.0450308
-0.00293525
0.0175035
-0.0260721
-0.263755
0.272323
0.0350288
-0.0422723
-0.431481
0.438725
0.049165
-0.0549767
-0.590559
0.596371
0.0611811
-0.0672305
-0.723169
0.729219
0.074338
-0.0809437
-0.85259
0.859196
0.0881681
-0.0945971
-1.00192
1.00835
0.10132
-0.106979
-1.17751
1.18317
0.112458
-0.116601
-1.38256
1.3867
0.119968
-0.121762
-1.62207
1.62386
0.122177
-0.12141
-1.59104
1.59027
0.120068
-0.118229
-1.31042
1.30858
0.116346
-0.113954
-1.08821
1.08582
0.111749
-0.109069
-0.909903
0.907223
0.105731
-0.0995496
-0.750113
0.743931
0.090637
-0.0772917
-0.565372
0.552027
0.0627382
-0.0461329
-0.349761
0.333156
0.0321645
-0.0194011
-0.167094
0.154331
0.0106789
-0.00429718
-0.0565323
0.0501506
0.00110166
-0.00609895
0.00499729
-0.0478048
0.0522578
-0.00445304
0.025326
-0.0369655
-0.281229
0.292869
0.0487949
-0.0583611
-0.448804
0.45837
0.067301
-0.0746869
-0.604832
0.612218
0.0824995
-0.090056
-0.73615
0.743707
0.0984161
-0.105912
-0.865711
0.873207
0.113872
-0.120744
-1.01463
1.02151
0.127689
-0.13331
-1.18852
1.19414
0.138486
-0.142131
-1.39037
1.39401
0.14472
-0.145618
-1.62506
1.62596
0.145077
-0.143338
-1.58887
1.58713
0.141205
-0.138642
-1.30578
1.30322
0.136233
-0.133391
-1.08299
1.08015
0.130666
-0.12736
-0.903591
0.900285
0.122831
-0.114442
-0.737033
0.728644
0.102753
-0.0859382
-0.538013
0.521198
0.0683166
-0.0490078
-0.315851
0.296543
0.0333854
-0.0196351
-0.141251
0.127501
0.0105602
-0.00414438
-0.0437747
0.0373588
0.0010298
-0.00392584
0.00289604
-0.0562846
0.0638674
-0.0075828
0.0389578
-0.0551112
-0.305429
0.321582
0.0710014
-0.0837846
-0.472323
0.485106
0.0948998
-0.10372
-0.622797
0.631617
0.113106
-0.122003
-0.751826
0.760722
0.131372
-0.13932
-0.880395
0.888342
0.147395
-0.154082
-1.02796
1.03464
0.160565
-0.165519
-1.19914
1.20409
0.169745
-0.172296
-1.39687
1.39942
0.173532
-0.173049
-1.626
1.62552
0.17116
-0.168158
-1.58461
1.58161
0.165029
-0.161585
-1.29957
1.29613
0.158567
-0.155222
-1.07658
1.07324
0.151947
-0.147668
-0.895565
0.891286
0.141403
-0.1299
-0.719157
0.707654
0.114483
-0.093401
-0.503382
0.482301
0.0724424
-0.0504587
-0.276777
0.254793
0.0334304
-0.0190831
-0.113777
0.0994297
0.00996712
-0.00378087
-0.0311228
0.0249365
0.000888208
-0.00190961
0.00102141
-0.0709094
0.075142
-0.00423252
0.0296982
-0.0438274
-0.340334
0.354463
0.0580395
-0.0698387
-0.503459
0.515258
0.0804388
-0.0903876
-0.644171
0.65412
0.101581
-0.112008
-0.769021
0.779448
0.123647
-0.133982
-0.895247
0.905582
0.14502
-0.154884
-1.04042
1.05028
0.165294
-0.174315
-1.20799
1.21701
0.183443
-0.190889
-1.40084
1.40828
0.197784
-0.202601
-1.6239
1.62871
0.205343
-0.206634
-1.5776
1.57889
0.206726
-0.206303
-1.29146
1.29104
0.206017
-0.205111
-1.06863
1.06772
0.203502
-0.198965
-0.884777
0.88024
0.18976
-0.171797
-0.694449
0.676486
0.147675
-0.11626
-0.460104
0.428689
0.0869268
-0.0579562
-0.232842
0.203871
0.036932
-0.0202484
-0.0857991
0.0691154
0.0101285
-0.00362302
-0.0192158
0.0127103
0.000769729
-0.000120668
-0.000649061
-0.0826539
0.0807073
0.00194662
0.00791254
-0.0170634
-0.371326
0.380477
0.0278683
-0.0364249
-0.531712
0.540268
0.0450787
-0.0533402
-0.666849
0.675111
0.0635308
-0.0731758
-0.789325
0.79897
0.0835616
-0.0930455
-0.915272
0.924756
0.103159
-0.111849
-1.05985
1.06854
0.121204
-0.128939
-1.22582
1.23355
0.136729
-0.142821
-1.41541
1.4215
0.148018
-0.151397
-1.63281
1.63619
0.152847
-0.15293
-1.5797
1.57979
0.151787
-0.150067
-1.28974
1.28802
0.14856
-0.146822
-1.06428
1.06255
0.144336
-0.138498
-0.871194
0.865356
0.128402
-0.111598
-0.65455
0.637746
0.0917608
-0.0684396
-0.39545
0.372128
0.0487684
-0.0312862
-0.175578
0.158096
0.0194175
-0.0104655
-0.0535222
0.0445702
0.00515383
-0.00181886
-0.00639547
0.0030605
0.000365431
0.00164831
-0.00201374
-0.0841223
0.0811828
0.00293947
-0.00115653
-0.0040783
-0.392385
0.39762
0.0112552
-0.0175323
-0.55273
0.559007
0.0239278
-0.0310522
-0.686013
0.693137
0.0398981
-0.0482545
-0.807631
0.815988
0.057465
-0.0657142
-0.933386
0.941635
0.0742624
-0.0819872
-1.07704
1.08477
0.0900918
-0.0968791
-1.24084
1.24762
0.103257
-0.108055
-1.42693
1.43172
0.112135
-0.114303
-1.63893
1.6411
0.114583
-0.11355
-1.57932
1.57829
0.111557
-0.109103
-1.2858
1.28334
0.106482
-0.103713
-1.05808
1.05531
0.100388
-0.0943066
-0.855567
0.849486
0.0849739
-0.0707914
-0.618095
0.603913
0.055832
-0.0399041
-0.347357
0.33143
0.0279302
-0.0180835
-0.140465
0.130619
0.0115532
-0.00657838
-0.0356511
0.0306763
0.00344948
-0.00132784
0.00053614
-0.00265778
0.000306473
0.00260973
-0.0029162
-0.0828441
0.0799777
0.00286642
-0.00510735
0.00251368
-0.40638
0.408974
0.00213391
-0.0068668
-0.568367
0.5731
0.0122296
-0.0181861
-0.701745
0.707701
0.0257597
-0.0329087
-0.823627
0.830776
0.0407464
-0.0477901
-0.949279
0.956322
0.0554733
-0.0619919
-1.09201
1.09853
0.0689982
-0.0743885
-1.25395
1.25934
0.0797368
-0.0836161
-1.43624
1.44012
0.0865087
-0.0874072
-1.6428
1.6437
0.0868732
-0.08508
-1.57668
1.57488
0.082423
-0.078874
-1.28035
1.2768
0.0755242
-0.0717944
-1.05025
1.04652
0.0675766
-0.0618087
-0.839209
0.833441
0.0536383
-0.0428409
-0.587258
0.57646
0.0325989
-0.0229803
-0.314612
0.304994
0.0163788
-0.0112008
-0.120135
0.114957
0.00768716
-0.00482832
-0.0251372
0.0222783
0.00278381
-0.00119966
0.00524904
-0.00683319
0.000321021
0.00343
-0.00375102
-0.0812448
0.0786835
0.00256129
-0.00648988
0.00555613
-0.415716
0.416649
-0.00208938
-0.0014186
-0.580849
0.584357
0.00567211
-0.011033
-0.714924
0.720285
0.0173724
-0.0236195
-0.837157
0.843404
0.0303661
-0.036443
-0.962854
0.968931
0.0429816
-0.0487014
-1.10487
1.11059
0.0545485
-0.0593372
-1.26453
1.26931
0.0637414
-0.066774
-1.44354
1.44657
0.0687397
-0.0687907
-1.64432
1.64438
0.0674498
-0.0646647
-1.57227
1.56948
0.0613347
-0.0571793
-1.27288
1.26872
0.0530873
-0.0483111
-1.04099
1.03621
0.0435842
-0.037975
-0.823485
0.817876
0.0313393
-0.0234219
-0.563431
0.555514
0.0169426
-0.0117556
-0.294092
0.288905
0.00863053
-0.00645505
-0.108897
0.106721
0.00492176
-0.00346424
-0.0187837
0.0173262
0.00222065
-0.00106271
0.00880274
-0.00996068
0.000323341
0.00421716
-0.00454051
-0.0797047
0.0774885
0.00221622
-0.00657801
0.0062126
-0.422041
0.422407
-0.0041721
0.00134856
-0.590429
0.593253
0.00275764
-0.00732052
-0.726028
0.73059
0.0127212
-0.0180933
-0.848796
0.854169
0.0240254
-0.0293957
-0.9746
0.97997
0.0352917
-0.0402198
-1.11598
1.1209
0.0453444
-0.0494919
-1.27374
1.27789
0.0531471
-0.0554986
-1.44922
1.45158
0.0566893
-0.056409
-1.6442
1.64392
0.0543519
-0.0510285
-1.56607
1.56274
0.0470811
-0.0422587
-1.26406
1.25924
0.0377964
-0.0322625
-1.03023
1.02469
0.0270573
-0.0215896
-0.808546
0.803078
0.015998
-0.0101562
-0.545665
0.539823
0.00623323
-0.00385283
-0.282073
0.279693
0.00303243
-0.0026888
-0.103309
0.102965
0.00241033
-0.00202335
-0.0153029
0.0149159
0.00148402
-0.000810619
0.0113382
-0.0120116
0.0002797
0.00493007
-0.00520977
-0.0784613
0.0767039
0.00175747
-0.00584419
0.00587837
-0.426621
0.426586
-0.00424053
0.00215523
-0.59871
0.600796
0.00164201
-0.00574386
-0.735567
0.739669
0.0107967
-0.015369
-0.85911
0.863682
0.0205135
-0.0252066
-0.985256
0.989949
0.0306957
-0.0350636
-1.12581
1.13017
0.039483
-0.0432263
-1.28177
1.28552
0.0467522
-0.0486279
-1.45383
1.4557
0.0494386
-0.0485825
-1.64308
1.64223
0.0463583
-0.0423039
-1.559
1.55495
0.0381017
-0.0329706
-1.25395
1.24882
0.0279313
-0.0221357
-1.01835
1.01255
0.0165492
-0.0108377
-0.794203
0.788491
0.00615623
-0.00160143
-0.531891
0.527337
-0.000876982
0.00155215
-0.275218
0.274543
-0.00125967
0.000591602
-0.101506
0.102174
-1.33163e-05
-0.000454108
-0.0141227
0.0145901
0.000580165
-0.000434978
0.0127478
-0.012893
0.000190375
0.00547439
-0.00566476
-0.0776952
0.0762995
0.00139568
-0.00485132
0.00507996
-0.430114
0.429885
-0.00363689
0.00169745
-0.605809
0.607749
0.00185235
-0.00550513
-0.744032
0.747685
0.0097721
-0.0141093
-0.868192
0.872529
0.0187867
-0.0235374
-0.994391
0.999141
0.0281676
-0.0322213
-1.13459
1.13865
0.0366068
-0.0399279
-1.28906
1.29238
0.04272
-0.044731
-1.45738
1.45939
0.0453347
-0.0443346
-1.64129
1.64029
0.0417715
-0.0377276
-1.55091
1.54686
0.0333042
-0.0278736
-1.2431
1.23766
0.0226375
-0.016542
-1.00596
0.999867
0.0107895
-0.00516148
-0.780267
0.774639
0.000629153
0.00306681
-0.520545
0.516849
-0.00481489
0.00495444
-0.271395
0.271255
-0.00417965
0.00296274
-0.101792
0.103009
-0.00190321
0.000886621
-0.0146926
0.0157092
-0.00027481
-4.07507e-05
0.0129981
-0.0126825
7.61257e-05
0.00576855
-0.00584467
-0.0774582
0.076278
0.00118021
-0.00360152
0.00362512
-0.433123
0.433099
-0.00243216
0.00055746
-0.612215
0.614089
0.00270709
-0.00619868
-0.751804
0.755296
0.0102287
-0.0140984
-0.876657
0.880527
0.0188242
-0.0226877
-1.00325
1.00711
0.0271877
-0.0309593
-1.14281
1.14658
0.0350844
-0.038439
-1.2956
1.29896
0.0413192
-0.0428761
-1.46106
1.46262
0.043508
-0.0425435
-1.63908
1.63812
0.0402183
-0.0360149
-1.54254
1.53833
0.0315954
-0.0260974
-1.23213
1.22663
0.0208265
-0.0145964
-0.993078
0.986848
0.00889268
-0.00302592
-0.766827
0.76096
-0.00128069
0.004682
-0.510669
0.507268
-0.00639022
0.00641613
-0.268757
0.268731
-0.00561367
0.00428988
-0.103043
0.104367
-0.0030737
0.0017862
-0.0163467
0.0176342
-0.000892862
0.000264491
0.0123264
-0.011698
-2.44542e-05
0.00580772
-0.00578326
-0.0775071
0.0766593
0.000847778
-0.00245913
0.0020188
-0.436136
0.436576
-0.0010193
-0.000910549
-0.617808
0.619738
0.00382005
-0.00714459
-0.758957
0.762282
0.0109595
-0.0149149
-0.884262
0.888217
0.018952
-0.0229189
-1.01115
1.01511
0.0272986
-0.030768
-1.15074
1.15421
0.0348764
-0.0380643
-1.30204
1.30523
0.0408328
-0.0427436
-1.4645
1.46642
0.0436212
-0.0426632
-1.63708
1.63612
0.0402483
-0.0364208
-1.53417
1.53035
0.0322463
-0.0268019
-1.22086
1.21542
0.0215095
-0.0155722
-0.980218
0.974281
0.0095759
-0.00381202
-0.753461
0.747697
-0.000595604
0.00399532
-0.501481
0.498081
-0.00571014
0.00624738
-0.26632
0.265783
-0.00580793
0.00480163
-0.104538
0.105545
-0.00364655
0.00232819
-0.0184626
0.019781
-0.00130943
0.00049974
0.0110809
-0.0102712
-0.00010657
0.0056469
-0.00554033
-0.077973
0.0772993
0.000673744
-0.00148068
0.00107829
-0.43932
0.439722
0.000430813
-0.00220118
-0.623428
0.625198
0.00526301
-0.00843419
-0.765534
0.768705
0.0120703
-0.0155853
-0.891838
0.895353
0.0197051
-0.0233043
-1.01904
1.02264
0.0275683
-0.0314187
-1.15809
1.16194
0.0350729
-0.0384994
-1.30841
1.31184
0.0415757
-0.043439
-1.46814
1.47
0.0445052
-0.0441148
-1.63529
1.6349
0.0419209
-0.0384736
-1.52628
1.52283
0.0343126
-0.0291449
-1.20992
1.20475
0.0241387
-0.0182355
-0.967712
0.961809
0.0125315
-0.00670606
-0.740454
0.734629
0.0020829
0.0016793
-0.492148
0.488385
-0.0037457
0.00470353
-0.263304
0.262346
-0.00484931
0.00428699
-0.105429
0.105992
-0.00344309
0.00234902
-0.020549
0.0216431
-0.00141566
0.000600938
0.00954518
-0.00873046
-0.000155931
0.005339
-0.00518307
-0.0787412
0.0782474
0.00049382
-0.000395392
-0.000190718
-0.442644
0.44323
0.00155866
-0.00363103
-0.628618
0.630691
0.00661417
-0.00961556
-0.771819
0.77482
0.0133261
-0.0166693
-0.898842
0.902185
0.0205964
-0.0242827
-1.02669
1.03038
0.0284081
-0.0321729
-1.1656
1.16937
0.0359889
-0.0393771
-1.31513
1.31852
0.0425501
-0.0450727
-1.47209
1.47462
0.0464461
-0.0461963
-1.63436
1.63411
0.0445165
-0.0412169
-1.51918
1.51588
0.0374786
-0.0327525
-1.19946
1.19474
0.0277375
-0.022025
-0.955494
0.949782
0.0164759
-0.010539
-0.727684
0.721747
0.00577903
-0.00155861
-0.482683
0.478463
-0.00093114
0.00251772
-0.259387
0.257801
-0.00313571
0.00310254
-0.105387
0.10542
-0.00271231
0.00198408
-0.0221406
0.0228689
-0.00126779
0.000577334
0.00806873
-0.00737828
-0.000159162
0.00496382
-0.00480466
-0.0797549
0.079389
0.000365834
0.000480619
-0.00119035
-0.446139
0.446849