/*--------------------------------*- C++ -*----------------------------------*\
  =========                 |
  \\      /  F ield         | OpenFOAM: The Open Source CFD Toolbox
   \\    /   O peration     | Website:  https://openfoam.org
    \\  /    A nd           | Version:  6
     \\/     M anipulation  |
\*---------------------------------------------------------------------------*/
FoamFile
{
    version     2.0;
    format      ascii;
    class       volVectorField;
    location    "62.6";
    object      U;
}
// * * * * * * * * * * * * * * * * * * * * * * * * * * * * * * * * * * * * * //

dimensions      [0 1 -1 0 0 0 0];

internalField   nonuniform List<vector> 
8800
(
(0.987184 -0.0766665 0)
(1.00189 -0.0551924 0)
(0.999723 -0.0285512 0)
(1.00002 -0.015147 0)
(1.00008 -0.00854951 0)
(1.00009 -0.00505427 0)
(1.00006 -0.00301069 0)
(1.00002 -0.00170999 0)
(0.999999 -0.00080234 0)
(1.00006 -8.49847e-05 0)
(0.999985 0.00064539 0)
(0.999994 0.00141145 0)
(1.00002 0.00243288 0)
(1.00005 0.00400279 0)
(1.00004 0.0066324 0)
(1.00001 0.0113703 0)
(0.999898 0.020814 0)
(0.999151 0.038671 0)
(1.0071 0.0724571 0)
(0.771213 0.0366612 0)
(0.36306 -0.0160182 0)
(1.0433 -0.0768214 0)
(1.08459 -0.0704562 0)
(1.04518 -0.0535549 0)
(1.02327 -0.0389108 0)
(1.012 -0.0262393 0)
(1.00641 -0.0168835 0)
(1.00358 -0.0103543 0)
(1.00215 -0.00569456 0)
(1.00145 -0.00203614 0)
(1.00131 0.00128812 0)
(1.00168 0.00467277 0)
(1.00266 0.00860798 0)
(1.00465 0.0139457 0)
(1.00859 0.0216524 0)
(1.01655 0.0326212 0)
(1.03246 0.0465368 0)
(1.06263 0.061656 0)
(1.09187 0.0760969 0)
(0.838676 0.0565601 0)
(0.216825 -0.00243086 0)
(1.07588 -0.050149 0)
(1.09986 -0.0483295 0)
(1.06462 -0.0404872 0)
(1.04001 -0.0336359 0)
(1.02389 -0.0261222 0)
(1.0141 -0.0185441 0)
(1.00854 -0.0117256 0)
(1.00558 -0.00585761 0)
(1.00433 -0.000438205 0)
(1.00467 0.00481096 0)
(1.00659 0.010205 0)
(1.0106 0.016302 0)
(1.01793 0.0233283 0)
(1.03053 0.0307945 0)
(1.05061 0.0378284 0)
(1.08032 0.0445148 0)
(1.10625 0.0513341 0)
(0.94254 0.0416117 0)
(0.216166 0.0024611 0)
(0.175138 -0.000817633 0)
(1.01764 -0.0355018 0)
(1.10517 -0.0414076 0)
(1.07823 -0.0360984 0)
(1.05343 -0.0301718 0)
(1.03617 -0.0246045 0)
(1.02397 -0.0188816 0)
(1.01586 -0.0128046 0)
(1.01101 -0.00661785 0)
(1.00881 -0.000281989 0)
(1.00939 0.00597662 0)
(1.01264 0.0119789 0)
(1.01887 0.0178184 0)
(1.02877 0.0233958 0)
(1.0432 0.0287001 0)
(1.06372 0.0341897 0)
(1.09354 0.0401789 0)
(1.09341 0.0419474 0)
(0.82718 0.0229076 0)
(0.174026 0.000852306 0)
(0.153921 -0.000611618 0)
(0.956091 -0.0254795 0)
(1.1034 -0.0351647 0)
(1.08763 -0.0326973 0)
(1.06167 -0.0280534 0)
(1.04406 -0.0230395 0)
(1.0316 -0.0178008 0)
(1.02276 -0.0122733 0)
(1.01695 -0.00633793 0)
(1.01411 0.000132346 0)
(1.0148 0.00659739 0)
(1.01877 0.0124866 0)
(1.0258 0.0177898 0)
(1.03611 0.0227097 0)
(1.05066 0.0274709 0)
(1.0719 0.0320099 0)
(1.10006 0.0359503 0)
(1.06809 0.0340163 0)
(0.739591 0.014308 0)
(0.152247 0.000650945 0)
(0.139533 -0.000467946 0)
(0.899137 -0.0191009 0)
(1.0957 -0.0301227 0)
(1.09568 -0.0292433 0)
(1.06918 -0.025522 0)
(1.05075 -0.0213928 0)
(1.03783 -0.0166278 0)
(1.02873 -0.0113482 0)
(1.02262 -0.00560909 0)
(1.0195 0.000718689 0)
(1.02013 0.00703483 0)
(1.02422 0.0126752 0)
(1.03137 0.017648 0)
(1.0419 0.0221175 0)
(1.05703 0.0260905 0)
(1.07922 0.0295646 0)
(1.10228 0.0321961 0)
(1.03601 0.0281037 0)
(0.673044 0.0102058 0)
(0.137168 0.000513312 0)
(0.128974 -0.000362652 0)
(0.849488 -0.0147416 0)
(1.08328 -0.0259976 0)
(1.10134 -0.0263038 0)
(1.07602 -0.0230289 0)
(1.05706 -0.0193963 0)
(1.04368 -0.0151629 0)
(1.03423 -0.0102475 0)
(1.02788 -0.00471778 0)
(1.02458 0.00142968 0)
(1.02506 0.00753115 0)
(1.02911 0.0128971 0)
(1.03637 0.0174616 0)
(1.04719 0.0213236 0)
(1.06271 0.0246338 0)
(1.08535 0.027594 0)
(1.10139 0.0293567 0)
(1.00111 0.0235884 0)
(0.621227 0.00784238 0)
(0.12577 0.000416053 0)
(0.120913 -0.000282093 0)
(0.807281 -0.0115868 0)
(1.06796 -0.0223947 0)
(1.10485 -0.0236783 0)
(1.08226 -0.0208194 0)
(1.06288 -0.0174032 0)
(1.04923 -0.0134773 0)
(1.0395 -0.00890283 0)
(1.03287 -0.00365017 0)
(1.02932 0.00228113 0)
(1.02963 0.00814109 0)
(1.03363 0.0131604 0)
(1.04096 0.017256 0)
(1.05188 0.0206112 0)
(1.06762 0.0235091 0)
(1.09059 0.0261708 0)
(1.09761 0.0270385 0)
(0.965861 0.0200476 0)
(0.579588 0.0063084 0)
(0.116689 0.000345587 0)
(0.11466 -0.000219016 0)
(0.771741 -0.00922756 0)
(1.05114 -0.0192243 0)
(1.1072 -0.0212492 0)
(1.08811 -0.0187595 0)
(1.06835 -0.0154867 0)
(1.05446 -0.0117267 0)
(1.04453 -0.00736813 0)
(1.03766 -0.00235836 0)
(1.03383 0.00331404 0)
(1.03393 0.00886639 0)
(1.0378 0.0135074 0)
(1.04507 0.0171833 0)
(1.056 0.0201469 0)
(1.07193 0.0227282 0)
(1.09456 0.0250563 0)
(1.09101 0.0251145 0)
(0.931556 0.0173157 0)
(0.545111 0.00526159 0)
(0.109197 0.000294932 0)
(0.109782 -0.000168281 0)
(0.741923 -0.00739659 0)
(1.03389 -0.0164145 0)
(1.10861 -0.018964 0)
(1.09367 -0.0167856 0)
(1.07362 -0.0136096 0)
(1.05947 -0.00994236 0)
(1.04935 -0.00570463 0)
(1.04226 -0.000872525 0)
(1.03815 0.00455726 0)
(1.03795 0.00979842 0)
(1.0416 0.0140816 0)
(1.04873 0.0174009 0)
(1.05962 0.020018 0)
(1.07575 0.0223035 0)
(1.09725 0.0242515 0)
(1.08197 0.0235402 0)
(0.898761 0.0152424 0)
(0.515747 0.00453292 0)
(0.102813 0.000259464 0)
(0.105995 -0.000126118 0)
(0.717011 -0.00591992 0)
(1.01703 -0.0138932 0)
(1.10918 -0.0167522 0)
(1.09912 -0.0148487 0)
(1.07882 -0.0116817 0)
(1.06437 -0.00804558 0)
(1.05403 -0.00387983 0)
(1.0467 0.000829591 0)
(1.04226 0.0060511 0)
(1.0417 0.0109917 0)
(1.04504 0.0149302 0)
(1.05199 0.0178947 0)
(1.06284 0.0201734 0)
(1.07913 0.0222025 0)
(1.09859 0.0237582 0)
(1.07087 0.0223087 0)
(0.867591 0.0137117 0)
(0.490041 0.00403179 0)
(0.097196 0.000236051 0)
(0.10311 -8.95848e-05 0)
(0.696361 -0.00468153 0)
(1.00118 -0.0115941 0)
(1.10908 -0.0145847 0)
(1.10442 -0.0128728 0)
(1.08402 -0.00967349 0)
(1.06925 -0.00601772 0)
(1.05865 -0.00185546 0)
(1.05101 0.00279205 0)
(1.04618 0.00784934 0)
(1.04518 0.0125205 0)
(1.04815 0.0161412 0)
(1.05486 0.0187782 0)
(1.06565 0.0207211 0)
(1.08207 0.0224858 0)
(1.09895 0.0236303 0)
(1.05799 0.0214337 0)
(0.837882 0.0126336 0)
(0.466907 0.00370317 0)
(0.0920867 0.000222332 0)
(0.101009 -5.59706e-05 0)
(0.679503 -0.00359395 0)
(0.986772 -0.00944418 0)
(1.1085 -0.012369 0)
(1.10953 -0.0107775 0)
(1.08929 -0.00752392 0)
(1.07419 -0.00378171 0)
(1.06327 0.000433108 0)
(1.05525 0.00506963 0)
(1.04993 0.0100252 0)
(1.04839 0.0144707 0)
(1.05092 0.0177684 0)
(1.05737 0.0200553 0)
(1.06805 0.0216546 0)
(1.0845 0.0231541 0)
(1.0983 0.0238829 0)
(1.04349 0.0209251 0)
(0.809309 0.0119366 0)
(0.445494 0.00350883 0)
(0.0872843 0.000216346 0)
(0.0996294 -2.302e-05 0)
(0.666136 -0.00258795 0)
(0.974184 -0.00737101 0)
(1.10777 -0.0100483 0)
(1.1146 -0.00848242 0)
(1.09472 -0.0051215 0)
(1.07924 -0.00124014 0)
(1.06794 0.00308696 0)
(1.05947 0.00777566 0)
(1.05355 0.0126564 0)
(1.05137 0.0168767 0)
(1.05336 0.0198725 0)
(1.05947 0.0218149 0)
(1.07004 0.0230498 0)
(1.0865 0.0242821 0)
(1.09642 0.0245602 0)
(1.02743 0.0207733 0)
(0.781446 0.0115658 0)
(0.425104 0.00342356 0)
(0.0826248 0.000216636 0)
(0.0989565 1.14589e-05 0)
(0.656105 -0.00160853 0)
(0.963716 -0.00530062 0)
(1.10722 -0.00756759 0)
(1.11976 -0.0059536 0)
(1.10039 -0.00244986 0)
(1.08449 0.00164268 0)
(1.07274 0.0061659 0)
(1.0637 0.0109733 0)
(1.05706 0.0158416 0)
(1.0541 0.0198709 0)
(1.05546 0.0225498 0)
(1.06118 0.02414 0)
(1.07158 0.0249998 0)
(1.08794 0.0259218 0)
(1.09324 0.0256847 0)
(1.00978 0.0210034 0)
(0.753828 0.0114929 0)
(0.405161 0.00343274 0)
(0.0779755 0.000222561 0)
(0.0990113 4.48727e-05 0)
(0.649388 -0.000607842 0)
(0.955676 -0.00315947 0)
(1.10717 -0.00484167 0)
(1.12514 -0.00305728 0)
(1.10639 0.000668268 0)
(1.09003 0.00504188 0)
(1.07775 0.00981439 0)
(1.06802 0.0148046 0)
(1.06051 0.0197093 0)
(1.0566 0.0235631 0)
(1.05719 0.0259158 0)
(1.06244 0.0271149 0)
(1.07266 0.0275745 0)
(1.08861 0.0281306 0)
(1.08857 0.0272717 0)
(0.990392 0.0216561 0)
(0.725924 0.0117025 0)
(0.385136 0.00352878 0)
(0.0732147 0.000233575 0)
(0.0998319 8.5053e-05 0)
(0.646059 0.000427913 0)
(0.95038 -0.000876738 0)
(1.10802 -0.00180604 0)
(1.131 0.000273754 0)
(1.11284 0.00431382 0)
(1.09596 0.00905515 0)
(1.08303 0.0141769 0)
(1.07248 0.0194252 0)
(1.0639 0.0243988 0)
(1.05887 0.0280718 0)
(1.05854 0.0300714 0)
(1.06322 0.0308768 0)
(1.07321 0.0309096 0)
(1.08841 0.0310436 0)
(1.08214 0.0294247 0)
(0.968993 0.022746 0)
(0.697162 0.0121818 0)
(0.364538 0.00370293 0)
(0.0682348 0.000248871 0)
(0.101628 0.000145143 0)
(0.646513 0.0015853 0)
(0.948189 0.00163543 0)
(1.11016 0.00165828 0)
(1.13748 0.00415132 0)
(1.11988 0.00859797 0)
(1.10242 0.0138099 0)
(1.08871 0.0193769 0)
(1.07712 0.0249654 0)
(1.06725 0.0300805 0)
(1.06087 0.0336098 0)
(1.05947 0.0352183 0)
(1.06347 0.0355676 0)
(1.07316 0.035133 0)
(1.08705 0.0347729 0)
(1.0737 0.0322202 0)
(0.945209 0.0243253 0)
(0.666925 0.0129308 0)
(0.3429 0.00395151 0)
(0.0629401 0.000267937 0)
(0.104451 0.000206718 0)
(0.651134 0.00300785 0)
(0.949559 0.00452861 0)
(1.11408 0.00569294 0)
(1.14483 0.00876805 0)
(1.12766 0.0137851 0)
(1.10952 0.0195784 0)
(1.09485 0.0256818 0)
(1.08202 0.031684 0)
(1.07059 0.0369484 0)
(1.06258 0.0402748 0)
(1.05992 0.0414368 0)
(1.06312 0.0413243 0)
(1.07245 0.0403695 0)
(1.08438 0.0394826 0)
(1.06287 0.0357682 0)
(0.918524 0.0264279 0)
(0.634537 0.0139445 0)
(0.31977 0.00426659 0)
(0.0572459 0.000289836 0)
(0.108583 0.000288783 0)
(0.660387 0.00467873 0)
(0.954965 0.00794179 0)
(1.12032 0.0104403 0)
(1.15338 0.0142801 0)
(1.13641 0.0200375 0)
(1.11742 0.0265658 0)
(1.10156 0.0333487 0)
(1.08719 0.0398486 0)
(1.07385 0.0452776 0)
(1.06394 0.048346 0)
(1.05984 0.048977 0)
(1.06208 0.0483229 0)
(1.07097 0.0467745 0)
(1.08048 0.0452624 0)
(1.04921 0.0401607 0)
(0.888288 0.0290852 0)
(0.599281 0.0152063 0)
(0.29473 0.00463491 0)
(0.0510893 0.000312836 0)
(0.114365 0.000400757 0)
(0.675088 0.00677963 0)
(0.965087 0.0120846 0)
(1.1294 0.0161556 0)
(1.16342 0.0209714 0)
(1.14638 0.0276917 0)
(1.12633 0.0351189 0)
(1.10897 0.0427012 0)
(1.09267 0.0497555 0)
(1.07704 0.0553407 0)
(1.06488 0.0580658 0)
(1.05907 0.0580308 0)
(1.06026 0.0567504 0)
(1.06868 0.0545523 0)
(1.07508 0.0523166 0)
(1.03209 0.0454835 0)
(0.853704 0.0323006 0)
(0.560408 0.0166807 0)
(0.267421 0.00503493 0)
(0.0444389 0.000334758 0)
(0.122317 0.0005561 0)
(0.696152 0.00952572 0)
(0.980794 0.0172582 0)
(1.14202 0.023174 0)
(1.17545 0.0292588 0)
(1.15786 0.0372594 0)
(1.13642 0.0457651 0)
(1.11713 0.0542466 0)
(1.09844 0.0618571 0)
(1.08002 0.0674451 0)
(1.06527 0.0696057 0)
(1.0575 0.0687607 0)
(1.05758 0.0667566 0)
(1.06546 0.0638096 0)
(1.06783 0.0606361 0)
(1.01072 0.0518094 0)
(0.813837 0.0360339 0)
(0.517194 0.0182984 0)
(0.237603 0.00543242 0)
(0.0373112 0.000352395 0)
(0.133168 0.000781891 0)
(0.724892 0.0133024 0)
(1.00324 0.0239326 0)
(1.15897 0.0320325 0)
(1.1901 0.0397098 0)
(1.17123 0.0493544 0)
(1.14785 0.0591332 0)
(1.12605 0.0685815 0)
(1.10434 0.0766376 0)
(1.08263 0.0819962 0)
(1.06492 0.0833013 0)
(1.05504 0.0814066 0)
(1.05389 0.0785138 0)
(1.06103 0.0746575 0)
(1.05806 0.0704234 0)
(0.984097 0.0591106 0)
(0.767651 0.0401809 0)
(0.469027 0.0199394 0)
(0.205234 0.00577793 0)
(0.0297902 0.000361719 0)
(0.148171 0.00113575 0)
(0.76328 0.0187373 0)
(1.03407 0.0328875 0)
(1.18117 0.0436623 0)
(1.20813 0.0534103 0)
(1.18679 0.0650035 0)
(1.16069 0.0761742 0)
(1.13554 0.0864737 0)
(1.1101 0.0946555 0)
(1.08454 0.099343 0)
(1.06359 0.0993641 0)
(1.05149 0.0961322 0)
(1.04908 0.0921774 0)
(1.05503 0.0874869 0)
(1.04505 0.0816742 0)
(0.950925 0.0673042 0)
(0.714107 0.0445152 0)
(0.415582 0.0214226 0)
(0.170591 0.00600614 0)
(0.0220472 0.000358205 0)
(0.169494 0.00174921 0)
(0.814539 0.0269565 0)
(1.07585 0.0456587 0)
(1.20977 0.0599316 0)
(1.23015 0.0725041 0)
(1.20464 0.0859199 0)
(1.17466 0.0982749 0)
(1.1452 0.108913 0)
(1.11529 0.116541 0)
(1.08541 0.119792 0)
(1.06102 0.117916 0)
(1.04667 0.113006 0)
(1.04303 0.1078 0)
(1.04746 0.102183 0)
(1.02777 0.0943323 0)
(0.909629 0.0760425 0)
(0.652414 0.0486757 0)
(0.357156 0.0225049 0)
(0.134446 0.00604171 0)
(0.0143636 0.000336751 0)
(0.200469 0.00309296 0)
(0.884377 0.040537 0)
(1.13227 0.066008 0)
(1.24523 0.0844259 0)
(1.25591 0.0997035 0)
(1.22412 0.114415 0)
(1.18889 0.127019 0)
(1.15414 0.13687 0)
(1.11917 0.14281 0)
(1.08467 0.143616 0)
(1.05681 0.139061 0)
(1.04034 0.132005 0)
(1.03558 0.12532 0)
(1.03788 0.118583 0)
(1.00479 0.108102 0)
(0.858373 0.0847344 0)
(0.58257 0.0521271 0)
(0.295373 0.0229795 0)
(0.0984266 0.00584217 0)
(0.00720491 0.00029109 0)
(0.242748 0.00923954 1.01089e-20)
(0.976783 0.0673806 8.64977e-21)
(1.20095 0.100444 -3.00861e-21)
(1.28433 0.120849 0)
(1.28252 0.138587 -7.5638e-35)
(1.24306 0.152792 1.10357e-21)
(1.20183 0.163886 -1.97887e-21)
(1.16131 0.171524 0)
(1.12092 0.174707 4.04654e-35)
(1.08153 0.172285 -2.43154e-21)
(1.04997 0.164561 0)
(1.03123 0.155147 -2.88225e-21)
(1.0255 0.147054 -8.50176e-21)
(1.02493 0.139917 -4.02104e-21)
(0.972338 0.125553 -1.21008e-21)
(0.791495 0.0948194 -7.18894e-22)
(0.499368 0.0552767 0)
(0.228687 0.0232284 5.03714e-22)
(0.0626243 0.00569677 5.9661e-22)
(0.00055416 0.0002294 1.08933e-20)
(0.272052 0.0243028 7.48178e-21)
(1.05326 0.109775 1.09266e-22)
(1.25763 0.149513 8.05679e-22)
(1.31928 0.169872 0)
(1.3058 0.18786 -3.848e-21)
(1.25923 0.199929 -4.35869e-21)
(1.21205 0.208713 -1.99786e-21)
(1.16567 0.213866 -7.08334e-21)
(1.11964 0.214273 0)
(1.07492 0.208653 1.03316e-20)
(1.03915 0.197811 1.02327e-20)
(1.0178 0.186023 3.0369e-21)
(1.00996 0.175979 1.1065e-20)
(1.0016 0.165974 1.55511e-20)
(0.921751 0.145763 0)
(0.701754 0.105754 2.19245e-20)
(0.402029 0.058591 3.1479e-20)
(0.159399 0.022946 3.50389e-20)
(0.0270684 0.0043898 -4.01996e-20)
(-0.00614574 -0.000422025 -7.66193e-22)
(0.273472 0.040965 0)
(1.10189 0.164646 1.30864e-21)
(1.29592 0.209544 0)
(1.34646 0.229627 -5.06053e-21)
(1.32399 0.244944 0)
(1.27147 0.253126 -8.5781e-21)
(1.2187 0.258154 4.0847e-21)
(1.16677 0.259699 -1.42715e-20)
(1.11535 0.256483 -3.18349e-22)
(1.06556 0.247085 5.34674e-21)
(1.02582 0.232706 2.248e-20)
(1.00191 0.218255 -4.68204e-23)
(0.991678 0.206085 -8.03344e-21)
(0.975378 0.19288 -1.46209e-20)
(0.876195 0.166175 1.73156e-20)
(0.638042 0.116531 -3.06866e-20)
(0.346071 0.0616749 -4.05568e-21)
(0.124126 0.0223904 0)
(0.00954512 0.0024651 -2.42362e-24)
(-0.00972761 -0.00130704 0)
(0.267031 0.0549944 1.76321e-20)
(1.12819 0.223176 -8.46284e-21)
(1.31958 0.274095 -6.37535e-21)
(1.36441 0.294702 2.39458e-21)
(1.33571 0.306366 -4.01363e-21)
(1.27871 0.310008 1.79827e-20)
(1.22133 0.310603 8.52779e-21)
(1.16456 0.307892 0)
(1.1083 0.30049 -2.68533e-20)
(1.05387 0.286806 0)
(1.01037 0.268531 -1.18003e-20)
(0.984012 0.251242 -1.45477e-20)
(0.971362 0.236682 -8.74248e-21)
(0.948673 0.21983 -1.06106e-20)
(0.838818 0.186729 0)
(0.597395 0.128665 0)
(0.317653 0.0671997 -2.64165e-20)
(0.108135 0.023107 5.22689e-21)
(0.000816594 0.000618625 -3.06885e-21)
(-0.0120518 -0.00231034 -3.63513e-21)
(0.25938 0.0673514 -7.16477e-21)
(1.13975 0.281636 0)
(1.33255 0.339646 1.30407e-20)
(1.37413 0.361228 6.74382e-21)
(1.34105 0.369217 9.27797e-21)
(1.28075 0.368343 0)
(1.21978 0.364409 8.3561e-21)
(1.15907 0.357246 1.58053e-20)
(1.09869 0.345409 1.3765e-20)
(1.04008 0.327224 2.51772e-20)
(0.993073 0.304947 0)
(0.964227 0.284641 -3.13713e-20)
(0.949196 0.267625 -1.88842e-20)
(0.921716 0.247223 -1.11699e-20)
(0.807747 0.208536 6.84061e-20)
(0.571765 0.143103 8.14767e-21)
(0.305068 0.0751966 3.83403e-20)
(0.104356 0.0254004 -1.81516e-19)
(-0.00153273 -0.000527516 1.07562e-19)
(-0.0132084 -0.00323435 -1.31284e-19)
(0.252061 0.0784586 -3.55484e-21)
(1.14197 0.338142 1.28396e-21)
(1.33782 0.404359 -1.41135e-21)
(1.37726 0.427289 -6.85378e-21)
(1.34101 0.431786 -7.84734e-21)
(1.27825 0.42658 3.63612e-22)
(1.21445 0.418266 -9.05548e-21)
(1.15047 0.406745 1.63589e-20)
(1.08651 0.39049 -2.96325e-20)
(1.02418 0.367807 0)
(0.973922 0.341452 -1.422e-20)
(0.942638 0.318011 -3.23155e-22)
(0.925293 0.298485 -2.06652e-20)
(0.894478 0.274784 0)
(0.780854 0.231234 -1.48288e-20)
(0.555028 0.15944 -3.52789e-20)
(0.302014 0.0855464 9.41356e-20)
(0.107674 0.0295119 -9.27502e-20)
(0.00102249 -0.000447077 1.31934e-19)
(-0.0130973 -0.00387991 -1.38836e-19)
(0.245897 0.0887224 -1.05174e-22)
(1.13839 0.392036 -4.61014e-22)
(1.33756 0.467215 -3.90003e-21)
(1.37525 0.49173 2.74577e-21)
(1.33663 0.493068 -3.95278e-21)
(1.272 0.483802 0)
(1.20589 0.471354 -8.44442e-21)
(1.13917 0.455681 -1.71442e-20)
(1.07213 0.435158 -1.54154e-20)
(1.00649 0.408055 0)
(0.953195 0.37767 -1.47717e-20)
(0.919575 0.351191 -1.82794e-20)
(0.900033 0.3292 2.2431e-20)
(0.866916 0.302544 -1.36031e-20)
(0.756132 0.254356 -6.48282e-20)
(0.541978 0.177336 3.85732e-20)
(0.302528 0.0973835 1.14713e-20)
(0.114445 0.035321 0)
(0.00665858 0.00104172 -1.2777e-19)
(-0.0119766 -0.00414267 -4.7489e-21)
(0.24102 0.0984763 1.71661e-22)
(1.13132 0.443161 -8.2017e-23)
(1.33325 0.527664 1.80684e-21)
(1.36931 0.553863 9.82009e-21)
(1.32887 0.552422 -1.45746e-20)
(1.26281 0.539435 1.71461e-20)
(1.19484 0.523148 1.82019e-20)
(1.1258 0.503572 -2.74122e-20)
(1.05603 0.479009 9.50424e-21)
(0.987308 0.447634 -6.19984e-20)
(0.93119 0.413398 -1.67039e-20)
(0.895364 0.384009 0)
(0.873764 0.359642 2.43561e-20)
(0.838857 0.330066 2.92055e-20)
(0.731938 0.277628 3.49523e-20)
(0.529582 0.195941 -4.19679e-20)
(0.303679 0.110146 -1.24404e-20)
(0.121755 0.0425295 1.46067e-20)
(0.0135814 0.00370552 0)
(-0.0102587 -0.00403801 -1.03276e-20)
(0.237319 0.107823 -6.61015e-21)
(1.12242 0.491591 2.73344e-21)
(1.32619 0.585622 -1.5791e-21)
(1.36047 0.613331 5.92756e-21)
(1.31855 0.60944 -6.55099e-21)
(1.25141 0.593077 -8.27165e-22)
(1.18191 0.573297 -1.99052e-20)
(1.11083 0.550129 -9.92458e-21)
(1.03858 0.521772 -2.68178e-20)
(0.967036 0.486359 6.4348e-23)
(0.908275 0.448434 -5.23914e-20)
(0.870387 0.416191 4.41546e-20)
(0.846884 0.389413 -2.67956e-20)
(0.810562 0.357133 3.22221e-20)
(0.707271 0.300554 0)
(0.515945 0.214612 -2.2839e-20)
(0.302644 0.123224 3.73239e-23)
(0.127947 0.0504742 -6.38627e-20)
(0.0204305 0.0071258 -9.4068e-21)
(-0.00826971 -0.0036441 0)
(0.234689 0.116993 0)
(1.11266 0.537536 3.67095e-21)
(1.31721 0.641228 -1.03037e-21)
(1.34953 0.669955 -5.37427e-21)
(1.30637 0.663888 -8.35105e-21)
(1.23837 0.644497 0)
(1.16759 0.621583 -9.0526e-21)
(1.09473 0.59515 -2.14368e-22)
(1.02025 0.563302 5.75279e-20)
(0.94605 0.524104 -8.53382e-21)
(0.884754 0.482606 -3.7852e-20)
(0.844869 0.447434 2.29843e-20)
(0.819659 0.418367 -4.50349e-22)
(0.781969 0.383339 3.43226e-20)
(0.681343 0.322833 2.11198e-20)
(0.500532 0.232444 -4.93204e-20)
(0.298538 0.135989 5.84773e-20)
(0.131434 0.0583589 1.73429e-20)
(0.025892 0.0107616 7.17243e-20)
(-0.00638281 -0.00309348 -1.94e-19)
(0.23305 0.126108 -3.16783e-21)
(1.10271 0.58118 3.62373e-21)
(1.30687 0.694021 -1.95125e-21)
(1.33713 0.723674 4.08906e-21)
(1.29287 0.715654 0)
(1.22421 0.693564 -7.88897e-21)
(1.15235 0.667872 3.04504e-20)
(1.07792 0.638517 2.1805e-20)
(1.00136 0.603494 0)
(0.924606 0.560781 -1.22984e-19)
(0.860814 0.515754 1.02506e-19)
(0.819051 0.477728 0)
(0.792261 0.44641 3.13736e-20)
(0.753198 0.408512 -4.50529e-22)
(0.654622 0.343789 -6.77281e-20)
(0.482955 0.248752 2.65268e-20)
(0.291379 0.147575 0)
(0.131553 0.0654108 9.36838e-20)
(0.029211 0.0139485 0)
(-0.00488458 -0.00256353 -9.19248e-20)
(0.232225 0.135217 4.07626e-21)
(1.09295 0.622706 5.51559e-21)
(1.29562 0.744041 -1.72744e-21)
(1.32379 0.774501 0)
(1.27854 0.764721 -7.05467e-21)
(1.20934 0.740237 0)
(1.13657 0.712095 -3.00787e-20)
(1.06073 0.680157 -1.01415e-20)
(0.982208 0.642291 1.01739e-20)
(0.902963 0.596332 -6.08815e-20)
(0.836655 0.547877 1.05976e-20)
(0.793071 0.507128 0)
(0.764769 0.473371 -6.70776e-20)
(0.724293 0.432262 4.40137e-22)
(0.627146 0.362984 0)
(0.46319 0.262948 2.52007e-22)
(0.281106 0.157139 8.55639e-20)
(0.128514 0.0707616 -8.09788e-20)
(0.0301231 0.0161567 2.39731e-20)
(-0.00393991 -0.00219467 0)
(0.231874 0.144223 0)
(1.08357 0.662229 7.17856e-21)
(1.28386 0.791387 3.753e-21)
(1.30988 0.8225 -5.09783e-22)
(1.26374 0.811115 -2.30915e-21)
(1.19411 0.784518 -1.778e-20)
(1.12056 0.754232 1.12924e-20)
(1.04343 0.720032 -1.19783e-20)
(0.963061 0.67966 4.54371e-20)
(0.881328 0.630735 -9.74561e-20)
(0.812448 0.579064 -8.15083e-22)
(0.767013 0.535589 -2.93984e-20)
(0.737186 0.49903 1.0893e-19)
(0.695246 0.454325 -5.22313e-22)
(0.599009 0.380005 -5.265e-20)
(0.441622 0.274633 -9.37607e-20)
(0.268145 0.164318 0)
(0.122778 0.0741156 0)
(0.029122 0.0171648 2.58788e-20)
(-0.00347699 -0.00205421 -1.53687e-20)
(0.232103 0.153246 6.35655e-21)
(1.07477 0.699594 -1.68954e-20)
(1.27187 0.836145 -4.06846e-21)
(1.29572 0.867755 0)
(1.24875 0.854893 -3.13881e-22)
(1.17878 0.826439 -1.62687e-20)
(1.10456 0.794295 2.72915e-20)
(1.02627 0.758132 4.72233e-20)
(0.944132 0.715591 5.91305e-20)
(0.859898 0.664012 -7.97183e-20)
(0.788349 0.609391 -8.83829e-20)
(0.740914 0.563029 7.87033e-20)
(0.709523 0.523285 0)
(0.666033 0.474522 -2.39467e-20)
(0.570235 0.394576 -5.69346e-20)
(0.418206 0.283552 -6.74104e-20)
(0.252841 0.168744 -7.97805e-20)
(0.11463 0.0753211 2.36245e-20)
(0.0265775 0.0170594 -1.39346e-20)
(-0.00338919 -0.00210983 6.09807e-23)
(0.232613 0.162089 0)
(1.06661 0.73535 0)
(1.25982 0.878411 5.22107e-22)
(1.2815 0.910365 0)
(1.23381 0.896145 4.99138e-21)
(1.16358 0.866063 1.10256e-20)
(1.0888 0.832313 0)
(1.00943 0.794467 5.61533e-21)
(0.925603 0.750078 9.8816e-20)
(0.838861 0.696203 -1.83465e-19)
(0.764491 0.638902 0)
(0.714811 0.589438 -5.07287e-20)
(0.681732 0.546182 -6.13807e-22)
(0.63653 0.49272 -4.74446e-22)
(0.540885 0.406436 6.09625e-20)
(0.393449 0.289377 -2.26783e-23)
(0.235714 0.170336 -1.71845e-19)
(0.104659 0.0744073 5.08155e-20)
(0.022825 0.0159255 1.50721e-20)
(-0.00353495 -0.00230715 0)
(0.233253 0.170785 -2.71691e-20)
(1.05885 0.769458 -1.23376e-20)
(1.2478 0.918246 -1.44305e-20)
(1.26741 0.950438 9.11047e-21)
(1.21908 0.934946 5.69581e-21)
(1.14867 0.903452 0)
(1.0734 0.868326 1.65466e-20)
(0.993064 0.82906 -1.25258e-20)
(0.907627 0.783136 7.93339e-22)
(0.818381 0.727356 1.353e-20)
(0.740987 0.667622 1.14741e-19)
(0.68875 0.614967 -1.78171e-20)
(0.653715 0.567868 -6.73095e-20)
(0.606574 0.50873 -2.79258e-20)
(0.511 0.415197 3.30906e-20)
(0.367982 0.291868 1.40142e-23)
(0.217327 0.168965 4.6285e-20)
(0.0936634 0.0714904 -1.09352e-19)
(0.018554 0.0139768 1.29713e-19)
(-0.00380635 -0.00260377 1.91544e-20)
(0.233712 0.179254 1.05661e-20)
(1.0515 0.802006 -7.1252e-21)
(1.23597 0.955766 1.29128e-21)
(1.25357 0.988086 7.32169e-21)
(1.2047 0.971406 1.75052e-22)
(1.13418 0.938679 -1.92292e-20)
(1.05852 0.902385 4.79415e-21)
(0.9773 0.861931 -5.22805e-20)
(0.890339 0.814768 -1.09209e-19)
(0.798595 0.757487 -1.09636e-19)
(0.71797 0.695599 0)
(0.662789 0.639861 -7.83309e-20)
(0.625339 0.588513 9.71116e-20)
(0.575868 0.522372 0)
(0.480492 0.420449 -7.093e-20)
(0.342364 0.290645 4.2212e-20)
(0.199012 0.164525 -4.97778e-20)
(0.082925 0.0669246 -5.88409e-20)
(0.0144448 0.0115847 -1.04486e-19)
(-0.00410398 -0.00293805 -8.24994e-20)
(0.234527 0.18759 -1.22182e-20)
(1.04441 0.832976 7.63773e-21)
(1.22438 0.99103 1.69065e-20)
(1.24009 1.02338 1.16322e-20)
(1.19077 1.00562 4.49667e-22)
(1.12018 0.971829 -1.02712e-20)
(1.04422 0.934537 1.60312e-20)
(0.962224 0.893122 -5.37858e-20)
(0.873823 0.844997 -6.47819e-20)
(0.779625 0.78661 1.14963e-19)
(0.69557 0.722909 2.5273e-19)
(0.637005 0.66437 0)
(0.596477 0.608288 0)
(0.544043 0.533649 -3.21895e-20)
(0.449013 0.421799 0)
(0.316803 0.284838 9.07537e-20)
(0.18212 0.156254 1.07034e-19)
(0.074448 0.0606841 0)
(0.011711 0.00911805 0)
(-0.00432658 -0.00324476 8.86667e-20)
(0.234998 0.195465 1.41818e-20)
(1.03761 0.862358 1.11692e-20)
(1.2131 1.02415 1.24377e-20)
(1.22703 1.05645 -1.23331e-20)
(1.17735 1.0377 -1.02952e-21)
(1.10676 1.00298 1.03468e-20)
(1.03057 0.964842 -2.20165e-20)
(0.947902 0.922661 -7.40315e-23)
(0.858165 0.87383 -1.03637e-21)
(0.76157 0.814717 -9.68601e-22)
(0.673934 0.74964 1.30357e-19)
(0.611495 0.688669 0)
(0.567086 0.6274 9.85814e-20)
(0.51071 0.542839 6.88053e-20)
(0.415789 0.419083 1.65645e-19)
(0.290804 0.273082 4.89169e-20)
(0.168067 0.141506 -5.76105e-20)
(0.0726269 0.0497426 -3.39243e-20)
(0.0159627 0.00533946 0)
(-0.00307376 -0.00320025 9.52911e-20)
(0.23582 0.203359 -3.26828e-20)
(1.03105 0.890301 0)
(1.20213 1.05518 1.52732e-20)
(1.21442 1.08738 -1.09156e-20)
(1.16449 1.06773 3.44982e-21)
(1.09394 1.03221 -1.06207e-20)
(1.01762 0.993355 4.26726e-20)
(0.934374 0.950583 -4.41081e-21)
(0.843411 0.901279 0)
(0.744511 0.841769 -1.27263e-19)
(0.653211 0.77586 -2.83951e-19)
(0.586394 0.712862 1.16143e-20)
(0.53724 0.646094 1.36279e-19)
(0.475599 0.550503 0)
(0.379678 0.412823 1.11904e-19)
(0.262024 0.25431 0)
(0.155004 0.114303 0)
(0.0830387 0.0189546 -3.66743e-20)
(0.0521078 -0.0135637 0)
(0.0266576 0.00615086 2.55437e-20)
(0.236202 0.210679 -3.70288e-20)
(1.0247 0.916994 0)
(1.19147 1.08431 2.60003e-20)
(1.2022 1.11642 0)
(1.15216 1.09599 -2.77008e-21)
(1.08166 1.05981 0)
(1.00531 1.02039 2.08007e-21)
(0.921546 0.977227 7.43394e-21)
(0.829438 0.927708 8.16448e-21)
(0.728275 0.868141 -1.39937e-19)
(0.633222 0.80205 8.5437e-21)
(0.561424 0.737534 9.36928e-20)
(0.506515 0.665127 1.3321e-19)
(0.437804 0.557401 1.79436e-20)
(0.338878 0.404609 8.78064e-20)
(0.225566 0.229592 0)
(0.131295 0.0707432 1.21364e-19)
(0.0729926 -0.0215327 -7.13197e-20)
(0.0321934 0.056785 8.33681e-20)
(-0.0382418 0.455041 -9.90523e-20)
(0.236529 0.217836 3.09853e-20)
(1.01836 0.942326 4.61664e-20)
(1.18103 1.11187 0)
(1.19025 1.144 1.05915e-21)
(1.14016 1.12306 9.45937e-21)
(1.06966 1.08647 1.09582e-20)
(0.993307 1.04674 1.47137e-20)
(0.909003 1.00354 0)
(0.815711 0.954222 5.41102e-20)
(0.712179 0.89515 -7.30366e-21)
(0.613044 0.82974 0)
(0.535295 0.764357 0)
(0.472949 0.685963 1.19412e-19)
(0.394872 0.564024 -5.54385e-20)
(0.290343 0.396395 -8.89942e-20)
(0.177408 0.202174 0)
(0.0749756 0.0841524 6.1646e-20)
(0.00643387 0.464637 -7.17736e-20)
(0.0315255 1.92415 -4.04712e-20)
(0.0582495 2.82343 -4.9496e-20)
(0.236482 0.224427 -2.37015e-20)
(1.01205 0.966471 -6.00285e-20)
(1.17083 1.13785 1.588e-20)
(1.17856 1.17 1.20564e-20)
(1.12855 1.14874 0)
(1.05803 1.11192 5.2707e-21)
(0.981838 1.0721 1.98658e-20)
(0.896939 1.02908 -3.59702e-21)
(0.802513 0.980302 8.08417e-21)
(0.696615 0.92219 1.33484e-19)
(0.593303 0.858259 1.44067e-19)
(0.508981 0.793039 1.0524e-19)
(0.437383 0.708655 1.20313e-19)
(0.348254 0.569323 -1.30419e-19)
(0.240564 0.392023 -1.34509e-19)
(0.116703 0.252153 0)
(0.0406245 0.878162 0)
(0.0885159 2.57883 3.43386e-20)
(0.0912032 3.21062 0)
(0.0924002 3.38897 8.99014e-20)
(0.239219 0.23056 0)
(1.00606 0.989802 0)
(1.16059 1.16211 0)
(1.16693 1.19428 3.84077e-21)
(1.11699 1.17278 9.19083e-21)
(1.04657 1.136 1.01574e-21)
(0.970821 1.09638 1.26724e-20)
(0.885287 1.05374 -3.50909e-21)
(0.789778 1.00577 6.76382e-20)
(0.681576 0.949106 -1.86581e-21)
(0.574081 0.887367 2.84979e-19)
(0.482863 0.823628 -1.21591e-20)
(0.399726 0.733858 1.46311e-20)
(0.30016 0.571331 1.89027e-20)
(0.18047 0.409902 -4.64906e-22)
(0.0933951 1.01138 3.46579e-22)
(0.126427 2.75944 -1.80769e-19)
(0.131265 3.30088 -6.8582e-20)
(0.121352 3.42411 3.65879e-20)
(0.110533 3.44406 -4.14083e-20)
(0.162265 0.176056 1.47703e-20)
(0.996036 1.01504 0)
(1.15014 1.18488 -3.36362e-20)
(1.15574 1.21723 -3.42562e-20)
(1.10595 1.19567 2.46564e-20)
(1.03597 1.15919 4.18591e-23)
(0.9601 1.11953 -1.29595e-20)
(0.874086 1.07754 3.90275e-20)
(0.77758 1.03072 -5.56094e-20)
(0.667271 0.976019 0)
(0.55565 0.917089 1.40582e-19)
(0.457509 0.855923 -8.60841e-20)
(0.360977 0.764368 0)
(0.244213 0.574055 1.82598e-20)
(0.133806 0.77622 4.36148e-20)
(0.14098 2.56044 -4.97649e-20)
(0.189613 3.32944 5.67631e-20)
(0.1717 3.43563 3.07898e-20)
(0.14242 3.45432 3.5263e-20)
(0.122923 3.4629 5.65867e-20)
(0.274434 0.269218 -2.83595e-20)
(0.97954 1.02607 0)
(1.13254 1.21123 3.70555e-20)
(1.14159 1.24884 3.90874e-20)
(1.0888 1.22948 -2.96287e-20)
(1.01824 1.19339 -5.2062e-21)
(0.941208 1.15527 1.14621e-20)
(0.854657 1.11461 3.05352e-21)
(0.756761 1.07007 5.28845e-20)
(0.643562 1.01952 1.15675e-19)
(0.526528 0.967132 7.92019e-21)
(0.416931 0.910991 7.65748e-20)
(0.291789 0.803855 1.38085e-20)
(0.206635 0.949219 -1.75591e-20)
(0.212173 2.43353 -3.99298e-20)
(0.26315 3.33495 3.98934e-20)
(0.24612 3.46257 -4.40459e-20)
(0.211662 3.48089 -2.55294e-20)
(0.177758 3.50503 -2.35453e-20)
(0.132589 3.49944 -3.43199e-21)
(0.264907 0.268283 0)
(0.977123 1.04935 1.11511e-20)
(1.12416 1.23511 -7.75629e-21)
(1.13081 1.27261 -4.79514e-21)
(1.07792 1.25293 -2.13065e-20)
(1.00738 1.21704 6.19757e-21)
(0.930037 1.17916 -5.64635e-21)
(0.843255 1.13937 2.72729e-21)
(0.744765 1.09636 -5.50346e-20)
(0.630154 1.0488 -2.85691e-21)
(0.510102 1.00131 -2.54114e-19)
(0.394564 0.948383 1.09413e-20)
(0.277944 0.877076 -1.30871e-20)
(0.241497 1.55313 -1.61951e-20)
(0.30343 3.14371 3.67457e-21)
(0.316972 3.46545 3.04269e-22)
(0.275159 3.51236 6.64625e-20)
(0.241045 3.53477 3.41397e-20)
(0.195197 3.55433 -1.1823e-20)
(0.145149 3.5504 -1.75033e-20)
(0.250997 0.26649 2.89264e-20)
(0.973823 1.07526 7.60623e-20)
(1.11544 1.2611 -2.22386e-20)
(1.11966 1.29799 -1.80675e-20)
(1.0666 1.27785 0)
(0.99614 1.24199 1.5426e-20)
(0.918773 1.20441 -4.98964e-21)
(0.832013 1.16543 2.3774e-21)
(0.733238 1.12405 -6.1278e-21)
(0.617746 1.07973 -1.04546e-19)
(0.495547 1.03761 -1.17249e-19)
(0.375948 0.988013 -8.98482e-20)
(0.276684 1.01946 -9.83794e-20)
(0.305807 2.30845 1.01724e-19)
(0.383245 3.39329 8.73717e-20)
(0.355678 3.52306 0)
(0.307342 3.5587 0)
(0.270579 3.59168 -9.34109e-21)
(0.226179 3.63667 0)
(0.15671 3.6205 -1.54623e-20)
(0.241212 0.268594 -4.36159e-20)
(0.9686 1.10209 -6.49942e-20)
(1.10536 1.28836 0)
(1.10729 1.32423 1.28669e-21)
(1.05406 1.30345 -2.46075e-20)
(0.983852 1.26753 2.75043e-20)
(0.906774 1.23026 -1.31607e-21)
(0.820259 1.19203 1.32593e-21)
(0.721452 1.15222 -3.87263e-20)
(0.605505 1.11116 5.21974e-21)
(0.482035 1.07447 0)
(0.358177 1.03139 0)
(0.300713 1.30683 -8.94213e-20)
(0.383377 2.97277 3.66926e-20)
(0.447889 3.49378 4.74967e-20)
(0.394942 3.55787 0)