/*--------------------------------*- C++ -*----------------------------------*\
  =========                 |
  \\      /  F ield         | OpenFOAM: The Open Source CFD Toolbox
   \\    /   O peration     | Website:  https://openfoam.org
    \\  /    A nd           | Version:  6
     \\/     M anipulation  |
\*---------------------------------------------------------------------------*/
FoamFile
{
    version     2.0;
    format      ascii;
    class       volVectorField;
    location    "30.2";
    object      U;
}
// * * * * * * * * * * * * * * * * * * * * * * * * * * * * * * * * * * * * * //

dimensions      [0 1 -1 0 0 0 0];

internalField   nonuniform List<vector> 
8800
(
(0.987188 -0.0766663 0)
(1.0019 -0.0551903 0)
(0.999756 -0.0285488 0)
(1.00004 -0.0151387 0)
(1.00004 -0.00852784 0)
(1.00001 -0.00501865 0)
(0.999993 -0.00298349 0)
(0.999985 -0.00171344 0)
(0.999981 -0.000836503 0)
(1.00005 -0.000128563 0)
(0.999987 0.000596397 0)
(0.999995 0.00136106 0)
(1 0.00238137 0)
(1.00001 0.00395904 0)
(1.00003 0.00659807 0)
(1.00006 0.011347 0)
(0.999977 0.0207992 0)
(0.999177 0.0386583 0)
(1.00709 0.0724514 0)
(0.771215 0.0366598 0)
(0.363046 -0.0160196 0)
(1.04329 -0.076829 0)
(1.08461 -0.0704724 0)
(1.04522 -0.0535767 0)
(1.02325 -0.0389379 0)
(1.01191 -0.0262699 0)
(1.0063 -0.0169284 0)
(1.0035 -0.0104195 0)
(1.00209 -0.0057795 0)
(1.00143 -0.00215271 0)
(1.00132 0.00110383 0)
(1.00169 0.00447831 0)
(1.00267 0.00844551 0)
(1.00464 0.0138292 0)
(1.00858 0.0215671 0)
(1.01658 0.0325444 0)
(1.03255 0.0464677 0)
(1.06273 0.0616001 0)
(1.0919 0.0760456 0)
(0.838757 0.0565409 0)
(0.216779 -0.00243127 0)
(1.07587 -0.0501624 0)
(1.09989 -0.048352 0)
(1.06461 -0.0405005 0)
(1.03991 -0.0336326 0)
(1.02372 -0.0261141 0)
(1.01394 -0.0185946 0)
(1.00844 -0.011867 0)
(1.00554 -0.00605719 0)
(1.00433 -0.000689996 0)
(1.0047 0.00452806 0)
(1.00664 0.00991268 0)
(1.0106 0.016018 0)
(1.01792 0.0230595 0)
(1.03057 0.0305542 0)
(1.05071 0.0376295 0)
(1.08048 0.0443637 0)
(1.10641 0.051221 0)
(0.942774 0.0415561 0)
(0.216314 0.0024526 0)
(0.175069 -0.000818478 0)
(1.01756 -0.0355228 0)
(1.10514 -0.0414497 0)
(1.07817 -0.0361642 0)
(1.05326 -0.0302627 0)
(1.03594 -0.0247247 0)
(1.02374 -0.0190489 0)
(1.01567 -0.0130173 0)
(1.01087 -0.00689731 0)
(1.00874 -0.000654483 0)
(1.00936 0.0055206 0)
(1.01266 0.0115081 0)
(1.01887 0.0174139 0)
(1.02878 0.0230821 0)
(1.04328 0.0284352 0)
(1.06386 0.0339479 0)
(1.09375 0.0399595 0)
(1.0937 0.041774 0)
(0.8277 0.0228288 0)
(0.174289 0.000842871 0)
(0.153833 -0.000611874 0)
(0.955955 -0.0254962 0)
(1.10333 -0.0351908 0)
(1.0875 -0.032712 0)
(1.06143 -0.0280484 0)
(1.04377 -0.0230596 0)
(1.03134 -0.0179555 0)
(1.02254 -0.0126144 0)
(1.01683 -0.00679317 0)
(1.01412 -0.00038372 0)
(1.01487 0.00605429 0)
(1.01886 0.0119218 0)
(1.02587 0.0172019 0)
(1.0362 0.0221232 0)
(1.05082 0.0269268 0)
(1.07211 0.0315416 0)
(1.10039 0.0355771 0)
(1.06867 0.0337541 0)
(0.740573 0.0141954 0)
(0.152663 0.000639473 0)
(0.139429 -0.00046776 0)
(0.898936 -0.0190995 0)
(1.09556 -0.0301472 0)
(1.09553 -0.0293111 0)
(1.06888 -0.0256371 0)
(1.05035 -0.0215541 0)
(1.03745 -0.0168801 0)
(1.02842 -0.0117229 0)
(1.02239 -0.006119 0)
(1.01939 6.54345e-05 0)
(1.02013 0.00625067 0)
(1.02433 0.0118297 0)
(1.03148 0.0168428 0)
(1.04203 0.0214181 0)
(1.0573 0.0254889 0)
(1.07959 0.0290076 0)
(1.1028 0.0316868 0)
(1.03703 0.0277233 0)
(0.674677 0.0100485 0)
(0.137784 0.000499453 0)
(0.128872 -0.000361519 0)
(0.849292 -0.014712 0)
(1.08301 -0.0259616 0)
(1.10096 -0.0262842 0)
(1.07551 -0.0230627 0)
(1.05656 -0.019537 0)
(1.04324 -0.0154791 0)
(1.0338 -0.0107591 0)
(1.02752 -0.00541543 0)
(1.02437 0.000575463 0)
(1.02499 0.00656572 0)
(1.02919 0.0118483 0)
(1.03656 0.016402 0)
(1.04745 0.0203324 0)
(1.06306 0.0236954 0)
(1.08569 0.0267017 0)
(1.10208 0.028571 0)
(1.00283 0.0230528 0)
(0.623759 0.00763001 0)
(0.12665 0.000398943 0)
(0.120833 -0.000279199 0)
(0.807204 -0.0115028 0)
(1.0677 -0.0222919 0)
(1.10445 -0.0235835 0)
(1.08162 -0.02073 0)
(1.06211 -0.0174367 0)
(1.04847 -0.0137978 0)
(1.0388 -0.00947242 0)
(1.03227 -0.00443986 0)
(1.02886 0.00123141 0)
(1.02939 0.00685731 0)
(1.03361 0.0117516 0)
(1.04104 0.015841 0)
(1.05207 0.019222 0)
(1.06807 0.0221608 0)
(1.09121 0.0249364 0)
(1.09882 0.0259699 0)
(0.968651 0.01931 0)
(0.583352 0.00602152 0)
(0.117912 0.000324048 0)
(0.114642 -0.000214244 0)
(0.77197 -0.00905651 0)
(1.0508 -0.0189603 0)
(1.1065 -0.0210531 0)
(1.08716 -0.018723 0)
(1.0673 -0.0156262 0)
(1.0534 -0.0120872 0)
(1.04349 -0.00798933 0)
(1.0367 -0.0033162 0)
(1.03306 0.00199449 0)
(1.03344 0.00724123 0)
(1.0376 0.0116596 0)
(1.04509 0.0152787 0)
(1.05622 0.0183521 0)
(1.07246 0.021046 0)
(1.09525 0.0234181 0)
(1.09271 0.0236035 0)
(0.935866 0.0162849 0)
(0.550564 0.00487681 0)
(0.110872 0.000268068 0)
(0.109885 -0.000160574 0)
(0.742817 -0.00710907 0)
(1.03378 -0.0159284 0)
(1.10764 -0.0184088 0)
(1.09231 -0.0162907 0)
(1.07226 -0.0133864 0)
(1.05815 -0.0101523 0)
(1.04806 -0.00636961 0)
(1.04109 -0.00203144 0)
(1.03726 0.00293072 0)
(1.03739 0.0077828 0)
(1.0414 0.0117522 0)
(1.04878 0.0148654 0)
(1.05994 0.017445 0)
(1.07635 0.019727 0)
(1.09817 0.0218107 0)
(1.08465 0.0214059 0)
(0.905355 0.0138403 0)
(0.523505 0.00402313 0)
(0.105078 0.000225839 0)
(0.106283 -0.000116418 0)
(0.718987 -0.00548883 0)
(1.01735 -0.0131316 0)
(1.10808 -0.0159449 0)
(1.0974 -0.014172 0)
(1.07691 -0.0113581 0)
(1.06247 -0.00823937 0)
(1.05224 -0.00460757 0)
(1.0451 -0.000494195 0)
(1.04101 0.00406317 0)
(1.04089 0.00840369 0)
(1.04466 0.0119118 0)
(1.05186 0.0146542 0)
(1.06299 0.0168544 0)
(1.07974 0.0188122 0)
(1.09997 0.0205261 0)
(1.07503 0.01946 0)
(0.877319 0.011846 0)
(0.500874 0.00338168 0)
(0.100213 0.00019626 0)
(0.103653 -7.72047e-05 0)
(0.69997 -0.00407791 0)
(1.00219 -0.0104643 0)
(1.10755 -0.0133777 0)
(1.10201 -0.0119743 0)
(1.08141 -0.00933172 0)
(1.06663 -0.00624043 0)
(1.05612 -0.0026896 0)
(1.04874 0.0012224 0)
(1.04433 0.00545036 0)
(1.04387 0.00937668 0)
(1.04733 0.012417 0)
(1.05438 0.0147192 0)
(1.06561 0.016618 0)
(1.0826 0.0182059 0)
(1.10059 0.0193811 0)
(1.06403 0.0176332 0)
(0.851862 0.0101944 0)
(0.481728 0.00288185 0)
(0.0960276 0.000174733 0)
(0.101916 -3.90514e-05 0)
(0.685421 -0.0027541 0)
(0.988975 -0.00780884 0)
(1.10649 -0.0105061 0)
(1.10602 -0.00925305 0)
(1.08572 -0.00670183 0)
(1.07071 -0.00374244 0)
(1.05981 -0.000445181 0)
(1.05197 0.00317019 0)
(1.04714 0.00710714 0)
(1.04625 0.0106351 0)
(1.04949 0.0131347 0)
(1.05648 0.0148043 0)
(1.06765 0.016084 0)
(1.08451 0.0173128 0)
(1.10014 0.0181179 0)
(1.05227 0.0158658 0)
(0.829015 0.0087733 0)
(0.465461 0.00247741 0)
(0.0923848 0.000159058 0)
(0.101016 -1.77373e-06 0)
(0.675199 -0.00153054 0)
(0.978235 -0.00524366 0)
(1.10554 -0.00756616 0)
(1.11005 -0.00637626 0)
(1.08999 -0.00395553 0)
(1.07466 -0.00115682 0)
(1.06366 0.00208241 0)
(1.05565 0.00561119 0)
(1.05039 0.00917722 0)
(1.04895 0.0121441 0)
(1.05158 0.0141345 0)
(1.05809 0.0153788 0)
(1.06907 0.0161497 0)
(1.0861 0.0167696 0)
(1.09884 0.0170408 0)
(1.04022 0.014311 0)
(0.80871 0.0076077 0)
(0.451583 0.00217365 0)
(0.089138 0.000150308 0)
(0.100949 2.78063e-05 0)
(0.669205 -0.000263144 0)
(0.9701 -0.00260072 0)
(1.10454 -0.00452339 0)
(1.1136 -0.00359595 0)
(1.09387 -0.00132051 0)
(1.07823 0.00155601 0)
(1.06685 0.00479859 0)
(1.05833 0.00822123 0)
(1.05242 0.011653 0)
(1.05036 0.014348 0)
(1.05252 0.0158454 0)
(1.05869 0.0164801 0)
(1.06959 0.0167568 0)
(1.08638 0.0167594 0)
(1.0963 0.0164163 0)
(1.02762 0.012983 0)
(0.790593 0.00663724 0)
(0.43963 0.00194001 0)
(0.0861567 0.000145249 0)
(0.101803 9.47028e-05 0)
(0.667462 0.000971156 0)
(0.964945 5.24709e-05 0)
(1.10375 -0.00116559 0)
(1.11681 -0.000226519 0)
(1.09791 0.0020074 0)
(1.08213 0.0049395 0)
(1.07045 0.00821448 0)
(1.06145 0.0115621 0)
(1.05486 0.0147439 0)
(1.05194 0.0169791 0)
(1.05334 0.017825 0)
(1.05895 0.0178753 0)
(1.06938 0.0175262 0)
(1.08581 0.0169997 0)
(1.09214 0.0158384 0)
(1.01479 0.0119164 0)
(0.774497 0.00597745 0)
(0.429203 0.00180523 0)
(0.0834274 0.000139749 0)
(0.10358 0.000127107 0)
(0.669273 0.00192739 0)
(0.963165 0.00240403 0)
(1.10406 0.00208278 0)
(1.12028 0.00330405 0)
(1.10202 0.00572588 0)
(1.086 0.00880551 0)
(1.07391 0.0121575 0)
(1.06435 0.0155373 0)
(1.05695 0.0185486 0)
(1.05294 0.02033 0)
(1.05336 0.0206326 0)
(1.05825 0.0199636 0)
(1.06825 0.0189127 0)
(1.08416 0.0178629 0)
(1.08689 0.0160558 0)
(1.00184 0.0116815 0)
(0.759616 0.00593791 0)
(0.419285 0.00188165 0)
(0.08075 0.000148201 0)
(0.106203 0.000172491 0)
(0.674603 0.00286539 0)
(0.964582 0.00453505 0)
(1.1058 0.00512084 0)
(1.12426 0.00675136 0)
(1.10644 0.00954518 0)
(1.09008 0.0130284 0)
(1.07745 0.0167199 0)
(1.06705 0.0203217 0)
(1.05847 0.0232174 0)
(1.05327 0.0245676 0)
(1.05264 0.0243001 0)
(1.05668 0.0230711 0)
(1.06615 0.0214221 0)
(1.08141 0.0197196 0)
(1.0805 0.0172733 0)
(0.988482 0.0123708 0)
(0.744851 0.00650153 0)
(0.408737 0.00215243 0)
(0.0778305 0.000170967 0)
(0.109691 0.000223136 0)
(0.683117 0.00384456 0)
(0.968883 0.00662042 0)
(1.10913 0.00821471 0)
(1.12904 0.0102199 0)
(1.11157 0.0134792 0)
(1.0949 0.0175186 0)
(1.08164 0.0218085 0)
(1.07026 0.0258823 0)
(1.06026 0.029003 0)
(1.05348 0.030155 0)
(1.0515 0.0293836 0)
(1.0545 0.0274374 0)
(1.06324 0.025187 0)
(1.07751 0.022748 0)
(1.07276 0.0194611 0)
(0.974227 0.013872 0)
(0.729086 0.0075532 0)
(0.396625 0.00255263 0)
(0.0744101 0.000203602 0)
(0.114216 0.000293015 0)
(0.695024 0.00507438 0)
(0.976504 0.00910338 0)
(1.11419 0.011882 0)
(1.13457 0.0145521 0)
(1.11748 0.0184944 0)
(1.10045 0.0232701 0)
(1.08629 0.0282715 0)
(1.07355 0.0328501 0)
(1.06177 0.0361686 0)
(1.05306 0.037046 0)
(1.0495 0.035602 0)
(1.05133 0.0328867 0)
(1.05919 0.0297674 0)
(1.07218 0.0264749 0)
(1.06338 0.0222846 0)
(0.958667 0.0160387 0)
(0.711296 0.00894817 0)
(0.382325 0.00303522 0)
(0.0703295 0.000242482 0)
(0.12013 0.000390262 0)
(0.710886 0.00672022 0)
(0.988109 0.0122282 0)
(1.12214 0.0164833 0)
(1.14178 0.020403 0)
(1.12471 0.0254866 0)
(1.10706 0.0311762 0)
(1.09172 0.0369082 0)
(1.07723 0.0418838 0)
(1.06326 0.0450254 0)
(1.05221 0.0451243 0)
(1.04679 0.0426852 0)
(1.04709 0.0390483 0)
(1.05385 0.0350051 0)
(1.06535 0.0308302 0)
(1.05256 0.0258899 0)
(0.941436 0.0188738 0)
(0.690555 0.0105492 0)
(0.365501 0.00355876 0)
(0.0655157 0.000283458 0)
(0.127966 0.000533272 0)
(0.731677 0.00903406 0)
(1.00417 0.0162948 0)
(1.13372 0.0221185 0)
(1.1517 0.0277034 0)
(1.13369 0.0342377 0)
(1.11484 0.0411879 0)
(1.0977 0.0477451 0)
(1.08085 0.0530769 0)
(1.06409 0.055919 0)
(1.05032 0.0550127 0)
(1.0428 0.0512201 0)
(1.04173 0.0462093 0)
(1.04743 0.041375 0)
(1.0573 0.0366481 0)
(1.04036 0.0309643 0)
(0.921005 0.022519 0)
(0.665956 0.0123542 0)
(0.345876 0.00416028 0)
(0.0599237 0.000329417 0)
(0.138472 0.000742738 0)
(0.758738 0.0123329 0)
(1.02509 0.0217349 0)
(1.14917 0.0289966 0)
(1.16469 0.036186 0)
(1.14501 0.0444542 0)
(1.12404 0.0528736 0)
(1.10437 0.0605318 0)
(1.0846 0.0664935 0)
(1.06446 0.0693166 0)
(1.04755 0.0677702 0)
(1.03758 0.0629685 0)
(1.03481 0.0567904 0)
(1.03974 0.0506378 0)
(1.04813 0.0451523 0)
(1.02519 0.0376559 0)
(0.895564 0.0265791 0)
(0.637165 0.0144045 0)
(0.323092 0.00484141 0)
(0.0534661 0.000377261 0)
(0.152856 0.00107949 0)
(0.79408 0.0173132 0)
(1.05194 0.0295256 0)
(1.16822 0.0384443 0)
(1.18076 0.0471663 0)
(1.1587 0.0570338 0)
(1.13492 0.0669162 0)
(1.11208 0.0759539 0)
(1.08868 0.0827378 0)
(1.06458 0.085663 0)
(1.04418 0.0835892 0)
(1.03147 0.0779586 0)
(1.02658 0.0708394 0)
(1.03015 0.0634405 0)
(1.0361 0.0556996 0)
(1.00401 0.0451615 0)
(0.864476 0.0309877 0)
(0.603999 0.016843 0)
(0.296696 0.00562417 0)
(0.0460897 0.000426092 0)
(0.173272 0.00168134 0)
(0.841133 0.0251175 0)
(1.08759 0.0412665 0)
(1.19128 0.0526293 0)
(1.19945 0.0630053 0)
(1.17443 0.0743697 0)
(1.14748 0.0857457 0)
(1.12073 0.0958256 0)
(1.09294 0.102927 0)
(1.06435 0.10533 0)
(1.04009 0.102052 0)
(1.02442 0.0950488 0)
(1.01696 0.0864943 0)
(1.01775 0.0772451 0)
(1.01833 0.0664926 0)
(0.976275 0.0526514 0)
(0.828654 0.0360824 0)
(0.566006 0.0197681 0)
(0.266311 0.00647807 0)
(0.0378285 0.00046797 0)
(0.203024 0.00302496 0)
(0.905678 0.0385172 0)
(1.1352 0.0606721 0)
(1.21896 0.0751103 0)
(1.2205 0.087752 0)
(1.19196 0.100367 0)
(1.16104 0.112381 0)
(1.12941 0.122179 0)
(1.09653 0.128119 0)
(1.063 0.128526 0)
(1.03457 0.122703 0)
(1.01562 0.11322 0)
(1.00509 0.1023 0)
(1.00156 0.0904662 0)
(0.995085 0.0769483 0)
(0.943876 0.0608998 0)
(0.788494 0.0423735 0)
(0.522538 0.0232657 0)
(0.232211 0.00741891 0)
(0.0289882 0.000497593 0)
(0.244019 0.00926193 3.0369e-20)
(0.991465 0.0653432 2.56325e-20)
(1.19297 0.0941066 -8.70121e-21)
(1.25057 0.110289 0)
(1.24261 0.125807 -1.96247e-34)
(1.20945 0.13809 2.80472e-21)
(1.17373 0.148827 -4.68782e-21)
(1.13663 0.156542 0)
(1.09817 0.159723 8.83319e-35)
(1.0592 0.156688 -5.0607e-21)
(1.02605 0.147131 0)
(1.00312 0.134254 -5.68317e-21)
(0.988574 0.120336 -1.65521e-20)
(0.979467 0.105875 -7.7505e-21)
(0.965756 0.0908106 -2.29929e-21)
(0.905652 0.0740064 -1.35829e-21)
(0.739504 0.052555 0)
(0.469309 0.0288812 9.51243e-22)
(0.194795 0.00978259 1.12724e-21)
(0.0207932 0.000905238 2.05937e-20)
(0.271404 0.0247535 2.73221e-20)
(1.0621 0.107803 1.03213e-22)
(1.24031 0.142082 2.5534e-21)
(1.28049 0.159624 0)
(1.26261 0.174945 -1.0692e-20)
(1.22448 0.185705 -1.16706e-20)
(1.18364 0.194377 -4.90614e-21)
(1.14088 0.199561 -1.62948e-20)
(1.09644 0.199692 0)
(1.05119 0.192839 2.16395e-20)
(1.012 0.179125 2.0843e-20)
(0.983522 0.162507 6.06388e-21)
(0.963361 0.145559 2.14961e-20)
(0.947766 0.128914 2.96284e-20)
(0.925964 0.112363 0)
(0.857996 0.0942363 4.13152e-20)
(0.683491 0.068528 5.93479e-20)
(0.416292 0.0391209 6.6085e-20)
(0.163653 0.0143908 -7.58628e-20)
(0.0147065 0.00131666 -1.44442e-21)
(0.271505 0.0408058 0)
(1.1063 0.163146 5.93178e-21)
(1.27329 0.201302 0)
(1.30385 0.219521 -1.72501e-20)
(1.2784 0.231984 0)
(1.23558 0.239655 -2.42776e-20)
(1.18969 0.244925 1.0326e-20)
(1.14146 0.246522 -3.40451e-20)
(1.0913 0.242761 -3.16926e-22)
(1.03998 0.231703 1.14242e-20)
(0.994998 0.213861 4.52989e-20)
(0.961427 0.19405 -6.30163e-23)
(0.936531 0.17491 -1.55071e-20)
(0.916436 0.157105 -2.76577e-20)
(0.890638 0.139926 3.25734e-20)
(0.822304 0.11988 -5.76331e-20)
(0.65228 0.0893804 -7.6149e-21)
(0.399791 0.0535997 0)
(0.164104 0.0216879 4.98786e-24)
(0.0162964 0.00224018 0)
(0.264574 0.0546295 1.09369e-19)
(1.12968 0.222112 -4.81711e-20)
(1.29434 0.265509 -3.06687e-20)
(1.31915 0.284002 8.93805e-21)
(1.28837 0.293117 -1.45661e-20)
(1.24178 0.297106 5.16335e-20)
(1.19159 0.298428 2.19204e-20)
(1.13855 0.295937 0)
(1.08325 0.287944 -6.02278e-20)
(1.02648 0.272501 0)
(0.976275 0.250784 -2.40541e-20)
(0.938291 0.228196 -2.85072e-20)
(0.90976 0.207407 -1.67799e-20)
(0.886658 0.188622 -1.99524e-20)
(0.859051 0.170691 0)
(0.793884 0.148771 0)
(0.636552 0.114492 -4.95151e-20)
(0.40315 0.0729476 9.78558e-21)
(0.1766 0.0319977 -5.76848e-21)
(0.0209342 0.00401528 -6.83041e-21)
(0.257185 0.0669946 -6.62717e-20)
(1.13957 0.280896 0)
(1.30619 0.330774 7.39179e-20)
(1.32726 0.349551 2.78058e-20)
(1.29263 0.355397 3.18291e-20)
(1.24305 0.355721 0)
(1.18937 0.353094 2.27169e-20)
(1.13237 0.346451 3.85281e-20)
(1.07266 0.334218 3.16494e-20)
(1.01112 0.314442 5.31464e-20)
(0.956493 0.288988 0)
(0.91489 0.263834 -6.132e-20)
(0.883528 0.241452 -3.61294e-20)
(0.858323 0.221832 -2.11649e-20)
(0.829952 0.203178 1.27105e-19)
(0.768628 0.180078 1.50955e-20)
(0.626156 0.142626 7.1294e-20)
(0.410732 0.094677 -3.38115e-19)
(0.190677 0.0445028 2.00688e-19)
(0.0259547 0.00635065 -2.44993e-19)
(0.250525 0.0781926 -5.99465e-20)
(1.14107 0.33773 1.27204e-20)
(1.31123 0.39519 -1.07521e-20)
(1.32964 0.414417 -3.70463e-20)
(1.29207 0.417187 -3.20777e-20)
(1.24007 0.413986 3.4773e-22)
(1.18356 0.407597 -2.44247e-20)
(1.12325 0.397006 4.06972e-20)
(1.05982 0.380679 -6.79259e-20)
(0.994222 0.356725 0)
(0.935852 0.327614 -2.82903e-20)
(0.891389 0.299964 -3.1839e-22)
(0.857873 0.276007 -3.91101e-20)
(0.831159 0.255448 0)
(0.802582 0.23605 -2.7373e-20)
(0.745448 0.211849 -6.49019e-20)
(0.616231 0.171603 1.73741e-19)
(0.416492 0.117124 -1.71466e-19)
(0.201649 0.0575816 2.44031e-19)
(0.0300474 0.00887111 -2.5682e-19)
(0.245192 0.0886678 -1.04937e-22)
(1.13743 0.391966 -1.27349e-20)
(1.31149 0.458364 -4.39457e-20)
(1.32759 0.477617 1.89403e-20)
(1.28773 0.477561 -1.6913e-20)
(1.23373 0.471062 0)
(1.17483 0.46115 -2.49104e-20)
(1.11172 0.446861 -4.3176e-20)
(1.0451 0.426663 -3.58978e-20)
(0.97602 0.398672 0)
(0.914458 0.366004 -2.98008e-20)
(0.867668 0.335755 -3.53953e-20)
(0.83257 0.310121 4.21238e-20)
(0.804882 0.288522 -2.50517e-20)
(0.776454 0.268487 -1.18287e-19)
(0.722866 0.242963 7.02937e-20)
(0.604495 0.200341 2.10384e-20)
(0.416763 0.139182 0)
(0.206724 0.0699462 -2.3394e-19)
(0.0324922 0.0112043 -8.67315e-21)
(0.241181 0.0987198 -7.92492e-21)
(1.13073 0.443503 1.3067e-20)
(1.30796 0.519064 2.32338e-20)
(1.32213 0.538522 6.16737e-20)
(1.28043 0.53595 -7.0087e-20)
(1.22479 0.526437 6.14451e-20)
(1.16389 0.513279 5.33907e-20)
(1.09834 0.495565 -6.91583e-20)
(1.0289 0.471723 2.04472e-20)
(0.956729 0.439861 -1.30402e-19)
(0.892391 0.403642 -3.27694e-20)
(0.84365 0.370723 0)
(0.807395 0.343177 4.53513e-20)
(0.77915 0.320278 5.35073e-20)
(0.751134 0.299303 6.33984e-20)
(0.700646 0.272389 -7.57024e-20)
(0.590213 0.226996 -2.24268e-20)
(0.411304 0.158836 2.65044e-20)
(0.205961 0.0800891 0)
(0.0330836 0.0129711 -1.86673e-20)
(0.238314 0.108438 8.00421e-20)
(1.12251 0.492383 -5.35648e-20)
(1.30176 0.577034 -2.44766e-20)
(1.31414 0.596824 4.28935e-20)
(1.27092 0.592001 -3.62675e-20)
(1.21392 0.579769 -8.08924e-22)
(1.15129 0.563689 -5.74887e-20)
(1.08361 0.542834 -2.47947e-20)
(1.01165 0.515595 -6.19213e-20)
(0.936635 0.480024 4.61099e-23)
(0.869758 0.440266 -1.03787e-19)
(0.819348 0.404487 8.31192e-20)
(0.782195 0.37482 -4.91341e-20)
(0.753697 0.350339 5.80885e-20)
(0.726179 0.328075 0)
(0.678073 0.299411 -4.07011e-20)
(0.573416 0.250611 -1.80667e-22)
(0.400764 0.175186 -1.14288e-19)
(0.20071 0.0876138 -1.69135e-20)
(0.0322566 0.0140884 0)
(0.236475 0.118008 0)
(1.11356 0.538846 -5.65483e-20)
(1.29362 0.632218 -5.0069e-20)
(1.3043 0.652374 -4.49072e-20)
(1.2598 0.645523 -4.00377e-20)
(1.20165 0.630873 0)
(1.13754 0.612177 -2.91724e-20)
(1.06797 0.588482 -2.40749e-22)
(0.9937 0.558127 1.32478e-19)
(0.916016 0.519042 -1.82863e-20)
(0.846727 0.475746 -7.44555e-20)
(0.794768 0.436976 4.38162e-20)
(0.756882 0.404876 -4.06467e-22)
(0.728227 0.378495 6.19015e-20)
(0.701174 0.354614 3.73031e-20)
(0.65482 0.323776 -8.75407e-20)
(0.553956 0.270839 1.03838e-19)
(0.385844 0.18808 3.07677e-20)
(0.191378 0.0923407 1.27525e-19)
(0.0301275 0.0144763 -3.4529e-19)
(0.235511 0.12755 1.66557e-20)
(1.10447 0.583031 -2.85721e-20)
(1.28417 0.684635 2.42906e-20)
(1.29318 0.705118 4.63561e-20)
(1.24758 0.696437 0)
(1.18844 0.679644 -3.49645e-20)
(1.12303 0.658631 9.48337e-20)
(1.05177 0.632398 5.57062e-20)
(0.975369 0.599221 0)
(0.895114 0.556856 -2.58248e-19)
(0.823436 0.510064 2.0001e-19)
(0.769909 0.468141 0)
(0.731262 0.433364 5.6759e-20)
(0.702491 0.404803 -4.04471e-22)
(0.675838 0.378929 -1.19269e-19)
(0.630628 0.345419 4.67422e-20)
(0.532121 0.287538 0)
(0.367418 0.197267 1.65302e-19)
(0.178946 0.0946775 0)
(0.0272103 0.01426 -1.62478e-19)
(0.235245 0.137068 -1.7113e-20)
(1.09558 0.625087 -2.8903e-20)
(1.27384 0.734299 2.63265e-20)
(1.28121 0.755053 0)
(1.23465 0.744731 -4.32276e-20)
(1.17466 0.726051 0)
(1.10811 0.702989 -9.89305e-20)
(1.03532 0.674515 -2.82752e-20)
(0.956906 0.638824 2.44137e-20)
(0.874127 0.593435 -1.27572e-19)
(0.799963 0.543258 2.10135e-20)
(0.744716 0.498056 0)
(0.705218 0.460364 -1.2129e-19)
(0.676315 0.429301 4.14428e-22)
(0.649925 0.401085 0)
(0.605276 0.364384 4.60534e-22)
(0.507886 0.300782 1.4986e-19)
(0.345813 0.202728 -1.42274e-19)
(0.164182 0.094531 4.21354e-20)
(0.0237548 0.0134638 0)
(0.235337 0.146448 0)
(1.08705 0.665049 -2.96147e-20)
(1.263 0.781297 -2.62306e-20)
(1.26873 0.802241 -4.60522e-22)
(1.22132 0.790433 -2.17098e-20)
(1.1606 0.770092 -7.94173e-20)
(1.09305 0.745238 3.57585e-20)
(1.01887 0.714807 -3.13088e-20)
(0.93854 0.676904 1.06223e-19)
(0.853226 0.628796 -2.04017e-19)
(0.776391 0.575388 -6.82353e-22)
(0.719237 0.526842 -5.46376e-20)
(0.678769 0.485982 1.9571e-19)
(0.649613 0.452153 -4.88703e-22)
(0.623338 0.421219 -9.18191e-20)
(0.578671 0.380706 -1.63407e-19)
(0.481472 0.310647 0)
(0.321615 0.204685 0)
(0.147666 0.0919338 4.53322e-20)
(0.0199771 0.0121685 -2.68759e-20)
(0.235922 0.155781 -1.78308e-20)
(1.07901 0.702887 6.17432e-20)
(1.25189 0.825712 2.79531e-20)
(1.256 0.846745 0)
(1.20786 0.833597 -3.22526e-22)
(1.14652 0.811801 -8.21372e-20)
(1.07808 0.785387 9.26886e-20)
(1.00262 0.753267 1.29867e-19)
(0.920464 0.713467 1.40223e-19)
(0.832594 0.662982 -1.68153e-19)
(0.752937 0.606577 -1.7124e-19)
(0.693596 0.554664 1.46091e-19)
(0.651857 0.510433 0)
(0.622297 0.473483 -4.18215e-20)
(0.595979 0.439435 -9.89266e-20)
(0.550753 0.394448 -1.1704e-19)
(0.452595 0.31702 -1.3894e-19)
(0.295202 0.203143 4.11756e-20)
(0.129729 0.086939 -2.43385e-20)
(0.0159295 0.0103926 6.89689e-23)
(0.236687 0.164891 0)
(1.07147 0.739043 0)
(1.24068 0.867624 5.44511e-22)
(1.24323 0.888647 0)
(1.19446 0.874303 7.12916e-20)
(1.13258 0.851232 6.38015e-20)
(1.06338 0.823465 0)
(0.986747 0.789912 1.66434e-20)
(0.902857 0.748524 2.37203e-19)
(0.812443 0.69603 -3.8578e-19)
(0.729767 0.636935 0)
(0.667845 0.581728 -9.38056e-20)
(0.624473 0.533885 -5.95247e-22)
(0.594283 0.493444 -4.85634e-22)
(0.567772 0.455766 1.05759e-19)
(0.521535 0.4055 -8.11293e-23)
(0.421723 0.31982 -2.98509e-19)
(0.266605 0.197947 8.84614e-20)
(0.110952 0.0798195 2.6232e-20)
(0.0118976 0.00830093 0)
(0.237436 0.173826 5.55943e-20)
(1.06421 0.773494 3.25839e-20)
(1.22948 0.907103 5.86572e-20)
(1.23058 0.928043 -1.08775e-19)
(1.18126 0.912614 1.23702e-19)
(1.11893 0.88844 0)
(1.04907 0.859515 6.12178e-20)
(0.971396 0.824766 -3.6057e-20)
(0.885871 0.782093 7.79988e-22)
(0.792936 0.727972 2.7906e-20)
(0.707019 0.666543 2.22465e-19)
(0.64212 0.608218 -3.31476e-20)
(0.596633 0.556606 -1.20194e-19)
(0.565442 0.512212 -4.83831e-20)
(0.53855 0.470168 5.71968e-20)
(0.490969 0.413603 -5.13048e-23)
(0.389266 0.318788 8.03222e-20)
(0.236798 0.189232 -1.9002e-19)
(0.0921117 0.0709976 2.25452e-19)
(0.00803288 0.00601859 3.33063e-20)
(0.237923 0.18248 -1.89114e-20)
(1.05725 0.806311 1.68583e-20)
(1.21843 0.944258 1.26611e-21)
(1.21816 0.965052 -5.56275e-20)
(1.16838 0.948636 -2.50683e-20)
(1.10569 0.923492 -1.19583e-19)
(1.03528 0.893583 2.07292e-20)
(0.95667 0.85785 -1.528e-19)
(0.869623 0.814173 -2.66793e-19)
(0.77419 0.75881 -2.32467e-19)
(0.684879 0.695481 0)
(0.616593 0.634312 -1.43595e-19)
(0.568382 0.578911 1.72291e-19)
(0.535601 0.530041 0)
(0.508 0.482526 -1.22415e-19)
(0.458947 0.418242 7.28794e-20)
(0.355605 0.313444 -8.61893e-20)
(0.206915 0.177169 -1.02163e-19)
(0.0741547 0.0610169 -1.81456e-19)
(0.00457334 0.00373344 -1.43258e-19)
(0.238715 0.190941 1.92495e-20)
(1.05045 0.83747 -1.80126e-20)
(1.20759 0.979153 -4.56183e-20)
(1.20605 0.999753 -7.24775e-20)
(1.1559 0.982452 5.42474e-20)
(1.09291 0.956468 -7.45034e-20)
(1.02207 0.925716 6.7057e-20)
(0.942645 0.889203 -1.61082e-19)
(0.854184 0.844781 -1.59314e-19)
(0.756332 0.788561 2.4575e-19)
(0.663517 0.723808 4.90056e-19)
(0.591428 0.660171 0)
(0.539839 0.601118 0)
(0.504568 0.547329 -5.55852e-20)
(0.475561 0.492775 0)
(0.425029 0.418525 1.56671e-19)
(0.32131 0.30275 1.85323e-19)
(0.178616 0.161609 0)
(0.058446 0.0504598 0)
(0.00172747 0.00163738 1.5385e-19)
(0.239107 0.198876 -1.94505e-20)
(1.04383 0.866961 -1.61842e-20)
(1.19702 1.0119 -3.20957e-20)
(1.19431 1.03227 5.94808e-20)
(1.14386 1.01416 5.64658e-20)
(1.08067 0.987437 9.03945e-20)
(1.00949 0.955972 -9.46275e-20)
(0.92937 0.918853 6.84855e-23)
(0.839628 0.873923 -1.0126e-21)
(0.739466 0.817217 -1.17508e-21)
(0.643089 0.751547 2.52831e-19)
(0.566832 0.685899 0)
(0.511201 0.623527 1.73252e-19)
(0.472237 0.564629 1.18596e-19)
(0.440392 0.501251 2.83794e-19)
(0.38801 0.413444 8.41203e-20)
(0.286612 0.284411 -9.98206e-20)
(0.155144 0.14063 -5.88462e-20)
(0.0492569 0.0390027 0)
(0.000461139 -1.99863e-05 1.65213e-19)
(0.239809 0.206788 3.90706e-20)
(1.03738 0.894923 0)
(1.18673 1.04255 -3.22848e-20)
(1.18296 1.06268 4.65683e-20)
(1.13232 1.04384 -5.79483e-20)
(1.06899 1.01648 -1.20616e-19)
(0.997577 0.984405 1.97675e-19)
(0.916878 0.946835 -1.21691e-20)
(0.825992 0.901609 0)
(0.723664 0.84474 -2.7606e-19)
(0.623752 0.778691 -5.53502e-19)
(0.543034 0.711564 2.14822e-20)
(0.48276 0.646351 2.38046e-19)
(0.438675 0.58259 0)
(0.401602 0.508962 1.90634e-19)
(0.34546 0.402884 0)
(0.248835 0.254746 0)
(0.139382 0.103878 -6.35845e-20)
(0.0678535 0.0134191 0)
(0.0242859 0.00575357 4.4281e-20)
(0.240037 0.214075 3.95471e-20)
(1.03107 0.921584 0)
(1.17671 1.07132 -4.921e-20)
(1.17197 1.09122 0)
(1.12124 1.07176 2.91573e-20)
(1.05781 1.04387 0)
(0.986265 1.01132 1.20181e-20)
(0.905076 0.973486 2.29218e-20)
(0.81316 0.928208 2.0173e-20)
(0.708773 0.871516 -3.0633e-19)
(0.605376 0.805692 1.71105e-20)
(0.51987 0.737745 1.70728e-19)
(0.454276 0.670171 2.32126e-19)
(0.403366 0.602131 3.06774e-20)
(0.357734 0.517928 1.48585e-19)
(0.293314 0.389149 0)
(0.197255 0.214585 2.09452e-19)
(0.103054 0.0451253 -1.23464e-19)
(0.0352733 0.0579519 1.44743e-19)
(-0.0373576 0.441653 -1.7184e-19)
(0.240173 0.221142 -3.03802e-20)
(1.0247 0.946831 -5.2635e-20)
(1.1669 1.09851 0)
(1.16123 1.11831 1.10104e-21)
(1.11045 1.09848 -7.44158e-20)
(1.04688 1.07031 2.08802e-19)
(0.975257 1.03752 7.66263e-20)
(0.893577 0.999753 0)
(0.800629 0.954824 1.40552e-19)
(0.694149 0.898858 -1.67519e-20)
(0.58709 0.834039 0)
(0.496214 0.766235 0)
(0.424394 0.696807 2.07412e-19)
(0.364763 0.624846 -9.37358e-20)
(0.306369 0.531362 -1.49503e-19)
(0.227809 0.377926 0)
(0.110555 0.200938 1.05822e-19)
(0.0121085 0.457907 -1.24051e-19)
(0.0362985 1.89409 -7.12745e-20)
(0.0640877 2.80699 -8.62013e-20)
(0.239949 0.227604 1.99428e-20)
(1.01833 0.970842 6.23548e-20)
(1.15729 1.12412 -2.62487e-20)
(1.15073 1.14381 -3.26312e-20)
(1.10001 1.1238 0)
(1.03628 1.0955 1.42942e-19)
(0.964744 1.06269 1.16261e-19)
(0.882555 1.0252 -1.18499e-20)
(0.788659 0.980935 2.07232e-20)
(0.680162 0.92615 2.96838e-19)
(0.569499 0.863014 2.84396e-19)
(0.473051 0.796656 1.92626e-19)
(0.394234 0.725863 2.08221e-19)
(0.324927 0.649298 -2.18951e-19)
(0.254325 0.551608 -2.24684e-19)
(0.14839 0.410021 0)
(0.052161 0.86025 0)
(0.0997233 2.55863 6.01721e-20)
(0.102554 3.19703 0)
(0.103203 3.38379 1.61154e-19)
(0.242482 0.233579 0)
(1.0122 0.993928 0)
(1.14764 1.14802 0)
(1.14027 1.16754 -7.93718e-21)
(1.08965 1.14751 -6.44654e-20)
(1.0258 1.1193 1.01393e-19)
(0.954649 1.08672 7.92678e-20)
(0.871942 1.0497 -1.2016e-20)
(0.777185 1.00637 1.84353e-19)
(0.666802 0.953228 -2.07677e-21)
(0.552694 0.892403 5.68404e-19)
(0.450803 0.828997 -2.18838e-20)
(0.364147 0.757768 2.55973e-20)
(0.286058 0.67307 3.14879e-20)
(0.196481 0.578153 2.1871e-23)
(0.111715 1.00154 3.26396e-22)
(0.141506 2.72103 -3.08222e-19)
(0.149703 3.29333 -1.19175e-19)
(0.13727 3.42435 6.64223e-20)
(0.123588 3.4454 -7.64936e-20)
(0.164302 0.178161 -9.86743e-21)
(1.00168 1.01887 0)
(1.13787 1.17045 4.46103e-20)
(1.13023 1.18981 7.70375e-20)
(1.07981 1.17009 -1.2013e-19)
(1.01607 1.14215 -1.04685e-19)
(0.94476 1.10964 -8.82288e-20)
(0.861767 1.07329 1.5477e-19)
(0.766329 1.03114 -1.56408e-19)
(0.654348 0.98009 0)
(0.537053 0.922126 2.84896e-19)
(0.430012 0.862983 -1.59348e-19)
(0.334773 0.795325 0)
(0.247887 0.702355 3.0623e-20)
(0.159721 0.857154 7.25045e-20)
(0.155903 2.5022 -8.47171e-20)
(0.211908 3.32799 9.80278e-20)
(0.190779 3.44035 5.52452e-20)
(0.157533 3.45951 6.45527e-20)
(0.135916 3.46812 1.08573e-19)
(0.277522 0.272084 2.07815e-20)
(0.984802 1.02918 0)
(1.12021 1.19602 -4.11296e-20)
(1.11628 1.22302 -7.19011e-20)
(1.06418 1.20375 1.14642e-19)
(1.00001 1.17633 9.91365e-20)
(0.927716 1.14517 1.14664e-19)
(0.844099 1.11006 1.17895e-20)
(0.747356 1.07009 1.58712e-19)
(0.632717 1.02302 2.74178e-19)
(0.510473 0.971092 1.6857e-20)
(0.39586 0.920289 1.44716e-19)
(0.282694 0.864089 2.46939e-20)
(0.219045 1.02145 -2.98436e-20)
(0.22711 2.36604 -6.90663e-20)
(0.280714 3.3362 7.41808e-20)
(0.26499 3.47265 -8.4578e-20)
(0.228648 3.49092 -4.9644e-20)
(0.192542 3.51479 -5.1716e-20)
(0.145106 3.50758 -7.36881e-21)
(0.267601 0.270924 0)
(0.982195 1.05196 -7.32945e-21)
(1.11223 1.21944 7.02047e-21)
(1.10648 1.24623 6.92391e-21)
(1.05422 1.22689 7.03969e-20)
(0.990163 1.1997 -9.38076e-20)
(0.917575 1.16879 -7.1895e-20)
(0.833837 1.13453 1.11885e-20)
(0.736721 1.09605 -1.70941e-19)
(0.621072 1.05186 -3.00134e-21)
(0.496576 1.00461 -5.34163e-19)
(0.378236 0.959561 2.04938e-20)
(0.27217 0.937997 -2.3863e-20)
(0.255702 1.54741 -2.84415e-20)
(0.318875 3.12123 3.66055e-21)
(0.336816 3.47653 4.81734e-22)
(0.293397 3.52715 1.46808e-19)
(0.257448 3.54709 8.14584e-20)
(0.209737 3.56645 -3.94777e-20)
(0.156906 3.56104 -4.47596e-20)
(0.253253 0.268632 -1.46094e-20)
(0.978619 1.07727 -4.55906e-20)
(1.10382 1.24487 1.95911e-20)
(1.09627 1.27098 2.63352e-20)
(1.04391 1.25148 0)
(0.979982 1.22431 -1.21381e-19)
(0.907356 1.19366 -1.00715e-19)
(0.82376 1.16019 1.05639e-20)
(0.726588 1.12327 -1.8638e-20)
(0.610449 1.08214 -2.6562e-19)
(0.484522 1.04 -2.54819e-19)
(0.364716 1.00215 -1.75316e-19)
(0.278565 1.07798 -1.83276e-19)
(0.319674 2.24897 1.86853e-19)
(0.400017 3.39693 1.72566e-19)
(0.377013 3.5385 0)
(0.325459 3.57442 0)
(0.287607 3.6075 -3.26801e-20)
(0.238321 3.65494 0)
(0.166703 3.63404 -6.39942e-20)
(0.242938 0.270201 1.74314e-20)
(0.973023 1.1034 3.30722e-20)
(1.09406 1.27153 0)
(1.0849 1.29663 1.31593e-21)
(1.03249 1.27674 5.86631e-20)
(0.968794 1.24946 -1.68819e-19)
(0.896448 1.21908 -6.26597e-20)
(0.813223 1.1863 9.2684e-21)
(0.71625 1.15087 -1.36204e-19)
(0.600031 1.11274 1.45186e-20)
(0.47345 1.07591 0)
(0.355467 1.04879 0)
(0.308426 1.33741 -1.7378e-19)
(0.397674 2.91863 7.30558e-20)
(0.468342 3.50619 1.04e-19)
(0.415957 3.57635 0)
(0.372332 3.63013 -4.50493e-20)
(0.326807 3.67918 4.30512e-20)
(0.275811 3.6464 1.05958e-20)
(0.179289 3.62363 -3.1075e-21)