/*--------------------------------*- C++ -*----------------------------------*\
  =========                 |
  \\      /  F ield         | OpenFOAM: The Open Source CFD Toolbox
   \\    /   O peration     | Website:  https://openfoam.org
    \\  /    A nd           | Version:  6
     \\/     M anipulation  |
\*---------------------------------------------------------------------------*/
FoamFile
{
    version     2.0;
    format      ascii;
    class       volScalarField;
    location    "119";
    object      p;
}
// * * * * * * * * * * * * * * * * * * * * * * * * * * * * * * * * * * * * * //

dimensions      [0 2 -2 0 0 0 0];

internalField   nonuniform List<scalar> 
8800
(
1.28543
1.23612
1.19816
1.17009
1.14994
1.13536
1.12478
1.11726
1.11241
1.11038
1.11179
1.11617
1.12299
1.13244
1.14519
1.16252
1.18641
1.21951
1.26245
1.31496
1.11992
1.12626
1.13542
1.13897
1.13637
1.13029
1.12336
1.11714
1.11236
1.10953
1.10934
1.11201
1.11669
1.12284
1.12996
1.13701
1.1419
1.14178
1.13512
1.12622
1.09341
1.09965
1.10416
1.10804
1.11099
1.11196
1.11089
1.10879
1.10684
1.10605
1.10713
1.10963
1.11255
1.11484
1.11538
1.11361
1.11025
1.10625
1.10147
1.09776
1.08908
1.09185
1.09446
1.09663
1.09838
1.09996
1.10109
1.10147
1.1014
1.10155
1.10241
1.1036
1.10438
1.10426
1.10331
1.10198
1.10032
1.09803
1.09562
1.09406
1.08399
1.08542
1.08726
1.08935
1.09108
1.09239
1.09352
1.09453
1.09539
1.09618
1.09696
1.09748
1.09756
1.09723
1.09659
1.0955
1.09386
1.09198
1.09064
1.08983
1.07895
1.07985
1.08111
1.08275
1.08446
1.08601
1.08733
1.08849
1.08961
1.0907
1.09157
1.09203
1.0921
1.09178
1.09102
1.08986
1.08852
1.08728
1.08646
1.08594
1.07397
1.07463
1.0756
1.07694
1.07841
1.07995
1.08147
1.08289
1.08422
1.08551
1.08657
1.08715
1.08724
1.08687
1.08613
1.08523
1.08427
1.08339
1.08282
1.08243
1.06907
1.06957
1.07037
1.07153
1.07285
1.07431
1.07586
1.07747
1.07906
1.08063
1.0819
1.08263
1.0828
1.08255
1.08205
1.08141
1.08072
1.08008
1.07966
1.07936
1.06416
1.06456
1.06524
1.06628
1.06754
1.06895
1.07051
1.07223
1.07406
1.07594
1.07751
1.07845
1.07885
1.07886
1.07861
1.07821
1.07773
1.0773
1.07699
1.07675
1.05918
1.05951
1.06009
1.06107
1.06229
1.0637
1.06531
1.06715
1.06921
1.07142
1.07337
1.07466
1.07538
1.07568
1.0757
1.07555
1.07528
1.07502
1.0748
1.07459
1.05403
1.0543
1.05483
1.05576
1.05698
1.05843
1.06014
1.06214
1.06447
1.06708
1.06949
1.07123
1.07234
1.07298
1.07329
1.07339
1.07335
1.07323
1.07308
1.0729
1.04861
1.04884
1.04933
1.05025
1.05151
1.05304
1.05489
1.05713
1.05979
1.06289
1.06588
1.06815
1.06971
1.07075
1.07139
1.07176
1.07194
1.07197
1.07188
1.07172
1.04283
1.04302
1.04349
1.04444
1.04577
1.04744
1.04949
1.05202
1.05512
1.05883
1.0625
1.06541
1.06751
1.06899
1.07001
1.0707
1.07111
1.07128
1.07124
1.07109
1.03656
1.03673
1.0372
1.0382
1.03965
1.0415
1.04382
1.04674
1.05038
1.05483
1.05934
1.06301
1.06575
1.06776
1.06921
1.07025
1.07092
1.07123
1.07122
1.07108
1.02969
1.02983
1.03032
1.03139
1.03301
1.03511
1.03777
1.04118
1.0455
1.05084
1.05637
1.06095
1.06445
1.06707
1.06903
1.07047
1.07143
1.07188
1.07192
1.07177
1.02205
1.02217
1.02269
1.02387
1.0257
1.02811
1.03122
1.03524
1.04039
1.04683
1.05357
1.05923
1.06362
1.06699
1.06954
1.07145
1.07274
1.07334
1.07341
1.07326
1.01344
1.01354
1.0141
1.01542
1.01753
1.02035
1.02401
1.02879
1.03495
1.04272
1.05091
1.05786
1.06332
1.06754
1.07082
1.07328
1.07493
1.07568
1.07579
1.07563
1.00357
1.00367
1.0043
1.0058
1.00827
1.01159
1.01595
1.02167
1.02908
1.03846
1.04839
1.05686
1.06356
1.06881
1.07292
1.07603
1.0781
1.07901
1.07914
1.07897
0.992158
0.992236
0.992951
0.994706
0.997617
1.00158
1.00681
1.01371
1.02266
1.03399
1.04599
1.05624
1.0644
1.07084
1.07592
1.07979
1.08231
1.08338
1.08352
1.08334
0.97874
0.978806
0.979631
0.981704
0.985183
0.989972
0.996317
1.00469
1.01555
1.02924
1.04369
1.05602
1.06585
1.07367
1.07989
1.08461
1.08761
1.08882
1.08897
1.08877
0.962708
0.962765
0.963745
0.966244
0.970472
0.976335
0.984122
0.99438
1.00761
1.02417
1.0415
1.05621
1.06796
1.07735
1.08483
1.0905
1.09398
1.0953
1.09543
1.09521
0.943202
0.943256
0.944463
0.947563
0.952814
0.960127
0.969831
0.982539
0.998759
1.01877
1.03944
1.05685
1.07073
1.08187
1.09074
1.09741
1.10132
1.10269
1.10279
1.10255
0.918957
0.919015
0.920583
0.924587
0.931314
0.940665
0.953001
0.968949
0.988931
1.01308
1.03758
1.05798
1.07418
1.08721
1.09757
1.10522
1.10945
1.11078
1.11082
1.11057
0.887985
0.888076
0.890269
0.89575
0.904798
0.917164
0.933233
0.953501
0.978195
1.00723
1.036
1.05963
1.07831
1.09332
1.10521
1.11371
1.11804
1.11922
1.11918
1.11892
0.846923
0.847156
0.850648
0.858866
0.871856
0.888935
0.91035
0.936314
0.966775
1.00142
1.03488
1.06191
1.08313
1.10015
1.11349
1.12255
1.12668
1.12759
1.12747
1.12722
0.789342
0.790552
0.797567
0.811527
0.831429
0.855827
0.884674
0.917845
0.955083
0.99596
1.03437
1.0649
1.08864
1.10757
1.12215
1.13132
1.1349
1.13547
1.13528
1.13505
0.705914
0.714132
0.730358
0.754872
0.785141
0.819349
0.857238
0.898641
0.943335
0.990924
1.03463
1.0689
1.09536
1.11629
1.13172
1.14049
1.14331
1.14356
1.14335
1.14316
0.616666
0.634818
0.66121
0.697083
0.738297
0.782419
0.829306
0.878978
0.931325
0.98606
1.0357
1.07435
1.10408
1.12714
1.14305
1.15061
1.15237
1.15237
1.1522
1.1521
0.53988
0.562109
0.596987
0.642568
0.693461
0.746932
0.802571
0.86034
0.920107
0.981603
1.03668
1.07924
1.11179
1.13649
1.15213
1.15825
1.15927
1.1592
1.15907
1.159
0.476491
0.501222
0.54194
0.594482
0.652927
0.714167
0.777488
0.842632
0.909271
0.977042
1.03713
1.0832
1.11816
1.14399
1.15913
1.16423
1.1649
1.16481
1.16471
1.16465
0.423568
0.449853
0.494808
0.552741
0.617189
0.684768
0.754565
0.826141
0.898944
0.972434
1.03712
1.08644
1.12358
1.15031
1.1649
1.1692
1.16966
1.16956
1.16948
1.16943
0.37854
0.40575
0.453847
0.516129
0.585586
0.658528
0.733874
0.811064
0.889358
0.968031
1.03692
1.08922
1.12834
1.15578
1.16975
1.17343
1.17375
1.17365
1.17358
1.17353
0.33932
0.367137
0.417679
0.483559
0.55728
0.634878
0.715119
0.797325
0.880583
0.963981
1.03671
1.0917
1.13256
1.16053
1.17389
1.17709
1.17732
1.17721
1.17715
1.1771
0.3044
0.332673
0.385216
0.454154
0.53157
0.613258
0.697891
0.784673
0.872511
0.960285
1.03652
1.09393
1.13633
1.16465
1.17744
1.18027
1.18042
1.1803
1.18023
1.18019
0.272722
0.301385
0.355611
0.427224
0.507896
0.593221
0.681828
0.772828
0.864968
0.956866
1.03635
1.09594
1.13965
1.1682
1.18045
1.18299
1.18306
1.18292
1.18284
1.1828
0.243434
0.272486
0.328217
0.402239
0.485808
0.574404
0.666635
0.76156
0.857784
0.953643
1.03621
1.09774
1.14256
1.17119
1.18292
1.18521
1.18522
1.18504
1.18495
1.1849
0.216102
0.245488
0.302583
0.378772
0.464958
0.556522
0.652083
0.750679
0.850822
0.950579
1.03615
1.09943
1.1451
1.17362
1.1848
1.18689
1.18685
1.18665
1.18655
1.18649
0.190194
0.219987
0.278335
0.356507
0.445069
0.539341
0.637989
0.74004
0.843968
0.947632
1.03624
1.10113
1.14732
1.17548
1.1861
1.18802
1.18795
1.18775
1.18764
1.18757
0.165525
0.195719
0.255237
0.335218
0.42594
0.522696
0.624205
0.729519
0.837122
0.944761
1.03658
1.10301
1.14941
1.17688
1.18686
1.18864
1.18858
1.18841
1.1883
1.18822
0.141893
0.172492
0.233101
0.314748
0.407436
0.506464
0.610622
0.719011
0.830185
0.941892
1.03723
1.10533
1.1516
1.17794
1.18715
1.18887
1.18888
1.18872
1.18861
1.18852
0.119147
0.150199
0.21182
0.294995
0.389453
0.490558
0.597163
0.708442
0.823066
0.938927
1.03821
1.10837
1.15429
1.17891
1.18703
1.18872
1.18892
1.18878
1.18862
1.18851
0.09716
0.1287
0.191334
0.275895
0.371945
0.474922
0.583776
0.697749
0.815686
0.935742
1.03946
1.11236
1.15805
1.18027
1.18654
1.18793
1.18848
1.18859
1.18846
1.18824
0.0760155
0.108013
0.171604
0.257393
0.354871
0.459541
0.570428
0.686901
0.807985
0.932234
1.04084
1.11744
1.16352
1.18291
1.18613
1.18631
1.18711
1.1882
1.18865
1.18839
0.0556825
0.088102
0.152586
0.239472
0.338224
0.444404
0.557126
0.67587
0.79992
0.928282
1.04217
1.12358
1.17132
1.18817
1.18756
1.18504
1.18539
1.18808
1.19043
1.19069
0.0360606
0.0689645
0.134253
0.222116
0.322012
0.429529
0.543883
0.664665
0.791456
0.92379
1.0432
1.13057
1.18174
1.19752
1.19335
1.18748
1.18656
1.19095
1.19631
1.19849
0.0172548
0.0505882
0.116621
0.20535
0.306247
0.414951
0.530735
0.653313
0.782595
0.918685
1.04368
1.13799
1.19462
1.21152
1.20536
1.19664
1.19346
1.19677
1.20293
1.20596
-0.000845836
0.0329274
0.0996566
0.189114
0.290865
0.4006
0.517598
0.641723
0.773217
0.912824
1.04334
1.14543
1.20959
1.23
1.22381
1.21328
1.20628
1.20109
1.19546
1.20104
-0.0182017
0.0159091
0.0832049
0.173202
0.275564
0.386152
0.504075
0.629439
0.762832
0.905662
1.04167
1.15237
1.22665
1.25327
1.24847
1.237
1.2239
1.20923
1.18689
1.19354
-0.0347144
-0.000479399
0.0674044
0.157789
0.26058
0.371877
0.490319
0.616713
0.751616
0.897224
1.03824
1.15737
1.24388
1.27931
1.27536
1.26077
1.24183
1.20952
1.15664
1.13628
-0.0503019
-0.0173073
0.052673
0.143309
0.246715
0.358264
0.4766
0.603806
0.739814
0.887596
1.03285
1.15926
1.2586
1.30493
1.2968
1.27551
1.24224
1.18314
1.12295
1.08713
-0.092277
-0.0339601
0.0392816
0.128786
0.233176
0.344281
0.463065
0.590562
0.727155
0.876284
1.02471
1.15657
1.26726
1.32275
1.3125
1.26583
1.19598
1.11976
1.04895
1.00994
-0.0643623
-0.0449987
0.0189202
0.109041
0.21215
0.323241
0.441666
0.569144
0.70595
0.855809
1.00644
1.14219
1.25129
1.31473
1.26829
1.128
1.02073
0.946559
0.876884
0.894349
-0.0940416
-0.0614028
0.00343649
0.0931792
0.196002
0.307067
0.425941
0.553156
0.689606
0.838924
0.988841
1.12292
1.22127
1.25629
1.17074
1.00398
0.877915
0.793167
0.705168
0.740061
-0.11652
-0.081587
-0.0150043
0.0748274
0.177653
0.288841
0.407825
0.534578
0.6702
0.818013
0.965242
1.09416
1.18016
1.17761
1.03769
0.861049
0.71712
0.613109
0.512466
0.533224
-0.13811
-0.102228
-0.0343412
0.0561334
0.159084
0.27026
0.388891
0.514938
0.649369
0.794956
0.937789
1.05709
1.12384
1.08723
0.899128
0.705528
0.534502
0.3929
0.263164
0.263143
-0.159217
-0.123059
-0.0543492
0.0366832
0.139791
0.250812
0.368887
0.493995
0.626797
0.769435
0.906243
1.01443
1.05879
0.967197
0.761248
0.551161
0.357366
0.198978
-0.00592764
-0.0874529
-0.180532
-0.144565
-0.0754331
0.0159551
0.119204
0.230065
0.347591
0.47163
0.602511
0.741592
0.871242
0.969107
0.982952
0.841078
0.633748
0.415006
0.21793
0.0556826
-0.065239
-0.174213
-0.203105
-0.167215
-0.0979435
-0.00643677
0.0967859
0.207345
0.324169
0.44687
0.575328
0.709956
0.831669
0.914416
0.898686
0.720503
0.513461
0.301504
0.121429
0.02355
-0.00176397
-0.0144478
-0.227101
-0.191306
-0.122004
-0.0305753
0.0723914
0.182424
0.298229
0.419173
0.544585
0.673708
0.785956
0.848972
0.809385
0.604255
0.400037
0.208916
0.0725783
0.0344156
0.0265263
0.0261241
-0.25282
-0.216972
-0.147658
-0.0564475
0.0460689
0.155279
0.269723
0.388448
0.510156
0.632818
0.734744
0.779381
0.699979
0.496887
0.299989
0.133843
0.0578673
0.0439238
0.0430765
0.0432261
-0.280258
-0.24425
-0.174935
-0.0840615
0.017787
0.125899
0.238613
0.354642
0.472023
0.587334
0.678234
0.703483
0.585998
0.398943
0.213604
0.0821815
0.0536627
0.0530005
0.0524717
0.0528851
-0.309177
-0.272988
-0.203748
-0.113354
-0.0123885
0.0943133
0.204895
0.317748
0.430233
0.537395
0.617132
0.620465
0.485469
0.309952
0.146444
0.0707541
0.0562854
0.0582141
0.0584732
0.0588589
-0.339024
-0.302843
-0.233847
-0.144108
-0.044288
0.0606579
0.168697
0.277864
0.385019
0.483632
0.551391
0.537474
0.393783
0.232034
0.101697
0.0623751
0.0631971
0.0627322
0.0629308
0.0632152
-0.369358
-0.333289
-0.264752
-0.175919
-0.0775742
0.0252415
0.130291
0.235267
0.336688
0.42708
0.480371
0.459775
0.312553
0.171355
0.0763047
0.0678704
0.0662128
0.0658633
0.0659014
0.0660537
-0.399176
-0.36347
-0.295753
-0.20817
-0.111706
-0.0114643
0.090143
0.190463
0.285693
0.368604
0.410216
0.380974
0.243914
0.129148
0.0722414
0.0616984
0.0667914
0.0677994
0.068137
0.0682961
-0.426958
-0.392133
-0.325828
-0.239987
-0.145914
-0.0487548
0.0489305
0.144215
0.232874
0.30868
0.345265
0.301292
0.188271
0.0967708
0.0735921
0.07013
0.0692167
0.0695989
0.0697999
0.069932
-0.451351
-0.417795
-0.353604
-0.270183
-0.179145
-0.0856863
0.00754501
0.097476
0.179539
0.247928
0.281814
0.233442
0.146132
0.0771841
0.0572168
0.0662378
0.0694149
0.070538
0.0709062
0.0710605
-0.469816
-0.438379
-0.377347
-0.297261
-0.210097
-0.121074
-0.032889
0.0513414
0.12702
0.188288
0.218985
0.180316
0.11815
0.0716697
0.067145
0.0686289
0.0707176
0.0714627
0.0717193
0.0718853
-0.480416
-0.451867
-0.395035
-0.319512
-0.237261
-0.153539
-0.0710407
0.00709407
0.0764485
0.132423
0.161862
0.136021
0.101967
0.0744276
0.074967
0.0725165
0.071582
0.07158
0.0716168
0.0717284
-0.48051
-0.455941
-0.404636
-0.335129
-0.259031
-0.181626
-0.105485
-0.033758
0.0290972
0.0809189
0.114225
0.0964817
0.0894007
0.0755295
0.0721738
0.0711462
0.0701606
0.0697531
0.0696221
0.0696564
-0.467667
-0.447874
-0.404024
-0.342414
-0.273974
-0.203976
-0.134899
-0.0696968
-0.0132104
0.0325292
0.0782266
0.0599809
0.0737396
0.0679684
0.0647303
0.0654443
0.0654504
0.0650161
0.0647312
0.064698
-0.440143
-0.425782
-0.391509
-0.340217
-0.281081
-0.219624
-0.158265
-0.0996384
-0.0487305
-0.0107065
0.0371419
0.0418021
0.0487227
0.0432739
0.0493707
0.053072
0.0556269
0.05588
0.0555468
0.0555076
-0.401466
-0.392359
-0.368498
-0.328939
-0.280453
-0.228351
-0.175022
-0.122996
-0.0769307
-0.044466
-0.0131087
0.0123174
0.0373173
0.0323137
0.0296672
0.0373373
0.0396301
0.0396452
0.0393764
0.0394609
-0.358689
-0.353495
-0.339889
-0.311723
-0.274226
-0.231043
-0.185301
-0.139386
-0.0972233
-0.0660405
-0.0385088
-0.0127065
0.0191426
0.0443851
0.0637178
0.0526921
0.0292518
0.016555
0.0128811
0.0123346
-0.321387
-0.318189
-0.311678
-0.293809
-0.265223
-0.229501
-0.190118
-0.148813
-0.108612
-0.0759382
-0.0508226
-0.0344471
-0.0283664
-0.043241
-0.074505
-0.113027
-0.119366
-0.0830248
-0.0590082
-0.0602378
-0.294489
-0.292591
-0.289339
-0.27882
-0.257005
-0.226814
-0.191386
-0.152264
-0.111746
-0.0751106
-0.0481683
-0.0420577
-0.0804761
-0.152272
-0.225967
-0.26368
-0.26848
-0.234641
-0.188571
-0.171259
-0.274784
-0.27412
-0.273047
-0.267884
-0.251987
-0.225405
-0.191106
-0.151588
-0.108132
-0.0644903
-0.0339029
-0.00841531
0.00133928
-0.0194992
-0.0725534
-0.0854699
-0.0691514
-0.0412919
-0.00930158
0.00684345
-0.263165
-0.262946
-0.262357
-0.260072
-0.249372
-0.224965
-0.190276
-0.148483
-0.100215
-0.0466343
-0.00052756
0.0628095
0.142508
0.215039
0.256663
0.288034
0.325305
0.361937
0.392005
0.406651
-0.25505
-0.254905
-0.254511
-0.253924
-0.247484
-0.225614
-0.18984
-0.144511
-0.0903491
-0.0246374
0.0438108
0.131684
0.274296
0.453266
0.623473
0.759321
0.852564
0.910017
0.942346
0.955735
-0.249643
-0.2496
-0.249489
-0.249355
-0.245677
-0.227383
-0.190645
-0.140983
-0.0806842
-0.00450172
0.081785
0.179408
0.36524
0.626243
0.899053
1.13796
1.3074
1.40132
1.44237
1.45574
-0.245159
-0.245151
-0.245081
-0.245
-0.243711
-0.229532
-0.192792
-0.139402
-0.073808
0.00964735
0.106905
0.210277
0.406849
0.698481
1.01798
1.31002
1.53191
1.65313
1.70049
1.71354
-0.241295
-0.241279
-0.24115
-0.2409
-0.240833
-0.231026
-0.196223
-0.141082
-0.0714832
0.0155166
0.117053
0.221752
0.400006
0.678558
0.985092
1.26885
1.49316
1.62103
1.66976
1.68184
-0.238319
-0.238305
-0.23824
-0.23819
-0.238594
-0.231853
-0.20077
-0.145397
-0.0741753
0.0129228
0.111847
0.209332
0.35536
0.600039
0.86077
1.09441
1.28279
1.39422
1.43762
1.44795
-0.235333
-0.235376
-0.235528
-0.235838
-0.236086
-0.232624
-0.205502
-0.151911
-0.0816337
0.00259321
0.0940163
0.180056
0.291666
0.490605
0.701566
0.878839
1.01917
1.10362
1.13688
1.14457
-0.232189
-0.232264
-0.232365
-0.232465
-0.232613
-0.23149
-0.2093
-0.159298
-0.0924559
-0.0137107
0.0682227
0.141954
0.22385
0.375714
0.539067
0.669813
0.77011
0.829981
0.853016
0.857905
-0.229173
-0.229269
-0.229404
-0.229572
-0.22991
-0.229516
-0.211975
-0.166658
-0.105246
-0.0338632
0.0384276
0.100404
0.159741
0.271402
0.394508
0.489888
0.560532
0.602071
0.617552
0.620607
-0.226085
-0.22622
-0.226443
-0.226821
-0.22745
-0.227699
-0.213635
-0.17334
-0.118602
-0.0551469
0.00768998
0.0595473
0.102748
0.184618
0.275671
0.344187
0.39388
0.422605
0.432758
0.434209
-0.222941
-0.223076
-0.223221
-0.223408
-0.223832
-0.22445
-0.21338
-0.179067
-0.131477
-0.0757305
-0.0215441
0.0212563
0.0530629
0.113654
0.181535
0.230815
0.265815
0.285831
0.292545
0.293216
-0.220567
-0.220581
-0.220293
-0.219296
-0.21777
-0.217564
-0.210905
-0.183871
-0.143399
-0.0940312
-0.0480397
-0.0132755
0.0111741
0.0569475
0.107407
0.142945
0.168044
0.182069
0.186454
0.186699
-0.220229
-0.220109
-0.2195
-0.217692
-0.21466
-0.213176
-0.209904
-0.189432
-0.153762
-0.109697
-0.0718603
-0.0430826
-0.0239921
0.0115348
0.0497443
0.0758773
0.0941149
0.103933
0.106998
0.106799
-0.221891
-0.221884
-0.221945
-0.222159
-0.222327
-0.22194
-0.218189
-0.197778
-0.162133
-0.123425
-0.092492
-0.067645
-0.05145
-0.0242424
0.00499815
0.024623
0.038323
0.0454531
0.047509
0.0471568
-0.222527
-0.223002
-0.224945
-0.230771
-0.239671
-0.242199
-0.234389
-0.206377
-0.169411
-0.136526
-0.110064
-0.0862163
-0.0728493
-0.0510296
-0.0280079
-0.0127147
-0.00217623
0.00314065
0.00465052
0.00424398
-0.218406
-0.219206
-0.222272
-0.231835
-0.246796
-0.252366
-0.238351
-0.207315
-0.175078
-0.148574
-0.122103
-0.0997884
-0.0888786
-0.0709702
-0.0512895
-0.0384386
-0.0297639
-0.0255457
-0.0243233
-0.024746
-0.212825
-0.213362
-0.214655
-0.215935
-0.216114
-0.218869
-0.211941
-0.196014
-0.177593
-0.155546
-0.12864
-0.109647
-0.100324
-0.0840497
-0.0668882
-0.0552334
-0.0471151
-0.042933
-0.0416997
-0.0421514
-0.212744
-0.212601
-0.209989
-0.193223
-0.160441
-0.142655
-0.159848
-0.176398
-0.176298
-0.156093
-0.131595
-0.116067
-0.107696
-0.0917014
-0.0748861
-0.0635942
-0.0555496
-0.0513428
-0.050137
-0.0506319
-0.223448
-0.221774
-0.215826
-0.195396
-0.160377
-0.139588
-0.159439
-0.185607
-0.182655
-0.156689
-0.132407
-0.119338
-0.11043
-0.0948634
-0.0788287
-0.066898
-0.0581233
-0.0534137
-0.0521214
-0.0526943
-0.260611
-0.259368
-0.266809
-0.278161
-0.277924
-0.261221
-0.251012
-0.236922
-0.201668
-0.158749
-0.13269
-0.119168
-0.109628
-0.0935082
-0.0775438
-0.065454
-0.0564712
-0.0517626
-0.0505476
-0.0511627
-0.336232
-0.343852
-0.370634
-0.403236
-0.414044
-0.39789
-0.360898
-0.294003
-0.216457
-0.157598
-0.12981
-0.114782
-0.104068
-0.0885979
-0.0729113
-0.0605135
-0.0516307
-0.0472749
-0.0462683
-0.046895
-0.392408
-0.405099
-0.432155
-0.456496
-0.465321
-0.448623
-0.400958
-0.30711
-0.21056
-0.147639
-0.118599
-0.102577
-0.0929658
-0.07876
-0.0634376
-0.051407
-0.043383
-0.0396337
-0.0388908
-0.0394898
-0.363622
-0.373319
-0.393688
-0.41249
-0.420854
-0.407039
-0.355671
-0.256695
-0.173394
-0.121604
-0.0936188
-0.0800317
-0.0752862
-0.062608
-0.0479722
-0.0374241
-0.030668
-0.0277486
-0.0274433
-0.0281139
-0.229488
-0.241318
-0.261446
-0.281791
-0.29084
-0.279312
-0.234097
-0.158906
-0.108844
-0.0757026
-0.055453
-0.0494462
-0.0492327
-0.0381919
-0.0276891
-0.0208767
-0.0156861
-0.0133086
-0.0135452
-0.0143969
-0.00748863
-0.011575
-0.0272109
-0.0538076
-0.0690091
-0.0696255
-0.0614826
-0.040672
-0.0302979
-0.020151
-0.0136973
-0.0109278
-0.0108018
-0.00999424
-0.00585047
-0.00658298
-0.00645119
-0.00621911
-0.00511881
-0.00443313
0.382981
0.561906
0.724261
0.860337
0.966558
1.04785
1.11438
1.16877
1.18207
1.17997
0.651306
0.764727
0.870546
0.960967
1.03592
1.09701
1.145
1.17758
1.19533
1.21271
0.832847
0.907942
0.982132
1.04677
1.10144
1.14669
1.18255
1.2103
1.23128
1.25069
0.968197
1.02182
1.07562
1.12383
1.16542
1.20093
1.23096
1.25633
1.27588
1.2948
1.07871
1.1194
1.15954
1.19727
1.23112
1.26119
1.28761
1.31015
1.32772
1.34582
1.17157
1.20564
1.23908
1.27122
1.30098
1.32804
1.35204
1.37232
1.38776
1.40524
1.25719
1.28815
1.31932
1.34954
1.37772
1.40341
1.42599
1.44454
1.4582
1.47519
1.34242
1.37441
1.40617
1.4368
1.46509
1.49045
1.51222
1.52948
1.54167
1.55815
1.43578
1.47196
1.50637
1.53846
1.5673
1.59236
1.61322
1.62932
1.64079
1.65689
1.54835
1.58904
1.62577
1.65836
1.68657
1.71035
1.7298
1.74495
1.75674
1.77278
1.68968
1.73043
1.76552
1.79489
1.81992
1.84141
1.85981
1.87521
1.88826
1.90418
1.86083
1.89269
1.91961
1.94193
1.96195
1.9806
1.99828
2.01501
2.02989
2.04559
2.04679
2.06395
2.08101
2.09766
2.11373
2.12844
2.14231
2.15676
2.17197
2.18927
2.23015
2.24002
2.25317
2.26414
2.27354
2.28318
2.29376
2.30391
2.31319
2.33886
2.44788
2.44218
2.42923
2.41497
2.40866
2.41434
2.43247
2.46099
2.49475
2.53108
2.75072
2.61477
2.53524
2.49266
2.47532
2.47932
2.50673
2.56459
2.67224
2.85065
1.18912
1.18282
1.1751
1.16399
1.15043
1.13779
1.12742
1.11943
1.11376
1.11049
1.11021
1.11312
1.11841
1.12581
1.13539
1.14725
1.16082
1.17376
1.18276
1.19031
1.09817
1.10409
1.11217
1.11831
1.12139
1.12089
1.11783
1.11387
1.11033
1.10811
1.10805
1.11039
1.1142
1.1187
1.12283
1.12511
1.12405
1.11943
1.11238
1.10455
1.09139
1.09376
1.09703
1.09982
1.10228
1.10449
1.10569
1.10559
1.1047
1.10396
1.10427
1.10578
1.10763
1.10891
1.10888
1.10744
1.10531
1.10296
1.09999
1.09698
1.08655
1.08764
1.08956
1.09191
1.0938
1.09522
1.09647
1.09751
1.09817
1.09863
1.09929
1.10014
1.10069
1.10064
1.10006
1.09917
1.09787
1.09592
1.09383
1.09236
1.08146
1.0821
1.08323
1.085
1.08687
1.08849
1.08978
1.09089
1.09195
1.09294
1.09385
1.0945
1.09474
1.09461
1.09413
1.09321
1.09181
1.09023
1.08891
1.08811
1.07646
1.07689
1.07769
1.07901
1.08056
1.08216
1.08368
1.08504
1.08628
1.08748
1.08858
1.08933
1.08963
1.0895
1.08891
1.08797
1.08686
1.08575
1.08486
1.08433
1.07152
1.07184
1.07247
1.07356
1.07488
1.07632
1.07786
1.0794
1.0809
1.08234
1.08366
1.08459
1.08497
1.08484
1.08434
1.08362
1.08284
1.08202
1.08138
1.081
1.06662
1.06688
1.06738
1.06831
1.06952
1.07088
1.07237
1.07398
1.07568
1.07741
1.07902
1.08016
1.08069
1.08073
1.08047
1.08001
1.07945
1.07888
1.07842
1.07813
1.06169
1.06189
1.06231
1.06314
1.06428
1.0656
1.06709
1.06877
1.07063
1.07264
1.07459
1.07604
1.07684
1.07717
1.07717
1.07697
1.07663
1.07626
1.07595
1.07572
1.05664
1.0568
1.05716
1.05792
1.05902
1.06034
1.06187
1.06365
1.0657
1.06801
1.07036
1.07223
1.07342
1.07408
1.07438
1.07444
1.07434
1.07416
1.07397
1.07378
1.05136
1.05149
1.05181
1.05254
1.05363
1.05498
1.0566
1.05854
1.06084
1.06351
1.06635
1.06874
1.07038
1.07144
1.07207
1.07242
1.07256
1.07257
1.07248
1.07233
1.04578
1.04588
1.04617
1.04688
1.04801
1.04944
1.05119
1.05334
1.05596
1.0591
1.06254
1.06556
1.06773
1.06924
1.07026
1.07092
1.07133
1.07153
1.07153
1.07141
1.03977
1.03985
1.04013
1.04085
1.04203
1.0436
1.04554
1.04797
1.051
1.05471
1.05889
1.06265
1.06547
1.06751
1.06897
1.07001
1.0707
1.07109
1.07118
1.07108
1.03322
1.03328
1.03355
1.0343
1.03559
1.03733
1.03953
1.04233
1.04588
1.05029
1.05536
1.06002
1.0636
1.06628
1.06825
1.06971
1.07073
1.07133
1.0715
1.07141
1.02598
1.02602
1.0263
1.02711
1.02854
1.0305
1.03304
1.0363
1.04049
1.04577
1.05191
1.05766
1.06214
1.06557
1.06815
1.07009
1.0715
1.07231
1.07257
1.07249
1.01789
1.0179
1.01819
1.01908
1.02069
1.02295
1.02591
1.02976
1.03474
1.04107
1.04852
1.05555
1.06111
1.06542
1.06872
1.07125
1.07309
1.07415
1.07448
1.07442
1.00868
1.00868
1.00899
1.00999
1.01184
1.01448
1.01797
1.02254
1.0285
1.03612
1.04513
1.0537
1.06053
1.06587
1.07002
1.07326
1.0756
1.07692
1.07733
1.07727
0.998084
0.998063
0.998413
0.999557
1.00171
1.00482
1.00898
1.01446
1.02163
1.03083
1.04172
1.05211
1.06043
1.06699
1.07214
1.07619
1.0791
1.08071
1.08119
1.08112
0.985717
0.985676
0.986076
0.987411
0.989947
0.993668
0.998669
1.00529
1.01397
1.02509
1.03825
1.05077
1.06083
1.0688
1.07514
1.08011
1.08366
1.08557
1.08611
1.08603
0.971054
0.97099
0.971474
0.973063
0.97609
0.980599
0.98669
0.99477
1.00534
1.01883
1.03468
1.0497
1.06176
1.07135
1.07904
1.08506
1.08932
1.0915
1.09208
1.09198
0.953367
0.95328
0.953893
0.95584
0.959527
0.965084
0.972615
0.98259
0.995562
1.01197
1.03103
1.04892
1.06324
1.07466
1.08384
1.09104
1.09602
1.09844
1.09903
1.0989
0.931608
0.931504
0.93233
0.9348
0.939416
0.946427
0.95592
0.968421
0.984487
1.00448
1.02731
1.04847
1.0653
1.07872
1.08954
1.098
1.10367
1.10624
1.10678
1.10662
0.904184
0.904083
0.905267
0.908554
0.914592
0.923727
0.936019
0.951969
0.972037
0.996421
1.02363
1.0484
1.06795
1.08353
1.09609
1.10581
1.11203
1.1146
1.11504
1.11485
0.868513
0.868471
0.870311
0.875015
0.883449
0.895952
0.912383
0.933089
0.958295
0.987952
1.02012
1.04882
1.07125
1.08906
1.10339
1.11428
1.12077
1.12314
1.12344
1.12322
0.820002
0.820206
0.823502
0.831212
0.844133
0.862209
0.884823
0.911972
0.943579
0.979373
1.017
1.04986
1.07522
1.09527
1.11132
1.1231
1.12944
1.13141
1.13153
1.13129
0.750036
0.751583
0.759656
0.774335
0.795589
0.822579
0.853936
0.889297
0.928458
0.97108
1.01451
1.05162
1.07992
1.10207
1.11957
1.13176
1.13748
1.13886
1.13883
1.13861
0.666356
0.669319
0.685101
0.710587
0.74331
0.780779
0.821558
0.865524
0.912596
0.962537
1.01245
1.05458
1.08653
1.11134
1.13024
1.14215
1.14694
1.14783
1.14775
1.14763
0.580336
0.588055
0.61184
0.648111
0.691876
0.739626
0.789822
0.842412
0.897395
0.954596
1.0109
1.05797
1.09345
1.12084
1.14095
1.15203
1.15537
1.15572
1.15562
1.15555
0.509573
0.519576
0.548404
0.592308
0.644705
0.70112
0.759772
0.820414
0.882893
0.946943
1.00918
1.06071
1.09929
1.12874
1.14929
1.15931
1.1618
1.16198
1.1619
1.16185
0.451309
0.462098
0.494786
0.544328
0.603227
0.666527
0.732226
0.799879
0.869096
0.93942
1.00712
1.06274
1.10413
1.13529
1.15605
1.16517
1.16709
1.16717
1.16711
1.16708
0.402245
0.413436
0.448802
0.502725
0.566893
0.635862
0.707458
0.781119
0.856265
0.932236
1.00492
1.06432
1.10829
1.14095
1.16176
1.17006
1.17158
1.17161
1.17155
1.17153
0.359979
0.371354
0.408713
0.466138
0.534683
0.608485
0.685183
0.764105
0.844524
0.92559
1.00282
1.06565
1.11197
1.14593
1.16663
1.17421
1.17545
1.17545
1.1754
1.17538
0.32279
0.334235
0.37315
0.433466
0.505725
0.583709
0.664914
0.748559
0.833775
0.919509
1.0009
1.06685
1.11526
1.15031
1.17082
1.1778
1.17883
1.17879
1.17874
1.17873
0.289426
0.300894
0.341032
0.403836
0.479318
0.560975
0.646199
0.734145
0.823796
0.913897
0.999153
1.06793
1.11821
1.15416
1.17441
1.18087
1.18174
1.18167
1.1816
1.18159
0.258854
0.270358
0.311574
0.376576
0.454916
0.539835
0.628677
0.720566
0.814371
0.90862
0.997545
1.06892
1.12083
1.15749
1.17744
1.18345
1.18419
1.18407
1.18398
1.18396
0.230484
0.242028
0.2842
0.351176
0.432072
0.519926
0.61206
0.707592
0.805312
0.903568
0.996056
1.06986
1.12316
1.16033
1.17988
1.1855
1.18612
1.18596
1.18585
1.18582
0.203817
0.215414
0.258468
0.327241
0.410449
0.500966
0.596118
0.695034
0.796477
0.898654
0.9947
1.07084
1.12529
1.1627
1.18172
1.18697
1.18751
1.18732
1.1872
1.18716
0.178452
0.190184
0.234056
0.304487
0.389798
0.482735
0.580668
0.68275
0.78774
0.893798
0.993509
1.072
1.12736
1.16465
1.183
1.18789
1.18837
1.18819
1.18807
1.18802
0.15423
0.166113
0.210761
0.282707
0.369936
0.465085
0.565577
0.670615
0.778997
0.888904
0.992479
1.0735
1.1296
1.16636
1.18378
1.18831
1.1888
1.18865
1.18855
1.18849
0.130933
0.143015
0.188402
0.261772
0.35074
0.447899
0.550743
0.658539
0.770155
0.883883
0.991567
1.0755
1.13232
1.16808
1.18419
1.18834
1.18892
1.18884
1.18872
1.18864
0.108538
0.1208
0.166892
0.241596
0.332134
0.431109
0.536108
0.64646
0.761142
0.878628
0.990683
1.07812
1.13595
1.17026
1.18439
1.18786
1.18866
1.18879
1.18864
1.18851
0.0869064
0.0994013
0.146206
0.222131
0.314064
0.414671
0.521627
0.634336
0.751901
0.873048
0.989694
1.08136
1.1409
1.17361
1.18486
1.18677
1.18754
1.1882
1.18847
1.18838
0.066166
0.0787951
0.126301
0.203328
0.296508
0.398588
0.507286
0.622142
0.742393
0.867073
0.988444
1.08514
1.1475
1.17908
1.1867
1.18573
1.18558
1.187
1.18879
1.18937
0.0461268
0.0589691
0.107154
0.185156
0.279445
0.382835
0.493105
0.609873
0.732594
0.860648
0.986771
1.08922
1.15587
1.18765
1.19194
1.18727
1.1849
1.18682
1.19105
1.19352
0.0268985
0.0399547
0.0887346
0.16762
0.262906
0.367445
0.479106
0.597575
0.722511
0.8537
0.984519
1.09329
1.16583
1.19986
1.20234
1.19436
1.18931
1.19091
1.19744
1.20313
0.00838
0.021647
0.0710621
0.150741
0.24689
0.352441
0.465327
0.585264
0.712163
0.846231
0.981549
1.09695
1.17685
1.21542
1.21825
1.20844
1.20072
1.19894
1.19946
1.19631
-0.00935771
0.00405511
0.0540362
0.134338
0.231165
0.337543
0.451444
0.572561
0.701153
0.837822
0.977484
1.09989
1.1889
1.23467
1.24008
1.2299
1.21955
1.20931
1.1981
1.20084
-0.0263209
-0.0129247
0.0376231
0.118449
0.215722
0.32276
0.437457
0.559409
0.689389
0.828251
0.971934
1.10124
1.20072
1.25662
1.26611
1.25621
1.24142
1.22721
1.19125
1.15616
-0.0423436
-0.0291652
0.0218148
0.1032
0.200535
0.308062
0.423332
0.545899
0.676868
0.817432
0.964559
1.10013
1.21017
1.27894
1.29387
1.28017
1.25865
1.22478
1.17218
1.12233
-0.0601377
-0.043591
0.00679044
0.0890624
0.185873
0.293686
0.408669
0.532045
0.663635
0.805392
0.955107
1.09578
1.21448
1.29939
1.32124
1.2995
1.25381
1.19158
1.12181
1.06361
-0.0479876
-0.0225411
0.0326514
0.118828
0.222836
0.334
0.455125
0.582656
0.719376
0.86888
1.01837
1.15194
1.2634
1.33704
1.32472
1.23226
1.16338
1.08911
1.01892
0.974659
-0.0610186
-0.052919
-0.0104863
0.0660914
0.163126
0.270243
0.385856
0.509439
0.641405
0.783921
0.935485
1.0806
1.20504
1.29718
1.33084
1.27622
1.14716
1.05663
0.990001
0.9145
-0.0811578
-0.070274
-0.0242428
0.0537909
0.151496
0.258203
0.372931
0.495845
0.627463
0.769687
0.921515
1.06782
1.19137
1.27084
1.27129
1.15007
1.00343
0.907832
0.835233
0.75704
-0.103238
-0.0911936
-0.0419928
0.0370268
0.134723
0.241741
0.356743
0.47975
0.611003
0.752652
0.903097
1.04677
1.16102
1.2243
1.18102
1.0161
0.861694
0.751769
0.665299
0.555137
-0.124673
-0.112638
-0.0618165
0.0183458
0.116081
0.223277
0.338321
0.461022
0.591569
0.731961
0.87979
1.01819
1.12154
1.15861
1.0666
0.874191
0.700295
0.564013
0.453464
0.310044
-0.145778
-0.133838
-0.0820366
-0.000873586
0.0971881
0.20442
0.319168
0.441191
0.570648
0.70915
0.85332
0.984745
1.07758
1.07241
0.931343
0.728138
0.530597
0.358412
0.21272
-0.0298589
-0.167011
-0.155271
-0.10293
-0.0211371
0.0772082
0.184471
0.298851
0.420089
0.548191
0.68428
0.823908
0.945525
1.02285
0.98627
0.798041
0.587764
0.378114
0.197211
0.0292398
-0.217253
-0.188937
-0.177391
-0.12488
-0.0427512
0.0557539
0.162999
0.276993
0.397385
0.523927
0.657137
0.7915
0.901264
0.960172
0.890908
0.676034
0.460814
0.255643
0.0838046