/*--------------------------------*- C++ -*----------------------------------*\
  =========                 |
  \\      /  F ield         | OpenFOAM: The Open Source CFD Toolbox
   \\    /   O peration     | Website:  https://openfoam.org
    \\  /    A nd           | Version:  6
     \\/     M anipulation  |
\*---------------------------------------------------------------------------*/
FoamFile
{
    version     2.0;
    format      ascii;
    class       volScalarField;
    location    "0.001";
    object      mag(U);
}
// * * * * * * * * * * * * * * * * * * * * * * * * * * * * * * * * * * * * * //

dimensions      [0 1 -1 0 0 0 0];

internalField   nonuniform List<scalar> 
1000
(
1.45873e-14
7.29365e-14
8.75238e-14
2.91746e-14
5.83492e-14
1.75048e-13
2.1881e-13
2.1881e-13
8.60651e-13
1.16698e-13
3.35508e-13
2.91746e-13
4.95968e-13
2.33397e-13
2.91746e-14
1.02111e-13
2.1881e-13
1.16698e-13
7.29365e-14
2.1881e-13
1.45873e-14
2.91746e-14
1.89327e-28
1.31286e-13
1.75048e-13
5.83492e-14
1.45873e-13
2.91746e-14
1.45873e-14
4.37619e-14
1.02111e-13
5.83492e-14
2.04222e-13
2.33397e-13
3.35508e-13
2.47984e-13
7.29365e-14
4.52206e-13
1.6046e-13
2.33397e-13
7.29365e-14
1.31286e-13
4.37619e-14
2.91746e-14
8.75238e-14
8.75238e-14
1.75048e-13
8.75238e-14
5.83492e-14
2.62571e-13
1.16698e-13
2.91746e-13
1.02111e-13
2.91746e-14
1.16698e-13
1.45873e-13
7.29365e-14
5.83492e-14
5.25143e-13
3.64683e-13
2.91746e-13
2.47984e-13
7.29365e-14
2.47984e-13
5.83492e-14
4.37619e-14
2.77159e-13
2.91746e-13
2.1881e-13
1.16698e-13
1.45873e-14
2.47984e-13
7.29365e-14
2.33397e-13
1.02111e-13
1.02111e-13
5.83492e-14
3.35508e-13
1.16698e-13
2.1881e-13
4.23032e-13
1.75048e-13
4.37619e-14
2.77159e-13
3.7927e-13
4.66794e-13
2.91746e-14
3.20921e-13
7.29365e-14
1.02111e-13
1.31286e-13
2.91746e-14
2.87145e-28
5.83492e-14
1.02111e-13
8.75238e-14
1.31286e-13
7.29365e-14
1.89635e-13
1.02111e-13
1.31286e-13
2.62571e-13
3.7927e-13
5.25143e-13
5.83492e-13
5.3973e-13
2.91746e-13
3.64683e-13
7.29365e-14
8.75238e-14
1.6046e-13
3.50095e-13
3.7927e-13
1.75048e-13
4.37619e-14
1.89635e-13
2.91746e-13
1.6046e-13
5.10556e-13
4.37619e-14
4.37619e-14
2.33397e-13
2.04222e-13
2.33397e-13
1.45873e-14
1.02111e-13
4.37619e-14
4.37619e-14
4.37619e-14
8.75238e-14
1.6046e-13
2.91746e-14
8.75238e-14
2.04222e-13
1.6046e-13
8.75238e-14
1.75048e-13
2.04222e-13
5.83492e-14
2.46125e-28
8.75238e-14
1.02111e-13
1.75048e-13
5.83492e-14
2.91746e-14
2.91746e-14
7.8255e-28
2.62571e-13
1.45873e-13
1.6046e-13
1.02111e-13
2.04222e-13
2.47984e-13
2.04222e-13
3.64683e-13
1.45873e-13
5.83492e-14
2.91746e-14
1.45873e-13
4.37619e-14
3.64683e-13
2.62571e-13
5.83492e-13
5.83492e-13
7.14778e-13
6.12667e-13
1.89635e-13
8.75238e-14
2.77159e-13
1.02111e-13
5.83492e-14
2.91746e-13
1.45873e-13
1.02111e-13
1.89635e-13
1.75048e-13
5.10556e-13
1.75048e-13
8.75238e-14
8.75238e-14
2.33397e-13
2.62571e-13
2.33397e-13
1.45873e-14
1.31286e-13
1.89635e-13
2.91746e-14
1.45873e-13
5.83492e-14
1.89635e-13
8.75238e-14
2.77159e-13
8.75238e-14
2.04222e-13
2.62571e-13
4.37619e-14
1.45873e-13
1.31286e-13
2.62571e-13
4.37619e-14
3.93857e-13
1.6046e-13
8.75238e-14
1.02111e-13
1.02111e-13
1.45873e-14
7.29365e-14
7.29365e-14
7.29365e-14
1.16698e-13
1.6046e-13
1.31286e-13
5.83492e-14
7.29365e-14
2.91746e-14
1.45873e-13
1.6046e-13
1.89635e-13
1.6046e-13
4.23032e-13
4.23032e-13
4.23032e-13
2.91746e-13
2.62571e-13
1.45873e-13
1.45873e-14
1.45873e-14
1.31286e-13
1.89635e-13
1.45873e-14
1.75048e-13
1.45873e-13
1.45873e-13
7.29365e-14
3.93857e-13
8.75238e-14
5.83492e-14
1.45873e-14
1.31286e-13
2.47984e-13
3.35508e-13
3.06333e-13
6.12667e-13
2.1881e-13
2.1881e-13
3.35508e-13
1.89635e-13
2.62571e-13
2.33397e-13
8.75238e-14
3.20921e-13
1.45873e-14
5.39581e-28
7.29365e-14
4.37619e-14
1.45873e-14
1.02111e-13
1.45873e-13
2.1881e-13
2.47984e-13
1.75048e-13
4.37619e-13
2.04222e-13
1.6046e-13
2.62571e-13
2.77159e-13
3.50095e-13
1.31286e-13
1.02111e-13
1.45873e-13
1.6046e-13
7.29365e-14
1.45873e-14
2.04222e-13
1.89635e-13
1.45873e-13
1.45873e-14
2.91746e-14
1.45873e-14
3.50095e-13
3.64683e-13
2.04222e-13
1.45873e-13
1.16698e-13
3.20921e-13
1.89635e-13
1.02111e-13
2.04222e-13
2.33397e-13
1.45873e-13
1.45873e-13
3.20921e-13
1.31286e-13
2.04222e-13
2.77159e-13
2.62571e-13
2.77159e-13
7.0019e-13
9.04413e-13
8.60651e-13
7.14778e-13
5.83492e-13
4.66794e-13
8.75238e-13
3.50095e-13
4.23032e-13
1.10863e-12
6.85603e-13
8.31476e-13
9.33587e-13
8.60651e-13
9.33587e-13
6.71016e-13
5.98079e-13
4.52206e-13
6.41841e-13
6.56429e-13
3.35508e-13
1.45873e-14
2.33397e-13
3.06333e-13
3.06333e-13
4.08444e-13
4.08444e-13
3.7927e-13
4.52206e-13
3.06333e-13
4.37619e-13
8.02302e-13
2.1881e-13
3.06333e-13
5.83492e-13
2.91746e-13
1.6046e-13
3.35508e-13
1.02111e-13
1.45873e-13
8.75238e-14
4.08444e-13
1.02111e-13
2.33397e-13
2.77159e-13
2.1881e-13
1.6046e-13
4.37619e-14
1.75048e-13
1.31286e-13
1.16698e-13
1.75048e-13
1.45873e-14
7.29365e-14
2.91746e-14
1.75048e-13
2.77159e-13
1.02111e-13
3.7927e-13
3.35508e-13
2.91746e-13
2.77159e-13
8.75238e-14
2.77159e-13
2.77159e-13
1.45873e-13
2.77159e-13
2.77159e-13
6.27254e-13
2.77159e-13
5.10556e-13
3.06333e-13
1.75048e-13
3.35508e-13
2.04222e-13
4.37619e-14
8.75238e-14
2.33397e-13
1.16698e-13
1.02111e-13
4.37619e-14
1.45873e-13
2.62571e-13
1.75048e-13
1.6046e-13
1.6046e-13
1.75048e-13
2.04222e-13
4.37619e-14
1.16698e-13
1.45873e-14
1.89635e-13
1.6046e-13
4.37619e-13
3.93857e-13
3.20921e-13
3.20921e-13
1.31286e-13
4.08444e-13
5.10556e-13
2.62571e-13
3.7927e-13
2.04222e-13
2.1881e-13
2.1881e-13
4.37619e-14
2.62571e-13
1.31286e-13
4.66794e-13
5.10556e-13
2.04222e-13
8.75238e-14
7.29365e-14
2.47984e-13
1.31286e-13
1.89635e-13
2.62571e-13
4.08444e-13
3.93857e-13
3.06333e-13
2.04222e-13
3.35508e-13
3.64683e-13
3.06333e-13
6.71016e-13
1.69213e-12
4.79922e-12
1.38871e-11
4.14133e-11
1.23934e-10
3.67425e-10
1.07173e-09
3.08241e-09
8.72827e-09
2.43286e-08
6.67175e-08
1.79932e-07
4.76994e-07
1.24233e-06
3.17726e-06
7.97483e-06
1.96332e-05
4.73803e-05
0.000112011
0.000259229
0.000586884
0.00129878
0.00280727
0.00592135
0.0121773
0.0243927
0.0475451
0.0900807
0.165719
0.295708
0.511279
0.855777
1.38565
2.16935
3.28353
4.80633
6.80889
9.34666
12.4528
16.135
20.3765
25.1404
30.376
36.0253
42.0289
48.3304
54.8789
61.6305
68.5481
75.6015
82.7661
90.0218
97.3524
104.744
112.187
119.669
127.182
134.717
142.269
149.823
157.387
164.924
172.469
179.964
187.439
194.873
202.235
209.536
216.757
223.864
230.842
237.676
244.324
250.746
256.901
262.746
268.22
273.261
277.804
281.796
285.189
287.954
290.085
291.619
292.621
293.202
293.46
293.518
293.491
293.373
293.193
293.034
292.931
292.881
292.864
292.859
292.869
292.888
292.91
292.951
293.026
293.169
293.164
292.979
292.854
292.8
292.803
292.842
292.893
292.942
292.979
292.999
293.008
293.008
292.998
292.985
292.966
292.944
292.913
292.884
292.865
292.823
292.764
292.672
292.569
292.349
292.167
291.589
290.694
288.274
282.631
269.985
240.109
183.047
107.126
45.0145
14.1327
3.62959
0.816703
0.172376
0.035644
0.00733479
0.00150788
0.000309903
6.36781e-05
1.30806e-05
2.68599e-06
5.51278e-07
1.13079e-07
2.31786e-08
4.74768e-09
9.71151e-10
1.98533e-10
4.06111e-11
8.34395e-12
1.77965e-12
3.64683e-13
1.02111e-13
4.3762e-14
1.31286e-13
2.91746e-14
2.47984e-13
7.29366e-14
1.16699e-13
1.45873e-14
4.3762e-14
4.3762e-13
2.33397e-13
1.75048e-13
3.35508e-13
7.73128e-13
2.33397e-13
2.91746e-14
7.29366e-14
1.45873e-14
3.35508e-13
4.3762e-14
4.3762e-14
5.83493e-14
1.45873e-13
1.60461e-13
3.93858e-13
2.91746e-14
8.75239e-14
4.3762e-14
3.35508e-13
5.83493e-14
1.16699e-13
1.45873e-14
1.45873e-14
1.60461e-13
7.29366e-14
5.83493e-14
1.45873e-14
8.75239e-14
1.02111e-13
5.83493e-14
4.3762e-14
7.29366e-14
2.04222e-13
1.02111e-13
4.3762e-14
1.45873e-14
4.3762e-14
4.3762e-14
1.45873e-13
2.91746e-13
2.1881e-13
2.77159e-13
1.60461e-13
4.3762e-14
2.62572e-13
1.26849e-27
2.91746e-14
1.45873e-14
4.3762e-14
1.60461e-13
5.83493e-14
2.33397e-13
4.3762e-14
1.16699e-13
2.91746e-14
1.02111e-13
4.3762e-14
1.31286e-13
4.3762e-14
1.16699e-13
8.75239e-14
2.04222e-13
5.83493e-14
8.75239e-14
1.45873e-14
7.29366e-14
1.31286e-13
3.35508e-13
3.64683e-13
1.16699e-13
2.91746e-14
2.62572e-13
1.31286e-13
2.91746e-14
2.1881e-13
7.29366e-14
4.32296e-28
1.60461e-13
2.33397e-13
3.06334e-13
8.75239e-14
2.33397e-13
1.89635e-13
1.45873e-13
4.3762e-14
4.3762e-14
4.08445e-13
1.45873e-13
2.91746e-13
3.20921e-13
5.83493e-14
1.45873e-14
4.66794e-13
3.06334e-13
2.33397e-13
1.19591e-27
5.83493e-14
1.60461e-13
1.45873e-13
8.75239e-14
1.16699e-13
3.35508e-13
7.29366e-14
2.47984e-13
3.20921e-13
2.77159e-13
3.06334e-13
6.27255e-13
4.3762e-13
4.66794e-13
6.71017e-13
4.81382e-13
9.62763e-13
1.05029e-12
9.77351e-13
5.9808e-13
4.95969e-13
1.89635e-13
6.56429e-13
1.45873e-13
6.41842e-13
1.02111e-13
6.27255e-13
1.16699e-13
8.60652e-13
1.75048e-13
2.77159e-13
2.1881e-13
3.06334e-13
3.93858e-13
3.64683e-13
2.1881e-13
1.31286e-13
2.1881e-13
2.1881e-13
2.91746e-13
4.95969e-13
3.20921e-13
8.75239e-14
3.20921e-13
1.16699e-13
2.04222e-13
2.91746e-14
7.29366e-14
1.45873e-14
2.33397e-13
5.83493e-14
1.75048e-13
1.45873e-13
3.06334e-13
7.29366e-14
1.02111e-13
2.04222e-13
2.47984e-13
2.91746e-13
1.31286e-13
2.77159e-13
2.77159e-13
2.47984e-13
2.33397e-13
1.31286e-13
2.62572e-13
1.75048e-13
7.29366e-14
7.29366e-14
1.00974e-28
1.60461e-13
2.91746e-14
2.62572e-13
5.10556e-13
2.91746e-13
8.75239e-14
1.45873e-13
1.60461e-13
1.31286e-13
1.31286e-13
5.83493e-14
1.75048e-13
8.75239e-14
5.83493e-14
8.75239e-14
1.75048e-13
4.3762e-14
1.16699e-13
3.20921e-13
4.3762e-14
4.3762e-14
4.3762e-14
1.31286e-13
2.33397e-13
2.33397e-13
8.75239e-14
1.16699e-13
1.31286e-13
3.93858e-13
2.47984e-13
1.45873e-13
3.35508e-13
7.29366e-14
4.3762e-14
1.16699e-13
2.04222e-13
1.31286e-13
5.83493e-14
1.60461e-13
1.02111e-13
1.45873e-14
4.3762e-14
2.91746e-14
1.6533e-28
2.1881e-13
5.99534e-29
1.60461e-13
2.91746e-14
1.60461e-13
1.31286e-13
2.33397e-13
3.93858e-13
5.83493e-14
3.06334e-13
2.1881e-13
1.75048e-13
5.83493e-14
7.29366e-14
4.3762e-14
1.02111e-13
1.16699e-13
1.31286e-13
9.52944e-28
1.89635e-13
1.45873e-14
1.02111e-13
7.29366e-14
4.82783e-28
2.91746e-14
3.64683e-13
2.33397e-13
2.33397e-13
5.83493e-14
1.45873e-14
1.89635e-13
1.75048e-13
2.77159e-13
2.47984e-13
5.54318e-13
6.41842e-13
4.23032e-13
2.91746e-14
2.1881e-13
4.3762e-14
1.45873e-13
2.33397e-13
1.75048e-13
1.45873e-13
4.3762e-14
1.31286e-13
2.91746e-14
1.02111e-13
5.83493e-14
1.45873e-14
1.75048e-13
2.47984e-13
1.75048e-13
2.1881e-13
1.02111e-13
7.29366e-14
1.16699e-13
3.50096e-13
1.45873e-14
3.06334e-13
2.62572e-13
2.1881e-13
1.01522e-27
4.23032e-13
2.91746e-13
3.20921e-13
5.83493e-14
8.75239e-14
1.16699e-13
1.60461e-13
1.45873e-14
1.31286e-13
1.60461e-13
2.1881e-13
4.3762e-14
1.60461e-13
4.3762e-14
2.91746e-14
4.3762e-14
1.0129e-27
1.16699e-13
3.20921e-13
3.06334e-13
5.83493e-14
2.77159e-13
1.31286e-13
1.45873e-14
2.1881e-13
4.3762e-14
4.3762e-14
4.3762e-14
2.33397e-13
2.91746e-14
3.64683e-13
3.20921e-13
2.47984e-13
5.25144e-13
1.16699e-13
2.1881e-13
2.77159e-13
3.06334e-13
1.31286e-13
1.89635e-13
3.93858e-13
2.91746e-13
1.45873e-13
1.45873e-14
3.35508e-13
2.91746e-14
4.3762e-14
2.91746e-14
1.60461e-13
8.75239e-14
1.60461e-13
1.02111e-13
2.91746e-13
2.04222e-13
3.64683e-13
2.91746e-14
2.62572e-13
2.62572e-13
3.20921e-13
3.06334e-13
1.75048e-13
5.83493e-14
1.16699e-13
4.3762e-14
4.3762e-14
1.02111e-13
1.45873e-13
1.45873e-13
2.91746e-14
1.31286e-13
7.29366e-14
8.75239e-14
2.91746e-14
1.45873e-14
2.91746e-14
4.3762e-14
1.31286e-13
3.50096e-13
4.3762e-14
2.91746e-14
1.31286e-13
1.02111e-13
7.29366e-14
7.29366e-14
1.45873e-13
1.75048e-13
2.91746e-14
8.75239e-14
2.91746e-14
2.33397e-13
1.31286e-13
1.02111e-13
1.45873e-14
8.75239e-14
4.3762e-14
1.02111e-13
1.45873e-14
1.45873e-13
1.60461e-13
5.83493e-14
1.02111e-13
2.04222e-13
3.35508e-13
8.75239e-14
1.89635e-13
1.60461e-13
1.45873e-13
2.62572e-13
1.60461e-13
3.20921e-13
1.75048e-13
2.04222e-13
5.83493e-14
1.60461e-13
2.62572e-13
1.31286e-13
1.45873e-13
1.75048e-13
1.75048e-13
2.77159e-13
7.29366e-14
1.31286e-13
1.16699e-13
8.75239e-14
7.29366e-14
1.16699e-13
8.75239e-14
4.66794e-13
1.45873e-13
1.31286e-13
3.20921e-13
3.64683e-13
6.41842e-13
4.66794e-13
6.27255e-13
4.95969e-13
7.29366e-14
1.60461e-13
)
;

boundaryField
{
    sides
    {
        type            calculated;
        value           nonuniform List<scalar> 2(1.60461e-13 1.45873e-14);
    }
    empty
    {
        type            empty;
    }
}


// ************************************************************************* //
