/*--------------------------------*- C++ -*----------------------------------*\
  =========                 |
  \\      /  F ield         | OpenFOAM: The Open Source CFD Toolbox
   \\    /   O peration     | Website:  https://openfoam.org
    \\  /    A nd           | Version:  6
     \\/     M anipulation  |
\*---------------------------------------------------------------------------*/
FoamFile
{
    version     2.0;
    format      ascii;
    class       volVectorField;
    location    "0.001";
    object      U;
}
// * * * * * * * * * * * * * * * * * * * * * * * * * * * * * * * * * * * * * //

dimensions      [0 1 -1 0 0 0 0];

internalField   nonuniform List<vector> 
1000
(
(-1.45873e-14 0 0)
(-7.29365e-14 0 0)
(8.75238e-14 0 0)
(-2.91746e-14 0 0)
(5.83492e-14 0 0)
(1.75048e-13 0 0)
(2.1881e-13 0 0)
(2.1881e-13 0 0)
(8.60651e-13 0 0)
(1.16698e-13 0 0)
(3.35508e-13 0 0)
(2.91746e-13 0 0)
(4.95968e-13 0 0)
(2.33397e-13 0 0)
(-2.91746e-14 0 0)
(1.02111e-13 0 0)
(2.1881e-13 0 0)
(1.16698e-13 0 0)
(-7.29365e-14 0 0)
(2.1881e-13 0 0)
(1.45873e-14 0 0)
(2.91746e-14 0 0)
(-1.89327e-28 0 0)
(-1.31286e-13 0 0)
(-1.75048e-13 0 0)
(-5.83492e-14 0 0)
(-1.45873e-13 0 0)
(2.91746e-14 0 0)
(1.45873e-14 0 0)
(-4.37619e-14 0 0)
(-1.02111e-13 0 0)
(-5.83492e-14 0 0)
(-2.04222e-13 0 0)
(2.33397e-13 0 0)
(-3.35508e-13 0 0)
(-2.47984e-13 0 0)
(-7.29365e-14 0 0)
(4.52206e-13 0 0)
(1.6046e-13 0 0)
(-2.33397e-13 0 0)
(7.29365e-14 0 0)
(1.31286e-13 0 0)
(4.37619e-14 0 0)
(-2.91746e-14 0 0)
(8.75238e-14 0 0)
(-8.75238e-14 0 0)
(-1.75048e-13 0 0)
(-8.75238e-14 0 0)
(-5.83492e-14 0 0)
(-2.62571e-13 0 0)
(-1.16698e-13 0 0)
(-2.91746e-13 0 0)
(-1.02111e-13 0 0)
(-2.91746e-14 0 0)
(-1.16698e-13 0 0)
(-1.45873e-13 0 0)
(7.29365e-14 0 0)
(-5.83492e-14 0 0)
(5.25143e-13 0 0)
(-3.64683e-13 0 0)
(-2.91746e-13 0 0)
(-2.47984e-13 0 0)
(7.29365e-14 0 0)
(-2.47984e-13 0 0)
(-5.83492e-14 0 0)
(4.37619e-14 0 0)
(2.77159e-13 0 0)
(2.91746e-13 0 0)
(2.1881e-13 0 0)
(1.16698e-13 0 0)
(-1.45873e-14 0 0)
(2.47984e-13 0 0)
(-7.29365e-14 0 0)
(-2.33397e-13 0 0)
(-1.02111e-13 0 0)
(1.02111e-13 0 0)
(-5.83492e-14 0 0)
(3.35508e-13 0 0)
(1.16698e-13 0 0)
(-2.1881e-13 0 0)
(-4.23032e-13 0 0)
(-1.75048e-13 0 0)
(-4.37619e-14 0 0)
(2.77159e-13 0 0)
(-3.7927e-13 0 0)
(-4.66794e-13 0 0)
(-2.91746e-14 0 0)
(3.20921e-13 0 0)
(7.29365e-14 0 0)
(-1.02111e-13 0 0)
(-1.31286e-13 0 0)
(2.91746e-14 0 0)
(-2.87145e-28 0 0)
(-5.83492e-14 0 0)
(-1.02111e-13 0 0)
(-8.75238e-14 0 0)
(-1.31286e-13 0 0)
(-7.29365e-14 0 0)
(1.89635e-13 0 0)
(1.02111e-13 0 0)
(-1.31286e-13 0 0)
(-2.62571e-13 0 0)
(-3.7927e-13 0 0)
(-5.25143e-13 0 0)
(-5.83492e-13 0 0)
(-5.3973e-13 0 0)
(-2.91746e-13 0 0)
(-3.64683e-13 0 0)
(-7.29365e-14 0 0)
(8.75238e-14 0 0)
(1.6046e-13 0 0)
(3.50095e-13 0 0)
(3.7927e-13 0 0)
(1.75048e-13 0 0)
(4.37619e-14 0 0)
(-1.89635e-13 0 0)
(-2.91746e-13 0 0)
(-1.6046e-13 0 0)
(-5.10556e-13 0 0)
(4.37619e-14 0 0)
(-4.37619e-14 0 0)
(2.33397e-13 0 0)
(2.04222e-13 0 0)
(2.33397e-13 0 0)
(1.45873e-14 0 0)
(1.02111e-13 0 0)
(-4.37619e-14 0 0)
(4.37619e-14 0 0)
(-4.37619e-14 0 0)
(-8.75238e-14 0 0)
(-1.6046e-13 0 0)
(-2.91746e-14 0 0)
(-8.75238e-14 0 0)
(-2.04222e-13 0 0)
(1.6046e-13 0 0)
(-8.75238e-14 0 0)
(-1.75048e-13 0 0)
(-2.04222e-13 0 0)
(-5.83492e-14 0 0)
(-2.46125e-28 0 0)
(-8.75238e-14 0 0)
(1.02111e-13 0 0)
(1.75048e-13 0 0)
(5.83492e-14 0 0)
(2.91746e-14 0 0)
(-2.91746e-14 0 0)
(-7.8255e-28 0 0)
(2.62571e-13 0 0)
(1.45873e-13 0 0)
(1.6046e-13 0 0)
(1.02111e-13 0 0)
(2.04222e-13 0 0)
(2.47984e-13 0 0)
(2.04222e-13 0 0)
(3.64683e-13 0 0)
(1.45873e-13 0 0)
(5.83492e-14 0 0)
(2.91746e-14 0 0)
(-1.45873e-13 0 0)
(4.37619e-14 0 0)
(-3.64683e-13 0 0)
(-2.62571e-13 0 0)
(-5.83492e-13 0 0)
(-5.83492e-13 0 0)
(-7.14778e-13 0 0)
(-6.12667e-13 0 0)
(-1.89635e-13 0 0)
(8.75238e-14 0 0)
(-2.77159e-13 0 0)
(-1.02111e-13 0 0)
(-5.83492e-14 0 0)
(-2.91746e-13 0 0)
(1.45873e-13 0 0)
(1.02111e-13 0 0)
(1.89635e-13 0 0)
(1.75048e-13 0 0)
(5.10556e-13 0 0)
(1.75048e-13 0 0)
(8.75238e-14 0 0)
(8.75238e-14 0 0)
(2.33397e-13 0 0)
(2.62571e-13 0 0)
(2.33397e-13 0 0)
(1.45873e-14 0 0)
(1.31286e-13 0 0)
(-1.89635e-13 0 0)
(-2.91746e-14 0 0)
(-1.45873e-13 0 0)
(-5.83492e-14 0 0)
(-1.89635e-13 0 0)
(-8.75238e-14 0 0)
(-2.77159e-13 0 0)
(-8.75238e-14 0 0)
(-2.04222e-13 0 0)
(2.62571e-13 0 0)
(-4.37619e-14 0 0)
(-1.45873e-13 0 0)
(1.31286e-13 0 0)
(2.62571e-13 0 0)
(4.37619e-14 0 0)
(3.93857e-13 0 0)
(-1.6046e-13 0 0)
(-8.75238e-14 0 0)
(-1.02111e-13 0 0)
(-1.02111e-13 0 0)
(1.45873e-14 0 0)
(-7.29365e-14 0 0)
(-7.29365e-14 0 0)
(7.29365e-14 0 0)
(-1.16698e-13 0 0)
(-1.6046e-13 0 0)
(-1.31286e-13 0 0)
(-5.83492e-14 0 0)
(-7.29365e-14 0 0)
(2.91746e-14 0 0)
(-1.45873e-13 0 0)
(1.6046e-13 0 0)
(1.89635e-13 0 0)
(1.6046e-13 0 0)
(4.23032e-13 0 0)
(4.23032e-13 0 0)
(4.23032e-13 0 0)
(2.91746e-13 0 0)
(2.62571e-13 0 0)
(1.45873e-13 0 0)
(-1.45873e-14 0 0)
(-1.45873e-14 0 0)
(-1.31286e-13 0 0)
(1.89635e-13 0 0)
(1.45873e-14 0 0)
(1.75048e-13 0 0)
(1.45873e-13 0 0)
(1.45873e-13 0 0)
(-7.29365e-14 0 0)
(3.93857e-13 0 0)
(8.75238e-14 0 0)
(5.83492e-14 0 0)
(-1.45873e-14 0 0)
(1.31286e-13 0 0)
(2.47984e-13 0 0)
(3.35508e-13 0 0)
(3.06333e-13 0 0)
(6.12667e-13 0 0)
(2.1881e-13 0 0)
(2.1881e-13 0 0)
(3.35508e-13 0 0)
(1.89635e-13 0 0)
(2.62571e-13 0 0)
(2.33397e-13 0 0)
(8.75238e-14 0 0)
(3.20921e-13 0 0)
(-1.45873e-14 0 0)
(-5.39581e-28 0 0)
(7.29365e-14 0 0)
(-4.37619e-14 0 0)
(-1.45873e-14 0 0)
(1.02111e-13 0 0)
(-1.45873e-13 0 0)
(-2.1881e-13 0 0)
(-2.47984e-13 0 0)
(-1.75048e-13 0 0)
(-4.37619e-13 0 0)
(-2.04222e-13 0 0)
(-1.6046e-13 0 0)
(-2.62571e-13 0 0)
(-2.77159e-13 0 0)
(-3.50095e-13 0 0)
(-1.31286e-13 0 0)
(-1.02111e-13 0 0)
(1.45873e-13 0 0)
(1.6046e-13 0 0)
(7.29365e-14 0 0)
(1.45873e-14 0 0)
(-2.04222e-13 0 0)
(-1.89635e-13 0 0)
(1.45873e-13 0 0)
(1.45873e-14 0 0)
(2.91746e-14 0 0)
(1.45873e-14 0 0)
(-3.50095e-13 0 0)
(-3.64683e-13 0 0)
(-2.04222e-13 0 0)
(-1.45873e-13 0 0)
(-1.16698e-13 0 0)
(-3.20921e-13 0 0)
(-1.89635e-13 0 0)
(-1.02111e-13 0 0)
(-2.04222e-13 0 0)
(-2.33397e-13 0 0)
(-1.45873e-13 0 0)
(-1.45873e-13 0 0)
(-3.20921e-13 0 0)
(-1.31286e-13 0 0)
(-2.04222e-13 0 0)
(-2.77159e-13 0 0)
(-2.62571e-13 0 0)
(-2.77159e-13 0 0)
(-7.0019e-13 0 0)
(-9.04413e-13 0 0)
(-8.60651e-13 0 0)
(-7.14778e-13 0 0)
(-5.83492e-13 0 0)
(-4.66794e-13 0 0)
(-8.75238e-13 0 0)
(-3.50095e-13 0 0)
(-4.23032e-13 0 0)
(-1.10863e-12 0 0)
(-6.85603e-13 0 0)
(-8.31476e-13 0 0)
(-9.33587e-13 0 0)
(-8.60651e-13 0 0)
(-9.33587e-13 0 0)
(-6.71016e-13 0 0)
(-5.98079e-13 0 0)
(-4.52206e-13 0 0)
(-6.41841e-13 0 0)
(-6.56429e-13 0 0)
(-3.35508e-13 0 0)
(-1.45873e-14 0 0)
(-2.33397e-13 0 0)
(-3.06333e-13 0 0)
(-3.06333e-13 0 0)
(-4.08444e-13 0 0)
(-4.08444e-13 0 0)
(-3.7927e-13 0 0)
(-4.52206e-13 0 0)
(-3.06333e-13 0 0)
(-4.37619e-13 0 0)
(-8.02302e-13 0 0)
(-2.1881e-13 0 0)
(-3.06333e-13 0 0)
(-5.83492e-13 0 0)
(-2.91746e-13 0 0)
(-1.6046e-13 0 0)
(-3.35508e-13 0 0)
(-1.02111e-13 0 0)
(-1.45873e-13 0 0)
(-8.75238e-14 0 0)
(-4.08444e-13 0 0)
(-1.02111e-13 0 0)
(2.33397e-13 0 0)
(2.77159e-13 0 0)
(2.1881e-13 0 0)
(1.6046e-13 0 0)
(4.37619e-14 0 0)
(-1.75048e-13 0 0)
(-1.31286e-13 0 0)
(1.16698e-13 0 0)
(-1.75048e-13 0 0)
(1.45873e-14 0 0)
(7.29365e-14 0 0)
(2.91746e-14 0 0)
(-1.75048e-13 0 0)
(-2.77159e-13 0 0)
(-1.02111e-13 0 0)
(-3.7927e-13 0 0)
(-3.35508e-13 0 0)
(-2.91746e-13 0 0)
(-2.77159e-13 0 0)
(-8.75238e-14 0 0)
(-2.77159e-13 0 0)
(-2.77159e-13 0 0)
(-1.45873e-13 0 0)
(-2.77159e-13 0 0)
(-2.77159e-13 0 0)
(-6.27254e-13 0 0)
(-2.77159e-13 0 0)
(-5.10556e-13 0 0)
(-3.06333e-13 0 0)
(-1.75048e-13 0 0)
(-3.35508e-13 0 0)
(-2.04222e-13 0 0)
(-4.37619e-14 0 0)
(-8.75238e-14 0 0)
(2.33397e-13 0 0)
(1.16698e-13 0 0)
(1.02111e-13 0 0)
(-4.37619e-14 0 0)
(1.45873e-13 0 0)
(2.62571e-13 0 0)
(1.75048e-13 0 0)
(1.6046e-13 0 0)
(1.6046e-13 0 0)
(1.75048e-13 0 0)
(2.04222e-13 0 0)
(-4.37619e-14 0 0)
(-1.16698e-13 0 0)
(-1.45873e-14 0 0)
(-1.89635e-13 0 0)
(-1.6046e-13 0 0)
(-4.37619e-13 0 0)
(-3.93857e-13 0 0)
(-3.20921e-13 0 0)
(-3.20921e-13 0 0)
(-1.31286e-13 0 0)
(-4.08444e-13 0 0)
(-5.10556e-13 0 0)
(-2.62571e-13 0 0)
(-3.7927e-13 0 0)
(-2.04222e-13 0 0)
(-2.1881e-13 0 0)
(-2.1881e-13 0 0)
(-4.37619e-14 0 0)
(-2.62571e-13 0 0)
(-1.31286e-13 0 0)
(-4.66794e-13 0 0)
(-5.10556e-13 0 0)
(-2.04222e-13 0 0)
(8.75238e-14 0 0)
(7.29365e-14 0 0)
(2.47984e-13 0 0)
(1.31286e-13 0 0)
(1.89635e-13 0 0)
(2.62571e-13 0 0)
(4.08444e-13 0 0)
(3.93857e-13 0 0)
(3.06333e-13 0 0)
(2.04222e-13 0 0)
(3.35508e-13 0 0)
(3.64683e-13 0 0)
(3.06333e-13 0 0)
(6.71016e-13 0 0)
(1.69213e-12 0 0)
(4.79922e-12 0 0)
(1.38871e-11 0 0)
(4.14133e-11 0 0)
(1.23934e-10 0 0)
(3.67425e-10 0 0)
(1.07173e-09 0 0)
(3.08241e-09 0 0)
(8.72827e-09 0 0)
(2.43286e-08 0 0)
(6.67175e-08 0 0)
(1.79932e-07 0 0)
(4.76994e-07 0 0)
(1.24233e-06 0 0)
(3.17726e-06 0 0)
(7.97483e-06 0 0)
(1.96332e-05 0 0)
(4.73803e-05 0 0)
(0.000112011 0 0)
(0.000259229 0 0)
(0.000586884 0 0)
(0.00129878 0 0)
(0.00280727 0 0)
(0.00592135 0 0)
(0.0121773 0 0)
(0.0243927 0 0)
(0.0475451 0 0)
(0.0900807 0 0)
(0.165719 0 0)
(0.295708 0 0)
(0.511279 0 0)
(0.855777 0 0)
(1.38565 0 0)
(2.16935 0 0)
(3.28353 0 0)
(4.80633 0 0)
(6.80889 0 0)
(9.34666 0 0)
(12.4528 0 0)
(16.135 0 0)
(20.3765 0 0)
(25.1404 0 0)
(30.376 0 0)
(36.0253 0 0)
(42.0289 0 0)
(48.3304 0 0)
(54.8789 0 0)
(61.6305 0 0)
(68.5481 0 0)
(75.6015 0 0)
(82.7661 0 0)
(90.0218 0 0)
(97.3524 0 0)
(104.744 0 0)
(112.187 0 0)
(119.669 0 0)
(127.182 0 0)
(134.717 0 0)
(142.269 0 0)
(149.823 0 0)
(157.387 0 0)
(164.924 0 0)
(172.469 0 0)
(179.964 0 0)
(187.439 0 0)
(194.873 0 0)
(202.235 0 0)
(209.536 0 0)
(216.757 0 0)
(223.864 0 0)
(230.842 0 0)
(237.676 0 0)
(244.324 0 0)
(250.746 0 0)
(256.901 0 0)
(262.746 0 0)
(268.22 0 0)
(273.261 0 0)
(277.804 0 0)
(281.796 0 0)
(285.189 0 0)
(287.954 0 0)
(290.085 0 0)
(291.619 0 0)
(292.621 0 0)
(293.202 0 0)
(293.46 0 0)
(293.518 0 0)
(293.491 0 0)
(293.373 0 0)
(293.193 0 0)
(293.034 0 0)
(292.931 0 0)
(292.881 0 0)
(292.864 0 0)
(292.859 0 0)
(292.869 0 0)
(292.888 0 0)
(292.91 0 0)
(292.951 0 0)
(293.026 0 0)
(293.169 0 0)
(293.164 0 0)
(292.979 0 0)
(292.854 0 0)
(292.8 0 0)
(292.803 0 0)
(292.842 0 0)
(292.893 0 0)
(292.942 0 0)
(292.979 0 0)
(292.999 0 0)
(293.008 0 0)
(293.008 0 0)
(292.998 0 0)
(292.985 0 0)
(292.966 0 0)
(292.944 0 0)
(292.913 0 0)
(292.884 0 0)
(292.865 0 0)
(292.823 0 0)
(292.764 0 0)
(292.672 0 0)
(292.569 0 0)
(292.349 0 0)
(292.167 0 0)
(291.589 0 0)
(290.694 0 0)
(288.274 0 0)
(282.631 0 0)
(269.985 0 0)
(240.109 0 0)
(183.047 0 0)
(107.126 0 0)
(45.0145 0 0)
(14.1327 0 0)
(3.62959 0 0)
(0.816703 0 0)
(0.172376 0 0)
(0.035644 0 0)
(0.00733479 0 0)
(0.00150788 0 0)
(0.000309903 0 0)
(6.36781e-05 0 0)
(1.30806e-05 0 0)
(2.68599e-06 0 0)
(5.51278e-07 0 0)
(1.13079e-07 0 0)
(2.31786e-08 0 0)
(4.74768e-09 0 0)
(9.71151e-10 0 0)
(1.98533e-10 0 0)
(4.06111e-11 0 0)
(8.34395e-12 0 0)
(1.77965e-12 0 0)
(3.64683e-13 0 0)
(1.02111e-13 0 0)
(4.3762e-14 0 0)
(1.31286e-13 0 0)
(-2.91746e-14 0 0)
(2.47984e-13 0 0)
(7.29366e-14 0 0)
(-1.16699e-13 0 0)
(-1.45873e-14 0 0)
(-4.3762e-14 0 0)
(-4.3762e-13 0 0)
(-2.33397e-13 0 0)
(-1.75048e-13 0 0)
(-3.35508e-13 0 0)
(-7.73128e-13 0 0)
(2.33397e-13 0 0)
(-2.91746e-14 0 0)
(7.29366e-14 0 0)
(1.45873e-14 0 0)
(3.35508e-13 0 0)
(4.3762e-14 0 0)
(4.3762e-14 0 0)
(5.83493e-14 0 0)
(-1.45873e-13 0 0)
(-1.60461e-13 0 0)
(-3.93858e-13 0 0)
(2.91746e-14 0 0)
(-8.75239e-14 0 0)
(4.3762e-14 0 0)
(-3.35508e-13 0 0)
(-5.83493e-14 0 0)
(-1.16699e-13 0 0)
(-1.45873e-14 0 0)
(1.45873e-14 0 0)
(1.60461e-13 0 0)
(7.29366e-14 0 0)
(-5.83493e-14 0 0)
(-1.45873e-14 0 0)
(8.75239e-14 0 0)
(-1.02111e-13 0 0)
(5.83493e-14 0 0)
(-4.3762e-14 0 0)
(-7.29366e-14 0 0)
(2.04222e-13 0 0)
(1.02111e-13 0 0)
(-4.3762e-14 0 0)
(-1.45873e-14 0 0)
(4.3762e-14 0 0)
(-4.3762e-14 0 0)
(-1.45873e-13 0 0)
(-2.91746e-13 0 0)
(-2.1881e-13 0 0)
(2.77159e-13 0 0)
(1.60461e-13 0 0)
(4.3762e-14 0 0)
(2.62572e-13 0 0)
(1.26849e-27 0 0)
(-2.91746e-14 0 0)
(-1.45873e-14 0 0)
(-4.3762e-14 0 0)
(1.60461e-13 0 0)
(-5.83493e-14 0 0)
(2.33397e-13 0 0)
(4.3762e-14 0 0)
(-1.16699e-13 0 0)
(2.91746e-14 0 0)
(1.02111e-13 0 0)
(4.3762e-14 0 0)
(-1.31286e-13 0 0)
(-4.3762e-14 0 0)
(-1.16699e-13 0 0)
(8.75239e-14 0 0)
(-2.04222e-13 0 0)
(-5.83493e-14 0 0)
(8.75239e-14 0 0)
(-1.45873e-14 0 0)
(-7.29366e-14 0 0)
(-1.31286e-13 0 0)
(3.35508e-13 0 0)
(-3.64683e-13 0 0)
(-1.16699e-13 0 0)
(2.91746e-14 0 0)
(-2.62572e-13 0 0)
(-1.31286e-13 0 0)
(2.91746e-14 0 0)
(2.1881e-13 0 0)
(7.29366e-14 0 0)
(4.32296e-28 0 0)
(1.60461e-13 0 0)
(2.33397e-13 0 0)
(3.06334e-13 0 0)
(8.75239e-14 0 0)
(-2.33397e-13 0 0)
(1.89635e-13 0 0)
(-1.45873e-13 0 0)
(-4.3762e-14 0 0)
(-4.3762e-14 0 0)
(-4.08445e-13 0 0)
(-1.45873e-13 0 0)
(-2.91746e-13 0 0)
(3.20921e-13 0 0)
(-5.83493e-14 0 0)
(1.45873e-14 0 0)
(4.66794e-13 0 0)
(-3.06334e-13 0 0)
(-2.33397e-13 0 0)
(-1.19591e-27 0 0)
(-5.83493e-14 0 0)
(-1.60461e-13 0 0)
(-1.45873e-13 0 0)
(8.75239e-14 0 0)
(1.16699e-13 0 0)
(3.35508e-13 0 0)
(7.29366e-14 0 0)
(2.47984e-13 0 0)
(3.20921e-13 0 0)
(2.77159e-13 0 0)
(3.06334e-13 0 0)
(6.27255e-13 0 0)
(4.3762e-13 0 0)
(4.66794e-13 0 0)
(6.71017e-13 0 0)
(4.81382e-13 0 0)
(9.62763e-13 0 0)
(1.05029e-12 0 0)
(9.77351e-13 0 0)
(5.9808e-13 0 0)
(4.95969e-13 0 0)
(-1.89635e-13 0 0)
(6.56429e-13 0 0)
(1.45873e-13 0 0)
(-6.41842e-13 0 0)
(-1.02111e-13 0 0)
(6.27255e-13 0 0)
(1.16699e-13 0 0)
(8.60652e-13 0 0)
(1.75048e-13 0 0)
(2.77159e-13 0 0)
(2.1881e-13 0 0)
(3.06334e-13 0 0)
(3.93858e-13 0 0)
(3.64683e-13 0 0)
(2.1881e-13 0 0)
(1.31286e-13 0 0)
(2.1881e-13 0 0)
(2.1881e-13 0 0)
(2.91746e-13 0 0)
(4.95969e-13 0 0)
(3.20921e-13 0 0)
(8.75239e-14 0 0)
(3.20921e-13 0 0)
(1.16699e-13 0 0)
(2.04222e-13 0 0)
(-2.91746e-14 0 0)
(-7.29366e-14 0 0)
(-1.45873e-14 0 0)
(-2.33397e-13 0 0)
(5.83493e-14 0 0)
(1.75048e-13 0 0)
(1.45873e-13 0 0)
(3.06334e-13 0 0)
(-7.29366e-14 0 0)
(1.02111e-13 0 0)
(-2.04222e-13 0 0)
(-2.47984e-13 0 0)
(-2.91746e-13 0 0)
(-1.31286e-13 0 0)
(-2.77159e-13 0 0)
(-2.77159e-13 0 0)
(-2.47984e-13 0 0)
(-2.33397e-13 0 0)
(-1.31286e-13 0 0)
(-2.62572e-13 0 0)
(-1.75048e-13 0 0)
(7.29366e-14 0 0)
(7.29366e-14 0 0)
(1.00974e-28 0 0)
(1.60461e-13 0 0)
(2.91746e-14 0 0)
(2.62572e-13 0 0)
(5.10556e-13 0 0)
(-2.91746e-13 0 0)
(8.75239e-14 0 0)
(1.45873e-13 0 0)
(1.60461e-13 0 0)
(1.31286e-13 0 0)
(-1.31286e-13 0 0)
(-5.83493e-14 0 0)
(-1.75048e-13 0 0)
(8.75239e-14 0 0)
(5.83493e-14 0 0)
(-8.75239e-14 0 0)
(-1.75048e-13 0 0)
(-4.3762e-14 0 0)
(-1.16699e-13 0 0)
(-3.20921e-13 0 0)
(-4.3762e-14 0 0)
(4.3762e-14 0 0)
(4.3762e-14 0 0)
(1.31286e-13 0 0)
(2.33397e-13 0 0)
(2.33397e-13 0 0)
(8.75239e-14 0 0)
(1.16699e-13 0 0)
(1.31286e-13 0 0)
(-3.93858e-13 0 0)
(2.47984e-13 0 0)
(-1.45873e-13 0 0)
(3.35508e-13 0 0)
(7.29366e-14 0 0)
(4.3762e-14 0 0)
(-1.16699e-13 0 0)
(-2.04222e-13 0 0)
(-1.31286e-13 0 0)
(-5.83493e-14 0 0)
(1.60461e-13 0 0)
(1.02111e-13 0 0)
(1.45873e-14 0 0)
(-4.3762e-14 0 0)
(2.91746e-14 0 0)
(1.6533e-28 0 0)
(2.1881e-13 0 0)
(5.99534e-29 0 0)
(1.60461e-13 0 0)
(-2.91746e-14 0 0)
(-1.60461e-13 0 0)
(1.31286e-13 0 0)
(-2.33397e-13 0 0)
(-3.93858e-13 0 0)
(5.83493e-14 0 0)
(-3.06334e-13 0 0)
(-2.1881e-13 0 0)
(-1.75048e-13 0 0)
(5.83493e-14 0 0)
(7.29366e-14 0 0)
(4.3762e-14 0 0)
(1.02111e-13 0 0)
(-1.16699e-13 0 0)
(-1.31286e-13 0 0)
(-9.52944e-28 0 0)
(-1.89635e-13 0 0)
(-1.45873e-14 0 0)
(-1.02111e-13 0 0)
(-7.29366e-14 0 0)
(4.82783e-28 0 0)
(2.91746e-14 0 0)
(-3.64683e-13 0 0)
(-2.33397e-13 0 0)
(-2.33397e-13 0 0)
(-5.83493e-14 0 0)
(1.45873e-14 0 0)
(1.89635e-13 0 0)
(-1.75048e-13 0 0)
(-2.77159e-13 0 0)
(2.47984e-13 0 0)
(5.54318e-13 0 0)
(6.41842e-13 0 0)
(4.23032e-13 0 0)
(2.91746e-14 0 0)
(-2.1881e-13 0 0)
(4.3762e-14 0 0)
(-1.45873e-13 0 0)
(2.33397e-13 0 0)
(-1.75048e-13 0 0)
(-1.45873e-13 0 0)
(4.3762e-14 0 0)
(1.31286e-13 0 0)
(2.91746e-14 0 0)
(-1.02111e-13 0 0)
(-5.83493e-14 0 0)
(-1.45873e-14 0 0)
(1.75048e-13 0 0)
(2.47984e-13 0 0)
(1.75048e-13 0 0)
(2.1881e-13 0 0)
(1.02111e-13 0 0)
(7.29366e-14 0 0)
(1.16699e-13 0 0)
(-3.50096e-13 0 0)
(-1.45873e-14 0 0)
(3.06334e-13 0 0)
(2.62572e-13 0 0)
(2.1881e-13 0 0)
(-1.01522e-27 0 0)
(-4.23032e-13 0 0)
(-2.91746e-13 0 0)
(-3.20921e-13 0 0)
(-5.83493e-14 0 0)
(-8.75239e-14 0 0)
(-1.16699e-13 0 0)
(-1.60461e-13 0 0)
(-1.45873e-14 0 0)
(-1.31286e-13 0 0)
(-1.60461e-13 0 0)
(-2.1881e-13 0 0)
(-4.3762e-14 0 0)
(-1.60461e-13 0 0)
(4.3762e-14 0 0)
(2.91746e-14 0 0)
(-4.3762e-14 0 0)
(1.0129e-27 0 0)
(-1.16699e-13 0 0)
(-3.20921e-13 0 0)
(-3.06334e-13 0 0)
(-5.83493e-14 0 0)
(2.77159e-13 0 0)
(-1.31286e-13 0 0)
(1.45873e-14 0 0)
(2.1881e-13 0 0)
(4.3762e-14 0 0)
(-4.3762e-14 0 0)
(4.3762e-14 0 0)
(2.33397e-13 0 0)
(2.91746e-14 0 0)
(3.64683e-13 0 0)
(3.20921e-13 0 0)
(2.47984e-13 0 0)
(5.25144e-13 0 0)
(1.16699e-13 0 0)
(2.1881e-13 0 0)
(2.77159e-13 0 0)
(3.06334e-13 0 0)
(1.31286e-13 0 0)
(1.89635e-13 0 0)
(3.93858e-13 0 0)
(2.91746e-13 0 0)
(1.45873e-13 0 0)
(1.45873e-14 0 0)
(-3.35508e-13 0 0)
(-2.91746e-14 0 0)
(4.3762e-14 0 0)
(2.91746e-14 0 0)
(1.60461e-13 0 0)
(8.75239e-14 0 0)
(1.60461e-13 0 0)
(1.02111e-13 0 0)
(2.91746e-13 0 0)
(2.04222e-13 0 0)
(3.64683e-13 0 0)
(2.91746e-14 0 0)
(2.62572e-13 0 0)
(2.62572e-13 0 0)
(3.20921e-13 0 0)
(3.06334e-13 0 0)
(1.75048e-13 0 0)
(-5.83493e-14 0 0)
(-1.16699e-13 0 0)
(-4.3762e-14 0 0)
(4.3762e-14 0 0)
(1.02111e-13 0 0)
(1.45873e-13 0 0)
(1.45873e-13 0 0)
(2.91746e-14 0 0)
(1.31286e-13 0 0)
(7.29366e-14 0 0)
(8.75239e-14 0 0)
(-2.91746e-14 0 0)
(1.45873e-14 0 0)
(2.91746e-14 0 0)
(4.3762e-14 0 0)
(1.31286e-13 0 0)
(3.50096e-13 0 0)
(-4.3762e-14 0 0)
(-2.91746e-14 0 0)
(-1.31286e-13 0 0)
(-1.02111e-13 0 0)
(-7.29366e-14 0 0)
(-7.29366e-14 0 0)
(-1.45873e-13 0 0)
(1.75048e-13 0 0)
(-2.91746e-14 0 0)
(-8.75239e-14 0 0)
(2.91746e-14 0 0)
(-2.33397e-13 0 0)
(-1.31286e-13 0 0)
(-1.02111e-13 0 0)
(1.45873e-14 0 0)
(-8.75239e-14 0 0)
(-4.3762e-14 0 0)
(-1.02111e-13 0 0)
(-1.45873e-14 0 0)
(1.45873e-13 0 0)
(1.60461e-13 0 0)
(5.83493e-14 0 0)
(1.02111e-13 0 0)
(2.04222e-13 0 0)
(3.35508e-13 0 0)
(8.75239e-14 0 0)
(-1.89635e-13 0 0)
(-1.60461e-13 0 0)
(1.45873e-13 0 0)
(-2.62572e-13 0 0)
(-1.60461e-13 0 0)
(-3.20921e-13 0 0)
(1.75048e-13 0 0)
(-2.04222e-13 0 0)
(5.83493e-14 0 0)
(-1.60461e-13 0 0)
(-2.62572e-13 0 0)
(-1.31286e-13 0 0)
(-1.45873e-13 0 0)
(1.75048e-13 0 0)
(-1.75048e-13 0 0)
(2.77159e-13 0 0)
(7.29366e-14 0 0)
(1.31286e-13 0 0)
(-1.16699e-13 0 0)
(8.75239e-14 0 0)
(7.29366e-14 0 0)
(1.16699e-13 0 0)
(8.75239e-14 0 0)
(4.66794e-13 0 0)
(1.45873e-13 0 0)
(1.31286e-13 0 0)
(3.20921e-13 0 0)
(3.64683e-13 0 0)
(6.41842e-13 0 0)
(4.66794e-13 0 0)
(6.27255e-13 0 0)
(4.95969e-13 0 0)
(7.29366e-14 0 0)
(1.60461e-13 0 0)
)
;

boundaryField
{
    sides
    {
        type            zeroGradient;
    }
    empty
    {
        type            empty;
    }
}


// ************************************************************************* //
