/*--------------------------------*- C++ -*----------------------------------*\
  =========                 |
  \\      /  F ield         | OpenFOAM: The Open Source CFD Toolbox
   \\    /   O peration     | Website:  https://openfoam.org
    \\  /    A nd           | Version:  6
     \\/     M anipulation  |
\*---------------------------------------------------------------------------*/
FoamFile
{
    version     2.0;
    format      ascii;
    class       volVectorField;
    location    "91.4";
    object      U;
}
// * * * * * * * * * * * * * * * * * * * * * * * * * * * * * * * * * * * * * //

dimensions      [0 1 -1 0 0 0 0];

internalField   nonuniform List<vector> 
8800
(
(0.987184 -0.0766653 0)
(1.00189 -0.05519 0)
(0.999723 -0.0285478 0)
(1.00003 -0.0151422 0)
(1.0001 -0.00854273 0)
(1.00012 -0.00504424 0)
(1.00008 -0.00299852 0)
(1.00002 -0.00169806 0)
(0.999992 -0.000791941 0)
(1.00006 -7.65591e-05 0)
(0.999958 0.000655859 0)
(0.999996 0.00142432 0)
(1.00006 0.00243328 0)
(1.00007 0.00400091 0)
(1.00005 0.00663409 0)
(1.00005 0.011373 0)
(0.999947 0.0208161 0)
(0.99917 0.0386708 0)
(1.0071 0.0724575 0)
(0.771214 0.0366616 0)
(0.363078 -0.0160165 0)
(1.04332 -0.0768122 0)
(1.0846 -0.0704409 0)
(1.04519 -0.0535344 0)
(1.02329 -0.0388844 0)
(1.01203 -0.0262049 0)
(1.00643 -0.0168414 0)
(1.00359 -0.0103068 0)
(1.00215 -0.00564356 0)
(1.00144 -0.00198165 0)
(1.00128 0.0013398 0)
(1.00166 0.0047278 0)
(1.00268 0.00865488 0)
(1.00468 0.0139733 0)
(1.00861 0.0216809 0)
(1.01657 0.0326476 0)
(1.03251 0.0465592 0)
(1.06268 0.0616752 0)
(1.09187 0.0761046 0)
(0.838665 0.0565639 0)
(0.216867 -0.00242885 0)
(1.07592 -0.0501251 0)
(1.09989 -0.0482946 0)
(1.06465 -0.0404432 0)
(1.04005 -0.0335804 0)
(1.02393 -0.0260531 0)
(1.01413 -0.0184631 0)
(1.00856 -0.011635 0)
(1.00558 -0.00575891 0)
(1.00431 -0.00033489 0)
(1.00463 0.00491409 0)
(1.00659 0.010307 0)
(1.01063 0.0163731 0)
(1.01794 0.0233883 0)
(1.03053 0.030851 0)
(1.05062 0.0378754 0)
(1.08036 0.0445558 0)
(1.10627 0.0513652 0)
(0.942501 0.0416278 0)
(0.216121 0.00246274 0)
(0.17521 -0.000815338 0)
(1.01774 -0.0354678 0)
(1.10522 -0.0413526 0)
(1.07829 -0.0360297 0)
(1.05349 -0.0300876 0)
(1.03623 -0.0245025 0)
(1.02402 -0.0187625 0)
(1.01589 -0.0126696 0)
(1.01101 -0.00646947 0)
(1.00879 -0.000124793 0)
(1.00934 0.00613569 0)
(1.01264 0.012135 0)
(1.01888 0.0179352 0)
(1.02876 0.023497 0)
(1.04318 0.0287922 0)
(1.0637 0.0342661 0)
(1.09356 0.0402444 0)
(1.09339 0.0419964 0)
(0.827055 0.0229297 0)
(0.173951 0.000854643 0)
(0.15403 -0.000609037 0)
(0.956295 -0.0254345 0)
(1.10351 -0.0350867 0)
(1.08772 -0.0325987 0)
(1.06177 -0.0279349 0)
(1.04415 -0.0228975 0)
(1.03168 -0.0176341 0)
(1.02281 -0.0120841 0)
(1.01697 -0.00613086 0)
(1.0141 0.000351452 0)
(1.01475 0.00681987 0)
(1.01876 0.0127034 0)
(1.0258 0.0179535 0)
(1.03606 0.0228544 0)
(1.05061 0.0276048 0)
(1.07185 0.032122 0)
(1.10005 0.0360457 0)
(1.068 0.0340859 0)
(0.739345 0.014337 0)
(0.152131 0.000653682 0)
(0.139686 -0.000464999 0)
(0.899486 -0.0190435 0)
(1.09589 -0.0300186 0)
(1.09581 -0.0291098 0)
(1.06932 -0.0253628 0)
(1.05089 -0.0212049 0)
(1.03794 -0.0164096 0)
(1.02881 -0.0110982 0)
(1.02266 -0.00533096 0)
(1.01949 0.0010141 0)
(1.02007 0.00733434 0)
(1.0242 0.0129677 0)
(1.03136 0.0178775 0)
(1.04182 0.022323 0)
(1.05693 0.0262768 0)
(1.07912 0.0297203 0)
(1.10221 0.0323302 0)
(1.0358 0.0281975 0)
(0.672635 0.0102432 0)
(0.137 0.000516504 0)
(0.129183 -0.000359249 0)
(0.850027 -0.0146705 0)
(1.08358 -0.0258635 0)
(1.10154 -0.0261288 0)
(1.07622 -0.0228218 0)
(1.05725 -0.0191538 0)
(1.04384 -0.0148784 0)
(1.03435 -0.00992216 0)
(1.02795 -0.00435871 0)
(1.02457 0.00181325 0)
(1.02499 0.0079241 0)
(1.02907 0.0132798 0)
(1.03633 0.0177663 0)
(1.04706 0.0216034 0)
(1.06257 0.0248887 0)
(1.08519 0.0278068 0)
(1.10125 0.0295385 0)
(1.00072 0.0237106 0)
(0.620606 0.0078894 0)
(0.125537 0.000419848 0)
(0.121187 -0.000278133 0)
(0.808061 -0.0114999 0)
(1.06843 -0.0222266 0)
(1.10514 -0.0234536 0)
(1.08252 -0.0205528 0)
(1.06313 -0.0170928 0)
(1.04945 -0.0131163 0)
(1.03967 -0.00848888 0)
(1.03297 -0.00318866 0)
(1.02933 0.00277116 0)
(1.02955 0.00863767 0)
(1.03358 0.0136459 0)
(1.04088 0.0176478 0)
(1.05169 0.0209737 0)
(1.06741 0.0238437 0)
(1.09037 0.026456 0)
(1.09736 0.0272814 0)
(0.965218 0.0202059 0)
(0.578694 0.00636767 0)
(0.116375 0.000350219 0)
(0.115013 -0.000214376 0)
(0.772817 -0.00912252 0)
(1.05183 -0.0190164 0)
(1.10761 -0.0209669 0)
(1.08845 -0.0184285 0)
(1.06868 -0.015105 0)
(1.05475 -0.0112808 0)
(1.04476 -0.00685278 0)
(1.03781 -0.00178253 0)
(1.03386 0.00393299 0)
(1.03384 0.00950438 0)
(1.03773 0.0141357 0)
(1.04495 0.0177035 0)
(1.05573 0.0206387 0)
(1.07164 0.0231783 0)
(1.09425 0.0254375 0)
(1.09059 0.0254346 0)
(0.930568 0.0175193 0)
(0.543873 0.00533604 0)
(0.108782 0.000300597 0)
(0.110228 -0.000162841 0)
(0.743362 -0.00727082 0)
(1.03487 -0.016161 0)
(1.10916 -0.0186113 0)
(1.09412 -0.0163689 0)
(1.07406 -0.0131274 0)
(1.05985 -0.00938048 0)
(1.04967 -0.00506088 0)
(1.04247 -0.000151447 0)
(1.0382 0.00533319 0)
(1.03786 0.0105967 0)
(1.04151 0.014868 0)
(1.04855 0.0180476 0)
(1.05928 0.0206349 0)
(1.07537 0.0228777 0)
(1.09681 0.0247483 0)
(1.08131 0.0239552 0)
(0.897317 0.015502 0)
(0.514076 0.00462552 0)
(0.102275 0.00026629 0)
(0.106551 -0.000119743 0)
(0.718885 -0.00577041 0)
(1.01837 -0.0135882 0)
(1.10993 -0.0163224 0)
(1.0997 -0.0143396 0)
(1.07938 -0.0110976 0)
(1.06488 -0.00736636 0)
(1.05445 -0.00309329 0)
(1.04698 0.00171701 0)
(1.04235 0.00701477 0)
(1.0416 0.0119965 0)
(1.04493 0.0159324 0)
(1.05175 0.018739 0)
(1.06239 0.0209892 0)
(1.07864 0.0229572 0)
(1.09798 0.0244021 0)
(1.06989 0.0228443 0)
(0.865557 0.0140383 0)
(0.487832 0.00414618 0)
(0.0965078 0.000244305 0)
(0.103798 -8.20833e-05 0)
(0.698755 -0.00450463 0)
(1.00297 -0.0112294 0)
(1.11007 -0.0140634 0)
(1.10516 -0.0122544 0)
(1.08473 -0.00896122 0)
(1.0699 -0.00518386 0)
(1.05919 -0.000894073 0)
(1.05138 0.00387679 0)
(1.04632 0.00904054 0)
(1.04507 0.0137754 0)
(1.04801 0.0173933 0)
(1.05456 0.0198312 0)
(1.06508 0.0217517 0)
(1.08145 0.0234472 0)
(1.09807 0.0245355 0)
(1.05654 0.0221188 0)
(0.835085 0.0130455 0)
(0.464026 0.00384411 0)
(0.0912149 0.000232292 0)
(0.101851 -4.71388e-05 0)
(0.682512 -0.00338561 0)
(0.989118 -0.00901238 0)
(1.10981 -0.0117452 0)
(1.11048 -0.0100286 0)
(1.09018 -0.00665409 0)
(1.075 -0.00276727 0)
(1.06396 0.0016074 0)
(1.05574 0.00640335 0)
(1.05014 0.0114862 0)
(1.04829 0.0160077 0)
(1.05076 0.0193232 0)
(1.05698 0.0213896 0)
(1.06735 0.0229768 0)
(1.08373 0.0243811 0)
(1.09722 0.0250218 0)
(1.04141 0.0217875 0)
(0.805526 0.0124482 0)
(0.44177 0.0036808 0)
(0.0861873 0.000228119 0)
(0.100653 -1.26226e-05 0)
(0.669867 -0.0023431 0)
(0.977193 -0.0068617 0)
(1.10948 -0.00931038 0)
(1.1158 -0.00760138 0)
(1.09583 -0.00410008 0)
(1.08027 -3.6919e-05 0)
(1.06883 0.00449428 0)
(1.06011 0.00938411 0)
(1.05385 0.0144427 0)
(1.05129 0.0187831 0)
(1.05318 0.0218074 0)
(1.05901 0.0234966 0)
(1.06919 0.0247441 0)
(1.08555 0.0258536 0)
(1.09506 0.0259794 0)
(1.0245 0.0218559 0)
(0.776409 0.0122 0)
(0.42034 0.00363196 0)
(0.081258 0.000230484 0)
(0.100196 2.41331e-05 0)
(0.660677 -0.00132061 0)
(0.967517 -0.00470394 0)
(1.10941 -0.00669701 0)
(1.12126 -0.00489826 0)
(1.10178 -0.00120926 0)
(1.08579 0.0031042 0)
(1.07387 0.0078679 0)
(1.06455 0.0129261 0)
(1.0575 0.0180199 0)
(1.05407 0.0222098 0)
(1.05528 0.0249515 0)
(1.06065 0.0262638 0)
(1.07059 0.0271484 0)
(1.08682 0.0279257 0)
(1.09149 0.027442 0)
(1.00571 0.0223675 0)
(0.747195 0.0122764 0)
(0.399116 0.00368427 0)
(0.0762862 0.000238698 0)
(0.100491 5.6601e-05 0)
(0.654932 -0.000260652 0)
(0.960399 -0.00246355 0)
(1.10997 -0.00383644 0)
(1.12704 -0.00183359 0)
(1.10811 0.0021197 0)
(1.09165 0.00676463 0)
(1.07917 0.0118451 0)
(1.06912 0.0171525 0)
(1.06111 0.0223471 0)
(1.05664 0.0264193 0)
(1.05704 0.0288804 0)
(1.06186 0.0298133 0)
(1.0715 0.0303101 0)
(1.08724 0.0307085 0)
(1.08618 0.0294978 0)
(0.984821 0.0233582 0)
(0.717278 0.0126619 0)
(0.377527 0.00382814 0)
(0.0711459 0.000251899 0)
(0.101632 0.000111973 0)
(0.652785 0.000882279 0)
(0.956161 -6.17478e-05 0)
(1.11152 -0.000648484 0)
(1.13335 0.00169231 0)
(1.11496 0.00600486 0)
(1.09799 0.0110775 0)
(1.08483 0.0165717 0)
(1.07389 0.0222167 0)
(1.06473 0.0275778 0)
(1.05902 0.0315609 0)
(1.05844 0.0337327 0)
(1.06262 0.0342759 0)
(1.07188 0.0343634 0)
(1.08668 0.0343398 0)
(1.07889 0.0322281 0)
(0.961449 0.0248654 0)
(0.685983 0.0133467 0)
(0.355035 0.00405426 0)
(0.0657271 0.000269147 0)
(0.103762 0.000164165 0)
(0.654442 0.00200125 0)
(0.955168 0.00258943 0)
(1.11453 0.00297067 0)
(1.14039 0.00579067 0)
(1.12249 0.0105941 0)
(1.10492 0.0162076 0)
(1.09096 0.0222261 0)
(1.07893 0.0283054 0)
(1.06838 0.0338963 0)
(1.06118 0.0378073 0)
(1.05947 0.0396567 0)
(1.06286 0.0398048 0)
(1.07166 0.0394528 0)
(1.08488 0.0389167 0)
(1.06928 0.0357338 0)
(0.93508 0.0269342 0)
(0.652582 0.0143219 0)
(0.331142 0.00435265 0)
(0.0599388 0.000289281 0)
(0.10698 0.000228224 0)
(0.66052 0.00348669 0)
(0.957785 0.00552723 0)
(1.11948 0.00716393 0)
(1.14843 0.0106114 0)
(1.13087 0.0160658 0)
(1.11261 0.0223529 0)
(1.09766 0.0290233 0)
(1.08432 0.0356406 0)
(1.07208 0.0415233 0)
(1.06313 0.0453615 0)
(1.0601 0.0468685 0)
(1.06255 0.0465863 0)
(1.07081 0.0457506 0)
(1.08185 0.0446195 0)
(1.05688 0.0401333 0)
(0.905025 0.0296007 0)
(0.616287 0.015569 0)
(0.305385 0.00470846 0)
(0.0537127 0.000310567 0)
(0.111572 0.00031536 0)
(0.671364 0.00523341 0)
(0.964627 0.00904687 0)
(1.12686 0.0120942 0)
(1.15778 0.0163681 0)
(1.14035 0.0226655 0)
(1.12125 0.0297851 0)
(1.10507 0.0372474 0)
(1.09012 0.0445021 0)
(1.07585 0.0507129 0)
(1.06483 0.0544471 0)
(1.06022 0.0555749 0)
(1.06164 0.0548194 0)
(1.06923 0.0534479 0)
(1.07749 0.0516034 0)
(1.04105 0.0455358 0)
(0.870412 0.0328717 0)
(0.576265 0.0170472 0)
(0.277372 0.00509647 0)
(0.0470153 0.000330507 0)
(0.117903 0.000430767 0)
(0.687736 0.00740633 0)
(0.976401 0.0133097 0)
(1.13726 0.017988 0)
(1.16882 0.0233209 0)
(1.15121 0.0307178 0)
(1.13103 0.0388555 0)
(1.11332 0.0472581 0)
(1.09636 0.0552333 0)
(1.07966 0.061771 0)
(1.06621 0.065326 0)
(1.05971 0.0659693 0)
(1.06007 0.0647035 0)
(1.06699 0.0627429 0)
(1.07147 0.0600596 0)
(1.02095 0.0520088 0)
(0.830174 0.0367081 0)
(0.531693 0.0186729 0)
(0.246845 0.0054768 0)
(0.0398666 0.000345646 0)
(0.126488 0.000592373 0)
(0.710671 0.0102473 0)
(0.993925 0.0186096 0)
(1.15133 0.0251915 0)
(1.18204 0.0318548 0)
(1.16377 0.0406742 0)
(1.14218 0.0500412 0)
(1.1225 0.059524 0)
(1.10305 0.0682535 0)
(1.08342 0.075039 0)
(1.06719 0.0782627 0)
(1.05856 0.0782853 0)
(1.05777 0.0764384 0)
(1.06383 0.0737883 0)
(1.06325 0.070011 0)
(0.99545 0.0595748 0)
(0.783068 0.040976 0)
(0.481855 0.0203014 0)
(0.213777 0.00579222 0)
(0.03236 0.000351769 0)
(0.138122 0.000829137 0)
(0.741529 0.014132 0)
(1.01836 0.0254171 0)
(1.16988 0.0342574 0)
(1.19809 0.0425807 0)
(1.17844 0.0532264 0)
(1.15491 0.0640402 0)
(1.13264 0.0746814 0)
(1.11007 0.0840784 0)
(1.08698 0.0908815 0)
(1.0676 0.0935083 0)
(1.05669 0.0927334 0)
(1.05477 0.090279 0)
(1.0594 0.0868033 0)
(1.052 0.081653 0)
(0.963081 0.0681151 0)
(0.727745 0.0454013 0)
(0.426327 0.0217089 0)
(0.178491 0.00596852 0)
(0.0246807 0.000344429 0)
(0.154105 0.00119968 0)
(0.782327 0.0197151 0)
(1.05139 0.034534 0)
(1.19386 0.0461325 0)
(1.21786 0.0568611 0)
(1.19556 0.06944 0)
(1.16927 0.0818328 0)
(1.14359 0.0935325 0)
(1.11718 0.103294 0)
(1.09008 0.10969 0)
(1.06724 0.11131 0)
(1.05394 0.109481 0)
(1.05095 0.106321 0)
(1.05352 0.102086 0)
(1.03658 0.0949402 0)
(0.921932 0.0772904 0)
(0.662944 0.0495157 0)
(0.365268 0.0225906 0)
(0.141801 0.00592429 0)
(0.0171135 0.000319856 0)
(0.176668 0.00184105 0)
(0.836281 0.0281341 0)
(1.09585 0.0475285 0)
(1.22438 0.062699 0)
(1.24179 0.0763739 0)
(1.21525 0.0909736 0)
(1.18502 0.10477 0)
(1.15493 0.117044 0)
(1.12392 0.126509 0)
(1.09234 0.13179 0)
(1.06584 0.131827 0)
(1.05014 0.128616 0)
(1.04612 0.124599 0)
(1.04608 0.11935 0)
(1.01532 0.109616 0)
(0.86965 0.0864547 0)
(0.587956 0.0526384 0)
(0.299879 0.0226022 0)
(0.105127 0.00559171 0)
(0.0100355 0.000275418 0)
(0.209276 0.00325823 0)
(0.909239 0.0421333 0)
(1.15487 0.0682927 0)
(1.26178 0.087486 0)
(1.26971 0.104187 0)
(1.23688 0.120267 0)
(1.2013 0.134514 0)
(1.16581 0.146219 0)
(1.1296 0.154252 0)
(1.09326 0.157409 0)
(1.06311 0.155142 0)
(1.04511 0.150143 0)
(1.04014 0.145138 0)
(1.03628 0.13865 0)
(0.985753 0.125074 0)
(0.803573 0.0945149 0)
(0.503607 0.0539453 0)
(0.233136 0.021532 0)
(0.070641 0.00496062 0)
(0.00393409 0.00020956 0)
(0.253766 0.00966594 8.63876e-21)
(1.00503 0.0698564 7.43083e-21)
(1.22601 0.103599 -2.60656e-21)
(1.30315 0.124399 0)
(1.29866 0.144039 -6.75709e-35)
(1.25819 0.159715 9.90843e-22)
(1.21652 0.172585 -1.80317e-21)
(1.17516 0.182265 0)
(1.13348 0.187798 3.76059e-35)
(1.09216 0.188079 -2.28291e-21)
(1.05819 0.183105 0)
(1.03795 0.176318 -2.74641e-21)
(1.03273 0.170928 -8.13065e-21)
(1.02206 0.163473 -3.85884e-21)
(0.942117 0.143332 -1.1647e-21)
(0.715923 0.101781 -6.92274e-22)
(0.405069 0.0532123 0)
(0.164517 0.0196583 4.84371e-22)
(0.038508 0.00417539 5.73612e-22)
(-0.00126321 9.53015e-05 1.04876e-20)
(0.284808 0.025339 5.8827e-21)
(1.08461 0.113723 1.17217e-22)
(1.28468 0.153891 6.74053e-22)
(1.34075 0.174659 0)
(1.32427 0.194385 -3.34509e-21)
(1.27677 0.207999 -3.82974e-21)
(1.22914 0.218689 -1.79758e-21)
(1.18198 0.226083 -6.46182e-21)
(1.13476 0.229173 0)
(1.08829 0.226819 9.6412e-21)
(1.0503 0.219471 9.61649e-21)
(1.02748 0.211083 2.86371e-21)
(1.01936 0.204467 1.05309e-20)
(0.994781 0.193572 1.49033e-20)
(0.869932 0.162864 0)
(0.59371 0.107081 2.10254e-20)
(0.291178 0.0508675 3.01512e-20)
(0.0955572 0.0166434 3.3547e-20)
(0.00815136 0.00223246 -3.84779e-20)
(-0.00596593 -0.000472379 -7.34149e-22)
(0.286664 0.0429952 0)
(1.13591 0.170368 9.06775e-22)
(1.32509 0.215367 0)
(1.37036 0.235868 -4.07625e-21)
(1.34473 0.252569 0)
(1.29133 0.262285 -7.36068e-21)
(1.23815 0.26928 3.62358e-21)
(1.18554 0.273203 -1.28367e-20)
(1.13314 0.272931 -3.28767e-22)
(1.08194 0.267249 4.93328e-21)
(1.04041 0.257107 2.10591e-20)
(1.01538 0.246948 -2.66259e-23)
(1.00374 0.238545 -7.62782e-21)
(0.963743 0.223108 -1.39311e-20)
(0.800518 0.180056 1.65237e-20)
(0.49943 0.109995 -2.92442e-20)
(0.220147 0.0480324 -3.85061e-21)
(0.0570198 0.0135149 0)
(-0.00785627 -0.000151389 -3.51017e-24)
(-0.00830953 -0.00115956 0)
(0.280117 0.0577695 9.05717e-21)
(1.16439 0.230774 -4.81654e-21)
(1.35073 0.281528 -4.21663e-21)
(1.39034 0.302366 1.84031e-21)
(1.35848 0.315034 -3.10521e-21)
(1.30071 0.320162 1.52313e-20)
(1.24304 0.322708 7.46371e-21)
(1.1858 0.322414 0)
(1.12891 0.318113 -2.43349e-20)
(1.07358 0.308528 0)
(1.029 0.295204 -1.09386e-20)
(1.00209 0.283005 -1.36488e-20)
(0.986729 0.272372 -8.25347e-21)
(0.931982 0.251288 -1.00684e-20)
(0.740218 0.195458 0)
(0.431747 0.113207 0)
(0.174723 0.0466616 -2.49175e-20)
(0.0322098 0.0106558 4.91727e-21)
(-0.0187293 -0.00281096 -2.89856e-21)
(-0.00999571 -0.00193302 -3.43362e-21)
(0.272045 0.0706652 -1.33558e-21)
(1.17745 0.291044 0)
(1.36533 0.348639 7.36429e-21)
(1.40173 0.370107 4.84381e-21)
(1.3656 0.378799 7.2929e-21)
(1.3047 0.37931 0)
(1.24359 0.377247 7.12815e-21)
(1.18266 0.372471 1.39571e-20)
(1.12204 0.363789 1.23181e-20)
(1.06322 0.349947 2.29521e-20)
(1.01605 0.333125 0)
(0.987513 0.31863 -2.91985e-20)
(0.968486 0.305334 -1.76604e-20)
(0.901027 0.27785 -1.04578e-20)
(0.689815 0.209998 6.4217e-20)
(0.383807 0.117265 7.6133e-21)
(0.144578 0.0461312 3.58584e-20)
(0.0143673 0.0076493 -1.69498e-19)
(-0.0276769 -0.00590075 1.00386e-19)
(-0.0115879 -0.00282254 -1.22538e-19)
(0.264018 0.0821718 2.24034e-21)
(1.18049 0.349179 1.49427e-22)
(1.3718 0.414742 -4.97525e-22)
(1.4062 0.437166 -3.98573e-21)
(1.36706 0.442113 -5.59767e-21)
(1.30384 0.43815 3.58003e-22)
(1.24008 0.431575 -7.70269e-21)
(1.1762 0.422326 1.4228e-20)
(1.11252 0.409171 -2.63504e-20)
(1.05076 0.390893 0)
(1.00142 0.37035 -1.31551e-20)
(0.971503 0.353293 -3.02257e-22)
(0.949151 0.337047 -1.92519e-20)
(0.871461 0.302849 0)
(0.648555 0.223815 -1.38345e-20)
(0.349789 0.122081 -3.27456e-20)
(0.123404 0.0460371 8.70614e-20)
(0.000258023 0.00434167 -8.57225e-20)
(-0.0358712 -0.00949278 1.21853e-19)
(-0.0132603 -0.00386052 -1.28217e-19)
(0.256926 0.0926652 -1.13801e-22)
(1.17706 0.404428 8.17751e-22)
(1.3723 0.478773 1.45742e-22)
(1.40524 0.502422 1.15637e-21)
(1.3639 0.503958 -2.70536e-21)
(1.29895 0.495755 0)
(1.23311 0.484864 -6.92541e-21)
(1.16682 0.47127 -1.47777e-20)
(1.10056 0.453687 -1.3588e-20)
(1.03627 0.430903 0)
(0.985071 0.406474 -1.3452e-20)
(0.954017 0.386612 -1.67836e-20)
(0.928835 0.367113 2.07523e-20)
(0.843487 0.326119 -1.26393e-20)
(0.615047 0.236944 -5.97844e-20)
(0.325513 0.12735 3.53693e-20)
(0.108136 0.0460113 1.04536e-20)
(-0.0113989 0.000592535 0)
(-0.0437979 -0.0136639 -1.16805e-19)
(-0.015151 -0.00509765 -4.33082e-21)
(0.250968 0.102493 1.04641e-21)
(1.16949 0.456596 -1.48451e-21)
(1.36835 0.540173 -3.8435e-22)
(1.40005 0.565211 4.65294e-21)
(1.35709 0.5637 -9.10042e-21)
(1.29085 0.551573 1.28866e-20)
(1.22334 0.536628 1.48628e-20)
(1.15501 0.51888 -2.35228e-20)
(1.08651 0.496982 8.50116e-21)
(1.01998 0.469699 -5.57168e-20)
(0.967132 0.441253 -1.52505e-20)
(0.935096 0.418343 0)
(0.907569 0.395296 2.24125e-20)
(0.816924 0.34758 2.6853e-20)
(0.587616 0.249307 3.20794e-20)
(0.307991 0.132652 -3.81333e-20)
(0.0971697 0.0457292 -1.12628e-20)
(-0.0207696 -0.00358849 1.32616e-20)
(-0.0511741 -0.0183531 0)
(-0.0172367 -0.00655277 -9.33291e-21)
(0.246073 0.111734 -1.61971e-20)
(1.15954 0.505735 8.86102e-21)
(1.36125 0.59887 7.99951e-22)
(1.39168 0.625196 2.17277e-21)
(1.34745 0.620965 -3.56521e-21)
(1.28025 0.605244 -8.4677e-22)
(1.21136 0.586564 -1.62917e-20)
(1.14129 0.564921 -8.51756e-21)
(1.07078 0.538865 -2.35344e-20)
(1.00218 0.507154 5.14529e-23)
(0.947782 0.474587 -4.7441e-20)
(0.914834 0.448395 4.03612e-20)
(0.885356 0.421557 -2.45319e-20)
(0.791353 0.367198 2.94312e-20)
(0.56445 0.260875 0)
(0.294991 0.13767 -2.05972e-20)
(0.0895262 0.04516 3.87383e-23)
(-0.0274792 -0.00792869 -5.74014e-20)
(-0.0572192 -0.0232431 -8.47499e-21)
(-0.0192625 -0.00815115 0)
(0.242206 0.120659 0)
(1.14828 0.552087 1.02215e-20)
(1.35188 0.654975 4.14461e-21)
(1.38092 0.682221 -1.31796e-21)
(1.33568 0.675554 -5.17393e-21)
(1.26775 0.656581 0)
(1.19774 0.634495 -7.0854e-21)
(1.12613 0.609246 -2.23314e-22)
(1.05377 0.579266 5.03873e-20)
(0.983182 0.543223 -7.59885e-21)
(0.927236 0.506499 -3.42716e-20)
(0.893328 0.476811 2.0925e-20)
(0.862153 0.445994 -4.16383e-22)
(0.766276 0.385081 3.13151e-20)
(0.543916 0.271542 1.89773e-20)
(0.284568 0.142393 -4.43045e-20)
(0.0844079 0.0446172 5.2342e-20)
(-0.0313838 -0.0119282 1.55118e-20)
(-0.0613234 -0.0278384 6.41987e-20)
(-0.0209397 -0.0097425 -1.73673e-19)
(0.239285 0.129427 -5.40074e-21)
(1.1365 0.595826 7.17594e-21)
(1.34089 0.708087 -4.7919e-21)
(1.36845 0.736246 -2.90097e-22)
(1.32238 0.72738 0)
(1.25389 0.70548 -5.17445e-21)
(1.18291 0.680329 2.41628e-20)
(1.10993 0.651786 1.85496e-20)
(1.03583 0.618154 0)
(0.963252 0.577937 -1.09919e-19)
(0.905674 0.53704 9.28147e-20)
(0.870702 0.503715 0)
(0.83792 0.468757 2.86229e-20)
(0.740816 0.401494 -3.78251e-22)
(0.524796 0.281192 -6.10904e-20)
(0.275499 0.146781 2.38665e-20)
(0.0811688 0.0443086 0)
(-0.0328175 -0.0152334 8.36643e-20)
(-0.063247 -0.0317065 0)
(-0.0220522 -0.0111763 -8.20889e-20)
(0.237224 0.138056 6.46238e-21)
(1.1247 0.637196 9.34942e-21)
(1.32877 0.758279 -4.74181e-21)
(1.35482 0.78729 0)
(1.30803 0.776448 -3.383e-21)
(1.2391 0.751928 0)
(1.16731 0.72403 -2.33409e-20)
(1.09307 0.692519 -8.39366e-21)
(1.01727 0.655534 8.81493e-21)
(0.942659 0.611362 -5.44534e-20)
(0.883286 0.566309 9.57576e-21)
(0.847119 0.529242 0)
(0.812797 0.490008 -6.12709e-20)
(0.71502 0.416529 3.34109e-22)
(0.505968 0.290012 0)
(0.266758 0.150933 6.86137e-23)
(0.0788776 0.0443089 7.64097e-20)
(-0.0324407 -0.0176373 -7.22932e-20)
(-0.0631827 -0.0346527 2.14042e-20)
(-0.0225159 -0.0123202 0)
(0.235681 0.146514 0)
(1.11312 0.676395 1.12742e-20)
(1.31597 0.80567 7.00261e-21)
(1.34045 0.835432 -5.30591e-22)
(1.29304 0.822802 -3.20569e-22)
(1.22377 0.795946 -1.1686e-20)
(1.15125 0.765608 8.92972e-21)
(1.07584 0.731452 -1.01439e-20)
(0.998392 0.691436 3.96908e-20)
(0.921641 0.643573 -8.73929e-20)
(0.860274 0.594439 -8.94287e-22)
(0.822733 0.553501 -2.68373e-20)
(0.786866 0.509854 9.96601e-20)
(0.688786 0.430248 -4.51423e-22)
(0.486834 0.2979 -4.76293e-20)
(0.257753 0.154628 -8.40328e-20)
(0.0769237 0.0446479 0)
(-0.0309418 -0.0191643 0)
(-0.0615326 -0.0365929 2.31374e-20)
(-0.0223865 -0.0131323 -1.37399e-20)
(0.234811 0.154986 9.06258e-21)
(1.10197 0.713401 -2.55648e-20)
(1.30282 0.850374 -7.50511e-21)
(1.32568 0.880763 0)
(1.27772 0.866509 -3.08021e-22)
(1.20818 0.837581 -9.79403e-21)
(1.13504 0.805096 2.10056e-20)
(1.05853 0.768607 3.94376e-20)
(0.979439 0.725903 5.15939e-20)
(0.900443 0.674661 -7.1593e-20)
(0.836827 0.621567 -8.05777e-20)
(0.797679 0.576615 7.20141e-20)
(0.760276 0.52834 0)
(0.6621 0.442595 -2.18806e-20)
(0.467232 0.304634 -5.14563e-20)
(0.248059 0.157661 -6.05877e-20)
(0.0747478 0.0450622 -7.14011e-20)
(-0.0289585 -0.0199619 2.1152e-20)
(-0.0589326 -0.0376104 -1.2471e-20)
(-0.0217943 -0.0136149 6.94412e-23)
(0.234196 0.163285 0)
(1.09156 0.748394 0)
(1.28956 0.892502 5.08047e-22)
(1.31076 0.923385 0)
(1.26232 0.907667 -1.68697e-21)
(1.19258 0.876908 5.89119e-21)
(1.11889 0.842541 0)
(1.04136 0.80402 4.59208e-21)
(0.960643 0.758974 8.62976e-20)
(0.879285 0.704714 -1.65275e-19)
(0.813124 0.647839 0)
(0.772071 0.59871 -4.66934e-20)
(0.733054 0.545413 -5.47239e-22)
(0.635039 0.453324 -3.4674e-22)
(0.44723 0.309982 5.55005e-20)
(0.237748 0.159785 5.17328e-23)
(0.0721704 0.0454083 -1.54161e-19)
(-0.0269369 -0.0202188 4.557e-20)
(-0.055915 -0.037949 1.35302e-20)
(-0.0209088 -0.0138189 0)
(0.233818 0.171369 -3.63194e-20)
(1.08165 0.781697 -1.72389e-20)
(1.2763 0.932136 -2.21658e-20)
(1.29589 0.963406 2.11951e-20)
(1.24705 0.946356 -6.03687e-21)
(1.17716 0.913999 0)
(1.10301 0.878002 1.2423e-20)
(1.02451 0.837734 -1.04002e-20)
(0.942195 0.79069 8.02748e-22)
(0.858376 0.73381 1.22817e-20)
(0.789339 0.673403 1.05414e-19)
(0.745988 0.619946 -1.6435e-20)
(0.705206 0.561045 -6.21188e-20)
(0.607574 0.462075 -2.56621e-20)
(0.426683 0.31338 3.00287e-20)
(0.227314 0.160615 6.90585e-23)
(0.0695128 0.045518 4.16177e-20)
(-0.02503 -0.0200386 -9.82722e-20)
(-0.0529453 -0.0378183 1.16679e-19)
(-0.0199368 -0.0138593 1.7218e-20)
(0.233489 0.179219 1.37888e-20)
(1.07225 0.813374 -9.69707e-21)
(1.26321 0.969408 1.31524e-21)
(1.28125 1.00095 1.36816e-20)
(1.23206 0.982693 2.67131e-21)
(1.16209 0.948934 -9.70431e-21)
(1.08754 0.911537 3.32398e-21)
(1.00815 0.869785 -4.33649e-20)
(0.924266 0.821075 -9.57571e-20)
(0.837895 0.761996 -9.93053e-20)
(0.765652 0.698398 0)
(0.719491 0.64051 -7.28156e-20)
(0.676591 0.575262 9.00264e-20)
(0.579513 0.468428 0)
(0.406122 0.314063 -6.46202e-20)
(0.217462 0.159475 3.81739e-20)
(0.0678796 0.0450216 -4.48372e-20)
(-0.022808 -0.0192363 -5.30335e-20)
(-0.0506412 -0.0373443 -9.41707e-20)
(-0.0192534 -0.0139265 -7.43806e-20)
(0.233476 0.18693 -1.56235e-20)
(1.06322 0.843434 1.03896e-20)
(1.25038 1.00439 2.33987e-20)
(1.26693 1.03613 2.00904e-20)
(1.21747 1.01678 -4.77381e-21)
(1.14746 0.981804 -4.33219e-21)
(1.07259 0.943202 1.14139e-20)
(0.992384 0.900223 -4.45019e-20)
(0.906982 0.850162 -5.70484e-20)
(0.818014 0.789314 1.04688e-19)
(0.742231 0.72295 2.34189e-19)
(0.692643 0.660635 0)
(0.647028 0.588212 0)
(0.550414 0.472061 -2.96508e-20)
(0.385358 0.310983 0)
(0.209289 0.154682 8.21002e-20)
(0.0698172 0.0428946 9.66293e-20)
(-0.0176259 -0.0186249 0)
(-0.0484592 -0.0370647 0)
(-0.0195587 -0.0145094 8.01363e-20)
(0.233308 0.194205 1.77705e-20)
(1.05459 0.871894 1.40498e-20)
(1.2379 1.03721 1.70178e-20)
(1.25303 1.06906 -1.94142e-20)
(1.20337 1.04872 -6.53419e-21)
(1.13337 1.01269 3.05168e-21)
(1.05825 0.97306 -1.56085e-20)
(0.977311 0.929079 -2.38175e-22)
(0.890457 0.877966 -1.06008e-21)
(0.798874 0.815783 -6.89975e-22)
(0.71926 0.747157 1.21263e-19)
(0.665541 0.680553 0)
(0.616333 0.600202 9.24219e-20)
(0.519577 0.472937 6.39138e-20)
(0.36343 0.303111 1.51894e-19)
(0.202581 0.143389 4.44561e-20)
(0.0782335 0.0328669 -5.20951e-20)
(-0.000760054 -0.0260025 -3.07303e-20)
(-0.0354691 -0.0398047 0)
(-0.0187929 -0.0153701 8.64943e-20)
(0.233524 0.20152 -4.02332e-20)
(1.04634 0.898861 0)
(1.22577 1.06792 2.00754e-20)
(1.23958 1.09984 -1.64863e-20)
(1.18982 1.07862 9.20064e-21)
(1.11986 1.04167 -7.30567e-22)
(1.04459 1.00117 2.93443e-20)
(0.962994 0.956389 -3.63895e-21)
(0.874767 0.904498 0)
(0.780598 0.841384 -1.16709e-19)
(0.696924 0.771085 -2.65744e-19)
(0.638325 0.700501 1.09611e-20)
(0.584422 0.611649 1.29116e-19)
(0.486307 0.47153 0)
(0.338311 0.290321 1.03256e-19)
(0.193494 0.122049 0)
(0.0898844 0.00306043 0)
(0.0357552 -0.0635391 -3.32513e-20)
(0.0250125 -0.0585073 0)
(0.0187849 -0.00226967 2.32746e-20)
(0.233395 0.208302 -4.49644e-20)
(1.03843 0.924641 0)
(1.21399 1.09673 3.35574e-20)
(1.22654 1.12872 0)
(1.17678 1.10675 -5.70315e-21)
(1.10689 1.06905 0)
(1.03154 1.02783 1.23219e-21)
(0.949341 0.982485 6.22185e-21)
(0.859795 0.930111 7.29e-21)
(0.76302 0.86648 -1.28751e-19)
(0.675032 0.795178 7.99939e-21)
(0.610674 0.721182 8.90358e-20)
(0.550687 0.623428 1.26766e-19)
(0.449315 0.468605 1.69893e-20)
(0.307202 0.27392 8.1609e-20)
(0.174581 0.0911968 0)
(0.08698 -0.0493732 1.10083e-19)
(0.0514251 -0.0928508 -6.46318e-20)
(0.0243488 0.0367328 7.56516e-20)
(-0.038925 0.460999 -8.98688e-20)
(0.233285 0.214928 3.72703e-20)
(1.03063 0.949067 5.61942e-20)
(1.20247 1.12396 0)
(1.21378 1.15613 9.99531e-22)
(1.16407 1.13369 1.71011e-20)
(1.09417 1.09549 -6.26909e-21)
(1.01878 1.05383 9.57702e-21)
(0.935929 1.00829 0)
(0.844991 0.95588 4.78934e-20)
(0.745433 0.892345 -6.67905e-21)
(0.652613 0.82088 0)
(0.581144 0.744187 0)
(0.512712 0.636608 1.14639e-19)
(0.405485 0.46437 -5.27289e-20)
(0.26643 0.255643 -8.35868e-20)
(0.140008 0.0538755 0)
(0.0531756 -0.0180198 5.62005e-20)
(0.00304656 0.452848 -6.50501e-20)
(0.0282708 1.94275 -3.64692e-20)
(0.054408 2.83244 -4.48385e-20)
(0.232908 0.221048 -2.80654e-20)
(1.02301 0.972319 -7.22684e-20)
(1.19124 1.14962 1.99889e-20)
(1.20129 1.18196 1.62439e-20)
(1.15175 1.15924 0)
(1.08181 1.12074 -6.53581e-21)
(1.00653 1.07888 1.20441e-20)
(0.922966 1.03339 -2.98853e-21)
(0.83066 0.981303 7.23848e-21)
(0.728266 0.918408 1.23494e-19)
(0.630351 0.847619 1.36776e-19)
(0.550782 0.769555 1.01768e-19)
(0.471225 0.651828 1.16594e-19)
(0.355547 0.458549 -1.25693e-19)
(0.220934 0.240043 -1.27649e-19)
(0.0938761 0.115272 0)
(0.0346112 0.911965 0)
(0.0803902 2.59451 3.12792e-20)
(0.0836039 3.21832 0)
(0.0856056 3.3914 8.14233e-20)
(0.235361 0.226828 0)
(1.01591 0.9948 0)
(1.18 1.17357 0)
(1.18889 1.20606 4.93914e-21)
(1.13948 1.18316 1.56878e-20)
(1.06962 1.14463 -7.34317e-21)
(0.994733 1.10286 7.38329e-21)
(0.910388 1.05764 -2.90043e-21)
(0.816741 1.0062 5.98941e-20)
(0.71152 0.944504 -1.57185e-21)
(0.60836 0.875205 2.7224e-19)
(0.519984 0.797433 -1.18626e-20)
(0.426149 0.670353 1.43179e-20)
(0.300886 0.449847 1.83799e-20)
(0.163414 0.256996 -7.79244e-22)
(0.0804713 1.03088 3.46744e-22)
(0.11511 2.7776 -1.68754e-19)
(0.119567 3.30277 -6.33869e-20)
(0.111847 3.42294 3.33318e-20)
(0.102764 3.44237 -3.76832e-20)
(0.158447 0.172339 1.71628e-20)
(1.00448 1.01926 0)
(1.16852 1.19603 -4.10274e-20)
(1.17702 1.22889 -4.44301e-20)
(1.1277 1.20592 3.724e-20)
(1.0583 1.16766 8.69519e-21)
(0.983158 1.12581 -7.12832e-21)
(0.898226 1.0811 3.08695e-20)
(0.803318 1.03066 -4.91637e-20)
(0.695433 0.970751 0)
(0.586978 0.90372 1.35019e-19)
(0.489316 0.827669 -8.40659e-20)
(0.381574 0.700295 0)
(0.23814 0.444003 1.80594e-20)
(0.11659 0.713913 4.2342e-20)
(0.129787 2.5882 -4.7435e-20)
(0.175789 3.32682 5.36464e-20)
(0.160304 3.43071 2.87902e-20)
(0.133871 3.44962 3.24853e-20)
(0.115715 3.45857 5.16721e-20)
(0.269727 0.264052 -3.31024e-20)
(0.986021 1.02871 0)
(1.14945 1.22161 4.42575e-20)
(1.1617 1.26004 4.89189e-20)
(1.10961 1.23949 -4.18672e-20)
(1.03962 1.20156 -1.35094e-20)
(0.963256 1.16124 3.76823e-21)
(0.877637 1.11778 2.47218e-21)
(0.781029 1.06952 4.66035e-20)
(0.669591 1.01368 1.07851e-19)
(0.554114 0.952785 7.58687e-21)
(0.441585 0.877643 7.56508e-20)
(0.297041 0.724356 1.37714e-20)
(0.196626 0.866824 -1.75024e-20)
(0.202945 2.47208 -3.89113e-20)
(0.25396 3.32855 3.80513e-20)
(0.236741 3.45307 -4.15792e-20)
(0.203375 3.47255 -2.38212e-20)
(0.170775 3.49745 -2.14521e-20)
(0.126186 3.49335 -3.10243e-21)
(0.25969 0.262796 0)
(0.982631 1.0513 1.28792e-20)
(1.14023 1.24511 -9.11404e-21)
(1.15016 1.28361 -5.83257e-21)
(1.09805 1.2628 -2.89146e-20)
(1.02803 1.22504 1.40904e-20)
(0.951284 1.18491 -8.40969e-22)
(0.865296 1.14227 2.18141e-21)
(0.767833 1.09551 -4.84396e-20)
(0.654438 1.04266 -2.64068e-21)
(0.5348 0.986648 -2.45961e-19)
(0.413969 0.913451 1.0892e-20)
(0.274762 0.79798 -1.30948e-20)
(0.232688 1.5287 -1.61306e-20)
(0.296883 3.14478 3.66134e-21)
(0.308475 3.45343 1.12105e-22)
(0.267839 3.50044 6.17615e-20)
(0.23459 3.52519 3.11494e-20)
(0.189305 3.54582 -9.86361e-21)
(0.139941 3.54322 -1.54214e-20)
(0.245597 0.260648 3.29522e-20)
(0.978299 1.07639 8.72473e-20)
(1.13064 1.27069 -2.59621e-20)
(1.13824 1.30881 -2.18948e-20)
(1.08601 1.28758 0)
(1.01604 1.24984 2.59409e-20)
(0.939204 1.20996 1.83062e-21)
(0.853105 1.16813 1.86464e-21)
(0.75511 1.12301 -5.46488e-21)
(0.640328 1.0735 -9.77469e-20)
(0.517538 1.02308 -1.13734e-19)
(0.389583 0.950673 -8.91846e-20)
(0.276265 0.951045 -9.88194e-20)
(0.299825 2.3249 1.01721e-19)
(0.378937 3.38172 8.53918e-20)
(0.348747 3.50783 0)
(0.301688 3.54639 0)
(0.265463 3.5809 -7.85282e-21)
(0.222761 3.62589 0)
(0.153604 3.61205 -1.19094e-20)
(0.235688 0.26242 -4.90916e-20)
(0.972031 1.10231 -7.38401e-20)
(1.11964 1.2975 0)
(1.12505 1.33483 1.21539e-21)
(1.07271 1.31302 -3.13506e-20)
(1.00296 1.27522 4.23547e-20)
(0.926356 1.23565 2.93029e-21)
(0.840378 1.19456 8.12839e-22)
(0.742118 1.15109 -3.35449e-20)
(0.626418 1.105 4.80759e-21)
(0.501482 1.0603 0)
(0.367339 0.991303 0)
(0.298148 1.25692 -8.98006e-20)