/*--------------------------------*- C++ -*----------------------------------*\
| =========                 |                                                 |
| \\      /  F ield         | OpenFOAM: The Open Source CFD Toolbox           |
|  \\    /   O peration     | Version:  2106                                  |
|   \\  /    A nd           | Website:  www.openfoam.com                      |
|    \\/     M anipulation  |                                                 |
\*---------------------------------------------------------------------------*/
FoamFile
{
    version     2.0;
    format      ascii;
    arch        "LSB;label=32;scalar=64";
    class       volScalarField;
    location    "6";
    object      T;
}
// * * * * * * * * * * * * * * * * * * * * * * * * * * * * * * * * * * * * * //

dimensions      [0 0 0 1 0 0 0];

internalField   nonuniform List<scalar> 
10000
(
-1.21007e-58
-1.00422e-58
-1.28997e-58
-1.39884e-59
-2.66283e-58
4.03944e-58
-1.1963e-57
2.83412e-57
-7.11449e-57
1.54506e-56
-2.21837e-56
-1.98648e-56
2.86396e-55
-1.17098e-54
2.8986e-54
-3.17413e-54
-8.8899e-54
5.67002e-53
-1.42456e-52
9.9984e-53
6.37922e-52
-2.68322e-51
3.90615e-51
6.1037e-51
-4.16665e-50
7.07155e-50
8.21918e-50
-6.27295e-49
9.11361e-49
1.80833e-48
-9.00481e-48
6.48073e-48
4.03909e-47
-1.04088e-46
-6.61895e-47
6.75473e-46
-5.34324e-46
-3.02977e-45
6.26443e-45
9.8372e-45
-4.19793e-44
-1.77039e-44
2.29244e-43
-4.64816e-44
-1.13572e-42
6.82716e-43
5.41314e-42
-4.41667e-42
-2.57295e-41
2.12515e-41
1.23571e-40
-7.63867e-41
-5.92269e-40
1.2775e-40
2.73205e-39
9.54032e-40
-1.14157e-38
-1.25891e-38
3.86304e-38
8.88813e-38
-7.25137e-38
-4.47058e-37
-2.31264e-37
1.50988e-36
2.96061e-36
-1.67891e-36
-1.40269e-35
-1.60699e-35
2.58399e-35
1.05546e-34
1.00338e-34
-1.88964e-34
-7.39521e-34
-8.80423e-34
6.66246e-34
4.53604e-33
8.32399e-33
4.84896e-33
-1.55777e-32
-5.61265e-32
-9.87102e-32
-9.02996e-32
5.89515e-32
4.56788e-31
1.18893e-30
2.27042e-30
3.60983e-30
5.00762e-30
6.19767e-30
6.92228e-30
7.01342e-30
6.44829e-30
5.35606e-30
3.97398e-30
2.57149e-30
1.37302e-30
5.06817e-31
-2.95594e-33
-2.30365e-31
-2.16804e-31
6.40224e-58
5.3493e-58
6.73712e-58
1.17324e-58
1.25954e-57
-1.63024e-57
4.81006e-57
-1.09799e-56
2.89017e-56
-6.87297e-56
1.18825e-55
8.14689e-57
-1.10596e-54
5.14096e-54
-1.3818e-53
1.78681e-53
3.29669e-53
-2.55608e-52
6.882e-52
-5.90561e-52
-2.7583e-51
1.26423e-50
-1.98083e-50
-2.51957e-50
1.95467e-49
-3.50684e-49
-3.44445e-49
2.9601e-48
-4.52739e-48
-8.11476e-48
4.2919e-47
-3.33608e-47
-1.88523e-46
5.01714e-46
2.89118e-46
-3.20963e-45
2.6499e-45
1.42783e-44
-3.01025e-44
-4.59875e-44
2.00082e-43
8.11275e-44
-1.0889e-42
2.28002e-43
5.3875e-42
-3.23619e-42
-2.56723e-41
2.07459e-41
1.22024e-40
-9.89238e-41
-5.85663e-40
3.49506e-40
2.8012e-39
-5.32756e-40
-1.28686e-38
-4.86772e-39
5.33951e-38
6.08289e-38
-1.78341e-37
-4.21877e-37
3.20029e-37
2.09207e-36
1.16947e-36
-6.92976e-36
-1.40144e-35
6.99858e-36
6.47868e-35
7.71845e-35
-1.13585e-34
-4.87123e-34
-4.84358e-34
8.25804e-34
3.3861e-33
4.16651e-33
-2.73171e-33
-2.04423e-32
-3.83315e-32
-2.38054e-32
6.77757e-32
2.52286e-31
4.49564e-31
4.20372e-31
-2.43207e-31
-2.03249e-30
-5.34048e-30
-1.02395e-29
-1.63168e-29
-2.26658e-29
-2.80749e-29
-3.13697e-29
-3.17842e-29
-2.92146e-29
-2.42501e-29
-1.79718e-29
-1.16066e-29
-6.17458e-30
-2.25636e-30
4.1698e-32
1.05963e-30
9.8505e-31
-6.50292e-57
-5.44844e-57
-6.80556e-57
-1.37657e-57
-1.21471e-56
1.43445e-56
-4.2146e-56
9.35777e-56
-2.53841e-55
6.36887e-55
-1.20466e-54
3.34762e-55
9.40714e-54
-4.74044e-53
1.33151e-52
-1.8541e-52
-2.7236e-52
2.39331e-51
-6.67925e-51
6.24453e-51
2.52331e-50
-1.21197e-49
1.96757e-49
2.24184e-49
-1.86996e-48
3.44765e-48
3.09437e-48
-2.84053e-47
4.45455e-47
7.58475e-47
-4.13939e-46
3.33562e-46
1.79923e-45
-4.86556e-45
-2.66346e-45
3.09093e-44
-2.60431e-44
-1.36946e-43
2.91458e-43
4.39349e-43
-1.92954e-42
-7.67687e-43
1.04836e-41
-2.22505e-42
-5.18358e-41
3.10998e-41
2.46976e-40
-1.98486e-40
-1.17388e-39
9.42057e-40
5.63199e-39
-3.29794e-39
-2.69075e-38
4.76199e-39
1.23347e-37
4.85078e-38
-5.09932e-37
-5.90549e-37
1.69161e-36
4.05915e-36
-2.96245e-36
-1.99838e-35
-1.15955e-35
6.55321e-35
1.34634e-34
-6.2706e-35
-6.1468e-34
-7.46689e-34
1.04974e-33
4.6198e-33
4.69587e-33
-7.60956e-33
-3.1983e-32
-4.00025e-32
2.42807e-32
1.91532e-31
3.63082e-31
2.32372e-31
-6.236e-31
-2.3611e-30
-4.23506e-30
-4.00165e-30
2.17727e-30
1.89347e-29
4.99864e-29
9.60323e-29
1.53199e-28
2.12953e-28
2.63878e-28
2.94904e-28
2.98808e-28
2.74611e-28
2.27871e-28
1.6878e-28
1.08897e-28
5.7827e-29
2.10259e-29
-5.21463e-31
-1.00322e-29
-9.27079e-30
6.20185e-56
5.21127e-56
6.45248e-56
1.50021e-56
1.09262e-55
-1.14177e-55
3.33103e-55
-7.07569e-55
2.00946e-54
-5.43284e-54
1.14349e-53
-7.43769e-54
-7.09154e-53
4.02167e-52
-1.19424e-51
1.80553e-51
1.9552e-51
-2.07184e-50
6.04336e-50
-6.19862e-50
-2.11885e-49
1.08062e-48
-1.82862e-48
-1.81119e-48
1.66316e-47
-3.16693e-47
-2.53475e-47
2.53592e-46
-4.09559e-46
-6.55343e-46
3.71804e-45
-3.1226e-45
-1.59575e-44
4.39886e-44
2.25879e-44
-2.77133e-43
2.39096e-43
1.22192e-42
-2.62985e-42
-3.90186e-42
1.73287e-41
6.74036e-42
-9.39631e-41
2.02457e-41
4.64245e-40
-2.78032e-40
-2.21161e-39
1.76508e-39
1.05114e-38
-8.32985e-39
-5.04068e-38
2.88278e-38
2.40494e-37
-3.86911e-38
-1.09955e-36
-4.52534e-37
4.5254e-36
5.34559e-36
-1.48863e-35
-3.63503e-35
2.52715e-35
1.77389e-34
1.07523e-34
-5.74536e-34
-1.20334e-33
5.11869e-34
5.41105e-33
6.72901e-33
-8.93858e-33
-4.06474e-32
-4.24216e-32
6.45543e-32
2.79995e-31
3.57204e-31
-1.96159e-31
-1.66004e-30
-3.18963e-30
-2.11496e-30
5.28204e-30
2.04371e-29
3.69559e-29
3.53614e-29
-1.77944e-29
-1.62995e-28
-4.32818e-28
-8.33565e-28
-1.3316e-27
-1.85251e-27
-2.29665e-27
-2.56729e-27
-2.60135e-27
-2.39028e-27
-1.98264e-27
-1.46747e-27
-9.45695e-28
-5.01065e-28
-1.81057e-28
5.91779e-30
8.80844e-29
8.08129e-29
-5.71234e-55
-4.81234e-55
-5.91135e-55
-1.53869e-55
-9.50755e-55
8.59505e-55
-2.47962e-54
4.92593e-54
-1.4935e-53
4.43712e-53
-1.04422e-52
1.0425e-52
4.9154e-52
-3.26955e-51
1.03282e-50
-1.6907e-50
-1.25007e-50
1.72474e-49
-5.27618e-49
5.90408e-49
1.70277e-48
-9.29246e-48
1.64008e-47
1.38694e-47
-1.42655e-46
2.80799e-46
1.9764e-46
-2.18393e-45
3.63465e-45
5.44684e-45
-3.22247e-44
2.81992e-44
1.36484e-43
-3.83811e-43
-1.8384e-43
2.3975e-42
-2.11829e-42
-1.05181e-41
2.28979e-41
3.34255e-41
-1.50154e-40
-5.70721e-41
8.1254e-40
-1.7753e-40
-4.01138e-39
2.39641e-39
1.91069e-38
-1.51306e-38
-9.08058e-38
7.0971e-38
4.3522e-37
-2.42532e-37
-2.07336e-36
2.97994e-37
9.45273e-36
4.07483e-36
-3.87184e-35
-4.66964e-35
1.2621e-34
3.13992e-34
-2.0692e-34
-1.51804e-33
-9.61898e-34
4.85153e-33
1.03721e-32
-3.97546e-33
-4.58942e-32
-5.84888e-32
7.307e-32
3.44559e-31
3.69584e-31
-5.25569e-31
-2.36073e-30
-3.07489e-30
1.50623e-30
1.38463e-29
2.69915e-29
1.85511e-29
-4.29597e-29
-1.70248e-28
-3.10526e-28
-3.01013e-28
1.39023e-28
1.35033e-27
3.60808e-27
6.96699e-27
1.11457e-26
1.55195e-26
1.92503e-26
2.15243e-26
2.18105e-26
2.00371e-26
1.66128e-26
1.2287e-26
7.90829e-27
4.18018e-27
1.50049e-27
-6.17233e-29
-7.45029e-28
-6.78396e-28
5.0729e-54
4.28345e-54
5.2239e-54
1.49319e-54
7.9895e-54
-6.05635e-54
1.71575e-53
-3.04999e-53
1.02604e-52
-3.45537e-52
9.15996e-52
-1.21637e-51
-3.0213e-51
2.53742e-50
-8.59502e-50
1.52061e-49
6.53458e-50
-1.3769e-48
4.43616e-48
-5.39246e-48
-1.30393e-47
7.69069e-47
-1.41705e-46
-9.97598e-47
1.17755e-45
-2.39881e-45
-1.45704e-45
1.81061e-44
-3.10773e-44
-4.3432e-44
2.68968e-43
-2.45236e-43
-1.12336e-42
3.2257e-42
1.43119e-42
-1.99725e-41
1.80767e-41
8.71656e-41
-1.92008e-40
-2.75633e-40
1.25287e-39
4.65053e-40
-6.76546e-39
1.49712e-39
3.33729e-38
-1.98715e-38
-1.58935e-37
1.24755e-37
7.55275e-37
-5.81329e-37
-3.61773e-36
1.9589e-36
1.72066e-35
-2.15589e-36
-7.82074e-35
-3.53532e-35
3.18681e-34
3.92893e-34
-1.02854e-33
-2.61083e-33
1.62077e-33
1.24972e-32
8.28681e-33
-3.9365e-32
-8.60364e-32
2.9173e-32
3.74182e-31
4.89355e-31
-5.71598e-31
-2.80747e-30
-3.09893e-30
4.09288e-30
1.91237e-29
2.54622e-29
-1.09123e-29
-1.10859e-28
-2.1951e-28
-1.56498e-28
3.34441e-28
1.36144e-27
2.50641e-27
2.4627e-27
-1.03353e-27
-1.07385e-26
-2.88864e-26
-5.59342e-26
-8.96222e-26
-1.24909e-25
-1.55022e-25
-1.73382e-25
-1.75693e-25
-1.61375e-25
-1.33735e-25
-9.88332e-26
-6.35267e-26
-3.3494e-26
-1.1937e-26
6.00249e-28
6.05634e-27
5.47122e-27
-4.33853e-53
-3.67078e-53
-4.44779e-53
-1.37502e-53
-6.47813e-53
3.93892e-53
-1.08167e-52
1.54955e-52
-6.34996e-52
2.556e-51
-7.71041e-51
1.2666e-50
1.51089e-50
-1.87367e-49
6.87392e-49
-1.31249e-48
-1.95306e-49
1.05215e-47
-3.5878e-47
4.72016e-47
9.4775e-47
-6.11848e-46
1.17812e-45
6.661e-46
-9.34288e-45
1.97215e-44
1.00788e-44
-1.44336e-43
2.55718e-43
3.31673e-43
-2.15944e-42
2.05145e-42
8.88701e-42
-2.60828e-41
-1.06311e-41
1.60031e-40
-1.48409e-40
-6.94643e-40
1.54878e-39
2.18537e-39
-1.00545e-38
-3.64283e-39
5.41753e-38
-1.21251e-38
-2.67014e-37
1.58318e-37
1.27141e-36
-9.88059e-37
-6.04115e-36
4.57137e-36
2.89169e-35
-1.51637e-35
-1.37289e-34
1.44761e-35
6.21934e-34
2.95202e-34
-2.52005e-33
-3.18024e-33
8.04558e-33
2.08716e-32
-1.21139e-32
-9.88432e-32
-6.86697e-32
3.0646e-31
6.85942e-31
-2.00672e-31
-2.92852e-30
-3.93606e-30
4.2686e-30
2.19572e-29
2.49765e-29
-3.0412e-29
-1.48623e-28
-2.02553e-28
7.3961e-29
8.50616e-28
1.71315e-27
1.26806e-27
-2.48672e-27
-1.04347e-26
-1.94046e-26
-1.9337e-26
7.28284e-27
8.18502e-26
2.21776e-25
4.30728e-25
6.91297e-25
9.64451e-25
1.19768e-24
1.33991e-24
1.35782e-24
1.24689e-24
1.03282e-24
7.62628e-25
4.89488e-25
2.57376e-25
9.10204e-26
-5.48197e-27
-4.72494e-26
-4.23303e-26
3.56879e-52
3.02482e-52
3.64396e-52
1.20343e-52
5.06334e-52
-2.30498e-52
5.96494e-52
-4.62507e-52
3.34312e-51
-1.78693e-50
6.22033e-50
-1.21049e-49
-4.21004e-50
1.31083e-48
-5.27574e-48
1.08609e-47
-1.16884e-48
-7.67882e-47
2.78752e-46
-3.95665e-46
-6.50426e-46
4.6728e-45
-9.41289e-45
-4.04501e-45
7.11541e-44
-1.55839e-43
-6.46475e-44
1.10488e-42
-2.02237e-42
-2.42091e-42
1.66553e-41
-1.64861e-41
-6.74842e-41
2.02654e-40
7.51238e-41
-1.23171e-39
1.17069e-39
5.31643e-39
-1.20017e-38
-1.66379e-38
7.75042e-38
2.73978e-38
-4.16666e-37
9.4162e-38
2.05185e-36
-1.21008e-36
-9.7682e-36
7.50555e-36
4.64072e-35
-3.44557e-35
-2.21962e-34
1.12282e-34
1.05174e-33
-8.83428e-35
-4.7473e-33
-2.36939e-33
1.91183e-32
2.47331e-32
-6.03121e-32
-1.60198e-31
8.61239e-32
7.49993e-31
5.46633e-31
-2.28532e-30
-5.24894e-30
1.27789e-30
2.19668e-29
3.03935e-29
-3.03434e-29
-1.64572e-28
-1.93222e-28
2.14961e-28
1.10628e-27
1.54565e-27
-4.62693e-28
-6.24335e-27
-1.281e-26
-9.85404e-27
1.76139e-26
7.65148e-26
1.43855e-25
1.45486e-25
-4.83936e-26
-5.96906e-25
-1.6301e-24
-3.17621e-24
-5.10681e-24
-7.13241e-24
-8.86285e-24
-9.91851e-24
-1.00514e-23
-9.22815e-24
-7.6398e-24
-5.63601e-24
-3.61184e-24
-1.89356e-24
-6.64053e-25
4.72034e-26
3.53217e-25
3.13673e-25
-2.81956e-51
-2.3934e-51
-2.8686e-51
-1.00169e-51
-3.8107e-51
1.14733e-51
-2.57871e-51
-2.31211e-51
-1.24367e-50
1.17238e-49
-4.80285e-49
1.07625e-48
-2.7024e-49
-8.639e-48
3.87974e-47
-8.6062e-47
2.95211e-47
5.33859e-46
-2.07755e-45
3.17303e-45
4.18365e-45
-3.42068e-44
7.21748e-44
2.14275e-44
-5.19379e-43
1.18195e-42
3.76725e-43
-8.10997e-42
1.53509e-41
1.68503e-41
-1.23232e-40
1.27099e-40
4.91148e-40
-1.51081e-39
-5.03117e-40
9.09345e-39
-8.86013e-39
-3.9021e-38
8.92176e-38
1.2146e-37
-5.73034e-37
-1.97591e-37
3.07348e-36
-6.99955e-37
-1.51217e-35
8.85865e-36
7.19752e-35
-5.45914e-35
-3.41878e-34
2.48477e-34
1.63373e-33
-7.935e-34
-7.72451e-33
4.69255e-34
3.47287e-32
1.82552e-32
-1.38924e-31
-1.84547e-31
4.32499e-31
1.17878e-30
-5.80128e-31
-5.45058e-30
-4.17404e-30
1.62936e-29
3.8491e-29
-7.37105e-30
-1.57642e-28
-2.24963e-28
2.04581e-28
1.17999e-27
1.43254e-27
-1.43992e-27
-7.87211e-27
-1.12953e-26
2.60839e-27
4.37432e-26
9.16059e-26
7.33178e-26
-1.18482e-25
-5.35692e-25
-1.01928e-24
-1.04693e-24
3.01103e-25
4.15674e-24
1.14493e-23
2.23871e-23
3.60645e-23
5.04283e-23
6.27065e-23
7.01993e-23
7.11427e-23
6.52994e-23
5.40293e-23
3.98189e-23
2.54754e-23
1.33135e-23
4.62633e-24
-3.83972e-25
-2.52566e-24
-2.2221e-24
2.13624e-50
1.81566e-50
2.16648e-50
7.92948e-51
2.7581e-50
-4.06185e-51
4.70405e-51
5.9433e-50
-5.21778e-51
-7.14239e-49
3.54365e-48
-8.96607e-48
6.27607e-48
5.31995e-47
-2.72898e-46
6.52155e-46
-3.65403e-46
-3.52469e-45
1.48298e-44
-2.43152e-44
-2.49405e-44
2.39622e-43
-5.30279e-43
-8.84134e-44
3.62751e-42
-8.5908e-42
-1.9136e-42
5.69879e-41
-1.11663e-40
-1.11537e-40
8.73298e-40
-9.38571e-40
-3.42037e-39
1.07905e-38
3.17807e-39
-6.42954e-38
6.42337e-38
2.74226e-37
-6.3522e-37
-8.48889e-37
4.05723e-36
1.36456e-36
-2.17086e-35
4.97057e-36
1.06709e-34
-6.19982e-35
-5.07798e-34
3.79478e-34
2.41144e-33
-1.71096e-33
-1.1512e-32
5.33787e-33
5.42998e-32
-1.92513e-33
-2.43068e-31
-1.34806e-31
9.65188e-31
1.31904e-30
-2.96084e-30
-8.30138e-30
3.68321e-30
3.78721e-29
3.05249e-29
-1.10829e-28
-2.70019e-28
3.68121e-29
1.08017e-27
1.59333e-27
-1.30224e-27
-8.0774e-27
-1.01605e-26
9.09616e-27
5.34367e-26
7.89014e-26
-1.2589e-26
-2.91849e-25
-6.25212e-25
-5.21328e-25
7.53964e-25
3.57252e-24
6.88785e-24
7.19122e-24
-1.73611e-24
-2.75799e-23
-7.66819e-23
-1.50511e-22
-2.42975e-22
-3.4018e-22
-4.23324e-22
-4.7408e-22
-4.80472e-22
-4.40889e-22
-3.6457e-22
-2.68395e-22
-1.71403e-22
-8.92673e-23
-3.07096e-23
2.95265e-24
1.72394e-23
1.50179e-23
-1.54945e-49
-1.31829e-49
-1.567e-49
-5.96631e-50
-1.91703e-49
-8.2939e-52
6.4179e-50
-7.12172e-49
7.14076e-49
3.97031e-48
-2.49395e-47
7.02518e-47
-7.38305e-47
-3.02292e-46
1.83239e-45
-4.71851e-45
3.5951e-45
2.20144e-44
-1.01204e-43
1.77794e-43
1.3524e-43
-1.60327e-42
3.72675e-42
1.45855e-43
-2.41969e-41
5.97353e-41
7.57917e-42
-3.82669e-40
7.77014e-40
6.99839e-40
-5.91716e-39
6.6273e-39
2.275e-38
-7.37035e-38
-1.88124e-38
4.34606e-37
-4.45283e-37
-1.84197e-36
4.32402e-36
5.67012e-36
-2.74597e-35
-9.01011e-36
1.4656e-34
-3.36434e-35
-7.19732e-34
4.13938e-34
3.42421e-33
-2.51556e-33
-1.62562e-32
1.12229e-32
7.75166e-32
-3.40718e-32
-3.64657e-31
2.84935e-33
1.62454e-30
9.52514e-31
-6.39841e-30
-9.01495e-30
1.93055e-29
5.58463e-29
-2.18835e-29
-2.51072e-28
-2.13411e-28
7.17444e-28
1.80852e-27
-1.40192e-28
-7.05077e-27
-1.07775e-26
7.77808e-27
5.26659e-26
6.88052e-26
-5.38349e-26
-3.45174e-25
-5.25724e-25
4.45975e-26
1.84896e-24
4.06287e-24
3.53506e-24
-4.51686e-24
-2.26334e-23
-4.42817e-23
-4.7039e-23
9.12289e-24
1.73905e-22
4.88541e-22
9.6291e-22
1.55804e-21
2.18437e-21
2.72048e-21
3.04789e-21
3.08912e-21
2.83379e-21
2.34167e-21
1.72191e-21
1.09748e-21
5.69423e-22
1.93733e-22
-2.14584e-23
-1.12071e-22
-9.66027e-23
1.07378e-48
9.14335e-49
1.08334e-48
4.26253e-49
1.27744e-48
1.9376e-49
-1.0643e-48
6.7312e-48
-9.33523e-48
-1.94767e-47
1.67076e-46
-5.18608e-46
6.92172e-46
1.55114e-45
-1.17188e-44
3.25381e-44
-3.09101e-44
-1.29435e-43
6.58965e-43
-1.23841e-42
-6.43129e-43
1.02244e-41
-2.50047e-41
2.15136e-42
1.53824e-40
-3.96594e-40
-1.23343e-41
2.45054e-39
-5.1624e-39
-4.14583e-39
3.82575e-38
-4.46587e-38
-1.44225e-37
4.80503e-37
1.0339e-37
-2.80295e-36
2.9457e-36
1.18021e-35
-2.80847e-35
-3.61251e-35
1.77298e-34
5.6789e-35
-9.4385e-34
2.16478e-34
4.63057e-33
-2.63019e-33
-2.2025e-32
1.58633e-32
1.04525e-31
-6.99358e-32
-4.97764e-31
2.05559e-31
2.33463e-30
5.2609e-32
-1.03456e-29
-6.42755e-30
4.03786e-29
5.87967e-29
-1.19567e-28
-3.58131e-28
1.20392e-28
1.58442e-27
1.42355e-27
-4.40723e-27
-1.15394e-26
1.67576e-28
4.37275e-26
6.94699e-26
-4.32147e-26
-3.26206e-25
-4.43858e-25
2.957e-25
2.11561e-24
3.33322e-24
-2.08514e-26
-1.10853e-23
-2.50698e-23
-2.28035e-23
2.53118e-23
1.35788e-22
2.7007e-22
2.92225e-22
-4.23701e-23
-1.03902e-21
-2.95251e-21
-5.84611e-21
-9.48316e-21
-1.33156e-20
-1.65986e-20
-1.86044e-20
-1.8857e-20
-1.72928e-20
-1.42791e-20
-1.04865e-20
-6.66922e-21
-3.44599e-21
-1.15807e-21
1.47231e-22
6.92053e-22
5.8981e-22
-7.09441e-48
-6.04457e-48
-7.14303e-48
-2.88719e-48
-8.14522e-48
-2.38376e-48
1.07353e-47
-5.53761e-47
8.8767e-47
7.77811e-47
-1.06289e-45
3.60844e-45
-5.66705e-45
-6.87952e-45
7.11979e-44
-2.13409e-43
2.40361e-43
7.11756e-43
-4.08446e-42
8.20096e-42
2.44705e-42
-6.19965e-41
1.59817e-40
-3.33952e-41
-9.29717e-40
2.50853e-39
-1.62113e-40
-1.49312e-38
3.26749e-38
2.3071e-38
-2.35503e-37
2.86559e-37
8.69414e-37
-2.98328e-36
-5.20019e-37
1.72093e-35
-1.85538e-35
-7.19712e-35
1.73652e-34
2.1905e-34
-1.08959e-33
-3.41041e-34
5.785e-33
-1.3201e-33
-2.83529e-32
1.58605e-32
1.34822e-31
-9.48883e-32
-6.39549e-31
4.12696e-31
3.04104e-30
-1.16639e-30
-1.42155e-29
-7.96652e-31
6.26206e-29
4.13332e-29
-2.41931e-28
-3.65127e-28
7.01157e-28
2.18392e-27
-6.02862e-28
-9.4922e-27
-9.03921e-27
2.56032e-26
6.99615e-26
3.73129e-27
-2.5686e-25
-4.2564e-25
2.20391e-25
1.91335e-24
2.72053e-24
-1.48534e-24
-1.22616e-23
-2.00531e-23
-1.54048e-24
6.2637e-23
1.46413e-22
1.39539e-22
-1.31502e-22
-7.68512e-22
-1.55732e-21
-1.71874e-21
1.62134e-22
5.86136e-21
1.68709e-20
3.35753e-20
5.46157e-20
7.68168e-20
9.58511e-20
1.07486e-19
1.08951e-19
9.98777e-20
8.24043e-20
6.04314e-20
3.83414e-20
1.97204e-20
6.53653e-21
-9.52042e-22
-4.04696e-21
-3.40711e-21
4.45739e-47
3.79925e-47
4.48044e-47
1.85043e-47
4.95822e-47
2.10773e-47
-8.83832e-47
4.10685e-46
-7.16632e-46
-1.82033e-46
6.40317e-45
-2.36498e-44
4.18894e-44
2.33972e-44
-4.097e-43
1.32804e-42
-1.71654e-42
-3.62714e-42
2.40363e-41
-5.15121e-41
-4.89607e-42
3.56444e-40
-9.70587e-40
3.2012e-40
5.32766e-39
-1.50782e-38
2.41799e-39
8.63318e-38
-1.96525e-37
-1.19807e-37
1.37669e-36
-1.74648e-36
-4.97007e-36
1.75942e-35
2.33407e-36
-1.00326e-34
1.10977e-34
4.16638e-34
-1.01948e-33
-1.26095e-33
6.35662e-33
1.94752e-33
-3.36567e-32
7.60132e-33
1.64784e-31
-9.04671e-32
-7.83338e-31
5.36558e-31
3.71392e-30
-2.29729e-30
-1.76287e-29
6.18433e-30
8.20951e-29
7.65749e-30
-3.59228e-28
-2.52678e-28
1.37196e-27
2.1533e-27
-3.87822e-27
-1.26287e-26
2.66136e-27
5.38177e-26
5.44948e-26
-1.40074e-25
-4.01848e-25
-5.1006e-26
1.4238e-24
2.47161e-24
-1.00855e-24
-1.05877e-23
-1.57956e-23
6.64854e-24
6.69228e-23
1.14096e-22
1.88552e-23
-3.31844e-22
-8.06186e-22
-8.07265e-22
6.24986e-22
4.0841e-21
8.45609e-21
9.53473e-21
-3.97185e-22
-3.10893e-20
-9.07912e-20
-1.81716e-19
-2.96512e-19
-4.17826e-19
-5.21935e-19
-5.85606e-19
-5.93626e-19
-5.43969e-19
-4.48395e-19
-3.28312e-19
-2.07747e-19
-1.06306e-19
-3.46901e-20
5.78731e-21
2.23293e-20
1.85504e-20
-2.65546e-46
-2.26379e-46
-2.66568e-46
-1.11935e-46
-2.87367e-46
-1.5715e-46
6.37997e-46
-2.78807e-45
5.15261e-45
-6.69504e-46
-3.64077e-44
1.45783e-43
-2.83668e-43
-2.88109e-44
2.22499e-42
-7.81904e-42
1.13393e-41
1.68934e-41
-1.33882e-40
3.0606e-40
-2.85014e-41
-1.93682e-39
5.5845e-39
-2.50669e-39
-2.88514e-38
8.58742e-38
-2.20029e-38
-4.72221e-37
1.11991e-36
5.75248e-37
-7.61959e-36
1.00804e-35
2.68582e-35
-9.82714e-35
-8.86531e-36
5.53686e-34
-6.28456e-34
-2.28273e-33
5.66559e-33
6.87074e-33
-3.50969e-32
-1.05512e-32
1.853e-31
-4.11446e-32
-9.06273e-31
4.86178e-31
4.30677e-30
-2.85644e-30
-2.04058e-29
1.20056e-29
9.66634e-29
-3.03634e-29
-4.48212e-28
-6.04957e-29
1.94645e-27
1.46425e-27
-7.33651e-27
-1.20232e-26
2.01379e-26
6.90209e-26
-9.61302e-27
-2.87688e-25
-3.10975e-25
7.1794e-25
2.17904e-24
4.52002e-25
-7.41386e-24
-1.35552e-23
3.95495e-24
5.50191e-23
8.65622e-23
-2.50961e-23
-3.42193e-22
-6.11508e-22
-1.59134e-22
1.6374e-21
4.16537e-21
4.39754e-21
-2.65778e-21
-2.02604e-20
-4.30221e-20
-4.96623e-20
-6.6867e-22
1.54245e-19
4.57977e-19
9.22537e-19
1.51062e-18
2.13317e-18
2.66802e-18
2.99531e-18
3.03654e-18
2.78128e-18
2.29026e-18
1.67393e-18
1.05604e-18
5.37274e-19
1.72213e-19
-3.29617e-20
-1.15734e-19
-9.47535e-20
1.49487e-45
1.27435e-45
1.49916e-45
6.3706e-46
1.58062e-45
1.03674e-45
-4.14805e-45
1.7445e-44
-3.36458e-44
1.32692e-44
1.94599e-43
-8.43207e-43
1.77137e-42
-4.20626e-43
-1.13548e-41
4.34078e-41
-6.94858e-41
-7.02355e-41
7.03247e-40
-1.71448e-39
4.59962e-40
9.9076e-39
-3.03368e-38
1.7183e-38
1.47082e-37
-4.61794e-37
1.62726e-37
2.43458e-36
-6.02571e-36
-2.51894e-36
3.97873e-35
-5.49105e-35
-1.36693e-34
5.18009e-34
2.43135e-35
-2.88251e-33
3.35741e-33
1.17952e-32
-2.96969e-32
-3.53156e-32
1.82733e-31
5.40926e-32
-9.61936e-31
2.08185e-31
4.69956e-30
-2.4498e-30
-2.23251e-29
1.42445e-29
1.05695e-28
-5.85474e-29
-4.99495e-28
1.36189e-28
2.30462e-27
4.19655e-28
-9.92166e-27
-8.01669e-27
3.68295e-26
6.33343e-26
-9.75822e-26
-3.55139e-25
2.14374e-26
1.44341e-24
1.67372e-24
-3.42409e-24
-1.11079e-23
-3.2929e-24
3.60581e-23
6.99221e-23
-1.17064e-23
-2.66936e-22
-4.45806e-22
6.75203e-23
1.62836e-21
3.07219e-21
1.11647e-21
-7.45675e-21
-2.00733e-20
-2.24445e-20
9.68653e-21
9.31068e-20
2.03804e-19
2.41486e-19
1.73007e-20
-7.11151e-19
-2.15258e-18
-4.36813e-18
-7.18141e-18
-1.01655e-17
-1.27324e-17
-1.43043e-17
-1.45023e-17
-1.32763e-17
-1.09196e-17
-7.96487e-18
-5.00764e-18
-2.5309e-18
-7.94474e-19
1.75128e-19
5.60411e-19
4.51435e-19
-7.91912e-45
-6.74928e-45
-7.93684e-45
-3.39782e-45
-8.21848e-45
-6.16639e-45
2.45656e-44
-1.00831e-43
2.01202e-43
-1.18899e-43
-9.72937e-43
4.5612e-42
-1.02217e-41
5.12252e-42
5.41617e-41
-2.26293e-40
3.95032e-40
2.48579e-40
-3.46816e-39
9.01903e-39
-3.89997e-39
-4.7486e-38
1.54948e-37
-1.05811e-37
-7.02518e-37
2.33505e-36
-1.0487e-36
-1.17782e-35
3.04846e-35
9.83252e-36
-1.95171e-34
2.81126e-34
6.52225e-34
-2.56604e-33
-7.10059e-36
1.40954e-32
-1.68485e-32
-5.72345e-32
1.46181e-31
1.70526e-31
-8.93261e-31
-2.61605e-31
4.68798e-30
-9.77591e-31
-2.28778e-29
1.15043e-29
1.08637e-28
-6.61158e-29
-5.1383e-28
2.64305e-28
2.42149e-27
-5.45661e-28
-1.11083e-26
-2.62106e-27
4.73423e-26
4.13032e-26
-1.72602e-25
-3.13397e-25
4.37813e-25
1.71215e-24
4.75795e-26
-6.75897e-24
-8.45962e-24
1.50571e-23
5.29555e-23
2.09833e-23
-1.62592e-22
-3.3751e-22
1.10922e-23
1.20002e-21
2.14612e-21
-7.04479e-24
-7.14703e-21
-1.43787e-20
-6.86261e-21
3.09318e-20
8.95161e-20
1.0665e-19
-2.70713e-20
-3.92234e-19
-8.91561e-19
-1.08821e-18
-1.45604e-19
3.0209e-18
9.35524e-18
1.91481e-17
3.16278e-17
4.48962e-17
5.63262e-17
6.33309e-17
6.42131e-17
5.87492e-17
4.82547e-17
3.51145e-17
2.19893e-17
1.10282e-17
3.37692e-18
-8.63012e-19
-2.51753e-18
-1.99115e-18
3.92799e-44
3.34618e-44
3.93567e-44
1.68982e-44
4.01999e-44
3.32966e-44
-1.33018e-43
5.37952e-43
-1.1047e-42
8.23978e-43
4.5216e-42
-2.29731e-41
5.44623e-41
-3.89061e-41
-2.39822e-40
1.10219e-39
-2.0793e-39
-6.57242e-40
1.59696e-38
-4.43357e-38
2.60461e-38
2.11976e-37
-7.40302e-37
5.91445e-37
3.1253e-36
-1.10454e-35
6.04046e-36
5.31752e-35
-1.44273e-34
-3.2721e-35
8.94651e-34
-1.3459e-33
-2.90125e-33
1.18833e-32
-5.04218e-34
-6.44005e-32
7.9006e-32
2.59429e-31
-6.72156e-31
-7.69598e-31
4.07772e-30
1.189e-30
-2.13332e-29
4.21881e-30
1.03991e-28
-4.99523e-29
-4.93588e-28
2.83227e-28
2.33182e-27
-1.09227e-27
-1.09524e-26
1.8693e-27
4.99031e-26
1.48914e-26
-2.10161e-25
-1.99286e-25
7.49811e-25
1.44907e-24
-1.79903e-24
-7.68818e-24
-9.82168e-25
2.93255e-23
3.9942e-23
-6.0245e-23
-2.34549e-22
-1.19672e-22
6.72864e-22
1.51466e-21
1.74361e-22
-4.94685e-21
-9.59122e-21
-1.51548e-21
2.85649e-20
6.21843e-20
3.76663e-20
-1.14458e-19
-3.65384e-19
-4.67873e-19
3.18739e-20
1.49174e-18
3.56091e-18
4.49981e-18
9.06359e-19
-1.16844e-17
-3.72079e-17
-7.69446e-17
-1.27803e-16
-1.82028e-16
-2.28821e-16
-2.57524e-16
-2.61138e-16
-2.38746e-16
-1.9578e-16
-1.42068e-16
-8.85441e-17
-4.39998e-17
-1.3069e-17
3.91418e-18
1.03947e-17
8.04911e-18
-1.81267e-43
-1.54307e-43
-1.81636e-43
-7.78508e-44
-1.83854e-43
-1.63277e-43
6.58002e-43
-2.64047e-42
5.56219e-42
-4.86259e-42
-1.9371e-41
1.071e-40
-2.67049e-40
2.38458e-40
9.76753e-40
-4.98324e-39
1.00925e-38
5.22709e-40
-6.81726e-38
2.02395e-37
-1.4887e-37
-8.745e-37
3.28725e-36
-3.00945e-36
-1.28505e-35
4.856e-35
-3.13909e-35
-2.22452e-34
6.34626e-34
8.26067e-35
-3.80656e-33
5.98719e-33
1.19441e-32
-5.11087e-32
4.545e-33
2.73081e-31
-3.4389e-31
-1.09111e-30
2.86748e-30
3.22533e-30
-1.72649e-29
-5.05408e-30
9.00292e-29
-1.64994e-29
-4.38356e-28
1.98402e-28
2.07961e-27
-1.10679e-27
-9.8102e-27
4.06373e-27
4.5892e-26
-4.88699e-27
-2.07408e-25
-7.71929e-26
8.61016e-25
8.95042e-25
-2.9908e-24
-6.21895e-24
6.66133e-24
3.19088e-23
7.7666e-24
-1.16752e-22
-1.74986e-22
2.1476e-22
9.56827e-22
6.15937e-22
-2.51791e-21
-6.26647e-21
-1.7646e-21
1.84143e-20
3.94309e-20
1.33242e-20
-1.01903e-19
-2.45717e-19
-1.85606e-19
3.63632e-19
1.34309e-18
1.87293e-18
2.44581e-19
-4.99744e-18
-1.27686e-17
-1.68344e-17
-4.66483e-18
4.04389e-17
1.33427e-16
2.79475e-16
4.67414e-16
6.68491e-16
8.42388e-16
9.49178e-16
9.62619e-16
8.79293e-16
7.19604e-16
5.20376e-16
3.22433e-16
1.58407e-16
4.52521e-17
-1.61643e-17
-3.89327e-17
-2.93944e-17
7.7181e-43
6.5636e-43
7.73745e-43
3.29359e-43
7.79988e-43
7.23744e-43
-2.95954e-42
1.18525e-41
-2.55671e-41
2.5199e-41
7.56214e-41
-4.5844e-40
1.19796e-39
-1.25522e-39
-3.6118e-39
2.07357e-38
-4.48845e-38
7.97429e-39
2.67237e-37
-8.51003e-37
7.48113e-37
3.29889e-36
-1.34512e-35
1.39106e-35
4.83265e-35
-1.96736e-34
1.47374e-34
8.54127e-34
-2.57277e-33
-8.10546e-35
1.48994e-32
-2.45428e-32
-4.5066e-32
2.0237e-31
-2.77787e-32
-1.06517e-30
1.37743e-30
4.22018e-30
-1.12486e-29
-1.24447e-29
6.71886e-29
1.996e-29
-3.49165e-28
5.72145e-29
1.69816e-27
-7.09699e-28
-8.05175e-27
3.87753e-27
3.79134e-26
-1.32355e-26
-1.76478e-25
5.20092e-27
7.89675e-25
3.64476e-25
-3.22026e-24
-3.71259e-24
1.08077e-23
2.45556e-23
-2.16348e-23
-1.21145e-22
-4.61556e-23
4.20656e-22
7.05091e-22
-6.56446e-22
-3.55216e-21
-2.86255e-21
8.31877e-21
2.36226e-20
1.12252e-20
-6.03677e-20
-1.47221e-19
-8.03929e-20
3.13122e-19
8.72374e-19
8.18873e-19
-9.07195e-19
-4.32822e-18
-6.72189e-18
-2.36436e-18
1.40857e-17
3.99901e-17
5.57399e-17
2.03997e-17
-1.21714e-16
-4.21462e-16
-8.97793e-16
-1.51514e-15
-2.17868e-15
-2.75415e-15
-3.10808e-15
-3.15259e-15
-2.87635e-15
-2.34783e-15
-1.69017e-15
-1.03931e-15
-5.03008e-16
-1.36222e-16
5.98225e-17
1.29654e-16
9.48183e-17
-2.99771e-42
-2.54584e-42
-3.00803e-42
-1.26391e-42
-3.03666e-42
-2.87072e-42
1.19941e-41
-4.81971e-41
1.06416e-40
-1.15689e-40
-2.64401e-40
1.78133e-39
-4.87071e-39
5.78429e-39
1.18847e-38
-7.84692e-38
1.81149e-37
-6.94861e-38
-9.48943e-37
3.25848e-36
-3.32887e-36
-1.12036e-35
5.01271e-35
-5.80305e-35
-1.63694e-34
7.25857e-34
-6.22254e-34
-2.96934e-33
9.50084e-33
-6.77334e-34
-5.29802e-32
9.16586e-32
1.53657e-31
-7.28849e-31
1.37433e-31
3.77451e-30
-5.01679e-30
-1.48238e-29
4.00744e-29
4.36749e-29
-2.37319e-28
-7.25426e-29
1.22885e-27
-1.69229e-28
-5.96978e-27
2.2306e-27
2.82877e-26
-1.1835e-26
-1.32888e-25
3.5693e-26
6.14675e-25
4.04773e-26
-2.71588e-24
-1.55839e-24
1.08228e-23
1.40722e-23
-3.46651e-23
-8.81241e-23
5.84476e-23
4.14549e-22
2.28642e-22
-1.34263e-21
-2.5815e-21
1.57415e-21
1.17881e-20
1.19507e-20
-2.32017e-20
-7.9748e-20
-5.67871e-20
1.66158e-19
4.89554e-19
3.92285e-19
-7.65394e-19
-2.70674e-18
-3.20161e-18
1.2379e-18
1.1602e-17
2.09956e-17
1.29348e-17
-2.98626e-17
-1.03751e-16
-1.57087e-16
-7.54501e-17
3.0155e-16
1.12458e-15
2.45513e-15
4.19754e-15
6.0827e-15
7.72432e-15
8.73606e-15
8.86312e-15
8.07307e-15
6.5651e-15
4.69581e-15
2.85618e-15
1.35268e-15
3.37243e-16
-1.93365e-16
-3.70926e-16
-2.59561e-16
1.04446e-41
8.85395e-42
1.04966e-41
4.3187e-42
1.06824e-41
1.00063e-41
-4.31287e-41
1.74919e-40
-3.95733e-40
4.69092e-40
8.04469e-40
-6.17576e-39
1.76886e-38
-2.33579e-38
-3.35982e-38
2.65276e-37
-6.53747e-37
3.77186e-37
2.98841e-36
-1.11728e-35
1.30583e-35
3.34049e-35
-1.6717e-34
2.1588e-34
4.87254e-34
-2.39624e-33
2.33817e-33
9.15088e-33
-3.14114e-32
5.73174e-33
1.67917e-31
-3.06721e-31
-4.63048e-31
2.34484e-30
-5.75106e-31
-1.19247e-29
1.63253e-29
4.63943e-29
-1.27275e-28
-1.36865e-28
7.46513e-28
2.39021e-28
-3.85045e-27
3.91801e-28
1.86851e-26
-5.88898e-27
-8.84763e-26
2.97619e-26
4.14365e-25
-6.82757e-26
-1.90075e-24
-3.6033e-25
8.25771e-24
5.9692e-24
-3.18785e-23
-4.79992e-23
9.52617e-23
2.82281e-22
-1.13747e-22
-1.24932e-21
-9.70692e-22
3.65635e-21
8.43444e-21
-2.07304e-21
-3.39493e-20
-4.43099e-20
4.8923e-20
2.3436e-19
2.40779e-19
-3.39878e-19
-1.40224e-18
-1.6085e-18
1.11655e-18
6.95108e-18
1.08649e-17
3.0782e-18
-2.24639e-17
-5.37359e-17
-5.28024e-17
2.76091e-17
1.94213e-16
3.45439e-16
2.28073e-16
-5.32119e-16
-2.30313e-15
-5.25553e-15
-9.19226e-15
-1.34999e-14
-1.7277e-14
-1.9613e-14
-1.99055e-14
-1.80795e-14
-1.46088e-14
-1.03343e-14
-6.16789e-15
-2.81059e-15
-5.92508e-16
5.20065e-16
8.48173e-16
5.51175e-16
-3.17739e-41
-2.68664e-41
-3.20094e-41
-1.27389e-41
-3.31389e-41
-2.96372e-41
1.33923e-40
-5.52602e-40
1.28544e-39
-1.65657e-39
-2.01186e-39
1.85618e-38
-5.59971e-38
8.16194e-38
7.56193e-38
-7.77628e-37
2.05907e-36
-1.5901e-36
-8.03901e-36
3.33763e-35
-4.44604e-35
-8.33873e-35
4.84623e-34
-7.01417e-34
-1.21688e-33
6.87426e-33
-7.66927e-33
-2.40774e-32
9.037e-32
-2.81765e-32
-4.59194e-31
8.9528e-31
1.18458e-30
-6.53847e-30
2.04947e-30
3.2532e-29
-4.61266e-29
-1.25211e-28
3.49351e-28
3.70969e-28
-2.02555e-27
-6.95585e-28
1.04009e-26
-5.19886e-28
-5.04216e-26
1.17531e-26
2.38569e-25
-5.31016e-26
-1.11255e-24
2.30801e-26
5.04348e-24
1.83433e-24
-2.13792e-23
-2.01067e-23
7.86044e-23
1.43801e-22
-2.08132e-22
-7.83241e-22
5.38011e-23
3.1818e-21
3.53204e-21
-7.82661e-21
-2.38737e-20
-4.75474e-21
8.00527e-20
1.42903e-19
-4.53205e-20
-5.67511e-19
-8.61014e-19
2.5953e-19
3.2271e-18
5.53502e-18
1.52143e-18
-1.27531e-17
-3.06925e-17
-3.08794e-17
1.13373e-17
9.46185e-17
1.63895e-16
1.19983e-16
-1.06253e-16
-4.30104e-16
-5.09582e-16
2.41274e-16
2.46389e-15
6.53208e-15
1.22381e-14
1.86735e-14
2.44181e-14
2.80023e-14
2.84465e-14
2.56365e-14
2.03532e-14
1.3956e-14
7.87884e-15
3.16878e-15
2.50005e-16
-1.03223e-15
-1.23287e-15
-6.46284e-16
8.019e-41
6.75461e-41
8.11141e-41
3.05047e-41
8.67469e-41
6.93108e-41
-3.40084e-40
1.44865e-39
-3.49539e-39
4.94101e-39
3.53115e-39
-4.56901e-38
1.47537e-37
-2.39136e-37
-1.04587e-37
1.86257e-36
-5.4069e-36
5.39714e-36
1.69987e-35
-8.23828e-35
1.27031e-34
1.5471e-34
-1.15341e-33
1.91432e-33
2.27371e-33
-1.61765e-32
2.11717e-32
4.9746e-32
-2.14053e-31
1.04266e-31
1.01281e-30
-2.16639e-30
-2.34303e-30
1.488e-29
-6.12754e-30
-7.17775e-29
1.07111e-28
2.72148e-28
-7.78971e-28
-8.13464e-28
4.4431e-27
1.69462e-27
-2.26794e-26
-7.48041e-28
1.09856e-25
-1.12372e-26
-5.19402e-25
2.15491e-26
2.4062e-24