/*--------------------------------*- C++ -*----------------------------------*\
  =========                 |
  \\      /  F ield         | OpenFOAM: The Open Source CFD Toolbox
   \\    /   O peration     | Website:  https://openfoam.org
    \\  /    A nd           | Version:  6
     \\/     M anipulation  |
\*---------------------------------------------------------------------------*/
FoamFile
{
    version     2.0;
    format      ascii;
    class       surfaceScalarField;
    location    "38.4";
    object      phi;
}
// * * * * * * * * * * * * * * * * * * * * * * * * * * * * * * * * * * * * * //

dimensions      [0 3 -1 0 0 0 0];

internalField   nonuniform List<scalar> 
17370
(
-0.0900015
0.0898506
0.289162
-0.0714644
0.0537545
0.364485
-0.0381214
0.0276922
0.426597
-0.0196391
0.0146039
0.504287
-0.0107587
0.00826511
0.601896
-0.00626359
0.00488928
0.720432
-0.0037332
0.00290296
0.863737
-0.00217299
0.00162187
1.036
-0.00111038
0.000700016
1.24291
-0.000293784
-9.53044e-05
1.49158
0.000471151
-0.000875814
1.4916
0.00127058
-0.00176117
1.24318
0.00229529
-0.00301118
1.03635
0.00383349
-0.00498442
0.864057
0.00635402
-0.00834869
0.721052
0.0108348
-0.0146721
0.603052
0.0197007
-0.0277473
0.507486
0.0381709
-0.0537963
0.431793
0.0714981
-0.0898728
0.36515
0.0900142
0.198997
-0.12813
0.0882155
0.0399142
-0.364592
0.353365
-0.0746854
0.0859123
-0.446473
0.454311
-0.0844138
0.0765758
-0.521186
0.529894
-0.0684816
0.059774
-0.612782
0.62156
-0.0515875
0.0428094
-0.726887
0.734151
-0.0353508
0.0280874
-0.86747
0.872566
-0.0224981
0.0174024
-1.03847
1.0419
-0.0136112
0.0101779
-1.24459
1.24702
-0.00757559
0.0051486
-1.49263
1.4946
-0.00320776
0.00124174
-1.4925
1.49421
0.00043316
-0.00214669
-1.24398
1.24586
0.00404455
-0.00592784
-1.03751
1.04005
0.00829217
-0.0108368
-0.866101
0.869848
0.0142121
-0.0179586
-0.724395
0.729948
0.0230131
-0.0285659
-0.608705
0.616123
0.0357876
-0.0432056
-0.514905
0.523053
0.0519391
-0.0600872
-0.439861
0.447925
0.0687557
-0.0768196
-0.375301
0.376752
0.0846256
-0.0860773
-0.257339
0.2225
0.074798
-0.0399585
-0.0684992
0.0586682
0.00983105
-0.0518454
0.0584408
-0.374107
0.367512
-0.0575331
0.0537869
-0.45358
0.457327
-0.0486998
0.0447498
-0.527927
0.531877
-0.0409111
0.0372737
-0.62154
0.625177
-0.033177
0.0291148
-0.735325
0.739387
-0.0245705
0.0204398
-0.874317
0.878448
-0.0161266
0.0124574
-1.04346
1.04713
-0.00874416
0.00558599
-1.24854
1.2517
-0.00226766
-0.000808897
-1.49665
1.49973
0.00386001
-0.00711655
-1.49721
1.50047
0.0101907
-0.0137947
-1.25009
1.25369
0.0173618
-0.0215682
-1.04594
1.05015
0.0256121
-0.0300728
-0.877783
0.882244
0.0340632
-0.038081
-0.739924
0.743942
0.0416455
-0.0454054
-0.626799
0.630559
0.0492889
-0.0543133
-0.534832
0.539856
0.0579958
-0.0588232
-0.457496
0.458324
0.0521378
-0.0319615
-0.335788
0.315612
0.00987957
-0.0683719
0.0584923
-0.0529104
0.0489086
0.00400178
-0.0332071
0.0437725
-0.35806
0.347495
-0.0474871
0.046871
-0.459252
0.459868
-0.043824
0.0404773
-0.535766
0.539113
-0.0367118
0.0334179
-0.628487
0.631781
-0.0299989
0.0269921
-0.742604
0.745611
-0.0237655
0.0206843
-0.881961
0.885042
-0.0171757
0.013813
-1.05071
1.05407
-0.0100423
0.00652662
-1.25512
1.25863
-0.00258984
-0.00117788
-1.50322
1.50699
0.00491967
-0.00878149
-1.50414
1.508
0.0121913
-0.015819
-1.25745
1.26107
0.0190377
-0.0223886
-1.05396
1.05731
0.0253388
-0.0284392
-0.885745
0.888846
0.0313403
-0.034647
-0.747218
0.750525
0.0378377
-0.0414925
-0.634366
0.638021
0.0447448
-0.0476874
-0.544184
0.547127
0.0481969
-0.0443341
-0.456633
0.45277
0.0335947
-0.0161837
-0.296282
0.278871
0.00406053
-0.0526838
0.0486232
-0.0458226
0.0433202
0.00250243
-0.0228581
0.0332632
-0.336778
0.326373
-0.0391073
0.0401393
-0.459531
0.458499
-0.0389627
0.0366861
-0.541806
0.544083
-0.0340295
0.0314461
-0.634801
0.637384
-0.0284036
0.0255332
-0.74864
0.751511
-0.0223115
0.0193606
-0.887992
0.890943
-0.0161031
0.0130434
-1.05719
1.06025
-0.00955681
0.00617888
-1.26207
1.26545
-0.00224161
-0.00162416
-1.51085
1.51471
0.0054566
-0.00928891
-1.51189
1.51573
0.0125242
-0.0158179
-1.26453
1.26783
0.0186839
-0.021729
-1.06043
1.06348
0.0244991
-0.0275434
-0.891916
0.894961
0.0302668
-0.0331566
-0.753744
0.756633
0.0356021
-0.0381121
-0.641104
0.643614
0.0402636
-0.0412804
-0.548952
0.549969
0.040086
-0.0340082
-0.447526
0.441448
0.0233513
-0.0101872
-0.2637
0.250536
0.00257424
-0.0454744
0.0429001
-0.0412361
0.0394605
0.00177561
-0.0168075
0.0260938
-0.316485
0.307199
-0.0327353
0.0348999
-0.456873
0.454709
-0.0344965
0.0328369
-0.54604
0.5477
-0.030665
0.0285841
-0.639665
0.641746
-0.0261812
0.023824
-0.754133
0.75649
-0.0210209
0.0182819
-0.893804
0.896543
-0.0150974
0.0120735
-1.06325
1.06627
-0.00863113
0.00535037
-1.26874
1.27202
-0.00155995
-0.00213954
-1.51849
1.52219
0.00579311
-0.0094473
-1.51947
1.52313
0.0125479
-0.0157479
-1.27108
1.27428
0.0185269
-0.0214344
-1.0665
1.06941
0.0239325
-0.0264967
-0.897789
0.900353
0.0286583
-0.0308637
-0.75911
0.761315
0.0327718
-0.0347596
-0.645806
0.647794
0.0362413
-0.0364289
-0.550526
0.550714
0.034018
-0.0270394
-0.434841
0.427863
0.0174179
-0.00734494
-0.239068
0.228995
0.00186275
-0.040739
0.0388763
-0.037929
0.0365908
0.00133819
-0.0128502
0.0208334
-0.298567
0.290584
-0.0276252
0.0305823
-0.452108
0.449151
-0.0308212
0.0297355
-0.549091
0.550177
-0.0277782
0.0259001
-0.643739
0.645617
-0.0237484
0.0216595
-0.758699
0.760787
-0.0191985
0.016761
-0.899092
0.90153
-0.013867
0.0110363
-1.06918
1.07201
-0.00773104
0.00454205
-1.27523
1.27842
-0.000843587
-0.00275151
-1.5258
1.5294
0.00628864
-0.00981609
-1.52672
1.53025
0.0127741
-0.015769
-1.27744
1.28043
0.0182882
-0.0208325
-1.07218
1.07472
0.0229655
-0.0251243
-0.902675
0.904833
0.0269663
-0.0288685
-0.763318
0.76522
0.0305288
-0.0322639
-0.649637
0.651372
0.0330959
-0.0325623
-0.550546
0.550012
0.0292576
-0.0220087
-0.420693
0.413444
0.0135981
-0.0056626
-0.220095
0.212159
0.00144397
-0.037251
0.035807
-0.0354201
0.0343861
0.00103393
-0.0100552
0.0168093
-0.28324
0.276486
-0.0233391
0.0267496
-0.445944
0.442534
-0.0275594
0.0268793
-0.551042
0.551723
-0.0251384
0.023379
-0.64747
0.64923
-0.0213577
0.0194069
-0.762818
0.764768
-0.0171241
0.014883
-0.903805
0.906046
-0.012236
0.00962809
-1.07464
1.07725
-0.00654844
0.00352708
-1.28149
1.28451
2.30925e-05
-0.00349056
-1.53293
1.5364
0.00688662
-0.0102227
-1.53371
1.53704
0.0129548
-0.0156524
-1.28331
1.286
0.0178769
-0.0200899
-1.07709
1.0793
0.0219478
-0.0238441
-0.906831
0.908727
0.0254782
-0.0271878
-0.767
0.768709
0.0286853
-0.0301346
-0.652993
0.654443
0.0305006
-0.0292747
-0.549153
0.547927
0.0253861
-0.0182573
-0.406237
0.399108
0.0109686
-0.00453734
-0.205049
0.198618
0.00116236
-0.0345227
0.0333604
-0.0334771
0.0326696
0.000807508
-0.00797733
0.0136563
-0.270296
0.264617
-0.0197045
0.0233277
-0.439001
0.435378
-0.0246465
0.0242499
-0.552291
0.552688
-0.0228192
0.021204
-0.650968
0.652583
-0.0193
0.0174346
-0.766686
0.768551
-0.0152228
0.0130402
-0.908197
0.910379
-0.010473
0.00796944
-1.07974
1.08224
-0.00504462
0.00219719
-1.28739
1.29024
0.00113068
-0.00436972
-1.53972
1.54296
0.00752367
-0.0105954
-1.54025
1.54332
0.0130985
-0.0155631
-1.28862
1.29108
0.0176039
-0.019646
-1.08145
1.08349
0.021356
-0.0230765
-0.910536
0.912257
0.0245333
-0.0260391
-0.770298
0.771804
0.0273204
-0.0283703
-0.655674
0.656724
0.0283593
-0.0264846
-0.54639
0.544515
0.0222356
-0.0154276
-0.39214
0.385332
0.009089
-0.00374356
-0.192783
0.187437
0.000962771
-0.0323127
0.0313499
-0.0319605
0.0313296
0.000630835
-0.00636515
0.01112
-0.259429
0.254674
-0.016569
0.0201833
-0.431757
0.428143
-0.0218159
0.0216392
-0.552996
0.553173
-0.0204389
0.0188851
-0.654198
0.655752
-0.0170527
0.0152668
-0.770387
0.772173
-0.013164
0.011094
-0.912444
0.914514
-0.0086543
0.00626979
-1.0846
1.08699
-0.00347851
0.000759915
-1.29297
1.29569
0.00240659
-0.00547053
-1.54609
1.54915
0.00842741
-0.0112712
-1.54629
1.54913
0.013559
-0.0157761
-1.29345
1.29567
0.0175815
-0.0193603
-1.08544
1.08721
0.0208378
-0.0223343
-0.913878
0.915375
0.0236228
-0.0249704
-0.773204
0.774552
0.0261342
-0.0268204
-0.657574
0.658261
0.0264639
-0.0240938
-0.542406
0.540036
0.0196726
-0.0132764
-0.378741
0.372344
0.00771491
-0.00317042
-0.182533
0.177988
0.00081907
-0.0304712
0.0296522
-0.0307796
0.030291
0.000488606
-0.005064
0.00902008
-0.250346
0.24639
-0.0138324
0.0173088
-0.424612
0.421135
-0.0191458
0.0191763
-0.553303
0.553273
-0.0181795
0.0166649
-0.657362
0.658876
-0.014863
0.0131042
-0.773934
0.775693
-0.0110387
0.00901626
-0.916452
0.918475
-0.00664301
0.00433282
-1.08924
1.09155
-0.00164329
-0.000950066
-1.29828
1.30088
0.00393705
-0.00679019
-1.55208
1.55493
0.00951478
-0.0121166
-1.55187
1.55447
0.0141949
-0.0161996
-1.29782
1.29982
0.01782
-0.0194006
-1.08891
1.09049
0.0207016
-0.0220142
-0.916768
0.91808
0.0231433
-0.0243262
-0.775809
0.776992
0.0253147
-0.0256598
-0.658761
0.659106
0.0249529
-0.0221598
-0.537486
0.534693
0.0176557
-0.0116641
-0.366172
0.360181
0.00671678
-0.00276286
-0.173775
0.169821
0.00071963
-0.0288972
0.0281776
-0.0298726
0.0295061
0.000366459
-0.00395994
0.00720277
-0.242819
0.239576
-0.011348
0.0145578
-0.417813
0.414604
-0.0164701
0.0167005
-0.553193
0.552963
-0.0158491
0.0144721
-0.660388
0.661765
-0.012711
0.010953
-0.777438
0.779196
-0.00886879
0.00683337
-0.920402
0.922437
-0.00447097
0.00220439
-1.09374
1.096
0.000401374
-0.00288849
-1.30334
1.30583
0.00573274
-0.00842628
-1.55765
1.56035
0.0109608
-0.013327
-1.55695
1.55931
0.0151718
-0.0169239
-1.30175
1.3035
0.0183324
-0.0197079
-1.09202
1.09339
0.0208443
-0.0219895
-0.919345
0.92049
0.0229731
-0.0239843
-0.778072
0.779083
0.0247038
-0.0247561
-0.659286
0.659339
0.023659
-0.0205266
-0.53175
0.528618
0.0160277
-0.0104282
-0.354416
0.348816
0.00597341
-0.00246411
-0.166125
0.162616
0.000647455
-0.0275085
0.026861
-0.0292031
0.0289463
0.000256736
-0.00298161
0.00557465
-0.236685
0.234092
-0.00905073
0.0119027
-0.411611
0.408759
-0.0137419
0.0140377
-0.552777
0.552481
-0.0132177
0.0118815
-0.663195
0.664531
-0.0101182
0.00836522
-0.780912
0.782665
-0.00630907
0.00431694
-0.924321
0.926313
-0.00201212
-0.000198022
-1.09813
1.10034
0.00273723
-0.00515346
-1.30821
1.31062
0.00788688
-0.0104293
-1.56293
1.56547
0.0127829
-0.0149435
-1.56158
1.56374
0.0165925
-0.0181117
-1.30518
1.3067
0.019295
-0.0204185
-1.09469
1.09582
0.0213245
-0.0222331
-0.921546
0.922454
0.0230151
-0.0238204
-0.779963
0.780768
0.0243064
-0.0241013
-0.659235
0.65903
0.0226478
-0.0192471
-0.525387
0.521986
0.0147853
-0.00952061
-0.343423
0.338158
0.00544493
-0.00226014
-0.159304
0.156119
0.000601409
-0.0262527
0.0256513
-0.0287486
0.0285987
0.000149981
-0.00205647
0.00402736
-0.231835
0.229864
-0.00681758
0.0092444
-0.406162
0.403735
-0.0109341
0.0112653
-0.552268
0.551937
-0.0104964
0.00919536
-0.665952
0.667253
-0.00740721
0.00561039
-0.784388
0.786185
-0.00350853
0.00148225
-0.928169
0.930196
0.000849771
-0.00307127
-1.10243
1.10465
0.00558863
-0.00793868
-1.31292
1.31527
0.0105296
-0.0128758
-1.56786
1.5702
0.0149882
-0.0168824
-1.56576
1.56765
0.0182864
-0.0195399
-1.30814
1.30939
0.0204964
-0.0213847
-1.09685
1.09773
0.0220936
-0.0228011
-0.923286
0.923994
0.0234177
-0.0240485
-0.781514
0.782145
0.0242208
-0.0237458
-0.658621
0.658146
0.0219567
-0.0182953
-0.518511
0.514849
0.0138624
-0.00886831
-0.333083
0.328088
0.00507983
-0.00212762
-0.153091
0.150139
0.000574821
-0.0250831
0.0245083
-0.0285052
0.0284626
4.25875e-05
-0.00113787
0.00248852
-0.228225
0.226874
-0.00456174
0.00648106
-0.401607
0.399688
-0.00790614
0.00820162
-0.55174
0.551445
-0.00747642
0.00622752
-0.668634
0.669883
-0.00443044
0.00258256
-0.787936
0.789784
-0.000392334
-0.00171673
-0.932104
0.934213
0.00411885
-0.00636598
-1.10675
1.109
0.00887098
-0.011173
-1.3175
1.3198
0.0136841
-0.0159141
-1.57243
1.57466
0.0178631
-0.0195105
-1.56941
1.57105
0.0206676
-0.0216529
-1.31058
1.31157
0.0223637
-0.0229937
-1.09856
1.09919
0.0234629
-0.023906
-0.924622
0.925065
0.0242799
-0.0246455
-0.782614
0.782979
0.024492
-0.0236437
-0.65736
0.656511
0.0214721
-0.0175728
-0.511137
0.507237
0.0131785
-0.00840899
-0.323273
0.318503
0.00483808
-0.00204922
-0.147314
0.144525
0.000563051
-0.0239604
0.0233974
-0.0284777
0.0285457
-6.80555e-05
-0.000176673
0.00089702
-0.225857
0.225136
-0.00222461
0.0035657
-0.398118
0.396777
-0.00459646
0.00472193
-0.551388
0.551262
-0.00391665
0.00260526
-0.67127
0.672582
-0.000729612
-0.00119798
-0.791574
0.793502
0.00345885
-0.0056117
-0.936169
0.938321
0.00804638
-0.0103175
-1.11111
1.11338
0.0128355
-0.0151177
-1.32199
1.32427
0.0175436
-0.0196249
-1.57675
1.57883
0.0213445
-0.0227229
-1.57255
1.57393
0.0235966
-0.0242469
-1.31243
1.31308
0.0246478
-0.0249262
-1.09971
1.09999
0.0250861
-0.0252293
-0.925435
0.925578
0.025393
-0.0254935
-0.783103
0.783203
0.0250964
-0.0238089
-0.655306
0.654019
0.0212919
-0.0171813
-0.503356
0.499246
0.0127961
-0.00817002
-0.3139
0.309274
0.00473271
-0.00203021
-0.141836
0.139134
0.000567148
-0.022858
0.0222909
-0.0286789
0.0288852
-0.000206367
0.000813393
-0.000792127
-0.224757
0.224735
0.000273017
0.000422935
-0.39582
0.395124
-0.000980442
0.000870197
-0.551465
0.551576
6.80746e-05
-0.00149113
-0.674105
0.675528
0.00347802
-0.00551024
-0.795364
0.797396
0.00788152
-0.0101358
-0.940301
0.942555
0.0126826
-0.015042
-1.11552
1.11788
0.0176209
-0.0199118
-1.32644
1.32873
0.0222682
-0.0241924
-1.58076
1.58268
0.0256894
-0.0267722
-1.57514
1.57622
0.0273519
-0.027644
-1.31361
1.31391
0.0277069
-0.0276281
-1.10014
1.10006
0.0274695
-0.0272845
-0.925613
0.925428
0.027152
-0.026894
-0.782962
0.782704
0.0261913
-0.024424
-0.652468
0.6507
0.0215147
-0.0171305
-0.495159
0.490775
0.0126944
-0.00813397
-0.304787
0.300227
0.00475496
-0.00206929
-0.136502
0.133817
0.000588518
-0.021741
0.0211525
-0.029156
0.0294955
-0.000339463
0.00191788
-0.00256776
-0.225007
0.225657
0.00294988
-0.00301552
-0.394853
0.394919
0.00306051
-0.00347512
-0.552103
0.552518
0.00451543
-0.00602356
-0.677168
0.678676
0.00814226
-0.0103499
-0.799374
0.801582
0.0129615
-0.0154428
-0.94469
0.947171
0.0182147
-0.0207365
-1.12013
1.12266
0.0234279
-0.0257493
-1.3309
1.33323
0.02805
-0.0298156
-1.58443
1.58619
0.0310606
-0.0317869
-1.57709
1.57782
0.0320298
-0.031942
-1.31406
1.31398
0.0316599
-0.0312227
-1.09983
1.0994
0.0307499
-0.0302019
-0.925073
0.924524
0.0297048
-0.02897
-0.782022
0.781287
0.0278108
-0.0254474
-0.648723
0.64636
0.0220921
-0.0174135
-0.486441
0.481762
0.0128813
-0.00830037
-0.295791
0.29121
0.00489807
-0.00215917
-0.131181
0.128442
0.000623229
-0.0205787
0.0199555
-0.0299193
0.0304382
-0.000518931
0.00318171
-0.0046172
-0.226718
0.228154
0.00593134
-0.00685141
-0.395413
0.396333
0.00766942
-0.00855339
-0.553479
0.554363
0.0098861
-0.0116061
-0.680471
0.682191
0.0139567
-0.0163887
-0.803732
0.806164
0.019246
-0.0219358
-0.949499
0.952189
0.0249133
-0.0275948
-1.12504
1.12772
0.0304256
-0.0328167
-1.33543
1.33782
0.0351062
-0.0367508
-1.58781
1.58946
0.0377455
-0.0380971
-1.57831
1.57867
0.0379439
-0.0373931
-1.31368
1.31313
0.0366762
-0.0357673
-1.09872
1.09781
0.0348816
-0.033903
-0.923712
0.922734
0.0330302
-0.0317442
-0.780071
0.778785
0.0300307
-0.0270637
-0.643859
0.640892
0.0232445
-0.0181985
-0.477163
0.472117
0.0134591
-0.00872383
-0.286719
0.281983
0.0051894
-0.00230813
-0.125724
0.122843
0.000671787
-0.0193454
0.0186736
-0.0310541
0.0317999
-0.000745792
0.00470174
-0.0070189
-0.230043
0.23236
0.0093732
-0.0111925
-0.397682
0.399502
0.012864
-0.0143383
-0.555946
0.55742
0.0161357
-0.0182084
-0.684306
0.686379
0.0209301
-0.0236862
-0.808542
0.811298
0.0268811
-0.0298651
-0.954724
0.957708
0.033145
-0.0360688
-1.13028
1.13321
0.0390928
-0.0415637
-1.34007
1.34254
0.0437829
-0.045196
-1.59088
1.59229
0.0458289
-0.0457329
-1.57874
1.57864
0.0451255
-0.0440807
-1.31232
1.31127
0.0428797
-0.0414356
-1.09658
1.09514
0.0400782
-0.0386116
-0.921412
0.919945
0.0373189
-0.0354963
-0.777014
0.775191
0.0332331
-0.0296011
-0.637842
0.63421
0.0252037
-0.0196417
-0.467138
0.461576
0.0145486
-0.00948862
-0.277291
0.272231
0.00567698
-0.00253325
-0.119943
0.1168
0.000737138
-0.0180124
0.0172753
-0.0326369
0.0336694
-0.00103243
0.00653192
-0.00987552
-0.235149
0.238493
0.0134272
-0.0162593
-0.40189
0.404722
0.0188621
-0.0209852
-0.55973
0.561853
0.0233194
-0.0258189
-0.688922
0.691422
0.0290128
-0.0322097
-0.814012
0.817209
0.0358896
-0.0392992
-0.96057
0.96398
0.043009
-0.046264
-1.13603
1.13929
0.0495576
-0.05216
-1.34487
1.34747
0.054373
-0.0556073
-1.59347
1.5947
0.0558988
-0.055309
-1.57822
1.57763
0.0541813
-0.0525218
-1.30986
1.3082
0.0507795
-0.0487632
-1.0933
1.09128
0.0468969
-0.0448937
-0.918043
0.91604
0.0430625
-0.040625
-0.772855
0.770417
0.0376858
-0.0332622
-0.630505
0.626081
0.0281746
-0.0219495
-0.456092
0.449867
0.0163188
-0.0106996
-0.267152
0.261532
0.00641659
-0.00285653
-0.113584
0.110024
0.000825011
-0.0165452
0.0157202
-0.0347756
0.0361886
-0.00141304
0.00886288
-0.0134442
-0.242283
0.246864
0.0183842
-0.0223741
-0.408293
0.412283
0.0260328
-0.0289341
-0.56505
0.567951
0.0319659
-0.0350553
-0.694501
0.69759
0.0389134
-0.0427161
-0.820385
0.824188
0.0470537
-0.0510242
-0.967304
0.971274
0.0552743
-0.0589201
-1.14246
1.1461
0.0625001
-0.0652096
-1.34992
1.35263
0.0673491
-0.0683006
-1.59566
1.59661
0.0681352
-0.0669133
-1.57665
1.57543
0.0651583
-0.06281
-1.3061
1.30376
0.0604706
-0.0578377
-1.08874
1.08611
0.0554375
-0.0528413
-0.913478
0.910882
0.0503787
-0.0472407
-0.767493
0.764355
0.0435433
-0.0382451
-0.621606
0.616308
0.0323518
-0.0252537
-0.44372
0.436621
0.0188285
-0.0123638
-0.255809
0.249344
0.00740131
-0.0032746
-0.106336
0.102209
0.000935997
-0.0148964
0.0139604
-0.0376462
0.0396064
-0.00196017
0.012077
-0.0182334
-0.251834
0.257991
0.0248142
-0.030136
-0.417324
0.422646
0.0350408
-0.0389751
-0.572305
0.576239
0.0429934
-0.046955
-0.701427
0.705388
0.0517659
-0.0563758
-0.827988
0.832598
0.0615087
-0.066106
-0.975163
0.97976
0.0709053
-0.0749043
-1.14962
1.15362
0.0786745
-0.081349
-1.35509
1.35777
0.0831912
-0.0836344
-1.59715
1.59759
0.0827822
-0.0807532
-1.5737
1.57167
0.0782582
-0.0751024
-1.30088
1.29773
0.0720438
-0.0686727
-1.08285
1.07948
0.0656747
-0.0625158
-0.907598
0.904439
0.0594088
-0.0555365
-0.760691
0.756819
0.051035
-0.0447257
-0.61097
0.604661
0.0378146
-0.0295265
-0.429575
0.421287
0.0219959
-0.0143938
-0.242707
0.235105
0.00856704
-0.00375659
-0.0979232
0.0931127
0.00106126
-0.0130255
0.0119643
-0.0415556
0.0443627
-0.00280707
0.0167878
-0.0250172
-0.264469
0.272698
0.0335921
-0.0404909
-0.429583
0.436482
0.0469119
-0.0521338
-0.582069
0.587291
0.0575173
-0.0627438
-0.71028
0.715507
0.0687676
-0.0743202
-0.837196
0.842749
0.0803106
-0.0855177
-0.984249
0.989456
0.0907839
-0.0949938
-1.1574
1.16161
0.0987362
-0.101134
-1.36005
1.36245
0.102377
-0.101999
-1.59744
1.59706
0.10018
-0.0970888
-1.56899
1.5659
0.0936531
-0.0895466
-1.29396
1.28985
0.0857092
-0.0815792
-1.0754
1.07127
0.0779672
-0.074177
-0.90045
0.89666
0.0704681
-0.0657996
-0.75231
0.747641
0.0603073
-0.0526903
-0.598244
0.590627
0.0444299
-0.0345778
-0.412997
0.403145
0.0256285
-0.0166294
-0.227312
0.218313
0.00980158
-0.00424665
-0.0881512
0.0825963
0.00118326
-0.0109122
0.00972897
-0.0470531
0.0513108
-0.00425772
0.0242257
-0.0353227
-0.281302
0.292399
0.0465256
-0.0555514
-0.446065
0.45509
0.063768
-0.0704746
-0.594904
0.60161
0.0774814
-0.0841254
-0.721617
0.728261
0.0914137
-0.0978683
-0.848229
0.854684
0.104589
-0.110218
-0.99447
1.0001
0.115677
-0.119814
-1.16544
1.16958
0.123201
-0.125029
-1.36427
1.3661
0.125382
-0.123952
-1.59593
1.5945
0.120977
-0.116635
-1.56203
1.55769
0.112109
-0.106865
-1.28501
1.27976
0.102071
-0.0970161
-1.06631
1.06125
0.0926779
-0.088135
-0.891772
0.887229
0.0837066
-0.0779782
-0.742106
0.736377
0.0712148
-0.061899
-0.582753
0.573437
0.0519396
-0.0401768
-0.393251
0.381489
0.0295177
-0.0189054
-0.209193
0.198581
0.0109869
-0.00468173
-0.0769628
0.0706576
0.00127909
-0.00857559
0.0072965
-0.0552066
0.0624951
-0.00728854
0.0375021
-0.0529526
-0.304474
0.319924
0.0679294
-0.0797623
-0.468243
0.480076
0.0898369
-0.0978921
-0.611165
0.61922
0.106421
-0.11429
-0.735468
0.743338
0.12248
-0.129359
-0.860824
0.867703
0.136216
-0.141716
-1.00529
1.01079
0.146788
-0.150325
-1.17308
1.17662
0.152825
-0.15361
-1.36712
1.36791
0.152631
-0.1498
-1.59215
1.58932
0.145373
-0.13956
-1.55249
1.54668
0.133784
-0.127295
-1.27376
1.26727
0.121428
-0.115268
-1.05521
1.04905
0.109994
-0.104443
-0.881225
0.875674
0.0990316
-0.0918194
-0.729346
0.722134
0.0834413
-0.0721113
-0.56362
0.55229
0.0600972
-0.0460431
-0.3696
0.355546
0.0334552
-0.0211264
-0.188059
0.17573
0.0120735
-0.00503347
-0.0644692
0.0574292
0.00133007
-0.00608017
0.0047501
-0.0693465
0.0733459
-0.00399937
0.0283094
-0.0417665
-0.337994
0.351451
0.0551807
-0.0659516
-0.497308
0.508079
0.0755882
-0.084678
-0.63057
0.639659
0.0950481
-0.104358
-0.75064
0.759949
0.114676
-0.123802
-0.873618
0.882744
0.133449
-0.141917
-1.01537
1.02383
0.150587
-0.15776
-1.17908
1.18626
0.164494
-0.169317
-1.36749
1.37231
0.172718
-0.173598
-1.5852
1.58608
0.171847
-0.167976
-1.53971
1.53584
0.163062
-0.156724
-1.25991
1.25357
0.150648
-0.14336
-1.04188
1.03459
0.13685
-0.12961
-0.868255
0.861016
0.122539
-0.113098
-0.713307
0.703866
0.101265
-0.0854938
-0.540123
0.524352
0.0692064
-0.0506758
-0.341139
0.322608
0.0351127
-0.0209248
-0.163796
0.149608
0.0112106
-0.00432182
-0.0510217
0.0441329
0.000988455
-0.00352828
0.00253983
-0.0806606
0.0785761
0.00208449
0.00685885
-0.0153596
-0.367685
0.376186
0.0254826
-0.0333134
-0.52339
0.531221
0.0411611
-0.0489462
-0.651334
0.659119
0.0584533
-0.0672167
-0.768864
0.777627
0.0765425
-0.0850321
-0.891353
0.899842
0.093995
-0.101513
-1.03205
1.03956
0.10936
-0.115454
-1.19321
1.1993
0.12105
-0.12465
-1.3767
1.3803
0.126395
-0.125747
-1.58581
1.58516
0.122498
-0.117097
-1.53074
1.52534
0.110646
-0.102745
-1.24629
1.23839
0.0953146
-0.0871281
-1.02644
1.01826
0.0797451
-0.071687
-0.851553
0.843495
0.0641892
-0.0555435
-0.690235
0.68159
0.0460067
-0.0344923
-0.506202
0.494687
0.0241136
-0.0146994
-0.303572
0.294158
0.00842808
-0.00398656
-0.135913
0.131472
0.00154208
-0.000303784
-0.0375652
0.0363269
-7.72688e-05
-0.00126046
0.00133773
-0.0817891
0.0788881
0.00290102
-0.00182701
-0.00287196
-0.387651
0.39235
0.00945292
-0.0153377
-0.542853
0.548738
0.021456
-0.0282661
-0.669174
0.675984
0.0366163
-0.0443101
-0.785518
0.793212
0.052712
-0.0601977
-0.907625
0.915111
0.0678356
-0.0745817
-1.04692
1.05366
0.0814023
-0.0867773
-1.20494
1.21032
0.0912601
-0.0939253
-1.38319
1.38586
0.0950937
-0.0939338
-1.58381
1.58265
0.0904075
-0.0849624
-1.51941
1.51396
0.0786862
-0.0712161
-1.23044
1.22297
0.0637021
-0.055398
-1.00953
1.00122
0.0474715
-0.0383235
-0.834012
0.824864
0.0298117
-0.0205924
-0.668432
0.659213
0.0123322
-0.003995
-0.480887
0.47255
-0.00132359
0.00420761
-0.283613
0.280729
-0.00491985
0.00429661
-0.125739
0.126362
-0.00311131
0.00163473
-0.0344515
0.035928
-0.000590741
-0.000880135
0.00147088
-0.0804643
0.0776606
0.00280371
-0.00543589
0.00322118
-0.40074
0.402955
0.00093926
-0.00543714
-0.557663
0.562161
0.0107901
-0.0166192
-0.684063
0.689893
0.0238992
-0.0306413
-0.800372
0.807114
0.0379543
-0.0444539
-0.922121
0.92862
0.0514266
-0.0571787
-1.05997
1.06573
0.0631877
-0.067514
-1.2153
1.21963
0.0714709
-0.0738503
-1.38838
1.39076
0.0748015
-0.0735794
-1.58133
1.58011
0.0706547
-0.0660309
-1.50843
1.50381
0.0604931
-0.0533503
-1.21562
1.20848
0.0462033
-0.0377883
-0.992349
0.983934
0.029111
-0.0191752
-0.814083
0.804147
0.00971501
-0.000430954
-0.646205
0.636921
-0.00652347
0.0115366
-0.462253
0.45724
-0.013342
0.012627
-0.274974
0.275689
-0.0107456
0.00781665
-0.125608
0.128537
-0.00517372
0.00248453
-0.0365571
0.0392463
-0.000797852
-0.00150105
0.0022989
-0.078919
0.0764706
0.0024484
-0.00654327
0.00587647
-0.409421
0.410088
-0.00280481
-0.00057689
-0.569656
0.573038
0.00496964
-0.0103164
-0.696789
0.702136
0.0165327
-0.022554
-0.81324
0.819261
0.0289728
-0.0346756
-0.934713
0.940416
0.0407163
-0.0459098
-1.07136
1.07655
0.0511082
-0.0552384
-1.22387
1.228
0.0588631
-0.0611209
-1.39294
1.39519
0.0621477
-0.0611917
-1.579
1.57805
0.058646
-0.054255
-1.49879
1.4944
0.0490493
-0.0422907
-1.20138
1.19462
0.0352449
-0.0266461
-0.974906
0.966307
0.0180901
-0.00836589
-0.793068
0.783344
-0.000219715
0.00825592
-0.62555
0.617514
-0.0135962
0.0168272
-0.449515
0.446284
-0.0173782
0.0153518
-0.272562
0.274588
-0.0124124
0.00885555
-0.129784
0.133341
-0.00572577
0.0026663
-0.0410259
0.0440854
-0.000828773
-0.00267662
0.0035054
-0.0775287
0.0754522
0.00207651
-0.00640563
0.00622204
-0.415272
0.415456
-0.00449088
0.00173751
-0.578955
0.581709
0.00252606
-0.00713301
-0.707716
0.712322
0.0125247
-0.0177939
-0.824543
0.829812
0.0235314
-0.0286684
-0.945797
0.950934
0.0342697
-0.0389291
-1.08151
1.08617
0.0437685
-0.0476863
-1.23193
1.23585
0.0511463
-0.0533568
-1.39732
1.39953
0.0544098
-0.0539078
-1.57714
1.57664
0.0514273
-0.0472673
-1.48961
1.48545
0.0421201
-0.035442
-1.18759
1.18092
0.028778
-0.0204299
-0.957424
0.949076
0.0124505
-0.00385733
-0.773244
0.764651
-0.00353469
0.0102079
-0.608277
0.601604
-0.0143639
0.0167792
-0.440363
0.437947
-0.0168199
0.0147935
-0.272722
0.274749
-0.0120129
0.0085301
-0.135118
0.138601
-0.0054295
0.00253982
-0.046009
0.0488987
-0.000785169
-0.0039123
0.00469747
-0.076506
0.0749053
0.00160074
-0.00545754
0.00558376
-0.419527
0.4194
-0.0041798
0.00216019
-0.587046
0.589066
0.00175471
-0.00589421
-0.717216
0.721355
0.0109737
-0.0155133
-0.83471
0.83925
0.0205683
-0.0251665
-0.956062
0.96066
0.0305651
-0.0349181
-1.0909
1.09525
0.0394044
-0.0432955
-1.23967
1.24356
0.0470905
-0.0493109
-1.40185
1.40407
0.0505441
-0.0500078
-1.57578
1.57524
0.047868
-0.0435433
-1.481
1.47668
0.0386924
-0.0324447
-1.17401
1.16776
0.0260873
-0.0186728
-0.940795
0.933381
0.0115891
-0.00402286
-0.755753
0.748187
-0.00198225
0.00767187
-0.593799
0.58811
-0.011347
0.0132348
-0.433172
0.431284
-0.0134366
0.0120532
-0.273513
0.274897
-0.00979299
0.00692006
-0.140124
0.142997
-0.00438752
0.00207548
-0.0504629
0.052775
-0.000660969
-0.00502192
0.00568289
-0.0760152
0.0747834
0.00123182
-0.00427534
0.00450343
-0.422854
0.422626
-0.00321088
0.00133771
-0.593976
0.59585
0.00224049
-0.00589547
-0.725657
0.729312
0.010202
-0.0145367
-0.84375
0.848084
0.0192101
-0.0239812
-0.965089
0.96986
0.0287338
-0.0330004
-1.09976
1.10403
0.037741
-0.0415222
-1.24741
1.25119
0.0449619
-0.0476496
-1.40625
1.40894
0.0490598
-0.0487519
-1.57474
1.57443
0.0466637
-0.0427979
-1.47246
1.46859
0.0382464
-0.0324347
-1.1612
1.15539
0.0267278
-0.020129
-0.925959
0.919361
0.0140071
-0.00773809
-0.74075
0.734481
0.00242003
0.00233786
-0.581624
0.576866
-0.00547325
0.00748133
-0.42685
0.424842
-0.00807585
0.00730263
-0.273499
0.274273
-0.0059743
0.00418116
-0.14359
0.145384
-0.0026643
0.00127765
-0.0536535
0.0550402
-0.000428245
-0.0058579
0.00628614
-0.076093
0.0750799
0.00101307
-0.00286479
0.00279702
-0.425848
0.425916
-0.00166607
-0.000188234
-0.60023
0.602085
0.00335729
-0.00680313
-0.733366
0.736812
0.0108571
-0.0147495
-0.852224
0.856116
0.0195352
-0.0235547
-0.974083
0.978103
0.0283479
-0.0325266
-1.1085
1.11268
0.0372451
-0.0412847
-1.255
1.25904
0.0450643
-0.04755
-1.41141
1.4139
0.0492543
-0.04925
-1.574
1.574
0.047701
-0.0440795
-1.46455
1.46093
0.039966
-0.0346637
-1.14968
1.14437
0.0295587
-0.0236403
-0.912664
0.906745
0.018351
-0.0127395
-0.728008
0.722397
0.00803399
-0.00363118
-0.571287
0.566885
0.000475456
0.00154861
-0.420654
0.41863
-0.00253128
0.00258002
-0.27223
0.272181
-0.00230611
0.00163082
-0.144999
0.145675
-0.00106281
0.00056539
-0.0550644
0.0555619
-0.000214633
-0.00626887
0.0064835
-0.0764929
0.0758035
0.00068938
-0.00160124
0.00101987
-0.429028
0.429609
-7.5796e-05
-0.00189335
-0.605662
0.607631
0.00470537
-0.0079772
-0.740394
0.743666
0.0117996
-0.0157859
-0.859884
0.863871
0.0199643
-0.0241786
-0.98236
0.986574
0.0289911
-0.033019
-1.11732
1.12135
0.0378888
-0.0419244
-1.26292
1.26696
0.0457697
-0.0487602
-1.4168
1.41979
0.050896
-0.0511074
-1.57399
1.57421
0.0497323
-0.0467878
-1.45744
1.45449
0.0432386
-0.0383971
-1.13896
1.13412
0.0336981
-0.0285451
-0.900814
0.895661
0.0234527
-0.0185227
-0.716531
0.711601
0.0142145
-0.00997173
-0.561956
0.557714
0.00691007
-0.00438428
-0.414345
0.411819
0.00288263
-0.00188463
-0.269685
0.268687
0.00124399
-0.0006993
-0.144312
0.143767
0.000234579
6.70107e-05
-0.0548446
0.054543
-0.000111823
-0.00624238
0.0063542
-0.0773331
0.0768126
0.00052054
-0.000528997
-4.88197e-05
-0.432546
0.433124
0.00158873
-0.00340907
-0.611158
0.612978
0.00637833
-0.00949258
-0.746824
0.749938
0.0131248
-0.0167002
-0.867551
0.871126
0.0210148
-0.0249482
-0.990817
0.99475
0.0297498
-0.0342466
-1.12586
1.13036
0.0387883
-0.0431558
-1.27106
1.27543
0.047408
-0.0504625
-1.42267
1.42573
0.0529197
-0.0538472
-1.5746
1.57553
0.0528872
-0.0505474
-1.45139
1.44906
0.0472319
-0.0429119
-1.12931
1.12499
0.0387158
-0.0338737
-0.890136
0.885294
0.0293049
-0.0246524
-0.706164
0.701512
0.0205782
-0.0163671
-0.552895
0.548684
0.0130833
-0.010206
-0.407634
0.404757
0.00792495
-0.00599048
-0.265435
0.263501
0.00433335
-0.00268537
-0.141477
0.139829
0.00140606
-0.000435526
-0.0530883
0.0521178
1.91565e-05
-0.00588884
0.00586968
-0.078473
0.0781363
0.000336751
0.000605371
-0.00142925
-0.436312
0.437136
0.00288933
-0.00502276
-0.616282
0.618415
0.00793626
-0.0108911
-0.752957
0.755912
0.0145931
-0.0180214
-0.874702
0.87813
0.0221947
-0.0262695
-0.999181
1.00326
0.0310036
-0.035479
-1.13473
1.13921
0.0402419
-0.0446271
-1.27973
1.28411
0.0490354
-0.0527961
-1.42906
1.43282
0.0556485
-0.0568419
-1.57638
1.57757
0.0565377
-0.0545169
-1.44659
1.44456
0.0517654
-0.0480021
-1.12059
1.11683
0.0439259
-0.0393846
-0.880178
0.875636
0.0350724
-0.0304734
-0.696452
0.691853
0.0265629
-0.0222612
-0.544168
0.539866
0.0187894
-0.0152894
-0.400312
0.396812
0.0124412
-0.00959468
-0.259459
0.256613
0.00695399
-0.00438641
-0.136607
0.134039
0.00241396
-0.000888939
-0.0500906
0.0485656
0.000151866
-0.00531269
0.00516082
-0.0798537
0.079641
0.00021272
0.00148672