/*--------------------------------*- C++ -*----------------------------------*\
  =========                 |
  \\      /  F ield         | OpenFOAM: The Open Source CFD Toolbox
   \\    /   O peration     | Website:  https://openfoam.org
    \\  /    A nd           | Version:  6
     \\/     M anipulation  |
\*---------------------------------------------------------------------------*/
FoamFile
{
    version     2.0;
    format      ascii;
    class       volScalarField;
    location    "24";
    object      p;
}
// * * * * * * * * * * * * * * * * * * * * * * * * * * * * * * * * * * * * * //

dimensions      [0 2 -2 0 0 0 0];

internalField   nonuniform List<scalar> 
918
(
0.202753
0.959768
0.0107019
0.202531
-0.00549786
0.927797
-0.833826
0.379512
0.183739
-0.446558
-0.372306
0.17677
0.78479
0.552325
-1.51755
-0.0858267
0.338754
-0.715146
0.181515
-0.0128397
0.433182
0.190599
0.193042
0.183768
0.239457
0.515104
0.661253
0.00794869
0.00205781
0.000815849
-0.00379457
-0.0251779
-0.0329626
0.810952
0.862869
0.885988
0.151555
-0.0197125
-0.714825
-0.773245
-0.743832
-0.872976
0.370089
0.372726
-0.510297
0.378878
0.389979
0.169808
0.183052
0.183892
0.185293
0.18399
0.18536
0.102188
-0.455071
-0.490804
-0.435205
-0.433785
-0.208047
-0.405729
-0.422163
-0.350256
-0.30352
0.105539
0.173695
0.170677
0.180926
0.189817
0.899939
0.87363
0.899626
0.81058
0.828039
0.761742
0.734617
0.574022
0.597068
0.53575
0.524869
-1.99055
-2.95946
-0.926563
-0.637342
-0.00075594
-0.104238
-0.127307
0.32514
0.324954
0.337296
0.348664
0.696778
-0.711937
-0.828544
0.181911
0.180434
0.189959
0.190875
0.185802
0.185841
-0.0283769
-0.055032
-0.0108583
-0.00379438
-0.0112979
0.419207
0.414874
0.183223
0.180727
0.200542
0.22356
0.212535
-0.0587798
0.249389
0.266796
0.363879
0.519739
0.508141
0.51994
0.636438
0.604162
0.693331
0.714963
0.00239375
0.00309385
-0.0733348
-0.0406406
-0.0533277
0.147932
0.142311
0.166661
0.155185
0.158022
-0.114989
-0.267778
0.0612575
0.0830968
-0.628252
-0.67526
-0.787986
-0.775223
-0.850629
0.209606
0.36628
0.366441
-0.529665
-0.447641
-0.582005
-0.388527
-0.448256
0.161383
0.167045
0.163539
0.178351
0.172621
0.17502
0.18716
0.184279
0.18586
0.157368
0.283547
0.0282949
0.0167946
-0.583809
-0.50166
-0.574956
-0.421646
-0.429691
-0.218591
-0.201185
-0.224232
-0.250501
-0.431835
-0.432618
-0.430503
-0.262389
-0.204615
0.0974539
0.0865785
0.115563
0.122013
0.164445
0.165917
0.168622
0.167364
0.685467
0.708209
0.714564
0.690861
-3.96001
-6.63782
-0.278051
-0.111423
-0.000404417
0.00311635
0.00174326
0.00849593
0.00224522
-0.00145984
-0.279786
-0.255969
-0.165761
-0.202235
0.315811
0.316631
0.657268
0.682539
0.650134
0.631196
0.171163
0.173267
0.177827
0.174811
-0.155214
-0.0834088
-0.115538
0.388664
0.403112
0.400681
-0.0974059
-0.182103
-0.0123013
0.0165494
0.305874
0.277775
0.298755
0.424595
0.464592
0.731867
0.756372
0.740125
0.753205
0.804184
0.827074
0.792183
0.127653
0.138652
0.133018
0.169997
0.167508
0.168649
0.163789
0.165462
0.163378
-0.382219
-0.761592
0.138601
0.150241
0.119611
0.125931
0.289262
0.373012
0.346665
0.358935
0.359753
-0.337519
-0.390585
-0.0437657
-0.082107
0.0437347
0.0752702
0.0591236
0.660802
0.621812
0.669402
0.644797
0.609731
0.632723
-0.699653
-2.49501
-1.47292
0.304016
0.100606
0.194841
-0.262956
-0.288031
-0.291471
0.68347
0.720585
0.349123
0.521257
0.477193
0.493357
0.521848
0.577904
0.509622
0.54381
0.576909
0.555342
0.178698
0.138426
0.148044
0.454978
0.515949
-0.216782
-0.288342
-0.315505
-0.17709
-0.151542
-0.162435
0.688849
0.578243
0.648754
0.181043
0.181959
-0.000169932
-0.00197385
0.185809
0.185557
0.00111272
-0.0171625
0.214021
-1.29606
-0.20466
0.175023
0.165205
0.18172
-0.429919
0.0328112
-0.41418
-0.302659
-0.307949
0.171901
0.11628
0.0793073
0.00719746
-0.0601885
-0.040386
-0.523407
0.178749
0.177222
0.181196
0.182029
0.182772
0.000806606
-0.0032001
0.000167324
-0.0240044
-0.00820953
-0.00494902
0.146903
0.164535
-0.507582
0.181336
0.18344
0.183184
0.177154
0.182174
0.180749
-0.0430609
-0.0283725
-0.0584635
-0.112979
0.0121292
0.408762
0.492127
0.351149
0.177193
-0.13094
0.337517
0.394655
0.314146
0.452036
0.353284
0.3614
-0.14691
-0.283272
-0.140373
-0.199221
0.172343
0.171504
0.162967
0.160276
0.176631
0.174493
0.179344
0.176411
0.179411
0.1807
-0.377874
-0.418614
-0.422279
-0.471625
-0.00353906
0.250892
-0.0706985
-0.0419087
-0.164416
-0.422422
-0.365457
-0.450987
-0.446593
-0.540065
-0.331806
-0.327536
-0.287475
-0.251053
-0.35488
-0.543132
-0.411525
-0.421092
0.166269
0.166883
0.171685
0.178461
0.125041
0.127976
0.0975783
0.114892
0.101141
0.0486792
0.077706
0.0555485
0.00171829
0.00946209
0.00381182
-0.0633079
-0.140892
-0.0219913
-0.00732725
-0.000475385
-0.0133181
-0.0150603
-0.0631139
-0.0840918
-0.489767
-0.619082
0.635482
0.562998
-0.219265
0.168574
0.17448
0.171579
0.17603
0.179267
0.179901
0.177535
0.174206
0.164798
0.166136
0.162467
0.162951
-0.454708
-0.557175
-0.387175
-0.459295
-0.195505
0.29179
0.0212404
-0.0302291
-0.0440692
0.169277
0.371987
0.32346
0.412916
0.41599
-0.739166
-0.311546
-0.66
-0.110872
-0.128488
0.428585
0.473642
0.493618
0.448659
0.402119
-0.376683
0.186598
-0.377363
-0.336965
-0.153574
-0.250541
0.385674
0.334981
0.342731
0.35228
0.371219
0.344369
0.321355
0.31976
0.346934
0.354934
0.162269
-0.081485
-0.117957
-0.16697
0.316778
0.195007
0.247818
0.174921
0.167471
0.170146
0.168928
0.151709
0.158399
0.154782
0.159875
0.163243
0.171729
0.171902
0.167689
0.169806
-0.410913
-0.404467
-0.376182
-0.449763
-0.454443
-0.488795
-0.414564
-0.229008
-0.262635
-0.0965326
0.0304199
-0.280812
-0.402915
-0.376969
-0.338109
-0.182228
-0.143112
-0.240153
-0.154051
-0.125948
-0.154995
-0.0680033
-0.0670986
-0.541821
-0.532154
-0.463864
-0.497547
-0.328394
-0.239062
-0.20925
-0.437032
-0.57372
-0.33668
-0.265759
-0.388533
-0.428901
-0.461444
-0.363496
-0.0531279
-0.0628049
-0.116602
-0.304437
-0.233534
-0.2696
0.162819
0.164745
0.164759
0.176092
0.185399
0.20084
0.169583
0.144481
0.136505
0.139521
0.113908
0.122915
0.118236
0.132554
0.153574
0.159078
0.157842
0.159892
0.145171
0.145803
0.133391
0.137353
0.111597
0.0955361
0.0864646
-0.0296274
-0.0114915
-0.0235536
-0.0433576
-0.00411702
-0.0178229
-0.249772
-0.141429
-0.189503
-0.159333
-0.274502
-0.0164071
-0.0267169
-0.398397
-0.336565
-0.512989
-0.559721
-0.61074
0.540649
0.662167
0.462308
0.258951
0.259083
0.490757
0.584306
0.233137
0.406977
0.442444
0.192191
0.469719
0.172698
0.172245
0.170019
0.169303
0.17058
-0.36135
-0.264137
-0.233624
-0.191679
-0.0742688
0.0335515
-0.0636414
-0.168164
-0.0296314
-0.00411542
0.285909
0.300099
0.243117
0.269679
0.265158
0.0918192
0.169907
0.206779
0.163358
0.22358
0.255467
0.206267
0.24657
0.174721
0.132825
0.127113
0.0756448
0.110073
0.0903615
0.0640769
0.16377
0.143333
0.153162
0.145184
0.164197
0.191524
0.19044
0.210739
0.224804
0.147419
0.103286
0.118344
0.142716
0.103523
0.117502
0.13603
-0.185841
-0.280235
-0.114616
-0.434142
-0.340964
-0.304881
-0.344546
-0.398839
-0.0940292
-0.736744
-0.675561
-1.36752
0.125276
0.539873
0.351298
0.368079
0.370294
0.348628
0.356736
0.377873
0.386095
0.307293
0.324992
0.327451
0.277496
0.312741
0.320973
0.328135
0.153321
0.0694666
0.0659386
0.00803235
-0.119484
-0.0857235
0.0891829
0.0282569
-0.0374449
-0.0420933
0.135325
0.00993512
0.0821295
0.132646
0.0727237
0.00619771
0.222048
0.278473
0.265409
0.231206
0.150777
0.165993
0.193563
0.234446
0.256606
0.287808
0.15902
0.16525
0.166273
0.163529
0.161914
0.164628
0.164502
0.166936
0.167791
0.170327
0.169409
-0.446026
-0.445992
-0.395697
-0.425322
-0.332557
-0.339324
-0.295614
-0.329085
-0.374003
-0.363277
-0.367244
-0.392628
-0.396698
-0.392789
-0.195807
-0.193581
-0.225133
-0.253926
-0.0873878
0.0691298
0.126494
0.00677633
-0.125013
-0.112488
-0.0319121
-0.371071
-0.381257
-0.439605
-0.326862
-0.306766
-0.466313
-0.398753
-0.400908
-0.531914
-0.51202
-0.306954
-0.125325
-0.149766
-0.213098
-0.206527
-0.15083
0.146245
0.139985
0.142138
0.13602
0.134981
0.148913
0.15316
0.154473
0.15889
0.160863
0.152576
0.156728
0.160308
-0.147979
-0.0475312
-0.0841779
-0.125986
-0.0772432
-0.0458475
-0.0700186
-0.220784
-0.312544
-0.278741
-0.347097
-0.467293
-0.402353
0.124707
0.116638
0.124372
0.33453
0.189105
0.0974318
0.183038
0.292827
-0.0804144
0.121061
-0.0478161
0.518685
0.412021
0.556158
0.202984
-0.111561
0.0427477
0.0571525
-0.105763
0.0152434
-0.000824866
-0.122129
-0.084331
-0.0693382
0.011199
-0.101947
-0.129642
-0.375281
-0.203529
-0.0726846
-0.0940666
0.0417597
0.0992935
-0.112395
-0.190781
-0.237395
0.274024
0.294224
0.308627
0.280259
0.303043
0.227569
0.220124
0.238563
0.246803
0.239
-1.0111
-0.602187
-1.80455
-1.20734
-0.757866
0.157441
0.136515
0.393854
0.299059
0.370284
0.352178
0.29166
0.255064
0.277284
0.310766
0.00466121
0.108912
0.0726304
0.0920983
0.0287925
-0.0446613
0.246823
0.24601
0.27244
0.297737
0.268834
0.297492
0.157979
0.157642
0.156169
0.153312
0.152042
0.154451
-0.275313
-0.323737
-0.256246
-0.266926
-0.290908
-0.315424
-0.250916
-0.250726
-0.179946
-0.168665
-0.160401
-0.222385
-0.196142
-0.248579
-0.327895
-0.284694
-0.354069
-0.429293
-0.433982
-0.346465
-0.254159
-0.270572
0.0396742
0.314662
0.145395
0.306453
0.0951725
0.197984
0.116223
0.0980631
0.13344
0.0102929
0.0936801
-0.367899
-0.556393
-0.6198
0.458324
0.411419
0.202953
-0.0627133
-0.165486
0.143858
0.179899
0.140682
0.17719
0.227041
0.219125
-0.366296
-0.252736
-0.214316
0.101042
-0.0940727
-0.0694272
-0.0807301
0.0717231
0.044651
)
;

boundaryField
{
    wall-4
    {
        type            zeroGradient;
    }
    velocity-inlet-5
    {
        type            zeroGradient;
    }
    velocity-inlet-6
    {
        type            zeroGradient;
    }
    pressure-outlet-7
    {
        type            fixedValue;
        value           uniform 0;
    }
    wall-8
    {
        type            zeroGradient;
    }
    frontAndBackPlanes
    {
        type            empty;
    }
}


// ************************************************************************* //
