/*--------------------------------*- C++ -*----------------------------------*\
  =========                 |
  \\      /  F ield         | OpenFOAM: The Open Source CFD Toolbox
   \\    /   O peration     | Website:  https://openfoam.org
    \\  /    A nd           | Version:  6
     \\/     M anipulation  |
\*---------------------------------------------------------------------------*/
FoamFile
{
    version     2.0;
    format      ascii;
    class       volScalarField;
    location    "8.5";
    object      Ma;
}
// * * * * * * * * * * * * * * * * * * * * * * * * * * * * * * * * * * * * * //

dimensions      [0 0 0 0 0 0 0];

internalField   nonuniform List<scalar> 
5250
(
2.99999
2.99997
2.9999
2.99979
2.99936
2.99874
2.99629
2.99271
2.97925
2.95654
2.88669
2.72973
2.38896
1.63217
0.577541
0.0175698
0.148751
0.29198
0.33591
0.304906
0.238281
0.16782
0.120134
0.0797026
0.0514131
2.99999
2.99997
2.9999
2.99979
2.99936
2.99875
2.9963
2.99273
2.97932
2.95671
2.88707
2.73081
2.39091
1.63581
0.58324
0.0321593
0.157621
0.29859
0.340054
0.308349
0.243241
0.176468
0.132278
0.0960588
0.0734192
2.99999
2.99997
2.9999
2.99979
2.99936
2.99876
2.99633
2.99279
2.97947
2.95708
2.88788
2.73323
2.39517
1.64432
0.596724
0.0555052
0.174218
0.308489
0.346831
0.315141
0.253453
0.193904
0.156632
0.127569
0.110925
2.99999
2.99997
2.9999
2.9998
2.99937
2.99877
2.99638
2.99289
2.97971
2.95767
2.88923
2.73701
2.40231
1.65846
0.618244
0.0848414
0.196434
0.320511
0.356508
0.326479
0.270486
0.219761
0.190082
0.167946
0.15639
2.99999
2.99998
2.9999
2.9998
2.99938
2.9988
2.99644
2.99303
2.98008
2.95852
2.89124
2.74222
2.41313
1.67844
0.648712
0.120692
0.22315
0.334586
0.368815
0.34185
0.293187
0.251317
0.228578
0.212496
0.20514
2.99999
2.99998
2.9999
2.9998
2.9994
2.99883
2.99654
2.99321
2.98058
2.95963
2.89389
2.74897
2.42737
1.70427
0.687596
0.162988
0.253701
0.35029
0.383725
0.361299
0.320652
0.28751
0.271659
0.261341
0.258191
2.99999
2.99998
2.99991
2.99981
2.99942
2.99887
2.99665
2.99344
2.98119
2.96102
2.89721
2.75739
2.44514
1.73655
0.735708
0.212521
0.286722
0.366562
0.401
0.384373
0.353009
0.328255
0.319849
0.316576
0.319759
3
2.99998
2.99991
2.99982
2.99945
2.99892
2.99679
2.99372
2.98197
2.96275
2.90135
2.7677
2.46705
1.77604
0.794115
0.270014
0.318802
0.383344
0.420034
0.410281
0.388651
0.373793
0.373998
0.379782
0.395183
3
2.99998
2.99992
2.99983
2.99948
2.99898
2.99697
2.99408
2.98291
2.96485
2.90633
2.78051
2.49335
1.82715
0.866671
0.33393
0.347487
0.405565
0.441896
0.43953
0.427335
0.423919
0.434408
0.455917
0.498673
3
2.99998
2.99993
2.99985
2.99953
2.99907
2.99728
2.99458
2.98464
2.96754
2.91408
2.79419
2.52508
1.88585
0.94299
0.40416
0.3768
0.42727
0.465177
0.471103
0.468971
0.476717
0.502008
0.55256
0.660755
3
2.99998
2.99995
2.99983
2.99967
2.99901
2.99803
2.99446
2.98816
2.96873
2.92426
2.81892
2.53501
2.01055
0.991227
0.471833
0.393168
0.440185
0.484476
0.501488
0.510937
0.531495
0.576804
0.666623
0.823502
3
2.99998
2.99996
2.99985
2.9997
2.99911
2.99824
2.99501
2.98948
2.9719
2.9326
2.83733
2.58357
2.10736
1.13883
0.566804
0.412015
0.451259
0.502253
0.531684
0.551727
0.584433
0.644564
0.751178
0.903804
3
2.99999
2.99995
2.9999
2.99968
2.99936
2.99812
2.99624
2.98939
2.97743
2.94033
2.8563
2.66443
2.17995
1.34983
0.674387
0.446877
0.476303
0.529285
0.565302
0.592776
0.632714
0.698017
0.7978
0.922799
3
2.99999
2.99996
2.99991
2.99971
2.99944
2.99833
2.99674
2.9905
2.9809
2.9475
2.88448
2.71802
2.33449
1.59614
0.782682
0.499443
0.525853
0.572836
0.607741
0.63451
0.675109
0.738407
0.825414
0.930919
3
2.99999
2.99997
2.99992
2.99976
2.99952
2.99858
2.99724
2.99196
2.98392
2.95555
2.90368
2.76072
2.44121
1.77842
0.863338
0.528642
0.56889
0.617357
0.654149
0.677701
0.71267
0.770637
0.84564
0.93674
3
3
2.99997
2.99994
2.9998
2.9996
2.99881
2.99768
2.99322
2.98648
2.96255
2.91804
2.7985
2.50792
1.94046
0.965183
0.588517
0.607705
0.651238
0.690749
0.714791
0.745945
0.796505
0.863022
0.942109
3
3
2.99998
2.99995
2.99983
2.99967
2.99901
2.99809
2.9944
2.98883
2.96938
2.93148
2.83081
2.57724
2.096
1.13893
0.694405
0.636006
0.671397
0.70844
0.741427
0.772721
0.817302
0.876494
0.946038
3
3
2.99998
2.99996
2.99987
2.99973
2.99919
2.99843
2.99541
2.9909
2.97458
2.94502
2.86121
2.65841
2.2516
1.37887
0.829011
0.668454
0.688749
0.722378
0.76075
0.795676
0.83546
0.887252
0.947878
3.00001
3
2.99999
2.99997
2.9999
2.99979
2.99937
2.99877
2.99641
2.99294
2.98011
2.95808
2.89254
2.74137
2.42598
1.68969
0.996726
0.735579
0.729387
0.750392
0.783676
0.817048
0.854552
0.898405
0.949856
3.00001
3
2.99999
2.99998
2.99992
2.99984
2.99951
2.99904
2.99718
2.99451
2.98417
2.968
2.9144
2.80588
2.54609
1.96276
1.15418
0.798672
0.772917
0.78752
0.813081
0.842164
0.873879
0.910662
0.95305
3.00001
3
3
2.99998
2.99994
2.99988
2.99962
2.99927
2.99784
2.9958
2.988
2.97541
2.93457
2.84668
2.6463
2.13788
1.35529
0.893975
0.806024
0.818629
0.840203
0.867316
0.892444
0.921676
0.954688
3.00001
3
3
2.99999
2.99996
2.99991
2.99971
2.99944
2.99834
2.99678
2.99066
2.98132
2.94885
2.8873
2.72812
2.34786
1.64619
1.0299
0.850506
0.847723
0.86425
0.888237
0.91032
0.931925
0.953835
3.00001
3.00001
3
2.99999
2.99997
2.99993
2.99979
2.99959
2.99877
2.99761
2.9931
2.98625
2.96207
2.91932
2.7957
2.54068
1.94822
1.19957
0.912665
0.879704
0.889202
0.908398
0.927795
0.941027
0.949022
3.00001
3.00001
3
3
2.99998
2.99995
2.99985
2.9997
2.99911
2.99826
2.99499
2.99002
2.9724
2.94075
2.85173
2.64523
2.21261
1.41272
1.00598
0.910925
0.910908
0.923096
0.938049
0.941735
0.936915
3.00001
3.00001
3
3
2.99999
2.99996
2.99991
2.99974
2.99948
2.99849
2.99701
2.99152
2.98267
2.95351
2.89634
2.74845
2.41221
1.73573
1.14432
0.956154
0.935151
0.936713
0.939575
0.931786
0.918085
3.00001
3.00001
3.00001
3
3
2.99997
2.99994
2.99981
2.99963
2.99891
2.99786
2.99388
2.9877
2.96625
2.92799
2.81632
2.59091
2.03662
1.32774
1.02213
0.959966
0.946542
0.934376
0.91513
0.892817
3.00001
3.00001
3.00001
3
3
2.99999
2.99995
2.9999
2.99969
2.99939
2.99823
2.99649
2.99021
2.9796
2.94655
2.87418
2.7091
2.29341
1.59261
1.11971
0.977345
0.943256
0.918918
0.889785
0.858739
3.00001
3.00001
3.00001
3.00001
3
2.99999
2.99997
2.99993
2.99978
2.99957
2.99874
2.99752
2.99292
2.98575
2.96107
2.91677
2.78897
2.53283
1.91428
1.2793
1.0078
0.930196
0.889892
0.853112
0.825022
3.00001
3.00001
3.00001
3.00001
3
3
2.99999
2.99994
2.99988
2.99965
2.9993
2.998
2.99598
2.98896
2.97636
2.93925
2.85373
2.6665
2.18368
1.44796
1.04544
0.902799
0.842638
0.808583
0.790802
3.00001
3.00001
3.00001
3.00001
3
3
2.99999
2.99997
2.9999
2.99979
2.9994
2.9988
2.99659
2.99311
2.98125
2.95892
2.89811
2.75171
2.4474
1.79863
1.12877
0.865733
0.783266
0.764982
0.760571
3.00001
3.00001
3.00001
3.00001
3.00001
3
3
2.99997
2.99994
2.99981
2.99962
2.9989
2.99782
2.99374
2.9873
2.96525
2.92336
2.81091
2.54749
2.00427
1.16468
0.782459
0.677722
0.690391
0.715222
3.00001
3.00001
3.00001
3.00001
3.00001
3
3
2.99998
2.99995
2.99985
2.9997
2.99911
2.99827
2.9949
2.98986
2.97166
2.93815
2.84457
2.61616
2.16777
1.26777
0.72871
0.546312
0.594197
0.660814
3.00001
3.00001
3.00001
3.00001
3.00001
3
3
2.99999
2.99996
2.99988
2.99976
2.99928
2.99858
2.99586
2.99165
2.97686
2.949
2.87067
2.67978
2.29906
1.48654
0.70791
0.432592
0.513539
0.619279
3.00001
3.00001
3.00001
3.00001
3.00001
3
3
2.99999
2.99996
2.99992
2.99975
2.99949
2.99849
2.99696
2.99127
2.98165
2.95047
2.88377
2.71894
2.32801
1.55878
0.615455
0.293168
0.423653
0.559275
3.00001
3.00001
3.00001
3.00001
3.00001
3
3
2.99999
2.99997
2.99991
2.99982
2.99945
2.99889
2.99685
2.99322
2.98194
2.95638
2.8925
2.72432
2.38845
1.6334
0.624874
0.216079
0.351376
0.494395
3.00001
3.00001
3.00001
3.00001
3.00001
3.00001
3
2.99999
2.99997
2.99993
2.99977
2.99955
2.99863
2.99727
2.99198
2.98345
2.95438
2.89527
2.74292
2.38082
1.64997
0.613839
0.173308
0.298167
0.433104
3.00001
3.00001
3.00001
3.00001
3.00001
3.00001
3
2.99999
2.99997
2.99993
2.99978
2.99956
2.99864
2.99734
2.99203
2.98388
2.95442
2.89979
2.74687
2.40221
1.67326
0.627186
0.165347
0.263106
0.376048
3.00001
3.00001
3.00001
3.00001
3.00001
3.00001
3
3
2.99997
2.99994
2.9998
2.9996
2.99876
2.99752
2.9926
2.98474
2.95707
2.90288
2.75548
2.41587
1.69226
0.659403
0.182741
0.245033
0.332362
3.00001
3.00001
3.00001
3.00001
3.00001
3.00001
3
3
2.99998
2.99994
2.99986
2.99958
2.99913
2.99748
2.99449
2.98493
2.96308
2.90703
2.75922
2.45675
1.73181
0.707437
0.211477
0.230007
0.294043
3.00001
3.00001
3.00001
3.00001
3.00001
3.00001
3
3
2.99998
2.99996
2.99985
2.99969
2.99905
2.99803
2.99424
2.98689
2.96409
2.91029
2.77994
2.45011
1.76214
0.74363
0.24471
0.202488
0.258897
3.00001
3.00001
3.00001
3.00001
3.00001
3.00001
3
3
2.99999
2.99995
2.99989
2.99968
2.99929
2.99809
2.9953
2.98756
2.96811
2.91867
2.78725
2.50855
1.81474
0.813671
0.286271
0.164265
0.221619
3.00001
3.00001
3.00001
3.00001
3.00001
3.00001
3
3
2.99999
2.99996
2.99989
2.99975
2.99932
2.99835
2.99567
2.98893
2.97089
2.92465
2.81386
2.5199
1.90766
0.897513
0.329084
0.128921
0.203981
3.00001
3.00001
3.00001
3.00001
3.00001
3.00001
3
3
2.99999
2.99995
2.9999
2.99969
2.99937
2.99813
2.99611
2.989
2.9748
2.93298
2.8281
2.5944
1.97613
1.04521
0.362609
0.10655
0.180066
3.00001
3.00001
3.00001
3.00001
3.00001
3.00001
3
3
2.99999
2.99995
2.9999
2.99969
2.99938
2.99813
2.99632
2.9891
2.97727
2.93781
2.8486
2.64066
2.09239
1.20122
0.375021
0.120573
0.168549
3.00001
3.00001
3.00001
3.00001
3.00001
3.00001
3
3
2.99999
2.99995
2.9999
2.9997
2.99941
2.99821
2.9965
2.98966
2.97895
2.94191
2.8654
2.67564
2.19763
1.35517
0.359792
0.135346
0.169135
3.00001
3.00001
3.00001
3.00001
3.00001
3.00001
3
3
2.99999
2.99996
2.99991
2.99972
2.99944
2.99834
2.9967
2.99061
2.9801
2.94687
2.87154
2.69657
2.24921
1.44687
0.357059
0.138175
0.171174
3.00001
3.00001
3.00001
3.00001
3.00001
3.00001
3
3
2.99999
2.99997
2.99989
2.99978
2.99933
2.99867
2.99614
2.99215
2.97854
2.95123
2.87785
2.69288
2.31801
1.5015
0.414317
0.104169
0.178245
3.00001
3.00001
3.00001
3.00001
3.00001
3.00001
3
3
2.99999
2.99997
2.99989
2.99977
2.99931
2.99867
2.99604
2.99219
2.97772
2.95271
2.87779
2.70404
2.3348
1.53166
0.450185
0.070244
0.17685
3.00001
3.00001
3.00001
3.00001
3.00001
3.00001
3
3
2.99999
2.99997
2.99989
2.99978
2.99935
2.99871
2.99625
2.9924
2.9792
2.95292
2.88168
2.70296
2.33999
1.54555
0.460349
0.0469139
0.171272
3.00001
3.00001
3.00001
3.00001
3.00001
3.00001
3
3
2.99999
2.99996
2.99991
2.99973
2.99947
2.99845
2.99691
2.99126
2.98143
2.9508
2.88098
2.72129
2.30255
1.55149
0.422477
0.0699482
0.149015
0.9585
0.950044
0.507528
0.285363
0.176566
0.229657
0.310991
0.38212
0.438696
0.481275
0.510454
0.530855
0.540225
0.539149
0.530591
0.516103
0.495591
0.4707
0.443318
0.415292
0.387574
0.360464
0.33394
0.307866
0.281997
0.25662
0.231456
0.206208
0.18018
0.153909
0.127138
0.10067
0.0742396
0.0483592
0.0237568
0.0143759
0.0383254
0.0606481
0.0832992
0.105476
0.128303
0.150525
0.172107
0.193624
0.215455
0.237677
0.259213
0.280175
0.30049
0.320744
0.340516
0.359967
0.379101
0.398008
0.416354
0.434732
0.452406
0.470127
0.487254
0.504269
0.520856
0.537122
0.553341
0.569127
0.584731
0.600251
0.615283
0.630554
0.645194
0.660181
0.674503
0.689182
0.70327
0.717491
0.731495
0.745172
0.759039
0.772321
0.785822
0.798888
0.811878
0.824739
0.837247
0.849806
0.861878
0.874111
0.885654
0.897585
0.90855
0.920057
0.930532
0.94137
0.951399
0.961215
0.970593
0.978886
0.986885
0.992838
0.997557
1.00125
0.977322
0.919968
0.667781
0.310138
0.20253
0.129466
0.0809676
0.136533
0.193836
0.237233
0.265181
0.283275
0.292398
0.287432
0.271116
0.256985
0.236909
0.213419
0.189254
0.165059
0.141095
0.117374
0.0939734
0.0710215
0.0488936
0.0302931
0.0258161
0.0432303
0.0638575
0.0848015
0.105815
0.127342
0.149186
0.171286
0.193019
0.214376
0.234739
0.254851
0.274669
0.294673
0.31464
0.334594
0.353753
0.372447
0.391432
0.410891
0.430279
0.448883
0.466992
0.484966
0.502362
0.519732
0.536686
0.553452
0.56989
0.585963
0.602032
0.617384
0.632991
0.647798
0.662738
0.677178
0.691477
0.705569
0.719393
0.733194
0.746614
0.760196
0.773291
0.786587
0.799559
0.81244
0.825419
0.837861
0.850783
0.86293
0.875556
0.88759
0.899778
0.911675
0.923469
0.935138
0.946545
0.957985
0.968941
0.980208
0.990716
1.00182
1.01191
1.02267
1.03242
1.04249
1.05188
1.06093
1.06969
1.07725
1.08466
1.09005
1.09426
1.09744
0.977175
0.959456
0.852772
0.676284
0.560695
0.454905
0.352907
0.2651
0.186762
0.121523
0.0700165
0.0292057
0.0327256
0.0299543
0.0494126
0.0452755
0.0736989
0.0942255
0.107625
0.1226
0.138921
0.155986
0.173521
0.191728
0.210319
0.229543
0.248868
0.268129
0.286823
0.305604
0.324325
0.343033
0.361891
0.380704
0.399193
0.417249
0.434912
0.452019
0.469217
0.486083
0.503263
0.520112
0.536461
0.552386
0.568205
0.584864
0.601447
0.61756
0.633166
0.648639
0.663953
0.678896
0.693876
0.708201
0.722677
0.736603
0.750488
0.764186
0.777468
0.790856
0.803591
0.816582
0.828809
0.841466
0.853271
0.865647
0.877204
0.88927
0.900736
0.912431
0.923891
0.93521
0.946658
0.957702
0.969042
0.979953
0.991066
1.00192
1.01274
1.02348
1.03404
1.04458
1.05493
1.06542
1.07545
1.08585
1.0955
1.10571
1.11501
1.12483
1.13387
1.14294
1.15169
1.1597
1.16781
1.17451
1.18117
1.18594
1.1896
1.19205
0.996016
1.01337
0.975287
0.887986
0.801036
0.722898
0.638963
0.557612
0.481613
0.416339
0.368038
0.339074
0.323621
0.32355
0.338649
0.356122
0.36718
0.376649
0.385509
0.394977
0.405392
0.416691
0.428837
0.441741
0.455315
0.469496
0.483915
0.498525
0.513019
0.527436
0.541955
0.556421
0.570974
0.58543
0.599602
0.613757
0.62726
0.640985
0.653953
0.667454
0.68039
0.69371
0.706253
0.7186
0.730749
0.743853
0.757161
0.770051
0.782851
0.795291
0.807965
0.820287
0.832743
0.844978
0.857102
0.869169
0.880898
0.892725
0.904097
0.915706
0.926766
0.938125
0.94891
0.959975
0.970593
0.981327
0.991892
1.00229
1.01281
1.02294
1.03338
1.04336
1.05368
1.06357
1.07381
1.08355
1.09374
1.10331
1.11345
1.12307
1.13313
1.14285
1.15257
1.16229
1.17159
1.18131
1.19021
1.19974
1.20832
1.21736
1.22569
1.23394
1.24198
1.24918
1.25659
1.26261
1.26864
1.2729
1.27605
1.27814
1.00735
1.04602
1.04498
1.00711
0.953605
0.897134
0.839172
0.774311
0.713162
0.658066
0.615799
0.593405
0.585422
0.593997
0.607668
0.623941
0.637733
0.645942
0.650433
0.654441
0.659186
0.664715
0.671469
0.678474
0.686688
0.694846
0.703729
0.71246
0.721411
0.730362
0.739285
0.748394
0.757397
0.766595
0.775615
0.784719
0.793583
0.802496
0.8112
0.820173
0.829231
0.838292
0.847312
0.855886
0.865074
0.874504
0.884958
0.894673
0.904733
0.914259
0.924208
0.933917
0.943885
0.953752
0.963721
0.973664
0.983599
0.99359
1.00346
1.01349
1.02326
1.03326
1.04293
1.05278
1.06243
1.07204
1.08177
1.09114
1.10092
1.11013
1.11983
1.12896
1.13847
1.1476
1.15689
1.16608
1.17533
1.18476
1.19398
1.20341
1.21238
1.2218
1.23055
1.23996
1.24848
1.2578
1.26612
1.27511
1.28325
1.2917
1.29962
1.3073
1.31491
1.32164
1.3286
1.33425
1.33976
1.34369
1.34638
1.34816
1.01284
1.05956
1.08023
1.07061
1.04338
1.00447
0.959989
0.913108
0.864182
0.825028
0.799285
0.78861
0.795663
0.810169
0.826296
0.8409
0.853512
0.863327
0.867617
0.866824
0.865575
0.865361
0.865844
0.867109
0.869163
0.871821
0.874919
0.878281
0.881911
0.88564
0.889556
0.893714
0.897962
0.902609
0.907209
0.912277
0.917193
0.922527
0.927777
0.933571
0.939549
0.94576
0.951936
0.958133
0.96497
0.972298
0.980373
0.988345
0.996534
1.00463
1.01286
1.02119
1.02954
1.0382
1.04661
1.05552
1.0639
1.07299
1.08135
1.09054
1.09896
1.10817
1.11675
1.12589
1.13463
1.14359
1.15247
1.16121
1.17018
1.1788
1.18782
1.19643
1.20541
1.21412
1.2232
1.23214
1.24126
1.2501
1.25912
1.2679
1.27677
1.28551
1.2941
1.30276
1.311
1.31951
1.3274
1.33561
1.34321
1.3509
1.35824
1.36521
1.3722
1.37833
1.38468
1.3897
1.39477
1.39808
1.40039
1.40226
1.01337
1.06382
1.09253
1.1004
1.08783
1.06347
1.0286
0.991574
0.958258
0.931122
0.919796
0.923159
0.938124
0.958577
0.978499
0.994858
1.00541
1.01378
1.01806
1.01694
1.01149
1.00543
1.00054
0.997156
0.99489
0.9936
0.993128
0.993197
0.993787
0.994561
0.995632
0.99696
0.998666
1.00076
1.00319
1.00607
1.00913
1.0125
1.01628
1.02022
1.0248
1.02916
1.03385
1.03834
1.04382
1.04957
1.05595
1.06236
1.0692
1.07611
1.08313
1.09033
1.09757
1.10522
1.11281
1.12085
1.12871
1.13703
1.14516
1.15368
1.16207
1.17061
1.17921
1.18762
1.19636
1.20462
1.21339
1.22148
1.23016
1.23814
1.24669
1.25465
1.2632
1.27137
1.27985
1.28802
1.29629
1.30457
1.31266
1.32109
1.32901
1.33755
1.34534
1.35388
1.36153
1.36989
1.3774
1.38538
1.39268
1.40011
1.40711
1.4138
1.42041
1.42613
1.43188
1.43641
1.44057
1.44312
1.44456
1.4461
1.00965
1.05974
1.09257
1.10705
1.10311
1.08494
1.05889
1.02932
1.0047
0.990057
0.988345
1.00255
1.02625
1.0524
1.07741
1.0964
1.10924
1.11587
1.12077
1.12171
1.11727
1.10909
1.10076
1.09378
1.08865
1.08487
1.08237
1.08056
1.07941
1.0785
1.07805
1.07786
1.07818
1.07884
1.07991
1.08146
1.08332
1.08549
1.08811
1.09092
1.09425
1.09735
1.10083
1.10426
1.10862
1.11315
1.1184
1.12374
1.12959
1.1356
1.14182
1.14827
1.15477
1.16167
1.16852
1.17586
1.18302
1.19067
1.19812
1.20599
1.21379
1.22178
1.22987
1.23789
1.24619
1.25421
1.26265
1.27066
1.27915
1.28712
1.29563
1.30372
1.31218
1.32019
1.32846
1.33649
1.34459
1.35268
1.36061
1.36876
1.37653
1.38469
1.3923
1.40035
1.40782
1.41563
1.42296
1.43037
1.43751
1.44438
1.4512
1.45743
1.46367
1.46901
1.47418
1.47814
1.4816
1.48321
1.48413
1.48595
1.00285
1.04965
1.08099
1.09667
1.09566
1.08137
1.06074
1.04019
1.02352
1.01668
1.02624
1.05049
1.08065
1.11137
1.13841
1.16076
1.17609
1.18439
1.18901
1.19144
1.19033
1.18393
1.17506
1.16626
1.15859
1.15269
1.14818
1.14492
1.14233
1.14025
1.13867
1.13723
1.13643
1.1358
1.13556
1.13588
1.13652
1.1375
1.13893
1.14074
1.14303
1.14513
1.14764
1.1503
1.15378
1.15745
1.16176
1.1664
1.17142
1.17695
1.18249
1.18862
1.19449
1.20111
1.20735
1.21439
1.22102
1.22834
1.23536
1.24289
1.25033
1.25801
1.26582
1.27358
1.28164
1.28942
1.29768
1.30548
1.31388
1.32179
1.33025
1.33811
1.34644
1.35432
1.3625
1.37045
1.37847
1.38649
1.39435
1.40245
1.41017
1.41827
1.42587
1.43385
1.44134
1.44904
1.45635
1.46365
1.4706
1.47734
1.48379
1.48974
1.49536
1.50018
1.50441
1.50761
1.50959
1.51038
1.51052
1.51247
0.995674
1.03364
1.06048
1.0718
1.06956
1.05729
1.04263
1.03025
1.02335
1.02723
1.04728
1.07861
1.1127
1.14559
1.17439
1.19794
1.21573
1.22717
1.23311
1.23678
1.23844
1.23662
1.23052
1.22258
1.2141
1.20647
1.20024
1.19534
1.19147
1.18831
1.1857
1.18351
1.18181
1.18034
1.17943
1.17894
1.17882
1.1792
1.17994
1.18115
1.18279
1.18433
1.18629
1.1885
1.19143
1.19452
1.19809
1.20216
1.2065
1.21153
1.21655
1.22232
1.22778
1.23405
1.23994
1.24664
1.25303
1.26011
1.26703
1.27443
1.28187
1.28949
1.29732
1.30502
1.31305
1.3207
1.32881
1.33644
1.34461
1.35214
1.3602
1.36766
1.3756
1.38307
1.39087
1.39838
1.40607
1.41365
1.42122
1.4289
1.43634
1.44406
1.45139
1.45897
1.46621
1.47348
1.48052
1.48738
1.49401
1.50034
1.50633
1.51185
1.51672
1.52093
1.52413
1.5262
1.52696
1.52715
1.52657
1.52847
0.987063
1.01291
1.03069
1.03614
1.03183
1.02288
1.01416
1.00966
1.01328
1.03056
1.05959
1.09348
1.12787
1.16031
1.18907
1.21339
1.23318
1.24772
1.25736
1.26269
1.26604
1.2677
1.26665
1.26181
1.25487
1.24732
1.23987
1.23358
1.22821
1.22414
1.2206
1.21804
1.21552
1.21375
1.21215
1.21117
1.21055
1.2104
1.21068
1.21144
1.21266
1.21389
1.21551
1.21739
1.22002
1.22276
1.22617
1.22993
1.23418
1.23894
1.24396
1.24956
1.25507
1.26112
1.26694
1.27328
1.27951
1.28618
1.29296
1.30001
1.30735
1.31473
1.32249
1.33008
1.33806
1.34574
1.35383
1.36146
1.36951
1.37712
1.38513
1.39277
1.4007
1.40835
1.4161
1.42383
1.43136
1.43921
1.44655
1.45442
1.4617
1.46936
1.47664
1.48399
1.4911
1.49812
1.50486
1.51139
1.51766
1.52352
1.52905
1.53384
1.53805
1.5412
1.54329
1.54401
1.54402
1.54377
1.5416
1.54286
0.973838
0.987895
0.994083
0.993902
0.988923
0.984479
0.982267
0.987461
1.00411
1.03118
1.06338
1.09718
1.1304
1.16157
1.18973
1.21458
1.23552
1.25266
1.26575
1.27517
1.28117
1.28496
1.28692
1.28716
1.28411
1.279
1.27293
1.2661
1.25981
1.25454
1.25031
1.24693
1.24429
1.2421
1.24055
1.23925
1.23852
1.23808
1.23788
1.23834
1.23931
1.2404
1.24179
1.24338
1.24566
1.24821
1.25117
1.25467
1.25846
1.26298
1.26752
1.27285
1.27806
1.28392
1.2896
1.29577
1.30191
1.30841
1.31511
1.322
1.32926
1.33649
1.34415
1.35162
1.35954
1.36709
1.37508
1.38258
1.39058
1.39805
1.406
1.41343
1.42127
1.42863
1.43634
1.44361
1.4512
1.45844
1.46593
1.47319
1.48056
1.48777
1.49497
1.502
1.50891
1.51559
1.522
1.52818
1.53392
1.53935
1.54396
1.54801
1.55097
1.55288
1.55349
1.55345
1.55298
1.55117
1.54673
1.54575
0.954106
0.956534
0.95506
0.951484
0.94854
0.948127
0.954709
0.972258
0.999088
1.02989
1.06225
1.09452
1.12564
1.15494
1.18214
1.2067
1.22855
1.24747
1.26357
1.2767
1.28678
1.29419
1.29883
1.3015
1.30261
1.30176
1.29873
1.29418
1.28786
1.28206
1.27685
1.27282
1.26964
1.26716
1.26547
1.26401
1.26313
1.2625
1.26226
1.26253
1.26338
1.26451
1.26585
1.26727
1.26934
1.2717
1.27462
1.27779
1.28155
1.28573
1.29024
1.2952
1.30043
1.30606
1.3118
1.31776
1.32392
1.33019
1.33684
1.34355
1.35067
1.35782
1.36525
1.37271
1.38024
1.38782
1.39541
1.40305
1.41064
1.4183
1.42579
1.43348
1.44081
1.44847
1.45564
1.46317
1.47027
1.47758
1.48468
1.49179
1.49885
1.50578
1.51264
1.51932
1.52581
1.53199
1.53799
1.54352
1.54872
1.55318
1.55694
1.5597
1.5613
1.56175
1.5616
1.56082
1.55855
1.554
1.54748
1.54491
0.930236
0.921514
0.914798
0.911494
0.910694
0.916933
0.934536
0.962693
0.994195
1.02605
1.05719
1.08732
1.11638
1.14404
1.17025
1.19443
1.21706
1.23753
1.25624
1.27221
1.28596
1.29663
1.30517
1.31094
1.3147
1.31652
1.31713
1.31587
1.3123
1.30744
1.30212
1.29765
1.29387
1.29106
1.28905
1.28745
1.28649
1.2858
1.28553
1.28574
1.28645
1.2876
1.28887
1.29022
1.2919
1.29424
1.29668
1.29982
1.30304
1.30719
1.3112
1.31604
1.32095
1.3265
1.33212
1.33801
1.34406
1.35028
1.3568
1.36347
1.37048
1.37758
1.38493
1.39223
1.39969
1.40713
1.4147
1.42224
1.42989
1.43738
1.44503
1.45239
1.45996
1.46723
1.47461
1.48183
1.48895
1.4961
1.50298
1.51
1.5167
1.5235
1.52991
1.53631
1.5422
1.54795
1.55323
1.55807
1.56226
1.56563
1.56808
1.56926
1.56949
1.56923
1.56817
1.5651
1.56038
1.55348
1.54583
1.54296
0.902262
0.88713
0.878821
0.876488
0.881123
0.897445
0.925401
0.9576
0.989592
1.02003
1.04925
1.07727
1.10458
1.13078
1.15597
1.18005
1.20311
1.225
1.24535
1.26383
1.2801
1.29416
1.30583
1.31528
1.32253
1.32718
1.33013
1.33137
1.33154
1.32965
1.32603
1.32202
1.31803
1.31475
1.31227
1.31037
1.30927
1.30854
1.30825
1.30845
1.30902
1.31001
1.31127
1.3125
1.31411
1.31607
1.31867
1.32148
1.32482
1.32859
1.33263
1.33711
1.34191
1.34725
1.35281
1.35868
1.36464
1.37085
1.37724
1.38387
1.3907
1.39767
1.4048
1.41195
1.41928
1.42656
1.434
1.44141
1.4489
1.45634
1.46376
1.4711
1.47843
1.4856
1.49285
1.49981
1.50693
1.51365
1.52057
1.52707
1.53369
1.53993
1.54612
1.5519
1.55739
1.56256
1.56712
1.5711
1.57406
1.57621
1.57688
1.57677
1.57631
1.57475
1.5714
1.56542
1.55839
1.55072
1.54305
1.54066
0.869797
0.853909
0.848911
0.850387
0.863867
0.890734
0.923661
0.955794
0.985931
1.0142
1.04118
1.06741
1.09296
1.1179
1.14218
1.16623
1.18956
1.21256
1.23411
1.25441
1.27293
1.28947
1.30412
1.31654
1.32689
1.33492
1.34091
1.34445
1.34665
1.34781
1.34772
1.34566
1.34243
1.33908
1.33623
1.33396
1.33246
1.33165
1.33129
1.33159
1.33216
1.33315
1.33445
1.33568
1.33717
1.33894
1.34133
1.34399
1.34711
1.35058
1.35442
1.35858
1.36317
1.36818
1.37361
1.37929
1.38518
1.39129
1.39757
1.40416
1.41078
1.41768
1.42448
1.43164
1.43859
1.44594
1.45298
1.46045
1.46756
1.47503
1.48212
1.48941
1.49641
1.50347
1.51035
1.51724
1.52389
1.53057
1.53695
1.54331
1.54936
1.55526
1.56083
1.56605
1.571
1.5753
1.57902
1.58164
1.58344
1.58377
1.58346
1.5826
1.58067
1.57623
1.57007
1.56235
1.55473
1.54741
1.54071
1.5392
0.836095
0.825918
0.824292
0.834511
0.859149
0.891991
0.924482
0.95452
0.982395
1.00856
1.03388
1.05848
1.0828
1.10682
1.13077
1.15482
1.1785
1.20197
1.22425
1.24567
1.2655
1.28393
1.30064
1.3155
1.3285
1.33938
1.34836
1.35506
1.35995
1.36289
1.36517
1.36621
1.36588
1.36383
1.3613
1.35878
1.35704
1.35589
1.35537
1.35554
1.35613
1.35716
1.35845
1.35991
1.36129
1.36308
1.3652
1.36775
1.37056
1.37374
1.3773
1.38123
1.38555
1.39026
1.39547
1.4009
1.40675
1.4126
1.4189
1.42509
1.43169
1.43808
1.44495
1.45153
1.45864
1.46536
1.4726
1.47946
1.48669
1.4937
1.50077
1.5078
1.51462
1.52143
1.52805
1.53454
1.54093
1.5471
1.55309
1.55886
1.5643
1.56948
1.57421
1.57875
1.58259
1.58589
1.58806
1.58928
1.58928
1.58865
1.58742
1.58448
1.57992
1.57271
1.56506
1.55696
1.54972
1.54392
1.53871
1.5384
0.809974
0.805176
0.812231
0.834451
0.866466
0.898175
0.927783
0.955031
0.980523
1.00484
1.02861
1.05212
1.07553
1.09916
1.12283
1.14676
1.17042
1.19387
1.21658
1.23851
1.25935
1.27903
1.2972
1.31403
1.32893
1.34244
1.35388
1.36373
1.3714
1.37722
1.38149
1.38469
1.38677
1.38762
1.38705
1.38526
1.38358
1.38205
1.38139
1.38099
1.38149
1.38238
1.38367
1.38501
1.38639
1.38801
1.39002
1.39236
1.39493
1.39777
1.40101
1.40466
1.40867
1.41318
1.41797
1.42328
1.42876
1.43465
1.44058
1.44676
1.45294
1.45938
1.46579
1.47244
1.47906
1.48586
1.49266
1.49946
1.50637
1.51313
1.52004
1.52671
1.53342
1.53986
1.54629
1.55237
1.55848
1.56414
1.56972
1.57482
1.57962
1.58391
1.58791
1.59129
1.59389
1.59555
1.59606
1.5955
1.59454
1.59261
1.58919
1.58314
1.57566
1.56759
1.55938
1.55259
1.54636
1.5429
1.53909
1.54002
0.78505
0.791771
0.813665
0.845294
0.876683
0.905838
0.932918
0.957911
0.981624
1.00452
1.02707
1.04979
1.07265
1.0959
1.11927
1.14288
1.16626
1.18946
1.21221
1.23426
1.25562
1.2759
1.29515
1.31305
1.32966
1.34475
1.35841
1.37047
1.38089
1.38955
1.39625
1.40166
1.40591
1.40883
1.41066
1.41128
1.41073
1.40955
1.40821
1.4077
1.40744
1.40805
1.40914
1.41051
1.41179
1.41325
1.41513
1.41734
1.41977
1.42236
1.42533
1.42865
1.43236
1.43648
1.44091
1.44586
1.45106
1.45673
1.4624
1.46848
1.47443
1.4808
1.487
1.49355
1.49996
1.50659
1.51313
1.51977
1.52635
1.53294
1.53949
1.546
1.55233
1.55863
1.56458
1.57046
1.57596
1.58122
1.58606
1.59045
1.59436
1.59781
1.6007
1.60262
1.60366
1.60338
1.60235
1.60093
1.59832
1.59385
1.58688
1.57914
1.57041
1.56283
1.55552
1.55055
1.5464
1.54476
1.54272
1.54441
0.770494
0.795787
0.82871
0.860374
0.88921
0.915567
0.940138
0.963183
0.985294
1.00709
1.02875
1.05076
1.07297
1.09561
1.11837
1.14136
1.16424
1.187
1.2095
1.23145
1.25291
1.2734
1.29309
1.3117
1.32941
1.34576
1.36125
1.37513
1.38781
1.39899
1.40833
1.41616
1.42243
1.42791
1.4317
1.43409
1.43576
1.4362
1.43583
1.43497
1.43457
1.43446
1.43518
1.43635
1.43762
1.43904
1.44073
1.44289
1.44531
1.44784
1.45061
1.45359
1.45706
1.46074
1.46498
1.46933
1.47441
1.47947
1.48514
1.49067
1.49664
1.50256
1.50866
1.51495
1.5211
1.52763
1.53381
1.54039
1.54657
1.55302
1.55913
1.56536
1.57129
1.57715
1.58274
1.58804
1.59305
1.5976
1.6017
1.60523
1.60827
1.61069
1.61197
1.61237
1.61142
1.61005
1.60781
1.60443
1.59844
1.5913
1.58252
1.57437
1.56625
1.55994
1.55479
1.55179
1.54991
1.54961
1.54913
1.55159
0.756155
0.802857
0.841548
0.873515
0.901334
0.926227
0.949178
0.970934
0.992125
1.01324
1.03443
1.05592
1.07774
1.09977
1.12198
1.14421
1.16644
1.18851
1.21033
1.23173
1.25265
1.273
1.29267
1.31169
1.3299
1.34729
1.36383
1.37917
1.3936
1.4065
1.41833
1.42853
1.43718
1.44467
1.45118
1.45613
1.45924
1.46145
1.4628
1.46307
1.46264
1.46239
1.46229
1.46303
1.46405
1.46522
1.46649
1.46838
1.47068
1.47328
1.47599
1.47884
1.482
1.48547
1.48932
1.49353
1.4981
1.50298
1.50822
1.51366
1.51942
1.52518
1.53125
1.5372
1.54343
1.5495
1.55575
1.56182
1.56801
1.57393
1.57988
1.58557
1.59112
1.59645
1.60143
1.60613
1.61031
1.61396
1.61708
1.61958
1.62141
1.62224
1.62166
1.62024
1.61827
1.61555
1.61064
1.60411
1.59566
1.58713
1.57851
1.57109
1.56485
1.56053
1.55781
1.55679
1.55674
1.55748
1.55803
1.56084
0.736293
0.797048
0.841311
0.875801
0.905098
0.930992
0.954634
0.976799
0.998256
1.01939
1.04058
1.06173
1.08317
1.10452
1.12612
1.14758
1.16913
1.1905
1.2117
1.23264
1.25318
1.2733
1.29309
1.31219
1.33098
1.34896
1.36629
1.38279
1.39843
1.41306
1.42671
1.43912
1.45028
1.45974
1.46811
1.47529
1.48093
1.4846
1.4869
1.48829
1.48892
1.48884
1.48836
1.48797
1.48851
1.48932
1.49019
1.4915
1.49334
1.49599
1.49869
1.50176
1.50478
1.50829
1.51191
1.51605
1.52038
1.52506
1.53009
1.53536
1.54104
1.54676
1.5528
1.55872
1.56489
1.57089
1.57698
1.58295
1.58883
1.59463
1.6002
1.60568
1.61074
1.61569
1.62001
1.62407
1.62731
1.63
1.63208
1.63328
1.63338
1.6323
1.63028
1.62791
1.6237
1.6181
1.60991
1.60136
1.59234
1.58402
1.57685
1.57115
1.56741
1.56522
1.56471
1.56508
1.566
1.56748
1.56871
1.57158
0.714731
0.780201
0.827573
0.865248
0.897216
0.9254
0.950917
0.974838
0.997782
1.02015
1.04215
1.06374
1.08519
1.10637
1.12752
1.14859
1.1696
1.19058
1.21144
1.23203
1.25244
1.27245
1.29219
1.31149
1.3303
1.34856
1.3663
1.3834
1.40001
1.41588
1.43099
1.44507
1.45792
1.4694
1.47918
1.48759
1.49496
1.50064
1.50439
1.50689
1.50818
1.50885
1.50901
1.5086
1.50819
1.50854
1.50908
1.50978
1.51096
1.51286
1.51559
1.51851
1.52179
1.52525
1.52897
1.53313
1.53741
1.54222
1.54706
1.55241
1.55788
1.56369
1.56962
1.57563
1.58171
1.58772
1.59377
1.59965
1.60554
1.61113
1.61674
1.62187
1.62687
1.63132
1.63524
1.63858
1.64098
1.64293
1.64373
1.64347
1.64196
1.63987
1.63662
1.63156
1.62427
1.61587
1.60655
1.5977
1.58935
1.58267
1.57739
1.57413
1.57243
1.57221
1.5728
1.57364
1.57522
1.57784
1.57965
1.58254
0.667132
0.739341
0.791753
0.834216
0.870186
0.901771
0.930392
0.957218
0.982685
1.00726
1.03111
1.05414
1.07661
1.09851
1.12012
1.1415
1.16272
1.18384
1.20483
1.22567
1.24621
1.26641
1.28628
1.30578
1.32491
1.34365
1.36199
1.37981
1.39713
1.4137
1.42956
1.44445
1.4582
1.4708
1.48193
1.49167
1.5002
1.50763
1.51372
1.51774
1.52022
1.52155
1.52211
1.52212
1.52195
1.52168
1.52165
1.52199
1.52256
1.52364
1.52559
1.52831
1.53163
1.53515
1.53912
1.54324
1.54779
1.55255
1.55761
1.56292
1.5685
1.5743
1.58029
1.58632
1.59239
1.59844
1.6044
1.61035
1.61613
1.62175
1.62718
1.63215
1.63691
1.64088
1.64428
1.6469
1.64868
1.64941
1.64911
1.64768
1.64544
1.64123
1.63536
1.6273
1.61883
1.60939
1.60088
1.59294
1.5867
1.58203
1.57913
1.57789
1.57776
1.57819
1.57934
1.58099
1.58346
1.58646
1.58848
1.59126
0.607114
0.683676
0.741316