/*--------------------------------*- C++ -*----------------------------------*\
  =========                 |
  \\      /  F ield         | OpenFOAM: The Open Source CFD Toolbox
   \\    /   O peration     | Website:  https://openfoam.org
    \\  /    A nd           | Version:  6
     \\/     M anipulation  |
\*---------------------------------------------------------------------------*/
FoamFile
{
    version     2.0;
    format      ascii;
    class       surfaceScalarField;
    location    "118.7";
    object      phi;
}
// * * * * * * * * * * * * * * * * * * * * * * * * * * * * * * * * * * * * * //

dimensions      [0 3 -1 0 0 0 0];

internalField   nonuniform List<scalar> 
17370
(
-0.0899999
0.089849
0.289162
-0.0714625
0.0537528
0.364485
-0.0381198
0.027691
0.426597
-0.0196398
0.0146078
0.504284
-0.0107672
0.00827824
0.601891
-0.00627987
0.00490393
0.720433
-0.00373976
0.00289835
0.863748
-0.00215559
0.0015953
1.03601
-0.00107752
0.000663876
1.24292
-0.000254737
-0.000145479
1.49159
0.00052648
-0.000937214
1.4916
0.00133047
-0.00180948
1.24317
0.00233001
-0.00303491
1.03634
0.00385141
-0.00499853
0.864054
0.00636623
-0.00836023
0.721051
0.0108462
-0.0146827
0.603051
0.0197098
-0.0277541
0.507484
0.0381754
-0.0537998
0.431792
0.0715015
-0.0898755
0.36515
0.0900165
0.198994
-0.128139
0.0882317
0.0399075
-0.364602
0.353385
-0.0746664
0.0858835
-0.446478
0.454324
-0.0843785
0.0765322
-0.521193
0.529905
-0.068434
0.0597218
-0.612792
0.621572
-0.0515324
0.0427527
-0.726898
0.734168
-0.0352915
0.028021
-0.867478
0.872597
-0.0224178
0.0172981
-1.03848
1.04193
-0.0134837
0.0100288
-1.2446
1.24704
-0.00741374
0.00497648
-1.49262
1.49461
-0.00302332
0.00103465
-1.49251
1.49423
0.000637594
-0.00236369
-1.24397
1.24585
0.00427438
-0.00615416
-1.03751
1.04002
0.00849263
-0.0110063
-0.866095
0.869826
0.0143553
-0.0180859
-0.724388
0.72993
0.0231275
-0.02867
-0.608695
0.616107
0.0358825
-0.0432944
-0.514894
0.523037
0.0520228
-0.0601652
-0.439854
0.447911
0.0688258
-0.0768826
-0.375293
0.376735
0.0846755
-0.0861178
-0.257327
0.22247
0.0748248
-0.0399682
-0.0685288
0.0587061
0.00982267
-0.0517908
0.058367
-0.374137
0.367561
-0.0574459
0.0536898
-0.453602
0.457358
-0.0485972
0.0446422
-0.527956
0.531911
-0.0407996
0.0371579
-0.621575
0.625216
-0.0330519
0.0289705
-0.73536
0.739441
-0.0243921
0.0202242
-0.874352
0.878519
-0.0158686
0.0121662
-1.0435
1.0472
-0.00841993
0.00524005
-1.24857
1.25175
-0.00190518
-0.00117523
-1.49666
1.49974
0.00422912
-0.0074975
-1.4972
1.50047
0.0105685
-0.0141518
-1.25006
1.25365
0.0176905
-0.0218722
-1.04591
1.05009
0.0258963
-0.0303338
-0.877747
0.882184
0.0343003
-0.0382925
-0.739888
0.74388
0.0418378
-0.0455812
-0.626762
0.630505
0.0494508
-0.0544619
-0.534801
0.539812
0.0581257
-0.0589313
-0.457465
0.45827
0.0522166
-0.0320025
-0.335735
0.315521
0.00989168
-0.0683329
0.0584413
-0.0529601
0.0489694
0.00399068
-0.033128
0.0436584
-0.35814
0.34761
-0.0473451
0.0467099
-0.459305
0.45994
-0.0436475
0.0402897
-0.535823
0.539181
-0.0365117
0.033202
-0.628553
0.631862
-0.0297564
0.0267154
-0.742674
0.745715
-0.0234443
0.0203253
-0.882045
0.885164
-0.0167811
0.0133896
-1.0508
1.05419
-0.00958419
0.0060356
-1.25519
1.25874
-0.00205623
-0.00175022
-1.50325
1.50706
0.00552385
-0.0093993
-1.50412
1.508
0.0127944
-0.0163775
-1.2574
1.26098
0.0195442
-0.0228451
-1.05389
1.05719
0.0257579
-0.0288221
-0.885658
0.888722
0.0316923
-0.0349678
-0.747129
0.750404
0.0381342
-0.0417674
-0.63428
0.637913
0.0450012
-0.0479207
-0.544112
0.547032
0.0484035
-0.0445013
-0.456544
0.452641
0.0337118
-0.0162403
-0.296136
0.278664
0.00407723
-0.052616
0.0485388
-0.045898
0.043409
0.00248908
-0.0227602
0.0331153
-0.336941
0.326586
-0.0389164
0.0399202
-0.459638
0.458634
-0.0387191
0.0364249
-0.541912
0.544206
-0.0337496
0.0311452
-0.634928
0.637532
-0.0280706
0.0251581
-0.748773
0.751686
-0.0218764
0.0188658
-0.888129
0.891139
-0.0155422
0.0124266
-1.05733
1.06045
-0.00888424
0.0054621
-1.26221
1.26563
-0.00148606
-0.00240918
-1.51094
1.51483
0.00625995
-0.0100967
-1.51188
1.51572
0.0133161
-0.0165684
-1.26443
1.26768
0.0193911
-0.0223955
-1.06028
1.06328
0.0251311
-0.0281336
-0.891752
0.894755
0.0308124
-0.0336526
-0.753595
0.756435
0.0360596
-0.0385382
-0.640965
0.643444
0.0406643
-0.0416414
-0.54882
0.549797
0.0404008
-0.0342514
-0.447338
0.441189
0.0235128
-0.0102629
-0.263416
0.250167
0.00259638
-0.045368
0.0427716
-0.0413421
0.0395831
0.00175898
-0.0166862
0.0259038
-0.316764
0.307547
-0.0324777
0.0345964
-0.457056
0.454937
-0.0341592
0.0324771
-0.5462
0.547882
-0.0302854
0.0281787
-0.639856
0.641962
-0.0257317
0.0233164
-0.754347
0.756762
-0.0204351
0.0176236
-0.894049
0.896861
-0.0143626
0.0112716
-1.06351
1.0666
-0.00775934
0.00441553
-1.26896
1.2723
-0.000565587
-0.00318176
-1.51862
1.52237
0.00687201
-0.0105437
-1.51944
1.52311
0.0136289
-0.0167732
-1.27094
1.27408
0.0194924
-0.0223455
-1.06629
1.06914
0.0248025
-0.0273212
-0.89754
0.900059
0.0294327
-0.0315759
-0.758865
0.761008
0.0334289
-0.0353661
-0.645579
0.647517
0.0368025
-0.0369345
-0.550292
0.550424
0.034451
-0.0273645
-0.434486
0.427399
0.0176281
-0.00744167
-0.238596
0.228409
0.00189031
-0.0405827
0.0386924
-0.0380711
0.036752
0.00131911
-0.0127091
0.0206092
-0.298996
0.291096
-0.0273131
0.0302029
-0.45241
0.44952
-0.0303827
0.0292438
-0.549336
0.550475
-0.0272361
0.0253034
-0.644021
0.645954
-0.0230815
0.0209199
-0.759022
0.761184
-0.0183741
0.0158607
-0.899455
0.901968
-0.0128849
0.00997563
-1.06956
1.07247
-0.00658275
0.00331597
-1.27558
1.27885
0.000455094
-0.0041027
-1.52602
1.52967
0.00767852
-0.0112249
-1.52669
1.53024
0.0141673
-0.0171011
-1.27722
1.28015
0.0195474
-0.0220139
-1.07185
1.07431
0.0240824
-0.0261707
-0.90231
0.904398
0.0279476
-0.0297832
-0.762966
0.764802
0.0313947
-0.0330918
-0.649315
0.651012
0.0338712
-0.0332625
-0.550183
0.549574
0.0298484
-0.0224399
-0.420091
0.412682
0.013871
-0.00578674
-0.219372
0.211288
0.00147908
-0.0370317
0.0355526
-0.0356036
0.0345918
0.00101181
-0.00989303
0.0165486
-0.283847
0.277192
-0.0229678
0.0262934
-0.4464
0.443075
-0.0270379
0.0263124
-0.551412
0.552138
-0.0245314
0.0227255
-0.647878
0.649684
-0.0206259
0.0185766
-0.763283
0.765332
-0.016164
0.0137969
-0.904332
0.906699
-0.0110138
0.00828893
-1.07521
1.07793
-0.00508987
0.00197047
-1.282
1.28512
0.0016725
-0.00521076
-1.53323
1.53677
0.00865986
-0.0120237
-1.53366
1.53703
0.014742
-0.017376
-1.28303
1.28566
0.019532
-0.0216878
-1.07666
1.07881
0.0235043
-0.0253489
-0.906332
0.908176
0.0269199
-0.0285395
-0.766518
0.768138
0.0299462
-0.0312937
-0.652564
0.653912
0.0315728
-0.0302179
-0.548597
0.547242
0.026167
-0.0188171
-0.405271
0.397921
0.0113192
-0.00469525
-0.204
0.197376
0.00120655
-0.0342235
0.0330169
-0.0337081
0.0329256
0.000782427
-0.007797
0.0133643
-0.271115
0.265547
-0.0192778
0.0227817
-0.439659
0.436155
-0.0239873
0.0235003
-0.552792
0.553279
-0.0219779
0.0202746
-0.651503
0.653207
-0.018261
0.0162879
-0.767335
0.769308
-0.0139562
0.0116664
-0.908952
0.911242
-0.00897571
0.00635161
-1.08053
1.08315
-0.00328399
0.000299619
-1.28811
1.2911
0.00318006
-0.00655095
-1.54018
1.54355
0.00981223
-0.0129493
-1.54024
1.54337
0.0154426
-0.0178208
-1.28827
1.29064
0.0197515
-0.0216756
-1.0809
1.08283
0.0232892
-0.0249214
-0.909887
0.911519
0.0263061
-0.0277286
-0.769645
0.771068
0.0289316
-0.0298861
-0.655062
0.656016
0.0297834
-0.0277433
-0.545531
0.543491
0.023268
-0.0161577
-0.39068
0.383569
0.00954213
-0.00394631
-0.191312
0.185716
0.00101924
-0.0319138
0.0308945
-0.0322441
0.0316408
0.00060337
-0.00617047
0.0108043
-0.26048
0.255847
-0.0161047
0.0195875
-0.432673
0.42919
-0.021097
0.0208247
-0.553715
0.553987
-0.019523
0.0178724
-0.654948
0.656599
-0.0159043
0.0139698
-0.771248
0.773182
-0.011684
0.0094408
-0.913422
0.915665
-0.00680552
0.00424012
-1.08567
1.08823
-0.00125099
-0.0016385
-1.29397
1.29686
0.00497804
-0.00818158
-1.54678
1.54998
0.0112514
-0.0141734
-1.54635
1.54927
0.0164653
-0.0186175
-1.29303
1.29518
0.0203419
-0.0220456
-1.0847
1.0864
0.0234633
-0.0248915
-0.913015
0.914443
0.0261033
-0.0273449
-0.772384
0.773625
0.0284029
-0.0289302
-0.656765
0.657292
0.028425
-0.0257971
-0.541148
0.53852
0.0210449
-0.0142311
-0.376609
0.369795
0.00830159
-0.00343076
-0.180517
0.175646
0.000891084
-0.0299469
0.0290558
-0.031121
0.030664
0.000457036
-0.00485167
0.008676
-0.251651
0.247826
-0.0133168
0.0166275
-0.425816
0.422505
-0.0182983
0.0182025
-0.554238
0.554334
-0.0170809
0.0154563
-0.65832
0.659945
-0.0134979
0.0115649
-0.775094
0.777027
-0.00928237
0.00704905
-0.917803
0.920036
-0.00443539
0.00190127
-1.09069
1.09322
0.00103782
-0.00386089
-1.29965
1.30248
0.00709576
-0.010165
-1.55305
1.55612
0.0130717
-0.0157996
-1.55203
1.55476
0.0178978
-0.0198246
-1.29737
1.29929
0.021343
-0.0228297
-1.08807
1.08955
0.0240613
-0.0253015
-0.915737
0.916977
0.026358
-0.0274356
-0.774763
0.775841
0.0282791
-0.0284336
-0.657618
0.657773
0.0274922
-0.0243489
-0.535627
0.532484
0.019407
-0.012872
-0.363133
0.356598
0.00745207
-0.00308449
-0.171055
0.166687
0.000806672
-0.0282135
0.0274068
-0.0302793
0.0299474
0.000331911
-0.00373682
0.00684489
-0.244392
0.241284
-0.0108118
0.0138377
-0.419369
0.416343
-0.0155398
0.0155807
-0.554443
0.554402
-0.0145271
0.0129606
-0.661635
0.663202
-0.0109808
0.00901422
-0.778946
0.780913
-0.00669358
0.00443198
-0.922168
0.92443
-0.00179898
-0.000738822
-1.09566
1.09819
0.00366258
-0.00644925
-1.30521
1.308
0.00961249
-0.0125776
-1.55906
1.56203
0.0153461
-0.0178963
-1.55733
1.55988
0.0198071
-0.0215104
-1.30127
1.30298
0.0228253
-0.0241004
-1.09101
1.09229
0.0251511
-0.0262094
-0.91808
0.919139
0.0271178
-0.0280343
-0.7768
0.777717
0.0286137
-0.028457
-0.657773
0.657617
0.0270286
-0.0233981
-0.529099
0.525469
0.0182983
-0.0119761
-0.350187
0.343865
0.00690772
-0.00286973
-0.162508
0.15847
0.000756643
-0.0266311
0.0258745
-0.0296811
0.0294622
0.000218852
-0.00274903
0.00520525
-0.238533
0.236077
-0.00849531
0.0111509
-0.413543
0.410888
-0.0127676
0.0128686
-0.554429
0.554328
-0.0118416
0.0103
-0.664861
0.666403
-0.00827215
0.00623959
-0.782869
0.784902
-0.00384172
0.00151388
-0.926594
0.928921
0.00118223
-0.0037643
-1.10064
1.10322
0.00671622
-0.00950328
-1.3107
1.31349
0.0126301
-0.0155181
-1.56487
1.56776
0.0181691
-0.0205574
-1.56226
1.56465
0.0222896
-0.0237732
-1.30477
1.30625
0.0248851
-0.0259464
-1.09354
1.09461
0.0268105
-0.0276758
-0.920055
0.920921
0.0284206
-0.0291667
-0.778455
0.779201
0.0294532
-0.0289409
-0.657331
0.656819
0.0270377
-0.0229385
-0.521625
0.517525
0.0176721
-0.0114679
-0.337625
0.331421
0.00660907
-0.00275951
-0.154548
0.150698
0.000733829
-0.0251346
0.0244008
-0.029306
0.0291959
0.000110046
-0.0018234
0.00366256
-0.23396
0.23212
-0.00626732
0.00847974
-0.408503
0.406291
-0.00990082
0.00998122
-0.554359
0.554279
-0.00894358
0.00738428
-0.668076
0.669635
-0.00527591
0.0031433
-0.786925
0.789057
-0.000627777
-0.00180475
-0.931152
0.933584
0.00460768
-0.0072748
-1.10572
1.10839
0.0102993
-0.0131251
-1.3162
1.31903
0.0162525
-0.0190911
-1.57052
1.57336
0.0216447
-0.0238848
-1.56685
1.5691
0.0254438
-0.0267116
-1.30785
1.30911
0.0276214
-0.0284644
-1.09566
1.0965
0.0291331
-0.0297976
-0.921641
0.922305
0.0303846
-0.0309775
-0.779761
0.780354
0.0308901
-0.0299509
-0.656134
0.655195
0.0275422
-0.0229591
-0.513218
0.508634
0.0174847
-0.0112893
-0.325249
0.319053
0.00651289
-0.00273456
-0.146904
0.143126
0.000733194
-0.0236725
0.0229394
-0.0291488
0.0291479
8.93264e-07
-0.000910395
0.00214271
-0.230613
0.229381
-0.00404376
0.00574678
-0.40439
0.402687
-0.00686818
0.00684463
-0.554403
0.554426
-0.00574587
0.00412503
-0.671367
0.672988
-0.00189226
-0.000378517
-0.791179
0.79345
0.00305669
-0.00563681
-0.93592
0.9385
0.00859479
-0.0113912
-1.11098
1.11378
0.0145357
-0.0174411
-1.32179
1.3247
0.0206096
-0.0234297
-1.57608
1.5789
0.0259076
-0.028013
-1.57114
1.57325
0.0294064
-0.0304619
-1.31052
1.31158
0.0311695
-0.031791
-1.09734
1.09796
0.0322583
-0.0327069
-0.922819
0.923267
0.0331014
-0.0334084
-0.78067
0.780977
0.0330116
-0.0315625
-0.654077
0.652628
0.0286049
-0.0234876
-0.503828
0.498711
0.0177291
-0.0114155
-0.31283
0.306517
0.00659862
-0.00278535
-0.13935
0.135537
0.000752188
-0.0222019
0.0214497
-0.0292131
0.0293294
-0.000116334
3.85526e-05
0.000576051
-0.228479
0.227865
-0.00173973
0.00286631
-0.401336
0.400209
-0.00358693
0.00337381
-0.55474
0.554953
-0.00215247
0.000409007
-0.674831
0.676575
0.001991
-0.00444591
-0.795707
0.798162
0.00733889
-0.0101154
-0.940985
0.943762
0.0132829
-0.0162581
-1.11651
1.11948
0.019575
-0.0226042
-1.32755
1.33058
0.0258559
-0.0286891
-1.58161
1.58444
0.0311137
-0.0330972
-1.57514
1.57712
0.034332
-0.035175
-1.31278
1.31362
0.0356718
-0.0360599
-1.09857
1.09895
0.036317
-0.0365429
-0.92356
0.923786
0.0367258
-0.0366782
-0.780993
0.780945
0.0359173
-0.0338704
-0.650975
0.648928
0.0302877
-0.0245492
-0.49334
0.487601
0.0184014
-0.0118285
-0.300109
0.293536
0.00685011
-0.00290352
-0.131677
0.12773
0.000788215
-0.0206846
0.0198964
-0.0295147
0.0297698
-0.000255094
0.00103452
-0.00109972
-0.227597
0.227662
0.0007317
-0.0002544
-0.399482
0.399005
3.68699e-05
-0.000536736
-0.555564
0.556064
0.00195026
-0.00388007
-0.678591
0.680521
0.00651025
-0.00920374
-0.800599
0.803293
0.0123719
-0.015401
-0.946448
0.949477
0.0188404
-0.0220505
-1.1224
1.12561
0.025598
-0.0287991
-1.33357
1.33677
0.032178
-0.0350523
-1.58716
1.59003
0.0374369
-0.0393092
-1.57886
1.58073
0.040396
-0.0410246
-1.31459
1.31522
0.0412969
-0.041432
-1.09931
1.09945
0.0414586
-0.0414459
-0.923836
0.923823
0.0414396
-0.0409237
-0.780603
0.780087
0.0397146
-0.036964
-0.646663
0.643913
0.0326514
-0.0261677
-0.481559
0.475075
0.0194978
-0.0125116
-0.286796
0.279809
0.0072518
-0.00308038
-0.123691
0.119519
0.00083838
-0.019088
0.0182496
-0.0300951
0.0304933
-0.000398183
0.00214589
-0.00287338
-0.228034
0.228761
0.00339359
-0.00369079
-0.398976
0.399273
0.0041326
-0.00501927
-0.557106
0.557992
0.00669788
-0.00888723
-0.682779
0.684969
0.0118245
-0.014825
-0.805963
0.808964
0.0183413
-0.0216897
-0.952422
0.955771
0.0254732
-0.0289814
-1.12878
1.13229
0.0328234
-0.0362471
-1.33994
1.34337
0.0397975
-0.0427399
-1.59279
1.59573
0.0450936
-0.0468496
-1.5823
1.58406
0.0477744
-0.0481947
-1.31596
1.31638
0.0482344
-0.0481015
-1.09953
1.0994
0.0478851
-0.0476167
-0.923598
0.923329
0.0473513
-0.0463208
-0.779318
0.778288
0.0445579
-0.040959
-0.640929
0.63733
0.0357681
-0.0283691
-0.468219
0.46082
0.0210147
-0.0134475
-0.272575
0.265008
0.00778678
-0.00330609
-0.115212
0.110731
0.000899326
-0.0173852
0.0164859
-0.0309846
0.0315647
-0.000580065
0.00342952
-0.00495291
-0.229912
0.231435
0.00640306
-0.00754277
-0.400015
0.401155
0.00876682
-0.0101843
-0.559581
0.560999
0.0122731
-0.0148079
-0.687538
0.690073
0.0181433
-0.02153
-0.811934
0.815321
0.0254799
-0.0292255
-0.959047
0.962793
0.0334358
-0.0373125
-1.13577
1.13965
0.0415171
-0.045214
-1.34677
1.35047
0.0489761
-0.0520073
-1.59856
1.60159
0.0543364
-0.0559734
-1.58546
1.5871
0.0567367
-0.0569251
-1.31686
1.31705
0.0567066
-0.0562885
-1.09919
1.09878
0.0558217
-0.0552727
-0.922818
0.922269
0.0546018
-0.0530707
-0.777098
0.775567
0.0505835
-0.0459523
-0.633464
0.628833
0.0396907
-0.0311593
-0.452957
0.444426
0.02293
-0.0146038
-0.257107
0.248781
0.00842771
-0.00356551
-0.106077
0.101215
0.00096598
-0.015557
0.014591
-0.0322506
0.0330653
-0.00081466
0.00501304
-0.0074543
-0.233431
0.235872
0.00998799
-0.0120761
-0.402814
0.404902
0.0142025
-0.0162738
-0.56325
0.565321
0.0189091
-0.0218919
-0.693049
0.696032
0.0257411
-0.0296083
-0.818679
0.822546
0.0340949
-0.0383289
-0.966483
0.970717
0.0430595
-0.04738
-1.14352
1.14784
0.052015
-0.0560297
-1.35415
1.35816
0.0600299
-0.0631521
-1.60449
1.60761
0.0654421
-0.0669411
-1.58831
1.58981
0.0675351
-0.067441
-1.3172
1.31711
0.0669486
-0.0662178
-1.09826
1.09753
0.0654866
-0.0646787
-0.921443
0.920635
0.0634796
-0.0613372
-0.773935
0.771793
0.0579539
-0.0520319
-0.623867
0.617945
0.0444416
-0.0345052
-0.435315
0.425378
0.0251843
-0.0159196
-0.240033
0.230768
0.00912843
-0.0038348
-0.0961514
0.0908577
0.00103077
-0.0135953
0.0125645
-0.0339895
0.0351126
-0.00112316
0.00700952
-0.0105621
-0.23883
0.242383
0.0143725
-0.0175438
-0.407669
0.41084
0.0207084
-0.0235656
-0.5684
0.571258
0.0269076
-0.0304675
-0.699543
0.703102
0.0349846
-0.0394527
-0.826396
0.830864
0.0445994
-0.049425
-0.974917
0.979743
0.0547751
-0.0596122
-1.15216
1.157
0.0647325
-0.0690891
-1.36216
1.36652
0.0733237
-0.0765075
-1.61057
1.61375
0.078715
-0.0800259
-1.59079
1.59211
0.0804196
-0.0800163
-1.31688
1.31648
0.0792195
-0.0781485
-1.09667
1.0956
0.077152
-0.0760402
-0.919508
0.918396
0.0742788
-0.0713319
-0.769607
0.76666
0.0667903
-0.0592163
-0.611602
0.604028
0.0499615
-0.0382939
-0.414726
0.403058
0.0276517
-0.0172872
-0.221001
0.210636
0.00981474
-0.0040784
-0.0853514
0.0796151
0.00108312
-0.0115085
0.0104254
-0.0363374
0.0378838
-0.00154642
0.0096278
-0.0145616
-0.246464
0.251398
0.0198971
-0.0243318
-0.414953
0.419388
0.0286832
-0.0324804
-0.575364
0.579162
0.0367107
-0.0410353
-0.707296
0.71162
0.0463905
-0.0516116
-0.835327
0.840548
0.057564
-0.0630919
-0.984559
0.990087
0.0691542
-0.0745601
-1.16185
1.16725
0.0801842
-0.0848631
-1.37083
1.37551
0.0892732
-0.0924366
-1.61672
1.61988
0.0944722
-0.0955042
-1.59279
1.59382
0.095624
-0.0949132
-1.31584
1.31513
0.0937411
-0.0923251
-1.09439
1.09297
0.0910624
-0.0894594
-0.916824
0.915221
0.0871759
-0.0831302
-0.763666
0.75962
0.0770878
-0.0673963
-0.595916
0.586225
0.0560589
-0.0422898
-0.390523
0.376753
0.0301077
-0.0185356
-0.199711
0.188139
0.0103779
-0.00424799
-0.0736822
0.0675523
0.00110961
-0.00932773
0.00821812
-0.0395054
0.0416653
-0.00215997
0.0132386
-0.0199387
-0.256842
0.263542
0.0271071
-0.033016
-0.425144
0.431053
0.0387435
-0.0436751
-0.584534
0.589466
0.0490139
-0.0543297
-0.716698
0.722014
0.0607673
-0.066918
-0.845773
0.851923
0.0738206
-0.080138
-0.995626
1.00194
0.0869583
-0.0929263
-1.17265
1.17861
0.0989937
-0.103897
-1.38008
1.38499
0.108337
-0.111324
-1.62274
1.62573
0.113036
-0.113655
-1.5941
1.59472
0.113403
-0.112322
-1.31403
1.31295
0.110759
-0.108971
-1.09141
1.08962
0.107421
-0.105271
-0.913016
0.910866
0.102297
-0.0967575
-0.755482
0.749942
0.0886983
-0.0762599
-0.575833
0.563394
0.0623319
-0.0460798
-0.361971
0.345719
0.032201
-0.0194236
-0.175998
0.163221
0.0106768
-0.00428595
-0.0612812
0.0548904
0.00109554
-0.00711138
0.00601584
-0.0438373
0.0469447
-0.00310739
0.0184867
-0.0274967
-0.270718
0.279727
0.0368993
-0.0445919
-0.438932
0.446625
0.0519882
-0.0582861
-0.596411
0.602709
0.0650623
-0.0717422
-0.728186
0.734865
0.0794557
-0.086644
-0.858063
0.865252
0.0945604
-0.101665
-1.00826
1.01537
0.109167
-0.115564
-1.1845
1.19089
0.121871
-0.126777
-1.38966
1.39457
0.130981
-0.133543
-1.62828
1.63084
0.134706
-0.134717
-1.59444
1.59445
0.133975
-0.132447
-1.31127
1.30975
0.130483
-0.128261
-1.08766
1.08544
0.126292
-0.123628
-0.907964
0.9053
0.119554
-0.111924
-0.74418
0.73655
0.10115
-0.0851769
-0.550057
0.534083
0.0680942
-0.0490419
-0.32836
0.309308
0.0334544
-0.0196605
-0.149958
0.136164
0.0105585
-0.00413657
-0.0484617
0.0420398
0.00102834
-0.00494574
0.0039174
-0.0499343
0.054647
-0.00471269
0.0266321
-0.0387583
-0.289284
0.30141
0.0510307
-0.0610803
-0.457432
0.467482
0.0705235
-0.0784685
-0.611575
0.61952
0.0870305
-0.0952643
-0.742305
0.750539
0.10439
-0.112614
-0.872405
0.880629
0.121412
-0.129083
-1.02237
1.03004
0.136939
-0.143417
-1.19703
1.20351
0.149551
-0.154077
-1.39905
1.40357
0.157631
-0.159414
-1.63278
1.63456
0.159728
-0.158882
-1.59339
1.59255
0.157489
-0.155407
-1.30734
1.30525
0.152978
-0.150228
-1.08303
1.08028
0.147818
-0.144373
-0.901458
0.898014
0.13869
-0.128014
-0.728433
0.717757
0.113547
-0.0931041
-0.516966
0.496523
0.0723375
-0.050382
-0.289202
0.267247
0.0333363
-0.0189743
-0.122114
0.107752
0.00990274
-0.00376403
-0.0357312
0.0295925
0.000900364
-0.00293678
0.00203641
-0.0589414
0.0669973
-0.00805587
0.0409137
-0.057643
-0.314761
0.33149
0.0739596
-0.0870924
-0.482237
0.49537
0.0986531
-0.108245
-0.630558
0.64015
0.118605
-0.128292
-0.759244
0.76893
0.13852
-0.147295
-0.888577
0.897352
0.156332
-0.163936
-1.03734
1.04494
0.171463
-0.177393
-1.20941
1.21534
0.182712
-0.186272
-1.40736
1.41092
0.18862
-0.189155
-1.63548
1.63601
0.188234
-0.186236
-1.59045
1.58845
0.183989
-0.181235
-1.30194
1.29919
0.178241
-0.174885
-1.0773
1.07395
0.171845
-0.167081
-0.892743
0.88798
0.158859
-0.143741
-0.706135
0.691016
0.124244
-0.0984672
-0.47463
0.448853
0.0738462
-0.049386
-0.244607
0.220146
0.0315065
-0.0172781
-0.093571
0.0793427
0.00870268
-0.00317476
-0.023751
0.0182231
0.000710469
-0.00119227
0.000481797
-0.0744737
0.0790599
-0.00458619
0.0315486
-0.0462564
-0.351209
0.365917
0.0609589
-0.0730689
-0.514576
0.526686
0.0842569
-0.0950206
-0.653269
0.664032
0.107401
-0.11872
-0.777904
0.789223
0.131374
-0.142755
-0.905154
0.916535
0.155071
-0.166219
-1.05167
1.06282
0.178168
-0.188726
-1.22027
1.23082
0.199693
-0.208966
-1.41342
1.42269
0.218025
-0.224983
-1.63542
1.64238
0.229919
-0.233599
-1.58498
1.58867
0.235911
-0.237632
-1.29477
1.29649
0.238434
-0.23801
-1.06999
1.06957
0.236553
-0.230517
-0.880216
0.87418
0.217169
-0.192099
-0.674242
0.649172
0.16026
-0.12089
-0.421465
0.382095
0.0863529
-0.054595
-0.19582
0.164062
0.0331796
-0.0173137
-0.0660484
0.0501826
0.00826161
-0.00279329
-0.0131966
0.00772829
0.00054427
0.000241652
-0.000785922
-0.0870024
0.085173
0.00182945
0.009196
-0.0190325
-0.383672
0.393509
0.0304089
-0.0393544
-0.543885
0.55283
0.0485738
-0.0577555
-0.677513
0.686695
0.0690868
-0.0797138
-0.799993
0.81062
0.0912057
-0.101796
-0.927387
0.937977
0.113248
-0.123287
-1.07376
1.0838
0.13428
-0.143669
-1.24128
1.25067
0.153472
-0.161608
-1.43181
1.43994
0.169291
-0.175181
-1.64886
1.65475
0.179224
-0.182086
-1.59146
1.59432
0.183565
-0.184704
-1.29634
1.29748
0.185115
-0.184232
-1.06765
1.06676
0.181176
-0.17225
-0.862635
0.85371
0.156398
-0.131021
-0.619308
0.593931
0.102859
-0.0720501
-0.340331
0.309522
0.0482169
-0.0286948
-0.133824
0.114302
0.0165264
-0.00815147
-0.0357476
0.0273726
0.00364095
-0.00112198
-0.0026047
8.57214e-05
0.000166199
0.00150706
-0.00167326
-0.0889302
0.0859633
0.0029669
-0.000163729
-0.00576184
-0.406162
0.412087
0.0134917
-0.0203064
-0.566093
0.572907
0.0274565
-0.0354053
-0.698355
0.706304
0.0453088
-0.0545957
-0.820144
0.829431
0.0648758
-0.0742146
-0.947786
0.957125
0.0841069
-0.0932159
-1.09374
1.10285
0.103026
-0.111566
-1.25974
1.26828
0.120112
-0.127155
-1.44761
1.45466
0.134021
-0.139065
-1.66028
1.66532
0.142343
-0.144498
-1.59649
1.59865
0.145414
-0.146165
-1.29683
1.29759
0.146033
-0.144664
-1.06315
1.06178
0.140369
-0.129797
-0.840648
0.830076
0.113418
-0.0897738
-0.564991
0.541346
0.0664501
-0.0437376
-0.276933
0.25422
0.0281438
-0.0163387
-0.0953937
0.0835886
0.00926741
-0.00453515
-0.0192905
0.0145582
0.0020143
-0.000613581
0.00258105
-0.00398176
8.92754e-05
0.00203215
-0.00212143
-0.0878337
0.084981
0.00285268
-0.00433601
0.00113404
-0.421608
0.42481
0.0040536
-0.00935009
-0.583095
0.588391
0.0155198
-0.0222508
-0.715635
0.722366
0.0307812
-0.0388138
-0.837947
0.84598
0.0476898
-0.0557944
-0.965918
0.974023
0.0647981
-0.0726847
-1.11154
1.11943
0.0814062
-0.0885823
-1.27647
1.28364
0.0961846
-0.102437
-1.4616
1.46785
0.108334
-0.112416
-1.6702
1.67428
0.115258
-0.117082
-1.60026
1.60209
0.117688
-0.117653
-1.29677
1.29674
0.117118
-0.115222
-1.05704
1.05514
0.110016
-0.0991719
-0.81581
0.804967
0.0834526
-0.0630465
-0.514978
0.494571
0.0448142
-0.0287201
-0.230493
0.214399
0.0182852
-0.0106384
-0.0713379
0.0636912
0.00607862
-0.00301804
-0.00950221
0.00644162
0.0013735
-0.000433303
0.00562838
-0.00656858
6.79922e-05
0.00233493
-0.00240292
-0.086402
0.0838037
0.00259827
-0.00598696
0.00450975
-0.432245
0.433722
-0.000528913
-0.00353591
-0.5969
0.600965
0.00855869
-0.0146263
-0.730261
0.736328
0.0218218
-0.0288878
-0.853203
0.860269
0.0366117
-0.043696
-0.981659
0.988743
0.0514962
-0.05854
-1.12718
1.13423
0.0660596
-0.0726204
-1.2907
1.29726
0.0792895
-0.0847509
-1.47379
1.47925
0.0898529
-0.0933075
-1.67837
1.68182
0.0956619
-0.0969028
-1.60324
1.60448
0.0972183
-0.096951
-1.29569
1.29542
0.0959991
-0.0934711
-1.0498
1.04728
0.0880475
-0.0773158
-0.790601
0.779869
0.0632223
-0.0461172
-0.471919
0.454813
0.032117
-0.0204866
-0.197005
0.185374
0.0130804
-0.00773839
-0.0552726
0.0499305
0.0045304
-0.00231386
-0.00291436
0.00069781
0.0010899
-0.000359311
0.0077411
-0.00847169
6.66946e-05
0.00255144
-0.00261813
-0.0849381
0.0826413
0.00229676
-0.00634027
0.00551862
-0.439713
0.440535
-0.00302728
-0.000312297
-0.607687
0.611027
0.00511363
-0.0102929
-0.742692
0.747871
0.0164592
-0.0225726
-0.866437
0.87255
0.0293972
-0.0356928
-0.995442
1.00174
0.0427594
-0.0489235
-1.14097
1.14713
0.0556298
-0.0614747
-1.30351
1.30935
0.0673319
-0.0720877
-1.48445
1.48921
0.0764471
-0.0796927
-1.68529
1.68853
0.0815494
-0.0825899
-1.60529
1.60634
0.0826288
-0.0820237
-1.29428
1.29367
0.0809149
-0.0778159
-1.04171
1.03861
0.0722374
-0.0621224
-0.766076
0.755961
0.0495952
-0.0353677
-0.435666
0.421438
0.0244561
-0.0156803
-0.17234
0.163564
0.01019
-0.00615592
-0.0437062
0.0396721
0.00367097
-0.00191899
0.00196626
-0.00371824
0.000924445
-0.000321005
0.00936635
-0.00996979
6.57432e-05
0.00272207
-0.00278781
-0.083673
0.0818009
0.00187208
-0.00587138
0.00556912
-0.445226
0.445528
-0.00354441
0.00101257
-0.61703
0.619562
0.0033676
-0.00800194
-0.753411
0.758046
0.0137377
-0.0189593
-0.878188
0.883409
0.0248894
-0.0304013
-1.00796
1.01347
0.036941
-0.042422
-1.15328
1.15876
0.048279
-0.0535904
-1.31496
1.32027
0.0591886
-0.0633598
-1.49395
1.49812
0.0672668
-0.0699314
-1.69141
1.69407
0.0717145
-0.0722081
-1.60715
1.60765
0.0722245
-0.071558
-1.29241
1.29174
0.0700251
-0.0667878
-1.03308
1.02984
0.0611456
-0.0514974
-0.742752
0.733104
0.0405703
-0.0285557
-0.405121
0.393107
0.0197634
-0.0129041
-0.153394
0.146535
0.00851482
-0.00522876
-0.03476
0.031474
0.00316183
-0.00167409
0.00587021
-0.00735795
0.000814275
-0.000287929
0.0106859
-0.0112122
6.37861e-05
0.00285644
-0.00292022
-0.0827975
0.0812604
0.00153707
-0.00513452
0.00515335
-0.449407
0.449388
-0.00338896
0.00108602
-0.625018
0.627321
0.00292543
-0.00702067
-0.762892
0.766987
0.0118644
-0.0167577
-0.88852
0.893414
0.0221037
-0.0275648
-1.01872
1.02418
0.0330893
-0.0381082
-1.16428
1.1693
0.0437601
-0.0484692
-1.32538
1.33009
0.0531173
-0.0572431
-1.50212
1.50625
0.0607543
-0.0631425
-1.69679
1.69917
0.0645173
-0.0650461
-1.60831
1.60884
0.0649254
-0.0640688
-1.29037
1.28951
0.0624007
-0.0588964
-1.02443
1.02093
0.0533176
-0.0444277
-0.720742
0.711852
0.0344461
-0.0242374
-0.379111
0.368903
0.016982
-0.0112612
-0.13826
0.132539
0.00756222
-0.00474402
-0.0273431
0.0245249
0.00290213
-0.00154701
0.00919735
-0.0105525
0.000752806
-0.000263305
0.0118069
-0.0122964
6.01317e-05
0.00296155
-0.00302168
-0.0823773
0.0810259
0.00135136
-0.00411567
0.00404741
-0.452852
0.45292
-0.00262046
0.000441759
-0.632133
0.634312
0.00314151
-0.00698771
-0.771511
0.775357
0.0114931
-0.0158133
-0.898042
0.902362
0.0210936
-0.0255257
-1.02897
1.0334
0.0307649
-0.0353345
-1.1744
1.17897
0.0405198
-0.0450568
-1.33467
1.33921
0.0495398
-0.0529394
-1.51001
1.51341
0.0561776
-0.0583316
-1.7014
1.70355
0.0597357
-0.0599492
-1.60917
1.60938
0.0597618
-0.0587852
-1.28848
1.2875
0.0570274
-0.0532931
-1.01557
1.01183
0.0478976
-0.0394368
-0.700165
0.691704
0.0304722
-0.02157
-0.356779
0.347877
0.0153211
-0.0104638
-0.125512
0.120655
0.00720348
-0.00463179
-0.0208594
0.0182877
0.00288761
-0.00155812
0.012222
-0.0135515
0.000758616
-0.000269037
0.0128122
-0.0133018
5.8842e-05
0.00303523
-0.00309407
-0.0821659
0.0811369
0.00102898
-0.00317025
0.00274581
-0.456067
0.456491
-0.00162189
-0.000521006
-0.638233
0.640376
0.00365399
-0.00725784
-0.779328
0.782932
0.0114408
-0.0157506
-0.906491
0.910801
0.020207
-0.0246213
-1.03798
1.04239
0.0295786
-0.0336681
-1.18389
1.18798
0.0386187
-0.0427504
-1.34341
1.34755
0.046819
-0.050267
-1.5171
1.52054
0.0533609
-0.0551215
-1.70561
1.70737
0.0560684
-0.0563527
-1.60966
1.60994
0.0561963
-0.0550703
-1.28617
1.28504
0.0531166
-0.049479
-1.00676
1.00312
0.0438406
-0.0360372
-0.680638
0.672834
0.0279221
-0.0200363
-0.337293
0.329407
0.0146221
-0.010291
-0.11446
0.110128
0.00732481
-0.00485748
-0.0149279
0.0124605
0.00310629
-0.00171636
0.0151711
-0.016561
0.000860424
-0.00030943
0.0138181
-0.0143691
6.91612e-05
0.0030919
-0.00316106
-0.0823168
0.0814563
0.000860474
-0.00235197
0.00207499
-0.459233
0.45951
-0.000513034
-0.00137027
-0.64418
0.646063
0.00458469
-0.00795418
-0.786396
0.789765
0.0118489
-0.0156119
-0.91472
0.918483
0.0200392
-0.023954
-1.04673
1.05065
0.028634
-0.0329434
-1.19245
1.19676
0.0372025
-0.0413352
-1.3516
1.35573
0.0453982
-0.0484408
-1.52371
1.52675
0.0512619
-0.0531172
-1.70917
1.71102
0.0537852
-0.0539857
-1.60991
1.61011
0.0534556
-0.0522722
-1.28375
1.28257
0.0503476
-0.0465295
-0.998114
0.994296
0.0411249
-0.0336873
-0.662444
0.655006
0.0263112
-0.0192703
-0.319906
0.312865
0.0144469
-0.010571
-0.104636
0.10076
0.00778828
-0.00535535
-0.00926743
0.0068345
0.00354136
-0.00203698
0.0182114
-0.0197157
0.00105821
-0.000394365
0.0149437
-0.0156075
9.1132e-05
0.00316189
-0.00325303
-0.0827354
0.0820461
0.000689234
-0.00137846
0.000995303
-0.462338
0.462721
0.000327738
-0.00244009
-0.649519
0.651632
0.00550483
-0.00862832
-0.793007
0.796131
0.0125019
-0.0160004
-0.922177
0.925675
0.0201227
-0.0240122
-1.05499
1.05888
0.0283986
-0.0324539
-1.20081
1.20487
0.0366596
-0.0405079
-1.35964
1.36349
0.0443405
-0.047694
-1.52991
1.53327
0.0503285
-0.0517581
-1.71257
1.71399
0.0523443
-0.0520512
-1.60994
1.60965
0.0514514
-0.0502376
-1.28111
1.2799
0.0479498
-0.0440771
-0.98944
0.985567
0.0388013
-0.0316823
-0.645402
0.638283
0.0250701
-0.0188086
-0.30453
0.298269
0.0145552
-0.0110137
-0.0957793
0.0922378
0.00838575
-0.00595692
-0.00373327
0.00130444
0.00407446
-0.00243884
0.0214625
-0.0230982
0.00131767
-0.000515573
0.0162877
-0.0170898
0.000131644
0.00327446
-0.00340611
-0.0833751
0.0828047
0.000570419
-0.000575545
0.000134787
-0.465447