/*--------------------------------*- C++ -*----------------------------------*\
  =========                 |
  \\      /  F ield         | OpenFOAM: The Open Source CFD Toolbox
   \\    /   O peration     | Website:  https://openfoam.org
    \\  /    A nd           | Version:  6
     \\/     M anipulation  |
\*---------------------------------------------------------------------------*/
FoamFile
{
    version     2.0;
    format      ascii;
    class       surfaceScalarField;
    location    "7";
    object      phi;
}
// * * * * * * * * * * * * * * * * * * * * * * * * * * * * * * * * * * * * * //

dimensions      [0 3 -1 0 0 0 0];

internalField   nonuniform List<scalar> 
17370
(
-0.0899221
0.0897222
0.289211
-0.0712691
0.0534597
0.364585
-0.0376904
0.0271115
0.426747
-0.0190071
0.0140412
0.504218
-0.01027
0.00785288
0.601819
-0.00587609
0.00448825
0.720445
-0.00328613
0.0024559
0.863737
-0.00175971
0.00130494
1.03591
-0.000903849
0.000580898
1.24283
-0.000235589
-2.43393e-05
1.49145
0.000309344
-0.000656166
1.49154
0.000972628
-0.00136709
1.24308
0.00181837
-0.00251445
1.03633
0.00334487
-0.00454359
0.864105
0.00592637
-0.00789863
0.72103
0.0103082
-0.0140709
0.602977
0.0190302
-0.0271305
0.50754
0.0377077
-0.0534753
0.431936
0.0712825
-0.0897312
0.365224
0.0899277
0.199083
-0.1284
0.0888355
0.0395642
-0.364846
0.353961
-0.0738693
0.0847548
-0.4465
0.454216
-0.0830394
0.0753236
-0.521224
0.52971
-0.0675168
0.059031
-0.612671
0.621569
-0.0508352
0.041937
-0.726634
0.734077
-0.0342556
0.0268129
-0.867351
0.872317
-0.021122
0.016156
-1.03848
1.04168
-0.0124974
0.0093052
-1.24465
1.24681
-0.00691528
0.00475171
-1.49278
1.49446
-0.00303611
0.0013579
-1.4924
1.49395
0.000220775
-0.0017707
-1.24403
1.24573
0.00344594
-0.00514447
-1.03751
1.03985
0.0072678
-0.00960641
-0.86598
0.869608
0.0127466
-0.0163743
-0.724128
0.729802
0.0213144
-0.0269885
-0.608484
0.616158
0.0344168
-0.0420913
-0.514909
0.523095
0.0509825
-0.0591689
-0.439859
0.447651
0.0676379
-0.0754295
-0.375351
0.377047
0.0831286
-0.0848246
-0.257658
0.223325
0.0739157
-0.039582
-0.0697222
0.0607043
0.00901794
-0.0477037
0.0535361
-0.375029
0.369196
-0.0519592
0.0476758
-0.453794
0.458077
-0.0425147
0.0386738
-0.527869
0.53171
-0.0350499
0.0316824
-0.62112
0.624488
-0.0281792
0.0249507
-0.734842
0.738071
-0.0214588
0.0181872
-0.873685
0.876957
-0.0147556
0.011732
-1.0428
1.04583
-0.00862117
0.00581947
-1.24797
1.25078
-0.00269832
-0.000461796
-1.49628
1.49944
0.00357466
-0.00662944
-1.49669
1.49974
0.00937644
-0.0124256
-1.24942
1.25247
0.0154025
-0.0187869
-1.04524
1.04863
0.0219947
-0.0254087
-0.877184
0.880598
0.0285709
-0.0320172
-0.739447
0.742894
0.0353717
-0.0389789
-0.626516
0.630123
0.0427957
-0.0479293
-0.534919
0.540052
0.0521799
-0.0537165
-0.458261
0.459797
0.0478369
-0.0292802
-0.337318
0.318761
0.00904068
-0.0696673
0.0606266
-0.0558937
0.0531937
0.00269993
-0.0238741
0.032398
-0.360817
0.352293
-0.0360978
0.0363615
-0.459764
0.4595
-0.0344341
0.0320098
-0.535307
0.537732
-0.0292065
0.0270705
-0.6277
0.629836
-0.0247168
0.0222976
-0.7406
0.743019
-0.0195071
0.0169869
-0.879462
0.881982
-0.0141377
0.0114649
-1.04859
1.05126
-0.00842652
0.00559426
-1.2537
1.25653
-0.00243187
-0.000468742
-1.50262
1.50552
0.00338534
-0.00653148
-1.50301
1.50615
0.00932473
-0.0123097
-1.25549
1.25848
0.0149154
-0.0176881
-1.05144
1.05422
0.0201465
-0.0228687
-0.883175
0.885898
0.0252351
-0.027545
-0.746065
0.748375
0.0295903
-0.0323262
-0.633785
0.636521
0.0347114
-0.0365944
-0.544166
0.546049
0.0362905
-0.0325439
-0.45814
0.454394
0.0239741
-0.0111127
-0.302182
0.289321
0.00271677
-0.0557952
0.0530785
-0.0519965
0.0517504
0.0002461
-0.0074793
0.0132215
-0.345039
0.339297
-0.0183198
0.0214417
-0.457598
0.454476
-0.0236208
0.0246797
-0.538172
0.537113
-0.0251484
0.0246581
-0.630901
0.631391
-0.0236228
0.022276
-0.744903
0.74625
-0.0202879
0.018093
-0.884482
0.886677
-0.0153753
0.012642
-1.05402
1.05676
-0.00942643
0.00630359
-1.25946
1.26258
-0.00269517
-0.000818914
-1.50862
1.51213
0.0043206
-0.00787893
-1.50942
1.51298
0.0109323
-0.0140638
-1.26156
1.2647
0.0167077
-0.0193151
-1.05707
1.05968
0.0214018
-0.0232672
-0.888323
0.890188
0.0245046
-0.0254452
-0.749852
0.750792
0.0258618
-0.0252789
-0.637408
0.636825
0.0241394
-0.0218812
-0.545593
0.543334
0.0186895
-0.0135058
-0.449622
0.444439
0.00767539
-0.00231044
-0.280647
0.275282
0.000278883
-0.0518552
0.0515763
-0.0517287
0.0516016
0.00012713
-0.00356372
0.00747138
-0.334632
0.330725
-0.012438
0.0165581
-0.450669
0.446549
-0.0200783
0.0220094
-0.535484
0.533553
-0.0228944
0.0231135
-0.631271
0.631052
-0.0227543
0.0218242
-0.747401
0.748331
-0.020232
0.0183325
-0.888672
0.890572
-0.0158015
0.0131352
-1.05947
1.06214
-0.00984906
0.00654998
-1.26584
1.26914
-0.00262468
-0.00124541
-1.51592
1.51979
0.00507296
-0.0089032
-1.51675
1.52058
0.0120942
-0.0152303
-1.26785
1.27099
0.017745
-0.0201029
-1.06212
1.06448
0.0218406
-0.023253
-0.891774
0.893186
0.0240061
-0.0242185
-0.751307
0.75152
0.023865
-0.0228571
-0.635735
0.634727
0.0207996
-0.0171419
-0.540144
0.536486
0.0129
-0.00780286
-0.439171
0.434074
0.00378233
-0.00108231
-0.271718
0.269018
0.000163824
-0.0515194
0.0513556
-0.0514815
0.0514663
1.51868e-05
-0.00154151
0.00380493
-0.327606
0.325343
-0.00736668
0.010902
-0.44248
0.438945
-0.0144155
0.0169581
-0.531089
0.528547
-0.0188948
0.0198225
-0.630637
0.629709
-0.0199487
0.0193954
-0.749173
0.749726
-0.0181562
0.0165837
-0.892385
0.893958
-0.0144
0.0120324
-1.06471
1.06708
-0.00903403
0.00595734
-1.27238
1.27546
-0.00218439
-0.00165206
-1.5237
1.52754
0.00547197
-0.00916167
-1.52441
1.5281
0.01208
-0.0148628
-1.27401
1.27679
0.0170138
-0.0189547
-1.0667
1.06864
0.0203242
-0.0213314
-0.894438
0.895446
0.0216795
-0.0213318
-0.75167
0.751322
0.0201984
-0.0180407
-0.63314
0.630983
0.0153153
-0.0116194
-0.53256
0.528864
0.00792881
-0.00420805
-0.429489
0.425768
0.00180893
-0.000468977
-0.267021
0.265681
5.87341e-05
-0.0511949
0.0511361
-0.0514933
0.0515101
-1.68574e-05
-0.000578449
0.00161639
-0.323799
0.322761
-0.00344278
0.00544922
-0.436198
0.434191
-0.00765565
0.00945192
-0.526321
0.524525
-0.0110207
0.0120458
-0.628621
0.627596
-0.0126712
0.0127851
-0.749849
0.749735
-0.0124108
0.0116269
-0.895101
0.895885
-0.0102873
0.00864278
-1.0691
1.07075
-0.00639704
0.00397007
-1.27825
1.28068
-0.000934473
-0.00211274
-1.53105
1.53409
0.00510123
-0.00797265
-1.53144
1.53431
0.0102004
-0.0121808
-1.27921
1.28119
0.0135578
-0.0145897
-1.07012
1.07115
0.0150864
-0.0151526
-0.895891
0.895957
0.0147644
-0.0138488
-0.750561
0.749646
0.0125729
-0.0107522
-0.628923
0.627102
0.00874366
-0.00632163
-0.525785
0.523363
0.00413131
-0.00211369
-0.422985
0.420967
0.000909927
-0.000256013
-0.264784
0.26413
3.94321e-05
-0.0511139
0.0510745
-0.0515236
0.0515503
-2.66923e-05
-0.000174445
0.000616614
-0.322072
0.321629
-0.00144737
0.00241978
-0.432773
0.431801
-0.00356774
0.00457556
-0.523149
0.522141
-0.0055474
0.00626259
-0.62671
0.625995
-0.00680428
0.00704415
-0.749518
0.749278
-0.00698867
0.00662776
-0.896418
0.896779
-0.00586838
0.00484384
-1.07205
1.07308
-0.00335572
0.00168674
-1.28271
1.28438
0.000442717
-0.00258756
-1.53667
1.53882
0.00466004
-0.00658801
-1.53669
1.53862
0.00800153
-0.00916204
-1.28274
1.2839
0.00986142
-0.0102441
-1.07182
1.07221
0.0102585
-0.00993797
-0.895786
0.895466
0.0093653
-0.00847559
-0.748712
0.747822
0.00746052
-0.00618182
-0.625556
0.624277
0.00491356
-0.00349999
-0.521502
0.520089
0.00230109
-0.0012345
-0.419507
0.418441
0.000587108
-0.000199538
-0.263631
0.263244
4.32078e-05
-0.0510265
0.0509833
-0.0515854
0.0516276
-4.21616e-05
7.28387e-05
7.75262e-05
-0.321361
0.32121
-0.000409817
0.000823597
-0.431155
0.430741
-0.00133515
0.00180312
-0.521437
0.520969
-0.00227781
0.0026456
-0.62546
0.625092
-0.00294232
0.00308589
-0.74907
0.748927
-0.00306827
0.00286411
-0.897034
0.897238
-0.00240576
0.00176021
-1.07388
1.07453
-0.000795499
-0.000306492
-1.28574
1.28684
0.00172722
-0.00315949
-1.54058
1.54201
0.00451455
-0.00570209
-1.54015
1.54134
0.00650708
-0.00707115
-1.28472
1.28529
0.00730237
-0.00730017
-1.07237
1.07236
0.00707851
-0.00663771
-0.895062
0.894621
0.00608934
-0.00536904
-0.747013
0.746292
0.00463564
-0.00378589
-0.623237
0.622387
0.00299861
-0.00216155
-0.519012
0.518175
0.00146953
-0.000848584
-0.417643
0.417022
0.000446931
-0.000174547
-0.262929
0.262656
4.46901e-05
-0.050942
0.0508973
-0.0516763
0.0517324
-5.61051e-05
0.000223698
-0.000239023
-0.321159
0.321174
0.00016788
-4.37032e-05
-0.430493
0.430369
-0.000122372
0.00027544
-0.520679
0.520526
-0.00042631
0.000532729
-0.624866
0.62476
-0.000596107
0.000586433
-0.748859
0.748869
-0.000478644
0.000271377
-0.897431
0.897638
9.63336e-05
-0.000572118
-1.07507
1.07554
0.00125395
-0.00201267
-1.28775
1.28851
0.00296966
-0.00390495
-1.54317
1.54411
0.00474699
-0.00542146
-1.54224
1.54291
0.00578797
-0.0059579
-1.28564
1.28581
0.00595721
-0.0057582
-1.07225
1.07205
0.00544363
-0.00498739
-0.894168
0.893712
0.0044981
-0.00391317
-0.745649
0.745064
0.00335703
-0.00274518
-0.621677
0.621065
0.00220024
-0.00163481
-0.517501
0.516936
0.00116774
-0.000733695
-0.416515
0.416081
0.000426763
-0.000188165
-0.262407
0.262169
5.49327e-05
-0.0508476
0.0507927
-0.051795
0.051865
-6.99589e-05
0.000355441
-0.000471383
-0.321238
0.321354
0.000551392
-0.000602481
-0.430342
0.430393
0.000649994
-0.000699281
-0.520484
0.520533
0.000769161
-0.000855478
-0.624757
0.624843
0.000984205
-0.00114326
-0.748955
0.749114
0.00137534
-0.00165116
-0.897875
0.898151
0.00203447
-0.00246369
-1.07598
1.07641
0.00302086
-0.00359622
-1.28916
1.28973
0.00427287
-0.00488416
-1.54486
1.54547
0.00537743
-0.00570762
-1.54341
1.54374
0.00582709
-0.00577366
-1.28584
1.28579
0.0055613
-0.005227
-1.07178
1.07144
0.00484451
-0.00436733
-0.893248
0.892771
0.00390115
-0.00337668
-0.744518
0.743994
0.00289949
-0.002391
-0.620518
0.62001
0.00194798
-0.00149303
-0.51644
0.515985
0.00111337
-0.000745569
-0.415691
0.415323
0.000463071
-0.000218958
-0.261931
0.261687
6.81549e-05
-0.0507317
0.0506635
-0.0519445
0.0520355
-9.09379e-05
0.000499358
-0.000708632
-0.321519
0.321729
0.000912478
-0.00108834
-0.430509
0.430685
0.00128612
-0.00148153
-0.520659
0.520854
0.00171737
-0.00195654
-0.625009
0.625248
0.00224871
-0.0025474
-0.749343
0.749642
0.00291412
-0.00328831
-0.898473
0.898847
0.00374304
-0.00419623
-1.07685
1.0773
0.00472548
-0.00521969
-1.29026
1.29075
0.00573995
-0.00614483
-1.54597
1.54637
0.00639998
-0.00646906
-1.54392
1.54399
0.00637003
-0.00613677
-1.28566
1.28542
0.00581132
-0.00537122
-1.07105
1.07061
0.00491987
-0.00439731
-0.892275
0.891753
0.003911
-0.00338288
-0.743475
0.742947
0.00291463
-0.00242474
-0.619519
0.619029
0.00200292
-0.00157129
-0.51555
0.515118
0.00120681
-0.000841205
-0.414962
0.414597
0.000542701
-0.000266428
-0.26143
0.261153
8.56187e-05
-0.0505872
0.0505015
-0.0521386
0.0522551
-0.000116501
0.000662129
-0.000962172
-0.321983
0.322283
0.00127875
-0.00156838
-0.430917
0.431207
0.00190097
-0.00222773
-0.521116
0.521443
0.00261472
-0.00299651
-0.625558
0.62594
0.00344671
-0.00388748
-0.75001
0.750451
0.00440184
-0.00489743
-0.899279
0.899775
0.00546241
-0.00598761
-1.07778
1.07831
0.00655474
-0.00703819
-1.29123
1.29172
0.00748826
-0.0077714
-1.54671
1.54699
0.00786551
-0.00775287
-1.54397
1.54385
0.00748917
-0.0070725
-1.28509
1.28468
0.00661529
-0.00605133
-1.07012
1.06955
0.00550689
-0.00489918
-0.891193
0.890585
0.004349
-0.00376338
-0.742396
0.741811
0.00325161
-0.00272163
-0.618526
0.617996
0.00226814
-0.00180468
-0.514676
0.514213
0.00140987
-0.00100456
-0.414216
0.41381
0.000660986
-0.000330551
-0.260853
0.260522
0.000107808
-0.0504055
0.0502977
-0.0523869
0.0525361
-0.000149248
0.000860867
-0.00126349
-0.322632
0.323034
0.00170103
-0.00210935
-0.431555
0.431963
0.00258148
-0.00304451
-0.521836
0.522299
0.00358956
-0.00412255
-0.626395
0.626928
0.00474362
-0.00534231
-0.750968
0.751567
0.00602732
-0.00667136
-0.900341
0.900985
0.00738363
-0.00802147
-1.07889
1.07952
0.00867808
-0.0092025
-1.29222
1.29274
0.00964152
-0.00985506
-1.54723
1.54745
0.00982953
-0.00955794
-1.54366
1.54339
0.00914146
-0.00855207
-1.28417
1.28358
0.00793912
-0.00722004
-1.06892
1.0682
0.00654555
-0.00580827
-0.889918
0.889181
0.00515087
-0.00445885
-0.741178
0.740486
0.00385888
-0.00324107
-0.617427
0.616809
0.00271423
-0.00217606
-0.513717
0.513179
0.00171518
-0.00123574
-0.413372
0.412893
0.000820948
-0.000414091
-0.260157
0.25975
0.00013593
-0.0501766
0.0500407
-0.0527054
0.0528975
-0.000192075
0.00111402
-0.00164137
-0.323496
0.324023
0.002221
-0.00276598
-0.432436
0.432981
0.0033977
-0.00401682
-0.522837
0.523456
0.00474368
-0.00545175
-0.627545
0.628253
0.00627253
-0.00705829
-0.752254
0.75304
0.00794925
-0.00877717
-0.901715
0.902543
0.0096789
-0.0104705
-1.08023
1.08102
0.0112631
-0.0118706
-1.2933
1.29391
0.012341
-0.0125159
-1.54764
1.54781
0.0123881
-0.0119573
-1.54304
1.54261
0.0113726
-0.0105879
-1.2829
1.28212
0.00979276
-0.00887813
-1.06738
1.06647
0.00803236
-0.00711766
-0.888362
0.887447
0.00630844
-0.00546153
-0.739723
0.738876
0.00473039
-0.00397979
-0.616131
0.61538
0.00334088
-0.00268842
-0.512589
0.511936
0.00212812
-0.00154121
-0.412364
0.411777
0.00102827
-0.00052048
-0.259296
0.258788
0.000171233
-0.0498881
0.0497169
-0.0531161
0.0533642
-0.000248117
0.00144087
-0.00212547
-0.324624
0.325309
0.00288114
-0.00359362
-0.433605
0.434317
0.00442003
-0.00522933
-0.524165
0.524974
0.00617774
-0.00709955
-0.629062
0.629984
0.00816489
-0.00918082
-0.753935
0.754951
0.0103269
-0.011385
-0.90348
0.904538
0.0125273
-0.0135185
-1.08191
1.0829
0.0144944
-0.0152228
-1.29457
1.2953
0.0157565
-0.0159086
-1.54798
1.54813
0.0156772
-0.0150687
-1.54209
1.54148
0.0142854
-0.013263
-1.28122
1.2802
0.0122421
-0.0110795
-1.06544
1.06428
0.0100125
-0.00886506
-0.886423
0.885276
0.00785419
-0.00679946
-0.737932
0.736877
0.00589097
-0.00495976
-0.614546
0.613615
0.0041679
-0.00335937
-0.511211
0.510403
0.00266412
-0.00193348
-0.411123
0.410392
0.001292
-0.000654561
-0.258219
0.257582
0.000215353
-0.0495248
0.0493095
-0.0536479
0.0539699
-0.000321938
0.0018677
-0.00275487
-0.326087
0.326975
0.00373535
-0.00466051
-0.435128
0.436053
0.00573314
-0.00678194
-0.525895
0.526944
0.00800866
-0.00919863
-0.631032
0.632222
0.0105706
-0.0118753
-0.756103
0.757408
0.0133418
-0.0146894
-0.905733
0.90708
0.0161352
-0.0173791
-1.08401
1.08525
0.018589
-0.0194744
-1.2961
1.29699
0.0200954
-0.0202276
-1.54827
1.5484
0.0198749
-0.0190511
-1.54077
1.53995
0.0180231
-0.0167029
-1.27904
1.27771
0.0153971
-0.0139194
-1.06297
1.06149
0.0125696
-0.0111229
-0.883988
0.882541
0.00985163
-0.00852767
-0.735696
0.734372
0.00738877
-0.0062224
-0.612573
0.611407
0.00523103
-0.00421876
-0.509499
0.508487
0.00334769
-0.00243093
-0.409575
0.408658
0.00162465
-0.000822694
-0.256867
0.256065
0.000270369
-0.0490681
0.0487978
-0.0543409
0.0547615
-0.00042055
0.00243251
-0.00358547
-0.327982
0.329135
0.00486
-0.00606172
-0.4371
0.438301
0.00745212
-0.00880713
-0.528134
0.529489
0.0103877
-0.0119178
-0.633575
0.635105
0.0136778
-0.0153475
-0.758887
0.760557
0.0172184
-0.0189303
-0.9086
0.910312
0.0207564
-0.0223152
-1.08665
1.08821
0.0238141
-0.024891
-1.29796
1.29904
0.0256143
-0.0257155
-1.54852
1.54862
0.0252056
-0.024108
-1.539
1.5379
0.0227706
-0.0210736
-1.27622
1.27452
0.0194074
-0.017531
-1.05982
1.05795
0.0158229
-0.0139966
-0.880915
0.879089
0.0123945
-0.010728
-0.732886
0.73122
0.00929542
-0.00782872
-0.6101
0.608633
0.00658196
-0.00530846
-0.507354
0.50608
0.00421197
-0.00305743
-0.407631
0.406477
0.00204204
-0.00103281
-0.255166
0.254156
0.000338848
-0.0484952
0.0481564
-0.0552504
0.0558073
-0.000556902
0.00319719
-0.0047072
-0.33044
0.33195
0.00637543
-0.00794177
-0.439651
0.441218
0.00974305
-0.0114887
-0.531031
0.532777
0.0135171
-0.0154775
-0.636853
0.638813
0.0177293
-0.0198626
-0.762453
0.764586
0.0222457
-0.0244163
-0.912239
0.914409
0.0267162
-0.0286616
-1.08995
1.09189
0.0305076
-0.0318058
-1.30022
1.30152
0.0326338
-0.0326741
-1.5487
1.54874
0.0319495
-0.0304958
-1.53664
1.53518
0.0287634
-0.0265892
-1.2726
1.27042
0.0244686
-0.0220904
-1.05583
1.05345
0.019932
-0.017629
-0.877033
0.87473
0.0156119
-0.0135153
-0.729346
0.727249
0.0117135
-0.00986786
-0.606988
0.605142
0.00829731
-0.00669078
-0.504657
0.50305
0.00530594
-0.0038477
-0.405186
0.403728
0.00256704
-0.00129657
-0.253026
0.251755
0.000424886
-0.0477782
0.0473534
-0.0564543
0.0572108
-0.00075644
0.00427288
-0.00627516
-0.333642
0.335644
0.0084743
-0.0105122
-0.442966
0.445004
0.0128277
-0.0150561
-0.534792
0.537021
0.0176399
-0.0201423
-0.641083
0.643586
0.0230221
-0.0257508
-0.767013
0.769742
0.0287891
-0.0315396
-0.916839
0.919589
0.0344266
-0.0368383
-1.09404
1.09645
0.0390872
-0.040625
-1.30293
1.30447
0.0415389
-0.0414632
-1.54873
1.54865
0.040439
-0.0385198
-1.53351
1.53159
0.0362843
-0.0335102
-1.26796
1.26519
0.0308222
-0.0278194
-1.05077
1.04777
0.0251022
-0.0222085
-0.872134
0.869241
0.0196778
-0.0170495
-0.724885
0.722256
0.0147903
-0.0124731
-0.60307
0.600753
0.0104958
-0.00846563
-0.501264
0.499234
0.00670976
-0.00485906
-0.402109
0.400258
0.00323796
-0.00163446
-0.250336
0.248732
0.000536414
-0.0468835
0.0463471
-0.0580688
0.0591296
-0.0010608
0.00584528
-0.00852888
-0.337846
0.340529
0.0114173
-0.0140273
-0.447315
0.449925
0.0169478
-0.019756
-0.539709
0.542518
0.0230346
-0.0262404
-0.646549
0.649755
0.0299514
-0.0334662
-0.772828
0.776343
0.0373541
-0.0408356
-0.922616
0.926097
0.0444374
-0.0473912
-1.09907
1.10202
0.0500794
-0.0518473
-1.30609
1.30785
0.0527903
-0.0525057
-1.54847
1.54818
0.051063
-0.0485392
-1.52938
1.52685
0.04567
-0.0421532
-1.26206
1.25854
0.0387678
-0.0349999
-1.04439
1.04062
0.0315994
-0.0279854
-0.865966
0.862352
0.0248303
-0.0215573
-0.719268
0.715995
0.0187441
-0.0158541
-0.598136
0.595246
0.0133762
-0.0108131
-0.496995
0.494432
0.00857689
-0.00620596
-0.398241
0.39587
0.00413209
-0.00208745
-0.246958
0.244913
0.000689638
-0.0457702
0.0450806
-0.0602864
0.0618164
-0.00153005
0.0082041
-0.0118142
-0.343449
0.347059
0.0155602
-0.0188532
-0.453087
0.45638
0.0225042
-0.0260623
-0.546164
0.549722
0.0302951
-0.0344805
-0.6536
0.657785
0.0393301
-0.0438794
-0.780208
0.784757
0.0488327
-0.0531821
-0.929797
0.934147
0.0575839
-0.0611007
-1.10511
1.10863
0.064193
-0.0661119
-1.30962
1.31154
0.0669509
-0.0663027
-1.54768
1.54703
0.0642759
-0.0609739
-1.52393
1.52063
0.0573212
-0.0529041
-1.25457
1.25015
0.0486811
-0.0439971
-1.03637
1.03169
0.0397775
-0.0352992
-0.858235
0.853757
0.0313961
-0.0273541
-0.712214
0.708173
0.0238841
-0.0203186
-0.591922
0.588357
0.0172467
-0.0140342
-0.491615
0.488402
0.0111835
-0.0081083
-0.39338
0.390305
0.00540075
-0.00273073
-0.242722
0.240052
0.000910236
-0.0443864
0.0434762
-0.0634382
0.0657478
-0.00230956
0.0120019
-0.0169221
-0.351054
0.355974
0.0217907
-0.0260037
-0.460808
0.465021
0.0306854
-0.0353484
-0.554641
0.559304
0.0409758
-0.0465201
-0.66268
0.668225
0.0528326
-0.0586003
-0.789526
0.795294
0.0647115
-0.0699252
-0.938583
0.943797
0.0750468
-0.0789988
-1.11215
1.1161
0.0823023
-0.0841637
-1.3133
1.31516
0.0846409
-0.0833833
-1.54601
1.54475
0.0805437
-0.0762517
-1.5168
1.51251
0.0716507
-0.0661698
-1.24518
1.2397
0.0609711
-0.0552245
-1.02643
1.02068
0.0500496
-0.0445548
-0.848632
0.843137
0.0397645
-0.0348065
-0.703405
0.698447
0.0305555
-0.0261944
-0.584108
0.579747
0.0224253
-0.0184469
-0.484814
0.480835
0.0148402
-0.0108366
-0.387244
0.383241
0.00724132
-0.00365626
-0.237395
0.23381
0.00121791
-0.0426494
0.0414315
-0.0681085
0.0719432
-0.00383474
0.0189021
-0.0257787
-0.361642
0.368519
0.0321659
-0.0376106
-0.471343
0.476787
0.0437962
-0.0500632
-0.565836
0.572103
0.0575461
-0.064704
-0.67436
0.681518
0.0725741
-0.079498
-0.801094
0.808018
0.08659
-0.0924381
-0.948944
0.954792
0.0979709
-0.102037
-1.11986
1.12393
0.105173
-0.106617
-1.31666
1.3181
0.106349
-0.104144
-1.54293
1.54072
0.100203
-0.0946809
-1.50755
1.50202
0.0889586
-0.0822616
-1.23357
1.22687
0.0759711
-0.0690458
-1.01427
1.00734
0.0628094
-0.0561691
-0.836877
0.830237
0.0503566
-0.0443197
-0.692534
0.686497
0.0391307
-0.0337947
-0.574346
0.56901
0.0291685
-0.0242727
-0.476191
0.471295
0.0197455
-0.0145766
-0.379381
0.374212
0.00980178
-0.00493862
-0.230562
0.225699
0.00161601
-0.0404062
0.0387902
-0.0755129
0.0827895
-0.00727657
0.0328177
-0.0429159
-0.377212
0.38731
0.0512257
-0.0581987
-0.486004
0.492977
0.0663243
-0.074497
-0.580531
0.588704
0.0838869
-0.0923957
-0.688989
0.697498
0.101324
-0.108874
-0.814718
0.822268
0.11633
-0.12223
-0.960279
0.966179
0.127541
-0.131134
-1.12747
1.13106
0.133501
-0.133988
-1.31886
1.31934
0.132459
-0.128885
-1.53769
1.53412
0.123519
-0.11653
-1.49568
1.48869
0.109534
-0.101527
-1.21946
1.21146
0.0940889
-0.0859578
-0.99973
0.991598
0.0786476
-0.0708532
-0.822813
0.815019
0.0640007
-0.0568425
-0.679395
0.672236
0.0506404
-0.0442243
-0.56235
0.555934
0.0386673
-0.0327739
-0.465289
0.459396
0.0271324
-0.0202969
-0.369077
0.362241
0.0136357
-0.0067082
-0.221371
0.214443
0.00207307
-0.0374354
0.0353623
-0.0900921
0.0928983
-0.00280616
0.0201964
-0.0290322
-0.4006
0.409436
0.037355
-0.0451093
-0.505621
0.513376
0.0544226
-0.0641942
-0.598493
0.608264
0.0749222
-0.0844723
-0.705629
0.715179
0.0950739
-0.104431
-0.829075
0.838432
0.114146
-0.122469
-0.971165
0.979487
0.130737
-0.137372
-1.13359
1.14023
0.143294
-0.147208
-1.31871
1.32262
0.149362
-0.148902
-1.52941
1.52895
0.145684
-0.140078
-1.48073
1.47512
0.13339
-0.124798
-1.2027
1.19411
0.116315
-0.106029
-0.982812
0.972525
0.0964775
-0.0858384
-0.806525
0.795886
0.0762015
-0.0658388
-0.66407
0.653708
0.0563966
-0.0466935
-0.548086
0.538383
0.0384539
-0.0294037
-0.451863
0.442813
0.0211569
-0.0126182
-0.355443
0.346904
0.00601777
-0.00142699
-0.208034
0.203443
-0.000338466
-0.0331954
0.0335338
-0.100276
0.0955965
0.0046797
-0.0031601
-0.00156366
-0.421805
0.426529
0.0085254
-0.0155956
-0.524803
0.531873
0.0245072
-0.0329475
-0.618137
0.626577
0.0424973
-0.0511832
-0.724651
0.733337
0.06045
-0.068848
-0.847286
0.855684
0.0775771
-0.0847944
-0.987518
0.994736
0.0922029
-0.0978521
-1.14676
1.15241
0.102904
-0.106011
-1.32641
1.32952
0.107222
-0.106151
-1.52792
1.52685
0.102539
-0.0967893
-1.469
1.46325
0.0900321
-0.0816768
-1.18535
1.177
0.0736192
-0.0643781
-0.962358
0.953117
0.0556954
-0.046016
-0.785057
0.775377
0.0373048
-0.0282992
-0.642343
0.633337
0.0205749
-0.0126408
-0.526884
0.51895
0.00587852
0.000640244
-0.43129
0.424771
-0.0053746
0.00853629
-0.336114
0.332952
-0.00893793
0.00636002
-0.196279
0.198857
-0.00298177
-0.0316626
0.0346444
-0.0974629
0.0930415
0.00442142
-0.00966601
0.00791921
-0.436021
0.437768
-0.00350985
-0.0021346
-0.541083
0.546727
0.00920724
-0.0161902
-0.635064
0.642047
0.0240675
-0.0312966
-0.741454
0.748683
0.039236
-0.0462978
-0.863385
0.870447
0.0534582
-0.0597508
-1.00175
1.00805
0.066063
-0.0710181
-1.15767
1.16263
0.0751141
-0.077537
-1.33214
1.33456
0.0785438
-0.0774231
-1.52546
1.52434
0.074074
-0.0689597
-1.45747
1.45236
0.063126
-0.0562105
-1.16916
1.16225
0.0493485
-0.0418432
-0.944312
0.936807
0.0349619
-0.0274699
-0.766718
0.759226
0.0210898
-0.0145696
-0.624717
0.618196
0.00924844
-0.00384492
-0.510327
0.504924
-0.000262923
0.00383494
-0.416559
0.412987
-0.00621558
0.00710443
-0.326069
0.32518
-0.00609611
0.0037102
-0.195288
0.197674
-0.00166723
-0.0341994
0.0358667
-0.0937771
0.0898656
0.00391149
-0.0112779
0.0112037
-0.444928
0.445002
-0.00838676
0.00381988
-0.55359
0.558157
0.00213431
-0.0077295
-0.648661
0.654256
0.0141905
-0.0201361
-0.755572
0.761518
0.026614
-0.0324058
-0.876996
0.882788
0.0386676
-0.0438325
-1.0139
1.01906
0.0492431
-0.0531283
-1.16724
1.17113
0.0566983
-0.058835
-1.33694
1.33908
0.0596448
-0.0584564
-1.52315
1.52196
0.0557286
-0.0515793
-1.44728
1.44313
0.0468111
-0.0409364
-1.15577
1.14989
0.0354722
-0.0296269
-0.929776
0.923931
0.0241886
-0.0186442
-0.752535
0.746991
0.0136375
-0.00876534
-0.611784
0.606912
0.00479962
-0.00112666
-0.498981
0.495308
-0.00152236
0.00377906
-0.407075
0.404818
-0.00521328
0.00529861
-0.31995
0.319865
-0.00448356
0.00275777
-0.194501
0.196227
-0.00126639
-0.0348607
0.0361271
-0.0906908
0.0876843
0.00300652
-0.0102805
0.0111782
-0.450628
0.449731
-0.00898773
0.00548993
-0.56379
0.567288
-0.000912634
-0.00385201
-0.659713
0.664478
0.0089859
-0.0139481
-0.766988
0.771951
0.019268
-0.0240651
-0.88816
0.892957
0.0292029
-0.0336444
-1.02407
1.02852
0.0381091
-0.04166
-1.17493
1.17848
0.0447605
-0.0466615
-1.34101
1.34291
0.0474699
-0.0465438
-1.52091
1.51999
0.0443493
-0.0407976
-1.43881
1.43526
0.0368699
-0.0321736
-1.1445
1.1398
0.0277291
-0.0228762
-0.91834
0.913488
0.0185724
-0.0140882
-0.74169
0.737206
0.0102323
-0.00638578
-0.602165
0.598318
0.00334678
-0.000557211
-0.490842
0.488053
-0.00159602
0.00328228
-0.400492
0.398806
-0.0040949
0.00423377
-0.31559
0.315452
-0.00365207
0.00212799
-0.192955
0.194479
-0.00103213
-0.0350088
0.036041
-0.0886313
0.0862948
0.00233655
-0.00856734
0.00952131
-0.454436
0.453482
-0.0083788
0.00553664
-0.571399
0.574241
-0.00148771
-0.00228989
-0.668636
0.672414
0.00642415
-0.0104992
-0.776292
0.780367
0.0149982
-0.0190935
-0.897423
0.901518
0.0236264
-0.0273855
-1.03269
1.03645
0.031314
-0.0344776
-1.18181
1.18497
0.037228
-0.0389529
-1.34468
1.3464
0.0397553
-0.0393953
-1.51921
1.51885
0.0375793
-0.0347614
-1.43165
1.42883
0.0314434
-0.0274531
-1.1353
1.13131
0.0238951
-0.0196686
-0.908871
0.904645
0.015977
-0.0122688
-0.732926
0.729217
0.0090164
-0.00575823
-0.594609
0.591351
0.00312738
-0.000539495
-0.484511
0.481923
-0.00113627
0.00254904
-0.395245
0.393832
-0.0034849
0.00359304
-0.31172
0.311612
-0.00301965
0.00181023
-0.191381
0.19259
-0.000854722
-0.0348974
0.0357521
-0.0874172
0.085691
0.00172627
-0.00666736
0.00766462
-0.457292
0.456295
-0.00664437
0.0045642
-0.577792
0.579872
-0.00115556
-0.00201042
-0.675917
0.679083
0.00573222
-0.00901916
-0.784166
0.787453
0.0127469
-0.0161871
-0.905568
0.909008
0.020346
-0.0236322
-1.04021
1.0435
0.0270033
-0.0299488
-1.18798
1.19093
0.0328499
-0.0344977
-1.34824
1.34989
0.0354974
-0.0353003
-1.51828
1.51808
0.034149
-0.0315878
-1.42605
1.42349
0.0288894
-0.0255634
-1.12741
1.12409
0.0223449
-0.0187844
-0.900662
0.897102
0.0154677
-0.0119875
-0.725429
0.721949
0.00927545
-0.00623894
-0.588017
0.584981
0.00371537
-0.00146636
-0.478847
0.476598
-0.000245212
0.00175603
-0.390801
0.38929
-0.00257582
0.00276546
-0.308433
0.308243
-0.00235114
0.00143494
-0.1898
0.190716
-0.000704006
-0.0346293
0.0353333
-0.0869192
0.085562
0.00135722
-0.00509698
0.00603724
-0.459618
0.458678
-0.00502757
0.00314983
-0.583025
0.584903
-0.000267634
-0.00235734
-0.68205
0.684675
0.00531537
-0.00835439
-0.790773
0.793812
0.0116101
-0.0150719
-0.912251
0.915713
0.0184299
-0.0214411
-1.04682
1.04983
0.0248425
-0.0275052
-1.19376
1.19642
0.029936
-0.0319954
-1.35152
1.35358
0.0332454
-0.0334408
-1.51808
1.51828
0.0325826
-0.0306999
-1.42128
1.41939
0.0284038
-0.0254354
-1.1206
1.11763
0.0225835
-0.0192913
-0.89353
0.890238
0.0162235
-0.0131044
-0.718584
0.715465
0.0102535
-0.00741965
-0.581839
0.579005
0.00508268
-0.00269602
-0.473805
0.471418
0.000866988
0.000472171
-0.386431
0.385092
-0.00142805
0.00188008
-0.305241
0.304789
-0.00174201
0.00107415
-0.188128
0.188796
-0.000563208
-0.0342548
0.034818
-0.0869839
0.0857645
0.00121944
-0.00371598
0.00431829
-0.461833
0.461231
-0.00347406
0.00171357
-0.587552
0.589313
0.000697381
-0.00310864
-0.687418
0.68983
0.00581804
-0.00839908
-0.796717
0.799298
0.0116653
-0.0142828
-0.918615
0.921233
0.0174845
-0.0202104
-1.05293
1.05566
0.0233871
-0.026152
-1.19903
1.20179
0.0288041
-0.0306415
-1.35544
1.35728
0.032247
-0.0328963
-1.51852
1.51917
0.032726
-0.0312006
-1.41753
1.416
0.0293145
-0.0266657
-1.11483
1.11219
0.0240618
-0.0208936
-0.886794
0.883626
0.0180314
-0.0148679
-0.712154
0.70899
0.0120549
-0.00915691
-0.575993
0.573095
0.00665917
-0.00438742
-0.468667
0.466395
0.00239112
-0.000847513
-0.382155
0.380612
-0.000368202
0.00100449
-0.301927
0.301291
-0.00105638
0.00078761
-0.186185
0.186454
-0.00041329
-0.0337189
0.0341322
-0.0872221
0.0862563
0.000965748
-0.0027088
0.00280377
-0.464195
0.4641
-0.00210845
0.000423957
-0.591276
0.592961
0.00156089
-0.00378737
-0.692139
0.694365
0.00626377
-0.00888426
-0.801795
0.804415
0.0114751
-0.0141389
-0.924015
0.926679
0.0171779
-0.0195834
-1.05873
1.06113
0.0227068
-0.0253153
-1.20432
1.20693
0.0279264
-0.0302384
-1.35951
1.36183
0.0323144
-0.0333134
-1.51997
1.52097
0.0334703
-0.0326867
-1.41476
1.41398
0.0313198
-0.0289511
-1.10949
1.10712
0.0264603
-0.0235939
-0.880408
0.877542
0.0204422
-0.017407
-0.705597
0.702562
0.0145463
-0.0114684
-0.570203
0.567125
0.00899034
-0.00643271
-0.463416
0.460858
0.0043381
-0.00236621
-0.377908
0.375936
0.00103304
-0.000100029
-0.298444
0.297511
-0.000388614
0.000460137
-0.18397
0.183898
-0.000314624
-0.0329484
0.033263
-0.0877158
0.0868627
0.000853044
-0.00201811
0.00212812
-0.466731
0.466621
-0.000862512
-0.000494304
-0.594973
0.59633
0.00253229
-0.00457254
-0.696268
0.698308
0.00684282
-0.00902966
-0.806751
0.808938
0.0116451
-0.0139096
-0.92931
0.931574
0.0167665
-0.0194484
-1.0639
1.06659
0.02208
-0.0248596
-1.20952
1.2123
0.0277336
-0.0300544
-1.36402
1.36634
0.0325021
-0.0343198
-1.52228
1.52409
0.0350351
-0.0349958
-1.41325
1.41321
0.033914
-0.031978
-1.10487
1.10294
0.0298036
-0.026928
-0.874322
0.871446
0.0239288
-0.0207453
-0.699061
0.695877
0.0177602
-0.0144427
-0.56389
0.560573
0.011656
-0.0089339
-0.457876
0.455154
0.0064526
-0.00422682
-0.373117
0.370892
0.00256276
-0.00124952
-0.294545
0.293232
0.000470789
1.81421e-05
-0.181424
0.180935
-0.000165945
-0.0320029
0.0321688
-0.0883464
0.0876249
0.000721459
-0.00125345
0.00115906
-0.469306
0.4694
-4.46204e-05
-0.00144428
-0.598196
0.599685
0.00333129
-0.00517416
-0.700062
0.701905
0.00745678
-0.00943521
-0.811096
0.813075
0.0118178
-0.0140954
-0.934233
0.93651
0.016728
-0.0192334
-1.06906
1.07157
0.0218937
-0.0245408
-1.21494
1.21759
0.0274261
-0.0303436
-1.36892
1.37184
0.0331651
-0.0353607
-1.52594
1.52814
0.0369437
-0.0374536
-1.41328
1.41379
0.0370878
-0.035803
-1.1011
1.09982