/*--------------------------------*- C++ -*----------------------------------*\
  =========                 |
  \\      /  F ield         | OpenFOAM: The Open Source CFD Toolbox
   \\    /   O peration     | Website:  https://openfoam.org
    \\  /    A nd           | Version:  6
     \\/     M anipulation  |
\*---------------------------------------------------------------------------*/
FoamFile
{
    version     2.0;
    format      ascii;
    class       volScalarField;
    location    "19.5";
    object      p;
}
// * * * * * * * * * * * * * * * * * * * * * * * * * * * * * * * * * * * * * //

dimensions      [0 2 -2 0 0 0 0];

internalField   nonuniform List<scalar> 
8800
(
0.433672
0.384359
0.346396
0.318327
0.298159
0.283551
0.272923
0.265339
0.260378
0.25816
0.259284
0.263365
0.269941
0.279193
0.291809
0.309044
0.332858
0.365912
0.40882
0.461323
0.268165
0.274512
0.283663
0.287217
0.284612
0.278525
0.271577
0.265291
0.260418
0.257441
0.257004
0.259344
0.263738
0.269679
0.276627
0.283539
0.288331
0.288142
0.281423
0.2725
0.24167
0.247918
0.25244
0.256337
0.259314
0.260287
0.259208
0.257066
0.254965
0.253909
0.254692
0.2569
0.259539
0.261575
0.261913
0.259977
0.256496
0.252395
0.247556
0.243829
0.237365
0.240142
0.242789
0.244995
0.246783
0.248397
0.249522
0.249806
0.249518
0.249356
0.249887
0.250795
0.251299
0.250899
0.249688
0.24814
0.246314
0.243888
0.241404
0.239833
0.232336
0.233771
0.235666
0.237813
0.23957
0.240874
0.241931
0.242854
0.243567
0.244063
0.244441
0.244524
0.244197
0.243585
0.242697
0.24138
0.239533
0.237478
0.236038
0.235239
0.227417
0.228325
0.22966
0.231403
0.233198
0.234782
0.236065
0.237129
0.238063
0.238833
0.239204
0.239142
0.23877
0.238055
0.236949
0.235466
0.233825
0.232332
0.231404
0.230895
0.222668
0.223321
0.224409
0.225914
0.227553
0.22925
0.230867
0.23225
0.233375
0.234271
0.234748
0.234724
0.234217
0.233248
0.231961
0.230563
0.229174
0.227958
0.227252
0.226896
0.218241
0.218721
0.219688
0.221133
0.222714
0.224363
0.226063
0.227673
0.229045
0.23009
0.230719
0.230719
0.230127
0.229121
0.227914
0.226645
0.225343
0.224245
0.223673
0.223425
0.214128
0.214471
0.215287
0.216573
0.218008
0.219441
0.22087
0.222391
0.223945
0.225317
0.226027
0.226047
0.225634
0.225003
0.224178
0.223153
0.222053
0.221136
0.220698
0.22053
0.210465
0.210676
0.211421
0.212694
0.214144
0.215678
0.217299
0.21886
0.220346
0.221738
0.222767
0.223206
0.223092
0.22251
0.221674
0.220718
0.219681
0.21884
0.218504
0.218418
0.207593
0.207707
0.20825
0.20928
0.210503
0.211809
0.213232
0.214858
0.216616
0.218343
0.219623
0.220212
0.2203
0.220084
0.219641
0.219022
0.218308
0.217752
0.217562
0.217523
0.204987
0.205058
0.205388
0.206089
0.207024
0.20814
0.209449
0.210984
0.212729
0.214656
0.216346
0.217464
0.218051
0.218259
0.218196
0.217994
0.217704
0.217497
0.217427
0.217395
0.201891
0.201962
0.202203
0.202709
0.203476
0.204516
0.205873
0.207582
0.209657
0.212014
0.214154
0.21562
0.216507
0.216965
0.217256
0.217395
0.217441
0.21746
0.217444
0.217407
0.19792
0.197982
0.198224
0.198681
0.199382
0.200379
0.201778
0.203624
0.205974
0.208794
0.211515
0.213574
0.215003
0.215921
0.216535
0.216958
0.217249
0.217376
0.217384
0.217347
0.193088
0.193142
0.193412
0.193955
0.194763
0.195934
0.197607
0.199831
0.202677
0.206142
0.209567
0.212209
0.21407
0.215356
0.216231
0.216855
0.217233
0.21739
0.217424
0.217393
0.187507
0.187546
0.187864
0.188579
0.189554
0.190962
0.192961
0.195636
0.199097
0.203377
0.207691
0.21109
0.213535
0.215252
0.216425
0.217225
0.217665
0.217871
0.217942
0.217918
0.181227
0.181265
0.1816
0.182447
0.18378
0.185469
0.187897
0.191169
0.195422
0.200727
0.206136
0.210444
0.213583
0.215797
0.217314
0.218296
0.218863
0.219157
0.219268
0.219245
0.174107
0.174143
0.174535
0.175476
0.177042
0.179243
0.182218
0.186227
0.191498
0.198102
0.20485
0.210273
0.214234
0.217028
0.218979
0.22024
0.221006
0.221423
0.221571
0.221544
0.165805
0.165849
0.166349
0.16745
0.16928
0.171945
0.175638
0.180662
0.187248
0.195489
0.203909
0.210675
0.215613
0.219161
0.221594
0.223216
0.224233
0.22479
0.224975
0.224939
0.155758
0.155813
0.156416
0.157802
0.160072
0.163376
0.168013
0.174325
0.182597
0.192907
0.203384
0.211761
0.217918
0.222288
0.225322
0.227369
0.228673
0.229379
0.229605
0.229558
0.143443
0.143524
0.144314
0.146066
0.148935
0.153134
0.15903
0.167046
0.177491
0.190389
0.203375
0.213707
0.221252
0.22662
0.230363
0.232909
0.234539
0.23541
0.235686
0.235626
0.128047
0.128156
0.129204
0.131525
0.135302
0.14077
0.148408
0.158695
0.171918
0.188011
0.204006
0.216622
0.225807
0.232355
0.236941
0.24008
0.242097
0.24316
0.243492
0.243416
0.108412
0.108565
0.110025
0.113234
0.118373
0.125703
0.13579
0.149114
0.16589
0.185892
0.205431
0.220695
0.231784
0.239712
0.245299
0.249156
0.251654
0.252976
0.253368
0.253266
0.0827836
0.0830317
0.0851906
0.0898505
0.0971173
0.107244
0.120832
0.138253
0.159527
0.184202
0.207816
0.226081
0.239343
0.24888
0.255663
0.260397
0.26348
0.265101
0.265568
0.265437
0.0480824
0.048565
0.0521204
0.0594889
0.0703585
0.0848705
0.103489
0.126312
0.153098
0.183187
0.211345
0.23291
0.248589
0.259969
0.268183
0.274018
0.277861
0.279869
0.280415
0.280239
-0.00160856
-1.81032e-05
0.00720051
0.0201053
0.0372988
0.0585943
0.0841392
0.113762
0.147027
0.183144
0.216181
0.241248
0.25952
0.272941
0.282829
0.290034
0.294907
0.297479
0.298138
0.297893
-0.0751229
-0.0664104
-0.0499818
-0.0272091
-0.000545961
0.0297438
0.0637191
0.10117
0.141646
0.184378
0.222783
0.251797
0.273109
0.289034
0.301141
0.310352
0.316832
0.320486
0.321563
0.321475
-0.1529
-0.134692
-0.108248
-0.0750779
-0.0386172
0.00077182
0.0432588
0.0887431
0.136863
0.186995
0.231865
0.265952
0.291333
0.310707
0.325798
0.337722
0.346636
0.352108
0.353955
0.354025
-0.217775
-0.195895
-0.161436
-0.119725
-0.0747027
-0.0268134
0.023855
0.0771208
0.132627
0.189791
0.240627
0.279223
0.308074
0.330246
0.347671
0.361419
0.37193
0.378412
0.380217
0.380448
-0.269894
-0.245766
-0.206284
-0.158641
-0.106952
-0.0520669
0.00570615
0.0659987
0.128328
0.191984
0.248171
0.290573
0.322122
0.346242
0.365094
0.37996
0.391262
0.398256
0.400458
0.400822
-0.312648
-0.287412
-0.244436
-0.192186
-0.135259
-0.0746995
-0.010961
0.0554364
0.123841
0.193329
0.254232
0.299809
0.333388
0.358821
0.378507
0.393936
0.405555
0.412834
0.415327
0.41568
-0.349138
-0.323269
-0.277765
-0.22178
-0.160512
-0.0951865
-0.0263485
0.0454047
0.119209
0.193959
0.259071
0.30736
0.342579
0.368955
0.389137
0.404756
0.416388
0.423646
0.426286
0.426612
-0.381374
-0.355127
-0.307668
-0.248623
-0.18367
-0.114205
-0.040846
0.0356944
0.114418
0.194013
0.263068
0.313914
0.350611
0.377745
0.39822
0.413861
0.425425
0.432647
0.435374
0.435699
-0.410798
-0.384226
-0.335123
-0.273477
-0.205369
-0.132294
-0.0549057
0.0260017
0.109315
0.193547
0.266426
0.319709
0.357795
0.385648
0.406432
0.422149
0.433677
0.440803
0.443576
0.443901
-0.438295
-0.411426
-0.360913
-0.297006
-0.226142
-0.149861
-0.0688373
0.0160611
0.103687
0.192355
0.268975
0.324789
0.364404
0.393117
0.414317
0.430179
0.441709
0.448739
0.451481
0.451859
-0.464552
-0.437331
-0.385539
-0.319592
-0.246279
-0.167156
-0.0828771
0.00567368
0.0973232
0.190307
0.270842
0.329413
0.370744
0.400463
0.422202
0.4383
0.449886
0.456823
0.45948
0.459852
-0.489833
-0.462246
-0.409296
-0.341538
-0.266057
-0.184392
-0.0971673
-0.00526025
0.0901948
0.187478
0.272028
0.333567
0.37687
0.4078
0.430244
0.446709
0.45842
0.465308
0.467831
0.46813
-0.514468
-0.486426
-0.432421
-0.363027
-0.285601
-0.201648
-0.111757
-0.0167583
0.0822883
0.183721
0.272383
0.337176
0.382766
0.415179
0.438521
0.455484
0.467395
0.474256
0.476628
0.476832
-0.53851
-0.51001
-0.45501
-0.384139
-0.304978
-0.218973
-0.126687
-0.0288699
0.0734908
0.178927
0.271827
0.340168
0.388375
0.422572
0.447036
0.464645
0.47683
0.483683
0.485907
0.485977
-0.562018
-0.533036
-0.477113
-0.404916
-0.324211
-0.236389
-0.141969
-0.0416252
0.063784
0.173065
0.270227
0.342394
0.393593
0.429917
0.455751
0.474154
0.486658
0.493457
0.495521
0.495467
-0.585029
-0.555563
-0.498741
-0.425352
-0.343282
-0.25385
-0.157551
-0.0549645
0.0532217
0.166089
0.267452
0.343654
0.398259
0.437122
0.464618
0.483958
0.49681
0.503497
0.505342
0.505171
-0.607556
-0.577544
-0.519865
-0.445403
-0.362126
-0.271299
-0.173359
-0.0688062
0.0418292
0.157967
0.263401
0.343753
0.402119
0.44403
0.4736
0.494049
0.507214
0.513684
0.515239
0.514956
-0.629436
-0.598914
-0.540434
-0.465031
-0.380697
-0.288655
-0.189314
-0.083075
0.0296803
0.148742
0.257986
0.342498
0.404906
0.45042
0.482666
0.504492
0.517814
0.523795
0.524952
0.524561
-0.650624
-0.619628
-0.560409
-0.484169
-0.398919
-0.305842
-0.205316
-0.097677
0.016876
0.138455
0.251164
0.339706
0.406293
0.455931
0.491716
0.515558
0.528854
0.533722
0.534194
0.533718
-0.671162
-0.639643
-0.579754
-0.502772
-0.41672
-0.32277
-0.221267
-0.11249
0.00352989
0.127198
0.242923
0.335256
0.405947
0.460024
0.500373
0.527607
0.54129
0.543959
0.54274
0.542185
-0.690898
-0.658927
-0.598413
-0.52077
-0.434038
-0.339355
-0.237063
-0.127394
-0.0102302
0.115102
0.233298
0.329053
0.403592
0.462011
0.507751
0.540438
0.556806
0.557428
0.551896
0.548677
-0.709908
-0.67749
-0.616391
-0.538192
-0.450904
-0.355641
-0.252759
-0.142453
-0.0244749
0.102101
0.222167
0.320857
0.398937
0.46109
0.512354
0.552489
0.575398
0.579225
0.567978
0.561766
-0.72813
-0.695395
-0.633827
-0.555224
-0.467607
-0.371964
-0.268773
-0.158165
-0.0397788
0.0875028
0.208792
0.309761
0.391263
0.455976
0.511169
0.558788
0.588327
0.59013
0.579605
0.565956
-0.745446
-0.712625
-0.650566
-0.571657
-0.483925
-0.388028
-0.284885
-0.174193
-0.0558051
0.0716287
0.193405
0.295489
0.380259
0.446075
0.499526
0.547922
0.577855
0.567545
0.505534
0.473637
-0.761758
-0.729904
-0.666167
-0.586992
-0.499249
-0.403376
-0.300841
-0.19028
-0.0722781
0.0546778
0.176134
0.277846
0.365305
0.432176
0.474803
0.511453
0.52376
0.482481
0.415624
0.373412
-0.80383
-0.746218
-0.680593
-0.601956
-0.514283
-0.418855
-0.316529
-0.206532
-0.0893688
0.0363834
0.156674
0.256697
0.343817
0.415878
0.43223
0.440695
0.416994
0.361269
0.289231
0.249393
-0.777814
-0.75995
-0.702046
-0.624446
-0.536748
-0.441881
-0.340564
-0.231778
-0.116381
0.00664075
0.12352
0.219644
0.297751
0.369314
0.37195
0.271177
0.178676
0.116487
0.0492211
0.0868181
-0.807691
-0.7769
-0.71836
-0.640816
-0.553572
-0.459244
-0.358058
-0.250285
-0.136441
-0.0159848
0.0972892
0.189233
0.259245
0.297042
0.251877
0.11071
-0.00552222
-0.0831037
-0.172919
-0.112897
-0.830493
-0.797404
-0.73717
-0.659425
-0.572445
-0.478341
-0.377532
-0.2709
-0.158905
-0.0415212
0.0672688
0.153412
0.2125
0.216478
0.106311
-0.0685808
-0.212164
-0.312222
-0.422658
-0.376245
-0.852353
-0.818311
-0.756854
-0.678596
-0.591596
-0.497727
-0.397629
-0.292283
-0.182328
-0.0683496
0.0351684
0.11453
0.15827
0.123548
-0.0492624
-0.255935
-0.441919
-0.599018
-0.741926
-0.704557
-0.873652
-0.839382
-0.777217
-0.698517
-0.611434
-0.517874
-0.418605
-0.31467
-0.206993
-0.0967831
0.000838868
0.0725755
0.0963248
0.0191069
-0.204269
-0.440637
-0.668051
-0.860621
-1.10907
-1.20202
-0.895058
-0.861024
-0.798524
-0.719524
-0.632356
-0.539067
-0.440566
-0.338052
-0.232728
-0.126499
-0.035048
0.0277139
0.0306245
-0.105388
-0.347527
-0.604141
-0.847971
-1.05288
-1.21617
-1.40335
-0.917442
-0.88362
-0.821049
-0.741935
-0.6548
-0.561868
-0.464233
-0.363301
-0.260639
-0.158906
-0.0742387
-0.021716
-0.0489068
-0.235761
-0.482213
-0.738715
-0.962938
-1.09615
-1.13322
-1.15065
-0.940986
-0.907385
-0.844856
-0.765782
-0.678838
-0.586403
-0.489858
-0.390803
-0.291221
-0.194656
-0.117329
-0.0775243
-0.137425
-0.360818
-0.606415
-0.842387
-1.02142
-1.07683
-1.09209
-1.09296
-0.965929
-0.932385
-0.869924
-0.790976
-0.704341
-0.612594
-0.517341
-0.42051
-0.324438
-0.233649
-0.16421
-0.141759
-0.229769
-0.480771
-0.718199
-0.931326
-1.04925
-1.06825
-1.06961
-1.06977
-0.992115
-0.95861
-0.896192
-0.817431
-0.731222
-0.640323
-0.54654
-0.452301
-0.360161
-0.275553
-0.215299
-0.208461
-0.337799
-0.59386
-0.821046
-1.00111
-1.05559
-1.05897
-1.05907
-1.05826
-1.0193
-0.985811
-0.923477
-0.844976
-0.759288
-0.669395
-0.577266
-0.485916
-0.398269
-0.319841
-0.270742
-0.278207
-0.453996
-0.706589
-0.914862
-1.04275
-1.05267
-1.05335
-1.05276
-1.05198
-1.04683
-1.01357
-0.95147
-0.873295
-0.788245
-0.699481
-0.609202
-0.520866
-0.438481
-0.365978
-0.32907
-0.354928
-0.559865
-0.822326
-1.00581
-1.05259
-1.06148
-1.04984
-1.0423
-1.04111
-1.07414
-1.04134
-0.979672
-0.90192
-0.817624
-0.7301
-0.641833
-0.556468
-0.480088
-0.413784
-0.387579
-0.43807
-0.650323
-0.936923
-1.1267
-1.12677
-1.09559
-1.07164
-1.05743
-1.05059
-1.10052
-1.06838
-1.00738
-0.930213
-0.846763
-0.760618
-0.674417
-0.591891
-0.521622
-0.463262
-0.443697
-0.534109
-0.734986
-0.994122
-1.25187
-1.30433
-1.23666
-1.2139
-1.18717
-1.1728
-1.125
-1.09375
-1.03375
-0.957345
-0.874859
-0.790097
-0.706038
-0.626141
-0.560766
-0.51377
-0.497488
-0.632117
-0.859278
-0.984228
-1.14668
-1.20308
-1.39961
-1.48422
-1.45385
-1.43818
-1.14607
-1.11626
-1.05772
-0.982301
-0.900936
-0.817414
-0.735405
-0.658146
-0.594847
-0.562402
-0.549768
-0.703599
-1.02664
-1.0442
-0.866471
-1.05035
-1.42161
-1.53245
-1.52109
-1.52229
-1.16237
-1.13453
-1.07803
-1.00397
-0.923757
-0.841492
-0.760755
-0.686304
-0.622939
-0.599039
-0.602042
-0.75633
-1.20701
-1.46672
-1.45344
-1.68747
-1.75603
-1.63986
-1.56456
-1.58257
-1.17284
-1.1474
-1.09346
-1.0211
-0.942048
-0.861003
-0.780732
-0.70775
-0.64471
-0.615991
-0.644878
-0.825352
-1.41664
-2.09687
-2.6244
-2.94978
-2.9178
-2.59189
-2.24413
-2.13538
-1.17564
-1.15342
-1.10296
-1.03259
-0.954717
-0.874318
-0.794485
-0.720139
-0.656182
-0.625066
-0.635772
-0.874655
-1.45944
-2.43043
-3.0897
-3.32146
-3.26681
-3.07461
-2.79719
-2.61406
-1.17046
-1.15186
-1.1055
-1.03759
-0.960778
-0.880665
-0.800397
-0.722513
-0.655778
-0.60563
-0.601287
-0.739217
-1.13942
-1.66053
-2.28503
-2.50904
-2.4371
-2.20226
-1.96793
-1.82286
-1.1559
-1.14122
-1.10034
-1.03567
-0.959834
-0.879706
-0.797657
-0.715699
-0.63962
-0.55226
-0.530768
-0.404367
-0.547522
-0.638443
-0.592867
-0.418518
-0.0902016
0.222165
0.425042
0.510694
-1.13338
-1.12273
-1.08784
-1.02692
-0.952026
-0.871556
-0.78721
-0.701091
-0.607309
-0.509708
-0.388896
-0.269077
0.0565343
0.528711
1.07803
1.64805
2.11255
2.40985
2.5539
2.59854
-1.10422
-1.09755
-1.06911
-1.01201
-0.937499
-0.856851
-0.772235
-0.681441
-0.580619
-0.458774
-0.311283
-0.166691
0.108883
0.66196
1.3695
2.00739
2.46336
2.73312
2.85925
2.89855
-1.06918
-1.0658
-1.04367
-0.989792
-0.91673
-0.837947
-0.754593
-0.66483
-0.562542
-0.431519
-0.282933
-0.149985
-0.00137126
0.395507
0.939885
1.4118
1.76762
1.97765
2.08159
2.11782
-1.02433
-1.02308
-1.00639
-0.957554
-0.888388
-0.813193
-0.735311
-0.652485
-0.555959
-0.43098
-0.276503
-0.172488
-0.0948134
0.13547
0.476696
0.786982
1.01801
1.16454
1.24261
1.26701
-0.951685
-0.951307
-0.939276
-0.901443
-0.844497
-0.781596
-0.717368
-0.648538
-0.562506
-0.441142
-0.292119
-0.175481
-0.0831897
0.0370217
0.280013
0.474224
0.618167
0.710744
0.762004
0.780391
-0.859647
-0.858374
-0.849958
-0.82622
-0.788588
-0.74509
-0.699625
-0.649448
-0.582055
-0.469755
-0.326947
-0.215351
-0.0986242
-0.0108632
0.126854
0.252355
0.339645
0.392852
0.418788
0.426051
-0.78204
-0.780213
-0.774722
-0.762159
-0.7415
-0.716544
-0.690237
-0.66203
-0.621222
-0.531632
-0.395867
-0.28522
-0.148562
-0.0763127
-0.0121465
0.0604265
0.117876
0.162214
0.182544
0.186711
-0.737854
-0.736481
-0.733686
-0.728221
-0.719399
-0.709857
-0.703506
-0.703154
-0.701824
-0.67027
-0.585976
-0.471665
-0.295628
-0.210403
-0.177956
-0.111507
-0.0496364
-0.00642686
0.0170576
0.018644
-0.719566
-0.719484
-0.719221
-0.718565
-0.718719
-0.72339
-0.739143
-0.776587
-0.846285
-0.935836
-0.969761
-0.818281
-0.574943
-0.465892
-0.380864
-0.286031
-0.200804
-0.145337
-0.119269
-0.119431
-0.705952
-0.707105
-0.709361
-0.713539
-0.722616
-0.742348
-0.78385
-0.871663
-1.05364
-1.34286
-1.54669
-1.32615
-0.951731
-0.748601
-0.620346
-0.48173
-0.358986
-0.273338
-0.240663
-0.244403
-0.67968
-0.681897
-0.686326
-0.694623
-0.711178
-0.743846
-0.808935
-0.946436
-1.24865
-1.79266
-2.17311
-1.89698
-1.37193
-1.07512
-0.872895
-0.676966
-0.526744
-0.437322
-0.413146
-0.416502
-0.628378
-0.631129
-0.636605
-0.646934
-0.667046
-0.705865
-0.78221
-0.943595
-1.30668
-1.98511
-2.41841
-2.09935
-1.58716
-1.28015
-1.03698
-0.849506
-0.73549
-0.681955
-0.665909
-0.664598
-0.548459
-0.551
-0.556072
-0.565722
-0.584315
-0.619925
-0.68942
-0.835137
-1.16261
-1.77065
-2.13732
-1.84394
-1.48805
-1.24259
-1.03137
-0.921036
-0.885622
-0.876248
-0.861699
-0.854997
-0.446776
-0.448561
-0.452189
-0.458979
-0.472373
-0.497744
-0.546602
-0.64708
-0.86871
-1.28639
-1.56092
-1.40999
-1.18259
-0.972776
-0.849199
-0.818227
-0.843593
-0.851933
-0.844555
-0.838777
-0.337173
-0.338033
-0.339897
-0.34339
-0.350476
-0.363821
-0.389015
-0.439287
-0.546325
-0.754808
-0.910389
-0.823526
-0.692393
-0.579885
-0.562958
-0.610962
-0.648582
-0.66079
-0.660745
-0.659328
-0.234267
-0.234379
-0.234851
-0.235785
-0.237857
-0.241745
-0.248858
-0.262388
-0.28897
-0.332506
-0.360195
-0.317493
-0.279815
-0.287633
-0.353961
-0.406694
-0.433334
-0.443113
-0.446671
-0.447025
-0.148127
-0.147813
-0.147513
-0.147057
-0.146307
-0.144825
-0.142078
-0.137113
-0.127674
-0.106799
-0.0743787
-0.0503135
-0.0752071
-0.137469
-0.197761
-0.237222
-0.256829
-0.265657
-0.269924
-0.271125
-0.0826415
-0.0821864
-0.0816473
-0.0807879
-0.0790971
-0.0757456
-0.0696375
-0.0590675
-0.0413902
-0.0137967
0.0116449
0.013948
-0.0173587
-0.0631991
-0.102294
-0.127516
-0.140626
-0.146884
-0.15037
-0.151532
-0.0368087
-0.0363881
-0.0359105
-0.0351893
-0.0336326
-0.0303878
-0.0244925
-0.0145833
0.0008301
0.0213251
0.034931
0.0288258
0.00471922
-0.0246857
-0.0486256
-0.0639393
-0.0721377
-0.0763694
-0.0787109
-0.0795111
-0.00707728
-0.00676132
-0.00645044
-0.00606492
-0.00503954
-0.00266114
0.00177797
0.00907814
0.0197666
0.0323494
0.0380451
0.0303707
0.0137092
-0.00445535
-0.0189477
-0.0283817
-0.0336324
-0.0363764
-0.0378336
-0.0383226
0.0106813
0.0108862
0.0110305
0.0110969
0.0115688
0.0129901
0.0158423
0.0205761
0.027205
0.0340901
0.0355087
0.0287151
0.0175378
0.00625492
-0.00267648
-0.00867252
-0.0121649
-0.0139972
-0.0149091
-0.0152061
0.0201172
0.0202346
0.0202495
0.0200822
0.0201253
0.0207667
0.0223152
0.0249911
0.0286464
0.0319674
0.0314464
0.0261171
0.0186722
0.0115141
0.005853
0.00193059
-0.000455176
-0.00171188
-0.00229864
-0.00247895
0.0240237
0.0240824
0.0240173
0.0237205
0.0235057
0.0236255
0.0242913
0.025602
0.0273629
0.0286174
0.0273177
0.0232688
0.0182367
0.0135667
0.00986472
0.00722752
0.00556433
0.00468819
0.00430304
0.00418653
0.0243825
0.0244052
0.0243015
0.0239614
0.0236112
0.0234245
0.0235385
0.0239934
0.0246243
0.0247733
0.0232763
0.020244
0.0167923
0.0136689
0.011184
0.00937374
0.00819878
0.0075799
0.00732058
0.00724731
0.0225349
0.0225383
0.0224257
0.0220953
0.021704
0.021374
0.0211931
0.0211726
0.0211858
0.0208035
0.0193893
0.017135
0.0147329
0.012601
0.0108997
0.00963846
0.00880274
0.0083642
0.0081897
0.00814007
0.0193521
0.0193471
0.0192437
0.0189511
0.0185785
0.0182112
0.017906
0.0176644
0.0173966
0.0168255
0.0156152
0.0139605
0.0122858
0.010821
0.00964819
0.00876679
0.00817356
0.00786312
0.00774475
0.00771183
0.015371
0.0153639
0.0152791
0.015039
0.014717
0.0143787
0.0140591
0.013757
0.0134121
0.0128532
0.0119102
0.0107406
0.00959873
0.00860875
0.00781195
0.00720453
0.0067896
0.00657334
0.00649451
0.00647287
0.0109133
0.0109067
0.0108435
0.0106619
0.0104116
0.0101453
0.00988387
0.00962469
0.0093297
0.00889833
0.00824826
0.0074886
0.00676384
0.00613717
0.00562685
0.00522853
0.00495
0.0048053
0.00475488
0.00474065
0.00616921
0.00616402
0.00612384
0.00600638
0.00584813
0.00568601
0.00552798
0.00537091
0.00519397
0.00494803
0.00459634
0.00419714
0.00382138
0.00349571
0.00322591
0.00300657
0.0028451
0.00276105
0.00273271
0.00272299
0.00127225
0.00127733
0.00130382
0.00132057
0.00129511
0.00125265
0.0012059
0.00115807
0.00110497
0.00103786
0.000948441
0.000844674
0.000745954
0.000658428
0.00058498
0.000526636
0.000490564
0.000490059
0.000513862
0.000527093
-0.548831
-0.324015
-0.111877
0.062864
0.206661
0.32403
0.424386
0.506527
0.531496
0.527541
-0.19526
-0.0489564
0.0874274
0.20649
0.308292
0.393885
0.462291
0.509396
0.534859
0.550872
0.0441319
0.139522
0.23463
0.318973
0.391562
0.452123
0.499953
0.53599
0.561964
0.581112
0.214198
0.281658
0.350146
0.411553
0.464624
0.509588
0.546894
0.577435
0.600298
0.61933
0.34761
0.397515
0.44762
0.493965
0.535025
0.571003
0.602103
0.628136
0.647665
0.66592
0.457134
0.496412
0.535454
0.572956
0.60732
0.638153
0.665175
0.687667
0.704514
0.722143
0.551164
0.585859
0.620732
0.654241
0.685319
0.713438
0.737965
0.757973
0.77263
0.789791
0.642213
0.676367
0.710512
0.743256
0.773367
0.800278
0.823316
0.841546
0.85445
0.871107
0.739189
0.776655
0.812516
0.845944
0.875949
0.902
0.923704
0.940464
0.952398
0.968637
0.853972
0.895413
0.933039
0.966457
0.995414
1.01985
1.03986
1.05543
1.06753
1.08368
0.996615
1.03787
1.07351
1.1034
1.12889
1.15079
1.16955
1.18522
1.19848
1.21448
1.16865
1.20082
1.22807
1.25071
1.27101
1.28991
1.3078
1.32469
1.33969
1.35544
1.35514
1.37245
1.38971
1.40657
1.42281
1.43765
1.45164
1.46619
1.48149
1.49883
1.53882
1.54877
1.562
1.57304
1.58249
1.59223
1.60293
1.61318
1.62253
1.64822
1.75681
1.75114
1.73819
1.72393
1.71769
1.72347
1.74164
1.7702
1.80399
1.84034
2.05956
1.9236
1.84418
1.80181
1.78452
1.78848
1.81597
1.87384
1.98151
2.15992
0.337361
0.331061
0.323334
0.312223
0.298655
0.286004
0.275593
0.267558
0.261808
0.258402
0.257877
0.260467
0.265469
0.272645
0.282066
0.293799
0.307289
0.320167
0.329121
0.336641
0.246411
0.252333
0.260424
0.266577
0.269669
0.269181
0.266119
0.262121
0.258456
0.256036
0.255717
0.257744
0.261311
0.265574
0.269498
0.271608
0.27043
0.265714
0.258595
0.250729
0.239661
0.242037
0.245324
0.248125
0.250611
0.252842
0.254054
0.253904
0.252893
0.251945
0.251948
0.253133
0.254689
0.255707
0.255434
0.253793
0.251499
0.24903
0.245975
0.242924
0.234847
0.235933
0.237889
0.240296
0.242235
0.243691
0.24494
0.245928
0.246479
0.246668
0.246976
0.247486
0.247689
0.247306
0.246453
0.245324
0.243809
0.24168
0.239452
0.237939
0.229857
0.230483
0.23166
0.233509
0.235445
0.237094
0.23835
0.239359
0.240263
0.241046
0.241568
0.241723
0.241519
0.241049
0.240281
0.239081
0.237429
0.235609
0.234125
0.233289
0.225023
0.225447
0.226294
0.227724
0.229388
0.231082
0.232651
0.234013
0.23515
0.236113
0.236772
0.236925
0.236655
0.235984
0.234934
0.233588
0.23211
0.230687
0.2296
0.229036
0.220397
0.22069
0.221389
0.222707
0.224293
0.225972
0.227722
0.229347
0.230687
0.23173
0.232493
0.232818
0.232579
0.231793
0.23059
0.22923
0.227867
0.226553
0.225617
0.225202
0.216161
0.216366
0.216929
0.218087
0.219538
0.221036
0.222548
0.224144
0.225777
0.227218
0.228195
0.228466
0.228083
0.227333
0.226423
0.225376
0.224206
0.223075
0.222311
0.222008
0.212199
0.212319
0.212781
0.213866
0.215266
0.216743
0.218239
0.219716
0.221157
0.222578
0.22374
0.224302
0.22434
0.223962
0.223254
0.222323
0.221269
0.220242
0.219588
0.219386
0.208945
0.208995
0.209348
0.210314
0.211629
0.213038
0.214574
0.216212
0.217908
0.219537
0.220924
0.221742
0.221905
0.221584
0.22097
0.220217
0.219336
0.218471
0.217969
0.217857
0.206306
0.206326
0.206544
0.207202
0.208191
0.209307
0.210541
0.211937
0.213555
0.21535
0.217057
0.218241
0.218838
0.219059
0.21897
0.21864
0.21819
0.217723
0.217483
0.217429
0.203536
0.203557
0.203708
0.204133
0.204857
0.205815
0.207028
0.208536
0.210306
0.212338
0.214414
0.216035
0.21701
0.21747
0.217657
0.217691
0.217619
0.217519
0.217468
0.217433
0.200016
0.200037
0.200182
0.200523
0.201102
0.201961
0.203112
0.204646
0.206627
0.209027
0.21161
0.213742
0.215177
0.216092
0.216652
0.21703
0.217267
0.217411
0.217446
0.217417
0.195611
0.195623
0.195775
0.196136
0.196738
0.197629
0.198907
0.200667
0.202963
0.205822
0.20901
0.211773
0.213712
0.215073
0.216012
0.216609
0.21707
0.217323
0.217394
0.217378
0.190388
0.190387
0.190541
0.190996
0.191739
0.192829
0.194369
0.196465
0.199249
0.202756
0.206729
0.210232
0.212771
0.214555
0.215788
0.216643
0.217214
0.217502
0.217609
0.217616
0.184473
0.184458
0.184623
0.185163
0.186121
0.187461
0.189297
0.191869
0.195253
0.199558
0.204499
0.20893
0.212214
0.214551
0.216166
0.217285
0.217948
0.218316
0.218483
0.21851
0.177804
0.177774
0.177963
0.178575
0.179667
0.181427
0.183758
0.186848
0.190999
0.196327
0.202483
0.208066
0.212209
0.215184
0.217259
0.218665
0.219537
0.220042
0.220282
0.22032
0.170139
0.170103
0.170341
0.171081
0.172407
0.174409
0.17725
0.181122
0.186286
0.192925
0.200613
0.207589
0.212797
0.216522
0.219171
0.220953
0.222107
0.2228
0.223119
0.223165
0.161034
0.160996
0.161293
0.1622
0.163808
0.166236
0.169728
0.174565
0.181046
0.189361
0.198955
0.207638
0.214099
0.218792
0.222069
0.224314
0.225803
0.22671
0.227116
0.22717
0.149909
0.149861
0.150263
0.151394
0.153399
0.156466
0.160876
0.167001
0.175181
0.185612
0.197566
0.208311
0.216316
0.222077
0.226125
0.228917
0.23079
0.231937
0.232441
0.232506
0.136117
0.136062
0.136616
0.138113
0.140708
0.144654
0.150332
0.158176
0.168562
0.181677
0.196529
0.209755
0.219543
0.226586
0.23155
0.234986
0.237307
0.238732
0.239356
0.239431
0.118722
0.118669
0.119465
0.121495
0.124946
0.130174
0.137634
0.147817
0.16111
0.1776
0.195954
0.212097
0.223975
0.232523
0.238568
0.242774
0.24563
0.247383
0.248149
0.248234
0.0962756
0.0962429
0.0974353
0.100301
0.105083
0.112267
0.122328
0.135759
0.152845
0.173507
0.196005
0.215507
0.229781
0.240074
0.247396
0.252533
0.256046
0.258201
0.259128
0.259227
0.0664259
0.0664718
0.0683796
0.0727038
0.0797626
0.0900699
0.104015
0.121933
0.143902
0.169616
0.196889
0.220157
0.237112
0.249391
0.258214
0.264482
0.268816
0.271473
0.272599
0.272706
0.0250004
0.0253063
0.0287898
0.0361318
0.0474076
0.0628585
0.0825687
0.106553
0.134619
0.166236
0.198823
0.226179
0.246044
0.260526
0.271083
0.27873
0.284134
0.287444
0.288799
0.288905
-0.0357874
-0.0341402
-0.0258152
-0.0118283
0.00721411
0.0308714
0.05864
0.0903168
0.125558
0.16374
0.201998
0.233618
0.256519
0.273338
0.285812
0.295073
0.301767
0.305947
0.307632
0.30776
-0.109183
-0.10585
-0.0898494
-0.0654159
-0.0358725
-0.00270998
0.0338282
0.0737138
0.11669
0.162204
0.20718
0.244275
0.2714
0.2917
0.307127
0.318998
0.327961
0.333537
0.335574
0.336052
-0.183805
-0.175352
-0.151514
-0.117251
-0.0779268
-0.0355315
0.00973726
0.0578445
0.108579
0.161484
0.213276
0.255929
0.287296
0.311055
0.329487
0.343941
0.3551
0.361999
0.365278
0.366243
-0.242382
-0.232602
-0.203917
-0.162857
-0.116028
-0.0658876
-0.012865
0.0428218
0.100839
0.1607
0.218812
0.266413
0.301349
0.3278
0.348312
0.364428
0.376795
0.384935
0.389024
0.390195
-0.289997
-0.279554
-0.247524
-0.201631
-0.149219
-0.0929894
-0.0335402
0.0287144
0.0932685
0.15945
0.223243
0.275113
0.312894
0.341287
0.363129
0.380204
0.393366
0.402252
0.406773
0.40799
-0.329635
-0.319054
-0.284887
-0.235204
-0.178264
-0.117063
-0.0522779
0.0155806
0.0858806
0.157709
0.226582
0.28215
0.322217
0.352006
0.374696
0.392262
0.405706
0.414897
0.419506
0.420772
-0.364135
-0.353522
-0.317775
-0.26508
-0.204429
-0.139
-0.0695918
0.00321243
0.0786257
0.155586
0.229081
0.287979
0.330072
0.361021
0.384301
0.402085
0.415554
0.424719
0.429292
0.430563
-0.395061
-0.38447
-0.347506
-0.292351
-0.228532
-0.159459
-0.0859771
-0.00874925
0.0713272
0.153055
0.230966
0.293087
0.337071
0.369038
0.392781
0.41071
0.424182
0.433363
0.437943
0.439105
-0.423597
-0.413001
-0.375047
-0.317763
-0.25123
-0.178998
-0.1019
-0.0206515
0.0637509
0.150004
0.232182
0.297424
0.343307
0.376344
0.400639
0.418797
0.432315
0.441493
0.446081
0.447109
-0.450557
-0.439926
-0.401081
-0.341927
-0.272994
-0.197948
-0.117618
-0.0327418
0.055666
0.146197
0.232548
0.301079
0.349067
0.383353
0.408316
0.426791
0.44042
0.449581
0.45413
0.455075
-0.476378
-0.465705
-0.426014
-0.365183
-0.29411
-0.216579
-0.133362
-0.0451891
0.0469246
0.141563
0.232189
0.304194
0.354474
0.390203
0.415999
0.434918
0.448743
0.457922
0.462421
0.463335
-0.501406
-0.490613
-0.450135
-0.387789
-0.314825
-0.23507
-0.14924
-0.0580652
0.0375092
0.136127
0.231004
0.306668
0.359524
0.39695
0.423807
0.44333
0.457464
0.466711
0.471101
0.471977
-0.525836
-0.514855
-0.473639
-0.409894
-0.335227
-0.253479
-0.1653
-0.0713903
0.0273767
0.129745
0.228842
0.308412
0.364194
0.403621
0.431767
0.452066
0.466608
0.475967
0.480251
0.481066
-0.5497
-0.538501
-0.496566
-0.431562
-0.355379
-0.27185
-0.181583
-0.085213
0.0164593
0.122344
0.225639
0.309304
0.368345
0.410142
0.439847
0.461106
0.476162
0.485665
0.489822
0.490519
-0.573076
-0.561611
-0.518994
-0.452823
-0.375289
-0.290182
-0.198064
-0.099513
0.00478143
0.113952
0.2213
0.309186
0.371806
0.416376
0.447983
0.470406
0.486059
0.495691
0.499688
0.500237
-0.595887
-0.58419
-0.540893
-0.473656
-0.394916
-0.308418
-0.214679
-0.114215
-0.00758211
0.104557
0.215748
0.307896
0.374399
0.422171
0.456096
0.479934
0.496253
0.505966
0.509742
0.510112
-0.618155
-0.606193
-0.562214
-0.494017
-0.414214
-0.326506
-0.231359
-0.12923
-0.0205764
0.0941879
0.208946
0.305274
0.375862
0.427307
0.464094
0.489705
0.506729
0.516343
0.519739
0.519909
-0.639705
-0.627552
-0.582914
-0.513859
-0.433122
-0.344357
-0.248021
-0.144484
-0.0341102
0.0829297
0.200879
0.30121
0.375941
0.431439
0.471784
0.499801
0.517622
0.526761
0.52946
0.529375
-0.660632
-0.648227
-0.602951
-0.533139
-0.451588
-0.361913
-0.264564
-0.159875
-0.0480731
0.070885
0.191577
0.295605
0.374407
0.434159
0.478788
0.510292
0.529472
0.537559
0.538741
0.538213
-0.680792
-0.668139
-0.622305
-0.551803
-0.469525
-0.379088
-0.280899
-0.175272
-0.0623416
0.0581449
0.181118
0.288411
0.371063
0.434995
0.484425
0.520876
0.543134
0.550367
0.548316
0.546202
-0.700231
-0.687349
-0.640917
-0.569791
-0.486893
-0.39581
-0.296935
-0.190583
-0.0767952
0.0448714
0.169623
0.27961
0.365798
0.433495
0.487671
0.530359
0.558524
0.568262
0.56329
0.551404
-0.71886
-0.705824
-0.658876
-0.587269
-0.503905
-0.412368
-0.31302
-0.206236
-0.091915
0.0305037
0.156487
0.268505
0.357958
0.428959