/*--------------------------------*- C++ -*----------------------------------*\
  =========                 |
  \\      /  F ield         | OpenFOAM: The Open Source CFD Toolbox
   \\    /   O peration     | Website:  https://openfoam.org
    \\  /    A nd           | Version:  6
     \\/     M anipulation  |
\*---------------------------------------------------------------------------*/
FoamFile
{
    version     2.0;
    format      ascii;
    class       volScalarField;
    location    "93.9";
    object      p;
}
// * * * * * * * * * * * * * * * * * * * * * * * * * * * * * * * * * * * * * //

dimensions      [0 2 -2 0 0 0 0];

internalField   nonuniform List<scalar> 
8800
(
0.856278
0.806964
0.769
0.740933
0.720776
0.706194
0.695603
0.688072
0.683201
0.68115
0.682541
0.686902
0.693709
0.703144
0.715888
0.733215
0.757096
0.790196
0.833135
0.88565
0.690767
0.697112
0.706264
0.709815
0.707209
0.701125
0.694191
0.687958
0.683169
0.680316
0.680106
0.682754
0.687413
0.693555
0.700665
0.707706
0.71259
0.71247
0.705799
0.696903
0.664272
0.670508
0.675011
0.678886
0.681838
0.682794
0.681714
0.679604
0.67764
0.676822
0.677878
0.680353
0.683257
0.685541
0.686072
0.684292
0.680933
0.676925
0.672147
0.668431
0.659955
0.662722
0.665331
0.667493
0.669236
0.670812
0.671925
0.672292
0.672197
0.672321
0.673155
0.674323
0.675086
0.674953
0.673991
0.672647
0.670986
0.66869
0.666284
0.664717
0.654877
0.656303
0.658146
0.660233
0.661952
0.663254
0.664365
0.665362
0.666194
0.666962
0.667708
0.668199
0.668249
0.667907
0.667257
0.666155
0.66451
0.662624
0.661276
0.660473
0.649858
0.650762
0.652013
0.653646
0.655349
0.656893
0.658193
0.659336
0.66043
0.661485
0.662314
0.662743
0.662786
0.662446
0.661665
0.660495
0.659148
0.657893
0.657077
0.656553
0.644914
0.64557
0.646536
0.647862
0.649321
0.650852
0.652357
0.653748
0.655046
0.656298
0.657304
0.657848
0.657908
0.657507
0.656754
0.655835
0.654863
0.653972
0.653398
0.653013
0.640039
0.640545
0.641336
0.642486
0.643801
0.645237
0.646771
0.648345
0.649901
0.651416
0.652639
0.653312
0.653445
0.653169
0.652642
0.651984
0.651273
0.650627
0.650206
0.649906
0.635179
0.63558
0.636246
0.63728
0.638528
0.639916
0.641452
0.643134
0.64492
0.646738
0.648239
0.649126
0.649471
0.649441
0.649168
0.648741
0.648244
0.647796
0.647489
0.647244
0.630248
0.630576
0.631156
0.632114
0.633322
0.634707
0.636289
0.638085
0.640087
0.642231
0.644094
0.645315
0.645972
0.646228
0.646212
0.646028
0.645738
0.645458
0.645235
0.645029
0.625158
0.625429
0.625951
0.626867
0.628066
0.629488
0.63116
0.633118
0.635378
0.637901
0.640217
0.641868
0.642903
0.643484
0.643749
0.643813
0.643734
0.643604
0.643451
0.643272
0.619813
0.620041
0.620526
0.621431
0.622662
0.624165
0.625972
0.62815
0.630741
0.633736
0.636604
0.638769
0.640244
0.641202
0.641785
0.642103
0.642248
0.64226
0.642164
0.642004
0.614117
0.614311
0.614778
0.615702
0.617006
0.618635
0.620635
0.623103
0.626115
0.629695
0.633233
0.63601
0.638003
0.639393
0.640339
0.640958
0.641329
0.641472
0.641424
0.641275
0.607958
0.608125
0.608592
0.609564
0.610981
0.61279
0.615052
0.617895
0.621435
0.625731
0.630079
0.633591
0.636198
0.638092
0.639455
0.640412
0.641026
0.641302
0.641295
0.641154
0.60121
0.601354
0.601836
0.602884
0.604461
0.606511
0.609113
0.612433
0.616627
0.621798
0.627124
0.631513
0.63485
0.637339
0.639179
0.640521
0.641414
0.641827
0.641859
0.641719
0.593722
0.593842
0.594353
0.595508
0.597296
0.599657
0.602693
0.606609
0.61161
0.617847
0.62435
0.629787
0.633985
0.637178
0.639589
0.641378
0.642581
0.643138
0.643203
0.643062
0.5853
0.585403
0.585949
0.587243
0.589304
0.59206
0.595641
0.600299
0.606294
0.613826
0.621742
0.628424
0.63364
0.637661
0.640757
0.643071
0.644623
0.645329
0.645425
0.645278
0.575657
0.575762
0.576376
0.577844
0.580256
0.583512
0.587775
0.593357
0.600577
0.609681
0.619287
0.627443
0.633859
0.638855
0.642756
0.645684
0.647631
0.648494
0.648616
0.648458
0.564499
0.564581
0.565281
0.567004
0.569861
0.573751
0.578877
0.585614
0.594344
0.605356
0.616977
0.626863
0.634685
0.640827
0.645655
0.649307
0.651691
0.65271
0.652851
0.65268
0.551406
0.551475
0.552285
0.554322
0.557745
0.562451
0.568677
0.576871
0.587472
0.600799
0.61481
0.626712
0.636157
0.643628
0.649537
0.654008
0.656858
0.658025
0.658174
0.657986
0.535785
0.535845
0.536807
0.539264
0.543432
0.549203
0.556854
0.566907
0.579843
0.595974
0.612797
0.627024
0.638314
0.647302
0.654435
0.659815
0.663145
0.664434
0.664577
0.664369
0.516797
0.516853
0.518039
0.521091
0.526275
0.533484
0.543027
0.555493
0.571362
0.590881
0.610971
0.62783
0.641194
0.651873
0.660351
0.666716
0.670493
0.671855
0.671971
0.671743
0.493216
0.493278
0.494816
0.498762
0.50541
0.514638
0.526778
0.542432
0.561996
0.585573
0.6094
0.629175
0.644812
0.657338
0.667262
0.674613
0.678745
0.680103
0.680169
0.679924
0.463118
0.46321
0.465363
0.470764
0.479707
0.491917
0.507734
0.527636
0.551822
0.580181
0.608197
0.631126
0.649181
0.663646
0.675086
0.683321
0.687632
0.688882
0.688877
0.688622
0.423248
0.42348
0.426903
0.434992
0.447819
0.46467
0.485747
0.511243
0.541079
0.574927
0.607512
0.63377
0.65431
0.670745
0.683657
0.692545
0.69677
0.697796
0.697709
0.697454
0.367398
0.368571
0.375423
0.389125
0.408754
0.432795
0.461169
0.49373
0.530196
0.570114
0.607521
0.637188
0.660204
0.678536
0.692734
0.701891
0.705691
0.706405
0.706245
0.706001
0.286575
0.294515
0.310307
0.334328
0.364135
0.397804
0.435047
0.475674
0.519428
0.565882
0.608418
0.641725
0.667419
0.687772
0.702939
0.711941
0.715102
0.715502
0.7153
0.715099
0.200424
0.217838
0.243496
0.278599
0.319136
0.36255
0.408636
0.457388
0.508655
0.562103
0.610418
0.647965
0.67686
0.69941
0.715365
0.723503
0.725708
0.725823
0.725654
0.72553
0.126449
0.14776
0.181652
0.22624
0.276274
0.328861
0.383546
0.440253
0.498805
0.558868
0.612472
0.653775
0.685403
0.709661
0.725728
0.732736
0.734231
0.734246
0.734117
0.734028
0.0656798
0.0893621
0.128902
0.180299
0.237733
0.297961
0.360202
0.424166
0.489477
0.555682
0.614116
0.658748
0.69266
0.718164
0.73412
0.740372
0.741527
0.741507
0.741399
0.741321
0.0151973
0.0403062
0.0839297
0.140606
0.203949
0.270433
0.33907
0.409395
0.480795
0.552621
0.615474
0.663112
0.699017
0.725532
0.741339
0.747025
0.747985
0.747951
0.747854
0.747777
-0.0276084
-0.00166491
0.0449718
0.105918
0.174214
0.24602
0.320172
0.39609
0.472972
0.549938
0.616853
0.667195
0.704826
0.732116
0.747692
0.75296
0.753822
0.753795
0.753709
0.753628
-0.0648152
-0.0383341
0.0106466
0.0751306
0.147659
0.224107
0.303157
0.38412
0.466029
0.547774
0.61846
0.671257
0.710345
0.73816
0.753444
0.758404
0.759231
0.759238
0.759177
0.759091
-0.0979467
-0.0710573
-0.0201576
0.0473442
0.123553
0.204097
0.287571
0.373183
0.459801
0.546098
0.620377
0.675458
0.715819
0.743975
0.758935
0.763653
0.764479
0.764547
0.76453
0.764445
-0.128068
-0.100819
-0.0482973
0.0218437
0.101307
0.185509
0.273007
0.362944
0.454056
0.544771
0.622592
0.679902
0.721463
0.749905
0.764559
0.769072
0.769903
0.770043
0.770085
0.77001
-0.156027
-0.128409
-0.0744411
-0.00191094
0.0804528
0.16795
0.259132
0.353119
0.448552
0.543637
0.625056
0.684655
0.727459
0.756215
0.770636
0.774987
0.77582
0.776013
0.77611
0.77605
-0.182259
-0.154307
-0.0990185
-0.0243479
0.0606276
0.151112
0.245688
0.343476
0.44308
0.542557
0.627701
0.68974
0.733884
0.763061
0.77734
0.781563
0.78236
0.782573
0.782705
0.782661
-0.207283
-0.178917
-0.122409
-0.045785
0.0415521
0.134753
0.232465
0.333828
0.437461
0.541366
0.630447
0.695128
0.740743
0.770429
0.78462
0.78873
0.789456
0.78965
0.78979
0.789762
-0.231269
-0.202487
-0.144835
-0.0664418
0.0230271
0.118708
0.219309
0.324028
0.431546
0.53991
0.633179
0.700755
0.747965
0.778189
0.792315
0.796284
0.796906
0.797046
0.797173
0.797159
-0.254402
-0.225184
-0.166469
-0.0864614
0.0049345
0.102864
0.206114
0.313957
0.425201
0.538027
0.635744
0.706563
0.755515
0.786223
0.800198
0.80394
0.804431
0.804496
0.80459
0.804597
-0.276818
-0.247127
-0.187408
-0.105927
-0.0128108
0.0871508
0.192816
0.30355
0.418321
0.535563
0.637982
0.712469
0.763402
0.794491
0.808045
0.811441
0.811765
0.811755
0.811812
0.811819
-0.298616
-0.268405
-0.207695
-0.124884
-0.0302347
0.0715362
0.179387
0.292764
0.410837
0.532379
0.639716
0.718368
0.771687
0.803077
0.815834
0.818585
0.81869
0.818638
0.818669
0.818665
-0.319702
-0.288999
-0.227346
-0.143364
-0.0473533
0.056031
0.165824
0.281598
0.402714
0.52838
0.64076
0.724119
0.780432
0.812297
0.823815
0.825365
0.825051
0.825022
0.825119
0.825111
-0.340085
-0.308913
-0.246385
-0.161362
-0.0641519
0.0406496
0.152164
0.270062
0.393952
0.523485
0.640938
0.729524
0.789647
0.822534
0.832634
0.832243
0.830885
0.830892
0.831375
0.831503
-0.359843
-0.328144
-0.264824
-0.178876
-0.0805998
0.0254386
0.138454
0.258208
0.38457
0.517658
0.64007
0.73434
0.799188
0.8341
0.8433
0.840517
0.837089
0.836708
0.838086
0.83906
-0.378859
-0.346683
-0.282631
-0.195864
-0.096666
0.0104545
0.124759
0.246103
0.374626
0.51091
0.63801
0.738264
0.808739
0.846917
0.856572
0.852146
0.846105
0.843638
0.844365
0.845253
-0.397227
-0.364564
-0.299823
-0.212374
-0.112399
-0.00435328
0.111018
0.233681
0.364041
0.503158
0.634571
0.741006
0.818033
0.860662
0.872502
0.868329
0.860296
0.852438
0.844056
0.846555
-0.414891
-0.381852
-0.316547
-0.228603
-0.128092
-0.0193032
0.0968328
0.220487
0.352316
0.493845
0.629204
0.741954
0.826887
0.875221
0.890388
0.888362
0.878106
0.863168
0.841297
0.84323
-0.431739
-0.398536
-0.332655
-0.244374
-0.143494
-0.0341109
0.0823824
0.206806
0.339684
0.483102
0.621741
0.740062
0.833945
0.888972
0.906097
0.904499
0.89208
0.861042
0.804653
0.781131
-0.447672
-0.415621
-0.347757
-0.259257
-0.157807
-0.0482899
0.0679462
0.192909
0.326414
0.471072
0.612138
0.734524
0.837539
0.90008
0.913913
0.906611
0.88122
0.823398
0.760747
0.722943
-0.489499
-0.432464
-0.361551
-0.274206
-0.171801
-0.0628393
0.0536716
0.178661
0.312273
0.457341
0.599831
0.724411
0.833669
0.903145
0.909367
0.881171
0.820068
0.747285
0.675966
0.636584
-0.46336
-0.44466
-0.382481
-0.294481
-0.193547
-0.0847349
0.0312119
0.155801
0.288954
0.433449
0.575839
0.700532
0.803446
0.880396
0.851572
0.727373
0.627181
0.557594
0.489829
0.511819
-0.493198
-0.461394
-0.39834
-0.310788
-0.210219
-0.101512
0.0147179
0.138795
0.271168
0.414326
0.554718
0.676392
0.768069
0.811058
0.745266
0.592718
0.474605
0.394914
0.309228
0.349208
-0.51605
-0.481941
-0.417201
-0.329602
-0.229077
-0.120345
-0.00416032
0.11923
0.250406
0.391435
0.528244
0.643965
0.723414
0.728238
0.607279
0.441704
0.30489
0.206347
0.107784
0.134006
-0.538138
-0.50306
-0.437023
-0.348805
-0.24821
-0.139578
-0.023876
0.0986137
0.22829
0.366632
0.49854
0.604995
0.666792
0.637678
0.466188
0.2809
0.115067
-0.0232623
-0.150734
-0.143462
-0.559861
-0.52447
-0.457595
-0.368834
-0.26813
-0.159725
-0.0446812
0.0767086
0.204515
0.339603
0.465456
0.562224
0.602555
0.523475
0.326825
0.123034
-0.0680392
-0.225079
-0.431381
-0.511508
-0.581911
-0.54665
-0.479318
-0.390201
-0.289384
-0.181192
-0.0667762
0.053425
0.179146
0.310549
0.429591
0.516802
0.528684
0.398419
0.199125
-0.0153185
-0.210712
-0.373789
-0.497591
-0.612446
-0.60535
-0.570076
-0.502545
-0.413287
-0.312509
-0.204655
-0.0909979
0.0277857
0.150991
0.277981
0.389467
0.463238
0.445812
0.279475
0.0793131
-0.128758
-0.307427
-0.406007
-0.432049
-0.445259
-0.630315
-0.595043
-0.527405
-0.438182
-0.337652
-0.23034
-0.117729
-0.000734736
0.11941
0.241086
0.34446
0.398858
0.361216
0.164989
-0.032793
-0.220496
-0.355663
-0.394133
-0.402726
-0.403058
-0.657092
-0.62168
-0.553939
-0.464873
-0.364764
-0.258262
-0.147005
-0.0322089
0.0843178
0.199854
0.294242
0.330766
0.258524
0.0599088
-0.1311
-0.294207
-0.370197
-0.384336
-0.385376
-0.385244
-0.685689
-0.650021
-0.582174
-0.493368
-0.393871
-0.288423
-0.178849
-0.0666708
0.0457187
0.154412
0.238453
0.258746
0.147198
-0.0358886
-0.215886
-0.345018
-0.374458
-0.375144
-0.375759
-0.375363
-0.715856
-0.67991
-0.612019
-0.523594
-0.424899
-0.320785
-0.213252
-0.104111
0.00366407
0.104878
0.178415
0.178866
0.0489873
-0.123346
-0.282226
-0.356617
-0.371563
-0.369846
-0.369625
-0.369268
-0.747044
-0.711002
-0.643215
-0.555328
-0.457669
-0.355199
-0.250073
-0.144418
-0.0416274
0.0517134
0.114536
0.098446
-0.0407374
-0.199961
-0.327121
-0.365789
-0.365188
-0.365338
-0.365099
-0.364814
-0.77881
-0.742767
-0.675281
-0.588159
-0.491834
-0.391346
-0.289033
-0.187315
-0.0898564
-0.00410287
0.0456535
0.0227121
-0.121047
-0.260693
-0.35415
-0.362174
-0.362928
-0.362812
-0.362553
-0.362302
-0.810184
-0.774341
-0.707495
-0.621455
-0.526843
-0.428749
-0.329662
-0.232309
-0.140589
-0.0617129
-0.0230336
-0.0529307
-0.188923
-0.303415
-0.360604
-0.370171
-0.363772
-0.362283
-0.361698
-0.361368
-0.839459
-0.804448
-0.738822
-0.654333
-0.561918
-0.466697
-0.371285
-0.27865
-0.193044
-0.120611
-0.0864655
-0.130564
-0.243534
-0.335474
-0.358871
-0.361859
-0.36261
-0.362052
-0.361704
-0.361479
-0.865451
-0.831583
-0.76787
-0.685591
-0.595995
-0.504242
-0.413015
-0.325406
-0.245961
-0.180251
-0.14833
-0.197375
-0.285064
-0.351683
-0.373532
-0.364432
-0.361885
-0.361203
-0.361041
-0.360979
-0.885511
-0.853653
-0.792884
-0.71371
-0.627759
-0.540196
-0.453735
-0.371504
-0.298012
-0.238902
-0.20981
-0.249423
-0.313704
-0.355091
-0.360543
-0.361884
-0.360777
-0.360488
-0.360484
-0.360423
-0.89761
-0.86856
-0.811799
-0.736948
-0.655682
-0.573171
-0.492126
-0.415672
-0.348106
-0.293966
-0.266011
-0.293211
-0.333954
-0.363247
-0.360485
-0.36201
-0.362349
-0.361921
-0.361659
-0.361487
-0.899063
-0.873935
-0.822524
-0.753464
-0.67813
-0.601704
-0.526763
-0.456419
-0.395052
-0.344672
-0.312459
-0.332137
-0.347606
-0.376562
-0.37136
-0.365313
-0.363684
-0.362956
-0.362591
-0.36241
-0.887524
-0.867173
-0.82293
-0.761518
-0.693632
-0.62442
-0.556309
-0.49228
-0.437
-0.391992
-0.347213
-0.364226
-0.345517
-0.355633
-0.359637
-0.359684
-0.360804
-0.361698
-0.362061
-0.362131
-0.860774
-0.8459
-0.811173
-0.759889
-0.701145
-0.640319
-0.57977
-0.522133
-0.472165
-0.434564
-0.386392
-0.375783
-0.34988
-0.327458
-0.33689
-0.353272
-0.360714
-0.364233
-0.36584
-0.366379
-0.822269
-0.812789
-0.788447
-0.748857
-0.700689
-0.649153
-0.59659
-0.545382
-0.50023
-0.468225
-0.435993
-0.408774
-0.386341
-0.387803
-0.401532
-0.394209
-0.387027
-0.384896
-0.385389
-0.385629
-0.779051
-0.773649
-0.759678
-0.73151
-0.694352
-0.651795
-0.606825
-0.561838
-0.520458
-0.490263
-0.462903
-0.448016
-0.442077
-0.455609
-0.429721
-0.410215
-0.412106
-0.415898
-0.416517
-0.415915
-0.740962
-0.737668
-0.731025
-0.713161
-0.685014
-0.650041
-0.611563
-0.571255
-0.532262
-0.50058
-0.474678
-0.46148
-0.454116
-0.456031
-0.461023
-0.474852
-0.476234
-0.459238
-0.449284
-0.451439
-0.71355
-0.711598
-0.708214
-0.697681
-0.67634
-0.646993
-0.612636
-0.574735
-0.535737
-0.500045
-0.474186
-0.454157
-0.457218
-0.492668
-0.547228
-0.608131
-0.631604
-0.607272
-0.561763
-0.548223
-0.693458
-0.692766
-0.691619
-0.686423
-0.670854
-0.645167
-0.612139
-0.574086
-0.532192
-0.490394
-0.459951
-0.432453
-0.41637
-0.434418
-0.481093
-0.495137
-0.489296
-0.476266
-0.451113
-0.43776
-0.681781
-0.68155
-0.68093
-0.678512
-0.667965
-0.644423
-0.611136
-0.571104
-0.524847
-0.473691
-0.430413
-0.375961
-0.307933
-0.256809
-0.236225
-0.226577
-0.212765
-0.189288
-0.166225
-0.153769
-0.673787
-0.673636
-0.673221
-0.672515
-0.666092
-0.64494
-0.610523
-0.567161
-0.515049
-0.452421
-0.389442
-0.306714
-0.185467
-0.0487044
0.0596751
0.130925
0.199589
0.261186
0.306543
0.327838
-0.668662
-0.668614
-0.668483
-0.668318
-0.664471
-0.646658
-0.611434
-0.563765
-0.505711
-0.433028
-0.350197
-0.252456
-0.0828879
0.149275
0.395684
0.60747
0.766046
0.867869
0.924366
0.945556
-0.664583
-0.664586
-0.664532
-0.664432
-0.663077
-0.649122
-0.613587
-0.561911
-0.49931
-0.418089
-0.322382
-0.218811
-0.0190589
0.275087
0.606819
0.916178
1.15605
1.29375
1.34941
1.36352
-0.661096
-0.661175
-0.66121
-0.661158
-0.661042
-0.651201
-0.616939
-0.564109
-0.497134
-0.41135
-0.310224
-0.203798
-0.0190689
0.2733
0.600261
0.908187
1.15614
1.2971
1.34654
1.35652
-0.658359
-0.658429
-0.658428
-0.658357
-0.658796
-0.651895
-0.621695
-0.569667
-0.500513
-0.413868
-0.314498
-0.215572
-0.0646609
0.189836
0.464384
0.712065
0.907693
1.01762
1.05735
1.06583
-0.656475
-0.656471
-0.65625
-0.655658
-0.654752
-0.651364
-0.62762
-0.578646
-0.509541
-0.424346
-0.332104
-0.244333
-0.126759
0.0789481
0.292475
0.468795
0.603452
0.680064
0.709752
0.717351
-0.657632
-0.657629
-0.657173
-0.655805
-0.65364
-0.652584
-0.637121
-0.59083
-0.522164
-0.441098
-0.359322
-0.28338
-0.19806
-0.0425688
0.12281
0.252706
0.348918
0.404831
0.427913
0.433905
-0.662273
-0.662755
-0.66394
-0.666328
-0.668981
-0.669611
-0.655409
-0.605579
-0.536693
-0.46369
-0.390664
-0.325068
-0.260964
-0.14481
-0.0168731
0.0827012
0.156026
0.200823
0.218293
0.222069
-0.665684
-0.666954
-0.671378
-0.682989
-0.69984
-0.705665
-0.679367
-0.618795
-0.552679
-0.48941
-0.422538
-0.365325
-0.319063
-0.228188
-0.127123
-0.049283
0.00907296
0.0448133
0.0580605
0.0599266
-0.670281
-0.671433
-0.675597
-0.686365
-0.704716
-0.712716
-0.679277
-0.621059
-0.570477
-0.515332
-0.451096
-0.402831
-0.368412
-0.299099
-0.218347
-0.156469
-0.110056
-0.0823826
-0.073181
-0.0727603
-0.685796
-0.686544
-0.687618
-0.678915
-0.654259
-0.635473
-0.627155
-0.610374
-0.586653
-0.535129
-0.474895
-0.434895
-0.406163
-0.348951
-0.286117
-0.240033
-0.205807
-0.185516
-0.17884
-0.178592
-0.707766
-0.707662
-0.705146
-0.677269
-0.609454
-0.55231
-0.568553
-0.607108
-0.600838
-0.54996
-0.495922
-0.460171
-0.435186
-0.388303
-0.338946
-0.304558
-0.27982
-0.266551
-0.262287
-0.262645
-0.735523
-0.732845
-0.729871
-0.713754
-0.672721
-0.63037
-0.632965
-0.658285
-0.632748
-0.566622
-0.513636
-0.478812
-0.451196
-0.41271
-0.376507
-0.35209
-0.334716
-0.326137
-0.32361
-0.323837
-0.80883
-0.810103
-0.835633
-0.873735
-0.892803
-0.873276
-0.8368
-0.77851
-0.685364
-0.589724
-0.531
-0.490635
-0.460386
-0.426343
-0.396214
-0.37728
-0.365397
-0.360396
-0.35821
-0.358281
-0.942622
-0.957786
-1.00294
-1.0561
-1.08208
-1.06787
-1.00664
-0.890019
-0.733682
-0.611558
-0.542713
-0.492453
-0.461951
-0.432436
-0.403158
-0.384123
-0.373231
-0.367292
-0.364823
-0.364949
-1.03964
-1.0576
-1.09461
-1.13169
-1.15313
-1.13853
-1.06841
-0.912258
-0.734146
-0.613817
-0.534785
-0.481994
-0.456774
-0.426185
-0.395613
-0.374385
-0.360556
-0.352507
-0.349578
-0.349906
-1.02121
-1.03343
-1.05848
-1.08606
-1.10471
-1.09388
-1.02299
-0.851117
-0.692247
-0.582412
-0.499389
-0.460525
-0.440166
-0.406802
-0.373709
-0.350239
-0.333513
-0.323807
-0.32084
-0.321539
-0.879485
-0.890841
-0.912395
-0.938234
-0.958365
-0.950957
-0.88192
-0.740733
-0.619336
-0.516089
-0.450105
-0.425531
-0.406281
-0.375239
-0.344089
-0.319709
-0.301064
-0.291329
-0.288836
-0.289798
-0.646418
-0.658196
-0.681086
-0.710457
-0.73551
-0.73425
-0.677836
-0.590668
-0.505269
-0.429797
-0.393802
-0.371109
-0.358931
-0.33233
-0.303882
-0.282965
-0.268268
-0.261241
-0.259631
-0.260502
-0.368058
-0.378093
-0.39918
-0.4299
-0.46068
-0.47269
-0.453331
-0.416911
-0.373805
-0.341059
-0.318259
-0.304201
-0.300968
-0.277249
-0.25615
-0.242789
-0.233753
-0.229748
-0.228817
-0.229416
-0.122529
-0.12951
-0.146642
-0.175429
-0.211592
-0.244057
-0.262918
-0.266961
-0.257868
-0.246941
-0.233233
-0.23209
-0.228831
-0.211793
-0.200898
-0.194355
-0.190662
-0.189372
-0.188934
-0.189314
0.0240217
0.0189996
0.00541474
-0.0200758
-0.0561604
-0.0975652
-0.133435
-0.153963
-0.159735
-0.158675
-0.156571
-0.152872
-0.148693
-0.143335
-0.139345
-0.137402
-0.136701
-0.136636
-0.136709
-0.137145
0.0648048
0.0609851
0.0510128
0.0321462
0.00488331
-0.025094
-0.0519872
-0.0707627
-0.0802825
-0.0836053
-0.0825999
-0.0773001
-0.0754812
-0.0747583
-0.0751716
-0.0760766
-0.0758861
-0.0759329
-0.0764267
-0.0770331
0.0273981
0.0263741
0.0241793
0.0185966
0.0104284
0.00125209
-0.00629177
-0.0117447
-0.0153243
-0.0164856
-0.016431
-0.0156532
-0.0127008
-0.0132457
-0.014717
-0.0169912
-0.0184012
-0.018778
-0.0175112
-0.0169155
-0.0170291
0.168151
0.337548
0.480244
0.593147
0.680894
0.752997
0.811371
0.825463
0.822433
0.264439
0.382694
0.493198
0.588329
0.667725
0.732738
0.783733
0.818173
0.836661
0.853546
0.454676
0.533117
0.610528
0.678218
0.735649
0.783148
0.8206
0.849328
0.871031
0.890307
0.595355
0.651143
0.707191
0.757396
0.800678
0.837521
0.868522
0.8946
0.914548
0.933456
0.709248
0.751264
0.792938
0.831967
0.866872
0.89779
0.924879
0.947907
0.965685
0.983774
0.804319
0.83923
0.873593
0.906562
0.936996
0.964605
0.98904
1.00962
1.02523
1.04272
0.891328
0.922817
0.954551
0.985276
1.01388
1.03991
1.06277
1.08152
1.09531
1.11232
0.977424
1.00972
1.04183
1.07276
1.1013
1.12689
1.14885
1.16624
1.17853
1.19504
1.07131
1.10764
1.14225
1.17454
1.20355
1.22875
1.24975
1.26594
1.27748
1.2936
1.18417
1.22489
1.26176
1.29451
1.32285
1.34673
1.36626
1.38147
1.39332
1.40937
1.32562
1.3665
1.40166
1.43112
1.45623
1.47778
1.49623
1.51167
1.52476
1.54069
1.49694
1.52894
1.55588
1.57822
1.59828
1.61697
1.63468
1.65143
1.66632
1.68204
1.68302
1.70022
1.7173
1.73398
1.75007
1.76479
1.77868
1.79315
1.80837
1.82567
1.86639
1.87631
1.88948
1.90045
1.90986
1.91951
1.93011
1.94028
1.94956
1.97523
2.0842
2.0785
2.06555
2.05129
2.04499
2.05069
2.06882
2.09735
2.13111
2.16743
2.38702
2.25108
2.17156
2.12901
2.11168
2.11567
2.14309
2.20095
2.30861
2.48702
0.759969
0.753668
0.74594
0.73483
0.721265
0.708625
0.698242
0.69025
0.684561
0.681271
0.680974
0.683859
0.689134
0.696523
0.706095
0.717942
0.731515
0.744452
0.753447
0.760991
0.669024
0.674945
0.68302
0.689158
0.692234
0.691733
0.688661
0.684688
0.681131
0.678891
0.678814
0.681125
0.684925
0.689406
0.693533
0.695797
0.694736
0.69011
0.683061
0.67523
0.66225
0.664623
0.667895
0.670674
0.673134
0.675336
0.676532
0.676411
0.675509
0.674751
0.675031
0.676511
0.678346
0.679615
0.67957
0.678126
0.675984
0.673635
0.670662
0.667647
0.657428
0.658516
0.660438
0.662784
0.664667
0.666081
0.66732
0.668342
0.668983
0.669419
0.670049
0.670869
0.671398
0.671328
0.670736
0.669841
0.668531
0.666576
0.66448
0.663006
0.65236
0.652994
0.654127
0.655895
0.657753
0.659365
0.660641
0.66174
0.662771
0.663738
0.664615
0.665226
0.665438
0.665289
0.664797
0.663857
0.662455
0.660865
0.659539
0.658741
0.647379
0.647817
0.648611
0.649927
0.651467
0.653053
0.654562
0.6559
0.657113
0.658282
0.659343
0.660054
0.660323
0.660158
0.659549
0.658592
0.657472
0.656352
0.655463
0.654932
0.642473
0.6428
0.643418
0.644502
0.645819
0.647247
0.648762
0.650286
0.651748
0.653148
0.654425
0.655303
0.655639
0.655482
0.654953
0.654223
0.653418
0.652594
0.65195
0.651561
0.637616
0.637869
0.638368
0.639297
0.640495
0.641837
0.643304
0.644891
0.646554
0.648232
0.649784
0.650864
0.651342
0.651351
0.651055
0.650576
0.649995
0.649405
0.648944
0.648648
0.632732
0.632932
0.63335
0.634171
0.635296
0.636598
0.63806
0.639705
0.641526
0.643475
0.645353
0.646732
0.647478
0.647758
0.647724
0.647489
0.647127
0.646739
0.646422
0.646189
0.627733
0.627894
0.628253
0.629005
0.63009
0.631382
0.632885
0.63463
0.63663
0.638867
0.641134
0.642918
0.64403
0.644635
0.644885
0.644903
0.644773
0.644572
0.644373
0.644188
0.622527
0.622657
0.622976
0.623686
0.624761
0.626088
0.627673
0.629565
0.631803
0.634394
0.637134
0.639419
0.640971
0.641954
0.642527
0.642821
0.642923
0.642906
0.642811
0.642661
0.61702
0.617124
0.617415
0.61811
0.619211
0.620618
0.622331
0.624428
0.626976
0.630013
0.633335
0.636222
0.638292
0.639713
0.640655
0.641251
0.641612
0.641777
0.641772
0.64165
0.611107
0.611189
0.611465
0.612169
0.613333
0.614861
0.616759
0.61913
0.622076
0.625669
0.629701
0.633311
0.635998
0.637931
0.639297
0.640257
0.640891
0.641237
0.641314
0.641213
0.604671
0.604733
0.605003
0.605739
0.607002
0.6087
0.610849
0.613577
0.617024
0.621303
0.626198
0.630679
0.634101
0.63664
0.638495
0.639858
0.640808
0.641353
0.641509
0.641423
0.59757
0.597613
0.597887
0.598678
0.600079
0.602003
0.604477
0.60766
0.611731
0.616852
0.622793
0.628318
0.632615
0.63587
0.638306
0.640134
0.641446
0.642206
0.642442
0.642367
0.58965
0.589667
0.589943
0.590813
0.592394
0.59461
0.597498
0.601252
0.606098
0.612249
0.619454
0.626228
0.631561
0.635661
0.638789
0.641175
0.642898
0.643892
0.644205
0.644138
0.580637
0.580648
0.580952
0.581924
0.583741
0.586325
0.589734
0.5942
0.600005
0.607417
0.616148
0.62441
0.63097
0.636065
0.640005
0.643059
0.645256
0.646505
0.646895
0.646831
0.570274
0.570258
0.570604
0.571729
0.573848
0.576902
0.58097
0.586328
0.593322
0.602276
0.612843
0.622867
0.630871
0.637138
0.642036
0.645863
0.648609
0.650134
0.650596
0.650531
0.558199
0.558162
0.558559
0.559871
0.56237
0.566029
0.570934
0.577419
0.585895
0.596738
0.609511
0.621613
0.631299
0.638931
0.644954
0.649668
0.653035
0.654847
0.655373
0.6553
0.5439
0.543841
0.544318
0.545885
0.548872
0.553311
0.559297
0.56722
0.577558
0.590721
0.606133
0.620668
0.632288
0.641484
0.64881
0.654534
0.658578
0.660674
0.661247
0.661159
0.526672
0.526592
0.527197
0.52912
0.532761
0.538238
0.545648
0.555441
0.568144
0.584167
0.602717
0.620059
0.633876
0.644839
0.653614
0.660474
0.665235
0.667582
0.668173
0.668062
0.505499
0.505401
0.506215
0.508657
0.51322
0.520138
0.529489
0.541772
0.557517
0.57706
0.599304
0.61983
0.636099
0.649014
0.659372
0.667465
0.672922
0.675449
0.676016
0.675874
0.478837
0.478741
0.479906
0.483157
0.489125
0.498144
0.510261
0.52594
0.545617
0.569465
0.595991
0.620056
0.638984
0.654003
0.666061
0.675412
0.681459
0.684042
0.684533
0.684357
0.444189
0.444147
0.445946
0.450592
0.458927
0.471273
0.487469
0.507825
0.532546
0.561558
0.592935
0.620845
0.642575
0.659788
0.67359
0.684132
0.690548
0.693012
0.693372
0.693163
0.397119
0.397306
0.400513
0.408106
0.420858
0.438684
0.460957
0.487642
0.518639
0.553649
0.590355
0.62232
0.646926
0.666328
0.681839
0.69336
0.699775
0.701902
0.702095
0.701865
0.329316
0.330783
0.338607
0.353015
0.373931
0.400501
0.431356
0.466091
0.504479
0.54615
0.58849
0.624583
0.652053
0.673545
0.690526
0.702603
0.708569
0.710165
0.710196
0.709975
0.248351
0.251207
0.266455
0.291372
0.323493
0.360373
0.400486
0.443671
0.489819
0.538652
0.587306
0.628276
0.659298
0.683445
0.701961
0.714086
0.719323
0.720455
0.720428
0.720296
0.165379
0.172818
0.195746
0.231152
0.274087
0.32105
0.37041
0.422069
0.475989
0.53194
0.586837
0.632584
0.66703
0.693722
0.713664
0.72534
0.729342
0.729909
0.729839
0.729762
0.0974287
0.106969
0.134763
0.177587
0.228979
0.284458
0.342127
0.401699
0.462985
0.525658
0.586336
0.636375
0.673782
0.702497
0.72315
0.734149
0.737419
0.737811
0.737748
0.737696
0.0416712
0.0519638
0.0834625
0.131773
0.18954
0.251792
0.316404
0.382887
0.450815
0.51966
0.585648
0.63958
0.679587
0.70996
0.731104
0.741586
0.744387
0.744678
0.744625
0.744586
-0.00505307
0.00558799
0.0396269
0.0921992
0.155155
0.223012
0.293461
0.365901
0.439716
0.514154
0.585015
0.642489
0.68482
0.71661
0.738073
0.748089
0.750587
0.750832
0.750789
0.750756
-0.0451943
-0.0344072
0.00151796
0.057497
0.124776
0.197433
0.272964
0.350658
0.429764
0.509321
0.584679
0.645399
0.689773
0.722705
0.744303
0.753908
0.756222
0.756462
0.756441
0.756418
-0.0804699
-0.0696419
-0.0322486
0.0265479
0.0975072
0.174335
0.254379
0.33683
0.420806
0.505146
0.584745
0.648482
0.69468
0.728508
0.750089
0.759325
0.761523
0.761792
0.761819
0.761815
-0.112155
-0.10132
-0.0627621
-0.00154272
0.0726192
0.153125
0.237214
0.32403
0.412566
0.501473
0.585178
0.651819
0.69972
0.734309
0.755798
0.7647
0.766813
0.767128
0.767225
0.767255
-0.14128
-0.130418
-0.0908354
-0.0274675
0.0495458
0.133327
0.221071
0.311912
0.404766
0.498103
0.585879
0.655438
0.705033
0.740371
0.761785
0.770411
0.772438
0.7728
0.772973
0.773048
-0.168431
-0.15753
-0.11703
-0.051729
0.0278306
0.114556
0.205632
0.300209
0.397155
0.494842
0.586737
0.659335
0.710711
0.74687
0.768293
0.77671
0.77867
0.779051
0.779271
0.779385
-0.194101
-0.183143
-0.141785
-0.0747253
0.00712958
0.0965186
0.190645
0.288696
0.389542
0.491509
0.587644
0.66347
0.716779
0.753876
0.775402
0.783656
0.785532
0.785889
0.786123
0.786267
-0.21868
-0.207577
-0.165415
-0.096735
-0.012805
0.078992
0.175919
0.277205
0.381758
0.487942
0.588471
0.667775
0.723198
0.761292
0.782989
0.791114
0.792887
0.793178
0.79339
0.793539
-0.24231
-0.231037
-0.188109
-0.117953
-0.0321476
0.0618383
0.161323
0.265602
0.373667
0.483984
0.589051
0.672156
0.729912
0.769062
0.790889
0.798846
0.800472
0.800669
0.800834
0.800963
-0.26519
-0.253696
-0.210032
-0.138495
-0.0510006
0.0449562
0.146766
0.253804
0.365166
0.479502
0.589219
0.676494
0.736896
0.77713
0.798961
0.806584
0.808007
0.808094
0.808195
0.808303
-0.287329
-0.27563
-0.231258
-0.15843
-0.0694214
0.0282974
0.132209
0.241764
0.35619
0.474374
0.588812
0.680642
0.744132
0.785556
0.807097
0.814128
0.815234
0.815217
0.815265
0.815347
-0.308827
-0.296891
-0.251792
-0.177785
-0.0874422
0.0118417
0.117634
0.229467
0.346704
0.468519
0.587667
0.684431
0.75158
0.794492
0.815509
0.821459
0.821986
0.821864
0.821909
0.821981
-0.329571
-0.317466
-0.271653
-0.196587
-0.105061
-0.00438482
0.103056
0.216923
0.336707
0.461899
0.585643
0.687668
0.759159
0.804161
0.824626
0.828886
0.828251
0.827912
0.828131
0.828312
-0.349701
-0.337356
-0.290852
-0.214849
-0.12228
-0.0203804
0.088524
0.204162
0.32622
0.454508
0.582624
0.690132
0.766696
0.814687
0.835112
0.837369
0.83468
0.833521
0.834157
0.834924
-0.369097
-0.356519
-0.309399
-0.232548
-0.139047
-0.0360897
0.0740886
0.191265
0.315297
0.446338
0.578535
0.691591
0.773913
0.82598
0.847498
0.84832
0.843085
0.840015
0.840742
0.842785
-0.38786
-0.37503
-0.327262
-0.249649
-0.155347
-0.0514687
0.0598119
0.178282
0.304006
0.437465
0.573344
0.691793
0.780449
0.837629
0.861668
0.862708
0.855792
0.849729
0.84577
0.839777
-0.405891
-0.392884
-0.344531
-0.266322
-0.171403
-0.0667905
0.0453757
0.164838
0.291945
0.427463
0.566651
0.690348
0.786165
0.849756
0.877678
0.88094
0.873955
0.863852
0.850924
0.850867
-0.423177
-0.410164
-0.361225
-0.282522
-0.187215
-0.0820296
0.0307957
0.150895
0.279054
0.416158
0.55818
0.686591
0.790049
0.861451
0.893668
0.899703
0.892579
0.8807
0.844441
0.806781
-0.439535
-0.426738
-0.377319
-0.29813
-0.202794
-0.0972029
0.0160542
0.136566
0.265367
0.403531