/*--------------------------------*- C++ -*----------------------------------*\
  =========                 |
  \\      /  F ield         | OpenFOAM: The Open Source CFD Toolbox
   \\    /   O peration     | Website:  https://openfoam.org
    \\  /    A nd           | Version:  6
     \\/     M anipulation  |
\*---------------------------------------------------------------------------*/
FoamFile
{
    version     2.0;
    format      ascii;
    class       volVectorField;
    location    "48.9";
    object      U;
}
// * * * * * * * * * * * * * * * * * * * * * * * * * * * * * * * * * * * * * //

dimensions      [0 1 -1 0 0 0 0];

internalField   nonuniform List<vector> 
8800
(
(0.987185 -0.0766674 0)
(1.0019 -0.0551943 0)
(0.999728 -0.028554 0)
(1.00002 -0.0151492 0)
(1.00007 -0.00854928 0)
(1.00007 -0.00505198 0)
(1.00005 -0.00301221 0)
(1.00002 -0.00171464 0)
(0.999998 -0.000809209 0)
(1.00006 -9.49006e-05 0)
(0.999987 0.00063043 0)
(0.999995 0.00139104 0)
(1.00001 0.00241437 0)
(1.00002 0.00399353 0)
(1.00003 0.0066304 0)
(1.00001 0.0113698 0)
(0.999887 0.0208133 0)
(0.999144 0.0386707 0)
(1.00709 0.0724567 0)
(0.771212 0.0366608 0)
(0.363048 -0.0160194 0)
(1.04329 -0.0768275 0)
(1.08458 -0.0704666 0)
(1.04518 -0.053569 0)
(1.02325 -0.0389276 0)
(1.01196 -0.0262583 0)
(1.00637 -0.0169084 0)
(1.00356 -0.010385 0)
(1.00214 -0.00572975 0)
(1.00145 -0.00207689 0)
(1.00131 0.00124378 0)
(1.00168 0.00462198 0)
(1.00265 0.00855661 0)
(1.00464 0.0139046 0)
(1.00858 0.0216239 0)
(1.01655 0.0326017 0)
(1.03246 0.0465195 0)
(1.06262 0.0616409 0)
(1.09187 0.0760881 0)
(0.838689 0.0565563 0)
(0.216795 -0.00243245 0)
(1.07585 -0.0501668 0)
(1.09984 -0.0483548 0)
(1.06459 -0.0405183 0)
(1.03996 -0.033671 0)
(1.02383 -0.0261631 0)
(1.01405 -0.0185964 0)
(1.00852 -0.0117871 0)
(1.00557 -0.00592734 0)
(1.00433 -0.00052004 0)
(1.00468 0.00471982 0)
(1.0066 0.0101086 0)
(1.0106 0.0162123 0)
(1.01793 0.023259 0)
(1.03054 0.0307432 0)
(1.05062 0.0377878 0)
(1.08032 0.0444806 0)
(1.10625 0.0513078 0)
(0.942581 0.0415984 0)
(0.216203 0.00245953 0)
(0.175087 -0.000819287 0)
(1.01757 -0.0355264 0)
(1.10512 -0.0414491 0)
(1.07818 -0.0361523 0)
(1.05335 -0.0302363 0)
(1.03608 -0.0246812 0)
(1.02391 -0.0189724 0)
(1.01582 -0.0129053 0)
(1.01099 -0.00672897 0)
(1.0088 -0.000403997 0)
(1.0094 0.00584938 0)
(1.01267 0.0118477 0)
(1.01887 0.0177034 0)
(1.02877 0.0233054 0)
(1.04323 0.0286258 0)
(1.06375 0.0341295 0)
(1.09356 0.040127 0)
(1.09345 0.0419074 0)
(0.827291 0.0228896 0)
(0.174089 0.000850327 0)
(0.153846 -0.000613421 0)
(0.955944 -0.0255111 0)
(1.10332 -0.0352209 0)
(1.08755 -0.0327693 0)
(1.06156 -0.028136 0)
(1.04395 -0.0231327 0)
(1.03152 -0.0179111 0)
(1.0227 -0.0124068 0)
(1.01692 -0.00649349 0)
(1.01412 -3.97522e-05 0)
(1.01483 0.00641804 0)
(1.01881 0.0123039 0)
(1.02582 0.0176193 0)
(1.03613 0.0225659 0)
(1.05072 0.027349 0)
(1.07196 0.0319105 0)
(1.10011 0.0358699 0)
(1.0682 0.0339577 0)
(0.739807 0.0142834 0)
(0.152344 0.000648548 0)
(0.139427 -0.000469893 0)
(0.898894 -0.019139 0)
(1.09556 -0.0301951 0)
(1.09556 -0.0293404 0)
(1.06903 -0.0256387 0)
(1.0506 -0.021534 0)
(1.03771 -0.0167948 0)
(1.02865 -0.0115347 0)
(1.02258 -0.00581433 0)
(1.0195 0.000490846 0)
(1.02016 0.00679324 0)
(1.02428 0.0124339 0)
(1.03142 0.0174363 0)
(1.04195 0.021947 0)
(1.05711 0.0259368 0)
(1.07933 0.0294308 0)
(1.10238 0.0320835 0)
(1.03622 0.028022 0)
(0.6734 0.0101731 0)
(0.13731 0.000510425 0)
(0.128834 -0.000364834 0)
(0.849124 -0.0147874 0)
(1.08306 -0.0260862 0)
(1.10117 -0.0264225 0)
(1.07581 -0.0231707 0)
(1.05685 -0.0195595 0)
(1.04353 -0.0153533 0)
(1.03412 -0.0104834 0)
(1.02782 -0.00499901 0)
(1.02457 0.00113003 0)
(1.02511 0.00723352 0)
(1.02919 0.0125938 0)
(1.03644 0.0171736 0)
(1.04727 0.0210758 0)
(1.06284 0.0244095 0)
(1.08549 0.0274 0)
(1.10156 0.0291999 0)
(1.00147 0.0234797 0)
(0.621767 0.00780038 0)
(0.125968 0.000412588 0)
(0.120732 -0.000284563 0)
(0.80677 -0.0116404 0)
(1.06764 -0.0225038 0)
(1.10461 -0.0238289 0)
(1.08199 -0.0209977 0)
(1.06262 -0.0176143 0)
(1.04901 -0.0137288 0)
(1.03933 -0.00919427 0)
(1.03277 -0.00398199 0)
(1.02929 0.0019013 0)
(1.02968 0.00772937 0)
(1.03373 0.0127448 0)
(1.04105 0.0168778 0)
(1.052 0.0202909 0)
(1.0678 0.0232116 0)
(1.09081 0.0259074 0)
(1.09787 0.0268184 0)
(0.966433 0.0199035 0)
(0.580365 0.00625415 0)
(0.116957 0.000341318 0)
(0.114433 -0.000221684 0)
(0.771059 -0.00928804 0)
(1.05068 -0.0193495 0)
(1.10687 -0.0214307 0)
(1.08775 -0.0189916 0)
(1.068 -0.0157688 0)
(1.05418 -0.0120543 0)
(1.04432 -0.0077498 0)
(1.0375 -0.00280113 0)
(1.03375 0.00283315 0)
(1.03396 0.00837881 0)
(1.03793 0.0130121 0)
(1.04521 0.0167236 0)
(1.05616 0.0197599 0)
(1.07215 0.0223554 0)
(1.09483 0.024703 0)
(1.0914 0.0248238 0)
(0.932422 0.0171291 0)
(0.546191 0.00519338 0)
(0.109552 0.000289784 0)
(0.109503 -0.000171136 0)
(0.741052 -0.0074633 0)
(1.03327 -0.0165554 0)
(1.10817 -0.0191634 0)
(1.09322 -0.0170252 0)
(1.0732 -0.0138981 0)
(1.0591 -0.0102996 0)
(1.04905 -0.00614426 0)
(1.04205 -0.00138855 0)
(1.03806 0.00396636 0)
(1.038 0.00915748 0)
(1.04174 0.0134212 0)
(1.04887 0.0167604 0)
(1.05984 0.0194446 0)
(1.07607 0.0217607 0)
(1.09764 0.023771 0)
(1.08258 0.0231579 0)
(0.900034 0.0150028 0)
(0.517217 0.00444672 0)
(0.103279 0.000253162 0)
(0.105656 -0.00012945 0)
(0.71592 -0.00599287 0)
(1.0162 -0.0140485 0)
(1.10861 -0.0169956 0)
(1.09859 -0.0151768 0)
(1.07829 -0.0120939 0)
(1.06391 -0.00853012 0)
(1.05365 -0.00443067 0)
(1.0464 0.000191031 0)
(1.0421 0.00531569 0)
(1.04172 0.0101924 0)
(1.04521 0.0141105 0)
(1.05219 0.0171281 0)
(1.06311 0.0195125 0)
(1.07951 0.0215502 0)
(1.09911 0.023131 0)
(1.07176 0.0218132 0)
(0.869396 0.013402 0)
(0.492013 0.00392317 0)
(0.0977982 0.000228416 0)
(0.102705 -9.3455e-05 0)
(0.695024 -0.00476081 0)
(1.00009 -0.0117635 0)
(1.10831 -0.0148462 0)
(1.10373 -0.0132211 0)
(1.08336 -0.0101101 0)
(1.06868 -0.00655965 0)
(1.05816 -0.00252809 0)
(1.05064 0.0019898 0)
(1.046 0.00694732 0)
(1.04521 0.0115597 0)
(1.04834 0.0151374 0)
(1.0551 0.0177769 0)
(1.06601 0.0198041 0)
(1.08254 0.0215872 0)
(1.09965 0.0227804 0)
(1.05928 0.0207813 0)
(0.8404 0.0122369 0)
(0.469521 0.00356709 0)
(0.0928602 0.000213083 0)
(0.100529 -6.04384e-05 0)
(0.67789 -0.00367884 0)
(0.985399 -0.00963228 0)
(1.10755 -0.0126802 0)
(1.10873 -0.0111927 0)
(1.08849 -0.00804296 0)
(1.07343 -0.00442479 0)
(1.06262 -0.000345903 0)
(1.05475 0.00413782 0)
(1.04965 0.00891918 0)
(1.04839 0.0132273 0)
(1.05113 0.016471 0)
(1.05763 0.0187879 0)
(1.06846 0.0204972 0)
(1.0851 0.0220046 0)
(1.09924 0.0228493 0)
(1.04534 0.0201023 0)
(0.81275 0.0114386 0)
(0.448915 0.00334263 0)
(0.0882662 0.000205654 0)
(0.0990633 -2.78952e-05 0)
(0.66423 -0.00267655 0)
(0.972483 -0.00756876 0)
(1.10654 -0.0103904 0)
(1.11358 -0.00898062 0)
(1.09373 -0.00577751 0)
(1.07831 -0.00204099 0)
(1.06711 0.00212297 0)
(1.05879 0.00661182 0)
(1.05312 0.0113092 0)
(1.05127 0.0154025 0)
(1.05355 0.018302 0)
(1.05978 0.0202581 0)
(1.07053 0.0216039 0)
(1.08715 0.0228086 0)
(1.09763 0.023205 0)
(1.03003 0.0197034 0)
(0.786093 0.0109337 0)
(0.429546 0.00321694 0)
(0.0838606 0.000203659 0)
(0.0982974 6.07238e-06 0)
(0.653909 -0.00170085 0)
(0.96169 -0.00550562 0)
(1.1057 -0.00792176 0)
(1.11847 -0.00644858 0)
(1.09914 -0.00310345 0)
(1.0833 0.000784683 0)
(1.07166 0.00505989 0)
(1.06281 0.00960871 0)
(1.05648 0.0142182 0)
(1.05391 0.0180456 0)
(1.05559 0.0205978 0)
(1.06145 0.0221427 0)
(1.07211 0.0230731 0)
(1.0887 0.0239959 0)
(1.0948 0.0239323 0)
(1.01343 0.0196527 0)
(0.760042 0.0107037 0)
(0.410882 0.00318208 0)
(0.0795195 0.000207578 0)
(0.098253 3.88767e-05 0)
(0.646905 -0.000701875 0)
(0.953288 -0.00336449 0)
(1.10532 -0.00523391 0)
(1.12359 -0.00364782 0)
(1.10485 -0.000126773 0)
(1.08853 0.00402103 0)
(1.07638 0.00853435 0)
(1.06687 0.0132068 0)
(1.0597 0.0177555 0)
(1.05627 0.0213145 0)
(1.05727 0.0234738 0)
(1.06269 0.0246287 0)
(1.07322 0.0251472 0)
(1.08951 0.0256832 0)
(1.09056 0.0250686 0)
(0.995419 0.0199408 0)
(0.734148 0.0107225 0)
(0.392442 0.00322679 0)
(0.0751239 0.000216479 0)
(0.0989683 7.78917e-05 0)
(0.643305 0.000336338 0)
(0.947622 -0.00106965 0)
(1.10572 -0.00219814 0)
(1.12903 -0.000366386 0)
(1.11093 0.00339595 0)
(1.09413 0.0078567 0)
(1.08133 0.0126454 0)
(1.07102 0.0174997 0)
(1.06286 0.0220636 0)
(1.05836 0.0253895 0)
(1.0585 0.02714 0)
(1.0634 0.0278038 0)
(1.07377 0.0278583 0)
(1.08941 0.027952 0)
(1.08476 0.0266395 0)
(0.975867 0.0206016 0)
(0.70795 0.0109858 0)
(0.37378 0.00334786 0)
(0.0705697 0.000230102 0)
(0.100649 0.000138649 0)
(0.643525 0.00150168 0)
(0.945082 0.00146617 0)
(1.10741 0.00126475 0)
(1.13505 0.00351742 0)
(1.1175 0.00767013 0)
(1.10011 0.0125075 0)
(1.08653 0.0176277 0)
(1.07523 0.0227244 0)
(1.06582 0.0273036 0)
(1.06006 0.0303446 0)
(1.0592 0.031618 0)
(1.06346 0.0317452 0)
(1.07365 0.0312729 0)
(1.08823 0.0308604 0)
(1.0772 0.0287297 0)
(0.954529 0.0216757 0)
(0.680935 0.011493 0)
(0.354468 0.00354294 0)
(0.0657564 0.000248266 0)
(0.103347 0.000198225 0)
(0.647852 0.00290996 0)
(0.946069 0.00438352 0)
(1.11084 0.00526974 0)
(1.14188 0.00804928 0)
(1.12473 0.0126998 0)
(1.10663 0.0180639 0)
(1.09212 0.0236726 0)
(1.07961 0.0290878 0)
(1.06868 0.0336926 0)
(1.06139 0.0364211 0)
(1.05936 0.037103 0)
(1.06283 0.0366166 0)
(1.07276 0.0355711 0)
(1.08581 0.0345506 0)
(1.06761 0.0314148 0)
(0.931039 0.0231794 0)
(0.652568 0.0122447 0)
(0.334083 0.00380865 0)
(0.0605901 0.000270274 0)
(0.107353 0.000279378 0)
(0.65692 0.00459622 0)
(0.950987 0.00774658 0)
(1.11645 0.0100348 0)
(1.1497 0.0135105 0)
(1.13282 0.0188022 0)
(1.11392 0.0248297 0)
(1.09823 0.0310296 0)
(1.08419 0.0368226 0)
(1.07141 0.041469 0)
(1.06227 0.0438017 0)
(1.05887 0.0438277 0)
(1.06143 0.04262 0)
(1.071 0.0409011 0)
(1.08203 0.039182 0)
(1.05563 0.0347818 0)
(0.904983 0.0251816 0)
(0.622249 0.0132558 0)
(0.312197 0.00414539 0)
(0.0549846 0.000295697 0)
(0.112991 0.000388142 0)
(0.67139 0.00668716 0)
(0.96079 0.0118851 0)
(1.12491 0.0157584 0)
(1.15893 0.020231 0)
(1.142 0.0264381 0)
(1.12205 0.0332458 0)
(1.10488 0.0400891 0)
(1.08896 0.0463016 0)
(1.07396 0.0509168 0)
(1.0626 0.0526947 0)
(1.05757 0.0519272 0)
(1.05908 0.0498804 0)
(1.06823 0.0473596 0)
(1.07672 0.044848 0)
(1.04083 0.0389806 0)
(0.875765 0.027727 0)
(0.589314 0.0145301 0)
(0.288375 0.00454641 0)
(0.0488639 0.000323329 0)
(0.12078 0.000542081 0)
(0.692272 0.00943322 0)
(0.97616 0.0170517 0)
(1.13686 0.0227482 0)
(1.17011 0.0284359 0)
(1.15255 0.0358161 0)
(1.13119 0.0436151 0)
(1.11211 0.0512833 0)
(1.09378 0.0579372 0)
(1.07598 0.0623857 0)
(1.06213 0.0633779 0)
(1.05522 0.0615667 0)
(1.05554 0.058572 0)
(1.06427 0.0551489 0)
(1.06959 0.0516882 0)
(1.02266 0.0440663 0)
(0.842716 0.030842 0)
(0.55306 0.0160483 0)
(0.262218 0.00499248 0)
(0.042182 0.000350482 0)
(0.131494 0.000767071 0)
(0.720922 0.0131855 0)
(0.998237 0.0236923 0)
(1.15294 0.0315607 0)
(1.1837 0.0387645 0)
(1.16486 0.0476536 0)
(1.14163 0.0566692 0)
(1.12008 0.0652178 0)
(1.0988 0.072202 0)
(1.07775 0.0762687 0)
(1.06092 0.0762047 0)
(1.05183 0.0731118 0)
(1.05076 0.0689494 0)
(1.05885 0.0644728 0)
(1.06022 0.0598129 0)
(1.00045 0.0501524 0)
(0.80507 0.0345485 0)
(0.512766 0.0177716 0)
(0.233425 0.00545147 0)
(0.0349471 0.000373052 0)
(0.146364 0.00111931 0)
(0.759261 0.0185715 0)
(1.02867 0.0325693 0)
(1.1742 0.0431254 0)
(1.20048 0.0523395 0)
(1.17928 0.0631484 0)
(1.15337 0.0734481 0)
(1.12846 0.0827247 0)
(1.10342 0.0897091 0)
(1.07847 0.0929417 0)
(1.05837 0.09138 0)
(1.04705 0.0866981 0)
(1.0446 0.08117 0)
(1.05162 0.0754411 0)
(1.04796 0.0694113 0)
(0.973323 0.0573321 0)
(0.76191 0.0388248 0)
(0.46775 0.0196267 0)
(0.201866 0.0058733 0)
(0.0272503 0.000385466 0)
(0.167522 0.00172781 0)
(0.810402 0.0267209 0)
(1.06999 0.045209 0)
(1.20177 0.0592268 0)
(1.22126 0.0712424 0)
(1.19583 0.0838357 0)
(1.16606 0.0952423 0)
(1.13687 0.104789 0)
(1.10736 0.111107 0)
(1.07805 0.112736 0)
(1.0544 0.109049 0)
(1.04067 0.102359 0)
(1.03685 0.0952342 0)
(1.04248 0.0883676 0)
(1.03223 0.0805624 0)
(0.940182 0.065544 0)
(0.712327 0.0435824 0)
(0.417577 0.0214919 0)
(0.167776 0.00618952 0)
(0.0193088 0.000381031 0)
(0.198263 0.00306327 0)
(0.879943 0.0402226 0)
(1.12561 0.0653439 0)
(1.23602 0.0834016 0)
(1.24573 0.098065 0)
(1.21401 0.111907 0)
(1.17903 0.12355 0)
(1.14459 0.132291 0)
(1.10999 0.13688 0)
(1.07596 0.135977 0)
(1.04866 0.12942 0)
(1.03255 0.120299 0)
(1.02731 0.111385 0)
(1.03119 0.103236 0)
(1.01222 0.093289 0)
(0.89979 0.0746251 0)
(0.655617 0.0485558 0)
(0.362685 0.0232097 0)
(0.132297 0.00634766 0)
(0.0115777 0.00035171 0)
(0.240244 0.00916297 7.52075e-21)
(0.97174 0.0669239 6.47868e-21)
(1.19317 0.0994739 -2.27921e-21)
(1.27373 0.119311 0)
(1.271 0.136523 -5.99139e-35)
(1.23165 0.149858 8.8101e-22)
(1.19068 0.160022 -1.6216e-21)
(1.15041 0.166573 0)
(1.11031 0.168388 3.40208e-35)
(1.07121 0.164165 -2.07495e-21)
(1.03996 0.154285 0)
(1.02122 0.142544 -2.49312e-21)
(1.01442 0.131824 -7.37486e-21)
(1.0162 0.122532 -3.49424e-21)
(0.985443 0.110535 -1.05621e-21)
(0.847625 0.0869381 -6.28741e-22)
(0.58592 0.0547796 0)
(0.300708 0.0252547 4.41643e-22)
(0.0959598 0.00685527 5.23173e-22)
(0.00436457 0.000375481 9.52758e-21)
(0.269348 0.0240855 5.0226e-21)
(1.04767 0.109126 1.06329e-22)
(1.24872 0.148166 5.86476e-22)
(1.30759 0.167947 0)
(1.29311 0.18543 -2.98058e-21)
(1.24669 0.196667 -3.42631e-21)
(1.19974 0.204574 -1.62122e-21)
(1.15352 0.208659 -5.88355e-21)
(1.10756 0.207695 0)
(1.06274 0.200167 8.83268e-21)
(1.02671 0.186991 8.81743e-21)
(1.00471 0.172681 2.6357e-21)
(0.995637 0.159969 9.66144e-21)
(0.991772 0.148331 1.36252e-20)
(0.944757 0.132581 0)
(0.778754 0.102432 1.93236e-20)
(0.504684 0.0628963 2.77951e-20)
(0.235618 0.0278925 3.09564e-20)
(0.0610173 0.00692245 -3.55301e-20)
(-0.00241979 -0.000105614 -6.75531e-22)
(0.270861 0.0406141 0)
(1.09597 0.163795 7.52326e-22)
(1.28628 0.207748 0)
(1.33396 0.227372 -3.56755e-21)
(1.31036 0.24218 0)
(1.25797 0.249608 -6.61615e-21)
(1.20535 0.253856 3.29153e-21)
(1.15342 0.254423 -1.17463e-20)
(1.10182 0.249918 -3.15594e-22)
(1.05159 0.23876 4.56312e-21)
(1.01102 0.222194 1.95118e-20)
(0.985758 0.205244 -5.63949e-23)
(0.97401 0.19044 -7.05004e-21)
(0.964951 0.176307 -1.29257e-20)
(0.907735 0.156285 1.53493e-20)
(0.730479 0.119042 -2.7262e-20)
(0.460142 0.0718196 -3.62063e-21)
(0.207687 0.0312421 0)
(0.0484445 0.00712729 -1.17949e-24)
(-0.0048448 -0.000656037 0)
(0.264727 0.0545851 6.79368e-21)
(1.12224 0.222213 -3.76639e-21)
(1.30964 0.272 -3.49198e-21)
(1.35134 0.292134 1.60598e-21)
(1.32135 0.30328 -2.74455e-21)
(1.26442 0.306273 1.38315e-20)
(1.20712 0.3062 6.85684e-21)
(1.15025 0.302647 0)
(1.09366 0.294136 -2.26367e-20)
(1.03844 0.27892 0)
(0.993517 0.258465 -1.02457e-20)
(0.965009 0.238511 -1.27672e-20)
(0.950708 0.221733 -7.7164e-21)
(0.937686 0.205607 -9.43055e-21)
(0.87546 0.181531 0)
(0.698216 0.138144 0)
(0.439505 0.0838868 -2.3738e-20)
(0.202185 0.0376953 4.70772e-21)
(0.0483674 0.00862144 -2.75439e-21)
(-0.00514167 -0.00103659 -3.26269e-21)
(0.257534 0.0669517 -3.06892e-22)
(1.13406 0.280662 0)
(1.32261 0.337374 5.93875e-21)
(1.36072 0.358395 4.24928e-21)
(1.32618 0.36583 6.56541e-21)
(1.26591 0.364408 0)
(1.20495 0.359958 6.59378e-21)
(1.14403 0.35217 1.29785e-20)
(1.08309 0.339458 1.15369e-20)
(1.02329 0.319869 2.16898e-20)
(0.974262 0.295519 0)
(0.942773 0.272912 -2.76319e-20)
(0.926157 0.254326 -1.67398e-20)
(0.90992 0.236049 -9.92251e-21)
(0.846489 0.20793 6.13783e-20)
(0.675609 0.159649 7.35325e-21)
(0.432375 0.0996026 3.46564e-20)
(0.20802 0.0468035 -1.64307e-19)
(0.0557271 0.0121027 9.74227e-20)
(-0.00337832 -0.000901328 -1.18913e-19)
(0.25077 0.0781431 2.90919e-21)
(1.1368 0.337286 -3.2467e-23)
(1.32809 0.402027 -3.37627e-22)
(1.36367 0.424253 -3.34416e-21)
(1.32579 0.428146 -4.98484e-21)
(1.263 0.422525 3.60509e-22)
(1.19917 0.413899 -7.17647e-21)
(1.13491 0.40201 1.33657e-20)
(1.07024 0.385122 -2.48963e-20)
(1.00636 0.361266 0)
(0.953717 0.333434 -1.24704e-20)
(0.919447 0.308452 -3.25526e-22)
(0.900301 0.287849 -1.83896e-20)
(0.881138 0.267152 0)
(0.817842 0.236022 -1.33422e-20)
(0.657148 0.183286 -3.18953e-20)
(0.430673 0.117442 8.56095e-20)
(0.217681 0.0584934 -8.43598e-20)
(0.066299 0.0175537 1.20056e-19)
(-0.000402327 -0.00021123 -1.26342e-19)
(0.245214 0.0885647 -1.04648e-22)
(1.134 0.391429 9.35108e-22)
(1.32819 0.464933 6.7036e-22)
(1.36165 0.488549 8.82716e-22)
(1.32126 0.489256 -2.42571e-21)
(1.25657 0.479734 0)
(1.19043 0.467212 -6.44962e-21)
(1.12336 0.451423 -1.3949e-20)
(1.05543 0.430508 -1.28889e-20)
(0.988022 0.40266 0)
(0.932145 0.371374 -1.29112e-20)
(0.89524 0.343593 -1.61615e-20)
(0.873514 0.320601 2.00048e-20)
(0.852266 0.298056 -1.22256e-20)
(0.789895 0.264559 -5.84846e-20)
(0.639414 0.207937 3.5034e-20)
(0.429149 0.136568 1.05126e-20)
(0.227377 0.0715221 0)
(0.0768524 0.0241628 -1.16557e-19)
(0.00275687 0.000838802 -4.33312e-21)
(0.240971 0.0985416 1.09059e-21)
(1.12789 0.44293 -1.57368e-21)
(1.3244 0.525521 -6.34627e-22)
(1.35586 0.550609 3.81695e-21)
(1.3135 0.548517 -8.05848e-21)
(1.2474 0.535458 1.18509e-20)
(1.17938 0.519339 1.39229e-20)
(1.10987 0.499872 -2.22783e-20)
(1.03908 0.475149 8.14574e-21)
(0.968557 0.443459 -5.3501e-20)
(0.909687 0.408448 -1.47111e-20)
(0.870255 0.377451 0)
(0.846495 0.352394 2.1741e-20)
(0.823904 0.328682 2.61757e-20)
(0.762356 0.292676 3.14956e-20)
(0.620855 0.232051 -3.81392e-20)
(0.425114 0.156041 -1.13364e-20)
(0.233613 0.0851297 1.33284e-20)
(0.0853259 0.0311864 0)
(0.00559275 0.00208031 -9.42828e-21)
(0.237891 0.108168 -1.64491e-20)
(1.12007 0.491822 9.12153e-21)
(1.31805 0.584065 1.0407e-21)
(1.34729 0.610077 1.64198e-21)
(1.30334 0.605508 -3.06885e-21)
(1.23616 0.589267 -8.21755e-22)
(1.16657 0.569872 -1.53023e-20)
(1.09497 0.54699 -8.0863e-21)
(1.02164 0.518721 -2.24623e-20)
(0.948211 0.483259 5.63192e-23)
(0.88643 0.444393 -4.5933e-20)
(0.844756 0.41046 3.925e-20)
(0.819543 0.384028 -2.39601e-20)
(0.795663 0.359128 2.89577e-20)
(0.734104 0.319634 0)
(0.601094 0.254894 -2.07183e-20)
(0.417904 0.174941 -4.30224e-23)
(0.235385 0.0981756 -5.82251e-20)
(0.0903895 0.0377259 -8.58496e-21)
(0.00767289 0.00326158 0)
(0.235869 0.117645 0)
(1.11144 0.538312 1.05239e-20)
(1.30974 0.639869 4.58004e-21)
(1.33675 0.666752 -7.81974e-22)
(1.29144 0.65998 -4.59596e-21)
(1.22342 0.640895 0)
(1.15252 0.61853 -6.59471e-21)
(1.07908 0.592535 -2.26594e-22)
(1.00347 0.561031 4.81435e-20)
(0.927226 0.521921 -7.30501e-21)
(0.862633 0.479421 -3.32212e-20)
(0.819027 0.443229 2.03471e-20)
(0.792633 0.415634 -4.36009e-22)
(0.767013 0.388605 3.07547e-20)
(0.704916 0.344819 1.91449e-20)
(0.579258 0.27605 -4.47697e-20)
(0.407155 0.192132 5.32307e-20)
(0.23248 0.109323 1.57942e-20)
(0.0913574 0.0428985 6.53591e-20)
(0.00872514 0.00414024 -1.76848e-19)
(0.234786 0.127113 -5.44675e-21)
(1.10264 0.582568 7.30908e-21)
(1.30013 0.69292 -4.96725e-21)
(1.32487 0.720574 -8.53013e-22)
(1.27836 0.711802 0)
(1.20965 0.69017 -4.61619e-21)
(1.13762 0.665152 2.24716e-20)
(1.06258 0.636386 1.7533e-20)
(0.984863 0.601966 0)
(0.905885 0.559453 -1.05708e-19)
(0.838624 0.513793 8.99352e-20)
(0.793277 0.475729 0)
(0.765537 0.446375 2.80367e-20)
(0.737702 0.415831 -4.3745e-22)
(0.675122 0.367251 -6.10652e-20)
(0.555783 0.294664 2.39648e-20)
(0.393167 0.206445 0)
(0.225504 0.117817 8.52394e-20)
(0.0891067 0.0461619 0)
(0.00885033 0.00458562 -8.37016e-20)
(0.234459 0.136576 6.53262e-21)
(1.09398 0.624738 9.48803e-21)
(1.28964 0.743227 -4.963e-21)
(1.31211 0.771533 0)
(1.26453 0.760938 -2.69548e-21)
(1.19525 0.737031 0)
(1.12226 0.709664 -2.15147e-20)
(1.0458 0.678488 -7.85336e-21)
(0.966098 0.641481 8.35452e-21)
(0.88447 0.595905 -5.22973e-20)
(0.814653 0.547545 9.24295e-21)
(0.767551 0.50746 0)
(0.738064 0.475268 -5.98297e-20)
(0.707693 0.440168 4.34981e-22)
(0.644931 0.386981 0)
(0.530862 0.310805 3.48333e-22)
(0.375983 0.217851 7.7636e-20)
(0.214727 0.1234 -7.36587e-20)
(0.0840056 0.0474664 2.18021e-20)
(0.00816536 0.00459479 0)
(0.234533 0.14592 0)
(1.08569 0.664831 1.14656e-20)
(1.27865 0.790876 7.2437e-21)
(1.29885 0.819681 -4.94928e-22)
(1.25029 0.807404 1.50099e-23)
(1.18053 0.781471 -1.01181e-20)
(1.10673 0.752061 8.19685e-21)
(1.02899 0.718821 -9.49514e-21)
(0.947411 0.679549 3.75764e-20)
(0.863204 0.631307 -8.34406e-20)
(0.79087 0.580529 -7.36568e-22)
(0.741811 0.537866 -2.60246e-20)
(0.71017 0.50179 9.71637e-20)
(0.677318 0.461777 -5.07029e-22)
(0.61472 0.404457 -4.73768e-20)
(0.504825 0.324421 -8.48482e-20)
(0.356004 0.226095 0)
(0.200571 0.125923 0)
(0.076553 0.0470296 2.35316e-20)
(0.00703311 0.00426345 -1.39707e-20)
(0.235161 0.155252 9.21967e-21)
(1.07786 0.702876 -2.61459e-20)
(1.26741 0.835949 -7.82797e-21)
(1.28536 0.865084 0)
(1.23591 0.851251 -3.23366e-22)
(1.16577 0.823526 -8.01634e-21)
(1.09127 0.79237 1.89693e-20)
(1.01238 0.757383 3.65457e-20)
(0.929002 0.716161 4.8509e-20)
(0.842293 0.665661 -6.79109e-20)
(0.767362 0.612556 -7.7192e-20)
(0.716011 0.566636 6.95914e-20)
(0.681941 0.525944 0)
(0.64689 0.481071 -2.14655e-20)
(0.584605 0.419817 -5.12923e-20)
(0.477678 0.335192 -6.09443e-20)
(0.333586 0.230825 -7.24261e-20)
(0.183698 0.125326 2.1466e-20)
(0.0671948 0.0446731 -1.26688e-20)
(0.00549546 0.00358687 5.31083e-23)
(0.236022 0.16439 0)
(1.07056 0.739263 0)
(1.25607 0.878522 5.40448e-22)
(1.27183 0.907824 0)
(1.2216 0.892568 -3.15992e-21)
(1.15114 0.863268 4.34811e-21)
(1.07607 0.830634 0)
(0.996129 0.794185 4.17536e-21)
(0.911046 0.751308 8.04057e-20)
(0.821895 0.698941 -1.56143e-19)
(0.744188 0.643499 0)
(0.690157 0.593771 -4.47639e-20)
(0.653468 0.54806 -6.07189e-22)
(0.616534 0.498406 -4.81509e-22)
(0.554534 0.432925 5.47696e-20)
(0.449637 0.342841 -5.91448e-23)
(0.308919 0.231944 -1.55917e-19)
(0.164756 0.12158 4.61729e-20)
(0.0569616 0.0407672 1.36952e-20)
(0.00380854 0.00268166 0)
(0.236898 0.173391 -3.71822e-20)
(1.06354 0.773978 -1.77233e-20)
(1.24472 0.918652 -2.32153e-20)
(1.25843 0.948003 2.34541e-20)
(1.20752 0.931433 -9.00036e-21)
(1.13683 0.900772 0)
(1.06127 0.866906 1.06962e-20)
(0.980383 0.82924 -9.4044e-21)
(0.893683 0.784997 7.85592e-22)
(0.802139 0.73112 1.15529e-20)
(0.721424 0.673328 9.97195e-20)
(0.664301 0.619498 -1.56731e-20)
(0.6248 0.568604 -5.98816e-20)
(0.586145 0.514005 -2.50166e-20)
(0.524297 0.443538 2.98154e-20)
(0.420859 0.347125 -2.13367e-23)
(0.283063 0.229361 4.20164e-20)
(0.145004 0.115103 -9.93328e-20)
(0.0465849 0.0357657 1.17848e-19)
(0.00213178 0.0016511 1.74009e-20)
(0.237539 0.182148 1.41722e-20)
(1.05683 0.807104 -1.00383e-20)
(1.2335 0.956453 1.29727e-21)
(1.24527 0.985741 1.50905e-20)
(1.19378 0.967962 3.33618e-21)
(1.12292 0.936118 -6.30102e-21)
(1.04699 0.901236 2.70631e-21)
(0.965243 0.862558 -3.88244e-20)
(0.877035 0.817217 -8.76842e-20)
(0.783129 0.762157 -9.26104e-20)
(0.699174 0.702093 0)
(0.638533 0.644153 -6.89712e-20)
(0.595932 0.588068 8.63506e-20)
(0.555434 0.528003 0)
(0.493586 0.451327 -6.3825e-20)
(0.391552 0.347515 3.82012e-20)
(0.256942 0.222842 -4.51532e-20)
(0.125764 0.106331 -5.34569e-20)
(0.0369041 0.0301859 -9.49259e-20)
(0.000614849 0.000609973 -7.4945e-20)
(0.238509 0.190746 -1.61099e-20)
(1.05029 0.838619 1.07538e-20)
(1.22247 0.991984 2.45958e-20)
(1.23245 1.02113 2.20637e-20)
(1.18047 1.00225 -6.38019e-21)
(1.10952 0.969398 -1.86036e-21)
(1.0333 0.933672 9.27376e-21)
(0.950788 0.894171 -3.92599e-20)
(0.861176 0.847982 -5.16599e-20)
(0.764964 0.792039 9.64377e-20)
(0.677549 0.729891 2.18631e-19)
(0.612972 0.668078 0)
(0.566856 0.606914 0)
(0.523996 0.540603 -2.88322e-20)
(0.461826 0.455898 0)
(0.361664 0.343005 8.22098e-20)
(0.231781 0.211664 9.71619e-20)
(0.109019 0.0954322 0)
(0.0291577 0.0245529 0)
(-0.0006134 -0.000331631 8.05463e-20)
(0.2391 0.198854 1.83914e-20)
(1.04396 0.868509 1.45897e-20)
(1.21171 1.02536 1.79492e-20)
(1.22001 1.05429 -2.13766e-20)
(1.16764 1.03441 -8.40102e-21)
(1.09668 1.00069 -2.19553e-22)
(1.02026 0.964266 -1.22799e-20)
(0.937074 0.924098 4.66428e-24)
(0.846181 0.877292 -1.02394e-21)
(0.747719 0.820746 -1.07228e-21)
(0.65669 0.756835 1.12534e-19)
(0.587772 0.69156 0)
(0.537608 0.625548 8.7425e-20)
(0.491421 0.552166 6.14655e-20)
(0.428078 0.457138 1.49168e-19)
(0.330453 0.332284 4.42773e-20)
(0.208775 0.193589 -5.23589e-20)
(0.0987586 0.0801594 -3.08167e-20)
(0.0282078 0.0178436 0)
(-0.000414538 -0.000940611 8.65534e-20)
(0.240015 0.206965 -4.17741e-20)
(1.0378 0.89692 0)
(1.20121 1.05662 2.1247e-20)
(1.20798 1.08531 -1.82386e-20)
(1.15535 1.06454 1.14314e-20)
(1.08442 1.03008 4.00221e-21)
(1.00789 0.993065 2.16411e-20)
(0.924135 0.952368 -3.42133e-21)
(0.832082 0.905154 0)
(0.73146 0.848249 -1.05617e-19)
(0.636743 0.783014 -2.43909e-19)
(0.563117 0.71483 1.01227e-20)
(0.50831 0.64429 1.20449e-19)
(0.457448 0.563235 0)
(0.391161 0.455669 1.00727e-19)
(0.29559 0.314552 0)
(0.186167 0.163688 0)
(0.0998276 0.0469877 -3.33833e-20)
(0.0578768 -0.00397367 0)
(0.0269343 0.00697439 2.31996e-20)
(0.240465 0.214474 -4.68293e-20)
(1.03179 0.924057 0)
(1.19098 1.08597 3.54993e-20)
(1.19633 1.11443 0)
(1.14356 1.09289 -6.96666e-21)
(1.0727 1.05785 0)
(0.996144 1.02038 7.26889e-22)
(0.911879 0.979324 5.25679e-21)
(0.818762 0.931939 6.43647e-21)
(0.716023 0.874945 -1.15436e-19)
(0.61756 0.808946 7.25927e-21)
(0.538789 0.738562 8.17785e-20)
(0.478569 0.663808 1.17562e-19)
(0.421234 0.574584 1.59336e-20)
(0.349316 0.453247 7.90147e-20)
(0.252454 0.291165 0)
(0.15328 0.119123 1.10686e-19)
(0.08349 -0.00195295 -6.51166e-20)
(0.0327939 0.0585052 7.59152e-20)
(-0.0382522 0.453419 -9.01805e-20)
(0.24084 0.221799 3.88982e-20)
(1.02573 0.949808 5.88235e-20)
(1.18094 1.11374 0)
(1.18492 1.14209 1.09888e-21)
(1.13209 1.12006 2.05335e-20)
(1.06124 1.08469 -1.57609e-20)
(0.984697 1.04701 6.18791e-21)
(0.899905 1.00592 0)
(0.8057 0.958761 4.16388e-20)
(0.70074 0.902157 -5.90935e-21)
(0.598239 0.836134 0)
(0.513569 0.764483 0)
(0.446623 0.685668 1.05013e-19)
(0.380618 0.587121 -4.92743e-20)
(0.299617 0.452134 -7.99119e-20)
(0.196998 0.266205 0)
(0.0863133 0.121473 5.63219e-20)
(0.00788047 0.466148 -6.55949e-20)
(0.0323928 1.92068 -3.67814e-20)
(0.0591473 2.82162 -4.50662e-20)
(0.240819 0.228528 -2.94036e-20)
(1.01967 0.97435 -7.58479e-20)
(1.17112 1.13992 2.12905e-20)
(1.17376 1.16815 1.78755e-20)
(1.121 1.14584 0)
(1.05014 1.11032 -1.34517e-20)
(0.973757 1.07263 6.47866e-21)
(0.888397 1.03171 -2.41573e-21)
(0.793162 0.985094 6.22755e-21)
(0.685985 0.92928 1.08967e-19)
(0.579393 0.863944 1.22257e-19)
(0.488449 0.792385 9.08764e-20)
(0.41341 0.709775 1.05382e-19)
(0.337242 0.599762 -1.15334e-19)
(0.248732 0.455434 -1.20438e-19)
(0.127504 0.307044 0)
(0.0433239 0.870096 0)
(0.0909626 2.57598 3.11345e-20)
(0.0932151 3.20853 0)
(0.0940741 3.38834 8.11281e-20)
(0.243581 0.234754 0)
(1.01386 0.998036 0)
(1.16123 1.16438 0)
(1.16263 1.19244 5.3789e-21)
(1.11 1.17001 1.90851e-20)
(1.03918 1.1346 -1.2806e-20)
(0.963251 1.09715 3.35367e-21)
(0.877289 1.05658 -2.28117e-21)
(0.781081 1.01077 5.04645e-20)
(0.671744 0.956159 -1.9602e-21)
(0.56111 0.892194 2.40076e-19)
(0.463851 0.822356 -1.04989e-20)
(0.379006 0.736721 1.2707e-20)
(0.293388 0.610361 1.66814e-20)
(0.187449 0.473721 -3.27161e-22)
(0.0983542 1.01122 3.39875e-22)
(0.129816 2.75534 -1.62884e-19)
(0.134605 3.30065 -6.18057e-20)
(0.124002 3.4247 3.27179e-20)
(0.112491 3.44465 -3.68099e-20)
(0.165426 0.1793 1.80471e-20)
(1.00401 1.02357 0)
(1.15117 1.18739 -4.39134e-20)
(1.15188 1.21523 -4.87992e-20)
(1.09956 1.19307 4.42836e-20)
(1.02904 1.158 1.45061e-20)
(0.953042 1.1205 -2.32609e-21)
(0.866656 1.08052 2.22412e-20)
(0.769556 1.03582 -4.06561e-20)
(0.658221 0.982903 0)
(0.543671 0.920962 1.17366e-19)
(0.440353 0.85419 -7.36512e-20)
(0.343858 0.769521 0)
(0.24301 0.623568 1.59454e-20)
(0.140445 0.810331 3.85297e-20)
(0.144038 2.55495 -4.41964e-20)
(0.19333 3.3313 5.04516e-20)
(0.174637 3.43764 2.71654e-20)
(0.144399 3.45598 3.11922e-20)
(0.124504 3.46432 4.93695e-20)
(0.279326 0.274214 -3.4871e-20)
(0.987823 1.03498 0)
(1.1335 1.21379 4.74385e-20)
(1.13742 1.24871 5.39845e-20)
(1.08287 1.22714 -4.93869e-20)
(1.01195 1.1926 -1.98185e-20)
(0.93486 1.15659 -3.2872e-21)
(0.847925 1.11781 1.76933e-21)
(0.749546 1.07528 3.69579e-20)
(0.635264 1.02579 9.10588e-20)
(0.514989 0.968802 6.4786e-21)
(0.401379 0.908121 6.46218e-20)
(0.281414 0.821549 1.17861e-20)
(0.207633 0.984985 -1.51795e-20)
(0.213973 2.427 -3.47602e-20)
(0.264376 3.33848 3.4242e-20)
(0.247441 3.46622 -3.75576e-20)
(0.21285 3.4838 -2.18226e-20)
(0.1787 3.50744 -1.92993e-20)
(0.133725 3.50125 -2.86131e-21)
(0.269843 0.273341 0)
(0.985536 1.05849 1.36261e-20)
(1.12537 1.23779 -9.72907e-21)
(1.12708 1.27252 -6.37022e-21)
(1.07231 1.25074 -3.39573e-20)
(1.00155 1.21647 2.02448e-20)
(0.924169 1.1807 3.90138e-21)
(0.837035 1.1427 1.47445e-21)
(0.738146 1.10162 -3.74578e-20)
(0.622462 1.0546 -2.91684e-21)
(0.499239 1.00169 -2.07883e-19)
(0.380614 0.945123 9.20931e-21)
(0.272027 0.897483 -1.10762e-20)
(0.242081 1.57096 -1.38484e-20)
(0.302936 3.14659 3.62598e-21)
(0.317208 3.4702 3.73865e-22)
(0.275353 3.51636 5.36148e-20)
(0.241185 3.53783 2.67236e-20)
(0.195431 3.55676 -7.63277e-21)
(0.145677 3.55232 -1.34653e-20)
(0.255729 0.27146 3.48331e-20)
(0.98237 1.08466 9.24812e-20)
(1.11688 1.26395 -2.78882e-20)
(1.11633 1.2979 -2.41049e-20)
(1.06137 1.27586 0)
(0.990806 1.24167 3.48259e-20)
(0.913378 1.20613 8.87768e-21)
(0.826301 1.16886 1.1573e-21)
(0.727189 1.12929 -4.2087e-21)
(0.610602 1.08494 -7.90656e-20)
(0.48532 1.03666 -9.43589e-20)
(0.361958 0.984496 -7.46937e-20)
(0.273599 1.04199 -8.2293e-20)
(0.305069 2.31296 8.54826e-20)
(0.381096 3.39869 7.20672e-20)
(0.354894 3.52811 0)
(0.306575 3.56257 0)
(0.269793 3.59466 -5.71382e-21)
(0.225421 3.63915 0)
(0.156522 3.62255 -8.19693e-21)
(0.245708 0.273491 -5.20181e-20)
(0.977247 1.11177 -7.83598e-20)
(1.10705 1.29142 0)
(1.10439 1.32423 1.33322e-21)
(1.04926 1.30169 -3.62067e-20)
(0.979017 1.26746 5.54981e-20)
(0.901854 1.23216 7.64139e-21)
(0.815059 1.19554 1.48799e-22)
(0.715962 1.1574 -2.3776e-20)
(0.598871 1.1157 3.75818e-21)
(0.472356 1.07221 0)
(0.348586 1.02989 0)
(0.299545 1.3288 -7.36195e-20)
(0.380812 2.97666 2.99661e-20)
(0.444789 3.49955 3.74361e-20)
(0.392733 3.56292 0)
(0.350953 3.61752 -1.76077e-22)