/*--------------------------------*- C++ -*----------------------------------*\
  =========                 |
  \\      /  F ield         | OpenFOAM: The Open Source CFD Toolbox
   \\    /   O peration     | Website:  https://openfoam.org
    \\  /    A nd           | Version:  6
     \\/     M anipulation  |
\*---------------------------------------------------------------------------*/
FoamFile
{
    version     2.0;
    format      ascii;
    class       volScalarField;
    location    "51";
    object      p;
}
// * * * * * * * * * * * * * * * * * * * * * * * * * * * * * * * * * * * * * //

dimensions      [0 2 -2 0 0 0 0];

internalField   nonuniform List<scalar> 
8800
(
0.854008
0.804696
0.766728
0.738649
0.718472
0.703862
0.693235
0.685656
0.680719
0.678579
0.679873
0.684152
0.690899
0.700288
0.713002
0.730309
0.754177
0.787269
0.830194
0.882723
0.68849
0.694834
0.703981
0.707519
0.704901
0.6988
0.69184
0.685568
0.680721
0.677789
0.677481
0.680034
0.684616
0.690698
0.697764
0.704773
0.709635
0.709503
0.702822
0.693921
0.662062
0.668295
0.672788
0.676647
0.679575
0.680498
0.679376
0.67721
0.67517
0.674254
0.675202
0.677584
0.680417
0.68265
0.683147
0.681343
0.677966
0.673941
0.669154
0.665436
0.657794
0.660556
0.663155
0.665301
0.667021
0.668563
0.669628
0.66993
0.669749
0.669761
0.670473
0.671538
0.672223
0.67203
0.671025
0.669646
0.667957
0.66564
0.663222
0.661655
0.652788
0.65421
0.656039
0.658103
0.659794
0.661059
0.662116
0.66304
0.663772
0.66441
0.665015
0.665388
0.665345
0.664929
0.664222
0.663078
0.6614
0.65949
0.658129
0.657327
0.647862
0.648764
0.649999
0.651606
0.653274
0.654771
0.656008
0.657066
0.658042
0.658945
0.659609
0.659896
0.659825
0.659395
0.658546
0.657323
0.655935
0.65465
0.65382
0.653297
0.643036
0.643691
0.644639
0.645935
0.647351
0.648828
0.650258
0.651547
0.652707
0.653778
0.654585
0.654957
0.654878
0.654367
0.653529
0.652544
0.651518
0.650591
0.650002
0.649619
0.638309
0.638813
0.639585
0.6407
0.641966
0.643337
0.644782
0.646238
0.647632
0.648933
0.649916
0.650375
0.650336
0.649921
0.649287
0.648545
0.647765
0.647074
0.646637
0.646339
0.633628
0.634029
0.634674
0.635667
0.636858
0.63817
0.639602
0.641143
0.642739
0.644302
0.645512
0.646137
0.646267
0.646063
0.645654
0.64512
0.644536
0.644033
0.643707
0.643466
0.628917
0.629244
0.629801
0.630714
0.631855
0.63315
0.634611
0.636243
0.638019
0.639856
0.641367
0.642267
0.642657
0.642695
0.642506
0.642184
0.641784
0.641436
0.641194
0.640993
0.624092
0.624363
0.62486
0.625725
0.626846
0.628164
0.629693
0.631454
0.633442
0.635597
0.637488
0.638748
0.639454
0.639766
0.639814
0.639702
0.639486
0.639274
0.639098
0.638926
0.619068
0.619296
0.619755
0.620601
0.621742
0.623123
0.624761
0.626703
0.628968
0.631517
0.633874
0.635568
0.636643
0.637269
0.63758
0.637687
0.63765
0.637561
0.637439
0.637287
0.613758
0.613953
0.614392
0.61525
0.616452
0.617939
0.619742
0.621934
0.624563
0.627614
0.630534
0.632736
0.634238
0.635216
0.63582
0.636153
0.636311
0.636336
0.63626
0.636123
0.608067
0.608235
0.608671
0.609571
0.610873
0.612521
0.614558
0.617084
0.620175
0.623843
0.627451
0.630264
0.632263
0.633643
0.634577
0.635181
0.635526
0.635658
0.635621
0.635494
0.601881
0.602026
0.602476
0.603446
0.604896
0.606764
0.609111
0.612068
0.615744
0.62018
0.624622
0.62816
0.630748
0.632597
0.633903
0.634799
0.635356
0.635601
0.635601
0.635479
0.59507
0.595192
0.59567
0.596741
0.598388
0.600545
0.603289
0.606782
0.611176
0.616548
0.622004
0.626426
0.629721
0.632129
0.633874
0.635102
0.635897
0.636258
0.636292
0.636173
0.587463
0.587561
0.588082
0.589287
0.591189
0.593719
0.596967
0.60114
0.606431
0.612951
0.619635
0.62511
0.629243
0.63231
0.63458
0.6362
0.637255
0.637738
0.637805
0.637685
0.578828
0.578931
0.5795
0.580875
0.583112
0.586116
0.590008
0.595042
0.601454
0.609385
0.617552
0.62428
0.629394
0.633231
0.636118
0.638191
0.639546
0.640161
0.64026
0.640136
0.568872
0.56896
0.569618
0.571226
0.573898
0.577512
0.582223
0.588345
0.596164
0.605835
0.615778
0.623982
0.630253
0.634996
0.638596
0.641205
0.642898
0.643655
0.643783
0.643652
0.557242
0.557313
0.558074
0.559993
0.563215
0.567612
0.57337
0.580861
0.59042
0.602217
0.614301
0.624255
0.63189
0.637704
0.642138
0.645372
0.647442
0.648348
0.648504
0.648363
0.543389
0.543451
0.544358
0.546685
0.550633
0.556061
0.563191
0.572452
0.584201
0.598591
0.613231
0.625231
0.634429
0.641473
0.646878
0.65082
0.653304
0.654361
0.654539
0.654383
0.526566
0.526622
0.527741
0.530646
0.535589
0.542414
0.55137
0.562944
0.577491
0.595062
0.612688
0.627016
0.637987
0.646426
0.652915
0.657656
0.660579
0.66178
0.661969
0.661795
0.505649
0.505707
0.507162
0.510927
0.517297
0.526085
0.537547
0.552173
0.570229
0.591621
0.612713
0.629683
0.642645
0.652648
0.660333
0.66595
0.669316
0.670638
0.670826
0.67063
0.478876
0.478962
0.481001
0.486154
0.49472
0.506398
0.521392
0.540093
0.562562
0.588487
0.613508
0.633372
0.648492
0.660195
0.669196
0.675721
0.679494
0.680891
0.681055
0.680836
0.443219
0.443425
0.44666
0.454386
0.466677
0.482816
0.50288
0.526969
0.554874
0.586036
0.615345
0.638275
0.655649
0.669123
0.679504
0.686907
0.690986
0.692377
0.692488
0.692245
0.392935
0.393991
0.400426
0.413464
0.432256
0.455274
0.48232
0.513169
0.547414
0.584382
0.618289
0.644428
0.664109
0.679358
0.691116
0.699292
0.703502
0.704781
0.704809
0.704542
0.319624
0.32689
0.341672
0.364448
0.392969
0.425207
0.460776
0.499421
0.540749
0.584089
0.622958
0.65256
0.674792
0.692049
0.705233
0.714092
0.718377
0.719544
0.719516
0.719276
0.24145
0.257371
0.281416
0.314718
0.353494
0.395139
0.43932
0.485963
0.534793
0.585244
0.630104
0.664143
0.689689
0.709451
0.724377
0.733894
0.738066
0.73904
0.739035
0.738901
0.174508
0.193988
0.22579
0.268153
0.316063
0.366559
0.419125
0.473651
0.529857
0.587191
0.637738
0.675891
0.704474
0.726495
0.742787
0.752651
0.756657
0.757528
0.757567
0.757498
0.11971
0.141409
0.178566
0.227443
0.282512
0.340455
0.400461
0.462249
0.525387
0.589243
0.645159
0.687178
0.71849
0.74249
0.760039
0.770506
0.774798
0.775744
0.775806
0.775777
0.0742034
0.0972433
0.138288
0.192271
0.253082
0.317168
0.383526
0.451739
0.521219
0.591178
0.652164
0.69783
0.73176
0.757633
0.776505
0.787862
0.792554
0.793556
0.793659
0.793662
0.0353844
0.0592515
0.103187
0.161327
0.226975
0.296305
0.368174
0.442089
0.517329
0.592958
0.658696
0.707785
0.744191
0.771882
0.792062
0.804225
0.809354
0.810518
0.81067
0.81069
0.0012481
0.0256969
0.0719128
0.133505
0.203286
0.277192
0.353953
0.433014
0.513533
0.594434
0.664649
0.716931
0.75561
0.784947
0.806202
0.819076
0.824627
0.826033
0.826253
0.826275
-0.0296648
-0.00472202
0.0433891
0.107923
0.181287
0.25921
0.340365
0.424141
0.509579
0.59544
0.669894
0.72518
0.765918
0.796663
0.818857
0.832296
0.838191
0.839824
0.840075
0.840092
-0.0583335
-0.0329262
0.0168048
0.0839254
0.160431
0.241913
0.327038
0.415147
0.505206
0.595805
0.674327
0.7325
0.77514
0.807143
0.830089
0.843934
0.850087
0.851877
0.852145
0.852147
-0.0855286
-0.0596012
-0.00838615
0.0610362
0.140314
0.224972
0.313692
0.405798
0.500204
0.595387
0.677919
0.738914
0.783391
0.816553
0.840139
0.854207
0.860516
0.862383
0.862635
0.862607
-0.11159
-0.0851784
-0.0325959
0.0388945
0.120646
0.208155
0.300141
0.395941
0.49445
0.59409
0.680632
0.744467
0.790781
0.825045
0.849113
0.863306
0.869645
0.871538
0.871772
0.871712
-0.136927
-0.109938
-0.05609
0.0172623
0.101238
0.191313
0.286273
0.385479
0.487858
0.591831
0.682424
0.749202
0.797434
0.832789
0.857244
0.871465
0.877778
0.879634
0.879862
0.879787
-0.161647
-0.134071
-0.0790253
-0.00398564
0.0819821
0.174366
0.272027
0.374366
0.480377
0.588562
0.68327
0.753167
0.803469
0.839938
0.864715
0.8789
0.885135
0.886916
0.88708
0.886971
-0.185855
-0.157679
-0.101501
-0.0249139
0.0628391
0.157291
0.25739
0.36259
0.47199
0.58424
0.683122
0.756389
0.808974
0.846615
0.87167
0.885748
0.891791
0.893431
0.893522
0.893375
-0.209629
-0.180821
-0.123541
-0.0455387
0.0437951
0.1401
0.242389
0.350184
0.462708
0.578835
0.68193
0.758844
0.814016
0.852953
0.878248
0.892089
0.897804
0.899228
0.899236
0.899066
-0.232999
-0.203483
-0.145135
-0.0658511
0.0248918
0.122834
0.227078
0.337196
0.452566
0.57233
0.679639
0.760469
0.818608
0.859103
0.884649
0.898054
0.903242
0.904369
0.904294
0.90411
-0.255801
-0.225616
-0.16625
-0.085827
0.00617306
0.105568
0.211524
0.323707
0.441625
0.564752
0.676186
0.761162
0.822699
0.865221
0.891191
0.903909
0.908226
0.908902
0.908733
0.90855
-0.277994
-0.247173
-0.186858
-0.105408
-0.0122954
0.0883677
0.195824
0.309798
0.429971
0.556129
0.671527
0.760796
0.826161
0.871372
0.898272
0.910179
0.913072
0.912911
0.912588
0.912448
-0.299629
-0.268113
-0.206923
-0.124549
-0.0304434
0.0713226
0.180072
0.295579
0.417698
0.546527
0.665615
0.759238
0.828782
0.877412
0.906219
0.917785
0.918739
0.916831
0.915935
0.916007
-0.320538
-0.288403
-0.226384
-0.143178
-0.0482066
0.0545217
0.16437
0.281161
0.404925
0.53605
0.658431
0.756339
0.830298
0.882926
0.914909
0.927697
0.927375
0.922778
0.919346
0.917692
-0.340811
-0.308043
-0.245241
-0.161322
-0.0656181
0.0379238
0.148664
0.266484
0.391578
0.524631
0.649821
0.751836
0.830436
0.887346
0.923527
0.939934
0.941092
0.934849
0.924485
0.924063
-0.360357
-0.327097
-0.263628
-0.179178
-0.0829779
0.021184
0.132528
0.251048
0.377092
0.511615
0.639095
0.744921
0.828644
0.889877
0.930146
0.951666
0.955492
0.945713
0.927693
0.924173
-0.379036
-0.345521
-0.281376
-0.19654
-0.100023
0.00461114
0.11618
0.235184
0.361778
0.497264
0.626346
0.735028
0.824243
0.889371
0.930445
0.951863
0.959098
0.936204
0.877801
0.852112
-0.396708
-0.364099
-0.29807
-0.212892
-0.116035
-0.0113031
0.0999002
0.21917
0.345916
0.481755
0.611659
0.721639
0.816351
0.885139
0.91977
0.935697
0.927632
0.87907
0.817585
0.780159
-0.44106
-0.382365
-0.313542
-0.228863
-0.131791
-0.0274794
0.0838208
0.202884
0.329311
0.464763
0.594659
0.704258
0.801385
0.875288
0.896851
0.88998
0.84843
0.786967
0.719252
0.68205
-0.416047
-0.397504
-0.336951
-0.252122
-0.15584
-0.0517405
0.0588425
0.177223
0.302648
0.436532
0.564643
0.671773
0.759829
0.840264
0.828864
0.727267
0.641225
0.581078
0.51914
0.548996
-0.448029
-0.415885
-0.354482
-0.270248
-0.174023
-0.0701856
0.0405377
0.158253
0.282629
0.414701
0.540125
0.643576
0.721589
0.766632
0.72059
0.587004
0.482224
0.411406
0.331055
0.379594
-0.473012
-0.438379
-0.375069
-0.290664
-0.194492
-0.0906968
0.0199301
0.136856
0.259869
0.38955
0.511166
0.608566
0.675713
0.68363
0.583051
0.432928
0.307705
0.217962
0.124575
0.15904
-0.497412
-0.461623
-0.396824
-0.31169
-0.215383
-0.111685
-0.00152211
0.114463
0.235901
0.362813
0.479668
0.569558
0.620367
0.59638
0.444115
0.271739
0.115469
-0.0159286
-0.138957
-0.123755
-0.521578
-0.485314
-0.419523
-0.33374
-0.237205
-0.133669
-0.0241059
0.0908037
0.210401
0.334163
0.445491
0.528015
0.558614
0.491564
0.307698
0.114972
-0.0685431
-0.21949
-0.423251
-0.502726
-0.546196
-0.509928
-0.443515
-0.357235
-0.260448
-0.157017
-0.0479824
0.0658311
0.183482
0.303861
0.409333
0.482766
0.489318
0.371048
0.183539
-0.0215097
-0.210074
-0.369163
-0.491475
-0.61003
-0.572352
-0.535952
-0.469163
-0.382569
-0.285665
-0.182428
-0.0740104
0.038542
0.153919
0.270385
0.369571
0.430883
0.411186
0.256639
0.0675884
-0.13174
-0.30388
-0.39899
-0.424725
-0.438252
-0.600193
-0.563678
-0.496604
-0.409853
-0.313012
-0.210135
-0.102573
0.0084173
0.121084
0.232918
0.325354
0.369782
0.33185
0.146959
-0.0402421
-0.219384
-0.349155
-0.38615
-0.394847
-0.395167
-0.630007
-0.593239
-0.525883
-0.439077
-0.342443
-0.240152
-0.133701
-0.0246071
0.0848961
0.191408
0.276123
0.305033
0.23664
0.0466843
-0.134461
-0.289895
-0.362203
-0.376064
-0.376962
-0.376727
-0.661814
-0.62468
-0.557021
-0.470243
-0.37398
-0.272477
-0.167414
-0.0605616
0.0453585
0.145925
0.221684
0.236383
0.130537
-0.0442423
-0.215387
-0.337761
-0.365382
-0.366215
-0.366879
-0.366415
-0.695358
-0.657828
-0.589914
-0.503267
-0.407536
-0.307063
-0.203696
-0.0994402
0.00251455
0.0965637
0.163154
0.159287
0.0357354
-0.12862
-0.279138
-0.34719
-0.361821
-0.360331
-0.36016
-0.359833
-0.730063
-0.692333
-0.624293
-0.537918
-0.442922
-0.343754
-0.242405
-0.141141
-0.0434392
0.0437078
0.100729
0.081328
-0.0525194
-0.203745
-0.321378
-0.356777
-0.355663
-0.355208
-0.354772
-0.354464
-0.765494
-0.727657
-0.659672
-0.57377
-0.479777
-0.382223
-0.283267
-0.185407
-0.092269
-0.0117417
0.0329646
0.00815671
-0.133201
-0.262807
-0.345916
-0.35258
-0.353526
-0.353082
-0.352383
-0.351855
-0.800632
-0.762882
-0.695284
-0.610165
-0.517534
-0.421982
-0.325824
-0.231772
-0.143625
-0.0689828
-0.0349148
-0.0664438
-0.20322
-0.310947
-0.353395
-0.362109
-0.356119
-0.353419
-0.351973
-0.351271
-0.833631
-0.796709
-0.730079
-0.646188
-0.55539
-0.462303
-0.369404
-0.279546
-0.196782
-0.127626
-0.0983024
-0.143861
-0.261948
-0.359272
-0.377077
-0.368988
-0.358914
-0.351542
-0.349072
-0.34822
-0.863372
-0.827593
-0.762618
-0.680603
-0.592255
-0.502218
-0.413102
-0.327849
-0.250643
-0.187018
-0.161352
-0.209878
-0.304126
-0.393258
-0.414679
-0.386104
-0.362413
-0.350438
-0.347583
-0.346535
-0.887095
-0.853358
-0.79109
-0.711835
-0.626763
-0.540509
-0.45576
-0.3756
-0.304134
-0.245292
-0.224013
-0.262454
-0.318259
-0.394556
-0.396221
-0.395173
-0.389348
-0.384488
-0.380101
-0.377461
-0.902654
-0.871808
-0.813349
-0.738065
-0.657309
-0.575739
-0.496
-0.4215
-0.356063
-0.301187
-0.279269
-0.310568
-0.304906
-0.342731
-0.374767
-0.427198
-0.467698
-0.472073
-0.463761
-0.460894
-0.907248
-0.880444
-0.827202
-0.757342
-0.682133
-0.606342
-0.532359
-0.463904
-0.404799
-0.35633
-0.325342
-0.366599
-0.345094
-0.255686
-0.360318
-0.450887
-0.499137
-0.514396
-0.516218
-0.51774
-0.898532
-0.87669
-0.830404
-0.767774
-0.699597
-0.630736
-0.563433
-0.500995
-0.448973
-0.410612
-0.366085
-0.447084
-0.521253
-0.483366
-0.514448
-0.556338
-0.567689
-0.569885
-0.571856
-0.573413
-0.873765
-0.857661
-0.820919
-0.768015
-0.708496
-0.647563
-0.587841
-0.531542
-0.486299
-0.457563
-0.441224
-0.554517
-0.76326
-0.853218
-0.755565
-0.701922
-0.6734
-0.656103
-0.649849
-0.648185
-0.836211
-0.825914
-0.799627
-0.758134
-0.708573
-0.656314
-0.604036
-0.554635
-0.514018
-0.496207
-0.501915
-0.634441
-0.765452
-0.91654
-0.76548
-0.688464
-0.673378
-0.657395
-0.649394
-0.645661
-0.792696
-0.786925
-0.771311
-0.74096
-0.701605
-0.657403
-0.611717
-0.568023
-0.529967
-0.511632
-0.51129
-0.571775
-0.576214
-0.600387
-0.665305
-0.750729
-0.758839
-0.670696
-0.613333
-0.613259
-0.753054
-0.749703
-0.742124
-0.721775
-0.690436
-0.652634
-0.611751
-0.569915
-0.534138
-0.508278
-0.521929
-0.507712
-0.525999
-0.626441
-0.759126
-0.891277
-0.936128
-0.86873
-0.760074
-0.710812
-0.723554
-0.721614
-0.717769
-0.704787
-0.679581
-0.645176
-0.606062
-0.563825
-0.520022
-0.490354
-0.490473
-0.446758
-0.403066
-0.398642
-0.381324
-0.465778
-0.489234
-0.506039
-0.489142
-0.46828
-0.700468
-0.69972
-0.698488
-0.691765
-0.671595
-0.638673
-0.597379
-0.549109
-0.499005
-0.445812
-0.393706
-0.372671
-0.316325
-0.29175
-0.383497
-0.341298
-0.267824
-0.186308
-0.100993
-0.0651872
-0.686371
-0.686001
-0.685476
-0.682469
-0.667053
-0.633768
-0.586984
-0.532717
-0.466296
-0.385693
-0.297789
-0.154469
-0.0603922
0.0348792
0.155465
0.258591
0.392601
0.586176
0.729728
0.785611
-0.676993
-0.676994
-0.676955
-0.676383
-0.664644
-0.630731
-0.579718
-0.514842
-0.432522
-0.331683
-0.215257
-0.0308655
0.231776
0.509812
0.799992
1.09595
1.38091
1.60261
1.71853
1.75796
-0.66874
-0.668921
-0.66865
-0.667986
-0.659645
-0.630456
-0.578337
-0.504734
-0.413017
-0.292053
-0.166475
-0.0291329
0.231685
0.547921
1.00878
1.44203
1.7696
1.97679
2.07098
2.09635
-0.668443
-0.666421
-0.659808
-0.652374
-0.651381
-0.63718
-0.588069
-0.503232
-0.400402
-0.279464
-0.141541
-0.00985907
0.202597
0.542581
0.940285
1.31355
1.59537
1.76434
1.83647
1.85372
-0.701207
-0.6961
-0.684905
-0.676349
-0.679038
-0.672691
-0.611626
-0.508416
-0.392405
-0.273111
-0.13931
-0.0141135
0.121801
0.379028
0.721407
1.01142
1.22949
1.34968
1.39775
1.40868
-0.779355
-0.780096
-0.789399
-0.800347
-0.79885
-0.75755
-0.645901
-0.513903
-0.384931
-0.264662
-0.147392
-0.0444042
0.0506754
0.214417
0.46934
0.686253
0.841568
0.92549
0.958579
0.963728
-0.862673
-0.87747
-0.907448
-0.924223
-0.90971
-0.824178
-0.660609
-0.504914
-0.374465
-0.255597
-0.159565
-0.0787311
-0.00984148
0.11577
0.284848
0.419899
0.52151
0.574448
0.593786
0.596909
-0.833966
-0.85103
-0.879381
-0.896884
-0.876526
-0.771213
-0.606027
-0.465691
-0.345836
-0.245961
-0.170847
-0.118377
-0.0830415
-0.00438351
0.120071
0.22082
0.283952
0.313476
0.32512
0.326854
-0.620856
-0.637058
-0.662009
-0.680085
-0.66081
-0.580969
-0.480374
-0.382421
-0.293104
-0.223272
-0.174698
-0.1421
-0.125027
-0.0639828
0.0120763
0.0743508
0.11445
0.135968
0.143673
0.144324
-0.314264
-0.323434
-0.340108
-0.358092
-0.361325
-0.343485
-0.31224
-0.270811
-0.227964
-0.186774
-0.164156
-0.152217
-0.159293
-0.101079
-0.0314496
0.0052924
0.0220916
0.0288432
0.0311022
0.0312184
-0.0651044
-0.0689571
-0.0798331
-0.100632
-0.127876
-0.151885
-0.165634
-0.168838
-0.162058
-0.14294
-0.13679
-0.142409
-0.145102
-0.105585
-0.064353
-0.0432392
-0.0297084
-0.0245397
-0.022735
-0.0228008
0.0642478
0.0620669
0.0533209
0.032285
-0.00141468
-0.0395727
-0.0718883
-0.0936377
-0.104702
-0.102292
-0.100905
-0.101263
-0.0965042
-0.0643993
-0.043889
-0.0378684
-0.0373611
-0.0379653
-0.0379915
-0.038261
0.106314
0.104726
0.0979286
0.0806246
0.0518703
0.0172849
-0.0158955
-0.0429535
-0.0596553
-0.0645266
-0.0609488
-0.0514097
-0.03685
-0.0232534
-0.0161226
-0.0173507
-0.0212041
-0.0233101
-0.0239816
-0.0245383
0.106585
0.105489
0.10075
0.0885361
0.0675221
0.0411417
0.0134314
-0.0107383
-0.0274706
-0.0322914
-0.0244366
-0.00552183
0.0171929
0.0235886
0.01699
0.0082019
0.00439156
0.00351733
0.00297969
0.00226545
0.0913893
0.0907108
0.0876356
0.0795599
0.0652102
0.0462896
0.025419
0.00611763
-0.00752963
-0.00998192
0.00336839
0.0298853
0.0544749
0.0544869
0.0453964
0.0364657
0.0326004
0.0311594
0.0301739
0.0290638
0.0720656
0.0716774
0.0697505
0.0645673
0.0550921
0.0420808
0.0269657
0.0124891
0.00191462
0.00125585
0.0174475
0.0461854
0.0719828
0.0658984
0.0517224
0.0450587
0.044903
0.0462606
0.0459375
0.0446078
0.052905
0.0527332
0.0515333
0.0482211
0.041972
0.0330206
0.0222087
0.0110684
0.00238641
0.000913896
0.0145158
0.040116
0.0617168
0.0519364
0.0397552
0.0368248
0.0388601
0.0410036
0.0407899
0.0393015
0.0356411
0.0354963
0.0347162
0.0325584
0.0283742
0.0220057
0.0139101
0.00461054
-0.0042303
-0.00945414
-0.00480148
0.00877383
0.0195082
0.00840733
0.000968878
0.00333881
0.00853176
0.0111458
0.0109947
0.00966884
0.0208466
0.0207471
0.0201983
0.0187182
0.0157834
0.011054
0.00443918
-0.00412256
-0.0146371
-0.0267703
-0.0374531
-0.0460542
-0.0535565
-0.0632297
-0.0604334
-0.0502729
-0.0415726
-0.0380598
-0.0381414
-0.0391535
0.00895303
0.00884205
0.00839921
0.00737681
0.00525678
0.0016017
-0.00417524
-0.0126539
-0.0254226
-0.0456874
-0.0755978
-0.112555
-0.146134
-0.148976
-0.128897
-0.10975
-0.0995866
-0.0967521
-0.0966802
-0.0969937
0.000405929
0.000274957
-7.50263e-05
-0.000823013
-0.00238072
-0.00525198
-0.0103355
-0.0185832
-0.0330376
-0.0592574
-0.10512
-0.171168
-0.217119
-0.207543
-0.176691
-0.154522
-0.146848
-0.145115
-0.144435
-0.144008
-0.00458112
-0.00473297
-0.00504614
-0.00555998
-0.00665218
-0.00886314
-0.0132044
-0.0206876
-0.0345159
-0.0619093
-0.112108
-0.183036
-0.22454
-0.206243
-0.17797
-0.163906
-0.161191
-0.162493
-0.161525
-0.160668
-0.00608435
-0.00622877
-0.00647541
-0.00681654
-0.00746553
-0.00901474
-0.0121448
-0.0181686
-0.0293719
-0.0521003
-0.0931562
-0.147434
-0.170606
-0.152318
-0.136797
-0.13517
-0.138867
-0.141409
-0.14053
-0.139744
-0.00467725
-0.00479418
-0.00495779
-0.00512325
-0.00540626
-0.00623777
-0.00795952
-0.0116064
-0.018425
-0.0320469
-0.0557672
-0.0857181
-0.0896754
-0.0797946
-0.0782266
-0.0819207
-0.0881935
-0.0902556
-0.0893016
-0.0886282
-0.000996864
-0.00101715
-0.00105139
-0.00110276
-0.00110709
-0.0010929
-0.0013262
-0.0017545
-0.00274985
-0.00463743
-0.00799208
-0.0112437
-0.0168999
-0.0164658
-0.0199077
-0.0200938
-0.0212087
-0.0200282
-0.0188172
-0.0183881
0.0100282
0.199511
0.373687
0.522095
0.642009
0.737696
0.817884
0.883169
0.899942
0.896297
0.30289
0.425121
0.539935
0.640174
0.725016
0.795422
0.851057
0.888764
0.908933
0.925474
0.50213
0.583839
0.664825
0.736223
0.797354
0.84815
0.88816
0.918589
0.941373
0.960622
0.649354
0.707115
0.765971
0.818904
0.864608
0.90343
0.935935
0.963137
0.983609
1.00252
0.766663
0.810716
0.854759
0.895615
0.931986
0.964087
0.992122
1.01585
1.03391
1.05196
0.866547
0.902251
0.937425
0.971396
1.0027
1.03102
1.05602
1.07697
1.0928
1.11029
0.954829
0.98711
1.01947
1.05074
1.07984
1.1063
1.12949
1.14848
1.16243
1.17946
1.04206
1.07473
1.10725
1.13851
1.16734
1.19318
1.21536
1.23293
1.24533
1.26188
1.1366
1.17303
1.20785
1.24035
1.26957
1.29496
1.31612
1.33243
1.34407
1.36023
1.24972
1.29028
1.32734
1.36035
1.38888
1.4129
1.43256
1.44785
1.45976
1.47587
1.39109
1.43221
1.4675
1.49712
1.52236
1.544
1.56252
1.57801
1.59112
1.60711
1.56273
1.59523
1.62212
1.64445
1.66455
1.68328
1.70102
1.71778
1.73269
1.74851
1.74919
1.76648
1.78362
1.8003
1.8164
1.83113
1.84502
1.85948
1.87472
1.89213
1.9324
1.94235
1.95552
1.96649
1.97588
1.98553
1.99613
2.00633
2.01567
2.04106
2.14987
2.1441
2.1311
2.11685
2.11057
2.11626
2.13437
2.16287
2.19665
2.23295
2.45314
2.3173
2.23783
2.19528
2.17788
2.1819
2.20939
2.26731
2.37496
2.55318
0.75767
0.75137
0.743635
0.732516
0.718944
0.706293
0.695885
0.687855
0.682111
0.678744
0.678349
0.681142
0.686342
0.693675
0.703203
0.715015
0.728562
0.741482
0.75047
0.758006
0.666791
0.672717
0.680779
0.686899
0.689955
0.689429
0.686326
0.682309
0.67869
0.676368
0.67619
0.678402
0.682123
0.686544
0.690629
0.692865
0.691787
0.68715
0.680099
0.672264
0.660062
0.662434
0.665699
0.668468
0.670909
0.673082
0.674239
0.674064
0.673092
0.672243
0.67241
0.673781
0.67553
0.676737
0.676647
0.67517
0.673003
0.670632
0.667642
0.664621
0.6553
0.656388
0.6583
0.66063
0.662492
0.663876
0.665073
0.666036
0.666597
0.666927
0.667429
0.668125
0.668556
0.668411
0.667762
0.666822
0.665478
0.663499
0.661385
0.659905
0.650314
0.650948
0.652073
0.653821
0.65565
0.657226
0.658453
0.659485
0.660423
0.661266
0.661991
0.662459
0.662555
0.662314
0.661751
0.660757
0.659315
0.657693
0.656348
0.655544
0.645439
0.645878
0.646662
0.647956
0.649462
0.651004
0.652454
0.653712
0.654815
0.655839
0.656721
0.65726
0.657388
0.657112
0.656417
0.655392
0.654219
0.65306
0.652147
0.651612
0.640665
0.640993
0.641601
0.642659
0.643937
0.645313
0.646759
0.648188
0.649521
0.650749
0.651813
0.65248
0.652644
0.652349
0.651712
0.650897
0.650025
0.649152
0.648479
0.648086
0.63597
0.636225
0.636714
0.637613
0.638766
0.640048
0.641432
0.642908
0.64442
0.645895
0.647191
0.648014
0.648277
0.648115
0.647682
0.647095
0.646429
0.645777
0.645282
0.644981
0.631285
0.631488
0.631895
0.632683
0.633756
0.634986
0.636352
0.637867
0.63951
0.64122
0.642792
0.643854
0.644333
0.644398
0.644192
0.643818
0.64335
0.642883
0.642525
0.642289
0.626528
0.626692
0.62704
0.627754
0.628779
0.629987
0.631378
0.632968
0.634758
0.636704
0.6386
0.640004
0.64079
0.641129
0.641162
0.641006
0.640738
0.640438
0.640193
0.640003
0.621614
0.621747
0.622054
0.622723
0.623728
0.624958
0.626411
0.628121
0.630106
0.632348
0.634642
0.636467
0.637621
0.638275
0.638579
0.638652
0.638582
0.638441
0.63829
0.638137
0.616459
0.616567
0.616845
0.617494
0.618516
0.619811
0.621369
0.623249
0.625495
0.628116
0.630901
0.633231
0.634818
0.635839
0.636446
0.636767
0.636898
0.636916
0.636848
0.636723
0.610971
0.611058
0.61132
0.611974
0.613048
0.614449
0.616169
0.61829
0.620885
0.623988
0.627379
0.630314
0.632409
0.633843
0.634789
0.635397
0.63575
0.635913
0.635917
0.635814
0.605047
0.605115
0.605371
0.606053
0.607216
0.608771
0.610718
0.613162
0.616204
0.61991
0.624045
0.62771
0.630405
0.632325
0.633657
0.634579
0.635174
0.635493
0.635566
0.63548
0.598565
0.598614
0.598872
0.599604
0.600897
0.602662
0.604909
0.607765
0.611368
0.615819
0.62086
0.625409
0.628825
0.631321
0.633103
0.634378
0.635251
0.635738
0.635879
0.635808
0.591377
0.591406
0.591673
0.592478
0.593943
0.595982
0.598612
0.601988
0.606287
0.611656
0.617804
0.62342
0.627699
0.630882
0.633202
0.634893
0.636082
0.636749
0.636957
0.636899
0.583295
0.583315
0.583581
0.584486
0.586173
0.588564
0.591684
0.595722
0.600901
0.6074
0.614894
0.621797
0.627101
0.631083
0.634036
0.636231
0.637774
0.638639
0.638918
0.638869
0.574014
0.574008
0.57433
0.575375
0.577359
0.580201
0.583947
0.588828
0.595118
0.603035
0.612168
0.620594
0.6271
0.632022
0.635714
0.638495
0.640448
0.641534
0.641885
0.641842
0.563266
0.563237
0.563606
0.56484
0.567194
0.570619
0.575166
0.581111
0.588785
0.598446
0.609568
0.619814
0.627746
0.633783
0.638348
0.641808
0.644235
0.645562
0.645986
0.645947
0.550577
0.550525
0.550969
0.552447
0.555279
0.559458
0.565044
0.572358
0.581782
0.593597
0.607133
0.619536
0.629129
0.636463
0.642053
0.646299
0.649263
0.650852
0.651349
0.651309
0.535304
0.53523
0.535794
0.537617
0.541091
0.546283
0.553246
0.562355
0.574028
0.588525
0.604956
0.619891
0.631384
0.640187
0.646958
0.652091
0.655653
0.657512
0.658074
0.658028
0.516531
0.516437
0.517196
0.519523
0.523898
0.530494
0.53934
0.550846
0.565432
0.583278
0.603149
0.62096
0.634606
0.645068
0.653143
0.659281
0.663484
0.66561
0.666223
0.666162
0.492851
0.492755
0.493842
0.496942
0.502669
0.511312
0.522822
0.537584
0.555915
0.577823
0.60172
0.622823
0.638866
0.65117
0.660679
0.667923
0.672787
0.675151
0.675788
0.675705
0.461947
0.461894
0.463579
0.46802
0.476011
0.48784
0.503286
0.522554
0.545745
0.572609
0.601092
0.625749
0.644328
0.658579
0.66964
0.678034
0.683513
0.686042
0.686659
0.686544
0.419708
0.419851
0.422834
0.430064
0.442293
0.459379
0.480656
0.506
0.535203
0.567799
0.60135
0.629828
0.651076
0.667337
0.679976
0.689518
0.695478
0.698032
0.698571
0.698417
0.358471
0.359763
0.367016
0.380654
0.400621
0.426043
0.455521
0.488572
0.524868
0.563867
0.60282
0.635205
0.659123
0.677354
0.691498
0.702029
0.708278
0.710642
0.711012
0.710827
0.285069
0.287613
0.301727
0.325246
0.355838
0.391178
0.429611
0.470893
0.514822
0.560942
0.606224
0.643515
0.670991
0.691906
0.707988
0.719642
0.726166
0.728508
0.728878
0.728792
0.209799
0.216598
0.237805
0.271223
0.312175
0.357195
0.404575
0.454153
0.50581
0.559158
0.610955
0.653332
0.68448
0.708228
0.726415
0.739059
0.745561
0.747604
0.747906
0.747892
0.148447
0.157087
0.182916
0.223372
0.272457
0.325706
0.381179
0.438568
0.497645
0.55794
0.615932
0.663084
0.697587
0.723804
0.743684
0.757166
0.763756
0.765711
0.766135
0.766202
0.0981609
0.107511
0.136853
0.182562
0.237797
0.297648
0.359951
0.424221
0.490055
0.556844
0.620679
0.672345
0.710011
0.73849
0.759996
0.774406
0.781413
0.783774
0.784321
0.784427
0.0559411
0.0656076
0.0973676
0.147193
0.207472
0.272812
0.340892
0.41115
0.483045
0.555819
0.625141
0.681049
0.721707
0.752369
0.775479
0.790979
0.798684
0.801369
0.801989
0.802101
0.0193473
0.0291689
0.06276
0.115896
0.180391
0.25044
0.323565
0.399127
0.476494
0.554766
0.62922
0.68911
0.732552
0.765281
0.789866
0.80637
0.814751
0.817703
0.818397
0.818499
-0.0132658
-0.00336668
0.031685
0.0875703
0.155653
0.229785
0.307373
0.38772
0.470113
0.553499
0.632775
0.696417
0.742438
0.776975
0.802822
0.820166
0.829179
0.832423
0.833158
0.833244
-0.0431098
-0.0331488
0.00308818
0.0613632
0.132559
0.210267
0.291833
0.376538
0.463587
0.551808
0.635656
0.70288
0.751304
0.787464
0.814393
0.832391
0.841834
0.845319
0.84611
0.846185
-0.0710941
-0.0610593
-0.0237294
0.0366654
0.110602
0.191465
0.276594
0.365277
0.456658
0.549473
0.637766
0.708462
0.759197
0.796855
0.82474
0.843236
0.852924
0.856573
0.857398
0.857452
-0.0977642
-0.0876125
-0.0492745
0.0130248
0.0893899
0.173065
0.261407
0.353727
0.449146
0.546349
0.639025
0.713176
0.766192
0.805304
0.834018
0.852869
0.862669
0.866367
0.867197
0.867225
-0.123525
-0.113198
-0.0739101
-0.00987856
0.068659
0.154857
0.246105
0.341756
0.440945
0.542345
0.639352
0.717023
0.772371
0.812942
0.8424
0.861466
0.871292
0.874967
0.875769
0.875758
-0.148641
-0.138058
-0.0978593
-0.0322366
0.048254
0.136709
0.230589
0.329289
0.431979
0.537397
0.6387
0.720001
0.777825
0.81993
0.85008
0.869278
0.879065
0.882678
0.883429
0.883394
-0.17318
-0.162329
-0.121255
-0.0541643
0.0280881
0.118569
0.214818
0.316294
0.422223
0.531456
0.63702
0.722115
0.782631
0.826382
0.857201
0.87647
0.886155
0.889637
0.890299
0.890225
-0.197246
-0.186107
-0.144185
-0.0757032
0.00812988
0.100416
0.198793
0.302781
0.411686
0.524512
0.63426
0.723334
0.786832
0.832405
0.863904
0.883166
0.892631
0.895893
0.896429
0.896308
-0.220841
-0.209411
-0.166635
-0.0968621
-0.0116154
0.0822765
0.182557
0.288795
0.400401
0.516562
0.630383
0.723597
0.790421
0.838096
0.870351
0.889495
0.898549
0.901472
0.901852
0.901694
-0.244009
-0.232221
-0.188572
-0.117623
-0.0311191
0.0641973
0.166163
0.274404
0.388429
0.507636
0.625358
0.722826
0.793329
0.843523
0.876772
0.895698
0.904057
0.906446
0.906633
0.906447
-0.266512
-0.254476
-0.209972
-0.137952
-0.0503232
0.0462593
0.149687
0.259687
0.37585
0.497797
0.61917
0.720936
0.79544
0.848687
0.883429
0.902177
0.909441
0.910924
0.910806
0.910605
-0.288501
-0.276116
-0.230793
-0.157812
-0.0691837
0.0285109
0.133227
0.244734
0.362757
0.487128
0.611825
0.71783
0.796589
0.853448
0.890489
0.909537
0.915394
0.915268
0.914447
0.914235
-0.309786
-0.297093
-0.251013
-0.177145
-0.0876117
0.0110435
0.116874
0.229669
0.349263
0.475706
0.603363
0.713415
0.796588
0.857521
0.89782
0.918369
0.923311
0.920847
0.918148
0.917469
-0.330458
-0.317426
-0.270565
-0.195887
-0.105564
-0.00606922
0.100718
0.21458
0.335479
0.463672
0.593857
0.707593
0.795244
0.86051
0.904797
0.928564
0.934677
0.930882
0.92454
0.91519
-0.350397
-0.337105
-0.289539
-0.214205
-0.123268
-0.0231202
0.0844112
0.199047
0.320939
0.450501
0.582767
0.699752
0.792076
0.862033
0.910596
0.939071
0.949382
0.946135
0.935595
0.933279
-0.369557
-0.356201
-0.307924
-0.232032
-0.140695
-0.0400783
0.0679891
0.183054
0.305615
0.436079
0.569927
0.689441
0.786408
0.861307
0.913147