/*--------------------------------*- C++ -*----------------------------------*\
  =========                 |
  \\      /  F ield         | OpenFOAM: The Open Source CFD Toolbox
   \\    /   O peration     | Website:  https://openfoam.org
    \\  /    A nd           | Version:  6
     \\/     M anipulation  |
\*---------------------------------------------------------------------------*/
FoamFile
{
    version     2.0;
    format      ascii;
    class       volVectorField;
    location    "51";
    object      U;
}
// * * * * * * * * * * * * * * * * * * * * * * * * * * * * * * * * * * * * * //

dimensions      [0 1 -1 0 0 0 0];

internalField   nonuniform List<vector> 
8800
(
(0.987195 -0.0767064 0)
(1.0019 -0.0551793 0)
(0.999721 -0.0285531 0)
(1.00002 -0.0151576 0)
(1.00007 -0.00856007 0)
(1.00007 -0.00506073 0)
(1.00005 -0.00301616 0)
(1.00002 -0.00171521 0)
(0.999998 -0.000808454 0)
(1.00006 -9.28325e-05 0)
(0.999988 0.000634025 0)
(0.999995 0.00139541 0)
(1.00001 0.00241848 0)
(1.00003 0.00399709 0)
(1.00003 0.00663544 0)
(1.00001 0.0113761 0)
(0.999887 0.0208163 0)
(0.999145 0.0386579 0)
(1.0071 0.0724574 0)
(0.771225 0.0366895 0)
(0.363028 -0.0160166 0)
(1.04331 -0.0768338 0)
(1.08461 -0.0704562 0)
(1.04521 -0.0535645 0)
(1.02328 -0.0389206 0)
(1.01199 -0.0262525 0)
(1.00639 -0.0169021 0)
(1.00357 -0.0103771 0)
(1.00214 -0.00572177 0)
(1.00145 -0.00207074 0)
(1.00132 0.00125003 0)
(1.00169 0.00462817 0)
(1.00266 0.0085616 0)
(1.00465 0.013907 0)
(1.0086 0.0216224 0)
(1.01658 0.0325969 0)
(1.03249 0.0465155 0)
(1.06265 0.0616396 0)
(1.09189 0.0760783 0)
(0.838682 0.0565746 0)
(0.216794 -0.00242326 0)
(1.07584 -0.0501707 0)
(1.09984 -0.0483617 0)
(1.06459 -0.0405193 0)
(1.03997 -0.0336679 0)
(1.02384 -0.0261569 0)
(1.01406 -0.0185853 0)
(1.00853 -0.011774 0)
(1.00557 -0.00591452 0)
(1.00433 -0.000504783 0)
(1.00468 0.00473929 0)
(1.00661 0.0101275 0)
(1.0106 0.016231 0)
(1.01793 0.0232713 0)
(1.03054 0.0307501 0)
(1.05062 0.0377963 0)
(1.08032 0.0444948 0)
(1.10625 0.0513222 0)
(0.942564 0.041601 0)
(0.216191 0.00245099 0)
(0.175097 -0.000816406 0)
(1.01758 -0.0355219 0)
(1.10513 -0.0414426 0)
(1.07819 -0.0361436 0)
(1.05336 -0.0302246 0)
(1.03609 -0.0246632 0)
(1.02392 -0.0189501 0)
(1.01583 -0.0128836 0)
(1.01099 -0.00670838 0)
(1.00881 -0.000384222 0)
(1.0094 0.00586769 0)
(1.01266 0.011867 0)
(1.01887 0.0177199 0)
(1.02877 0.0233182 0)
(1.04322 0.0286362 0)
(1.06375 0.0341377 0)
(1.09355 0.040136 0)
(1.09344 0.0419137 0)
(0.827272 0.0228906 0)
(0.17408 0.000848094 0)
(0.153858 -0.000611777 0)
(0.955969 -0.0255051 0)
(1.10334 -0.0352106 0)
(1.08757 -0.0327574 0)
(1.06158 -0.0281245 0)
(1.04396 -0.0231229 0)
(1.03153 -0.0178979 0)
(1.02271 -0.0123865 0)
(1.01693 -0.00646708 0)
(1.01411 -1.09058e-05 0)
(1.01482 0.00644717 0)
(1.0188 0.0123348 0)
(1.02581 0.0176539 0)
(1.03612 0.0226002 0)
(1.05071 0.0273761 0)
(1.07196 0.0319305 0)
(1.10011 0.0358848 0)
(1.06818 0.033967 0)
(0.73977 0.0142869 0)
(0.152328 0.000647681 0)
(0.139444 -0.000468796 0)
(0.898936 -0.0191333 0)
(1.09559 -0.0301834 0)
(1.09558 -0.0293231 0)
(1.06905 -0.0256152 0)
(1.05062 -0.021501 0)
(1.03773 -0.016756 0)
(1.02866 -0.0115009 0)
(1.02258 -0.00578374 0)
(1.0195 0.000528028 0)
(1.02016 0.00683889 0)
(1.02427 0.0124783 0)
(1.0314 0.0174697 0)
(1.04194 0.021968 0)
(1.0571 0.025955 0)
(1.07931 0.0294495 0)
(1.10236 0.0321022 0)
(1.03618 0.0280364 0)
(0.673339 0.0101788 0)
(0.137286 0.000510178 0)
(0.128856 -0.000363922 0)
(0.849185 -0.0147805 0)
(1.08311 -0.0260738 0)
(1.10121 -0.0264067 0)
(1.07585 -0.0231519 0)
(1.05689 -0.0195417 0)
(1.04355 -0.0153328 0)
(1.03413 -0.0104452 0)
(1.02783 -0.00494425 0)
(1.02457 0.00118162 0)
(1.0251 0.00727634 0)
(1.02918 0.0126402 0)
(1.03643 0.0172284 0)
(1.04726 0.0211324 0)
(1.06282 0.0244556 0)
(1.08547 0.0274343 0)
(1.10153 0.0292261 0)
(1.00141 0.0234976 0)
(0.621673 0.00780736 0)
(0.125933 0.000412607 0)
(0.12076 -0.00028368 0)
(0.806855 -0.0116321 0)
(1.0677 -0.0224859 0)
(1.10465 -0.0238027 0)
(1.08203 -0.0209706 0)
(1.06266 -0.0175843 0)
(1.04905 -0.0136921 0)
(1.03937 -0.00915575 0)
(1.03279 -0.00393827 0)
(1.02929 0.0019649 0)
(1.02967 0.00781308 0)
(1.03372 0.0128296 0)
(1.04104 0.0169493 0)
(1.05198 0.0203512 0)
(1.06777 0.0232656 0)
(1.09076 0.025951 0)
(1.09782 0.026857 0)
(0.966332 0.0199292 0)
(0.580226 0.00626406 0)
(0.116909 0.000341716 0)
(0.114467 -0.000220925 0)
(0.771168 -0.00927946 0)
(1.05077 -0.0193305 0)
(1.10693 -0.0213985 0)
(1.08782 -0.0189456 0)
(1.06807 -0.0157147 0)
(1.05422 -0.0119978 0)
(1.04435 -0.00768239 0)
(1.03754 -0.00271793 0)
(1.03379 0.00291553 0)
(1.03397 0.00845036 0)
(1.03791 0.0130884 0)
(1.04517 0.0167968 0)
(1.05613 0.0198169 0)
(1.07213 0.0224103 0)
(1.0948 0.0247636 0)
(1.09134 0.0248776 0)
(0.93227 0.0171646 0)
(0.545996 0.00520634 0)
(0.109488 0.000290456 0)
(0.109543 -0.00017063 0)
(0.741178 -0.00745554 0)
(1.03337 -0.0165362 0)
(1.10825 -0.0191412 0)
(1.09331 -0.0170123 0)
(1.07328 -0.0138885 0)
(1.05917 -0.0102714 0)
(1.04911 -0.00608977 0)
(1.04208 -0.00131472 0)
(1.03806 0.0040609 0)
(1.03799 0.00927049 0)
(1.04172 0.0135453 0)
(1.04886 0.0168944 0)
(1.05981 0.0195795 0)
(1.07601 0.0218812 0)
(1.09757 0.0238587 0)
(1.08246 0.0232283 0)
(0.899801 0.0150469 0)
(0.516949 0.0044629 0)
(0.103194 0.000254083 0)
(0.105704 -0.000128953 0)
(0.716065 -0.00598603 0)
(1.01632 -0.0140323 0)
(1.10871 -0.0169618 0)
(1.09869 -0.0151178 0)
(1.07839 -0.0120109 0)
(1.06399 -0.00844184 0)
(1.05372 -0.00434816 0)
(1.04646 0.000285488 0)
(1.04215 0.00543803 0)
(1.04174 0.0103384 0)
(1.04519 0.0142623 0)
(1.05215 0.0172556 0)
(1.06308 0.0196061 0)
(1.07947 0.0216497 0)
(1.09902 0.0232429 0)
(1.0716 0.0219059 0)
(0.869065 0.0134621 0)
(0.491649 0.00394445 0)
(0.0976883 0.000229704 0)
(0.102759 -9.28736e-05 0)
(0.695186 -0.00475399 0)
(1.00024 -0.0117502 0)
(1.10846 -0.0148304 0)
(1.10389 -0.0131971 0)
(1.08349 -0.0100725 0)
(1.06878 -0.00649199 0)
(1.05825 -0.00241766 0)
(1.05071 0.00212902 0)
(1.04603 0.00709523 0)
(1.04521 0.0117068 0)
(1.04832 0.0152962 0)
(1.05507 0.0179569 0)
(1.06595 0.0199853 0)
(1.08248 0.0217648 0)
(1.09954 0.0229457 0)
(1.05904 0.0209122 0)
(0.839929 0.0123153 0)
(0.469031 0.00359418 0)
(0.0927171 0.000214779 0)
(0.10059 -5.97291e-05 0)
(0.678075 -0.00367313 0)
(0.985578 -0.00961831 0)
(1.1077 -0.0126471 0)
(1.10887 -0.0111458 0)
(1.08864 -0.00798238 0)
(1.07359 -0.00434342 0)
(1.06275 -0.000245353 0)
(1.05485 0.00426591 0)
(1.0497 0.00909929 0)
(1.04839 0.0134607 0)
(1.0511 0.0167203 0)
(1.0576 0.0190334 0)
(1.06842 0.0207178 0)
(1.085 0.0222159 0)
(1.09907 0.023038 0)
(1.045 0.0202542 0)
(0.812106 0.0115334 0)
(0.44827 0.00337396 0)
(0.0880837 0.000207338 0)
(0.0991332 -2.72634e-05 0)
(0.664437 -0.00267422 0)
(0.972706 -0.00756116 0)
(1.10676 -0.0103618 0)
(1.11379 -0.0089096 0)
(1.09392 -0.00566561 0)
(1.07847 -0.00190844 0)
(1.06726 0.00227725 0)
(1.05893 0.00680661 0)
(1.05323 0.0115307 0)
(1.05132 0.0156359 0)
(1.05353 0.0185657 0)
(1.05973 0.0205225 0)
(1.07046 0.0218474 0)
(1.08707 0.0230738 0)
(1.09743 0.0234582 0)
(1.02956 0.0199156 0)
(0.785217 0.0110591 0)
(0.428701 0.00325797 0)
(0.0836298 0.000206053 0)
(0.0983745 6.49846e-06 0)
(0.654123 -0.00170091 0)
(0.961925 -0.00550192 0)
(1.10595 -0.00790961 0)
(1.11874 -0.00643111 0)
(1.09939 -0.00306556 0)
(1.08352 0.000877207 0)
(1.07187 0.00522251 0)
(1.06298 0.00982541 0)
(1.05659 0.0144843 0)
(1.05395 0.0183522 0)
(1.05559 0.0209341 0)
(1.06143 0.0225182 0)
(1.07205 0.0234488 0)
(1.0886 0.0243705 0)
(1.09455 0.0242656 0)
(1.01275 0.019914 0)
(0.758857 0.0108584 0)
(0.409785 0.0032311 0)
(0.0792289 0.000210271 0)
(0.0983373 3.95855e-05 0)
(0.647113 -0.000703988 0)
(0.953549 -0.00336757 0)
(1.1056 -0.00520974 0)
(1.12387 -0.00358646 0)
(1.10514 -2.84501e-05 0)
(1.08883 0.00415538 0)
(1.07665 0.00870627 0)
(1.0671 0.0134388 0)
(1.05989 0.0180751 0)
(1.05637 0.0217141 0)
(1.05728 0.0239291 0)
(1.06266 0.0250879 0)
(1.07316 0.0255916 0)
(1.08938 0.0261435 0)
(1.0902 0.0254949 0)
(0.994482 0.020279 0)
(0.73257 0.0109181 0)
(0.391032 0.00328681 0)
(0.0747637 0.000219665 0)
(0.099057 7.82331e-05 0)
(0.643496 0.000329722 0)
(0.9479 -0.00108216 0)
(1.1061 -0.00219271 0)
(1.12942 -0.000307642 0)
(1.1113 0.00352664 0)
(1.09447 0.00803073 0)
(1.08165 0.0128729 0)
(1.07131 0.0178066 0)
(1.06307 0.0224448 0)
(1.0585 0.0258316 0)
(1.05855 0.0276405 0)
(1.06339 0.0283494 0)
(1.07373 0.028401 0)
(1.0893 0.0285224 0)
(1.08431 0.0271857 0)
(0.974579 0.0210268 0)
(0.705862 0.0112235 0)
(0.371985 0.00341813 0)
(0.070127 0.000233586 0)
(0.100744 0.000139024 0)
(0.643673 0.00149163 0)
(0.945339 0.0014377 0)
(1.10782 0.00124406 0)
(1.13552 0.00352427 0)
(1.11797 0.00772688 0)
(1.10055 0.0126496 0)
(1.08696 0.0178759 0)
(1.07562 0.0230696 0)
(1.06614 0.0277586 0)
(1.06028 0.0309143 0)
(1.05933 0.0322494 0)
(1.06352 0.0324355 0)
(1.07365 0.0319891 0)
(1.08812 0.0316005 0)
(1.07661 0.0294056 0)
(0.952773 0.0221925 0)
(0.678215 0.011777 0)
(0.352214 0.00362298 0)
(0.0652215 0.000251792 0)
(0.103441 0.000198681 0)
(0.647938 0.00289146 0)
(0.946321 0.00434069 0)
(1.11129 0.00526119 0)
(1.1424 0.00809088 0)
(1.1253 0.0128058 0)
(1.1072 0.0182535 0)
(1.09265 0.023951 0)
(1.08007 0.0294749 0)
(1.06907 0.0342178 0)
(1.06166 0.0370767 0)
(1.05953 0.0378722 0)
(1.06298 0.0374716 0)
(1.07283 0.0364535 0)
(1.08568 0.035472 0)
(1.0668 0.0322523 0)
(0.928686 0.0238205 0)
(0.649056 0.0125829 0)
(0.331285 0.00389961 0)
(0.0599535 0.000273939 0)
(0.107444 0.00028029 0)
(0.65694 0.00457594 0)
(0.951245 0.00770337 0)
(1.11702 0.0100039 0)
(1.15039 0.0135731 0)
(1.13351 0.0189698 0)
(1.11458 0.025074 0)
(1.09886 0.0313616 0)
(1.08478 0.0372869 0)
(1.07191 0.0420672 0)
(1.06266 0.044538 0)
(1.05914 0.0446964 0)
(1.06165 0.0436223 0)
(1.07117 0.0419388 0)
(1.08191 0.0403071 0)
(1.05454 0.0358255 0)
(0.901826 0.0259481 0)
(0.617763 0.0136432 0)
(0.308771 0.00424336 0)
(0.0542396 0.00029905 0)
(0.113083 0.000388586 0)
(0.671315 0.00666184 0)
(0.960982 0.0118317 0)
(1.12554 0.0156969 0)
(1.1598 0.0202125 0)
(1.14284 0.0265071 0)
(1.12285 0.0334402 0)
(1.10566 0.0404451 0)
(1.08968 0.0468187 0)
(1.07456 0.0516105 0)
(1.06312 0.0535605 0)
(1.05796 0.0529423 0)
(1.05938 0.0510675 0)
(1.06853 0.0486274 0)
(1.07662 0.0462134 0)
(1.03935 0.0402152 0)
(0.871608 0.0286166 0)
(0.58367 0.0149553 0)
(0.284256 0.00464471 0)
(0.0480144 0.0003256 0)
(0.120861 0.00054266 0)
(0.692085 0.00939696 0)
(0.976309 0.0169893 0)
(1.13753 0.0226991 0)
(1.17108 0.0284552 0)
(1.15358 0.0359363 0)
(1.13221 0.0438735 0)
(1.11309 0.0516834 0)
(1.09471 0.0585004 0)
(1.07684 0.0631836 0)
(1.06284 0.0644228 0)
(1.0558 0.0628059 0)
(1.05606 0.0599882 0)
(1.06473 0.0566925 0)
(1.06953 0.0533181 0)
(1.02065 0.0455316 0)
(0.837309 0.0318491 0)
(0.54607 0.0164974 0)
(0.257366 0.00508531 0)
(0.0412407 0.000351355 0)
(0.131553 0.00076715 0)
(0.720605 0.0131589 0)
(0.998366 0.0236414 0)
(1.15378 0.0315378 0)
(1.18487 0.0388718 0)
(1.16607 0.0479045 0)
(1.14279 0.0570262 0)
(1.12116 0.0657075 0)
(1.0998 0.0728682 0)
(1.07864 0.0771442 0)
(1.06171 0.0773252 0)
(1.05257 0.0744794 0)
(1.05154 0.0705581 0)
(1.05956 0.0662116 0)
(1.06016 0.061679 0)
(0.99772 0.0518214 0)
(0.798118 0.035628 0)
(0.504269 0.0182115 0)
(0.227838 0.0055296 0)
(0.0339326 0.000372406 0)
(0.146402 0.00111975 0)
(0.758818 0.0185538 0)
(1.02877 0.0325411 0)
(1.17521 0.0431076 0)
(1.20191 0.0524254 0)
(1.18068 0.0633715 0)
(1.1547 0.0738101 0)
(1.12977 0.0832516 0)
(1.1047 0.0904275 0)
(1.07969 0.0938889 0)
(1.05947 0.0925906 0)
(1.04805 0.0881635 0)
(1.04566 0.0829256 0)
(1.05269 0.0773889 0)
(1.04788 0.0715349 0)
(0.969624 0.0591189 0)
(0.753142 0.0398983 0)
(0.457671 0.0200008 0)
(0.195617 0.00592329 0)
(0.026189 0.000383306 0)
(0.167537 0.00172826 0)
(0.809866 0.0267178 0)
(1.07006 0.0452174 0)
(1.2029 0.0592365 0)
(1.22287 0.0713057 0)
(1.19746 0.0840288 0)
(1.16762 0.0956112 0)
(1.13836 0.105346 0)
(1.10877 0.111879 0)
(1.0794 0.113777 0)
(1.05569 0.11037 0)
(1.04194 0.103992 0)
(1.03816 0.0972301 0)
(1.0438 0.0905919 0)
(1.03199 0.0828635 0)
(0.935221 0.0673528 0)
(0.701507 0.0445053 0)
(0.406007 0.0217119 0)
(0.161059 0.00619052 0)
(0.018239 0.000376768 0)
(0.198263 0.00306538 0)
(0.879361 0.0402387 0)
(1.12575 0.0654159 0)
(1.23731 0.0835281 0)
(1.24749 0.0982798 0)
(1.21584 0.11226 0)
(1.18079 0.124049 0)
(1.14627 0.132945 0)
(1.11162 0.137724 0)
(1.07756 0.137067 0)
(1.05023 0.130845 0)
(1.03413 0.122074 0)
(1.02902 0.11352 0)
(1.03282 0.10564 0)
(1.0116 0.0956103 0)
(0.893141 0.0762424 0)
(0.642656 0.049134 0)
(0.349983 0.0231748 0)
(0.125435 0.00627086 0)
(0.0105568 0.000343205 0)
(0.240225 0.00916923 4.68832e-20)
(0.971205 0.0669494 4.09136e-20)
(1.19354 0.0995997 -1.42862e-20)
(1.2753 0.119601 0)
(1.27298 0.136884 -3.62934e-34)
(1.23366 0.150337 5.30322e-21)
(1.19262 0.160591 -9.54352e-21)
(1.15229 0.167267 0)
(1.11214 0.169254 1.95602e-34)
(1.07301 0.165274 -1.17727e-20)
(1.0418 0.155712 0)
(1.02315 0.14433 -1.39492e-20)
(1.01662 0.134005 -4.11219e-20)
(1.01833 0.12504 -1.94278e-20)
(0.983988 0.11274 -5.84099e-21)
(0.838724 0.0880688 -3.46954e-21)
(0.570886 0.0547594 0)
(0.28745 0.0248548 2.42855e-21)
(0.0892379 0.00662326 2.86763e-21)
(0.00341021 0.000342285 5.16263e-20)
(0.269344 0.0240737 3.45389e-20)
(1.04718 0.109137 5.25186e-22)
(1.24934 0.148328 3.81525e-21)
(1.30934 0.168254 0)
(1.29526 0.185802 -1.84703e-20)
(1.24879 0.197139 -2.09712e-20)
(1.20177 0.205124 -9.64562e-21)
(1.15553 0.209334 -3.43154e-20)
(1.10958 0.208558 0)
(1.06486 0.201352 5.02192e-20)
(1.02894 0.188523 4.97699e-20)
(1.00709 0.17454 1.47906e-20)
(0.998198 0.162177 5.38605e-20)
(0.993908 0.150782 7.56107e-20)
(0.941949 0.134569 0)
(0.76683 0.102866 1.06525e-19)
(0.487272 0.0621642 1.52873e-19)
(0.221601 0.0270028 1.69821e-19)
(0.0542187 0.00642019 -1.94199e-19)
(-0.00335494 -0.000184565 -3.64842e-21)
(0.270871 0.0406135 0)
(1.09552 0.163784 6.07463e-21)
(1.28701 0.207953 0)
(1.33577 0.227662 -2.40875e-20)
(1.31262 0.242523 0)
(1.26016 0.250035 -4.12811e-20)
(1.20751 0.254369 1.97425e-20)
(1.15561 0.25506 -6.91814e-20)
(1.10408 0.250729 -1.5779e-21)
(1.05394 0.239732 2.6042e-20)
(1.01353 0.223339 1.09671e-19)
(0.988579 0.206715 -2.76213e-22)
(0.977233 0.192398 -3.91979e-20)
(0.967392 0.178562 -7.14433e-20)
(0.903861 0.15779 8.45442e-20)
(0.716573 0.118569 -1.4974e-19)
(0.441204 0.0700998 -1.98116e-20)
(0.192532 0.0296845 0)
(0.0407083 0.0061979 -7.35528e-24)
(-0.0059908 -0.000809274 0)
(0.26473 0.0545868 7.92509e-20)
(1.1218 0.222166 -3.87636e-20)
(1.31034 0.272221 -2.9795e-20)
(1.35314 0.292427 1.13788e-20)
(1.32364 0.303658 -1.91636e-20)
(1.2667 0.306741 8.66727e-20)
(1.20938 0.306765 4.12963e-20)
(1.15254 0.303316 0)
(1.09599 0.294894 -1.30787e-19)
(1.0409 0.279786 0)
(0.996293 0.259735 -5.76875e-20)
(0.968275 0.24034 -7.11731e-20)
(0.954387 0.223913 -4.2787e-20)
(0.940182 0.207497 -5.19898e-20)
(0.871229 0.182406 0)
(0.683541 0.13668 0)
(0.419568 0.0811302 -1.29167e-19)
(0.185319 0.0350453 2.55738e-20)
(0.0390402 0.00702945 -1.49564e-20)
(-0.00670169 -0.00132682 -1.74982e-20)
(0.257506 0.0669423 -3.11684e-20)
(1.13363 0.280572 0)
(1.32326 0.337601 6.05966e-20)
(1.36247 0.35873 3.2009e-20)
(1.32848 0.366314 4.445e-20)
(1.26825 0.364994 0)
(1.20727 0.360607 4.04597e-20)
(1.14636 0.352851 7.68056e-20)
(1.08549 0.34016 6.70816e-20)
(1.02596 0.320786 1.2314e-19)
(0.977423 0.296855 0)
(0.946402 0.274485 -1.53809e-19)
(0.929989 0.255897 -9.26617e-20)
(0.912568 0.237339 -5.47841e-20)
(0.842223 0.208183 3.36404e-19)
(0.660973 0.157176 4.00405e-20)
(0.411968 0.0956384 1.87991e-19)
(0.189941 0.0429503 -8.90421e-19)
(0.0448359 0.00964578 5.27296e-19)
(-0.00549519 -0.00140757 -6.35449e-19)
(0.250695 0.0781162 -1.41193e-20)
(1.13637 0.337141 5.6301e-21)
(1.32871 0.402239 -6.43885e-21)
(1.36541 0.424631 -3.21366e-20)
(1.3281 0.428746 -3.73768e-20)
(1.26537 0.423202 1.79994e-21)
(1.2015 0.41456 -4.38857e-20)
(1.13725 0.4026 7.9553e-20)
(1.07269 0.385703 -1.44556e-19)
(1.00918 0.362008 0)
(0.957006 0.334137 -6.97097e-20)
(0.92319 0.308956 -1.6271e-21)
(0.904494 0.288454 -1.01521e-19)
(0.884409 0.267852 0)
(0.814702 0.235072 -7.3055e-20)
(0.643153 0.179583 -1.73548e-19)
(0.410605 0.112265 4.63737e-19)
(0.198994 0.0533707 -4.55937e-19)
(0.0544471 0.01419 6.48342e-19)
(-0.00293739 -0.000951811 -6.73621e-19)
(0.245079 0.0885122 -5.05606e-22)
(1.13353 0.391212 -1.60935e-21)
(1.3288 0.465105 -1.70868e-20)
(1.36339 0.488961 1.26824e-20)
(1.32356 0.489914 -1.87933e-20)
(1.25891 0.480414 0)
(1.19271 0.467773 -4.08123e-20)
(1.12565 0.451837 -8.33478e-20)
(1.05791 0.430896 -7.51745e-20)
(0.99084 0.403 0)
(0.935352 0.371444 -7.24282e-20)
(0.899028 0.343772 -8.97488e-20)
(0.87813 0.321427 1.10264e-19)
(0.855789 0.298609 -6.70083e-20)
(0.787208 0.262918 -3.19608e-19)
(0.626565 0.20327 1.90274e-19)
(0.409925 0.130237 5.68259e-20)
(0.208818 0.0652551 0)
(0.0647107 0.0200558 -6.28418e-19)
(3.49214e-05 -9.26704e-05 -2.30593e-20)
(0.240763 0.0984556 1.24019e-21)
(1.12734 0.442625 -1.08255e-21)
(1.32498 0.525638 7.77551e-21)
(1.35761 0.551024 4.56007e-20)
(1.31579 0.549164 -6.88481e-20)
(1.24966 0.536048 8.21752e-20)
(1.18158 0.519731 8.79369e-20)
(1.11213 0.5001 -1.33211e-19)
(1.04155 0.47533 4.64582e-20)
(0.971278 0.443466 -3.03395e-19)
(0.912832 0.40848 -8.19655e-20)
(0.874202 0.378253 0)
(0.851172 0.353757 1.1967e-19)
(0.827036 0.328909 1.43528e-19)
(0.759771 0.290498 1.72058e-19)
(0.609071 0.227111 -2.07004e-19)
(0.40685 0.148836 -6.13446e-20)
(0.215669 0.0780496 7.20676e-20)
(0.0733921 0.0265251 0)
(0.00283462 0.00100763 -5.01154e-20)
(0.23761 0.108041 -3.63475e-20)
(1.11941 0.491426 1.62976e-20)
(1.31857 0.584054 -6.53134e-21)
(1.34904 0.610466 2.71577e-20)
(1.30558 0.606095 -3.0646e-20)
(1.23832 0.58972 -4.09319e-21)
(1.16868 0.570098 -9.61103e-20)
(1.09717 0.54709 -4.82091e-20)
(1.02404 0.51874 -1.30711e-19)
(0.950861 0.483134 2.8925e-22)
(0.889706 0.444758 -2.56687e-19)
(0.848886 0.411628 2.16707e-19)
(0.823976 0.384891 -1.31546e-19)
(0.798495 0.358308 1.58318e-19)
(0.732293 0.31707 0)
(0.590211 0.249478 -1.12455e-19)
(0.400576 0.16681 -1.42228e-22)
(0.218485 0.0903853 -3.14357e-19)
(0.0791451 0.0327024 -4.61913e-20)
(0.00500512 0.00209825 0)
(0.235519 0.117476 0)
(1.11065 0.537825 2.11739e-20)
(1.31016 0.639806 -2.34765e-21)
(1.33844 0.667104 -2.42156e-20)
(1.2936 0.660487 -3.93261e-20)
(1.22547 0.641217 0)
(1.15454 0.618651 -4.34716e-20)
(1.08121 0.59258 -1.11584e-21)
(1.00577 0.560944 2.80083e-19)
(0.929873 0.521797 -4.16593e-20)
(0.866082 0.479899 -1.85355e-19)
(0.823198 0.443735 1.1267e-19)
(0.796777 0.415005 -2.18946e-21)
(0.770074 0.386813 1.68272e-19)
(0.704146 0.342056 1.04052e-19)
(0.569485 0.270112 -2.429e-19)
(0.390938 0.183343 2.87788e-19)
(0.216805 0.101195 8.51543e-20)
(0.0812305 0.0378074 3.51451e-19)
(0.00631484 0.00297769 -9.38676e-19)
(0.234383 0.126902 -1.64062e-20)
(1.10171 0.581999 1.95227e-20)
(1.30042 0.692806 -1.11686e-20)
(1.32644 0.720895 1.75541e-20)
(1.28041 0.71224 0)
(1.21159 0.690409 -3.71745e-20)
(1.13957 0.665246 1.46058e-19)
(1.06463 0.636421 1.05483e-19)
(0.987048 0.601801 0)
(0.908535 0.559313 -5.99893e-19)
(0.842109 0.513848 5.01188e-19)
(0.7973 0.474863 0)
(0.769658 0.444437 1.5363e-19)
(0.74153 0.414142 -2.20176e-21)
(0.675215 0.365072 -3.32232e-19)
(0.54681 0.288594 1.30138e-19)
(0.37799 0.197478 0)
(0.211103 0.109645 4.59223e-19)
(0.079973 0.04122 0)
(0.00674673 0.00348995 -4.43902e-19)
(0.23402 0.136331 2.09294e-20)
(1.09294 0.624098 2.90211e-20)
(1.28978 0.743063 -1.01995e-20)
(1.31354 0.771824 0)
(1.26644 0.761335 -3.22981e-20)
(1.19708 0.737248 0)
(1.12413 0.709791 -1.43648e-19)
(1.04773 0.67852 -4.88094e-20)
(0.968158 0.641234 4.92891e-20)
(0.887068 0.595628 -2.9667e-19)
(0.817976 0.546769 5.17234e-20)
(0.771341 0.505302 0)
(0.742514 0.473064 -3.27914e-19)
(0.712552 0.439608 2.19418e-21)
(0.645523 0.385425 0)
(0.522305 0.304406 1.66598e-21)
(0.361832 0.208582 4.1949e-19)
(0.201668 0.115276 -3.96619e-19)
(0.075969 0.0427291 1.16832e-19)
(0.00635521 0.00357261 0)
(0.234073 0.145648 0)
(1.08455 0.664133 3.74539e-20)
(1.27864 0.790665 2.04187e-20)
(1.3001 0.81995 -2.46171e-21)
(1.25205 0.807795 -1.00327e-20)
(1.18226 0.781721 -8.29278e-20)
(1.1085 0.752251 5.38429e-20)
(1.03079 0.718831 -5.76657e-20)
(0.949339 0.679201 2.19984e-19)
(0.865667 0.630758 -4.73703e-19)
(0.793867 0.578843 -3.74429e-21)
(0.745394 0.535094 -1.43505e-19)
(0.715149 0.500432 5.3192e-19)
(0.682971 0.462626 -2.5619e-21)
(0.61529 0.402989 -2.57449e-19)
(0.496435 0.317458 -4.5959e-19)
(0.342932 0.216651 0)
(0.188964 0.118015 0)
(0.0697118 0.0426218 1.26085e-19)
(0.0055171 0.00334594 -7.39819e-20)
(0.234696 0.154962 3.22776e-20)
(1.07667 0.702138 -8.80013e-20)
(1.26725 0.8357 -2.2195e-20)
(1.28642 0.865342 0)
(1.23751 0.851667 -1.59585e-21)
(1.16739 0.823846 -7.47537e-20)
(1.09293 0.792621 1.29277e-19)
(1.01403 0.75734 2.26344e-19)
(0.930788 0.715696 2.8546e-19)
(0.844534 0.664753 -3.86556e-19)
(0.769969 0.610192 -4.30015e-19)
(0.719473 0.564086 3.8367e-19)
(0.687424 0.526065 0)
(0.652844 0.482988 -1.16845e-19)
(0.584759 0.417963 -2.7838e-19)
(0.469487 0.327767 -3.29912e-19)
(0.32159 0.221404 -3.90813e-19)
(0.173518 0.117791 1.15486e-19)
(0.0615217 0.0407293 -6.79215e-20)
(0.00428852 0.0028037 2.6539e-22)
(0.235555 0.164093 0)
(1.06934 0.738497 0)
(1.2558 0.878246 2.64758e-21)
(1.27271 0.908087 0)
(1.22305 0.89303 1.91239e-20)
(1.15266 0.863673 4.96342e-20)
(1.0776 0.830921 0)
(0.997624 0.794058 2.67168e-20)
(0.912682 0.750718 4.75448e-19)
(0.823857 0.697666 -8.8822e-19)
(0.746426 0.64085 0)
(0.693586 0.592085 -2.4672e-19)
(0.659277 0.549716 -3.04636e-21)
(0.622308 0.500815 -2.41451e-21)
(0.554124 0.430499 2.97307e-19)
(0.441675 0.335088 -2.65578e-22)
(0.298024 0.222643 -8.40862e-19)
(0.155997 0.114562 2.48253e-19)
(0.0523558 0.0373329 7.33548e-20)
(0.00287392 0.00203916 0)
(0.236439 0.173085 -1.3662e-19)
(1.06233 0.773191 -6.37213e-20)
(1.24436 0.91836 -7.65928e-20)
(1.25915 0.948277 5.45981e-20)
(1.20882 0.931952 1.75344e-20)
(1.13823 0.901259 0)
(1.06267 0.867196 7.71698e-20)
(0.98172 0.829012 -5.9494e-20)
(0.89516 0.784284 3.91418e-21)
(0.803804 0.729542 6.54057e-20)
(0.72336 0.670798 5.55951e-19)
(0.667748 0.618987 -8.65052e-20)
(0.63071 0.571465 -3.27423e-19)
(0.591438 0.51636 -1.35925e-19)
(0.523376 0.440457 1.61518e-19)
(0.413213 0.339035 -7.78984e-23)
(0.273241 0.220247 2.26364e-19)
(0.1376 0.108672 -5.33694e-19)
(0.0429677 0.0328612 6.30755e-19)
(0.00143755 0.00114461 9.1978e-20)
(0.237099 0.181837 5.30712e-20)
(1.05564 0.806304 -3.67655e-20)
(1.23308 0.956151 6.3649e-21)
(1.24586 0.986034 4.16547e-20)
(1.19495 0.968541 3.22003e-21)
(1.12421 0.936671 -8.47548e-20)
(1.04824 0.901493 2.19953e-20)
(0.966428 0.862226 -2.47389e-19)
(0.878348 0.816396 -5.22149e-19)
(0.784508 0.760381 -5.28302e-19)
(0.700891 0.699995 0)
(0.642012 0.644829 -3.79559e-19)
(0.60175 0.59164 4.71596e-19)
(0.560114 0.529892 0)
(0.492256 0.44752 -3.45635e-19)
(0.38431 0.339114 2.06164e-19)
(0.248239 0.214039 -2.43103e-19)
(0.119653 0.100574 -2.86945e-19)
(0.0341744 0.0278213 -5.07694e-19)
(0.000129566 0.0002345 -3.95799e-19)
(0.238079 0.190435 -6.10913e-20)
(1.04914 0.837811 3.93561e-20)
(1.22202 0.99168 8.83574e-20)
(1.23292 1.02144 6.48934e-20)
(1.18152 1.00289 -3.11287e-21)
(1.11069 0.969994 -4.36004e-20)
(1.0344 0.933868 7.34649e-20)
(0.95183 0.893742 -2.53196e-19)
(0.862327 0.847074 -3.08571e-19)
(0.766087 0.790187 5.51816e-19)
(0.679121 0.728413 1.21919e-18)
(0.61647 0.669756 0)
(0.572439 0.610709 0)
(0.528047 0.541751 -1.56406e-19)
(0.460216 0.451338 0)
(0.354947 0.334398 4.43174e-19)
(0.224242 0.203308 5.22549e-19)
(0.10413 0.0904118 0)
(0.0272013 0.022713 0)
(-0.000924506 -0.00058821 4.2501e-19)
(0.238689 0.198543 7.08037e-20)
(1.04284 0.867697 5.7055e-20)
(1.21125 1.02506 6.48856e-20)
(1.2204 1.05463 -6.7654e-20)
(1.16859 1.03509 -1.10446e-20)
(1.09773 1.0013 4.18089e-20)
(1.02121 0.964381 -1.00023e-19)
(0.937984 0.923588 -2.78835e-23)
(0.847172 0.876321 -5.09007e-21)
(0.748626 0.818933 -5.26256e-21)
(0.658174 0.756043 6.27486e-19)
(0.591255 0.693965 0)
(0.542869 0.629175 4.7667e-19)
(0.494886 0.552405 3.33379e-19)
(0.426334 0.451814 8.05464e-19)
(0.324411 0.323556 2.38443e-19)
(0.202474 0.185763 -2.81213e-19)
(0.0950462 0.0758452 -1.65143e-19)
(0.0269801 0.0164848 0)
(-0.000544717 -0.00107476 4.56306e-19)
(0.239613 0.206655 -1.62308e-19)
(1.03672 0.896106 0)
(1.20076 1.05633 7.92223e-20)
(1.20831 1.08568 -5.94988e-20)
(1.15621 1.06525 2.37699e-20)
(1.08536 1.03068 -3.92028e-20)
(1.00871 0.99309 1.90896e-19)
(0.924925 0.951796 -2.10688e-20)
(0.832923 0.904146 0)
(0.73219 0.846566 -6.0697e-19)
(0.638174 0.782886 -1.3621e-18)
(0.566545 0.71768 5.58434e-20)
(0.513201 0.647477 6.56413e-19)
(0.460389 0.562466 0)
(0.389421 0.44955 5.431e-19)
(0.290383 0.305715 0)
(0.181203 0.156357 0)
(0.0973336 0.0431534 -1.78573e-19)
(0.0574392 -0.00494421 0)
(0.0270932 0.00703987 1.22175e-19)
(0.240079 0.214164 -1.83815e-19)
(1.03075 0.923241 0)
(1.19054 1.0857 1.34157e-19)
(1.19661 1.11483 0)
(1.14434 1.09363 -1.73003e-20)
(1.07352 1.05842 0)
(0.996837 1.02031 8.95373e-21)
(0.912558 0.978708 3.44486e-20)
(0.81946 0.930918 3.84834e-20)
(0.716609 0.87346 -6.64552e-19)
(0.618951 0.809412 4.07902e-20)
(0.542118 0.741617 4.49321e-19)
(0.48306 0.666392 6.39918e-19)
(0.423688 0.572731 8.63263e-20)
(0.34769 0.446245 4.25286e-19)
(0.24822 0.282147 0)
(0.149729 0.112011 5.9266e-19)
(0.0820999 -0.0046396 -3.47027e-19)
(0.0328717 0.0585963 4.01791e-19)
(-0.0382674 0.453589 -4.78926e-19)
(0.240473 0.221492 1.53674e-19)
(1.02472 0.94899 2.343e-19)
(1.18053 1.11349 0)
(1.18516 1.14252 5.35732e-21)
(1.1328 1.12082 5.63145e-20)
(1.06196 1.08521 2.86183e-20)
(0.985274 1.04685 6.40647e-20)
(0.900481 1.00528 0)
(0.806262 0.95775 2.53876e-19)
(0.701208 0.90093 -3.45553e-20)
(0.59959 0.837116 0)
(0.51674 0.767532 0)
(0.450661 0.687506 5.72322e-19)
(0.382558 0.584051 -2.66594e-19)
(0.298167 0.444071 -4.30195e-19)
(0.193872 0.256783 0)
(0.084377 0.115998 2.98323e-19)
(0.00769902 0.465697 -3.45479e-19)
(0.0323415 1.92057 -1.93633e-19)
(0.0589374 2.82176 -2.43922e-19)
(0.240474 0.228229 -1.17027e-19)
(1.01867 0.973523 -3.03723e-19)
(1.17074 1.13969 8.15491e-20)
(1.17397 1.16862 6.39005e-20)
(1.12164 1.1466 0)
(1.05076 1.11079 7.82071e-21)
(0.974232 1.0724 8.42118e-20)
(0.888877 1.03106 -1.64614e-20)
(0.793598 0.984117 3.7828e-20)
(0.686358 0.928341 6.31354e-19)
(0.580692 0.865321 6.85882e-19)
(0.491399 0.795251 5.01667e-19)
(0.41695 0.710814 5.74771e-19)
(0.338599 0.595398 -6.24478e-19)
(0.247443 0.446189 -6.48518e-19)
(0.125772 0.298788 0)
(0.042774 0.869253 0)
(0.0906363 2.57571 1.65706e-19)
(0.0929116 3.20871 0)
(0.0939408 3.38849 4.0292e-19)
(0.243192 0.234455 0)
(1.01285 0.997188 0)
(1.16088 1.16417 0)
(1.16281 1.19294 2.00567e-20)
(1.11057 1.17077 5.42101e-20)
(1.03972 1.135 -8.82579e-21)
(0.963634 1.09685 5.26381e-20)
(0.877678 1.05595 -1.59309e-20)
(0.781401 1.00984 3.14283e-19)
(0.67204 0.955516 -9.65173e-21)
(0.562337 0.893827 1.3522e-18)
(0.466513 0.824919 -5.78201e-20)
(0.381985 0.736961 6.96013e-20)
(0.294026 0.604671 9.02969e-20)
(0.186348 0.464304 -1.67982e-21)
(0.0975851 1.01019 1.67118e-21)
(0.129298 2.75567 -8.67028e-19)
(0.134108 3.30065 -3.26317e-19)
(0.123761 3.42468 1.70197e-19)
(0.112315 3.44463 -1.89782e-19)
(0.165322 0.179068 7.01802e-20)
(1.00321 1.02286 0)
(1.15084 1.18719 -1.69278e-19)
(1.15202 1.21579 -1.77172e-19)
(1.10005 1.19379 1.39685e-19)
(1.02949 1.15832 1.47926e-20)
(0.953346 1.12016 -5.21594e-20)
(0.866954 1.07991 1.7259e-19)
(0.769773 1.03498 -2.55972e-19)
(0.658457 0.982554 0)
(0.544797 0.922709 6.63386e-19)
(0.442666 0.856384 -4.08258e-19)
(0.34618 0.769005 0)
(0.242826 0.616426 8.42217e-20)
(0.139392 0.804664 2.04615e-19)
(0.143376 2.55519 -2.36428e-19)
(0.192825 3.33092 2.66763e-19)
(0.174389 3.43732 1.45511e-19)
(0.144043 3.45575 1.64769e-19)
(0.124248 3.46418 2.66817e-19)
(0.279017 0.273897 -1.33231e-19)
(0.986893 1.03415 0)
(1.13321 1.21367 1.86846e-19)
(1.13772 1.24901 2.02576e-19)
(1.08332 1.2278 -1.63208e-19)
(1.01227 1.19277 -4.05822e-20)
(0.935039 1.15617 4.00196e-20)
(0.848121 1.11727 1.3517e-20)
(0.749627 1.07458 2.41369e-19)
(0.635538 1.02594 5.39983e-19)
(0.516237 0.970732 3.723e-20)
(0.403396 0.909596 3.61036e-19)
(0.282419 0.818486 6.46764e-20)
(0.207438 0.979404 -8.24863e-20)
(0.213478 2.42733 -1.86893e-19)
(0.264192 3.33786 1.83357e-19)
(0.247331 3.46563 -2.0636e-19)
(0.212645 3.48342 -1.2039e-19)
(0.178635 3.50708 -1.06861e-19)
(0.133733 3.50065 -1.25513e-20)
(0.269497 0.273047 0)
(0.984636 1.05771 5.56528e-20)
(1.12513 1.23772 -3.90978e-20)
(1.12742 1.27289 -2.47084e-20)
(1.07275 1.25138 -1.16402e-19)
(1.00181 1.21657 4.50379e-20)
(0.9243 1.18027 -1.70111e-20)
(0.837176 1.14223 1.19363e-20)
(0.738164 1.10103 -2.49774e-19)
(0.622742 1.05502 -1.43993e-20)
(0.500439 1.0036 -1.19261e-18)
(0.382367 0.946098 5.14417e-20)
(0.272577 0.894093 -6.09817e-20)
(0.241869 1.56781 -7.61954e-20)
(0.302832 3.14589 1.75088e-20)
(0.317245 3.46946 1.76835e-21)
(0.275404 3.51581 3.10162e-19)
(0.241268 3.53733 1.5806e-19)
(0.195624 3.55637 -5.12307e-20)
(0.145863 3.55171 -6.34884e-20)
(0.255438 0.271211 1.42964e-19)
(0.981501 1.08391 3.81238e-19)
(1.11667 1.2639 -1.12643e-19)
(1.11667 1.29832 -9.36315e-20)
(1.06178 1.27647 0)
(0.991005 1.24169 9.64753e-20)
(0.913462 1.20571 -8.75959e-21)
(0.826381 1.16847 1.02421e-20)
(0.727151 1.12883 -2.78225e-20)
(0.610885 1.08559 -4.83171e-19)
(0.486449 1.03847 -5.4786e-19)
(0.363703 0.984927 -4.1996e-19)
(0.273714 1.03809 -4.60307e-19)
(0.304907 2.31138 4.72143e-19)
(0.38141 3.39777 3.99783e-19)
(0.355034 3.52736 0)
(0.306764 3.56192 0)
(0.269973 3.59418 -4.12907e-20)
(0.225389 3.63874 0)
(0.156484 3.62179 -6.34012e-20)
(0.245459 0.273272 -2.16227e-19)
(0.976393 1.11103 -3.26603e-19)
(1.10685 1.29139 0)
(1.10471 1.32465 6.46215e-21)
(1.04963 1.30224 -1.32303e-19)
(0.979148 1.26741 1.65604e-19)
(0.901889 1.23176 3.90768e-21)
(0.81507 1.19522 5.13172e-21)
(0.715868 1.15707 -1.72355e-19)
(0.599151 1.11653 2.39006e-20)
(0.473414 1.07387 0)
(0.349389 1.02977 0)
(0.299239 1.32479 -4.17018e-19)
(0.380925 2.9756 1.68061e-19)
(0.44531 3.4986 2.17021e-19)
(0.393022 3.56214 0)
(0.351241 3.61676 -2.42602e-20)