/*--------------------------------*- C++ -*----------------------------------*\
  =========                 |
  \\      /  F ield         | OpenFOAM: The Open Source CFD Toolbox
   \\    /   O peration     | Website:  https://openfoam.org
    \\  /    A nd           | Version:  6
     \\/     M anipulation  |
\*---------------------------------------------------------------------------*/
FoamFile
{
    version     2.0;
    format      ascii;
    class       surfaceScalarField;
    location    "47.2";
    object      phi;
}
// * * * * * * * * * * * * * * * * * * * * * * * * * * * * * * * * * * * * * //

dimensions      [0 3 -1 0 0 0 0];

internalField   nonuniform List<scalar> 
17370
(
-0.0900017
0.0898515
0.289161
-0.071466
0.0537569
0.364485
-0.0381246
0.0276959
0.426597
-0.0196439
0.0146102
0.504285
-0.0107671
0.00827609
0.601893
-0.00627691
0.00490259
0.720432
-0.0037426
0.00290552
0.863744
-0.00216659
0.00160861
1.03601
-0.00109283
0.000681439
1.24291
-0.000274964
-0.000113992
1.49158
0.000491438
-0.000897234
1.4916
0.0012916
-0.00178019
1.24318
0.00231147
-0.00302448
1.03635
0.00384495
-0.00499487
0.864056
0.00636441
-0.00835895
0.721052
0.0108441
-0.0146794
0.60305
0.0197062
-0.0277513
0.507484
0.0381742
-0.0537992
0.431793
0.0715006
-0.0898744
0.365149
0.090015
0.198996
-0.128131
0.0882171
0.0399144
-0.364594
0.353368
-0.0746845
0.0859105
-0.446474
0.454313
-0.0844127
0.0765731
-0.521187
0.529895
-0.0684787
0.0597709
-0.612784
0.621562
-0.0515845
0.042807
-0.72689
0.734155
-0.0353485
0.0280833
-0.867472
0.872578
-0.0224892
0.0173838
-1.03847
1.04191
-0.0135828
0.0101404
-1.2446
1.24702
-0.00753427
0.00510602
-1.49263
1.4946
-0.00316329
0.00119241
-1.4925
1.49422
0.000486567
-0.00220652
-1.24398
1.24586
0.00410681
-0.00598879
-1.03751
1.04005
0.0083464
-0.0108831
-0.866102
0.869842
0.01425
-0.0179895
-0.724395
0.729945
0.0230386
-0.0285893
-0.608702
0.616121
0.0358114
-0.0432302
-0.514902
0.523049
0.0519637
-0.0601108
-0.43986
0.447921
0.0687777
-0.0768394
-0.3753
0.376748
0.0846436
-0.0860915
-0.257336
0.222491
0.074808
-0.0399627
-0.0685049
0.0586737
0.00983115
-0.0518429
0.0584357
-0.374113
0.36752
-0.0575279
0.0537819
-0.453585
0.457331
-0.0486975
0.0447511
-0.527935
0.531881
-0.0409182
0.0372865
-0.62155
0.625182
-0.0331945
0.0291296
-0.735333
0.739398
-0.0245721
0.0204226
-0.874322
0.878472
-0.0160858
0.0123983
-1.04347
1.04716
-0.0086685
0.00550142
-1.24855
1.25172
-0.0021782
-0.000894339
-1.49665
1.49973
0.00394149
-0.00720257
-1.49721
1.50047
0.0102813
-0.0138923
-1.25008
1.25369
0.0174627
-0.0216701
-1.04594
1.05014
0.0257094
-0.03016
-0.877779
0.88223
0.0341395
-0.0381467
-0.739918
0.743925
0.041704
-0.0454576
-0.626791
0.630545
0.0493361
-0.0543556
-0.534825
0.539844
0.0580331
-0.058854
-0.457488
0.458309
0.052161
-0.0319736
-0.335774
0.315587
0.00988307
-0.0683626
0.0584795
-0.0529182
0.0489169
0.00400127
-0.0332
0.0437619
-0.358074
0.347512
-0.0474741
0.0468564
-0.459261
0.459879
-0.0438095
0.0404643
-0.535776
0.539121
-0.0367004
0.0334049
-0.628498
0.631793
-0.029978
0.0269581
-0.742615
0.745635
-0.0237143
0.0206212
-0.88198
0.885073
-0.0171056
0.0137389
-1.05073
1.0541
-0.00995895
0.0064306
-1.25514
1.25867
-0.00247274
-0.00131566
-1.50323
1.50702
0.00507447
-0.00894281
-1.50415
1.50801
0.0123503
-0.0159681
-1.25744
1.26106
0.0191724
-0.0225054
-1.05395
1.05729
0.0254396
-0.0285258
-0.885731
0.888817
0.0314179
-0.0347186
-0.747195
0.750496
0.0379059
-0.0415578
-0.634341
0.637993
0.0448069
-0.0477449
-0.544164
0.547102
0.0482493
-0.0443776
-0.456609
0.452737
0.0336257
-0.0161991
-0.296243
0.278816
0.00406518
-0.0526661
0.048601
-0.0458338
0.0433315
0.00250233
-0.0228538
0.0332568
-0.336803
0.3264
-0.0391014
0.0401349
-0.459552
0.458519
-0.0389612
0.0366875
-0.541832
0.544106
-0.0340354
0.0314547
-0.634832
0.637413
-0.0284103
0.0255289
-0.748665
0.751547
-0.0222832
0.0193039
-0.888011
0.89099
-0.0160123
0.0129246
-1.05722
1.0603
-0.00941273
0.00601784
-1.26211
1.26551
-0.00206975
-0.00180253
-1.51089
1.51476
0.00563546
-0.00946636
-1.51191
1.51574
0.0127037
-0.0160053
-1.26452
1.26782
0.0188811
-0.0219306
-1.06039
1.06344
0.0246951
-0.0277233
-0.891881
0.894909
0.0304275
-0.0332991
-0.753715
0.756586
0.0357346
-0.0382383
-0.641075
0.643578
0.0403834
-0.0413878
-0.548922
0.549926
0.0401793
-0.0340797
-0.447479
0.441379
0.0233989
-0.0102099
-0.263624
0.250435
0.00258111
-0.0454464
0.0428653
-0.0412501
0.0394755
0.00177462
-0.0168011
0.0260825
-0.316523
0.307241
-0.0327191
0.0348819
-0.456903
0.45474
-0.0344812
0.032827
-0.54607
0.547724
-0.0306633
0.0285837
-0.6397
0.641779
-0.0261705
0.0237913
-0.754172
0.756552
-0.0209557
0.0181898
-0.893863
0.896629
-0.0149826
0.011941
-1.06333
1.06637
-0.00847868
0.00517339
-1.26881
1.27211
-0.00135438
-0.00237264
-1.51855
1.52227
0.00605052
-0.00972208
-1.51949
1.52316
0.0128278
-0.0160235
-1.27107
1.27427
0.0187959
-0.0216943
-1.06648
1.06938
0.0241813
-0.0267301
-0.897746
0.900295
0.0288751
-0.031062
-0.759052
0.761239
0.0329547
-0.0349283
-0.645746
0.64772
0.0363981
-0.036572
-0.550463
0.550637
0.0341421
-0.0271341
-0.434747
0.427739
0.0174799
-0.00737344
-0.23894
0.228833
0.00187075
-0.0406969
0.0388261
-0.0379458
0.0366081
0.00133775
-0.0128479
0.0208293
-0.298617
0.290636
-0.0276194
0.0305735
-0.452158
0.449204
-0.0308053
0.0297078
-0.54914
0.550238
-0.0277342
0.0258382
-0.643798
0.645694
-0.0236649
0.0215548
-0.758766
0.760877
-0.0190701
0.0166125
-0.899169
0.901627
-0.0136961
0.0108399
-1.06927
1.07213
-0.00750369
0.00428793
-1.27534
1.27856
-0.000566158
-0.00304226
-1.52591
1.52952
0.00658983
-0.0101284
-1.52677
1.53031
0.0130984
-0.016105
-1.27741
1.28042
0.0186283
-0.0211621
-1.07211
1.07465
0.0232738
-0.0253999
-0.902606
0.904732
0.0272128
-0.0290953
-0.763248
0.76513
0.0307539
-0.0324973
-0.649563
0.651306
0.0333243
-0.0327729
-0.550458
0.549906
0.0294369
-0.0221398
-0.420532
0.413235
0.0136812
-0.00570037
-0.219893
0.211912
0.0014546
-0.0371906
0.035736
-0.0354385
0.034405
0.00103357
-0.0100577
0.0168123
-0.283296
0.276542
-0.023341
0.026752
-0.446006
0.442595
-0.027569
0.0268976
-0.551116
0.551787
-0.0251688
0.0234119
-0.64756
0.649316
-0.0213727
0.0193843
-0.762916
0.764904
-0.0170447
0.0147492
-0.903934
0.906229
-0.0120499
0.009404
-1.07481
1.07746
-0.00628719
0.00323302
-1.28165
1.28471
0.000355942
-0.00386046
-1.53305
1.53656
0.00728923
-0.0106499
-1.53376
1.53712
0.0133985
-0.0161088
-1.2833
1.28601
0.018345
-0.0205718
-1.07704
1.07926
0.0224364
-0.0243262
-0.906745
0.908635
0.0259405
-0.0276157
-0.766903
0.768578
0.0290794
-0.0304921
-0.652898
0.654311
0.030826
-0.0295621
-0.54901
0.547746
0.0256247
-0.01843
-0.405967
0.398772
0.0110775
-0.00458613
-0.204747
0.198256
0.00117578
-0.0344383
0.0332625
-0.0334963
0.0326882
0.000808147
-0.00799176
0.0136788
-0.270353
0.264666
-0.0197301
0.0233456
-0.439079
0.435463
-0.0246447
0.0242211
-0.552375
0.552799
-0.0227548
0.0211034
-0.651072
0.652724
-0.0191587
0.0172621
-0.766837
0.768733
-0.015027
0.012832
-0.908397
0.910593
-0.0102472
0.00771779
-1.07996
1.08249
-0.00474956
0.00185085
-1.28763
1.29053
0.00154107
-0.00484126
-1.53994
1.54324
0.00804936
-0.0111654
-1.54036
1.54348
0.0136922
-0.0161623
-1.28861
1.29108
0.0181889
-0.0201942
-1.08139
1.0834
0.0218601
-0.0235419
-0.910438
0.91212
0.0249783
-0.026474
-0.770165
0.771661
0.0277589
-0.0288152
-0.655526
0.656582
0.0287899
-0.0268777
-0.546164
0.544252
0.0225654
-0.0156644
-0.391721
0.38482
0.00923684
-0.00380941
-0.192348
0.186921
0.000980815
-0.0321979
0.0312171
-0.0319774
0.0313442
0.00063322
-0.00639746
0.0111726
-0.259466
0.254691
-0.0166402
0.0202658
-0.431848
0.428223
-0.0219048
0.0217268
-0.553143
0.553321
-0.0205189
0.0189464
-0.654383
0.655955
-0.0170766
0.0152391
-0.770584
0.772422
-0.0130644
0.0109239
-0.91268
0.914821
-0.00840515
0.00595028
-1.08491
1.08736
-0.00308632
0.000307531
-1.29331
1.29609
0.00292195
-0.00604031
-1.54641
1.54952
0.00904598
-0.0119381
-1.54647
1.54936
0.0142657
-0.0165279
-1.29348
1.29574
0.0183731
-0.0201875
-1.08534
1.08716
0.0216823
-0.0231763
-0.913729
0.915223
0.0244409
-0.0257441
-0.773067
0.77437
0.0268681
-0.0275114
-0.657411
0.658054
0.027126
-0.0246718
-0.542082
0.539627
0.0201399
-0.0136029
-0.378111
0.371574
0.00791583
-0.00325912
-0.181918
0.177261
0.000843357
-0.0303168
0.0294735
-0.0307901
0.0302989
0.000491166
-0.0051127
0.00910082
-0.250339
0.246351
-0.0139379
0.0174179
-0.424685
0.421204
-0.0192408
0.0192522
-0.553454
0.553442
-0.0182346
0.0166955
-0.657576
0.659116
-0.0148502
0.0130386
-0.774228
0.77604
-0.0109077
0.00882399
-0.916838
0.918922
-0.00638068
0.00400112
-1.08969
1.09207
-0.00122514
-0.00145907
-1.29876
1.30144
0.0045553
-0.00751228
-1.55253
1.55548
0.0103345
-0.0130209
-1.55214
1.55483
0.0151523
-0.0171858
-1.29791
1.29994
0.0188134
-0.0203901
-1.08888
1.09046
0.0216818
-0.0229869
-0.916649
0.917954
0.0241115
-0.0252787
-0.775624
0.776792
0.0262343
-0.0265421
-0.658503
0.658811
0.0257829
-0.0228937
-0.53697
0.534081
0.0182536
-0.0120806
-0.365241
0.359068
0.00696978
-0.00287147
-0.172919
0.168821
0.000747853
-0.02869
0.0279422
-0.029874
0.0295017
0.000372278
-0.00403906
0.00733576
-0.242733
0.239437
-0.0115326
0.0147664
-0.417865
0.414632
-0.0166679
0.0168575
-0.553408
0.553219
-0.0159412
0.0144942
-0.660696
0.662143
-0.0126613
0.0108451
-0.777833
0.779649
-0.00870182
0.0066077
-0.920898
0.922992
-0.00416359
0.0018036
-1.09433
1.09669
0.000919988
-0.00352228
-1.30401
1.30662
0.00649037
-0.00929026
-1.55831
1.56111
0.0119254
-0.0143989
-1.55739
1.55986
0.0163392
-0.0181752
-1.30191
1.30374
0.0196335
-0.0210316
-1.09199
1.09339
0.0221638
-0.0232972
-0.919201
0.920334
0.0242674
-0.0252537
-0.777893
0.778879
0.0259501
-0.0259611
-0.658971
0.658982
0.0248131
-0.0215387
-0.531009
0.527735
0.0168382
-0.0109831
-0.353083
0.347228
0.00630721
-0.00260685
-0.164954
0.161254
0.000684853
-0.0272383
0.0265535
-0.0291893
0.0289232
0.000266149
-0.0030969
0.00576859
-0.236474
0.233802
-0.00932286
0.0122208
-0.411588
0.40869
-0.0140767
0.0143643
-0.553048
0.552761
-0.0135158
0.0121358
-0.663642
0.665022
-0.010299
0.00845473
-0.781451
0.783295
-0.00627709
0.00416079
-0.924983
0.9271
-0.00170809
-0.000642765
-1.09893
1.10129
0.00333858
-0.00589789
-1.30911
1.31167
0.00879398
-0.0114929
-1.56381
1.56651
0.0139893
-0.0162789
-1.56222
1.56451
0.018026
-0.0196348
-1.30549
1.3071
0.0208867
-0.022069
-1.09474
1.09592
0.0230136
-0.02396
-0.921429
0.922376
0.0247775
-0.0255921
-0.779794
0.780609
0.0260254
-0.0257732
-0.658846
0.658594
0.0242014
-0.0205731
-0.524304
0.520676
0.0158318
-0.0102283
-0.341539
0.335935
0.00586547
-0.00243698
-0.157723
0.154295
0.000646672
-0.0259015
0.0252548
-0.0287144
0.0285492
0.000165162
-0.00222312
0.00430815
-0.231443
0.229358
-0.00721802
0.00971555
-0.406025
0.403527
-0.0114206
0.0117177
-0.552564
0.552267
-0.0108786
0.00950005
-0.666511
0.66789
-0.00761147
0.00571012
-0.785123
0.787024
-0.00347794
0.00132216
-0.929088
0.931244
0.00116472
-0.00353781
-1.10352
1.10589
0.00623918
-0.00877451
-1.31413
1.31667
0.0115927
-0.0141626
-1.56909
1.57166
0.0164891
-0.018578
-1.56668
1.56877
0.0201361
-0.0215282
-1.30863
1.31002
0.0225695
-0.0235104
-1.09704
1.09798
0.0242411
-0.0249808
-0.923263
0.924003
0.0256434
-0.0263244
-0.781348
0.782029
0.0264797
-0.0259042
-0.658126
0.65755
0.0239413
-0.0199872
-0.516935
0.512981
0.0151923
-0.00975946
-0.330469
0.325037
0.00560357
-0.00234471
-0.150989
0.14773
0.000629339
-0.024633
0.0240037
-0.0284408
0.028378
6.28025e-05
-0.00136951
0.00288071
-0.227578
0.226067
-0.00512832
0.00716038
-0.401298
0.399266
-0.00862163
0.00887237
-0.552103
0.551852
-0.0080368
0.00666113
-0.669392
0.670768
-0.00470909
0.00271805
-0.788914
0.790905
-0.000366609
-0.00189888
-0.933296
0.935561
0.00449151
-0.00693516
-1.10816
1.1106
0.00967613
-0.012207
-1.31909
1.32163
0.0149706
-0.0174356
-1.5741
1.57657
0.0196023
-0.0214758
-1.57071
1.57258
0.0228205
-0.0239795
-1.31132
1.31248
0.0248213
-0.0255486
-1.09891
1.09964
0.0260742
-0.0265931
-0.924719
0.925238
0.0270699
-0.0275341
-0.782551
0.783015
0.0274001
-0.0264374
-0.65671
0.655747
0.0240517
-0.0197518
-0.508925
0.504625
0.0148703
-0.00952692
-0.319714
0.314371
0.00548684
-0.0023141
-0.144557
0.141385
0.000628272
-0.023393
0.0227648
-0.0283723
0.0284192
-4.68769e-05
-0.000483884
0.00141107
-0.224866
0.223939
-0.00296235
0.00445506
-0.397544
0.396052
-0.00555374
0.0056531
-0.55181
0.55171
-0.00474401
0.00330349
-0.672308
0.673749
-0.00125802
-0.000844506
-0.792875
0.794977
0.00332531
-0.00570348
-0.937707
0.940085
0.0084069
-0.0109351
-1.11294
1.11546
0.0137442
-0.016307
-1.32406
1.32662
0.0190563
-0.0214441
-1.57892
1.58131
0.0234724
-0.0251458
-1.57432
1.576
0.0262738
-0.0271681
-1.31353
1.31443
0.0277501
-0.0281878
-1.10032
1.10076
0.028461
-0.0287306
-0.925733
0.926003
0.0290129
-0.0292077
-0.783208
0.783403
0.02881
-0.0273731
-0.654489
0.653052
0.0245429
-0.0198847
-0.50026
0.495602
0.0148698
-0.0095239
-0.309109
0.303763
0.00550948
-0.00234344
-0.138264
0.135098
0.000643408
-0.0221495
0.0215061
-0.0285228
0.0286861
-0.000163296
0.000447813
-0.000142418
-0.223335
0.223029
-0.000665591
0.0015473
-0.394901
0.39402
-0.00218268
0.00204002
-0.551904
0.552046
-0.000979312
-0.000601433
-0.675423
0.677004
0.00280295
-0.00506747
-0.797063
0.799327
0.00772432
-0.0102525
-0.942329
0.944857
0.0131096
-0.0157643
-1.11788
1.12054
0.0186843
-0.021298
-1.32909
1.3317
0.0240292
-0.0263136
-1.58356
1.58585
0.0281641
-0.0295948
-1.5775
1.57893
0.030481
-0.0310908
-1.31519
1.3158
0.0314072
-0.0315522
-1.10116
1.10131
0.0315538
-0.0315491
-0.926236
0.926231
0.0316125
-0.0314918
-0.783249
0.783129
0.0307791
-0.0288072
-0.651358
0.649387
0.0254888
-0.0204119
-0.490886
0.48581
0.0151886
-0.00974016
-0.298462
0.293013
0.00566355
-0.00242924
-0.131953
0.128719
0.000673958
-0.0208701
0.0201962
-0.0289289
0.0292355
-0.000306668
0.00146913
-0.00181625
-0.223082
0.223429
0.00185786
-0.00169064
-0.393504
0.393336
0.0016373
-0.00210569
-0.552565
0.553033
0.00334844
-0.00508728
-0.67885
0.680589
0.00748678
-0.00996254
-0.801569
0.804045
0.0128736
-0.0156375
-0.947267
0.950031
0.0187374
-0.0215796
-1.1231
1.12594
0.0246512
-0.0273455
-1.33421
1.33691
0.0300826
-0.032285
-1.588
1.5902
0.0339562
-0.0351079
-1.58018
1.58133
0.0357178
-0.0359883
-1.31626
1.31653
0.0360013
-0.0358318
-1.10137
1.1012
0.0355516
-0.0352474
-0.926157
0.925852
0.0350675
-0.0345046
-0.782558
0.781996
0.0333703
-0.0307696
-0.647217
0.644616
0.0268965
-0.0213359
-0.480682
0.475121
0.0158255
-0.0101704
-0.287575
0.28192
0.0059433
-0.00256772
-0.125476
0.122101
0.000718386
-0.0195254
0.018807
-0.0296136
0.0300919
-0.000478375
0.00273877
-0.0038369
-0.224164
0.225262
0.00477845
-0.0054321
-0.393557
0.394211
0.00610608
-0.00701671
-0.554025
0.554936
0.00854362
-0.0105182
-0.682652
0.684626
0.0131994
-0.0159546
-0.806495
0.80925
0.0191785
-0.0222135
-0.952679
0.955714
0.025582
-0.0286353
-1.12868
1.13173
0.0318889
-0.0346896
-1.3395
1.3423
0.0374528
-0.039557
-1.59226
1.59437
0.0410142
-0.0418416
-1.58226
1.58309
0.0421134
-0.0420068
-1.3166
1.31649
0.0416684
-0.0411325
-1.10089
1.10035
0.040526
-0.0398736
-0.925415
0.924763
0.0393659
-0.0383244
-0.780927
0.779886
0.0366577
-0.0333542
-0.641882
0.638578
0.0288514
-0.0227099
-0.469517
0.463375
0.0168049
-0.0108229
-0.276238
0.270256
0.00635173
-0.00275978
-0.118689
0.115097
0.000776808
-0.0180883
0.0173114
-0.0306502
0.0313432
-0.000693016
0.00422023
-0.00621141
-0.226803
0.228794
0.0082034
-0.00974791
-0.395291
0.396836
0.0112657
-0.012777
-0.556562
0.558074
0.0147806
-0.017131
-0.687018
0.689369
0.0202179
-0.0233271
-0.811973
0.815082
0.0269165
-0.0302676
-0.95862
0.961971
0.0339655
-0.037291
-1.13469
1.13802
0.0407829
-0.0437059
-1.34499
1.34792
0.0464622
-0.0484084
-1.59628
1.59823
0.0495817
-0.0500371
-1.58368
1.58413
0.0498943
-0.0493567
-1.31614
1.3156
0.0486053
-0.0476291
-1.09956
1.09859
0.0466367
-0.0455796
-0.923903
0.922846
0.0446301
-0.0430933
-0.778314
0.776777
0.0407977
-0.0366868
-0.635186
0.631075
0.0314348
-0.0245743
-0.457177
0.450317
0.0181485
-0.0117074
-0.264206
0.257765
0.00689108
-0.00300426
-0.11144
0.107553
0.000848245
-0.0165306
0.0156823
-0.0321177
0.0330981
-0.000980404
0.0061119
-0.00917926
-0.231247
0.234314
0.0124087
-0.0150037
-0.398969
0.401563
0.0174828
-0.0196761
-0.560451
0.562644
0.0222368
-0.0250277
-0.692195
0.694986
0.0286052
-0.0321692
-0.81816
0.821724
0.0362602
-0.0400538
-0.965224
0.969018
0.0441955
-0.0478561
-1.14126
1.14492
0.0516123
-0.0546637
-1.35071
1.35376
0.0574106
-0.0591838
-1.59996
1.60173
0.0600311
-0.0600173
-1.58429
1.58428
0.0594019
-0.0583138
-1.31473
1.31364
0.0570756
-0.0555883
-1.09726
1.09577
0.0541499
-0.0526207
-0.921481
0.919951
0.0511379
-0.0489839
-0.77468
0.772526
0.0459161
-0.04084
-0.626886
0.621809
0.0347001
-0.0269676
-0.443395
0.435663
0.0198742
-0.0128236
-0.251213
0.244163
0.00755428
-0.00329452
-0.103574
0.0993143
0.000929656
-0.0148283
0.0138986
-0.0341524
0.0355289
-0.00137644
0.00859293
-0.0129874
-0.237842
0.242236
0.0176983
-0.0215238
-0.404941
0.408767
0.0251334
-0.0281736
-0.565948
0.568989
0.0314799
-0.0348731
-0.698337
0.70173
0.039104
-0.0432591
-0.825265
0.82942
0.0479807
-0.0523051
-0.97274
0.977065
0.0569493
-0.0609681
-1.14849
1.15251
0.0649759
-0.0681027
-1.35665
1.35977
0.0707349
-0.0721997
-1.60321
1.60468
0.072574
-0.0719562
-1.58387
1.58325
0.0707728
-0.0690398
-1.31211
1.31038
0.0672519
-0.0651849
-1.09384
1.09177
0.06324
-0.0611877
-0.918011
0.915959
0.0590625
-0.0561783
-0.769765
0.76688
0.052185
-0.0459594
-0.61667
0.610444
0.03875
-0.0299346
-0.427858
0.419043
0.0219895
-0.0141584
-0.236959
0.229128
0.00832338
-0.00361783
-0.0949396
0.090234
0.00101615
-0.0129639
0.0119477
-0.036951
0.0388967
-0.00194564
0.0119975
-0.0180902
-0.247059
0.253152
0.0245806
-0.0298327
-0.413704
0.418956
0.0347749
-0.0388781
-0.573498
0.577601
0.0431996
-0.0474526
-0.705826
0.710079
0.0525755
-0.0574604
-0.833555
0.83844
0.0628899
-0.0677685
-0.981299
0.986177
0.0729043
-0.0772399
-1.1564
1.16073
0.0814167
-0.0845026
-1.36266
1.36574
0.0868514
-0.0878195
-1.60574
1.60671
0.0875399
-0.086139
-1.58215
1.58075
0.0842248
-0.081727
-1.30811
1.30562
0.0793005
-0.0766094
-1.08911
1.08642
0.0741384
-0.0714802
-0.913366
0.910708
0.0686733
-0.0648811
-0.763295
0.759503
0.0597925
-0.0521782
-0.604152
0.596538
0.043659
-0.033501
-0.410145
0.399987
0.0244863
-0.0156809
-0.221109
0.212304
0.00916349
-0.00395014
-0.0854016
0.0801883
0.00109814
-0.0109322
0.00983406
-0.0408304
0.0436532
-0.00282276
0.0169414
-0.0252615
-0.259614
0.267934
0.0339281
-0.040872
-0.425898
0.432842
0.0473909
-0.0527717
-0.5836
0.588981
0.0583523
-0.0637143
-0.71516
0.720522
0.0699631
-0.0757207
-0.843291
0.849049
0.0819497
-0.0874043
-0.990958
0.996413
0.0929828
-0.0975201
-1.16487
1.1694
0.101671
-0.104494
-1.36846
1.37129
0.106281
-0.106494
-1.60714
1.60736
0.105315
-0.102915
-1.57876
1.57636
0.100109
-0.0966792
-1.30247
1.29904
0.0934753
-0.0900501
-1.08293
1.0795
0.0869985
-0.0836297
-0.907281
0.903912
0.0801405
-0.0752709
-0.754889
0.750019
0.068858
-0.059568
-0.588826
0.579536
0.0494637
-0.0376617
-0.389756
0.377954
0.0273225
-0.0173283
-0.2033
0.193306
0.0100165
-0.00425658
-0.0748567
0.0690967
0.00116262
-0.00874856
0.00758595
-0.0463514
0.0506522
-0.00430073
0.0245991
-0.0359354
-0.276648
0.287984
0.0474094
-0.0566192
-0.442512
0.451722
0.0651055
-0.0719825
-0.596795
0.603672
0.0790796
-0.085865
-0.726731
0.733516
0.0932793
-0.0998565
-0.854709
0.861287
0.106749
-0.112577
-1.00169
1.00751
0.118288
-0.122689
-1.17357
1.17797
0.126412
-0.128606
-1.37354
1.37573
0.129444
-0.128564
-1.60684
1.60596
0.126194
-0.122545
-1.57323
1.56958
0.118684
-0.114204
-1.29491
1.29043
0.110142
-0.105881
-1.07511
1.07085
0.102144
-0.0979455
-0.89952
0.895321
0.0936293
-0.0874056
-0.744138
0.737915
0.0794029
-0.0681175
-0.57007
0.558785
0.0561193
-0.042331
-0.366098
0.352309
0.030385
-0.0189863
-0.18316
0.171761
0.0107935
-0.0044915
-0.0632696
0.0569676
0.00119432
-0.00645321
0.00525889
-0.054573
0.0619143
-0.00734139
0.0379467
-0.0537204
-0.300268
0.316041
0.0691603
-0.0814864
-0.465175
0.477501
0.0920599
-0.100307
-0.613512
0.62176
0.10895
-0.117016
-0.740834
0.7489
0.125364
-0.13234
-0.867562
0.874537
0.139297
-0.144891
-1.01289
1.01848
0.150074
-0.153731
-1.18169
1.18535
0.156396
-0.157373
-1.37704
1.37802
0.15668
-0.154204
-1.60406
1.60158
0.150238
-0.145032
-1.565
1.5598
0.139884
-0.134162
-1.28513
1.27941
0.129107
-0.123948
-1.06553
1.06037
0.119535
-0.11457
-0.889852
0.884887
0.109201
-0.101321
-0.730471
0.722592
0.0913407
-0.0775741
-0.547086
0.533319
0.0632789
-0.0472061
-0.338467
0.322394
0.033436
-0.0205124
-0.1604
0.147477
0.0114108
-0.00461878
-0.0507536
0.0439616
0.00117417
-0.00411401
0.00293985
-0.0687709
0.0728595
-0.00408857
0.0288701
-0.0426319
-0.334389
0.348151
0.0564056
-0.0677291
-0.495262
0.506585
0.0777992
-0.0871905
-0.633482
0.642874
0.097668
-0.107249
-0.756367
0.765947
0.117805
-0.127067
-0.88052
0.889782
0.136805
-0.145329
-1.02314
1.03166
0.154063
-0.161321
-1.18789
1.19515
0.168194
-0.173215
-1.37775
1.38277
0.176955
-0.178342
-1.59779
1.59917
0.177332
-0.174456
-1.55344
1.55057
0.170604
-0.165592
-1.27276
1.26775
0.160942
-0.155513
-1.05397
1.04854
0.150873
-0.145392
-0.878046
0.872565
0.138749
-0.127724
-0.713035
0.702011
0.113325
-0.0941186
-0.518912
0.499705
0.0748837
-0.0538042
-0.306086
0.285006
0.036629
-0.0214323
-0.135023
0.119826
0.0113264
-0.00431252
-0.03771
0.0306961
0.000981608
-0.00181134
0.000829729
-0.0801763
0.0782452
0.00193115
0.00752817
-0.0163573
-0.364643
0.373472
0.0267753
-0.0349345
-0.522496
0.530655
0.043063
-0.0508875
-0.654825
0.66265
0.0604622
-0.0693566
-0.77502
0.783914
0.0787874
-0.0872979
-0.898448
0.906958
0.0962187
-0.103681
-1.03988
1.04735
0.111489
-0.117588
-1.20215
1.20825
0.123272
-0.127085
-1.38738
1.39119
0.129282
-0.129324
-1.59962
1.59966
0.127011
-0.122803
-1.54684
1.54263
0.117551
-0.111046
-1.2621
1.2556
0.104905
-0.0980293
-1.0418
1.03493
0.0916419
-0.0844286
-0.863061
0.855847
0.0772337
-0.0677357
-0.687093
0.677594
0.0570176
-0.0441256
-0.478921
0.466029
0.0324436
-0.0213197
-0.263905
0.252781
0.0133438
-0.00720161
-0.105267
0.0991246
0.00353256
-0.00123499
-0.0239216
0.0216241
0.000226334
0.00043031
-0.000656645
-0.081564
0.0787259
0.00283805
-0.00122116
-0.00378623
-0.385111
0.390118
0.0106404
-0.016618
-0.542638
0.548616
0.0226795
-0.0294073
-0.672891
0.679618
0.037711
-0.0454189
-0.791866
0.799574
0.053799
-0.0612059
-0.914673
0.92208
0.0687272
-0.075384
-1.05463
1.06129
0.0821399
-0.0874959
-1.2139
1.21926
0.0920267
-0.0947963
-1.39432
1.39709
0.0961399
-0.0951572
-1.59892
1.59794
0.0917899
-0.0865079
-1.53761
1.53233
0.0804156
-0.0732558
-1.2487
1.24154
0.0662014
-0.0586394
-1.02699
1.01943
0.0516826
-0.0439881
-0.846272
0.838578
0.0370035
-0.0288007
-0.664414
0.656211
0.0208144
-0.012533
-0.451307
0.443025
0.00670904
-0.00265197
-0.240867
0.23681
0.000619051
0.000280686
-0.09251
0.0916103
-0.000454902
0.000299293
-0.0188877
0.0190433
-0.000139426
0.0012479
-0.00110848
-0.0803835
0.0776558
0.00272774
-0.0048543
0.00235736
-0.398688
0.401185
0.00205842
-0.00655508
-0.557674
0.562171
0.0116715
-0.0173124
-0.687739
0.693379
0.0244567
-0.0310861
-0.806602
0.813231
0.0382596
-0.0446312
-0.928946
0.935317
0.0514908
-0.0571627
-1.06752
1.07319
0.0630929
-0.0673365
-1.22421
1.22846
0.0711642
-0.0733304
-1.3996
1.40177
0.0738631
-0.0720109
-1.59642
1.59457
0.0682837
-0.062778
-1.5264
1.52089
0.0565593
-0.0489622
-1.23406
1.22646
0.0418378
-0.0340773
-1.01115
1.00339
0.02665
-0.0187727
-0.829004
0.821127
0.0116228
-0.00472106
-0.64481
0.637908
-0.00107827
0.00552227
-0.433144
0.4287
-0.00734644
0.00731326
-0.230411
0.230445
-0.00630717
0.00446746
-0.089719
0.0915587
-0.00287964
0.00133418
-0.018597
0.0201425
-0.000414265
0.00137318
-0.000958913
-0.0789747
0.0765925
0.00238223
-0.00595046
0.00497525
-0.407846
0.408821
-0.00164784
-0.00171712
-0.569742
0.573107
0.00584528
-0.0109783
-0.700213
0.705346
0.0170045
-0.0228635
-0.819135
0.824994
0.0291271
-0.034725
-0.94126
0.946858
0.0406855
-0.045805
-1.07875
1.08387
0.0508836
-0.0548245
-1.23257
1.23651
0.0580876
-0.0598223
-1.40356
1.4053
0.0600053
-0.0580189
-1.59258
1.59059
0.0543388
-0.0488258
-1.51483
1.50932
0.0428302
-0.0355678
-1.2189
1.21163
0.0284897
-0.020418
-0.994942
0.98687
0.01291
-0.00491444
-0.811545
0.803549
-0.00174688
0.00768498
-0.628026
0.622087
-0.0118268
0.0142357
-0.421565
0.419156
-0.0142948
0.0123617
-0.227503
0.229437
-0.00991366
0.00691533
-0.0923486
0.0953469
-0.004319
0.00194243
-0.0212108
0.0235874
-0.000575167
0.00082958
-0.000254413
-0.0777154
0.0757019
0.00201346
-0.00579879
0.00526371
-0.414243
0.414778
-0.00323965
0.000457564
-0.579132
0.581914
0.00362558
-0.00806225
-0.710834
0.71527
0.0132884
-0.0184178
-0.830055
0.835184
0.0240437
-0.0291169
-0.952134
0.957207
0.0346562
-0.0392169
-1.08874
1.0933
0.0438564
-0.0474579
-1.24019
1.24379
0.0503759
-0.0518913
-1.40679
1.4083
0.0519523
-0.0503752
-1.5886
1.58702
0.0467843
-0.0415542
-1.50344
1.49821
0.0356515
-0.0284734
-1.20417
1.19699
0.021736
-0.0137989
-0.978461
0.970524
0.00667491
0.000539078
-0.794731
0.787517
-0.00651397
0.0117232
-0.613502
0.608293
-0.0150912
0.0169535
-0.413708
0.411846
-0.0163073
0.0137585
-0.228225
0.230774
-0.010977
0.00760501
-0.097317
0.100689
-0.00471003
0.00213207
-0.0253534
0.0279314
-0.000629692
-0.000105579
0.000735271
-0.0768201
0.0752729
0.00154719
-0.0048851
0.00463965
-0.419131
0.419376
-0.00291271
0.000767647
-0.587436
0.589581
0.00309651
-0.00717907
-0.720127
0.724209
0.0121934
-0.0166626
-0.839929
0.844398
0.0216635
-0.026221
-0.962268
0.966826
0.0315396
-0.0357369
-1.09791
1.10211
0.0399247
-0.043401
-1.24723
1.25071
0.0465651
-0.0480464
-1.40987
1.41135
0.0483121
-0.046756
-1.58509
1.58354
0.0435677
-0.0382343
-1.49273
1.4874
0.0326664
-0.0259545
-1.18963
1.18292
0.0195763
-0.0126017
-0.962698
0.955723
0.00625388
0.000361768
-0.779661
0.773046
-0.0056261
0.0106536
-0.600679
0.595651
-0.0138034
0.0154214
-0.407191
0.405573
-0.01512
0.0130741
-0.230158
0.232204
-0.0104839
0.00727736
-0.10284
0.106047
-0.00453819
0.00209019
-0.0297489
0.0321969
-0.00063437
-0.00112583
0.0017602
-0.0764434
0.0752524
0.00119102
-0.0037792
0.00363344
-0.423132
0.423278
-0.00197797
-7.8735e-05
-0.594758
0.596815
0.00376423
-0.00748765
-0.728572
0.732295
0.0118418
-0.0161866
-0.848834
0.853179
0.0208551
-0.0255895
-0.971202
0.975936
0.0302167
-0.0342636
-1.10642
1.11046
0.038629
-0.041941
-1.25408
1.2574
0.0447328
-0.0467236
-1.41279
1.41478
0.0472625
-0.0460422
-1.58204
1.58082
0.0430508
-0.038383
-1.48226
1.47759
0.0333538
-0.0273652
-1.17605
1.17007
0.0218513
-0.0157715
-0.948838
0.942758
0.0101652
-0.00420429
-0.766136
0.760175
-0.00123979
0.00633903
-0.588573
0.583473
-0.00958305
0.0113935
-0.4013
0.39949
-0.0115225
0.0100405
-0.231626
0.233108
-0.00813964
0.0057038
-0.107579
0.110015
-0.00360766
0.0016959
-0.0336709
0.0355827
-0.000536899
-0.00210257
0.00263947
-0.0766143
0.0756211
0.000993188
-0.00249029
0.00208737
-0.426799
0.427202
-0.000593736
-0.00151721
-0.601561
0.603672
0.00492013
-0.0085532
-0.736513
0.740146
0.0127661
-0.0167401
-0.857341
0.861315
0.0215544
-0.025521
-0.9801
0.984066
0.0301449
-0.0340559
-1.11468
1.11859
0.038363
-0.0419324
-1.26071
1.26428
0.0451089
-0.0469833
-1.41657
1.41844
0.0479526
-0.0472282
-1.57956
1.57883
0.0450615
-0.0410454
-1.47294
1.46893
0.0368808
-0.0318378
-1.16447
1.15943
0.0271589
-0.0217065
-0.936642
0.93119
0.0165748
-0.0106121
-0.753558
0.747596
0.00513806
0.000176501
-0.576683
0.571368
-0.00375862
0.00569618
-0.395108
0.39317
-0.00635056
0.00578392
-0.231995
0.232562
-0.00482818
0.00342769
-0.110729
0.112129
-0.00220759
0.0010858
-0.0364098
0.0375316
-0.00036005
-0.00284926
0.00320931
-0.0770788
0.0763902
0.000688596
-0.001353
0.00048541
-0.430578
0.431446
0.000817543
-0.00307814
-0.60765
0.609911
0.0062027
-0.00974002
-0.74398
0.747517
0.0137977
-0.017916
-0.865172
0.86929
0.0221357
-0.0262848
-0.98825
0.992399
0.0308999
-0.0346429
-1.12294
1.12668
0.0391104
-0.042715
-1.26769
1.27129
0.0460379
-0.0485257
-1.42076
1.42325
0.0500923
-0.0498419
-1.57822
1.57797
0.0482177
-0.0453486
-1.46531
1.46245
0.0421473
-0.0378528
-1.15453
1.15024
0.0335977
-0.0286134
-0.925656
0.920672
0.0231404
-0.0172013
-0.740904
0.734965
0.0116367
-0.00612568
-0.564921
0.55941
0.00243906
5.73222e-05
-0.388449
0.385952
-0.00121022
0.00162369
-0.230868
0.230455
-0.00153499
0.00117766
-0.111878
0.112235
-0.000843318
0.00046939
-0.0376535
0.0380274
-0.000181921
-0.0032565
0.00343842
-0.0779419
0.0774153
0.000526634
-0.000396282
-0.000407692
-0.434604
0.435408
0.00227187
-0.004391
-0.613843
0.615962
0.00771775
-0.0111455
-0.750986
0.754414
0.0150577
-0.0187909
-0.873099
0.876832
0.0231547
-0.0270143
-0.996557
1.00042
0.0316127
-0.035839
-1.13089
1.13512
0.0400181
-0.0440178
-1.27497
1.27897
0.0478434
-0.0505061
-1.42567
1.42833
0.0525756
-0.0533066
-1.57804
1.57877
0.0524373
-0.0505261
-1.45966
1.45775
0.0477672
-0.0440185
-1.1461
1.14235
0.0400679
-0.0349558
-0.915124
0.910011
0.0295339
-0.0234289
-0.728095
0.72199
0.0178781
-0.0123248
-0.552922
0.547369
0.00838106
-0.00544805
-0.381266
0.378333
0.00351372
-0.00222657
-0.228009
0.226722
0.00136539
-0.000686197
-0.111028
0.110348
0.000222317
5.43177e-05
-0.0375084
0.0372317
-8.83845e-05
-0.00331345
0.00340184
-0.0790802
0.0787295
0.000350705
0.000648153
-0.00164114
-0.438767
0.43976
0.00337651
-0.0057966
-0.619654
0.622074
0.00907545
-0.012356
-0.757771
0.761052
0.0163528
-0.0199494
-0.880558
0.884155
0.0241748
-0.0281779
-1.00476
1.00876
0.0327238
-0.0369617
-1.13922
1.14346
0.0414198
-0.045505
-1.28292
1.28701
0.0495773
-0.0530529
-1.43132
1.43479
0.0556869
-0.0568968
-1.57955
1.58076
0.0569094
-0.0554681
-1.45586
1.45441
0.0532676
-0.0499006
-1.13853
1.13516
0.0457746
-0.040598
-0.904427
0.899251
0.0351844
-0.0290319
-0.715232
0.709079
0.023722
-0.0182426
-0.541314
0.535834
0.0142038
-0.0106379
-0.373499
0.369933
0.00807272
-0.00583077
-0.223431
0.221189
0.00395185
-0.00230011
-0.108254
0.106602
0.00114545
-0.000340656
-0.0360866
0.0352818
1.02592e-05
-0.00311334
0.00310308
-0.0804403