/*--------------------------------*- C++ -*----------------------------------*\
  =========                 |
  \\      /  F ield         | OpenFOAM: The Open Source CFD Toolbox
   \\    /   O peration     | Website:  https://openfoam.org
    \\  /    A nd           | Version:  6
     \\/     M anipulation  |
\*---------------------------------------------------------------------------*/
FoamFile
{
    version     2.0;
    format      ascii;
    class       surfaceScalarField;
    location    "49.5";
    object      phi;
}
// * * * * * * * * * * * * * * * * * * * * * * * * * * * * * * * * * * * * * //

dimensions      [0 3 -1 0 0 0 0];

internalField   nonuniform List<scalar> 
17370
(
-0.0900017
0.0898518
0.289161
-0.0714666
0.0537576
0.364484
-0.0381254
0.0276969
0.426597
-0.0196453
0.0146122
0.504285
-0.0107701
0.00827982
0.601892
-0.00628097
0.00490626
0.720432
-0.00374522
0.00290714
0.863745
-0.00216748
0.0016092
1.03601
-0.00109307
0.000680993
1.24291
-0.000273455
-0.000116851
1.49158
0.000494179
-0.000899946
1.4916
0.00129432
-0.00178339
1.24318
0.0023154
-0.00302873
1.03635
0.00384832
-0.0049963
0.864054
0.00636436
-0.00835835
0.721051
0.0108437
-0.0146794
0.60305
0.0197065
-0.0277517
0.507484
0.0381747
-0.0537996
0.431793
0.0715009
-0.0898746
0.365149
0.0900151
0.198996
-0.128132
0.0882175
0.0399142
-0.364594
0.353368
-0.0746839
0.0859095
-0.446473
0.454314
-0.0844116
0.0765711
-0.521188
0.529895
-0.0684771
0.0597704
-0.612786
0.621561
-0.0515856
0.0428103
-0.72689
0.734155
-0.0353536
0.0280895
-0.867472
0.872579
-0.0224949
0.017387
-1.03847
1.04192
-0.0135826
0.0101366
-1.2446
1.24703
-0.00752783
0.00509712
-1.49262
1.4946
-0.00315245
0.00117926
-1.4925
1.49422
0.000500474
-0.00222318
-1.24398
1.24586
0.00412435
-0.0060069
-1.03751
1.04005
0.00836481
-0.0109003
-0.866103
0.86984
0.0142644
-0.0180014
-0.724394
0.729943
0.0230484
-0.0285972
-0.608702
0.616119
0.0358169
-0.0432336
-0.514901
0.523048
0.0519656
-0.0601123
-0.439859
0.447921
0.0687794
-0.0768414
-0.375299
0.376747
0.0846456
-0.0860933
-0.257335
0.222489
0.0748092
-0.0399631
-0.0685066
0.0586755
0.00983107
-0.0518413
0.0584333
-0.374114
0.367522
-0.0575253
0.0537794
-0.453585
0.457331
-0.0486954
0.044749
-0.527936
0.531883
-0.0409156
0.0372824
-0.621551
0.625184
-0.0331872
0.029118
-0.735335
0.739404
-0.0245557
0.0204037
-0.874324
0.878476
-0.0160665
0.01238
-1.04347
1.04716
-0.00865124
0.00548464
-1.24855
1.25172
-0.00216207
-0.000909001
-1.49666
1.49973
0.00395506
-0.00721665
-1.49721
1.50047
0.0102944
-0.0139025
-1.25008
1.25369
0.0174696
-0.0216742
-1.04594
1.05014
0.0257125
-0.0301635
-0.877777
0.882228
0.0341439
-0.0381522
-0.739915
0.743923
0.0417104
-0.0454647
-0.626788
0.630543
0.049343
-0.0543621
-0.534822
0.539842
0.0580389
-0.0588591
-0.457486
0.458307
0.0521651
-0.0319759
-0.335771
0.315582
0.00988385
-0.0683605
0.0584767
-0.0529205
0.0489198
0.00400072
-0.0331968
0.0437579
-0.358078
0.347517
-0.0474702
0.046853
-0.459264
0.459882
-0.0438072
0.0404631
-0.53578
0.539124
-0.0367005
0.0334061
-0.628502
0.631797
-0.0299797
0.0269591
-0.742618
0.745639
-0.0237123
0.0206143
-0.881983
0.885081
-0.0170919
0.0137192
-1.05074
1.05411
-0.00993451
0.00640392
-1.25514
1.25867
-0.0024439
-0.00134671
-1.50323
1.50702
0.00510687
-0.00897687
-1.50414
1.50801
0.0123864
-0.0160084
-1.25744
1.26106
0.0192165
-0.0225506
-1.05395
1.05728
0.0254817
-0.0285607
-0.885728
0.888807
0.0314467
-0.0347434
-0.747192
0.750488
0.037929
-0.0415794
-0.634338
0.637988
0.0448268
-0.0477624
-0.544161
0.547097
0.048264
-0.0443888
-0.456605
0.45273
0.0336333
-0.0162028
-0.296235
0.278805
0.00406631
-0.0526628
0.0485964
-0.0458371
0.0433358
0.00250128
-0.0228481
0.0332482
-0.336811
0.326411
-0.0390898
0.040121
-0.459557
0.458526
-0.0389451
0.0366695
-0.541836
0.544112
-0.0340147
0.0314301
-0.634836
0.63742
-0.0283797
0.0254926
-0.748671
0.751558
-0.0222425
0.0192633
-0.88802
0.891
-0.0159761
0.0128938
-1.05723
1.06031
-0.00938529
0.00598924
-1.26212
1.26551
-0.00203554
-0.00184373
-1.5109
1.51478
0.00568402
-0.00951984
-1.51191
1.51575
0.0127566
-0.0160518
-1.26451
1.26781
0.0189195
-0.0219615
-1.06039
1.06343
0.0247209
-0.027746
-0.891876
0.894901
0.0304485
-0.0333181
-0.753706
0.756576
0.0357514
-0.0382537
-0.641065
0.643568
0.0403989
-0.0414033
-0.548913
0.549918
0.0401939
-0.0340916
-0.447468
0.441366
0.0234069
-0.0102134
-0.263609
0.250416
0.002582
-0.0454406
0.0428586
-0.0412547
0.039481
0.00177374
-0.0167951
0.0260734
-0.316535
0.307257
-0.032707
0.0348678
-0.456912
0.454751
-0.0344649
0.0328084
-0.546079
0.547736
-0.0306426
0.0285621
-0.639713
0.641793
-0.0261495
0.0237712
-0.754186
0.756564
-0.0209352
0.0181655
-0.893873
0.896642
-0.0149493
0.0118973
-1.06333
1.06639
-0.00842506
0.00511584
-1.26882
1.27213
-0.00129924
-0.00242123
-1.51856
1.52228
0.00609115
-0.00975799
-1.51949
1.52316
0.0128669
-0.0160718
-1.27106
1.27427
0.0188535
-0.021758
-1.06646
1.06936
0.0242456
-0.0267901
-0.897732
0.900277
0.0289277
-0.0311063
-0.759045
0.761224
0.0329952
-0.0349666
-0.645739
0.64771
0.0364327
-0.0366016
-0.550454
0.550623
0.0341662
-0.0271515
-0.434728
0.427713
0.017491
-0.00737864
-0.238914
0.228802
0.0018723
-0.0406884
0.0388161
-0.037952
0.0366153
0.00133672
-0.0128413
0.0208186
-0.298636
0.290659
-0.0276033
0.030553
-0.45217
0.44922
-0.0307819
0.0296832
-0.54915
0.550249
-0.0277102
0.0258135
-0.643808
0.645705
-0.023636
0.0215189
-0.758779
0.760896
-0.0190262
0.0165646
-0.899193
0.901655
-0.0136492
0.0107967
-1.0693
1.07215
-0.00746286
0.00424235
-1.27536
1.27858
-0.000508208
-0.00311686
-1.52592
1.52954
0.00668007
-0.0102275
-1.52676
1.53031
0.013196
-0.0161936
-1.27741
1.28041
0.0187067
-0.021231
-1.07211
1.07463
0.0233367
-0.0254591
-0.902591
0.904713
0.0272698
-0.0291486
-0.763225
0.765104
0.0308027
-0.0325413
-0.649541
0.65128
0.0333635
-0.0328092
-0.550436
0.549882
0.0294682
-0.0221632
-0.420499
0.413194
0.0136962
-0.00570711
-0.219854
0.211865
0.00145644
-0.0371788
0.0357224
-0.0354465
0.0344138
0.00103273
-0.0100516
0.0168028
-0.283322
0.276571
-0.0233276
0.0267344
-0.446028
0.442621
-0.0275447
0.0268651
-0.551134
0.551813
-0.025125
0.0233581
-0.64758
0.649347
-0.0213107
0.0193187
-0.762943
0.764935
-0.016978
0.0146809
-0.903958
0.906255
-0.0119753
0.00931922
-1.07483
1.07749
-0.00619103
0.00313218
-1.28168
1.28474
0.00045192
-0.00394362
-1.53308
1.53658
0.00735953
-0.0107149
-1.53377
1.53712
0.0134656
-0.0161803
-1.28328
1.28599
0.0184177
-0.0206407
-1.07701
1.07923
0.022499
-0.0243821
-0.906722
0.908605
0.025993
-0.027667
-0.766882
0.768556
0.0291316
-0.0305467
-0.652878
0.654293
0.0308804
-0.0296117
-0.548982
0.547713
0.025667
-0.0184604
-0.405915
0.398709
0.0110964
-0.00459459
-0.20469
0.198188
0.00117808
-0.034422
0.0332439
-0.0335059
0.032699
0.00080685
-0.00798425
0.0136667
-0.270386
0.264704
-0.0197121
0.0233232
-0.439106
0.435495
-0.0246211
0.0242007
-0.552402
0.552822
-0.0227425
0.0210998
-0.651104
0.652747
-0.0191614
0.0172636
-0.76687
0.768768
-0.0150181
0.0128073
-0.908438
0.910649
-0.0102036
0.00765987
-1.08001
1.08256
-0.00468027
0.00177219
-1.28767
1.29058
0.00163499
-0.00495296
-1.53995
1.54327
0.0081775
-0.0113035
-1.54036
1.54348
0.0138351
-0.0163106
-1.28861
1.29108
0.0183436
-0.0203577
-1.08137
1.08339
0.0220292
-0.0237097
-0.910407
0.912087
0.025135
-0.0266083
-0.770137
0.771611
0.0278722
-0.0289123
-0.655497
0.656537
0.0288786
-0.026952
-0.546118
0.544192
0.0226244
-0.0157058
-0.391641
0.384723
0.00926273
-0.00382116
-0.192267
0.186826
0.000984219
-0.0321761
0.0311919
-0.0319888
0.0313569
0.000631848
-0.00638977
0.0111599
-0.259508
0.254738
-0.0166191
0.0202332
-0.431885
0.428271
-0.0218558
0.021662
-0.553169
0.553363
-0.0204373
0.0188513
-0.65441
0.655996
-0.0169694
0.0151259
-0.77063
0.772473
-0.0129527
0.0108199
-0.912741
0.914873
-0.00830985
0.0058572
-1.08497
1.08742
-0.00298539
0.000193
-1.29337
1.29616
0.00305264
-0.00618491
-1.54646
1.54959
0.00920295
-0.0121044
-1.54649
1.54939
0.0144336
-0.016683
-1.29346
1.29571
0.0185041
-0.0202851
-1.08532
1.0871
0.0217532
-0.0232355
-0.913693
0.915176
0.024506
-0.0258255
-0.773015
0.774335
0.0269644
-0.0276142
-0.65736
0.65801
0.0272237
-0.0247635
-0.542011
0.539551
0.0202171
-0.0136573
-0.377996
0.371436
0.00794926
-0.00327377
-0.181808
0.177132
0.00084727
-0.0302882
0.029441
-0.0308037
0.0303126
0.000491051
-0.00510935
0.009094
-0.250387
0.246402
-0.0139261
0.0174031
-0.424735
0.421258
-0.0192254
0.0192379
-0.553508
0.553496
-0.0182214
0.0166822
-0.65764
0.659179
-0.0148348
0.0130163
-0.774291
0.776109
-0.0108681
0.00875952
-0.916896
0.919005
-0.00628387
0.0038766
-1.08976
1.09216
-0.00107868
-0.001616
-1.29884
1.30154
0.0047152
-0.00767199
-1.55259
1.55555
0.0104905
-0.0131767
-1.55217
1.55485
0.0153187
-0.0173758
-1.29789
1.29994
0.0190298
-0.020631
-1.08883
1.09043
0.0219344
-0.023236
-0.916596
0.917898
0.0243468
-0.0254914
-0.775587
0.776732
0.0264233
-0.0267108
-0.658454
0.658742
0.0259405
-0.0230258
-0.536874
0.533959
0.0183574
-0.0121519
-0.365073
0.358868
0.00701343
-0.00289079
-0.172767
0.168645
0.000753228
-0.0286523
0.027899
-0.0298893
0.0295175
0.000371757
-0.0040364
0.00733091
-0.242787
0.239493
-0.0115227
0.0147483
-0.417923
0.414697
-0.0166388
0.0168205
-0.553456
0.553275
-0.0158992
0.0144503
-0.660751
0.6622
-0.0126111
0.0107843
-0.777912
0.779739
-0.00862813
0.00652467
-0.92101
0.923113
-0.00407312
0.00170563
-1.09445
1.09682
0.00103306
-0.00366035
-1.30412
1.30675
0.00666752
-0.00950796
-1.5584
1.56124
0.0121794
-0.0146785
-1.55742
1.55992
0.0166244
-0.0184496
-1.30191
1.30373
0.01989
-0.0212673
-1.09197
1.09335
0.0223856
-0.0235151
-0.919154
0.920283
0.0244889
-0.0254768
-0.77782
0.778808
0.026169
-0.0261627
-0.658888
0.658881
0.0249966
-0.021698
-0.53086
0.527561
0.0169669
-0.0110721
-0.352846
0.346952
0.00636111
-0.00263012
-0.164751
0.16102
0.000691041
-0.0271892
0.0264981
-0.0292064
0.0289408
0.000265599
-0.00309706
0.00576998
-0.236531
0.233858
-0.00932557
0.0122224
-0.411663
0.408766
-0.0140695
0.0143382
-0.553128
0.552859
-0.0134592
0.0120469
-0.663724
0.665136
-0.0101805
0.00831919
-0.781551
0.783412
-0.0061317
0.00400852
-0.925097
0.92722
-0.00154388
-0.00082475
-1.09907
1.10144
0.00354488
-0.00612515
-1.30927
1.31185
0.00903539
-0.0117374
-1.56396
1.56666
0.014237
-0.0165399
-1.5623
1.5646
0.0183069
-0.0199352
-1.30548
1.30711
0.0211916
-0.0223602
-1.09469
1.09585
0.0232858
-0.0242233
-0.921357
0.922294
0.0250456
-0.0258748
-0.779723
0.780552
0.0263125
-0.0260586
-0.658742
0.658488
0.0244683
-0.0208009
-0.524103
0.520435
0.0160097
-0.0103479
-0.341214
0.335553
0.00593709
-0.00246788
-0.157454
0.153985
0.000654953
-0.0258392
0.0251842
-0.0287323
0.0285676
0.000164712
-0.00222698
0.00431607
-0.231499
0.22941
-0.00722864
0.00972593
-0.406102
0.403604
-0.0114302
0.0117292
-0.552663
0.552364
-0.0108935
0.00951657
-0.666636
0.668013
-0.00762037
0.00569794
-0.785261
0.787184
-0.00342559
0.0012247
-0.929245
0.931446
0.00131151
-0.00372222
-1.1037
1.10611
0.00645602
-0.0090164
-1.31433
1.31689
0.0118666
-0.0144713
-1.56925
1.57185
0.0168273
-0.018934
-1.56677
1.56888
0.0205022
-0.0219099
-1.30865
1.31006
0.0229746
-0.0239432
-1.09701
1.09797
0.0246873
-0.0254319
-0.923203
0.923948
0.026088
-0.0267468
-0.781283
0.781941
0.0268748
-0.0262734
-0.658006
0.657405
0.0242715
-0.0202601
-0.516641
0.512629
0.0154039
-0.00990116
-0.330021
0.324518
0.00568718
-0.00237966
-0.150633
0.147326
0.000638207
-0.0245524
0.0239142
-0.0284597
0.0283973
6.2456e-05
-0.00137675
0.00289454
-0.227628
0.22611
-0.00514615
0.00717382
-0.40138
0.399352
-0.00861717
0.00884299
-0.552206
0.55198
-0.00797723
0.00657611
-0.669515
0.670917
-0.00460051
0.00259179
-0.78909
0.791098
-0.000225913
-0.00205089
-0.933529
0.935805
0.00465848
-0.00712416
-1.10842
1.11088
0.00990123
-0.0124761
-1.31936
1.32193
0.0152958
-0.0178153
-1.57436
1.57687
0.0200349
-0.0219578
-1.57086
1.57279
0.0233377
-0.0245155
-1.31137
1.31255
0.0253492
-0.0260458
-1.09891
1.0996
0.0265505
-0.0270687
-0.924657
0.925175
0.0275612
-0.0280345
-0.78245
0.782923
0.02789
-0.026892
-0.656539
0.655541
0.0244672
-0.0201033
-0.508515
0.504151
0.0151435
-0.0097077
-0.319114
0.313678
0.00559236
-0.0023578
-0.144096
0.140861
0.000639249
-0.0232926
0.0226534
-0.0283923
0.028438
-4.56938e-05
-0.000499585
0.00143932
-0.224902
0.223962
-0.00300383
0.00450377
-0.397629
0.396129
-0.00559876
0.00568034
-0.551961
0.55188
-0.00473667
0.00325651
-0.672499
0.673979
-0.00116505
-0.000973732
-0.793095
0.795234
0.00348897
-0.00589761
-0.937961
0.94037
0.00863906
-0.0112079
-1.11324
1.11581
0.0140659
-0.0166698
-1.32441
1.32701
0.019457
-0.0218749
-1.57927
1.58169
0.0239293
-0.0256308
-1.57456
1.57626
0.0267904
-0.0277213
-1.31361
1.31454
0.0283362
-0.0287944
-1.1003
1.10076
0.0290691
-0.0293493
-0.925669
0.925949
0.02965
-0.0298567
-0.783131
0.783338
0.0294541
-0.0279844
-0.654266
0.652796
0.0250921
-0.0203339
-0.499698
0.49494
0.0152112
-0.00974672
-0.308305
0.302841
0.00563829
-0.00239632
-0.13767
0.134428
0.000656678
-0.0220243
0.0213676
-0.0285407
0.0287045
-0.000163717
0.000433102
-0.000110449
-0.223348
0.223025
-0.000714457
0.00160447
-0.39497
0.39408
-0.00224005
0.00209435
-0.552072
0.552217
-0.00102769
-0.000563507
-0.675672
0.677263
0.00278792
-0.00509004
-0.797357
0.799659
0.00780687
-0.010402
-0.942669
0.945265
0.0133348
-0.0160519
-1.11829
1.121
0.0190313
-0.0217009
-1.32953
1.3322
0.0244991
-0.026853
-1.58399
1.58635
0.0287666
-0.0302472
-1.57781
1.57929
0.0311755
-0.0318276
-1.31534
1.316
0.0321801
-0.0323597
-1.1012
1.10138
0.0323861
-0.0324025
-0.926202
0.926219
0.0324803
-0.0323447
-0.783181
0.783045
0.0316006
-0.0295634
-0.651075
0.649038
0.0261606
-0.0209607
-0.490106
0.484906
0.0156044
-0.0100081
-0.297403
0.291806
0.00581578
-0.00249022
-0.131196
0.12787
0.000688722
-0.0207161
0.0200274
-0.028947
0.0292515
-0.000304439
0.00143999
-0.00176883
-0.223061
0.22339
0.00179029
-0.0016177
-0.393555
0.393383
0.00158005
-0.0020784
-0.552746
0.553245
0.00336383
-0.00514383
-0.679125
0.680905
0.00759072
-0.0101092
-0.801939
0.804457
0.0130632
-0.0158627
-0.947737
0.950537
0.019003
-0.0218919
-1.12362
1.12651
0.0250309
-0.0277988
-1.33478
1.33754
0.0306266
-0.0329084
-1.58858
1.59086
0.0346576
-0.035889
-1.5806
1.58183
0.0365604
-0.036888
-1.31648
1.31681
0.0369424
-0.0368038
-1.10148
1.10134
0.0365407
-0.0362585
-0.926177
0.925895
0.0361107
-0.0355506
-0.782456
0.781896
0.0343891
-0.0317199
-0.646813
0.644144
0.0277419
-0.0220177
-0.479636
0.473911
0.0163324
-0.0104906
-0.286196
0.280355
0.00612229
-0.00263812
-0.124525
0.121041
0.000735015
-0.0193394
0.0186043
-0.0296275
0.0301033
-0.000475784
0.00270346
-0.00377317
-0.224101
0.225171
0.00467958
-0.00531029
-0.39359
0.39422
0.00598132
-0.00692253
-0.554265
0.555207
0.00851641
-0.0105644
-0.683028
0.685076
0.0133198
-0.0161281
-0.806957
0.809766
0.0193953
-0.0224714
-0.953218
0.956294
0.0259011
-0.029027
-1.12931
1.13243
0.0323724
-0.035257
-1.34022
1.3431
0.0381046
-0.0402888
-1.59299
1.59518
0.0418286
-0.0427519
-1.58285
1.58378
0.043099
-0.043068
-1.31695
1.31692
0.0427842
-0.0422845
-1.10107
1.10057
0.0416949
-0.0410795
-0.925498
0.924882
0.0406172
-0.0396061
-0.780843
0.779832
0.0379243
-0.0345336
-0.641345
0.637954
0.029882
-0.0235235
-0.468107
0.461749
0.0174009
-0.0111928
-0.274458
0.26825
0.00655413
-0.00283714
-0.117507
0.11379
0.000794394
-0.0178657
0.0170714
-0.0306586
0.0313517
-0.000693124
0.00418998
-0.0061466
-0.226684
0.228641
0.00810501
-0.00962669
-0.395275
0.396797
0.0111343
-0.012645
-0.556831
0.558342
0.0146605
-0.0170312
-0.687512
0.689883
0.0201585
-0.0233276
-0.812549
0.815718
0.02701
-0.0304607
-0.959278
0.962729
0.0342707
-0.0376909
-1.13548
1.1389
0.0412796
-0.0442994
-1.34588
1.3489
0.0471847
-0.0492701
-1.5972
1.59928
0.0505764
-0.0511423
-1.58445
1.58502
0.0510877
-0.0506353
-1.31665
1.3162
0.0499626
-0.0490541
-1.09986
1.09895
0.0481
-0.047098
-0.924075
0.923073
0.0461963
-0.0446704
-0.778297
0.776771
0.0423163
-0.0380789
-0.634462
0.630224
0.0326433
-0.0255207
-0.455301
0.448179
0.0188308
-0.0121202
-0.261942
0.255231
0.00711084
-0.00308509
-0.109994
0.105969
0.000865455
-0.0162701
0.0154047
-0.0321227
0.0330991
-0.000976403
0.00605748
-0.00908896
-0.231059
0.234091
0.0122842
-0.0148649
-0.398909
0.401489
0.017353
-0.0195837
-0.560722
0.562952
0.0222008
-0.025047
-0.692729
0.695575
0.0286918
-0.0323298
-0.818869
0.822507
0.0365097
-0.0403831
-0.966088
0.969961
0.0446079
-0.0483496
-1.14224
1.14598
0.0522056
-0.0553582
-1.3518
1.35495
0.0582297
-0.0601289
-1.60115
1.60305
0.0611035
-0.0612229
-1.58529
1.58541
0.0607222
-0.0597679
-1.31542
1.31446
0.0586454
-0.0572606
-1.09773
1.09635
0.055889
-0.0544566
-0.921789
0.920357
0.0530234
-0.0508888
-0.774685
0.77255
0.0477521
-0.0425087
-0.625905
0.620662
0.0361258
-0.0280549
-0.440945
0.432874
0.0206385
-0.0132731
-0.248374
0.241008
0.00778678
-0.00337684
-0.101837
0.0974267
0.000946121
-0.0145306
0.0135845
-0.0341461
0.0355177
-0.00137153
0.0085353
-0.012894
-0.237575
0.241934
0.0175668
-0.0213699
-0.404847
0.40865
0.0249875
-0.0280837
-0.566312
0.569409
0.0314918
-0.0349907
-0.699012
0.702511
0.0393247
-0.0435504
-0.826127
0.830353
0.0483296
-0.052707
-0.973741
0.978119
0.0574253
-0.0615321
-1.14963
1.15374
0.0656558
-0.0688966
-1.35795
1.36119
0.071656
-0.0732416
-1.60467
1.60626
0.0737456
-0.0732702
-1.58516
1.58468
0.0722185
-0.070637
-1.31305
1.31147
0.0689905
-0.0670594
-1.09452
1.09259
0.0652202
-0.0633047
-0.918542
0.916627
0.0612518
-0.0584105
-0.769814
0.766972
0.0543361
-0.047879
-0.615347
0.60889
0.0403508
-0.0311235
-0.424678
0.415451
0.0228044
-0.0146224
-0.233455
0.225273
0.0085552
-0.0036961
-0.0928904
0.0880313
0.00103044
-0.0126308
0.0116004
-0.0369317
0.0388728
-0.00194108
0.0119507
-0.0180126
-0.246713
0.252775
0.0244712
-0.0297019
-0.413559
0.418789
0.0346344
-0.0387539
-0.573956
0.578076
0.0431279
-0.0474454
-0.706689
0.711007
0.052649
-0.0576177
-0.834568
0.839537
0.0631551
-0.0681461
-0.98244
0.987431
0.0734151
-0.077873
-1.15774
1.1622
0.0821855
-0.0854014
-1.3642
1.36742
0.087903
-0.0890293
-1.60747
1.60859
0.0889098
-0.0876807
-1.58375
1.58252
0.0859232
-0.0835933
-1.30934
1.30701
0.0813106
-0.0787591
-1.09007
1.08752
0.0764022
-0.0738629
-0.91418
0.911641
0.0711741
-0.0673964
-0.763416
0.759639
0.0621707
-0.0542536
-0.60236
0.594442
0.0453461
-0.03471
-0.406095
0.395459
0.0252832
-0.0161132
-0.216873
0.207703
0.00936929
-0.00401563
-0.0830387
0.077685
0.00110867
-0.010568
0.00945936
-0.0407983
0.0436177
-0.00281941
0.0169062
-0.0252085
-0.259202
0.267504
0.0338661
-0.0408095
-0.425713
0.432656
0.0473432
-0.0527419
-0.584095
0.589494
0.0583541
-0.0637536
-0.716124
0.721523
0.0700747
-0.0759239
-0.844487
0.850336
0.0822717
-0.0878398
-0.992342
0.99791
0.0935404
-0.0981894
-1.16645
1.1711
0.102473
-0.105438
-1.37027
1.37324
0.107411
-0.107818
-1.6092
1.60961
0.10684
-0.104647
-1.58071
1.57851
0.102034
-0.0988234
-1.30405
1.30084
0.0958089
-0.092551
-1.08422
1.08097
0.0896087
-0.0863338
-0.908355
0.90508
0.082931
-0.0780018
-0.755023
0.750094
0.0713747
-0.0616871
-0.586417
0.576729
0.0511068
-0.0387582
-0.384699
0.37235
0.0279917
-0.0176573
-0.198313
0.187978
0.0101576
-0.00429595
-0.0722137
0.066352
0.00116732
-0.00836011
0.00719279
-0.0463078
0.0506062
-0.00429843
0.0245825
-0.035917
-0.276191
0.287526
0.047404
-0.056638
-0.44233
0.451563
0.0651805
-0.0721263
-0.597374
0.60432
0.0793062
-0.0861769
-0.727791
0.734662
0.09368
-0.100333
-0.856081
0.862734
0.107304
-0.113206
-1.00328
1.00918
0.119006
-0.123502
-1.17538
1.17987
0.127339
-0.129642
-1.37562
1.37792
0.130613
-0.12988
-1.60925
1.60852
0.127684
-0.124235
-1.57558
1.57213
0.120558
-0.116283
-1.29689
1.29262
0.112434
-0.108435
-1.07679
1.07279
0.104905
-0.100862
-0.900848
0.896805
0.0966165
-0.0902568
-0.744156
0.737797
0.0819145
-0.0700791
-0.566835
0.555
0.0575023
-0.0431255
-0.359908
0.345531
0.0307802
-0.0191192
-0.177488
0.165827
0.0108178
-0.00448363
-0.0604342
0.0541
0.00118806
-0.00605347
0.00486541
-0.0545209
0.0618602
-0.00733933
0.0379494
-0.0537404
-0.299795
0.315587
0.069223
-0.0816067
-0.465046
0.47743
0.0922712
-0.100584
-0.614269
0.622582
0.109305
-0.117458
-0.742075
0.750228
0.125888
-0.132917
-0.869075
0.876103
0.139924
-0.145573
-1.01462
1.02027
0.150834
-0.154579
-1.18369
1.18743
0.157359
-0.158456
-1.37936
1.38046
0.157919
-0.155612
-1.6068
1.6045
0.151832
-0.146829
-1.5678
1.5628
0.141869
-0.136363
-1.28752
1.28201
0.131522
-0.126609
-1.06762
1.06271
0.122394
-0.117568
-0.891498
0.886673
0.112171
-0.104026
-0.730201
0.722056
0.0935589
-0.0791041
-0.542738
0.528283
0.0641671
-0.047523
-0.3311
0.314455
0.033429
-0.0203645
-0.154224
0.14116
0.0112648
-0.00453662
-0.0478705
0.0411422
0.00114687
-0.00372791
0.00258104
-0.0687084
0.0728033
-0.00409485
0.0289109
-0.042697
-0.333936
0.347722
0.0564989
-0.0678829
-0.495237
0.506621
0.0779866
-0.087399
-0.634391
0.643803
0.0978752
-0.107503
-0.757768
0.767395
0.118123
-0.127444
-0.882128
0.89145
0.13726
-0.14587
-1.02499
1.0336
0.154717
-0.162102
-1.19007
1.19746
0.169153
-0.174387
-1.38033
1.38556
0.178425
-0.180142
-1.60091
1.60263
0.179481
-0.176993
-1.55666
1.55418
0.173499
-0.168884
-1.27559
1.27097
0.164594
-0.159546
-1.05647
1.05142
0.155192
-0.149862
-0.879914
0.874583
0.142994
-0.131492
-0.712225
0.700723
0.116311
-0.0960848
-0.513185
0.492959
0.0759814
-0.0542102
-0.297619
0.275848
0.0366936
-0.0213568
-0.128612
0.113275
0.0112437
-0.00426627
-0.0349452
0.0279678
0.000969861
-0.00147172
0.000501857
-0.0801166
0.0782036
0.00191295
0.00760356
-0.0164681
-0.364223
0.373087
0.0269127
-0.0351016
-0.522586
0.530775
0.0432474
-0.0510394
-0.655786
0.663578
0.0605902
-0.0694979
-0.776492
0.7854
0.0789736
-0.0875443
-0.900169
0.908739
0.0965451
-0.104087
-1.04191
1.04945
0.11199
-0.118188
-1.20459
1.21079
0.123992
-0.12792
-1.39037
1.3943
0.130243
-0.130407
-1.60334
1.6035
0.128242
-0.124241
-1.55076
1.54676
0.119236
-0.113086
-1.2657
1.25955
0.107368
-0.10104
-1.04505
1.03872
0.0951684
-0.0884099
-0.865076
0.858318
0.0812571
-0.0713071
-0.685352
0.675402
0.0599919
-0.0464385
-0.471208
0.457654
0.0342448
-0.0226675
-0.254137
0.24256
0.0143419
-0.00784444
-0.0985961
0.0920986
0.00390654
-0.00139682
-0.0212143
0.0187046
0.00027519
0.000735155
-0.00101035
-0.081533
0.0787011
0.0028319
-0.00115432
-0.00389182
-0.384741
0.389787
0.0107878
-0.0167793
-0.542803
0.548795
0.0228393
-0.0295588
-0.673836
0.680556
0.0378516
-0.045582
-0.793375
0.801106
0.054012
-0.0614728
-0.916508
0.923969
0.0690547
-0.0757655
-1.05681
1.06352
0.0825789
-0.0879783
-1.21652
1.22192
0.0925495
-0.0953604
-1.3975
1.40031
0.0967897
-0.0959858
-1.60289
1.60208
0.0929145
-0.0880366
-1.54207
1.53719
0.0823294
-0.0755638
-1.25307
1.2463
0.0688077
-0.06148
-1.03117
1.02384
0.0546406
-0.0470382
-0.848756
0.841154
0.0401005
-0.0316969
-0.661953
0.653549
0.0234264
-0.0148497
-0.442314
0.433737
0.0087451
-0.00435165
-0.230212
0.225819
0.00197944
-0.000688323
-0.0852835
0.0839924
0.000151155
1.34547e-05
-0.0158208
0.0156562
-5.06261e-05
0.00161155
-0.00156093
-0.0803645
0.0776372
0.00272733
-0.00482301
0.00229714
-0.398372
0.400898
0.00216142
-0.00668087
-0.557882
0.562402
0.0118076
-0.0174604
-0.688706
0.694359
0.0246179
-0.0312748
-0.808169
0.814826
0.0384824
-0.0448785
-0.930874
0.93727
0.0517545
-0.0574313
-1.06979
1.07547
0.0633572
-0.0675955
-1.22689
1.23113
0.0714352
-0.0736534
-1.40287
1.40509
0.0743271
-0.0726835
-1.60082
1.59918
0.0691786
-0.0638677
-1.53167
1.52636
0.0577769
-0.0502675
-1.23913
1.23162
0.0432022
-0.0355439
-1.01559
1.00793
0.028336
-0.020832
-0.83144
0.823936
0.0139671
-0.00695119
-0.642032
0.635017
0.00107215
0.00343899
-0.423682
0.419171
-0.00538104
0.00560442
-0.219244
0.219021
-0.00489677
0.00343655
-0.0817313
0.0831915
-0.00219524
0.000998814
-0.0149163
0.0161127
-0.000309055
0.00188243
-0.00157338
-0.0789547
0.0765656
0.0023891
-0.00595713
0.00497371
-0.407565
0.408548
-0.00161183
-0.00176942
-0.569997
0.573378
0.00589047
-0.0110351
-0.701238
0.706383
0.0170829
-0.0229592
-0.820754
0.826631
0.029224
-0.034803
-0.943213
0.948792
0.0407242
-0.0457985
-1.081
1.08608
0.0508263
-0.054737
-1.23523
1.23914
0.0579953
-0.0597516
-1.40694
1.4087
0.0599615
-0.057925
-1.5973
1.59527
0.0540977
-0.0483717
-1.52027
1.51454
0.0422028
-0.0348626
-1.224
1.21666
0.0278962
-0.0201585
-0.99968
0.991942
0.0130496
-0.00545989
-0.814656
0.807066
-0.000944527
0.00665952
-0.625286
0.619571
-0.0107107
0.0129168
-0.412006
0.4098
-0.012873
0.0110725
-0.21607
0.21787
-0.00880291
0.00604806
-0.0836939
0.0864488
-0.00373944
0.00165039
-0.01687
0.0189591
-0.000477718
0.00153627
-0.00105855
-0.0776818
0.0756574
0.00202442
-0.00583463
0.00531086
-0.413963
0.414486
-0.0032786
0.000502983
-0.579408
0.582184
0.00354954
-0.00798174
-0.711902
0.716334
0.01321
-0.0183303
-0.83169
0.836811
0.0239233
-0.0289466
-0.954026
0.95905
0.0344181
-0.038916
-1.09089
1.09539
0.0434989
-0.0470646
-1.24278
1.24635
0.0499508
-0.0514216
-1.41018
1.41165
0.0513635
-0.0495905
-1.59312
1.59135
0.0458102
-0.0404932
-1.50846
1.50314
0.0346546
-0.0277011
-1.20926
1.20231
0.0212579
-0.0136207
-0.983914
0.976277
0.00662032
0.000658692
-0.798329
0.79105
-0.00669451
0.011769
-0.611041
0.605967
-0.0149789
0.0165133
-0.404528
0.402994
-0.0156174
0.013035
-0.216814
0.219396
-0.0103294
0.00709467
-0.0882628
0.0914976
-0.00436053
0.0019503
-0.0205596
0.0229698
-0.00056772
0.00075039
-0.000182669
-0.0767644
0.0752064
0.00155802
-0.0049294
0.00470595
-0.418822
0.419046
-0.00299384
0.000879392
-0.587687
0.589801
0.00292976
-0.00698026
-0.721189
0.72524
0.0119657
-0.0163994
-0.841525
0.845959
0.0213464
-0.0258454
-0.964051
0.96855
0.0311018
-0.0352506
-1.09994
1.10409
0.0394004
-0.0428434
-1.24976
1.2532
0.0459506
-0.0473399
-1.41315
1.41454
0.0474526
-0.0458036
-1.58926
1.58761
0.042673
-0.0375685
-1.49777
1.49266
0.032304
-0.0258942
-1.19531
1.1889
0.0196149
-0.0124797
-0.968535
0.9614
0.00578531
0.00119485
-0.782804
0.775824
-0.00652699
0.0113075
-0.598192
0.593411
-0.0142114
0.0155217
-0.398669
0.397358
-0.0149719
0.012797
-0.218968
0.221143
-0.0102057
0.00703891
-0.0936822
0.096849
-0.00435502
0.00197966
-0.0247386
0.027114
-0.000589436
-0.000189226
0.000778662
-0.0763651
0.0751666
0.00119851
-0.00381252
0.00368967
-0.422781
0.422904
-0.00206312
5.16684e-05
-0.59494
0.596951
0.00356111
-0.0072285
-0.729568
0.733235
0.0115287
-0.0158229
-0.850343
0.854637
0.0204343
-0.0251222
-0.972867
0.977555
0.02971
-0.0337325
-1.10836
1.11238
0.0380759
-0.0413488
-1.25654
1.25981
0.0440581
-0.0459397
-1.41587
1.41775
0.0463686
-0.0451673
-1.5861
1.5849
0.0423197
-0.0378369
-1.48781
1.48333
0.032868
-0.0267306
-1.18218
1.17604
0.0208619
-0.0142319
-0.95409
0.94746
0.00819866
-0.00209667
-0.768522
0.76242
-0.00310426
0.00765181
-0.586508
0.581961
-0.0103694
0.0119626
-0.393317
0.391724
-0.0119591
0.010359
-0.220704
0.222304
-0.00838046
0.00584556
-0.0985276
0.101062
-0.00367018
0.00169994
-0.0286405
0.0306108
-0.000523474
-0.00112258
0.00164605
-0.0765188
0.0755219
0.000996887
-0.00250503
0.00211609
-0.426409
0.426798
-0.000651374
-0.00140321
-0.601652
0.603706
0.00473015
-0.00829726
-0.737397
0.740964
0.0124477
-0.0163687
-0.858738
0.862659
0.0211363
-0.0250731
-0.981677
0.985614
0.0296795
-0.0335776
-1.11658
1.12048
0.0378545
-0.041361
-1.26308
1.26659
0.0444255
-0.0461781
-1.41942
1.42118
0.047056
-0.0463095
-1.58366
1.58291
0.0440864
-0.039837
-1.4787
1.47445
0.0352508
-0.0295727
-1.17001
1.16434
0.0243033
-0.0183891
-0.940737
0.934823
0.013181
-0.00754935
-0.755851
0.750219
0.00258832
0.00215924
-0.575603
0.570856
-0.00532609
0.00698638
-0.387623
0.385962
-0.00749448
0.00672763
-0.221417
0.222184
-0.00557358
0.00394542
-0.102026
0.103654
-0.00252392
0.00122164
-0.0316137
0.032916
-0.000394727
-0.00189549
0.00229022
-0.0769727
0.0762832
0.000689565
-0.0013526
0.000487654
-0.430164
0.431029
0.000793325
-0.00300555
-0.607652
0.609864
0.00605969
-0.00953317
-0.744736
0.748209
0.0135343
-0.0176072
-0.866457
0.87053
0.0217917
-0.0259239
-0.989773
0.993905
0.0305279
-0.0342479
-1.12481
1.12853
0.0386544
-0.04216
-1.26991
1.27341
0.0453383
-0.0476881
-1.42336
1.42571
0.0491223
-0.0486826
-1.58221
1.58177
0.0466847
-0.0431735
-1.47037
1.46686
0.0392642
-0.0342549
-1.15868
1.15367
0.0296121
-0.0246611
-0.929036
0.924085
0.0196424
-0.0144487
-0.744091
0.738897
0.00950226
-0.00443536
-0.564816
0.559749
0.000978679
0.0013584
-0.381425
0.379087
-0.00236033
0.00257149
-0.220797
0.220586
-0.00227445
0.00168266
-0.103711
0.104303
-0.00114869
0.000601193
-0.0332713
0.0338188
-0.000215829
-0.00240563
0.00262146
-0.0778313
0.077305
0.000526242
-0.00038796
-0.000421858
-0.434185
0.434995
0.00227719
-0.00436202
-0.613775
0.61586
0.00763399
-0.0110111
-0.751622
0.754999
0.0148791
-0.0185763
-0.874292
0.877989
0.0229144
-0.0267592
-0.998046
1.00189
0.031335
-0.0355126
-1.13271
1.13689
0.0395896
-0.0434576
-1.27698
1.28084
0.0471145
-0.0496171
-1.42798
1.43049
0.0514746
-0.0518432
-1.58156
1.58192
0.0503806
-0.0476855
-1.4633
1.4606
0.0442851
-0.0401281
-1.14893
1.14477
0.03622
-0.0316155
-0.918852
0.914248
0.0269149
-0.0215639
-0.732847
0.727496
0.0164254
-0.0110066
-0.553501
0.548082
0.00705342
-0.00415266
-0.37443
0.37153
0.00231962
-0.0012085
-0.218357
0.217246
0.000565796
-0.000155749
-0.10338
0.102969
-7.95985e-05
0.000164064
-0.0335333
0.0334488
-0.000107136
-0.00257946
0.0026866
-0.0789678
0.078618
0.000349735
0.000657857
-0.00166188
-0.438359
0.439363
0.00340006
-0.00580101
-0.619545
0.621946
0.00904585
-0.0122945
-0.758315
0.761563
0.0162609
-0.0198306
-0.88168
0.88525
0.0240334
-0.0280148
-1.00622
1.0102
0.0325144
-0.0366712
-1.14092
1.14508
0.0409928
-0.044926
-1.28464
1.28858
0.0488194
-0.0521165
-1.43329
1.43659
0.0544673
-0.0552197
-1.58226
1.58302
0.0546058
-0.0525253
-1.45794
1.45586
0.0499847
-0.0466387
-1.14076
1.13741
0.0428993
-0.0384114
-0.909339
0.904851
0.0336165
-0.0278771
-0.721351
0.715612
0.0226101
-0.0169423
-0.541919
0.536251
0.0127377
-0.00915446
-0.366583
0.363
0.00670678
-0.00468548
-0.214198
0.212177
0.00306333
-0.00170223
-0.101196
0.0998353
0.000788165
-0.000183502
-0.0325506
0.0319459
-2.93371e-05
-0.00247217
0.00250151
-0.0803274
0.0800984
0.000228952