/*--------------------------------*- C++ -*----------------------------------*\
  =========                 |
  \\      /  F ield         | OpenFOAM: The Open Source CFD Toolbox
   \\    /   O peration     | Website:  https://openfoam.org
    \\  /    A nd           | Version:  6
     \\/     M anipulation  |
\*---------------------------------------------------------------------------*/
FoamFile
{
    version     2.0;
    format      ascii;
    class       surfaceScalarField;
    location    "3.7";
    object      phi;
}
// * * * * * * * * * * * * * * * * * * * * * * * * * * * * * * * * * * * * * //

dimensions      [0 3 -1 0 0 0 0];

internalField   nonuniform List<scalar> 
17370
(
-0.0903461
0.0906457
0.288711
-0.0723803
0.0541962
0.36496
-0.037974
0.027461
0.426681
-0.0190572
0.0137356
0.504573
-0.00962808
0.0071601
0.60187
-0.00519479
0.00417744
0.720075
-0.00340495
0.00289235
0.863419
-0.00230138
0.00185418
1.0359
-0.00134045
0.000917447
1.24293
-0.000439231
-6.09278e-05
1.49169
0.000525202
-0.000999417
1.49167
0.00141932
-0.00192761
1.2432
0.00236951
-0.00295184
1.03622
0.00346753
-0.00423109
0.86367
0.00522882
-0.00719241
0.721021
0.0096543
-0.0137584
0.603319
0.0190762
-0.0274761
0.507839
0.0379866
-0.0542063
0.432388
0.0723874
-0.0906497
0.365038
0.0903496
0.198661
-0.129259
0.0937029
0.0355564
-0.364517
0.354052
-0.0656481
0.0761133
-0.447456
0.453534
-0.0754195
0.0693421
-0.521641
0.529415
-0.0621611
0.0543867
-0.612707
0.620522
-0.0469255
0.03911
-0.726776
0.732693
-0.0325319
0.0266149
-0.866932
0.871328
-0.0218594
0.0174633
-1.03787
1.04107
-0.0139262
0.0107343
-1.24433
1.24668
-0.00820017
0.00585121
-1.49255
1.49464
-0.00384178
0.00175006
-1.49245
1.4944
0.000196767
-0.00215371
-1.24381
1.24579
0.00422034
-0.00620295
-1.03709
1.0396
0.00852127
-0.0110355
-0.865441
0.868963
0.0142026
-0.0177248
-0.724028
0.728762
0.0221031
-0.0268376
-0.608609
0.615154
0.0327118
-0.0392572
-0.515075
0.522515
0.0470385
-0.0544792
-0.440641
0.447819
0.0622448
-0.0694228
-0.375496
0.376177
0.0754907
-0.0761712
-0.257101
0.226985
0.0656885
-0.0355724
-0.0792614
0.0734226
0.00583884
-0.0265282
0.0308939
-0.37271
0.368344
-0.0331482
0.0340842
-0.449193
0.448257
-0.0340015
0.0334228
-0.525161
0.52574
-0.0320976
0.0304616
-0.618976
0.620612
-0.0281733
0.0256391
-0.73308
0.735614
-0.022449
0.0192726
-0.872873
0.876049
-0.0156547
0.0124026
-1.04275
1.046
-0.00897036
0.00594976
-1.24842
1.25144
-0.00266395
-0.000450146
-1.49697
1.50008
0.00356037
-0.00681895
-1.49729
1.50055
0.00979733
-0.0131754
-1.24959
1.25297
0.0163811
-0.0199505
-1.04472
1.04829
0.0230655
-0.026189
-0.875699
0.878823
0.028663
-0.0309114
-0.737118
0.739366
0.0324873
-0.0337289
-0.623842
0.625084
0.0342666
-0.0342877
-0.531353
0.531374
0.0333079
-0.0310142
-0.453029
0.450735
0.0266183
-0.0170329
-0.342436
0.332851
0.00585866
-0.0792171
0.0733585
-0.0715821
0.0717595
-0.000177441
-0.00754056
0.0133631
-0.362299
0.356476
-0.0192448
0.0237392
-0.445547
0.441053
-0.0270374
0.0285068
-0.525536
0.524066
-0.0286923
0.0279539
-0.62158
0.622318
-0.0264033
0.0245373
-0.737761
0.739628
-0.0220514
0.0194923
-0.878731
0.88129
-0.0164109
0.0134414
-1.04907
1.05204
-0.0100235
0.00672803
-1.25482
1.25812
-0.00289536
-0.000834166
-1.50381
1.50754
0.00454762
-0.00832437
-1.5044
1.50818
0.0115431
-0.014857
-1.2565
1.25981
0.0176576
-0.0205983
-1.05138
1.05432
0.0230533
-0.0254377
-0.881451
0.883835
0.0272162
-0.0286738
-0.741098
0.742556
0.0293361
-0.0290668
-0.625494
0.625225
0.0275121
-0.0241272
-0.530238
0.526853
0.0195507
-0.0135886
-0.446075
0.440113
0.00768877
-0.00219359
-0.324593
0.319098
-0.000157727
-0.0714898
0.0716475
-0.0721067
0.072011
9.57663e-05
-0.00239006
0.0048019
-0.352597
0.350185
-0.00785055
0.010537
-0.437239
0.434552
-0.0131451
0.0151245
-0.521774
0.519795
-0.0166763
0.017518
-0.621836
0.620994
-0.0178511
0.0176239
-0.740751
0.740978
-0.0167968
0.0155418
-0.883403
0.884658
-0.0136543
0.0114886
-1.05467
1.05684
-0.00868839
0.00582767
-1.26123
1.26409
-0.00237915
-0.00106306
-1.51113
1.51458
0.00448639
-0.00786297
-1.51176
1.51514
0.0106195
-0.0132834
-1.26284
1.2655
0.0153499
-0.0170975
-1.0568
1.05855
0.0182011
-0.0188564
-0.885545
0.8862
0.0189295
-0.0184379
-0.742843
0.742352
0.017463
-0.0157709
-0.623538
0.621846
0.013678
-0.0109573
-0.523266
0.520545
0.00817628
-0.00503242
-0.435405
0.432261
0.00254204
-0.000756068
-0.316175
0.314389
0.00012069
-0.071975
0.0718543
-0.0718308
0.0717606
7.02222e-05
-0.00119827
0.00230884
-0.348551
0.34744
-0.00379102
0.00521522
-0.432601
0.431177
-0.0067265
0.0079922
-0.518206
0.51694
-0.00917412
0.0100093
-0.620096
0.619261
-0.010582
0.0107692
-0.740927
0.74074
-0.010564
0.00999577
-0.885493
0.886061
-0.00893686
0.00760327
-1.05855
1.05988
-0.00575389
0.00373327
-1.26649
1.26852
-0.0011996
-0.00132533
-1.51763
1.52015
0.00380664
-0.00622212
-1.51808
1.52049
0.00811196
-0.00979745
-1.26763
1.26932
0.0109609
-0.0118274
-1.05979
1.06065
0.012218
-0.0122272
-0.886465
0.886475
0.0118658
-0.0111116
-0.741663
0.740909
0.010122
-0.00878462
-0.620324
0.618986
0.00738594
-0.0057405
-0.51846
0.516815
0.00420321
-0.00260472
-0.430047
0.428448
0.00139522
-0.00050232
-0.313112
0.312219
0.000104093
-0.0716438
0.0715398
-0.0717238
0.0716831
4.07604e-05
-0.000577249
0.0010797
-0.346701
0.346199
-0.00175639
0.00242844
-0.430192
0.42952
-0.00317701
0.00383844
-0.516006
0.515344
-0.00450645
0.00502835
-0.618573
0.618051
-0.00545974
0.00568732
-0.740498
0.740271
-0.00571354
0.00550002
-0.88641
0.886624
-0.00497793
0.00422709
-1.06089
1.06164
-0.00309799
0.00180476
-1.27015
1.27144
-0.000128426
-0.00157958
-1.52223
1.52394
0.00323683
-0.00478483
-1.52243
1.52397
0.00592314
-0.00684845
-1.27059
1.27151
0.0073966
-0.00768843
-1.06119
1.06148
0.0076914
-0.00743727
-0.886309
0.886055
0.00700705
-0.00636243
-0.740182
0.739537
0.00565531
-0.00479632
-0.617895
0.617036
0.00397173
-0.00305723
-0.51558
0.514666
0.00224602
-0.00142997
-0.427319
0.426503
0.000810735
-0.000324958
-0.311583
0.311097
8.04181e-05
-0.0714674
0.071387
-0.0716554
0.0716443
1.10913e-05
-0.000251992
0.000487718
-0.345851
0.345615
-0.000806684
0.00112608
-0.429054
0.428735
-0.0014871
0.0018128
-0.514877
0.514551
-0.00214914
0.00241934
-0.617669
0.617399
-0.00264992
0.00277652
-0.74009
0.739963
-0.00279314
0.0026714
-0.886772
0.886894
-0.00236024
0.00189807
-1.06221
1.06268
-0.00118404
0.000348968
-1.27247
1.27331
0.000755273
-0.00189564
-1.52534
1.52648
0.00299456
-0.00396392
-1.52521
1.52618
0.0046137
-0.0050785
-1.27217
1.27264
0.00529211
-0.00532131
-1.06161
1.06164
0.00518348
-0.00488713
-0.885768
0.885471
0.00451356
-0.00402491
-0.738978
0.738489
0.003532
-0.00296729
-0.616348
0.615784
0.00244762
-0.0018897
-0.513963
0.513406
0.00140435
-0.000917524
-0.425883
0.425397
0.000539666
-0.000228657
-0.310712
0.310401
6.04705e-05
-0.071315
0.0712545
-0.0716448
0.0716545
-9.71398e-06
-4.33674e-05
0.00013045
-0.345463
0.345376
-0.000256357
0.000384244
-0.428525
0.428397
-0.0005285
0.000657011
-0.514335
0.514207
-0.000786115
0.000883574
-0.617222
0.617125
-0.00095451
0.000972105
-0.739892
0.739874
-0.000921382
0.000794185
-0.887011
0.887138
-0.000547318
0.000211219
-1.06306
1.0634
0.000287948
-0.000859585
-1.27399
1.27456
0.00159872
-0.00233852
-1.5274
1.52814
0.00302126
-0.00358766
-1.52693
1.52749
0.00392574
-0.00411895
-1.27295
1.27315
0.00415644
-0.00405686
-1.0616
1.0615
0.00386495
-0.00357156
-0.885175
0.884882
0.00325038
-0.00286238
-0.738057
0.737669
0.00249183
-0.002083
-0.615309
0.614901
0.00171723
-0.00133253
-0.51295
0.512565
0.00100206
-0.00067052
-0.425002
0.42467
0.000408187
-0.000182685
-0.310141
0.309916
5.19849e-05
-0.0711999
0.0711479
-0.0716737
0.0717011
-2.74001e-05
8.57039e-05
-9.34001e-05
-0.345342
0.34535
8.94844e-05
-8.3745e-05
-0.428334
0.428329
8.03054e-05
-8.33844e-05
-0.514149
0.514152
9.80702e-05
-0.000127117
-0.617095
0.617124
0.000183249
-0.000264712
-0.739908
0.739989
0.000397037
-0.00056663
-0.887284
0.887454
0.0008161
-0.00110843
-1.0637
1.064
0.00150293
-0.00192492
-1.27505
1.27547
0.00243868
-0.00292072
-1.52874
1.52922
0.0033311
-0.00363323
-1.52791
1.52822
0.00378003
-0.00379289
-1.27323
1.27325
0.0036982
-0.00351157
-1.06135
1.06117
0.00328112
-0.00298288
-0.884588
0.88429
0.00268479
-0.00234469
-0.737312
0.736971
0.00203222
-0.00169665
-0.614537
0.614201
0.00140207
-0.00109626
-0.512228
0.511922
0.000835345
-0.000572871
-0.424381
0.424119
0.000360729
-0.000169955
-0.309712
0.309521
5.14962e-05
-0.0710969
0.0710454
-0.0717357
0.0717781
-4.24005e-05
0.000208948
-0.00028426
-0.345389
0.345465
0.000366514
-0.000447098
-0.42837
0.428451
0.000544931
-0.000645177
-0.514208
0.514308
0.0007694
-0.000898791
-0.617205
0.617335
0.00106152
-0.001233
-0.740116
0.740288
0.00145038
-0.00167952
-0.887651
0.88788
0.00196749
-0.00226431
-1.06429
1.06458
0.00262347
-0.00297196
-1.27585
1.2762
0.00335605
-0.00367523
-1.52961
1.52993
0.00390213
-0.004009
-1.52841
1.52852
0.00398817
-0.00388989
-1.27321
1.27311
0.00371168
-0.00345405
-1.06094
1.06068
0.0031807
-0.00285686
-0.883982
0.883658
0.00255098
-0.00221521
-0.736638
0.736302
0.00191501
-0.00159887
-0.613881
0.613564
0.00132512
-0.00104356
-0.511634
0.511353
0.000804438
-0.000563096
-0.423871
0.42363
0.000364235
-0.000178302
-0.309336
0.30915
5.63985e-05
-0.0709921
0.0709357
-0.0718294
0.0718897
-6.03006e-05
0.000322045
-0.000461277
-0.345574
0.345713
0.000619474
-0.000774935
-0.428569
0.428725
0.000960573
-0.00114563
-0.514451
0.514636
0.00136701
-0.0015876
-0.61751
0.61773
0.00185068
-0.00211162
-0.740503
0.740764
0.00242071
-0.00272359
-0.888144
0.888447
0.00307564
-0.00341035
-1.0649
1.06523
0.0037817
-0.00410924
-1.27653
1.27686
0.00442984
-0.00465231
-1.53019
1.53042
0.00475906
-0.0047363
-1.52856
1.52853
0.00461014
-0.00437563
-1.27294
1.27271
0.0041087
-0.00377167
-1.06039
1.06005
0.00344033
-0.00306578
-0.883312
0.882938
0.00272361
-0.00235685
-0.735955
0.735589
0.00203464
-0.00169956
-0.613243
0.612908
0.00141205
-0.00111817
-0.511069
0.510775
0.000869314
-0.000617432
-0.423387
0.423135
0.000406782
-0.000204163
-0.308958
0.308756
6.63105e-05
-0.0708749
0.0708086
-0.0719593
0.0720393
-7.99535e-05
0.000442586
-0.000644679
-0.345883
0.346085
0.000879063
-0.0011099
-0.428917
0.429148
0.00138426
-0.00165564
-0.514863
0.515135
0.00197692
-0.00229279
-0.617998
0.618313
0.00266317
-0.00302272
-0.741073
0.741433
0.00343767
-0.00383168
-0.888793
0.889187
0.0042728
-0.00467369
-1.06559
1.066
0.00509443
-0.00543976
-1.27719
1.27753
0.00574283
-0.00591046
-1.53061
1.53077
0.00593137
-0.00579799
-1.52845
1.52832
0.00556689
-0.00522398
-1.27242
1.27208
0.00485776
-0.00442245
-1.05967
1.05923
0.00401017
-0.00355644
-0.882527
0.882073
0.0031498
-0.00272
-0.735194
0.734764
0.00234626
-0.00196052
-0.612551
0.612166
0.00163129
-0.001296
-0.510464
0.510128
0.00101258
-0.0007252
-0.422868
0.422581
0.000482684
-0.000245512
-0.308538
0.308301
8.08254e-05
-0.0707357
0.0706548
-0.0721308
0.0722353
-0.00010451
0.00058671
-0.000860038
-0.346321
0.346595
0.00117902
-0.00149344
-0.429419
0.429734
0.00186662
-0.00223472
-0.515452
0.515821
0.00266882
-0.0030933
-0.618681
0.619106
0.00358753
-0.00406303
-0.741847
0.742323
0.00460547
-0.00511313
-0.889635
0.890143
0.00567097
-0.00616608
-1.06644
1.06693
0.00666932
-0.0070637
-1.2779
1.2783
0.00738252
-0.00752178
-1.53093
1.53106
0.00747433
-0.00723763
-1.52814
1.5279
0.00689766
-0.00643122
-1.27167
1.27121
0.00595159
-0.00539468
-1.05874
1.05818
0.00487652
-0.00431361
-0.881569
0.881006
0.00381397
-0.0032898
-0.734291
0.733767
0.00283649
-0.0023706
-0.611743
0.611278
0.00197416
-0.00157128
-0.509763
0.50936
0.00123106
-0.000885699
-0.422267
0.421922
0.000592743
-0.000303597
-0.30804
0.307751
0.000100628
-0.0705648
0.0704642
-0.0723544
0.0724901
-0.000135672
0.000765536
-0.00112491
-0.346909
0.347268
0.00154529
-0.00195972
-0.430096
0.43051
0.00245115
-0.00293522
-0.516244
0.516728
0.003505
-0.00406074
-0.619592
0.620148
0.00470561
-0.00532329
-0.742866
0.743483
0.00602392
-0.00667475
-0.890718
0.891369
0.00738303
-0.00800358
-1.06749
1.06811
0.00862295
-0.00909496
-1.27872
1.2792
0.00945607
-0.00958368
-1.5312
1.53132
0.00947374
-0.00912774
-1.52761
1.52726
0.00866481
-0.00805021
-1.27067
1.27006
0.00743006
-0.00671892
-1.05755
1.05684
0.00606327
-0.00535585
-0.880376
0.879668
0.0047312
-0.00407835
-0.733183
0.73253
0.0035154
-0.00293803
-0.61076
0.610183
0.0024475
-0.00194959
-0.508913
0.508415
0.00152939
-0.00110264
-0.421539
0.421112
0.000739755
-0.000380039
-0.307429
0.307069
0.000126301
-0.0703515
0.0702252
-0.0726446
0.0728205
-0.000175887
0.000992987
-0.00146002
-0.347678
0.348145
0.0020067
-0.0025456
-0.430983
0.431522
0.00318426
-0.00381281
-0.51728
0.517908
0.00455177
-0.00527139
-0.620781
0.621501
0.00610473
-0.00690083
-0.744185
0.744981
0.00780074
-0.00863301
-0.892105
0.892937
0.00953347
-0.0103163
-1.06881
1.06959
0.0110888
-0.0116671
-1.27972
1.2803
0.0120933
-0.0122186
-1.53145
1.53158
0.0120417
-0.0115681
-1.52686
1.52638
0.0109565
-0.0101584
-1.26935
1.26856
0.00936133
-0.00845371
-1.05604
1.05513
0.00762126
-0.00672641
-0.878873
0.877978
0.00593858
-0.00511701
-0.731799
0.730977
0.00440975
-0.0036853
-0.609537
0.608812
0.00307036
-0.00244651
-0.507858
0.507235
0.00192015
-0.00138545
-0.420635
0.4201
0.000930306
-0.000478364
-0.306666
0.306214
0.000159063
-0.0700836
0.0699245
-0.0730208
0.0732493
-0.000228468
0.00128697
-0.0018915
-0.348676
0.349281
0.00259903
-0.0032964
-0.432135
0.432832
0.00412229
-0.00493453
-0.518623
0.519435
0.00588853
-0.00681643
-0.622318
0.623246
0.00788918
-0.00891191
-0.745884
0.746906
0.010065
-0.0111278
-0.893877
0.89494
0.0122726
-0.013262
-1.07047
1.07146
0.0142302
-0.0149453
-1.28094
1.28165
0.0154569
-0.0155828
-1.5317
1.53183
0.0153246
-0.0146926
-1.52583
1.5252
0.0138946
-0.0128645
-1.26765
1.26662
0.0118429
-0.010685
-1.05411
1.05295
0.00962639
-0.00849131
-0.876971
0.875836
0.00749372
-0.00645486
-0.730054
0.729015
0.00556148
-0.00464709
-0.607999
0.607084
0.00387142
-0.00308487
-0.506534
0.505748
0.0024214
-0.00174743
-0.4195
0.418826
0.0011735
-0.000603337
-0.305707
0.305137
0.00020049
-0.0697459
0.0695454
-0.0735101
0.0738081
-0.000298018
0.00167151
-0.00245402
-0.349969
0.350751
0.00336924
-0.00427105
-0.433625
0.434527
0.00533823
-0.00638694
-0.520358
0.521407
0.00761734
-0.00881248
-0.624299
0.625494
0.0101919
-0.0115043
-0.748065
0.749377
0.0129799
-0.0143355
-0.896141
0.897496
0.0157895
-0.0170389
-1.07257
1.07382
0.0182518
-0.0191361
-1.28245
1.28333
0.0197508
-0.0198728
-1.53195
1.53207
0.0195076
-0.0186718
-1.52448
1.52364
0.0176356
-0.0163101
-1.26545
1.26412
0.0150027
-0.0135262
-1.05164
1.05017
0.0121799
-0.010739
-0.874557
0.873116
0.00947437
-0.00815872
-0.727846
0.72653
0.00702813
-0.00587158
-0.606056
0.6049
0.00489085
-0.00389661
-0.504864
0.503869
0.0030581
-0.00220638
-0.418069
0.417217
0.00148116
-0.000760924
-0.304496
0.303776
0.000252521
-0.0693204
0.0690678
-0.0741493
0.0745405
-0.000391238
0.0021805
-0.00319587
-0.351642
0.352657
0.00438204
-0.00555031
-0.435553
0.436721
0.00693141
-0.00828716
-0.522599
0.523955
0.00987565
-0.011416
-0.626851
0.628391
0.0131902
-0.0148737
-0.750863
0.752547
0.0167606
-0.0184871
-0.899026
0.900753
0.0203295
-0.0219023
-1.07522
1.07679
0.023415
-0.0245016
-1.28432
1.2854
0.0252316
-0.0253341
-1.53219
1.53229
0.0248216
-0.0237188
-1.52268
1.52158
0.0223759
-0.0206733
-1.26262
1.26092
0.0190026
-0.0171223
-1.0485
1.04662
0.0154115
-0.0135833
-0.871493
0.869665
0.0119806
-0.0103144
-0.72505
0.723383
0.00888345
-0.00742017
-0.603599
0.602135
0.00617971
-0.00492242
-0.502751
0.501494
0.00386218
-0.00278533
-0.416259
0.415183
0.00186862
-0.000958847
-0.302966
0.302056
0.000317624
-0.0687845
0.0684669
-0.0749906
0.0755091
-0.000518484
0.00286462
-0.00418855
-0.353816
0.35514
0.00573247
-0.00725191
-0.438053
0.439572
0.00904538
-0.0108032
-0.525498
0.527256
0.0128589
-0.0148477
-0.630141
0.63213
0.0171319
-0.0192918
-0.754454
0.756614
0.0217022
-0.0238961
-0.9027
0.904894
0.0262215
-0.0281896
-1.07856
1.08052
0.03006
-0.0313778
-1.2866
1.28792
0.0322237
-0.0322745
-1.53237
1.53242
0.0315538
-0.0300981
-1.52031
1.51885
0.02836
-0.0261769
-1.25899
1.25681
0.0240464
-0.0216562
-1.0445
1.04211
0.0194862
-0.0171703
-0.867606
0.86529
0.0151416
-0.0130339
-0.721509
0.719401
0.0112242
-0.00937411
-0.60049
0.59864
0.00780586
-0.00621636
-0.50008
0.498491
0.00487597
-0.00351459
-0.413972
0.41261
0.00235599
-0.00120722
-0.301034
0.299885
0.000399063
-0.0681109
0.0677118
-0.0761102
0.0768063
-0.000696056
0.0038025
-0.00554269
-0.356653
0.358394
0.00756651
-0.00955516
-0.441307
0.443296
0.0118963
-0.0141853
-0.529261
0.53155
0.0168543
-0.0194281
-0.634393
0.636966
0.0223722
-0.0251426
-0.759061
0.761831
0.0282157
-0.0309919
-0.907363
0.91014
0.0339072
-0.0363453
-1.08272
1.08516
0.0386241
-0.0401877
-1.28936
1.29092
0.0411257
-0.0410652
-1.53243
1.53237
0.0400474
-0.038125
-1.51718
1.51526
0.0358796
-0.0330891
-1.25434
1.25155
0.0303814
-0.0273535
-1.03942
1.03639
0.0246096
-0.0216838
-0.862686
0.85976
0.0191222
-0.0164609
-0.717032
0.714371
0.014176
-0.0118395
-0.59656
0.594224
0.00985858
-0.00785025
-0.496704
0.494696
0.0061561
-0.00443497
-0.41108
0.409359
0.00297041
-0.00151971
-0.298595
0.297144
0.000501247
-0.0672645
0.0667633
-0.0776238
0.078578
-0.000954218
0.00513279
-0.00745284
-0.360385
0.362705
0.0101367
-0.0127624
-0.445573
0.448198
0.0158375
-0.0188317
-0.534171
0.537165
0.0223081
-0.0256456
-0.639903
0.64324
0.0294418
-0.0329894
-0.76497
0.768517
0.0368901
-0.0403761
-0.913254
0.91674
0.0439872
-0.0469566
-1.08785
1.09082
0.0496671
-0.0514561
-1.29261
1.29439
0.052418
-0.0521437
-1.53222
1.53194
0.0507015
-0.0481656
-1.51305
1.51051
0.045277
-0.0417294
-1.2484
1.24485
0.0383083
-0.0344944
-1.03299
1.02917
0.0310424
-0.0273627
-0.856476
0.852796
0.02414
-0.0207902
-0.711382
0.708032
0.0179122
-0.0149669
-0.591598
0.588653
0.0124674
-0.00993051
-0.492439
0.489903
0.00778782
-0.00560864
-0.407426
0.405247
0.00375356
-0.00191773
-0.295515
0.293679
0.00063144
-0.0662008
0.0655694
-0.0797144
0.0810798
-0.00136538
0.00715536
-0.0103257
-0.365343
0.368513
0.0139412
-0.0174346
-0.451219
0.454712
0.0214863
-0.0254098
-0.54063
0.544554
0.0299411
-0.0342686
-0.647072
0.651399
0.0391546
-0.0436748
-0.772534
0.777054
0.0485796
-0.0528928
-0.920624
0.924938
0.0572726
-0.0607867
-1.09406
1.09758
0.0638855
-0.0658127
-1.29627
1.29819
0.0666558
-0.0660031
-1.53151
1.53085
0.0639606
-0.0606288
-1.50761
1.50427
0.0569398
-0.0524704
-1.24086
1.23639
0.0481893
-0.0434299
-1.0249
1.02015
0.039125
-0.0345324
-0.848676
0.844083
0.0305047
-0.0263108
-0.704271
0.700078
0.0227011
-0.0189999
-0.58534
0.581639
0.0158517
-0.0126475
-0.487052
0.483848
0.00993104
-0.00715763
-0.402807
0.400034
0.00478978
-0.0024459
-0.291621
0.289277
0.000806135
-0.06486
0.0640538
-0.0826851
0.0848165
-0.00213138
0.0106107
-0.0150579
-0.372038
0.376485
0.0199589
-0.024581
-0.458827
0.463449
0.0298797
-0.0350014
-0.54923
0.554352
0.0408971
-0.0464934
-0.656425
0.662021
0.0527454
-0.0584381
-0.782141
0.787834
0.0644872
-0.0696792
-0.929666
0.934858
0.0748003
-0.0787649
-1.10132
1.10528
0.0820848
-0.083953
-1.30011
1.30198
0.0844285
-0.0831528
-1.52992
1.52864
0.080279
-0.0759378
-1.50046
1.49612
0.0712802
-0.0657263
-1.2314
1.22584
0.0604479
-0.054597
-1.01485
1.009
0.0493065
-0.0436529
-0.838956
0.833303
0.038682
-0.0334889
-0.695361
0.690168
0.0290043
-0.0243905
-0.577448
0.572834
0.0204493
-0.0164146
-0.48023
0.476196
0.0129637
-0.00940108
-0.396952
0.39339
0.00631822
-0.00323895
-0.286683
0.283604
0.00107767
-0.0631582
0.0620805
-0.0871111
0.0908716
-0.00376056
0.017167
-0.0233966
-0.381432
0.387661
0.0298605
-0.0358722
-0.469373
0.475384
0.0427633
-0.0494476
-0.5608
0.567484
0.0571269
-0.0643162
-0.66854
0.675729
0.0721751
-0.0791347
-0.794068
0.801027
0.0862913
-0.0922201
-0.940334
0.946263
0.0978352
-0.10196
-1.10929
1.11342
0.105137
-0.106594
-1.30364
1.3051
0.106316
-0.104081
-1.5269
1.52466
0.100092
-0.0945078
-1.49116
1.48558
0.0887207
-0.0819497
-1.21968
1.21291
0.0755783
-0.0685461
-1.00254
0.995511
0.0621936
-0.0553958
-0.827019
0.820221
0.0494018
-0.0431131
-0.684295
0.678006
0.0376568
-0.0320186
-0.567508
0.56187
0.0271708
-0.0221537
-0.471532
0.466515
0.0177923
-0.0131722
-0.389451
0.38483
0.00899234
-0.00468322
-0.280373
0.276064
0.00158828
-0.0609669
0.0593787
-0.0943801
0.101936
-0.00755551
0.0312148
-0.0398478
-0.395455
0.404088
0.0480449
-0.0556959
-0.484298
0.491949
0.0646869
-0.073356
-0.57612
0.584789
0.0830829
-0.0918575
-0.683683
0.692457
0.101048
-0.108834
-0.808125
0.815911
0.116497
-0.122547
-0.952057
0.958107
0.127961
-0.131609
-1.11718
1.12083
0.133982
-0.134448
-1.30599
1.30645
0.132855
-0.129207
-1.52167
1.51802
0.123759
-0.116693
-1.47921
1.47215
0.109638
-0.101576
-1.20544
1.19738
0.0940886
-0.085892
-0.98783
0.979633
0.0785115
-0.0706198
-0.812721
0.80483
0.0636515
-0.0563202
-0.670858
0.663527
0.0499354
-0.0433023
-0.555158
0.548525
0.0375531
-0.031551
-0.460411
0.454409
0.0262167
-0.0201568
-0.379623
0.373563
0.0140867
-0.007336
-0.271958
0.265208
0.002415
-0.0580171
0.0556021
-0.109952
0.112357
-0.00240551
0.0181801
-0.0263465
-0.416776
0.424943
0.0349914
-0.0435494
-0.504283
0.512841
0.0537784
-0.0641365
-0.594877
0.605235
0.0753045
-0.0851893
-0.70101
0.710895
0.0961112
-0.105717
-0.823055
0.832661
0.115642
-0.124113
-0.963358
0.971829
0.132488
-0.139154
-1.12353
1.1302
0.145047
-0.148883
-1.30587
1.3097
0.150899
-0.150281
-1.51327
1.51265
0.14691
-0.141167
-1.46412
1.45838
0.134407
-0.12577
-1.18858
1.17994
0.117284
-0.107031
-0.970793
0.96054
0.0975082
-0.0868786
-0.796272
0.785642
0.0772199
-0.0667944
-0.655289
0.644864
0.0572707
-0.0474227
-0.540576
0.530728
0.0390721
-0.0300958
-0.446775
0.437799
0.0222359
-0.0138191
-0.366699
0.358282
0.00679958
-0.00150682
-0.259127
0.253834
-0.000659529
-0.0531515
0.0538111
-0.119711
0.114114
0.0055975
-0.00446919
-0.000606108
-0.43765
0.442725
0.00858705
-0.0164812
-0.524284
0.532178
0.02607
-0.0349176
-0.615504
0.624351
0.0448222
-0.0538039
-0.720762
0.729743
0.0633417
-0.0719465
-0.841834
0.850439
0.080853
-0.0881883
-0.980049
0.987384
0.095635
-0.101272
-1.1368
1.14244
0.10622
-0.109198
-1.31346
1.31643
0.110187
-0.108907
-1.51155
1.51027
0.105117
-0.0992537
-1.45224
1.44638
0.0924645
-0.0841403
-1.17129
1.16297
0.0761864
-0.0671172
-0.95056
0.941491
0.0586503
-0.0492425
-0.775105
0.765697
0.0408173
-0.0321187
-0.633902
0.625203
0.0246834
-0.0170481
-0.519728
0.512092
0.0106733
-0.00458011
-0.426522
0.420428
-0.000207369
0.00420196
-0.347479
0.343484
-0.00603931
0.00562279
-0.245087
0.245503
-0.00310549
-0.0510374
0.0541429
-0.116125
0.111839
0.00428645
-0.00777599
0.00508485
-0.452806
0.455498
7.3063e-05
-0.00602094
-0.54148
0.547428
0.0133173
-0.0204781
-0.633081
0.640241
0.0285722
-0.0359971
-0.738115
0.74554
0.044127
-0.0513484
-0.858284
0.865505
0.0586394
-0.0649881
-0.994477
1.00083
0.0712716
-0.076122
-1.14768
1.15253
0.0800066
-0.0821282
-1.3189
1.32102
0.0827263
-0.0811534
-1.50863
1.50705
0.0773967
-0.0719513
-1.44041
1.43497
0.0659191
-0.0589164
-1.15515
1.14815
0.0520693
-0.0446833
-0.932883
0.925497
0.0379783
-0.0307301
-0.757433
0.750184
0.024599
-0.0183309
-0.617197
0.610929
0.0132271
-0.00800525
-0.504334
0.499113
0.00404079
-0.000544092
-0.412922
0.409425
-0.0019863
0.00390736
-0.336357
0.334436
-0.00452704
0.00349251
-0.239231
0.240265
-0.00187825
-0.0522675
0.0541458
-0.113471
0.110319
0.00315187
-0.00698711
0.00564628
-0.463387
0.464728
-0.00207091
-0.00262679
-0.554267
0.558964
0.00858714
-0.0141883
-0.646892
0.652494
0.0206837
-0.0266885
-0.752493
0.758498
0.0332733
-0.0391661
-0.872126
0.878018
0.0454936
-0.0506584
-1.00666
1.01183
0.0559817
-0.0596657
-1.15696
1.16064
0.0628722
-0.0645291
-1.323
1.32466
0.0646907
-0.0628221
-1.50532
1.50345
0.0594501
-0.0547373
-1.42949
1.42477
0.0495967
-0.0434669
-1.14152
1.13539
0.0378809
-0.0319878
-0.918532
0.912639
0.0265838
-0.0211171
-0.743685
0.738218
0.0161989
-0.0114023
-0.604877
0.60008
0.00745297
-0.00368741
-0.493714
0.489948
0.00087808
0.00165211
-0.403994
0.401464
-0.0034551
0.00434323
-0.32902
0.328132
-0.0045713
0.00335195
-0.234969
0.236189
-0.00171471
-0.0522226
0.0539373
-0.112717
0.110393
0.00232355
-0.00548649
0.00482984
-0.471234
0.47189
-0.00167051
-0.00205684
-0.56451
0.568237
0.00670266
-0.0115407
-0.657957
0.662795
0.0168022
-0.0219295
-0.764022
0.769149
0.0274416
-0.0323928
-0.883434
0.888385
0.037642
-0.0420949
-1.01678
1.02123
0.0464359
-0.0497122
-1.16414
1.16741
0.0522942
-0.0535141
-1.32599
1.32721
0.0533689
-0.0514289
-1.50155
1.49961
0.0482483
-0.0438184
-1.41976
1.41533
0.0392948
-0.0341426
-1.12965
1.1245
0.0294398
-0.0244156
-0.906957
0.901932
0.0200364
-0.0155271
-0.732971
0.728462
0.011677
-0.00781828
-0.595469
0.591611
0.00472581
-0.00180288
-0.485729
0.482807
-0.000523316
0.00247633
-0.397364
0.395411
-0.00357523
0.00429013
-0.323824
0.323109
-0.00439987
0.0030043
-0.231737
0.233132
-0.00154132
-0.0522694
0.0538107
-0.112898
0.110899
0.00199834
-0.00442049
0.00355373
-0.477662
0.478529
-0.00108676
-0.00229935
-0.572477
0.575863
0.0067117
-0.0107963
-0.667133
0.671218
0.0152922
-0.0197058
-0.773707
0.778121
0.0245473
-0.0289124
-0.893007
0.897372
0.0336469
-0.0374534
-1.02536
1.02917
0.0412456
-0.0440637
-1.17034
1.17316
0.0461422
-0.046955
-1.32811
1.32892
0.0464399
-0.0446532
-1.49757
1.49578
0.0414313
-0.0373549
-1.41065
1.40658
0.0331633
-0.0284821
-1.11943
1.11475
0.0245125
-0.0200165
-0.8971
0.892604
0.0161932
-0.0124408
-0.724153
0.7204
0.00919749
-0.00596582
-0.587984
0.584753
0.00335548
-0.000732852
-0.479474
0.476852
-0.00102984
0.00260077
-0.392114
0.390543
-0.00369917
0.00418694
-0.319472
0.318984
-0.00406395
0.00284216
-0.229242
0.230464
-0.00140845
-0.0523258
0.0537342
-0.113412
0.111843
0.00156932
-0.00322881
0.00232532
-0.483523
0.484426
0.000274711
-0.00318324
-0.579836
0.582744
0.00728136
-0.0110487
-0.675181
0.678948
0.015434
-0.0193091
-0.782363
0.786238
0.0236298
-0.0275264
-0.90174
0.905636
0.0320355
-0.0354677
-1.03297
1.0364
0.0387241
-0.0412677
-1.1757
1.17824
0.0433202
-0.0437905
-1.32961
1.33008
0.0430303
-0.0408908
-1.49347
1.49133
0.0377862
-0.0334514
-1.40226
1.39793
0.0295332
-0.0252456
-1.11003
1.10575
0.0214501
-0.017531
-0.888321
0.884402
0.0140797
-0.0105833
-0.716587
0.71309
0.0079439
-0.00503627
-0.581547
0.578639
0.00263519
-0.000484495
-0.474045
0.471894
-0.001185
0.00272362
-0.387866
0.386327
-0.00359656
0.00398496
-0.316048
0.31566
-0.00378126
0.00266206
-0.227191
0.22831
-0.00134064
-0.0524307
0.0537713
-0.114364
0.11309
0.0012746
-0.00217552
0.00122093
-0.488978
0.489933
0.00158543
-0.0045618
-0.586606
0.589582
0.0084469
-0.0119573
-0.682667
0.686177
0.0158833
-0.0197752
-0.79026
0.794152
0.0239008
-0.028046
-0.909419
0.913564
0.0319722
-0.0352651
-1.03989
1.04318
0.0386174
-0.040837
-1.18057
1.18279
0.0422452
-0.0428008
-1.33024
1.33079
0.0417481
-0.0393515
-1.48895
1.48655
0.0358509
-0.0315355
-1.39357
1.38925
0.0275456
-0.0232834
-1.10114
1.09688
0.0196781
-0.0159407
-0.880441
0.876703
0.0127416
-0.00968347
-0.70976
0.706702
0.0070165
-0.00446948
-0.575745
0.573198
0.00242182
-0.000332073
-0.46948
0.46739
-0.00126932
0.00245267
-0.383965
0.382782
-0.00330209
0.00374397
-0.313052
0.31261
-0.00359593
0.00252446
-0.225525
0.226596
-0.00129467
-0.0526978
0.0539924
-0.115751
0.114626
0.00112475
-0.000967172
-0.00031207
-0.494355
0.495634
0.00306716
-0.00613071
-0.593194
0.596258
0.00982904
-0.0134053
-0.689957
0.693533
0.017386
-0.0210974
-0.798042
0.801754
0.025517
-0.0290749
-0.917258
0.920816
0.0330959
-0.0362918
-1.0466
1.0498
0.0395404
-0.0418479
-1.18487
1.18718
0.0432862
-0.0432839
-1.33085
1.33085
0.0419646
-0.0392097
-1.48365
1.4809
0.0355117
-0.0307057
-1.38447
1.37966
0.0265152
-0.0220994
-1.09254
1.08813
0.0185124
-0.0148031
-0.872782
0.869072
0.0118252
-0.00884188
-0.703536
0.700552
0.00637524
-0.0039821
-0.570609
0.568216
0.0020025
-0.000290111
-0.465199
0.463487
-0.00124086
0.00235812
-0.380516
0.379398
-0.00323606
0.00360312
-0.310336
0.309969
-0.00340212
0.00251055
-0.224081
0.224972
-0.00122007
-0.0530854
0.0543055
-0.117283
0.116513
0.000770514
4.87314e-05
-0.00187192
-0.499925
0.501749
0.00454789
-0.00772201
-0.599402
0.602576
0.011259
-0.0149061
-0.697145
0.700792
0.0189537
-0.0229927
-0.805523
0.809562
0.027069
-0.030954
-0.924655
0.92854
0.0350938
-0.038191
-1.0534
1.0565
0.0415637
-0.0437711
-1.18919
1.1914
0.0450441
-0.0451429
-1.33091
1.33101
0.0435856
-0.040216
-1.47762
1.47425
0.0357459
-0.0305602
-1.37448
1.36929
0.0260644
-0.0213146
-1.08335
1.0786
0.0174911
-0.0139471
-0.865278
0.861734
0.0107217
-0.00801986
-0.697444
0.694742
0.00572655
-0.00344217
-0.566009
0.563724
0.00177454
-0.000115292
-0.461346
0.459687
-0.00119411
0.00239566
-0.377614
0.376413
-0.00309823
0.00344639
-0.307962
0.307614
-0.0033971
0.00252172
-0.222914
0.22379
-0.00123656
-0.0535293
0.0547659
-0.119185
0.118578
0.000606474
0.000871427
-0.00270335
-0.505671
0.507503
0.00603687
-0.00904128
-0.605995
0.609
0.0128816
-0.0166035
-0.704262
0.707983
0.0207499
-0.0246499
-0.813464
0.817364
0.0290743
-0.0328778
-0.932531
0.936334
0.0371768
-0.0408189
-1.06004
1.06368
0.0439362
-0.0464253
-1.19354
1.19603
0.047903
-0.0477196
-1.33069
1.3305
0.0458031
-0.0421487
-1.47041
1.46676
0.0368552
-0.0309618
-1.3633
1.35741
0.0256808
-0.0204921
-1.07352
1.06834
0.0165226
-0.012763
-0.857783
0.854023
0.00971984
-0.00707032
-0.691723
0.689073
0.00494433
-0.0028036
-0.561517
0.559376
0.00119747
0.000195993
-0.457923
0.456529
-0.00149832
0.00253639
-0.374854
0.373816
-0.00321348
0.00355343
-0.305822
0.305482
-0.00341077
0.00251693
-0.222111
0.223005
-0.00122605
-0.0541609
0.055387
-0.121313
0.120931
0.000382286
0.00187614
-0.00396104
-0.511542
0.513627
0.00718685
-0.0104793
-0.612487
0.615779
0.0143911
-0.01815
-0.711555
0.715314
0.0226034
-0.0265875
-0.82139
0.825374
0.0311331
-0.0352709
-0.940685
0.944823
0.0397035
-0.0435145
-1.06723
1.07104
0.0469934
-0.0495545
-1.19837
1.20093
0.0510957
-0.0512813
-1.33026
1.33044
0.0490469
-0.0445857
-1.4623
1.45784
0.0385232
-0.0313359
-1.3505
1.34331
0.0253144
-0.0195841
-1.06262