/*--------------------------------*- C++ -*----------------------------------*\
  =========                 |
  \\      /  F ield         | OpenFOAM: The Open Source CFD Toolbox
   \\    /   O peration     | Website:  https://openfoam.org
    \\  /    A nd           | Version:  6
     \\/     M anipulation  |
\*---------------------------------------------------------------------------*/
FoamFile
{
    version     2.0;
    format      ascii;
    class       volVectorField;
    location    "31";
    object      U;
}
// * * * * * * * * * * * * * * * * * * * * * * * * * * * * * * * * * * * * * //

dimensions      [0 1 -1 0 0 0 0];

internalField   nonuniform List<vector> 
2200
(
(0.87755 -0.0201807 0)
(1.00463 -0.0400179 0)
(1.00275 -0.0343443 0)
(1.00028 -0.0233275 0)
(0.999956 -0.015605 0)
(1.00012 -0.010121 0)
(1.00003 -0.00635629 0)
(0.999923 -0.00386046 0)
(0.999893 -0.00207066 0)
(1.0001 -0.000757624 0)
(0.999991 0.000876121 0)
(0.999941 0.00222624 0)
(0.999945 0.0040397 0)
(1.00005 0.00661012 0)
(1.00012 0.0102821 0)
(0.999953 0.0157203 0)
(1.00035 0.0234061 0)
(1.00287 0.034358 0)
(1.00463 0.0400534 0)
(0.877559 0.0201956 0)
(0.700843 -0.0265846 0)
(0.993574 -0.0585799 0)
(1.02966 -0.0596159 0)
(1.02176 -0.0487126 0)
(1.01398 -0.0360422 0)
(1.00834 -0.0252504 0)
(1.00509 -0.017145 0)
(1.00329 -0.0109058 0)
(1.00236 -0.00590026 0)
(1.00183 -0.00152768 0)
(1.00188 0.00243022 0)
(1.00238 0.00677249 0)
(1.00331 0.0116066 0)
(1.00495 0.0176289 0)
(1.00816 0.0257508 0)
(1.01384 0.0364808 0)
(1.02154 0.0490853 0)
(1.02935 0.0599102 0)
(0.993446 0.0587079 0)
(0.700613 0.0266198 0)
(0.530581 -0.0213881 0)
(0.966318 -0.0552191 0)
(1.05269 -0.0605559 0)
(1.0482 -0.0532881 0)
(1.03203 -0.0417006 0)
(1.0211 -0.0317831 0)
(1.01366 -0.0227553 0)
(1.00902 -0.0153767 0)
(1.00614 -0.00892209 0)
(1.00459 -0.0024889 0)
(1.00454 0.00380431 0)
(1.00582 0.0100986 0)
(1.00867 0.0164334 0)
(1.01345 0.0237478 0)
(1.02089 0.0326635 0)
(1.03162 0.0423729 0)
(1.04782 0.0538047 0)
(1.05245 0.0609656 0)
(0.965714 0.0554665 0)
(0.529684 0.0214879 0)
(0.393329 -0.0132492 0)
(0.910001 -0.0453636 0)
(1.05594 -0.0513156 0)
(1.06658 -0.0472273 0)
(1.05089 -0.03881 0)
(1.03549 -0.030949 0)
(1.02476 -0.0238966 0)
(1.01732 -0.017031 0)
(1.01244 -0.0100314 0)
(1.00999 -0.00282181 0)
(1.00996 0.00453669 0)
(1.01232 0.0117661 0)
(1.01698 0.0186941 0)
(1.02417 0.025341 0)
(1.03472 0.0321105 0)
(1.05037 0.0398717 0)
(1.06601 0.0480576 0)
(1.05481 0.0517554 0)
(0.908503 0.0457319 0)
(0.391503 0.0133571 0)
(0.309546 -0.00619127 0)
(0.846657 -0.0329419 0)
(1.04847 -0.0427366 0)
(1.07749 -0.0389681 0)
(1.06543 -0.0329412 0)
(1.04862 -0.0270658 0)
(1.03572 -0.0221565 0)
(1.02615 -0.0166522 0)
(1.01966 -0.0103287 0)
(1.01661 -0.00283089 0)
(1.01638 0.0054555 0)
(1.01907 0.0127798 0)
(1.02526 0.0189225 0)
(1.03477 0.0241166 0)
(1.0477 0.0288447 0)
(1.06425 0.0344169 0)
(1.07599 0.0400972 0)
(1.04648 0.0435383 0)
(0.843721 0.0333726 0)
(0.306731 0.00632675 0)
(0.265834 -0.00188463 0)
(0.789471 -0.0218346 0)
(1.03232 -0.0335342 0)
(1.08177 -0.0318856 0)
(1.07534 -0.0275073 0)
(1.05877 -0.0226548 0)
(1.04524 -0.0184944 0)
(1.03475 -0.0139824 0)
(1.02704 -0.0090416 0)
(1.02276 -0.00236346 0)
(1.02243 0.00582609 0)
(1.02624 0.0122929 0)
(1.03359 0.0168631 0)
(1.04386 0.0211315 0)
(1.05719 0.024867 0)
(1.07361 0.0292691 0)
(1.07978 0.0332475 0)
(1.02972 0.0345442 0)
(0.785259 0.0223357 0)
(0.262127 0.00203728 0)
(0.241543 -0.000319657 0)
(0.739291 -0.0140132 0)
(1.01319 -0.0266855 0)
(1.08236 -0.0265141 0)
(1.08118 -0.0232 0)
(1.06633 -0.019072 0)
(1.05344 -0.0157096 0)
(1.0437 -0.0118466 0)
(1.03644 -0.00724943 0)
(1.03097 -0.00130881 0)
(1.03061 0.00559771 0)
(1.0353 0.0113227 0)
(1.04212 0.0156713 0)
(1.05138 0.0190303 0)
(1.06385 0.021929 0)
(1.07858 0.0257595 0)
(1.07916 0.0285525 0)
(1.00835 0.0280761 0)
(0.732494 0.0146494 0)
(0.236559 0.000532839 0)
(0.226595 -7.58729e-05 0)
(0.695953 -0.00923425 0)
(0.99218 -0.0219397 0)
(1.08053 -0.0230355 0)
(1.0852 -0.0199973 0)
(1.07219 -0.0164485 0)
(1.05989 -0.0137397 0)
(1.05033 -0.0104526 0)
(1.04319 -0.00536985 0)
(1.03728 0.000199399 0)
(1.0367 0.00540009 0)
(1.04153 0.0107095 0)
(1.04779 0.0152045 0)
(1.05698 0.017848 0)
(1.06927 0.0200204 0)
(1.08161 0.0228121 0)
(1.07618 0.0252738 0)
(0.985833 0.0234571 0)
(0.687057 0.00998707 0)
(0.220361 0.000346095 0)
(0.216926 -2.19508e-05 0)
(0.661326 -0.00641719 0)
(0.972545 -0.0182361 0)
(1.07829 -0.0202667 0)
(1.08882 -0.0177325 0)
(1.07744 -0.0144709 0)
(1.06519 -0.0119392 0)
(1.05534 -0.00860167 0)
(1.04764 -0.00329327 0)
(1.04211 0.00168417 0)
(1.04129 0.00512402 0)
(1.04558 0.00970273 0)
(1.05232 0.0143056 0)
(1.06155 0.0170391 0)
(1.07319 0.0189267 0)
(1.084 0.0216478 0)
(1.07208 0.0232353 0)
(0.963057 0.0201879 0)
(0.648857 0.00741803 0)
(0.208839 0.000352499 0)
(0.209673 0.000156061 0)
(0.63298 -0.00454823 0)
(0.953236 -0.0155129 0)
(1.07489 -0.0185787 0)
(1.09182 -0.0166372 0)
(1.08174 -0.0133402 0)
(1.06913 -0.0101357 0)
(1.05935 -0.00642769 0)
(1.05191 -0.00156261 0)
(1.04785 0.00297853 0)
(1.04695 0.00608621 0)
(1.04943 0.0100175 0)
(1.05569 0.014122 0)
(1.06428 0.0169087 0)
(1.07617 0.0191209 0)
(1.08527 0.0212783 0)
(1.0664 0.0221287 0)
(0.940711 0.0178993 0)
(0.617015 0.00582918 0)
(0.199603 0.000243113 0)
(0.204166 0.000330921 0)
(0.610468 -0.00286374 0)
(0.936005 -0.0127848 0)
(1.07143 -0.0164102 0)
(1.09388 -0.0149133 0)
(1.08456 -0.0120208 0)
(1.07164 -0.00873699 0)
(1.06209 -0.00519584 0)
(1.05479 -0.000862466 0)
(1.05088 0.00344465 0)
(1.04964 0.00719787 0)
(1.05121 0.0110106 0)
(1.05681 0.0144204 0)
(1.06539 0.0168032 0)
(1.07779 0.0189395 0)
(1.08552 0.0204835 0)
(1.06027 0.0210858 0)
(0.919095 0.0158891 0)
(0.589517 0.0044216 0)
(0.191335 0.000161654 0)
(0.200121 0.000376523 0)
(0.593255 -0.00134638 0)
(0.920792 -0.00991549 0)
(1.06771 -0.0135179 0)
(1.09596 -0.0118899 0)
(1.08754 -0.00933939 0)
(1.07423 -0.00683092 0)
(1.0641 -0.0036581 0)
(1.0562 0.000485317 0)
(1.05154 0.00470387 0)
(1.04996 0.00885821 0)
(1.05184 0.0123617 0)
(1.05779 0.0152343 0)
(1.06655 0.016996 0)
(1.07854 0.0179645 0)
(1.08485 0.0191188 0)
(1.05249 0.0189265 0)
(0.898333 0.0135986 0)
(0.566547 0.00329264 0)
(0.184042 0.000257976 0)
(0.197788 0.000369999 0)
(0.581361 -0.000166742 0)
(0.908364 -0.00673576 0)
(1.06529 -0.00937592 0)
(1.09877 -0.00763754 0)
(1.09189 -0.0057067 0)
(1.0785 -0.00390499 0)
(1.06739 -0.00111713 0)
(1.05861 0.00243848 0)
(1.05309 0.00621898 0)
(1.05118 0.010187 0)
(1.0535 0.013107 0)
(1.05957 0.0152191 0)
(1.06881 0.016246 0)
(1.08088 0.0167756 0)
(1.08501 0.017137 0)
(1.04611 0.0167005 0)
(0.880251 0.01137 0)
(0.548069 0.00263874 0)
(0.17757 0.000410651 0)
(0.197343 0.000352518 0)
(0.575122 0.00073152 0)
(0.900084 -0.00352335 0)
(1.06337 -0.00601479 0)
(1.10203 -0.00421911 0)
(1.09689 -0.00213615 0)
(1.08381 -0.000208566 0)
(1.07231 0.00269822 0)
(1.06326 0.00559635 0)
(1.05684 0.00852527 0)
(1.05433 0.0116587 0)
(1.05646 0.013612 0)
(1.06209 0.0149211 0)
(1.07096 0.0163179 0)
(1.08158 0.0160373 0)
(1.08347 0.0156947 0)
(1.03738 0.014538 0)
(0.862083 0.00931087 0)
(0.532932 0.00236062 0)
(0.171853 0.000498512 0)
(0.198221 0.000361118 0)
(0.574108 0.00154347 0)
(0.893337 -0.00129967 0)
(1.06263 -0.0026382 0)
(1.10497 -0.00102382 0)
(1.10101 0.000804862 0)
(1.08835 0.00312228 0)
(1.07717 0.00626826 0)
(1.06849 0.00885342 0)
(1.06141 0.01139 0)
(1.05793 0.0138716 0)
(1.05881 0.0151807 0)
(1.06321 0.0160396 0)
(1.07093 0.0167424 0)
(1.08103 0.0160555 0)
(1.0814 0.0150766 0)
(1.03004 0.0134616 0)
(0.847055 0.00817072 0)
(0.520877 0.00231265 0)
(0.166774 0.00053483 0)
(0.200637 0.000619773 0)
(0.575309 0.00197334 0)
(0.890415 0.00167475 0)
(1.06202 -0.000198222 0)
(1.10776 0.00139396 0)
(1.10416 0.00377151 0)
(1.09135 0.00637773 0)
(1.08029 0.00937364 0)
(1.07156 0.0120445 0)
(1.06409 0.0148395 0)
(1.06006 0.0171786 0)
(1.05981 0.018153 0)
(1.0631 0.0181984 0)
(1.07029 0.0178439 0)
(1.0797 0.016702 0)
(1.07729 0.0154361 0)
(1.01911 0.01296 0)
(0.830176 0.00734103 0)
(0.508889 0.00244079 0)
(0.161598 0.000631069 0)
(0.205462 0.000978062 0)
(0.579897 0.00280437 0)
(0.891684 0.00369233 0)
(1.06306 0.00361327 0)
(1.11046 0.0053496 0)
(1.10745 0.0074987 0)
(1.09411 0.00988149 0)
(1.08239 0.0127088 0)
(1.07248 0.0155152 0)
(1.06408 0.0185236 0)
(1.05907 0.0207883 0)
(1.05825 0.0217197 0)
(1.06121 0.0210469 0)
(1.06829 0.0195848 0)
(1.07692 0.0179821 0)
(1.07295 0.01589 0)
(1.0106 0.0126634 0)
(0.817896 0.00721303 0)
(0.49892 0.00278565 0)
(0.156577 0.00075436 0)
(0.210894 0.00120607 0)
(0.587317 0.00384801 0)
(0.89576 0.00599741 0)
(1.0657 0.00709061 0)
(1.11427 0.0093462 0)
(1.11158 0.0120168 0)
(1.09782 0.0151182 0)
(1.08543 0.017954 0)
(1.0744 0.0207313 0)
(1.06493 0.0234862 0)
(1.05886 0.0252769 0)
(1.05682 0.0253851 0)
(1.05885 0.0241136 0)
(1.06524 0.0220925 0)
(1.07288 0.0200253 0)
(1.06619 0.017178 0)
(0.997822 0.0130512 0)
(0.80109 0.00745814 0)
(0.486072 0.00329193 0)
(0.150443 0.000923386 0)
(0.219849 0.00149663 0)
(0.601644 0.00515944 0)
(0.905383 0.00863914 0)
(1.07107 0.0112369 0)
(1.11879 0.0139701 0)
(1.11702 0.0170864 0)
(1.10338 0.0203914 0)
(1.09054 0.0236938 0)
(1.07865 0.0268048 0)
(1.06765 0.0294738 0)
(1.05915 0.0307514 0)
(1.05523 0.0303365 0)
(1.05626 0.0283423 0)
(1.06181 0.0254745 0)
(1.06821 0.0222931 0)
(1.05952 0.0183655 0)
(0.988166 0.0137338 0)
(0.789552 0.00844224 0)
(0.475229 0.0039817 0)
(0.144359 0.0010883 0)
(0.22941 0.00178958 0)
(0.616198 0.00583933 0)
(0.917271 0.010613 0)
(1.07931 0.0144057 0)
(1.12604 0.0182241 0)
(1.12386 0.022155 0)
(1.10962 0.0265384 0)
(1.09591 0.0307623 0)
(1.08289 0.0344402 0)
(1.07042 0.0373692 0)
(1.05993 0.0384372 0)
(1.05411 0.0372164 0)
(1.05293 0.0341006 0)
(1.05709 0.0304369 0)
(1.06198 0.0266885 0)
(1.05041 0.022119 0)
(0.973038 0.0164727 0)
(0.769688 0.010153 0)
(0.458088 0.00486426 0)
(0.135946 0.00131976 0)
(0.243156 0.00243184 0)
(0.637733 0.00791791 0)
(0.934735 0.0138824 0)
(1.08989 0.0190645 0)
(1.13363 0.023564 0)
(1.13132 0.028645 0)
(1.11629 0.0338927 0)
(1.10125 0.0388733 0)
(1.08651 0.0434467 0)
(1.07167 0.0468823 0)
(1.05816 0.0476434 0)
(1.05016 0.0457957 0)
(1.04828 0.042103 0)
(1.05154 0.0369709 0)
(1.05446 0.032192 0)
(1.04068 0.025814 0)
(0.959784 0.0192201 0)
(0.754361 0.0122602 0)
(0.442491 0.00594306 0)
(0.127223 0.00157425 0)
(0.25925 0.00299588 0)
(0.661993 0.0093227 0)
(0.954778 0.0169711 0)
(1.10377 0.0237252 0)
(1.14476 0.0299943 0)
(1.14088 0.0366845 0)
(1.12454 0.0430135 0)
(1.10744 0.0493482 0)
(1.09005 0.0549131 0)
(1.07203 0.058628 0)
(1.05601 0.0591359 0)
(1.0458 0.0563798 0)
(1.04134 0.0512761 0)
(1.04316 0.0449924 0)
(1.04479 0.0390566 0)
(1.02717 0.031571 0)
(0.939323 0.0233472 0)
(0.727451 0.014557 0)
(0.417776 0.00694916 0)
(0.115137 0.00183162 0)
(0.281605 0.00424138 0)
(0.695792 0.0134603 0)
(0.982428 0.0232424 0)
(1.12162 0.0319626 0)
(1.15772 0.0392361 0)
(1.15289 0.0470352 0)
(1.13468 0.055098 0)
(1.11511 0.0628817 0)
(1.09459 0.0694245 0)
(1.07304 0.0733864 0)
(1.05328 0.073112 0)
(1.04016 0.0687886 0)
(1.03474 0.062396 0)
(1.03466 0.0543312 0)
(1.03342 0.046313 0)
(1.01152 0.0368808 0)
(0.918839 0.0269515 0)
(0.704944 0.0170997 0)
(0.395475 0.00828434 0)
(0.103215 0.00211756 0)
(0.311952 0.00528654 0)
(0.739455 0.01599 0)
(1.01695 0.0292877 0)
(1.14418 0.0410536 0)
(1.17487 0.0505646 0)
(1.16747 0.0616574 0)
(1.14669 0.0713597 0)
(1.12401 0.0805782 0)
(1.09941 0.0877951 0)
(1.07326 0.0912359 0)
(1.04957 0.0894672 0)
(1.03375 0.0833839 0)
(1.02491 0.0750139 0)
(1.02235 0.065494 0)
(1.01849 0.0553637 0)
(0.991373 0.044158 0)
(0.890754 0.0321092 0)
(0.668232 0.0201114 0)
(0.360754 0.00937237 0)
(0.087157 0.00235894 0)
(0.347327 0.00876963 0)
(0.793542 0.0249258 0)
(1.05944 0.0411519 0)
(1.17243 0.0561212 0)
(1.19545 0.0687219 0)
(1.18427 0.0814773 0)
(1.15978 0.0932229 0)
(1.13259 0.103638 0)
(1.10323 0.110961 0)
(1.07262 0.113081 0)
(1.04556 0.10925 0)
(1.02648 0.100224 0)
(1.01565 0.0892731 0)
(1.01014 0.0773737 0)
(1.0019 0.065124 0)
(0.968557 0.0514424 0)
(0.860912 0.0372585 0)
(0.635841 0.0235647 0)
(0.330818 0.0112682 0)
(0.072607 0.00267142 0)
(0.427235 0.0139038 0)
(0.874978 0.0344268 0)
(1.11753 0.0583455 0)
(1.2076 0.0790553 0)
(1.22035 0.092932 1.23837e-33)
(1.20305 0.11026 -5.37102e-34)
(1.17263 0.12353 0)
(1.13988 0.134 0)
(1.1051 0.139538 0)
(1.0692 0.138502 0)
(1.03731 0.13063 0)
(1.01503 0.118515 0)
(1.0009 0.105176 0)
(0.991943 0.0912625 0)
(0.980096 0.0763286 0)
(0.940504 0.0606372 0)
(0.823027 0.0439284 0)
(0.585229 0.0274227 0)
(0.281651 0.0115383 0)
(0.051932 0.00241234 0)
(0.491558 0.0284861 1.06255e-19)
(0.968012 0.0557315 -7.95919e-20)
(1.17839 0.0863327 0)
(1.24373 0.11097 5.65015e-20)
(1.24681 0.130962 -4.57756e-20)
(1.22019 0.150393 5.66679e-34)
(1.18348 0.163631 0)
(1.1451 0.172436 2.79666e-20)
(1.10491 0.174944 -9.0432e-20)
(1.06436 0.170299 1.81427e-20)
(1.02931 0.158734 0)
(1.00365 0.143239 -4.31383e-20)
(0.985786 0.126675 -5.08514e-20)
(0.972406 0.109763 8.86775e-20)
(0.953072 0.0923631 -6.96707e-20)
(0.902161 0.0730668 0)
(0.769987 0.052916 -2.48205e-20)
(0.519715 0.0322941 0)
(0.229536 0.0145615 -1.36868e-19)
(0.0345864 0.00251989 1.61754e-19)
(0.523747 0.0536506 -1.32075e-20)
(1.02513 0.0928493 2.72174e-19)
(1.22405 0.128895 -2.60806e-20)
(1.27516 0.155636 -1.61621e-19)
(1.26911 0.178458 -9.71078e-20)
(1.23444 0.19839 1.57006e-19)
(1.19166 0.21074 0)
(1.14759 0.217395 0)
(1.10171 0.216778 1.44791e-19)
(1.05517 0.207842 0)
(1.01319 0.191772 1.5873e-19)
(0.980375 0.172763 4.62834e-20)
(0.956942 0.154611 3.4663e-22)
(0.937322 0.136025 -9.64957e-20)
(0.91402 0.116213 0)
(0.8597 0.0944849 0)
(0.72483 0.0691314 -4.05243e-19)
(0.482903 0.047544 1.01423e-18)
(0.215461 0.0202642 -6.01482e-19)
(0.0305604 0.00397516 -7.10838e-19)
(0.530861 0.0749055 -2.14117e-19)
(1.05621 0.139899 7.44792e-20)
(1.25725 0.183124 3.3325e-20)
(1.30038 0.210754 2.85185e-19)
(1.2865 0.234163 1.37344e-20)
(1.24474 0.252713 -4.1532e-19)
(1.19626 0.262511 1.37054e-19)
(1.14658 0.26578 0)
(1.09546 0.261332 -3.08207e-19)
(1.04439 0.248371 2.60422e-19)
(0.99808 0.229114 -4.27182e-19)
(0.96222 0.208339 1.9801e-19)
(0.93679 0.188312 -1.2314e-19)
(0.916185 0.169144 2.79847e-19)
(0.886736 0.147213 0)
(0.827933 0.120881 -1.00303e-19)
(0.696892 0.0934266 0)
(0.47211 0.0622056 5.56499e-19)
(0.2172 0.0325818 -1.32141e-18)
(0.0367972 0.00672043 8.27643e-19)
(0.528756 0.103525 7.67648e-19)
(1.07693 0.192434 -3.21721e-19)
(1.2791 0.242954 -6.00933e-20)
(1.31739 0.272458 0)
(1.29783 0.295303 -2.02688e-19)
(1.25067 0.311193 2.46833e-19)
(1.19748 0.31728 -1.47152e-19)
(1.14325 0.316006 0)
(1.08823 0.306583 2.19455e-19)
(1.03278 0.289118 -1.84047e-19)
(0.979693 0.266005 3.6902e-19)
(0.93679 0.241733 0)
(0.904744 0.219277 -2.62418e-19)
(0.877048 0.19845 1.49259e-19)
(0.850982 0.178422 3.67259e-19)
(0.798534 0.154139 -3.23004e-19)
(0.676099 0.121267 5.14834e-19)
(0.466992 0.083563 -1.13947e-18)
(0.22879 0.0457221 7.19779e-19)
(0.0471338 0.0107203 -9.01075e-19)
(0.516205 0.130865 -3.79142e-19)
(1.08383 0.243232 2.76855e-19)
(1.29149 0.303828 -1.94289e-19)
(1.3267 0.336332 3.34751e-19)
(1.30282 0.358731 -2.84337e-19)
(1.25178 0.371651 8.37035e-20)
(1.1952 0.373505 3.62066e-21)
(1.13727 0.367213 -2.69151e-19)
(1.07808 0.352875 -2.32118e-19)
(1.01705 0.3322 -3.94872e-19)
(0.958955 0.306849 -7.92147e-19)
(0.914744 0.279526 -2.37166e-19)
(0.884258 0.253615 2.42074e-21)
(0.859413 0.234753 -5.00289e-19)
(0.825887 0.214377 -6.2421e-21)
(0.770446 0.183778 4.66867e-19)
(0.657506 0.149302 -1.40139e-19)
(0.465819 0.106119 -8.19882e-20)
(0.241642 0.060469 0)
(0.0567568 0.0157425 1.90001e-18)
(0.50034 0.155242 0)
(1.08009 0.2914 -6.66003e-20)
(1.29545 0.362528 -5.94621e-20)
(1.32938 0.398979 -1.21983e-20)
(1.30237 0.421518 2.93983e-19)
(1.24858 0.431844 -1.8562e-19)
(1.18963 0.429606 1.64585e-19)
(1.12916 0.418505 4.37286e-19)
(1.06703 0.399714 -1.27044e-19)
(1.00143 0.374917 2.01536e-19)
(0.938819 0.345828 4.25104e-19)
(0.891815 0.314213 5.13479e-19)
(0.854052 0.287432 -3.03874e-19)
(0.822434 0.265433 5.38952e-19)
(0.79681 0.242689 -4.24137e-19)
(0.75088 0.218097 0)
(0.647023 0.177658 -1.05888e-18)
(0.468076 0.129633 1.42595e-18)
(0.252457 0.0759758 1.06243e-19)
(0.064096 0.0210689 -1.99259e-18)
(0.48526 0.177819 -6.70287e-21)
(1.07331 0.338817 4.04309e-19)
(1.29459 0.420649 4.43129e-19)
(1.32717 0.460461 -4.37754e-19)
(1.29759 0.482771 2.2029e-19)
(1.2418 0.490519 -1.90711e-19)
(1.1813 0.484444 3.39074e-19)
(1.11893 0.468974 -1.42277e-19)
(1.05346 0.445946 -5.24314e-19)
(0.983283 0.417963 2.35001e-22)
(0.918059 0.385443 -4.58723e-19)
(0.870579 0.350354 -5.49901e-19)
(0.835377 0.322512 3.31381e-19)
(0.807848 0.298991 -1.93149e-19)
(0.776141 0.277914 4.57501e-19)
(0.727087 0.244074 0)
(0.631491 0.204935 -6.52511e-19)
(0.466359 0.152638 9.63266e-19)
(0.259972 0.091163 1.82807e-18)
(0.0694033 0.026488 -2.15147e-18)
(0.471504 0.198658 6.31507e-19)
(1.06215 0.383198 -3.33886e-19)
(1.28921 0.475285 -3.89928e-19)
(1.32125 0.518805 4.644e-19)
(1.28961 0.541305 1.11164e-20)
(1.23217 0.546912 -3.93163e-19)
(1.17052 0.537329 -1.88312e-19)
(1.10663 0.518053 -1.6649e-19)
(1.03847 0.491888 -2.88582e-19)
(0.964466 0.461021 4.60851e-19)
(0.896401 0.422558 4.73533e-19)
(0.847032 0.384205 8.75875e-19)
(0.80783 0.353551 0)
(0.776245 0.329478 5.70142e-21)
(0.750305 0.304536 -1.24261e-18)
(0.71002 0.277752 2.89346e-19)
(0.619173 0.232113 1.40147e-18)
(0.46093 0.1756 -4.1285e-19)
(0.258304 0.106128 8.60974e-19)
(0.0705517 0.0302245 -7.19619e-20)
(0.460397 0.218466 8.15912e-21)
(1.05163 0.426989 -2.59752e-19)
(1.28162 0.528872 -2.65029e-19)
(1.31267 0.575115 6.99205e-19)
(1.27917 0.59718 -6.42027e-19)
(1.22048 0.600606 4.08569e-19)
(1.15814 0.587806 1.9795e-19)
(1.09291 0.565235 5.14345e-19)
(1.0221 0.536325 5.95858e-19)
(0.945035 0.501408 -5.15442e-19)
(0.877964 0.45931 0)
(0.827819 0.41775 -3.23363e-19)
(0.790459 0.386221 3.71249e-19)
(0.762026 0.360198 4.5457e-19)
(0.732216 0.336708 -2.63299e-19)
(0.686775 0.301813 -6.35591e-19)
(0.60136 0.258761 -1.89217e-19)
(0.449804 0.194552 -1.26628e-21)
(0.250386 0.115619 0)
(0.0682594 0.0319002 0)
(0.451539 0.237278 2.22516e-19)
(1.03976 0.467973 0)
(1.27164 0.579167 -2.6748e-19)
(1.30202 0.628335 9.5803e-20)
(1.26702 0.650187 6.95832e-19)
(1.20733 0.651517 -1.83941e-19)
(1.14421 0.635705 2.05956e-19)
(1.07757 0.610506 -3.5672e-19)
(1.00416 0.579444 4.61558e-19)
(0.924428 0.541869 -1.56063e-19)
(0.855526 0.495594 2.69833e-19)
(0.803994 0.449233 1.02766e-18)
(0.762659 0.414698 1.3668e-20)
(0.732051 0.386287 -4.77519e-19)
(0.705501 0.358976 8.68308e-19)
(0.66874 0.33163 4.51649e-21)
(0.586597 0.279131 2.02438e-19)
(0.437986 0.211131 -9.64756e-19)
(0.241465 0.121698 9.83081e-19)
(0.0640952 0.0329667 -1.17011e-18)
(0.445505 0.255893 7.86229e-23)
(1.02906 0.508059 0)
(1.26079 0.627922 0)
(1.29009 0.679167 -1.17498e-19)
(1.25365 0.700295 -2.374e-19)
(1.1931 0.699531 2.17732e-19)
(1.12953 0.681226 -4.14573e-19)
(1.06166 0.65352 0)
(0.986291 0.620628 -6.71239e-19)
(0.906271 0.579957 7.41581e-19)
(0.838456 0.528084 7.49513e-19)
(0.78304 0.479527 -3.73698e-19)
(0.743256 0.443331 -4.43428e-19)
(0.714229 0.413074 1.03533e-18)
(0.6861 0.388036 -3.08654e-19)
(0.644461 0.347912 -3.66856e-19)
(0.565588 0.29999 -2.19002e-19)
(0.421423 0.223887 -1.03775e-18)
(0.229154 0.125783 1.49737e-19)
(0.0585737 0.0330255 1.2595e-18)
(0.440696 0.275073 7.46281e-20)
(1.01797 0.545705 1.3881e-19)
(1.24871 0.673543 2.26523e-20)
(1.27705 0.727037 3.03313e-22)
(1.23944 0.747713 -1.52089e-19)
(1.17835 0.744899 4.29204e-19)
(1.11436 0.723992 0)
(1.0455 0.694429 2.09334e-19)
(0.968437 0.660062 -1.65062e-19)
(0.885553 0.61663 1.24593e-18)
(0.811788 0.560555 -1.68007e-19)
(0.754426 0.509332 1.89805e-19)
(0.715003 0.468965 0)
(0.682903 0.436114 -5.58262e-19)
(0.657603 0.403581 6.68176e-19)
(0.624316 0.372683 0)
(0.547325 0.313269 -4.72305e-19)
(0.402805 0.233438 1.38911e-18)
(0.215747 0.12775 1.63205e-19)
(0.052514 0.0321793 -1.54798e-18)
(0.437209 0.29359 1.42727e-19)
(1.00809 0.582493 -1.79559e-19)
(1.23657 0.717607 0)
(1.26357 0.772576 -2.4859e-19)
(1.22485 0.792338 0)
(1.16326 0.787402 -4.84266e-19)
(1.09913 0.764468 0)
(1.02933 0.733316 0)
(0.950206 0.69765 -1.98605e-19)
(0.866043 0.651551 -1.17757e-18)
(0.794328 0.592472 -1.3792e-18)
(0.734684 0.538217 2.15188e-19)
(0.69063 0.494472 7.64298e-19)
(0.663871 0.457814 6.09135e-19)
(0.637338 0.428716 -2.14417e-18)
(0.598226 0.383101 -8.56224e-19)
(0.522451 0.328671 5.014e-19)
(0.382514 0.239623 0)
(0.20097 0.128012 1.40549e-18)
(0.0461156 0.0306507 -1.6653e-18)
(0.43468 0.311275 -1.36677e-19)
(0.998186 0.616862 1.79847e-19)
(1.22402 0.758603 0)
(1.24983 0.815327 -1.04874e-20)
(1.21022 0.834555 1.13195e-19)
(1.14843 0.827621 0)
(1.08423 0.802568 1.26511e-19)
(1.01355 0.770027 1.32574e-19)
(0.933119 0.733524 -3.94195e-19)
(0.847447 0.685823 1.64697e-19)
(0.767325 0.623365 0)
(0.702877 0.564574 9.00393e-19)
(0.663747 0.515633 4.88142e-21)
(0.631651 0.477361 3.27839e-19)
(0.607431 0.438526 3.87236e-19)
(0.576414 0.40367 0)
(0.502524 0.334668 -8.19583e-19)
(0.36023 0.243185 1.60992e-18)
(0.18515 0.126281 -1.70549e-18)
(0.039851 0.0284254 3.58331e-18)
(0.433217 0.327909 0)
(0.98968 0.650387 0)
(1.21186 0.7982 1.16046e-19)
(1.23612 0.855927 0)
(1.19567 0.874172 0)
(1.1338 0.865208 -5.05374e-19)
(1.06965 0.838463 1.32535e-19)
(0.998157 0.804961 1.74942e-20)
(0.916062 0.767685 -9.6774e-20)
(0.828408 0.718324 0)
(0.748709 0.652671 -2.04912e-19)
(0.684477 0.591578 -7.30667e-19)
(0.637776 0.539138 -8.65862e-19)
(0.609099 0.494598 -3.43603e-19)
(0.586416 0.460099 4.18835e-19)
(0.549157 0.406615 -9.86587e-19)
(0.473968 0.344761 1.76153e-18)
(0.338027 0.24355 5.29102e-21)
(0.168769 0.122733 -1.63592e-18)
(0.0340204 0.0258426 -2.41532e-19)
(0.432379 0.34365 0)
(0.981267 0.6815 1.2797e-19)
(1.19975 0.83485 -1.14673e-19)
(1.2227 0.893931 0)
(1.18157 0.911619 0)
(1.11971 0.900773 1.0637e-18)
(1.05565 0.872266 0)
(0.983527 0.837911 0)
(0.900122 0.800038 -8.76602e-19)
(0.811175 0.749598 2.10476e-19)
(0.725707 0.682585 -1.8619e-18)
(0.654795 0.617887 0)
(0.608143 0.56027 -9.33853e-19)
(0.575634 0.512038 1.09164e-20)
(0.552261 0.46276 -1.34446e-18)
(0.524648 0.421426 5.304e-19)
(0.454064 0.342768 3.04682e-21)
(0.314829 0.240255 -1.86349e-18)
(0.153069 0.117394 8.81679e-19)
(0.0295759 0.0229139 2.58412e-19)
(0.432075 0.358533 0)
(0.97408 0.711851 1.00024e-19)
(1.18814 0.870235 -1.21735e-19)
(1.20942 0.92992 -3.96113e-19)
(1.16765 0.946615 -1.47577e-19)
(1.10605 0.933942 1.32418e-19)
(1.04221 0.904089 -1.20675e-19)
(0.969084 0.869074 9.99119e-19)
(0.884193 0.830652 9.37719e-19)
(0.793916 0.779356 1.6697e-18)
(0.70764 0.712541 1.54769e-18)
(0.63329 0.646637 2.64326e-19)
(0.58046 0.584368 1.34027e-18)
(0.548228 0.526046 8.12059e-19)
(0.527114 0.480092 9.63154e-19)
(0.495073 0.41405 -5.78509e-19)
(0.424215 0.345045 -6.80401e-19)
(0.296435 0.233944 8.0179e-19)
(0.140861 0.107831 -4.73625e-19)
(0.0272994 0.0196666 8.34891e-19)
(0.43192 0.372732 -9.23928e-20)
(0.966867 0.739893 -1.65693e-19)
(1.17673 0.902923 -5.95719e-20)
(1.19662 0.96355 1.69946e-20)
(1.1544 0.979616 4.41189e-19)
(1.09302 0.965246 -3.01922e-19)
(1.02919 0.933939 1.25238e-19)
(0.955515 0.898454 -2.16251e-20)
(0.870255 0.85979 -1.1037e-18)
(0.779176 0.808322 -1.80153e-18)
(0.687827 0.740703 1.1079e-19)
(0.609012 0.672717 0)
(0.551933 0.606144 0)
(0.510648 0.545091 -4.2591e-19)
(0.484814 0.475218 -1.56677e-18)
(0.462631 0.420009 1.24324e-18)
(0.405272 0.327366 7.41056e-19)
(0.280606 0.216915 0)
(0.144694 0.096166 1.51437e-18)
(0.0344763 0.0175546 -8.98559e-19)
(0.431901 0.386193 5.18527e-20)
(0.96055 0.767157 -4.10466e-20)
(1.16576 0.934394 1.1494e-19)
(1.18396 0.995258 1.91906e-19)
(1.14126 1.01027 1.41054e-19)
(1.08033 0.994304 -8.5046e-20)
(1.01687 0.962042 0)
(0.942492 0.926109 -1.26968e-18)
(0.856083 0.887041 1.35026e-19)
(0.763679 0.834923 0)
(0.669941 0.768742 0)
(0.58621 0.702009 1.62069e-19)
(0.522618 0.633324 2.08895e-19)
(0.481529 0.559641 -4.57305e-19)
(0.4538 0.494558 1.12411e-18)
(0.419192 0.396286 -1.34837e-18)
(0.368766 0.31049 -1.58555e-18)
(0.284511 0.185487 1.39773e-18)
(0.189285 0.0807485 -5.44839e-19)
(0.0897495 0.027862 3.18151e-19)
(0.431704 0.398856 -3.23965e-20)
(0.954082 0.792238 0)
(1.15495 0.963456 0)
(1.17175 1.02489 7.5711e-20)
(1.12886 1.03915 -6.12943e-20)
(1.0685 1.0217 -2.14941e-20)
(1.00519 0.988348 5.11428e-19)
(0.930267 0.952186 1.36763e-18)
(0.843513 0.912995 2.04196e-18)
(0.750087 0.86075 -1.31993e-19)
(0.652194 0.795417 2.63083e-19)
(0.565299 0.727595 -1.4755e-18)
(0.496114 0.658199 -1.41974e-18)
(0.441349 0.58717 -2.44098e-19)
(0.399533 0.490019 0)
(0.375833 0.403648 -9.43917e-21)
(0.331212 0.256213 8.59939e-19)
(0.255737 0.113945 -1.49182e-18)
(0.201436 -0.0240104 1.15631e-18)
(0.0672607 -0.0283122 9.96871e-19)
(0.431503 0.41106 6.03501e-20)
(0.947959 0.816383 1.65925e-20)
(1.14435 0.991329 8.12234e-21)
(1.15968 1.05291 -5.01658e-20)
(1.11659 1.06614 0)
(1.05683 1.04738 -6.15476e-19)
(0.993808 1.01351 -6.92137e-19)
(0.91822 0.977252 3.81526e-20)
(0.830445 0.937713 -1.08248e-18)
(0.735437 0.885094 -1.30165e-19)
(0.635481 0.821404 1.20895e-19)
(0.542825 0.756608 1.2932e-18)
(0.467764 0.689292 1.38658e-18)
(0.409479 0.606331 2.36576e-19)
(0.365497 0.52699 1.17917e-18)
(0.302533 0.37845 0)
(0.201274 0.247088 0)
(0.0551878 0.282657 9.83371e-19)
(-0.0342439 0.706702 -1.91654e-20)
(0.000164945 1.66278 -1.09917e-18)
(0.431058 0.422727 -2.74823e-20)
(0.941783 0.838865 -1.09383e-19)
(1.13386 1.01742 2.761e-19)
(1.14798 1.07953 -2.85039e-19)
(1.10502 1.09217 8.27394e-20)
(1.04602 1.07237 -6.62593e-19)
(0.983085 1.03798 0)
(0.906753 1.0019 -1.1805e-18)
(0.81843 0.962719 0)
(0.722414 0.910682 1.94736e-18)
(0.617745 0.848245 -1.37539e-19)
(0.522673 0.785268 1.54215e-19)
(0.441721 0.718265 1.58063e-18)
(0.367871 0.650406 -5.01543e-19)
(0.279423 0.532273 -5.98843e-19)
(0.212987 0.447375 0)
(0.0993224 0.597811 0)
(0.0328213 1.39678 0)
(0.0598988 2.49035 -5.73187e-19)
(0.0756678 2.91874 -3.45161e-19)
(0.43052 0.433711 0)
(0.935949 0.860502 0)
(1.12372 1.04244 -9.01766e-20)
(1.1366 1.10466 2.50105e-19)
(1.09379 1.11655 -2.78732e-19)
(1.03549 1.09595 6.2416e-19)
(0.972636 1.06164 8.4558e-20)
(0.895674 1.02611 -6.58358e-20)
(0.806635 0.987118 1.47656e-19)
(0.708301 0.934927 -2.23716e-18)
(0.601323 0.87451 2.59669e-19)
(0.501996 0.816099 1.29528e-18)
(0.412908 0.756791 -1.58145e-18)
(0.330188 0.67285 -1.6815e-18)
(0.25988 0.605746 5.6244e-19)
(0.172598 0.769505 0)
(0.100001 1.64439 7.86558e-19)
(0.109179 2.70999 9.01039e-19)
(0.1134 3.08098 -1.01691e-18)
(0.101122 3.20768 1.1263e-18)
(0.429521 0.444326 0)
(0.930136 0.880604 -2.40271e-20)
(1.11378 1.06587 2.68274e-20)
(1.12565 1.12852 -2.44519e-19)
(1.08329 1.14003 2.92573e-19)
(1.02593 1.11891 0)
(0.963076 1.08461 0)
(0.885266 1.04959 0)
(0.795286 1.01117 9.36769e-19)
(0.696222 0.960267 1.13161e-19)
(0.586247 0.903183 0)
(0.483595 0.847419 -1.29604e-18)
(0.392528 0.788392 0)
(0.294543 0.727208 1.20318e-18)
(0.212131 0.822248 -8.11209e-19)
(0.160243 1.54617 -6.44077e-19)
(0.154154 2.70965 -1.52294e-18)
(0.168634 3.1255 -8.33288e-19)
(0.145641 3.25498 -1.24215e-18)
(0.127734 3.29031 1.09104e-18)
(0.427773 0.453677 -2.41989e-21)
(0.924553 0.899709 1.69307e-20)
(1.10428 1.08828 2.49267e-20)
(1.11516 1.15098 2.14189e-19)
(1.07337 1.16197 0)
(1.01671 1.14056 0)
(0.953557 1.10677 0)
(0.875007 1.0727 8.11264e-20)
(0.784854 1.03521 -1.17481e-18)
(0.683851 0.985194 0)
(0.572017 0.930066 0)
(0.468978 0.878829 0)
(0.363004 0.828245 0)
(0.300322 0.832368 9.03172e-19)
(0.257798 1.2745 2.17234e-18)
(0.218423 2.47138 6.40529e-19)
(0.224645 3.09886 1.35264e-18)
(0.21194 3.27725 -1.07735e-18)
(0.17252 3.33151 3.89553e-19)
(0.152241 3.34237 0)
(0.42523 0.461798 7.34397e-21)
(0.918139 0.91712 1.50812e-22)
(1.09462 1.1097 2.40643e-20)
(1.10501 1.17311 1.70217e-20)
(1.06398 1.18385 -7.70308e-20)
(1.00811 1.16222 7.02256e-19)
(0.944685 1.12876 -6.37936e-20)
(0.865391 1.09543 -1.12462e-18)
(0.774472 1.05881 0)
(0.673183 1.01024 -1.2965e-19)
(0.55987 0.959332 1.17936e-19)
(0.453042 0.913715 0)
(0.372399 0.88243 0)
(0.304717 1.05272 -1.12316e-18)
(0.254074 1.9542 1.72134e-19)
(0.244581 2.98192 -5.24162e-19)
(0.267732 3.28428 1.14833e-18)
(0.24887 3.36801 9.2566e-19)
(0.19322 3.38873 -1.50275e-18)
(0.172799 3.39687 7.59309e-19)
(0.422084 0.469551 2.82107e-20)
(0.911168 0.934749 3.17562e-20)
(1.08473 1.1318 -4.27531e-20)
(1.09489 1.19571 0)
(1.05469 1.20585 0)
(0.999112 1.18388 -5.34955e-19)
(0.935074 1.151 5.29394e-19)
(0.855278 1.11877 1.01391e-18)
(0.764793 1.0835 5.66102e-20)
(0.662348 1.037 1.81053e-18)
(0.548506 0.988293 -1.91028e-18)
(0.443786 0.943974 0)
(0.371096 0.966982 0)
(0.325467 1.41999 -7.95434e-19)
(0.308082 2.59719 -9.46828e-19)
(0.340469 3.21305 0)
(0.359219 3.3569 -1.42535e-18)
(0.28559 3.40908 -1.20502e-19)
(0.213735 3.44086 1.19621e-18)
(0.187205 3.45812 -5.55331e-19)
(0.418272 0.477579 -6.29008e-20)
(0.90329 0.952776 -2.26207e-20)
(1.07405 1.1548 0)
(1.08427 1.21986 0)
(1.04482 1.22956 0)
(0.989677 1.20694 0)
(0.925325 1.17418 -5.79572e-19)
(0.845262 1.14266 1.03056e-18)
(0.754477 1.10821 0)
(0.652486 1.06311 -1.65468e-18)
(0.53976 1.01917 3.45902e-18)
(0.442307 0.994404 1.35394e-19)
(0.391323 1.11228 1.66463e-19)
(0.360632 1.8815 1.31328e-18)
(0.360682 2.96546 -7.6076e-19)
(0.392656 3.3207 0)
(0.367494 3.42303 4.45046e-19)
(0.282225 3.49505 7.63615e-20)
(0.227504 3.53863 -7.06258e-20)
(0.1949 3.53635 3.2004e-19)
(0.414164 0.486465 3.41058e-20)
(0.895083 0.972016 -5.29144e-20)
(1.06306 1.1788 0)
(1.0732 1.24451 3.84764e-20)
(1.03446 1.25351 -1.91687e-19)
(0.979301 1.23019 0)
(0.914452 1.19775 0)
(0.834474 1.16716 -1.84634e-18)
(0.744932 1.13424 -1.21215e-19)
(0.64305 1.09179 1.71115e-18)
(0.528655 1.04895 -1.66394e-18)
(0.452096 1.0353 9.11077e-19)
(0.409501 1.31749 0)
(0.397295 2.32343 -7.08894e-19)
(0.424018 3.18892 4.41264e-19)
(0.467894 3.41882 3.69537e-19)
(0.443561 3.4982 0)
(0.38013 3.55372 1.11608e-19)
(0.328351 3.57141 -1.03179e-20)
(0.244163 3.50765 2.64082e-20)
(0.4096 0.496235 -9.29006e-20)
(0.88613 0.992044 8.37592e-20)
(1.05111 1.20374 6.58396e-21)
(1.06106 1.27065 6.88582e-21)
(1.02278 1.27921 2.86604e-19)
(0.96806 1.25493 0)