/*--------------------------------*- C++ -*----------------------------------*\
  =========                 |
  \\      /  F ield         | OpenFOAM: The Open Source CFD Toolbox
   \\    /   O peration     | Website:  https://openfoam.org
    \\  /    A nd           | Version:  6
     \\/     M anipulation  |
\*---------------------------------------------------------------------------*/
FoamFile
{
    version     2.0;
    format      ascii;
    class       surfaceScalarField;
    location    "43.6";
    object      phi;
}
// * * * * * * * * * * * * * * * * * * * * * * * * * * * * * * * * * * * * * //

dimensions      [0 3 -1 0 0 0 0];

internalField   nonuniform List<scalar> 
17370
(
-0.0900013
0.0898502
0.289162
-0.0714638
0.0537536
0.364486
-0.03812
0.0276904
0.426598
-0.0196371
0.014602
0.504287
-0.0107575
0.00826528
0.601894
-0.00626537
0.00489164
0.720431
-0.0037341
0.0029004
0.86374
-0.00216546
0.00161079
1.036
-0.00109817
0.000688904
1.24291
-0.000283412
-0.000105113
1.49158
0.000482095
-0.000888195
1.4916
0.00128283
-0.00177149
1.24318
0.0023031
-0.00301687
1.03635
0.0038382
-0.00498924
0.864058
0.00635985
-0.00835547
0.721053
0.0108414
-0.0146773
0.603051
0.0197046
-0.0277501
0.507485
0.0381733
-0.0537983
0.431793
0.0714998
-0.0898739
0.36515
0.0900147
0.198996
-0.128131
0.0882164
0.0399143
-0.364593
0.353366
-0.0746849
0.0859114
-0.446473
0.454312
-0.0844131
0.076574
-0.521185
0.529895
-0.0684787
0.0597691
-0.612782
0.621562
-0.0515807
0.0428005
-0.726888
0.734155
-0.0353394
0.0280723
-0.867471
0.872573
-0.0224784
0.0173762
-1.03847
1.0419
-0.0135799
0.0101438
-1.2446
1.24702
-0.00754309
0.00511971
-1.49263
1.4946
-0.00318044
0.00121252
-1.4925
1.49422
0.000465251
-0.00218494
-1.24398
1.24586
0.00408633
-0.00596824
-1.03751
1.04005
0.00832428
-0.0108588
-0.866102
0.869843
0.0142245
-0.0179655
-0.724394
0.729948
0.0230183
-0.0285728
-0.608702
0.616122
0.0357978
-0.043218
-0.514902
0.52305
0.0519522
-0.0601003
-0.43986
0.447923
0.0687687
-0.076832
-0.3753
0.376749
0.0846376
-0.0860868
-0.257337
0.222494
0.0748047
-0.0399614
-0.0685023
0.0586709
0.00983146
-0.0518451
0.0584397
-0.37411
0.367516
-0.057533
0.0537881
-0.453583
0.457328
-0.0487034
0.044756
-0.527932
0.531879
-0.0409216
0.0372892
-0.621547
0.625179
-0.0331974
0.0291348
-0.73533
0.739393
-0.0245815
0.0204357
-0.874319
0.878465
-0.0161016
0.0124152
-1.04347
1.04715
-0.00868799
0.00552409
-1.24855
1.25171
-0.00220681
-0.000860951
-1.49665
1.49972
0.00390421
-0.00716275
-1.49721
1.50047
0.0102418
-0.0138532
-1.25009
1.2537
0.0174247
-0.0216339
-1.04594
1.05015
0.0256771
-0.0301345
-0.87778
0.882237
0.0341198
-0.0381308
-0.739919
0.74393
0.041689
-0.0454429
-0.626795
0.630549
0.0493216
-0.0543414
-0.534828
0.539848
0.0580199
-0.0588429
-0.457491
0.458314
0.0521528
-0.0319694
-0.335779
0.315596
0.00988192
-0.0683659
0.058484
-0.0529147
0.0489129
0.00400183
-0.0332052
0.0437694
-0.358068
0.347503
-0.0474828
0.0468651
-0.459256
0.459874
-0.0438169
0.0404696
-0.53577
0.539117
-0.036703
0.0334059
-0.628491
0.631788
-0.0299793
0.0269626
-0.742609
0.745626
-0.0237251
0.0206388
-0.881975
0.885061
-0.0171308
0.0137707
-1.05073
1.05409
-0.00999835
0.00647525
-1.25513
1.25866
-0.00252068
-0.00126711
-1.50323
1.50702
0.00502594
-0.0088937
-1.50415
1.50801
0.0122989
-0.0159141
-1.25745
1.26106
0.0191179
-0.0224533
-1.05396
1.0573
0.025392
-0.0284841
-0.885736
0.888828
0.0313821
-0.0346888
-0.747201
0.750507
0.0378803
-0.0415354
-0.634348
0.638003
0.0447865
-0.0477265
-0.54417
0.54711
0.0482327
-0.0443638
-0.456617
0.452749
0.0336159
-0.0161943
-0.296257
0.278835
0.0040638
-0.0526726
0.0486088
-0.0458285
0.0433258
0.00250266
-0.0228577
0.0332626
-0.336791
0.326386
-0.0391082
0.0401419
-0.459544
0.45851
-0.0389677
0.0366933
-0.541824
0.544099
-0.0340407
0.0314619
-0.634824
0.637402
-0.0284227
0.025549
-0.748658
0.751531
-0.0223127
0.0193403
-0.887999
0.890971
-0.0160541
0.0129693
-1.0572
1.06029
-0.00946029
0.00607034
-1.2621
1.26549
-0.00212958
-0.0017341
-1.51088
1.51474
0.00555993
-0.00938598
-1.51191
1.51574
0.0126242
-0.0159308
-1.26452
1.26783
0.0188127
-0.0218703
-1.0604
1.06346
0.0246411
-0.0276742
-0.891894
0.894927
0.0303815
-0.0332559
-0.753729
0.756604
0.0356935
-0.0381994
-0.641089
0.643595
0.0403465
-0.041354
-0.548935
0.549943
0.0401491
-0.0340557
-0.447496
0.441403
0.0233826
-0.0102019
-0.263651
0.250471
0.00257863
-0.0454563
0.0428777
-0.0412432
0.0394676
0.00177562
-0.0168069
0.0260909
-0.316504
0.30722
-0.0327292
0.0348924
-0.456888
0.454724
-0.0344914
0.0328373
-0.546055
0.547709
-0.0306743
0.0285975
-0.639683
0.64176
-0.0261904
0.0238195
-0.754156
0.756527
-0.0209959
0.0182408
-0.893846
0.896601
-0.0150442
0.0120112
-1.0633
1.06634
-0.00855606
0.00525598
-1.26878
1.27208
-0.00143997
-0.00228711
-1.51853
1.52225
0.00596476
-0.00963385
-1.51948
1.52315
0.0127376
-0.0159311
-1.27109
1.27428
0.0187014
-0.0216
-1.0665
1.0694
0.0240917
-0.0266492
-0.897766
0.900323
0.0288022
-0.0309948
-0.759072
0.761264
0.0328901
-0.0348649
-0.645766
0.647741
0.0363378
-0.0365177
-0.550483
0.550663
0.0340959
-0.0270997
-0.434779
0.427783
0.0174576
-0.00736312
-0.238985
0.22889
0.00186775
-0.0407115
0.0388438
-0.0379372
0.0365981
0.00133914
-0.0128558
0.0208416
-0.298591
0.290605
-0.0276364
0.0305935
-0.452138
0.44918
-0.030827
0.0297308
-0.549122
0.550218
-0.0277576
0.0258638
-0.643776
0.64567
-0.0236962
0.021594
-0.758741
0.760843
-0.0191193
0.0166703
-0.899134
0.901583
-0.0137627
0.0109146
-1.06923
1.07208
-0.00758809
0.00438147
-1.27531
1.27851
-0.000670723
-0.00292739
-1.52589
1.52949
0.00646547
-0.00999718
-1.52676
1.53029
0.0129627
-0.0159674
-1.27742
1.28043
0.0184904
-0.0210266
-1.07213
1.07467
0.0231439
-0.0252798
-0.90263
0.904766
0.0271031
-0.0289965
-0.763277
0.765171
0.0306636
-0.032414
-0.649592
0.651343
0.033248
-0.032704
-0.550492
0.549948
0.0293789
-0.0220974
-0.42059
0.413308
0.0136544
-0.00568823
-0.219963
0.211997
0.00145124
-0.0372119
0.0357606
-0.0354279
0.0343929
0.00103499
-0.0100648
0.0168234
-0.283261
0.276503
-0.0233577
0.026775
-0.445976
0.442559
-0.0276
0.026937
-0.55109
0.551752
-0.0252182
0.0234709
-0.647529
0.649276
-0.0214428
0.0194643
-0.762878
0.764856
-0.0171333
0.0148423
-0.903885
0.906176
-0.0121462
0.00950364
-1.07475
1.0774
-0.00639386
0.00334938
-1.2816
1.28464
0.000226042
-0.00371562
-1.53301
1.5365
0.00713202
-0.0104854
-1.53375
1.5371
0.013231
-0.0159426
-1.28332
1.28603
0.0181836
-0.0204186
-1.07707
1.0793
0.0222911
-0.024189
-0.906784
0.908682
0.0258111
-0.0274955
-0.766942
0.768626
0.0289636
-0.0303785
-0.652937
0.654352
0.0307173
-0.029465
-0.549061
0.547809
0.0255437
-0.0183719
-0.40606
0.398888
0.0110411
-0.00456988
-0.204851
0.198379
0.00117131
-0.0344674
0.0332961
-0.033484
0.0326747
0.000809341
-0.00799763
0.0136885
-0.270311
0.26462
-0.0197461
0.0233678
-0.439039
0.435417
-0.0246727
0.0242532
-0.552336
0.552755
-0.0227905
0.0211436
-0.651024
0.652671
-0.0192072
0.0173222
-0.76678
0.768665
-0.0151035
0.0129249
-0.90833
0.910509
-0.010359
0.00784726
-1.07989
1.0824
-0.00489722
0.00201246
-1.28755
1.29044
0.00136936
-0.00466284
-1.53987
1.54317
0.00786719
-0.010979
-1.54034
1.54345
0.0134998
-0.0159609
-1.28863
1.29109
0.0179799
-0.0199795
-1.08143
1.08343
0.0216448
-0.0233306
-0.910486
0.912172
0.024776
-0.0262873
-0.770212
0.771723
0.0275854
-0.0286529
-0.655576
0.656644
0.0286376
-0.0267437
-0.546243
0.544349
0.0224558
-0.0155867
-0.391865
0.384996
0.00918848
-0.0037878
-0.192495
0.187095
0.000974834
-0.0322374
0.0312625
-0.0319633
0.0313293
0.000633962
-0.00639901
0.0111751
-0.259419
0.254643
-0.0166467
0.0202794
-0.431797
0.428164
-0.0219299
0.0217637
-0.553094
0.55326
-0.0205689
0.0190072
-0.654325
0.655887
-0.0171487
0.0153203
-0.770507
0.772335
-0.0131542
0.0110222
-0.912581
0.914713
-0.00851635
0.00607633
-1.0848
1.08724
-0.00323251
0.000476502
-1.2932
1.29596
0.00272214
-0.00581054
-1.54631
1.5494
0.00878885
-0.011659
-1.54643
1.5493
0.0139759
-0.0162351
-1.29349
1.29575
0.0180851
-0.0199108
-1.08538
1.0872
0.0214194
-0.0229286
-0.913784
0.915293
0.0242042
-0.0255197
-0.773133
0.774448
0.0266538
-0.0273061
-0.657486
0.658138
0.0269297
-0.0244957
-0.542204
0.53977
0.0199952
-0.0135012
-0.378325
0.371831
0.00785345
-0.00323183
-0.182124
0.177503
0.000836083
-0.0303697
0.0295336
-0.0307753
0.0302832
0.000492061
-0.00511144
0.00909825
-0.250292
0.246305
-0.0139369
0.0174219
-0.424622
0.421137
-0.0192541
0.019276
-0.55338
0.553359
-0.0182705
0.0167431
-0.657489
0.659017
-0.0149122
0.0131163
-0.774126
0.775922
-0.011006
0.00894404
-0.916719
0.918781
-0.00652898
0.00417846
-1.08954
1.09189
-0.00143522
-0.00122156
-1.2986
1.30126
0.00429272
-0.0072334
-1.55238
1.55532
0.01004
-0.012709
-1.55206
1.55473
0.0148233
-0.0168415
-1.29791
1.29993
0.0184634
-0.0200408
-1.08893
1.09051
0.0213368
-0.0226438
-0.916726
0.918033
0.0237707
-0.0249477
-0.775699
0.776876
0.0259197
-0.0262435
-0.658595
0.658919
0.0254998
-0.0226471
-0.537146
0.534293
0.0180558
-0.011944
-0.365552
0.35944
0.00688668
-0.00283525
-0.173202
0.169151
0.000738086
-0.0287596
0.0280215
-0.0298592
0.0294867
0.000372403
-0.00403257
0.00732553
-0.242694
0.239401
-0.011523
0.014763
-0.417802
0.414562
-0.0166755
0.016874
-0.55332
0.553121
-0.0159644
0.014522
-0.660581
0.662023
-0.0126978
0.0108966
-0.777688
0.779489
-0.00877925
0.00671588
-0.920723
0.922787
-0.00431054
0.00198782
-1.09413
1.09645
0.000694675
-0.00325993
-1.3038
1.30637
0.00618579
-0.00894419
-1.55812
1.56088
0.011542
-0.0139846
-1.55728
1.55972
0.0159016
-0.0177226
-1.30189
1.30371
0.0191734
-0.0205708
-1.09203
1.09342
0.0217083
-0.0228465
-0.919274
0.920412
0.0238196
-0.024815
-0.777983
0.778978
0.0255283
-0.0255648
-0.6591
0.659137
0.0244421
-0.0212174
-0.531271
0.528047
0.0165813
-0.0108067
-0.353526
0.347751
0.00620057
-0.00256085
-0.165338
0.161698
0.000672612
-0.0273292
0.0266566
-0.0291745
0.0289101
0.000264465
-0.00307861
0.00573883
-0.23645
0.23379
-0.00928406
0.0121821
-0.411522
0.408624
-0.0140503
0.0143577
-0.552937
0.55263
-0.0135352
0.0121796
-0.663497
0.664853
-0.0103684
0.00854686
-0.781264
0.783086
-0.00639363
0.00430118
-0.924749
0.926842
-0.00187959
-0.000435513
-1.09866
1.10098
0.00308296
-0.00559131
-1.30882
1.31133
0.00842813
-0.0110725
-1.56353
1.56618
0.0135189
-0.0157611
-1.56205
1.56429
0.0174726
-0.0190565
-1.30544
1.30702
0.0203015
-0.0214906
-1.09476
1.09595
0.0224494
-0.0234085
-0.921505
0.922464
0.0242255
-0.0250334
-0.779902
0.78071
0.0254786
-0.025244
-0.659013
0.658779
0.0237149
-0.0201546
-0.524681
0.52112
0.0155
-0.0100034
-0.342156
0.336659
0.00573144
-0.00238024
-0.158237
0.154886
0.000632029
-0.0260186
0.0253866
-0.0287013
0.0285391
0.000162181
-0.00219018
0.00425326
-0.231448
0.229385
-0.00714154
0.009628
-0.405967
0.403481
-0.0113344
0.0116445
-0.552418
0.552108
-0.0108292
0.00947805
-0.666306
0.667657
-0.00762586
0.00576287
-0.784877
0.78674
-0.00357888
0.00147147
-0.928798
0.930905
0.00095718
-0.0032746
-1.10317
1.10549
0.00591283
-0.00839015
-1.31374
1.31622
0.0111455
-0.0136604
-1.56871
1.57122
0.0159372
-0.0179791
-1.56642
1.56847
0.0194993
-0.0208561
-1.30854
1.30989
0.0218714
-0.022794
-1.09707
1.09799
0.0235151
-0.0242411
-0.923342
0.924068
0.0248879
-0.0255573
-0.781442
0.782111
0.0257286
-0.0251863
-0.658325
0.657783
0.0232822
-0.0194335
-0.517467
0.513619
0.014761
-0.00947053
-0.33132
0.32603
0.0054324
-0.00227232
-0.151669
0.148509
0.000610371
-0.0247823
0.0241719
-0.0284322
0.0283722
5.99755e-05
-0.00132173
0.0027982
-0.227629
0.226152
-0.00501112
0.00702456
-0.401267
0.399253
-0.00848634
0.00875249
-0.551939
0.551672
-0.00794401
0.00659691
-0.669134
0.670481
-0.00468385
0.0027389
-0.788586
0.790531
-0.000450289
-0.00175181
-0.932895
0.935097
0.00427357
-0.00665313
-1.10769
1.11007
0.00932095
-0.0117774
-1.31859
1.32104
0.0144508
-0.0168265
-1.5736
1.57598
0.0189131
-0.0207112
-1.57036
1.57216
0.0220001
-0.0231069
-1.31116
1.31226
0.0239126
-0.0246207
-1.09886
1.09957
0.0251432
-0.0256478
-0.924763
0.925268
0.0261044
-0.026563
-0.78265
0.783109
0.0264343
-0.0255275
-0.656975
0.656069
0.0232248
-0.0190598
-0.509683
0.505518
0.0143344
-0.00917263
-0.320868
0.315706
0.00528054
-0.00222922
-0.145446
0.142395
0.000607123
-0.0235818
0.0229747
-0.0283709
0.028419
-4.8082e-05
-0.000430624
0.00130732
-0.224983
0.224106
-0.00280539
0.00426766
-0.397553
0.396091
-0.00536616
0.00549348
-0.551614
0.551486
-0.00463879
0.00325632
-0.671982
0.673365
-0.00127613
-0.00077041
-0.792451
0.794498
0.00319229
-0.00551564
-0.937184
0.939508
0.00815064
-0.0106037
-1.11233
1.11479
0.013319
-0.0157871
-1.32339
1.32586
0.0184298
-0.0207249
-1.57824
1.58053
0.0226599
-0.0242399
-1.57381
1.57539
0.0252872
-0.026109
-1.31327
1.31409
0.0266445
-0.0270577
-1.10021
1.10063
0.0273207
-0.0275681
-0.925735
0.925983
0.0278137
-0.0279841
-0.783289
0.78346
0.0275931
-0.02622
-0.654848
0.653475
0.0234922
-0.0190119
-0.501307
0.496827
0.0142024
-0.00908892
-0.310654
0.305541
0.00525953
-0.00224221
-0.139413
0.136395
0.000618681
-0.0223846
0.0217659
-0.0285304
0.0287012
-0.000170752
0.000528173
-0.000290049
-0.223544
0.223306
-0.000448384
0.00128633
-0.394975
0.394137
-0.0019094
0.00178564
-0.551664
0.551788
-0.000774901
-0.000745157
-0.674977
0.676497
0.00287077
-0.00506209
-0.796516
0.798707
0.00763189
-0.0100735
-0.941686
0.944127
0.0128281
-0.0153825
-1.11711
1.11967
0.0181862
-0.0206937
-1.32822
1.33072
0.0233007
-0.0254603
-1.58269
1.58485
0.0271906
-0.0285037
-1.57681
1.57812
0.0292921
-0.0298042
-1.31479
1.3153
0.0300467
-0.030137
-1.10097
1.10106
0.0301099
-0.0300611
-0.926178
0.92613
0.0300732
-0.0299295
-0.783276
0.783132
0.0292371
-0.0273437
-0.651833
0.64994
0.0241763
-0.0193403
-0.49233
0.487495
0.0143788
-0.00921935
-0.300508
0.295348
0.00536847
-0.00231173
-0.133418
0.130362
0.000645817
-0.0211594
0.0205135
-0.0289499
0.0292647
-0.000314857
0.00157365
-0.00198294
-0.22341
0.223819
0.00209871
-0.00198241
-0.393673
0.393557
0.00195163
-0.00240963
-0.552312
0.55277
0.00361382
-0.00530114
-0.678295
0.679982
0.00762227
-0.0100071
-0.800869
0.803254
0.0128013
-0.0154493
-0.946431
0.949079
0.0184187
-0.0211429
-1.12211
1.12484
0.0240824
-0.0266489
-1.33312
1.33569
0.029236
-0.0312835
-1.58685
1.58889
0.0328041
-0.0338213
-1.57923
1.58025
0.0343133
-0.0344591
-1.31567
1.31581
0.0343692
-0.0341114
-1.10103
1.10077
0.033771
-0.0333945
-0.925983
0.925607
0.033138
-0.0325635
-0.782552
0.781978
0.0314663
-0.028985
-0.647854
0.645372
0.0253026
-0.0200408
-0.482647
0.477386
0.014856
-0.00955651
-0.290242
0.284942
0.00560134
-0.00243458
-0.127319
0.124152
0.00068756
-0.0198758
0.0191882
-0.029649
0.0301343
-0.000485245
0.00284381
-0.00403532
-0.224631
0.225823
0.00507726
-0.00579262
-0.39384
0.394555
0.00648686
-0.00736206
-0.553747
0.554622
0.00880151
-0.0106758
-0.681978
0.683852
0.0132378
-0.0158857
-0.805609
0.808257
0.0190002
-0.0219379
-0.951616
0.954554
0.0251948
-0.0281334
-1.12746
1.1304
0.0312453
-0.0338969
-1.33814
1.34079
0.0364764
-0.0384043
-1.59078
1.59271
0.0396868
-0.0403457
-1.58103
1.58169
0.0404719
-0.0402203
-1.31577
1.31552
0.0397647
-0.0391184
-1.10034
1.0997
0.0384319
-0.037679
-0.925063
0.924311
0.0370686
-0.0359565
-0.780888
0.779776
0.0343168
-0.0311577
-0.642744
0.639585
0.0269075
-0.0211586
-0.472137
0.466388
0.0156645
-0.0101147
-0.279668
0.274119
0.00596393
-0.00261153
-0.120974
0.117621
0.000743146
-0.0185056
0.0177625
-0.0307046
0.0314116
-0.000707074
0.00435818
-0.00645076
-0.227459
0.229551
0.00855081
-0.0101733
-0.395704
0.397327
0.0117277
-0.0132056
-0.556215
0.557693
0.0151083
-0.0173376
-0.686136
0.688365
0.0202822
-0.0232669
-0.810867
0.813851
0.0267262
-0.0299519
-0.957344
0.96057
0.0334972
-0.0366689
-1.13322
1.13639
0.0399812
-0.0427404
-1.34332
1.34608
0.0453181
-0.0470949
-1.59444
1.59622
0.0481
-0.0483666
-1.58208
1.58235
0.0480559
-0.0473305
-1.31501
1.31429
0.0464137
-0.0452758
-1.09878
1.09764
0.0441639
-0.042972
-0.923305
0.922113
0.0418971
-0.0402711
-0.778143
0.776517
0.0380029
-0.0340916
-0.636336
0.632425
0.0291752
-0.0228032
-0.460646
0.454274
0.0168666
-0.0109265
-0.268552
0.262612
0.00647221
-0.00284869
-0.114226
0.110602
0.000814665
-0.0170199
0.0162053
-0.0322039
0.0331979
-0.000994028
0.0062512
-0.00941357
-0.232099
0.235261
0.0127514
-0.0154207
-0.399536
0.402205
0.0179328
-0.0201031
-0.56006
0.56223
0.0225908
-0.0252931
-0.691097
0.6938
0.0287509
-0.0321851
-0.816795
0.820229
0.0361156
-0.0397512
-0.963664
0.9673
0.0437115
-0.0472037
-1.13947
1.14296
0.050766
-0.0536245
-1.3487
1.35156
0.0561347
-0.0576643
-1.59775
1.59928
0.058266
-0.0580114
-1.58229
1.58203
0.0571986
-0.0559023
-1.31321
1.31191
0.0544821
-0.052798
-1.09612
1.09444
0.0512085
-0.0495047
-0.920573
0.918869
0.047903
-0.045677
-0.774336
0.77211
0.0426884
-0.0378798
-0.628445
0.623637
0.0321518
-0.0250007
-0.447901
0.44075
0.0184745
-0.0119876
-0.256615
0.250129
0.00711351
-0.00313365
-0.106909
0.102929
0.000895866
-0.0153904
0.0144945
-0.0342706
0.0356607
-0.00139004
0.00872969
-0.0132136
-0.238883
0.243367
0.0180165
-0.0218966
-0.405653
0.409533
0.0255133
-0.0284987
-0.565517
0.568502
0.0316992
-0.0349823
-0.697068
0.700351
0.0390822
-0.0431003
-0.823626
0.827644
0.0476574
-0.0518246
-0.97085
0.975017
0.0562924
-0.060145
-1.14636
1.15021
0.0639619
-0.0668981
-1.35424
1.35718
0.0693056
-0.0705385
-1.60052
1.60175
0.0706661
-0.0697736
-1.58139
1.5805
0.0683382
-0.0663471
-1.31015
1.30815
0.064334
-0.0620571
-1.09226
1.08998
0.0599507
-0.0576874
-0.916697
0.914434
0.0554256
-0.0524608
-0.769273
0.766309
0.0485886
-0.0427094
-0.618774
0.612894
0.0360079
-0.027879
-0.433601
0.425472
0.0205673
-0.0133337
-0.243539
0.236305
0.00789714
-0.00346273
-0.0988503
0.0944159
0.000982719
-0.0136003
0.0126176
-0.0371027
0.039063
-0.00196028
0.0121089
-0.0182659
-0.248281
0.254438
0.0248199
-0.0301073
-0.414519
0.419806
0.0350383
-0.0390569
-0.572933
0.576952
0.0432224
-0.0473241
-0.704327
0.708429
0.0523011
-0.0570643
-0.83163
0.836394
0.0623675
-0.0671284
-0.979105
0.983866
0.072121
-0.0763046
-1.15393
1.15811
0.0802956
-0.0831946
-1.35987
1.36277
0.0853121
-0.0860431
-1.6026
1.60333
0.0854979
-0.0838079
-1.57913
1.57744
0.0816289
-0.078839
-1.30564
1.30285
0.0761581
-0.073207
-1.08704
1.08409
0.07054
-0.0676632
-0.911537
0.908661
0.0646939
-0.0608519
-0.762707
0.758865
0.0559647
-0.0488431
-0.606975
0.599853
0.0409608
-0.0315839
-0.417336
0.407959
0.0232303
-0.0149969
-0.228914
0.220681
0.00882792
-0.00383232
-0.0898531
0.0848575
0.00107281
-0.0116403
0.0105675
-0.0410147
0.0438472
-0.00283255
0.0169948
-0.025343
-0.260969
0.269317
0.0340371
-0.0410008
-0.426775
0.433739
0.0474934
-0.0528069
-0.582858
0.588172
0.0582771
-0.0635281
-0.713397
0.718648
0.0696427
-0.0752875
-0.841117
0.846762
0.0813928
-0.0867217
-0.988522
0.993851
0.0921421
-0.0965161
-1.16208
1.16646
0.100465
-0.103086
-1.36528
1.3679
0.10462
-0.104564
-1.60348
1.60343
0.103115
-0.100438
-1.57515
1.57247
0.0973749
-0.0936575
-1.29945
1.29573
0.0901681
-0.0864138
-1.08037
1.07661
0.0831115
-0.0795683
-0.904958
0.901415
0.075923
-0.0710963
-0.754269
0.749442
0.0650348
-0.0564208
-0.592651
0.584037
0.0470891
-0.036139
-0.398566
0.387616
0.0264367
-0.0169197
-0.212251
0.202734
0.00985312
-0.00421428
-0.079723
0.0740842
0.00115757
-0.00950727
0.0083497
-0.0465561
0.0508552
-0.00429903
0.0245633
-0.0358705
-0.278052
0.289359
0.0473042
-0.0564841
-0.443418
0.452598
0.0649011
-0.0717195
-0.595902
0.602721
0.0787632
-0.0854709
-0.724782
0.731489
0.0927906
-0.0992687
-0.85231
0.858788
0.106034
-0.111732
-0.998977
1.00467
0.117292
-0.121547
-1.17045
1.1747
0.12509
-0.127088
-1.36995
1.37194
0.127675
-0.126529
-1.60261
1.60147
0.123883
-0.119933
-1.56902
1.56507
0.11579
-0.110985
-1.29129
1.28648
0.106611
-0.102017
-1.07198
1.06738
0.098042
-0.0936896
-0.896822
0.892469
0.0893123
-0.0833177
-0.74367
0.737675
0.0758375
-0.0653982
-0.575238
0.564798
0.0542919
-0.0413921
-0.376634
0.363734
0.030005
-0.0189392
-0.193052
0.181986
0.0108569
-0.00455357
-0.0683515
0.0620482
0.00122039
-0.00721864
0.00599826
-0.0547775
0.0621116
-0.00733409
0.0378586
-0.0535546
-0.301617
0.317313
0.0688704
-0.0810569
-0.465999
0.478185
0.0914788
-0.0996689
-0.612461
0.620652
0.108262
-0.116245
-0.738743
0.746726
0.124493
-0.131381
-0.864962
0.871849
0.138241
-0.143745
-1.00992
1.01543
0.148827
-0.152384
-1.17829
1.18185
0.154921
-0.155757
-1.37308
1.37392
0.154879
-0.152191
-1.59933
1.59664
0.147964
-0.142441
-1.56018
1.55466
0.136979
-0.130894
-1.28087
1.27478
0.12548
-0.119919
-1.06174
1.05618
0.115211
-0.110104
-0.886792
0.881686
0.104824
-0.0973025
-0.730464
0.722943
0.0880771
-0.0753908
-0.553972
0.541286
0.0620798
-0.0468581
-0.350744
0.335522
0.0335596
-0.0208329
-0.170954
0.158228
0.0117093
-0.0047903
-0.0558244
0.0489054
0.00123415
-0.00482762
0.00359348
-0.0689703
0.0730335
-0.00406322
0.0287131
-0.0423882
-0.335599
0.349274
0.0560611
-0.0672127
-0.495801
0.506953
0.077153
-0.0864387
-0.632234
0.64152
0.0968686
-0.106335
-0.754105
0.763571
0.116779
-0.125964
-0.877767
0.886952
0.135628
-0.144083
-1.02001
1.02846
0.152727
-0.159887
-1.1843
1.19146
0.166627
-0.171503
-1.37353
1.37841
0.175033
-0.176132
-1.59267
1.59376
0.174735
-0.171369
-1.548
1.54464
0.167022
-0.161426
-1.2678
1.2622
0.156165
-0.149969
-1.04944
1.04325
0.144629
-0.138612
-0.874633
0.868617
0.132034
-0.121749
-0.713838
0.703553
0.108546
-0.0908823
-0.527917
0.510253
0.0729485
-0.0529335
-0.320024
0.300009
0.0363442
-0.0214431
-0.145919
0.131018
0.0114079
-0.00437434
-0.0425559
0.0355223
0.00100275
-0.002422
0.00141925
-0.0803553
0.0783797
0.0019756
0.00734353
-0.0160847
-0.3657
0.374442
0.0264259
-0.0344829
-0.522679
0.530736
0.0425108
-0.0503291
-0.653363
0.661181
0.0598948
-0.0687507
-0.772579
0.781435
0.0781438
-0.0866343
-0.895581
0.904071
0.0955393
-0.102977
-1.03663
1.04407
0.110735
-0.116758
-1.19837
1.2044
0.122306
-0.125924
-1.38283
1.38645
0.127796
-0.127432
-1.59378
1.59342
0.124647
-0.119892
-1.54024
1.53548
0.11414
-0.107108
-1.25588
1.24884
0.100527
-0.0932339
-1.03611
1.02882
0.0864975
-0.0788686
-0.859287
0.851658
0.0715049
-0.062438
-0.68918
0.680114
0.0523986
-0.0402906
-0.49076
0.478652
0.0292723
-0.0188308
-0.279808
0.269367
0.0114903
-0.00600181
-0.116724
0.111236
0.00280842
-0.000911372
-0.0287767
0.0268796
0.0001263
-0.000134691
8.39062e-06
-0.0816732
0.0788206
0.00285268
-0.00137305
-0.00355965
-0.386042
0.390974
0.0103517
-0.016323
-0.542616
0.548588
0.0224053
-0.0291718
-0.671383
0.678149
0.0375278
-0.0452478
-0.789363
0.797083
0.0536318
-0.0610472
-0.911797
0.919213
0.0685713
-0.0752118
-1.05133
1.05797
0.081924
-0.0872111
-1.20996
1.21525
0.0916381
-0.0942953
-1.38938
1.39204
0.0955099
-0.0944443
-1.59236
1.59129
0.0910397
-0.0857268
-1.53013
1.52482
0.0795449
-0.0721555
-1.24158
1.23419
0.0646954
-0.0564216
-1.02043
1.01215
0.0486037
-0.0399497
-0.841765
0.833111
0.0324501
-0.0245149
-0.667206
0.659271
0.0168697
-0.00889834
-0.464742
0.456771
0.00336192
0.000229886
-0.258079
0.254488
-0.00171624
0.00196833
-0.10495
0.104698
-0.00155365
0.0008381
-0.024456
0.0251715
-0.000315324
0.000548817
-0.000233493
-0.0804625
0.0777213
0.00274115
-0.00498296
0.0025558
-0.39951
0.401937
0.00180187
-0.00631946
-0.557629
0.562147
0.0115339
-0.0172556
-0.686285
0.692006
0.024469
-0.0311378
-0.804149
0.810818
0.0383389
-0.0447222
-0.926102
0.932485
0.0515756
-0.057229
-1.06418
1.06983
0.0631285
-0.0673519
-1.22014
1.22437
0.0711873
-0.073402
-1.39451
1.39672
0.074046
-0.0723068
-1.58982
1.58809
0.0685981
-0.0629561
-1.51887
1.51323
0.056473
-0.0484274
-1.22638
1.21833
0.0407653
-0.0323757
-1.00313
0.994739
0.0245139
-0.0164101
-0.823171
0.815067
0.00918511
-0.00224216
-0.647754
0.640811
-0.0035666
0.00822814
-0.447054
0.442393
-0.0100974
0.00978543
-0.248314
0.248626
-0.00839443
0.00602915
-0.103369
0.105734
-0.00393346
0.00184865
-0.025201
0.0272859
-0.000580668
0.000382718
0.00019795
-0.0790337
0.0766441
0.00238965
-0.00605989
0.0051493
-0.408561
0.409472
-0.00188881
-0.00149459
-0.569714
0.573097
0.00572335
-0.0109228
-0.698866
0.704065
0.0170016
-0.0228966
-0.816781
0.822676
0.0291829
-0.0347847
-0.938443
0.944045
0.0407395
-0.0458595
-1.07538
1.0805
0.0509622
-0.0549678
-1.2285
1.2325
0.0583524
-0.0602173
-1.39861
1.40048
0.0605257
-0.0585187
-1.58614
1.58413
0.0546039
-0.0486576
-1.50678
1.50084
0.0422038
-0.0345034
-1.21017
1.20247
0.0272291
-0.019276
-0.986022
0.978069
0.0121484
-0.00459371
-0.805993
0.798438
-0.00199566
0.00826494
-0.630857
0.624588
-0.0127722
0.0157366
-0.43499
0.432025
-0.0160825
0.0139939
-0.245612
0.247701
-0.0112981
0.00798494
-0.106869
0.110182
-0.00506739
0.00232246
-0.0287484
0.0314933
-0.000704685
-0.000459932
0.00116462
-0.0777627
0.0757469
0.00201574
-0.00588039
0.00540886
-0.414855
0.415327
-0.00345884
0.000681802
-0.579101
0.581879
0.00345792
-0.00792941
-0.709568
0.71404
0.0131805
-0.0183288
-0.827778
0.832926
0.0239674
-0.0290501
-0.949329
0.954412
0.0346164
-0.0392361
-1.0854
1.09002
0.0439934
-0.0477519
-1.23629
1.24005
0.0508684
-0.0525516
-1.40212
1.4038
0.0527189
-0.0511046
-1.58205
1.58044
0.0474227
-0.0421718
-1.4946
1.48935
0.036398
-0.0295743
-1.19487
1.18805
0.0233552
-0.0160703
-0.97018
0.962895
0.00934016
-0.00201852
-0.790085
0.782764
-0.00464364
0.0109595
-0.615718
0.609402
-0.0150417
0.0174368
-0.42611
0.423715
-0.0171421
0.0147083
-0.246238
0.248672
-0.0118014
0.0082684
-0.11224
0.115773
-0.00519119
0.00240189
-0.033428
0.0362173
-0.000732139
-0.00158355
0.00231569
-0.0768652
0.0753213
0.00154394
-0.00492982
0.00473746
-0.41964
0.419832
-0.00307981
0.000961702
-0.587359
0.589477
0.00291841
-0.00700046
-0.718882
0.722964
0.0120071
-0.0164816
-0.83769
0.842164
0.0215018
-0.0261008
-0.9595
0.964099
0.0315108
-0.0358459
-1.09473
1.09906
0.0402439
-0.0439431
-1.24369
1.24739
0.0473524
-0.0490434
-1.40556
1.40725
0.049507
-0.0482053
-1.57857
1.57727
0.0454882
-0.0409421
-1.48424
1.47969
0.0362875
-0.0306227
-1.18148
1.17581
0.0250152
-0.0184479
-0.955737
0.94917
0.0118663
-0.00433878
-0.774465
0.766937
-0.00207534
0.008379
-0.600908
0.594604
-0.0124282
0.0144647
-0.418655
0.416618
-0.0144633
0.0126834
-0.247848
0.249628
-0.0102108
0.00714257
-0.117728
0.120797
-0.00449274
0.00210154
-0.0380044
0.0403956
-0.000656143
-0.0027193
0.00337545
-0.0764963
0.0753115
0.0011848
-0.00379259
0.00368044
-0.423555
0.423668
-0.00207499
4.62173e-05
-0.594605
0.596634
0.00362679
-0.0073289
-0.727291
0.730993
0.0116603
-0.0160098
-0.84661
0.850959
0.0207207
-0.0255407
-0.968545
0.973364
0.0303278
-0.0345758
-1.10355
1.1078
0.0392039
-0.0427643
-1.25102
1.25458
0.0458232
-0.0480703
-1.40892
1.41116
0.0489805
-0.0483732
-1.57623
1.57562
0.0463254
-0.0428985
-1.47567
1.47224
0.0389838
-0.0339321
-1.17007
1.16502
0.0287626
-0.022343
-0.942345
0.935926
0.0158385
-0.00859014
-0.75887
0.751622
0.00211221
0.00375124
-0.586756
0.580893
-0.00740313
0.00947341
-0.411949
0.409878
-0.00989115
0.00877247
-0.248658
0.249777
-0.00715455
0.00505134
-0.121948
0.124051
-0.00321584
0.00152058
-0.0416167
0.043312
-0.000488556
-0.00364345
0.00413201
-0.0766811
0.0756944
0.000986691
-0.00248914
0.00210166
-0.427167
0.427555
-0.000631185
-0.00147035
-0.601336
0.603437
0.00485623
-0.00846706
-0.735177
0.738788
0.0126609
-0.0166544
-0.855139
0.859132
0.0215423
-0.0256365
-0.977643
0.981738
0.0304625
-0.0345983
-1.11224
1.11638
0.0391671
-0.0429686
-1.25815
1.26195
0.0464039
-0.0485693
-1.41324
1.4154
0.0500438
-0.0501082
-1.5751
1.57516
0.0489641
-0.0460168
-1.46885
1.46591
0.0425503
-0.0377778
-1.16006
1.15528
0.0327862
-0.0264317
-0.929088
0.922734
0.0202171
-0.013198
-0.743757
0.736737
0.00715985
-0.00162025
-0.573827
0.568288
-0.00202897
0.00404825
-0.405412
0.403393
-0.00483392
0.00451418
-0.248234
0.248554
-0.00380503
0.00266709
-0.12432
0.125458
-0.00169732
0.000846204
-0.0438053
0.0446564
-0.000290622
-0.00424684
0.00453746
-0.07716
0.0764754
0.000684582
-0.00135859
0.000495159
-0.430923
0.431786
0.000809409
-0.00307812
-0.607384
0.609652
0.00620461
-0.0097376
-0.742606
0.746139
0.0137989
-0.01796
-0.863028
0.867189
0.0222847
-0.0265834
-0.98607
0.990369
0.0314074
-0.0353572
-1.12095
1.1249
0.0400409
-0.0438312
-1.26557
1.26936
0.0473806
-0.0501638
-1.41803
1.42081
0.0522652
-0.052734
-1.57536
1.57583
0.0518577
-0.0495199
-1.46313
1.4608
0.0464004
-0.0417282
-1.15027
1.1456
0.0367841
-0.0308787
-0.916162
0.910257
0.0247142
-0.0184255
-0.729321
0.723032
0.0129724
-0.00783041
-0.562108
0.556966
0.00439262
-0.00188608
-0.398785
0.396278
0.000574552
9.54501e-05
-0.246519
0.245849
-0.000320462
0.000345751
-0.124729
0.124704
-0.000356402
0.00027409
-0.0444561
0.0445384
-0.000140591
-0.00448584
0.00462643
-0.0780308
0.0775043
0.000526436
-0.000426431
-0.000377488
-0.43494
0.435744
0.00225962
-0.00440396
-0.613579
0.615723
0.00775784
-0.0112073
-0.74962
0.753069
0.0151558
-0.0189576
-0.871062
0.874864
0.0234449
-0.027456
-0.994688
0.998699
0.0322377
-0.0366224
-1.12931
1.13369
0.0409493
-0.0450756
-1.27321
1.27734
0.049084
-0.0520162
-1.42353
1.42646
0.0545454
-0.0557704
-1.57654
1.57776
0.0552314
-0.0532924
-1.45825
1.45631
0.0501447
-0.0457029
-1.14083
1.13639
0.0410664
-0.035393
-0.903892
0.898219
0.0298402
-0.0240539
-0.716225
0.710438
0.0190759
-0.0141609
-0.551175
0.54626
0.0105535
-0.00764675
-0.391807
0.388901
0.00552451
-0.0039095
-0.243027
0.241412
0.00266921
-0.00154935
-0.123027
0.121907
0.000725168
-0.000146033
-0.0436111
0.0430319
-4.94534e-05
-0.00434086
0.00439031
-0.079166
0.0788098
0.000356176
0.000584013
-0.00157172
-0.439094
0.440081
0.00333031
-0.0057875
-0.619434
0.621891
0.00911872
-0.0124497
-0.756467
0.759798
0.0165151
-0.0201996
-0.878678
0.882362
0.0245536
-0.0286903
-1.00319
1.00733
0.0333726
-0.0377082
-1.13793
1.14226
0.0422429
-0.046403
-1.28139
1.28555
0.0506154
-0.0543102
-1.4297
1.43339
0.0572701
-0.0587097
-1.57891
1.58035
0.0586802
-0.0568331
-1.45415
1.4523
0.0540446
-0.0499887
-1.13179
1.12773
0.0454025
-0.0400924
-0.892262
0.886952
0.0349726
-0.0294902
-0.704276
0.698794
0.0248814
-0.0200092
-0.540971
0.536098
0.016235
-0.012672
-0.384214
0.380651
0.00997464
-0.00745978
-0.237759
0.235244
0.00524548
-0.00319409
-0.119331
0.11728
0.00168845
-0.000580491
-0.0415122
0.0404042
7.47512e-05
-0.00398242
0.00390767