/*--------------------------------*- C++ -*----------------------------------*\
  =========                 |
  \\      /  F ield         | OpenFOAM: The Open Source CFD Toolbox
   \\    /   O peration     | Website:  https://openfoam.org
    \\  /    A nd           | Version:  6
     \\/     M anipulation  |
\*---------------------------------------------------------------------------*/
FoamFile
{
    version     2.0;
    format      ascii;
    class       volVectorField;
    location    "29";
    object      U;
}
// * * * * * * * * * * * * * * * * * * * * * * * * * * * * * * * * * * * * * //

dimensions      [0 1 -1 0 0 0 0];

internalField   nonuniform List<vector> 
8800
(
(0.987189 -0.076666 0)
(1.0019 -0.0551896 0)
(0.999754 -0.0285476 0)
(1.00005 -0.0151398 0)
(1.00005 -0.00853211 0)
(1.00002 -0.0050236 0)
(0.999997 -0.00298324 0)
(0.99999 -0.00170458 0)
(0.999987 -0.000827338 0)
(1.00005 -0.000128676 0)
(0.999987 0.000582748 0)
(0.999993 0.00134232 0)
(0.999998 0.00237355 0)
(1.00001 0.00396275 0)
(1.00003 0.00660344 0)
(1.00007 0.0113492 0)
(0.999981 0.0207975 0)
(0.999176 0.0386556 0)
(1.00709 0.0724505 0)
(0.771216 0.0366597 0)
(0.363046 -0.0160194 0)
(1.04329 -0.076829 0)
(1.08461 -0.0704711 0)
(1.04521 -0.0535697 0)
(1.02324 -0.0389133 0)
(1.01189 -0.0262278 0)
(1.00628 -0.0168853 0)
(1.0035 -0.0104055 0)
(1.00209 -0.00580009 0)
(1.00142 -0.0021752 0)
(1.0013 0.00112081 0)
(1.00167 0.00451762 0)
(1.00265 0.00845395 0)
(1.00462 0.0137929 0)
(1.00856 0.0215113 0)
(1.01658 0.0325037 0)
(1.03255 0.0464485 0)
(1.06274 0.0615944 0)
(1.0919 0.0760425 0)
(0.838761 0.0565396 0)
(0.216782 -0.00243122 0)
(1.07587 -0.0501644 0)
(1.09989 -0.0483627 0)
(1.06463 -0.0405333 0)
(1.03993 -0.0336935 0)
(1.02374 -0.0261862 0)
(1.01394 -0.0186321 0)
(1.00843 -0.0118533 0)
(1.00555 -0.00601989 0)
(1.00435 -0.000703682 0)
(1.00472 0.00444959 0)
(1.00663 0.00985016 0)
(1.0106 0.0160094 0)
(1.01794 0.0231082 0)
(1.03059 0.0306158 0)
(1.05074 0.0376674 0)
(1.08051 0.0443745 0)
(1.10643 0.0512189 0)
(0.942792 0.041552 0)
(0.216328 0.00245187 0)
(0.175079 -0.000817574 0)
(1.01758 -0.0355116 0)
(1.10514 -0.0414197 0)
(1.07814 -0.0361083 0)
(1.05324 -0.0301742 0)
(1.03593 -0.024629 0)
(1.02377 -0.0190024 0)
(1.0157 -0.0130363 0)
(1.01088 -0.00695132 0)
(1.00875 -0.000679817 0)
(1.00937 0.00555762 0)
(1.01269 0.0115382 0)
(1.0189 0.0173846 0)
(1.02881 0.0229818 0)
(1.04329 0.0283103 0)
(1.06385 0.0338526 0)
(1.09376 0.0399001 0)
(1.09374 0.041742 0)
(0.827764 0.0228169 0)
(0.174317 0.000841312 0)
(0.15385 -0.000611343 0)
(0.955982 -0.0254866 0)
(1.10337 -0.035194 0)
(1.08756 -0.032735 0)
(1.06145 -0.0280925 0)
(1.04372 -0.0230973 0)
(1.03125 -0.0179498 0)
(1.02247 -0.0125731 0)
(1.01679 -0.00675377 0)
(1.0141 -0.000398059 0)
(1.01484 0.0059603 0)
(1.01881 0.0118215 0)
(1.02581 0.0171355 0)
(1.03614 0.0221089 0)
(1.05083 0.0269473 0)
(1.07219 0.0315521 0)
(1.10048 0.0355684 0)
(1.06874 0.0337306 0)
(0.740676 0.0141822 0)
(0.152707 0.000638314 0)
(0.139461 -0.000466221 0)
(0.89902 -0.019077 0)
(1.09554 -0.0300929 0)
(1.09543 -0.0292459 0)
(1.06882 -0.02559 0)
(1.05038 -0.0215276 0)
(1.0375 -0.0168677 0)
(1.02844 -0.0117367 0)
(1.0224 -0.00616061 0)
(1.01939 2.36453e-05 0)
(1.02014 0.00621982 0)
(1.02436 0.0117846 0)
(1.03156 0.0167778 0)
(1.04213 0.021353 0)
(1.05732 0.0254005 0)
(1.07954 0.028906 0)
(1.10279 0.0315923 0)
(1.03715 0.027669 0)
(0.674873 0.0100274 0)
(0.137854 0.000497277 0)
(0.128921 -0.00036055 0)
(0.849435 -0.0146826 0)
(1.08312 -0.0259258 0)
(1.10106 -0.0262086 0)
(1.07552 -0.0229086 0)
(1.05644 -0.0193855 0)
(1.0431 -0.0154184 0)
(1.03369 -0.0107694 0)
(1.02743 -0.00544483 0)
(1.0243 0.000541014 0)
(1.02495 0.00652513 0)
(1.02913 0.0118147 0)
(1.03648 0.0163476 0)
(1.04736 0.0201858 0)
(1.06306 0.0234967 0)
(1.08583 0.0265554 0)
(1.10228 0.0284911 0)
(1.00307 0.022992 0)
(0.624066 0.00760259 0)
(0.12675 0.000397062 0)
(0.12091 -0.000277284 0)
(0.807445 -0.0114526 0)
(1.06771 -0.0222071 0)
(1.1044 -0.0235745 0)
(1.08158 -0.0208584 0)
(1.06207 -0.0175588 0)
(1.0484 -0.0138054 0)
(1.03872 -0.00941646 0)
(1.03219 -0.00441004 0)
(1.02878 0.00117731 0)
(1.02935 0.00672016 0)
(1.03358 0.0115651 0)
(1.04102 0.015687 0)
(1.05209 0.0191869 0)
(1.06809 0.0222151 0)
(1.0912 0.0249034 0)
(1.09885 0.0258367 0)
(0.968963 0.0191987 0)
(0.583834 0.00597988 0)
(0.118057 0.00032093 0)
(0.114762 -0.000211556 0)
(0.772422 -0.00898231 0)
(1.05099 -0.018812 0)
(1.10641 -0.0207842 0)
(1.08702 -0.0183651 0)
(1.06724 -0.0153182 0)
(1.05335 -0.0119213 0)
(1.04336 -0.00796582 0)
(1.03654 -0.00337603 0)
(1.03292 0.00193537 0)
(1.03329 0.00720185 0)
(1.0375 0.0115625 0)
(1.04505 0.0150844 0)
(1.05624 0.0180307 0)
(1.07243 0.0206169 0)
(1.0952 0.0230282 0)
(1.09289 0.0233416 0)
(0.936461 0.0161369 0)
(0.551295 0.00482026 0)
(0.111078 0.0002644 0)
(0.110061 -0.000158365 0)
(0.743491 -0.00700838 0)
(1.03409 -0.0157688 0)
(1.10776 -0.0182745 0)
(1.09228 -0.0161551 0)
(1.07204 -0.0132324 0)
(1.0579 -0.0100419 0)
(1.04786 -0.00629886 0)
(1.04096 -0.00198573 0)
(1.03716 0.0028797 0)
(1.0373 0.00759165 0)
(1.04128 0.011523 0)
(1.04863 0.014635 0)
(1.05977 0.0171751 0)
(1.0763 0.0194489 0)
(1.09829 0.0215518 0)
(1.08501 0.0211542 0)
(0.906212 0.01364 0)
(0.52457 0.00395057 0)
(0.105367 0.000221984 0)
(0.106527 -0.000112823 0)
(0.720056 -0.00534885 0)
(1.01777 -0.0128584 0)
(1.10796 -0.0156635 0)
(1.09722 -0.0140287 0)
(1.07677 -0.0113334 0)
(1.06233 -0.00820432 0)
(1.05209 -0.00454206 0)
(1.04492 -0.000484188 0)
(1.0408 0.00398315 0)
(1.04072 0.00825852 0)
(1.04455 0.0116718 0)
(1.05178 0.0143757 0)
(1.06296 0.0166442 0)
(1.07973 0.0186192 0)
(1.09995 0.0201803 0)
(1.07538 0.0190509 0)
(0.878623 0.0115656 0)
(0.502402 0.00328701 0)
(0.100594 0.000191353 0)
(0.103997 -7.13912e-05 0)
(0.701577 -0.00388521 0)
(1.00297 -0.0100908 0)
(1.1074 -0.0128828 0)
(1.10154 -0.0114529 0)
(1.08108 -0.00887358 0)
(1.06633 -0.00593884 0)
(1.05574 -0.00258044 0)
(1.04836 0.00118358 0)
(1.04402 0.00533702 0)
(1.04355 0.0092044 0)
(1.047 0.0121566 0)
(1.05415 0.0143387 0)
(1.0654 0.0160643 0)
(1.08225 0.017536 0)
(1.10037 0.018688 0)
(1.06465 0.0170401 0)
(0.853834 0.00981923 0)
(0.483872 0.0027544 0)
(0.0965441 0.000167519 0)
(0.102386 -3.39517e-05 0)
(0.687738 -0.00252636 0)
(0.990238 -0.00736077 0)
(1.10654 -0.00993922 0)
(1.10567 -0.00863676 0)
(1.08527 -0.00617791 0)
(1.07022 -0.00343465 0)
(1.0594 -0.000282824 0)
(1.05159 0.00323347 0)
(1.04677 0.00700477 0)
(1.04592 0.0103487 0)
(1.04918 0.0127345 0)
(1.05611 0.0142791 0)
(1.06731 0.0154265 0)
(1.08437 0.0164808 0)
(1.10015 0.017307 0)
(1.05335 0.0151625 0)
(0.831827 0.00831813 0)
(0.468381 0.00233377 0)
(0.0930586 0.000152419 0)
(0.101617 4.51362e-06 0)
(0.678327 -0.00124356 0)
(0.979927 -0.00468845 0)
(1.10551 -0.00700097 0)
(1.10944 -0.00603983 0)
(1.08928 -0.00383062 0)
(1.074 -0.00109499 0)
(1.0631 0.00208562 0)
(1.05517 0.00552639 0)
(1.04996 0.0090336 0)
(1.04854 0.0119448 0)
(1.05114 0.0138816 0)
(1.05759 0.0150673 0)
(1.06851 0.0157342 0)
(1.08551 0.016275 0)
(1.09874 0.0163603 0)
(1.04157 0.0135079 0)
(0.812505 0.00706084 0)
(0.455435 0.00200336 0)
(0.0899845 0.00014269 0)
(0.101747 4.47079e-05 0)
(0.673318 3.62518e-05 0)
(0.972345 -0.00192643 0)
(1.10421 -0.00370377 0)
(1.11247 -0.00289901 0)
(1.09297 -0.000815762 0)
(1.07749 0.00189854 0)
(1.06613 0.00495968 0)
(1.05764 0.00819186 0)
(1.05177 0.0114917 0)
(1.04972 0.0140928 0)
(1.05188 0.0153672 0)
(1.05807 0.0158202 0)
(1.06881 0.0159919 0)
(1.08554 0.015808 0)
(1.09566 0.0152405 0)
(1.02937 0.0119033 0)
(0.795663 0.0059758 0)
(0.44465 0.00172944 0)
(0.0872666 0.000130147 0)
(0.102856 9.8278e-05 0)
(0.672576 0.00117943 0)
(0.967946 0.000582905 0)
(1.10362 -0.00042568 0)
(1.11558 0.000539508 0)
(1.09676 0.00263566 0)
(1.08116 0.00534644 0)
(1.06966 0.00841892 0)
(1.06084 0.0115889 0)
(1.0544 0.0145639 0)
(1.05142 0.0165813 0)
(1.05268 0.017322 0)
(1.05814 0.0171707 0)
(1.06846 0.0165854 0)
(1.08468 0.0160206 0)
(1.09166 0.0148131 0)
(1.01727 0.0110329 0)
(0.780847 0.00548043 0)
(0.43526 0.00165939 0)
(0.0848225 0.000128501 0)
(0.104749 0.000131643 0)
(0.674942 0.00199743 0)
(0.966693 0.00267222 0)
(1.10408 0.00242617 0)
(1.11892 0.00362205 0)
(1.10061 0.00590638 0)
(1.08472 0.00887757 0)
(1.07277 0.0121377 0)
(1.06333 0.0154385 0)
(1.05598 0.0183207 0)
(1.05203 0.0199653 0)
(1.05242 0.0201802 0)
(1.05719 0.019503 0)
(1.06706 0.0183604 0)
(1.08286 0.0171677 0)
(1.08645 0.0153237 0)
(1.00495 0.011049 0)
(0.767001 0.00563003 0)
(0.426003 0.00180457 0)
(0.0823291 0.000141635 0)
(0.107385 0.000171074 0)
(0.680464 0.00283173 0)
(0.968304 0.00454611 0)
(1.10569 0.00515249 0)
(1.1227 0.00660436 0)
(1.1049 0.00916382 0)
(1.08882 0.012569 0)
(1.07645 0.0162858 0)
(1.06623 0.0199659 0)
(1.05774 0.022962 0)
(1.05253 0.0244085 0)
(1.05179 0.0241918 0)
(1.05565 0.0228851 0)
(1.06484 0.0212205 0)
(1.07992 0.0193665 0)
(1.08004 0.0167586 0)
(0.992122 0.0119314 0)
(0.753015 0.00634939 0)
(0.415771 0.00212021 0)
(0.0794876 0.000168888 0)
(0.110827 0.000221569 0)
(0.688877 0.00375763 0)
(0.972764 0.00652102 0)
(1.1087 0.00821103 0)
(1.12699 0.0100969 0)
(1.1098 0.0131475 0)
(1.09361 0.017117 0)
(1.08063 0.0214093 0)
(1.06943 0.0255021 0)
(1.05953 0.0287109 0)
(1.05269 0.0299609 0)
(1.05059 0.0291737 0)
(1.05337 0.0272119 0)
(1.06177 0.0248196 0)
(1.07574 0.0222118 0)
(1.0722 0.01886 0)
(0.978477 0.0135125 0)
(0.737742 0.00746221 0)
(0.403806 0.00252635 0)
(0.0761023 0.000202748 0)
(0.115296 0.000290247 0)
(0.700428 0.00494993 0)
(0.980561 0.00886897 0)
(1.11411 0.0118514 0)
(1.13248 0.0148217 0)
(1.11562 0.0187949 0)
(1.09906 0.0234912 0)
(1.08525 0.028363 0)
(1.0727 0.0327556 0)
(1.06108 0.0358456 0)
(1.05231 0.0364899 0)
(1.04858 0.0349189 0)
(1.0501 0.0321428 0)
(1.05747 0.0288869 0)
(1.07027 0.0255286 0)
(1.06327 0.0215444 0)
(0.963875 0.0157699 0)
(0.720225 0.00883072 0)
(0.389674 0.00298615 0)
(0.0720624 0.00024102 0)
(0.121141 0.000387227 0)
(0.715723 0.00659516 0)
(0.992029 0.01184 0)
(1.12266 0.0160844 0)
(1.1403 0.0203734 0)
(1.12294 0.0256463 0)
(1.10553 0.0314043 0)
(1.09042 0.0369737 0)
(1.07612 0.0417475 0)
(1.06227 0.0446473 0)
(1.05119 0.0444765 0)
(1.04567 0.0417729 0)
(1.04586 0.0378798 0)
(1.05226 0.0340142 0)
(1.06377 0.0300656 0)
(1.05337 0.0256361 0)
(0.947024 0.0187895 0)
(0.699571 0.0103474 0)
(0.373184 0.00349458 0)
(0.0673179 0.000282052 0)
(0.128881 0.000524534 0)
(0.735786 0.00887124 0)
(1.00703 0.015723 0)
(1.13419 0.0210162 0)
(1.15065 0.0265187 0)
(1.13222 0.0331953 0)
(1.11328 0.0402302 0)
(1.0963 0.0468492 0)
(1.07972 0.0523613 0)
(1.06309 0.0555026 0)
(1.04931 0.054998 0)
(1.04161 0.0515432 0)
(1.04031 0.0466621 0)
(1.04603 0.0416022 0)
(1.05637 0.0369917 0)
(1.04131 0.0312378 0)
(0.925949 0.0222514 0)
(0.675336 0.01205 0)
(0.354045 0.00409526 0)
(0.0617844 0.000329615 0)
(0.139252 0.000735382 0)
(0.76219 0.0122131 0)
(1.02622 0.0212511 0)
(1.14821 0.0275962 0)
(1.16324 0.034034 0)
(1.14358 0.0419752 0)
(1.12267 0.0503619 0)
(1.10336 0.0584696 0)
(1.08394 0.0651225 0)
(1.06401 0.0688469 0)
(1.04714 0.0682787 0)
(1.03694 0.0643394 0)
(1.03365 0.0587926 0)
(1.03807 0.0527494 0)
(1.04641 0.0464783 0)
(1.02408 0.0377613 0)
(0.899749 0.0259059 0)
(0.647468 0.0140618 0)
(0.331822 0.00479179 0)
(0.0553757 0.000379385 0)
(0.153546 0.00107586 0)
(0.797206 0.0172351 0)
(1.05161 0.0292503 0)
(1.16486 0.0372762 0)
(1.17772 0.0447451 0)
(1.1567 0.0539156 0)
(1.13396 0.0639241 0)
(1.11182 0.0735874 0)
(1.08882 0.0812089 0)
(1.06496 0.0851066 0)
(1.04457 0.0839508 0)
(1.03159 0.0790528 0)
(1.02588 0.0723695 0)
(1.02785 0.0648124 0)
(1.03175 0.0558065 0)
(1.00063 0.0440615 0)
(0.869318 0.03001 0)
(0.615678 0.0165367 0)
(0.305948 0.00559773 0)
(0.0480182 0.00042997 0)
(0.173933 0.00168155 0)
(0.844113 0.0250711 0)
(1.08623 0.0411012 0)
(1.18552 0.0518789 0)
(1.19438 0.0613319 0)
(1.17214 0.0722725 0)
(1.14704 0.0837965 0)
(1.12116 0.094237 0)
(1.09374 0.101781 0)
(1.0653 0.104639 0)
(1.04095 0.101697 0)
(1.02482 0.09478 0)
(1.0162 0.0860307 0)
(1.01431 0.0761644 0)
(1.01189 0.0645795 0)
(0.972822 0.0507154 0)
(0.835491 0.035128 0)
(0.579087 0.0195708 0)
(0.27597 0.00649273 0)
(0.0397455 0.000474533 0)
(0.203747 0.0030356 0)
(0.908759 0.0385293 0)
(1.13343 0.0606291 0)
(1.21225 0.0749435 0)
(1.21452 0.0876787 0)
(1.18947 0.100172 0)
(1.16067 0.11206 0)
(1.12999 0.12171 0)
(1.09748 0.12751 0)
(1.06399 0.127685 0)
(1.03532 0.121489 0)
(1.01566 0.111468 0)
(1.00368 0.0999134 0)
(0.997252 0.0874706 0)
(0.988615 0.0739963 0)
(0.942482 0.0589759 0)
(0.797637 0.0416861 0)
(0.536696 0.0232183 0)
(0.242093 0.0074969 0)
(0.0308397 0.000508496 0)
(0.244897 0.0092975 3.50757e-20)
(0.994637 0.0654044 2.95778e-20)
(1.19114 0.0939944 -1.0024e-20)
(1.24468 0.110524 0)
(1.23689 0.126625 -2.24284e-34)
(1.20676 0.139061 3.20026e-21)
(1.17295 0.149578 -5.31809e-21)
(1.1368 0.156845 0)
(1.09874 0.159478 9.9503e-35)
(1.05974 0.155757 -5.67475e-21)
(1.0262 0.145376 0)
(1.00242 0.131701 -6.33952e-21)
(0.98637 0.117115 -1.84406e-20)
(0.975089 0.102447 -8.62674e-21)
(0.960865 0.0880362 -2.55499e-21)
(0.907153 0.0725895 -1.50831e-21)
(0.75094 0.0523121 0)
(0.484384 0.0291377 1.05587e-21)
(0.204599 0.0100391 1.25123e-21)
(0.0225937 0.000958925 2.28688e-20)
(0.272301 0.0248383 3.1908e-20)
(1.06534 0.107993 1.03063e-22)
(1.23897 0.141875 2.95823e-21)
(1.27578 0.160085 0)
(1.25763 0.175778 -1.22761e-20)
(1.2217 0.186873 -1.3364e-20)
(1.18236 0.195375 -5.58081e-21)
(1.1404 0.200107 -1.84328e-20)
(1.09631 0.199567 0)
(1.051 0.191944 2.42697e-20)
(1.01135 0.177459 2.33124e-20)
(0.982081 0.160253 6.76713e-21)
(0.960804 0.14297 2.39239e-20)
(0.944184 0.126442 3.29133e-20)
(0.923357 0.110562 0)
(0.862261 0.0936333 4.58215e-20)
(0.696678 0.0690824 6.58015e-20)
(0.432064 0.0400638 7.32596e-20)
(0.173646 0.0151483 -8.41052e-20)
(0.0165455 0.001466 -1.60184e-21)
(0.272296 0.040941 0)
(1.10968 0.163486 6.99431e-21)
(1.27275 0.201092 0)
(1.30017 0.21968 -2.00601e-20)
(1.27412 0.232445 0)
(1.23277 0.240489 -2.79033e-20)
(1.18799 0.245693 1.17698e-20)
(1.14041 0.246932 -3.86208e-20)
(1.09053 0.242643 -3.16952e-22)
(1.03919 0.230949 1.28313e-20)
(0.99382 0.21257 5.05835e-20)
(0.95963 0.192444 -6.28409e-23)
(0.93402 0.173256 -1.72389e-20)
(0.913472 0.155645 -3.06718e-20)
(0.889043 0.139074 3.60945e-20)
(0.827534 0.120002 -6.38399e-20)
(0.666058 0.0907348 -8.42815e-21)
(0.416112 0.0555836 0)
(0.175149 0.0231251 5.85154e-24)
(0.0185609 0.00255591 0)
(0.265267 0.0547798 1.30367e-19)
(1.133 0.222559 -5.72625e-20)
(1.29436 0.265296 -3.6236e-20)
(1.31626 0.283876 1.04419e-20)
(1.28474 0.293143 -1.69898e-20)
(1.23907 0.297472 5.93897e-20)
(1.18964 0.298831 2.50104e-20)
(1.13712 0.296111 0)
(1.08209 0.287742 -6.79329e-20)
(1.02528 0.271881 0)
(0.974799 0.249845 -2.68798e-20)
(0.936394 0.227132 -3.17255e-20)
(0.907425 0.206416 -1.8632e-20)
(0.884171 0.18785 -2.21023e-20)
(0.858022 0.170436 0)
(0.798299 0.149776 0)
(0.650024 0.116924 -5.47403e-20)
(0.419416 0.0760107 1.08138e-20)
(0.188215 0.0342051 -6.37942e-21)
(0.0235314 0.0045304 -7.55377e-21)
(0.257778 0.0671571 -7.97424e-20)
(1.14269 0.281426 0)
(1.30653 0.330575 8.78193e-20)
(1.32493 0.349183 3.26302e-20)
(1.28949 0.355063 3.70095e-20)
(1.24047 0.355673 0)
(1.18733 0.35313 2.60242e-20)
(1.13073 0.346382 4.37665e-20)
(1.07123 0.333932 3.57708e-20)
(1.00973 0.313906 5.95832e-20)
(0.954883 0.288305 0)
(0.912982 0.263148 -6.82004e-20)
(0.881356 0.240881 -4.00879e-20)
(0.856121 0.221515 -2.34609e-20)
(0.829115 0.203362 1.40519e-19)
(0.773071 0.18153 1.66707e-20)
(0.638893 0.145763 7.87278e-20)
(0.426741 0.0984986 -3.73349e-19)
(0.202293 0.0473584 2.21578e-19)
(0.0286356 0.0070194 -2.70496e-19)
(0.251018 0.0783519 -7.276e-20)
(1.14394 0.338316 1.5322e-20)
(1.31179 0.395124 -1.28776e-20)
(1.32771 0.4139 -4.39353e-20)
(1.28932 0.416591 -3.7627e-20)
(1.23766 0.413617 3.46153e-22)
(1.18151 0.407338 -2.79628e-20)
(1.1215 0.39673 4.63015e-20)
(1.05828 0.380304 -7.67414e-20)
(0.992725 0.356231 0)
(0.934241 0.327093 -3.15222e-20)
(0.889577 0.29952 -3.16823e-22)
(0.855881 0.275693 -4.33413e-20)
(0.829202 0.255397 0)
(0.801921 0.236665 -3.02396e-20)
(0.749475 0.213841 -7.16319e-20)
(0.628053 0.175553 1.9163e-19)
(0.431492 0.121782 -1.89121e-19)
(0.212739 0.0609848 2.6913e-19)
(0.0326997 0.00967613 -2.83233e-19)
(0.245597 0.0888223 -1.05291e-22)
(1.14003 0.392612 -1.55189e-20)
(1.31211 0.458365 -5.30412e-20)
(1.32591 0.477004 2.26267e-20)
(1.28525 0.476782 -1.98813e-20)
(1.23146 0.470458 0)
(1.17284 0.460662 -2.86987e-20)
(1.10995 0.446418 -4.91709e-20)
(1.0435 0.426203 -4.06131e-20)
(0.974497 0.398198 0)
(0.912894 0.365568 -3.32533e-20)
(0.865992 0.335452 -3.93249e-20)
(0.8308 0.31001 4.66452e-20)
(0.803213 0.288654 -2.76753e-20)
(0.776025 0.269271 -1.3053e-19)
(0.726855 0.245211 7.7484e-20)
(0.615452 0.204737 2.3165e-20)
(0.430589 0.1443 0)
(0.216722 0.0736048 -2.57688e-19)
(0.0348698 0.0120364 -9.55372e-21)
(0.241517 0.098864 -9.75981e-21)
(1.13308 0.444186 1.60472e-20)
(1.30857 0.51907 2.80992e-20)
(1.32062 0.537838 7.35007e-20)
(1.27817 0.535038 -8.27925e-20)
(1.22267 0.525655 7.16212e-20)
(1.16196 0.512622 6.14943e-20)
(1.0966 0.494985 -7.87772e-20)
(1.02732 0.471186 2.2966e-20)
(0.95523 0.439365 -1.46141e-19)
(0.890871 0.403253 -3.64601e-20)
(0.842108 0.370459 0)
(0.805829 0.343101 5.01829e-20)
(0.777749 0.320485 5.91097e-20)
(0.750938 0.300177 6.99415e-20)
(0.704547 0.274854 -8.33823e-20)
(0.600472 0.231627 -2.46907e-20)
(0.42407 0.164166 2.91837e-20)
(0.215181 0.083818 0)
(0.0352053 0.0138112 -2.05472e-20)
(0.23859 0.108569 9.96755e-20)
(1.12463 0.493083 -6.63219e-20)
(1.30232 0.57703 -2.96818e-20)
(1.31274 0.596066 5.13283e-20)
(1.26882 0.590972 -4.30667e-20)
(1.21192 0.578849 -8.06471e-22)
(1.14945 0.562898 -6.61552e-20)
(1.08194 0.542142 -2.8224e-20)
(1.01011 0.51499 -7.00119e-20)
(0.935175 0.479509 4.48342e-23)
(0.868332 0.439872 -1.15625e-19)
(0.817903 0.404254 9.20975e-20)
(0.780799 0.374743 -5.42971e-20)
(0.752495 0.350486 6.40759e-20)
(0.726169 0.328888 0)
(0.681922 0.301895 -4.48031e-20)
(0.583084 0.255384 -1.8868e-22)
(0.412619 0.180652 -1.2573e-19)
(0.209089 0.0913267 -1.86096e-20)
(0.0341212 0.0149082 0)
(0.236693 0.118122 0)
(1.11549 0.539537 -7.02033e-20)
(1.29411 0.632185 -6.12128e-20)
(1.30298 0.651545 -5.39312e-20)
(1.25783 0.644397 -4.73068e-20)
(1.19976 0.629841 0)
(1.13578 0.611274 -3.38127e-20)
(1.06636 0.587697 -2.41318e-22)
(0.992223 0.55746 1.49779e-19)
(0.914623 0.518505 -2.05369e-20)
(0.845375 0.47534 -8.28955e-20)
(0.793451 0.436714 4.86191e-20)
(0.75561 0.404745 -4.04743e-22)
(0.727192 0.378592 6.83054e-20)
(0.701316 0.355371 4.104e-20)
(0.658665 0.326274 -9.63201e-20)
(0.56321 0.275655 1.14193e-19)
(0.396978 0.193642 3.3828e-20)
(0.199078 0.0961093 1.40217e-19)
(0.0317905 0.0152803 -3.79675e-19)
(0.235672 0.127641 2.11558e-20)
(1.1062 0.5837 -3.58781e-20)
(1.28458 0.684562 3.02543e-20)
(1.29192 0.704217 5.60156e-20)
(1.24572 0.695223 0)
(1.18665 0.678516 -4.12004e-20)
(1.12136 0.657634 1.09718e-19)
(1.05024 0.631533 6.35527e-20)
(0.973963 0.598495 0)
(0.893792 0.55628 -2.89522e-19)
(0.822169 0.50965 2.22561e-19)
(0.768684 0.467849 0)
(0.730091 0.433199 6.26627e-20)
(0.701556 0.40481 -4.03301e-22)
(0.676073 0.379593 -1.31264e-19)
(0.634459 0.347905 5.14339e-20)
(0.541063 0.292434 0)
(0.378 0.202928 1.81678e-19)
(0.186121 0.0984772 0)
(0.0287044 0.0150428 -1.78573e-19)
(0.23535 0.137133 -2.19301e-20)
(1.09713 0.625719 -3.67235e-20)
(1.27417 0.73418 3.2708e-20)
(1.27998 0.754081 0)
(1.23287 0.743435 -5.15523e-20)
(1.17296 0.724835 0)
(1.10653 0.701907 -1.14862e-19)
(1.03387 0.673577 -3.2477e-20)
(0.955578 0.638042 2.77142e-20)
(0.872888 0.592829 -1.4301e-19)
(0.798759 0.542822 2.34264e-20)
(0.743531 0.497744 0)
(0.704112 0.460124 -1.33922e-19)
(0.67544 0.429221 4.13758e-22)
(0.650221 0.401669 0)
(0.609096 0.366882 4.65616e-22)
(0.516611 0.305802 1.64672e-19)
(0.355981 0.208536 -1.563e-19)
(0.170935 0.0983761 4.6289e-20)
(0.0251054 0.0142257 0)
(0.23539 0.146486 0)
(1.08843 0.665649 -3.79877e-20)
(1.26326 0.781118 -3.30598e-20)
(1.26752 0.801194 -4.58909e-22)
(1.21962 0.789059 -2.6168e-20)
(1.15899 0.768797 -9.36874e-20)
(1.09155 0.744076 4.14351e-20)
(1.0175 0.713799 -3.57981e-20)
(0.937295 0.676072 1.20333e-19)
(0.852063 0.628171 -2.2877e-19)
(0.775251 0.57495 -6.75649e-22)
(0.71812 0.52651 -6.05092e-20)
(0.677684 0.485725 2.15977e-19)
(0.648751 0.451999 -4.88643e-22)
(0.623651 0.421762 -1.00977e-19)
(0.582466 0.383288 -1.79543e-19)
(0.489919 0.315882 0)
(0.331434 0.210698 0)
(0.154037 0.0958266 4.97824e-20)
(0.0211995 0.0129064 -2.95113e-20)
(0.235903 0.155791 -2.33509e-20)
(1.08024 0.703419 7.96736e-20)
(1.25207 0.825467 3.52598e-20)
(1.25482 0.845619 0)
(1.20623 0.832146 -3.21738e-22)
(1.14498 0.810427 -9.74095e-20)
(1.07666 0.784151 1.07882e-19)
(1.00133 0.752194 1.49089e-19)
(0.919301 0.712589 1.59091e-19)
(0.831516 0.662334 -1.88747e-19)
(0.75188 0.606145 -1.90539e-19)
(0.69251 0.554353 1.61792e-19)
(0.650775 0.510146 0)
(0.621414 0.473285 -4.60159e-20)
(0.596291 0.439979 -1.08729e-19)
(0.554554 0.397178 -1.28555e-19)
(0.460903 0.32253 -1.52534e-19)
(0.304651 0.209366 4.51972e-20)
(0.135694 0.0908458 -2.67203e-20)
(0.0170154 0.011092 7.04621e-23)
(0.23661 0.164859 0)
(1.07255 0.739504 0)
(1.24078 0.867298 5.42447e-22)
(1.24207 0.887437 0)
(1.19289 0.872772 8.66013e-20)
(1.13111 0.849781 7.60612e-20)
(1.06204 0.822156 0)
(0.985547 0.788776 1.92145e-20)
(0.901782 0.747602 2.6949e-19)
(0.811462 0.695362 -4.32976e-19)
(0.72879 0.636507 0)
(0.666799 0.581442 -1.03878e-19)
(0.623371 0.533608 -5.95919e-22)
(0.59335 0.49325 -4.86887e-22)
(0.568047 0.456377 1.16251e-19)
(0.525316 0.408449 -8.20443e-23)
(0.429894 0.325655 -3.27623e-19)
(0.275678 0.204363 9.70779e-20)
(0.116427 0.0836573 2.87854e-20)
(0.0128265 0.00893641 0)
(0.237299 0.173748 7.45582e-20)
(1.06515 0.773871 4.28607e-20)
(1.22952 0.906692 7.54041e-20)
(1.22944 0.926749 -1.35899e-19)
(1.17975 0.911005 1.51018e-19)
(1.11753 0.886914 0)
(1.04781 0.858134 7.16511e-20)
(0.97028 0.823568 -4.15562e-20)
(0.88489 0.781128 7.77102e-22)
(0.792046 0.72729 3.12683e-20)
(0.706117 0.666131 2.47686e-19)
(0.641121 0.60797 -3.67378e-20)
(0.595514 0.556394 -1.32599e-19)
(0.564432 0.512092 -5.31871e-20)
(0.538754 0.470922 6.28145e-20)
(0.494702 0.416852 -5.35175e-23)
(0.397242 0.324996 8.81239e-20)
(0.245367 0.195787 -2.08477e-19)
(0.0970178 0.0746769 2.47338e-19)
(0.0087948 0.00657118 3.65434e-20)
(0.237727 0.18235 -2.56792e-20)
(1.05806 0.806595 2.2359e-20)
(1.21842 0.943759 1.2631e-21)
(1.21704 0.963672 -7.01501e-20)
(1.16693 0.946948 -3.09159e-20)
(1.10435 0.921891 -1.42973e-19)
(1.03409 0.89213 2.44528e-20)
(0.95564 0.85659 -1.76332e-19)
(0.868735 0.813162 -3.03729e-19)
(0.773392 0.758115 -2.61248e-19)
(0.684061 0.695098 0)
(0.615642 0.634134 -1.58943e-19)
(0.567246 0.578804 1.89973e-19)
(0.534501 0.530063 0)
(0.508103 0.483502 -1.34434e-19)
(0.462585 0.421878 7.99526e-20)
(0.363293 0.320051 -9.45405e-20)
(0.214845 0.183772 -1.12056e-19)
(0.0784164 0.0644413 -1.99033e-19)
(0.00516853 0.00418928 -1.57134e-19)
(0.238459 0.190753 2.64893e-20)
(1.05113 0.837654 -2.38958e-20)
(1.20752 0.978563 -6.00042e-20)
(1.20494 0.998287 -9.18981e-20)
(1.15449 0.980686 6.67472e-20)
(1.09164 0.954793 -8.95216e-20)
(1.02095 0.924191 7.90027e-20)
(0.941698 0.887881 -1.86253e-19)
(0.853391 0.843723 -1.81532e-19)
(0.755637 0.787851 2.76513e-19)
(0.662794 0.723456 5.45904e-19)
(0.590542 0.660077 0)
(0.538699 0.601165 0)
(0.503372 0.54757 -6.10837e-20)
(0.475533 0.494104 0)
(0.428492 0.42268 1.71827e-19)
(0.328541 0.309773 2.03222e-19)
(0.185711 0.168115 0)
(0.0619953 0.053519 0)
(0.00216575 0.00198998 1.68718e-19)
(0.238792 0.198628 -2.72058e-20)
(1.04439 0.86704 -2.24893e-20)
(1.1969 1.01122 -4.23555e-20)
(1.19321 1.03072 7.61128e-20)
(1.1425 1.01232 6.98503e-20)
(1.07945 0.985688 1.0914e-19)
(1.00844 0.954376 -1.11665e-19)
(0.928506 0.917468 7.31481e-23)
(0.838933 0.872819 -1.00807e-21)
(0.738883 0.81649 -1.18312e-21)
(0.642481 0.751228 2.81718e-19)
(0.566037 0.685902 0)
(0.510078 0.623765 1.90931e-19)
(0.470963 0.565189 1.30342e-19)
(0.440228 0.50311 3.11312e-19)
(0.391201 0.418302 9.22245e-20)
(0.29311 0.29184 -1.09428e-19)
(0.161117 0.146872 -6.45252e-20)
(0.052003 0.0416528 0)
(0.000749309 0.000227688 1.81148e-19)
(0.239437 0.206477 5.56555e-20)
(1.03782 0.894887 0)
(1.18656 1.04178 -4.32731e-20)
(1.18188 1.06105 5.9914e-20)
(1.13101 1.04193 -7.22806e-20)
(1.06782 1.01466 -1.46412e-19)
(0.996596 0.982738 2.34132e-19)
(0.916096 0.945387 -1.39694e-20)
(0.825395 0.900459 0)
(0.723196 0.843995 -3.11234e-19)
(0.623271 0.77841 -6.17326e-19)
(0.542353 0.711682 2.38247e-20)
(0.481704 0.6468 2.62309e-19)
(0.437388 0.583558 0)
(0.401344 0.511559 2.09007e-19)
(0.348296 0.408707 0)
(0.254208 0.262663 0)
(0.143715 0.109938 -6.96815e-20)
(0.0694077 0.015772 0)
(0.0242038 0.00579017 4.8548e-20)
(0.239609 0.2137 5.7281e-20)
(1.03139 0.921435 0)
(1.1765 1.07045 -6.6604e-20)
(1.17091 1.0895 0)
(1.11997 1.06977 3.66277e-20)
(1.05669 1.04198 0)
(0.985349 1.00958 1.43581e-20)
(0.904373 0.971974 2.65799e-20)
(0.812663 0.927011 2.30131e-20)
(0.708425 0.870755 -3.45758e-19)
(0.605033 0.805445 1.91436e-20)
(0.519331 0.737985 1.89091e-19)
(0.453338 0.670851 2.55784e-19)
(0.402159 0.603616 3.37176e-20)
(0.357454 0.521494 1.62802e-19)
(0.295764 0.396289 0)
(0.201046 0.223343 2.29338e-19)
(0.105245 0.0507388 -1.35206e-19)
(0.0358905 0.0584533 1.58631e-19)
(-0.0370793 0.439909 -1.8833e-19)
(0.23969 0.2207 -4.46124e-20)
(1.02492 0.946566 -7.55215e-20)
(1.16664 1.09755 0)
(1.16018 1.1165 1.09397e-21)
(1.10921 1.09641 -9.4056e-20)
(1.04581 1.06833 2.5535e-19)
(0.974404 1.03571 9.12329e-20)
(0.892955 0.998172 0)
(0.800236 0.953576 1.61022e-19)
(0.693933 0.89808 -1.89937e-20)
(0.586903 0.833822 0)
(0.49586 0.766594 0)
(0.423652 0.697734 2.28598e-19)
(0.363774 0.627031 -1.02904e-19)
(0.306189 0.536212 -1.63752e-19)
(0.229883 0.386845 0)
(0.112708 0.208776 1.15775e-19)
(0.0129468 0.456666 -1.35798e-19)
(0.0370276 1.88961 -7.82281e-20)
(0.0649195 2.80463 -9.44945e-20)
(0.239423 0.227096 3.00873e-20)
(1.01845 0.970458 9.07564e-20)
(1.157 1.12307 -3.60274e-20)
(1.1497 1.14192 -4.30507e-20)
(1.09881 1.12166 0)
(1.03526 1.09345 1.75379e-19)
(0.963952 1.0608 1.39045e-19)
(0.882013 1.02355 -1.38065e-20)
(0.788371 0.979632 2.37252e-20)
(0.680084 0.925347 3.35694e-19)
(0.569483 0.86282 3.17924e-19)
(0.472927 0.797111 2.13713e-19)
(0.393804 0.727021 2.29547e-19)
(0.324337 0.652323 -2.40397e-19)
(0.254346 0.558053 -2.46081e-19)
(0.150316 0.418778 0)
(0.0534879 0.858251 0)
(0.101163 2.55535 6.60249e-20)
(0.104082 3.19526 0)
(0.104677 3.38318 1.77292e-19)
(0.241912 0.233014 0)
(1.01222 0.99342 0)
(1.1473 1.14688 0)
(1.13927 1.16557 -1.06842e-20)
(1.08848 1.1453 -8.17775e-20)
(1.02483 1.11717 1.25107e-19)
(0.953917 1.08476 9.50335e-20)
(0.871479 1.04798 -1.40364e-20)
(0.777005 1.00501 2.12105e-19)
(0.666865 0.95239 -2.08392e-21)
(0.552858 0.892213 6.36399e-19)
(0.450939 0.82951 -2.42483e-20)
(0.364162 0.759153 2.82776e-20)
(0.285995 0.677062 3.4557e-20)
(0.197175 0.585966 8.02788e-23)
(0.113594 0.999215 3.25155e-22)
(0.143392 2.71595 -3.37769e-19)
(0.151973 3.29237 -1.308e-19)
(0.139251 3.42436 7.32408e-20)
(0.125311 3.44559 -8.45276e-20)
(0.16376 0.177625 -1.56161e-20)
(1.00156 1.01825 0)
(1.1375 1.16922 6.28752e-20)
(1.12926 1.18775 1.03059e-19)
(1.07867 1.16781 -1.5422e-19)
(1.01514 1.13995 -1.29443e-19)
(0.944086 1.1076 -1.06083e-19)
(0.861385 1.07149 1.82313e-19)
(0.76626 1.0297 -1.80421e-19)
(0.654561 0.979196 0)
(0.537406 0.921909 3.19642e-19)
(0.430399 0.863532 -1.77152e-19)
(0.335312 0.796906 0)
(0.249134 0.707027 3.36824e-20)
(0.161744 0.858732 7.9562e-20)
(0.157989 2.49466 -9.30434e-20)
(0.214586 3.32745 1.07762e-19)
(0.193209 3.44076 6.09761e-20)
(0.159569 3.46009 7.13311e-20)
(0.137693 3.46876 1.20605e-19)
(0.276808 0.271288 3.22608e-20)
(0.984497 1.02833 0)
(1.11975 1.19464 -5.94057e-20)
(1.11537 1.22086 -9.79465e-20)
(1.06308 1.20134 1.48692e-19)
(0.999148 1.174 1.23884e-19)
(0.927133 1.14299 1.39214e-19)
(0.843839 1.10812 1.38733e-20)
(0.747449 1.06852 1.84011e-19)
(0.633155 1.02203 3.12173e-19)
(0.511116 0.97085 1.90116e-20)
(0.396662 0.920851 1.61399e-19)
(0.283902 0.866334 2.73835e-20)
(0.220938 1.02091 -3.29121e-20)
(0.229162 2.35793 -7.61658e-20)
(0.283305 3.33578 8.23887e-20)
(0.267736 3.4736 -9.42221e-20)
(0.231166 3.49199 -5.53353e-20)
(0.194772 3.51592 -5.83343e-20)
(0.146884 3.50864 -8.28678e-21)
(0.266807 0.270065 0)
(0.98181 1.05098 -1.16511e-20)
(1.11173 1.21795 1.04777e-20)
(1.10554 1.24397 9.6739e-21)
(1.05315 1.22439 9.20789e-20)
(0.989344 1.19728 -1.17543e-19)
(0.917054 1.16652 -8.76862e-20)
(0.833661 1.1325 1.32102e-20)
(0.736938 1.0944 -1.98699e-19)
(0.621686 1.0508 -3.00189e-21)
(0.497412 1.00433 -6.01977e-19)
(0.379296 0.960096 2.28473e-20)
(0.273235 0.939894 -2.65291e-20)
(0.257811 1.54077 -3.14907e-20)
(0.321524 3.11741 3.67491e-21)
(0.340017 3.47727 4.90019e-22)
(0.296338 3.52875 1.6593e-19)
(0.26009 3.54854 9.26728e-20)
(0.212057 3.56805 -4.59814e-20)
(0.158691 3.56255 -5.11427e-20)
(0.252414 0.267698 -2.48134e-20)
(0.978138 1.07613 -7.40914e-20)
(1.10328 1.24326 2.94075e-20)
(1.09532 1.26862 3.67868e-20)
(1.04287 1.24889 0)
(0.979204 1.22179 -1.53925e-19)
(0.906894 1.19129 -1.23564e-19)
(0.823666 1.15805 1.25234e-20)
(0.726921 1.12151 -2.16399e-20)
(0.611224 1.08097 -3.0441e-19)
(0.485554 1.03964 -2.88202e-19)
(0.366115 1.00261 -1.96292e-19)
(0.279952 1.07854 -2.04363e-19)
(0.322064 2.23809 2.08028e-19)
(0.403352 3.39641 1.93405e-19)
(0.380641 3.54002 0)
(0.328692 3.57616 0)
(0.290592 3.60956 -3.82031e-20)
(0.24039 3.65764 0)
(0.168488 3.63616 -7.53942e-20)
(0.242054 0.269182 3.17833e-20)
(0.972438 1.10208 5.60945e-20)
(1.09347 1.26979 0)
(1.08394 1.29416 1.30304e-21)
(1.03148 1.27404 7.8395e-20)
(0.968059 1.24683 -2.15586e-19)
(0.896048 1.21659 -7.73319e-20)
(0.813214 1.18404 1.11706e-20)
(0.716707 1.14899 -1.59624e-19)
(0.600983 1.11146 1.67578e-20)
(0.474696 1.07548 0)
(0.357055 1.04923 0)
(0.310205 1.33563 -1.94689e-19)
(0.400681 2.9087 8.20206e-20)
(0.472485 3.50684 1.17796e-19)
(0.419922 3.57838 0)
(0.37612 3.63211 -5.42756e-20)
(0.329834 3.68214 5.37682e-20)
(0.27856 3.64996 1.67009e-20)