/*--------------------------------*- C++ -*----------------------------------*\
  =========                 |
  \\      /  F ield         | OpenFOAM: The Open Source CFD Toolbox
   \\    /   O peration     | Website:  https://openfoam.org
    \\  /    A nd           | Version:  6
     \\/     M anipulation  |
\*---------------------------------------------------------------------------*/
FoamFile
{
    version     2.0;
    format      ascii;
    class       surfaceScalarField;
    location    "7";
    object      phi;
}
// * * * * * * * * * * * * * * * * * * * * * * * * * * * * * * * * * * * * * //

dimensions      [1 0 -1 0 0 0 0];

internalField   nonuniform List<scalar> 
10325
(
0.00840003
1.88208e-11
0.00840003
1.44759e-10
0.00840003
4.50217e-10
0.00840003
1.34834e-09
0.00840002
3.20346e-09
0.00840001
8.44005e-09
0.00839999
1.89728e-08
0.00839993
4.93129e-08
0.00839982
1.08441e-07
0.00839942
2.96542e-07
0.0083988
6.415e-07
0.00839639
1.9078e-06
0.00839093
5.15274e-06
0.00837243
1.70911e-05
0.00830423
6.41349e-05
0.00786178
0.000428299
0.00719323
0.000660697
0.00642669
0.000764922
0.00564102
0.000784852
0.00482645
0.000813799
0.00401451
0.000810467
0.00314692
0.000866146
0.00218276
0.000962899
0.00111505
0.00106645
0.00111391
0.00840003
3.94092e-11
0.00840003
3.05498e-10
0.00840003
9.42901e-10
0.00840003
2.83282e-09
0.00840002
6.69957e-09
0.00840001
1.7719e-08
0.00839999
3.9681e-08
0.00839992
1.03785e-07
0.0083998
2.26122e-07
0.00839937
6.29869e-07
0.00839868
1.33873e-06
0.00839599
4.11031e-06
0.0083899
1.09109e-05
0.0083683
3.72882e-05
0.00828839
0.000139959
0.00778724
0.000915319
0.00710743
0.0013326
0.00640063
0.00147015
0.00566678
0.00151788
0.00488928
0.0015906
0.0040505
0.00164768
0.00314001
0.00177513
0.0021551
0.00194658
0.00110479
0.00211568
0.00221758
0.00840003
6.2445e-11
0.00840003
4.83885e-10
0.00840003
1.49307e-09
0.00840003
4.48682e-09
0.00840002
1.06095e-08
0.00840001
2.80842e-08
0.00839999
6.28831e-08
0.00839991
1.64802e-07
0.00839977
3.58416e-07
0.0083993
1.00419e-06
0.00839852
2.12331e-06
0.00839555
6.58778e-06
0.00838875
1.7375e-05
0.00836471
5.99028e-05
0.00827732
0.000223228
0.00775908
0.00141946
0.00706386
0.00201985
0.00638227
0.00215017
0.00568012
0.00221936
0.00493112
0.002339
0.00409333
0.00248416
0.00316072
0.00270627
0.00216207
0.002944
0.00110281
0.00317367
0.00331925
0.00840003
8.86385e-11
0.00840003
6.86801e-10
0.00840003
2.11866e-09
0.00840003
6.36748e-09
0.00840002
1.50561e-08
0.00840001
3.98645e-08
0.00839998
8.92681e-08
0.0083999
2.33976e-07
0.00839974
5.09071e-07
0.00839922
1.42516e-06
0.00839833
3.01524e-06
0.00839508
9.33561e-06
0.00838749
2.46077e-05
0.00836141
8.45215e-05
0.00826872
0.000311698
0.00773962
0.00193457
0.00704447
0.00270662
0.00639662
0.00279704
0.00571907
0.00289592
0.00498492
0.00307189
0.00415883
0.00330889
0.00323532
0.00362841
0.00221258
0.00396551
0.00112514
0.0042598
0.00444323
0.00840003
1.18863e-10
0.00840003
9.20959e-10
0.00840003
2.84066e-09
0.00840003
8.53736e-09
0.00840002
2.01867e-08
0.0084
5.34423e-08
0.00839997
1.19677e-07
0.00839988
3.13489e-07
0.0083997
6.82598e-07
0.00839912
1.90583e-06
0.00839808
4.039e-06
0.00839443
1.24742e-05
0.00838594
3.27031e-05
0.00835639
0.000112529
0.00825515
0.000408674
0.00769816
0.00247714
0.00706507
0.00333233
0.00643547
0.00342704
0.005778
0.00355311
0.00506818
0.00378119
0.00425835
0.0041172
0.00333806
0.00454752
0.00232197
0.00498044
0.00119776
0.00538269
0.00563979
0.00840003
1.54254e-10
0.00840003
1.19473e-09
0.00840003
3.68979e-09
0.00840002
1.10793e-08
0.00840002
2.6205e-08
0.0084
6.92643e-08
0.00839996
1.55063e-07
0.00839985
4.05772e-07
0.00839965
8.80169e-07
0.00839898
2.46991e-06
0.00839784
5.16701e-06
0.00839345
1.63127e-05
0.00838444
4.12936e-05
0.00834827
0.000147046
0.00823351
0.00051836
0.0075853
0.00311054
0.0071123
0.0037987
0.00648115
0.0040558
0.00585059
0.00418328
0.00517101
0.00446057
0.00440352
0.0048835
0.00350111
0.00544851
0.00246403
0.0060162
0.00129893
0.00654655
0.00693759
0.00840003
1.99411e-10
0.00840003
1.5441e-09
0.00840003
4.76973e-09
0.00840002
1.43105e-08
0.00840002
3.38401e-08
0.00839999
8.92714e-08
0.00839995
1.99718e-07
0.00839981
5.20641e-07
0.00839956
1.13046e-06
0.00839877
3.14171e-06
0.00839731
6.59914e-06
0.00839255
2.04987e-05
0.0083814
5.1988e-05
0.00834526
0.000181409
0.00823344
0.000624341
0.00762624
0.00370305
0.00705744
0.00436183
0.00653473
0.00457725
0.005965
0.00475298
0.0053308
0.00509532
0.00459259
0.0056219
0.0037241
0.00631549
0.00269552
0.00704366
0.001471
0.00777002
0.00840757
0.00840003
2.57498e-10
0.00840003
2.00092e-09
0.00840003
6.2298e-09
0.00840002
1.86372e-08
0.00840001
4.42061e-08
0.00839998
1.15918e-07
0.00839992
2.59855e-07
0.00839975
6.72389e-07
0.00839942
1.45178e-06
0.0083984
4.0387e-06
0.00839674
8.22429e-06
0.00839049
2.61191e-05
0.00837957
6.23685e-05
0.00833645
0.000222544
0.00823091
0.000724446
0.0076436
0.00427265
0.00707435
0.00492887
0.00660874
0.00504178
0.00613759
0.00522378
0.00553986
0.00569292
0.00486147
0.00630069
0.00403294
0.00714386
0.00300825
0.00806688
0.00173743
0.0090397
0.0101441
0.00840003
3.7791e-10
0.00840003
2.72626e-09
0.00840003
9.07476e-09
0.00840002
2.52035e-08
0.0084
6.44074e-08
0.00839995
1.57851e-07
0.00839982
3.87339e-07
0.00839958
8.98581e-07
0.00839869
2.32481e-06
0.00839784
4.76366e-06
0.00839218
1.38089e-05
0.00839024
2.74078e-05
0.00836274
8.91663e-05
0.00834757
0.000235682
0.00823457
0.000831646
0.00770794
0.00478004
0.00714131
0.00549443
0.00671267
0.00547018
0.00633681
0.00559948
0.00583038
0.00619863
0.00522579
0.00690462
0.00447427
0.00789534
0.00358349
0.00895788
0.00227543
0.0103475
0.0124188
0.00840003
-3.00685e-10
0.00840003
5.0782e-09
0.00840003
3.20622e-09
0.00840002
4.16487e-08
0.00840005
2.72191e-08
0.00839995
2.61886e-07
0.00840018
1.49367e-07
0.00839939
1.66822e-06
0.00840144
2.61392e-07
0.00839423
1.1838e-05
0.00841333
-5.38135e-06
0.00835766
8.23654e-05
0.00847843
-3.23501e-05
0.00818441
0.000527162
0.00830669
0.000702659
0.00780391
0.00526137
0.00729545
0.00600469
0.00694193
0.0058252
0.00659089
0.00595006
0.00621096
0.00657805
0.00571956
0.00739564
0.00517245
0.00844206
0.00435863
0.00977023
0.00314333
0.0115622
0.0155614
0.00840003
3.43547e-10
0.00840003
1.84049e-09
0.00840003
7.22266e-09
0.00840005
1.79414e-08
0.00840003
5.12474e-08
0.00840018
1.11354e-07
0.0084
3.16692e-07
0.00840106
5.98506e-07
0.00839916
2.10813e-06
0.0084077
3.28251e-06
0.00838743
1.45129e-05
0.00844455
2.5084e-05
0.00830388
0.000106701
0.00856678
0.00026264
0.00813988
0.00112318
0.00812275
0.00525303
0.00768961
0.00644344
0.00726174
0.00625706
0.00691071
0.0063017
0.00659559
0.0068913
0.00623556
0.00775459
0.00587989
0.00879817
0.00561024
0.0100414
0.00580653
0.0113671
0.0117842
0.00958329
0.00840003
8.66964e-10
0.00840003
1.57563e-10
0.00840003
1.12017e-08
0.00840004
5.93676e-09
0.00840001
7.59161e-08
0.00840008
4.07322e-08
0.00839993
4.57768e-07
0.00840032
2.04948e-07
0.00839947
2.91229e-06
0.00840233
4.05012e-07
0.00839508
2.14275e-05
0.00842056
-5.33629e-07
0.00836935
0.000156371
0.00849831
0.000131831
0.00854832
0.00106846
0.00945753
0.00431398
0.00865531
0.00725016
0.007828
0.00708822
0.007393
0.00673902
0.00708629
0.00719958
0.00681644
0.0080236
0.00664472
0.0089681
0.00668332
0.0100014
0.00723265
0.010817
0.0107462
0.00826974
0.00840003
2.16905e-10
0.00840003
1.86697e-09
0.00840003
5.08474e-09
0.00840002
1.73069e-08
0.00840006
3.6913e-08
0.00839999
1.09959e-07
0.00840022
2.22813e-07
0.00839976
6.54164e-07
0.00840137
1.29128e-06
0.00839767
4.01323e-06
0.00841166
7.41349e-06
0.00838378
2.67876e-05
0.00848904
5.08237e-05
0.00841042
0.000208606
0.00895668
0.000518086
0.0108834
0.00237829
0.00989013
0.00823854
0.00867372
0.00830204
0.00806526
0.00734561
0.00768603
0.00757846
0.00747836
0.00823239
0.00741847
0.0090302
0.00761542
0.00980506
0.00813483
0.0102975
0.0101904
0.00868974
0.00840003
2.35129e-10
0.00840003
1.81996e-09
0.00840003
5.57177e-09
0.00840003
1.6829e-08
0.00840003
3.98229e-08
0.00840003
1.06314e-07
0.00840001
2.39325e-07
0.00840003
6.2588e-07
0.00839991
1.39737e-06
0.00840023
3.623e-06
0.00839909
8.48879e-06
0.00840479
2.06842e-05
0.00839857
5.67244e-05
0.00845885
0.000146701
0.00851543
0.00045962
0.00907456
0.00181011
0.00962751
0.00767154
0.00938709
0.00854038
0.00859218
0.00814526
0.00818816
0.00798056
0.00804294
0.00837555
0.00808844
0.00898385
0.0083124
0.00958245
0.00873597
0.00987471
0.00976739
0.00915898
0.00840003
2.22086e-10
0.00840003
1.72451e-09
0.00840003
5.29395e-09
0.00840003
1.59743e-08
0.00840003
3.78447e-08
0.00840004
1.00676e-07
0.00840005
2.26938e-07
0.00840007
5.8815e-07
0.00840013
1.32797e-06
0.00840032
3.35353e-06
0.00840075
7.97127e-06
0.00840126
1.98173e-05
0.00840837
4.89317e-05
0.00841335
0.000140069
0.00843605
0.00043445
0.00861065
0.00162777
0.00902927
0.00722707
0.00914591
0.00840879
0.00873025
0.00855967
0.0085041
0.008213
0.00844411
0.00843853
0.00855312
0.00887593
0.00881172
0.00932353
0.00916722
0.00952024
0.00939713
0.00953746
0.00840003
1.99317e-10
0.00840003
1.54222e-09
0.00840003
4.76975e-09
0.00840003
1.4311e-08
0.00840004
3.39699e-08
0.00840004
8.95904e-08
0.00840007
2.01616e-07
0.00840012
5.23031e-07
0.0084003
1.13905e-06
0.00840044
3.14632e-06
0.00840215
6.22223e-06
0.00840118
2.03459e-05
0.00840934
4.05445e-05
0.00840187
0.00014565
0.00845665
0.000377702
0.00850712
0.00156738
0.00892666
0.00678382
0.00893352
0.00839704
0.00892004
0.00857178
0.00877875
0.00835878
0.00876625
0.008455
0.00888449
0.00875914
0.00914615
0.00906161
0.00947033
0.0091959
0.0090534
0.00981402
0.00840003
1.87563e-10
0.00840003
1.45499e-09
0.00840003
4.45205e-09
0.00840003
1.34524e-08
0.00840003
3.18e-08
0.00840004
8.49003e-08
0.00840004
1.90718e-07
0.00840006
5.00027e-07
0.00840008
1.10537e-06
0.00840019
2.96919e-06
0.00839995
6.39238e-06
0.008401
1.8877e-05
0.00840115
4.00309e-05
0.00840905
0.000135712
0.0084254
0.000359115
0.0085843
0.00139763
0.00950815
0.0058319
0.00937629
0.00853358
0.00918944
0.00876201
0.00905574
0.00849732
0.00907339
0.00844021
0.00919381
0.00864331
0.00940427
0.00885242
0.00968281
0.00891714
0.00876603
0.00997018
0.00840003
1.57168e-10
0.00840003
1.21798e-09
0.00840003
3.76103e-09
0.00840003
1.13053e-08
0.00840004
2.68208e-08
0.00840005
7.09463e-08
0.00840008
1.59496e-07
0.00840015
4.13407e-07
0.00840034
9.14139e-07
0.00840081
2.43222e-06
0.00840202
5.11229e-06
0.0084049
1.55696e-05
0.00841465
2.99508e-05
0.00844142
0.000106766
0.00852889
0.000268813
0.0089607
0.00095962
0.0113406
0.00341051
0.0103574
0.00952477
0.00997848
0.00914731
0.00950342
0.00897687
0.00943401
0.00851244
0.00951839
0.00855948
0.00967721
0.00869499
0.00987754
0.00871857
0.00854767
0.0100963
0.00840003
1.33085e-10
0.00840003
1.03341e-09
0.00840003
3.1771e-09
0.00840003
9.57447e-09
0.00840004
2.2691e-08
0.00840005
6.01817e-08
0.00840007
1.35638e-07
0.00840012
3.50934e-07
0.00840025
7.82387e-07
0.00840061
2.01619e-06
0.00840112
4.55385e-06
0.00840482
1.16056e-05
0.00840687
2.76065e-05
0.00844156
7.08349e-05
0.00851208
0.000195413
0.00883634
0.000632068
0.0101809
0.00204843
0.0108954
0.00880225
0.010689
0.00935888
0.0101937
0.00947701
0.00988553
0.00882457
0.00983141
0.00861578
0.00993217
0.00859384
0.0100796
0.00857125
0.00839601
0.0102321
0.00840003
1.06927e-10
0.00840003
8.29064e-10
0.00840003
2.56498e-09
0.00840003
7.69992e-09
0.00840004
1.82902e-08
0.00840005
4.81981e-08
0.00840007
1.08606e-07
0.00840014
2.79193e-07
0.00840029
6.20447e-07
0.00840066
1.60953e-06
0.00840171
3.47912e-06
0.0084034
9.71648e-06
0.00841107
1.96817e-05
0.008417
6.39358e-05
0.00847094
0.000140026
0.00856747
0.000531685
0.00903802
0.00156753
0.0106482
0.00716407
0.0106918
0.00931276
0.0106358
0.00953292
0.0102843
0.00917736
0.0101329
0.00876893
0.0101476
0.00858059
0.0102515
0.00846789
0.00828259
0.0103655
0.00840003
8.88366e-11
0.00840003
6.88832e-10
0.00840003
2.12146e-09
0.00840003
6.38226e-09
0.00840003
1.51406e-08
0.00840004
4.0037e-08
0.00840006
9.02672e-08
0.0084001
2.32657e-07
0.0084002
5.17972e-07
0.00840045
1.33744e-06
0.00840097
2.9443e-06
0.00840256
7.98256e-06
0.00840587
1.63475e-05
0.00841483
5.39927e-05
0.00845003
0.000104651
0.00854133
0.000437231
0.00894907
0.00115446
0.0109914
0.00509322
0.0110243
0.00927676
0.0109056
0.00965042
0.0106182
0.00946465
0.0104593
0.00893051
0.0104015
0.00863799
0.0104281
0.0084413
0.00821739
0.0104938
0.00840003
7.06684e-11
0.00840003
5.48393e-10
0.00840003
1.69252e-09
0.00840003
5.08777e-09
0.00840003
1.207e-08
0.00840004
3.18764e-08
0.00840006
7.18031e-08
0.0084001
1.84921e-07
0.00840021
4.11399e-07
0.00840047
1.05911e-06
0.00840105
2.34616e-06
0.00840283
6.10106e-06
0.00840533
1.37397e-05
0.00842344
3.5349e-05
0.00843545
9.1931e-05
0.00862692
0.000243561
0.00902365
0.000755748
0.0113855
0.00272147
0.0115235
0.00912361
0.011461
0.00970997
0.0111917
0.00973399
0.0108333
0.00929052
0.0107175
0.00875599
0.010682
0.00847523
0.00822489
0.0106741
0.00840003
5.58872e-11
0.00840003
4.24821e-10
0.00840003
1.34421e-09
0.00840003
3.9445e-09
0.00840003
9.54954e-09
0.00840004
2.46412e-08
0.00840006
5.66216e-08
0.0084001
1.42371e-07
0.00840018
3.23082e-07
0.00840042
8.10291e-07
0.00840092
1.83179e-06
0.00840231
4.62891e-06
0.00840547
1.05088e-05
0.008413
2.74096e-05
0.00844048
6.38153e-05
0.00849816
0.00018402
0.00872343
0.000527598
0.00943364
0.00200494
0.0113636
0.00716838
0.011536
0.00953401
0.0114073
0.00985924
0.0110931
0.00960505
0.0109962
0.0088545
0.0109282
0.00854362
0.00825503
0.0108974
0.00840003
1.26191e-11
0.00840003
4.13905e-10
0.00840003
7.5596e-10
0.00840003
3.59091e-09
0.00840004
5.60899e-09
0.00840004
2.21339e-08
0.00840006
3.35086e-08
0.00840007
1.27431e-07
0.0084002
1.90078e-07
0.00840028
7.25343e-07
0.00840104
1.05664e-06
0.0084014
4.20864e-06
0.00840622
5.62404e-06
0.00840697
2.62871e-05
0.00844051
2.99812e-05
0.00844718
0.000175571
0.00867993
0.000292383
0.00933433
0.00134449
0.0117598
0.00471485
0.0118143
0.00947593
0.0118462
0.00982963
0.0116865
0.00976518
0.0112823
0.00925974
0.0111512
0.00867606
0.0083222
0.0110838
0.00840003
3.83723e-11
0.00840003
2.0155e-10
0.00840003
7.90075e-10
0.00840003
1.96053e-09
0.00840003
5.57843e-09
0.00840004
1.23523e-08
0.00840004
3.30657e-08
0.0084001
7.13571e-08
0.00840009
1.89141e-07
0.00840041
4.04972e-07
0.00840037
1.08003e-06
0.00840227
2.29559e-06
0.00840154
6.24449e-06
0.0084143
1.34226e-05
0.00840704
3.66873e-05
0.00849345
8.84962e-05
0.00853509
0.0002483
0.00913377
0.000744667
0.0112032
0.00263295
0.0121981
0.00846517
0.0121606
0.00986534
0.0119639
0.00996079
0.0115962
0.00962547
0.0114317
0.00884275
0.00843289
0.0113218
0.00840003
4.25517e-11
0.00840003
1.12396e-10
0.00840003
6.9477e-10
0.00840003
1.20067e-09
0.00840003
4.79051e-09
0.00840004
7.71435e-09
0.00840004
2.8233e-08
0.00840007
4.48516e-08
0.00840009
1.61249e-07
0.00840024
2.54389e-07
0.00840039
9.1826e-07
0.00840124
1.43008e-06
0.0084021
5.31693e-06
0.00840756
7.8844e-06
0.00841101
3.28353e-05
0.00845462
4.43472e-05
0.00848341
0.000217621
0.00880025
0.000425161
0.00964679
0.00178031
0.0120557
0.00602696
0.0123064
0.00960796
0.0123004
0.00996276
0.0121108
0.009813
0.0117221
0.00923376
0.00861429
0.0115414
0.00840003
1.51557e-11
0.00840003
1.2142e-10
0.00840003
3.61729e-10
0.00840003
1.12695e-09
0.00840003
2.58894e-09
0.00840003
7.03372e-09
0.00840005
1.53359e-08
0.00840005
4.04529e-08
0.00840012
8.70715e-08
0.00840015
2.28613e-07
0.00840057
4.89659e-07
0.00840069
1.29226e-06
0.00840324
2.74888e-06
0.00840358
7.41598e-06
0.00842062
1.56783e-05
0.00842036
4.39446e-05
0.00853748
9.99193e-05
0.00866021
0.000300012
0.00956347
0.000871881
0.0126056
0.00297545
0.0128887
0.00930481
0.0128233
0.0100219
0.0124897
0.0101423
0.0121144
0.0096073
0.0088899
0.0118403
0.00840003
4.90365e-12
0.00840003
1.07804e-10
0.00840003
2.14342e-10
0.00840003
9.39723e-10
0.00840003
1.57448e-09
0.00840003
5.78278e-09
0.00840004
9.37914e-09
0.00840005
3.31243e-08
0.00840008
5.32385e-08
0.00840012
1.86973e-07
0.00840031
2.97805e-07
0.00840053
1.05499e-06
0.00840161
1.6516e-06
0.00840289
6.04385e-06
0.00840945
9.00655e-06
0.00841636
3.65266e-05
0.0084648
5.07914e-05
0.00852494
0.000237526
0.00890925
0.000484061
0.00996345
0.00191299
0.0125775
0.00665762
0.012821
0.00976979
0.0129624
0.0099937
0.0125877
0.00997917
0.00924868
0.012228
0.00840003
1.39184e-11
0.00840003
3.70855e-11
0.00840003
2.37147e-10
0.00840003
4.0485e-10
0.00840003
1.6369e-09
0.00840003
2.60025e-09
0.00840003
9.61923e-09
0.00840005
1.50937e-08
0.00840005
5.47124e-08
0.00840015
8.55699e-08
0.00840013
3.09881e-07
0.0084007
4.82047e-07
0.00840055
1.76783e-06
0.00840388
2.67913e-06
0.00840226
1.04296e-05
0.00842424
1.43923e-05
0.00840808
6.57801e-05
0.00855868
8.59164e-05
0.00859352
0.000444311
0.00951189
0.00098744
0.0126083
0.00352188
0.0131256
0.00924108
0.0131489
0.00996897
0.0129699
0.0101562
0.00966304
0.0125533
0.00840003
2.12401e-12
0.00840003
4.77271e-11
0.00840003
9.24276e-11
0.00840003
4.1845e-10
0.00840003
6.86837e-10
0.00840003
2.57997e-09
0.00840004
4.10747e-09
0.00840004
1.47634e-08
0.00840007
2.33538e-08
0.00840007
8.31333e-08
0.00840025
1.30855e-07
0.00840025
4.67612e-07
0.00840128
7.27101e-07
0.00840123
2.67314e-06
0.0084077
3.89752e-06
0.00840545
1.63194e-05
0.00845127
1.9651e-05
0.00842721
0.000108239
0.0087353
0.00013452
0.00893833
0.000778544
0.0104541
0.00199264
0.012968
0.0066991
0.013186
0.00974572
0.0133417
0.00999739
0.0099462
0.0130585
0.00840003
4.13607e-12
0.00840003
2.14095e-11
0.00840003
8.57012e-11
0.00840003
2.09997e-10
0.00840003
6.04069e-10
0.00840003
1.32152e-09
0.00840003
3.55847e-09
0.00840004
7.59611e-09
0.00840004
2.01467e-08
0.00840008
4.27185e-08
0.0084001
1.13066e-07
0.00840032
2.3875e-07
0.0084004
6.34946e-07
0.00840172
1.33216e-06
0.00840189
3.63118e-06
0.00841075
7.36254e-06
0.00840777
2.2068e-05
0.00847351
4.2008e-05
0.00846136
0.000143868
0.00890788
0.000329178
0.00963973
0.00124919
0.0126746
0.00362576
0.0134352
0.00897315
0.0134998
0.00992986
0.0100799
0.0133639
0.00840003
2.84027e-12
0.00840003
1.57499e-11
0.00840003
5.75379e-11
0.00840003
1.50025e-10
0.00840003
4.04752e-10
0.00840003
9.39271e-10
0.00840003
2.38279e-09
0.00840003
5.39083e-09
0.00840004
1.34849e-08
0.00840005
3.0332e-08
0.00840009
7.56258e-08
0.00840015
1.69816e-07
0.00840035
4.23355e-07
0.00840072
9.49266e-07
0.00840191
2.37732e-06
0.00840389
5.31257e-06
0.00841193
1.37151e-05
0.00842358
2.97028e-05
0.00847972
8.63406e-05
0.00861258
0.000192656
0.0091691
0.000686195
0.0108408
0.00193599
0.0132144
0.00656706
0.0134821
0.00965576
0.00989639
0.0136626
0.00840003
2.6239e-12
0.00840003
8.23515e-12
0.00840003
4.50465e-11
0.00840003
8.55198e-11
0.00840003
3.1054e-10
0.00840003
5.43713e-10
0.00840003
1.81644e-09
0.00840003
3.13549e-09
0.00840004
1.02572e-08
0.00840005
1.76817e-08
0.00840007
5.75048e-08
0.00840013
9.91075e-08
0.00840023
3.22392e-07
0.00840062
5.53681e-07
0.00840113
1.81637e-06
0.00840333
3.06384e-06
0.00840632
1.05034e-05
0.00841921
1.65103e-05
0.00843981
6.44646e-05
0.00853412
9.69243e-05
0.00878409
0.000430851
0.00968461
0.00102739
0.0128972
0.00331271
0.0136856
0.00885366
0.00998434
0.0135904
0.00840003
4.78549e-13
0.00840003
8.85667e-12
0.00840003
1.8128e-11
0.00840003
7.79221e-11
0.00840003
1.33616e-10
0.00840003
4.78835e-10
0.00840003
7.94607e-10
0.00840003
2.7248e-09
0.00840004
4.49666e-09
0.00840004
1.52352e-08
0.00840007
2.5116e-08
0.00840008
8.48438e-08
0.00840026
1.39462e-07
0.00840033
4.72728e-07
0.00840137
7.70054e-07
0.0084017
2.66997e-06
0.008408
4.14113e-06
0.00840825
1.59262e-05
0.00845086
2.14942e-05
0.00844351
0.000102585
0.00872648
0.000145615
0.00902247
0.000725735
0.0103854
0.00193248
0.0133735
0.00583846
0.00952521
0.0138208
0.00840003
1.00186e-12
0.00840003
2.939e-12
0.00840003
1.73557e-11
0.00840003
3.15973e-11
0.00840003
1.19732e-10
0.00840003
2.01411e-10
0.00840003
6.97709e-10
0.00840003
1.15597e-09
0.00840003
3.91505e-09
0.00840004
6.46482e-09
0.00840004
2.17706e-08
0.00840009
3.58679e-08
0.00840011
1.20823e-07
0.00840038
1.9809e-07
0.00840047
6.71504e-07
0.00840203
1.08853e-06
0.00840232
3.7765e-06
0.00841227
5.89098e-06
0.00841081
2.23277e-05
0.00848257
3.13407e-05
0.00848513
0.000140147
0.00896971
0.000240907
0.00989798
0.00100187
0.0128922
0.00278806
0.00833577
0.0140623
0.00840003
3.40273e-13
0.00840003
2.76838e-12
0.00840003
8.13329e-12
0.00840003
2.56623e-11
0.00840003
5.82649e-11
0.00840003
1.59418e-10
0.00840003
3.43333e-10
0.00840003
9.08781e-10
0.00840003
1.93349e-09
0.00840003
5.07735e-09
0.00840004
1.07679e-08
0.00840005
2.8237e-08
0.00840011
5.97858e-08
0.00840015
1.56982e-07
0.00840048
3.31706e-07
0.00840067
8.75208e-07
0.00840257
1.84198e-06
0.00840338
4.94253e-06
0.00841519
1.02767e-05
0.00841648
2.92591e-05
0.00849546
5.93147e-05
0.00854304
0.000189352
0.00906069
0.000474616
0.0100664
0.00176733
0.00493647
0.0134095
0.00840003
2.21057e-13
0.00840003
1.68557e-12
0.00840003
5.33247e-12
0.00840003
1.56702e-11
0.00840003
3.77554e-11
0.00840003
9.68798e-11
0.00840003
2.20931e-10
0.00840003
5.49518e-10
0.00840003
1.23725e-09
0.00840003
3.05234e-09
0.00840004
6.85105e-09
0.00840005
1.6856e-08
0.00840007
3.77895e-08
0.00840013
9.28827e-08
0.00840025
2.07934e-07
0.00840059
5.11498e-07
0.00840126
1.14302e-06
0.00840325
2.82735e-06
0.00840704
6.30685e-06
0.00841978
1.58134e-05
0.0084413
3.64945e-05
0.00853468
9.23082e-05
0.00875642
0.000246216
0.00975559
0.000750314
0.00210851
0.0125453
0.00840003
5.5722e-14
0.00840003
1.25877e-12
0.00840003
2.51917e-12
0.00840003
1.09827e-11
0.00840003
1.83995e-11
0.00840003
6.67809e-11
0.00840003
1.07551e-10
0.00840003
3.75377e-10
0.00840003
5.95619e-10
0.00840003
2.06968e-09
0.00840004
3.24679e-09
0.00840004
1.13458e-08
0.00840006
1.75633e-08
0.00840009
6.20398e-08
0.0084002
9.42629e-08
0.00840034
3.38789e-07
0.00840096
5.00216e-07
0.00840178
1.85539e-06
0.00840532
2.58871e-06
0.00840981
1.04142e-05
0.00843267
1.24873e-05
0.00845603
6.37604e-05
0.00863067
6.45942e-05
0.00894402
0.000411721
0.000905365
0.0101108
0.00840003
1.45916e-13
0.00840003
2.87004e-13
0.00840003
2.36883e-12
0.00840003
3.40332e-12
0.00840003
1.6129e-11
0.00840003
2.16088e-11
0.00840003
9.29351e-11
0.00840003
1.21246e-10
0.00840003
5.15874e-10
0.00840003
6.59004e-10
0.00840003
2.84098e-09
0.00840004
3.55057e-09
0.00840004
1.56507e-08
0.00840008
1.90654e-08
0.00840008
8.66016e-08
0.0084003
1.01543e-07
0.00840025
4.85227e-07
0.00840153
5.07427e-07
0.00840085
2.85087e-06
0.0084088
1.94321e-06
0.00840083
1.76345e-05
0.00845855
2.57689e-06
0.00839939
0.000107535
0.00876212
1.55974e-05
0.000617852
0.00898848
0.00840003
-1.3263e-14
0.00840003
4.29383e-13
0.00840003
3.90038e-13
0.00840003
3.56894e-12
0.00840003
3.11576e-12
0.00840003
2.14555e-11
0.00840003
1.77497e-11
0.00840003
1.19482e-10
0.00840003
9.16797e-11
0.00840003
6.52619e-10
0.00840003
4.53754e-10
0.00840003
3.54813e-09
0.00840005
2.16255e-09
0.00840004
1.93054e-08
0.00840012
9.66207e-09
0.00840009
1.05945e-07
0.00840052
3.42526e-08
0.00840026
6.17899e-07
0.00840309
-7.8453e-08
0.00839965
4.24868e-06
0.00841952
-3.07862e-06
0.00838259
3.15118e-05
0.00850795
-2.90655e-05
0.00827698
0.000208524
-3.70821e-05
0.00887578
0.00840003
6.17176e-14
0.00840003
-4.44125e-14
0.00840003
7.85074e-13
0.00840003
1.26102e-14
0.00840003
5.2089e-12
0.00840003
3.94922e-13
0.00840003
3.01069e-11
0.00840003
1.62836e-12
0.00840003
1.69504e-10
0.00840003
3.13353e-12
0.00840003
9.54836e-10
0.00840003
-8.69035e-12
0.00840003
5.44034e-09
0.00840005
-1.28261e-10
0.00840002
3.16276e-08
0.00840012
-1.66091e-09
0.00839992
1.93317e-07
0.00840054
-5.09181e-08
0.00839881
1.33923e-06
0.00840397
-1.06076e-06
0.0083884
9.81888e-06
0.0084298
-1.23046e-05
0.00831616
6.91374e-05
0.00857984
-8.30923e-05
0.000417089
0.00805636
0.00840003
-4.11025e-14
0.00840003
1.43672e-13
0.00840003
-3.34053e-13
0.00840003
1.01995e-12
0.00840003
-2.05668e-12
0.00840003
5.93636e-12
0.00840003
-1.22912e-11
0.00840003
3.2725e-11
0.00840003
-7.41194e-11
0.00840003
1.7723e-10
0.00840003
-4.4961e-10
0.00840003
9.50589e-10
0.00840004
-2.75286e-09
0.00840003
5.06773e-09
0.00840008
-1.71489e-08
0.00840004
2.79136e-08
0.00840034
-1.12454e-07
0.00840002
1.91073e-07
0.00840222
-8.33379e-07
0.00839857
1.7994e-06
0.00841412
-6.11835e-06
0.0083776
1.77392e-05
0.0084801
-4.17705e-05
0.00821845
0.000136614
-0.000120526
0.00868831
0.00840003
-3.28933e-15
0.00840003
-2.93592e-14
0.00840003
-4.67482e-14
0.00840003
-2.2308e-13
0.00840003
-3.13494e-13
0.00840003
-1.37923e-12
0.00840003
-1.95085e-12
0.00840003
-8.26922e-12
0.00840003
-1.20145e-11
0.00840003
-4.92994e-11
0.00840003
-7.28517e-11
0.00840003
-2.92382e-10
0.00840003
-4.32414e-10
0.00840003
-1.73121e-09
0.00840002
-2.48752e-09
0.00840005
-1.02144e-08
0.00839993
-1.32904e-08
0.00840016
-5.88228e-08
0.00839922
-4.37425e-08
0.00840123
-3.74847e-07
0.00839349
4.20295e-07
0.0084128
-2.56224e-06
0.0083524
8.37501e-06
0.00847444
-1.52518e-06
8.35595e-05
0.00820435
0.00840003
-6.12493e-16
0.00840003
-3.85683e-15
0.00840003
-1.14966e-14
0.00840003
-2.97788e-14
0.00840003
-5.68074e-14
0.00840003
-1.22681e-13
0.00840003
-1.37918e-13
0.00840003
-2.37517e-13
0.00840003
6.02027e-13
0.00840003
1.88357e-12
0.00840003
1.27254e-11
0.00840003
3.21618e-11
0.00840003
1.32592e-10
0.00840003
3.20859e-10
0.00840002
1.13554e-09
0.00840001
2.69789e-09
0.00839997
8.8747e-09
0.00839987
2.0895e-08
0.00839966
6.64288e-08
0.00839902
1.56465e-07
0.00839818
4.95695e-07
0.00839374
1.16029e-06
0.00839259
3.93964e-06
0.00837291
1.01028e-05
3.94978e-05
0.00838458
0.00840003
2.85107e-15
0.00840003
2.59717e-14
0.00840003
3.99804e-14
0.00840003
2.05312e-13
0.00840003
3.0232e-13
0.00840003
1.35618e-12
0.00840003
2.1232e-12
0.00840003
8.66514e-12
0.00840003
1.45185e-11
0.00840003
5.49269e-11
0.00840003
9.72186e-11
0.00840003
3.46059e-10
0.00840003
6.39466e-10
0.00840003
2.17122e-09
0.00840002
4.14279e-09
0.00840001
1.36058e-08
0.00839998
2.64172e-08
0.00839991
8.48927e-08
0.00839975
1.58196e-07
0.00839928
5.54883e-07
0.00839857
6.83624e-07
0.00839512
4.11279e-06
0.00839375
1.6609e-06
0.0083782
2.10147e-05
1.7004e-05
0.00838121
0.00840003
4.23718e-14
0.00840003
-1.15069e-13
0.00840003
3.72236e-13
0.00840003
-7.43928e-13
0.00840003
2.38872e-12
0.00840003
-4.16404e-12
0.00840003
1.42512e-11
0.00840003
-2.25956e-11
0.00840003
8.43259e-11
0.00840003
-1.21128e-10
0.00840003
4.99481e-10
0.00840003
-6.43246e-10
0.00840003
2.97042e-09
0.00840003
-3.40047e-09
0.00840002
1.78193e-08
0.00840005
-1.81885e-08
0.00839997
1.083e-07
0.00840016
-1.0807e-07
0.00839957
7.08461e-07
0.00840101
-9.41428e-07
0.00839582
5.45878e-06
0.00841059
-1.07511e-05
0.00836521
4.39795e-05
0.00846649
-8.2831e-05
0.000206101
0.00826265
0.00840003
-2.1519e-15
0.00840003
-3.23e-15
0.00840003
-5.14861e-14
0.00840003
-2.20476e-14
0.00840003
-3.08218e-13
0.00840003
-6.94682e-14
0.00840003
-1.65678e-12
0.00840003
-1.78667e-13
0.00840003
-8.93127e-12
0.00840003
-5.85539e-13
0.00840003
-4.96772e-11
0.00840003
-6.84505e-12
0.00840003
-2.92889e-10
0.00840003
-1.01658e-10
0.00840005
-1.87554e-09
0.00840003
-1.19181e-09
0.00840015
-1.27221e-08
0.00840004
-4.85939e-09
0.00840085
-1.18863e-07
0.00839965
1.47481e-07
0.00840622
-1.16268e-06
0.00839204
2.42345e-06
0.00843933
-4.24234e-06
0.00833566
1.4781e-05
-1.59294e-06
0.00853287
0.00840003
1.61332e-15
0.00840003
1.1875e-15
0.00840003
4.39005e-14
0.00840003
1.28623e-14
0.00840003
2.8896e-13
0.00840003
1.21637e-13
0.00840003
1.81939e-12
0.00840003
1.23191e-12
0.00840003
1.1572e-11
0.00840003
1.10147e-11
0.00840003
7.44337e-11
0.00840003
9.14326e-11
0.00840003
4.88463e-10
0.00840003
7.28176e-10
0.00840002
3.30265e-09
0.00840002
5.60787e-09
0.00839998
2.27122e-08
0.00839992
3.50129e-08
0.00839961
1.87221e-07
0.00839957
5.38156e-08
0.00839668
1.61869e-06
0.00839941
-1.05902e-06
0.00838562
7.31581e-06
0.00839977
-4.71447e-06
2.83127e-05
0.00835603
0.00840003
-4.1323e-14
0.00840003
1.18161e-13
0.00840003
-3.52671e-13
0.00840003
7.82824e-13
0.00840003
-2.21936e-12
0.00840003
4.49099e-12
0.00840003
-1.2963e-11
0.00840003
2.5089e-11
0.00840003
-7.5035e-11
0.00840003
1.3912e-10
0.00840003
-4.34551e-10
0.00840003
7.68983e-10
0.00840003
-2.52686e-09
0.00840003
4.25975e-09
0.00840005
-1.48528e-08
0.00840003
2.39525e-08
0.00840015
-8.88785e-08
0.00840004
1.46288e-07
0.00840082
-5.86796e-07
0.00839964
1.20495e-06
0.00840614
-4.7992e-06
0.00839185
1.2572e-05
0.00843802
-3.91577e-05
0.00833038
9.80552e-05
-0.000219687
0.00857003
0.00840003
0.00840003
0.00840003
0.00840003
0.00840003
0.00840003
0.00840003
0.00840003
0.00840003
0.00840003
0.00840003
0.00840003
0.00840003
0.00840003
0.00840002
0.00840005
0.00839997
0.00840013
0.00839961
0.00840084
0.00839597
0.00840934
0.00836792
0.00846794
0.00823927
0.00476611
0.00481604
0.00231207
0.00244627
0.0010781
0.00122774
-0.000550997
0.00161475
-0.00131515
0.000758006
-0.00185798
0.000537659
-0.00225596
0.000392006
-0.00260919
0.000350108
-0.00289607
0.000286973
-0.00311318
0.00021828
-0.00326935
0.000160683
-0.00339892
0.00013515
-0.00350932
0.000117785
-0.00359617
9.46278e-05
-0.00365086
6.28325e-05
-0.00367211
3.00855e-05
-0.00370254
3.60767e-05
-0.00373591
3.78337e-05
-0.00375628
2.46965e-05
-0.00375767
2.54317e-06
-0.00373749
-2.05806e-05
-0.00368966
-4.94776e-05
-0.00360682
-8.62148e-05
-0.00348371
-0.0001256
-0.00333208
-0.000155471
-0.00316109
-0.000174111
-0.00297942
-0.000183915
-0.00279093
-0.000191063
-0.00259583
-0.000197123
-0.00239356
-0.000204717
-0.00218953
-0.000207234
-0.00198257
-0.000209842
-0.00177478
-0.000209546
-0.00156746
-0.000209524
-0.00135968
-0.000209991
-0.00114531
-0.000216236
-0.000925299
-0.000221834
-0.000698914
-0.000227882
-0.000474538
-0.000225145
-0.000247633
-0.000226578
-1.60031e-05
-0.000230258
0.000219652
-0.000233481
0.00045371
-0.000230922
0.000675495
-0.00021762
0.00088819
-0.000207117
0.00109069
-0.000195929
0.00128627
-0.000188134
0.00147403
-0.000179938
0.00165859
-0.000176647
0.00184042
-0.000173823
0.00201844
-0.000169669
0.0021897
-0.000163159
0.00235449
-0.000157649
0.00251247
-0.000152342
0.00266489
-0.000147845
0.00281169
-0.000143679
0.00295202
-0.000139763
0.00308604
-0.000136027
0.0032141
-0.000132679
0.00333584
-0.000129337
0.00345096
-0.000126244
0.0035596
-0.000122915