/*--------------------------------*- C++ -*----------------------------------*\
  =========                 |
  \\      /  F ield         | OpenFOAM: The Open Source CFD Toolbox
   \\    /   O peration     | Website:  https://openfoam.org
    \\  /    A nd           | Version:  6
     \\/     M anipulation  |
\*---------------------------------------------------------------------------*/
FoamFile
{
    version     2.0;
    format      ascii;
    class       volVectorField;
    location    "7";
    object      U;
}
// * * * * * * * * * * * * * * * * * * * * * * * * * * * * * * * * * * * * * //

dimensions      [0 1 -1 0 0 0 0];

internalField   nonuniform List<vector> 
5250
(
(3 2.80071e-09 0)
(2.99999 2.14703e-08 0)
(2.99997 6.63989e-08 0)
(2.99993 1.9887e-07 0)
(2.99981 4.71283e-07 0)
(2.99958 1.24291e-06 0)
(2.9989 2.78761e-06 0)
(2.99759 7.23968e-06 0)
(2.99351 1.58465e-05 0)
(2.98619 4.2878e-05 0)
(2.9604 9.08674e-05 0)
(2.90905 0.000255246 0)
(2.74378 0.000624331 0)
(2.24618 0.00168736 0)
(1.10219 0.00466505 0)
(0.172121 0.012866 0)
(0.299331 0.0203439 0)
(0.46736 0.0260846 0)
(0.535007 0.029555 0)
(0.498301 0.0322026 0)
(0.399973 0.0334585 0)
(0.282225 0.0359904 0)
(0.197788 0.0407349 0)
(0.124744 0.0477405 0)
(0.0656786 0.0565087 0)
(3 8.66516e-09 0)
(2.99999 6.68373e-08 0)
(2.99997 2.06057e-07 0)
(2.99993 6.18262e-07 0)
(2.99981 1.4619e-06 0)
(2.99958 3.86283e-06 0)
(2.99891 8.64756e-06 0)
(2.9976 2.25384e-05 0)
(2.99354 4.90738e-05 0)
(2.98626 0.000134311 0)
(2.96057 0.000282012 0)
(2.90951 0.000808923 0)
(2.74487 0.00196418 0)
(2.24967 0.00542793 0)
(1.11092 0.0150845 0)
(0.181651 0.0407612 0)
(0.306777 0.0612076 0)
(0.472032 0.0734297 0)
(0.536346 0.0791493 0)
(0.497506 0.0826043 0)
(0.399637 0.083231 0)
(0.284267 0.0866987 0)
(0.200201 0.0934156 0)
(0.124323 0.101138 0)
(0.063025 0.106101 0)
(3 1.51568e-08 0)
(2.99999 1.1725e-07 0)
(2.99997 3.60931e-07 0)
(2.99993 1.08415e-06 0)
(2.99981 2.56078e-06 0)
(2.99958 6.77635e-06 0)
(2.99892 1.51569e-05 0)
(2.99762 3.96199e-05 0)
(2.9936 8.59767e-05 0)
(2.98639 0.000237428 0)
(2.96094 0.000495122 0)
(2.91051 0.00144371 0)
(2.74732 0.0034847 0)
(2.25773 0.00979982 0)
(1.13164 0.0273081 0)
(0.20531 0.0729347 0)
(0.321459 0.106227 0)
(0.478208 0.122208 0)
(0.537812 0.130686 0)
(0.496805 0.137124 0)
(0.399949 0.14141 0)
(0.288367 0.149584 0)
(0.205203 0.160812 0)
(0.125668 0.171589 0)
(0.0606771 0.176055 0)
(3 2.24826e-08 0)
(2.99999 1.73929e-07 0)
(2.99997 5.35398e-07 0)
(2.99993 1.60859e-06 0)
(2.99982 3.79971e-06 0)
(2.99959 1.00595e-05 0)
(2.99893 2.25032e-05 0)
(2.99766 5.88714e-05 0)
(2.9937 0.000127724 0)
(2.9866 0.000353366 0)
(2.96155 0.000736095 0)
(2.91211 0.0021537 0)
(2.75129 0.00518905 0)
(2.2709 0.0146519 0)
(1.16515 0.0406789 0)
(0.242624 0.106875 0)
(0.341339 0.151926 0)
(0.484644 0.168866 0)
(0.540329 0.180106 0)
(0.498701 0.190555 0)
(0.404153 0.200999 0)
(0.296672 0.215312 0)
(0.214363 0.232028 0)
(0.130554 0.247511 0)
(0.0601019 0.254901 0)
(3 3.08782e-08 0)
(2.99999 2.38892e-07 0)
(2.99997 7.35404e-07 0)
(2.99993 2.20964e-06 0)
(2.99982 5.22017e-06 0)
(2.9996 1.38206e-05 0)
(2.99896 3.09241e-05 0)
(2.99771 8.08804e-05 0)
(2.99385 0.000175612 0)
(2.9869 0.000485137 0)
(2.96241 0.00101184 0)
(2.91437 0.00295817 0)
(2.75691 0.00710347 0)
(2.28951 0.0201285 0)
(1.21162 0.0554552 0)
(0.292349 0.143223 0)
(0.36496 0.196641 0)
(0.490112 0.214416 0)
(0.543545 0.228379 0)
(0.503224 0.24271 0)
(0.41231 0.259581 0)
(0.308786 0.280594 0)
(0.227122 0.303401 0)
(0.139663 0.324525 0)
(0.0625571 0.336467 0)
(3 4.06424e-08 0)
(2.99999 3.14253e-07 0)
(2.99997 9.67547e-07 0)
(2.99993 2.9055e-06 0)
(2.99982 6.86361e-06 0)
(2.99961 1.81559e-05 0)
(2.99899 4.06125e-05 0)
(2.99778 0.000106152 0)
(2.99404 0.000230071 0)
(2.9873 0.000636887 0)
(2.96356 0.0013209 0)
(2.91739 0.00391 0)
(2.76445 0.00921819 0)
(2.31439 0.0267222 0)
(1.27214 0.0728237 0)
(0.352365 0.186352 0)
(0.390488 0.237171 0)
(0.496026 0.258971 0)
(0.548143 0.27631 0)
(0.510552 0.294455 0)
(0.424833 0.317489 0)
(0.325841 0.346173 0)
(0.244602 0.376866 0)
(0.152778 0.40574 0)
(0.0676687 0.424106 0)
(3 5.26286e-08 0)
(2.99999 4.06684e-07 0)
(2.99997 1.25252e-06 0)
(2.99994 3.75809e-06 0)
(2.99983 8.87802e-06 0)
(2.99963 2.34471e-05 0)
(2.99903 5.24347e-05 0)
(2.99787 0.000136742 0)
(2.99429 0.000296186 0)
(2.98781 0.000817878 0)
(2.96507 0.00169226 0)
(2.92121 0.00502221 0)
(2.77438 0.0117031 0)
(2.34731 0.0342266 0)
(1.35137 0.0922267 0)
(0.421151 0.234925 0)
(0.414602 0.27657 0)
(0.507489 0.300667 0)
(0.555989 0.321906 0)
(0.521594 0.34471 0)
(0.442914 0.374885 0)
(0.349483 0.412768 0)
(0.269066 0.453587 0)
(0.17293 0.493659 0)
(0.0773501 0.523622 0)
(3 6.79923e-08 0)
(2.99999 5.24667e-07 0)
(2.99997 1.61603e-06 0)
(2.99994 4.83696e-06 0)
(2.99984 1.14159e-05 0)
(2.99965 3.00226e-05 0)
(2.99908 6.70194e-05 0)
(2.99798 0.00017375 0)
(2.99461 0.000374959 0)
(2.98847 0.00102953 0)
(2.96698 0.00211449 0)
(2.92604 0.00628405 0)
(2.7868 0.014406 0)
(2.38815 0.0424534 0)
(1.44926 0.112645 0)
(0.49908 0.288129 0)
(0.434446 0.31995 0)
(0.519523 0.339382 0)
(0.567567 0.362994 0)
(0.537951 0.392951 0)
(0.468218 0.430901 0)
(0.38195 0.480081 0)
(0.3034 0.534595 0)
(0.204241 0.591216 0)
(0.0951964 0.644225 0)
(3 9.45546e-08 0)
(2.99999 7.25931e-07 0)
(2.99998 2.24001e-06 0)
(2.99994 6.70332e-06 0)
(2.99985 1.59298e-05 0)
(2.99967 4.18503e-05 0)
(2.99915 9.47037e-05 0)
(2.99812 0.000240025 0)
(2.995 0.000546141 0)
(2.98927 0.00134432 0)
(2.96935 0.00305701 0)
(2.93179 0.00781772 0)
(2.80205 0.0184288 0)
(2.43747 0.0512529 0)
(1.56931 0.130638 0)
(0.588386 0.345322 0)
(0.448389 0.362645 0)
(0.529974 0.374509 0)
(0.583816 0.398441 0)
(0.561246 0.438646 0)
(0.501775 0.484836 0)
(0.42619 0.547283 0)
(0.352635 0.617364 0)
(0.257131 0.700567 0)
(0.130873 0.802041 0)
(3 1.14918e-08 0)
(2.99999 1.14768e-06 0)
(2.99998 1.95135e-06 0)
(2.99995 1.0008e-05 0)
(2.99987 1.4658e-05 0)
(2.99971 6.30738e-05 0)
(2.99925 8.64598e-05 0)
(2.99836 0.00038496 0)
(2.99552 0.000427022 0)
(2.99057 0.00244775 0)
(2.97227 0.00152207 0)
(2.93928 0.0152545 0)
(2.81983 0.00943223 0)
(2.49402 0.0856784 0)
(1.69015 0.144935 0)
(0.679385 0.41635 0)
(0.448845 0.405471 0)
(0.535229 0.404879 0)
(0.603461 0.428979 0)
(0.592484 0.479143 0)
(0.544664 0.535205 0)
(0.483004 0.609718 0)
(0.423388 0.700383 0)
(0.35087 0.826889 0)
(0.201967 1.04405 0)
(3 6.37827e-09 0)
(2.99999 9.93623e-07 0)
(2.99998 1.64642e-06 0)
(2.99995 8.63443e-06 0)
(2.9999 1.23234e-05 0)
(2.99973 5.4079e-05 0)
(2.99942 7.32192e-05 0)
(2.99841 0.000327854 0)
(2.99671 0.000377337 0)
(2.9902 0.00215823 0)
(2.97969 0.00154117 0)
(2.93901 0.0143702 0)
(2.85041 0.0109925 0)
(2.58347 0.0830289 0)
(1.76524 0.173378 0)
(0.794053 0.486155 0)
(0.441313 0.447939 0)
(0.540749 0.432815 0)
(0.629437 0.456321 0)
(0.632834 0.512874 0)
(0.596706 0.579025 0)
(0.55529 0.662673 0)
(0.527333 0.771243 0)
(0.53656 0.92423 0)
(0.537234 1.17118 0)
(3 1.80135e-07 0)
(2.99999 3.35437e-07 0)
(2.99998 2.61736e-06 0)
(2.99996 3.75698e-06 0)
(2.99991 1.80089e-05 0)
(2.99976 2.37873e-05 0)
(2.99948 0.000109387 0)
(2.99861 0.000126756 0)
(2.99705 0.000704592 0)
(2.99157 0.000616334 0)
(2.98244 0.00495016 0)
(2.94811 0.00428924 0)
(2.87499 0.0337318 0)
(2.65743 0.0519485 0)
(1.96892 0.216595 0)
(0.956623 0.538313 0)
(0.481934 0.501201 0)
(0.573865 0.477289 0)
(0.674149 0.490982 0)
(0.68804 0.545328 0)
(0.660467 0.616122 0)
(0.637896 0.703034 0)
(0.641618 0.81626 0)
(0.7078 0.962213 0)
(0.810589 1.14041 0)
(3 1.61289e-07 0)
(2.99999 3.16297e-07 0)
(2.99999 2.37885e-06 0)
(2.99997 3.55065e-06 0)
(2.99991 1.6487e-05 0)
(2.99981 2.30076e-05 0)
(2.9995 9.95374e-05 0)
(2.9989 0.000131161 0)
(2.99712 0.000614461 0)
(2.99371 0.000672111 0)
(2.98279 0.00414479 0)
(2.96187 0.00387163 0)
(2.89327 0.0271765 0)
(2.7219 0.0413455 0)
(2.25815 0.164663 0)
(1.13835 0.464249 0)
(0.575637 0.51209 0)
(0.638592 0.52375 0)
(0.736337 0.53342 0)
(0.758195 0.58085 0)
(0.734976 0.649039 0)
(0.724639 0.731479 0)
(0.747919 0.835147 0)
(0.831121 0.955535 0)
(0.959993 1.06245 0)
(3 6.72667e-08 0)
(3 5.2933e-07 0)
(2.99999 1.62355e-06 0)
(2.99997 4.93312e-06 0)
(2.99992 1.16565e-05 0)
(2.99983 3.1249e-05 0)
(2.99957 7.01757e-05 0)
(2.99904 0.000184653 0)
(2.9975 0.000408873 0)
(2.99451 0.00108865 0)
(2.98518 0.00241554 0)
(2.96718 0.00643999 0)
(2.90895 0.0152851 0)
(2.76373 0.0412481 0)
(2.37761 0.106393 0)
(1.2833 0.312098 0)
(0.619708 0.509753 0)
(0.672598 0.579123 0)
(0.77342 0.59174 0)
(0.817636 0.624373 0)
(0.806331 0.681006 0)
(0.80508 0.75279 0)
(0.838099 0.837976 0)
(0.921179 0.931001 0)
(1.04794 1.00152 0)
(3 6.80377e-08 0)
(3 5.28979e-07 0)
(2.99999 1.62759e-06 0)
(2.99998 4.91491e-06 0)
(2.99994 1.16554e-05 0)
(2.99986 3.10398e-05 0)
(2.99963 7.00035e-05 0)
(2.99919 0.00018199 0)
(2.99787 0.000408537 0)
(2.99538 0.00104163 0)
(2.98722 0.00243395 0)
(2.97269 0.00589695 0)
(2.92129 0.014603 0)
(2.79989 0.0363077 0)
(2.46244 0.0967954 0)
(1.4485 0.269089 0)
(0.72181 0.557286 0)
(0.699423 0.636614 0)
(0.782352 0.65328 0)
(0.848777 0.665964 0)
(0.860384 0.707912 0)
(0.871627 0.767651 0)
(0.910668 0.835496 0)
(0.989382 0.906021 0)
(1.10628 0.95709 0)
(3 6.27085e-08 0)
(3 4.86058e-07 0)
(2.99999 1.49679e-06 0)
(2.99998 4.50434e-06 0)
(2.99995 1.06754e-05 0)
(2.99988 2.82791e-05 0)
(2.99969 6.36363e-05 0)
(2.99932 0.000164872 0)
(2.99822 0.000365428 0)
(2.9962 0.000958882 0)
(2.9892 0.00208449 0)
(2.97745 0.00577171 0)
(2.93321 0.0125537 0)
(2.83609 0.03662 0)
(2.55089 0.0913223 0)
(1.66022 0.271748 0)
(0.877194 0.615542 0)
(0.728371 0.661398 0)
(0.788212 0.68185 0)
(0.862208 0.687244 0)
(0.899458 0.721778 0)
(0.92484 0.77332 0)
(0.968796 0.82998 0)
(1.04269 0.885302 0)
(1.14826 0.92542 0)
(3 5.75712e-08 0)
(3 4.46315e-07 0)
(2.99999 1.37445e-06 0)
(2.99998 4.1383e-06 0)
(2.99996 9.80689e-06 0)
(2.9999 2.60099e-05 0)
(2.99975 5.84931e-05 0)
(2.99944 0.000152388 0)
(2.99853 0.000334446 0)
(2.99682 0.000906865 0)
(2.9912 0.00187404 0)
(2.9815 0.00569462 0)
(2.94588 0.0115721 0)
(2.86948 0.0373048 0)
(2.64279 0.0872498 0)
(1.91798 0.276151 0)
(1.06833 0.670416 0)
(0.769168 0.685916 0)
(0.806542 0.695859 0)
(0.880074 0.697282 0)
(0.934252 0.726053 0)
(0.969965 0.771709 0)
(1.01695 0.821277 0)
(1.08664 0.867171 0)
(1.18112 0.901028 0)
(3 5.12991e-08 0)
(3 3.98239e-07 0)
(2.99999 1.2259e-06 0)
(2.99999 3.69575e-06 0)
(2.99996 8.75975e-06 0)
(2.99992 2.32792e-05 0)
(2.9998 5.23674e-05 0)
(2.99955 0.000136454 0)
(2.99884 0.000301968 0)
(2.99748 0.000805326 0)
(2.99316 0.00171317 0)
(2.98561 0.00505875 0)
(2.95859 0.0101493 0)
(2.90287 0.0329165 0)
(2.73599 0.0776459 0)
(2.21681 0.237431 0)
(1.33209 0.633374 0)
(0.882678 0.698931 0)
(0.868462 0.714657 0)
(0.919969 0.713866 0)
(0.977739 0.730096 0)
(1.01633 0.768419 0)
(1.06133 0.812017 0)
(1.12506 0.851222 0)
(1.20897 0.880034 0)
(3 4.31923e-08 0)
(3 3.34852e-07 0)
(3 1.03105e-06 0)
(2.99999 3.10264e-06 0)
(2.99997 7.35338e-06 0)
(2.99994 1.94754e-05 0)
(2.99984 4.38064e-05 0)
(2.99965 0.000113421 0)
(2.99909 0.00025148 0)
(2.99799 0.000658232 0)
(2.99473 0.00142563 0)
(2.98858 0.00396911 0)
(2.96843 0.00827385 0)
(2.92847 0.0243267 0)
(2.80015 0.0585977 0)
(2.43624 0.167478 0)
(1.64021 0.463874 0)
(0.998412 0.70078 0)
(0.934249 0.737671 0)
(0.964123 0.745238 0)
(1.02152 0.746415 0)
(1.06488 0.772305 0)
(1.10592 0.80753 0)
(1.16138 0.839914 0)
(1.23454 0.863739 0)
(3 3.5716e-08 0)
(3 2.76919e-07 0)
(3 8.52808e-07 0)
(2.99999 2.5653e-06 0)
(2.99998 6.08307e-06 0)
(2.99995 1.6091e-05 0)
(2.99988 3.62495e-05 0)
(2.99973 9.35371e-05 0)
(2.9993 0.000208107 0)
(2.99846 0.000537366 0)
(2.99591 0.00118699 0)
(2.99135 0.00313257 0)
(2.97519 0.00682577 0)
(2.94624 0.0188434 0)
(2.84433 0.0434229 0)
(2.57059 0.129075 0)
(1.91616 0.334926 0)
(1.13325 0.735546 0)
(0.976751 0.770192 0)
(0.993689 0.78195 0)
(1.05018 0.774819 0)
(1.10432 0.785517 0)
(1.14606 0.809361 0)
(1.19523 0.83401 0)
(1.25883 0.852775 0)
(3 2.91314e-08 0)
(3 2.25564e-07 0)
(3 6.9497e-07 0)
(2.99999 2.08798e-06 0)
(2.99998 4.95153e-06 0)
(2.99996 1.30727e-05 0)
(2.99991 2.94349e-05 0)
(2.99979 7.5771e-05 0)
(2.99946 0.000168319 0)
(2.99881 0.000435349 0)
(2.99689 0.00094755 0)
(2.9933 0.00259112 0)
(2.9813 0.00526219 0)
(2.95966 0.0165785 0)
(2.8843 0.0333224 0)
(2.69121 0.113501 0)
(2.19993 0.280486 0)
(1.33313 0.746911 0)
(1.03032 0.802589 0)
(1.02784 0.812468 0)
(1.07531 0.804653 0)
(1.13551 0.800473 0)
(1.18079 0.81316 0)
(1.22638 0.830776 0)
(1.28233 0.84503 0)
(3 2.37358e-08 0)
(3 1.83991e-07 0)
(3 5.66799e-07 0)
(3 1.70446e-06 0)
(2.99999 4.04314e-06 0)
(2.99997 1.06876e-05 0)
(2.99993 2.40897e-05 0)
(2.99984 6.20791e-05 0)
(2.9996 0.000138188 0)
(2.99911 0.000356147 0)
(2.99771 0.000785679 0)
(2.99495 0.00208329 0)
(2.9867 0.00442257 0)
(2.97003 0.0128268 0)
(2.9199 0.0272403 0)
(2.79513 0.0840938 0)
(2.46727 0.211361 0)
(1.61322 0.616318 0)
(1.14761 0.797539 0)
(1.08617 0.82656 0)
(1.10948 0.830428 0)
(1.16456 0.818165 0)
(1.21415 0.819135 0)
(1.25722 0.829812 0)
(1.30645 0.840112 0)
(3 1.88326e-08 0)
(3 1.45538e-07 0)
(3 4.48546e-07 0)
(3 1.34596e-06 0)
(2.99999 3.19161e-06 0)
(2.99998 8.41593e-06 0)
(2.99995 1.89537e-05 0)
(2.99988 4.87126e-05 0)
(2.99971 0.000108348 0)
(2.99935 0.000277986 0)
(2.99832 0.000615374 0)
(2.99634 0.00158953 0)
(2.99018 0.00353729 0)
(2.97895 0.00912196 0)
(2.94092 0.0215528 0)
(2.85582 0.0559088 0)
(2.61382 0.143995 0)
(1.89196 0.420222 0)
(1.27785 0.790987 0)
(1.13375 0.838563 0)
(1.14001 0.854441 0)
(1.18592 0.842344 0)
(1.24076 0.831053 0)
(1.28611 0.833072 0)
(1.33083 0.838954 0)
(3 1.01944e-08 0)
(3 1.23571e-07 0)
(3 3.14451e-07 0)
(3 1.11121e-06 0)
(2.99999 2.26524e-06 0)
(2.99999 6.89444e-06 0)
(2.99996 1.34565e-05 0)
(2.99992 3.97493e-05 0)
(2.99979 7.65627e-05 0)
(2.99953 0.000226007 0)
(2.9988 0.000430294 0)
(2.99739 0.00129603 0)
(2.99294 0.00238987 0)
(2.98519 0.00774779 0)
(2.95738 0.0135116 0)
(2.90103 0.0480751 0)
(2.72931 0.0991235 0)
(2.20002 0.332932 0)
(1.50576 0.755028 0)
(1.21 0.850463 0)
(1.18364 0.870085 0)
(1.20856 0.865771 0)
(1.26113 0.849519 0)
(1.31149 0.842333 0)
(1.355 0.842015 0)
(3 7.58798e-09 0)
(3 9.0106e-08 0)
(3 2.31137e-07 0)
(3 8.12018e-07 0)
(3 1.66652e-06 0)
(2.99999 5.04036e-06 0)
(2.99998 9.90563e-06 0)
(2.99994 2.90449e-05 0)
(2.99986 5.63925e-05 0)
(2.99964 0.000165056 0)
(2.99922 0.000317436 0)
(2.99797 0.000947943 0)
(2.99553 0.00175655 0)
(2.98828 0.0057256 0)
(2.97345 0.00964943 0)
(2.92973 0.0358476 0)
(2.82334 0.0686294 0)
(2.52303 0.228174 0)
(1.78424 0.610197 0)
(1.3265 0.846615 0)
(1.23939 0.876663 0)
(1.24298 0.884872 0)
(1.28368 0.870736 0)
(1.33425 0.855593 0)
(1.37809 0.849301 0)
(3 1.20422e-08 0)
(3 4.82656e-08 0)
(3 2.15273e-07 0)
(3 4.77432e-07 0)
(3 1.50243e-06 0)
(2.99999 3.02498e-06 0)
(2.99998 8.88635e-06 0)
(2.99996 1.75176e-05 0)
(2.9999 5.08094e-05 0)
(2.99975 9.94684e-05 0)
(2.99945 0.000289711 0)
(2.99859 0.000562621 0)
(2.99692 0.00166996 0)
(2.99179 0.00321348 0)
(2.9824 0.00983343 0)
(2.95103 0.019399 0)
(2.88265 0.0604625 0)
(2.68421 0.137666 0)
(2.09443 0.430138 0)
(1.49184 0.839505 0)
(1.29398 0.894265 0)
(1.27911 0.902787 0)
(1.30424 0.892195 0)
(1.35286 0.871624 0)
(1.39964 0.859836 0)
(3 8.58738e-09 0)
(3 3.51994e-08 0)
(3 1.54966e-07 0)
(3 3.46973e-07 0)
(3 1.08098e-06 0)
(3 2.19516e-06 0)
(2.99999 6.38184e-06 0)
(2.99997 1.26918e-05 0)
(2.99993 3.63735e-05 0)
(2.99984 7.18403e-05 0)
(2.9996 0.000206137 0)
(2.99912 0.0004044 0)
(2.99774 0.00117833 0)
(2.99506 0.00226036 0)
(2.98699 0.00699705 0)
(2.97085 0.0127015 0)
(2.9225 0.0427343 0)
(2.80448 0.090053 0)
(2.47365 0.281214 0)
(1.75632 0.710983 0)
(1.39163 0.879434 0)
(1.33157 0.904675 0)
(1.33613 0.907818 0)
(1.37456 0.890264 0)
(1.42167 0.871723 0)
(3 2.98501e-09 0)
(3 3.29928e-08 0)
(3 8.71894e-08 0)
(3 2.98016e-07 0)
(3 6.26205e-07 0)
(3 1.8459e-06 0)
(2.99999 3.7081e-06 0)
(2.99998 1.05881e-05 0)
(2.99995 2.10252e-05 0)
(2.99989 5.97357e-05 0)
(2.99973 0.000117886 0)
(2.9994 0.00033671 0)
(2.99846 0.00065786 0)
(2.99664 0.00191958 0)
(2.99112 0.0036731 0)
(2.98068 0.0112021 0)
(2.94753 0.0216038 0)
(2.87142 0.068065 0)
(2.65969 0.154195 0)
(2.05708 0.468232 0)
(1.52341 0.84416 0)
(1.3807 0.905421 0)
(1.36897 0.918937 0)
(1.39316 0.909763 0)
(1.43816 0.886739 0)
(3 2.80088e-09 0)
(3 2.1595e-08 0)
(3 6.66146e-08 0)
(3 1.99429e-07 0)
(3 4.73048e-07 0)
(3 1.24207e-06 0)
(2.99999 2.79775e-06 0)
(2.99999 7.14309e-06 0)
(2.99997 1.5899e-05 0)
(2.99992 4.03805e-05 0)
(2.99983 8.95131e-05 0)
(2.99957 0.000227717 0)
(2.99906 0.000503342 0)
(2.99757 0.00129007 0)
(2.99469 0.00284545 0)
(2.98584 0.00743875 0)
(2.96857 0.0165808 0)
(2.91458 0.043883 0)
(2.78247 0.11326 0)
(2.41497 0.302102 0)
(1.74656 0.761831 0)
(1.45544 0.901379 0)
(1.40894 0.925162 0)
(1.4159 0.927437 0)
(1.45267 0.907778 0)
(3 2.38725e-09 0)
(3 1.28121e-08 0)
(3 4.77996e-08 0)
(3 1.22445e-07 0)
(3 3.36221e-07 0)
(3 7.68751e-07 0)
(3 1.98608e-06 0)
(2.99999 4.42969e-06 0)
(2.99998 1.1298e-05 0)
(2.99995 2.50376e-05 0)
(2.99988 6.37983e-05 0)
(2.99975 0.000141028 0)
(2.99935 0.00036108 0)
(2.99859 0.000795054 0)
(2.99624 0.00206593 0)
(2.99213 0.00454158 0)
(2.97767 0.0120453 0)
(2.95173 0.0275976 0)
(2.86254 0.073331 0)
(2.63282 0.200918 0)
(2.08783 0.523516 0)
(1.5731 0.878921 0)
(1.45459 0.932397 0)
(1.44345 0.941232 0)
(1.46419 0.929597 0)
(3 9.31557e-10 0)
(3 9.96007e-09 0)
(3 2.66664e-08 0)
(3 9.02972e-08 0)
(3 1.91789e-07 0)
(3 5.59577e-07 0)
(3 1.13613e-06 0)
(2.99999 3.20472e-06 0)
(2.99999 6.43974e-06 0)
(2.99997 1.80233e-05 0)
(2.99993 3.6074e-05 0)
(2.99982 0.000101024 0)
(2.99961 0.000201163 0)
(2.99899 0.000571399 0)
(2.99781 0.0011097 0)
(2.99415 0.00335167 0)
(2.98769 0.00609609 0)
(2.96521 0.0205618 0)
(2.92141 0.0378807 0)
(2.78154 0.129996 0)
(2.38761 0.332008 0)
(1.81785 0.764949 0)
(1.53664 0.913257 0)
(1.48542 0.939718 0)
(1.48646 0.941969 0)
(3 1.03814e-09 0)
(3 5.58751e-09 0)
(3 2.08079e-08 0)
(3 5.33122e-08 0)
(3 1.46057e-07 0)
(3 3.33869e-07 0)
(3 8.59651e-07 0)
(3 1.9165e-06 0)
(2.99999 4.86536e-06 0)
(2.99998 1.07783e-05 0)
(2.99995 2.72923e-05 0)
(2.99988 6.02867e-05 0)
(2.99974 0.000152988 0)
(2.99934 0.000336685 0)
(2.99856 0.000866122 0)
(2.99628 0.00187157 0)
(2.992 0.00508545 0)
(2.97815 0.0105052 0)
(2.95242 0.030992 0)
(2.86837 0.0690382 0)
(2.6378 0.21076 0)
(2.13473 0.54077 0)
(1.66024 0.880832 0)
(1.53486 0.940529 0)
(1.51574 0.949647 0)
(3 8.13116e-10 0)
(3 3.59157e-09 0)
(3 1.50673e-08 0)
(3 3.49603e-08 0)
(3 1.04838e-07 0)
(3 2.19698e-07 0)
(3 6.15193e-07 0)
(3 1.26244e-06 0)
(2.99999 3.47822e-06 0)
(2.99999 7.10841e-06 0)
(2.99997 1.95069e-05 0)
(2.99993 3.98156e-05 0)
(2.99984 0.000109283 0)
(2.99958 0.000222465 0)
(2.99909 0.000614117 0)
(2.99766 0.00123646 0)
(2.99489 0.00352958 0)
(2.98654 0.0067246 0)
(2.97036 0.0213577 0)
(2.92028 0.0394015 0)
(2.79548 0.134476 0)
(2.47078 0.319024 0)
(1.8787 0.770217 0)
(1.60684 0.922407 0)
(1.55119 0.947451 0)
(3 4.61672e-10 0)
(3 2.51823e-09 0)
(3 9.32694e-09 0)
(3 2.39261e-08 0)
(3 6.53229e-08 0)
(3 1.49435e-07 0)
(3 3.83616e-07 0)
(3 8.56077e-07 0)
(3 2.16707e-06 0)
(2.99999 4.80822e-06 0)
(2.99998 1.21346e-05 0)
(2.99996 2.68699e-05 0)
(2.99989 6.78298e-05 0)
(2.99976 0.000149906 0)
(2.9994 0.00037972 0)
(2.99871 0.000836426 0)
(2.99659 0.00214476 0)
(2.99286 0.00469432 0)
(2.97994 0.0124071 0)
(2.95694 0.0276905 0)
(2.87827 0.0751275 0)
(2.67914 0.19872 0)
(2.20766 0.512883 0)
(1.72182 0.892594 0)
(1.58635 0.950609 0)
(3 2.20298e-10 0)
(3 1.70786e-09 0)
(3 5.26056e-09 0)
(3 1.57561e-08 0)
(3 3.72891e-08 0)
(3 9.76384e-08 0)
(3 2.1915e-07 0)
(3 5.56553e-07 0)
(3 1.23395e-06 0)
(2.99999 3.10976e-06 0)
(2.99999 6.87155e-06 0)
(2.99997 1.7282e-05 0)
(2.99994 3.81064e-05 0)
(2.99984 9.59008e-05 0)
(2.99966 0.000210757 0)
(2.99913 0.000536019 0)
(2.99811 0.00115528 0)
(2.99507 0.00308887 0)
(2.9895 0.00635002 0)
(2.97151 0.0184003 0)
(2.93526 0.0390563 0)
(2.82588 0.115331 0)
(2.52505 0.313358 0)
(1.99165 0.715615 0)
(1.66959 0.907726 0)
(3 1.99722e-10 0)
(3 8.66366e-10 0)
(3 3.66136e-09 0)
(3 8.47515e-09 0)
(3 2.54566e-08 0)
(3 5.31901e-08 0)
(3 1.48798e-07 0)
(3 3.04033e-07 0)
(3 8.35835e-07 0)
(3 1.69893e-06 0)
(2.99999 4.6498e-06 0)
(2.99998 9.43463e-06 0)
(2.99996 2.58066e-05 0)
(2.99991 5.22629e-05 0)
(2.99977 0.000143304 0)
(2.99949 0.000289083 0)
(2.99871 0.00080097 0)
(2.99719 0.00159412 0)
(2.99268 0.00459898 0)
(2.98407 0.00880687 0)
(2.95739 0.0269011 0)
(2.89838 0.0561736 0)
(2.72784 0.167735 0)
(2.27032 0.442822 0)
(1.79702 0.832198 0)
(3 8.35309e-11 0)
(3 6.46893e-10 0)
(3 1.99395e-09 0)
(3 5.9663e-09 0)
(3 1.4123e-08 0)
(3 3.69213e-08 0)
(3 8.28502e-08 0)
(3 2.10019e-07 0)
(3 4.65432e-07 0)
(3 1.171e-06 0)
(3 2.58682e-06 0)
(2.99999 6.4973e-06 0)
(2.99997 1.43327e-05 0)
(2.99994 3.60146e-05 0)
(2.99986 7.9321e-05 0)
(2.99968 0.000199889 0)
(2.9992 0.000439063 0)
(2.99824 0.00111782 0)
(2.9955 0.00243803 0)
(2.99009 0.00639924 0)
(2.97433 0.0138842 0)
(2.94063 0.0376218 0)
(2.84493 0.0912011 0)
(2.57053 0.261557 0)
(2.055 0.633522 0)
(3 4.11872e-11 0)
(3 4.3138e-10 0)
(3 1.16162e-09 0)
(3 3.88119e-09 0)
(3 8.25681e-09 0)
(3 2.37693e-08 0)
(3 4.81865e-08 0)
(3 1.34155e-07 0)
(3 2.68535e-07 0)
(3 7.42181e-07 0)
(3 1.47781e-06 0)
(2.99999 4.08175e-06 0)
(2.99998 8.09013e-06 0)
(2.99996 2.2389e-05 0)
(2.99991 4.40881e-05 0)
(2.99979 0.000122613 0)
(2.99948 0.000239055 0)
(2.99886 0.000672684 0)
(2.99707 0.00128671 0)
(2.99362 0.00373055 0)
(2.98305 0.0069521 0)
(2.963 0.0214087 0)
(2.89884 0.0405831 0)
(2.74028 0.132472 0)
(2.34987 0.31097 0)
(3 3.00056e-11 0)
(3 2.29377e-10 0)
(3 7.09052e-10 0)
(3 2.10263e-09 0)
(3 4.97717e-09 0)
(3 1.28729e-08 0)
(3 2.88398e-08 0)
(3 7.22327e-08 0)
(3 1.59685e-07 0)
(3 3.96578e-07 0)
(3 8.73644e-07 0)
(3 2.16373e-06 0)
(2.99999 4.76138e-06 0)
(2.99997 1.17759e-05 0)
(2.99994 2.58994e-05 0)
(2.99984 6.39166e-05 0)
(2.99965 0.000140904 0)
(2.99911 0.000342779 0)
(2.99805 0.00077403 0)
(2.99482 0.00178791 0)
(2.98887 0.00419625 0)
(2.96881 0.00935841 0)
(2.92922 0.0219662 0)
(2.80063 0.0513743 0)
(2.4622 0.139214 0)
(3 1.974e-11 0)
(3 1.06686e-10 0)
(3 3.94279e-10 0)
(3 1.01028e-09 0)
(3 2.72687e-09 0)
(3 6.20241e-09 0)
(3 1.56421e-08 0)
(3 3.45777e-08 0)
(3 8.5697e-08 0)
(3 1.87986e-07 0)
(3 4.63798e-07 0)
(3 1.01512e-06 0)
(2.99999 2.50209e-06 0)
(2.99998 5.47394e-06 0)
(2.99995 1.34898e-05 0)
(2.99989 2.9523e-05 0)
(2.99971 7.2615e-05 0)
(2.99938 0.00015952 0)
(2.99827 0.000386528 0)
(2.99647 0.000869483 0)
(2.98932 0.00201553 0)
(2.97775 0.00463725 0)
(2.93214 0.0104113 0)
(2.83148 0.0260379 0)
(2.53217 0.0587964 0)
(3 7.21049e-12 0)
(3 5.54289e-11 0)
(3 1.71168e-10 0)
(3 5.07388e-10 0)
(3 1.19712e-09 0)
(3 3.07995e-09 0)
(3 6.85442e-09 0)
(3 1.70411e-08 0)
(3 3.7349e-08 0)
(3 9.21887e-08 0)
(3 2.01292e-07 0)
(3 4.97463e-07 0)
(2.99999 1.08666e-06 0)
(2.99998 2.69697e-06 0)
(2.99996 5.90877e-06 0)
(2.99989 1.46883e-05 0)
(2.99976 3.26316e-05 0)
(2.99937 8.0054e-05 0)
(2.99864 0.000180831 0)
(2.99617 0.000450833 0)
(2.992 0.000962724 0)
(2.97575 0.00269752 0)
(2.94676 0.00566543 0)
(2.83811 0.0164102 0)
(2.55235 0.0409051 0)
(3 3.06773e-12 0)
(3 1.57367e-11 0)
(3 5.91501e-11 0)
(3 1.50322e-10 0)
(3 4.05925e-10 0)
(3 9.10209e-10 0)
(3 2.27855e-09 0)
(3 4.93667e-09 0)
(3 1.21393e-08 0)
(3 2.60484e-08 0)
(3 6.41289e-08 0)
(3 1.37334e-07 0)
(2.99999 3.41494e-07 0)
(2.99998 7.30931e-07 0)
(2.99996 1.85113e-06 0)
(2.99991 3.96835e-06 0)
(2.99977 1.04784e-05 0)
(2.99951 2.18727e-05 0)
(2.99858 6.65608e-05 0)
(2.99712 0.000122182 0)
(2.99119 0.000494555 0)
(2.98166 0.000879796 0)
(2.94352 0.00367599 0)
(2.86093 0.00821858 0)
(2.60667 0.0303013 0)
(3 -6.6059e-12 0)
(3 1.37351e-11 0)
(3 -5.4984e-11 0)
(3 8.60518e-11 0)
(3 -3.54162e-10 0)
(3 4.62657e-10 0)
(3 -2.15511e-09 0)
(3 2.35471e-09 0)
(3 -1.31073e-08 0)
(3 1.14928e-08 0)
(3 -7.99085e-08 0)
(3 5.34079e-08 0)
(2.99999 -4.90129e-07 0)
(2.99998 2.30102e-07 0)
(2.99996 -3.04276e-06 0)
(2.9999 1.00989e-06 0)
(2.99978 -1.95632e-05 0)
(2.99942 9.43006e-06 0)
(2.99872 -0.000134593 0)
(2.99653 0.000141589 0)
(2.99263 -0.000828513 0)
(2.97842 0.0016721 0)
(2.95292 -0.00421573 0)
(2.86086 0.0141214 0)
(2.62123 -0.0041697 0)
(3 -5.80667e-13 0)
(3 -3.98924e-12 0)
(3 -1.35185e-11 0)
(3 -3.57112e-11 0)
(3 -9.18871e-11 0)
(3 -2.16088e-10 0)
(3 -5.27054e-10 0)
(3 -1.21613e-09 0)
(3 -2.90526e-09 0)
(3 -6.6683e-09 0)
(3 -1.55601e-08 0)
(3 -3.56725e-08 0)
(2.99999 -8.02735e-08 0)
(2.99998 -1.85702e-07 0)
(2.99996 -3.89669e-07 0)
(2.9999 -9.24159e-07 0)
(2.99977 -1.64727e-06 0)
(2.99941 -4.01258e-06 0)
(2.99869 -2.50201e-06 0)
(2.99655 -1.71093e-05 0)
(2.99246 8.67319e-05 0)
(2.97901 -7.07904e-05 0)
(2.95376 0.00129788 0)
(2.86659 0.00206633 0)
(2.63977 0.0119883 0)
(3 3.3315e-13 0)
(3 2.21489e-12 0)
(3 8.1921e-12 0)
(3 2.12906e-11 0)
(3 6.49191e-11 0)
(3 1.56656e-10 0)
(3 4.63383e-10 0)
(3 1.10708e-09 0)
(3 3.22423e-09 0)
(3 7.6618e-09 0)
(3 2.19963e-08 0)
(3 5.19925e-08 0)
(2.99999 1.47368e-07 0)
(2.99998 3.46869e-07 0)
(2.99996 9.71806e-07 0)
(2.9999 2.2829e-06 0)
(2.99978 6.3166e-06 0)
(2.99942 1.48006e-05 0)
(2.99871 3.96241e-05 0)
(2.9966 9.75036e-05 0)
(2.99259 0.000218285 0)
(2.97942 0.000675047 0)
(2.95475 0.001175 0)
(2.86982 0.00334822 0)
(2.64989 0.00833142 0)
(3 6.72954e-12 0)
(3 -1.17667e-11 0)
(3 6.00636e-11 0)
(3 -6.60142e-11 0)
(3 3.96751e-10 0)
(3 -3.24209e-10 0)
(3 2.42948e-09 0)
(3 -1.50553e-09 0)
(3 1.47379e-08 0)
(3 -6.44523e-09 0)
(3 8.94069e-08 0)
(3 -2.3701e-08 0)
(2.99999 5.43636e-07 0)
(2.99998 -5.82726e-08 0)
(2.99996 3.32426e-06 0)
(2.9999 8.46143e-08 0)
(2.99978 2.04851e-05 0)
(2.99944 1.3221e-06 0)
(2.99876 0.000131611 0)
(2.9967 -2.58093e-05 0)
(2.99295 0.000913944 0)
(2.9798 -0.000714609 0)
(2.95607 0.00595556 0)
(2.87222 -0.00553953 0)
(2.65664 0.0269219 0)
(3 5.98513e-12 0)
(3 -1.6568e-11 0)
(3 4.34989e-11 0)
(3 -1.09744e-10 0)
(3 2.78985e-10 0)
(3 -6.06211e-10 0)
(3 1.69451e-09 0)
(3 -3.25398e-09 0)
(3 1.01863e-08 0)
(3 -1.73647e-08 0)
(3 6.09541e-08 0)
(3 -9.27484e-08 0)
(2.99999 3.63387e-07 0)
(2.99998 -5.00897e-07 0)
(2.99996 2.16345e-06 0)
(2.99991 -2.78889e-06 0)
(2.99978 1.2943e-05 0)
(2.99951 -1.63931e-05 0)
(2.99869 7.98156e-05 0)
(2.99725 -0.000116328 0)
(2.99202 0.000586248 0)
(2.98348 -0.00116667 0)
(2.95099 0.00474874 0)
(2.88241 -0.00771333 0)
(2.67708 0.0209568 0)
(3 -8.01895e-14 0)
(3 -3.53711e-13 0)
(3 -1.35647e-12 0)
(3 -2.25604e-12 0)
(3 -4.86856e-12 0)
(3 1.63576e-12 0)
(3 1.25589e-11 0)
(3 1.20613e-10 0)
(3 3.30545e-10 0)
(3 1.34535e-09 0)
(3 3.35676e-09 0)
(3 1.14058e-08 0)
(2.99999 2.73871e-08 0)
(2.99998 8.63574e-08 0)
(2.99996 2.03161e-07 0)
(2.99991 6.16206e-07 0)
(2.99977 1.43537e-06 0)
(2.99949 4.2381e-06 0)
(2.99868 9.8702e-06 0)
(2.99712 2.83932e-05 0)
(2.99209 6.54676e-05 0)
(2.98324 0.000189951 0)
(2.95144 0.00043063 0)
(2.88369 0.00129697 0)
(2.68322 0.00319314 0)
(3 -5.90913e-12 0)
(3 1.66441e-11 0)
(3 -4.23044e-11 0)
(3 1.12178e-10 0)
(3 -2.6203e-10 0)
(3 6.48749e-10 0)
(3 -1.51271e-09 0)
(3 3.69775e-09 0)
(3 -8.6169e-09 0)
(3 2.10907e-08 0)
(3 -4.88561e-08 0)
(3 1.2103e-07 0)
(2.99999 -2.75828e-07 0)
(2.99998 7.04027e-07 0)
(2.99996 -1.55492e-06 0)
(2.99991 4.19777e-06 0)
(2.99978 -8.83371e-06 0)
(2.99952 2.59433e-05 0)
(2.99871 -5.30283e-05 0)
(2.9973 0.000181686 0)
(2.99216 -0.000423759 0)
(2.98379 0.00160598 0)
(2.9519 -0.00377537 0)
(2.88484 0.0104045 0)
(2.68408 -0.0138721 0)
(3 -6.14924e-12 0)
(3 1.50169e-11 0)
(3 -4.74267e-11 0)
(3 9.70509e-11 0)
(3 -2.99924e-10 0)
(3 5.43827e-10 0)
(3 -1.76804e-09 0)
(3 2.98687e-09 0)
(3 -1.03345e-08 0)
(3 1.62443e-08 0)
(3 -6.05247e-08 0)
(3 8.76303e-08 0)
(2.99999 -3.5651e-07 0)
(2.99998 4.70971e-07 0)
(2.99996 -2.12588e-06 0)
(2.99991 2.55759e-06 0)
(2.99979 -1.29059e-05 0)
(2.99946 1.54334e-05 0)
(2.99881 -8.56049e-05 0)
(2.99681 0.000135667 0)
(2.99326 -0.000676145 0)
(2.98048 0.00146689 0)
(2.95794 -0.00481139 0)
(2.87736 0.00896794 0)
(2.67102 -0.0191267 0)
(1.02032 1.10511 0)
(1.19715 0.944719 0)
(0.736502 0.637154 0)
(-0.193912 0.383715 0)
(-0.344101 0.0318494 0)
(-0.402407 0.0258361 0)
(-0.536626 0.0299208 0)
(-0.656565 0.029587 0)
(-0.765027 0.0242158 0)
(-0.855352 0.0171433 0)
(-0.928414 0.0114564 0)
(-0.992213 0.00918046 0)
(-1.05086 0.00808494 0)
(-1.103 0.00664598 0)
(-1.1485 0.00466227 0)
(-1.19009 0.00319173 0)
(-1.22218 0.00442159 0)
(-1.23707 0.00450287 0)
(-1.23849 0.0032814 0)
(-1.23276 0.00146869 0)
(-1.2144 -0.000218872 0)
(-1.177 -0.00223031 0)
(-1.12239 -0.00464189 0)
(-1.05492 -0.00700529 0)
(-0.980961 -0.00846625 0)
(-0.90595 -0.00886312 0)
(-0.832817 -0.00856196 0)
(-0.762344 -0.00803154 0)
(-0.694353 -0.00763009 0)
(-0.628356 -0.00753465 0)
(-0.564876 -0.00759464 0)
(-0.503952 -0.00817909 0)
(-0.445896 -0.00923692 0)
(-0.390016 -0.010866 0)
(-0.335583 -0.01341 0)
(-0.28159 -0.0167803 0)
(-0.227707 -0.0199775 0)
(-0.173597 -0.0223942 0)
(-0.121325 -0.0238224 0)
(-0.0690472 -0.0254934 0)
(-0.0200083 -0.0276903 0)
(0.0364101 -0.0299483 0)
(0.0864027 -0.0300908 0)
(0.12791 -0.0280573 0)
(0.169663 -0.0260193 0)
(0.210779 -0.0241197 0)
(0.250933 -0.0225695 0)
(0.288982 -0.0212952 0)
(0.327109 -0.02081 0)
(0.366043 -0.020623 0)
(0.404275 -0.0200121 0)
(0.44076 -0.0190819 0)
(0.476018 -0.0183374 0)
(0.510278 -0.0177352 0)
(0.543719 -0.0172118 0)
(0.576295 -0.01673 0)
(0.608022 -0.0162933 0)
(0.638945 -0.0158895 0)
(0.669084 -0.0155276 0)
(0.698427 -0.0151787 0)
(0.72701 -0.0148534 0)
(0.754846 -0.0145273 0)
(0.781971 -0.0142076 0)
(0.808378 -0.0138769 0)
(0.834124 -0.0135343 0)
(0.859222 -0.0131766 0)
(0.883724 -0.0127939 0)
(0.907663 -0.012387 0)
(0.931083 -0.0119534 0)
(0.954049 -0.0114925 0)
(0.976588 -0.0110112 0)
(0.998768 -0.0105074 0)
(1.02062 -0.0099916 0)
(1.04218 -0.00946532 0)
(1.0635 -0.00893748 0)
(1.08457 -0.0084113 0)
(1.10544 -0.00789394 0)
(1.12609 -0.00738838 0)
(1.14654 -0.00690008 0)
(1.16679 -0.00642983 0)
(1.18682 -0.00598139 0)
(1.20662 -0.00555449 0)
(1.22619 -0.00514949 0)
(1.24552 -0.00476817 0)
(1.2646 -0.00440463 0)
(1.28341 -0.0040647 0)
(1.30195 -0.00373703 0)
(1.32021 -0.00342847 0)
(1.33817 -0.00312839 0)
(1.35581 -0.00283894 0)
(1.37311 -0.00255309 0)
(1.39002 -0.00226783 0)
(1.4065 -0.00197813 0)
(1.42244 -0.00167117 0)
(1.43769 -0.00133861 0)
(1.45202 -0.000969594 0)
(1.46512 -0.000548514 0)