/*--------------------------------*- C++ -*----------------------------------*\
| =========                 |                                                 |
| \\      /  F ield         | OpenFOAM: The Open Source CFD Toolbox           |
|  \\    /   O peration     | Version:  2106                                  |
|   \\  /    A nd           | Website:  www.openfoam.com                      |
|    \\/     M anipulation  |                                                 |
\*---------------------------------------------------------------------------*/
FoamFile
{
    version     2.0;
    format      ascii;
    arch        "LSB;label=32;scalar=64";
    class       volScalarField;
    location    "2";
    object      T;
}
// * * * * * * * * * * * * * * * * * * * * * * * * * * * * * * * * * * * * * //

dimensions      [0 0 0 1 0 0 0];

internalField   nonuniform List<scalar> 
1000
(
0
0
0
0
0
0
0
0
0
0
0
0
0
0
0
0
0
0
0
0
0
0
0
0
0
0
0
0
0
0
0
0
0
0
0
0
0
0
0
0
0
0
0
0
0
0
0
0
0
0
0
0
0
0
0
0
0
0
0
0
0
0
0
0
0
0
0
0
0
0
0
0
0
0
0
0
0
0
0
0
0
0
0
0
0
0
0
0
0
0
0
0
0
0
0
0
0
0
0
0
0
0
0
0
0
0
0
0
0
0
0
0
0
0
0
0
0
0
0
0
0
0
0
0
0
0
0
0
0
0
0
0
0
0
0
0
0
0
0
0
0
0
0
0
0
0
0
0
0
0
0
0
0
0
0
0
0
0
0
0
0
0
0
0
0
0
0
0
0
0
0
0
0
0
0
0
0
0
0
0
0
0
0
0
0
0
0
0
0
0
0
0
0
0
0
0
0
0
0
0
0
0
0
0
0
0
0
0
0
0
0
0
0
0
0
0
0
0
0
0
0
0
0
0
0
0
0
0
0
0
0
0
0
0
0
0
0
0
0
0
0
0
0
0
0
0
0
0
0
0
0
0
0
0
0
0
0
0
0
0
0
0
0
0
0
0
0
0
0
0
0
0
0
0
0
0
0
0
0
0
0
0
0
0
0
0
0
0
0
0
0
0
0
0
0
0
0
0
0
0
0
0
0
0
0
0
0
0
0
0
0
0
0
0
0
0
0
0
0
0
0
0
0
0
0
0
0
0
0
0
0
0
0
0
0
0
0
0
0
0
0
0
0
0
0
0
0
0
0
0
0
0
0
0
0
0
0
0
0
0
0
0
0
0
0
0
0
0
0
0
0
0
0
0
0
0
0
0
0
0
0
0
0
0
0
0
0
0
0
0
0
0
0
0
0
0
0
0
0
0
0
0
0
0
3.21074e-114
-3.6601e-98
2.88622e-90
-1.94676e-86
-1.57858e-84
-2.83651e-83
2.54432e-81
2.25175e-79
1.01301e-77
3.25824e-76
8.30716e-75
1.76691e-73
3.23439e-72
5.20476e-71
7.47773e-70
9.70611e-69
1.1489e-67
1.24954e-66
1.25638e-65
1.17381e-64
1.02331e-63
8.35312e-63
6.40215e-62
4.61716e-61
3.13798e-60
2.01141e-59
1.2159e-58
6.92331e-58
3.70225e-57
1.8486e-56
8.52427e-56
3.55023e-55
1.26789e-54
3.27853e-54
-3.68105e-56
-7.99939e-53
-7.51421e-52
-5.14107e-51
-3.03746e-50
-1.63568e-49
-8.22694e-49
-3.91681e-48
-1.7797e-47
-7.75998e-47
-3.25963e-46
-1.32293e-45
-5.19931e-45
-1.9824e-44
-7.34407e-44
-2.64696e-43
-9.29228e-43
-3.18065e-42
-1.06254e-41
-3.46737e-41
-1.10625e-40
-3.45347e-40
-1.05572e-39
-3.16264e-39
-9.29095e-39
-2.67828e-38
-7.58038e-38
-2.10759e-37
-5.75891e-37
-1.5471e-36
-4.08757e-36
-1.06244e-35
-2.7174e-35
-6.84108e-35
-1.69567e-34
-4.13947e-34
-9.95636e-34
-2.3605e-33
-5.51921e-33
-1.27338e-32
-2.90057e-32
-6.52639e-32
-1.45108e-31
-3.18874e-31
-6.92511e-31
-1.48577e-30
-3.14688e-30
-6.57301e-30
-1.35214e-29
-2.7351e-29
-5.4308e-29
-1.0566e-28
-2.01068e-28
-3.7364e-28
-6.77138e-28
-1.19594e-27
-2.05917e-27
-3.46353e-27
-5.71833e-27
-9.34835e-27
-1.53377e-26
-2.56869e-26
-4.4608e-26
-8.08983e-26
-1.52294e-25
-2.92791e-25
-5.63851e-25
-1.06977e-24
-1.97627e-24
-3.53039e-24
-6.08229e-24
-1.01242e-23
-1.6407e-23
-2.63002e-23
-4.27781e-23
-7.27865e-23
-1.32313e-22
-2.56155e-22
-5.14882e-22
-1.04106e-21
-2.06412e-21
-3.94602e-21
-7.1958e-21
-1.24174e-20
-2.01133e-20
-3.02349e-20
-4.13612e-20
-4.9448e-20
-4.62887e-20
-1.82658e-20
5.32605e-20
1.87459e-19
3.91652e-19
6.36339e-19
8.13484e-19
6.77913e-19
-2.19144e-19
-2.57609e-18
-7.30833e-18
-1.53402e-17
-2.70886e-17
-4.14929e-17
-5.45245e-17
-5.7301e-17
-3.31112e-17
4.90193e-17
2.39586e-16
5.96286e-16
1.09888e-15
1.56094e-15
1.06121e-15
-2.94771e-15
-9.23154e-15
-9.58029e-15
7.78025e-15
3.30635e-14
2.9439e-14
-3.24289e-14
-1.03306e-13
-6.2989e-14
1.33253e-13
2.92399e-13
9.61938e-14
-4.65877e-13
-7.76264e-13
-6.14761e-14
1.47859e-12
1.95597e-12
-2.68838e-13
-4.38209e-12
-4.98578e-12
1.52066e-12
1.24235e-11
1.30549e-11
-5.26518e-12
-3.40592e-11
-3.52288e-11
1.22813e-11
9.13934e-11
9.86536e-11
-2.03989e-11
-2.2993e-10
-2.91178e-10
-1.23641e-11
5.56676e-10
8.54888e-10
2.80306e-10
-1.20604e-09
-2.43511e-09
-1.57249e-09
2.11284e-09
6.45081e-09
6.26365e-09
-1.40808e-09
-1.46113e-08
-2.12923e-08
-9.3373e-09
2.43393e-08
5.97824e-08
5.63144e-08
-1.04125e-08
-1.27297e-07
-2.00012e-07
-1.27298e-07
1.36774e-07
4.97677e-07
6.40158e-07
2.87902e-07
-6.44481e-07
-1.77289e-06
-2.08421e-06
-8.49502e-07
2.19583e-06
5.9403e-06
7.32453e-06
3.97663e-06
-5.32908e-06
-1.8413e-05
-2.67352e-05
-2.14887e-05
3.42299e-06
4.67498e-05
9.24785e-05
0.000104684
6.24447e-05
-5.4633e-05
-0.00023343
-0.000412541
-0.000459918
-0.000303251
0.000140932
0.000869181
0.00173053
0.00232772
0.00223282
0.00113264
-0.00131694
-0.00517118
-0.0099883
-0.0146115
-0.0169799
-0.0153821
-0.00810232
0.00721002
0.0325705
0.0693446
0.118025
0.178106
0.248087
0.325618
0.407749
0.491252
0.572952
0.650031
0.720252
0.782088
0.834756
0.878158
0.912764
0.939451
0.959343
0.97366
0.983592
0.99022
0.994459
0.997046
0.998543
0.999355
0.99976
0.999939
0.999997
1
1
1
1
1
1
1
1
1
1
1
1
1
1
1
1
1
1
1
1
1
1
1
1
1
1
1
1
1
1
1
1
1
1
1
0.999999
1
1
1
1
1
0.999998
0.999994
0.999993
0.999996
1.00001
1.00002
1.00003
1.00002
0.999996
0.999953
0.999908
0.999896
0.999938
1.00006
1.00023
1.00041
1.00046
1.0003
0.999857
0.999129
0.99827
0.997675
0.997772
0.998874
1.00132
1.00518
1.00999
1.01461
1.01697
1.01536
1.00807
0.992749
0.967382
0.930604
0.881924
0.821849
0.751878
0.67436
0.592243
0.508754
0.427067
0.349997
0.279784
0.217951
0.165284
0.121879
0.08727
0.060578
0.0406802
0.0263584
0.0164214
0.00979014
0.00554778
0.0029579
0.0014595
0.000646703
0.000240783
6.11348e-05
3.08083e-06
5.00534e-16
4.95508e-16
4.88892e-16
4.76741e-16
4.60047e-16
4.39655e-16
4.16366e-16
3.90945e-16
3.641e-16
3.36476e-16
3.08647e-16
2.81106e-16
2.5427e-16
2.28477e-16
2.0399e-16
1.81003e-16
1.59646e-16
1.39993e-16
1.22069e-16
1.0586e-16
9.13171e-17
7.83678e-17
6.69195e-17
5.68672e-17
4.80979e-17
4.04954e-17
3.39436e-17
2.83295e-17
2.35453e-17
1.94896e-17
1.60689e-17
1.31978e-17
1.07992e-17
8.8044e-18
7.15265e-18
5.79067e-18
4.67218e-18
3.75726e-18
3.01171e-18
2.40641e-18
1.91676e-18
1.52204e-18
1.20494e-18
9.51049e-19
7.48433e-19
5.87258e-19
4.59455e-19
3.58431e-19
2.7882e-19
2.16276e-19
1.67287e-19
1.29031e-19
9.92447e-20
7.61215e-20
5.82233e-20
4.44099e-20
3.378e-20
2.56234e-20
1.93828e-20
1.46217e-20
1.09999e-20
8.25244e-21
6.17429e-21
4.60683e-21
3.42792e-21
2.54374e-21
1.88249e-21
1.38934e-21
1.0226e-21
7.50623e-22
5.49494e-22
4.0117e-22
2.92093e-22
2.12101e-22
1.53601e-22
1.10937e-22
7.99091e-23
5.74051e-23
4.11286e-23
2.93885e-23
2.09436e-23
1.48858e-23
1.05521e-23
7.4602e-24
5.26035e-24
3.6994e-24
2.59479e-24
1.81522e-24
1.26653e-24
8.81378e-25
6.11747e-25
4.23493e-25
2.92407e-25
2.01372e-25
1.38318e-25
9.47623e-26
6.4754e-26
4.41343e-26
3.0003e-26
2.0344e-26
1.37592e-26
9.28185e-27
6.24548e-27
4.19168e-27
2.80611e-27
1.87377e-27
1.24803e-27
8.29153e-28
5.49473e-28
3.63214e-28
2.39489e-28
1.57514e-28
1.03339e-28
6.76273e-29
4.41465e-29
2.87468e-29
1.86726e-29
1.20988e-29
7.81996e-30
5.04191e-30
3.24277e-30
2.08052e-30
1.33156e-30
8.50133e-31
5.41444e-31
3.44004e-31
2.1803e-31
1.37854e-31
8.69498e-32
5.47105e-32
3.43422e-32
2.15051e-32
1.34343e-32
8.3724e-33
5.20534e-33
3.22861e-33
1.99779e-33
1.23327e-33
7.59516e-34
4.66653e-34
2.86042e-34
1.74923e-34
1.06721e-34
6.49584e-35
3.94468e-35
2.38989e-35
1.44457e-35
8.71158e-36
5.24147e-36
3.14637e-36
1.88439e-36
1.126e-36
6.71293e-37
3.99299e-37
2.36972e-37
1.40318e-37
8.28986e-38
4.88654e-38
2.87395e-38
1.68649e-38
9.87449e-39
5.76869e-39
3.36258e-39
1.95571e-39
1.13494e-39
6.57176e-40
3.79694e-40
2.18893e-40
1.25915e-40
7.22722e-41
4.13923e-41
2.36549e-41
1.34891e-41
7.67542e-42
4.35797e-42
2.46905e-42
1.39587e-42
7.87458e-43
4.43284e-43
2.49007e-43
1.39578e-43
7.8073e-44
4.35779e-44
2.42726e-44
1.34912e-44
7.48298e-45
4.1418e-45
2.28769e-45
1.26095e-45
6.93585e-46
3.80715e-46
2.08547e-46
1.14002e-46
6.21907e-47
3.3857e-47
1.83944e-47
9.97319e-48
5.39634e-48
2.91396e-48
1.57032e-48
8.44532e-49
4.53283e-49
2.428e-49
1.29796e-49
6.92472e-50
3.68705e-50
1.95926e-50
1.03907e-50
5.49967e-51
2.90517e-51
1.53163e-51
8.05902e-52
4.23215e-52
2.21815e-52
1.16031e-52
6.05782e-53
3.15657e-53
1.64163e-53
8.52115e-54
4.41454e-54
2.28265e-54
1.17805e-54
6.06819e-55
3.1198e-55
1.60093e-55
8.1996e-56
4.19174e-56
2.13884e-56
1.08929e-56
5.53729e-57
2.80956e-57
)
;

boundaryField
{
    sides
    {
        type            zeroGradient;
    }
    empty
    {
        type            empty;
    }
}


// ************************************************************************* //
