/*--------------------------------*- C++ -*----------------------------------*\
  =========                 |
  \\      /  F ield         | OpenFOAM: The Open Source CFD Toolbox
   \\    /   O peration     | Website:  https://openfoam.org
    \\  /    A nd           | Version:  6
     \\/     M anipulation  |
\*---------------------------------------------------------------------------*/
FoamFile
{
    version     2.0;
    format      ascii;
    class       volVectorField;
    location    "39";
    object      U;
}
// * * * * * * * * * * * * * * * * * * * * * * * * * * * * * * * * * * * * * //

dimensions      [0 1 -1 0 0 0 0];

internalField   nonuniform List<vector> 
8800
(
(0.987188 -0.0766667 0)
(1.0019 -0.0551916 0)
(0.999747 -0.0285506 0)
(1.00004 -0.0151438 0)
(1.00006 -0.00854022 0)
(1.00005 -0.00503973 0)
(1.00003 -0.00300763 0)
(1.00001 -0.00172326 0)
(0.99999 -0.000822793 0)
(1.00005 -0.000109873 0)
(0.999988 0.00061119 0)
(1 0.00137193 0)
(1.00001 0.00240086 0)
(1.00002 0.00398525 0)
(1.00002 0.00662442 0)
(1.00001 0.0113639 0)
(0.999902 0.0208092 0)
(0.999151 0.0386676 0)
(1.00709 0.0724554 0)
(0.771213 0.0366605 0)
(0.363046 -0.0160197 0)
(1.04329 -0.0768287 0)
(1.0846 -0.0704692 0)
(1.04521 -0.0535707 0)
(1.02327 -0.0389244 0)
(1.01195 -0.0262497 0)
(1.00635 -0.0169089 0)
(1.00355 -0.0104075 0)
(1.00213 -0.00576131 0)
(1.00145 -0.00211711 0)
(1.00131 0.00118945 0)
(1.00169 0.00455489 0)
(1.00266 0.00849739 0)
(1.00463 0.013861 0)
(1.00858 0.0215946 0)
(1.01655 0.0325771 0)
(1.03247 0.0464977 0)
(1.06264 0.0616233 0)
(1.09188 0.0760729 0)
(0.838711 0.0565504 0)
(0.216777 -0.00243234 0)
(1.07586 -0.0501698 0)
(1.09987 -0.0483618 0)
(1.06461 -0.0405235 0)
(1.03994 -0.0336726 0)
(1.02379 -0.0261679 0)
(1.01403 -0.0186296 0)
(1.0085 -0.0118457 0)
(1.00555 -0.00600151 0)
(1.00431 -0.000597437 0)
(1.00467 0.00464717 0)
(1.00661 0.0100328 0)
(1.0106 0.0161414 0)
(1.01792 0.0231988 0)
(1.03054 0.0306977 0)
(1.05062 0.0377476 0)
(1.08035 0.0444445 0)
(1.10629 0.0512786 0)
(0.942643 0.0415842 0)
(0.216245 0.00245754 0)
(0.17506 -0.000819632 0)
(1.01756 -0.0355355 0)
(1.10515 -0.0414605 0)
(1.0782 -0.036156 0)
(1.05333 -0.0302259 0)
(1.03604 -0.0246736 0)
(1.02387 -0.0190028 0)
(1.01579 -0.0129716 0)
(1.01097 -0.00681912 0)
(1.00882 -0.000526398 0)
(1.00942 0.00569895 0)
(1.01268 0.011701 0)
(1.01888 0.0175622 0)
(1.02878 0.023182 0)
(1.04326 0.0285273 0)
(1.06379 0.0340483 0)
(1.09361 0.0400622 0)
(1.09353 0.04186 0)
(0.827438 0.0228682 0)
(0.174163 0.000847702 0)
(0.153805 -0.00061381 0)
(0.955896 -0.0255206 0)
(1.10332 -0.035237 0)
(1.08754 -0.0327901 0)
(1.06151 -0.0281644 0)
(1.04388 -0.0231808 0)
(1.03146 -0.0179962 0)
(1.02267 -0.0125149 0)
(1.01689 -0.00662676 0)
(1.01409 -0.000201055 0)
(1.01482 0.0062392 0)
(1.01884 0.0121211 0)
(1.02585 0.0174506 0)
(1.03615 0.0224277 0)
(1.05076 0.027245 0)
(1.07201 0.0318144 0)
(1.10019 0.0357748 0)
(1.06835 0.033884 0)
(0.740077 0.0142522 0)
(0.15246 0.000645425 0)
(0.139373 -0.00047055 0)
(0.898802 -0.0191532 0)
(1.09554 -0.0302189 0)
(1.09553 -0.0293553 0)
(1.06896 -0.0256357 0)
(1.0505 -0.021536 0)
(1.03762 -0.0168537 0)
(1.02857 -0.011664 0)
(1.02253 -0.00599901 0)
(1.01949 0.000280944 0)
(1.02018 0.0065765 0)
(1.02431 0.0122033 0)
(1.03144 0.0171733 0)
(1.04199 0.0216775 0)
(1.05719 0.0257116 0)
(1.07941 0.029252 0)
(1.10252 0.0319381 0)
(1.0365 0.027924 0)
(0.67384 0.0101328 0)
(0.13748 0.000506929 0)
(0.128765 -0.000365357 0)
(0.848979 -0.0147976 0)
(1.08298 -0.0261113 0)
(1.10111 -0.0264676 0)
(1.07572 -0.0232441 0)
(1.05672 -0.0196794 0)
(1.0434 -0.0155109 0)
(1.03401 -0.0106549 0)
(1.02774 -0.00519675 0)
(1.02451 0.000864209 0)
(1.0251 0.00690314 0)
(1.02924 0.0122483 0)
(1.03651 0.0168589 0)
(1.04733 0.0208272 0)
(1.06295 0.0242127 0)
(1.08564 0.0272057 0)
(1.10177 0.029009 0)
(1.00193 0.0233422 0)
(0.62244 0.00774621 0)
(0.126207 0.000408222 0)
(0.120652 -0.000284956 0)
(0.806585 -0.0116447 0)
(1.06749 -0.0225142 0)
(1.10445 -0.0238383 0)
(1.0818 -0.021017 0)
(1.06242 -0.0176763 0)
(1.04883 -0.0138722 0)
(1.03916 -0.00943119 0)
(1.03261 -0.0042981 0)
(1.02917 0.00155816 0)
(1.02962 0.00738138 0)
(1.03375 0.0123702 0)
(1.04113 0.0164642 0)
(1.05209 0.0198731 0)
(1.06792 0.0228246 0)
(1.09094 0.0255751 0)
(1.09818 0.0265384 0)
(0.967176 0.0197173 0)
(0.581354 0.00618251 0)
(0.117287 0.000335836 0)
(0.114345 -0.000222109 0)
(0.770846 -0.00928322 0)
(1.05048 -0.0193564 0)
(1.1067 -0.0214588 0)
(1.08755 -0.0190258 0)
(1.06772 -0.0158511 0)
(1.05386 -0.0122097 0)
(1.04403 -0.00796542 0)
(1.03728 -0.0030882 0)
(1.03362 0.00241971 0)
(1.03389 0.00783641 0)
(1.03792 0.0124306 0)
(1.04523 0.0161553 0)
(1.05625 0.0192328 0)
(1.07237 0.021871 0)
(1.09512 0.0242848 0)
(1.09192 0.0244436 0)
(0.933573 0.0168747 0)
(0.547606 0.00509729 0)
(0.109999 0.000282683 0)
(0.109414 -0.00017127 0)
(0.740855 -0.00743966 0)
(1.03298 -0.0165235 0)
(1.10785 -0.019169 0)
(1.09286 -0.0171033 0)
(1.07281 -0.0140594 0)
(1.05873 -0.010525 0)
(1.04868 -0.00644095 0)
(1.04169 -0.0018038 0)
(1.03775 0.00343533 0)
(1.03781 0.00853981 0)
(1.04171 0.0127181 0)
(1.04897 0.0160454 0)
(1.05999 0.018784 0)
(1.07627 0.0211391 0)
(1.09797 0.0231835 0)
(1.08331 0.0226185 0)
(0.901735 0.0146504 0)
(0.519203 0.00431986 0)
(0.103875 0.000244433 0)
(0.10558 -0.00012939 0)
(0.715815 -0.005949 0)
(1.01592 -0.0139864 0)
(1.10822 -0.0169368 0)
(1.0981 -0.0151121 0)
(1.07775 -0.0120857 0)
(1.06338 -0.00866655 0)
(1.05315 -0.00475414 0)
(1.046 -0.000297636 0)
(1.04183 0.00467764 0)
(1.04158 0.00942663 0)
(1.04517 0.0132495 0)
(1.05224 0.0161879 0)
(1.06325 0.0185316 0)
(1.07979 0.020582 0)
(1.09962 0.0223173 0)
(1.07291 0.0210933 0)
(0.87189 0.0129443 0)
(0.494753 0.00376215 0)
(0.0985925 0.000218003 0)
(0.102652 -9.28065e-05 0)
(0.695113 -0.0046847 0)
(0.999834 -0.011638 0)
(1.10782 -0.0147731 0)
(1.10313 -0.0132475 0)
(1.08266 -0.010251 0)
(1.06797 -0.00679157 0)
(1.05751 -0.00286925 0)
(1.05007 0.00145759 0)
(1.04553 0.00616346 0)
(1.04493 0.0105412 0)
(1.04827 0.0139558 0)
(1.05514 0.016558 0)
(1.06614 0.0186356 0)
(1.08283 0.0204334 0)
(1.10033 0.0217226 0)
(1.06095 0.0198335 0)
(0.843939 0.0116296 0)
(0.473241 0.00336084 0)
(0.0938926 0.00020038 0)
(0.100518 -5.86389e-05 0)
(0.678322 -0.00355985 0)
(0.985282 -0.00941136 0)
(1.10684 -0.0124516 0)
(1.10777 -0.0110585 0)
(1.08754 -0.00807119 0)
(1.07253 -0.00463643 0)
(1.06173 -0.000783587 0)
(1.05393 0.00342908 0)
(1.049 0.00796573 0)
(1.04792 0.0120767 0)
(1.05088 0.0151213 0)
(1.05759 0.0173305 0)
(1.06859 0.0190322 0)
(1.08532 0.0204677 0)
(1.09999 0.0213512 0)
(1.04774 0.0188126 0)
(0.817714 0.0106482 0)
(0.453901 0.00308234 0)
(0.0895976 0.000190258 0)
(0.0991221 -2.48607e-05 0)
(0.665183 -0.00250295 0)
(0.972651 -0.00723636 0)
(1.10577 -0.0100317 0)
(1.11237 -0.00868175 0)
(1.09244 -0.00561922 0)
(1.07704 -0.00214244 0)
(1.06587 0.00169801 0)
(1.05766 0.0058604 0)
(1.05219 0.0101701 0)
(1.05059 0.013886 0)
(1.05314 0.0165206 0)
(1.05956 0.0182731 0)
(1.07051 0.0195447 0)
(1.08736 0.0207042 0)
(1.09864 0.0212195 0)
(1.03354 0.0180559 0)
(0.792952 0.00993441 0)
(0.436148 0.00289756 0)
(0.0855622 0.000185856 0)
(0.0984516 9.82112e-06 0)
(0.655583 -0.00145447 0)
(0.962227 -0.00502269 0)
(1.10475 -0.00742981 0)
(1.11691 -0.00614033 0)
(1.09748 -0.00305186 0)
(1.08169 0.000577881 0)
(1.07014 0.004554 0)
(1.06141 0.00870963 0)
(1.05528 0.0128609 0)
(1.05302 0.0162523 0)
(1.05504 0.0184454 0)
(1.06113 0.0198114 0)
(1.07196 0.0207117 0)
(1.0888 0.0214412 0)
(1.09618 0.0213937 0)
(1.01835 0.0175497 0)
(0.76934 0.00944548 0)
(0.419499 0.00279453 0)
(0.0816545 0.000187479 0)
(0.0985253 4.1356e-05 0)
(0.649534 -0.00035909 0)
(0.95442 -0.00270457 0)
(1.10414 -0.00449377 0)
(1.12143 -0.00312231 0)
(1.10271 6.14517e-05 0)
(1.08654 0.00384812 0)
(1.07446 0.00793819 0)
(1.06511 0.0121134 0)
(1.05822 0.0161381 0)
(1.05513 0.0192053 0)
(1.05646 0.0209068 0)
(1.06212 0.0217235 0)
(1.07284 0.0220869 0)
(1.08939 0.0223946 0)
(1.09232 0.0217991 0)
(1.00229 0.017261 0)
(0.746641 0.00917364 0)
(0.403567 0.00276345 0)
(0.0777798 0.000193194 0)
(0.0994207 9.90408e-05 0)
(0.647191 0.000808214 0)
(0.949568 -0.000226984 0)
(1.10446 -0.00123042 0)
(1.12628 0.000436032 0)
(1.10813 0.00384657 0)
(1.09145 0.00779396 0)
(1.07875 0.0119973 0)
(1.06861 0.0162453 0)
(1.06074 0.0201577 0)
(1.05663 0.0228574 0)
(1.05717 0.0240367 0)
(1.06236 0.0242187 0)
(1.07292 0.0239842 0)
(1.08898 0.0237761 0)
(1.08709 0.0225506 0)
(0.985378 0.0173298 0)
(0.724425 0.0091307 0)
(0.387914 0.00281325 0)
(0.0738231 0.00020508 0)
(0.101276 0.000143321 0)
(0.648625 0.00195709 0)
(0.947938 0.00247491 0)
(1.10604 0.00238689 0)
(1.13167 0.00434453 0)
(1.11395 0.00799592 0)
(1.09672 0.0123025 0)
(1.08338 0.0168736 0)
(1.07234 0.0213133 0)
(1.06326 0.0250989 0)
(1.05795 0.0273515 0)
(1.05749 0.0279509 0)
(1.06194 0.0275186 0)
(1.07223 0.0267027 0)
(1.08754 0.0258071 0)
(1.08041 0.0237731 0)
(0.967351 0.0176983 0)
(0.702329 0.00931002 0)
(0.37216 0.00293582 0)
(0.0696797 0.000221548 0)
(0.104216 0.00020712 0)
(0.654661 0.00341906 0)
(0.950045 0.00547083 0)
(1.10918 0.00657323 0)
(1.13754 0.00896632 0)
(1.12033 0.0129807 0)
(1.10256 0.0177552 0)
(1.08831 0.0227001 0)
(1.07611 0.0273631 0)
(1.06559 0.0311468 0)
(1.0587 0.0330275 0)
(1.05703 0.0329264 0)
(1.06069 0.0317431 0)
(1.07054 0.0302369 0)
(1.08468 0.028545 0)
(1.07183 0.0254633 0)
(0.948088 0.0185041 0)
(0.67987 0.00976157 0)
(0.355876 0.0031392 0)
(0.0652581 0.00024169 0)
(0.108551 0.000293263 0)
(0.665577 0.00513101 0)
(0.956157 0.00887281 0)
(1.11458 0.0114307 0)
(1.14435 0.0145675 0)
(1.12739 0.0192132 0)
(1.10887 0.0245305 0)
(1.09348 0.0299451 0)
(1.07976 0.0348963 0)
(1.06739 0.0385608 0)
(1.0587 0.0398512 0)
(1.05567 0.0389764 0)
(1.05836 0.0369224 0)
(1.06767 0.0345816 0)
(1.08023 0.0321115 0)
(1.06124 0.027905 0)
(0.92723 0.0199308 0)
(0.656374 0.010565 0)
(0.338518 0.00344553 0)
(0.0604635 0.000265664 0)
(0.114583 0.000404699 0)
(0.681954 0.00718375 0)
(0.967191 0.0129359 0)
(1.12282 0.017024 0)
(1.15267 0.0210567 0)
(1.13552 0.0265544 0)
(1.11606 0.032627 0)
(1.09935 0.038695 0)
(1.08388 0.0440536 0)
(1.06931 0.0476469 0)
(1.05837 0.0483172 0)
(1.05357 0.0465201 0)
(1.05501 0.0434734 0)
(1.06362 0.0402119 0)
(1.07425 0.036883 0)
(1.04838 0.0313617 0)
(0.904195 0.0221334 0)
(0.630973 0.0118349 0)
(0.319362 0.00387905 0)
(0.05518 0.00029439 0)
(0.122742 0.000555357 0)
(0.70446 0.00978346 0)
(0.983548 0.0178281 0)
(1.13429 0.0236336 0)
(1.16278 0.028755 0)
(1.14497 0.0354123 0)
(1.12421 0.0425247 0)
(1.10567 0.0494594 0)
(1.08781 0.0552898 0)
(1.07045 0.0587869 0)
(1.05695 0.0586964 0)
(1.05019 0.055787 0)
(1.05028 0.0516538 0)
(1.05813 0.0473875 0)
(1.06653 0.0430393 0)
(1.03281 0.0360063 0)
(0.878365 0.0253076 0)
(0.602506 0.0136249 0)
(0.297546 0.0044448 0)
(0.0492576 0.000329142 0)
(0.133722 0.000774426 0)
(0.734128 0.0133334 0)
(1.00622 0.024042 0)
(1.14973 0.0319291 0)
(1.1753 0.0385354 0)
(1.15624 0.0467991 0)
(1.13377 0.055179 0)
(1.11283 0.0630422 0)
(1.09205 0.0692335 0)
(1.07138 0.0723427 0)
(1.05479 0.0711597 0)
(1.0457 0.0668781 0)
(1.04427 0.0614685 0)
(1.05113 0.0560915 0)
(1.05682 0.0506079 0)
(1.01422 0.0419704 0)
(0.848882 0.0294916 0)
(0.569681 0.0158616 0)
(0.272322 0.00510189 0)
(0.042578 0.000366622 0)
(0.148709 0.00111835 0)
(0.772731 0.0184584 0)
(1.03673 0.0323527 0)
(1.1703 0.0428382 0)
(1.19128 0.0517261 0)
(1.16975 0.0619122 0)
(1.14468 0.0716914 0)
(1.12043 0.0803565 0)
(1.09591 0.0865473 0)
(1.07132 0.0887231 0)
(1.05128 0.0858814 0)
(1.03973 0.0798799 0)
(1.03666 0.073017 0)
(1.04255 0.0663696 0)
(1.04474 0.059808 0)
(0.992121 0.0494135 0)
(0.814509 0.0345818 0)
(0.531329 0.018401 0)
(0.243231 0.00578419 0)
(0.035106 0.000401213 0)
(0.16981 0.00172215 0)
(0.823397 0.0263411 0)
(1.07788 0.0444637 0)
(1.19711 0.058208 0)
(1.21141 0.0700139 0)
(1.18567 0.0821076 0)
(1.15669 0.0931507 0)
(1.12813 0.102154 0)
(1.09908 0.107755 0)
(1.06997 0.108343 0)
(1.04622 0.103315 0)
(1.0321 0.0951803 0)
(1.02743 0.0865701 0)
(1.03208 0.0786476 0)
(1.03011 0.070715 0)
(0.965398 0.0582063 0)
(0.773923 0.0403244 0)
(0.486742 0.0210597 0)
(0.210351 0.0064048 0)
(0.0269729 0.000423267 0)
(0.200356 0.00306019 0)
(0.89183 0.0397208 0)
(1.13227 0.0641406 0)
(1.23031 0.0814357 0)
(1.23537 0.0960685 0)
(1.2034 0.109467 0)
(1.16912 0.120869 0)
(1.13522 0.129226 0)
(1.10098 0.13331 0)
(1.067 0.131628 0)
(1.03937 0.123982 0)
(1.0226 0.113481 0)
(1.01629 0.102849 0)
(1.01941 0.0932564 0)
(1.01195 0.0834297 0)
(0.932626 0.0679428 0)
(0.726132 0.0464607 0)
(0.436187 0.0236766 0)
(0.174801 0.0069216 0)
(0.0186191 0.000423501 0)
(0.242129 0.00922623 9.98643e-21)
(0.981974 0.0665185 8.54972e-21)
(1.1975 0.0980406 -2.97484e-21)
(1.26693 0.116528 0)
(1.26013 0.133844 -7.46467e-35)
(1.22078 0.146692 1.08853e-21)
(1.18048 0.156693 -1.95061e-21)
(1.14074 0.163121 0)
(1.10092 0.16471 3.98032e-35)
(1.06167 0.159974 -2.39225e-21)
(1.02973 0.149113 0)
(1.00994 0.136042 -2.8296e-21)
(1.00148 0.123471 -8.34036e-21)
(1.00235 0.112109 -3.93995e-21)
(0.988213 0.100253 -1.18666e-21)
(0.890219 0.0816605 -7.05499e-22)
(0.665894 0.0545965 0)
(0.377046 0.027186 4.95869e-22)
(0.137487 0.0082017 5.87568e-22)
(0.0107275 0.000596089 1.06967e-20)
(0.270644 0.0244202 7.43488e-21)
(1.05627 0.108897 1.05534e-22)
(1.25051 0.146604 8.00341e-22)
(1.30021 0.165175 0)
(1.28178 0.182347 -3.81866e-21)
(1.23566 0.193183 -4.32049e-21)
(1.18949 0.20113 -1.97575e-21)
(1.14374 0.20536 -7.00388e-21)
(1.09785 0.20431 0)
(1.05244 0.196226 1.0205e-20)
(1.01502 0.181677 1.01047e-20)
(0.991172 0.165459 3.00404e-21)
(0.979706 0.150612 1.09274e-20)
(0.976376 0.137706 1.53288e-20)
(0.952412 0.123619 0)
(0.833072 0.100182 2.16982e-20)
(0.595228 0.0657253 3.12348e-20)
(0.317396 0.032774 3.48002e-20)
(0.104507 0.0100496 -3.99568e-20)
(0.00425388 0.000444068 -7.58764e-22)
(0.271575 0.0407518 0)
(1.10312 0.163882 1.31635e-21)
(1.2866 0.206151 0)
(1.32618 0.225017 -5.06467e-21)
(1.29877 0.239069 0)
(1.24699 0.246356 -8.53829e-21)
(1.19527 0.250876 4.05318e-21)
(1.14366 0.251725 -1.4156e-20)
(1.09184 0.247152 -3.15507e-22)
(1.04044 0.235381 5.30368e-21)
(0.99774 0.217667 2.2297e-20)
(0.969966 0.199305 -6.07453e-23)
(0.95594 0.183238 -7.96308e-21)
(0.949264 0.169006 -1.45302e-20)
(0.916053 0.150899 1.72417e-20)
(0.789091 0.121088 -3.06186e-20)
(0.556765 0.0799798 -4.07019e-21)
(0.296117 0.0409437 0)
(0.0988175 0.0132219 4.53165e-25)
(0.00370874 0.000488724 0)
(0.264973 0.0546295 1.7954e-20)
(1.1281 0.222512 -8.60621e-21)
(1.30939 0.270551 -6.46576e-21)
(1.34343 0.28995 2.40994e-21)
(1.30982 0.300268 -4.04002e-21)
(1.25372 0.303455 1.79443e-20)
(1.19726 0.303835 8.48951e-21)
(1.14056 0.300578 0)
(1.08346 0.292135 -2.67002e-20)
(1.02685 0.276844 0)
(0.979552 0.256668 -1.17442e-20)
(0.948112 0.236895 -1.44801e-20)
(0.930744 0.219443 -8.70558e-21)
(0.918962 0.202376 -1.05887e-20)
(0.879348 0.179292 0)
(0.756015 0.144544 0)
(0.539874 0.0985491 -2.67062e-20)
(0.297582 0.0537242 5.29398e-21)
(0.106301 0.0189223 -3.10163e-21)
(0.00611873 0.00111168 -3.67293e-21)
(0.257467 0.0669311 -7.49552e-21)
(1.13882 0.280965 0)
(1.32228 0.335986 1.33883e-20)
(1.35311 0.356137 6.83048e-21)
(1.31509 0.362834 9.32301e-21)
(1.25564 0.361825 0)
(1.19534 0.357879 8.33873e-21)
(1.13451 0.350423 1.574e-20)
(1.07311 0.338113 1.37085e-20)
(1.01213 0.31946 2.50905e-20)
(0.96091 0.296591 0)
(0.925873 0.274662 -3.13041e-20)
(0.904203 0.254795 -1.88601e-20)
(0.886407 0.23444 -1.11497e-20)
(0.843427 0.208187 6.86532e-20)
(0.730022 0.17078 8.22279e-21)
(0.532389 0.120863 3.88494e-20)
(0.305978 0.0694874 -1.84379e-19)
(0.118549 0.0269892 1.09404e-19)
(0.0100847 0.0023979 -1.33544e-19)
(0.250428 0.0780171 -3.93653e-21)
(1.14045 0.337378 1.35913e-21)
(1.32784 0.400536 -1.47591e-21)
(1.35672 0.421701 -7.03311e-21)
(1.31547 0.424924 -7.94112e-21)
(1.25329 0.419743 3.5377e-22)
(1.18996 0.411588 -9.0367e-21)
(1.12584 0.400175 1.63041e-20)
(1.06097 0.384176 -2.95229e-20)
(0.996345 0.36203 0)
(0.941534 0.335822 -1.41926e-20)
(0.90294 0.310716 -3.2393e-22)
(0.876869 0.287855 -2.06491e-20)
(0.854062 0.264795 0)
(0.810533 0.237088 -1.488e-20)
(0.70748 0.198403 -3.55445e-20)
(0.527081 0.144757 9.56163e-20)
(0.314928 0.0869692 -9.43143e-20)
(0.130529 0.0363617 1.34284e-19)
(0.013945 0.00404411 -1.41322e-19)
(0.244609 0.0883171 -1.04421e-22)
(1.13637 0.391133 -5.49971e-22)
(1.32796 0.463179 -4.1898e-21)
(1.35548 0.485555 2.8545e-21)
(1.31183 0.485513 -3.99682e-21)
(1.24747 0.476303 0)
(1.18175 0.464248 -8.43554e-21)
(1.11501 0.449207 -1.70762e-20)
(1.04725 0.429689 -1.53524e-20)
(0.979347 0.40383 0)
(0.92118 0.373729 -1.47291e-20)
(0.879182 0.345061 -1.82391e-20)
(0.84929 0.319217 2.2397e-20)
(0.823021 0.294298 -1.36152e-20)
(0.78025 0.265633 -6.49087e-20)
(0.686835 0.225738 3.89028e-20)
(0.52074 0.168827 1.17207e-20)
(0.321059 0.104591 0)
(0.139649 0.045994 -1.29815e-19)
(0.0170763 0.00579949 -4.82082e-21)
(0.240105 0.0981482 1.13268e-22)
(1.12884 0.442118 1.02463e-23)
(1.32397 0.523449 1.95822e-21)
(1.35036 0.54707 1.00941e-20)
(1.30496 0.544012 -1.47622e-20)
(1.23897 0.53109 1.71873e-20)
(1.1714 0.515542 1.81383e-20)
(1.1025 0.497195 -2.72713e-20)
(1.03216 0.474298 9.45772e-21)
(0.961195 0.444557 -6.17166e-20)
(0.899797 0.410336 -1.66535e-20)
(0.854798 0.378149 0)
(0.821955 0.349699 2.42714e-20)
(0.793494 0.323417 2.90771e-20)
(0.751814 0.294197 3.48744e-20)
(0.66516 0.253039 -4.21814e-20)
(0.511615 0.192591 -1.2539e-20)
(0.32197 0.121705 1.4786e-20)
(0.144319 0.0549736 0)
(0.0190804 0.00741753 -1.04474e-20)
(0.23679 0.107625 -6.03254e-21)
(1.11954 0.490421 2.35953e-21)
(1.31709 0.581605 -1.71247e-21)
(1.34221 0.60592 6.09276e-21)
(1.29555 0.600121 -6.64373e-21)
(1.22841 0.583891 -8.20154e-22)
(1.15944 0.565296 -1.97827e-20)
(1.08869 0.543963 -9.85894e-21)
(1.01597 0.517794 -2.66537e-20)
(0.942046 0.484143 5.10095e-23)
(0.877591 0.445811 -5.21027e-20)
(0.829957 0.410242 4.39328e-20)
(0.794961 0.379394 -2.66162e-20)
(0.76528 0.351769 3.19887e-20)
(0.724735 0.321557 0)
(0.643146 0.278438 -2.28064e-20)
(0.49918 0.214377 -1.16219e-22)
(0.317856 0.136695 -6.42651e-20)
(0.144105 0.062195 -9.49061e-21)
(0.0197283 0.00858622 0)
(0.234569 0.116969 0)
(1.10946 0.536306 3.31459e-21)
(1.3079 0.636874 -1.29608e-21)
(1.33173 0.661933 -5.52564e-21)
(1.2842 0.653716 -8.39414e-21)
(1.21635 0.634627 0)
(1.1463 0.613397 -8.98991e-21)
(1.07392 0.589353 -2.35159e-22)
(0.998937 0.560063 5.70638e-20)
(0.922137 0.522587 -8.46815e-21)
(0.854764 0.480267 -3.76092e-20)
(0.804825 0.441406 2.28492e-20)
(0.768217 0.408199 -4.18651e-22)
(0.737766 0.378952 3.3983e-20)
(0.698057 0.347253 2.10092e-20)
(0.620305 0.301558 -4.92309e-20)
(0.48382 0.233292 5.86033e-20)
(0.308881 0.148771 1.73937e-20)
(0.140134 0.0671363 7.205e-20)
(0.0192451 0.00921219 -1.94968e-19)
(0.233369 0.126314 -3.07069e-21)
(1.09934 0.579988 3.46102e-21)
(1.29721 0.689343 -1.83673e-21)
(1.31957 0.71506 4.19599e-21)
(1.27144 0.704746 0)
(1.20323 0.683247 -7.83872e-21)
(1.13234 0.659746 3.01036e-20)
(1.05848 0.633242 2.15492e-20)
(0.981335 0.601018 0)
(0.901724 0.559901 -1.21826e-19)
(0.831529 0.513744 1.01593e-19)
(0.779503 0.471633 0)
(0.741591 0.435938 3.1016e-20)
(0.710627 0.404806 -4.12245e-22)
(0.671454 0.371225 -6.69764e-20)
(0.596308 0.32246 2.62874e-20)
(0.465194 0.249234 0)
(0.295641 0.157656 9.37307e-20)
(0.132494 0.0696783 0)
(0.0177244 0.00926378 -9.21138e-20)
(0.23299 0.1357 3.99253e-21)
(1.08956 0.621622 5.37247e-21)
(1.28551 0.739036 -1.61693e-21)
(1.30625 0.765333 0)
(1.25774 0.753226 -6.99511e-21)
(1.18941 0.729721 0)
(1.11784 0.704254 -2.96651e-20)
(1.04263 0.675525 -9.99819e-21)
(0.963418 0.640595 1.00416e-20)
(0.881053 0.596094 -6.02399e-20)
(0.808063 0.546271 1.04864e-20)
(0.754009 0.500881 0)
(0.714957 0.4625 -6.61954e-20)
(0.683581 0.429165 4.17088e-22)
(0.644726 0.393196 0)
(0.571229 0.340711 4.12837e-22)
(0.443639 0.261636 8.5173e-20)
(0.27852 0.162874 -8.09516e-20)
(0.121937 0.0699902 2.39701e-20)
(0.0155526 0.00880857 0)
(0.233069 0.14499 0)
(1.08038 0.661243 7.06098e-21)
(1.27327 0.786037 3.66762e-21)
(1.29224 0.8128 -4.86418e-22)
(1.24348 0.799187 -2.29114e-21)
(1.17519 0.774029 -1.7403e-20)
(1.10308 0.746858 1.10856e-20)
(1.02661 0.716126 -1.17797e-20)
(0.945422 0.678746 4.47778e-20)
(0.860337 0.631171 -9.6121e-20)
(0.784498 0.577871 -7.18502e-22)
(0.728369 0.529148 -2.90228e-20)
(0.688196 0.487846 1.07317e-19)
(0.656439 0.451958 -4.88119e-22)
(0.617653 0.413084 -5.18723e-20)
(0.544886 0.356174 -9.29529e-20)
(0.419504 0.27052 0)
(0.258222 0.164529 0)
(0.109156 0.0679729 2.58639e-20)
(0.0129543 0.00789492 -1.53465e-20)
(0.233787 0.154306 6.30825e-21)
(1.0719 0.698879 -1.67243e-20)
(1.26084 0.830446 -4.00983e-21)
(1.27791 0.857536 0)
(1.22896 0.842662 -3.26319e-22)
(1.16083 0.816151 -1.57879e-20)
(1.08826 0.787507 2.66807e-20)
(1.01064 0.754994 4.62995e-20)
(0.927555 0.715448 5.81074e-20)
(0.839775 0.665141 -7.84291e-20)
(0.760986 0.608595 -8.70791e-20)
(0.702615 0.556504 7.7598e-20)
(0.661231 0.512003 0)
(0.629043 0.473176 -2.35231e-20)
(0.590099 0.430858 -5.61442e-20)
(0.517329 0.368744 -6.67415e-20)
(0.393035 0.27566 -7.94725e-20)
(0.235481 0.162653 2.3573e-20)
(0.0947628 0.0636838 -1.3916e-20)
(0.0100193 0.00655947 5.85418e-23)
(0.234756 0.163454 0)
(1.06415 0.734929 0)
(1.24842 0.872364 5.39817e-22)
(1.26352 0.899637 0)
(1.21444 0.883716 4.68308e-21)
(1.14653 0.856098 1.0564e-20)
(1.07358 0.826177 0)
(0.994888 0.792105 5.47466e-21)
(0.910013 0.750688 9.67739e-20)
(0.81956 0.698017 -1.80208e-19)
(0.73768 0.638513 0)
(0.676817 0.583066 -4.98739e-20)
(0.633997 0.535077 -5.90956e-22)
(0.601244 0.492836 -4.76858e-22)
(0.561958 0.446421 5.996e-20)
(0.488591 0.378244 -7.29225e-23)
(0.364316 0.276953 -1.71083e-19)
(0.21068 0.157204 5.07245e-20)
(0.079811 0.0576572 1.50475e-20)
(0.00708814 0.00498237 0)
(0.235737 0.172495 -2.71582e-20)
(1.05687 0.769378 -1.23163e-20)
(1.23614 0.911855 -1.44713e-20)
(1.24931 0.939205 9.45019e-21)
(1.20011 0.9224 4.93691e-21)
(1.13244 0.893884 0)
(1.05918 0.862866 1.59454e-20)
(0.979525 0.827453 -1.2176e-20)
(0.892957 0.784465 7.86588e-22)
(0.799873 0.729824 1.32636e-20)
(0.714745 0.6677 1.12546e-19)
(0.65106 0.608986 -1.74911e-20)
(0.606425 0.557249 -6.60711e-20)
(0.572847 0.510976 -2.7402e-20)
(0.533056 0.459591 3.26456e-20)
(0.458767 0.384344 -3.66435e-23)
(0.334327 0.274255 4.61423e-20)
(0.185225 0.148664 -1.09142e-19)
(0.0650205 0.0503715 1.29532e-19)
(0.00431728 0.0032951 1.91222e-20)
(0.236499 0.181308 1.05917e-20)
(1.05003 0.802296 -7.14576e-21)
(1.22415 0.949045 1.28248e-21)
(1.23543 0.976369 7.61004e-21)
(1.18612 0.958801 3.53632e-22)
(1.11871 0.929543 -1.80931e-20)
(1.0452 0.897591 4.57719e-21)
(0.964675 0.86104 -5.06547e-20)
(0.876531 0.816772 -1.06303e-19)
(0.780865 0.760559 -1.07206e-19)
(0.692343 0.696221 0)
(0.62544 0.634429 -7.66678e-20)
(0.578481 0.57876 9.5134e-20)
(0.543601 0.527707 0)
(0.503091 0.470102 -6.98816e-20)
(0.427894 0.386487 4.19015e-20)
(0.303748 0.267265 -4.95877e-20)
(0.160342 0.137408 -5.87826e-20)
(0.0513076 0.0423993 -1.04383e-19)
(0.00187973 0.00163941 -8.24138e-20)
(0.237584 0.189972 -1.22772e-20)
(1.04348 0.833647 7.66027e-21)
(1.21251 0.983999 1.70765e-20)
(1.22197 1.01122 1.20606e-20)
(1.17257 0.992997 -3.80677e-23)
(1.10541 0.963133 -9.3928e-21)
(1.03172 0.930376 1.52595e-20)
(0.950437 0.892894 -5.18758e-20)
(0.860832 0.847622 -6.28206e-20)
(0.762669 0.790232 1.1195e-19)
(0.670622 0.724126 2.46777e-19)
(0.60009 0.659551 0)
(0.550191 0.599908 0)
(0.5132 0.543311 -3.15657e-20)
(0.471482 0.47771 0)
(0.395736 0.383729 9.0243e-20)
(0.273556 0.255193 1.06807e-19)
(0.137905 0.123553 0)
(0.039943 0.0343336 0)
(-6.85852e-05 0.000164895 8.86253e-20)
(0.238286 0.19815 1.42825e-20)
(1.03719 0.863407 1.12553e-20)
(1.20128 1.01683 1.25911e-20)
(1.209 1.04388 -1.2832e-20)
(1.15953 1.02508 -1.62707e-21)
(1.09263 0.994706 9.16007e-21)
(1.01882 0.961268 -2.07886e-20)
(0.936885 0.923035 2.54663e-23)
(0.84595 0.877015 -1.02421e-21)
(0.745391 0.818834 -1.11142e-21)
(0.649747 0.751453 1.27026e-19)
(0.575184 0.684473 0)
(0.521653 0.621001 9.61073e-20)
(0.481389 0.55826 6.72852e-20)
(0.437325 0.482518 1.63337e-19)
(0.361326 0.374873 4.85877e-20)
(0.244577 0.235806 -5.76405e-20)
(0.121624 0.105106 -3.39247e-20)
(0.0354809 0.0253911 0)
(-0.000514887 -0.000914675 9.5287e-20)
(0.239295 0.206326 -3.29834e-20)
(1.03113 0.891745 0)
(1.19043 1.0476 1.55077e-20)
(1.19655 1.07444 -1.14009e-20)
(1.14705 1.05513 4.20195e-21)
(1.08041 1.02433 -8.8792e-21)
(1.00655 0.990311 3.97813e-20)
(0.924066 0.951493 -4.33836e-21)
(0.831933 0.904959 0)
(0.729115 0.846328 -1.23199e-19)
(0.629879 0.778209 -2.75662e-19)
(0.550919 0.709299 1.12758e-20)
(0.493077 0.642293 1.32196e-19)
(0.448089 0.573169 0)
(0.399563 0.485356 1.10192e-19)
(0.32226 0.359372 0)
(0.214742 0.204769 0)
(0.115559 0.0699752 -3.68015e-20)
(0.0607983 0.00189254 0)
(0.0254965 0.0061137 2.55538e-20)
(0.239832 0.213895 -3.74283e-20)
(1.02525 0.918795 0)
(1.17995 1.0765 2.64039e-20)
(1.18457 1.10314 0)
(1.13511 1.08341 -3.21018e-21)
(1.06869 1.0523 0)
(0.994859 1.01782 1.88876e-21)
(0.911899 0.978611 7.0732e-21)
(0.818678 0.931827 7.85045e-21)
(0.713698 0.873105 -1.35049e-19)
(0.610877 0.804848 8.26621e-21)
(0.527095 0.734629 9.07128e-20)
(0.464155 0.664424 1.28936e-19)
(0.412655 0.588905 1.74045e-20)
(0.356596 0.488173 8.63275e-20)
(0.2741 0.338971 0)
(0.173536 0.16091 1.21988e-19)
(0.0915285 0.015503 -7.18221e-20)
(0.0328128 0.0571471 8.37428e-20)
(-0.0382442 0.449701 -9.94403e-20)
(0.240283 0.221276 3.13529e-20)
(1.01933 0.944477 4.67222e-20)
(1.16975 1.10386 0)
(1.17292 1.1304 1.09995e-21)
(1.1235 1.11049 1.06551e-20)
(1.05723 1.07928 7.3773e-21)
(0.983445 1.04459 1.34211e-20)
(0.899995 1.00535 0)
(0.805673 0.958734 5.17985e-20)
(0.698477 0.900483 -7.02069e-21)
(0.591844 0.83286 0)
(0.502547 0.762236 0)
(0.433315 0.689152 1.1504e-19)
(0.373236 0.606737 -5.36943e-20)
(0.305759 0.493683 -8.71281e-20)
(0.212845 0.318608 0)
(0.0976225 0.154892 6.204e-20)
(0.0090525 0.463481 -7.23802e-20)
(0.0334686 1.91354 -4.07321e-20)
(0.0605994 2.81759 -4.977e-20)
(0.24032 0.228052 -2.4025e-20)
(1.01341 0.968962 -6.08342e-20)
(1.15983 1.12966 1.61903e-20)
(1.16159 1.1561 1.25411e-20)
(1.11229 1.13617 0)
(1.04611 1.10502 2.64204e-21)
(0.972516 1.07032 1.77293e-20)
(0.888542 1.03127 -3.38113e-21)
(0.793192 0.985158 7.71014e-21)
(0.683835 0.927844 1.28133e-19)
(0.573401 0.861556 1.38573e-19)
(0.478271 0.791801 1.00823e-19)
(0.401584 0.716244 1.15281e-19)
(0.331726 0.625356 -1.2535e-19)
(0.25404 0.504631 -1.31053e-19)
(0.136887 0.353802 0)
(0.0466378 0.868263 0)
(0.0939098 2.57203 3.44417e-20)
(0.0960919 3.20513 0)
(0.0967484 3.38686 9.02452e-20)
(0.24312 0.23431 0)
(1.00772 0.992588 0)
(1.14991 1.15377 0)
(1.15036 1.18005 3.96657e-21)
(1.10121 1.16022 1.04276e-20)
(1.03512 1.12935 -1.08379e-21)
(0.962001 1.09491 1.11194e-20)
(0.877476 1.05625 -3.27497e-21)
(0.781173 1.01092 6.41288e-20)
(0.669765 0.955024 -2.01517e-21)
(0.555643 0.890726 2.72795e-19)
(0.454702 0.82337 -1.15909e-20)
(0.369168 0.746219 1.39257e-20)
(0.29058 0.642475 1.80892e-20)
(0.19317 0.525079 -2.14021e-22)
(0.103348 1.00921 3.33449e-22)
(0.133954 2.74498 -1.78603e-19)
(0.139448 3.29825 -6.81407e-20)
(0.128167 3.42462 3.6463e-20)
(0.115855 3.44486 -4.11928e-20)
(0.16531 0.179158 1.50004e-20)
(0.998032 1.01804 0)
(1.13989 1.17647 -3.44328e-20)
(1.13954 1.20252 -3.55229e-20)
(1.09069 1.18314 2.72422e-20)
(1.02491 1.15273 2.27828e-21)
(0.95169 1.11836 -1.10967e-20)
(0.866851 1.0803 3.57338e-20)
(0.769753 1.03604 -5.2439e-20)
(0.656543 0.982046 0)
(0.5389 0.920361 1.33912e-19)
(0.432421 0.85674 -8.18861e-20)
(0.336598 0.781864 0)
(0.244066 0.663661 1.72862e-20)
(0.146941 0.836167 4.18079e-20)
(0.148386 2.53933 -4.82753e-20)
(0.199165 3.33081 5.5352e-20)
(0.179672 3.43874 3.00941e-20)
(0.148352 3.45718 3.47849e-20)
(0.127888 3.46553 5.5715e-20)
(0.278867 0.273797 -2.88085e-20)
(0.98219 1.02956 0)
(1.12231 1.20256 3.79259e-20)
(1.12489 1.23576 4.07085e-20)
(1.07422 1.21729 -3.2406e-20)
(1.00805 1.1876 -7.64736e-21)
(0.933811 1.15468 8.72101e-21)
(0.848301 1.11778 2.78621e-21)
(0.749762 1.07556 4.92701e-20)
(0.633648 1.0253 1.09435e-19)
(0.51072 0.9693 7.50159e-21)
(0.395626 0.913289 7.21573e-20)
(0.280471 0.84314 1.29885e-20)
(0.211603 1.01135 -1.64886e-20)
(0.21788 2.40736 -3.79859e-20)
(0.268903 3.33885 3.81628e-20)
(0.252398 3.4688 -4.22407e-20)
(0.217314 3.48627 -2.4657e-20)
(0.182609 3.50973 -2.26132e-20)
(0.137014 3.5032 -3.33169e-21)
(0.269441 0.272929 0)
(0.980015 1.05297 1.13463e-20)
(1.11424 1.2263 -7.92272e-21)
(1.1146 1.25927 -4.96056e-21)
(1.06368 1.24079 -2.31633e-20)
(0.997681 1.21148 8.58082e-21)
(0.92316 1.17884 -3.79965e-21)
(0.837466 1.14275 2.45792e-21)
(0.738435 1.10194 -5.09129e-20)
(0.621093 1.05441 -2.9666e-21)
(0.49559 1.00287 -2.39613e-19)
(0.376141 0.951953 1.02554e-20)
(0.269956 0.919031 -1.2252e-20)
(0.246877 1.57233 -1.51487e-20)
(0.30677 3.14105 3.60937e-21)
(0.322065 3.47311 4.22732e-22)
(0.280134 3.52011 6.28306e-20)
(0.245478 3.54071 3.21794e-20)
(0.199274 3.5597 -1.08408e-20)
(0.148758 3.55485 -1.66694e-20)
(0.255383 0.271089 2.94381e-20)
(0.976974 1.07903 7.74575e-20)
(1.10582 1.25216 -2.27881e-20)
(1.10392 1.28434 -1.87819e-20)
(1.05279 1.26579 0)
(0.986974 1.23665 1.88642e-20)
(0.91241 1.20432 -2.24481e-21)
(0.826788 1.16897 2.10741e-21)
(0.727574 1.12965 -5.65653e-21)
(0.609527 1.08506 -9.7562e-20)
(0.482311 1.03845 -1.09864e-19)
(0.359552 0.993726 -8.41145e-20)
(0.273758 1.0618 -9.1372e-20)
(0.309181 2.29885 9.45067e-20)
(0.385207 3.39957 8.14173e-20)
(0.360193 3.53214 0)
(0.311138 3.56625 0)
(0.274187 3.59852 -8.38547e-21)
(0.2286 3.64351 0)
(0.15898 3.62568 -1.38255e-20)
(0.2454 0.273139 -4.44364e-20)
(0.971976 1.10603 -6.62239e-20)
(1.09608 1.27932 0)
(1.09208 1.31035 1.33133e-21)
(1.04076 1.29149 -2.63821e-20)
(0.975239 1.2624 3.25916e-20)
(0.900938 1.23037 5.19207e-22)
(0.81561 1.19569 1.06987e-21)
(0.716467 1.1578 -3.50375e-20)
(0.598127 1.11612 4.82616e-21)
(0.470012 1.07461 0)
(0.348871 1.04055 0)
(0.301078 1.34016 -8.2656e-20)
(0.384459 2.96363 3.38789e-20)
(0.449764 3.50266 4.36084e-20)
(0.398043 3.56742 0)
(0.3557 3.62133 -4.46525e-21)
(0.313737 3.66597 -4.10887e-21)
(0.263913 3.6303 -1.64217e-20)