/*--------------------------------*- C++ -*----------------------------------*\
  =========                 |
  \\      /  F ield         | OpenFOAM: The Open Source CFD Toolbox
   \\    /   O peration     | Website:  https://openfoam.org
    \\  /    A nd           | Version:  6
     \\/     M anipulation  |
\*---------------------------------------------------------------------------*/
FoamFile
{
    version     2.0;
    format      ascii;
    class       volScalarField;
    location    "101.4";
    object      p;
}
// * * * * * * * * * * * * * * * * * * * * * * * * * * * * * * * * * * * * * //

dimensions      [0 2 -2 0 0 0 0];

internalField   nonuniform List<scalar> 
8800
(
0.914528
0.865214
0.827251
0.799185
0.779029
0.76445
0.753862
0.746337
0.741472
0.739429
0.740829
0.745196
0.752009
0.761449
0.774196
0.791524
0.815407
0.848508
0.891448
0.943963
0.749015
0.755361
0.764514
0.768065
0.765461
0.759379
0.752447
0.746219
0.741435
0.73859
0.738389
0.741046
0.745712
0.751858
0.758971
0.766015
0.770901
0.770782
0.764112
0.755217
0.722517
0.728754
0.733258
0.737134
0.740089
0.741047
0.73997
0.737866
0.735909
0.7351
0.736166
0.73865
0.74156
0.743848
0.744383
0.742605
0.739248
0.735241
0.730464
0.726749
0.718195
0.720962
0.723573
0.725737
0.727482
0.729061
0.730179
0.730551
0.730465
0.730598
0.731443
0.732621
0.733391
0.733264
0.732306
0.730965
0.729306
0.727012
0.724607
0.723041
0.713111
0.714537
0.716381
0.71847
0.720192
0.721498
0.722614
0.723618
0.724459
0.725238
0.725997
0.7265
0.726559
0.726223
0.725577
0.72448
0.722838
0.720954
0.719606
0.718804
0.708083
0.708987
0.710239
0.711875
0.713581
0.71513
0.716435
0.717587
0.718691
0.719761
0.720605
0.721047
0.721101
0.720768
0.719993
0.718828
0.717485
0.716232
0.715418
0.714893
0.703127
0.703783
0.704751
0.70608
0.707543
0.70908
0.710592
0.711992
0.713303
0.714572
0.715596
0.716155
0.716229
0.715837
0.715092
0.714179
0.713211
0.712324
0.711751
0.711366
0.698238
0.698744
0.699537
0.700691
0.702011
0.703453
0.704996
0.706581
0.708153
0.709688
0.710933
0.711624
0.711773
0.711509
0.710992
0.710341
0.709636
0.708994
0.708575
0.708274
0.693361
0.693763
0.694431
0.695469
0.696722
0.698119
0.699665
0.70136
0.703164
0.705007
0.706534
0.707444
0.707809
0.707793
0.707533
0.707115
0.706625
0.706182
0.705876
0.705631
0.68841
0.688738
0.68932
0.690283
0.691498
0.692892
0.694486
0.696299
0.698323
0.700495
0.70239
0.70364
0.704321
0.704595
0.704594
0.704422
0.704141
0.703866
0.703645
0.703439
0.683295
0.683566
0.68409
0.685012
0.686219
0.687653
0.689339
0.691316
0.693602
0.69616
0.698515
0.7002
0.701264
0.701869
0.702153
0.702231
0.702164
0.702041
0.701889
0.70171
0.67792
0.678148
0.678636
0.679548
0.680788
0.682304
0.684128
0.686328
0.68895
0.691987
0.694902
0.697109
0.69862
0.699606
0.700213
0.700549
0.700709
0.70073
0.700636
0.700475
0.672188
0.672382
0.672852
0.673784
0.675099
0.676743
0.678763
0.681258
0.684307
0.687935
0.69153
0.694358
0.696395
0.697821
0.698796
0.69944
0.699828
0.699981
0.699935
0.699786
0.665987
0.666154
0.666624
0.667603
0.669034
0.670861
0.673145
0.67602
0.679603
0.683958
0.688373
0.691947
0.694608
0.696546
0.697946
0.698932
0.69957
0.699857
0.699853
0.69971
0.659188
0.659331
0.659817
0.660873
0.662466
0.664535
0.667164
0.67052
0.674765
0.680005
0.685412
0.689877
0.693279
0.695822
0.697709
0.699088
0.700008
0.700435
0.700469
0.700328
0.651637
0.651758
0.652272
0.653437
0.655242
0.657625
0.660692
0.66465
0.669711
0.676029
0.682629
0.688156
0.692434
0.695693
0.698161
0.699997
0.701234
0.701806
0.701874
0.701731
0.64314
0.643243
0.643792
0.645098
0.647178
0.649959
0.653575
0.658282
0.664347
0.671974
0.680005
0.686795
0.692107
0.696209
0.699376
0.701747
0.703339
0.704063
0.704162
0.704012
0.633407
0.633511
0.634129
0.635609
0.638043
0.641327
0.64563
0.651269
0.658568
0.667785
0.677525
0.68581
0.692342
0.697436
0.701422
0.704421
0.706416
0.707298
0.707422
0.707262
0.622137
0.622217
0.622923
0.624661
0.627541
0.631463
0.636634
0.643436
0.652258
0.663402
0.67518
0.685217
0.693177
0.699438
0.704368
0.708106
0.710544
0.711583
0.711725
0.711551
0.608913
0.608981
0.609797
0.611848
0.615294
0.620036
0.626312
0.634581
0.64529
0.65877
0.672965
0.685045
0.694649
0.702261
0.708293
0.712864
0.715775
0.71696
0.717109
0.716917
0.593121
0.593181
0.59415
0.596625
0.600818
0.606628
0.614337
0.624477
0.637539
0.65385
0.670886
0.685318
0.696794
0.705946
0.713223
0.718717
0.72211
0.723413
0.723553
0.723341
0.573921
0.573976
0.575171
0.578242
0.583454
0.590709
0.60032
0.612889
0.628907
0.648635
0.668973
0.686066
0.699644
0.710512
0.719153
0.725643
0.729479
0.730846
0.730956
0.730725
0.550067
0.550128
0.551678
0.555649
0.56233
0.571611
0.583834
0.599612
0.619354
0.643177
0.667289
0.687333
0.703209
0.715949
0.726052
0.733531
0.737708
0.739059
0.739115
0.738868
0.519613
0.519706
0.521874
0.527308
0.536294
0.54857
0.564493
0.584549
0.608951
0.6376
0.665943
0.689176
0.707502
0.722197
0.73383
0.742182
0.746512
0.747739
0.747722
0.747466
0.479262
0.479494
0.482945
0.491085
0.503979
0.520923
0.542139
0.56783
0.59793
0.632123
0.665087
0.691686
0.712522
0.729212
0.742315
0.751289
0.755493
0.756479
0.75638
0.756126
0.42272
0.423908
0.430822
0.444623
0.464362
0.488545
0.517111
0.549922
0.586712
0.627041
0.664891
0.694944
0.71828
0.73688
0.751259
0.760447
0.764176
0.76484
0.764669
0.76443
0.340869
0.348916
0.364872
0.389081
0.419067
0.452948
0.490448
0.53139
0.575534
0.622474
0.665526
0.699279
0.725325
0.745949
0.761256
0.770199
0.773237
0.773581
0.773373
0.773178
0.253515
0.271204
0.297136
0.332528
0.373324
0.417011
0.46341
0.512529
0.564238
0.618234
0.667138
0.705197
0.734503
0.757319
0.773308
0.781261
0.7833
0.783367
0.783196
0.783077
0.178445
0.200098
0.234356
0.279313
0.32967
0.38259
0.43764
0.494762
0.553802
0.614467
0.668731
0.710628
0.742716
0.767236
0.783211
0.789909
0.791222
0.791199
0.791072
0.790989
0.116665
0.140734
0.180707
0.232525
0.290333
0.350935
0.413578
0.477991
0.543822
0.61067
0.66983
0.715161
0.749629
0.775386
0.791126
0.796957
0.797915
0.797863
0.797759
0.79769
0.0652509
0.0907871
0.134897
0.192032
0.255776
0.322655
0.391712
0.462496
0.534424
0.60691
0.670546
0.718973
0.755559
0.782376
0.797848
0.803023
0.803767
0.803695
0.803602
0.803535
0.0216099
0.0480086
0.0951732
0.1566
0.22531
0.297517
0.372088
0.448452
0.525837
0.60344
0.671158
0.722386
0.760835
0.788478
0.803644
0.808337
0.808954
0.808869
0.808777
0.808708
-0.0163388
0.0106163
0.0601552
0.125135
0.198082
0.274927
0.354381
0.435759
0.518114
0.60042
0.671865
0.725577
0.76559
0.793823
0.808654
0.812999
0.813546
0.813457
0.813364
0.813288
-0.0501133
-0.02274
0.0287412
0.0967489
0.173376
0.254306
0.338159
0.424139
0.511123
0.597848
0.67275
0.728675
0.769962
0.798548
0.813004
0.817086
0.817607
0.817535
0.817453
0.817368
-0.0807775
-0.0530404
7.90288e-05
0.0707344
0.150612
0.235189
0.323037
0.413284
0.504661
0.595632
0.673841
0.7318
0.774135
0.802859
0.816885
0.82075
0.821278
0.821257
0.821204
0.821117
-0.109182
-0.0810761
-0.0264956
0.0465539
0.129331
0.21719
0.308698
0.402937
0.498522
0.59367
0.675162
0.735083
0.778324
0.80703
0.820579
0.824243
0.824798
0.824858
0.824857
0.824773
-0.135763
-0.10733
-0.0514188
0.0237781
0.10917
0.200011
0.294889
0.392881
0.492534
0.591867
0.676739
0.738654
0.782755
0.811356
0.824409
0.827873
0.828456
0.828606
0.828669
0.828595
-0.161049
-0.132212
-0.0750725
0.00208777
0.0898497
0.18341
0.28141
0.382941
0.486544
0.590114
0.678572
0.74263
0.787619
0.816081
0.828644
0.831897
0.832485
0.83271
0.832836
0.832778
-0.185217
-0.155977
-0.0976875
-0.0187413
0.0711668
0.167215
0.268104
0.372971
0.480407
0.588296
0.680634
0.747092
0.793048
0.821367
0.833425
0.836439
0.837001
0.837272
0.837446
0.837406
-0.208462
-0.178803
-0.119443
-0.0388616
0.0529926
0.151305
0.254856
0.362851
0.473991
0.586266
0.682828
0.752087
0.799154
0.827289
0.83876
0.841493
0.841991
0.842273
0.842473
0.842449
-0.230925
-0.200805
-0.140443
-0.0583659
0.0352312
0.135599
0.241592
0.352503
0.467186
0.583867
0.685019
0.757607
0.806058
0.833891
0.844589
0.846929
0.847337
0.847607
0.847806
0.847793
-0.252718
-0.222096
-0.160739
-0.0773088
0.0178466
0.120055
0.228269
0.341867
0.459904
0.58094
0.687021
0.763585
0.813904
0.841364
0.850876
0.852535
0.852826
0.853111
0.853289
0.853264
-0.273753
-0.242657
-0.180356
-0.0957313
0.000812342
0.104669
0.21487
0.330923
0.452088
0.577366
0.68862
0.769885
0.822818
0.850051
0.857807
0.858168
0.858153
0.858595
0.858919
0.858896
-0.294047
-0.262503
-0.199327
-0.11364
-0.0158675
0.0894456
0.201418
0.319668
0.443714
0.573032
0.689597
0.776269
0.832831
0.860442
0.866118
0.86423
0.863231
0.864011
0.865044
0.865247
-0.313689
-0.281636
-0.217669
-0.131039
-0.032171
0.0744191
0.187948
0.308132
0.434776
0.567864
0.689721
0.782433
0.843795
0.872973
0.87707
0.872306
0.869217
0.870128
0.87275
0.874151
-0.332563
-0.300057
-0.235356
-0.147894
-0.0480749
0.0596375
0.174511
0.29637
0.425313
0.561839
0.688787
0.787998
0.855334
0.887608
0.891597
0.884641
0.878733
0.877736
0.88036
0.882163
-0.350771
-0.317801
-0.252411
-0.164255
-0.0636324
0.0450445
0.161039
0.284305
0.41523
0.554854
0.686579
0.792618
0.867108
0.904
0.909803
0.902392
0.893703
0.886068
0.878269
0.881582
-0.368265
-0.334933
-0.268985
-0.180324
-0.0791384
0.0303208
0.147138
0.271485
0.404034
0.54636
0.68256
0.795703
0.878982
0.922128
0.931139
0.924941
0.912657
0.897057
0.874206
0.877376
-0.384939
-0.351457
-0.284935
-0.195924
-0.0943481
0.0157454
0.132976
0.258183
0.39194
0.53645
0.676481
0.796059
0.889367
0.940127
0.951313
0.944995
0.928942
0.896461
0.840753
0.817878
-0.400698
-0.368406
-0.299868
-0.210628
-0.10846
0.00180513
0.118829
0.244667
0.379209
0.525251
0.668246
0.792775
0.8963
0.955786
0.964108
0.951656
0.922689
0.863224
0.800675
0.763068
-0.442447
-0.385155
-0.313488
-0.225406
-0.122249
-0.0125103
0.104846
0.230795
0.365594
0.512327
0.657222
0.784785
0.895768
0.962898
0.965088
0.931287
0.866154
0.791265
0.719464
0.679767
-0.415773
-0.396864
-0.334123
-0.245411
-0.143691
-0.034058
0.0827982
0.208465
0.343004
0.489543
0.634897
0.763442
0.869106
0.943571
0.910167
0.780899
0.677813
0.606225
0.537412
0.557788
-0.445468
-0.413441
-0.349814
-0.261518
-0.160149
-0.0505936
0.0665977
0.191827
0.325704
0.471122
0.614787
0.740471
0.835031
0.876249
0.805228
0.648429
0.527556
0.445963
0.359232
0.397439
-0.468119
-0.433804
-0.368486
-0.28013
-0.178793
-0.0691845
0.0480062
0.172612
0.30539
0.448822
0.589117
0.708786
0.790999
0.794209
0.668069
0.499129
0.359929
0.259491
0.160047
0.184484
-0.489964
-0.454694
-0.388086
-0.29911
-0.197692
-0.0881603
0.0285815
0.152338
0.283693
0.424522
0.560038
0.66997
0.734437
0.703453
0.52727
0.339372
0.171746
0.0321507
-0.0962251
-0.0910544
-0.511406
-0.475841
-0.408407
-0.318891
-0.217356
-0.108034
0.00807285
0.130767
0.260306
0.397917
0.527321
0.626944
0.669736
0.587302
0.38793
0.182106
-0.0100472
-0.167801
-0.374036
-0.454592
-0.533137
-0.497725
-0.429853
-0.339989
-0.23834
-0.129223
-0.013728
0.1078
0.235283
0.3692
0.491572
0.58161
0.594894
0.461565
0.259961
0.0440398
-0.15214
-0.315289
-0.438547
-0.551903
-0.556215
-0.520821
-0.452776
-0.362787
-0.261182
-0.152399
-0.0376559
0.0824634
0.207434
0.33689
0.45148
0.527713
0.511329
0.341869
0.139727
-0.0696412
-0.249005
-0.347674
-0.373585
-0.386649
-0.580785
-0.545425
-0.477303
-0.387371
-0.286026
-0.17779
-0.0640954
0.054228
0.176117
0.300167
0.406199
0.463058
0.425272
0.226682
0.0270121
-0.16186
-0.29757
-0.336066
-0.344509
-0.344854
-0.607136
-0.571666
-0.503476
-0.413729
-0.312823
-0.205412
-0.0930863
0.0230158
0.141234
0.259016
0.35567
0.394462
0.320667
0.120809
-0.0719352
-0.236067
-0.312258
-0.326348
-0.32736
-0.327234
-0.635275
-0.59958
-0.531324
-0.441869
-0.341603
-0.235271
-0.124656
-0.0112111
0.102786
0.213552
0.299627
0.321407
0.208485
0.0242204
-0.157385
-0.287339
-0.316627
-0.317249
-0.317796
-0.317398
-0.664955
-0.629014
-0.560756
-0.471723
-0.372294
-0.267331
-0.158797
-0.0484482
0.0608236
0.163898
0.239242
0.240678
0.109627
-0.0637539
-0.22409
-0.29917
-0.313944
-0.311939
-0.31164
-0.311253
-0.695628
-0.659623
-0.59152
-0.503069
-0.40472
-0.301447
-0.195374
-0.0885864
0.0155775
0.11056
0.174844
0.159584
0.0194852
-0.140526
-0.268917
-0.307926
-0.307277
-0.307494
-0.307212
-0.306891
-0.726852
-0.690882
-0.623133
-0.5355
-0.438538
-0.337304
-0.234108
-0.131348
-0.0326497
0.054533
0.105422
0.083335
-0.0609725
-0.200946
-0.295216
-0.303514
-0.304748
-0.304959
-0.304797
-0.304559
-0.757651
-0.721931
-0.654882
-0.568389
-0.473201
-0.374424
-0.274533
-0.176232
-0.0834231
-0.00328789
0.0363161
0.00708493
-0.128995
-0.243191
-0.300257
-0.310242
-0.304729
-0.303651
-0.303232
-0.303017
-0.786379
-0.751502
-0.685737
-0.600858
-0.507933
-0.412101
-0.315968
-0.222488
-0.135936
-0.0624272
-0.0276393
-0.0708019
-0.183676
-0.275587
-0.298261
-0.301595
-0.302301
-0.301841
-0.301612
-0.301482
-0.811802
-0.778102
-0.714312
-0.631712
-0.541676
-0.44939
-0.357525
-0.269178
-0.188907
-0.122341
-0.0897519
-0.137697
-0.22468
-0.294491
-0.315523
-0.30506
-0.301413
-0.300283
-0.29999
-0.299857
-0.831313
-0.799647
-0.738865
-0.65944
-0.57312
-0.485102
-0.398089
-0.315215
-0.241022
-0.181213
-0.151333
-0.189828
-0.251361
-0.296488
-0.302194
-0.301634
-0.299939
-0.299388
-0.299221
-0.299056
-0.842908
-0.814066
-0.757346
-0.682315
-0.600747
-0.517853
-0.436343
-0.359327
-0.29118
-0.236428
-0.207657
-0.233106
-0.26675
-0.292498
-0.293261
-0.297744
-0.299768
-0.300049
-0.30003
-0.299935
-0.843927
-0.819012
-0.767686
-0.698507
-0.622933
-0.546185
-0.470856
-0.400034
-0.338146
-0.28729
-0.254729
-0.272388
-0.28105
-0.294108
-0.298373
-0.300107
-0.301432
-0.301819
-0.301893
-0.301908
-0.832006
-0.811855
-0.767765
-0.706298
-0.638221
-0.568735
-0.500292
-0.435845
-0.38013
-0.335025
-0.290123
-0.310247
-0.298237
-0.306133
-0.307452
-0.305309
-0.304422
-0.304476
-0.304661
-0.304724
-0.805062
-0.790359
-0.755786
-0.704487
-0.645583
-0.584508
-0.52365
-0.465662
-0.415318
-0.377849
-0.330056
-0.326898
-0.321238
-0.327372
-0.317625
-0.313196
-0.310286
-0.309727
-0.309794
-0.309767
-0.766564
-0.757201
-0.732998
-0.693384
-0.645062
-0.593269
-0.540386
-0.488848
-0.443267
-0.411412
-0.380222
-0.352409
-0.326579
-0.334649
-0.339305
-0.328276
-0.320605
-0.318687
-0.318881
-0.318819
-0.723539
-0.718198
-0.704313
-0.676095
-0.638756
-0.595904
-0.550572
-0.505159
-0.463544
-0.432651
-0.404442
-0.374695
-0.335458
-0.305343
-0.290345
-0.299448
-0.322206
-0.336622
-0.340716
-0.340937
-0.685729
-0.682461
-0.675829
-0.657901
-0.629531
-0.59421
-0.55528
-0.514548
-0.474862
-0.442349
-0.416131
-0.394423
-0.379225
-0.372989
-0.386519
-0.425028
-0.436867
-0.416529
-0.40551
-0.408679
-0.658501
-0.656564
-0.653196
-0.642606
-0.62102
-0.591281
-0.556448
-0.51787
-0.478141
-0.442054
-0.41353
-0.406031
-0.447336
-0.532881
-0.624483
-0.673015
-0.67817
-0.639225
-0.586055
-0.568378
-0.63855
-0.637865
-0.636728
-0.631491
-0.615732
-0.589644
-0.556016
-0.517352
-0.474663
-0.431552
-0.401519
-0.378206
-0.387658
-0.436051
-0.524389
-0.552332
-0.524477
-0.482273
-0.437132
-0.414189
-0.62692
-0.626693
-0.626074
-0.623659
-0.61297
-0.589053
-0.555106
-0.514334
-0.466987
-0.415042
-0.370911
-0.312269
-0.2407
-0.173405
-0.142345
-0.104182
-0.0508392
-0.00672627
0.0269258
0.0431342
-0.618933
-0.618785
-0.618374
-0.617679
-0.611161
-0.589666
-0.554761
-0.510475
-0.457795
-0.394204
-0.328286
-0.245926
-0.104157
0.0918694
0.289109
0.454808
0.546677
0.589435
0.602939
0.60733
-0.613781
-0.613736
-0.613615
-0.613453
-0.609577
-0.591499
-0.555648
-0.507169
-0.4485
-0.374101
-0.290563
-0.194097
-0.00884868
0.2498
0.512016
0.73872
0.89004
0.963938
0.9943
1.00409
-0.609639
-0.609634
-0.609563
-0.609449
-0.608056
-0.593836
-0.557888
-0.505679
-0.441455
-0.359781
-0.264514
-0.16211
0.0307687
0.309052
0.607474
0.872026
1.06379
1.17202
1.22176
1.23937
-0.606178
-0.606205
-0.606131
-0.605934
-0.605742
-0.595832
-0.561324
-0.507287
-0.438814
-0.353233
-0.252686
-0.148627
0.0325615
0.307375
0.609583
0.889997
1.11165
1.24153
1.29669
1.31203
-0.60354
-0.603592
-0.603651
-0.603716
-0.604155
-0.59712
-0.565985
-0.511547
-0.441679
-0.355001
-0.256079
-0.158244
-0.00677682
0.245311
0.515896
0.760618
0.962916
1.08794
1.13795
1.14975
-0.600927
-0.601062
-0.601313
-0.601723
-0.601939
-0.598007
-0.570783
-0.518584
-0.449749
-0.365095
-0.272327
-0.185525
-0.070096
0.138196
0.364428
0.557667
0.712864
0.807077
0.84397
0.852052
-0.599265
-0.599349
-0.599154
-0.598472
-0.597527
-0.595845
-0.574901
-0.527974
-0.462311
-0.381421
-0.296374
-0.220597
-0.132495
0.0288171
0.202227
0.342425
0.452658
0.517403
0.541087
0.545376
-0.600798
-0.600697
-0.599957
-0.597835
-0.594749
-0.593275
-0.580425
-0.540156
-0.477494
-0.401011
-0.32611
-0.260985
-0.197925
-0.0796078
0.0498401
0.149148
0.221959
0.263324
0.278285
0.280763
-0.605973
-0.606
-0.605916
-0.605504
-0.604471
-0.603686
-0.594743
-0.555626
-0.492937
-0.422863
-0.357415
-0.301014
-0.25177
-0.167618
-0.0758582
-0.00759662
0.0397467
0.0648081
0.0735914
0.075186
-0.611498
-0.612251
-0.614938
-0.62203
-0.632116
-0.636606
-0.62148
-0.57274
-0.507748
-0.445883
-0.388175
-0.337621
-0.299869
-0.235856
-0.169461
-0.123257
-0.0929414
-0.0770359
-0.070972
-0.0699275
-0.613101
-0.614437
-0.619492
-0.633849
-0.656442
-0.66663
-0.643216
-0.582271
-0.521918
-0.469407
-0.415089
-0.369848
-0.340578
-0.292313
-0.239595
-0.203085
-0.179972
-0.166963
-0.162342
-0.16167
-0.616069
-0.617042
-0.620351
-0.627105
-0.635343
-0.64375
-0.61809
-0.573285
-0.533391
-0.488009
-0.435346
-0.397595
-0.37343
-0.333048
-0.288422
-0.256557
-0.233946
-0.220925
-0.216497
-0.216297
-0.627233
-0.627634
-0.627586
-0.613053
-0.573482
-0.541261
-0.544814
-0.549325
-0.538522
-0.498671
-0.451387
-0.419793
-0.401109
-0.362679
-0.320237
-0.290038
-0.267744
-0.25505
-0.251061
-0.251281
-0.64473
-0.644039
-0.640243
-0.612249
-0.547391
-0.492228
-0.506371
-0.548855
-0.548545
-0.508076
-0.46202
-0.436142
-0.417051
-0.382318
-0.343386
-0.313936
-0.291648
-0.278928
-0.274939
-0.275384
-0.677032
-0.67399
-0.67411
-0.668965
-0.650166
-0.614593
-0.606704
-0.612724
-0.58354
-0.519606
-0.471887
-0.445041
-0.422677
-0.387594
-0.351748
-0.325161
-0.305258
-0.294194
-0.290621
-0.291119
-0.76508
-0.769281
-0.798127
-0.839771
-0.859325
-0.840236
-0.797888
-0.727856
-0.628683
-0.532919
-0.480739
-0.444035
-0.418726
-0.385179
-0.351629
-0.326644
-0.308816
-0.299418
-0.296323
-0.296835
-0.891192
-0.905969
-0.945602
-0.988165
-1.00825
-0.991813
-0.929962
-0.812065
-0.658723
-0.5428
-0.476992
-0.431676
-0.403835
-0.371313
-0.339776
-0.316746
-0.301272
-0.293251
-0.290455
-0.290855
-0.957578
-0.972299
-1.00149
-1.03085
-1.04693
-1.03093
-0.961659
-0.808962
-0.642667
-0.528824
-0.45156
-0.403844
-0.378616
-0.345414
-0.31441
-0.293078
-0.27928
-0.272077
-0.269619
-0.27002
-0.913219
-0.923468
-0.94414
-0.966759
-0.981047
-0.96824
-0.899502
-0.738802
-0.589958
-0.481153
-0.400886
-0.36234
-0.338492
-0.305738
-0.276694
-0.256707
-0.243296
-0.236028
-0.233783
-0.234305
-0.765916
-0.77594
-0.794855
-0.817894
-0.835425
-0.826346
-0.755995
-0.625161
-0.508361
-0.404157
-0.337749
-0.307436
-0.283013
-0.253882
-0.228994
-0.210407
-0.19652
-0.18892
-0.187022
-0.187806
-0.545909
-0.557083
-0.577917
-0.604146
-0.626278
-0.620499
-0.561313
-0.473113
-0.385437
-0.309388
-0.267124
-0.238377
-0.219892
-0.197237
-0.17563
-0.158555
-0.145875
-0.139182
-0.13787
-0.138842
-0.288197
-0.297557
-0.31878
-0.350589
-0.379716
-0.383515
-0.351828
-0.302918
-0.250346
-0.210125
-0.182881
-0.163408
-0.156244
-0.138941
-0.121211
-0.107814
-0.0975333
-0.0926372
-0.0922102
-0.0932122
-0.0754557
-0.0851717
-0.106402
-0.13466
-0.161323
-0.175064
-0.170121
-0.153256
-0.130326
-0.111895
-0.0957016
-0.0909764
-0.0910422
-0.0774687
-0.0671163
-0.0591782
-0.0527338
-0.0503869
-0.0508373
-0.0517439
0.0231581
0.0171503
0.00578459
-0.00822661
-0.0207011
-0.0281651
-0.032852
-0.0327819
-0.0282389
-0.0249736
-0.0213183
-0.01949
-0.018024
-0.0168225
-0.0150879
-0.0157869
-0.0159544
-0.0162148
-0.0138772
-0.0128147
0.0332326
0.216679
0.384153
0.524967
0.635796
0.721353
0.79134
0.847956
0.86133
0.858536
0.310757
0.427618
0.536738
0.630348
0.708228
0.771802
0.82159
0.855198
0.873243
0.890252
0.498249
0.575619
0.65196
0.718609
0.775053
0.821702
0.858516
0.886823
0.908181
0.927481
0.636984
0.692095
0.747392
0.796899
0.839562
0.875897
0.906504
0.932254
0.952107
0.971021
0.749711
0.791261
0.832417
0.870987
0.905503
0.936095
0.962912
0.985747
1.0035
1.0216
0.843984
0.878598
0.912636
0.945312
0.975498
1.0029
1.02718
1.04766
1.06322
1.08072
0.930489
0.961791
0.993327
1.02387
1.05233
1.07824
1.101
1.11969
1.13344
1.15044
1.01627
1.04846
1.08045
1.11128
1.13974
1.16524
1.18714
1.20449
1.21674
1.23324
1.10998
1.14626
1.1808
1.21303
1.24198
1.26713
1.28808
1.30424
1.31575
1.33186
1.22274
1.26347
1.3003
1.33298
1.36127
1.38511
1.40462
1.41981
1.43163
1.44767
1.36417
1.405
1.44014
1.46956
1.49463
1.51616
1.53459
1.55003
1.5631
1.57902
1.53543
1.56735
1.59429
1.61663
1.63667
1.65535
1.67305
1.6898
1.70468
1.72039
1.72145
1.73863
1.7557
1.77237
1.78846
1.80318
1.81706
1.83152
1.84674
1.86404
1.90482
1.91472
1.92788
1.93885
1.94825
1.95791
1.9685
1.97866
1.98794
2.01361
2.1226
2.11689
2.10394
2.08969
2.08338
2.08907
2.10721
2.13573
2.16949
2.20582
2.42542
2.28948
2.20996
2.1674
2.15006
2.15405
2.18148
2.23934
2.34699
2.5254
0.818219
0.811918
0.804191
0.793081
0.779518
0.76688
0.756499
0.748511
0.742828
0.739545
0.739257
0.74215
0.747432
0.754826
0.764401
0.77625
0.789825
0.802764
0.811759
0.819303
0.727272
0.733192
0.741269
0.747408
0.750485
0.749986
0.746917
0.742948
0.739397
0.737164
0.737097
0.739417
0.743224
0.74771
0.751841
0.754107
0.753049
0.748423
0.741375
0.733545
0.720493
0.722866
0.726139
0.72892
0.731381
0.733585
0.734786
0.734668
0.733773
0.733024
0.733314
0.734804
0.736647
0.737922
0.737881
0.73644
0.734301
0.731953
0.728981
0.725967
0.715665
0.716754
0.718676
0.721024
0.722909
0.724326
0.725569
0.726596
0.727245
0.72769
0.728332
0.729164
0.729702
0.729638
0.729052
0.728161
0.726853
0.724901
0.722806
0.721332
0.710589
0.711223
0.712358
0.714127
0.715988
0.717603
0.718884
0.719989
0.721029
0.722008
0.722897
0.723523
0.723745
0.723604
0.723118
0.722183
0.720785
0.719197
0.717874
0.717076
0.705598
0.706036
0.706831
0.70815
0.709692
0.711283
0.712797
0.714143
0.715366
0.716549
0.717626
0.718353
0.718635
0.71848
0.717879
0.716928
0.715812
0.714695
0.713809
0.713279
0.70068
0.701006
0.701626
0.702712
0.704033
0.705466
0.706988
0.708522
0.709995
0.711411
0.712707
0.713604
0.713957
0.713812
0.713293
0.71257
0.711771
0.710951
0.710309
0.709921
0.695807
0.69606
0.696561
0.697492
0.698695
0.700043
0.701518
0.703116
0.704793
0.706491
0.708066
0.709169
0.709666
0.709691
0.709406
0.708937
0.708363
0.707779
0.707321
0.707025
0.690904
0.691105
0.691523
0.692348
0.693479
0.694788
0.69626
0.697918
0.699755
0.701727
0.703634
0.705041
0.70581
0.706109
0.70609
0.705867
0.705515
0.705134
0.70482
0.704587
0.685883
0.686044
0.686405
0.68716
0.688251
0.689552
0.691067
0.692827
0.694848
0.697112
0.699412
0.701232
0.702372
0.703001
0.703269
0.703302
0.703184
0.702991
0.702796
0.702611
0.680651
0.68078
0.6811
0.681814
0.682897
0.684234
0.685833
0.687743
0.690005
0.692629
0.69541
0.697737
0.699324
0.700335
0.700932
0.701245
0.701361
0.701354
0.701264
0.701115
0.67511
0.675214
0.675507
0.676206
0.677317
0.678735
0.680464
0.682582
0.685159
0.688235
0.691606
0.694544
0.696657
0.698113
0.699084
0.699704
0.700085
0.700262
0.700262
0.70014
0.669158
0.66924
0.669517
0.670227
0.671401
0.672942
0.674859
0.677255
0.680235
0.683875
0.687965
0.691637
0.694376
0.696353
0.697755
0.698745
0.699403
0.699764
0.699847
0.699745
0.662675
0.662737
0.663009
0.663751
0.665025
0.666739
0.668908
0.671666
0.675153
0.679487
0.684452
0.689006
0.692492
0.695085
0.696985
0.698385
0.699364
0.699928
0.700092
0.700006
0.655522
0.65556
0.655836
0.656635
0.658047
0.659989
0.662488
0.665704
0.669822
0.675007
0.681032
0.686646
0.691019
0.69434
0.696833
0.698706
0.700055
0.700837
0.70108
0.701006
0.647528
0.647546
0.647825
0.648702
0.650297
0.652532
0.655448
0.65924
0.664141
0.670367
0.677672
0.684552
0.689977
0.694157
0.697353
0.699798
0.701565
0.702586
0.702907
0.70284
0.638435
0.638444
0.63875
0.639732
0.641563
0.644169
0.647611
0.652121
0.657989
0.665489
0.674335
0.682723
0.689394
0.694586
0.69861
0.701736
0.703987
0.705267
0.705665
0.7056
0.627976
0.627958
0.628306
0.62944
0.631573
0.634652
0.638755
0.644164
0.65123
0.660287
0.67099
0.681161
0.689299
0.695682
0.700682
0.704595
0.707406
0.708966
0.709437
0.709369
0.61578
0.615742
0.616141
0.617462
0.619976
0.623661
0.628607
0.63515
0.643709
0.654672
0.667604
0.679879
0.689721
0.697491
0.703637
0.708454
0.711896
0.713746
0.71428
0.714204
0.601331
0.601271
0.60175
0.603326
0.606331
0.610799
0.61683
0.62482
0.635254
0.648558
0.664156
0.67889
0.690692
0.700049
0.707522
0.713367
0.717496
0.719629
0.720207
0.720114
0.583914
0.583831
0.58444
0.586373
0.590033
0.595545
0.603006
0.612877
0.625695
0.64188
0.660647
0.67822
0.692247
0.703397
0.712339
0.719337
0.72419
0.72657
0.727161
0.727044
0.562499
0.5624
0.563219
0.565674
0.570259
0.577216
0.586628
0.599004
0.614885
0.634621
0.657116
0.677909
0.694416
0.707543
0.718094
0.726337
0.731883
0.734432
0.734992
0.734844
0.535527
0.535429
0.536602
0.539867
0.545865
0.554934
0.567124
0.582917
0.602761
0.626838
0.653656
0.678025
0.697225
0.71248
0.724747
0.734257
0.74038
0.742966
0.743441
0.743259
0.500464
0.500422
0.502237
0.506907
0.515283
0.527694
0.543987
0.564489
0.589415
0.618702
0.650421
0.678676
0.70071
0.718183
0.732213
0.742906
0.749366
0.751805
0.752142
0.751928
0.452815
0.453009
0.45625
0.463889
0.476709
0.494636
0.517047
0.543923
0.575174
0.610517
0.647626
0.679986
0.704926
0.72461
0.74036
0.752008
0.758415
0.760488
0.760654
0.760421
0.384154
0.385651
0.39357
0.408082
0.42913
0.455865
0.48692
0.521909
0.560615
0.602688
0.645503
0.682053
0.709898
0.731683
0.748906
0.76106
0.766952
0.768473
0.76848
0.768259
0.302121
0.30502
0.320468
0.3456
0.377951
0.415058
0.455432
0.498928
0.545452
0.59475
0.643951
0.685448
0.716912
0.74137
0.760086
0.772172
0.777257
0.778294
0.778248
0.778118
0.217965
0.225509
0.248756
0.284485
0.327733
0.374994
0.424675
0.476698
0.531043
0.587511
0.64302
0.68937
0.724304
0.751368
0.771447
0.78294
0.7867
0.78718
0.787098
0.787023
0.148928
0.158639
0.186814
0.230038
0.281803
0.337631
0.395669
0.455649
0.517401
0.580632
0.641979
0.692708
0.730701
0.759794
0.780519
0.791206
0.794181
0.794483
0.794412
0.794364
0.0922072
0.102682
0.134613
0.183376
0.241559
0.304194
0.369203
0.436119
0.504535
0.573962
0.640666
0.695366
0.736068
0.766923
0.78808
0.798098
0.800551
0.800748
0.800688
0.800654
0.0445955
0.0554366
0.089954
0.143017
0.206411
0.274666
0.345524
0.4184
0.492697
0.567709
0.639301
0.697616
0.740765
0.773146
0.79458
0.804033
0.80614
0.806277
0.806218
0.806189
0.0036627
0.0146612
0.0510978
0.107596
0.175326
0.248385
0.324321
0.402437
0.481992
0.562075
0.63813
0.699719
0.745022
0.778654
0.800221
0.809196
0.811079
0.81118
0.811119
0.811089
-0.0323101
-0.0212634
0.0166663
0.0760025
0.147419
0.224646
0.30508
0.387925
0.472298
0.557074
0.637265
0.701816
0.748966
0.78357
0.805121
0.813683
0.815426
0.815515
0.815462
0.815431
-0.0645902
-0.053534
-0.0144248
0.0473517
0.121974
0.202871
0.287333
0.374502
0.463365
0.552591
0.636703
0.703996
0.752748
0.78806
0.809444
0.817624
0.819277
0.819389
0.819366
0.819342
-0.0942124
-0.0831292
-0.0429818
0.0209562
0.0984303
0.182595
0.270693
0.361848
0.454944
0.548463
0.636405
0.706335
0.756533
0.792352
0.813436
0.821239
0.822829
0.822994
0.823031
0.823029
-0.121763
-0.110642
-0.0695716
-0.00368934
0.0763336
0.16344
0.254855
0.349707
0.44682
0.544535
0.636335
0.708917
0.760502
0.796705
0.817409
0.824832
0.826362
0.826599
0.826717
0.82675
-0.147739
-0.136569
-0.0946364
-0.0269844
0.0553399
0.145113
0.23957
0.337866
0.438818
0.540673
0.636441
0.711817
0.764829
0.801371
0.821655
0.828703
0.830165
0.830467
0.830666
0.830742
-0.172541
-0.161233
-0.118498
-0.0492122
0.0351995
0.12739
0.224647
0.326161
0.430776
0.536744
0.636658
0.715083
0.769647
0.80654
0.826394
0.833062
0.834427
0.834766
0.835029
0.835146
-0.196318
-0.184851
-0.141351
-0.0705753
0.0157307
0.110124
0.209948
0.314458
0.422563
0.532601
0.636875
0.718725
0.775054
0.812331
0.831725
0.837964
0.839198
0.839542
0.83984
0.839989
-0.219277
-0.207601
-0.163369
-0.0911973
-0.00318002
0.0932044
0.195373
0.30266
0.41407
0.528109
0.636944
0.722683
0.781145
0.818822
0.837631
0.843359
0.844415
0.844731
0.845031
0.845194
-0.241435
-0.229566
-0.184634
-0.111154
-0.0216005
0.0765719
0.180872
0.290708
0.405218
0.523136
0.636693
0.726842
0.787972
0.826177
0.84414
0.849101
0.849895
0.850184
0.850462
0.850615
-0.262909
-0.250807
-0.205158
-0.130485
-0.0395722
0.0601952
0.166413
0.278573
0.395954
0.517581
0.635936
0.731032
0.795553
0.83463
0.851453
0.855089
0.855369
0.855663
0.855997
0.85614
-0.28358
-0.271323
-0.224972
-0.149226
-0.0571035
0.044089
0.151997
0.266246
0.386254
0.511377
0.634499
0.735023
0.803816
0.844459
0.860021
0.861569
0.860685
0.860914
0.861637
0.861996
-0.303608
-0.291122
-0.24409
-0.167395
-0.0742063
0.0282445
0.137662
0.253745
0.37612
0.504489
0.632227
0.738542
0.812555
0.855863
0.870689
0.869653
0.866509
0.866143
0.8678
0.869103
-0.322883
-0.310165
-0.262531
-0.18498
-0.0908348
0.0127083
0.123446
0.241134
0.365587
0.496883
0.628999
0.741292
0.821437
0.868776
0.884159
0.881076
0.875036
0.872993
0.875491
0.878832
-0.341489
-0.328546
-0.280268
-0.201947
-0.106982
-0.00248327
0.109403
0.228453
0.354706
0.488606
0.624738
0.742947
0.83
0.882714
0.900352
0.896895
0.88864
0.883243
0.880514
0.875483
-0.35935
-0.346245
-0.297394
-0.218472
-0.122871
-0.0176051
0.0952143
0.215326
0.343078
0.479239
0.61906
0.743147
0.838138
0.897859
0.919446
0.91762
0.908427
0.897117
0.88449
0.884626
-0.376465
-0.363359
-0.313934
-0.234514
-0.138508
-0.0326362
0.0808898
0.201709
0.330632
0.46859
0.611646
0.741151
0.844723
0.913198
0.939468
0.940094
0.929274
0.915433
0.878609
0.841355
-0.39265
-0.379759
-0.329875
-0.249952
-0.153906
-0.0475982
0.0664062
0.187708
0.31739
0.45662
0.602255
0.73629
0.847978
0.926963
0.957817
0.956541