/*--------------------------------*- C++ -*----------------------------------*\
  =========                 |
  \\      /  F ield         | OpenFOAM: The Open Source CFD Toolbox
   \\    /   O peration     | Website:  https://openfoam.org
    \\  /    A nd           | Version:  6
     \\/     M anipulation  |
\*---------------------------------------------------------------------------*/
FoamFile
{
    version     2.0;
    format      ascii;
    class       volScalarField;
    location    "76.1";
    object      p;
}
// * * * * * * * * * * * * * * * * * * * * * * * * * * * * * * * * * * * * * //

dimensions      [0 2 -2 0 0 0 0];

internalField   nonuniform List<scalar> 
8800
(
0.879542
0.830226
0.792261
0.76419
0.744028
0.729438
0.718837
0.711292
0.7064
0.704322
0.705684
0.71002
0.716809
0.726229
0.738964
0.756284
0.78016
0.813258
0.856195
0.908709
0.714036
0.72038
0.72953
0.733078
0.730468
0.724377
0.717433
0.711187
0.70638
0.703503
0.703262
0.705883
0.71052
0.716645
0.723743
0.730776
0.735654
0.73553
0.728855
0.719957
0.687552
0.693787
0.698286
0.702156
0.705103
0.706049
0.704957
0.70283
0.700843
0.699995
0.701019
0.703466
0.706349
0.708617
0.709138
0.707349
0.703983
0.699971
0.69519
0.691474
0.683251
0.686017
0.688622
0.690779
0.692514
0.69408
0.695179
0.695526
0.695406
0.695496
0.696293
0.697431
0.698169
0.698017
0.697042
0.695688
0.69402
0.691718
0.689308
0.687742
0.678196
0.679621
0.68146
0.683539
0.68525
0.68654
0.687634
0.688609
0.689411
0.69014
0.690843
0.691299
0.69132
0.690956
0.690289
0.689175
0.687521
0.685628
0.684276
0.683473
0.673206
0.674109
0.675355
0.67698
0.678672
0.680201
0.681481
0.682599
0.683657
0.684666
0.685445
0.685832
0.685841
0.685474
0.684673
0.683487
0.682129
0.680865
0.680045
0.679521
0.668298
0.668954
0.669914
0.67123
0.672676
0.67419
0.675671
0.677031
0.678287
0.679485
0.68043
0.680923
0.680942
0.680508
0.679731
0.678793
0.677805
0.676904
0.676326
0.675941
0.663469
0.663974
0.664759
0.665898
0.667196
0.668611
0.670117
0.671654
0.67316
0.67461
0.675761
0.676371
0.676454
0.676138
0.67558
0.674898
0.674167
0.673508
0.673084
0.672784
0.658664
0.659065
0.659725
0.660744
0.661973
0.663337
0.664839
0.666476
0.668203
0.669943
0.671357
0.672167
0.67245
0.67237
0.672058
0.671601
0.671079
0.670616
0.670303
0.67006
0.653801
0.654128
0.654701
0.655644
0.656828
0.658183
0.659726
0.66147
0.663401
0.66545
0.667207
0.668335
0.668915
0.669109
0.669044
0.66882
0.668499
0.668202
0.667974
0.667769
0.648792
0.649063
0.649576
0.650475
0.651647
0.653034
0.654659
0.656554
0.658728
0.661139
0.663328
0.664864
0.665803
0.666308
0.666512
0.666528
0.666411
0.666258
0.666098
0.665921
0.643545
0.643773
0.644249
0.645133
0.646333
0.647794
0.649547
0.651649
0.654139
0.656998
0.659713
0.661738
0.663096
0.663959
0.664465
0.664725
0.66482
0.664804
0.664701
0.664543
0.637965
0.63816
0.638617
0.639518
0.640786
0.642367
0.644302
0.646682
0.649574
0.652991
0.656343
0.658951
0.6608
0.662073
0.662921
0.663458
0.663773
0.663885
0.663829
0.663683
0.631947
0.632115
0.632572
0.633517
0.634893
0.636646
0.638833
0.641573
0.644971
0.649074
0.653198
0.656504
0.658933
0.660681
0.661923
0.662786
0.663326
0.663562
0.663546
0.663408
0.625366
0.625512
0.625984
0.627003
0.628533
0.630519
0.633035
0.636235
0.640262
0.645204
0.650262
0.654402
0.657521
0.659831
0.661522
0.66274
0.663541
0.663909
0.663931
0.663796
0.61808
0.618203
0.618703
0.619826
0.621561
0.62385
0.626787
0.630565
0.635372
0.641338
0.647523
0.652658
0.656592
0.659563
0.661787
0.663421
0.664513
0.665017
0.665073
0.664937
0.609894
0.610003
0.610543
0.611802
0.613803
0.61648
0.619949
0.624448
0.630217
0.637431
0.644969
0.65129
0.656186
0.659934
0.662798
0.664919
0.666336
0.666983
0.66707
0.666929
0.600558
0.600662
0.601262
0.602696
0.605042
0.608209
0.612346
0.617746
0.624703
0.633435
0.642594
0.65032
0.656352
0.661016
0.664633
0.667323
0.669109
0.669906
0.670021
0.669872
0.589762
0.589849
0.590536
0.592213
0.594999
0.598791
0.603774
0.610302
0.618727
0.629304
0.640401
0.649779
0.657143
0.662886
0.667366
0.670729
0.672927
0.673877
0.674014
0.673853
0.577116
0.57719
0.577981
0.57997
0.583317
0.587914
0.593978
0.601932
0.612181
0.625002
0.6384
0.649706
0.658609
0.665604
0.671093
0.675224
0.677867
0.678966
0.679116
0.678939
0.562042
0.562108
0.563047
0.565451
0.569538
0.575189
0.582657
0.592434
0.604963
0.620509
0.636618
0.650149
0.660806
0.669231
0.675874
0.680859
0.683967
0.685198
0.68535
0.685154
0.543738
0.543797
0.544953
0.547946
0.553045
0.56012
0.569454
0.5816
0.596996
0.615835
0.635102
0.651156
0.663786
0.673814
0.681727
0.687648
0.691209
0.692536
0.692672
0.692456
0.521009
0.521073
0.522579
0.526457
0.533011
0.542088
0.553981
0.569254
0.588262
0.611049
0.633931
0.652787
0.667586
0.679372
0.688657
0.695541
0.699491
0.700852
0.70095
0.700716
0.492029
0.492124
0.494233
0.499541
0.508359
0.520386
0.535897
0.55534
0.578867
0.606307
0.633237
0.655127
0.672235
0.685872
0.696607
0.704396
0.708602
0.709909
0.709947
0.709697
0.453652
0.453878
0.457228
0.465177
0.477817
0.494407
0.51509
0.540022
0.569076
0.601851
0.63319
0.658271
0.677755
0.69327
0.705456
0.713973
0.718214
0.719356
0.719316
0.719059
0.399891
0.401018
0.407691
0.421122
0.44045
0.464102
0.491947
0.523805
0.559338
0.59801
0.633985
0.662313
0.684161
0.701488
0.714972
0.723914
0.727891
0.728768
0.728648
0.728392
0.322089
0.329722
0.345053
0.368554
0.39787
0.430973
0.467525
0.507294
0.549961
0.595001
0.635908
0.667675
0.692074
0.711322
0.725892
0.734926
0.738456
0.739055
0.738882
0.738662
0.239353
0.256022
0.280917
0.315236
0.355072
0.39777
0.443048
0.490847
0.540945
0.592892
0.639457
0.675277
0.70265
0.72405
0.739602
0.748195
0.75095
0.751255
0.751104
0.750962
0.168433
0.188812
0.22169
0.26531
0.31449
0.366223
0.419994
0.475682
0.533032
0.591573
0.643368
0.682816
0.712719
0.735709
0.751614
0.759422
0.761554
0.761761
0.761654
0.761546
0.110367
0.133017
0.171377
0.22166
0.278149
0.33745
0.398724
0.461653
0.525794
0.590536
0.647207
0.689925
0.721962
0.746123
0.762137
0.769443
0.77131
0.771514
0.771457
0.771368
0.062266
0.0862635
0.12859
0.184074
0.246408
0.311938
0.379606
0.448935
0.519276
0.589822
0.651095
0.696915
0.730939
0.756176
0.772357
0.779377
0.781095
0.781313
0.781302
0.781229
0.0214938
0.0462835
0.0915323
0.151245
0.218505
0.289355
0.362573
0.437588
0.513582
0.589568
0.655256
0.704078
0.740065
0.766435
0.782867
0.789726
0.791416
0.791661
0.79169
0.791634
-0.0140107
0.0112967
0.058826
0.122047
0.193532
0.269034
0.347198
0.427374
0.508608
0.589732
0.659705
0.711501
0.749477
0.776989
0.793849
0.800848
0.802546
0.802789
0.802839
0.8028
-0.0457649
-0.0200458
0.0293572
0.0955719
0.170728
0.250335
0.33297
0.417908
0.504071
0.590125
0.664285
0.719049
0.759039
0.787834
0.805315
0.812578
0.814321
0.81455
0.814591
0.814562
-0.0748135
-0.0487193
0.00227905
0.0711006
0.149495
0.232762
0.319455
0.408803
0.499654
0.590513
0.668793
0.726533
0.768569
0.798705
0.816885
0.824446
0.826277
0.826476
0.826496
0.826479
-0.101984
-0.0754918
-0.0230677
0.0481052
0.129374
0.215921
0.30631
0.399767
0.495084
0.590636
0.673031
0.733754
0.777851
0.80931
0.8282
0.836042
0.837965
0.838149
0.838139
0.838125
-0.127694
-0.100821
-0.0470861
0.0261794
0.110017
0.199523
0.293292
0.390567
0.490129
0.590279
0.676841
0.740567
0.786702
0.81944
0.838949
0.847064
0.84906
0.849208
0.849154
0.849132
-0.152414
-0.125081
-0.0701341
0.00503058
0.0911768
0.183353
0.280216
0.381031
0.484628
0.589309
0.680083
0.746896
0.795048
0.828957
0.848981
0.857243
0.859248
0.859358
0.859265
0.859232
-0.176298
-0.148499
-0.092409
-0.0155296
0.0726879
0.167275
0.266957
0.371057
0.478476
0.587595
0.682667
0.752686
0.802878
0.83783
0.858175
0.866448
0.868415
0.868479
0.868351
0.868305
-0.199497
-0.171198
-0.114051
-0.0356144
0.0544609
0.151215
0.253453
0.360575
0.471586
0.58502
0.684498
0.757924
0.810241
0.846123
0.866559
0.874694
0.876551
0.876567
0.876411
0.876354
-0.222121
-0.193307
-0.13513
-0.0552786
0.036443
0.135142
0.239685
0.349557
0.463907
0.581515
0.685485
0.762596
0.817245
0.854014
0.874314
0.882064
0.883724
0.883676
0.883501
0.883436
-0.244245
-0.214848
-0.155668
-0.0745404
0.0186416
0.119057
0.225663
0.338011
0.455434
0.577014
0.685535
0.766661
0.82401
0.861736
0.881642
0.888718
0.890029
0.889894
0.889709
0.889639
-0.265743
-0.235795
-0.175658
-0.0934026
0.0010695
0.103002
0.211419
0.325985
0.44619
0.571489
0.684552
0.770046
0.8306
0.869582
0.888924
0.894908
0.89558
0.895301
0.895133
0.895072
-0.28661
-0.256127
-0.195106
-0.11184
-0.016235
0.0870176
0.197026
0.31353
0.436221
0.564932
0.68245
0.772624
0.837003
0.877835
0.89674
0.901194
0.900669
0.900015
0.899916
0.899931
-0.306899
-0.275827
-0.214
-0.129832
-0.0332234
0.0711744
0.182556
0.300725
0.425592
0.557373
0.679134
0.774243
0.84307
0.886592
0.905752
0.908664
0.906179
0.904422
0.904301
0.904713
-0.326477
-0.294874
-0.232291
-0.147323
-0.0498491
0.0555458
0.168094
0.287668
0.414402
0.548874
0.674538
0.774707
0.848543
0.895624
0.916281
0.918706
0.914217
0.910055
0.908214
0.907619
-0.345434
-0.313282
-0.249991
-0.164351
-0.066151
0.0400904
0.153588
0.274302
0.40258
0.539373
0.668506
0.773761
0.853187
0.904512
0.928005
0.93201
0.927169
0.919581
0.910447
0.911574
-0.363695
-0.331117
-0.267237
-0.18111
-0.0824203
0.0244853
0.138633
0.260157
0.389602
0.528274
0.660425
0.770703
0.856663
0.912844
0.939737
0.947091
0.942398
0.929899
0.910464
0.909889
-0.381132
-0.348351
-0.28387
-0.197418
-0.098397
0.0090263
0.123425
0.245541
0.375739
0.515777
0.650269
0.764732
0.857969
0.91933
0.94746
0.955487
0.951442
0.924061
0.866809
0.842375
-0.397632
-0.365905
-0.299499
-0.212841
-0.113296
-0.00580418
0.108245
0.230729
0.361269
0.502043
0.638069
0.755181
0.855857
0.922762
0.946083
0.948926
0.931206
0.877388
0.815098
0.777287
-0.439992
-0.383089
-0.313827
-0.228294
-0.12787
-0.02098
0.0932381
0.215594
0.345979
0.486701
0.623372
0.741314
0.846343
0.919111
0.932367
0.914043
0.861491
0.793451
0.723539
0.685072
-0.414889
-0.396597
-0.335638
-0.249384
-0.150459
-0.0437946
0.0697555
0.191511
0.321092
0.460632
0.596337
0.712952
0.810226
0.890614
0.869725
0.755341
0.661047
0.595573
0.530059
0.55518
-0.445295
-0.413836
-0.352023
-0.266266
-0.167714
-0.0611961
0.0525455
0.173667
0.302275
0.44015
0.573448
0.686755
0.772796
0.818246
0.761627
0.617191
0.504646
0.428782
0.345268
0.388653
-0.468799
-0.434969
-0.37145
-0.285651
-0.187152
-0.0806489
0.0329771
0.153315
0.280586
0.416117
0.545638
0.652972
0.727397
0.734504
0.622788
0.463623
0.331547
0.236768
0.140062
0.169604
-0.491633
-0.456779
-0.391918
-0.305478
-0.206912
-0.100537
0.0125646
0.131934
0.257608
0.39033
0.514929
0.613643
0.671222
0.644614
0.481708
0.301473
0.139239
0.00358275
-0.122002
-0.111035
-0.514179
-0.478957
-0.413209
-0.326193
-0.22751
-0.12137
-0.00894841
0.109282
0.233035
0.36247
0.481196
0.571318
0.607784
0.534245
0.342755
0.143003
-0.0457586
-0.201036
-0.40708
-0.486519
-0.537122
-0.50197
-0.435706
-0.34829
-0.249472
-0.143536
-0.0317429
0.0852891
0.206958
0.332771
0.445064
0.52575
0.535486
0.410704
0.215889
0.00452854
-0.189077
-0.351662
-0.475836
-0.593246
-0.561534
-0.526301
-0.459767
-0.372153
-0.273337
-0.167715
-0.056663
0.0589701
0.178172
0.299733
0.405114
0.472559
0.45438
0.293408
0.097128
-0.108157
-0.285066
-0.383136
-0.409388
-0.422804
-0.587543
-0.552244
-0.485522
-0.397873
-0.299253
-0.194133
-0.0840877
0.0298058
0.146048
0.262557
0.360576
0.409784
0.37196
0.180514
-0.0136523
-0.198766
-0.332521
-0.37077
-0.379624
-0.379949
-0.615428
-0.579923
-0.513012
-0.425438
-0.327171
-0.2228
-0.114047
-0.00226845
0.110509
0.221211
0.310783
0.343262
0.272995
0.0772619
-0.110502
-0.271513
-0.346845
-0.360959
-0.361972
-0.361825
-0.645197
-0.60937
-0.542258
-0.45485
-0.357112
-0.253715
-0.146557
-0.0372801
0.0715571
0.175798
0.255596
0.273102
0.163944
-0.0163923
-0.193654
-0.321586
-0.35103
-0.351645
-0.352185
-0.35174
-0.676596
-0.640421
-0.57316
-0.486029
-0.388993
-0.28683
-0.1816
-0.075215
0.0292399
0.126446
0.196295
0.194547
0.0672075
-0.102391
-0.258824
-0.332307
-0.347602
-0.346149
-0.346056
-0.3457
-0.709065
-0.672725
-0.605455
-0.518746
-0.422628
-0.321988
-0.219027
-0.115956
-0.0162275
0.0735604
0.133317
0.115221
-0.0221005
-0.178038
-0.301549
-0.340017
-0.340336
-0.341458
-0.341629
-0.34144
-0.742158
-0.705747
-0.63865
-0.552577
-0.457659
-0.358862
-0.258554
-0.159224
-0.0645588
0.0180694
0.0653738
0.0402892
-0.10341
-0.238993
-0.326591
-0.335764
-0.338148
-0.338829
-0.338818
-0.338763
-0.77491
-0.7386
-0.672007
-0.586877
-0.493525
-0.396964
-0.299708
-0.204525
-0.115334
-0.0391761
-0.00279529
-0.0347248
-0.173237
-0.287635
-0.337036
-0.346733
-0.340645
-0.3379
-0.337016
-0.336779
-0.805488
-0.769987
-0.704477
-0.620745
-0.529431
-0.435576
-0.341804
-0.25112
-0.167769
-0.0977724
-0.066039
-0.112265
-0.229812
-0.330732
-0.354122
-0.349656
-0.342852
-0.338518
-0.337072
-0.336453
-0.832795
-0.79838
-0.73464
-0.65296
-0.564299
-0.473735
-0.383952
-0.298074
-0.220616
-0.157169
-0.127488
-0.178844
-0.269795
-0.349875
-0.375426
-0.358146
-0.349446
-0.345848
-0.343968
-0.342949
-0.8541
-0.821655
-0.760717
-0.681976
-0.596788
-0.510235
-0.425035
-0.344303
-0.2726
-0.215507
-0.188607
-0.229219
-0.291085
-0.333027
-0.342371
-0.350656
-0.35452
-0.354701
-0.353525
-0.35314
-0.867303
-0.837651
-0.780602
-0.706016
-0.625348
-0.543665
-0.463711
-0.388554
-0.322596
-0.270124
-0.244228
-0.27177
-0.30269
-0.321944
-0.330573
-0.343753
-0.349907
-0.351677
-0.352506
-0.353018
-0.869671
-0.843945
-0.792153
-0.7232
-0.648306
-0.572544
-0.498514
-0.42935
-0.36934
-0.320503
-0.290742
-0.31456
-0.326682
-0.332745
-0.342569
-0.349952
-0.353292
-0.354297
-0.354843
-0.355009
-0.858897
-0.837993
-0.79322
-0.731747
-0.664144
-0.595462
-0.528099
-0.465111
-0.411088
-0.368006
-0.32608
-0.355285
-0.36443
-0.374078
-0.366878
-0.363638
-0.362349
-0.361947
-0.361754
-0.361703
-0.832456
-0.81711
-0.781848
-0.730386
-0.671797
-0.611354
-0.551449
-0.494637
-0.446039
-0.410298
-0.365438
-0.380654
-0.393898
-0.422554
-0.406109
-0.384328
-0.370619
-0.367112
-0.36642
-0.36615
-0.793773
-0.783967
-0.759119
-0.719325
-0.671232
-0.619954
-0.567901
-0.517411
-0.473314
-0.443293
-0.414415
-0.394339
-0.379839
-0.403978
-0.411994
-0.389002
-0.372382
-0.367149
-0.366321
-0.365929
-0.749911
-0.744336
-0.729985
-0.701628
-0.664501
-0.622159
-0.577504
-0.533058
-0.492526
-0.462814
-0.434974
-0.400465
-0.34953
-0.310971
-0.297519
-0.31589
-0.347581
-0.363125
-0.365852
-0.365775
-0.710933
-0.707561
-0.700744
-0.68269
-0.654591
-0.619778
-0.581478
-0.541436
-0.502511
-0.470262
-0.44294
-0.412618
-0.371969
-0.333418
-0.333274
-0.376645
-0.400127
-0.405141
-0.40109
-0.404977
-0.68283
-0.680832
-0.677326
-0.666631
-0.64529
-0.615982
-0.581723
-0.543894
-0.504531
-0.468095
-0.439929
-0.430635
-0.470052
-0.569281
-0.675568
-0.729528
-0.725023
-0.679542
-0.61264
-0.591622
-0.662195
-0.661471
-0.660261
-0.654976
-0.639332
-0.613589
-0.580569
-0.542661
-0.500643
-0.458459
-0.428542
-0.406025
-0.421047
-0.479824
-0.566426
-0.586476
-0.547206
-0.513271
-0.472442
-0.453279
-0.650321
-0.650086
-0.649485
-0.647008
-0.636265
-0.612533
-0.579067
-0.539125
-0.492744
-0.441872
-0.397937
-0.348739
-0.285665
-0.232506
-0.184829
-0.123112
-0.118868
-0.120454
-0.116261
-0.111418
-0.642133
-0.642022
-0.641694
-0.640979
-0.634237
-0.612632
-0.578337
-0.53501
-0.483262
-0.419223
-0.357197
-0.275383
-0.157191
-0.00806562
0.108125
0.165642
0.219003
0.270426
0.312931
0.334757
-0.636497
-0.636445
-0.63625
-0.635999
-0.631764
-0.613915
-0.579112
-0.531789
-0.471874
-0.397818
-0.314195
-0.213912
-0.0404592
0.181398
0.413329
0.609391
0.761671
0.87405
0.944641
0.975044
-0.632521
-0.632375
-0.631881
-0.631046
-0.629385
-0.616328
-0.582579
-0.529442
-0.46322
-0.381681
-0.283106
-0.175913
0.032128
0.330626
0.671372
0.990399
1.24602
1.40695
1.48081
1.50444
-0.631355
-0.631307
-0.631037
-0.630281
-0.630114
-0.623209
-0.58963
-0.530504
-0.460186
-0.372693
-0.269972
-0.159183
0.0346027
0.338801
0.691493
1.02209
1.2944
1.46335
1.53416
1.55166
-0.631103
-0.632195
-0.635101
-0.640198
-0.645558
-0.640103
-0.599673
-0.534522
-0.462787
-0.375551
-0.272457
-0.170772
-0.0160879
0.258289
0.561011
0.827542
1.04845
1.18247
1.23513
1.24743
-0.624949
-0.627346
-0.634648
-0.649601
-0.665723
-0.65486
-0.601815
-0.539547
-0.474627
-0.388906
-0.288861
-0.19783
-0.0849396
0.133574
0.372599
0.576192
0.733337
0.822584
0.856148
0.862293
-0.632052
-0.633931
-0.636257
-0.631096
-0.618633
-0.607568
-0.578786
-0.546021
-0.492793
-0.407262
-0.31149
-0.233783
-0.14447
0.0144904
0.18787
0.326788
0.428985
0.483552
0.501777
0.503852
-0.664794
-0.665328
-0.65971
-0.620737
-0.554256
-0.522743
-0.549166
-0.560914
-0.514761
-0.42735
-0.342033
-0.272468
-0.207862
-0.0895915
0.0256499
0.109891
0.166303
0.192643
0.203231
0.205097
-0.705456
-0.702867
-0.697409
-0.669847
-0.622329
-0.591164
-0.618373
-0.61429
-0.547852
-0.448414
-0.372477
-0.308957
-0.252276
-0.174316
-0.0973714
-0.0485977
-0.0246779
-0.0159202
-0.0103649
-0.0070773
-0.795585
-0.799534
-0.832024
-0.879005
-0.895865
-0.871065
-0.823352
-0.728997
-0.594963
-0.477713
-0.400261
-0.342245
-0.298453
-0.234164
-0.172928
-0.136293
-0.115601
-0.10408
-0.0967614
-0.0952448
-0.952905
-0.974237
-1.03017
-1.08875
-1.11533
-1.09006
-1.00236
-0.827916
-0.635348
-0.506342
-0.418594
-0.363453
-0.336859
-0.277164
-0.214138
-0.169834
-0.143881
-0.125939
-0.119687
-0.118707
-1.04359
-1.06522
-1.10645
-1.14607
-1.16634
-1.14242
-1.04384
-0.82611
-0.636684
-0.50968
-0.414654
-0.372368
-0.353004
-0.296578
-0.234527
-0.187904
-0.149576
-0.128649
-0.121704
-0.122037
-0.973758
-0.991775
-1.02268
-1.05548
-1.07484
-1.05449
-0.939881
-0.738248
-0.587654
-0.467751
-0.389712
-0.358333
-0.33827
-0.287056
-0.229798
-0.190831
-0.158882
-0.141631
-0.136164
-0.136746
-0.741613
-0.759464
-0.792978
-0.832856
-0.860275
-0.840742
-0.739567
-0.607821
-0.488702
-0.39338
-0.348432
-0.312601
-0.298405
-0.25786
-0.216619
-0.188559
-0.165288
-0.152606
-0.148995
-0.149937
-0.40129
-0.415837
-0.445367
-0.485535
-0.519128
-0.521363
-0.481926
-0.422661
-0.361259
-0.318502
-0.282937
-0.257749
-0.243025
-0.214403
-0.193611
-0.176947
-0.16274
-0.15506
-0.153185
-0.154482
-0.0839125
-0.0924803
-0.112619
-0.145828
-0.186561
-0.218051
-0.236123
-0.244835
-0.244176
-0.232417
-0.213242
-0.198902
-0.187374
-0.175469
-0.170857
-0.165048
-0.160251
-0.157918
-0.157744
-0.158985
0.112946
0.108344
0.0947088
0.0670416
0.023738
-0.0314994
-0.0832688
-0.121936
-0.144504
-0.153809
-0.154111
-0.141232
-0.136659
-0.14324
-0.149479
-0.155001
-0.159486
-0.163426
-0.165122
-0.165978
0.187444
0.184652
0.174907
0.152422
0.114147
0.0636408
0.00893048
-0.0410245
-0.075847
-0.0979377
-0.101919
-0.095568
-0.0976984
-0.110155
-0.127922
-0.143539
-0.156259
-0.164745
-0.167187
-0.167418
0.188949
0.187056
0.180031
0.163513
0.134051
0.0935206
0.0484414
0.00426033
-0.0316648
-0.0540323
-0.0625922
-0.0608638
-0.0674132
-0.0841723
-0.10488
-0.123375
-0.139006
-0.148269
-0.150675
-0.150786
0.160123
0.158926
0.154183
0.142816
0.122526
0.0932992
0.0587141
0.0233449
-0.00595097
-0.0263865
-0.0350102
-0.033677
-0.0417505
-0.0596849
-0.0800332
-0.0967261
-0.109806
-0.116418
-0.118068
-0.118237
0.122254
0.1216
0.118624
0.1113
0.0979139
0.0783592
0.0542819
0.028054
0.004671
-0.0116927
-0.0192048
-0.0185881
-0.0244765
-0.0400954
-0.0557144
-0.0675129
-0.075056
-0.0778094
-0.0785143
-0.0788223
0.0833505
0.0831305
0.0814839
0.0771049
0.0688319
0.0563393
0.0406438
0.0237203
0.00796819
-0.00458962
-0.0143851
-0.0211643
-0.0268247
-0.0328661
-0.0372259
-0.0407578
-0.0415353
-0.0416532
-0.0420497
-0.0426653
0.0456912
0.0457085
0.045036
0.0428901
0.0386021
0.032088
0.0236611
0.0143438
0.00488239
-0.00276105
-0.0130784
-0.0289101
-0.0372787
-0.0306144
-0.0243868
-0.0196812
-0.0176971
-0.0169579
-0.0171082
-0.0177883
0.00879216
0.0089068
0.00913339
0.00932513
0.00898088
0.00786716
0.00603408
0.00396231
0.00180453
-0.000149517
-0.00254827
-0.00940702
-0.0155234
-0.00983233
-0.00917996
-0.00717122
-0.00654536
-0.00527906
-0.00464291
-0.00437077
0.0192946
0.207423
0.380152
0.526261
0.643049
0.735016
0.811339
0.873306
0.888929
0.885466
0.307684
0.4285
0.541686
0.639745
0.722071
0.789892
0.843279
0.879367
0.898712
0.915384
0.503273
0.583826
0.663367
0.733028
0.792317
0.841444
0.880149
0.909702
0.931975
0.951221
0.648302
0.705289
0.762535
0.813956
0.858368
0.89617
0.927917
0.95459
0.974746
0.993635
0.76413
0.807011
0.849508
0.889357
0.925003
0.956535
0.984126
1.00752
1.0254
1.04344
0.860354
0.89582
0.930896
0.964433
0.995342
1.02334
1.04808
1.06885
1.08457
1.10204
0.94838
0.980206
1.01235
1.04343
1.07232
1.09859
1.12163
1.14051
1.15439
1.1714
1.0351
1.06759
1.09992
1.13106
1.15977
1.18551
1.20759
1.22508
1.23743
1.25395
1.12935
1.16574
1.20047
1.23289
1.26202
1.28733
1.30841
1.32467
1.33626
1.3524
1.24237
1.28303
1.32
1.35289
1.38133
1.40529
1.42489
1.44014
1.45203
1.4681
1.38382
1.42482
1.46004
1.48957
1.51475
1.53635
1.55483
1.57031
1.58342
1.59936
1.55527
1.5875
1.61442
1.63675
1.65683
1.67554
1.69328
1.71004
1.72495
1.74067
1.74151
1.75875
1.77586
1.79254
1.80864
1.82337
1.83727
1.85175
1.86698
1.88428
1.9249
1.93485
1.94803
1.95901
1.96842
1.97808
1.98869
1.99886
2.00815
2.03381
2.14276
2.13706
2.12411
2.10985
2.10355
2.10926
2.1274
2.15593
2.18969
2.22601
2.44558
2.30963
2.23012
2.18759
2.17026
2.17424
2.20167
2.25954
2.3672
2.54561
0.783235
0.776933
0.769203
0.75809
0.744521
0.731875
0.721483
0.713478
0.707772
0.704457
0.70413
0.706988
0.712242
0.719615
0.729176
0.741014
0.754582
0.767515
0.776507
0.78405
0.692298
0.698217
0.706291
0.712425
0.715496
0.714988
0.711907
0.70792
0.704344
0.702078
0.701971
0.704252
0.70803
0.712494
0.716608
0.718863
0.717796
0.713165
0.706114
0.698282
0.685538
0.68791
0.691179
0.693954
0.696408
0.698602
0.699787
0.69965
0.698727
0.697942
0.698189
0.699636
0.701444
0.702694
0.702635
0.70118
0.699031
0.696676
0.693698
0.690682
0.680734
0.681823
0.683741
0.686082
0.687958
0.689363
0.690589
0.691593
0.69221
0.692615
0.693207
0.693989
0.694488
0.694395
0.693786
0.692878
0.691558
0.689597
0.687495
0.686019
0.675692
0.676326
0.677457
0.679218
0.681067
0.682668
0.683929
0.685007
0.68601
0.68694
0.687771
0.688339
0.688516
0.688339
0.687826
0.686871
0.685457
0.683858
0.682527
0.681726
0.670744
0.671182
0.671973
0.673282
0.674811
0.676383
0.677874
0.679187
0.680367
0.681492
0.682499
0.683159
0.683385
0.683188
0.682553
0.681577
0.680441
0.67931
0.678414
0.677882
0.665879
0.666206
0.666821
0.667896
0.669201
0.670612
0.672105
0.6736
0.675022
0.67637
0.677582
0.678397
0.678682
0.678485
0.677925
0.67717
0.676347
0.675508
0.674856
0.674466
0.661071
0.661325
0.661821
0.66274
0.663923
0.665245
0.666686
0.668238
0.669853
0.671469
0.672944
0.673948
0.674362
0.674322
0.673986
0.673477
0.672872
0.672265
0.671794
0.671497
0.656249
0.65645
0.656864
0.657674
0.658781
0.66006
0.661491
0.663094
0.664858
0.666732
0.668517
0.669803
0.670471
0.67069
0.670606
0.670332
0.669942
0.669532
0.669203
0.668969
0.651324
0.651486
0.651842
0.65258
0.653644
0.654908
0.656375
0.658069
0.660003
0.66215
0.664304
0.665976
0.666993
0.667522
0.66771
0.667679
0.66751
0.667282
0.66707
0.666884
0.646208
0.646339
0.646653
0.647348
0.648399
0.649694
0.651235
0.653068
0.655226
0.65771
0.660314
0.662462
0.663898
0.664786
0.665282
0.665515
0.66557
0.665518
0.665408
0.665257
0.640807
0.640913
0.6412
0.641878
0.642951
0.64432
0.645982
0.648009
0.650462
0.653371
0.65653
0.65925
0.661179
0.662483
0.663329
0.66385
0.664145
0.664271
0.664249
0.664125
0.635023
0.635107
0.635378
0.636063
0.637195
0.638679
0.640518
0.642807
0.645641
0.649082
0.652919
0.656328
0.658841
0.66063
0.661876
0.662735
0.663296
0.663592
0.663649
0.663546
0.628741
0.628805
0.62907
0.629785
0.631012
0.63266
0.63474
0.637374
0.64069
0.644788
0.649451
0.653688
0.656899
0.65926
0.660967
0.662209
0.663062
0.663544
0.663678
0.663592
0.621826
0.621871
0.622138
0.622906
0.624267
0.626135
0.628531
0.631605
0.635524
0.640432
0.646097
0.651329
0.655369
0.658407
0.660659
0.662332
0.663524
0.66421
0.664419
0.664345
0.614123
0.614143
0.614413
0.61526
0.616799
0.618951
0.621751
0.625379
0.630049
0.635952
0.642831
0.649255
0.654276
0.65811
0.661009
0.663202
0.664779
0.665683
0.665968
0.665902
0.605385
0.605401
0.605692
0.606637
0.608407
0.610923
0.614233
0.618555
0.624156
0.631278
0.639623
0.647469
0.653656
0.658428
0.662087
0.664902
0.666919
0.668064
0.668423
0.668362
0.595342
0.595332
0.595667
0.596763
0.598835
0.601814
0.605769
0.610965
0.617723
0.626339
0.636453
0.645988
0.653546
0.659424
0.66398
0.667515
0.670042
0.671449
0.671881
0.671821
0.583668
0.583636
0.584022
0.585307
0.587753
0.591327
0.596106
0.602405
0.61061
0.62106
0.633304
0.644831
0.65399
0.661158
0.666763
0.67113
0.67424
0.675922
0.676422
0.676356
0.56986
0.569806
0.570272
0.57181
0.574741
0.579086
0.584931
0.592643
0.602668
0.615377
0.630173
0.644035
0.655037
0.663684
0.670508
0.67583
0.679577
0.681539
0.682093
0.682016
0.553239
0.553162
0.553756
0.555647
0.559228
0.564602
0.571854
0.581405
0.593747
0.609243
0.627079
0.643641
0.656739
0.667062
0.67526
0.681642
0.686079
0.688303
0.688889
0.688793
0.532824
0.532731
0.53353
0.535936
0.540435
0.547238
0.55641
0.56841
0.58373
0.602659
0.624078
0.643709
0.659149
0.671331
0.681027
0.68858
0.693709
0.696143
0.696726
0.696604
0.507143
0.507051
0.508191
0.511395
0.517282
0.526172
0.538071
0.553409
0.572583
0.59571
0.621283
0.644328
0.662313
0.676503
0.687814
0.696584
0.702335
0.704884
0.705418
0.705263
0.47379
0.473747
0.475505
0.480087
0.488301
0.500465
0.516382
0.536317
0.560433
0.588597
0.618873
0.64562
0.66629
0.682577
0.695553
0.705515
0.711719
0.714233
0.714665
0.714475
0.428486
0.428655
0.431764
0.439226
0.451792
0.469343
0.491231
0.51738
0.547643
0.581658
0.61709
0.647725
0.671144
0.689521
0.704148
0.715142
0.721494
0.723773
0.724057
0.723839
0.363237
0.364621
0.372179
0.386283
0.406843
0.432966
0.463277
0.497317
0.53481
0.575319
0.616193
0.650764
0.676891
0.697269
0.713321
0.725002
0.731128
0.732952
0.733068
0.732847
0.285388
0.288108
0.3028
0.327109
0.358612
0.394881
0.434305
0.476668
0.521807
0.569359
0.616405
0.655669
0.685155
0.708027
0.725671
0.737692
0.743352
0.744815
0.744872
0.744739
0.205742
0.21288
0.23494
0.269452
0.311559
0.357738
0.406275
0.457012
0.509851
0.564466
0.617688
0.6616
0.694312
0.719561
0.738664
0.750629
0.755363
0.756287
0.756278
0.756199
0.140742
0.14982
0.176593
0.218322
0.268763
0.323344
0.380093
0.438681
0.498867
0.560211
0.619228
0.667377
0.70291
0.729978
0.749848
0.761435
0.765596
0.766372
0.766401
0.766362
0.0875145
0.097321
0.12768
0.17477
0.231482
0.292781
0.356437
0.421924
0.48879
0.556408
0.620854
0.672964
0.711047
0.739706
0.760156
0.771513
0.775365
0.776093
0.776173
0.776174
0.0430098
0.053131
0.0859349
0.137208
0.199057
0.265934
0.335428
0.406913
0.47977
0.553176
0.622767
0.678658
0.719199
0.749404
0.770494
0.781759
0.785386
0.786101
0.786244
0.786289
0.00474579
0.0149977
0.0496233
0.104242
0.170394
0.242066
0.316664
0.393477
0.471771
0.550553
0.625047
0.684616
0.727597
0.759359
0.781154
0.792461
0.796054
0.796844
0.797018
0.797102
-0.0289784
-0.0186885
0.0173614
0.07475
0.144573
0.220414
0.299552
0.381201
0.464532
0.548382
0.627587
0.690792
0.736208
0.769579
0.792212
0.803841
0.807583
0.808374
0.808542
0.808645
-0.0594371
-0.0491289
-0.0119304
0.0478374
0.120848
0.200361
0.283566
0.369648
0.457684
0.546392
0.630189
0.696989
0.744863
0.779918
0.803535
0.81563
0.819541
0.820335
0.820468
0.820558
-0.0876202
-0.0772741
-0.0390622
0.0228164
0.0986566
0.181429
0.268296
0.358447
0.450911
0.544311
0.632636
0.703009
0.753366
0.790103
0.814728
0.827345
0.831441
0.832221
0.832312
0.832382
-0.114105
-0.103707
-0.0645686
-0.000790389
0.0775553
0.163242
0.253429
0.347331
0.443964
0.541879
0.634706
0.708685
0.761525
0.799936
0.825558
0.8386
0.842905
0.84368
0.84371
0.843748
-0.139366
-0.128874
-0.0888647
-0.0233624
0.0572251
0.145532
0.238739
0.336093
0.436635
0.538912
0.636236
0.713895
0.769222
0.809245
0.835764
0.84916
0.853594
0.854348
0.854322
0.854326
-0.163745
-0.153073
-0.112241
-0.045153
0.0374506
0.128108
0.224058
0.324591
0.42879
0.53529
0.637109
0.71854
0.776426
0.817985
0.845254
0.85888
0.863304
0.864018
0.863947
0.863918
-0.18736
-0.17648
-0.134859
-0.0663275
0.0180887
0.110864
0.20929
0.312735
0.420354
0.530885
0.6372
0.722566
0.783119
0.826182
0.85399
0.867643
0.871993
0.872638
0.872529
0.872474
-0.210378
-0.199237
-0.156857
-0.0869709
-0.000934265
0.0937337
0.194392
0.300484
0.411262
0.525624
0.636411
0.725917
0.789349
0.833944
0.862119
0.875584
0.879708
0.880254
0.880105
0.88003
-0.232775
-0.221414
-0.178278
-0.107126
-0.0196456
0.0767035
0.179362
0.287835
0.401496
0.519463
0.634661
0.728513
0.795162
0.841452
0.869846
0.882823
0.88655
0.886937
0.886751
0.886664
-0.25465
-0.24301
-0.199105
-0.126798
-0.0380468
0.0597849
0.164213
0.274817
0.391084
0.512381
0.631867
0.73027
0.800568
0.848898
0.87746
0.889614
0.892649
0.892781
0.892559
0.89247
-0.27583
-0.264002
-0.21934
-0.145991
-0.0561092
0.0430309
0.148994
0.261479
0.380071
0.504398
0.62797
0.731081
0.805512
0.856444
0.885391
0.896414
0.898262
0.897878
0.897618
0.897571
-0.296475
-0.284356
-0.238972
-0.164696
-0.0738163
0.0264664
0.133783
0.247884
0.368514
0.495568
0.622935
0.730816
0.809864
0.864121
0.894075
0.904015
0.904095
0.902557
0.902082
0.902217
-0.316413
-0.304041
-0.257994
-0.182873
-0.0911001
0.0101649
0.11865
0.234137
0.356506
0.485934
0.616755
0.729341
0.813426
0.87176
0.903718
0.913391
0.911638
0.907991
0.906475
0.906761
-0.335753
-0.32309
-0.276356
-0.200473
-0.107933
-0.00581432
0.103675
0.22031
0.344143
0.475611
0.609462
0.726499
0.815952
0.878985
0.913975
0.924983
0.922778
0.916919
0.911452
0.903672
-0.354387
-0.341502
-0.294148
-0.217661
-0.124536
-0.0217461
0.0885321
0.206017
0.331
0.464135
0.600599
0.7218
0.817161
0.885701
0.924498
0.938607
0.938201
0.930679
0.919039
0.918333
-0.372276
-0.359356
-0.311374
-0.234387
-0.140899
-0.0375961
0.0732474
0.19123
0.317035
0.451363
0.589952
0.714691
0.816214
0.891105
0.933451
0.950542
0.951709
0.945196
0.910522
0.872411
-0.389209
-0.37651
-0.32798
-0.250533
-0.157021
-0.0533729
0.0578151
0.176077
0.302304
0.437313
0.577404
0.704741