/*--------------------------------*- C++ -*----------------------------------*\
  =========                 |
  \\      /  F ield         | OpenFOAM: The Open Source CFD Toolbox
   \\    /   O peration     | Website:  https://openfoam.org
    \\  /    A nd           | Version:  6
     \\/     M anipulation  |
\*---------------------------------------------------------------------------*/
FoamFile
{
    version     2.0;
    format      ascii;
    class       volVectorField;
    location    "91.3";
    object      U;
}
// * * * * * * * * * * * * * * * * * * * * * * * * * * * * * * * * * * * * * //

dimensions      [0 1 -1 0 0 0 0];

internalField   nonuniform List<vector> 
8800
(
(0.987184 -0.0766653 0)
(1.00189 -0.05519 0)
(0.999723 -0.0285478 0)
(1.00003 -0.0151422 0)
(1.0001 -0.00854272 0)
(1.00012 -0.00504422 0)
(1.00008 -0.00299851 0)
(1.00002 -0.00169806 0)
(0.999992 -0.000791938 0)
(1.00006 -7.65559e-05 0)
(0.999958 0.000655877 0)
(0.999996 0.00142433 0)
(1.00006 0.00243336 0)
(1.00007 0.00400096 0)
(1.00005 0.00663413 0)
(1.00005 0.011373 0)
(0.999947 0.0208162 0)
(0.99917 0.0386708 0)
(1.0071 0.0724575 0)
(0.771214 0.0366616 0)
(0.363078 -0.0160165 0)
(1.04332 -0.0768122 0)
(1.0846 -0.0704409 0)
(1.04519 -0.0535345 0)
(1.02329 -0.0388844 0)
(1.01203 -0.0262049 0)
(1.00643 -0.0168414 0)
(1.00359 -0.0103069 0)
(1.00215 -0.00564367 0)
(1.00144 -0.00198179 0)
(1.00128 0.00133965 0)
(1.00166 0.00472765 0)
(1.00268 0.00865478 0)
(1.00468 0.0139733 0)
(1.00861 0.0216809 0)
(1.01657 0.0326475 0)
(1.03251 0.0465592 0)
(1.06268 0.0616752 0)
(1.09187 0.0761046 0)
(0.838665 0.0565639 0)
(0.216867 -0.00242886 0)
(1.07592 -0.0501251 0)
(1.09989 -0.0482947 0)
(1.06465 -0.0404433 0)
(1.04005 -0.0335805 0)
(1.02393 -0.0260532 0)
(1.01413 -0.0184632 0)
(1.00856 -0.0116352 0)
(1.00558 -0.00575912 0)
(1.00431 -0.000335139 0)
(1.00463 0.00491382 0)
(1.00659 0.0103068 0)
(1.01063 0.0163731 0)
(1.01794 0.0233883 0)
(1.03053 0.0308509 0)
(1.05062 0.0378753 0)
(1.08036 0.0445557 0)
(1.10627 0.0513651 0)
(0.942501 0.0416277 0)
(0.216121 0.00246274 0)
(0.175209 -0.000815343 0)
(1.01774 -0.0354679 0)
(1.10522 -0.0413527 0)
(1.07828 -0.0360298 0)
(1.05349 -0.0300877 0)
(1.03623 -0.0245027 0)
(1.02402 -0.0187628 0)
(1.01589 -0.0126698 0)
(1.01101 -0.00646977 0)
(1.00879 -0.000125097 0)
(1.00934 0.00613537 0)
(1.01264 0.0121346 0)
(1.01888 0.0179349 0)
(1.02876 0.0234967 0)
(1.04318 0.0287919 0)
(1.0637 0.0342659 0)
(1.09356 0.0402443 0)
(1.09339 0.0419962 0)
(0.827056 0.0229296 0)
(0.173951 0.000854637 0)
(0.15403 -0.000609043 0)
(0.956295 -0.0254346 0)
(1.10351 -0.0350869 0)
(1.08772 -0.0325989 0)
(1.06177 -0.0279352 0)
(1.04415 -0.0228978 0)
(1.03168 -0.0176344 0)
(1.02281 -0.0120845 0)
(1.01697 -0.00613135 0)
(1.0141 0.000350918 0)
(1.01475 0.00681932 0)
(1.01876 0.0127029 0)
(1.0258 0.0179532 0)
(1.03607 0.0228541 0)
(1.05061 0.0276045 0)
(1.07185 0.0321218 0)
(1.10005 0.0360455 0)
(1.068 0.0340858 0)
(0.739345 0.014337 0)
(0.152131 0.000653675 0)
(0.139686 -0.000465006 0)
(0.899486 -0.0190437 0)
(1.09589 -0.0300189 0)
(1.09581 -0.0291101 0)
(1.06932 -0.0253631 0)
(1.05088 -0.0212053 0)
(1.03794 -0.01641 0)
(1.02881 -0.0110987 0)
(1.02266 -0.00533162 0)
(1.01949 0.00101335 0)
(1.02007 0.00733353 0)
(1.0242 0.0129669 0)
(1.03136 0.017877 0)
(1.04182 0.0223225 0)
(1.05693 0.0262763 0)
(1.07913 0.0297199 0)
(1.10221 0.0323299 0)
(1.0358 0.0281973 0)
(0.672636 0.0102431 0)
(0.137 0.000516496 0)
(0.129182 -0.000359257 0)
(0.850026 -0.0146706 0)
(1.08358 -0.0258639 0)
(1.10154 -0.0261292 0)
(1.07622 -0.0228222 0)
(1.05725 -0.0191543 0)
(1.04384 -0.014879 0)
(1.03435 -0.00992288 0)
(1.02795 -0.00435951 0)
(1.02457 0.0018124 0)
(1.02499 0.00792321 0)
(1.02907 0.0132789 0)
(1.03633 0.0177657 0)
(1.04706 0.0216027 0)
(1.06257 0.0248881 0)
(1.08519 0.0278063 0)
(1.10125 0.0295381 0)
(1.00073 0.0237103 0)
(0.620607 0.00788929 0)
(0.125537 0.000419838 0)
(0.121186 -0.000278143 0)
(0.808059 -0.0115001 0)
(1.06842 -0.022227 0)
(1.10513 -0.0234541 0)
(1.08252 -0.0205534 0)
(1.06313 -0.0170935 0)
(1.04945 -0.0131171 0)
(1.03967 -0.00848986 0)
(1.03297 -0.00318975 0)
(1.02933 0.00277001 0)
(1.02955 0.00863647 0)
(1.03358 0.0136446 0)
(1.04088 0.0176468 0)
(1.05169 0.0209728 0)
(1.06741 0.0238428 0)
(1.09037 0.0264553 0)
(1.09736 0.0272809 0)
(0.965219 0.0202055 0)
(0.578697 0.00636753 0)
(0.116375 0.000350208 0)
(0.115012 -0.000214388 0)
(0.772814 -0.00912278 0)
(1.05183 -0.0190169 0)
(1.1076 -0.0209676 0)
(1.08845 -0.0184292 0)
(1.06868 -0.0151058 0)
(1.05475 -0.0112818 0)
(1.04476 -0.00685399 0)
(1.03781 -0.00178394 0)
(1.03386 0.00393141 0)
(1.03384 0.00950274 0)
(1.03773 0.0141343 0)
(1.04495 0.0177024 0)
(1.05573 0.0206376 0)
(1.07164 0.0231773 0)
(1.09425 0.0254366 0)
(1.09059 0.0254338 0)
(0.93057 0.0175188 0)
(0.543876 0.00533587 0)
(0.108783 0.000300583 0)
(0.110227 -0.000162854 0)
(0.743358 -0.00727113 0)
(1.03486 -0.0161617 0)
(1.10916 -0.0186121 0)
(1.09412 -0.0163698 0)
(1.07406 -0.0131285 0)
(1.05985 -0.00938178 0)
(1.04967 -0.00506239 0)
(1.04247 -0.000153113 0)
(1.0382 0.00533137 0)
(1.03786 0.0105947 0)
(1.04151 0.014866 0)
(1.04856 0.0180459 0)
(1.05928 0.0206333 0)
(1.07537 0.0228763 0)
(1.09681 0.0247471 0)
(1.08131 0.0239542 0)
(0.897321 0.0155014 0)
(0.51408 0.0046253 0)
(0.102276 0.000266274 0)
(0.10655 -0.000119759 0)
(0.71888 -0.00577078 0)
(1.01837 -0.013589 0)
(1.10992 -0.0163234 0)
(1.0997 -0.0143408 0)
(1.07938 -0.011099 0)
(1.06488 -0.007368 0)
(1.05445 -0.00309521 0)
(1.04698 0.00171483 0)
(1.04235 0.00701244 0)
(1.0416 0.0119941 0)
(1.04492 0.0159301 0)
(1.05175 0.0187373 0)
(1.06239 0.0209873 0)
(1.07865 0.0229555 0)
(1.09798 0.0244006 0)
(1.06989 0.0228431 0)
(0.865562 0.0140376 0)
(0.487838 0.00414591 0)
(0.0965094 0.000244285 0)
(0.103796 -8.21022e-05 0)
(0.698749 -0.00450508 0)
(1.00296 -0.0112303 0)
(1.11006 -0.0140646 0)
(1.10516 -0.0122559 0)
(1.08472 -0.00896291 0)
(1.0699 -0.00518584 0)
(1.05919 -0.000896372 0)
(1.05138 0.00387419 0)
(1.04632 0.00903763 0)
(1.04507 0.0137722 0)
(1.04801 0.0173901 0)
(1.05456 0.0198286 0)
(1.06508 0.0217492 0)
(1.08145 0.0234449 0)
(1.09807 0.0245333 0)
(1.05655 0.0221171 0)
(0.835092 0.0130445 0)
(0.464033 0.00384377 0)
(0.091217 0.000232267 0)
(0.101849 -4.71617e-05 0)
(0.682504 -0.00338615 0)
(0.989112 -0.00901349 0)
(1.10981 -0.0117467 0)
(1.11047 -0.0100303 0)
(1.09018 -0.00665614 0)
(1.075 -0.00276974 0)
(1.06396 0.00160452 0)
(1.05574 0.00640012 0)
(1.05014 0.0114827 0)
(1.04829 0.016004 0)
(1.05076 0.0193196 0)
(1.05698 0.0213865 0)
(1.06735 0.0229736 0)
(1.08373 0.0243781 0)
(1.09723 0.0250192 0)
(1.04141 0.0217855 0)
(0.805535 0.012447 0)
(0.441779 0.00368039 0)
(0.0861899 0.00022809 0)
(0.10065 -1.265e-05 0)
(0.669857 -0.00234375 0)
(0.977186 -0.00686303 0)
(1.10948 -0.00931223 0)
(1.11579 -0.00760354 0)
(1.09583 -0.00410263 0)
(1.08027 -3.99131e-05 0)
(1.06883 0.00449082 0)
(1.06011 0.00938014 0)
(1.05385 0.0144383 0)
(1.05129 0.0187784 0)
(1.05318 0.0218026 0)
(1.05901 0.0234925 0)
(1.06919 0.02474 0)
(1.08555 0.0258498 0)
(1.09506 0.0259761 0)
(1.0245 0.0218533 0)
(0.776421 0.0121985 0)
(0.420352 0.00363147 0)
(0.0812613 0.00023045 0)
(0.100193 2.41018e-05 0)
(0.660665 -0.00132138 0)
(0.967507 -0.00470552 0)
(1.10941 -0.00669918 0)
(1.12126 -0.00490078 0)
(1.10177 -0.00121224 0)
(1.08578 0.00310065 0)
(1.07387 0.00786374 0)
(1.06455 0.0129214 0)
(1.05749 0.0180146 0)
(1.05407 0.0222041 0)
(1.05528 0.0249458 0)
(1.06065 0.0262587 0)
(1.07059 0.0271432 0)
(1.08682 0.0279209 0)
(1.09149 0.0274378 0)
(1.00572 0.0223643 0)
(0.747211 0.0122746 0)
(0.399131 0.00368369 0)
(0.0762902 0.000238661 0)
(0.100487 5.65598e-05 0)
(0.654917 -0.000261585 0)
(0.960386 -0.00246541 0)
(1.10996 -0.003839 0)
(1.12704 -0.00183665 0)
(1.1081 0.002116 0)
(1.09165 0.00676022 0)
(1.07917 0.01184 0)
(1.06912 0.0171466 0)
(1.06111 0.0223406 0)
(1.05664 0.0264123 0)
(1.05704 0.0288733 0)
(1.06187 0.029807 0)
(1.0715 0.0303037 0)
(1.08724 0.0307025 0)
(1.08619 0.0294926 0)
(0.984835 0.0233542 0)
(0.717299 0.0126597 0)
(0.377545 0.00382745 0)
(0.0711507 0.000251856 0)
(0.101628 0.000111918 0)
(0.652767 0.000881128 0)
(0.956146 -6.39479e-05 0)
(1.11151 -0.000651435 0)
(1.13334 0.00168874 0)
(1.11496 0.00600056 0)
(1.09798 0.0110724 0)
(1.08483 0.0165658 0)
(1.07389 0.0222098 0)
(1.06473 0.02757 0)
(1.05902 0.0315522 0)
(1.05844 0.0337238 0)
(1.06262 0.0342678 0)
(1.07188 0.0343552 0)
(1.08668 0.0343321 0)
(1.0789 0.0322216 0)
(0.961468 0.0248604 0)
(0.686009 0.013344 0)
(0.355057 0.00405346 0)
(0.0657329 0.000269099 0)
(0.103756 0.00016411 0)
(0.654421 0.00200005 0)
(0.95515 0.00258682 0)
(1.11452 0.00296725 0)
(1.14038 0.00578652 0)
(1.12248 0.0105891 0)
(1.10492 0.0162015 0)
(1.09095 0.0222188 0)
(1.07893 0.028297 0)
(1.06837 0.0338869 0)
(1.06118 0.037797 0)
(1.05947 0.039646 0)
(1.06287 0.0397948 0)
(1.07167 0.0394425 0)
(1.08489 0.0389069 0)
(1.06929 0.0357256 0)
(0.935104 0.0269282 0)
(0.652616 0.0143188 0)
(0.331169 0.00435174 0)
(0.0599458 0.000289233 0)
(0.106973 0.000228167 0)
(0.660495 0.00348538 0)
(0.957763 0.00552432 0)
(1.11947 0.00716007 0)
(1.14842 0.0106065 0)
(1.13087 0.0160596 0)
(1.11261 0.0223456 0)
(1.09765 0.0290147 0)
(1.08432 0.0356307 0)
(1.07208 0.041512 0)
(1.06313 0.045349 0)
(1.0601 0.0468553 0)
(1.06256 0.046574 0)
(1.07081 0.0457382 0)
(1.08185 0.0446078 0)
(1.05689 0.0401233 0)
(0.905058 0.0295935 0)
(0.61633 0.0155654 0)
(0.305418 0.00470748 0)
(0.0537209 0.00031052 0)
(0.111564 0.000315306 0)
(0.671335 0.00523194 0)
(0.964602 0.00904401 0)
(1.12685 0.0120899 0)
(1.15777 0.0163626 0)
(1.14034 0.0226587 0)
(1.12124 0.0297769 0)
(1.10506 0.0372375 0)
(1.09011 0.0444905 0)
(1.07585 0.0506994 0)
(1.06483 0.0544319 0)
(1.06022 0.0555587 0)
(1.06164 0.0548042 0)
(1.06924 0.0534323 0)
(1.07749 0.0515891 0)
(1.04107 0.0455235 0)
(0.870455 0.0328632 0)
(0.576319 0.0170432 0)
(0.277412 0.00509548 0)
(0.0470247 0.00033047 0)
(0.117894 0.000430677 0)
(0.687702 0.00740453 0)
(0.976372 0.0133063 0)
(1.13724 0.0179829 0)
(1.1688 0.0233145 0)
(1.15119 0.0307096 0)
(1.13102 0.0388455 0)
(1.11331 0.0472461 0)
(1.09635 0.0552191 0)
(1.07965 0.061755 0)
(1.06621 0.0653083 0)
(1.0597 0.0659499 0)
(1.06007 0.0646851 0)
(1.067 0.0627238 0)
(1.07148 0.0600421 0)
(1.02097 0.051994 0)
(0.83023 0.0366983 0)
(0.531759 0.0186686 0)
(0.246892 0.00547589 0)
(0.039877 0.000345626 0)
(0.126476 0.000592295 0)
(0.710632 0.0102452 0)
(0.99389 0.0186059 0)
(1.15131 0.0251859 0)
(1.18202 0.0318474 0)
(1.16375 0.0406646 0)
(1.14217 0.0500296 0)
(1.12249 0.0595101 0)
(1.10304 0.0682372 0)
(1.08341 0.07502 0)
(1.06718 0.0782412 0)
(1.05855 0.078262 0)
(1.05777 0.0764161 0)
(1.06383 0.0737652 0)
(1.06327 0.0699899 0)
(0.995488 0.0595574 0)
(0.783141 0.0409653 0)
(0.481936 0.0202973 0)
(0.21383 0.00579156 0)
(0.032371 0.000351778 0)
(0.138108 0.000828999 0)
(0.741483 0.0141297 0)
(1.01832 0.0254129 0)
(1.16985 0.0342511 0)
(1.19807 0.0425727 0)
(1.17842 0.0532159 0)
(1.15489 0.0640271 0)
(1.13263 0.0746653 0)
(1.11006 0.084059 0)
(1.08697 0.0908588 0)
(1.06759 0.0934829 0)
(1.05668 0.0927056 0)
(1.05477 0.0902523 0)
(1.0594 0.0867753 0)
(1.05202 0.0816278 0)
(0.963133 0.0680954 0)
(0.727838 0.0453904 0)
(0.426423 0.0217056 0)
(0.17855 0.00596829 0)
(0.0246918 0.000344476 0)
(0.154088 0.00119949 0)
(0.782273 0.0197121 0)
(1.05134 0.0345292 0)
(1.19383 0.046125 0)
(1.21783 0.0568507 0)
(1.19554 0.0694272 0)
(1.16925 0.0818168 0)
(1.14358 0.093513 0)
(1.11716 0.103271 0)
(1.09007 0.109664 0)
(1.06723 0.11128 0)
(1.05394 0.109448 0)
(1.05095 0.106289 0)
(1.05352 0.102053 0)
(1.0366 0.094911 0)
(0.922003 0.0772691 0)
(0.663063 0.049506 0)
(0.365379 0.0225889 0)
(0.141863 0.00592472 0)
(0.017124 0.000319947 0)
(0.176647 0.00184077 0)
(0.836218 0.0281304 0)
(1.0958 0.0475229 0)
(1.22434 0.0626905 0)
(1.24176 0.0763619 0)
(1.21523 0.0909585 0)
(1.18499 0.104752 0)
(1.1549 0.117022 0)
(1.1239 0.126482 0)
(1.09232 0.131759 0)
(1.06583 0.131792 0)
(1.05013 0.128577 0)
(1.04612 0.124562 0)
(1.04609 0.119311 0)
(1.01535 0.109583 0)
(0.869748 0.0864336 0)
(0.588104 0.052632 0)
(0.300002 0.0226032 0)
(0.105188 0.00559294 0)
(0.0100444 0.000275552 0)
(0.20925 0.00325768 0)
(0.909165 0.042128 0)
(1.1548 0.0682856 0)
(1.26174 0.0874767 0)
(1.26967 0.104174 0)
(1.23685 0.12025 0)
(1.20127 0.134492 0)
(1.16578 0.146193 0)
(1.12958 0.154221 0)
(1.09325 0.157373 0)
(1.0631 0.155101 0)
(1.0451 0.150099 0)
(1.04013 0.145094 0)
(1.03629 0.138605 0)
(0.985805 0.125039 0)
(0.803706 0.094497 0)
(0.503785 0.053945 0)
(0.233266 0.0215366 0)
(0.0706966 0.00496269 0)
(0.00394051 0.000209725 0)
(0.253732 0.00966458 8.61887e-21)
(1.00494 0.069848 7.41413e-21)
(1.22594 0.103589 -2.60094e-21)
(1.30309 0.124387 0)
(1.29861 0.144022 -6.74499e-35)
(1.25815 0.159693 9.89132e-22)
(1.21648 0.172558 -1.80042e-21)
(1.17513 0.182234 0)
(1.13345 0.18776 3.75564e-35)
(1.09214 0.188036 -2.28016e-21)
(1.05818 0.183057 0)
(1.03794 0.176265 -2.7434e-21)
(1.03271 0.170872 -8.12195e-21)
(1.02208 0.16342 -3.85477e-21)
(0.9422 0.143297 -1.16351e-21)
(0.716104 0.101773 -6.91576e-22)
(0.405276 0.0532217 0)
(0.164644 0.0196673 4.83887e-22)
(0.0385535 0.00417861 5.73039e-22)
(-0.00125989 9.55495e-05 1.0477e-20)
(0.284768 0.025336 5.86389e-21)
(1.08452 0.113709 1.1719e-22)
(1.2846 0.153877 6.72364e-22)
(1.34069 0.174643 0)
(1.32423 0.194363 -3.33841e-21)
(1.27673 0.207973 -3.82256e-21)
(1.2291 0.218657 -1.79468e-21)
(1.18195 0.226045 -6.45258e-21)
(1.13473 0.229129 0)
(1.08826 0.226767 9.62956e-21)
(1.05028 0.219413 9.60545e-21)
(1.02747 0.21102 2.86055e-21)
(1.01935 0.204399 1.05199e-20)
(0.994817 0.193513 1.48882e-20)
(0.870074 0.162837 0)
(0.593963 0.107091 2.10047e-20)
(0.291405 0.0508909 3.01216e-20)
(0.0956713 0.016658 3.35142e-20)
(0.0081806 0.00223661 -3.84403e-20)
(-0.00596694 -0.000472338 -7.33429e-22)
(0.28662 0.0429884 0)
(1.13581 0.170348 9.02526e-22)
(1.325 0.215348 0)
(1.3703 0.235846 -4.06475e-21)
(1.34468 0.252543 0)
(1.29127 0.262254 -7.3456e-21)
(1.2381 0.269244 3.61748e-21)
(1.18549 0.27316 -1.28173e-20)
(1.1331 0.27288 -3.28724e-22)
(1.08191 0.267189 4.92719e-21)
(1.04039 0.257039 2.10356e-20)
(1.01537 0.246872 -2.66658e-23)
(1.00372 0.238465 -7.61995e-21)
(0.963805 0.223047 -1.39173e-20)
(0.800729 0.180041 1.65077e-20)
(0.499749 0.110028 -2.9216e-20)
(0.220386 0.0480705 -3.84696e-21)
(0.0571235 0.0135345 0)
(-0.00783952 -0.000147229 -3.51267e-24)
(-0.00831392 -0.00116005 0)
(0.280072 0.0577596 8.97536e-21)
(1.16427 0.230747 -4.78092e-21)
(1.35064 0.281503 -4.19461e-21)
(1.39027 0.302338 1.83426e-21)
(1.35842 0.315004 -3.0955e-21)
(1.30065 0.320128 1.51995e-20)
(1.24298 0.322667 7.45092e-21)
(1.18575 0.322366 0)
(1.12886 0.318056 -2.43024e-20)
(1.07354 0.30846 0)
(1.02897 0.295125 -1.09263e-20)
(1.00206 0.282917 -1.36345e-20)
(0.986719 0.272281 -8.24514e-21)
(0.932076 0.251225 -1.00586e-20)
(0.740504 0.195464 0)
(0.432125 0.113267 0)
(0.17498 0.046716 -2.48943e-20)
(0.032305 0.0106808 4.91273e-21)
(-0.0187281 -0.00280806 -2.89585e-21)
(-0.0100049 -0.00193459 -3.43041e-21)
(0.271999 0.0706531 -1.28434e-21)
(1.17733 0.291011 0)
(1.36523 0.348608 7.31041e-21)
(1.40165 0.370075 4.82484e-21)
(1.36554 0.378765 7.27229e-21)
(1.30463 0.379271 0)
(1.24353 0.377202 7.1148e-21)
(1.1826 0.372417 1.39356e-20)
(1.12198 0.363725 1.23011e-20)
(1.06317 0.349871 2.29252e-20)
(1.01601 0.333035 0)
(0.987483 0.318528 -2.91685e-20)
(0.968479 0.305229 -1.76429e-20)
(0.90116 0.277786 -1.04476e-20)
(0.690178 0.210026 6.41573e-20)
(0.384246 0.117352 7.60638e-21)
(0.144859 0.0462029 3.58258e-20)
(0.0144578 0.00767894 -1.69345e-19)
(-0.0276942 -0.00590129 1.00295e-19)
(-0.0116041 -0.00282615 -1.22427e-19)
(0.263973 0.0821575 2.28806e-21)
(1.18036 0.349138 1.3959e-22)
(1.37169 0.414704 -4.8947e-22)
(1.40612 0.43713 -3.95926e-21)
(1.36698 0.442075 -5.57611e-21)
(1.30376 0.438107 3.58039e-22)
(1.24001 0.431526 -7.68857e-21)
(1.17614 0.422269 1.42055e-20)
(1.11246 0.409103 -2.63147e-20)
(1.0507 0.39081 0)
(1.00137 0.370249 -1.31412e-20)
(0.971462 0.353177 -3.02282e-22)
(0.949146 0.33693 -1.92334e-20)
(0.87163 0.302785 0)
(0.648995 0.223866 -1.38218e-20)
(0.350293 0.122195 -3.27164e-20)
(0.123722 0.0461252 8.69847e-20)
(0.000352914 0.00437457 -8.56472e-20)
(-0.0359061 -0.00949921 1.21746e-19)
(-0.0132854 -0.00386741 -1.28104e-19)
(0.256882 0.0926494 -1.13767e-22)
(1.17692 0.404381 8.27996e-22)
(1.37219 0.47873 1.79664e-22)
(1.40515 0.502382 1.14243e-21)
(1.36382 0.503917 -2.69403e-21)
(1.29888 0.49571 0)
(1.23303 0.484813 -6.91062e-21)
(1.16674 0.47121 -1.47541e-20)
(1.10049 0.453616 -1.35693e-20)
(1.0362 0.430814 0)
(0.985007 0.406364 -1.34379e-20)
(0.953962 0.386481 -1.67674e-20)
(0.928825 0.36698 2.07329e-20)
(0.843691 0.326054 -1.26278e-20)
(0.615561 0.237017 -5.97322e-20)
(0.326087 0.12749 3.53391e-20)
(0.108504 0.0461148 1.04449e-20)
(-0.0112827 0.00062928 0)
(-0.0438409 -0.0136765 -1.16706e-19)
(-0.0151848 -0.00510865 -4.32721e-21)
(0.250926 0.102476 1.05304e-21)
(1.16935 0.456544 -1.4953e-21)
(1.36824 0.540126 -4.02343e-22)
(1.39996 0.565169 4.60866e-21)
(1.35701 0.563658 -9.0526e-21)
(1.29077 0.551526 1.28477e-20)
(1.22325 0.536576 1.48316e-20)
(1.15493 0.518819 -2.34855e-20)
(1.08642 0.496909 8.49125e-21)
(1.0199 0.469608 -5.56547e-20)
(0.967052 0.441135 -1.52356e-20)
(0.935023 0.4182 0)
(0.907549 0.395151 2.23925e-20)
(0.817151 0.347516 2.68299e-20)
(0.588192 0.249402 3.20523e-20)
(0.308633 0.132815 -3.81024e-20)
(0.0975988 0.0458495 -1.12538e-20)
(-0.0206105 -0.00354346 1.32508e-20)
(-0.0512052 -0.0183676 0)
(-0.0172757 -0.00656747 -9.32558e-21)
(0.246034 0.111717 -1.62667e-20)
(1.15941 0.505679 8.90663e-21)
(1.36113 0.598819 8.18947e-22)
(1.39158 0.625152 2.1416e-21)
(1.34736 0.620922 -3.53994e-21)
(1.28016 0.605197 -8.46679e-22)
(1.21128 0.586511 -1.62588e-20)
(1.1412 0.56486 -8.5044e-21)
(1.07069 0.538791 -2.3503e-20)
(1.00209 0.507061 5.16088e-23)
(0.947684 0.474466 -4.73953e-20)
(0.914739 0.448244 4.03258e-20)
(0.88532 0.421406 -2.45116e-20)
(0.791591 0.36714 2.94078e-20)
(0.565068 0.260998 0)
(0.295686 0.137864 -2.05819e-20)
(0.0900177 0.0453062 3.8999e-23)
(-0.0272538 -0.00786359 -5.7359e-20)
(-0.0572131 -0.0232491 -8.46857e-21)
(-0.0192987 -0.00816682 0)
(0.242171 0.120642 0)
(1.14814 0.552027 1.02701e-20)
(1.35176 0.654922 4.18484e-21)
(1.38082 0.682175 -1.28488e-21)
(1.33559 0.675509 -5.14693e-21)
(1.26766 0.656533 0)
(1.19764 0.634442 -7.06797e-21)
(1.12603 0.609185 -2.23177e-22)
(1.05367 0.579194 5.03213e-20)
(0.983076 0.543132 -7.5903e-21)
(0.927121 0.506379 -3.42395e-20)
(0.893209 0.476658 2.09066e-20)
(0.862094 0.445844 -4.16649e-22)
(0.766513 0.385036 3.12915e-20)
(0.544552 0.271696 1.89641e-20)
(0.2853 0.142624 -4.42732e-20)
(0.0849601 0.0448014 5.23058e-20)
(-0.0310851 -0.0118303 1.55015e-20)
(-0.061264 -0.0278238 6.4155e-20)
(-0.0209654 -0.00975526 -1.73554e-19)
(0.239254 0.12941 -5.41635e-21)
(1.13637 0.595764 7.20163e-21)
(1.34077 0.708032 -4.81303e-21)
(1.36835 0.736199 -3.25141e-22)
(1.32229 0.727335 0)
(1.25379 0.705433 -5.15143e-21)
(1.18282 0.680277 2.41072e-20)
(1.10983 0.651727 1.85201e-20)
(1.03572 0.618085 0)
(0.963134 0.57785 -1.09802e-19)
(0.905541 0.536923 9.27316e-20)
(0.870558 0.503567 0)
(0.837836 0.468615 2.86018e-20)
(0.741027 0.401476 -3.78791e-22)
(0.525432 0.281386 -6.10511e-20)
(0.276249 0.147055 2.38509e-20)
(0.0817696 0.0445409 0)
(-0.0324527 -0.0150939 8.36122e-20)
(-0.0631293 -0.0316628 0)
(-0.0220617 -0.0111823 -8.20373e-20)
(0.237196 0.13804 6.47901e-21)
(1.12458 0.637132 9.37664e-21)
(1.32865 0.758222 -4.76447e-21)
(1.35472 0.787242 0)
(1.30794 0.776403 -3.35259e-21)
(1.23901 0.751881 0)
(1.16721 0.723979 -2.32816e-20)
(1.09296 0.692463 -8.37796e-21)
(1.01716 0.655469 8.80257e-21)
(0.942532 0.61128 -5.43959e-20)
(0.883138 0.566201 9.56691e-21)
(0.846952 0.529103 0)
(0.812687 0.489882 -6.12274e-20)
(0.715207 0.416543 3.34831e-22)
(0.506583 0.290248 0)
(0.267503 0.151257 6.8927e-23)
(0.0795054 0.0445922 7.63697e-20)
(-0.0320265 -0.0174532 -7.22516e-20)
(-0.0630098 -0.0345761 2.13919e-20)
(-0.0225073 -0.0123169 0)
(0.235657 0.1465 0)
(1.113 0.676331 1.13032e-20)
(1.31585 0.805612 7.02662e-21)
(1.34035 0.835382 -5.30552e-22)
(1.29295 0.822757 -3.04405e-22)
(1.22367 0.7959 -1.16336e-20)
(1.15115 0.765559 8.90863e-21)
(1.07574 0.731399 -1.01272e-20)
(0.998276 0.691376 3.96381e-20)
(0.921507 0.643499 -8.73013e-20)
(0.860112 0.594342 -8.94564e-22)
(0.822545 0.553376 -2.68167e-20)
(0.786732 0.509751 9.95921e-20)
(0.688948 0.430299 -4.52051e-22)
(0.487413 0.29818 -4.76027e-20)
(0.258477 0.154996 -8.39875e-20)
(0.0775603 0.0449738 0)
(-0.0304966 -0.0189412 0)
(-0.0613168 -0.0364829 2.3125e-20)
(-0.0223606 -0.0131192 -1.3733e-20)
(0.234791 0.154972 9.08151e-21)
(1.10185 0.713336 -2.56269e-20)
(1.30271 0.850316 -7.53084e-21)
(1.32558 0.880713 0)
(1.27762 0.866465 -3.08008e-22)
(1.20808 0.837536 -9.73797e-21)
(1.13494 0.805049 2.09492e-20)
(1.05842 0.768558 3.93658e-20)
(0.97932 0.725849 5.15233e-20)
(0.900302 0.674597 -7.15163e-20)
(0.836654 0.621483 -8.05077e-20)
(0.797474 0.576508 7.1959e-20)
(0.760121 0.528266 0)
(0.662231 0.442688 -2.18679e-20)
(0.467769 0.304955 -5.1429e-20)
(0.248744 0.158069 -6.05567e-20)
(0.0753707 0.0454251 -7.13659e-20)
(-0.0285024 -0.0197037 2.11413e-20)
(-0.0586906 -0.0374719 -1.24645e-20)
(-0.0217551 -0.0135919 6.95481e-23)
(0.234179 0.163274 0)
(1.09145 0.74833 0)
(1.28945 0.892443 5.08046e-22)
(1.31066 0.923335 0)
(1.26222 0.907623 -1.74241e-21)
(1.19248 0.876864 5.84616e-21)
(1.11879 0.842497 0)
(1.04125 0.803975 4.58246e-21)
(0.960522 0.758925 8.61762e-20)
(0.879141 0.704659 -1.65098e-19)
(0.812944 0.647769 0)
(0.771854 0.598625 -4.66577e-20)
(0.732883 0.54537 -5.47693e-22)
(0.635144 0.453456 -3.47414e-22)
(0.447718 0.310341 5.54708e-20)
(0.238387 0.160222 5.16425e-23)
(0.0727642 0.0457965 -1.54087e-19)
(-0.0264861 -0.0199365 4.55474e-20)
(-0.0556603 -0.0377899 1.35234e-20)
(-0.0208603 -0.0137881 0)
(0.233805 0.171359 -3.63844e-20)
(1.08155 0.781635 -1.72744e-20)
(1.27619 0.932077 -2.22247e-20)
(1.2958 0.963356 2.1292e-20)
(1.24695 0.946313 -6.13596e-21)
(1.17707 0.913957 0)
(1.10291 0.87796 1.2384e-20)
(1.02441 0.837693 -1.03794e-20)
(0.942073 0.790647 8.02752e-22)
(0.85823 0.733765 1.22691e-20)
(0.789154 0.673348 1.05321e-19)
(0.745763 0.619884 -1.64221e-20)
(0.705022 0.561036 -6.20769e-20)
(0.607648 0.462246 -2.56477e-20)
(0.427108 0.313767 3.00134e-20)
(0.227896 0.161071 6.90049e-23)
(0.0700676 0.045917 4.15979e-20)
(-0.024594 -0.0197447 -9.82243e-20)
(-0.0526856 -0.0376456 1.16621e-19)
(-0.0198821 -0.0138224 1.72095e-20)
(0.233479 0.179212 1.3812e-20)
(1.07215 0.813314 -9.71618e-21)
(1.26311 0.96935 1.31513e-21)
(1.28115 1.0009 1.37336e-20)
(1.23197 0.98265 2.6925e-21)
(1.16199 0.948893 -9.61792e-21)
(1.08744 0.911498 3.31007e-21)
(1.00804 0.869747 -4.32758e-20)
(0.924145 0.821038 -9.56159e-20)
(0.837749 0.761959 -9.91955e-20)
(0.765466 0.698359 0)
(0.719262 0.640473 -7.27592e-20)
(0.676397 0.575287 8.9966e-20)
(0.579561 0.468637 0)
(0.406489 0.314475 -6.45869e-20)
(0.217979 0.159938 3.81555e-20)
(0.068382 0.0454176 -4.48154e-20)
(-0.0223923 -0.0189457 -5.30075e-20)
(-0.0503728 -0.0371625 -9.41245e-20)
(-0.0191915 -0.0138834 -7.4344e-20)
(0.233469 0.186924 -1.56485e-20)
(1.06313 0.843377 1.041e-20)
(1.25028 1.00434 2.34493e-20)
(1.26684 1.03608 2.01599e-20)
(1.21738 1.01674 -4.81938e-21)
(1.14737 0.981765 -4.27635e-21)
(1.07249 0.943165 1.1369e-20)
(0.992277 0.900188 -4.44059e-20)
(0.906861 0.85013 -5.69624e-20)
(0.817869 0.789287 1.04568e-19)
(0.742046 0.722925 2.33973e-19)
(0.692413 0.660622 0)
(0.646829 0.588274 0)
(0.550435 0.47231 -2.96342e-20)
(0.385663 0.311417 0)
(0.209724 0.155149 8.20607e-20)
(0.0702548 0.0432711 9.65816e-20)
(-0.0172384 -0.0183423 0)
(-0.048176 -0.0368706 0)
(-0.0194822 -0.0144552 8.00965e-20)
(0.233304 0.194201 1.77973e-20)
(1.05451 0.871839 1.40717e-20)
(1.2378 1.03716 1.7054e-20)
(1.25294 1.06901 -1.9474e-20)
(1.20328 1.04868 -6.58313e-21)
(1.13328 1.01265 2.98175e-21)
(1.05816 0.973025 -1.5544e-20)
(0.977206 0.929048 -2.37699e-22)
(0.890338 0.87794 -1.06004e-21)
(0.798731 0.815763 -6.90999e-22)
(0.719077 0.747146 1.21149e-19)
(0.665315 0.680564 0)
(0.616135 0.600301 9.23577e-20)
(0.519574 0.473226 6.38756e-20)
(0.363669 0.303569 1.51814e-19)
(0.202922 0.143858 4.44342e-20)
(0.0785756 0.0332531 -5.20696e-20)
(-0.000448344 -0.025698 -3.07148e-20)
(-0.0352137 -0.0395886 0)
(-0.0187028 -0.0153019 8.64497e-20)
(0.233522 0.201518 -4.02905e-20)
(1.04626 0.898809 0)
(1.22568 1.06787 2.01143e-20)
(1.23949 1.09979 -1.65345e-20)
(1.18973 1.07858 9.25333e-21)
(1.11977 1.04164 -6.34026e-22)
(1.04449 1.00113 2.92054e-20)
(0.962891 0.956361 -3.63243e-21)
(0.874651 0.904477 0)
(0.780458 0.841372 -1.16567e-19)
(0.696746 0.771087 -2.65485e-19)
(0.638106 0.700535 1.09516e-20)
(0.584228 0.611787 1.29022e-19)
(0.486285 0.471861 0)
(0.33849 0.290809 1.03199e-19)
(0.193746 0.122544 0)
(0.0901267 0.00349382 0)
(0.035951 -0.0631577 -3.32345e-20)
(0.0251378 -0.0582656 0)
(0.0188269 -0.00222157 2.32621e-20)
(0.233395 0.208302 -4.50259e-20)
(1.03835 0.924591 0)
(1.21389 1.09668 3.3619e-20)
(1.22646 1.12867 0)
(1.1767 1.10671 -5.73074e-21)
(1.1068 1.06901 0)
(1.03145 1.0278 1.22327e-21)
(0.949241 0.982459 6.20748e-21)
(0.859682 0.930094 7.2786e-21)
(0.762884 0.866474 -1.2859e-19)
(0.674861 0.795192 7.99097e-21)
(0.610465 0.721237 8.89595e-20)
(0.550503 0.623602 1.26671e-19)
(0.449281 0.468978 1.69778e-20)
(0.307332 0.274445 8.15627e-20)
(0.174759 0.0917314 0)
(0.0871408 -0.048876 1.10028e-19)
(0.0515296 -0.092499 -6.45996e-20)
(0.0243911 0.0368316 7.56128e-20)
(-0.0389221 0.460973 -8.98229e-20)
(0.233288 0.21493 3.73199e-20)
(1.03056 0.94902 5.62744e-20)
(1.20238 1.12391 0)
(1.21369 1.15608 9.99668e-22)
(1.16399 1.13365 1.71738e-20)
(1.09408 1.09546 -6.44477e-21)
(1.01869 1.0538 9.52081e-21)
(0.935831 1.00827 0)
(0.844881 0.955867 4.7811e-20)
(0.745302 0.892346 -6.66981e-21)
(0.65245 0.820905 0)
(0.580949 0.744262 0)
(0.512545 0.636819 1.14549e-19)
(0.405449 0.464788 -5.26931e-20)
(0.266522 0.256208 -8.35361e-20)
(0.140131 0.0544622 0)
(0.0532583 -0.0175812 5.61721e-20)
(0.00306315 0.452912 -6.5018e-20)
(0.0282851 1.94267 -3.64505e-20)
(0.054425 2.8324 -4.48156e-20)
(0.232912 0.221052 -2.81009e-20)
(1.02294 0.972275 -7.23682e-20)
(1.19116 1.14957 2.00238e-20)
(1.20121 1.18191 1.62818e-20)
(1.15167 1.1592 0)
(1.08173 1.1207 -6.65873e-21)
(1.00645 1.07885 1.19559e-20)
(0.922871 1.03337 -2.98071e-21)
(0.830554 0.981293 7.22614e-21)
(0.728142 0.918414 1.23331e-19)
(0.630199 0.847654 1.3663e-19)
(0.550605 0.769647 1.01671e-19)
(0.471082 0.652074 1.16498e-19)
(0.355522 0.459009 -1.25601e-19)
(0.221006 0.240647 -1.27566e-19)
(0.0939705 0.115837 0)
(0.0346374 0.91182 0)
(0.0804259 2.59444 3.12618e-20)
(0.0836379 3.21829 0)
(0.0856357 3.39139 8.13759e-20)
(0.235366 0.226833 0)
(1.01585 0.994757 0)
(1.17992 1.17352 0)
(1.18881 1.20602 4.94913e-21)
(1.1394 1.18312 1.57525e-20)
(1.06954 1.1446 -7.43373e-21)
(0.994647 1.10284 7.32191e-21)
(0.910295 1.05762 -2.89229e-21)
(0.816639 1.00619 5.97798e-20)
(0.711402 0.944515 -1.57304e-21)
(0.60822 0.875247 2.71934e-19)
(0.519826 0.797539 -1.18513e-20)
(0.426036 0.670627 1.4305e-20)
(0.300888 0.450343 1.83659e-20)
(0.163478 0.257618 -7.77846e-22)
(0.0805259 1.03077 3.46801e-22)
(0.115161 2.77752 -1.6865e-19)
(0.119618 3.30276 -6.33483e-20)
(0.111888 3.42295 3.331e-20)
(0.102797 3.44238 -3.76569e-20)
(0.158456 0.172346 1.71831e-20)
(1.00442 1.01922 0)
(1.16844 1.19598 -4.10927e-20)
(1.17694 1.22885 -4.45255e-20)
(1.12762 1.20589 3.73677e-20)
(1.05822 1.16763 8.78992e-21)
(0.983074 1.12578 -7.05827e-21)
(0.898137 1.08109 3.07582e-20)
(0.803221 1.03065 -4.90637e-20)
(0.695322 0.970766 0)
(0.58685 0.903769 1.34859e-19)
(0.489181 0.827785 -8.39799e-20)
(0.38149 0.700565 0)
(0.238167 0.444523 1.80439e-20)
(0.116659 0.714133 4.23095e-20)
(0.129837 2.58808 -4.74008e-20)
(0.175849 3.32683 5.36081e-20)
(0.160354 3.43073 2.87683e-20)
(0.133908 3.44964 3.24614e-20)
(0.115746 3.45859 5.16293e-20)
(0.269734 0.26406 -3.3143e-20)
(0.985972 1.02867 0)
(1.14937 1.22157 4.43237e-20)
(1.16163 1.26 4.90149e-20)
(1.10954 1.23946 -4.19954e-20)
(1.03954 1.20153 -1.36049e-20)
(0.963175 1.16122 3.67116e-21)
(0.877552 1.11776 2.46364e-21)
(0.780936 1.06951 4.64964e-20)
(0.669489 1.0137 1.07683e-19)
(0.554001 0.952841 7.57687e-21)
(0.441486 0.877784 7.55658e-20)
(0.297011 0.724673 1.37572e-20)
(0.196666 0.867142 -1.74862e-20)
(0.202984 2.47192 -3.88776e-20)
(0.253999 3.32858 3.80151e-20)
(0.236782 3.45311 -4.15379e-20)
(0.20341 3.47258 -2.3798e-20)
(0.170805 3.49748 -2.14252e-20)
(0.126214 3.49337 -3.09889e-21)
(0.259699 0.262806 0)
(0.982586 1.05126 1.28946e-20)
(1.14016 1.24506 -9.12653e-21)
(1.15009 1.28356 -5.84269e-21)
(1.09798 1.26277 -2.89966e-20)
(1.02795 1.22501 1.41822e-20)
(0.951207 1.18489 -7.78118e-22)
(0.865214 1.14226 2.17306e-21)
(0.767745 1.09551 -4.83209e-20)
(0.654342 1.04268 -2.64155e-21)
(0.534699 0.986705 -2.45636e-19)
(0.413893 0.913598 1.08796e-20)
(0.274761 0.798297 -1.30804e-20)
(0.232722 1.52879 -1.61144e-20)
(0.29691 3.14478 3.66141e-21)
(0.308511 3.45348 1.12927e-22)
(0.26787 3.50049 6.16778e-20)
(0.234618 3.52523 3.11011e-20)
(0.18933 3.54586 -9.83625e-21)
(0.139963 3.54325 -1.53956e-20)
(0.245608 0.26066 3.29886e-20)
(0.978258 1.07636 8.73496e-20)
(1.13057 1.27064 -2.59979e-20)
(1.13817 1.30876 -2.19336e-20)
(1.08594 1.28755 0)
(1.01597 1.24981 2.60674e-20)
(0.939129 1.20994 1.92189e-21)
(0.853026 1.16812 1.85649e-21)
(0.755026 1.12301 -5.45185e-21)
(0.640239 1.07353 -9.75706e-20)
(0.51745 1.02314 -1.13572e-19)
(0.389526 0.950825 -8.90757e-20)
(0.276273 0.951316 -9.87045e-20)
(0.299849 2.32482 1.01607e-19)
(0.378955 3.38177 8.52875e-20)
(0.348777 3.50789 0)
(0.301713 3.54644 0)
(0.265486 3.58095 -7.82872e-21)
(0.222776 3.62593 0)
(0.153618 3.61209 -1.18619e-20)
(0.2357 0.262434 -4.91431e-20)
(0.971994 1.10228 -7.39229e-20)
(1.11958 1.29745 0)
(1.12498 1.33479 1.21558e-21)
(1.07264 1.31299 -3.14256e-20)
(1.00289 1.27519 4.25371e-20)
(0.926283 1.23563 2.98926e-21)
(0.840303 1.19455 8.05017e-22)
(0.742039 1.15109 -3.34435e-20)
(0.626336 1.10503 4.79751e-21)
(0.501405 1.06035 0)
(0.367299 0.991467 0)
(0.298158 1.25711 -8.96874e-20)