/*--------------------------------*- C++ -*----------------------------------*\
  =========                 |
  \\      /  F ield         | OpenFOAM: The Open Source CFD Toolbox
   \\    /   O peration     | Website:  https://openfoam.org
    \\  /    A nd           | Version:  6
     \\/     M anipulation  |
\*---------------------------------------------------------------------------*/
FoamFile
{
    version     2.0;
    format      ascii;
    class       volVectorField;
    location    "77.3";
    object      U;
}
// * * * * * * * * * * * * * * * * * * * * * * * * * * * * * * * * * * * * * //

dimensions      [0 1 -1 0 0 0 0];

internalField   nonuniform List<vector> 
8800
(
(0.987184 -0.0766657 0)
(1.00189 -0.0551909 0)
(0.999723 -0.0285491 0)
(1.00003 -0.0151441 0)
(1.0001 -0.00854512 0)
(1.00012 -0.0050468 0)
(1.00007 -0.00300132 0)
(1.00003 -0.00170104 0)
(0.999996 -0.000794846 0)
(1.00006 -7.90151e-05 0)
(0.999967 0.000652211 0)
(0.999983 0.00142088 0)
(1.00004 0.00243775 0)
(1.00006 0.0040036 0)
(1.00004 0.00663516 0)
(1.00003 0.0113736 0)
(0.999923 0.0208163 0)
(0.999161 0.0386715 0)
(1.0071 0.0724576 0)
(0.771214 0.0366614 0)
(0.363071 -0.0160172 0)
(1.04331 -0.0768159 0)
(1.08459 -0.070447 0)
(1.04519 -0.0535427 0)
(1.02329 -0.0388945 0)
(1.01202 -0.0262168 0)
(1.00643 -0.0168552 0)
(1.00359 -0.0103231 0)
(1.00215 -0.00566218 0)
(1.00144 -0.00200215 0)
(1.00129 0.0013219 0)
(1.00166 0.00470766 0)
(1.00266 0.00863997 0)
(1.00467 0.0139654 0)
(1.0086 0.0216709 0)
(1.01655 0.0326393 0)
(1.03249 0.0465519 0)
(1.06266 0.0616681 0)
(1.09187 0.0761022 0)
(0.838668 0.0565626 0)
(0.21685 -0.00242963 0)
(1.0759 -0.0501345 0)
(1.09988 -0.0483085 0)
(1.06464 -0.0404604 0)
(1.04004 -0.033601 0)
(1.02392 -0.0260775 0)
(1.01412 -0.0184921 0)
(1.00856 -0.0116689 0)
(1.00558 -0.00579682 0)
(1.00431 -0.000375108 0)
(1.00464 0.00487453 0)
(1.00658 0.0102686 0)
(1.01061 0.0163516 0)
(1.01794 0.023366 0)
(1.03052 0.0308303 0)
(1.05061 0.0378586 0)
(1.08034 0.0445404 0)
(1.10626 0.0513533 0)
(0.942514 0.0416214 0)
(0.216139 0.00246214 0)
(0.17518 -0.000816257 0)
(1.0177 -0.0354815 0)
(1.1052 -0.0413745 0)
(1.07827 -0.0360566 0)
(1.05347 -0.0301191 0)
(1.03621 -0.0245396 0)
(1.024 -0.0188067 0)
(1.01588 -0.0127216 0)
(1.01101 -0.00652755 0)
(1.0088 -0.000187216 0)
(1.00935 0.0060716 0)
(1.01262 0.0120741 0)
(1.01887 0.0178978 0)
(1.02876 0.0234592 0)
(1.04318 0.0287579 0)
(1.06371 0.0342381 0)
(1.09355 0.0402196 0)
(1.09339 0.0419773 0)
(0.827103 0.0229209 0)
(0.173981 0.00085374 0)
(0.153985 -0.000610067 0)
(0.956213 -0.0254527 0)
(1.10347 -0.035118 0)
(1.08768 -0.0326374 0)
(1.06173 -0.0279796 0)
(1.04412 -0.0229499 0)
(1.03165 -0.0176966 0)
(1.02279 -0.0121574 0)
(1.01697 -0.00621268 0)
(1.0141 0.000264281 0)
(1.01476 0.00672989 0)
(1.01874 0.012616 0)
(1.02579 0.0178957 0)
(1.03608 0.0227975 0)
(1.05063 0.027554 0)
(1.07186 0.0320801 0)
(1.10005 0.0360092 0)
(1.06804 0.0340587 0)
(0.739442 0.0143256 0)
(0.152177 0.00065262 0)
(0.139623 -0.000466176 0)
(0.899345 -0.0190669 0)
(1.09581 -0.0300606 0)
(1.09576 -0.0291624 0)
(1.06927 -0.0254233 0)
(1.05083 -0.0212752 0)
(1.0379 -0.0164929 0)
(1.02878 -0.0111958 0)
(1.02265 -0.00544055 0)
(1.01949 0.000897229 0)
(1.02009 0.00721449 0)
(1.02418 0.0128515 0)
(1.03136 0.0177981 0)
(1.04186 0.0222438 0)
(1.05697 0.0262057 0)
(1.07916 0.0296609 0)
(1.10223 0.0322782 0)
(1.03589 0.0281606 0)
(0.672798 0.0102284 0)
(0.137068 0.000515248 0)
(0.129097 -0.000360614 0)
(0.849808 -0.0146995 0)
(1.08346 -0.0259178 0)
(1.10146 -0.026198 0)
(1.07614 -0.0229015 0)
(1.05717 -0.0192459 0)
(1.04378 -0.0149879 0)
(1.0343 -0.0100501 0)
(1.02792 -0.00450185 0)
(1.02457 0.00166013 0)
(1.02501 0.00776674 0)
(1.02906 0.0131263 0)
(1.03634 0.0176565 0)
(1.04711 0.0214941 0)
(1.06262 0.0247909 0)
(1.08525 0.0277242 0)
(1.1013 0.0294672 0)
(1.00088 0.0236622 0)
(0.620855 0.00787071 0)
(0.125631 0.00041834 0)
(0.121074 -0.000279728 0)
(0.807742 -0.0115356 0)
(1.06824 -0.0222949 0)
(1.10502 -0.0235426 0)
(1.08241 -0.0206556 0)
(1.06303 -0.0172113 0)
(1.04936 -0.0132564 0)
(1.0396 -0.00865232 0)
(1.03293 -0.00337262 0)
(1.02932 0.00257335 0)
(1.02957 0.00843343 0)
(1.03357 0.0134476 0)
(1.04091 0.0175029 0)
(1.05177 0.0208296 0)
(1.06749 0.023714 0)
(1.09046 0.0263439 0)
(1.09746 0.0271857 0)
(0.965477 0.020143 0)
(0.579054 0.00634408 0)
(0.116501 0.000348376 0)
(0.114867 -0.000216263 0)
(0.772374 -0.00916588 0)
(1.05155 -0.0191012 0)
(1.10744 -0.02108 0)
(1.08831 -0.0185587 0)
(1.06854 -0.0152546 0)
(1.05463 -0.0114579 0)
(1.04467 -0.00705904 0)
(1.03775 -0.00201393 0)
(1.03385 0.00368302 0)
(1.03386 0.00924416 0)
(1.03772 0.0138811 0)
(1.045 0.0175118 0)
(1.05584 0.0204462 0)
(1.07176 0.0230054 0)
(1.09437 0.025287 0)
(1.09076 0.0253087 0)
(0.930967 0.0174385 0)
(0.544371 0.00530643 0)
(0.108949 0.000298343 0)
(0.110043 -0.000165083 0)
(0.742766 -0.00732313 0)
(1.03447 -0.0162651 0)
(1.10893 -0.0187531 0)
(1.09393 -0.0165326 0)
(1.07388 -0.0133157 0)
(1.0597 -0.0096026 0)
(1.04954 -0.00531863 0)
(1.04239 -0.000441563 0)
(1.03818 0.00502057 0)
(1.03788 0.0102724 0)
(1.0415 0.0145483 0)
(1.04863 0.0178013 0)
(1.05942 0.0203872 0)
(1.07553 0.0226531 0)
(1.09698 0.0245497 0)
(1.08158 0.0237898 0)
(0.897902 0.0153987 0)
(0.514748 0.00458862 0)
(0.102491 0.000263549 0)
(0.106319 -0.000122411 0)
(0.718103 -0.00583302 0)
(1.01782 -0.0137144 0)
(1.10962 -0.0164974 0)
(1.09946 -0.0145423 0)
(1.07915 -0.0113297 0)
(1.06467 -0.00763962 0)
(1.05428 -0.00341091 0)
(1.04687 0.0013588 0)
(1.04232 0.00662472 0)
(1.04163 0.011586 0)
(1.04493 0.0155248 0)
(1.05186 0.0184161 0)
(1.06258 0.0206643 0)
(1.07885 0.0226639 0)
(1.09823 0.0241461 0)
(1.07029 0.0226324 0)
(0.866377 0.0139091 0)
(0.488717 0.00410101 0)
(0.0967834 0.000241014 0)
(0.103509 -8.52854e-05 0)
(0.697747 -0.00457935 0)
(1.00222 -0.0113818 0)
(1.10966 -0.0142777 0)
(1.10485 -0.012503 0)
(1.08443 -0.00924748 0)
(1.06964 -0.00552179 0)
(1.05898 -0.00128568 0)
(1.05124 0.00343428 0)
(1.04626 0.00855637 0)
(1.0451 0.013265 0)
(1.04802 0.0168876 0)
(1.0547 0.0194261 0)
(1.06531 0.02134 0)
(1.08171 0.0230719 0)
(1.09843 0.0241728 0)
(1.05714 0.0218476 0)
(0.836213 0.012882 0)
(0.46518 0.00378816 0)
(0.0915643 0.000228288 0)
(0.101495 -5.10024e-05 0)
(0.681231 -0.0034746 0)
(0.988127 -0.00919579 0)
(1.10927 -0.0120044 0)
(1.11009 -0.0103305 0)
(1.08982 -0.00700387 0)
(1.07467 -0.00317815 0)
(1.06368 0.00113099 0)
(1.05555 0.0058631 0)
(1.05006 0.0108927 0)
(1.04832 0.0153758 0)
(1.05077 0.0186877 0)
(1.05716 0.0208664 0)
(1.06764 0.0224466 0)
(1.08406 0.0238999 0)
(1.09763 0.0245853 0)
(1.04226 0.0214471 0)
(0.807047 0.012247 0)
(0.443257 0.00361295 0)
(0.0866257 0.000223424 0)
(0.100217 -1.73047e-05 0)
(0.668261 -0.00244975 0)
(0.975914 -0.00708242 0)
(1.10877 -0.0096208 0)
(1.11531 -0.00796314 0)
(1.09538 -0.00452139 0)
(1.07985 -0.00053415 0)
(1.06847 0.0039161 0)
(1.05985 0.00872708 0)
(1.05373 0.0137158 0)
(1.05131 0.0180047 0)
(1.05321 0.0210219 0)
(1.05923 0.0228345 0)
(1.06954 0.0240671 0)
(1.08595 0.0252297 0)
(1.0956 0.0254261 0)
(1.02569 0.0214293 0)
(0.778427 0.0119502 0)
(0.422236 0.00354989 0)
(0.0818027 0.000224945 0)
(0.0996627 1.87584e-05 0)
(0.658692 -0.00145088 0)
(0.965898 -0.00496842 0)
(1.1085 -0.0070643 0)
(1.12065 -0.0053312 0)
(1.10121 -0.00172039 0)
(1.08526 0.00250082 0)
(1.07342 0.00716643 0)
(1.06422 0.0121251 0)
(1.05733 0.0171318 0)
(1.05407 0.0212556 0)
(1.0553 0.0239786 0)
(1.0609 0.0254189 0)
(1.071 0.0262902 0)
(1.08729 0.0271279 0)
(1.09222 0.0267547 0)
(1.00737 0.0218286 0)
(0.749845 0.0119681 0)
(0.401516 0.00358517 0)
(0.0769583 0.000232237 0)
(0.0998534 5.03838e-05 0)
(0.652516 -0.000426548 0)
(0.958386 -0.00277724 0)
(1.1088 -0.00426289 0)
(1.12627 -0.00234108 0)
(1.10741 0.00151594 0)
(1.091 0.00605033 0)
(1.07861 0.0110089 0)
(1.06869 0.0161922 0)
(1.06089 0.0212708 0)
(1.05662 0.0252487 0)
(1.05705 0.027676 0)
(1.06214 0.0287424 0)
(1.07199 0.029222 0)
(1.08783 0.0296813 0)
(1.08718 0.0286243 0)
(0.987079 0.0226885 0)
(0.720721 0.0122868 0)
(0.380539 0.00371101 0)
(0.0719671 0.000244613 0)
(0.100863 9.99066e-05 0)
(0.649852 0.000662253 0)
(0.953694 -0.000429631 0)
(1.11005 -0.00114215 0)
(1.13239 0.00109464 0)
(1.11411 0.00528753 0)
(1.09718 0.0102241 0)
(1.08412 0.0155702 0)
(1.07334 0.0210611 0)
(1.06442 0.0262771 0)
(1.05896 0.0301408 0)
(1.05843 0.0322558 0)
(1.06292 0.032933 0)
(1.07244 0.0329977 0)
(1.08743 0.0330313 0)
(1.08025 0.0311293 0)
(0.964494 0.0240367 0)
(0.690418 0.0128938 0)
(0.358783 0.00391774 0)
(0.0667193 0.00026115 0)
(0.102843 0.000155327 0)
(0.650994 0.00181506 0)
(0.952179 0.00214752 0)
(1.11269 0.00240579 0)
(1.1392 0.00509583 0)
(1.12143 0.00974837 0)
(1.10392 0.0151985 0)
(1.09006 0.0210353 0)
(1.07823 0.026923 0)
(1.06796 0.0323307 0)
(1.06107 0.0360883 0)
(1.05942 0.0378484 0)
(1.06319 0.0381309 0)
(1.07231 0.037745 0)
(1.08582 0.0372678 0)
(1.07112 0.0343608 0)
(0.939151 0.0259179 0)
(0.658249 0.0137844 0)
(0.33576 0.00419797 0)
(0.0611216 0.000280943 0)
(0.105881 0.000219223 0)
(0.656435 0.00327619 0)
(0.954281 0.0050819 0)
(1.1172 0.00652696 0)
(1.14697 0.00981897 0)
(1.12958 0.0150872 0)
(1.11137 0.0211762 0)
(1.09654 0.0276229 0)
(1.08343 0.0340007 0)
(1.07153 0.0396439 0)
(1.06294 0.0432761 0)
(1.05999 0.0446576 0)
(1.06288 0.0445093 0)
(1.07153 0.0436234 0)
(1.08292 0.0426156 0)
(1.05936 0.0384286 0)
(0.91043 0.0283721 0)
(0.62347 0.0149458 0)
(0.31101 0.00453965 0)
(0.0550991 0.000302545 0)
(0.110268 0.000304226 0)
(0.666559 0.00498507 0)
(0.960505 0.00856244 0)
(1.12408 0.0113714 0)
(1.15598 0.0154553 0)
(1.13877 0.0215195 0)
(1.11972 0.028399 0)
(1.10369 0.0355904 0)
(1.08898 0.0425519 0)
(1.07512 0.0484745 0)
(1.06453 0.0519556 0)
(1.06005 0.0528913 0)
(1.06194 0.0522634 0)
(1.07001 0.0508167 0)
(1.07875 0.04919 0)
(1.04442 0.0434455 0)
(0.877542 0.0314149 0)
(0.585283 0.0163474 0)
(0.284125 0.00492259 0)
(0.0486057 0.000323798 0)
(0.116351 0.000418349 0)
(0.6822 0.00712345 0)
(0.971529 0.012769 0)
(1.1339 0.0171752 0)
(1.16659 0.0222815 0)
(1.14925 0.0293963 0)
(1.12914 0.0372451 0)
(1.1116 0.0453159 0)
(1.09494 0.0529313 0)
(1.07869 0.0591055 0)
(1.06576 0.062338 0)
(1.05943 0.0627199 0)
(1.06031 0.0615844 0)
(1.06778 0.0595126 0)
(1.07303 0.0570874 0)
(1.02554 0.0494847 0)
(0.839524 0.0350247 0)
(0.542888 0.0179265 0)
(0.254802 0.00531427 0)
(0.0416403 0.000341719 0)
(0.124654 0.000577791 0)
(0.704274 0.00991595 0)
(0.988207 0.0180064 0)
(1.14734 0.0242792 0)
(1.17932 0.0306851 0)
(1.16138 0.0391633 0)
(1.13987 0.0481797 0)
(1.12037 0.057259 0)
(1.10126 0.0655457 0)
(1.08216 0.0718778 0)
(1.06654 0.074702 0)
(1.05815 0.0743865 0)
(1.05789 0.0726341 0)
(1.0647 0.0698488 0)
(1.06524 0.0664232 0)
(1.00173 0.0565912 0)
(0.795251 0.0391152 0)
(0.495553 0.0195698 0)
(0.22292 0.00566654 0)
(0.0342658 0.000352457 0)
(0.135916 0.000807653 0)
(0.734103 0.0137546 0)
(1.0117 0.0247474 0)
(1.16517 0.0332326 0)
(1.19478 0.0412583 0)
(1.17551 0.0514793 0)
(1.15206 0.0618673 0)
(1.13002 0.0720244 0)
(1.10785 0.080895 0)
(1.08538 0.0871646 0)
(1.0667 0.0893091 0)
(1.0561 0.0881056 0)
(1.05465 0.0856815 0)
(1.06034 0.0819931 0)
(1.05467 0.0773476 0)
(0.971698 0.0647025 0)
(0.743479 0.0434758 0)
(0.442753 0.0210935 0)
(0.188652 0.00591374 0)
(0.0266272 0.000351614 0)
(0.151417 0.00117029 0)
(0.77369 0.0192583 0)
(1.04367 0.0337763 0)
(1.18835 0.04498 0)
(1.21381 0.0552567 0)
(1.19198 0.0674323 0)
(1.1658 0.0793098 0)
(1.14039 0.0904294 0)
(1.11444 0.0995619 0)
(1.08806 0.105307 0)
(1.06603 0.106348 0)
(1.05311 0.104006 0)
(1.05049 0.100807 0)
(1.05451 0.0963499 0)
(1.04034 0.0898743 0)
(0.933782 0.0735697 0)
(0.683015 0.047745 0)
(0.384426 0.0222378 0)
(0.152597 0.00597826 0)
(0.0189684 0.000334888 0)
(0.173364 0.00179724 0)
(0.826279 0.02757 0)
(1.08682 0.0466477 0)
(1.21803 0.0613952 0)
(1.23692 0.0745497 0)
(1.21089 0.0886545 0)
(1.18079 0.101837 0)
(1.15103 0.113428 0)
(1.12057 0.122147 0)
(1.0898 0.126661 0)
(1.06426 0.12602 0)
(1.04902 0.122185 0)
(1.04525 0.118005 0)
(1.04719 0.112579 0)
(1.02085 0.103841 0)
(0.885915 0.0826854 0)
(0.61307 0.0513676 0)
(0.321376 0.0226899 0)
(0.115927 0.00578556 0)
(0.0116353 0.000298553 0)
(0.205154 0.00317642 0)
(0.897651 0.0413423 0)
(1.14459 0.0671934 0)
(1.25456 0.0860509 0)
(1.2639 0.102028 0)
(1.23159 0.117516 0)
(1.19621 0.131058 0)
(1.16111 0.141981 0)
(1.12554 0.149166 0)
(1.09012 0.151438 0)
(1.06105 0.148379 0)
(1.04363 0.142654 0)
(1.0388 0.137302 0)
(1.03771 0.130775 0)
(0.994201 0.118769 0)
(0.825723 0.0911581 0)
(0.534087 0.053632 0)
(0.256031 0.0222224 0)
(0.0806335 0.00530745 0)
(0.00511943 0.000238616 0)
(0.248525 0.00945902 9.12349e-21)
(0.991726 0.0686097 7.83089e-21)
(1.21456 0.102059 -2.73756e-21)
(1.29486 0.122679 0)
(1.29179 0.141388 -7.01307e-35)
(1.25185 0.156419 1.02642e-21)
(1.21044 0.168508 -1.85777e-21)
(1.16955 0.177312 0)
(1.12857 0.181868 3.84498e-35)
(1.08828 0.181099 -2.3248e-21)
(1.05553 0.175174 0)
(1.03591 0.167488 -2.7805e-21)
(1.03046 0.161298 -8.22031e-21)
(1.02448 0.15423 -3.89623e-21)
(0.955492 0.136962 -1.17485e-21)
(0.74631 0.0998161 -6.98316e-22)
(0.44112 0.0545324 0)
(0.18746 0.0211527 4.88914e-22)
(0.0469026 0.00474269 5.79016e-22)
(-0.000606576 0.000141169 1.05814e-20)
(0.278616 0.0248603 6.43485e-21)
(1.06969 0.111718 1.13421e-22)
(1.27227 0.151738 7.18173e-22)
(1.33121 0.172309 0)
(1.31634 0.191184 -3.51152e-21)
(1.26935 0.204104 -4.00342e-21)
(1.222 0.213932 -1.86157e-21)
(1.17532 0.220326 -6.65731e-21)
(1.12881 0.222267 0)
(1.08338 0.218602 9.84315e-21)
(1.04668 0.209988 9.78947e-21)
(1.02469 0.200476 2.91091e-21)
(1.01675 0.192713 1.0664e-20)
(0.999792 0.183199 1.50523e-20)
(0.892926 0.157222 0)
(0.636747 0.107871 2.12401e-20)
(0.331916 0.0546263 3.04745e-20)
(0.116917 0.0192261 3.39112e-20)
(0.0138487 0.00302002 -3.88984e-20)
(-0.00609142 -0.000457766 -7.42029e-22)
(0.280134 0.041979 0)
(1.11952 0.167452 1.04973e-21)
(1.3116 0.212484 0)
(1.35967 0.232733 -4.41614e-21)
(1.33575 0.248766 0)
(1.28283 0.257776 -7.77303e-21)
(1.22993 0.263858 3.77597e-21)
(1.17778 0.266681 -1.33051e-20)
(1.12606 0.265099 -3.2287e-22)
(1.07586 0.257827 5.06141e-21)
(1.0356 0.246043 2.14663e-20)
(1.01152 0.234395 -3.41721e-23)
(1.0008 0.224808 -7.72971e-21)
(0.972462 0.21163 -1.40938e-20)
(0.834715 0.176218 1.67128e-20)
(0.554537 0.114451 -2.95946e-20)
(0.264348 0.054335 -3.90208e-21)
(0.0773571 0.0171067 0)
(-0.00431644 0.000696362 -3.69994e-24)
(-0.00914876 -0.00124486 0)
(0.273488 0.056341 1.21969e-20)
(1.1467 0.226865 -6.14256e-21)
(1.33615 0.277802 -4.99225e-21)
(1.37865 0.298444 2.03565e-21)
(1.34853 0.310644 -3.4276e-21)
(1.29119 0.315073 1.61858e-20)
(1.23375 0.316683 7.82725e-21)
(1.17691 0.315227 0)
(1.12059 0.309466 -2.51652e-20)
(1.06613 0.298031 0)
(1.02269 0.282618 -1.1203e-20)
(0.996769 0.268474 -1.39012e-20)
(0.983395 0.25658 -8.38084e-21)
(0.945146 0.238686 -1.01982e-20)
(0.786274 0.193921 0)
(0.498485 0.121455 0)
(0.224404 0.0555201 -2.53007e-20)
(0.0531096 0.0151666 4.99767e-21)
(-0.0172503 -0.00217538 -2.94192e-21)
(-0.0118427 -0.00224825 -3.48524e-21)
(0.265472 0.068924 -3.51811e-21)
(1.15874 0.286146 0)
(1.34979 0.344072 9.44721e-21)
(1.38917 0.365543 5.53238e-21)
(1.35476 0.373899 8.00515e-21)
(1.29423 0.373737 0)
(1.23328 0.370735 7.56348e-21)
(1.17263 0.364764 1.45946e-20)
(1.11241 0.35451 1.2814e-20)
(1.05421 0.338556 2.3697e-20)
(1.00792 0.319183 0)
(0.980272 0.302185 -2.98497e-20)
(0.964397 0.287557 -1.80081e-20)
(0.918334 0.264558 -1.06568e-20)
(0.747495 0.210955 6.53043e-20)
(0.46204 0.129291 7.75728e-21)
(0.201331 0.0575612 3.65221e-20)
(0.0379911 0.0131076 -1.72729e-19)
(-0.0270873 -0.00557682 1.02312e-19)
(-0.014407 -0.00346752 -1.24887e-19)
(0.257652 0.0801734 3.13417e-23)
(1.16106 0.343353 5.75988e-22)
(1.35549 0.409409 -8.40132e-22)
(1.39291 0.432092 -5.04902e-21)
(1.35543 0.436804 -6.42494e-21)
(1.29251 0.432212 3.62056e-22)
(1.22882 0.424717 -8.19e-21)
(1.16506 0.414263 1.4994e-20)
(1.10155 0.39947 -2.7513e-20)
(1.04005 0.37886 0)
(0.991139 0.355334 -1.34865e-20)
(0.961788 0.335178 -3.11135e-22)
(0.943589 0.317527 -1.96703e-20)
(0.891949 0.289324 0)
(0.716475 0.227744 -1.41098e-20)
(0.438847 0.138176 -3.34648e-20)
(0.188735 0.0604197 8.90909e-20)
(0.0294285 0.0112806 -8.77511e-20)
(-0.0340169 -0.00916852 1.24777e-19)
(-0.0166849 -0.00483615 -1.31298e-19)
(0.250889 0.0904872 -1.09092e-22)
(1.15723 0.397785 3.25979e-22)
(1.35543 0.472775 -1.39239e-21)
(1.39134 0.496931 1.75419e-21)
(1.3516 0.49834 -3.17324e-21)
(1.28688 0.489566 0)
(1.22099 0.477798 -7.48666e-21)
(1.15463 0.463026 -1.56491e-20)
(1.08827 0.443789 -1.42528e-20)
(1.02381 0.418563 0)
(0.972437 0.390787 -1.39188e-20)
(0.941381 0.367341 -1.72984e-20)
(0.921042 0.346496 2.12921e-20)
(0.8655 0.313321 -1.29213e-20)
(0.690788 0.244651 -6.13826e-20)
(0.423967 0.148059 3.6379e-20)
(0.183288 0.0644211 1.07837e-20)
(0.0264249 0.0101285 0)
(-0.0376437 -0.0124136 -1.20304e-19)
(-0.0183649 -0.00620408 -4.46854e-21)
(0.245355 0.100208 7.04778e-22)
(1.14959 0.449269 -9.38565e-22)
(1.35111 0.533614 4.54804e-22)
(1.38569 0.559374 6.61903e-21)
(1.34424 0.557861 -1.11808e-20)
(1.27814 0.545234 1.44921e-20)
(1.21046 0.529482 1.61223e-20)
(1.14189 0.510631 -2.49826e-20)
(1.07299 0.48713 8.87417e-21)
(1.00582 0.4574 -5.80484e-20)
(0.952073 0.425415 -1.57738e-20)
(0.919291 0.398607 0)
(0.896977 0.374539 2.30946e-20)
(0.838838 0.336537 2.76909e-20)
(0.668004 0.261768 3.30677e-20)
(0.413172 0.15897 -3.94907e-20)
(0.181872 0.0693858 -1.16872e-20)
(0.0273419 0.0101327 1.37256e-20)
(-0.0379987 -0.0147138 0)
(-0.0191556 -0.00736378 -9.69496e-21)
(0.24096 0.10943 -1.24011e-20)
(1.13985 0.497883 6.45121e-21)
(1.34382 0.591786 -1.22592e-22)
(1.37698 0.619071 3.61883e-21)
(1.33417 0.614978 -4.71246e-21)
(1.26703 0.598843 -8.36107e-22)
(1.19786 0.579455 -1.7674e-20)
(1.12738 0.556826 -9.05359e-21)
(1.05618 0.52929 -2.47775e-20)
(0.986438 0.495219 6.50993e-23)
(0.930392 0.459137 -4.93522e-20)
(0.895856 0.428971 4.18015e-20)
(0.871616 0.401722 -2.54043e-20)
(0.811719 0.359152 3.05224e-20)
(0.646321 0.278844 0)
(0.403759 0.170522 -2.14945e-20)
(0.181784 0.0753387 6.99532e-23)
(0.0305104 0.0114088 -5.99341e-20)
(-0.0359126 -0.0159415 -8.8277e-21)
(-0.0190929 -0.00820142 0)
(0.237637 0.11841 0)
(1.12904 0.543861 7.63569e-21)
(1.33445 0.647561 2.12133e-21)
(1.36603 0.675862 -2.89145e-21)
(1.3221 0.669481 -6.39948e-21)
(1.25415 0.650192 0)
(1.18375 0.627521 -7.84515e-21)
(1.11157 0.601438 -2.12633e-22)
(1.03825 0.570159 5.31513e-20)
(0.966033 0.531946 -7.96424e-21)
(0.907717 0.491892 -3.56819e-20)
(0.871408 0.458426 2.17335e-20)
(0.845312 0.428038 -4.45933e-22)
(0.784164 0.381107 3.2561e-20)
(0.624678 0.295487 1.98823e-20)
(0.393902 0.18222 -4.63879e-20)
(0.181616 0.0817869 5.48947e-20)
(0.0345093 0.013632 1.62854e-20)
(-0.0322967 -0.0161667 6.73249e-20)
(-0.0183847 -0.00869848 -1.82117e-19)
(0.235297 0.12729 -4.50198e-21)
(1.11791 0.587383 5.76033e-21)
(1.32361 0.700434 -3.66496e-21)
(1.35348 0.7297 1.42442e-21)
(1.3086 0.721275 0)
(1.24002 0.699167 -6.23316e-21)
(1.16859 0.673567 2.66163e-20)
(1.09489 0.644367 1.98252e-20)
(1.01957 0.609657 0)
(0.944958 0.567563 -1.15134e-19)
(0.884334 0.523651 9.67791e-20)
(0.846244 0.486963 0)
(0.818335 0.453475 2.98022e-20)
(0.756092 0.402297 -4.35289e-22)
(0.602246 0.311423 -6.40782e-20)
(0.382601 0.19355 2.50477e-20)
(0.180072 0.0882721 0)
(0.0381322 0.0164805 8.80862e-20)
(-0.0280146 -0.0155568 0)
(-0.0172081 -0.00887234 -8.63976e-20)
(0.233818 0.136101 5.49773e-21)
(1.10691 0.628672 7.80908e-21)
(1.31176 0.750468 -3.54738e-21)
(1.33987 0.780604 0)
(1.29416 0.770352 -4.82473e-21)
(1.22508 0.745739 0)
(1.15276 0.717536 -2.59816e-20)
(1.07768 0.685557 -9.08082e-21)
(1.00049 0.64775 9.35292e-21)
(0.923479 0.602063 -5.70393e-20)
(0.86049 0.554435 9.99607e-21)
(0.820602 0.514552 0)
(0.790943 0.477942 -6.38285e-20)
(0.727605 0.422461 4.08616e-22)
(0.578786 0.32624 0)
(0.36953 0.203913 1.41429e-22)
(0.176441 0.0943272 8.06546e-20)
(0.0404516 0.019455 -7.62552e-20)
(-0.0240052 -0.0145006 2.25718e-20)
(-0.0158513 -0.00880436 0)
(0.232851 0.144785 0)
(1.09624 0.667908 9.62112e-21)
(1.29933 0.797773 5.70436e-21)
(1.32562 0.828649 -5.22484e-22)
(1.27917 0.816746 -1.1039e-21)
(1.2097 0.789915 -1.40874e-20)
(1.1366 0.759417 9.86093e-21)
(1.06026 0.724983 -1.08701e-20)
(0.981258 0.684424 4.19808e-20)
(0.90183 0.635455 -9.14906e-20)
(0.836393 0.584277 -8.80534e-22)
(0.794644 0.541183 -2.7944e-20)
(0.763267 0.501291 1.03821e-19)
(0.698816 0.441338 -5.06428e-22)
(0.553985 0.339694 -5.00298e-20)
(0.35459 0.212674 -8.8643e-20)
(0.170778 0.099409 0)
(0.0410751 0.0220123 0)
(-0.0208012 -0.0134184 2.44066e-20)
(-0.0145319 -0.00862575 -1.45007e-20)
(0.232532 0.153513 7.96019e-21)
(1.08612 0.704935 -2.2063e-20)
(1.28663 0.842446 -6.13216e-21)
(1.31105 0.873917 0)
(1.26392 0.860518 -3.09241e-22)
(1.19414 0.831728 -1.23504e-20)
(1.12039 0.799227 2.34859e-20)
(1.04289 0.762648 4.25196e-20)
(0.962126 0.719686 5.46035e-20)
(0.880257 0.667779 -7.4898e-20)
(0.812218 0.613231 -8.3857e-20)
(0.768498 0.566865 7.49137e-20)
(0.735404 0.523408 0)
(0.669801 0.458586 -2.28604e-20)
(0.52838 0.351256 -5.40956e-20)
(0.338042 0.21959 -6.38639e-20)
(0.16325 0.103055 -7.53882e-20)
(0.0401542 0.023715 2.23192e-20)
(-0.0185117 -0.0125908 -1.31579e-20)
(-0.0133656 -0.00842585 6.86107e-23)
(0.232429 0.16207 0)
(1.07673 0.740186 0)
(1.27388 0.884591 5.1232e-22)
(1.29639 0.916515 0)
(1.24866 0.901756 9.57692e-22)
(1.17865 0.87124 7.91947e-21)
(1.10433 0.836995 0)
(1.02576 0.798572 4.99661e-21)
(0.94331 0.753547 9.12873e-20)
(0.858953 0.699067 -1.72666e-19)
(0.788122 0.641377 0)
(0.742222 0.591628 -4.8436e-20)
(0.707332 0.544182 -5.93832e-22)
(0.64053 0.473886 -4.25267e-22)
(0.50217 0.360473 5.81288e-20)
(0.32031 0.224226 1.8757e-23)
(0.154223 0.104993 -1.62616e-19)
(0.0379591 0.0244405 4.80517e-20)
(-0.0170676 -0.0121146 1.42575e-20)
(-0.0123695 -0.00822996 0)
(0.232579 0.17044 -3.25779e-20)
(1.06781 0.77378 -1.52506e-20)
(1.26116 0.924281 -1.90615e-20)
(1.28183 0.95655 1.6386e-20)
(1.23359 0.940534 -1.38969e-21)
(1.16341 0.908516 0)
(1.0886 0.87277 1.40468e-20)
(1.00905 0.832782 -1.12391e-20)
(0.924977 0.786029 8.00627e-22)
(0.838092 0.729359 1.27887e-20)
(0.764251 0.668801 1.09276e-19)
(0.715866 0.615581 -1.70251e-20)
(0.678956 0.563588 -6.44492e-20)
(0.610898 0.486955 -2.67326e-20)
(0.475583 0.366908 3.15044e-20)
(0.301628 0.226232 4.56131e-23)
(0.144416 0.105064 4.38421e-20)
(0.0349477 0.0241897 -1.03519e-19)
(-0.016237 -0.0119747 1.22819e-19)
(-0.011535 -0.00806205 1.81331e-20)
(0.23265 0.178558 1.24706e-20)
(1.05937 0.805793 -8.65492e-21)
(1.24863 0.961638 1.30147e-21)
(1.26752 0.994148 1.11508e-20)
(1.21883 0.976963 1.68214e-21)
(1.14855 0.94363 -1.34602e-20)
(1.07334 0.906604 3.90221e-21)
(0.992908 0.865301 -4.68708e-20)
(0.90727 0.817135 -1.0106e-19)
(0.817838 0.758677 -1.03443e-19)
(0.740753 0.695593 0)
(0.689461 0.63888 -7.51469e-20)
(0.650133 0.581691 9.3192e-20)
(0.580678 0.497514 0)
(0.448675 0.37005 -6.76494e-20)
(0.282973 0.225124 4.01059e-20)
(0.13468 0.103037 -4.72146e-20)
(0.031941 0.0231553 -5.57684e-20)
(-0.015731 -0.0119864 -9.90123e-20)
(-0.0108794 -0.00792791 -7.81994e-20)
(0.233109 0.186556 -1.42273e-20)
(1.05128 0.83622 9.27424e-21)
(1.23637 0.99673 2.07882e-20)
(1.25355 1.02939 1.6724e-20)
(1.20451 1.01114 -2.70839e-21)
(1.13418 0.976669 -6.66489e-21)
(1.05866 0.938549 1.32246e-20)
(0.977419 0.896173 -4.81323e-20)
(0.890297 0.846888 -6.00634e-20)
(0.798332 0.787048 1.08716e-19)
(0.717762 0.721837 2.41631e-19)
(0.66306 0.661713 0)
(0.620706 0.598661 0)
(0.549453 0.505437 -3.08451e-20)
(0.421194 0.369226 0)
(0.264982 0.219766 8.62178e-20)
(0.127026 0.0980013 1.01548e-19)
(0.0312177 0.0210384 0)
(-0.0145361 -0.012096 0)
(-0.0105324 -0.00793679 8.41311e-20)
(0.233269 0.194107 1.63006e-20)
(1.04354 0.865061 1.28762e-20)
(1.22446 1.02967 1.51785e-20)
(1.24002 1.0624 -1.66011e-20)
(1.19069 1.04317 -4.36123e-21)
(1.12036 1.00771 5.90898e-21)
(1.04461 0.968665 -1.81087e-20)
(0.962668 0.925426 -1.59549e-22)
(0.874153 0.875294 -1.05066e-21)
(0.779682 0.814474 -8.36231e-22)
(0.695433 0.747609 1.24845e-19)
(0.636747 0.684254 0)
(0.590551 0.614783 9.50716e-20)
(0.516702 0.51086 6.61504e-20)
(0.392314 0.363942 1.5835e-19)
(0.247348 0.208247 4.65603e-20)
(0.123543 0.0863144 -5.4666e-20)
(0.0384801 0.0134829 -3.22052e-20)
(-0.0056115 -0.0141348 0)
(-0.00895633 -0.00783457 9.05213e-20)
(0.233826 0.201697 -3.71347e-20)
(1.03612 0.892444 0)
(1.21288 1.06051 1.81492e-20)
(1.22694 1.09326 -1.42789e-20)
(1.17744 1.07316 6.93817e-21)
(1.10715 1.03684 -4.5929e-21)
(1.03126 0.997006 3.4511e-20)
(0.948704 0.953094 -3.95216e-21)
(0.858894 0.902364 0)
(0.761989 0.840928 -1.20686e-19)
(0.673922 0.772956 -2.72625e-19)
(0.610643 0.706673 1.12107e-20)
(0.559655 0.630402 1.32015e-19)
(0.481972 0.51429 0)
(0.360582 0.354466 1.07237e-19)
(0.227352 0.18866 0)
(0.122222 0.0596731 0)
(0.0610053 -0.0181523 -3.48123e-20)
(0.0408496 -0.0314097 0)
(0.0238579 0.00311477 2.42943e-20)
(0.233976 0.208737 -4.17125e-20)
(1.02899 0.918614 0)
(1.20163 1.08946 3.05251e-20)
(1.21428 1.12223 0)
(1.16472 1.10136 -4.55346e-21)
(1.09448 1.06434 0)
(1.01854 1.02388 1.55982e-21)
(0.935432 0.979509 6.68257e-21)
(0.844396 0.928456 7.61786e-21)
(0.745078 0.866784 -1.32864e-19)
(0.653031 0.79833 8.19767e-21)
(0.584437 0.729639 9.07463e-20)
(0.527473 0.646341 1.29285e-19)
(0.444189 0.516467 1.73866e-20)
(0.323801 0.342218 8.43824e-20)
(0.19906 0.161588 0)
(0.10873 0.0135474 1.15226e-19)
(0.0630724 -0.0524111 -6.7673e-20)
(0.0291681 0.0492395 7.91393e-20)
(-0.0385202 0.457816 -9.40284e-20)
(0.234099 0.215626 3.46992e-20)
(1.02193 0.943433 5.21249e-20)
(1.19064 1.11684 0)
(1.20189 1.14973 1.02655e-21)
(1.15233 1.12838 1.41102e-20)
(1.08209 1.09091 4.08828e-22)
(1.00613 1.05009 1.15483e-20)
(0.92243 1.00561 0)
(0.830116 0.954662 5.02041e-20)
(0.72825 0.893338 -6.90547e-21)
(0.631814 0.825221 0)
(0.55676 0.754816 0)
(0.491804 0.663852 1.16328e-19)
(0.400583 0.517722 -5.38208e-20)
(0.278576 0.328886 -8.58988e-20)
(0.157604 0.129862 0)
(0.063614 0.0367354 5.86378e-20)
(0.00497885 0.460215 -6.80904e-20)
(0.0300497 1.93235 -3.82943e-20)
(0.0564935 2.82742 -4.69487e-20)
(0.233903 0.221979 -2.62857e-20)
(1.01498 0.967075 -6.73109e-20)
(1.17991 1.14265 1.83487e-20)
(1.18977 1.17565 1.45919e-20)
(1.14033 1.154 0)
(1.07006 1.11627 -1.97646e-21)
(0.994252 1.07532 1.50252e-20)
(0.909899 1.03097 -3.21464e-21)
(0.816346 0.980472 7.54361e-21)
(0.711911 0.919999 1.26991e-19)
(0.610915 0.852998 1.3914e-19)
(0.528603 0.782081 1.0268e-19)
(0.45341 0.683228 1.17682e-19)
(0.352285 0.51739 -1.27345e-19)
(0.230605 0.318338 -1.30394e-19)
(0.105441 0.187151 0)
(0.0376416 0.893931 0)
(0.0847467 2.58586 3.26333e-20)
(0.087737 3.21404 0)
(0.089295 3.39004 8.51932e-20)
(0.236507 0.227935 0)
(1.00845 0.989929 0)
(1.16915 1.16674 0)
(1.17773 1.19986 4.50587e-21)
(1.12838 1.17799 1.31626e-20)
(1.05822 1.14027 -4.14025e-21)
(0.982825 1.09947 9.38572e-21)
(0.897772 1.05545 -3.12385e-21)
(0.803022 1.00571 6.26668e-20)
(0.696054 0.946604 -1.7306e-21)
(0.590429 0.881452 2.75908e-19)
(0.500332 0.811523 -1.19146e-20)
(0.412171 0.705394 1.43648e-20)
(0.301111 0.513794 1.8528e-20)
(0.171861 0.336297 -6.12784e-22)
(0.0872105 1.0189 3.49696e-22)
(0.121166 2.76778 -1.73793e-19)
(0.125794 3.30181 -6.56152e-20)
(0.116892 3.42352 3.47464e-20)
(0.106899 3.44322 -3.9288e-20)
(0.159892 0.173686 1.61895e-20)
(0.997765 1.01474 0)
(1.15816 1.18933 -3.80815e-20)
(1.16619 1.22278 -4.04491e-20)
(1.11693 1.20082 3.23626e-20)
(1.04724 1.16339 5.38686e-21)
(0.971658 1.12254 -9.31743e-21)
(0.88608 1.07912 3.38384e-20)
(0.79022 1.03045 -5.14275e-20)
(0.6809 0.973271 0)
(0.570654 0.910649 1.36372e-19)
(0.472484 0.842935 -8.43258e-20)
(0.371246 0.734817 0)
(0.241511 0.511445 1.80312e-20)
(0.125317 0.743965 4.27023e-20)
(0.135824 2.57328 -4.82988e-20)
(0.183166 3.32813 5.48602e-20)
(0.166383 3.43328 2.95888e-20)
(0.138431 3.45209 3.36469e-20)
(0.119552 3.46085 5.37205e-20)
(0.271182 0.265743 -3.11883e-20)
(0.980316 1.02495 0)
(1.13991 1.2153 4.14069e-20)
(1.15138 1.25399 4.50791e-20)
(1.0993 1.23451 -3.71518e-20)
(1.02901 1.19745 -1.03704e-20)
(0.952239 1.15815 6.6176e-21)
(0.866056 1.11602 2.67866e-21)
(0.768676 1.06962 4.87193e-20)
(0.656195 1.01661 1.10214e-19)
(0.539738 0.960276 7.66369e-21)
(0.42926 0.895904 7.53645e-20)
(0.293902 0.76613 1.36659e-20)
(0.201825 0.908822 -1.73972e-20)
(0.207805 2.45115 -3.91369e-20)
(0.258924 3.33184 3.86525e-20)
(0.241826 3.45806 -4.24385e-20)
(0.207864 3.47695 -2.44612e-20)
(0.174552 3.50147 -2.22427e-20)
(0.129593 3.4966 -3.23336e-21)
(0.261404 0.264653 0)
(0.977433 1.04786 1.2186e-20)
(1.1311 1.23898 -8.5754e-21)
(1.14021 1.27766 -5.4269e-21)
(1.08808 1.2579 -2.6001e-20)
(1.01777 1.22102 1.11139e-20)
(0.940657 1.18194 -2.60284e-21)
(0.854184 1.14067 2.37238e-21)
(0.756095 1.0958 -5.06049e-20)
(0.64197 1.04579 -2.75888e-21)
(0.521964 0.994375 -2.47133e-19)
(0.404645 0.932506 1.08071e-20)
(0.275175 0.839528 -1.29628e-20)
(0.237295 1.54017 -1.60298e-20)
(0.300526 3.14393 3.67267e-21)
(0.313153 3.45971 2.12943e-22)
(0.271904 3.50673 6.33355e-20)
(0.238175 3.53027 3.21876e-20)
(0.192554 3.55039 -1.05713e-20)
(0.142744 3.54712 -1.62047e-20)
(0.247474 0.262724 3.13298e-20)
(0.973637 1.07333 8.27747e-20)
(1.12195 1.26476 -2.44974e-20)
(1.12867 1.30296 -2.04091e-20)
(1.07639 1.28275 0)
(1.00614 1.2459 2.20071e-20)
(0.928978 1.20711 -6.52779e-22)
(0.842471 1.16664 2.04132e-21)
(0.743987 1.12343 -5.67279e-21)
(0.628765 1.07672 -9.95114e-20)
(0.506172 1.03084 -1.14031e-19)
(0.38285 0.970456 -8.8553e-20)
(0.278157 0.986524 -9.76081e-20)
(0.303193 2.31504 1.0077e-19)
(0.381523 3.38764 8.54809e-20)
(0.352694 3.51585 0)
(0.304928 3.55291 0)
(0.268404 3.58668 -8.36069e-21)
(0.22474 3.63174 0)
(0.155313 3.61665 -1.32008e-20)
(0.237695 0.264696 -4.68916e-20)
(0.967921 1.09967 -7.03092e-20)
(1.11143 1.29177 0)
(1.11588 1.3291 1.24847e-21)
(1.06346 1.30826 -2.87833e-20)
(0.993444 1.27137 3.68261e-20)
(0.916549 1.23288 1.40139e-21)
(0.830237 1.19317 9.92082e-22)
(0.73162 1.15158 -3.5169e-20)
(0.615746 1.10821 4.91945e-21)
(0.491546 1.06799 0)
(0.36334 1.01251 0)
(0.300446 1.28231 -8.86564e-20)
(0.38283 2.97568 3.61719e-20)
(0.446709 3.48631 4.62522e-20)