/*--------------------------------*- C++ -*----------------------------------*\
  =========                 |
  \\      /  F ield         | OpenFOAM: The Open Source CFD Toolbox
   \\    /   O peration     | Website:  https://openfoam.org
    \\  /    A nd           | Version:  6
     \\/     M anipulation  |
\*---------------------------------------------------------------------------*/
FoamFile
{
    version     2.0;
    format      ascii;
    class       volVectorField;
    location    "51.4";
    object      U;
}
// * * * * * * * * * * * * * * * * * * * * * * * * * * * * * * * * * * * * * //

dimensions      [0 1 -1 0 0 0 0];

internalField   nonuniform List<vector> 
8800
(
(0.987184 -0.0766675 0)
(1.00189 -0.0551947 0)
(0.99972 -0.0285544 0)
(1.00002 -0.0151511 0)
(1.00006 -0.00855363 0)
(1.00007 -0.00505716 0)
(1.00005 -0.0030148 0)
(1.00002 -0.00171465 0)
(0.999998 -0.000807847 0)
(1.00006 -9.25105e-05 0)
(0.999988 0.000634378 0)
(0.999995 0.00139566 0)
(1.00001 0.00241777 0)
(1.00003 0.00399456 0)
(1.00003 0.0066302 0)
(1.00001 0.0113689 0)
(0.999887 0.0208126 0)
(0.999144 0.0386705 0)
(1.00709 0.0724567 0)
(0.771212 0.0366609 0)
(0.363049 -0.0160193 0)
(1.04329 -0.0768274 0)
(1.08458 -0.0704665 0)
(1.04517 -0.0535699 0)
(1.02325 -0.0389295 0)
(1.01197 -0.0262591 0)
(1.00638 -0.0169047 0)
(1.00356 -0.0103773 0)
(1.00214 -0.00572192 0)
(1.00145 -0.00207 0)
(1.00131 0.00125052 0)
(1.00168 0.00462991 0)
(1.00265 0.00856315 0)
(1.00464 0.0139101 0)
(1.00858 0.0216281 0)
(1.01655 0.0326063 0)
(1.03246 0.0465246 0)
(1.06262 0.0616445 0)
(1.09187 0.0760905 0)
(0.838685 0.0565573 0)
(0.216801 -0.00243219 0)
(1.07585 -0.050164 0)
(1.09984 -0.0483521 0)
(1.0646 -0.0405169 0)
(1.03997 -0.0336708 0)
(1.02384 -0.0261625 0)
(1.01406 -0.0185909 0)
(1.00852 -0.0117761 0)
(1.00557 -0.00591262 0)
(1.00432 -0.000500803 0)
(1.00468 0.00474454 0)
(1.0066 0.0101355 0)
(1.0106 0.016242 0)
(1.01792 0.0232818 0)
(1.03053 0.0307574 0)
(1.05062 0.037799 0)
(1.08032 0.0444902 0)
(1.10625 0.051315 0)
(0.94257 0.0416018 0)
(0.216195 0.00245998 0)
(0.175097 -0.000818888 0)
(1.01758 -0.0355211 0)
(1.10513 -0.0414397 0)
(1.07818 -0.0361398 0)
(1.05336 -0.0302199 0)
(1.0361 -0.0246579 0)
(1.02392 -0.0189449 0)
(1.01583 -0.0128807 0)
(1.01099 -0.00670723 0)
(1.00881 -0.000380486 0)
(1.0094 0.00587453 0)
(1.01266 0.0118729 0)
(1.01887 0.0177228 0)
(1.02877 0.023321 0)
(1.04322 0.0286383 0)
(1.06374 0.0341384 0)
(1.09355 0.0401359 0)
(1.09344 0.0419149 0)
(0.827267 0.022893 0)
(0.174075 0.000850671 0)
(0.15386 -0.000613036 0)
(0.955973 -0.0255043 0)
(1.10334 -0.0352092 0)
(1.08756 -0.0327551 0)
(1.06157 -0.0281211 0)
(1.04396 -0.0231194 0)
(1.03153 -0.0178953 0)
(1.02272 -0.0123818 0)
(1.01693 -0.00645923 0)
(1.01412 -4.00295e-06 0)
(1.01482 0.00645055 0)
(1.01881 0.0123394 0)
(1.02581 0.0176619 0)
(1.03612 0.0226064 0)
(1.05071 0.0273801 0)
(1.07195 0.0319355 0)
(1.1001 0.0358891 0)
(1.06817 0.0339704 0)
(0.739759 0.0142887 0)
(0.152323 0.000649078 0)
(0.139447 -0.000469532 0)
(0.898942 -0.0191323 0)
(1.09559 -0.030181 0)
(1.09558 -0.0293202 0)
(1.06905 -0.0256135 0)
(1.05062 -0.0214987 0)
(1.03774 -0.0167502 0)
(1.02867 -0.0114945 0)
(1.02259 -0.00577976 0)
(1.0195 0.000536392 0)
(1.02016 0.00685449 0)
(1.02427 0.0124918 0)
(1.03141 0.0174775 0)
(1.04194 0.0219756 0)
(1.05709 0.0259639 0)
(1.0793 0.029455 0)
(1.10235 0.0321059 0)
(1.03617 0.02804 0)
(0.673322 0.0101804 0)
(0.137279 0.000511051 0)
(0.12886 -0.000364415 0)
(0.849195 -0.0147793 0)
(1.08311 -0.0260713 0)
(1.10121 -0.0264013 0)
(1.07585 -0.0231424 0)
(1.05689 -0.0195302 0)
(1.04355 -0.0153229 0)
(1.03414 -0.0104346 0)
(1.02783 -0.00492991 0)
(1.02457 0.00119338 0)
(1.02511 0.00728221 0)
(1.02918 0.0126472 0)
(1.03642 0.017237 0)
(1.04725 0.0211383 0)
(1.06282 0.0244593 0)
(1.08547 0.0274387 0)
(1.10152 0.0292316 0)
(1.00139 0.0235022 0)
(0.621649 0.00780913 0)
(0.125925 0.000413275 0)
(0.120765 -0.000284007 0)
(0.80687 -0.0116305 0)
(1.06771 -0.0224822 0)
(1.10465 -0.0237988 0)
(1.08203 -0.0209703 0)
(1.06266 -0.0175879 0)
(1.04906 -0.013693 0)
(1.03938 -0.00914997 0)
(1.03279 -0.00392912 0)
(1.02929 0.00197934 0)
(1.02967 0.00783419 0)
(1.03372 0.012851 0)
(1.04104 0.0169722 0)
(1.05198 0.0203761 0)
(1.06776 0.023288 0)
(1.09075 0.0259662 0)
(1.0978 0.0268678 0)
(0.966303 0.0199359 0)
(0.580191 0.00626667 0)
(0.116897 0.000342341 0)
(0.114474 -0.000221182 0)
(0.771189 -0.00927795 0)
(1.05078 -0.019326 0)
(1.10694 -0.0213884 0)
(1.08783 -0.0189298 0)
(1.06808 -0.0156934 0)
(1.05424 -0.0119766 0)
(1.04436 -0.00766676 0)
(1.03755 -0.0027027 0)
(1.0338 0.0029342 0)
(1.03398 0.0084707 0)
(1.03791 0.0131076 0)
(1.04517 0.0168045 0)
(1.05613 0.0198144 0)
(1.07212 0.0224119 0)
(1.09478 0.0247725 0)
(1.09132 0.024888 0)
(0.932229 0.0171727 0)
(0.545948 0.00520926 0)
(0.109473 0.000290969 0)
(0.109551 -0.000170895 0)
(0.741201 -0.00745449 0)
(1.03338 -0.0165338 0)
(1.10826 -0.0191397 0)
(1.09333 -0.0170119 0)
(1.07329 -0.0138894 0)
(1.05918 -0.0102684 0)
(1.04912 -0.00607413 0)
(1.04209 -0.00129061 0)
(1.03807 0.00408273 0)
(1.03799 0.00928718 0)
(1.04172 0.0135672 0)
(1.04886 0.0169316 0)
(1.0598 0.0196242 0)
(1.076 0.0219183 0)
(1.09755 0.0238837 0)
(1.08243 0.0232481 0)
(0.89974 0.0150581 0)
(0.516882 0.00446693 0)
(0.103173 0.000254652 0)
(0.105714 -0.000129083 0)
(0.716093 -0.00598455 0)
(1.01633 -0.0140281 0)
(1.10871 -0.0169539 0)
(1.0987 -0.0151101 0)
(1.07841 -0.0120014 0)
(1.06402 -0.00842818 0)
(1.05374 -0.00433669 0)
(1.04648 0.000297098 0)
(1.04216 0.00546483 0)
(1.04175 0.010382 0)
(1.04519 0.0143029 0)
(1.05215 0.0172777 0)
(1.06307 0.0196198 0)
(1.07944 0.0216712 0)
(1.09899 0.0232679 0)
(1.07155 0.0219252 0)
(0.868982 0.0134755 0)
(0.49156 0.00394909 0)
(0.0976621 0.000230218 0)
(0.102771 -9.29861e-05 0)
(0.695218 -0.00475307 0)
(1.00027 -0.0117486 0)
(1.10849 -0.014825 0)
(1.10393 -0.0131794 0)
(1.08352 -0.0100444 0)
(1.06879 -0.0064635 0)
(1.05826 -0.00238625 0)
(1.05073 0.00216719 0)
(1.04604 0.00712987 0)
(1.04522 0.0117344 0)
(1.04832 0.0153305 0)
(1.05506 0.0180006 0)
(1.06593 0.0200232 0)
(1.08246 0.0217987 0)
(1.0995 0.0229837 0)
(1.05898 0.0209441 0)
(0.839813 0.0123339 0)
(0.468913 0.00360046 0)
(0.0926838 0.000215384 0)
(0.100602 -5.98078e-05 0)
(0.678111 -0.00367258 0)
(0.98561 -0.00961604 0)
(1.10773 -0.0126451 0)
(1.10891 -0.0111514 0)
(1.08868 -0.00799173 0)
(1.07362 -0.00433988 0)
(1.06278 -0.000224794 0)
(1.05487 0.00429474 0)
(1.04972 0.00913891 0)
(1.0484 0.013512 0)
(1.05111 0.0167694 0)
(1.05761 0.019085 0)
(1.06841 0.0207779 0)
(1.08497 0.0222764 0)
(1.09904 0.0230843 0)
(1.04491 0.0202896 0)
(0.811948 0.0115548 0)
(0.448116 0.0033809 0)
(0.0880408 0.000207899 0)
(0.0991478 -2.72991e-05 0)
(0.664477 -0.00267409 0)
(0.972749 -0.00755952 0)
(1.1068 -0.0103508 0)
(1.11382 -0.00888414 0)
(1.09395 -0.00562951 0)
(1.07851 -0.00187365 0)
(1.0673 0.00230638 0)
(1.05896 0.00684315 0)
(1.05326 0.0115812 0)
(1.05133 0.0156984 0)
(1.05353 0.0186404 0)
(1.05972 0.020589 0)
(1.07045 0.0218946 0)
(1.08704 0.0231275 0)
(1.09737 0.0235145 0)
(1.02944 0.0199634 0)
(0.785007 0.0110879 0)
(0.428502 0.00326716 0)
(0.0835767 0.000206732 0)
(0.0983907 6.39757e-06 0)
(0.654161 -0.00170185 0)
(0.96197 -0.00550388 0)
(1.10601 -0.00791245 0)
(1.1188 -0.00642838 0)
(1.09944 -0.00305198 0)
(1.08357 0.000903812 0)
(1.07191 0.00526676 0)
(1.06302 0.00988226 0)
(1.05661 0.0145426 0)
(1.05397 0.0184078 0)
(1.05559 0.020992 0)
(1.06142 0.022593 0)
(1.07204 0.0235334 0)
(1.08858 0.0244559 0)
(1.09448 0.0243451 0)
(1.01258 0.0199763 0)
(0.758572 0.0108939 0)
(0.409528 0.00324211 0)
(0.0791621 0.000211029 0)
(0.0983542 3.9678e-05 0)
(0.64715 -0.000704906 0)
(0.953595 -0.00336856 0)
(1.10565 -0.00520678 0)
(1.12393 -0.00358622 0)
(1.10521 -2.77329e-05 0)
(1.0889 0.00417022 0)
(1.07671 0.0087388 0)
(1.06716 0.0134865 0)
(1.05993 0.0181478 0)
(1.0564 0.0218118 0)
(1.05729 0.0240404 0)
(1.06266 0.0251985 0)
(1.07316 0.0257038 0)
(1.08935 0.0262553 0)
(1.09012 0.0255935 0)
(0.994253 0.0203552 0)
(0.732194 0.010962 0)
(0.390703 0.00329991 0)
(0.0746814 0.000220469 0)
(0.0990753 7.82631e-05 0)
(0.643527 0.000326997 0)
(0.947952 -0.00108642 0)
(1.10617 -0.00218945 0)
(1.12949 -0.000284454 0)
(1.11138 0.00356957 0)
(1.09455 0.00807709 0)
(1.08172 0.0129207 0)
(1.07137 0.0178703 0)
(1.06313 0.0225287 0)
(1.05854 0.0259322 0)
(1.05856 0.0277552 0)
(1.06339 0.0284729 0)
(1.07372 0.0285214 0)
(1.08926 0.0286499 0)
(1.08419 0.0273091 0)
(0.974272 0.021124 0)
(0.705369 0.0112767 0)
(0.371571 0.00343338 0)
(0.0700269 0.000234438 0)
(0.100762 0.000139014 0)
(0.643692 0.00148828 0)
(0.945384 0.00142888 0)
(1.10791 0.00123323 0)
(1.13563 0.00352298 0)
(1.11807 0.00774342 0)
(1.10064 0.0126859 0)
(1.08705 0.0179367 0)
(1.07571 0.0231542 0)
(1.06622 0.0278607 0)
(1.06034 0.0310346 0)
(1.05937 0.0323822 0)
(1.06354 0.0325841 0)
(1.07365 0.0321427 0)
(1.0881 0.0317636 0)
(1.07647 0.029561 0)
(0.952354 0.0223088 0)
(0.677577 0.0118396 0)
(0.351697 0.00364006 0)
(0.0651012 0.000252632 0)
(0.10346 0.000198653 0)
(0.647941 0.00288673 0)
(0.946358 0.0043303 0)
(1.11138 0.00525485 0)
(1.14252 0.0080835 0)
(1.12543 0.0128049 0)
(1.10734 0.0182784 0)
(1.09278 0.024007 0)
(1.08017 0.0295546 0)
(1.06916 0.0343342 0)
(1.06172 0.0372292 0)
(1.05958 0.0380444 0)
(1.06302 0.0376656 0)
(1.07284 0.0366602 0)
(1.08565 0.0356833 0)
(1.06661 0.0324391 0)
(0.92813 0.0239627 0)
(0.64824 0.0126564 0)
(0.330649 0.00391855 0)
(0.0598121 0.000274753 0)
(0.107462 0.000280242 0)
(0.656925 0.00456943 0)
(0.951285 0.00769164 0)
(1.11713 0.00999961 0)
(1.15053 0.0135963 0)
(1.13366 0.0190188 0)
(1.11473 0.0251385 0)
(1.09901 0.0314361 0)
(1.08492 0.0373881 0)
(1.07204 0.0421965 0)
(1.06275 0.0446951 0)
(1.05921 0.0448895 0)
(1.06171 0.0438487 0)
(1.07121 0.0421787 0)
(1.08187 0.0405647 0)
(1.05428 0.0360614 0)
(0.901085 0.0261189 0)
(0.616728 0.0137269 0)
(0.307999 0.00426371 0)
(0.0540757 0.000299838 0)
(0.1131 0.000388587 0)
(0.671274 0.00665505 0)
(0.961008 0.011817 0)
(1.12569 0.0156795 0)
(1.16 0.0202155 0)
(1.14303 0.0265383 0)
(1.12302 0.0334898 0)
(1.10583 0.0405271 0)
(1.08984 0.0469387 0)
(1.0747 0.0517636 0)
(1.06324 0.0537471 0)
(1.05806 0.0531617 0)
(1.05946 0.0513231 0)
(1.06861 0.0488994 0)
(1.0766 0.046515 0)
(1.039 0.0404907 0)
(0.870632 0.02881 0)
(0.582378 0.0150446 0)
(0.283338 0.00466419 0)
(0.0478292 0.000326099 0)
(0.120876 0.000542634 0)
(0.692023 0.00938887 0)
(0.976315 0.0169746 0)
(1.13766 0.0226814 0)
(1.17129 0.0284362 0)
(1.1538 0.0359315 0)
(1.13244 0.0439109 0)
(1.11331 0.051765 0)
(1.09492 0.05862 0)
(1.07703 0.0633631 0)
(1.063 0.0646636 0)
(1.05594 0.0630876 0)
(1.05618 0.0603009 0)
(1.06484 0.0570351 0)
(1.06953 0.0536773 0)
(1.02018 0.0458492 0)
(0.836053 0.0320641 0)
(0.544485 0.0165889 0)
(0.256298 0.00510262 0)
(0.041039 0.000351474 0)
(0.131563 0.000766941 0)
(0.720516 0.0131504 0)
(0.998371 0.0236288 0)
(1.15393 0.0315367 0)
(1.1851 0.0388992 0)
(1.16635 0.0479633 0)
(1.14306 0.0571105 0)
(1.12141 0.0658153 0)
(1.10002 0.0730113 0)
(1.07884 0.0773326 0)
(1.06189 0.0775652 0)
(1.05274 0.0747742 0)
(1.05173 0.0709127 0)
(1.05973 0.0666016 0)
(1.06015 0.0620974 0)
(0.997082 0.0521858 0)
(0.796512 0.035856 0)
(0.502361 0.0183 0)
(0.22662 0.00554404 0)
(0.0337186 0.000372332 0)
(0.146407 0.00111954 0)
(0.758701 0.0185476 0)
(1.02878 0.0325328 0)
(1.17544 0.0431105 0)
(1.20222 0.0524659 0)
(1.18099 0.0634513 0)
(1.15499 0.073908 0)
(1.13007 0.0833768 0)
(1.10499 0.0905901 0)
(1.07996 0.0940866 0)
(1.05973 0.0928349 0)
(1.04829 0.0884583 0)
(1.0459 0.0832894 0)
(1.05293 0.0778077 0)
(1.04786 0.0719956 0)
(0.968758 0.0595007 0)
(0.751131 0.0401189 0)
(0.455432 0.0200733 0)
(0.194268 0.00593231 0)
(0.025967 0.000383117 0)
(0.167538 0.00172777 0)
(0.80973 0.0267138 0)
(1.07006 0.0452161 0)
(1.20317 0.0592337 0)
(1.22324 0.0713051 0)
(1.19781 0.0840622 0)
(1.16796 0.0956864 0)
(1.13869 0.105467 0)
(1.10909 0.11205 0)
(1.0797 0.114013 0)
(1.05598 0.110672 0)
(1.04222 0.10436 0)
(1.03846 0.0976626 0)
(1.0441 0.0910559 0)
(1.03194 0.0833372 0)
(0.934068 0.0677209 0)
(0.699055 0.0446814 0)
(0.403472 0.0217479 0)
(0.159621 0.00618937 0)
(0.0180148 0.000376324 0)
(0.198259 0.00306277 0)
(0.879224 0.040239 0)
(1.12576 0.0654335 0)
(1.23758 0.0835514 0)
(1.24787 0.0983114 0)
(1.21624 0.112323 0)
(1.18118 0.124152 0)
(1.14664 0.133085 0)
(1.11198 0.137905 0)
(1.07791 0.137302 0)
(1.05057 0.131147 0)
(1.03449 0.122448 0)
(1.0294 0.113978 0)
(1.03318 0.106142 0)
(1.01144 0.0960822 0)
(0.891614 0.0765536 0)
(0.639767 0.0492232 0)
(0.347247 0.023153 0)
(0.123983 0.00625302 0)
(0.0103409 0.000341999 0)
(0.240228 0.00915869 1.25415e-20)
(0.97109 0.0669539 1.0685e-20)
(1.1936 0.0996343 -3.68896e-21)
(1.27562 0.119682 0)
(1.2734 0.136983 -8.99118e-35)
(1.23411 0.150462 1.30456e-21)
(1.19306 0.160732 -2.29778e-21)
(1.15271 0.16743 0)
(1.11254 0.169447 4.6028e-35)
(1.07341 0.165502 -2.73534e-21)
(1.0422 0.155996 0)
(1.02357 0.144684 -3.20021e-21)
(1.01712 0.134439 -9.41065e-21)
(1.01878 0.125557 -4.4398e-21)
(0.98363 0.113169 -1.33216e-21)
(0.836704 0.0882522 -7.90651e-22)
(0.567606 0.0547121 0)
(0.28465 0.0247529 5.54233e-22)
(0.0878445 0.00657077 6.56518e-22)
(0.00321058 0.000335532 1.19781e-20)
(0.269356 0.0240677 9.90142e-21)
(1.0471 0.109135 1.06702e-22)
(1.24949 0.148372 1.01685e-21)
(1.30972 0.168349 0)
(1.29573 0.185923 -4.67189e-21)
(1.24925 0.197279 -5.23643e-21)
(1.20221 0.205269 -2.34408e-21)
(1.15596 0.209498 -8.17621e-21)
(1.11001 0.208753 0)
(1.0653 0.201618 1.16562e-20)
(1.02943 0.188873 1.14691e-20)
(1.0076 0.174962 3.39029e-21)
(0.99874 0.162651 1.22699e-20)
(0.994347 0.151267 1.71604e-20)
(0.941275 0.134933 0)
(0.764179 0.102904 2.41592e-20)
(0.48357 0.0619754 3.47061e-20)
(0.218716 0.0268059 3.86403e-20)
(0.0528475 0.00631462 -4.4341e-20)
(-0.00353889 -0.000200313 -8.44168e-22)
(0.270891 0.0406074 0)
(1.09545 0.163774 1.88021e-21)
(1.28719 0.208002 0)
(1.33619 0.227748 -6.55091e-21)
(1.31312 0.242626 0)
(1.26063 0.250147 -1.04852e-20)
(1.20798 0.254489 4.83639e-21)
(1.15608 0.255202 -1.66461e-20)
(1.10457 0.250913 -3.15947e-22)
(1.05445 0.239955 6.07077e-21)
(1.01406 0.22357 2.51759e-20)
(0.989172 0.206985 -5.50373e-23)
(0.977897 0.192774 -8.90778e-21)
(0.967852 0.179018 -1.61568e-20)
(0.902943 0.158063 1.91182e-20)
(0.71352 0.118437 -3.38905e-20)
(0.437211 0.069732 -4.48559e-21)
(0.189425 0.0293657 0)
(0.0391693 0.00601132 -1.60404e-24)
(-0.00620856 -0.000838236 0)
(0.264753 0.0545783 2.9088e-20)
(1.12174 0.222151 -1.34118e-20)
(1.31052 0.27227 -9.38919e-21)
(1.35356 0.292506 3.20098e-21)
(1.32415 0.303747 -5.31805e-21)
(1.26719 0.306841 2.21055e-20)
(1.20986 0.306885 1.01599e-20)
(1.15303 0.303461 0)
(1.0965 0.295059 -3.08861e-20)
(1.04141 0.279942 0)
(0.99686 0.259949 -1.32716e-20)
(0.96896 0.240686 -1.62139e-20)
(0.955188 0.224355 -9.70022e-21)
(0.940709 0.207872 -1.17303e-20)
(0.870236 0.182517 0)
(0.680338 0.136342 0)
(0.415373 0.0805484 -2.92649e-20)
(0.181851 0.0345066 5.79531e-21)
(0.0371604 0.00671273 -3.4e-21)
(-0.00700444 -0.00138275 -4.02733e-21)
(0.257529 0.0669371 -1.45993e-20)
(1.13358 0.280557 0)
(1.32342 0.337655 2.06483e-20)
(1.36286 0.35882 9.36494e-21)
(1.32898 0.366423 1.20737e-20)
(1.26875 0.365122 0)
(1.20777 0.360758 1.01248e-20)
(1.14686 0.353017 1.85811e-20)
(1.08599 0.340321 1.59468e-20)
(1.02651 0.320978 2.85807e-20)
(0.97808 0.297176 0)
(0.947164 0.274892 -3.49983e-20)
(0.930776 0.25628 -2.09778e-20)
(0.913048 0.237597 -1.23824e-20)
(0.841249 0.208195 7.56913e-20)
(0.657816 0.156615 9.02642e-21)
(0.407679 0.094802 4.25209e-20)
(0.186214 0.0421623 -2.01458e-19)
(0.042616 0.00914972 1.1943e-19)
(-0.00591775 -0.00150861 -1.45779e-19)
(0.250718 0.078112 -1.06805e-20)
(1.13634 0.337125 2.72395e-21)
(1.32886 0.402302 -2.58582e-21)
(1.36578 0.424745 -1.06375e-20)
(1.3286 0.428897 -1.08739e-20)
(1.26588 0.423377 3.61536e-22)
(1.20201 0.414745 -1.09544e-20)
(1.13774 0.402772 1.93576e-20)
(1.07319 0.385859 -3.4331e-20)
(1.00977 0.362211 0)
(0.957707 0.334344 -1.59297e-20)
(0.923973 0.309074 -3.25751e-22)
(0.905326 0.288524 -2.29231e-20)
(0.885047 0.267937 0)
(0.813946 0.234836 -1.64056e-20)
(0.640146 0.178786 -3.90629e-20)
(0.406397 0.111181 1.0451e-19)
(0.195143 0.0523205 -1.02969e-19)
(0.0520063 0.0135023 1.46526e-19)
(-0.00345789 -0.00110319 -1.54194e-19)
(0.245098 0.0885064 -1.0454e-22)
(1.13351 0.391192 -2.01361e-21)
(1.32895 0.465171 -8.95173e-21)
(1.36375 0.489097 4.78337e-21)
(1.32405 0.490106 -5.57716e-21)
(1.25942 0.480624 0)
(1.1932 0.467964 -1.04906e-20)
(1.12613 0.451982 -2.03604e-20)
(1.05841 0.431022 -1.79366e-20)
(0.991426 0.403113 0)
(0.936015 0.371426 -1.66141e-20)
(0.899796 0.343684 -2.03791e-20)
(0.879079 0.32147 2.48583e-20)
(0.856532 0.298668 -1.50368e-20)
(0.786584 0.262496 -7.16162e-20)
(0.623831 0.202246 4.27014e-20)
(0.405925 0.128906 1.27549e-20)
(0.204994 0.0639664 0)
(0.062201 0.0192074 -1.41763e-19)
(-0.000533025 -0.00028675 -5.26638e-21)
(0.240776 0.0984468 -8.54605e-22)
(1.12734 0.442599 1.58259e-21)
(1.32515 0.525705 4.51246e-21)
(1.35798 0.551175 1.63455e-20)
(1.31627 0.549378 -2.15446e-20)
(1.25016 0.536262 2.2683e-20)
(1.18204 0.519893 2.25758e-20)
(1.11259 0.500201 -3.25728e-20)
(1.04205 0.475408 1.0848e-20)
(0.971824 0.443467 -7.03923e-20)
(0.913442 0.408397 -1.86742e-20)
(0.874981 0.378317 0)
(0.852159 0.354014 2.69403e-20)
(0.827697 0.328938 3.22116e-20)
(0.75919 0.289973 3.85361e-20)
(0.606614 0.226001 -4.63614e-20)
(0.403092 0.147322 -1.37545e-20)
(0.211997 0.0765937 1.61792e-20)
(0.0709322 0.0255613 0)
(0.00226218 0.000784606 -1.14285e-20)
(0.237615 0.108029 4.36297e-21)
(1.11941 0.491391 -4.39367e-21)
(1.31875 0.584105 -4.46789e-21)
(1.34942 0.610623 1.05803e-20)
(1.30606 0.606311 -1.02847e-20)
(1.23879 0.589911 -8.22054e-22)
(1.16912 0.570216 -2.4568e-20)
(1.09761 0.547152 -1.17604e-20)
(1.02452 0.518774 -3.11389e-20)
(0.951366 0.483087 5.82816e-23)
(0.890319 0.44479 -5.86714e-20)
(0.849696 0.41191 4.89221e-20)
(0.824885 0.385158 -2.95328e-20)
(0.79902 0.358141 3.5423e-20)
(0.731834 0.316495 0)
(0.587931 0.248335 -2.51331e-20)
(0.397031 0.165147 -2.59424e-23)
(0.215046 0.0887998 -7.0471e-20)
(0.076822 0.0316685 -1.0395e-20)
(0.00445096 0.00185698 0)
(0.235517 0.117461 0)
(1.11065 0.537782 -3.9363e-21)
(1.31035 0.639857 -7.215e-21)
(1.33883 0.667262 -1.03472e-20)
(1.29408 0.660692 -1.23235e-20)
(1.22591 0.641372 0)
(1.15495 0.618732 -1.15523e-20)
(1.08164 0.592626 -2.22892e-22)
(1.00621 0.560954 6.67269e-20)
(0.930364 0.521767 -9.72601e-21)
(0.866735 0.480047 -4.23122e-20)
(0.82402 0.443969 2.55239e-20)
(0.797573 0.414946 -4.39036e-22)
(0.770597 0.386383 3.76836e-20)
(0.703925 0.341429 2.31814e-20)
(0.567426 0.268846 -5.42257e-20)
(0.387638 0.181523 6.43494e-20)
(0.213632 0.0995357 1.90788e-20)
(0.0791428 0.0367518 7.89848e-20)
(0.00580995 0.00273365 -2.13673e-19)
(0.234376 0.126884 -6.74139e-22)
(1.10169 0.581951 -4.32269e-22)
(1.3006 0.692861 1.34835e-21)
(1.32683 0.721051 9.39223e-21)
(1.28087 0.712427 0)
(1.212 0.690533 -1.12634e-20)
(1.13996 0.665311 3.84065e-20)
(1.06503 0.636472 2.59622e-20)
(0.987462 0.601807 0)
(0.909024 0.55932 -1.39416e-19)
(0.842784 0.513967 1.14287e-19)
(0.798086 0.474782 0)
(0.770401 0.443991 3.44317e-20)
(0.74219 0.413656 -4.41915e-22)
(0.675177 0.364524 -7.40798e-20)
(0.544935 0.287275 2.90488e-20)
(0.37494 0.195634 0)
(0.208211 0.107987 1.02849e-19)
(0.0780983 0.0402013 0)
(0.00630909 0.00326144 -1.00982e-19)
(0.234011 0.136313 1.42212e-21)
(1.0929 0.624049 1.19612e-21)
(1.28994 0.743126 1.79552e-21)
(1.31391 0.771986 0)
(1.26687 0.761509 -1.15602e-20)
(1.19747 0.737357 0)
(1.1245 0.709865 -3.8574e-20)
(1.04811 0.678588 -1.23651e-20)
(0.968538 0.641243 1.19082e-20)
(0.887549 0.595645 -6.89541e-20)
(0.818622 0.546712 1.1851e-20)
(0.772062 0.504855 0)
(0.743303 0.472463 -7.35309e-20)
(0.713437 0.439351 4.40724e-22)
(0.645591 0.385035 0)
(0.52055 0.303066 3.31997e-22)
(0.359011 0.206712 9.36376e-20)
(0.199059 0.113645 -8.87496e-20)
(0.074322 0.0417595 2.62693e-20)
(0.00598362 0.00336269 0)
(0.234068 0.145632 0)
(1.08451 0.664086 2.58294e-21)
(1.27876 0.790736 5.37785e-24)
(1.30044 0.820116 -4.98084e-22)
(1.25246 0.807966 -4.72645e-21)
(1.18262 0.781834 -2.53774e-20)
(1.10885 0.752354 1.42889e-20)
(1.03114 0.71892 -1.43286e-20)
(0.949683 0.679211 5.27956e-20)
(0.866119 0.63074 -1.10221e-19)
(0.794437 0.578552 -7.52258e-22)
(0.74605 0.534427 -3.23921e-20)
(0.71605 0.499979 1.19175e-19)
(0.684045 0.462706 -5.14825e-22)
(0.615356 0.402648 -5.73492e-20)
(0.494721 0.316021 -1.02345e-19)
(0.340334 0.214757 0)
(0.18665 0.116433 0)
(0.0683062 0.0417172 2.83131e-20)
(0.00520681 0.00315803 -1.68074e-20)
(0.234701 0.154949 3.35936e-21)
(1.07663 0.702104 -7.12081e-21)
(1.26735 0.83578 -8.0402e-23)
(1.28673 0.865515 0)
(1.23789 0.851845 -3.21085e-22)
(1.16773 0.823983 -2.43534e-20)
(1.09326 0.792762 3.52779e-20)
(1.01434 0.757444 5.72459e-20)
(0.931095 0.715701 6.88877e-20)
(0.844933 0.664663 -9.02324e-20)
(0.770437 0.609704 -9.81504e-20)
(0.720081 0.563422 8.66382e-20)
(0.688441 0.525953 0)
(0.653997 0.48333 -2.60408e-20)
(0.584737 0.417536 -6.1964e-20)
(0.467825 0.326231 -7.34433e-20)
(0.319222 0.219521 -8.7097e-20)
(0.171496 0.116286 2.57969e-20)
(0.0603547 0.0399171 -1.52318e-20)
(0.00404349 0.0026442 5.43484e-23)
(0.235581 0.164082 0)
(1.0693 0.738483 0)
(1.25586 0.878339 5.36099e-22)
(1.27298 0.90827 0)
(1.22339 0.893226 1.31571e-20)
(1.15297 0.863848 1.7469e-20)
(1.07791 0.831103 0)
(0.997894 0.794169 6.94566e-21)
(0.912947 0.750713 1.15336e-19)
(0.824185 0.69749 -2.07371e-19)
(0.74679 0.640262 0)
(0.694166 0.591604 -5.57248e-20)
(0.660367 0.549974 -6.11877e-22)
(0.62342 0.501267 -4.85235e-22)
(0.553978 0.429933 6.62137e-20)
(0.440075 0.333497 -5.26585e-23)
(0.295888 0.220798 -1.87342e-19)
(0.154264 0.113164 5.5441e-20)
(0.0514067 0.0366235 1.64404e-20)
(0.00268894 0.00191107 0)
(0.236483 0.173085 -1.70368e-20)
(1.06231 0.773202 -6.81008e-21)
(1.2444 0.918466 -5.43636e-21)
(1.25937 0.948474 -5.38408e-21)
(1.20913 0.932175 2.01364e-20)
(1.13852 0.901478 0)
(1.06294 0.867412 2.19225e-20)
(0.981949 0.829122 -1.53409e-20)
(0.895382 0.784265 7.86477e-22)
(0.804052 0.729287 1.52105e-20)
(0.723633 0.670218 1.27201e-19)
(0.668314 0.618785 -1.95846e-20)
(0.631815 0.572009 -7.34037e-20)
(0.592434 0.516787 -3.02683e-20)
(0.523121 0.439754 3.59294e-20)
(0.411688 0.337404 -1.50718e-23)
(0.271321 0.218451 5.04186e-20)
(0.136134 0.107393 -1.19179e-19)
(0.0422189 0.0322584 1.41353e-19)
(0.00130655 0.00104773 2.08798e-20)
(0.237153 0.181851 6.98117e-21)
(1.05564 0.806345 -4.19515e-21)
(1.23311 0.956275 1.29529e-21)
(1.24605 0.986249 -3.58564e-22)
(1.19522 0.968796 -2.89961e-21)
(1.12448 0.936936 -3.13687e-20)
(1.04849 0.901735 6.70931e-21)
(0.966615 0.86233 -6.42473e-20)
(0.878524 0.816361 -1.27753e-19)
(0.784675 0.760073 -1.23942e-19)
(0.701092 0.699511 0)
(0.642567 0.644912 -8.57356e-20)
(0.602819 0.592343 1.0567e-19)
(0.560963 0.530202 0)
(0.491921 0.446683 -7.69197e-20)
(0.382875 0.337436 4.58519e-20)
(0.24654 0.212307 -5.41503e-20)
(0.118443 0.0994255 -6.4069e-20)
(0.0336063 0.0273265 -1.1378e-19)
(4.64891e-05 0.000168282 -8.98274e-20)
(0.238154 0.190463 -8.41699e-21)
(1.04917 0.837884 4.50379e-21)
(1.22204 0.991823 9.31169e-21)
(1.23308 1.02168 1.40244e-21)
(1.18176 1.00318 6.96555e-21)
(1.11094 0.970302 -1.79705e-20)
(1.03461 0.934126 2.21308e-20)
(0.951976 0.893839 -6.64785e-20)
(0.862455 0.847026 -7.58038e-20)
(0.766177 0.789857 1.3e-19)
(0.679268 0.728078 2.79672e-19)
(0.617009 0.670075 0)
(0.573437 0.611449 0)
(0.52875 0.541891 -3.4847e-20)
(0.459833 0.450359 0)
(0.353623 0.332682 9.85671e-20)
(0.222774 0.201659 1.16393e-19)
(0.103162 0.0894052 0)
(0.0267935 0.0223245 0)
(-0.000966281 -0.000625593 9.64636e-20)
(0.238778 0.198588 1.01508e-20)
(1.0429 0.867804 7.88793e-21)
(1.21127 1.02522 7.0473e-21)
(1.22053 1.05489 -3.67383e-21)
(1.16881 1.03542 5.89388e-21)
(1.09795 1.00165 1.98922e-20)
(1.02139 0.964647 -3.06349e-20)
(0.938092 0.923678 -8.10474e-24)
(0.847254 0.876265 -1.02541e-21)
(0.748649 0.818613 -1.05821e-21)
(0.65828 0.755877 1.44148e-19)
(0.59177 0.69445 0)
(0.543775 0.629858 1.06841e-19)
(0.495457 0.552345 7.43484e-20)
(0.42593 0.450685 1.79127e-19)
(0.323226 0.321811 5.3033e-20)
(0.201255 0.184207 -6.26313e-20)
(0.0943221 0.0749714 -3.68872e-20)
(0.0267309 0.016196 0)
(-0.000544122 -0.00108235 1.03581e-19)
(0.239723 0.206717 -2.41545e-20)
(1.03681 0.896252 0)
(1.20078 1.05652 9.56967e-21)
(1.20842 1.08597 -4.02917e-21)
(1.15641 1.06561 -3.88052e-21)
(1.08556 1.03106 -2.36729e-20)
(1.00885 0.993358 6.09374e-20)
(0.924997 0.951884 -5.35999e-21)
(0.83296 0.904089 0)
(0.732156 0.846282 -1.44089e-19)
(0.638247 0.782883 -3.13907e-19)
(0.567023 0.718257 1.26972e-20)
(0.514005 0.648044 1.47224e-19)
(0.460843 0.562192 0)
(0.389022 0.44826 1.20763e-19)
(0.289367 0.303932 0)
(0.180259 0.154871 0)
(0.096879 0.042351 -3.98627e-20)
(0.0573902 -0.00516009 0)
(0.0271679 0.00708061 2.77514e-20)
(0.240204 0.214245 -2.79926e-20)
(1.03087 0.923426 0)
(1.19057 1.08591 1.70154e-20)
(1.19671 1.11514 0)
(1.14452 1.09403 1.01519e-21)
(1.0737 1.05882 0)
(0.996941 1.02058 3.24698e-21)
(0.912599 0.978797 9.22538e-21)
(0.819455 0.930867 9.534e-21)
(0.716526 0.873233 -1.58606e-19)
(0.618994 0.809555 9.49103e-21)
(0.542545 0.742227 1.02018e-19)
(0.483754 0.666808 1.43721e-19)
(0.424035 0.572228 1.92939e-20)
(0.347315 0.444771 9.45494e-20)
(0.247396 0.280298 0)
(0.149086 0.110514 1.3181e-19)
(0.0819119 -0.0051691 -7.75585e-20)
(0.032848 0.0587743 9.06405e-20)
(-0.0382597 0.453939 -1.07669e-19)
(0.240609 0.221593 2.37843e-20)
(1.02487 0.949216 3.45096e-20)
(1.18057 1.11373 0)
(1.18525 1.14286 1.09237e-21)
(1.13296 1.12124 -4.46848e-22)
(1.06211 1.08563 3.41951e-20)
(0.985346 1.04711 2.19403e-20)
(0.900491 1.00537 0)
(0.806217 0.957714 6.39536e-20)
(0.701083 0.900778 -8.3629e-21)
(0.599602 0.837386 0)
(0.5171 0.768128 0)
(0.451227 0.687743 1.28535e-19)
(0.382789 0.58329 -5.94311e-20)
(0.297829 0.442368 -9.55551e-20)
(0.193274 0.254799 0)
(0.0840511 0.114955 6.6864e-20)
(0.00766107 0.466519 -7.79979e-20)
(0.0322082 1.9216 -4.41275e-20)
(0.058917 2.82214 -5.38448e-20)
(0.240613 0.228345 -1.86311e-20)
(1.01887 0.973798 -4.56842e-20)
(1.17078 1.13997 1.09008e-20)
(1.17406 1.16898 6.78464e-21)
(1.12179 1.14705 0)
(1.05088 1.11122 2.13645e-20)
(0.974275 1.07266 3.10504e-20)
(0.888861 1.03117 -4.54037e-21)
(0.793517 0.984105 9.50632e-21)
(0.6862 0.928276 1.51582e-19)
(0.580677 0.865691 1.59211e-19)
(0.491683 0.795807 1.14295e-19)
(0.417371 0.710866 1.29169e-19)
(0.338703 0.594354 -1.39269e-19)
(0.247164 0.444212 -1.44049e-19)
(0.125399 0.297245 0)
(0.0426821 0.870903 0)
(0.0904028 2.57657 3.73699e-20)
(0.0927122 3.20912 0)
(0.0936337 3.38858 9.82716e-20)
(0.243401 0.234591 0)
(1.0131 0.997525 0)
(1.16093 1.16448 0)
(1.1629 1.19333 2.45783e-21)
(1.11071 1.17124 5.78822e-22)
(1.03982 1.13545 1.26512e-20)
(0.963655 1.09712 2.03584e-20)
(0.877639 1.05607 -4.47575e-21)
(0.78129 1.00987 8.07557e-20)
(0.671859 0.955545 -1.95129e-21)
(0.562294 0.89427 3.15191e-19)
(0.46671 0.825431 -1.31378e-20)
(0.382245 0.736855 1.57095e-20)
(0.294016 0.603312 2.0127e-20)
(0.186015 0.462355 -3.48653e-22)
(0.0972744 1.01172 3.4267e-22)
(0.128993 2.75689 -1.94948e-19)
(0.133726 3.30094 -7.4323e-20)
(0.123264 3.42466 4.00624e-20)
(0.111925 3.4446 -4.5484e-20)
(0.16534 0.179205 1.19504e-20)
(1.00331 1.02311 0)
(1.15092 1.18754 -2.45554e-20)
(1.15213 1.21622 -2.11758e-20)
(1.10019 1.19429 7.85842e-21)
(1.02957 1.15877 -1.2071e-20)
(0.953355 1.12042 -2.15991e-20)
(0.8669 1.08006 5.21306e-20)
(0.769642 1.03503 -6.6877e-20)
(0.658258 0.982677 0)
(0.544725 0.923197 1.55821e-19)
(0.442775 0.856843 -9.35127e-20)
(0.346278 0.768815 0)
(0.242676 0.61481 1.94011e-20)
(0.138884 0.804634 4.64872e-20)
(0.143141 2.55721 -5.34227e-20)
(0.192223 3.3312 6.11925e-20)
(0.173728 3.43736 3.34808e-20)
(0.143735 3.45572 3.85914e-20)
(0.12396 3.46406 6.25645e-20)
(0.279182 0.274101 -2.27172e-20)
(0.987188 1.03459 0)
(1.13338 1.21407 2.80491e-20)
(1.13789 1.2495 2.62791e-20)
(1.08344 1.22834 -1.3024e-20)
(1.01233 1.19322 6.73444e-21)
(0.935005 1.15644 2.31858e-20)
(0.848031 1.11746 4.03323e-21)
(0.749446 1.07471 6.45861e-20)
(0.635312 1.02622 1.32829e-19)
(0.516114 0.971292 8.86163e-21)
(0.403356 0.909893 8.33061e-20)
(0.2822 0.817744 1.48182e-20)
(0.206942 0.979079 -1.86626e-20)
(0.213079 2.42992 -4.27396e-20)
(0.263562 3.33808 4.34472e-20)
(0.246636 3.46556 -4.83718e-20)
(0.212149 3.48323 -2.81719e-20)
(0.178117 3.50691 -2.6736e-20)
(0.133225 3.50084 -3.8854e-21)
(0.269747 0.273256 0)
(0.984936 1.05815 9.04731e-21)
(1.12529 1.23814 -6.06405e-21)
(1.12753 1.27337 -3.4489e-21)
(1.07285 1.25193 -1.08125e-20)
(1.00183 1.21701 -5.21883e-21)
(0.924227 1.18053 -1.31242e-20)
(0.837045 1.14244 3.6709e-21)
(0.73794 1.10119 -6.77767e-20)
(0.622482 1.05537 -2.91373e-21)
(0.500251 1.00415 -2.83142e-19)
(0.382203 0.946304 1.18563e-20)
(0.272176 0.893507 -1.40815e-20)
(0.241359 1.56931 -1.73118e-20)
(0.302294 3.14677 3.62858e-21)
(0.316425 3.46934 3.61917e-22)
(0.274688 3.5155 7.52696e-20)
(0.240601 3.53713 3.94473e-20)
(0.194926 3.55613 -1.5069e-20)
(0.145253 3.5518 -2.06589e-20)
(0.255677 0.271431 2.40323e-20)
(0.981808 1.08437 6.23068e-20)
(1.11683 1.26436 -1.74874e-20)
(1.11678 1.29882 -1.30007e-20)
(1.06187 1.27702 0)
(0.990999 1.24212 -5.64809e-23)
(0.913361 1.20597 -1.57428e-20)
(0.826219 1.1687 3.2855e-21)
(0.726894 1.12903 -7.49165e-21)
(0.610605 1.086 -1.21743e-19)
(0.486222 1.03903 -1.31432e-19)
(0.363448 0.985068 -9.81797e-20)
(0.273133 1.0381 -1.06218e-19)
(0.304412 2.31388 1.0953e-19)
(0.38063 3.3979 9.57897e-20)
(0.354185 3.52704 0)
(0.30601 3.56166 0)
(0.269296 3.59384 -1.2059e-20)
(0.225081 3.6383 0)
(0.156247 3.62189 -2.12593e-20)
(0.245708 0.273524 -3.68491e-20)
(0.976724 1.11154 -5.40103e-20)
(1.10704 1.2919 0)
(1.10484 1.32521 1.32737e-21)
(1.04971 1.30281 -1.51732e-20)
(0.979122 1.26783 5.39893e-21)
(0.901768 1.23204 -8.16066e-21)
(0.814887 1.19549 2.2074e-21)
(0.71559 1.15733 -4.93376e-20)
(0.598864 1.11702 6.21623e-21)
(0.473168 1.07443 0)
(0.348955 1.02991 0)
(0.298616 1.32567 -9.73209e-20)
(0.380363 2.97732 4.01662e-20)
(0.444328 3.49846 5.32211e-20)
(0.392188 3.56177 0)