/*--------------------------------*- C++ -*----------------------------------*\
  =========                 |
  \\      /  F ield         | OpenFOAM: The Open Source CFD Toolbox
   \\    /   O peration     | Website:  https://openfoam.org
    \\  /    A nd           | Version:  6
     \\/     M anipulation  |
\*---------------------------------------------------------------------------*/
FoamFile
{
    version     2.0;
    format      ascii;
    class       volScalarField;
    location    "113.3";
    object      p;
}
// * * * * * * * * * * * * * * * * * * * * * * * * * * * * * * * * * * * * * //

dimensions      [0 2 -2 0 0 0 0];

internalField   nonuniform List<scalar> 
8800
(
1.12451
1.0752
1.03723
1.00917
0.989014
0.974438
0.963854
0.956334
0.951476
0.949443
0.950854
0.955229
0.962049
0.971494
0.984244
1.00157
1.02546
1.05856
1.1015
1.15402
0.958995
0.965341
0.974494
0.978047
0.975445
0.969365
0.962436
0.956212
0.951435
0.948599
0.948408
0.951076
0.955749
0.961901
0.969018
0.976065
0.980954
0.980836
0.974167
0.965273
0.932493
0.93873
0.943235
0.947113
0.95007
0.951031
0.949959
0.947861
0.945912
0.945114
0.946191
0.948685
0.951602
0.953896
0.954435
0.95266
0.949305
0.9453
0.940524
0.936809
0.928165
0.930932
0.933544
0.93571
0.937458
0.939041
0.940164
0.940543
0.940466
0.940612
0.941469
0.942658
0.943437
0.943316
0.942363
0.941026
0.93937
0.937078
0.934673
0.933107
0.923072
0.924499
0.926345
0.928436
0.930162
0.931472
0.932594
0.933606
0.934457
0.935251
0.936024
0.93654
0.936609
0.936281
0.935641
0.934548
0.932909
0.931028
0.929682
0.928879
0.918034
0.918938
0.920192
0.921831
0.923541
0.925095
0.926408
0.927569
0.928686
0.929772
0.930633
0.931091
0.931156
0.930833
0.930066
0.928906
0.927567
0.926318
0.925504
0.92498
0.913065
0.913722
0.914692
0.916024
0.917492
0.919036
0.920556
0.921967
0.923293
0.924581
0.925626
0.926204
0.926292
0.925912
0.925176
0.92427
0.923308
0.922424
0.921852
0.921467
0.908161
0.908666
0.909462
0.91062
0.911946
0.913396
0.914949
0.916547
0.918136
0.919694
0.920964
0.921678
0.921845
0.921595
0.92109
0.920448
0.919749
0.919111
0.918694
0.918393
0.903264
0.903666
0.904337
0.905379
0.90664
0.908046
0.909604
0.911315
0.91314
0.91501
0.916567
0.917504
0.917891
0.917893
0.917647
0.91724
0.916759
0.916322
0.916017
0.915772
0.89829
0.898617
0.899203
0.900172
0.901395
0.9028
0.904408
0.90624
0.908288
0.910493
0.912425
0.913707
0.914416
0.914712
0.914728
0.91457
0.914301
0.914033
0.913814
0.913607
0.893147
0.893418
0.893945
0.894874
0.896091
0.897537
0.89924
0.901239
0.903554
0.906151
0.90855
0.910276
0.911373
0.912005
0.912311
0.912407
0.912354
0.912239
0.91209
0.91191
0.887739
0.887966
0.888457
0.889377
0.890629
0.892159
0.894003
0.896229
0.898886
0.901969
0.904938
0.907193
0.908746
0.909765
0.910399
0.910758
0.910935
0.910966
0.910874
0.910713
0.881967
0.88216
0.882634
0.883574
0.884902
0.886563
0.888606
0.891131
0.894222
0.897906
0.901564
0.904451
0.906539
0.908006
0.909015
0.909687
0.910097
0.910262
0.910218
0.910068
0.875718
0.875884
0.876358
0.877347
0.878793
0.880639
0.882949
0.88586
0.889491
0.893912
0.898404
0.902048
0.904771
0.90676
0.908203
0.909224
0.909888
0.910189
0.910188
0.910044
0.868861
0.869004
0.869493
0.870561
0.87217
0.874261
0.87692
0.880318
0.884619
0.889937
0.895435
0.899985
0.903462
0.906068
0.908007
0.90943
0.910383
0.910827
0.910863
0.910721
0.861243
0.861364
0.861881
0.863056
0.86488
0.867289
0.870389
0.874395
0.879521
0.885931
0.892638
0.898267
0.902636
0.905972
0.908506
0.910396
0.911672
0.912263
0.912334
0.912189
0.85266
0.852763
0.853315
0.854634
0.856736
0.859546
0.863201
0.867962
0.874103
0.881837
0.889994
0.896905
0.902325
0.90652
0.909769
0.912207
0.913847
0.914591
0.914692
0.91454
0.842822
0.842923
0.843545
0.845044
0.847505
0.85082
0.855167
0.860868
0.868255
0.877595
0.887484
0.895911
0.902572
0.907778
0.911863
0.914945
0.916995
0.917898
0.918024
0.917861
0.83144
0.831519
0.832231
0.833983
0.836886
0.840842
0.846061
0.852934
0.861858
0.873144
0.885096
0.895299
0.903411
0.909806
0.914855
0.918691
0.921192
0.922252
0.922394
0.922217
0.818065
0.818132
0.818955
0.821023
0.824496
0.829274
0.835605
0.843954
0.85478
0.868425
0.882819
0.895093
0.904874
0.912644
0.918816
0.923501
0.92648
0.927684
0.927831
0.927635
0.802087
0.802145
0.803123
0.805617
0.809838
0.815689
0.823461
0.833694
0.846892
0.863394
0.880658
0.895312
0.906994
0.916327
0.923765
0.929388
0.932849
0.934166
0.9343
0.934085
0.782651
0.782704
0.783909
0.787003
0.792246
0.799548
0.809232
0.821912
0.838089
0.858041
0.878642
0.895984
0.909793
0.920868
0.929688
0.936316
0.940213
0.941583
0.941683
0.941449
0.758493
0.758553
0.760117
0.764114
0.770832
0.780169
0.792482
0.808394
0.828327
0.85241
0.876824
0.897149
0.913279
0.926246
0.936547
0.944162
0.948379
0.949717
0.94976
0.94951
0.727639
0.727731
0.729918
0.735389
0.744424
0.756772
0.772812
0.793036
0.817669
0.846625
0.87531
0.89886
0.917461
0.9324
0.944237
0.952707
0.957041
0.958235
0.958202
0.957945
0.68674
0.686974
0.690456
0.698656
0.711625
0.728675
0.750049
0.775956
0.806342
0.840899
0.874253
0.901199
0.92234
0.93929
0.952585
0.961631
0.965788
0.966722
0.966606
0.966355
0.6294
0.630605
0.637595
0.651517
0.671383
0.695734
0.72452
0.757614
0.794759
0.835525
0.873825
0.90426
0.927918
0.946785
0.961334
0.970517
0.974141
0.974741
0.974559
0.974325
0.546344
0.55452
0.570678
0.595118
0.625321
0.659455
0.697257
0.738561
0.783139
0.830598
0.874178
0.908354
0.934738
0.955612
0.971033
0.979863
0.982738
0.983017
0.982803
0.982616
0.457547
0.475583
0.501859
0.537612
0.578727
0.622748
0.669524
0.719074
0.771288
0.825876
0.875374
0.913929
0.94359
0.966619
0.98257
0.990248
0.992083
0.992099
0.991929
0.991818
0.381167
0.40325
0.43797
0.483395
0.534158
0.587497
0.643
0.700624
0.760237
0.821568
0.876505
0.918949
0.951433
0.97613
0.991884
0.998166
0.999264
0.999202
0.999077
0.999002
0.318156
0.342719
0.383246
0.435605
0.493893
0.554977
0.618138
0.683114
0.749579
0.817164
0.877087
0.923054
0.957953
0.983815
0.999145
1.00444
1.00519
1.0051
1.005
1.00494
0.265588
0.29168
0.336419
0.394148
0.458419
0.525824
0.595441
0.666831
0.739438
0.812724
0.877221
0.926418
0.963506
0.990327
1.00518
1.00971
1.01024
1.01014
1.01006
1.01001
0.220887
0.247887
0.295743
0.357805
0.427071
0.499827
0.574978
0.651967
0.730049
0.808496
0.877167
0.929305
0.96838
0.995981
1.01031
1.01425
1.01464
1.01454
1.01446
1.01441
0.18197
0.209562
0.259842
0.325488
0.399008
0.476411
0.556449
0.638444
0.72148
0.804631
0.877099
0.931883
0.972701
1.00089
1.01471
1.01821
1.01849
1.01838
1.0183
1.01825
0.147326
0.175362
0.227625
0.296319
0.373527
0.455014
0.539439
0.626007
0.713621
0.801134
0.877074
0.934212
0.976524
1.00513
1.01847
1.02163
1.02183
1.0217
1.02162
1.02156
0.115898
0.144314
0.198246
0.269605
0.350065
0.435187
0.523586
0.614374
0.706297
0.797933
0.877094
0.936319
0.979872
1.00873
1.0216
1.02449
1.02464
1.02448
1.02439
1.02433
0.0868318
0.115629
0.171052
0.244814
0.32817
0.416563
0.508588
0.603309
0.69933
0.794951
0.877183
0.938279
0.982808
1.01171
1.02409
1.02678
1.02689
1.02672
1.02662
1.02655
0.0596944
0.0888207
0.145597
0.221518
0.307489
0.398853
0.494215
0.592621
0.692583
0.792142
0.877407
0.940205
0.985439
1.01414
1.02599
1.02849
1.02859
1.02845
1.02835
1.02827
0.0339521
0.0634822
0.121504
0.199402
0.287747
0.381822
0.480278
0.582155
0.685936
0.789462
0.877845
0.942263
0.987933
1.01616
1.02739
1.02973
1.02987
1.02977
1.0297
1.02962
0.00942239
0.0393502
0.0985346
0.178238
0.26874
0.365301
0.466626
0.571784
0.679278
0.786856
0.878579
0.944664
0.990532
1.01799
1.02849
1.03068
1.03087
1.03087
1.03084
1.03075
-0.0140955
0.0162378
0.0765059
0.157869
0.250334
0.349166
0.453147
0.561398
0.6725
0.784233
0.879651
0.947647
0.993545
1.01989
1.0295
1.03153
1.03183
1.03192
1.03193
1.03185
-0.0367518
-0.0059655
0.0553096
0.138194
0.232425
0.333331
0.439762
0.550917
0.665505
0.781477
0.881034
0.951433
0.997372
1.02217
1.03058
1.03243
1.03289
1.03307
1.0331
1.03301
-0.0586692
-0.027394
0.0348873
0.119151
0.214967
0.317741
0.426419
0.540278
0.658206
0.778448
0.882629
0.956178
1.00249
1.02533
1.03189
1.03325
1.03396
1.03436
1.03442
1.03428
-0.0797646
-0.0480305
0.0152034
0.100687
0.197924
0.302383
0.413088
0.529446
0.650538
0.775027
0.884257
0.961917
1.00939
1.03015
1.0339
1.03393
1.03469
1.03579
1.03633
1.03616
-0.100066
-0.0679052
-0.003784
0.0827873
0.181288
0.287247
0.399777
0.518397
0.642456
0.771087
0.8857
0.968514
1.01845
1.03766
1.03799
1.03532
1.03541
1.03771
1.03982
1.04012
-0.119671
-0.0870219
-0.0221009
0.0654385
0.165073
0.272357
0.386505
0.507145
0.633929
0.766527
0.886697
0.975676
1.02976
1.04891
1.04624
1.04019
1.03862
1.04217
1.04701
1.04909
-0.138473
-0.10539
-0.0397297
0.0486671
0.149291
0.257748
0.373308
0.495723
0.624965
0.761276
0.886987
0.982959
1.04298
1.06416
1.06011
1.05122
1.04702
1.04921
1.05475
1.05766
-0.15658
-0.123053
-0.0567003
0.0324146
0.133881
0.243355
0.36011
0.484041
0.615449
0.755199
0.886307
0.989944
1.05769
1.08308
1.07972
1.06927
1.0613
1.05528
1.04888
1.0538
-0.173951
-0.140082
-0.0731671
0.0164775
0.118544
0.228856
0.346511
0.471645
0.604892
0.747751
0.884129
0.996075
1.07382
1.10583
1.1047
1.0939
1.08019
1.06489
1.04175
1.04738
-0.190486
-0.156486
-0.0889909
0.00102862
0.103518
0.214522
0.332668
0.458794
0.593478
0.738972
0.880074
0.999949
1.08946
1.13028
1.13073
1.11758
1.09864
1.06558
1.01161
0.99031
-0.206099
-0.173328
-0.103761
-0.0135042
0.0896085
0.20084
0.318856
0.445747
0.581456
0.728958
0.87395
1.00047
1.1021
1.1535
1.15042
1.13089
1.09791
1.03794
0.976693
0.940103
-0.24796
-0.189996
-0.117193
-0.0281167
0.0760313
0.186784
0.305218
0.432354
0.56856
0.717228
0.865021
0.996259
1.10797
1.16825
1.1622
1.11854
1.04897
0.972406
0.900918
0.86143
-0.22042
-0.20119
-0.137592
-0.0478622
0.0549123
0.165628
0.283669
0.410714
0.547001
0.696126
0.84558
0.979731
1.08853
1.15629
1.11381
0.976517
0.869778
0.795837
0.726067
0.744131
-0.250068
-0.217623
-0.153125
-0.0637702
0.0386845
0.149371
0.267831
0.394564
0.530406
0.678807
0.827211
0.959244
1.05676
1.09503
1.01372
0.849486
0.724547
0.640362
0.552448
0.588068
-0.272565
-0.237832
-0.171611
-0.0821779
0.0202696
0.131062
0.2496
0.375823
0.510753
0.657487
0.802944
0.929439
1.01466
1.01475
0.878922
0.70433
0.561487
0.458258
0.357739
0.379402
-0.294195
-0.258516
-0.190998
-0.100929
0.00162784
0.112389
0.230544
0.356018
0.489681
0.634054
0.774939
0.89169
0.958116
0.923805
0.739269
0.547227
0.37699
0.235733
0.106202
0.107642
-0.315366
-0.279409
-0.211069
-0.120449
-0.0177501
0.0928392
0.210414
0.33491
0.466878
0.608199
0.742969
0.848815
0.893019
0.804602
0.600664
0.391724
0.19824
0.0398346
-0.165669
-0.246968
-0.336768
-0.300993
-0.23223
-0.141258
-0.038429
0.0719858
0.18899
0.312384
0.44238
0.580077
0.707663
0.803379
0.817377
0.678353
0.472808
0.254787
0.0578149
-0.104858
-0.22661
-0.336968
-0.359454
-0.32374
-0.254832
-0.163742
-0.0609469
0.0491542
0.165439
0.287469
0.415004
0.548219
0.667843
0.748847
0.733185
0.557897
0.35237
0.141085
-0.0389108
-0.137174
-0.162701
-0.175495
-0.383584
-0.347948
-0.278998
-0.187983
-0.0854479
0.024117
0.139371
0.259626
0.384091
0.511806
0.622131
0.683559
0.644771
0.441851
0.239042
0.0484918
-0.0877622
-0.126072
-0.13415
-0.13453
-0.409453
-0.373748
-0.304773
-0.21397
-0.111885
-0.0031463
0.11074
0.228769
0.349527
0.470808
0.57106
0.614111
0.536794
0.334862
0.139259
-0.0263466
-0.10251
-0.116498
-0.117395
-0.117256
-0.437063
-0.40118
-0.332186
-0.24171
-0.140288
-0.0326455
0.0795124
0.19485
0.311299
0.425308
0.514654
0.538984
0.423258
0.237276
0.0531519
-0.0779168
-0.106803
-0.107415
-0.107921
-0.107508
-0.466171
-0.430089
-0.361152
-0.271141
-0.170591
-0.0643502
0.0456869
0.157866
0.269458
0.375448
0.453733
0.456607
0.323191
0.148579
-0.0137953
-0.0894625
-0.104114
-0.102137
-0.101859
-0.101465
-0.496231
-0.460135
-0.391418
-0.302043
-0.202623
-0.0981217
0.00939353
0.11792
0.224241
0.32182
0.388407
0.374221
0.231997
0.0710226
-0.0584823
-0.0977126
-0.0971219
-0.097668
-0.0974734
-0.0971817
-0.5268
-0.490794
-0.422506
-0.334014
-0.236045
-0.13365
-0.029093
0.0752896
0.175957
0.265434
0.317948
0.297002
0.151017
0.0102486
-0.0842566
-0.0926668
-0.0943206
-0.0946819
-0.0946417
-0.0944848
-0.556889
-0.52121
-0.453707
-0.366434
-0.270316
-0.170462
-0.0693073
0.0304781
0.125053
0.207181
0.248177
0.219168
0.0826338
-0.032328
-0.0893101
-0.0992976
-0.0939269
-0.0928217
-0.0924409
-0.0922737
-0.584938
-0.550127
-0.483999
-0.398431
-0.304665
-0.207853
-0.110572
-0.0157553
0.0723556
0.147545
0.183655
0.140283
0.0275951
-0.0647298
-0.0881091
-0.0909581
-0.0914133
-0.090824
-0.0905643
-0.090413
-0.609637
-0.576063
-0.512006
-0.428814
-0.33804
-0.244881
-0.151997
-0.0624628
0.0191585
0.0871215
0.120797
0.0730084
-0.0135007
-0.0828018
-0.103964
-0.0941868
-0.0907162
-0.0895353
-0.0891484
-0.0889713
-0.628429
-0.596943
-0.535995
-0.456088
-0.369138
-0.280361
-0.192463
-0.108553
-0.0332187
0.027786
0.0585065
0.0205379
-0.0402899
-0.0846763
-0.0905721
-0.0902943
-0.0888614
-0.0883223
-0.088129
-0.0879751
-0.639355
-0.610731
-0.553938
-0.478538
-0.396447
-0.312915
-0.230641
-0.152757
-0.0836507
-0.0278441
0.00170954
-0.0234727
-0.0563458
-0.0813901
-0.0821491
-0.0861477
-0.0877781
-0.0880605
-0.0881283
-0.0880663
-0.639774
-0.615106
-0.563792
-0.494353
-0.418358
-0.341087
-0.265109
-0.193572
-0.130884
-0.0791879
-0.0458705
-0.0635868
-0.0713562
-0.0843825
-0.0876402
-0.0886463
-0.0895182
-0.0899089
-0.0900658
-0.0900621
-0.627285
-0.607382
-0.563439
-0.501827
-0.433433
-0.363512
-0.294547
-0.22948
-0.17312
-0.127462
-0.0819096
-0.101049
-0.0894885
-0.0980823
-0.0983019
-0.095527
-0.0945669
-0.094601
-0.0947308
-0.0947145
-0.600018
-0.585543
-0.551149
-0.499794
-0.440651
-0.379222
-0.317927
-0.25939
-0.208591
-0.170588
-0.12276
-0.117951
-0.110159
-0.116593
-0.109242
-0.105068
-0.102508
-0.102196
-0.102419
-0.102427
-0.56147
-0.552273
-0.528266
-0.488619
-0.440091
-0.387986
-0.33468
-0.282715
-0.236711
-0.204299
-0.172865
-0.144787
-0.116217
-0.118516
-0.124388
-0.118328
-0.115611
-0.115457
-0.115995
-0.116014
-0.518667
-0.51342
-0.499683
-0.471423
-0.433872
-0.390677
-0.344946
-0.299059
-0.256907
-0.225678
-0.19783
-0.170275
-0.135453
-0.109013
-0.091669
-0.102308
-0.126464
-0.139793
-0.14362
-0.1441
-0.481221
-0.478
-0.471418
-0.453453
-0.424824
-0.389103
-0.349731
-0.308436
-0.26824
-0.235488
-0.209768
-0.193396
-0.187398
-0.202232
-0.230826
-0.266293
-0.270736
-0.234988
-0.214576
-0.216259
-0.454214
-0.452304
-0.448996
-0.438384
-0.416531
-0.386349
-0.350952
-0.311851
-0.271378
-0.23466
-0.207279
-0.201144
-0.242526
-0.315867
-0.389686
-0.426123
-0.428797
-0.392222
-0.344901
-0.327713
-0.434395
-0.433725
-0.432626
-0.427396
-0.411431
-0.38486
-0.350641
-0.311193
-0.267845
-0.224373
-0.19362
-0.168292
-0.156446
-0.175193
-0.22171
-0.233447
-0.219156
-0.195278
-0.165619
-0.150206
-0.422724
-0.422505
-0.421908
-0.419555
-0.408758
-0.384353
-0.349755
-0.308092
-0.260008
-0.206788
-0.161176
-0.0990549
-0.0195197
0.0537388
0.0962
0.12647
0.157268
0.189396
0.216882
0.23076
-0.414576
-0.414432
-0.414035
-0.413401
-0.40686
-0.384938
-0.349259
-0.304152
-0.250153
-0.184842
-0.117563
-0.0303729
0.110201
0.283535
0.443584
0.567834
0.655338
0.71171
0.746166
0.760848
-0.409168
-0.409128
-0.409016
-0.408874
-0.405059
-0.386654
-0.350012
-0.300533
-0.240476
-0.164623
-0.079145
0.0177968
0.202061
0.45841
0.725674
0.958781
1.12442
1.21887
1.26181
1.2763
-0.404703
-0.404697
-0.404627
-0.404538
-0.403186
-0.3888
-0.352066
-0.298803
-0.23343
-0.150265
-0.0533744
0.0492838
0.246152
0.538212
0.858707
1.1524
1.37543
1.49784
1.54503
1.55744
-0.400873
-0.400863
-0.400739
-0.400484
-0.400335
-0.390353
-0.355433
-0.30028
-0.230646
-0.143836
-0.042386
0.062629
0.242102
0.521729
0.829636
1.11565
1.34178
1.46895
1.51634
1.5276
-0.397963
-0.397962
-0.397901
-0.397839
-0.398217
-0.391276
-0.35996
-0.304426
-0.233084
-0.145821
-0.046694
0.0513714
0.199183
0.444435
0.705478
0.939821
1.12787
1.23695
1.27897
1.28905
-0.395066
-0.395142
-0.395347
-0.395723
-0.395986
-0.392371
-0.364853
-0.310901
-0.240265
-0.155617
-0.0636478
0.0229857
0.13639
0.337065
0.54815
0.724507
0.863918
0.947847
0.980744
0.988669
-0.392004
-0.39214
-0.392361
-0.392652
-0.392976
-0.391788
-0.368969
-0.318251
-0.250855
-0.171816
-0.0888086
-0.0143947
0.0683532
0.22174
0.387433
0.520102
0.621009
0.681711
0.705637
0.710797
-0.389003
-0.389176
-0.389427
-0.389776
-0.390409
-0.390082
-0.37165
-0.325355
-0.263753
-0.191436
-0.117672
-0.0548081
0.00571637
0.119962
0.245517
0.343647
0.41736
0.461102
0.477534
0.480696
-0.386153
-0.386291
-0.386378
-0.386372
-0.386538
-0.38664
-0.371995
-0.331796
-0.277499
-0.212039
-0.147359
-0.0950607
-0.0509707
0.0345122
0.12972
0.201706
0.254689
0.285602
0.296492
0.298119
-0.384599
-0.384568
-0.384099
-0.382724
-0.380604
-0.379709
-0.37019
-0.338506
-0.290756
-0.231568
-0.175572
-0.132372
-0.0983705
-0.0351064
0.0361748
0.0889295
0.126796
0.148659
0.156266
0.157002
-0.386294
-0.386116
-0.385302
-0.38305
-0.379153
-0.376566
-0.371616
-0.346897
-0.302945
-0.248711
-0.201907
-0.164708
-0.138055
-0.0885511
-0.03556
0.00190119
0.0286483
0.0434582
0.0479402
0.0480816
-0.391143
-0.391182
-0.391372
-0.391978
-0.392664
-0.391872
-0.385734
-0.359438
-0.313536
-0.265112
-0.225004
-0.191213
-0.168902
-0.131754
-0.0916234
-0.0642645
-0.0458536
-0.036083
-0.0329851
-0.0331008
-0.394898
-0.395563
-0.398155
-0.405848
-0.417693
-0.421643
-0.410855
-0.372778
-0.32332
-0.280952
-0.243563
-0.211844
-0.192218
-0.162481
-0.132028
-0.111767
-0.0980629
-0.0910013
-0.0888045
-0.0890256
-0.393167
-0.394141
-0.397934
-0.409613
-0.429104
-0.439681
-0.418863
-0.375033
-0.331459
-0.29422
-0.256865
-0.226562
-0.210745
-0.185443
-0.159005
-0.142068
-0.130643
-0.125029
-0.123104
-0.123356
-0.390024
-0.390651
-0.392183
-0.392832
-0.390594
-0.391611
-0.384571
-0.361345
-0.333514
-0.300685
-0.262767
-0.237842
-0.223146
-0.200888
-0.176738
-0.160191
-0.14845
-0.141966
-0.139875
-0.140235
-0.392186
-0.392162
-0.390169
-0.371913
-0.333036
-0.308295
-0.321837
-0.335608
-0.330384
-0.299104
-0.265421
-0.244098
-0.231211
-0.208117
-0.18428
-0.167112
-0.154405
-0.147418
-0.145298
-0.145837
-0.402859
-0.401307
-0.396232
-0.3751
-0.334987
-0.307771
-0.324219
-0.347498
-0.335352
-0.297456
-0.264891
-0.245852
-0.232835
-0.210336
-0.186005
-0.16771
-0.154203
-0.146923
-0.144791
-0.14544
-0.439907
-0.438505
-0.44652
-0.457991
-0.456543
-0.435676
-0.421089
-0.399455
-0.353647
-0.297877
-0.261688
-0.243298
-0.22838
-0.205075
-0.181392
-0.163298
-0.14991
-0.143005
-0.140981
-0.141604
-0.522288
-0.529712
-0.556953
-0.59033
-0.599921
-0.579717
-0.536629
-0.459413
-0.367776
-0.292149
-0.254454
-0.232025
-0.216021
-0.192516
-0.169259
-0.151508
-0.139485
-0.13366
-0.13199
-0.132522
-0.591952
-0.603943
-0.631012
-0.655252
-0.663529
-0.642583
-0.585341
-0.476501
-0.359737
-0.277324
-0.234595
-0.20834
-0.193103
-0.171426
-0.148992
-0.132234
-0.121337
-0.115992
-0.114503
-0.115024
-0.580462
-0.590108
-0.608981
-0.627841
-0.635494
-0.616124
-0.551872
-0.427745
-0.316579
-0.242694
-0.195886
-0.172206
-0.160536
-0.13951
-0.118731
-0.104098
-0.0942699
-0.0893181
-0.0881745
-0.0887946
-0.472908
-0.483093
-0.500312
-0.517054
-0.525134
-0.509719
-0.44463
-0.332389
-0.244262
-0.181648
-0.141302
-0.126064
-0.117209
-0.0987332
-0.081901
-0.0697857
-0.0611028
-0.0567544
-0.0562775
-0.0571091
-0.286036
-0.297344
-0.316102
-0.336913
-0.347494
-0.329973
-0.271632
-0.20152
-0.147389
-0.103602
-0.0808807
-0.0723739
-0.0663357
-0.0540344
-0.0440137
-0.0360762
-0.0285524
-0.0248884
-0.0253245
-0.0264918
0.00483477
-0.00649584
-0.0438082
-0.0774179
-0.0847549
-0.0806772
-0.0672039
-0.0497083
-0.0374094
-0.0257265
-0.0204622
-0.0161633
-0.012829
-0.0118139
-0.00860402
-0.00917959
-0.00893407
-0.00869894
-0.00740697
-0.00672902
0.22857
0.40881
0.572672
0.710081
0.817512
0.899803
0.96697
1.02158
1.03461
1.03228
0.499333
0.613708
0.720437
0.811678
0.887315
0.948909
0.997177
1.02985
1.04755
1.06482
0.682347
0.758036
0.83278
0.897894
0.952945
0.998456
1.03446
1.06227
1.08329
1.10266
0.81848
0.872479
0.926642
0.97514
1.01694
1.0526
1.08272
1.10815
1.12775
1.14666
0.929525
0.970404
1.01076
1.04866
1.08264
1.11281
1.1393
1.16189
1.17951
1.1976
1.02265
1.05684
1.09041
1.12266
1.15251
1.17963
1.20369
1.22401
1.23947
1.25696
1.10845
1.13948
1.17074
1.20102
1.22926
1.25499
1.27761
1.29619
1.30987
1.32687
1.1938
1.22583
1.25764
1.28831
1.31663
1.34202
1.36382
1.3811
1.3933
1.40979
1.28723
1.32343
1.35787
1.38999
1.41886
1.44393
1.46481
1.48092
1.4924
1.5085
1.39984
1.44054
1.47729
1.5099
1.53813
1.56192
1.58139
1.59654
1.60834
1.62438
1.5412
1.58196
1.61706
1.64644
1.67148
1.69298
1.71138
1.72679
1.73985
1.75577
1.71236
1.74424
1.77116
1.79348
1.81351
1.83217
1.84986
1.86659
1.88146
1.89717
1.89834
1.9155
1.93256
1.94922
1.96529
1.98
1.99388
2.00833
2.02354
2.04084
2.0817
2.09158
2.10473
2.11569
2.1251
2.13474
2.14532
2.15548
2.16476
2.19042
2.29944
2.29373
2.28078
2.26653
2.26022
2.2659
2.28404
2.31256
2.34632
2.38264
2.60228
2.46633
2.3868
2.34422
2.32688
2.33088
2.3583
2.41616
2.5238
2.70222
1.0282
1.0219
1.01417
1.00306
0.989502
0.976866
0.966489
0.958506
0.952829
0.949554
0.949276
0.95218
0.957469
0.964868
0.974448
0.9863
0.999877
1.01282
1.02181
1.02936
0.93725
0.943171
0.951248
0.957388
0.960467
0.95997
0.956905
0.952941
0.949396
0.947173
0.947116
0.949447
0.953262
0.957754
0.961889
0.964159
0.963103
0.958479
0.951432
0.943602
0.930466
0.932839
0.936113
0.938895
0.941359
0.943566
0.94477
0.944658
0.94377
0.943032
0.943334
0.944836
0.946687
0.947969
0.947934
0.946496
0.94436
0.942014
0.939043
0.93603
0.925631
0.92672
0.928643
0.930993
0.932881
0.934301
0.935548
0.936582
0.937239
0.937696
0.938352
0.939197
0.939745
0.93969
0.939109
0.938223
0.936919
0.934969
0.932876
0.931403
0.920546
0.92118
0.922316
0.924088
0.925951
0.927571
0.928857
0.92997
0.931019
0.932011
0.932917
0.933558
0.933793
0.933661
0.933183
0.932254
0.93086
0.929275
0.927954
0.927157
0.915543
0.915982
0.916778
0.918099
0.919645
0.921241
0.922762
0.924116
0.925351
0.926549
0.927645
0.928391
0.928688
0.928545
0.927953
0.927009
0.925898
0.924786
0.923902
0.923372
0.910611
0.910937
0.911558
0.912648
0.913973
0.915412
0.916942
0.918486
0.919973
0.921408
0.922727
0.923646
0.924016
0.923885
0.923378
0.922664
0.921872
0.921058
0.920419
0.920031
0.905721
0.905973
0.906475
0.907411
0.908619
0.909974
0.911458
0.913069
0.914763
0.916482
0.918085
0.919215
0.919734
0.919776
0.919506
0.919048
0.918482
0.917905
0.91745
0.917155
0.900797
0.900997
0.901417
0.902246
0.903383
0.904701
0.906184
0.907856
0.909714
0.911712
0.913651
0.915091
0.915887
0.916208
0.916206
0.915997
0.915656
0.915283
0.914973
0.914741
0.89575
0.895911
0.896273
0.897033
0.898132
0.899442
0.90097
0.902748
0.904792
0.907088
0.909427
0.911286
0.912459
0.913115
0.913405
0.913456
0.913352
0.913169
0.912979
0.912794
0.890487
0.890616
0.890937
0.891657
0.892749
0.894097
0.895711
0.897642
0.899933
0.902593
0.905421
0.907796
0.909423
0.910468
0.911092
0.911427
0.911561
0.911567
0.911482
0.911333
0.88491
0.885013
0.885307
0.886013
0.887133
0.888565
0.890312
0.892454
0.895064
0.898185
0.901612
0.904607
0.906769
0.908267
0.909272
0.90992
0.910322
0.910515
0.910521
0.910399
0.878915
0.878995
0.879274
0.879991
0.881176
0.882733
0.88467
0.887094
0.890113
0.893805
0.897962
0.901704
0.904502
0.906529
0.907974
0.908999
0.909685
0.910064
0.910155
0.910053
0.872379
0.872439
0.872713
0.873464
0.87475
0.876481
0.878675
0.881465
0.884996
0.889392
0.894436
0.899074
0.902632
0.905287
0.907239
0.908683
0.909697
0.910283
0.910455
0.910368
0.865164
0.865201
0.865479
0.866286
0.867711
0.869673
0.872199
0.875453
0.879623
0.88488
0.890998
0.896711
0.901171
0.904569
0.907126
0.909054
0.910445
0.911254
0.911506
0.911431
0.857091
0.857109
0.857392
0.858278
0.859888
0.862145
0.865092
0.868927
0.873887
0.880198
0.887612
0.894609
0.900138
0.904411
0.907687
0.910199
0.912019
0.91307
0.913401
0.913333
0.847908
0.847914
0.848223
0.849214
0.851064
0.853695
0.857172
0.861731
0.867668
0.875265
0.88424
0.892766
0.899561
0.904863
0.908984
0.912193
0.914507
0.915823
0.916231
0.916165
0.837345
0.837326
0.837675
0.838817
0.840966
0.844072
0.848215
0.853679
0.860825
0.869993
0.880846
0.891181
0.899462
0.905979
0.911097
0.915108
0.917994
0.919594
0.920074
0.920004
0.825017
0.824977
0.825377
0.82671
0.82924
0.832954
0.837942
0.844547
0.853198
0.864289
0.877394
0.88986
0.899871
0.907797
0.914084
0.919018
0.922547
0.924438
0.924979
0.924899
0.810402
0.810339
0.810822
0.812409
0.815431
0.819932
0.82601
0.834071
0.844611
0.858064
0.873861
0.888813
0.900815
0.910351
0.917988
0.923969
0.928193
0.930367
0.930948
0.930851
0.792776
0.79269
0.793302
0.795247
0.798928
0.804476
0.811993
0.821946
0.834886
0.851247
0.870244
0.888064
0.902319
0.913675
0.922803
0.929954
0.934907
0.93732
0.937908
0.937786
0.771094
0.770992
0.771816
0.774284
0.778894
0.785893
0.795371
0.807846
0.823873
0.843814
0.866577
0.887652
0.904411
0.917768
0.928526
0.936935
0.942577
0.945143
0.945691
0.945537
0.743773
0.743672
0.744854
0.748136
0.754167
0.763289
0.775561
0.791478
0.811499
0.83582
0.862946
0.887636
0.907114
0.922621
0.935112
0.944792
0.950988
0.953565
0.954019
0.95383
0.708241
0.708199
0.710033
0.71473
0.723151
0.735635
0.752038
0.772701
0.797849
0.827431
0.859506
0.888117
0.910463
0.92821
0.942471
0.953317
0.959808
0.962205
0.962512
0.962292
0.659928
0.66013
0.663413
0.671106
0.684005
0.702049
0.724619
0.751709
0.783242
0.818943
0.85647
0.889228
0.914508
0.934481
0.950468
0.962225
0.968597
0.970592
0.970726
0.970491
0.590268
0.591803
0.599837
0.614476
0.635682
0.662614
0.693904
0.729184
0.768249
0.810758
0.854068
0.89107
0.919282
0.941359
0.958812
0.971007
0.976781
0.978201
0.97818
0.977962
0.506977
0.509925
0.525623
0.551021
0.583654
0.621038
0.661725
0.705587
0.752543
0.802352
0.852123
0.894141
0.926006
0.950755
0.96963
0.98161
0.986484
0.987409
0.987342
0.987214
0.421401
0.429075
0.452724
0.488859
0.532497
0.580131
0.630207
0.682669
0.737514
0.794564
0.850718
0.897657
0.933051
0.9604
0.980538
0.991736
0.995194
0.995575
0.995481
0.995408
0.351046
0.360974
0.389636
0.433368
0.485607
0.54188
0.600385
0.660875
0.723193
0.787074
0.849146
0.900541
0.939028
0.968451
0.989091
0.999302
1.00192
1.00212
1.00204
1.002
0.293144
0.303852
0.336345
0.385689
0.444408
0.507544
0.573075
0.640554
0.709588
0.779724
0.847233
0.902714
0.944008
0.975155
0.996068
1.00545
1.0075
1.00761
1.00754
1.00751
0.244422
0.255523
0.290669
0.344371
0.408342
0.477131
0.548543
0.622013
0.69696
0.772722
0.845192
0.904409
0.94828
0.980971
1.00201
1.01062
1.01229
1.01234
1.01228
1.01226
0.202471
0.213749
0.250867
0.308052
0.376387
0.449998
0.526501
0.60522
0.685427
0.766267
0.843252
0.905864
0.952057
0.98608
1.00711
1.01508
1.01647
1.01648
1.01642
1.01641
0.165574
0.176915
0.21557
0.27563
0.347669
0.425454
0.506457
0.589893
0.674891
0.760389
0.841512
0.907187
0.955437
0.990563
1.01149
1.01892
1.02012
1.02009
1.02002
1.02
0.132474
0.143834
0.183698
0.24623
0.321485
0.402939
0.487958
0.575693
0.665128
0.754992
0.839962
0.908415
0.958441
0.994456
1.01522
1.02219
1.02323
1.02317
1.02309
1.02306
0.102137
0.113529
0.154459
0.219177
0.297286
0.382001
0.470638
0.562319
0.655915
0.749942
0.838576
0.909574
0.961124
0.997811
1.01828
1.02486
1.02579
1.02569
1.0256
1.02556
0.0739753
0.0854063
0.127281
0.193963
0.274624
0.362275
0.454206
0.549537
0.647062
0.745121
0.837345
0.910745
0.963576
1.00065
1.02072
1.02692
1.02778
1.02768
1.02758
1.02754
0.0474905
0.0589712
0.10172
0.170191
0.25316
0.343474
0.438428
0.537153
0.638423
0.740439
0.836284
0.912046
0.965948
1.00312
1.02261
1.02843
1.02925
1.02917
1.02911
1.02906
0.0222783
0.0338931
0.0774537
0.147576
0.232644
0.325378
0.423118
0.525021
0.629864
0.73581
0.835411
0.91362
0.968441
1.0054
1.02412
1.02954
1.03033
1.03033
1.03032
1.03029
-0.00181648
0.00994922
0.0542797
0.125912
0.212893
0.307838
0.408141
0.513013
0.621272
0.731125
0.834707
0.915629
0.971323
1.00776
1.02547
1.03045
1.03124
1.03135
1.03141
1.0314
-0.025011
-0.0130447
0.0320201
0.105068
0.193785
0.290736
0.393392
0.501032
0.612551
0.72628
0.834102
0.918192
0.974914
1.01053
1.0269
1.03134
1.03218
1.0324
1.03252
1.03252
-0.0473259
-0.0351782
0.0105874
0.0849631
0.175243
0.274006
0.378815
0.489016
0.603622
0.721159
0.833479
0.921359
0.979557
1.01416
1.02867
1.03226
1.03317
1.03359
1.03374
1.03373
-0.0688967
-0.0565173
-0.01004
0.0655485
0.157216
0.257605
0.364365
0.476923
0.594423
0.715661
0.832679
0.925079
0.985555
1.01928
1.03126
1.03321
1.03394
1.03474
1.03521
1.03525
-0.0895978
-0.0770802
-0.0299035
0.0467792
0.139686
0.241538
0.350031
0.464729
0.584915
0.709709
0.831527
0.929183
0.993089
1.02661
1.03561
1.0348
1.03442
1.03571
1.03735
1.03795
-0.109612
-0.0968782
-0.0490243
0.0286261
0.122631
0.225783
0.335837
0.452434
0.575079
0.703245
0.829848
0.933405
1.00211
1.03682
1.04331
1.03898
1.03626
1.03765
1.04133
1.0436
-0.128831
-0.115879
-0.067431
0.0110953
0.106087
0.210376
0.321807
0.440087
0.564924
0.6962
0.827482
0.937401
1.01231
1.05015
1.05569
1.0483
1.04264
1.04323
1.04885
1.05423
-0.14735
-0.134185
-0.0851018
-0.0057889
0.090055
0.195344
0.307983
0.427708
0.554478
0.688584
0.824292
0.940763
1.02314
1.06613
1.07284
1.064
1.05558
1.05265
1.05227
1.04873
-0.165099
-0.151785
-0.102135
-0.0222078
0.074304
0.180406
0.294042
0.414922
0.543342
0.679979
0.8199
0.94316
1.03452
1.08502
1.09507
1.08652
1.07571
1.06471
1.0528
1.0545
-0.182081
-0.168779
-0.118564
-0.0381213
0.0588252
0.165578
0.279987
0.401672
0.53143
0.67017
0.813929
0.943746
1.04518
1.10573
1.12042
1.11296
1.09827
1.08357
1.04683
1.01083
-0.198127
-0.185041
-0.134388
-0.0534074
0.0435945
0.150831
0.265786
0.388054
0.518745
0.65908
0.806063
0.941695
1.05304
1.12599
1.14618
1.13586
1.11526
1.08092
1.0272
0.976305
-0.215942
-0.199498
-0.149422
-0.0675994
0.0288887
0.1364
0.251044
0.374085
0.505336
0.646745
0.79607
0.936281
1.05552
1.14376
1.17069
1.15353
1.10826
1.04571
0.975155
0.916122
-0.20396
-0.178716
-0.123801
-0.0380859
0.0656842
0.176477
0.297233
0.424381
0.56067
0.709625
0.858309
0.990954
1.10309
1.18105
1.17366
1.08377
1.01494
0.940717
0.87012
0.825492
-0.217031
-0.208981