/*--------------------------------*- C++ -*----------------------------------*\
  =========                 |
  \\      /  F ield         | OpenFOAM: The Open Source CFD Toolbox
   \\    /   O peration     | Website:  https://openfoam.org
    \\  /    A nd           | Version:  6
     \\/     M anipulation  |
\*---------------------------------------------------------------------------*/
FoamFile
{
    version     2.0;
    format      ascii;
    class       surfaceScalarField;
    location    "114.2";
    object      phi;
}
// * * * * * * * * * * * * * * * * * * * * * * * * * * * * * * * * * * * * * //

dimensions      [0 3 -1 0 0 0 0];

internalField   nonuniform List<scalar> 
17370
(
-0.0899999
0.0898489
0.289162
-0.0714623
0.0537525
0.364485
-0.0381195
0.0276905
0.426597
-0.0196392
0.0146068
0.504284
-0.010766
0.00827668
0.601891
-0.00627802
0.00490196
0.720434
-0.00373782
0.00289655
0.863748
-0.002154
0.00159392
1.03601
-0.00107636
0.000662978
1.24292
-0.000254302
-0.000145603
1.49159
0.000526489
-0.000937208
1.4916
0.00133159
-0.00181164
1.24317
0.00233209
-0.00303627
1.03634
0.00385218
-0.00499891
0.864053
0.00636641
-0.00836028
0.721051
0.0108462
-0.0146827
0.603051
0.0197097
-0.027754
0.507484
0.0381754
-0.0537997
0.431793
0.0715014
-0.0898754
0.36515
0.0900164
0.198994
-0.128139
0.0882315
0.0399076
-0.364602
0.353384
-0.0746666
0.0858838
-0.446478
0.454324
-0.0843788
0.0765327
-0.521193
0.529905
-0.0684344
0.059722
-0.612792
0.621572
-0.0515324
0.0427523
-0.726897
0.734168
-0.0352909
0.0280201
-0.867477
0.872597
-0.0224169
0.0172975
-1.03848
1.04193
-0.0134835
0.010029
-1.2446
1.24704
-0.00741437
0.00497744
-1.49262
1.49461
-0.00302463
0.00103668
-1.49251
1.49423
0.000635233
-0.00236019
-1.24397
1.24585
0.00427122
-0.006153
-1.03751
1.04002
0.0084935
-0.011007
-0.866096
0.869826
0.0143548
-0.0180846
-0.724388
0.72993
0.0231259
-0.0286684
-0.608696
0.616108
0.035881
-0.043293
-0.514894
0.523037
0.0520214
-0.060164
-0.439854
0.447911
0.0688248
-0.0768817
-0.375293
0.376735
0.0846747
-0.0861172
-0.257327
0.222471
0.0748244
-0.039968
-0.0685282
0.0587054
0.00982278
-0.0517916
0.0583682
-0.374137
0.36756
-0.0574472
0.0536912
-0.453602
0.457358
-0.0485984
0.0446432
-0.527956
0.531911
-0.0408003
0.0371583
-0.621574
0.625216
-0.0330523
0.028971
-0.73536
0.739441
-0.024393
0.0202257
-0.874351
0.878518
-0.0158708
0.0121689
-1.0435
1.0472
-0.0084232
0.00524381
-1.24857
1.25175
-0.00190959
-0.00116995
-1.49666
1.49974
0.00422301
-0.00749185
-1.4972
1.50047
0.0105653
-0.0141507
-1.25006
1.25365
0.0176892
-0.0218695
-1.04591
1.05009
0.0258929
-0.0303301
-0.877748
0.882185
0.0342968
-0.0382892
-0.739888
0.743881
0.0418347
-0.0455783
-0.626763
0.630506
0.0494481
-0.0544595
-0.534801
0.539813
0.0581237
-0.0589296
-0.457465
0.458271
0.0522153
-0.0320018
-0.335736
0.315522
0.00989148
-0.0683335
0.058442
-0.0529591
0.0489682
0.00399085
-0.0331294
0.0436603
-0.358139
0.347608
-0.0473474
0.0467123
-0.459304
0.459939
-0.0436499
0.0402919
-0.535822
0.53918
-0.0365136
0.0332038
-0.628551
0.631861
-0.0297583
0.0267176
-0.742673
0.745714
-0.0234472
0.0203289
-0.882044
0.885163
-0.0167856
0.0133948
-1.0508
1.05419
-0.00959013
0.00604222
-1.25519
1.25874
-0.00206373
-0.00174165
-1.50325
1.50705
0.00551436
-0.00939056
-1.50412
1.508
0.0127886
-0.0163741
-1.2574
1.26099
0.0195405
-0.0228398
-1.05389
1.05719
0.025752
-0.0288162
-0.885659
0.888724
0.0316866
-0.0349624
-0.74713
0.750406
0.0381291
-0.0417628
-0.634281
0.637915
0.0449969
-0.0479168
-0.544113
0.547033
0.0484001
-0.0444986
-0.456545
0.452643
0.03371
-0.0162394
-0.296138
0.278668
0.00407696
-0.0526171
0.0485401
-0.0458966
0.0434073
0.00248931
-0.0227621
0.0331182
-0.336938
0.326582
-0.0389199
0.039924
-0.459636
0.458632
-0.038723
0.0364287
-0.54191
0.544205
-0.0337531
0.0311487
-0.634925
0.63753
-0.0280743
0.0251624
-0.748771
0.751683
-0.0218815
0.018872
-0.888127
0.891136
-0.0155494
0.0124347
-1.05733
1.06045
-0.00889331
0.00547205
-1.2622
1.26563
-0.00149712
-0.00239681
-1.51094
1.51483
0.00624652
-0.0100842
-1.51188
1.51572
0.0133071
-0.0165624
-1.26443
1.26769
0.0193846
-0.0223873
-1.06028
1.06328
0.0251224
-0.028125
-0.891755
0.894758
0.0308041
-0.0336448
-0.753598
0.756438
0.0360522
-0.0385314
-0.640967
0.643446
0.040658
-0.0416358
-0.548822
0.5498
0.0403959
-0.0342476
-0.447341
0.441193
0.0235103
-0.0102617
-0.263421
0.250172
0.00259604
-0.0453696
0.0427736
-0.0413399
0.0395807
0.00175928
-0.0166886
0.0259076
-0.316759
0.30754
-0.0324826
0.0346019
-0.457053
0.454933
-0.0341649
0.0324828
-0.546197
0.547879
-0.0302909
0.0281842
-0.639852
0.641959
-0.0257377
0.0233232
-0.754343
0.756758
-0.0204431
0.0176327
-0.894046
0.896856
-0.014373
0.0112832
-1.06351
1.0666
-0.00777214
0.00442942
-1.26896
1.2723
-0.000580835
-0.00316495
-1.51862
1.52237
0.00685395
-0.0105267
-1.51944
1.52311
0.013616
-0.0167638
-1.27094
1.27409
0.0194824
-0.0223337
-1.06629
1.06914
0.0247902
-0.0273092
-0.897544
0.900063
0.0294212
-0.0315649
-0.758869
0.761013
0.0334185
-0.0353564
-0.645583
0.647521
0.0367937
-0.0369266
-0.550296
0.550429
0.0344442
-0.0273595
-0.434491
0.427407
0.0176249
-0.0074402
-0.238603
0.228418
0.00188989
-0.0405851
0.0386952
-0.0380682
0.0367487
0.00131947
-0.0127121
0.020614
-0.298987
0.291085
-0.0273196
0.0302103
-0.452404
0.449513
-0.0303906
0.0292519
-0.549331
0.55047
-0.0272441
0.0253115
-0.644016
0.645949
-0.0230903
0.0209297
-0.759017
0.761177
-0.0183854
0.0158735
-0.899449
0.901961
-0.0128993
0.00999145
-1.06955
1.07246
-0.00660004
0.00333463
-1.27557
1.27884
0.000434733
-0.00408045
-1.52602
1.52967
0.00765477
-0.0112023
-1.52669
1.53024
0.0141498
-0.0170878
-1.27722
1.28016
0.0195332
-0.0219975
-1.07185
1.07432
0.0240656
-0.0261544
-0.902316
0.904405
0.027932
-0.0297683
-0.762972
0.764808
0.0313805
-0.0330786
-0.649319
0.651018
0.0338592
-0.0332519
-0.550188
0.549581
0.0298395
-0.0224334
-0.4201
0.412694
0.013867
-0.0057849
-0.219383
0.211301
0.00147855
-0.037035
0.0355564
-0.0355997
0.0345874
0.00101226
-0.00989678
0.0165546
-0.283834
0.277176
-0.0229761
0.0263032
-0.446391
0.443064
-0.0270484
0.0263233
-0.551406
0.552131
-0.0245424
0.0227368
-0.647872
0.649677
-0.0206381
0.0185902
-0.763276
0.765324
-0.0161794
0.0138141
-0.904324
0.90669
-0.011033
0.00830988
-1.0752
1.07793
-0.00511264
0.00199492
-1.28199
1.28511
0.00164597
-0.0051819
-1.53323
1.53676
0.00862908
-0.0119943
-1.53367
1.53703
0.0147188
-0.0173576
-1.28303
1.28567
0.0195123
-0.0216656
-1.07667
1.07882
0.0234817
-0.0253271
-0.90634
0.908186
0.026899
-0.0285196
-0.766526
0.768147
0.0299272
-0.031276
-0.652571
0.65392
0.0315567
-0.0302038
-0.548606
0.547253
0.0261555
-0.0188089
-0.405286
0.397939
0.0113141
-0.00469296
-0.204016
0.197395
0.0012059
-0.0342279
0.033022
-0.033703
0.03292
0.000782975
-0.00780156
0.0133717
-0.271096
0.265526
-0.0192882
0.0227942
-0.439646
0.43614
-0.0240011
0.0235147
-0.552783
0.553269
-0.0219925
0.0202898
-0.651494
0.653197
-0.0182774
0.016306
-0.767325
0.769296
-0.0139765
0.011689
-0.908942
0.911229
-0.00900067
0.00637868
-1.08052
1.08314
-0.00331332
0.000331026
-1.2881
1.29109
0.0031461
-0.00651417
-1.54017
1.54354
0.00977305
-0.0129117
-1.54024
1.54338
0.0154124
-0.0177961
-1.28827
1.29066
0.019725
-0.021646
-1.08091
1.08284
0.0232594
-0.0248929
-0.909899
0.911532
0.0262788
-0.0277024
-0.769656
0.771079
0.0289065
-0.0298629
-0.655071
0.656028
0.0297623
-0.0277251
-0.545544
0.543507
0.0232533
-0.0161474
-0.390702
0.383596
0.00953578
-0.00394347
-0.191334
0.185742
0.00101845
-0.0319196
0.0309012
-0.0322377
0.0316337
0.000604036
-0.006176
0.0108133
-0.260455
0.255818
-0.0161175
0.0196031
-0.432653
0.429168
-0.0211147
0.0208433
-0.553702
0.553973
-0.0195422
0.0178922
-0.654936
0.656586
-0.0159257
0.0139933
-0.771234
0.773167
-0.0117104
0.00946977
-0.913408
0.915648
-0.00683741
0.00427458
-1.08565
1.08821
-0.00128822
-0.00159873
-1.29396
1.29685
0.00493516
-0.00813526
-1.54677
1.54997
0.0112021
-0.0141257
-1.54635
1.54928
0.0164261
-0.0185847
-1.29304
1.2952
0.0203068
-0.0220069
-1.08472
1.08642
0.0234246
-0.0248545
-0.91303
0.91446
0.0260679
-0.0273108
-0.772398
0.773641
0.0283701
-0.0288999
-0.656778
0.657308
0.0283976
-0.0257738
-0.541167
0.538543
0.0210262
-0.0142183
-0.37664
0.369833
0.00829373
-0.00342728
-0.180546
0.17568
0.000890115
-0.0299545
0.0290643
-0.031113
0.0306551
0.000457845
-0.00485833
0.00868685
-0.251617
0.247789
-0.0133325
0.0166469
-0.425788
0.422474
-0.0183204
0.018226
-0.55422
0.554315
-0.0171053
0.0154816
-0.658305
0.659929
-0.0135253
0.0115949
-0.775077
0.777007
-0.0093158
0.00708565
-0.917784
0.920014
-0.00447547
0.00194448
-1.09067
1.0932
0.000991201
-0.0038111
-1.29964
1.30246
0.00704215
-0.0101072
-1.55304
1.55611
0.0130102
-0.0157397
-1.55204
1.55477
0.0178479
-0.0197819
-1.29738
1.29931
0.0212972
-0.0227796
-1.08809
1.08957
0.0240113
-0.0252539
-0.915755
0.916998
0.0263124
-0.0273916
-0.774781
0.77586
0.0282368
-0.0283941
-0.657637
0.657794
0.027457
-0.0243192
-0.535655
0.532517
0.0193836
-0.0128561
-0.363177
0.356649
0.00744239
-0.00308023
-0.171094
0.166731
0.000805499
-0.0282232
0.0274177
-0.0302693
0.0299364
0.000332898
-0.00374484
0.00685799
-0.244349
0.241236
-0.0108308
0.0138615
-0.419332
0.416301
-0.0155672
0.0156099
-0.55442
0.554377
-0.0145575
0.0129925
-0.661616
0.663181
-0.0110154
0.00905203
-0.778924
0.780888
-0.00673544
0.0044776
-0.922144
0.924402
-0.00184874
-0.000685305
-1.09563
1.09817
0.00360493
-0.00638772
-1.30519
1.30797
0.00954628
-0.0125062
-1.55905
1.56201
0.0152701
-0.0178216
-1.55733
1.55988
0.0197437
-0.021455
-1.30129
1.303
0.0227659
-0.024036
-1.09104
1.09231
0.0250872
-0.0261487
-0.918104
0.919165
0.0270596
-0.0279782
-0.776823
0.777742
0.0285595
-0.0284074
-0.657797
0.657645
0.0269838
-0.0233607
-0.529139
0.525516
0.0182691
-0.0119564
-0.350247
0.343935
0.00689587
-0.00286456
-0.162559
0.158527
0.000755231
-0.0266433
0.0258881
-0.0296688
0.0294487
0.000220059
-0.00275871
0.00522105
-0.238479
0.236016
-0.00851826
0.0111798
-0.413494
0.410832
-0.0128009
0.0129044
-0.554398
0.554294
-0.0118791
0.0103395
-0.664837
0.666376
-0.00831513
0.00628656
-0.782842
0.78487
-0.00389355
0.00157025
-0.926563
0.928886
0.00112081
-0.00369825
-1.10061
1.10319
0.00664508
-0.00942742
-1.31067
1.31346
0.0125486
-0.0154305
-1.56485
1.56774
0.0180758
-0.020465
-1.56226
1.56465
0.0222098
-0.0237019
-1.30478
1.30627
0.0248086
-0.0258641
-1.09358
1.09463
0.0267293
-0.0275985
-0.920084
0.920953
0.0283462
-0.0290949
-0.778482
0.779231
0.0293853
-0.0288781
-0.657364
0.656856
0.0269813
-0.0228916
-0.52168
0.517591
0.0176359
-0.0114437
-0.337706
0.331514
0.00659461
-0.00275326
-0.154612
0.150771
0.00073214
-0.0251499
0.0244178
-0.029291
0.0291794
0.000111538
-0.00183515
0.00368162
-0.233891
0.232045
-0.00629493
0.00851441
-0.408439
0.406219
-0.00994096
0.0100245
-0.554318
0.554234
-0.00898911
0.00743258
-0.668045
0.669601
-0.00532857
0.0032008
-0.78689
0.789018
-0.000691113
-0.00173596
-0.931113
0.93354
0.00453279
-0.00719428
-1.10568
1.10834
0.0102125
-0.0130325
-1.31617
1.31899
0.0161529
-0.0189841
-1.5705
1.57334
0.0215304
-0.0237706
-1.56686
1.5691
0.0253432
-0.0266193
-1.30787
1.30914
0.0275227
-0.0283596
-1.09569
1.09653
0.0290303
-0.0296993
-0.921675
0.922344
0.0302893
-0.0308853
-0.779794
0.78039
0.030803
-0.0298711
-0.656176
0.655244
0.0274712
-0.0229007
-0.513295
0.508724
0.0174399
-0.0112597
-0.325355
0.319175
0.00649541
-0.0027271
-0.146987
0.143218
0.000731204
-0.0236915
0.0229603
-0.0291306
0.0291279
2.70575e-06
-0.00092483
0.00216576
-0.230529
0.229288
-0.00407698
0.00578825
-0.404308
0.402597
-0.00691598
0.00689619
-0.554349
0.554369
-0.00580045
0.00418339
-0.671328
0.672945
-0.00195611
-0.000308721
-0.791136
0.793401
0.00297983
-0.00555335
-0.935871
0.938445
0.00850394
-0.0112935
-1.11093
1.11372
0.0144303
-0.0173285
-1.32175
1.32464
0.0204883
-0.0232991
-1.57606
1.57887
0.0257679
-0.0278718
-1.57114
1.57325
0.0292789
-0.030343
-1.31054
1.31161
0.0310433
-0.0316588
-1.09738
1.098
0.0321286
-0.0325824
-0.922859
0.923313
0.0329807
-0.0332933
-0.780709
0.781022
0.0329027
-0.0314626
-0.654133
0.652693
0.0285163
-0.0234154
-0.503933
0.498832
0.0176744
-0.0113798
-0.312969
0.306675
0.00657775
-0.00277657
-0.139453
0.135652
0.000749882
-0.0222251
0.0214752
-0.0291914
0.0293047
-0.000113273
1.99821e-05
0.000604759
-0.228376
0.227752
-0.00178021
0.0029159
-0.401233
0.400097
-0.00364328
0.0034345
-0.554671
0.55488
-0.00221717
0.000478746
-0.674782
0.67652
0.00191421
-0.00436191
-0.795654
0.798102
0.00724649
-0.0100152
-0.940925
0.943693
0.0131738
-0.0161406
-1.11644
1.11941
0.0194478
-0.022468
-1.32749
1.33051
0.0257089
-0.0285307
-1.58157
1.58439
0.0309437
-0.0329238
-1.57513
1.57711
0.0341721
-0.0350241
-1.3128
1.31365
0.0355133
-0.0358951
-1.09861
1.099
0.0361548
-0.036386
-0.923607
0.923838
0.036573
-0.0365332
-0.78104
0.781001
0.0357806
-0.0337451
-0.65105
0.649014
0.0301774
-0.0244605
-0.493482
0.487765
0.018335
-0.0117857
-0.300289
0.29374
0.00682549
-0.00289334
-0.131806
0.127874
0.000785599
-0.0207128
0.0199272
-0.0294886
0.0297411
-0.000252471
0.00101103
-0.00106528
-0.227472
0.227526
0.000684141
-0.000197078
-0.399354
0.398867
-2.80477e-05
-0.000465926
-0.555476
0.55597
0.00187453
-0.00379756
-0.678529
0.680452
0.00641889
-0.0091035
-0.800534
0.803219
0.0122616
-0.0152815
-0.946372
0.949392
0.0187102
-0.0219102
-1.12232
1.12552
0.0254461
-0.0286361
-1.33349
1.33668
0.0320015
-0.0348616
-1.58711
1.58997
0.0372316
-0.0390978
-1.57885
1.58072
0.0401978
-0.0408361
-1.31461
1.31525
0.0411001
-0.0412283
-1.09936
1.09949
0.0412574
-0.0412501
-0.92389
0.923882
0.0412478
-0.0407425
-0.780662
0.780156
0.0395436
-0.0368082
-0.646764
0.644028
0.0325156
-0.0260601
-0.481749
0.475294
0.0194185
-0.0124615
-0.287027
0.28007
0.00722346
-0.00306894
-0.12385
0.119696
0.000835531
-0.0191217
0.0182861
-0.0300632
0.0304596
-0.000396436
0.0021266
-0.00283429
-0.227889
0.228596
0.00333731
-0.00362365
-0.398819
0.399105
0.00405713
-0.00493768
-0.556996
0.557876
0.00660938
-0.0087901
-0.682703
0.684884
0.0117164
-0.0147062
-0.805883
0.808873
0.0182106
-0.0215479
-0.952329
0.955666
0.0253185
-0.0288145
-1.12868
1.13218
0.0326424
-0.0360526
-1.33985
1.34326
0.0395867
-0.0425117
-1.59272
1.59565
0.0448472
-0.0465933
-1.58229
1.58403
0.0475315
-0.0479617
-1.31598
1.31641
0.0479926
-0.0478513
-1.09959
1.09945
0.0476368
-0.0473748
-0.923657
0.923395
0.0471169
-0.0460968
-0.779391
0.778371
0.0443465
-0.0407673
-0.641063
0.637484
0.0356031
-0.0282405
-0.468472
0.461109
0.0209217
-0.01339
-0.272869
0.265337
0.00775514
-0.00329373
-0.115407
0.110946
0.000896382
-0.0174249
0.0165285
-0.0309467
0.0315241
-0.000577431
0.00340698
-0.0049165
-0.229731
0.231241
0.0063486
-0.00747331
-0.399827
0.400951
0.00868383
-0.0100916
-0.559447
0.560855
0.0121702
-0.0146941
-0.687444
0.689968
0.0180161
-0.0213902
-0.811836
0.81521
0.025326
-0.0290582
-0.958932
0.962664
0.0332531
-0.037115
-1.13565
1.13951
0.0413026
-0.0449831
-1.34665
1.35033
0.0487253
-0.0517352
-1.59846
1.60147
0.0540416
-0.0556634
-1.58543
1.58705
0.0564407
-0.0566404
-1.31687
1.31707
0.0564121
-0.0559831
-1.09925
1.09882
0.0555162
-0.054973
-0.922882
0.922339
0.054312
-0.0527942
-0.777184
0.775667
0.050323
-0.0457187
-0.633645
0.629041
0.0394927
-0.0310087
-0.453291
0.444807
0.0228236
-0.0145402
-0.257476
0.249193
0.00839391
-0.00355292
-0.106313
0.101472
0.000963182
-0.0156028
0.0146396
-0.0322048
0.0330167
-0.000811877
0.0049892
-0.00741533
-0.233218
0.235644
0.00992992
-0.0119981
-0.402588
0.404657
0.0141095
-0.016169
-0.563087
0.565147
0.0187909
-0.0217596
-0.692934
0.695903
0.0255935
-0.0294452
-0.818559
0.822411
0.033915
-0.0381329
-0.966342
0.97056
0.0428447
-0.0471472
-1.14336
1.14766
0.0517617
-0.0557568
-1.354
1.35799
0.0597333
-0.0628299
-1.60436
1.60746
0.0650913
-0.0665667
-1.58826
1.58974
0.0671708
-0.0670928
-1.31721
1.31713
0.0665905
-0.0658474
-1.09832
1.09758
0.0651149
-0.0643106
-0.921509
0.920704
0.0631253
-0.0609986
-0.774039
0.771912
0.0576372
-0.0517526
-0.624112
0.618227
0.0442099
-0.0343342
-0.435753
0.425877
0.0250677
-0.0158531
-0.240493
0.231278
0.00909494
-0.00382325
-0.0964304
0.0911587
0.00102852
-0.0136466
0.0126181
-0.0339347
0.0350542
-0.00111951
0.00698063
-0.0105162
-0.238579
0.242115
0.0143082
-0.0174622
-0.407404
0.410558
0.0206072
-0.0234481
-0.568206
0.571047
0.0267727
-0.0303151
-0.699402
0.702944
0.0348128
-0.0392632
-0.826248
0.830698
0.0443899
-0.0491959
-0.974743
0.97955
0.0545231
-0.0593382
-1.15197
1.15679
0.0644336
-0.0687667
-1.36197
1.3663
0.0729736
-0.076128
-1.61041
1.61356
0.0783018
-0.0795807
-1.59072
1.592
0.079968
-0.0795862
-1.31687
1.31649
0.0787881
-0.077703
-1.09673
1.09564
0.0767017
-0.0755946
-0.919571
0.918464
0.0738448
-0.0709223
-0.769732
0.76681
0.0664123
-0.0588909
-0.611934
0.604413
0.0496997
-0.0381089
-0.415298
0.403707
0.0275318
-0.0172238
-0.221566
0.211258
0.00978567
-0.00406984
-0.0856747
0.0799589
0.00108197
-0.0115642
0.0104822
-0.0362716
0.0378134
-0.00154183
0.00959407
-0.014509
-0.24617
0.251085
0.0198237
-0.0242388
-0.414642
0.419057
0.0285697
-0.032346
-0.575136
0.578912
0.0365543
-0.0408608
-0.707121
0.711428
0.0461917
-0.0513915
-0.835146
0.840345
0.0573196
-0.062824
-0.984346
0.98985
0.068859
-0.0742389
-1.16161
1.16699
0.0798333
-0.0844841
-1.37059
1.37524
0.0888616
-0.0919914
-1.61652
1.61965
0.0939892
-0.0949834
-1.59269
1.59368
0.0950873
-0.0943995
-1.31582
1.31513
0.0932287
-0.0917944
-1.09443
1.093
0.0905242
-0.0889254
-0.916889
0.915291
0.0866548
-0.0826435
-0.763827
0.759815
0.076648
-0.0670313
-0.596371
0.586754
0.0557781
-0.0421044
-0.391263
0.377589
0.0299974
-0.0184849
-0.200394
0.188881
0.0103592
-0.00424497
-0.0740454
0.0679312
0.00111024
-0.00938521
0.00827497
-0.0394262
0.04158
-0.00215383
0.013198
-0.0198771
-0.256499
0.263178
0.0270231
-0.03291
-0.424783
0.43067
0.0386131
-0.0435229
-0.584266
0.589176
0.0488342
-0.0541241
-0.716488
0.721778
0.0605359
-0.0666621
-0.845549
0.851675
0.0735354
-0.0798244
-0.995365
1.00165
0.086612
-0.0925492
-1.17236
1.1783
0.098582
-0.103453
-1.37979
1.38466
0.107855
-0.110804
-1.62249
1.62544
0.112473
-0.113047
-1.59397
1.59454
0.112777
-0.111715
-1.31399
1.31293
0.110153
-0.108341
-1.09144
1.08962
0.106782
-0.104636
-0.913085
0.910938
0.101686
-0.0961972
-0.755702
0.750213
0.0882076
-0.0758747
-0.576459
0.564126
0.0620562
-0.0459183
-0.362918
0.34678
0.0321205
-0.0193992
-0.176802
0.164081
0.0106761
-0.00429143
-0.0616725
0.0552878
0.00109863
-0.00716678
0.00606815
-0.0437414
0.0468399
-0.00309848
0.0184348
-0.0274217
-0.27032
0.279307
0.0368011
-0.0444686
-0.438512
0.446179
0.0518362
-0.0581081
-0.596101
0.602373
0.0648531
-0.0715003
-0.727932
0.734579
0.0791843
-0.0863436
-0.857788
0.864948
0.0942249
-0.101296
-1.00794
1.01501
0.108759
-0.115119
-1.18415
1.19051
0.121386
-0.126255
-1.38931
1.39418
0.130418
-0.132937
-1.62796
1.63048
0.134053
-0.134012
-1.59426
1.59422
0.133245
-0.131736
-1.31119
1.30969
0.129774
-0.127523
-1.08767
1.08542
0.125538
-0.122878
-0.90803
0.905371
0.118846
-0.111301
-0.744492
0.736947
0.100634
-0.0848097
-0.55092
0.535096
0.0678651
-0.0489412
-0.329553
0.310629
0.0334311
-0.0196781
-0.150871
0.137118
0.0105837
-0.00415307
-0.0488597
0.0424291
0.00103434
-0.00499389
0.00395955
-0.0498167
0.0545147
-0.00469801
0.0265583
-0.0386586
-0.288824
0.300924
0.0509096
-0.0609342
-0.456948
0.466972
0.0703493
-0.0782638
-0.611219
0.619133
0.0867852
-0.0949836
-0.741994
0.750192
0.104071
-0.112257
-0.872069
0.880255
0.121012
-0.128644
-1.02198
1.02961
0.136455
-0.142893
-1.1966
1.20304
0.148981
-0.153465
-1.39862
1.4031
0.156973
-0.15871
-1.6324
1.63413
0.158975
-0.158071
-1.59315
1.59225
0.156637
-0.154558
-1.30722
1.30514
0.152139
-0.149369
-1.08301
1.08024
0.146943
-0.143515
-0.901534
0.898106
0.137902
-0.127363
-0.728902
0.718363
0.113057
-0.0928172
-0.518156
0.497916
0.0722151
-0.0503885
-0.290666
0.26884
0.0333996
-0.0190474
-0.1231
0.108748
0.00995861
-0.0037924
-0.0361045
0.0299382
0.000909156
-0.00297188
0.00206272
-0.0587934
0.0668211
-0.0080277
0.0407982
-0.0574958
-0.314226
0.330924
0.0737928
-0.0869101
-0.481681
0.494799
0.0984476
-0.107995
-0.63015
0.639697
0.118299
-0.127944
-0.758867
0.768512
0.13813
-0.146864
-0.888165
0.896899
0.155853
-0.163412
-1.03687
1.04443
0.170888
-0.176772
-1.2089
1.21478
0.182041
-0.185555
-1.40685
1.41036
0.187853
-0.18834
-1.63502
1.63551
0.187367
-0.185309
-1.59016
1.5881
0.183014
-0.180243
-1.30178
1.29901
0.177271
-0.173907
-1.07724
1.07388
0.170859
-0.16615
-0.892857
0.888148
0.158051
-0.143134
-0.706875
0.691958
0.123867
-0.0983454
-0.47625
0.450728
0.0739033
-0.0495452
-0.246334
0.221976
0.0316784
-0.0174127
-0.0945629
0.0802972
0.00878891
-0.00321358
-0.024062
0.0184867
0.000721275
-0.00120915
0.000487872
-0.0742716
0.0788353
-0.00456371
0.0314333
-0.0461079
-0.350583
0.365257
0.0607861
-0.0728821
-0.513956
0.526052
0.0840371
-0.0947517
-0.652789
0.663504
0.107064
-0.118337
-0.777452
0.788725
0.13094
-0.142268
-0.904654
0.915982
0.15452
-0.165603
-1.05111
1.0622
0.177478
-0.187963
-1.21966
1.23015
0.198845
-0.208035
-1.41281
1.422
0.216999
-0.223859
-1.63487
1.64173
0.228684
-0.232231
-1.58463
1.58818
0.234424
-0.236072
-1.29457
1.29621
0.236876
-0.236431
-1.0699
1.06945
0.234973
-0.229087
-0.880433
0.874547
0.216005
-0.191339
-0.675412
0.650746
0.159927
-0.120965
-0.42362
0.384659
0.0866551
-0.0549618
-0.197734
0.166041
0.033499
-0.0175343
-0.0669503
0.0509857
0.0083928
-0.00284865
-0.0134106
0.00786641
0.000558945
0.000246239
-0.000805185
-0.0867517
0.0849123
0.00183949
0.00910844
-0.0189025
-0.382958
0.392752
0.0302478
-0.0391731
-0.543207
0.552132
0.0483598
-0.0574835
-0.676946
0.686069
0.0687493
-0.0793242
-0.799445
0.81002
0.0907589
-0.101292
-0.926773
0.937306
0.112676
-0.122647
-1.07307
1.08304
0.13356
-0.142871
-1.24053
1.24984
0.152582
-0.160627
-1.43103
1.43908
0.168206
-0.173992
-1.64812
1.65391
0.177919
-0.180641
-1.59093
1.59365
0.181985
-0.183018
-1.296
1.29703
0.183421
-0.182548
-1.06745
1.06658
0.179518
-0.170838
-0.863143
0.854463
0.155361
-0.130467
-0.621375
0.596481
0.102739
-0.0722597
-0.343323
0.312845
0.0485595
-0.0290371
-0.135813
0.11629
0.0168062
-0.00834039
-0.036434
0.0279683
0.00375251
-0.0011702
-0.00266185
7.95399e-05
0.000179282
0.00154264
-0.00172192
-0.088646
0.0856772
0.00296878
-0.000241756
-0.00563773
-0.405356
0.411236
0.0133367
-0.0201208
-0.565344
0.572128
0.0272176
-0.0351123
-0.697695
0.70559
0.0449578
-0.054196
-0.819495
0.828734
0.0644195
-0.0737004
-0.947053
0.956333
0.0835222
-0.0925603
-1.09291
1.10195
0.102286
-0.110742
-1.25882
1.26728
0.11919
-0.126135
-1.44665
1.4536
0.132885
-0.137816
-1.65934
1.66427
0.140979
-0.143
-1.59576
1.59778
0.143778
-0.144383
-1.29634
1.29694
0.144182
-0.142852
-1.06292
1.06159
0.138694
-0.128469
-0.841627
0.831402
0.112542
-0.0894236
-0.568095
0.544977
0.0664964
-0.0440198
-0.280587
0.25811
0.0284925
-0.0166593
-0.0973368
0.0855036
0.00952388
-0.00470903
-0.0197808
0.014966
0.00211835
-0.000659148
0.00265587
-0.00411507
0.00010205
0.00209496
-0.00219701
-0.087531
0.084672
0.00285897
-0.00440919
0.00125405
-0.420703
0.423858
0.00390178
-0.00916401
-0.58226
0.587522
0.0152721
-0.0219506
-0.714885
0.721564
0.0304301
-0.0384143
-0.837196
0.84518
0.0472319
-0.0552771
-0.965064
0.973109
0.0642088
-0.0720231
-1.11056
1.11838
0.0806572
-0.0877458
-1.27538
1.28247
0.0952434
-0.101392
-1.46043
1.46658
0.107165
-0.111124
-1.66902
1.67298
0.113841
-0.115536
-1.59931
1.601
0.116021
-0.11585
-1.29611
1.29594
0.115235
-0.113381
-1.05684
1.05498
0.108406
-0.0979681
-0.817432
0.806995
0.0827351
-0.0628516
-0.51918
0.499296
0.0449632
-0.0290542
-0.234618
0.218709
0.0186622
-0.0109843
-0.0731892
0.0655112
0.00635653
-0.00320794
-0.00980524
0.00665666
0.00148856
-0.000483968
0.00582788
-0.00683247
8.20651e-05
0.00242362
-0.00250569
-0.0860784
0.0834755
0.00260298
-0.00605283
0.00462191
-0.431242
0.432672
-0.000676545
-0.00335171
-0.595975
0.600003
0.00831394
-0.0143306
-0.72942
0.735437
0.0214768
-0.0284951
-0.852351
0.85937
0.0361613
-0.0431863
-0.980681
0.987706
0.050914
-0.0578841
-1.12606
1.13303
0.0653143
-0.0717845
-1.28943
1.2959
0.0783439
-0.0836959
-1.47241
1.47777
0.088668
-0.091993
-1.67694
1.68027
0.0942177
-0.095326
-1.60206
1.60317
0.0955262
-0.0951376
-1.29486
1.29447
0.0941143
-0.0916374
-1.04971
1.04724
0.0865013
-0.0762465
-0.792988
0.782733
0.0626543
-0.0460489
-0.477199
0.460594
0.0323448
-0.0208655
-0.201489
0.19001
0.013492
-0.00811147
-0.0570387
0.0516582
0.00483041
-0.00251779
-0.00302099
0.000708376
0.00121345
-0.000413635
0.00807797
-0.00887778
8.21312e-05
0.00266846
-0.00275059
-0.0845959
0.0822962
0.00229971
-0.0063978
0.00562075
-0.438614
0.439391
-0.0031652
-0.000136739
-0.606674
0.609976
0.00487989
-0.0100114
-0.741763
0.746894
0.0161303
-0.0221969
-0.865486
0.871552
0.0289646
-0.0352017
-0.994342
1.00058
0.0421961
-0.0482863
-1.13969
1.14578
0.0549017
-0.0606538
-1.30205
1.30781
0.0663973
-0.0710376
-1.48285
1.48749
0.0752581
-0.0783644
-1.6836
1.6867
0.0800822
-0.0809855
-1.60387
1.60477
0.0809142
-0.0802107
-1.29329
1.29258
0.0790526
-0.0760115
-1.04183
1.03879
0.0707417
-0.0611675
-0.76933
0.759756
0.0491667
-0.0354194
-0.44197
0.428223
0.0247714
-0.0161261
-0.177117
0.168472
0.0106601
-0.00657714
-0.0453701
0.0412871
0.0040054
-0.00214231
0.00207266
-0.00393574
0.00105655
-0.000377319
0.00984691
-0.0105261
8.09932e-05
0.00286756
-0.00294855
-0.083316
0.0814427
0.00187337
-0.00591892
0.00565782
-0.444037
0.444298
-0.00366913
0.0011734
-0.61593
0.618426
0.00315185
-0.00774229
-0.752396
0.756987
0.0134329
-0.0186097
-0.87714
0.882316
0.0244846
-0.0299397
-1.00674
1.01219
0.0364082
-0.0418158
-1.15185
1.15726
0.0475816
-0.0527985
-1.31332
1.31854
0.0582787
-0.0623277
-1.4921
1.49615
0.0660852
-0.0685995
-1.68943
1.69195
0.0702313
-0.0705792
-1.60547
1.60582
0.0704885
-0.0697438
-1.29129
1.29054
0.0681959
-0.0650505
-1.03347
1.03032
0.0597543
-0.0506904
-0.74698
0.737916
0.0403102
-0.0287638
-0.412399
0.400852
0.0202205
-0.0134891
-0.158426
0.151695
0.0091164
-0.0057645
-0.0362976
0.0329457
0.00358569
-0.00195443
0.00622812
-0.00785939
0.000977147
-0.000355151
0.0113274
-0.0119494
8.09529e-05
0.00302923
-0.00311018
-0.0824296
0.0808932
0.00153643
-0.00517018
0.00522584
-0.448136
0.44808
-0.00349797
0.00122875
-0.623838
0.626107
0.002733
-0.00678887
-0.761796
0.765852
0.0115912
-0.0164417
-0.88738
0.892231
0.021735
-0.0271408
-1.01738
1.02279
0.0325968
-0.0375438
-1.1627
1.16765
0.0431048
-0.0477186
-1.32354
1.32815
0.0522464
-0.0562442
-1.50002
1.50402
0.059594
-0.0618163
-1.6945
1.69672
0.0630242
-0.0633878
-1.60634
1.6067
0.0631491
-0.0622242
-1.28914
1.28822
0.060573
-0.0572008
-1.02519
1.02182
0.0520241
-0.0437687
-0.726051
0.717796
0.0343635
-0.0246451
-0.387342
0.377623
0.0176588
-0.0120825
-0.143548
0.137972
0.00839957
-0.00549264
-0.0287147
0.0258077
0.00349763
-0.00194671
0.00988229
-0.0114332
0.000987105
-0.000359761
0.0126604
-0.0132878
8.43649e-05
0.00316712
-0.00325148
-0.0820027
0.0806541
0.00134859
-0.00413865
0.00410157
-0.451509
0.451546
-0.00270955
0.000566225
-0.630879
0.633023
0.00297649
-0.00678854
-0.770339
0.774151
0.0112558
-0.0155361
-0.896814
0.901094
0.0207662
-0.0251468
-1.02752
1.0319
0.0303205
-0.0348209
-1.17268
1.17718
0.0399174
-0.0443594
-1.33264
1.33708
0.0487203
-0.0519887
-1.50765
1.51092
0.0550553
-0.057024
-1.69877
1.70074
0.0582368
-0.0582597
-1.60686
1.60688
0.0579296
-0.0568719
-1.28714
1.28608
0.0551478
-0.0515874
-1.01679
1.01323
0.0466407
-0.0388714
-0.706674
0.698905
0.0305439
-0.0221842
-0.366015
0.357655
0.0162573
-0.011589
-0.131101
0.126433
0.00835361
-0.00567298
-0.0220106
0.01933
0.00373215
-0.0021428
0.0133477
-0.0149371
0.00111184
-0.000420467
0.0139729
-0.0146642
9.85361e-05
0.00329076
-0.0033893
-0.0817891
0.0807651
0.001024
-0.00317916
0.00277944
-0.454662
0.455062
-0.00168285
-0.00042372
-0.636914
0.639021
0.00352065
-0.00709395
-0.778088
0.781661
0.0112424
-0.0155152
-0.905183
0.909455
0.0199261
-0.0242921
-1.03643
1.04079
0.029188
-0.0332122
-1.18203
1.18605
0.0380778
-0.0421172
-1.34119
1.34523
0.0460645
-0.0493784
-1.51447
1.51778
0.0522927
-0.0538504
-1.70259
1.70415
0.0545741
-0.0546286
-1.60696
1.60701
0.0542953
-0.0530569
-1.28467
1.28343
0.0511356
-0.0477343
-1.00851
1.00511
0.0425378
-0.035468
-0.68852
0.681451
0.0280538
-0.0207904
-0.347657
0.340393
0.0157691
-0.0116748
-0.120437
0.116343
0.00875097
-0.00616997
-0.0158188
0.0132378
0.00419574
-0.00249596
0.0168661
-0.0185659
0.0013502
-0.000530485
0.0154174
-0.0162371
0.000131556
0.0034302
-0.00356176
-0.0819417
0.0810882
0.000853472
-0.00234813
0.00208693
-0.457778
0.458039
-0.000550927
-0.00130129
-0.642802
0.644655
0.00448342
-0.00782674
-0.785094
0.788437
0.0116906
-0.0154208
-0.913338
0.917068
0.0198066
-0.0236779
-1.04509
1.04896
0.0283016
-0.0325501
-1.19045
1.1947
0.0367301
-0.0407749
-1.34918
1.35323
0.0447198
-0.0476289
-1.52081
1.52372
0.0502653
-0.0519036
-1.70573
1.70737
0.0523196
-0.0522399
-1.60673
1.60665
0.0514814
-0.0501262
-1.28202
1.28066
0.0481895
-0.0445971
-1.00042
0.996823
0.0396626
-0.0329907
-0.671819
0.665147
0.0263617
-0.020008
-0.331553
0.325199
0.0156289
-0.0120304
-0.111096
0.107498
0.00931767
-0.00679542
-0.0098977
0.00737545
0.00477176
-0.00294938
0.0205585
-0.0223808
0.00165279
-0.000675911
0.0171067
-0.0180836
0.00017608
0.00362677
-0.00380285
-0.0823668
0.0816854
0.000681435
-0.00136402
0.000991164
-0.460847
0.46122
0.000311988
-0.00239932
-0.648092
0.650179
0.00543726
-0.00853768
-0.791653
0.794753
0.012383
-0.0158526
-0.920729
0.924199
0.0199385
-0.0237893
-1.05326
1.05711
0.0281258
-0.0321264
-1.1987
1.2027
0.03626
-0.0400271
-1.35705
1.36082
0.0437486
-0.0469717
-1.52674
1.52996
0.0494213
-0.0506264
-1.70868
1.70989
0.0509374
-0.0503177
-1.60617
1.60555
0.0494259
-0.0479614
-1.279
1.27753
0.0455904
-0.0418814
-0.992235
0.988526
0.0370425
-0.0306797
-0.656332
0.649969
0.0248277
-0.0192759
-0.317581
0.312029
0.0154929
-0.012254
-0.102799
0.0995599
0.00974361
-0.00729362
-0.00416981
0.00171982
0.00526825
-0.00336445
0.0244509
-0.0263547
0.00194725
-0.000829963
0.0190797
-0.020197
0.000232517
0.00390577
-0.00413828
-0.0830163
0.0824548
0.000561543
-0.000551881
0.000116119