/*--------------------------------*- C++ -*----------------------------------*\
  =========                 |
  \\      /  F ield         | OpenFOAM: The Open Source CFD Toolbox
   \\    /   O peration     | Website:  https://openfoam.org
    \\  /    A nd           | Version:  6
     \\/     M anipulation  |
\*---------------------------------------------------------------------------*/
FoamFile
{
    version     2.0;
    format      ascii;
    class       volScalarField;
    location    "3.5";
    object      Ma;
}
// * * * * * * * * * * * * * * * * * * * * * * * * * * * * * * * * * * * * * //

dimensions      [0 0 0 0 0 0 0];

internalField   nonuniform List<scalar> 
5250
(
2.99999
2.99998
2.9999
2.9998
2.99939
2.99881
2.9965
2.99313
2.98041
2.95926
2.89306
2.74725
2.42439
1.70073
0.680116
0.116486
0.185585
0.284803
0.328073
0.306135
0.243794
0.170265
0.123402
0.0833074
0.0495585
2.99999
2.99998
2.9999
2.9998
2.99939
2.99882
2.99651
2.99317
2.9805
2.95945
2.89352
2.74837
2.42677
1.70472
0.686222
0.124925
0.193642
0.290854
0.332108
0.3093
0.24838
0.178801
0.1355
0.0993905
0.0726547
2.99999
2.99998
2.9999
2.9998
2.9994
2.99883
2.99655
2.99323
2.98068
2.95987
2.8945
2.75086
2.43197
1.71402
0.700624
0.144542
0.210009
0.301039
0.339419
0.316308
0.25863
0.196405
0.159868
0.130695
0.111272
2.99999
2.99998
2.99991
2.99981
2.99941
2.99885
2.9966
2.99334
2.98097
2.96053
2.89609
2.75487
2.44041
1.72933
0.724092
0.173817
0.232114
0.313657
0.349859
0.328066
0.275857
0.222707
0.193614
0.171262
0.157615
2.99999
2.99998
2.99991
2.99981
2.99942
2.99888
2.99668
2.9935
2.98139
2.96147
2.89835
2.76058
2.45248
1.7513
0.757067
0.211555
0.257489
0.327789
0.362928
0.344036
0.298689
0.254606
0.232483
0.216287
0.207284
2.99999
2.99998
2.99991
2.99982
2.99944
2.99891
2.99678
2.99371
2.98195
2.96273
2.90138
2.76833
2.46875
1.7816
0.801221
0.257033
0.28391
0.34477
0.378574
0.363459
0.326059
0.291333
0.276225
0.265889
0.261511
3
2.99998
2.99992
2.99983
2.99947
2.99896
2.99691
2.99397
2.98267
2.96436
2.9053
2.77846
2.48975
1.82271
0.858576
0.310149
0.309957
0.365008
0.397385
0.386498
0.35759
0.332578
0.325137
0.322292
0.324789
3
2.99998
2.99992
2.99984
2.9995
2.99902
2.99709
2.99431
2.9836
2.96642
2.9103
2.79123
2.51645
1.87486
0.932435
0.37026
0.336164
0.384552
0.417833
0.413301
0.393749
0.379016
0.380541
0.387397
0.402837
3
2.99998
2.99993
2.99985
2.99953
2.99909
2.9973
2.99474
2.98475
2.96896
2.91649
2.80678
2.54953
1.94029
1.02484
0.43901
0.35991
0.403136
0.439381
0.44333
0.433923
0.430852
0.442989
0.466807
0.510982
3
2.99999
2.99994
2.99987
2.9996
2.9992
2.99766
2.99535
2.98691
2.97212
2.92678
2.82312
2.59389
2.01229
1.12122
0.514344
0.378769
0.418618
0.461975
0.476287
0.477334
0.486688
0.514728
0.568904
0.681869
3
2.99998
2.99996
2.99986
2.99972
2.99917
2.99835
2.99538
2.99015
2.974
2.93736
2.84923
2.61487
2.16959
1.23148
0.604762
0.396995
0.434929
0.487533
0.512188
0.523516
0.545981
0.594811
0.69126
0.85868
3
2.99999
2.99996
2.99988
2.99975
2.99926
2.99855
2.99578
2.99149
2.97673
2.9476
2.86999
2.67472
2.29266
1.4454
0.718492
0.442737
0.472902
0.525466
0.555242
0.573414
0.605187
0.668388
0.785814
0.956375
3
2.99999
2.99996
2.99992
2.99974
2.99948
2.99846
2.99695
2.9913
2.98217
2.95174
2.893
2.73617
2.39028
1.66843
0.808994
0.489855
0.52479
0.573656
0.605514
0.626193
0.663275
0.730227
0.841626
0.991257
3
3
2.99997
2.99993
2.99977
2.99955
2.99865
2.99736
2.99233
2.98468
2.9576
2.90821
2.77187
2.46509
1.8227
0.876059
0.521981
0.568605
0.616797
0.653086
0.675435
0.713578
0.779694
0.877036
1.0051
3
3
2.99997
2.99994
2.99981
2.99962
2.99886
2.99779
2.99354
2.98712
2.96478
2.92115
2.80754
2.52346
1.98533
1.00023
0.603034
0.60296
0.649597
0.68755
0.715865
0.754115
0.817412
0.903714
1.01415
3
3
2.99998
2.99995
2.99984
2.99968
2.99905
2.99816
2.99462
2.98928
2.9706
2.93438
2.83772
2.59505
2.13259
1.18841
0.714384
0.62759
0.663655
0.705937
0.744316
0.785159
0.844048
0.923412
1.02079
3
3
2.99998
2.99996
2.99987
2.99974
2.99923
2.9985
2.9956
2.9913
2.97582
2.94759
2.86782
2.67376
2.28824
1.42645
0.857697
0.666223
0.68484
0.722833
0.770261
0.812434
0.866172
0.938072
1.02497
3.00001
3
2.99999
2.99997
2.9999
2.9998
2.9994
2.99883
2.99657
2.99329
2.98108
2.96073
2.8981
2.75908
2.463
1.7926
1.02699
0.742135
0.734406
0.757324
0.797387
0.841738
0.890096
0.952811
1.02965
3.00001
3
2.99999
2.99998
2.99992
2.99984
2.99952
2.99908
2.99728
2.99472
2.98479
2.96941
2.918
2.81411
2.56677
1.99472
1.18075
0.804536
0.779165
0.798296
0.830148
0.870907
0.916996
0.970657
1.0365
3.00001
3
3
2.99999
2.99994
2.99988
2.99964
2.99929
2.99792
2.99595
2.98853
2.97637
2.93754
2.853
2.66148
2.1684
1.39825
0.918338
0.817854
0.83349
0.861031
0.898543
0.940059
0.989674
1.04651
3.00001
3
3
2.99999
2.99996
2.99991
2.99972
2.99946
2.9984
2.99689
2.99102
2.9821
2.95094
2.893
2.74031
2.38428
1.7023
1.06367
0.87057
0.868642
0.890324
0.923223
0.962002
1.0059
1.05768
3.00001
3.00001
3
2.99999
2.99997
2.99994
2.9998
2.9996
2.99882
2.9977
2.99338
2.98687
2.9638
2.92314
2.80607
2.56239
2.00091
1.23613
0.939925
0.906835
0.920622
0.949408
0.986552
1.02489
1.06959
3.00001
3.00001
3
3
2.99998
2.99995
2.99985
2.99971
2.99915
2.99835
2.99521
2.99057
2.97388
2.94443
2.86025
2.66454
2.26723
1.466
1.04719
0.944903
0.9491
0.971915
1.00696
1.04479
1.08443
3.00001
3.00001
3
3
2.99999
2.99997
2.9999
2.9998
2.9994
2.99883
2.99663
2.99338
2.98157
2.96147
2.90091
2.76509
2.48004
1.82434
1.22313
1.01067
0.990122
1.00186
1.02964
1.06632
1.10265
3.00001
3.00001
3.00001
3
3
2.99998
2.99995
2.99983
2.99966
2.99901
2.99804
2.99446
2.98878
2.96972
2.93429
2.83625
2.62546
2.13383
1.40581
1.08724
1.02926
1.03435
1.05484
1.08669
1.1219
3.00001
3.00001
3.00001
3
3
2.99999
2.99996
2.99988
2.99976
2.99931
2.99865
2.99611
2.99233
2.97875
2.95525
2.88644
2.73131
2.40158
1.71218
1.22814
1.0808
1.07027
1.08045
1.10561
1.14041
3.00001
3.00001
3.00001
3.00001
3
3
2.99997
2.99994
2.99981
2.99962
2.99891
2.99783
2.99393
2.9876
2.96689
2.92859
2.82012
2.60326
2.05985
1.42024
1.1562
1.11067
1.11239
1.13034
1.1582
3.00001
3.00001
3.00001
3.00001
3
3
2.99998
2.99996
2.99987
2.99975
2.99926
2.99855
2.99586
2.99182
2.97736
2.95267
2.88037
2.72283
2.37285
1.6992
1.27803
1.1544
1.14503
1.15358
1.17581
3.00001
3.00001
3.00001
3.00001
3.00001
3
2.99999
2.99997
2.99994
2.99981
2.99961
2.99889
2.99777
2.99384
2.98732
2.96645
2.92741
2.81737
2.60106
2.04723
1.47034
1.22708
1.18165
1.18032
1.19588
3.00001
3.00001
3.00001
3.00001
3.00001
3
3
2.99999
2.99995
2.9999
2.9997
2.99941
2.99832
2.99666
2.99086
2.98081
2.95049
2.8838
2.73292
2.35357
1.71194
1.32776
1.22672
1.21206
1.21815
3.00001
3.00001
3.00001
3.00001
3.00001
3
3
2.99999
2.99998
2.99992
2.99984
2.99954
2.9991
2.99745
2.99493
2.98605
2.97108
2.92584
2.83114
2.60915
2.13288
1.51464
1.28854
1.24967
1.24628
3.00001
3.00001
3.00001
3.00001
3.00001
3.00001
3
3
2.99999
2.99995
2.9999
2.99971
2.99943
2.99834
2.9968
2.99098
2.98188
2.95221
2.89142
2.74928
2.3909
1.7875
1.38608
1.28107
1.27133
3.00001
3.00001
3.00001
3.00001
3.00001
3.00001
3.00001
3
3
2.99997
2.99994
2.99982
2.99964
2.99896
2.99796
2.99428
2.98857
2.96914
2.93514
2.83603
2.642
2.14752
1.59172
1.34746
1.30233
3.00001
3.00001
3.00001
3.00001
3.00001
3.00001
3.00001
3
3
2.99999
2.99996
2.99991
2.99974
2.99947
2.99851
2.99705
2.99181
2.98341
2.9564
2.90258
2.771
2.45922
1.87225
1.46762
1.34292
3.00001
3.00001
3.00001
3.00001
3.00001
3.00001
3.00001
3.00001
3
2.99999
2.99998
2.99994
2.99987
2.99962
2.99925
2.99789
2.99581
2.98852
2.97638
2.93911
2.86134
2.68309
2.26478
1.67446
1.41824
3.00001
3.00001
3.00001
3.00001
3.00001
3.00001
3.00001
3.00001
3
3
2.99999
2.99997
2.99991
2.99981
2.99946
2.99893
2.99701
2.99409
2.98395
2.96661
2.91541
2.8044
2.56562
2.02395
1.57644
3.00001
3.00001
3.00001
3.00001
3.00001
3.00001
3.00001
3.00001
3.00001
3
3
2.99999
2.99995
2.99989
2.99967
2.99936
2.99818
2.99648
2.99016
2.98037
2.94876
2.88474
2.73901
2.36926
1.81476
3.00001
3.00001
3.00001
3.00001
3.00001
3.00001
3.00001
3.00001
3.00001
3.00001
3
2.99999
2.99997
2.99994
2.99981
2.99963
2.99894
2.99793
2.99424
2.98856
2.96949
2.93585
2.84166
2.65024
2.18396
3.00001
3.00001
3.00001
3.00001
3.00001
3.00001
3.00001
3.00001
3.00001
3.00001
3
3
2.99999
2.99996
2.99991
2.99974
2.99949
2.99857
2.99719
2.99227
2.9844
2.95932
2.91001
2.7894
2.50444
3.00001
3.00001
3.00001
3.00001
3.00001
3.00001
3.00001
3.00001
3.00001
3.00001
3.00001
3
3
2.99998
2.99994
2.99988
2.99966
2.99932
2.9981
2.99625
2.9898
2.97915
2.94649
2.87932
2.72474
3.00001
3.00001
3.00001
3.00001
3.00001
3.00001
3.00001
3.00001
3.00001
3.00001
3.00001
3
3
2.99999
2.99998
2.99992
2.99984
2.99955
2.9991
2.99754
2.9951
2.98684
2.97296
2.93158
2.84823
3.00001
3.00001
3.00001
3.00001
3.00001
3.00001
3.00001
3.00001
3.00001
3.00001
3.00001
3.00001
3
3
2.99999
2.99997
2.9999
2.99979
2.9994
2.99881
2.99675
2.99347
2.98277
2.96348
2.91027
3.00001
3.00001
3.00001
3.00001
3.00001
3.00001
3.00001
3.00001
3.00001
3.00001
3.00001
3.00001
3.00001
3
3
2.99998
2.99995
2.99986
2.99972
2.99921
2.99844
2.99577
2.99143
2.97759
2.95263
3.00001
3.00001
3.00001
3.00001
3.00001
3.00001
3.00001
3.00001
3.00001
3.00001
3.00001
3.00001
3.00001
3
3
2.99999
2.99998
2.99992
2.99985
2.99956
2.99915
2.99764
2.99538
2.98759
2.97478
3.00001
3.00001
3.00001
3.00001
3.00001
3.00001
3.00001
3.00001
3.00001
3.00001
3.00001
3.00001
3.00001
3.00001
3
3
2.99999
2.99996
2.99992
2.99976
2.99953
2.99867
2.99743
2.99292
2.98609
3.00001
3.00001
3.00001
3.00001
3.00001
3.00001
3.00001
3.00001
3.00001
3.00001
3.00001
3.00001
3.00001
3.00001
3.00001
3
3
2.99998
2.99995
2.99986
2.99973
2.99923
2.9985
2.99589
2.99186
3.00001
3.00001
3.00001
3.00001
3.00001
3.00001
3.00001
3.00001
3.00001
3.00001
3.00001
3.00001
3.00001
3.00001
3.00001
3
3
2.99999
2.99997
2.99993
2.99979
2.99957
2.9988
2.99765
2.9935
3.00001
3.00001
3.00001
3.00001
3.00001
3.00001
3.00001
3.00001
3.00001
3.00001
3.00001
3.00001
3.00001
3.00001
3.00001
3.00001
3
3
2.99998
2.99995
2.99983
2.99967
2.99903
2.99812
2.99459
3.00001
3.00001
3.00001
3.00001
3.00001
3.00001
3.00001
3.00001
3.00001
3.00001
3.00001
3.00001
3.00001
3.00001
3.00001
3.00001
3
3
2.99998
2.99996
2.99986
2.99972
2.99917
2.99836
2.99537
3.00001
3.00001
3.00001
3.00001
3.00001
3.00001
3.00001
3.00001
3.00001
3.00001
3.00001
3.00001
3.00001
3.00001
3.00001
3.00001
3
3
2.99999
2.99995
2.99989
2.99966
2.99933
2.99802
2.9961
1.05315
1.25461
1.36066
1.36115
1.28663
1.21216
1.12315
1.04842
1.01108
1.00143
1.00063
0.999051
0.993898
0.980973
0.951991
0.890486
0.765738
0.514154
0.19035
0.109177
0.145763
0.159386
0.207968
0.275615
0.337562
0.38738
0.428098
0.458295
0.476913
0.488121
0.491878
0.481944
0.455901
0.415738
0.365482
0.3095
0.253676
0.199222
0.147239
0.0971932
0.0563087
0.0426485
0.075772
0.0999924
0.1325
0.167067
0.199018
0.228622
0.259417
0.290362
0.319733
0.346908
0.373249
0.398166
0.422628
0.445724
0.468525
0.490057
0.511479
0.531709
0.552001
0.571142
0.590479
0.608684
0.627192
0.644571
0.662334
0.678995
0.69607
0.712102
0.728556
0.744012
0.759956
0.774892
0.7904
0.804888
0.820051
0.834161
0.849025
0.862839
0.877412
0.89099
0.905304
0.918664
0.932759
0.945887
0.959811
0.972672
0.98644
0.999021
1.01259
1.02492
1.03817
1.05029
1.06291
1.07456
1.08594
1.09595
1.10395
1.10956
1.10243
1.22306
1.28951
1.30545
1.30976
1.33068
1.36386
1.37752
1.3756
1.36518
1.34984
1.3371
1.32762
1.31547
1.2922
1.24286
1.13836
0.919388
0.595311
0.371128
0.285193
0.222877
0.163072
0.111576
0.0792803
0.112664
0.165231
0.217702
0.253136
0.270237
0.271641
0.251102
0.217727
0.175152
0.128321
0.0851721
0.0658407
0.0917996
0.119257
0.151968
0.187558
0.221065
0.252841
0.28247
0.313145
0.343493
0.372572
0.399129
0.425737
0.452867
0.479472
0.504111
0.527964
0.550582
0.572872
0.59407
0.615012
0.63495
0.654707
0.673566
0.692322
0.710259
0.728172
0.745348
0.762495
0.779088
0.795464
0.811599
0.827288
0.842926
0.858161
0.873192
0.888167
0.902598
0.91735
0.931287
0.945788
0.959342
0.973541
0.986843
1.00067
1.01382
1.02727
1.04031
1.05339
1.06633
1.07907
1.09193
1.10442
1.1172
1.1294
1.14206
1.15391
1.16635
1.17775
1.18965
1.20015
1.21049
1.21806
1.224
1.10473
1.20431
1.29214
1.37755
1.4569
1.52377
1.57204
1.59444
1.5953
1.59025
1.57715
1.56055
1.54664
1.53339
1.51354
1.47362
1.3962
1.22309
0.949986
0.694628
0.589538
0.517728
0.450347
0.381064
0.31414
0.249438
0.189339
0.128276
0.0737029
0.0306967
0.0176545
0.0478111
0.0860049
0.13629
0.18075
0.221284
0.26007
0.294123
0.324154
0.353227
0.381835
0.408838
0.434832
0.459286
0.484014
0.508212
0.532011
0.553815
0.575363
0.597319
0.619997
0.641141
0.661793
0.681265
0.700655
0.719216
0.737599
0.755532
0.772912
0.790385
0.806767
0.823775
0.839377
0.855826
0.870945
0.886735
0.901559
0.916677
0.931269
0.945777
0.960128
0.974174
0.988198
1.002
1.01562
1.02934
1.04252
1.05621
1.06901
1.0826
1.09514
1.10852
1.12093
1.13401
1.14638
1.15919
1.17161
1.18411
1.19647
1.20862
1.22086
1.23267
1.24472
1.25612
1.26784
1.27856
1.28946
1.29863
1.30668
1.31139
1.11916
1.21986
1.31629
1.4072
1.48957
1.55955
1.61268
1.64708
1.66642
1.67435
1.67505
1.67325
1.66603
1.65508
1.6405
1.61174
1.55629
1.43306
1.21949
0.946104
0.814287
0.751732
0.690103
0.621736
0.56099
0.501522
0.440605
0.380948
0.326083
0.281438
0.252845
0.261378
0.301721
0.351921
0.400453
0.441922
0.474728
0.501451
0.524225
0.545112
0.565546
0.585227
0.604607
0.62291
0.641486
0.659652
0.677924
0.694562
0.710977
0.727828
0.745726
0.763388
0.780045
0.796757
0.81241
0.828677
0.84383
0.859669
0.87448
0.890071
0.904707
0.919789
0.934238
0.948826
0.963183
0.977298
0.991604
1.00522
1.01942
1.0326
1.04664
1.0595
1.07334
1.08595
1.09959
1.11199
1.12545
1.13769
1.15097
1.16311
1.17623
1.18827
1.20132
1.21336
1.22638
1.23827
1.25115
1.26287
1.27557
1.28717
1.29959
1.3111
1.3232
1.33458
1.34626
1.35731
1.36817
1.37808
1.38628
1.39196
1.12424
1.22523
1.31968
1.40726
1.48698
1.55731
1.61878
1.66905
1.7093
1.7367
1.75374
1.75917
1.75882
1.75546
1.74661
1.7279
1.68783
1.60806
1.44344
1.18618
1.01526
0.933318
0.869737
0.815986
0.765977
0.707673
0.648574
0.590967
0.53511
0.483891
0.456498
0.467055
0.505083
0.552694
0.598788
0.637072
0.663879
0.68142
0.693711
0.704859
0.716176
0.728406
0.740802
0.753732
0.766776
0.780293
0.793918
0.806987
0.818944
0.831433
0.844893
0.859749
0.874074
0.888441
0.901883
0.915541
0.928534
0.941879
0.955078
0.968608
0.982232
0.995468
1.00909
1.02184
1.03555
1.04819
1.06202
1.07464
1.08835
1.10081
1.11422
1.1265
1.13962
1.15188
1.16479
1.17709
1.18982
1.20205
1.21459
1.22666
1.23911
1.25116
1.26351
1.27541
1.28762
1.29941
1.31149
1.32322
1.33518
1.34686
1.35867
1.37026
1.38186
1.39324
1.4045
1.41548
1.42603
1.43597
1.44413
1.44992
1.1237
1.22108
1.31177
1.39562
1.47367
1.54438
1.60845
1.664
1.71247
1.75091
1.78067
1.79979
1.80959
1.81074
1.80858
1.79988
1.77839
1.72835
1.62219
1.41524
1.18106
1.07116
1.01849
0.967012
0.918012
0.869549
0.815201
0.756032
0.691905
0.632492
0.607151
0.617726
0.6536
0.70172
0.74891
0.785942
0.81154
0.825815
0.830955
0.832724
0.835314
0.840265
0.847073
0.85491
0.863694
0.873486
0.883935
0.894856
0.904772
0.914642
0.925025
0.937218
0.949748
0.962717
0.975279
0.988024
1.0003
1.0124
1.02459
1.03674
1.04961
1.062
1.07522
1.08737
1.10036
1.1122
1.12514
1.13714
1.15032
1.16243
1.17566
1.18759
1.20068
1.21241
1.22538
1.23706
1.24992
1.2616
1.27432
1.28607
1.2986
1.31021
1.32266
1.33417
1.34659
1.358
1.37028
1.38154
1.39355
1.40474
1.41646
1.42769
1.43914
1.45038
1.46151
1.47252
1.48303
1.49308
1.50145
1.50735
1.1194
1.21133
1.29858
1.37926
1.45484
1.52428
1.58831
1.64652
1.69788
1.74345
1.78095
1.81266
1.8343
1.84913
1.85244
1.8504
1.84087
1.81581
1.75513
1.62002
1.39422
1.20475
1.12069
1.07926
1.04028
0.992583
0.939485
0.876798
0.801386
0.733802
0.711125
0.723027
0.758367
0.809215
0.860914
0.90025
0.924995
0.941031
0.9477
0.944391
0.939377
0.936499
0.936238
0.938681
0.943071
0.949185
0.956388
0.964052
0.971504
0.978682
0.986348
0.995588
1.00629
1.01781
1.02961
1.04149
1.05355
1.06517
1.07709
1.08839
1.10044
1.11205
1.12468
1.13673
1.14964
1.1615
1.17419
1.18565
1.19826
1.20986
1.22271
1.23472
1.2476
1.25963
1.27218
1.28389
1.2962
1.30781
1.3202
1.33177
1.34424
1.35576
1.36809
1.37947
1.39152
1.40281
1.4146
1.42592
1.4375
1.4488
1.46018
1.47127
1.4824
1.49321
1.50403
1.5146
1.52488
1.53487
1.54322
1.54947
1.11416
1.20003
1.28273
1.36103
1.43395
1.50251
1.56541
1.62395
1.67682
1.72495
1.76744
1.80395
1.83557
1.85876
1.87608
1.88043
1.87802
1.86741
1.83805
1.76792
1.60956
1.38263
1.22803
1.16367
1.12559
1.08523
1.03044
0.9523
0.86042
0.792809
0.776548
0.790639
0.827367
0.882042
0.940102
0.981433
1.00607
1.02059
1.02846
1.03003
1.02259
1.01368
1.00695
1.00404
1.00409
1.00718
1.01234
1.01863
1.02526
1.03172
1.03827
1.04584
1.05526
1.06626
1.07795
1.08974
1.10172
1.11331
1.12511
1.13651
1.14844
1.16
1.17237
1.18412
1.19687
1.20865
1.22153
1.23316
1.24584
1.25726
1.2697
1.28119
1.29366
1.30551
1.31809
1.33018
1.34262
1.35441
1.36638
1.37779
1.38942
1.40066
1.41228
1.42349
1.43522
1.44635
1.45805
1.46896
1.48044
1.49114
1.50231
1.51295
1.52382
1.53446
1.545
1.55547
1.5655
1.57518
1.58349
1.58921
1.11101
1.18871
1.26619
1.34073
1.41158
1.47813
1.54079
1.59865
1.65265
1.70167
1.74691
1.78704
1.8227
1.85335
1.8776
1.89635
1.90146
1.89872
1.88676
1.8529
1.76702
1.59195
1.36777
1.25068
1.19816
1.14701
1.08554
0.987157
0.879988
0.817666
0.809089
0.826349
0.869611
0.929303
0.988481
1.03166
1.05973
1.0741
1.08336
1.0891
1.08776
1.0798
1.06929
1.06152
1.05777
1.0575
1.06084
1.06616
1.07229
1.07882
1.08517
1.09213
1.10078
1.11147
1.12305
1.13484
1.14673
1.15843
1.17029
1.18173
1.19354
1.20467
1.21658
1.22765
1.2399
1.25118
1.26376
1.27528
1.28787
1.29947
1.31176
1.32328
1.33516
1.34664
1.35841
1.36989
1.3817
1.39324
1.40513
1.41662
1.42836
1.43956
1.45097
1.46181
1.47292
1.48359
1.49457
1.50525
1.51622
1.52688
1.53778
1.54825
1.55896
1.56916
1.57956
1.5895
1.59941
1.60877
1.61709
1.62283
1.11162
1.18097
1.25164
1.32137
1.38879
1.45287
1.51388
1.57116
1.62487
1.67481
1.72098
1.76342
1.80192
1.83631
1.86687
1.89122
1.91066
1.91572
1.91247
1.89817
1.85914
1.75565
1.57278
1.36309
1.26151
1.20026
1.11295
0.982313
0.865309
0.819714
0.82007
0.843596
0.894903
0.958705
1.015
1.05794
1.08807
1.10829
1.1203
1.12812
1.13145
1.13027
1.12342
1.11423
1.10794
1.10513
1.10567
1.10988
1.11566
1.12262
1.13005
1.13769
1.14614
1.15599
1.16718
1.17866
1.19043
1.20194
1.21382
1.2252
1.23718
1.24827
1.26017
1.27088
1.28263
1.29325
1.30492
1.31579
1.32744
1.33872
1.35037
1.36193
1.37355
1.38508
1.3964
1.40754
1.41857
1.42942
1.44033
1.45109
1.46209
1.47287
1.48396
1.49468
1.50569
1.51621
1.52699
1.53724
1.54778
1.55782
1.56818
1.57813
1.58836
1.59823
1.60828
1.61799
1.62765
1.63676
1.64498
1.6505
1.11521
1.17761
1.24158
1.30578
1.36872
1.42992
1.48807
1.54418
1.59667
1.6468
1.69307
1.73701
1.77681
1.81437
1.84709
1.87778
1.90158
1.92108
1.92526
1.92112
1.90361
1.8584
1.73855
1.54674
1.35308
1.23837
1.11613
0.944488
0.832972
0.805934
0.813712
0.850751
0.909494
0.972833
1.02452
1.06488
1.0965
1.12236
1.14146
1.15452
1.16175
1.1675
1.16965
1.16751
1.16259
1.15875
1.15733
1.15879
1.16364
1.17044
1.1785
1.18688
1.19537
1.20439
1.21467
1.22532
1.23636
1.24687
1.25787
1.2682
1.2794
1.28965
1.30093
1.31107
1.32214
1.33228
1.34302
1.35333
1.3638
1.37434
1.3848
1.39563
1.40623
1.41708
1.42774
1.43848
1.44909
1.45959
1.4701
1.48036
1.49083
1.50093
1.5114
1.52144
1.53192
1.54194
1.55239
1.56239
1.57276
1.58268
1.59288
1.60267
1.61263
1.62224
1.63193
1.64136
1.65065
1.6596
1.66761
1.67316
1.12168
1.17728
1.23561
1.29457
1.35287
1.40984
1.4654
1.51844
1.56992
1.61819
1.66508
1.70789
1.75005
1.78705
1.82413
1.85491
1.88573
1.90899
1.92699
1.92948
1.92345
1.90106
1.8468
1.70103
1.50078
1.29642
1.09372
0.880668
0.792587
0.783174
0.797956
0.846037
0.91219
0.970244
1.01645
1.05568
1.09156
1.12433
1.15196
1.17417
1.19
1.20179
1.2113
1.21829
1.2217
1.21972
1.21694
1.21609
1.2175
1.22227
1.22877
1.23648
1.24441
1.25203
1.26045
1.26947
1.27938
1.28873
1.29877
1.30793
1.31806
1.32723
1.33738
1.34668
1.35671
1.36632
1.37622
1.38619
1.39604
1.40626
1.4162
1.42641
1.43635
1.44647
1.45648
1.46654
1.47669
1.4867
1.497
1.50697
1.51735
1.52726
1.53759
1.54739
1.5576
1.56725
1.57728
1.5868
1.59667
1.60607
1.61583
1.62514
1.63478
1.64403
1.65349
1.66266
1.67177
1.68055
1.68845
1.69396
1.13021
1.18068
1.2335
1.28746
1.34191
1.395
1.44704
1.4974
1.54632
1.59305
1.63808
1.68104
1.72166
1.76043
1.79651
1.83075
1.86152
1.8901
1.91355
1.92658
1.92576
1.91585
1.88582
1.80978
1.65492
1.37911
1.05032
0.808099
0.737865
0.734306
0.765218
0.827169
0.893595
0.949616
0.998774
1.0445
1.08888
1.12978
1.16609
1.19612
1.22118
1.23979
1.25559
1.26637
1.27507
1.27914
1.28028
1.27834
1.277
1.27819
1.28038
1.2854
1.29126
1.29712
1.30341
1.31003
1.31854
1.32693
1.33633
1.34486
1.35428
1.36281
1.37205
1.38073
1.38982
1.39889
1.40804
1.41757
1.42704
1.43688
1.44659
1.45641
1.46629
1.47602
1.48597
1.49558
1.50552
1.51493
1.52481
1.53405
1.54385
1.55301
1.56277
1.57195
1.58169
1.59092
1.60059
1.60979
1.61933
1.62844
1.63785
1.64687
1.65615
1.66512
1.67424
1.68316
1.69198
1.70052
1.70827
1.71361
1.14199
1.18651
1.23412
1.28332
1.33341
1.38366
1.43248
1.4805
1.52675
1.5723
1.61493
1.65762
1.69653
1.73604
1.77081
1.80682
1.83727
1.86868
1.89338
1.91416
1.91787
1.91171
1.89088
1.83405
1.70969
1.43139
1.04266
0.733577
0.645937
0.657994
0.71938
0.808327
0.886459
0.952582
1.01173
1.06669
1.11654
1.16036
1.19721
1.22968
1.25649
1.28087
1.29767
1.31302
1.32264
1.33209
1.33655
1.34013
1.33856
1.33621
1.3347
1.33508
1.33718
1.34115
1.34605
1.35042
1.35654
1.36331
1.37194
1.37992
1.38883
1.39694
1.40563
1.41396
1.42246
1.43116
1.43972
1.44874
1.45751
1.46652
1.47547
1.48441
1.49365
1.50263
1.51217
1.52123
1.531
1.54007
1.54988
1.5589
1.5686
1.57755
1.58711
1.59603
1.60549
1.61444
1.62377
1.63271
1.6419
1.65075
1.65983
1.66856
1.67756
1.68623
1.69511
1.70373
1.71238
1.72065
1.72832
1.73347
1.15754
1.19557
1.23774
1.28231
1.32753
1.37436
1.42042
1.46597
1.51
1.55373
1.59505
1.63619
1.67427
1.71299
1.74754
1.78328
1.81447
1.84596
1.8723
1.89484
1.90084
1.89531
1.87798
1.82828
1.72078
1.48833
1.12203
0.789075
0.702394
0.735329
0.795509
0.87611
0.952451
1.01834
1.07383
1.12064
1.16208
1.19952
1.23316
1.26292
1.29015
1.31289
1.33386
1.3496
1.3642
1.37475
1.38439
1.38863
1.3924
1.3907
1.3876
1.38472
1.38333
1.38357
1.38652
1.38998
1.39403
1.39825
1.40479
1.41184
1.41984
1.42737
1.43523
1.4431
1.45099
1.4593
1.46754
1.47622
1.48485
1.49356
1.5025
1.51115
1.52031
1.52892
1.53826
1.54686
1.55631
1.56495
1.57441
1.58308
1.59247
1.60117
1.61045
1.61919
1.62833
1.63709
1.6461
1.65481
1.66371
1.67232
1.68114
1.68962
1.69836
1.70676
1.71538
1.72374
1.73214
1.74016
1.74766
1.75267
1.17331
1.20767
1.24461
1.28459
1.32618
1.36833
1.41185
1.45485
1.49643
1.53862
1.57784
1.61821
1.65452
1.69254
1.7263
1.76124
1.79249
1.82328
1.84979
1.86962
1.87321
1.86628
1.84663
1.79737
1.69111
1.49427
1.24084
0.978362
0.857778
0.859146
0.887864
0.936329
0.998997
1.05698
1.10607
1.1475
1.1841
1.21821
1.24977
1.27921
1.30633
1.33177
1.3546
1.3748
1.39193
1.40611
1.41853
1.42738
1.43373
1.43692
1.43787
1.43488
1.43131
1.42834
1.42737
1.42825
1.43101
1.43381
1.43781
1.44278
1.44972
1.45691
1.46434
1.47203
1.47951
1.48739
1.49518
1.50321
1.5114
1.51953
1.5281
1.53632
1.54517
1.55347
1.56252
1.57088
1.58004
1.58846
1.5976
1.6061
1.61515
1.62368
1.6326
1.64116
1.64994
1.65851
1.6672
1.67572
1.68437
1.69279
1.70142
1.70972
1.71829
1.72653
1.735
1.74317
1.75145
1.75924
1.76665
1.77145
1.18806
1.21936
1.25257
1.28878
1.32689
1.36626
1.40548
1.4471
1.48557
1.52624
1.56353
1.60234
1.63787
1.67423
1.70777
1.74134
1.77208
1.8015
1.82605
1.83854
1.83502
1.82333
1.79252
1.71809
1.57749
1.41681
1.299
1.15579
1.01112
0.95495
0.95436
0.976719
1.01438
1.06454
1.11312
1.15653
1.19524
1.23086
1.26319
1.29319
1.32128
1.34756
1.37177
1.39391
1.41348
1.43085
1.44466
1.45757
1.46673
1.47406
1.47697
1.47975
1.47784
1.47466
1.47124
1.4693
1.46883
1.4702
1.4728
1.47562
1.47988
1.48585
1.49271
1.50029
1.50754
1.51527
1.52273
1.53036
1.53817
1.54585
1.55409
1.56191
1.5705
1.57845
1.58724
1.59531
1.60416
1.61237
1.62114
1.62945
1.63808
1.64642
1.65492
1.66326
1.67168
1.68002
1.68844
1.69673
1.70519
1.71336
1.72183
1.72984
1.73828
1.74619
1.75454
1.76239
1.77053
1.77807
1.78534
1.79005
1.20657
1.2354
1.26468
1.29632
1.33057
1.36727
1.40302
1.44167
1.47845
1.51657
1.55246
1.58924
1.62364
1.65848
1.69099
1.72337
1.75269
1.77963
1.79714
1.79982
1.79085
1.7671
1.71325
1.5931
1.44984
1.36522
1.31953
1.26719
1.18025
1.08969
1.04292
1.03529
1.05136
1.07747
1.11528
1.15602
1.19731
1.23532
1.26926
1.30024
1.32907
1.35615
1.3816
1.40535
1.42756
1.4476
1.46561
1.48077
1.49425
1.50546
1.51331
1.51801
1.5205
1.52105
1.51825
1.51485
1.51157
1.51006
1.51036
1.51205
1.51431
1.51765
1.52258
1.52928
1.5363
1.54371
1.55109
1.55844
1.56598
1.57327
1.58108
1.58848
1.59663
1.60419
1.61259
1.62028
1.62878
1.63661
1.6451
1.65306
1.66148
1.6695
1.6778
1.68586
1.69406
1.70211
1.7103
1.7183
1.72653
1.73443
1.74272
1.75048
1.75876
1.76641
1.77457
1.78215
1.79007
1.79735
1.8044
1.80898
1.2208
1.24991
1.27803
1.30775
1.33782
1.37103
1.4047
1.43927
1.47442
1.50948
1.54455
1.57835
1.6125
1.6446
1.67678
1.70643
1.73425
1.75521
1.76153
1.75427
1.73529
1.69092
1.59084
1.44977
1.36196
1.33597
1.33087
1.32003
1.29211
1.23934
1.1729
1.1179
1.10182
1.11063
1.12661
1.15563
1.19343
1.2326
1.26888
1.30195
1.33296
1.36139
1.38862
1.41414
1.43839
1.46099
1.48185
1.50057
1.51689
1.53089
1.54345
1.55221
1.55829
1.56078
1.56262
1.5608
1.55761
1.55394
1.5514
1.55056
1.55137
1.55321
1.55577
1.5599
1.56582
1.57262
1.57995
1.58695
1.59434
1.60115
1.60864
1.61553
1.62327
1.63033
1.63827
1.64554
1.65355
1.66105
1.66906
1.67675
1.68474
1.69255
1.70049
1.70834
1.71626
1.72406
1.73202
1.73974
1.74779
1.75539
1.76353
1.77102
1.77915
1.78655
1.79453
1.80187
1.80955
1.81658
1.82333
1.82777
1.23603
1.26325
1.2908
1.31863
1.34789
1.3774
1.40932
1.44092
1.4738
1.5059
1.53933
1.57134
1.60335
1.63465
1.66394
1.6917
1.71432
1.72362
1.71762
1.70209
1.66473
1.58234
1.44039
1.34331
1.31831
1.32357
1.337
1.34859
1.34929
1.33641
1.30019
1.2445
1.18568
1.16234
1.16041
1.17326
1.19577
1.22814
1.26322
1.29908
1.33255
1.36389
1.39329
1.42122
1.44746
1.4725
1.49562
1.51728
1.53647
1.55347
1.5681
1.5809
1.59118
1.59771
1.60113
1.60295
1.60278
1.59996
1.59666
1.59318
1.59147
1.59133
1.59261
1.59444
1.5974
1.60213
1.60855
1.61502
1.62212
1.62866
1.63589
1.64243
1.64977
1.65642
1.66388
1.67077
1.67832
1.6855
1.69308
1.70051
1.7081
1.71571
1.7233
1.73098
1.73855
1.74615
1.75374
1.76122
1.76893
1.77626
1.78409
1.7913
1.79914
1.80627
1.81394
1.82098
1.82826
1.83488
1.84115
1.84522
1.25913
1.27932
1.30516
1.3306
1.35753
1.38491
1.4142
1.44404
1.47476
1.5053
1.53586
1.56675
1.59656
1.62604
1.65303
1.6765
1.68821
1.68477
1.6705
1.6374
1.56462
1.42918
1.32108
1.29176
1.29826
1.31586
1.34215
1.36833
1.38254
1.38437
1.37728
1.35297
1.30663
1.25322
1.22212
1.21246
1.22232
1.23828
1.26371
1.29579
1.33004
1.36401
1.39643
1.42705
1.45542
1.48241
1.50753
1.53101
1.55273
1.57228
1.58977
1.60489
1.61811
1.6294
1.63696
1.64163
1.6432
1.64442
1.64263
1.63938
1.63547
1.6327
1.63141
1.63162
1.63279
1.63477
1.63852
1.64374
1.65025
1.65663
1.66362
1.66998
1.67693
1.6833
1.6903
1.69686
1.70397
1.71085
1.71808
1.72523
1.7325
1.7398
1.74704
1.75438
1.76162
1.76889
1.77614
1.78326
1.79056
1.79751
1.80485
1.81167
1.81896
1.82564
1.83272
1.83917
1.84582
1.85173
1.8572
1.86076
1.27879
1.29771
1.32309
1.34659
1.37001
1.39466
1.42068
1.44829
1.47663
1.50544
1.53456
1.56302
1.59146
1.61795
1.64141
1.65484
1.65354
1.64011
1.60968
1.54249
1.41993
1.30181
1.26285
1.26706
1.28591
1.31468
1.35005
1.38219
1.40339
1.41369
1.4169
1.41445
1.39944
1.365
1.32213
1.28385
1.26941
1.27337
1.28341
1.30294
1.33176
1.36378
1.39758
1.42975
1.46061
1.48961
1.51671
1.54209
1.56594
1.58787
1.608
1.62587
1.64146
1.65526
1.66708
1.67587
1.68165
1.68379
1.68531
1.68458
1.68158
1.67805
1.67398
1.67177
1.67059
1.67122
1.67249
1.67498
1.67957
1.68522
1.69187
1.69815
1.70494
1.71119
1.71785
1.72413
1.73077
1.73725
1.74402
1.75075
1.75763
1.76451
1.77144
1.77832
1.78523
1.79203
1.79888
1.80553
1.81237
1.81882
1.82568
1.83191
1.83871
1.84472
1.85123
1.85693
1.8627
1.86771
1.87221
1.87535
1.30015
1.31282
1.3343
1.36152
1.38565
1.40888
1.43138
1.45528
1.48069
1.50741
1.53395
1.56106
1.58604
1.60937
1.62373
1.62418
1.6114
1.58293
1.52107
1.40469
1.27846
1.23052
1.2324
1.25162
1.28233
1.3207
1.35779
1.38961
1.41501
1.43282
1.44396
1.45
1.45121
1.44453
1.42328
1.38842
1.35149
1.33165
1.32558
1.33417
1.3483
1.3712
1.40012
1.43102
1.46338
1.49398
1.52334
1.55091
1.57688
1.60089
1.62324
1.64351
1.66177
1.67781
1.69196
1.70432
1.71418
1.72086
1.72413
1.72526
1.72531
1.72335
1.71945
1.71538
1.71147
1.70976
1.70931
1.7102
1.71212
1.71547
1.72082
1.72658
1.73306
1.73923
1.74563
1.75168
1.758
1.76412
1.77053
1.77682
1.78333
1.78977
1.79635
1.8028
1.80935
1.81562
1.82213
1.82814
1.83464
1.84043
1.84688
1.85243
1.85859
1.86377
1.86925
1.87379
1.87835
1.88247
1.88587
1.88823
1.32459
1.32947
1.34657
1.37097
1.39637
1.42008
1.44304
1.46582
1.48836
1.51167
1.53586
1.55929
1.58107
1.5951
1.59621
1.58364
1.55672
1.49929
1.38676
1.25838
1.20042
1.19962
1.21918
1.25036
1.29052
1.32986
1.36399
1.39401
1.4202
1.44351
1.46244
1.4756
1.48598
1.48999
1.4892
1.47886
1.45497
1.42522
1.3978
1.3868
1.38936
1.39805
1.41373
1.43827
1.46653
1.49624
1.52706
1.55602
1.58374
1.60971
1.63411
1.65671
1.67745
1.69627
1.71283
1.72738
1.7402
1.75075
1.7584
1.76269
1.76418
1.76448
1.76322
1.75977
1.75553
1.7508
1.74814
1.74681
1.74729
1.7484
1.75086
1.75492
1.76077
1.76662
1.77287
1.7788
1.78489
1.79075
1.79678
1.80271
1.80887
1.81485
1.82114
1.82706
1.83338
1.83913
1.84539
1.85087
1.857
1.8621
1.86797
1.87256
1.87784
1.88171
1.88611
1.88955
1.8933
1.89565
1.89715
1.89838
1.36256
1.35528
1.36227
1.38027
1.40554
1.42939
1.45198
1.47457
1.49672
1.51903
1.54003
1.55956
1.57324
1.5739
1.56079
1.53475
1.47983
1.37123
1.24211
1.17238
1.16791
1.18715
1.21892
1.26063
1.30108
1.33659
1.36804
1.39629
1.42376
1.44914
1.47333
1.49412
1.51021
1.52266
1.53181
1.53464
1.53251
1.52004
1.49695
1.47116