/*--------------------------------*- C++ -*----------------------------------*\
  =========                 |
  \\      /  F ield         | OpenFOAM: The Open Source CFD Toolbox
   \\    /   O peration     | Website:  https://openfoam.org
    \\  /    A nd           | Version:  6
     \\/     M anipulation  |
\*---------------------------------------------------------------------------*/
FoamFile
{
    version     2.0;
    format      ascii;
    class       volScalarField;
    location    "24.5";
    object      p;
}
// * * * * * * * * * * * * * * * * * * * * * * * * * * * * * * * * * * * * * //

dimensions      [0 2 -2 0 0 0 0];

internalField   nonuniform List<scalar> 
8800
(
0.444998
0.39568
0.357709
0.329629
0.309448
0.294825
0.284173
0.276565
0.27159
0.269368
0.270537
0.274675
0.281304
0.290609
0.303262
0.320523
0.344358
0.377426
0.420346
0.472852
0.279506
0.285848
0.29499
0.298531
0.295909
0.289801
0.282828
0.276533
0.27164
0.268633
0.268212
0.270621
0.275083
0.281069
0.288058
0.295012
0.299832
0.299667
0.292966
0.284052
0.253052
0.259288
0.263785
0.267649
0.270584
0.271514
0.270387
0.268187
0.266085
0.265065
0.265875
0.26811
0.270825
0.272952
0.273354
0.27148
0.268047
0.263984
0.25917
0.255447
0.248801
0.251567
0.254178
0.256338
0.258073
0.259626
0.260697
0.260981
0.260708
0.260576
0.261144
0.262087
0.262625
0.26229
0.261169
0.259696
0.257935
0.255562
0.25311
0.251541
0.243819
0.245245
0.247093
0.249179
0.250887
0.252157
0.253199
0.254074
0.254716
0.255208
0.25564
0.255836
0.255639
0.255083
0.254251
0.252998
0.251228
0.249244
0.247843
0.247041
0.238942
0.239845
0.241111
0.242759
0.244458
0.245966
0.247178
0.2482
0.249126
0.249883
0.250324
0.250363
0.250062
0.249467
0.248468
0.247104
0.245587
0.244199
0.243322
0.242803
0.234186
0.234841
0.235837
0.237201
0.238687
0.24022
0.241686
0.242958
0.244035
0.244948
0.245487
0.245567
0.245222
0.244449
0.243372
0.242172
0.240961
0.239891
0.239244
0.238872
0.229605
0.230102
0.230939
0.232165
0.233545
0.235026
0.23657
0.23808
0.239422
0.240534
0.241207
0.241295
0.240861
0.240061
0.239085
0.238042
0.237004
0.236122
0.23562
0.23534
0.225165
0.22555
0.226283
0.227434
0.228782
0.230209
0.231718
0.233274
0.234784
0.236094
0.236948
0.237153
0.236849
0.236226
0.235425
0.234515
0.233585
0.232833
0.232433
0.23222
0.220849
0.22114
0.221773
0.222836
0.224113
0.225481
0.226932
0.228495
0.230153
0.231741
0.232788
0.233166
0.233089
0.232726
0.232148
0.231421
0.230645
0.23003
0.229724
0.229566
0.216648
0.21687
0.217453
0.218516
0.219832
0.221301
0.222926
0.224625
0.22634
0.22807
0.229483
0.230284
0.230483
0.23022
0.229697
0.229045
0.228332
0.227794
0.227556
0.22744
0.212568
0.212715
0.213247
0.214295
0.215612
0.217058
0.218675
0.220534
0.222638
0.224796
0.226543
0.227522
0.227931
0.227967
0.227719
0.227242
0.226653
0.226208
0.226042
0.22597
0.208733
0.208823
0.209267
0.210204
0.211427
0.212845
0.21449
0.216387
0.218561
0.221043
0.22331
0.224901
0.225841
0.226269
0.226342
0.226143
0.2258
0.225529
0.225445
0.225403
0.204943
0.204991
0.205353
0.20618
0.207348
0.208803
0.210583
0.212789
0.215434
0.218461
0.221289
0.22333
0.224594
0.225338
0.225713
0.225849
0.225803
0.225742
0.225728
0.225695
0.200714
0.200764
0.201061
0.201782
0.202879
0.204321
0.206187
0.208571
0.211591
0.215242
0.218835
0.221599
0.223559
0.224836
0.225681
0.226171
0.226436
0.226576
0.226617
0.226581
0.195703
0.195755
0.196053
0.196766
0.197915
0.199506
0.201648
0.204487
0.208126
0.212598
0.217091
0.220638
0.223175
0.22497
0.226216
0.227056
0.227597
0.227888
0.227961
0.227919
0.189654
0.189711
0.190075
0.190858
0.192147
0.193979
0.196503
0.199888
0.204327
0.209863
0.215483
0.219981
0.223277
0.225643
0.227331
0.228523
0.229314
0.229711
0.229803
0.229754
0.182322
0.182382
0.182824
0.18378
0.18532
0.187548
0.190638
0.194832
0.200315
0.207171
0.214173
0.21981
0.223966
0.22698
0.229135
0.230669
0.231678
0.232164
0.232286
0.232235
0.173488
0.173545
0.174089
0.175307
0.177275
0.18008
0.183957
0.189195
0.196046
0.204578
0.213273
0.220263
0.22541
0.229111
0.231837
0.233785
0.234977
0.235549
0.235709
0.235655
0.16291
0.162961
0.163617
0.165179
0.167706
0.171291
0.17622
0.182824
0.191389
0.201999
0.212756
0.221391
0.227757
0.232371
0.23572
0.238013
0.239456
0.240159
0.240368
0.240308
0.150213
0.150268
0.151097
0.153073
0.15631
0.160904
0.1672
0.175566
0.186319
0.19951
0.212769
0.223355
0.231158
0.236828
0.240898
0.243696
0.245443
0.246322
0.246578
0.246505
0.13468
0.134753
0.135807
0.138319
0.142513
0.148483
0.156555
0.167225
0.180772
0.197146
0.213397
0.226285
0.235781
0.24268
0.247615
0.251021
0.25317
0.254262
0.254566
0.254473
0.11511
0.115217
0.116644
0.120006
0.12552
0.133358
0.143918
0.157657
0.174766
0.195036
0.214822
0.230366
0.24179
0.250097
0.256056
0.260195
0.262828
0.264153
0.264508
0.26439
0.0897069
0.0898888
0.0919624
0.0967262
0.104329
0.114925
0.128979
0.146813
0.168422
0.193364
0.217217
0.235752
0.249344
0.259253
0.266405
0.271424
0.274637
0.27623
0.276632
0.27648
0.055403
0.0557832
0.059181
0.0665295
0.077695
0.0926184
0.111665
0.134896
0.162024
0.192384
0.220772
0.242579
0.258544
0.27024
0.278771
0.284834
0.288732
0.290628
0.291069
0.290871
0.00631013
0.00768535
0.0145733
0.0273557
0.0447837
0.0664177
0.0923722
0.122393
0.156004
0.192399
0.225652
0.250912
0.269387
0.283021
0.293107
0.300416
0.305161
0.307421
0.307888
0.307627
-0.0661926
-0.058051
-0.0423096
-0.019809
0.00706504
0.0376852
0.072041
0.109885
0.150718
0.193743
0.232347
0.261485
0.282873
0.29886
0.310983
0.320005
0.326015
0.328992
0.329694
0.329528
-0.143126
-0.125948
-0.100462
-0.0676268
-0.030938
0.00880474
0.0516826
0.0975793
0.146107
0.196577
0.241646
0.275788
0.301125
0.320345
0.335244
0.34673
0.354557
0.358593
0.359766
0.359774
-0.208018
-0.187156
-0.15383
-0.112366
-0.0670112
-0.0187264
0.0323991
0.0861394
0.142104
0.199677
0.250762
0.289415
0.318182
0.340186
0.357279
0.370463
0.379818
0.384662
0.385726
0.385841
-0.260467
-0.237388
-0.198962
-0.151421
-0.0993446
-0.0439684
0.0143603
0.0752334
0.138111
0.202268
0.258804
0.301381
0.33295
0.356985
0.375651
0.390021
0.400417
0.405735
0.407025
0.407256
-0.303774
-0.27951
-0.237467
-0.185199
-0.127785
-0.0666059
-0.00220241
0.0648888
0.133964
0.204093
0.265496
0.311393
0.345196
0.370764
0.390508
0.405688
0.416478
0.422299
0.423958
0.424223
-0.340832
-0.315841
-0.27117
-0.2151
-0.153201
-0.0871175
-0.0174819
0.0550721
0.129674
0.205178
0.270935
0.319723
0.355331
0.382035
0.402468
0.418086
0.429133
0.435235
0.43709
0.437335
-0.373621
-0.348157
-0.301408
-0.242175
-0.176488
-0.106151
-0.0318891
0.0455548
0.125184
0.205627
0.275415
0.326814
0.363984
0.391562
0.41242
0.428193
0.439283
0.445434
0.447387
0.447594
-0.403567
-0.377701
-0.329239
-0.267296
-0.198326
-0.124268
-0.0458672
0.0360491
0.120339
0.205475
0.279101
0.333032
0.371666
0.4
0.421183
0.437047
0.448115
0.454286
0.456323
0.456514
-0.431569
-0.405323
-0.355368
-0.291067
-0.219232
-0.141867
-0.0597299
0.0262801
0.114954
0.204605
0.28205
0.338478
0.378587
0.407726
0.429295
0.445287
0.456358
0.462443
0.46452
0.464752
-0.458324
-0.431655
-0.380337
-0.3139
-0.239523
-0.159212
-0.0737114
0.0160644
0.108865
0.20289
0.284166
0.343241
0.385009
0.415112
0.43717
0.453367
0.46447
0.470467
0.472487
0.472714
-0.484103
-0.45701
-0.404446
-0.336113
-0.259468
-0.176505
-0.0879529
0.00528651
0.101966
0.20026
0.285506
0.347495
0.391123
0.422349
0.445045
0.461557
0.472755
0.478685
0.480577
0.480736
-0.509251
-0.481632
-0.427941
-0.35789
-0.279201
-0.193853
-0.102532
-0.00611577
0.0942207
0.196721
0.286069
0.351174
0.396928
0.429501
0.453004
0.469946
0.481286
0.487154
0.488894
0.488963
-0.533831
-0.505691
-0.450927
-0.379308
-0.298794
-0.211309
-0.117488
-0.0181507
0.0856139
0.192192
0.285693
0.354199
0.4024
0.436586
0.461073
0.478549
0.490052
0.495833
0.497427
0.497384
-0.557906
-0.529222
-0.473449
-0.400412
-0.318272
-0.228873
-0.132803
-0.0308238
0.0761051
0.186561
0.284288
0.35649
0.407482
0.443577
0.46924
0.48734
0.499003
0.50464
0.506053
0.505911
-0.581522
-0.552281
-0.495513
-0.421206
-0.337618
-0.246508
-0.148446
-0.0441049
0.0656932
0.179819
0.281762
0.357874
0.412055
0.450427
0.477494
0.496292
0.508077
0.513468
0.514654
0.514426
-0.60469
-0.57482
-0.517112
-0.441651
-0.356771
-0.264168
-0.164354
-0.0579324
0.0544407
0.171961
0.278
0.358186
0.415937
0.457061
0.485851
0.505393
0.517164
0.522181
0.523093
0.522787
-0.627237
-0.596786
-0.53819
-0.461705
-0.375683
-0.281768
-0.180443
-0.0722055
0.0424273
0.162996
0.272921
0.357244
0.4189
0.463341
0.494376
0.514774
0.526247
0.530599
0.531159
0.53079
-0.64912
-0.618121
-0.558702
-0.481299
-0.394277
-0.29923
-0.196607
-0.0868337
0.029737
0.152967
0.266484
0.354879
0.420651
0.469001
0.503112
0.524805
0.53559
0.538656
0.53865
0.538255
-0.670379
-0.638781
-0.578608
-0.500384
-0.412478
-0.316464
-0.212749
-0.101707
0.0164763
0.141964
0.25866
0.350961
0.420886
0.473583
0.511868
0.53606
0.546225
0.546856
0.545434
0.545093
-0.690858
-0.658731
-0.597851
-0.518889
-0.430224
-0.333381
-0.228769
-0.116705
0.00277912
0.130109
0.249473
0.345383
0.41931
0.476442
0.519921
0.548694
0.560139
0.558067
0.552752
0.550037
-0.710635
-0.677978
-0.616433
-0.536842
-0.447544
-0.350028
-0.24472
-0.131889
-0.0114299
0.117333
0.238785
0.337897
0.415621
0.476813
0.525891
0.56151
0.578078
0.577553
0.565547
0.561006
-0.72963
-0.696589
-0.634491
-0.554434
-0.464735
-0.366749
-0.261028
-0.147767
-0.0267339
0.102946
0.225863
0.327611
0.409114
0.473481
0.526949
0.569845
0.59229
0.589171
0.575831
0.565068
-0.747716
-0.714532
-0.651861
-0.571452
-0.481561
-0.383239
-0.277471
-0.164
-0.0427998
0.0872571
0.210912
0.314168
0.399432
0.465614
0.5183
0.561284
0.586364
0.571108
0.509875
0.480624
-0.764791
-0.732534
-0.668118
-0.587382
-0.497393
-0.399028
-0.293788
-0.180324
-0.059347
0.0704606
0.194063
0.297282
0.385914
0.453604
0.496644
0.529847
0.537656
0.494699
0.42991
0.389547
-0.80812
-0.749619
-0.683218
-0.602905
-0.512958
-0.414988
-0.309861
-0.196847
-0.0765568
0.0522724
0.175001
0.276767
0.365557
0.438804
0.457945
0.464483
0.43767
0.382173
0.312933
0.274621
-0.782532
-0.764434
-0.705722
-0.626179
-0.536332
-0.438809
-0.334582
-0.22263
-0.103892
0.0225232
0.14226
0.24041
0.320465
0.394287
0.393835
0.297767
0.210886
0.151637
0.0875991
0.122445
-0.813502
-0.782144
-0.722731
-0.643394
-0.553842
-0.456788
-0.352608
-0.241561
-0.124228
-0.000147159
0.116217
0.210347
0.281454
0.321108
0.278351
0.144801
0.0365276
-0.0361059
-0.12041
-0.065183
-0.837393
-0.80364
-0.742445
-0.662895
-0.573516
-0.47663
-0.372738
-0.262729
-0.147101
-0.0258763
0.0861911
0.17472
0.234381
0.239589
0.136561
-0.0242376
-0.157067
-0.250676
-0.352506
-0.310947
-0.860489
-0.825689
-0.763162
-0.683015
-0.593554
-0.496848
-0.393589
-0.284762
-0.171038
-0.0530078
0.0539562
0.135845
0.17924
0.149172
-0.0118422
-0.200524
-0.370537
-0.514227
-0.647141
-0.618566
-0.883155
-0.84802
-0.784674
-0.704
-0.614387
-0.517928
-0.415423
-0.307903
-0.196334
-0.0818488
0.0193847
0.0935869
0.117349
0.0462754
-0.158359
-0.373345
-0.579186
-0.750847
-0.97871
-1.06433
-0.906054
-0.871063
-0.807267
-0.726206
-0.636432
-0.540177
-0.438359
-0.332161
-0.22284
-0.112081
-0.0168535
0.0483841
0.0511355
-0.0768118
-0.292725
-0.525211
-0.743038
-0.926073
-1.06959
-1.22493
-0.930144
-0.895235
-0.831248
-0.749985
-0.660171
-0.564214
-0.463177
-0.358464
-0.251724
-0.145172
-0.0564576
-0.00228946
-0.0280116
-0.199305
-0.418707
-0.648817
-0.847811
-0.962498
-0.993908
-1.00953
-0.955584
-0.920773
-0.856703
-0.775395
-0.685704
-0.590201
-0.490183
-0.387246
-0.283533
-0.181864
-0.100077
-0.0602009
-0.113183
-0.318263
-0.534788
-0.744484
-0.899875
-0.946833
-0.958844
-0.959311
-0.982627
-0.947767
-0.883629
-0.802369
-0.712931
-0.618084
-0.519337
-0.418488
-0.318255
-0.222199
-0.147874
-0.12484
-0.204823
-0.431201
-0.640607
-0.825657
-0.919051
-0.937995
-0.939076
-0.938941
-1.01119
-0.97621
-0.91199
-0.830843
-0.741795
-0.647771
-0.550563
-0.452131
-0.355779
-0.26606
-0.200071
-0.192958
-0.315189
-0.536616
-0.738303
-0.886598
-0.926765
-0.927823
-0.929456
-0.929232
-1.04099
-1.00588
-0.941612
-0.860663
-0.772128
-0.679107
-0.583706
-0.488083
-0.395914
-0.313224
-0.25641
-0.269452
-0.427604
-0.637275
-0.818194
-0.916293
-0.92647
-0.925589
-0.924946
-0.924649
-1.0714
-1.03638
-0.972181
-0.891528
-0.803652
-0.71182
-0.618431
-0.52613
-0.438282
-0.363277
-0.315614
-0.350479
-0.536776
-0.734516
-0.883548
-0.931731
-0.933799
-0.927245
-0.923059
-0.921365
-1.10193
-1.06711
-1.00319
-0.922952
-0.835913
-0.745466
-0.654227
-0.565779
-0.482499
-0.415185
-0.378419
-0.429216
-0.64529
-0.840615
-0.93851
-0.958412
-0.949082
-0.928824
-0.920395
-0.919168
-1.13146
-1.09723
-1.03388
-0.95425
-0.868251
-0.779432
-0.690418
-0.606047
-0.528308
-0.467271
-0.446172
-0.50626
-0.736719
-0.967243
-1.02359
-0.992791
-0.99642
-0.993386
-0.978432
-0.971024
-1.15915
-1.12567
-1.06328
-0.984524
-0.89977
-0.812842
-0.7262
-0.645409
-0.575149
-0.51833
-0.513163
-0.592235
-0.796783
-1.07483
-1.22574
-1.18353
-1.17372
-1.17703
-1.1572
-1.1429
-1.18322
-1.15109
-1.09015
-1.01263
-0.929345
-0.844498
-0.760578
-0.682313
-0.620621
-0.569054
-0.569587
-0.698185
-0.854365
-1.04135
-1.20933
-1.25247
-1.33686
-1.3542
-1.33908
-1.33145
-1.20192
-1.17176
-1.11299
-1.03719
-0.955686
-0.872899
-0.792054
-0.715932
-0.659458
-0.620877
-0.614688
-0.794623
-0.962252
-0.90053
-0.802694
-1.05744
-1.33207
-1.37783
-1.37715
-1.37814
-1.21375
-1.18613
-1.1302
-1.05672
-0.977326
-0.896511
-0.818415
-0.745443
-0.687808
-0.668066
-0.660904
-0.85547
-1.15446
-1.15231
-1.15443
-1.35963
-1.46752
-1.43799
-1.41229
-1.42135
-1.2165
-1.1924
-1.14032
-1.06971
-0.992694
-0.913954
-0.837458
-0.767762
-0.709081
-0.687605
-0.71245
-0.935215
-1.45466
-1.95883
-2.3152
-2.52337
-2.41145
-2.10142
-1.82486
-1.78596
-1.20952
-1.18926
-1.1419
-1.07488
-1.00051
-0.92376
-0.848283
-0.778364
-0.721188
-0.690938
-0.725697
-0.988775
-1.61848
-2.45918
-2.89665
-3.08286
-3.01631
-2.80105
-2.52958
-2.36629
-1.19044
-1.17462
-1.13376
-1.07161
-0.999995
-0.925218
-0.849022
-0.778709
-0.713325
-0.682306
-0.670634
-0.883619
-1.29112
-1.91982
-2.40423
-2.53728
-2.4863
-2.3159
-2.12143
-1.99304
-1.16144
-1.15019
-1.11647
-1.06027
-0.991616
-0.917784
-0.840806
-0.765052
-0.692127
-0.627297
-0.595145
-0.558242
-0.717417
-0.859854
-0.93234
-0.784392
-0.469162
-0.188484
-0.000501175
0.0812709
-1.12555
-1.11859
-1.09284
-1.04284
-0.977107
-0.903049
-0.824933
-0.739304
-0.65993
-0.550978
-0.457773
-0.28281
-0.0326397
0.393797
0.942949
1.46285
1.89129
2.15048
2.26204
2.29358
-1.08738
-1.0835
-1.06615
-1.02295
-0.959327
-0.88487
-0.802272
-0.715152
-0.612276
-0.505497
-0.359271
-0.216562
0.114254
0.690937
1.37664
1.99782
2.43566
2.6966
2.81779
2.85282
-1.05202
-1.04976
-1.03995
-1.00427
-0.942353
-0.865797
-0.781448
-0.689168
-0.589903
-0.471399
-0.340932
-0.225445
-0.0551345
0.371595
0.877521
1.33363
1.67775
1.87824
1.97135
1.99844
-1.02092
-1.02052
-1.0165
-0.987633
-0.926015
-0.846908
-0.761854
-0.671716
-0.574409
-0.465653
-0.357441
-0.264063
-0.184907
0.0737762
0.458062
0.792028
1.02961
1.1675
1.23438
1.25641
-0.990133
-0.992474
-0.991169
-0.96334
-0.899862
-0.820703
-0.73901
-0.65528
-0.565882
-0.467875
-0.379164
-0.308678
-0.263987
-0.113375
0.161509
0.400656
0.56187
0.649811
0.688342
0.699688
-0.920208
-0.92372
-0.923044
-0.898941
-0.844274
-0.777051
-0.707018
-0.634909
-0.557848
-0.471417
-0.395224
-0.344451
-0.311252
-0.217061
-0.0340385
0.120005
0.220038
0.278193
0.305964
0.312271
-0.80439
-0.806267
-0.80511
-0.79036
-0.757146
-0.713589
-0.663816
-0.608743
-0.545075
-0.47447
-0.406709
-0.363452
-0.333445
-0.270561
-0.15051
-0.0541572
0.0073948
0.0449862
0.0605473
0.0624109
-0.691063
-0.691141
-0.690344
-0.684946
-0.671787
-0.650185
-0.6205
-0.58236
-0.532495
-0.472393
-0.413931
-0.372794
-0.330516
-0.293065
-0.223685
-0.163611
-0.123309
-0.0972265
-0.0868278
-0.0861578
-0.617477
-0.617167
-0.617203
-0.617207
-0.613402
-0.603882
-0.587138
-0.560893
-0.522316
-0.470222
-0.420074
-0.390893
-0.348286
-0.316719
-0.270216
-0.232922
-0.203188
-0.184921
-0.17695
-0.177586
-0.582648
-0.582331
-0.582355
-0.583086
-0.582092
-0.577149
-0.566531
-0.547411
-0.515703
-0.465949
-0.425831
-0.407243
-0.379207
-0.36346
-0.323574
-0.29071
-0.260573
-0.243823
-0.236718
-0.23808
-0.574969
-0.574442
-0.573952
-0.573986
-0.573006
-0.56918
-0.560825
-0.544949
-0.515399
-0.466035
-0.428003
-0.415949
-0.40525
-0.403219
-0.369273
-0.335742
-0.311944
-0.298285
-0.294499
-0.294985
-0.588586
-0.587803
-0.586884
-0.586189
-0.584496
-0.580378
-0.57238
-0.557382
-0.526912
-0.473757
-0.429272
-0.408887
-0.391021
-0.388827
-0.367479
-0.342866
-0.321774
-0.31302
-0.307359
-0.309041
-0.621067
-0.620033
-0.618987
-0.618013
-0.616142
-0.612396
-0.605731
-0.592862
-0.562056
-0.503685
-0.453141
-0.407905
-0.374867
-0.374657
-0.358922
-0.33961
-0.326466
-0.316465
-0.315137
-0.315497
-0.668788
-0.667996
-0.667318
-0.666909
-0.666483
-0.666033
-0.665425
-0.662244
-0.643469
-0.593997
-0.543
-0.454693
-0.384829
-0.373922
-0.35566
-0.330123
-0.303195
-0.2854
-0.276993
-0.279509
-0.727029
-0.726685
-0.727041
-0.72853
-0.732202
-0.739938
-0.754215
-0.776911
-0.800184
-0.803719
-0.757235
-0.616701
-0.485309
-0.437907
-0.409583
-0.349224
-0.290907
-0.256229
-0.252569
-0.256238
-0.786088
-0.786666
-0.788902
-0.79399
-0.804956
-0.826665
-0.867022
-0.938516
-1.0471
-1.16571
-1.12683
-0.908542
-0.702168
-0.605292
-0.515468
-0.403732
-0.315708
-0.269965
-0.272168
-0.274356
-0.831434
-0.833266
-0.837912
-0.84773
-0.868057
-0.907525
-0.982139
-1.12288
-1.36306
-1.64654
-1.61433
-1.27371
-1.00975
-0.859485
-0.692755
-0.517738
-0.396192
-0.353613
-0.358811
-0.36556
-0.845422
-0.848507
-0.855367
-0.869426
-0.898149
-0.953539
-1.05956
-1.26666
-1.63722
-2.07878
-2.05533
-1.60519
-1.26788
-1.10103
-0.898695
-0.734311
-0.630035
-0.611477
-0.61049
-0.615024
-0.814403
-0.817939
-0.825574
-0.841601
-0.874127
-0.936797
-1.05744
-1.2964
-1.73687
-2.2412
-2.2726
-1.79178
-1.47346
-1.29813
-1.14095
-1.03659
-0.980507
-0.95791
-0.948201
-0.947579
-0.734271
-0.73753
-0.744469
-0.759091
-0.789163
-0.847211
-0.959151
-1.1808
-1.59068
-2.02656
-2.05918
-1.71168
-1.48386
-1.38499
-1.35888
-1.32647
-1.28022
-1.24686
-1.22794
-1.22214
-0.615462
-0.61776
-0.622622
-0.63326
-0.655822
-0.699832
-0.784812
-0.953023
-1.26867
-1.59156
-1.58849
-1.41763
-1.33432
-1.32675
-1.42935
-1.45543
-1.39494
-1.3528
-1.32886
-1.31966
-0.478017
-0.479078
-0.481387
-0.487119
-0.500285
-0.526774
-0.578482
-0.681548
-0.884932
-1.12691
-1.16025
-1.09017
-1.05627
-1.09188
-1.25401
-1.30579
-1.25275
-1.21651
-1.19689
-1.18859
-0.34353
-0.343514
-0.343718
-0.345248
-0.35018
-0.361171
-0.38349
-0.428968
-0.525082
-0.677015
-0.722504
-0.692994
-0.640666
-0.703141
-0.856489
-0.915894
-0.906931
-0.897446
-0.892184
-0.889073
-0.228143
-0.227474
-0.226427
-0.225383
-0.224965
-0.225594
-0.22814
-0.23448
-0.249047
-0.289878
-0.310415
-0.274505
-0.292736
-0.394945
-0.502994
-0.547045
-0.558742
-0.564981
-0.568982
-0.569817
-0.139471
-0.138578
-0.137146
-0.135193
-0.132484
-0.128337
-0.121727
-0.110642
-0.0910657
-0.0540784
-0.0227288
-0.0351157
-0.122892
-0.21165
-0.272539
-0.296883
-0.311995
-0.320951
-0.326796
-0.328722
-0.0775855
-0.0767671
-0.0755041
-0.0737405
-0.070901
-0.0659915
-0.0577119
-0.0439174
-0.0214518
0.0114685
0.0334566
0.0119809
-0.0490285
-0.103772
-0.138735
-0.156868
-0.166464
-0.172395
-0.176504
-0.177978
-0.0380163
-0.0374118
-0.0365402
-0.0354501
-0.0335141
-0.029812
-0.0233587
-0.0128107
0.00319243
0.0233702
0.032617
0.0157756
-0.0185226
-0.0491102
-0.0688962
-0.0792927
-0.0844022
-0.0875538
-0.089833
-0.0906835
-0.014728
-0.0143552
-0.0139134
-0.0135733
-0.0127451
-0.0107714
-0.00713546
-0.00124863
0.00723886
0.0167749
0.01933
0.00957529
-0.00679309
-0.0212366
-0.0305049
-0.0350507
-0.0369868
-0.0381814
-0.0391792
-0.0395738
-0.00198459
-0.00191348
-0.001699
-0.00146692
-0.00125735
-0.0010148
-0.000565278
0.000232256
0.00146201
0.00303522
0.00425925
0.00324574
0.000569746
-0.00223477
-0.00428296
-0.00545778
-0.00594249
-0.00610354
-0.00630272
-0.0065637
-0.471398
-0.26164
-0.065452
0.0989013
0.233549
0.342953
0.435967
0.511664
0.533006
0.529031
-0.142771
-0.00628982
0.12153
0.23326
0.328521
0.408318
0.47179
0.515113
0.538328
0.554458
0.0810403
0.171033
0.260342
0.339482
0.407536
0.464263
0.509015
0.5428
0.56744
0.586571
0.242486
0.305684
0.369956
0.427956
0.478162
0.520724
0.556133
0.585307
0.607242
0.626224
0.367989
0.415806
0.463778
0.508009
0.547274
0.58175
0.611633
0.636721
0.655744
0.673922
0.474009
0.511911
0.549564
0.585758
0.618927
0.648779
0.675002
0.696897
0.713372
0.730952
0.565983
0.599771
0.633634
0.666286
0.696595
0.724052
0.748055
0.76767
0.782066
0.799178
0.655586
0.689175
0.722664
0.7548
0.784394
0.810881
0.833589
0.851571
0.864299
0.880913
0.751638
0.788651
0.82405
0.857077
0.886776
0.912597
0.934111
0.950715
0.962552
0.978764
0.865652
0.906538
0.943994
0.977344
1.00618
1.03049
1.05039
1.06587
1.07791
1.09404
1.00748
1.04885
1.08442
1.11429
1.13972
1.16153
1.18019
1.19581
1.20902
1.225
1.17953
1.21218
1.23918
1.26165
1.28187
1.3007
1.31854
1.33538
1.35036
1.3661
1.36618
1.38353
1.40074
1.41751
1.43369
1.44848
1.46244
1.47697
1.49224
1.50957
1.54972
1.55973
1.57297
1.58399
1.59342
1.60312
1.61379
1.62401
1.63333
1.65901
1.76774
1.76206
1.74912
1.73485
1.72858
1.73434
1.7525
1.78104
1.81482
1.85116
2.07051
1.93454
1.85509
1.81268
1.79539
1.79934
1.8268
1.88468
1.99235
2.17075
0.348694
0.34239
0.334656
0.323534
0.309951
0.297283
0.286856
0.278796
0.273009
0.269585
0.269083
0.271726
0.276798
0.284039
0.293501
0.305268
0.318785
0.331682
0.340649
0.348178
0.257771
0.263689
0.271764
0.277896
0.28096
0.280441
0.277337
0.273303
0.269647
0.267244
0.266944
0.26902
0.272609
0.276917
0.280915
0.283075
0.28194
0.277258
0.270165
0.262313
0.251064
0.253437
0.256704
0.259477
0.261927
0.26411
0.265278
0.265096
0.264057
0.263096
0.26313
0.264358
0.265996
0.267081
0.26687
0.265301
0.263063
0.260639
0.257615
0.25458
0.246314
0.247401
0.249325
0.251672
0.253548
0.254944
0.256144
0.257092
0.257604
0.257831
0.258175
0.258708
0.258975
0.258679
0.257901
0.256854
0.255422
0.253369
0.251201
0.249705
0.241361
0.241992
0.243132
0.244916
0.246781
0.24838
0.249601
0.250598
0.251476
0.252192
0.252737
0.253014
0.252919
0.25251
0.25181
0.250684
0.249118
0.247387
0.245969
0.245149
0.236551
0.236986
0.237791
0.239125
0.240678
0.242254
0.243717
0.244948
0.246009
0.246952
0.247642
0.247891
0.247742
0.247251
0.246365
0.245166
0.243835
0.242544
0.241545
0.240993
0.231865
0.232182
0.232819
0.233962
0.23534
0.236814
0.238347
0.239841
0.241152
0.242255
0.24308
0.243435
0.243277
0.242638
0.241682
0.240589
0.239473
0.238392
0.237598
0.237192
0.227377
0.227616
0.22814
0.229148
0.230439
0.231851
0.233354
0.234902
0.236398
0.237727
0.238744
0.239196
0.239054
0.238481
0.237652
0.236706
0.235722
0.234803
0.234162
0.233849
0.222987
0.223161
0.223598
0.224522
0.225761
0.227115
0.228531
0.230046
0.23166
0.233232
0.23447
0.235067
0.235044
0.234665
0.234076
0.233329
0.232475
0.231676
0.231149
0.230914
0.218743
0.218869
0.219234
0.220077
0.221268
0.222615
0.224085
0.225638
0.227248
0.228913
0.230402
0.231317
0.231659
0.231549
0.231107
0.23048
0.229772
0.229103
0.228686
0.228511
0.214585
0.214666
0.214983
0.215819
0.217058
0.21847
0.220035
0.221782
0.223675
0.225611
0.227416
0.228668
0.229211
0.22922
0.228903
0.228389
0.227747
0.227131
0.226781
0.226661
0.210626
0.210662
0.210916
0.211674
0.212835
0.214184
0.215676
0.217372
0.219362
0.221613
0.223838
0.225482
0.22643
0.226903
0.226984
0.226759
0.22635
0.225909
0.225673
0.225609
0.206853
0.206859
0.207061
0.207712
0.208779
0.210102
0.211685
0.213577
0.215799
0.218361
0.221066
0.223303
0.22473
0.225528
0.225889
0.225952
0.225826
0.22562
0.225521
0.225492
0.202909
0.202915
0.203078
0.203619
0.204579
0.205861
0.207455
0.209499
0.212058
0.215166
0.21853
0.221349
0.223311
0.224587
0.225349
0.225802
0.226021
0.226093
0.226129
0.226118
0.19832
0.198318
0.198476
0.198962
0.199871
0.201166
0.202886
0.205155
0.208077
0.211741
0.215891
0.219579
0.222254
0.224125
0.225398
0.22625
0.226785
0.227106
0.227245
0.227242
0.192831
0.192827
0.193008
0.193526
0.194504
0.195945
0.197921
0.200611
0.204163
0.208673
0.213828
0.218444
0.221852
0.224296
0.226034
0.227257
0.228099
0.22862
0.228823
0.228823
0.186167
0.186156
0.186374
0.187002
0.188123
0.189796
0.192158
0.195391
0.19972
0.205258
0.211667
0.217477
0.221811
0.224973
0.227238
0.228873
0.230028
0.230708
0.230959
0.230965
0.178103
0.178081
0.178343
0.179133
0.180531
0.182612
0.185548
0.189598
0.194984
0.201886
0.209845
0.217059
0.222465
0.226412
0.229246
0.231259
0.232725
0.233554
0.233864
0.233885
0.168424
0.168386
0.168703
0.169706
0.171498
0.174146
0.177863
0.182953
0.189698
0.198299
0.208185
0.217131
0.223819
0.228697
0.232237
0.2348
0.236506
0.23748
0.237866
0.237901
0.156836
0.156778
0.157179
0.158425
0.160731
0.164111
0.168884
0.175336
0.183831
0.194567
0.206813
0.217827
0.226068
0.232085
0.236424
0.239519
0.241583
0.242768
0.24326
0.243309
0.142805
0.142733
0.143262
0.144854
0.147773
0.152179
0.158286
0.166518
0.177248
0.19066
0.205784
0.219274
0.229333
0.236686
0.241992
0.245743
0.248253
0.249719
0.250326
0.250383
0.125366
0.125288
0.126035
0.128135
0.131881
0.137627
0.145557
0.156177
0.169827
0.186608
0.205218
0.221622
0.233799
0.242698
0.249116
0.253659
0.256727
0.258528
0.259257
0.259317
0.103068
0.103005
0.104128
0.10703
0.112063
0.11969
0.130233
0.144112
0.161577
0.182535
0.205279
0.225037
0.239616
0.250269
0.257975
0.263458
0.267201
0.269398
0.270265
0.270323
0.0735286
0.073531
0.0753362
0.079616
0.0868522
0.0975522
0.111939
0.130298
0.152651
0.178665
0.20618
0.229693
0.246935
0.259548
0.268724
0.275319
0.27986
0.282506
0.28352
0.283568
0.032566
0.0328057
0.0360982
0.0433123
0.0546671
0.0704593
0.0905621
0.114961
0.143403
0.175328
0.208157
0.23573
0.255829
0.270573
0.281397
0.289293
0.294793
0.297957
0.299103
0.29913
-0.0275009
-0.0259962
-0.018113
-0.00440359
0.0146684
0.0385871
0.0667248
0.0987893
0.134404
0.172908
0.21141
0.243209
0.266261
0.283227
0.29583
0.30516
0.311767
0.315547
0.316842
0.316851
-0.100055
-0.0970009
-0.0817267
-0.057838
-0.0283567
0.00509261
0.0420067
0.0822903
0.125647
0.17151
0.216754
0.253987
0.281155
0.301415
0.316752
0.328374
0.336756
0.341594
0.343146
0.343333
-0.173971
-0.166179
-0.143405
-0.109725
-0.070381
-0.0276546
0.0180088
0.0665562
0.117735
0.171026
0.223119
0.26591
0.297253
0.320885
0.339059
0.35317
0.363423
0.368999
0.37126
0.37183
-0.232826
-0.223535
-0.195988
-0.155503
-0.108567
-0.0580301
-0.00452619
0.0516784
0.110227
0.170572
0.229052
0.276845
0.311801
0.338151
0.358463
0.37415
0.38562
0.392337
0.395407
0.396145
-0.280861
-0.270903
-0.239959
-0.194548
-0.141905
-0.0851773
-0.0251396
0.0377408
0.102918
0.1697
0.234002
0.286205
0.324154
0.352594
0.374412
0.391297
0.403769
0.411308
0.41472
0.415524
-0.321076
-0.310912
-0.277756
-0.228494
-0.171191
-0.109335
-0.0438379
0.0247718
0.0958093
0.168371
0.237888
0.293951
0.334382
0.364451
0.387342
0.404967
0.41799
0.426085
0.429748
0.430597
-0.356128
-0.345878
-0.311044
-0.258694
-0.197556
-0.131352
-0.0611043
0.0125557
0.0888199
0.166612
0.24087
0.300401
0.342977
0.374332
0.397971
0.415998
0.429265
0.437598
0.441342
0.442216
-0.38759
-0.377319
-0.341184
-0.286259
-0.221846
-0.151887
-0.0774601
0.000725326
0.0817679
0.164396
0.24313
0.305898
0.350443
0.382919
0.40711
0.425344
0.438672
0.447066
0.450773
0.45165
-0.416631
-0.406325
-0.369128
-0.311988
-0.244749
-0.171506
-0.0933527
-0.0110447
0.0744049
0.161622
0.244662
0.310645
0.357104
0.39064
0.415359
0.433809
0.447203
0.455623
0.459356
0.460082
-0.444075
-0.433714
-0.395544
-0.336444
-0.266695
-0.19055
-0.109064
-0.0230154
0.0665334
0.15813
0.245405
0.314603
0.363071
0.397785
0.423141
0.44188
0.455357
0.463767
0.467482
0.468124
-0.470395
-0.45995
-0.42087
-0.360001
-0.288026
-0.209289
-0.124806
-0.0353483
0.0580115
0.153786
0.245266
0.317847
0.368562
0.404643
0.430769
0.449903
0.463549
0.471947
0.475599
0.476219
-0.495929
-0.485326
-0.445388
-0.382931
-0.308967
-0.227901
-0.140706
-0.0481391
0.0487578
0.148531
0.244271
0.320474
0.373635
0.411296
0.43837
0.458041
0.471944
0.480372
0.483901
0.484483
-0.520885
-0.510055
-0.469306
-0.405381
-0.329618
-0.246468
-0.15683
-0.0614307
0.0387504
0.142363
0.242361
0.322339
0.378253
0.417759
0.445998
0.466345
0.480573
0.489042
0.492436
0.492944
-0.5453
-0.534224
-0.492698
-0.427413
-0.350041
-0.265028
-0.173198
-0.0752265
0.0279783
0.135206
0.23938
0.32335
0.382355
0.424027
0.453651
0.474813
0.489417
0.497898
0.501128
0.501528
-0.569245
-0.557889
-0.515595
-0.449054
-0.370252
-0.283573
-0.189779
-0.0895122
0.0164355
0.127017
0.235277
0.323407
0.385816
0.430022
0.461308
0.483426
0.498436
0.506896
0.509902
0.510159
-0.592669
-0.58105
-0.537991
-0.470303
-0.390214
-0.302053
-0.20653
-0.104236
0.00415956
0.117821
0.230004
0.32234
0.388481
0.435646
0.468949
0.492179
0.507561
0.515868
0.518581
0.518692
-0.615609
-0.603667
-0.559847
-0.491115
-0.409881
-0.320419
-0.223385
-0.119313
-0.00876352
0.107662
0.223498
0.32002
0.390131
0.440735
0.476551
0.501134
0.516792
0.52471
0.526993
0.526949
-0.637832
-0.62568
-0.581113
-0.511439
-0.429189
-0.33858
-0.240254
-0.13465
-0.0222409
0.0965992
0.215749
0.316333
0.390548
0.445027
0.484045
0.510484
0.526316
0.53338
0.534956
0.534732
-0.659477
-0.647021
-0.601741
-0.531229
-0.448083
-0.356477
-0.257032
-0.150153
-0.036177
0.0847297
0.206782
0.311179
0.389501
0.448163
0.491182
0.520472
0.53676
0.542238
0.542377
0.541853
-0.680358
-0.667636
-0.621708
-0.550426
-0.466476
-0.374021
-0.273632
-0.165694
-0.0504509
0.07215
0.19666
0.304501
0.386794
0.449699
0.497393
0.531052
0.549233
0.552948
0.549981
0.548248
-0.700562
-0.687553
-0.640954
-0.56897
-0.484323
-0.391138
-0.289962
-0.181184
-0.0649382
0.0590152
0.185492
0.296256
0.382287
0.449185
0.501722
0.541267
0.564165
0.568932
0.562414
0.551116
-0.71997
-0.706763
-0.659566
-0.587026
-0.501846
-0.408122
-0.306376
-0.197049
-0.0801255
0.0447619
0.172684
0.285757
0.37536
0.445954
0.502805
0.549038
0.579562
0.588882
0.582129
0.575969
-0.738543
-0.725335
-0.677548
-0.604521
-0.519014
-0.424954