/*--------------------------------*- C++ -*----------------------------------*\
  =========                 |
  \\      /  F ield         | OpenFOAM: The Open Source CFD Toolbox
   \\    /   O peration     | Website:  https://openfoam.org
    \\  /    A nd           | Version:  6
     \\/     M anipulation  |
\*---------------------------------------------------------------------------*/
FoamFile
{
    version     2.0;
    format      ascii;
    class       surfaceScalarField;
    location    "61";
    object      phi;
}
// * * * * * * * * * * * * * * * * * * * * * * * * * * * * * * * * * * * * * //

dimensions      [0 3 -1 0 0 0 0];

internalField   nonuniform List<scalar> 
4262
(
0.106786
0.471202
0.092511
0.707861
0.0647534
0.860061
0.0423179
1.0212
0.0262798
1.21455
0.0161836
1.44832
0.00990155
1.73215
0.00570209
2.07524
0.00244908
2.4885
-0.000526393
2.98527
-0.00341592
2.98518
-0.00651577
2.48834
-0.0106592
2.07518
-0.0168444
1.73205
-0.0267789
1.44815
-0.0426018
1.21434
-0.0648427
1.021
-0.0924863
0.859947
-0.106833
0.707933
0.471155
0.11479
0.356412
0.139973
0.682679
0.125323
0.87471
0.10178
1.04474
0.0735874
1.24275
0.0475078
1.4744
0.0269959
1.75266
0.0129664
2.08927
0.00454472
2.49692
-0.0011056
2.99092
-0.00656785
2.99064
-0.0152097
2.49699
-0.0289652
2.08894
-0.0491588
1.75224
-0.0750888
1.47408
-0.103289
1.24254
-0.126873
1.04459
-0.14078
0.873854
-0.115204
0.682357
0.355951
0.0917021
0.26471
0.126296
0.648085
0.124807
0.876198
0.110891
1.05866
0.0964285
1.25721
0.0765942
1.49423
0.0545099
1.77474
0.0329436
2.11083
0.0136799
2.51618
-0.00231094
3.00691
-0.0183634
3.0067
-0.0369557
2.51558
-0.0581328
2.11011
-0.079829
1.77394
-0.0990938
1.49335
-0.112778
1.25622
-0.125867
1.05768
-0.127612
0.875599
-0.0923196
0.647065
0.263631
0.0628353
0.201874
0.104016
0.606905
0.106796
0.873418
0.0972229
1.06823
0.086077
1.26836
0.0754266
1.50488
0.0606612
1.78951
0.0416877
2.12981
0.0202571
2.53761
-0.00321516
3.03038
-0.0265876
3.03007
-0.0475378
2.53653
-0.0657007
2.12828
-0.0796592
1.7879
-0.0896722
1.50336
-0.100454
1.26701
-0.109702
1.06693
-0.106105
0.872002
-0.0637525
0.604713
0.199879
0.0370209
0.164853
0.0793414
0.564584
0.0896782
0.863081
0.082909
1.075
0.0716312
1.27963
0.0625437
1.51397
0.0523447
1.79971
0.0384471
2.1437
0.019591
2.55647
-0.0046904
3.05466
-0.0283274
3.05371
-0.0463477
2.55455
-0.0594169
2.14134
-0.0687253
1.79721
-0.0769013
1.51154
-0.0873413
1.27744
-0.093168
1.07275
-0.0815561
0.86039
-0.0378121
0.560969
0.162066
0.0195286
0.145325
0.0566275
0.527485
0.0716436
0.848065
0.069103
1.07754
0.0600527
1.28868
0.0500395
1.52398
0.0405487
1.8092
0.0293923
2.15486
0.0144681
2.57139
-0.0058202
3.07495
-0.0259771
3.07386
-0.0400049
2.56858
-0.0498695
2.15121
-0.0580098
1.80535
-0.0668678
1.5204
-0.0747679
1.28535
-0.0761149
1.0741
-0.0593858
0.843661
-0.0203948
0.521978
0.141672
0.0107486
0.134576
0.0421041
0.49613
0.0576966
0.832472
0.0573759
1.07786
0.0504139
1.29565
0.0402957
1.5341
0.0303386
1.81915
0.0199532
2.16524
0.0076216
2.58372
-0.00772356
3.0903
-0.0222569
3.0884
-0.0333176
2.57964
-0.0424375
2.16033
-0.0509139
1.81382
-0.0597113
1.52919
-0.0650939
1.29073
-0.0636812
1.07269
-0.0457592
0.825739
-0.0118826
0.488101
0.129789
0.00664341
0.127933
0.0328437
0.46993
0.0485703
0.816746
0.0494398
1.07699
0.0436458
1.30144
0.0342869
1.54346
0.0240127
1.82943
0.0135383
2.17572
0.00256641
2.5947
-0.00950345
3.10237
-0.0213007
3.10019
-0.0310018
2.58934
-0.0392842
2.16861
-0.0473037
1.82184
-0.0547024
1.53659
-0.0586639
1.29469
-0.0556976
1.06972
-0.037136
0.807177
-0.00794527
0.45891
0.121844
0.00468721
0.123246
0.0264303
0.448187
0.0419123
0.801264
0.0435179
1.07539
0.038347
1.30661
0.0301936
1.55161
0.0204749
1.83915
0.0098242
2.18637
-0.00108924
2.60561
-0.0120675
3.11334
-0.0219945
3.11012
-0.0309866
2.59833
-0.0396852
2.17731
-0.0474746
1.82963
-0.0535462
1.54266
-0.0562281
1.29737
-0.0514079
1.0649
-0.03194
0.787709
-0.00637107
0.433341
0.115473
0.00378648
0.119459
0.0217858
0.430187
0.0369579
0.786092
0.0396587
1.07269
0.0350382
1.31123
0.0271121
1.55954
0.0175666
1.84869
0.00704106
2.1969
-0.00396997
2.61662
-0.0152388
3.12461
-0.0256634
3.12055
-0.0344095
2.60708
-0.041816
2.18472
-0.048176
1.83599
-0.0529568
1.54744
-0.0542432
1.29866
-0.0480585
1.05872
-0.0282835
0.767934
-0.00579594
0.410854
0.109677
0.0030765
0.116383
0.0174957
0.415768
0.031283
0.772304
0.0342095
1.06976
0.0301789
1.31526
0.0232826
1.56643
0.0148119
1.85716
0.00476292
2.20694
-0.00656554
2.62795
-0.0183482
3.1364
-0.0288503
3.13105
-0.0374756
2.6157
-0.0444507
2.19169
-0.0497465
1.84129
-0.0534721
1.55117
-0.0536957
1.29888
-0.0458681
1.05089
-0.0257507
0.747817
-0.00558707
0.39069
0.10409
0.00238891
0.113994
0.0139388
0.404218
0.0265355
0.759708
0.0295969
1.0667
0.0256284
1.31923
0.0185679
1.57349
0.00998169
1.86575
0.000140894
2.21678
-0.0109823
2.63907
-0.0233341
3.14875
-0.0344333
3.14215
-0.0422244
2.62349
-0.0476873
2.19715
-0.051677
1.84528
-0.0542714
1.55376
-0.0535782
1.29819
-0.0443495
1.04166
-0.0240176
0.727485
-0.00550762
0.37218
0.0985821
0.00180168
0.112192
0.0108365
0.395183
0.02185
0.748694
0.0245641
1.06398
0.0204692
1.32332
0.013545
1.58042
0.00524495
1.87405
-0.0044541
2.22648
-0.0156062
2.65022
-0.0280382
3.16118
-0.0386491
3.15276
-0.0458067
2.63065
-0.0509122
2.20226
-0.0546613
1.84903
-0.0561579
1.55526
-0.0543368
1.29637
-0.0436569
1.03098
-0.0229112
0.706739
-0.00546348
0.354732
0.0931186
0.000853601
0.111338
0.00718682
0.38885
0.0162915
0.739589
0.0184588
1.06182
0.0140146
1.32777
0.00643408
1.588
-0.00259136
1.88307
-0.0126147
2.23651
-0.0236182
2.66123
-0.0354458
3.17301
-0.0450995
3.16241
-0.05122
2.63677
-0.0548531
2.20589
-0.0573085
1.85148
-0.0580425
1.556
-0.0554079
1.29373
-0.043359
1.01893
-0.0221885
0.685569
-0.00543706
0.337981
0.0876816
8.81869e-05
0.11125
0.00406382
0.384875
0.0108369
0.732816
0.0118261
1.06083
0.00684129
1.33275
-0.000759156
1.5956
-0.00964665
1.89196
-0.019691
2.24655
-0.0308807
2.67242
-0.0425648
3.18469
-0.0518937
3.17174
-0.0574262
2.6423
-0.0604477
2.20891
-0.0621376
1.85317
-0.0617948
1.55565
-0.0574725
1.28941
-0.0437583
1.00522
-0.0219107
0.663721
-0.00545093
0.321521
0.0822306
-0.00094208
0.112192
0.000203604
0.383729
0.00484385
0.728176
0.00507102
1.0606
-0.000420695
1.33825
-0.00900745
1.60419
-0.0191977
1.90215
-0.0303503
2.2577
-0.0419069
2.68397
-0.0526985
3.19548
-0.0605821
3.17962
-0.0647192
2.64644
-0.0666787
2.21087
-0.067535
1.85403
-0.0664747
1.55459
-0.0606
1.28354
-0.0450093
0.989625
-0.0221846
0.640897
-0.00558965
0.304926
0.076641
-0.00191551
0.114108
-0.00309291
0.384906
-0.00169303
0.726776
-0.00353832
1.06245
-0.0101029
1.34481
-0.0192564
1.61334
-0.0297506
1.91265
-0.0410901
2.26904
-0.0528549
2.69574
-0.0644501
3.20708
-0.0724487
3.18762
-0.0759249
2.64992
-0.0767835
2.21173
-0.0761429
1.85339
-0.0731686
1.55162
-0.0651529
1.27552
-0.0473177
0.97179
-0.0230622
0.616641
-0.0058785
0.287742
0.0707625
-0.00320244
0.11731
-0.00674295
0.388447
-0.00867315
0.728706
-0.0122887
1.06606
-0.0200433
1.35256
-0.0307033
1.624
-0.0427132
1.92466
-0.0554973
2.28183
-0.0683948
2.70864
-0.0794216
3.2181
-0.0849864
3.19319
-0.0870595
2.65199
-0.0868772
2.21155
-0.085432
1.85194
-0.0813924
1.54758
-0.0711936
1.26532
-0.0506224
0.951219
-0.0244987
0.590517
-0.00629651
0.26954
0.064466
-0.00457321
0.121883
-0.0112395
0.395113
-0.016618
0.734085
-0.0232189
1.07266
-0.0325904
1.36194
-0.0444537
1.63586
-0.0574165
1.93762
-0.0711884
2.2956
-0.0846951
2.72214
-0.0964713
3.22988
-0.10288
3.1996
-0.103806
2.65292
-0.101576
2.20932
-0.0978594
1.84822
-0.0915786
1.5413
-0.0787191
1.25246
-0.0550058
0.927506
-0.0264342
0.561946
-0.00678586
0.249892
0.0576801
-0.00597336
0.127857
-0.0160614
0.405201
-0.0256032
0.743627
-0.0349765
1.08204
-0.0462761
1.37324
-0.0602554
1.64984
-0.07567
1.95303
-0.0919893
2.31192
-0.107903
2.73806
-0.1202
3.24218
-0.123795
3.20319
-0.121933
2.65105
-0.117817
2.2052
-0.112471
1.84288
-0.104503
1.53333
-0.0883175
1.23628
-0.0605456
0.899734
-0.0288466
0.530247
-0.00734778
0.228393
0.0503323
-0.00833127
0.136188
-0.0229934
0.419863
-0.037657
0.75829
-0.0503948
1.09477
-0.0636795
1.38652
-0.0797195
1.66588
-0.09767
1.97098
-0.11655
2.3308
-0.133682
2.75519
-0.144723
3.25322
-0.147165
3.20563
-0.144088
2.64798
-0.138483
2.1996
-0.131058
1.83545
-0.119878
1.52215
-0.0996569
1.21605
-0.0671771
0.867254
-0.0315627
0.494632
-0.00791624
0.204747
0.0424161
-0.0106553
0.146843
-0.0299651
0.439173
-0.0507559
0.779081
-0.0688249
1.11284
-0.0861443
1.40384
-0.106033
1.68577
-0.127789
1.99274
-0.149663
2.35267
-0.168071
2.7736
-0.178429
3.26358
-0.17771
3.20491
-0.170321
2.64059
-0.161309
2.19059
-0.151223
1.82537
-0.137109
1.50803
-0.111978
1.19092
-0.0738377
0.829114
-0.034059
0.454854
-0.00832935
0.179017
0.0340868
-0.0154363
0.16228
-0.0424724
0.466209
-0.0704303
0.807039
-0.0935414
1.13595
-0.11463
1.42493
-0.138684
1.70983
-0.164126
2.01818
-0.187983
2.37653
-0.205941
2.79156
-0.213295
3.27093
-0.208554
3.20017
-0.19904
2.63107
-0.188053
2.1796
-0.175283
1.8126
-0.156792
1.48954
-0.126236
1.16037
-0.0816573
0.784535
-0.0366063
0.409803
-0.00866653
0.151077
0.0254202
-0.0192008
0.18148
-0.0543631
0.501371
-0.0913605
0.844037
-0.12272
1.16731
-0.151334
1.45354
-0.183077
1.74157
-0.21341
2.04851
-0.238656
2.40178
-0.253922
2.80682
-0.254819
3.27183
-0.244605
3.18996
-0.230903
2.61737
-0.216323
2.16502
-0.200624
1.7969
-0.178449
1.46737
-0.140696
1.12261
-0.0880181
0.731857
-0.0381249
0.359909
-0.00855209
0.121504
0.0168681
-0.0316102
0.213091
-0.0795141
0.549275
-0.128338
0.892861
-0.167433
1.20641
-0.201759
1.48787
-0.239696
1.77951
-0.272087
2.08091
-0.294922
2.42461
-0.304489
2.81639
-0.300246
3.26758
-0.284918
3.17463
-0.266874
2.59933
-0.249974
2.14812
-0.231007
1.77793
-0.202004
1.43837
-0.15581
1.07642
-0.0949138
0.67096
-0.0395555
0.304551
-0.00835224
0.0903012
0.0085159
-0.0450274
0.258118
-0.117809
0.622057
-0.182866
0.957918
-0.229961
1.2535
-0.271941
1.52985
-0.313109
1.82067
-0.341309
2.10911
-0.357503
2.4408
-0.361398
2.82028
-0.351222
3.25741
-0.329873
3.15328
-0.306794
2.57625
-0.282598
2.12392
-0.256015
1.75135
-0.220361
1.40271
-0.165444
1.0215
-0.095846
0.601362
-0.0378818
0.246587
-0.00801848
0.0604378
0.000497413
-0.0320534
0.290171
-0.0963707
0.686374
-0.155867
1.01741
-0.204959
1.3026
-0.257442
1.58233
-0.302488
1.86572
-0.343186
2.1498
-0.377422
2.47504
-0.402121
2.84498
-0.414264
3.26955
-0.409678
3.14869
-0.391002
2.55757
-0.367223
2.10015
-0.335048
1.71917
-0.281311
1.34898
-0.199647
0.939838
-0.107275
0.508991
-0.0405959
0.179908
-0.00920931
0.0290512
-0.0087119
-0.0135786
0.30375
-0.0479168
0.720712
-0.0879125
1.05741
-0.129374
1.34406
-0.170375
1.62333
-0.201497
1.89684
-0.231881
2.18019
-0.259579
2.50274
-0.280406
2.86581
-0.287863
3.27701
-0.278821
3.13965
-0.26477
2.54352
-0.244183
2.07956
-0.212367
1.68736
-0.166614
1.30322
-0.106046
0.879271
-0.0480798
0.451024
-0.0175225
0.149351
-0.004274
0.0158027
-0.0129859
-0.00316649
0.306916
-0.0236367
0.741182
-0.0507971
1.08457
-0.0788947
1.37215
-0.105884
1.65032
-0.132944
1.9239
-0.160225
2.20747
-0.185376
2.52789
-0.203525
2.88396
-0.208347
3.28183
-0.199001
3.13031
-0.180052
2.52457
-0.154746
2.05425
-0.125284
1.6579
-0.0857644
1.2637
-0.0432841
0.836791
-0.0141095
0.421849
-0.00524061
0.140482
-0.00172266
0.0122847
-0.0147086
0.000801574
0.306115
-0.0139939
0.755978
-0.0339448
1.10452
-0.0542836
1.39249
-0.0738933
1.66993
-0.0952254
1.94523
-0.117296
2.22954
-0.13719
2.54778
-0.15036
2.89713
-0.152563
3.28403
-0.141365
3.11911
-0.121309
2.50452
-0.0953973
2.02834
-0.0629644
1.62546
-0.0312296
1.23197
-0.00506751
0.810629
0.00549756
0.411284
0.00366417
0.142315
0.000588474
0.0153604
-0.0141201
0.00324833
0.302867
-0.00606647
0.765293
-0.0226994
1.12115
-0.0406668
1.41046
-0.0576849
1.68695
-0.0749593
1.96251
-0.0923698
2.24695
-0.107546
2.56296
-0.117057
2.90664
-0.116525
3.2835
-0.103373
3.10596
-0.0818178
2.48296
-0.0552244
2.00175
-0.0279308
1.59817
-0.000614953
1.20465
0.0181898
0.791824
0.0192717
0.410203
0.0104909
0.151096
0.00264606
0.0232053
-0.011474
0.0043237
0.298543
-0.00195617
0.771572
-0.0163665
1.13557
-0.0330396
1.42713
-0.049276
1.70319
-0.0643795
1.97761
-0.0783528
2.26092
-0.0899306
2.57454
-0.0967316
2.91344
-0.0944995
3.28127
-0.0822261
3.09368
-0.0621075
2.46284
-0.0371449
1.97678
-0.00930266
1.57033
0.0137598
1.18159
0.0252806
0.780303
0.0231739
0.412309
0.0126335
0.161636
0.00342461
0.0324142
-0.00804941
0.00390714
0.294636
-0.00010468
0.775584
-0.0123874
1.14785
-0.0278595
1.44261
-0.0435893
1.71892
-0.058188
1.99221
-0.0714518
2.27419
-0.0821449
2.58523
-0.0875595
2.91886
-0.0834938
3.2772
-0.0686096
3.0788
-0.0468139
2.44105
-0.0238501
1.95382
-0.00232539
1.5488
0.0179424
1.16132
0.0281606
0.770085
0.0239812
0.416489
0.0131572
0.17246
0.0037151
0.0418563
-0.00433431
0.00246124
0.292175
-0.0010322
0.779078
-0.0114054
1.15822
-0.0250469
1.45625
-0.0400587
1.73393
-0.0548824
2.00703
-0.0685009
2.28781
-0.0789351
2.59566
-0.083347
2.92327
-0.0791354
3.27299
-0.0655847
3.06525
-0.0467686
2.42223
-0.0251611
1.93221
-0.000762981
1.52441
0.0172649
1.14329
0.0250358
0.762314
0.021925
0.419599
0.0122289
0.182156
0.00356427
0.050521
-0.000770039
0.00124797
0.290927
-0.00221035
0.782536
-0.0115593
1.16757
-0.0240952
1.46878
-0.0383096
1.74814
-0.0531286
2.02185
-0.0675588
2.30224
-0.0794354
2.60754
-0.0855963
2.92943
-0.0814003
3.2688
-0.0651537
3.049
-0.045128
2.40221
-0.0240798
1.91116
-0.00604096
1.50637
0.0110596
1.12619
0.0201732
0.7532
0.0177068
0.422066
0.0100189
0.189844
0.00303224
0.0575076
0.0022622
-0.00058508
0.291512
-0.00473399
0.786685
-0.0132445
1.17608
-0.0244328
1.47997
-0.0376203
1.76133
-0.0522235
2.03646
-0.0674024
2.31741
-0.0808514
2.62099
-0.088516
2.93709
-0.0850281
3.26531
-0.0706194
3.03459
-0.0532185
2.38481
-0.0341805
1.89213
-0.0129417
1.48513
0.00261405
1.11064
0.010824
0.74499
0.0112568
0.421633
0.00675286
0.194348
0.00221709
0.0620434
0.00447929
-0.00182575
0.293337
-0.00644528
0.791304
-0.0147637
1.1844
-0.0255579
1.49077
-0.038192
1.77396
-0.0523539
2.05062
-0.0678414
2.3329
-0.0830243
2.63617
-0.0939111
2.94798
-0.0938266
3.26522
-0.0787006
3.01947
-0.0575881
2.36369
-0.0382512
1.87279
-0.0231428
1.47002
-0.0077584
1.09525
0.00292548
0.734307
0.00513036
0.419428
0.00359948
0.195879
0.00143664
0.0642062
0.00591593
-0.00320947
0.296547
-0.0086538
0.796749
-0.0167923
1.19254
-0.0269031
1.50088
-0.0388885
1.78595
-0.0526216
2.06435
-0.0681466
2.34843
-0.0843053
2.65233
-0.0978605
2.96154
-0.101737
3.2691
-0.0896327
3.00736
-0.0702805
2.34434
-0.0515862
1.8541
-0.0322386
1.45067
-0.0176074
1.08062
-0.00696474
0.723664
-0.00141021
0.413874
0.00014211
0.194327
0.000399398
0.063949
0.00631533
-0.00392684
0.300474
-0.00989839
0.80272
-0.0182015
1.20084
-0.0283724
1.51105
-0.0402108
1.79779
-0.0535086
2.07765
-0.0686309
2.36355
-0.0853163
2.66902
-0.10225
2.97847
-0.11189
3.27874
-0.10247
2.99794
-0.0803864
2.32226
-0.0568777
1.83059
-0.0408686
1.43466
-0.0254126
1.06517
-0.0128191
0.71107
-0.00635705
0.407412
-0.00219988
0.19017
-0.00026544
0.0620145
0.00604989
-0.0046026
0.305076
-0.011433
0.809551
-0.0197929
1.2092
-0.0295813
1.52084
-0.0410163
1.80922
-0.0539263
2.09056
-0.0687131
2.37834
-0.0855241
2.68583
-0.104154
2.9971
-0.118472
3.29306
-0.115374
2.99484
-0.0973395
2.30422
-0.0725904
1.80584
-0.0473119
1.40938
-0.0304729
1.04833
-0.0182234
0.698821
-0.0090063
0.398195
-0.00337958
0.184543
-0.000620936
0.0592559
0.00542895
-0.00492928
0.310006
-0.0121141
0.816735
-0.0206749
1.21776
-0.0306265
1.53079
-0.0420211
1.82062
-0.0545709
2.10311
-0.0689247
2.39269
-0.0857786
2.70268
-0.105621
3.01694
-0.124118
3.31156
-0.126024
2.99675
-0.108904
2.2871
-0.08058
1.77751
-0.0538485
1.38265
-0.0318324
1.02631
-0.0173944
0.684383
-0.009117
0.389917
-0.00304127
0.178467
-0.000527969
0.0567426
0.00490098
-0.00523895
0.315245
-0.0130274
0.824524
-0.0216194
1.22635
-0.0312459
1.54041
-0.0422457
1.83162
-0.0544507
2.11531
-0.0687077
2.40695
-0.0857306
2.71971
-0.105659
3.03687
-0.125914
3.33181
-0.133894
3.00473
-0.123383
2.27659
-0.0986406
1.75277
-0.061973
1.34598
-0.031417
0.995755
-0.0142892
0.667255
-0.00449751
0.380125
-0.000465354
0.174435
0.000277353
0.0559999
0.00517834
-0.00526741
0.320512
-0.0131494
0.832406
-0.0218921
1.2351
-0.0316431
1.55016
-0.0424955
1.84247
-0.0543589
2.12718
-0.0685982
2.42119
-0.085923
2.73703
-0.106077
3.05702
-0.12693
3.35266
-0.13833
3.01613
-0.131224
2.26949
-0.106471
1.72802
-0.0719351
1.31145
-0.0317312
0.955552
-0.00313093
0.638655
0.00695002
0.370044
0.00696516
0.17442
0.00272735
0.0602377
0.00790568
-0.0053359
0.325848
-0.013516
0.840586
-0.0222172
1.2438
-0.0316404
1.55959
-0.0418939
1.85272
-0.0534379
2.13872
-0.0681015
2.43585
-0.086033
2.75496
-0.106009
3.077
-0.126513
3.37317
-0.140876
3.03049
-0.140478
2.26909
-0.122748
1.71029
-0.0831838
1.27188
-0.0358342
0.908202
0.00736168
0.595459
0.0301467
0.347259
0.0275896
0.176977
0.0111759
0.0766514
0.0190815
-0.00516535
0.331013
-0.013225
0.848646
-0.0219396
1.25251
-0.0314475
1.5691
-0.0412712
1.86255
-0.0525909
2.15004
-0.0677084
2.45097
-0.0862611
2.77351
-0.106247
3.09699
-0.1264
3.39332
-0.141253
3.04534
-0.143877
2.27171
-0.126991
1.6934
-0.0931619
1.23806
-0.0398822
0.854922
0.0177973
0.53778
0.0666756
0.298381
0.0829218
0.160731
0.0542568
0.105316
0.0733383
-0.00506498
0.336078
-0.0127906
0.856371
-0.0207733
1.26049
-0.0296009
1.57792
-0.0405967
1.87354
-0.0544035
2.16385
-0.0714651
2.46803
-0.0911061
2.79316
-0.111703
3.11758
-0.131207
3.41282
-0.144581
3.05872
-0.147335
2.27447
-0.136397
1.68247
-0.10041
1.20207
-0.047201
0.801713
0.025476
0.465103
0.102007
0.22185
0.154191
0.108547
0.14742
0.112087
0.220758
-0.00491368
0.340992
-0.0122218
0.863679
-0.0200626
1.26834
-0.0292569
1.58712
-0.0411444
1.88543
-0.0561643
2.17887
-0.0745364
2.4864
-0.0956651
2.81428
-0.118705
3.14062
-0.141849
3.43597
-0.159254
3.07612
-0.165332
2.28054
-0.152692
1.66983
-0.121677
1.17105
-0.0581334
0.73817
0.00353453
0.403435
-0.0492233
0.274608
-0.38357
0.442893
-1.00694
0.735461
0.928795
-1.71498
-0.00481453
0.345806
-0.0122504
0.871115
-0.020149
1.27623
-0.0291274
1.5961
-0.0401715
1.89647
-0.054582
2.19328
-0.0734445
2.50526
-0.0958727
2.83671
-0.120446
3.1652
-0.146554
3.46208
-0.170008
3.09958
-0.183903
2.29444
-0.184943
1.67087
-0.155618
1.14173
-0.121662
0.704214
-0.243361
0.525134
-0.765644
0.79689
-1.52126
1.19851
-2.10787
1.32207
1.20545
-2.38452
-0.00450759
0.350314
-0.0116376
0.878245
-0.0194593
1.28406
-0.0283371
1.60497
-0.0393452
1.90748
-0.054021
2.20795
-0.0733955
2.52464
-0.0966471
2.85996
-0.122912
3.19146
-0.152425
3.49159
-0.181197
3.12835
-0.202274
2.31552
-0.205115
1.67371
-0.195495
1.13211
-0.314459
0.823179
-0.848272
1.05895
-1.63022
1.57884
-2.14995
1.71824
-2.36914
1.54126
1.30824
-2.47193
-0.00400809
0.354322
-0.0113779
0.885615
-0.0189689
1.29165
-0.0272237
1.61323
-0.0378783
1.91814
-0.0527911
2.22287
-0.0728112
2.54466
-0.0969846
2.88414
-0.125053
3.21953
-0.158735
3.52527
-0.194522
3.16414
-0.226906
2.3479
-0.247149
1.69395
-0.33382
1.21878
-0.727952
1.21731
-1.50572
1.83671
-2.05873
2.13185
-2.28316
1.94266
-2.38843
1.64653
1.37493
-2.45512
-0.00315262
0.357475
-0.00916588
0.891628
-0.0162033
1.29868
-0.0250762
1.6221
-0.0371686
1.93023
-0.0529049
2.2386
-0.0728657
2.56462
-0.0972194
2.90849
-0.127231
3.24954
-0.165365
3.56341
-0.208581
3.20735
-0.248238
2.38756
-0.290724
1.73644
-0.522464
1.45052
-1.20408
1.89893
-1.8682
2.50083
-2.15514
2.41879
-2.28931
2.07683
-2.36669
1.72391
1.43222
-2.42398
-0.00277848
0.360253
-0.00770318
0.896553
-0.0146296
1.30561
-0.0244755
1.63195
-0.0376709
1.94343
-0.0541654
2.2551
-0.0744185
2.58487
-0.0995359
2.93361
-0.131939
3.28194
-0.175168
3.60664
-0.225371
3.25756
-0.273973
2.43616
-0.399542
1.862
-0.82362
1.8746
-1.57397
2.64928
-1.9989
2.92576
-2.17357
2.59346
-2.26459
2.16786
-2.33492
1.79423
1.49116
-2.39385
-0.00267012
0.362923
-0.0078705
0.901753
-0.0153871
1.31313
-0.0260138
1.64257
-0.039997
1.95741
-0.0572612
2.27236
-0.0783219
2.60593
-0.104625
2.95991
-0.139417
3.31674
-0.187684
3.6549
-0.245515
3.31539
-0.314983
2.50563
-0.529388
2.07641
-1.14274
2.48795
-1.75604
3.26257
-1.99335
3.16308
-2.12481
2.72491
-2.2248
2.26786
-2.30789
1.87732
1.54954
-2.36628
-0.00299361
0.365917
-0.00923514
0.907995
-0.0173802
1.32127
-0.0280445
1.65324
-0.0420143
1.97138
-0.0596525
2.29
-0.0817315
2.62801
-0.109692
2.98787
-0.147078
3.35412
-0.200353
3.70818
-0.263132
3.37817
-0.365273
2.60777
-0.694548
2.40568
-1.37906
3.17246
-1.80907
3.69258
-1.99787
3.35188
-2.12396
2.851
-2.22243
2.36632
-2.29614
1.95104
1.57899
-2.32558
-0.00325117
0.369168
-0.0097702
0.914514
-0.0186206
1.33012
-0.030082
1.6647
-0.0447485
1.98604
-0.0630373
2.30829
-0.0858985
2.65087
-0.115121
3.01709
-0.155082
3.39408
-0.212321
3.76542
-0.282208
3.44805
-0.433415
2.75898
-0.8687
2.84097
-1.50653
3.81029
-1.81856
4.00461
-1.97151
3.50483
-2.06088
2.94037
-2.13817
2.44361
-2.18659
1.99946
1.52197
-2.12958
-0.00364825
0.372816
-0.011055
0.921921
-0.0205144
1.33958
-0.0322182
1.6764
-0.0469938
2.00082
-0.0656033
2.3269
-0.0893952
2.67467
-0.12024
3.04794
-0.16282
3.43666
-0.226263
3.82886
-0.320968
3.54276
-0.521714
2.95972
-1.02641
3.34567
-1.55878
4.34266
-1.79216
4.23799
-1.9269
3.63957
-2.00555
3.01902
-2.01067
2.44873
-1.92471
1.91351
1.43716
-1.8399
-0.00359764
0.376414
-0.0110092
0.929332
-0.0210327
1.34961
-0.0336945
1.68907
-0.0494546
2.01658
-0.068707
2.34615
-0.0927119
2.69867
-0.12373
3.07896
-0.166926
3.47986
-0.227806
3.88974
-0.329816
3.64477
-0.567834
3.19774
-1.10924
3.88708
-1.5125
4.74592
-1.66658
4.39206
-1.74175
3.71475
-1.76895
3.04621
-1.63512
2.31489
-1.11578
1.39417
0.321386
-0.00364694
0.380061
-0.0118605
0.937546
-0.0224421
1.36019
-0.0355406
1.70216
-0.0519738
2.03301
-0.0724653
2.36664
-0.0985163
2.72472
-0.132776
3.11322
-0.180533
3.52761
-0.247447
3.95665
-0.368673
3.76599
-0.67198
3.50105
-1.25546
4.47055
-1.57599
5.06646
-1.68368
4.49975
-1.71224
3.74331
-1.60586
2.93983
-1.24532
1.95435
-0.472708
0.621552
-0.151323
-0.00332523
0.383386
-0.0111866
0.945407
-0.0224206
1.37142
-0.0367812
1.71652
-0.0547782
2.05101
-0.0769611
2.38882
-0.105027
2.75279
-0.141952
3.15014
-0.193503
3.57917
-0.268112
4.03126
-0.420258
3.91814
-0.797076
3.87786
-1.36676
5.04024
-1.59431
5.29401
-1.66083
4.56627
-1.62872
3.71119
-1.36391
2.67503
-0.637834
1.22828
-0.0167651
0.000482264
-0.168088
-0.00275248
0.386139
-0.0116526
0.954307
-0.0234477
1.38322
-0.0379484
1.73102
-0.0561632
2.06923
-0.0793069
2.41197
-0.109481
2.78296
-0.1498
3.19046
-0.205058
3.63443
-0.296451
4.12266
-0.481553
4.10324
-0.919904
4.31621
-1.43988
5.56021
-1.59595
5.45008
-1.62991
4.60024
-1.47855
3.55983
-0.972598
2.16907
-0.165585
0.421263
0.0386967
-0.203799
-0.129391
-0.00212734
0.388266
-0.00970175
0.961882
-0.0217319
1.39525
-0.0374959
1.74679
-0.0574054
2.08914
-0.0823446
2.43691
-0.114557
2.81517
-0.157602
3.23351
-0.215556
3.69238
-0.315949
4.22305
-0.528112
4.3154
-1.03945
4.82755
-1.47114
5.99191
-1.57157
5.5505
-1.54671
4.57539
-1.26124
3.27436
-0.49988
1.40771
0.00688501
-0.0855026
0.0249584
-0.221873
-0.104433
-0.00115992
0.389426
-0.00914516
0.969867
-0.0212831
1.40738
-0.0367711
1.76228
-0.0564114
2.10878
-0.0818935
2.46239
-0.115893
2.84917
-0.162517
3.28013
-0.225237
3.7551
-0.335463
4.33327
-0.57971
4.55965
-1.13364
5.38148
-1.4481
6.30637
-1.50205
5.60445
-1.40981
4.48315
-0.97112
2.83567
-0.153629
0.590219
0.0191212
-0.258253
0.0175811
-0.220333
-0.0868515
0.00103312
0.388393
-0.00481454
0.975715
-0.0166411
1.41921
-0.0330567
1.77869
-0.054241
2.12996
-0.081305
2.48945
-0.116994
2.88486
-0.165711
3.32885
-0.231573
3.82096
-0.350633
4.45233
-0.632254
4.84127
-1.18661
5.93584
-1.40735
6.52711
-1.43045
5.62755
-1.21072
4.26342
-0.572849
2.1978
-0.00665181
0.0240215
0.0137201
-0.278625
0.00650775
-0.21312
-0.0803438
0.00249425
0.385898
-0.00214506
0.980354
-0.0131664
1.43023
-0.0285952
1.79412
-0.048661
2.15003
-0.0754572
2.51625
-0.111907
2.92131
-0.162223
3.37916
-0.234144
3.89288
-0.365453
4.58364
-0.679023
5.15484
-1.18729
6.4441
-1.33463
6.67445
-1.30875
5.60167
-0.985688
3.94035
-0.281804
1.49392
-0.0193834
-0.238399
-0.00224639
-0.295762
-0.00217418
-0.213192
-0.0825179
0.00670953
0.379189
0.00587999
0.981184
-0.00337296
1.43948
-0.018966
1.80971
-0.0400268
2.17109
-0.0677299
2.54395
-0.104827
2.95841
-0.155623
3.42996
-0.230037
3.9673
-0.369523
4.72313
-0.706897
5.49221
-1.1425
6.8797
-1.21251
6.74446
-1.15193
5.54109
-0.791558
3.57998
-0.057726
0.760087
0.0179892
-0.314114
0.0238659
-0.301639
0.00972833
-0.199055
-0.0727896
0.0102281
0.368961
0.0126873
0.978724
0.00587718
1.44629
-0.00748455
1.82308
-0.0261957
2.1898
-0.0524688
2.57023
-0.0888409
2.99478
-0.138373
3.47949
-0.216855
4.04578
-0.365963
4.87224
-0.707446
5.8337
-1.04933
7.22159
-1.09188
6.78701
-0.967582
5.41679
-0.521407
3.1338
0.0706275
0.168052
0.0752931
-0.31878
0.0591641
-0.28551
0.0226853
-0.162576
-0.0501043
0.0175561
0.351405
0.0271701
0.96911
0.024668
1.4488
0.0126167
1.83513
-0.00626475
2.20868
-0.0322872
2.59625
-0.0676728
3.03017
-0.11556
3.52738
-0.189731
4.11995
-0.326308
5.00881
-0.663048
6.17044
-0.924147
7.48269
-0.950493
6.81336
-0.779596
5.24589
-0.295247
2.64946
0.0405509
-0.167745
0.0697129
-0.347941
0.0580601
-0.273857
0.0208791
-0.125395
-0.0292252
0.0245863
0.326818
0.0415624
0.952134
0.0439798
1.44638
0.036125
1.84298
0.0216253
2.22318
-0.00126827
2.61914
-0.034194
3.06309
-0.0799751
3.57316
-0.148359
4.18833
-0.271255
5.13171
-0.577703
6.47688
-0.763648
7.66864
-0.777824
6.82753
-0.621499
5.08957
-0.196219
2.22418
-0.0834781
-0.280486
-0.0194652
-0.411954
0.0229682
-0.31629
0.0140596
-0.116486
-0.0151656
0.0366504
0.290168
0.0659855
0.922799
0.0765143
1.43585
0.0725197
1.84698
0.0601091
2.23559
0.0394596
2.63979
0.0103343
3.09222
-0.0314578
3.61495
-0.0933291
4.25021
-0.19446
5.23284
-0.427301
6.70973
-0.561815
7.80315
-0.59089
6.85661
-0.464541
4.96322
-0.121737
1.88137
-0.116545
-0.285679
-0.0734884
-0.455011
-0.0171285
-0.37265
0.0166334
-0.150248
0.00146786
0.048783
0.241385
0.0920209
0.879561
0.11153
1.41634
0.115313
1.84319
0.110801
2.2401
0.0961773
2.65441
0.0726859
3.11571
0.0355871
3.65205
-0.0210096
4.3068
-0.110696
5.32253
-0.229932
6.82896
-0.314674
7.88789
-0.344699
6.88663
-0.289512
4.90803
-0.127411
1.71927
-0.231605
-0.181484
-0.195212
-0.491404
-0.114155
-0.453707
-0.00456354
-0.25984
-0.00309568
0.0642126
0.177172
0.126832
0.816942
0.163402
1.37977
0.177462
1.82913
0.178552
2.23901
0.169241
2.66373
0.15263
3.13232
0.124756
3.67992
0.0837875
4.34777
0.0407772
5.36554
0.0183327
6.85141
-0.00121082
7.90744
-0.0499703
6.93539
-0.0885318
4.94659
-0.147176
1.77791
-0.379763
0.0511033
-0.361993
-0.509174
-0.252993
-0.562708
-0.0791535
-0.433679
-0.0822492
0.0663188
0.110853
0.160669
0.722592
0.221103
1.31934
0.251699
1.79854
0.264262
2.22645
0.264507
2.66348
0.256054
3.14077
0.240131
3.69585
0.214894
4.37301
0.205611
5.37482
0.287792
6.76923
0.348329
7.8469
0.372336
6.91139
0.257776
5.06115
-0.0187374
2.05443
-0.331692
0.364058
-0.419837
-0.421029
-0.329804
-0.652741
-0.163976
-0.599507
-0.246225
0.0572283
0.0536251
0.197198
0.582623
0.299054
1.21748
0.350722
1.74687
0.37222
2.20495
0.381629
2.65407
0.381655
3.14075
0.384958
3.69254
0.375387
4.38258
0.36533
5.38488
0.576666
6.55789
0.782744
7.64082
0.887578
6.80655
0.779667
5.16906
0.226756
2.60734
-0.0570326
0.647847
-0.210677
-0.267384
-0.251759
-0.611659
-0.166187
-0.685079
-0.412412
0.0427271
0.010898
0.242584
0.382766
0.377268
1.0828
0.456194
1.66794
0.501513
2.15963
0.527688
2.6279
0.540021
3.12842
0.556605
3.67596
0.579943
4.35924
0.631182
5.33364
0.939597
6.24947
1.31408
7.26633
1.53941
6.58122
1.50431
5.20417
0.846507
3.26514
0.365181
1.12917
0.0768292
0.0209672
-0.110361
-0.424469
-0.128071
-0.667369
-0.540483
0.0256132
-0.0147151
0.240489
0.167889
0.465895
0.857392
0.597449
1.53639
0.664243
2.09284
0.7035
2.58864
0.732155
3.09976
0.756908
3.65121
0.815916
4.30023
0.937191
5.21236
1.3463
5.84037
1.88696
6.72567
2.18457
6.28361
2.29218
5.09656
1.97424
3.58308
1.24094
1.86248
0.63215
0.629754
0.220688
-0.0130077
0.0324828
-0.479164
-0.508
0.0231148
-0.0378299
0.166751
0.0242535
0.524606
0.499537
0.745764
1.31523
0.856848
1.98175
0.914913
2.53058
0.959705
3.05497
0.993149
3.61776
1.07682
4.21656
1.24177
5.04741
1.66819
5.41396
2.40785
5.98601
2.71232
5.97913
2.87656
4.93233
2.65039
3.80925
1.94504
2.56783
1.20652
1.36827
0.649518
0.543992
0.230693
-0.0603392
-0.277307
0.00197407
-0.0398039
0.0717031
-0.0454756
0.411625
0.159615
0.748202
0.978655
0.917767
1.81219
0.974495
2.47385
0.988841
3.04062
0.985292
3.62131
1.00166
4.2002
1.06334
4.98573
1.28666
5.19063
1.8309
5.44177
1.82354
5.98649
1.89069
4.86518
1.78591
3.91403
1.43559
2.91815
0.922324
1.88154
0.497109
0.969207
0.189169
0.247601
-0.0881384
0.000541913
-0.0403458
0.0360066
-0.0809402
0.192222
0.00339938
0.565208
0.605669
0.782203
1.59519
0.866352
2.3897
0.886942
3.02003
0.888378
3.61988
0.868057
4.22052
0.901207
4.95258
0.998541
5.0933
1.29194
5.14837
1.57354
5.70489
1.57548
4.86324
1.51814
3.97138
1.32734
3.10894
0.978587
2.2303
0.598769
1.34902
0.234214
0.612156
0.146075
-0.00502712
-0.0353187
0.0046473
-0.0906146
0.0689079
-0.0608613
0.386532
0.288044
0.633729
1.348
0.744953
2.27848
0.769295
2.99569
0.769134
3.62004
0.7433
4.24635
0.747402
4.94848
0.790626
5.05007
1.01666
4.92233
1.26222
5.45933
1.24343
4.88203
1.18017
4.03463
1.0458
3.24331
0.817529
2.45857
0.522173
1.64438
0.216878
0.917451
0.362954
-0.00872578
-0.0265929
-0.00279254
-0.0965479
0.0371565
-0.10081
0.234804
0.0903963
0.487014
1.09579
0.606707
2.15878
0.63359
2.96881
0.632422
3.6212
0.611088
4.26769
0.604886
4.95468
0.622562
5.0324
0.754067
4.79083
0.925532
5.28786
0.901738
4.90583
0.838089
4.09828
0.733251
3.34815
0.57441
2.61741
0.369722
1.84907
0.158267
1.12891
0.52122
-0.00297225
-0.0236207
0.0240117
-0.123532
0.0651988
-0.141997
0.152699
0.00289631
0.369238
0.879247
0.469362
2.05866
0.494282
2.94389
0.495424
3.62006
0.484187
4.27892
0.480065
4.9588
0.478963
5.0335
0.533156
4.73664
0.625244
5.19578
0.631475
4.8996