/*--------------------------------*- C++ -*----------------------------------*\
  =========                 |
  \\      /  F ield         | OpenFOAM: The Open Source CFD Toolbox
   \\    /   O peration     | Website:  https://openfoam.org
    \\  /    A nd           | Version:  6
     \\/     M anipulation  |
\*---------------------------------------------------------------------------*/
FoamFile
{
    version     2.0;
    format      ascii;
    class       volVectorField;
    location    "11";
    object      U;
}
// * * * * * * * * * * * * * * * * * * * * * * * * * * * * * * * * * * * * * //

dimensions      [0 1 -1 0 0 0 0];

internalField   nonuniform List<vector> 
918
(
(0.984916 -0.000803575 0)
(0.00531193 2.96627 0)
(-0.00589622 1.66628 0)
(0.979814 0.00170564 0)
(-0.000812146 1.63769 -2.95911e-22)
(-0.00704094 2.94854 -1.95119e-18)
(0.857626 1.13477 7.53365e-19)
(0.512672 0.243071 -7.98623e-21)
(0.999907 -0.000285706 0)
(0.0741565 1.39261 0)
(-0.0133758 1.45499 0)
(0.852285 -0.0054292 0)
(0.0100599 2.93145 0)
(0.0018405 2.79384 0)
(-0.00276467 3.19904 1.14496e-18)
(-0.00236344 1.55613 -1.50693e-20)
(0.608706 0.10772 4.89308e-19)
(0.267561 1.44953 5.38232e-19)
(0.966804 0.0129417 0)
(0.00323606 1.54356 0)
(0.20841 0.29117 -4.34197e-19)
(1.00127 -0.00446021 0)
(0.999728 -0.00929018 0)
(0.974414 -0.00692795 0)
(0.775431 -0.014901 0)
(0.0247891 2.6342 0)
(-0.0130848 2.91147 6.7056e-19)
(-0.00881369 1.68962 0)
(-0.0108353 1.76866 0)
(-0.00894941 1.68749 0)
(0.00309608 1.80095 0)
(0.00113348 1.65167 2.34269e-22)
(0.00154886 1.56489 0)
(-0.0221846 2.98756 -6.85109e-23)
(-0.0165577 3.00552 1.51718e-18)
(0.00228969 3.00068 0)
(0.891993 -0.00575179 0)
(0.339284 0.894745 -2.77329e-20)
(0.83501 1.16553 -1.10941e-18)
(0.984844 1.00437 1.02794e-18)
(0.701843 1.25687 -1.72464e-19)
(0.70382 1.24402 9.56261e-19)
(0.555588 0.307238 7.79135e-21)
(0.547069 0.206695 0)
(1.2072 0.557686 0)
(0.502264 0.327859 3.5725e-20)
(0.478506 0.246952 -3.70665e-20)
(0.920494 -0.0012203 0)
(1.00042 0.000305025 0)
(0.999973 0.000314228 0)
(1.00467 -0.0074829 0)
(1.00051 -0.00046717 0)
(1.00008 -4.50703e-05 0)
(0.042985 1.58457 -5.89941e-19)
(0.0372823 1.54629 0)
(0.113917 1.43165 0)
(0.0269472 1.56119 0)
(0.0402778 1.4034 0)
(0.000782606 1.60501 0)
(-0.0204832 1.57401 0)
(-0.0127674 1.43709 0)
(-0.0187474 1.60473 0)
(-0.0130842 1.48232 0)
(0.922562 0.00654055 0)
(0.917767 0.00395511 0)
(0.863294 -0.00205592 0)
(0.912483 0.00954116 0)
(0.834097 0.00166485 0)
(0.0140054 3.00014 7.15139e-19)
(0.011283 3.00559 0)
(0.00648793 3.00401 0)
(0.0119789 2.99692 7.98732e-24)
(0.00826775 2.95872 -1.06287e-18)
(0.0123901 2.983 0)
(0.00912311 2.90442 0)
(0.021905 2.93061 1.45889e-24)
(0.00326859 2.82398 0)
(0.0278628 2.91777 0)
(-0.00232946 2.74322 0)
(0.306718 3.59469 0)
(-0.122935 3.67815 0)
(0.149605 3.28838 -1.06565e-18)
(0.00512745 3.02096 0)
(0.00975951 1.7674 0)
(-0.0032478 1.65468 1.48666e-20)
(-0.00135194 1.55885 -2.83921e-20)
(0.680125 0.155648 -1.67597e-19)
(0.632028 0.053752 -1.59354e-19)
(0.641569 0.194429 -5.0168e-19)
(0.604145 0.131832 -3.35543e-19)
(0.264823 1.22876 0)
(0.20869 1.46696 -5.93996e-19)
(0.394911 1.35728 9.87144e-19)
(0.989342 0.0125179 0)
(0.948521 0.0126539 0)
(1.00026 0.000928493 0)
(1.00225 0.00961685 0)
(1.00294 0.0113061 -7.8371e-19)
(0.99161 0.00824502 5.93469e-19)
(-0.000709854 1.64362 0)
(0.0043017 1.54986 0)
(-0.0108262 1.69939 0)
(-0.00571673 1.65783 0)
(0.00135739 1.55141 0)
(0.278381 0.307446 1.33229e-19)
(0.317445 0.282582 0)
(0.991948 -0.00692129 0)
(0.95507 -0.00288034 0)
(0.884325 0.0292323 0)
(0.851256 0.0336481 0)
(0.805381 0.010706 0)
(1.04366 0.00768254 0)
(0.810777 0.0191372 0)
(0.705793 -0.0371815 6.20814e-19)
(-0.0376657 2.86487 3.78564e-19)
(0.0364834 2.912 0)
(0.0468084 2.88843 0)
(0.00166277 2.69767 0)
(-0.00847854 2.98569 6.25244e-19)
(-0.0146466 2.89518 0)
(-0.0111306 2.99119 -1.95896e-18)
(-0.0121818 2.92933 6.71698e-19)
(-0.00685569 1.8068 0)
(-0.00319491 1.80118 0)
(5.02113e-05 1.66158 -3.55308e-22)
(0.000508124 1.64969 0)
(0.00065432 1.55379 0)
(0.945865 0.00056075 0)
(0.890801 0.00459823 0)
(0.876793 -0.00316234 0)
(0.94707 -0.00219907 0)
(0.892893 -0.00194851 0)
(0.476466 1.08243 2.29807e-20)
(0.519647 1.15768 0)
(0.275114 0.821513 5.80506e-21)
(0.228335 0.693294 0)
(0.951178 1.0482 -3.01752e-19)
(1.08491 0.855739 6.17493e-19)
(0.365125 1.38129 0)
(0.557042 1.32394 0)
(0.584392 1.28225 0)
(0.149228 -0.0687084 -7.96279e-20)
(0.585887 0.289709 0)
(0.577995 0.199303 9.83681e-20)
(1.04688 0.909266 0)
(1.12557 0.751543 0)
(1.15746 0.692666 -5.42212e-19)
(1.1994 0.602772 0)
(1.25234 0.41053 5.24168e-20)
(0.953415 -0.000911048 0)
(0.957437 -0.00455553 0)
(0.907966 -0.00330335 0)
(0.985749 -0.00433947 0)
(0.973906 -0.00186874 0)
(0.941496 -0.00144975 0)
(1.00071 0.00300444 0)
(1.00046 0.00110387 0)
(0.99995 0.000589005 0)
(0.0290674 1.66353 3.23258e-19)
(0.078691 1.54974 0)
(0.00726187 1.69627 5.10858e-19)
(0.016538 1.59014 -4.3369e-19)
(0.0670823 1.51112 -4.49914e-19)
(0.0459817 1.55661 0)
(0.139163 1.42855 0)
(0.00243321 1.55872 0)
(0.0203281 1.37883 0)
(-0.000174406 1.68412 -1.24818e-21)
(0.00736467 1.60352 0)
(-0.00679486 1.69148 -6.48951e-20)
(-0.00923947 1.59806 1.23024e-19)
(0.000568109 1.55565 0)
(-0.0181426 1.5628 0)
(0.000679794 1.40283 0)
(-0.01664 1.62668 0)
(-0.00840029 1.50449 0)
(0.984272 0.0183772 0)
(0.941703 0.00959925 0)
(0.968686 0.00998077 0)
(0.91386 0.00426797 0)
(0.869339 -0.00636854 0)
(0.935972 0.00379411 0)
(0.929713 0.00969346 0)
(0.866383 0.00408457 0)
(0.0107823 3.06653 -6.28177e-21)
(0.0145455 3.05926 0)
(0.0127778 2.97001 0)
(0.00806982 2.87584 0)
(0.889053 3.98733 0)
(1.18104 3.37433 1.01673e-18)
(0.0820445 3.10285 0)
(-0.0171055 2.92487 0)
(-0.00494467 1.796 0)
(0.00292818 1.77227 0)
(0.00380768 1.77631 0)
(0.00388147 1.78518 2.75711e-21)
(0.00877297 1.7704 0)
(0.00952714 1.77644 0)
(-0.00240663 1.56543 5.14247e-21)
(-0.00300445 1.67247 3.60175e-20)
(-0.00118202 1.66423 2.9001e-20)
(-0.00371986 1.56201 0)
(0.69664 0.124617 2.41143e-19)
(0.667311 0.0494542 -2.34081e-19)
(0.222464 1.3296 0)
(0.325204 1.05698 -2.71143e-19)
(0.161044 1.44209 -7.99736e-19)
(0.201752 1.36335 7.99495e-19)
(0.909725 0.0142297 0)
(0.971965 0.0189961 0)
(0.977813 0.0131023 0)
(0.933563 0.0152638 0)
(-0.0142447 1.63677 0)
(-0.00243886 1.64355 0)
(-0.000578916 1.52638 0)
(0.462142 0.349866 3.26913e-19)
(0.395335 0.322927 -4.00412e-19)
(0.40205 0.251547 0)
(1.16309 0.0876863 -1.05234e-20)
(1.15052 0.0354181 0)
(1.07392 0.0399291 0)
(0.988721 -0.00328553 0)
(0.723254 0.0970544 0)
(0.760769 0.0449175 -1.00849e-18)
(0.681758 0.028876 3.95519e-19)
(0.0118283 2.97891 4.66396e-19)
(-0.0319859 2.86439 4.72665e-20)
(0.0088301 3.05307 -1.34829e-20)
(0.0150091 3.0439 5.15505e-19)
(-0.0120994 2.99984 2.23461e-20)
(-0.0122097 2.95215 -9.08959e-23)
(-0.0150877 3.01343 -4.29571e-19)
(0.0135989 3.02726 2.9977e-19)
(0.00736222 3.03417 -4.79843e-19)
(0.965006 0.00795004 0)
(0.958142 0.00724943 0)
(0.900041 0.00615232 0)
(0.959217 0.0158872 0)
(0.943734 0.0121555 0)
(0.880499 0.0131074 0)
(0.937393 -0.0036656 0)
(0.934446 -0.00324924 0)
(0.869228 -0.0110668 0)
(0.648988 1.38731 2.89515e-19)
(0.669299 1.503 0)
(0.197549 0.154131 -5.23035e-21)
(0.132045 0.414439 7.59654e-20)
(0.167799 0.603567 -8.51431e-20)
(0.221184 0.479876 1.87921e-19)
(0.414867 0.608453 6.26821e-19)
(0.191309 0.105425 2.92919e-19)
(0.638084 0.220099 3.65391e-19)
(0.615293 0.254998 8.92755e-20)
(0.594084 0.156183 1.87731e-19)
(1.23863 0.458395 3.57181e-19)
(1.26572 0.248409 3.74377e-19)
(-0.00801241 1.69609 2.02239e-19)
(0.00117762 1.58524 0)
(1.02703 0.0227566 0)
(1.00216 0.01475 0)
(0.958821 -0.00406383 0)
(0.0117705 3.07378 0)
(0.0174479 2.94297 8.54315e-19)
(0.0144536 2.95595 0)
(0.00583616 2.84909 -8.4805e-19)
(0.00828949 3.08942 2.04504e-19)
(0.0121887 3.0819 0)
(0.685826 1.80468 -2.4534e-19)
(1.22187 2.62443 8.16139e-19)
(0.672829 1.98717 -1.63669e-18)
(0.0236516 2.98166 -3.49878e-19)
(0.0425369 3.00827 0)
(-0.0350543 2.88459 0)
(-0.0110624 1.67439 -8.99163e-21)
(-0.00316666 1.6745 -8.5314e-20)
(-0.00492806 1.57948 -5.53415e-21)
(0.272507 1.23082 8.62798e-19)
(0.350689 0.892442 -5.82555e-19)
(0.0484496 1.62166 5.43338e-19)
(0.0892629 1.55067 -6.52939e-19)
(0.129916 1.46651 7.44272e-20)
(0.00563246 3.12064 -1.07388e-18)
(0.013491 3.12096 1.18049e-18)
(-0.00447864 2.98069 5.53844e-19)
(-0.000560025 2.97627 -5.00194e-19)
(-0.0172836 2.87899 -5.64103e-19)
(0.0124863 3.09987 -1.49452e-18)
(0.00532189 3.10494 1.50946e-18)
(0.33585 0.505289 0)
(0.154097 0.413703 2.92169e-19)
(0.141504 -0.140618 -1.17338e-19)
(0.414641 0.785947 8.05597e-19)
(0.343565 0.392479 -1.23375e-18)
(1.24311 0.173555 -8.29636e-20)
(1.26005 0.309354 0)
(1.23997 0.121105 1.5125e-19)
(0.00125929 1.68217 -1.62573e-21)
(-0.00696864 1.68052 0)
(0.00324793 1.58369 0)
(0.307203 1.07907 -3.06227e-19)
(0.363807 0.955543 -6.69367e-19)
(0.341975 0.671843 1.14099e-18)
(1.00377 -0.00821583 0)
(1.00631 -0.00745126 1.41896e-19)
(-0.00602259 1.80201 0)
(-0.00998163 1.80733 0)
(1.0032 0.00287618 1.02966e-21)
(1.00393 0.00767111 2.94129e-19)
(0.00355456 1.78727 -3.62866e-21)
(0.00156846 1.78708 0)
(0.0456071 3.18542 1.6377e-19)
(0.381387 3.56317 0)
(1.0787 0.685369 9.24745e-20)
(1.00934 0.0059434 -2.335e-21)
(1.00669 -0.0181893 0)
(1.00083 0.000189675 2.53883e-22)
(-0.0267654 1.74339 0)
(0.0280491 1.84996 0)
(-0.0262135 1.78976 0)
(0.0115365 1.80201 9.03664e-20)
(-0.00971571 1.8017 4.13356e-20)
(1.00464 0.00860434 2.29207e-21)
(1.04551 0.0156845 0)
(1.07641 0.0249922 0)
(-0.00449259 1.77796 0)
(-0.00400802 1.79496 0)
(-0.00756853 1.79413 0)
(0.00116307 1.54448 -3.94637e-19)
(1.01245 -0.0107287 0)
(1.01359 -0.016851 0)
(1.00434 -0.000479427 1.79522e-19)
(1.0048 -0.00538131 -2.16132e-19)
(1.00131 -0.00189056 0)
(-0.0102786 1.78563 0)
(-0.00450089 1.79782 0)
(-0.00656802 1.79223 0)
(-0.00645961 1.79724 0)
(-0.00641172 1.79529 0)
(-0.00722953 1.7973 0)
(1.02093 0.0116595 0)
(1.02423 0.00417372 -7.62197e-22)
(0.729817 1.25993 5.43177e-19)
(1.00201 -0.000685891 -1.7695e-19)
(1.00317 0.0031175 2.18198e-19)
(1.00102 0.00174995 0)
(1.00881 0.00752071 1.72344e-19)
(1.00786 0.00794726 -2.1543e-19)
(1.00787 0.00614461 0)
(-0.00238037 1.79497 0)
(0.00272666 1.78821 1.46232e-20)
(0.00328057 1.78941 -1.13846e-20)
(1.17002 0.267394 -1.89656e-19)
(1.11044 0.0809199 0)
(0.0591032 3.08929 -5.54286e-19)
(0.056515 2.86396 -4.27348e-20)
(0.12056 3.20539 6.95852e-19)
(0.131836 3.21912 -5.75079e-20)
(0.150013 3.27094 0)
(0.0251456 3.13974 1.32457e-19)
(0.0718913 3.1639 5.48114e-19)
(0.0704855 3.18577 -2.52549e-19)
(0.0305137 3.12759 0)
(0.705658 0.357892 0)
(0.61 0.399473 0)
(1.07976 0.724845 -3.2621e-19)
(1.02421 0.86864 4.75672e-19)
(1.10499 0.582805 0)
(1.13781 0.553516 0)
(1.01063 0.00644067 -3.35129e-19)
(1.00818 0.00706031 4.12715e-19)
(1.00763 -0.0183901 0)
(1.00791 -0.0158477 0)
(1.01391 -0.00617047 0)
(1.01488 0.00191657 0)
(1.00401 0.00337141 0)
(1.00903 0.00790455 0)
(1.00747 0.00452669 0)
(1.00461 0.0049924 0)
(-0.0172626 1.75799 0)
(-0.0217115 1.77413 0)
(-0.0361554 1.73856 0)
(-0.0619163 1.70921 0)
(0.0281808 1.85474 0)
(0.0569607 1.8534 -3.38741e-19)
(0.00782976 1.85063 0)
(-0.000400853 1.83547 1.55866e-19)
(-0.00580741 1.81721 -1.68359e-19)
(-0.0264177 1.79181 0)
(-0.0222487 1.79255 0)
(-0.0231188 1.79287 0)
(-0.0193513 1.79521 0)
(-0.00745416 1.80148 -4.68372e-20)
(-0.00951586 1.802 5.66411e-20)
(0.00336982 1.80748 7.47108e-20)
(-0.00451696 1.80255 0)
(-0.00783201 1.80515 -9.46e-20)
(-0.00662252 1.80297 -5.41889e-20)
(-0.00635645 1.80231 3.87004e-20)
(-0.0100442 1.79983 -7.74491e-20)
(-0.00806804 1.80384 -9.2588e-20)
(1.01043 0.0143852 3.04113e-19)
(1.00844 0.00314185 -3.8913e-19)
(1.00635 0.0207497 -3.25045e-19)
(0.990469 0.02244 4.14081e-19)
(1.03949 0.0166832 0)
(1.04348 0.00958559 0)
(1.0636 0.0331978 0)
(1.04566 0.0154479 0)
(1.06111 0.0100215 0)
(1.0989 0.0621433 0)
(1.07662 0.0452764 0)
(1.09975 0.0429207 0)
(0.00302462 1.77688 -1.39298e-21)
(-0.00525772 1.77139 0)
(0.000614745 1.7728 0)
(-0.00540116 1.79746 1.58652e-20)
(-0.00446664 1.79612 -8.01363e-22)
(-0.0125173 1.77797 1.60556e-20)
(-0.00999644 1.78503 -1.58537e-20)
(-0.00914454 1.79473 0)
(-0.00846055 1.79588 0)
(-0.00938038 1.79612 0)
(-0.00787155 1.79423 0)
(-0.00948181 1.79641 0)
(0.122866 1.45296 7.76838e-19)
(0.234767 1.39741 3.05447e-19)
(0.40679 1.88273 -2.05192e-19)
(0.252357 1.80231 5.30242e-19)
(-0.0784549 2.28526 8.5315e-20)
(1.0082 -0.0180959 0)
(1.01383 -0.016384 0)
(1.0104 -0.0207343 0)
(1.01088 -0.00545558 0)
(1.00494 -0.0022641 0)
(1.00467 -0.00455609 0)
(1.00828 -0.00617688 0)
(1.00711 -0.0108835 0)
(1.02516 0.00394424 2.92136e-19)
(1.0237 0.00618861 -3.87261e-19)
(1.02378 0.00387898 -2.82211e-19)
(1.02039 0.00462664 3.57402e-19)
(0.740533 1.27157 0)
(0.591692 1.32326 6.58009e-19)
(0.837568 1.17291 4.01889e-19)
(0.870931 1.16525 -5.35643e-19)
(1.14658 2.58447 -4.74238e-19)
(0.809257 0.121121 2.43936e-19)
(1.11371 0.0902674 0)
(1.16869 0.183637 1.62776e-19)
(1.15479 0.146014 7.74655e-21)
(0.972863 0.136308 0)
(0.118491 3.03373 -1.15541e-19)
(0.107614 2.9021 -6.27856e-19)
(0.0562107 2.34276 4.31854e-19)
(0.172619 0.113447 -1.94539e-19)
(0.343355 3.46155 -4.96182e-19)
(0.197063 3.34752 0)
(0.22955 3.41696 6.46341e-19)
(0.237753 3.08797 -1.21861e-19)
(0.287329 3.21651 0)
(0.00788061 3.12156 2.93308e-20)
(0.0189639 3.13081 -3.61754e-19)
(0.0175266 3.12658 5.32464e-19)
(0.0380796 3.13995 0)
(0.0363649 3.15174 0)
(1.22899 2.56501 0)
(0.501004 0.830922 -1.85477e-19)
(0.964701 1.03617 -2.28577e-19)
(0.969508 1.05691 0)
(0.847964 0.922075 8.69482e-20)
(1.01587 0.886352 2.96165e-20)
(0.442902 0.468029 -4.76938e-19)
(0.730437 0.341271 -2.46852e-20)
(0.739768 0.293329 1.91415e-19)
(0.609682 0.431597 1.5338e-20)
(0.557072 0.432316 -6.32548e-19)
(0.704596 0.370674 0)
(0.66336 0.436245 3.18914e-19)
(0.674382 0.442577 0)
(0.664842 0.40414 0)
(0.676413 0.36148 0)
(0.717677 0.62796 8.26936e-20)
(1.1636 0.27184 1.30856e-19)
(1.16658 0.414849 0)
(1.17257 0.392649 0)
(0.794153 0.219261 2.84312e-19)
(0.777663 0.533988 -1.49376e-19)
(0.697385 0.493548 2.40191e-19)
(0.866958 0.418158 -2.01816e-19)
(1.01958 0.00958529 2.09079e-19)
(1.01256 0.00962846 -2.17294e-19)
(1.0142 0.0126068 0)
(1.01806 0.00954421 0)
(1.0099 -0.00642648 -1.86588e-19)
(1.00694 -0.0060265 1.86878e-19)
(1.025 0.00749817 0)
(1.02304 0.00481314 0)
(1.01754 0.00574302 0)
(1.02033 0.0116624 0)
(1.02834 0.00409054 0)
(1.02115 0.001335 0)
(-0.0183078 1.78205 0)
(-0.0146255 1.78278 0)
(-0.0510383 1.75486 6.42643e-20)
(-0.018243 1.59367 1.69055e-19)
(-0.0533956 1.70177 3.33094e-19)
(-0.0590714 1.64495 -5.59371e-19)
(-0.0886807 1.74496 0)
(-0.0780163 1.84294 -9.67737e-20)
(-0.0488398 1.83329 0)
(-0.040516 2.23879 -1.18289e-19)
(0.071271 2.09321 4.80496e-19)
(-0.111906 1.86702 8.6745e-20)
(-0.119397 1.65236 1.07058e-19)
(-0.11387 1.71865 -8.56202e-20)
(-0.171357 1.65237 2.00042e-19)
(-0.10811 1.94005 0)
(-0.120294 1.97372 -9.10412e-20)
(-0.0199354 1.81116 -4.25098e-20)
(-0.0159457 1.81857 0)
(-0.0184159 1.80536 1.89347e-19)
(-0.0210227 1.80922 0)
(-0.00700822 1.83019 -1.71799e-19)
(-0.0101818 1.82469 0)
(-0.0115084 1.79429 -3.62654e-20)
(-0.00298956 1.79793 0)
(-0.00760507 1.80191 0)
(-0.0130694 1.79513 4.07537e-20)
(0.00501232 1.80808 3.82748e-22)
(0.00013173 1.81858 2.03159e-19)
(0.0108644 1.81116 1.31933e-21)
(-0.0121978 1.79128 3.17677e-20)
(-0.0121569 1.79219 1.9146e-20)
(-0.0209296 1.79621 0)
(-0.0171598 1.7975 0)
(-0.00724123 1.79418 1.04879e-19)
(-0.00185698 1.79637 6.61564e-20)
(-0.00264882 1.79585 -9.50318e-20)
(-0.0148466 1.80074 0)
(-0.00940727 1.7872 -5.55198e-20)
(-0.00822908 1.79637 2.4887e-20)
(-0.00934337 1.79626 -7.80803e-21)
(-0.0107482 1.79143 -3.94796e-20)
(-0.00621209 1.80001 -1.33936e-20)
(-0.00751422 1.80213 6.40852e-20)
(1.01906 0.00647846 -1.94899e-19)
(1.01171 0.00761786 2.02878e-19)
(1.012 0.00443605 0)
(0.993136 0.0487167 2.91546e-19)
(0.988623 0.0293608 -3.56113e-19)
(0.965488 0.0298314 4.1486e-19)
(0.988902 0.0954616 -3.82578e-20)
(1.02547 0.00918951 0)
(1.03575 0.0104322 1.58848e-19)
(1.03586 0.00597681 -1.57597e-19)
(1.03261 0.037109 -8.37272e-21)
(1.032 0.0241618 7.46364e-20)
(1.00788 0.0435361 0)
(1.00031 0.0401723 -2.92245e-20)
(1.00808 0.0218465 0)
(1.01559 0.0157522 0)
(1.02296 0.00895365 0)
(1.02067 0.00558029 0)
(1.01312 0.021765 6.01861e-20)
(1.02137 0.0138438 -1.39224e-19)
(1.02018 0.0355087 -5.91257e-20)
(1.01211 0.0384938 -7.12415e-20)
(1.00782 0.0424795 1.13898e-19)
(1.04597 0.0446738 0)
(1.04189 0.08263 0)
(-0.00975845 1.78729 -2.04707e-20)
(-0.0108604 1.77822 -1.76526e-21)
(-0.0100992 1.77985 0)
(-0.00330088 1.79032 2.1672e-20)
(-0.00577859 1.7856 2.98865e-21)
(-0.00297687 1.78935 -3.6231e-21)
(-0.00567895 1.80288 4.74406e-20)
(-0.00676577 1.80014 -2.92575e-21)
(-0.00619917 1.79928 1.37759e-20)
(-0.00428471 1.80023 -2.47315e-20)
(-0.00429977 1.80047 2.89656e-20)
(-0.0119607 1.78588 5.21783e-22)
(-0.014087 1.77946 2.48662e-20)
(0.00828833 1.37843 -3.94544e-19)
(-0.143626 1.67622 -4.26294e-19)
(0.60052 1.29911 -6.31791e-19)
(0.402365 1.30826 -2.93465e-19)
(0.472324 1.34176 0)
(0.436608 1.94841 2.1596e-19)
(0.590096 1.79238 3.11983e-19)
(0.291331 1.80745 8.10112e-20)
(0.250123 2.01336 -5.46738e-19)
(0.264739 2.11461 5.73364e-19)
(0.388045 1.85984 0)
(0.345662 1.79804 -4.64133e-19)
(0.0915644 1.84153 8.83245e-19)
(0.191771 1.81769 -6.58175e-20)
(0.121356 1.8101 -1.20082e-18)
(0.918435 2.44785 -2.65237e-19)
(0.783652 2.21618 0)
(1.01269 -0.0146994 7.04558e-21)
(1.00793 -0.0138025 -5.7109e-21)
(1.00577 -0.0129341 -9.9014e-20)
(1.02005 -0.0137575 1.00503e-19)
(1.02462 -0.0139177 0)
(0.73169 1.12241 0)
(0.745443 1.10128 0)
(0.760611 1.08752 0)
(0.703201 1.13246 0)
(1.16293 2.62227 2.92807e-20)
(1.04972 2.31402 0)
(1.04613 2.31074 -2.80312e-21)
(0.775449 2.67519 0)
(1.02497 2.67961 1.49432e-19)
(1.04073 2.62213 -9.84002e-20)
(0.822153 0.1455 0)
(0.803318 0.157582 7.10616e-20)
(0.880018 0.125784 3.48126e-19)
(0.845479 0.101578 -1.46497e-19)
(0.858324 0.0724248 -4.1294e-19)
(1.00604 0.215018 -1.49652e-19)
(0.91946 0.249436 -1.23828e-20)
(0.905723 0.270169 2.979e-19)
(0.95849 0.180321 2.06213e-19)
(0.901569 0.168661 -4.23702e-19)
(0.879341 0.173361 5.68042e-20)
(0.938648 0.238314 -9.72387e-20)
(0.89992 0.186338 0)
(0.976462 0.161179 1.98228e-19)
(0.9994 0.178371 0)
(0.997029 0.185225 0)
(1.04287 0.0991511 4.41127e-20)
(1.01162 0.16203 -1.1013e-20)
(0.999587 0.225752 -2.73625e-20)
(1.04085 0.195794 0)
(1.00673 0.0258569 1.48924e-19)
(1.00435 0.0343093 1.71221e-19)
(1.00925 0.0303176 -1.47206e-19)
(1.00972 0.038505 -1.14957e-19)
(1.00193 0.0526523 -2.06038e-19)
(0.951577 0.132581 0)
(0.987901 0.0926548 0)
(0.963065 0.0404984 -1.50722e-19)
(0.922983 0.0556556 6.67004e-20)
(1.00732 0.0850443 1.67827e-19)
(1.00562 0.0993027 -1.47809e-19)
(1.01584 0.147578 1.42023e-19)
(1.01362 0.134496 0)
(1.02066 0.0793177 0)
(1.00887 0.0717449 -6.36761e-20)
(1.01425 0.0696409 -1.3038e-19)
(0.696361 1.20464 -6.57108e-20)
(0.656587 1.45719 8.87783e-20)
(1.09969 2.74142 3.81381e-20)
(1.17148 3.12818 -7.1652e-20)
(1.22874 2.72217 5.01599e-19)
(1.26875 2.69351 -2.74128e-19)
(1.24192 2.29314 -3.26334e-20)
(1.15824 3.02303 1.95908e-19)
(1.1809 2.97121 -1.81599e-19)
(1.15355 3.27683 -2.45594e-19)
(1.37582 2.97519 3.04652e-19)
(1.38759 2.9126 0)
(0.495316 0.865802 -8.57544e-21)
(0.259053 1.28485 2.52633e-19)
(0.484407 0.542795 3.0745e-19)
(0.348309 0.331152 3.65942e-19)
(0.559357 0.447845 3.49994e-19)
(0.536433 0.510469 -5.50752e-19)
(0.535078 0.507366 4.60362e-19)
(0.521571 0.466746 -1.85465e-19)
(0.506145 0.424654 4.26014e-19)
(0.786526 0.256292 -1.55168e-19)
(0.756743 0.286761 0)
(0.759358 0.260919 1.24379e-20)
(0.676159 0.524281 1.61772e-19)
(0.642032 0.485078 -5.99427e-19)
(0.609968 0.501168 2.24948e-20)
(0.625102 0.460152 0)
(0.661189 0.724624 1.00192e-19)
(0.754012 0.752815 2.42835e-20)
(0.708269 0.788533 -3.6258e-20)
(0.787857 0.791234 3.38278e-21)
(0.882874 0.824142 2.22016e-20)
(0.888836 0.838047 -2.2728e-20)
(0.789164 0.627545 -1.46231e-19)
(0.86236 0.715612 -3.15259e-21)
(0.929213 0.712357 0)
(0.934738 0.683438 1.9735e-20)
(0.954096 0.293506 3.86781e-20)
(1.07783 0.267984 -3.84841e-20)
(0.993699 0.236685 6.11598e-20)
(0.927976 0.334913 -9.5422e-20)
(0.960934 0.430883 0)
(1.04873 0.384036 0)
(0.815513 0.370024 2.05261e-21)
(0.842966 0.277316 0)
(0.839295 0.253537 1.64735e-19)
(0.874806 0.268358 6.6888e-21)
(0.868438 0.428431 5.51389e-19)
(0.823235 0.488549 1.31621e-19)
(0.823187 0.445314 -1.92524e-19)
(0.755945 0.426405 2.05569e-19)
(0.738751 0.435818 1.49184e-19)
(0.717614 0.440778 -1.46253e-19)
(1.02121 0.012559 1.63004e-19)
(1.03014 0.00219502 0)
(1.02702 -0.000919573 1.10588e-19)
(1.01574 0.00319079 -2.46015e-19)
(1.03315 0.00638649 1.16159e-19)
(1.02989 0.00651943 -2.45461e-19)
(1.02565 0.00639705 0)
(1.02208 0.00756692 -5.12744e-20)
(1.02945 0.00468776 1.28795e-19)
(1.02479 0.00893692 -6.74007e-20)
(1.02318 0.00946361 4.85278e-20)
(-0.00576826 1.79979 0)
(-0.00876382 1.80171 0)
(-0.00493568 1.79415 0)
(-0.00247549 1.79508 0)
(-0.036469 1.78724 -2.27486e-20)
(-0.0342925 1.77276 7.23684e-21)
(-0.0577334 1.82481 -3.30129e-20)
(-0.0650098 1.77305 -5.25693e-20)
(-0.00781534 1.79979 -5.44041e-20)
(-0.0183627 1.79699 3.89197e-20)
(-0.0257051 1.79396 -6.60468e-21)
(-0.0140385 1.80772 1.23995e-20)
(-0.00848737 1.80472 1.28599e-21)
(-0.00707635 1.80423 -4.56966e-21)
(-0.0186614 1.81254 -2.10691e-19)
(-0.00737064 1.82857 0)
(-0.0219769 1.81831 1.17691e-19)
(-0.0278526 1.82073 7.89929e-20)
(-0.0140004 1.946 -8.23133e-20)
(0.0816095 1.90274 0)
(0.0670173 1.9417 -5.35422e-19)
(0.0858796 2.01732 3.73658e-19)
(0.00531499 1.88248 -2.31559e-19)
(-0.0188178 1.84584 1.29479e-19)
(-0.00371373 1.85553 0)
(-0.00683795 1.7983 -1.33867e-19)
(-0.00575623 1.80241 -1.77999e-19)
(-0.00521038 1.80093 0)
(-0.00330562 1.81051 -4.9117e-21)
(-0.0150028 1.81097 6.8327e-20)
(-0.0224958 1.79128 5.20726e-21)
(-0.0234895 1.79093 -9.47229e-20)
(-0.0222252 1.78386 2.11574e-20)
(-0.0187153 1.78093 3.74725e-20)
(-0.0145595 1.79467 0)
(-0.0175248 1.78313 0)
(-0.0111959 1.79632 2.81803e-20)
(-0.0104029 1.78234 -8.89151e-21)
(-0.0164403 1.78281 0)
(-0.0161583 1.79815 2.25385e-20)
(-0.0127676 1.79829 -4.25029e-20)
(1.02209 0.0184592 0)
(1.02352 0.0168406 -1.48461e-20)
(1.02027 0.0126002 -1.09808e-19)
(1.02283 0.0184354 0)
(1.02293 0.0238033 0)
(1.02298 0.00676081 -5.93313e-21)
(1.02315 0.00765725 1.86556e-19)
(1.02005 0.00791339 2.2685e-19)
(1.01977 0.00805634 0)
(1.01855 0.00757837 0)
(1.01925 0.0118698 1.13642e-19)
(1.01778 0.0103189 0)
(1.01919 0.0102562 0)
(-0.0122911 1.78878 0)
(-0.0135683 1.77797 2.34592e-21)
(-0.0135847 1.78003 1.2858e-20)
(-0.0110106 1.78237 0)
(-0.012938 1.7808 1.85122e-20)
(-0.0100941 1.78359 -8.41267e-21)
(-0.00898244 1.78288 0)
(0.181465 2.40663 0)
(-0.235797 1.79732 9.20646e-19)
(-0.102878 2.17523 0)
(0.0778492 1.41041 -1.31172e-18)
(0.271801 1.09483 0)
(0.125048 1.30763 5.9806e-19)
(1.08901 2.82193 6.189e-21)
(0.953724 2.53613 3.29416e-19)
(0.814461 2.23577 -2.9887e-19)
(0.832244 2.3103 1.33433e-19)
(0.929439 2.64003 0)
(0.975048 2.58871 0)
(0.886182 2.40089 0)
(0.90931 2.27482 -4.11495e-19)
(0.406028 2.68937 2.7436e-20)
(0.742757 2.71683 1.68539e-20)
(0.757667 2.6725 -1.25046e-20)
(0.563261 2.03827 0)
(0.742937 2.18761 0)
(0.678205 2.00913 -2.93313e-19)
(0.582539 2.59693 0)
(0.633203 1.08421 0)
(0.492013 0.932822 -8.64751e-21)
(0.505776 0.971815 3.89811e-22)
(0.523799 1.09507 0)
(0.485798 1.09444 2.32208e-20)
(0.753996 0.852027 3.2285e-20)
(0.785465 0.992283 0)
(0.750774 0.942536 -1.05193e-19)
(0.61546 1.04623 0)
(0.606199 0.934718 0)
(1.15405 2.76891 4.54347e-20)
(1.12689 2.82363 5.18991e-20)
(0.988864 2.28781 -1.34915e-19)
(1.03553 2.30992 5.79061e-20)
(1.12889 2.7709 0)
(1.13809 2.75124 -7.16632e-20)
(1.05144 2.47967 -9.2871e-20)
(0.903046 2.15136 -2.27447e-20)
(0.817985 1.57553 0)
(0.755045 1.13524 5.78031e-20)
(0.734325 1.11725 0)
(0.846124 0.197395 0)
(0.817966 0.168965 0)
(0.785959 0.189741 0)
(0.842109 0.201362 -2.60605e-19)
(0.804974 0.208415 1.61963e-19)
(0.924125 0.054371 -1.32497e-19)
(0.923686 0.0971916 0)
(0.890649 0.104536 6.4484e-20)
(0.883191 0.0616128 2.53022e-19)
(0.89074 0.0570754 -1.57159e-19)
(1.07713 3.36565 -9.43993e-19)
(1.1409 3.2946 0)
(1.1051 3.45322 -2.05852e-18)
(0.647136 3.60254 1.73538e-18)
(1.00748 3.13243 4.80285e-19)
(0.510227 0.839406 1.48994e-19)
(0.442381 0.871207 0)
(0.386605 0.550192 -6.85587e-20)
(0.40223 0.680285 3.00515e-19)
(0.49597 0.530397 -9.82513e-20)
(0.490679 0.54514 1.07885e-19)
(0.60708 0.526762 2.18032e-19)
(0.62604 0.567038 0)
(0.585555 0.607588 0)
(0.53541 0.548118 0)
(0.919999 0.571874 -6.68731e-20)
(0.855669 0.526126 -1.25607e-19)
(0.888112 0.566728 2.29765e-20)
(0.907147 0.478127 -9.19458e-20)
(0.988373 0.465097 0)
(0.979755 0.563588 8.14121e-21)
(0.788152 0.378822 -3.23098e-19)
(0.799161 0.356034 -3.84283e-19)
(0.771062 0.40106 2.53121e-19)
(0.772675 0.353629 -3.03164e-19)
(0.831404 0.288193 -2.06755e-19)
(0.811642 0.290262 2.59886e-19)
(1.03138 0.00801146 -1.17157e-19)
(1.03054 0.0101922 2.42184e-19)
(1.02317 0.0157158 1.53114e-19)
(1.02604 0.017815 -1.80613e-19)
(1.02127 0.0220546 0)
(1.02462 0.00994644 -2.97481e-19)
(-0.0171889 1.80404 2.44446e-20)
(-0.0249118 1.80241 0)
(-0.0239593 1.80122 2.21497e-19)
(-0.0221848 1.81588 -2.08352e-19)
(-0.0466441 1.81779 6.07625e-20)
(-0.0421335 1.81094 0)
(-0.0116214 1.78789 0)
(-0.012595 1.78286 -1.02525e-20)
(-0.0132497 1.78001 8.78941e-21)
(-0.0125072 1.78035 1.66486e-21)
(-0.011563 1.78713 -1.83336e-20)
(-0.0113241 1.78865 1.13546e-20)
(0.800025 1.65307 1.02111e-18)
(0.622546 1.76046 -1.09234e-18)
(0.227725 1.40428 8.51102e-19)
(0.248406 1.95578 -5.89645e-20)
(0.733135 1.06346 0)
(0.467627 1.05732 6.8801e-19)
(0.54946 1.08628 -6.66598e-19)
(0.381628 0.949239 -8.33804e-19)
(0.709803 1.01363 0)
(0.755353 1.06986 0)
(0.281422 2.65035 -4.1503e-20)
(0.397641 2.45487 8.80995e-19)
(0.513979 2.52835 -5.89884e-19)
(0.33994 2.38585 -1.81862e-19)
(0.0986389 2.48878 2.52293e-19)
(0.198317 2.27325 -6.87769e-19)
(0.916659 2.42348 1.67799e-19)
(0.954725 2.38767 0)
(0.801535 2.12065 -9.28457e-20)
(1.07053 2.76552 0)
(1.06396 2.79294 0)
(0.593267 2.36348 3.66026e-19)
(1.10445 3.14071 4.46458e-19)
(0.981552 3.02944 -5.18579e-19)
(0.346719 0.970512 0)
(0.348963 0.863793 -1.03264e-19)
(0.517376 0.773996 -3.789e-20)
(0.368027 2.18942 0)
(0.433277 2.80612 -3.40855e-19)
(0.409952 2.53095 0)
(0.669232 0.670925 -2.0775e-19)
(0.722062 0.676777 2.90897e-19)
(0.717933 0.627408 -2.78552e-19)
(0.613263 0.635377 -3.42569e-20)
(0.660507 0.60109 -1.46989e-19)
(0.939406 2.82551 -3.38232e-19)
(1.00791 2.83773 2.58342e-19)
(0.527815 2.22588 -1.64239e-19)
(0.60658 1.84888 6.52222e-20)
(0.646047 1.93028 2.86247e-21)
(0.937418 2.47656 -1.21118e-19)
(0.954952 2.43818 -5.72869e-20)
(0.60532 1.85787 -7.4691e-22)
(0.421627 1.40609 -1.06417e-20)
)
;

boundaryField
{
    wall-4
    {
        type            noSlip;
    }
    velocity-inlet-5
    {
        type            fixedValue;
        value           uniform (1 0 0);
    }
    velocity-inlet-6
    {
        type            fixedValue;
        value           uniform (0 3 0);
    }
    pressure-outlet-7
    {
        type            zeroGradient;
    }
    wall-8
    {
        type            noSlip;
    }
    frontAndBackPlanes
    {
        type            empty;
    }
}


// ************************************************************************* //
