/*--------------------------------*- C++ -*----------------------------------*\
  =========                 |
  \\      /  F ield         | OpenFOAM: The Open Source CFD Toolbox
   \\    /   O peration     | Website:  https://openfoam.org
    \\  /    A nd           | Version:  6
     \\/     M anipulation  |
\*---------------------------------------------------------------------------*/
FoamFile
{
    version     2.0;
    format      ascii;
    class       volScalarField;
    location    "37";
    object      p;
}
// * * * * * * * * * * * * * * * * * * * * * * * * * * * * * * * * * * * * * //

dimensions      [0 2 -2 0 0 0 0];

internalField   nonuniform List<scalar> 
8800
(
0.963918
0.914605
0.876635
0.848551
0.828365
0.813741
0.803093
0.79549
0.790521
0.788334
0.789568
0.793795
0.8005
0.809858
0.82255
0.839841
0.863699
0.896784
0.939705
0.992233
0.798406
0.804749
0.813891
0.817424
0.814799
0.80869
0.801718
0.795425
0.790548
0.787574
0.78721
0.789702
0.794232
0.800278
0.807317
0.814306
0.819153
0.81901
0.812324
0.803419
0.771993
0.778225
0.782715
0.786567
0.789487
0.790398
0.789258
0.787066
0.784985
0.784013
0.784895
0.787219
0.790006
0.792202
0.792671
0.790846
0.787454
0.783418
0.778623
0.774903
0.76775
0.770511
0.773106
0.775247
0.776958
0.778486
0.779533
0.779803
0.779576
0.779524
0.780166
0.781168
0.781799
0.781562
0.780522
0.779117
0.777407
0.775075
0.772647
0.77108
0.762777
0.764199
0.766024
0.768082
0.769762
0.77101
0.772046
0.772934
0.773609
0.774169
0.774693
0.774998
0.774892
0.774424
0.773676
0.772499
0.770796
0.768867
0.767496
0.766693
0.757896
0.758796
0.760029
0.761631
0.763288
0.764768
0.76598
0.766996
0.767911
0.76873
0.769294
0.769489
0.769344
0.76885
0.767951
0.766686
0.765262
0.763951
0.76311
0.762587
0.753127
0.753781
0.754727
0.756019
0.757427
0.758886
0.760286
0.761531
0.762626
0.763598
0.764285
0.764544
0.764366
0.763776
0.762874
0.761832
0.76076
0.759798
0.759196
0.758815
0.748473
0.748976
0.749748
0.750861
0.752121
0.753479
0.7549
0.75631
0.75764
0.758832
0.759668
0.759977
0.759808
0.759286
0.758562
0.757743
0.756899
0.756166
0.755714
0.755419
0.743889
0.744288
0.744936
0.745932
0.747122
0.748427
0.74984
0.751341
0.752861
0.754291
0.755328
0.755772
0.755735
0.755385
0.754854
0.754219
0.75355
0.752991
0.752646
0.75241
0.7393
0.739625
0.740186
0.741106
0.742249
0.743535
0.744971
0.74655
0.748224
0.749901
0.751203
0.751893
0.752087
0.751949
0.751611
0.75116
0.750655
0.750238
0.749975
0.74978
0.734634
0.7349
0.735402
0.736278
0.737405
0.738711
0.740197
0.74188
0.743748
0.74571
0.74735
0.748355
0.748832
0.748946
0.748815
0.748542
0.748188
0.747892
0.747696
0.747533
0.729819
0.730041
0.730503
0.731363
0.732513
0.733882
0.735476
0.737325
0.739437
0.741752
0.743812
0.745209
0.746013
0.746389
0.746476
0.74638
0.746179
0.745988
0.745845
0.745705
0.724782
0.724966
0.72541
0.726289
0.727506
0.728989
0.73076
0.732871
0.735341
0.738127
0.740694
0.742525
0.743672
0.744322
0.744634
0.744716
0.744657
0.744561
0.744463
0.744342
0.719449
0.719603
0.720044
0.720967
0.722291
0.723929
0.725911
0.728332
0.731234
0.734594
0.737787
0.740164
0.741746
0.742744
0.74333
0.743611
0.743692
0.743686
0.74363
0.743524
0.713727
0.713853
0.714299
0.715284
0.716742
0.718578
0.720835
0.723628
0.727062
0.731133
0.735097
0.738131
0.740267
0.74169
0.742593
0.743128
0.743381
0.743472
0.743455
0.74336
0.707507
0.707603
0.708071
0.709149
0.71079
0.712898
0.715541
0.718853
0.722943
0.727861
0.732787
0.736677
0.739436
0.741328
0.74259
0.743381
0.74383
0.744026
0.744049
0.743962
0.700647
0.700727
0.701215
0.702408
0.704285
0.706737
0.709846
0.713816
0.718815
0.724881
0.730932
0.735729
0.73923
0.741708
0.743412
0.744527
0.74519
0.745498
0.745561
0.745481
0.692883
0.692952
0.693491
0.694829
0.696991
0.699845
0.703521
0.708246
0.714232
0.721599
0.729103
0.735168
0.739634
0.74285
0.745137
0.746679
0.74762
0.748068
0.748173
0.748095
0.684003
0.68405
0.684662
0.686185
0.688708
0.692108
0.696555
0.70234
0.709723
0.718797
0.727994
0.735431
0.740962
0.745018
0.747979
0.750016
0.751296
0.751906
0.752053
0.751972
0.673557
0.673593
0.674292
0.676066
0.679046
0.683139
0.688544
0.695615
0.704659
0.715797
0.727108
0.736274
0.743144
0.74823
0.752005
0.754653
0.756345
0.757141
0.757327
0.757234
0.66091
0.660947
0.661778
0.6639
0.667518
0.672556
0.679254
0.688036
0.699235
0.712933
0.726768
0.737936
0.746331
0.752608
0.757324
0.760689
0.762842
0.763836
0.764053
0.763941
0.645213
0.645257
0.646306
0.648977
0.653528
0.659899
0.668373
0.679427
0.693387
0.710253
0.727054
0.740538
0.750674
0.758299
0.764056
0.768214
0.770855
0.772041
0.772285
0.772148
0.625279
0.625341
0.626744
0.630277
0.636214
0.6445
0.655437
0.669522
0.686986
0.707678
0.727975
0.744103
0.756204
0.765339
0.772278
0.777296
0.780448
0.781819
0.782081
0.781917
0.599317
0.599425
0.60145
0.606419
0.614573
0.625739
0.640218
0.658392
0.680306
0.70558
0.729834
0.748868
0.763118
0.773911
0.782099
0.788056
0.791714
0.793247
0.793513
0.793319
0.564348
0.56461
0.56789
0.575486
0.587401
0.603039
0.622587
0.646144
0.673509
0.704081
0.732724
0.754915
0.771469
0.784042
0.793619
0.800557
0.804695
0.806339
0.806581
0.806353
0.514685
0.515857
0.522444
0.535421
0.553849
0.576381
0.602929
0.633291
0.667073
0.703561
0.736904
0.762385
0.781328
0.795733
0.806782
0.814732
0.819292
0.820969
0.821151
0.820881
0.441846
0.449393
0.464533
0.487354
0.51544
0.547139
0.582196
0.620389
0.661337
0.704341
0.742872
0.772031
0.793701
0.810296
0.823131
0.832205
0.83728
0.839092
0.839286
0.839058
0.364262
0.380449
0.405013
0.43837
0.476673
0.517718
0.561378
0.607656
0.656272
0.706649
0.751518
0.785495
0.810841
0.830399
0.845578
0.856177
0.861913
0.863875
0.864123
0.86404
0.297887
0.317712
0.350103
0.392438
0.439732
0.489562
0.541603
0.595809
0.651926
0.709407
0.760259
0.798736
0.827509
0.84974
0.866855
0.878539
0.884753
0.886994
0.887281
0.887262
0.243728
0.265714
0.303372
0.352138
0.406493
0.463675
0.523119
0.584597
0.647733
0.711905
0.768363
0.810928
0.842711
0.867042
0.885547
0.898354
0.905508
0.907892
0.908241
0.908283
0.198751
0.221957
0.263377
0.317144
0.377176
0.440436
0.506181
0.574087
0.643607
0.713968
0.775594
0.821846
0.856137
0.882206
0.901852
0.915573
0.923396
0.926138
0.926641
0.926726
0.160323
0.184254
0.228425
0.286232
0.351026
0.419467
0.490675
0.564269
0.639548
0.715588
0.781939
0.831493
0.867945
0.895403
0.915965
0.930326
0.938647
0.941815
0.942512
0.942616
0.126502
0.150921
0.197232
0.258345
0.32717
0.40011
0.476179
0.554896
0.635453
0.716744
0.787462
0.839965
0.878285
0.906854
0.928145
0.943018
0.951703
0.955198
0.956005
0.956099
0.0958541
0.120684
0.168737
0.232651
0.304922
0.381799
0.462228
0.545648
0.631116
0.717341
0.792175
0.847405
0.887369
0.916875
0.938699
0.953894
0.962804
0.966507
0.967382
0.967461
0.0674169
0.0926693
0.142187
0.20849
0.283749
0.364104
0.448476
0.536223
0.626313
0.717262
0.796067
0.853929
0.895447
0.92583
0.948113
0.963555
0.97261
0.976424
0.977313
0.977344
0.0404194
0.0661462
0.117017
0.18542
0.263272
0.346717
0.43466
0.526407
0.620857
0.716375
0.799112
0.859607
0.902698
0.933965
0.956705
0.972361
0.981478
0.985316
0.98625
0.986265
0.0145075
0.0406951
0.092795
0.163071
0.243221
0.329429
0.420615
0.516057
0.614615
0.714581
0.801273
0.864505
0.909282
0.941516
0.964758
0.980622
0.989756
0.993529
0.994431
0.994435
-0.0107287
0.01603
0.0692744
0.141221
0.223412
0.312098
0.406236
0.505082
0.60751
0.7118
0.802525
0.868683
0.915322
0.948655
0.972473
0.988564
0.997719
1.00142
1.00221
1.00215
-0.0353996
-0.00804931
0.0462813
0.119742
0.203751
0.294659
0.391471
0.493447
0.5995
0.707992
0.802846
0.872165
0.920903
0.95549
0.979973
0.996307
1.00542
1.00899
1.00966
1.00953
-0.0596115
-0.0316562
0.0237233
0.0985728
0.184205
0.277099
0.376316
0.481143
0.590574
0.703119
0.802172
0.87492
0.926044
0.962094
0.987324
1.00388
1.01287
1.01621
1.01674
1.01656
-0.0834282
-0.0548314
0.00158674
0.0776974
0.164768
0.259437
0.360808
0.468209
0.580746
0.697144
0.800418
0.876855
0.93074
0.968535
0.994603
1.01132
1.02007
1.02309
1.02346
1.02324
-0.106874
-0.0775576
-0.0201277
0.0571284
0.145486
0.241721
0.345004
0.454699
0.570048
0.690045
0.797499
0.877865
0.93494
0.974881
1.00194
1.01869
1.02697
1.02955
1.02975
1.0295
-0.129773
-0.0997813
-0.0413879
0.0369008
0.12641
0.22403
0.328978
0.440697
0.558549
0.681846
0.793349
0.877823
0.93851
0.981161
1.00955
1.02619
1.03362
1.03555
1.03554
1.03527
-0.152077
-0.121445
-0.0621481
0.0170787
0.107608
0.206431
0.312828
0.426291
0.546337
0.672584
0.787923
0.876574
0.941245
0.98729
1.01769
1.03429
1.04031
1.04107
1.04075
1.04051
-0.173833
-0.142502
-0.0823675
-0.0022893
0.0891497
0.189017
0.296653
0.411593
0.533516
0.662332
0.781175
0.873981
0.942885
0.992973
1.02649
1.04384
1.04806
1.0466
1.04539
1.04533
-0.194866
-0.162915
-0.10198
-0.0211289
0.071103
0.171877
0.280556
0.396721
0.52021
0.651201
0.773103
0.869908
0.943142
0.997669
1.03557
1.05555
1.05911
1.05464
1.05036
1.04836
-0.21526
-0.182676
-0.120984
-0.0394677
0.0534349
0.154966
0.26448
0.381612
0.506344
0.639119
0.763558
0.864091
0.941714
1.00071
1.04381
1.06898
1.0753
1.07014
1.05848
1.05656
-0.234923
-0.201853
-0.139515
-0.0575024
0.0358429
0.137931
0.247991
0.365752
0.491338
0.625413
0.751828
0.855687
0.937955
1.00112
1.04879
1.08031
1.09075
1.08256
1.06491
1.05879
-0.253711
-0.220394
-0.157398
-0.0750222
0.01858
0.121084
0.231314
0.349483
0.475513
0.610368
0.73805
0.844237
0.931276
0.997824
1.04575
1.07699
1.0916
1.07079
1.01113
0.98413
-0.271487
-0.23904
-0.174234
-0.0915022
0.00232414
0.104913
0.214721
0.333077
0.459154
0.594172
0.722328
0.829315
0.920924
0.990305
1.03058
1.05456
1.0533
1.00697
0.944585
0.906317
-0.315835
-0.25729
-0.18994
-0.107495
-0.0136924
0.0885155
0.19834
0.316419
0.442066
0.576509
0.704326
0.810525
0.903696
0.977586
1.00332
1.00186
0.966291
0.907986
0.840452
0.803174
-0.291125
-0.272806
-0.213433
-0.131218
-0.037968
0.0639474
0.173019
0.290278
0.414742
0.54734
0.672982
0.776231
0.860916
0.938721
0.932783
0.83654
0.753015
0.694651
0.633272
0.665293
-0.323147
-0.291294
-0.231139
-0.149447
-0.0562306
0.0453174
0.154443
0.27097
0.394287
0.524911
0.647675
0.747178
0.822469
0.865007
0.823436
0.693178
0.589989
0.520342
0.440331
0.491433
-0.348182
-0.313849
-0.25181
-0.169925
-0.0767691
0.0246631
0.133614
0.249271
0.371126
0.499217
0.618109
0.711909
0.775551
0.782957
0.685617
0.536091
0.411218
0.322049
0.228242
0.265632
-0.372616
-0.337132
-0.273623
-0.191043
-0.0977594
0.00353238
0.111961
0.226595
0.346784
0.471988
0.586158
0.673371
0.720573
0.695931
0.545325
0.372221
0.21495
0.0820753
-0.042179
-0.0227375
-0.396807
-0.360862
-0.296386
-0.213189
-0.119689
-0.0185888
0.0891867
0.202669
0.320937
0.442901
0.551678
0.631702
0.659163
0.594444
0.407924
0.2128
0.0263884
-0.127345
-0.335611
-0.416424
-0.421433
-0.385503
-0.320431
-0.236756
-0.143016
-0.0420496
0.065142
0.177457
0.29371
0.412231
0.515303
0.586433
0.59161
0.473859
0.282746
0.0737969
-0.119154
-0.281926
-0.407593
-0.533891
-0.447556
-0.41153
-0.346105
-0.262131
-0.16828
-0.0675366
0.0389756
0.149953
0.26387
0.378447
0.475352
0.535227
0.514178
0.358324
0.165483
-0.037736
-0.213859
-0.312281
-0.338826
-0.35278
-0.475325
-0.439219
-0.373537
-0.289415
-0.195629
-0.0952728
0.0103165
0.119646
0.230795
0.340737
0.430997
0.475069
0.434123
0.247827
0.0564529
-0.127011
-0.259917
-0.298214
-0.307698
-0.307821
-0.50502
-0.468695
-0.402762
-0.318589
-0.225008
-0.12526
-0.0208523
0.0864794
0.194407
0.299056
0.381703
0.410232
0.341208
0.146256
-0.0386857
-0.198271
-0.273509
-0.287392
-0.288774
-0.288648
-0.536639
-0.499993
-0.433789
-0.349639
-0.256422
-0.157481
-0.05453
0.0504363
0.154695
0.253526
0.32709
0.342175
0.234891
0.0532171
-0.121696
-0.248638
-0.277763
-0.277904
-0.278339
-0.277943
-0.569917
-0.532926
-0.46649
-0.382463
-0.289764
-0.191864
-0.0906734
0.0115487
0.111671
0.204273
0.268154
0.26467
0.138588
-0.0338086
-0.188095
-0.260543
-0.275313
-0.272197
-0.271145
-0.270607
-0.604263
-0.567125
-0.500583
-0.416807
-0.324817
-0.228225
-0.129109
-0.0300359
0.0655136
0.151576
0.205687
0.18521
0.0494032
-0.110681
-0.233463
-0.268406
-0.268051
-0.269074
-0.268366
-0.267367
-0.639229
-0.60204
-0.535568
-0.452221
-0.361188
-0.266203
-0.169521
-0.0740067
0.0165255
0.0961111
0.138538
0.106334
-0.032733
-0.172007
-0.266802
-0.272032
-0.269504
-0.266144
-0.264299
-0.263728
-0.673745
-0.636752
-0.57067
-0.488023
-0.398264
-0.30526
-0.211398
-0.11985
-0.0347726
0.0383466
0.0705189
0.0236722
-0.10972
-0.213794
-0.284812
-0.290909
-0.271619
-0.257511
-0.254205
-0.253907
-0.70619
-0.669999
-0.604834
-0.523279
-0.43519
-0.344586
-0.254
-0.166786
-0.0875447
-0.0216498
0.00735746
-0.0679896
-0.191776
-0.246534
-0.262002
-0.277376
-0.283151
-0.281984
-0.276285
-0.273103
-0.735292
-0.70027
-0.63664
-0.556743
-0.470827
-0.383071
-0.296317
-0.213769
-0.140717
-0.0830241
-0.0547408
-0.152118
-0.298336
-0.307379
-0.301943
-0.33263
-0.360532
-0.372047
-0.36753
-0.363578
-0.758506
-0.725476
-0.664325
-0.586832
-0.503774
-0.419347
-0.336889
-0.259576
-0.193059
-0.142957
-0.123339
-0.222274
-0.418325
-0.532986
-0.511246
-0.490882
-0.48292
-0.489978
-0.487739
-0.484321
-0.773787
-0.743537
-0.68582
-0.611733
-0.532361
-0.451911
-0.373826
-0.3026
-0.242566
-0.199701
-0.19477
-0.292201
-0.498188
-0.758139
-0.744318
-0.650912
-0.626839
-0.614493
-0.604619
-0.601909
-0.778463
-0.752083
-0.699058
-0.629502
-0.554715
-0.479066
-0.405516
-0.339862
-0.286744
-0.254748
-0.24174
-0.376647
-0.449151
-0.501601
-0.474033
-0.598982
-0.656079
-0.641626
-0.639222
-0.63813
-0.770666
-0.748879
-0.701962
-0.638322
-0.569051
-0.498902
-0.430634
-0.368476
-0.322694
-0.300281
-0.28923
-0.418404
-0.374527
-0.243447
-0.271789
-0.472743
-0.61554
-0.623448
-0.624771
-0.622628
-0.747565
-0.731129
-0.692654
-0.636951
-0.574179
-0.509882
-0.446754
-0.38873
-0.344692
-0.329051
-0.358249
-0.474588
-0.581308
-0.648951
-0.828924
-1.0082
-0.942056
-0.760894
-0.676523
-0.684454
-0.711941
-0.701026
-0.671807
-0.625471
-0.570014
-0.511209
-0.452353
-0.397677
-0.354712
-0.334176
-0.390336
-0.569778
-0.921116
-1.31628
-1.61696
-1.76645
-1.69045
-1.47321
-1.26486
-1.1942
-0.669266
-0.662993
-0.643567
-0.606362
-0.558056
-0.503678
-0.447474
-0.392022
-0.34528
-0.327042
-0.355124
-0.490549
-0.81976
-1.20788
-1.37928
-1.515
-1.54309
-1.47563
-1.34827
-1.24846
-0.62783
-0.624323
-0.613358
-0.584715
-0.541494
-0.489501
-0.432563
-0.373349
-0.314267
-0.269456
-0.220981
-0.241533
-0.355906
-0.596073
-0.771352
-0.723369
-0.506183
-0.295999
-0.138478
-0.0604019
-0.594165
-0.592118
-0.586529
-0.565267
-0.52553
-0.472509
-0.410901
-0.343212
-0.263818
-0.165146
-0.0671149
0.110777
0.270335
0.597697
0.977322
1.36229
1.73734
2.00209
2.12787
2.16729
-0.56585
-0.565083
-0.56356
-0.550208
-0.51367
-0.458044
-0.389315
-0.307096
-0.217876
-0.0944477
0.0500035
0.244583
0.631948
1.06051
1.63132
2.14992
2.5338
2.77785
2.90248
2.94295
-0.545617
-0.545162
-0.545109
-0.53788
-0.505847
-0.447019
-0.371511
-0.281427
-0.177918
-0.0630728
0.0874768
0.226036
0.470038
0.907999
1.45159
1.9617
2.35098
2.59514
2.70757
2.73766
-0.530419
-0.529358
-0.529185
-0.527117
-0.500469
-0.439264
-0.355936
-0.264171
-0.157786
-0.0428
0.0804107
0.205876
0.333316
0.687941
1.15188
1.54377
1.84176
2.01875
2.09483
2.11512
-0.525368
-0.52411
-0.525166
-0.525019
-0.498297
-0.430338
-0.340212
-0.244896
-0.145677
-0.0364507
0.0677163
0.175658
0.263093
0.466576
0.803721
1.10575
1.32007
1.43378
1.48117
1.49219
-0.523886
-0.525906
-0.531073
-0.52928
-0.493144
-0.412051
-0.316363
-0.222448
-0.128255
-0.0308664
0.058437
0.133416
0.20859
0.346276
0.564759
0.758119
0.893565
0.966473
0.99698
1.00404
-0.488199
-0.494159
-0.502133
-0.496368
-0.451063
-0.36638
-0.276289
-0.190709
-0.108048
-0.025686
0.0446325
0.0985099
0.135765
0.244226
0.399378
0.515945
0.592712
0.635158
0.6531
0.656026
-0.372627
-0.379376
-0.386508
-0.380312
-0.342567
-0.279664
-0.213967
-0.147073
-0.0825979
-0.0178684
0.0345046
0.0758973
0.093481
0.15665
0.266087
0.347337
0.396424
0.420709
0.42914
0.429973
-0.199252
-0.203658
-0.209231
-0.20879
-0.1937
-0.166882
-0.133242
-0.0938962
-0.0511626
-0.0043859
0.0322656
0.0597593
0.0798594
0.11921
0.184991
0.234034
0.265782
0.283688
0.290662
0.291102
-0.0401856
-0.0422337
-0.0469808
-0.0546431
-0.0609923
-0.062589
-0.0563456
-0.0419668
-0.0190249
0.0124241
0.0379895
0.0596107
0.0796718
0.113396
0.15698
0.183914
0.199639
0.208112
0.211099
0.210436
0.0584308
0.0573717
0.0527863
0.0414211
0.0247966
0.00975157
0.00114904
0.000524916
0.00983388
0.0283601
0.0496731
0.06668
0.0865596
0.109171
0.139183
0.153954
0.163623
0.168048
0.169077
0.168031
0.101839
0.101098
0.0972312
0.0867005
0.0700853
0.052646
0.0391364
0.0312029
0.0325541
0.0414859
0.0587175
0.0753792
0.0926024
0.107234
0.124189
0.131992
0.139058
0.143704
0.145017
0.143929
0.113024
0.112437
0.109555
0.101676
0.088657
0.0737742
0.0607339
0.0514525
0.047575
0.0510836
0.0621998
0.078096
0.0979998
0.1036
0.110148
0.115164
0.121653
0.126047
0.127258
0.126066
0.10983
0.109378
0.107414
0.10218
0.0932023
0.0821952
0.0713899
0.0626216
0.0568994
0.0558184
0.0623302
0.0711375
0.0865057
0.0881643
0.0907549
0.0972228
0.104619
0.109259
0.110611
0.109206
0.101811
0.101455
0.100159
0.0969119
0.0911053
0.0836472
0.0752532
0.0681253
0.0616729
0.0580763
0.0554465
0.0540217
0.0556978
0.053603
0.0612702
0.071725
0.0812551
0.0865524
0.0881494
0.0869373
0.0934417
0.0931531
0.0922927
0.0903391
0.0867938
0.0819465
0.0761053
0.0705618
0.0639924
0.05803
0.0469967
0.0313543
0.0175293
0.0152717
0.0304645
0.0455992
0.0561898
0.0608274
0.0620802
0.0613597
0.0864668
0.0862351
0.0856459
0.0844479
0.0823654
0.0792644
0.0756118
0.0712158
0.0661832
0.0591619
0.0447571
0.0189592
-0.00545976
-0.00343428
0.0176119
0.0332292
0.0411824
0.0438714
0.0442806
0.0438512
0.0810406
0.0808695
0.0804688
0.0797004
0.07852
0.0767133
0.0745303
0.0715361
0.0686975
0.0636195
0.0523739
0.0309206
0.0103442
0.0175822
0.0333607
0.042948
0.0463515
0.0461802
0.046041
0.045844
0.076569
0.0764598
0.0762183
0.0756816
0.0748797
0.0741459
0.0731737
0.0720109
0.0713006
0.0700828
0.0693963
0.0638798
0.0585586
0.0657315
0.0717867
0.0717615
0.070537
0.0696624
0.0695727
0.0692945
0.072221
0.0721681
0.0720724
0.0717525
0.0714554
0.0710628
0.0712403
0.0720348
0.0732784
0.0781527
0.0885177
0.103876
0.114764
0.120257
0.114543
0.108835
0.105493
0.104576
0.103978
0.103063
0.0673271
0.0673364
0.0674114
0.0673735
0.0672907
0.0673277
0.0681497
0.0706695
0.0743267
0.0835646
0.101589
0.13716
0.165779
0.164863
0.148062
0.137138
0.133096
0.132905
0.131689
0.130607
0.0610807
0.0611445
0.0613834
0.0617098
0.0618406
0.0623982
0.0632649
0.0664746
0.0722694
0.0828363
0.1029
0.1464
0.180035
0.176008
0.157819
0.148001
0.145332
0.145084
0.143259
0.142082
0.0528395
0.0529082
0.0532267
0.0537626
0.0543458
0.0553625
0.057123
0.0595949
0.0658653
0.0755945
0.0919666
0.12557
0.153434
0.148649
0.136312
0.132386
0.133523
0.133754
0.131321
0.129803
0.0426313
0.0425978
0.042822
0.0435267
0.0448463
0.0466184
0.0488672
0.0515844
0.0557769
0.0612177
0.0703643
0.0848748
0.0948494
0.0921957
0.0882401
0.0893287
0.0912547
0.0911193
0.0891211
0.0880244
0.0310652
0.0310826
0.03151
0.0325039
0.0338091
0.0353403
0.0376158
0.040706
0.0405998
0.0428618
0.044328
0.0390235
0.0246852
0.0212391
0.0277772
0.0320015
0.0290672
0.0267124
0.0263222
0.0260964
0.0178153
0.0177647
0.0180453
0.0191222
0.0206061
0.0222527
0.024269
0.0269937
0.0266242
0.0223146
0.0235598
0.00980424
-0.0178065
-0.0198173
-0.00829712
-0.00977609
-0.0234595
-0.0301633
-0.0280301
-0.0261794
0.00400767
0.00383873
0.00354834
0.00309719
0.00265101
0.00250236
0.00311776
0.00437689
0.00438925
0.00332287
0.00573326
0.0125244
-0.00119596
-0.011159
-0.00729719
-0.0138093
-0.0205277
-0.0227329
-0.0179518
-0.0136037
0.114279
0.308189
0.487128
0.639438
0.763152
0.862561
0.946184
1.01397
1.03146
1.02763
0.415228
0.540717
0.658615
0.761743
0.849299
0.92214
0.979714
1.01872
1.03957
1.05595
0.620378
0.704056
0.786983
0.860337
0.92324
0.97553
1.01669
1.04791
1.07116
1.09038
0.771128
0.830049
0.890225
0.94442
0.991273
1.03104
1.06427
1.09197
1.11279
1.13172
0.890035
0.934955
0.980195
1.02197
1.05908
1.09178
1.12029
1.14437
1.16265
1.18073
0.991648
1.02794
1.06369
1.09825
1.13004
1.15875
1.18405
1.20523
1.22123
1.23874
1.08089
1.1136
1.14631
1.1779
1.20731
1.23401
1.25741
1.27655
1.29062
1.30767
1.16873
1.20163
1.23438
1.26585
1.29486
1.32086
1.34318
1.36085
1.37334
1.38991
1.26363
1.30017
1.33513
1.36777
1.39711
1.42262
1.44387
1.46026
1.47195
1.48814
1.37694
1.41751
1.45469
1.48781
1.51644
1.54055
1.56027
1.57562
1.58756
1.60368
1.51836
1.5596
1.59495
1.62465
1.64995
1.67164
1.6902
1.70573
1.71887
1.73486
1.69016
1.7228
1.74968
1.77203
1.79216
1.81093
1.82869
1.84546
1.86039
1.87621
1.87672
1.89404
1.91121
1.92791
1.94402
1.95876
1.97267
1.98713
2.00239
2.01981
2.05995
2.06993
2.08312
2.09409
2.1035
2.11315
2.12376
2.13397
2.14332
2.16871
2.27748
2.27171
2.25871
2.24446
2.23818
2.24389
2.262
2.29051
2.32429
2.36059
2.58074
2.44489
2.36543
2.32291
2.30552
2.30953
2.33703
2.39496
2.50261
2.68082
0.867579
0.861278
0.85354
0.842417
0.828839
0.816178
0.805758
0.797706
0.791932
0.788525
0.788076
0.790809
0.79596
0.803256
0.812759
0.824553
0.838087
0.850998
0.859979
0.867512
0.776709
0.782633
0.790695
0.796811
0.799861
0.799327
0.796212
0.792175
0.788524
0.786158
0.785922
0.78807
0.791738
0.796121
0.800176
0.80239
0.801296
0.796647
0.789587
0.781747
0.770003
0.772375
0.775636
0.778401
0.780835
0.782998
0.784142
0.783944
0.782937
0.782033
0.782134
0.783442
0.785137
0.786298
0.786172
0.784668
0.782482
0.780096
0.777095
0.77407
0.76527
0.766358
0.768267
0.770593
0.772446
0.77382
0.775
0.775938
0.776456
0.776726
0.777153
0.777775
0.778147
0.777949
0.777256
0.776284
0.774915
0.772915
0.770787
0.769303
0.760323
0.760957
0.762079
0.763822
0.765645
0.767208
0.768417
0.769418
0.770309
0.771081
0.771718
0.772101
0.772123
0.771819
0.771204
0.770169
0.768694
0.767045
0.765682
0.764874
0.755499
0.755938
0.756721
0.75801
0.759509
0.761039
0.762464
0.763686
0.764736
0.765681
0.766461
0.766891
0.766928
0.766574
0.765817
0.764741
0.763525
0.762331
0.761398
0.760858
0.75079
0.751118
0.751725
0.752782
0.754055
0.755421
0.756845
0.758238
0.759519
0.76067
0.761614
0.762141
0.762177
0.76178
0.76106
0.760172
0.759242
0.758324
0.757624
0.757226
0.74618
0.746434
0.746923
0.747824
0.748976
0.750251
0.751619
0.753064
0.75452
0.755899
0.757049
0.75771
0.757817
0.757518
0.75697
0.756285
0.755542
0.754828
0.7543
0.753995
0.741604
0.741805
0.742213
0.743006
0.744083
0.74531
0.746664
0.748149
0.74973
0.751329
0.752731
0.753589
0.753876
0.753767
0.753411
0.752912
0.75234
0.751793
0.751395
0.751155
0.736985
0.737146
0.737495
0.738218
0.739252
0.740458
0.741826
0.743369
0.745074
0.746874
0.748562
0.749733
0.750297
0.750436
0.750297
0.749985
0.749584
0.749183
0.74889
0.748699
0.732255
0.732384
0.73269
0.733369
0.734384
0.735611
0.737034
0.738675
0.740549
0.742624
0.744671
0.746208
0.747099
0.747524
0.747621
0.747503
0.747269
0.747006
0.746801
0.746649
0.727338
0.72744
0.727717
0.728381
0.729419
0.730714
0.732251
0.734073
0.736199
0.738618
0.741108
0.743105
0.744373
0.745091
0.745426
0.745503
0.74543
0.745289
0.745159
0.745037
0.722162
0.72224
0.722499
0.72317
0.724268
0.725675
0.727375
0.72944
0.731909
0.734789
0.73784
0.740367
0.742062
0.743119
0.743728
0.744027
0.744112
0.744091
0.744028
0.743932
0.716643
0.716699
0.716948
0.717647
0.718836
0.720392
0.722293
0.724631
0.727509
0.730952
0.734689
0.737877
0.740111
0.741609
0.742563
0.743127
0.743393
0.743495
0.743496
0.743423
0.710688
0.710723
0.71097
0.711711
0.713009
0.714748
0.716927
0.71965
0.723018
0.727121
0.731695
0.735728
0.738652
0.740677
0.742003
0.742848
0.743362
0.743611
0.743679
0.743627
0.704174
0.704181
0.704423
0.705227
0.706693
0.708697
0.711243
0.714475
0.718549
0.723556
0.729178
0.734183
0.737854
0.740452
0.742235
0.743409
0.744167
0.744562
0.744698
0.744666
0.69689
0.696887
0.697147
0.69803
0.699682
0.701992
0.704967
0.708787
0.713662
0.719745
0.72665
0.732862
0.737511
0.740875
0.743237
0.74486
0.745937
0.746514
0.746727
0.746712
0.6886
0.688568
0.688855
0.689852
0.691753
0.694445
0.697978
0.702578
0.708484
0.715884
0.724365
0.732084
0.737887
0.742135
0.745196
0.747384
0.748842
0.749644
0.749944
0.749944
0.678992
0.678941
0.67927
0.680422
0.682618
0.685814
0.690083
0.695695
0.702959
0.712097
0.722516
0.731951
0.739103
0.744399
0.748277
0.751107
0.753031
0.754108
0.754503
0.754511
0.667508
0.667438
0.667838
0.669192
0.671789
0.67564
0.680848
0.687736
0.69666
0.707862
0.720659
0.732259
0.741065
0.747631
0.752515
0.756127
0.758616
0.760003
0.760496
0.760503
0.65341
0.653325
0.65385
0.655529
0.658706
0.663494
0.670018
0.678655
0.68981
0.703694
0.719356
0.733431
0.744081
0.752074
0.758088
0.762555
0.765665
0.767381
0.767968
0.767968
0.635699
0.635603
0.636339
0.638523
0.642563
0.648693
0.657038
0.668019
0.682037
0.699229
0.718338
0.735322
0.748124
0.757739
0.765025
0.770474
0.774253
0.776302
0.776976
0.776964
0.612919
0.612829
0.613914
0.616893
0.622299
0.630443
0.641438
0.655678
0.673467
0.694776
0.717937
0.7382
0.753383
0.764786
0.77347
0.779974
0.784465
0.786841
0.787589
0.78756
0.582767
0.582732
0.58444
0.588803
0.596519
0.607886
0.622814
0.641563
0.664206
0.690485
0.718298
0.742197
0.759965
0.773322
0.783507
0.791171
0.796385
0.799057
0.799852
0.799797
0.541179
0.541351
0.544432
0.551666
0.563642
0.580286
0.601062
0.625893
0.654595
0.686681
0.719661
0.747467
0.767976
0.783384
0.795184
0.80408
0.810008
0.812892
0.813682
0.813591
0.480564
0.481912
0.489389
0.50314
0.522855
0.547839
0.576809
0.609365
0.64521
0.683791
0.7223
0.754156
0.777457
0.794954
0.808366
0.818494
0.825072
0.82804
0.828727
0.828594
0.407522
0.410274
0.424759
0.448538
0.478952
0.513744
0.551624
0.592432
0.636008
0.681881
0.726996
0.764089
0.791252
0.811784
0.82759
0.839341
0.846801
0.850126
0.850981
0.850988
0.332795
0.339882
0.361546
0.395234
0.435909
0.480318
0.527111
0.576265
0.627677
0.680979
0.732895
0.775444
0.806656
0.830391
0.848834
0.862444
0.870835
0.874123
0.874881
0.875011
0.272192
0.280982
0.307298
0.348003
0.396671
0.449185
0.504012
0.560974
0.619867
0.680261
0.738609
0.786233
0.821174
0.847703
0.868151
0.883062
0.891983
0.895801
0.897091
0.897321
0.222458
0.231932
0.261672
0.307525
0.362261
0.421289
0.482886
0.546702
0.612397
0.67938
0.743737
0.796029
0.834228
0.863082
0.885079
0.901147
0.911033
0.915592
0.917111
0.917371
0.180693
0.190416
0.22245
0.272306
0.331999
0.396456
0.463769
0.533541
0.605304
0.678303
0.748183
0.804733
0.845778
0.876528
0.899817
0.916774
0.927461
0.932533
0.934272
0.93458
0.144439
0.154262
0.188019
0.241053
0.304849
0.373936
0.446237
0.521289
0.598505
0.67701
0.751984
0.812382
0.855954
0.888279
0.912573
0.930218
0.941592
0.947106
0.948996
0.949305
0.112117
0.121966
0.157054
0.212706
0.279955
0.353021
0.429735
0.509548
0.591781
0.675392
0.755123
0.819073
0.86487
0.898532
0.923615
0.941806
0.953528
0.959412
0.961405
0.961722
0.0825202
0.0924043
0.128562
0.18645
0.256642
0.33317
0.41381
0.497965
0.584848
0.673279
0.757541
0.824877
0.872736
0.907607
0.933344
0.951912
0.963882
0.969944
0.972008
0.972334
0.054751
0.0646949
0.101862
0.16169
0.234417
0.313971
0.398129
0.486251
0.577472
0.670499
0.759165
0.829818
0.879715
0.915755
0.942129
0.96104
0.973166
0.979346
0.98138
0.98165
0.0282615
0.038307
0.0763939
0.137954
0.212915
0.295143
0.382465
0.474217
0.569487
0.666905
0.759913
0.833918
0.885909
0.923179
0.950227
0.969476
0.98174
0.987901
0.989932
0.990124
0.00262658
0.0128528
0.0518189
0.114942
0.191872
0.276485
0.366665
0.46174
0.560783
0.662401
0.759713
0.837191
0.891437
0.930068
0.957877
0.977482
0.98987
0.995991
0.997945
0.99813
-0.022413
-0.0119245
0.0279015
0.0924576
0.171143
0.257876
0.350641
0.448754
0.551298
0.656927
0.758528
0.839647
0.896371
0.936541
0.965221
0.985244
0.99775
1.00381
1.00564
1.00577
-0.0469173
-0.0361646
0.00449454
0.0703816
0.150648
0.239278
0.334361
0.435234
0.541014
0.650445
0.756308
0.841266
0.900738
0.942671
0.972354
0.992834
1.00541
1.01131
1.01298
1.01304
-0.0710068
-0.0599535
-0.0184764
0.0486822
0.130359
0.220677
0.317837
0.421199
0.529942
0.642948
0.752994
0.841967
0.904504
0.9485
0.979348
1.0003
1.01287
1.01854
1.01999
1.01995
-0.0946686
-0.0833065
-0.0409837
0.0273456
0.110286
0.202107
0.301117
0.4067
0.518119
0.634431
0.748528
0.841642
0.907599
0.954056
0.9863
1.00772
1.02013
1.0254
1.02658
1.02647
-0.117923
-0.106198
-0.0630152
0.00639154
0.0904674
0.183619
0.28426
0.391808
0.50561
0.624922
0.742868
0.840191
0.909908
0.959314
0.993337
1.01525
1.02723
1.03187
1.03271
1.03252
-0.140535
-0.12855
-0.0845293
-0.0141353
0.0709646
0.165298
0.267346
0.376608
0.4925
0.61449
0.736002
0.837518
0.911256
0.964154
1.00058
1.02321
1.03443
1.03796
1.03829
1.03804
-0.162642
-0.150303
-0.105475
-0.0341882
0.051824
0.147194
0.250475
0.361192
0.478888
0.603227
0.727943
0.833517
0.911449
0.96833
1.00803
1.03211
1.04241
1.04405
1.04334
1.04298
-0.184052
-0.1714
-0.125823
-0.0537059
0.0331364
0.1294
0.23374
0.345691
0.464892
0.591216
0.718738
0.828106
0.91029
0.971473
1.01534
1.0423
1.05254
1.05168
1.0485
1.04745
-0.204848
-0.191854
-0.145503
-0.0726237
0.014947
0.111991
0.217231
0.330193
0.450631
0.578605
0.708471
0.82121
0.907596
0.973146
1.02171
1.05332
1.06605
1.06439
1.05738
1.04717
-0.224907
-0.211653
-0.164606
-0.0911077
-0.00297207
0.0946665
0.200591
0.314266
0.435619
0.564847
0.696574
0.812184
0.902806
0.972844
1.02606
1.06359
1.08217
1.08258
1.07219
1.06794
-0.244179
-0.230866
-0.183118
-0.109088
-0.020591
0.0774528
0.183857
0.297899
0.419835
0.549836
0.682898
0.800623
0.895286
0.969786
1.02608
1.0675
1.08952
1.09501
1.06193
1.02155
-0.262434
-0.24936
-0.200988
-0.126434
-0.0378787
0.0603313
0.167048
0.28123
0.40336
0.533632
0.667411
0.786289
0.884134
0.963352
1.02
1.05482
1.07735
1.06564
1.01396
0.957246
-0.282336
-0.26583
-0.217876
-0.142679
-0.0546471
0.0435647
0.149834
0.264314
0.386294
0.516358
0.650073
0.769026
0.867857
0.954245
1.00659
1.04113
1.02823
0.990476
0.928428
0.867974
-0.272466
-0.248824
-0.197971
-0.118109
-0.0248168
0.0773955
0.189186
0.30703
0.432331
0.566276
0.693674
0.799316
0.890952
0.978106
1.01447