/*--------------------------------*- C++ -*----------------------------------*\
  =========                 |
  \\      /  F ield         | OpenFOAM: The Open Source CFD Toolbox
   \\    /   O peration     | Website:  https://openfoam.org
    \\  /    A nd           | Version:  6
     \\/     M anipulation  |
\*---------------------------------------------------------------------------*/
FoamFile
{
    version     2.0;
    format      ascii;
    class       volVectorField;
    location    "83.7";
    object      U;
}
// * * * * * * * * * * * * * * * * * * * * * * * * * * * * * * * * * * * * * //

dimensions      [0 1 -1 0 0 0 0];

internalField   nonuniform List<vector> 
8800
(
(0.987184 -0.0766654 0)
(1.00189 -0.0551903 0)
(0.999724 -0.0285482 0)
(1.00003 -0.0151428 0)
(1.0001 -0.00854329 0)
(1.00012 -0.00504454 0)
(1.00008 -0.00299885 0)
(1.00003 -0.00169872 0)
(0.999994 -0.000792776 0)
(1.00006 -7.75354e-05 0)
(0.999961 0.000654216 0)
(0.999986 0.00142307 0)
(1.00005 0.00243704 0)
(1.00006 0.00400322 0)
(1.00005 0.00663553 0)
(1.00004 0.011374 0)
(0.999934 0.0208166 0)
(0.999165 0.0386714 0)
(1.0071 0.0724576 0)
(0.771214 0.0366615 0)
(0.363075 -0.0160169 0)
(1.04332 -0.076814 0)
(1.0846 -0.0704438 0)
(1.04519 -0.0535383 0)
(1.02329 -0.0388889 0)
(1.01203 -0.0262099 0)
(1.00643 -0.0168472 0)
(1.00359 -0.0103141 0)
(1.00215 -0.00565229 0)
(1.00144 -0.00199135 0)
(1.00129 0.00133163 0)
(1.00165 0.00471835 0)
(1.00267 0.00864959 0)
(1.00467 0.0139715 0)
(1.0086 0.0216776 0)
(1.01656 0.0326445 0)
(1.0325 0.0465562 0)
(1.06267 0.0616719 0)
(1.09187 0.0761036 0)
(0.838666 0.0565633 0)
(0.216859 -0.00242922 0)
(1.07591 -0.0501296 0)
(1.09988 -0.0483014 0)
(1.06465 -0.0404514 0)
(1.04004 -0.0335897 0)
(1.02392 -0.026064 0)
(1.01412 -0.0184764 0)
(1.00856 -0.0116512 0)
(1.00558 -0.00577761 0)
(1.00431 -0.000355129 0)
(1.00464 0.00489364 0)
(1.00658 0.0102876 0)
(1.01062 0.0163642 0)
(1.01794 0.0233784 0)
(1.03052 0.0308418 0)
(1.05061 0.0378677 0)
(1.08035 0.0445485 0)
(1.10626 0.0513594 0)
(0.942507 0.0416246 0)
(0.21613 0.00246246 0)
(0.175195 -0.00081579 0)
(1.01773 -0.0354746 0)
(1.10522 -0.0413634 0)
(1.07828 -0.0360425 0)
(1.05348 -0.0301022 0)
(1.03622 -0.0245197 0)
(1.02401 -0.0187837 0)
(1.01589 -0.0126951 0)
(1.01101 -0.00649822 0)
(1.00879 -0.000156322 0)
(1.00935 0.00610279 0)
(1.01263 0.012104 0)
(1.01888 0.0179185 0)
(1.02876 0.0234794 0)
(1.04318 0.0287762 0)
(1.0637 0.0342527 0)
(1.09355 0.0402323 0)
(1.09339 0.0419869 0)
(0.827079 0.0229253 0)
(0.173966 0.000854191 0)
(0.154008 -0.000609552 0)
(0.956255 -0.0254436 0)
(1.10349 -0.0351022 0)
(1.0877 -0.0326174 0)
(1.06175 -0.0279561 0)
(1.04414 -0.0229224 0)
(1.03166 -0.0176642 0)
(1.0228 -0.01212 0)
(1.01697 -0.00617113 0)
(1.0141 0.00030851 0)
(1.01475 0.00677565 0)
(1.01875 0.01266 0)
(1.0258 0.0179267 0)
(1.03607 0.0228268 0)
(1.05062 0.0275803 0)
(1.07186 0.0321015 0)
(1.10005 0.0360278 0)
(1.06802 0.0340723 0)
(0.739394 0.0143313 0)
(0.152154 0.000653145 0)
(0.139655 -0.000465592 0)
(0.899416 -0.0190553 0)
(1.09585 -0.0300395 0)
(1.09579 -0.0291355 0)
(1.06929 -0.025392 0)
(1.05086 -0.0212389 0)
(1.03792 -0.0164506 0)
(1.02879 -0.0111467 0)
(1.02266 -0.00538579 0)
(1.01949 0.000955213 0)
(1.02007 0.00727377 0)
(1.02419 0.0129086 0)
(1.03136 0.0178377 0)
(1.04184 0.0222827 0)
(1.05695 0.0262414 0)
(1.07914 0.0296905 0)
(1.10222 0.0323042 0)
(1.03585 0.0281789 0)
(0.672717 0.0102357 0)
(0.137034 0.00051586 0)
(0.129139 -0.000359938 0)
(0.849917 -0.0146851 0)
(1.08352 -0.0258905 0)
(1.1015 -0.0261628 0)
(1.07617 -0.0228607 0)
(1.05721 -0.0191989 0)
(1.04381 -0.0149324 0)
(1.03432 -0.0099857 0)
(1.02794 -0.00443061 0)
(1.02457 0.00173498 0)
(1.025 0.00784263 0)
(1.02906 0.0132017 0)
(1.03634 0.0177119 0)
(1.04709 0.0215484 0)
(1.0626 0.02484 0)
(1.08522 0.0277652 0)
(1.10127 0.0295024 0)
(1.00081 0.023686 0)
(0.620732 0.00787987 0)
(0.125584 0.000419066 0)
(0.12113 -0.000278948 0)
(0.807899 -0.0115179 0)
(1.06833 -0.0222607 0)
(1.10507 -0.0234977 0)
(1.08246 -0.0206034 0)
(1.06308 -0.017151 0)
(1.0494 -0.0131858 0)
(1.03963 -0.00857035 0)
(1.03295 -0.00328008 0)
(1.02932 0.00267251 0)
(1.02956 0.0085344 0)
(1.03356 0.0135451 0)
(1.0409 0.0175734 0)
(1.05173 0.0208989 0)
(1.06746 0.0237771 0)
(1.09042 0.0263987 0)
(1.09741 0.0272325 0)
(0.965351 0.0201738 0)
(0.578877 0.00635564 0)
(0.116439 0.000349268 0)
(0.114939 -0.000215348 0)
(0.772591 -0.00914444 0)
(1.05169 -0.0190589 0)
(1.10752 -0.0210237 0)
(1.08838 -0.0184934 0)
(1.06861 -0.0151794 0)
(1.05469 -0.0113692 0)
(1.04472 -0.00695613 0)
(1.03778 -0.00189901 0)
(1.03385 0.00380753 0)
(1.03385 0.00937384 0)
(1.03772 0.0140083 0)
(1.04498 0.017606 0)
(1.05579 0.0205409 0)
(1.07171 0.0230903 0)
(1.09431 0.0253611 0)
(1.09068 0.0253704 0)
(0.930772 0.0174781 0)
(0.544126 0.00532097 0)
(0.108867 0.000299446 0)
(0.110134 -0.000163995 0)
(0.743056 -0.00729725 0)
(1.03466 -0.0162136 0)
(1.10904 -0.018683 0)
(1.09402 -0.0164507 0)
(1.07397 -0.013221 0)
(1.05978 -0.00949132 0)
(1.0496 -0.00518994 0)
(1.04243 -0.000297269 0)
(1.03819 0.00517402 0)
(1.03787 0.0104291 0)
(1.0415 0.0147051 0)
(1.0486 0.0179202 0)
(1.05935 0.0205073 0)
(1.07546 0.0227619 0)
(1.0969 0.0246473 0)
(1.08145 0.0238709 0)
(0.897615 0.0154497 0)
(0.514416 0.00460686 0)
(0.102384 0.000264897 0)
(0.106433 -0.000121108 0)
(0.718482 -0.00580204 0)
(1.01808 -0.0136524 0)
(1.10977 -0.0164113 0)
(1.09958 -0.0144411 0)
(1.07926 -0.011214 0)
(1.06477 -0.00750435 0)
(1.05437 -0.00325348 0)
(1.04692 0.0015367 0)
(1.04233 0.00681797 0)
(1.04161 0.0117879 0)
(1.04492 0.0157288 0)
(1.05181 0.0185773 0)
(1.06249 0.020826 0)
(1.07875 0.0228078 0)
(1.09811 0.0242729 0)
(1.07009 0.0227374 0)
(0.865974 0.0139732 0)
(0.488281 0.00412343 0)
(0.0966472 0.000242649 0)
(0.10365 -8.37062e-05 0)
(0.698236 -0.00454247 0)
(1.00258 -0.0113073 0)
(1.10986 -0.0141718 0)
(1.105 -0.0123787 0)
(1.08458 -0.00910504 0)
(1.06977 -0.00535372 0)
(1.05908 -0.0010911 0)
(1.05131 0.0036541 0)
(1.04629 0.00879736 0)
(1.04508 0.0135166 0)
(1.048 0.0171373 0)
(1.05463 0.0196232 0)
(1.0652 0.021542 0)
(1.08158 0.0232558 0)
(1.09825 0.0243524 0)
(1.05685 0.021982 0)
(0.835657 0.0129631 0)
(0.464609 0.0038159 0)
(0.0913913 0.00023027 0)
(0.101669 -4.90808e-05 0)
(0.681854 -0.00343107 0)
(0.988613 -0.00910645 0)
(1.10954 -0.0118759 0)
(1.11028 -0.0101792 0)
(1.09 -0.00682939 0)
(1.07484 -0.00297451 0)
(1.06382 0.00136661 0)
(1.05564 0.00613043 0)
(1.05009 0.0111854 0)
(1.0483 0.0156857 0)
(1.05076 0.0190046 0)
(1.05708 0.0211284 0)
(1.0675 0.0227096 0)
(1.0839 0.0241381 0)
(1.09743 0.0248022 0)
(1.04184 0.0216165 0)
(0.806296 0.012347 0)
(0.44252 0.00364678 0)
(0.0864084 0.000225763 0)
(0.10043 -1.49589e-05 0)
(0.669046 -0.002398 0)
(0.976544 -0.00697439 0)
(1.10912 -0.00946673 0)
(1.11555 -0.00778381 0)
(1.0956 -0.00431429 0)
(1.08006 -0.000289711 0)
(1.06865 0.00420105 0)
(1.05998 0.00905104 0)
(1.05379 0.0140749 0)
(1.05129 0.0183872 0)
(1.05319 0.0214106 0)
(1.05913 0.0231615 0)
(1.06937 0.0244032 0)
(1.08575 0.0255397 0)
(1.09534 0.0257036 0)
(1.02511 0.0216414 0)
(0.77743 0.0120749 0)
(0.421297 0.00359072 0)
(0.0815327 0.000227706 0)
(0.099924 2.14349e-05 0)
(0.659667 -0.00138716 0)
(0.966696 -0.00483792 0)
(1.10895 -0.00688157 0)
(1.12095 -0.00511545 0)
(1.10149 -0.00146602 0)
(1.08552 0.00280108 0)
(1.07364 0.00751459 0)
(1.06438 0.0125231 0)
(1.05741 0.0175723 0)
(1.05406 0.0217245 0)
(1.05528 0.0244596 0)
(1.06078 0.0258365 0)
(1.0708 0.026715 0)
(1.08706 0.0275223 0)
(1.09187 0.0270924 0)
(1.00655 0.0220979 0)
(0.748535 0.0121212 0)
(0.400326 0.00363456 0)
(0.0766246 0.000235431 0)
(0.100165 5.34803e-05 0)
(0.653702 -0.00034294 0)
(0.959376 -0.00262264 0)
(1.10938 -0.0040526 0)
(1.12665 -0.00209043 0)
(1.10776 0.00181289 0)
(1.09132 0.00640063 0)
(1.07889 0.0114196 0)
(1.0689 0.0166647 0)
(1.061 0.0218026 0)
(1.05663 0.0258272 0)
(1.05703 0.0282738 0)
(1.06201 0.0292742 0)
(1.07175 0.0297638 0)
(1.08754 0.0301918 0)
(1.0867 0.0290601 0)
(0.985968 0.0230199 0)
(0.719016 0.0124734 0)
(0.379044 0.00376925 0)
(0.071559 0.000248233 0)
(0.10124 0.000106311 0)
(0.651285 0.000780493 0)
(0.954904 -0.000249119 0)
(1.11077 -0.000898436 0)
(1.13286 0.00138985 0)
(1.11453 0.00563987 0)
(1.09758 0.0106442 0)
(1.08447 0.0160637 0)
(1.07361 0.0216312 0)
(1.06457 0.02692 0)
(1.05898 0.0308415 0)
(1.05842 0.032987 0)
(1.06278 0.0335998 0)
(1.07216 0.0336769 0)
(1.08706 0.0336831 0)
(1.07959 0.0316756 0)
(0.962993 0.0244476 0)
(0.68822 0.0131191 0)
(0.356921 0.0039857 0)
(0.0662259 0.000265118 0)
(0.103293 0.000159433 0)
(0.652678 0.00190297 0)
(0.953642 0.00236633 0)
(1.1136 0.00268344 0)
(1.13979 0.00543827 0)
(1.12195 0.0101671 0)
(1.10441 0.0156972 0)
(1.0905 0.0216235 0)
(1.07858 0.0276064 0)
(1.06817 0.0331038 0)
(1.06112 0.0369348 0)
(1.05943 0.0387441 0)
(1.06304 0.0389622 0)
(1.07199 0.0385932 0)
(1.08536 0.0380956 0)
(1.07022 0.0350451 0)
(0.93714 0.0264239 0)
(0.655437 0.0140528 0)
(0.333463 0.00427547 0)
(0.0605326 0.000285124 0)
(0.106418 0.000223585 0)
(0.658432 0.00337819 0)
(0.955987 0.00529265 0)
(1.11832 0.00683803 0)
(1.14769 0.0102051 0)
(1.13022 0.0155632 0)
(1.11199 0.0217494 0)
(1.0971 0.0283079 0)
(1.08387 0.0348059 0)
(1.07181 0.0405727 0)
(1.06303 0.0443109 0)
(1.06003 0.0457562 0)
(1.06273 0.0455433 0)
(1.07117 0.0446839 0)
(1.08241 0.0436224 0)
(1.05815 0.0392828 0)
(0.907758 0.0289853 0)
(0.619901 0.0152584 0)
(0.308208 0.00462458 0)
(0.0544078 0.000306586 0)
(0.110904 0.000310073 0)
(0.668916 0.00510587 0)
(0.962532 0.00880007 0)
(1.12544 0.0117264 0)
(1.15687 0.0159038 0)
(1.13955 0.0220807 0)
(1.12047 0.0290796 0)
(1.10437 0.0364047 0)
(1.08955 0.0435123 0)
(1.07549 0.0495769 0)
(1.06468 0.0531818 0)
(1.06011 0.0542197 0)
(1.06181 0.053536 0)
(1.06963 0.0521304 0)
(1.07814 0.0503822 0)
(1.04277 0.0444896 0)
(0.874011 0.032145 0)
(0.580794 0.0167002 0)
(0.280754 0.00501078 0)
(0.0478108 0.000327253 0)
(0.117107 0.000424049 0)
(0.684915 0.00726051 0)
(0.973918 0.0130341 0)
(1.13555 0.0175716 0)
(1.16769 0.0227876 0)
(1.15022 0.0300421 0)
(1.13008 0.0380334 0)
(1.11245 0.046269 0)
(1.09565 0.054063 0)
(1.07918 0.0604181 0)
(1.06599 0.0638118 0)
(1.05955 0.0643272 0)
(1.06021 0.0631388 0)
(1.0674 0.0611245 0)
(1.07227 0.0585679 0)
(1.02328 0.0507472 0)
(0.834887 0.035873 0)
(0.537306 0.0183046 0)
(0.250821 0.00539762 0)
(0.0407513 0.000343817 0)
(0.12555 0.000585805 0)
(0.707402 0.0100771 0)
(0.990999 0.0183011 0)
(1.14929 0.0247212 0)
(1.18066 0.031248 0)
(1.16256 0.0398908 0)
(1.14101 0.0490802 0)
(1.12143 0.0583607 0)
(1.10215 0.0668714 0)
(1.0828 0.0734378 0)
(1.06687 0.0764636 0)
(1.05834 0.0763133 0)
(1.05785 0.0745426 0)
(1.06427 0.0718174 0)
(1.06428 0.0682046 0)
(0.998637 0.0580909 0)
(0.789199 0.0400544 0)
(0.488707 0.0199442 0)
(0.218332 0.00573235 0)
(0.0333069 0.000352295 0)
(0.136985 0.000817315 0)
(0.737708 0.0139372 0)
(1.01494 0.02507 0)
(1.16746 0.0337263 0)
(1.1964 0.0418958 0)
(1.17695 0.0523256 0)
(1.15347 0.0629233 0)
(1.13133 0.073319 0)
(1.10896 0.082451 0)
(1.08619 0.0889871 0)
(1.06716 0.0913732 0)
(1.05639 0.0903903 0)
(1.05474 0.0879989 0)
(1.05989 0.0844226 0)
(1.05337 0.0795069 0)
(0.967451 0.066421 0)
(0.735652 0.0444559 0)
(0.434523 0.0214137 0)
(0.183534 0.0059448 0)
(0.0256435 0.000348173 0)
(0.152711 0.00118446 0)
(0.777863 0.0194758 0)
(1.04741 0.0341387 0)
(1.19104 0.045531 0)
(1.2158 0.0560239 0)
(1.19375 0.0683995 0)
(1.16751 0.0805295 0)
(1.14198 0.0919364 0)
(1.11581 0.101383 0)
(1.08909 0.107462 0)
(1.06666 0.108798 0)
(1.05353 0.106707 0)
(1.05076 0.1036 0)
(1.05404 0.0992346 0)
(1.03851 0.0924283 0)
(0.927937 0.0754502 0)
(0.673013 0.0486602 0)
(0.374793 0.0224314 0)
(0.147134 0.00595521 0)
(0.0180259 0.000327432 0)
(0.174947 0.00181791 0)
(0.831089 0.0278365 0)
(1.09119 0.0470665 0)
(1.22112 0.0620111 0)
(1.23931 0.0754092 0)
(1.21304 0.0897549 0)
(1.18288 0.103238 0)
(1.15296 0.115166 0)
(1.12225 0.124262 0)
(1.0911 0.129173 0)
(1.06509 0.128883 0)
(1.04959 0.125362 0)
(1.04573 0.121367 0)
(1.04668 0.11598 0)
(1.01817 0.106761 0)
(0.877886 0.0846164 0)
(0.600525 0.0520483 0)
(0.310515 0.022667 0)
(0.110429 0.00569171 0)
(0.0108168 0.000286856 0)
(0.207118 0.0032145 0)
(0.9032 0.0417108 0)
(1.14954 0.0677098 0)
(1.25806 0.0867305 0)
(1.26673 0.103046 0)
(1.23419 0.118821 0)
(1.19872 0.132706 0)
(1.16344 0.144014 0)
(1.12758 0.151622 0)
(1.09174 0.154344 0)
(1.06214 0.151703 0)
(1.0444 0.146356 0)
(1.03952 0.141286 0)
(1.03707 0.134737 0)
(0.990115 0.12198 0)
(0.814762 0.0929175 0)
(0.518799 0.0538506 0)
(0.244386 0.0218969 0)
(0.0755073 0.00513469 0)
(0.00450718 0.000223756 0)
(0.251008 0.00955644 8.36072e-21)
(0.998071 0.0691873 7.19465e-21)
(1.22007 0.102778 -2.52578e-21)
(1.29886 0.123484 0)
(1.29513 0.142631 -6.5735e-35)
(1.25496 0.157975 9.64626e-22)
(1.21343 0.170442 -1.76015e-21)
(1.17233 0.179673 0)
(1.13104 0.184717 3.67769e-35)
(1.09028 0.184492 -2.23491e-21)
(1.05695 0.179072 0)
(1.03697 0.171844 -2.6896e-21)
(1.03167 0.166122 -7.96316e-21)
(1.02341 0.158888 -3.77898e-21)
(0.949011 0.140263 -1.14103e-21)
(0.731226 0.100924 -6.78437e-22)
(0.422923 0.0539399 0)
(0.175686 0.0204108 4.74903e-22)
(0.0425536 0.00445285 5.62407e-22)
(-0.00095253 0.000117294 1.02792e-20)
(0.281524 0.0250905 5.65481e-21)
(1.07678 0.112644 1.15202e-22)
(1.27822 0.152738 6.51511e-22)
(1.3358 0.173384 0)
(1.3202 0.192665 -3.25285e-21)
(1.27297 0.205917 -3.72872e-21)
(1.22551 0.216158 -1.75444e-21)
(1.17862 0.22304 -6.32089e-21)
(1.13181 0.225552 0)
(1.08591 0.222555 9.44695e-21)
(1.04863 0.214625 9.42521e-21)
(1.02621 0.205716 2.80805e-21)
(1.01817 0.198605 1.03237e-20)
(0.99757 0.188475 1.46081e-20)
(0.881755 0.160275 0)
(0.615246 0.107674 2.06273e-20)
(0.311044 0.0528165 2.95894e-20)
(0.105748 0.0179147 3.29242e-20)
(0.0108283 0.00260829 -3.77647e-20)
(-0.00603146 -0.000466121 -7.20447e-22)
(0.283175 0.0424503 0)
(1.12727 0.168796 8.62025e-22)
(1.31804 0.213819 0)
(1.3648 0.234147 -3.93759e-21)
(1.3401 0.25051 0)
(1.28696 0.259854 -7.16602e-21)
(1.23395 0.266371 3.53939e-21)
(1.18162 0.269729 -1.25614e-20)
(1.12962 0.268786 -3.25451e-22)
(1.07901 0.262322 4.83964e-21)
(1.03819 0.251404 2.0667e-20)
(1.01369 0.240581 -3.01098e-23)
(1.00253 0.231683 -7.48286e-21)
(0.968589 0.217632 -1.36719e-20)
(0.818127 0.178484 1.62221e-20)
(0.526795 0.112543 -2.87219e-20)
(0.241337 0.0512511 -3.78499e-21)
(0.0664721 0.0152623 0)
(-0.00626838 0.000240489 -3.69984e-24)
(-0.00869391 -0.00120027 0)
(0.276544 0.0569956 8.34068e-21)
(1.15501 0.228661 -4.48896e-21)
(1.34307 0.279519 -3.99746e-21)
(1.38424 0.300197 1.77334e-21)
(1.35333 0.312649 -3.00102e-21)
(1.29581 0.317407 1.48532e-20)
(1.23829 0.319457 7.30336e-21)
(1.1813 0.318552 0)
(1.12477 0.313493 -2.38908e-20)
(1.06999 0.302976 0)
(1.02611 0.288648 -1.07524e-20)
(0.999793 0.275574 -1.341e-20)
(0.985513 0.264462 -8.10652e-21)
(0.93939 0.245391 -9.8891e-21)
(0.763992 0.195328 0)
(0.464635 0.117849 0)
(0.19803 0.0512653 -2.45191e-20)
(0.0413293 0.0128891 4.8408e-21)
(-0.0184452 -0.00252591 -2.85147e-21)
(-0.0108621 -0.00207938 -3.37804e-21)
(0.268471 0.0697147 -9.67958e-22)
(1.16748 0.288384 0)
(1.35713 0.346163 6.8974e-21)
(1.39515 0.367607 4.66244e-21)
(1.35997 0.376128 7.08223e-21)
(1.29928 0.376277 0)
(1.23829 0.373707 6.98187e-21)
(1.17755 0.368282 1.36958e-20)
(1.11722 0.35877 1.21084e-20)
(1.05884 0.34383 2.26045e-20)
(1.01231 0.32575 0)
(0.984403 0.310091 -2.87409e-20)
(0.967215 0.296348 -1.73798e-20)
(0.911128 0.271662 -1.02914e-20)
(0.719929 0.211377 6.3212e-20)
(0.422326 0.124017 7.50316e-21)
(0.170814 0.0520832 3.5336e-20)
(0.0239374 0.0102742 -1.67074e-19)
(-0.0285581 -0.00588675 9.89545e-20)
(-0.013065 -0.00315522 -1.20789e-19)
(0.260525 0.0810713 2.51632e-21)
(1.17006 0.345999 8.16591e-23)
(1.36316 0.411836 -4.39475e-22)
(1.39923 0.43438 -3.77137e-21)
(1.36099 0.439202 -5.40816e-21)
(1.29795 0.434892 3.60368e-22)
(1.23426 0.427809 -7.55803e-21)
(1.1705 0.417894 1.39946e-20)
(1.10699 0.403849 -2.59572e-20)
(1.04552 0.384333 0)
(0.996631 0.362238 -1.29536e-20)
(0.967303 0.343689 -3.05807e-22)
(0.947486 0.326917 -1.8972e-20)
(0.883959 0.296426 0)
(0.684752 0.226727 -1.36369e-20)
(0.394143 0.13086 -3.2318e-20)
(0.153613 0.0533034 8.59943e-20)
(0.0115054 0.00741531 -8.46832e-20)
(-0.0372952 -0.00978661 1.20388e-19)
(-0.0153512 -0.00444182 -1.26673e-19)
(0.253581 0.0914549 -1.11191e-22)
(1.16636 0.400786 8.70472e-22)
(1.36333 0.475489 3.54399e-22)
(1.39792 0.499401 1.05777e-21)
(1.35746 0.500859 -2.61837e-21)
(1.29264 0.492331 0)
(1.22681 0.480945 -6.79326e-21)
(1.16054 0.466692 -1.45577e-20)
(1.09431 0.448184 -1.34021e-20)
(1.0301 0.424054 0)
(0.979061 0.397812 -1.32995e-20)
(0.948381 0.376102 -1.65957e-20)
(0.926342 0.356046 2.04981e-20)
(0.85779 0.319697 -1.24697e-20)
(0.656352 0.241619 -5.91367e-20)
(0.375406 0.13819 3.50182e-20)
(0.143132 0.0548078 1.03679e-20)
(0.00321297 0.00442817 0)
(-0.0443152 -0.0140166 -1.1575e-19)
(-0.0175968 -0.00591076 -4.29563e-21)
(0.247826 0.101211 1.07151e-21)
(1.15869 0.452557 -1.52971e-21)
(1.35914 0.53657 -4.86353e-22)
(1.39246 0.562006 4.36504e-21)
(1.35033 0.560462 -8.77331e-21)
(1.28418 0.548043 1.25891e-20)
(1.2166 0.532632 1.46148e-20)
(1.1482 0.514252 -2.32063e-20)
(1.07956 0.491437 8.41147e-21)
(1.01284 0.462739 -5.5153e-20)
(0.959796 0.432297 -1.50993e-20)
(0.927773 0.407209 0)
(0.903766 0.383706 2.2199e-20)
(0.832044 0.341552 2.66251e-20)
(0.632559 0.256046 3.18024e-20)
(0.362519 0.145928 -3.78966e-20)
(0.13743 0.0567248 -1.12072e-20)
(-0.000998265 0.00180384 1.31776e-20)
(-0.0488805 -0.0180702 0)
(-0.0194738 -0.00742659 -9.29405e-21)
(0.243179 0.110428 -1.63826e-20)
(1.14879 0.501381 9.01278e-21)
(1.35189 0.594966 8.93886e-22)
(1.38387 0.621831 1.99351e-21)
(1.34043 0.617633 -3.41034e-21)
(1.27328 0.601663 -8.40618e-22)
(1.20426 0.582566 -1.60484e-20)
(1.13401 0.560335 -8.41437e-21)
(1.0632 0.533405 -2.32761e-20)
(0.994123 0.50028 6.07181e-23)
(0.939089 0.465622 -4.71044e-20)
(0.905687 0.437092 4.0082e-20)
(0.87986 0.409985 -2.43887e-20)
(0.805963 0.362328 2.92996e-20)
(0.611267 0.270191 0)
(0.352636 0.154014 -2.05773e-20)
(0.134973 0.0591936 6.04609e-23)
(-0.00189194 -2.0019e-05 -5.73575e-20)
(-0.0507313 -0.0214118 -8.45589e-21)
(-0.0206658 -0.00880204 0)
(0.23959 0.119369 0)
(1.13771 0.547501 1.03765e-20)
(1.34247 0.650878 4.31763e-21)
(1.37298 0.67872 -1.1423e-21)
(1.32847 0.672169 -5.00851e-21)
(1.26054 0.652997 0)
(1.19034 0.630555 -6.96739e-21)
(1.11845 0.604787 -2.15907e-22)
(1.04562 0.574002 4.99035e-20)
(0.974271 0.536625 -7.53891e-21)
(0.917224 0.497819 -3.40632e-20)
(0.882361 0.465798 2.08047e-20)
(0.854756 0.435056 -4.35441e-22)
(0.779463 0.382088 3.12425e-20)
(0.590935 0.283879 1.90149e-20)
(0.343751 0.162322 -4.43681e-20)
(0.133825 0.0622931 5.24822e-20)
(-0.0005278 -0.000808788 1.55658e-20)
(-0.0502322 -0.0237849 6.43655e-20)
(-0.0210753 -0.00988817 -1.74102e-19)
(0.236971 0.128186 -5.42473e-21)
(1.12623 0.591095 7.23942e-21)
(1.33152 0.703847 -4.85834e-21)
(1.36044 0.732633 -4.586e-22)
(1.31504 0.723978 0)
(1.2465 0.701934 -5.03896e-21)
(1.17529 0.676492 2.37991e-20)
(1.10194 0.647519 1.83481e-20)
(1.02721 0.613183 0)
(0.953596 0.57177 -1.09189e-19)
(0.89448 0.528919 9.24061e-20)
(0.858052 0.493409 0)
(0.828688 0.459061 2.8592e-20)
(0.752456 0.400935 -4.15755e-22)
(0.570485 0.297016 -6.13474e-20)
(0.334464 0.170614 2.39647e-20)
(0.13278 0.0658317 0)
(0.00204658 -0.000642489 8.41635e-20)
(-0.0479115 -0.0251322 0)
(-0.0207912 -0.010641 -8.256e-20)
(0.235219 0.136903 6.48532e-21)
(1.11482 0.632396 9.40155e-21)
(1.31951 0.75394 -4.81863e-21)
(1.3468 0.783594 0)
(1.30061 0.773054 -3.22013e-21)
(1.23161 0.74845 0)
(1.15953 0.720331 -2.29632e-20)
(1.08484 0.688489 -8.28926e-21)
(1.00829 0.650938 8.73234e-21)
(0.932396 0.605746 -5.41069e-20)
(0.871101 0.558973 9.53183e-21)
(0.833028 0.519977 0)
(0.801928 0.482012 -6.12622e-20)
(0.724846 0.418803 3.82114e-22)
(0.549233 0.309291 0)
(0.324125 0.178421 1.01831e-22)
(0.130993 0.0694501 7.70783e-20)
(0.00477787 0.000235781 -7.28717e-20)
(-0.0445872 -0.02555 2.15743e-20)
(-0.0199734 -0.0110312 0)
(0.233985 0.145476 0)
(1.10369 0.671592 1.13256e-20)
(1.30688 0.801274 7.0719e-21)
(1.33247 0.831676 -5.26676e-22)
(1.28559 0.819433 -2.40111e-22)
(1.21621 0.792554 -1.1373e-20)
(1.14338 0.762073 8.79196e-21)
(1.06746 0.727688 -1.00299e-20)
(0.989152 0.687262 3.93377e-20)
(0.910929 0.638601 -8.6835e-20)
(0.847306 0.588039 -8.97556e-22)
(0.807484 0.545536 -2.67896e-20)
(0.774653 0.503863 9.97172e-20)
(0.696821 0.435563 -4.88874e-22)
(0.527126 0.320452 -4.79647e-20)
(0.312252 0.18534 -8.4805e-20)
(0.127852 0.0728473 0)
(0.00695047 0.00148014 0)
(-0.041046 -0.0253448 2.33441e-20)
(-0.0188527 -0.0111472 -1.3869e-20)
(0.233415 0.154082 9.08746e-21)
(1.09307 0.70859 -2.56908e-20)
(1.29395 0.845952 -7.58665e-21)
(1.31779 0.876968 0)
(1.27028 0.863179 -3.08278e-22)
(1.20061 0.834287 -9.45506e-21)
(1.12713 0.801738 2.06333e-20)
(1.05006 0.765128 3.8938e-20)
(0.970042 0.722174 5.10998e-20)
(0.889427 0.670383 -7.10805e-20)
(0.823293 0.616203 -8.02201e-20)
(0.781574 0.57013 7.18659e-20)
(0.747024 0.524509 0)
(0.668449 0.45087 -2.19756e-20)
(0.503983 0.330146 -5.18719e-20)
(0.298983 0.190874 -6.1162e-20)
(0.123312 0.0755194 -7.21399e-20)
(0.00819795 0.00262675 2.13661e-20)
(-0.0377714 -0.0248567 -1.25908e-20)
(-0.0176414 -0.0110919 7.16847e-23)
(0.233085 0.162528 0)
(1.08318 0.743705 0)
(1.28094 0.888082 5.09797e-22)
(1.30299 0.919577 0)
(1.25494 0.904384 -1.98034e-21)
(1.18505 0.873718 5.60864e-21)
(1.111 0.839365 0)
(1.03288 0.800831 4.52165e-21)
(0.95118 0.755694 8.53746e-20)
(0.8681 0.701142 -1.64013e-19)
(0.799238 0.643564 0)
(0.755391 0.593821 -4.65425e-20)
(0.719044 0.543832 -5.7728e-22)
(0.639754 0.464395 -3.94264e-22)
(0.48006 0.337918 5.58512e-20)
(0.284636 0.194746 3.67622e-23)
(0.117598 0.0771661 -1.55745e-19)
(0.00854827 0.00342502 4.6023e-20)
(-0.0349396 -0.0242932 1.366e-20)
(-0.0164411 -0.0109223 0)
(0.232973 0.170765 -3.64254e-20)
(1.0738 0.77715 -1.73175e-20)
(1.26796 0.92774 -2.23679e-20)
(1.28827 0.95961 2.16414e-20)
(1.23976 0.943125 -6.59362e-21)
(1.16971 0.910915 0)
(1.09517 0.875006 1.21289e-20)
(1.01608 0.83483 -1.02364e-20)
(0.932746 0.787851 8.02397e-22)
(0.847151 0.730936 1.21826e-20)
(0.775298 0.670229 1.04726e-19)
(0.728997 0.616714 -1.63637e-20)
(0.690674 0.561779 -6.20615e-20)
(0.610728 0.475792 -2.57497e-20)
(0.455752 0.343216 3.02566e-20)
(0.269733 0.1965 5.85831e-23)
(0.111294 0.0775744 4.20231e-20)
(0.00827944 0.00377696 -9.92228e-20)
(-0.0326005 -0.0237711 1.17758e-19)
(-0.015349 -0.0107176 1.73792e-20)
(0.232887 0.178756 1.38332e-20)
(1.06491 0.808999 -9.74997e-21)
(1.25516 0.965056 1.30767e-21)
(1.27378 0.997191 1.39412e-20)
(1.22488 0.979515 2.79261e-21)
(1.15473 0.945953 -9.10865e-21)
(1.0798 0.908715 3.21857e-21)
(0.999803 0.867153 -4.26203e-20)
(0.914902 0.818655 -9.44898e-20)
(0.826744 0.759792 -9.83391e-20)
(0.751635 0.696306 0)
(0.702436 0.638956 -7.24111e-20)
(0.661762 0.578375 8.98655e-20)
(0.581126 0.484703 0)
(0.431259 0.345402 -6.50408e-20)
(0.254797 0.195505 3.85044e-20)
(0.105422 0.0764921 -4.52964e-20)
(0.0081184 0.00384704 -5.35002e-20)
(-0.0307116 -0.023222 -9.49961e-20)
(-0.0144837 -0.010541 -7.50236e-20)
(0.233137 0.186628 -1.56782e-20)
(1.05637 0.839248 1.04457e-20)
(1.24262 1.0001 2.35975e-20)
(1.25965 1.0324 2.04457e-20)
(1.21042 1.01365 -5.05854e-21)
(1.14022 0.978923 -3.90948e-21)
(1.06497 0.940545 1.10525e-20)
(0.984166 0.897845 -4.36419e-20)
(0.897759 0.848134 -5.61914e-20)
(0.807026 0.787738 1.03437e-19)
(0.728396 0.721888 2.32045e-19)
(0.675758 0.660741 0)
(0.632138 0.593776 0)
(0.550536 0.490916 -2.97335e-20)
(0.406344 0.343675 0)
(0.24082 0.190525 8.27958e-20)
(0.101975 0.0727528 9.74633e-20)
(0.010398 0.00326116 0)
(-0.0284792 -0.0227429 0)
(-0.0141602 -0.0106178 8.07859e-20)
(0.23314 0.194051 1.78423e-20)
(1.04823 0.867907 1.41188e-20)
(1.23044 1.03298 1.71709e-20)
(1.24593 1.06538 -1.97534e-20)
(1.19646 1.04565 -6.85845e-21)
(1.12627 1.0099 2.49614e-21)
(1.05078 0.970556 -1.50497e-20)
(0.96925 0.926935 -1.96237e-22)
(0.881419 0.876295 -1.05579e-21)
(0.788126 0.814779 -7.7187e-22)
(0.705747 0.747053 1.20002e-19)
(0.649052 0.682261 0)
(0.601655 0.608272 9.19646e-20)
(0.518367 0.494487 6.39018e-20)
(0.380146 0.337343 1.52571e-19)
(0.227643 0.179228 4.47702e-20)
(0.103589 0.0623255 -5.25029e-20)
(0.0217499 -0.00358969 -3.09443e-20)
(-0.0176766 -0.0246674 0)
(-0.0127447 -0.0107596 8.70205e-20)
(0.233568 0.201514 -4.04024e-20)
(1.04043 0.895095 0)
(1.2186 1.06376 2.02608e-20)
(1.23267 1.09621 -1.6784e-20)
(1.18306 1.0756 9.58067e-21)
(1.11291 1.03897 6.97641e-23)
(1.03727 0.998803 2.80513e-20)
(0.95511 0.954457 -3.60671e-21)
(0.865947 0.903148 0)
(0.770152 0.840895 -1.14922e-19)
(0.683851 0.771848 -2.62357e-19)
(0.622442 0.703715 1.08369e-20)
(0.570261 0.622228 1.28049e-19)
(0.484074 0.495902 0)
(0.351016 0.326498 1.03505e-19)
(0.212227 0.159152 0)
(0.107873 0.0349581 0)
(0.0501709 -0.0369263 -3.34661e-20)
(0.0345088 -0.0422114 0)
(0.0219048 0.00104343 2.33788e-20)
(0.233602 0.208437 -4.51763e-20)
(1.03294 0.921082 0)
(1.2071 1.09265 3.38584e-20)
(1.21983 1.12513 0)
(1.17019 1.10378 -5.91647e-21)
(1.10009 1.06643 0)
(1.02439 1.02559 1.14717e-21)
(0.941653 0.980743 6.06057e-21)
(0.851223 0.929049 7.14856e-21)
(0.75293 0.866449 -1.2655e-19)
(0.662512 0.796722 7.87892e-21)
(0.595603 0.725788 8.79217e-20)
(0.537374 0.636481 1.25542e-19)
(0.44649 0.495912 1.68766e-20)
(0.316517 0.312493 8.16109e-20)
(0.187954 0.130722 0)
(0.0989903 -0.0134635 1.10806e-19)
(0.0581989 -0.0690544 -6.50621e-20)
(0.0272239 0.0442813 7.60913e-20)
(-0.0386993 0.45922 -9.04045e-20)
(0.233623 0.215212 3.74614e-20)
(1.02554 0.945719 5.65398e-20)
(1.19586 1.11996 0)
(1.20725 1.1526 1.01401e-21)
(1.15764 1.13076 1.76778e-20)
(1.08754 1.09295 -7.86638e-21)
(1.01182 1.05172 9.00611e-21)
(0.928455 1.00673 0)
(0.836696 0.955082 4.68434e-20)
(0.735755 0.892732 -6.54938e-21)
(0.640769 0.823146 0)
(0.567133 0.750115 0)
(0.500698 0.652199 1.13203e-19)
(0.402689 0.494792 -5.23218e-20)
(0.273118 0.297012 -8.33052e-20)
(0.149395 0.0968087 0)
(0.0591408 0.0135009 5.64771e-20)
(0.00417874 0.457275 -6.54731e-20)
(0.0293007 1.93683 -3.67364e-20)
(0.0556119 2.82962 -4.51181e-20)
(0.233351 0.221463 -2.82282e-20)
(1.01829 0.969182 -7.27441e-20)
(1.1849 1.1457 2.01913e-20)
(1.19496 1.17848 1.65121e-20)
(1.14549 1.15636 0)
(1.07536 1.11826 -7.69867e-21)
(0.999763 1.07687 1.11033e-20)
(0.91572 1.03198 -2.89102e-21)
(0.822667 0.980739 7.06551e-21)
(0.719045 0.919159 1.21005e-19)
(0.619282 0.850512 1.34265e-19)
(0.53804 0.776636 9.9863e-20)
(0.460975 0.669813 1.14783e-19)
(0.35363 0.492042 -1.24202e-19)
(0.226173 0.284203 -1.2679e-19)
(0.100539 0.156184 0)
(0.0363834 0.901743 0)
(0.0828908 2.5896 3.13932e-20)
(0.0859898 3.21588 0)
(0.0877349 3.39066 8.17661e-20)
(0.235892 0.227341 0)
(1.01151 0.991864 0)
(1.17392 1.16973 0)
(1.18275 1.20264 5.01072e-21)
(1.13339 1.18032 1.6255e-20)
(1.06335 1.14222 -8.2625e-21)
(0.988161 1.10096 6.69967e-21)
(0.903382 1.05638 -2.79413e-21)
(0.80907 1.00584 5.82667e-20)
(0.702793 0.945565 -1.66307e-21)
(0.598152 0.878623 2.66482e-19)
(0.508701 0.80545 -1.16196e-20)
(0.418089 0.690393 1.4036e-20)
(0.30096 0.486135 1.81128e-20)
(0.168017 0.302052 -6.84033e-22)
(0.0842967 1.0236 3.49731e-22)
(0.118609 2.772 -1.68281e-19)
(0.12315 3.30225 -6.33451e-20)
(0.11474 3.4233 3.33687e-20)
(0.105132 3.44287 -3.76883e-20)
(0.159182 0.173013 1.72728e-20)
(1.0005 1.01652 0)
(1.1627 1.19225 -4.14556e-20)
(1.17104 1.22553 -4.51755e-20)
(1.12178 1.20313 3.84051e-20)
(1.05221 1.16532 9.67394e-21)
(0.9768 1.12399 -6.30981e-21)
(0.891472 1.07996 2.93776e-20)
(0.795986 1.03048 -4.76779e-20)
(0.687228 0.97207 0)
(0.577693 0.907554 1.31768e-19)
(0.47966 0.836364 -8.21533e-20)
(0.375619 0.720007 0)
(0.240027 0.482112 1.76903e-20)
(0.121462 0.730468 4.17319e-20)
(0.133225 2.57967 -4.69773e-20)
(0.180014 3.32757 5.32283e-20)
(0.163799 3.43218 2.85916e-20)
(0.136491 3.45104 3.23772e-20)
(0.117926 3.45988 5.14654e-20)
(0.27042 0.26488 -3.33384e-20)
(0.982599 1.02639 0)
(1.14408 1.21805 4.47444e-20)
(1.15599 1.25671 4.97383e-20)
(1.10394 1.23678 -4.31119e-20)
(1.03377 1.19931 -1.45763e-20)
(0.957152 1.15953 2.55897e-21)
(0.871187 1.11678 2.34929e-21)
(0.774099 1.06953 4.48875e-20)
(0.662024 1.01525 1.04804e-19)
(0.545941 0.95697 7.3809e-21)
(0.434606 0.888046 7.35453e-20)
(0.29513 0.747874 1.33986e-20)
(0.199557 0.890228 -1.7087e-20)
(0.205712 2.45998 -3.8226e-20)
(0.256814 3.33041 3.74492e-20)
(0.239664 3.45591 -4.09574e-20)
(0.205954 3.47505 -2.35309e-20)
(0.172951 3.49974 -2.11353e-20)
(0.128156 3.4952 -3.07083e-21)
(0.260529 0.263721 0)
(0.979494 1.04916 1.29825e-20)
(1.13508 1.24165 -9.20599e-21)
(1.14465 1.28034 -5.91861e-21)
(1.09256 1.26013 -2.97538e-20)
(1.02236 1.22285 1.51317e-20)
(0.945388 1.18328 -2.48979e-23)
(0.8591 1.14137 2.057e-21)
(0.761239 1.09565 -4.64685e-20)
(0.647389 1.04436 -2.70883e-21)
(0.52751 0.990986 -2.38746e-19)
(0.408729 0.924268 1.0569e-20)
(0.274965 0.821352 -1.2709e-20)
(0.235327 1.53472 -1.57205e-20)
(0.299013 3.14425 3.66927e-21)
(0.311185 3.457 1.69849e-22)
(0.270178 3.50403 6.04348e-20)
(0.236655 3.52809 3.04331e-20)
(0.191174 3.54842 -9.50268e-21)
(0.141558 3.54543 -1.51262e-20)
(0.246541 0.261705 3.32015e-20)
(0.975462 1.07446 8.79803e-20)
(1.12574 1.26734 -2.62575e-20)
(1.13294 1.3056 -2.22519e-20)
(1.08071 1.28496 0)
(1.01057 1.2477 2.74455e-20)
(0.933522 1.2084 3.04632e-21)
(0.847169 1.1673 1.73943e-21)
(0.748853 1.12323 -5.23669e-21)
(0.633785 1.07526 -9.42617e-20)
(0.511087 1.02745 -1.10017e-19)
(0.385848 0.961832 -8.63761e-20)
(0.27733 0.970823 -9.56603e-20)
(0.301789 2.31898 9.87232e-20)
(0.380477 3.3851 8.30189e-20)
(0.351041 3.51243 0)
(0.303561 3.55011 0)
(0.267154 3.5842 -7.49097e-21)
(0.223891 3.62923 0)
(0.154574 3.61467 -1.13047e-20)
(0.236718 0.263597 -4.94834e-20)
(0.969506 1.10062 -7.44728e-20)
(1.115 1.29427 0)
(1.11996 1.33169 1.23369e-21)
(1.0676 1.31045 -3.21569e-20)
(0.997689 1.27314 4.45816e-20)
(0.920897 1.23415 3.74614e-21)
(0.834711 1.1938 6.96015e-22)
(0.736203 1.15136 -3.17689e-20)
(0.62037 1.10677 4.61236e-21)
(0.495847 1.06463 0)
(0.365183 1.00318 0)
(0.299445 1.27088 -8.6697e-20)
(0.382152 2.97792 3.52534e-20)