/*--------------------------------*- C++ -*----------------------------------*\
  =========                 |
  \\      /  F ield         | OpenFOAM: The Open Source CFD Toolbox
   \\    /   O peration     | Website:  https://openfoam.org
    \\  /    A nd           | Version:  6
     \\/     M anipulation  |
\*---------------------------------------------------------------------------*/
FoamFile
{
    version     2.0;
    format      ascii;
    class       volVectorField;
    location    "115";
    object      U;
}
// * * * * * * * * * * * * * * * * * * * * * * * * * * * * * * * * * * * * * //

dimensions      [0 1 -1 0 0 0 0];

internalField   nonuniform List<vector> 
8800
(
(0.987183 -0.0766652 0)
(1.00189 -0.0551903 0)
(0.999719 -0.0285485 0)
(1.00003 -0.0151444 0)
(1.0001 -0.00854733 0)
(1.00013 -0.00505086 0)
(1.00008 -0.00300472 0)
(1.00002 -0.00170232 0)
(0.99999 -0.000794428 0)
(1.00006 -7.43062e-05 0)
(0.999969 0.00066055 0)
(1.00004 0.0014239 0)
(1.00007 0.00242351 0)
(1.00007 0.00399651 0)
(1.00006 0.00663175 0)
(1.00006 0.0113717 0)
(0.999967 0.0208157 0)
(0.999178 0.0386703 0)
(1.0071 0.0724575 0)
(0.771215 0.0366618 0)
(0.363084 -0.0160159 0)
(1.04332 -0.0768091 0)
(1.08459 -0.0704359 0)
(1.04519 -0.0535291 0)
(1.0233 -0.0388801 0)
(1.01204 -0.026202 0)
(1.00644 -0.0168373 0)
(1.0036 -0.0102985 0)
(1.00215 -0.00563105 0)
(1.00143 -0.00196555 0)
(1.00128 0.00136168 0)
(1.00169 0.00475156 0)
(1.00271 0.00865958 0)
(1.00468 0.013981 0)
(1.00861 0.0216903 0)
(1.01658 0.0326561 0)
(1.03253 0.0465668 0)
(1.0627 0.0616825 0)
(1.09186 0.0761079 0)
(0.838661 0.0565655 0)
(0.216885 -0.00242819 0)
(1.07593 -0.0501166 0)
(1.09989 -0.0482825 0)
(1.06466 -0.0404303 0)
(1.04006 -0.0335677 0)
(1.02395 -0.0260393 0)
(1.01414 -0.0184436 0)
(1.00857 -0.0116084 0)
(1.00558 -0.00572628 0)
(1.0043 -0.000297522 0)
(1.00465 0.00495926 0)
(1.00664 0.0103412 0)
(1.01064 0.0163916 0)
(1.01794 0.0234124 0)
(1.03053 0.030873 0)
(1.05063 0.0378937 0)
(1.08038 0.0445721 0)
(1.10627 0.0513782 0)
(0.942483 0.0416347 0)
(0.216102 0.0024635 0)
(0.175239 -0.000814477 0)
(1.01778 -0.0354546 0)
(1.10524 -0.0413324 0)
(1.0783 -0.0360069 0)
(1.05352 -0.030064 0)
(1.03626 -0.0244758 0)
(1.02404 -0.0187273 0)
(1.01591 -0.0126244 0)
(1.01102 -0.0064158 0)
(1.00879 -6.44214e-05 0)
(1.00936 0.00620485 0)
(1.01269 0.0121898 0)
(1.01889 0.0179712 0)
(1.02875 0.0235383 0)
(1.04317 0.0288292 0)
(1.0637 0.0342971 0)
(1.09356 0.0402714 0)
(1.09338 0.0420171 0)
(0.827001 0.0229391 0)
(0.173919 0.000855649 0)
(0.154075 -0.000608055 0)
(0.956375 -0.0254165 0)
(1.10355 -0.0350568 0)
(1.08775 -0.0325639 0)
(1.06181 -0.0278983 0)
(1.0442 -0.0228556 0)
(1.03171 -0.0175803 0)
(1.02284 -0.0120173 0)
(1.01699 -0.00605291 0)
(1.0141 0.000439031 0)
(1.01477 0.0069183 0)
(1.01881 0.0127829 0)
(1.0258 0.0180108 0)
(1.03604 0.0229167 0)
(1.05059 0.0276603 0)
(1.07183 0.0321689 0)
(1.10004 0.0360858 0)
(1.06796 0.0341156 0)
(0.739236 0.0143495 0)
(0.152081 0.000654876 0)
(0.139751 -0.000463875 0)
(0.899628 -0.0190202 0)
(1.09596 -0.0299777 0)
(1.09586 -0.0290611 0)
(1.06939 -0.0253107 0)
(1.05095 -0.0211448 0)
(1.03799 -0.0163337 0)
(1.02885 -0.0110056 0)
(1.02269 -0.00522455 0)
(1.01949 0.0011326 0)
(1.02009 0.00746625 0)
(1.02425 0.0130762 0)
(1.03134 0.0179606 0)
(1.04179 0.0224107 0)
(1.05689 0.0263551 0)
(1.07909 0.0297871 0)
(1.10218 0.0323876 0)
(1.0357 0.028238 0)
(0.672455 0.0102594 0)
(0.136928 0.000517917 0)
(0.129271 -0.000357938 0)
(0.850252 -0.0146412 0)
(1.0837 -0.0258098 0)
(1.10162 -0.0260631 0)
(1.0763 -0.0227508 0)
(1.05733 -0.0190716 0)
(1.04391 -0.0147761 0)
(1.0344 -0.00979881 0)
(1.02798 -0.00421748 0)
(1.02458 0.00196966 0)
(1.02501 0.00809613 0)
(1.02912 0.0134232 0)
(1.0363 0.0178811 0)
(1.047 0.0217225 0)
(1.0625 0.0249954 0)
(1.08513 0.0278991 0)
(1.10117 0.0296172 0)
(1.00054 0.0237638 0)
(0.620334 0.00790985 0)
(0.125437 0.000421533 0)
(0.121304 -0.000276585 0)
(0.808392 -0.0114637 0)
(1.06861 -0.0221578 0)
(1.10525 -0.0233676 0)
(1.08264 -0.0204588 0)
(1.06325 -0.0169838 0)
(1.04954 -0.0129821 0)
(1.03974 -0.0083286 0)
(1.03302 -0.00300573 0)
(1.02934 0.00297393 0)
(1.02957 0.00885969 0)
(1.03363 0.0138326 0)
(1.04083 0.0178021 0)
(1.05161 0.0211321 0)
(1.06732 0.0239859 0)
(1.09029 0.0265804 0)
(1.09724 0.0273864 0)
(0.964927 0.0202744 0)
(0.578307 0.00639327 0)
(0.116241 0.000352245 0)
(0.115165 -0.000212545 0)
(0.773281 -0.00907828 0)
(1.05211 -0.01893 0)
(1.10777 -0.0208559 0)
(1.08861 -0.0183067 0)
(1.06883 -0.0149633 0)
(1.05488 -0.011108 0)
(1.04487 -0.0066482 0)
(1.03787 -0.00154996 0)
(1.03388 0.00419023 0)
(1.03386 0.00978511 0)
(1.03778 0.0143741 0)
(1.04488 0.0179066 0)
(1.05562 0.0208456 0)
(1.07151 0.023365 0)
(1.09412 0.0256018 0)
(1.09039 0.0255716 0)
(0.930128 0.0176065 0)
(0.54334 0.00536781 0)
(0.108606 0.000303033 0)
(0.110422 -0.000160667 0)
(0.743989 -0.00721719 0)
(1.03528 -0.0160544 0)
(1.10939 -0.018471 0)
(1.09432 -0.0162137 0)
(1.07425 -0.0129464 0)
(1.06002 -0.0091616 0)
(1.0498 -0.00480307 0)
(1.04256 0.000141313 0)
(1.03824 0.00565682 0)
(1.03789 0.0109497 0)
(1.04155 0.0151702 0)
(1.04846 0.0183126 0)
(1.05913 0.0209029 0)
(1.0752 0.0231208 0)
(1.09663 0.0249635 0)
(1.081 0.0241322 0)
(0.896682 0.015612 0)
(0.51336 0.00466469 0)
(0.102048 0.000269223 0)
(0.106796 -0.000117148 0)
(0.719712 -0.00570577 0)
(1.01894 -0.0134579 0)
(1.11024 -0.0161477 0)
(1.09996 -0.0141443 0)
(1.07962 -0.0108698 0)
(1.06509 -0.00709226 0)
(1.05463 -0.00277161 0)
(1.0471 0.00208244 0)
(1.0424 0.00741941 0)
(1.04163 0.0124374 0)
(1.04497 0.0163118 0)
(1.05162 0.0190803 0)
(1.0622 0.0213334 0)
(1.07842 0.0232711 0)
(1.09771 0.0246808 0)
(1.06943 0.0230701 0)
(0.864666 0.014176 0)
(0.486888 0.00419426 0)
(0.0962176 0.000247817 0)
(0.104102 -7.89724e-05 0)
(0.699822 -0.004427 0)
(1.00374 -0.0110712 0)
(1.11049 -0.0138489 0)
(1.10548 -0.0120125 0)
(1.08503 -0.00867738 0)
(1.07018 -0.00484412 0)
(1.05942 -0.000496777 0)
(1.05154 0.00432834 0)
(1.04639 0.00954135 0)
(1.04511 0.0143226 0)
(1.04805 0.0178684 0)
(1.05439 0.0202686 0)
(1.06483 0.0221907 0)
(1.08117 0.0238494 0)
(1.0977 0.0249124 0)
(1.05588 0.0224054 0)
(0.833868 0.0132175 0)
(0.462799 0.00390279 0)
(0.0908484 0.000236463 0)
(0.102226 -4.33931e-05 0)
(0.683866 -0.00329266 0)
(0.990144 -0.00882178 0)
(1.11037 -0.0114849 0)
(1.11088 -0.00973239 0)
(1.09057 -0.00630449 0)
(1.07536 -0.00235017 0)
(1.06426 0.00209453 0)
(1.05595 0.00695774 0)
(1.05023 0.012103 0)
(1.04835 0.0166832 0)
(1.0508 0.0199136 0)
(1.05677 0.0219452 0)
(1.06704 0.0235344 0)
(1.08338 0.0248944 0)
(1.09677 0.02548 0)
(1.04047 0.022148 0)
(0.803894 0.0126606 0)
(0.440193 0.0037518 0)
(0.0857285 0.000233006 0)
(0.101112 -8.07897e-06 0)
(0.671562 -0.00223189 0)
(0.978523 -0.00663303 0)
(1.11022 -0.00899769 0)
(1.1163 -0.00724183 0)
(1.09631 -0.0036726 0)
(1.08071 0.000472005 0)
(1.0692 0.00508807 0)
(1.06038 0.0100618 0)
(1.05398 0.0151994 0)
(1.05136 0.0196145 0)
(1.05322 0.0225396 0)
(1.05877 0.0242056 0)
(1.06883 0.0254528 0)
(1.08514 0.0265134 0)
(1.09445 0.0265601 0)
(1.02319 0.0223074 0)
(0.774252 0.0124615 0)
(0.418335 0.00371736 0)
(0.0806898 0.000236175 0)
(0.100754 2.89824e-05 0)
(0.662776 -0.00118782 0)
(0.96921 -0.00443046 0)
(1.11037 -0.00632573 0)
(1.1219 -0.00446637 0)
(1.10237 -0.00069172 0)
(1.08634 0.0037192 0)
(1.07434 0.00858604 0)
(1.0649 0.0137479 0)
(1.05768 0.0189421 0)
(1.05416 0.0232289 0)
(1.05532 0.0258632 0)
(1.06036 0.0271641 0)
(1.07016 0.0280469 0)
(1.08632 0.028767 0)
(1.09067 0.0281742 0)
(1.00393 0.0229304 0)
(0.744377 0.0125967 0)
(0.396589 0.00378626 0)
(0.0755883 0.000245233 0)
(0.101175 6.38658e-05 0)
(0.657508 -0.000103179 0)
(0.96252 -0.00213677 0)
(1.1112 -0.00340087 0)
(1.12784 -0.00131975 0)
(1.10884 0.00274101 0)
(1.09234 0.00750382 0)
(1.07977 0.0127101 0)
(1.06957 0.0181458 0)
(1.06136 0.0234657 0)
(1.05677 0.0276604 0)
(1.0571 0.0300222 0)
(1.06154 0.0309451 0)
(1.071 0.0314422 0)
(1.08663 0.0317808 0)
(1.08508 0.0304168 0)
(0.982402 0.024057 0)
(0.71363 0.0130508 0)
(0.374368 0.00394804 0)
(0.0702976 0.00025921 0)
(0.102447 0.000120783 0)
(0.655925 0.00107491 0)
(0.958786 0.000327345 0)
(1.11308 -0.000143174 0)
(1.13433 0.00229961 0)
(1.11586 0.00674698 0)
(1.09883 0.0119607 0)
(1.08557 0.0176074 0)
(1.07446 0.0234111 0)
(1.06506 0.0289299 0)
(1.05919 0.0330682 0)
(1.05853 0.0351675 0)
(1.06226 0.0356887 0)
(1.0713 0.0357776 0)
(1.0859 0.0356941 0)
(1.07742 0.0333764 0)
(0.958201 0.0257262 0)
(0.6813 0.013812 0)
(0.351123 0.00419217 0)
(0.0647084 0.000276989 0)
(0.104706 0.000171021 0)
(0.658069 0.00222874 0)
(0.958379 0.00305603 0)
(1.1165 0.00355872 0)
(1.1416 0.00651125 0)
(1.12359 0.0114715 0)
(1.10597 0.0172542 0)
(1.09188 0.0234586 0)
(1.07966 0.0297339 0)
(1.06881 0.0355235 0)
(1.06142 0.0396297 0)
(1.05962 0.041444 0)
(1.06247 0.0415576 0)
(1.07101 0.0412151 0)
(1.08393 0.0405765 0)
(1.0673 0.0371596 0)
(0.930753 0.0279827 0)
(0.646623 0.0148687 0)
(0.326347 0.00450661 0)
(0.0587336 0.00029721 0)
(0.108113 0.000236485 0)
(0.66473 0.00371696 0)
(0.961615 0.00603506 0)
(1.12191 0.00783297 0)
(1.14993 0.0114477 0)
(1.13222 0.0170993 0)
(1.1139 0.0235906 0)
(1.09881 0.0304867 0)
(1.08523 0.0373438 0)
(1.07266 0.0434713 0)
(1.06346 0.0475532 0)
(1.06033 0.0490886 0)
(1.06214 0.0487447 0)
(1.07009 0.0479342 0)
(1.0807 0.0466515 0)
(1.0542 0.0418902 0)
(0.8993 0.0308572 0)
(0.60877 0.0161944 0)
(0.299584 0.00487254 0)
(0.0523134 0.000317828 0)
(0.112935 0.000325427 0)
(0.676311 0.00548678 0)
(0.969081 0.00956383 0)
(1.12983 0.0128521 0)
(1.15963 0.0173296 0)
(1.142 0.0238733 0)
(1.12283 0.0312386 0)
(1.1065 0.0389762 0)
(1.09126 0.046525 0)
(1.0766 0.0530388 0)
(1.06527 0.0570757 0)
(1.06055 0.0583253 0)
(1.06124 0.0574576 0)
(1.06845 0.0561381 0)
(1.07612 0.0540952 0)
(1.03743 0.04767 0)
(0.862884 0.0343439 0)
(0.566879 0.0177334 0)
(0.270467 0.00525898 0)
(0.04543 0.000335917 0)
(0.119542 0.000443896 0)
(0.693595 0.00770055 0)
(0.981625 0.0138713 0)
(1.14085 0.0188483 0)
(1.17112 0.0244324 0)
(1.15322 0.0321217 0)
(1.13297 0.0405565 0)
(1.11508 0.049295 0)
(1.0978 0.0576288 0)
(1.08062 0.0645347 0)
(1.06679 0.0684584 0)
(1.06017 0.0693059 0)
(1.05971 0.0679057 0)
(1.0662 0.0660243 0)
(1.0698 0.0630929 0)
(1.01603 0.0545559 0)
(0.820338 0.0383764 0)
(0.520123 0.0193804 0)
(0.238802 0.00561865 0)
(0.0381275 0.000347668 0)
(0.128469 0.000609289 0)
(0.717588 0.0105886 0)
(1.00014 0.0192498 0)
(1.15562 0.0261748 0)
(1.18488 0.0331359 0)
(1.16624 0.042308 0)
(1.14457 0.0520363 0)
(1.12467 0.0619259 0)
(1.10483 0.0710875 0)
(1.08465 0.0783112 0)
(1.06794 0.0819751 0)
(1.05918 0.082302 0)
(1.0575 0.0802847 0)
(1.06296 0.0777571 0)
(1.06112 0.0736407 0)
(0.988736 0.062541 0)
(0.770311 0.0427728 0)
(0.467833 0.0209571 0)
(0.20467 0.00588565 0)
(0.0305323 0.000348636 0)
(0.14054 0.000852258 0)
(0.749688 0.0145464 0)
(1.0257 0.0261538 0)
(1.17495 0.0353823 0)
(1.20158 0.0440869 0)
(1.18147 0.0551256 0)
(1.15783 0.0663783 0)
(1.1353 0.0775105 0)
(1.11228 0.087424 0)
(1.08853 0.0947519 0)
(1.06857 0.0978935 0)
(1.05751 0.097525 0)
(1.05465 0.0948501 0)
(1.0584 0.0916136 0)
(1.04912 0.0859308 0)
(0.953873 0.0714368 0)
(0.711364 0.0471789 0)
(0.409724 0.0221975 0)
(0.168569 0.00597893 0)
(0.0228691 0.000334502 0)
(0.157087 0.00123256 0)
(0.791915 0.0202259 0)
(1.05997 0.0353807 0)
(1.19982 0.0474552 0)
(1.2221 0.0586632 0)
(1.19929 0.0716601 0)
(1.17285 0.0845898 0)
(1.14684 0.0968766 0)
(1.11988 0.107244 0)
(1.09201 0.114244 0)
(1.06847 0.116451 0)
(1.05501 0.115143 0)
(1.05108 0.111708 0)
(1.05247 0.107732 0)
(1.03249 0.0998686 0)
(0.909283 0.0807976 0)
(0.642225 0.0510178 0)
(0.346246 0.0227581 0)
(0.131539 0.00581754 0)
(0.0154603 0.000302318 0)
(0.180401 0.00189402 0)
(0.847535 0.0288143 0)
(1.10585 0.0485476 0)
(1.23129 0.0642242 0)
(1.24691 0.0784844 0)
(1.21981 0.0936111 0)
(1.18937 0.108052 0)
(1.15886 0.121014 0)
(1.12719 0.131177 0)
(1.0947 0.13714 0)
(1.06737 0.137827 0)
(1.05151 0.135248 0)
(1.04658 0.130913 0)
(1.04483 0.12594 0)
(1.00922 0.115086 0)
(0.852343 0.0898093 0)
(0.562353 0.05348 0)
(0.279061 0.0222847 0)
(0.0952292 0.00534711 0)
(0.00870228 0.000250965 0)
(0.214029 0.00336031 0)
(0.922458 0.0431164 0)
(1.16635 0.0696082 0)
(1.26968 0.0891887 0)
(1.27588 0.106745 0)
(1.24243 0.123455 0)
(1.20655 0.138449 0)
(1.17052 0.150943 0)
(1.13353 0.159773 0)
(1.09612 0.163688 0)
(1.06496 0.16211 0)
(1.04678 0.157842 0)
(1.04102 0.152479 0)
(1.03451 0.146206 0)
(0.976374 0.130832 0)
(0.780224 0.0971507 0)
(0.47313 0.0536629 0)
(0.21173 0.0206092 0)
(0.0619378 0.00458041 0)
(0.00306151 0.000180878 0)
(0.259932 0.00991505 1.80383e-20)
(1.0204 0.0714439 1.53147e-20)
(1.2389 0.105493 -5.25239e-21)
(1.31231 0.126543 0)
(1.306 0.147281 -1.24073e-34)
(1.26486 0.163642 1.78912e-21)
(1.22278 0.177345 -3.07961e-21)
(1.18078 0.187908 0)
(1.13816 0.194331 6.03801e-35)
(1.0956 0.195457 -3.53976e-21)
(1.06046 0.191242 0)
(1.04024 0.18541 -4.09988e-21)
(1.03447 0.17975 -1.20319e-20)
(1.01887 0.172098 -5.67259e-21)
(0.927229 0.148735 -1.69468e-21)
(0.68424 0.102569 -1.00315e-21)
(0.370194 0.0511796 0)
(0.14418 0.0180187 7.005e-22)
(0.0317971 0.00362981 8.29601e-22)
(-0.00157122 5.96004e-05 1.51921e-20)
(0.292327 0.0258716 1.49302e-20)
(1.10211 0.116314 1.21715e-22)
(1.29877 0.156583 1.47814e-21)
(1.35143 0.177807 0)
(1.33283 0.198435 -6.51223e-21)
(1.28463 0.212816 -7.2233e-21)
(1.23652 0.224437 -3.15764e-21)
(1.18861 0.232843 -1.07842e-20)
(1.14035 0.236993 0)
(1.09249 0.235671 1.50031e-20)
(1.05313 0.229201 1.46673e-20)
(1.03001 0.22179 4.30416e-21)
(1.02133 0.21557 1.55282e-20)
(0.98802 0.20295 2.16896e-20)
(0.844507 0.166521 0)
(0.550161 0.104569 3.03058e-20)
(0.254224 0.0464547 4.3415e-20)
(0.0783784 0.0141839 4.82964e-20)
(0.00453774 0.00160886 -5.53947e-20)
(-0.00549689 -0.000455488 -1.05756e-21)
(0.294845 0.044288 0)
(1.15549 0.174174 2.9855e-21)
(1.34063 0.219048 0)
(1.38245 0.240265 -9.61931e-21)
(1.35452 0.257533 0)
(1.30039 0.268049 -1.4577e-20)
(1.24666 0.276052 6.51722e-21)
(1.19323 0.281108 -2.20329e-20)
(1.13971 0.282069 -3.36562e-22)
(1.087 0.277637 7.78283e-21)
(1.04391 0.268558 3.18414e-20)
(1.01829 0.259399 -2.15701e-23)
(1.00547 0.251486 -1.1188e-20)
(0.951867 0.232522 -2.01314e-20)
(0.762966 0.180688 2.37554e-20)
(0.445895 0.10321 -4.19591e-20)
(0.182734 0.041481 -5.50934e-21)
(0.0423464 0.010515 0)
(-0.00911608 -0.000619169 -3.05931e-24)
(-0.00722261 -0.001026 0)
(0.288753 0.0596752 4.97562e-20)
(1.18597 0.23597 -2.24747e-20)
(1.36783 0.286416 -1.50598e-20)
(1.40368 0.307834 4.78992e-21)
(1.36945 0.320928 -7.85629e-21)
(1.31096 0.32688 3.05902e-20)
(1.25271 0.3305 1.36155e-20)
(1.19462 0.331458 0)
(1.13654 0.32857 -3.98033e-20)
(1.07961 0.320501 0)
(1.03329 0.308496 -1.66674e-20)
(1.00544 0.297371 -2.02228e-20)
(0.987679 0.286834 -1.2052e-20)
(0.913873 0.259778 -1.44798e-20)
(0.689924 0.191974 0)
(0.370004 0.101777 0)
(0.136652 0.037769 -3.55231e-20)
(0.0200258 0.00712753 7.00265e-21)
(-0.0174504 -0.00294327 -4.13712e-21)
(-0.00823875 -0.00161635 -4.9e-21)
(0.280975 0.0730838 -2.72205e-20)
(1.20086 0.297721 0)
(1.38391 0.354793 3.4239e-20)
(1.4162 0.376578 1.42323e-20)
(1.37769 0.385591 1.74326e-20)
(1.31609 0.386938 0)
(1.25442 0.386016 1.36527e-20)
(1.19265 0.382607 2.43765e-20)
(1.13085 0.375538 2.05354e-20)
(1.07037 0.363518 3.58632e-20)
(1.0213 0.348391 0)
(0.991389 0.335097 -4.31942e-20)
(0.968216 0.321215 -2.57468e-20)
(0.875487 0.285007 -1.51628e-20)
(0.626682 0.201443 9.15795e-20)
(0.314624 0.100817 1.08071e-20)
(0.105276 0.0346807 5.09111e-20)
(0.00465157 0.00375639 -2.40594e-19)
(-0.0233394 -0.00537278 1.42503e-19)
(-0.00897084 -0.00221743 -1.73959e-19)
(0.273084 0.0850749 -2.21886e-20)
(1.20549 0.357341 5.13567e-21)
(1.39168 0.422137 -4.57282e-21)
(1.42172 0.44457 -1.72699e-20)
(1.3802 0.449727 -1.63582e-20)
(1.31633 0.446607 3.53014e-22)
(1.25207 0.441232 -1.46576e-20)
(1.18742 0.433459 2.52732e-20)
(1.12262 0.422128 -4.38216e-20)
(1.05922 0.40604 0)
(1.00785 0.387692 -1.97055e-20)
(0.976082 0.372109 -3.04209e-22)
(0.947323 0.354357 -2.7888e-20)
(0.837754 0.308265 0)
(0.57262 0.209484 -1.96688e-20)
(0.273095 0.100238 -4.63701e-20)
(0.0822998 0.0318141 1.23064e-19)
(-0.00682201 0.00029345 -1.21181e-19)
(-0.0278015 -0.00787532 1.72255e-19)
(-0.00951739 -0.00281693 -1.81259e-19)
(0.265965 0.0959827 -1.20945e-22)
(1.20332 0.414009 -4.46356e-21)
(1.39331 0.48733 -1.71905e-20)
(1.4217 0.510667 8.22124e-21)
(1.37802 0.512294 -8.42452e-21)
(1.3125 0.50493 0)
(1.24624 0.495283 -1.43073e-20)
(1.17928 0.483264 -2.65213e-20)
(1.11205 0.467713 -2.28768e-20)
(1.04625 0.447547 0)
(0.993005 0.425953 -2.03443e-20)
(0.959584 0.408019 -2.46933e-20)
(0.925335 0.386049 2.99456e-20)
(0.801238 0.329539 -1.79862e-20)
(0.526355 0.216413 -8.45769e-20)
(0.240646 0.0998796 4.98277e-20)
(0.0642794 0.0289597 1.4688e-20)
(-0.016026 -0.00328944 0)
(-0.0313538 -0.0104109 -1.64406e-19)
(-0.00990847 -0.00339753 -6.08885e-21)
(0.259832 0.106154 -2.40921e-21)
(1.19668 0.467485 4.13457e-21)
(1.3903 0.54979 8.85984e-21)
(1.41736 0.574195 2.72457e-20)
(1.3721 0.572644 -3.34441e-20)
(1.30538 0.561339 3.25202e-20)
(1.23755 0.547661 3.05636e-20)
(1.16873 0.531564 -4.22738e-20)
(1.09948 0.511891 1.34582e-20)
(1.03169 0.487675 -8.67521e-20)
(0.976941 0.46283 -2.26216e-20)
(0.942107 0.442495 0)
(0.902609 0.41603 3.21862e-20)
(0.766147 0.348834 3.81907e-20)
(0.486331 0.222415 4.52973e-20)
(0.214118 0.0995636 -5.34771e-20)
(0.0491829 0.026 -1.57632e-20)
(-0.0239651 -0.00699219 1.85993e-20)
(-0.0343896 -0.0129757 0)
(-0.0101867 -0.00395137 -1.30591e-20)
(0.254623 0.115639 2.04987e-20)
(1.18731 0.517773 -1.50664e-20)
(1.38397 0.609552 -9.0381e-21)
(1.40971 0.63481 1.82031e-20)
(1.36326 0.6304 -1.65254e-20)
(1.29567 0.615469 -8.67153e-22)
(1.22661 0.598054 -3.30201e-20)
(1.15625 0.5781 -1.51772e-20)
(1.08529 0.55443 -3.93268e-20)
(1.01583 0.526207 1.97985e-23)
(0.959888 0.498088 -7.07192e-20)
(0.923895 0.475304 5.82738e-20)
(0.879485 0.44415 -3.48816e-20)
(0.732559 0.366242 4.14202e-20)
(0.451219 0.227563 0)
(0.191555 0.0992165 -2.86935e-20)
(0.0357508 0.022897 2.33576e-23)
(-0.031383 -0.010865 -7.98881e-20)
(-0.037306 -0.0156223 -1.18194e-20)
(-0.0104014 -0.0044824 0)
(0.250331 0.124713 0)
(1.17628 0.565096 -1.53264e-20)
(1.37513 0.666425 -1.6823e-20)
(1.39956 0.692352 -1.84099e-20)
(1.3522 0.685367 -1.90336e-20)
(1.28398 0.667134 0)
(1.21394 0.646285 -1.59896e-20)
(1.14228 0.622723 -2.54987e-22)
(1.06983 0.595222 8.39513e-20)
(0.998926 0.563028 -1.19728e-20)
(0.942055 0.531587 -5.07918e-20)
(0.905138 0.506262 3.03963e-20)
(0.856207 0.470297 -3.92367e-22)
(0.700557 0.3817 4.39958e-20)
(0.420057 0.231915 2.62777e-20)
(0.171761 0.0987443 -6.14889e-20)
(0.023317 0.019571 7.24638e-20)
(-0.038815 -0.0150426 2.14114e-20)
(-0.0404989 -0.0184858 8.87483e-20)
(-0.0106615 -0.00502895 -2.40211e-19)
(0.246901 0.133543 2.92797e-21)
(1.16443 0.609626 -6.42043e-21)
(1.36448 0.720181 6.33581e-21)
(1.38758 0.746791 1.79199e-20)
(1.33949 0.73747 0)
(1.27081 0.716243 -1.70329e-20)
(1.19998 0.692267 5.26518e-20)
(1.1272 0.665365 3.36402e-20)
(1.05341 0.634224 0)
(0.981193 0.598103 -1.70345e-19)
(0.923575 0.563237 1.364e-19)
(0.885983 0.535231 0)
(0.833025 0.494309 4.01385e-20)
(0.67024 0.395227 -2.9294e-22)
(0.392261 0.235465 -8.41135e-20)
(0.154103 0.0980381 3.29227e-20)
(0.0115299 0.0158934 0)
(-0.0465 -0.0196533 1.14724e-19)
(-0.0442416 -0.021731 0)
(-0.0110814 -0.00565499 -1.12623e-19)
(0.244262 0.142138 -2.42812e-21)
(1.1523 0.651596 -5.1353e-21)
(1.35252 0.770894 7.17407e-21)
(1.3743 0.79816 0)
(1.32563 0.786725 -1.9122e-20)
(1.25662 0.762792 0)
(1.18513 0.735977 -5.37525e-20)
(1.11135 0.706013 -1.64409e-20)
(1.0363 0.671452 1.51559e-20)
(0.962809 0.631463 -8.41862e-20)
(0.904532 0.59301 1.42093e-20)
(0.866507 0.562081 0)
(0.810083 0.516017 -8.53964e-20)
(0.641673 0.406737 2.09859e-22)
(0.367521 0.238161 0)
(0.138297 0.0969061 2.32019e-23)
(0.00035853 0.0116744 1.03968e-19)
(-0.0544066 -0.0248286 -9.82683e-20)
(-0.0486111 -0.0254833 2.90948e-20)
(-0.0117446 -0.00642007 0)
(0.242097 0.150479 0)
(1.14017 0.691215 -4.18953e-21)
(1.33973 0.818693 -5.68724e-21)
(1.36017 0.846547 -5.36749e-22)
(1.31101 0.833189 -8.71691e-21)
(1.24176 0.806821 -3.87371e-20)
(1.1697 0.777445 1.97557e-20)
(1.095 0.744693 -1.87385e-20)
(1.01873 0.706952 6.67613e-20)
(0.943918 0.663186 -1.34765e-19)
(0.884963 0.620938 -7.4615e-22)
(0.846708 0.586709 -3.79635e-20)
(0.787459 0.535255 1.37702e-19)
(0.614973 0.416211 -3.10362e-22)
(0.345649 0.239938 -6.42853e-20)
(0.124169 0.0951055 -1.13383e-19)
(-0.00996066 0.00685149 0)
(-0.062198 -0.0305945 0)
(-0.0534044 -0.0297693 3.11488e-20)
(-0.0126493 -0.00735694 -1.84584e-20)
(0.240585 0.158764 -1.07576e-21)
(1.12822 0.72859 7.51278e-21)
(1.32645 0.8637 6.07166e-21)
(1.34553 0.892051 0)
(1.29596 0.876946 -3.14096e-22)
(1.22654 0.848392 -3.86924e-20)
(1.15398 0.816726 4.99298e-20)
(1.07841 0.781458 7.61811e-20)
(1.00092 0.740802 8.77299e-20)
(0.924667 0.693395 -1.10943e-19)
(0.864881 0.647122 -1.1712e-19)
(0.826498 0.609067 1.01529e-19)
(0.765162 0.551865 0)
(0.5902 0.42353 -2.93642e-20)
(0.32654 0.240721 -6.88495e-20)
(0.111728 0.0926173 -8.09059e-20)
(-0.0192773 0.0015265 -9.53316e-20)
(-0.0695289 -0.0368012 2.81687e-20)
(-0.0582249 -0.0344596 -1.66778e-20)
(-0.0136937 -0.0084406 6.64506e-24)
(0.239323 0.166826 0)
(1.11695 0.763645 0)
(1.31294 0.906038 5.13304e-22)
(1.33063 0.934786 0)
(1.28073 0.918104 2.70745e-20)
(1.21119 0.887599 2.90659e-20)
(1.1382 0.853888 0)
(1.06181 0.816374 9.50037e-21)
(0.983069 0.773083 1.48127e-19)
(0.905206 0.722235 -2.55423e-19)
(0.844292 0.671742 0)
(0.805721 0.629179 -6.54386e-20)
(0.743032 0.565624 -4.58939e-22)
(0.567375 0.428506 -2.32694e-22)
(0.310251 0.240463 7.35981e-20)
(0.101174 0.0899081 -6.42996e-24)
(-0.0277306 -0.00325921 -2.04124e-19)
(-0.0768498 -0.0425271 6.0295e-20)
(-0.0632985 -0.0392425 1.78653e-20)
(-0.0148155 -0.00961775 0)
(0.238324 0.174626 -1.56103e-21)
(1.10609 0.796919 1.67616e-21)
(1.29933 0.945804 8.8587e-21)
(1.31571 0.974873 -2.94059e-20)
(1.26554 0.956757 4.52618e-20)
(1.19593 0.924529 0)
(1.12256 0.889014 3.22913e-20)
(1.04538 0.849515 -2.09148e-20)
(0.965349 0.803882 7.98296e-22)
(0.885685 0.749862 1.86989e-20)
(0.823219 0.695042 1.5316e-19)
(0.784171 0.647192 -2.31285e-20)
(0.720795 0.576354 -8.46032e-20)
(0.546493 0.430761 -3.37351e-20)
(0.297262 0.238873 3.94382e-20)
(0.0936342 0.0879867 -1.05883e-23)
(-0.0350655 -0.00491142 5.46169e-20)
(-0.0863931 -0.0459739 -1.29118e-19)
(-0.0714843 -0.0443575 1.53037e-19)
(-0.0167478 -0.0112451 2.26404e-20)
(0.237369 0.182172 1.39707e-21)
(1.0957 0.828462 4.31246e-22)
(1.28583 0.983145 1.33956e-21)
(1.30093 1.01245 -1.33982e-20)
(1.25055 0.993033 -8.29346e-21)
(1.18091 0.959278 -5.39623e-20)
(1.10722 0.922182 1.04041e-20)
(1.02927 0.880947 -8.84143e-20)
(0.947928 0.833267 -1.66726e-19)
(0.866253 0.776399 -1.54472e-19)
(0.801721 0.7173 0)
(0.761627 0.663394 -1.01335e-19)
(0.697959 0.583964 1.21677e-19)
(0.527233 0.429568 0)
(0.288493 0.234696 -8.43866e-20)
(0.0925065 0.086016 4.9484e-20)
(-0.0365393 -0.00332023 -5.84187e-20)
(-0.0977369 -0.048219 -6.91273e-20)
(-0.0869926 -0.0521588 -1.22865e-19)
(-0.0216213 -0.0146602 -9.70001e-20)
(0.236778 0.189545 -2.36475e-21)
(1.08565 0.858308 -4.4156e-22)
(1.27253 1.01815 -3.20695e-21)
(1.28642 1.04762 -1.61071e-20)
(1.2359 1.02704 1.87106e-20)
(1.16626 0.991946 -3.27896e-20)
(1.0923 0.953467 3.4172e-20)
(1.01362 0.910748 -9.27825e-20)
(0.930939 0.861315 -9.99064e-20)
(0.847063 0.801967 1.64049e-19)
(0.779884 0.738797 3.40866e-19)
(0.737904 0.678224 0)
(0.673832 0.588598 0)
(0.508614 0.424086 -3.87852e-20)
(0.283933 0.226019 0)
(0.0999116 0.07958 1.06074e-19)
(-0.0248469 -0.00798459 1.25017e-19)
(-0.0979812 -0.0576572 0)
(-0.103267 -0.0659572 0)
(-0.0308303 -0.0213464 1.04087e-19)
(0.236076 0.196495 3.57703e-21)
(1.07601 0.88649 2.48274e-21)
(1.25954 1.05095 -1.96717e-21)
(1.27228 1.08053 1.16042e-20)
(1.22167 1.05889 1.86235e-20)
(1.15207 1.02262 3.85949e-20)
(1.0779 0.982945 -4.81372e-20)
(0.998548 0.938974 -3.15579e-22)
(0.914515 0.888082 -1.06139e-21)
(0.828267 0.826654 -5.11555e-22)
(0.757851 0.759785 1.76769e-19)
(0.712896 0.692204 0)
(0.64766 0.590759 1.24165e-19)
(0.488762 0.413946 8.36339e-20)
(0.280431 0.209878 1.95494e-19)
(0.114194 0.0592709 5.7051e-20)
(0.00230758 -0.0332584 -6.71066e-20)
(-0.0658547 -0.0851091 -3.98098e-20)
(-0.0866542 -0.0829817 0)
(-0.0358422 -0.0279057 1.12211e-19)
(0.235735 0.203464 -9.87413e-21)
(1.06675 0.913119 0)
(1.24688 1.0816 -2.59603e-22)
(1.25855 1.11127 8.42987e-21)
(1.20795 1.0887 -1.77652e-20)
(1.13842 1.0514 -4.96694e-20)
(1.0641 1.01068 9.90996e-20)
(0.984119 0.965676 -7.02851e-21)
(0.898754 0.91361 0)
(0.810011 0.850508 -1.85447e-19)
(0.735804 0.780469 -3.9e-19)
(0.686624 0.705907 1.54726e-20)
(0.618825 0.591303 1.73773e-19)
(0.465623 0.399849 0)
(0.27346 0.185219 1.32607e-19)
(0.125511 0.0221594 0)
(0.0318371 -0.088825 0)
(-0.00758177 -0.142723 -4.27933e-20)
(0.00112751 -0.108625 0)
(0.0145919 -0.00934262 3.02377e-20)
(0.235167 0.209902 -1.24928e-20)
(1.05786 0.938534 0)
(1.23456 1.11033 1.38404e-21)
(1.24521 1.1401 0)
(1.19471 1.11673 8.36753e-21)
(1.12525 1.07858 0)
(1.05085 1.03699 5.70756e-21)
(0.970263 0.991192 1.33126e-20)
(0.883555 0.938263 1.28411e-20)
(0.792154 0.873919 -2.06351e-19)
(0.713563 0.801374 1.2003e-20)
(0.658727 0.720292 1.247e-19)
(0.586461 0.591478 1.70896e-19)
(0.437026 0.382857 2.2402e-20)
(0.25857 0.154236 1.04806e-19)
(0.123753 -0.0278099 0)
(0.0450338 -0.164793 1.40736e-19)
(0.0273834 -0.163177 -8.27672e-20)
(0.0172917 0.021158 9.75836e-20)
(-0.038755 0.468158 -1.15915e-19)
(0.234663 0.216182 1.12108e-20)
(1.04912 0.962582 1.41478e-20)
(1.2225 1.13747 0)
(1.23211 1.16745 9.75897e-22)
(1.18175 1.14358 -1.98944e-20)
(1.11229 1.10483 8.22519e-20)
(1.03783 1.06265 3.76161e-20)
(0.956561 1.01644 0)
(0.868382 0.963099 8.79855e-20)
(0.774009 0.898132 -1.11076e-20)
(0.690165 0.823883 0)
(0.627669 0.736817 0)
(0.547732 0.592086 1.55419e-19)
(0.399162 0.362993 -6.92072e-20)
(0.232025 0.118668 -1.07769e-19)
(0.107475 -0.087931 0)
(0.036998 -0.119484 7.15979e-20)
(-0.000763935 0.440333 -8.32026e-20)
(0.0255072 1.96049 -4.72766e-20)
(0.0507921 2.84176 -5.78246e-20)
(0.233922 0.221979 -9.4789e-21)
(1.04061 0.985443 -2.00579e-20)
(1.21074 1.16301 1.86588e-21)
(1.21927 1.19321 -3.22223e-21)
(1.16916 1.16904 0)
(1.09965 1.12989 5.52265e-20)
(1.02528 1.08737 5.58647e-20)
(0.943231 1.04101 -6.80737e-21)
(0.853551 0.987648 1.31702e-20)
(0.756026 0.922651 2.00945e-19)
(0.666323 0.847642 2.04427e-19)
(0.594477 0.756085 1.45081e-19)
(0.502979 0.5948 1.59117e-19)
(0.351127 0.341099 -1.66389e-19)
(0.197378 0.0859973 -1.65553e-19)
(0.0728135 -0.0189235 0)
(0.0291001 0.94757 0)
(0.0726852 2.61246 4.06083e-20)
(0.0759808 3.22826 0)
(0.0787357 3.39476 1.07094e-19)
(0.236091 0.227514 0)
(1.03271 1.00754 0)
(1.19895 1.18683 0)
(1.20651 1.21724 -1.85221e-22)
(1.1566 1.19287 -1.70239e-20)
(1.08716 1.15361 3.7924e-20)
(1.01313 1.11106 3.77716e-20)
(0.930215 1.06477 -6.85769e-21)
(0.839012 1.01174 1.14812e-19)
(0.738222 0.947331 -1.27838e-21)
(0.642196 0.872565 4.11911e-19)
(0.559603 0.7786 -1.68208e-20)
(0.452247 0.601877 1.99184e-20)
(0.292307 0.31772 2.44377e-20)
(0.145481 0.0876167 -1.10286e-21)
(0.0670421 1.06586 3.1537e-22)
(0.102715 2.79911 -2.18934e-19)
(0.107116 3.30684 -8.2715e-20)
(0.101848 3.42328 4.46053e-20)
(0.0945955 3.44191 -5.1118e-20)
(0.157905 0.172028 6.62074e-21)
(1.02017 1.03158 0)
(1.18689 1.20916 -7.2842e-21)
(1.19428 1.23998 4.26467e-21)
(1.14451 1.21555 -2.71868e-20)
(1.0755 1.17648 -3.85957e-20)
(1.00115 1.13372 -4.16686e-20)
(0.917547 1.08779 8.49074e-20)
(0.824859 1.03547 -9.69288e-20)
(0.720871 0.972315 0)
(0.618201 0.898815 2.07617e-19)
(0.523712 0.804617 -1.21962e-19)
(0.401793 0.631407 0)
(0.223542 0.300572 2.45999e-20)
(0.0993132 0.666927 5.63106e-20)
(0.115558 2.62167 -6.28024e-20)
(0.159398 3.32686 7.1291e-20)
(0.147083 3.42764 3.91033e-20)
(0.124055 3.4463 4.42572e-20)
(0.107481 3.45526 7.28834e-20)
(0.270238 0.264201 -1.19989e-20)
(1.00028 1.04002 0)
(1.16672 1.23432 1.03216e-20)
(1.1786 1.27122 1.12104e-22)
(1.12594 1.24895 2.25655e-20)
(1.05637 1.21013 3.38863e-20)
(0.980785 1.16881 5.13501e-20)
(0.89638 1.12391 6.58613e-21)
(0.801721 1.07345 9.73316e-20)
(0.693521 1.01378 1.85659e-19)
(0.582018 0.94478 1.21138e-20)
(0.46746 0.844878 1.12553e-19)
(0.305032 0.637273 1.98248e-20)
(0.182362 0.783604 -2.431e-20)
(0.189498 2.5243 -5.33878e-20)
(0.240568 3.32287 5.41787e-20)
(0.223901 3.44466 -6.0281e-20)
(0.192299 3.46515 -3.45898e-20)
(0.161557 3.49038 -3.40868e-20)
(0.118369 3.48779 -4.81573e-21)
(0.259769 0.262666 0)
(0.996134 1.06215 4.91671e-21)
(1.15697 1.2576 -2.70677e-21)
(1.16665 1.29468 -6.91072e-22)
(1.11402 1.27216 1.21759e-20)
(1.04441 1.23345 -3.13926e-20)
(0.968374 1.19223 -3.15212e-20)
(0.883473 1.14804 6.18587e-21)
(0.78769 1.0989 -1.04363e-19)
(0.67691 1.04193 -2.3964e-21)
(0.55976 0.977197 -3.91278e-19)
(0.433478 0.877296 1.62053e-20)
(0.270367 0.70907 -1.91709e-20)
(0.217626 1.51366 -2.29347e-20)
(0.284827 3.14913 3.52912e-21)
(0.295083 3.44164 -1.27994e-22)
(0.256831 3.48864 9.98648e-20)
(0.225011 3.51573 5.33881e-20)
(0.18075 3.53729 -2.27452e-20)
(0.132964 3.53592 -2.76887e-20)
(0.245233 0.260053 1.41889e-20)
(0.99099 1.08677 3.46754e-20)
(1.1468 1.28295 -7.7129e-21)
(1.15428 1.31977 -2.29768e-21)
(1.1016 1.29686 0)
(1.03202 1.25811 -3.64993e-20)
(0.955821 1.21707 -4.26099e-20)
(0.870678 1.17358 5.75683e-21)
(0.774089 1.12597 -1.15634e-20)
(0.661311 1.07219 -1.7853e-19)
(0.53959 1.01265 -1.86008e-19)
(0.403276 0.911693 -1.36334e-19)
(0.268603 0.879925 -1.47615e-19)
(0.287756 2.3544 1.49823e-19)
(0.369069 3.37042 1.30537e-19)
(0.336772 3.49164 0)
(0.29205 3.53356 0)
(0.25686 3.56939 -1.90254e-20)
(0.216806 3.6138 0)
(0.148944 3.60283 -3.44602e-20)
(0.234919 0.261402 -2.26845e-20)
(0.983862 1.11213 -3.13696e-20)
(1.13517 1.30952 0)
(1.14061 1.34568 1.17903e-21)
(1.08787 1.32221 6.05123e-21)
(1.01849 1.28335 -4.74384e-20)
(0.942459 1.24255 -2.5669e-20)
(0.857307 1.19974 4.56632e-21)
(0.760176 1.1537 -8.10489e-20)
(0.645891 1.1033 9.44745e-21)
(0.520715 1.04926 0)
(0.373575 0.947877 0)
(0.290579 1.21249 -1.38206e-19)
(0.373174 2.99805 5.67181e-20)