/*--------------------------------*- C++ -*----------------------------------*\
  =========                 |
  \\      /  F ield         | OpenFOAM: The Open Source CFD Toolbox
   \\    /   O peration     | Website:  https://openfoam.org
    \\  /    A nd           | Version:  6
     \\/     M anipulation  |
\*---------------------------------------------------------------------------*/
FoamFile
{
    version     2.0;
    format      ascii;
    class       volScalarField;
    location    "71";
    object      p;
}
// * * * * * * * * * * * * * * * * * * * * * * * * * * * * * * * * * * * * * //

dimensions      [0 2 -2 0 0 0 0];

internalField   nonuniform List<scalar> 
2200
(
0.787947
0.772727
0.755252
0.738971
0.724534
0.712529
0.70293
0.695493
0.690159
0.687269
0.687773
0.691561
0.697579
0.7055
0.715434
0.727671
0.742287
0.758727
0.776272
0.791503
0.731625
0.727704
0.722704
0.717129
0.710854
0.704269
0.6979
0.692291
0.687978
0.68565
0.68616
0.689418
0.694432
0.700569
0.707339
0.714213
0.720676
0.726341
0.731376
0.735333
0.690072
0.689761
0.690717
0.692042
0.692502
0.691488
0.689256
0.686473
0.68395
0.68254
0.683093
0.685508
0.688817
0.692209
0.694881
0.696186
0.695901
0.694685
0.693881
0.694252
0.664938
0.66597
0.668381
0.671715
0.674963
0.677286
0.678387
0.678437
0.677976
0.677717
0.678351
0.679753
0.681104
0.681733
0.681152
0.679227
0.676269
0.673081
0.67075
0.669768
0.650021
0.651481
0.654244
0.657787
0.661404
0.664698
0.667363
0.66928
0.670557
0.671472
0.672216
0.672638
0.672424
0.671322
0.66927
0.666443
0.66318
0.659875
0.657231
0.655807
0.642343
0.643658
0.645954
0.64884
0.651875
0.654874
0.65774
0.660338
0.662542
0.66424
0.665138
0.665054
0.66413
0.662514
0.660388
0.657943
0.655309
0.652694
0.650544
0.649267
0.638527
0.639437
0.640985
0.64302
0.645218
0.647469
0.649837
0.652286
0.654652
0.656664
0.657771
0.657726
0.6569
0.655642
0.654176
0.652602
0.650889
0.649173
0.647791
0.646916
0.635688
0.636275
0.637237
0.638562
0.640044
0.641604
0.643349
0.645346
0.647494
0.649516
0.650843
0.651233
0.650994
0.650464
0.64983
0.64909
0.648191
0.647244
0.646466
0.645912
0.632327
0.632717
0.633359
0.634293
0.635377
0.636543
0.637861
0.63944
0.641289
0.643272
0.644919
0.645883
0.646369
0.646584
0.646613
0.64644
0.646055
0.645571
0.645142
0.644784
0.628071
0.628342
0.628837
0.629627
0.630597
0.631664
0.632854
0.634267
0.635979
0.637976
0.63998
0.641583
0.642725
0.643509
0.643983
0.644164
0.644063
0.643811
0.643556
0.643313
0.623168
0.623372
0.623808
0.624553
0.625517
0.626629
0.627912
0.62943
0.631272
0.633528
0.636001
0.63816
0.639783
0.640943
0.641709
0.642133
0.642197
0.642099
0.641947
0.641771
0.617757
0.61792
0.618335
0.619097
0.620148
0.62143
0.622962
0.624798
0.627016
0.629738
0.632764
0.635449
0.637469
0.638901
0.639847
0.640415
0.640651
0.640681
0.640599
0.640462
0.611878
0.612017
0.612429
0.61324
0.614446
0.615994
0.617881
0.620166
0.622943
0.626285
0.629964
0.6332
0.635617
0.637323
0.638484
0.63922
0.639618
0.639768
0.639747
0.639632
0.605639
0.605756
0.606178
0.607046
0.608375
0.610143
0.612385
0.615177
0.618634
0.622832
0.627285
0.631129
0.634056
0.636186
0.637676
0.638668
0.639275
0.639566
0.639593
0.639487
0.598849
0.598952
0.599393
0.600324
0.601796
0.603817
0.606455
0.609811
0.613985
0.619117
0.62457
0.629253
0.632813
0.635478
0.637421
0.638779
0.639645
0.640081
0.64016
0.640061
0.591343
0.591371
0.591817
0.592876
0.594596
0.596966
0.600066
0.604038
0.60901
0.615078
0.621721
0.627503
0.631961
0.635352
0.637895
0.639687
0.640839
0.641432
0.641565
0.641469
0.582867
0.582911
0.583388
0.584572
0.586515
0.589237
0.59283
0.597473
0.603375
0.610678
0.618742
0.625899
0.631509
0.635832
0.639063
0.641367
0.642862
0.643641
0.643836
0.643739
0.573138
0.573205
0.573697
0.575034
0.577275
0.580427
0.58462
0.59009
0.597088
0.605877
0.615621
0.624492
0.631523
0.63695
0.641032
0.643938
0.645834
0.646828
0.647082
0.646978
0.561881
0.561961
0.562545
0.564024
0.566584
0.570288
0.575269
0.581785
0.590147
0.600703
0.612633
0.623507
0.632161
0.638838
0.643844
0.647477
0.649856
0.651067
0.651366
0.651245
0.548392
0.54848
0.549204
0.550992
0.554068
0.558518
0.56453
0.572427
0.582634
0.595541
0.610068
0.623238
0.633662
0.641661
0.647707
0.65209
0.654938
0.65636
0.656695
0.656552
0.532312
0.532361
0.533176
0.53536
0.539187
0.54468
0.55206
0.561778
0.574369
0.590271
0.607925
0.623692
0.636004
0.645489
0.652656
0.657838
0.661161
0.662753
0.663099
0.662927
0.512883
0.512994
0.514023
0.516662
0.521323
0.52811
0.537357
0.549639
0.565491
0.585223
0.60649
0.624931
0.639223
0.650272
0.65865
0.664678
0.668461
0.67021
0.67054
0.67033
0.488767
0.488885
0.49022
0.493666
0.499721
0.508524
0.520501
0.536285
0.556282
0.580469
0.60577
0.627225
0.643664
0.656231
0.66573
0.672534
0.676733
0.678558
0.678828
0.678577
0.457898
0.458172
0.460109
0.464868
0.473178
0.485123
0.501004
0.521368
0.54647
0.575982
0.605909
0.630576
0.649077
0.663116
0.673699
0.681219
0.685712
0.687531
0.687714
0.687428
0.417787
0.418436
0.421532
0.428618
0.44048
0.457014
0.478381
0.504889
0.536377
0.57206
0.606957
0.634851
0.655396
0.670822
0.68242
0.690541
0.695156
0.696827
0.696877
0.696566
0.365036
0.366192
0.371767
0.38344
0.401476
0.424996
0.45369
0.487672
0.526501
0.568974
0.609065
0.640083
0.66247
0.679207
0.691753
0.700223
0.704592
0.705869
0.70577
0.70548
0.298085
0.301727
0.313241
0.332805
0.359325
0.391456
0.428568
0.470678
0.517247
0.566897
0.612555
0.647334
0.67229
0.690626
0.703736
0.712102
0.716061
0.717011
0.716895
0.716672
0.223884
0.233224
0.253271
0.282052
0.317669
0.358728
0.404644
0.455001
0.509152
0.565839
0.617535
0.656769
0.684651
0.704436
0.718074
0.726203
0.729602
0.730252
0.730132
0.72998
0.155471
0.168965
0.195899
0.233456
0.27829
0.328434
0.38317
0.441643
0.50298
0.565899
0.622716
0.66576
0.696126
0.717451
0.731719
0.739675
0.74274
0.743175
0.743086
0.743008
0.100031
0.114858
0.145854
0.189991
0.242679
0.301088
0.364062
0.430162
0.49809
0.566667
0.62807
0.674482
0.707063
0.730037
0.745209
0.753465
0.756388
0.756725
0.756727
0.756709
0.0544398
0.0697312
0.10364
0.152737
0.211637
0.276905
0.346988
0.419939
0.494014
0.567951
0.633321
0.682473
0.717672
0.742642
0.758946
0.76772
0.770904
0.771459
0.771451
0.771421
0.0157655
0.0317572
0.0680432
0.120978
0.184732
0.255532
0.331577
0.410548
0.490236
0.568848
0.637743
0.690064
0.727981
0.754776
0.772494
0.782161
0.785747
0.786406
0.78635
0.786311
-0.0179508
-0.00122549
0.0372749
0.0934939
0.161209
0.236529
0.317463
0.401438
0.485945
0.568857
0.641675
0.697492
0.737791
0.766602
0.785785
0.796098
0.799984
0.800719
0.800658
0.800611
-0.0477895
-0.0305204
0.00989978
0.0690775
0.140189
0.219231
0.304166
0.392337
0.48116
0.568637
0.645915
0.704798
0.747134
0.777801
0.798113
0.809058
0.813206
0.814
0.813931
0.813869
-0.074884
-0.057165
-0.0150345
0.0468038
0.120901
0.203156
0.291512
0.383338
0.476315
0.568642
0.650152
0.711511
0.755971
0.788086
0.80919
0.820621
0.825064
0.825962
0.825896
0.825814
-0.0998875
-0.0817962
-0.0381552
0.0261143
0.102923
0.188034
0.279388
0.374561
0.471618
0.568483
0.653596
0.717546
0.763994
0.797078
0.818901
0.830858
0.835518
0.836504
0.836441
0.836336
-0.123346
-0.104889
-0.0598626
0.00662362
0.0859237
0.173666
0.26777
0.366002
0.466644
0.567369
0.656032
0.722937
0.77106
0.805042
0.827527
0.839813
0.844671
0.84572
0.845645
0.845523
-0.145565
-0.126707
-0.0804419
-0.0119191
0.0697066
0.159889
0.256462
0.357249
0.460733
0.564898
0.657605
0.727803
0.777409
0.812258
0.835256
0.847796
0.852719
0.85376
0.853667
0.853533
-0.166768
-0.147525
-0.100119
-0.0297297
0.0540467
0.146453
0.245127
0.347897
0.453645
0.561246
0.658509
0.732089
0.783523
0.819332
0.842537
0.855042
0.859911
0.860791
0.860616
0.860476
-0.18711
-0.167526
-0.119098
-0.0469847
0.0387701
0.133136
0.23351
0.337793
0.44554
0.55668
0.658709
0.736101
0.789967
0.826653
0.849751
0.861859
0.866273
0.866806
0.866568
0.866447
-0.206797
-0.186934
-0.13755
-0.0638416
0.023714
0.119793
0.221554
0.327078
0.436708
0.551278
0.65803
0.73997
0.797032
0.834855
0.857518
0.868539
0.871993
0.871981
0.871762
0.871687
-0.22597
-0.205866
-0.155591
-0.0803985
0.00881502
0.10642
0.20937
0.315994
0.427327
0.544927
0.656255
0.743555
0.804628
0.844254
0.866525
0.875861
0.877457
0.87668
0.876393
0.876365
-0.24481
-0.224432
-0.173276
-0.0966805
-0.00591369
0.0930918
0.197099
0.304694
0.417435
0.537505
0.653205
0.74622
0.812257
0.855045
0.877615
0.884856
0.883602
0.881305
0.88059
0.880628
-0.263256
-0.242616
-0.190603
-0.112659
-0.0204053
0.0798978
0.184807
0.29319
0.407003
0.529007
0.648733
0.747437
0.819321
0.866751
0.891195
0.897027
0.892212
0.886697
0.884481
0.884564
-0.281309
-0.260402
-0.207526
-0.128277
-0.0346026
0.0668657
0.17246
0.281407
0.396049
0.519663
0.642859
0.746791
0.824898
0.878506
0.907137
0.913611
0.906369
0.89526
0.888371
0.887144
-0.29882
-0.277669
-0.223951
-0.143474
-0.0485028
0.0539336
0.159958
0.269292
0.3847
0.509788
0.635742
0.744185
0.828378
0.888946
0.924054
0.934554
0.927188
0.910297
0.888505
0.865889
-0.315729
-0.294351
-0.239824
-0.158288
-0.0623256
0.0407265
0.146928
0.256575
0.372853
0.499407
0.627479
0.739491
0.829048
0.896868
0.940455
0.957139
0.952669
0.937
0.939581
0.956295
-0.331912
-0.310412
-0.255224
-0.172895
-0.0763796
0.0268166
0.132936
0.242902
0.360191
0.488164
0.617718
0.732141
0.825898
0.899902
0.951402
0.974825
0.971447
0.947836
0.914218
0.914723
-0.347369
-0.325901
-0.270181
-0.187261
-0.0905751
0.0123371
0.118157
0.228488
0.346884
0.476111
0.606418
0.721755
0.817598
0.895067
0.949424
0.97083
0.951924
0.90125
0.851276
0.835351
-0.361996
-0.340835
-0.284726
-0.201388
-0.104879
-0.0026134
0.102733
0.213439
0.332903
0.463061
0.59331
0.707912
0.803238
0.878069
0.924169
0.923159
0.890672
0.8197
0.752547
0.73265
-0.375753
-0.355267
-0.298869
-0.215304
-0.119304
-0.0179425
0.0868253
0.197841
0.318164
0.448791
0.578128
0.690085
0.780451
0.846329
0.871312
0.852911
0.789654
0.696628
0.616456
0.597139
-0.389015
-0.369327
-0.312935
-0.229545
-0.134358
-0.0339569
0.0702849
0.181518
0.302335
0.432861
0.560409
0.667723
0.7493
0.799076
0.794341
0.759962
0.650907
0.54168
0.452537
0.43487
-0.402708
-0.383526
-0.327626
-0.24502
-0.15082
-0.0511789
0.0527921
0.164156
0.284996
0.414764
0.539664
0.639807
0.708625
0.734817
0.709727
0.626889
0.496448
0.367873
0.259934
0.23966
-0.417378
-0.398264
-0.343258
-0.261985
-0.168824
-0.069646
0.0343326
0.145699
0.266007
0.39424
0.515572
0.607173
0.658774
0.657127
0.618112
0.488397
0.32997
0.162456
0.0246739
-0.00273637
-0.433258
-0.414079
-0.359965
-0.280155
-0.187993
-0.0890915
0.0150064
0.126163
0.245358
0.371171
0.487677
0.570512
0.602431
0.571644
0.497065
0.343426
0.162532
-0.0449497
-0.241765
-0.322842
-0.450522
-0.431195
-0.37786
-0.299368
-0.20809
-0.109406
-0.00524748
0.105445
0.222994
0.34554
0.456212
0.529471
0.540998
0.480947
0.354797
0.194348
0.00909297
-0.252522
-0.658943
-0.980274
-0.46941
-0.449902
-0.397054
-0.319516
-0.228925
-0.130454
-0.0263789
0.0836219
0.199142
0.317708
0.421847
0.484882
0.476634
0.396951
0.213407
0.0320336
-0.132721
-0.370468
-0.856978
-1.61654
-0.489916
-0.470113
-0.417588
-0.340754
-0.250713
-0.152513
-0.0487097
0.0603645
0.17352
0.287432
0.384719
0.436875
0.409833
0.317815
0.0932112
-0.102896
-0.241479
-0.369172
-0.543482
-0.819705
-0.512126
-0.492053
-0.4397
-0.363445
-0.273939
-0.176185
-0.0729591
0.0348314
0.145197
0.253716
0.344045
0.384662
0.342262
0.234674
0.000861311
-0.181866
-0.291799
-0.348872
-0.388853
-0.419965
-0.535936
-0.515523
-0.463402
-0.387722
-0.298823
-0.201719
-0.0993798
0.00678196
0.114042
0.216939
0.299715
0.328794
0.277859
0.152786
-0.0670177
-0.22377
-0.309226
-0.331409
-0.357886
-0.362679
-0.561302
-0.540738
-0.488718
-0.41357
-0.325359
-0.229143
-0.128057
-0.0238894
0.0800408
0.177263
0.251696
0.269287
0.218647
0.0718632
-0.12071
-0.242983
-0.299737
-0.321249
-0.327314
-0.327692
-0.587814
-0.567162
-0.51541
-0.440878
-0.353521
-0.258458
-0.158973
-0.0571762
0.0431792
0.135058
0.201213
0.207302
0.160607
-0.00652841
-0.165216
-0.255281
-0.282844
-0.306869
-0.308376
-0.308088
-0.615457
-0.594733
-0.543207
-0.469361
-0.38301
-0.289391
-0.191941
-0.0929826
0.00344642
0.0907431
0.149647
0.145727
0.0968187
-0.0698396
-0.202636
-0.272859
-0.286083
-0.292952
-0.294812
-0.295121
-0.643465
-0.622748
-0.571605
-0.498624
-0.413568
-0.321729
-0.226681
-0.130998
-0.038791
0.0445678
0.0977806
0.0853569
0.0280707
-0.120041
-0.225754
-0.279031
-0.296537
-0.287628
-0.284637
-0.284139
-0.671293
-0.650688
-0.600012
-0.528112
-0.444599
-0.354893
-0.262707
-0.170745
-0.083063
-0.00350681
0.0456758
0.0282142
-0.0420035
-0.158722
-0.233215
-0.265334
-0.286127
-0.278728
-0.273532
-0.271811
-0.6976
-0.677424
-0.627632
-0.557135
-0.475622
-0.388467
-0.299457
-0.211544
-0.12851
-0.0532394
-0.00712364
-0.024065
-0.0987532
-0.188909
-0.238832
-0.249592
-0.262132
-0.264608
-0.263409
-0.261905
-0.721376
-0.701983
-0.653536
-0.584885
-0.505727
-0.421519
-0.336123
-0.252553
-0.174366
-0.103875
-0.0602933
-0.0707779
-0.139353
-0.208505
-0.24437
-0.250995
-0.252254
-0.256447
-0.257935
-0.257557
-0.740814
-0.722725
-0.676511
-0.610407
-0.534211
-0.453415
-0.371889
-0.292784
-0.219403
-0.153725
-0.112256
-0.115857
-0.169899
-0.218248
-0.245049
-0.258451
-0.256198
-0.255946
-0.256293
-0.256259
-0.754805
-0.738626
-0.695468
-0.632614
-0.559746
-0.482755
-0.405586
-0.331201
-0.262462
-0.200905
-0.160989
-0.160989
-0.198313
-0.226773
-0.242594
-0.256029
-0.255745
-0.255389
-0.255482
-0.255675
-0.761874
-0.748224
-0.709092
-0.650142
-0.581284
-0.508665
-0.436133
-0.366572
-0.302386
-0.244085
-0.203861
-0.205866
-0.23297
-0.244782
-0.245752
-0.252368
-0.256996
-0.26069
-0.262512
-0.263608
-0.762003
-0.751168
-0.716215
-0.661485
-0.597029
-0.52938
-0.462139
-0.397643
-0.338088
-0.282585
-0.237959
-0.247773
-0.275733
-0.286092
-0.280496
-0.287249
-0.290882
-0.294036
-0.295471
-0.2971
-0.754633
-0.74526
-0.714337
-0.664709
-0.606109
-0.544494
-0.482813
-0.423225
-0.367862
-0.314539
-0.267172
-0.280086
-0.321342
-0.359176
-0.382803
-0.397748
-0.393378
-0.381129
-0.371075
-0.366795
-0.734449
-0.725968
-0.700809
-0.658808
-0.60788
-0.552879
-0.497138
-0.44232
-0.390571
-0.338379
-0.28865
-0.295753
-0.348181
-0.428843
-0.498797
-0.525857
-0.52226
-0.499729
-0.475468
-0.457689
-0.695722
-0.68965
-0.67502
-0.644668
-0.603325
-0.555534
-0.504773
-0.453813
-0.405544
-0.355735
-0.295496
-0.277929
-0.317135
-0.400872
-0.490011
-0.528648
-0.528776
-0.505729
-0.479681
-0.460771
-0.653427
-0.651815
-0.645811
-0.625642
-0.593172
-0.552182
-0.506002
-0.457763
-0.410861
-0.362407
-0.288128
-0.217199
-0.186774
-0.202629
-0.242552
-0.247608
-0.219148
-0.181857
-0.148806
-0.129299
-0.624305
-0.624075
-0.618516
-0.606004
-0.58149
-0.546412
-0.502882
-0.45432
-0.403813
-0.3497
-0.262674
-0.129504
0.0137421
0.148831
0.243976
0.334136
0.41236
0.472523
0.510225
0.527756
-0.598814
-0.598307
-0.596425
-0.590561
-0.571936
-0.541134
-0.498942
-0.447065
-0.388966
-0.319847
-0.22163
-0.0581281
0.154257
0.38691
0.601378
0.771762
0.895676
0.976502
1.01794
1.03256
-0.581992
-0.582035
-0.582221
-0.576654
-0.56348
-0.536283
-0.494138
-0.437975
-0.371036
-0.288231
-0.177883
-0.0050026
0.229969
0.495365
0.761398
0.982746
1.14141
1.24011
1.29061
1.30921
-0.568972
-0.569002
-0.568787
-0.566519
-0.558845
-0.534179
-0.491852
-0.432016
-0.356231
-0.262807
-0.145482
0.0176882
0.241694
0.505076
0.779933
1.02222
1.20472
1.31785
1.37277
1.39049
-0.560455
-0.560332
-0.560261
-0.56089
-0.554517
-0.532521
-0.491765
-0.430871
-0.350367
-0.251043
-0.133833
0.010021
0.206265
0.439975
0.688533
0.91549
1.093
1.20488
1.2581
1.27439
-0.554177
-0.554029
-0.55403
-0.55478
-0.549334
-0.530706
-0.493614
-0.434958
-0.353391
-0.252632
-0.140232
-0.0170737
0.146527
0.339848
0.541968
0.728504
0.877736
0.973905
1.01932
1.03253
-0.550596
-0.550045
-0.54883
-0.54683
-0.542266
-0.532171
-0.501732
-0.445815
-0.363769
-0.26249
-0.15763
-0.0555385
0.0765317
0.231488
0.387463
0.527253
0.638786
0.71155
0.745538
0.75473
-0.557924
-0.556398
-0.553234
-0.548186
-0.544951
-0.54178
-0.517074
-0.461597
-0.377548
-0.276405
-0.181123
-0.0986859
0.00496737
0.126592
0.244656
0.345453
0.42417
0.475732
0.498409
0.502249
-0.581871
-0.579753
-0.576798
-0.57455
-0.577028
-0.571016
-0.539554
-0.476451
-0.388113
-0.289486
-0.207429
-0.142594
-0.0622612
0.0320769
0.122181
0.196244
0.252438
0.289166
0.305859
0.309359
-0.617146
-0.616342
-0.61787
-0.622278
-0.626206
-0.612655
-0.567314
-0.489065
-0.392231
-0.298489
-0.232275
-0.184191
-0.122089
-0.0470305
0.024429
0.0818247
0.124941
0.153775
0.167949
0.169898
-0.645666
-0.64797
-0.654317
-0.662423
-0.664403
-0.644642
-0.584036
-0.489782
-0.387659
-0.303725
-0.253895
-0.220017
-0.170777
-0.108307
-0.0486513
-0.00161896
0.0334089
0.0573403
0.0700793
0.0721876
-0.642879
-0.647209
-0.657461
-0.667107
-0.668176
-0.642347
-0.56641
-0.463901
-0.369961
-0.304856
-0.270682
-0.245107
-0.204223
-0.150751
-0.0994151
-0.0596976
-0.0306965
-0.0114048
-0.00253294
-0.000742015
-0.583608
-0.588971
-0.600361
-0.611949
-0.612338
-0.580529
-0.502726
-0.411724
-0.340044
-0.297375
-0.274442
-0.25308
-0.21873
-0.173386
-0.129856
-0.0971753
-0.0743745
-0.0604367
-0.0551594
-0.0546985
-0.455754
-0.461723
-0.472628
-0.484214
-0.485202
-0.45854
-0.402392
-0.342534
-0.299954
-0.274859
-0.257356
-0.240254
-0.213826
-0.177525
-0.142235
-0.117623
-0.102006
-0.0938453
-0.0920166
-0.092979
-0.290882
-0.295099
-0.303303
-0.313228
-0.318595
-0.309274
-0.286097
-0.262314
-0.245281
-0.231106
-0.219041
-0.211623
-0.197702
-0.1681
-0.140755
-0.124846
-0.116753
-0.113897
-0.114888
-0.116735
-0.134023
-0.136714
-0.142178
-0.150602
-0.160743
-0.169054
-0.17426
-0.177817
-0.177359
-0.170587
-0.165759
-0.172082
-0.181998
-0.149817
-0.130403
-0.122915
-0.121209
-0.122338
-0.124951
-0.127021
-0.019406
-0.0209247
-0.0248246
-0.0324349
-0.0452502
-0.0631718
-0.0836398
-0.101945
-0.110478
-0.109627
-0.113004
-0.128837
-0.147885
-0.126613
-0.116666
-0.115892
-0.11827
-0.121404
-0.124605
-0.12659
0.0444739
0.0435614
0.0402111
0.0327302
0.0195991
3.38498e-05
-0.0239668
-0.0470862
-0.0602883
-0.0639869
-0.073789
-0.0913631
-0.105097
-0.101727
-0.101004
-0.104945
-0.109641
-0.113665
-0.116849
-0.118534
0.0701713
0.069616
0.066734
0.0594017
0.0467788
0.0284524
0.00565534
-0.0174717
-0.0330287
-0.039755
-0.05063
-0.0660021
-0.0763137
-0.0795636
-0.0836695
-0.0904885
-0.0967841
-0.101258
-0.103957
-0.10518
0.0740213
0.0737326
0.071683
0.065257
0.0535293
0.0367483
0.0156489
-0.00641493
-0.0230688
-0.031183
-0.0393312
-0.0511726
-0.0582055
-0.0616325
-0.0672182
-0.0753965
-0.0822285
-0.0863475
-0.0882687
-0.0891138
0.0673575
0.0671927
0.0659937
0.0612544
0.0513239
0.0365547
0.0177848
-0.00211023
-0.0183542
-0.0273657
-0.0326614
-0.0421495
-0.0469356
-0.0489198
-0.0541704
-0.0619707
-0.0680557
-0.0712189
-0.0724048
-0.0729862
0.056605
0.0564908
0.0558378
0.0529902
0.0459362
0.0340729
0.0182827
0.00206569
-0.0112965
-0.0204977
-0.0244382
-0.0335148
-0.0387216
-0.0403959
-0.0448388
-0.0508136
-0.0548308
-0.0565061
-0.0571423
-0.0576458
0.0448824
0.0448233
0.0443841
0.042823
0.0388489
0.0310108
0.0187919
0.00601459
-0.00328482
-0.0103099
-0.014057
-0.0224512
-0.0295737
-0.0326643
-0.0364657
-0.0405836
-0.0427042
-0.0432639
-0.0437222
-0.0442487
0.0336254
0.0336282
0.033306
0.0323265
0.0304445
0.0266506
0.0188509
0.00875589
0.00143532
-0.00273854
-0.00431549
-0.0115432
-0.0197554
-0.0234708
-0.0268069
-0.0300431
-0.0314131
-0.0316129
-0.0321596
-0.0326816
0.0232034
0.0232538
0.0231057
0.022352
0.0212352
0.0200079
0.016636
0.0098923
0.00293189
-0.00128752
0.00410198
-0.00503252
-0.0119918
-0.0132724
-0.015733
-0.0190006
-0.0208142
-0.0215205
-0.0221603
-0.0224966
0.0134074
0.0134354
0.0134925
0.0131016
0.0120409
0.0114338
0.0109494
0.0081541
0.00293782
-0.00248552
0.0071198
-0.00186843
-0.00795406
-0.00492891
-0.00651715
-0.0102726
-0.0120967
-0.0126402
-0.0128253
-0.0128958
0.00443098
0.00445115
0.00460812
0.00472112
0.00407869
0.00333276
0.0035733
0.00321334
0.00111228
-0.00225334
0.00471282
-1.17422e-05
-0.00631831
-0.000970306
-0.00127998
-0.00521512
-0.00582442
-0.00548626
-0.00514291
-0.00507456
-0.554031
-0.100239
0.176592
0.383741
0.548929
0.682219
0.788671
0.87842
0.951185
0.987087
0.105606
0.315521
0.430538
0.548994
0.662415
0.756332
0.824778
0.863196
0.85983
0.859161
0.370312
0.501824
0.594646
0.676813
0.749964
0.810084
0.85262
0.873764
0.879268
0.915099
0.554264
0.641794
0.715561
0.776278
0.825827
0.865605
0.896177
0.919584
0.939055
0.971949
0.701384
0.758351
0.81401
0.85898
0.895441
0.925493
0.951354
0.975436
0.999969
1.02512
0.821486
0.86144
0.901409
0.93557
0.964527
0.989796
1.0131
1.03587
1.05833
1.07711
0.925779
0.953025
0.982696
1.00949
1.03358
1.05573
1.07676
1.09699
1.11613
1.13197
1.01831
1.03718
1.06041
1.0829
1.1037
1.12304
1.14136
1.15892
1.17553
1.18911
1.10264
1.11976
1.13897
1.15717
1.17442
1.19094
1.20689
1.22222
1.23672
1.24895
1.18584
1.19936
1.21592
1.23187
1.24691
1.26114
1.27471
1.28781
1.30037
1.31085
1.27269
1.2812
1.29417
1.30811
1.32143
1.33376
1.34525
1.35607
1.3664
1.37544
1.36076
1.36637
1.37626
1.38806
1.39958
1.40994
1.41906
1.42735
1.43532
1.4424
1.45244
1.45601
1.46294
1.47117
1.4794
1.4872
1.49435
1.50079
1.50692
1.51272
1.54829
1.54859
1.55047
1.55335
1.55698
1.56161
1.56742
1.57418
1.58113
1.5872
1.65015
1.64138
1.6319
1.62466
1.62127
1.62274
1.62943
1.64072
1.65506
1.66852
1.75679
1.7197
1.68883
1.6698
1.66086
1.66048
1.66864
1.6876
1.71889
1.75778
)
;

boundaryField
{
    wall-4
    {
        type            zeroGradient;
    }
    pressure-outlet-7
    {
        type            fixedValue;
        value           uniform 0;
    }
    velocity-inlet-6
    {
        type            zeroGradient;
    }
    velocity-inlet-5
    {
        type            zeroGradient;
    }
    frontAndBackPlanes
    {
        type            empty;
    }
}


// ************************************************************************* //
