/*--------------------------------*- C++ -*----------------------------------*\
  =========                 |
  \\      /  F ield         | OpenFOAM: The Open Source CFD Toolbox
   \\    /   O peration     | Website:  https://openfoam.org
    \\  /    A nd           | Version:  6
     \\/     M anipulation  |
\*---------------------------------------------------------------------------*/
FoamFile
{
    version     2.0;
    format      ascii;
    class       volVectorField;
    location    "20";
    object      U;
}
// * * * * * * * * * * * * * * * * * * * * * * * * * * * * * * * * * * * * * //

dimensions      [0 1 -1 0 0 0 0];

internalField   nonuniform List<vector> 
918
(
(0.984994 -0.000756697 0)
(0.0053077 2.96627 0)
(-0.0155092 1.58474 0)
(0.979619 0.00188909 0)
(-0.00424653 1.56063 4.40587e-21)
(-0.00705192 2.94854 -1.96412e-18)
(0.845177 1.17438 7.44647e-19)
(0.437182 0.172645 -8.08034e-21)
(0.999914 -0.000297896 0)
(0.0792168 0.731751 0)
(-0.0346077 1.08558 0)
(0.769179 -0.0093679 0)
(0.0101813 2.93152 0)
(0.0028264 2.79405 0)
(-0.000937301 3.20345 1.15612e-18)
(-0.00275792 1.45507 -3.1312e-21)
(0.544301 0.0669459 5.06853e-19)
(0.220158 1.13512 6.71904e-19)
(0.965099 0.00688161 0)
(-0.00213732 1.30753 0)
(0.16642 0.254465 -4.31459e-19)
(1.00205 -0.00450307 0)
(0.999964 -0.00887048 0)
(0.975219 -0.00628307 0)
(0.685934 -0.0289091 0)
(0.0244787 2.63901 0)
(-0.0126441 2.91213 6.74262e-19)
(-0.0270694 1.60592 0)
(-0.0307857 1.73897 0)
(-0.027684 1.59949 0)
(-0.00768486 1.84141 0)
(-0.00182162 1.58517 -3.48499e-21)
(-0.00340046 1.46659 0)
(-0.022248 2.98758 -6.9016e-23)
(-0.0165396 3.00552 1.52692e-18)
(0.00230153 3.00066 0)
(0.873008 -0.00687948 0)
(0.362625 0.908183 -5.94886e-20)
(0.851854 1.18463 -1.10276e-18)
(0.987934 1.03512 1.0065e-18)
(0.713632 1.26795 -1.72994e-19)
(0.723752 1.24729 9.79801e-19)
(0.474152 0.265589 7.88346e-21)
(0.468193 0.153963 0)
(1.17583 0.52731 0)
(0.436999 0.287405 3.68373e-20)
(0.394958 0.194327 -3.8226e-20)
(0.920545 -0.00609096 0)
(1.00034 4.77709e-05 0)
(0.99991 0.000320131 0)
(1.00345 -0.00758898 0)
(1.00094 -0.00114787 0)
(1.00014 -6.75207e-05 0)
(0.0275683 1.78698 -2.57592e-19)
(0.0598181 0.885111 0)
(0.117737 0.831341 0)
(0.0214048 0.82438 0)
(0.0265258 0.683674 0)
(0.0259598 1.53652 0)
(-0.0520489 1.16396 0)
(-0.0462467 0.966076 0)
(-0.0339692 1.28263 0)
(-0.0234511 1.16862 0)
(0.850078 -0.00301039 0)
(0.867366 0.0134119 0)
(0.783727 -0.00449329 0)
(0.859368 0.0183456 0)
(0.750245 -0.0122653 0)
(0.0140009 3.00016 7.20267e-19)
(0.0112657 3.0057 0)
(0.00644256 3.00399 0)
(0.0119035 2.99697 8.05023e-24)
(0.00835457 2.95871 -1.07049e-18)
(0.012221 2.98298 0)
(0.0089395 2.90477 0)
(0.0214111 2.93109 1.47576e-24)
(0.00386375 2.82421 0)
(0.0269076 2.91828 0)
(-0.00111252 2.74382 0)
(0.311714 3.60538 0)
(-0.12327 3.68931 0)
(0.153347 3.29433 -1.07605e-18)
(0.00765778 3.02382 0)
(-0.0199028 1.81846 0)
(0.00307013 1.61934 3.08873e-21)
(-0.00305354 1.46419 -2.81056e-21)
(0.5988 0.136076 -1.74084e-19)
(0.55035 0.0282668 -1.65774e-19)
(0.586891 0.172186 -5.23362e-19)
(0.536427 0.100406 -3.52204e-19)
(0.251409 0.926597 0)
(0.310915 1.28163 -6.60781e-19)
(0.379021 1.26804 1.08972e-18)
(0.988429 0.00826103 0)
(0.944294 0.00655192 0)
(1.00029 0.000729337 0)
(1.0025 0.00915314 0)
(1.00311 0.00911571 -8.66396e-19)
(0.992071 0.00945922 6.5498e-19)
(-0.0150185 1.47259 0)
(-0.00592468 1.29033 0)
(-0.0345562 1.60981 0)
(-0.023721 1.51192 0)
(-0.00635092 1.34755 0)
(0.222218 0.263709 1.33392e-19)
(0.261914 0.238343 0)
(0.99373 -0.00730061 0)
(0.954064 -0.00647324 0)
(0.828706 0.0262579 0)
(0.79382 0.0360813 0)
(0.724196 -0.0208984 0)
(1.00527 0.00074303 0)
(0.744353 0.0468743 0)
(0.603986 -0.0239879 6.45424e-19)
(-0.0396358 2.86334 3.91369e-19)
(0.0348275 2.91321 0)
(0.0442783 2.89011 0)
(0.00298868 2.69947 0)
(-0.00847956 2.98639 6.29368e-19)
(-0.014487 2.89496 0)
(-0.0110056 2.99178 -1.97044e-18)
(-0.0116697 2.92983 6.75796e-19)
(-0.0265961 1.81581 0)
(-0.0210319 1.8126 0)
(-0.000226132 1.6102 9.54512e-23)
(0.000557643 1.58324 0)
(-0.00494842 1.46513 0)
(0.936006 -0.00311551 0)
(0.857585 -0.00770357 0)
(0.86898 0.00881589 0)
(0.948577 -0.0041241 0)
(0.88419 -0.00576131 0)
(0.489208 1.11029 6.18406e-20)
(0.539188 1.18541 0)
(0.318514 0.835059 9.48578e-22)
(0.26346 0.702395 0)
(0.947527 1.06825 -2.94334e-19)
(1.06554 0.860343 5.96228e-19)
(0.483471 1.35643 0)
(0.563888 1.3419 0)
(0.591044 1.25624 0)
(0.0936487 0.124766 -1.03388e-19)
(0.501743 0.245895 0)
(0.483328 0.151368 1.00617e-19)
(1.02647 0.916053 0)
(1.09278 0.754425 0)
(1.12388 0.688594 -5.2128e-19)
(1.15435 0.593762 0)
(1.2101 0.386623 4.77859e-20)
(0.955916 -0.00600875 0)
(0.962299 -0.00768909 0)
(0.899132 -0.00653571 0)
(0.983993 -0.00750586 0)
(0.974696 -0.007353 0)
(0.936339 -0.00573568 0)
(1.00027 0.00252008 0)
(1.00084 0.00129233 0)
(0.999984 0.000772771 0)
(-0.0184021 2.0419 1.51847e-19)
(0.148669 1.73469 0)
(-0.0643819 2.03784 1.58022e-19)
(-0.00570624 1.81955 -6.1688e-20)
(0.126408 1.13355 -5.57672e-19)
(0.0702953 1.00722 0)
(0.170725 0.955906 0)
(-0.014463 0.825395 0)
(-0.025038 0.726247 0)
(0.0333264 1.72892 1.38129e-21)
(-0.0212737 1.5641 0)
(0.0545983 1.71174 7.30706e-20)
(0.00788941 1.51534 -1.13695e-19)
(-0.0424638 0.895887 0)
(-0.0570924 1.02679 0)
(-0.0388274 0.836645 0)
(-0.0250965 1.37202 0)
(-0.0153051 1.22275 0)
(0.938741 0.0164986 0)
(0.873709 0.000477566 0)
(0.922545 0.00835406 0)
(0.84536 -0.00546211 0)
(0.818561 0.00379196 0)
(0.90675 0.0142376 0)
(0.887553 0.0127981 0)
(0.794917 3.31616e-05 0)
(0.010408 3.0671 -6.3202e-21)
(0.0148608 3.05965 0)
(0.012479 2.97044 0)
(0.00754246 2.87646 0)
(0.901932 4.00526 0)
(1.19774 3.39516 1.03061e-18)
(0.0842271 3.10487 0)
(-0.0146925 2.92604 0)
(-0.0251749 1.80291 0)
(-0.026355 1.81268 0)
(-0.0230611 1.80607 0)
(-0.010945 1.82988 4.15806e-21)
(-0.019295 1.82821 0)
(-0.0154547 1.8255 0)
(-0.000254615 1.49176 -1.08517e-20)
(0.00688728 1.67256 -1.34037e-20)
(0.00237516 1.63896 2.95533e-21)
(-0.00558696 1.47417 0)
(0.615342 0.107569 2.56236e-19)
(0.548025 0.00370699 -2.49626e-19)
(0.247549 1.52608 0)
(0.301267 0.658271 -2.1107e-19)
(0.20509 1.62577 -7.13677e-19)
(0.261319 1.15873 7.14074e-19)
(0.904665 0.00789823 0)
(0.967873 0.0109745 0)
(0.975595 0.010146 0)
(0.924889 0.00778119 0)
(-0.0212863 1.43159 0)
(-0.0171511 1.45938 0)
(-0.0108091 1.25833 0)
(0.382187 0.297444 3.3923e-19)
(0.332462 0.27371 -4.13871e-19)
(0.345212 0.219083 0)
(1.12787 0.0881368 -8.92529e-21)
(1.11512 0.0419312 0)
(1.03782 0.0421445 0)
(0.941282 0.00904068 0)
(0.634434 0.0805609 0)
(0.681474 0.0612014 -1.04874e-18)
(0.557466 -0.0132677 4.0872e-19)
(0.0115045 2.97786 4.75103e-19)
(-0.0330257 2.86317 4.61619e-20)
(0.00841245 3.05315 -1.35889e-20)
(0.0153208 3.0436 5.18455e-19)
(-0.0119232 3.00008 2.25141e-20)
(-0.0122102 2.95244 -9.15118e-23)
(-0.0149931 3.01339 -4.32633e-19)
(0.0139077 3.02698 3.0288e-19)
(0.00744017 3.03438 -4.85054e-19)
(0.927473 0.00327822 0)
(0.933605 -4.33897e-05 0)
(0.848351 -0.00611734 0)
(0.957572 0.0113451 0)
(0.944271 0.0128279 0)
(0.885677 0.00951601 0)
(0.92312 0.0141615 0)
(0.930285 0.0122447 0)
(0.847252 0.00716847 0)
(0.667701 1.41837 3.21426e-19)
(0.688625 1.5322 0)
(0.182993 0.367185 1.90802e-20)
(0.148486 0.538748 1.51207e-19)
(0.227374 0.653875 -8.32661e-20)
(0.193585 0.545598 1.50196e-19)
(0.294612 0.689207 6.17601e-19)
(0.113335 0.163968 2.02127e-19)
(0.558984 0.215516 3.81042e-19)
(0.530745 0.235876 9.2585e-20)
(0.505093 0.132756 1.90198e-19)
(1.20119 0.442954 3.42308e-19)
(1.22737 0.242077 3.59556e-19)
(-0.0221586 1.99658 1.33969e-20)
(0.00244285 1.76996 0)
(0.986613 0.0330024 0)
(0.951749 0.0221087 0)
(0.898059 0.000217602 0)
(0.0119522 3.07512 0)
(0.0170824 2.94375 8.6091e-19)
(0.0141504 2.95688 0)
(0.00578459 2.84978 -8.54509e-19)
(0.00879984 3.09005 2.06186e-19)
(0.0120048 3.0829 0)
(0.710036 1.83303 -2.55812e-19)
(1.2418 2.64698 8.50441e-19)
(0.695943 2.01372 -1.67454e-18)
(0.0234959 2.97913 -3.61203e-19)
(0.0428735 3.00548 0)
(-0.0368029 2.88328 0)
(0.0454933 1.69194 1.66912e-20)
(0.019745 1.70619 5.11811e-20)
(0.018309 1.50397 -2.55903e-21)
(0.267531 1.30945 6.8366e-19)
(0.260548 0.43992 -4.70277e-19)
(0.0524533 1.96008 4.16984e-19)
(0.128373 1.80862 -5.53454e-19)
(0.229291 1.5174 1.03651e-19)
(0.00532342 3.12051 -1.17235e-18)
(0.014576 3.12066 1.2912e-18)
(-0.00479225 2.9808 5.59953e-19)
(-0.000850178 2.97557 -5.0748e-19)
(-0.0177078 2.87815 -5.70331e-19)
(0.0123312 3.10047 -1.51081e-18)
(0.00575455 3.10505 1.51818e-18)
(0.191383 0.571745 0)
(0.137267 0.532658 -3.06244e-19)
(0.0839551 0.173278 1.36458e-19)
(0.313346 0.796357 6.13213e-19)
(0.175997 0.207783 -9.3331e-19)
(1.2144 0.170232 -8.10146e-20)
(1.22475 0.299855 0)
(1.211 0.114129 1.45966e-19)
(0.00139419 1.81358 1.97355e-21)
(-0.0297899 1.90902 0)
(-0.0245843 1.66776 0)
(0.308963 1.21628 -2.39255e-19)
(0.329476 1.02815 -5.0478e-19)
(0.217117 0.317334 8.6737e-19)
(1.00649 -0.0100529 0)
(1.0076 -0.00759911 1.57816e-19)
(-0.0279618 1.80253 0)
(-0.0361154 1.81113 0)
(1.00252 0.00359126 1.54236e-21)
(1.00318 0.00770136 3.2587e-19)
(-0.0110853 1.8355 -5.64233e-21)
(-0.00584922 1.83511 0)
(0.0470625 3.179 1.84145e-19)
(0.384019 3.56704 0)
(1.08517 0.684775 7.80401e-20)
(1.0122 0.0112632 -2.35296e-21)
(1.02107 -0.00947513 0)
(1.00167 3.17509e-05 1.80742e-23)
(0.136775 1.19825 0)
(0.191384 2.6407 0)
(-0.218381 1.36813 0)
(-0.195459 2.40319 -1.04093e-19)
(-0.113109 2.07574 4.64738e-20)
(1.00773 0.0176378 3.43717e-21)
(1.04607 0.00865341 0)
(1.0756 0.0281904 0)
(-0.0281025 1.81643 0)
(-0.0240587 1.87464 0)
(-0.0375568 1.77527 0)
(0.266839 1.45777 -4.52846e-19)
(1.01104 -0.00858128 0)
(1.0099 -0.0143399 0)
(1.00226 0.000329663 1.99448e-19)
(1.00599 -0.00545436 -2.38016e-19)
(1.00126 -0.0010667 0)
(-0.0336511 1.80764 0)
(-0.0296921 1.79918 0)
(-0.0299566 1.8043 0)
(-0.0343634 1.77853 0)
(-0.0313804 1.78555 0)
(-0.0326678 1.78582 0)
(1.02927 -0.0114818 0)
(1.01895 0.0112475 -1.03621e-21)
(0.762232 1.30963 5.61802e-19)
(1.00291 0.000241573 -2.00902e-19)
(1.00386 0.0049229 2.41827e-19)
(1.00115 0.00196388 0)
(1.01202 0.00968771 1.94759e-19)
(1.0071 0.00807225 -2.45056e-19)
(1.0078 0.011791 0)
(-0.0216415 1.87279 0)
(-0.0121035 1.85214 3.73483e-21)
(-0.011348 1.85294 -1.36961e-21)
(1.19528 0.265742 -1.77483e-19)
(1.12884 0.0937691 0)
(0.0529567 3.0893 -5.6445e-19)
(0.0532972 2.86682 -4.27557e-20)
(0.111923 3.20364 7.15589e-19)
(0.127163 3.21732 -7.3191e-20)
(0.152843 3.26984 0)
(0.0248115 3.13886 1.39179e-19)
(0.0671357 3.16279 5.59089e-19)
(0.0669483 3.1822 -2.63846e-19)
(0.0294005 3.12818 0)
(0.657837 0.334597 0)
(0.623123 0.375428 0)
(1.07747 0.709952 -2.87502e-19)
(1.03839 0.85802 4.35189e-19)
(1.13468 0.603559 0)
(1.161 0.536235 0)
(1.01524 0.0120269 -3.57171e-19)
(1.01406 0.0125213 4.46319e-19)
(1.02529 -0.00902715 0)
(1.02374 -0.0108601 0)
(1.00697 0.00277702 0)
(1.00998 0.00329481 0)
(1.00421 0.00184043 0)
(1.00956 0.0070007 0)
(1.00789 0.00483081 0)
(1.00459 0.00514961 0)
(0.142732 1.21132 0)
(0.0892911 1.04815 0)
(0.212319 1.28373 0)
(0.142316 1.31027 0)
(0.171508 2.61852 0)
(0.226857 2.64997 -1.86629e-19)
(0.0880546 2.70535 0)
(0.0860544 2.68763 -3.98885e-20)
(-0.164564 2.68087 1.69047e-19)
(-0.172091 1.42127 0)
(-0.154505 1.47026 0)
(-0.217795 1.33278 0)
(-0.186793 1.19574 0)
(-0.399175 2.12269 1.39379e-19)
(-0.168606 2.18531 -1.30098e-20)
(-0.183071 2.38215 -6.31897e-20)
(-0.124989 2.26656 0)
(-0.104389 2.07017 -8.60804e-20)
(-0.0689542 2.02212 -5.6679e-21)
(-0.419023 2.09767 -1.34144e-19)
(-0.272977 2.12488 1.69883e-20)
(-0.274746 2.25874 8.31745e-20)
(1.01797 0.0259589 3.51103e-19)
(1.01564 0.013539 -4.27804e-19)
(1.00859 0.0273968 -3.71167e-19)
(0.9924 0.0171404 4.73753e-19)
(1.04609 0.0101548 0)
(1.03242 -0.00812924 0)
(1.06988 0.0396765 0)
(1.05388 0.019198 0)
(1.05493 0.012523 0)
(1.10724 0.0759618 0)
(1.08361 0.0499142 0)
(1.09544 0.0421932 0)
(-0.0200556 1.83941 -1.26412e-21)
(-0.0308504 1.82915 0)
(-0.023072 1.8299 0)
(-0.0376675 1.90093 8.56168e-21)
(-0.0323308 1.90893 -1.48086e-22)
(-0.0520593 1.81369 8.37329e-21)
(-0.040365 1.81019 -8.4774e-21)
(-0.0462101 1.78925 0)
(-0.0388535 1.79913 0)
(-0.038427 1.79903 0)
(-0.0493965 1.76074 0)
(-0.0360079 1.72818 0)
(0.37155 1.48714 8.76461e-19)
(0.378327 1.49221 3.49189e-19)
(0.591501 2.43067 -1.56575e-19)
(0.385398 2.52415 3.87184e-19)
(0.341164 2.09487 -4.51804e-20)
(1.02063 -0.00789926 0)
(1.01447 -0.00936848 0)
(1.01516 -0.0141425 0)
(1.00761 -0.00101545 0)
(1.00445 -0.00118116 0)
(1.00708 -0.00424258 0)
(1.01051 -0.00366108 0)
(1.01323 -0.00513031 0)
(1.02088 0.0137573 3.39693e-19)
(1.01539 0.0112938 -4.31447e-19)
(1.02174 0.0160849 -3.41883e-19)
(1.01647 0.0147866 4.26664e-19)
(0.733926 1.34626 0)
(0.655117 1.39291 6.37065e-19)
(0.83635 1.22088 3.80248e-19)
(0.854902 1.20519 -5.04422e-19)
(1.1552 2.62388 -5.9211e-19)
(0.833356 0.121567 2.57327e-19)
(1.13475 0.102743 0)
(1.17006 0.184596 1.4432e-19)
(1.15548 0.161451 6.56536e-21)
(0.983589 0.124399 0)
(0.101533 3.03388 -1.21173e-19)
(0.0979168 2.90569 -6.37705e-19)
(0.048436 2.35599 4.2572e-19)
(0.152671 0.0524678 -2.01625e-19)
(0.349546 3.46773 -4.99679e-19)
(0.199938 3.35495 0)
(0.231429 3.41901 6.5089e-19)
(0.237983 3.09183 -1.32214e-19)
(0.274115 3.21363 0)
(0.00766259 3.1221 2.98914e-20)
(0.0181092 3.13118 -3.65359e-19)
(0.0169868 3.12696 5.37761e-19)
(0.0361774 3.14 0)
(0.034373 3.15077 0)
(1.25694 2.59457 0)
(0.494207 0.841201 -2.04524e-19)
(0.966333 1.04338 -2.20197e-19)
(0.949274 1.06604 0)
(0.797078 0.944355 6.69941e-20)
(1.0305 0.895235 3.01494e-20)
(0.449926 0.439876 -4.98114e-19)
(0.704172 0.329461 -2.36329e-20)
(0.690382 0.28737 1.98484e-19)
(0.633039 0.397903 1.5831e-20)
(0.571407 0.396697 -6.55074e-19)
(0.673843 0.354592 0)
(0.706384 0.420579 3.25706e-19)
(0.702635 0.419877 0)
(0.65813 0.37599 0)
(0.632738 0.34354 0)
(0.738424 0.606576 9.30343e-20)
(1.19762 0.284119 1.40153e-19)
(1.17236 0.420984 0)
(1.1925 0.389991 0)
(0.769815 0.203564 3.00644e-19)
(0.807986 0.519677 -1.58669e-19)
(0.741444 0.48571 2.56567e-19)
(0.909433 0.4191 -2.20638e-19)
(1.01845 0.0126175 2.32085e-19)
(1.01669 0.0128915 -2.38395e-19)
(1.01503 0.0129142 0)
(1.03071 -0.0106612 0)
(1.02867 -0.00983712 -2.10664e-19)
(1.02609 -0.012956 2.08356e-19)
(1.02729 0.00574608 0)
(1.02572 0.0134022 0)
(1.01249 0.00445268 0)
(1.01415 0.00916648 0)
(1.0159 0.00373144 0)
(1.01457 0.00206403 0)
(0.049118 1.02855 0)
(-0.0612976 0.990374 0)
(0.312575 1.34406 4.92466e-19)
(0.263468 1.46939 2.69351e-19)
(0.199614 1.43753 6.2715e-19)
(0.208005 1.43505 -9.87117e-19)
(0.264186 1.41353 0)
(0.292041 1.62212 2.82438e-19)
(0.317049 1.64698 0)
(0.334433 2.0416 6.57158e-20)
(0.336364 2.37752 2.3085e-19)
(0.288555 1.47096 -2.56365e-19)
(0.269013 1.42793 2.11376e-19)
(0.267054 1.39504 -1.71007e-19)
(0.276463 1.3577 3.55286e-19)
(0.247781 1.58695 0)
(0.278732 1.62698 -2.3073e-19)
(-0.154093 2.54952 2.19712e-19)
(-0.12706 2.72203 0)
(0.0479593 2.56467 -4.03002e-19)
(-0.0427873 2.62962 0)
(0.0170418 2.75941 4.44882e-20)
(-0.0828526 2.73528 0)
(-0.377727 1.61254 2.32333e-19)
(-0.457013 1.73364 0)
(-0.31512 1.41712 0)
(-0.319415 1.4333 -2.61996e-19)
(-0.217445 2.52035 -6.96174e-20)
(-0.173776 2.6695 -2.15168e-19)
(-0.1733 2.60443 -1.47706e-21)
(-0.30604 1.94832 -9.2541e-21)
(-0.371504 1.92291 -4.51006e-20)
(-0.128997 1.53631 0)
(-0.0913188 1.57414 0)
(-0.370978 1.84902 -5.59887e-19)
(-0.311514 1.4478 -5.28052e-19)
(-0.370573 1.69442 6.68656e-19)
(-0.131134 1.80643 0)
(-0.0662728 1.86151 -2.9438e-20)
(-0.060062 1.89119 1.08133e-20)
(-0.0724604 1.90305 -3.64659e-21)
(-0.254544 1.88575 1.10261e-20)
(-0.115033 1.9729 -4.54888e-21)
(-0.139861 2.0112 4.67933e-20)
(1.0206 0.0185592 -2.31041e-19)
(1.02095 0.0205579 2.2745e-19)
(1.01485 0.0176954 0)
(1.00275 0.046241 3.34418e-19)
(0.993277 0.0297497 -4.01077e-19)
(0.968756 0.0300236 4.65226e-19)
(1.00215 0.083134 -4.31466e-20)
(1.03391 -0.0110021 0)
(1.0353 -0.00493552 1.83115e-19)
(1.02704 -0.0170309 -1.84973e-19)
(1.05501 0.0423777 -9.60206e-21)
(1.05304 0.0331854 8.7617e-20)
(1.0543 0.0562845 0)
(1.04382 0.0484884 -3.36593e-20)
(1.03458 0.0320983 0)
(1.02979 0.0231267 0)
(1.03171 0.00931912 0)
(1.02888 0.0118734 0)
(1.04318 0.0296407 7.00673e-20)
(1.04536 0.0209328 -1.61266e-19)
(1.04614 0.0330492 -6.90385e-20)
(1.04454 0.0329428 -8.19374e-20)
(1.05618 0.0594234 1.36693e-19)
(1.07578 0.0539133 0)
(1.06957 0.0952251 0)
(-0.0592799 1.85953 -9.40509e-21)
(-0.0367704 1.83269 -1.23502e-21)
(-0.0458655 1.83925 0)
(-0.0365682 1.86006 9.41522e-21)
(-0.02421 1.8432 2.39284e-21)
(-0.0267048 1.85142 -2.00387e-21)
(-0.0604506 2.00205 4.67567e-22)
(-0.0782287 1.92906 -1.32588e-21)
(-0.0911689 1.94853 5.97081e-21)
(-0.0448447 1.94829 -4.16367e-21)
(-0.0454 1.96076 5.71496e-21)
(-0.0656007 1.79778 3.07004e-22)
(-0.0688776 1.81619 1.26306e-20)
(0.404932 1.41314 -4.37542e-19)
(0.349027 1.38393 -4.4926e-19)
(0.62611 1.43109 -6.15081e-19)
(0.509693 1.49593 -3.36575e-19)
(0.529306 1.47568 0)
(0.59558 2.40343 1.18705e-19)
(0.660167 2.38644 2.15684e-19)
(0.419281 2.48745 7.33937e-20)
(0.406945 2.5499 -1.72579e-19)
(0.508431 2.51748 2.37859e-19)
(0.541764 2.44455 0)
(0.489335 2.48369 -3.35388e-19)
(0.280539 2.54589 5.70419e-19)
(0.359942 2.52749 -6.4668e-20)
(0.294371 2.60997 -8.8673e-19)
(0.93212 2.38609 1.68683e-19)
(0.832359 2.37464 0)
(1.01061 0.000961363 7.74463e-21)
(1.01635 -0.00539718 -6.59421e-21)
(1.01679 -0.00460926 -1.15751e-19)
(1.01528 -0.00113737 1.15716e-19)
(1.01254 0.00107166 0)
(0.613252 1.26585 0)
(0.635199 1.16795 0)
(0.744533 1.08942 0)
(0.618163 1.13139 0)
(1.18571 2.6442 4.61021e-20)
(1.07417 2.37697 0)
(0.833369 2.24022 -2.23247e-21)
(0.832206 2.49618 0)
(0.922025 2.57561 4.55226e-20)
(0.953878 2.52262 -3.05783e-20)
(0.842467 0.139283 0)
(0.808555 0.158018 7.5209e-20)
(0.928485 0.13121 3.70658e-19)
(0.863452 0.10484 -1.51143e-19)
(0.846176 0.0733628 -4.54304e-19)
(1.03122 0.211007 -1.56875e-19)
(0.942754 0.266731 -8.47129e-21)
(0.905926 0.303229 3.15445e-19)
(0.978975 0.208503 2.22508e-19)
(0.926295 0.170307 -4.55921e-19)
(0.89244 0.179323 6.17483e-20)
(0.9221 0.286797 -1.05622e-19)
(0.89725 0.192314 0)
(0.972147 0.161527 2.13094e-19)
(1.01007 0.175109 0)
(1.00712 0.186011 0)
(1.08988 0.112409 4.92033e-20)
(1.01903 0.158034 -1.02261e-20)
(1.02389 0.218669 -3.42072e-20)
(1.07435 0.19367 0)
(1.02144 0.0312681 1.73755e-19)
(1.03636 0.0519047 2.01136e-19)
(1.03247 0.0344362 -1.72403e-19)
(1.03065 0.0534302 -1.3573e-19)
(1.01435 0.0543013 -2.35477e-19)
(0.973956 0.127452 0)
(0.976456 0.0768536 0)
(0.967536 0.0453056 -1.68262e-19)
(0.93612 0.0609562 7.35935e-20)
(1.01975 0.0840585 1.91655e-19)
(1.03879 0.113728 -1.66039e-19)
(1.02941 0.147395 1.60071e-19)
(1.00788 0.121319 0)
(1.05069 0.099656 0)
(1.03284 0.0886921 -7.25465e-20)
(1.03025 0.0809637 -1.51485e-19)
(0.575057 1.10426 -1.25373e-19)
(0.610749 1.46617 2.23868e-19)
(1.13871 2.75441 1.00081e-19)
(1.19455 3.1312 -7.538e-20)
(1.24691 2.74809 5.93317e-19)
(1.29151 2.72012 -3.05562e-19)
(1.2643 2.33298 -3.48513e-20)
(1.18046 3.035 2.31464e-19)
(1.19798 2.99026 -2.51232e-19)
(1.17881 3.28366 -2.5419e-19)
(1.39918 2.99611 3.13048e-19)
(1.41194 2.93489 0)
(0.52157 0.861848 -8.12475e-21)
(0.258983 1.25411 2.70017e-19)
(0.489187 0.537304 3.19921e-19)
(0.351565 0.313619 3.74742e-19)
(0.577444 0.42506 3.64576e-19)
(0.566511 0.501858 -5.77702e-19)
(0.566803 0.505482 4.8253e-19)
(0.537655 0.461708 -1.93299e-19)
(0.506065 0.402333 4.40748e-19)
(0.779435 0.250157 -1.67709e-19)
(0.737946 0.305057 0)
(0.726527 0.257416 1.1285e-20)
(0.727802 0.50085 1.71719e-19)
(0.687711 0.473103 -6.33741e-19)
(0.654191 0.485199 2.32965e-20)
(0.658912 0.450479 0)
(0.652105 0.736212 1.14706e-19)
(0.746525 0.767786 5.40695e-20)
(0.686085 0.82038 -6.95446e-20)
(0.823321 0.787569 -4.3758e-21)
(0.874793 0.833521 1.90841e-20)
(0.880322 0.842513 -1.95742e-20)
(0.807043 0.640469 -1.58328e-19)
(0.882178 0.690955 4.06887e-21)
(0.943021 0.701034 0)
(0.933489 0.678016 1.23018e-20)
(0.978739 0.308111 4.80328e-20)
(1.10253 0.293485 -4.45379e-20)
(1.01456 0.24964 6.36142e-20)
(0.948962 0.350351 -1.11139e-19)
(0.981865 0.441445 0)
(1.05792 0.398882 0)
(0.874319 0.380127 1.02269e-20)
(0.817843 0.296556 0)
(0.848378 0.27532 1.75295e-19)
(0.866358 0.309798 7.02901e-21)
(0.90883 0.432403 6.02012e-19)
(0.852505 0.496531 1.46625e-19)
(0.859265 0.446931 -2.14432e-19)
(0.80173 0.434044 2.27173e-19)
(0.796803 0.427401 1.57179e-19)
(0.770973 0.399586 -1.54547e-19)
(1.02722 -0.00394633 1.78737e-19)
(1.01965 -0.00147348 0)
(1.01818 -0.000451685 1.22025e-19)
(1.02309 -0.00164282 -2.74247e-19)
(1.02134 0.00155452 1.3297e-19)
(1.02107 0.00949928 -2.83366e-19)
(1.02235 0.00934037 0)
(1.0205 0.0115299 -5.90429e-20)
(1.01665 0.00723363 1.48561e-19)
(1.01692 0.0102861 -7.48393e-20)
(1.01784 0.0092683 5.44943e-20)
(-0.199251 1.18652 0)
(-0.287805 1.3568 0)
(-0.122148 1.07607 0)
(-0.129879 1.04415 0)
(0.184401 1.33139 -1.16106e-18)
(0.216807 1.22759 3.83517e-19)
(0.277209 1.63285 2.60044e-19)
(0.302602 1.30119 -2.42675e-19)
(-0.21263 1.4751 7.77224e-19)
(-0.173655 1.48767 -5.82748e-19)
(0.0716669 1.23323 3.80145e-20)
(-0.0161855 1.21378 7.18144e-19)
(-0.112088 1.18483 9.23674e-20)
(-0.220959 1.27987 8.26482e-20)
(0.127819 2.52816 4.12028e-19)
(0.116829 2.53642 0)
(0.219236 2.15424 -5.39268e-20)
(0.260493 1.79207 -1.54039e-19)
(0.251588 2.07284 3.47394e-20)
(0.259261 2.41936 0)
(0.253812 2.41392 -1.38891e-19)
(0.313563 2.40842 1.04731e-19)
(0.314086 2.02199 1.12361e-19)
(0.2053 2.21151 5.99126e-21)
(0.109934 2.3355 0)
(-0.351526 2.25163 6.05844e-19)
(-0.33597 2.43666 3.53395e-19)
(-0.39699 2.309 0)
(-0.247861 2.56743 -8.54959e-21)
(-0.227554 2.52009 -2.9766e-19)
(-0.303419 1.58248 -1.46526e-20)
(-0.211282 1.61725 2.20992e-19)
(-0.22214 1.67638 -5.86694e-20)
(-0.328816 1.66253 -7.92129e-20)
(-0.367666 1.61043 0)
(-0.195408 1.67865 0)
(-0.0680514 1.70916 1.96931e-21)
(-0.115164 1.7278 2.56869e-22)
(-0.14851 1.70058 0)
(-0.0905133 1.63434 -1.46404e-21)
(-0.0488773 1.66283 -1.02637e-21)
(1.03339 0.00371275 0)
(1.03749 0.00291946 -1.70525e-20)
(1.04732 0.0175236 -1.25819e-19)
(1.04853 0.0182029 0)
(1.04537 0.0162866 0)
(1.04356 0.00352081 -6.61877e-21)
(1.03725 0.00314689 2.14357e-19)
(1.03986 0.010459 2.56088e-19)
(1.0315 0.0165337 0)
(1.02938 0.0181107 0)
(1.04152 0.0203547 1.28702e-19)
(1.03246 0.0187896 0)
(1.02979 0.0181855 0)
(-0.122306 1.86414 0)
(-0.0874218 1.81277 2.28049e-21)
(-0.100402 1.85055 7.0456e-21)
(-0.0918847 1.7452 0)
(-0.108912 1.79525 3.67452e-21)
(-0.0834327 1.78633 -4.84461e-21)
(-0.0776988 1.77066 0)
(0.40534 1.70672 0)
(0.322959 1.31122 7.23355e-19)
(0.253485 1.37169 0)
(0.426449 1.27413 -9.27264e-19)
(0.491339 1.43513 0)
(0.438133 1.389 4.30554e-19)
(1.02913 2.70893 -3.15856e-21)
(0.953137 2.4122 -2.12975e-19)
(0.889515 2.15852 2.56437e-19)
(0.847691 2.36989 1.02199e-19)
(0.851354 2.53102 0)
(0.916224 2.525 0)
(0.91518 2.38002 0)
(0.894537 2.35618 -3.68731e-19)
(0.694156 2.52065 3.18566e-20)
(0.807468 2.50429 -5.68748e-21)
(0.818306 2.47941 4.34866e-21)
(0.690402 2.36913 0)
(0.797336 2.37061 0)
(0.756924 2.37958 -2.18767e-19)
(0.776736 2.51022 0)
(0.56535 1.06098 0)
(0.493308 0.900591 -2.10843e-20)
(0.494117 0.961968 4.80194e-22)
(0.477818 1.08745 0)
(0.466219 1.00781 3.89236e-20)
(0.726491 0.869915 2.05357e-20)
(0.752124 1.0002 0)
(0.725549 0.976119 -7.86493e-20)
(0.605019 1.01743 0)
(0.603003 0.9361 0)
(1.15605 2.78207 8.10623e-20)
(1.13106 2.84424 1.41926e-19)
(0.923801 2.38331 -3.24071e-19)
(0.897812 2.35652 4.95893e-20)
(1.1236 2.75802 0)
(1.07573 2.72786 -5.97486e-20)
(1.08528 2.5047 -4.52785e-20)
(0.980703 2.23694 -2.79506e-20)
(0.503168 1.36844 0)
(0.506107 1.0806 1.10331e-19)
(0.562036 1.16042 0)
(0.861873 0.201604 0)
(0.821676 0.167447 0)
(0.770648 0.159513 0)
(0.860589 0.209917 -2.74433e-19)
(0.806305 0.206557 1.73609e-19)
(0.939793 0.0554352 -1.52311e-19)
(0.947777 0.103876 0)
(0.920847 0.112218 6.99261e-20)
(0.885506 0.0700002 2.86903e-19)
(0.880959 0.0517823 -1.75453e-19)
(1.10139 3.3758 -9.58675e-19)
(1.16617 3.29843 0)
(1.1231 3.4628 -2.06313e-18)
(0.66186 3.60917 1.74492e-18)
(1.03026 3.09318 4.59499e-19)
(0.502816 0.850778 1.62713e-19)
(0.491866 0.817028 0)
(0.393856 0.564549 -7.42509e-20)
(0.43677 0.696349 3.32547e-19)
(0.510814 0.543831 -1.02519e-19)
(0.510334 0.558183 1.15546e-19)
(0.672696 0.544262 2.28468e-19)
(0.68861 0.557703 0)
(0.624171 0.635297 0)
(0.593147 0.572249 0)
(0.942778 0.595322 -6.22856e-20)
(0.88592 0.531418 -1.40122e-19)
(0.910966 0.570853 3.07609e-20)
(0.958234 0.494405 -9.7689e-20)
(1.004 0.472088 0)
(1.02247 0.584733 7.97349e-21)
(0.824267 0.391836 -3.497e-19)
(0.820828 0.385133 -4.13419e-19)
(0.782987 0.380192 2.74872e-19)
(0.778767 0.350954 -3.14966e-19)
(0.816774 0.314122 -2.33176e-19)
(0.782697 0.31461 2.86504e-19)
(1.02659 0.00145498 -1.39195e-19)
(1.02765 -0.000473409 2.83505e-19)
(1.028 -0.00430402 1.68734e-19)
(1.02963 -0.00566443 -2.07544e-19)
(1.03288 -0.00101664 0)
(1.03235 -0.00106282 -3.37478e-19)
(-0.0120252 1.9127 -1.46063e-19)
(-0.0336551 1.80648 0)
(0.226766 1.80605 -8.66126e-19)
(0.240151 1.81598 7.58547e-19)
(0.256527 1.67766 -4.90477e-19)
(0.202077 1.68417 0)
(-0.223232 1.87965 0)
(-0.199924 1.75295 6.73233e-22)
(-0.15073 1.7562 -6.08828e-22)
(-0.131198 1.79367 5.38906e-21)
(-0.145565 1.87314 -8.36472e-21)
(-0.168687 1.87736 3.64614e-21)
(0.499979 1.37883 4.79734e-19)
(0.495588 1.39329 -5.16044e-19)
(0.431166 1.27329 4.88897e-19)
(0.418714 1.30777 -2.94401e-20)
(0.606828 1.29683 0)
(0.545551 1.36295 5.76498e-19)
(0.551404 1.37622 -5.57094e-19)
(0.449346 1.25109 -4.67245e-19)
(0.499255 1.21048 0)
(0.569166 1.19379 0)
(0.662843 2.47752 -4.71712e-20)
(0.666369 2.47649 5.13353e-19)
(0.722407 2.50275 -3.51018e-19)
(0.62667 2.48567 -1.15543e-19)
(0.545688 2.58227 8.33616e-20)
(0.499793 2.53642 -2.58531e-19)
(0.96537 2.37737 -1.39739e-19)
(1.00798 2.40504 0)
(0.907791 2.1466 -1.78573e-19)
(1.04439 2.70796 0)
(1.04374 2.69421 0)
(0.621287 2.33666 3.71035e-19)
(1.11741 3.08677 4.54228e-19)
(1.00203 2.9941 -5.36411e-19)
(0.352749 0.927811 0)
(0.376314 0.846298 -1.19218e-19)
(0.544429 0.759086 -3.93532e-20)
(0.397754 2.18928 0)
(0.422265 2.76471 -3.23212e-19)
(0.43089 2.51034 0)
(0.651387 0.686803 -2.40762e-19)
(0.703571 0.661283 3.36915e-19)
(0.717237 0.629618 -3.3699e-19)
(0.652354 0.658813 -3.66735e-20)
(0.7065 0.598717 -1.56105e-19)
(0.971171 2.7862 -3.44014e-19)
(1.01214 2.79114 2.81079e-19)
(0.578414 2.27648 -1.96376e-19)
(0.618176 1.78869 8.93367e-20)
(0.701966 1.90618 5.91416e-20)
(0.9746 2.4361 -9.45176e-20)
(0.970076 2.39822 -1.18058e-19)
(0.662222 1.85469 -2.96422e-21)
(0.455997 1.34617 -6.60607e-20)
)
;

boundaryField
{
    wall-4
    {
        type            noSlip;
    }
    velocity-inlet-5
    {
        type            fixedValue;
        value           uniform (1 0 0);
    }
    velocity-inlet-6
    {
        type            fixedValue;
        value           uniform (0 3 0);
    }
    pressure-outlet-7
    {
        type            zeroGradient;
    }
    wall-8
    {
        type            noSlip;
    }
    frontAndBackPlanes
    {
        type            empty;
    }
}


// ************************************************************************* //
