/*--------------------------------*- C++ -*----------------------------------*\
  =========                 |
  \\      /  F ield         | OpenFOAM: The Open Source CFD Toolbox
   \\    /   O peration     | Website:  https://openfoam.org
    \\  /    A nd           | Version:  6
     \\/     M anipulation  |
\*---------------------------------------------------------------------------*/
FoamFile
{
    version     2.0;
    format      ascii;
    class       volVectorField;
    location    "53.8";
    object      U;
}
// * * * * * * * * * * * * * * * * * * * * * * * * * * * * * * * * * * * * * //

dimensions      [0 1 -1 0 0 0 0];

internalField   nonuniform List<vector> 
8800
(
(0.987184 -0.0766675 0)
(1.00189 -0.0551948 0)
(0.999718 -0.0285552 0)
(1.00001 -0.0151532 0)
(1.00006 -0.00855627 0)
(1.00007 -0.00505878 0)
(1.00005 -0.00301371 0)
(1.00002 -0.0017127 0)
(0.999997 -0.000806711 0)
(1.00006 -9.11002e-05 0)
(0.999987 0.000637004 0)
(0.999995 0.00139926 0)
(1.00001 0.00242182 0)
(1.00003 0.00399707 0)
(1.00003 0.00663107 0)
(1.00001 0.0113703 0)
(0.999888 0.0208138 0)
(0.999145 0.0386711 0)
(1.00709 0.0724569 0)
(0.771212 0.0366609 0)
(0.363051 -0.016019 0)
(1.0433 -0.0768261 0)
(1.08458 -0.0704642 0)
(1.04517 -0.0535668 0)
(1.02325 -0.0389261 0)
(1.01197 -0.0262553 0)
(1.00638 -0.0169004 0)
(1.00357 -0.0103725 0)
(1.00214 -0.00571477 0)
(1.00145 -0.00206031 0)
(1.00131 0.00126096 0)
(1.00168 0.00464231 0)
(1.00265 0.00857914 0)
(1.00464 0.013924 0)
(1.00859 0.021636 0)
(1.01655 0.0326093 0)
(1.03246 0.046527 0)
(1.06262 0.0616474 0)
(1.09187 0.0760924 0)
(0.838683 0.0565581 0)
(0.216806 -0.00243174 0)
(1.07586 -0.0501591 0)
(1.09984 -0.0483451 0)
(1.0646 -0.0405079 0)
(1.03997 -0.0336602 0)
(1.02384 -0.0261489 0)
(1.01407 -0.0185745 0)
(1.00853 -0.0117625 0)
(1.00558 -0.00590242 0)
(1.00433 -0.000488077 0)
(1.00468 0.00475893 0)
(1.0066 0.0101484 0)
(1.0106 0.0162518 0)
(1.01793 0.0232917 0)
(1.03053 0.0307662 0)
(1.05062 0.0378062 0)
(1.08032 0.0444956 0)
(1.10625 0.0513188 0)
(0.942563 0.0416038 0)
(0.216188 0.00246018 0)
(0.175106 -0.000818657 0)
(1.01759 -0.0355169 0)
(1.10514 -0.0414327 0)
(1.07819 -0.0361308 0)
(1.05337 -0.0302089 0)
(1.03611 -0.0246471 0)
(1.02393 -0.0189331 0)
(1.01584 -0.0128637 0)
(1.011 -0.00668329 0)
(1.00881 -0.000355932 0)
(1.0094 0.00589709 0)
(1.01266 0.0118988 0)
(1.01887 0.0177516 0)
(1.02877 0.0233424 0)
(1.04322 0.0286525 0)
(1.06374 0.0341509 0)
(1.09355 0.0401472 0)
(1.09343 0.0419234 0)
(0.827245 0.0228968 0)
(0.174063 0.000851104 0)
(0.153874 -0.000612705 0)
(0.956001 -0.0254988 0)
(1.10336 -0.0351993 0)
(1.08758 -0.0327427 0)
(1.06159 -0.0281071 0)
(1.04398 -0.0231016 0)
(1.03155 -0.0178713 0)
(1.02273 -0.0123559 0)
(1.01694 -0.00643454 0)
(1.01412 2.78184e-05 0)
(1.01482 0.00649366 0)
(1.0188 0.012379 0)
(1.02581 0.0176906 0)
(1.03612 0.0226324 0)
(1.0507 0.0274043 0)
(1.07193 0.0319515 0)
(1.10009 0.0359017 0)
(1.06815 0.0339806 0)
(0.739719 0.0142931 0)
(0.152305 0.000649477 0)
(0.139467 -0.00046911 0)
(0.898991 -0.0191249 0)
(1.09562 -0.0301672 0)
(1.09561 -0.0292994 0)
(1.06908 -0.0255866 0)
(1.05065 -0.0214706 0)
(1.03776 -0.0167237 0)
(1.02868 -0.0114601 0)
(1.0226 -0.00573211 0)
(1.01951 0.000580774 0)
(1.02016 0.00688739 0)
(1.02426 0.0125288 0)
(1.0314 0.0175189 0)
(1.04194 0.0220102 0)
(1.05709 0.0259891 0)
(1.07928 0.0294777 0)
(1.10233 0.0321263 0)
(1.03613 0.0280549 0)
(0.673255 0.0101865 0)
(0.137252 0.000511589 0)
(0.128886 -0.000363966 0)
(0.849266 -0.0147704 0)
(1.08315 -0.0260525 0)
(1.10124 -0.0263765 0)
(1.07589 -0.0231201 0)
(1.05693 -0.0195114 0)
(1.04359 -0.0152967 0)
(1.03417 -0.0103992 0)
(1.02785 -0.00488835 0)
(1.02457 0.00124922 0)
(1.0251 0.00735403 0)
(1.02917 0.0127192 0)
(1.03641 0.0172998 0)
(1.04724 0.0211935 0)
(1.06279 0.0245105 0)
(1.08543 0.0274791 0)
(1.10148 0.0292617 0)
(1.00132 0.0235239 0)
(0.621544 0.00781765 0)
(0.125887 0.000414019 0)
(0.120798 -0.000283672 0)
(0.806965 -0.0116217 0)
(1.06777 -0.0224621 0)
(1.10469 -0.0237664 0)
(1.08209 -0.0209263 0)
(1.06273 -0.0175317 0)
(1.04911 -0.0136324 0)
(1.0394 -0.0090895 0)
(1.03282 -0.00386308 0)
(1.02931 0.00204922 0)
(1.02968 0.00790027 0)
(1.0337 0.0129188 0)
(1.04102 0.0170283 0)
(1.05196 0.0204138 0)
(1.06773 0.0233246 0)
(1.09071 0.0260065 0)
(1.09775 0.0269071 0)
(0.966193 0.0199636 0)
(0.58004 0.006277 0)
(0.116846 0.000343117 0)
(0.114515 -0.000220896 0)
(0.771306 -0.00926872 0)
(1.05086 -0.0193068 0)
(1.107 -0.021367 0)
(1.08791 -0.0189096 0)
(1.06815 -0.0156733 0)
(1.05429 -0.0119439 0)
(1.0444 -0.00760782 0)
(1.03757 -0.00262414 0)
(1.0338 0.00302149 0)
(1.03396 0.00856226 0)
(1.03789 0.0132076 0)
(1.04515 0.0169203 0)
(1.0561 0.0199322 0)
(1.07209 0.0225161 0)
(1.09473 0.0248522 0)
(1.09124 0.0249493 0)
(0.932056 0.0172095 0)
(0.545737 0.00522302 0)
(0.109404 0.000292067 0)
(0.109601 -0.000170372 0)
(0.741349 -0.00744337 0)
(1.03348 -0.01651 0)
(1.10834 -0.0191019 0)
(1.09341 -0.0169609 0)
(1.07338 -0.0138193 0)
(1.05926 -0.0101857 0)
(1.04919 -0.00599495 0)
(1.04214 -0.00120812 0)
(1.0381 0.0041934 0)
(1.03799 0.00942424 0)
(1.04171 0.013698 0)
(1.04884 0.0170231 0)
(1.05977 0.0196841 0)
(1.07593 0.0219914 0)
(1.09746 0.02397 0)
(1.08231 0.0233192 0)
(0.899492 0.0151054 0)
(0.516595 0.00448385 0)
(0.103084 0.000255857 0)
(0.105772 -0.000128544 0)
(0.716275 -0.00597316 0)
(1.01648 -0.0140062 0)
(1.10884 -0.016921 0)
(1.09883 -0.0150562 0)
(1.07853 -0.0119289 0)
(1.0641 -0.00834149 0)
(1.05381 -0.00422196 0)
(1.04654 0.000439111 0)
(1.04219 0.00560254 0)
(1.04174 0.0105037 0)
(1.04516 0.0144414 0)
(1.05211 0.0174481 0)
(1.06302 0.0197821 0)
(1.07938 0.0218136 0)
(1.0989 0.023399 0)
(1.07138 0.0220296 0)
(0.868627 0.0135378 0)
(0.491174 0.00397077 0)
(0.0975452 0.000231742 0)
(0.102839 -9.23532e-05 0)
(0.69544 -0.00474142 0)
(1.00045 -0.0117221 0)
(1.10862 -0.0147835 0)
(1.10405 -0.0131378 0)
(1.08365 -0.0100008 0)
(1.06892 -0.00639386 0)
(1.05837 -0.00228927 0)
(1.0508 0.00228866 0)
(1.04607 0.00729414 0)
(1.0452 0.0119409 0)
(1.04829 0.0155394 0)
(1.05503 0.0181901 0)
(1.06588 0.0202007 0)
(1.08236 0.0219793 0)
(1.09937 0.0231497 0)
(1.05873 0.0210662 0)
(0.839321 0.0124105 0)
(0.468402 0.00362653 0)
(0.092533 0.000217054 0)
(0.100683 -5.91031e-05 0)
(0.678377 -0.0036613 0)
(0.985851 -0.00958969 0)
(1.10791 -0.01259 0)
(1.10907 -0.0110526 0)
(1.08883 -0.0078542 0)
(1.07376 -0.00418991 0)
(1.0629 -6.82466e-05 0)
(1.05498 0.00447724 0)
(1.0498 0.00934575 0)
(1.04842 0.0137308 0)
(1.05106 0.0170132 0)
(1.05754 0.0193228 0)
(1.06833 0.020972 0)
(1.08487 0.0224799 0)
(1.09885 0.0232829 0)
(1.04455 0.0204552 0)
(0.811275 0.0116551 0)
(0.447444 0.00341447 0)
(0.0878499 0.000210071 0)
(0.0992415 -2.66401e-05 0)
(0.664781 -0.00266315 0)
(0.973028 -0.00753381 0)
(1.10703 -0.0103133 0)
(1.11404 -0.00883978 0)
(1.09415 -0.0055655 0)
(1.07869 -0.00176519 0)
(1.06747 0.0024788 0)
(1.05909 0.00706097 0)
(1.05333 0.0118282 0)
(1.05135 0.0159642 0)
(1.0535 0.0189146 0)
(1.05966 0.0208931 0)
(1.07037 0.0222099 0)
(1.08693 0.0234399 0)
(1.09715 0.0237848 0)
(1.02893 0.0201745 0)
(0.784088 0.0112128 0)
(0.427626 0.00330807 0)
(0.0833347 0.000209274 0)
(0.0984986 7.35993e-06 0)
(0.654504 -0.00168958 0)
(0.962304 -0.00547564 0)
(1.10627 -0.00784904 0)
(1.11903 -0.00633551 0)
(1.09968 -0.0029307 0)
(1.08382 0.00105158 0)
(1.07214 0.00543976 0)
(1.06321 0.0101049 0)
(1.05677 0.0148474 0)
(1.05404 0.0187882 0)
(1.05558 0.0214121 0)
(1.06137 0.0229938 0)
(1.07196 0.0238938 0)
(1.08843 0.0248273 0)
(1.09418 0.0246861 0)
(1.01187 0.0202462 0)
(0.757345 0.0110529 0)
(0.408397 0.00329241 0)
(0.0788604 0.000213995 0)
(0.0984758 4.04289e-05 0)
(0.647522 -0.0006973 0)
(0.953983 -0.00335047 0)
(1.10601 -0.00516108 0)
(1.12425 -0.0034816 0)
(1.10551 0.0001403 0)
(1.08917 0.004375 0)
(1.07696 0.00898693 0)
(1.06738 0.0137999 0)
(1.06009 0.0185114 0)
(1.05648 0.0222074 0)
(1.05729 0.0244681 0)
(1.06262 0.0256637 0)
(1.07306 0.0261558 0)
(1.08921 0.0267247 0)
(1.08973 0.0260358 0)
(0.993272 0.0206989 0)
(0.730564 0.0111577 0)
(0.389255 0.00335988 0)
(0.0743074 0.000223758 0)
(0.0992105 7.91314e-05 0)
(0.643918 0.000333733 0)
(0.94837 -0.00107171 0)
(1.10657 -0.00215623 0)
(1.12987 -0.000230929 0)
(1.11176 0.00365773 0)
(1.09491 0.00824294 0)
(1.08207 0.0131845 0)
(1.07167 0.0182129 0)
(1.06334 0.022961 0)
(1.05865 0.026455 0)
(1.05861 0.0283269 0)
(1.0634 0.0290775 0)
(1.07364 0.0291372 0)
(1.08911 0.0292715 0)
(1.08371 0.0278604 0)
(0.972918 0.0215518 0)
(0.703228 0.0115167 0)
(0.369734 0.00350427 0)
(0.0695687 0.000238086 0)
(0.100911 0.000139961 0)
(0.644091 0.00149364 0)
(0.945852 0.00143702 0)
(1.10838 0.00128906 0)
(1.13606 0.00362895 0)
(1.11853 0.00790514 0)
(1.10112 0.0129097 0)
(1.08749 0.0182263 0)
(1.07608 0.0235378 0)
(1.06651 0.0283611 0)
(1.06051 0.0316408 0)
(1.05943 0.0330801 0)
(1.06358 0.0333359 0)
(1.0736 0.0329034 0)
(1.0879 0.0325376 0)
(1.07579 0.0302537 0)
(0.950523 0.0228409 0)
(0.674787 0.0121287 0)
(0.349393 0.00372193 0)
(0.0645479 0.000256533 0)
(0.103624 0.000199703 0)
(0.648346 0.00288874 0)
(0.946861 0.00432311 0)
(1.11197 0.00528645 0)
(1.1431 0.00819425 0)
(1.126 0.0130147 0)
(1.10788 0.0185584 0)
(1.09331 0.0243673 0)
(1.08068 0.0300329 0)
(1.06957 0.034923 0)
(1.06201 0.037921 0)
(1.05972 0.0388418 0)
(1.06309 0.0385553 0)
(1.07284 0.0375703 0)
(1.08542 0.0366406 0)
(1.06571 0.0333156 0)
(0.925655 0.0246145 0)
(0.644641 0.012998 0)
(0.327795 0.00401038 0)
(0.0591542 0.000278627 0)
(0.107635 0.000281033 0)
(0.657302 0.00456315 0)
(0.95182 0.00768644 0)
(1.11779 0.0100083 0)
(1.15126 0.0136435 0)
(1.13437 0.0191419 0)
(1.11541 0.0253822 0)
(1.09966 0.0318311 0)
(1.0855 0.0379245 0)
(1.07253 0.0429059 0)
(1.06311 0.0455679 0)
(1.05944 0.0458727 0)
(1.06185 0.0449308 0)
(1.07128 0.0433095 0)
(1.08164 0.041749 0)
(1.05306 0.0371199 0)
(0.897793 0.0268971 0)
(0.612142 0.0141168 0)
(0.304513 0.00436076 0)
(0.0533099 0.000303022 0)
(0.113285 0.000390419 0)
(0.671637 0.00665357 0)
(0.961568 0.0118155 0)
(1.12642 0.0157158 0)
(1.16082 0.0203226 0)
(1.14389 0.0267323 0)
(1.1239 0.0338072 0)
(1.10665 0.0409708 0)
(1.09058 0.0475403 0)
(1.07534 0.0525702 0)
(1.06372 0.0547651 0)
(1.05843 0.0543461 0)
(1.05978 0.0526566 0)
(1.06878 0.0503103 0)
(1.07637 0.0479814 0)
(1.03735 0.0417887 0)
(0.866289 0.0297267 0)
(0.576604 0.0154769 0)
(0.279152 0.00476242 0)
(0.0469593 0.000328336 0)
(0.12108 0.000544709 0)
(0.692365 0.00938389 0)
(0.976904 0.016968 0)
(1.13857 0.0227104 0)
(1.17233 0.028583 0)
(1.15484 0.0362235 0)
(1.13344 0.0443041 0)
(1.11428 0.05229 0)
(1.09583 0.0593275 0)
(1.07784 0.0642505 0)
(1.06366 0.0657457 0)
(1.05646 0.0643843 0)
(1.05668 0.061853 0)
(1.06522 0.0586741 0)
(1.06929 0.0554356 0)
(1.01792 0.0473811 0)
(0.830359 0.0330998 0)
(0.537318 0.0170416 0)
(0.251374 0.0051919 0)
(0.0400788 0.000351913 0)
(0.131768 0.000767886 0)
(0.720797 0.0131424 0)
(0.998957 0.0236187 0)
(1.15498 0.031532 0)
(1.18637 0.0389529 0)
(1.16758 0.0481462 0)
(1.14426 0.0574558 0)
(1.12259 0.0663589 0)
(1.10113 0.0737612 0)
(1.07983 0.0783531 0)
(1.06276 0.0788631 0)
(1.05346 0.0762829 0)
(1.05239 0.0726976 0)
(1.06034 0.0685347 0)
(1.05989 0.0641619 0)
(0.993989 0.0539486 0)
(0.789147 0.0369827 0)
(0.493618 0.0187417 0)
(0.22097 0.00561321 0)
(0.0327004 0.000370257 0)
(0.146605 0.00112108 0)
(0.758908 0.0185482 0)
(1.02937 0.0325459 0)
(1.17656 0.0431416 0)
(1.20363 0.0525501 0)
(1.18245 0.0636815 0)
(1.15643 0.0743284 0)
(1.13143 0.0840007 0)
(1.10627 0.0914429 0)
(1.08116 0.0952338 0)
(1.0608 0.0943097 0)
(1.04924 0.0902466 0)
(1.04685 0.0853847 0)
(1.05372 0.0801124 0)
(1.04749 0.0743732 0)
(0.964561 0.0614702 0)
(0.741745 0.0412637 0)
(0.445001 0.020453 0)
(0.18797 0.00596941 0)
(0.0249338 0.000378428 0)
(0.167739 0.00172974 0)
(0.809887 0.0267316 0)
(1.07069 0.0452625 0)
(1.2045 0.0593444 0)
(1.22489 0.0715549 0)
(1.19953 0.0844783 0)
(1.16964 0.096232 0)
(1.14032 0.106166 0)
(1.11067 0.112967 0)
(1.08119 0.11521 0)
(1.05736 0.112219 0)
(1.04354 0.106255 0)
(1.03986 0.099941 0)
(1.0453 0.0936207 0)
(1.03137 0.0859423 0)
(0.928376 0.0697607 0)
(0.687355 0.0457163 0)
(0.391389 0.0219877 0)
(0.152843 0.00618037 0)
(0.0170092 0.000369537 0)
(0.198461 0.00306384 0)
(0.879351 0.0402545 0)
(1.12653 0.065498 0)
(1.23923 0.0836764 0)
(1.24982 0.0985726 0)
(1.21814 0.112747 0)
(1.183 0.124727 0)
(1.14842 0.133855 0)
(1.11369 0.138915 0)
(1.07956 0.138604 0)
(1.05218 0.132778 0)
(1.03608 0.12446 0)
(1.03117 0.116416 0)
(1.0348 0.108908 0)
(1.01041 0.0988062 0)
(0.88397 0.0784715 0)
(0.625622 0.0499412 0)
(0.333813 0.0231488 0)
(0.117006 0.0061785 0)
(0.00940297 0.000333227 0)
(0.240421 0.00916168 7.88676e-21)
(0.971242 0.0669824 6.78518e-21)
(1.19452 0.0997458 -2.38218e-21)
(1.2775 0.11989 0)
(1.27558 0.137215 -6.21726e-35)
(1.23624 0.15085 9.13102e-22)
(1.19514 0.161313 -1.67359e-21)
(1.15479 0.168213 0)
(1.11461 0.17048 3.49764e-35)
(1.07548 0.166884 -2.128e-21)
(1.04424 0.157781 0)
(1.02565 0.146886 -2.55204e-21)
(1.01937 0.137128 -7.54624e-21)
(1.02081 0.128626 -3.57488e-21)
(0.981626 0.11585 -1.0796e-21)
(0.826448 0.0896367 -6.42348e-22)
(0.551006 0.0547586 0)
(0.270379 0.0243546 4.50801e-22)
(0.08091 0.00634599 5.33983e-22)
(0.00231805 0.000305617 9.73187e-21)
(0.269553 0.0240786 5.36393e-21)
(1.04729 0.109174 1.07082e-22)
(1.25056 0.14855 6.16868e-22)
(1.31167 0.168624 0)
(1.29807 0.186246 -3.10216e-21)
(1.25162 0.197751 -3.55784e-21)
(1.20453 0.205918 -1.67522e-21)
(1.15822 0.210336 -6.0568e-21)
(1.11226 0.20981 0)
(1.06756 0.202931 9.05175e-21)
(1.0318 0.190558 9.02481e-21)
(1.0102 0.177114 2.69398e-21)
(1.0017 0.165303 9.86727e-21)
(0.996561 0.154234 1.39107e-20)
(0.937656 0.137099 0)
(0.750324 0.103344 1.96981e-20)
(0.464222 0.0610707 2.83146e-20)
(0.203767 0.0258046 3.15278e-20)
(0.0458485 0.00578128 -3.61793e-20)
(-0.004431 -0.000276696 -6.88445e-22)
(0.271068 0.0406241 0)
(1.09567 0.163808 8.27637e-22)
(1.28838 0.208263 0)
(1.33822 0.228125 -3.77061e-21)
(1.31557 0.24311 0)
(1.26314 0.25077 -6.88872e-21)
(1.21044 0.255217 3.40355e-21)
(1.15853 0.256062 -1.21043e-20)
(1.10705 0.251948 -3.16148e-22)
(1.05708 0.241328 4.67449e-21)
(1.01694 0.225447 1.99348e-20)
(0.992308 0.209308 -5.33661e-23)
(0.981244 0.195407 -7.19106e-21)
(0.970099 0.181674 -1.31653e-20)
(0.897945 0.159713 1.56231e-20)
(0.697152 0.117861 -2.77296e-20)
(0.416037 0.0677727 -3.67672e-21)
(0.173274 0.0276238 0)
(0.0313162 0.00504684 -1.97308e-24)
(-0.00729153 -0.000985011 0)
(0.264878 0.0545886 8.25642e-21)
(1.12196 0.222154 -4.3973e-21)
(1.31179 0.272558 -3.8768e-21)
(1.35571 0.29295 1.71193e-21)
(1.32673 0.304318 -2.91508e-21)
(1.2698 0.3075 1.44035e-20)
(1.21245 0.307578 7.08946e-21)
(1.15563 0.304236 0)
(1.09919 0.296026 -2.32283e-20)
(1.04433 0.281227 0)
(1.00006 0.261442 -1.04629e-20)
(0.972525 0.242432 -1.30155e-20)
(0.959093 0.226517 -7.85917e-21)
(0.943252 0.210183 -9.59145e-21)
(0.864438 0.183403 0)
(0.662744 0.134633 0)
(0.392938 0.077444 -2.40539e-20)
(0.163725 0.0316847 4.76734e-21)
(0.0276215 0.00509818 -2.792e-21)
(-0.00847444 -0.00165563 -3.3073e-21)
(0.257568 0.0669285 -1.22634e-21)
(1.13373 0.280502 0)
(1.3247 0.33792 6.87788e-21)
(1.36511 0.359258 4.5821e-21)
(1.33164 0.366976 6.93274e-21)
(1.27138 0.365711 0)
(1.21039 0.361353 6.83751e-21)
(1.14955 0.353676 1.33725e-20)
(1.08885 0.34114 1.18471e-20)
(1.02958 0.321912 2.21719e-20)
(0.981481 0.298259 0)
(0.951155 0.276469 -2.81435e-20)
(0.93535 0.258431 -1.70305e-20)
(0.915862 0.239371 -1.00926e-20)
(0.835426 0.20821 6.22684e-20)
(0.640085 0.153618 7.44728e-21)
(0.384503 0.0903153 3.50661e-20)
(0.166562 0.0380409 -1.66173e-19)
(0.0312765 0.00662079 9.85039e-20)
(-0.00796676 -0.0019994 -1.20234e-19)
(0.25065 0.0780727 2.04178e-21)
(1.13635 0.336994 1.42774e-22)
(1.33007 0.402518 -4.79545e-22)
(1.36806 0.425145 -3.80879e-21)
(1.33129 0.42939 -5.36929e-21)
(1.26852 0.423873 3.62343e-22)
(1.20468 0.415252 -7.43666e-21)
(1.14052 0.403351 1.3782e-20)
(1.07614 0.386525 -2.55546e-20)
(1.01295 0.362956 0)
(0.961385 0.3356 -1.27092e-20)
(0.928354 0.310987 -3.25238e-22)
(0.910045 0.290559 -1.86968e-20)
(0.88789 0.269126 0)
(0.808588 0.234116 -1.35316e-20)
(0.622981 0.174652 -3.23038e-20)
(0.383262 0.105414 8.65006e-20)
(0.174594 0.0468146 -8.52338e-20)
(0.039332 0.00997188 1.21285e-19)
(-0.00602115 -0.00184662 -1.27633e-19)
(0.244917 0.0884245 -1.04369e-22)
(1.13334 0.390974 7.47556e-22)
(1.33002 0.465331 6.24764e-23)
(1.36597 0.489458 1.12939e-21)
(1.32672 0.490556 -2.63343e-21)
(1.26206 0.48107 0)
(1.1959 0.468444 -6.72658e-21)
(1.12894 0.452521 -1.43966e-20)
(1.06137 0.431581 -1.32418e-20)
(0.994746 0.403852 0)
(0.94 0.372675 -1.31679e-20)
(0.904352 0.345007 -1.64525e-20)
(0.883814 0.322416 2.03354e-20)
(0.859627 0.299028 -1.24067e-20)
(0.78215 0.260568 -5.93234e-20)
(0.607624 0.196806 3.54569e-20)
(0.383593 0.121764 1.06062e-20)
(0.184178 0.0571268 0)
(0.0488643 0.0147579 -1.17754e-19)
(-0.00343686 -0.00127249 -4.37818e-21)
(0.240486 0.0983131 9.65279e-22)
(1.12698 0.442285 -1.37062e-21)
(1.32603 0.525803 -3.07744e-22)
(1.36008 0.55151 4.62834e-21)
(1.31888 0.549829 -8.95268e-21)
(1.25279 0.536724 1.25863e-20)
(1.18473 0.520389 1.45273e-20)
(1.11539 0.500689 -2.30052e-20)
(1.04501 0.47586 8.33646e-21)
(0.975266 0.444099 -5.46924e-20)
(0.917501 0.409008 -1.49868e-20)
(0.879528 0.378497 0)
(0.857156 0.354195 2.21054e-20)
(0.831279 0.328807 2.66012e-20)
(0.75547 0.287242 3.197e-20)
(0.591759 0.21952 -3.86226e-20)
(0.38196 0.138984 -1.14719e-20)
(0.191767 0.068677 1.34737e-20)
(0.0576729 0.0203887 0)
(-0.000731798 -0.000380829 -9.53214e-21)
(0.237221 0.107836 -1.50778e-20)
(1.11888 0.490974 8.2384e-21)
(1.31943 0.584071 6.81814e-22)
(1.35136 0.610943 2.23173e-21)
(1.30858 0.606799 -3.55233e-21)
(1.2414 0.59042 -8.21669e-22)
(1.17178 0.570711 -1.59638e-20)
(1.10036 0.547534 -8.34975e-21)
(1.02748 0.519061 -2.30822e-20)
(0.954806 0.483395 5.97391e-23)
(0.894229 0.444634 -4.68489e-20)
(0.854224 0.411712 3.99437e-20)
(0.830177 0.385678 -2.43676e-20)
(0.802629 0.358019 2.94274e-20)
(0.728375 0.313244 0)
(0.574307 0.241527 -2.10073e-20)
(0.377111 0.156004 -1.03952e-23)
(0.195908 0.0801141 -5.89328e-20)
(0.0641677 0.026071 -8.68323e-21)
(0.00156085 0.000597364 0)
(0.235022 0.117204 0)
(1.10996 0.537251 9.56253e-21)
(1.31088 0.639765 3.79905e-21)
(1.34063 0.667566 -1.42302e-21)
(1.2965 0.661226 -5.12635e-21)
(1.22845 0.641917 0)
(1.15753 0.619167 -6.95178e-21)
(1.0843 0.592839 -2.19619e-22)
(1.00914 0.561023 4.9504e-20)
(0.933702 0.521649 -7.48258e-21)
(0.870528 0.479625 -3.3883e-20)
(0.828647 0.44435 2.07228e-20)
(0.802913 0.41609 -4.41613e-22)
(0.773874 0.385923 3.12797e-20)
(0.700848 0.337887 1.9426e-20)
(0.554823 0.261799 -4.53973e-20)
(0.368824 0.171672 5.39263e-20)
(0.195702 0.0903997 1.59986e-20)
(0.0674928 0.0309778 6.61978e-20)
(0.00312732 0.00144348 -1.79053e-19)
(0.233785 0.126554 -5.11271e-21)
(1.10085 0.581291 6.77807e-21)
(1.30102 0.692697 -4.5314e-21)
(1.32851 0.721322 -1.43616e-22)
(1.28319 0.712992 0)
(1.21445 0.691067 -5.09695e-21)
(1.14243 0.665621 2.36607e-20)
(1.0676 0.636483 1.8171e-20)
(0.990329 0.601643 0)
(0.912253 0.558868 -1.08242e-19)
(0.846609 0.513789 9.17703e-20)
(0.802861 0.47579 0)
(0.775479 0.444853 2.85337e-20)
(0.74518 0.412253 -4.43454e-22)
(0.672839 0.360603 -6.20692e-20)
(0.533366 0.279686 2.43442e-20)
(0.357332 0.185249 0)
(0.19165 0.098636 8.63919e-20)
(0.0675246 0.0344951 0)
(0.00390086 0.00200795 -8.48067e-20)
(0.233329 0.135907 6.16365e-21)
(1.09192 0.623252 8.89925e-21)
(1.29026 0.742885 -4.49307e-21)
(1.31548 0.772222 0)
(1.26909 0.762072 -3.34587e-21)
(1.19979 0.737825 0)
(1.12683 0.710004 -2.28084e-20)
(1.05058 0.678401 -8.20051e-21)
(0.971318 0.640865 8.62919e-21)
(0.890711 0.595033 -5.35686e-20)
(0.822593 0.546871 9.44342e-21)
(0.776913 0.505711 0)
(0.748062 0.472096 -6.09216e-20)
(0.716548 0.437135 4.41388e-22)
(0.644082 0.381208 0)
(0.510073 0.2952 3.16696e-22)
(0.34267 0.196077 7.8791e-20)
(0.184018 0.104348 -7.46818e-20)
(0.0649376 0.0362878 2.21085e-20)
(0.00391602 0.00219727 0)
(0.233306 0.145154 0)
(1.08338 0.663161 1.08132e-20)
(1.279 0.790418 6.71893e-21)
(1.30192 0.820331 -5.00967e-22)
(1.25456 0.808491 -3.33716e-22)
(1.1848 0.782188 -1.13062e-20)
(1.11105 0.752307 8.67633e-21)
(1.0335 0.718567 -9.87882e-21)
(0.952357 0.678656 3.87775e-20)
(0.869263 0.630093 -8.55711e-20)
(0.798548 0.578735 -7.62359e-22)
(0.750871 0.534272 -2.65325e-20)
(0.720724 0.49824 9.89568e-20)
(0.687795 0.460568 -5.17244e-22)
(0.614545 0.399353 -4.82137e-20)
(0.484825 0.307937 -8.62068e-20)
(0.32524 0.203939 0)
(0.173214 0.107345 0)
(0.0602084 0.0365515 2.38596e-20)
(0.00343646 0.00208964 -1.41708e-20)
(0.233841 0.154402 8.76688e-21)
(1.07534 0.701026 -2.4705e-20)
(1.2675 0.835384 -7.25263e-21)
(1.28812 0.8657 0)
(1.23988 0.852302 -3.1759e-22)
(1.16976 0.824192 -9.32299e-21)
(1.09532 0.792544 2.02798e-20)
(1.0166 0.756968 3.82225e-20)
(0.933654 0.715005 5.01643e-20)
(0.848072 0.664004 -6.97406e-20)
(0.774574 0.609445 -7.89081e-20)
(0.724802 0.56188 7.09752e-20)
(0.693385 0.523543 0)
(0.658648 0.482129 -2.18647e-20)
(0.584294 0.414612 -5.21934e-20)
(0.458307 0.317658 -6.19505e-20)
(0.305389 0.208638 -7.35112e-20)
(0.159711 0.107587 2.178e-20)
(0.053579 0.0352415 -1.28515e-20)
(0.0025996 0.00171132 5.56042e-23)
(0.234658 0.163457 0)
(1.06787 0.737262 0)
(1.25592 0.877861 5.29605e-22)
(1.27428 0.908411 0)
(1.22526 0.893594 -1.86597e-21)
(1.15486 0.863903 5.42931e-21)
(1.07985 0.830745 0)
(1.00004 0.793607 4.40709e-21)
(0.915389 0.749904 8.33364e-20)
(0.827291 0.696755 -1.60426e-19)
(0.750813 0.639206 0)
(0.698781 0.588913 -4.56837e-20)
(0.665846 0.547903 -6.1317e-22)
(0.628859 0.501313 -4.86958e-22)
(0.553488 0.426852 5.57833e-20)
(0.430901 0.324373 -4.6488e-23)
(0.283435 0.210035 -1.58299e-19)
(0.144177 0.105052 4.68502e-20)
(0.0458747 0.032516 1.38962e-20)
(0.00154958 0.00112979 0)
(0.235508 0.172386 -3.55197e-20)
(1.06073 0.771843 -1.68459e-20)
(1.24436 0.917907 -2.17924e-20)
(1.26058 0.948562 2.11413e-20)
(1.21087 0.932441 -6.60551e-21)
(1.14026 0.901387 0)
(1.06476 0.866954 1.16635e-20)
(0.983986 0.828498 -9.91474e-21)
(0.897704 0.78336 7.85533e-22)
(0.80707 0.728373 1.18668e-20)
(0.727428 0.668249 1.02086e-19)
(0.672865 0.615576 -1.60067e-20)
(0.637895 0.571066 -6.10435e-20)
(0.598284 0.517819 -2.55017e-20)
(0.522323 0.436092 3.03461e-20)
(0.402961 0.327886 -8.86114e-24)
(0.260218 0.207977 4.26514e-20)
(0.127664 0.0999908 -1.00805e-19)
(0.0378489 0.0287659 1.19584e-19)
(0.000445365 0.000421588 1.76577e-20)
(0.236137 0.181085 1.35605e-20)
(1.05394 0.804854 -9.55108e-21)
(1.23296 0.955634 1.29081e-21)
(1.24714 0.986275 1.37989e-20)
(1.19683 0.968956 2.81097e-21)
(1.12609 0.936719 -8.45624e-21)
(1.0502 0.901215 3.0557e-21)
(0.968537 0.861655 -4.10525e-20)
(0.880725 0.815363 -9.12197e-20)
(0.787548 0.758881 -9.53535e-20)
(0.704596 0.696753 0)
(0.647106 0.641903 -7.04442e-20)
(0.609396 0.592854 8.80698e-20)
(0.566819 0.531662 0)
(0.490769 0.442249 -6.49895e-20)
(0.37472 0.327649 3.88243e-20)
(0.236817 0.202253 -4.58493e-20)
(0.111518 0.0928309 -5.42452e-20)
(0.0302858 0.0244644 -9.63248e-20)
(-0.000572646 -0.000307935 -7.60509e-20)
(0.237105 0.189634 -1.54357e-20)
(1.04735 0.836271 1.02323e-20)
(1.22177 0.9911 2.32868e-20)
(1.23405 1.02164 2.03087e-20)
(1.18325 1.00323 -5.2264e-21)
(1.11243 0.969984 -3.30126e-21)
(1.03623 0.933572 1.04174e-20)
(0.953781 0.893113 -4.17022e-20)
(0.864534 0.845933 -5.38499e-20)
(0.768856 0.788326 9.94793e-20)
(0.682469 0.724814 2.24095e-19)
(0.62157 0.667838 0)
(0.580307 0.613304 0)
(0.534298 0.543182 -2.93957e-20)
(0.458415 0.445077 0)
(0.346179 0.322693 8.35187e-20)
(0.214488 0.192168 9.86283e-20)
(0.0977067 0.0836893 0)
(0.0244029 0.0200806 0)
(-0.00138093 -0.000963805 8.17308e-20)
(0.237704 0.197705 1.76465e-20)
(1.04098 0.86608 1.39834e-20)
(1.21087 1.02442 1.70002e-20)
(1.22137 1.05478 -1.98112e-20)
(1.17016 1.03538 -7.13247e-21)
(1.09933 1.00126 1.61868e-21)
(1.02291 0.964079 -1.39548e-20)
(0.939779 0.922898 -2.40551e-23)
(0.849209 0.875073 -1.02397e-21)
(0.751104 0.81673 -1.03936e-21)
(0.661201 0.752446 1.15406e-19)
(0.596361 0.693308 0)
(0.550709 0.632674 8.92726e-20)
(0.500516 0.552973 6.27073e-20)
(0.424393 0.444511 1.51838e-19)
(0.316659 0.311715 4.49917e-20)
(0.194486 0.175391 -5.31197e-20)
(0.0902924 0.0700975 -3.12682e-20)
(0.0252379 0.0145281 0)
(-0.000746585 -0.00127804 8.78203e-20)
(0.238631 0.205785 -4.01311e-20)
(1.03482 0.894434 0)
(1.20026 1.05563 2.01884e-20)
(1.20913 1.08578 -1.69464e-20)
(1.15764 1.06549 1.00226e-20)
(1.08683 1.03061 1.42175e-21)
(1.01029 0.992785 2.53232e-20)
(0.92657 0.951043 -3.57618e-21)
(0.834789 0.902795 0)
(0.734378 0.84408 -1.09238e-19)
(0.640929 0.779601 -2.50418e-19)
(0.571623 0.718293 1.03644e-20)
(0.520801 0.65134 1.23134e-19)
(0.465337 0.56181 0)
(0.387514 0.441154 1.02535e-19)
(0.283844 0.293801 0)
(0.17508 0.146698 0)
(0.0943031 0.0380535 -3.38442e-20)
(0.0569102 -0.00634601 0)
(0.0273125 0.0071227 2.35363e-20)
(0.2391 0.213272 -4.50282e-20)
(1.02881 0.921517 0)
(1.18993 1.08494 3.37968e-20)
(1.19727 1.11489 0)
(1.14563 1.09383 -6.2113e-21)
(1.07488 1.05835 0)
(0.998288 1.02 9.6736e-22)
(0.914058 0.97789 5.63677e-21)
(0.821158 0.92947 6.73255e-21)
(0.718515 0.87077 -1.19561e-19)
(0.621474 0.806671 7.47059e-21)
(0.547112 0.743366 8.37314e-20)
(0.490256 0.670147 1.20237e-19)
(0.427936 0.570607 1.6281e-20)
(0.345963 0.436689 8.04284e-20)
(0.243051 0.270124 0)
(0.145515 0.102724 1.1214e-19)
(0.0805745 -0.00805455 -6.59586e-20)
(0.0330018 0.0588518 7.6946e-20)
(-0.0380998 0.454015 -9.14123e-20)
(0.2395 0.220583 3.74267e-20)
(1.02276 0.947225 5.64835e-20)
(1.17981 1.11268 0)
(1.18567 1.14254 1.0765e-21)
(1.13395 1.12098 1.85198e-20)
(1.0632 1.08514 -1.09248e-20)
(0.986604 1.04653 7.713e-21)
(0.901839 1.00439 0)
(0.807789 0.956213 4.37985e-20)
(0.702846 0.89813 -6.14699e-21)
(0.601915 0.835111 0)
(0.521574 0.770219 0)
(0.457279 0.690712 1.07508e-19)
(0.386048 0.580209 -5.03368e-20)
(0.296721 0.433212 -8.13836e-20)
(0.190238 0.244371 0)
(0.0823991 0.109149 5.70204e-20)
(0.00764906 0.466165 -6.64001e-20)
(0.0322664 1.92151 -3.72809e-20)
(0.0589592 2.82214 -4.56635e-20)
(0.239502 0.227305 -2.83224e-20)
(1.01672 0.971733 -7.28788e-20)
(1.16992 1.13884 2.02927e-20)
(1.17433 1.16859 1.68035e-20)
(1.12266 1.14675 0)
(1.05188 1.11072 -1.00269e-20)
(0.975443 1.07206 8.90568e-21)
(0.890102 1.03012 -2.62613e-21)
(0.794958 0.982506 6.55085e-21)
(0.687756 0.925546 1.13128e-19)
(0.58285 0.864141 1.2585e-19)
(0.495986 0.798571 9.32898e-20)
(0.422846 0.713166 1.08001e-19)
(0.341279 0.589724 -1.17983e-19)
(0.246316 0.433958 -1.22743e-19)
(0.12389 0.288341 0)
(0.0425567 0.871807 0)
(0.0903408 2.5766 3.15603e-20)
(0.092706 3.20935 0)
(0.0936422 3.38864 8.22894e-20)
(0.24229 0.23353 0)
(1.01093 0.995396 0)
(1.15996 1.16326 0)
(1.16302 1.1929 5.09146e-21)
(1.11145 1.17089 1.72453e-20)
(1.04073 1.13495 -1.02312e-20)
(0.964732 1.0965 5.05967e-21)
(0.87878 1.05494 -2.50185e-21)
(0.782603 1.00818 5.34876e-20)
(0.673236 0.952848 -1.93701e-21)
(0.564349 0.893467 2.47507e-19)
(0.470758 0.828518 -1.07837e-20)
(0.387012 0.738336 1.30449e-20)
(0.295863 0.597137 1.70716e-20)
(0.18547 0.452081 -3.66243e-22)
(0.0968985 1.01084 3.46239e-22)
(0.128887 2.75705 -1.65507e-19)
(0.133611 3.30098 -6.27613e-20)
(0.123178 3.42463 3.32489e-20)
(0.111907 3.44459 -3.74418e-20)
(0.164473 0.178344 1.74091e-20)
(1.00114 1.02093 0)
(1.14984 1.18624 -4.19446e-20)
(1.15212 1.21579 -4.60844e-20)
(1.10079 1.1939 4.05659e-20)
(1.03041 1.15827 1.17982e-20)
(0.954342 1.11976 -4.29385e-21)
(0.86795 1.07885 2.53091e-20)
(0.770832 1.03327 -4.33107e-20)
(0.659488 0.980131 0)
(0.546658 0.92309 1.21212e-19)
(0.446472 0.859877 -7.57506e-20)
(0.350237 0.769451 0)
(0.243666 0.606892 1.63592e-20)
(0.13856 0.798556 3.93965e-20)
(0.143183 2.55741 -4.50885e-20)
(0.192154 3.33096 5.14284e-20)
(0.173709 3.43719 2.77102e-20)
(0.143764 3.45562 3.17766e-20)
(0.123994 3.46402 5.03975e-20)
(0.277997 0.272884 -3.35873e-20)
(0.985004 1.03237 0)
(1.1323 1.21273 4.54125e-20)
(1.13796 1.24861 5.10985e-20)
(1.08393 1.22789 -4.55762e-20)
(1.01306 1.19271 -1.70184e-20)
(0.935832 1.15569 -4.99567e-22)
(0.848907 1.11611 2.00489e-21)
(0.75043 1.07283 3.9815e-20)
(0.63634 1.02404 9.52883e-20)
(0.518167 0.972332 6.71979e-21)
(0.406897 0.912528 6.66352e-20)
(0.284656 0.8149 1.214e-20)
(0.207678 0.972793 -1.5601e-20)
(0.213496 2.43036 -3.56272e-20)
(0.263963 3.33773 3.51384e-20)
(0.246928 3.4653 -3.85628e-20)
(0.212382 3.48308 -2.23824e-20)
(0.178312 3.50687 -1.99223e-20)
(0.133316 3.50083 -2.94299e-21)
(0.26856 0.27202 0)
(0.982758 1.05589 1.31336e-20)
(1.12414 1.23674 -9.33906e-21)
(1.12747 1.27243 -6.06146e-21)
(1.07327 1.25146 -3.14847e-20)
(1.00248 1.21649 1.75389e-20)
(0.924956 1.1797 2.07577e-21)
(0.837826 1.141 1.70612e-21)
(0.738805 1.09927 -4.06256e-20)
(0.623423 1.05352 -2.90327e-21)
(0.502301 1.0057 -2.15571e-19)
(0.385502 0.948408 9.5032e-21)
(0.274089 0.890041 -1.14218e-20)
(0.242093 1.56592 -1.42532e-20)
(0.303047 3.14645 3.64955e-21)
(0.317 3.46902 3.56583e-22)
(0.275128 3.51531 5.55565e-20)
(0.240984 3.53708 2.78225e-20)
(0.19521 3.55616 -8.23132e-21)
(0.145418 3.55186 -1.40431e-20)
(0.254526 0.270202 3.36415e-20)
(0.97964 1.08207 8.91695e-20)
(1.11563 1.26289 -2.67523e-20)
(1.1166 1.29785 -2.29053e-20)
(1.06221 1.27651 0)
(0.991551 1.24158 3.1018e-20)
(0.913989 1.20506 6.19923e-21)
(0.826908 1.16719 1.38475e-21)
(0.727649 1.12709 -4.55267e-21)
(0.611479 1.08454 -8.34538e-20)
(0.488256 1.0409 -9.8163e-20)
(0.366775 0.986441 -7.72157e-20)
(0.274464 1.03412 -8.5029e-20)
(0.305293 2.31312 8.82345e-20)
(0.381619 3.39752 7.45419e-20)
(0.354893 3.5268 0)
(0.3066 3.56161 0)
(0.269812 3.5939 -6.2355e-21)
(0.225491 3.63849 0)
(0.156455 3.62204 -9.21866e-21)
(0.244598 0.272291 -5.02897e-20)
(0.974579 1.1092 -7.5624e-20)
(1.10577 1.29035 0)
(1.10454 1.32419 1.30603e-21)
(1.04996 1.30227 -3.38879e-20)
(0.979578 1.26727 4.9944e-20)
(0.902296 1.23103 5.89047e-21)
(0.81549 1.19391 3.73468e-22)
(0.716244 1.1554 -2.65028e-20)
(0.599693 1.11597 4.01385e-21)
(0.475211 1.07648 0)
(0.351165 1.03036 0)
(0.299436 1.32189 -7.62583e-20)
(0.381423 2.9771 3.10611e-20)
(0.445451 3.49813 3.90214e-20)
(0.393101 3.5616 0)
(0.351241 3.61661 -1.07278e-21)