/*--------------------------------*- C++ -*----------------------------------*\
  =========                 |
  \\      /  F ield         | OpenFOAM: The Open Source CFD Toolbox
   \\    /   O peration     | Website:  https://openfoam.org
    \\  /    A nd           | Version:  6
     \\/     M anipulation  |
\*---------------------------------------------------------------------------*/
FoamFile
{
    version     2.0;
    format      ascii;
    class       volScalarField;
    location    "6";
    object      p;
}
// * * * * * * * * * * * * * * * * * * * * * * * * * * * * * * * * * * * * * //

dimensions      [1 -1 -2 0 0 0 0];

internalField   nonuniform List<scalar> 
5250
(
1
1.00003
1.00007
1.0002
1.0004
1.00114
1.00232
1.0066
1.01312
1.03953
1.07333
1.24828
1.48272
2.62921
5.18326
12.6591
12.5623
12.0508
11.6093
11.6298
11.7811
12.0788
12.2557
12.3513
12.4185
1
1.00003
1.00007
1.00019
1.0004
1.00114
1.00231
1.00657
1.01306
1.03933
1.07296
1.24711
1.47992
2.62202
5.16009
12.6036
12.5138
12.0183
11.5907
11.6169
11.7757
12.0705
12.2433
12.3383
12.4099
1
1.00003
1.00007
1.00019
1.0004
1.00112
1.00228
1.0065
1.01292
1.03891
1.0722
1.24452
1.47388
2.60572
5.10737
12.4757
12.4079
11.9539
11.5463
11.5783
11.7443
12.0311
12.1958
12.289
12.3663
1
1.00003
1.00006
1.00019
1.00039
1.0011
1.00224
1.00639
1.0127
1.03821
1.07096
1.24029
1.46407
2.57877
5.0205
12.2719
12.2556
11.8704
11.4787
11.5126
11.6786
11.9505
12.1037
12.1927
12.2737
1
1.00003
1.00006
1.00018
1.00038
1.00108
1.00219
1.00622
1.01239
1.0372
1.06921
1.23401
1.45012
2.53831
4.89175
11.9689
12.1076
11.7599
11.3887
11.4231
11.5825
11.8348
11.9752
12.0577
12.1386
1
1.00002
1.00006
1.00018
1.00037
1.00104
1.00211
1.00601
1.01196
1.03584
1.06686
1.22551
1.43167
2.48327
4.71951
11.5659
11.9494
11.6364
11.2787
11.3093
11.4527
11.6794
11.8032
11.8764
11.9576
1
1.00002
1.00006
1.00017
1.00035
1.00099
1.00201
1.00572
1.01141
1.03408
1.0638
1.21456
1.40775
2.41306
4.50063
11.0529
11.7865
11.5157
11.1537
11.1731
11.2868
11.4805
11.5788
11.6314
11.7036
1
1.00002
1.00005
1.00016
1.00033
1.00093
1.00189
1.00536
1.01072
1.03186
1.05997
1.20072
1.37845
2.32456
4.23258
10.4083
11.6406
11.4083
11.0174
11.0095
11.0813
11.229
11.2882
11.3018
11.3392
1
1.00002
1.00005
1.00014
1.0003
1.00084
1.00172
1.00489
1.00977
1.02914
1.05455
1.18479
1.34112
2.2163
3.91876
9.60307
11.5405
11.3266
10.8825
10.8006
10.8414
10.9223
10.9137
10.8481
10.7682
1
1.00002
1.00004
1.00012
1.00026
1.00073
1.00148
1.00425
1.00831
1.02588
1.0463
1.16537
1.29447
2.09663
3.55653
8.61466
11.539
11.2925
10.7445
10.554
10.5602
10.5493
10.4588
10.2119
9.7814
1
1.00001
1.00004
1.00009
1.00026
1.00052
1.00149
1.00292
1.00902
1.01592
1.05733
1.09598
1.35791
1.73105
3.34159
7.3292
11.616
11.3103
10.608
10.2961
10.2458
10.1411
9.88151
9.26358
7.61656
1
1.00001
1.00004
1.00008
1.00023
1.00046
1.00131
1.00265
1.00763
1.01483
1.04679
1.08328
1.29301
1.58611
2.8609
5.83003
11.6838
11.3121
10.4741
10.0368
9.91161
9.72414
9.32402
8.51197
6.83797
1
1.00001
1.00003
1.00008
1.00017
1.00048
1.00098
1.00277
1.00557
1.01617
1.03162
1.09856
1.18867
1.62004
2.43147
5.22672
11.3416
11.082
10.3132
9.75534
9.5607
9.32599
8.85069
8.04712
6.7728
1
1.00001
1.00002
1.00007
1.00015
1.00042
1.00086
1.00243
1.00491
1.01415
1.02786
1.08624
1.16216
1.54268
2.23054
4.71241
10.4914
10.4791
10.0733
9.48318
9.22591
8.96603
8.49128
7.76796
6.78117
1
1.00001
1.00002
1.00006
1.00013
1.00036
1.00073
1.00206
1.00413
1.01212
1.02281
1.0755
1.13235
1.47751
2.00405
4.19238
9.223
9.97904
9.75871
9.27923
8.95929
8.66675
8.22333
7.58775
6.77718
1
1.00001
1.00002
1.00005
1.00011
1.0003
1.00062
1.00174
1.0035
1.01013
1.01946
1.06271
1.1106
1.39769
1.81444
3.61397
7.80437
9.72131
9.57489
9.17693
8.76868
8.43494
8.0168
7.45021
6.76198
1
1.00001
1.00001
1.00004
1.00009
1.00025
1.0005
1.00141
1.00286
1.00819
1.01596
1.04997
1.08943
1.31369
1.63477
3.01112
6.23209
9.62778
9.5104
9.12834
8.63127
8.25594
7.85036
7.3392
6.73239
1
1
1.00001
1.00003
1.00007
1.0002
1.0004
1.00112
1.00226
1.00639
1.0127
1.03779
1.07037
1.23188
1.4608
2.43583
4.56774
9.3668
9.36193
9.09144
8.54273
8.10955
7.70668
7.2421
6.70298
1
1
1.00001
1.00003
1.00006
1.00015
1.00032
1.00088
1.00179
1.00502
1.01007
1.02936
1.05585
1.18198
1.34095
2.17129
3.7605
8.45984
9.09699
8.93332
8.49389
7.98777
7.57944
7.15342
6.67232
1
1
1.00001
1.00002
1.00004
1.00012
1.00024
1.00068
1.00137
1.00385
1.00762
1.02282
1.04166
1.14308
1.25337
1.91216
3.06543
6.795
8.78435
8.69342
8.39289
7.88642
7.47257
7.07622
6.6425
1
1
1.00001
1.00002
1.00003
1.00009
1.00019
1.00052
1.00105
1.00295
1.00595
1.017
1.03357
1.10202
1.19645
1.63394
2.43819
4.98876
8.51287
8.51013
8.32368
7.88345
7.41375
7.01598
6.61527
1
1
1
1.00001
1.00002
1.00007
1.00014
1.00039
1.00078
1.00218
1.00441
1.01249
1.02482
1.07345
1.1447
1.44517
2.00222
3.82488
7.76693
8.35191
8.22089
7.87348
7.38589
6.97464
6.59229
1
1
1
1.00001
1.00002
1.00005
1.0001
1.00028
1.00057
1.00158
1.00319
1.00904
1.01772
1.0542
1.09839
1.33555
1.67758
3.1065
6.24413
8.116
8.06644
7.84767
7.39215
6.95484
6.57377
1
1
1
1.00001
1.00001
1.00004
1.00007
1.0002
1.0004
1.00112
1.00226
1.00634
1.01253
1.03744
1.06862
1.22984
1.4407
2.39632
4.33179
7.72617
7.94617
7.79734
7.42246
6.95841
6.56804
1
1
1
1
1.00001
1.00002
1.00006
1.00012
1.00033
1.00067
1.00188
1.00378
1.01073
1.02123
1.06315
1.12317
1.37887
1.84967
3.35724
6.73451
7.75374
7.6771
7.41866
6.97637
6.57114
1
1
1
1
1.00001
1.00001
1.00004
1.00008
1.00023
1.00047
1.00131
1.00265
1.00745
1.0147
1.04414
1.08107
1.26934
1.53679
2.64308
4.99005
7.40828
7.48774
7.36892
7.04035
6.5868
1
1
1
1
1
1.00001
1.00002
1.00007
1.00014
1.00038
1.00076
1.00212
1.00426
1.01204
1.02413
1.06935
1.1431
1.41054
1.93721
3.47603
6.64514
7.34375
7.26975
7.03932
6.62571
1
1
1
1
1
1.00001
1.00002
1.00005
1.00009
1.00025
1.00052
1.00143
1.00289
1.00807
1.01607
1.04694
1.08982
1.28037
1.58592
2.69882
5.0981
7.05223
7.11052
7.00735
6.72308
1
1
1
1
1
1
1.00001
1.00003
1.00007
1.00014
1.00039
1.00079
1.0022
1.00441
1.01244
1.02498
1.07115
1.14795
1.41823
1.9495
3.45353
6.40505
6.99062
6.93524
6.74813
1
1
1
1
1
1
1.00001
1.00002
1.00004
1.00011
1.00022
1.00059
1.0012
1.00333
1.00654
1.0194
1.03519
1.11795
1.2086
1.71227
2.54095
5.06913
6.72616
6.80819
6.72412
1
1
1
1
1
1
1.00001
1.00001
1.00003
1.00006
1.00016
1.00033
1.0009
1.00183
1.00506
1.01011
1.02898
1.05586
1.16984
1.34244
1.99005
3.25776
6.12501
6.7017
6.66451
1
1
1
1
1
1
1
1.00001
1.00002
1.00004
1.0001
1.00021
1.00058
1.00118
1.00323
1.00642
1.01858
1.03427
1.11241
1.19784
1.67092
2.43955
4.74529
6.4207
6.56181
1
1
1
1
1
1
1
1
1.00001
1.00002
1.00007
1.00014
1.00037
1.00075
1.00205
1.00414
1.01151
1.0231
1.06529
1.13439
1.37918
1.84318
3.15932
5.7395
6.42118
1
1
1
1
1
1
1
1
1.00001
1.00002
1.00004
1.0001
1.0002
1.00054
1.00108
1.00298
1.00595
1.017
1.03203
1.10137
1.18445
1.59925
2.29143
4.35198
6.07805
1
1
1
1
1
1
1
1
1
1.00001
1.00003
1.00005
1.00014
1.00028
1.00077
1.00155
1.00427
1.00853
1.02434
1.04619
1.14354
1.27208
1.83179
2.81968
5.31046
1
1
1
1
1
1
1
1
1
1.00001
1.00001
1.00004
1.00007
1.0002
1.0004
1.0011
1.00222
1.00611
1.01213
1.03496
1.06563
1.20593
1.40001
2.1776
3.6826
1
1
1
1
1
1
1
1
1
1
1.00001
1.00002
1.00004
1.00012
1.00025
1.00067
1.00135
1.00367
1.00739
1.02057
1.03977
1.12078
1.22381
1.70053
2.51253
1
1
1
1
1
1
1
1
1
1
1
1.00001
1.00003
1.00007
1.00015
1.00039
1.0008
1.00215
1.00434
1.01191
1.02368
1.06696
1.13437
1.37931
1.82376
1
1
1
1
1
1
1
1
1
1
1
1.00001
1.00002
1.00004
1.0001
1.0002
1.00053
1.00108
1.00294
1.00585
1.01663
1.03102
1.09806
1.17619
1.56697
1
1
1
1
1
1
1
1
1
1
1
1
1.00001
1.00002
1.00005
1.00013
1.00027
1.00073
1.00148
1.00404
1.0081
1.02271
1.04378
1.13192
1.25215
1
1
1
1
1
1
1
1
1
1
1
1
1.00001
1.00001
1.00003
1.00007
1.00019
1.00037
1.00102
1.00205
1.00561
1.01125
1.03118
1.06369
1.17491
1
1
1
1
1
1
1
1
1
1
1
1
1
1.00001
1.00002
1.00005
1.0001
1.00028
1.00057
1.00158
1.00319
1.00894
1.0177
1.0521
1.10043
1
1
1
1
1
1
1
1
1
1
1
1
1
1.00001
1.00002
1.00003
1.00009
1.00019
1.00053
1.00107
1.00304
1.00612
1.01794
1.03521
1.11098
1
1
1
1
1
1
1
1
1
1
1
1
1
1
1.00001
1.00003
1.00008
1.00016
1.00047
1.00095
1.00277
1.00561
1.01678
1.0334
1.10561
1
1
1
1
1
1
1
1
1
1
1
1
1
1
1.00001
1.00002
1.00007
1.00015
1.00043
1.00088
1.00261
1.00531
1.01615
1.03225
1.10402
1
1
1
1
1
1
1
1
1
1
1
1
1
1
1.00001
1.00002
1.00006
1.00013
1.00038
1.00077
1.00238
1.00464
1.01562
1.02858
1.10529
1
1
1
1
1
1
1
1
1
1
1
1
1
1
1.00001
1.00003
1.00005
1.00015
1.0003
1.00092
1.00182
1.00595
1.0108
1.0406
1.0697
1
1
1
1
1
1
1
1
1
1
1
1
1
1
1.00001
1.00003
1.00005
1.00015
1.00031
1.00095
1.00193
1.00599
1.01201
1.03953
1.07519
1
1
1
1
1
1
1
1
1
1
1
1
1
1
1.00001
1.00002
1.00005
1.00014
1.00028
1.00087
1.00167
1.00576
1.01002
1.04051
1.06842
1
1
1
1
1
1
1
1
1
1
1
1
1
1
1.00001
1.00002
1.00005
1.00011
1.00033
1.00063
1.00216
1.0038
1.01519
1.02593
1.1072
3.87887
2.50918
2.58287
2.92564
3.87631
3.87
3.78663
3.70859
3.63255
3.54707
3.46165
3.38344
3.31128
3.24012
3.16733
3.09629
3.03101
2.97295
2.91604
2.85369
2.81178
2.79378
2.78866
2.79115
2.83556
2.92293
3.05065
3.20851
3.38146
3.55566
3.7228
3.8785
4.02269
4.15527
4.27459
4.38158
4.4768
4.56187
4.63839
4.70791
4.76825
4.8199
4.86301
4.89853
4.92883
4.95483
4.97272
4.98363
4.98836
4.9883
4.98604
4.97981
4.96734
4.95024
4.93015
4.90826
4.88392
4.85776
4.82931
4.79911
4.767
4.73334
4.69803
4.66136
4.62325
4.58397
4.54342
4.50186
4.45922
4.41572
4.37133
4.32621
4.28039
4.23395
4.18698
4.13955
4.09171
4.04356
3.99513
3.94657
3.89786
3.84916
3.80049
3.75194
3.70357
3.65545
3.60764
3.56021
3.51322
3.46675
3.4209
3.3758
3.3316
3.28855
3.24698
3.2074
3.17057
3.13766
3.11031
3.09206
4.3739
3.12265
3.1468
3.39345
3.91216
3.86417
3.78091
3.71103
3.63052
3.53863
3.44937
3.37263
3.30511
3.23755
3.16533
3.09373
3.02718
2.96763
2.91235
2.8572
2.81128
2.78958
2.78294
2.78497
2.82645
2.91115
3.03664
3.1941
3.36744
3.54191
3.70881
3.86365
4.00641
4.13863
4.2575
4.36446
4.45967
4.54441
4.62166
4.69398
4.75567
4.80876
4.85341
4.8909
4.92242
4.94842
4.9669
4.97854
4.98375
4.98387
4.98212
4.97678
4.96525
4.94771
4.92721
4.90501
4.88067
4.85448
4.82606
4.79582
4.76367
4.72997
4.69465
4.65798
4.6199
4.58066
4.54019
4.49871
4.45619
4.41279
4.36852
4.32351
4.27781
4.2315
4.18464
4.1373
4.08956
4.04149
3.99315
3.94463
3.896
3.84735
3.79873
3.75023
3.70192
3.65384
3.60607
3.55867
3.51171
3.46526
3.41942
3.37429
3.33006
3.28693
3.24523
3.20546
3.1684
3.13515
3.10724
3.08837
5.2177
4.13214
3.69451
3.71441
3.8475
3.83171
3.76919
3.68812
3.60783
3.52247
3.44205
3.37261
3.30477
3.23356
3.15791
3.08413
3.01639
2.95642
2.90373
2.85548
2.81131
2.78317
2.77274
2.77251
2.80904
2.88877
3.00855
3.1638
3.33819
3.51247
3.67806
3.831
3.97303
4.1093
4.23044
4.33937
4.43681
4.52433
4.6039
4.67683
4.74009
4.79469
4.84095
4.87988
4.91225
4.9386
4.95805
4.9708
4.97694
4.9775
4.97623
4.97198
4.96218
4.94455
4.92361
4.90091
4.8764
4.8501
4.82168
4.79139
4.7592
4.72542
4.69007
4.65337
4.61533
4.57612
4.53576
4.49437
4.45199
4.40872
4.36462
4.31976
4.27422
4.22806
4.18135
4.13415
4.08653
4.03856
3.99031
3.94189
3.89333
3.84475
3.79621
3.74778
3.69952
3.65151
3.60379
3.55644
3.50951
3.46307
3.41723
3.37208
3.32777
3.28454
3.24274
3.20279
3.16536
3.1315
3.10269
3.08275
5.62334
4.64781
4.03584
3.82343
3.82894
3.81812
3.77506
3.68501
3.59342
3.50855
3.42862
3.35914
3.28997
3.22071
3.14749
3.07607
3.01069
2.9526
2.89913
2.84974
2.80652
2.77239
2.757
2.75819
2.7933
2.86844
2.97915
3.12483
3.29843
3.47335
3.64016
3.79498
3.9388
4.07399
4.19627
4.30696
4.40662
4.49656
4.5779
4.65172
4.71682
4.77336
4.82162
4.86242
4.89634
4.92381
4.94454
4.95856
4.96587
4.96699
4.96602
4.96262
4.95453
4.93826
4.91705
4.89371
4.86875
4.84217
4.81368
4.78335
4.75114
4.71735
4.68202
4.64534
4.60739
4.56828
4.52808
4.48686
4.4447
4.40166
4.35781
4.31321
4.26792
4.222
4.17551
4.12851
4.08107
4.03326
3.98517
3.93687
3.88845
3.84
3.79158
3.74326
3.69513
3.6472
3.59959
3.55231
3.50545
3.45903
3.41325
3.36815
3.32394
3.28068
3.23874
3.19843
3.16046
3.12577
3.09583
3.07453
5.83359
4.96288
4.32493
3.97779
3.86201
3.8332
3.78912
3.70045
3.60544
3.51637
3.43262
3.35704
3.28286
3.21117
3.13849
3.06761
3.00228
2.94381
2.89085
2.84407
2.80479
2.77627
2.76467
2.76918
2.79768
2.86791
2.9752
3.10879
3.2585
3.42273
3.58523
3.73982
3.88487
4.02059
4.14521
4.2589
4.36189
4.45528
4.53973
4.61611
4.68384
4.74312
4.79393
4.83709
4.87293
4.90204
4.92433
4.94
4.94889
4.9512
4.95053
4.94795
4.94152
4.92804
4.90734
4.88379
4.85842
4.83152
4.80294
4.77262
4.74055
4.70682
4.67161
4.63505
4.59727
4.55834
4.51837
4.47742
4.43555
4.39281
4.34929
4.305
4.26003
4.2144
4.1682
4.12145
4.07426
4.02666
3.97877
3.93066
3.88243
3.83415
3.78591
3.73776
3.6898
3.64201
3.59453
3.54739
3.50075
3.45458
3.40896
3.36394
3.31968
3.27629
3.23408
3.19338
3.15479
3.11925
3.08811
3.06512
5.96425
5.19903
4.58273
4.17379
3.9514
3.87325
3.81998
3.737
3.6384
3.54157
3.45031
3.3672
3.28919
3.21425
3.1404
3.06959
3.00436
2.94648
2.89613
2.85426
2.82269
2.80496
2.80542
2.81685
2.85177
2.92068
3.00441
3.10645
3.22577
3.35161
3.49642
3.64961
3.8005
3.94392
4.07586
4.19573
4.3039
4.40183
4.49044
4.57035
4.64151
4.7041
4.75812
4.80414
4.84248
4.87367
4.89788
4.91544
4.92624
4.93025
4.92985
4.92801
4.92312
4.91252
4.89339
4.87038
4.84494
4.81774
4.78896
4.75861
4.72665
4.69314
4.65815
4.62182
4.58427
4.5456
4.50591
4.46527
4.42373
4.38135
4.33818
4.29426
4.24964
4.20435
4.15846
4.112
4.06506
4.01771
3.97005
3.92217
3.87416
3.82613
3.7781
3.73015
3.68242
3.63498
3.58787
3.54104
3.4946
3.44855
3.40299
3.35797
3.31366
3.27018
3.22778
3.18676
3.14766
3.11133
3.07908
3.05454
6.04926
5.37846
4.80245
4.37233
4.09642
3.95273
3.86554
3.7792
3.68154
3.58091
3.4837
3.39148
3.30678
3.22682
3.15095
3.07943
3.01451
2.95893
2.91584
2.88706
2.87381
2.87677
2.89315
2.93703
2.99926
3.04864
3.09348
3.1467
3.21578
3.28543
3.3745
3.51062
3.66501
3.82614
3.97654
4.11189
4.23076
4.3362
4.43004
4.51389
4.58867
4.65495
4.71277
4.7624
4.80403
4.83793
4.86463
4.88447
4.89758
4.90392
4.90389
4.90284
4.8994
4.89136
4.87496
4.8533
4.82846
4.80132
4.77244
4.74205
4.7102
4.67692
4.64224
4.60624
4.56903
4.53071
4.49139
4.45111
4.40997
4.36799
4.32525
4.28172
4.23751
4.19259
4.14705
4.1009
4.05428
4.00722
3.95986
3.91228
3.86457
3.81684
3.76925
3.72182
3.67455
3.62743
3.58053
3.53387
3.48753
3.44155
3.39605
3.35108
3.30678
3.26325
3.22072
3.17943
3.13986
3.1028
3.06957
3.0435
6.10937
5.5158
4.98248
4.55249
4.24281
4.04502
3.91978
3.81977
3.72029
3.61832
3.51779
3.4221
3.33334
3.25062
3.17298
3.10093
3.03782
2.9883
2.96005
2.95496
2.96089
2.98463
3.04434
3.15696
3.22173
3.24318
3.24467
3.24261
3.2441
3.25866
3.29471
3.36606
3.47978
3.64791
3.82108
3.98536
4.12977
4.2531
4.35803
4.44851
4.52726
4.59697
4.65816
4.71142
4.75673
4.79385
4.82373
4.84638
4.8622
4.87127
4.87308
4.87241
4.86994
4.86387
4.85115
4.8315
4.80802
4.78161
4.75299
4.72268
4.69094
4.65788
4.62352
4.58791
4.55112
4.51323
4.47433
4.43449
4.3938
4.35227
4.30997
4.26689
4.22309
4.17856
4.13337
4.08757
4.04127
3.99455
3.94754
3.9004
3.85326
3.80613
3.75901
3.71193
3.66493
3.61803
3.57132
3.52485
3.47869
3.43291
3.38757
3.34275
3.29854
3.25506
3.21246
3.17101
3.13109
3.09344
3.05941
3.03196
6.14935
5.61943
5.12776
4.70884
4.38192
4.14766
3.98617
3.86636
3.76018
3.65649
3.55458
3.45629
3.36432
3.27887
3.20037
3.12998
3.07248
3.03652
3.03414
3.04219
3.07204
3.14725
3.30684
3.4645
3.50204
3.49347
3.46205
3.39002
3.30105
3.26298
3.2715
3.29934
3.35773
3.46272
3.61531
3.79647
3.97284
4.12887
4.25942
4.36691
4.45592
4.53111
4.59572
4.65182
4.70005
4.74064
4.77404
4.80018
4.81935
4.83171
4.83677
4.83652
4.83501
4.83078
4.82152
4.80449
4.78305
4.75813
4.73041
4.70057
4.66911
4.63632
4.6023
4.5671
4.53078
4.49338
4.45498
4.41565
4.37546
4.33443
4.29262
4.25
4.20665
4.16251
4.11772
4.07229
4.02641
3.98025
3.93395
3.88748
3.8409
3.7942
3.74743
3.70064
3.6539
3.60727
3.56081
3.5146
3.46868
3.42312
3.37798
3.33334
3.28926
3.24586
3.20328
3.16173
3.1216
3.0835
3.04888
3.02033
6.17319
5.69713
5.24385
4.84261
4.51049
4.25346
4.06368
3.92137
3.80388
3.69646
3.59375
3.49359
3.39976
3.31269
3.23412
3.16754
3.1204
3.11242
3.12056
3.15109
3.22972
3.40251
3.68909
3.8313
3.82663
3.79546
3.7141
3.55043
3.40362
3.30734
3.27776
3.28601
3.31434
3.37138
3.46114
3.58571
3.75878
3.93731
4.10225
4.24272
4.35679
4.44801
4.52171
4.58269
4.63415
4.67775
4.71452
4.74414
4.76725
4.7837
4.79298
4.79486
4.79415
4.79159
4.78537
4.77245
4.75326
4.73038
4.70427
4.67552
4.64474
4.61241
4.57881
4.54406
4.50823
4.47136
4.43352
4.39474
4.3551
4.31459
4.27329
4.23112
4.18817
4.14441
4.10002
4.05515
4.01001
3.96457
3.91888
3.87293
3.82676
3.78045
3.73403
3.6876
3.6412
3.59492
3.54879
3.5029
3.45728
3.41199
3.3671
3.32267
3.27879
3.23552
3.19304
3.15149
3.11127
3.07287
3.03785
3.00836
6.18988
5.75626
5.33694
4.95435
4.62463
4.35605
4.14603
3.98359
3.8527
3.73882
3.63356
3.53293
3.43871
3.35187
3.27555
3.21662
3.19652
3.20306
3.2302
3.30342
3.46894
3.81118
4.13966
4.20619
4.18265
4.1078
3.94223
3.72026
3.53768
3.40873
3.33303
3.31174
3.31788
3.34209
3.39462
3.46469
3.56473
3.70899
3.88064
4.05055
4.20062
4.32408
4.42168
4.49783
4.55798
4.60658
4.6467
4.67984
4.70671
4.72702
4.74081
4.74748
4.74749
4.74645
4.74294
4.73482
4.71854
4.69805
4.6741
4.64705
4.61746
4.58594
4.55293
4.5187
4.4834
4.44709
4.40985
4.37167
4.33263
4.2927
4.2519
4.21019
4.16766
4.12443
4.08077
4.03669
3.99224
3.9474
3.90223
3.85674
3.81102
3.76513
3.71913
3.67311
3.62711
3.5812
3.53544
3.4899
3.44461
3.39964
3.35505
3.3109
3.26728
3.22424
3.18194
3.1405
3.1003
3.06176
3.02651
2.99628
6.2012
5.80077
5.41075
5.04747
4.72516
4.45135
4.2286
4.05043
3.9063
3.78433
3.67537
3.57434
3.48054
3.39567
3.32725
3.29036
3.29437
3.31603
3.37933
3.52956
3.85128
4.35051
4.58114
4.57218
4.52059
4.39072
4.13227
3.88902
3.69485
3.54994
3.44862
3.3869
3.36244
3.36548
3.38093
3.41966
3.46934
3.54817
3.65973
3.81558
3.97948
4.13488
4.2686
4.37586
4.45832
4.52097
4.56921
4.60726
4.63771
4.66175
4.67966
4.69105
4.69548
4.69522
4.69356
4.68885
4.67849
4.6608
4.63929
4.61445
4.58663
4.5564
4.52433
4.49081
4.45615
4.42046
4.38384
4.34629
4.30786
4.26849
4.22817
4.18692
4.14504
4.1026
4.05971
4.01631
3.97248
3.9282
3.88357
3.83861
3.7934
3.74801
3.7025
3.65694
3.61138
3.56591
3.52055
3.4754
3.43048
3.38587
3.34162
3.2978
3.25449
3.21174
3.16971
3.12848
3.08846
3.04993
3.01465
2.98393
6.20524
5.83449
5.46939
5.1245
4.81194
4.53907
4.30879
4.11949
3.96407
3.83374
3.72022
3.61837
3.52671
3.44813
3.39568
3.39683
3.41261
3.46519
3.59562
3.87964
4.45137
4.88461
4.95162
4.91805
4.81381
4.5894
4.30638
4.06432
3.86995
3.7178
3.60054
3.51395
3.45503
3.41897
3.41228
3.41737
3.43639
3.47517
3.52777
3.61248
3.73947
3.89208
4.04809
4.19043
4.309
4.40141
4.47052
4.52155
4.55962
4.58852
4.61042
4.62649
4.63566
4.63864
4.63819
4.63606
4.63043
4.61836
4.5997
4.57737
4.55184
4.52345
4.49279
4.46034
4.42654
4.39161
4.3557
4.31885
4.28106
4.24223
4.20248
4.16197
4.1209
4.07923
4.03705
3.9943
3.95108
3.90739
3.86333
3.81893
3.77427
3.72941
3.68441
3.63935
3.59427
3.54927
3.50437
3.45966
3.41517
3.37098
3.32715
3.28372
3.24079
3.19839
3.15671
3.11578
3.07602
3.03763
3.00247
2.97139
6.20907
5.85919
5.51669
5.19007
4.88807
4.61902
4.38629
4.18976
4.02545
3.8876
3.76935
3.66712
3.57989
3.51559
3.50399
3.51597
3.56075
3.67763
3.93913
4.47996
5.0834
5.29259
5.27472
5.20162
5.02878
4.73656
4.46674
4.24067
4.05453
3.90137
3.77442
3.66988
3.58533
3.52032
3.47646
3.44691
3.44705
3.45376
3.47166
3.50835
3.56761
3.66555
3.79998
3.94903
4.09523
4.22418
4.32831
4.40694
4.46389
4.50449
4.53339
4.55425
4.56834
4.57589
4.57751
4.57687
4.57434
4.56796
4.55461
4.53509
4.51219
4.48618
4.45746
4.42652
4.39391
4.35993
4.32486
4.28874
4.25158
4.21337
4.1744
4.13472
4.09445
4.05353
4.01207
3.97001
3.92748
3.88445
3.84104
3.79728
3.75322
3.70896
3.66452
3.62002
3.57546
3.53097
3.48656
3.44233
3.39832
3.35459
3.31122
3.26823
3.22577
3.18382
3.14259
3.10209
3.06276
3.02469
2.98985
2.95867
6.21347
5.87853
5.55514
5.24513
4.95545
4.69247
4.46071
4.26054
4.08992
3.94606
3.82431
3.72401
3.64612
3.61938
3.62885
3.66727
3.77076
4.00682
4.50449
5.21247
5.57881
5.58206
5.54033
5.41733
5.16099
4.87445
4.62815
4.42197
4.24606
4.0933
3.95906
3.84096
3.73773
3.64938
3.57594
3.51865
3.47932
3.45733
3.45886
3.46589
3.48509
3.52579
3.59405
3.70575
3.8413
3.98583
4.12205
4.23812
4.3289
4.39511
4.44104
4.47202
4.4927
4.50562
4.51184
4.51222
4.51144
4.50859
4.50155
4.4869
4.46702
4.44389
4.4177
4.38883
4.35785
4.32518
4.29117
4.25591
4.21951
4.18215
4.14408
4.10528
4.06585
4.02573
3.98504
3.94374
3.90193
3.85963
3.81691
3.77382
3.73041
3.68679
3.64296
3.59906
3.55509
3.51117
3.46732
3.42363
3.38017
3.33697
3.29414
3.25169
3.20976
3.16834
3.12765
3.08769
3.04889
3.01129
2.97692
2.94584
6.22306
5.8975
5.59029
5.29639
5.01974
4.76465
4.53456
4.33237
4.15712
4.00946
3.88745
3.79209
3.74733
3.75374
3.78511
3.87452
4.08406
4.53109
5.30122
5.79163
5.88084
5.84897
5.7501
5.53729
5.26146
5.01099
4.79518
4.6072
4.43895
4.28581
4.14512
4.0161
3.89841
3.79255
3.69885
3.61852
3.55119
3.50077
3.46601
3.454
3.45496
3.46192
3.48378
3.53119
3.61272
3.73144
3.86745
4.00655
4.13326
4.23708
4.31473
4.36867
4.40412
4.42626
4.43892
4.44378
4.44373
4.44267
4.43923
4.43121
4.41546
4.39578
4.37275
4.3466
4.31781
4.28688
4.25422
4.22002
4.18461
4.14828
4.11118
4.0733
4.03476
3.99551
3.95565
3.91519
3.87418
3.83269
3.79073
3.7484
3.70572
3.6628
3.61965
3.57641
3.53307
3.48978
3.44654
3.40346
3.36059
3.318
3.27576
3.23393
3.19262
3.15186
3.11182
3.07254
3.03445
2.99754
2.96386
2.93317
6.24601
5.92079
5.62603
5.34666
5.08107
4.83314
4.60645
4.40428
4.22857
4.07952
3.96284
3.88881
3.8913
3.91496
3.99058
4.17469
4.5698
5.35763
5.96257
6.14128
6.12232
6.04994
5.88053
5.61552
5.3688
5.15431
4.96412
4.78979
4.62666
4.47239
4.32642
4.18875
4.06
3.94092
3.8321
3.73434
3.64827
3.5743
3.5142
3.47047
3.44599
3.43682
3.43754
3.44579
3.47216
3.52834
3.62244
3.74575
3.88206
4.01462
4.12997
4.2207
4.2858
4.32857
4.35427
4.36764
4.3721
4.37181
4.3703
4.36603
4.3567
4.34084
4.3214
4.29864
4.27275
4.24418
4.21331
4.18057
4.14648
4.11134
4.07533
4.03849
4.00094
3.96267
3.92376
3.88422
3.84412
3.8035
3.76239
3.72089
3.679
3.63685
3.59445
3.55193
3.5093
3.46671
3.42415
3.38176
3.33957
3.29767
3.25613
3.21501
3.17443
3.13443
3.09519
3.05675
3.01955
2.98355
2.95079
2.92084
6.29735
5.96132
5.6706
5.39924
5.14152
4.90032
4.67784
4.47755
4.30315
4.16047
4.05734
4.03938
4.05693
4.12134
4.28631
4.64823
5.38461
6.09421
6.37348
6.36698
6.31831
6.18965
5.93873
5.6962
5.48587
5.29979
5.12785
4.96342
4.80403
4.6489
4.49878
4.35462
4.21766
4.08876
3.96878
3.8582
3.75777
3.66785
3.58935
3.52282
3.47025
3.43327
3.41895
3.40624
3.40785
3.41972
3.45264
3.52125
3.62592
3.75125
3.88403
4.00884
4.11329
4.1914
4.24403
4.27561
4.29173
4.29634
4.29595
4.2941
4.28918
4.27881
4.26289
4.2438
4.22148
4.19603
4.1677
4.137
4.1046
4.0709
4.03617
4.00054
3.96414
3.92698
3.88914
3.85065
3.81156
3.77193
3.73177
3.69119
3.65019
3.6089
3.56733
3.52563
3.4838
3.44198
3.4002
3.35858
3.31715
3.27604
3.23529
3.195
3.15527
3.11618
3.07791
3.04051
3.00444
2.96966
2.93811
2.90941
6.36916
6.0174
5.72087
5.45331
5.20309
4.96694
4.74823
4.55211
4.38469
4.25466
4.20291
4.21547
4.26885
4.4135
4.74098
5.42082
6.21188
6.58967
6.61124
6.57439
6.46533
6.2406
5.99757
5.78892
5.60841
5.44297
5.28334
5.12556
4.96845
4.81277
4.65996
4.51144
4.36874
4.23284
4.10471
3.98474
3.87363
3.77153
3.67916
3.59634
3.52549
3.466
3.42044
3.39409
3.37613
3.36724
3.37081
3.38763
3.42793
3.50943
3.61915
3.74745
3.87642
3.99156
4.08332
4.14825
4.18866
4.20935
4.21654
4.21616
4.21406
4.20867
4.19739
4.18167
4.16297
4.14118
4.11616
4.08826
4.05814
4.02631
3.99318
3.95898
3.92391
3.88804
3.85144
3.81414
3.7762
3.73768
3.69859
3.65904
3.61904
3.57872
3.53808
3.4973
3.45636
3.41543
3.37452
3.33378
3.29323
3.25302
3.2132
3.17388
3.13517
3.09717
3.06007
3.02398
2.98932
2.95617
2.92621
2.89947
6.49282
6.10345
5.78137
5.50886
5.26152
5.03146
4.81945
4.63197
4.47869
4.38909
4.39527
4.43591
4.55849
4.84872
5.46533
6.32746
6.79803
6.86984
6.8368
6.73571
6.52347
6.28051
6.07049
5.89278
5.73339
5.58115
5.42929
5.27566
5.12007
4.96427
4.80964
4.65858
4.51205
4.37142
4.23738
4.11062
3.99149
3.88044
3.77766
3.68359
3.59843
3.52312
3.45861
3.40609
3.36912
3.3461
3.32645
3.32174
3.32808
3.35061
3.40085
3.49452
3.60778
3.73376
3.85608
3.96062
4.03955
4.09165
4.12019
4.1319
4.13175
4.12983
4.1245
4.11326
4.09753
4.07899
4.05754
4.03314
4.00607
3.97678
3.94576
3.91339
3.87994
3.84557
3.81039
3.77447
3.73783
3.70058
3.6627
3.62433
3.58544
3.54623
3.50665
3.46692
3.42699
3.38708
3.34716
3.30744
3.2679
3.22875
3.18999
3.15183
3.11432
3.07765
3.042
3.00755
2.97471
2.94375
2.91591
2.89214
6.51773
6.20319
5.85431
5.56681
5.31993
5.09499
4.89315
4.72262
4.59732
4.59289
4.62112
4.72256
4.97692
5.53051
6.44533
7.00815
7.13303
7.10466
7.01075
6.8077
6.55646
6.33951
6.16052
6.0047
5.85849
5.71349
5.5656
5.41398
5.25948
5.10393
4.94893
4.7965
4.64761
4.50396
4.36577
4.23415
4.10908
3.99127
3.8807
3.77766
3.68231
3.59543
3.51665
3.44783
3.38959
3.34357
3.31326
3.28823
3.27106
3.27235
3.28268
3.31151
3.37257
3.47012
3.5868
3.7095
3.82368
3.91682
3.98272
4.02215
4.04074
4.0429
4.04137
4.03656
4.02608
4.01019
3.99164
3.97071
3.94716
3.92113
3.89293
3.86298
3.8316
3.79908
3.76558
3.73124
3.6961
3.6603
3.6238
3.58678
3.54919
3.51124
3.47287
3.43434
3.39557
3.35683
3.31805
3.2795
3.24114
3.20322
3.16574
3.12895
3.09292
3.05788
3.02405
2.9917
2.96123
2.93325
2.90834
2.88898
6.49186
6.30041
5.94394
5.63881
5.38303
5.16224
4.97343
4.82938
4.79284
4.81586
4.90399
5.13128
5.63111
6.5804
7.2326
7.41076
7.38631
7.29679
7.0974
6.83266
6.60345
6.41872
6.26328
6.1212
5.98198
5.84013
5.69379
5.54312
5.38938
5.23422
5.07932
4.92624
4.77614
4.63041
4.48937
4.35416
4.22463
4.1016
3.9849
3.87494
3.7718
3.67578
3.58697
3.50606
3.43339
3.37049
3.31744
3.27928
3.24865
3.22556
3.21293
3.21638
3.2314
3.26746
3.34072
3.44014
3.55737
3.67547
3.77969
3.86006
3.91308
3.9408
3.94934
3.94837
3.94429
3.93503
3.91944
3.90139
3.88096
3.85834
3.83349
3.80662
3.77796
3.74781
3.71641
3.68398
3.65062
3.61649
3.58159
3.54612
3.51002
3.47353
3.43657
3.39942
3.36199
3.3246
3.28717
3.24999
3.21303
3.17656
3.14064
3.10549
3.07129
3.03829
3.00679
2.9772
2.94995
2.92603
2.90552
2.89073
6.40785
6.29989
6.05329
5.72408
5.45564
5.24298
5.07574
5.00861
5.02617
5.1029
5.31075
5.77674
6.71761
7.47701
7.71636
7.69467
7.60529
7.40046
7.11365
6.86614
6.67174
6.51383
6.37404
6.23935
6.10292
5.9617
5.81549
5.66489
5.51159
5.35681
5.20222
5.04887
4.89823
4.75093
4.60793
4.46983
4.33691
4.2098
4.08817
3.97298
3.86361
3.76076
3.66418
3.57427
3.49131
3.41591
3.34869
3.29112
3.24427
3.21036
3.17946
3.15668
3.15248
3.15796
3.17701
3.21941
3.30268
3.40467
3.51863
3.62963
3.72291
3.79063
3.83084
3.84938
3.84923
3.84682
3.84022
3.82646
3.80855
3.7886
3.76695
3.74344
3.718
3.69082
3.66209
3.63206
3.60087
3.56874
3.53573
3.50205
3.46769
3.43287
3.39754
3.36199
3.32616
3.29034
3.25451
3.21894
3.18366
3.14894
3.11491
3.08181
3.04992
3.01953
2.99114
2.96526
2.94247
2.92447
2.90812
2.8981
6.31328
6.26515
6.11776
5.81787
5.5433
5.34019
5.23593
5.24808
5.31449
5.5072
5.95299
6.87248
7.7415
8.05274
8.03366
7.94159
7.72439
7.40687
7.13348
6.92348
6.75942
6.61949
6.48796
6.35588
6.21937
6.07737
5.93052
5.77984
5.62676
5.47238
5.31811
5.16478
5.0137
4.86535
4.72091
4.58055
4.44517
4.31463
4.1896
4.06986
3.95579
3.84732
3.74462
3.64778
3.55702
3.47258
3.39494
3.32459
3.26273
3.20943
3.16939
3.13321
3.10516
3.08537
3.08671
3.09552
3.11969
3.17089
3.25623
3.35961
3.47005
3.57271
3.65441
3.70955
3.73865
3.74698
3.74574
3.74083
3.72991
3.71306
3.69426
3.67356
3.65124
3.62728
3.60171
3.57462
3.54612
3.51646
3.48573
3.45418
3.42184
3.38896
3.35555
3.32187
3.28792
3.25396
3.22003
3.1864
3.15316
3.1206
3.08891
3.05842
3.02951
3.00258
2.9785
2.95755
2.94201
2.92831
2.91776
2.91519
6.13393
6.17335
6.10933
5.9423
5.66777
5.48181
5.4857
5.53945
5.71638
6.14552
7.05376
8.05053
8.43405
8.4152
8.31345
8.07068
7.71627
7.41168
7.17961
7.00465
6.86136
6.73077
6.60162
6.46874
6.33038
6.18681
6.03891
5.8879
5.73484
5.58081
5.42681
5.27367
5.12234
4.9735
4.82794
4.68611
4.54862
4.41559
4.28753
4.16427
4.0463
3.93331
3.82579
3.72341
3.62667
3.53534
3.44993
3.37057
3.29778
3.23224
3.17466
3.12727
3.08792
3.05226
3.02602
3.01237
3.01518
3.02728
3.05648
3.11655
3.20392
3.30711
3.41272
3.50541
3.57554
3.61812
3.6392
3.63971
3.63744
3.63072
3.61659
3.59856
3.57867
3.55758
3.53511
3.51118
3.48577
3.45906
3.4311
3.40213
3.37222
3.34166
3.31051
3.27905
3.24731
3.21558
3.18393
3.15264
3.1219
3.09202
3.06332
3.03621
3.01128
2.98914
2.97114
2.95781
2.94745
2.94059
2.94101
2.94394
5.67605
6.08282
6.07106
5.99881
5.83192
5.74118
5.78233
5.94406
6.36081
7.26598
8.41155
8.87312
8.85168
8.73216
8.44836
8.04777
7.70492
7.44535
7.25526
7.10508
6.97267
6.8444
6.71343
6.57738
6.43599
6.29016
6.14086
5.98921
5.83601
5.68218
5.52837
5.37547
5.22406
5.075
4.9287
4.78591
4.64682
4.51198
4.38145
4.2555
4.13424
4.01768
3.90615
3.79929
3.69775
3.60092
3.50964
3.42334
3.34288
3.26811
3.19967
3.1384
3.08495
3.04175
3.00072
2.9671
2.94181
2.93754
2.94178
2.95658
2.99026
3.05786
3.14666
3.2479
3.34743
3.43002
3.48886
3.522
3.53311
3.53207
3.52774
3.51818
3.50138
3.48308
3.46316
3.44208
3.41977
3.39624
3.37145
3.34555
3.31861
3.29085
3.26243
3.23359
3.20451
3.1754
3.14651
3.11808
3.09045
3.06397
3.03918
3.01656
2.99718
2.98184
2.97238
2.9643
2.96452
2.96725
2.97567
2.99583
4.6718
5.8549
6.03834
6.03093
6.00941
6.04281
6.19669
6.61837
7.54451
8.83351
9.37437
9.34808
9.20281
8.8632
8.40885
8.01984
7.72816
7.5168
7.35608
7.2191
7.08941
6.95839
6.82273
6.68186
6.53661
6.38795
6.23692
6.08425
5.93066
5.77672
5.62306
5.47025
5.31893
5.16972
5.0231
4.8796
4.7395
4.60321
4.47083
4.34276
4.21886
4.09955
3.98451
3.8743
3.76837
3.66746
3.57099
3.47958
3.39292
3.31136
3.2351
3.1643
3.10011
3.04181
2.99321
2.94866
2.90832
2.87768
2.85625
2.85712
2.86362
2.88198
2.92159
2.99502
3.08572
3.18484
3.27682
3.3496
3.39649
3.42064
3.42395
3.42215
3.41649
3.40408
3.38718
3.36887
3.34918
3.32849
3.30683
3.28423
3.2607
3.23629
3.21117