/*--------------------------------*- C++ -*----------------------------------*\
  =========                 |
  \\      /  F ield         | OpenFOAM: The Open Source CFD Toolbox
   \\    /   O peration     | Website:  https://openfoam.org
    \\  /    A nd           | Version:  6
     \\/     M anipulation  |
\*---------------------------------------------------------------------------*/
FoamFile
{
    version     2.0;
    format      ascii;
    class       surfaceScalarField;
    location    "104";
    object      phi;
}
// * * * * * * * * * * * * * * * * * * * * * * * * * * * * * * * * * * * * * //

dimensions      [0 3 -1 0 0 0 0];

internalField   nonuniform List<scalar> 
17370
(
-0.0899999
0.0898488
0.289162
-0.0714621
0.0537521
0.364486
-0.0381189
0.0276897
0.426597
-0.0196379
0.0146051
0.504285
-0.0107635
0.00827356
0.601892
-0.00627428
0.00489795
0.720434
-0.00373389
0.00289296
0.863747
-0.00215094
0.00159133
1.03601
-0.00107426
0.000661394
1.24292
-0.000253672
-0.000145062
1.49159
0.000525233
-0.000935286
1.4916
0.00133153
-0.00181475
1.24317
0.00233624
-0.00303945
1.03634
0.00385417
-0.005
0.864052
0.00636702
-0.00836056
0.721051
0.0108463
-0.0146826
0.603051
0.0197096
-0.0277539
0.507484
0.0381753
-0.0537997
0.431793
0.0715014
-0.0898754
0.36515
0.0900164
0.198994
-0.128139
0.0882307
0.0399079
-0.364601
0.353383
-0.0746674
0.0858852
-0.446477
0.454323
-0.0843803
0.0765345
-0.521192
0.529905
-0.0684362
0.0597236
-0.612791
0.621572
-0.0515336
0.0427529
-0.726897
0.734168
-0.0352909
0.0280198
-0.867477
0.872596
-0.0224168
0.0172981
-1.03848
1.04193
-0.0134851
0.0100319
-1.2446
1.24704
-0.00741814
0.00498212
-1.49262
1.49461
-0.00303026
0.00104415
-1.49251
1.49423
0.000627502
-0.00235065
-1.24397
1.24586
0.00426042
-0.00614492
-1.03751
1.04003
0.00849116
-0.0110067
-0.866097
0.869825
0.0143526
-0.0180807
-0.724388
0.729931
0.0231214
-0.0286639
-0.608696
0.616108
0.0358768
-0.043289
-0.514895
0.523037
0.0520177
-0.0601605
-0.439855
0.447912
0.0688217
-0.0768789
-0.375293
0.376736
0.0846726
-0.0861155
-0.257328
0.222472
0.0748233
-0.0399676
-0.0685265
0.0587033
0.00982319
-0.0517945
0.0583721
-0.374135
0.367557
-0.0574517
0.0536959
-0.4536
0.457356
-0.048603
0.0446476
-0.527954
0.53191
-0.0408043
0.037162
-0.621572
0.625214
-0.033056
0.0289754
-0.735358
0.739438
-0.0243987
0.0202329
-0.87435
0.878515
-0.0158797
0.0121793
-1.0435
1.0472
-0.0084351
0.00525695
-1.24857
1.25175
-0.00192424
-0.00115318
-1.49666
1.49974
0.00420411
-0.00747244
-1.4972
1.50047
0.0105497
-0.0141418
-1.25006
1.25366
0.0176824
-0.0218608
-1.04592
1.05009
0.0258829
-0.0303198
-0.87775
0.882187
0.0342869
-0.03828
-0.73989
0.743883
0.0418261
-0.0455704
-0.626764
0.630509
0.0494408
-0.0544527
-0.534803
0.539814
0.0581177
-0.0589246
-0.457467
0.458273
0.0522117
-0.0319999
-0.335738
0.315526
0.0098909
-0.0683353
0.0584444
-0.0529562
0.0489648
0.00399144
-0.0331339
0.0436666
-0.358134
0.347601
-0.0473548
0.0467205
-0.459301
0.459935
-0.0436584
0.0403003
-0.535819
0.539177
-0.0365218
0.0332119
-0.628548
0.631857
-0.0297669
0.0267273
-0.742669
0.745709
-0.0234589
0.0203427
-0.88204
0.885157
-0.0168017
0.013413
-1.05079
1.05418
-0.00961024
0.00606399
-1.25519
1.25873
-0.00208748
-0.00171552
-1.50325
1.50705
0.00548573
-0.00936172
-1.50413
1.508
0.0127647
-0.016358
-1.2574
1.261
0.0195266
-0.0228239
-1.0539
1.05719
0.0257348
-0.0287991
-0.885664
0.888728
0.0316704
-0.0349474
-0.747134
0.750411
0.0381152
-0.0417498
-0.634285
0.63792
0.0449848
-0.0479059
-0.544116
0.547037
0.0483904
-0.0444908
-0.456549
0.452649
0.0337045
-0.0162368
-0.296145
0.278677
0.00407619
-0.0526202
0.048544
-0.0458921
0.043402
0.00249007
-0.0227679
0.0331269
-0.336929
0.32657
-0.038931
0.0399364
-0.45963
0.458625
-0.0387361
0.0364419
-0.541905
0.544199
-0.0337663
0.0311621
-0.634919
0.637523
-0.0280887
0.0251785
-0.748764
0.751675
-0.0219004
0.0188936
-0.88812
0.891126
-0.0155741
0.0124621
-1.05732
1.06044
-0.00892325
0.00550423
-1.2622
1.26562
-0.00153185
-0.00235929
-1.51094
1.51483
0.00620619
-0.0100439
-1.51188
1.51572
0.013273
-0.0165373
-1.26444
1.2677
0.0193619
-0.0223623
-1.06029
1.06329
0.0250961
-0.0280994
-0.891763
0.894767
0.03078
-0.0336224
-0.753605
0.756448
0.0360314
-0.038512
-0.640974
0.643455
0.0406398
-0.0416195
-0.548828
0.549808
0.0403817
-0.0342366
-0.44735
0.441205
0.023503
-0.0102583
-0.263434
0.250189
0.00259504
-0.0453745
0.0427794
-0.0413335
0.0395733
0.00176021
-0.0166961
0.0259191
-0.316742
0.307519
-0.0324978
0.0346193
-0.457042
0.454921
-0.0341836
0.032502
-0.546188
0.54787
-0.0303102
0.0282042
-0.639842
0.641948
-0.0257591
0.023347
-0.754332
0.756744
-0.0204705
0.0176636
-0.894035
0.896841
-0.0144078
0.0113212
-1.06349
1.06658
-0.00781345
0.00447358
-1.26895
1.27229
-0.000628245
-0.00311406
-1.51862
1.52236
0.00679978
-0.0104729
-1.51944
1.52312
0.0135702
-0.0167286
-1.27095
1.27411
0.0194495
-0.0222979
-1.06631
1.06916
0.0247532
-0.0272733
-0.897557
0.900077
0.0293873
-0.0315333
-0.758881
0.761027
0.0333889
-0.0353288
-0.645593
0.647533
0.036768
-0.0369036
-0.550306
0.550442
0.0344246
-0.0273448
-0.434508
0.427428
0.0176155
-0.00743584
-0.238625
0.228445
0.00188862
-0.0405921
0.0387035
-0.0380594
0.0367388
0.00132062
-0.0127213
0.0206287
-0.29896
0.291053
-0.0273395
0.0302337
-0.452386
0.449492
-0.0304159
0.0292784
-0.549318
0.550455
-0.0272709
0.0253392
-0.644001
0.645933
-0.0231203
0.020963
-0.759001
0.761158
-0.0184232
0.0159156
-0.899432
0.90194
-0.0129462
0.0100425
-1.06954
1.07244
-0.0066552
0.00339334
-1.27556
1.27882
0.000372065
-0.00401359
-1.52602
1.52966
0.00758398
-0.0111322
-1.5267
1.53025
0.0140895
-0.0170397
-1.27724
1.28019
0.0194873
-0.0219481
-1.07188
1.07434
0.0240151
-0.0261056
-0.902335
0.904425
0.0278858
-0.029725
-0.76299
0.764829
0.0313398
-0.0330403
-0.649335
0.651035
0.033824
-0.0332206
-0.550205
0.549602
0.0298134
-0.0224145
-0.420127
0.412728
0.013855
-0.00577944
-0.219416
0.21134
0.00147699
-0.0370448
0.0355678
-0.035588
0.0345743
0.00101366
-0.00990813
0.0165728
-0.283795
0.27713
-0.0230014
0.0263335
-0.446364
0.443031
-0.0270819
0.0263584
-0.551385
0.552109
-0.0245784
0.0227742
-0.647851
0.649655
-0.0206786
0.0186349
-0.763253
0.765297
-0.0162297
0.0138698
-0.9043
0.90666
-0.0110945
0.00837645
-1.07518
1.0779
-0.00518446
0.00207129
-1.28197
1.28508
0.00156462
-0.00509548
-1.53322
1.53675
0.00853802
-0.0119042
-1.53367
1.53704
0.014641
-0.0172941
-1.28305
1.2857
0.0194505
-0.0215993
-1.07669
1.07884
0.0234146
-0.0252624
-0.906367
0.908215
0.0268375
-0.0284616
-0.766551
0.768175
0.0298723
-0.0312248
-0.652593
0.653945
0.0315096
-0.0301625
-0.548632
0.547285
0.0261216
-0.0187848
-0.405329
0.397993
0.0112991
-0.00468618
-0.204062
0.197449
0.00120397
-0.0342412
0.0330372
-0.0336878
0.0329032
0.000784663
-0.00781537
0.0133941
-0.271041
0.265462
-0.0193198
0.0228327
-0.439604
0.436092
-0.0240441
0.0235601
-0.552755
0.553239
-0.0220396
0.0203388
-0.651466
0.653167
-0.0183305
0.0163645
-0.767294
0.76926
-0.0140419
0.0117609
-0.908908
0.911189
-0.00907972
0.00646393
-1.08049
1.0831
-0.00340501
0.000428319
-1.28808
1.29105
0.00304264
-0.00640446
-1.54016
1.54353
0.00965761
-0.0127974
-1.54025
1.54339
0.015313
-0.0177133
-1.28829
1.29069
0.0196434
-0.0215589
-1.08095
1.08287
0.0231716
-0.0248083
-0.909934
0.911571
0.0261981
-0.0276258
-0.769689
0.771117
0.0288337
-0.0297951
-0.655101
0.656062
0.0297003
-0.0276715
-0.545584
0.543555
0.0232101
-0.0161172
-0.390766
0.383673
0.00951713
-0.00393511
-0.191398
0.185816
0.00101608
-0.0319371
0.030921
-0.0322184
0.0316123
0.000606084
-0.00619272
0.0108405
-0.26038
0.255733
-0.0161564
0.0196511
-0.432594
0.4291
-0.021169
0.0209011
-0.553663
0.553931
-0.0196027
0.0179553
-0.654899
0.656547
-0.0159942
0.0140684
-0.771193
0.773119
-0.011794
0.00956132
-0.913363
0.915596
-0.00693755
0.00438228
-1.08561
1.08816
-0.00140388
-0.00147609
-1.29393
1.29681
0.00480484
-0.00799725
-1.54676
1.54995
0.011057
-0.0139819
-1.54637
1.54929
0.0163003
-0.018478
-1.29307
1.29525
0.0202004
-0.0218936
-1.08477
1.08646
0.023311
-0.0247453
-0.913076
0.914511
0.0259633
-0.0272108
-0.772441
0.773689
0.0282742
-0.0288114
-0.65682
0.657357
0.0283174
-0.0257053
-0.541225
0.538612
0.0209716
-0.0141806
-0.376733
0.369942
0.00827066
-0.00341701
-0.180632
0.175779
0.00088724
-0.0299771
0.0290898
-0.0310887
0.0306284
0.000460329
-0.00487848
0.00871966
-0.251519
0.247678
-0.0133798
0.0167058
-0.425706
0.42238
-0.0183881
0.0182985
-0.554167
0.554257
-0.0171817
0.0155617
-0.658258
0.659878
-0.0136122
0.0116901
-0.775024
0.776946
-0.00942117
0.0072006
-0.917725
0.919946
-0.00460087
0.00207916
-1.09061
1.09313
0.000846668
-0.00365787
-1.29959
1.3024
0.0068793
-0.00993465
-1.55302
1.55608
0.0128287
-0.0155592
-1.55205
1.55478
0.0176884
-0.0196446
-1.29741
1.29937
0.0211592
-0.0226331
-1.08815
1.08962
0.0238651
-0.0251135
-0.915815
0.917063
0.0261777
-0.027262
-0.774837
0.775921
0.0281127
-0.0282784
-0.657693
0.657859
0.0273537
-0.0242324
-0.535738
0.532617
0.0193152
-0.0128094
-0.363306
0.356801
0.00741399
-0.00306768
-0.171207
0.166861
0.000802012
-0.0282521
0.0274501
-0.0302392
0.0299032
0.000335911
-0.00376906
0.00689745
-0.244222
0.241094
-0.0108879
0.0139332
-0.419221
0.416175
-0.0156505
0.0156998
-0.554348
0.554299
-0.0146523
0.0130926
-0.661556
0.663115
-0.0111241
0.00917087
-0.778856
0.780809
-0.00686663
0.0046203
-0.922069
0.924315
-0.00200408
-0.000518605
-1.09555
1.09808
0.003426
-0.0061979
-1.30512
1.30789
0.0093444
-0.0122924
-1.55902
1.56197
0.0150451
-0.0175971
-1.55735
1.5599
0.0195441
-0.0212813
-1.30133
1.30307
0.0225902
-0.0238494
-1.09112
1.09237
0.024901
-0.0259698
-0.918178
0.919247
0.0268875
-0.0278118
-0.776894
0.777818
0.0283995
-0.0282609
-0.65787
0.657732
0.0268529
-0.0232516
-0.529257
0.525656
0.018184
-0.0118989
-0.350424
0.344139
0.00686114
-0.00284934
-0.162706
0.158695
0.000751041
-0.0266798
0.0259288
-0.0296317
0.0294079
0.000223731
-0.00278783
0.00526837
-0.238317
0.235837
-0.00858689
0.0112664
-0.413347
0.410667
-0.0129022
0.0130144
-0.554303
0.55419
-0.0119956
0.0104631
-0.66476
0.666292
-0.00844969
0.00643348
-0.782755
0.784772
-0.00405532
0.0017458
-0.926467
0.928776
0.00093006
-0.00349371
-1.10051
1.10307
0.00642556
-0.00919439
-1.31059
1.31336
0.0123004
-0.0151672
-1.56481
1.56768
0.017798
-0.0201861
-1.56228
1.56467
0.0219598
-0.0234822
-1.30483
1.30636
0.0245847
-0.0256265
-1.09367
1.09471
0.0264926
-0.0273711
-0.920175
0.921053
0.0281273
-0.0288832
-0.778569
0.779325
0.0291848
-0.0286939
-0.657462
0.656971
0.0268165
-0.022755
-0.521846
0.517785
0.0175301
-0.0113728
-0.337942
0.331785
0.00655216
-0.00273482
-0.154802
0.150985
0.00072711
-0.0251956
0.0244685
-0.0292456
0.0291295
0.000116068
-0.00187025
0.00373832
-0.233689
0.231821
-0.00637714
0.00861833
-0.408248
0.406007
-0.0100629
0.0101574
-0.554192
0.554098
-0.00913054
0.00758334
-0.667947
0.669495
-0.00549328
0.0033806
-0.786782
0.788895
-0.000888794
-0.00152165
-0.930991
0.933402
0.00429997
-0.00694449
-1.10555
1.1082
0.0099442
-0.0127473
-1.31606
1.31886
0.015849
-0.0186612
-1.57044
1.57325
0.0211894
-0.0234267
-1.56687
1.56911
0.0250328
-0.0263401
-1.30793
1.30924
0.0272367
-0.0280572
-1.09581
1.09663
0.028729
-0.0294087
-0.921785
0.922465
0.0300077
-0.0306134
-0.779898
0.780504
0.0305468
-0.0296371
-0.656306
0.655396
0.0272636
-0.0227304
-0.513523
0.508989
0.0173094
-0.0111731
-0.325667
0.319531
0.00644404
-0.00270501
-0.147227
0.143488
0.000725247
-0.023748
0.0230228
-0.0290754
0.0290674
8.0524e-06
-0.000967404
0.00223386
-0.230279
0.229012
-0.00417568
0.00591265
-0.404065
0.402328
-0.00706153
0.00705506
-0.554186
0.554193
-0.00597023
0.0043657
-0.671205
0.672809
-0.00215582
-9.06065e-05
-0.791001
0.793248
0.00274027
-0.00529392
-0.935719
0.938273
0.00822225
-0.0109911
-1.11077
1.11354
0.0141051
-0.0169824
-1.3216
1.32448
0.0201188
-0.0229061
-1.57597
1.57876
0.0253517
-0.0274491
-1.57115
1.57325
0.0288911
-0.0299892
-1.31061
1.31171
0.0306798
-0.0312766
-1.09751
1.09811
0.0317475
-0.0322137
-0.922991
0.923457
0.0326237
-0.0329531
-0.780836
0.781165
0.032581
-0.031169
-0.654305
0.652893
0.0282567
-0.0232044
-0.504244
0.499191
0.0175143
-0.0112748
-0.313376
0.307137
0.0065161
-0.0027504
-0.139757
0.135991
0.000742931
-0.0222945
0.0215516
-0.0291246
0.0292307
-0.000106067
-2.97041e-05
0.000685959
-0.228071
0.227415
-0.0018989
0.0030642
-0.400928
0.399763
-0.00381515
0.0036219
-0.554462
0.554656
-0.00241881
0.000696838
-0.674627
0.676349
0.00167403
-0.0040994
-0.795487
0.797913
0.00695833
-0.00970312
-0.940734
0.943479
0.0128347
-0.0157764
-1.11624
1.11918
0.0190558
-0.0220502
-1.32731
1.3303
0.025262
-0.0280544
-1.58146
1.58425
0.0304381
-0.0324063
-1.57514
1.5771
0.0336889
-0.0345761
-1.31288
1.31376
0.0350543
-0.0354149
-1.09877
1.09913
0.0356755
-0.0359206
-0.923762
0.924007
0.0361203
-0.0361031
-0.781194
0.781176
0.0353766
-0.0333771
-0.651279
0.649279
0.0298543
-0.0242008
-0.4939
0.488247
0.0181401
-0.0116597
-0.300815
0.294335
0.00675248
-0.00286285
-0.132185
0.128296
0.000777654
-0.0207971
0.0200195
-0.0294086
0.0296525
-0.000243948
0.000946298
-0.000965447
-0.227101
0.227121
0.000541431
-2.27617e-05
-0.398975
0.398456
-0.000227449
-0.000246099
-0.555211
0.555684
0.00163795
-0.00353935
-0.678336
0.680237
0.00613282
-0.00879005
-0.800328
0.802986
0.0119173
-0.0149083
-0.946136
0.949127
0.0183042
-0.0214732
-1.12207
1.12524
0.0249745
-0.0281324
-1.33326
1.33642
0.0314618
-0.0342861
-1.58695
1.58978
0.0366206
-0.0384684
-1.57884
1.58068
0.0396005
-0.0402744
-1.3147
1.31537
0.040526
-0.0406304
-1.09954
1.09964
0.0406611
-0.0406682
-0.924067
0.924075
0.0406769
-0.0402036
-0.780852
0.780379
0.0390386
-0.0363501
-0.647068
0.644379
0.0321171
-0.0257439
-0.482309
0.475936
0.0191845
-0.0123127
-0.287701
0.280829
0.00713872
-0.00303429
-0.12432
0.120215
0.000826735
-0.0192229
0.0183962
-0.0299665
0.0303577
-0.000391183
0.00205979
-0.00271063
-0.227456
0.228107
0.00316426
-0.00341752
-0.398349
0.398603
0.00382398
-0.00468362
-0.55666
0.55752
0.00633206
-0.00848503
-0.682463
0.684616
0.011377
-0.0143341
-0.805629
0.808586
0.0178018
-0.0211047
-0.952037
0.955339
0.0248358
-0.0282942
-1.12837
1.13183
0.0320799
-0.0354507
-1.33955
1.34292
0.0389401
-0.0418199
-1.59252
1.5954
0.0441096
-0.0458276
-1.58225
1.58397
0.0467985
-0.0472641
-1.31606
1.31653
0.0472802
-0.0471102
-1.09978
1.09961
0.0468963
-0.0466535
-0.923856
0.923614
0.0464192
-0.0454324
-0.779628
0.778641
0.0437214
-0.0402017
-0.641471
0.637951
0.035116
-0.0278604
-0.469214
0.461959
0.0206452
-0.013218
-0.273725
0.266298
0.00765941
-0.0032557
-0.115982
0.111578
0.000887074
-0.0175446
0.0166575
-0.0308312
0.0313989
-0.000567704
0.00333546
-0.00480257
-0.229195
0.230662
0.00618015
-0.00725685
-0.399264
0.40034
0.00842371
-0.00979968
-0.559038
0.560414
0.0118453
-0.0143349
-0.687149
0.689639
0.0176158
-0.0209513
-0.811524
0.81486
0.0248437
-0.0285344
-0.958572
0.962262
0.0326811
-0.036497
-1.13526
1.13908
0.0406329
-0.0442652
-1.34628
1.34991
0.0479528
-0.0509081
-1.59819
1.60115
0.053157
-0.0547324
-1.58537
1.58694
0.0555307
-0.0557697
-1.31694
1.31718
0.0555319
-0.0550704
-1.09946
1.099
0.0546006
-0.0540772
-0.923101
0.922577
0.0534468
-0.0519715
-0.777466
0.77599
0.0495508
-0.0450275
-0.634192
0.629668
0.0389066
-0.0305609
-0.454271
0.445925
0.0225053
-0.014348
-0.258556
0.250399
0.00829025
-0.0035134
-0.107008
0.102231
0.000954041
-0.0157418
0.0147878
-0.0320641
0.0328666
-0.000802501
0.00491285
-0.00729106
-0.232584
0.234962
0.00974626
-0.0117548
-0.401914
0.403922
0.0138173
-0.0158386
-0.562589
0.564611
0.018418
-0.0213425
-0.692572
0.695496
0.0251278
-0.0289318
-0.818177
0.821981
0.0333486
-0.037516
-0.965898
0.970066
0.0421691
-0.0464156
-1.14288
1.14713
0.0509666
-0.0549026
-1.35353
1.35746
0.0588128
-0.0618439
-1.604
1.60704
0.0640354
-0.0654439
-1.58815
1.58956
0.0660385
-0.0660139
-1.31726
1.31723
0.0655139
-0.0647351
-1.09854
1.09776
0.0639944
-0.0632048
-0.921744
0.920954
0.0620633
-0.0599883
-0.774377
0.772302
0.0566957
-0.0509228
-0.624847
0.619074
0.0435201
-0.033822
-0.437039
0.427341
0.0247148
-0.0156488
-0.24184
0.232774
0.0089898
-0.00378565
-0.0972579
0.0920538
0.00102064
-0.0138042
0.0127836
-0.0337659
0.0348732
-0.0011073
0.00688852
-0.0103707
-0.237828
0.24131
0.0141037
-0.0172029
-0.40661
0.409709
0.0202864
-0.0230759
-0.567611
0.5704
0.0263447
-0.0298341
-0.698955
0.702444
0.0342701
-0.0386647
-0.825778
0.830172
0.0437278
-0.0484724
-0.974197
0.978942
0.0537284
-0.0584759
-1.15138
1.15612
0.0634948
-0.0677564
-1.36138
1.36564
0.0718825
-0.0749576
-1.60994
1.61302
0.0770487
-0.0782463
-1.59054
1.59174
0.0786022
-0.0782755
-1.3169
1.31657
0.0774874
-0.0763566
-1.09694
1.09581
0.0753388
-0.0742505
-0.919808
0.918719
0.0725424
-0.0696962
-0.770142
0.767296
0.0652831
-0.0579179
-0.61293
0.605565
0.0489133
-0.0375477
-0.416974
0.405609
0.0271625
-0.0170235
-0.223226
0.213087
0.00969023
-0.00403951
-0.086639
0.0809883
0.00107692
-0.0117371
0.0106601
-0.0360686
0.0375952
-0.00152655
0.00948603
-0.0143412
-0.245288
0.250143
0.0195899
-0.0239445
-0.413706
0.41806
0.0282058
-0.031919
-0.574431
0.578144
0.0360593
-0.0403056
-0.706572
0.710818
0.045562
-0.0506942
-0.834567
0.8397
0.0565451
-0.0619746
-0.983675
0.989104
0.0679229
-0.0732209
-1.16088
1.16617
0.0787236
-0.0832896
-1.36986
1.37443
0.0875721
-0.0906087
-1.61592
1.61896
0.0925077
-0.0934028
-1.59243
1.59332
0.093459
-0.0928303
-1.31581
1.31519
0.0916666
-0.090175
-1.09463
1.09314
0.0888793
-0.087305
-0.917138
0.915564
0.0850801
-0.0811784
-0.764351
0.760449
0.0753246
-0.0659289
-0.597727
0.588332
0.0549228
-0.0415297
-0.393433
0.38004
0.029646
-0.0183148
-0.202405
0.191073
0.0102901
-0.00422919
-0.0751378
0.0690769
0.00110996
-0.00956687
0.00845691
-0.0391813
0.0413146
-0.00213331
0.0130656
-0.0196771
-0.255468
0.262079
0.0267503
-0.0325694
-0.423689
0.429508
0.038201
-0.0430403
-0.583436
0.588275
0.0482633
-0.0534711
-0.715821
0.721029
0.0597991
-0.0658457
-0.844837
0.850884
0.0726252
-0.0788235
-0.99454
1.00074
0.0855071
-0.0913466
-1.17146
1.1773
0.0972707
-0.102042
-1.37889
1.38366
0.106334
-0.109176
-1.62173
1.62457
0.110731
-0.111183
-1.5936
1.59405
0.110857
-0.109848
-1.31393
1.31292
0.108295
-0.10641
-1.09161
1.08972
0.104819
-0.102696
-0.913362
0.911239
0.0998255
-0.094492
-0.756408
0.751074
0.0867115
-0.0746907
-0.578319
0.566298
0.0611946
-0.0453956
-0.365699
0.3499
0.0318428
-0.0192973
-0.179183
0.166637
0.0106552
-0.00429884
-0.0628636
0.0565072
0.00110522
-0.00734667
0.00624146
-0.0434436
0.0465129
-0.00306929
0.0182665
-0.0271785
-0.269119
0.278031
0.0364824
-0.044069
-0.437241
0.444828
0.0513463
-0.0575356
-0.595135
0.601324
0.0641833
-0.0707276
-0.727122
0.733667
0.078316
-0.0853817
-0.856909
0.863975
0.093151
-0.100113
-1.00693
1.01389
0.107453
-0.113698
-1.18304
1.18929
0.119838
-0.124591
-1.3882
1.39296
0.128627
-0.131027
-1.62702
1.62942
0.132017
-0.131834
-1.59376
1.59358
0.130975
-0.129465
-1.31107
1.30956
0.127529
-0.125231
-1.08778
1.08549
0.123208
-0.120572
-0.908321
0.905685
0.116678
-0.109383
-0.745478
0.738183
0.0990314
-0.0836454
-0.553479
0.538093
0.0671104
-0.0485734
-0.333064
0.314527
0.033305
-0.0196906
-0.1536
0.139985
0.0106342
-0.00419151
-0.0500926
0.0436499
0.00104928
-0.00515754
0.00410826
-0.0494501
0.0541013
-0.0046512
0.0263238
-0.0383396
-0.287427
0.299442
0.050518
-0.0604601
-0.455472
0.465414
0.0697857
-0.077604
-0.610102
0.61792
0.0859982
-0.0940833
-0.740996
0.749082
0.103044
-0.111112
-0.870993
0.87906
0.119731
-0.127235
-1.02075
1.02825
0.134901
-0.141205
-1.19526
1.20157
0.147148
-0.151502
-1.39728
1.40163
0.15487
-0.156477
-1.63124
1.63285
0.156604
-0.155545
-1.5925
1.59144
0.153996
-0.151882
-1.307
1.30489
0.149506
-0.146708
-1.08304
1.08024
0.144237
-0.140866
-0.901866
0.898495
0.135463
-0.125322
-0.730355
0.720214
0.111486
-0.0918468
-0.521674
0.502034
0.071739
-0.0503118
-0.294998
0.273571
0.0335138
-0.0192171
-0.126085
0.111788
0.0100974
-0.00386567
-0.0372927
0.0310609
0.000932573
-0.00310245
0.00216987
-0.0583306
0.0662706
-0.00793996
0.0404376
-0.057033
-0.312597
0.329192
0.07326
-0.0863201
-0.479978
0.493038
0.0977789
-0.107188
-0.628862
0.638271
0.117317
-0.126829
-0.757659
0.767172
0.136876
-0.145475
-0.886845
0.895444
0.154307
-0.161719
-1.03537
1.04278
0.169031
-0.174766
-1.20729
1.21303
0.179873
-0.183242
-1.40525
1.40862
0.185386
-0.185732
-1.63363
1.63397
0.184616
-0.182396
-1.58934
1.58712
0.179959
-0.177121
-1.30146
1.29862
0.174216
-0.170844
-1.07718
1.07381
0.167764
-0.1632
-0.893324
0.88876
0.155465
-0.141162
-0.709105
0.694802
0.122578
-0.0978146
-0.481039
0.456276
0.0739209
-0.0498994
-0.251484
0.227463
0.0321056
-0.0177633
-0.0976217
0.0832795
0.00901943
-0.00331934
-0.0250985
0.0193984
0.000751262
-0.00129083
0.000539565
-0.0736407
0.0781346
-0.0044939
0.0310747
-0.0456429
-0.348669
0.363237
0.0602373
-0.0722805
-0.51204
0.524083
0.0833264
-0.0938875
-0.651269
0.66183
0.105986
-0.11711
-0.775996
0.78712
0.129546
-0.140701
-0.903049
0.914203
0.152741
-0.163615
-1.04932
1.06019
0.175243
-0.185488
-1.21775
1.228
0.196091
-0.205012
-1.41092
1.41984
0.213668
-0.220227
-1.63322
1.63978
0.22473
-0.227899
-1.58365
1.58682
0.229741
-0.231126
-1.29413
1.29551
0.231916
-0.231431
-1.06975
1.06927
0.22996
-0.224479
-0.881224
0.875743
0.212163
-0.188701
-0.6789
0.655438
0.158556
-0.120837
-0.430004
0.392286
0.0872603
-0.055841
-0.203517
0.172097
0.0343067
-0.0181088
-0.0698138
0.053616
0.00874167
-0.00299845
-0.0141911
0.0084479
0.000599238
0.000224135
-0.000823372
-0.0859696
0.0840984
0.00187121
0.00883526
-0.0184946
-0.380765
0.390424
0.0297368
-0.0385922
-0.541099
0.549955
0.0476701
-0.0566142
-0.675144
0.684088
0.0676751
-0.0780814
-0.797679
0.808085
0.0893278
-0.099672
-0.924795
0.93514
0.11083
-0.120577
-1.07084
1.08059
0.131224
-0.140273
-1.23812
1.24717
0.149676
-0.157419
-1.42858
1.43632
0.164644
-0.170089
-1.64586
1.6513
0.173667
-0.175991
-1.5894
1.59172
0.176928
-0.177543
-1.29517
1.29579
0.177782
-0.176959
-1.06701
1.06619
0.174091
-0.166135
-0.864752
0.856796
0.151762
-0.128309
-0.627495
0.604042
0.101892
-0.0724616
-0.352266
0.322836
0.0492427
-0.0298188
-0.141994
0.12257
0.0174792
-0.00880832
-0.0387835
0.0301126
0.00403276
-0.00129228
-0.00303169
0.000291222
0.000212495
0.00160466
-0.00181716
-0.087759
0.0847851
0.00297394
-0.000480481
-0.00525474
-0.402879
0.408615
0.0128506
-0.0195345
-0.563005
0.569689
0.0264652
-0.0341923
-0.695592
0.703319
0.0438534
-0.0529312
-0.817403
0.826481
0.062967
-0.0720555
-0.944679
0.953768
0.0816425
-0.0904438
-1.09021
1.09901
0.0998843
-0.108057
-1.25587
1.26404
0.116165
-0.122774
-1.44356
1.45017
0.129126
-0.133667
-1.65636
1.6609
0.136437
-0.138044
-1.59356
1.59517
0.138433
-0.13861
-1.29501
1.29519
0.138146
-0.136818
-1.06242
1.06109
0.133063
-0.123839
-0.844604
0.83538
0.109263
-0.0877333
-0.577284
0.555754
0.066048
-0.0443895
-0.291651
0.269992
0.0291725
-0.0173634
-0.103597
0.0917877
0.0101183
-0.0051266
-0.0216799
0.0166882
0.00237311
-0.000772355
0.00261897
-0.00421972
0.000133755
0.00222822
-0.00236197
-0.0865879
0.0837114
0.00287651
-0.00462568
0.0016104
-0.417922
0.420937
0.00343749
-0.00858921
-0.579649
0.584801
0.01451
-0.0210265
-0.712492
0.719009
0.0293408
-0.0371659
-0.834768
0.842593
0.0457911
-0.0536403
-0.96229
0.970139
0.0623321
-0.0699031
-1.10738
1.11495
0.07824
-0.0850285
-1.27183
1.27862
0.0921615
-0.0979435
-1.45664
1.46242
0.103278
-0.106803
-1.66523
1.66876
0.109087
-0.110339
-1.59636
1.59762
0.110431
-0.109843
-1.29425
1.29367
0.108961
-0.107142
-1.05643
1.05461
0.102813
-0.093543
-0.822241
0.812972
0.0797681
-0.0614959
-0.531643
0.51337
0.0447353
-0.0295255
-0.247334
0.232124
0.0193935
-0.0117515
-0.0794099
0.071768
0.00701579
-0.00367843
-0.0112861
0.00794872
0.00177858
-0.000613564
0.00610376
-0.00726878
0.00011865
0.00262484
-0.00274349
-0.0850748
0.0824614
0.00261338
-0.00623615
0.00494212
-0.428164
0.429458
-0.00110923
-0.00280298
-0.593087
0.596999
0.00758296
-0.0134428
-0.72674
0.7326
0.0204301
-0.0272932
-0.849594
0.856457
0.0347706
-0.0416012
-0.977503
0.984334
0.0490884
-0.055811
-1.12237
1.1291
0.062936
-0.0690925
-1.28526
1.29142
0.0752657
-0.0802224
-1.46786
1.47281
0.0847136
-0.0875548
-1.67225
1.67509
0.0892939
-0.0899096
-1.59827
1.59889
0.0896899
-0.0888816
-1.29242
1.29161
0.0875713
-0.0850721
-1.04961
1.04711
0.0807253
-0.0719043
-0.799993
0.791172
0.0598896
-0.0449016
-0.492974
0.477986
0.0322514
-0.021428
-0.215607
0.204783
0.0143213
-0.00898062
-0.063284
0.0579433
0.00558309
-0.00305541
-0.00406446
0.00153678
0.00154693
-0.000560724
0.00870646
-0.00969267
0.000122673
0.00294658
-0.00306926
-0.0835433
0.0812404
0.00230283
-0.00654489
0.00589579
-0.435255
0.435904
-0.00354987
0.000361822
-0.603514
0.606702
0.00420719
-0.0091935
-0.738803
0.743789
0.0151624
-0.0210794
-0.862408
0.868325
0.0276632
-0.0337099
-0.990765
0.996812
0.0404664
-0.0463097
-1.1355
1.14134
0.0526165
-0.0580462
-1.29724
1.30267
0.0633857
-0.0676044
-1.47747
1.48169
0.0713015
-0.0738678
-1.67788
1.68045
0.0750369
-0.0753867
-1.5991
1.59945
0.0748686
-0.0737666
-1.29022
1.28912
0.0723862
-0.0693778
-1.0422
1.03919
0.064907
-0.0569402
-0.778907
0.77094
0.0466218
-0.0345217
-0.461052
0.448952
0.0249131
-0.016941
-0.192565
0.184593
0.0117745
-0.00773556
-0.0516455
0.0476065
0.00500916
-0.00286136
0.00153779
-0.00368559
0.00150187
-0.000572403
0.0108889
-0.0118184
0.000133469
0.00322815
-0.00336162
-0.08223
0.0803602
0.00186975
-0.00602446
0.00587513
-0.440422
0.440571
-0.0039909
0.00160185
-0.612516
0.614905
0.00256315
-0.00701985
-0.749173
0.75363
0.0125702
-0.0176064
-0.873755
0.878791
0.0233064
-0.028579
-1.00277
1.00804
0.0348164
-0.0399825
-1.14715
1.15232
0.0454426
-0.0503345
-1.30784
1.31274
0.0553992
-0.0590063
-1.48585
1.48945
0.062199
-0.064115
-1.68259
1.68451
0.065123
-0.0648331
-1.59958
1.59929
0.0642258
-0.0630416
-1.28754
1.28636
0.0612973
-0.0582878
-1.03443
1.03142
0.0538592
-0.0464985
-0.75952
0.752159
0.0379207
-0.0280977
-0.434836
0.425013
0.020664
-0.0147072
-0.175272
0.169315
0.0106892
-0.00739025
-0.0426132
0.0393143
0.00501633
-0.00299592
0.00636617
-0.00838658
0.00163423
-0.000649165
0.0129359
-0.013921
0.000162065
0.00350036
-0.00366243
-0.0813257
0.0797997
0.00152606
-0.00523013
0.00537879
-0.444299
0.44415
-0.00375042
0.00157755
-0.620191
0.622364
0.00224146
-0.00617839
-0.758328
0.762265
0.0108559
-0.015576
-0.883707
0.888427
0.0207063
-0.0259392
-1.01305
1.01828
0.0311782
-0.0358943
-1.15752
1.16223
0.0411581
-0.0454527
-1.3174
1.3217
0.0495655
-0.0531074
-1.49286
1.4964
0.0558576
-0.0574222
-1.6864
1.68797
0.0579201
-0.057536
-1.59913
1.59875
0.056681
-0.0552309
-1.28458
1.28313
0.0533624
-0.0501881
-1.02687
1.02369
0.0458945
-0.0394149
-0.741855
0.735375
0.0319144
-0.0240486
-0.413291
0.405425
0.0183148
-0.013651
-0.162016
0.157353
0.0104097
-0.0075969
-0.0350957
0.0322829
0.00537879
-0.0033607
0.0109033
-0.0129214
0.00191292
-0.00079188
0.0150779
-0.0161989
0.000210999
0.00381227
-0.00402327
-0.0808965
0.0795654
0.00133103
-0.00415286
0.00418789
-0.44749
0.447455
-0.00288468
0.00083506
-0.627024
0.629074
0.0025916
-0.00630104
-0.76665
0.770359
0.0106583
-0.0148214
-0.892876
0.897039
0.019902
-0.0241272
-1.02284
1.02706
0.0291008
-0.0333869
-1.16703
1.17131
0.0382033
-0.0423389
-1.32585
1.32998
0.0462933
-0.0491059
-1.49955
1.50236
0.0515506
-0.0528109
-1.6893
1.69056
0.0532258
-0.052373
-1.59809
1.59724
0.0512932
-0.0495681
-1.28152
1.2798
0.0475269
-0.0441379
-1.01916
1.01577
0.0400344
-0.0340487
-0.72598
0.719994
0.0276862
-0.0212883
-0.395729
0.389331
0.0167416
-0.0131342
-0.151477
0.147869
0.0104451
-0.00795161
-0.0285518
0.0260584
0.005849
-0.00380975
0.0153751
-0.0174144
0.00224435
-0.000978307
0.0174418
-0.0187079
0.000271686
0.00420008
-0.00447176
-0.0806966
0.0796961
0.00100054
-0.00314708
0.00279748
-0.450501
0.45085
-0.00176613
-0.000252395
-0.632886
0.634905
0.00324983
-0.00673372
-0.774205
0.777688
0.0107879
-0.0149568
-0.901008
0.905177
0.0192378
-0.0234653
-1.03143
1.03566
0.0281827
-0.0320147
-1.17595
1.17978
0.0366236
-0.0403785
-1.33379
1.33754
0.0439411
-0.0468113
-1.50543
1.5083
0.0491031
-0.0499232
-1.69166
1.69248
0.0497767
-0.0488267
-1.59636
1.59541
0.047585
-0.0454849
-1.27766
1.27556
0.0430744
-0.0396971
-1.01139
1.00801
0.0352402
-0.0298649
-0.711362
0.705987
0.0243825
-0.0190872
-0.381323
0.376027
0.0155081
-0.0125523
-0.14298
0.140024
0.0102892
-0.00806686
-0.0227391
0.0205168
0.00610742
-0.00411079
0.0198042
-0.0218008
0.00251532
-0.00114409
0.0200522
-0.0214234
0.000336615
0.00468475
-0.00502136
-0.0808761
0.080051
0.000825114
-0.00227547
0.00203782
-0.453515
0.453752
-0.000558658
-0.00122272
-0.638629
0.640411
0.00431945
-0.00759019
-0.781045
0.784315
0.0113769
-0.0150201
-0.908956
0.912599
0.0192942
-0.0230482
-1.03982
1.04357
0.0275184
-0.0315979
-1.18399
1.18807
0.0355539
-0.0393425
-1.34121
1.345
0.0429349
-0.0454315
-1.51088
1.51338
0.0474719
-0.0483705
-1.69328
1.69418
0.0478761
-0.0466876
-1.59404
1.59285
0.0448795
-0.0424566
-1.27319
1.27077
0.0398233
-0.0360221
-1.00343
0.99963
0.0316227
-0.026424
-0.697984
0.692785
0.0215581
-0.0170272
-0.369104
0.364573
0.0140155
-0.0115685
-0.135942
0.133495
0.00961912
-0.00768757
-0.0175725
0.0156409
0.00595027
-0.00412147
0.0240296
-0.0258584
0.00259412
-0.00122567
0.0227877
-0.0241562
0.000377502
0.00526533
-0.00564283
-0.0813418
0.0806913
0.000650521
-0.00125881
0.000891824
-0.456527
0.456894
0.000373451
-0.00240394
-0.643807
0.645837
0.0053736
-0.00841885
-0.787465
0.790511
0.0122019
-0.0156008
-0.916175
0.919574
0.0195955
-0.0233493
-1.04775
1.05151
0.0275596
-0.0314199
-1.1919
1.19576
0.0353648
-0.0389136
-1.34858
1.35212
0.0423282
-0.0451806
-1.51599
1.51884
0.0470849
-0.0475919
-1.69474
1.69525
0.0469997
-0.0452288
-1.5912
1.58943
0.0431823
-0.0404799
-1.26793
1.26523
0.0372062
-0.0330208
-0.994872
0.990687
0.0284351
-0.0232046
-0.685342
0.680112
0.0188104
-0.014785
-0.358665
0.354639
0.0122022
-0.0100605
-0.129947
0.127806
0.00842126
-0.00679959
-0.0130649
0.0114433
0.00535676
-0.00380232
0.0278314
-0.0293859
0.00245589
-0.00120664
0.0254245
-0.0266737
0.000398127
0.00589183
-0.00628995
-0.0820409
0.0815134
0.000527426
-0.00042003
-2.66137e-05
-0.459594