/*--------------------------------*- C++ -*----------------------------------*\
  =========                 |
  \\      /  F ield         | OpenFOAM: The Open Source CFD Toolbox
   \\    /   O peration     | Website:  https://openfoam.org
    \\  /    A nd           | Version:  6
     \\/     M anipulation  |
\*---------------------------------------------------------------------------*/
FoamFile
{
    version     2.0;
    format      ascii;
    class       volScalarField;
    location    "23";
    object      p;
}
// * * * * * * * * * * * * * * * * * * * * * * * * * * * * * * * * * * * * * //

dimensions      [0 2 -2 0 0 0 0];

internalField   nonuniform List<scalar> 
2200
(
0.437992
0.422781
0.405299
0.388979
0.374485
0.362443
0.352818
0.345352
0.339977
0.336897
0.337186
0.340756
0.346522
0.354281
0.364113
0.376304
0.390901
0.407281
0.424797
0.440025
0.381547
0.377633
0.372662
0.367129
0.360903
0.354309
0.347848
0.342169
0.337782
0.335157
0.335446
0.338592
0.343406
0.349401
0.35609
0.362843
0.369175
0.374785
0.379803
0.383731
0.339945
0.339647
0.340674
0.342131
0.342706
0.341714
0.339441
0.33658
0.333765
0.331908
0.332223
0.334687
0.337961
0.341172
0.343696
0.344873
0.344434
0.343068
0.342103
0.342427
0.314983
0.316021
0.318433
0.321763
0.324987
0.327389
0.328635
0.328616
0.327765
0.327255
0.327643
0.328845
0.330203
0.33061
0.329661
0.327476
0.324407
0.321184
0.318839
0.317827
0.299818
0.301312
0.304071
0.307617
0.311391
0.314892
0.317545
0.318987
0.319784
0.320811
0.321273
0.321068
0.320921
0.319935
0.317619
0.314354
0.310743
0.307309
0.304614
0.30314
0.291985
0.293277
0.295611
0.298644
0.301902
0.305004
0.307605
0.309658
0.31164
0.313459
0.314061
0.313267
0.312036
0.310521
0.308312
0.305505
0.302459
0.299552
0.297283
0.296009
0.288693
0.289556
0.291025
0.292935
0.294932
0.296866
0.29892
0.301383
0.304146
0.306053
0.306774
0.306078
0.304202
0.302446
0.3009
0.299338
0.297592
0.295837
0.294452
0.293607
0.28639
0.286996
0.287869
0.288896
0.289933
0.290996
0.29242
0.294562
0.296943
0.298455
0.299267
0.299239
0.298038
0.296808
0.296003
0.295333
0.294577
0.293757
0.292982
0.292392
0.283354
0.283805
0.284542
0.285527
0.286641
0.28782
0.289054
0.290533
0.291953
0.293066
0.294103
0.294896
0.294936
0.294466
0.293946
0.293277
0.292505
0.291744
0.291117
0.290687
0.279809
0.280079
0.280801
0.282163
0.283931
0.285699
0.287242
0.288605
0.289758
0.290978
0.292238
0.29324
0.293859
0.293696
0.293067
0.292026
0.290775
0.289706
0.289118
0.288876
0.276631
0.276727
0.277303
0.278666
0.280498
0.282374
0.284299
0.286186
0.28782
0.289542
0.290976
0.291773
0.292168
0.291937
0.291312
0.290427
0.289261
0.288287
0.287881
0.287813
0.273713
0.273712
0.27408
0.275005
0.276248
0.277689
0.279557
0.28176
0.284012
0.28635
0.288184
0.289126
0.289422
0.289364
0.289102
0.288752
0.288242
0.287796
0.28764
0.28765
0.270441
0.270426
0.270665
0.271201
0.27197
0.273022
0.274553
0.276502
0.278885
0.281628
0.284137
0.285899
0.286939
0.287481
0.287667
0.287813
0.287884
0.287864
0.287847
0.287857
0.266558
0.266561
0.266775
0.267265
0.268038
0.269125
0.270583
0.272396
0.274776
0.27772
0.280851
0.283509
0.285423
0.286624
0.287308
0.287801
0.288107
0.288231
0.28826
0.288262
0.262075
0.262106
0.262357
0.262958
0.263957
0.265355
0.267137
0.269374
0.272232
0.275684
0.279408
0.282602
0.284998
0.286716
0.287873
0.288597
0.288966
0.289126
0.289177
0.289182
0.256869
0.256897
0.257199
0.257922
0.259082
0.260707
0.262863
0.265729
0.269369
0.27376
0.278403
0.282309
0.285184
0.287319
0.288837
0.289787
0.290352
0.290659
0.290779
0.290796
0.250818
0.250845
0.251137
0.251846
0.253022
0.254775
0.257247
0.26062
0.26504
0.270585
0.276552
0.281626
0.285399
0.288159
0.290148
0.291495
0.292384
0.292882
0.293066
0.293081
0.243223
0.243267
0.243607
0.244425
0.245812
0.247868
0.250777
0.254792
0.260151
0.267019
0.274587
0.28113
0.286047
0.289636
0.292191
0.293945
0.295107
0.295758
0.296009
0.296027
0.23419
0.234228
0.234642
0.235656
0.237403
0.240019
0.243714
0.248752
0.255431
0.263987
0.273412
0.281576
0.287679
0.292126
0.295264
0.297419
0.298834
0.299619
0.299914
0.299929
0.223134
0.223221
0.22379
0.225117
0.227392
0.230772
0.235488
0.241901
0.250403
0.261191
0.272928
0.282984
0.290438
0.29581
0.299596
0.302179
0.303821
0.304728
0.305084
0.305106
0.20971
0.209782
0.210488
0.212214
0.215134
0.219421
0.225459
0.233712
0.244575
0.258198
0.272822
0.285135
0.29417
0.30064
0.305173
0.308297
0.310329
0.311449
0.311865
0.311874
0.192971
0.193133
0.194098
0.196304
0.200045
0.205619
0.213463
0.224097
0.237953
0.255123
0.273172
0.288114
0.298993
0.306787
0.312291
0.316047
0.318445
0.319762
0.320258
0.320273
0.171765
0.171961
0.173265
0.176265
0.181345
0.188824
0.199198
0.213131
0.230952
0.252429
0.274386
0.292277
0.305251
0.314507
0.321043
0.325576
0.328508
0.330113
0.330692
0.330683
0.143991
0.144448
0.146482
0.150835
0.157977
0.168311
0.182529
0.201049
0.223875
0.250354
0.276632
0.29766
0.312891
0.32389
0.331707
0.337122
0.340628
0.342518
0.34318
0.343168
0.107271
0.108162
0.111456
0.118131
0.128761
0.14386
0.163616
0.188091
0.216891
0.249012
0.279878
0.304306
0.322013
0.334869
0.34418
0.350735
0.354998
0.357301
0.358066
0.357987
0.0580731
0.0595175
0.0654912
0.0769058
0.0936582
0.115798
0.143004
0.174882
0.210514
0.248591
0.284217
0.312211
0.332527
0.347428
0.358369
0.36623
0.371423
0.374172
0.374944
0.374751
-0.00631143
-0.00226808
0.00995867
0.0296362
0.0553487
0.0863717
0.122195
0.162129
0.204853
0.24919
0.290471
0.322813
0.346379
0.364149
0.377677
0.387594
0.394182
0.39768
0.398683
0.3986
-0.0792277
-0.0689736
-0.0476546
-0.0183299
0.0170457
0.0574966
0.102129
0.149866
0.199459
0.250511
0.29842
0.335966
0.363382
0.384223
0.40068
0.413471
0.422485
0.427761
0.429932
0.43047
-0.144713
-0.129874
-0.101794
-0.0640148
-0.0195572
0.0299736
0.0829643
0.13795
0.19421
0.252315
0.306547
0.348665
0.379573
0.403076
0.421567
0.436291
0.447117
0.453674
0.456316
0.45685
-0.195888
-0.180726
-0.148749
-0.104592
-0.0528205
0.00425981
0.0643918
0.12594
0.18884
0.254027
0.31377
0.359635
0.393658
0.419545
0.439575
0.455134
0.466414
0.473227
0.476071
0.476666
-0.238908
-0.222918
-0.188175
-0.139564
-0.0823671
-0.0194485
0.0464729
0.113908
0.183289
0.255162
0.319809
0.369189
0.405525
0.432904
0.453648
0.469447
0.480847
0.487747
0.490717
0.491393
-0.275829
-0.258929
-0.221793
-0.169845
-0.108634
-0.0412594
0.0293665
0.102154
0.177705
0.255535
0.324575
0.376911
0.414577
0.442562
0.463805
0.479842
0.491436
0.498597
0.501744
0.502492
-0.308305
-0.29068
-0.251384
-0.196563
-0.132145
-0.0612561
0.0133302
0.0909821
0.172108
0.254728
0.327301
0.381978
0.42103
0.449595
0.471024
0.487428
0.499404
0.506819
0.510107
0.510764
-0.337537
-0.319335
-0.278141
-0.220693
-0.153441
-0.0795592
-0.00153023
0.080365
0.166162
0.252642
0.328666
0.386027
0.426357
0.455616
0.477629
0.494301
0.506394
0.513915
0.517067
0.517452
-0.364489
-0.345788
-0.302811
-0.242853
-0.172988
-0.0964536
-0.0154412
0.0700133
0.159623
0.249684
0.329484
0.389371
0.431254
0.461718
0.484264
0.501012
0.513042
0.5204
0.523607
0.523964
-0.389669
-0.370475
-0.325879
-0.263613
-0.191343
-0.112437
-0.0288577
0.0595838
0.152454
0.246169
0.330015
0.392721
0.436715
0.468083
0.490869
0.507689
0.519618
0.52697
0.53022
0.530621
-0.413546
-0.393839
-0.347797
-0.283461
-0.209047
-0.128061
-0.0422364
0.0488688
0.144771
0.242363
0.330452
0.396362
0.442058
0.47438
0.497761
0.514809
0.526722
0.5339
0.537079
0.537488
-0.43636
-0.416148
-0.368934
-0.302854
-0.226597
-0.143759
-0.0558602
0.037777
0.136573
0.238006
0.330156
0.399353
0.447126
0.480848
0.504847
0.522075
0.534084
0.541223
0.544278
0.544652
-0.458272
-0.437615
-0.389475
-0.321977
-0.244175
-0.159686
-0.0698339
0.0262239
0.12768
0.232496
0.328654
0.401672
0.452429
0.487475
0.512118
0.529669
0.541718
0.548715
0.551622
0.551949
-0.479452
-0.458436
-0.409539
-0.340845
-0.261725
-0.175763
-0.0840999
0.0142026
0.118036
0.225803
0.32596
0.403229
0.457239
0.494418
0.51999
0.537762
0.549651
0.556425
0.559056
0.559317
-0.500079
-0.478752
-0.429153
-0.359372
-0.279067
-0.191791
-0.0985004
0.00177481
0.107617
0.217657
0.321271
0.403212
0.461594
0.501942
0.528775
0.546617
0.558084
0.564359
0.566691
0.566807
-0.520256
-0.498649
-0.448332
-0.377458
-0.296028
-0.207587
-0.112896
-0.0110356
0.0963352
0.208221
0.315407
0.402207
0.465432
0.509627
0.538772
0.556742
0.567358
0.57268
0.574317
0.574211
-0.540002
-0.51812
-0.467033
-0.395022
-0.312484
-0.223019
-0.127178
-0.0241323
0.0844824
0.198442
0.308911
0.399246
0.467401
0.516952
0.550006
0.569222
0.578414
0.581488
0.581647
0.581116
-0.559256
-0.537144
-0.485228
-0.412004
-0.328366
-0.238028
-0.14128
-0.0373271
0.0724153
0.18821
0.3006
0.394019
0.467244
0.522857
0.56185
0.584709
0.593119
0.592498
0.588894
0.587662
-0.577925
-0.555624
-0.502847
-0.428379
-0.343671
-0.252599
-0.155132
-0.0505063
0.0600595
0.177271
0.291581
0.388209
0.464979
0.526364
0.572764
0.602751
0.613924
0.608982
0.598022
0.593091
-0.595947
-0.573494
-0.519832
-0.444123
-0.35842
-0.266769
-0.168779
-0.0637245
0.047508
0.166319
0.282375
0.380479
0.460218
0.526759
0.580727
0.620458
0.641255
0.636505
0.612241
0.584156
-0.61323
-0.590639
-0.536138
-0.459371
-0.372902
-0.280878
-0.182576
-0.077228
0.0346037
0.154671
0.271674
0.371009
0.45314
0.523469
0.584089
0.633627
0.667571
0.678158
0.682153
0.687861
-0.629737
-0.607092
-0.551859
-0.474298
-0.387405
-0.295287
-0.196886
-0.0913974
0.020755
0.141541
0.259245
0.359233
0.44233
0.514984
0.579153
0.633017
0.668597
0.677864
0.654965
0.645286
-0.645456
-0.622854
-0.566978
-0.488813
-0.401847
-0.309974
-0.211652
-0.106161
0.00615488
0.127329
0.245009
0.34475
0.427166
0.498512
0.560351
0.607654
0.619234
0.592171
0.549594
0.533967
-0.660344
-0.63801
-0.581546
-0.502884
-0.416229
-0.324946
-0.226803
-0.12136
-0.00905014
0.111816
0.228604
0.326811
0.405831
0.470845
0.52156
0.542223
0.526583
0.471382
0.409193
0.396217
-0.674325
-0.652586
-0.595595
-0.516576
-0.430613
-0.340161
-0.242211
-0.136955
-0.0250154
0.0950378
0.210142
0.30468
0.377256
0.430119
0.458281
0.453932
0.411049
0.324438
0.247143
0.23586
-0.687796
-0.666824
-0.609607
-0.530568
-0.44549
-0.355834
-0.258061
-0.153157
-0.0418617
0.0769301
0.189484
0.278892
0.341975
0.377236
0.376278
0.350054
0.254499
0.148858
0.0628252
0.0537736
-0.701632
-0.681168
-0.624407
-0.545947
-0.461599
-0.37235
-0.274683
-0.170276
-0.0599774
0.0569272
0.166049
0.248623
0.299145
0.312985
0.285695
0.213927
0.0851614
-0.043124
-0.148739
-0.162416
-0.716412
-0.696125
-0.640369
-0.562981
-0.479059
-0.389752
-0.292147
-0.188418
-0.0795147
0.0349868
0.140318
0.214897
0.248676
0.237283
0.191154
0.066746
-0.0962581
-0.269721
-0.410565
-0.431511
-0.732296
-0.712056
-0.657419
-0.581254
-0.497572
-0.407935
-0.310366
-0.20748
-0.100343
0.0111135
0.111409
0.177788
0.193656
0.150582
0.0700669
-0.0896954
-0.2825
-0.503866
-0.714483
-0.788046
-0.749481
-0.729279
-0.675579
-0.60045
-0.516908
-0.426911
-0.329421
-0.22752
-0.122599
-0.0147995
0.0801742
0.137072
0.132299
0.0555805
-0.0759469
-0.25219
-0.457767
-0.741788
-1.18028
-1.52143
-0.76802
-0.747821
-0.69478
-0.620389
-0.536931
-0.446644
-0.349255
-0.248375
-0.145842
-0.0425271
0.0467159
0.0945167
0.0686385
-0.0371182
-0.230416
-0.433078
-0.621491
-0.89184
-1.43771
-2.29638
-0.787999
-0.767721
-0.715079
-0.641177
-0.557783
-0.467344
-0.370146
-0.270284
-0.170393
-0.0722172
0.0103667
0.0469871
0.00262841
-0.12051
-0.367504
-0.592653
-0.754853
-0.90669
-1.10731
-1.42071
-0.809349
-0.788936
-0.736608
-0.663172
-0.579935
-0.489559
-0.392776
-0.294011
-0.196822
-0.104503
-0.028707
-0.00293339
-0.0663342
-0.204266
-0.474343
-0.691945
-0.82688
-0.899732
-0.943813
-0.978764
-0.832076
-0.811514
-0.759416
-0.686408
-0.603466
-0.513433
-0.417292
-0.319642
-0.225271
-0.139155
-0.0720497
-0.0566443
-0.132292
-0.28597
-0.551095
-0.747756
-0.853176
-0.886237
-0.917667
-0.92302
-0.856032
-0.835318
-0.783413
-0.710848
-0.628373
-0.539033
-0.443875
-0.347306
-0.255499
-0.175448
-0.118648
-0.115921
-0.19477
-0.367594
-0.608812
-0.775026
-0.857852
-0.878224
-0.884976
-0.885267
-0.881093
-0.860209
-0.808432
-0.736266
-0.654426
-0.566174
-0.472407
-0.376966
-0.287079
-0.212823
-0.167431
-0.177085
-0.254243
-0.445014
-0.649294
-0.782497
-0.839731
-0.866765
-0.861604
-0.858436
-0.90685
-0.885858
-0.834196
-0.762393
-0.681289
-0.594547
-0.502836
-0.40874
-0.32016
-0.250416
-0.218645
-0.242741
-0.318349
-0.509113
-0.681955
-0.788147
-0.81881
-0.835786
-0.837269
-0.8344
-0.932792
-0.911811
-0.860274
-0.788789
-0.708421
-0.623531
-0.534702
-0.442721
-0.354433
-0.286227
-0.267509
-0.312907
-0.397736
-0.566517
-0.697478
-0.778675
-0.805105
-0.810829
-0.817164
-0.819025
-0.95822
-0.937495
-0.886272
-0.815038
-0.73521
-0.652245
-0.567155
-0.478544
-0.390374
-0.320673
-0.312667
-0.384314
-0.491877
-0.63251
-0.709572
-0.747378
-0.787631
-0.802736
-0.811849
-0.816214
-0.98227
-0.96206
-0.911503
-0.840592
-0.761005
-0.679654
-0.599053
-0.515833
-0.428505
-0.353508
-0.351259
-0.45458
-0.603093
-0.728634
-0.765614
-0.751148
-0.787182
-0.816373
-0.832054
-0.840438
-1.00391
-0.984529
-0.935213
-0.86505
-0.785435
-0.704555
-0.628007
-0.552565
-0.46874
-0.385747
-0.379329
-0.512846
-0.710768
-0.863371
-0.904891
-0.898354
-0.910495
-0.92375
-0.929096
-0.928841
-1.02197
-1.00368
-0.956178
-0.887458
-0.808097
-0.726444
-0.65185
-0.585264
-0.510612
-0.420294
-0.395061
-0.541949
-0.801568
-1.04381
-1.17094
-1.21885
-1.22304
-1.19417
-1.15618
-1.12991
-1.03513
-1.01822
-0.972991
-0.906692
-0.828601
-0.745355
-0.668903
-0.608349
-0.549214
-0.46016
-0.39736
-0.530006
-0.839822
-1.19132
-1.4448
-1.52943
-1.52925
-1.49146
-1.43694
-1.39382
-1.04264
-1.02741
-0.984374
-0.92063
-0.845179
-0.761538
-0.679273
-0.617156
-0.572471
-0.503124
-0.40724
-0.477646
-0.772969
-1.18013
-1.53184
-1.65825
-1.65697
-1.61953
-1.56185
-1.51941
-1.04322
-1.03004
-0.989417
-0.92724
-0.854826
-0.774203
-0.686452
-0.613486
-0.571732
-0.528072
-0.424564
-0.399026
-0.584667
-0.905674
-1.25684
-1.42684
-1.4234
-1.35246
-1.27124
-1.21912
-1.036
-1.02493
-0.98738
-0.926093
-0.854773
-0.778702
-0.691501
-0.603754
-0.549283
-0.516676
-0.422919
-0.32131
-0.309488
-0.392271
-0.542445
-0.605451
-0.545669
-0.445364
-0.363953
-0.314608
-1.01833
-1.00871
-0.975394
-0.916672
-0.845013
-0.770695
-0.689551
-0.59466
-0.515237
-0.471335
-0.379673
-0.218581
-0.0385578
0.157901
0.320761
0.463674
0.621216
0.759759
0.8538
0.894363
-0.985694
-0.977808
-0.951039
-0.898782
-0.828862
-0.752426
-0.674378
-0.58269
-0.480049
-0.40089
-0.296353
-0.0986383
0.168053
0.529283
0.918902
1.26191
1.5269
1.70813
1.80644
1.83752
-0.93948
-0.934851
-0.917302
-0.873367
-0.80664
-0.727145
-0.645933
-0.558732
-0.449203
-0.334825
-0.226129
-0.0357664
0.260816
0.640196
1.0702
1.46235
1.74882
1.92357
2.0059
2.02865
-0.890795
-0.88983
-0.878796
-0.840364
-0.777233
-0.698526
-0.614436
-0.528488
-0.426571
-0.303296
-0.20471
-0.0617408
0.190618
0.50305
0.831087
1.12193
1.33848
1.47169
1.53741
1.56034
-0.844346
-0.84555
-0.836507
-0.802535
-0.743236
-0.668708
-0.587866
-0.504482
-0.416353
-0.306065
-0.215405
-0.134104
0.0394437
0.289053
0.511942
0.698061
0.846512
0.946656
1.00037
1.02245
-0.783783
-0.785605
-0.77893
-0.75167
-0.700419
-0.635123
-0.564679
-0.490337
-0.412924
-0.321959
-0.229182
-0.187878
-0.0855654
0.0983874
0.265287
0.409735
0.521558
0.598558
0.638101
0.650306
-0.702248
-0.703515
-0.699528
-0.680236
-0.641895
-0.593087
-0.539472
-0.479534
-0.409379
-0.335519
-0.243076
-0.205979
-0.149614
-0.0309457
0.105808
0.223934
0.305571
0.354776
0.378867
0.384636
-0.613391
-0.614046
-0.611717
-0.599434
-0.574851
-0.543691
-0.507635
-0.465157
-0.405175
-0.337385
-0.252836
-0.201968
-0.167839
-0.0853671
0.0232703
0.10916
0.166073
0.195501
0.208756
0.211574
-0.534731
-0.534992
-0.53354
-0.526936
-0.513626
-0.496165
-0.474013
-0.445911
-0.400519
-0.337286
-0.258775
-0.20872
-0.185455
-0.116432
-0.0395289
0.0174816
0.0536378
0.0770648
0.0880063
0.0912497
-0.479268
-0.479153
-0.478249
-0.475357
-0.469634
-0.461299
-0.447946
-0.42515
-0.388895
-0.343749
-0.271902
-0.235254
-0.212827
-0.164174
-0.109009
-0.068916
-0.0478308
-0.0251478
-0.0126393
-0.00979617
-0.452458
-0.452161
-0.45156
-0.450501
-0.448638
-0.445174
-0.437334
-0.421164
-0.395785
-0.361962
-0.302894
-0.276262
-0.246428
-0.219642
-0.175503
-0.148168
-0.132644
-0.116168
-0.107758
-0.107323
-0.450167
-0.449983
-0.449713
-0.449641
-0.449396
-0.448336
-0.445355
-0.439759
-0.43355
-0.411629
-0.372778
-0.342164
-0.305849
-0.278231
-0.241901
-0.220177
-0.200243
-0.189565
-0.18749
-0.18761
-0.463197
-0.463318
-0.463655
-0.464815
-0.466619
-0.469196
-0.473945
-0.484125
-0.500911
-0.502013
-0.496322
-0.452262
-0.394752
-0.343086
-0.30706
-0.279326
-0.250024
-0.231946
-0.227962
-0.22929
-0.481828
-0.482398
-0.483882
-0.486775
-0.492004
-0.500831
-0.516851
-0.547332
-0.591606
-0.636921
-0.668157
-0.60917
-0.512903
-0.428257
-0.372169
-0.332743
-0.284449
-0.255676
-0.250949
-0.25445
-0.495096
-0.496094
-0.498989
-0.504164
-0.51318
-0.529313
-0.558552
-0.612436
-0.697249
-0.797812
-0.858346
-0.796674
-0.675569
-0.570576
-0.470679
-0.384755
-0.328779
-0.310895
-0.308754
-0.312609
-0.492361
-0.493724
-0.496881
-0.504029
-0.516419
-0.538321
-0.578822
-0.652519
-0.775231
-0.949155
-1.0483
-0.965893
-0.814657
-0.682578
-0.565638
-0.484015
-0.44964
-0.424082
-0.420531
-0.420617
-0.466556
-0.468092
-0.470856
-0.477361
-0.491349
-0.515949
-0.561887
-0.64503
-0.786972
-0.991371
-1.1102
-1.02448
-0.862478
-0.707602
-0.610495
-0.55658
-0.527165
-0.5204
-0.51535
-0.512745
-0.416386
-0.417927
-0.42095
-0.425821
-0.436899
-0.459665
-0.502692
-0.580382
-0.712128
-0.895161
-0.993412
-0.907848
-0.75522
-0.640069
-0.587125
-0.550879
-0.533041
-0.538633
-0.53714
-0.535321
-0.345204
-0.346382
-0.348622
-0.352737
-0.360825
-0.377844
-0.410753
-0.470915
-0.571584
-0.705314
-0.768228
-0.684899
-0.573028
-0.531554
-0.511438
-0.492884
-0.502162
-0.505412
-0.504772
-0.503098
-0.263407
-0.264152
-0.265402
-0.26767
-0.272566
-0.283335
-0.304214
-0.342858
-0.407102
-0.490555
-0.534121
-0.451999
-0.406491
-0.408755
-0.404172
-0.419267
-0.431697
-0.433989
-0.433114
-0.43191
-0.183027
-0.18336
-0.183841
-0.184559
-0.186596
-0.191765
-0.201875
-0.221089
-0.252609
-0.296661
-0.315309
-0.270751
-0.276718
-0.290979
-0.307486
-0.331568
-0.341221
-0.342994
-0.343652
-0.343711
-0.113603
-0.113608
-0.113608
-0.113355
-0.113423
-0.114595
-0.116975
-0.121941
-0.128076
-0.130887
-0.128276
-0.153602
-0.178291
-0.203003
-0.228794
-0.246446
-0.252446
-0.255723
-0.257895
-0.258058
-0.0601318
-0.0599427
-0.0597367
-0.0591005
-0.0582401
-0.057344
-0.05575
-0.0534184
-0.0482678
-0.0315565
-0.0303499
-0.0676171
-0.104863
-0.135865
-0.160488
-0.174107
-0.17922
-0.183048
-0.184271
-0.184591
-0.0232863
-0.0230378
-0.0228215
-0.0222393
-0.0212414
-0.0198301
-0.0171548
-0.0128707
-0.00620641
0.00642025
0.00995015
-0.0269204
-0.061424
-0.0876837
-0.10689
-0.118015
-0.12323
-0.125515
-0.126476
-0.126871
-0.000600154
-0.000373259
-0.000226046
5.36912e-05
0.000763874
0.001837
0.00407924
0.00783235
0.0130857
0.0201076
0.0200151
-0.009366
-0.0359956
-0.0557866
-0.0706339
-0.0770734
-0.0805391
-0.0825592
-0.0835723
-0.083993
0.0112235
0.011395
0.0114558
0.0113997
0.0116724
0.0121881
0.0135145
0.0160087
0.0193384
0.0227534
0.0206735
-0.000499525
-0.0201129
-0.0342662
-0.0446326
-0.0498123
-0.0521242
-0.0533119
-0.0539607
-0.0542493
0.0153417
0.0154622
0.0154622
0.0152019
0.0151119
0.0151446
0.0156362
0.016886
0.0184846
0.0196842
0.0169857
0.00284611
-0.0107541
-0.0204013
-0.0272881
-0.0308829
-0.0326175
-0.0334
-0.0338437
-0.0340435
0.0142601
0.0143374
0.0143065
0.0139999
0.0137502
0.0135445
0.013565
0.0140073
0.0144959
0.0145343
0.0119884
0.00309287
-0.00565309
-0.0116678
-0.0158492
-0.0180749
-0.0191791
-0.019745
-0.0200825
-0.0202135
0.00993423
0.00999314
0.00997452
0.00971004
0.00945887
0.00922245
0.00908597
0.00915929
0.0091285
0.00882534
0.00709097
0.00220006
-0.00269693
-0.00592959
-0.00829068
-0.00955419
-0.0101362
-0.0103512
-0.0104955
-0.0105607
0.00367837
0.00371953
0.00373457
0.00357769
0.00344738
0.00333578
0.00326392
0.00328187
0.00319324
0.00306835
0.00244377
0.000795324
-0.000943155
-0.00213181
-0.00323567
-0.00370645
-0.0037564
-0.00351923
-0.00329369
-0.00325074
-1.00646
-0.512275
-0.216465
0.00835264
0.192365
0.346228
0.474269
0.584113
0.669794
0.700417
-0.29064
-0.0591151
0.0686514
0.200707
0.329419
0.439102
0.521331
0.569168
0.571032
0.570663
0.00682554
0.149932
0.254317
0.34744
0.431124
0.500959
0.551478
0.578375
0.587144
0.621563
0.210938
0.306774
0.389354
0.458099
0.514637
0.560243
0.595417
0.622304
0.644237
0.675047
0.373363
0.435018
0.496567
0.546898
0.587935
0.62167
0.650329
0.676323
0.701809
0.726512
0.503568
0.546094
0.589724
0.627289
0.659082
0.686522
0.71141
0.735279
0.758468
0.777619
0.613671
0.643036
0.674937
0.703647
0.72928
0.752659
0.774624
0.795489
0.815081
0.831295
0.709603
0.730152
0.75491
0.778474
0.800078
0.820065
0.838899
0.856867
0.873742
0.887465
0.79646
0.814332
0.834474
0.853357
0.871072
0.887932
0.904165
0.919692
0.934313
0.946601
0.881115
0.894928
0.91189
0.928204
0.943551
0.958017
0.971738
0.984934
0.997559
1.00807
0.968665
0.977271
0.990428
1.00456
1.01802
1.03045
1.04202
1.05289
1.06328
1.07236
1.05708
1.06272
1.07266
1.08451
1.09606
1.10645
1.11562
1.12399
1.13204
1.13916
1.14897
1.15254
1.15946
1.16763
1.17582
1.18365
1.1909
1.19742
1.2036
1.20944
1.24504
1.2453
1.24711
1.24993
1.25359
1.2583
1.26415
1.27095
1.27795
1.28404
1.34706
1.33822
1.32875
1.32159
1.3183
1.31982
1.32649
1.33772
1.352
1.36546
1.45365
1.41655
1.3857
1.36675
1.35784
1.35747
1.36565
1.38483
1.4162
1.45496
)
;

boundaryField
{
    wall-4
    {
        type            zeroGradient;
    }
    pressure-outlet-7
    {
        type            fixedValue;
        value           uniform 0;
    }
    velocity-inlet-6
    {
        type            zeroGradient;
    }
    velocity-inlet-5
    {
        type            zeroGradient;
    }
    frontAndBackPlanes
    {
        type            empty;
    }
}


// ************************************************************************* //
