/*--------------------------------*- C++ -*----------------------------------*\
  =========                 |
  \\      /  F ield         | OpenFOAM: The Open Source CFD Toolbox
   \\    /   O peration     | Website:  https://openfoam.org
    \\  /    A nd           | Version:  6
     \\/     M anipulation  |
\*---------------------------------------------------------------------------*/
FoamFile
{
    version     2.0;
    format      ascii;
    class       surfaceScalarField;
    location    "23";
    object      phi;
}
// * * * * * * * * * * * * * * * * * * * * * * * * * * * * * * * * * * * * * //

dimensions      [0 3 -1 0 0 0 0];

internalField   nonuniform List<scalar> 
4262
(
0.106761
0.471227
0.0924536
0.707893
0.064567
0.86019
0.0420171
1.02131
0.0259122
1.21462
0.0158095
1.44832
0.00969004
1.73198
0.00581799
2.07491
0.00294576
2.48812
-0.000276271
2.98551
-0.00340802
2.98542
-0.00633182
2.48817
-0.0101708
2.07488
-0.0162525
1.73195
-0.0262764
1.44824
-0.0423028
1.21454
-0.0647838
1.02124
-0.0925668
0.860086
-0.106841
0.70786
0.471147
0.114755
0.356472
0.140007
0.682641
0.125615
0.874582
0.102244
1.04468
0.0744472
1.24242
0.0497677
1.473
0.0305018
1.75125
0.0164933
2.08892
0.00645306
2.49816
-0.000547874
2.99252
-0.00773553
2.99261
-0.0178663
2.4983
-0.0318342
2.08884
-0.0509038
1.75101
-0.0754238
1.47276
-0.103056
1.24218
-0.126192
1.04438
-0.14044
0.874333
-0.114983
0.682404
0.356164
0.0913161
0.265156
0.125474
0.648484
0.123749
0.876307
0.1097
1.05873
0.0949654
1.25715
0.0748807
1.49309
0.0528594
1.77327
0.0319789
2.1098
0.0134151
2.51672
-0.00149353
3.00742
-0.0164009
3.00752
-0.0344391
2.51634
-0.0548893
2.10929
-0.0766056
1.77273
-0.0963543
1.49251
-0.110772
1.25659
-0.124679
1.05829
-0.126174
0.875829
-0.0916342
0.647864
0.264529
0.0621608
0.202995
0.102861
0.607783
0.105183
0.873986
0.0950026
1.06891
0.0832648
1.26889
0.0715742
1.50478
0.0565508
1.78829
0.0382136
2.12813
0.0185442
2.53639
-0.00188584
3.02785
-0.0220087
3.02764
-0.0414384
2.53577
-0.05945
2.12731
-0.0740964
1.78738
-0.0854691
1.50389
-0.0969522
1.26808
-0.106771
1.06811
-0.103953
0.873011
-0.0626324
0.606544
0.201897
0.036955
0.16604
0.0792723
0.565466
0.089701
0.863557
0.0826873
1.07593
0.0705223
1.28106
0.0600151
1.51528
0.0485105
1.7998
0.034154
2.14249
0.017672
2.55287
-0.00269853
3.04822
-0.0226705
3.04761
-0.0386212
2.55172
-0.0526087
2.14129
-0.0638163
1.79859
-0.0737763
1.51385
-0.0853566
1.27966
-0.0917328
1.07448
-0.0806434
0.861921
-0.0374489
0.563349
0.164448
0.0190778
0.146962
0.0546717
0.529872
0.0690836
0.849146
0.0668418
1.07817
0.058563
1.28933
0.0493121
1.52454
0.0396282
1.80948
0.0283118
2.15381
0.0150198
2.56616
-0.00382525
3.06707
-0.0223145
3.0661
-0.034716
2.56412
-0.0451565
2.15173
-0.0538866
1.80732
-0.0622823
1.52224
-0.069911
1.28729
-0.0714983
1.07607
-0.056174
0.846597
-0.0195622
0.526737
0.144886
0.0100542
0.136908
0.0394374
0.500489
0.0538106
0.834772
0.053841
1.07814
0.0483155
1.29486
0.0397334
1.53312
0.0311529
1.81806
0.0223671
2.16259
0.0111746
2.57736
-0.00432362
3.08257
-0.0195624
3.08134
-0.0302055
2.57476
-0.0382829
2.15981
-0.045394
1.81443
-0.053065
1.52991
-0.0577995
1.29202
-0.0568615
1.07513
-0.0413016
0.831037
-0.0106466
0.496082
0.134239
0.00627911
0.130629
0.0313178
0.47545
0.0457483
0.820342
0.0465108
1.07737
0.0414941
1.29988
0.03366
1.54095
0.0247583
1.82696
0.0159644
2.17139
0.00557081
2.58775
-0.00563576
3.09377
-0.016535
3.09224
-0.0262211
2.58445
-0.0333869
2.16698
-0.0406868
1.82173
-0.0480084
1.53723
-0.0518526
1.29586
-0.0497522
1.07303
-0.0336802
0.814965
-0.00701229
0.469414
0.127227
0.00440035
0.126229
0.0251362
0.454714
0.0399081
0.80557
0.0415177
1.07577
0.03689
1.3045
0.0296779
1.54816
0.0214015
1.83524
0.0125724
2.18022
0.00282071
2.5975
-0.00712684
3.10372
-0.0165142
3.10163
-0.0250982
2.59303
-0.0323364
2.17421
-0.0393559
1.82875
-0.0447348
1.54261
-0.0477523
1.29888
-0.0445475
1.06983
-0.0278422
0.79826
-0.00531149
0.446884
0.121916
0.00249509
0.123734
0.0169755
0.440234
0.030286
0.792259
0.0329918
1.07306
0.0297931
1.3077
0.0240469
1.55391
0.0175474
1.84174
0.00964467
2.18812
0.000424708
2.60672
-0.00932637
3.11347
-0.0181727
3.11047
-0.02533
2.60019
-0.0312292
2.18011
-0.0356078
1.83312
-0.0391337
1.54614
-0.040489
1.30024
-0.0358023
1.06514
-0.0201236
0.782581
-0.00359649
0.430357
0.118319
0.000438254
0.123295
0.00793446
0.432738
0.0179297
0.782264
0.0210367
1.06995
0.0194108
1.30933
0.0159887
1.55733
0.0118251
1.8459
0.00572021
2.19422
-0.00232491
2.61477
-0.0115178
3.12267
-0.0197188
3.11868
-0.0253585
2.60583
-0.0288557
2.18361
-0.0307712
1.83504
-0.0320545
1.54742
-0.0312705
1.29945
-0.0253137
1.05918
-0.0121823
0.76945
-0.0019403
0.420115
0.116379
-0.000619751
0.123915
0.00193795
0.43018
0.00859894
0.775603
0.0115303
1.06702
0.0104352
1.31042
0.00761727
1.56015
0.0040732
1.84945
-0.000516802
2.19881
-0.00632572
2.62057
-0.0137394
3.13008
-0.0204825
3.12542
-0.0238804
2.60923
-0.0254141
2.18514
-0.0262367
1.83586
-0.0258834
1.54707
-0.0237545
1.29732
-0.017531
1.05296
-0.00727135
0.75919
-0.00114202
0.413985
0.115237
-0.000934666
0.12485
-0.000815094
0.43006
0.00289613
0.771892
0.00484994
1.06507
0.00400012
1.31127
0.00163054
1.56252
-0.001955
1.85303
-0.00647646
2.20334
-0.0114164
2.62551
-0.017215
3.13588
-0.0217803
3.12998
-0.0242801
2.61173
-0.0254717
2.18634
-0.0250638
1.83545
-0.0236961
1.5457
-0.0208864
1.29451
-0.014782
1.04685
-0.00626612
0.750674
-0.00141957
0.409139
0.113817
-0.00113225
0.125982
-0.00192467
0.430853
-0.000138151
0.770105
0.000718388
1.06421
-0.000259997
1.31225
-0.00263327
1.56489
-0.00666884
1.85707
-0.0114804
2.20815
-0.0168654
2.6309
-0.0225197
3.14153
-0.0261747
3.13364
-0.0274954
2.61305
-0.0272601
2.1861
-0.0257426
1.83394
-0.0232331
1.54319
-0.019492
1.29077
-0.0135732
1.04094
-0.00625234
0.743353
-0.00174839
0.404635
0.112069
-0.00170112
0.127683
-0.00377594
0.432928
-0.00408676
0.770416
-0.0041193
1.06424
-0.00510978
1.31324
-0.00720536
1.56699
-0.0111224
1.86099
-0.0161559
2.21318
-0.0221573
2.6369
-0.0280888
3.14746
-0.0317075
3.13726
-0.0322292
2.61357
-0.0308969
2.18477
-0.0287024
1.83174
-0.0250137
1.5395
-0.0201259
1.28588
-0.0135288
1.03434
-0.00632878
0.736153
-0.00182617
0.400132
0.110243
-0.00238574
0.130069
-0.00624471
0.436787
-0.00798246
0.772154
-0.00832592
1.06459
-0.00978829
1.31471
-0.0127333
1.56993
-0.0171999
1.86545
-0.0228623
2.21884
-0.0293286
2.64337
-0.0352792
3.15341
-0.0386937
3.14067
-0.0390291
2.6139
-0.0368304
2.18257
-0.0331735
1.82809
-0.0277142
1.53404
-0.02115
1.27932
-0.0135572
1.02675
-0.0064473
0.729043
-0.0019395
0.395624
0.108303
-0.00327677
0.133346
-0.00870847
0.442218
-0.0120969
0.775542
-0.0133751
1.06586
-0.014876
1.31621
-0.0180439
1.5731
-0.0231883
1.8706
-0.029952
2.22561
-0.0374113
2.65083
-0.0438777
3.15988
-0.0469521
3.14375
-0.0466836
2.61364
-0.0435392
2.17943
-0.038755
1.8233
-0.0323536
1.52764
-0.0246225
1.27159
-0.0158793
1.018
-0.00790723
0.721071
-0.00244887
0.390166
0.105854
-0.00360063
0.136946
-0.0100052
0.448623
-0.0147395
0.780277
-0.0170877
1.06821
-0.0196482
1.31877
-0.0243076
1.57776
-0.031027
1.87732
-0.0395167
2.2341
-0.0486
2.65991
-0.0559961
3.16728
-0.0587944
3.14655
-0.0575363
2.61238
-0.0533489
2.17524
-0.0469203
1.81687
-0.0385023
1.51922
-0.0286317
1.26172
-0.0184185
1.00779
-0.00965519
0.712308
-0.00315028
0.383661
0.102704
-0.00496021
0.141907
-0.0138832
0.457546
-0.021056
0.787449
-0.0249951
1.07215
-0.0282044
1.32198
-0.0335101
1.58307
-0.0416354
1.88544
-0.0518014
2.24426
-0.062155
2.67026
-0.0700548
3.17518
-0.0720615
3.14855
-0.0688704
2.60919
-0.0625932
2.16896
-0.0541746
1.80845
-0.0443171
1.50937
-0.0333963
1.2508
-0.0222729
0.996666
-0.0120907
0.702126
-0.00394102
0.375511
0.098763
-0.00585486
0.147761
-0.016318
0.468009
-0.0257074
0.796839
-0.0322303
1.07868
-0.0385232
1.32827
-0.0468328
1.59138
-0.0571582
1.89577
-0.0689429
2.25605
-0.080294
2.68161
-0.0879696
3.18285
-0.088151
3.14873
-0.0826031
2.60364
-0.0740935
2.16045
-0.0634106
1.79777
-0.0513017
1.49726
-0.0384188
1.23792
-0.0256402
0.983888
-0.01414
0.690626
-0.00465284
0.366024
0.0941102
-0.00831633
0.156078
-0.0231927
0.482885
-0.0363466
0.809993
-0.0458537
1.08818
-0.0542459
1.33666
-0.0643698
1.6015
-0.0770788
1.90848
-0.0910085
2.26998
-0.103238
2.69384
-0.109626
3.18924
-0.10705
3.14616
-0.0981795
2.59477
-0.0861954
2.14847
-0.0726561
1.78423
-0.058475
1.48308
-0.0444097
1.22385
-0.0307079
0.970186
-0.0172353
0.677153
-0.0055645
0.354353
0.0885457
-0.0102516
0.166329
-0.028302
0.500936
-0.0453651
0.827056
-0.0590376
1.10185
-0.0721507
1.34977
-0.0873135
1.61666
-0.104033
1.9252
-0.120135
2.28608
-0.132237
2.70595
-0.136122
3.19312
-0.129565
3.1396
-0.116913
2.58212
-0.101655
2.13321
-0.0854837
1.76806
-0.0693706
1.46696
-0.0532831
1.20776
-0.036808
0.953711
-0.0205867
0.660932
-0.00665235
0.340419
0.0818933
-0.0148874
0.181217
-0.039387
0.525435
-0.0613499
0.849019
-0.079481
1.11999
-0.0972896
1.36758
-0.117012
1.63638
-0.137278
1.94546
-0.155134
2.30394
-0.166367
2.71718
-0.167086
3.19384
-0.156337
3.12885
-0.139782
2.56556
-0.120669
2.1141
-0.100671
1.74806
-0.0809791
1.44727
-0.0622905
1.18907
-0.0439922
0.935412
-0.0249248
0.641864
-0.00785445
0.323349
0.0740389
-0.019081
0.200298
-0.0505454
0.5569
-0.0800944
0.878568
-0.105227
1.14512
-0.130773
1.39313
-0.157392
1.663
-0.181612
1.96968
-0.199736
2.32206
-0.208435
2.72588
-0.204592
3.19
-0.188458
3.11272
-0.166718
2.54382
-0.143315
2.09069
-0.120447
1.72519
-0.0987184
1.42554
-0.0771324
1.16749
-0.0538536
0.912134
-0.0296023
0.617613
-0.00907242
0.302819
0.0649665
-0.0326815
0.232979
-0.075077
0.599295
-0.113061
0.916551
-0.145706
1.17776
-0.180094
1.42752
-0.211311
1.69422
-0.236012
1.99438
-0.251455
2.3375
-0.256021
2.73044
-0.246868
3.18085
-0.22511
3.09096
-0.19881
2.51752
-0.171352
2.06323
-0.144033
1.69788
-0.117586
1.3991
-0.0917882
1.14169
-0.0650759
0.885421
-0.0363672
0.588904
-0.0106301
0.277082
0.0543363
-0.0451148
0.278094
-0.110959
0.665139
-0.165277
0.970869
-0.210276
1.22276
-0.25126
1.4685
-0.280959
1.72392
-0.301354
2.01478
-0.311988
2.34814
-0.31139
2.72985
-0.296695
3.16615
-0.268359
3.06262
-0.235431
2.48459
-0.202845
2.03065
-0.172152
1.66718
-0.142859
1.3698
-0.112971
1.1118
-0.0794563
0.851906
-0.0413624
0.550811
-0.0106693
0.246389
0.043667
-0.029858
0.307952
-0.0862183
0.721499
-0.139612
1.02426
-0.186369
1.26952
-0.22867
1.5108
-0.266833
1.76208
-0.301056
2.049
-0.329068
2.37615
-0.347013
2.74779
-0.348161
3.1673
-0.326996
3.04146
-0.293941
2.45154
-0.254481
1.99119
-0.21267
1.62537
-0.170036
1.32717
-0.125332
1.0671
-0.0775519
0.804126
-0.0342968
0.507555
-0.00802591
0.220118
0.0356411
-0.00929572
0.317248
-0.0359403
0.748144
-0.0694314
1.05775
-0.105705
1.30579
-0.142857
1.54795
-0.179621
1.79885
-0.212826
2.08221
-0.239586
2.40291
-0.25546
2.76367
-0.252079
3.16392
-0.228425
3.0178
-0.19474
2.41785
-0.155665
1.95211
-0.114868
1.58457
-0.0755386
1.28784
-0.0400209
1.03158
-0.0115374
0.775643
0.00370719
0.492311
0.00456423
0.219261
0.0402053
0.00118141
0.316066
-0.0156604
0.764986
-0.0401222
1.08222
-0.0665209
1.33219
-0.0942638
1.5757
-0.12404
1.82862
-0.153023
2.11119
-0.177241
2.42713
-0.191527
2.77795
-0.187386
3.15978
-0.164765
2.99518
-0.133263
2.38635
-0.098778
1.91763
-0.065122
1.55092
-0.0339416
1.25666
-0.00761091
1.00525
0.0103679
0.757664
0.0148662
0.487813
0.00723939
0.226888
0.0474447
0.00101793
0.315048
-0.0110572
0.777061
-0.0284961
1.09965
-0.0484839
1.35218
-0.0697997
1.59701
-0.0929596
1.85178
-0.116527
2.13476
-0.137067
2.44767
-0.14905
2.78993
-0.144325
3.15505
-0.125134
2.97599
-0.0993561
2.36057
-0.071617
1.88989
-0.0444624
1.52376
-0.0204506
1.23265
4.24187e-05
0.984756
0.0140014
0.743705
0.0155851
0.486229
0.00656229
0.23591
0.054007
0.00494194
0.310106
-0.00338438
0.785387
-0.0205463
1.11682
-0.0393541
1.37099
-0.0579182
1.61558
-0.0770612
1.87093
-0.0964735
2.15417
-0.113493
2.46469
-0.122923
2.79936
-0.119581
3.15171
-0.104699
2.96111
-0.0823111
2.33819
-0.058638
1.86622
-0.0353431
1.50047
-0.0127722
1.21008
0.00494521
0.967038
0.0142756
0.734375
0.0131654
0.487339
0.00490019
0.244176
0.0589072
0.00512638
0.30498
0.000477706
0.790036
-0.0144656
1.13176
-0.0327872
1.38931
-0.051017
1.63381
-0.0688705
1.88878
-0.0861821
2.17148
-0.100908
2.47941
-0.108665
2.80712
-0.107479
3.15053
-0.0949817
2.94861
-0.0756536
2.31886
-0.0543084
1.84487
-0.0342145
1.48038
-0.0163515
1.19221
-0.00122294
0.95191
0.00730488
0.725847
0.00750639
0.487137
0.00279535
0.248887
0.0617026
0.00390143
0.301079
0.000643338
0.793294
-0.0117563
1.14416
-0.0283382
1.40589
-0.0461518
1.65162
-0.0641745
1.9068
-0.0812092
2.18851
-0.0953391
2.49354
-0.102936
2.81472
-0.103009
3.1506
-0.0909049
2.93651
-0.073004
2.30096
-0.0541933
1.82606
-0.0350181
1.4612
-0.0184441
1.17564
-0.00706211
0.940528
-0.00125297
0.720038
-1.10302e-05
0.485896
0.000170974
0.248705
0.0618735
0.00244837
0.29863
-0.000612023
0.796354
-0.0114882
1.15504
-0.0264661
1.42087
-0.0434164
1.66857
-0.0614482
1.92483
-0.0787886
2.20585
-0.09314
2.50789
-0.101241
2.82282
-0.101621
3.15098
-0.0902605
2.92515
-0.0743909
2.28509
-0.0566967
1.80837
-0.0409668
1.44547
-0.0275885
1.16226
-0.0160191
0.928959
-0.00896695
0.712985
-0.00530437
0.482233
-0.00164136
0.245042
0.0602322
0.000765519
0.297865
-0.00271425
0.799834
-0.0124198
1.16474
-0.0261319
1.43458
-0.0422825
1.68472
-0.0601388
1.94269
-0.0778024
2.22352
-0.0929851
2.52308
-0.103141
2.83298
-0.105859
3.1537
-0.0951062
2.91439
-0.0785314
2.26851
-0.0616299
1.79146
-0.0466721
1.43051
-0.0326599
1.14825
-0.0223679
0.918667
-0.0143703
0.704988
-0.00790562
0.475768
-0.00253384
0.23967
0.0576983
-0.00107176
0.298937
-0.00515354
0.803916
-0.0142791
1.17387
-0.0271408
1.44744
-0.0425059
1.70009
-0.0598329
1.96002
-0.077525
2.24121
-0.0934985
2.53905
-0.105742
2.84522
-0.109013
3.15697
-0.0985528
2.90393
-0.0847175
2.25468
-0.0701092
1.77686
-0.0537307
1.41413
-0.0405724
1.13509
-0.0280061
0.9061
-0.0177581
0.69474
-0.0096252
0.467635
-0.00309778
0.233142
0.0546005
-0.00258623
0.301523
-0.00724688
0.808577
-0.0159805
1.1826
-0.0283267
1.45979
-0.043222
1.71498
-0.0600833
1.97688
-0.077696
2.25882
-0.0945265
2.55588
-0.109225
2.85992
-0.115674
3.16342
-0.109912
2.89817
-0.094268
2.23903
-0.075131
1.75772
-0.0598578
1.39886
-0.0451458
1.12038
-0.0331882
0.894143
-0.0220769
0.683629
-0.0114142
0.456973
-0.00357927
0.225308
0.0510213
-0.00364337
0.305166
-0.00913919
0.814072
-0.0179087
1.19137
-0.0298743
1.47175
-0.0442327
1.72934
-0.0605196
1.99317
-0.0779336
2.27624
-0.0953181
2.57326
-0.111866
2.87647
-0.121533
3.17308
-0.117714
2.89435
-0.103558
2.22488
-0.0866642
1.74083
-0.0682987
1.3805
-0.0522822
1.10436
-0.0371076
0.878968
-0.0241168
0.670638
-0.012851
0.445707
-0.0039472
0.216404
0.0470741
-0.00423856
0.309405
-0.0103872
0.820221
-0.0191781
1.20016
-0.0309372
1.48351
-0.0450058
1.74341
-0.0608871
2.00905
-0.0780784
2.29343
-0.0960222
2.59121
-0.114398
2.89484
-0.127348
3.18603
-0.127006
2.89401
-0.113071
2.21094
-0.0915653
1.71932
-0.0727508
1.36168
-0.056436
1.08805
-0.0433469
0.865879
-0.0294052
0.656696
-0.0148252
0.431127
-0.00444503
0.206024
0.042629
-0.00467879
0.314083
-0.0114326
0.826975
-0.0203322
1.20906
-0.0318354
1.49502
-0.045496
1.75707
-0.0608868
2.02444
-0.0777557
2.3103
-0.0959034
2.60936
-0.115029
2.91397
-0.131058
3.20206
-0.13625
2.8992
-0.126058
2.20075
-0.106877
1.70014
-0.082713
1.33752
-0.0637375
1.06907
-0.0463842
0.848525
-0.0306663
0.640978
-0.0164015
0.416862
-0.0047333
0.194355
0.0378957
-0.00490265
0.318986
-0.0119788
0.834051
-0.0208283
1.21791
-0.0321111
1.5063
-0.0454758
1.77043
-0.0604725
2.03944
-0.0770283
2.32685
-0.0955476
2.62787
-0.116307
2.93473
-0.136038
3.22179
-0.144427
2.90759
-0.137339
2.19366
-0.116975
1.67977
-0.0917733
1.31232
-0.0663864
1.04369
-0.0492476
0.831387
-0.0334623
0.625193
-0.0166748
0.400074
-0.004425
0.182106
0.0334707
-0.00500825
0.323994
-0.0123933
0.841436
-0.021233
1.22675
-0.032206
1.51727
-0.0450762
1.7833
-0.059525
2.05388
-0.0757718
2.3431
-0.0945591
2.64666
-0.115771
2.95594
-0.135952
3.24197
-0.147349
2.91899
-0.146685
2.193
-0.133761
1.66685
-0.106035
1.28459
-0.0749082
1.01256
-0.0480826
0.804561
-0.0304948
0.607605
-0.0161642
0.385744
-0.00334467
0.169286
0.0301261
-0.00498095
0.328975
-0.0124558
0.848911
-0.0211735
1.23547
-0.0318074
1.52791
-0.0441816
1.79568
-0.0581596
2.06786
-0.0742159
2.35916
-0.0933372
2.66578
-0.115559
2.97816
-0.138278
3.26469
-0.153436
2.93415
-0.154858
2.19442
-0.142898
1.65489
-0.120375
1.26207
-0.0844471
0.976632
-0.0488882
0.769002
-0.0249092
0.583626
-0.0095999
0.370434
-0.00130889
0.160995
0.0288172
-0.00488407
0.333859
-0.0124452
0.856472
-0.021066
1.24409
-0.0312505
1.53809
-0.0429389
1.80737
-0.0564497
2.08137
-0.0724377
2.37514
-0.0919207
2.68527
-0.114751
3.00099
-0.138107
3.28805
-0.155312
2.95135
-0.161208
2.20032
-0.156906
1.65059
-0.136829
1.24199
-0.10321
0.943014
-0.0519454
0.717738
-0.00947594
0.541157
0.0108958
0.350063
0.00770979
0.164181
0.036527
-0.00470672
0.338566
-0.0122222
0.863988
-0.0206596
1.25253
-0.0302752
1.54771
-0.0412771
1.81837
-0.0545514
2.09465
-0.0705565
2.39115
-0.090337
2.70505
-0.113302
3.02396
-0.13701
3.31176
-0.156628
2.97097
-0.165374
2.20906
-0.16084
1.64605
-0.147373
1.22852
-0.117186
0.912827
-0.0689237
0.669475
0.00232069
0.469912
0.0532209
0.299162
0.0441634
0.173239
0.0806904
-0.00449982
0.343066
-0.011492
0.87098
-0.0193349
1.26037
-0.0288348
1.55721
-0.0402989
1.82983
-0.0539047
2.10825
-0.0704738
2.40772
-0.0906916
2.72526
-0.114032
3.0473
-0.139313
3.33704
-0.160561
2.99222
-0.171734
2.22024
-0.172283
1.6466
-0.156872
1.21311
-0.131366
0.887321
-0.0760019
0.614111
0.0140278
0.379883
0.103028
0.210162
0.124666
0.151601
0.205356
-0.00439353
0.347459
-0.0110476
0.877634
-0.0186389
1.26796
-0.0282729
1.56684
-0.0401641
1.84172
-0.0544286
2.12252
-0.0721554
2.42545
-0.0941151
2.74722
-0.119922
3.0731
-0.14818
3.36529
-0.174459
3.0185
-0.193494
2.23927
-0.19775
1.65086
-0.187577
1.20294
-0.156068
0.855811
-0.118979
0.577023
-0.141393
0.402297
-0.398653
0.467422
-0.97497
0.727918
0.919088
-1.6887
-0.00426834
0.351728
-0.0108597
0.884225
-0.018338
1.27544
-0.0274659
1.57597
-0.0387786
1.85304
-0.0531759
2.13692
-0.0713816
2.44365
-0.0941939
2.77004
-0.121543
3.10045
-0.154424
3.39818
-0.187418
3.05149
-0.211181
2.26303
-0.229675
1.66935
-0.234854
1.20812
-0.231729
0.852687
-0.327258
0.672552
-0.74747
0.822509
-1.46303
1.18299
-2.06153
1.32641
1.21315
-2.35559
-0.00406455
0.355792
-0.0104445
0.890605
-0.0176312
1.28262
-0.0262563
1.58459
-0.0374369
1.86422
-0.052151
2.15163
-0.0707881
2.46229
-0.0943316
2.79358
-0.123099
3.12922
-0.158326
3.4334
-0.194753
3.08792
-0.229658
2.29794
-0.257601
1.69729
-0.276333
1.22685
-0.390384
0.966737
-0.827499
1.10967
-1.57076
1.56577
-2.11697
1.7292
-2.34518
1.55462
1.31987
-2.45191
-0.00348413
0.359276
-0.00999649
0.897117
-0.0168504
1.28948
-0.0247165
1.59246
-0.0359378
1.87544
-0.0510449
2.16674
-0.0698812
2.48112
-0.0940741
2.81777
-0.124612
3.15976
-0.164779
3.47357
-0.210819
3.13396
-0.252856
2.33998
-0.295719
1.74016
-0.396553
1.32768
-0.741716
1.3119
-1.45995
1.8279
-2.03238
2.1382
-2.26491
1.96173
-2.37434
1.66405
1.38798
-2.44245
-0.00251039
0.361787
-0.00785256
0.90246
-0.0144122
1.29604
-0.023097
1.60114
-0.0350813
1.88742
-0.050146
2.1818
-0.0689759
2.49995
-0.0937168
2.84251
-0.12585
3.19189
-0.168947
3.51667
-0.218323
3.18334
-0.272742
2.3944
-0.343312
1.81073
-0.552239
1.53661
-1.16003
1.91969
-1.82753
2.4954
-2.13621
2.44688
-2.27841
2.10393
-2.35935
1.74499
1.44778
-2.41915
-0.00188703
0.363674
-0.00588123
0.906454
-0.0126789
1.30284
-0.0228526
1.61132
-0.035634
1.9002
-0.0507098
2.19688
-0.0698584
2.5191
-0.0953779
2.86803
-0.129353
3.22587
-0.176966
3.56428
-0.235141
3.24151
-0.29625
2.4555
-0.417728
1.9322
-0.812743
1.93162
-1.53529
2.64224
-1.98351
2.94362
-2.16453
2.6279
-2.25869
2.19808
-2.33006
1.81636
1.50745
-2.38972
-0.00173168
0.365406
-0.00612157
0.910844
-0.0134052
1.31012
-0.023975
1.62189
-0.0372526
1.91348
-0.0529813
2.21261
-0.0729969
2.53912
-0.0997781
2.89481
-0.135944
3.26203
-0.187793
3.61613
-0.248994
3.30271
-0.327092
2.5336
-0.542745
2.14786
-1.10961
2.49849
-1.72031
3.25293
-1.97895
3.20227
-2.11549
2.76444
-2.21845
2.30104
-2.30244
1.90035
1.56982
-2.36481
-0.0018153
0.367221
-0.00693242
0.915961
-0.0146743
1.31786
-0.0252809
1.63249
-0.0388381
1.92704
-0.0552262
2.22899
-0.0760154
2.55991
-0.103799
2.9226
-0.141799
3.30003
-0.19789
3.67222
-0.268805
3.37363
-0.376237
2.64103
-0.681996
2.45361
-1.33088
3.14738
-1.78794
3.70999
-1.98523
3.39956
-2.1192
2.89841
-2.22323
2.40506
-2.30489
1.98202
1.60394
-2.33901
-0.0020891
0.36931
-0.00764976
0.921522
-0.0159245
1.32614
-0.0268461
1.64342
-0.0406432
1.94084
-0.0575432
2.24589
-0.0791973
2.58156
-0.108111
2.95151
-0.148359
3.34028
-0.208079
3.73194
-0.281093
3.44664
-0.424827
2.78477
-0.835831
2.86462
-1.46943
3.78097
-1.80242
4.04299
-1.96309
3.56023
-2.06244
2.99776
-2.14916
2.49179
-2.20763
2.04048
1.54775
-2.15144
-0.00220152
0.371511
-0.0080687
0.927389
-0.0168344
1.3349
-0.0282202
1.6548
-0.0424327
1.95505
-0.0599045
2.26337
-0.0823048
2.60396
-0.112129
2.98134
-0.15407
3.38222
-0.219437
3.79731
-0.317253
3.54446
-0.511191
2.97871
-0.972728
3.32616
-1.51752
4.32576
-1.77446
4.29993
-1.9257
3.71147
-2.01142
3.08348
-2.02798
2.50835
-1.95675
1.96926
1.49394
-1.90294
-0.00225932
0.373771
-0.00841538
0.933545
-0.0176032
1.34409
-0.0294304
1.66663
-0.0439431
1.96956
-0.0616007
2.28102
-0.0842867
2.62665
-0.114218
3.01127
-0.156324
3.42433
-0.218237
3.85922
-0.318482
3.6447
-0.549643
3.20987
-1.05079
3.82731
-1.47854
4.75351
-1.65142
4.47281
-1.73889
3.79893
-1.77993
3.12451
-1.65529
2.38371
-1.14856
1.46253
0.345381
-0.00196093
0.375732
-0.00808421
0.939668
-0.0176631
1.35367
-0.0303096
1.67928
-0.0459005
1.98515
-0.0649221
2.30004
-0.0895908
2.65132
-0.121882
3.04356
-0.166672
3.46912
-0.233772
3.92632
-0.352907
3.76384
-0.630983
3.48794
-1.18771
4.38404
-1.5405
5.1063
-1.66269
4.595
-1.70089
3.83714
-1.60993
3.03355
-1.27998
2.05376
-0.499202
0.681746
-0.153822
-0.00171122
0.377443
-0.00807373
0.946031
-0.0181144
1.36371
-0.0311545
1.69232
-0.0474139
2.00141
-0.0676302
2.32026
-0.0939094
2.6776
-0.128416
3.07806
-0.177054
3.51776
-0.251134
4.0004
-0.393826
3.90653
-0.734149
3.82827
-1.29781
4.94769
-1.55348
5.36198
-1.62809
4.66961
-1.60935
3.8184
-1.37059
2.7948
-0.675932
1.3591
-0.0193649
0.0251788
-0.173187
-0.000981075
0.378424
-0.00700322
0.952053
-0.0172126
1.37392
-0.0308123
1.70592
-0.0479383
2.01854
-0.0695863
2.34191
-0.0981715
2.70618
-0.134958
3.11485
-0.184335
3.56713
-0.269167
4.08523
-0.441074
4.07844
-0.833143
4.22033
-1.36179
5.47634
-1.54023
5.54041
-1.5856
4.71498
-1.48028
3.71308
-1.02842
2.34294
-0.207069
0.537745
0.0295832
-0.211474
-0.143603
-0.000279873
0.378704
-0.00604013
0.957813
-0.0164408
1.38432
-0.0302271
1.7197
-0.0477113
2.03602
-0.0703006
2.3645
-0.100428
2.73631
-0.13946
3.15388
-0.190789
3.61846
-0.28263
4.17707
-0.481078
4.27689
-0.93029
4.66955
-1.38893
5.93498
-1.50874
5.66022
-1.50031
4.70656
-1.23485
3.44761
-0.562182
1.67027
-0.00857718
-0.0158598
0.0207933
-0.240844
-0.12281
0.00107783
0.377626
-0.00342637
0.962317
-0.0135108
1.3944
-0.0275534
1.73374
-0.045503
2.05397
-0.0690174
2.38801
-0.101431
2.76872
-0.143587
3.19604
-0.19589
3.67077
-0.288301
4.26948
-0.505083
4.49367
-1.0027
5.16716
-1.3602
6.29247
-1.41882
5.71885
-1.35079
4.63853
-1.00591
3.10273
-0.219847
0.88421
0.018838
-0.254545
0.0134879
-0.235494
-0.109322
0.00251525
0.375111
-0.000821694
0.965654
-0.0105479
1.40413
-0.0242687
1.74747
-0.0418827
2.07158
-0.0655854
2.41172
-0.0990627
2.8022
-0.143482
3.24046
-0.198137
3.72542
-0.291386
4.36273
-0.524363
4.72664
-1.03922
5.68202
-1.30202
6.55527
-1.33701
5.75384
-1.16873
4.47025
-0.656684
2.59068
0.024213
0.203313
0.0525602
-0.282892
0.028285
-0.211219
-0.0810372
0.00507324
0.370038
0.00411656
0.966611
-0.00435064
1.4126
-0.0178622
1.76098
-0.0351895
2.08891
-0.0582567
2.43478
-0.0919285
2.83587
-0.138822
3.28735
-0.198212
3.78481
-0.288512
4.45303
-0.531359
4.96949
-1.01915
6.16982
-1.20856
6.74468
-1.21953
5.76481
-0.956725
4.20744
-0.332373
1.96633
0.0498655
-0.178926
0.0644894
-0.297516
0.0421647
-0.188894
-0.0388725
0.0080695
0.361968
0.00968131
0.964999
0.00273103
1.41955
-0.0097661
1.77347
-0.0258666
2.10501
-0.0476259
2.45654
-0.0804448
2.86869
-0.128129
3.33504
-0.193629
3.85031
-0.286604
4.54601
-0.51533
5.19822
-0.942535
6.59702
-1.08964
6.89179
-1.10166
5.77682
-0.864905
3.97068
-0.197779
1.29921
-0.0740735
-0.302631
-0.0138648
-0.357725
0.0234459
-0.226205
-0.0154266
0.0124911
0.349477
0.0185921
0.958898
0.0143272
1.42381
0.0027498
1.78505
-0.0126879
2.12045
-0.0318263
2.47568
-0.0598445
2.89671
-0.105063
3.38025
-0.175219
3.92047
-0.270839
4.64163
-0.473869
5.40125
-0.79902
6.92217
-0.906731
6.9995
-0.91922
5.78931
-0.699203
3.75067
-0.162977
0.762982
-0.205423
-0.260185
-0.138249
-0.424898
-0.0364767
-0.327978
-0.0519033
0.0176511
0.331826
0.0291054
0.947444
0.0285409
1.42438
0.0195913
1.794
0.00593996
2.1341
-0.0108125
2.49243
-0.0333089
2.9192
-0.0721123
3.41906
-0.14359
3.99195
-0.25169
4.74972
-0.397061
5.54662
-0.597126
7.12224
-0.687894
7.09027
-0.748075
5.84949
-0.53831
3.5409
-0.343952
0.568624
-0.442765
-0.161373
-0.331303
-0.53636
-0.154798
-0.504482
-0.206702
0.0243884
0.307437
0.0434776
0.928354
0.0480051
1.41985
0.0417884
1.80022
0.0296765
2.14621
0.0157352
2.50637
0.00107714
2.93386
-0.0236015
3.44374
-0.0804261
4.04877
-0.181005
4.8503
-0.283978
5.64959
-0.369305
7.20756
-0.403639
7.1246
-0.437535
5.88339
-0.361148
3.46452
-0.50182
0.709296
-0.564335
-0.0988576
-0.45612
-0.644575
-0.248421
-0.712181
-0.455123
0.0318923
0.275545
0.0602262
0.90002
0.0720379
1.40804
0.0714013
1.80085
0.0635555
2.15406
0.0519596
2.51797
0.0446587
2.94116
0.0376639
3.45073
0.00924323
4.07719
-0.054206
4.91375
-0.0788783
5.67427
-0.0862678
7.21495
-0.00765922
7.04599
0.0512106
5.82452
-0.0481005
3.56383
-0.310165
0.97136
-0.334009
-0.075013
-0.324442
-0.654142
-0.194068
-0.842555
-0.649192
0.0406689
0.234876
0.0809995
0.85969
0.101232
1.38781
0.10657
1.79552
0.105224
2.15541
0.0972564
2.52594
0.0938795
2.94454
0.10115
3.44346
0.103267
4.07507
0.0791712
4.93785
0.147505
5.60593
0.319907
7.04255
0.489014
6.87689
0.62498
5.68855
0.375111
3.8137
-0.0190388
1.36551
-0.153522
0.0594706
-0.231212
-0.576453
-0.146583
-0.927183
-0.795775
0.0479127
0.186964
0.102583
0.80502
0.135038
1.35535
0.148785
1.78177
0.155106
2.14909
0.154081
2.52696
0.15675
2.94187
0.179097
3.42111
0.219506
4.03466
0.258526
4.89883
0.423452
5.44101
0.829943
6.63606
1.11166
6.59517
1.38786
5.41236
1.26286
3.93869
0.704732
1.92364
0.279223
0.484979
0.00839898
-0.305628
-0.0443153
-0.874469
-0.84009
0.0528993
0.134064
0.125824
0.732095
0.173961
1.30721
0.199148
1.75658
0.215001
2.13323
0.224312
2.51765
0.235304
2.93088
0.267844
3.38857
0.348166
3.95434
0.467329
4.77967
0.785437
5.1229
1.41251
6.00899
1.76193
6.24575
2.05835
5.11593
2.10292
3.89412
1.63723
2.38933
1.04862
1.0736
0.561344
0.181643
0.167012
-0.480137
-0.673078
0.0494899
0.0845743
0.145846
0.635739
0.215562
1.2375
0.252967
1.71918
0.27651
2.10969
0.296811
2.49735
0.319255
2.90843
0.354938
3.35289
0.454899
3.85438
0.623847
4.61072
0.948818
4.79793
1.72836
5.22945
2.11185
5.86226
2.35671
4.87107
2.4454
3.80543
2.12805
2.70668
1.5591
1.64254
0.940929
0.799811
0.385185
0.0756065
-0.287893
0.0411649
0.0434094
0.164353
0.512551
0.260205
1.14165
0.316711
1.66267
0.352552
2.07385
0.383325
2.46658
0.418595
2.87316
0.449997
3.32149
0.528188
3.77619
0.72218
4.41673
0.978719
4.54139
1.63027
4.5779
2.08437
5.40816
2.27158
4.68385
2.29521
3.78181
2.03697
2.96492
1.56075
2.11877
1.02776
1.33279
0.47963
0.62374
0.191737
0.0327127
0.0106967
0.182269
0.362994
0.304965
1.01895
0.381159
1.58648
0.428861
2.02615
0.468952
2.42649
0.506674
2.83544
0.542434
3.28573
0.580307
3.73832
0.736077
4.26096
0.930356
4.34711
1.32129
4.18696
1.73274
4.99672
1.76007
4.65653
1.64321
3.89867
1.44003
3.16809
1.13709
2.42171
0.788508
1.68138
0.357827
1.05442
0.549564
0.0292997
-0.018603
0.17766
0.214634
0.339712
0.856897
0.445976
1.48021
0.507622
1.9645
0.558392
2.37572
0.595714
2.79812
0.641919
3.23952
0.659997
3.72024
0.693819
4.22713
0.791337
4.24959
0.954157
4.02414
1.20218
4.74869
1.19753
4.66118
1.06968
4.02652
0.924529
3.31324
0.722164
2.62407
0.477413
1.92613
0.189217
1.34262
0.738782
0.0319228
-0.0505258
0.119196
0.127361
0.27533
0.700763
0.399269
1.35627
0.473517
1.89025
0.517158
2.33208
0.537211
2.77807
0.544357
3.23238
0.52173
3.74287
0.432732
4.31613
0.402193
4.28013
0.451256
3.97508
0.520313
4.67963
0.531753
4.64974
0.504669
4.0536
0.430152
3.38776
0.314147
2.74008
0.175692
2.06458
0.0454753
1.47283
0.784257
0.00857021
-0.0590961
0.0139281
0.122003
0.0923876
0.622304
0.190101
1.25856
0.273353
1.807
0.33399
2.27144
0.376126
2.73593
0.381313
3.22719
0.365043
3.75914
0.267679
4.4135
0.204227
4.34358
0.237977
3.94133
0.373513
4.5441
0.410462
4.61279
0.354331
4.10974
0.266066
3.47602
0.168701
2.83744
0.058394
2.17489
-0.0147255
1.54595
0.769531
-0.0166875
-0.0424086
-0.0423672
0.147682
-0.026642
0.606579
0.0389119
1.19301
0.117541
1.72837
0.187745
2.20124
0.24781
2.67586
0.269156
3.20584
0.271055
3.75724
0.202973
4.48158
0.111982
4.43457
0.106765
3.94655
0.209708
4.44116
0.212734
4.60977
0.173025
4.14944
0.116128
3.53292
0.0558709
2.8977
-0.00990067
2.24066
-0.0406193
1.57667
0.728912
-0.0310059
-0.0114027
-0.0793418
0.196018
-0.0950678
0.622305
-0.0507274
1.14867
0.0252502
1.65239
0.0999233
2.12656
0.171972
2.60382
0.224557
3.15326
0.249498
3.7323
0.216648
4.51443
0.0966528
4.55457
0.042611
4.00059
0.0971471
4.38662
0.0995047
4.60741
0.0745849
4.17436
0.0358348
3.57167
-0.0172651
2.9508
-0.0572863
2.28068
-0.0577508
1.57714
0.671161
-0.0350551
0.0236524
-0.0924419
0.253405
-0.122814
0.652677
-0.09492
1.12077
-0.026082
1.58356
0.0551477
2.04533
0.141113
2.51785
0.22789
3.06648
0.283499
3.67669
0.293335
4.50459
0.160724
4.68718
0.0305124
4.1308
0.0492488
4.36788
0.0520113
4.60465
0.0232783
4.2031
-0.0198131
3.61476
-0.0663375
2.99732
-0.0867083
2.30106
-0.0689352